/*--------------------------------*- C++ -*----------------------------------*\
| =========                 |                                                 |
| \\      /  F ield         | OpenFOAM: The Open Source CFD Toolbox           |
|  \\    /   O peration     | Version:  v2006                                 |
|   \\  /    A nd           | Website:  www.openfoam.com                      |
|    \\/     M anipulation  |                                                 |
\*---------------------------------------------------------------------------*/
FoamFile
{
    version     2.0;
    format      ascii;
    class       volScalarField;
    location    "19.6";
    object      p_rgh;
}
// * * * * * * * * * * * * * * * * * * * * * * * * * * * * * * * * * * * * * //

dimensions      [1 -1 -2 0 0 0 0];


internalField   nonuniform List<scalar> 
50000
(
2584.95
2584.96
2584.97
2584.95
2584.91
2584.86
2584.8
2584.72
2584.62
2584.5
2584.36
2584.19
2583.99
2583.76
2583.5
2583.22
2582.92
2582.61
2582.29
2581.96
2581.63
2581.31
2581
2580.69
2580.41
2580.14
2579.9
2579.68
2579.49
2579.33
2579.2
2579.11
2579.05
2579.03
2579.05
2579.1
2579.2
2579.35
2579.54
2579.78
2580.07
2580.4
2580.8
2581.24
2581.74
2582.3
2582.91
2583.58
2584.32
2585.12
2585.98
2586.9
2587.9
2588.96
2590.09
2591.3
2592.58
2593.93
2595.36
2596.87
2598.45
2600.11
2601.85
2603.67
2605.57
2607.55
2609.62
2611.76
2613.98
2616.29
2618.67
2621.13
2623.67
2626.29
2628.99
2631.76
2634.61
2637.53
2640.53
2643.59
2646.72
2649.92
2653.19
2656.51
2659.9
2663.34
2666.84
2670.39
2673.99
2677.64
2681.33
2685.06
2688.83
2692.63
2696.46
2700.32
2704.21
2708.11
2712.03
2715.96
2719.9
2723.84
2727.79
2731.72
2735.64
2739.55
2743.44
2747.31
2751.15
2754.97
2758.76
2762.52
2766.23
2769.91
2773.55
2777.14
2780.68
2784.15
2787.57
2790.91
2794.18
2797.37
2800.49
2803.53
2806.48
2809.35
2812.12
2814.81
2817.39
2819.88
2822.27
2824.55
2826.73
2828.79
2830.75
2832.6
2834.33
2835.95
2837.45
2838.83
2840.09
2841.24
2842.25
2843.15
2843.92
2844.56
2845.08
2845.47
2845.72
2845.85
2584.91
2584.93
2584.94
2584.92
2584.89
2584.85
2584.79
2584.72
2584.63
2584.52
2584.38
2584.21
2584.01
2583.78
2583.52
2583.24
2582.94
2582.62
2582.29
2581.96
2581.62
2581.29
2580.97
2580.67
2580.38
2580.11
2579.86
2579.63
2579.44
2579.27
2579.14
2579.04
2578.97
2578.94
2578.95
2579.01
2579.1
2579.24
2579.42
2579.66
2579.94
2580.28
2580.67
2581.11
2581.61
2582.17
2582.78
2583.45
2584.19
2584.98
2585.84
2586.77
2587.76
2588.82
2589.95
2591.15
2592.42
2593.78
2595.2
2596.71
2598.29
2599.95
2601.69
2603.51
2605.41
2607.39
2609.45
2611.59
2613.82
2616.12
2618.51
2620.97
2623.51
2626.14
2628.83
2631.61
2634.46
2637.39
2640.38
2643.45
2646.59
2649.79
2653.06
2656.39
2659.78
2663.23
2666.73
2670.29
2673.9
2677.55
2681.25
2684.98
2688.76
2692.57
2696.41
2700.28
2704.17
2708.08
2712.01
2715.95
2719.89
2723.84
2727.79
2731.72
2735.65
2739.57
2743.46
2747.33
2751.18
2754.99
2758.79
2762.55
2766.3
2770
2773.66
2777.25
2780.8
2784.28
2787.69
2791.04
2794.31
2797.52
2800.64
2803.68
2806.64
2809.51
2812.29
2814.98
2817.57
2820.06
2822.45
2824.74
2826.92
2828.99
2830.95
2832.8
2834.54
2836.16
2837.66
2839.04
2840.31
2841.45
2842.47
2843.36
2844.13
2844.78
2845.29
2845.68
2845.94
2846.07
2584.85
2584.87
2584.88
2584.88
2584.86
2584.83
2584.79
2584.73
2584.65
2584.56
2584.43
2584.27
2584.07
2583.84
2583.57
2583.28
2582.97
2582.64
2582.29
2581.95
2581.6
2581.26
2580.93
2580.61
2580.31
2580.03
2579.77
2579.54
2579.34
2579.17
2579.03
2578.92
2578.85
2578.82
2578.82
2578.87
2578.96
2579.09
2579.27
2579.49
2579.77
2580.09
2580.47
2580.9
2581.39
2581.93
2582.53
2583.19
2583.92
2584.7
2585.55
2586.47
2587.46
2588.51
2589.64
2590.84
2592.11
2593.45
2594.88
2596.38
2597.96
2599.61
2601.35
2603.17
2605.07
2607.05
2609.11
2611.25
2613.48
2615.78
2618.17
2620.64
2623.18
2625.81
2628.51
2631.3
2634.15
2637.08
2640.09
2643.16
2646.31
2649.52
2652.8
2656.14
2659.54
2663
2666.51
2670.08
2673.7
2677.37
2681.08
2684.83
2688.62
2692.44
2696.3
2700.18
2704.08
2708.01
2711.95
2715.9
2719.87
2723.83
2727.79
2731.75
2735.69
2739.62
2743.54
2747.44
2751.32
2755.16
2758.98
2762.76
2766.5
2770.21
2773.87
2777.47
2781.02
2784.51
2787.94
2791.3
2794.59
2797.8
2800.94
2803.99
2806.96
2809.84
2812.63
2815.33
2817.93
2820.43
2822.83
2825.12
2827.31
2829.39
2831.36
2833.21
2834.96
2836.58
2838.09
2839.48
2840.74
2841.89
2842.91
2843.81
2844.58
2845.23
2845.75
2846.14
2846.4
2846.53
2584.74
2584.76
2584.78
2584.8
2584.8
2584.79
2584.77
2584.75
2584.7
2584.62
2584.51
2584.36
2584.16
2583.93
2583.65
2583.34
2583.01
2582.66
2582.29
2581.92
2581.55
2581.19
2580.84
2580.51
2580.19
2579.89
2579.62
2579.38
2579.17
2578.99
2578.83
2578.72
2578.64
2578.59
2578.59
2578.63
2578.7
2578.83
2578.99
2579.21
2579.47
2579.78
2580.15
2580.57
2581.04
2581.57
2582.16
2582.81
2583.52
2584.3
2585.14
2586.04
2587.02
2588.06
2589.18
2590.37
2591.63
2592.97
2594.39
2595.89
2597.46
2599.11
2600.85
2602.66
2604.56
2606.54
2608.6
2610.74
2612.97
2615.27
2617.66
2620.13
2622.69
2625.32
2628.03
2630.82
2633.68
2636.63
2639.64
2642.73
2645.89
2649.11
2652.4
2655.76
2659.18
2662.65
2666.19
2669.77
2673.41
2677.1
2680.83
2684.6
2688.41
2692.25
2696.13
2700.03
2703.96
2707.91
2711.87
2715.84
2719.83
2723.82
2727.8
2731.78
2735.76
2739.72
2743.66
2747.58
2751.48
2755.35
2759.19
2763
2766.76
2770.49
2774.16
2777.79
2781.36
2784.87
2788.31
2791.69
2794.99
2798.22
2801.37
2804.44
2807.43
2810.33
2813.13
2815.84
2818.46
2820.97
2823.39
2825.7
2827.9
2829.99
2831.97
2833.84
2835.59
2837.22
2838.74
2840.14
2841.41
2842.56
2843.59
2844.5
2845.27
2845.92
2846.45
2846.84
2847.1
2847.23
2584.58
2584.61
2584.64
2584.67
2584.7
2584.73
2584.75
2584.77
2584.76
2584.72
2584.63
2584.49
2584.3
2584.06
2583.76
2583.43
2583.07
2582.68
2582.28
2581.88
2581.48
2581.09
2580.72
2580.36
2580.02
2579.71
2579.43
2579.17
2578.94
2578.74
2578.58
2578.45
2578.35
2578.3
2578.28
2578.3
2578.37
2578.48
2578.63
2578.83
2579.08
2579.37
2579.72
2580.13
2580.58
2581.1
2581.67
2582.3
2583
2583.76
2584.58
2585.48
2586.44
2587.47
2588.57
2589.75
2591
2592.33
2593.74
2595.23
2596.79
2598.44
2600.17
2601.98
2603.87
2605.85
2607.91
2610.05
2612.28
2614.59
2616.98
2619.46
2622.02
2624.66
2627.38
2630.18
2633.06
2636.01
2639.04
2642.15
2645.32
2648.56
2651.88
2655.25
2658.69
2662.19
2665.75
2669.36
2673.02
2676.73
2680.49
2684.29
2688.13
2692
2695.9
2699.84
2703.79
2707.77
2711.77
2715.77
2719.79
2723.8
2727.82
2731.84
2735.84
2739.84
2743.82
2747.77
2751.7
2755.61
2759.48
2763.31
2767.11
2770.86
2774.56
2778.21
2781.8
2785.34
2788.81
2792.21
2795.53
2798.79
2801.96
2805.05
2808.06
2810.98
2813.81
2816.54
2819.17
2821.71
2824.14
2826.46
2828.68
2830.79
2832.79
2834.67
2836.43
2838.08
2839.61
2841.02
2842.31
2843.47
2844.51
2845.42
2846.2
2846.86
2847.39
2847.79
2848.05
2848.17
2584.35
2584.39
2584.43
2584.49
2584.56
2584.63
2584.72
2584.79
2584.84
2584.85
2584.8
2584.68
2584.49
2584.23
2583.91
2583.54
2583.14
2582.71
2582.27
2581.83
2581.39
2580.97
2580.56
2580.17
2579.81
2579.47
2579.17
2578.89
2578.64
2578.43
2578.25
2578.1
2577.99
2577.92
2577.89
2577.89
2577.94
2578.03
2578.17
2578.35
2578.58
2578.85
2579.18
2579.57
2580.01
2580.5
2581.05
2581.67
2582.34
2583.08
2583.89
2584.76
2585.71
2586.72
2587.81
2588.97
2590.21
2591.53
2592.92
2594.4
2595.96
2597.59
2599.32
2601.12
2603.01
2604.98
2607.04
2609.19
2611.41
2613.73
2616.13
2618.61
2621.18
2623.83
2626.56
2629.38
2632.27
2635.24
2638.29
2641.41
2644.61
2647.88
2651.21
2654.62
2658.08
2661.61
2665.2
2668.84
2672.53
2676.28
2680.07
2683.9
2687.77
2691.68
2695.62
2699.59
2703.59
2707.6
2711.64
2715.68
2719.73
2723.79
2727.85
2731.91
2735.95
2739.99
2744
2748
2751.97
2755.91
2759.82
2763.7
2767.53
2771.31
2775.05
2778.73
2782.36
2785.93
2789.43
2792.86
2796.22
2799.5
2802.7
2805.82
2808.85
2811.8
2814.65
2817.41
2820.07
2822.62
2825.08
2827.42
2829.66
2831.79
2833.81
2835.71
2837.49
2839.16
2840.7
2842.13
2843.43
2844.6
2845.65
2846.57
2847.37
2848.03
2848.56
2848.97
2849.23
2849.36
2584.06
2584.1
2584.16
2584.24
2584.35
2584.49
2584.66
2584.82
2584.96
2585.04
2585.04
2584.94
2584.75
2584.47
2584.11
2583.69
2583.23
2582.74
2582.24
2581.75
2581.26
2580.8
2580.35
2579.93
2579.54
2579.18
2578.85
2578.55
2578.28
2578.05
2577.85
2577.69
2577.56
2577.47
2577.41
2577.4
2577.43
2577.5
2577.61
2577.77
2577.98
2578.23
2578.54
2578.9
2579.31
2579.78
2580.31
2580.9
2581.56
2582.27
2583.06
2583.91
2584.83
2585.83
2586.9
2588.04
2589.26
2590.56
2591.94
2593.4
2594.95
2596.57
2598.29
2600.08
2601.97
2603.94
2606
2608.14
2610.37
2612.69
2615.1
2617.59
2620.16
2622.83
2625.57
2628.41
2631.32
2634.31
2637.38
2640.53
2643.75
2647.04
2650.41
2653.84
2657.34
2660.91
2664.53
2668.21
2671.94
2675.72
2679.56
2683.43
2687.35
2691.3
2695.28
2699.3
2703.34
2707.4
2711.48
2715.57
2719.67
2723.78
2727.89
2731.99
2736.08
2740.17
2744.23
2748.28
2752.3
2756.28
2760.24
2764.16
2768.03
2771.86
2775.64
2779.37
2783.03
2786.64
2790.18
2793.65
2797.04
2800.36
2803.6
2806.75
2809.82
2812.79
2815.67
2818.46
2821.15
2823.73
2826.21
2828.59
2830.85
2833
2835.04
2836.96
2838.77
2840.45
2842.02
2843.46
2844.77
2845.96
2847.03
2847.96
2848.76
2849.43
2849.97
2850.38
2850.65
2850.78
2583.67
2583.71
2583.78
2583.89
2584.05
2584.27
2584.56
2584.85
2585.12
2585.3
2585.37
2585.3
2585.1
2584.78
2584.36
2583.86
2583.32
2582.75
2582.18
2581.63
2581.09
2580.57
2580.09
2579.63
2579.21
2578.82
2578.47
2578.15
2577.86
2577.6
2577.38
2577.2
2577.05
2576.94
2576.86
2576.82
2576.83
2576.87
2576.96
2577.1
2577.28
2577.51
2577.78
2578.12
2578.5
2578.95
2579.45
2580.01
2580.64
2581.33
2582.08
2582.91
2583.81
2584.78
2585.82
2586.94
2588.14
2589.42
2590.79
2592.23
2593.76
2595.38
2597.08
2598.87
2600.74
2602.71
2604.76
2606.91
2609.14
2611.47
2613.88
2616.38
2618.97
2621.65
2624.41
2627.26
2630.19
2633.21
2636.31
2639.48
2642.74
2646.06
2649.46
2652.93
2656.47
2660.08
2663.74
2667.46
2671.24
2675.07
2678.95
2682.88
2686.84
2690.85
2694.88
2698.95
2703.04
2707.16
2711.29
2715.44
2719.6
2723.76
2727.92
2732.08
2736.24
2740.37
2744.5
2748.6
2752.67
2756.71
2760.72
2764.69
2768.62
2772.5
2776.33
2780.11
2783.82
2787.47
2791.06
2794.57
2798.01
2801.37
2804.64
2807.84
2810.94
2813.96
2816.87
2819.7
2822.42
2825.03
2827.55
2829.95
2832.24
2834.42
2836.49
2838.44
2840.26
2841.97
2843.55
2845.01
2846.35
2847.55
2848.63
2849.57
2850.39
2851.07
2851.61
2852.03
2852.3
2852.43
2583.18
2583.21
2583.29
2583.4
2583.62
2583.95
2584.38
2584.87
2585.31
2585.65
2585.81
2585.78
2585.56
2585.16
2584.64
2584.04
2583.39
2582.73
2582.07
2581.44
2580.84
2580.28
2579.75
2579.26
2578.81
2578.4
2578.02
2577.67
2577.36
2577.09
2576.85
2576.64
2576.47
2576.33
2576.23
2576.17
2576.14
2576.16
2576.22
2576.33
2576.48
2576.68
2576.92
2577.22
2577.58
2577.99
2578.46
2578.99
2579.58
2580.24
2580.96
2581.76
2582.63
2583.57
2584.59
2585.68
2586.86
2588.12
2589.46
2590.88
2592.4
2594
2595.68
2597.46
2599.33
2601.29
2603.34
2605.49
2607.72
2610.05
2612.47
2614.98
2617.59
2620.28
2623.07
2625.94
2628.89
2631.94
2635.07
2638.27
2641.56
2644.93
2648.37
2651.88
2655.46
2659.11
2662.83
2666.6
2670.43
2674.32
2678.25
2682.23
2686.26
2690.32
2694.42
2698.55
2702.7
2706.88
2711.08
2715.29
2719.51
2723.74
2727.97
2732.19
2736.41
2740.61
2744.8
2748.96
2753.1
2757.21
2761.28
2765.31
2769.3
2773.24
2777.12
2780.95
2784.72
2788.43
2792.07
2795.63
2799.12
2802.53
2805.85
2809.09
2812.24
2815.3
2818.26
2821.12
2823.88
2826.53
2829.08
2831.52
2833.84
2836.05
2838.15
2840.12
2841.98
2843.71
2845.32
2846.8
2848.15
2849.37
2850.47
2851.43
2852.25
2852.94
2853.49
2853.91
2854.19
2854.32
2582.57
2582.62
2582.68
2582.75
2583.01
2583.46
2584.09
2584.83
2585.54
2586.1
2586.4
2586.41
2586.14
2585.63
2584.95
2584.2
2583.4
2582.62
2581.87
2581.16
2580.5
2579.89
2579.32
2578.81
2578.33
2577.89
2577.49
2577.13
2576.8
2576.5
2576.24
2576.01
2575.81
2575.65
2575.52
2575.43
2575.38
2575.36
2575.39
2575.46
2575.58
2575.74
2575.95
2576.22
2576.53
2576.91
2577.34
2577.83
2578.39
2579.01
2579.7
2580.46
2581.3
2582.2
2583.19
2584.26
2585.4
2586.63
2587.95
2589.35
2590.84
2592.43
2594.1
2595.87
2597.72
2599.68
2601.73
2603.87
2606.11
2608.44
2610.87
2613.4
2616.02
2618.73
2621.53
2624.43
2627.41
2630.49
2633.65
2636.9
2640.23
2643.63
2647.12
2650.68
2654.32
2658.02
2661.79
2665.62
2669.51
2673.45
2677.45
2681.5
2685.59
2689.72
2693.89
2698.09
2702.31
2706.56
2710.83
2715.12
2719.41
2723.71
2728.01
2732.31
2736.6
2740.88
2745.13
2749.37
2753.58
2757.76
2761.9
2766
2770.06
2774.06
2778.02
2781.91
2785.74
2789.51
2793.21
2796.83
2800.37
2803.84
2807.22
2810.51
2813.71
2816.81
2819.82
2822.73
2825.53
2828.23
2830.81
2833.29
2835.65
2837.9
2840.03
2842.04
2843.92
2845.68
2847.31
2848.82
2850.19
2851.43
2852.54
2853.52
2854.35
2855.05
2855.62
2856.04
2856.32
2856.46
2581.88
2581.93
2581.91
2581.98
2582.18
2582.68
2583.49
2584.53
2585.59
2586.44
2586.96
2587.05
2586.72
2586.06
2585.19
2584.23
2583.27
2582.36
2581.51
2580.74
2580.03
2579.38
2578.79
2578.25
2577.76
2577.31
2576.89
2576.51
2576.16
2575.84
2575.56
2575.3
2575.08
2574.89
2574.73
2574.61
2574.53
2574.48
2574.47
2574.5
2574.58
2574.7
2574.88
2575.1
2575.37
2575.71
2576.1
2576.55
2577.06
2577.64
2578.29
2579.01
2579.8
2580.67
2581.62
2582.66
2583.77
2584.97
2586.26
2587.63
2589.1
2590.66
2592.32
2594.07
2595.92
2597.86
2599.91
2602.05
2604.29
2606.63
2609.07
2611.61
2614.24
2616.98
2619.8
2622.73
2625.75
2628.86
2632.06
2635.34
2638.72
2642.17
2645.71
2649.33
2653.02
2656.78
2660.61
2664.51
2668.47
2672.48
2676.55
2680.67
2684.84
2689.04
2693.29
2697.56
2701.87
2706.2
2710.55
2714.92
2719.29
2723.67
2728.06
2732.44
2736.81
2741.17
2745.51
2749.83
2754.12
2758.38
2762.6
2766.78
2770.91
2774.99
2779.02
2782.98
2786.88
2790.72
2794.48
2798.17
2801.78
2805.3
2808.74
2812.09
2815.35
2818.51
2821.57
2824.52
2827.38
2830.12
2832.75
2835.27
2837.68
2839.96
2842.13
2844.17
2846.09
2847.88
2849.54
2851.07
2852.47
2853.73
2854.86
2855.85
2856.7
2857.41
2857.99
2858.42
2858.7
2858.84
2581.16
2581.13
2581
2580.83
2580.73
2580.89
2581.46
2582.61
2584.3
2585.81
2586.85
2587.41
2587.29
2586.31
2585.05
2583.91
2582.82
2581.82
2580.91
2580.1
2579.38
2578.72
2578.13
2577.59
2577.09
2576.64
2576.21
2575.82
2575.46
2575.12
2574.81
2574.54
2574.29
2574.07
2573.88
2573.72
2573.6
2573.51
2573.46
2573.45
2573.49
2573.57
2573.69
2573.87
2574.1
2574.38
2574.72
2575.13
2575.59
2576.13
2576.73
2577.4
2578.15
2578.98
2579.89
2580.88
2581.96
2583.12
2584.37
2585.72
2587.16
2588.7
2590.34
2592.07
2593.9
2595.84
2597.88
2600.02
2602.26
2604.61
2607.06
2609.61
2612.26
2615.02
2617.87
2620.83
2623.88
2627.03
2630.27
2633.61
2637.03
2640.54
2644.14
2647.81
2651.57
2655.4
2659.3
2663.27
2667.3
2671.39
2675.54
2679.74
2683.99
2688.28
2692.61
2696.98
2701.37
2705.79
2710.23
2714.69
2719.15
2723.63
2728.1
2732.57
2737.04
2741.49
2745.92
2750.33
2754.71
2759.05
2763.36
2767.63
2771.85
2776.01
2780.12
2784.17
2788.15
2792.06
2795.9
2799.66
2803.33
2806.93
2810.43
2813.84
2817.16
2820.38
2823.5
2826.51
2829.42
2832.22
2834.9
2837.47
2839.92
2842.25
2844.45
2846.53
2848.49
2850.31
2852
2853.56
2854.98
2856.27
2857.42
2858.43
2859.3
2860.02
2860.61
2861.05
2861.34
2861.48
2580.34
2580.18
2579.74
2578.77
2577.51
2576.5
2576.31
2577.32
2579.48
2582.19
2584.59
2586.12
2586.66
2586.1
2584.5
2582.88
2581.74
2580.79
2579.96
2579.2
2578.51
2577.9
2577.34
2576.82
2576.34
2575.89
2575.46
2575.06
2574.69
2574.34
2574.01
2573.71
2573.43
2573.18
2572.95
2572.76
2572.59
2572.46
2572.37
2572.32
2572.3
2572.33
2572.41
2572.53
2572.71
2572.94
2573.22
2573.57
2573.98
2574.46
2575.01
2575.64
2576.33
2577.11
2577.97
2578.92
2579.95
2581.08
2582.3
2583.61
2585.02
2586.53
2588.14
2589.85
2591.67
2593.6
2595.63
2597.77
2600.01
2602.36
2604.82
2607.39
2610.07
2612.85
2615.73
2618.72
2621.81
2625
2628.29
2631.68
2635.16
2638.73
2642.39
2646.13
2649.96
2653.86
2657.84
2661.89
2666
2670.18
2674.42
2678.71
2683.05
2687.43
2691.86
2696.32
2700.81
2705.33
2709.87
2714.42
2718.99
2723.57
2728.14
2732.71
2737.28
2741.83
2746.36
2750.87
2755.35
2759.8
2764.2
2768.57
2772.88
2777.14
2781.33
2785.47
2789.54
2793.53
2797.45
2801.29
2805.04
2808.71
2812.29
2815.77
2819.16
2822.44
2825.63
2828.7
2831.67
2834.52
2837.26
2839.88
2842.37
2844.75
2847
2849.12
2851.12
2852.98
2854.7
2856.29
2857.75
2859.06
2860.23
2861.26
2862.15
2862.89
2863.49
2863.93
2864.23
2864.37
2579.41
2579.07
2577.87
2575.54
2572.48
2570.23
2569.11
2569.74
2572.52
2576.27
2579.83
2582.32
2583.52
2583.58
2583.22
2581.31
2579.81
2579.09
2578.54
2577.99
2577.43
2576.9
2576.41
2575.95
2575.5
2575.07
2574.65
2574.25
2573.87
2573.5
2573.15
2572.82
2572.51
2572.23
2571.96
2571.73
2571.52
2571.34
2571.2
2571.09
2571.02
2571
2571.01
2571.08
2571.2
2571.37
2571.59
2571.88
2572.23
2572.65
2573.14
2573.71
2574.35
2575.07
2575.88
2576.77
2577.76
2578.84
2580.01
2581.29
2582.66
2584.14
2585.73
2587.42
2589.22
2591.13
2593.15
2595.28
2597.53
2599.89
2602.36
2604.94
2607.64
2610.45
2613.37
2616.39
2619.53
2622.76
2626.11
2629.55
2633.09
2636.73
2640.45
2644.27
2648.18
2652.16
2656.22
2660.36
2664.57
2668.84
2673.18
2677.56
2682.01
2686.49
2691.02
2695.59
2700.19
2704.82
2709.46
2714.13
2718.81
2723.49
2728.18
2732.86
2737.54
2742.2
2746.84
2751.46
2756.05
2760.61
2765.12
2769.59
2774
2778.36
2782.66
2786.89
2791.05
2795.14
2799.15
2803.07
2806.91
2810.66
2814.32
2817.88
2821.34
2824.69
2827.94
2831.09
2834.12
2837.03
2839.83
2842.5
2845.06
2847.48
2849.78
2851.95
2853.99
2855.89
2857.65
2859.28
2860.76
2862.1
2863.3
2864.35
2865.26
2866.01
2866.62
2867.08
2867.38
2867.53
2578.73
2578.2
2576.21
2572.58
2569.05
2569.47
2566.51
2564.36
2566.64
2571.04
2575.27
2578.28
2579.69
2579.72
2579.58
2579.45
2577.25
2576.68
2576.64
2576.47
2576.14
2575.77
2575.39
2575
2574.6
2574.2
2573.8
2573.41
2573.01
2572.63
2572.26
2571.9
2571.55
2571.23
2570.92
2570.64
2570.38
2570.15
2569.95
2569.78
2569.66
2569.57
2569.52
2569.52
2569.57
2569.67
2569.83
2570.05
2570.34
2570.69
2571.11
2571.61
2572.19
2572.85
2573.6
2574.43
2575.37
2576.39
2577.52
2578.75
2580.08
2581.53
2583.08
2584.75
2586.52
2588.42
2590.43
2592.56
2594.81
2597.17
2599.66
2602.26
2604.98
2607.81
2610.77
2613.83
2617.01
2620.3
2623.7
2627.21
2630.81
2634.52
2638.33
2642.23
2646.22
2650.29
2654.45
2658.68
2662.99
2667.37
2671.81
2676.3
2680.86
2685.46
2690.1
2694.78
2699.5
2704.24
2709.01
2713.79
2718.59
2723.39
2728.2
2733.01
2737.8
2742.59
2747.35
2752.09
2756.8
2761.48
2766.11
2770.69
2775.22
2779.69
2784.1
2788.44
2792.7
2796.88
2800.99
2805.01
2808.94
2812.78
2816.52
2820.16
2823.7
2827.14
2830.46
2833.68
2836.78
2839.76
2842.62
2845.35
2847.97
2850.45
2852.8
2855.02
2857.1
2859.04
2860.85
2862.51
2864.03
2865.4
2866.62
2867.7
2868.63
2869.4
2870.03
2870.49
2870.8
2870.95
2579.51
2578.68
2576.32
2572.82
2572.18
2568.06
2565.93
2565.77
2564.35
2568.09
2571.8
2574.27
2575.24
2575.06
2574.32
2576.76
2574.39
2573.76
2574.41
2574.76
2574.74
2574.57
2574.34
2574.04
2573.7
2573.33
2572.94
2572.54
2572.14
2571.73
2571.33
2570.94
2570.55
2570.18
2569.83
2569.49
2569.18
2568.89
2568.63
2568.4
2568.2
2568.05
2567.93
2567.86
2567.83
2567.86
2567.94
2568.09
2568.3
2568.57
2568.92
2569.35
2569.85
2570.44
2571.12
2571.89
2572.76
2573.73
2574.8
2575.98
2577.27
2578.68
2580.19
2581.83
2583.58
2585.46
2587.46
2589.58
2591.83
2594.2
2596.7
2599.32
2602.06
2604.93
2607.92
2611.03
2614.26
2617.61
2621.07
2624.64
2628.32
2632.11
2636
2639.98
2644.07
2648.24
2652.5
2656.84
2661.26
2665.75
2670.3
2674.92
2679.59
2684.32
2689.09
2693.89
2698.74
2703.61
2708.5
2713.42
2718.34
2723.28
2728.21
2733.15
2738.08
2742.99
2747.89
2752.77
2757.61
2762.42
2767.18
2771.89
2776.54
2781.13
2785.66
2790.11
2794.48
2798.78
2802.98
2807.1
2811.13
2815.07
2818.9
2822.63
2826.26
2829.78
2833.18
2836.48
2839.65
2842.7
2845.63
2848.43
2851.11
2853.65
2856.06
2858.33
2860.46
2862.45
2864.3
2866
2867.55
2868.96
2870.21
2871.32
2872.27
2873.06
2873.7
2874.18
2874.5
2874.65
2582
2581.21
2578.98
2575.23
2575.51
2571.85
2569.53
2567.35
2566.01
2568.12
2570.03
2570.92
2570.75
2569.99
2569.78
2572.09
2571.39
2570.9
2572.25
2573.12
2573.43
2573.46
2573.34
2573.13
2572.83
2572.48
2572.1
2571.69
2571.26
2570.83
2570.39
2569.96
2569.52
2569.1
2568.69
2568.3
2567.92
2567.57
2567.24
2566.94
2566.67
2566.43
2566.24
2566.08
2565.98
2565.92
2565.92
2565.98
2566.1
2566.3
2566.56
2566.9
2567.33
2567.84
2568.44
2569.14
2569.94
2570.85
2571.86
2572.98
2574.22
2575.58
2577.05
2578.66
2580.38
2582.24
2584.22
2586.33
2588.58
2590.96
2593.47
2596.11
2598.88
2601.78
2604.81
2607.97
2611.25
2614.66
2618.19
2621.84
2625.6
2629.47
2633.45
2637.53
2641.72
2646
2650.37
2654.82
2659.36
2663.97
2668.65
2673.4
2678.21
2683.06
2687.97
2692.91
2697.89
2702.9
2707.94
2712.99
2718.05
2723.13
2728.2
2733.28
2738.35
2743.41
2748.46
2753.48
2758.47
2763.42
2768.32
2773.17
2777.96
2782.69
2787.34
2791.91
2796.41
2800.82
2805.14
2809.37
2813.5
2817.54
2821.47
2825.3
2829.02
2832.62
2836.12
2839.49
2842.74
2845.87
2848.88
2851.75
2854.49
2857.09
2859.56
2861.89
2864.07
2866.11
2868.01
2869.75
2871.34
2872.79
2874.07
2875.2
2876.18
2876.99
2877.65
2878.14
2878.47
2878.62
2585.65
2585.41
2583.73
2580.97
2577.84
2579.02
2576.07
2570.74
2570.34
2570.22
2569.72
2568.58
2567.02
2565.63
2567.51
2568.28
2569.03
2568.87
2570.69
2571.89
2572.4
2572.56
2572.51
2572.33
2572.05
2571.7
2571.3
2570.86
2570.4
2569.93
2569.45
2568.96
2568.48
2568
2567.52
2567.06
2566.62
2566.19
2565.78
2565.4
2565.05
2564.73
2564.45
2564.21
2564.01
2563.86
2563.77
2563.73
2563.76
2563.86
2564.03
2564.28
2564.62
2565.04
2565.56
2566.18
2566.9
2567.73
2568.67
2569.73
2570.91
2572.21
2573.65
2575.21
2576.9
2578.73
2580.7
2582.8
2585.05
2587.43
2589.95
2592.61
2595.41
2598.35
2601.43
2604.64
2607.98
2611.45
2615.05
2618.78
2622.63
2626.59
2630.67
2634.86
2639.16
2643.55
2648.04
2652.62
2657.29
2662.04
2666.86
2671.74
2676.69
2681.7
2686.75
2691.84
2696.97
2702.13
2707.31
2712.51
2717.72
2722.94
2728.17
2733.4
2738.62
2743.84
2749.04
2754.22
2759.37
2764.48
2769.54
2774.55
2779.49
2784.35
2789.14
2793.85
2798.48
2803.01
2807.45
2811.8
2816.04
2820.19
2824.23
2828.16
2831.98
2835.68
2839.26
2842.73
2846.07
2849.28
2852.36
2855.3
2858.11
2860.78
2863.31
2865.7
2867.94
2870.04
2871.98
2873.77
2875.41
2876.89
2878.21
2879.37
2880.37
2881.21
2881.88
2882.39
2882.72
2882.88
2588.65
2588.64
2587.71
2586.07
2583.84
2581.36
2579.01
2576.91
2574.94
2572.81
2570.32
2567.58
2565.08
2567.02
2566.6
2565.56
2566.04
2568.11
2570.12
2571.31
2571.82
2571.97
2571.92
2571.71
2571.4
2571.01
2570.57
2570.08
2569.58
2569.05
2568.51
2567.96
2567.42
2566.87
2566.33
2565.79
2565.27
2564.76
2564.27
2563.8
2563.36
2562.95
2562.57
2562.23
2561.93
2561.68
2561.48
2561.34
2561.27
2561.26
2561.33
2561.47
2561.71
2562.03
2562.46
2562.98
2563.62
2564.36
2565.23
2566.22
2567.33
2568.58
2569.96
2571.47
2573.13
2574.93
2576.88
2578.97
2581.21
2583.6
2586.13
2588.82
2591.65
2594.62
2597.75
2601.01
2604.42
2607.96
2611.64
2615.46
2619.4
2623.46
2627.65
2631.95
2636.37
2640.89
2645.51
2650.23
2655.04
2659.93
2664.9
2669.94
2675.04
2680.2
2685.41
2690.66
2695.95
2701.27
2706.61
2711.97
2717.33
2722.71
2728.1
2733.48
2738.87
2744.26
2749.64
2755
2760.32
2765.61
2770.84
2776.01
2781.12
2786.14
2791.08
2795.94
2800.7
2805.37
2809.94
2814.41
2818.77
2823.03
2827.19
2831.22
2835.15
2838.95
2842.63
2846.19
2849.62
2852.92
2856.08
2859.1
2861.99
2864.73
2867.33
2869.78
2872.08
2874.23
2876.22
2878.06
2879.74
2881.26
2882.62
2883.82
2884.85
2885.71
2886.4
2886.92
2887.26
2887.43
2590.4
2590.36
2590.1
2589.33
2587.92
2585.96
2583.64
2581.06
2578.22
2575.08
2571.71
2568.72
2569.2
2567.64
2565.72
2564.95
2566.83
2568.97
2570.54
2571.38
2571.7
2571.72
2571.56
2571.26
2570.87
2570.41
2569.91
2569.36
2568.79
2568.19
2567.59
2566.97
2566.35
2565.73
2565.11
2564.49
2563.88
2563.29
2562.7
2562.14
2561.6
2561.08
2560.6
2560.15
2559.74
2559.38
2559.06
2558.81
2558.61
2558.49
2558.44
2558.47
2558.6
2558.81
2559.13
2559.55
2560.08
2560.74
2561.52
2562.42
2563.46
2564.64
2565.96
2567.43
2569.05
2570.82
2572.74
2574.82
2577.05
2579.44
2581.99
2584.7
2587.56
2590.58
2593.75
2597.08
2600.55
2604.17
2607.94
2611.85
2615.89
2620.06
2624.37
2628.79
2633.34
2638
2642.76
2647.63
2652.59
2657.64
2662.77
2667.97
2673.24
2678.57
2683.95
2689.38
2694.84
2700.33
2705.83
2711.36
2716.89
2722.43
2727.97
2733.52
2739.09
2744.66
2750.23
2755.78
2761.31
2766.79
2772.22
2777.57
2782.86
2788.06
2793.16
2798.17
2803.08
2807.89
2812.6
2817.2
2821.7
2826.08
2830.35
2834.51
2838.54
2842.45
2846.24
2849.89
2853.41
2856.8
2860.05
2863.15
2866.11
2868.93
2871.6
2874.12
2876.48
2878.69
2880.74
2882.63
2884.36
2885.92
2887.32
2888.55
2889.61
2890.5
2891.22
2891.75
2892.1
2892.27
2591
2590.87
2590.9
2590.53
2589.5
2587.82
2585.65
2583.13
2580.29
2577.2
2574
2574.01
2572.12
2569.62
2567.41
2568.18
2569.56
2570.83
2571.62
2571.93
2571.93
2571.72
2571.39
2570.96
2570.46
2569.91
2569.31
2568.68
2568.03
2567.36
2566.67
2565.98
2565.28
2564.57
2563.87
2563.16
2562.46
2561.77
2561.09
2560.42
2559.77
2559.14
2558.54
2557.97
2557.44
2556.95
2556.51
2556.12
2555.8
2555.55
2555.37
2555.27
2555.27
2555.36
2555.56
2555.87
2556.29
2556.84
2557.52
2558.34
2559.29
2560.4
2561.65
2563.06
2564.63
2566.36
2568.26
2570.32
2572.55
2574.94
2577.5
2580.24
2583.13
2586.2
2589.42
2592.81
2596.36
2600.07
2603.93
2607.93
2612.09
2616.38
2620.81
2625.37
2630.05
2634.86
2639.78
2644.8
2649.93
2655.15
2660.45
2665.83
2671.29
2676.8
2682.37
2687.98
2693.62
2699.29
2704.98
2710.67
2716.37
2722.07
2727.78
2733.49
2739.24
2745.01
2750.79
2756.57
2762.32
2768.02
2773.66
2779.23
2784.71
2790.1
2795.39
2800.57
2805.64
2810.6
2815.45
2820.19
2824.82
2829.34
2833.73
2838.01
2842.16
2846.19
2850.08
2853.84
2857.46
2860.94
2864.27
2867.46
2870.51
2873.4
2876.14
2878.73
2881.15
2883.43
2885.53
2887.48
2889.26
2890.87
2892.31
2893.58
2894.67
2895.59
2896.33
2896.89
2897.25
2897.42
2590.99
2590.84
2590.87
2590.57
2589.69
2588.19
2586.29
2584.2
2581.87
2579.39
2577.02
2575.36
2573.91
2571.99
2571.79
2572.19
2572.55
2572.83
2572.85
2572.66
2572.3
2571.85
2571.33
2570.75
2570.12
2569.45
2568.76
2568.03
2567.29
2566.54
2565.77
2564.99
2564.21
2563.41
2562.61
2561.81
2561.01
2560.22
2559.43
2558.64
2557.88
2557.12
2556.4
2555.69
2555.03
2554.4
2553.82
2553.29
2552.83
2552.43
2552.11
2551.87
2551.72
2551.68
2551.74
2551.92
2552.22
2552.65
2553.22
2553.94
2554.8
2555.82
2557
2558.35
2559.86
2561.55
2563.41
2565.45
2567.67
2570.07
2572.65
2575.4
2578.34
2581.45
2584.74
2588.2
2591.83
2595.62
2599.58
2603.7
2607.97
2612.39
2616.95
2621.66
2626.49
2631.46
2636.54
2641.74
2647.04
2652.45
2657.94
2663.52
2669.17
2674.88
2680.65
2686.46
2692.3
2698.17
2704.04
2709.91
2715.78
2721.63
2727.49
2733.36
2739.28
2745.27
2751.3
2757.33
2763.33
2769.28
2775.16
2780.96
2786.67
2792.27
2797.76
2803.12
2808.37
2813.49
2818.5
2823.39
2828.16
2832.81
2837.34
2841.75
2846.02
2850.16
2854.17
2858.03
2861.76
2865.33
2868.76
2872.04
2875.16
2878.14
2880.95
2883.61
2886.11
2888.44
2890.61
2892.62
2894.45
2896.11
2897.6
2898.91
2900.04
2900.99
2901.75
2902.33
2902.7
2902.87
2590.8
2590.87
2590.87
2590.47
2589.53
2588.12
2586.66
2585.07
2583.34
2581.52
2579.7
2578.03
2576.71
2575.77
2575.23
2574.93
2574.67
2574.31
2573.84
2573.29
2572.68
2572.01
2571.31
2570.57
2569.8
2569.02
2568.22
2567.4
2566.57
2565.73
2564.87
2564.01
2563.13
2562.24
2561.35
2560.45
2559.54
2558.63
2557.72
2556.82
2555.92
2555.04
2554.17
2553.33
2552.51
2551.73
2551
2550.31
2549.68
2549.13
2548.64
2548.25
2547.95
2547.75
2547.66
2547.69
2547.86
2548.16
2548.6
2549.2
2549.96
2550.89
2551.98
2553.26
2554.71
2556.35
2558.18
2560.2
2562.4
2564.8
2567.4
2570.18
2573.15
2576.32
2579.67
2583.2
2586.92
2590.81
2594.88
2599.11
2603.51
2608.07
2612.78
2617.64
2622.64
2627.78
2633.04
2638.42
2643.92
2649.52
2655.22
2661.01
2666.87
2672.8
2678.78
2684.81
2690.87
2696.94
2703.02
2709.08
2715.11
2721.11
2727.08
2733.07
2739.15
2745.37
2751.69
2758.04
2764.35
2770.58
2776.73
2782.79
2788.75
2794.6
2800.3
2805.87
2811.29
2816.58
2821.75
2826.8
2831.72
2836.52
2841.19
2845.73
2850.13
2854.4
2858.52
2862.49
2866.32
2869.99
2873.52
2876.88
2880.09
2883.15
2886.04
2888.77
2891.34
2893.75
2895.98
2898.05
2899.94
2901.65
2903.19
2904.54
2905.71
2906.7
2907.49
2908.08
2908.47
2908.65
2590.72
2591.03
2590.96
2590.22
2589.35
2588.29
2587.15
2585.98
2584.71
2583.36
2581.94
2580.6
2579.41
2578.38
2577.53
2576.78
2576.05
2575.29
2574.51
2573.7
2572.89
2572.05
2571.2
2570.34
2569.46
2568.57
2567.68
2566.77
2565.85
2564.92
2563.97
2563.02
2562.05
2561.07
2560.07
2559.06
2558.05
2557.02
2555.99
2554.95
2553.92
2552.89
2551.87
2550.87
2549.89
2548.94
2548.04
2547.18
2546.37
2545.64
2544.98
2544.4
2543.93
2543.55
2543.3
2543.17
2543.18
2543.33
2543.64
2544.11
2544.75
2545.57
2546.58
2547.77
2549.15
2550.74
2552.53
2554.52
2556.71
2559.11
2561.72
2564.53
2567.55
2570.77
2574.19
2577.8
2581.61
2585.61
2589.79
2594.16
2598.69
2603.4
2608.27
2613.3
2618.48
2623.8
2629.25
2634.84
2640.54
2646.36
2652.28
2658.29
2664.38
2670.54
2676.76
2683.03
2689.32
2695.62
2701.91
2708.17
2714.36
2720.47
2726.48
2732.48
2738.67
2745.19
2751.91
2758.68
2765.36
2771.89
2778.32
2784.66
2790.91
2797.04
2803
2808.78
2814.4
2819.88
2825.22
2830.43
2835.51
2840.47
2845.29
2849.97
2854.51
2858.9
2863.14
2867.23
2871.16
2874.93
2878.55
2882
2885.3
2888.44
2891.41
2894.22
2896.86
2899.33
2901.64
2903.77
2905.72
2907.49
2909.08
2910.48
2911.7
2912.72
2913.55
2914.16
2914.56
2914.75
2590.73
2591
2590.58
2590.15
2589.53
2588.71
2587.85
2586.94
2585.93
2584.8
2583.57
2582.32
2581.09
2579.94
2578.86
2577.84
2576.84
2575.86
2574.88
2573.91
2572.94
2571.98
2571.01
2570.04
2569.07
2568.09
2567.1
2566.11
2565.11
2564.09
2563.07
2562.02
2560.96
2559.88
2558.79
2557.67
2556.54
2555.39
2554.23
2553.05
2551.87
2550.68
2549.5
2548.32
2547.17
2546.04
2544.94
2543.89
2542.89
2541.96
2541.1
2540.33
2539.65
2539.09
2538.65
2538.34
2538.17
2538.16
2538.31
2538.64
2539.15
2539.85
2540.74
2541.84
2543.15
2544.68
2546.42
2548.38
2550.56
2552.96
2555.58
2558.43
2561.49
2564.77
2568.26
2571.97
2575.88
2579.99
2584.3
2588.8
2593.49
2598.36
2603.4
2608.61
2613.98
2619.5
2625.17
2630.97
2636.9
2642.95
2649.1
2655.36
2661.7
2668.11
2674.59
2681.11
2687.66