/*--------------------------------*- C++ -*----------------------------------*\
| =========                 |                                                 |
| \\      /  F ield         | OpenFOAM: The Open Source CFD Toolbox           |
|  \\    /   O peration     | Version:  v2006                                 |
|   \\  /    A nd           | Website:  www.openfoam.com                      |
|    \\/     M anipulation  |                                                 |
\*---------------------------------------------------------------------------*/
FoamFile
{
    version     2.0;
    format      ascii;
    class       volScalarField;
    location    "12.5";
    object      p;
}
// * * * * * * * * * * * * * * * * * * * * * * * * * * * * * * * * * * * * * //

dimensions      [1 -1 -2 0 0 0 0];


internalField   nonuniform List<scalar> 
52500
(
28574.5
28574.8
28575.4
28576.2
28577.3
28578.7
28580.4
28582.4
28584.6
28587.1
28589.8
28592.8
28596.1
28599.6
28603.4
28607.5
28611.8
28616.3
28621.1
28626.1
28631.4
28636.9
28642.6
28648.6
28654.8
28661.2
28667.8
28674.7
28681.8
28689.1
28696.7
28704.4
28712.4
28720.6
28729.1
28737.7
28746.6
28755.6
28764.9
28774.4
28784.1
28794.1
28804.2
28814.5
28825.1
28835.9
28846.8
28858
28869.4
28880.9
28892.7
28904.6
28916.8
28929.1
28941.7
28954.4
28967.3
28980.4
28993.7
29007.1
29020.7
29034.5
29048.4
29062.5
29076.8
29091.2
29105.8
29120.5
29135.4
29150.4
29165.5
29180.8
29196.2
29211.7
29227.4
29243.2
29259.1
29275.1
29291.2
29307.4
29323.8
29340.2
29356.7
29373.4
29390.1
29406.9
29423.8
29440.7
29457.7
29474.8
29492
29509.2
29526.5
29543.8
29561.2
29578.6
29596.1
29613.6
29631.1
29648.7
29666.3
29683.9
29701.6
29719.3
29737
29754.7
29772.4
29790.2
29807.9
29825.7
29843.5
29861.2
29879
29896.8
29914.5
29932.3
29950
29967.7
29985.5
30003.2
30020.9
30038.5
30056.2
30073.8
30091.5
30109
30126.6
30144.2
30161.7
30179.2
30196.6
30214
30231.4
30248.8
30266.1
30283.4
30300.7
30317.9
30335
30352.2
30369.3
30386.3
30403.3
30420.3
30437.2
30454
30470.9
30487.6
30504.3
30521
30537.6
30554.1
30570.6
30587
30603.4
30619.7
30635.9
30652.1
30668.2
30684.3
30700.2
30716.2
30732
30747.8
30763.5
30779.1
30794.6
30810.1
30825.4
30840.7
30856
30871.1
30886.1
30901.1
30916
30930.7
30945.4
30960
30974.5
30988.9
31003.2
31017.5
31031.6
31045.6
31059.5
31073.3
31087.1
31100.7
31114.2
31127.6
31140.9
31154.1
31167.2
31180.1
31193
31205.8
31218.4
31231
31243.4
31255.7
31267.9
31280
31292
31303.9
31315.7
31327.3
31338.9
31350.3
31361.6
31372.8
31383.9
31394.9
31405.8
31416.6
31427.3
31437.8
31448.3
31458.6
31468.9
31479
31489
31498.9
31508.8
31518.5
31528.1
31537.6
31547
31556.4
31565.6
31574.7
31583.8
31592.7
31601.6
31610.3
31619
31627.6
31636.1
31644.6
31652.9
31661.1
31669.3
31677.4
31685.4
31693.4
31701.3
31709.1
31716.8
31724.4
31732
31739.5
31747
31754.4
31761.7
31769
31776.2
31783.3
31790.4
31797.4
31804.4
31811.3
31818.1
31824.9
31831.7
31838.4
31845
31851.6
31858.1
31864.6
31871.1
31877.4
31883.8
31890.1
31896.3
31902.5
31908.7
31914.8
31920.9
31926.9
31932.9
31938.8
31944.7
31950.5
31956.3
31962
31967.6
31973.3
31978.8
31984.3
31989.8
31995.2
32000.5
32005.8
32011
32016.2
32021.3
32026.4
32031.4
32036.4
32041.3
32046.2
32051
32055.8
32060.5
32065.1
32069.7
32074.2
32078.6
32082.9
32087.2
32091.4
32095.5
32099.6
32103.5
32107.4
32111.2
32114.9
32118.6
32122.1
32125.6
32129
32132.2
32135.4
32138.5
32141.5
32144.4
32147.2
32149.9
32152.5
32154.9
32157.3
32159.6
32161.8
32163.8
32165.8
32167.6
32169.4
32171
32172.5
32173.9
32175.2
32176.4
32177.4
32178.4
32179.2
32179.9
32180.5
32181
32181.3
32181.6
32181.7
28115.9
28116.1
28116.7
28117.5
28118.7
28120.1
28121.8
28123.7
28125.9
28128.4
28131.2
28134.2
28137.5
28141
28144.8
28148.9
28153.2
28157.7
28162.5
28167.5
28172.8
28178.3
28184.1
28190
28196.2
28202.7
28209.3
28216.2
28223.3
28230.6
28238.2
28245.9
28253.9
28262.1
28270.6
28279.2
28288.1
28297.2
28306.4
28315.9
28325.7
28335.6
28345.7
28356.1
28366.6
28377.4
28388.4
28399.5
28410.9
28422.5
28434.3
28446.2
28458.4
28470.7
28483.3
28496
28508.9
28522
28535.3
28548.7
28562.3
28576.1
28590
28604.2
28618.4
28632.9
28647.4
28662.2
28677
28692.1
28707.2
28722.5
28737.9
28753.5
28769.2
28785
28800.9
28816.9
28833.1
28849.3
28865.7
28882.1
28898.7
28915.3
28932
28948.8
28965.7
28982.7
28999.7
29016.8
29034
29051.2
29068.5
29085.8
29103.2
29120.6
29138.1
29155.6
29173.2
29190.7
29208.4
29226
29243.7
29261.4
29279.1
29296.8
29314.5
29332.3
29350
29367.8
29385.6
29403.3
29421.1
29438.9
29456.6
29474.4
29492.1
29509.9
29527.6
29545.3
29563
29580.7
29598.4
29616
29633.6
29651.2
29668.8
29686.3
29703.9
29721.3
29738.8
29756.2
29773.6
29791
29808.3
29825.6
29842.9
29860.1
29877.3
29894.4
29911.5
29928.6
29945.6
29962.5
29979.4
29996.3
30013.1
30029.9
30046.6
30063.3
30079.9
30096.4
30112.9
30129.3
30145.7
30162
30178.3
30194.5
30210.6
30226.6
30242.6
30258.5
30274.4
30290.1
30305.8
30321.5
30337
30352.5
30367.9
30383.2
30398.4
30413.5
30428.6
30443.5
30458.4
30473.2
30487.9
30502.5
30517
30531.4
30545.7
30559.9
30574
30588.1
30602
30615.8
30629.5
30643.1
30656.7
30670.1
30683.4
30696.6
30709.6
30722.6
30735.5
30748.3
30760.9
30773.5
30785.9
30798.2
30810.4
30822.5
30834.5
30846.4
30858.2
30869.8
30881.4
30892.8
30904.1
30915.3
30926.4
30937.4
30948.3
30959.1
30969.8
30980.3
30990.8
31001.1
31011.3
31021.5
31031.5
31041.4
31051.2
31060.9
31070.6
31080.1
31089.5
31098.8
31108.1
31117.2
31126.2
31135.2
31144
31152.8
31161.5
31170
31178.6
31187
31195.3
31203.6
31211.7
31219.8
31227.8
31235.8
31243.7
31251.4
31259.2
31266.8
31274.4
31281.9
31289.4
31296.7
31304.1
31311.3
31318.5
31325.7
31332.7
31339.7
31346.7
31353.6
31360.5
31367.3
31374
31380.7
31387.3
31393.9
31400.4
31406.9
31413.4
31419.8
31426.1
31432.4
31438.7
31444.9
31451
31457.1
31463.2
31469.2
31475.2
31481.1
31487
31492.8
31498.6
31504.3
31510
31515.6
31521.1
31526.6
31532.1
31537.5
31542.8
31548.1
31553.2
31558.4
31563.5
31568.5
31573.6
31578.6
31583.6
31588.5
31593.4
31598.2
31602.9
31607.5
31612.1
31616.6
31621
31625.3
31629.6
31633.8
31637.9
31642
31646
31649.8
31653.7
31657.4
31661
31664.6
31668
31671.4
31674.7
31677.9
31680.9
31683.9
31686.8
31689.6
31692.3
31694.9
31697.4
31699.8
31702
31704.2
31706.3
31708.2
31710.1
31711.8
31713.4
31714.9
31716.3
31717.6
31718.8
31719.9
31720.8
31721.6
31722.4
31723
31723.4
31723.8
31724
31724.1
27656.1
27656.4
27657
27657.8
27659
27660.4
27662.1
27664.1
27666.3
27668.8
27671.6
27674.6
27677.9
27681.5
27685.3
27689.3
27693.7
27698.2
27703
27708.1
27713.4
27718.9
27724.6
27730.6
27736.8
27743.3
27749.9
27756.8
27764
27771.3
27778.9
27786.6
27794.7
27802.9
27811.3
27820
27828.9
27837.9
27847.2
27856.8
27866.5
27876.4
27886.6
27897
27907.5
27918.3
27929.3
27940.5
27951.9
27963.5
27975.3
27987.3
27999.4
28011.8
28024.4
28037.1
28050.1
28063.2
28076.5
28089.9
28103.6
28117.4
28131.3
28145.5
28159.8
28174.2
28188.8
28203.6
28218.5
28233.5
28248.7
28264
28279.4
28295
28310.7
28326.6
28342.5
28358.5
28374.7
28391
28407.3
28423.8
28440.4
28457
28473.8
28490.6
28507.5
28524.5
28541.5
28558.6
28575.8
28593
28610.3
28627.7
28645.1
28662.5
28680
28697.5
28715.1
28732.7
28750.3
28768
28785.7
28803.4
28821.1
28838.8
28856.6
28874.3
28892.1
28909.9
28927.6
28945.4
28963.2
28981
28998.7
29016.5
29034.2
29052
29069.7
29087.4
29105.1
29122.8
29140.5
29158.2
29175.8
29193.4
29211
29228.5
29246
29263.5
29281
29298.4
29315.9
29333.2
29350.6
29367.9
29385.1
29402.4
29419.5
29436.7
29453.8
29470.9
29487.9
29504.8
29521.8
29538.6
29555.5
29572.2
29589
29605.6
29622.2
29638.8
29655.3
29671.8
29688.1
29704.5
29720.7
29736.9
29753
29769.1
29785.1
29801
29816.9
29832.7
29848.4
29864
29879.6
29895
29910.4
29925.7
29941
29956.1
29971.2
29986.2
30001
30015.8
30030.5
30045.1
30059.6
30074.1
30088.4
30102.6
30116.7
30130.8
30144.7
30158.5
30172.3
30185.9
30199.4
30212.8
30226.1
30239.3
30252.4
30265.4
30278.3
30291
30303.7
30316.2
30328.7
30341
30353.2
30365.3
30377.3
30389.2
30400.9
30412.6
30424.1
30435.6
30446.9
30458.1
30469.2
30480.2
30491.1
30501.9
30512.5
30523.1
30533.5
30543.8
30554.1
30564.2
30574.2
30584.1
30594
30603.7
30613.3
30622.8
30632.2
30641.5
30650.8
30659.9
30668.9
30677.8
30686.7
30695.4
30704.1
30712.7
30721.2
30729.6
30737.9
30746.2
30754.3
30762.4
30770.4
30778.4
30786.2
30794
30801.7
30809.4
30816.9
30824.5
30831.9
30839.3
30846.6
30853.8
30861
30868.2
30875.2
30882.2
30889.2
30896.1
30902.9
30909.7
30916.5
30923.1
30929.8
30936.4
30942.9
30949.4
30955.8
30962.2
30968.5
30974.8
30981.1
30987.3
30993.4
30999.5
31005.6
31011.6
31017.6
31023.5
31029.4
31035.2
31041
31046.7
31052.3
31058
31063.5
31069.1
31074.5
31080
31085.3
31090.6
31095.9
31101.1
31106.3
31111.4
31116.5
31121.4
31126.4
31131.2
31136
31140.8
31145.5
31150.1
31154.7
31159.2
31163.6
31168
31172.3
31176.5
31180.6
31184.7
31188.6
31192.5
31196.3
31200.1
31203.7
31207.3
31210.7
31214.1
31217.4
31220.6
31223.7
31226.6
31229.5
31232.3
31235
31237.6
31240.1
31242.5
31244.8
31247
31249
31251
31252.8
31254.6
31256.2
31257.7
31259.1
31260.4
31261.6
31262.6
31263.6
31264.4
31265.1
31265.7
31266.2
31266.6
31266.8
31266.9
27195.4
27195.7
27196.3
27197.1
27198.3
27199.7
27201.4
27203.4
27205.7
27208.2
27211
27214
27217.4
27221
27224.8
27228.9
27233.2
27237.8
27242.7
27247.7
27253
27258.6
27264.4
27270.4
27276.6
27283.1
27289.8
27296.7
27303.9
27311.2
27318.8
27326.6
27334.7
27342.9
27351.4
27360.1
27369
27378.1
27387.4
27396.9
27406.7
27416.7
27426.9
27437.2
27447.8
27458.7
27469.7
27480.9
27492.3
27503.9
27515.8
27527.8
27540
27552.4
27565
27577.8
27590.7
27603.9
27617.2
27630.7
27644.3
27658.2
27672.2
27686.3
27700.7
27715.2
27729.8
27744.6
27759.5
27774.6
27789.8
27805.1
27820.6
27836.2
27852
27867.8
27883.8
27899.9
27916.1
27932.4
27948.8
27965.2
27981.8
27998.5
28015.3
28032.1
28049.1
28066
28083.1
28100.3
28117.5
28134.7
28152
28169.4
28186.8
28204.3
28221.8
28239.3
28256.9
28274.5
28292.2
28309.8
28327.5
28345.3
28363
28380.7
28398.5
28416.3
28434
28451.8
28469.6
28487.4
28505.2
28523
28540.8
28558.5
28576.3
28594.1
28611.8
28629.5
28647.2
28664.9
28682.6
28700.3
28717.9
28735.5
28753.1
28770.7
28788.2
28805.7
28823.2
28840.6
28858.1
28875.4
28892.8
28910.1
28927.4
28944.6
28961.8
28979
28996.1
29013.2
29030.2
29047.2
29064.1
29081
29097.8
29114.6
29131.4
29148.1
29164.7
29181.3
29197.8
29214.2
29230.6
29247
29263.3
29279.5
29295.6
29311.7
29327.7
29343.7
29359.5
29375.3
29391.1
29406.7
29422.3
29437.8
29453.2
29468.5
29483.8
29498.9
29514
29529
29543.9
29558.7
29573.4
29588
29602.5
29617
29631.3
29645.6
29659.7
29673.7
29687.7
29701.5
29715.3
29728.9
29742.4
29755.8
29769.1
29782.4
29795.4
29808.4
29821.3
29834.1
29846.8
29859.3
29871.7
29884.1
29896.3
29908.4
29920.4
29932.3
29944
29955.7
29967.2
29978.7
29990
30001.2
30012.3
30023.3
30034.2
30044.9
30055.6
30066.1
30076.6
30086.9
30097.1
30107.2
30117.3
30127.2
30137
30146.7
30156.3
30165.8
30175.2
30184.5
30193.7
30202.8
30211.8
30220.8
30229.6
30238.3
30247
30255.6
30264.1
30272.5
30280.8
30289
30297.2
30305.2
30313.2
30321.2
30329
30336.8
30344.5
30352.1
30359.7
30367.2
30374.6
30382
30389.3
30396.5
30403.7
30410.8
30417.9
30424.9
30431.8
30438.7
30445.5
30452.3
30459
30465.7
30472.4
30478.9
30485.5
30491.9
30498.4
30504.8
30511.1
30517.4
30523.6
30529.8
30536
30542.1
30548.1
30554.2
30560.1
30566
30571.9
30577.7
30583.5
30589.2
30594.9
30600.6
30606.1
30611.7
30617.2
30622.6
30628
30633.3
30638.5
30643.7
30648.9
30654
30659
30664.1
30669
30673.9
30678.8
30683.5
30688.3
30692.9
30697.5
30702
30706.4
30710.8
30715.1
30719.3
30723.4
30727.5
30731.5
30735.4
30739.2
30742.9
30746.6
30750.2
30753.6
30757
30760.3
30763.5
30766.6
30769.6
30772.5
30775.3
30778
30780.6
30783.1
30785.5
30787.8
30790
30792
30794
30795.9
30797.6
30799.2
30800.8
30802.2
30803.5
30804.6
30805.7
30806.7
30807.5
30808.2
30808.8
30809.3
30809.7
30809.9
30810
26733.7
26734
26734.6
26735.4
26736.6
26738.1
26739.8
26741.8
26744.1
26746.6
26749.5
26752.6
26755.9
26759.5
26763.4
26767.5
26771.9
26776.6
26781.4
26786.5
26791.9
26797.5
26803.3
26809.4
26815.6
26822.2
26828.9
26835.8
26843
26850.4
26858
26865.9
26873.9
26882.2
26890.7
26899.4
26908.4
26917.5
26926.9
26936.4
26946.2
26956.2
26966.5
26976.9
26987.5
26998.4
27009.4
27020.7
27032.1
27043.8
27055.6
27067.7
27079.9
27092.4
27105
27117.8
27130.8
27144
27157.4
27170.9
27184.6
27198.5
27212.6
27226.8
27241.1
27255.7
27270.4
27285.2
27300.2
27315.3
27330.5
27345.9
27361.4
27377.1
27392.9
27408.8
27424.8
27440.9
27457.1
27473.5
27489.9
27506.4
27523
27539.8
27556.6
27573.4
27590.4
27607.4
27624.5
27641.7
27658.9
27676.2
27693.6
27711
27728.4
27745.9
27763.4
27781
27798.6
27816.2
27833.9
27851.6
27869.3
27887.1
27904.8
27922.6
27940.3
27958.1
27975.9
27993.7
28011.5
28029.3
28047.1
28064.9
28082.7
28100.5
28118.3
28136.1
28153.8
28171.6
28189.3
28207
28224.7
28242.4
28260
28277.7
28295.3
28312.8
28330.4
28347.9
28365.4
28382.9
28400.3
28417.7
28435.1
28452.4
28469.7
28486.9
28504.1
28521.3
28538.4
28555.5
28572.6
28589.6
28606.5
28623.5
28640.3
28657.1
28673.9
28690.6
28707.2
28723.8
28740.4
28756.9
28773.3
28789.6
28805.9
28822.2
28838.3
28854.4
28870.5
28886.4
28902.3
28918.2
28933.9
28949.6
28965.2
28980.7
28996.1
29011.5
29026.7
29041.9
29057
29072
29086.9
29101.8
29116.5
29131.1
29145.7
29160.1
29174.5
29188.7
29202.9
29217
29230.9
29244.8
29258.5
29272.2
29285.7
29299.1
29312.5
29325.7
29338.8
29351.8
29364.7
29377.4
29390.1
29402.7
29415.1
29427.4
29439.7
29451.8
29463.8
29475.7
29487.4
29499.1
29510.6
29522.1
29533.4
29544.6
29555.7
29566.7
29577.5
29588.3
29598.9
29609.5
29619.9
29630.2
29640.5
29650.6
29660.6
29670.5
29680.3
29690
29699.5
29709
29718.4
29727.7
29736.9
29746
29755
29763.9
29772.8
29781.5
29790.1
29798.7
29807.1
29815.5
29823.8
29832
29840.2
29848.2
29856.2
29864.1
29872
29879.7
29887.4
29895
29902.6
29910.1
29917.5
29924.8
29932.1
29939.3
29946.5
29953.6
29960.6
29967.6
29974.6
29981.4
29988.3
29995
30001.8
30008.4
30015.1
30021.6
30028.1
30034.6
30041
30047.4
30053.8
30060
30066.3
30072.5
30078.6
30084.7
30090.8
30096.8
30102.8
30108.7
30114.6
30120.4
30126.2
30131.9
30137.6
30143.2
30148.8
30154.4
30159.9
30165.3
30170.7
30176
30181.3
30186.6
30191.8
30196.9
30202
30207
30212
30216.9
30221.7
30226.5
30231.2
30235.8
30240.4
30245
30249.4
30253.8
30258.1
30262.3
30266.5
30270.6
30274.6
30278.5
30282.3
30286.1
30289.7
30293.3
30296.8
30300.2
30303.5
30306.7
30309.8
30312.8
30315.7
30318.5
30321.3
30323.9
30326.4
30328.8
30331.1
30333.3
30335.4
30337.3
30339.2
30341
30342.6
30344.1
30345.5
30346.8
30348
30349.1
30350.1
30350.9
30351.6
30352.2
30352.7
30353.1
30353.3
30353.4
26271
26271.3
26271.9
26272.8
26274
26275.4
26277.2
26279.2
26281.5
26284.1
26287
26290.1
26293.5
26297.2
26301.1
26305.3
26309.7
26314.4
26319.3
26324.5
26329.9
26335.6
26341.4
26347.5
26353.9
26360.4
26367.2
26374.2
26381.4
26388.8
26396.5
26404.4
26412.5
26420.8
26429.3
26438.1
26447.1
26456.2
26465.6
26475.3
26485.1
26495.1
26505.4
26515.9
26526.5
26537.4
26548.5
26559.8
26571.3
26583
26594.9
26607.1
26619.4
26631.8
26644.5
26657.4
26670.5
26683.7
26697.1
26710.7
26724.5
26738.4
26752.5
26766.8
26781.2
26795.8
26810.5
26825.4
26840.4
26855.6
26870.9
26886.3
26901.9
26917.6
26933.4
26949.4
26965.4
26981.6
26997.9
27014.3
27030.8
27047.3
27064
27080.8
27097.6
27114.5
27131.5
27148.6
27165.8
27183
27200.2
27217.6
27234.9
27252.4
27269.9
27287.4
27304.9
27322.5
27340.2
27357.8
27375.5
27393.3
27411
27428.7
27446.5
27464.3
27482.1
27499.9
27517.7
27535.6
27553.4
27571.2
27589
27606.8
27624.7
27642.5
27660.3
27678
27695.8
27713.6
27731.3
27749
27766.8
27784.4
27802.1
27819.8
27837.4
27855
27872.5
27890.1
27907.6
27925.1
27942.5
27959.9
27977.3
27994.7
28012
28029.2
28046.5
28063.7
28080.8
28097.9
28115
28132
28149
28166
28182.8
28199.7
28216.5
28233.2
28249.9
28266.5
28283
28299.6
28316
28332.4
28348.7
28365
28381.2
28397.3
28413.4
28429.4
28445.3
28461.1
28476.9
28492.6
28508.2
28523.8
28539.2
28554.6
28569.9
28585.1
28600.2
28615.3
28630.2
28645
28659.8
28674.5
28689
28703.5
28717.9
28732.2
28746.3
28760.4
28774.4
28788.3
28802
28815.7
28829.2
28842.7
28856
28869.3
28882.4
28895.4
28908.3
28921.1
28933.8
28946.3
28958.8
28971.1
28983.3
28995.5
29007.5
29019.3
29031.1
29042.8
29054.3
29065.7
29077.1
29088.3
29099.3
29110.3
29121.2
29131.9
29142.6
29153.1
29163.5
29173.9
29184.1
29194.2
29204.1
29214
29223.8
29233.5
29243.1
29252.5
29261.9
29271.2
29280.4
29289.5
29298.4
29307.3
29316.1
29324.9
29333.5
29342
29350.5
29358.8
29367.1
29375.3
29383.4
29391.5
29399.4
29407.3
29415.1
29422.8
29430.5
29438.1
29445.6
29453.1
29460.5
29467.8
29475.1
29482.3
29489.5
29496.5
29503.6
29510.6
29517.5
29524.3
29531.1
29537.9
29544.6
29551.3
29557.9
29564.4
29571
29577.4
29583.8
29590.2
29596.5
29602.8
29609.1
29615.3
29621.4
29627.5
29633.6
29639.6
29645.6
29651.5
29657.4
29663.2
29669
29674.7
29680.4
29686.1
29691.7
29697.2
29702.7
29708.2
29713.6
29719
29724.3
29729.5
29734.7
29739.9
29744.9
29750
29755
29759.9
29764.7
29769.6
29774.3
29779
29783.6
29788.1
29792.6
29797
29801.3
29805.5
29809.7
29813.8
29817.8
29821.8
29825.6
29829.4
29833.1
29836.6
29840.2
29843.6
29846.9
29850.1
29853.2
29856.3
29859.2
29862
29864.8
29867.4
29869.9
29872.3
29874.7
29876.9
29879
29880.9
29882.8
29884.6
29886.2
29887.8
29889.2
29890.5
29891.7
29892.8
29893.8
29894.6
29895.3
29895.9
29896.4
29896.8
29897
29897.2
25807.3
25807.6
25808.2
25809.1
25810.3
25811.8
25813.6
25815.7
25818
25820.7
25823.6
25826.8
25830.2
25834
25837.9
25842.2
25846.7
25851.4
25856.4
25861.6
25867.1
25872.8
25878.7
25884.9
25891.3
25897.9
25904.7
25911.7
25919
25926.5
25934.2
25942.1
25950.3
25958.6
25967.2
25976
25985
25994.3
26003.7
26013.4
26023.3
26033.3
26043.7
26054.2
26064.9
26075.9
26087
26098.4
26109.9
26121.7
26133.7
26145.8
26158.2
26170.7
26183.5
26196.4
26209.5
26222.8
26236.3
26250
26263.8
26277.8
26292
26306.3
26320.8
26335.4
26350.2
26365.2
26380.3
26395.5
26410.9
26426.4
26442
26457.8
26473.7
26489.7
26505.8
26522
26538.4
26554.8
26571.4
26588
26604.7
26621.5
26638.4
26655.4
26672.5
26689.6
26706.8
26724
26741.4
26758.7
26776.2
26793.6
26811.1
26828.7
26846.3
26863.9
26881.6
26899.3
26917
26934.8
26952.6
26970.3
26988.1
27006
27023.8
27041.6
27059.5
27077.3
27095.2
27113
27130.8
27148.7
27166.5
27184.3
27202.2
27220
27237.8
27255.5
27273.3
27291
27308.8
27326.5
27344.2
27361.8
27379.5
27397.1
27414.7
27432.2
27449.8
27467.3
27484.7
27502.2
27519.6
27537
27554.3
27571.6
27588.9
27606.1
27623.3
27640.4
27657.5
27674.5
27691.6
27708.5
27725.4
27742.3
27759.1
27775.9
27792.6
27809.2
27825.8
27842.4
27858.8
27875.3
27891.6
27907.9
27924.1
27940.3
27956.4
27972.4
27988.4
28004.3
28020.1
28035.8
28051.4
28067
28082.5
28097.9
28113.2
28128.5
28143.6
28158.7
28173.7
28188.6
28203.3
28218
28232.6
28247.1
28261.5
28275.8
28290
28304.1
28318.1
28332
28345.8
28359.5
28373.1
28386.5
28399.9
28413.1
28426.3
28439.3
28452.2
28465
28477.7
28490.3
28502.7
28515.1
28527.3
28539.4
28551.4
28563.3
28575.1
28586.8
28598.3
28609.7
28621
28632.2
28643.3
28654.3
28665.2
28675.9
28686.5
28697.1
28707.5
28717.8
28728
28738
28748
28757.9
28767.6
28777.3
28786.9
28796.3
28805.7
28814.9
28824.1
28833.2
28842.1
28851
28859.8
28868.5
28877.1
28885.6
28894
28902.3
28910.6
28918.8
28926.8
28934.9
28942.8
28950.7
28958.4
28966.2
28973.8
28981.4
28988.9
28996.3
29003.7
29011
29018.3
29025.4
29032.6
29039.6
29046.7
29053.6
29060.5
29067.4
29074.2
29080.9
29087.6
29094.2
29100.8
29107.4
29113.9
29120.3
29126.8
29133.1
29139.4
29145.7
29152
29158.1
29164.3
29170.4
29176.5
29182.5
29188.4
29194.4
29200.3
29206.1
29211.9
29217.7
29223.4
29229
29234.6
29240.2
29245.7
29251.2
29256.6
29262
29267.3
29272.6
29277.8
29283
29288.1
29293.2
29298.2
29303.1
29308
29312.8
29317.6
29322.3
29326.9
29331.4
29335.9
29340.4
29344.7
29349
29353.2
29357.3
29361.3
29365.3
29369.1
29372.9
29376.6
29380.2
29383.8
29387.2
29390.5
29393.8
29396.9
29400
29402.9
29405.8
29408.5
29411.2
29413.7
29416.2
29418.5
29420.7
29422.8
29424.8
29426.7
29428.5
29430.2
29431.7
29433.2
29434.5
29435.7
29436.8
29437.8
29438.6
29439.3
29440
29440.4
29440.8
29441.1
29441.2
25342.6
25342.9
25343.5
25344.5
25345.7
25347.2
25349.1
25351.2
25353.6
25356.3
25359.2
25362.5
25366
25369.8
25373.8
25378.2
25382.7
25387.5
25392.6
25397.9
25403.4
25409.2
25415.2
25421.4
25427.8
25434.5
25441.4
25448.5
25455.8
25463.4
25471.1
25479.1
25487.3
25495.7
25504.4
25513.2
25522.3
25531.6
25541.1
25550.8
25560.7
25570.9
25581.2
25591.8
25602.6
25613.6
25624.8
25636.3
25647.9
25659.7
25671.8
25684
25696.4
25709.1
25721.9
25734.9
25748.1
25761.5
25775
25788.8
25802.7
25816.7
25831
25845.4
25860
25874.7
25889.6
25904.6
25919.8
25935.1
25950.5
25966.1
25981.8
25997.6
26013.6
26029.7
26045.9
26062.2
26078.6
26095.1
26111.7
26128.4
26145.2
26162.1
26179
26196.1
26213.2
26230.4
26247.6
26264.9
26282.3
26299.7
26317.2
26334.7
26352.3
26369.9
26387.5
26405.2
26422.9
26440.7
26458.4
26476.2
26494
26511.8
26529.7
26547.5
26565.4
26583.2
26601.1
26619
26636.9
26654.7
26672.6
26690.5
26708.3
26726.2
26744
26761.8
26779.7
26797.5
26815.2
26833
26850.8
26868.5
26886.2
26903.9
26921.5
26939.2
26956.8
26974.4
26991.9
27009.5
27027
27044.4
27061.9
27079.3
27096.6
27114
27131.2
27148.5
27165.7
27182.9
27200
27217.1
27234.1
27251.1
27268.1
27285
27301.8
27318.6
27335.4
27352
27368.7
27385.3
27401.8
27418.2
27434.6
27451
27467.2
27483.4
27499.6
27515.6
27531.6
27547.5
27563.4
27579.2
27594.9
27610.5
27626
27641.4
27656.8
27672.1
27687.3
27702.4
27717.4
27732.3
27747.1
27761.8
27776.5
27791
27805.4
27819.8
27834
27848.1
27862.2
27876.1
27889.9
27903.6
27917.2
27930.7
27944
27957.3
27970.5
27983.5
27996.4
28009.2
28021.9
28034.5
28047
28059.4
28071.6
28083.7
28095.7
28107.6
28119.4
28131
28142.6
28154
28165.3
28176.5
28187.6
28198.6
28209.4
28220.1
28230.8
28241.3
28251.7
28262
28272.1
28282.2
28292.2
28302
28311.8
28321.4
28330.9
28340.4
28349.7
28358.9
28368.1
28377.1
28386
28394.9
28403.6
28412.3
28420.9
28429.4
28437.7
28446.1
28454.3
28462.4
28470.5
28478.5
28486.4
28494.2
28502
28509.7
28517.3
28524.8
28532.3
28539.7
28547.1
28554.3
28561.6
28568.7
28575.8
28582.9
28589.9
28596.8
28603.7
28610.5
28617.3
28624
28630.7
28637.3
28643.9
28650.4
28656.9
28663.4
28669.8
28676.1
28682.5
28688.7
28695
28701.1
28707.3
28713.4
28719.5
28725.5
28731.5
28737.4
28743.3
28749.1
28754.9
28760.7
28766.4
28772.1
28777.7
28783.3
28788.9
28794.4
28799.8
28805.2
28810.5
28815.8
28821.1
28826.3
28831.4
28836.5
28841.5
28846.5
28851.4
28856.2
28861
28865.7
28870.4
28875
28879.5
28883.9
28888.3
28892.6
28896.8
28901
28905
28909
28912.9
28916.7
28920.4
28924.1
28927.6
28931.1
28934.4
28937.7
28940.9
28944
28946.9
28949.8
28952.6
28955.3
28957.8
28960.3
28962.6
28964.9
28967
28969
28970.9
28972.7
28974.4
28976
28977.4
28978.8
28980
28981.1
28982.1
28982.9
28983.7
28984.3
28984.8
28985.1
28985.4
28985.5
24876.9
24877.2
24877.8
24878.8
24880.1
24881.6
24883.5
24885.7
24888.1
24890.9
24893.9
24897.2
24900.8
24904.7
24908.8
24913.2
24917.9
24922.8
24927.9
24933.3
24938.9
24944.7
24950.8
24957.1
24963.6
24970.4
24977.3
24984.5
24991.9
24999.5
25007.3
25015.3
25023.6
25032.1
25040.8
25049.7
25058.8
25068.1
25077.7
25087.5
25097.5
25107.7
25118.2
25128.8
25139.7
25150.8
25162
25173.5
25185.3
25197.2
25209.3
25221.6
25234.1
25246.8
25259.7
25272.8
25286.1
25299.6
25313.2
25327.1
25341
25355.2
25369.5
25384
25398.7
25413.5
25428.5
25443.6
25458.8
25474.2
25489.8
25505.4
25521.2
25537.2
25553.2
25569.4
25585.6
25602
25618.5
25635.1
25651.8
25668.6
25685.4
25702.4
25719.4
25736.5
25753.7
25771
25788.3
25805.6
25823.1
25840.6
25858.1
25875.7
25893.3
25910.9
25928.6
25946.4
25964.1
25981.9
25999.7
26017.5
26035.4
26053.2
26071.1
26089
26106.9
26124.8
26142.7
26160.6
26178.5
26196.4
26214.3
26232.2
26250.1
26267.9
26285.8
26303.7
26321.5
26339.3
26357.1
26374.9
26392.7
26410.5
26428.2
26445.9
26463.6
26481.3
26498.9
26516.5
26534.1
26551.7
26569.2
26586.7
26604.1
26621.6
26639
26656.3
26673.7
26690.9
26708.2
26725.4
26742.6
26759.7
26776.8
26793.8
26810.8
26827.7
26844.6
26861.4
26878.2
26895
26911.6
26928.3
26944.8
26961.3
26977.8
26994.1
27010.4
27026.7
27042.9
27059
27075
27091
27106.9
27122.7
27138.4
27154.1
27169.7
27185.1
27200.6
27215.9
27231.1
27246.2
27261.3
27276.2
27291.1
27305.9
27320.5
27335.1
27349.6
27363.9
27378.2
27392.4
27406.4
27420.4
27434.2
27448
27461.6
27475.1
27488.5
27501.8
27514.9
27528
27540.9
27553.8
27566.5
27579.1
27591.6
27603.9
27616.2
27628.3
27640.3
27652.2
27664
27675.6
27687.2
27698.6
27709.9
27721.1
27732.2
27743.1
27754
27764.7
27775.3
27785.8
27796.2
27806.4
27816.6
27826.7
27836.6
27846.4
27856.1
27865.8
27875.3
27884.7
27894
27903.2
27912.3
27921.3
27930.2
27939
27947.7
27956.4
27964.9
27973.4
27981.7
27990
27998.2
28006.3
28014.3
28022.3
28030.2
28038
28045.7
28053.3
28060.9
28068.4
28075.9
28083.3
28090.6
28097.8
28105
28112.2
28119.2
28126.3
28133.2
28140.1
28147
28153.8
28160.6
28167.3
28173.9
28180.5
28187.1
28193.6
28200.1
28206.5
28212.9
28219.3
28225.6
28231.8
28238.1
28244.3
28250.4
28256.5
28262.6
28268.6
28274.6
28280.5
28286.4
28292.3
28298.1
28303.9
28309.6
28315.3
28320.9
28326.5
28332.1
28337.6
28343.1
28348.5
28353.9
28359.2
28364.5
28369.7
28374.9
28380
28385
28390
28394.9
28399.8
28404.6
28409.4
28414.1
28418.7
28423.2
28427.7
28432.1
28436.4
28440.7
28444.8
28448.9
28453
28456.9
28460.7
28464.5
28468.1
28471.7
28475.2
28478.6
28481.9
28485.1
28488.2
28491.2
28494.1
28496.9
28499.6
28502.2
28504.7
28507
28509.3
28511.5
28513.5
28515.4
28517.2
28518.9
28520.5
28522
28523.3
28524.6
28525.7
28526.7
28527.5
28528.3
28528.9
28529.4
28529.8
28530
28530.1
24410.1
24410.5
24411.1
24412.1
24413.4
24415
24416.9
24419.1
24421.7
24424.5
24427.6
24431
24434.7
24438.6
24442.9
24447.4
24452.1
24457.1
24462.3
24467.8
24473.5
24479.4
24485.6
24492
24498.6
24505.4
24512.4
24519.7
24527.1
24534.8
24542.7
24550.8
24559.1
24567.7
24576.4
24585.4
24594.6
24604
24613.6
24623.5
24633.6
24643.9
24654.4
24665.1
24676.1
24687.2
24698.6
24710.2
24722
24734
24746.2
24758.6
24771.2
24784
24797
24810.2
24823.6
24837.2
24850.9
24864.8
24878.9
24893.2
24907.6
24922.2
24937
24951.9
24966.9
24982.2
24997.5
25013
25028.6
25044.4
25060.3
25076.3
25092.5
25108.7
25125.1
25141.6
25158.1
25174.8
25191.6
25208.5
25225.4
25242.4
25259.6
25276.7
25294
25311.3
25328.7
25346.2
25363.7
25381.2
25398.8
25416.4
25434.1
25451.8
25469.6
25487.4
25505.2
25523
25540.9
25558.7
25576.6
25594.5
25612.4
25630.4
25648.3
25666.2
25684.2
25702.1
25720
25738
25755.9
25773.8
25791.7
25809.6
25827.5
25845.4
25863.3
25881.1
25899
25916.8
25934.6
25952.4
25970.2
25987.9
26005.6
26023.3
26041
26058.6
26076.3
26093.8
26111.4
26128.9
26146.4
26163.9
26181.3
26198.7
26216.1
26233.4
26250.7
26267.9
26285.1
26302.3
26319.4
26336.5
26353.5
26370.5
26387.4
26404.3
26421.2
26437.9
26454.7
26471.3
26487.9
26504.5
26521
26537.4
26553.8
26570.1
26586.3
26602.5
26618.6
26634.6
26650.5
26666.4
26682.2
26697.9
26713.5
26729
26744.5
26759.9
26775.1
26790.3
26805.4
26820.4
26835.3
26850.1
26864.9
26879.5
26894
26908.4
26922.7
26936.9
26951
26965
26978.8
26992.6
27006.2
27019.8
27033.2
27046.5
27059.7
27072.8
27085.8
27098.6
27111.3
27123.9
27136.4
27148.8
27161.1
27173.2
27185.2
27197.1
27208.9
27220.6
27232.1
27243.5
27254.8
27266
27277.1
27288
27298.8
27309.5
27320.1
27330.6
27341
27351.2
27361.4
27371.4
27381.3
27391.1
27400.8
27410.4
27419.9
27429.3
27438.5
27447.7
27456.8
27465.8
27474.6
27483.4
27492.1
27500.7
27509.2
27517.6
27525.9
27534.2
27542.3
27550.4
27558.4
27566.3
27574.1
27581.9
27589.6
27597.2
27604.7
27612.2
27619.6
27627
27634.3
27641.5
27648.6
27655.7
27662.8
27669.8
27676.7
27683.6
27690.4
27697.2
27703.9
27710.6
27717.3
27723.9
27730.4
27736.9
27743.4
27749.8
27756.2
27762.5
27768.8
27775.1
27781.3
27787.5
27793.6
27799.7
27805.8
27811.8
27817.8
27823.7
27829.6
27835.5
27841.3
27847.1
27852.9
27858.6
27864.3
27869.9
27875.5
27881
27886.5
27891.9
27897.3
27902.7
27908
27913.2
27918.4
27923.6
27928.7
27933.7
27938.7
27943.6
27948.4
27953.2
27957.9
27962.6
27967.1
27971.6
27976.1
27980.4
27984.7
27988.9
27993.1
27997.1
28001.1
28005
28008.8
28012.5
28016.1
28019.6
28023
28026.3
28029.6
28032.7
28035.7
28038.7
28041.5
28044.2
28046.8
28049.3
28051.7
28054
28056.2
28058.3
28060.2
28062
28063.8
28065.4
28066.8
28068.2
28069.4
28070.6
28071.6
28072.4
28073.2
28073.8
28074.3
28074.7
28075
28075.1
23942.3
23942.6
23943.3
23944.3
23945.6
23947.3
23949.3
23951.6
23954.2
23957.1
23960.3
23963.8
23967.6
23971.6
23976
23980.6
23985.4
23990.5
23995.9
24001.4
24007.3
24013.3
24019.6
24026
24032.7
24039.6
24046.7
24054.1
24061.6
24069.4
24077.3
24085.5
24093.9
24102.5
24111.3
24120.4
24129.6
24139.1
24148.8
24158.8
24168.9
24179.3
24189.9
24200.7
24211.8
24223
24234.5
24246.2
24258.1
24270.2
24282.5
24295
24307.7
24320.6
24333.8
24347.1
24360.5
24374.2
24388.1
24402.1
24416.3
24430.7
24445.2
24459.9
24474.8
24489.8
24505
24520.3
24535.8
24551.4
24567.1
24583
24599
24615.1
24631.4
24647.8
24664.2
24680.8
24697.5
24714.3
24731.1
24748.1
24765.1
24782.3
24799.5
24816.8
24834.1
24851.5
24869
24886.5
24904.1
24921.7
24939.4
24957.1
24974.8
24992.6
25010.4
25028.3
25046.1
25064
25081.9
25099.8
25117.8
25135.7
25153.7
25171.6
25189.6
25207.6
25225.6
25243.5
25261.5
25279.5
25297.4
25315.4
25333.3
25351.3
25369.2
25387.1
25405
25422.9
25440.8
25458.6
25476.5
25494.3
25512.1
25529.9
25547.6
25565.3
25583.1
25600.7
25618.4
25636
25653.6
25671.2
25688.7
25706.2
25723.7
25741.1
25758.5
25775.9
25793.2
25810.5
25827.8
25845
25862.1
25879.3
25896.3
25913.4
25930.4
25947.3
25964.2
25981
25997.8
26014.5
26031.2
26047.8
26064.3
26080.8
26097.2
26113.6
26129.9
26146.1
26162.2
26178.3
26194.3
26210.2
26226.1
26241.8
26257.5
26273.1
26288.6
26304.1
26319.4
26334.6
26349.8
26364.8
26379.8
26394.6
26409.4
26424.1
26438.6
26453.1
26467.4
26481.6
26495.8
26509.8
26523.7
26537.5
26551.2
26564.8
26578.2
26591.5
26604.8
26617.9
26630.9
26643.7
26656.5
26669.1
26681.6
26694
26706.3
26718.4
26730.4
26742.3
26754.1
26765.8
26777.3
26788.7
26800
26811.2
26822.3
26833.2
26844
26854.7
26865.3
26875.7
26886.1
26896.3
26906.4
26916.4
26926.3
26936.1
26945.8
26955.3
26964.8
26974.1
26983.4
26992.5
27001.5
27010.5
27019.3
27028
27036.7
27045.2