/*--------------------------------*- C++ -*----------------------------------*\
| =========                 |                                                 |
| \\      /  F ield         | OpenFOAM: The Open Source CFD Toolbox           |
|  \\    /   O peration     | Version:  v2006                                 |
|   \\  /    A nd           | Website:  www.openfoam.com                      |
|    \\/     M anipulation  |                                                 |
\*---------------------------------------------------------------------------*/
FoamFile
{
    version     2.0;
    format      ascii;
    class       surfaceScalarField;
    location    "3";
    object      alphaPhi0.water;
}
// * * * * * * * * * * * * * * * * * * * * * * * * * * * * * * * * * * * * * //

dimensions      [0 3 -1 0 0 0 0];
oriented        oriented;


internalField   nonuniform List<scalar> 
299200
(
3.74104e-06
-3.74104e-06
0.000647109
-0.000643368
0.00131262
-0.000665513
0.00186586
-0.000553237
0.002323
-0.000457143
0.00273875
-0.000415747
0.00314588
-0.000407128
0.00355203
-0.000406155
0.00395623
-0.000404198
0.00435742
-0.000401189
0.00475475
-0.00039733
0.00514783
-0.000393077
0.00553697
-0.00038914
0.00592279
-0.000385819
0.00630593
-0.000383148
0.00668707
-0.000381135
0.00706682
-0.000379755
0.00744578
-0.000378957
0.00782449
-0.000378704
0.00820344
-0.000378958
0.00858312
-0.000379674
0.00896391
-0.000380795
0.00934618
-0.000382265
0.0097302
-0.000384018
0.0101162
-0.000385986
0.0105043
-0.000388101
0.0108946
-0.000390297
0.0112871
-0.000392509
0.0116818
-0.000394678
0.0120785
-0.000396746
0.0124772
-0.000398659
0.0128775
-0.000400367
0.0132794
-0.000401821
0.0136823
-0.000402975
0.0140861
-0.000403788
0.0144903
-0.000404222
0.0148946
-0.000404249
0.0152984
-0.000403845
0.0157014
-0.000402992
0.0161031
-0.000401674
0.016503
-0.000399879
0.0169006
-0.000397596
0.0172954
-0.000394818
0.0176869
-0.000391539
0.0180747
-0.000387762
0.0184582
-0.000383491
0.0188369
-0.000378737
0.0192105
-0.000373524
0.0195783
-0.000367884
0.0199402
-0.000361849
0.0202956
-0.000355411
0.0206441
-0.000348491
0.0209851
-0.000340972
0.0213179
-0.000332843
0.0216423
-0.00032443
0.0219589
-0.000316552
0.0222693
-0.000310418
0.0225765
-0.000307184
0.0228838
-0.000307355
0.0231942
-0.000310379
0.023509
-0.000314731
0.0238274
-0.000318464
0.0241473
-0.000319933
0.0244657
-0.000318305
0.0247793
-0.000313657
0.0250861
-0.000306761
0.0253847
-0.000298662
0.0256747
-0.00028993
0.025954
-0.000279331
0.0262163
-0.000262339
0.026448
-0.000231662
0.0266306
-0.000182652
0.0267523
-0.000121688
0.0268194
-6.70721e-05
0.0268545
-3.51245e-05
0.02688
-2.54952e-05
0.0269052
-2.52232e-05
0.0269291
-2.38122e-05
0.0269482
-1.91716e-05
0.0269617
-1.34866e-05
0.0269703
-8.59932e-06
0.0269752
-4.87357e-06
0.0269773
-2.13413e-06
0.0269767
6.16334e-07
0.0269739
2.80247e-06
0.0269692
4.65846e-06
0.026963
6.27271e-06
0.0269553
7.68479e-06
0.0269464
8.94084e-06
0.0269363
1.00977e-05
0.026925
1.12088e-05
0.0269127
1.23186e-05
0.0268993
1.34711e-05
0.0268845
1.47295e-05
0.0268684
1.61626e-05
0.0268505
1.78134e-05
0.0268309
1.96824e-05
0.0268091
2.17721e-05
0.0267849
2.41753e-05
0.0267577
2.71939e-05
0.0267273
3.04205e-05
0.0266932
3.40712e-05
0.026655
3.81889e-05
0.0266123
4.27779e-05
0.0265644
4.78926e-05
0.0265109
5.35243e-05
0.0264512
5.96686e-05
0.0263849
6.63252e-05
0.0263114
7.34917e-05
0.0262302
8.11615e-05
0.0261409
8.93237e-05
0.0260429
9.79629e-05
0.0259359
0.00010706
0.0258193
0.000116592
0.0256927
0.000126534
0.0255559
0.000136859
0.0254083
0.000147536
0.0252498
0.000158537
0.02508
0.000169831
0.0248986
0.000181391
0.0247054
0.000193188
0.0245002
0.000205196
0.0242828
0.000217389
0.0240531
0.000229742
0.0238108
0.000242231
0.023556
0.000254834
0.0232885
0.000267529
0.0230082
0.000280295
0.0227151
0.000293111
0.0224091
0.000305958
0.0220903
0.000318817
0.0217586
0.000331672
0.0214141
0.000344504
0.0210568
0.0003573
0.0206868
0.000370043
0.020304
0.000382721
0.0199087
0.000395315
0.0195009
0.000407805
0.0190808
0.000420161
0.0186484
0.000432335
0.0182042
0.000444265
0.0177483
0.000455865
0.0172813
0.00046703
0.0168036
0.000477647
0.016316
0.00048761
0.0158192
0.000496829
0.0153139
0.000505242
0.0148011
0.000512817
0.0142816
0.000519548
0.0137561
0.000525452
0.0132256
0.000530561
0.0126907
0.000534912
0.0121521
0.000538548
0.0116106
0.000541511
0.0110667
0.000543846
0.0105212
0.000545596
0.00997435
0.000546803
0.00942684
0.000547508
0.00887909
0.000547751
0.00833151
0.000547573
0.0077845
0.000547013
0.00723838
0.000546118
0.00669344
0.000544941
0.00614988
0.000543559
0.00560779
0.000542094
0.00506716
0.000540631
0.00452811
0.000539048
0.00399099
0.000537126
0.00345613
0.000534851
0.00292379
0.000532343
0.00239412
0.000529674
0.00186722
0.000526895
0.00134317
0.000524047
0.00082204
0.000521134
0.000303832
0.000518208
-0.000211461
0.000515293
-0.000723855
0.000512394
-0.00123341
0.000509558
-0.00174024
0.000506828
-0.00224441
0.000504166
-0.00274606
0.000501657
-0.00324543
0.00049937
-0.00374272
0.000497291
-0.00423819
0.000495469
-0.00473217
0.000493978
-0.00522503
0.000492855
-0.00571721
0.000492186
-0.00620932
0.000492104
-0.00670199
0.000492674
-0.00719541
0.000493424
-0.00768906
0.000493642
-0.00818192
0.000492862
-0.00867315
0.000491228
-0.00916234
0.000489196
-0.00964947
0.000487129
-0.0101347
0.00048521
-0.0106181
0.000483411
-0.0110998
0.000481745
-0.0115801
0.00048022
-0.0120589
0.000478813
-0.0125364
0.000477519
-0.0130129
0.000476509
-0.0134885
0.000475552
-0.0139632
0.00047476
-0.0144373
0.000474133
-0.014911
0.000473675
-0.0153844
0.000473384
-0.0158577
0.000473256
-0.0163309
0.000473285
-0.0168044
0.000473472
-0.0172782
0.000473827
-0.0177526
0.000474322
-0.0182275
0.000474956
-0.0187033
0.000475744
-0.0191799
0.000476664
-0.0196577
0.000477729
-0.0201366
0.000478926
-0.0206168
0.000480177
-0.0210982
0.00048146
-0.021581
0.000482756
-0.0220651
0.000484144
-0.022551
0.000485881
-0.0230395
0.000488478
-0.0235322
0.000492688
-0.0240316
0.00049943
-0.0245412
0.000509611
-0.025065
0.000523789
-0.0256068
0.000541817
-0.0261695
0.000562639
-0.0267538
0.000584346
-0.0273585
0.000604684
-0.0279801
0.000621619
-0.028614
0.000633897
-0.0292553
0.000641267
-0.0298996
0.000644354
-0.0305439
0.000644288
-0.0311862
0.000642265
-0.0318254
0.000639255
-0.0324613
0.0006359
-0.0330939
0.000632525
-0.0337231
0.00062921
-0.034349
0.000625919
-0.0349716
0.000622605
-0.0355908
0.000619256
-0.0362067
0.000615869
-0.0368192
0.000612445
-0.0374282
0.000609
-0.0380337
0.000605547
-0.0386358
0.000602094
-0.0392344
0.000598646
-0.0398296
0.000595202
-0.0404214
0.000591758
-0.0410097
0.000588311
-0.0415946
0.000584853
-0.0421759
0.00058138
-0.0427538
0.000577884
-0.0433282
0.000574358
-0.043899
0.000570795
-0.0444662
0.000567189
-0.0450297
0.000563532
-0.0455895
0.000559815
-0.0461456
0.000556032
-0.0466977
0.000552174
-0.047246
0.000548233
-0.0477902
0.000544198
-0.0483302
0.000540064
-0.0488661
0.000535829
-0.0493975
0.000531491
-0.0499246
0.000527042
-0.0504471
0.000522476
-0.0509648
0.000517783
-0.0514778
0.000512958
-0.0519858
0.000508001
-0.0524887
0.000502908
-0.0529864
0.000497679
-0.0534787
0.00049231
-0.0539655
0.0004868
-0.0544467
0.00048115
-0.054922
0.000475357
-0.0553914
0.000469422
-0.0558548
0.000463345
-0.0563119
0.000457124
-0.0567627
0.000450757
-0.0572069
0.000444239
-0.0576445
0.000437566
-0.0580752
0.000430737
-0.0584989
0.000423751
-0.0589156
0.000416609
-0.0593249
0.000409316
-0.0597268
0.00040188
-0.0601211
0.000394316
-0.0605077
0.000386637
-0.0608866
0.00037886
-0.0612576
0.000370993
-0.0616206
0.000363045
-0.0619756
0.000355011
-0.0623225
0.000346878
-0.0626611
0.000338616
-0.0629913
0.000330186
-0.0633128
0.000321537
-0.0636254
0.000312607
-0.0639288
0.000303323
-0.0642224
0.000293592
-0.0645057
0.000283307
-0.064778
0.000272344
-0.0650386
0.000260569
-0.0652864
0.000247849
-0.0655206
0.000234127
-0.0657398
0.000219281
-0.0659427
0.000202843
-0.0661274
0.00018472
-0.0662915
0.000164116
-0.06643
0.000138496
-0.0665338
0.000103746
-0.06659
5.62194e-05
-0.066587
-2.9568e-06
-0.0665418
-4.52555e-05
-0.0664655
-7.6259e-05
-0.0663639
-0.000101591
-0.0662381
-0.000125774
-0.0660887
-0.000149426
-0.0659157
-0.000173031
-0.065719
-0.000196718
-0.0654985
-0.000220433
-0.0652544
-0.00024416
-0.0649865
-0.000267874
-0.0646949
-0.000291554
-0.0643798
-0.000315175
-0.0640411
-0.000338706
-0.0636789
-0.000362114
-0.0632936
-0.000385373
-0.0628851
-0.000408467
-0.0624537
-0.000431376
-0.0619997
-0.000454078
-0.0615231
-0.000476546
-0.0610244
-0.000498753
-0.0605037
-0.000520669
-0.0599614
-0.000542266
-0.0593979
-0.000563523
-0.0588135
-0.000584424
-0.0582085
-0.000604948
-0.0575835
-0.000625064
-0.0569387
-0.000644743
-0.0562748
-0.000663959
-0.0555921
-0.000682691
-0.0548911
-0.000700918
-0.0541725
-0.000718616
-0.0534368
-0.000735763
-0.0526844
-0.000752335
-0.0519161
-0.000768314
-0.0511324
-0.000783679
-0.050334
-0.000798409
-0.0495215
-0.000812485
-0.0486957
-0.000825888
-0.0478571
-0.000838598
-0.0470065
-0.000850599
-0.0461446
-0.000861876
-0.0452722
-0.000872413
-0.04439
-0.000882197
-0.0434988
-0.000891217
-0.0425993
-0.000899465
-0.0416924
-0.000906928
-0.0407788
-0.000913595
-0.0398593
-0.000919457
-0.0389348
-0.000924513
-0.038006
-0.000928762
-0.0370738
-0.000932191
-0.036139
-0.000934798
-0.0352025
-0.000936583
-0.0342649
-0.00093755
-0.0333272
-0.000937706
-0.0323902
-0.000937049
-0.0314546
-0.000935582
-0.0305213
-0.000933311
-0.029591
-0.000930244
-0.0286646
-0.00092639
-0.0277429
-0.000921759
-0.0268265
-0.000916372
-0.0259163
-0.000910244
-0.0250129
-0.000903381
-0.0241171
-0.000895822
-0.0232295
-0.000887548
-0.0223509
-0.000878563
-0.021482
-0.000868911
-0.0206234
-0.00085868
-0.0197756
-0.000847743
-0.0189393
-0.000836353
-0.0181149
-0.000824322
-0.0173032
-0.000811702
-0.0165046
-0.000798589
-0.0157197
-0.000784969
-0.0149489
-0.000770793
-0.0141925
-0.000756419
-0.013451
-0.000741468
-0.0127248
-0.000726208
-0.0120143
-0.000710523
-0.0113198
-0.00069446
-0.0106415
-0.000678262
-0.00997986
-0.000661681
-0.00933501
-0.000644848
-0.00870731
-0.000627709
-0.00809669
-0.000610616
-0.0075032
-0.000593489
-0.00692685
-0.000576352
-0.00636818
-0.000558667
-0.00582726
-0.00054092
-0.00530415
-0.000523114
-0.00479836
-0.000505787
-0.00431023
-0.000488124
-0.0038398
-0.000470436
-0.00338692
-0.000452884
-0.00295151
-0.000435404
-0.0025335
-0.00041801
-0.00213278
-0.000400718
-0.00174907
-0.000383714
-0.00138235
-0.000366713
-0.00103238
-0.000349973
-0.000698995
-0.000333386
-0.000382027
-0.000316967
-8.11471e-05
-0.00030088
0.000203812
-0.000284959
0.000473055
-0.000269243
0.000726856
-0.000253801
0.000965483
-0.000238627
0.00118921
-0.000223723
0.0013983
-0.000209093
0.00159304
-0.000194739
0.0017737
-0.000180667
0.00194059
-0.000166885
0.00209398
-0.000153393
0.00223419
-0.000140205
0.00236152
-0.000127331
0.00247631
-0.000114795
0.00257894
-0.000102624
0.00266979
-9.08484e-05
0.0027493
-7.95094e-05
0.00281794
-6.86421e-05
0.00287618
-5.82443e-05
0.00292448
-4.82996e-05
0.00296326
-3.87833e-05
0.00299295
-2.96815e-05
0.00301394
-2.09923e-05
0.00302666
-1.27258e-05
0.00303118
-4.51486e-06
0.00302833
2.84548e-06
0.00301826
1.00767e-05
0.00300121
1.70426e-05
0.0029776
2.36184e-05
0.00294779
2.98077e-05
0.00291216
3.5626e-05
0.00287108
4.10821e-05
0.0028249
4.61843e-05
0.00277397
5.0928e-05
0.00271865
5.532e-05
0.00265927
5.93777e-05
0.00259617
6.3105e-05
0.00252969
6.64762e-05
0.0024602
6.94938e-05
0.00238801
7.21891e-05
0.00231347
7.45396e-05
0.00223695
7.65144e-05
0.00215882
7.81279e-05
0.00207948
7.93446e-05
0.00199944
8.00369e-05
0.00191931
8.01298e-05
0.0018396
7.97166e-05
0.00176058
7.90145e-05
0.00168237
7.82157e-05
0.00160499
7.7381e-05
0.00152852
7.64671e-05
0.0014531
7.54152e-05
0.00137889
7.4216e-05
0.00130601
7.2878e-05
0.00123458
7.1429e-05
0.00116468
6.98962e-05
0.00109642
6.8267e-05
0.0010299
6.65127e-05
0.000965228
6.4676e-05
0.000902413
6.28148e-05
0.000841547
6.08667e-05
0.000782665
5.88814e-05
0.000725769
5.68967e-05
0.000671355
5.44135e-05
0.000616942
5.44126e-05
0.000569728
4.72147e-05
0.000516047
5.36807e-05
0.000476314
3.97326e-05
0.000423992
5.23226e-05
0.000392314
3.16774e-05
0.000338909
5.34054e-05
0.000317848
2.1061e-05
0.000247598
7.02501e-05
0.000245452
2.14571e-06
0.000141161
0.000104291
0.000171855
-3.06941e-05
0.000100259
7.15963e-05
0.000135169
-3.49107e-05
0.000276493
-0.000141323
8.83308e-05
0.000188162
8.83308e-05
1.00682e-05
-1.38092e-05
0.000585465
-0.00121877
0.00120761
-0.00128766
0.00170091
-0.00104654
0.00210921
-0.000865436
0.00247852
-0.000785061
0.00283773
-0.000766338
0.00319682
-0.000765248
0.00355572
-0.000763095
0.00391181
-0.000757282
0.00426383
-0.000749345
0.00461175
-0.000740999
0.00495611
-0.000733502
0.00529764
-0.00072735
0.00563711
-0.000722612
0.00597524
-0.000719266
0.00631273
-0.000717249
0.00665026
-0.000716483
0.00698846
-0.000716907
0.00732796
-0.000718455
0.00766932
-0.000721041
0.00801308
-0.000724556
0.0083597
-0.000728882
0.00870958
-0.000733895
0.00906306
-0.000739464
0.00942042
-0.000745459
0.00978187
-0.000751752
0.0101476
-0.00075822
0.0105177
-0.000764747
0.0108921
-0.000771221
0.011271
-0.00077754
0.0116542
-0.000783609
0.0120418
-0.000789339
0.0124334
-0.000794647
0.0128291
-0.00079946
0.0132286
-0.000803711
0.0136317
-0.000807345
0.0140382
-0.000810312
0.0144477
-0.000812574
0.0148602
-0.000814097
0.0152751
-0.000814856
0.0156924
-0.00081483
0.0161116
-0.000814004
0.0165324
-0.000812367
0.0169545
-0.000809916
0.0173777
-0.00080665
0.0178015
-0.000802575
0.0182257
-0.000797706
0.0186499
-0.000792064
0.0190737
-0.00078568
0.0194969
-0.000778589
0.0199192
-0.000770823
0.0203407
-0.000762407
0.0207612
-0.000753369
0.0211805
-0.000743755
0.0215976
-0.000733653
0.0220104
-0.000723179
0.0224156
-0.000712437
0.0228097
-0.000701451
0.0231895
-0.000690151
0.0235532
-0.000678409
0.0239008
-0.000666115
0.0242341
-0.000653224
0.0245556
-0.000639765
0.0248677
-0.000625801
0.0251724
-0.000611393
0.0254703
-0.000596586
0.0257618
-0.0005814
0.0260482
-0.000565809
0.0263356
-0.000549696
0.0266368
-0.000532822
0.0269691
-0.000514971
0.0273437
-0.000496304
0.0277541
-0.0004775
0.0281783
-0.000459268
0.0285945
-0.00044176
0.0289938
-0.000424534
0.0293771
-0.000407047
0.0297471
-0.000389171
0.0301047
-0.000371112
0.0304492
-0.000353073
0.0307794
-0.000335126
0.0310946
-0.000317273
0.0313945
-0.000299304
0.0316787
-0.000281384
0.0319468
-0.000263464
0.0321986
-0.000245503
0.0324337
-0.000227454
0.0326519
-0.000209278
0.032853
-0.00019094
0.0330366
-0.000172423
0.0332025
-0.000153634
0.0333506
-0.000134582
0.0334806
-0.000115297
0.0335924
-9.56213e-05
0.0336858
-7.55609e-05
0.0337605
-5.50124e-05
0.0338166
-3.43119e-05
0.0338541
-1.33393e-05
0.0338723
8.97765e-06
0.0338719
3.08342e-05
0.0338527
5.32463e-05
0.0338147
7.61919e-05
0.0337579
9.96108e-05
0.0336823
0.000123487
0.033588
0.000147799
0.0334751
0.000172525
0.0333438
0.000197641
0.0331942
0.000223121
0.0330264
0.000248932
0.0328407
0.000275036
0.0326373
0.000301393
0.0324164
0.000327957
0.0321783
0.000354684
0.0319233
0.000381527
0.0316517
0.000408437
0.0313639
0.000435367
0.0310602
0.000462267
0.0307409
0.00048909
0.0304065
0.000515791
0.0300574
0.000542325
0.0296939
0.000568649
0.0293166
0.000594723
0.0289258
0.00062051
0.0285221
0.000645972
0.0281058
0.000671077
0.0276776
0.000695795
0.0272378
0.000720094
0.0267869
0.000743948
0.0263256
0.000767332
0.0258542
0.000790219
0.0253732
0.000812588
0.0248833
0.000834416
0.0243849
0.000855681
0.0238786
0.000876363
0.0233649
0.000896439
0.0228443
0.000915889
0.0223174
0.00093469
0.0217848
0.000952814
0.0212469
0.000970233
0.0207042
0.000986909
0.0201573
0.0010028
0.0196065
0.00101787
0.0190521
0.00103206
0.0184943
0.00104534
0.0179335
0.00105767
0.0173697
0.00106902
0.0168031
0.0010794
0.0162339
0.0010888
0.0156621
0.00109725
0.0150879
0.00110478
0.0145114
0.0011114
0.0139328
0.00111716
0.0133522
0.00112209
0.0127698
0.00112622
0.0121858
0.00112959
0.0116004
0.00113223
0.0110137
0.00113418
0.010426
0.00113546
0.00983746
0.00113612
0.00924829
0.00113619
0.00865871
0.0011357
0.00806896
0.00113469
0.00747932
0.0011332
0.00689017
0.00113124
0.00630198
0.00112882
0.00571501
0.00112601
0.00512929
0.00112285
0.00454483
0.00111931
0.00396176
0.00111541
0.00338029
0.00111114
0.0028006
0.00110659
0.00222285
0.0011018
0.00164721
0.00109678
0.00107386
0.00109155
0.000503013
0.00108614
-6.5203e-05
0.00108061
-0.000630604
0.00107496
-0.001193
0.00106923
-0.00175235
0.00106352
-0.00230823
0.00105754
-0.00286057
0.00105171
-0.00340914
0.00104586
-0.0039537
0.00104002
-0.00449398
0.00103426
-0.00502969
0.00102857
-0.00556052
0.00102302
-0.00608603
0.00101761
-0.00660575
0.00101239
-0.00711964
0.00100731
-0.00762837
0.00100237
-0.00813304
0.00099753
-0.00863469
0.000992878
-0.00913397
0.000988477
-0.00963123
0.000984395
-0.0101266
0.00098061
-0.0106204
0.000977184
-0.0111128
0.0009741
-0.0116039
0.000971375
-0.0120941
0.000969036
-0.0125837
0.000967095
-0.0130726
0.000965397
-0.0135613
0.000964227
-0.0140499
0.00096342
-0.0145388
0.000963003
-0.0150281
0.000962975
-0.015518
0.000963325
-0.0160088
0.000964043
-0.0165007
0.000965128
-0.0169938
0.000966566
-0.0174883
0.000968326
-0.0179844
0.000970419
-0.0184823
0.00097285
-0.0189821
0.000975573
-0.019484
0.000978538
-0.019988
0.000981782
-0.0204944
0.000985356
-0.0210033
0.000989073
-0.0215149
0.000993062
-0.0220295
0.000997321
-0.0225473
0.00100192
-0.0230684
0.00100698
-0.0235926
0.00101273
-0.0241194
0.00101943
-0.0246474
0.00102744
-0.0251749
0.00103714
-0.0256998
0.00104871
-0.02622
0.00106195
-0.0267335
0.00107615
-0.0272392
0.0010901
-0.0277369
0.00110237
-0.0282271
0.0011118
-0.0287111
0.00111786
-0.0291906
0.00112081
-0.0296677
0.00112144
-0.0301441
0.00112073
-0.0306213
0.00111945
-0.0311001
0.00111804
-0.0315809
0.00111666
-0.0320636
0.00111524
-0.0325481
0.0011137
-0.0330341
0.00111195
-0.0335215
0.00110999
-0.0340101
0.00110784
-0.0344997
0.00110552
-0.0349903
0.00110306
-0.0354818
0.00110045
-0.035974
0.00109771
-0.0364667
0.0010948
-0.0369597
0.00109172
-0.037453
0.00108844
-0.0379462
0.00108495
-0.0384391
0.00108123
-0.0389315
0.00107725
-0.0394231
0.00107302
-0.0399137
0.00106849
-0.0404031
0.00106367
-0.0408908
0.00105853
-0.0413766
0.00105305
-0.0418603
0.00104722
-0.0423415
0.00104103
-0.04282
0.00103444
-0.0432952
0.00102746
-0.0437671
0.00102006
-0.0442351
0.00101223
-0.044699
0.00100396
-0.0451584
0.00099525
-0.045613
0.000986082
-0.0460624
0.000976442
-0.0465063
0.000966319
-0.0469442
0.000955707
-0.0473758
0.000944599
-0.0478008
0.000932993
-0.0482188
0.000920883
-0.0486294
0.000908267
-0.0490322
0.000895136
-0.0494269
0.000881487
-0.0498131
0.000867314
-0.0501903
0.000852613
-0.0505583
0.000837374
-0.0509165
0.000821591
-0.0512646
0.000805257
-0.0516023
0.000788373
-0.051929
0.000770933
-0.0522443
0.000752939
-0.052548
0.000734394
-0.0528395
0.000715313
-0.0531187
0.000695716
-0.053385
0.000675624
-0.0536381
0.000655051
-0.0538778
0.000633999
-0.0541036
0.000612457
-0.0543152
0.000590395
-0.0545119
0.000567764
-0.0546934
0.000544497
-0.0548589
0.000520511
-0.0550077
0.00049571
-0.0551391
0.000469995
-0.0552522
0.000443265
-0.0553461
0.000415415
-0.0554198
0.00038633
-0.0554724
0.000355891
-0.0555028
0.00032399
-0.05551
0.000290549
-0.0554932
0.000255555
-0.0554517
0.000219062
-0.055385
0.000181181
-0.0552931
0.00014218
-0.0551764
0.000102582
-0.055036
6.24462e-05
-0.0548733
2.20348e-05
-0.0546904
-1.8803e-05
-0.0544865
-6.54253e-05
-0.054273
-0.000109668
-0.0540673
-0.000149511
-0.0538864
-0.000183829
-0.0537173
-0.000214432
-0.0535452
-0.000248304
-0.0533615
-0.000285351
-0.0531632
-0.000324042
-0.0529489
-0.000363712
-0.052718
-0.000403962
-0.0524701
-0.000444581
-0.0522051
-0.000485492
-0.0519226
-0.000526636
-0.0516225
-0.000567959
-0.0513046
-0.000609416
-0.0509689
-0.000650955
-0.050615
-0.000692514
-0.0502431
-0.00073403
-0.049853
-0.000775456
-0.0494448
-0.000816749
-0.0490183
-0.000857861
-0.0485736
-0.000898733
-0.0481109
-0.000939314
-0.0476301
-0.000979554
-0.0471313
-0.0010194
-0.0466148
-0.00105878
-0.0460807
-0.00109767
-0.0455291
-0.00113601
-0.0449603
-0.00117374
-0.0443745
-0.00121082
-0.0437721
-0.00124718
-0.0431533
-0.00128278
-0.0425184
-0.00131756
-0.0418678
-0.00135149
-0.041202
-0.0013845
-0.0405212
-0.00141655
-0.0398259
-0.00144758
-0.0391167
-0.00147755
-0.038394
-0.00150641
-0.0376582
-0.00153413
-0.0369101
-0.00156066
-0.03615
-0.00158595
-0.0353786
-0.00160997
-0.0345965
-0.00163268
-0.0338044
-0.00165405
-0.0330028
-0.00167403
-0.0321923
-0.00169261
-0.0313738
-0.00170976
-0.0305478
-0.00172544
-0.0297151
-0.00173964
-0.0288764
-0.00175232
-0.0280324
-0.00176347
-0.0271838
-0.00177308
-0.0263314
-0.00178113
-0.025476
-0.00178762
-0.0246183
-0.00179253
-0.023759
-0.00179586
-0.0228989
-0.00179762
-0.0220388
-0.0017978
-0.0211795
-0.00179641
-0.0203216
-0.00179345
-0.019466
-0.00178893
-0.0186134
-0.00178286
-0.0177645
-0.00177528
-0.0169201
-0.00176619
-0.0160808
-0.00175562
-0.0152475
-0.0017436
-0.0144207
-0.00173015
-0.0136012
-0.00171531
-0.0127897
-0.00169906
-0.0119868
-0.00168151
-0.011193
-0.00166268
-0.010409
-0.00164264
-0.00963547
-0.00162131
-0.00887296
-0.00159886
-0.00812189
-0.00157539
-0.00738294
-0.00155066
-0.00665657
-0.00152496
-0.00594291
-0.00149864
-0.00524293
-0.00147077
-0.00455661
-0.00144274
-0.00388449
-0.00141359
-0.003227
-0.00138369
-0.00258446
-0.00135306
-0.00195686
-0.00132206
-0.00134481
-0.00129032
-0.000748423
-0.00125807
-0.00016781
-0.00122546
0.000396909
-0.00119243
0.000945213
-0.00115892
0.00147719
-0.00112546
0.00199264
-0.0010918
0.00249172
-0.00105775
0.00297436
-0.00102356
0.00344064
-0.000989391
0.00389024
-0.000955393
0.00432348
-0.000921358
0.00474039
-0.000887347
0.00514102
-0.000853514
0.00552549
-0.000819878
0.00589395
-0.00078647
0.00624657
-0.000753337
0.00658342
-0.000720558
0.00690479
-0.000688086
0.00721082
-0.000656003
0.00750175
-0.000624321
0.00777785
-0.000593066
0.00803927
-0.000562303
0.00828632
-0.000532002
0.00851926
-0.000502186
0.00873835
-0.00047289
0.00894385
-0.00044413
0.00913604
-0.000415915
0.0093152
-0.000388251
0.00948161
-0.000361144
0.00963554
-0.000334601
0.00977728
-0.000308626
0.00990712
-0.000283228
0.0100253
-0.000258416
0.0101322
-0.0002342
0.010228
-0.000210593
0.010313
-0.000187608
0.0103874
-0.000165258
0.0104515
-0.000143571
0.0105054
-0.000122568
0.0105494
-0.000102258
0.0105837
-8.26329e-05
0.0106086
-6.36952e-05
0.0106244
-4.54576e-05
0.0106314
-2.79526e-05
0.0106301
-1.144e-05
0.0106202
5.40885e-06
0.0106019
2.10789e-05
0.010576
3.59642e-05
0.0105427
5.03594e-05
0.0105021
6.42265e-05
0.0104544
7.75474e-05
0.0103997
9.03285e-05
0.0103382
0.000102582
0.01027
0.000114319
0.0101954
0.000125542
0.0101145
0.000136261
0.0100274
0.000146492
0.00993424
0.000156239
0.00983522
0.000165497
0.00973044
0.000174271
0.00962005
0.000182582
0.00950416
0.000190422
0.00938291
0.00019777
0.00925641
0.000204625
0.00912479
0.000210963
0.00898809
0.000216738
0.00884623
0.000221987
0.00869902
0.000226934
0.00854613
0.0002319
0.00838726
0.00023709
0.00822217
0.000242468
0.00805077
0.000247871
0.00787298
0.000253205
0.0076887
0.000258489
0.00749783
0.000263755
0.00730028
0.000268976
0.00709608
0.000274102
0.00688524
0.000279101
0.00666777
0.000283985
0.00644363
0.000288815
0.0062128
0.000293641
0.00597526
0.000298409
0.00573097
0.000303173
0.00548011
0.000307759
0.00522193
0.000312596
0.00495953
0.000316813
0.00468549
0.000321253
0.00441356
0.000325605
0.00412386
0.000329439
0.00384279
0.000333388
0.00353731
0.000337161
0.00324957
0.000341146
0.00292678
0.000343851
0.00264294
0.000354084
0.0023027
0.000342386
0.00203477
0.000372221
0.0016775
0.000326584
0.00137862
0.000370474
0.00100927
0.000334441
0.00054992
0.000318023
0.000296328
0.000441754
0.000384659
1.22022e-05
-2.60114e-05
0.000624532
-0.0018311
0.00127402
-0.00193714
0.00180492
-0.00157744
0.00224033
-0.00130084
0.00263458
-0.00117931
0.00301806
-0.00114982
0.00340078
-0.00114796
0.00378289
-0.00114521
0.00416227
-0.00113667
0.0045375
-0.00112458
0.00490831
-0.0011118
0.0052751
-0.0011003
0.00563859
-0.00109084
0.00599952
-0.00108354
0.0063586
-0.00107835
0.00671651
-0.00107516
0.0070739
-0.00107387
0.00743139
-0.0010744
0.00778956
-0.00107663
0.00814895
-0.00108043
0.00851004
-0.00108565
0.00887324
-0.00109209
0.00923891
-0.00109956
0.00960734
-0.00110789
0.00997874
-0.00111686
0.0103533
-0.00112629
0.0107311
-0.001136
0.0111121
-0.00114581
0.0114965
-0.00115555
0.011884
-0.00116507
0.0122746
-0.00117423
0.0126682
-0.00118289
0.0130645
-0.00119095
0.0134633
-0.00119828
0.0138644
-0.0012048
0.0142674
-0.00121042
0.0146722
-0.00121507
0.0150783
-0.00121869
0.0154854
-0.00122122
0.0158932
-0.00122263
0.0163013
-0.00122288
0.0167092
-0.00122194
0.0171166
-0.0012198
0.0175232
-0.00121644
0.0179284
-0.00121186
0.0183318
-0.00120605
0.0187332
-0.00119903
0.0191319
-0.00119082
0.0195277
-0.00118145
0.01992
-0.00117093
0.0203085
-0.00115934
0.0206929
-0.00114671
0.0210726
-0.00113314
0.0214476
-0.00111871
0.0218174
-0.00110351
0.0221819
-0.00108766
0.0225407
-0.00107121
0.0228934
-0.00105419
0.0232399
-0.00103657
0.0235798
-0.00101833
0.0239131
-0.000999462
0.0242399
-0.000979973
0.02456
-0.000959889
0.0248734
-0.00093921
0.0251799
-0.000917868
0.025479
-0.00089568
0.02577
-0.000872387
0.026052
-0.000847884
0.026325
-0.000822624
0.0265899
-0.000797787
0.0268496
-0.000774649
0.0271066
-0.000753281
0.0273612
-0.0007321
0.0276113
-0.000709377
0.0278546
-0.000685115
0.0280908
-0.000660732
0.0283211
-0.000637305
0.0285468
-0.000614857
0.0287685
-0.000592863
0.0289863
-0.00057086
0.0291998
-0.000548617
0.0294086
-0.000526033
0.0296123
-0.000503016
0.0298105
-0.000479556
0.0300026
-0.000455585
0.0301881
-0.000431007
0.0303664
-0.000405744
0.0305369
-0.000379755
0.0306988
-0.000352883
0.0308516
-0.000325182
0.0309945
-0.000296552
0.0311269
-0.000267041
0.0312482
-0.000236569
0.0313576
-0.000205037
0.0314543
-0.00017223
0.031538
-0.000138719
0.0316077
-0.000104063
0.0316628
-6.83632e-05
0.0317028
-3.10387e-05
0.0317277
5.90831e-06
0.0317365
4.44284e-05
0.0317289
8.3866e-05
0.0317044
0.000124076
0.0316629
0.000165006
0.0316041
0.000206594
0.0315278
0.000248763
0.031434
0.000291435
0.0313226
0.000334528
0.0311936
0.000377956
0.031047
0.000421631
0.030883
0.000465465
0.0307015
0.000509368
0.030503
0.00055325
0.0302875
0.000597024
0.0300553
0.000640606
0.0298068
0.000683917
0.0295421
0.000726883
0.0292618
0.000769431
0.0289661
0.000811494
0.0286554
0.00085301
0.0283301
0.000893917
0.0279907
0.00093416
0.0276375
0.00097369
0.027271
0.00101246
0.0268917
0.00105043
0.0264999
0.00108755
0.0260962
0.0011238
0.025681
0.00115915
0.0252548
0.00119356
0.024818
0.00122701
0.0243711
0.00125948
0.0239146
0.00129094
0.0234489
0.00132138
0.0229745
0.00135077
0.0224918
0.0013791
0.0220014
0.00140635
0.0215036
0.0014325
0.0209988
0.00145753
0.0204877
0.00148142
0.0199704
0.00150416
0.0194475
0.00152572
0.0189193
0.0015461
0.018386
0.00156529
0.0178481
0.00158328
0.0173057
0.00160008
0.016759
0.00161569
0.0162083
0.0016301
0.0156538
0.00164333
0.0150957
0.00165538
0.0145342
0.00166626
0.0139696
0.00167598
0.0134022
0.00168454
0.0128323
0.00169197
0.0122603
0.00169829
0.0116863
0.00170352
0.0111109
0.00170769
0.0105342
0.00171083
0.00995668
0.00171297
0.00937865
0.00171416
0.00880042
0.00171441
0.00822236
0.00171376
0.00764478
0.00171226
0.00706801
0.00170998
0.00649228
0.00170697
0.00591784
0.00170326
0.00534505
0.00169881
0.00477418
0.00169372
0.00420541
0.00168808
0.00363892
0.0016819
0.00307481
0.00167525
0.0025132
0.00166821
0.00195421
0.00166079
0.00139801
0.00165297
0.000844676
0.00164489
0.000294323
0.0016365
-0.000252978
0.00162791
-0.000797114
0.0016191
-0.001338
0.00161012
-0.00187549
0.00160101
-0.0024099
0.00159195
-0.0029409
0.0015827
-0.00346849
0.00157346
-0.00399273
0.00156426
-0.00451357
0.00155511
-0.00503109
0.00154608
-0.00554522
0.00153715
-0.00605595
0.00152833
-0.00656323
0.00151967
-0.00706711
0.0015112
-0.00756788
0.00150315
-0.00806592
0.00149557
-0.00856159
0.00148854
-0.00905509
0.00148198
-0.00954655
0.00147585
-0.0100361
0.00147018
-0.0105239
0.001465
-0.0110102
0.00146035
-0.0114951
0.00145625
-0.0119787
0.00145272
-0.0124614
0.00144976
-0.0129434
0.00144737
-0.0134248
0.00144561
-0.0139058
0.00144443
-0.0143866
0.00144386
-0.0148675
0.00144389
-0.0153487
0.0014445
-0.0158303
0.00144567
-0.0163126
0.00144739
-0.0167957
0.00144966
-0.0172798
0.00145244
-0.0177651
0.00145572
-0.0182517
0.00145947
-0.0187398
0.00146369
-0.0192296
0.00146834
-0.0197213
0.0014734
-0.0202147
0.00147876
-0.0207102
0.00148459
-0.0212079
0.00149079
-0.021708
0.0014974
-0.0222105
0.00150447
-0.0227156
0.00151203
-0.023223
0.00152015
-0.0237324
0.00152888
-0.0242433
0.0015383
-0.0247547
0.00154849
-0.0252654
0.00155945
-0.0257745
0.00157103
-0.0262812
0.00158284
-0.0267853
0.00159423
-0.0272873
0.00160443
-0.0277884
0.00161282
-0.0282896
0.0016191
-0.0287921
0.00162335
-0.0292967
0.00162599
-0.0298035
0.00162754
-0.0303125
0.00162844
-0.0308234
0.00162894
-0.0313359
0.00162914
-0.0318497
0.00162905
-0.0323646
0.00162864
-0.0328805
0.00162787
-0.0333973
0.00162675
-0.0339148
0.00162531
-0.0344328
0.00162357
-0.0349513
0.00162153
-0.03547
0.0016192
-0.0359889
0.00161656
-0.0365077
0.00161359
-0.0370262
0.00161028
-0.0375444
0.0016066
-0.038062
0.00160252
-0.0385788
0.00159803
-0.0390946
0.0015931
-0.0396093
0.00158771
-0.0401226
0.00158183
-0.0406344
0.00157543
-0.0411444
0.00156851
-0.0416524
0.00156102
-0.0421581
0.00155296
-0.0426613
0.00154428
-0.0431619
0.00153499
-0.0436595
0.00152504
-0.0441538
0.00151442
-0.0446447
0.00150312
-0.0451319
0.00149112
-0.045615
0.0014784
-0.0460939
0.00146495
-0.0465682
0.00145075
-0.0470377
0.00143578
-0.047502
0.00142003
-0.0479609
0.00140349
-0.048414
0.00138616
-0.0488612
0.00136801
-0.049302
0.00134906
-0.0497361
0.00132928
-0.0501633
0.00130866
-0.0505832
0.00128721
-0.0509955
0.00126491
-0.0513999
0.00124176
-0.051796
0.00121774
-0.0521836
0.00119285
-0.0525623
0.00116707
-0.0529318
0.00114042