/*--------------------------------*- C++ -*----------------------------------*\
| =========                 |                                                 |
| \\      /  F ield         | OpenFOAM: The Open Source CFD Toolbox           |
|  \\    /   O peration     | Version:  v2006                                 |
|   \\  /    A nd           | Website:  www.openfoam.com                      |
|    \\/     M anipulation  |                                                 |
\*---------------------------------------------------------------------------*/
FoamFile
{
    version     2.0;
    format      ascii;
    class       volScalarField;
    location    "3";
    object      p;
}
// * * * * * * * * * * * * * * * * * * * * * * * * * * * * * * * * * * * * * //

dimensions      [1 -1 -2 0 0 0 0];


internalField   nonuniform List<scalar> 
150000
(
13727.5
13729.9
13731.6
13735.8
13740.5
13746.6
13754
13762.6
13772.6
13783.8
13796.4
13810.2
13825.3
13841.6
13859.3
13878.1
13898.3
13919.7
13942.3
13966.1
13991.1
14017.2
14044.6
14073
14102.6
14133.3
14165
14197.7
14231.5
14266.2
14302
14338.6
14376.2
14414.6
14453.9
14494
14534.9
14576.5
14618.9
14662
14705.8
14750.2
14795.2
14840.8
14887
14933.7
14980.9
15028.6
15076.7
15125.2
15174
15223.2
15272.7
15322.5
15372.6
15422.8
15473.3
15523.9
15574.6
15625.4
15676.4
15727.3
15778.3
15829.3
15880.3
15931.2
15982
16032.7
16083.3
16133.8
16184.1
16234.2
16284.1
16333.7
16383.1
16432.3
16481.1
16529.6
16577.7
16625.5
16672.9
16719.9
16766.4
16812.6
16858.2
16903.3
16947.8
16991.8
17035.2
17078
17120.2
17161.7
17202.5
17242.5
17281.9
17320.4
17358.2
17395.1
17431.2
17466.4
17500.7
17534.1
17566.6
17598
17628.5
17658
17686.5
17713.9
17740.2
17765.5
17789.8
17812.9
17835
17855.9
17875.8
17894.6
17912.3
17928.9
17944.4
17958.9
17972.3
17984.7
17996.1
18006.5
18015.9
18024.3
18031.8
18038.4
18044.2
18049.1
18053.2
18056.5
18059.1
18061
18062.3
18062.9
18063
18062.5
18061.5
18060.1
18058.3
18056.1
18053.6
18050.8
18047.8
18044.6
18041.3
18037.9
18034.4
18030.9
18027.4
18024
18020.8
18017.6
18014.7
18011.9
18009.4
18007.3
18005.4
18003.9
18002.8
18002.1
18001.9
18002.1
18002.9
18004.2
18006
18008.4
18011.4
18015
18019.2
18024.1
18029.7
18035.9
18042.7
18050.3
18058.6
18067.6
18077.2
18087.6
18098.7
18110.5
18123.1
18136.3
18150.2
18164.9
18180.2
18196.3
18213
18230.4
18248.5
18267.2
18286.6
18306.6
18327.2
18348.5
18370.3
18392.8
18415.8
18439.4
18463.6
18488.3
18513.5
18539.3
18565.5
18592.3
18619.5
18647.2
18675.3
18703.8
18732.8
18762.2
18791.9
18822.1
18852.6
18883.5
18914.7
18946.2
18978.1
19010.2
19042.7
19075.4
19108.4
19141.6
19175.1
19208.9
19242.8
19277
19311.3
19345.9
19380.6
19415.6
19450.7
19485.9
19521.3
19556.8
19592.4
19628.2
19664
19700
19736
19772.2
19808.4
19844.7
19881
19917.4
19953.9
19990.4
20027
20063.6
20100.3
20136.9
20173.6
20210.3
20247.1
20283.8
20320.5
20357.3
20394
20430.8
20467.5
20504.2
20540.9
20577.6
20614.3
20651
20687.6
20724.2
20760.8
20797.4
20833.9
20870.4
20906.9
20943.4
20979.8
21016.2
21052.6
21089
21125.3
21161.6
21197.8
21234.1
21270.3
21306.5
21342.7
21378.9
21415
21451.1
21487.3
21523.4
21559.5
21595.6
21631.7
21667.8
21703.9
21740
21776.1
21812.2
21848.4
21884.5
21920.7
21956.9
21993.2
22029.4
22065.7
22102.1
22138.4
22174.9
22211.3
22247.8
22284.4
22321
22357.7
22394.4
22431.2
22467.9
22504.9
22541.9
22579.1
22616.3
22653.6
22691
22728.5
22766
22803.6
22841.3
22879.1
22916.9
22954.8
22992.7
23030.7
23068.8
23106.9
23145
23183.2
23221.4
23259.6
23297.9
23336.2
23374.4
23412.7
23450.9
23489.1
23527.3
23565.4
23603.5
23641.5
23679.5
23717.3
23755.1
23792.7
23830.2
23867.6
23904.9
23942
23978.9
24015.7
24052.3
24088.7
24124.9
24161
24196.8
24232.4
24267.7
24302.9
24337.8
24372.4
24406.9
24441
24475
24508.7
24542.1
24575.3
24608.2
24640.9
24673.3
24705.5
24737.4
24769.2
24800.6
24831.9
24862.9
24893.7
24924.2
24954.6
24984.8
25014.8
25044.5
25074.2
25103.6
25132.8
25161.9
25190.9
25219.7
25248.4
25276.9
25305.3
25333.6
25361.7
25389.8
25417.7
25445.6
25473.3
25500.9
25528.5
25556
25583.3
25610.6
25637.8
25664.9
25691.9
25718.9
25745.7
25772.4
25799.1
25825.6
25852
25878.3
25904.5
25930.6
25956.6
25982.4
26008.1
26033.6
26059
26084.2
26109.2
26134.1
26158.8
26183.3
26207.6
26231.7
26255.6
26279.2
26302.7
26325.9
26348.8
26371.5
26393.9
26416.1
26438
26459.6
26481
26502
26522.7
26543.2
26563.3
26583.1
26602.6
26621.7
26640.6
26659
26677.2
26695
26712.5
26729.6
26746.3
26762.7
26778.7
26794.4
26809.7
26824.6
26839.2
26853.4
26867.2
26880.6
26893.7
26906.4
26918.7
26930.7
26942.2
26953.4
26964.2
26974.6
26984.6
26994.3
27003.5
27012.4
27020.9
27029
27036.7
27044
27051
27057.6
27063.7
27069.5
27074.9
27080
27084.6
27088.9
27092.6
27096.3
27099.1
27102.3
27104
27106.6
27107.4
27109.3
27109.6
27110.2
13399.3
13401.9
13403.7
13407.8
13412.5
13418.6
13426
13434.7
13444.6
13455.9
13468.4
13482.2
13497.3
13513.7
13531.3
13550.2
13570.4
13591.8
13614.4
13638.2
13663.2
13689.4
13716.7
13745.2
13774.8
13805.5
13837.2
13870
13903.8
13938.5
13974.3
14010.9
14048.5
14086.9
14126.2
14166.4
14207.3
14249
14291.4
14334.5
14378.3
14422.7
14467.8
14513.4
14559.6
14606.3
14653.6
14701.2
14749.4
14797.9
14846.8
14896
14945.5
14995.3
15045.4
15095.7
15146.1
15196.8
15247.5
15298.4
15349.3
15400.3
15451.3
15502.3
15553.3
15604.2
15655
15705.8
15756.4
15806.9
15857.2
15907.3
15957.2
16006.9
16056.3
16105.4
16154.3
16202.8
16250.9
16298.7
16346.2
16393.1
16439.7
16485.8
16531.4
16576.5
16621.1
16665.1
16708.6
16751.4
16793.6
16835.1
16875.9
16916
16955.4
16993.9
17031.7
17068.7
17104.8
17140
17174.3
17207.8
17240.2
17271.7
17302.2
17331.7
17360.2
17387.6
17414
17439.3
17463.5
17486.6
17508.7
17529.7
17549.6
17568.3
17586
17602.6
17618.2
17632.6
17646
17658.4
17669.8
17680.1
17689.5
17697.9
17705.4
17712
17717.7
17722.6
17726.7
17730
17732.6
17734.4
17735.7
17736.3
17736.3
17735.8
17734.8
17733.3
17731.5
17729.3
17726.8
17723.9
17720.9
17717.7
17714.3
17710.9
17707.4
17703.9
17700.4
17696.9
17693.6
17690.4
17687.5
17684.7
17682.2
17680
17678.1
17676.6
17675.5
17674.8
17674.5
17674.7
17675.5
17676.7
17678.5
17680.9
17683.9
17687.5
17691.7
17696.6
17702.1
17708.3
17715.2
17722.8
17731
17740
17749.7
17760.1
17771.2
17783
17795.5
17808.8
17822.7
17837.4
17852.7
17868.7
17885.5
17902.9
17920.9
17939.7
17959.1
17979.1
17999.7
18021
18042.9
18065.4
18088.4
18112
18136.2
18160.9
18186.1
18211.9
18238.2
18264.9
18292.1
18319.8
18347.9
18376.5
18405.5
18434.9
18464.6
18494.8
18525.3
18556.2
18587.4
18619
18650.8
18683
18715.5
18748.2
18781.2
18814.5
18848
18881.7
18915.7
18949.9
18984.3
19018.8
19053.6
19088.5
19123.6
19158.8
19194.2
19229.7
19265.3
19301
19336.9
19372.8
19408.9
19445
19481.3
19517.6
19553.9
19590.3
19626.8
19663.4
19699.9
19736.5
19773.2
19809.9
19846.5
19883.3
19920
19956.7
19993.5
20030.2
20067
20103.7
20140.4
20177.2
20213.9
20250.6
20287.2
20323.9
20360.5
20397.2
20433.8
20470.3
20506.9
20543.4
20579.9
20616.3
20652.8
20689.2
20725.5
20761.9
20798.2
20834.5
20870.8
20907
20943.2
20979.4
21015.6
21051.8
21087.9
21124
21160.2
21196.3
21232.4
21268.5
21304.6
21340.7
21376.8
21412.9
21449
21485.1
21521.2
21557.4
21593.6
21629.8
21666
21702.2
21738.5
21774.8
21811.2
21847.6
21884
21920.5
21957
21993.6
22030.2
22066.8
22103.6
22140.7
22177.8
22215
22252.1
22289.4
22326.7
22364.1
22401.5
22439.1
22476.7
22514.3
22552.1
22589.9
22627.8
22665.7
22703.7
22741.8
22779.9
22818
22856.2
22894.4
22932.6
22970.9
23009.2
23047.4
23085.7
23123.9
23162.1
23200.3
23238.4
23276.5
23314.5
23352.4
23390.3
23428
23465.6
23503.2
23540.6
23577.8
23614.9
23651.9
23688.6
23725.2
23761.6
23797.9
23833.9
23869.7
23905.3
23940.6
23975.8
24010.7
24045.3
24079.8
24113.9
24147.9
24181.5
24215
24248.2
24281.1
24313.8
24346.2
24378.4
24410.3
24442
24473.5
24504.7
24535.7
24566.5
24597.1
24627.5
24657.7
24687.6
24717.4
24747
24776.4
24805.7
24834.8
24863.8
24892.6
24921.2
24949.8
24978.2
25006.4
25034.6
25062.7
25090.6
25118.5
25146.2
25173.9
25201.4
25228.9
25256.3
25283.6
25310.8
25337.9
25364.9
25391.8
25418.7
25445.4
25472
25498.6
25525
25551.3
25577.5
25603.6
25629.6
25655.4
25681.1
25706.6
25732
25757.3
25782.3
25807.2
25831.9
25856.4
25880.7
25904.8
25928.7
25952.4
25975.8
25999
26022
26044.7
26067.1
26089.3
26111.2
26132.8
26154.1
26175.2
26196
26216.4
26236.5
26256.3
26275.8
26295
26313.8
26332.3
26350.4
26368.2
26385.7
26402.8
26419.6
26435.9
26452
26467.6
26483
26497.9
26512.5
26526.6
26540.5
26553.9
26567
26579.7
26592
26603.9
26615.5
26626.7
26637.4
26647.9
26657.9
26667.5
26676.8
26685.7
26694.1
26702.3
26710
26717.3
26724.3
26730.8
26737
26742.8
26748.2
26753.3
26757.9
26762.2
26766
26769.5
26772.5
26775.4
26777.4
26779.8
26780.8
26782.5
26782.8
26783.5
13070.7
13073
13074.8
13079
13083.7
13089.7
13097.1
13105.8
13115.8
13127
13139.6
13153.4
13168.5
13184.8
13202.5
13221.4
13241.6
13263
13285.6
13309.5
13334.5
13360.7
13388.1
13416.6
13446.2
13476.9
13508.7
13541.5
13575.3
13610.1
13645.9
13682.6
13720.2
13758.7
13798
13838.2
13879.1
13920.8
13963.3
14006.4
14050.3
14094.8
14139.9
14185.5
14231.8
14278.5
14325.8
14373.5
14421.7
14470.3
14519.2
14568.5
14618
14667.9
14718
14768.3
14818.8
14869.5
14920.3
14971.2
15022.2
15073.2
15124.2
15175.3
15226.3
15277.2
15328.1
15378.9
15429.6
15480.1
15530.4
15580.6
15630.5
15680.2
15729.7
15778.9
15827.7
15876.3
15924.5
15972.3
16019.7
16066.8
16113.4
16159.5
16205.1
16250.3
16294.9
16339
16382.4
16425.3
16467.5
16509.1
16549.9
16590.1
16629.4
16668.1
16705.9
16742.9
16779
16814.2
16848.6
16882
16914.5
16946
16976.6
17006.1
17034.5
17062
17088.4
17113.7
17137.9
17161.1
17183.1
17204.1
17224
17242.8
17260.4
17277
17292.5
17307
17320.4
17332.7
17344
17354.4
17363.7
17372.1
17379.5
17386.1
17391.7
17396.6
17400.6
17403.9
17406.4
17408.2
17409.4
17409.9
17409.9
17409.3
17408.2
17406.7
17404.8
17402.5
17399.9
17397.1
17394
17390.7
17387.3
17383.8
17380.2
17376.6
17373.1
17369.6
17366.2
17363
17359.9
17357.1
17354.6
17352.3
17350.4
17348.8
17347.7
17346.9
17346.6
17346.8
17347.5
17348.8
17350.5
17352.9
17355.9
17359.4
17363.6
17368.5
17374
17380.2
17387.1
17394.6
17402.9
17411.8
17421.5
17431.9
17443
17454.8
17467.4
17480.6
17494.6
17509.2
17524.6
17540.6
17557.4
17574.8
17592.9
17611.6
17631
17651.1
17671.7
17693
17714.9
17737.4
17760.5
17784.1
17808.3
17833
17858.3
17884.1
17910.3
17937.1
17964.3
17992
18020.2
18048.8
18077.8
18107.2
18137
18167.1
18197.7
18228.6
18259.8
18291.4
18323.2
18355.4
18387.9
18420.7
18453.7
18486.9
18520.5
18554.2
18588.2
18622.4
18656.7
18691.3
18726.1
18761
18796.1
18831.3
18866.7
18902.2
18937.9
18973.6
19009.5
19045.5
19081.5
19117.7
19153.9
19190.2
19226.6
19263
19299.5
19336.1
19372.7
19409.3
19445.9
19482.6
19519.3
19556
19592.8
19629.5
19666.3
19703
19739.8
19776.5
19813.3
19850
19886.7
19923.4
19960.1
19996.8
20033.4
20070.1
20106.7
20143.2
20179.8
20216.3
20252.8
20289.3
20325.7
20362.1
20398.5
20434.8
20471.2
20507.5
20543.7
20580
20616.2
20652.4
20688.6
20724.8
20760.9
20797.1
20833.2
20869.3
20905.4
20941.5
20977.6
21013.7
21049.8
21085.9
21122
21158.1
21194.3
21230.4
21266.6
21302.8
21339.1
21375.3
21411.6
21448
21484.4
21520.8
21557.3
21593.8
21630.5
21667
21703.6
21740.3
21777.1
21813.9
21850.9
21888
21925.1
21962.3
21999.6
22037
22074.5
22112
22149.6
22187.3
22225
22262.8
22300.7
22338.6
22376.6
22414.7
22452.8
22490.9
22529.1
22567.3
22605.5
22643.8
22682
22720.3
22758.5
22796.8
22835
22873.2
22911.3
22949.4
22987.4
23025.3
23063.1
23100.9
23138.5
23176
23213.4
23250.7
23287.8
23324.7
23361.5
23398.1
23434.5
23470.7
23506.7
23542.5
23578.1
23613.5
23648.6
23683.5
23718.2
23752.6
23786.8
23820.7
23854.4
23887.8
23921
23953.9
23986.6
24019
24051.2
24083.1
24114.9
24146.3
24177.6
24208.6
24239.4
24269.9
24300.3
24330.5
24360.5
24390.2
24419.8
24449.3
24478.5
24507.6
24536.6
24565.4
24594.1
24622.6
24651
24679.3
24707.5
24735.5
24763.5
24791.3
24819.1
24846.8
24874.3
24901.8
24929.2
24956.5
24983.7
25010.8
25037.8
25064.8
25091.6
25118.4
25145
25171.6
25198
25224.4
25250.6
25276.7
25302.7
25328.5
25354.2
25379.8
25405.2
25430.4
25455.5
25480.4
25505.1
25529.6
25553.9
25578.1
25602
25625.7
25649.1
25672.3
25695.3
25718
25740.5
25762.6
25784.6
25806.2
25827.5
25848.5
25869.3
25889.8
25909.9
25929.7
25949.2
25968.4
25987.2
26005.7
26023.9
26041.7
26059.2
26076.3
26093
26109.4
26125.5
26141.1
26156.4
26171.4
26186
26200.2
26214
26227.4
26240.5
26253.2
26265.5
26277.4
26289
26300.2
26311
26321.4
26331.4
26341
26350.3
26359.2
26367.7
26375.8
26383.5
26390.8
26397.8
26404.3
26410.5
26416.3
26421.7
26426.8
26431.4
26435.7
26439.5
26443
26446
26448.9
26451
26453.3
26454.4
26456
26456.3
26457
12740.9
12743.3
12745.1
12749.2
12753.9
12759.9
12767.3
12776
12786
12797.2
12809.8
12823.6
12838.7
12855.1
12872.7
12891.7
12911.9
12933.3
12956
12979.9
13004.9
13031.2
13058.6
13087.2
13116.8
13147.6
13179.4
13212.2
13246.1
13281
13316.8
13353.5
13391.2
13429.8
13469.1
13509.4
13550.4
13592.1
13634.7
13677.9
13721.8
13766.3
13811.5
13857.2
13903.5
13950.4
13997.7
14045.5
14093.7
14142.3
14191.3
14240.7
14290.3
14340.2
14390.4
14440.8
14491.4
14542.1
14593
14643.9
14694.9
14746
14797.1
14848.2
14899.3
14950.3
15001.2
15052.1
15102.8
15153.3
15203.7
15253.9
15303.9
15353.7
15403.1
15452.4
15501.3
15549.9
15598.1
15646
15693.5
15740.6
15787.2
15833.4
15879.1
15924.3
15969
16013.1
16056.7
16099.6
16141.9
16183.5
16224.4
16264.6
16304.1
16342.7
16380.6
16417.7
16453.9
16489.2
16523.6
16557.1
16589.6
16621.1
16651.7
16681.2
16709.7
16737.2
16763.6
16789
16813.2
16836.4
16858.4
16879.4
16899.2
16918
16935.7
16952.2
16967.7
16982.1
16995.5
17007.8
17019.1
17029.3
17038.6
17046.9
17054.3
17060.8
17066.4
17071.1
17075.1
17078.2
17080.7
17082.4
17083.5
17083.9
17083.8
17083.1
17081.9
17080.3
17078.3
17075.9
17073.3
17070.3
17067.1
17063.7
17060.2
17056.6
17052.9
17049.3
17045.6
17042
17038.6
17035.3
17032.2
17029.3
17026.6
17024.3
17022.3
17020.7
17019.5
17018.7
17018.3
17018.5
17019.1
17020.3
17022.1
17024.4
17027.3
17030.8
17035
17039.8
17045.3
17051.5
17058.3
17065.9
17074.1
17083.1
17092.8
17103.2
17114.3
17126.1
17138.6
17151.9
17165.8
17180.5
17195.9
17212
17228.7
17246.2
17264.3
17283
17302.5
17322.5
17343.2
17364.5
17386.4
17409
17432.1
17455.7
17479.9
17504.7
17530
17555.8
17582.1
17608.9
17636.2
17663.9
17692.1
17720.7
17749.7
17779.1
17808.9
17839.1
17869.7
17900.6
17931.9
17963.5
17995.4
18027.6
18060.1
18092.9
18125.9
18159.2
18192.7
18226.5
18260.5
18294.7
18329.1
18363.7
18398.5
18433.4
18468.5
18503.8
18539.2
18574.7
18610.4
18646.1
18682
18718
18754.1
18790.3
18826.5
18862.8
18899.2
18935.7
18972.2
19008.7
19045.3
19081.9
19118.6
19155.3
19192
19228.7
19265.5
19302.3
19339
19375.8
19412.5
19449.3
19486
19522.8
19559.5
19596.2
19632.9
19669.6
19706.2
19742.9
19779.5
19816.1
19852.6
19889.1
19925.6
19962.1
19998.5
20035
20071.3
20107.7
20144
20180.3
20216.6
20252.9
20289.1
20325.3
20361.5
20397.6
20433.8
20469.9
20506.1
20542.2
20578.3
20614.4
20650.5
20686.6
20722.7
20758.8
20794.9
20831
20867.1
20903.3
20939.5
20975.7
21011.9
21048.1
21084.4
21120.7
21157.1
21193.5
21229.9
21266.4
21302.8
21339.5
21376.2
21412.9
21449.8
21486.7
21523.7
21560.8
21597.9
21635.2
21672.5
21709.8
21747.3
21784.8
21822.4
21860.1
21897.8
21935.6
21973.5
22011.4
22049.4
22087.4
22125.5
22163.6
22201.8
22240
22278.3
22316.5
22354.8
22393
22431.3
22469.5
22507.7
22545.9
22584
22622.1
22660.1
22698
22735.8
22773.6
22811.2
22848.7
22886.1
22923.4
22960.5
22997.4
23034.2
23070.8
23107.2
23143.5
23179.5
23215.3
23250.9
23286.2
23321.4
23356.3
23390.9
23425.4
23459.5
23493.5
23527.1
23560.6
23593.8
23626.7
23659.4
23691.8
23724
23755.9
23787.6
23819.1
23850.3
23881.3
23912.1
23942.7
23973.1
24003.3
24033.2
24063
24092.6
24122.1
24151.3
24180.4
24209.4
24238.2
24266.9
24295.4
24323.8
24352.1
24380.3
24408.4
24436.3
24464.2
24492
24519.6
24547.2
24574.7
24602.1
24629.4
24656.7
24683.8
24710.8
24737.8
24764.7
24791.4
24818.1
24844.7
24871.2
24897.5
24923.8
24949.9
24975.9
25001.7
25027.5
25053
25078.5
25103.7
25128.8
25153.7
25178.5
25203
25227.3
25251.5
25275.4
25299.1
25322.6
25345.8
25368.8
25391.5
25414
25436.2
25458.1
25479.8
25501.1
25522.2
25543
25563.4
25583.6
25603.4
25622.9
25642.1
25660.9
25679.4
25697.6
25715.4
25732.9
25750
25766.8
25783.2
25799.2
25814.9
25830.2
25845.1
25859.7
25873.9
25887.7
25901.2
25914.3
25927
25939.3
25951.2
25962.8
25973.9
25984.7
25995.1
26005.2
26014.8
26024.1
26032.9
26041.4
26049.5
26057.3
26064.6
26071.5
26078.1
26084.3
26090.1
26095.5
26100.5
26105.1
26109.4
26113.3
26116.8
26119.8
26122.6
26124.7
26127
26128.1
26129.8
26130.1
26130.8
12410.2
12412.6
12414.4
12418.4
12423.1
12429.2
12436.6
12445.3
12455.2
12466.5
12479
12492.8
12508
12524.4
12542.1
12561
12581.3
12602.7
12625.5
12649.4
12674.5
12700.8
12728.3
12756.9
12786.6
12817.4
12849.3
12882.3
12916.2
12951.1
12987
13023.8
13061.6
13100.2
13139.7
13180
13221
13262.9
13305.5
13348.8
13392.8
13437.4
13482.6
13528.5
13574.9
13621.8
13669.2
13717.1
13765.4
13814.1
13863.2
13912.6
13962.4
14012.4
14062.6
14113.1
14163.8
14214.6
14265.5
14316.6
14367.7
14418.8
14470
14521.2
14572.3
14623.4
14674.4
14725.3
14776.1
14826.7
14877.2
14927.4
14977.5
15027.3
15076.9
15126.2
15175.1
15223.8
15272.1
15320.1
15367.6
15414.8
15461.5
15507.8
15553.5
15598.8
15643.6
15687.8
15731.4
15774.4
15816.7
15858.4
15899.4
15939.7
15979.2
16018
16055.9
16093
16129.3
16164.7
16199.2
16232.7
16265.3
16296.9
16327.5
16357.1
16385.6
16413.1
16439.6
16464.9
16489.2
16512.4
16534.4
16555.4
16575.2
16594
16611.6
16628.2
16643.6
16658
16671.3
16683.5
16694.7
16704.9
16714.1
16722.3
16729.6
16736
16741.5
16746.2
16750
16753
16755.4
16757
16757.9
16758.2
16758
16757.2
16755.9
16754.2
16752
16749.5
16746.7
16743.6
16740.3
16736.8
16733.1
16729.4
16725.6
16721.8
16718
16714.4
16710.8
16707.4
16704.1
16701.1
16698.4
16696
16693.9
16692.2
16690.9
16690
16689.6
16689.7
16690.2
16691.4
16693
16695.3
16698.2
16701.7
16705.8
16710.6
16716.1
16722.2
16729
16736.6
16744.8
16753.8
16763.4
16773.8
16784.9
16796.7
16809.3
16822.6
16836.5
16851.2
16866.6
16882.7
16899.5
16917
16935.1
16953.9
16973.4
16993.5
17014.2
17035.5
17057.5
17080.1
17103.2
17126.9
17151.1
17175.9
17201.3
17227.1
17253.4
17280.3
17307.6
17335.3
17363.6
17392.2
17421.3
17450.7
17480.6
17510.8
17541.4
17572.4
17603.7
17635.3
17667.2
17699.5
17732
17764.8
17797.9
17831.2
17864.8
17898.6
17932.6
17966.8
18001.2
18035.8
18070.6
18105.6
18140.7
18176
18211.4
18247
18282.7
18318.5
18354.4
18390.4
18426.5
18462.7
18498.9
18535.3
18571.7
18608.1
18644.7
18681.2
18717.8
18754.5
18791.2
18827.9
18864.6
18901.4
18938.1
18974.9
19011.7
19048.4
19085.2
19122
19158.7
19195.5
19232.2
19269
19305.7
19342.3
19379
19415.6
19452.3
19488.8
19525.4
19561.9
19598.4
19634.9
19671.4
19707.8
19744.2
19780.5
19816.9
19853.2
19889.5
19925.7
19962
19998.2
20034.4
20070.5
20106.7
20142.8
20178.9
20215.1
20251.2
20287.3
20323.4
20359.5
20395.6
20431.7
20467.8
20503.9
20540
20576.2
20612.4
20648.6
20684.8
20721
20757.3
20793.7
20830
20866.4
20902.9
20939.4
20976
21012.6
21049.2
21085.9
21122.7
21159.6
21196.6
21233.6
21270.7
21308
21345.2
21382.6
21420
21457.5
21495.1
21532.8
21570.5
21608.3
21646.1
21684.1
21722
21760.1
21798.2
21836.3
21874.5
21912.7
21950.9
21989.1
22027.4
22065.6
22103.9
22142.1
22180.3
22218.5
22256.6
22294.7
22332.7
22370.6
22408.4
22446.2
22483.8
22521.4
22558.7
22596
22633.1
22670.1
22706.8
22743.4
22779.9
22816.1
22852.1
22887.9
22923.5
22958.9
22994
23028.9
23063.6
23098
23132.2
23166.1
23199.8
23233.3
23266.4
23299.4
23332
23364.5
23396.7
23428.6
23460.3
23491.8
23523
23554
23584.8
23615.4
23645.8
23676
23705.9
23735.7
23765.4
23794.8
23824.1
23853.2
23882.1
23911
23939.6
23968.2
23996.6
24024.9
24053.1
24081.2
24109.2
24137.1
24164.8
24192.5
24220.1
24247.6
24275
24302.4
24329.6
24356.8
24383.9
24410.8
24437.7
24464.5
24491.2
24517.8
24544.3
24570.7
24597
24623.1
24649.1
24675
24700.8
24726.4
24751.8
24777.1
24802.2
24827.2
24852
24876.5
24900.9
24925.1
24949
24972.7
24996.2
25019.5
25042.5
25065.2
25087.7
25110
25131.9
25153.6
25175
25196
25216.8
25237.3
25257.4
25277.3
25296.8
25316
25334.8
25353.4
25371.5
25389.4
25406.9
25424
25440.8
25457.2
25473.2
25488.9
25504.2
25519.2
25533.7
25547.9
25561.8
25575.2
25588.3
25601
25613.3
25625.3
25636.8
25648
25658.8
25669.2
25679.2
25688.9
25698.1
25707
25715.5
25723.6
25731.3
25738.6
25745.6
25752.1
25758.3
25764.1
25769.5
25774.5
25779.1
25783.4
25787.2
25790.8
25793.8
25796.6
25798.7
25801
25802.1
25803.8
25804
25804.7
12078.7
12080.9
12082.7
12086.8
12091.5
12097.5
12104.9
12113.6
12123.5
12134.8
12147.3
12161.2
12176.3
12192.8
12210.5
12229.5
12249.8
12271.3
12294
12318
12343.2
12369.6
12397.1
12425.8
12455.6
12486.5
12518.5
12551.5
12585.5
12620.6
12656.5
12693.5
12731.3
12770
12809.6
12850
12891.1
12933.1
12975.8
13019.2
13063.3
13108
13153.4
13199.3
13245.8
13292.8
13340.3
13388.3
13436.8
13485.6
13534.8
13584.3
13634.2
13684.3
13734.6
13785.2
13836
13886.9
13938
13989.1
14040.3
14091.6
14142.9
14194.1
14245.3
14296.5
14347.6
14398.6
14449.5
14500.2
14550.7
14601
14651.2
14701.1
14750.7
14800.1
14849.1
14897.9
14946.3
14994.3
15042
15089.2
15136
15182.4
15228.2
15273.6
15318.5
15362.8
15406.5
15449.6
15492
15533.8
15574.9
15615.3
15654.9
15693.8
15731.8
15769
15805.4
15840.8
15875.4
15909
15941.7
15973.4
16004
16033.7
16062.3
16089.8
16116.3
16141.7
16166
16189.1
16211.2
16232.2
16252
16270.7
16288.3
16304.8
16320.2
16334.5
16347.8
16359.9
16371
16381.2
16390.3
16398.4
16405.6
16411.8
16417.2
16421.7
16425.4
16428.3
16430.5
16431.9
16432.7
16432.9
16432.5
16431.5
16430.1
16428.2
16425.9
16423.2
16420.2
16416.9
16413.5
16409.8
16406
16402.1
16398.2
16394.2
16390.3
16386.5
16382.8
16379.2
16375.9
16372.7
16369.9
16367.3
16365.1
16363.3
16361.9
16360.9
16360.4
16360.4
16360.9
16361.9
16363.5
16365.7
16368.6
16372
16376.1
16380.8
16386.3
16392.4
16399.2
16406.7
16414.9
16423.8
16433.5
16443.9
16455
16466.8
16479.4
16492.7
16506.7
16521.4
16536.8
16552.9
16569.8
16587.3
16605.4
16624.3
16643.8
16663.9
16684.7
16706.1
16728.1
16750.7
16773.8
16797.6
16821.9
16846.7
16872.1
16898
16924.4
16951.3
16978.6
17006.4
17034.7
17063.4
17092.5
17122
17151.9
17182.2
17212.8
17243.8
17275.2
17306.8
17338.8
17371.1
17403.6
17436.5
17469.6
17502.9
17536.5
17570.4
17604.4
17638.7
17673.1
17707.8
17742.6
17777.6
17812.8
17848.1
17883.5
17919.1
17954.8
17990.6
18026.6
18062.6
18098.7
18134.9
18171.2
18207.6
18244
18280.5
18317
18353.6
18390.3
18426.9
18463.6
18500.3
18537.1
18573.9
18610.6
18647.4
18684.2
18721
18757.8
18794.6
18831.4
18868.1
18904.9
18941.6
18978.3
19015
19051.7
19088.3
19125
19161.6
19198.1
19234.7
19271.2
19307.7
19344.1
19380.6
19417
19453.3
19489.7
19526
19562.3
19598.6
19634.8
19671
19707.2
19743.4
19779.5
19815.7
19851.8
19887.9
19924
19960.1
19996.2
20032.3
20068.4
20104.5
20140.6
20176.7
20212.9
20249
20285.2
20321.4
20357.6
20393.8
20430.1
20466.4
20502.8
20539.2
20575.6
20612.1
20648.6
20685.2
20721.9
20758.7
20795.5
20832.4
20869.3
20906.4
20943.5
20980.7
21017.9
21055.3
21092.7
21130.2
21167.8
21205.4
21243.1
21280.9
21318.8
21356.7
21394.6
21432.7
21470.7
21508.9
21547
21585.2
21623.4
21661.7
21699.9
21738.2
21776.4
21814.6
21852.8
21891
21929.1
21967.2
22005.2
22043.1
22081
22118.7
22156.4
22193.9
22231.3
22268.5
22305.7
22342.6
22379.4
22416
22452.4
22488.6
22524.7
22560.5
22596.1
22631.5
22666.6
22701.5
22736.2
22770.6
22804.8
22838.7
22872.4
22905.9
22939
22972
23004.7
23037.1
23069.3
23101.2
23132.9
23164.4
23195.6
23226.7
23257.5
23288.1
23318.4
23348.6
23378.6
23408.4
23438
23467.4
23496.7
23525.9
23554.8
23583.7
23612.3
23640.9
23669.3
23697.7
23725.9
23754
23782
23809.9
23837.7
23865.4
23893
23920.5
23948
23975.3
24002.6
24029.8
24056.9
24083.9
24110.8
24137.6
24164.4
24191
24217.5
24244
24270.3
24296.4
24322.5
24348.4
24374.2
24399.8
24425.3
24450.6
24475.8
24500.8
24525.6
24550.2
24574.6
24598.8
24622.8
24646.5
24670
24693.3
24716.4
24739.1
24761.7
24783.9
24805.9
24827.6
24849
24870.1
24890.9
24911.4
24931.6
24951.4
24970.9
24990.2
25009
25027.6
25045.7
25063.6
25081.1
25098.2
25115
25131.4
25147.5
25163.2
25178.5
25193.4
25208
25222.2
25236.1
25249.5
25262.6
25275.3
25287.6
25299.6
25311.1
25322.3
25333.1
25343.5
25353.5
25363.1
25372.4
25381.3
25389.8
25397.9
25405.6
25412.9
25419.8
25426.4
25432.6
25438.4
25443.8
25448.8
25453.4
25457.7
25461.5
25465
25468
25470.9
25472.9
25475.3
25476.3
25478
25478.3
25479
11746.3
11748.3
11750.1
11754.1
11758.8
11764.9
11772.3
11780.9
11790.9
11802.1
11814.7
11828.6
11843.7
11860.2
11878
11897
11917.3
11938.9
11961.8
11985.8
12011.1
12037.5
12065.2
12094
12123.8
12154.8
12186.9
12220
12254.2
12289.3
12325.4
12362.4
12400.3
12439.2
12478.8
12519.3
12560.6
12602.7
12645.5
12689.1
12733.3
12778.1
12823.6
12869.7
12916.3
12963.5
13011.1
13059.2
13107.8
13156.8
13206.1
13255.8
13305.7
13356
13406.5
13457.2
13508.1
13559.1
13610.3
13661.6
13712.9
13764.3
13815.7
13867
13918.4
13969.7
14020.9
14072
14122.9
14173.7
14224.4
14274.8
14325
14375
14424.8
14474.2
14523.4
14572.2
14620.7
14668.8
14716.6
14763.9
14810.9
14857.3
14903.3
14948.8
14993.8
15038.2
15082
15125.2
15167.8
15209.7
15250.9
15291.4
15331.1
15370.1
15408.3
15445.6
15482.1
15517.6
15552.3
15586
15618.7
15650.5
15681.2
15711
15739.6
15767.2
15793.7
15819.2
15843.5
15866.7
15888.7
15909.7
15929.5
15948.2
15965.8
15982.2
15997.6
16011.8
16025
16037
16048.1
16058.1
16067
16075
16082.1
16088.2
16093.4
16097.8
16101.3
16104.1
16106
16107.3
16107.9
16107.9
16107.3
16106.1
16104.5
16102.4
16099.9
16097
16093.8
16090.4
16086.7
16082.8
16078.9
16074.8
16070.6
16066.5
16062.4
16058.4
16054.5
16050.8
16047.3
16044
16041
16038.3
16036
16034
16032.5
16031.4
16030.8
16030.6
16031
16032
16033.5
16035.7
16038.4
16041.8
16045.8
16050.5
16055.9
16061.9
16068.7
16076.2
16084.4
16093.3
16103
16113.4
16124.5
16136.3
16148.9
16162.2
16176.2
16191
16206.4
16222.6
16239.4
16257
16275.2
16294.1
16313.6
16333.8
16354.6
16376.1
16398.1
16420.8
16444
16467.8
16492.2
16517.1
16542.5
16568.5
16594.9
16621.9
16649.3
16677.1
16705.5
16734.2
16763.4
16792.9
16822.9
16853.2
16883.9
16915
16946.3
16978.1
17010.1
17042.4
17075
17107.9
17141
17174.4
17208.1
17242
17276
17310.3
17344.8
17379.5
17414.4
17449.4
17484.6
17519.9
17555.4
17591
17626.8
17662.6
17698.6
17734.7
17770.8
17807
17843.4
17879.8
17916.2
17952.7
17989.3
18025.9
18062.6
18099.2
18136
18172.7
18209.5
18246.3
18283.1
18319.9
18356.7
18393.5
18430.3
18467.1
18503.9
18540.7
18577.4
18614.2
18650.9
18687.6
18724.3
18761
18797.6
18834.2
18870.8
18907.4
18943.9
18980.4
19016.9
19053.3
19089.7
19126.1
19162.5
19198.8
19235.1
19271.4
19307.6
19343.8
19380
19416.2
19452.4
19488.5
19524.6
19560.8
19596.9
19633
19669.1
19705.2
19741.3
19777.4
19813.5
19849.6
19885.7
19921.9
19958
19994.2
20030.4
20066.7
20102.9
20139.3
20175.6
20212
20248.4
20284.9
20321.5
20358.1
20394.7
20431.4
20468.2
20505.1
20542
20579.1
20616.2
20653.3
20690.6
20727.9
20765.3
20802.8
20840.3
20878
20915.7
20953.4
20991.3
21029.2
21067.1
21105.2
21143.2
21181.3
21219.5
21257.7
21295.9
21334.1
21372.3
21410.6
21448.8
21487
21525.2
21563.4
21601.5
21639.6
21677.6
21715.5
21753.4
21791.1
21828.8
21866.3
21903.7
21941
21978.1
22015
22051.8
22088.5
22124.9
22161.1
22197.1
22233
22268.6
22303.9
22339.1
22374
22408.7
22443.1
22477.3
22511.2
22544.9
22578.4
22611.6
22644.5
22677.2
22709.6
22741.8
22773.8
22805.5
22836.9
22868.2
22899.2
22930
22960.6
22991
23021.2
23051.1
23081
23110.6
23140
23169.3
23198.4
23227.4
23256.3
23285
23313.5
23342
23370.3
23398.6
23426.7
23454.7
23482.6
23510.4
23538.2
23565.8
23593.4
23620.8
23648.2
23675.5
23702.8
23729.9
23756.9
23783.9
23810.8
23837.5
23864.2
23890.8
23917.2
23943.6
23969.8
23995.9
24021.9
24047.7
24073.4
24098.9
24124.3
24149.5
24174.5
24199.3
24224
24248.4
24272.6
24296.7
24320.5
24344
24367.3
24390.4
24413.2
24435.8
24458.1
24480.1
24501.8
24523.2
24544.3
24565.2
24585.7
24605.9
24625.8
24645.3
24664.5
24683.4
24702
24720.2
24738
24755.5
24772.7
24789.5
24805.9
24822
24837.7
24853
24868
24882.5
24896.8
24910.6
24924.1
24937.1
24949.8
24962.2
24974.1
24985.7
24996.8
25007.6
25018
25028.1
25037.7
25047
25055.8
25064.3
25072.4
25080.1
25087.4
25094.4
25100.9
25107.1
25112.9
25118.3
25123.3
25127.9
25132.2
25136
25139.5
25142.5
25145.4
25147.4
25149.8
25150.8
25152.5
25152.8
25153.5
11413
11414.7
11416.6
11420.6
11425.3
11431.3
11438.7
11447.4
11457.3
11468.6
11481.1
11495
11510.2
11526.7
11544.5
11563.6
11584
11605.7
11628.6
11652.7
11678.1
11704.6
11732.4
11761.2
11791.3
11822.4
11854.5
11887.8
11922
11957.3
11993.5
12030.7
12068.7
12107.7
12147.5
12188.1
12229.6
12271.8
12314.7
12358.4
12402.7
12447.8
12493.4
12539.6
12586.4
12633.7
12681.5
12729.8
12778.5
12827.6
12877.1
12926.9
12977.1
13027.5
13078.1
13129
13180
13231.2
13282.5
13333.9
13385.4
13436.9
13488.5
13540
13591.4
13642.8
13694.2
13745.4
13796.4
13847.4
13898.1
13948.7
13999
14049.1
14099
14148.5
14197.8
14246.7
14295.4
14343.6
14391.5
14439
14486
14532.6
14578.7
14624.3
14669.4
14714
14757.9
14801.3
14844
14886
14927.4
14968
15007.9
15047
15085.3
15122.8
15159.4
15195.1
15229.8
15263.6
15296.5
15328.3
15359.2
15389
15417.7
15445.4
15471.9
15497.4
15521.7
15545
15567
15588
15607.8
15626.5
15644
15660.4
15675.6
15689.8
15702.9
15714.8
15725.8
15735.6
15744.5
15752.3
15759.2
15765.2
15770.2
15774.4
15777.7
15780.3
15782
15783.1
15783.5
15783.2
15782.4
15781
15779.2
15776.8
15774.1
15771
15767.6
15763.9
15760
15755.9
15751.7
15747.4
15743
15738.7
15734.4
15730.2
15726.1
15722.2
15718.5
15715
15711.9
15709
15706.5
15704.4
15702.7
15701.5
15700.7
15700.4
15700.7
15701.6
15703
15705
15707.7
15711
15714.9
15719.6
15724.9
15730.9
15737.7
15745.1
15753.3
15762.2
15771.9
15782.2
15793.4
15805.2
15817.8
15831.1
15845.2
15860
15875.5
15891.7
15908.6
15926.2
15944.4
15963.4
15983
16003.2
16024.1
16045.6
16067.7
16090.4
16113.7
16137.6
16162
16187
16212.5
16238.5
16265
16292.1
16319.5
16347.5
16375.8
16404.6
16433.9
16463.5
16493.5
16523.9
16554.7
16585.8
16617.2
16649
16681.1
16713.4
16746.1
16779
16812.2
16845.7
16879.4
16913.3
16947.4
16981.8
17016.3
17051
17085.9
17121
17156.3
17191.6
17227.2
17262.8
17298.6
17334.5
17370.5
17406.6
17442.7
17479
17515.4
17551.8
17588.3
17624.8
17661.4