/*--------------------------------*- C++ -*----------------------------------*\
| =========                 |                                                 |
| \\      /  F ield         | OpenFOAM: The Open Source CFD Toolbox           |
|  \\    /   O peration     | Version:  v2006                                 |
|   \\  /    A nd           | Website:  www.openfoam.com                      |
|    \\/     M anipulation  |                                                 |
\*---------------------------------------------------------------------------*/
FoamFile
{
    version     2.0;
    format      ascii;
    class       volScalarField;
    location    "0";
    object      p;
}
// * * * * * * * * * * * * * * * * * * * * * * * * * * * * * * * * * * * * * //

dimensions      [1 -1 -2 0 0 0 0];


internalField   nonuniform List<scalar> 
20000
(
6.77365e-06
6.79932e-06
6.86934e-06
6.98622e-06
7.14137e-06
7.33442e-06
7.56662e-06
7.8394e-06
8.15374e-06
8.5105e-06
8.91075e-06
9.35587e-06
9.84739e-06
1.03867e-05
1.09755e-05
1.16151e-05
1.23067e-05
1.30515e-05
1.38499e-05
1.47023e-05
1.5608e-05
1.65665e-05
1.75765e-05
1.86381e-05
1.97445e-05
2.08916e-05
2.20732e-05
2.32808e-05
2.45033e-05
2.57265e-05
2.69325e-05
2.80988e-05
2.91976e-05
3.01947e-05
3.10484e-05
3.17077e-05
3.21109e-05
3.2183e-05
3.18345e-05
3.0958e-05
2.94245e-05
2.70792e-05
2.37386e-05
1.91853e-05
1.31617e-05
5.36024e-06
-4.58402e-06
-1.70994e-05
-3.26833e-05
-5.19156e-05
-7.54777e-05
-0.000104171
-0.000138917
-0.000180749
-0.000230802
-0.000290306
-0.000360582
-0.000442981
-0.000538729
-0.000648683
-0.000773044
-0.000910976
-0.00106028
-0.00121301
-0.00133959
-0.00149328
-0.00162722
-0.00172633
-0.00177132
-0.00175088
-0.00166728
-0.00153867
-0.00139122
-0.00124125
-0.00108048
-0.000876663
-0.000584347
-0.000162398
0.000422182
0.00118788
0.00214375
0.00329224
0.00462691
0.00612984
0.00777175
0.00951174
0.0112963
0.0130625
0.014746
0.0162884
0.017643
0.0187722
0.0196594
0.0202726
0.0206157
0.0206902
0.0205017
0.0200588
0.0193719
0.0184529
0.0173155
0.0159758
0.0144521
0.0127723
0.0110157
0.00904923
0.0069991
0.0048886
0.00274348
0.000585038
-0.00156671
-0.0036912
-0.00576526
-0.00776311
-0.00965149
-0.0113924
-0.012944
-0.0142649
-0.0153201
-0.0160869
-0.0165584
-0.0167443
-0.0166672
-0.0163583
-0.0158535
-0.0151917
-0.0144117
-0.0135487
-0.0126174
-0.0116672
-0.0107037
-0.00974258
-0.00880371
-0.00791413
-0.00710495
-0.00639946
-0.00580152
-0.00529178
-0.00483527
-0.00439824
-0.00396265
-0.00352764
-0.00310119
-0.0026929
-0.00231123
-0.0019623
-0.00164931
-0.00137293
-0.00113201
-0.000924256
-0.000746707
-0.000596127
-0.00046928
-0.000363083
-0.000274692
-0.000201552
-0.000141398
-9.22486e-05
-5.23868e-05
-2.03343e-05
5.17524e-06
2.52212e-05
4.07212e-05
5.24522e-05
6.10707e-05
6.71304e-05
7.10964e-05
7.33593e-05
7.42456e-05
7.4028e-05
7.29334e-05
7.115e-05
6.88332e-05
6.6111e-05
6.30882e-05
5.98498e-05
5.64645e-05
5.29875e-05
4.94622e-05
4.59223e-05
4.23933e-05
3.88953e-05
3.54577e-05
3.20519e-05
2.8698e-05
2.54051e-05
2.21738e-05
1.89996e-05
1.58779e-05
1.28029e-05
9.76763e-06
6.76457e-06
3.78563e-06
8.22209e-07
-2.12467e-06
-5.07098e-06
-8.02936e-06
-1.10119e-05
-1.40021e-05
-1.70991e-05
6.76363e-06
6.78972e-06
6.85837e-06
6.97385e-06
7.12799e-06
7.32034e-06
7.55216e-06
7.82505e-06
8.14016e-06
8.49842e-06
8.90088e-06
9.34881e-06
9.84349e-06
1.03862e-05
1.09782e-05
1.16202e-05
1.23134e-05
1.30585e-05
1.38564e-05
1.47075e-05
1.56121e-05
1.65696e-05
1.75789e-05
1.8637e-05
1.97421e-05
2.08891e-05
2.20712e-05
2.32797e-05
2.45035e-05
2.57283e-05
2.69363e-05
2.81051e-05
2.9207e-05
3.02079e-05
3.10663e-05
3.17312e-05
3.21411e-05
3.22214e-05
3.18827e-05
3.10179e-05
2.94984e-05
2.71699e-05
2.3849e-05
1.93192e-05
1.33234e-05
5.55505e-06
-4.35045e-06
-1.68207e-05
-3.23519e-05
-5.15223e-05
-7.50122e-05
-0.000103622
-0.000138275
-0.000180006
-0.000229949
-0.000289336
-0.000359491
-0.000441779
-0.000537466
-0.000647471
-0.00077193
-0.000909707
-0.00105845
-0.00121731
-0.00139468
-0.0015508
-0.00168071
-0.00176896
-0.00180449
-0.00177845
-0.00169285
-0.00156476
-0.00141891
-0.00127015
-0.00110908
-0.000903163
-0.000606873
-0.000180164
0.000409294
0.00117999
0.00214128
0.00329603
0.004638
0.00614909
0.00779958
0.00954787
0.0113395
0.0131107
0.0147967
0.0163396
0.0176916
0.0188173
0.0196886
0.0202996
0.0206412
0.0207145
0.0205248
0.0200808
0.0193928
0.0184727
0.0173336
0.0159909
0.014461
0.0127603
0.0108865
0.00893856
0.00690613
0.00481255
0.00267827
0.000527345
-0.00161734
-0.00373409
-0.00579909
-0.00778712
-0.00966495
-0.0113947
-0.012935
-0.0142448
-0.0152898
-0.0160476
-0.016512
-0.0166932
-0.0166144
-0.0163071
-0.0158065
-0.0151506
-0.0143775
-0.0135204
-0.0126124
-0.0116645
-0.0107012
-0.00973933
-0.00879859
-0.00790671
-0.00709584
-0.00639018
-0.00579389
-0.00528698
-0.0048332
-0.00439772
-0.00396235
-0.0035268
-0.00309956
-0.00269055
-0.00230835
-0.00195913
-0.00164607
-0.00136977
-0.00112904
-0.000921548
-0.000744282
-0.00059399
-0.000467418
-0.000361474
-0.000273314
-0.000200377
-0.000140402
-9.14073e-05
-5.16792e-05
-1.97411e-05
5.67072e-06
2.56336e-05
4.10633e-05
5.27347e-05
6.13031e-05
6.73207e-05
7.12512e-05
7.34845e-05
7.43461e-05
7.41079e-05
7.29961e-05
7.11986e-05
6.887e-05
6.61382e-05
6.31073e-05
5.98622e-05
5.64713e-05
5.29895e-05
4.94598e-05
4.59159e-05
4.23835e-05
3.88815e-05
3.54164e-05
3.20143e-05
2.86737e-05
2.53921e-05
2.21679e-05
1.89987e-05
1.58808e-05
1.2809e-05
9.77668e-06
6.7765e-06
3.80088e-06
8.42277e-07
-2.11062e-06
-5.06557e-06
-8.02372e-06
-1.1008e-05
-1.39732e-05
-1.7132e-05
6.7566e-06
6.78419e-06
6.85387e-06
6.97022e-06
7.12518e-06
7.31821e-06
7.55056e-06
7.82374e-06
8.13883e-06
8.49667e-06
8.89827e-06
9.34487e-06
9.83781e-06
1.03784e-05
1.09678e-05
1.16073e-05
1.22984e-05
1.30421e-05
1.38393e-05
1.46906e-05
1.55959e-05
1.65547e-05
1.75657e-05
1.86262e-05
1.97334e-05
2.08822e-05
2.20662e-05
2.3277e-05
2.45034e-05
2.57316e-05
2.69437e-05
2.81176e-05
2.92257e-05
3.02342e-05
3.11018e-05
3.1778e-05
3.22014e-05
3.2298e-05
3.19789e-05
3.11376e-05
2.96461e-05
2.73508e-05
2.40694e-05
1.95864e-05
1.36465e-05
5.94416e-06
-3.88388e-06
-1.62639e-05
-3.16899e-05
-5.07367e-05
-7.40821e-05
-0.000102526
-0.000136994
-0.00017852
-0.000228241
-0.000287391
-0.000357312
-0.000439397
-0.000534927
-0.000644816
-0.00076941
-0.000908387
-0.00105995
-0.00121899
-0.00138146
-0.00152556
-0.0016537
-0.00174758
-0.00178908
-0.00176554
-0.00167813
-0.00154581
-0.00139725
-0.00125072
-0.00109754
-0.000902209
-0.000620201
-0.000203959
0.000376997
0.00114104
0.00209735
0.00324897
0.00458998
0.00610245
0.00775697
0.00951229
0.0113136
0.0130961
0.0147936
0.0163477
0.0177106
0.0188464
0.0197276
0.0203435
0.020687
0.0207603
0.0205698
0.0201243
0.0194343
0.0185117
0.01737
0.0160256
0.0144982
0.0128114
0.0109724
0.00903543
0.00699471
0.00488644
0.00273838
0.000574917
-0.00158208
-0.00371135
-0.00579194
-0.00779537
-0.00969071
-0.0114394
-0.0129984
-0.014325
-0.0153831
-0.0161492
-0.0166167
-0.0167961
-0.0167113
-0.0163946
-0.0158821
-0.0152125
-0.0144247
-0.0135535
-0.0126309
-0.0116738
-0.0107042
-0.00973715
-0.00879078
-0.00789322
-0.00707833
-0.00637197
-0.0057788
-0.00527754
-0.00482925
-0.00439684
-0.00396186
-0.00352515
-0.00309632
-0.00268583
-0.00230256
-0.00195276
-0.00163956
-0.00136344
-0.00112311
-0.00091613
-0.000739434
-0.000589716
-0.000463695
-0.00035826
-0.000270559
-0.00019803
-0.000138411
-8.97267e-05
-5.02656e-05
-1.85563e-05
6.66034e-06
2.64573e-05
4.17464e-05
5.3299e-05
6.17672e-05
6.77005e-05
7.15603e-05
7.37344e-05
7.45465e-05
7.42672e-05
7.31214e-05
7.12958e-05
6.89442e-05
6.61938e-05
6.3148e-05
5.98912e-05
5.64915e-05
5.30031e-05
4.94692e-05
4.59231e-05
4.23905e-05
3.88904e-05
3.54305e-05
3.20266e-05
2.86789e-05
2.53903e-05
2.2161e-05
1.8989e-05
1.58694e-05
1.27968e-05
9.76411e-06
6.764e-06
3.78865e-06
8.29856e-07
-2.12239e-06
-5.07511e-06
-8.0306e-06
-1.10103e-05
-1.39824e-05
-1.71344e-05
6.74655e-06
6.77386e-06
6.84317e-06
6.95895e-06
7.11325e-06
7.30557e-06
7.53714e-06
7.80954e-06
8.1239e-06
8.48114e-06
8.88233e-06
9.32877e-06
9.82179e-06
1.03627e-05
1.09529e-05
1.15935e-05
1.22858e-05
1.30306e-05
1.38287e-05
1.46805e-05
1.5586e-05
1.65447e-05
1.75555e-05
1.86161e-05
1.97238e-05
2.08738e-05
2.20599e-05
2.32735e-05
2.45037e-05
2.57366e-05
2.69548e-05
2.81362e-05
2.92537e-05
3.02735e-05
3.11549e-05
3.18479e-05
3.22917e-05
3.24126e-05
3.21227e-05
3.13165e-05
2.98669e-05
2.76216e-05
2.43992e-05
1.99864e-05
1.41299e-05
6.52653e-06
-3.18549e-06
-1.54305e-05
-3.06989e-05
-4.95606e-05
-7.26892e-05
-0.000100884
-0.000135073
-0.000176293
-0.000225682
-0.000284478
-0.000354036
-0.000435785
-0.0005311
-0.000641063
-0.00076605
-0.000905264
-0.00105652
-0.00121697
-0.00138455
-0.00154255
-0.00168161
-0.00178203
-0.00182592
-0.00180117
-0.00170917
-0.00157088
-0.0014188
-0.00127393
-0.00112715
-0.000941129
-0.000664859
-0.000253245
0.000326257
0.00109137
0.00205061
0.00320753
0.00455677
0.00608035
0.00774885
0.00952087
0.0113404
0.0131404
0.0148527
0.0164177
0.0177874
0.0189257
0.0198071
0.0204209
0.0207619
0.0208326
0.0206391
0.0201904
0.0194971
0.0185708
0.0174246
0.0160736
0.0145349
0.0128282
0.0109695
0.00900764
0.00695614
0.00484383
0.00269491
0.000531738
-0.00162448
-0.00375339
-0.00583247
-0.00783628
-0.00973322
-0.011484
-0.013045
-0.0143725
-0.0154294
-0.0161917
-0.0166528
-0.0168242
-0.0167313
-0.0164072
-0.0158881
-0.0152134
-0.0144227
-0.013551
-0.0126277
-0.0116705
-0.0106994
-0.00972853
-0.00877588
-0.00787093
-0.0070506
-0.0063436
-0.00575553
-0.00526317
-0.00482341
-0.00439569
-0.00396123
-0.00352271
-0.00309144
-0.00267872
-0.00229383
-0.00194316
-0.00162976
-0.00135392
-0.00111419
-0.000907995
-0.00073216
-0.000583308
-0.000458115
-0.000353444
-0.000266432
-0.000194514
-0.000135431
-8.72106e-05
-4.81494e-05
-1.67829e-05
8.14147e-06
2.769e-05
4.27685e-05
5.41432e-05
6.24615e-05
6.82686e-05
7.20227e-05
7.41082e-05
7.48464e-05
7.45056e-05
7.33087e-05
7.14407e-05
6.90543e-05
6.62751e-05
6.32055e-05
5.99292e-05
5.65133e-05
5.30116e-05
4.94665e-05
4.59112e-05
4.23706e-05
3.88636e-05
3.54006e-05
3.19955e-05
2.86507e-05
2.53666e-05
2.21419e-05
1.89739e-05
1.58581e-05
1.27889e-05
9.75947e-06
6.76245e-06
3.78997e-06
8.33682e-07
-2.11541e-06
-5.06518e-06
-8.01874e-06
-1.09977e-05
-1.3971e-05
-1.7118e-05
6.73296e-06
6.76001e-06
6.8293e-06
6.94504e-06
7.0993e-06
7.2916e-06
7.52315e-06
7.79552e-06
8.10982e-06
8.46696e-06
8.86796e-06
9.31408e-06
9.80665e-06
1.0347e-05
1.09363e-05
1.1576e-05
1.22671e-05
1.30109e-05
1.3808e-05
1.46592e-05
1.55646e-05
1.65237e-05
1.75356e-05
1.8598e-05
1.97079e-05
2.08607e-05
2.20501e-05
2.32679e-05
2.45034e-05
2.57429e-05
2.69693e-05
2.81608e-05
2.92905e-05
3.03255e-05
3.12253e-05
3.19407e-05
3.24114e-05
3.25647e-05
3.23136e-05
3.1554e-05
3.01603e-05
2.79814e-05
2.48374e-05
2.05177e-05
1.47722e-05
7.30061e-06
-2.257e-06
-1.43225e-05
-2.93815e-05
-4.79969e-05
-7.08366e-05
-9.86993e-05
-0.000132516
-0.000173327
-0.000222271
-0.00028059
-0.000349664
-0.000430984
-0.000525999
-0.000635826
-0.000760952
-0.000901048
-0.00105466
-0.00121874
-0.0013882
-0.00154809
-0.00168762
-0.00178976
-0.00183508
-0.00180832
-0.00170945
-0.00156212
-0.00140491
-0.00126386
-0.00112967
-0.00096039
-0.00070258
-0.000305333
0.000264441
0.00102306
0.00197847
0.0031351
0.00448844
0.00602055
0.00770229
0.00949252
0.011334
0.0131566
0.0148899
0.0164728
0.0178571
0.0190063
0.0198955
0.0205133
0.0208556
0.0209253
0.0207296
0.0202778
0.0195805
0.0186494
0.0174978
0.0161413
0.0145985
0.01289
0.0110352
0.00907143
0.00701609
0.00489545
0.00273596
0.000561379
-0.0016069
-0.00374873
-0.0058435
-0.00786533
-0.00978227
-0.0115548
-0.0131373
-0.0144835
-0.0155539
-0.0163228
-0.0167833
-0.0169479
-0.0168439
-0.0165057
-0.0159706
-0.015279
-0.0144722
-0.0135863
-0.0126499
-0.0116828
-0.0107028
-0.00972312
-0.00875963
-0.00784307
-0.00701431
-0.00630586
-0.00572452
-0.00524431
-0.00481622
-0.00439477
-0.00396077
-0.00351961
-0.00308494
-0.00266917
-0.00228209
-0.00193028
-0.00161663
-0.00134118
-0.00110227
-0.000897138
-0.00072246
-0.000574769
-0.000450683
-0.000347034
-0.000260941
-0.000189838
-0.000131467
-8.38648e-05
-4.5336e-05
-1.44254e-05
1.01102e-05
2.93283e-05
4.41268e-05
5.5265e-05
6.33839e-05
6.90233e-05
7.26367e-05
7.46044e-05
7.52444e-05
7.48218e-05
7.35571e-05
7.16332e-05
6.92009e-05
6.63843e-05
6.32847e-05
5.99844e-05
5.65498e-05
5.30338e-05
4.94782e-05
4.59153e-05
4.23697e-05
3.8859e-05
3.53942e-05
3.19863e-05
2.86386e-05
2.53519e-05
2.21257e-05
1.8957e-05
1.58415e-05
1.27733e-05
9.74554e-06
6.7505e-06
3.78025e-06
8.2626e-07
-2.12005e-06
-5.06716e-06
-8.01874e-06
-1.0996e-05
-1.3968e-05
-1.71116e-05
6.71591e-06
6.74282e-06
6.81206e-06
6.92766e-06
7.08167e-06
7.27361e-06
7.5047e-06
7.77651e-06
8.09017e-06
8.4466e-06
8.84685e-06
9.29221e-06
9.78405e-06
1.03237e-05
1.09125e-05
1.15518e-05
1.22428e-05
1.29866e-05
1.3784e-05
1.46357e-05
1.55418e-05
1.65017e-05
1.75146e-05
1.85784e-05
1.96902e-05
2.08457e-05
2.20388e-05
2.32615e-05
2.45033e-05
2.57508e-05
2.69872e-05
2.81911e-05
2.93363e-05
3.039e-05
3.13127e-05
3.20558e-05
3.25601e-05
3.27537e-05
3.25509e-05
3.18494e-05
3.05253e-05
2.84289e-05
2.53827e-05
2.11789e-05
1.55717e-05
8.26435e-06
-1.10075e-06
-1.29427e-05
-2.77408e-05
-4.60491e-05
-6.85278e-05
-9.59746e-05
-0.000129325
-0.000169625
-0.000218012
-0.000275734
-0.000344191
-0.000424937
-0.000519534
-0.000629289
-0.000754894
-0.00089607
-0.00105123
-0.00121745
-0.00138997
-0.00155697
-0.00170601
-0.0018181
-0.00187046
-0.00184455
-0.00173905
-0.00158123
-0.00141773
-0.00128086
-0.00116083
-0.00101078
-0.000769837
-0.000384847
0.000178462
0.000934793
0.00189101
0.00305263
0.00441615
0.00596351
0.0076658
0.00948213
0.0113534
0.0132057
0.014965
0.0165686
0.0179679
0.0191266
0.0200204
0.0206387
0.0209789
0.021045
0.0208448
0.0203879
0.019685
0.0187477
0.017589
0.0162235
0.014669
0.0129454
0.0110749
0.00909177
0.00701969
0.00488553
0.00271564
0.00053299
-0.00164209
-0.00379076
-0.00589284
-0.00792417
-0.0098533
-0.0116397
-0.0132359
-0.0145932
-0.0156697
-0.016438
-0.0168914
-0.0170439
-0.0169254
-0.0165718
-0.0160213
-0.0153149
-0.0144957
-0.0136005
-0.0126564
-0.0116833
-0.0106981
-0.00971094
-0.00873581
-0.00780553
-0.00696655
-0.00625666
-0.00568449
-0.00522051
-0.00480779
-0.00439433
-0.00396063
-0.00351587
-0.00307677
-0.00265709
-0.00226725
-0.00191404
-0.0016001
-0.00132519
-0.00108733
-0.000883546
-0.00071033
-0.000564102
-0.000441406
-0.000339036
-0.000254093
-0.000184008
-0.000126528
-7.96969e-05
-4.18319e-05
-1.14898e-05
1.25611e-05
3.13676e-05
4.58173e-05
5.66609e-05
6.45314e-05
6.9962e-05
7.34003e-05
7.52215e-05
7.57391e-05
7.52147e-05
7.38656e-05
7.1872e-05
6.93822e-05
6.65184e-05
6.33801e-05
6.00484e-05
5.65882e-05
5.30515e-05
4.94794e-05
4.59037e-05
4.23483e-05
3.88306e-05
3.53621e-05
3.19524e-05
2.8605e-05
2.53203e-05
2.2097e-05
1.89319e-05
1.58202e-05
1.27561e-05
9.73238e-06
6.74144e-06
3.77525e-06
8.25178e-07
-2.11712e-06
-5.06047e-06
-8.0089e-06
-1.09834e-05
-1.39532e-05
-1.70944e-05
6.69543e-06
6.72224e-06
6.79137e-06
6.90677e-06
7.06047e-06
7.25202e-06
7.48266e-06
7.75396e-06
8.06708e-06
8.42294e-06
8.82262e-06
9.26739e-06
9.75861e-06
1.02977e-05
1.08858e-05
1.15245e-05
1.22149e-05
1.29582e-05
1.37553e-05
1.46067e-05
1.55128e-05
1.64732e-05
1.74872e-05
1.85528e-05
1.96673e-05
2.08263e-05
2.20242e-05
2.32529e-05
2.45024e-05
2.57596e-05
2.7008e-05
2.82269e-05
2.93904e-05
3.04665e-05
3.14165e-05
3.21928e-05
3.27372e-05
3.29789e-05
3.28338e-05
3.22016e-05
3.09606e-05
2.8963e-05
2.60333e-05
2.19678e-05
1.6526e-05
9.41521e-06
2.80435e-07
-1.12943e-05
-2.57812e-05
-4.37222e-05
-6.5768e-05
-9.27151e-05
-0.000125506
-0.000165192
-0.000212909
-0.000269903
-0.000337607
-0.000417657
-0.000511756
-0.000621357
-0.000747284
-0.00088946
-0.00104675
-0.00121673
-0.0013946
-0.00156924
-0.00172656
-0.00184616
-0.00190279
-0.00187413
-0.00175686
-0.00158282
-0.00140935
-0.00127711
-0.00117562
-0.00105078
-0.000834907
-0.000468756
8.30391e-05
0.000832633
0.00178553
0.00294897
0.00432091
0.00588311
0.00760714
0.00945285
0.0113589
0.0132467
0.0150375
0.0166669
0.0180861
0.0192585
0.0201605
0.020782
0.0211221
0.0211857
0.0209814
0.0205194
0.0198105
0.0188663
0.0176993
0.0163244
0.0147596
0.0130256
0.0111457
0.00915144
0.00706823
0.00492258
0.00274083
0.000546147
-0.00164146
-0.00380393
-0.00592272
-0.0079745
-0.00992764
-0.0117406
-0.0133634
-0.0147436
-0.0158357
-0.01661
-0.0170594
-0.0171998
-0.0170642
-0.0166909
-0.0161187
-0.0153902
-0.0145509
-0.0136389
-0.0126805
-0.0116958
-0.0107007
-0.009702
-0.00871068
-0.00776184
-0.00690901
-0.00619665
-0.00563578
-0.00519235
-0.00479898
-0.00439516
-0.00396128
-0.00351167
-0.00306695
-0.00264241
-0.00224922
-0.00189433
-0.00158011
-0.00130589
-0.00106935
-0.000867212
-0.000695775
-0.000551315
-0.000430296
-0.000329464
-0.000245903
-0.000177038
-0.000120624
-7.47167e-05
-3.76461e-05
-7.98367e-06
1.54878e-05
3.38022e-05
4.78353e-05
5.83267e-05
6.59007e-05
7.10819e-05
7.43109e-05
7.59571e-05
7.63287e-05
7.56827e-05
7.42329e-05
7.2156e-05
6.95979e-05
6.66784e-05
6.3495e-05
6.0127e-05
5.66382e-05
5.30792e-05
4.949e-05
4.59014e-05
4.23366e-05
3.88124e-05
3.53396e-05
3.19268e-05
2.85775e-05
2.52922e-05
2.20693e-05
1.89054e-05
1.57959e-05
1.27346e-05
9.71423e-06
6.72703e-06
3.7648e-06
8.1881e-07
-2.11925e-06
-5.0585e-06
-8.00326e-06
-1.09745e-05
-1.39416e-05
-1.70806e-05
6.67154e-06
6.69827e-06
6.76725e-06
6.88241e-06
7.03576e-06
7.22688e-06
7.45699e-06
7.72768e-06
8.04011e-06
8.39523e-06
8.7941e-06
9.23801e-06
9.72835e-06
1.02665e-05
1.08538e-05
1.14917e-05
1.21815e-05
1.29243e-05
1.37211e-05
1.45726e-05
1.54792e-05
1.64406e-05
1.74561e-05
1.85238e-05
1.96412e-05
2.08042e-05
2.20073e-05
2.3243e-05
2.45012e-05
2.57695e-05
2.70318e-05
2.8268e-05
2.94526e-05
3.05547e-05
3.15362e-05
3.23511e-05
3.29419e-05
3.32393e-05
3.31611e-05
3.26094e-05
3.14649e-05
2.95818e-05
2.67873e-05
2.28822e-05
1.76323e-05
1.07501e-05
1.88312e-06
-9.38165e-06
-2.35075e-05
-4.10217e-05
-6.25626e-05
-8.89257e-05
-0.000121062
-0.000160032
-0.000206965
-0.000263105
-0.000329913
-0.000409114
-0.000502571
-0.000611943
-0.000738288
-0.000881766
-0.00104148
-0.00121528
-0.00139862
-0.00158154
-0.00174948
-0.00188055
-0.00194578
-0.00191725
-0.00178823
-0.00159588
-0.00141116
-0.00128545
-0.00120703
-0.00111273
-0.000924957
-0.00057857
-3.73061e-05
0.000707368
0.00165901
0.00282723
0.0042117
0.00579365
0.00754529
0.00942758
0.0113766
0.0133072
0.0151354
0.0167947
0.018236
0.0194229
0.0203324
0.0209558
0.0212938
0.0213528
0.0211425
0.0206737
0.0199572
0.0190045
0.0178276
0.016441
0.0148622
0.0131119
0.0112145
0.00920061
0.00709798
0.00493448
0.00273701
0.000528719
-0.00167119
-0.00384616
-0.00597925
-0.00804878
-0.0100239
-0.0118618
-0.0135096
-0.0149109
-0.0160159
-0.0167924
-0.0172329
-0.0173563
-0.0171993
-0.0168031
-0.0162071
-0.0154549
-0.0145952
-0.0136671
-0.0126957
-0.0117009
-0.0106976
-0.009688
-0.00867874
-0.00770798
-0.00683848
-0.00612331
-0.00557681
-0.0051594
-0.00479021
-0.00439783
-0.00396302
-0.00350706
-0.00305539
-0.00262499
-0.00222783
-0.00187104
-0.00155656
-0.00128322
-0.00104828
-0.000848114
-0.000678785
-0.00053641
-0.000417359
-0.000318328
-0.000236381
-0.00016894
-0.000113768
-6.89355e-05
-3.27886e-05
-3.91625e-06
1.88822e-05
3.66252e-05
5.01744e-05
6.02573e-05
6.7487e-05
7.23789e-05
7.53653e-05
7.68086e-05
7.70108e-05
7.6224e-05
7.46574e-05
7.2484e-05
6.98466e-05
6.68621e-05
6.36258e-05
6.02149e-05
5.66915e-05
5.3105e-05
4.94943e-05
4.58892e-05
4.23122e-05
3.87794e-05
3.53014e-05
3.18858e-05
2.85358e-05
2.52516e-05
2.20313e-05
1.88711e-05
1.57659e-05
1.27093e-05
9.6941e-06
6.7122e-06
3.75534e-06
8.14702e-07
-2.11805e-06
-5.05225e-06
-7.99245e-06
-1.09597e-05
-1.39233e-05
-1.70601e-05
6.64425e-06
6.6709e-06
6.73971e-06
6.85459e-06
7.00755e-06
7.19816e-06
7.42766e-06
7.69764e-06
8.00929e-06
8.36356e-06
8.76154e-06
9.20451e-06
9.6939e-06
1.02311e-05
1.08176e-05
1.14546e-05
1.21437e-05
1.2886e-05
1.36824e-05
1.45339e-05
1.54408e-05
1.6403e-05
1.74199e-05
1.849e-05
1.96107e-05
2.07782e-05
2.19874e-05
2.32308e-05
2.44991e-05
2.57799e-05
2.7058e-05
2.83138e-05
2.95225e-05
3.06539e-05
3.16713e-05
3.25298e-05
3.31735e-05
3.35341e-05
3.35316e-05
3.30713e-05
3.20366e-05
3.02836e-05
2.76423e-05
2.39191e-05
1.88873e-05
1.22656e-05
3.70342e-06
-7.20931e-06
-2.09257e-05
-3.79546e-05
-5.89188e-05
-8.4613e-05
-0.000116001
-0.000154151
-0.000200187
-0.000255339
-0.000321095
-0.000399289
-0.000491975
-0.000601046
-0.000727779
-0.000872542
-0.00103478
-0.00121291
-0.00140307
-0.00159616
-0.00177699
-0.0019215
-0.00199624
-0.00196632
-0.00182048
-0.00160249
-0.00140122
-0.00128187
-0.0012308
-0.00117313
-0.00101988
-0.000697841
-0.000169741
0.000567766
0.0015157
0.00268712
0.00408399
0.00568659
0.00746817
0.00939166
0.0113899
0.0133701
0.0152415
0.0169351
0.0184021
0.0196062
0.020525
0.0211512
0.0214876
0.0215421
0.0213256
0.0208496
0.0201251
0.0191631
0.0179753
0.0165759
0.0149822
0.0132154
0.0113007
0.00926836
0.00714752
0.00496681
0.00275338
0.000530299
-0.00168404
-0.00387462
-0.00602662
-0.00812013
-0.0101247
-0.0119962
-0.0136782
-0.0151088
-0.0162333
-0.0170157
-0.0174483
-0.0175532
-0.0173722
-0.0169495
-0.016325
-0.0155438
-0.0146585
-0.0137099
-0.0127217
-0.0117135
-0.0106997
-0.00967665
-0.00864502
-0.00764664
-0.00675587
-0.00603656
-0.0055075
-0.00512229
-0.00478271
-0.00440346
-0.00396644
-0.00350222
-0.00304206
-0.0026047
-0.00220294
-0.00184404
-0.00152938
-0.00125714
-0.0010241
-0.000826256
-0.000659375
-0.000519407
-0.000402618
-0.000305652
-0.000225549
-0.000159733
-0.000105976
-6.23671e-05
-2.72713e-05
7.0247e-07
2.27358e-05
3.98293e-05
5.28287e-05
6.24475e-05
6.92862e-05
7.38495e-05
7.65604e-05
7.77732e-05
7.77832e-05
7.68364e-05
7.51372e-05
7.28545e-05
7.01271e-05
6.70692e-05
6.37733e-05
6.03145e-05
5.6753e-05
5.31365e-05
4.95026e-05
4.58801e-05
4.22903e-05
3.87485e-05
3.52647e-05
3.18458e-05
2.84944e-05
2.52103e-05
2.19915e-05
1.88343e-05
1.57329e-05
1.26808e-05
9.67062e-06
6.69414e-06
3.74294e-06
8.08072e-07
-2.1189e-06
-5.04753e-06
-7.98259e-06
-1.09453e-05
-1.3905e-05
-1.70393e-05
6.61357e-06
6.64014e-06
6.70876e-06
6.82332e-06
6.97584e-06
7.16587e-06
7.39468e-06
7.66387e-06
7.97464e-06
8.32797e-06
8.72493e-06
9.16684e-06
9.65513e-06
1.01912e-05
1.07766e-05
1.14127e-05
1.2101e-05
1.28425e-05
1.36386e-05
1.449e-05
1.53973e-05
1.63605e-05
1.73791e-05
1.84518e-05
1.95761e-05
2.07487e-05
2.19645e-05
2.32167e-05
2.4496e-05
2.57908e-05
2.70864e-05
2.8364e-05
2.95996e-05
3.07637e-05
3.18211e-05
3.27283e-05
3.34309e-05
3.3862e-05
3.3944e-05
3.35856e-05
3.26737e-05
3.10662e-05
2.85958e-05
2.50753e-05
2.02874e-05
1.39575e-05
5.73693e-06
-4.78263e-06
-1.80425e-05
-3.45289e-05
-5.48447e-05
-7.97842e-05
-0.000110328
-0.000147556
-0.00019258
-0.00024661
-0.000311154
-0.000388165
-0.000479914
-0.000588565
-0.000715652
-0.000861796
-0.00102682
-0.00120974
-0.00140746
-0.0016118
-0.00180728
-0.0019679
-0.0020551
-0.00202512
-0.0018599
-0.00161082
-0.00138952
-0.00127872
-0.00126153
-0.00124818
-0.00113543
-0.000840537
-0.000325595
0.000405269
0.00134966
0.00252551
0.0039376
0.00556446
0.0073808
0.00935256
0.0114088
0.0134468
0.0153677
0.0171002
0.018596
0.0198188
0.020747
0.0213752
0.0217087
0.0217572
0.0215331
0.0210484
0.0203145
0.0193418
0.0181416
0.0167274
0.0151164
0.0133298
0.0113935
0.00933797
0.00719399
0.00499153
0.00275853
0.000518186
-0.00171199
-0.00391889
-0.00609019
-0.00820833
-0.0102439
-0.0121514
-0.0138701
-0.0153322
-0.0164766
-0.0172633
-0.0176844
-0.0177659
-0.0175561
-0.0171031
-0.0164464
-0.0156326
-0.0147193
-0.0137493
-0.0127436
-0.0117221
-0.010699
-0.00966287
-0.0086059
-0.00757459
-0.00665805
-0.00593359
-0.00542602
-0.00508079
-0.00477746
-0.00441309
-0.00397202
-0.00349721
-0.00302682
-0.0025813
-0.0021743
-0.00181312
-0.00149838
-0.00122752
-0.000996743
-0.00080159
-0.000637521
-0.000500298
-0.000386076
-0.000291443
-0.00021342
-0.000149431
-9.72642e-05
-5.50273e-05
-2.11091e-05
5.85892e-06
2.70363e-05
4.34037e-05
5.57888e-05
6.4889e-05
7.12911e-05
7.54876e-05
7.7891e-05
7.88467e-05
7.86421e-05
7.7517e-05
7.56701e-05
7.32654e-05
7.04378e-05
6.7298e-05
6.39355e-05
6.04229e-05
5.68183e-05
5.31678e-05
4.95073e-05
4.58646e-05
4.226e-05
3.87078e-05
3.52176e-05
3.17951e-05
2.84427e-05
2.51597e-05
2.19437e-05
1.87906e-05
1.56943e-05
1.2648e-05
9.6441e-06
6.67426e-06
3.72987e-06
8.01836e-07
-2.11839e-06
-5.04055e-06
-7.96966e-06
-1.09271e-05
-1.38822e-05
-1.70138e-05
6.57951e-06
6.60599e-06
6.67441e-06
6.78861e-06
6.94064e-06
7.13003e-06
7.35806e-06
7.62637e-06
7.93617e-06
8.28843e-06
8.68426e-06
9.12498e-06
9.61205e-06
1.01469e-05
1.07312e-05
1.13662e-05
1.20534e-05
1.27943e-05
1.35899e-05
1.44412e-05
1.53489e-05
1.63131e-05
1.73335e-05
1.84089e-05
1.95373e-05
2.07153e-05
2.19385e-05
2.32001e-05
2.44916e-05
2.58018e-05
2.71166e-05
2.84182e-05
2.96832e-05
3.08833e-05
3.19846e-05
3.29455e-05
3.3713e-05
3.42218e-05
3.43967e-05
3.41506e-05
3.33741e-05
3.19271e-05
2.96447e-05
2.63472e-05
2.18283e-05
1.58214e-05
7.97877e-06
-2.10762e-06
-1.48657e-05
-3.07535e-05
-5.0349e-05
-7.44472e-05
-0.000104051
-0.000140257
-0.000184157
-0.000236924
-0.000300081
-0.00037571
-0.00046634
-0.000574447
-0.000701841
-0.000849379
-0.00101727
-0.00120526
-0.00141135
-0.00162848
-0.0018412
-0.00202138
-0.00212438
-0.00209499
-0.00190545
-0.00161603
-0.00136787
-0.00126612
-0.00128903
-0.00132793
-0.00126262
-0.000998569
-0.000497522
0.0002259
0.00116487
0.00234435
0.00377262
0.00542533
0.00727936
0.00930529
0.0114278
0.0135317
0.0155082
0.0172839
0.0188116
0.0200552
0.0209935
0.0216237
0.0219537
0.0219957
0.0217631
0.0212692
0.0205252
0.0195411
0.0183275
0.0168972
0.0152672
0.0134589
0.0114991
0.00941888
0.00725036
0.00502494
0.00277136
0.000512832
-0.00173416
-0.00395877
-0.00615169
-0.00829824
-0.0103703
-0.0123206
-0.0140836
-0.0155842
-0.0167536
-0.0175469
-0.0179553
-0.0180103
-0.0177681
-0.0172814
-0.0165883
-0.0157368
-0.0147915
-0.0137971
-0.0127712
-0.0117345
-0.010702
-0.00965188
-0.00856488
-0.00749327
-0.00654472
-0.00581318
-0.00533151
-0.00503552
-0.00477618
-0.00442825
-0.00398045
-0.00349216
-0.00300959
-0.00255462
-0.00214174
-0.00177818
-0.00146354
-0.00119437
-0.000966236
-0.000774162
-0.000613275
-0.000479133
-0.000367777
-0.00027574
-0.000200024
-0.00013806
-8.76517e-05
-4.69316e-05
-1.43141e-05
1.15434e-05
3.1776e-05
4.73421e-05
5.90495e-05
6.75778e-05
7.34983e-05
7.72903e-05
7.93547e-05
8.00268e-05
7.95859e-05
7.82642e-05
7.62544e-05
7.37154e-05
7.07775e-05
6.75475e-05
6.41119e-05
6.05404e-05
5.68888e-05
5.32014e-05
4.95124e-05
4.58482e-05
4.22278e-05
3.86647e-05
3.51675e-05
3.17413e-05
2.83877e-05
2.51056e-05
2.18923e-05
1.87433e-05
1.56521e-05
1.26119e-05
9.61468e-06
6.65194e-06
3.7149e-06
7.94316e-07
-2.11853e-06
-5.0336e-06
-7.95609e-06
-1.09076e-05
-1.38576e-05
-1.69863e-05
6.54207e-06
6.56847e-06
6.63666e-06
6.75048e-06
6.90196e-06
7.09065e-06
7.31783e-06
7.58516e-06
7.89389e-06
8.24498e-06
8.63954e-06
9.07895e-06
9.56466e-06
1.00982e-05
1.06811e-05
1.13149e-05
1.20011e-05
1.27411e-05
1.35361e-05
1.43873e-05
1.52954e-05
1.62606e-05
1.7283e-05
1.83614e-05
1.9494e-05
2.0678e-05
2.1909e-05
2.3181e-05
2.44856e-05
2.58124e-05
2.71482e-05
2.84759e-05
2.9773e-05
3.10121e-05
3.21611e-05
3.31806e-05
3.40189e-05
3.4612e-05
3.48878e-05
3.47642e-05
3.41358e-05
3.28639e-05
3.0786e-05
2.77306e-05
2.35052e-05
1.78525e-05
1.04239e-05
8.09345e-07
-1.14041e-05
-2.66394e-05
-4.54429e-05
-6.8611e-05
-9.7178e-05
-0.00013226
-0.000174925
-0.00022629
-0.000287876
-0.000361909
-0.00045121
-0.000558612
-0.000686225
-0.000835135
-0.00100595
-0.0011993
-0.00141452
-0.0016459
-0.00187833
-0.00208171
-0.00220458
-0.00217731
-0.0019584
-0.00161831
-0.00133617
-0.00124559
-0.00131729
-0.00141856
-0.00140886
-0.0011792
-0.000691535
2.46746e-05
0.000956835
0.00214002
0.00358669
0.00526782
0.0071634
0.00925091
0.0114498
0.013629
0.0156679
0.0174914
0.0190541
0.0203201
0.0212687
0.0219001
0.0222256
0.0222594
0.0220172
0.0215129
0.0207576
0.019761
0.0185325
0.0170845
0.0154333
0.0136008
0.0116142
0.00950573
0.00730909
0.00505735
0.00278036
0.000501617
-0.00176349
-0.00400669
-0.00622229
-0.00839918
-0.010511
-0.0125091
-0.0143219
-0.0158657
-0.017063
-0.0178625
-0.0182549
-0.0182778
-0.0179982
-0.0174737
-0.0167399
-0.0158459
-0.0148651
-0.0138448
-0.0127973
-0.0117448
-0.0107048
-0.00964167
-0.00852034
-0.0074004
-0.00641287
-0.00567212
-0.00522188
-0.00498673
-0.00478083
-0.00445066
-0.00399238
-0.00348704
-0.00299003
-0.00252419
-0.00210479
-0.0017388
-0.00142453
-0.00115745
-0.000932401
-0.000743854
-0.000586562
-0.000455871
-0.000347707
-0.000258545
-0.000185376
-0.00012564
-7.71635e-05
-3.81056e-05
-6.91146e-06
1.77324e-05
3.69337e-05
5.16258e-05
6.25943e-05
7.04994e-05
7.58955e-05
7.92471e-05
8.09425e-05
8.13061e-05
8.06081e-05
7.90727e-05
7.68859e-05
7.42009e-05
7.11432e-05
6.78154e-05
6.43003e-05
6.06648e-05
5.69621e-05
5.32345e-05
4.95143e-05
4.58265e-05
4.21889e-05
3.86139e-05
3.51092e-05
3.1679e-05
2.83243e-05
2.50437e-05
2.18339e-05
1.86897e-05
1.56047e-05
1.25715e-05
9.58194e-06
6.62731e-06
3.69862e-06
7.86454e-07
-2.1181e-06
-5.02521e-06
-7.9403e-06
-1.08852e-05
-1.38295e-05
-1.69548e-05
6.50128e-06
6.52759e-06
6.59554e-06
6.70892e-06
6.85981e-06
7.04773e-06
7.27398e-06
7.54026e-06
7.8478e-06
8.1976e-06
8.59079e-06
9.02874e-06
9.51296e-06
1.0045e-05
1.06265e-05
1.12589e-05
1.19439e-05
1.26829e-05
1.34773e-05
1.43283e-05
1.52367e-05
1.62031e-05
1.72274e-05
1.8309e-05
1.94462e-05
2.06364e-05
2.18759e-05
2.3159e-05
2.44778e-05
2.58224e-05
2.71806e-05
2.85364e-05
2.98681e-05
3.11491e-05
3.23496e-05
3.34322e-05
3.4347e-05
3.50311e-05
3.54155e-05
3.5424e-05
3.49561e-05
3.38738e-05
3.2016e-05
2.92209e-05
2.53128e-05
2.00453e-05
1.30664e-05
3.96132e-06
-7.66703e-06
-2.21978e-05
-4.01377e-05
-6.22862e-05
-8.97187e-05
-0.00012358
-0.000164901
-0.000214718
-0.000274531
-0.000346723
-0.000434456
-0.000540976
-0.000668713
-0.000818943
-0.00099266
-0.0011915
-0.00141642
-0.00166351
-0.00191844
-0.00214948
-0.00229758
-0.0022749
-0.00202045
-0.00161603
-0.00129012
-0.00121257
-0.00134269
-0.00151753
-0.00157249
-0.00138069
-0.000905052