/*--------------------------------*- C++ -*----------------------------------*\
| =========                 |                                                 |
| \\      /  F ield         | OpenFOAM: The Open Source CFD Toolbox           |
|  \\    /   O peration     | Version:  v2006                                 |
|   \\  /    A nd           | Website:  www.openfoam.com                      |
|    \\/     M anipulation  |                                                 |
\*---------------------------------------------------------------------------*/
FoamFile
{
    version     2.0;
    format      ascii;
    class       volVectorField;
    location    "0";
    object      U;
}
// * * * * * * * * * * * * * * * * * * * * * * * * * * * * * * * * * * * * * //

dimensions      [0 1 -1 0 0 0 0];


internalField   nonuniform List<vector> 
20000
(
(1 9.70605e-12 0)
(1 2.76542e-11 0)
(1 4.66608e-11 0)
(1 6.78289e-11 0)
(1 9.10886e-11 0)
(1 1.16009e-10 0)
(1 1.41996e-10 0)
(1 1.67922e-10 0)
(1 1.9197e-10 0)
(1 2.11732e-10 0)
(1 2.24645e-10 0)
(1 2.2851e-10 0)
(1 2.21527e-10 0)
(1 2.02389e-10 0)
(1 1.71315e-10 0)
(1 1.30404e-10 0)
(1 8.3367e-11 0)
(1 3.51101e-11 0)
(1 -9.02547e-12 0)
(1 -4.44212e-11 0)
(1 -6.71199e-11 0)
(1 -7.64466e-11 0)
(1 -7.54638e-11 0)
(1 -7.70895e-11 0)
(1 -9.47984e-11 0)
(1 -1.35598e-10 0)
(1 -2.03493e-10 0)
(1 -3.02669e-10 0)
(1 -4.38432e-10 0)
(1 -6.17628e-10 0)
(1 -8.49015e-10 0)
(1 -1.14363e-09 0)
(1 -1.51515e-09 0)
(1 -1.98027e-09 0)
(1 -2.55903e-09 0)
(1 -3.27533e-09 0)
(1 -4.15778e-09 0)
(1 -5.24121e-09 0)
(1 -6.56874e-09 0)
(1 -8.19385e-09 0)
(1 -1.01818e-08 0)
(1 -1.26103e-08 0)
(1 -1.55693e-08 0)
(1 -1.91591e-08 0)
(1 -2.34863e-08 0)
(1 -2.86598e-08 0)
(1 -3.47879e-08 0)
(1 -4.19782e-08 0)
(1 -5.03374e-08 0)
(1 -5.9966e-08 0)
(1 -7.09455e-08 0)
(1 -8.33161e-08 0)
(1 -9.7044e-08 0)
(1 -1.11964e-07 0)
(1.00001 -1.27692e-07 0)
(1.00001 -1.43642e-07 0)
(1.00001 -1.59243e-07 0)
(1.00001 -1.7359e-07 0)
(1.00001 -1.83615e-07 0)
(1.00001 -1.84463e-07 0)
(1.00001 -1.78989e-07 0)
(1.00001 -1.84714e-07 0)
(1.00001 -1.99183e-07 0)
(1.00002 -1.41935e-07 0)
(1.00002 6.06324e-08 0)
(1.00002 3.06126e-07 0)
(1.00001 5.36228e-07 0)
(1.00001 7.32777e-07 0)
(1.00001 9.07179e-07 0)
(1.00001 1.07337e-06 0)
(1.00001 1.23401e-06 0)
(1.00001 1.37882e-06 0)
(1 1.48911e-06 0)
(1 1.54518e-06 0)
(0.999999 1.53332e-06 0)
(0.999996 1.45008e-06 0)
(0.999993 1.30306e-06 0)
(0.99999 1.10798e-06 0)
(0.999987 8.81415e-07 0)
(0.999984 6.36341e-07 0)
(0.999981 3.81912e-07 0)
(0.999979 1.25413e-07 0)
(0.999976 -1.25563e-07 0)
(0.999974 -3.61928e-07 0)
(0.999971 -5.73294e-07 0)
(0.999969 -7.48774e-07 0)
(0.999968 -8.78056e-07 0)
(0.999967 -9.5305e-07 0)
(0.999966 -9.68444e-07 0)
(0.999965 -9.23277e-07 0)
(0.999965 -8.25124e-07 0)
(0.999965 -6.98094e-07 0)
(0.999965 -5.84938e-07 0)
(0.999966 -5.24615e-07 0)
(0.999967 -5.13656e-07 0)
(0.999969 -5.38808e-07 0)
(0.999972 -5.88e-07 0)
(0.999976 -6.51455e-07 0)
(0.99998 -7.17139e-07 0)
(0.999986 -7.57244e-07 0)
(0.999992 -7.10778e-07 0)
(0.999998 -4.75659e-07 0)
(1 6.39915e-08 0)
(1.00001 9.48855e-07 0)
(1.00001 1.97413e-06 0)
(1.00001 2.7231e-06 0)
(1.00001 3.14903e-06 0)
(1 3.32496e-06 0)
(1 3.32578e-06 0)
(0.999998 3.19409e-06 0)
(0.999994 2.94876e-06 0)
(0.99999 2.60018e-06 0)
(0.999985 2.15993e-06 0)
(0.999981 1.64528e-06 0)
(0.999976 1.07718e-06 0)
(0.999971 4.80769e-07 0)
(0.999966 -1.14824e-07 0)
(0.999961 -6.78514e-07 0)
(0.999957 -1.18028e-06 0)
(0.999953 -1.59405e-06 0)
(0.999949 -1.90021e-06 0)
(0.999946 -2.08738e-06 0)
(0.999944 -2.15325e-06 0)
(0.999942 -2.10456e-06 0)
(0.99994 -1.95566e-06 0)
(0.999939 -1.72618e-06 0)
(0.999939 -1.44445e-06 0)
(0.999938 -1.15244e-06 0)
(0.999938 -9.00183e-07 0)
(0.999939 -7.38127e-07 0)
(0.99994 -6.58232e-07 0)
(0.999942 -6.37144e-07 0)
(0.999945 -6.49181e-07 0)
(0.999948 -6.67836e-07 0)
(0.999952 -6.70095e-07 0)
(0.999956 -6.4216e-07 0)
(0.99996 -5.83274e-07 0)
(0.999964 -5.04863e-07 0)
(0.999967 -4.24435e-07 0)
(0.999969 -3.5718e-07 0)
(0.999971 -3.10426e-07 0)
(0.999973 -2.83683e-07 0)
(0.999975 -2.72066e-07 0)
(0.999977 -2.69491e-07 0)
(0.999979 -2.70475e-07 0)
(0.99998 -2.70964e-07 0)
(0.999982 -2.68524e-07 0)
(0.999984 -2.6211e-07 0)
(0.999986 -2.51668e-07 0)
(0.999987 -2.37756e-07 0)
(0.999989 -2.21236e-07 0)
(0.99999 -2.03051e-07 0)
(0.999992 -1.84085e-07 0)
(0.999993 -1.65087e-07 0)
(0.999994 -1.46643e-07 0)
(0.999995 -1.29176e-07 0)
(0.999995 -1.12962e-07 0)
(0.999996 -9.8155e-08 0)
(0.999997 -8.48147e-08 0)
(0.999997 -7.29292e-08 0)
(0.999998 -6.24382e-08 0)
(0.999998 -5.325e-08 0)
(0.999998 -4.52552e-08 0)
(0.999999 -3.83369e-08 0)
(0.999999 -3.23782e-08 0)
(0.999999 -2.72666e-08 0)
(0.999999 -2.28974e-08 0)
(0.999999 -1.91746e-08 0)
(1 -1.60111e-08 0)
(1 -1.33275e-08 0)
(1 -1.10513e-08 0)
(1 -9.11581e-09 0)
(1 -7.45995e-09 0)
(1 -6.02879e-09 0)
(1 -4.77494e-09 0)
(1 -3.66102e-09 0)
(1 -2.66148e-09 0)
(1 -1.76286e-09 0)
(1 -9.62456e-10 0)
(1 -2.69728e-10 0)
(1 2.94754e-10 0)
(1 7.08152e-10 0)
(1 9.30793e-10 0)
(1 9.33993e-10 0)
(1 7.95815e-10 0)
(1 6.06636e-10 0)
(1 4.18234e-10 0)
(1 2.49828e-10 0)
(1 1.05584e-10 0)
(1 -1.58557e-11 0)
(1 -1.17442e-10 0)
(1 -2.02411e-10 0)
(1 -2.73943e-10 0)
(1 -3.35409e-10 0)
(1 -3.82872e-10 0)
(1 -4.12037e-10 0)
(1 -4.35282e-10 0)
(1 -4.33439e-10 0)
(1 -4.91626e-10 0)
(1 -4.23384e-10 0)
(1 1.8616e-11 0)
(1 5.07481e-11 0)
(1 8.0348e-11 0)
(1 1.10169e-10 0)
(1 1.40866e-10 0)
(1 1.71866e-10 0)
(1 2.02694e-10 0)
(1 2.32605e-10 0)
(1 2.60504e-10 0)
(1 2.85141e-10 0)
(1 3.05362e-10 0)
(1 3.20241e-10 0)
(1 3.2902e-10 0)
(1 3.31485e-10 0)
(1 3.28437e-10 0)
(1 3.2107e-10 0)
(1 3.10545e-10 0)
(1 2.97676e-10 0)
(1 2.82367e-10 0)
(1 2.63061e-10 0)
(1 2.37324e-10 0)
(1 2.00522e-10 0)
(1 1.46615e-10 0)
(1 6.26947e-11 0)
(1 -6.49315e-11 0)
(1 -2.47101e-10 0)
(1 -4.95844e-10 0)
(1 -8.2621e-10 0)
(1 -1.25683e-09 0)
(1 -1.81061e-09 0)
(1 -2.51572e-09 0)
(1 -3.40671e-09 0)
(1 -4.52564e-09 0)
(1 -5.92333e-09 0)
(1 -7.66044e-09 0)
(1 -9.80902e-09 0)
(1 -1.24551e-08 0)
(1 -1.57033e-08 0)
(1 -1.96831e-08 0)
(1 -2.45548e-08 0)
(1 -3.05141e-08 0)
(1 -3.7794e-08 0)
(1 -4.66642e-08 0)
(1 -5.74252e-08 0)
(1 -7.03975e-08 0)
(1 -8.59081e-08 0)
(1 -1.04283e-07 0)
(1 -1.25845e-07 0)
(1 -1.50912e-07 0)
(1 -1.79781e-07 -2.44847e-42)
(1 -2.12691e-07 -2.99025e-42)
(1 -2.49759e-07 0)
(1 -2.90897e-07 0)
(1 -3.3568e-07 0)
(1.00001 -3.83141e-07 0)
(1.00001 -4.31564e-07 0)
(1.00001 -4.7834e-07 0)
(1.00001 -5.19734e-07 0)
(1.00001 -5.50497e-07 0)
(1.00001 -5.64939e-07 0)
(1.00001 -5.61353e-07 0)
(1.00001 -5.43305e-07 0)
(1.00001 -5.01893e-07 0)
(1.00002 -3.93126e-07 0)
(1.00002 -2.00871e-07 0)
(1.00002 -3.29534e-08 0)
(1.00002 7.23034e-08 0)
(1.00002 1.0281e-07 0)
(1.00003 6.29861e-08 0)
(1.00003 -2.98255e-08 0)
(1.00003 -1.43846e-07 0)
(1.00004 -2.35496e-07 0)
(1.00005 -2.62878e-07 0)
(1.00005 -2.01808e-07 0)
(1.00006 -5.4065e-08 0)
(1.00006 1.5893e-07 0)
(1.00006 4.09988e-07 0)
(1.00007 6.68105e-07 0)
(1.00007 9.19185e-07 0)
(1.00006 1.15757e-06 0)
(1.00006 1.37846e-06 0)
(1.00006 1.57465e-06 0)
(1.00005 1.73664e-06 0)
(1.00004 1.85349e-06 0)
(1.00003 1.91386e-06 0)
(1.00002 1.90922e-06 0)
(1.00002 1.83735e-06 0)
(1.00001 1.70221e-06 0)
(0.999997 1.51179e-06 0)
(0.999989 1.27504e-06 0)
(0.999982 9.99623e-07 0)
(0.999977 6.88721e-07 0)
(0.999973 3.34081e-07 0)
(0.999971 -7.2464e-08 0)
(0.999971 -5.11027e-07 0)
(0.999972 -9.63265e-07 0)
(0.999974 -1.41577e-06 0)
(0.999977 -1.857e-06 0)
(0.999982 -2.27436e-06 0)
(0.999988 -2.6485e-06 0)
(0.999995 -2.94688e-06 0)
(1 -3.11982e-06 0)
(1.00001 -3.1087e-06 0)
(1.00002 -2.88093e-06 0)
(1.00004 -2.53333e-06 0)
(1.00006 -2.29207e-06 0)
(1.00008 -2.09854e-06 0)
(1.00009 -1.8724e-06 0)
(1.00011 -1.56659e-06 0)
(1.00012 -1.16547e-06 0)
(1.00014 -6.70475e-07 0)
(1.00015 -9.23058e-08 0)
(1.00015 5.53041e-07 0)
(1.00016 1.23199e-06 0)
(1.00015 1.91242e-06 0)
(1.00015 2.55962e-06 0)
(1.00014 3.13643e-06 0)
(1.00013 3.60751e-06 0)
(1.00011 3.94353e-06 0)
(1.00009 4.12478e-06 0)
(1.00007 4.14362e-06 0)
(1.00005 4.00514e-06 0)
(1.00003 3.72601e-06 0)
(1.00001 3.3321e-06 0)
(0.999992 2.85641e-06 0)
(0.999978 2.33588e-06 0)
(0.999966 1.80201e-06 0)
(0.999957 1.27209e-06 0)
(0.999951 7.48427e-07 0)
(0.999947 2.1773e-07 0)
(0.999945 -3.00061e-07 0)
(0.999946 -7.81676e-07 0)
(0.999947 -1.19931e-06 0)
(0.99995 -1.51651e-06 0)
(0.999953 -1.69842e-06 0)
(0.999957 -1.72943e-06 0)
(0.99996 -1.62634e-06 0)
(0.999964 -1.43732e-06 0)
(0.999967 -1.22482e-06 0)
(0.999969 -1.04108e-06 0)
(0.999971 -9.12269e-07 0)
(0.999973 -8.39373e-07 0)
(0.999975 -8.09208e-07 0)
(0.999977 -8.0445e-07 0)
(0.999979 -8.09239e-07 0)
(0.99998 -8.11798e-07 0)
(0.999982 -8.05095e-07 0)
(0.999984 -7.86173e-07 0)
(0.999986 -7.54988e-07 0)
(0.999987 -7.13292e-07 0)
(0.999989 -6.63721e-07 0)
(0.99999 -6.09134e-07 0)
(0.999992 -5.52198e-07 0)
(0.999993 -4.95171e-07 0)
(0.999994 -4.39815e-07 0)
(0.999995 -3.87398e-07 0)
(0.999995 -3.38748e-07 0)
(0.999996 -2.94327e-07 0)
(0.999997 -2.5431e-07 0)
(0.999997 -2.18661e-07 0)
(0.999998 -1.87198e-07 0)
(0.999998 -1.59644e-07 0)
(0.999998 -1.35671e-07 0)
(0.999999 -1.14928e-07 0)
(0.999999 -9.7063e-08 0)
(0.999999 -8.17375e-08 0)
(0.999999 -6.86354e-08 0)
(0.999999 -5.74673e-08 0)
(1 -4.79725e-08 0)
(1 -3.99188e-08 0)
(1 -3.3101e-08 0)
(1 -2.73392e-08 0)
(1 -2.24761e-08 0)
(1 -1.83756e-08 0)
(1 -1.492e-08 0)
(1 -1.20095e-08 0)
(1 -9.55951e-09 0)
(1 -7.49963e-09 0)
(1 -5.77092e-09 0)
(1 -4.32709e-09 0)
(1 -3.13344e-09 0)
(1 -2.16205e-09 0)
(1 -1.40815e-09 0)
(1 -8.7501e-10 0)
(1 -4.98802e-10 0)
(1 -2.19976e-10 0)
(1 -6.8106e-12 0)
(1 1.54946e-10 0)
(1 2.74068e-10 0)
(1 3.57046e-10 0)
(1 4.09455e-10 0)
(1 4.36116e-10 0)
(1 4.41059e-10 0)
(1 4.27614e-10 0)
(1 4.05021e-10 0)
(1 3.79887e-10 0)
(1 3.45091e-10 0)
(1 3.12462e-10 0)
(1 2.32134e-10 0)
(1 2.2385e-10 0)
(1 2.17594e-11 0)
(1 6.00174e-11 0)
(1 9.22252e-11 0)
(1 1.22486e-10 0)
(1 1.52905e-10 0)
(1 1.83214e-10 0)
(1 2.13591e-10 0)
(1 2.44516e-10 0)
(1 2.76664e-10 0)
(1 3.10915e-10 0)
(1 3.48104e-10 0)
(1 3.88638e-10 0)
(1 4.32443e-10 0)
(1 4.79067e-10 0)
(1 5.26987e-10 0)
(1 5.73004e-10 0)
(1 6.12614e-10 0)
(1 6.40391e-10 0)
(1 6.50337e-10 0)
(1 6.36326e-10 0)
(1 5.91832e-10 0)
(1 5.10067e-10 0)
(1 3.83544e-10 0)
(1 2.04375e-10 0)
(1 -3.87927e-11 0)
(1 -3.63134e-10 0)
(1 -7.91167e-10 0)
(1 -1.35013e-09 0)
(1 -2.07258e-09 0)
(1 -2.99773e-09 0)
(1 -4.17317e-09 0)
(1 -5.65687e-09 0)
(1 -7.51918e-09 0)
(1 -9.84483e-09 0)
(1 -1.2735e-08 0)
(1 -1.63096e-08 0)
(1 -2.07118e-08 0)
(1 -2.6116e-08 0)
(1 -3.27374e-08 0)
(1 -4.08432e-08 0)
(1 -5.07589e-08 0)
(1 -6.28724e-08 0)
(1 -7.76325e-08 0)
(1 -9.554e-08 0)
(1 -1.17129e-07 0)
(1 -1.42944e-07 0)
(1 -1.73529e-07 0)
(1 -2.09423e-07 0)
(1 -2.51158e-07 0)
(1 -2.99235e-07 0)
(1 -3.54055e-07 0)
(1 -4.15826e-07 0)
(1 -4.84419e-07 0)
(1 -5.59156e-07 0)
(1.00001 -6.38496e-07 0)
(1.00001 -7.19589e-07 0)
(1.00001 -7.978e-07 0)
(1.00001 -8.66717e-07 0)
(1.00001 -9.19096e-07 0)
(1.00001 -9.47546e-07 0)
(1.00001 -9.42706e-07 0)
(1.00001 -8.93209e-07 0)
(1.00001 -8.00516e-07 0)
(1.00002 -7.00623e-07 0)
(1.00002 -6.37788e-07 0)
(1.00002 -6.10843e-07 0)
(1.00002 -6.26409e-07 0)
(1.00002 -7.10544e-07 0)
(1.00002 -8.89315e-07 0)
(1.00002 -1.15758e-06 0)
(1.00002 -1.46185e-06 0)
(1.00002 -1.70703e-06 0)
(1.00002 -1.78948e-06 0)
(1.00003 -1.64289e-06 0)
(1.00003 -1.26522e-06 0)
(1.00003 -7.08729e-07 0)
(1.00003 -4.85461e-08 0)
(1.00003 6.49387e-07 0)
(1.00003 1.34463e-06 0)
(1.00002 2.01706e-06 0)
(1.00002 2.65364e-06 0)
(1.00002 3.23786e-06 0)
(1.00001 3.74706e-06 0)
(1.00001 4.15295e-06 0)
(1 4.42415e-06 0)
(0.999997 4.53398e-06 0)
(0.999991 4.46912e-06 0)
(0.999986 4.23121e-06 0)
(0.999981 3.83149e-06 0)
(0.999977 3.28621e-06 0)
(0.999973 2.61748e-06 0)
(0.999971 1.855e-06 0)
(0.999969 1.03531e-06 0)
(0.999968 1.92148e-07 0)
(0.999969 -6.55072e-07 0)
(0.99997 -1.49329e-06 0)
(0.999973 -2.3103e-06 0)
(0.999976 -3.09348e-06 0)
(0.999981 -3.83043e-06 0)
(0.999987 -4.51197e-06 0)
(0.999993 -5.13668e-06 0)
(1 -5.71334e-06 0)
(1.00001 -6.25343e-06 0)
(1.00002 -6.74434e-06 0)
(1.00002 -7.10436e-06 0)
(1.00003 -7.20047e-06 0)
(1.00004 -6.99395e-06 0)
(1.00005 -6.49819e-06 0)
(1.00006 -5.73399e-06 0)
(1.00006 -4.71519e-06 0)
(1.00007 -3.45675e-06 0)
(1.00007 -1.98402e-06 0)
(1.00007 -3.37153e-07 0)
(1.00007 1.42367e-06 0)
(1.00007 3.22311e-06 0)
(1.00006 4.97082e-06 0)
(1.00005 6.56895e-06 0)
(1.00004 7.92258e-06 0)
(1.00003 8.9503e-06 0)
(1.00002 9.59381e-06 0)
(1.00001 9.8247e-06 0)
(0.999997 9.64679e-06 0)
(0.999986 9.09391e-06 0)
(0.999975 8.22498e-06 0)
(0.999966 7.11796e-06 0)
(0.999958 5.86083e-06 0)
(0.999952 4.54e-06 0)
(0.999947 3.22956e-06 0)
(0.999944 1.98386e-06 0)
(0.999943 8.37451e-07 0)
(0.999943 -1.99045e-07 0)
(0.999944 -1.11664e-06 0)
(0.999946 -1.88844e-06 0)
(0.999949 -2.46626e-06 0)
(0.999953 -2.79965e-06 0)
(0.999956 -2.86768e-06 0)
(0.99996 -2.70248e-06 0)
(0.999964 -2.38847e-06 0)
(0.999967 -2.03348e-06 0)
(0.999969 -1.72704e-06 0)
(0.999971 -1.5134e-06 0)
(0.999973 -1.39376e-06 0)
(0.999975 -1.34551e-06 0)
(0.999977 -1.33934e-06 0)
(0.999979 -1.34863e-06 0)
(0.99998 -1.35369e-06 0)
(0.999982 -1.34289e-06 0)
(0.999984 -1.31142e-06 0)
(0.999986 -1.25931e-06 0)
(0.999987 -1.18958e-06 0)
(0.999989 -1.10669e-06 0)
(0.99999 -1.01546e-06 0)
(0.999992 -9.20347e-07 0)
(0.999993 -8.25128e-07 0)
(0.999994 -7.32741e-07 0)
(0.999995 -6.45295e-07 0)
(0.999995 -5.64165e-07 0)
(0.999996 -4.9011e-07 0)
(0.999997 -4.23418e-07 0)
(0.999997 -3.6402e-07 0)
(0.999998 -3.11608e-07 0)
(0.999998 -2.65717e-07 0)
(0.999998 -2.25796e-07 0)
(0.999999 -1.91259e-07 0)
(0.999999 -1.61518e-07 0)
(0.999999 -1.36007e-07 0)
(0.999999 -1.14198e-07 0)
(0.999999 -9.56091e-08 0)
(1 -7.98059e-08 0)
(1 -6.64033e-08 0)
(1 -5.50624e-08 0)
(1 -4.54882e-08 0)
(1 -3.74248e-08 0)
(1 -3.06516e-08 0)
(1 -2.49789e-08 0)
(1 -2.0243e-08 0)
(1 -1.63025e-08 0)
(1 -1.30349e-08 0)
(1 -1.03341e-08 0)
(1 -8.10705e-09 0)
(1 -6.27107e-09 0)
(1 -4.75323e-09 0)
(1 -3.4864e-09 0)
(1 -2.41625e-09 0)
(1 -1.52247e-09 0)
(1 -7.95224e-10 0)
(1 -2.18847e-10 0)
(1 2.27405e-10 0)
(1 5.64651e-10 0)
(1 8.11391e-10 0)
(1 9.83373e-10 0)
(1 1.09387e-09 0)
(1 1.15404e-09 0)
(1 1.17379e-09 0)
(1 1.16033e-09 0)
(1 1.11765e-09 0)
(1 1.05389e-09 0)
(1 9.60355e-10 0)
(1 8.92414e-10 0)
(1 7.14604e-10 0)
(1 3.01633e-11 0)
(1 8.65057e-11 0)
(1 1.36583e-10 0)
(1 1.85697e-10 0)
(1 2.3673e-10 0)
(1 2.89132e-10 0)
(1 3.42806e-10 0)
(1 3.97823e-10 0)
(1 4.54131e-10 0)
(1 5.1157e-10 0)
(1 5.69764e-10 0)
(1 6.27952e-10 0)
(1 6.84851e-10 0)
(1 7.38396e-10 0)
(1 7.8568e-10 0)
(1 8.23327e-10 0)
(1 8.47805e-10 0)
(1 8.55441e-10 0)
(1 8.42337e-10 0)
(1 8.03948e-10 0)
(1 7.34191e-10 0)
(1 6.24567e-10 0)
(1 4.62543e-10 0)
(1 2.31437e-10 0)
(1 -9.02968e-11 0)
(1 -5.29114e-10 0)
(1 -1.11629e-09 0)
(1 -1.88909e-09 0)
(1 -2.89221e-09 0)
(1 -4.17978e-09 0)
(1 -5.81785e-09 0)
(1 -7.88703e-09 0)
(1 -1.04853e-08 0)
(1 -1.37309e-08 0)
(1 -1.77651e-08 0)
(1 -2.27552e-08 0)
(1 -2.89013e-08 0)
(1 -3.64465e-08 0)
(1 -4.56921e-08 0)
(1 -5.70109e-08 0)
(1 -7.08581e-08 0)
(1 -8.77754e-08 0)
(1 -1.0839e-07 0)
(1 -1.33403e-07 0)
(1 -1.63561e-07 0)
(1 -1.99627e-07 0)
(1 -2.42362e-07 0)
(1 -2.92522e-07 0)
(1 -3.50859e-07 0)
(1 -4.18086e-07 0)
(1 -4.94784e-07 0)
(1 -5.81265e-07 0)
(1 -6.77376e-07 0)
(1 -7.82198e-07 0)
(1 -8.93592e-07 0)
(1.00001 -1.00761e-06 0)
(1.00001 -1.11796e-06 0)
(1.00001 -1.2158e-06 0)
(1.00001 -1.28984e-06 0)
(1.00001 -1.32768e-06 0)
(1.00001 -1.31922e-06 0)
(1.00001 -1.26084e-06 0)
(1.00001 -1.15519e-06 0)
(1.00002 -1.00711e-06 0)
(1.00002 -8.26937e-07 0)
(1.00002 -6.41847e-07 0)
(1.00002 -5.15156e-07 0)
(1.00002 -5.06265e-07 0)
(1.00002 -6.48312e-07 0)
(1.00002 -9.27986e-07 0)
(1.00002 -1.2714e-06 0)
(1.00002 -1.55271e-06 0)
(1.00002 -1.63798e-06 0)
(1.00003 -1.44471e-06 0)
(1.00003 -9.74351e-07 0)
(1.00003 -2.97946e-07 0)
(1.00003 4.87783e-07 0)
(1.00003 1.30401e-06 0)
(1.00003 2.10374e-06 0)
(1.00002 2.86782e-06 0)
(1.00002 3.58469e-06 0)
(1.00002 4.23598e-06 0)
(1.00001 4.79485e-06 0)
(1.00001 5.22744e-06 0)
(1 5.49598e-06 0)
(0.999997 5.56911e-06 0)
(0.999991 5.43351e-06 0)
(0.999986 5.0953e-06 0)
(0.999981 4.57192e-06 0)
(0.999977 3.88551e-06 0)
(0.999973 3.06128e-06 0)
(0.99997 2.12646e-06 0)
(0.999969 1.10877e-06 0)
(0.999968 3.51845e-08 0)
(0.999968 -1.07022e-06 0)
(0.99997 -2.18308e-06 0)
(0.999972 -3.28079e-06 0)
(0.999976 -4.34223e-06 0)
(0.999981 -5.34547e-06 0)
(0.999986 -6.26448e-06 0)
(0.999993 -7.06616e-06 0)
(1 -7.71036e-06 0)
(1.00001 -8.15635e-06 0)
(1.00002 -8.37719e-06 0)
(1.00002 -8.36656e-06 0)
(1.00003 -8.1221e-06 0)
(1.00004 -7.65754e-06 0)
(1.00005 -6.95521e-06 0)
(1.00006 -5.99165e-06 0)
(1.00006 -4.75374e-06 0)
(1.00007 -3.24695e-06 0)
(1.00007 -1.49753e-06 0)
(1.00007 4.45367e-07 0)
(1.00007 2.51393e-06 0)
(1.00007 4.61566e-06 0)
(1.00006 6.64178e-06 0)
(1.00005 8.47662e-06 0)
(1.00004 1.00088e-05 0)
(1.00003 1.1144e-05 0)
(1.00002 1.18161e-05 0)
(1.00001 1.19956e-05 0)
(0.999997 1.16917e-05 0)
(0.999986 1.0949e-05 0)
(0.999975 9.84112e-06 0)
(0.999966 8.4638e-06 0)
(0.999958 6.92436e-06 0)
(0.999952 5.32476e-06 0)
(0.999947 3.74253e-06 0)
(0.999944 2.22394e-06 0)
(0.999942 7.94154e-07 0)
(0.999942 -5.33677e-07 0)
(0.999943 -1.73699e-06 0)
(0.999946 -2.76668e-06 0)
(0.999949 -3.54428e-06 0)
(0.999952 -3.98939e-06 0)
(0.999957 -4.06574e-06 0)
(0.99996 -3.81547e-06 0)
(0.999964 -3.3579e-06 0)
(0.999967 -2.84712e-06 0)
(0.999969 -2.41052e-06 0)
(0.999971 -2.1095e-06 0)
(0.999973 -1.94355e-06 0)
(0.999975 -1.87891e-06 0)
(0.999977 -1.87324e-06 0)
(0.999979 -1.88853e-06 0)
(0.99998 -1.89704e-06 0)
(0.999982 -1.88254e-06 0)
(0.999984 -1.83851e-06 0)
(0.999986 -1.76522e-06 0)
(0.999987 -1.66707e-06 0)
(0.999989 -1.55044e-06 0)
(0.99999 -1.42216e-06 0)
(0.999992 -1.28853e-06 0)
(0.999993 -1.15485e-06 0)
(0.999994 -1.02524e-06 0)
(0.999995 -9.0264e-07 0)
(0.999995 -7.88956e-07 0)
(0.999996 -6.8524e-07 0)
(0.999997 -5.91874e-07 0)
(0.999997 -5.08753e-07 0)
(0.999998 -4.35432e-07 0)
(0.999998 -3.71252e-07 0)
(0.999998 -3.15436e-07 0)
(0.999999 -2.67158e-07 0)
(0.999999 -2.2559e-07 0)
(0.999999 -1.89941e-07 0)
(0.999999 -1.5947e-07 0)
(0.999999 -1.33501e-07 0)
(1 -1.11427e-07 0)
(1 -9.27072e-08 0)
(1 -7.68651e-08 0)
(1 -6.34847e-08 0)
(1 -5.22043e-08 0)
(1 -4.27108e-08 0)
(1 -3.4735e-08 0)
(1 -2.80463e-08 0)
(1 -2.24487e-08 0)
(1 -1.77761e-08 0)
(1 -1.38892e-08 0)
(1 -1.06705e-08 0)
(1 -8.02195e-09 0)
(1 -5.86191e-09 0)
(1 -4.1191e-09 0)
(1 -2.7278e-09 0)
(1 -1.63078e-09 0)
(1 -7.73543e-10 0)
(1 -1.10118e-10 0)
(1 3.95787e-10 0)
(1 7.72236e-10 0)
(1 1.04188e-09 0)
(1 1.22333e-09 0)
(1 1.33205e-09 0)
(1 1.38106e-09 0)
(1 1.38139e-09 0)
(1 1.34144e-09 0)
(1 1.26828e-09 0)
(1 1.17122e-09 0)
(1 1.0482e-09 0)
(1 9.44563e-10 0)
(1 7.03974e-10 0)
(1 3.9014e-11 0)
(1 1.11492e-10 0)
(1 1.75381e-10 0)
(1 2.37183e-10 0)
(1 3.00453e-10 0)
(1 3.64449e-10 0)
(1 4.29029e-10 0)
(1 4.94352e-10 0)
(1 5.60617e-10 0)
(1 6.28149e-10 0)
(1 6.97221e-10 0)
(1 7.67651e-10 0)
(1 8.38513e-10 0)
(1 9.08015e-10 0)
(1 9.73487e-10 0)
(1 1.03133e-09 0)
(1 1.07676e-09 0)
(1 1.10372e-09 0)
(1 1.10487e-09 0)
(1 1.07143e-09 0)
(1 9.92967e-10 0)
(1 8.56938e-10 0)
(1 6.47719e-10 0)
(1 3.45911e-10 0)
(1 -7.33195e-11 0)
(1 -6.41647e-10 0)
(1 -1.39842e-09 0)
(1 -2.3914e-09 0)
(1 -3.67811e-09 0)
(1 -5.32822e-09 0)
(1 -7.42662e-09 0)
(1 -1.00768e-08 0)
(1 -1.34046e-08 0)
(1 -1.75614e-08 0)
(1 -2.27285e-08 0)
(1 -2.91206e-08 0)
(1 -3.69939e-08 0)
(1 -4.66602e-08 0)
(1 -5.85056e-08 0)
(1 -7.30087e-08 0)
(1 -9.07528e-08 0)
(1 -1.12432e-07 0)
(1 -1.38852e-07 0)
(1 -1.70912e-07 0)
(1 -2.09573e-07 0)
(1 -2.55815e-07 0)
(1 -3.10615e-07 0)
(1 -3.74951e-07 0)
(1 -4.49799e-07 0)
(1 -5.36092e-07 0)
(1 -6.34606e-07 0)
(1 -7.45779e-07 0)
(1 -8.69468e-07 0)
(1 -1.00457e-06 0)
(1 -1.14844e-06 0)
(1.00001 -1.29608e-06 0)
(1.00001 -1.4393e-06 0)
(1.00001 -1.56651e-06 0)
(1.00001 -1.66348e-06 0)
(1.00001 -1.71527e-06 0)
(1.00001 -1.70786e-06 0)
(1.00001 -1.6301e-06 0)
(1.00001 -1.4794e-06 0)
(1.00002 -1.27246e-06 0)
(1.00002 -1.04958e-06 0)
(1.00002 -8.63639e-07 0)
(1.00002 -7.79513e-07 0)
(1.00002 -8.57144e-07 0)
(1.00002 -1.1341e-06 0)
(1.00002 -1.5927e-06 0)
(1.00002 -2.13222e-06 0)
(1.00002 -2.57727e-06 0)
(1.00002 -2.73933e-06 0)
(1.00003 -2.50083e-06 0)
(1.00003 -1.86205e-06 0)
(1.00003 -9.20781e-07 0)
(1.00003 1.88342e-07 0)
(1.00003 1.34956e-06 0)
(1.00003 2.49594e-06 0)
(1.00002 3.60006e-06 0)
(1.00002 4.64427e-06 0)
(1.00002 5.60145e-06 0)
(1.00001 6.43312e-06 0)
(1.00001 7.09101e-06 0)
(1 7.52073e-06 0)
(0.999997 7.67633e-06 0)
(0.999991 7.53719e-06 0)
(0.999986 7.10997e-06 0)
(0.999981 6.41739e-06 0)
(0.999976 5.48936e-06 0)
(0.999973 4.36214e-06 0)
(0.99997 3.07966e-06 0)
(0.999968 1.68826e-06 0)
(0.999968 2.31756e-07 0)
(0.999968 -1.25282e-06 0)
(0.999969 -2.73449e-06 0)
(0.999972 -4.18687e-06 0)
(0.999976 -5.58525e-06 0)
(0.99998 -6.90456e-06 0)
(0.999986 -8.11923e-06 0)
(0.999993 -9.20432e-06 0)
(1 -1.01362e-05 0)
(1.00001 -1.08898e-05 0)
(1.00002 -1.14322e-05 0)
(1.00002 -1.17125e-05 0)
(1.00003 -1.16625e-05 0)
(1.00004 -1.12351e-05 0)
(1.00005 -1.03973e-05 0)
(1.00006 -9.13421e-06 0)
(1.00006 -7.44729e-06 0)
(1.00007 -5.35531e-06 0)
(1.00007 -2.8996e-06 0)
(1.00007 -1.49951e-07 0)
(1.00007 2.79145e-06 0)
(1.00007 5.79381e-06 0)
(1.00006 8.70411e-06 0)
(1.00005 1.13577e-05 0)
(1.00004 1.35947e-05 0)
(1.00003 1.52781e-05 0)
(1.00002 1.63111e-05 0)
(1.00001 1.66476e-05 0)
(0.999997 1.62971e-05 0)
(0.999985 1.53192e-05 0)
(0.999975 1.38158e-05 0)
(0.999965 1.19207e-05 0)
(0.999957 9.78659e-06 0)
(0.999951 7.56045e-06 0)
(0.999946 5.35839e-06 0)
(0.999943 3.25521e-06 0)
(0.999942 1.29215e-06 0)
(0.999942 -5.11477e-07 0)
(0.999943 -2.13193e-06 0)
(0.999945 -3.51199e-06 0)
(0.999948 -4.55259e-06 0)
(0.999952 -5.14894e-06 0)
(0.999957 -5.25346e-06 0)
(0.999961 -4.92314e-06 0)
(0.999964 -4.31864e-06 0)
(0.999967 -3.64714e-06 0)
(0.999969 -3.07832e-06 0)
(0.999971 -2.69143e-06 0)
(0.999973 -2.48281e-06 0)
(0.999975 -2.40597e-06 0)
(0.999977 -2.40444e-06 0)
(0.999979 -2.42843e-06 0)
(0.99998 -2.44202e-06 0)
(0.999982 -2.42457e-06 0)
(0.999984 -2.36807e-06 0)
(0.999986 -2.27328e-06 0)
(0.999987 -2.14618e-06 0)
(0.999989 -1.99524e-06 0)
(0.99999 -1.82936e-06 0)
(0.999992 -1.65675e-06 0)
(0.999993 -1.48424e-06 0)
(0.999994 -1.31714e-06 0)
(0.999995 -1.1592e-06 0)
(0.999996 -1.01287e-06 0)
(0.999996 -8.7945e-07 0)
(0.999997 -7.59418e-07 0)
(0.999997 -6.5261e-07 0)
(0.999998 -5.58437e-07 0)
(0.999998 -4.76037e-07 0)
(0.999998 -4.04399e-07 0)
(0.999999 -3.42452e-07 0)
(0.999999 -2.89129e-07 0)
(0.999999 -2.43408e-07 0)
(0.999999 -2.04335e-07 0)
(0.999999 -1.71039e-07 0)
(1 -1.4274e-07 0)
(1 -1.18744e-07 0)
(1 -9.84416e-08 0)
(1 -8.13003e-08 0)
(1 -6.68592e-08 0)
(1 -5.47201e-08 0)
(1 -4.45402e-08 0)
(1 -3.60249e-08 0)
(1 -2.89214e-08 0)
(1 -2.30126e-08 0)
(1 -1.81122e-08 0)
(1 -1.40601e-08 0)
(1 -1.07193e-08 0)
(1 -7.97318e-09 0)
(1 -5.7227e-09 0)
(1 -3.88494e-09 0)
(1 -2.39627e-09 0)
(1 -1.20483e-09 0)
(1 -2.66489e-10 0)
(1 4.582e-10 0)
(1 1.00368e-09 0)
(1 1.39979e-09 0)
(1 1.67197e-09 0)
(1 1.84182e-09 0)
(1 1.92756e-09 0)
(1 1.94455e-09 0)
(1 1.90535e-09 0)
(1 1.82021e-09 0)
(1 1.70139e-09 0)
(1 1.54616e-09 0)
(1 1.40738e-09 0)
(1 1.096e-09 0)
(1 4.77501e-11 0)
(1 1.36136e-10 0)
(1 2.14057e-10 0)
(1 2.89558e-10 0)
(1 3.67124e-10 0)
(1 4.46003e-10 0)
(1 5.26153e-10 0)
(1 6.07872e-10 0)
(1 6.91447e-10 0)
(1 7.77194e-10 0)
(1 8.65192e-10 0)
(1 9.54852e-10 0)
(1 1.04466e-09 0)
(1 1.13202e-09 0)
(1 1.21315e-09 0)
(1 1.28296e-09 0)
(1 1.33513e-09 0)
(1 1.36229e-09 0)
(1 1.35619e-09 0)
(1 1.30764e-09 0)
(1 1.20581e-09 0)
(1 1.03701e-09 0)
(1 7.82913e-10 0)
(1 4.19305e-10 0)
(1 -8.53905e-11 0)
(1 -7.71037e-10 0)
(1 -1.68625e-09 0)
(1 -2.88936e-09 0)
(1 -4.45038e-09 0)
(1 -6.45402e-09 0)
(1 -9.0035e-09 0)
(1 -1.22247e-08 0)
(1 -1.62706e-08 0)
(1 -2.13256e-08 0)
(1 -2.76102e-08 0)
(1 -3.5386e-08 0)
(1 -4.49647e-08 0)
(1 -5.67258e-08 0)
(1 -7.11397e-08 0)
(1 -8.87897e-08 0)
(1 -1.10386e-07 0)
(1 -1.36775e-07 0)
(1 -1.68937e-07 0)
(1 -2.0797e-07 0)
(1 -2.55048e-07 0)
(1 -3.11368e-07 0)
(1 -3.78125e-07 0)
(1 -4.56517e-07 0)
(1 -5.47754e-07 0)
(1 -6.53006e-07 0)
(1 -7.73266e-07 0)
(1 -9.09125e-07 0)
(1 -1.06048e-06 0)
(1 -1.22611e-06 0)
(1 -1.40287e-06 0)
(1.00001 -1.58476e-06 0)
(1.00001 -1.7619e-06 0)
(1.00001 -1.92009e-06 0)
(1.00001 -2.04144e-06 0)
(1.00001 -2.10628e-06 0)
(1.00001 -2.09656e-06 0)
(1.00001 -2.00095e-06 0)
(1.00001 -1.82071e-06 0)
(1.00002 -1.57425e-06 0)
(1.00002 -1.29787e-06 0)
(1.00002 -1.04514e-06 0)
(1.00002 -8.93712e-07 0)
(1.00002 -9.28383e-07 0)
(1.00002 -1.20762e-06 0)
(1.00002 -1.71844e-06 0)
(1.00002 -2.34066e-06 0)
(1.00002 -2.85709e-06 0)
(1.00002 -3.03131e-06 0)
(1.00003 -2.71815e-06 0)
(1.00003 -1.92452e-06 0)
(1.00003 -7.7972e-07 0)
(1.00003 5.45165e-07 0)
(1.00003 1.91239e-06 0)
(1.00003 3.24688e-06 0)
(1.00003 4.52255e-06 0)
(1.00002 5.72393e-06 0)
(1.00002 6.82172e-06 0)
(1.00001 7.77177e-06 0)
(1.00001 8.51724e-06 0)
(1 8.9924e-06 0)
(0.999997 9.14164e-06 0)
(0.999991 8.94173e-06 0)
(0.999986 8.40361e-06 0)
(0.999981 7.5567e-06 0)
(0.999976 6.43705e-06 0)
(0.999972 5.08706e-06 0)
(0.99997 3.55569e-06 0)
(0.999968 1.8953e-06 0)
(0.999967 1.5474e-07 0)
(0.999967 -1.62459e-06 0)
(0.999969 -3.40638e-06 0)
(0.999972 -5.15789e-06 0)
(0.999975 -6.84826e-06 0)
(0.99998 -8.4459e-06 0)
(0.999986 -9.91598e-06 0)
(0.999992 -1.12187e-05 0)
(1 -1.2309e-05 0)
(1.00001 -1.31393e-05 0)
(1.00002 -1.36626e-05 0)
(1.00002 -1.38338e-05 0)
(1.00003 -1.36102e-05 0)
(1.00004 -1.29648e-05 0)
(1.00005 -1.18736e-05 0)
(1.00006 -1.03176e-05 0)
(1.00006 -8.29039e-06 0)
(1.00007 -5.80723e-06 0)
(1.00007 -2.91269e-06 0)
(1.00007 3.13845e-07 0)
(1.00007 3.75775e-06 0)
(1.00007 7.2671e-06 0)
(1.00006 1.06608e-05 0)
(1.00005 1.37441e-05 0)
(1.00005 1.63283e-05 0)
(1.00003 1.82528e-05 0)
(1.00002 1.94049e-05 0)
(1.00001 1.97335e-05 0)
(0.999997 1.92531e-05 0)
(0.999985 1.8038e-05 0)
(0.999974 1.62108e-05 0)
(0.999964 1.39321e-05 0)
(0.999956 1.13844e-05 0)
(0.99995 8.74212e-06 0)
(0.999946 6.13916e-06 0)
(0.999943 3.65663e-06 0)
(0.999941 1.33449e-06 0)
(0.999941 -8.10489e-07 0)
(0.999942 -2.7534e-06 0)
(0.999945 -4.42208e-06 0)
(0.999948 -5.68626e-06 0)
(0.999952 -6.40551e-06 0)
(0.999957 -6.5125e-06 0)
(0.999961 -6.07566e-06 0)
(0.999964 -5.29906e-06 0)
(0.999967 -4.44764e-06 0)
(0.99997 -3.73632e-06 0)
(0.999972 -3.2612e-06 0)
(0.999973 -3.01219e-06 0)
(0.999975 -2.92709e-06 0)
(0.999977 -2.93362e-06 0)
(0.999979 -2.96925e-06 0)
(0.99998 -2.98968e-06 0)
(0.999982 -2.97e-06 0)
(0.999984 -2.901e-06 0)
(0.999986 -2.78421e-06 0)
(0.999987 -2.62744e-06 0)
(0.999989 -2.4414e-06 0)
(0.99999 -2.2372e-06 0)
(0.999992 -2.02498e-06 0)
(0.999993 -1.81317e-06 0)
(0.999994 -1.60824e-06 0)
(0.999995 -1.41475e-06 0)
(0.999996 -1.23564e-06 0)
(0.999996 -1.07247e-06 0)
(0.999997 -9.25781e-07 0)
(0.999997 -7.95337e-07 0)
(0.999998 -6.80386e-07 0)
(0.999998 -5.79854e-07 0)
(0.999998 -4.92489e-07 0)
(0.999999 -4.16969e-07 0)
(0.999999 -3.51982e-07 0)
(0.999999 -2.96275e-07 0)
(0.999999 -2.48678e-07 0)
(0.999999 -2.08128e-07 0)
(1 -1.73669e-07 0)
(1 -1.44454e-07 0)
(1 -1.19737e-07 0)
(1 -9.88685e-08 0)
(1 -8.12833e-08 0)
(1 -6.64935e-08 0)
(1 -5.40795e-08 0)
(1 -4.36816e-08 0)
(1 -3.49931e-08 0)
(1 -2.77527e-08 0)
(1 -2.17389e-08 0)
(1 -1.67639e-08 0)
(1 -1.26682e-08 0)
(1 -9.31621e-09 0)
(1 -6.59134e-09 0)
(1 -4.39298e-09 0)
(1 -2.6367e-09 0)
(1 -1.2496e-09 0)
(1 -1.6941e-10 0)
(1 6.5703e-10 0)
(1 1.27349e-09 0)
(1 1.71628e-09 0)
(1 2.01565e-09 0)
(1 2.19689e-09 0)
(1 2.28117e-09 0)
(1 2.28618e-09 0)
(1 2.22669e-09 0)
(1 2.11449e-09 0)
(1 1.96337e-09 0)
(1 1.76981e-09 0)
(1 1.59559e-09 0)
(1 1.21728e-09 0)
(1 5.64319e-11 0)
(1 1.60763e-10 0)
(1 2.52816e-10 0)
(1 3.42093e-10 0)
(1 4.33831e-10 0)
(1 5.27094e-10 0)
(1 6.21769e-10 0)
(1 7.18122e-10 0)
(1 8.16399e-10 0)
(1 9.1691e-10 0)
(1 1.01976e-09 0)
(1 1.12437e-09 0)
(1 1.22911e-09 0)
(1 1.33111e-09 0)
(1 1.42614e-09 0)
(1 1.50861e-09 0)
(1 1.57151e-09 0)
(1 1.60656e-09 0)
(1 1.60419e-09 0)
(1 1.55323e-09 0)
(1 1.44011e-09 0)
(1 1.24767e-09 0)
(1 9.53701e-10 0)
(1 5.29493e-10 0)
(1 -6.17076e-11 0)
(1 -8.66077e-10 0)
(1 -1.94023e-09 0)
(1 -3.35247e-09 0)
(1 -5.18498e-09 0)
(1 -7.53737e-09 0)
(1 -1.05311e-08 0)
(1 -1.43142e-08 0)
(1 -1.90666e-08 0)
(1 -2.50053e-08 0)
(1 -3.23896e-08 0)
(1 -4.15274e-08 0)
(1 -5.27854e-08 0)
(1 -6.66097e-08 0)
(1 -8.35542e-08 0)
(1 -1.04306e-07 0)
(1 -1.29701e-07 0)
(1 -1.60734e-07 0)
(1 -1.9856e-07 0)
(1 -2.44475e-07 0)
(1 -2.99866e-07 0)
(1 -3.66147e-07 0)
(1 -4.44728e-07 0)
(1 -5.3703e-07 0)
(1 -6.44506e-07 0)
(1 -7.68581e-07 1.14751e-42)
(1 -9.10484e-07 1.40596e-42)
(1 -1.071e-06 0)
(1 -1.25011e-06 0)
(1 -1.44653e-06 0)
(1 -1.65676e-06 0)
(1.00001 -1.87388e-06 0)
(1.00001 -2.08623e-06 0)
(1.00001 -2.27677e-06 0)
(1.00001 -2.42393e-06 0)
(1.00001 -2.50422e-06 0)
(1.00001 -2.49606e-06 0)
(1.00001 -2.38454e-06 0)
(1.00001 -2.16719e-06 0)
(1.00002 -1.86191e-06 0)
(1.00002 -1.51359e-06 0)
(1.00002 -1.19636e-06 0)
(1.00002 -1.01239e-06 0)
(1.00002 -1.06953e-06 0)
(1.00002 -1.44169e-06 0)
(1.00002 -2.11454e-06 0)
(1.00002 -2.93831e-06 0)
(1.00002 -3.63659e-06 0)
(1.00002 -3.90637e-06 0)
(1.00003 -3.56188e-06 0)
(1.00003 -2.61206e-06 0)
(1.00003 -1.2208e-06 0)
(1.00003 3.96864e-07 0)
(1.00003 2.06585e-06 0)
(1.00003 3.6949e-06 0)
(1.00003 5.25662e-06 0)
(1.00002 6.73483e-06 0)
(1.00002 8.09359e-06 0)
(1.00001 9.27835e-06 0)
(1.00001 1.02185e-05 0)
(1 1.08308e-05 0)
(0.999997 1.10441e-05 0)
(0.999991 1.0829e-05 0)
(0.999985 1.01997e-05 0)
(0.99998 9.19247e-06 0)
(0.999976 7.85113e-06 0)
(0.999972 6.22734e-06 0)
(0.999969 4.38305e-06 0)
(0.999967 2.38354e-06 0)
(0.999966 2.88974e-07 0)
(0.999967 -1.8488e-06 0)
(0.999968 -3.98552e-06 0)
(0.999971 -6.08296e-06 0)
(0.999975 -8.10566e-06 0)
(0.99998 -1.00174e-05 0)
(0.999985 -1.17789e-05 0)
(0.999992 -1.33478e-05 0)
(0.999999 -1.46783e-05 0)
(1.00001 -1.57223e-05 0)
(1.00002 -1.64277e-05 0)
(1.00002 -1.67361e-05 0)
(1.00003 -1.65841e-05 0)
(1.00004 -1.59181e-05 0)
(1.00005 -1.46939e-05 0)
(1.00006 -1.2882e-05 0)
(1.00006 -1.04743e-05 0)
(1.00007 -7.49031e-06 0)
(1.00007 -3.98482e-06 0)
(1.00007 -5.46871e-08 0)
(1.00007 4.15637e-06 0)