/*--------------------------------*- C++ -*----------------------------------*\
| =========                 |                                                 |
| \\      /  F ield         | OpenFOAM: The Open Source CFD Toolbox           |
|  \\    /   O peration     | Version:  v2006                                 |
|   \\  /    A nd           | Website:  www.openfoam.com                      |
|    \\/     M anipulation  |                                                 |
\*---------------------------------------------------------------------------*/
FoamFile
{
    version     2.0;
    format      ascii;
    class       volScalarField;
    location    "0";
    object      shifted_f;
}
// * * * * * * * * * * * * * * * * * * * * * * * * * * * * * * * * * * * * * //

dimensions      [0 0 0 0 0 0 0];


internalField   nonuniform List<scalar> 
2500
(
0.00103765
0.00103768
0.00103772
0.0010378
0.00103794
0.00103786
0.00103791
0.00103803
0.00103801
0.00103801
0.00103814
0.00103809
0.00103823
0.00103829
0.00103827
0.0010384
0.00103838
0.0010384
0.0010385
0.00103851
0.00103863
0.00103865
0.00103864
0.00103865
0.00103879
0.00103874
0.00103884
0.00103887
0.00103896
0.00103906
0.00103895
0.00103908
0.0010391
0.00103911
0.00103916
0.00103921
0.0010392
0.00103929
0.00103918
0.00103936
0.00103946
0.00103942
0.00103953
0.0010396
0.00103959
0.00103958
0.00103959
0.00103964
0.00103967
0.00103968
0.00103975
0.00103976
0.00103989
0.00103984
0.00103993
0.0010399
0.00103991
0.00103996
0.00103992
0.00104005
0.00104014
0.00104023
0.00104018
0.00104032
0.00104025
0.00104024
0.0010403
0.00104028
0.00104034
0.0010404
0.00104038
0.00104038
0.00104043
0.00104053
0.00104048
0.0010406
0.0010406
0.00104056
0.00104067
0.00104067
0.00104078
0.00104076
0.00104066
0.00104073
0.0010408
0.00104079
0.00101624
0.00101626
0.00101633
0.00101634
0.00101635
0.00101648
0.00101652
0.0010166
0.00101666
0.00101661
0.00101661
0.00101671
0.00101667
0.00101671
0.00101678
0.00101681
0.00101684
0.00101684
0.00101695
0.001017
0.00101696
0.00101701
0.00101701
0.00101715
0.00101713
0.00101716
0.00101722
0.00101709
0.00101721
0.00101737
0.00101739
0.0010174
0.00101747
0.0010174
0.00101749
0.00101753
0.00101759
0.00101754
0.00101757
0.00101763
0.00101767
0.00101768
0.00101775
0.00101771
0.00101784
0.00101783
0.00101781
0.00101783
0.00101795
0.0010179
0.00101794
0.00101798
0.00101793
0.00101789
0.00101802
0.00101807
0.00101808
0.00101816
0.00101804
0.00101814
0.00101813
0.00101819
0.00101816
0.00101819
0.0010182
0.00101818
0.00101827
0.00101829
0.00101823
0.00101836
0.00101839
0.00101832
0.00101833
0.00101851
0.00101844
0.0010185
0.00101845
0.00101847
0.00101858
0.00101851
0.00101851
0.00101855
0.00101861
0.00101868
0.00101858
0.00101872
0.00101869
0.0010188
0.00101882
0.00101875
0.00101864
0.00101886
0.00101883
0.00101883
0.00101891
0.00101896
0.00101908
0.00101891
0.00101902
0.00101898
0.00101897
0.000940464
0.000940468
0.000940409
0.00094058
0.000940539
0.000940643
0.000940595
0.000940584
0.000940707
0.00094077
0.000940803
0.000940803
0.000940841
0.000940908
0.000940885
0.0009409
0.000940956
0.000941027
0.000941079
0.000941001
0.000941027
0.000941072
0.000941124
0.000941042
0.000941146
0.000941187
0.000941247
0.000941221
0.000941217
0.000941288
0.000941228
0.00094128
0.000941347
0.000941306
0.000941362
0.000941444
0.000941511
0.000941452
0.000941452
0.000941429
0.00094156
0.000941519
0.000941556
0.000941511
0.000941623
0.000941526
0.00094172
0.000941571
0.000941578
0.000941746
0.00094172
0.000941727
0.000941712
0.000941753
0.000941824
0.000941794
0.000941794
0.000941794
0.000941828
0.000941861
0.000941914
0.000941887
0.00094191
0.00094194
0.000941984
0.000941876
0.000941921
0.000942025
0.00094207
0.000942014
0.00094204
0.000942059
0.000942174
0.000942063
0.0009421
0.000942092
0.000942133
0.000942167
0.000942122
0.000942148
0.000942137
0.000942197
0.000942223
0.000942241
0.000942256
0.000942357
0.000942323
0.000942297
0.000942364
0.000942383
0.000942357
0.000942405
0.000942376
0.000942457
0.000942454
0.000942472
0.000942446
0.000942487
0.00094245
0.000942484
0.000942588
0.000817619
0.000817586
0.000817634
0.000817623
0.000817727
0.000817634
0.000817727
0.000817619
0.000817765
0.000817705
0.000817765
0.000817712
0.000817757
0.000817876
0.000817858
0.000817854
0.000817839
0.000817914
0.000817996
0.000817921
0.000817958
0.00081804
0.000817936
0.000818029
0.000818077
0.000818077
0.000818003
0.000818148
0.000818137
0.000818118
0.000818122
0.000818223
0.000818223
0.000818197
0.000818182
0.000818241
0.000818253
0.000818282
0.00081823
0.000818316
0.000818249
0.000818253
0.000818405
0.00081832
0.000818349
0.000818457
0.000818387
0.000818405
0.000818424
0.000818413
0.000818398
0.000818443
0.000818435
0.000818457
0.00081851
0.000818465
0.00081848
0.000818569
0.000818461
0.000818469
0.000818495
0.000818614
0.000818625
0.000818659
0.000818558
0.000818599
0.000818525
0.000818562
0.000818636
0.000818703
0.000818666
0.000818562
0.000818569
0.000818718
0.0008188
0.000818696
0.000818729
0.000818778
0.000818763
0.000818685
0.000818707
0.000818748
0.000818808
0.00081877
0.000818711
0.000818808
0.000818826
0.00081886
0.000818882
0.00081886
0.000818875
0.00081886
0.000818916
0.000818904
0.000819001
0.000818904
0.000818945
0.000818972
0.000818968
0.000819031
0.000818957
0.00066264
0.000662562
0.000662658
0.000662692
0.000662774
0.000662699
0.000662796
0.000662677
0.000662789
0.000662781
0.000662785
0.000662718
0.000662819
0.000662729
0.00066283
0.000662867
0.000662867
0.000662841
0.000662755
0.000662792
0.000662848
0.000662826
0.000662811
0.000662953
0.000662915
0.000662901
0.000662901
0.000662815
0.000662986
0.000662878
0.000662971
0.000663009
0.000663042
0.000662927
0.000663042
0.000662968
0.000662949
0.000663079
0.000663061
0.000663076
0.000663031
0.000663042
0.000663009
0.000663143
0.000663165
0.000663087
0.000663113
0.000663023
0.000663128
0.000663064
0.000663042
0.000663068
0.000663005
0.000663098
0.00066321
0.000663109
0.000663113
0.000663195
0.000663098
0.000663094
0.00066312
0.000663038
0.000663135
0.000663172
0.00066318
0.000663187
0.000663128
0.000663165
0.000663351
0.000663321
0.000663348
0.000663187
0.000663202
0.000663269
0.000663307
0.000663258
0.000663314
0.00066328
0.000663351
0.000663269
0.000663389
0.000663374
0.000663314
0.000663415
0.000663426
0.000663377
0.000663411
0.000663273
0.000663403
0.000663351
0.000663452
0.000663374
0.000663422
0.00066334
0.000663321
0.000663351
0.000663444
0.000663403
0.000663426
0.0006635
0.000663463
0.000496421
0.000496425
0.000496443
0.000496507
0.000496391
0.000496287
0.000496354
0.000496443
0.000496518
0.000496458
0.000496369
0.000496443
0.000496481
0.000496473
0.000496481
0.000496399
0.000496347
0.000496473
0.000496369
0.000496451
0.000496503
0.000496611
0.000496406
0.000496496
0.00049654
0.000496425
0.000496458
0.000496428
0.000496488
0.000496507
0.00049644
0.000496421
0.000496488
0.000496395
0.000496466
0.000496466
0.000496458
0.000496451
0.000496443
0.000496466
0.000496503
0.00049654
0.000496451
0.000496447
0.000496626
0.00049654
0.000496496
0.000496641
0.000496443
0.000496488
0.000496555
0.000496384
0.000496548
0.000496417
0.000496596
0.000496473
0.000496462
0.000496622
0.00049654
0.000496525
0.000496551
0.000496618
0.000496518
0.000496507
0.000496622
0.000496618
0.000496604
0.000496652
0.00049663
0.000496525
0.000496529
0.000496577
0.000496414
0.000496645
0.000496525
0.00049651
0.000496469
0.000496469
0.000496518
0.000496525
0.000496589
0.000496607
0.000496548
0.000496518
0.000496369
0.000496425
0.000496518
0.000496533
0.000496499
0.000496525
0.000496451
0.000496533
0.000496499
0.000496536
0.000496585
0.000496488
0.000496473
0.000496525
0.00049657
0.0004966
0.000496522
0.000341728
0.000341676
0.000341725
0.00034168
0.000341594
0.00034162
0.00034174
0.000341631
0.000341553
0.000341561
0.000341576
0.000341669
0.000341602
0.000341687
0.000341635
0.00034171
0.000341479
0.000341639
0.000341568
0.000341579
0.000341576
0.000341535
0.000341684
0.000341546
0.000341561
0.000341531
0.000341546
0.00034162
0.000341546
0.00034165
0.000341561
0.000341576
0.00034149
0.000341646
0.000341486
0.000341509
0.000341479
0.000341561
0.000341553
0.000341427
0.000341475
0.000341572
0.000341482
0.000341374
0.000341542
0.000341523
0.000341564
0.000341505
0.000341482
0.000341404
0.000341553
0.000341535
0.000341553
0.000341393
0.000341441
0.000341527
0.000341482
0.000341356
0.000341397
0.000341404
0.00034152
0.000341427
0.000341386
0.00034143
0.000341523
0.00034133
0.000341453
0.000341509
0.000341471
0.000341441
0.000341561
0.000341512
0.000341315
0.000341389
0.000341479
0.000341389
0.000341464
0.000341352
0.000341523
0.000341501
0.000341486
0.000341449
0.000341553
0.000341453
0.000341494
0.00034136
0.000341535
0.000341337
0.000341419
0.000341389
0.000341419
0.000341278
0.000341382
0.000341382
0.000341348
0.000341345
0.000341374
0.000341382
0.00034133
0.000341441
0.000341419
0.000219442
0.000219513
0.000219498
0.000219498
0.000219505
0.000219464
0.000219475
0.000219438
0.000219412
0.000219438
0.000219397
0.0002193
0.000219461
0.000219386
0.000219427
0.000219334
0.000219401
0.000219371
0.000219464
0.000219356
0.000219341
0.000219472
0.000219289
0.000219293
0.000219446
0.000219375
0.000219319
0.000219289
0.000219271
0.000219267
0.000219222
0.000219271
0.000219371
0.000219245
0.000219274
0.0002193
0.000219293
0.000219252
0.000219319
0.000219379
0.000219282
0.000219189
0.000219319
0.000219289
0.000219319
0.000219386
0.000219289
0.000219177
0.000219181
0.000219166
0.000219177
0.000219192
0.00021917
0.000219159
0.000219155
0.0002193
0.0002192
0.000219285
0.000219148
0.000219177
0.000219282
0.000219159
0.000219252
0.000219207
0.00021914
0.000219163
0.000219088
0.000219196
0.000219118
0.000219181
0.000219036
0.000219129
0.000219148
0.00021904
0.00021914
0.000219081
0.00021911
0.000219092
0.000219073
0.000219088
0.000219125
0.00021914
0.000218984
0.000219051
0.000219081
0.000219066
0.000219114
0.000219148
0.000219107
0.000219032
0.000219185
0.000219036
0.000219055
0.000219155
0.00021917
0.000219062
0.000219177
0.000219028
0.000219103
0.000219148
0.000219021
0.000145983
0.000145953
0.000146005
0.00014583
0.000145961
0.000145979
0.000145879
0.000145864
0.000145834
0.00014586
0.000145905
0.000145793
0.000145938
0.000145916
0.000145968
0.000145875
0.000145998
0.000145946
0.000145797
0.000145867
0.000145916
0.000145875
0.000145879
0.000145935
0.000146016
0.000145908
0.00014586
0.000145886
0.000145815
0.000145715
0.000145864
0.000145823
0.000145838
0.000145994
0.000145879
0.000145871
0.000145998
0.000145886
0.000145908
0.00014589
0.00014583
0.000145856
0.000145894
0.000145841
0.000145774
0.000145908
0.00014589
0.000145797
0.000145853
0.000145774
0.000145834
0.000145968
0.000145998
0.000145968
0.000145931
0.000145871
0.000145823
0.000145849
0.000145856
0.000145946
0.000145864
0.000145931
0.000146016
0.000145998
0.000146005
0.000145797
0.000145998
0.000145804
0.00014589
0.00014605
0.000145882
0.000146128
0.000145849
0.000145912
0.000145841
0.000145715
0.000145789
0.000145797
0.000145834
0.000145715
0.000145894
0.000145741
0.000145841
0.000145856
0.000145856
0.000145897
0.000145856
0.00014589
0.000145853
0.000145845
0.000145845
0.00014589
0.000145894
0.00014586
0.000145838
0.000145715
0.00014589
0.000145908
0.000145741
0.000145931
0.000145894
0.000131004
0.000131164
0.000131149
0.00013129
0.000131104
0.000131123
0.000131086
0.000131067
0.000131108
0.0001311
0.000131216
0.000131138
0.000131231
0.000131249
0.000131268
0.00013116
0.000131108
0.000131346
0.000131197
0.000131223
0.000131153
0.000131201
0.000131156
0.000131231
0.000131253
0.00013132
0.000131369
0.000131395
0.000131201
0.00013141
0.000131372
0.000131372
0.000131335
0.000131536
0.000131447
0.000131391
0.000131406
0.000131465
0.000131305
0.000131469
0.000131302
0.000131391
0.000131447
0.000131406
0.000131443
0.000131514
0.000131454
0.000131447
0.000131615
0.000131596
0.000131454
0.000131615
0.000131633
0.000131506
0.000131544
0.000131469
0.000131529
0.000131618
0.000131689
0.000131648
0.00013167
0.000131585
0.000131734
0.000131719
0.000131633
0.000131615
0.000131648
0.000131715
0.000131756
0.000131596
0.000131756
0.000131588
0.000131618
0.000131682
0.000131786
0.000131585
0.000131663
0.000131626
0.000131845
0.000131771
0.000131804
0.000131834
0.000131782
0.000131737
0.00013173
0.000131782
0.000131801
0.000131845
0.00013179
0.000131685
0.000131901
0.000131741
0.000131823
0.000131886
0.000131864
0.000131827
0.000131886
0.000132006
0.000131901
0.000131875
0.000131965
0.000178002
0.00017808
0.00017811
0.000178233
0.000178091
0.000178125
0.000178326
0.000178266
0.000178289
0.0001784
0.000178508
0.000178486
0.000178389
0.000178397
0.000178445
0.000178397
0.000178438
0.000178616
0.000178497
0.000178624
0.00017868
0.000178684
0.000178777
0.000178795
0.000178713
0.000178773
0.000178888
0.000178967
0.000178967
0.00017887
0.000178847
0.000178885
0.000178896
0.000179045
0.000178874
0.000178996
0.000179034
0.00017906
0.000179056
0.00017922
0.000179265
0.000179261
0.000179283
0.000179257
0.000179082
0.000179354
0.000179287
0.000179339
0.000179265
0.000179451
0.000179365
0.000179395
0.000179555
0.000179399
0.000179518
0.000179421
0.000179503
0.00017957
0.000179533
0.000179458
0.000179648
0.000179529
0.000179745
0.000179727
0.000179626
0.000179697
0.000179637
0.000179812
0.000179861
0.000179645
0.000179745
0.000179682
0.000179786
0.000179823
0.000179846
0.000179987
0.000179823
0.000179935
0.000180002
0.00017995
0.000179946
0.000180148
0.000180144
0.000180222
0.000180148
0.000180144
0.000180233
0.000180192
0.00018014
0.000180226
0.000180151
0.000180285
0.000180312
0.00018036
0.000180334
0.000180367
0.000180293
0.00018033
0.00018036
0.000180494
0.00018036
0.000284262
0.000284124
0.000284266
0.000284333
0.000284307
0.0002844
0.000284526
0.000284467
0.000284564
0.000284586
0.000284795
0.000284608
0.00028472
0.000284735
0.000284925
0.000285048
0.000284962
0.000285059
0.000285167
0.000285171
0.000285074
0.000285406
0.000285245
0.000285227
0.000285368
0.000285577
0.000285544
0.000285644
0.000285611
0.000285573
0.000285674
0.000285685
0.000285748
0.00028589
0.00028595
0.000285957
0.000285894
0.000285942
0.000286106
0.000286095
0.000285987
0.000286207
0.000286285
0.000286262
0.000286341
0.000286352
0.000286456
0.000286456
0.000286568
0.000286605
0.000286605
0.000286698
0.000286672
0.000286534
0.000286795
0.000286967
0.000286914
0.000286851
0.000286993
0.000287008
0.000287112
0.000287008
0.000287149
0.000287153
0.000287164
0.000287194
0.000287369
0.000287343
0.000287537
0.000287395
0.000287425
0.000287443
0.000287477
0.000287589
0.000287641
0.000287734
0.000287738
0.00028763
0.000287678
0.00028779
0.000287905
0.000288088
0.000287939
0.000287984
0.000287965
0.00028811
0.000288073
0.000288099
0.000288088
0.000288207
0.000288285
0.000288263
0.000288282
0.000288296
0.000288263
0.000288311
0.000288386
0.000288468
0.000288468
0.000288542
0.000288557
0.000441935
0.000441793
0.000441987
0.000442047
0.000442121
0.000442211
0.000442155
0.000442293
0.000442348
0.000442479
0.000442617
0.000442769
0.000442818
0.000442822
0.000442933
0.000443071
0.000443175
0.000443239
0.000443336
0.000443328
0.000443608
0.000443447
0.000443611
0.0004436
0.000443708
0.000443939
0.000443932
0.000443969
0.000444029
0.000444185
0.000444353
0.000444293
0.000444312
0.000444379
0.000444453
0.000444632
0.000444639
0.000444781
0.000444788
0.000444848
0.000445072
0.000445034
0.000445094
0.000445183
0.000445362
0.000445399
0.000445452
0.000445321
0.000445593
0.000445779
0.000445846
0.000445817
0.000445973
0.000445873
0.000446036
0.000446063
0.000446025
0.000446219
0.000446185
0.000446472
0.000446495
0.00044642
0.000446364
0.000446666
0.000446711
0.000446666
0.000446748
0.000446785
0.000446837
0.000446927
0.000447012
0.000447031
0.000447117
0.000447039
0.000447173
0.00044727
0.000447314
0.000447433
0.000447463
0.000447545
0.000447538
0.000447564
0.000447609
0.000447739
0.000447884
0.000447888
0.000447962
0.000448067
0.000448037
0.000448212
0.000448313
0.000448212
0.000448395
0.000448372
0.000448231
0.000448529
0.000448622
0.000448536
0.000448629
0.000448782
0.000448782
0.000640299
0.000640232
0.000640344
0.00064056
0.000640605
0.000640895
0.000640836
0.000641014
0.000641204
0.000641283
0.000641305
0.000641536
0.000641707
0.000641812
0.000641886
0.00064199
0.000642177
0.000642095
0.000642326
0.000642445
0.000642609
0.000642586
0.000642765
0.00064287
0.000643026
0.000643168
0.000643171
0.000643339
0.000643495
0.000643563
0.0006437
0.00064389
0.000643823
0.000644077
0.000644315
0.000644233
0.00064433
0.000644449
0.000644479
0.000644855
0.000644617
0.000644889
0.000644948
0.000644919
0.000645161
0.000645332
0.000645425
0.000645511
0.00064563
0.000645723
0.000645753
0.000645787
0.000646017
0.000646111
0.000646029
0.000646196
0.000646312
0.000646479
0.000646632
0.000646636
0.00064683
0.000646777
0.000646908
0.000647001
0.000647098
0.000647295
0.000647198
0.000647362
0.000647411
0.000647444
0.00064772
0.000647847
0.000647828
0.000648092
0.000648025
0.000648163
0.000648227
0.000648171
0.000648461
0.000648554
0.000648513
0.000648733
0.000648797
0.000648886
0.000648864
0.00064924
0.000649083
0.000649285
0.000649389
0.000649434
0.000649456
0.000649568
0.000649661
0.00064965
0.00064972
0.000649851
0.000649966
0.00065022
0.000650175
0.000650328
0.000650387
0.000867311
0.000867601
0.000867706
0.000867777
0.000868108
0.000868104
0.000868332
0.000868361
0.000868671
0.000868868
0.000868935
0.000869002
0.000869188
0.00086936
0.000869375
0.00086971
0.000869825
0.000870008
0.000870369
0.000870388
0.000870541
0.000870664
0.000870805
0.000870988
0.000871118
0.000871252
0.000871539
0.000871684
0.000871856
0.000871848
0.000872057
0.000872001
0.000872325
0.000872429
0.000872578
0.000872713
0.000872925
0.00087313
0.00087307
0.000873398
0.000873443
0.000873584
0.000873584
0.000873957
0.000873994
0.000874046
0.000874173
0.000874449
0.000874516
0.00087459
0.000874672
0.000874948
0.000875007
0.000875168
0.000875335
0.000875425
0.000875581
0.000875853
0.000875741
0.000876006
0.000876162
0.000876226
0.000876401
0.000876401
0.000876706
0.000876896
0.000876851
0.000877101
0.000877257
0.000877131
0.000877392
0.000877507
0.000877578
0.000877816
0.000877935
0.000878051
0.000878017
0.000878263
0.000878345
0.000878569
0.000878524
0.000878867
0.000878993
0.000879046
0.000879098
0.000879247
0.000879299
0.000879448
0.00087956
0.000879612
0.000879798
0.000879947
0.000880204
0.000880178
0.00088029
0.000880342
0.000880525
0.000880521
0.000880789
0.000880968
0.000880957
0.000156488
0.000156496
0.000156477
0.000156425
0.000156462
0.000156458
0.000156391
0.000156373
0.000156354
0.000156391
0.000156354
0.000156332
0.00015628
0.000156287
0.00015628
0.00015625
0.000156261
0.000156209
0.000156246
0.000156194
0.000156183
0.000156116
0.000156138
0.000156146
0.00015609
0.000156078
0.000156045
0.000156064
0.000156056
0.000156004
0.000155993
0.000155985
0.000156
0.000155963
0.000155941
0.000155911
0.000155874
0.000155877
0.00015587
0.000155799
0.000155829
0.000155821
0.000155807
0.000155784
0.00015571
0.000155792
0.000155751
0.000155728
0.000155713
0.000155687
0.000155725
0.000155665
0.000155576
0.000155658
0.000155587
0.000155557
0.000155572
0.000155549
0.000155553
0.000155494
0.000155557
0.000155512
0.000155505
0.000155427
0.000155471
0.000155434
0.000155374
0.000155378
0.00015536
0.000155348
0.000155333
0.000155289
0.000155281
0.000155266
0.000155311
0.000155266
0.000155255
0.000155237
0.000155177
0.000155151
0.000155181
0.000155151
0.00015514
0.000155106
0.000155106
0.000155032
0.000154998
0.000155032
0.000155013
0.000154983
0.000155017
0.000154953
0.000154965
0.000154909
0.000154894
0.00015486
0.00015486
0.000154842
0.000154857
0.000154749
0.000154763
0.000115138
0.000115074
0.000115044
0.000115037
0.000114989
0.000114985
0.00011497
0.000114981
0.00011491
0.000114918
0.000114899
0.000114866
0.000114843
0.00011478
0.00011478
0.000114832
0.000114724
0.000114676
0.000114687
0.000114709
0.00011465
0.000114642
0.00011462
0.000114582
0.000114564
0.000114515
0.000114493
0.000114486
0.000114437
0.000114448
0.000114411
0.000114374
0.000114389
0.000114348
0.000114303
0.000114303
0.000114288
0.000114266
0.000114229
0.00011418
0.000114165
0.000114176
0.000114169
0.000114117
0.000114065
0.000114042
0.000114061
0.000113972
0.00011402
0.000113927
0.000113975
0.000113878
0.000113886
0.000113875
0.000113826
0.000113819
0.000113796
0.000113726
0.000113737
0.000113666
0.000113703
0.000113644
0.000113659
0.000113614
0.000113577
0.000113506
0.000113517
0.00011351
0.000113495
0.000113439
0.000113428
0.00011342
0.000113368
0.000113346
0.000113286
0.000113282
0.000113267
0.000113275
0.000113156
0.000113182
0.000113137
0.000113085
0.000113059
0.000113036
0.00011301
0.000113014
0.000113003
0.000112943
0.000112921
0.000112865
0.000112932
0.000112843
0.000112806
0.000112776
0.000112694
0.000112709
0.000112727
0.000112671
0.000112649
0.000112589
0.000112578
7.23638e-05
7.23191e-05
7.22185e-05
7.21924e-05
7.21961e-05
7.21365e-05
7.21291e-05
7.21142e-05
7.20546e-05
7.21402e-05
7.20918e-05
7.20322e-05
7.20397e-05
7.19838e-05
7.19465e-05
7.19242e-05
7.18944e-05
7.18832e-05
7.18683e-05
7.1764e-05
7.17677e-05
7.17342e-05
7.17193e-05
7.16783e-05
7.16634e-05
7.16746e-05
7.16187e-05
7.15777e-05
7.16224e-05
7.15628e-05
7.1533e-05
7.14958e-05
7.14101e-05
7.14138e-05
7.13952e-05
7.13468e-05
7.13952e-05
7.13505e-05
7.13021e-05
7.12909e-05
7.12462e-05
7.11977e-05
7.1153e-05
7.1153e-05
7.11493e-05
7.11195e-05
7.10413e-05
7.09966e-05
7.08736e-05
7.09482e-05
7.0937e-05
7.08923e-05
7.08699e-05
7.08848e-05
7.07991e-05
7.07954e-05
7.07582e-05
7.07023e-05
7.06799e-05
7.06948e-05
7.06501e-05
7.06017e-05
7.05682e-05
7.05235e-05
7.05384e-05
7.04899e-05
7.04713e-05
7.0408e-05
7.03968e-05
7.03633e-05
7.02962e-05
7.02702e-05
7.03074e-05
7.01696e-05
7.01658e-05
7.01398e-05
7.00764e-05
7.00913e-05
7.00392e-05
6.99796e-05
6.99721e-05
6.99423e-05
6.99125e-05
6.98455e-05
6.98157e-05
6.9838e-05
6.97747e-05
6.97449e-05
6.97523e-05
6.96443e-05
6.96443e-05
6.96257e-05
6.95772e-05
6.95288e-05
6.94767e-05
6.94171e-05
6.9432e-05
6.93388e-05
6.93202e-05
6.92867e-05
6.92382e-05
3.5882e-05
3.58783e-05
3.58261e-05
3.58112e-05
3.5882e-05
3.58e-05
3.57591e-05
3.57516e-05
3.57479e-05
3.56995e-05
3.5651e-05
3.57032e-05
3.56287e-05
3.56846e-05
3.56175e-05
3.56287e-05
3.55653e-05
3.55616e-05
3.55728e-05
3.55281e-05
3.54573e-05
3.5435e-05
3.54312e-05
3.54275e-05
3.54052e-05
3.53716e-05
3.53493e-05
3.53791e-05
3.53269e-05
3.52785e-05
3.52375e-05
3.52189e-05
3.52338e-05
3.52263e-05
3.52003e-05
3.51816e-05
3.5163e-05
3.51518e-05
3.50736e-05
3.49917e-05
3.50326e-05
3.49917e-05
3.49917e-05
3.49246e-05
3.49618e-05
3.49432e-05
3.4865e-05
3.48985e-05
3.48501e-05
3.48464e-05
3.48315e-05
3.47868e-05
3.47495e-05
3.47234e-05
3.47048e-05
3.46527e-05
3.4634e-05
3.4634e-05
3.45893e-05
3.4567e-05
3.46005e-05
3.45372e-05
3.45595e-05
3.4377e-05
3.44142e-05
3.44552e-05
3.44031e-05
3.43621e-05
3.43435e-05
3.43136e-05
3.43025e-05
3.42503e-05
3.4228e-05
3.42093e-05
3.41944e-05
3.4146e-05
3.41758e-05
3.41311e-05
3.40678e-05
3.40305e-05
3.39784e-05
3.40305e-05
3.39523e-05
3.39635e-05
3.39337e-05
3.3889e-05
3.38331e-05
3.38256e-05
3.37623e-05
3.38182e-05
3.37362e-05
3.3699e-05
3.37362e-05
3.36692e-05
3.36766e-05
3.3617e-05
3.36058e-05
3.35127e-05
3.35053e-05
3.3468e-05
3.34904e-05
2.52314e-05
2.52239e-05
2.52128e-05
2.5209e-05
2.51755e-05
2.51979e-05
2.51941e-05
2.52165e-05
2.52128e-05
2.52314e-05
2.52128e-05
2.51718e-05
2.5209e-05
2.51718e-05
2.5209e-05
2.51904e-05
2.52314e-05
2.51718e-05
2.5183e-05
2.51979e-05
2.51643e-05
2.525e-05
2.5209e-05
2.51308e-05
2.51234e-05
2.51718e-05
2.52314e-05
2.51718e-05
2.52053e-05
2.52165e-05
2.51457e-05
2.51606e-05
2.51718e-05
2.51681e-05
2.51569e-05
2.51345e-05
2.5183e-05
2.51457e-05
2.51345e-05
2.51122e-05
2.51345e-05
2.5142e-05
2.51643e-05
2.50675e-05
2.50861e-05
2.50936e-05
2.51457e-05
2.51085e-05
2.51271e-05
2.51196e-05
2.51569e-05
2.51643e-05
2.51457e-05
2.51308e-05
2.50936e-05
2.51159e-05
2.50638e-05
2.50861e-05
2.50936e-05
2.50414e-05
2.50936e-05
2.50675e-05
2.50712e-05
2.5101e-05
2.50302e-05
2.50526e-05
2.50749e-05
2.50377e-05
2.50898e-05
2.50153e-05
2.5019e-05
2.50228e-05
2.50749e-05
2.50079e-05
2.5034e-05
2.506e-05
2.49892e-05
2.50563e-05
2.5034e-05
2.50116e-05
2.49594e-05
2.50004e-05
2.5019e-05
2.49892e-05
2.49632e-05
2.50079e-05
2.49706e-05
2.50116e-05
2.49892e-05
2.49594e-05
2.49781e-05
2.4911e-05
2.49818e-05
2.49185e-05
2.49557e-05
2.49483e-05
2.49594e-05
2.49892e-05
2.49408e-05
2.49185e-05
2.49743e-05
6.49467e-05
6.49951e-05
6.49989e-05
6.50585e-05
6.50659e-05
6.50883e-05
6.51367e-05
6.51143e-05
6.51479e-05
6.51553e-05
6.52038e-05
6.52559e-05
6.52447e-05
6.5323e-05
6.53565e-05
6.52671e-05
6.53155e-05
6.53304e-05
6.54161e-05
6.54198e-05
6.54534e-05
6.55055e-05
6.5513e-05
6.55539e-05
6.55465e-05
6.56284e-05
6.56359e-05
6.55986e-05
6.56582e-05
6.56582e-05
6.57141e-05
6.57216e-05
6.57849e-05
6.58147e-05
6.58222e-05
6.58557e-05
6.58929e-05
6.58967e-05
6.59451e-05
6.59563e-05
6.59563e-05
6.60047e-05
6.59823e-05
6.60457e-05
6.60196e-05
6.615e-05
6.60941e-05
6.6191e-05
6.62059e-05
6.62282e-05
6.62655e-05
6.62692e-05
6.63027e-05
6.63437e-05
6.63772e-05
6.64257e-05
6.64182e-05
6.64406e-05
6.64629e-05
6.64815e-05
6.65337e-05
6.66082e-05
6.65486e-05
6.66194e-05
6.66678e-05
6.66603e-05
6.67088e-05
6.67237e-05
6.68429e-05
6.68094e-05
6.68056e-05
6.68131e-05
6.6895e-05
6.68801e-05
6.69397e-05
6.69807e-05
6.69584e-05
6.7085e-05
6.70664e-05
6.70627e-05
6.70999e-05
6.7167e-05
6.71893e-05
6.72303e-05
6.7275e-05
6.73607e-05
6.73532e-05
6.73644e-05
6.73942e-05
6.74501e-05
6.74613e-05
6.74836e-05
6.75097e-05
6.75581e-05
6.7655e-05
6.76364e-05
6.76438e-05
6.76475e-05
6.76773e-05
6.77183e-05
6.78226e-05
0.000161584
0.000161652
0.000161614
0.000161625
0.000161801
0.000161786
0.000161827
0.000161875
0.00016186
0.000161935
0.000161938
0.000162013
0.000162043
0.000162106
0.000162151
0.000162192
0.000162221
0.0001623
0.000162311
0.000162359
0.000162371
0.000162464
0.00016252
0.000162516
0.000162549
0.000162635
0.00016265
0.000162713
0.000162739
0.000162829
0.000162844
0.000162888
0.000162888
0.000162967
0.000163008
0.000163071
0.000163089
0.000163078
0.000163216
0.000163257
0.000163302
0.000163313
0.000163365
0.000163391
0.000163462
0.000163496
0.000163555
0.00016357
0.000163667
0.000163693
0.000163756
0.000163708
0.000163767
0.000163909
0.000163935
0.000163935
0.000163954
0.000164058
0.000164103
0.000164166
0.000164155
0.000164259
0.000164296
0.000164308
0.000164386
0.000164468
0.000164483
0.00016458
0.000164628
0.000164717
0.00016471
0.000164732
0.000164747
0.000164855
0.000164907
0.000165004
0.000165008
0.000165105
0.000165105
0.000165131
0.000165228
0.000165273
0.000165295
0.000165358
0.000165425
0.000165533
0.000165578
0.000165612
0.000165671
0.000165753
0.000165734
0.000165839
0.000165857
0.000165906
0.000166025
0.000166062
0.000166144
0.000166144
0.000166249
0.000166278
0.000166308
0.000278872
0.000278916
0.000278909
0.000278927
0.000279054
0.000278994
0.000279076
0.000279106
0.000279147
0.00027917
0.000279199
0.000279251
0.000279315
0.000279304
0.000279386
0.000279415
0.000279404
0.000279468
0.000279475
0.000279557
0.000279583
0.000279605
0.000279646
0.000279695
0.000279669
0.000279762
0.000279717
0.000279795
0.00027984
0.000279874
0.000279937
0.000279989
0.00028
0.000280038
0.000280008
0.000280116
0.000280138
0.000280198
0.000280276
0.000280231
0.000280321
0.000280343
0.000280388
0.000280403
0.00028041
0.000280473
0.000280462
0.000280511
0.000280548
0.000280637
0.000280622
0.000280749
0.000280753
0.000280805
0.000280838
0.000280898
0.000280932
0.000280976
0.000281036
0.000281043
0.000281077
0.000281084
0.000281148
0.0002812
0.000281233
0.00028123
0.000281308
0.000281349
0.000281412
0.000281435
0.000281475
0.000281528
0.000281595
0.000281643
0.000281658
0.00028171
0.000281729
0.000281803
0.000281796
0.000281826
0.000281878
0.000281919
0.000281986
0.000282001
0.000282068
0.000282034
0.000282157
0.00028212
0.000282206
0.000282221
0.000282329
0.000282362
0.000282425
0.000282489
0.000282515
0.000282545
0.000282548
0.000282656
0.000282705
0.000282746
0.000282809
0.000353497
0.000353545
0.000353586
0.000353489
0.000353556
0.000353627
0.000353545
0.000353593
0.000353575
0.000353578
0.000353586
0.000353605
0.000353612
0.00035359
0.000353634
0.000353616
0.000353683
0.000353631
0.00035369
0.000353713
0.000353761
0.000353687
0.000353768
0.000353705
0.000353742
0.000353742
0.000353731
0.000353742
0.000353768
0.000353791
0.000353757
0.000353854
0.000353802
0.000353783
0.000353809
0.000353795
0.000353891
0.000353865
0.000353895
0.000353899
0.00035391
0.000353906
0.000353858
0.00035391
0.000353873
0.000353955
0.000353958
0.000353951
0.000353951
0.00035394
0.000353929
0.000353981
0.000353973
0.000354007
0.000354022
0.000354029
0.000353958
0.000353999
0.000354033
0.00035407
0.000354063
0.00035404
0.000354055
0.000354018
0.000354022
0.000354089
0.000354055
0.000354134
0.000354093
0.000354063
0.000354126
0.000354178
0.000354156
0.000354201
0.00035413
0.00035416
0.000354182
0.000354208
0.000354208
0.000354171
0.000354227
0.000354238
0.000354268
0.000354253
0.000354279
0.00035426
0.000354301
0.000354279
0.000354312
0.000354275
0.00035429
0.000354365
0.000354361
0.000354338
0.000354465
0.000354316
0.000354417
0.000354424
0.000354387
0.000354432
0.00035448
0.000347771
0.000347823
0.000347778
0.000347771
0.000347793
0.000347771
0.000347782
0.000347678
0.000347737
0.000347644
0.000347633
0.000347618
0.000347648
0.000347611
0.000347614
0.000347614
0.000347599
0.00034751
0.00034757
0.000347547
0.000347558
0.00034754
0.000347503
0.000347476
0.000347529
0.000347484
0.000347488
0.000347406
0.000347454
0.000347424
0.000347402
0.000347376
0.000347372
0.00034738
0.000347346
0.000347354
0.000347283
0.000347313
0.000347264
0.000347245
0.000347231
0.00034726
0.000347249
0.000347242
0.000347212
0.000347193
0.000347193
0.000347145
0.000347055
0.000347048
0.000347096
0.000347074
0.000347022
0.000347026
0.000346977
0.000346977
0.000346944
0.000346959