/*--------------------------------*- C++ -*----------------------------------*\
| =========                 |                                                 |
| \\      /  F ield         | OpenFOAM: The Open Source CFD Toolbox           |
|  \\    /   O peration     | Version:  v2006                                 |
|   \\  /    A nd           | Website:  www.openfoam.com                      |
|    \\/     M anipulation  |                                                 |
\*---------------------------------------------------------------------------*/
FoamFile
{
    version     2.0;
    format      ascii;
    class       volScalarField;
    location    "8";
    object      r;
}
// * * * * * * * * * * * * * * * * * * * * * * * * * * * * * * * * * * * * * //

dimensions      [1 2 0 0 0 0 0];


internalField   nonuniform List<scalar> 
350
(
-1.18619e-62
1.17812e-61
-9.9754e-61
8.19077e-60
-6.51018e-59
5.00477e-58
-3.71968e-57
2.67148e-56
-1.8531e-55
1.24077e-54
-8.01374e-54
4.98891e-53
-2.99107e-52
1.72532e-51
-9.56409e-51
5.08837e-50
-2.59427e-49
1.26524e-48
-5.89013e-48
2.6107e-47
-1.09824e-46
4.36738e-46
-1.63346e-45
5.70667e-45
-1.84445e-44
5.43613e-44
-1.42653e-43
3.18312e-43
-5.37264e-43
3.66148e-43
1.72105e-42
-8.95645e-42
2.33876e-41
-2.91949e-41
-5.20997e-41
4.092e-40
-1.18073e-39
1.49634e-39
2.79753e-39
-2.00022e-38
4.86447e-38
-2.4451e-38
-2.50751e-37
9.5021e-37
-1.22268e-36
-2.66873e-36
1.57121e-35
-2.65535e-35
-2.93395e-35
2.4709e-34
-4.45035e-34
-4.49317e-34
3.84226e-33
-6.14888e-33
-9.59987e-33
5.78768e-32
-6.40048e-32
-2.12033e-31
7.86972e-31
-2.54698e-31
-4.0316e-30
8.44985e-30
8.38055e-30
-6.00559e-29
4.65793e-29
2.55222e-28
-6.06916e-28
-5.29535e-28
3.83408e-27
-1.93733e-27
-1.72372e-26
2.85424e-26
5.59927e-26
-1.94136e-25
-9.36473e-26
1.00719e-24
-3.59867e-25
-4.4264e-24
4.67416e-24
1.71856e-23
-3.07725e-23
-6.02815e-23
1.62414e-22
1.94313e-22
-7.61567e-22
-5.89471e-22
3.31431e-21
1.77024e-21
-1.37011e-20
-5.80396e-21
5.44586e-20
2.30465e-20
-2.08888e-19
-1.09963e-19
7.69739e-19
5.65606e-19
-2.68797e-18
-2.85897e-18
8.66177e-18
1.35554e-17
-2.44289e-17
-5.89078e-17
5.24694e-17
2.30201e-16
-3.28008e-17
-7.86461e-16
-4.51884e-16
2.21707e-15
3.22704e-15
-4.35191e-15
-1.40429e-14
5.91068e-16
4.40957e-14
4.27585e-14
-8.92408e-14
-2.26531e-13
1.03165e-14
6.84146e-13
7.99113e-13
-9.9684e-13
-3.60035e-12
-1.91844e-12
7.64723e-12
1.61674e-11
1.80491e-12
-4.24513e-11
-6.92822e-11
9.44312e-12
2.04402e-10
3.05728e-10
-4.53188e-11
-8.96576e-10
-1.42589e-09
-1.32824e-10
3.51751e-09
6.77119e-09
3.42926e-09
-1.10473e-08
-3.00926e-08
-3.05736e-08
1.59156e-08
1.09705e-07
1.84901e-07
1.09481e-07
-2.3103e-07
-7.6803e-07
-1.09755e-06
-5.23785e-07
1.52855e-06
4.74523e-06
7.15651e-06
5.08815e-06
-5.37672e-06
-2.51027e-05
-4.75629e-05
-5.572e-05
-2.35552e-05
7.43589e-05
0.000243844
0.000445401
0.000570125
0.000431049
-0.000213039
-0.00158532
-0.00376051
-0.00647813
-0.00891583
-0.00945366
-0.00547117
0.00677698
0.0321663
0.0765611
0.146521
0.248868
0.390161
0.576126
0.811105
1.0976
1.43594
1.82415
2.25797
2.73108
3.23551
3.76205
4.30084
4.84194
5.37577
5.89365
6.38804
6.85285
7.28349
7.67692
8.03156
8.34713
8.62446
8.86528
9.072
9.24748
9.39485
9.51734
9.61813
9.70025
9.76651
9.81946
9.86136
9.89419
9.91969
9.93944
9.95481
9.96704
9.97716
9.98589
9.99349
9.99953
10.0027
10.0007
9.98981
9.96542
9.92175
9.8523
9.75031
9.60927
9.42348
9.18863
8.90222
8.56394
8.17577
7.74198
7.26888
6.76446
6.23794
5.69915
5.15806
4.62422
4.10635
3.61196
3.14715
2.71651
2.32308
1.96844
1.65287
1.37554
1.13472
0.927994
0.752509
0.60514
0.482664
0.381899
0.299801
0.233543
0.180559
0.138565
0.105569
0.0798604
0.0599932
0.044762
0.0331752
0.0244273
0.017871
0.0129925
0.00938777
0.00674231
0.00481378
0.00341697
0.00241174
0.00169274
0.00118164
0.000820418
0.000566655
0.000389342
0.000266186
0.000181057
0.000122579
8.25662e-05
5.53784e-05
3.69472e-05
2.45623e-05
1.62336e-05
1.07034e-05
7.00685e-06
4.58594e-06
2.97227e-06
1.93343e-06
1.23956e-06
8.02639e-07
5.08542e-07
3.28086e-07
2.05661e-07
1.31671e-07
8.25848e-08
5.12452e-08
3.36891e-08
1.85095e-08
1.48033e-08
5.18965e-09
7.7545e-09
-2.26551e-10
5.18752e-09
-2.36152e-09
4.1846e-09
-3.06094e-09
3.62675e-09
-3.07563e-09
3.11868e-09
-2.73559e-09
2.55426e-09
-2.21187e-09
1.93967e-09
-1.61334e-09
1.31977e-09
-1.01921e-09
7.45584e-10
-4.87673e-10
2.59155e-10
-5.72517e-11
-1.1297e-10
2.52788e-10
-3.61421e-10
4.40763e-10
-4.9243e-10
5.19242e-10
-5.24127e-10
5.10504e-10
-4.81822e-10
4.41593e-10
-3.93171e-10
3.39703e-10
-2.84011e-10
2.28551e-10
-1.75364e-10
1.26065e-10
-8.1843e-11
4.34803e-11
-1.13869e-11
-1.43553e-11
3.39416e-11
-4.77887e-11
5.64788e-11
-6.07051e-11
6.12211e-11
-5.87965e-11
5.41791e-11
-4.80643e-11
4.10736e-11
-3.37392e-11
2.64963e-11
-1.9681e-11
1.35303e-11
-8.17377e-12
3.78152e-12
)
;

boundaryField
{
    right
    {
        type            zeroGradient;
    }
    left
    {
        type            inletOutlet;
        inletValue      uniform 0;
        value           uniform 0;
    }
    top
    {
        type            zeroGradient;
    }
    bottom
    {
        type            zeroGradient;
    }
    empty
    {
        type            empty;
    }
}


// ************************************************************************* //
