/*--------------------------------*- C++ -*----------------------------------*\
| =========                 |                                                 |
| \\      /  F ield         | OpenFOAM: The Open Source CFD Toolbox           |
|  \\    /   O peration     | Version:  v2006                                 |
|   \\  /    A nd           | Website:  www.openfoam.com                      |
|    \\/     M anipulation  |                                                 |
\*---------------------------------------------------------------------------*/
FoamFile
{
    version     2.0;
    format      ascii;
    class       volScalarField;
    location    "1.6";
    object      p;
}
// * * * * * * * * * * * * * * * * * * * * * * * * * * * * * * * * * * * * * //

dimensions      [1 -1 -2 0 0 0 0];


internalField   nonuniform List<scalar> 
150000
(
19229.7
19228.9
19224
19220.8
19212.6
19205.5
19195
19183.7
19170.5
19155.8
19139.6
19121.7
19102.4
19081.6
19059.2
19035.5
19010.3
18983.7
18955.8
18926.6
18896
18864.3
18831.3
18797.2
18762
18725.7
18688.4
18650.1
18610.9
18570.8
18529.9
18488.3
18445.9
18402.9
18359.2
18315
18270.4
18225.3
18179.8
18134
18087.9
18041.6
17995.1
17948.5
17901.9
17855.3
17808.7
17762.2
17715.9
17669.8
17623.9
17578.3
17533.1
17488.2
17443.7
17399.7
17356.2
17313.1
17270.7
17228.8
17187.5
17146.9
17106.9
17067.6
17029
16991.1
16954
16917.6
16882
16847.2
16813.2
16779.9
16747.5
16715.9
16685.1
16655.2
16626
16597.7
16570.2
16543.6
16517.7
16492.7
16468.6
16445.2
16422.6
16400.9
16380
16359.8
16340.4
16321.9
16304.1
16287
16270.8
16255.2
16240.4
16226.4
16213.1
16200.4
16188.5
16177.3
16166.8
16157
16147.8
16139.3
16131.4
16124.2
16117.6
16111.6
16106.3
16101.5
16097.4
16093.8
16090.9
16088.5
16086.7
16085.5
16084.9
16084.8
16085.3
16086.3
16087.9
16090.1
16092.8
16096.1
16099.9
16104.3
16109.3
16114.8
16120.9
16127.6
16134.8
16142.6
16151.1
16160
16169.6
16179.8
16190.5
16201.9
16213.8
16226.4
16239.5
16253.3
16267.6
16282.6
16298.2
16314.3
16331.1
16348.4
16366.4
16384.9
16404
16423.7
16444
16464.9
16486.4
16508.4
16531
16554.1
16577.8
16602
16626.8
16652.1
16677.9
16704.2
16731.1
16758.4
16786.3
16814.6
16843.4
16872.6
16902.4
16932.5
16963.1
16994.2
17025.6
17057.5
17089.8
17122.5
17155.6
17189
17222.9
17257.1
17291.6
17326.6
17361.8
17397.4
17433.4
17469.7
17506.3
17543.2
17580.4
17618
17655.8
17694
17732.4
17771.2
17810.3
17849.6
17889.3
17929.2
17969.5
18010
18050.8
18091.9
18133.3
18175
18217
18259.2
18301.8
18344.6
18387.7
18431.1
18474.8
18518.8
18563.1
18607.6
18652.5
18697.6
18743
18788.7
18834.6
18880.8
18927.3
18974.1
19021.1
19068.4
19116
19163.8
19211.9
19260.2
19308.7
19357.5
19406.5
19455.7
19505.1
19554.7
19604.5
19654.5
19704.7
19755
19805.5
19856.2
19907
19957.9
20008.9
20060
20111.2
20162.5
20213.9
20265.3
20316.7
20368.1
20419.6
20471.1
20522.5
20573.9
20625.3
20676.6
20727.8
20778.9
20829.9
20880.8
20931.5
20982.1
21032.6
21082.8
21132.8
21182.7
21232.3
21281.6
21330.7
21379.5
21428.1
21476.3
21524.3
21571.9
21619.2
21666.1
21712.6
21758.8
21804.7
21850.1
21895.1
21939.7
21983.9
22027.7
22071
22113.9
22156.3
22198.3
22239.9
22280.9
22321.5
22361.7
22401.3
22440.6
22479.3
22517.6
22555.3
22592.6
22629.4
22665.8
22701.6
22737.1
22772
22806.5
22840.5
22874.1
22907.3
22940
22972.2
23004.1
23035.5
23066.5
23097.1
23127.3
23157.2
23186.6
23215.6
23244.3
23272.7
23300.7
23328.3
23355.6
23382.6
23409.3
23435.7
23461.8
23487.6
23513.1
23538.3
23563.3
23588.1
23612.6
23636.8
23660.9
23684.7
23708.3
23731.7
23754.9
23777.9
23800.7
23823.4
23845.9
23868.2
23890.3
23912.4
23934.2
23955.9
23977.5
23998.9
24020.2
24041.4
24062.5
24083.4
24104.2
24124.9
24145.4
24165.9
24186.2
24206.4
24226.4
24246.4
24266.2
24285.9
24305.5
24325
24344.3
24363.5
24382.5
24401.4
24420.2
24438.8
24457.3
24475.6
24493.7
24511.6
24529.4
24547
24564.4
24581.6
24598.6
24615.4
24632
24648.3
24664.4
24680.3
24695.9
24711.3
24726.4
24741.2
24755.7
24770
24783.9
24797.6
24810.9
24823.9
24836.6
24849
24861
24872.6
24883.9
24894.8
24905.3
24915.5
24925.3
24934.7
24943.7
24952.3
24960.4
24968.2
24975.5
24982.5
24989
24995.1
25000.7
25005.9
25010.7
25015.1
25019
25022.6
25025.6
25028.3
25030.5
25032.3
25033.7
25034.7
25035.2
25035.4
25035.1
25034.5
25033.5
25032.1
25030.3
25028.2
25025.8
25023
25019.8
25016.4
25012.6
25008.5
25004.2
24999.6
24994.7
24989.6
24984.2
24978.7
24972.9
24966.9
24960.8
24954.5
24948.1
24941.5
24934.8
24928
24921.2
24914.2
24907.2
24900.1
24893.1
24886
24878.9
24871.8
24864.7
24857.7
24850.7
24843.8
24837
24830.2
24823.6
24817.1
24810.7
24804.4
24798.2
24792.2
24786.4
24780.8
24775.3
24770
24764.9
24760
24755.3
24750.8
24746.5
24742.5
24738.7
24735
24732.2
24728.2
24726.7
24722.5
24722.1
24717.8
24718.4
24714.2
24715.5
24712
24713.3
24711.3
24711.8
18903.9
18903.1
18898.4
18894.9
18887
18879.6
18869.3
18857.9
18844.7
18830
18813.7
18795.9
18776.5
18755.6
18733.3
18709.5
18684.3
18657.7
18629.7
18600.5
18569.9
18538.1
18505.1
18471
18435.7
18399.4
18362
18323.7
18284.5
18244.4
18203.4
18161.7
18119.3
18076.2
18032.5
17988.3
17943.5
17898.5
17852.9
17807.1
17761
17714.6
17668.1
17621.5
17574.9
17528.2
17481.6
17435.1
17388.8
17342.6
17296.7
17251.1
17205.8
17160.9
17116.4
17072.3
17028.8
16985.7
16943.2
16901.3
16860
16819.4
16779.4
16740.1
16701.5
16663.6
16626.4
16590
16554.4
16519.6
16485.5
16452.3
16419.9
16388.2
16357.4
16327.5
16298.3
16270
16242.5
16215.9
16190.1
16165
16140.9
16117.5
16095
16073.2
16052.3
16032.1
16012.8
15994.2
15976.4
15959.4
15943.1
15927.6
15912.8
15898.8
15885.4
15872.8
15860.9
15849.7
15839.2
15829.4
15820.2
15811.7
15803.9
15796.6
15790.1
15784.1
15778.8
15774
15769.9
15766.4
15763.4
15761
15759.3
15758
15757.4
15757.3
15757.8
15758.9
15760.5
15762.6
15765.4
15768.6
15772.5
15776.9
15781.8
15787.4
15793.5
15800.2
15807.4
15815.2
15823.6
15832.6
15842.2
15852.4
15863.1
15874.5
15886.4
15899
15912.1
15925.9
15940.2
15955.2
15970.7
15986.9
16003.6
16021
16038.9
16057.5
16076.6
16096.3
16116.6
16137.5
16158.9
16181
16203.6
16226.7
16250.4
16274.6
16299.4
16324.7
16350.5
16376.9
16403.7
16431.1
16458.9
16487.3
16516.1
16545.3
16575.1
16605.3
16635.9
16666.9
16698.4
16730.3
16762.6
16795.3
16828.3
16861.8
16895.6
16929.8
16964.4
16999.3
17034.6
17070.2
17106.2
17142.4
17179
17216
17253.2
17290.7
17328.6
17366.8
17405.2
17444
17483.1
17522.4
17562.1
17602
17642.2
17682.8
17723.6
17764.7
17806.1
17847.8
17889.7
17932
17974.5
18017.4
18060.5
18103.9
18147.6
18191.6
18235.8
18280.4
18325.2
18370.3
18415.7
18461.4
18507.4
18553.6
18600.1
18646.9
18693.9
18741.2
18788.8
18836.6
18884.7
18933
18981.5
19030.3
19079.3
19128.5
19177.9
19227.5
19277.3
19327.4
19377.5
19427.9
19478.4
19529
19579.8
19630.7
19681.8
19732.9
19784.1
19835.4
19886.7
19938.1
19989.6
20041
20092.5
20144
20195.4
20246.8
20298.2
20349.5
20400.7
20451.9
20502.9
20553.8
20604.5
20655.1
20705.6
20755.8
20805.9
20855.7
20905.3
20954.7
21003.8
21052.6
21101.2
21149.4
21197.4
21245
21292.3
21339.2
21385.8
21432
21477.8
21523.3
21568.3
21612.9
21657.1
21700.9
21744.2
21787.1
21829.5
21871.5
21913.1
21954.1
21994.7
22034.8
22074.5
22113.6
22152.3
22190.6
22228.3
22265.6
22302.5
22338.8
22374.7
22410.1
22445.1
22479.5
22513.6
22547.2
22580.3
22613
22645.3
22677.1
22708.6
22739.6
22770.2
22800.4
22830.2
22859.6
22888.7
22917.4
22945.7
22973.7
23001.3
23028.7
23055.6
23082.3
23108.7
23134.8
23160.6
23186.1
23211.3
23236.3
23261.1
23285.6
23309.8
23333.8
23357.7
23381.3
23404.7
23427.9
23450.9
23473.7
23496.3
23518.8
23541.2
23563.3
23585.3
23607.2
23628.9
23650.5
23671.9
23693.2
23714.4
23735.4
23756.4
23777.2
23797.8
23818.4
23838.8
23859.1
23879.3
23899.4
23919.4
23939.2
23958.9
23978.5
23998
24017.3
24036.5
24055.5
24074.5
24093.2
24111.8
24130.3
24148.6
24166.7
24184.7
24202.5
24220.1
24237.5
24254.7
24271.7
24288.5
24305.1
24321.4
24337.5
24353.4
24369.1
24384.4
24399.5
24414.4
24428.9
24443.2
24457.1
24470.8
24484.1
24497.1
24509.8
24522.2
24534.2
24545.8
24557.1
24568
24578.6
24588.8
24598.6
24607.9
24616.9
24625.5
24633.7
24641.5
24648.8
24655.8
24662.3
24668.4
24674
24679.3
24684
24688.4
24692.4
24695.9
24698.9
24701.6
24703.8
24705.6
24707
24708
24708.5
24708.7
24708.4
24707.8
24706.8
24705.4
24703.6
24701.5
24699
24696.2
24693
24689.6
24685.8
24681.7
24677.4
24672.8
24667.9
24662.8
24657.4
24651.8
24646
24640.1
24633.9
24627.6
24621.2
24614.6
24607.9
24601.1
24594.2
24587.2
24580.2
24573.2
24566.1
24559
24551.9
24544.8
24537.7
24530.7
24523.7
24516.8
24509.9
24503.2
24496.5
24490
24483.6
24477.3
24471.1
24465.1
24459.3
24453.6
24448.2
24442.9
24437.8
24432.8
24428.1
24423.7
24419.4
24415.3
24411.6
24407.8
24405
24401.1
24399.5
24395.4
24394.9
24390.7
24391.1
24387.2
24388.2
24384.9
24386
24384.1
24384.6
18579.1
18578.3
18573.6
18570
18562.2
18554.7
18544.4
18533
18519.8
18505.1
18488.8
18470.9
18451.5
18430.6
18408.2
18384.4
18359.1
18332.5
18304.5
18275.2
18244.6
18212.7
18179.7
18145.5
18110.2
18073.8
18036.4
17998
17958.7
17918.5
17877.5
17835.7
17793.3
17750.1
17706.4
17662.1
17617.4
17572.1
17526.4
17480.5
17434.3
17387.9
17341.3
17294.6
17247.9
17201.1
17154.5
17107.9
17061.5
17015.2
16969.3
16923.6
16878.2
16833.3
16788.7
16744.6
16701
16657.9
16615.4
16573.4
16532.1
16491.4
16451.3
16412
16373.3
16335.4
16298.2
16261.8
16226.2
16191.3
16157.2
16124
16091.5
16059.9
16029.1
15999.1
15970
15941.6
15914.2
15887.5
15861.7
15836.7
15812.5
15789.1
15766.6
15744.8
15723.9
15703.8
15684.4
15665.9
15648.1
15631.1
15614.8
15599.3
15584.5
15570.5
15557.2
15544.6
15532.7
15521.5
15511
15501.2
15492.1
15483.6
15475.8
15468.6
15462
15456.1
15450.7
15446
15441.9
15438.4
15435.5
15433.1
15431.3
15430.1
15429.5
15429.4
15429.9
15431
15432.6
15434.8
15437.5
15440.8
15444.6
15449
15454
15459.6
15465.7
15472.3
15479.6
15487.4
15495.8
15504.8
15514.4
15524.5
15535.3
15546.6
15558.6
15571.1
15584.3
15598
15612.4
15627.3
15642.9
15659
15675.8
15693.1
15711.1
15729.6
15748.8
15768.5
15788.8
15809.7
15831.2
15853.2
15875.8
15898.9
15922.6
15946.9
15971.7
15997
16022.8
16049.2
16076
16103.4
16131.3
16159.6
16188.4
16217.7
16247.4
16277.6
16308.3
16339.3
16370.8
16402.7
16435
16467.7
16500.8
16534.3
16568.1
16602.3
16636.9
16671.8
16707.1
16742.7
16778.7
16815
16851.6
16888.5
16925.7
16963.3
17001.2
17039.3
17077.8
17116.5
17155.6
17195
17234.6
17274.6
17314.8
17355.3
17396.1
17437.2
17478.6
17520.3
17562.2
17604.5
17647
17689.9
17733
17776.4
17820.1
17864
17908.3
17952.8
17997.7
18042.8
18088.2
18133.8
18179.8
18226
18272.5
18319.3
18366.3
18413.6
18461.2
18509
18557.1
18605.4
18653.9
18702.7
18751.7
18800.9
18850.4
18900
18949.8
18999.9
19050
19100.4
19150.9
19201.6
19252.4
19303.3
19354.4
19405.5
19456.7
19508.1
19559.4
19610.8
19662.3
19713.8
19765.3
19816.8
19868.3
19919.7
19971.1
20022.4
20073.7
20124.8
20175.9
20226.8
20277.6
20328.2
20378.7
20428.9
20479
20528.9
20578.5
20627.9
20677
20725.9
20774.5
20822.8
20870.7
20918.4
20965.7
21012.6
21059.2
21105.5
21151.3
21196.7
21241.8
21286.4
21330.6
21374.4
21417.8
21460.7
21503.1
21545.1
21586.7
21627.8
21668.4
21708.5
21748.2
21787.4
21826.1
21864.3
21902.1
21939.3
21976.1
22012.5
22048.3
22083.8
22118.7
22153.2
22187.2
22220.8
22253.9
22286.6
22318.8
22350.7
22382.1
22413.1
22443.6
22473.8
22503.6
22533
22562.1
22590.7
22619
22647
22674.6
22701.9
22728.9
22755.6
22781.9
22808
22833.7
22859.2
22884.4
22909.4
22934.1
22958.6
22982.8
23006.8
23030.6
23054.2
23077.6
23100.8
23123.8
23146.6
23169.2
23191.7
23214
23236.1
23258.1
23280
23301.7
23323.2
23344.7
23366
23387.1
23408.2
23429.1
23449.9
23470.6
23491.1
23511.5
23531.9
23552.1
23572.1
23592.1
23611.9
23631.6
23651.2
23670.7
23690
23709.2
23728.3
23747.2
23766
23784.6
23803.1
23821.4
23839.5
23857.5
23875.3
23892.9
23910.3
23927.5
23944.6
23961.4
23978
23994.3
24010.5
24026.4
24042
24057.4
24072.5
24087.4
24101.9
24116.2
24130.2
24143.9
24157.2
24170.3
24183
24195.3
24207.4
24219
24230.4
24241.3
24251.9
24262.1
24271.9
24281.3
24290.3
24298.9
24307.1
24314.9
24322.2
24329.2
24335.7
24341.8
24347.5
24352.7
24357.5
24361.9
24365.8
24369.4
24372.4
24375.1
24377.3
24379.1
24380.5
24381.5
24382
24382.2
24381.9
24381.3
24380.3
24378.9
24377.1
24375
24372.5
24369.6
24366.5
24363
24359.2
24355.1
24350.8
24346.1
24341.2
24336.1
24330.7
24325.1
24319.3
24313.3
24307.2
24300.9
24294.4
24287.8
24281.1
24274.2
24267.3
24260.4
24253.3
24246.2
24239.1
24232
24224.9
24217.7
24210.7
24203.6
24196.6
24189.7
24182.8
24176
24169.4
24162.8
24156.4
24150.1
24143.9
24137.9
24132.1
24126.4
24120.9
24115.6
24110.5
24105.5
24100.8
24096.3
24092.1
24087.9
24084.3
24080.3
24077.7
24073.6
24072.3
24067.9
24067.7
24063.2
24063.9
24059.7
24060.8
24057.5
24058.5
24056.8
24057.1
18255.5
18254.7
18250
18246.4
18238.6
18231.1
18220.7
18209.3
18196.1
18181.3
18165
18147
18127.6
18106.7
18084.2
18060.3
18035
18008.3
17980.2
17950.8
17920.2
17888.2
17855.1
17820.8
17785.4
17748.9
17711.4
17672.9
17633.5
17593.2
17552.1
17510.2
17467.6
17424.3
17380.5
17336
17291.1
17245.8
17200.1
17154
17107.7
17061.2
17014.5
16967.7
16920.8
16874
16827.2
16780.5
16734
16687.7
16641.6
16595.8
16550.4
16505.3
16460.7
16416.5
16372.8
16329.6
16287
16245
16203.6
16162.8
16122.7
16083.3
16044.6
16006.7
15969.4
15933
15897.3
15862.4
15828.3
15795
15762.6
15730.9
15700.1
15670.1
15640.9
15612.6
15585.1
15558.4
15532.6
15507.6
15483.4
15460.1
15437.5
15415.8
15394.9
15374.7
15355.4
15336.9
15319.1
15302.1
15285.8
15270.4
15255.6
15241.6
15228.3
15215.8
15203.9
15192.8
15182.3
15172.5
15163.4
15154.9
15147.1
15139.9
15133.4
15127.5
15122.2
15117.5
15113.4
15109.9
15107
15104.7
15102.9
15101.8
15101.1
15101.1
15101.6
15102.7
15104.3
15106.5
15109.2
15112.5
15116.4
15120.8
15125.8
15131.3
15137.4
15144.1
15151.3
15159.2
15167.6
15176.6
15186.1
15196.3
15207
15218.4
15230.3
15242.9
15256
15269.8
15284.1
15299.1
15314.6
15330.8
15347.5
15364.9
15382.9
15401.4
15420.6
15440.3
15460.6
15481.5
15503
15525
15547.6
15570.8
15594.5
15618.8
15643.6
15668.9
15694.7
15721.1
15748
15775.4
15803.3
15831.6
15860.4
15889.7
15919.5
15949.7
15980.4
16011.4
16042.9
16074.9
16107.2
16139.9
16173
16206.5
16240.4
16274.6
16309.2
16344.1
16379.4
16415
16451
16487.3
16523.9
16560.8
16598.1
16635.6
16673.5
16711.7
16750.1
16788.9
16827.9
16867.3
16906.9
16946.9
16987.1
17027.6
17068.4
17109.5
17150.9
17192.6
17234.5
17276.7
17319.3
17362.1
17405.2
17448.6
17492.3
17536.2
17580.5
17625
17669.8
17714.9
17760.3
17806
17852
17898.2
17944.7
17991.5
18038.5
18085.8
18133.4
18181.2
18229.2
18277.6
18326.1
18374.9
18423.9
18473.1
18522.6
18572.2
18622.1
18672.1
18722.3
18772.7
18823.2
18873.9
18924.7
18975.7
19026.8
19077.9
19129.2
19180.5
19231.9
19283.4
19334.9
19386.4
19437.9
19489.5
19541
19592.4
19643.9
19695.2
19746.5
19797.7
19848.8
19899.8
19950.6
20001.3
20051.8
20102.1
20152.2
20202.1
20251.8
20301.2
20350.4
20399.3
20447.9
20496.2
20544.2
20591.9
20639.2
20686.2
20732.9
20779.1
20825
20870.5
20915.5
20960.2
21004.4
21048.3
21091.6
21134.5
21177
21219
21260.6
21301.7
21342.3
21382.4
21422.1
21461.3
21500
21538.2
21576
21613.3
21650.1
21686.4
21722.3
21757.7
21792.6
21827.1
21861.1
21894.7
21927.8
21960.4
21992.7
22024.5
22055.9
22086.8
22117.4
22147.6
22177.3
22206.7
22235.7
22264.4
22292.6
22320.6
22348.2
22375.4
22402.4
22429
22455.3
22481.3
22507.1
22532.5
22557.7
22582.7
22607.3
22631.8
22656
22680
22703.7
22727.3
22750.6
22773.8
22796.8
22819.5
22842.2
22864.6
22886.9
22909
22931
22952.8
22974.5
22996
23017.4
23038.7
23059.9
23080.9
23101.8
23122.6
23143.3
23163.8
23184.2
23204.5
23224.7
23244.8
23264.8
23284.6
23304.3
23323.9
23343.4
23362.7
23381.9
23401
23419.9
23438.7
23457.3
23475.8
23494.1
23512.3
23530.3
23548.1
23565.7
23583.1
23600.4
23617.4
23634.3
23650.9
23667.3
23683.4
23699.3
23715
23730.4
23745.6
23760.4
23775
23789.3
23803.3
23817
23830.4
23843.5
23856.2
23868.6
23880.7
23892.4
23903.7
23914.7
23925.3
23935.5
23945.3
23954.8
23963.8
23972.4
23980.6
23988.5
23995.8
24002.8
24009.3
24015.5
24021.1
24026.4
24031.2
24035.6
24039.6
24043.1
24046.2
24048.8
24051.1
24052.9
24054.2
24055.2
24055.8
24055.9
24055.7
24055
24054
24052.6
24050.8
24048.6
24046.1
24043.3
24040.1
24036.6
24032.8
24028.7
24024.3
24019.7
24014.7
24009.6
24004.2
23998.5
23992.7
23986.7
23980.5
23974.2
23967.7
23961
23954.3
23947.4
23940.5
23933.5
23926.4
23919.3
23912.2
23905
23897.8
23890.7
23883.6
23876.5
23869.5
23862.5
23855.6
23848.8
23842.2
23835.6
23829.1
23822.8
23816.6
23810.6
23804.7
23799
23793.5
23788.2
23783
23778.1
23773.4
23768.9
23764.6
23760.4
23756.9
23752.6
23750.4
23745.8
23745.1
23740.1
23740.5
23735.4
23736.6
23731.9
23733.4
23729.9
23731
23729.2
23729.6
17933
17932.2
17927.5
17923.9
17916.1
17908.5
17898.1
17886.7
17873.4
17858.6
17842.2
17824.2
17804.7
17783.7
17761.2
17737.2
17711.8
17685
17656.9
17627.4
17596.6
17564.5
17531.3
17496.9
17461.3
17424.7
17387.1
17348.5
17308.9
17268.5
17227.2
17185.2
17142.4
17099
17055
17010.5
16965.6
16919.9
16874
16827.8
16781.3
16734.6
16687.8
16640.8
16593.8
16546.8
16499.9
16453.1
16406.4
16360
16313.8
16267.8
16222.3
16177.1
16132.3
16088
16044.2
16001
15958.2
15916.1
15874.6
15833.8
15793.6
15754.1
15715.4
15677.3
15640.1
15603.5
15567.8
15532.9
15498.7
15465.4
15432.9
15401.2
15370.4
15340.4
15311.2
15282.8
15255.3
15228.7
15202.8
15177.8
15153.6
15130.3
15107.8
15086
15065.1
15045
15025.7
15007.2
14989.4
14972.5
14956.2
14940.8
14926.1
14912.1
14898.9
14886.3
14874.5
14863.4
14852.9
14843.2
14834.1
14825.7
14817.9
14810.8
14804.3
14798.4
14793.1
14788.5
14784.4
14781
14778.1
14775.8
14774.1
14772.9
14772.3
14772.3
14772.8
14773.9
14775.6
14777.8
14780.5
14783.8
14787.7
14792.1
14797.1
14802.6
14808.7
14815.4
14822.7
14830.5
14838.9
14847.9
14857.5
14867.6
14878.4
14889.7
14901.7
14914.2
14927.4
14941.1
14955.5
14970.4
14986
15002.1
15018.9
15036.2
15054.2
15072.8
15091.9
15111.7
15132
15152.9
15174.4
15196.4
15219.1
15242.2
15266
15290.2
15315.1
15340.4
15366.3
15392.7
15419.6
15447
15474.9
15503.3
15532.1
15561.5
15591.3
15621.5
15652.2
15683.3
15714.8
15746.7
15779.1
15811.8
15844.9
15878.4
15912.3
15946.6
15981.2
16016.1
16051.4
16087.1
16123.1
16159.4
16196
16232.9
16270.2
16307.7
16345.6
16383.8
16422.2
16461
16500
16539.4
16579
16619
16659.2
16699.7
16740.5
16781.6
16822.9
16864.6
16906.5
16948.8
16991.3
17034.1
17077.2
17120.5
17164.2
17208.2
17252.4
17296.9
17341.7
17386.8
17432.2
17477.9
17523.8
17570.1
17616.6
17663.3
17710.4
17757.7
17805.2
17853.1
17901.1
17949.5
17998
18046.8
18095.8
18145.1
18194.5
18244.2
18294.1
18344.1
18394.4
18444.8
18495.3
18546
18596.9
18647.9
18699
18750.2
18801.5
18852.9
18904.3
18955.8
19007.3
19058.9
19110.5
19162
19213.6
19265.1
19316.6
19368
19419.3
19470.6
19521.7
19572.7
19623.6
19674.4
19724.9
19775.3
19825.5
19875.4
19925.1
19974.6
20023.9
20072.8
20121.5
20169.9
20217.9
20265.6
20313
20360.1
20406.7
20453
20499
20544.5
20589.6
20634.3
20678.6
20722.4
20765.8
20808.7
20851.2
20893.3
20934.9
20976
21016.6
21056.8
21096.4
21135.6
21174.4
21212.6
21250.4
21287.6
21324.4
21360.8
21396.6
21432
21466.9
21501.4
21535.3
21568.9
21602
21634.6
21666.8
21698.6
21729.9
21760.9
21791.4
21821.5
21851.2
21880.6
21909.6
21938.2
21966.4
21994.3
22021.8
22049.1
22076
22102.5
22128.8
22154.8
22180.5
22205.9
22231.1
22256
22280.6
22305
22329.2
22353.1
22376.8
22400.3
22423.7
22446.8
22469.7
22492.5
22515
22537.5
22559.7
22581.8
22603.7
22625.5
22647.2
22668.7
22690.1
22711.4
22732.5
22753.5
22774.4
22795.2
22815.8
22836.4
22856.8
22877.1
22897.3
22917.3
22937.3
22957.1
22976.8
22996.4
23015.9
23035.2
23054.5
23073.5
23092.5
23111.3
23129.9
23148.4
23166.7
23184.9
23202.9
23220.8
23238.4
23255.9
23273.2
23290.2
23307.1
23323.7
23340.1
23356.3
23372.3
23388
23403.4
23418.6
23433.5
23448.1
23462.5
23476.5
23490.3
23503.7
23516.8
23529.6
23542
23554.1
23565.8
23577.2
23588.2
23598.8
23609.1
23618.9
23628.4
23637.5
23646.1
23654.4
23662.2
23669.6
23676.6
23683.2
23689.3
23695
23700.3
23705.1
23709.5
23713.5
23717
23720.1
23722.8
23725
23726.8
23728.2
23729.2
23729.7
23729.9
23729.6
23729
23727.9
23726.5
23724.7
23722.5
23720
23717.1
23713.9
23710.4
23706.6
23702.4
23698
23693.3
23688.4
23683.2
23677.7
23672.1
23666.2
23660.2
23653.9
23647.5
23641
23634.3
23627.5
23620.7
23613.7
23606.6
23599.5
23592.4
23585.2
23578
23570.8
23563.6
23556.5
23549.4
23542.3
23535.3
23528.4
23521.6
23514.8
23508.2
23501.8
23495.4
23489.2
23483.1
23477.3
23471.5
23466
23460.6
23455.5
23450.5
23445.8
23441.2
23437
23432.6
23429.4
23424.8
23422.8
23418
23417.6
23412.2
23413.3
23407.2
23409.3
23403.8
23405.9
23401.8
23403.3
23401.4
23401.9
17611.7
17610.9
17606.2
17602.6
17594.7
17587.1
17576.7
17565.2
17551.9
17537
17520.5
17502.5
17482.9
17461.8
17439.2
17415.1
17389.6
17362.7
17334.4
17304.8
17273.9
17241.7
17208.3
17173.7
17138
17101.3
17063.5
17024.7
16984.9
16944.3
16902.9
16860.7
16817.7
16774.1
16729.9
16685.1
16639.7
16594.2
16548.1
16501.7
16455
16408.1
16361.1
16314
16266.8
16219.6
16172.5
16125.5
16078.7
16032
15985.7
15939.6
15893.9
15848.5
15803.6
15759.2
15715.3
15671.8
15629
15586.8
15545.2
15504.2
15464
15424.4
15385.5
15347.4
15310.1
15273.5
15237.7
15202.7
15168.5
15135.1
15102.6
15070.9
15040
15009.9
14980.7
14952.4
14924.9
14898.2
14872.3
14847.3
14823.2
14799.8
14777.3
14755.6
14734.7
14714.6
14695.3
14676.8
14659.1
14642.2
14626
14610.6
14595.9
14582
14568.7
14556.3
14544.5
14533.4
14523
14513.3
14504.3
14495.9
14488.2
14481.1
14474.6
14468.8
14463.6
14459
14455
14451.5
14448.7
14446.4
14444.8
14443.6
14443.1
14443.1
14443.6
14444.7
14446.4
14448.6
14451.4
14454.7
14458.6
14463
14468
14473.6
14479.7
14486.4
14493.6
14501.4
14509.8
14518.8
14528.4
14538.5
14549.3
14560.6
14572.6
14585.1
14598.3
14612
14626.4
14641.3
14656.9
14673
14689.8
14707.2
14725.1
14743.7
14762.9
14782.6
14803
14823.9
14845.4
14867.5
14890.1
14913.3
14937.1
14961.4
14986.2
15011.6
15037.5
15063.9
15090.8
15118.3
15146.2
15174.6
15203.5
15232.9
15262.7
15292.9
15323.7
15354.8
15386.3
15418.3
15450.7
15483.5
15516.6
15550.1
15584.1
15618.3
15653
15687.9
15723.3
15758.9
15794.9
15831.2
15867.8
15904.8
15942.1
15979.6
16017.5
16055.7
16094.1
16132.9
16171.9
16211.3
16250.9
16290.8
16331
16371.5
16412.3
16453.4
16494.7
16536.4
16578.3
16620.5
16663
16705.8
16748.9
16792.2
16835.9
16879.8
16924.1
16968.6
17013.4
17058.5
17103.8
17149.5
17195.4
17241.6
17288.1
17334.9
17381.9
17429.2
17476.8
17524.6
17572.7
17621.1
17669.6
17718.4
17767.5
17816.7
17866.2
17915.9
17965.8
18015.9
18066.1
18116.6
18167.2
18217.9
18268.8
18319.8
18371
18422.2
18473.6
18525
18576.5
18628
18679.6
18731.2
18782.9
18834.5
18886.1
18937.7
18989.2
19040.7
19092.1
19143.4
19194.6
19245.7
19296.7
19347.5
19398.1
19448.5
19498.8
19548.8
19598.6
19648.2
19697.4
19746.5
19795.2
19843.6
19891.8
19939.5
19987
20034.1
20080.8
20127.2
20173.1
20218.7
20263.9
20308.6
20352.9
20396.8
20440.2
20483.2
20525.7
20567.8
20609.4
20650.5
20691.2
20731.4
20771.1
20810.3
20849
20887.2
20925
20962.3
20999.1
21035.4
21071.2
21106.6
21141.5
21175.9
21209.9
21243.4
21276.4
21309.1
21341.2
21373
21404.3
21435.2
21465.6
21495.7
21525.4
21554.7
21583.6
21612.2
21640.4
21668.2
21695.7
21722.9
21749.7
21776.2
21802.5
21828.4
21854
21879.4
21904.5
21929.3
21953.9
21978.3
22002.4
22026.3
22050
22073.4
22096.7
22119.8
22142.6
22165.4
22187.9
22210.3
22232.5
22254.5
22276.5
22298.2
22319.8
22341.3
22362.7
22383.9
22405
22426
22446.9
22467.7
22488.3
22508.8
22529.2
22549.5
22569.7
22589.8
22609.7
22629.5
22649.3
22668.9
22688.3
22707.7
22726.9
22746
22764.9
22783.8
22802.4
22820.9
22839.3
22857.5
22875.5
22893.4
22911.1
22928.6
22945.9
22963
22979.9
22996.5
23013
23029.2
23045.2
23061
23076.4
23091.7
23106.6
23121.3
23135.7
23149.8
23163.5
23177
23190.2
23203
23215.4
23227.6
23239.4
23250.8
23261.8
23272.5
23282.8
23292.7
23302.2
23311.3
23320
23328.3
23336.1
23343.6
23350.6
23357.2
23363.4
23369.1
23374.4
23379.3
23383.7
23387.7
23391.2
23394.3
23397
23399.2
23401
23402.4
23403.4
23403.9
23404.1
23403.8
23403.1
23402.1
23400.6
23398.8
23396.6
23394.1
23391.2
23388
23384.4
23380.5
23376.4
23371.9
23367.2
23362.2
23356.9
23351.5
23345.8
23339.8
23333.7
23327.5
23321
23314.4
23307.7
23300.9
23293.9
23286.9
23279.8
23272.7
23265.5
23258.2
23251
23243.8
23236.5
23229.3
23222.2
23215.1
23208
23201.1
23194.2
23187.5
23180.8
23174.3
23167.9
23161.7
23155.6
23149.7
23143.9
23138.4
23133
23127.8
23122.8
23118.1
23113.4
23109.3
23104.8
23101.6
23096.9
23095.1
23090
23089.8
23084.2
23085.7
23079.1
23081.7
23075.7
23078.4
23073.7
23075.6
23073.4
23074
17291.6
17290.7
17286
17282.3
17274.4
17266.8
17256.3
17244.8
17231.4
17216.4
17199.9
17181.8
17162.1
17140.9
17118.2
17094
17068.3
17041.3
17012.9
16983.1
16952
16919.7
16886.1
16851.4
16815.5
16778.5
16740.5
16701.5
16661.6
16620.7
16579.1
16536.6
16493.5
16449.6
16405.2
16360.2
16314.7
16268.8
16222.5
16175.8
16128.9
16081.8
16034.5
15987.2
15939.7
15892.3
15845
15797.8
15750.7
15703.9
15657.3
15611.1
15565.2
15519.7
15474.6
15430
15385.9
15342.3
15299.3
15257
15215.2
15174.1
15133.7
15094.1
15055.1
15016.9
14979.5
14942.8
14906.9
14871.9
14837.6
14804.2
14771.6
14739.8
14708.9
14678.8
14649.6
14621.2
14593.7
14567
14541.2
14516.2
14492
14468.7
14446.2
14424.5
14403.6
14383.5
14364.3
14345.8
14328.1
14311.2
14295.1
14279.7
14265.1
14251.2
14238
14225.6
14213.8
14202.8
14192.5
14182.8
14173.8
14165.5
14157.9
14150.8
14144.4
14138.7
14133.5
14128.9
14125
14121.6
14118.8
14116.6
14115
14113.9
14113.4
14113.4
14114
14115.1
14116.8
14119.1
14121.9
14125.2
14129.1
14133.5
14138.5
14144.1
14150.2
14156.9
14164.1
14171.9
14180.3
14189.3
14198.9
14209
14219.8
14231.1
14243.1
14255.6
14268.7
14282.5
14296.8
14311.8
14327.4
14343.5
14360.3
14377.7
14395.7
14414.2
14433.4
14453.2
14473.5
14494.5
14516
14538.1
14560.8
14584
14607.8
14632.1
14657
14682.4
14708.3
14734.8
14761.7
14789.2
14817.2
14845.6
14874.6
14904
14933.8
14964.1
14994.8
15026
15057.6
15089.6
15122
15154.8
15188
15221.6
15255.5
15289.8
15324.5
15359.5
15394.8
15430.5
15466.5
15502.8
15539.5
15576.4
15613.7
15651.3
15689.2
15727.3
15765.8
15804.6
15843.6
15882.9
15922.6
15962.5
16002.7
16043.2
16083.9
16125
16166.3
16207.9
16249.8
16292
16334.5
16377.3
16420.3
16463.7
16507.3
16551.2
16595.5
16639.9
16684.7
16729.8
16775.2
16820.8
16866.7
16913
16959.4
17006.2
17053.2
17100.6
17148.1
17196
17244.1
17292.4
17341
17389.8
17438.9
17488.2
17537.7
17587.4
17637.3
17687.4
17737.7
17788.2
17838.8
17889.6
17940.5
17991.6
18042.8
18094.1
18145.5
18197
18248.5
18300.1
18351.8
18403.5
18455.2
18506.9
18558.6
18610.2
18661.8
18713.4
18764.9
18816.3
18867.5
18918.7
18969.7
19020.6
19071.3
19121.8
19172.2
19222.3
19272.1
19321.8
19371.2
19420.3
19469.1
19517.6
19565.8
19613.6
19661.2
19708.3
19755.1
19801.5
19847.6
19893.2
19938.4
19983.2
20027.6
20071.5
20115
20158
20200.6
20242.7
20284.3
20325.5
20366.1
20406.3
20446
20485.2
20524
20562.2
20600
20637.3
20674
20710.3
20746.2
20781.5
20816.4
20850.8
20884.7
20918.2
20951.2
20983.8
21015.9
21047.6
21078.9
21109.7
21140.1
21170.2
21199.8
21229
21257.9
21286.4
21314.5
21342.3
21369.7
21396.8
21423.6
21450.1
21476.2
21502.1
21527.7
21553
21578
21602.8
21627.3
21651.6
21675.6
21699.5
21723.1
21746.5
21769.7
21792.7
21815.6
21838.2
21860.7
21883
21905.2
21927.2
21949.1
21970.8
21992.4
22013.9
22035.2
22056.4
22077.5
22098.4
22119.3
22140
22160.6
22181.2
22201.5
22221.8
22242
22262.1
22282
22301.8
22321.6
22341.2
22360.6
22380
22399.2
22418.3
22437.3
22456.1
22474.8
22493.4
22511.7
22530
22548
22565.9
22583.6
22601.2
22618.5
22635.7
22652.6
22669.3
22685.8
22702.1
22718.1
22733.9
22749.5
22764.7
22779.7
22794.5
22808.9
22823
22836.9
22850.4
22863.6
22876.5
22889
22901.2
22913
22924.5
22935.6
22946.3
22956.6
22966.6
22976.1
22985.3
22994
23002.4
23010.3
23017.8
23024.8
23031.5
23037.7
23043.4
23048.7
23053.6
23058.1
23062.1
23065.6
23068.8
23071.4
23073.7
23075.5
23076.9
23077.9
23078.4
23078.5
23078.3
23077.6
23076.5
23075
23073.2
23071
23068.4
23065.5
23062.2
23058.6
23054.7
23050.5
23046
23041.2
23036.2
23030.9
23025.3
23019.6
23013.6
23007.5
23001.1
22994.6
22988
22981.2
22974.3
22967.3
22960.2
22953.1
22945.8
22938.6
22931.3
22924
22916.7
22909.4
22902.2
22895
22887.8
22880.7
22873.7
22866.8
22860
22853.3
22846.7
22840.3
22834
22827.9
22822
22816.2
22810.6
22805.2
22800
22794.9
22790.2
22785.5
22781.4
22776.8
22773.7
22768.8
22767.2
22761.8
22761.8
22755.9
22757.4
22751
22753.5
22747.5
22750.4
22745.5
22747.6
22745.1
22745.9
16972.5
16971.6
16966.9
16963.2
16955.3
16947.6
16937.1
16925.5
16912
16897
16880.4
16862.1
16842.3
16821
16798.2
16773.8
16748
16720.8
16692.2
16662.3
16631
16598.5
16564.7
16529.8
16493.7
16456.5
16418.2
16379
16338.8
16297.7
16255.8
16213.1
16169.7
16125.6
16080.9
16035.6
15989.8
15943.6
15897
15850.1
15802.9
15755.5
15708
15660.4
15612.7
15565
15517.4
15470
15422.7
15375.6
15328.8
15282.3
15236.2
15190.4
15145.2
15100.4
15056.1
15012.3
14969.2
14926.6
14884.7
14843.5
14803
14763.2
14724.1
14685.8
14648.2
14611.5
14575.5
14540.4
14506.1
14472.6
14439.9
14408.1
14377.2
14347
14317.8
14289.4
14261.8
14235.1
14209.3
14184.3
14160.1
14136.8
14114.3
14092.6
14071.8
14051.8
14032.5
14014.1
13996.4
13979.6
13963.5
13948.2
13933.6
13919.7
13906.6
13894.3
13882.6
13871.6
13861.4
13851.8
13842.9
13834.6
13827
13820
13813.7
13808
13802.9
13798.4
13794.5
13791.2
13788.5
13786.3
13784.7
13783.7
13783.2
13783.3
13783.9
13785.1
13786.8
13789.1
13791.9
13795.2
13799.1
13803.6
13808.6
13814.2
13820.3
13827
13834.2
13842
13850.4
13859.4
13869
13879.1
13889.9
13901.2
13913.1
13925.7
13938.8
13952.6
13966.9
13981.9
13997.4
14013.6
14030.4
14047.8
14065.8
14084.4
14103.5
14123.3
14143.7
14164.7
14186.2
14208.3
14231
14254.3
14278.1
14302.5
14327.4
14352.8
14378.8
14405.3
14432.3
14459.8
14487.8
14516.3
14545.3
14574.7
14604.6
14635
14665.7
14697
14728.6
14760.6
14793.1
14825.9
14859.2
14892.8
14926.7
14961.1
14995.8
15030.8
15066.2
15101.9
15137.9
15174.2
15210.9
15247.9
15285.2
15322.7
15360.6
15398.8
15437.3
15476
15515
15554.4
15594
15633.9
15674.1
15714.5
15755.3
15796.3
15837.6
15879.2
15921.1
15963.3
16005.8
16048.5
16091.5
16134.9
16178.5
16222.4
16266.6
16311
16355.8
16400.9
16446.2
16491.8
16537.8
16584
16630.4
16677.2
16724.2
16771.6
16819.1
16867
16915.1
16963.4
17012
17060.9
17110