/*--------------------------------*- C++ -*----------------------------------*\
| =========                 |                                                 |
| \\      /  F ield         | OpenFOAM: The Open Source CFD Toolbox           |
|  \\    /   O peration     | Version:  v2006                                 |
|   \\  /    A nd           | Website:  www.openfoam.com                      |
|    \\/     M anipulation  |                                                 |
\*---------------------------------------------------------------------------*/
FoamFile
{
    version     2.0;
    format      ascii;
    class       volScalarField;
    location    "1.6";
    object      p_rgh;
}
// * * * * * * * * * * * * * * * * * * * * * * * * * * * * * * * * * * * * * //

dimensions      [1 -1 -2 0 0 0 0];


internalField   nonuniform List<scalar> 
150000
(
-226.815
-227.618
-232.481
-235.689
-243.877
-251.012
-261.541
-272.78
-285.982
-300.661
-316.937
-334.752
-354.096
-374.94
-397.261
-421.029
-446.215
-472.787
-500.71
-529.949
-560.467
-592.224
-625.179
-659.292
-694.517
-730.807
-768.117
-806.398
-845.601
-885.675
-926.569
-968.229
-1010.6
-1053.63
-1097.27
-1141.46
-1186.14
-1231.23
-1276.72
-1322.54
-1368.62
-1414.91
-1461.41
-1507.99
-1554.62
-1601.24
-1647.81
-1694.27
-1740.59
-1786.71
-1832.58
-1878.17
-1923.42
-1968.31
-2012.78
-2056.8
-2100.33
-2143.35
-2185.82
-2227.7
-2268.98
-2309.62
-2349.59
-2388.89
-2427.48
-2465.35
-2502.48
-2538.86
-2574.47
-2609.29
-2643.33
-2676.56
-2708.98
-2740.59
-2771.38
-2801.35
-2830.48
-2858.79
-2886.28
-2912.93
-2938.76
-2963.76
-2987.94
-3011.31
-3033.86
-3055.61
-3076.55
-3096.7
-3116.06
-3134.63
-3152.44
-3169.47
-3185.75
-3201.27
-3216.06
-3230.11
-3243.44
-3256.05
-3267.96
-3279.17
-3289.69
-3299.54
-3308.72
-3317.23
-3325.1
-3332.32
-3338.92
-3344.88
-3350.23
-3354.97
-3359.11
-3362.65
-3365.61
-3367.98
-3369.77
-3370.99
-3371.64
-3371.73
-3371.25
-3370.21
-3368.61
-3366.44
-3363.72
-3360.44
-3356.6
-3352.2
-3347.23
-3341.7
-3335.6
-3328.92
-3321.68
-3313.85
-3305.45
-3296.46
-3286.88
-3276.71
-3265.96
-3254.6
-3242.65
-3230.11
-3216.96
-3203.21
-3188.86
-3173.91
-3158.35
-3142.19
-3125.43
-3108.08
-3090.13
-3071.59
-3052.47
-3032.75
-3012.46
-2991.58
-2970.14
-2948.12
-2925.54
-2902.41
-2878.72
-2854.49
-2829.72
-2804.42
-2778.6
-2752.26
-2725.41
-2698.07
-2670.23
-2641.91
-2613.12
-2583.86
-2554.14
-2523.97
-2493.36
-2462.32
-2430.86
-2398.98
-2366.69
-2334
-2300.92
-2267.45
-2233.62
-2199.41
-2164.85
-2129.93
-2094.67
-2059.06
-2023.12
-1986.84
-1950.24
-1913.32
-1876.09
-1838.54
-1800.68
-1762.52
-1724.05
-1685.29
-1646.22
-1606.86
-1567.21
-1527.26
-1487.03
-1446.5
-1405.68
-1364.58
-1323.18
-1281.5
-1239.53
-1197.27
-1154.72
-1111.89
-1068.77
-1025.36
-981.664
-937.683
-893.416
-848.864
-804.029
-758.911
-713.513
-667.835
-621.881
-575.653
-529.154
-482.385
-435.351
-388.055
-340.501
-292.695
-244.64
-196.342
-147.806
-99.0387
-50.0463
-0.835865
48.5848
98.2078
148.025
198.027
248.204
298.549
349.049
399.696
450.478
501.384
552.402
603.522
654.729
706.013
757.359
808.755
860.188
911.643
963.107
1014.57
1066.01
1117.41
1168.77
1220.06
1271.27
1322.39
1373.4
1424.29
1475.04
1525.63
1576.05
1626.29
1676.34
1726.16
1775.76
1825.12
1874.22
1923.05
1971.59
2019.83
2067.77
2115.38
2162.65
2209.58
2256.15
2302.34
2348.15
2393.58
2438.6
2483.21
2527.4
2571.17
2614.5
2657.39
2699.83
2741.82
2783.35
2824.42
2865.02
2905.16
2944.85
2984.1
3022.83
3061.08
3098.83
3136.11
3172.92
3209.26
3245.14
3280.55
3315.5
3350
3384.03
3417.62
3450.77
3483.47
3515.74
3547.59
3579.01
3610.02
3640.63
3670.84
3700.65
3730.09
3759.15
3787.84
3816.18
3844.17
3871.82
3899.13
3926.13
3952.81
3979.19
4005.27
4031.07
4056.58
4081.83
4106.82
4131.56
4156.06
4180.32
4204.35
4228.17
4251.77
4275.17
4298.37
4321.39
4344.22
4366.88
4389.36
4411.68
4433.84
4455.85
4477.71
4499.43
4521
4542.44
4563.74
4584.92
4605.97
4626.89
4647.69
4668.36
4688.92
4709.36
4729.67
4749.87
4769.94
4789.9
4809.73
4829.44
4849.02
4868.47
4887.79
4906.98
4926.03
4944.94
4963.7
4982.31
5000.76
5019.05
5037.18
5055.13
5072.91
5090.51
5107.91
5125.11
5142.11
5158.9
5175.48
5191.82
5207.93
5223.8
5239.42
5254.78
5269.88
5284.7
5299.24
5313.49
5327.44
5341.09
5354.42
5367.43
5380.11
5392.46
5404.45
5416.1
5427.38
5438.3
5448.85
5459.01
5468.79
5478.18
5487.17
5495.75
5503.93
5511.7
5519.05
5525.98
5532.48
5538.57
5544.22
5549.45
5554.24
5558.61
5562.55
5566.05
5569.13
5571.78
5574
5575.8
5577.19
5578.16
5578.72
5578.88
5578.64
5578.01
5577
5575.6
5573.85
5571.73
5569.26
5566.45
5563.31
5559.86
5556.09
5552.03
5547.69
5543.08
5538.2
5533.09
5527.74
5522.17
5516.41
5510.45
5504.31
5498.02
5491.58
5485.01
5478.32
5471.53
5464.65
5457.7
5450.69
5443.64
5436.56
5429.46
5422.36
5415.27
5408.21
5401.19
5394.21
5387.31
5380.48
5373.74
5367.09
5360.56
5354.15
5347.87
5341.73
5335.75
5329.92
5324.26
5318.78
5313.49
5308.39
5303.48
5298.79
5294.3
5290.04
5286
5282.25
5278.48
5275.68
5271.75
5270.19
5265.97
5265.63
5261.27
5261.91
5257.72
5258.98
5255.48
5256.77
5254.75
5255.27
-225.586
-226.384
-231.095
-234.606
-242.45
-249.931
-260.239
-271.618
-284.791
-299.499
-315.791
-333.628
-352.994
-373.863
-396.209
-420.004
-445.219
-471.82
-499.775
-529.047
-559.598
-591.391
-624.382
-658.529
-693.789
-730.116
-767.463
-805.783
-845.026
-885.14
-926.075
-967.776
-1010.19
-1053.27
-1096.95
-1141.2
-1185.96
-1231.05
-1276.56
-1322.41
-1368.54
-1414.89
-1461.37
-1507.97
-1554.63
-1601.28
-1647.89
-1694.39
-1740.74
-1786.89
-1832.8
-1878.42
-1923.7
-1968.61
-2013.11
-2057.16
-2100.73
-2143.77
-2186.26
-2228.17
-2269.46
-2310.12
-2350.12
-2389.44
-2428.05
-2465.93
-2503.08
-2539.47
-2575.09
-2609.93
-2643.97
-2677.21
-2709.64
-2741.26
-2772.05
-2802.02
-2831.17
-2859.48
-2886.96
-2913.62
-2939.45
-2964.45
-2988.63
-3012
-3034.55
-3056.29
-3077.23
-3097.37
-3116.73
-3135.3
-3153.1
-3170.13
-3186.4
-3201.92
-3216.69
-3230.74
-3244.06
-3256.66
-3268.56
-3279.76
-3290.28
-3300.12
-3309.28
-3317.79
-3325.65
-3332.86
-3339.45
-3345.4
-3350.74
-3355.48
-3359.61
-3363.14
-3366.09
-3368.45
-3370.24
-3371.45
-3372.1
-3372.17
-3371.69
-3370.64
-3369.04
-3366.87
-3364.15
-3360.87
-3357.02
-3352.62
-3347.65
-3342.12
-3336.01
-3329.34
-3322.09
-3314.27
-3305.86
-3296.87
-3287.3
-3277.13
-3266.37
-3255.02
-3243.07
-3230.53
-3217.38
-3203.63
-3189.28
-3174.33
-3158.78
-3142.63
-3125.88
-3108.53
-3090.58
-3072.04
-3052.91
-3033.19
-3012.89
-2992.01
-2970.55
-2948.53
-2925.94
-2902.8
-2879.11
-2854.87
-2830.09
-2804.78
-2778.95
-2752.61
-2725.75
-2698.4
-2670.55
-2642.22
-2613.42
-2584.15
-2554.43
-2524.25
-2493.63
-2462.59
-2431.11
-2399.23
-2366.94
-2334.25
-2301.17
-2267.71
-2233.87
-2199.66
-2165.1
-2130.17
-2094.91
-2059.3
-2023.35
-1987.07
-1950.47
-1913.55
-1876.31
-1838.76
-1800.9
-1762.74
-1724.27
-1685.51
-1646.45
-1607.09
-1567.44
-1527.49
-1487.26
-1446.73
-1405.92
-1364.81
-1323.42
-1281.74
-1239.77
-1197.52
-1154.97
-1112.14
-1069.02
-1025.62
-981.925
-937.947
-893.683
-849.134
-804.3
-759.184
-713.786
-668.107
-622.15
-575.915
-529.407
-482.629
-435.584
-388.276
-340.713
-292.898
-244.836
-196.533
-147.994
-99.2248
-50.2305
-1.01834
48.4042
98.0292
147.848
197.853
248.034
298.381
348.885
399.536
450.322
501.233
552.256
603.38
654.594
705.883
757.236
808.639
860.078
911.541
963.013
1014.48
1065.93
1117.34
1168.71
1220.01
1271.23
1322.36
1373.38
1424.28
1475.03
1525.64
1576.07
1626.32
1676.38
1726.21
1775.82
1825.19
1874.3
1923.14
1971.69
2019.95
2067.89
2115.51
2162.79
2209.73
2256.3
2302.51
2348.33
2393.76
2438.79
2483.4
2527.6
2571.37
2614.71
2657.6
2700.04
2742.03
2783.57
2824.63
2865.23
2905.35
2944.98
2984.12
3022.83
3061.08
3098.84
3136.14
3172.96
3209.31
3245.19
3280.6
3315.55
3350.05
3384.08
3417.67
3450.81
3483.52
3515.79
3547.63
3579.06
3610.07
3640.67
3670.88
3700.69
3730.12
3759.18
3787.87
3816.21
3844.19
3871.84
3899.15
3926.15
3952.83
3979.2
4005.28
4031.07
4056.59
4081.84
4106.82
4131.56
4156.05
4180.31
4204.34
4228.15
4251.75
4275.15
4298.35
4321.36
4344.19
4366.85
4389.33
4411.65
4433.81
4455.82
4477.68
4499.39
4520.97
4542.4
4563.71
4584.89
4605.93
4626.86
4647.66
4668.33
4688.89
4709.33
4729.65
4749.85
4769.93
4789.88
4809.72
4829.43
4849.02
4868.47
4887.8
4906.99
4926.04
4944.95
4963.72
4982.33
5000.79
5019.09
5037.23
5055.19
5072.97
5090.57
5107.98
5125.19
5142.2
5159
5175.58
5191.93
5208.05
5223.92
5239.55
5254.92
5270.03
5284.86
5299.4
5313.66
5327.62
5341.28
5354.62
5367.64
5380.32
5392.67
5404.68
5416.33
5427.62
5438.55
5449.1
5459.27
5469.05
5478.44
5487.44
5496.03
5504.21
5511.98
5519.34
5526.27
5532.78
5538.87
5544.52
5549.75
5554.55
5558.92
5562.85
5566.36
5569.43
5572.08
5574.3
5576.11
5577.49
5578.46
5579.01
5579.17
5578.92
5578.29
5577.27
5575.87
5574.11
5571.98
5569.51
5566.69
5563.55
5560.08
5556.31
5552.24
5547.89
5543.27
5538.38
5533.26
5527.9
5522.32
5516.54
5510.58
5504.43
5498.13
5491.68
5485.09
5478.39
5471.59
5464.71
5457.74
5450.73
5443.66
5436.57
5429.46
5422.35
5415.26
5408.19
5401.16
5394.18
5387.26
5380.42
5373.67
5367.02
5360.48
5354.07
5347.78
5341.64
5335.64
5329.81
5324.15
5318.66
5313.36
5308.25
5303.35
5298.64
5294.15
5289.89
5285.81
5282.13
5278.26
5275.53
5271.57
5270.03
5265.87
5265.43
5261.19
5261.64
5257.66
5258.68
5255.44
5256.5
5254.63
5255.05
-223.386
-224.232
-228.905
-232.452
-240.285
-247.788
-258.1
-269.496
-282.686
-297.415
-313.73
-331.592
-350.987
-371.886
-394.266
-418.097
-443.35
-469.993
-497.991
-527.309
-557.91
-589.753
-622.798
-657.003
-692.322
-728.712
-766.123
-804.507
-843.815
-883.995
-924.994
-966.761
-1009.24
-1052.37
-1096.11
-1140.37
-1185.14
-1230.44
-1276.07
-1322
-1368.21
-1414.63
-1461.21
-1507.9
-1554.63
-1601.37
-1648.04
-1694.62
-1741.04
-1787.26
-1833.23
-1878.91
-1924.26
-1969.23
-2013.79
-2057.89
-2101.51
-2144.6
-2187.14
-2229.1
-2270.44
-2311.14
-2351.18
-2390.53
-2429.18
-2467.09
-2504.27
-2540.69
-2576.33
-2611.19
-2645.26
-2678.52
-2710.96
-2742.6
-2773.4
-2803.38
-2832.53
-2860.85
-2888.34
-2915
-2940.83
-2965.84
-2990.02
-3013.38
-3035.92
-3057.66
-3078.59
-3098.73
-3118.08
-3136.64
-3154.42
-3171.44
-3187.7
-3203.2
-3217.97
-3232
-3245.3
-3257.89
-3269.77
-3280.95
-3291.45
-3301.27
-3310.42
-3318.91
-3326.75
-3333.94
-3340.51
-3346.45
-3351.77
-3356.48
-3360.6
-3364.12
-3367.05
-3369.4
-3371.17
-3372.37
-3373
-3373.07
-3372.57
-3371.52
-3369.9
-3367.73
-3365
-3361.71
-3357.86
-3353.46
-3348.49
-3342.95
-3336.84
-3330.17
-3322.92
-3315.1
-3306.69
-3297.7
-3288.13
-3277.96
-3267.21
-3255.86
-3243.91
-3231.36
-3218.22
-3204.47
-3190.12
-3175.17
-3159.61
-3143.46
-3126.71
-3109.35
-3091.4
-3072.86
-3053.72
-3034
-3013.69
-2992.8
-2971.34
-2949.31
-2926.72
-2903.57
-2879.87
-2855.62
-2830.83
-2805.52
-2779.67
-2753.32
-2726.45
-2699.09
-2671.23
-2642.89
-2614.08
-2584.79
-2555.06
-2524.87
-2494.24
-2463.18
-2431.7
-2399.8
-2367.49
-2334.79
-2301.7
-2268.23
-2234.38
-2200.17
-2165.59
-2130.66
-2095.38
-2059.77
-2023.81
-1987.53
-1950.93
-1914
-1876.76
-1839.21
-1801.35
-1763.18
-1724.72
-1685.95
-1646.89
-1607.53
-1567.89
-1527.94
-1487.71
-1447.19
-1406.38
-1365.28
-1323.9
-1282.22
-1240.26
-1198.01
-1155.47
-1112.65
-1069.54
-1026.14
-982.449
-938.477
-894.218
-849.673
-804.844
-759.732
-714.338
-668.663
-622.709
-576.479
-529.975
-483.2
-436.159
-388.855
-341.292
-293.477
-245.413
-197.106
-148.561
-99.784
-50.7817
-1.56085
47.8713
97.5068
147.337
197.354
247.548
297.909
348.428
399.095
449.897
500.825
551.866
603.009
654.241
705.55
756.924
808.348
859.809
911.295
962.789
1014.28
1065.75
1117.19
1168.58
1219.9
1271.15
1322.31
1373.35
1424.28
1475.06
1525.69
1576.15
1626.43
1676.51
1726.37
1776.01
1825.4
1874.54
1923.4
1971.98
2020.26
2068.23
2115.87
2163.18
2210.13
2256.73
2302.95
2348.8
2394.24
2439.29
2483.93
2528.14
2571.93
2615.28
2658.18
2700.64
2742.65
2784.19
2825.27
2865.88
2906.02
2945.69
2984.87
3023.57
3061.79
3099.57
3136.84
3173.65
3209.98
3245.85
3281.25
3316.19
3350.67
3384.69
3418.27
3451.39
3484.08
3516.33
3548.16
3579.57
3610.56
3641.14
3671.33
3701.12
3730.53
3759.57
3788.24
3816.55
3844.51
3872.13
3899.43
3926.4
3953.05
3979.4
4005.46
4031.23
4056.73
4081.95
4106.91
4131.63
4156.1
4180.34
4204.35
4228.14
4251.72
4275.1
4298.28
4321.28
4344.09
4366.73
4389.2
4411.5
4433.65
4455.64
4477.48
4499.19
4520.75
4542.18
4563.47
4584.64
4605.68
4626.59
4647.39
4668.06
4688.61
4709.05
4729.36
4749.56
4769.64
4789.6
4809.43
4829.14
4848.73
4868.19
4887.52
4906.72
4925.78
4944.69
4963.47
4982.09
5000.56
5018.87
5037.01
5054.99
5072.78
5090.39
5107.82
5125.04
5142.07
5158.88
5175.47
5191.84
5207.98
5223.87
5239.51
5254.9
5270.03
5284.87
5299.44
5313.72
5327.7
5341.37
5354.73
5367.77
5380.48
5392.85
5404.87
5416.54
5427.86
5438.8
5449.37
5459.56
5469.36
5478.77
5487.78
5496.39
5504.59
5512.37
5519.74
5526.69
5533.21
5539.31
5544.98
5550.22
5555.02
5559.4
5563.34
5566.85
5569.94
5572.59
5574.82
5576.62
5578
5578.97
5579.53
5579.68
5579.43
5578.79
5577.77
5576.36
5574.59
5572.45
5569.97
5567.14
5563.99
5560.51
5556.72
5552.64
5548.27
5543.63
5538.74
5533.59
5528.22
5522.62
5516.83
5510.84
5504.67
5498.35
5491.88
5485.28
5478.56
5471.74
5464.83
5457.85
5450.81
5443.73
5436.62
5429.49
5422.36
5415.25
5408.16
5401.1
5394.11
5387.17
5380.31
5373.55
5366.88
5360.32
5353.89
5347.58
5341.42
5335.42
5329.57
5323.89
5318.39
5313.08
5307.96
5303.04
5298.32
5293.82
5289.56
5285.44
5281.8
5277.84
5275.23
5271.1
5269.76
5265.38
5265.19
5260.69
5261.35
5257.19
5258.29
5255.03
5256.04
5254.25
5254.64
-219.988
-220.837
-225.519
-229.073
-236.928
-244.441
-254.786
-266.203
-279.428
-294.19
-310.545
-328.451
-347.893
-368.844
-391.28
-415.171
-440.488
-467.198
-495.268
-524.662
-555.342
-587.268
-620.4
-654.695
-690.108
-726.594
-764.105
-802.592
-842.006
-882.295
-923.408
-965.292
-1007.89
-1051.16
-1095.04
-1139.49
-1184.43
-1229.71
-1275.42
-1321.47
-1367.8
-1414.33
-1461.02
-1507.81
-1554.65
-1601.49
-1648.28
-1694.96
-1741.48
-1787.81
-1833.88
-1879.66
-1925.1
-1970.16
-2014.81
-2058.99
-2102.69
-2145.86
-2188.47
-2230.5
-2271.91
-2312.67
-2352.77
-2392.17
-2430.87
-2468.84
-2506.06
-2542.51
-2578.2
-2613.09
-2647.19
-2680.48
-2712.95
-2744.6
-2775.43
-2805.42
-2834.59
-2862.92
-2890.41
-2917.08
-2942.91
-2967.91
-2992.09
-3015.45
-3037.99
-3059.72
-3080.64
-3100.77
-3120.1
-3138.64
-3156.41
-3173.41
-3189.65
-3205.14
-3219.88
-3233.88
-3247.16
-3259.73
-3271.58
-3282.74
-3293.21
-3303
-3312.12
-3320.58
-3328.39
-3335.56
-3342.1
-3348.01
-3353.31
-3358
-3362.08
-3365.58
-3368.49
-3370.81
-3372.56
-3373.74
-3374.36
-3374.41
-3373.9
-3372.83
-3371.2
-3369.02
-3366.28
-3362.98
-3359.13
-3354.71
-3349.74
-3344.2
-3338.09
-3331.42
-3324.17
-3316.34
-3307.94
-3298.95
-3289.38
-3279.21
-3268.46
-3257.11
-3245.16
-3232.62
-3219.47
-3205.72
-3191.37
-3176.42
-3160.87
-3144.71
-3127.95
-3110.59
-3092.64
-3074.09
-3054.94
-3035.21
-3014.9
-2994
-2972.53
-2950.49
-2927.89
-2904.73
-2881.01
-2856.75
-2831.95
-2806.61
-2780.76
-2754.38
-2727.5
-2700.12
-2672.24
-2643.89
-2615.05
-2585.75
-2555.99
-2525.79
-2495.14
-2464.06
-2432.56
-2400.65
-2368.32
-2335.61
-2302.5
-2269.01
-2235.15
-2200.92
-2166.33
-2131.39
-2096.1
-2060.47
-2024.51
-1988.22
-1951.61
-1914.68
-1877.43
-1839.88
-1802.01
-1763.85
-1725.38
-1686.62
-1647.56
-1608.21
-1568.56
-1528.63
-1488.4
-1447.88
-1407.08
-1365.99
-1324.61
-1282.95
-1240.99
-1198.75
-1156.22
-1113.41
-1070.3
-1026.91
-983.236
-939.272
-895.021
-850.484
-805.663
-760.557
-715.168
-669.499
-623.549
-577.323
-530.822
-484.05
-437.009
-389.705
-342.141
-294.323
-246.255
-197.942
-149.391
-100.607
-51.5953
-2.36424
47.0794
96.7276
146.572
196.604
246.815
297.195
347.733
398.42
449.245
500.196
551.262
602.431
653.69
705.028
756.431
807.886
859.38
910.898
962.427
1013.95
1065.46
1116.93
1168.36
1219.73
1271.01
1322.21
1373.29
1424.26
1475.08
1525.75
1576.26
1626.57
1676.69
1726.6
1776.28
1825.71
1874.88
1923.79
1972.4
2020.72
2068.73
2116.41
2163.75
2210.74
2257.37
2303.63
2349.5
2394.97
2440.05
2484.71
2528.94
2572.75
2616.12
2659.05
2701.52
2743.54
2785.09
2826.18
2866.8
2906.94
2946.61
2985.79
3024.5
3062.73
3100.49
3137.79
3174.6
3210.94
3246.8
3282.2
3317.13
3351.6
3385.61
3419.16
3452.28
3484.95
3517.18
3548.98
3580.37
3611.33
3641.89
3672.05
3701.82
3731.2
3760.21
3788.85
3817.14
3845.07
3872.66
3899.92
3926.86
3953.48
3979.8
4005.83
4031.57
4057.03
4082.22
4107.16
4131.84
4156.28
4180.49
4204.47
4228.23
4251.79
4275.14
4298.29
4321.26
4344.05
4366.66
4389.1
4411.39
4433.51
4455.48
4477.31
4498.99
4520.54
4541.95
4563.23
4584.38
4605.41
4626.31
4647.09
4667.76
4688.3
4708.73
4729.04
4749.23
4769.31
4789.26
4809.1
4828.81
4848.4
4867.86
4887.2
4906.4
4925.47
4944.39
4963.17
4981.81
5000.29
5018.61
5036.77
5054.76
5072.57
5090.2
5107.64
5124.88
5141.93
5158.76
5175.37
5191.76
5207.92
5223.84
5239.51
5254.92
5270.07
5284.94
5299.54
5313.84
5327.85
5341.55
5354.94
5368
5380.73
5393.13
5405.18
5416.88
5428.22
5439.19
5449.78
5460
5469.83
5479.26
5488.29
5496.92
5505.14
5512.95
5520.34
5527.31
5533.85
5539.96
5545.65
5550.9
5555.72
5560.1
5564.06
5567.58
5570.67
5573.32
5575.56
5577.36
5578.75
5579.71
5580.27
5580.41
5580.16
5579.51
5578.48
5577.06
5575.28
5573.13
5570.63
5567.79
5564.61
5561.12
5557.31
5553.21
5548.82
5544.15
5539.23
5534.06
5528.66
5523.04
5517.21
5511.2
5505.01
5498.65
5492.15
5485.52
5478.77
5471.92
5464.98
5457.97
5450.91
5443.79
5436.65
5429.5
5422.34
5415.2
5408.08
5401
5393.98
5387.02
5380.14
5373.34
5366.65
5360.07
5353.62
5347.29
5341.11
5335.09
5329.22
5323.53
5318.01
5312.68
5307.55
5302.61
5297.88
5293.36
5289.13
5284.87
5281.44
5277.13
5274.93
5270.34
5269.55
5264.61
5265.04
5259.89
5261.09
5256.45
5257.91
5254.36
5255.5
5253.66
5254.09
-215.45
-216.312
-221
-224.57
-232.448
-239.983
-250.364
-261.814
-275.083
-289.892
-306.3
-324.264
-343.77
-364.79
-387.3
-411.271
-436.673
-463.474
-491.639
-521.134
-551.919
-583.956
-617.203
-651.618
-687.155
-723.77
-761.413
-800.037
-839.59
-880.022
-921.28
-963.31
-1006.06
-1049.47
-1093.48
-1138
-1182.9
-1228.58
-1274.5
-1320.72
-1367.2
-1413.89
-1460.73
-1507.68
-1554.68
-1601.67
-1648.6
-1695.42
-1742.08
-1788.54
-1834.75
-1880.65
-1926.22
-1971.4
-2016.16
-2060.47
-2104.27
-2147.54
-2190.25
-2232.37
-2273.87
-2314.71
-2354.89
-2394.37
-2433.13
-2471.17
-2508.44
-2544.96
-2580.69
-2615.63
-2649.77
-2683.09
-2715.6
-2747.28
-2778.13
-2808.15
-2837.33
-2865.67
-2893.18
-2919.85
-2945.68
-2970.69
-2994.86
-3018.21
-3040.75
-3062.46
-3083.37
-3103.48
-3122.8
-3141.32
-3159.07
-3176.04
-3192.26
-3207.71
-3222.42
-3236.4
-3249.65
-3262.18
-3274
-3285.12
-3295.56
-3305.31
-3314.4
-3322.82
-3330.59
-3337.72
-3344.22
-3350.1
-3355.36
-3360.01
-3364.07
-3367.53
-3370.4
-3372.7
-3374.42
-3375.58
-3376.16
-3376.19
-3375.66
-3374.57
-3372.93
-3370.73
-3367.98
-3364.67
-3360.81
-3356.39
-3351.4
-3345.86
-3339.75
-3333.08
-3325.83
-3318
-3309.6
-3300.61
-3291.04
-3280.88
-3270.13
-3258.78
-3246.83
-3234.29
-3221.15
-3207.4
-3193.05
-3178.09
-3162.54
-3146.38
-3129.61
-3112.25
-3094.29
-3075.73
-3056.58
-3036.84
-3016.51
-2995.61
-2974.12
-2952.07
-2929.45
-2906.27
-2882.53
-2858.25
-2833.43
-2808.08
-2782.2
-2755.81
-2728.9
-2701.5
-2673.6
-2645.21
-2616.36
-2587.03
-2557.25
-2527.02
-2496.34
-2465.24
-2433.72
-2401.78
-2369.43
-2336.69
-2303.56
-2270.05
-2236.17
-2201.92
-2167.31
-2132.36
-2097.05
-2061.41
-2025.44
-1989.14
-1952.52
-1915.58
-1878.33
-1840.77
-1802.9
-1764.73
-1726.27
-1687.51
-1648.45
-1609.1
-1569.46
-1529.53
-1489.31
-1448.81
-1408.01
-1366.93
-1325.57
-1283.91
-1241.97
-1199.74
-1157.22
-1114.42
-1071.33
-1027.95
-984.287
-940.333
-896.093
-851.567
-806.754
-761.657
-716.275
-670.611
-624.667
-578.444
-531.945
-485.173
-438.132
-390.826
-343.259
-295.435
-247.361
-199.04
-150.478
-101.682
-52.6582
-3.41247
46.0474
95.7136
145.578
195.631
245.865
296.269
346.834
397.549
448.403
499.386
550.485
601.689
652.985
704.36
755.803
807.298
858.834
910.396
961.969
1013.54
1065.09
1116.62
1168.09
1219.51
1270.85
1322.09
1373.23
1424.25
1475.13
1525.85
1576.41
1626.78
1676.96
1726.91
1776.65
1826.13
1875.36
1924.32
1972.99
2021.36
2069.41
2117.14
2164.53
2211.57
2258.24
2304.54
2350.45
2395.97
2441.08
2485.78
2530.05
2573.89
2617.29
2660.25
2702.75
2744.79
2786.36
2827.47
2868.11
2908.26
2947.94
2987.14
3025.85
3064.09
3101.85
3139.13
3175.93
3212.26
3248.11
3283.49
3318.41
3352.85
3386.84
3420.38
3453.46
3486.11
3518.31
3550.09
3581.44
3612.37
3642.89
3673.02
3702.75
3732.09
3761.06
3789.66
3817.9
3845.79
3873.34
3900.56
3927.46
3954.04
3980.32
4006.3
4031.99
4057.41
4082.56
4107.45
4132.1
4156.49
4180.66
4204.6
4228.33
4251.84
4275.16
4298.28
4321.21
4343.96
4366.54
4388.95
4411.2
4433.3
4455.25
4477.05
4498.7
4520.23
4541.62
4562.88
4584.01
4605.02
4625.91
4646.68
4667.33
4687.86
4708.28
4728.59
4748.77
4768.84
4788.8
4808.63
4828.35
4847.94
4867.41
4886.75
4905.96
4925.03
4943.97
4962.77
4981.41
4999.91
5018.25
5036.43
5054.43
5072.27
5089.92
5107.38
5124.66
5141.72
5158.58
5175.23
5191.65
5207.84
5223.79
5239.49
5254.93
5270.11
5285.02
5299.65
5313.99
5328.03
5341.77
5355.19
5368.29
5381.06
5393.49
5405.58
5417.32
5428.69
5439.69
5450.32
5460.57
5470.43
5479.9
5488.96
5497.62
5505.87
5513.7
5521.12
5528.11
5534.68
5540.81
5546.52
5551.79
5556.63
5561.03
5564.99
5568.52
5571.62
5574.29
5576.52
5578.33
5579.72
5580.68
5581.23
5581.38
5581.12
5580.46
5579.41
5577.98
5576.18
5574.02
5571.5
5568.63
5565.43
5561.91
5558.08
5553.94
5549.52
5544.83
5539.88
5534.67
5529.24
5523.58
5517.72
5511.66
5505.43
5499.04
5492.5
5485.83
5479.05
5472.16
5465.18
5458.13
5451.02
5443.87
5436.69
5429.5
5422.3
5415.12
5407.97
5400.86
5393.8
5386.81
5379.89
5373.07
5366.35
5359.74
5353.25
5346.9
5340.69
5334.64
5328.75
5323.03
5317.49
5312.14
5306.99
5302.03
5297.29
5292.71
5288.54
5284.13
5280.89
5276.33
5274.35
5269.51
5269.09
5263.7
5264.81
5258.74
5260.77
5255.32
5257.45
5253.33
5254.82
5252.85
5253.36
-209.772
-210.649
-215.339
-218.94
-226.834
-234.41
-244.826
-256.323
-269.646
-284.514
-300.989
-319.026
-338.612
-359.718
-382.322
-406.393
-431.901
-458.815
-487.1
-516.721
-547.638
-579.814
-613.205
-647.77
-683.463
-720.238
-758.047
-796.841
-836.569
-877.18
-918.62
-960.836
-1003.77
-1047.38
-1091.59
-1136.38
-1181.79
-1227.34
-1273.4
-1319.8
-1366.47
-1413.35
-1460.39
-1507.53
-1554.71
-1601.88
-1649
-1696
-1742.84
-1789.47
-1835.84
-1881.91
-1927.63
-1972.96
-2017.87
-2062.31
-2106.25
-2149.65
-2192.48
-2234.72
-2276.32
-2317.27
-2357.55
-2397.12
-2435.97
-2474.08
-2511.44
-2548.02
-2583.81
-2618.81
-2653
-2686.37
-2718.92
-2750.63
-2781.51
-2811.56
-2840.76
-2869.12
-2896.64
-2923.32
-2949.16
-2974.16
-2998.33
-3021.68
-3044.2
-3065.9
-3086.79
-3106.88
-3126.17
-3144.67
-3162.39
-3179.34
-3195.52
-3210.94
-3225.61
-3239.55
-3252.76
-3265.25
-3277.02
-3288.1
-3298.49
-3308.2
-3317.24
-3325.62
-3333.34
-3340.43
-3346.88
-3352.71
-3357.92
-3362.53
-3366.54
-3369.96
-3372.8
-3375.06
-3376.75
-3377.86
-3378.42
-3378.42
-3377.86
-3376.75
-3375.09
-3372.87
-3370.1
-3366.78
-3362.91
-3358.48
-3353.49
-3347.94
-3341.83
-3335.15
-3327.9
-3320.08
-3311.67
-3302.69
-3293.12
-3282.96
-3272.21
-3260.87
-3248.93
-3236.38
-3223.24
-3209.49
-3195.14
-3180.19
-3164.63
-3148.46
-3131.69
-3114.32
-3096.35
-3077.79
-3058.63
-3038.87
-3018.53
-2997.61
-2976.11
-2954.04
-2931.4
-2908.2
-2884.44
-2860.14
-2835.29
-2809.91
-2784.01
-2757.59
-2730.65
-2703.22
-2675.29
-2646.87
-2617.98
-2588.63
-2558.81
-2528.55
-2497.85
-2466.71
-2435.16
-2403.19
-2370.81
-2338.05
-2304.89
-2271.35
-2237.44
-2203.17
-2168.54
-2133.56
-2098.24
-2062.59
-2026.6
-1990.28
-1953.65
-1916.7
-1879.44
-1841.88
-1804.01
-1765.84
-1727.38
-1688.62
-1649.56
-1610.22
-1570.59
-1530.67
-1490.46
-1449.96
-1409.18
-1368.11
-1326.76
-1285.12
-1243.19
-1200.98
-1158.48
-1115.69
-1072.62
-1029.25
-985.601
-941.662
-897.436
-852.922
-808.122
-763.036
-717.664
-672.01
-626.073
-579.858
-533.364
-486.597
-439.558
-392.253
-344.684
-296.857
-248.776
-200.446
-151.873
-103.064
-54.0236
-4.75975
44.7205
94.4094
144.298
194.379
244.642
295.078
345.677
396.428
447.32
498.343
549.484
600.732
652.075
703.499
754.991
806.539
858.128
909.745
961.375
1013.01
1064.62
1116.2
1167.74
1219.22
1270.62
1321.93
1373.14
1424.22
1475.17
1525.96
1576.59
1627.03
1677.27
1727.3
1777.1
1826.65
1875.95
1924.97
1973.7
2022.14
2070.25
2118.04
2165.49
2212.59
2259.32
2305.67
2351.64
2397.2
2442.36
2487.1
2531.42
2575.3
2618.73
2661.72
2704.25
2746.32
2787.92
2829.05
2869.7
2909.87
2949.56
2988.77
3027.5
3065.74
3103.5
3140.78
3177.57
3213.89
3249.73
3285.09
3319.99
3354.41
3388.38
3421.89
3454.94
3487.55
3519.72
3551.46
3582.77
3613.66
3644.15
3674.22
3703.91
3733.2
3762.12
3790.67
3818.87
3846.7
3874.2
3901.37
3928.21
3954.74
3980.96
4006.89
4032.53
4057.9
4082.99
4107.83
4132.42
4156.77
4180.88
4204.78
4228.45
4251.92
4275.19
4298.26
4321.15
4343.86
4366.4
4388.77
4410.98
4433.04
4454.95
4476.72
4498.35
4519.84
4541.2
4562.44
4583.55
4604.54
4625.41
4646.16
4666.79
4687.32
4707.72
4728.02
4748.2
4768.26
4788.21
4808.05
4827.77
4847.36
4866.84
4886.18
4905.4
4924.49
4943.44
4962.25
4980.92
4999.44
5017.8
5036
5054.03
5071.89
5089.57
5107.07
5124.37
5141.47
5158.36
5175.04
5191.5
5207.73
5223.71
5239.46
5254.94
5270.17
5285.12
5299.79
5314.17
5328.26
5342.04
5355.51
5368.65
5381.47
5393.95
5406.08
5417.86
5429.27
5440.32
5450.99
5461.28
5471.19
5480.69
5489.8
5498.49
5506.78
5514.65
5522.1
5529.12
5535.71
5541.88
5547.61
5552.9
5557.76
5562.18
5566.16
5569.71
5572.82
5575.49
5577.73
5579.55
5580.93
5581.9
5582.45
5582.58
5582.31
5581.64
5580.58
5579.13
5577.31
5575.12
5572.58
5569.69
5566.46
5562.9
5559.04
5554.87
5550.41
5545.68
5540.68
5535.44
5529.96
5524.26
5518.35
5512.25
5505.97
5499.53
5492.95
5486.23
5479.39
5472.45
5465.42
5458.32
5451.17
5443.97
5436.74
5429.5
5422.26
5415.03
5407.84
5400.68
5393.58
5386.54
5379.59
5372.72
5365.96
5359.32
5352.8
5346.41
5340.17
5334.09
5328.17
5322.42
5316.85
5311.47
5306.29
5301.32
5296.55
5291.93
5287.8
5283.28
5280.15
5275.39
5273.64
5268.46
5268.33
5262.68
5264.18
5257.57
5260.18
5254.15
5256.88
5252.15
5254.09
5251.86
5252.47
-202.949
-203.84
-208.533
-212.175
-220.084
-227.712
-238.17
-249.725
-263.111
-278.051
-294.606
-312.731
-332.413
-353.624
-376.339
-400.531
-426.167
-453.217
-481.646
-511.418
-542.495
-574.837
-608.402
-643.146
-679.026
-715.994
-754.002
-793.001
-832.939
-873.765
-915.424
-957.863
-1001.03
-1044.86
-1089.3
-1134.3
-1179.76
-1225.73
-1272.05
-1318.69
-1365.6
-1412.71
-1459.98
-1507.35
-1554.76
-1602.15
-1649.49
-1696.7
-1743.75
-1790.58
-1837.16
-1883.42
-1929.33
-1974.84
-2019.93
-2064.53
-2108.63
-2152.19
-2195.17
-2237.54
-2279.28
-2320.36
-2360.75
-2400.43
-2439.39
-2477.6
-2515.04
-2551.7
-2587.57
-2622.64
-2656.89
-2690.31
-2722.91
-2754.67
-2785.58
-2815.66
-2844.89
-2873.27
-2900.8
-2927.49
-2953.33
-2978.33
-3002.5
-3025.84
-3048.35
-3070.03
-3090.9
-3110.97
-3130.23
-3148.7
-3166.39
-3183.29
-3199.43
-3214.81
-3229.44
-3243.33
-3256.49
-3268.93
-3280.66
-3291.68
-3302.02
-3311.67
-3320.65
-3328.97
-3336.64
-3343.67
-3350.07
-3355.84
-3361
-3365.56
-3369.52
-3372.89
-3375.67
-3377.89
-3379.53
-3380.61
-3381.13
-3381.09
-3380.5
-3379.36
-3377.67
-3375.44
-3372.65
-3369.31
-3365.42
-3360.98
-3355.99
-3350.43
-3344.32
-3337.64
-3330.39
-3322.57
-3314.17
-3305.18
-3295.62
-3285.46
-3274.72
-3263.38
-3251.44
-3238.9
-3225.75
-3212.01
-3197.66
-3182.7
-3167.14
-3150.97
-3134.19
-3116.81
-3098.84
-3080.26
-3061.08
-3041.32
-3020.96
-3000.02
-2978.5
-2956.41
-2933.74
-2910.52
-2886.73
-2862.4
-2837.53
-2812.12
-2786.18
-2759.72
-2732.75
-2705.28
-2677.32
-2648.87
-2619.94
-2590.55
-2560.69
-2530.39
-2499.65
-2468.48
-2436.89
-2404.88
-2372.47
-2339.67
-2306.48
-2272.91
-2238.97
-2204.67
-2170.02
-2135.01
-2099.67
-2063.99
-2027.99
-1991.66
-1955.01
-1918.05
-1880.78
-1843.21
-1805.34
-1767.17
-1728.7
-1689.95
-1650.9
-1611.56
-1571.94
-1532.03
-1491.83
-1451.35
-1410.58
-1369.53
-1328.19
-1286.57
-1244.66
-1202.46
-1159.98
-1117.21
-1074.16
-1030.81
-987.181
-943.26
-899.05
-854.552
-809.766
-764.692
-719.333
-673.688
-627.759
-581.55
-535.06
-488.295
-441.256
-393.948
-346.374
-298.54
-250.449
-202.108
-153.521
-104.695
-55.6354
-6.34992
43.1545
92.8701
142.789
192.901
243.199
293.672
344.31
395.104
446.041
497.111
548.303
599.603
651
702.481
754.033
805.642
857.295
908.978
960.676
1012.38
1064.06
1115.72
1167.33
1218.88
1270.36
1321.75
1373.04
1424.2
1475.23
1526.1
1576.81
1627.33
1677.66
1727.77
1777.65
1827.28
1876.66
1925.76
1974.57
2023.08
2071.27
2119.14
2166.66
2213.82
2260.62
2307.04
2353.07
2398.69
2443.91
2488.7
2533.07
2577
2620.48
2663.5
2706.07
2748.17
2789.8
2830.96
2871.63
2911.82
2951.53
2990.75
3029.48
3067.72
3105.48
3142.75
3179.54
3215.84
3251.67
3287.01
3321.88
3356.28
3390.21
3423.69
3456.71
3489.28
3521.41
3553.1
3584.36
3615.2
3645.63
3675.66
3705.29
3734.53
3763.39
3791.88
3820.01
3847.78
3875.22
3902.32
3929.1
3955.56
3981.72
4007.58
4033.16
4058.46
4083.5
4108.27
4132.8
4157.09
4181.14
4204.97
4228.59
4252
4275.21
4298.23
4321.07
4343.73
4366.22
4388.54
4410.71
4432.72
4454.59
4476.32
4497.91
4519.37
4540.7
4561.9
4582.99
4603.95
4624.8
4645.53
4666.15
4686.65
4707.05
4727.33
4747.5
4767.56
4787.51
4807.35
4827.06
4846.67
4866.15
4885.5
4904.74
4923.84
4942.81
4961.64
4980.32
4998.86
5017.25
5035.48
5053.54
5071.43
5089.15
5106.68
5124.02
5141.16
5158.1
5174.82
5191.32
5207.59
5223.63
5239.42
5254.95
5270.23
5285.23
5299.96
5314.39
5328.53
5342.37
5355.89
5369.09
5381.96
5394.49
5406.68
5418.51
5429.98
5441.08
5451.8
5462.14
5472.1
5481.65
5490.8
5499.54
5507.87
5515.78
5523.27
5530.33
5536.96
5543.16
5548.92
5554.24
5559.13
5563.57
5567.57
5571.14
5574.26
5576.95
5579.2
5581.01
5582.4
5583.36
5583.91
5584.03
5583.75
5583.07
5581.99
5580.52
5578.67
5576.46
5573.88
5570.96
5567.69
5564.1
5560.2
5555.98
5551.48
5546.7
5541.66
5536.36
5530.83
5525.07
5519.11
5512.96
5506.62
5500.12
5493.48
5486.7
5479.8
5472.8
5465.72
5458.56
5451.34
5444.09
5436.8
5429.5
5422.21
5414.92
5407.67
5400.46
5393.31
5386.22
5379.22
5372.31
5365.5
5358.81
5352.24
5345.82
5339.54
5333.41
5327.46
5321.67
5316.07
5310.67
5305.46
5300.45
5295.66
5291
5286.89
5282.26
5279.24
5274.29
5272.7
5267.26
5267.29
5261.37