/*--------------------------------*- C++ -*----------------------------------*\
| =========                 |                                                 |
| \\      /  F ield         | OpenFOAM: The Open Source CFD Toolbox           |
|  \\    /   O peration     | Version:  v2006                                 |
|   \\  /    A nd           | Website:  www.openfoam.com                      |
|    \\/     M anipulation  |                                                 |
\*---------------------------------------------------------------------------*/
FoamFile
{
    version     2.0;
    format      ascii;
    class       volScalarField;
    location    "0";
    object      shifted_f;
}
// * * * * * * * * * * * * * * * * * * * * * * * * * * * * * * * * * * * * * //

dimensions      [0 0 0 0 0 0 0];


internalField   nonuniform List<scalar> 
2500
(
0.000265297
0.000265323
0.000265341
0.000265341
0.000265259
0.000265379
0.000265382
0.000265427
0.000265427
0.000265483
0.00026549
0.000265516
0.000265572
0.000265531
0.000265565
0.000265505
0.000265609
0.000265647
0.000265609
0.000265669
0.000265647
0.000265677
0.000265755
0.000265729
0.000265721
0.000265732
0.000265762
0.000265703
0.000265799
0.000265766
0.000265777
0.000265822
0.000265792
0.000265833
0.000265863
0.000265893
0.00026593
0.000265975
0.000265948
0.000265937
0.000265911
0.000266064
0.000266034
0.000266034
0.000266071
0.000266068
0.000266135
0.000266168
0.000266142
0.000274044
0.000274036
0.000274032
0.000274058
0.000274129
0.000274096
0.000274118
0.000274133
0.000274166
0.000274185
0.000274215
0.000274256
0.000274219
0.000274252
0.000274278
0.000274252
0.000274274
0.000274282
0.000274334
0.000274368
0.00027436
0.000274487
0.000274394
0.000274427
0.000274457
0.000274442
0.00027452
0.000274476
0.000274505
0.000274576
0.000274595
0.000274535
0.000274558
0.000274606
0.000274647
0.000274681
0.000274658
0.000274692
0.000274729
0.000274751
0.000274763
0.000274803
0.000274863
0.000274841
0.000274811
0.000274885
0.000274856
0.000274863
0.000274915
0.000274926
0.000274949
0.000274919
0.000275027
0.000274997
0.000274982
0.000275008
0.000275105
0.000275102
0.000275109
0.000275131
0.000275176
0.000275169
0.00027518
0.000275206
0.000275258
0.000275251
0.000275228
0.00027528
0.000275269
0.000275288
0.000275254
0.000275318
0.000275351
0.000275385
0.000275366
0.000275414
0.00027547
0.000275452
0.000275429
0.000275534
0.0002755
0.000275541
0.000275556
0.000275571
0.000275578
0.000275601
0.000275578
0.000275645
0.000275683
0.000275727
0.000275683
0.000275791
0.000275739
0.000275783
0.00027582
0.000275828
0.00027585
0.000275847
0.000275802
0.000275962
0.000275899
0.000272725
0.000272606
0.000272561
0.000272565
0.000272401
0.000272427
0.000272319
0.000272218
0.000272211
0.000272144
0.000272058
0.000271995
0.00027189
0.000271834
0.000271823
0.000271823
0.000271697
0.000271667
0.000271551
0.000271525
0.000271454
0.000271413
0.000271354
0.000271287
0.000271235
0.000271156
0.000271033
0.000271019
0.000270959
0.000270911
0.000270829
0.00027078
0.000270773
0.000270676
0.00027062
0.000270575
0.000270557
0.000270516
0.000270367
0.000270344
0.000270262
0.000270274
0.000270162
0.000270166
0.00027005
0.000270009
0.000269923
0.00026992
0.000269853
0.000269867
0.000269696
0.00026973
0.00026964
0.000269625
0.000269607
0.000269569
0.000269525
0.000269439
0.000269376
0.000269335
0.000269268
0.000269204
0.000269223
0.000269178
0.000269152
0.000269059
0.000269037
0.000269022
0.000268918
0.00026885
0.000268817
0.000268813
0.00026875
0.000268679
0.000268608
0.000268627
0.00026856
0.000268511
0.000268418
0.000268493
0.00026843
0.000268411
0.000268381
0.00026831
0.000268262
0.000268284
0.00026818
0.000268187
0.000268091
0.000268098
0.000268083
0.000268035
0.000267994
0.000267994
0.000267934
0.000267897
0.000267882
0.000267845
0.000267815
0.000267792
0.000267703
0.000256676
0.000256702
0.000256602
0.000256561
0.000256568
0.000256509
0.000256464
0.000256412
0.000256374
0.000256315
0.000256263
0.000256263
0.000256211
0.000256177
0.000256095
0.000256117
0.000256062
0.000255942
0.000255946
0.00025592
0.000255901
0.000255823
0.000255834
0.000255778
0.000255745
0.000255737
0.000255723
0.00025567
0.000255615
0.000255581
0.000255581
0.000255547
0.00025551
0.000255417
0.000255384
0.000255324
0.000255365
0.000255328
0.000255276
0.000255298
0.000255242
0.000255216
0.000255205
0.000255112
0.000255097
0.000255078
0.000255067
0.000255037
0.000255007
0.000255007
0.000254955
0.000254888
0.000254888
0.000254869
0.000254814
0.000254806
0.000254773
0.000254769
0.000254791
0.000254698
0.000254642
0.000254702
0.00025465
0.000254638
0.000254571
0.00025459
0.000254579
0.000254508
0.000254523
0.000254501
0.000254471
0.000254527
0.000254456
0.000254408
0.000254449
0.000254363
0.000254359
0.000254411
0.000254359
0.000254367
0.000254329
0.000254259
0.00025424
0.000254259
0.000254247
0.000254232
0.000254232
0.000254169
0.000254199
0.000254206
0.00025421
0.000254165
0.000254165
0.000254143
0.000254188
0.000254095
0.000254124
0.000254121
0.000254069
0.000254162
0.000254087
0.000250045
0.000250064
0.000250015
0.000249986
0.000249963
0.000249963
0.000249986
0.000249937
0.0002499
0.000249911
0.000249874
0.000249911
0.000249851
0.000249825
0.000249814
0.000249855
0.000249829
0.000249784
0.000249762
0.000249762
0.000249792
0.000249766
0.000249796
0.000249717
0.000249673
0.000249699
0.00024974
0.000249717
0.000249751
0.000249691
0.000249647
0.000249669
0.000249662
0.000249684
0.000249576
0.00024965
0.000249632
0.000249654
0.000249606
0.000249673
0.000249632
0.000249576
0.000249602
0.000249565
0.000249621
0.000249583
0.000249628
0.000249628
0.000249598
0.000249565
0.000249557
0.000249557
0.000249587
0.000249553
0.000249539
0.000249613
0.000249565
0.00024958
0.000249572
0.000249632
0.000249639
0.000249591
0.000249583
0.000249587
0.000249624
0.000249598
0.000249598
0.000249621
0.000249568
0.000249609
0.000249654
0.000249591
0.000249591
0.000249591
0.000249591
0.000249594
0.000249621
0.000249673
0.000249628
0.000249628
0.000249643
0.000249673
0.000249702
0.00024971
0.000249702
0.000249762
0.000249755
0.000249743
0.00024974
0.000249714
0.000249766
0.000249788
0.000249751
0.000249811
0.000249799
0.000249848
0.000249848
0.000249822
0.000249885
0.000249919
0.000249881
0.000250779
0.000250816
0.000250787
0.000250809
0.000250831
0.00025079
0.00025082
0.000250846
0.00025085
0.000250753
0.000250842
0.000250798
0.000250787
0.000250775
0.000250783
0.00025076
0.000250768
0.000250805
0.000250801
0.000250779
0.000250772
0.000250809
0.000250861
0.000250816
0.00025079
0.000250876
0.000250768
0.000250768
0.000250831
0.000250794
0.000250835
0.000250883
0.000250816
0.000250835
0.00025085
0.000250854
0.00025088
0.000250895
0.000250861
0.00025085
0.000250909
0.000250891
0.000250913
0.000250928
0.000250913
0.000250917
0.000250932
0.000251014
0.000250939
0.000250909
0.000250962
0.000250995
0.000250995
0.000250962
0.000251044
0.000251006
0.000251021
0.000251051
0.000251058
0.000251092
0.000251096
0.000251137
0.000251126
0.000251137
0.000251129
0.000251163
0.000251137
0.000251163
0.00025117
0.000251189
0.000251185
0.000251297
0.000251208
0.00025123
0.000251271
0.000251252
0.000251289
0.00025133
0.000251371
0.000251364
0.000251397
0.000251379
0.000251386
0.000251509
0.000251487
0.000251465
0.000251528
0.000251517
0.00025158
0.000251599
0.000251584
0.000251584
0.000251655
0.000251655
0.000251669
0.000251725
0.000251692
0.000251751
0.000251714
0.000251807
0.000251774
0.000254262
0.000254218
0.000254285
0.000254251
0.000254299
0.000254296
0.000254266
0.00025427
0.000254244
0.000254299
0.000254266
0.000254247
0.00025421
0.000254195
0.000254259
0.000254236
0.000254244
0.000254221
0.000254247
0.000254333
0.000254314
0.000254277
0.000254322
0.000254393
0.000254337
0.000254329
0.000254329
0.000254318
0.000254367
0.000254374
0.000254344
0.000254318
0.000254396
0.000254348
0.000254389
0.000254378
0.000254396
0.000254322
0.000254363
0.000254322
0.000254381
0.000254374
0.000254378
0.000254441
0.000254449
0.000254434
0.000254456
0.000254415
0.000254456
0.000254441
0.000254478
0.000254486
0.000254516
0.000254501
0.000254542
0.000254534
0.000254568
0.000254624
0.000254579
0.000254657
0.000254612
0.000254609
0.000254612
0.000254687
0.000254665
0.000254739
0.000254739
0.000254754
0.000254713
0.000254761
0.00025475
0.000254814
0.000254802
0.000254806
0.00025478
0.000254888
0.000254884
0.000254851
0.000254851
0.000254922
0.000254888
0.000254899
0.000254948
0.000254944
0.000254959
0.000254996
0.00025503
0.000255056
0.000255037
0.000255022
0.000255108
0.000255082
0.000255089
0.000255104
0.000255127
0.000255223
0.00025522
0.000255227
0.000255264
0.000255287
0.000255298
0.000257384
0.000257388
0.000257391
0.000257391
0.000257336
0.00025728
0.000257291
0.000257336
0.000257351
0.000257257
0.00025728
0.000257298
0.000257343
0.000257269
0.000257302
0.000257291
0.000257317
0.000257313
0.000257351
0.000257317
0.000257336
0.000257328
0.000257317
0.000257298
0.000257321
0.000257324
0.000257328
0.000257313
0.000257339
0.000257377
0.00025731
0.000257324
0.00025731
0.000257414
0.000257369
0.000257343
0.000257336
0.000257365
0.000257373
0.000257343
0.000257373
0.000257391
0.000257384
0.000257365
0.000257369
0.00025738
0.000257373
0.000257429
0.000257414
0.000257436
0.000257425
0.000257384
0.000257462
0.000257384
0.000257447
0.000257399
0.000257388
0.000257533
0.000257466
0.000257507
0.000257518
0.000257552
0.00025757
0.0002575
0.000257552
0.000257567
0.000257608
0.000257578
0.000257589
0.00025757
0.000257622
0.000257578
0.000257604
0.000257611
0.000257634
0.000257656
0.000257645
0.000257667
0.000257637
0.000257682
0.000257693
0.000257723
0.000257768
0.000257768
0.000257742
0.000257734
0.000257771
0.000257816
0.000257816
0.000257894
0.000257853
0.000257879
0.000257861
0.000257876
0.000257883
0.000257883
0.000257976
0.000258002
0.000257969
0.000257991
0.000258017
0.000259198
0.000259228
0.000259221
0.000259217
0.000259172
0.000259217
0.000259232
0.00025918
0.000259202
0.000259209
0.000259228
0.00025915
0.000259209
0.000259168
0.000259195
0.000259146
0.000259135
0.00025912
0.000259086
0.000259172
0.000259165
0.00025915
0.000259083
0.000259131
0.000259094
0.000259116
0.000259101
0.000259105
0.000259083
0.000259109
0.000259101
0.000259127
0.000259053
0.000259083
0.000259057
0.000259113
0.000259105
0.000259131
0.000259083
0.000259165
0.000259109
0.000259146
0.000259105
0.000259187
0.00025912
0.000259142
0.000259075
0.000259157
0.00025918
0.000259094
0.000259161
0.000259127
0.000259142
0.000259165
0.000259127
0.000259142
0.000259113
0.000259127
0.000259172
0.000259135
0.000259198
0.000259239
0.000259209
0.000259187
0.000259191
0.000259224
0.000259209
0.000259168
0.000259221
0.000259198
0.000259206
0.000259224
0.000259172
0.000259239
0.000259232
0.000259232
0.000259247
0.000259239
0.000259258
0.000259254
0.00025925
0.000259269
0.000259325
0.000259344
0.00025931
0.000259288
0.000259329
0.000259276
0.00025931
0.000259299
0.000259355
0.000259358
0.00025937
0.000259347
0.000259355
0.000259358
0.000259355
0.000259388
0.00025944
0.000259504
0.0002595
0.000259664
0.000259656
0.000259653
0.00025969
0.000259656
0.000259683
0.000259675
0.000259604
0.000259627
0.000259589
0.000259608
0.000259601
0.000259589
0.000259642
0.000259593
0.000259541
0.000259586
0.00025953
0.000259496
0.000259563
0.000259552
0.000259519
0.000259496
0.000259485
0.000259481
0.000259452
0.000259452
0.000259399
0.000259396
0.000259411
0.000259418
0.000259392
0.000259448
0.000259437
0.000259425
0.000259425
0.000259381
0.000259403
0.000259403
0.00025944
0.000259474
0.000259411
0.000259396
0.000259407
0.000259425
0.000259392
0.00025944
0.000259433
0.000259437
0.00025937
0.000259418
0.000259329
0.000259373
0.000259411
0.000259355
0.000259381
0.000259347
0.000259358
0.000259358
0.000259425
0.000259381
0.000259392
0.000259429
0.000259418
0.00025937
0.000259403
0.000259385
0.000259329
0.000259388
0.000259433
0.000259392
0.000259455
0.000259437
0.000259396
0.000259403
0.000259448
0.000259433
0.000259399
0.000259455
0.000259448
0.000259429
0.000259403
0.000259381
0.000259448
0.000259425
0.000259366
0.000259373
0.000259459
0.000259358
0.000259381
0.000259448
0.000259485
0.000259466
0.000259429
0.000259437
0.000259478
0.000259507
0.000259537
0.0002595
0.000259493
0.000259507
0.000258796
0.000258695
0.000258718
0.000258721
0.000258714
0.00025868
0.000258692
0.000258677
0.000258651
0.000258639
0.000258666
0.000258613
0.000258617
0.000258666
0.00025855
0.000258546
0.000258535
0.000258557
0.00025852
0.000258498
0.00025855
0.00025849
0.000258442
0.000258505
0.000258457
0.000258479
0.000258502
0.000258457
0.000258453
0.000258427
0.000258476
0.000258453
0.000258442
0.000258382
0.000258427
0.000258405
0.00025839
0.000258375
0.000258375
0.000258412
0.000258323
0.000258371
0.00025836
0.00025836
0.000258386
0.000258379
0.000258315
0.00025833
0.000258289
0.000258345
0.000258289
0.000258327
0.000258308
0.000258297
0.000258334
0.000258271
0.000258263
0.000258315
0.000258278
0.000258319
0.000258259
0.0002583
0.000258338
0.000258267
0.000258282
0.000258222
0.000258204
0.000258204
0.000258248
0.000258263
0.0002582
0.000258218
0.000258215
0.00025823
0.000258226
0.000258233
0.000258218
0.000258226
0.00025817
0.000258211
0.000258211
0.000258181
0.000258204
0.000258211
0.000258181
0.000258204
0.000258207
0.000258181
0.000258181
0.000258159
0.000258151
0.000258174
0.000258218
0.000258226
0.000258185
0.000258166
0.000258204
0.000258233
0.000258237
0.000258192
0.000258211
0.000256684
0.000256699
0.000256624
0.000256676
0.000256699
0.00025665
0.000256654
0.000256613
0.000256587
0.000256628
0.00025662
0.000256613
0.000256542
0.000256471
0.000256475
0.000256568
0.000256483
0.000256445
0.000256471
0.000256471
0.000256468
0.000256475
0.000256378
0.000256397
0.000256453
0.000256382
0.000256367
0.000256401
0.000256334
0.000256326
0.000256315
0.000256397
0.000256266
0.000256304
0.000256311
0.000256281
0.000256285
0.000256311
0.0002563
0.000256307
0.000256304
0.000256222
0.000256255
0.000256252
0.000256218
0.000256218
0.000256237
0.00025617
0.000256155
0.00025624
0.000256248
0.000256184
0.000256155
0.000256166
0.000256188
0.00025611
0.000256147
0.000256125
0.000256177
0.00025617
0.000256121
0.00025608
0.000256117
0.000256132
0.000256166
0.000256099
0.000256062
0.00025605
0.00025608
0.000256043
0.000256058
0.000256062
0.000256058
0.000256021
0.000255998
0.000255998
0.000256043
0.000256043
0.000256002
0.000256058
0.000256039
0.000256021
0.000255935
0.000255957
0.000256013
0.000256006
0.000256002
0.000255994
0.000255931
0.000255942
0.000255946
0.000255976
0.000255983
0.000256017
0.000255983
0.00025598
0.00025589
0.000255909
0.00025592
0.000255924
0.000255968
0.00025402
0.00025405
0.000253938
0.000253942
0.000253912
0.000253897
0.000253927
0.000253897
0.000253912
0.0002538
0.000253804
0.000253841
0.000253819
0.0002538
0.000253793
0.000253789
0.00025373
0.000253793
0.000253715
0.000253741
0.000253737
0.0002537
0.000253703
0.00025367
0.000253636
0.000253659
0.000253625
0.000253618
0.000253584
0.000253592
0.000253558
0.000253595
0.000253573
0.000253476
0.00025348
0.000253454
0.000253506
0.000253476
0.000253551
0.000253521
0.00025342
0.000253484
0.000253383
0.000253405
0.000253368
0.000253387
0.00025345
0.000253409
0.000253405
0.000253439
0.000253301
0.000253301
0.000253368
0.000253361
0.000253338
0.000253323
0.000253309
0.000253323
0.000253256
0.000253279
0.000253305
0.000253234
0.000253215
0.00025326
0.000253215
0.000253245
0.000253208
0.000253204
0.000253212
0.000253253
0.000253189
0.000253193
0.000253171
0.000253201
0.000253212
0.000253152
0.000253148
0.000253119
0.000253137
0.000253107
0.00025313
0.000253111
0.000253148
0.000253145
0.000253111
0.000253104
0.000253074
0.000253122
0.000253148
0.000253089
0.000253078
0.000253133
0.000253066
0.000253092
0.00025307
0.00025307
0.000253092
0.000253055
0.000253033
0.00025307
0.000253059
0.000250824
0.000250746
0.000250742
0.000250723
0.000250701
0.000250753
0.000250701
0.000250649
0.000250679
0.000250626
0.000250626
0.000250626
0.000250574
0.000250574
0.000250559
0.000250529
0.000250548
0.000250559
0.000250507
0.000250556
0.000250455
0.000250421
0.000250466
0.000250474
0.00025044
0.000250433
0.000250425
0.000250455
0.000250358
0.000250328
0.000250362
0.000250343
0.000250325
0.000250306
0.000250299
0.000250276
0.000250287
0.00025025
0.000250254
0.000250231
0.000250228
0.000250198
0.000250194
0.000250198
0.000250183
0.000250179
0.000250194
0.000250161
0.000250127
0.000250135
0.000250135
0.000250097
0.000250105
0.000250112
0.000250045
0.000250082
0.000250086
0.00025012
0.000250053
0.000250056
0.000250027
0.000250045
0.000250097
0.000249974
0.000250004
0.000250027
0.000249963
0.000249948
0.000249922
0.000249952
0.000249974
0.000249967
0.000249919
0.000249933
0.000249933
0.000249919
0.000249919
0.000249844
0.000249859
0.000249896
0.00024984
0.000249848
0.000249844
0.000249896
0.000249866
0.000249863
0.000249837
0.000249837
0.000249784
0.000249825
0.000249729
0.000249766
0.000249788
0.000249773
0.000249777
0.000249792
0.000249773
0.000249736
0.000249736
0.000249762
0.000249811
0.000247311
0.000247259
0.000247281
0.000247262
0.000247221
0.000247214
0.000247177
0.000247173
0.000247136
0.000247184
0.000247132
0.000247095
0.000247125
0.000247091
0.000247095
0.000247054
0.00024702
0.000247039
0.00024699
0.000246953
0.000247013
0.000247039
0.000247013
0.000247024
0.000246979
0.000246957
0.000246972
0.000246964
0.000246901
0.000246886
0.000246882
0.000246882
0.000246894
0.000246841
0.000246838
0.000246841
0.000246827
0.000246812
0.000246771
0.000246763
0.000246763
0.000246696
0.000246733
0.0002467
0.000246648
0.000246659
0.000246674
0.000246711
0.0002467
0.000246678
0.000246655
0.000246566
0.000246562
0.000246588
0.00024657
0.000246581
0.000246547
0.000246555
0.000246566
0.000246529
0.000246558
0.000246551
0.00024645
0.000246488
0.000246502
0.000246454
0.000246484
0.00024648
0.000246461
0.000246476
0.000246465
0.000246432
0.000246443
0.000246424
0.000246421
0.000246432
0.000246387
0.000246387
0.000246357
0.000246365
0.000246376
0.000246376
0.000246346
0.000246365
0.000246361
0.000246298
0.000246324
0.000246316
0.000246316
0.000246286
0.000246275
0.00024626
0.000246257
0.000246301
0.000246268
0.000246298
0.000246309
0.000246279
0.000246283
0.000246279
0.000246298
0.000243649
0.000243608
0.000243638
0.000243593
0.000243615
0.000243567
0.000243519
0.00024353
0.000243451
0.000243485
0.000243515
0.000243496
0.000243478
0.00024347
0.000243403
0.000243414
0.000243437
0.000243362
0.000243407
0.000243399
0.000243399
0.000243355
0.000243366
0.000243362
0.000243366
0.000243332
0.000243295
0.000243302
0.000243258
0.000243288
0.000243176
0.000243206
0.00024322
0.00024325
0.000243206
0.000243191
0.00024318
0.000243168
0.000243213
0.000243183
0.000243176
0.000243064
0.000243079
0.000243045
0.000243012
0.000243034
0.000243045
0.000243001
0.000243004
0.000242997
0.000243001
0.000242937
0.000242878
0.000242967
0.000242926
0.00024293
0.000242926
0.000242926
0.000242952
0.000242852
0.000242863
0.000242844
0.000242859
0.000242855
0.000242848
0.000242814
0.000242844
0.000242844
0.000242781
0.000242837
0.000242837
0.000242785
0.000242755
0.000242785
0.0002428
0.000242732
0.000242762
0.000242725
0.000242714
0.000242677
0.000242691
0.000242677
0.000242684
0.00024268
0.000242669
0.000242658
0.000242654
0.000242613
0.000242583
0.000242595
0.000242595
0.000242572
0.00024261
0.000242636
0.000242576
0.000242576
0.000242583
0.000242513
0.000242542
0.000242524
0.000242535
0.00023983
0.000239845
0.000239823
0.000239812
0.000239823
0.000239789
0.000239767
0.000239786
0.000239711
0.000239711
0.000239696
0.000239726
0.000239708
0.000239719
0.000239696
0.000239603
0.000239659
0.000239693
0.000239629
0.000239659
0.000239607
0.000239599
0.000239611
0.00023957
0.000239577
0.000239495
0.000239503
0.00023948
0.000239566
0.000239491
0.000239488
0.000239503
0.00023945
0.000239473
0.000239469
0.000239398
0.000239398
0.000239398
0.000239346
0.000239335
0.000239328
0.000239331
0.000239313
0.000239309
0.000239272
0.000239212
0.000239246
0.000239264
0.000239253
0.000239227
0.000239179
0.000239164
0.00023913
0.000239141
0.000239145
0.00023916
0.000239175
0.000239111
0.000239108
0.000239111
0.000239108
0.000239108
0.000239074
0.000239074
0.000239074
0.000239078
0.000239015
0.00023903
0.000239018
0.000239026
0.000238966
0.00023897
0.000238974
0.000239011
0.000238992
0.000238966
0.000238936
0.000238992
0.000238962
0.00023897
0.00023891
0.000238903
0.000238873
0.000238918
0.000238854
0.000238866
0.000238869
0.000238877
0.000238892
0.000238821
0.000238776
0.000238821
0.000238802
0.000238787
0.000238795
0.000238765
0.00023878
0.00023872
0.000238728
0.000238732
0.00023872
0.000236027
0.000235997
0.000236001
0.000235964
0.00023599
0.000235975
0.000235923
0.000235923
0.000235934
0.000235874
0.000235874
0.000235915
0.000235848
0.000235852
0.000235867
0.000235841
0.000235807
0.000235826
0.000235796
0.000235729
0.00023577
0.000235718
0.000235785
0.000235762
0.00023574
0.000235677
0.000235643
0.00023564
0.000235643
0.000235625
0.000235628
0.000235643
0.000235628
0.000235595
0.00023561
0.000235554
0.000235561
0.000235539
0.000235554
0.000235517
0.000235476
0.000235491
0.000235476
0.000235461
0.000235431
0.000235442
0.000235457
0.000235461
0.000235405
0.000235435
0.000235431
0.000235423
0.000235438
0.000235379
0.000235382
0.000235345
0.000235297
0.000235315
0.000235315
0.000235327
0.000235312
0.000235233
0.000235252
0.000235263
0.000235263
0.000235207
0.000235222
0.000235189
0.000235263
0.000235207
0.000235196
0.000235151
0.000235163
0.000235129
0.000235166
0.000235144
0.000235155
0.000235133
0.000235129
0.000235099
0.000235107
0.000235084
0.00023507
0.000235051
0.000235073
0.000235051
0.000235002
0.000235036
0.000235066
0.00023504
0.000235017
0.00023504
0.000234999
0.000234973
0.000234962
0.000234913
0.000234928
0.000234947
0.000234943
0.000234947
0.000234902
0.000232194
0.00023213
0.000232164
0.000232164
0.000232048
0.000232056
0.000232052
0.000232089
0.000232082
0.000232078
0.000232019
0.000232015
0.000232022
0.000231966
0.000231992
0.000231996
0.000231985
0.000231966
0.000231948
0.000231955
0.000231866
0.000231866
0.000231851
0.000231821
0.000231858
0.00023187
0.000231858
0.000231829
0.000231802
0.000231765
0.000231735
0.000231743
0.000231747
0.000231784
0.000231732
0.000231717
0.000231676
0.000231653
0.000231661
0.000231642
0.000231665
0.000231631
0.000231616
0.000231612
0.000231639
0.000231579
0.000231579
0.000231564
0.000231553
0.000231523
0.000231523
0.000231531
0.000231508
0.00023146
0.000231478
0.000231475
0.000231404
0.000231419
0.000231389
0.000231434
0.000231385
0.000231367
0.000231359
0.000231378
0.000231348
0.000231355
0.000231363
0.000231382
0.000231382
0.000231296
0.000231292
0.000231262
0.000231292
0.000231266
0.000231285
0.000231311
0.000231292
0.000231262
0.000231262
0.000231206
0.000231206
0.00023121
0.00023124
0.000231218
0.000231188
0.00023118
0.000231214
0.000231206
0.000231087
0.000231121
0.000231106
0.000231117
0.000231121
0.000231121
0.000231083
0.000231054
0.000231039
0.000231039
0.000231046
0.000231054
0.000230998
0.000228219
0.00022826
0.000228222
0.000228237
0.00022817
0.000228141
0.000228103
0.000228148
0.000228144
0.000228133
0.000228152
0.000228088
0.000228114
0.000228073
0.000228103
0.00022807
0.00022807
0.000228021
0.000228051
0.000228032
0.000227902
0.000227932
0.000227936
0.000227965
0.000227965
0.000227902
0.000227921
0.000227939
0.000227869
0.000227921
0.000227887
0.00022788
0.000227895
0.000227865
0.000227872
0.000227831
0.000227839
0.000227787
0.000227783
0.000227775
0.00022779
0.000227731
0.000227731
0.000227716
0.000227716
0.000227734
0.00022772
0.000227734
0.000227708
0.000227604
0.00022763
0.000227667
0.000227679
0.000227623
0.00022763
0.000227571
0.000227574
0.000227567
0.000227597
0.000227582
0.000227589
0.00022753
0.000227533
0.000227563
0.000227548
0.000227492
0.000227518
0.000227485
0.000227466
0.000227436
0.000227444
0.00022744
0.000227403
0.000227455
0.000227425
0.00022744
0.000227414
0.000227414
0.00022734
0.000227343
0.000227362
0.000227358
0.000227328
0.000227299
0.000227299
0.000227261
0.000227273
0.000227246
0.000227246
0.000227276
0.000227261
0.000227258
0.000227254
0.000227194
0.000227209
0.000227232
0.000227209
0.000227164
0.000227164
0.000227168
0.000227164
0.000224426
0.000224393
0.000224426
0.000224371
0.000224408
0.000224341
0.000224289
0.000224322
0.000224337
0.000224296
0.000224303
0.000224289
0.000224236
0.000224229
0.000224192
0.000224177
0.000224199
0.000224169
0.000224199
0.000224218
0.000224207
0.000224143
0.000224147
0.000224117
0.00022408
0.000224132
0.000224128
0.000224102
0.000224013
0.000224013
0.000224032
0.00022402
0.00022402
0.000223991
0.000223976
0.000223991
0.000223987
0.00022392
0.000223916
0.000223916
0.000223909
0.000223923
0.000223853
0.000223856
0.000223875
0.000223875
0.000223864
0.000223879
0.000223879
0.000223812
0.000223815
0.000223771
0.000223756
0.000223774
0.000223808
0.000223808
0.000223804
0.000223756
0.000223748
0.000223752
0.000223707
0.000223648
0.00022367
0.000223666
0.000223659
0.000223674
0.000223648
0.000223659
0.000223648
0.000223622
0.000223622
0.000223588
0.000223603
0.000223577
0.000223551
0.00022357
0.000223588
0.000223514
0.000223521
0.000223521
0.000223521
0.000223532
0.000223491
0.000223443
0.000223462
0.000223458
0.000223417
0.000223432
0.000223402
0.000223447
0.000223432
0.000223387
0.000223383
0.000223398
0.000223406
0.000223372
0.000223394
0.000223376
0.00022332
0.000223331
0.000223286
0.000220578
0.000220533
0.000220548
0.000220563
0.000220533
0.000220571
0.000220526
0.000220489
0.000220452
0.00022047
0.000220452
0.000220452
0.000220444
0.000220429
0.000220392
0.000220459
0.000220351
0.00022034
0.000220347
0.000220332
0.000220343
0.000220336
0.000220291
0.000220276
0.00022025
0.000220258
0.000220243
0.000220265
0.000220198
0.000220243
0.000220269
0.000220213
0.000220213
0.000220191
0.00022015
0.000220161
0.000220161
0.000220161
0.000220105
0.000220079
0.000220124
0.000220139
0.000220116
0.000220101
0.000220072
0.000220075
0.000220034
0.000220012
0.00022006
0.000220023
0.000220031
0.000220012
0.000220019
0.000220034
0.000220034
0.000220038
0.000219896
0.0002199
0.000219952
0.000219896
0.0002199
0.000219855
0.000219882
0.000219867
0.000219848
0.000219852
0.000219885
0.000219803
0.000219833
0.000219788
0.0002198
0.000219807
0.000219766
0.000219785
0.000219747
0.000219755
0.000219785
0.00021977
0.000219766
0.000219777
0.000219718
0.00021968
0.000219721
0.000219692
0.000219647
0.000219654
0.000219662
0.000219677
0.000219572
0.000219602
0.000219602
0.000219572
0.00021958
0.000219557
0.000219565
0.000219587
0.000219561
0.00021958
0.000219543
0.000219498
0.00021952
0.000216711
0.00021673
0.000216667
0.000216678
0.000216682
0.000216704
0.000216689
0.000216722
0.000216693
0.000216633
0.000216622
0.000216641
0.000216622
0.000216633
0.000216573
0.000216577
0.000216641
0.00021657
0.000216592
0.000216555
0.00021657
0.000216559
0.000216562
0.000216465
0.000216469
0.000216488
0.000216458
0.000216469
0.000216465
0.000216469
0.000216477
0.000216387
0.000216354
0.000216391
0.000216383
0.000216369
0.000216343
0.000216346
0.000216335
0.000216361
0.000216328
0.000216287
0.000216264
0.000216287
0.000216302
0.000216309
0.000216331
0.000216242
0.000216193
0.00021622
0.000216201
0.000216208
0.000216175
0.000216167
0.000216182
0.000216145
0.000216175
0.000216167
0.000216115
0.000216059
0.000216119
0.000216059
0.000216056
0.000216067
0.00021613
0.000216085
0.000216067
0.000216078
0.000216033
0.000215992
0.000216026
0.000215989
0.000215966
0.00021597
0.000215933
0.000215948
0.000215951
0.000215903
0.000215948
0.000215925
0.000215925
0.000215925
0.000215899
0.000215933
0.000215881
0.000215884
0.000215884
0.000215881
0.000215821
0.000215832
0.000215825
0.000215817
0.000215758
0.00021581
0.000215795
0.000215814
0.000215765
0.000215761
0.000215776
0.00021575
0.00021572
0.000213031
0.000213061
0.000213008
0.000212979
0.000212986
0.000212912
0.000212945
0.000212934
0.000212871
0.000212878
0.000212852
0.000212874
0.000212871
0.000212874
0.000212878
0.000212815
0.000212792
0.000212792
0.000212811
0.000212807
0.000212744
0.000212837
0.000212703
0.000212722
0.00021271
0.000212718
0.000212699
0.00021277
0.000212755
0.000212744
0.000212744
0.000212699
0.000212613
0.000212617
0.000212654
0.000212591
0.000212625
0.000212599
0.000212636
0.000212625
0.000212625
0.000212599
0.00021258
0.000212591
0.000212587
0.000212602
0.000212524
0.000212461
0.000212483
0.000212491
0.000212438
0.000212472
0.000212457
0.000212446
0.00021236
0.000212349
0.000212412
0.000212342
0.000212386
0.00021242
0.000212438
0.00021233
0.000212315
0.000212315
0.000212338
0.000212338
0.000212334
0.000212282
0.000212293
0.000212301
0.000212278
0.000212308
0.000212256
0.000212256
0.000212256
0.000212252
0.000212248
0.00021226
0.000212215
0.0002122
0.000212189
0.000212181
0.000212163
0.000212181
0.0002122
0.00021214
0.000212111
0.000212159
0.000212099
0.000212058
0.000212017
0.000212099
0.00021207
0.000212085
0.000212029
0.000212029
0.000212006
0.000211991
0.000212021
0.000212032
0.000212014
0.000209283
0.000209279
0.000209291
0.000209298
0.000209268
0.000209205
0.000209186
0.00020919
0.000209223
0.000209212
0.000209171
0.00020916
0.000209235
0.000209171
0.000209164
0.000209149
0.000209142
0.000209142
0.000209086
0.000209074
0.000209067
0.000209037
0.000209071
0.000209063
0.000209082
0.00020897
0.000208996
0.000209011
0.000208985
0.000209015
0.000208993
0.000208985
0.000208966
0.000208948
0.000208955
0.000208944
0.000208892
0.000208918
0.000208899
0.000208899
0.00020884
0.000208899
0.000208903
0.000208896
0.000208866
0.000208806
0.000208858
0.000208762
0.000208724
0.000208773
0.000208732
0.000208735
0.000208788
0.000208702
0.000208713
0.000208691
0.000208668
0.000208687
0.000208702
0.000208706
0.000208721
0.000208717
0.000208676
0.000208665
0.000208672
0.000208672
0.000208642
0.000208627
0.000208613
0.000208527
0.000208534
0.000208542
0.000208516
0.000208534
0.000208523
0.00020846