/*--------------------------------*- C++ -*----------------------------------*\
| =========                 |                                                 |
| \\      /  F ield         | OpenFOAM: The Open Source CFD Toolbox           |
|  \\    /   O peration     | Version:  v2006                                 |
|   \\  /    A nd           | Website:  www.openfoam.com                      |
|    \\/     M anipulation  |                                                 |
\*---------------------------------------------------------------------------*/
FoamFile
{
    version     2.0;
    format      ascii;
    class       volScalarField;
    location    "0";
    object      p;
}
// * * * * * * * * * * * * * * * * * * * * * * * * * * * * * * * * * * * * * //

dimensions      [1 -1 -2 0 0 0 0];


internalField   nonuniform List<scalar> 
67500
(
11.935
10.9859
10.5321
9.1603
8.32432
9.48755
9.06318
9.24297
9.10412
5.97962
2.13766
0.386071
-0.226448
-0.813422
-1.06862
-1.06937
0.31369
2.22233
1.00567
-0.477967
-0.646092
-0.0169228
0.703081
1.04855
1.10239
1.21202
1.39618
1.49684
1.46584
1.27533
1.06293
0.941604
0.8959
0.890621
0.902967
0.934977
1.0062
1.11354
1.23207
1.32943
1.37287
1.35205
1.27427
1.16204
1.04493
0.948648
0.887408
0.863841
0.870852
0.891604
0.906431
0.900778
0.870038
0.820511
0.765679
0.721057
0.699486
0.709264
0.754632
0.836707
0.953953
1.10276
1.27806
1.46531
1.59385
1.55153
1.42031
1.29504
1.19049
1.11324
1.0698
1.06193
1.08921
1.14827
1.23235
1.32948
1.41116
1.42811
1.38144
1.33024
1.29823
1.28562
1.29615
1.33223
1.3943
1.48184
1.59189
1.71772
1.84454
1.94426
1.99921
2.03754
2.08952
2.16022
2.24691
2.34164
2.42909
2.49903
2.56121
2.63159
2.71407
2.80489
2.89871
2.99226
3.08729
3.18445
3.27933
3.3673
3.44717
3.51997
3.58607
3.64472
3.69565
3.73926
3.77547
3.8036
3.82291
3.83283
3.83281
3.82255
3.80216
3.77214
3.73321
3.68629
3.63243
3.57269
3.50805
3.43941
3.3675
3.29292
3.21615
3.13754
3.05732
2.97568
2.89271
2.80848
2.72304
2.63645
2.54876
2.46009
2.37058
2.28043
2.18988
2.0992
2.00867
1.91861
1.82934
1.74118
1.65442
1.56935
1.48624
1.40531
1.32678
1.2508
1.17752
1.10705
1.03946
0.974797
0.913092
0.854341
0.798525
0.745607
0.695531
0.648232
0.603631
0.56164
0.522164
0.485101
0.450345
0.417788
0.387316
0.358818
0.33218
0.307288
0.284031
0.262299
0.241983
0.222979
0.205187
0.18851
0.172857
0.158141
0.144283
0.131207
0.118844
0.107129
0.0960059
0.0854199
0.0753231
0.0656713
0.0564248
0.0475476
0.0390072
0.0307741
0.0228217
0.0151259
0.00766491
0.000419126
-0.00662924
-0.0134962
-0.020196
-0.0267414
-0.0331434
-0.0394118
-0.0455546
-0.0515783
-0.0574879
-0.0632869
-0.0689773
-0.0745593
-0.0800321
-0.0853931
-0.0906387
-0.095764
-0.100763
-0.105629
-0.110355
-0.114932
-0.119353
-0.123609
-0.127691
-0.131593
-0.135305
-0.138822
-0.142137
-0.145244
-0.148138
-0.150815
-0.153273
-0.15551
-0.157524
-0.159315
-0.160885
-0.162234
-0.163365
-0.164283
-0.16499
-0.165491
-0.165793
-0.165901
-0.165821
-0.165561
-0.165128
-0.164531
-0.163776
-0.162872
-0.161827
-0.160651
-0.159351
-0.157936
-0.156414
-0.154795
-0.153085
-0.151294
-0.149429
-0.147498
-0.145508
-0.143467
-0.141381
-0.139257
-0.137102
-0.13492
-0.132719
-0.130504
-0.128278
-0.126049
-0.123819
-0.121593
-0.119375
-0.117169
-0.114977
-0.112804
-0.110652
-0.108523
-0.10642
-0.104346
-0.102302
-0.10029
-0.0983116
-0.0963685
-0.094462
-0.0925931
-0.090763
-0.0889724
-0.0872221
-0.0855128
-0.0838449
-0.0822189
-0.0806351
-0.0790936
-0.0775945
-0.0761378
-0.0747234
-0.0733512
-0.0720207
-0.0707317
-0.0694836
-0.0682759
-0.0671078
-0.0659787
-0.0648876
-0.0638337
-0.0628159
-0.0618331
-0.0608842
-0.0599678
-0.0590826
-0.0582272
-0.0574002
-0.0566001
-0.0558252
-0.0550742
-0.0543452
-0.0536368
-0.0529474
-0.0522753
-0.0516189
-0.0509769
-0.0503476
-0.0497296
-0.0491214
-0.0485219
-0.0479296
-0.0473434
-0.0467621
-0.0461847
-0.0456101
-0.0450373
-0.0444656
-0.0438941
-0.0433221
-0.0427489
-0.042174
-0.041597
-0.0410175
-0.0404352
-0.03985
-0.0392619
-0.0386708
-0.038077
-0.0374807
-0.0368821
-0.0362817
-0.0356798
-0.0350767
-0.0344728
-0.0338685
-0.0332641
-0.0326599
-0.0320561
-0.0314528
-0.0308505
-0.0302492
-0.0296493
-0.0290512
-0.0284551
-0.0278616
-0.0272712
-0.0266846
-0.0261023
-0.0255251
-0.0249537
-0.0243887
-0.023831
-0.0232812
-0.0227399
-0.0222078
-0.0216852
-0.0211728
-0.0206708
-0.0201795
-0.0196991
-0.0192298
-0.0187717
-0.0183247
-0.0178888
-0.0174638
-0.0170497
-0.0166461
-0.016253
-0.01587
-0.0154967
-0.0151331
-0.0147786
-0.014433
-0.0140959
-0.013767
-0.0134461
-0.0131326
-0.0128264
-0.0125271
-0.0122343
-0.0119478
-0.0116672
-0.0113924
-0.0111229
-0.0108585
-0.010599
-0.0103442
-0.0100937
-0.00984735
-0.00960495
-0.00936627
-0.00913112
-0.00889931
-0.00867066
-0.008445
-0.00822217
-0.00800202
-0.00778439
-0.00756915
-0.00735616
-0.00714531
-0.00693647
-0.00672952
-0.00652437
-0.00632092
-0.00611905
-0.0059187
-0.00571976
-0.00552215
-0.00532581
-0.00513065
-0.0049366
-0.00474361
-0.0045516
-0.00436051
-0.0041703
-0.00398089
-0.00379225
-0.00360433
-0.00341706
-0.00323042
-0.00304436
-0.00285883
-0.0026738
-0.00248923
-0.00230508
-0.00212131
-0.0019379
-0.00175481
-0.00157199
-0.00138944
-0.0012071
-0.00102501
-0.000842856
-0.000661564
-0.000477458
-0.000300849
-8.3756e-05
11.6274
10.1358
8.58653
8.50538
8.53608
8.56189
8.40671
6.93178
4.50698
0.216944
-1.69525
-1.5094
-1.82284
-2.25486
-2.83931
-2.60632
-1.44904
0.0027263
0.843699
1.16883
0.663309
0.221669
0.590676
0.955125
1.25522
1.45698
1.60243
1.59317
1.42691
1.09502
0.828025
0.741753
0.717153
0.697675
0.673211
0.691407
0.786128
0.926434
1.07426
1.19216
1.26131
1.27174
1.22567
1.13841
1.03128
0.92651
0.842923
0.792798
0.774355
0.776653
0.785234
0.784282
0.763838
0.720892
0.661212
0.597799
0.546998
0.524033
0.539839
0.599453
0.701459
0.841117
1.01941
1.25895
1.49433
1.40682
1.21758
1.07232
0.963522
0.8926
0.863391
0.874967
0.927216
1.01838
1.14149
1.28673
1.4211
1.44033
1.34774
1.26641
1.21473
1.18362
1.17939
1.20439
1.25813
1.34019
1.44971
1.58412
1.73237
1.8502
1.89139
1.9123
1.95973
2.0338
2.131
2.24142
2.34029
2.40655
2.45949
2.527
2.61172
2.70722
2.80511
2.9001
2.99776
3.10054
3.20116
3.29276
3.37462
3.44966
3.51859
3.57982
3.633
3.67919
3.71848
3.74981
3.77229
3.7853
3.78811
3.78029
3.762
3.73379
3.69643
3.65093
3.59843
3.54004
3.4768
3.40961
3.33921
3.2662
3.19103
3.11402
3.03541
2.95534
2.87391
2.79114
2.70708
2.62175
2.53521
2.44757
2.35897
2.26962
2.17975
2.08965
1.99963
1.91001
1.82113
1.7333
1.64684
1.56205
1.4792
1.39852
1.32022
1.24448
1.17143
1.10119
1.03383
0.969403
0.907927
0.849405
0.793816
0.741121
0.691268
0.644187
0.599801
0.55802
0.51875
0.481887
0.447327
0.414958
0.384669
0.356348
0.329881
0.305154
0.282054
0.260473
0.240301
0.221433
0.203769
0.187213
0.171672
0.157061
0.143299
0.130311
0.11803
0.10639
0.0953339
0.0848094
0.0747682
0.0651668
0.0559659
0.0471299
0.0386267
0.0304272
0.0225051
0.0148368
0.00740068
0.000177305
-0.00685089
-0.0136997
-0.0203834
-0.0269146
-0.0333042
-0.039562
-0.045696
-0.0517126
-0.0576169
-0.0634123
-0.0691007
-0.0746824
-0.0801563
-0.08552
-0.0907694
-0.0958997
-0.100905
-0.105777
-0.11051
-0.115095
-0.119524
-0.123787
-0.127877
-0.131786
-0.135505
-0.139028
-0.142348
-0.145459
-0.148357
-0.151037
-0.153497
-0.155734
-0.157748
-0.159538
-0.161106
-0.162452
-0.16358
-0.164493
-0.165196
-0.165692
-0.165987
-0.166088
-0.166002
-0.165734
-0.165294
-0.164688
-0.163925
-0.163012
-0.161959
-0.160774
-0.159466
-0.158042
-0.156512
-0.154884
-0.153167
-0.151368
-0.149495
-0.147557
-0.14556
-0.143512
-0.141419
-0.139289
-0.137127
-0.13494
-0.132734
-0.130513
-0.128283
-0.126049
-0.123815
-0.121585
-0.119363
-0.117154
-0.114959
-0.112783
-0.110628
-0.108497
-0.106392
-0.104316
-0.10227
-0.100256
-0.0982765
-0.0963321
-0.0944244
-0.0925545
-0.0907235
-0.0889321
-0.0871812
-0.0854714
-0.0838031
-0.0821768
-0.0805928
-0.0790512
-0.0775521
-0.0760956
-0.0746814
-0.0733095
-0.0719794
-0.0706908
-0.0694433
-0.0682362
-0.0670689
-0.0659406
-0.0648505
-0.0637976
-0.062781
-0.0617994
-0.0608517
-0.0599366
-0.0590528
-0.0581989
-0.0573734
-0.0565748
-0.0558015
-0.055052
-0.0543247
-0.0536179
-0.05293
-0.0522594
-0.0516047
-0.0509641
-0.0503362
-0.0497196
-0.0491128
-0.0485145
-0.0479235
-0.0473385
-0.0467583
-0.0461818
-0.0456081
-0.0450362
-0.0444653
-0.0438944
-0.0433229
-0.0427502
-0.0421757
-0.041599
-0.0410196
-0.0404374
-0.0398522
-0.0392639
-0.0386727
-0.0380787
-0.0374822
-0.0368835
-0.0362829
-0.0356808
-0.0350776
-0.0344738
-0.0338696
-0.0332652
-0.0326611
-0.0320574
-0.0314542
-0.0308519
-0.0302505
-0.0296504
-0.0290519
-0.0284554
-0.0278613
-0.0272703
-0.0266828
-0.0260996
-0.0255215
-0.0249491
-0.0243833
-0.0238247
-0.023274
-0.0227319
-0.0221991
-0.0216759
-0.021163
-0.0206605
-0.0201689
-0.0196883
-0.0192189
-0.0187606
-0.0183136
-0.0178778
-0.017453
-0.017039
-0.0166357
-0.0162428
-0.01586
-0.0154871
-0.0151237
-0.0147696
-0.0144243
-0.0140876
-0.013759
-0.0134384
-0.0131253
-0.0128194
-0.0125204
-0.0122279
-0.0119417
-0.0116614
-0.0113869
-0.0111176
-0.0108536
-0.0105943
-0.0103397
-0.0100894
-0.00984331
-0.00960112
-0.00936264
-0.00912768
-0.00889606
-0.00866758
-0.00844209
-0.00821941
-0.00799941
-0.00778192
-0.00756681
-0.00735395
-0.00714322
-0.00693449
-0.00672765
-0.00652261
-0.00631925
-0.00611748
-0.00591721
-0.00571835
-0.00552083
-0.00532456
-0.00512947
-0.00493549
-0.00474256
-0.00455061
-0.00435958
-0.00416942
-0.00398007
-0.00379148
-0.0036036
-0.00341639
-0.00322979
-0.00304377
-0.00285828
-0.00267329
-0.00248876
-0.00230464
-0.00212091
-0.00193753
-0.00175447
-0.00157169
-0.00138917
-0.00120686
-0.0010248
-0.000842675
-0.000661413
-0.000477336
-0.000300757
-8.37163e-05
10.555
9.42271
9.18754
8.71766
8.1553
10.0992
7.64392
0.143583
-0.257092
-0.433734
-0.716436
-0.332447
-1.30604
-2.0643
-2.10046
-1.54505
-1.20743
-0.730417
-0.664999
-0.550831
0.472299
1.338
0.937396
0.270041
0.453236
1.23729
1.88866
2.2628
2.07707
1.14651
0.564556
0.560612
0.619981
0.669847
0.677571
0.719175
0.892106
1.02032
1.05476
0.996788
0.866631
0.697059
0.528318
0.388231
0.307956
0.305871
0.368515
0.466775
0.560807
0.614148
0.606823
0.544776
0.453252
0.364328
0.302109
0.276085
0.282939
0.315674
0.369999
0.44592
0.550439
0.697816
0.91744
1.32866
1.86396
1.45576
1.16787
1.01937
0.893132
0.796786
0.733238
0.701974
0.70542
0.742937
0.815881
0.949901
1.16738
1.19486
1.01462
0.911429
0.872857
0.85719
0.865639
0.900315
0.965742
1.06574
1.199
1.36706
1.5776
1.75231
1.73229
1.6914
1.71569
1.78123
1.88706
2.02533
2.15006
2.20278
2.23206
2.29657
2.39192
2.50544
2.61793
2.71622
2.81969
2.93593
3.04918
3.14692
3.23062
3.30916
3.3838
3.44996
3.50721
3.55857
3.60435
3.64235
3.67132
3.69066
3.6992
3.69623
3.68207
3.65742
3.62313
3.58041
3.53057
3.47485
3.41437
3.35008
3.28273
3.21286
3.1409
3.06713
2.99175
2.91485
2.83649
2.75666
2.67536
2.59258
2.50835
2.42276
2.33597
2.24818
2.15966
2.07072
1.9817
1.89294
1.8048
1.71763
1.63177
1.54752
1.46517
1.38498
1.30715
1.23188
1.15929
1.08951
1.02261
0.95864
0.897622
0.839555
0.784418
0.732172
0.682761
0.636117
0.592159
0.550798
0.511937
0.475474
0.441302
0.40931
0.379387
0.351418
0.325291
0.300892
0.278108
0.256827
0.236941
0.218346
0.200939
0.184624
0.169308
0.154907
0.141339
0.12853
0.116412
0.104922
0.0940021
0.0836011
0.0736718
0.0641715
0.0550619
0.0463082
0.0378792
0.0297467
0.0218851
0.0142712
0.00688417
-0.000295007
-0.0072835
-0.0140968
-0.0207489
-0.0272523
-0.0336178
-0.0398551
-0.045972
-0.0519751
-0.0578693
-0.063658
-0.069343
-0.0749245
-0.0804012
-0.0857704
-0.091028
-0.0961686
-0.101186
-0.106072
-0.11082
-0.11542
-0.119864
-0.124144
-0.128249
-0.132172
-0.135905
-0.13944
-0.14277
-0.145891
-0.148796
-0.151481
-0.153945
-0.156184
-0.158198
-0.159986
-0.16155
-0.162891
-0.164012
-0.164916
-0.165609
-0.166094
-0.166377
-0.166465
-0.166364
-0.166081
-0.165625
-0.165003
-0.164223
-0.163294
-0.162224
-0.161022
-0.159696
-0.158255
-0.156709
-0.155064
-0.15333
-0.151516
-0.149628
-0.147674
-0.145663
-0.143601
-0.141495
-0.139352
-0.137178
-0.13498
-0.132763
-0.130532
-0.128292
-0.126049
-0.123807
-0.121569
-0.11934
-0.117124
-0.114923
-0.112741
-0.110581
-0.108445
-0.106336
-0.104255
-0.102206
-0.100189
-0.098206
-0.0962591
-0.0943491
-0.0924771
-0.0906443
-0.0888515
-0.0870993
-0.0853885
-0.0837194
-0.0820926
-0.0805082
-0.0789664
-0.0774673
-0.076011
-0.0745973
-0.0732259
-0.0718966
-0.070609
-0.0693626
-0.0681569
-0.0669911
-0.0658645
-0.0647763
-0.0637254
-0.062711
-0.0617317
-0.0607866
-0.0598742
-0.0589932
-0.0581422
-0.0573197
-0.0565242
-0.0557541
-0.0550078
-0.0542836
-0.05358
-0.0528953
-0.0522279
-0.0515762
-0.0509386
-0.0503137
-0.0496998
-0.0490957
-0.0485
-0.0479114
-0.0473286
-0.0467506
-0.0461762
-0.0456045
-0.0450344
-0.0444651
-0.0438958
-0.0433258
-0.0427544
-0.0421811
-0.0416052
-0.0410266
-0.0404449
-0.0398599
-0.0392716
-0.0386801
-0.0380855
-0.0374882
-0.0368884
-0.0362867
-0.0356833
-0.0350788
-0.0344735
-0.0338679
-0.0332622
-0.0326568
-0.0320519
-0.0314477
-0.0308443
-0.0302419
-0.0296409
-0.0290415
-0.028444
-0.0278489
-0.0272569
-0.0266685
-0.0260843
-0.0255052
-0.0249318
-0.0243651
-0.0238056
-0.0232541
-0.0227113
-0.0221779
-0.0216542
-0.0211408
-0.0206381
-0.0201463
-0.0196657
-0.0191963
-0.0187382
-0.0182914
-0.0178559
-0.0174315
-0.017018
-0.0166152
-0.0162228
-0.0158406
-0.0154684
-0.0151056
-0.0147521
-0.0144075
-0.0140715
-0.0137436
-0.0134236
-0.0131112
-0.0128059
-0.0125075
-0.0122157
-0.01193
-0.0116504
-0.0113763
-0.0111076
-0.0108441
-0.0105853
-0.0103312
-0.0100814
-0.00983567
-0.00959388
-0.0093558
-0.00912121
-0.00888994
-0.0086618
-0.00843662
-0.00821426
-0.00799454
-0.00777732
-0.00756247
-0.00734986
-0.00713936
-0.00693085
-0.00672423
-0.00651938
-0.00631621
-0.00611462
-0.00591452
-0.00571582
-0.00551845
-0.00532233
-0.00512738
-0.00493353
-0.00474072
-0.00454889
-0.00435798
-0.00416792
-0.00397868
-0.00379018
-0.0036024
-0.00341527
-0.00322875
-0.00304281
-0.0028574
-0.00267249
-0.00248802
-0.00230398
-0.00212031
-0.001937
-0.001754
-0.00157128
-0.00138882
-0.00120657
-0.00102457
-0.0008425
-0.000661293
-0.000477274
-0.000300738
-8.37557e-05
10.3322
9.89473
8.22946
6.78165
1.70543
-0.325913
-0.190234
-0.214922
-0.298976
-0.370482
-0.481963
-0.826464
-0.826942
-0.799403
0.152988
1.8554
-0.14221
0.017905
-0.0271401
0.40651
0.501852
0.420519
-0.568117
-0.0821296
0.229839
0.37542
0.364048
0.69322
1.25055
0.680539
0.322506
0.317369
0.40574
0.475236
0.491737
0.406492
0.371221
0.358053
0.348227
0.33918
0.328038
0.315289
0.302955
0.293876
0.290658
0.292825
0.295602
0.294658
0.2916
0.28797
0.284408
0.281
0.27827
0.276973
0.278162
0.282024
0.287249
0.291118
0.29174
0.289987
0.291875
0.311687
0.383932
0.700856
2.12187
0.895856
0.384187
0.256488
0.166344
0.106111
0.087497
0.117411
0.20826
0.378597
0.647095
1.07709
1.75333
1.64909
1.19656
1.01801
0.887212
0.780477
0.715844
0.678239
0.668019
0.698286
0.769976
0.879184
1.12665
1.4971
1.34805
1.20187
1.21929
1.31667
1.48492
1.7222
1.94093
1.94957
1.91306
1.96538
2.06625
2.20176
2.33447
2.42647
2.53554
2.6777
2.81725
2.92657
3.01117
3.09634
3.18266
3.25661
3.31826
3.37678
3.43274
3.48086
3.51966
3.54895
3.56639
3.57064
3.56259
3.54315
3.51323
3.47445
3.42847
3.37667
3.3203
3.2604
3.19764
3.13255
3.06547
2.99662
2.92614
2.85406
2.78038
2.70502
2.62792
2.54899
2.46825
2.38575
2.30166
2.21621
2.12969
2.04247
1.95491
1.86742
1.78038
1.69418
1.60918
1.52573
1.44414
1.36466
1.28754
1.21296
1.14106
1.07197
1.00577
0.942486
0.882156
0.824774
0.770318
0.718746
0.670001
0.624013
0.5807
0.539971
0.501728
0.465866
0.432278
0.400853
0.371479
0.344042
0.318428
0.294522
0.272211
0.251383
0.231929
0.213742
0.19672
0.180766
0.165787
0.151698
0.138418
0.125874
0.113998
0.102729
0.0920102
0.0817914
0.072027
0.0626759
0.0537011
0.0450692
0.0367502
0.0287171
0.0209455
0.013413
0.00609956
-0.00101306
-0.00794152
-0.0147009
-0.0213049
-0.0277656
-0.034094
-0.0402994
-0.0463899
-0.0523718
-0.05825
-0.064028
-0.0697074
-0.0752881
-0.0807688
-0.0861462
-0.0914159
-0.096572
-0.101608
-0.106515
-0.111285
-0.115909
-0.120377
-0.12468
-0.128808
-0.132753
-0.136506
-0.14006
-0.143406
-0.14654
-0.149456
-0.15215
-0.154619
-0.15686
-0.158874
-0.160659
-0.162217
-0.16355
-0.16466
-0.165552
-0.166229
-0.166697
-0.166962
-0.16703
-0.166907
-0.166602
-0.166123
-0.165476
-0.164671
-0.163716
-0.162621
-0.161393
-0.160041
-0.158575
-0.157003
-0.155333
-0.153575
-0.151736
-0.149825
-0.147849
-0.145816
-0.143734
-0.141608
-0.139446
-0.137254
-0.135039
-0.132805
-0.130559
-0.128305
-0.126049
-0.123794
-0.121544
-0.119304
-0.117078
-0.114868
-0.112677
-0.110509
-0.108366
-0.10625
-0.104164
-0.102109
-0.100087
-0.0981
-0.0961491
-0.0942357
-0.0923608
-0.0905253
-0.0887303
-0.0869762
-0.0852639
-0.0835936
-0.0819659
-0.0803809
-0.0788389
-0.0773399
-0.0758839
-0.0744708
-0.0731003
-0.0717722
-0.0704861
-0.0692414
-0.0680377
-0.0668742
-0.0657501
-0.0646647
-0.0636169
-0.0626058
-0.0616301
-0.0606888
-0.0597804
-0.0589036
-0.058057
-0.057239
-0.0564482
-0.0556828
-0.0549413
-0.054222
-0.0535232
-0.0528433
-0.0521806
-0.0515335
-0.0509004
-0.0502798
-0.0496702
-0.0490701
-0.0484782
-0.0478933
-0.047314
-0.0467392
-0.0461678
-0.0455988
-0.0450312
-0.0444642
-0.0438968
-0.0433284
-0.0427584
-0.042186
-0.0416109
-0.0410327
-0.0404511
-0.039866
-0.0392775
-0.0386855
-0.0380905
-0.0374926
-0.0368924
-0.0362903
-0.0356867
-0.0350822
-0.0344772
-0.033872
-0.0332668
-0.032662
-0.0320577
-0.0314539
-0.0308506
-0.0302482
-0.0296466
-0.0290461
-0.0284472
-0.0278502
-0.0272559
-0.0266648
-0.0260778
-0.0254956
-0.0249192
-0.0243494
-0.023787
-0.0232328
-0.0226875
-0.0221518
-0.0216262
-0.0211112
-0.0206071
-0.0201143
-0.0196329
-0.0191631
-0.0187048
-0.018258
-0.0178227
-0.0173987
-0.0169857
-0.0165835
-0.0161919
-0.0158106
-0.0154392
-0.0150775
-0.0147249
-0.0143814
-0.0140463
-0.0137195
-0.0134005
-0.0130891
-0.0127848
-0.0124874
-0.0121964
-0.0119117
-0.0116329
-0.0113598
-0.0110919
-0.0108291
-0.0105711
-0.0103177
-0.0100686
-0.00982354
-0.00958238
-0.0093449
-0.00911088
-0.00888015
-0.00865253
-0.00842785
-0.00820595
-0.00798668
-0.00776988
-0.00755544
-0.0073432
-0.00713306
-0.0069249
-0.0067186
-0.00651406
-0.00631118
-0.00610987
-0.00591003
-0.00571158
-0.00551445
-0.00531855
-0.00512381
-0.00493017
-0.00473755
-0.0045459
-0.00435517
-0.00416528
-0.00397619
-0.00378784
-0.0036002
-0.00341321
-0.00322683
-0.00304102
-0.00285573
-0.00267093
-0.00248658
-0.00230264
-0.00211908
-0.00193587
-0.00175297
-0.00157035
-0.00138798
-0.00120582
-0.00102391
-0.000841932
-0.000660813
-0.000476882
-0.000300436
-8.36182e-05
10.3006
11.4466
5.89338
1.56917
-0.195975
-0.29334
-0.313128
-0.325973
-0.384486
-0.4612
-0.565174
-0.674707
-0.720611
-0.735297
-0.804219
-1.13402
-1.95679
-4.23051
-3.88582
0.758673
4.52244
4.31585
0.341028
0.456011
0.429421
0.354916
0.285683
0.238125
0.35947
0.512169
0.488283
0.408024
0.366482
0.363513
0.397472
0.395202
0.370872
0.354211
0.343485
0.335322
0.327753
0.320348
0.313036
0.306044
0.299792
0.294772
0.291296
0.289164
0.287977
0.287373
0.287065
0.286919
0.286796
0.286569
0.286465
0.286791
0.287696
0.288993
0.290805
0.293937
0.300921
0.319449
0.359572
0.404139
0.324348
0.100503
0.16805
0.202231
0.217837
0.226303
0.232525
0.240431
0.254275
0.283096
0.351343
0.542353
1.72583
1.51833
0.377268
0.219714
0.204442
0.148217
0.112815
0.106597
0.131287
0.223732
0.434989
0.685966
1.2307
2.11799
1.37268
1.08577
1.02218
0.992989
1.05558
1.28146
1.67159
1.53269
1.35279
1.40656
1.55848
1.78526
1.98594
2.04581
2.16055
2.3491
2.52853
2.64121
2.70977
2.80163
2.90881
2.99397
3.05893
3.12869
3.20224
3.26563
3.31813
3.36165
3.39117
3.4045
3.40426
3.39153
3.36704
3.33315
3.29204
3.24524
3.1943
3.14027
3.08376
3.02515
2.9647
2.90252
2.83866
2.77312
2.70579
2.63652
2.56511
2.4914
2.41534
2.33697
2.25645
2.17407
2.09017
2.00518
1.91952
1.83365
1.74802
1.66306
1.57919
1.49677
1.41615
1.33761
1.26142
1.18775
1.11678
1.04861
0.98332
0.920962
0.861551
0.805085
0.751538
0.700866
0.653012
0.607901
0.565449
0.525563
0.488143
0.453082
0.420273
0.389603
0.36096
0.33423
0.309298
0.286049
0.264369
0.244145
0.225267
0.207627
0.191121
0.175651
0.161124
0.147454
0.134562
0.122374
0.110824
0.0998517
0.0894023
0.0794275
0.0698834
0.060731
0.0519352
0.0434646
0.0352909
0.0273887
0.019735
0.012309
0.00509154
-0.00193458
-0.00878525
-0.0154749
-0.0220168
-0.0284228
-0.0347036
-0.0408685
-0.0469253
-0.0528806
-0.0587392
-0.0645044
-0.0701777
-0.075759
-0.0812463
-0.0866361
-0.0919234
-0.0971017
-0.102163
-0.1071
-0.111901
-0.116557
-0.121059
-0.125394
-0.129555
-0.13353
-0.137311
-0.140889
-0.144258
-0.147411
-0.150341
-0.153046
-0.155523
-0.157767
-0.15978
-0.161561
-0.163112
-0.164433
-0.165529
-0.166403
-0.16706
-0.167506
-0.167745
-0.167786
-0.167635
-0.167299
-0.166788
-0.166108
-0.16527
-0.164281
-0.16315
-0.161887
-0.160501
-0.159001
-0.157395
-0.155692
-0.153901
-0.15203
-0.150088
-0.148082
-0.14602
-0.143909
-0.141757
-0.13957
-0.137354
-0.135116
-0.132861
-0.130594
-0.128321
-0.126047
-0.123775
-0.12151
-0.119256
-0.117016
-0.114793
-0.112591
-0.110413
-0.10826
-0.106135
-0.104041
-0.101979
-0.0999507
-0.0979579
-0.0960019
-0.0940838
-0.0922049
-0.0903661
-0.0885681
-0.0868116
-0.0850972
-0.0834254
-0.0817965
-0.0802109
-0.0786685
-0.0771696
-0.075714
-0.0743017
-0.0729324
-0.0716059
-0.0703217
-0.0690793
-0.0678783
-0.0667178
-0.0655972
-0.0645155
-0.0634719
-0.0624652
-0.0614943
-0.0605581
-0.0596551
-0.058784
-0.0579432
-0.0571314
-0.0563468
-0.0555878
-0.0548527
-0.0541399
-0.0534477
-0.0527742
-0.0521179
-0.051477
-0.05085
-0.0502352
-0.0496312
-0.0490365
-0.0484498
-0.0478697
-0.047295
-0.0467246
-0.0461574
-0.0455923
-0.0450285
-0.044465
-0.0439011
-0.0433358
-0.0427685
-0.0421986
-0.0416256
-0.0410489
-0.0404684
-0.0398837
-0.0392949
-0.0387021
-0.0381055
-0.0375056
-0.0369028
-0.0362976
-0.0356908
-0.0350829
-0.0344744
-0.0338659
-0.0332576
-0.03265
-0.032043
-0.0314368
-0.0308315
-0.030227
-0.0296236
-0.0290214
-0.0284208
-0.0278221
-0.0272261
-0.0266332
-0.0260445
-0.0254606
-0.0248825
-0.024311
-0.0237471
-0.0231915
-0.0226449
-0.0221081
-0.0215817
-0.021066
-0.0205615
-0.0200685
-0.0195871
-0.0191174
-0.0186595
-0.0182133
-0.0177787
-0.0173555
-0.0169435
-0.0165425
-0.0161521
-0.015772
-0.0154019
-0.0150414
-0.0146902
-0.014348
-0.0140143
-0.0136888
-0.0133712
-0.0130611
-0.0127581
-0.0124619
-0.0121722
-0.0118887
-0.011611
-0.0113389
-0.0110721
-0.0108104
-0.0105533
-0.0103008
-0.0100526
-0.00980845
-0.00956811
-0.0093314
-0.00909812
-0.0088681
-0.00864115
-0.0084171
-0.00819581
-0.0079771
-0.00776085
-0.00754692
-0.00733518
-0.0071255
-0.00691778
-0.00671189
-0.00650775
-0.00630524
-0.00610428
-0.00590478
-0.00570665
-0.00550982
-0.00531421
-0.00511974
-0.00492636
-0.00473399
-0.00454257
-0.00435205
-0.00416238
-0.00397349
-0.00378534
-0.00359787
-0.00341106
-0.00322484
-0.00303919
-0.00285405
-0.0026694
-0.00248519
-0.00230139
-0.00211796
-0.00193487
-0.0017521
-0.0015696
-0.00138735
-0.0012053
-0.00102351
-0.000841644
-0.000660633
-0.000476814
-0.000300452
-8.37342e-05
9.69182
7.79142
0.995505
-0.252408
-0.28586
-0.307465
-0.335938
-0.380746
-0.444509
-0.529057
-0.623668
-0.702925
-0.752611
-0.829033
-1.03622
-1.37935
-1.66464
-1.74631
-2.85326
-2.30694
-1.77433
-0.0644814
0.275145
0.331087
0.351322
0.356107
0.363324
0.373002
0.381123
0.390901
0.388898
0.379982
0.379436
0.382476
0.380736
0.369562
0.356448
0.346956
0.338749
0.331158
0.324047
0.317435
0.311301
0.305659
0.30053
0.29592
0.291924
0.288629
0.28617
0.284639
0.283903
0.283759
0.284
0.284415
0.284993
0.285755
0.286642
0.287585
0.288635
0.290229
0.29345
0.300561
0.3127
0.317034
0.303832
0.26397
0.254682
0.254011
0.255244
0.256713
0.258475
0.261969
0.270208
0.289771
0.337751
0.420993
0.334517
-0.128233
0.036087
0.112718
0.143054
0.156756
0.16491
0.170386
0.173127
0.181114
0.207237
0.270056
0.397959
3.22902
0.371592
-0.282442
-0.0991743
0.12692
0.483576
1.12577
2.19841
1.42556
1.09854
1.12258
1.13155
1.33186
1.61521
1.52476
1.60754
1.88605
2.18445
2.29789
2.31562
2.43015
2.58305
2.67468
2.72648
2.80809
2.90806
2.99121
3.06202
3.12758
3.17437
3.19872
3.20814
3.20339
3.18456
3.15601
3.12059
3.07978
3.03557
2.98903
2.94048
2.8902
2.83823
2.78454
2.72914
2.67195
2.61277
2.5513
2.48719
2.42014
2.35
2.27679
2.2007
2.12208
2.04137
1.95906
1.87568
1.79176
1.70782
1.62435
1.54182
1.46064
1.3812
1.30381
1.22875
1.15623
1.0864
1.01938
0.955251
0.894049
0.835793
0.780476
0.72807
0.678531
0.631794
0.587785
0.546416
0.507589
0.471202
0.437147
0.405315
0.375592
0.347865
0.322022
0.297946
0.275522
0.254634
0.235168
0.217012
0.200054
0.184191
0.169323
0.155356
0.142204
0.129789
0.118037
0.106885
0.0962747
0.0861536
0.0764758
0.0672001
0.0582901
0.049713
0.04144
0.0334448
0.0257041
0.0181966
0.0109032
0.00380603
-0.00311099
-0.00986286
-0.0164634
-0.0229253
-0.0292603
-0.0354788
-0.0415902
-0.0476025
-0.0535221
-0.059354
-0.0651014
-0.0707657
-0.0763465
-0.0818416
-0.0872467
-0.0925562
-0.0977626
-0.102857
-0.107831
-0.112672
-0.11737
-0.121913
-0.126291
-0.130492
-0.134506
-0.138322
-0.141932
-0.145329
-0.148504
-0.151454
-0.154173
-0.156658
-0.158907
-0.160919
-0.162694
-0.164235
-0.165542
-0.166619
-0.167471
-0.168103
-0.168519
-0.168727
-0.168733
-0.168546
-0.168172
-0.16762
-0.166899
-0.166018
-0.164986
-0.163812
-0.162506
-0.161076
-0.159532
-0.157883
-0.156138
-0.154306
-0.152395
-0.150414
-0.14837
-0.146272
-0.144127
-0.141942
-0.139723
-0.137477
-0.13521
-0.132928
-0.130636
-0.128339
-0.126042
-0.12375
-0.121465
-0.119193
-0.116936
-0.114698
-0.112482
-0.110291
-0.108126
-0.105991
-0.103886
-0.101815
-0.0997791
-0.0977791
-0.0958166
-0.093893
-0.0920091
-0.090166
-0.0883644
-0.0866049
-0.084888
-0.0832143
-0.0815841
-0.0799975
-0.0784548
-0.0769559
-0.0755009
-0.0740897
-0.0727219
-0.0713973
-0.0701155
-0.0688761
-0.0676783
-0.0665217
-0.0654053
-0.0643284
-0.0632899
-0.0622888
-0.0613239
-0.0603941
-0.0594978
-0.0586338
-0.0578005
-0.0569963
-0.0562196
-0.0554686
-0.0547417
-0.0540371
-0.0533529
-0.0526876
-0.0520392
-0.0514061
-0.0507867
-0.0501793
-0.0495824
-0.0489945
-0.0484142
-0.0478402
-0.0472712
-0.0467061
-0.0461438
-0.0455833
-0.0450234
-0.0444635
-0.0439025
-0.0433397
-0.0427744
-0.042206
-0.041634
-0.0410579
-0.0404775
-0.0398927
-0.0393036
-0.0387102
-0.038113
-0.0375126
-0.0369094
-0.0363043
-0.0356979
-0.0350908
-0.0344836
-0.0338767
-0.0332703
-0.0326645
-0.0320594
-0.0314546
-0.0308502
-0.0302458
-0.0296416
-0.0290376
-0.0284341
-0.0278317
-0.0272311
-0.0266331
-0.0260386
-0.0254489
-0.0248648
-0.0242875
-0.0237179
-0.0231571
-0.0226059
-0.0220649
-0.0215348
-0.0210161
-0.0205092
-0.0200143
-0.0195316
-0.0190611
-0.0186029
-0.0181567
-0.0177225
-0.0173
-0.0168889
-0.016489
-0.0161
-0.0157213
-0.0153528
-0.014994
-0.0146445
-0.014304
-0.0139721
-0.0136483
-0.0133324
-0.013024
-0.0127227
-0.0124281
-0.01214
-0.011858
-0.0115819
-0.0113112
-0.0110458
-0.0107853
-0.0105296
-0.0102783
-0.0100312
-0.00978814
-0.00954885
-0.00931315
-0.00908083
-0.00885171
-0.00862562
-0.0084024
-0.00818188
-0.00796392
-0.00774837
-0.0075351
-0.00732399
-0.00711492
-0.00690776
-0.00670242
-0.00649878
-0.00629676
-0.00609626
-0.0058972
-0.00569949
-0.00550305
-0.00530781
-0.0051137
-0.00492065
-0.0047286
-0.00453749
-0.00434726
-0.00415786
-0.00396924
-0.00378134
-0.00359412
-0.00340753
-0.00322153
-0.00303609
-0.00285116
-0.0026667
-0.00248268
-0.00229906
-0.00211581
-0.00193289
-0.00175028
-0.00156794
-0.00138585
-0.00120396
-0.00102232
-0.000840599
-0.000659733
-0.000476061
-0.000299857
-8.34394e-05
5.72392
0.37981
0.0160529
-0.181673
-0.285614
-0.345006
-0.396126
-0.453786
-0.521139
-0.599492
-0.68201
-0.752144
-0.805704
-0.882088
-1.06353
-1.33205
-1.61789
-1.77108
-1.8526
-0.168568
0.0470579
0.0434191
0.0751354
0.151305
0.205454
0.27411
0.331929
0.378666
0.406433
0.416184
0.402994
0.386581
0.376839
0.37239
0.371381
0.365893
0.356365
0.347468
0.339487
0.331912
0.324693
0.317882
0.311535
0.305736
0.300532
0.296009
0.29224
0.289213
0.286866
0.285151
0.283988
0.28327
0.282923
0.282871
0.283002
0.283311
0.283762
0.28434
0.285007
0.285814
0.286901
0.288246
0.288726
0.284112
0.272666
0.263203
0.260509
0.259523
0.259128
0.258656
0.258279
0.258706
0.261242
0.267787
0.280116
0.28748
0.230711
0.16914
0.167274
0.174689
0.180179
0.183188
0.186363
0.191143
0.195496
0.198124
0.209612
0.250534
0.287022
0.239836
0.0418849
0.134579
0.178796
0.218081
0.288601
0.387291
3.67188
0.57324
-0.432765
0.0144722
0.416774
1.0484
1.59921
1.12944
1.2869
1.59247
2.0125
1.9772
1.80688
1.93884
2.19675
2.29107
2.29677
2.40914
2.56337
2.66706
2.7547
2.85016
2.91647
2.95051
2.97268
2.97858
2.96551
2.94271
2.91349
2.87917
2.84304
2.80586
2.76731
2.72743
2.68592
2.6426
2.59754
2.55063
2.50155
2.44979
2.39474
2.33588
2.27293
2.2059
2.13504
2.06081
1.98377
1.90453
1.82374
1.74203
1.65998
1.57819
1.49717
1.41741
1.33933
1.26328
1.18956
1.1184
1.04994
0.98431
0.921573
0.861766
0.804902
0.75097
0.69994
0.651763
0.606374
0.563692
0.523627
0.486075
0.450931
0.418084
0.387422
0.358834
0.332205
0.307423
0.284373
0.262939
0.243004
0.224451
0.207166
0.191036
0.175954
0.161817
0.148532
0.136012
0.124177
0.112957
0.102289
0.0921168
0.0823921
0.0730715
0.0641171
0.0554956
0.0471776
0.0391372
0.031351
0.0237984
0.0164603
0.00931958
0.00236034
-0.00443217
-0.0110718
-0.0175714
-0.0239431
-0.0301983
-0.0363472
-0.0423992
-0.0483623
-0.0542432
-0.0600469
-0.0657766
-0.0714338
-0.0770177
-0.0825256
-0.0879527
-0.0932923
-0.0985361
-0.103674
-0.108696
-0.113588
-0.11834
-0.122937
-0.127368
-0.13162
-0.135682
-0.139543
-0.143193
-0.146625
-0.149829
-0.152802
-0.155538
-0.158034
-0.160287
-0.162298
-0.164067
-0.165595
-0.166884
-0.167939
-0.168764
-0.169363
-0.169744
-0.169913
-0.169877
-0.169645
-0.169223
-0.168623
-0.167851
-0.166919
-0.165834
-0.164607
-0.163248
-0.161765
-0.160168
-0.158468
-0.156672
-0.15479
-0.152831
-0.150803
-0.148714
-0.146572
-0.144385
-0.142159
-0.139902
-0.13762
-0.135319
-0.133005
-0.130682
-0.128357
-0.126033
-0.123716
-0.121408
-0.119115
-0.116838
-0.114582
-0.112349
-0.110142
-0.107963
-0.105815
-0.103699
-0.101617
-0.0995712
-0.0975627
-0.0955927
-0.0936624