/*--------------------------------*- C++ -*----------------------------------*\
| =========                 |                                                 |
| \\      /  F ield         | OpenFOAM: The Open Source CFD Toolbox           |
|  \\    /   O peration     | Version:  v2006                                 |
|   \\  /    A nd           | Website:  www.openfoam.com                      |
|    \\/     M anipulation  |                                                 |
\*---------------------------------------------------------------------------*/
FoamFile
{
    version     2.0;
    format      ascii;
    class       volVectorField;
    location    "0";
    object      U;
}
// * * * * * * * * * * * * * * * * * * * * * * * * * * * * * * * * * * * * * //

dimensions      [0 1 -1 0 0 0 0];


internalField   nonuniform List<vector> 
67500
(
(-0.0161157 0.0158998 0)
(-0.0389821 0.019703 0)
(-0.0685149 -0.0114799 0)
(-0.0660614 -0.0809977 0)
(-0.0520518 -0.100646 0)
(-0.0537637 -0.0937246 0)
(-0.0288354 -0.0790475 0)
(0.0335688 -0.0583173 0)
(0.0987632 -0.0610328 0)
(0.165953 -0.0520218 0)
(0.214381 -0.0445793 0)
(0.244649 -0.0426574 0)
(0.267396 -0.0415505 0)
(0.288815 -0.0341835 0)
(0.304693 -0.0178331 0)
(0.305991 0.000405562 0)
(0.262842 0.012533 0)
(0.205732 0.00335103 0)
(0.171883 -0.00830842 0)
(0.158969 -0.0127757 0)
(0.156283 -0.0134124 0)
(0.162015 -0.014487 0)
(0.173613 -0.0154006 0)
(0.186612 -0.0143428 0)
(0.197061 -0.0116409 0)
(0.203777 -0.00849929 0)
(0.207948 -0.00607079 0)
(0.210937 -0.00465929 0)
(0.213359 -0.00388893 0)
(0.21555 -0.00337422 0)
(0.218025 -0.0030716 0)
(0.221225 -0.00288186 0)
(0.225112 -0.00254038 0)
(0.22941 -0.00189508 0)
(0.234019 -0.00112168 0)
(0.239111 -0.000656504 0)
(0.245037 -0.000824979 0)
(0.252103 -0.00159689 0)
(0.260374 -0.00269253 0)
(0.269601 -0.00380972 0)
(0.279328 -0.00474095 0)
(0.28908 -0.00535896 0)
(0.298502 -0.00561907 0)
(0.30741 -0.00555168 0)
(0.315782 -0.00524294 0)
(0.323723 -0.00481347 0)
(0.33142 -0.00439039 0)
(0.339085 -0.00407211 0)
(0.346896 -0.00390485 0)
(0.354934 -0.00388126 0)
(0.363163 -0.00394492 0)
(0.371458 -0.00401397 0)
(0.379672 -0.00401609 0)
(0.3877 -0.00391601 0)
(0.395515 -0.00372931 0)
(0.403165 -0.00351636 0)
(0.410758 -0.00335752 0)
(0.418434 -0.00332073 0)
(0.426332 -0.00343563 0)
(0.434562 -0.00368428 0)
(0.443176 -0.00401149 0)
(0.452164 -0.00434697 0)
(0.461457 -0.00462602 0)
(0.47093 -0.00479431 0)
(0.480378 -0.00480017 0)
(0.48957 -0.00466219 0)
(0.498429 -0.00449706 0)
(0.507034 -0.00435948 0)
(0.515462 -0.00425782 0)
(0.523756 -0.00419051 0)
(0.531944 -0.00414843 0)
(0.540044 -0.00411791 0)
(0.548056 -0.0040846 0)
(0.555963 -0.00403553 0)
(0.563735 -0.00396099 0)
(0.571336 -0.00385531 0)
(0.578722 -0.00371558 0)
(0.585853 -0.00355615 0)
(0.592761 -0.00343447 0)
(0.599573 -0.00338279 0)
(0.606415 -0.00338329 0)
(0.613351 -0.00341433 0)
(0.620407 -0.00346426 0)
(0.627597 -0.00352529 0)
(0.634924 -0.00359072 0)
(0.642384 -0.0036534 0)
(0.64996 -0.00370615 0)
(0.657615 -0.00374169 0)
(0.665294 -0.00375132 0)
(0.672922 -0.00373166 0)
(0.680448 -0.00370158 0)
(0.687886 -0.00368813 0)
(0.69529 -0.00369374 0)
(0.702697 -0.00370436 0)
(0.710103 -0.00370642 0)
(0.717483 -0.00368984 0)
(0.724797 -0.00365126 0)
(0.732012 -0.00360047 0)
(0.739127 -0.0035544 0)
(0.746169 -0.00351882 0)
(0.753157 -0.00348692 0)
(0.760089 -0.0034512 0)
(0.766949 -0.00340946 0)
(0.773724 -0.00336529 0)
(0.780412 -0.00332341 0)
(0.78702 -0.0032838 0)
(0.79355 -0.00324317 0)
(0.799994 -0.0031998 0)
(0.806349 -0.00315456 0)
(0.812612 -0.00310852 0)
(0.818781 -0.00306134 0)
(0.824855 -0.00301226 0)
(0.830828 -0.00296128 0)
(0.836699 -0.00290875 0)
(0.842463 -0.00285469 0)
(0.848117 -0.00279893 0)
(0.853658 -0.00274152 0)
(0.859083 -0.00268256 0)
(0.864388 -0.00262209 0)
(0.869571 -0.00256018 0)
(0.874628 -0.00249702 0)
(0.879558 -0.00243278 0)
(0.884358 -0.00236767 0)
(0.889028 -0.0023019 0)
(0.893565 -0.00223568 0)
(0.897969 -0.00216921 0)
(0.90224 -0.00210269 0)
(0.906378 -0.00203628 0)
(0.910383 -0.00197014 0)
(0.914256 -0.00190443 0)
(0.917999 -0.00183925 0)
(0.921611 -0.00177474 0)
(0.925095 -0.001711 0)
(0.928453 -0.00164813 0)
(0.931686 -0.00158621 0)
(0.934796 -0.00152534 0)
(0.937785 -0.00146559 0)
(0.940656 -0.00140704 0)
(0.943411 -0.00134977 0)
(0.946053 -0.00129386 0)
(0.948584 -0.00123937 0)
(0.951008 -0.00118636 0)
(0.953327 -0.00113488 0)
(0.955545 -0.00108498 0)
(0.957665 -0.00103669 0)
(0.95969 -0.000990015 0)
(0.961623 -0.000944975 0)
(0.963468 -0.000901569 0)
(0.965227 -0.000859792 0)
(0.966905 -0.000819635 0)
(0.968504 -0.000781082 0)
(0.970027 -0.000744112 0)
(0.971479 -0.000708702 0)
(0.972861 -0.000674823 0)
(0.974176 -0.000642441 0)
(0.975429 -0.00061152 0)
(0.976621 -0.000582017 0)
(0.977755 -0.000553889 0)
(0.978835 -0.000527089 0)
(0.979862 -0.000501568 0)
(0.98084 -0.000477275 0)
(0.98177 -0.00045416 0)
(0.982655 -0.000432171 0)
(0.983498 -0.000411256 0)
(0.984299 -0.000391366 0)
(0.985062 -0.00037245 0)
(0.985788 -0.00035446 0)
(0.986479 -0.000337346 0)
(0.987137 -0.000321063 0)
(0.987762 -0.000305564 0)
(0.988358 -0.000290805 0)
(0.988925 -0.000276744 0)
(0.989464 -0.000263339 0)
(0.989978 -0.000250553 0)
(0.990466 -0.000238349 0)
(0.99093 -0.000226695 0)
(0.991372 -0.000215561 0)
(0.991792 -0.00020492 0)
(0.992191 -0.000194748 0)
(0.992571 -0.000185026 0)
(0.992931 -0.000175735 0)
(0.993273 -0.000166861 0)
(0.993598 -0.00015839 0)
(0.993906 -0.000150311 0)
(0.994199 -0.000142612 0)
(0.994476 -0.000135284 0)
(0.994739 -0.000128316 0)
(0.994989 -0.000121697 0)
(0.995226 -0.000115418 0)
(0.99545 -0.000109467 0)
(0.995664 -0.000103832 0)
(0.995866 -9.85005e-05 0)
(0.996057 -9.34606e-05 0)
(0.996239 -8.8699e-05 0)
(0.996412 -8.42026e-05 0)
(0.996576 -7.99581e-05 0)
(0.996732 -7.59526e-05 0)
(0.996879 -7.2173e-05 0)
(0.99702 -6.86067e-05 0)
(0.997154 -6.52415e-05 0)
(0.997281 -6.20653e-05 0)
(0.997402 -5.90666e-05 0)
(0.997517 -5.62343e-05 0)
(0.997627 -5.35578e-05 0)
(0.997731 -5.10266e-05 0)
(0.997831 -4.86312e-05 0)
(0.997926 -4.63621e-05 0)
(0.998016 -4.42105e-05 0)
(0.998102 -4.21681e-05 0)
(0.998185 -4.02268e-05 0)
(0.998263 -3.83794e-05 0)
(0.998338 -3.66191e-05 0)
(0.99841 -3.49394e-05 0)
(0.998478 -3.33346e-05 0)
(0.998543 -3.17995e-05 0)
(0.998605 -3.03292e-05 0)
(0.998664 -2.89195e-05 0)
(0.998721 -2.75668e-05 0)
(0.998774 -2.62676e-05 0)
(0.998826 -2.5019e-05 0)
(0.998874 -2.38186e-05 0)
(0.998921 -2.2664e-05 0)
(0.998965 -2.15536e-05 0)
(0.999007 -2.04856e-05 0)
(0.999047 -1.94586e-05 0)
(0.999085 -1.84714e-05 0)
(0.999121 -1.75229e-05 0)
(0.999155 -1.66122e-05 0)
(0.999187 -1.57384e-05 0)
(0.999218 -1.49008e-05 0)
(0.999247 -1.40985e-05 0)
(0.999274 -1.33309e-05 0)
(0.9993 -1.25973e-05 0)
(0.999324 -1.1897e-05 0)
(0.999348 -1.12294e-05 0)
(0.999369 -1.05936e-05 0)
(0.99939 -9.98905e-06 0)
(0.999409 -9.41497e-06 0)
(0.999427 -8.87063e-06 0)
(0.999445 -8.35524e-06 0)
(0.999461 -7.86803e-06 0)
(0.999476 -7.40818e-06 0)
(0.99949 -6.97487e-06 0)
(0.999504 -6.56726e-06 0)
(0.999517 -6.18451e-06 0)
(0.999529 -5.82575e-06 0)
(0.99954 -5.49013e-06 0)
(0.999551 -5.17676e-06 0)
(0.999561 -4.88478e-06 0)
(0.99957 -4.61332e-06 0)
(0.999579 -4.36151e-06 0)
(0.999588 -4.12847e-06 0)
(0.999596 -3.91336e-06 0)
(0.999603 -3.71531e-06 0)
(0.99961 -3.53348e-06 0)
(0.999617 -3.36703e-06 0)
(0.999624 -3.21513e-06 0)
(0.99963 -3.07697e-06 0)
(0.999636 -2.95176e-06 0)
(0.999642 -2.83869e-06 0)
(0.999648 -2.737e-06 0)
(0.999653 -2.64595e-06 0)
(0.999658 -2.56478e-06 0)
(0.999663 -2.49278e-06 0)
(0.999668 -2.42926e-06 0)
(0.999673 -2.37355e-06 0)
(0.999678 -2.32498e-06 0)
(0.999682 -2.28293e-06 0)
(0.999687 -2.24681e-06 0)
(0.999691 -2.21602e-06 0)
(0.999696 -2.19001e-06 0)
(0.9997 -2.16825e-06 0)
(0.999704 -2.15025e-06 0)
(0.999709 -2.13552e-06 0)
(0.999713 -2.12361e-06 0)
(0.999717 -2.11409e-06 0)
(0.999721 -2.10656e-06 0)
(0.999725 -2.10064e-06 0)
(0.99973 -2.09597e-06 0)
(0.999734 -2.09221e-06 0)
(0.999738 -2.08906e-06 0)
(0.999742 -2.08621e-06 0)
(0.999746 -2.08338e-06 0)
(0.999751 -2.08032e-06 0)
(0.999755 -2.07678e-06 0)
(0.999759 -2.07253e-06 0)
(0.999763 -2.06736e-06 0)
(0.999767 -2.06105e-06 0)
(0.999771 -2.05343e-06 0)
(0.999775 -2.04431e-06 0)
(0.999779 -2.03353e-06 0)
(0.999783 -2.02093e-06 0)
(0.999787 -2.00637e-06 0)
(0.999791 -1.98973e-06 0)
(0.999795 -1.97088e-06 0)
(0.999799 -1.94973e-06 0)
(0.999803 -1.92619e-06 0)
(0.999807 -1.9002e-06 0)
(0.999811 -1.8717e-06 0)
(0.999815 -1.84068e-06 0)
(0.999818 -1.80712e-06 0)
(0.999822 -1.77106e-06 0)
(0.999825 -1.73255e-06 0)
(0.999829 -1.69166e-06 0)
(0.999832 -1.6485e-06 0)
(0.999835 -1.60323e-06 0)
(0.999838 -1.55602e-06 0)
(0.999842 -1.50708e-06 0)
(0.999844 -1.45664e-06 0)
(0.999847 -1.40498e-06 0)
(0.99985 -1.3524e-06 0)
(0.999853 -1.29921e-06 0)
(0.999855 -1.24574e-06 0)
(0.999858 -1.19234e-06 0)
(0.99986 -1.13935e-06 0)
(0.999862 -1.08711e-06 0)
(0.999864 -1.03593e-06 0)
(0.999866 -9.86127e-07 0)
(0.999868 -9.37966e-07 0)
(0.99987 -8.91693e-07 0)
(0.999872 -8.47515e-07 0)
(0.999874 -8.05609e-07 0)
(0.999875 -7.6612e-07 0)
(0.999877 -7.29168e-07 0)
(0.999878 -6.94856e-07 0)
(0.999879 -6.6327e-07 0)
(0.999881 -6.34493e-07 0)
(0.999882 -6.08601e-07 0)
(0.999883 -5.85672e-07 0)
(0.999884 -5.65776e-07 0)
(0.999885 -5.48969e-07 0)
(0.999886 -5.35287e-07 0)
(0.999888 -5.24723e-07 0)
(0.999889 -5.17215e-07 0)
(0.99989 -5.12624e-07 0)
(0.999891 -5.10717e-07 0)
(0.999892 -5.11159e-07 0)
(0.999893 -5.13503e-07 0)
(0.999894 -5.17198e-07 0)
(0.999895 -5.21607e-07 0)
(0.999896 -5.26031e-07 0)
(0.999897 -5.29758e-07 0)
(0.999898 -5.32111e-07 0)
(0.999899 -5.32505e-07 0)
(0.9999 -5.30504e-07 0)
(0.999901 -5.2587e-07 0)
(0.999902 -5.18598e-07 0)
(0.999903 -5.08927e-07 0)
(0.999904 -4.97334e-07 0)
(0.999905 -4.84496e-07 0)
(0.999906 -4.71241e-07 0)
(0.999907 -4.58475e-07 0)
(0.999908 -4.47107e-07 0)
(0.999909 -4.37975e-07 0)
(0.99991 -4.31776e-07 0)
(0.999911 -4.29019e-07 0)
(0.999912 -4.29996e-07 0)
(0.999913 -4.34765e-07 0)
(0.999913 -4.43168e-07 0)
(0.999914 -4.54853e-07 0)
(0.999915 -4.69312e-07 0)
(0.999916 -4.85925e-07 0)
(0.999917 -5.0401e-07 0)
(0.999918 -5.22862e-07 0)
(0.99992 -5.41796e-07 0)
(0.999921 -5.60179e-07 0)
(0.999922 -5.7745e-07 0)
(0.999923 -5.9314e-07 0)
(0.999924 -6.06878e-07 0)
(0.999925 -6.18393e-07 0)
(0.999927 -6.27509e-07 0)
(0.999928 -6.34138e-07 0)
(0.999929 -6.38271e-07 0)
(0.999931 -6.39961e-07 0)
(0.999932 -6.39317e-07 0)
(0.999933 -6.36488e-07 0)
(0.999934 -6.3165e-07 0)
(0.999936 -6.25001e-07 0)
(0.999937 -6.16746e-07 0)
(0.999938 -6.07094e-07 0)
(0.999939 -5.96252e-07 0)
(0.999941 -5.84417e-07 0)
(0.999942 -5.71776e-07 0)
(0.999943 -5.58501e-07 0)
(0.999944 -5.44751e-07 0)
(0.999945 -5.30669e-07 0)
(0.999946 -5.16382e-07 0)
(0.999947 -5.02001e-07 0)
(0.999948 -4.87623e-07 0)
(0.999949 -4.73331e-07 0)
(0.99995 -4.59196e-07 0)
(0.999951 -4.45278e-07 0)
(0.999952 -4.31624e-07 0)
(0.999953 -4.18273e-07 0)
(0.999953 -4.05256e-07 0)
(0.999954 -3.92596e-07 0)
(0.999955 -3.80312e-07 0)
(0.999956 -3.68413e-07 0)
(0.999956 -3.56908e-07 0)
(0.999957 -3.45798e-07 0)
(0.999958 -3.35085e-07 0)
(0.999958 -3.24764e-07 0)
(0.999959 -3.14831e-07 0)
(0.99996 -3.05277e-07 0)
(0.99996 -2.96095e-07 0)
(0.999961 -2.87275e-07 0)
(0.999961 -2.78805e-07 0)
(0.999962 -2.70675e-07 0)
(0.999962 -2.62872e-07 0)
(0.999963 -2.55385e-07 0)
(0.999964 -2.48201e-07 0)
(0.999964 -2.41309e-07 0)
(0.999964 -2.34695e-07 0)
(0.999965 -2.28348e-07 0)
(0.999965 -2.22257e-07 0)
(0.999966 -2.16409e-07 0)
(0.999966 -2.10794e-07 0)
(0.999967 -2.054e-07 0)
(0.999967 -2.00218e-07 0)
(0.999967 -1.95237e-07 0)
(0.999968 -1.90448e-07 0)
(0.999968 -1.8584e-07 0)
(0.999969 -1.81406e-07 0)
(0.999969 -1.77136e-07 0)
(0.999969 -1.73022e-07 0)
(0.99997 -1.69057e-07 0)
(0.99997 -1.65233e-07 0)
(0.99997 -1.61543e-07 0)
(0.999971 -1.5798e-07 0)
(0.999971 -1.54538e-07 0)
(0.999971 -1.5121e-07 0)
(0.999972 -1.47991e-07 0)
(0.999972 -1.44875e-07 0)
(0.999972 -1.41857e-07 0)
(0.999972 -1.38931e-07 0)
(0.999973 -1.36094e-07 0)
(0.999973 -1.33341e-07 0)
(0.999973 -1.30667e-07 0)
(0.999973 -1.28068e-07 0)
(0.999974 -1.2554e-07 0)
(0.999974 -1.23081e-07 0)
(0.999974 -1.20686e-07 0)
(0.999974 -1.18351e-07 0)
(0.999975 -1.16075e-07 0)
(0.999975 -1.13855e-07 0)
(0.999975 -1.11682e-07 0)
(0.999975 -1.09577e-07 0)
(0.999976 -1.07441e-07 0)
(0.999976 -1.05688e-07 0)
(0.999976 -1.0251e-07 0)
(-0.0202884 0.0380297 0)
(-0.0320106 0.0334175 0)
(-0.0511011 0.0340948 0)
(-0.0290949 -0.00291598 0)
(-0.0637177 0.0840954 0)
(-0.0402741 0.0342215 0)
(-0.0760873 0.00742547 0)
(-0.0705902 -0.0630247 0)
(-0.0637462 -0.0881712 0)
(0.0304081 -0.0722361 0)
(0.100238 -0.0361531 0)
(0.125767 -0.0139867 0)
(0.141786 -0.0156775 0)
(0.167197 -0.0167903 0)
(0.200281 -0.00552047 0)
(0.244997 0.0285246 0)
(0.27149 0.0689365 0)
(0.271671 0.0768951 0)
(0.263346 0.0577481 0)
(0.254451 0.0327772 0)
(0.247308 0.0105932 0)
(0.238974 -0.00479992 0)
(0.227814 -0.0102414 0)
(0.216126 -0.00782771 0)
(0.208556 -0.00354551 0)
(0.206931 -0.00133474 0)
(0.210126 -0.000897494 0)
(0.21622 -0.00114903 0)
(0.224537 -0.00130145 0)
(0.234768 -0.00160287 0)
(0.245803 -0.00284666 0)
(0.256848 -0.00450285 0)
(0.267848 -0.0060358 0)
(0.279272 -0.00755649 0)
(0.29146 -0.00919496 0)
(0.304363 -0.0109759 0)
(0.317551 -0.012786 0)
(0.330486 -0.0142371 0)
(0.342614 -0.0150218 0)
(0.35356 -0.0150315 0)
(0.363204 -0.0143551 0)
(0.371625 -0.0132447 0)
(0.378999 -0.012035 0)
(0.385565 -0.0110316 0)
(0.391627 -0.0104491 0)
(0.397509 -0.0103691 0)
(0.403483 -0.0107327 0)
(0.40969 -0.0113678 0)
(0.416098 -0.0120371 0)
(0.422558 -0.0125133 0)
(0.428892 -0.0126637 0)
(0.434978 -0.0125049 0)
(0.440777 -0.0121818 0)
(0.446342 -0.0118832 0)
(0.451789 -0.0117505 0)
(0.457268 -0.0118368 0)
(0.462917 -0.0121218 0)
(0.468819 -0.0125456 0)
(0.474979 -0.0130368 0)
(0.481325 -0.0135287 0)
(0.487735 -0.0139675 0)
(0.494074 -0.014312 0)
(0.500236 -0.014525 0)
(0.506168 -0.0145385 0)
(0.511791 -0.0142033 0)
(0.516997 -0.0136378 0)
(0.521853 -0.0132284 0)
(0.526622 -0.012946 0)
(0.531485 -0.0127035 0)
(0.536525 -0.0124767 0)
(0.541789 -0.0122557 0)
(0.547304 -0.0120304 0)
(0.553072 -0.0117889 0)
(0.55908 -0.0115219 0)
(0.565299 -0.0112349 0)
(0.571686 -0.0109425 0)
(0.578158 -0.0106335 0)
(0.584578 -0.0102979 0)
(0.590905 -0.010109 0)
(0.597282 -0.010144 0)
(0.603841 -0.0103103 0)
(0.610609 -0.0105245 0)
(0.617581 -0.0107529 0)
(0.624753 -0.0109828 0)
(0.632124 -0.0112062 0)
(0.639685 -0.0114085 0)
(0.647413 -0.0115648 0)
(0.655272 -0.0116453 0)
(0.663193 -0.0116158 0)
(0.671067 -0.0114622 0)
(0.678803 -0.0112691 0)
(0.686426 -0.0111523 0)
(0.694026 -0.0111141 0)
(0.701647 -0.0111006 0)
(0.709279 -0.0110716 0)
(0.716878 -0.0109989 0)
(0.724382 -0.0108696 0)
(0.731736 -0.0107135 0)
(0.738944 -0.0105866 0)
(0.746056 -0.0105025 0)
(0.753109 -0.0104312 0)
(0.760098 -0.0103428 0)
(0.766999 -0.0102268 0)
(0.773794 -0.0100969 0)
(0.780488 -0.00997298 0)
(0.7871 -0.00985571 0)
(0.793633 -0.00973327 0)
(0.80008 -0.0096006 0)
(0.806434 -0.00946246 0)
(0.812694 -0.00932349 0)
(0.818863 -0.00918211 0)
(0.824938 -0.00903516 0)
(0.830913 -0.00888262 0)
(0.836785 -0.00872565 0)
(0.842552 -0.00856399 0)
(0.848209 -0.00839695 0)
(0.853754 -0.00822469 0)
(0.859182 -0.00804764 0)
(0.864491 -0.00786599 0)
(0.869677 -0.00768001 0)
(0.874737 -0.00749028 0)
(0.87967 -0.00729739 0)
(0.884472 -0.00710188 0)
(0.889143 -0.00690441 0)
(0.893681 -0.00670561 0)
(0.898086 -0.00650607 0)
(0.902358 -0.00630638 0)
(0.906496 -0.00610705 0)
(0.910501 -0.00590856 0)
(0.914374 -0.00571134 0)
(0.918116 -0.00551578 0)
(0.921728 -0.00532221 0)
(0.925211 -0.00513096 0)
(0.928567 -0.00494232 0)
(0.931798 -0.00475656 0)
(0.934907 -0.00457392 0)
(0.937894 -0.00439465 0)
(0.940763 -0.004219 0)
(0.943516 -0.00404719 0)
(0.946155 -0.00387944 0)
(0.948684 -0.00371596 0)
(0.951105 -0.00355694 0)
(0.953422 -0.00340253 0)
(0.955637 -0.00325284 0)
(0.957754 -0.00310798 0)
(0.959776 -0.002968 0)
(0.961706 -0.00283292 0)
(0.963548 -0.00270274 0)
(0.965305 -0.00257746 0)
(0.966979 -0.00245703 -2.53996e-41)
(0.968576 -0.00234142 -2.47697e-41)
(0.970096 -0.00223057 0)
(0.971544 -0.00212439 0)
(0.972924 -0.00202281 0)
(0.974237 -0.00192572 0)
(0.975486 -0.00183301 0)
(0.976676 -0.00174457 0)
(0.977808 -0.00166024 0)
(0.978885 -0.0015799 0)
(0.97991 -0.0015034 0)
(0.980885 -0.00143059 0)
(0.981813 -0.0013613 0)
(0.982697 -0.00129539 0)
(0.983537 -0.00123271 0)
(0.984337 -0.00117309 0)
(0.985098 -0.0011164 0)
(0.985822 -0.00106247 0)
(0.986511 -0.00101118 0)
(0.987167 -0.000962377 0)
(0.987792 -0.000915922 0)
(0.988386 -0.000871684 0)
(0.988952 -0.000829536 0)
(0.98949 -0.000789355 0)
(0.990002 -0.000751026 0)
(0.990489 -0.000714442 0)
(0.990953 -0.000679505 0)
(0.991393 -0.000646125 0)
(0.991812 -0.000614222 0)
(0.992211 -0.000583728 0)
(0.992589 -0.000554582 0)
(0.992949 -0.000526731 0)
(0.99329 -0.000500129 0)
(0.993614 -0.000474738 0)
(0.993922 -0.000450523 0)
(0.994213 -0.00042745 0)
(0.99449 -0.000405488 0)
(0.994753 -0.000384608 0)
(0.995002 -0.000364776 0)
(0.995238 -0.000345962 0)
(0.995462 -0.00032813 0)
(0.995674 -0.000311246 0)
(0.995876 -0.000295271 0)
(0.996067 -0.000280169 0)
(0.996248 -0.0002659 0)
(0.996421 -0.000252425 0)
(0.996584 -0.000239704 0)
(0.996739 -0.000227698 0)
(0.996887 -0.000216369 0)
(0.997027 -0.000205679 0)
(0.99716 -0.000195591 0)
(0.997287 -0.00018607 0)
(0.997408 -0.00017708 0)
(0.997522 -0.000168589 0)
(0.997632 -0.000160565 0)
(0.997736 -0.000152977 0)
(0.997835 -0.000145796 0)
(0.99793 -0.000138993 0)
(0.99802 -0.000132544 0)
(0.998106 -0.000126421 0)
(0.998188 -0.000120602 0)
(0.998267 -0.000115065 0)
(0.998341 -0.000109788 0)
(0.998413 -0.000104753 0)
(0.998481 -9.99427e-05 0)
(0.998546 -9.53409e-05 0)
(0.998608 -9.09334e-05 0)
(0.998667 -8.67075e-05 0)
(0.998723 -8.26517e-05 0)
(0.998777 -7.87563e-05 0)
(0.998828 -7.50125e-05 0)
(0.998877 -7.14127e-05 0)
(0.998923 -6.79505e-05 0)
(0.998967 -6.46202e-05 0)
(0.999009 -6.14169e-05 0)
(0.999049 -5.83366e-05 0)
(0.999087 -5.53756e-05 0)
(0.999123 -5.25307e-05 0)
(0.999157 -4.97991e-05 0)
(0.999189 -4.71782e-05 0)
(0.999219 -4.46657e-05 0)
(0.999248 -4.22594e-05 0)
(0.999276 -3.99571e-05 0)
(0.999301 -3.77569e-05 0)
(0.999326 -3.56567e-05 0)
(0.999349 -3.36543e-05 0)
(0.999371 -3.17478e-05 0)
(0.999391 -2.99349e-05 0)
(0.99941 -2.82135e-05 0)
(0.999429 -2.65814e-05 0)
(0.999446 -2.50361e-05 0)
(0.999462 -2.35754e-05 0)
(0.999477 -2.21968e-05 0)
(0.999491 -2.08979e-05 0)
(0.999505 -1.9676e-05 0)
(0.999517 -1.85288e-05 0)
(0.999529 -1.74535e-05 0)
(0.999541 -1.64476e-05 0)
(0.999551 -1.55084e-05 0)
(0.999561 -1.46335e-05 0)
(0.999571 -1.382e-05 0)
(0.99958 -1.30655e-05 0)
(0.999588 -1.23673e-05 0)
(0.999596 -1.17229e-05 0)
(0.999604 -1.11296e-05 0)
(0.999611 -1.0585e-05 0)
(0.999618 -1.00865e-05 0)
(0.999624 -9.63159e-06 0)
(0.99963 -9.21794e-06 0)
(0.999636 -8.84308e-06 0)
(0.999642 -8.50466e-06 0)
(0.999648 -8.20037e-06 0)
(0.999653 -7.92793e-06 0)
(0.999658 -7.68514e-06 0)
(0.999663 -7.46985e-06 0)
(0.999668 -7.27997e-06 0)
(0.999673 -7.11348e-06 0)
(0.999678 -6.96841e-06 0)
(0.999682 -6.84288e-06 0)
(0.999687 -6.73507e-06 0)
(0.999691 -6.64325e-06 0)
(0.999696 -6.56576e-06 0)
(0.9997 -6.501e-06 0)
(0.999704 -6.44747e-06 0)
(0.999709 -6.40373e-06 0)
(0.999713 -6.36842e-06 0)
(0.999717 -6.34027e-06 0)
(0.999721 -6.31806e-06 0)
(0.999725 -6.30065e-06 0)
(0.99973 -6.28698e-06 0)
(0.999734 -6.27603e-06 0)
(0.999738 -6.26686e-06 0)
(0.999742 -6.25858e-06 0)
(0.999746 -6.25037e-06 0)
(0.999751 -6.24143e-06 0)
(0.999755 -6.23104e-06 0)
(0.999759 -6.21851e-06 0)
(0.999763 -6.20319e-06 0)
(0.999767 -6.18447e-06 0)
(0.999771 -6.16178e-06 0)
(0.999775 -6.13459e-06 0)
(0.999779 -6.1024e-06 0)
(0.999783 -6.06475e-06 0)
(0.999787 -6.02121e-06 0)
(0.999792 -5.97139e-06 0)
(0.999795 -5.91495e-06 0)
(0.999799 -5.85158e-06 0)
(0.999803 -5.78102e-06 0)
(0.999807 -5.70309e-06 0)
(0.999811 -5.61762e-06 0)
(0.999815 -5.52455e-06 0)
(0.999818 -5.42386e-06 0)
(0.999822 -5.31563e-06 0)
(0.999825 -5.2e-06 0)
(0.999829 -5.07721e-06 0)
(0.999832 -4.9476e-06 0)
(0.999835 -4.8116e-06 0)
(0.999839 -4.66975e-06 0)
(0.999842 -4.52267e-06 0)
(0.999845 -4.37108e-06 0)
(0.999847 -4.2158e-06 0)
(0.99985 -4.05772e-06 0)
(0.999853 -3.8978e-06 0)
(0.999855 -3.73702e-06 0)
(0.999858 -3.57643e-06 0)
(0.99986 -3.41705e-06 0)
(0.999862 -3.25992e-06 0)
(0.999865 -3.106e-06 0)
(0.999867 -2.95621e-06 0)
(0.999868 -2.81141e-06 0)
(0.99987 -2.67233e-06 0)
(0.999872 -2.53961e-06 0)
(0.999874 -2.4138e-06 0)
(0.999875 -2.29533e-06 0)
(0.999877 -2.18454e-06 0)
(0.999878 -2.08169e-06 0)
(0.999879 -1.98697e-06 0)
(0.999881 -1.90054e-06 0)
(0.999882 -1.82254e-06 0)
(0.999883 -1.75307e-06 0)
(0.999884 -1.69227e-06 0)
(0.999885 -1.64022e-06 0)
(0.999887 -1.59701e-06 0)
(0.999888 -1.56264e-06 0)
(0.999889 -1.53702e-06 0)
(0.99989 -1.51989e-06 0)
(0.999891 -1.5108e-06 0)
(0.999892 -1.50901e-06 0)
(0.999893 -1.51353e-06 0)
(0.999894 -1.52302e-06 0)
(0.999895 -1.53591e-06 0)
(0.999896 -1.5504e-06 0)
(0.999897 -1.56459e-06 0)
(0.999898 -1.57657e-06 0)
(0.999899 -1.58464e-06 0)
(0.9999 -1.58741e-06 0)
(0.999901 -1.58396e-06 0)
(0.999902 -1.57393e-06 0)
(0.999903 -1.55762e-06 0)
(0.999904 -1.53594e-06 0)
(0.999905 -1.51037e-06 0)
(0.999906 -1.48282e-06 0)
(0.999907 -1.45549e-06 0)
(0.999908 -1.43065e-06 0)
(0.999909 -1.41047e-06 0)
(0.99991 -1.39681e-06 0)
(0.999911 -1.39111e-06 0)
(0.999912 -1.39428e-06 0)
(0.999913 -1.40665e-06 0)
(0.999913 -1.42801e-06 0)
(0.999914 -1.45761e-06 0)
(0.999915 -1.49429e-06 0)
(0.999916 -1.53656e-06 0)
(0.999917 -1.58273e-06 0)
(0.999918 -1.631e-06 0)
(0.99992 -1.6796e-06 0)
(0.999921 -1.72685e-06 0)
(0.999922 -1.77124e-06 0)
(0.999923 -1.81147e-06 0)
(0.999924 -1.84652e-06 0)
(0.999925 -1.87559e-06 0)
(0.999927 -1.89817e-06 0)
(0.999928 -1.91395e-06 0)
(0.999929 -1.92287e-06 0)
(0.999931 -1.92503e-06 0)
(0.999932 -1.9207e-06 0)
(0.999933 -1.91026e-06 0)
(0.999934 -1.89418e-06 0)
(0.999936 -1.87299e-06 0)
(0.999937 -1.84725e-06 0)
(0.999938 -1.81756e-06 0)
(0.999939 -1.78447e-06 0)
(0.999941 -1.74856e-06 0)
(0.999942 -1.71035e-06 0)
(0.999943 -1.67033e-06 0)
(0.999944 -1.62896e-06 0)
(0.999945 -1.58665e-06 0)
(0.999946 -1.54377e-06 0)
(0.999947 -1.50064e-06 0)
(0.999948 -1.45755e-06 0)
(0.999949 -1.41474e-06 0)
(0.99995 -1.37241e-06 0)
(0.999951 -1.33074e-06 0)
(0.999952 -1.28987e-06 0)
(0.999953 -1.24991e-06 0)
(0.999953 -1.21096e-06 0)
(0.999954 -1.17309e-06 0)
(0.999955 -1.13634e-06 0)
(0.999956 -1.10074e-06 0)
(0.999956 -1.06633e-06 0)
(0.999957 -1.0331e-06 0)
(0.999958 -1.00106e-06 0)
(0.999958 -9.70194e-07 0)
(0.999959 -9.40489e-07 0)
(0.99996 -9.11922e-07 0)
(0.99996 -8.84466e-07 0)
(0.999961 -8.58093e-07 0)
(0.999961 -8.32769e-07 0)
(0.999962 -8.08462e-07 0)
(0.999963 -7.85134e-07 0)
(0.999963 -7.62751e-07 0)
(0.999964 -7.41276e-07 0)
(0.999964 -7.20671e-07 0)
(0.999964 -7.00901e-07 0)
(0.999965 -6.8193e-07 0)
(0.999965 -6.63722e-07 0)
(0.999966 -6.46244e-07 0)
(0.999966 -6.29461e-07 0)
(0.999967 -6.13341e-07 0)
(0.999967 -5.97853e-07 0)
(0.999967 -5.82966e-07 0)
(0.999968 -5.68652e-07 0)
(0.999968 -5.54883e-07 0)
(0.999969 -5.41631e-07 0)
(0.999969 -5.28872e-07 0)
(0.999969 -5.16579e-07 0)
(0.99997 -5.04731e-07 0)
(0.99997 -4.93305e-07 0)
(0.99997 -4.82278e-07 0)
(0.999971 -4.71632e-07 0)
(0.999971 -4.61347e-07 0)
(0.999971 -4.51404e-07 0)
(0.999972 -4.41787e-07 0)
(0.999972 -4.32477e-07 0)
(0.999972 -4.2346e-07 0)
(0.999972 -4.14721e-07 0)
(0.999973 -4.06245e-07 0)
(0.999973 -3.9802e-07 0)
(0.999973 -3.90031e-07 0)
(0.999973 -3.82267e-07 0)
(0.999974 -3.74718e-07 0)
(0.999974 -3.6737e-07 0)
(0.999974 -3.60215e-07 0)
(0.999974 -3.53243e-07 0)
(0.999975 -3.46443e-07 0)
(0.999975 -3.3981e-07 0)
(0.999975 -3.33321e-07 0)
(0.999975 -3.27034e-07 0)
(0.999976 -3.20653e-07 0)
(0.999976 -3.15414e-07 0)
(0.999976 -3.05953e-07 0)
(-0.01884 0.0616762 0)
(-0.0149798 0.0419809 0)
(-0.0377032 0.0131434 0)
(-0.0751589 0.0445185 0)
(-0.142772 0.00364999 0)
(-0.179033 -0.0492717 0)
(-0.295828 -0.0853024 0)
(-0.426331 -0.108047 0)
(-0.398509 -0.186657 0)
(-0.242564 -0.185303 0)
(-0.112674 -0.124947 0)
(0.00517113 -0.0804256 0)
(0.0603909 -0.0684495 0)
(0.100867 -0.0634332 0)
(0.123402 -0.0591341 0)
(0.132654 -0.0356974 0)
(0.157738 0.00378539 0)
(0.186503 0.0151988 0)
(0.210916 0.00870272 0)
(0.223482 0.0018246 0)
(0.223889 0.00249098 0)
(0.217166 0.00592304 0)
(0.213658 0.00772677 0)
(0.217682 0.00332044 0)
(0.232271 -0.0044088 0)
(0.248879 -0.0112218 0)
(0.264341 -0.0148022 0)
(0.277621 -0.0171227 0)
(0.290576 -0.0203966 0)
(0.305737 -0.02306 0)
(0.318594 -0.0240575 0)
(0.329735 -0.0240951 0)
(0.339655 -0.0240656 0)
(0.347231 -0.0242663 0)
(0.351872 -0.0245958 0)
(0.35521 -0.0248812 0)
(0.356923 -0.0250108 0)
(0.358416 -0.0250395 0)
(0.360748 -0.0249049 0)
(0.364876 -0.0245041 0)
(0.371403 -0.0237533 0)
(0.380418 -0.0226767 0)
(0.39144 -0.0214004 0)
(0.403597 -0.0200997 0)
(0.41591 -0.0189381 0)
(0.427587 -0.0180147 0)
(0.438183 -0.0173445 0)
(0.447658 -0.0168915 0)
(0.456347 -0.0166093 0)
(0.464825 -0.016435 0)
(0.473668 -0.0162849 0)
(0.483199 -0.0160748 0)
(0.493362 -0.015758 0)
(0.503794 -0.0153601 0)
(0.514014 -0.0149812 0)
(0.523597 -0.0147492 0)
(0.532272 -0.0147534 0)
(0.539935 -0.0149941 0)
(0.546615 -0.0153765 0)
(0.552435 -0.0157485 0)
(0.557581 -0.0159654 0)
(0.562294 -0.015947 0)
(0.566841 -0.0157249 0)
(0.571519 -0.0154351 0)
(0.576209 -0.0148807 0)
(0.580514 -0.0137906 0)
(0.583994 -0.0132142 0)
(0.586983 -0.0131679 0)
(0.589599 -0.0134437 0)
(0.591882 -0.0139416 0)
(0.59392 -0.0145872 0)
(0.595804 -0.015309 0)
(0.597622 -0.0160415 0)
(0.599462 -0.0167176 0)
(0.60143 -0.0172606 0)
(0.603673 -0.0175868 0)
(0.606321 -0.0175513 0)
(0.609294 -0.0170538 0)
(0.612534 -0.0167693 0)
(0.616231 -0.0168632 0)
(0.62048 -0.0171177 0)
(0.625171 -0.017432 0)
(0.630193 -0.0177818 0)
(0.635496 -0.018146 0)
(0.641069 -0.0185046 0)
(0.646919 -0.0188409 0)
(0.653053 -0.0191333 0)
(0.65947 -0.0193442 0)
(0.666131 -0.0194004 0)
(0.672879 -0.0192073 0)
(0.679553 -0.0189213 0)
(0.686238 -0.0188136 0)
(0.693139 -0.0188686 0)
(0.700311 -0.0189511 0)
(0.707705 -0.0189668 0)
(0.715241 -0.0188499 0)
(0.722793 -0.0185642 0)
(0.730226 -0.0181901 0)
(0.73753 -0.0178922 0)
(0.744793 -0.0177 0)
(0.75206 -0.0175373 0)
(0.759295 -0.0173434 0)
(0.766426 -0.0170994 0)
(0.773405 -0.0168417 0)
(0.78024 -0.0166178 0)
(0.786972 -0.0164222 0)
(0.793611 -0.0162206 0)
(0.800139 -0.0159982 0)
(0.806545 -0.0157669 0)
(0.812839 -0.0155381 0)
(0.819032 -0.0153062 0)
(0.825124 -0.0150626 0)
(0.831109 -0.0148083 0)
(0.836987 -0.0145473 0)
(0.842759 -0.0142788 0)
(0.848421 -0.0140008 0)
(0.85397 -0.013714 0)
(0.859403 -0.0134193 0)
(0.864716 -0.0131167 0)
(0.869907 -0.0128064 0)
(0.874972 -0.0124897 0)
(0.879909 -0.0121675 0)
(0.884715 -0.0118409 0)
(0.889389 -0.0115109 0)
(0.893929 -0.0111789 0)
(0.898336 -0.0108456 0)
(0.902608 -0.0105122 0)
(0.906746 -0.0101794 0)
(0.910751 -0.00984801 0)
(0.914622 -0.00951883 0)
(0.918362 -0.00919244 0)
(0.921972 -0.00886942 0)
(0.925452 -0.00855029 0)
(0.928806 -0.00823553 0)
(0.932033 -0.00792558 0)
(0.935138 -0.00762086 0)
(0.938121 -0.00732176 0)
(0.940986 -0.00702869 0)
(0.943734 -0.00674204 0)
(0.946368 -0.00646217 0)
(0.948892 -0.00618946 0)
(0.951307 -0.0059242 0)
(0.953618 -0.00566665 0)
(0.955827 -0.00541704 0)
(0.957938 -0.00517549 0)
(0.959954 -0.00494209 0)
(0.961878 -0.0047169 0)
(0.963714 -0.00449991 0)
(0.965464 -0.00429109 0)
(0.967133 -0.00409039 0)
(0.968723 -0.00389773 0)
(0.970237 -0.00371301 0)
(0.97168 -0.00353611 0)
(0.973053 -0.00336688 0)
(0.97436 -0.00320516 0)
(0.975604 -0.00305075 0)
(0.976789 -0.00290345 0)
(0.977915 -0.00276304 0)
(0.978987 -0.00262928 0)
(0.980008 -0.00250192 0)
(0.980978 -0.0023807 0)
(0.981902 -0.00226537 0)
(0.982781 -0.00215567 0)
(0.983617 -0.00205134 0)
(0.984413 -0.00195213 0)
(0.98517 -0.00185779 0)
(0.985891 -0.00176806 0)
(0.986577 -0.00168272 0)
(0.98723 -0.00160152 0)
(0.987851 -0.00152423 0)
(0.988443 -0.00145064 0)
(0.989006 -0.00138052 0)
(0.989542 -0.00131368 0)
(0.990051 -0.00124991 0)
(0.990536 -0.00118905 0)
(0.990998 -0.00113091 0)
(0.991437 -0.00107536 0)
(0.991854 -0.00102227 0)
(0.99225 -0.000971502 0)
(0.992627 -0.000922975 0)
(0.992985 -0.000876596 0)
(0.993324 -0.000832292 0)
(0.993647 -0.00079 0)
(0.993953 -0.000749662 0)
(0.994243 -0.000711226 0)
(0.994519 -0.000674642 0)
(0.99478 -0.000639861 0)
(0.995027 -0.000606831 0)
(0.995262 -0.000575498 0)
(0.995485 -0.000545807 0)
(0.995696 -0.000517698 0)
(0.995896 -0.000491109 0)
(0.996086 -0.000465977 0)
(0.996267 -0.000442235 0)
(0.996438 -0.000419819 0)
(0.9966 -0.00039866 0)
(0.996755 -0.000378695 0)
(0.996901 -0.000359857 0)
(0.997041 -0.000342083 0)
(0.997173 -0.000325313 0)
(0.997299 -0.000309485 0)
(0.997419 -0.000294543 0)
(0.997533 -0.00028043 0)
(0.997642 -0.000267095 0)
(0.997746 -0.000254484 0)
(0.997845 -0.00024255 0)
(0.997939 -0.000231245 0)
(0.998029 -0.000220526 0)
(0.998114 -0.000210351 0)
(0.998196 -0.000200679 0)
(0.998274 -0.000191474 0)
(0.998348 -0.000182702 0)
(0.998419 -0.000174331 0)
(0.998487 -0.000166333 0)
(0.998552 -0.00015868 0)
(0.998614 -0.000151349 0)
(0.998672 -0.000144319 0)
(0.998728 -0.000137571 0)
(0.998782 -0.000131089 0)
(0.998833 -0.000124858 0)
(0.998881 -0.000118866 0)
(0.998928 -0.000113103 0)
(0.998971 -0.000107558 0)
(0.999013 -0.000102225 0)
(0.999053 -9.70953e-05 0)
(0.999091 -9.21643e-05 0)
(0.999126 -8.74263e-05 0)
(0.99916 -8.28768e-05 0)
(0.999192 -7.85116e-05 0)
(0.999223 -7.43268e-05 0)
(0.999251 -7.03188e-05 0)
(0.999279 -6.64841e-05 0)
(0.999304 -6.28194e-05 0)
(0.999329 -5.93213e-05 0)
(0.999351 -5.59863e-05 0)
(0.999373 -5.28111e-05 0)
(0.999393 -4.9792e-05 0)
(0.999413 -4.69254e-05 0)
(0.999431 -4.42075e-05 0)
(0.999448 -4.16346e-05 0)
(0.999464 -3.92026e-05 0)
(0.999479 -3.69075e-05 0)
(0.999493 -3.47452e-05 0)
(0.999506 -3.27115e-05 0)
(0.999519 -3.08021e-05 0)
(0.999531 -2.90127e-05 0)
(0.999542 -2.7339e-05 0)
(0.999552 -2.57766e-05 0)
(0.999562 -2.43211e-05 0)
(0.999572 -2.29682e-05 0)
(0.999581 -2.17135e-05 0)
(0.999589 -2.05527e-05 0)
(0.999597 -1.94814e-05 0)
(0.999604 -1.84954e-05 0)
(0.999612 -1.75904e-05 0)