/*--------------------------------*- C++ -*----------------------------------*\
| =========                 |                                                 |
| \\      /  F ield         | OpenFOAM: The Open Source CFD Toolbox           |
|  \\    /   O peration     | Version:  v2006                                 |
|   \\  /    A nd           | Website:  www.openfoam.com                      |
|    \\/     M anipulation  |                                                 |
\*---------------------------------------------------------------------------*/
FoamFile
{
    version     2.0;
    format      ascii;
    class       volScalarField;
    location    "16";
    object      p;
}
// * * * * * * * * * * * * * * * * * * * * * * * * * * * * * * * * * * * * * //

dimensions      [1 -1 -2 0 0 0 0];


internalField   nonuniform List<scalar> 
52500
(
29517.3
29517.5
29517.7
29518
29518.5
29519.1
29519.8
29520.5
29521.5
29522.5
29523.6
29524.9
29526.3
29527.7
29529.3
29531
29532.8
29534.8
29536.8
29539
29541.2
29543.6
29546
29548.6
29551.3
29554.1
29557
29560
29563
29566.2
29569.5
29572.9
29576.4
29580
29583.6
29587.4
29591.2
29595.2
29599.2
29603.3
29607.5
29611.8
29616.2
29620.6
29625.1
29629.8
29634.4
29639.2
29644
29648.9
29653.9
29658.9
29664
29669.2
29674.4
29679.7
29685.1
29690.5
29695.9
29701.4
29707
29712.6
29718.2
29723.9
29729.6
29735.4
29741.2
29747.1
29753
29758.9
29764.8
29770.8
29776.8
29782.9
29788.9
29795
29801.1
29807.3
29813.4
29819.6
29825.8
29832
29838.2
29844.4
29850.6
29856.8
29863
29869.3
29875.5
29881.8
29888
29894.2
29900.4
29906.6
29912.8
29919
29925.2
29931.4
29937.5
29943.6
29949.7
29955.8
29961.9
29967.9
29973.9
29979.9
29985.8
29991.8
29997.6
30003.5
30009.3
30015
30020.7
30026.4
30032.1
30037.6
30043.2
30048.7
30054.1
30059.5
30064.8
30070.1
30075.3
30080.5
30085.6
30090.7
30095.7
30100.6
30105.5
30110.3
30115
30119.7
30124.3
30128.9
30133.4
30137.8
30142.1
30146.4
30150.7
30154.8
30158.9
30162.9
30166.9
30170.8
30174.6
30178.4
30182.1
30185.8
30189.3
30192.9
30196.3
30199.7
30203.1
30206.4
30209.6
30212.8
30216
30219.1
30222.1
30225.1
30228.1
30231
30233.9
30236.7
30239.5
30242.3
30245.1
30247.8
30250.5
30253.2
30255.8
30258.5
30261.1
30263.8
30266.4
30269
30271.7
30274.3
30277
30279.7
30282.3
30285.1
30287.8
30290.6
30293.4
30296.2
30299.1
30302
30305
30308
30311.1
30314.2
30317.4
30320.7
30324
30327.4
30330.9
30334.5
30338.2
30342
30345.9
30349.8
30353.9
30358.1
30362.4
30366.8
30371.3
30375.9
30380.7
30385.6
30390.6
30395.8
30401.1
30406.5
30412.1
30417.9
30423.8
30429.8
30436
30442.3
30448.8
30455.5
30462.4
30469.4
30476.5
30483.9
30491.4
30499.1
30506.9
30515
30523.2
30531.5
30540.1
30548.8
30557.8
30566.9
30576.1
30585.6
30595.2
30605
30615
30625.1
30635.5
30645.9
30656.6
30667.4
30678.5
30689.6
30701
30712.4
30724.1
30735.9
30747.9
30760
30772.2
30784.6
30797.1
30809.8
30822.6
30835.5
30848.6
30861.8
30875
30888.4
30901.9
30915.5
30929.1
30942.9
30956.7
30970.7
30984.6
30998.7
31012.8
31027
31041.2
31055.4
31069.7
31084
31098.3
31112.6
31126.9
31141.2
31155.5
31169.8
31184
31198.2
31212.3
31226.5
31240.5
31254.5
31268.5
31282.4
31296.3
31310.1
31323.9
31337.6
31351.2
31364.7
31378.1
31391.3
31404.4
31417.3
31430.1
31442.8
31455.3
31467.6
31479.8
31491.8
31503.6
31515.2
31526.7
31537.9
31549
31559.8
31570.4
31580.8
31591
31600.9
31610.6
31620.1
31629.3
31638.2
31646.9
31655.3
31663.5
31671.4
31679
31686.3
31693.4
31700.1
31706.6
31712.7
31718.6
31724.2
31729.4
31734.4
31739
31743.3
31747.3
31751
31754.4
31757.4
31760.1
31762.5
31764.5
31766.2
31767.5
31768.6
31769.2
31769.6
29059.1
29059.3
29059.5
29059.8
29060.3
29060.9
29061.5
29062.3
29063.3
29064.3
29065.4
29066.7
29068.1
29069.5
29071.1
29072.8
29074.7
29076.6
29078.6
29080.8
29083
29085.4
29087.9
29090.5
29093.2
29095.9
29098.8
29101.8
29104.9
29108.1
29111.4
29114.8
29118.3
29121.9
29125.6
29129.3
29133.2
29137.1
29141.2
29145.3
29149.5
29153.8
29158.2
29162.6
29167.2
29171.8
29176.4
29181.2
29186
29190.9
29195.9
29201
29206.1
29211.2
29216.5
29221.8
29227.1
29232.5
29238
29243.5
29249
29254.6
29260.3
29266
29271.7
29277.5
29283.3
29289.2
29295.1
29301
29307
29312.9
29319
29325
29331.1
29337.2
29343.3
29349.4
29355.6
29361.7
29367.9
29374.1
29380.3
29386.6
29392.8
29399
29405.3
29411.5
29417.7
29424
29430.2
29436.4
29442.7
29448.9
29455.1
29461.3
29467.5
29473.6
29479.8
29485.9
29492
29498.1
29504.1
29510.2
29516.2
29522.2
29528.1
29534
29539.9
29545.7
29551.6
29557.3
29563
29568.7
29574.4
29580
29585.5
29591
29596.4
29601.8
29607.2
29612.5
29617.7
29622.9
29628
29633
29638
29643
29647.8
29652.6
29657.4
29662.1
29666.7
29671.2
29675.7
29680.2
29684.5
29688.8
29693
29697.2
29701.3
29705.3
29709.3
29713.2
29717
29720.8
29724.5
29728.1
29731.7
29735.2
29738.7
29742.1
29745.4
29748.7
29751.9
29755.1
29758.3
29761.3
29764.4
29767.4
29770.3
29773.2
29776.1
29779
29781.8
29784.6
29787.3
29790.1
29792.8
29795.5
29798.1
29800.8
29803.4
29806
29808.7
29811.3
29813.9
29816.6
29819.2
29821.9
29824.5
29827.2
29829.9
29832.7
29835.5
29838.3
29841.2
29844.1
29847
29850
29853.1
29856.2
29859.4
29862.7
29866
29869.4
29872.9
29876.5
29880.2
29883.9
29887.8
29891.7
29895.8
29900
29904.2
29908.6
29913.2
29917.8
29922.6
29927.4
29932.5
29937.6
29942.9
29948.3
29953.9
29959.7
29965.5
29971.6
29977.7
29984.1
29990.6
29997.3
30004.1
30011.1
30018.3
30025.6
30033.1
30040.8
30048.6
30056.7
30064.9
30073.3
30081.8
30090.6
30099.5
30108.6
30117.8
30127.3
30136.9
30146.7
30156.7
30166.8
30177.2
30187.7
30198.3
30209.2
30220.2
30231.4
30242.7
30254.2
30265.9
30277.7
30289.6
30301.8
30314
30326.4
30338.9
30351.6
30364.4
30377.3
30390.4
30403.5
30416.8
30430.2
30443.7
30457.3
30471
30484.7
30498.6
30512.5
30526.5
30540.6
30554.7
30568.9
30583.1
30597.3
30611.6
30625.9
30640.3
30654.6
30669
30683.3
30697.6
30711.9
30726.2
30740.5
30754.7
30768.8
30782.9
30797
30811
30824.9
30838.8
30852.7
30866.5
30880.1
30893.7
30907.2
30920.6
30933.8
30946.9
30959.9
30972.7
30985.3
30997.9
31010.2
31022.4
31034.4
31046.3
31057.9
31069.4
31080.7
31091.7
31102.6
31113.2
31123.6
31133.8
31143.7
31153.5
31162.9
31172.1
31181.1
31189.8
31198.2
31206.4
31214.3
31221.9
31229.3
31236.3
31243.1
31249.6
31255.8
31261.6
31267.2
31272.5
31277.4
31282.1
31286.4
31290.4
31294.1
31297.5
31300.5
31303.2
31305.6
31307.6
31309.3
31310.7
31311.7
31312.4
31312.8
28600.6
28600.8
28601
28601.3
28601.8
28602.4
28603
28603.8
28604.8
28605.8
28606.9
28608.2
28609.6
28611.1
28612.7
28614.4
28616.2
28618.1
28620.2
28622.3
28624.6
28627
28629.5
28632
28634.7
28637.5
28640.4
28643.4
28646.6
28649.8
28653.1
28656.5
28660
28663.6
28667.2
28671
28674.9
28678.9
28682.9
28687
28691.3
28695.6
28699.9
28704.4
28709
28713.6
28718.3
28723
28727.9
28732.8
28737.8
28742.8
28748
28753.1
28758.4
28763.7
28769
28774.4
28779.9
28785.4
28791
28796.6
28802.2
28807.9
28813.7
28819.5
28825.3
28831.2
28837.1
28843
28849
28855
28861
28867.1
28873.1
28879.2
28885.4
28891.5
28897.7
28903.9
28910.1
28916.3
28922.5
28928.7
28934.9
28941.2
28947.4
28953.7
28959.9
28966.2
28972.4
28978.7
28984.9
28991.1
28997.3
29003.6
29009.7
29015.9
29022.1
29028.2
29034.3
29040.4
29046.5
29052.6
29058.6
29064.6
29070.5
29076.4
29082.3
29088.2
29094
29099.8
29105.5
29111.2
29116.8
29122.4
29128
29133.5
29138.9
29144.3
29149.7
29155
29160.2
29165.4
29170.5
29175.6
29180.6
29185.5
29190.4
29195.2
29199.9
29204.6
29209.2
29213.8
29218.3
29222.7
29227.1
29231.4
29235.6
29239.7
29243.8
29247.9
29251.8
29255.7
29259.5
29263.3
29267
29270.6
29274.2
29277.7
29281.2
29284.6
29287.9
29291.2
29294.4
29297.6
29300.7
29303.8
29306.8
29309.8
29312.8
29315.7
29318.5
29321.4
29324.2
29326.9
29329.7
29332.4
29335.1
29337.7
29340.4
29343
29345.6
29348.2
29350.8
29353.4
29356
29358.7
29361.3
29363.9
29366.6
29369.3
29372
29374.7
29377.5
29380.3
29383.1
29386
29388.9
29391.9
29395
29398.1
29401.3
29404.5
29407.8
29411.2
29414.7
29418.2
29421.9
29425.6
29429.4
29433.4
29437.4
29441.6
29445.8
29450.2
29454.7
29459.3
29464
29468.9
29473.9
29479.1
29484.3
29489.7
29495.3
29501
29506.9
29512.9
29519.1
29525.4
29531.9
29538.6
29545.4
29552.4
29559.5
29566.9
29574.4
29582
29589.9
29597.9
29606.1
29614.5
29623
29631.8
29640.7
29649.8
29659.1
29668.5
29678.1
29688
29697.9
29708.1
29718.4
29729
29739.6
29750.5
29761.5
29772.7
29784
29795.6
29807.2
29819.1
29831
29843.2
29855.4
29867.9
29880.4
29893.1
29906
29918.9
29932
29945.2
29958.5
29971.9
29985.4
29999
30012.7
30026.5
30040.4
30054.4
30068.4
30082.5
30096.6
30110.8
30125
30139.3
30153.6
30168
30182.3
30196.7
30211
30225.4
30239.8
30254.1
30268.4
30282.7
30297
30311.2
30325.4
30339.5
30353.5
30367.6
30381.5
30395.4
30409.2
30422.9
30436.5
30450
30463.4
30476.6
30489.8
30502.8
30515.6
30528.3
30540.9
30553.3
30565.5
30577.5
30589.4
30601.1
30612.6
30623.9
30635
30645.8
30656.5
30666.9
30677.1
30687.1
30696.9
30706.4
30715.6
30724.6
30733.3
30741.8
30750
30757.9
30765.5
30772.9
30779.9
30786.7
30793.2
30799.4
30805.3
30810.9
30816.2
30821.1
30825.8
30830.1
30834.2
30837.9
30841.2
30844.3
30847
30849.4
30851.4
30853.2
30854.5
30855.6
30856.2
30856.6
28141.8
28142
28142.2
28142.5
28143
28143.6
28144.2
28145
28146
28147
28148.1
28149.4
28150.8
28152.3
28153.9
28155.6
28157.4
28159.4
28161.4
28163.6
28165.9
28168.2
28170.7
28173.3
28176
28178.8
28181.7
28184.8
28187.9
28191.1
28194.4
28197.8
28201.3
28204.9
28208.6
28212.4
28216.3
28220.3
28224.4
28228.5
28232.7
28237.1
28241.5
28245.9
28250.5
28255.1
28259.9
28264.6
28269.5
28274.4
28279.4
28284.5
28289.6
28294.8
28300.1
28305.4
28310.7
28316.2
28321.7
28327.2
28332.8
28338.4
28344.1
28349.8
28355.5
28361.3
28367.2
28373.1
28379
28384.9
28390.9
28396.9
28403
28409
28415.1
28421.2
28427.4
28433.5
28439.7
28445.9
28452.1
28458.4
28464.6
28470.8
28477.1
28483.3
28489.6
28495.9
28502.1
28508.4
28514.7
28520.9
28527.2
28533.4
28539.6
28545.9
28552.1
28558.3
28564.4
28570.6
28576.7
28582.8
28588.9
28595
28601
28607
28613
28618.9
28624.8
28630.7
28636.5
28642.3
28648
28653.7
28659.4
28665
28670.6
28676.1
28681.5
28686.9
28692.3
28697.6
28702.8
28708
28713.2
28718.2
28723.2
28728.2
28733.1
28737.9
28742.6
28747.3
28752
28756.5
28761
28765.4
28769.8
28774.1
28778.3
28782.5
28786.6
28790.6
28794.5
28798.4
28802.2
28806
28809.7
28813.3
28816.9
28820.4
28823.8
28827.2
28830.6
28833.8
28837.1
28840.2
28843.3
28846.4
28849.4
28852.4
28855.3
28858.2
28861
28863.8
28866.6
28869.3
28872
28874.7
28877.4
28880
28882.7
28885.3
28887.9
28890.5
28893
28895.6
28898.2
28900.8
28903.4
28906
28908.6
28911.3
28913.9
28916.6
28919.4
28922.1
28924.9
28927.8
28930.7
28933.7
28936.7
28939.7
28942.9
28946.1
28949.4
28952.7
28956.2
28959.7
28963.3
28967
28970.8
28974.7
28978.7
28982.8
28987.1
28991.4
28995.9
29000.5
29005.2
29010
29015
29020.1
29025.4
29030.7
29036.3
29042
29047.8
29053.8
29060
29066.3
29072.8
29079.4
29086.2
29093.2
29100.3
29107.6
29115.1
29122.8
29130.6
29138.7
29146.9
29155.2
29163.8
29172.5
29181.4
29190.5
29199.8
29209.3
29218.9
29228.7
29238.7
29248.9
29259.2
29269.8
29280.5
29291.3
29302.4
29313.6
29324.9
29336.5
29348.2
29360
29372
29384.2
29396.5
29408.9
29421.5
29434.2
29447.1
29460.1
29473.2
29486.4
29499.8
29513.2
29526.8
29540.4
29554.2
29568
29581.9
29595.9
29610
29624.1
29638.3
29652.6
29666.8
29681.2
29695.5
29709.9
29724.3
29738.7
29753.1
29767.6
29782
29796.4
29810.8
29825.1
29839.4
29853.7
29868
29882.1
29896.3
29910.3
29924.4
29938.3
29952.1
29965.9
29979.5
29993.1
30006.5
30019.8
30033
30046
30058.9
30071.7
30084.3
30096.7
30109
30121.1
30133
30144.7
30156.3
30167.6
30178.7
30189.7
30200.4
30210.8
30221.1
30231.1
30240.9
30250.4
30259.7
30268.7
30277.5
30286
30294.2
30302.1
30309.8
30317.2
30324.3
30331.1
30337.6
30343.8
30349.7
30355.3
30360.6
30365.6
30370.3
30374.6
30378.7
30382.4
30385.7
30388.8
30391.5
30393.9
30396
30397.7
30399.1
30400.1
30400.8
30401.1
27682.7
27682.8
27683
27683.4
27683.8
27684.4
27685.1
27685.9
27686.8
27687.9
27689
27690.3
27691.7
27693.2
27694.8
27696.5
27698.3
27700.3
27702.3
27704.5
27706.8
27709.2
27711.7
27714.3
27717
27719.8
27722.8
27725.8
27728.9
27732.1
27735.5
27738.9
27742.4
27746.1
27749.8
27753.6
27757.5
27761.5
27765.6
27769.7
27774
27778.3
27782.7
27787.2
27791.8
27796.5
27801.2
27806
27810.9
27815.8
27820.9
27826
27831.1
27836.3
27841.6
27846.9
27852.3
27857.7
27863.2
27868.8
27874.4
27880
27885.7
27891.5
27897.3
27903.1
27908.9
27914.8
27920.8
27926.7
27932.8
27938.8
27944.8
27950.9
27957
27963.2
27969.3
27975.5
27981.7
27987.9
27994.2
28000.4
28006.7
28012.9
28019.2
28025.5
28031.8
28038.1
28044.3
28050.6
28056.9
28063.2
28069.5
28075.7
28082
28088.2
28094.4
28100.6
28106.8
28113
28119.2
28125.3
28131.4
28137.5
28143.5
28149.5
28155.5
28161.5
28167.4
28173.3
28179.1
28184.9
28190.7
28196.4
28202.1
28207.7
28213.3
28218.8
28224.3
28229.7
28235.1
28240.4
28245.6
28250.8
28256
28261.1
28266.1
28271
28275.9
28280.8
28285.5
28290.2
28294.8
28299.4
28303.9
28308.3
28312.7
28317
28321.2
28325.4
28329.5
28333.5
28337.4
28341.3
28345.1
28348.9
28352.6
28356.2
28359.7
28363.2
28366.7
28370
28373.4
28376.6
28379.8
28383
28386
28389.1
28392.1
28395
28397.9
28400.8
28403.6
28406.4
28409.1
28411.8
28414.5
28417.2
28419.8
28422.4
28425
28427.6
28430.1
28432.7
28435.2
28437.8
28440.3
28442.9
28445.4
28448
28450.6
28453.2
28455.8
28458.5
28461.2
28463.9
28466.7
28469.5
28472.3
28475.2
28478.2
28481.2
28484.3
28487.5
28490.7
28494
28497.4
28500.9
28504.5
28508.1
28511.9
28515.8
28519.7
28523.8
28528
28532.3
28536.7
28541.3
28545.9
28550.7
28555.7
28560.8
28566
28571.3
28576.9
28582.5
28588.3
28594.3
28600.4
28606.7
28613.2
28619.8
28626.6
28633.5
28640.7
28648
28655.4
28663.1
28670.9
28678.9
28687.1
28695.5
28704
28712.8
28721.7
28730.8
28740.1
28749.5
28759.2
28769
28779
28789.2
28799.6
28810.1
28820.8
28831.7
28842.8
28854
28865.4
28877
28888.7
28900.6
28912.6
28924.8
28937.2
28949.7
28962.3
28975.1
28988
29001
29014.2
29027.4
29040.8
29054.3
29067.9
29081.6
29095.4
29109.3
29123.3
29137.4
29151.5
29165.7
29179.9
29194.2
29208.6
29223
29237.4
29251.8
29266.3
29280.8
29295.3
29309.8
29324.2
29338.7
29353.2
29367.6
29382
29396.3
29410.6
29424.9
29439.1
29453.3
29467.4
29481.4
29495.3
29509.1
29522.8
29536.4
29549.9
29563.3
29576.6
29589.7
29602.6
29615.5
29628.1
29640.6
29653
29665.1
29677.1
29688.9
29700.5
29711.9
29723.1
29734
29744.8
29755.3
29765.6
29775.7
29785.5
29795.1
29804.4
29813.5
29822.3
29830.9
29839.1
29847.1
29854.8
29862.2
29869.4
29876.2
29882.7
29889
29894.9
29900.5
29905.9
29910.9
29915.5
29919.9
29924
29927.7
29931.1
29934.1
29936.9
29939.3
29941.3
29943
29944.4
29945.4
29946.1
29946.5
27223.2
27223.3
27223.6
27223.9
27224.4
27224.9
27225.6
27226.4
27227.4
27228.4
27229.6
27230.8
27232.2
27233.7
27235.3
27237.1
27238.9
27240.9
27242.9
27245.1
27247.4
27249.8
27252.3
27254.9
27257.7
27260.5
27263.5
27266.5
27269.6
27272.9
27276.2
27279.7
27283.2
27286.9
27290.6
27294.5
27298.4
27302.4
27306.5
27310.7
27315
27319.3
27323.8
27328.3
27332.9
27337.6
27342.4
27347.2
27352.1
27357.1
27362.1
27367.2
27372.4
27377.6
27382.9
27388.3
27393.7
27399.2
27404.7
27410.3
27415.9
27421.6
27427.3
27433.1
27438.9
27444.7
27450.6
27456.5
27462.5
27468.5
27474.5
27480.6
27486.6
27492.8
27498.9
27505.1
27511.3
27517.5
27523.7
27529.9
27536.2
27542.4
27548.7
27555
27561.3
27567.6
27573.9
27580.2
27586.5
27592.9
27599.2
27605.5
27611.8
27618
27624.3
27630.6
27636.8
27643.1
27649.3
27655.5
27661.7
27667.8
27673.9
27680
27686.1
27692.1
27698.2
27704.1
27710.1
27716
27721.8
27727.7
27733.5
27739.2
27744.9
27750.5
27756.1
27761.7
27767.2
27772.6
27778
27783.3
27788.6
27793.8
27799
27804.1
27809.1
27814
27819
27823.8
27828.6
27833.3
27837.9
27842.5
27847
27851.4
27855.8
27860.1
27864.3
27868.4
27872.5
27876.5
27880.5
27884.4
27888.2
27891.9
27895.6
27899.2
27902.8
27906.2
27909.7
27913
27916.3
27919.5
27922.7
27925.8
27928.9
27931.9
27934.9
27937.8
27940.7
27943.5
27946.3
27949
27951.7
27954.4
27957.1
27959.7
27962.3
27964.8
27967.4
27969.9
27972.4
27974.9
27977.4
27979.9
27982.4
27984.9
27987.4
27989.9
27992.5
27995
27997.6
28000.2
28002.8
28005.5
28008.2
28011
28013.8
28016.6
28019.6
28022.5
28025.6
28028.7
28031.9
28035.1
28038.4
28041.9
28045.4
28049
28052.7
28056.5
28060.4
28064.4
28068.6
28072.8
28077.2
28081.7
28086.3
28091.1
28096
28101
28106.2
28111.5
28117
28122.6
28128.4
28134.3
28140.4
28146.7
28153.1
28159.7
28166.5
28173.4
28180.5
28187.8
28195.3
28202.9
28210.7
28218.7
28226.9
28235.3
28243.8
28252.5
28261.5
28270.6
28279.8
28289.3
28299
28308.8
28318.8
28329
28339.4
28350
28360.7
28371.6
28382.7
28394
28405.4
28417
28428.8
28440.7
28452.8
28465.1
28477.5
28490
28502.7
28515.5
28528.5
28541.5
28554.8
28568.1
28581.6
28595.1
28608.8
28622.6
28636.4
28650.4
28664.5
28678.6
28692.8
28707
28721.4
28735.7
28750.2
28764.6
28779.1
28793.7
28808.2
28822.8
28837.4
28851.9
28866.5
28881.1
28895.6
28910.1
28924.6
28939.1
28953.5
28967.8
28982.1
28996.4
29010.5
29024.6
29038.6
29052.5
29066.3
29080
29093.6
29107.1
29120.4
29133.6
29146.7
29159.6
29172.3
29184.9
29197.3
29209.6
29221.6
29233.5
29245.2
29256.6
29267.9
29278.9
29289.8
29300.4
29310.7
29320.9
29330.8
29340.4
29349.8
29358.9
29367.8
29376.4
29384.7
29392.8
29400.5
29408
29415.2
29422.1
29428.6
29434.9
29440.9
29446.5
29451.9
29456.9
29461.6
29466
29470.1
29473.8
29477.2
29480.3
29483
29485.4
29487.5
29489.2
29490.6
29491.6
29492.3
29492.6
26763.4
26763.5
26763.8
26764.1
26764.6
26765.1
26765.8
26766.6
26767.6
26768.6
26769.8
26771
26772.4
26774
26775.6
26777.3
26779.2
26781.1
26783.2
26785.4
26787.7
26790.1
26792.7
26795.3
26798
26800.9
26803.9
26806.9
26810.1
26813.4
26816.7
26820.2
26823.8
26827.4
26831.2
26835.1
26839
26843.1
26847.2
26851.4
26855.7
26860.1
26864.6
26869.2
26873.8
26878.5
26883.3
26888.2
26893.1
26898.1
26903.2
26908.3
26913.5
26918.8
26924.1
26929.5
26934.9
26940.4
26946
26951.6
26957.3
26963
26968.7
26974.5
26980.3
26986.2
26992.1
26998.1
27004.1
27010.1
27016.2
27022.3
27028.4
27034.5
27040.7
27046.9
27053.1
27059.3
27065.6
27071.9
27078.1
27084.4
27090.8
27097.1
27103.4
27109.7
27116.1
27122.4
27128.8
27135.1
27141.4
27147.8
27154.1
27160.4
27166.7
27173
27179.3
27185.5
27191.8
27198
27204.2
27210.4
27216.6
27222.7
27228.8
27234.9
27240.9
27246.9
27252.9
27258.8
27264.7
27270.5
27276.3
27282.1
27287.8
27293.5
27299.1
27304.7
27310.2
27315.7
27321.1
27326.4
27331.7
27336.9
27342.1
27347.2
27352.3
27357.2
27362.2
27367
27371.8
27376.5
27381.1
27385.7
27390.2
27394.7
27399
27403.3
27407.5
27411.7
27415.8
27419.8
27423.7
27427.6
27431.4
27435.1
27438.8
27442.4
27445.9
27449.4
27452.8
27456.1
27459.4
27462.6
27465.8
27468.9
27471.9
27474.9
27477.8
27480.7
27483.5
27486.3
27489.1
27491.8
27494.5
27497.1
27499.7
27502.2
27504.8
27507.3
27509.8
27512.3
27514.7
27517.2
27519.6
27522.1
27524.5
27526.9
27529.4
27531.9
27534.3
27536.8
27539.3
27541.9
27544.4
27547.1
27549.7
27552.4
27555.1
27557.9
27560.8
27563.7
27566.6
27569.7
27572.8
27576
27579.2
27582.6
27586
27589.6
27593.2
27597
27600.8
27604.8
27608.9
27613
27617.4
27621.8
27626.4
27631.1
27635.9
27640.9
27646
27651.3
27656.7
27662.3
27668
27673.9
27680
27686.2
27692.6
27699.2
27705.9
27712.8
27719.9
27727.1
27734.6
27742.2
27750
27758
27766.2
27774.5
27783.1
27791.8
27800.7
27809.8
27819.1
27828.6
27838.3
27848.1
27858.2
27868.4
27878.8
27889.4
27900.2
27911.1
27922.2
27933.5
27945
27956.7
27968.5
27980.5
27992.6
28004.9
28017.3
28029.9
28042.7
28055.6
28068.6
28081.8
28095.1
28108.5
28122
28135.6
28149.4
28163.3
28177.2
28191.3
28205.4
28219.6
28233.9
28248.2
28262.7
28277.1
28291.7
28306.2
28320.8
28335.5
28350.1
28364.8
28379.4
28394.1
28408.8
28423.5
28438.1
28452.7
28467.3
28481.9
28496.4
28510.9
28525.3
28539.6
28553.9
28568.1
28582.2
28596.2
28610.1
28623.9
28637.6
28651.2
28664.6
28677.9
28691.1
28704.1
28716.9
28729.6
28742.1
28754.4
28766.6
28778.6
28790.3
28801.9
28813.2
28824.4
28835.3
28846
28856.4
28866.7
28876.6
28886.3
28895.8
28905
28914
28922.6
28931
28939.1
28946.9
28954.5
28961.7
28968.6
28975.3
28981.6
28987.6
28993.3
28998.7
29003.8
29008.5
29012.9
29017
29020.8
29024.2
29027.3
29030
29032.4
29034.5
29036.2
29037.6
29038.6
29039.3
29039.7
26303.2
26303.4
26303.6
26303.9
26304.4
26305
26305.7
26306.5
26307.4
26308.5
26309.6
26310.9
26312.3
26313.8
26315.5
26317.2
26319.1
26321.1
26323.2
26325.4
26327.7
26330.1
26332.7
26335.3
26338.1
26341
26344
26347
26350.2
26353.5
26356.9
26360.4
26364
26367.7
26371.5
26375.4
26379.4
26383.5
26387.6
26391.9
26396.2
26400.7
26405.2
26409.8
26414.4
26419.2
26424
26428.9
26433.9
26438.9
26444
26449.2
26454.4
26459.7
26465.1
26470.5
26476
26481.6
26487.1
26492.8
26498.5
26504.2
26510
26515.8
26521.7
26527.6
26533.6
26539.6
26545.6
26551.6
26557.7
26563.9
26570
26576.2
26582.4
26588.6
26594.9
26601.1
26607.4
26613.7
26620.1
26626.4
26632.7
26639.1
26645.5
26651.8
26658.2
26664.6
26671
26677.3
26683.7
26690.1
26696.4
26702.8
26709.1
26715.5
26721.8
26728.1
26734.3
26740.6
26746.8
26753.1
26759.2
26765.4
26771.5
26777.6
26783.7
26789.7
26795.7
26801.7
26807.6
26813.5
26819.3
26825.1
26830.9
26836.6
26842.2
26847.8
26853.4
26858.8
26864.3
26869.7
26875
26880.2
26885.4
26890.5
26895.6
26900.6
26905.5
26910.4
26915.2
26919.9
26924.6
26929.1
26933.7
26938.1
26942.5
26946.8
26951
26955.1
26959.2
26963.2
26967.2
26971
26974.8
26978.5
26982.2
26985.8
26989.3
26992.7
26996.1
26999.4
27002.7
27005.9
27009
27012
27015
27018
27020.9
27023.7
27026.5
27029.3
27032
27034.6
27037.2
27039.8
27042.4
27044.9
27047.4
27049.8
27052.3
27054.7
27057.1
27059.5
27061.8
27064.2
27066.6
27069
27071.3
27073.7
27076.1
27078.5
27081
27083.4
27085.9
27088.5
27091
27093.6
27096.3
27099
27101.8
27104.6
27107.5
27110.5
27113.5
27116.6
27119.8
27123.1
27126.4
27129.9
27133.5
27137.1
27140.9
27144.8
27148.8
27152.9
27157.2
27161.5
27166
27170.7
27175.5
27180.4
27185.4
27190.7
27196
27201.6
27207.2
27213.1
27219.1
27225.3
27231.6
27238.1
27244.8
27251.7
27258.8
27266
27273.4
27281
27288.8
27296.7
27304.9
27313.3
27321.8
27330.5
27339.4
27348.6
27357.9
27367.3
27377
27386.9
27397
27407.2
27417.7
27428.3
27439.1
27450.1
27461.3
27472.6
27484.1
27495.8
27507.7
27519.7
27531.9
27544.3
27556.8
27569.5
27582.3
27595.3
27608.4
27621.6
27635
27648.5
27662.1
27675.9
27689.7
27703.7
27717.7
27731.9
27746.1
27760.4
27774.8
27789.3
27803.8
27818.4
27833
27847.7
27862.4
27877.2
27891.9
27906.7
27921.5
27936.3
27951.1
27965.9
27980.7
27995.4
28010.1
28024.8
28039.5
28054.1
28068.6
28083.1
28097.4
28111.8
28126
28140.1
28154.2
28168.1
28181.9
28195.6
28209.1
28222.5
28235.8
28248.9
28261.9
28274.7
28287.3
28299.8
28312
28324.1
28336
28347.6
28359.1
28370.3
28381.4
28392.1
28402.7
28413
28423.1
28432.9
28442.4
28451.7
28460.7
28469.5
28478
28486.2
28494
28501.6
28509
28516
28522.7
28529
28535.1
28540.9
28546.3
28551.4
28556.2
28560.6
28564.8
28568.5
28572
28575.1
28577.9
28580.3
28582.4
28584.1
28585.5
28586.5
28587.2
28587.6
25842.7
25842.8
25843.1
25843.4
25843.9
25844.5
25845.2
25846
25846.9
25848
25849.2
25850.5
25851.9
25853.4
25855
25856.8
25858.7
25860.7
25862.8
25865
25867.4
25869.8
25872.4
25875.1
25877.8
25880.7
25883.7
25886.9
25890.1
25893.4
25896.8
25900.4
25904
25907.7
25911.6
25915.5
25919.5
25923.6
25927.8
25932.1
25936.5
25941
25945.5
25950.1
25954.9
25959.6
25964.5
25969.4
25974.5
25979.5
25984.7
25989.9
25995.2
26000.5
26005.9
26011.4
26016.9
26022.5
26028.1
26033.8
26039.6
26045.3
26051.2
26057
26062.9
26068.9
26074.9
26080.9
26087
26093.1
26099.2
26105.4
26111.6
26117.8
26124
26130.3
26136.6
26142.9
26149.2
26155.6
26162
26168.3
26174.7
26181.1
26187.5
26193.9
26200.3
26206.8
26213.2
26219.6
26226
26232.4
26238.8
26245.2
26251.6
26257.9
26264.3
26270.6
26276.9
26283.2
26289.5
26295.8
26302
26308.2
26314.4
26320.5
26326.6
26332.7
26338.7
26344.7
26350.7
26356.6
26362.5
26368.3
26374.1
26379.8
26385.5
26391.1
26396.7
26402.2
26407.6
26413
26418.4
26423.7
26428.9
26434
26439.1
26444.1
26449.1
26454
26458.8
26463.5
26468.2
26472.8
26477.3
26481.7
26486.1
26490.4
26494.6
26498.8
26502.9
26506.9
26510.8
26514.6
26518.4
26522.1
26525.8
26529.3
26532.8
26536.2
26539.6
26542.9
26546.1
26549.3
26552.3
26555.4
26558.3
26561.2
26564.1
26566.9
26569.6
26572.3
26575
26577.6
26580.2
26582.7
26585.2
26587.6
26590
26592.4
26594.8
26597.1
26599.5
26601.8
26604.1
26606.4
26608.7
26611
26613.2
26615.6
26617.9
26620.2
26622.6
26624.9
26627.3
26629.8
26632.3
26634.8
26637.3
26640
26642.6
26645.4
26648.2
26651
26654
26657
26660.1
26663.3
26666.6
26669.9
26673.4
26677
26680.7
26684.5
26688.4
26692.4
26696.6
26700.9
26705.3
26709.9
26714.6
26719.5
26724.5
26729.6
26734.9
26740.4
26746
26751.8
26757.7
26763.9
26770.2
26776.6
26783.3
26790.1
26797.1
26804.3
26811.7
26819.3
26827
26835
26843.1
26851.5
26860
26868.7
26877.7
26886.8
26896.1
26905.6
26915.3
26925.2
26935.3
26945.6
26956
26966.7
26977.5
26988.6
26999.8
27011.2
27022.8
27034.5
27046.5
27058.6
27070.9
27083.3
27095.9
27108.6
27121.5
27134.6
27147.8
27161.1
27174.6
27188.2
27201.9
27215.8
27229.7
27243.8
27258
27272.2
27286.6
27301
27315.5
27330.1
27344.8
27359.5
27374.3
27389.1
27403.9
27418.8
27433.7
27448.6
27463.6
27478.5
27493.4
27508.4
27523.3
27538.2
27553
27567.9
27582.6
27597.4
27612
27626.6
27641.2
27655.6
27670
27684.3
27698.4
27712.5
27726.4
27740.3
27754
27767.5
27780.9
27794.2
27807.3
27820.2
27832.9
27845.5
27857.9
27870.1
27882.1
27893.9
27905.5
27916.8
27928
27938.9
27949.5
27960
27970.1
27980
27989.7
27999.1
28008.2
28017
28025.6
28033.9
28041.9
28049.5
28056.9
28064
28070.8
28077.2
28083.4
28089.2
28094.7
28099.8
28104.7
28109.2
28113.3
28117.1
28120.6
28123.7
28126.5
28129
28131.1
28132.8
28134.2
28135.3
28136
28136.3
25381.9
25382
25382.2
25382.6
25383
25383.6
25384.3
25385.1
25386.1
25387.2
25388.3
25389.6
25391.1
25392.6
25394.3
25396
25397.9
25399.9
25402.1
25404.3
25406.7
25409.2
25411.7
25414.5
25417.3
25420.2
25423.2
25426.4
25429.6
25433
25436.5
25440
25443.7
25447.5
25451.3
25455.3
25459.4
25463.5
25467.8
25472.1
25476.5
25481
25485.6
25490.3
25495
25499.9
25504.8
25509.8
25514.8
25520
25525.2
25530.4
25535.8
25541.1
25546.6
25552.1
25557.7
25563.3
25569
25574.7
25580.5
25586.3
25592.2
25598.1
25604.1
25610.1
25616.1
25622.2
25628.3
25634.4
25640.6
25646.8
25653.1
25659.3
25665.6
25671.9
25678.3
25684.6
25691
25697.4
25703.8
25710.2
25716.6
25723.1
25729.5
25736
25742.5
25748.9
25755.4
25761.8
25768.3
25774.7
25781.2
25787.6
25794.1
25800.5
25806.9
25813.2
25819.6
25825.9
25832.3
25838.6
25844.8
25851.1
25857.3
25863.5
25869.6
25875.7
25881.8
25887.8
25893.8
25899.8
25905.7
25911.6
25917.4
25923.2
25928.9
25934.5
25940.1
25945.7
25951.2
25956.6
25962
25967.3
25972.5
25977.7
25982.8
25987.8
25992.8
25997.7
26002.5
26007.3
26012
26016.6
26021.1
26025.6
26029.9
26034.2
26038.5
26042.6
26046.7
26050.7
26054.6
26058.5
26062.2
26065.9
26069.5
26073.1
26076.5
26079.9
26083.3
26086.5
26089.7
26092.8
26095.9
26098.9
26101.8
26104.6
26107.4
26110.2
26112.9
26115.5
26118.1
26120.7
26123.2
26125.6
26128
26130.4
26132.8
26135.1
26137.4
26139.6
26141.9
26144.1
26146.3
26148.5
26150.7
26152.9
26155.1
26157.3
26159.6
26161.8
26164.1
26166.3
26168.6
26171
26173.4
26175.8
26178.2
26180.8
26183.3
26186
26188.7
26191.4
26194.3
26197.2
26200.2
26203.2
26206.4
26209.7
26213.1
26216.6
26220.1
26223.9
26227.7
26231.6
26235.7
26239.9
26244.2
26248.7
26253.3
26258.1
26263
26268.1
26273.3
26278.7
26284.3
26290
26295.9
26302
26308.2
26314.6
26321.2
26328
26335
26342.2
26349.5
26357.1
26364.8
26372.7
26380.9
26389.2
26397.7
26406.4
26415.3
26424.5
26433.8
26443.3
26453
26462.9
26473.1
26483.4
26493.9
26504.6
26515.5
26526.6
26537.8
26549.3
26560.9
26572.8
26584.8
26597
26609.3
26621.8
26634.5
26647.4
26660.4
26673.5
26686.8
26700.3
26713.9
26727.6
26741.4
26755.4
26769.5
26783.7
26798
26812.4
26826.8
26841.4
26856.1
26870.8
26885.6
26900.5
26915.4
26930.3
26945.3
26960.4
26975.4
26990.5
27005.6
27020.7
27035.8
27050.9
27065.9
27081
27096
27111
27125.9
27140.8
27155.6
27170.4
27185.1
27199.7
27214.2
27228.7
27243
27257.2
27271.3
27285.3
27299.1
27312.8
27326.4
27339.8
27353
27366.1
27379
27391.7
27404.3
27416.6
27428.7
27440.7
27452.4
27463.9
27475.1
27486.2
27497
27507.5
27517.8
27527.8
27537.6
27547.1
27556.3
27565.3
27573.9
27582.3
27590.4
27598.2
27605.6
27612.8
27619.6
27626.2
27632.4
27638.3
27643.8
27649.1
27653.9
27658.5
27662.7
27666.6
27670.1
27673.3
27676.1
27678.6
27680.7
27682.4
27683.9
27684.9
27685.6
27686
24920.6
24920.8
24921
24921.4
24921.8
24922.4
24923.1
24924
24924.9
24926
24927.2
24928.5
24929.9
24931.5
24933.1
24934.9
24936.8
24938.9
24941
24943.3
24945.7
24948.2
24950.8
24953.5
24956.4
24959.3
24962.4
24965.6
24968.9
24972.3
24975.8
24979.4
24983.1
24986.9
24990.8
24994.8
24998.9
25003.1
25007.4
25011.8
25016.3
25020.8
25025.5
25030.2
25035
25039.9
25044.9
25049.9
25055
25060.2
25065.4
25070.8
25076.1
25081.6
25087.1
25092.6
25098.3
25103.9
25109.7
25115.5
25121.3
25127.2
25133.1
25139.1
25145.1
25151.1
25157.2
25163.3
25169.5
25175.7
25181.9
25188.2
25194.5
25200.8
25207.1
25213.5
25219.9
25226.3
25232.7
25239.1
25245.6
25252.1
25258.6
25265
25271.5
25278.1
25284.6
25291.1
25297.6
25304.1
25310.6
25317.1
25323.6
25330.1
25336.6
25343
25349.5
25355.9
25362.3
25368.7
25375.1
25381.4
25387.7
25394
25400.3
25406.5
25412.7
25418.9
25425
25431.1
25437.1
25443.1
25449.1
25455
25460.8
25466.6
25472.4
25478.1
25483.7
25489.3
25494.8
25500.3
25505.7
25511
25516.3
25521.5
25526.7
25531.7
25536.7
25541.6
25546.5
25551.3
25556
25560.6
25565.1
25569.6
25574
25578.3
25582.5
25586.7
25590.7
25594.7
25598.6
25602.5
25606.2
25609.9
25613.5
25617
25620.4
25623.8
25627.1
25630.3
25633.5
25636.6
25639.6
25642.5
25645.4
25648.2
25650.9
25653.6
25656.3
25658.8
25661.4
25663.8
25666.3
25668.7
25671
25673.3
25675.6
25677.8
25680
25682.2
25684.3
25686.5
25688.6
25690.7
25692.8
25694.9
25697
25699.1
25701.2
25703.3
25705.5
25707.7
25709.9
25712.1
25714.3
25716.6
25719
25721.4
25723.8
25726.4
25728.9
25731.6
25734.3
25737.1
25740
25743
25746
25749.2
25752.4
25755.8
25759.3
25762.9
25766.6
25770.5
25774.4
25778.5
25782.8
25787.2
25791.7
25796.4
25801.2
25806.2
25811.3
25816.6
25822.1
25827.8
25833.6
25839.6
25845.8
25852.1
25858.7
25865.4
25872.4
25879.5
25886.8
25894.3
25902
25909.9
25918
25926.3
25934.8
25943.6
25952.5
25961.6
25970.9
25980.5
25990.2
26000.2
26010.3