/*--------------------------------*- C++ -*----------------------------------*\
| =========                 |                                                 |
| \\      /  F ield         | OpenFOAM: The Open Source CFD Toolbox           |
|  \\    /   O peration     | Version:  v2006                                 |
|   \\  /    A nd           | Website:  www.openfoam.com                      |
|    \\/     M anipulation  |                                                 |
\*---------------------------------------------------------------------------*/
FoamFile
{
    version     2.0;
    format      ascii;
    class       surfaceScalarField;
    location    "4.4";
    object      phi;
}
// * * * * * * * * * * * * * * * * * * * * * * * * * * * * * * * * * * * * * //

dimensions      [0 3 -1 0 0 0 0];
oriented        oriented;


internalField   nonuniform List<scalar> 
104500
(
-3.11639e-05
3.11639e-05
-4.82322e-05
1.70683e-05
-6.89883e-05
2.07561e-05
-9.22071e-05
2.32188e-05
-0.000115761
2.35541e-05
-0.000139136
2.33749e-05
-0.00016236
2.32235e-05
-0.000185475
2.31156e-05
-0.000208483
2.30079e-05
-0.000231367
2.28835e-05
-0.000254109
2.27418e-05
-0.000276693
2.25843e-05
-0.000299104
2.24113e-05
-0.000321327
2.22227e-05
-0.000343345
2.20183e-05
-0.000365143
2.17981e-05
-0.000386705
2.15619e-05
-0.000408015
2.13095e-05
-0.000429055
2.10408e-05
-0.000449811
2.07559e-05
-0.000470266
2.04545e-05
-0.000490401
2.01355e-05
-0.000510201
1.97994e-05
-0.000529648
1.94476e-05
-0.000548728
1.90794e-05
-0.000567421
1.86933e-05
-0.000585711
1.829e-05
-0.000603583
1.78716e-05
-0.000621025
1.74419e-05
-0.00063803
1.70057e-05
-0.000654572
1.65415e-05
-0.000670626
1.60539e-05
-0.000686173
1.55479e-05
-0.000701199
1.50259e-05
-0.000715689
1.44895e-05
-0.000729627
1.3938e-05
-0.000742998
1.33706e-05
-0.000755785
1.27878e-05
-0.000767975
1.21897e-05
-0.000779552
1.15769e-05
-0.000790502
1.09503e-05
-0.000800812
1.03101e-05
-0.000810469
9.65643e-06
-0.000819458
8.98942e-06
-0.000827767
8.30913e-06
-0.000835383
7.61569e-06
-0.000842293
6.90986e-06
-0.000848485
6.19246e-06
-0.000853948
5.46302e-06
-0.000858668
4.71921e-06
-0.000862626
3.95866e-06
-0.000865804
3.1777e-06
-0.000868174
2.36957e-06
-0.000869694
1.52028e-06
-0.00087028
5.86027e-07
-0.000869816
-4.63696e-07
-0.000868206
-1.61018e-06
-0.000865393
-2.81301e-06
-0.000861422
-3.97105e-06
-0.000856406
-5.0163e-06
-0.000850462
-5.94393e-06
-0.000843669
-6.79265e-06
-0.000836073
-7.59578e-06
-0.000827706
-8.36722e-06
-0.000818592
-9.1144e-06
-0.000808749
-9.84268e-06
-0.000798194
-1.05555e-05
-0.000786939
-1.12546e-05
-0.000774998
-1.19406e-05
-0.000762385
-1.26134e-05
-0.000749111
-1.32735e-05
-0.00073519
-1.39213e-05
-0.000720634
-1.45558e-05
-0.000705458
-1.51762e-05
-0.000689676
-1.57823e-05
-0.000673302
-1.63743e-05
-0.00065635
-1.69514e-05
-0.000638837
-1.7513e-05
-0.000620779
-1.80585e-05
-0.000602192
-1.85869e-05
-0.000583094
-1.90976e-05
-0.000563504
-1.95899e-05
-0.000543443
-2.00613e-05
-0.000522939
-2.05039e-05
-0.000502036
-2.09026e-05
-0.0004808
-2.12367e-05
-0.000459309
-2.14909e-05
-0.000437641
-2.16678e-05
-0.000415851
-2.17899e-05
-0.000393961
-2.18897e-05
-0.000371967
-2.19938e-05
-0.000349853
-2.2114e-05
-0.000327603
-2.22508e-05
-0.000305202
-2.24007e-05
-0.000282643
-2.25589e-05
-0.000259921
-2.27223e-05
-0.000237035
-2.28861e-05
-0.000213985
-2.30501e-05
-0.000190778
-2.3207e-05
-0.000167422
-2.33559e-05
-0.000143929
-2.34927e-05
-0.000120315
-2.36136e-05
-9.65979e-05
-2.37174e-05
-7.27904e-05
-2.38074e-05
-4.89099e-05
-2.38805e-05
-2.49741e-05
-2.39358e-05
-1.00023e-06
-2.39739e-05
2.29988e-05
-2.3999e-05
4.70064e-05
-2.40076e-05
7.10117e-05
-2.40053e-05
9.49757e-05
-2.3964e-05
0.000118897
-2.39212e-05
0.000142752
-2.3855e-05
0.000166525
-2.37731e-05
0.0001902
-2.36751e-05
0.000213749
-2.35487e-05
0.000237166
-2.34168e-05
0.000260422
-2.32563e-05
0.000283497
-2.30754e-05
0.00030638
-2.28825e-05
0.000329055
-2.26753e-05
0.000351502
-2.24472e-05
0.000373696
-2.21942e-05
0.000395625
-2.1929e-05
0.000417276
-2.16507e-05
0.000438628
-2.13516e-05
0.000459665
-2.10369e-05
0.000480372
-2.07079e-05
0.000500737
-2.03641e-05
0.000520743
-2.0006e-05
0.000540376
-1.96338e-05
0.000559624
-1.92479e-05
0.000578473
-1.88485e-05
0.000596908
-1.84356e-05
0.000614918
-1.80096e-05
0.000632488
-1.75704e-05
0.000649607
-1.71181e-05
0.000666259
-1.66529e-05
0.000682434
-1.61747e-05
0.000698118
-1.56836e-05
0.000713298
-1.51799e-05
0.000727961
-1.46637e-05
0.000742097
-1.41355e-05
0.000755692
-1.35957e-05
0.000768737
-1.30448e-05
0.00078122
-1.24831e-05
0.000793132
-1.19113e-05
0.000804461
-1.13295e-05
0.000815199
-1.07382e-05
0.000825337
-1.01378e-05
0.000834866
-9.52848e-06
0.000843776
-8.9106e-06
0.00085206
-8.28435e-06
0.00085971
-7.64996e-06
0.000866718
-7.0077e-06
0.000873076
-6.35795e-06
0.000878777
-5.70121e-06
0.000883815
-5.03801e-06
0.000888184
-4.36893e-06
0.000891879
-3.69449e-06
0.000894894
-3.01509e-06
0.000897225
-2.33094e-06
0.000898867
-1.64199e-06
0.000899814
-9.47724e-07
0.000900062
-2.47964e-07
0.000899616
4.46606e-07
0.000898454
1.16217e-06
0.000896577
1.87636e-06
0.000893982
2.59572e-06
0.000890664
3.31777e-06
0.00088662
4.04358e-06
0.000881848
4.77178e-06
0.000876344
5.50425e-06
0.000870106
6.23833e-06
0.00086313
6.97583e-06
0.000855416
7.71418e-06
0.000846962
8.45398e-06
0.000837766
9.1955e-06
0.000827829
9.93768e-06
0.000817148
1.06805e-05
0.000805725
1.14237e-05
0.000793558
1.21668e-05
0.000780648
1.291e-05
0.000766995
1.36531e-05
0.000752599
1.43959e-05
0.000737461
1.51377e-05
0.000721583
1.58781e-05
0.000704966
1.66167e-05
0.000687613
1.7353e-05
0.000669527
1.80864e-05
0.000650711
1.88163e-05
0.000631169
1.95419e-05
0.000610906
2.02623e-05
0.00058993
2.09764e-05
0.000568247
2.16832e-05
0.000545866
2.23811e-05
0.000522797
2.30684e-05
0.000499055
2.37423e-05
0.000474656
2.43985e-05
0.000449625
2.5031e-05
0.000423993
2.56323e-05
0.000397799
2.61937e-05
0.000371094
2.67056e-05
0.000343937
2.71565e-05
0.000316408
2.75296e-05
0.000288609
2.77983e-05
0.000260685
2.79241e-05
0.000232822
2.78634e-05
0.000205236
2.75858e-05
0.000178137
2.70994e-05
0.000151667
2.64694e-05
0.000125858
2.58095e-05
0.000100606
2.52517e-05
7.56963e-05
2.49097e-05
5.08511e-05
2.48452e-05
2.58046e-05
2.50465e-05
3.69e-07
2.54356e-05
-2.55331e-05
2.59021e-05
-5.18766e-05
2.63435e-05
-7.85796e-05
2.6703e-05
-0.000105523
2.69432e-05
-0.000132607
2.70842e-05
-0.000159758
2.71508e-05
-0.00018692
2.71628e-05
-0.000214047
2.71269e-05
-0.000241099
2.70518e-05
-0.00026803
2.69309e-05
-0.000294754
2.6724e-05
-0.000321254
2.64998e-05
-0.000347433
2.61793e-05
-0.000373275
2.58416e-05
-0.000398736
2.54617e-05
-0.000423747
2.50101e-05
-0.000448295
2.4548e-05
-0.000472347
2.4052e-05
-0.00049587
2.35233e-05
-0.000518837
2.2967e-05
-0.000541221
2.23838e-05
-0.000562995
2.17744e-05
-0.000584169
2.11739e-05
-0.000604691
2.05219e-05
-0.000624561
1.98704e-05
-0.000643757
1.9196e-05
-0.000662266
1.85087e-05
-0.000680078
1.78117e-05
-0.000697186
1.71085e-05
-0.000713586
1.63992e-05
-0.000729267
1.5682e-05
-0.00074423
1.49629e-05
-0.00075847
1.42401e-05
-0.000771991
1.35206e-05
-0.000784797
1.2806e-05
-0.000796892
1.20952e-05
-0.000808283
1.13907e-05
-0.000818977
1.06943e-05
-0.000828988
1.0011e-05
-0.000838328
9.33996e-06
-0.000847015
8.68719e-06
-0.000855067
8.05111e-06
-0.000862503
7.43605e-06
-0.000869348
6.84546e-06
-0.000875629
6.28115e-06
-0.000881368
5.73884e-06
-0.000886604
5.23549e-06
-0.000891369
4.7653e-06
-0.0008957
4.33116e-06
-0.000899641
3.94055e-06
-0.000903247
3.60595e-06
-0.000906559
3.31275e-06
-0.000909639
3.07993e-06
-0.000912556
2.9172e-06
-0.000915381
2.82454e-06
-0.000918197
2.81656e-06
-0.000921103
2.90554e-06
-0.000924219
3.11633e-06
-0.000927647
3.42758e-06
-0.000931505
3.85772e-06
-0.000935923
4.41874e-06
-0.000941049
5.12575e-06
-0.000947022
5.97321e-06
-0.000953973
6.95023e-06
-0.000962002
8.02958e-06
-0.000971185
9.18244e-06
-0.000981568
1.03836e-05
-0.000993177
1.16091e-05
-0.00100601
1.28374e-05
-0.00102006
1.40438e-05
-0.00103524
1.51812e-05
-0.00105141
1.61658e-05
-0.0010683
1.68899e-05
-0.00108554
1.72412e-05
-0.00110268
1.71474e-05
-0.00111931
1.66214e-05
-0.00113505
1.57452e-05
-0.00114969
1.46348e-05
-0.00116304
1.33584e-05
-0.00117492
1.18717e-05
-0.001185
1.00889e-05
-0.00119294
7.93757e-06
-0.00119835
5.40952e-06
-0.00120096
2.61309e-06
-0.00120071
-2.55107e-07
-0.00119808
-2.63233e-06
-0.0011936
-4.47366e-06
-0.00118794
-5.6604e-06
-0.0011816
-6.33901e-06
-0.00117483
-6.77667e-06
-0.00116762
-7.21176e-06
-0.00115983
-7.78615e-06
-0.00115129
-8.53515e-06
-0.00114188
-9.41915e-06
-0.00113149
-1.03833e-05
-0.0011201
-1.13879e-05
-0.00110769
-1.24158e-05
-0.00109423
-1.3461e-05
-0.00107971
-1.45198e-05
-0.0010641
-1.56031e-05
-0.0010474
-1.67048e-05
-0.00102958
-1.78224e-05
-0.00101063
-1.89497e-05
-0.000990542
-2.00849e-05
-0.000969319
-2.12236e-05
-0.000946957
-2.23618e-05
-0.000923466
-2.34914e-05
-0.00089885
-2.46151e-05
-0.000873121
-2.57291e-05
-0.000846294
-2.68276e-05
-0.000818384
-2.79094e-05
-0.000789411
-2.89735e-05
-0.000759398
-3.00135e-05
-0.000728368
-3.10292e-05
-0.000696353
-3.20156e-05
-0.000663386
-3.29662e-05
-0.000629502
-3.38849e-05
-0.000594739
-3.47626e-05
-0.00055914
-3.55994e-05
-0.000522748
-3.63913e-05
-0.000485607
-3.71415e-05
-0.000447766
-3.78406e-05
-0.000409271
-3.84949e-05
-0.000370187
-3.90845e-05
-0.000330559
-3.96274e-05
-0.000290443
-4.01167e-05
-0.000249901
-4.05415e-05
-0.000209005
-4.0896e-05
-0.000167867
-4.11382e-05
-0.000126556
-4.13109e-05
-8.35892e-05
-4.29669e-05
-3.7529e-05
-4.60602e-05
-3.7529e-05
-3.86262e-05
6.97901e-05
-6.27503e-05
4.11924e-05
-9.08948e-05
4.89006e-05
-0.000121512
5.38359e-05
-0.000152368
5.44107e-05
-0.000182917
5.39233e-05
-0.000213194
5.35012e-05
-0.000243239
5.31603e-05
-0.000273034
5.28027e-05
-0.000302545
5.23949e-05
-0.00033174
5.19367e-05
-0.000360588
5.14317e-05
-0.000389058
5.08813e-05
-0.000417121
5.0286e-05
-0.000444749
4.96462e-05
-0.000471913
4.89624e-05
-0.000498586
4.82352e-05
-0.000524742
4.74652e-05
-0.000550354
4.6653e-05
-0.000575398
4.57994e-05
-0.000599848
4.49052e-05
-0.000623683
4.39707e-05
-0.000646881
4.29971e-05
-0.000669419
4.19856e-05
-0.000691277
4.09368e-05
-0.000712435
3.98511e-05
-0.000732874
3.87299e-05
-0.000752577
3.75741e-05
-0.00077152
3.63853e-05
-0.000789679
3.51648e-05
-0.000807048
3.39096e-05
-0.000823615
3.26216e-05
-0.000839374
3.13066e-05
-0.000854313
2.99653e-05
-0.000868423
2.85989e-05
-0.000881693
2.72085e-05
-0.000894117
2.57948e-05
-0.000905689
2.43593e-05
-0.000916402
2.29031e-05
-0.000926253
2.14275e-05
-0.000935236
1.99339e-05
-0.000943349
1.84231e-05
-0.000950589
1.68964e-05
-0.000956956
1.53558e-05
-0.000962449
1.38028e-05
-0.000967072
1.22384e-05
-0.000970826
1.06641e-05
-0.000973716
9.08248e-06
-0.000975749
7.49584e-06
-0.000976937
5.9069e-06
-0.000977298
4.31966e-06
-0.000976859
2.73891e-06
-0.00097566
1.1703e-06
-0.000973739
-4.00211e-07
-0.000971104
-2.04975e-06
-0.000967899
-3.66801e-06
-0.00096424
-5.26989e-06
-0.000960193
-6.85977e-06
-0.000955729
-8.43531e-06
-0.000950752
-9.99263e-06
-0.000945166
-1.15305e-05
-0.000938908
-1.30498e-05
-0.000931953
-1.45513e-05
-0.000924285
-1.60348e-05
-0.0009159
-1.75002e-05
-0.000906796
-1.89465e-05
-0.000896979
-2.03718e-05
-0.000886459
-2.17749e-05
-0.000875245
-2.31547e-05
-0.000863348
-2.45098e-05
-0.000850783
-2.58395e-05
-0.000837561
-2.71431e-05
-0.000823697
-2.84192e-05
-0.000809207
-2.96666e-05
-0.000794104
-3.0885e-05
-0.000778404
-3.2074e-05
-0.000762123
-3.32325e-05
-0.000745276
-3.436e-05
-0.000727879
-3.54561e-05
-0.000709945
-3.65204e-05
-0.00069149
-3.75532e-05
-0.000672524
-3.85556e-05
-0.000653059
-3.95262e-05
-0.000633097
-4.04658e-05
-0.000612625
-4.13752e-05
-0.000591608
-4.22532e-05
-0.000570003
-4.30967e-05
-0.00054777
-4.39007e-05
-0.0005249
-4.4659e-05
-0.000501422
-4.53679e-05
-0.000477389
-4.60268e-05
-0.000452865
-4.66379e-05
-0.000427913
-4.72037e-05
-0.000402587
-4.77262e-05
-0.00037694
-4.82058e-05
-0.000351019
-4.86433e-05
-0.000324863
-4.90424e-05
-0.000298514
-4.93991e-05
-0.000272004
-4.97173e-05
-0.000245362
-4.99979e-05
-0.000218616
-5.02388e-05
-0.00019179
-5.04393e-05
-0.000164904
-5.0603e-05
-0.000137983
-5.07286e-05
-0.00011105
-5.08139e-05
-8.4124e-05
-5.08615e-05
-5.72271e-05
-5.08708e-05
-3.03823e-05
-5.08439e-05
-3.61005e-06
-5.07798e-05
2.30475e-05
-5.06628e-05
4.9618e-05
-5.05345e-05
7.60503e-05
-5.03535e-05
0.000102337
-5.01415e-05
0.000128454
-4.98904e-05
0.00015438
-4.96005e-05
0.000180119
-4.9288e-05
0.000205632
-4.89299e-05
0.000230918
-4.85423e-05
0.000255968
-4.81257e-05
0.000280751
-4.76655e-05
0.000305252
-4.71756e-05
0.000329453
-4.66484e-05
0.000353362
-4.61029e-05
0.000376947
-4.55144e-05
0.000400191
-4.48945e-05
0.000423087
-4.42476e-05
0.000445619
-4.35687e-05
0.00046777
-4.28595e-05
0.000489527
-4.2121e-05
0.000510874
-4.13532e-05
0.000531797
-4.05568e-05
0.000552281
-3.97321e-05
0.000572313
-3.88798e-05
0.000591878
-3.80005e-05
0.000610963
-3.70946e-05
0.000629555
-3.61626e-05
0.000647642
-3.5205e-05
0.000665211
-3.42225e-05
0.000682252
-3.32155e-05
0.000698753
-3.21849e-05
0.000714704
-3.1131e-05
0.000730095
-3.00545e-05
0.000744916
-2.8956e-05
0.000759156
-2.78361e-05
0.000772807
-2.66954e-05
0.000785858
-2.55347e-05
0.000798302
-2.43544e-05
0.000810128
-2.31555e-05
0.000821328
-2.19387e-05
0.000831895
-2.07046e-05
0.000841821
-1.94543e-05
0.000851099
-1.81884e-05
0.000859722
-1.69078e-05
0.000867685
-1.56134e-05
0.000874984
-1.43062e-05
0.000881613
-1.2987e-05
0.000887569
-1.16568e-05
0.000892847
-1.03164e-05
0.000897445
-8.96682e-06
0.000901359
-7.60897e-06
0.000904588
-6.24389e-06
0.00090713
-4.87264e-06
0.000908984
-3.49639e-06
0.000910153
-2.11649e-06
0.000910639
-7.33818e-07
0.000910421
6.64759e-07
0.000909533
2.04978e-06
0.000907972
3.43792e-06
0.000905751
4.81619e-06
0.00090287
6.19868e-06
0.000899334
7.57963e-06
0.000895152
8.95348e-06
0.000890331
1.03262e-05
0.000884883
1.16859e-05
0.000878814
1.3045e-05
0.000872138
1.43902e-05
0.000864862
1.57297e-05
0.000857
1.70581e-05
0.00084856
1.83775e-05
0.000839556
1.96843e-05
0.000830003
2.09766e-05
0.000819912
2.22573e-05
0.000809299
2.35235e-05
0.000798177
2.47752e-05
0.000786561
2.60115e-05
0.000774468
2.72313e-05
0.00076191
2.84353e-05
0.000748906
2.9621e-05
0.00073547
3.07887e-05
0.000721619
3.1938e-05
0.000707367
3.30681e-05
0.000692731
3.41782e-05
0.000677725
3.52678e-05
0.000662366
3.63359e-05
0.000646667
3.73818e-05
0.000630644
3.84042e-05
0.000614311
3.94015e-05
0.000597681
4.03723e-05
0.000580765
4.13146e-05
0.00056357
4.22256e-05
0.0005461
4.31025e-05
0.000528352
4.39415e-05
0.000510319
4.47384e-05
0.000491987
4.54887e-05
0.00047333
4.6187e-05
0.000454301
4.68269e-05
0.000434825
4.74002e-05
0.000414791
4.78979e-05
0.000394065
4.83112e-05
0.000372531
4.86338e-05
0.000350128
4.88723e-05
0.000326888
4.90494e-05
0.000302942
4.91979e-05
0.000278497
4.93549e-05
0.000253797
4.95445e-05
0.000229071
4.97726e-05
0.000204478
5.00287e-05
0.00018009
5.02906e-05
0.000155901
5.05328e-05
0.000131869
5.07347e-05
0.00010793
5.08819e-05
8.40422e-05
5.09721e-05
6.01841e-05
5.10089e-05
3.63469e-05
5.1e-05
1.2563e-05
5.09108e-05
-1.11939e-05
5.08086e-05
-3.49092e-05
5.06463e-05
-5.86638e-05
5.04786e-05
-8.23894e-05
5.02254e-05
-0.000106157
4.99468e-05
-0.000129922
4.96063e-05
-0.000153682
4.92222e-05
-0.000177501
4.8829e-05
-0.000201319
4.83658e-05
-0.000225134
4.78667e-05
-0.000248939
4.73292e-05
-0.000272719
4.67466e-05
-0.000296471
4.61353e-05
-0.000320184
4.54879e-05
-0.000343822
4.48115e-05
-0.000367378
4.40784e-05
-0.000390837
4.33296e-05
-0.000414185
4.25439e-05
-0.000437404
4.17271e-05
-0.000460474
4.08818e-05
-0.000483367
4.00019e-05
-0.000506061
3.90926e-05
-0.000528553
3.8174e-05
-0.000550808
3.72184e-05
-0.000572794
3.62256e-05
-0.000594496
3.52228e-05
-0.000615888
3.41981e-05
-0.000636944
3.31518e-05
-0.00065764
3.20864e-05
-0.000677947
3.1001e-05
-0.000697836
2.98997e-05
-0.000717281
2.87849e-05
-0.000736249
2.7656e-05
-0.000754713
2.65147e-05
-0.00077264
2.53627e-05
-0.000789997
2.42028e-05
-0.000806756
2.304e-05
-0.000822872
2.1855e-05
-0.000838318
2.06815e-05
-0.000853053
1.9501e-05
-0.000867044
1.83215e-05
-0.000880251
1.71482e-05
-0.000892623
1.59779e-05
-0.000904124
1.48137e-05
-0.000914709
1.36646e-05
-0.000924325
1.25333e-05
-0.000932923
1.14225e-05
-0.000940448
1.03418e-05
-0.000946841
9.29789e-06
-0.000952023
8.29851e-06
-0.000955947
7.35174e-06
-0.00095856
6.47085e-06
-0.00095981
5.66853e-06
-0.000959637
4.95314e-06
-0.000958003
4.33905e-06
-0.000954883
3.83033e-06
-0.000950285
3.43096e-06
-0.000944241
3.13864e-06
-0.000936822
2.96469e-06
-0.000928103
2.89054e-06
-0.000918159
2.89346e-06
-0.000907075
2.95941e-06
-0.000894978
3.08429e-06
-0.000881959
3.14707e-06
-0.000868157
3.08777e-06
-0.000853761
2.8453e-06
-0.00083897
2.35582e-06
-0.000823934
1.58546e-06
-0.000808726
5.37388e-07
-0.000793336
-7.55805e-07
-0.000777728
-2.24881e-06
-0.0007619
-3.9563e-06
-0.000745948
-5.86347e-06
-0.000730056
-7.95438e-06
-0.000714467
-1.01796e-05
-0.000699397
-1.24569e-05
-0.000684992
-1.466e-05
-0.000670972
-1.66523e-05
-0.000657071
-1.83743e-05
-0.000642937
-1.97944e-05
-0.000628323
-2.09536e-05
-0.000613152
-2.19469e-05
-0.000597473
-2.28912e-05
-0.000581395
-2.38637e-05
-0.00056503
-2.49003e-05
-0.000548458
-2.59919e-05
-0.000531728
-2.71125e-05
-0.000514879
-2.82374e-05
-0.000497944
-2.93502e-05
-0.000480958
-3.04479e-05
-0.000463946
-3.15316e-05
-0.000446938
-3.26108e-05
-0.000429963
-3.36796e-05
-0.000413051
-3.47342e-05
-0.000396226
-3.57746e-05
-0.000379518
-3.67933e-05
-0.000362951
-3.77906e-05
-0.000346548
-3.87651e-05
-0.000330326
-3.97129e-05
-0.000314311
-4.063e-05
-0.000298524
-4.15167e-05
-0.000282979
-4.23724e-05
-0.000267694
-4.31945e-05
-0.000252689
-4.39787e-05
-0.000237973
-4.47292e-05
-0.000223557
-4.54457e-05
-0.000209453
-4.61193e-05
-0.000195662
-4.67568e-05
-0.00018219
-4.73576e-05
-0.000169037
-4.79155e-05
-0.000156199
-4.84372e-05
-0.000143671
-4.89195e-05
-0.000131451
-4.9361e-05
-0.000119521
-4.97712e-05
-0.000107872
-5.01432e-05
-9.64793e-05
-5.04776e-05
-8.53261e-05
-5.07805e-05
-7.43931e-05
-5.10497e-05
-6.36353e-05
-5.12993e-05
-5.30224e-05
-5.15089e-05
-4.26015e-05
-5.15591e-05
-3.24281e-05
-5.14843e-05
-2.17168e-05
-5.36783e-05
-7.24253e-06
-6.05344e-05
-4.47716e-05
-3.61878e-05
0.000105978
-5.78565e-05
6.2861e-05
-8.34351e-05
7.44792e-05
-0.000111556
8.19563e-05
-0.000139969
8.28243e-05
-0.000168101
8.20554e-05
-0.000195986
8.13863e-05
-0.000223663
8.08365e-05
-0.000251124
8.02638e-05
-0.000278341
7.96122e-05
-0.000305285
7.88811e-05
-0.00033193
7.8076e-05
-0.000358248
7.71998e-05
-0.000384216
7.62534e-05
-0.000409807
7.52379e-05
-0.000434999
7.41541e-05
-0.000459767
7.30034e-05
-0.000484089
7.17869e-05
-0.000507942
7.0506e-05
-0.000531305
6.91619e-05
-0.000554156
6.77566e-05
-0.000576478
6.62923e-05
-0.000598248
6.47676e-05
-0.000619449
6.31864e-05
-0.000640062
6.15502e-05
-0.000660072
5.98607e-05
-0.000679461
5.81195e-05
-0.000698216
5.63281e-05
-0.000716319
5.4489e-05
-0.000733758
5.26037e-05
-0.000750521
5.06726e-05
-0.000766597
4.86978e-05
-0.000781974
4.66829e-05
-0.000796639
4.46301e-05
-0.000810582
4.25421e-05
-0.000823794
4.04204e-05
-0.000836266
3.82674e-05
-0.000847991
3.60844e-05
-0.000858961
3.38731e-05
-0.00086917
3.16359e-05
-0.000878611
2.93749e-05
-0.00088728
2.70924e-05
-0.000895174
2.47908e-05
-0.000902291
2.24721e-05
-0.000908626
2.01383e-05
-0.000914179
1.77907e-05
-0.000918946
1.54314e-05
-0.000922926
1.30625e-05
-0.000926115
1.06852e-05
-0.000928508
8.29949e-06
-0.000930092
5.90395e-06
-0.000930848
3.49477e-06
-0.000930741
1.0631e-06
-0.000929816
-1.32494e-06
-0.000928214
-3.65168e-06
-0.000925921
-5.96076e-06
-0.000922949
-8.24233e-06
-0.000919298
-1.05109e-05
-0.000914948
-1.27852e-05
-0.000909865
-1.50759e-05
-0.000904019
-1.7376e-05
-0.000897401
-1.96682e-05
-0.000890015
-2.19372e-05
-0.000881877
-2.41729e-05
-0.000873
-2.63774e-05
-0.000863395
-2.8551e-05
-0.000853074
-3.06927e-05
-0.000842049
-3.28004e-05
-0.00083033
-3.48733e-05
-0.00081793
-3.69095e-05
-0.000804862
-3.8908e-05
-0.000791138
-4.08671e-05
-0.000776772
-4.27849e-05
-0.000761779
-4.46599e-05
-0.000746173
-4.64909e-05
-0.000729971
-4.82764e-05
-0.000713188
-5.00153e-05
-0.000695841
-5.17067e-05
-0.000677948
-5.3349e-05
-0.000659528
-5.49405e-05
-0.000640602
-5.64791e-05
-0.000621194
-5.79637e-05
-0.000601326
-5.93946e-05
-0.000581019
-6.07725e-05
-0.000560296
-6.20977e-05
-0.000539176
-6.33736e-05
-0.000517671
-6.46016e-05
-0.000495795
-6.57764e-05
-0.000473564
-6.6891e-05
-0.000450993
-6.79389e-05
-0.000428103
-6.89168e-05
-0.000404915
-6.98257e-05
-0.000381449
-7.06693e-05
-0.000357726
-7.14491e-05
-0.000333767
-7.21653e-05
-0.00030959
-7.28202e-05
-0.000285216
-7.34161e-05
-0.000260661
-7.39537e-05
-0.000235947
-7.44318e-05
-0.000211093
-7.48514e-05
-0.000186119
-7.52128e-05
-0.000161042
-7.55166e-05
-0.000135882
-7.57627e-05
-0.000110661
-7.59505e-05
-8.53937e-05
-7.60807e-05
-6.01015e-05
-7.61537e-05
-3.48034e-05
-7.61689e-05
-9.52017e-06
-7.61271e-05
1.57241e-05
-7.6024e-05
4.09339e-05
-7.58727e-05
6.60573e-05
-7.56579e-05
9.11067e-05
-7.54029e-05
0.000116045
-7.50796e-05
0.000140858
-7.47039e-05
0.000165532
-7.42741e-05
0.00019004
-7.37961e-05
0.000214371
-7.32608e-05
0.000238506
-7.26778e-05
0.000262425
-7.20444e-05
0.000286118
-7.13583e-05
0.000309565
-7.06228e-05
0.000332752
-6.9836e-05
0.000355658
-6.90083e-05
0.000378268
-6.81243e-05
0.00040057
-6.71966e-05
0.000422548
-6.62253e-05
0.000444185
-6.52063e-05
0.000465467
-6.41416e-05
0.000486379
-6.30324e-05
0.000506905
-6.18795e-05
0.000527032
-6.06834e-05
0.000546745
-5.94451e-05
0.00056603
-5.81652e-05
0.000584874
-5.68444e-05
0.000603263
-5.54837e-05
0.000621184
-5.40837e-05
0.000638625
-5.26455e-05
0.000655572
-5.11698e-05
0.000672014
-4.96574e-05
0.000687938
-4.81093e-05
0.000703334
-4.65262e-05
0.000718188
-4.49091e-05
0.000732491
-4.32589e-05
0.000746231
-4.15766e-05
0.000759399
-3.9863e-05
0.000771983
-3.81192e-05
0.000783975
-3.63463e-05
0.000795365
-3.45453e-05
0.000806144
-3.27175e-05
0.000816303
-3.08639e-05
0.000825835
-2.89858e-05
0.000834731
-2.70845e-05
0.000842985
-2.51613e-05
0.000850589
-2.32176e-05
0.000857537
-2.12547e-05
0.000863824
-1.92741e-05
0.000869445
-1.72772e-05
0.000874394
-1.52654e-05
0.000878667
-1.32401e-05
0.000882261
-1.12028e-05
0.000885172
-9.155e-06
0.000887397
-7.09827e-06
0.000888935
-5.03421e-06
0.000889783
-2.9644e-06
0.000889939
-8.90021e-07
0.000889413
1.19076e-06
0.000888197
3.26584e-06
0.000886295
5.34021e-06
0.000883704
7.40707e-06
0.000880424
9.4784e-06
0.000876473
1.15306e-05
0.000871845
1.35816e-05
0.000866549
1.56227e-05
0.000860583
1.7652e-05
0.000853959
1.96689e-05
0.000846678
2.16709e-05
0.000838751
2.36572e-05
0.000830183
2.56257e-05
0.000820985
2.75758e-05
0.000811164
2.95047e-05
0.000800725
3.14161e-05
0.000789686
3.32956e-05
0.000778055
3.51555e-05
0.000765841
3.69885e-05
0.000753059
3.87939e-05
0.00073972
4.05705e-05
0.000725838
4.23169e-05
0.000711427
4.40323e-05
0.000696499
4.57166e-05
0.000681074
4.7363e-05
0.000665163
4.89786e-05
0.000648786
5.05552e-05
0.00063196
5.20942e-05
0.000614704
5.3592e-05
0.000597035
5.50507e-05
0.000578973
5.64664e-05
0.000560536
5.78383e-05
0.000541745
5.9163e-05
0.000522621
6.04391e-05
0.000503183
6.16637e-05
0.00048345
6.28349e-05
0.000463442
6.39502e-05
0.000443174
6.50061e-05
0.000422665
6.59981e-05
0.000401926
6.69251e-05
0.000380969
6.77847e-05
0.000359787
6.85815e-05
0.000338361
6.93241e-05
0.000316646
7.00261e-05
0.000294578
7.07024e-05
0.000272085
7.1365e-05
0.000249117
7.2017e-05
0.000225665
7.26499e-05
0.000201775
7.32456e-05
0.00017754
7.37794e-05
0.000153084
7.42284e-05
0.000128526
7.4587e-05
0.000103954
7.48624e-05
7.94182e-05
7.50684e-05
5.49343e-05
7.52186e-05
3.04954e-05
7.53207e-05
6.09132e-06
7.53762e-05
-1.82764e-05
7.53766e-05
-4.26019e-05
7.53255e-05
-6.69489e-05
7.52578e-05
-9.12322e-05
7.5092e-05
-0.000115489
7.49027e-05
-0.000139673
7.46634e-05
-0.000163826
7.43782e-05
-0.000187915
7.40355e-05
-0.000211965
7.36561e-05
-0.000235969
7.32262e-05
-0.000259896
7.2756e-05
-0.000283766
7.22359e-05
-0.000307568
7.16692e-05
-0.000331297
7.10576e-05
-0.000354951
7.0401e-05
-0.000378512
6.9696e-05
-0.000401971
6.89469e-05
-0.000425309
6.81499e-05
-0.000448556
6.73247e-05
-0.000471666
6.64397e-05
-0.000494633
6.55113e-05
-0.000517447
6.4541e-05
-0.00054009
6.35254e-05
-0.000562558
6.24691e-05
-0.000584835
6.13702e-05
-0.000606886
6.02253e-05
-0.000628711
5.90426e-05
-0.000650284
5.77993e-05
-0.00067159
5.65289e-05
-0.000692605
5.52122e-05
-0.000713306
5.38532e-05
-0.00073367
5.24502e-05
-0.000753676
5.10072e-05
-0.000773291
4.95151e-05
-0.000792495
4.79883e-05
-0.000811255
4.6416e-05
-0.000829549
4.48087e-05
-0.00084734
4.31541e-05
-0.000864603
4.14658e-05
-0.000881303
3.97395e-05
-0.000897436
3.79881e-05
-0.000912946
3.61913e-05
-0.000927808
3.43638e-05
-0.000941992
3.25052e-05
-0.000955467
3.0623e-05
-0.000968206
2.87167e-05
-0.000980181
2.67888e-05
-0.00099136
2.48443e-05
-0.00100171
2.28861e-05
-0.00101121
2.09144e-05
-0.0010198
1.89409e-05
-0.00102747
1.69654e-05
-0.00103417
1.49954e-05
-0.00103985
1.30323e-05
-0.00104446
1.10861e-05
-0.00104796
9.1633e-06
-0.00105027
7.26762e-06
-0.00105135
5.41425e-06
-0.00105113
3.61399e-06
-0.00104958
1.87437e-06
-0.00104658
1.42329e-07
-0.00104215
-1.46621e-06
-0.00103632
-2.9351e-06
-0.00102906
-4.36694e-06
-0.00102035
-5.75157e-06
-0.00101017
-7.09411e-06
-0.00099861
-8.41594e-06
-0.000985801
-9.72172e-06
-0.000971931
-1.10245e-05
-0.000957228
-1.23469e-05
-0.000941921
-1.37224e-05
-0.000926184
-1.51992e-05
-0.000910151
-1.67889e-05
-0.000893893
-1.8507e-05
-0.000877501
-2.03483e-05
-0.00086108
-2.22842e-05
-0.000844767
-2.4267e-05
-0.000828722
-2.62249e-05
-0.000813089
-2.80901e-05
-0.000797931
-2.98179e-05
-0.000783171
-3.14123e-05
-0.000768612
-3.29337e-05
-0.00075395
-3.4456e-05
-0.000738876
-3.60277e-05
-0.000723192
-3.76306e-05
-0.000706845
-3.92381e-05
-0.000689905
-4.08038e-05
-0.000672494
-4.23118e-05
-0.000654726
-4.37592e-05
-0.000636678
-4.51608e-05
-0.000618396
-4.65194e-05
-0.000599896
-4.785e-05
-0.0005812
-4.91439e-05
-0.00056234
-5.03919e-05
-0.000543351
-5.15999e-05
-0.000524266
-5.27647e-05
-0.000505118
-5.3882e-05
-0.000485943
-5.49499e-05
-0.00046677
-5.5966e-05
-0.000447633
-5.69277e-05
-0.00042856
-5.78378e-05
-0.000409585
-5.86879e-05
-0.000390734
-5.94808e-05
-0.000372036
-6.02145e-05
-0.000353519
-6.08894e-05
-0.000335204
-6.15101e-05
-0.000317113
-6.20694e-05
-0.000299271
-6.25712e-05
-0.000281699
-6.30183e-05
-0.00026441
-6.34077e-05
-0.000247422
-6.37446e-05
-0.00023075
-6.40295e-05
-0.000214394
-6.42723e-05
-0.000198363
-6.44676e-05
-0.00018266
-6.46224e-05
-0.000167282
-6.47392e-05
-0.000152223
-6.48299e-05
-0.000137474
-6.48929e-05
-0.000123018
-6.49327e-05
-0.000108844
-6.49547e-05
-9.49234e-05
-6.49707e-05
-8.12261e-05
-6.49966e-05
-6.77529e-05
-6.49821e-05
-5.46121e-05
-6.46999e-05
-4.16705e-05
-6.44259e-05
-2.74581e-05
-6.78907e-05
-9.02971e-06
-7.89628e-05
-5.38013e-05
-3.55987e-05
0.000141577
-5.66406e-05
8.39029e-05
-8.15276e-05
9.93661e-05
-0.000108981
0.00010941
-0.000136755
0.000110598
-0.000164277
0.000109577
-0.000191569
0.000108678
-0.000218678
0.000107946
-0.000245595
0.000107181
-0.000272294
0.000106311
-0.000298749
0.000105335
-0.000324934
0.000104261
-0.000350826
0.000103092
-0.000376402
0.000101829
-0.000401638
0.000100474
-0.000426512
9.90283e-05
-0.000451002
9.74931e-05
-0.000475086
9.58704e-05
-0.000498741
9.41616e-05
-0.000521948
9.23686e-05
-0.000544685
9.04939e-05
-0.000566934
8.85407e-05
-0.000588674
8.65075e-05
-0.000609886
8.43987e-05
-0.000630552
8.22163e-05
-0.000650654
7.99627e-05
-0.000670175
7.76405e-05
-0.000689098
7.52513e-05
-0.000707407
7.27976e-05
-0.000725085
7.02816e-05
-0.000742118
6.77063e-05
-0.000758495
6.50748e-05
-0.000774203
6.23901e-05
-0.000789225
5.96526e-05
-0.000803549
5.68661e-05
-0.000817163
5.40342e-05
-0.000830055
5.11599e-05
-0.000842217
4.82455e-05
-0.000853637
4.52933e-05
-0.000864307
4.23063e-05
-0.00087422
3.92873e-05
-0.000883366
3.62389e-05
-0.000891738
3.31632e-05
-0.000899329
3.00629e-05
-0.000906132
2.69414e-05
-0.000912143
2.38012e-05
-0.000917356
2.0645e-05
-0.000921769
1.74754e-05
-0.000925379
1.42952e-05
-0.00092819
1.11102e-05
-0.000930215
7.9286e-06
-0.000931481
4.76114e-06
-0.00093204
1.62184e-06
-0.000931838
-1.52703e-06
-0.000930766
-4.72369e-06
-0.000928839
-7.88755e-06
-0.000926053
-1.10281e-05
-0.000922417
-1.41468e-05
-0.000917959
-1.72436e-05
-0.000912717
-2.03177e-05
-0.000906722
-2.33705e-05
-0.00089999
-2.64007e-05
-0.000892521
-2.94057e-05
-0.000884314
-3.23802e-05
-0.000875372
-3.53197e-05
-0.000865703
-3.82203e-05
-0.000855316
-4.10796e-05
-0.000844221
-4.38954e-05
-0.000832429
-4.66648e-05
-0.000819953
-4.93858e-05
-0.000806805
-5.20559e-05
-0.000792999
-5.46733e-05
-0.000778547
-5.72362e-05
-0.000763465
-5.97426e-05
-0.000747765
-6.21904e-05
-0.000731464
-6.45778e-05
-0.000714576
-6.69032e-05
-0.000697118
-6.91643e-05
-0.000679108
-7.13597e-05
-0.000660559
-7.34886e-05
-0.000641487
-7.55512e-05
-0.000621907
-7.75443e-05
-0.000601835
-7.94666e-05
-0.000581291
-8.13162e-05
-0.000560296
-8.30925e-05
-0.000538878
-8.47922e-05
-0.000517066
-8.64131e-05
-0.000494888
-8.79547e-05
-0.000472363
-8.9416e-05
-0.000449507
-9.0795e-05
-0.000426332
-9.20914e-05
-0.000402851
-9.33063e-05
-0.000379082
-9.44393e-05
-0.000355041
-9.54898e-05
-0.000330747
-9.6459e-05
-0.000306219
-9.73479e-05
-0.000281479
-9.81562e-05
-0.00025655
-9.88833e-05
-0.000231451
-9.95309e-05
-0.000206203
-0.000100099
-0.00018083
-0.000100587
-0.00015535
-0.000100996
-0.000129787
-0.000101326
-0.00010416
-0.000101577
-7.84906e-05
-0.000101751
-5.27978e-05
-0.000101846
-2.71016e-05
-0.000101865
-1.42148e-06
-0.000101807
2.42306e-05
-0.000101676
4.98188e-05
-0.000101461
7.53391e-05
-0.000101178
0.000100759
-0.000100823
0.000126072
-0.000100393
0.000151257
-9.98885e-05
0.000176298
-9.93148e-05
0.000201172
-9.86698e-05
0.000225866
-9.79549e-05
0.000250355
-9.71673e-05
0.000274627