/*--------------------------------*- C++ -*----------------------------------*\
| =========                 |                                                 |
| \\      /  F ield         | OpenFOAM: The Open Source CFD Toolbox           |
|  \\    /   O peration     | Version:  v2006                                 |
|   \\  /    A nd           | Website:  www.openfoam.com                      |
|    \\/     M anipulation  |                                                 |
\*---------------------------------------------------------------------------*/
FoamFile
{
    version     2.0;
    format      ascii;
    class       volVectorField;
    location    "1.4";
    object      U;
}
// * * * * * * * * * * * * * * * * * * * * * * * * * * * * * * * * * * * * * //

dimensions      [0 1 -1 0 0 0 0];


internalField   nonuniform List<vector> 
52500
(
(-0.00143609 0.00229779 0)
(-0.00431317 0.00230008 0)
(-0.00719053 0.00229923 0)
(-0.0100673 0.00229802 0)
(-0.012943 0.00229647 0)
(-0.0158171 0.0022946 0)
(-0.0186895 0.00229243 0)
(-0.0215597 0.00228994 0)
(-0.0244274 0.00228715 0)
(-0.0272923 0.00228405 0)
(-0.030154 0.00228064 0)
(-0.0330122 0.00227692 0)
(-0.0358665 0.0022729 0)
(-0.0387167 0.00226855 0)
(-0.0415623 0.00226389 0)
(-0.044403 0.00225891 0)
(-0.0472385 0.00225361 0)
(-0.0500684 0.00224799 0)
(-0.0528923 0.00224204 0)
(-0.0557099 0.00223576 0)
(-0.0585209 0.00222915 0)
(-0.0613248 0.0022222 0)
(-0.0641213 0.00221491 0)
(-0.0669099 0.00220727 0)
(-0.0696905 0.00219929 0)
(-0.0724624 0.00219096 0)
(-0.0752254 0.00218227 0)
(-0.0779791 0.00217323 0)
(-0.080723 0.00216382 0)
(-0.0834568 0.00215405 0)
(-0.0861801 0.0021439 0)
(-0.0888924 0.00213338 0)
(-0.0915933 0.00212248 0)
(-0.0942824 0.00211119 0)
(-0.0969593 0.00209952 0)
(-0.0996235 0.00208745 0)
(-0.102275 0.00207498 0)
(-0.104912 0.00206211 0)
(-0.107536 0.00204883 0)
(-0.110145 0.00203514 0)
(-0.112739 0.00202104 0)
(-0.115318 0.00200651 0)
(-0.117881 0.00199155 0)
(-0.120428 0.00197616 0)
(-0.122958 0.00196033 0)
(-0.12547 0.00194407 0)
(-0.127965 0.00192735 0)
(-0.130441 0.00191019 0)
(-0.132899 0.00189257 0)
(-0.135337 0.00187449 0)
(-0.137755 0.00185594 0)
(-0.140153 0.00183693 0)
(-0.14253 0.00181744 0)
(-0.144885 0.00179748 0)
(-0.147219 0.00177703 0)
(-0.14953 0.00175611 0)
(-0.151818 0.00173469 0)
(-0.154082 0.00171278 0)
(-0.156321 0.00169037 0)
(-0.158536 0.00166747 0)
(-0.160726 0.00164406 0)
(-0.162889 0.00162016 0)
(-0.165026 0.00159574 0)
(-0.167136 0.00157082 0)
(-0.169218 0.00154539 0)
(-0.171271 0.00151945 0)
(-0.173296 0.001493 0)
(-0.175291 0.00146604 0)
(-0.177255 0.00143857 0)
(-0.179189 0.00141058 0)
(-0.181092 0.00138208 0)
(-0.182962 0.00135308 0)
(-0.1848 0.00132357 0)
(-0.186604 0.00129355 0)
(-0.188374 0.00126303 0)
(-0.19011 0.00123201 0)
(-0.191811 0.0012005 0)
(-0.193476 0.00116849 0)
(-0.195105 0.00113601 0)
(-0.196697 0.00110304 0)
(-0.198251 0.0010696 0)
(-0.199767 0.0010357 0)
(-0.201244 0.00100135 0)
(-0.202682 0.000966547 0)
(-0.204079 0.00093131 0)
(-0.205436 0.000895647 0)
(-0.206752 0.000859571 0)
(-0.208027 0.000823095 0)
(-0.209259 0.000786232 0)
(-0.210448 0.000748996 0)
(-0.211594 0.000711405 0)
(-0.212696 0.000673473 0)
(-0.213754 0.00063522 0)
(-0.214767 0.000596665 0)
(-0.215735 0.000557826 0)
(-0.216657 0.000518726 0)
(-0.217532 0.000479387 0)
(-0.218361 0.000439832 0)
(-0.219143 0.000400087 0)
(-0.219878 0.000360177 0)
(-0.220564 0.00032013 0)
(-0.221203 0.000279973 0)
(-0.221793 0.000239738 0)
(-0.222335 0.000199454 0)
(-0.222827 0.000159155 0)
(-0.22327 0.000118873 0)
(-0.223664 7.86418e-05 0)
(-0.224008 3.84969e-05 0)
(-0.224303 -1.52726e-06 0)
(-0.224548 -4.13981e-05 0)
(-0.224742 -8.10882e-05 0)
(-0.224887 -0.000120583 0)
(-0.224982 -0.000159895 0)
(-0.225027 -0.000199108 0)
(-0.225023 -0.000238353 0)
(-0.224969 -0.000276708 0)
(-0.224864 -0.000314857 0)
(-0.224709 -0.000352974 0)
(-0.224505 -0.000389634 0)
(-0.224251 -0.00042568 0)
(-0.223949 -0.000461093 0)
(-0.223599 -0.000495708 0)
(-0.223201 -0.000529431 0)
(-0.222756 -0.000562096 0)
(-0.222263 -0.000593834 0)
(-0.221725 -0.000624563 0)
(-0.221142 -0.000654253 0)
(-0.220514 -0.00068297 0)
(-0.219842 -0.000710517 0)
(-0.219128 -0.000736814 0)
(-0.218371 -0.000761902 0)
(-0.217574 -0.000785544 0)
(-0.216736 -0.000807741 0)
(-0.21586 -0.000828364 0)
(-0.214946 -0.000847669 0)
(-0.213995 -0.000865487 0)
(-0.21301 -0.000881616 0)
(-0.211991 -0.000895935 0)
(-0.210939 -0.000908432 0)
(-0.209856 -0.000919185 0)
(-0.208743 -0.000928116 0)
(-0.207603 -0.00093505 0)
(-0.206436 -0.000940009 0)
(-0.205244 -0.000942824 0)
(-0.20403 -0.000943322 0)
(-0.202794 -0.000941441 0)
(-0.201539 -0.000937073 0)
(-0.200266 -0.000930245 0)
(-0.198978 -0.000921075 0)
(-0.197676 -0.000909471 0)
(-0.196363 -0.00089528 0)
(-0.19504 -0.000878405 0)
(-0.193709 -0.000858887 0)
(-0.192373 -0.000836721 0)
(-0.191034 -0.000811884 0)
(-0.189693 -0.000784359 0)
(-0.188354 -0.000754183 0)
(-0.187018 -0.000721351 0)
(-0.185687 -0.000685831 0)
(-0.184364 -0.000647588 0)
(-0.183051 -0.000606639 0)
(-0.18175 -0.000563007 0)
(-0.180464 -0.000516717 0)
(-0.179194 -0.000467815 0)
(-0.177943 -0.000416355 0)
(-0.176714 -0.000362381 0)
(-0.175508 -0.000305951 0)
(-0.174327 -0.000247185 0)
(-0.173174 -0.000186173 0)
(-0.172051 -0.000123024 0)
(-0.170959 -5.78996e-05 0)
(-0.169902 9.02971e-06 0)
(-0.16888 7.75866e-05 0)
(-0.167896 0.000147563 0)
(-0.166952 0.000218635 0)
(-0.16605 0.000290302 0)
(-0.165191 0.000361905 0)
(-0.164377 0.00043314 0)
(-0.163609 0.000505405 0)
(-0.16289 0.000582784 0)
(-0.162228 0.000669652 0)
(-0.161628 0.000761783 0)
(-0.161094 0.000832413 0)
(-0.160609 0.000825507 0)
(-0.160128 0.000680927 0)
(-0.159589 0.00039505 0)
(-0.158937 5.17928e-05 0)
(-0.158174 -0.000238571 0)
(-0.157348 -0.00042579 0)
(-0.156505 -0.000526031 0)
(-0.155673 -0.000571976 0)
(-0.154868 -0.000584517 0)
(-0.154102 -0.000574749 0)
(-0.153382 -0.000549958 0)
(-0.152711 -0.000515343 0)
(-0.152095 -0.000474446 0)
(-0.151536 -0.000429607 0)
(-0.151035 -0.000382325 0)
(-0.150594 -0.000333524 0)
(-0.150214 -0.000283775 0)
(-0.149896 -0.000233436 0)
(-0.149639 -0.000182755 0)
(-0.149445 -0.000131919 0)
(-0.149312 -8.10978e-05 0)
(-0.149242 -3.04746e-05 0)
(-0.149234 1.97178e-05 0)
(-0.149287 6.93899e-05 0)
(-0.149401 0.000118584 0)
(-0.149574 0.000167275 0)
(-0.149807 0.000215386 0)
(-0.150098 0.000262815 0)
(-0.150447 0.000309452 0)
(-0.150853 0.000355203 0)
(-0.151314 0.000399978 0)
(-0.151829 0.00044365 0)
(-0.152397 0.000486122 0)
(-0.153016 0.000527262 0)
(-0.153684 0.000567027 0)
(-0.154401 0.00060532 0)
(-0.155163 0.000642042 0)
(-0.155969 0.00067712 0)
(-0.156817 0.00071049 0)
(-0.157705 0.00074208 0)
(-0.15863 0.000771851 0)
(-0.15959 0.000799805 0)
(-0.160584 0.000825806 0)
(-0.161608 0.000849835 0)
(-0.16266 0.000871859 0)
(-0.163737 0.000891851 0)
(-0.164838 0.000909789 0)
(-0.165959 0.00092566 0)
(-0.167098 0.000939471 0)
(-0.168253 0.000951228 0)
(-0.169421 0.0009609 0)
(-0.170599 0.000968525 0)
(-0.171786 0.000974122 0)
(-0.172978 0.000977701 0)
(-0.174172 0.000979294 0)
(-0.175368 0.000978925 0)
(-0.176562 0.000976642 0)
(-0.177752 0.000972504 0)
(-0.178935 0.000966566 0)
(-0.18011 0.000958834 0)
(-0.181275 0.000949378 0)
(-0.182426 0.000938253 0)
(-0.183563 0.000925509 0)
(-0.184683 0.0009112 0)
(-0.185785 0.000895382 0)
(-0.186867 0.000878134 0)
(-0.187926 0.00085954 0)
(-0.188962 0.000839549 0)
(-0.189972 0.000818285 0)
(-0.190956 0.000795799 0)
(-0.191911 0.000772135 0)
(-0.192837 0.000747336 0)
(-0.193731 0.000721441 0)
(-0.194593 0.000694489 0)
(-0.195421 0.000666511 0)
(-0.196215 0.000637538 0)
(-0.196972 0.000607598 0)
(-0.197693 0.000576687 0)
(-0.198375 0.00054479 0)
(-0.199018 0.000512094 0)
(-0.19962 0.000478439 0)
(-0.20018 0.00044385 0)
(-0.200697 0.00040834 0)
(-0.201171 0.000371918 0)
(-0.201599 0.000334541 0)
(-0.201981 0.000296194 0)
(-0.202315 0.000256863 0)
(-0.202601 0.000216519 0)
(-0.202837 0.000175148 0)
(-0.203022 0.000132733 0)
(-0.203154 8.93119e-05 0)
(-0.203233 4.48429e-05 0)
(-0.203257 -5.83833e-07 0)
(-0.203224 -4.70334e-05 0)
(-0.203133 -9.46665e-05 0)
(-0.202984 -0.000143463 0)
(-0.202774 -0.000193316 0)
(-0.202503 -0.000244276 0)
(-0.202168 -0.000296424 0)
(-0.201769 -0.000349753 0)
(-0.201304 -0.000404331 0)
(-0.200772 -0.000460181 0)
(-0.20017 -0.000517118 0)
(-0.199499 -0.000575145 0)
(-0.198755 -0.000634517 0)
(-0.197938 -0.000695137 0)
(-0.197046 -0.000756667 0)
(-0.196079 -0.000819114 0)
(-0.195035 -0.000882612 0)
(-0.193912 -0.0009471 0)
(-0.192709 -0.00101283 0)
(-0.191425 -0.00107971 0)
(-0.19006 -0.00114706 0)
(-0.188612 -0.0012153 0)
(-0.18708 -0.0012842 0)
(-0.185463 -0.00135366 0)
(-0.18376 -0.00142393 0)
(-0.181972 -0.0014944 0)
(-0.180097 -0.00156513 0)
(-0.178134 -0.00163648 0)
(-0.176083 -0.00170821 0)
(-0.173945 -0.00178038 0)
(-0.17172 -0.00185225 0)
(-0.169406 -0.0019239 0)
(-0.167004 -0.001995 0)
(-0.164515 -0.00206477 0)
(-0.161939 -0.00213307 0)
(-0.159278 -0.00219952 0)
(-0.156534 -0.00226364 0)
(-0.153706 -0.00232609 0)
(-0.150797 -0.00238676 0)
(-0.147806 -0.00244648 0)
(-0.144735 -0.00250623 0)
(-0.141585 -0.00256631 0)
(-0.138357 -0.00262659 0)
(-0.135049 -0.00268734 0)
(-0.131664 -0.00274907 0)
(-0.128203 -0.00281135 0)
(-0.124665 -0.0028735 0)
(-0.121052 -0.00293575 0)
(-0.117365 -0.00299781 0)
(-0.113606 -0.00305981 0)
(-0.109775 -0.00312098 0)
(-0.105875 -0.00318138 0)
(-0.101908 -0.0032409 0)
(-0.0978744 -0.00329888 0)
(-0.0937767 -0.00335548 0)
(-0.0896174 -0.00341036 0)
(-0.0853987 -0.0034634 0)
(-0.0811228 -0.00351444 0)
(-0.0767921 -0.00356337 0)
(-0.072409 -0.00361014 0)
(-0.0679763 -0.00365478 0)
(-0.0634969 -0.00369733 0)
(-0.0589737 -0.00373751 0)
(-0.0544097 -0.00377512 0)
(-0.0498076 -0.00381009 0)
(-0.0451707 -0.0038423 0)
(-0.0405021 -0.00387158 0)
(-0.0358046 -0.00389777 0)
(-0.0310822 -0.00392123 0)
(-0.026338 -0.00394131 0)
(-0.0215748 -0.00395809 0)
(-0.0167967 -0.00397146 0)
(-0.012006 -0.00398325 0)
(-0.00718415 -0.00402466 0)
(-0.00238024 -0.00395582 0)
(-0.00153022 0.00716704 0)
(-0.00459889 0.00717702 0)
(-0.00766644 0.00717546 0)
(-0.0107337 0.0071732 0)
(-0.0137999 0.00717015 0)
(-0.0168648 0.00716631 0)
(-0.0199282 0.00716169 0)
(-0.0229898 0.00715628 0)
(-0.0260493 0.00715008 0)
(-0.0291064 0.00714309 0)
(-0.0321609 0.0071353 0)
(-0.0352125 0.0071267 0)
(-0.0382608 0.0071173 0)
(-0.0413056 0.00710709 0)
(-0.0443466 0.00709606 0)
(-0.0473836 0.0070842 0)
(-0.0504161 0.00707151 0)
(-0.0534439 0.00705798 0)
(-0.0564668 0.0070436 0)
(-0.0594843 0.00702837 0)
(-0.0624962 0.00701227 0)
(-0.0655022 0.0069953 0)
(-0.0685019 0.00697745 0)
(-0.0714951 0.0069587 0)
(-0.0744813 0.00693906 0)
(-0.0774604 0.0069185 0)
(-0.0804318 0.00689701 0)
(-0.0833953 0.00687459 0)
(-0.0863506 0.00685122 0)
(-0.0892972 0.0068269 0)
(-0.0922348 0.0068016 0)
(-0.0951631 0.00677532 0)
(-0.0980817 0.00674804 0)
(-0.10099 0.00671975 0)
(-0.103888 0.00669043 0)
(-0.106775 0.00666008 0)
(-0.109651 0.00662867 0)
(-0.112516 0.0065962 0)
(-0.115368 0.00656265 0)
(-0.118208 0.006528 0)
(-0.121034 0.00649224 0)
(-0.123848 0.00645535 0)
(-0.126648 0.00641732 0)
(-0.129433 0.00637813 0)
(-0.132204 0.00633777 0)
(-0.13496 0.00629623 0)
(-0.1377 0.00625347 0)
(-0.140425 0.0062095 0)
(-0.143132 0.0061643 0)
(-0.145823 0.00611784 0)
(-0.148496 0.00607011 0)
(-0.151151 0.0060211 0)
(-0.153788 0.0059708 0)
(-0.156406 0.00591918 0)
(-0.159004 0.00586623 0)
(-0.161582 0.00581194 0)
(-0.164139 0.00575629 0)
(-0.166676 0.00569927 0)
(-0.16919 0.00564086 0)
(-0.171683 0.00558106 0)
(-0.174152 0.00551983 0)
(-0.176598 0.00545718 0)
(-0.17902 0.0053931 0)
(-0.181418 0.00532756 0)
(-0.18379 0.00526056 0)
(-0.186136 0.00519209 0)
(-0.188457 0.00512213 0)
(-0.19075 0.00505069 0)
(-0.193015 0.00497774 0)
(-0.195252 0.00490328 0)
(-0.197461 0.00482731 0)
(-0.199639 0.00474982 0)
(-0.201788 0.00467081 0)
(-0.203906 0.00459027 0)
(-0.205992 0.00450819 0)
(-0.208046 0.00442459 0)
(-0.210068 0.00433945 0)
(-0.212056 0.00425277 0)
(-0.21401 0.00416457 0)
(-0.215929 0.00407485 0)
(-0.217812 0.0039836 0)
(-0.21966 0.00389085 0)
(-0.221471 0.00379658 0)
(-0.223244 0.00370083 0)
(-0.224979 0.00360359 0)
(-0.226675 0.00350488 0)
(-0.228332 0.00340473 0)
(-0.229949 0.00330313 0)
(-0.231525 0.00320013 0)
(-0.233059 0.00309573 0)
(-0.234552 0.00298996 0)
(-0.236001 0.00288285 0)
(-0.237407 0.00277443 0)
(-0.238769 0.00266472 0)
(-0.240086 0.00255376 0)
(-0.241358 0.0024416 0)
(-0.242584 0.00232825 0)
(-0.243764 0.00221377 0)
(-0.244896 0.0020982 0)
(-0.24598 0.00198159 0)
(-0.247017 0.00186398 0)
(-0.248004 0.00174543 0)
(-0.248941 0.00162599 0)
(-0.249829 0.00150572 0)
(-0.250666 0.00138468 0)
(-0.251452 0.00126293 0)
(-0.252187 0.00114055 0)
(-0.252869 0.0010176 0)
(-0.253499 0.000894148 0)
(-0.254077 0.000770281 0)
(-0.254601 0.000646073 0)
(-0.255071 0.000521606 0)
(-0.255487 0.000396965 0)
(-0.25585 0.000272245 0)
(-0.256157 0.000147623 0)
(-0.25641 2.40108e-05 0)
(-0.256609 -9.83341e-05 0)
(-0.256751 -0.000219161 0)
(-0.256836 -0.000342323 0)
(-0.256867 -0.000466112 0)
(-0.256843 -0.000589935 0)
(-0.256763 -0.000713207 0)
(-0.256626 -0.000835758 0)
(-0.256434 -0.000957454 0)
(-0.256185 -0.00107823 0)
(-0.255881 -0.00119787 0)
(-0.25552 -0.00131606 0)
(-0.255104 -0.00143271 0)
(-0.254631 -0.00154809 0)
(-0.254103 -0.00166186 0)
(-0.253519 -0.00177367 0)
(-0.25288 -0.00188371 0)
(-0.252185 -0.00199155 0)
(-0.251436 -0.00209727 0)
(-0.250633 -0.00220048 0)
(-0.249776 -0.00230136 0)
(-0.248865 -0.00239951 0)
(-0.247901 -0.00249472 0)
(-0.246884 -0.00258701 0)
(-0.245816 -0.00267613 0)
(-0.244697 -0.00276201 0)
(-0.243527 -0.00284464 0)
(-0.242307 -0.00292382 0)
(-0.241038 -0.00299948 0)
(-0.239721 -0.00307163 0)
(-0.238357 -0.0031402 0)
(-0.236946 -0.00320514 0)
(-0.235491 -0.00326634 0)
(-0.233992 -0.00332358 0)
(-0.232449 -0.00337685 0)
(-0.230865 -0.00342619 0)
(-0.22924 -0.00347137 0)
(-0.227575 -0.00351227 0)
(-0.225873 -0.00354886 0)
(-0.224135 -0.00358104 0)
(-0.222362 -0.00360874 0)
(-0.220555 -0.00363192 0)
(-0.218716 -0.00365056 0)
(-0.216846 -0.00366457 0)
(-0.214948 -0.00367392 0)
(-0.213024 -0.00367863 0)
(-0.211074 -0.00367865 0)
(-0.209101 -0.00367394 0)
(-0.207106 -0.00366449 0)
(-0.205092 -0.00365029 0)
(-0.203061 -0.00363135 0)
(-0.201014 -0.00360766 0)
(-0.198954 -0.00357922 0)
(-0.196883 -0.00354603 0)
(-0.194803 -0.00350807 0)
(-0.192717 -0.00346535 0)
(-0.190626 -0.00341782 0)
(-0.188532 -0.00336544 0)
(-0.18644 -0.00330812 0)
(-0.184349 -0.00324581 0)
(-0.182264 -0.00317846 0)
(-0.180187 -0.00310605 0)
(-0.178119 -0.00302819 0)
(-0.176064 -0.00294356 0)
(-0.174023 -0.00284942 0)
(-0.171992 -0.00274284 0)
(-0.16997 -0.00262472 0)
(-0.167956 -0.00250588 0)
(-0.165972 -0.00241 0)
(-0.164064 -0.00236273 0)
(-0.162302 -0.00236589 0)
(-0.160741 -0.00238477 0)
(-0.159385 -0.00237516 0)
(-0.15819 -0.00231979 0)
(-0.157113 -0.00222903 0)
(-0.15613 -0.00211827 0)
(-0.155227 -0.00199621 0)
(-0.154397 -0.00186671 0)
(-0.153635 -0.00173186 0)
(-0.152938 -0.00159296 0)
(-0.152305 -0.00145079 0)
(-0.151734 -0.00130588 0)
(-0.151225 -0.00115868 0)
(-0.150778 -0.00100959 0)
(-0.150394 -0.000859 0)
(-0.150072 -0.000707299 0)
(-0.149813 -0.000554873 0)
(-0.149616 -0.000402097 0)
(-0.149482 -0.000249348 0)
(-0.149411 -9.70147e-05 0)
(-0.149402 5.44927e-05 0)
(-0.149456 0.000204861 0)
(-0.149573 0.000353865 0)
(-0.149751 0.000501258 0)
(-0.14999 0.000646673 0)
(-0.150289 0.000789832 0)
(-0.150647 0.000930447 0)
(-0.151062 0.00106821 0)
(-0.151534 0.00120289 0)
(-0.152059 0.00133408 0)
(-0.152638 0.00146152 0)
(-0.153269 0.00158502 0)
(-0.153949 0.00170425 0)
(-0.154677 0.00181893 0)
(-0.15545 0.00192874 0)
(-0.156268 0.00203359 0)
(-0.157126 0.00213327 0)
(-0.158025 0.00222759 0)
(-0.15896 0.00231636 0)
(-0.15993 0.00239956 0)
(-0.160933 0.00247693 0)
(-0.161965 0.00254835 0)
(-0.163026 0.00261372 0)
(-0.164111 0.00267297 0)
(-0.165218 0.00272606 0)
(-0.166346 0.00277294 0)
(-0.16749 0.00281365 0)
(-0.16865 0.00284819 0)
(-0.169822 0.00287643 0)
(-0.171004 0.00289858 0)
(-0.172193 0.00291468 0)
(-0.173387 0.00292472 0)
(-0.174583 0.00292884 0)
(-0.175779 0.00292708 0)
(-0.176973 0.00291965 0)
(-0.178162 0.00290664 0)
(-0.179344 0.00288816 0)
(-0.180517 0.00286444 0)
(-0.181679 0.00283558 0)
(-0.182828 0.00280165 0)
(-0.183962 0.00276298 0)
(-0.185078 0.00271966 0)
(-0.186175 0.00267189 0)
(-0.187252 0.00261977 0)
(-0.188306 0.00256343 0)
(-0.189337 0.00250329 0)
(-0.190341 0.00243933 0)
(-0.191319 0.00237173 0)
(-0.192268 0.00230061 0)
(-0.193187 0.00222612 0)
(-0.194075 0.00214837 0)
(-0.19493 0.00206748 0)
(-0.195752 0.00198356 0)
(-0.196539 0.00189668 0)
(-0.19729 0.00180694 0)
(-0.198003 0.00171441 0)
(-0.198679 0.00161918 0)
(-0.199315 0.0015211 0)
(-0.199911 0.00142031 0)
(-0.200465 0.00131679 0)
(-0.200977 0.00121058 0)
(-0.201445 0.00110168 0)
(-0.201868 0.00098999 0)
(-0.202245 0.000875467 0)
(-0.202575 0.000757999 0)
(-0.202858 0.000637589 0)
(-0.20309 0.000514105 0)
(-0.203273 0.000387308 0)
(-0.203404 0.000257656 0)
(-0.203482 0.000124934 0)
(-0.203505 -1.06215e-05 0)
(-0.203472 -0.000149605 0)
(-0.203382 -0.000292061 0)
(-0.203233 -0.000437928 0)
(-0.203024 -0.000587225 0)
(-0.202754 -0.000740124 0)
(-0.20242 -0.000896664 0)
(-0.202022 -0.00105671 0)
(-0.201558 -0.00122023 0)
(-0.201026 -0.00138733 0)
(-0.200426 -0.00155801 0)
(-0.199755 -0.00173216 0)
(-0.199013 -0.00190987 0)
(-0.198197 -0.00209102 0)
(-0.197306 -0.00227534 0)
(-0.196339 -0.00246304 0)
(-0.195296 -0.00265398 0)
(-0.194174 -0.0028477 0)
(-0.192972 -0.00304442 0)
(-0.191689 -0.00324429 0)
(-0.190323 -0.00344632 0)
(-0.188876 -0.00365042 0)
(-0.187343 -0.00385704 0)
(-0.185726 -0.00406589 0)
(-0.184023 -0.00427636 0)
(-0.182234 -0.00448835 0)
(-0.180358 -0.00470166 0)
(-0.178395 -0.00491611 0)
(-0.176343 -0.00513122 0)
(-0.174204 -0.00534689 0)
(-0.171976 -0.00556312 0)
(-0.16966 -0.00577909 0)
(-0.167254 -0.00599442 0)
(-0.164759 -0.00620895 0)
(-0.162175 -0.00642249 0)
(-0.159501 -0.00663449 0)
(-0.156738 -0.00684437 0)
(-0.153884 -0.00705172 0)
(-0.150939 -0.00725709 0)
(-0.147907 -0.00746064 0)
(-0.144786 -0.00766188 0)
(-0.141579 -0.00786094 0)
(-0.138287 -0.0080575 0)
(-0.134912 -0.00825126 0)
(-0.131456 -0.00844248 0)
(-0.127922 -0.00863078 0)
(-0.124311 -0.00881541 0)
(-0.120627 -0.00899653 0)
(-0.116871 -0.00917386 0)
(-0.113047 -0.00934726 0)
(-0.109155 -0.00951598 0)
(-0.105199 -0.00968002 0)
(-0.101182 -0.0098392 0)
(-0.0971048 -0.00999324 0)
(-0.092971 -0.010142 0)
(-0.0887829 -0.0102853 0)
(-0.0845431 -0.0104228 0)
(-0.0802542 -0.0105542 0)
(-0.0759188 -0.0106794 0)
(-0.0715395 -0.0107981 0)
(-0.0671191 -0.0109102 0)
(-0.06266 -0.0110155 0)
(-0.0581645 -0.011114 0)
(-0.0536353 -0.0112052 0)
(-0.0490752 -0.0112894 0)
(-0.0444868 -0.0113662 0)
(-0.0398726 -0.0114355 0)
(-0.0352357 -0.0114973 0)
(-0.0305788 -0.0115518 0)
(-0.025904 -0.0115985 0)
(-0.0212144 -0.0116373 0)
(-0.0165132 -0.0116679 0)
(-0.0118017 -0.0116956 0)
(-0.00706113 -0.0118087 0)
(-0.00233939 -0.0116132 0)
(-0.00149058 0.0121543 0)
(-0.00448009 0.0121715 0)
(-0.00746859 0.0121691 0)
(-0.0104569 0.0121658 0)
(-0.0134442 0.0121612 0)
(-0.0164301 0.0121555 0)
(-0.0194145 0.0121485 0)
(-0.0223969 0.0121403 0)
(-0.0253771 0.0121308 0)
(-0.0283547 0.0121201 0)
(-0.0313296 0.0121082 0)
(-0.0343013 0.012095 0)
(-0.0372696 0.0120805 0)
(-0.0402342 0.0120647 0)
(-0.0431947 0.0120477 0)
(-0.0461508 0.0120293 0)
(-0.0491023 0.0120097 0)
(-0.0520487 0.0119887 0)
(-0.0549899 0.0119664 0)
(-0.0579254 0.0119427 0)
(-0.0608549 0.0119176 0)
(-0.0637782 0.0118912 0)
(-0.0666947 0.0118634 0)
(-0.0696044 0.0118341 0)
(-0.0725066 0.0118035 0)
(-0.0754012 0.0117713 0)
(-0.0782878 0.0117377 0)
(-0.081166 0.0117026 0)
(-0.0840354 0.0116661 0)
(-0.0868957 0.0116279 0)
(-0.0897465 0.0115883 0)
(-0.0925875 0.011547 0)
(-0.0954182 0.0115042 0)
(-0.0982382 0.0114597 0)
(-0.101047 0.0114136 0)
(-0.103845 0.0113658 0)
(-0.10663 0.0113164 0)
(-0.109404 0.0112652 0)
(-0.112164 0.0112123 0)
(-0.114912 0.0111576 0)
(-0.117646 0.0111011 0)
(-0.120366 0.0110428 0)
(-0.123072 0.0109827 0)
(-0.125762 0.0109206 0)
(-0.128438 0.0108567 0)
(-0.131097 0.0107909 0)
(-0.133741 0.0107231 0)
(-0.136367 0.0106533 0)
(-0.138976 0.0105814 0)
(-0.141568 0.0105076 0)
(-0.144141 0.0104317 0)
(-0.146695 0.0103536 0)
(-0.14923 0.0102735 0)
(-0.151746 0.0101912 0)
(-0.154241 0.0101067 0)
(-0.156715 0.01002 0)
(-0.159167 0.00993106 0)
(-0.161598 0.00983985 0)
(-0.164006 0.00974636 0)
(-0.166391 0.00965054 0)
(-0.168752 0.00955238 0)
(-0.171089 0.00945185 0)
(-0.173402 0.00934893 0)
(-0.175689 0.00924359 0)
(-0.177949 0.00913581 0)
(-0.180184 0.00902557 0)
(-0.18239 0.00891285 0)
(-0.18457 0.00879762 0)
(-0.18672 0.00867987 0)
(-0.188842 0.00855957 0)
(-0.190934 0.00843672 0)
(-0.192995 0.0083113 0)
(-0.195025 0.00818329 0)
(-0.197024 0.00805268 0)
(-0.198991 0.00791947 0)
(-0.200924 0.00778363 0)
(-0.202824 0.00764517 0)
(-0.20469 0.00750408 0)
(-0.206521 0.00736036 0)
(-0.208316 0.007214 0)
(-0.210075 0.007065 0)
(-0.211798 0.00691337 0)
(-0.213483 0.00675912 0)
(-0.215129 0.00660226 0)
(-0.216737 0.00644278 0)
(-0.218305 0.00628071 0)
(-0.219833 0.00611607 0)
(-0.221321 0.00594887 0)
(-0.222767 0.00577913 0)
(-0.224171 0.00560689 0)
(-0.225532 0.00543216 0)
(-0.22685 0.00525499 0)
(-0.228124 0.00507539 0)
(-0.229354 0.00489343 0)
(-0.230538 0.00470913 0)
(-0.231677 0.00452254 0)
(-0.23277 0.00433372 0)
(-0.233815 0.00414271 0)
(-0.234814 0.00394958 0)
(-0.235764 0.00375438 0)
(-0.236666 0.00355719 0)
(-0.237518 0.00335806 0)
(-0.238322 0.00315708 0)
(-0.239075 0.00295433 0)
(-0.239778 0.00274989 0)
(-0.24043 0.00254384 0)
(-0.241031 0.00233627 0)
(-0.24158 0.00212729 0)
(-0.242077 0.00191699 0)
(-0.242522 0.00170548 0)
(-0.242914 0.00149287 0)
(-0.243252 0.00127928 0)
(-0.243538 0.00106484 0)
(-0.24377 0.000849716 0)
(-0.243947 0.000634074 0)
(-0.244069 0.0004175 0)
(-0.244137 0.000200127 0)
(-0.244155 -1.84059e-05 0)
(-0.244124 -0.000236549 0)
(-0.244035 -0.000453112 0)
(-0.243891 -0.000668937 0)
(-0.243692 -0.000884673 0)
(-0.24344 -0.0011 0)
(-0.243134 -0.00131464 0)
(-0.242774 -0.00152832 0)
(-0.242361 -0.00174098 0)
(-0.241894 -0.00195252 0)
(-0.241376 -0.00216256 0)
(-0.240805 -0.00237054 0)
(-0.240182 -0.00257642 0)
(-0.239507 -0.00278043 0)
(-0.238782 -0.00298208 0)
(-0.238006 -0.00318135 0)
(-0.237181 -0.00337803 0)
(-0.236306 -0.00357171 0)
(-0.235383 -0.00376191 0)
(-0.234412 -0.00394923 0)
(-0.233395 -0.00413291 0)
(-0.232332 -0.0043126 0)
(-0.231223 -0.00448863 0)
(-0.230072 -0.0046603 0)
(-0.228878 -0.00482738 0)
(-0.227642 -0.00499017 0)
(-0.226366 -0.00514822 0)
(-0.225051 -0.00530132 0)
(-0.223699 -0.0054494 0)
(-0.222311 -0.00559211 0)
(-0.220888 -0.00572911 0)
(-0.219431 -0.00586013 0)
(-0.217943 -0.00598489 0)
(-0.216425 -0.00610309 0)
(-0.214878 -0.00621474 0)
(-0.213304 -0.00631956 0)
(-0.211706 -0.00641724 0)
(-0.210085 -0.00650766 0)
(-0.208443 -0.00659063 0)
(-0.206782 -0.00666597 0)
(-0.205105 -0.00673337 0)
(-0.203413 -0.0067928 0)
(-0.201708 -0.0068441 0)
(-0.199993 -0.00688698 0)
(-0.19827 -0.00692133 0)
(-0.196541 -0.00694708 0)
(-0.194808 -0.00696407 0)
(-0.193075 -0.00697216 0)
(-0.191343 -0.00697124 0)
(-0.189616 -0.00696124 0)
(-0.187894 -0.00694208 0)
(-0.186181 -0.00691369 0)
(-0.18448 -0.00687605 0)
(-0.182793 -0.00682917 0)
(-0.181122 -0.00677308 0)
(-0.179469 -0.00670786 0)
(-0.177838 -0.00663364 0)
(-0.176231 -0.00655056 0)
(-0.17465 -0.00645875 0)
(-0.173097 -0.00635839 0)
(-0.171575 -0.00625 0)
(-0.170086 -0.00613504 0)
(-0.168632 -0.00601626 0)
(-0.167212 -0.00589665 0)
(-0.165825 -0.00577552 0)
(-0.164472 -0.00564264 0)
(-0.163155 -0.00547528 0)
(-0.161885 -0.00524847 0)
(-0.16068 -0.00496025 0)
(-0.159549 -0.00464454 0)
(-0.15849 -0.00434523 0)
(-0.157494 -0.00408 0)
(-0.156551 -0.00383909 0)
(-0.155659 -0.00360773 0)
(-0.154817 -0.00337789 0)
(-0.154025 -0.00314649 0)
(-0.153287 -0.00291218 0)
(-0.152602 -0.0026744 0)
(-0.151975 -0.00243305 0)
(-0.151406 -0.00218833 0)
(-0.150896 -0.00194056 0)
(-0.150448 -0.00169017 0)
(-0.150061 -0.00143764 0)
(-0.149738 -0.00118349 0)
(-0.149477 -0.000928256 0)
(-0.14928 -0.000672491 0)
(-0.149147 -0.000416745 0)
(-0.149076 -0.000161559 0)
(-0.149069 9.25597e-05 0)
(-0.149125 0.000345045 0)
(-0.149243 0.00059528 0)
(-0.149422 0.00084268 0)
(-0.149663 0.00108679 0)
(-0.149964 0.00132705 0)
(-0.150323 0.00156287 0)
(-0.15074 0.00179375 0)
(-0.151214 0.00201924 0)
(-0.151743 0.0022388 0)
(-0.152326 0.00245197 0)
(-0.15296 0.00265839 0)
(-0.153645 0.0028575 0)
(-0.154379 0.00304896 0)
(-0.155158 0.00323252 0)
(-0.155982 0.00340767 0)
(-0.156849 0.00357404 0)
(-0.157755 0.00373141 0)
(-0.158699 0.00387939 0)
(-0.159678 0.00401792 0)
(-0.160691 0.0041467 0)
(-0.161733 0.00426539 0)
(-0.162804 0.00437401 0)
(-0.163901 0.00447247 0)
(-0.16502 0.00456055 0)
(-0.16616 0.00463816 0)
(-0.167317 0.00470534 0)
(-0.168489 0.00476218 0)
(-0.169674 0.00480894 0)
(-0.170869 0.00484538 0)
(-0.172072 0.00487166 0)
(-0.173279 0.00488766 0)
(-0.174489 0.00489386 0)
(-0.175699 0.00489005 0)
(-0.176906 0.00487678 0)
(-0.178109 0.00485416 0)
(-0.179304 0.00482285 0)
(-0.180491 0.0047827 0)
(-0.181666 0.00473393 0)
(-0.182828 0.00467663 0)
(-0.183974 0.00461147 0)
(-0.185103 0.00453863 0)
(-0.186212 0.0044584 0)
(-0.187302 0.00437092 0)
(-0.188368 0.00427637 0)
(-0.189409 0.00417555 0)
(-0.190425 0.00406847 0)
(-0.191414 0.00395534 0)
(-0.192373 0.0038364 0)
(-0.193303 0.00371187 0)
(-0.194201 0.00358198 0)
(-0.195066 0.00344689 0)
(-0.195898 0.0033068 0)
(-0.196694 0.00316185 0)
(-0.197454 0.00301215 0)
(-0.198177 0.00285788 0)
(-0.198862 0.00269923 0)
(-0.199507 0.00253589 0)
(-0.200111 0.00236804 0)
(-0.200674 0.00219565 0)
(-0.201194 0.00201875 0)
(-0.201671 0.00183773 0)
(-0.202102 0.00165201 0)
(-0.202488 0.00146164 0)
(-0.202827 0.00126634 0)
(-0.203117 0.00106628 0)
(-0.203359 0.000861261 0)
(-0.203549 0.000650704 0)
(-0.203688 0.000435333 0)
(-0.203773 0.000214768 0)
(-0.203803 -1.0954e-05 0)
(-0.203778 -0.000242396 0)
(-0.203695 -0.000479569 0)
(-0.203554 -0.000722517 0)
(-0.203353 -0.000971292 0)
(-0.20309 -0.00122591 0)
(-0.202765 -0.00148647 0)
(-0.202374 -0.0017531 0)
(-0.201918 -0.00202567 0)
(-0.201394 -0.00230421 0)
(-0.200801 -0.00258891 0)
(-0.200138 -0.00287946 0)
(-0.199403 -0.00317551 0)
(-0.198594 -0.00347738 0)
(-0.197711 -0.00378517 0)
(-0.196752 -0.00409849 0)
(-0.195715 -0.00441691 0)
(-0.194599 -0.0047403 0)
(-0.193404 -0.00506847 0)
(-0.192126 -0.00540137 0)
(-0.190766 -0.00573874 0)
(-0.189323 -0.00607994 0)
(-0.187796 -0.00642495 0)
(-0.186184 -0.00677339 0)
(-0.184484 -0.00712439 0)
(-0.182698 -0.00747811 0)
(-0.180825 -0.00783468 0)
(-0.178863 -0.00819296 0)
(-0.176813 -0.00855242 0)
(-0.174675 -0.00891307 0)
(-0.172448 -0.00927447 0)
(-0.170131 -0.00963517 0)
(-0.167726 -0.00999585 0)
(-0.165232 -0.0103566 0)
(-0.162649 -0.0107165 0)
(-0.159978 -0.0110754 0)
(-0.15722 -0.0114326 0)
(-0.154374 -0.0117872 0)
(-0.151442 -0.0121395 0)
(-0.148424 -0.0124883 0)
(-0.145321 -0.0128327 0)
(-0.142135 -0.0131722 0)
(-0.138865 -0.0135065 0)
(-0.135514 -0.0138346 0)
(-0.132083 -0.0141564 0)
(-0.128574 -0.0144717 0)
(-0.124988 -0.0147796 0)
(-0.121326 -0.0150803 0)
(-0.117591 -0.0153733 0)
(-0.113784 -0.0156582 0)
(-0.109908 -0.0159346 0)
(-0.105963 -0.0162026 0)
(-0.101954 -0.0164615 0)
(-0.0978826 -0.0167112 0)
(-0.0937496 -0.0169512 0)
(-0.0895582 -0.0171815 0)
(-0.0853107 -0.0174018 0)
(-0.0810097 -0.0176119 0)
(-0.0766577 -0.0178114 0)
(-0.0722572 -0.0180002 0)
(-0.0678112 -0.0181781 0)
(-0.0633224 -0.0183449 0)
(-0.0587938 -0.0185003 0)
(-0.0542281 -0.0186443 0)
(-0.049628 -0.0187768 0)
(-0.0449965 -0.0188976 0)
(-0.0403366 -0.0190067 0)
(-0.0356514 -0.0191041 0)
(-0.0309435 -0.0191894 0)
(-0.0262161 -0.0192627 0)
(-0.021472 -0.0193239 0)
(-0.016715 -0.0193719 0)
(-0.0119467 -0.0194161 0)
(-0.00714782 -0.0196042 0)
(-0.00236797 -0.0192754 0)
(-0.00148652 0.0170087 0)
(-0.00446773 0.0170325 0)
(-0.00744786 0.0170288 0)
(-0.0104278 0.0170236 0)
(-0.0134066 0.0170166 0)
(-0.0163842 0.0170079 0)
(-0.01936 0.0169975 0)
(-0.022334 0.0169854 0)
(-0.0253056 0.0169715 0)
(-0.0282747 0.0169558 0)
(-0.031241 0.0169384 0)
(-0.0342041 0.0169192 0)
(-0.0371637 0.0168982 0)
(-0.0401195 0.0168754 0)
(-0.0430712 0.0168508 0)
(-0.0460184 0.0168243 0)
(-0.048961 0.016796 0)
(-0.0518984 0.0167659 0)
(-0.0548305 0.0167338 0)
(-0.0577568 0.0166998 0)
(-0.0606771 0.0166639 0)
(-0.0635909 0.0166261 0)
(-0.0664981 0.0165862 0)
(-0.0693981 0.0165444 0)
(-0.0722907 0.0165005 0)
(-0.0751756 0.0164546 0)
(-0.0780522 0.0164066 0)
(-0.0809204 0.0163565 0)
(-0.0837797 0.0163043 0)
(-0.0866297 0.0162499 0)
(-0.0894701 0.0161933 0)
(-0.0923005 0.0161345 0)
(-0.0951204 0.0160734 0)
(-0.0979296 0.01601 0)
(-0.100728 0.0159444 0)
(-0.103514 0.0158763 0)
(-0.106288 0.0158059 0)
(-0.10905 0.015733 0)
(-0.111799 0.0156577 0)
(-0.114535 0.0155799 0)
(-0.117257 0.0154995 0)
(-0.119965 0.0154166 0)
(-0.122658 0.015331 0)
(-0.125336 0.0152428 0)
(-0.127998 0.015152 0)
(-0.130645 0.0150583 0)
(-0.133275 0.014962 0)
(-0.135887 0.0148628 0)
(-0.138483 0.0147607 0)
(-0.14106 0.0146558 0)
(-0.143619 0.014548 0)
(-0.146159 0.0144372 0)
(-0.14868 0.0143234 0)
(-0.15118 0.0142065 0)
(-0.15366 0.0140866 0)
(-0.156118 0.0139635 0)
(-0.158555 0.0138373 0)
(-0.16097 0.0137079 0)
(-0.163362 0.0135752 0)
(-0.16573 0.0134393 0)
(-0.168074 0.0133001 0)
(-0.170394 0.0131575 0)
(-0.172689 0.0130115 0)
(-0.174958 0.0128622 0)
(-0.177201 0.0127094 0)
(-0.179417 0.0125531 0)
(-0.181605 0.0123934 0)
(-0.183766 0.0122301 0)
(-0.185897 0.0120633 0)
(-0.187999 0.0118929 0)
(-0.190071 0.0117189 0)
(-0.192113 0.0115413 0)
(-0.194123 0.01136 0)
(-0.196101 0.0111751 0)
(-0.198046 0.0109865 0)
(-0.199959 0.0107943 0)
(-0.201837 0.0105984 0)
(-0.203681 0.0103987 0)
(-0.20549 0.0101954 0)
(-0.207263 0.00998839 0)
(-0.208999 0.00977769 0)
(-0.210699 0.0095633 0)
(-0.21236 0.00934524 0)
(-0.213984 0.00912352 0)
(-0.215568 0.00889815 0)
(-0.217112 0.00866916 0)
(-0.218616 0.00843657 0)
(-0.22008 0.00820042 0)
(-0.221501 0.00796073 0)
(-0.222881 0.00771754 0)
(-0.224217 0.00747091 0)
(-0.22551 0.00722086 0)
(-0.226759 0.00696747 0)
(-0.227964 0.00671078 0)