/*--------------------------------*- C++ -*----------------------------------*\
| =========                 |                                                 |
| \\      /  F ield         | OpenFOAM: The Open Source CFD Toolbox           |
|  \\    /   O peration     | Version:  v2006                                 |
|   \\  /    A nd           | Website:  www.openfoam.com                      |
|    \\/     M anipulation  |                                                 |
\*---------------------------------------------------------------------------*/
FoamFile
{
    version     2.0;
    format      ascii;
    class       surfaceScalarField;
    location    "9.1";
    object      alphaPhi0.water;
}
// * * * * * * * * * * * * * * * * * * * * * * * * * * * * * * * * * * * * * //

dimensions      [0 3 -1 0 0 0 0];
oriented        oriented;


internalField   nonuniform List<scalar> 
104500
(
-2.15603e-05
2.15603e-05
-2.75722e-05
6.01185e-06
-3.58924e-05
8.3202e-06
-4.78837e-05
1.19913e-05
-6.13878e-05
1.35041e-05
-7.50824e-05
1.36945e-05
-8.85691e-05
1.34868e-05
-0.000101855
1.32864e-05
-0.000115001
1.3146e-05
-0.000128032
1.30306e-05
-0.000140949
1.29167e-05
-0.000153751
1.28018e-05
-0.000166443
1.2692e-05
-0.000179037
1.25944e-05
-0.000191552
1.25148e-05
-0.00020401
1.24583e-05
-0.00021644
1.24301e-05
-0.000228876
1.24355e-05
-0.000241354
1.24786e-05
-0.000253916
1.25624e-05
-0.000266607
1.26902e-05
-0.000279471
1.28646e-05
-0.000292558
1.30872e-05
-0.000305918
1.33591e-05
-0.000319597
1.36798e-05
-0.000333645
1.40474e-05
-0.000348105
1.44603e-05
-0.000363022
1.49172e-05
-0.000378438
1.54153e-05
-0.000394389
1.59512e-05
-0.00041091
1.65209e-05
-0.00042803
1.71199e-05
-0.000445773
1.77434e-05
-0.000464161
1.83875e-05
-0.000483209
1.90487e-05
-0.000502934
1.97247e-05
-0.000523349
2.04152e-05
-0.000544471
2.1122e-05
-0.000566319
2.18474e-05
-0.000588909
2.25901e-05
-0.000612252
2.33436e-05
-0.000636348
2.40959e-05
-0.000661181
2.4833e-05
-0.000686723
2.55419e-05
-0.000712936
2.62134e-05
-0.00073978
2.68434e-05
-0.000767212
2.74318e-05
-0.000795194
2.79823e-05
-0.000823695
2.85012e-05
-0.000852692
2.89964e-05
-0.000882165
2.94734e-05
-0.000912095
2.99296e-05
-0.000942442
3.03478e-05
-0.000973137
3.06942e-05
-0.00100406
3.09239e-05
-0.00103505
3.09942e-05
-0.00106594
3.08817e-05
-0.00109653
3.05943e-05
-0.0011267
3.0174e-05
-0.00115639
2.96862e-05
-0.00118559
2.92011e-05
-0.00121437
2.8773e-05
-0.0012428
2.84313e-05
-0.00127098
2.81821e-05
-0.001299
2.80173e-05
-0.00132692
2.79233e-05
-0.00135481
2.78866e-05
-0.0013827
2.7896e-05
-0.00141064
2.79427e-05
-0.00143866
2.80202e-05
-0.00146679
2.8123e-05
-0.00149503
2.82466e-05
-0.00152342
2.8387e-05
-0.00155196
2.85417e-05
-0.00158067
2.87094e-05
-0.00160956
2.88902e-05
-0.00163865
2.90849e-05
-0.00166794
2.92927e-05
-0.00169745
2.95109e-05
-0.00172719
2.97344e-05
-0.00175714
2.99569e-05
-0.00178732
3.01728e-05
-0.00181769
3.03788e-05
-0.00184827
3.05744e-05
-0.00187903
3.0762e-05
-0.00190998
3.09466e-05
-0.00194111
3.11352e-05
-0.00197245
3.13352e-05
-0.002004
3.15526e-05
-0.00203579
3.17898e-05
-0.00206783
3.2045e-05
-0.00210015
3.23122e-05
-0.00213273
3.25836e-05
-0.00216558
3.28489e-05
-0.00219868
3.31006e-05
-0.00223201
3.33318e-05
-0.00226555
3.35383e-05
-0.00229927
3.37177e-05
-0.00233314
3.387e-05
-0.00236713
3.39961e-05
-0.00240123
3.40976e-05
-0.00243541
3.41753e-05
-0.00246964
3.42302e-05
-0.0025039
3.42626e-05
-0.00253817
3.42735e-05
-0.00257244
3.42637e-05
-0.00260667
3.42341e-05
-0.00264086
3.41847e-05
-0.00267497
3.41155e-05
-0.002709
3.40265e-05
-0.00274291
3.39173e-05
-0.0027767
3.3788e-05
-0.00281034
3.36388e-05
-0.00284381
3.34695e-05
-0.00287709
3.32801e-05
-0.00291016
3.30704e-05
-0.002943
3.28406e-05
-0.00297559
3.2591e-05
-0.00300792
3.23222e-05
-0.00303995
3.20346e-05
-0.00307168
3.17282e-05
-0.00310308
3.14036e-05
-0.00313414
3.10616e-05
-0.00316485
3.07029e-05
-0.00319517
3.03279e-05
-0.00322511
2.99366e-05
-0.00325464
2.95295e-05
-0.00328375
2.91075e-05
-0.00331242
2.86712e-05
-0.00334064
2.8221e-05
-0.0033684
2.77573e-05
-0.00339568
2.72803e-05
-0.00342247
2.67908e-05
-0.00344876
2.62896e-05
-0.00347454
2.57775e-05
-0.00349979
2.52553e-05
-0.00352451
2.47234e-05
-0.0035487
2.4182e-05
-0.00357233
2.36321e-05
-0.0035954
2.30736e-05
-0.00361791
2.25063e-05
-0.00363984
2.19284e-05
-0.00366118
2.13389e-05
-0.00368192
2.07399e-05
-0.00370206
2.01427e-05
-0.00372163
1.9571e-05
-0.00374069
1.90591e-05
-0.00375933
1.86415e-05
-0.00377767
1.83364e-05
-0.0037958
1.81353e-05
-0.0038138
1.80009e-05
-0.00383168
1.78731e-05
-0.00384937
1.76934e-05
-0.0038668
1.74258e-05
-0.00388386
1.70639e-05
-0.00390048
1.66247e-05
-0.00391662
1.61361e-05
-0.00393224
1.56239e-05
-0.00394735
1.51043e-05
-0.00396193
1.45848e-05
-0.003976
1.40681e-05
-0.00398956
1.35578e-05
-0.00400262
1.30598e-05
-0.0040152
1.2581e-05
-0.00402732
1.21248e-05
-0.00403901
1.16873e-05
-0.00405027
1.12572e-05
-0.00406109
1.08203e-05
-0.00407145
1.03652e-05
-0.00408134
9.8854e-06
-0.00409072
9.3781e-06
-0.00409956
8.84229e-06
-0.00410784
8.27728e-06
-0.00411552
7.68467e-06
-0.00412259
7.06834e-06
-0.004129
6.40905e-06
-0.00413472
5.72257e-06
-0.00413972
5.00198e-06
-0.00414396
4.24084e-06
-0.0041474
3.43327e-06
-0.00414997
2.57455e-06
-0.00415163
1.66144e-06
-0.00415232
6.85185e-07
-0.00415197
-3.50779e-07
-0.00415064
-1.32816e-06
-0.00414835
-2.29116e-06
-0.00414516
-3.18801e-06
-0.00414116
-4.00331e-06
-0.00413642
-4.73882e-06
-0.00413101
-5.40563e-06
-0.00412499
-6.01889e-06
-0.0041184
-6.59347e-06
-0.00411126
-7.14164e-06
-0.00410358
-7.67449e-06
-0.00409538
-8.20028e-06
-0.00408666
-8.72568e-06
-0.0040774
-9.25747e-06
-0.0040676
-9.80296e-06
-0.00405723
-1.03706e-05
-0.00404626
-1.09715e-05
-0.00403464
-1.16189e-05
-0.00402231
-1.23307e-05
-0.00400918
-1.31255e-05
-0.00399516
-1.40222e-05
-0.00398013
-1.50289e-05
-0.00396399
-1.61391e-05
-0.00394667
-1.73227e-05
-0.00392814
-1.85288e-05
-0.00390845
-1.96908e-05
-0.00388771
-2.07403e-05
-0.00386609
-2.16216e-05
-0.00384378
-2.23038e-05
-0.003821
-2.27871e-05
-0.0037979
-2.31008e-05
-0.0037746
-2.32955e-05
-0.00375117
-2.34317e-05
-0.0037276
-2.35664e-05
-0.00370386
-2.37414e-05
-0.00367988
-2.39797e-05
-0.0036556
-2.42848e-05
-0.00363095
-2.46468e-05
-0.0036059
-2.50499e-05
-0.00358042
-2.54783e-05
-0.0035545
-2.59204e-05
-0.00352813
-2.63696e-05
-0.00350131
-2.68226e-05
-0.00347403
-2.72776e-05
-0.0034463
-2.77341e-05
-0.00341811
-2.81903e-05
-0.00338946
-2.86436e-05
-0.00336037
-2.90907e-05
-0.00333084
-2.95285e-05
-0.00330089
-2.99541e-05
-0.00327052
-3.03657e-05
-0.00323976
-3.07618e-05
-0.00320862
-3.11413e-05
-0.00317712
-3.15036e-05
-0.00314527
-3.18477e-05
-0.0031131
-3.21729e-05
-0.00308062
-3.24782e-05
-0.00304785
-3.27632e-05
-0.00301483
-3.30269e-05
-0.00298156
-3.32682e-05
-0.00294807
-3.3486e-05
-0.00291439
-3.36793e-05
-0.00288055
-3.38468e-05
-0.00284656
-3.39875e-05
-0.00281246
-3.41e-05
-0.00277828
-3.41832e-05
-0.00274404
-3.42355e-05
-0.00270979
-3.42549e-05
-0.00267555
-3.42389e-05
-0.00264136
-3.41843e-05
-0.00260728
-3.40871e-05
-0.00257333
-3.39429e-05
-0.00253959
-3.37476e-05
-0.00250609
-3.34975e-05
-0.0024729
-3.31892e-05
-0.00244008
-3.28196e-05
-0.00240769
-3.23868e-05
-0.0023758
-3.18923e-05
-0.00234446
-3.13446e-05
-0.00231369
-3.07615e-05
-0.00228353
-3.01689e-05
-0.00225393
-2.9593e-05
-0.00222488
-2.90494e-05
-0.00219635
-2.85348e-05
-0.00216832
-2.80262e-05
-0.00214083
-2.749e-05
-0.00211394
-2.68934e-05
-0.00208773
-2.62132e-05
-0.00206229
-2.5437e-05
-0.00203773
-2.456e-05
-0.00201415
-2.35796e-05
-0.00199166
-2.24928e-05
-0.00197036
-2.12956e-05
-0.00195037
-1.99854e-05
-0.00193181
-1.85629e-05
-0.00191478
-1.70349e-05
-0.00189936
-1.54147e-05
-0.00188564
-1.37234e-05
-0.00187365
-1.19896e-05
-0.0018634
-1.02471e-05
-0.00185487
-8.53347e-06
-0.00184798
-6.89165e-06
-0.0018426
-5.37315e-06
-0.00183856
-4.04195e-06
-0.00183559
-2.9736e-06
-0.00183334
-2.25043e-06
-0.00183138
-1.95627e-06
-0.00182921
-2.175e-06
-0.00182622
-2.98996e-06
-0.00182175
-4.46649e-06
-0.00181512
-6.63055e-06
-0.00180571
-9.41351e-06
-0.00179309
-1.26184e-05
-0.00177716
-1.59253e-05
-0.0017582
-1.89588e-05
-0.0017368
-2.13993e-05
-0.00171373
-2.30751e-05
-0.00168973
-2.39996e-05
-0.00166539
-2.43398e-05
-0.00164105
-2.43398e-05
-0.00161681
-2.42415e-05
-0.00159258
-2.42291e-05
-0.00156817
-2.44069e-05
-0.00154337
-2.48043e-05
-0.00151797
-2.53943e-05
-0.00149186
-2.61159e-05
-0.00146496
-2.68991e-05
-0.00143727
-2.76906e-05
-0.00140881
-2.84616e-05
-0.0013796
-2.92039e-05
-0.00134968
-2.99197e-05
-0.00131907
-3.06114e-05
-0.00128779
-3.12778e-05
-0.00125588
-3.19129e-05
-0.00122337
-3.25101e-05
-0.0011903
-3.3067e-05
-0.00115672
-3.35853e-05
-0.00112265
-3.40704e-05
-0.00108812
-3.453e-05
-0.00105315
-3.4969e-05
-0.00101776
-3.53878e-05
-0.000981974
-3.57871e-05
-0.000945808
-3.61667e-05
-0.000909284
-3.65232e-05
-0.000872425
-3.68589e-05
-0.000835248
-3.71775e-05
-0.00079777
-3.74776e-05
-0.000760009
-3.77618e-05
-0.000721976
-3.80321e-05
-0.000683685
-3.82918e-05
-0.00064514
-3.85442e-05
-0.000606349
-3.8791e-05
-0.000567316
-3.90329e-05
-0.000528046
-3.92705e-05
-0.000488545
-3.95014e-05
-0.00044882
-3.9725e-05
-0.000408877
-3.99425e-05
-0.000368727
-4.01499e-05
-0.000328385
-4.0342e-05
-0.000287881
-4.05042e-05
-0.00024725
-4.06315e-05
-0.000206496
-4.07534e-05
-0.000165525
-4.09715e-05
-0.000124087
-4.14375e-05
-8.13375e-05
-4.27498e-05
-3.69622e-05
-4.43753e-05
-3.69622e-05
-3.22797e-05
5.384e-05
-4.83104e-05
2.20426e-05
-6.79434e-05
2.79532e-05
-9.17729e-05
3.58208e-05
-0.000117104
3.88352e-05
-0.000142347
3.89378e-05
-0.000167165
3.83049e-05
-0.000191653
3.77736e-05
-0.000215898
3.73909e-05
-0.000239912
3.70446e-05
-0.000263677
3.66819e-05
-0.00028718
3.63049e-05
-0.000310418
3.59304e-05
-0.000333397
3.55732e-05
-0.000356126
3.52438e-05
-0.000378619
3.49513e-05
-0.000400893
3.47037e-05
-0.000422965
3.4508e-05
-0.000444856
3.43696e-05
-0.000466587
3.4293e-05
-0.000488178
3.42815e-05
-0.000509651
3.43368e-05
-0.000531023
3.44598e-05
-0.000552313
3.46496e-05
-0.000573538
3.49038e-05
-0.00059471
3.52194e-05
-0.000615842
3.55925e-05
-0.000636943
3.60185e-05
-0.00065802
3.64926e-05
-0.000679078
3.70093e-05
-0.00070012
3.75627e-05
-0.000721147
3.81466e-05
-0.000742158
3.87544e-05
-0.000763151
3.93804e-05
-0.000784122
4.00199e-05
-0.000805066
4.0669e-05
-0.000825976
4.13256e-05
-0.000846844
4.19892e-05
-0.000867657
4.26603e-05
-0.000888405
4.33387e-05
-0.000909083
4.40215e-05
-0.00092969
4.47031e-05
-0.000950233
4.53756e-05
-0.000970722
4.60308e-05
-0.000991171
4.66625e-05
-0.00101159
4.72675e-05
-0.00103201
4.78459e-05
-0.00105243
4.83994e-05
-0.00107286
4.89303e-05
-0.0010933
4.94413e-05
-0.00111376
4.99343e-05
-0.00113424
5.04086e-05
-0.00115475
5.08602e-05
-0.00117534
5.12822e-05
-0.00119608
5.16668e-05
-0.0012171
5.20093e-05
-0.00123853
5.23105e-05
-0.00126051
5.2579e-05
-0.00128317
5.2829e-05
-0.00130656
5.30775e-05
-0.0013307
5.33398e-05
-0.00135555
5.36266e-05
-0.00138106
5.39431e-05
-0.00140717
5.42901e-05
-0.00143382
5.46653e-05
-0.00146096
5.50656e-05
-0.00148856
5.54871e-05
-0.00151659
5.59269e-05
-0.00154503
5.63825e-05
-0.00157386
5.6852e-05
-0.00160307
5.73338e-05
-0.00163265
5.78266e-05
-0.0016626
5.83288e-05
-0.00169289
5.88395e-05
-0.00172354
5.93572e-05
-0.00175453
5.98808e-05
-0.00178586
6.04093e-05
-0.0018175
6.09402e-05
-0.00184947
6.14727e-05
-0.00188173
6.20031e-05
-0.00191431
6.2529e-05
-0.00194718
6.30458e-05
-0.00198035
6.35499e-05
-0.00201381
6.40377e-05
-0.00204756
6.45083e-05
-0.00208158
6.4962e-05
-0.00211584
6.54018e-05
-0.00215034
6.58329e-05
-0.00218505
6.62598e-05
-0.00221995
6.66887e-05
-0.00225502
6.71213e-05
-0.00229027
6.75588e-05
-0.00232568
6.79974e-05
-0.00236127
6.84324e-05
-0.00239702
6.88566e-05
-0.00243295
6.92623e-05
-0.00246906
6.9645e-05
-0.00250534
6.99989e-05
-0.00254179
7.03186e-05
-0.0025784
7.06028e-05
-0.00261515
7.0849e-05
-0.00265203
7.10554e-05
-0.00268902
7.1221e-05
-0.0027261
7.13449e-05
-0.00276325
7.14263e-05
-0.00280045
7.14649e-05
-0.00283768
7.14603e-05
-0.00287491
7.14121e-05
-0.00291211
7.132e-05
-0.00294927
7.11838e-05
-0.00298636
7.10032e-05
-0.00302335
7.07776e-05
-0.00306021
7.05064e-05
-0.00309693
7.01891e-05
-0.00313348
6.98253e-05
-0.00316982
6.94152e-05
-0.00320594
6.89599e-05
-0.00324181
6.84588e-05
-0.0032774
6.79117e-05
-0.00331268
6.7319e-05
-0.00334764
6.66809e-05
-0.00338223
6.59988e-05
-0.00341644
6.52732e-05
-0.00345024
6.45046e-05
-0.00348361
6.36945e-05
-0.00351652
6.2843e-05
-0.00354894
6.19517e-05
-0.00358085
6.10211e-05
-0.00361223
6.00527e-05
-0.00364306
5.90468e-05
-0.00367331
5.80051e-05
-0.00370296
5.69281e-05
-0.00373198
5.58169e-05
-0.00376036
5.46716e-05
-0.00378808
5.34933e-05
-0.00381511
5.22824e-05
-0.00384142
5.10393e-05
-0.003867
4.97638e-05
-0.00389183
4.84557e-05
-0.00391587
4.7114e-05
-0.0039391
4.57376e-05
-0.0039615
4.43249e-05
-0.00398303
4.2875e-05
-0.00400368
4.13889e-05
-0.00402341
3.98727e-05
-0.00404218
3.83398e-05
-0.00405993
3.68125e-05
-0.00407661
3.53185e-05
-0.00409216
3.38828e-05
-0.00410654
3.25179e-05
-0.00411976
3.12207e-05
-0.00413186
2.99706e-05
-0.0041429
2.87374e-05
-0.00415297
2.74939e-05
-0.00416213
2.62239e-05
-0.00417043
2.49237e-05
-0.00417789
2.35992e-05
-0.00418453
2.22595e-05
-0.00419034
2.09124e-05
-0.00419531
1.95628e-05
-0.00419946
1.82139e-05
-0.00420277
1.68676e-05
-0.00420523
1.55257e-05
-0.00420684
1.41903e-05
-0.00420758
1.28625e-05
-0.00420744
1.15422e-05
-0.00420641
1.02279e-05
-0.00420451
8.91807e-06
-0.00420175
7.61176e-06
-0.00419817
6.3086e-06
-0.00419381
5.00854e-06
-0.00418868
3.71244e-06
-0.00418282
2.42286e-06
-0.00417628
1.14463e-06
-0.00416915
-5.8633e-08
-0.00416133
-1.41398e-06
-0.00415288
-2.72403e-06
-0.00414385
-4.03022e-06
-0.00413427
-5.33747e-06
-0.00412419
-6.64666e-06
-0.00411366
-7.95594e-06
-0.00410274
-9.26048e-06
-0.00409151
-1.05511e-05
-0.00408004
-1.18122e-05
-0.00406834
-1.30355e-05
-0.00405639
-1.42341e-05
-0.00404418
-1.54054e-05
-0.00403163
-1.65462e-05
-0.00401872
-1.76562e-05
-0.00400538
-1.87373e-05
-0.00399161
-1.97931e-05
-0.00397738
-2.08282e-05
-0.00396267
-2.18462e-05
-0.00394749
-2.2853e-05
-0.00393184
-2.38524e-05
-0.00391572
-2.48489e-05
-0.00389913
-2.58482e-05
-0.00388207
-2.68564e-05
-0.00386456
-2.78812e-05
-0.0038466
-2.89316e-05
-0.0038282
-3.00166e-05
-0.00380939
-3.11454e-05
-0.00379019
-3.23252e-05
-0.00377065
-3.35582e-05
-0.00375084
-3.48399e-05
-0.00373083
-3.61548e-05
-0.00371067
-3.74774e-05
-0.00369043
-3.87732e-05
-0.00367011
-4.00044e-05
-0.00364972
-4.11359e-05
-0.0036292
-4.21432e-05
-0.00360848
-4.30173e-05
-0.0035875
-4.37675e-05
-0.00356619
-4.44189e-05
-0.00354447
-4.50078e-05
-0.00352233
-4.55727e-05
-0.00349975
-4.61486e-05
-0.00347673
-4.6758e-05
-0.0034533
-4.74125e-05
-0.00342947
-4.81121e-05
-0.00340527
-4.88492e-05
-0.00338071
-4.96113e-05
-0.0033558
-5.03858e-05
-0.00333056
-5.1161e-05
-0.003305
-5.19299e-05
-0.00327914
-5.26871e-05
-0.00325298
-5.343e-05
-0.00322656
-5.4156e-05
-0.00319989
-5.48634e-05
-0.00317298
-5.55495e-05
-0.00314586
-5.62119e-05
-0.00311854
-5.68484e-05
-0.00309104
-5.74568e-05
-0.00306337
-5.80358e-05
-0.00303555
-5.85846e-05
-0.00300758
-5.91027e-05
-0.0029795
-5.959e-05
-0.0029513
-6.00463e-05
-0.002923
-6.04722e-05
-0.00289461
-6.08678e-05
-0.00286614
-6.12333e-05
-0.0028376
-6.15688e-05
-0.00280899
-6.18746e-05
-0.00278033
-6.21511e-05
-0.00275161
-6.23988e-05
-0.00272284
-6.26184e-05
-0.00269401
-6.28104e-05
-0.00266514
-6.29757e-05
-0.00263621
-6.31145e-05
-0.00260721
-6.32275e-05
-0.00257815
-6.33152e-05
-0.00254901
-6.33783e-05
-0.00251978
-6.3417e-05
-0.00249044
-6.34319e-05
-0.00246096
-6.34233e-05
-0.00243131
-6.33914e-05
-0.00240147
-6.33364e-05
-0.0023714
-6.32587e-05
-0.00234107
-6.31584e-05
-0.00231042
-6.30354e-05
-0.00227942
-6.28901e-05
-0.00224804
-6.27231e-05
-0.00221627
-6.25345e-05
-0.00218411
-6.23238e-05
-0.00215162
-6.20891e-05
-0.00211884
-6.18275e-05
-0.00208584
-6.15342e-05
-0.00205266
-6.12028e-05
-0.00201933
-6.08257e-05
-0.00198583
-6.03948e-05
-0.00195214
-5.99017e-05
-0.00191824
-5.93384e-05
-0.0018841
-5.86969e-05
-0.00184971
-5.79683e-05
-0.00181506
-5.71421e-05
-0.00178015
-5.62068e-05
-0.00174498
-5.51513e-05
-0.00170958
-5.39651e-05
-0.00167398
-5.26395e-05
-0.00163822
-5.11699e-05
-0.00160239
-4.9558e-05
-0.00156656
-4.78141e-05
-0.00153085
-4.59597e-05
-0.00149535
-4.40297e-05
-0.00146017
-4.20744e-05
-0.00142538
-4.01606e-05
-0.00139105
-3.83721e-05
-0.00135722
-3.6808e-05
-0.00132389
-3.5577e-05
-0.00129107
-3.47746e-05
-0.0012588
-3.44496e-05
-0.00122716
-3.46301e-05
-0.00119627
-3.53558e-05
-0.00116629
-3.66153e-05
-0.00113736
-3.83409e-05
-0.00110957
-4.04059e-05
-0.00108286
-4.26353e-05
-0.00105699
-4.48343e-05
-0.00103156
-4.68265e-05
-0.00100615
-4.84855e-05
-0.000980398
-4.97487e-05
-0.000954126
-5.06118e-05
-0.000927351
-5.11155e-05
-0.000900257
-5.13351e-05
-0.000873116
-5.13702e-05
-0.000846193
-5.13297e-05
-0.000819687
-5.1311e-05
-0.000793697
-5.13838e-05
-0.000768231
-5.15822e-05
-0.000743221
-5.19086e-05
-0.000718566
-5.23457e-05
-0.00069416
-5.28672e-05
-0.000669919
-5.34451e-05
-0.000645787
-5.40519e-05
-0.000621737
-5.46617e-05
-0.000597764
-5.52502e-05
-0.000573883
-5.57944e-05
-0.000550117
-5.62759e-05
-0.000526496
-5.66875e-05
-0.000503052
-5.70297e-05
-0.000479814
-5.73089e-05
-0.00045681
-5.75332e-05
-0.000434073
-5.77069e-05
-0.000411632
-5.78283e-05
-0.000389525
-5.78948e-05
-0.000367788
-5.79037e-05
-0.000346458
-5.78527e-05
-0.000325575
-5.77416e-05
-0.000305179
-5.75735e-05
-0.000285307
-5.73504e-05
-0.000265992
-5.70761e-05
-0.000247267
-5.67574e-05
-0.000229153
-5.64058e-05
-0.000211666
-5.60315e-05
-0.000194811
-5.56457e-05
-0.000178588
-5.52558e-05
-0.000162991
-5.48678e-05
-0.000148005
-5.44871e-05
-0.000133611
-5.41194e-05
-0.000119778
-5.37749e-05
-0.000106472
-5.34566e-05
-9.36404e-05
-5.31732e-05
-8.12165e-05
-5.29281e-05
-6.91114e-05
-5.27366e-05
-5.7254e-05
-5.26107e-05
-4.57065e-05
-5.2519e-05
-3.47893e-05
-5.23548e-05
-2.4179e-05
-5.33601e-05
-1.15858e-05
-5.69685e-05
-4.8548e-05
-3.05348e-05
8.43749e-05
-4.396e-05
3.54677e-05
-6.05369e-05
4.45302e-05
-8.15944e-05
5.68783e-05
-0.000104525
6.17663e-05
-0.000127478
6.18898e-05
-0.000149945
6.07719e-05
-0.000171995
5.9824e-05
-0.00019376
5.91555e-05
-0.000215284
5.85687e-05
-0.000236561
5.79592e-05
-0.000257581
5.73248e-05
-0.000278341
5.66912e-05
-0.000298851
5.60828e-05
-0.000319124
5.55163e-05
-0.000339176
5.50039e-05
-0.000359028
5.45557e-05
-0.000378701
5.4181e-05
-0.000398218
5.38867e-05
-0.000417604
5.36783e-05
-0.00043688
5.35584e-05
-0.000456072
5.35284e-05
-0.0004752
5.35874e-05
-0.000494284
5.37335e-05
-0.000513343
5.39635e-05
-0.000532396
5.42723e-05
-0.000551458
5.46541e-05
-0.000570542
5.51025e-05
-0.00058966
5.56108e-05
-0.000608823
5.61725e-05
-0.000628041
5.67806e-05
-0.000647323
5.74286e-05
-0.000666678
5.81091e-05
-0.000686113
5.88157e-05
-0.000705636
5.95427e-05
-0.000725253
6.02856e-05
-0.000744968
6.10413e-05
-0.000764787
6.18081e-05
-0.000784713
6.25858e-05
-0.000804749
6.33746e-05
-0.000824901
6.41737e-05
-0.000845178
6.498e-05
-0.00086559
6.57882e-05
-0.000886152
6.65923e-05
-0.000906877
6.73875e-05
-0.00092778
6.81709e-05
-0.000948875
6.89407e-05
-0.000970172
6.96966e-05
-0.000991681
7.04389e-05
-0.00101341
7.11689e-05
-0.00103536
7.18889e-05
-0.00105756
7.26025e-05
-0.00108001
7.33145e-05
-0.00110276
7.40293e-05
-0.00112584
7.47493e-05
-0.00114931
7.54733e-05
-0.00117319
7.61973e-05
-0.00119753
7.69151e-05
-0.00122232
7.76204e-05
-0.00124755
7.83087e-05
-0.00127319
7.89795e-05
-0.0012992
7.9637e-05
-0.00132555
8.02887e-05
-0.0013522
8.0943e-05
-0.00137914
8.1607e-05
-0.00140636
8.22851e-05
-0.00143385
8.29797e-05
-0.00146162
8.36914e-05
-0.00148966
8.442e-05
-0.00151797
8.51649e-05
-0.00154656
8.59251e-05
-0.00157543
8.66995e-05
-0.00160459
8.74866e-05
-0.00163404
8.82848e-05
-0.00166377
8.9092e-05
-0.0016938
8.99061e-05
-0.00172411
9.0725e-05
-0.00175472
9.15471e-05
-0.00178562
9.23706e-05
-0.00181681
9.31934e-05
-0.00184829
9.40131e-05
-0.00188007
9.4826e-05
-0.00191215
9.56278e-05
-0.00194452
9.64135e-05
-0.0019772
9.71796e-05
-0.00201016
9.79242e-05
-0.0020434
9.86471e-05
-0.00207692
9.93507e-05
-0.0021107
0.000100039
-0.00214473
0.000100715
-0.00217899
0.000101382
-0.00221347
0.00010204
-0.00224816
0.000102686
-0.00228304
0.000103317
-0.00231811
0.000103925
-0.00235335
0.000104503
-0.00238875
0.000105046
-0.0024243
0.000105547
-0.00245998
0.000106002
-0.00249579
0.000106407
-0.0025317
0.000106759
-0.0025677
0.000107055
-0.00260377
0.000107294
-0.0026399
0.000107474
-0.00267607
0.000107592
-0.00271225
0.000107649
-0.00274843
0.000107642
-0.00278459
0.000107572
-0.00282071
0.000107436
-0.00285676
0.000107234
-0.00289272
0.000106966
-0.00292857
0.000106629
-0.00296429
0.000106225
-0.00299985
0.000105751
-0.00303524
0.000105209
-0.00307042
0.000104598
-0.00310538
0.000103917
-0.00314008
0.000103166
-0.00317452
0.000102348
-0.00320866
0.00010146
-0.00324248
0.000100504
-0.00327597
9.94817e-05
-0.00330909
9.83933e-05
-0.00334182
9.72394e-05
-0.00337415
9.6022e-05
-0.00340605
9.47419e-05
-0.0034375
9.34011e-05
-0.00346848
9.20006e-05
-0.00349897
9.05424e-05
-0.00352895
8.90277e-05
-0.0035584
8.74587e-05
-0.00358731
8.58367e-05
-0.00361566
8.41638e-05
-0.00364342
8.24412e-05
-0.0036706
8.06707e-05
-0.00369717
7.88539e-05
-0.00372313
7.69924e-05
-0.00374845
7.50874e-05
-0.00377314
7.31406e-05
-0.00379718
7.11536e-05
-0.00382057
6.91281e-05
-0.00384331
6.70655e-05
-0.0038654
6.49671e-05
-0.00388684
6.2833e-05
-0.00390763
6.06638e-05
-0.00392776
5.84639e-05
-0.00394719
5.62458e-05
-0.0039659
5.40306e-05
-0.00398387
5.18448e-05
-0.00400106
4.97086e-05
-0.00401746
4.76299e-05
-0.00403309
4.55984e-05
-0.00404795
4.35916e-05
-0.00406204
4.1584e-05
-0.00407537
3.95568e-05
-0.00408795
3.75011e-05
-0.00409977
3.54188e-05
-0.00411082
3.33167e-05
-0.00412111
3.1203e-05
-0.00413064
2.90838e-05
-0.00413938
2.69626e-05
-0.00414736
2.4841e-05
-0.00415455
2.27194e-05
-0.00416096
2.05983e-05
-0.00416658
1.84791e-05
-0.0041714
1.63643e-05
-0.00417543
1.42565e-05
-0.00417867
1.21577e-05
-0.00418112
1.00683e-05
-0.0041828
7.98813e-06
-0.00418371
5.9168e-06
-0.00418385
3.85211e-06
-0.00418322
1.78899e-06
-0.00418175
-3.25606e-07
-0.00417948
-2.32754e-06
-0.00417653
-4.36641e-06
-0.00417285
-6.39769e-06
-0.00416846
-8.41847e-06
-0.00416337
-1.04257e-05
-0.00415761
-1.24162e-05
-0.00415118
-1.43857e-05
-0.00414411
-1.63303e-05
-0.00413641
-1.82456e-05
-0.0041281
-2.01264e-05
-0.00411916
-2.19732e-05
-0.0041096
-2.37926e-05
-0.00409942
-2.55883e-05
-0.0040886
-2.73617e-05
-0.00407715
-2.9111e-05
-0.00406505
-3.08355e-05
-0.00405231
-3.25342e-05
-0.00403893
-3.42065e-05
-0.00402492
-3.58541e-05
-0.0040103
-3.74785e-05
-0.00399507
-3.90822e-05
-0.00397925
-4.06688e-05
-0.00396285
-4.22423e-05
-0.0039459
-4.38067e-05
-0.00392842
-4.5367e-05
-0.00391042
-4.69286e-05
-0.00389194
-4.84966e-05
-0.00387301
-5.00752e-05
-0.00385367
-5.16675e-05
-0.00383395
-5.32724e-05
-0.00381391
-5.48843e-05
-0.00379357
-5.64901e-05
-0.00377298
-5.80693e-05
-0.00375216
-5.95965e-05
-0.00373112
-6.1046e-05
-0.00370986
-6.23973e-05
-0.00368836
-6.36399e-05
-0.0036666
-6.47772e-05
-0.00364454
-6.58265e-05
-0.00362214
-6.68156e-05
-0.00359937
-6.77762e-05
-0.00357621
-6.87373e-05
-0.00355264
-6.97199e-05
-0.00352866
-7.07339e-05
-0.0035043
-7.17789e-05
-0.00347956
-7.28463e-05
-0.00345449
-7.39235e-05
-0.0034291
-7.49998e-05
-0.00340342
-7.60653e-05
-0.00337747
-7.71136e-05
-0.00335126
-7.81403e-05
-0.0033248
-7.91421e-05
-0.00329812
-8.01158e-05
-0.00327121
-8.10587e-05
-0.00324411
-8.19679e-05
-0.00321682
-8.28405e-05
-0.00318936
-8.36744e-05
-0.00316174
-8.44675e-05
-0.00313397
-8.52188e-05
-0.00310608
-8.59278e-05
-0.00307807
-8.65936e-05
-0.00304996
-8.72171e-05
-0.00302175
-8.77975e-05
-0.00299346
-8.8336e-05
-0.0029651
-8.88319e-05
-0.00293668
-8.92864e-05
-0.00290822
-8.96998e-05
-0.00287971
-9.00728e-05
-0.00285118
-9.04063e-05
-0.00282263
-9.07014e-05
-0.00279407
-9.09592e-05
-0.00276551
-9.11806e-05
-0.00273695
-9.1367e-05
-0.00270841
-9.15197e-05
-0.00267988
-9.16404e-05
-0.00265138
-9.17304e-05
-0.0026229
-9.17912e-05
-0.00259446
-9.18249e-05
-0.00256604
-9.18329e-05
-0.00253766
-9.18177e-05
-0.0025093
-9.1782e-05
-0.00248096
-9.17278e-05
-0.00245264
-9.16575e-05
-0.00242432
-9.1573e-05
-0.00239601
-9.14767e-05
-0.00236767
-9.13711e-05
-0.0023393
-9.12577e-05
-0.00231089
-9.11368e-05
-0.00228242
-9.10053e-05
-0.00225389
-9.08569e-05
-0.00222529
-9.06833e-05
-0.00219664
-9.04772e-05
-0.00216794
-9.02343e-05
-0.00213919
-8.9955e-05
-0.00211037
-8.96427e-05
-0.00208147
-8.93005e-05
-0.00205244
-8.89296e-05
-0.00202325
-8.85278e-05
-0.00199386
-8.80909e-05
-0.00196421
-8.7614e-05
-0.00193426
-8.70917e-05
-0.00190395
-8.65192e-05
-0.00187321
-8.58912e-05
-0.00184197
-8.52019e-05
-0.00181016
-8.44454e-05
-0.00177772
-8.3616e-05
-0.00174457
-8.27088e-05
-0.00171066
-8.17196e-05
-0.00167597
-8.06494e-05
-0.0016405
-7.95068e-05
-0.00160426
-7.83098e-05
-0.00156733
-7.70873e-05
-0.00152983
-7.58777e-05
-0.00149191
-7.4724e-05
-0.00145382
-7.36702e-05
-0.00141582
-7.27729e-05
-0.00137817
-7.2097e-05
-0.00134111
-7.16892e-05
-0.00130489
-7.15773e-05
-0.00126973
-7.17748e-05
-0.0012358
-7.22758e-05
-0.00120316
-7.3044e-05
-0.00117178
-7.40109e-05
-0.00114153
-7.50887e-05
-0.00111217
-7.61892e-05
-0.00108342
-7.72374e-05
-0.00105499
-7.81752e-05
-0.00102664
-7.89563e-05
-0.000998217
-7.95435e-05
-0.000969639
-7.99129e-05
-0.000940945
-8.00644e-05
-0.000912241
-8.00333e-05
-0.000883676
-7.98758e-05
-0.000855382
-7.96786e-05
-0.000827432
-7.95318e-05
-0.000799841
-7.94996e-05
-0.000772575
-7.96119e-05
-0.000745583
-7.98591e-05
-0.000718823
-8.02046e-05
-0.000692274
-8.06011e-05
-0.000665932
-8.10044e-05
-0.000639801
-8.13809e-05
-0.000613885
-8.17103e-05
-0.000588179
-8.19819e-05
-0.000562675
-8.21914e-05
-0.000537371
-8.23335e-05
-0.000512274
-8.2406e-05
-0.000487398
-8.24093e-05
-0.000462766
-8.2339e-05
-0.000438406
-8.21881e-05
-0.000414348
-8.19529e-05
-0.000390623
-8.16291e-05
-0.000367263
-8.1212e-05
-0.000344307
-8.06982e-05
-0.000321796
-8.00844e-05
-0.000299771
-7.9375e-05
-0.000278282
-7.85649e-05
-0.000257377
-7.76627e-05
-0.000237103
-7.66798e-05
-0.000217506
-7.56281e-05
-0.000198637
-7.45154e-05
-0.000180532
-7.33604e-05
-0.000163222
-7.21783e-05
-0.000146727
-7.09815e-05
-0.000131061
-6.97855e-05
-0.000116223
-6.8613e-05
-0.000102196
-6.74833e-05
-8.89524e-05
-6.6417e-05
-7.6444e-05
-6.54366e-05
-6.46103e-05
-6.45703e-05
-5.34137e-05
-6.38073e-05
-4.29111e-05
-6.30216e-05
-3.28306e-05
-6.24353e-05
-2.18762e-05
-6.43144e-05
-8.33051e-06
-7.05142e-05
-5.68785e-05
-2.9083e-05
0.000113458
-4.08802e-05
4.72649e-05
-5.53452e-05
5.89952e-05
-7.41899e-05
7.57229e-05
-9.49989e-05
8.25753e-05
-0.000115967
8.28583e-05
-0.000136503
8.13071e-05
-0.000156621
7.99426e-05
-0.000176433
7.89673e-05
-0.000195988
7.81236e-05
-0.000215286
7.72573e-05
-0.000234321
7.63594e-05
-0.000253096
7.54665e-05
-0.000271625
7.46115e-05
-0.000289926
7.38178e-05
-0.000308024
7.3102e-05
-0.000325948
7.24799e-05
-0.000343731
7.19634e-05
-0.000361404
7.15601e-05
-0.000379003
7.12775e-05
-0.000396565
7.11196e-05
-0.000414124
7.10878e-05
-0.000431716
7.11794e-05
-0.000449374
7.13909e-05
-0.000467126
7.17163e-05
-0.000485003
7.21489e-05
-0.000503029
7.26802e-05
-0.000521228
7.33011e-05
-0.000539619
7.40022e-05
-0.000558221
7.4774e-05
-0.000577047
7.56069e-05
-0.00059611
7.64916e-05
-0.00061542
7.74195e-05
-0.000634987
7.83824e-05
-0.000654817
7.93731e-05
-0.000674917
8.03851e-05
-0.000695289
8.14135e-05
-0.000715935
8.24546e-05
-0.000736855
8.35054e-05
-0.000758044
8.45635e-05
-0.000779496
8.56254e-05
-0.000801202
8.66867e-05
-0.000823157
8.77428e-05
-0.000845354
8.8789e-05
-0.000867788
8.98224e-05
-0.000890459
9.08412e-05
-0.000913363
9.18451e-05
-0.000936501
9.28345e-05
-0.000959873
9.38106e-05
-0.000983479
9.47749e-05
-0.00100732
9.57293e-05
-0.00103139
9.66762e-05
-0.0010557
9.76174e-05
-0.00108022
9.85541e-05
-0.00110496
9.94858e-05
-0.00112989
0.000100411
-0.00115503
0.000101328
-0.00118035
0.000102235
-0.00120586
0.000103132
-0.00123157
0.000104019
-0.00125749
0.000104902
-0.00128364
0.000105783
-0.00131002
0.00010667
-0.00133664
0.000107567
-0.00136351
0.000108477
-0.00139063
0.000109403
-0.001418
0.000110346
-0.00144561
0.000111309
-0.00147348
0.00011229
-0.00150161
0.00011329
-0.00152999
0.000114308
-0.00155863
0.000115343
-0.00158754
0.000116394
-0.00161672
0.000117459
-0.00164616
0.000118537
-0.00167588
0.000119626
-0.00170588
0.000120723
-0.00173616
0.000121826
-0.00176672
0.000122932
-0.00179756
0.000124038
-0.00182869
0.000125141
-0.0018601
0.000126237
-0.0018918
0.000127324
-0.00192378
0.000128396
-0.00195605
0.000129453
-0.00198862
0.000130491
-0.00202148
0.000131509
-0.00205464
0.000132505
-0.00208808
0.000133479
-0.00212179
0.000134432
-0.00215577
0.00013536
-0.00218999
0.000136262
-0.00222444
0.000137135
-0.0022591
0.000137973
-0.00229394
0.000138772
-0.00232897
0.000139528
-0.00236416
0.000140232
-0.00239949
0.000140882
-0.00243496
0.000141474
-0.00247055
0.000141999
-0.00250625
0.000142458
-0.00254204
0.000142846
-0.00257791
0.00014316
-0.00261384
0.000143398
-0.0026498
0.000143558
-0.00268579
0.000143636
-0.00272178
0.000143631
-0.00275775
0.000143542
-0.00279368
0.000143367
-0.00282955
0.000143104
-0.00286534
0.000142753
-0.00290102
0.000142313
-0.00293658
0.000141782
-0.00297199
0.000141161
-0.00300723
0.000140448
-0.00304227
0.000139643
-0.0030771
0.000138747
-0.0031117
0.000137759
-0.00314603
0.000136681
-0.00318008
0.000135512
-0.00321383
0.000134253
-0.00324725
0.000132906
-0.00328033
0.000131471
-0.00331304
0.00012995
-0.00334536
0.000128345
-0.00337728
0.000126657
-0.00340877
0.000124887
-0.0034398
0.000123039
-0.00347037
0.000121113
-0.00350046
0.000119112
-0.00353004
0.000117038
-0.0035591
0.000114894
-0.00358761
0.000112681
-0.00361557
0.000110401
-0.00364296
0.000108058
-0.00366976
0.000105653
-0.00369596
0.000103189
-0.00372154
0.000100668
-0.00374649
9.80925e-05
-0.0037708
9.54651e-05