/*--------------------------------*- C++ -*----------------------------------*\
| =========                 |                                                 |
| \\      /  F ield         | OpenFOAM: The Open Source CFD Toolbox           |
|  \\    /   O peration     | Version:  v2006                                 |
|   \\  /    A nd           | Website:  www.openfoam.com                      |
|    \\/     M anipulation  |                                                 |
\*---------------------------------------------------------------------------*/
FoamFile
{
    version     2.0;
    format      ascii;
    class       volScalarField;
    location    "11";
    object      p;
}
// * * * * * * * * * * * * * * * * * * * * * * * * * * * * * * * * * * * * * //

dimensions      [1 -1 -2 0 0 0 0];


internalField   nonuniform List<scalar> 
52500
(
31237.5
31237.2
31236.6
31235.6
31234.4
31232.8
31230.9
31228.8
31226.3
31223.5
31220.4
31217
31213.3
31209.4
31205.1
31200.5
31195.7
31190.6
31185.2
31179.5
31173.5
31167.3
31160.8
31154.1
31147.1
31139.8
31132.3
31124.6
31116.6
31108.4
31099.9
31091.3
31082.4
31073.2
31063.9
31054.4
31044.7
31034.7
31024.6
31014.3
31003.9
30993.2
30982.4
30971.4
30960.3
30949
30937.6
30926
30914.3
30902.5
30890.6
30878.6
30866.4
30854.2
30841.8
30829.4
30816.9
30804.3
30791.7
30779
30766.3
30753.5
30740.6
30727.8
30714.9
30702
30689.1
30676.1
30663.2
30650.3
30637.5
30624.6
30611.8
30599
30586.3
30573.6
30560.9
30548.4
30535.9
30523.5
30511.1
30498.9
30486.8
30474.7
30462.8
30451
30439.3
30427.8
30416.3
30405.1
30393.9
30382.9
30372.1
30361.4
30350.9
30340.6
30330.5
30320.5
30310.7
30301.1
30291.7
30282.5
30273.5
30264.7
30256.1
30247.7
30239.5
30231.6
30223.9
30216.3
30209.1
30202
30195.2
30188.6
30182.2
30176.1
30170.2
30164.5
30159.1
30153.9
30149
30144.3
30139.8
30135.6
30131.5
30127.8
30124.2
30120.9
30117.9
30115
30112.4
30110.1
30107.9
30106
30104.3
30102.8
30101.5
30100.4
30099.6
30098.9
30098.5
30098.2
30098.2
30098.3
30098.6
30099.2
30099.9
30100.7
30101.8
30103
30104.4
30105.9
30107.6
30109.4
30111.4
30113.5
30115.8
30118.1
30120.6
30123.2
30126
30128.8
30131.7
30134.7
30137.8
30141
30144.2
30147.6
30150.9
30154.4
30157.8
30161.4
30164.9
30168.5
30172.2
30175.8
30179.5
30183.2
30186.9
30190.6
30194.3
30198
30201.6
30205.3
30208.9
30212.4
30215.9
30219.4
30222.8
30226.2
30229.5
30232.7
30235.9
30239
30242
30244.9
30247.7
30250.4
30253
30255.6
30258
30260.3
30262.5
30264.6
30266.5
30268.3
30270
30271.5
30273
30274.2
30275.3
30276.3
30277.1
30277.8
30278.3
30278.7
30278.9
30278.9
30278.8
30278.5
30278.1
30277.5
30276.7
30275.8
30274.7
30273.4
30272
30270.3
30268.6
30266.6
30264.5
30262.2
30259.8
30257.2
30254.4
30251.5
30248.4
30245.1
30241.7
30238.1
30234.4
30230.5
30226.5
30222.3
30217.9
30213.5
30208.9
30204.1
30199.2
30194.2
30189
30183.8
30178.4
30172.8
30167.2
30161.4
30155.6
30149.6
30143.5
30137.4
30131.1
30124.7
30118.3
30111.8
30105.2
30098.5
30091.8
30084.9
30078.1
30071.1
30064.2
30057.1
30050
30042.9
30035.8
30028.6
30021.4
30014.1
30006.8
29999.5
29992.2
29984.9
29977.6
29970.3
29962.9
29955.6
29948.3
29941
29933.7
29926.4
29919.1
29911.9
29904.7
29897.6
29890.5
29883.5
29876.6
29869.7
29862.9
29856.2
29849.5
29842.9
29836.4
29829.9
29823.5
29817.2
29811
29804.9
29798.9
29793
29787.2
29781.5
29775.9
29770.4
29765
29759.8
29754.7
29749.7
29744.8
29740
29735.4
29730.9
29726.6
29722.4
29718.3
29714.4
29710.6
29706.9
29703.4
29700.1
29696.9
29693.8
29690.9
29688.2
29685.6
29683.2
29680.9
29678.8
29676.8
29675
29673.4
29671.9
29670.6
29669.5
29668.5
29667.7
29667
29666.6
29666.2
29666.1
30780.5
30780.2
30779.6
30778.6
30777.4
30775.8
30773.9
30771.7
30769.3
30766.5
30763.4
30760
30756.3
30752.3
30748
30743.5
30738.6
30733.5
30728.1
30722.4
30716.4
30710.2
30703.7
30696.9
30689.9
30682.7
30675.2
30667.4
30659.4
30651.2
30642.7
30634
30625.1
30616
30606.6
30597.1
30587.4
30577.4
30567.3
30557
30546.5
30535.8
30525
30514
30502.9
30491.6
30480.1
30468.6
30456.9
30445
30433.1
30421
30408.9
30396.6
30384.2
30371.8
30359.3
30346.7
30334
30321.3
30308.5
30295.7
30282.9
30270
30257.1
30244.2
30231.2
30218.3
30205.4
30192.4
30179.5
30166.7
30153.8
30141
30128.3
30115.6
30102.9
30090.3
30077.8
30065.4
30053.1
30040.8
30028.6
30016.6
30004.7
29992.8
29981.1
29969.6
29958.1
29946.8
29935.7
29924.7
29913.8
29903.2
29892.7
29882.3
29872.1
29862.2
29852.4
29842.8
29833.3
29824.1
29815.1
29806.3
29797.7
29789.3
29781.1
29773.2
29765.4
29757.9
29750.6
29743.6
29736.8
29730.2
29723.8
29717.7
29711.8
29706.1
29700.7
29695.5
29690.5
29685.8
29681.4
29677.1
29673.1
29669.4
29665.8
29662.5
29659.5
29656.6
29654
29651.7
29649.5
29647.6
29645.9
29644.4
29643.1
29642.1
29641.2
29640.6
29640.2
29639.9
29639.9
29640
29640.4
29640.9
29641.6
29642.5
29643.5
29644.8
29646.1
29647.7
29649.4
29651.2
29653.2
29655.3
29657.5
29659.9
29662.4
29665
29667.8
29670.6
29673.5
29676.6
29679.7
29682.9
29686.2
29689.5
29692.9
29696.4
29699.9
29703.5
29707.1
29710.7
29714.4
29718
29721.7
29725.4
29729.1
29732.8
29736.5
29740.2
29743.9
29747.5
29751.1
29754.7
29758.2
29761.7
29765.2
29768.5
29771.9
29775.1
29778.3
29781.4
29784.4
29787.3
29790.2
29792.9
29795.5
29798.1
29800.5
29802.8
29805
29807.1
29809
29810.8
29812.5
29814.1
29815.5
29816.8
29817.9
29818.9
29819.7
29820.4
29820.9
29821.3
29821.5
29821.5
29821.4
29821.2
29820.7
29820.1
29819.3
29818.4
29817.3
29816
29814.6
29813
29811.2
29809.3
29807.1
29804.9
29802.4
29799.8
29797
29794.1
29791
29787.7
29784.3
29780.7
29777
29773.1
29769
29764.9
29760.5
29756
29751.4
29746.6
29741.7
29736.7
29731.6
29726.3
29720.8
29715.3
29709.7
29703.9
29698
29692
29686
29679.8
29673.5
29667.1
29660.7
29654.2
29647.5
29640.9
29634.1
29627.3
29620.4
29613.4
29606.4
29599.4
29592.3
29585.2
29578
29570.8
29563.5
29556.3
29549
29541.7
29534.4
29527.1
29519.7
29512.4
29505.1
29497.7
29490.4
29483.1
29475.7
29468.5
29461.2
29454
29446.8
29439.6
29432.6
29425.6
29418.6
29411.8
29405
29398.2
29391.5
29384.9
29378.3
29371.9
29365.5
29359.2
29353
29346.8
29340.8
29334.9
29329.1
29323.4
29317.8
29312.3
29306.9
29301.7
29296.5
29291.5
29286.7
29281.9
29277.3
29272.8
29268.4
29264.2
29260.1
29256.2
29252.4
29248.7
29245.2
29241.9
29238.7
29235.6
29232.7
29230
29227.4
29224.9
29222.7
29220.6
29218.6
29216.8
29215.2
29213.7
29212.4
29211.3
29210.3
29209.5
29208.8
29208.3
29208
29207.8
30324.3
30324
30323.4
30322.4
30321.2
30319.6
30317.7
30315.5
30313
30310.2
30307.1
30303.7
30300
30296
30291.7
30287.1
30282.3
30277.1
30271.7
30266
30260
30253.8
30247.2
30240.5
30233.4
30226.1
30218.6
30210.8
30202.8
30194.5
30186.1
30177.3
30168.4
30159.2
30149.9
30140.3
30130.5
30120.6
30110.4
30100.1
30089.6
30078.9
30068
30057
30045.8
30034.5
30023
30011.4
29999.7
29987.8
29975.8
29963.7
29951.5
29939.2
29926.8
29914.3
29901.8
29889.1
29876.4
29863.7
29850.9
29838
29825.1
29812.2
29799.3
29786.3
29773.4
29760.4
29747.4
29734.5
29721.5
29708.6
29695.7
29682.9
29670.1
29657.4
29644.7
29632.1
29619.5
29607.1
29594.7
29582.4
29570.2
29558.1
29546.2
29534.3
29522.6
29511
29499.5
29488.2
29477
29466
29455.1
29444.4
29433.9
29423.5
29413.3
29403.3
29393.5
29383.9
29374.5
29365.2
29356.2
29347.4
29338.7
29330.3
29322.2
29314.2
29306.4
29298.9
29291.6
29284.6
29277.7
29271.1
29264.7
29258.6
29252.7
29247
29241.6
29236.4
29231.5
29226.8
29222.3
29218.1
29214.1
29210.3
29206.8
29203.5
29200.4
29197.6
29195
29192.7
29190.5
29188.6
29186.9
29185.4
29184.2
29183.2
29182.3
29181.7
29181.3
29181.1
29181.1
29181.2
29181.6
29182.1
29182.9
29183.8
29184.9
29186.1
29187.5
29189.1
29190.8
29192.7
29194.7
29196.8
29199.1
29201.6
29204.1
29206.8
29209.5
29212.4
29215.4
29218.4
29221.6
29224.8
29228.1
29231.4
29234.9
29238.4
29241.9
29245.5
29249.1
29252.7
29256.4
29260.1
29263.9
29267.6
29271.3
29275.1
29278.8
29282.5
29286.2
29289.9
29293.5
29297.1
29300.7
29304.2
29307.7
29311.1
29314.4
29317.7
29320.9
29324
29327.1
29330
29332.9
29335.6
29338.3
29340.9
29343.3
29345.6
29347.8
29349.9
29351.9
29353.7
29355.4
29357
29358.4
29359.7
29360.9
29361.9
29362.7
29363.4
29363.9
29364.3
29364.5
29364.6
29364.5
29364.2
29363.8
29363.2
29362.4
29361.5
29360.4
29359.1
29357.7
29356
29354.3
29352.3
29350.2
29347.9
29345.5
29342.8
29340.1
29337.1
29334
29330.7
29327.3
29323.7
29320
29316.1
29312
29307.8
29303.4
29298.9
29294.3
29289.5
29284.6
29279.6
29274.4
29269.1
29263.6
29258.1
29252.4
29246.6
29240.7
29234.7
29228.6
29222.4
29216.1
29209.7
29203.3
29196.7
29190.1
29183.3
29176.6
29169.7
29162.8
29155.8
29148.8
29141.7
29134.6
29127.4
29120.2
29113
29105.7
29098.4
29091.1
29083.8
29076.5
29069.1
29061.7
29054.4
29047
29039.7
29032.3
29025
29017.7
29010.4
29003.2
28996
28988.8
28981.7
28974.6
28967.6
28960.6
28953.7
28946.8
28940
28933.3
28926.7
28920.1
28913.6
28907.2
28900.9
28894.7
28888.5
28882.5
28876.6
28870.7
28865
28859.4
28853.9
28848.5
28843.3
28838.1
28833.1
28828.2
28823.4
28818.8
28814.3
28809.9
28805.7
28801.6
28797.6
28793.8
28790.1
28786.6
28783.3
28780
28777
28774.1
28771.3
28768.7
28766.3
28764
28761.9
28759.9
28758.1
28756.5
28755
28753.7
28752.6
28751.6
28750.8
28750.1
28749.6
28749.3
28749.1
29869
29868.7
29868
29867.1
29865.8
29864.2
29862.3
29860.1
29857.6
29854.8
29851.7
29848.3
29844.5
29840.5
29836.2
29831.6
29826.7
29821.5
29816.1
29810.3
29804.3
29798
29791.5
29784.7
29777.6
29770.3
29762.7
29754.9
29746.8
29738.5
29730
29721.2
29712.2
29703.1
29693.6
29684
29674.2
29664.2
29654
29643.6
29633
29622.3
29611.4
29600.3
29589.1
29577.7
29566.2
29554.5
29542.7
29530.8
29518.8
29506.6
29494.4
29482
29469.6
29457
29444.4
29431.7
29419
29406.2
29393.3
29380.4
29367.5
29354.5
29341.5
29328.5
29315.5
29302.4
29289.4
29276.4
29263.4
29250.4
29237.5
29224.6
29211.8
29199
29186.3
29173.6
29161
29148.5
29136.1
29123.7
29111.5
29099.4
29087.3
29075.4
29063.7
29052
29040.5
29029.2
29017.9
29006.9
28996
28985.2
28974.6
28964.2
28954
28944
28934.1
28924.5
28915
28905.7
28896.7
28887.8
28879.2
28870.8
28862.6
28854.6
28846.8
28839.3
28832
28824.9
28818
28811.4
28805
28798.9
28793
28787.3
28781.9
28776.7
28771.7
28767
28762.6
28758.3
28754.3
28750.6
28747.1
28743.8
28740.8
28738
28735.4
28733
28730.9
28729
28727.3
28725.9
28724.7
28723.7
28722.9
28722.3
28721.9
28721.7
28721.7
28721.9
28722.3
28722.9
28723.7
28724.6
28725.7
28727
28728.4
28730.1
28731.8
28733.7
28735.8
28738
28740.3
28742.8
28745.3
28748
28750.8
28753.7
28756.7
28759.8
28763
28766.3
28769.6
28773
28776.5
28780
28783.7
28787.3
28791
28794.7
28798.4
28802.2
28806
28809.7
28813.5
28817.3
28821.1
28824.9
28828.6
28832.3
28836
28839.7
28843.3
28846.8
28850.3
28853.8
28857.2
28860.5
28863.7
28866.9
28870
28872.9
28875.8
28878.6
28881.3
28883.9
28886.4
28888.8
28891
28893.1
28895.1
28897
28898.7
28900.3
28901.8
28903.1
28904.2
28905.2
28906.1
28906.8
28907.4
28907.8
28908
28908.1
28908
28907.7
28907.3
28906.7
28905.9
28905
28903.9
28902.6
28901.2
28899.6
28897.8
28895.8
28893.7
28891.4
28889
28886.3
28883.5
28880.6
28877.4
28874.2
28870.7
28867.1
28863.3
28859.4
28855.3
28851.1
28846.7
28842.2
28837.5
28832.7
28827.8
28822.7
28817.5
28812.2
28806.7
28801.1
28795.4
28789.6
28783.7
28777.7
28771.5
28765.3
28759
28752.5
28746
28739.4
28732.8
28726
28719.2
28712.3
28705.4
28698.4
28691.3
28684.2
28677
28669.8
28662.6
28655.3
28648
28640.7
28633.3
28626
28618.6
28611.2
28603.8
28596.4
28589
28581.6
28574.3
28566.9
28559.6
28552.3
28545
28537.8
28530.6
28523.4
28516.3
28509.2
28502.2
28495.3
28488.4
28481.6
28474.9
28468.2
28461.6
28455.1
28448.7
28442.3
28436.1
28429.9
28423.9
28417.9
28412.1
28406.3
28400.7
28395.2
28389.7
28384.5
28379.3
28374.2
28369.3
28364.5
28359.9
28355.4
28351
28346.7
28342.6
28338.6
28334.8
28331.1
28327.6
28324.2
28321
28317.9
28315
28312.2
28309.6
28307.2
28304.9
28302.7
28300.8
28299
28297.3
28295.8
28294.5
28293.4
28292.4
28291.6
28290.9
28290.4
28290.1
28289.9
29414.5
29414.1
29413.5
29412.6
29411.3
29409.7
29407.8
29405.6
29403
29400.2
29397
29393.6
29389.8
29385.8
29381.4
29376.8
29371.9
29366.6
29361.1
29355.4
29349.3
29343
29336.4
29329.5
29322.4
29315
29307.4
29299.5
29291.4
29283.1
29274.5
29265.7
29256.6
29247.4
29237.9
29228.3
29218.4
29208.3
29198
29187.6
29177
29166.2
29155.2
29144
29132.7
29121.3
29109.7
29098
29086.1
29074.1
29062
29049.8
29037.5
29025
29012.5
28999.9
28987.2
28974.5
28961.6
28948.7
28935.8
28922.8
28909.8
28896.8
28883.7
28870.6
28857.5
28844.4
28831.3
28818.2
28805.2
28792.1
28779.1
28766.2
28753.3
28740.4
28727.6
28714.9
28702.2
28689.6
28677.1
28664.7
28652.4
28640.2
28628.2
28616.2
28604.4
28592.7
28581.1
28569.7
28558.4
28547.3
28536.3
28525.5
28514.9
28504.5
28494.2
28484.1
28474.2
28464.5
28455
28445.7
28436.6
28427.7
28419.1
28410.6
28402.4
28394.4
28386.6
28379
28371.7
28364.6
28357.7
28351.1
28344.7
28338.5
28332.6
28326.9
28321.5
28316.3
28311.4
28306.7
28302.2
28298
28294
28290.3
28286.8
28283.5
28280.5
28277.7
28275.1
28272.8
28270.7
28268.8
28267.2
28265.8
28264.6
28263.6
28262.8
28262.3
28261.9
28261.8
28261.8
28262.1
28262.5
28263.2
28264
28265
28266.1
28267.5
28269
28270.6
28272.4
28274.4
28276.5
28278.8
28281.2
28283.7
28286.3
28289.1
28291.9
28294.9
28298
28301.1
28304.4
28307.7
28311.1
28314.6
28318.2
28321.8
28325.5
28329.1
28332.9
28336.6
28340.4
28344.2
28348.1
28351.9
28355.8
28359.6
28363.4
28367.3
28371.1
28374.8
28378.6
28382.3
28386
28389.6
28393.1
28396.6
28400.1
28403.5
28406.7
28410
28413.1
28416.1
28419.1
28421.9
28424.7
28427.3
28429.8
28432.2
28434.5
28436.7
28438.7
28440.6
28442.4
28444
28445.5
28446.8
28448
28449
28449.9
28450.6
28451.2
28451.6
28451.9
28452
28451.9
28451.6
28451.2
28450.6
28449.9
28448.9
28447.9
28446.6
28445.1
28443.5
28441.7
28439.8
28437.6
28435.3
28432.9
28430.2
28427.4
28424.4
28421.3
28418
28414.5
28410.9
28407.1
28403.1
28399
28394.8
28390.4
28385.8
28381.1
28376.3
28371.3
28366.2
28361
28355.6
28350.1
28344.5
28338.7
28332.9
28326.9
28320.8
28314.7
28308.4
28302
28295.5
28289
28282.3
28275.6
28268.8
28262
28255
28248
28241
28233.9
28226.7
28219.5
28212.3
28205
28197.7
28190.3
28182.9
28175.5
28168.1
28160.7
28153.3
28145.8
28138.4
28131
28123.5
28116.1
28108.7
28101.4
28094
28086.7
28079.4
28072.2
28065
28057.9
28050.8
28043.7
28036.8
28029.8
28023
28016.2
28009.5
28002.9
27996.3
27989.9
27983.5
27977.2
27971
27964.9
27958.9
27953.1
27947.3
27941.6
27936.1
27930.6
27925.3
27920.1
27915
27910.1
27905.3
27900.6
27896.1
27891.6
27887.4
27883.2
27879.2
27875.4
27871.7
27868.2
27864.8
27861.5
27858.4
27855.5
27852.7
27850.1
27847.6
27845.3
27843.1
27841.2
27839.3
27837.7
27836.2
27834.9
27833.7
27832.7
27831.9
27831.2
27830.7
27830.4
27830.2
28960.8
28960.5
28959.8
28958.9
28957.6
28956
28954
28951.8
28949.2
28946.4
28943.2
28939.7
28935.9
28931.8
28927.4
28922.7
28917.8
28912.5
28906.9
28901.1
28895
28888.6
28882
28875.1
28867.9
28860.4
28852.8
28844.8
28836.6
28828.2
28819.6
28810.7
28801.6
28792.3
28782.7
28773
28763
28752.9
28742.5
28732
28721.3
28710.4
28699.4
28688.1
28676.8
28665.2
28653.5
28641.7
28629.8
28617.7
28605.5
28593.2
28580.8
28568.2
28555.6
28542.9
28530.2
28517.3
28504.4
28491.4
28478.4
28465.3
28452.2
28439.1
28425.9
28412.7
28399.5
28386.3
28373.2
28360
28346.8
28333.7
28320.6
28307.6
28294.6
28281.6
28268.7
28255.9
28243.2
28230.5
28217.9
28205.4
28193.1
28180.8
28168.6
28156.6
28144.7
28132.9
28121.3
28109.8
28098.4
28087.3
28076.2
28065.4
28054.7
28044.2
28033.8
28023.7
28013.8
28004
27994.5
27985.1
27976
27967
27958.3
27949.8
27941.6
27933.5
27925.7
27918.1
27910.7
27903.6
27896.7
27890.1
27883.7
27877.5
27871.6
27865.9
27860.5
27855.3
27850.3
27845.6
27841.2
27837
27833
27829.3
27825.8
27822.5
27819.5
27816.8
27814.2
27811.9
27809.9
27808.1
27806.4
27805.1
27803.9
27803
27802.2
27801.7
27801.4
27801.3
27801.4
27801.8
27802.2
27802.9
27803.8
27804.9
27806.1
27807.5
27809.1
27810.8
27812.7
27814.7
27816.9
27819.2
27821.7
27824.2
27826.9
27829.8
27832.7
27835.8
27838.9
27842.1
27845.5
27848.9
27852.4
27855.9
27859.5
27863.2
27866.9
27870.7
27874.6
27878.4
27882.3
27886.2
27890.1
27894
27898
27901.9
27905.8
27909.7
27913.6
27917.4
27921.3
27925
27928.8
27932.5
27936.1
27939.7
27943.2
27946.6
27950
27953.3
27956.5
27959.6
27962.6
27965.5
27968.3
27971
27973.5
27976
27978.3
27980.5
27982.6
27984.6
27986.4
27988
27989.5
27990.9
27992.1
27993.2
27994.1
27994.9
27995.5
27995.9
27996.2
27996.3
27996.2
27996
27995.6
27995
27994.3
27993.4
27992.3
27991
27989.5
27987.9
27986.1
27984.2
27982
27979.7
27977.2
27974.6
27971.7
27968.7
27965.6
27962.2
27958.7
27955.1
27951.3
27947.3
27943.1
27938.9
27934.4
27929.8
27925.1
27920.2
27915.2
27910
27904.7
27899.3
27893.8
27888.1
27882.3
27876.4
27870.4
27864.3
27858
27851.7
27845.3
27838.7
27832.1
27825.4
27818.7
27811.8
27804.9
27797.9
27790.8
27783.7
27776.6
27769.3
27762.1
27754.8
27747.4
27740
27732.6
27725.2
27717.8
27710.3
27702.8
27695.3
27687.8
27680.3
27672.9
27665.4
27657.9
27650.5
27643.1
27635.7
27628.3
27621
27613.7
27606.5
27599.3
27592.1
27585
27578
27571
27564.2
27557.3
27550.6
27543.9
27537.3
27530.8
27524.4
27518.1
27511.8
27505.7
27499.7
27493.8
27487.9
27482.2
27476.6
27471.2
27465.8
27460.6
27455.5
27450.5
27445.7
27441
27436.4
27431.9
27427.6
27423.5
27419.5
27415.6
27411.9
27408.3
27404.9
27401.6
27398.5
27395.5
27392.7
27390.1
27387.6
27385.3
27383.1
27381.1
27379.3
27377.6
27376.1
27374.8
27373.6
27372.6
27371.8
27371.1
27370.6
27370.3
27370.1
28508
28507.7
28507
28506
28504.7
28503.1
28501.1
28498.9
28496.3
28493.4
28490.2
28486.6
28482.8
28478.6
28474.2
28469.5
28464.4
28459.1
28453.5
28447.6
28441.4
28435
28428.3
28421.3
28414
28406.5
28398.7
28390.7
28382.5
28374
28365.3
28356.3
28347.1
28337.7
28328.1
28318.2
28308.2
28297.9
28287.5
28276.9
28266.1
28255.1
28243.9
28232.6
28221.1
28209.5
28197.7
28185.8
28173.7
28161.6
28149.2
28136.8
28124.3
28111.7
28098.9
28086.1
28073.3
28060.3
28047.3
28034.2
28021
28007.9
27994.6
27981.4
27968.1
27954.8
27941.5
27928.2
27914.9
27901.6
27888.4
27875.1
27861.9
27848.8
27835.7
27822.6
27809.6
27796.7
27783.9
27771.1
27758.4
27745.8
27733.4
27721
27708.7
27696.6
27684.6
27672.7
27661
27649.4
27638
27626.8
27615.7
27604.7
27594
27583.4
27573
27562.8
27552.8
27542.9
27533.3
27523.9
27514.7
27505.8
27497
27488.5
27480.1
27472.1
27464.2
27456.6
27449.2
27442
27435.1
27428.5
27422
27415.9
27409.9
27404.2
27398.8
27393.6
27388.7
27384
27379.5
27375.3
27371.3
27367.6
27364.2
27360.9
27358
27355.2
27352.7
27350.5
27348.5
27346.7
27345.1
27343.8
27342.7
27341.8
27341.1
27340.6
27340.4
27340.4
27340.5
27340.9
27341.5
27342.2
27343.2
27344.3
27345.6
27347.1
27348.7
27350.5
27352.5
27354.6
27356.9
27359.3
27361.8
27364.5
27367.3
27370.2
27373.2
27376.4
27379.6
27383
27386.4
27389.9
27393.5
27397.1
27400.8
27404.6
27408.4
27412.3
27416.2
27420.2
27424.2
27428.1
27432.2
27436.2
27440.2
27444.2
27448.2
27452.2
27456.2
27460.1
27464
27467.9
27471.7
27475.5
27479.2
27482.9
27486.5
27490
27493.4
27496.8
27500.1
27503.3
27506.3
27509.3
27512.2
27514.9
27517.6
27520.1
27522.5
27524.7
27526.9
27528.9
27530.7
27532.5
27534
27535.4
27536.7
27537.8
27538.8
27539.6
27540.2
27540.6
27540.9
27541.1
27541
27540.8
27540.4
27539.9
27539.1
27538.2
27537.1
27535.9
27534.4
27532.8
27531
27529
27526.9
27524.5
27522
27519.4
27516.5
27513.5
27510.3
27506.9
27503.4
27499.7
27495.8
27491.8
27487.6
27483.3
27478.8
27474.2
27469.4
27464.5
27459.4
27454.2
27448.8
27443.4
27437.8
27432
27426.2
27420.2
27414.1
27407.9
27401.6
27395.2
27388.7
27382.1
27375.5
27368.7
27361.9
27354.9
27347.9
27340.9
27333.8
27326.6
27319.3
27312.1
27304.7
27297.3
27289.9
27282.5
27275
27267.5
27260
27252.5
27244.9
27237.4
27229.8
27222.2
27214.7
27207.2
27199.6
27192.1
27184.6
27177.2
27169.8
27162.4
27155
27147.7
27140.5
27133.3
27126.1
27119.1
27112
27105.1
27098.2
27091.4
27084.7
27078
27071.5
27065
27058.6
27052.4
27046.2
27040.1
27034.1
27028.3
27022.5
27016.9
27011.4
27006
27000.7
26995.6
26990.6
26985.7
26980.9
26976.3
26971.8
26967.5
26963.3
26959.3
26955.4
26951.6
26948
26944.6
26941.3
26938.1
26935.2
26932.3
26929.7
26927.2
26924.8
26922.7
26920.6
26918.8
26917.1
26915.6
26914.2
26913.1
26912.1
26911.2
26910.5
26910
26909.7
26909.5
28056
28055.7
28055
28054
28052.7
28051.1
28049.1
28046.8
28044.1
28041.2
28037.9
28034.3
28030.5
28026.3
28021.8
28017
28011.9
28006.5
28000.8
27994.8
27988.6
27982
27975.2
27968.2
27960.8
27953.2
27945.4
27937.3
27928.9
27920.3
27911.5
27902.5
27893.2
27883.7
27873.9
27864
27853.8
27843.5
27833
27822.2
27811.3
27800.2
27788.9
27777.5
27765.9
27754.1
27742.2
27730.2
27718
27705.7
27693.3
27680.7
27668.1
27655.3
27642.5
27629.5
27616.5
27603.4
27590.2
27577
27563.8
27550.4
27537.1
27523.7
27510.3
27496.9
27483.5
27470
27456.6
27443.2
27429.8
27416.4
27403.1
27389.8
27376.6
27363.4
27350.3
27337.3
27324.3
27311.4
27298.6
27285.9
27273.3
27260.9
27248.5
27236.3
27224.2
27212.2
27200.4
27188.7
27177.2
27165.8
27154.6
27143.6
27132.7
27122.1
27111.6
27101.3
27091.2
27081.3
27071.6
27062.2
27052.9
27043.9
27035.1
27026.5
27018.1
27010
27002.1
26994.4
26987
26979.8
26972.9
26966.2
26959.7
26953.5
26947.6
26941.9
26936.4
26931.2
26926.3
26921.6
26917.2
26913
26909
26905.3
26901.9
26898.7
26895.8
26893.1
26890.6
26888.4
26886.4
26884.6
26883.1
26881.9
26880.8
26880
26879.4
26879
26878.8
26878.8
26879.1
26879.5
26880.2
26881
26882
26883.2
26884.6
26886.2
26887.9
26889.8
26891.9
26894.1
26896.5
26899
26901.6
26904.4
26907.3
26910.3
26913.5
26916.7
26920.1
26923.5
26927
26930.6
26934.3
26938.1
26941.9
26945.8
26949.8
26953.7
26957.8
26961.8
26965.9
26970
26974.2
26978.3
26982.4
26986.6
26990.7
26994.8
26998.9
27002.9
27006.9
27010.9
27014.8
27018.7
27022.5
27026.3
27030
27033.6
27037.1
27040.6
27043.9
27047.2
27050.4
27053.4
27056.4
27059.2
27061.9
27064.5
27067
27069.3
27071.5
27073.6
27075.5
27077.3
27078.9
27080.4
27081.7
27082.8
27083.8
27084.6
27085.3
27085.8
27086.1
27086.3
27086.3
27086.1
27085.7
27085.2
27084.4
27083.5
27082.4
27081.2
27079.7
27078.1
27076.3
27074.3
27072.1
27069.8
27067.3
27064.6
27061.7
27058.6
27055.4
27052
27048.5
27044.7
27040.8
27036.8
27032.5
27028.1
27023.6
27018.9
27014.1
27009.1
27003.9
26998.7
26993.3
26987.7
26982
26976.2
26970.3
26964.3
26958.1
26951.9
26945.5
26939
26932.4
26925.8
26919
26912.2
26905.2
26898.2
26891.2
26884
26876.8
26869.5
26862.2
26854.9
26847.4
26840
26832.5
26825
26817.4
26809.8
26802.2
26794.6
26787
26779.4
26771.7
26764.1
26756.5
26748.8
26741.2
26733.7
26726.1
26718.6
26711.1
26703.6
26696.2
26688.9
26681.5
26674.3
26667
26659.9
26652.8
26645.8
26638.9
26632
26625.2
26618.5
26611.9
26605.3
26598.9
26592.6
26586.3
26580.2
26574.2
26568.3
26562.5
26556.8
26551.2
26545.8
26540.5
26535.3
26530.2
26525.3
26520.5
26515.8
26511.3
26507
26502.7
26498.7
26494.7
26490.9
26487.3
26483.8
26480.5
26477.4
26474.3
26471.5
26468.8
26466.3
26463.9
26461.7
26459.7
26457.8
26456.1
26454.6
26453.3
26452.1
26451
26450.2
26449.5
26449
26448.6
26448.5
27604.9
27604.6
27603.9
27602.9
27601.6
27599.9
27597.9
27595.5
27592.8
27589.9
27586.5
27582.9
27578.9
27574.7
27570.1
27565.2
27560
27554.6
27548.8
27542.7
27536.4
27529.8
27522.9
27515.7
27508.3
27500.6
27492.7
27484.5
27476
27467.3
27458.4
27449.2
27439.8
27430.2
27420.3
27410.3
27400
27389.5
27378.9
27368
27356.9
27345.7
27334.3
27322.7
27311
27299.1
27287.1
27274.9
27262.6
27250.1
27237.5
27224.8
27212
27199.1
27186.1
27173.1
27159.9
27146.7
27133.3
27120
27106.6
27093.1
27079.6
27066.1
27052.5
27038.9
27025.4
27011.8
26998.2
26984.7
26971.1
26957.6
26944.1
26930.7
26917.3
26904
26890.8
26877.6
26864.5
26851.5
26838.5
26825.7
26813
26800.4
26787.9
26775.5
26763.3
26751.2
26739.3
26727.5
26715.8
26704.4
26693.1
26681.9
26671
26660.2
26649.7
26639.3
26629.1
26619.1
26609.4
26599.8
26590.5
26581.4
26572.5
26563.8
26555.4
26547.2
26539.3
26531.6
26524.1
26516.9
26509.9
26503.2
26496.7
26490.5
26484.6
26478.9
26473.4
26468.2
26463.3
26458.6
26454.1
26450
26446
26442.4
26439
26435.8
26432.9
26430.2
26427.8
26425.6
26423.7
26422
26420.5
26419.3
26418.3
26417.6
26417
26416.7
26416.6
26416.8
26417.1
26417.6
26418.3
26419.3
26420.4
26421.7
26423.2
26424.9
26426.7
26428.7
26430.9
26433.2
26435.7
26438.3
26441.1
26444
26447
26450.1
26453.4
26456.8
26460.2
26463.8
26467.5
26471.2
26475
26478.9
26482.9
26486.9
26491
26495.1
26499.3
26503.5
26507.7
26511.9
26516.2
26520.4
26524.7
26528.9
26533.2
26537.4
26541.6
26545.8
26549.9
26554
26558.1
26562.1
26566
26569.9
26573.7
26577.4
26581
26584.6
26588
26591.4
26594.7
26597.8
26600.9
26603.8
26606.6
26609.3
26611.8
26614.2
26616.5
26618.6
26620.6
26622.5
26624.1
26625.7
26627
26628.3
26629.3
26630.2
26630.9
26631.4
26631.8
26632
26632
26631.8
26631.5
26630.9
26630.2
26629.3
26628.2
26627
26625.5
26623.9
26622.1
26620.1
26617.9
26615.5
26613
26610.3
26607.3
26604.3
26601
26597.6
26594
26590.2
26586.2
26582.1
26577.8
26573.4
26568.8
26564
26559.1
26554.1
26548.8
26543.5
26538
26532.4
26526.6
26520.8
26514.8
26508.6
26502.4
26496
26489.6
26483
26476.3
26469.6
26462.7
26455.8
26448.8
26441.7
26434.5
26427.3
26420
26412.6
26405.2
26397.7
26390.2
26382.7
26375.1
26367.5
26359.8
26352.2
26344.5
26336.8
26329
26321.3
26313.6
26305.9
26298.2
26290.5
26282.8
26275.1
26267.5
26259.9
26252.3
26244.7
26237.3
26229.8
26222.4
26215.1
26207.8
26200.5
26193.4
26186.3
26179.3
26172.3
26165.5
26158.7
26152
26145.4
26138.9
26132.5
26126.2
26120
26113.9
26107.9
26102.1
26096.3
26090.7
26085.2
26079.8
26074.6
26069.5
26064.5
26059.7
26055
26050.4
26046
26041.8
26037.6
26033.7
26029.8
26026.2
26022.7
26019.3
26016.1
26013.1
26010.2
26007.5
26005
26002.6
26000.4
25998.3
25996.4
25994.7
25993.2
25991.8
25990.6
25989.6
25988.7
25988
25987.5
25987.1
25987
27154.8
27154.4
27153.7
27152.7
27151.3
27149.6
27147.5
27145.1
27142.4
27139.4
27136
27132.3
27128.2
27123.9
27119.2
27114.3
27109
27103.4
27097.6
27091.4
27085
27078.3
27071.3
27064
27056.5
27048.6
27040.6
27032.3
27023.7
27014.9
27005.8
26996.5
26987
26977.2
26967.3
26957.1
26946.7
26936.1
26925.2
26914.2
26903
26891.7
26880.1
26868.4
26856.5
26844.4
26832.3
26819.9
26807.4
26794.8
26782.1
26769.2
26756.3
26743.2
26730
26716.8
26703.4
26690
26676.6
26663
26649.4
26635.8
26622.1
26608.4
26594.7
26581
26567.2
26553.5
26539.7
26526
26512.3
26498.6
26485
26471.4
26457.9
26444.4
26431
26417.6
26404.4
26391.2
26378.1
26365.1
26352.3
26339.5
26326.9
26314.4
26302
26289.8
26277.7
26265.8
26254
26242.4
26231
26219.8
26208.7
26197.8
26187.2
26176.7
26166.4
26156.4
26146.5
26136.9
26127.5
26118.3
26109.3
26100.6
26092.1
26083.9
26075.9
26068.1
26060.6
26053.3
26046.3
26039.6
26033.1
26026.8
26020.9
26015.1
26009.7
26004.5
25999.5
25994.8
25990.4
25986.3
25982.4
25978.7
25975.3
25972.2
25969.3
25966.7
25964.4
25962.2
25960.4
25958.7
25957.3
25956.2
25955.3
25954.6
25954.1
25953.9
25953.9
25954.1
25954.5
25955.2
25956
25957
25958.3
25959.7
25961.3
25963.1
25965
25967.2
25969.5
25971.9
25974.5
25977.3
25980.2
25983.2
25986.4
25989.6
25993
25996.6
26000.2
26003.9
26007.7
26011.6
26015.5
26019.6
26023.7
26027.9
26032.1
26036.3
26040.6
26045
26049.4
26053.7
26058.1
26062.5
26066.9
26071.3
26075.7
26080.1
26084.4
26088.8
26093
26097.3
26101.4
26105.6
26109.6
26113.6
26117.6
26121.4
26125.2
26128.8
26132.4
26135.9
26139.3
26142.5
26145.7
26148.7
26151.6
26154.4
26157
26159.5
26161.9
26164.1
26166.2
26168.1
26169.8
26171.4
26172.9
26174.1
26175.2
26176.2
26176.9
26177.5
26177.9
26178.1
26178.2
26178
26177.7
26177.2
26176.5
26175.6
26174.5
26173.2
26171.8
26170.2
26168.3
26166.3
26164.1
26161.7
26159.2
26156.4
26153.5
26150.3
26147
26143.5
26139.9
26136
26132
26127.9
26123.5
26119
26114.3
26109.5
26104.5
26099.4
26094.1
26088.7
26083.1
26077.4
26071.6
26065.6
26059.5
26053.3
26046.9
26040.5
26033.9
26027.2
26020.5
26013.6
26006.7
25999.6
25992.5
25985.3
25978
25970.7
25963.3
25955.8
25948.3
25940.7
25933.1
25925.5
25917.8
25910
25902.3
25894.5
25886.7
25878.9
25871.1
25863.3
25855.4
25847.6
25839.8
25832
25824.2
25816.5
25808.7
25801
25793.3
25785.7
25778.1
25770.6
25763.1
25755.7
25748.3
25741
25733.7
25726.5
25719.4
25712.4
25705.5
25698.6
25691.8
25685.2
25678.6
25672.1
25665.7
25659.5
25653.3
25647.3
25641.3
25635.5
25629.9
25624.3
25618.9
25613.6
25608.4
25603.4
25598.5
25593.7
25589.1
25584.7
25580.4
25576.2
25572.2
25568.3
25564.6
25561.1
25557.7
25554.5
25551.4
25548.5
25545.7
25543.2
25540.8
25538.5
25536.5
25534.6
25532.8
25531.3
25529.9
25528.7
25527.6
25526.7
25526
25525.5
25525.2
25525
26705.5
26705.1
26704.4
26703.4
26701.9
26700.2
26698.1
26695.6
26692.9
26689.7
26686.3
26682.5
26678.4
26673.9
26669.2
26664.1
26658.8
26653.1
26647.1
26640.9
26634.3
26627.5
26620.3
26612.9
26605.3
26597.4
26589.2
26580.7
26572
26563.1
26553.9
26544.4
26534.8
26524.9
26514.7
26504.4
26493.8
26483.1
26472.1
26460.9
26449.6
26438
26426.3
26414.4
26402.4
26390.2
26377.8
26365.3
26352.6
26339.8
26326.9
26313.9
26300.7
26287.5
26274.1
26260.7
26247.1
26233.5
26219.9
26206.2
26192.4
26178.6
26164.7
26150.8
26136.9
26123
26109
26095.1
26081.2
26067.3
26053.4
26039.5
26025.7
26011.9
25998.2
25984.6
25971
25957.4
25944
25930.7
25917.4
25904.3
25891.2
25878.3
25865.5
25852.9
25840.4
25828
25815.8
25803.7
25791.8
25780
25768.5
25757.1
25745.9
25734.9
25724.1
25713.5
25703.2
25693
25683
25673.3
25663.8
25654.5
25645.5
25636.7
25628.1
25619.8
25611.8
25603.9
25596.4
25589.1
25582
25575.2
25568.7
25562.4
25556.4
25550.7
25545.2
25540
25535.1
25530.4
25526
25521.9
25518
25514.4
25511
25507.9
25505.1
25502.5
25500.2
25498.2
25496.4
25494.8
25493.5
25492.4
25491.6
25491
25490.6
25490.5
25490.6
25490.9
25491.4
25492.2
25493.1
25494.3
25495.6
25497.2
25498.9
25500.8
25502.9
25505.2
25507.6
25510.2
25513
25515.9
25518.9
25522.1
25525.4
25528.8
25532.4
25536.1
25539.8
25543.7
25547.7
25551.7
25555.9
25560.1
25564.3
25568.7
25573
25577.5
25581.9
25586.5
25591
25595.5
25600.1
25604.7
25609.2
25613.8
25618.3
25622.8
25627.3
25631.8
25636.2
25640.6
25645
25649.2
25653.4
25657.6
25661.7
25665.6
25669.5
25673.3
25677
25680.7
25684.1
25687.5
25690.8
25693.9
25696.9
25699.8
25702.6
25705.2
25707.6
25709.9
25712.1
25714.1
25715.9
25717.6
25719.1
25720.4
25721.6
25722.6
25723.4
25724
25724.5
25724.7
25724.8
25724.7
25724.4
25723.9
25723.2
25722.3
25721.3
25720
25718.6
25716.9
25715.1
25713
25710.8
25708.4
25705.8
25703
25700
25696.9
25693.5
25690
25686.3
25682.4
25678.3
25674.1