/*--------------------------------*- C++ -*----------------------------------*\
| =========                 |                                                 |
| \\      /  F ield         | OpenFOAM: The Open Source CFD Toolbox           |
|  \\    /   O peration     | Version:  v2006                                 |
|   \\  /    A nd           | Website:  www.openfoam.com                      |
|    \\/     M anipulation  |                                                 |
\*---------------------------------------------------------------------------*/
FoamFile
{
    version     2.0;
    format      ascii;
    class       volVectorField;
    location    "16.1";
    object      U;
}
// * * * * * * * * * * * * * * * * * * * * * * * * * * * * * * * * * * * * * //

dimensions      [0 1 -1 0 0 0 0];


internalField   nonuniform List<vector> 
50000
(
(0.00150122 -0.00310742 0)
(0.00684343 -0.00459707 0)
(0.0129755 -0.00476727 0)
(0.0185752 -0.0045317 0)
(0.0238707 -0.00425919 0)
(0.0288734 -0.00407623 0)
(0.0337342 -0.00396841 0)
(0.0385043 -0.00389828 0)
(0.0431773 -0.00383786 0)
(0.0477456 -0.00377172 0)
(0.0522016 -0.00369629 0)
(0.0565378 -0.00361384 0)
(0.060749 -0.00352639 0)
(0.0648322 -0.0034352 0)
(0.0687855 -0.0033412 0)
(0.072607 -0.00324471 0)
(0.0762953 -0.0031456 0)
(0.0798501 -0.00304372 0)
(0.0832709 -0.00293901 0)
(0.0865574 -0.00283162 0)
(0.0897092 -0.00272183 0)
(0.0927269 -0.00260896 0)
(0.0956105 -0.00249272 0)
(0.0983595 -0.00237322 0)
(0.100974 -0.00225055 0)
(0.103452 -0.00212414 0)
(0.105794 -0.00199301 0)
(0.107997 -0.00185662 0)
(0.110059 -0.0017133 0)
(0.111978 -0.00156152 0)
(0.11375 -0.00139943 0)
(0.115369 -0.0012244 0)
(0.116828 -0.00103281 0)
(0.118116 -0.000820339 0)
(0.119218 -0.000583363 0)
(0.120115 -0.000322235 0)
(0.120791 -4.23794e-05 0)
(0.121236 0.000250029 0)
(0.121448 0.000551023 0)
(0.121386 0.000836477 0)
(0.121085 0.00108452 0)
(0.120558 0.00130309 0)
(0.119813 0.00149781 0)
(0.11887 0.00165977 0)
(0.117752 0.0017825 0)
(0.116487 0.00186665 0)
(0.115098 0.0019186 0)
(0.113611 0.00194196 0)
(0.112052 0.00193219 0)
(0.110452 0.00188095 0)
(0.108844 0.00178594 0)
(0.107256 0.0016602 0)
(0.105697 0.00153045 0)
(0.104159 0.0014214 0)
(0.102624 0.00134292 0)
(0.101078 0.00129225 0)
(0.0995081 0.00126116 0)
(0.0979061 0.00124129 0)
(0.0962688 0.00122708 0)
(0.0945952 0.0012159 0)
(0.0928848 0.00120692 0)
(0.091137 0.00120038 0)
(0.0893518 0.00119666 0)
(0.0875291 0.00119551 0)
(0.0856695 0.0011965 0)
(0.0837733 0.00119925 0)
(0.0818419 0.00120357 0)
(0.0798764 0.00120921 0)
(0.0778785 0.00121578 0)
(0.0758496 0.00122306 0)
(0.0737918 0.00123088 0)
(0.0717072 0.00123909 0)
(0.0695982 0.00124756 0)
(0.0674672 0.00125624 0)
(0.0653171 0.00126506 0)
(0.0631502 0.00127391 0)
(0.0609694 0.00128277 0)
(0.0587776 0.00129175 0)
(0.0565777 0.00130108 0)
(0.0543716 0.00131103 0)
(0.052161 0.00132221 0)
(0.0499486 0.00133527 0)
(0.0477355 0.00135047 0)
(0.0455209 0.0013685 0)
(0.0433069 0.00138856 0)
(0.0410928 0.00141012 0)
(0.0388757 0.00143497 0)
(0.036657 0.0014637 0)
(0.0344348 0.00149617 0)
(0.0322041 0.00153366 0)
(0.0299602 0.00157834 0)
(0.0276987 0.00163284 0)
(0.0254101 0.00169904 0)
(0.0230812 0.0017813 0)
(0.0206958 0.00188859 0)
(0.0182306 0.00203643 0)
(0.0156485 0.00224254 0)
(0.0129023 0.00250668 0)
(0.00995364 0.00280013 0)
(0.00679103 0.00307657 0)
(0.00343809 0.00329245 0)
(-4.86372e-05 0.00342803 0)
(-0.00359016 0.00349045 0)
(-0.0071194 0.00350225 0)
(-0.0105823 0.00349 0)
(-0.0139317 0.00346297 0)
(-0.0171234 0.00342114 0)
(-0.0201238 0.00334025 0)
(-0.0228965 0.00319056 0)
(-0.0253892 0.00295581 0)
(-0.0275528 0.0026263 0)
(-0.02935 0.00221129 0)
(-0.0307513 0.00177647 0)
(-0.031787 0.00140009 0)
(-0.0325293 0.00111588 0)
(-0.0330547 0.000902979 0)
(-0.0334131 0.000727308 0)
(-0.0336442 0.000560342 0)
(-0.0337711 0.000393526 0)
(-0.0337952 0.000220734 0)
(-0.0337241 4.81797e-05 0)
(-0.0335687 -0.000116318 0)
(-0.0333326 -0.00027432 0)
(-0.03302 -0.000424983 0)
(-0.0326278 -0.000570742 0)
(-0.0321596 -0.000711072 0)
(-0.0316131 -0.000846415 0)
(-0.0309934 -0.000979424 0)
(-0.0303035 -0.00110703 0)
(-0.0295369 -0.00123066 0)
(-0.028697 -0.00134964 0)
(-0.0277876 -0.00146418 0)
(-0.0268105 -0.00157513 0)
(-0.0257665 -0.00168163 0)
(-0.0246551 -0.00178376 0)
(-0.0234782 -0.00188119 0)
(-0.0222364 -0.00197356 0)
(-0.0209298 -0.00206214 0)
(-0.0195586 -0.0021469 0)
(-0.018123 -0.00222672 0)
(-0.0166245 -0.00230098 0)
(-0.0150641 -0.00237107 0)
(-0.0134434 -0.00244067 0)
(-0.0117627 -0.00251793 0)
(-0.010017 -0.00260743 0)
(-0.00819589 -0.00270519 0)
(-0.00634572 -0.00277871 0)
(-0.00438909 -0.00280083 0)
(-0.0024463 -0.00263707 0)
(-0.000493067 -0.00197162 0)
(0.00142581 -0.00828438 0)
(0.00629257 -0.0115384 0)
(0.0118927 -0.011474 0)
(0.0168308 -0.0106281 0)
(0.0214348 -0.00996813 0)
(0.0256867 -0.00960941 0)
(0.0298159 -0.00938732 0)
(0.0338609 -0.00918806 0)
(0.0378007 -0.00897245 0)
(0.0416215 -0.00873629 0)
(0.0453087 -0.00848638 0)
(0.0488561 -0.00822811 0)
(0.0522641 -0.00796397 0)
(0.0555322 -0.00769539 0)
(0.0586607 -0.00742426 0)
(0.0616514 -0.007152 0)
(0.0645067 -0.00688002 0)
(0.0672295 -0.00660937 0)
(0.0698243 -0.00634052 0)
(0.0722958 -0.00607376 0)
(0.0746485 -0.00580983 0)
(0.0768871 -0.00554938 0)
(0.0790174 -0.00529226 0)
(0.0810441 -0.00503784 0)
(0.0829713 -0.00478516 0)
(0.0848038 -0.00453393 0)
(0.0865467 -0.00428402 0)
(0.088206 -0.0040351 0)
(0.089785 -0.00378669 0)
(0.0912865 -0.00353773 0)
(0.0927187 -0.00328639 0)
(0.0940883 -0.00302946 0)
(0.0954002 -0.00276274 0)
(0.0966612 -0.00248177 0)
(0.0978789 -0.00218253 0)
(0.0990585 -0.0018632 0)
(0.100201 -0.00152424 0)
(0.1013 -0.00116588 0)
(0.102348 -0.000787005 0)
(0.103376 -0.000397909 0)
(0.104338 -1.27318e-05 0)
(0.105206 0.000365112 0)
(0.105969 0.000733957 0)
(0.106616 0.00109078 0)
(0.107134 0.00142394 0)
(0.107501 0.00172672 0)
(0.107706 0.00199649 0)
(0.107743 0.00222771 0)
(0.107605 0.0024135 0)
(0.10729 0.00255133 0)
(0.106798 0.00264663 0)
(0.106129 0.0027147 0)
(0.105297 0.00277553 0)
(0.10432 0.00284456 0)
(0.103218 0.00292792 0)
(0.102005 0.00302431 0)
(0.10069 0.00312961 0)
(0.0992778 0.0032399 0)
(0.0977702 0.00335208 0)
(0.0961692 0.00346428 0)
(0.0944775 0.00357568 0)
(0.0926985 0.00368568 0)
(0.0908356 0.0037936 0)
(0.0888928 0.00389865 0)
(0.0868744 0.00400004 0)
(0.0847851 0.00409726 0)
(0.0826295 0.00418996 0)
(0.0804121 0.00427752 0)
(0.0781378 0.00435955 0)
(0.0758118 0.00443571 0)
(0.0734392 0.00450542 0)
(0.0710254 0.00456849 0)
(0.0685757 0.00462484 0)
(0.0660954 0.0046742 0)
(0.0635898 0.00471619 0)
(0.0610647 0.00475022 0)
(0.0585252 0.00477635 0)
(0.0559774 0.00479492 0)
(0.0534272 0.00480617 0)
(0.0508805 0.00481034 0)
(0.0483433 0.00480836 0)
(0.0458219 0.00480112 0)
(0.0433219 0.00478876 0)
(0.0408455 0.0047726 0)
(0.0383975 0.00475442 0)
(0.035984 0.00473301 0)
(0.0336071 0.00471161 0)
(0.0312695 0.00469203 0)
(0.0289745 0.00467478 0)
(0.0267236 0.00466235 0)
(0.0245193 0.0046576 0)
(0.0223624 0.00466541 0)
(0.0202541 0.00468769 0)
(0.0181972 0.00473068 0)
(0.0161944 0.00480446 0)
(0.0142511 0.00492261 0)
(0.0123801 0.00509849 0)
(0.0105962 0.00533383 0)
(0.00890301 0.00561029 0)
(0.00729703 0.00588926 0)
(0.00576122 0.0061193 0)
(0.00427806 0.00625732 0)
(0.00286104 0.0062735 0)
(0.00154255 0.00615291 0)
(0.000356966 0.00590446 0)
(-0.000648437 0.00554562 0)
(-0.00142854 0.00509956 0)
(-0.00196739 0.00457856 0)
(-0.00225687 0.00399841 0)
(-0.0023126 0.00337637 0)
(-0.00218372 0.00273426 0)
(-0.00191278 0.00209505 0)
(-0.00157775 0.00148934 0)
(-0.00123287 0.00096698 0)
(-0.000889831 0.000556112 0)
(-0.000555822 0.000253762 0)
(-0.000227524 4.36548e-05 0)
(0.000109664 -0.000102488 0)
(0.000456061 -0.000210488 0)
(0.000795578 -0.000296006 0)
(0.00112621 -0.00036625 0)
(0.0014577 -0.000433619 0)
(0.00178467 -0.000494907 0)
(0.00210363 -0.000559221 0)
(0.00241096 -0.00062452 0)
(0.00270239 -0.000690835 0)
(0.00297414 -0.000760149 0)
(0.00322474 -0.000832708 0)
(0.00345116 -0.000908241 0)
(0.00365005 -0.000985211 0)
(0.00381918 -0.00105999 0)
(0.00395585 -0.00113677 0)
(0.00405499 -0.00121245 0)
(0.00411134 -0.0012892 0)
(0.00412188 -0.00136858 0)
(0.00408549 -0.00145129 0)
(0.00400246 -0.00153855 0)
(0.00387292 -0.00162987 0)
(0.00369802 -0.00172434 0)
(0.00348093 -0.00182344 0)
(0.00322601 -0.00192532 0)
(0.00293789 -0.00202845 0)
(0.00262036 -0.00213085 0)
(0.00228439 -0.00223301 0)
(0.00190473 -0.0023272 0)
(0.00153204 -0.00241614 0)
(0.00103781 -0.00248066 0)
(0.000661129 -0.00261934 0)
(0.000202858 -0.00275527 0)
(0.000436127 -0.00210066 0)
(0.00137133 -0.0135391 0)
(0.00642892 -0.0191231 0)
(0.0124579 -0.0191934 0)
(0.017935 -0.0176448 0)
(0.0229497 -0.0163105 0)
(0.0275001 -0.015558 0)
(0.0318492 -0.0151546 0)
(0.0361023 -0.0148326 0)
(0.0402614 -0.0144705 0)
(0.044306 -0.0140547 0)
(0.0482118 -0.0136055 0)
(0.0519648 -0.0131404 0)
(0.0555618 -0.0126689 0)
(0.0590035 -0.0121954 0)
(0.062291 -0.0117222 0)
(0.0654267 -0.0112518 0)
(0.0684135 -0.0107871 0)
(0.0712555 -0.0103303 0)
(0.073957 -0.00988255 0)
(0.0765228 -0.00944468 0)
(0.0789577 -0.00901727 0)
(0.0812677 -0.00860055 0)
(0.083457 -0.00819411 0)
(0.0855295 -0.00779746 0)
(0.0874893 -0.0074099 0)
(0.0893396 -0.00703048 0)
(0.0910834 -0.00665781 0)
(0.0927227 -0.00629085 0)
(0.0942586 -0.00593059 0)
(0.0956916 -0.00557584 0)
(0.0970222 -0.00522576 0)
(0.0982506 -0.00487977 0)
(0.0993772 -0.00453573 0)
(0.100403 -0.00418903 0)
(0.101331 -0.00383196 0)
(0.102164 -0.00345558 0)
(0.102904 -0.00305491 0)
(0.103552 -0.00263323 0)
(0.10411 -0.00220028 0)
(0.104584 -0.0017545 0)
(0.104979 -0.00128852 0)
(0.105304 -0.000803495 0)
(0.105563 -0.000301167 0)
(0.105744 0.000207518 0)
(0.105833 0.000711737 0)
(0.105833 0.00120472 0)
(0.105745 0.00168246 0)
(0.105563 0.00214157 0)
(0.105278 0.00257582 0)
(0.104875 0.00297759 0)
(0.104344 0.00334253 0)
(0.103676 0.00367078 0)
(0.102871 0.00396631 0)
(0.101932 0.00423738 0)
(0.10087 0.00449458 0)
(0.0996935 0.00474645 0)
(0.0984108 0.00499729 0)
(0.0970278 0.00524754 0)
(0.0955488 0.00549555 0)
(0.093978 0.00573932 0)
(0.0923193 0.00597725 0)
(0.0905758 0.00620785 0)
(0.0887514 0.00642993 0)
(0.0868507 0.00664291 0)
(0.0848782 0.00684605 0)
(0.0828387 0.00703834 0)
(0.0807364 0.00721898 0)
(0.0785758 0.00738735 0)
(0.0763621 0.00754281 0)
(0.0740996 0.007685 0)
(0.0717935 0.00781365 0)
(0.0694497 0.00792827 0)
(0.067073 0.0080283 0)
(0.0646681 0.00811331 0)
(0.06224 0.00818303 0)
(0.059794 0.00823715 0)
(0.0573359 0.00827549 0)
(0.0548708 0.00829792 0)
(0.0524034 0.00830463 0)
(0.049939 0.00829609 0)
(0.0474833 0.00827328 0)
(0.045041 0.00823739 0)
(0.0426173 0.00818998 0)
(0.0402178 0.00813152 0)
(0.0378456 0.00806487 0)
(0.0355055 0.00799064 0)
(0.0332032 0.00791047 0)
(0.0309415 0.00782703 0)
(0.028724 0.0077412 0)
(0.0265542 0.00765615 0)
(0.0244388 0.00757342 0)
(0.0223804 0.00749681 0)
(0.0203813 0.0074287 0)
(0.0184498 0.00737393 0)
(0.0165928 0.00733356 0)
(0.014819 0.00730993 0)
(0.0131444 0.00730656 0)
(0.0115926 0.00732627 0)
(0.010184 0.0073669 0)
(0.00893163 0.00741179 0)
(0.00784033 0.00742565 0)
(0.00689904 0.0073677 0)
(0.00608464 0.00720119 0)
(0.00537071 0.00690299 0)
(0.00472965 0.00647263 0)
(0.00413674 0.00592912 0)
(0.00357018 0.00529297 0)
(0.00300859 0.00458587 0)
(0.00243656 0.00383097 0)
(0.00183877 0.00305787 0)
(0.00120326 0.00230222 0)
(0.000525886 0.00161504 0)
(-0.000177488 0.00104613 0)
(-0.000878361 0.000620458 0)
(-0.00155404 0.000311684 0)
(-0.00217216 7.20646e-05 0)
(-0.00270285 -0.000126409 0)
(-0.00313995 -0.00030384 0)
(-0.00347891 -0.000474828 0)
(-0.0037039 -0.000643292 0)
(-0.00382623 -0.00081238 0)
(-0.00384162 -0.000973944 0)
(-0.00375366 -0.00112372 0)
(-0.00357548 -0.00125547 0)
(-0.00330446 -0.00136898 0)
(-0.00296206 -0.00146804 0)
(-0.00256154 -0.00155296 0)
(-0.00210988 -0.00162638 0)
(-0.00162104 -0.00168728 0)
(-0.0011039 -0.00173723 0)
(-0.000572211 -0.00176908 0)
(-3.44349e-05 -0.00178729 0)
(0.000499232 -0.00178976 0)
(0.00100915 -0.00177796 0)
(0.00148491 -0.00175437 0)
(0.00191305 -0.00172158 0)
(0.00228207 -0.00168291 0)
(0.00258253 -0.0016421 0)
(0.00280159 -0.00160077 0)
(0.00293324 -0.0015639 0)
(0.00297521 -0.00153409 0)
(0.00292192 -0.00151223 0)
(0.00277202 -0.00149892 0)
(0.00253921 -0.00149516 0)
(0.00220054 -0.00149578 0)
(0.0018103 -0.00149572 0)
(0.00124181 -0.00147495 0)
(0.000815272 -0.0016681 0)
(0.000418493 -0.00221459 0)
(0.000772568 -0.00108538 0)
(0.001354 -0.0189019 0)
(0.0066088 -0.0270508 0)
(0.0128915 -0.0274121 0)
(0.0187386 -0.0252311 0)
(0.0241221 -0.0231664 0)
(0.0290085 -0.0219307 0)
(0.0336326 -0.021286 0)
(0.0381294 -0.0208305 0)
(0.0425249 -0.0203346 0)
(0.0468061 -0.019747 0)
(0.050949 -0.0190939 0)
(0.054936 -0.0184103 0)
(0.058759 -0.0177164 0)
(0.0624171 -0.017021 0)
(0.0659112 -0.0163279 0)
(0.0692421 -0.0156407 0)
(0.0724117 -0.0149628 0)
(0.075423 -0.0142973 0)
(0.0782796 -0.0136467 0)
(0.080986 -0.0130125 0)
(0.0835467 -0.0123951 0)
(0.0859661 -0.0117944 0)
(0.0882489 -0.0112096 0)
(0.0903997 -0.010639 0)
(0.092422 -0.0100811 0)
(0.0943196 -0.00953425 0)
(0.0960962 -0.0089964 0)
(0.0977542 -0.00846519 0)
(0.0992955 -0.00793826 0)
(0.100721 -0.00741309 0)
(0.102031 -0.00688658 0)
(0.103226 -0.00635559 0)
(0.104305 -0.00581732 0)
(0.105265 -0.0052694 0)
(0.106109 -0.00470994 0)
(0.106837 -0.00413808 0)
(0.107453 -0.00355471 0)
(0.107965 -0.00296201 0)
(0.108376 -0.00236253 0)
(0.108686 -0.00175873 0)
(0.108898 -0.00115372 0)
(0.109011 -0.00055061 0)
(0.109022 4.47069e-05 0)
(0.108936 0.000628519 0)
(0.10877 0.00120063 0)
(0.108518 0.00176143 0)
(0.108175 0.00230959 0)
(0.107741 0.0028437 0)
(0.107215 0.00336192 0)
(0.106596 0.00386177 0)
(0.10588 0.00434124 0)
(0.10506 0.00479949 0)
(0.104134 0.00523769 0)
(0.103099 0.00565869 0)
(0.101955 0.0060658 0)
(0.100708 0.0064622 0)
(0.0993611 0.00684972 0)
(0.0979196 0.00722875 0)
(0.096389 0.00759907 0)
(0.094774 0.00795935 0)
(0.0930786 0.00830804 0)
(0.0913067 0.00864413 0)
(0.0894624 0.00896674 0)
(0.0875498 0.00927485 0)
(0.0855723 0.00956761 0)
(0.0835338 0.0098437 0)
(0.0814387 0.0101022 0)
(0.0792911 0.0103424 0)
(0.0770951 0.0105638 0)
(0.0748552 0.0107655 0)
(0.0725757 0.0109475 0)
(0.0702608 0.0111089 0)
(0.0679147 0.0112492 0)
(0.0655423 0.0113682 0)
(0.0631481 0.0114655 0)
(0.0607364 0.011541 0)
(0.058311 0.0115943 0)
(0.0558765 0.0116256 0)
(0.0534368 0.0116347 0)
(0.0509962 0.0116224 0)
(0.0485591 0.0115897 0)
(0.0461303 0.0115376 0)
(0.0437133 0.0114676 0)
(0.0413112 0.011381 0)
(0.0389288 0.011279 0)
(0.0365714 0.0111637 0)
(0.0342441 0.0110369 0)
(0.0319498 0.0108999 0)
(0.0296933 0.0107545 0)
(0.0274793 0.0106031 0)
(0.025313 0.0104484 0)
(0.0231995 0.0102917 0)
(0.0211445 0.0101364 0)
(0.0191541 0.00998521 0)
(0.0172337 0.00983955 0)
(0.0153947 0.00970089 0)
(0.0136447 0.00956914 0)
(0.0119929 0.00944088 0)
(0.0104519 0.00930735 0)
(0.00903139 0.00915668 0)
(0.00773699 0.00897239 0)
(0.00656379 0.00873763 0)
(0.00549203 0.00843913 0)
(0.00449429 0.00807234 0)
(0.0035417 0.00764026 0)
(0.0026072 0.00715445 0)
(0.0016705 0.00662525 0)
(0.000711973 0.00606896 0)
(-0.000268413 0.00550049 0)
(-0.00127356 0.0049255 0)
(-0.0023114 0.00435473 0)
(-0.00337012 0.00378806 0)
(-0.00442767 0.0032423 0)
(-0.00544038 0.0027153 0)
(-0.00638435 0.00222024 0)
(-0.00724543 0.00175598 0)
(-0.00801085 0.00131943 0)
(-0.00868611 0.000903682 0)
(-0.0092734 0.000506097 0)
(-0.00977473 0.000119075 0)
(-0.0101837 -0.000249916 0)
(-0.0105029 -0.000600148 0)
(-0.0107371 -0.000927543 0)
(-0.0108816 -0.00122714 0)
(-0.01094 -0.00150429 0)
(-0.0109086 -0.00175213 0)
(-0.0107882 -0.00197069 0)
(-0.0105842 -0.00216134 0)
(-0.0103045 -0.0023251 0)
(-0.00994691 -0.00245843 0)
(-0.0095178 -0.00256174 0)
(-0.00902753 -0.00262883 0)
(-0.00847929 -0.00266654 0)
(-0.00788587 -0.00266847 0)
(-0.00725625 -0.00263757 0)
(-0.00660253 -0.00257555 0)
(-0.00593769 -0.00248663 0)
(-0.005274 -0.00237408 0)
(-0.00462771 -0.0022431 0)
(-0.00401089 -0.00209791 0)
(-0.00343153 -0.00194712 0)
(-0.00290202 -0.00179582 0)
(-0.0024304 -0.0016498 0)
(-0.00201811 -0.00150806 0)
(-0.00170654 -0.00135626 0)
(-0.0014544 -0.00118526 0)
(-0.00138813 -0.00111099 0)
(-0.00100386 -0.00161614 0)
(-0.000433108 -0.00268526 0)
(0.000685558 -0.000523418 0)
(0.00134094 -0.0243442 0)
(0.00668682 -0.0352106 0)
(0.0131343 -0.0359542 0)
(0.0192088 -0.0332048 0)
(0.0248153 -0.0304213 0)
(0.0298978 -0.0286654 0)
(0.0346718 -0.0277224 0)
(0.039284 -0.0270896 0)
(0.0437778 -0.0264403 0)
(0.0481504 -0.0256758 0)
(0.0523818 -0.0248168 0)
(0.056453 -0.0239091 0)
(0.0603549 -0.022984 0)
(0.0640841 -0.0220553 0)
(0.0676407 -0.0211296 0)
(0.0710258 -0.0202112 0)
(0.0742416 -0.0193051 0)
(0.0772913 -0.0184155 0)
(0.0801785 -0.0175464 0)
(0.0829075 -0.0166996 0)
(0.0854831 -0.0158762 0)
(0.0879103 -0.0150763 0)
(0.0901944 -0.0142986 0)
(0.0923403 -0.0135417 0)
(0.0943518 -0.0128037 0)
(0.0962329 -0.0120819 0)
(0.097987 -0.0113742 0)
(0.0996166 -0.0106786 0)
(0.101124 -0.0099924 0)
(0.102511 -0.00931297 0)
(0.103781 -0.00863762 0)
(0.104935 -0.0079637 0)
(0.105975 -0.00728843 0)
(0.106904 -0.00660935 0)
(0.107725 -0.00592375 0)
(0.10844 -0.00522932 0)
(0.109052 -0.00452518 0)
(0.109563 -0.00381175 0)
(0.109976 -0.00309018 0)
(0.11029 -0.00236184 0)
(0.110507 -0.00162717 0)
(0.110627 -0.000887561 0)
(0.11066 -0.000144517 0)
(0.110601 0.000600489 0)
(0.110436 0.00134137 0)
(0.110171 0.00207112 0)
(0.109806 0.00278618 0)
(0.109342 0.00348392 0)
(0.108778 0.00416196 0)
(0.108115 0.00481819 0)
(0.107351 0.00545156 0)
(0.106486 0.00606222 0)
(0.105519 0.00665106 0)
(0.104449 0.00721965 0)
(0.103277 0.00776993 0)
(0.102006 0.00830365 0)
(0.100638 0.00882163 0)
(0.0991783 0.00932448 0)
(0.09763 0.00981224 0)
(0.0959967 0.0102844 0)
(0.0942831 0.0107398 0)
(0.0924933 0.0111771 0)
(0.0906306 0.0115955 0)
(0.0886989 0.0119938 0)
(0.0867019 0.012371 0)
(0.0846434 0.0127264 0)
(0.0825281 0.0130589 0)
(0.08036 0.0133675 0)
(0.078143 0.0136517 0)
(0.0758811 0.0139106 0)
(0.0735782 0.0141437 0)
(0.0712388 0.0143504 0)
(0.0688674 0.0145304 0)
(0.066468 0.0146833 0)
(0.0640447 0.0148088 0)
(0.0616016 0.0149068 0)
(0.0591434 0.0149771 0)
(0.0566741 0.0150199 0)
(0.0541973 0.0150351 0)
(0.0517175 0.0150239 0)
(0.0492393 0.0149874 0)
(0.0467662 0.0149257 0)
(0.0443025 0.0148396 0)
(0.0418524 0.0147312 0)
(0.0394201 0.0146019 0)
(0.0370113 0.0144534 0)
(0.0346305 0.014287 0)
(0.0322812 0.0141038 0)
(0.0299689 0.0139072 0)
(0.0276989 0.0136975 0)
(0.0254764 0.0134769 0)
(0.023306 0.0132466 0)
(0.0211926 0.0130097 0)
(0.0191423 0.0127666 0)
(0.0171614 0.0125193 0)
(0.0152568 0.0122677 0)
(0.0134348 0.0120097 0)
(0.0117015 0.0117449 0)
(0.0100629 0.0114678 0)
(0.00852171 0.0111717 0)
(0.00707771 0.0108477 0)
(0.00572443 0.0104855 0)
(0.00445043 0.0100767 0)
(0.00324308 0.00961663 0)
(0.00209035 0.00910539 0)
(0.000977543 0.00854439 0)
(-0.000101276 0.00793839 0)
(-0.00114321 0.00729944 0)
(-0.00215584 0.00664226 0)
(-0.00313952 0.00596851 0)
(-0.00410173 0.00530091 0)
(-0.00503766 0.00465028 0)
(-0.00594515 0.00403626 0)
(-0.0068191 0.00346349 0)
(-0.007653 0.00292965 0)
(-0.0084497 0.00243226 0)
(-0.00919806 0.0019612 0)
(-0.00989563 0.00150712 0)
(-0.0105462 0.00107356 0)
(-0.0111367 0.000649427 0)
(-0.0116729 0.000243013 0)
(-0.0121551 -0.000157701 0)
(-0.0125766 -0.000548592 0)
(-0.0129518 -0.000928061 0)
(-0.0132603 -0.00129349 0)
(-0.0134981 -0.00164008 0)
(-0.01367 -0.00196524 0)
(-0.013769 -0.0022676 0)
(-0.013792 -0.0025467 0)
(-0.0137366 -0.00279305 0)
(-0.0136018 -0.00301009 0)
(-0.0133907 -0.00319008 0)
(-0.0130978 -0.0033336 0)
(-0.0127244 -0.00343355 0)
(-0.0122786 -0.00349109 0)
(-0.0117611 -0.00350548 0)
(-0.0111753 -0.00347815 0)
(-0.0105283 -0.00341138 0)
(-0.00983017 -0.00330953 0)
(-0.00908824 -0.00317675 0)
(-0.00831144 -0.00302187 0)
(-0.00751012 -0.00285426 0)
(-0.00669123 -0.00267808 0)
(-0.00586599 -0.00247662 0)
(-0.00507834 -0.00221888 0)
(-0.00431206 -0.00194331 0)
(-0.00362033 -0.00201152 0)
(-0.00248221 -0.00303329 0)
(-0.00114299 -0.00444982 0)
(0.000479341 -0.000741451 0)
(0.00133123 -0.0298073 0)
(0.0067368 -0.0435024 0)
(0.0133721 -0.044742 0)
(0.0197211 -0.0414413 0)
(0.0255709 -0.0378882 0)
(0.0308302 -0.0355418 0)
(0.0357125 -0.0342469 0)
(0.0403908 -0.0334065 0)
(0.0449334 -0.0325885 0)
(0.0493472 -0.0316378 0)
(0.0536126 -0.0305647 0)
(0.0577083 -0.0294232 0)
(0.0616229 -0.0282555 0)
(0.0653532 -0.0270824 0)
(0.0689001 -0.0259137 0)
(0.0722663 -0.0247554 0)
(0.0754554 -0.0236134 0)
(0.0784721 -0.0224933 0)
(0.0813228 -0.0214002 0)
(0.0840135 -0.0203369 0)
(0.0865498 -0.0193041 0)
(0.0889386 -0.0183019 0)
(0.091186 -0.0173289 0)
(0.0932971 -0.0163833 0)
(0.0952775 -0.0154622 0)
(0.0971316 -0.0145626 0)
(0.0988627 -0.0136811 0)
(0.100475 -0.0128141 0)
(0.10197 -0.0119583 0)
(0.103352 -0.0111101 0)
(0.104621 -0.0102665 0)
(0.10578 -0.0094246 0)
(0.106828 -0.008582 0)
(0.107769 -0.0077364 0)
(0.108602 -0.0068865 0)
(0.10933 -0.00603177 0)
(0.109954 -0.00517138 0)
(0.110476 -0.00430622 0)
(0.110897 -0.0034377 0)
(0.111219 -0.00256669 0)
(0.111442 -0.00169441 0)
(0.111567 -0.000822804 0)
(0.111587 4.54922e-05 0)
(0.111508 0.000904863 0)
(0.11134 0.00175521 0)
(0.111076 0.00259594 0)
(0.110715 0.00342498 0)
(0.110255 0.00424045 0)
(0.109695 0.00504056 0)
(0.109032 0.00582365 0)
(0.108266 0.00658828 0)
(0.107396 0.00733341 0)
(0.106423 0.00805879 0)
(0.105346 0.00876487 0)
(0.104168 0.00945176 0)
(0.102889 0.0101194 0)
(0.101513 0.0107682 0)
(0.100043 0.0113975 0)
(0.0984826 0.0120063 0)
(0.096836 0.0125941 0)
(0.0951059 0.0131601 0)
(0.0932962 0.0137027 0)
(0.0914112 0.014221 0)
(0.0894548 0.0147138 0)
(0.087431 0.01518 0)
(0.0853434 0.015619 0)
(0.0831958 0.0160297 0)
(0.0809929 0.0164108 0)
(0.0787388 0.0167617 0)
(0.0764376 0.0170816 0)
(0.0740937 0.0173698 0)
(0.0717111 0.0176258 0)
(0.0692944 0.0178491 0)
(0.066848 0.0180392 0)
(0.0643765 0.0181959 0)
(0.061884 0.0183193 0)
(0.059375 0.0184093 0)
(0.056854 0.0184654 0)
(0.0543258 0.0184886 0)
(0.0517958 0.0184797 0)
(0.0492668 0.0184388 0)
(0.0467431 0.0183667 0)
(0.0442308 0.0182645 0)
(0.0417342 0.0181332 0)
(0.0392578 0.0179744 0)
(0.0368067 0.0177897 0)
(0.034386 0.0175799 0)
(0.0320015 0.017347 0)
(0.0296574 0.017093 0)
(0.0273571 0.0168193 0)
(0.0251076 0.0165279 0)
(0.0229146 0.0162199 0)
(0.0207829 0.0158969 0)
(0.0187171 0.0155611 0)
(0.0167218 0.0152137 0)
(0.0148023 0.0148547 0)
(0.0129653 0.0144829 0)
(0.0112144 0.014097 0)
(0.00955175 0.0136953 0)
(0.00797959 0.013273 0)
(0.00649785 0.012825 0)
(0.00510402 0.0123479 0)
(0.00379217 0.0118384 0)
(0.00255625 0.011295 0)
(0.0013855 0.0107198 0)
(0.000267607 0.0101134 0)
(-0.000798301 0.00948796 0)
(-0.00181753 0.0088492 0)
(-0.00280777 0.00819449 0)
(-0.00376751 0.00753819 0)
(-0.00470117 0.00687913 0)
(-0.00561016 0.00623124 0)
(-0.00648956 0.00559193 0)
(-0.00733331 0.0049692 0)
(-0.00813292 0.00436381 0)
(-0.00888835 0.00377866 0)
(-0.00959914 0.0032114 0)
(-0.0102542 0.00266337 0)
(-0.010861 0.00212804 0)
(-0.0114175 0.0016145 0)
(-0.0119221 0.00110931 0)
(-0.0123895 0.000620681 0)
(-0.0128102 0.000136658 0)
(-0.013185 -0.000332463 0)
(-0.0135135 -0.000780796 0)
(-0.0137895 -0.001215 0)
(-0.0140136 -0.00163081 0)
(-0.014189 -0.00202632 0)
(-0.0143064 -0.00239948 0)
(-0.0143624 -0.00274929 0)
(-0.0143591 -0.00306932 0)
(-0.0142929 -0.00335823 0)
(-0.0141546 -0.00360977 0)
(-0.0139415 -0.00382537 0)
(-0.0136547 -0.00400031 0)
(-0.0132889 -0.00413082 0)
(-0.012843 -0.00421639 0)
(-0.012316 -0.0042588 0)
(-0.0117095 -0.00426032 0)
(-0.0110251 -0.00422223 0)
(-0.0102652 -0.0041535 0)
(-0.00943551 -0.00406262 0)
(-0.00854015 -0.00394582 0)
(-0.00759236 -0.00377036 0)
(-0.00662215 -0.00350062 0)
(-0.00561478 -0.00325874 0)
(-0.00458898 -0.00359997 0)
(-0.0031366 -0.00515738 0)
(-0.00151633 -0.00674753 0)
(0.000281079 -0.00145032 0)
(0.00130319 -0.0352792 0)
(0.00674904 -0.0519704 0)
(0.013608 -0.0539079 0)
(0.0203263 -0.0501204 0)
(0.0265309 -0.0457144 0)
(0.032053 -0.042645 0)
(0.0370868 -0.0409006 0)
(0.0418473 -0.0398049 0)
(0.0464463 -0.0388011 0)
(0.0509089 -0.0376554 0)
(0.0552162 -0.0363546 0)
(0.0593415 -0.0349608 0)
(0.063269 -0.0335299 0)
(0.0669943 -0.0320927 0)
(0.0705198 -0.030664 0)
(0.0738515 -0.0292518 0)
(0.0769967 -0.0278637 0)
(0.0799617 -0.0265069 0)
(0.0827555 -0.0251867 0)
(0.0853882 -0.0239065 0)
(0.087868 -0.0226671 0)
(0.0902026 -0.0214678 0)
(0.0924 -0.020307 0)
(0.0944666 -0.0191812 0)
(0.0964084 -0.0180869 0)
(0.0982302 -0.0170204 0)
(0.0999359 -0.0159773 0)
(0.101528 -0.0149535 0)
(0.10301 -0.0139449 0)
(0.104383 -0.0129481 0)
(0.105648 -0.0119596 0)
(0.106807 -0.0109763 0)
(0.107861 -0.0099958 0)
(0.10881 -0.0090151 0)
(0.109655 -0.00803211 0)
(0.110397 -0.00704549 0)
(0.111038 -0.00605425 0)
(0.111576 -0.00505804 0)
(0.112013 -0.00405733 0)
(0.112348 -0.00305293 0)
(0.112581 -0.00204637 0)
(0.112712 -0.00103904 0)
(0.112746 -3.27502e-05 0)
(0.112681 0.000973881 0)
(0.112511 0.00197594 0)
(0.112235 0.00296962 0)
(0.111857 0.00395197 0)
(0.111375 0.00492039 0)
(0.11079 0.00587231 0)
(0.1101 0.0068059 0)
(0.109306 0.00771989 0)
(0.108408 0.0086132 0)
(0.107406 0.00948515 0)
(0.106301 0.010335 0)
(0.105093 0.0111625 0)
(0.103786 0.0119673 0)
(0.102382 0.0127488 0)
(0.100883 0.0135064 0)
(0.0992922 0.014239 0)
(0.0976138 0.0149453 0)
(0.0958506 0.0156244 0)
(0.0940062 0.0162754 0)
(0.0920846 0.0168968 0)
(0.0900896 0.0174875 0)
(0.0880253 0.0180462 0)
(0.0858954 0.0185717 0)
(0.0837038 0.019063 0)
(0.0814552 0.0195191 0)
(0.0791539 0.0199392 0)
(0.0768041 0.0203223 0)
(0.0744101 0.0206678 0)
(0.0719765 0.0209748 0)
(0.0695081 0.0212429 0)
(0.0670093 0.0214716 0)
(0.0644848 0.0216606 0)
(0.0619392 0.0218098 0)
(0.0593768 0.0219189 0)
(0.0568033 0.0219883 0)
(0.0542241 0.0220187 0)
(0.0516431 0.0220098 0)
(0.0490646 0.0219619 0)
(0.0464942 0.0218766 0)
(0.0439371 0.0217544 0)
(0.041398 0.0215965 0)
(0.0388821 0.0214039 0)
(0.0363947 0.0211783 0)
(0.0339406 0.0209211 0)
(0.0315254 0.0206337 0)
(0.0291536 0.0203176 0)
(0.0268307 0.0199749 0)
(0.0245611 0.0196076 0)
(0.0223494 0.0192178 0)
(0.020202 0.0188065 0)
(0.0181237 0.0183743 0)
(0.016118 0.0179231 0)
(0.0141879 0.0174539 0)
(0.0123381 0.0169678 0)
(0.0105738 0.0164628 0)
(0.00889574 0.0159386 0)
(0.00730275 0.0153929 0)
(0.00579652 0.0148247 0)
(0.00437429 0.014231 0)
(0.00302873 0.0136101 0)
(0.00175533 0.012962 0)
(0.000545808 0.0122852 0)
(-0.00060072 0.0115858 0)
(-0.00168424 0.0108732 0)
(-0.00272386 0.0101464 0)
(-0.00371693 0.0094066 0)
(-0.00466325 0.0086733 0)
(-0.00557114 0.00793988 0)
(-0.00643786 0.00722362 0)
(-0.00726942 0.00652362 0)
(-0.00805548 0.00584445 0)
(-0.00879578 0.00518803 0)
(-0.00949726 0.00455311 0)
(-0.0101509 0.00394011 0)
(-0.0107601 0.00334503 0)
(-0.0113184 0.00276412 0)
(-0.0118238 0.00220246 0)
(-0.0122846 0.00164911 0)
(-0.012701 0.00110931 0)
(-0.0130685 0.000582406 0)
(-0.0133818 6.85553e-05 0)
(-0.0136487 -0.000431979 0)
(-0.0138716 -0.000918794 0)
(-0.0140475 -0.00139279 0)
(-0.0141758 -0.00185075 0)
(-0.0142571 -0.00228848 0)
(-0.0142845 -0.00270665 0)
(-0.0142573 -0.00310289 0)
(-0.0141782 -0.00347269 0)
(-0.014042 -0.00381199 0)
(-0.0138462 -0.00412028 0)
(-0.0135836 -0.00439372 0)
(-0.013251 -0.00462885 0)
(-0.0128479 -0.00482546 0)
(-0.0123717 -0.00498169 0)
(-0.011816 -0.00509743 0)
(-0.0111793 -0.00517571 0)
(-0.010465 -0.00522142 0)
(-0.00967166 -0.00524194 0)
(-0.00880006 -0.00522746 0)
(-0.00785644 -0.00513582 0)
(-0.00685748 -0.00492978 0)
(-0.00579208 -0.00478675 0)
(-0.00468949 -0.00537457 0)
(-0.00326109 -0.00736349 0)
(-0.00167131 -0.00911911 0)
(0.000135229 -0.00244864 0)
(0.00125245 -0.0407135 0)
(0.00670684 -0.0606046 0)
(0.0137966 -0.0635168 0)
(0.0209612 -0.0593781 0)
(0.0276397 -0.05405 0)
(0.0335381 -0.0500911 0)
(0.0388036 -0.0477462 0)
(0.0436907 -0.0463145 0)
(0.0483679 -0.0450992 0)
(0.052896 -0.0437509 0)
(0.0572634 -0.0422098 0)
(0.0614361 -0.0405407 0)
(0.0653902 -0.0388185 0)
(0.0691181 -0.0370894 0)
(0.0726243 -0.0353761 0)
(0.0759187 -0.0336908 0)
(0.0790121 -0.0320428 0)
(0.081916 -0.03044 0)
(0.0846438 -0.0288882 0)
(0.0872082 -0.0273906 0)
(0.0896203 -0.0259474 0)
(0.0918906 -0.0245566 0)
(0.0940289 -0.0232147 0)
(0.0960431 -0.0219173 0)
(0.0979392 -0.0206588 0)
(0.0997227 -0.0194338 0)
(0.101397 -0.0182371 0)
(0.102966 -0.0170631 0)
(0.104431 -0.015907 0)
(0.105793 -0.0147634 0)
(0.107054 -0.0136285 0)
(0.108213 -0.0124989 0)
(0.10927 -0.011371 0)
(0.110226 -0.0102424 0)
(0.111081 -0.00911121 0)
(0.111833 -0.00797611 0)
(0.112482 -0.006837 0)
(0.113029 -0.00569354 0)
(0.113472 -0.00454605 0)
(0.113811 -0.00339564 0)
(0.114047 -0.00224346 0)
(0.114179 -0.00109081 0)
(0.114204 6.03752e-05 0)
(0.114122 0.00120472 0)
(0.113937 0.00234189 0)
(0.113648 0.0034709 0)
(0.113253 0.00458986 0)
(0.112751 0.0056961 0)
(0.112142 0.00678757 0)
(0.111427 0.00786231 0)
(0.110604 0.00891818 0)
(0.109676 0.00995376 0)
(0.108641 0.0109676 0)
(0.107501 0.011958 0)
(0.106259 0.0129241 0)
(0.104915 0.013865 0)
(0.103472 0.0147793 0)
(0.101934 0.0156655 0)
(0.100302 0.0165228 0)
(0.0985809 0.0173496 0)
(0.0967737 0.0181443 0)
(0.0948836 0.0189056 0)
(0.0929143 0.0196322 0)
(0.0908702 0.0203226 0)
(0.0887552 0.0209754 0)
(0.0865729 0.0215895 0)
(0.0843276 0.0221635 0)
(0.0820243 0.0226964 0)
(0.0796672 0.0231872 0)
(0.0772605 0.0236348 0)
(0.0748089 0.0240384 0)
(0.0723171 0.0243973 0)
(0.0697899 0.0247108 0)
(0.067232 0.0249783 0)
(0.0646483 0.0251994 0)
(0.0620434 0.0253741 0)
(0.0594228 0.0255019 0)
(0.056792 0.0255836 0)
(0.0541552 0.0256188 0)
(0.0515174 0.0256078 0)
(0.0488842 0.0255511 0)
(0.0462605 0.02545 0)
(0.0436517 0.0253045 0)
(0.0410631 0.0251166 0)
(0.0384996 0.0248871 0)
(0.035967 0.0246169 0)
(0.0334699 0.0243079 0)
(0.0310141 0.0239619 0)
(0.0286047 0.0235804 0)
(0.0262459 0.0231651 0)
(0.0239441 0.0227182 0)
(0.0217039 0.0222418 0)
(0.0195277 0.0217377 0)
(0.0174211 0.0212074 0)
(0.0153895 0.020653 0)
(0.0134369 0.0200752 0)
(0.0115654 0.0194757 0)
(0.00977669 0.0188549 0)
(0.00807263 0.0182134 0)
(0.00645444 0.017551 0)
(0.00492081 0.0168678 0)
(0.00346855 0.016164 0)
(0.00209539 0.0154402 0)
(0.000794657 0.0146957 0)