/*--------------------------------*- C++ -*----------------------------------*\
| =========                 |                                                 |
| \\      /  F ield         | OpenFOAM: The Open Source CFD Toolbox           |
|  \\    /   O peration     | Version:  v2006                                 |
|   \\  /    A nd           | Website:  www.openfoam.com                      |
|    \\/     M anipulation  |                                                 |
\*---------------------------------------------------------------------------*/
FoamFile
{
    version     2.0;
    format      ascii;
    class       volScalarField;
    location    "0";
    object      f;
}
// * * * * * * * * * * * * * * * * * * * * * * * * * * * * * * * * * * * * * //

dimensions      [0 0 0 0 0 0 0];


internalField   nonuniform List<scalar> 
2500
(
4.34484e-178
-1.93172e-158
1.50656e-150
1.73292e-141
1.04644e-136
3.23159e-133
2.61586e-130
3.01668e-128
6.18947e-127
7.27676e-122
7.37361e-121
3.10148e-120
7.39513e-120
1.14602e-119
1.25175e-119
1.01875e-119
6.43901e-120
3.2642e-120
1.36207e-120
4.77882e-121
1.43495e-121
3.74321e-122
8.59181e-123
1.75446e-123
3.21805e-124
5.34691e-125
8.10859e-126
1.12995e-126
1.45587e-127
1.74416e-128
1.95315e-129
2.05448e-130
2.03938e-131
1.91876e-132
1.71817e-133
1.46997e-134
1.2059e-135
9.5167e-137
7.24582e-138
5.33573e-139
3.808e-140
2.63819e-141
1.77645e-142
1.16366e-143
7.41984e-145
4.60715e-146
2.78652e-147
1.64201e-148
9.42873e-150
3.95355e-151
8.8549e-174
-1.33056e-154
7.14304e-147
4.71284e-138
2.21416e-133
5.59904e-130
3.83568e-127
3.84547e-125
7.02974e-124
7.60782e-119
7.05688e-118
2.74229e-117
6.08663e-117
8.83524e-117
9.0867e-117
6.99455e-117
4.19741e-117
2.02707e-117
8.08182e-118
2.71638e-118
7.83223e-119
1.96601e-119
4.35057e-120
8.57967e-121
1.52216e-121
2.44978e-122
3.60314e-123
4.87545e-124
6.10597e-125
7.11729e-126
7.76131e-127
7.95636e-128
7.70246e-129
7.07213e-130
6.18364e-131
5.16859e-132
4.14454e-133
3.19862e-134
2.38279e-135
1.7176e-136
1.20053e-137
8.14982e-139
5.38014e-140
3.45701e-141
2.16339e-142
1.31909e-143
7.83857e-145
4.5405e-146
2.56416e-147
1.07316e-148
1.74258e-169
-8.85105e-151
3.2659e-143
1.23271e-134
4.50644e-130
9.33287e-127
5.41162e-124
4.71808e-122
7.6897e-121
7.67184e-116
6.51924e-115
2.34229e-114
4.84299e-114
6.5896e-114
6.38574e-114
4.65213e-114
2.65228e-114
1.22096e-114
4.65382e-115
1.49931e-115
4.15335e-116
1.00373e-116
2.14246e-117
4.08237e-118
7.00884e-119
1.09311e-119
1.55998e-120
2.05049e-121
2.4972e-122
2.83322e-123
3.00982e-124
3.00811e-125
2.84109e-126
2.54657e-127
2.17494e-128
1.77664e-129
1.39297e-130
1.05165e-131
7.66718e-133
5.41153e-134
3.70534e-135
2.46536e-136
1.59597e-137
1.00615e-138
6.18107e-140
3.7017e-141
2.16167e-142
1.23113e-143
6.83918e-145
2.85809e-146
3.37379e-165
-5.79124e-147
1.46412e-139
3.16237e-131
8.99576e-127
1.52587e-123
7.48892e-121
5.6788e-119
8.25514e-118
7.59886e-113
5.91833e-112
1.96693e-111
3.79022e-111
4.83617e-111
4.41769e-111
3.04713e-111
1.65106e-111
7.24754e-112
2.64187e-112
8.16076e-113
2.1726e-113
5.0564e-114
1.04134e-114
1.9177e-115
3.1869e-116
4.81773e-117
6.67273e-118
8.52201e-119
1.00946e-119
1.11501e-120
1.15416e-121
1.12482e-122
1.03666e-123
9.0727e-125
7.57013e-126
6.04444e-127
4.63455e-128
3.42332e-129
2.44299e-130
1.68855e-131
1.13275e-132
7.38774e-134
4.69036e-135
2.90148e-136
1.74995e-137
1.02944e-138
5.90822e-140
3.30869e-141
1.80824e-142
7.54528e-144
6.4226e-161
-3.72483e-143
6.43733e-136
7.95068e-128
1.75992e-123
2.44508e-120
1.01576e-117
6.70044e-116
8.69106e-115
7.38775e-110
5.27635e-109
1.62285e-108
2.91583e-108
3.49048e-108
3.0068e-108
1.96439e-108
1.01197e-108
4.23735e-109
1.47766e-109
4.37792e-110
1.12044e-110
2.51201e-111
4.99283e-112
8.8887e-113
1.43018e-113
2.09617e-114
2.81834e-115
3.49809e-116
4.03113e-117
4.33578e-118
4.37396e-119
4.15756e-120
3.73969e-121
3.19631e-122
2.60598e-123
2.03422e-124
1.52557e-125
1.10268e-126
7.70363e-128
5.215e-129
3.42801e-130
2.19178e-131
1.36485e-132
8.2855e-134
4.90653e-135
2.83549e-136
1.59951e-137
8.80868e-139
4.73637e-140
1.97319e-141
1.20145e-156
-2.35357e-139
2.77585e-132
1.95744e-124
3.37172e-120
3.83704e-117
1.34928e-114
7.74398e-113
8.96651e-112
7.04495e-107
4.61633e-106
1.31468e-105
2.20355e-105
2.47589e-105
2.01217e-105
1.24564e-105
6.10338e-106
2.43867e-106
8.13837e-107
2.31339e-107
5.69345e-108
1.22999e-108
2.36005e-109
4.06286e-110
6.33076e-111
8.99829e-112
1.17472e-112
1.41733e-113
1.5893e-114
1.66491e-115
1.63721e-116
1.5181e-117
1.33299e-118
1.11284e-119
8.86718e-121
6.76806e-122
4.96536e-123
3.51249e-124
2.40268e-125
1.59324e-126
1.02634e-127
6.43388e-129
3.93009e-130
2.34152e-131
1.36158e-132
7.73059e-134
4.28659e-135
2.32166e-136
1.2283e-137
5.10798e-139
2.20713e-152
-1.45996e-135
1.1738e-128
4.71516e-121
6.32036e-117
5.89194e-114
1.75379e-111
8.75945e-110
9.05784e-109
6.58433e-104
3.96067e-103
1.04496e-102
1.63472e-102
1.72483e-102
1.32308e-102
7.76435e-103
3.61983e-103
1.38065e-103
4.4109e-104
1.20336e-104
2.8488e-105
5.9321e-106
1.09912e-106
1.83015e-107
2.76245e-108
3.80865e-109
4.82896e-110
5.66477e-111
6.18235e-112
6.30914e-113
6.04891e-114
5.47258e-115
4.69166e-116
3.82653e-117
2.98035e-118
2.2247e-119
1.59691e-120
1.10576e-121
7.40694e-123
4.81181e-124
3.03806e-125
1.86748e-126
1.11911e-127
6.54447e-129
3.73721e-130
2.08484e-131
1.13645e-132
6.05388e-134
3.15173e-135
1.30798e-136
3.97904e-148
-8.8848e-132
4.86607e-125
1.11027e-117
1.15816e-113
8.84475e-111
2.22857e-108
9.68846e-107
8.95159e-106
6.02642e-101
3.3297e-100
8.14301e-100
1.18958e-99
1.17926e-99
8.54201e-100
4.75394e-100
2.10968e-100
7.68411e-101
2.35096e-101
6.15763e-102
1.40267e-102
2.81612e-103
5.03991e-104
8.11919e-105
1.18744e-105
1.58842e-106
1.95639e-107
2.23189e-108
2.37121e-109
2.35781e-110
2.20443e-111
1.94631e-112
1.62944e-113
1.29858e-114
9.88814e-116
7.21965e-117
5.07133e-118
3.4378e-119
2.25539e-120
1.43561e-121
8.88499e-123
5.35606e-124
3.14917e-125
1.80778e-126
1.01388e-127
5.55782e-129
2.9785e-130
1.56068e-131
7.99598e-133
3.31051e-134
7.0347e-144
-5.3005e-128
1.97689e-121
2.55306e-114
2.07257e-110
1.29675e-107
2.76586e-105
1.04685e-103
8.64664e-103
5.39689e-98
2.74056e-97
6.21612e-97
8.48468e-97
7.90643e-97
5.41066e-97
2.85701e-97
1.20736e-97
4.20104e-98
1.23132e-98
3.09732e-99
6.79108e-100
1.31495e-100
2.27373e-101
3.54479e-102
5.02448e-103
6.52265e-104
7.80587e-105
8.6621e-106
8.96064e-107
8.68337e-108
7.91844e-109
6.82401e-110
5.58004e-111
4.34605e-112
3.23596e-113
2.31141e-114
1.58908e-115
1.05476e-116
6.77832e-118
4.22806e-119
2.56536e-120
1.51676e-121
8.75082e-123
4.93162e-124
2.71669e-125
1.46348e-126
7.71138e-128
3.9748e-129
2.00425e-130
8.27535e-132
1.2187e-139
-3.09745e-124
7.86655e-118
5.72716e-111
3.61833e-107
1.8549e-104
3.34918e-102
1.10388e-100
8.15523e-100
4.72453e-95
2.20637e-94
4.64431e-94
5.9264e-94
5.19396e-94
3.3597e-94
1.68394e-94
6.77941e-95
2.25438e-95
6.33234e-96
1.53028e-96
3.23051e-97
6.03458e-98
1.00845e-98
1.52189e-99
2.09118e-100
2.63517e-101
3.06486e-102
3.30896e-103
3.33362e-104
3.14893e-105
2.80132e-106
2.35683e-107
1.88268e-108
1.43331e-109
1.04372e-110
7.29461e-112
4.90918e-113
3.19103e-114
2.00904e-115
1.22821e-116
7.30675e-118
4.23763e-119
2.3993e-120
1.32758e-121
7.18392e-123
3.80345e-124
1.97065e-125
9.99298e-127
4.95954e-128
2.04134e-129
2.06718e-135
-1.7715e-120
3.06423e-114
1.25191e-107
6.15571e-104
2.5858e-101
3.95245e-99
1.13474e-97
7.50246e-97
4.03899e-92
1.73582e-91
3.39298e-91
4.05005e-91
3.34018e-91
2.04326e-91
9.72566e-92
3.73174e-92
1.18641e-92
3.19485e-93
7.41986e-94
1.50863e-94
2.71952e-95
4.39338e-96
6.41976e-97
8.55353e-98
1.04652e-98
1.18319e-99
1.24311e-100
1.21992e-101
1.12347e-102
9.752e-104
8.01137e-105
6.25293e-106
4.65405e-107
3.31501e-108
2.26735e-109
1.49393e-110
9.51124e-112
5.86745e-113
3.51608e-114
2.05121e-115
1.16706e-116
6.48532e-118
3.52361e-119
1.87318e-120
9.74774e-122
4.9666e-123
2.4779e-124
1.21053e-125
4.96479e-127
3.43013e-131
-9.90677e-117
1.16757e-110
2.66341e-104
1.01929e-100
3.50879e-98
4.54042e-96
1.13577e-94
6.72437e-94
3.36839e-89
1.3331e-88
2.42136e-88
2.7053e-88
2.10074e-88
1.21592e-88
5.4989e-89
2.01181e-89
6.11744e-90
1.5799e-90
3.52747e-91
6.90994e-92
1.2024e-92
1.87835e-93
2.65829e-94
3.43522e-95
4.08176e-96
4.48698e-97
4.58852e-98
4.38715e-99
3.93988e-100
3.33758e-101
2.67776e-102
2.04247e-103
1.48649e-104
1.03586e-105
6.93463e-107
4.47416e-108
2.79041e-109
1.68694e-110
9.9105e-112
5.67029e-113
3.16538e-114
1.7266e-115
9.21245e-117
4.81173e-118
2.46134e-119
1.23336e-120
6.05462e-122
2.91179e-123
1.18944e-124
5.56276e-127
-5.41202e-113
4.34823e-107
5.50746e-101
1.64058e-97
4.62856e-95
5.07068e-93
1.10549e-91
5.86465e-91
2.73721e-86
9.98323e-86
1.68609e-85
1.76437e-85
1.29078e-85
7.07285e-86
3.04057e-86
1.06116e-86
3.08745e-87
7.65006e-88
1.64263e-88
3.1011e-89
5.21058e-90
7.8733e-91
1.07945e-91
1.35329e-92
1.56197e-93
1.66985e-94
1.66247e-95
1.54896e-96
1.35674e-97
1.12187e-98
8.792e-100
6.55475e-101
4.66548e-102
3.18122e-103
2.08487e-104
1.31739e-105
8.04987e-107
4.76986e-108
2.74758e-109
1.54198e-110
8.4468e-112
4.5231e-113
2.37025e-114
1.21646e-115
6.11727e-117
3.01491e-118
1.45641e-119
6.89559e-121
2.80425e-122
8.8082e-123
-2.88518e-109
1.5813e-103
1.10529e-97
2.56311e-94
5.92724e-92
5.49755e-90
1.04495e-88
4.97042e-88
2.16467e-83
7.28118e-83
1.14428e-82
1.12223e-82
7.73944e-83
4.01704e-83
1.64238e-83
5.47028e-84
1.52353e-84
3.62316e-85
7.48437e-86
1.36219e-86
2.21072e-87
3.232e-88
4.29391e-89
5.22375e-90
5.85815e-91
6.09198e-92
5.9059e-93
5.36334e-94
4.58279e-95
3.6996e-96
2.83261e-97
2.06451e-98
1.43736e-99
9.59172e-101
6.1548e-102
3.80948e-103
2.28102e-104
1.32495e-105
7.48439e-107
4.12062e-108
2.21527e-109
1.16467e-110
5.99493e-112
3.02352e-113
1.49487e-114
7.24705e-116
3.44524e-117
1.60605e-118
6.49933e-120
1.36031e-118
-1.4993e-105
5.60976e-100
2.14915e-94
3.88098e-91
7.35732e-89
5.77763e-87
9.5778e-86
4.08765e-85
1.66378e-80
5.16521e-80
7.55887e-80
6.95253e-80
4.52286e-80
2.2249e-80
8.65585e-81
2.75271e-81
7.34187e-82
1.67642e-82
3.33272e-83
5.84966e-84
9.17247e-85
1.29782e-85
1.67126e-86
1.97345e-87
2.1508e-88
2.17615e-89
2.05475e-90
1.81911e-91
1.51662e-92
1.19554e-93
8.94456e-95
6.37423e-96
4.34171e-97
2.83594e-98
1.78205e-99
1.08059e-100
6.34136e-102
3.61135e-103
2.00082e-104
1.08082e-105
5.70332e-107
2.94436e-108
1.48884e-109
7.37991e-111
3.58771e-112
1.71104e-113
8.00584e-115
3.67485e-116
1.47915e-117
2.04665e-114
-7.58559e-102
1.9392e-96
4.03983e-91
5.68587e-88
8.83751e-86
5.87611e-84
8.49884e-83
3.25683e-82
1.24105e-77
3.55889e-77
4.85347e-77
4.18972e-77
2.57263e-77
1.20014e-77
4.44521e-78
1.35041e-78
3.45069e-79
7.56821e-80
1.44849e-80
2.45267e-81
3.71696e-82
5.09129e-83
6.35663e-84
7.2873e-85
7.72038e-86
7.60181e-87
6.9923e-88
6.03616e-89
4.91119e-90
3.78105e-91
2.76472e-92
1.92679e-93
1.28419e-94
8.21191e-96
5.05412e-97
3.00293e-98
1.72741e-99
9.64655e-101
5.2427e-102
2.77912e-103
1.43964e-104
7.29899e-106
3.62619e-107
1.76676e-108
8.44636e-110
3.96315e-111
1.82524e-112
8.25058e-114
3.30166e-115
2.99618e-110
-3.73177e-98
6.52439e-93
7.31596e-88
8.04527e-85
1.02542e-82
5.77311e-81
7.28803e-80
2.50959e-79
8.97001e-75
2.37799e-74
3.02455e-74
2.45221e-74
1.42222e-74
6.29563e-75
2.22126e-75
6.44924e-76
1.57955e-76
3.32894e-77
6.13609e-78
1.00267e-78
1.46903e-79
1.94855e-80
2.35936e-81
2.62666e-82
2.70568e-83
2.59322e-84
2.32418e-85
1.95676e-86
1.55401e-87
1.1687e-88
8.3534e-90
5.69427e-91
3.7142e-92
2.3256e-93
1.40213e-94
8.16435e-96
4.60439e-97
2.52178e-98
1.34464e-99
6.9957e-101
3.55805e-102
1.77186e-103
8.64982e-105
4.14299e-106
1.94797e-107
8.99355e-109
4.07746e-110
1.81522e-111
7.21882e-113
4.26218e-106
-1.78263e-94
2.13401e-89
1.2674e-84
1.09722e-81
1.14702e-79
5.46832e-78
6.02804e-77
1.8667e-76
6.27137e-72
1.5383e-71
1.82625e-71
1.39173e-71
7.62924e-72
3.20661e-72
1.07833e-72
2.99373e-73
7.031e-74
1.42447e-74
2.52967e-75
3.9904e-76
5.65402e-77
7.26445e-78
8.53272e-79
9.22732e-80
9.24386e-81
8.62582e-82
7.53439e-83
6.18773e-84
4.79761e-85
3.52514e-86
2.46341e-87
1.64278e-88
1.04886e-89
6.43156e-91
3.79923e-92
2.16838e-93
1.19911e-94
6.44209e-96
3.37064e-97
1.72139e-98
8.59738e-100
4.20588e-101
2.01784e-102
9.50236e-104
4.39474e-105
1.9967e-106
8.91247e-108
3.90806e-109
1.54387e-110
5.88315e-102
-8.25614e-91
6.77957e-86
2.06073e-81
1.43898e-78
1.23425e-76
4.98288e-75
4.79877e-74
1.3375e-73
4.23339e-69
9.61634e-69
1.0665e-68
7.64535e-69
3.96421e-69
1.58305e-69
5.07683e-70
1.34844e-70
3.03822e-71
5.91969e-72
1.01321e-72
1.54344e-73
2.1156e-74
2.63375e-75
3.00179e-76
3.15399e-77
3.0736e-78
2.79303e-79
2.37813e-80
1.90556e-81
1.4427e-82
1.03589e-83
7.07871e-85
4.61895e-86
2.88714e-87
1.73408e-88
1.00381e-89
5.61659e-91
3.04611e-92
1.60554e-93
8.24457e-95
4.13383e-96
2.02775e-97
9.74651e-99
4.59618e-100
2.12836e-101
9.68369e-103
4.3302e-104
1.90316e-105
8.22079e-107
3.22483e-108
7.86719e-98
-3.7013e-87
2.09192e-82
2.94464e-78
1.80976e-75
1.27453e-73
4.35762e-72
3.66815e-71
9.20995e-71
2.75347e-66
5.79739e-66
6.01167e-66
4.05723e-66
1.99135e-66
7.56053e-67
2.31367e-67
5.8823e-68
1.2721e-68
2.38468e-69
3.93541e-70
5.79127e-71
7.68178e-72
9.26887e-73
1.02536e-73
1.04703e-74
9.92803e-76
8.78767e-77
7.29526e-78
5.70456e-79
4.21816e-80
2.96025e-81
1.97846e-82
1.2634e-83
7.73266e-85
4.55001e-86
2.5815e-87
1.41629e-88
7.53446e-90
3.89684e-91
1.96427e-92
9.67119e-94
4.6601e-95
2.20114e-96
1.02044e-97
4.64739e-99
2.08048e-100
9.15761e-102
3.96363e-103
1.68679e-104
6.56816e-106
1.01747e-93
-1.60337e-83
6.28555e-79
2.57144e-75
2.17414e-72
1.25966e-70
3.64757e-69
2.68529e-68
6.0791e-68
1.72172e-63
3.36307e-63
3.26362e-63
2.07541e-63
9.64984e-64
3.48572e-64
1.0185e-64
2.47999e-65
5.15019e-66
9.29292e-67
1.47925e-67
2.10366e-68
2.70117e-69
3.15992e-70
3.39384e-71
3.36896e-72
3.10902e-73
2.68113e-74
2.17065e-75
1.65675e-76
1.19672e-77
8.21009e-79
5.36771e-80
3.3551e-81
2.01111e-82
1.15952e-83
6.44907e-85
3.46989e-86
1.81102e-87
9.19287e-89
4.54947e-90
2.19997e-91
1.04152e-92
4.83527e-94
2.2041e-95
9.8742e-97
4.35002e-98
1.88508e-99
8.03617e-101
3.36984e-102
1.30209e-103
1.27029e-89
-6.69904e-80
1.85708e-75
-6.29685e-72
2.47636e-69
1.18795e-67
2.91376e-66
1.8771e-65
3.83516e-65
1.03241e-60
1.87259e-60
1.70219e-60
1.02087e-60
4.50023e-61
1.54771e-61
4.32069e-62
1.00817e-62
2.01151e-63
3.49515e-64
5.36863e-65
7.38086e-66
9.17743e-67
1.04122e-67
1.08605e-68
1.04832e-69
9.418e-71
7.91483e-72
6.25049e-73
4.65758e-74
3.28715e-75
2.20503e-76
1.41052e-77
8.6314e-79
5.06799e-80
2.86365e-81
1.56162e-82
8.24167e-84
4.22098e-85
2.10327e-86
1.02215e-87
4.85554e-89
2.25898e-90
1.03098e-91
4.62189e-93
2.03716e-94
8.83342e-96
3.76935e-97
1.58295e-98
6.54168e-100
2.50752e-101
1.52787e-85
-2.69467e-76
5.54935e-72
-5.97418e-68
2.61968e-66
1.0653e-64
2.21385e-63
1.24884e-62
2.30502e-62
5.9204e-58
9.98044e-58
8.50605e-58
4.81554e-58
2.01433e-58
6.60078e-59
1.76176e-59
3.94157e-60
7.55961e-61
1.26549e-61
1.87649e-62
2.49498e-63
3.00519e-64
3.30772e-65
3.35171e-66
3.14682e-67
2.75287e-68
2.2551e-69
1.73757e-70
1.26434e-71
8.72043e-73
5.72083e-74
3.58125e-75
2.14589e-76
1.23443e-77
6.83715e-79
3.6564e-80
1.89322e-81
9.51656e-83
4.65591e-84
2.22243e-85
1.03732e-86
4.74358e-88
2.12878e-89
9.38755e-91
4.07179e-92
1.73818e-93
7.30497e-95
3.02262e-96
1.23125e-97
4.68074e-99
1.76656e-81
-1.04226e-72
1.7924e-68
-3.33766e-64
2.37528e-63
9.04452e-62
1.59384e-60
7.87818e-60
1.31493e-59
3.23685e-55
5.07587e-55
4.05997e-55
2.17178e-55
8.62796e-56
2.69604e-56
6.88436e-57
1.47772e-57
2.72584e-58
4.3983e-59
6.2987e-60
8.10256e-61
9.4575e-62
1.01023e-62
9.94761e-64
9.08687e-65
7.74281e-66
6.18425e-67
4.6502e-68
3.30499e-69
2.22821e-70
1.42986e-71
8.76132e-73
5.1416e-74
2.89837e-75
1.57388e-76
8.25586e-78
4.19477e-79
2.06995e-80
9.94549e-82
4.66394e-83
2.13944e-84
9.61882e-86
4.24558e-87
1.84212e-88
7.86473e-90
3.30599e-91
1.3687e-92
5.58125e-94
2.2414e-95
8.44912e-97
1.95917e-77
-3.88168e-69
6.96532e-65
-1.67561e-60
1.01671e-60
7.22131e-59
1.08258e-57
4.69243e-57
7.08978e-57
1.68138e-52
2.45475e-52
1.84452e-52
9.33235e-53
3.5245e-53
1.05107e-53
2.56962e-54
5.2952e-55
9.39957e-56
1.46264e-56
2.02386e-57
2.51989e-58
2.85136e-59
2.95688e-60
2.83035e-61
2.51629e-62
2.08901e-63
1.62725e-64
1.19443e-65
8.29351e-67
5.46682e-68
3.43233e-69
2.059e-70
1.18368e-71
6.53993e-73
3.48252e-74
1.79222e-75
8.93781e-77
4.33069e-78
2.04395e-79
9.41907e-81
4.2475e-82
1.87801e-83
8.15497e-85
3.48243e-86
1.46386e-87
6.06094e-89
2.47253e-90
9.93864e-92
3.93587e-93
1.4709e-94
2.08082e-73
-1.40786e-65
3.48768e-61
-8.10688e-57
-4.05694e-57
5.33716e-56
6.9024e-55
2.62596e-54
3.59537e-54
8.26589e-50
1.1244e-49
7.94504e-50
3.80609e-50
1.36782e-50
3.89637e-51
9.1271e-52
1.80684e-52
3.0883e-53
4.63683e-54
6.20224e-55
7.47778e-56
8.20606e-57
8.26455e-58
7.6928e-59
6.65839e-60
5.38738e-61
4.09396e-62
2.93418e-63
1.99093e-64
1.28342e-65
7.88568e-67
4.63231e-68
2.60928e-69
1.41332e-70
7.38181e-72
3.7279e-73
1.82518e-74
8.68589e-76
4.02797e-77
1.82456e-78
8.09071e-80
3.51903e-81
1.5038e-82
6.32216e-84
2.61737e-85
1.06773e-86
4.29321e-88
1.70158e-89
6.64667e-91
2.46233e-92
2.12012e-69
-5.20968e-62
2.1341e-57
-3.83961e-53
-2.23166e-53
3.43838e-53
4.10529e-52
1.37281e-51
1.70516e-51
3.82887e-47
4.85607e-47
3.22997e-47
1.4667e-47
5.02108e-48
1.36751e-48
3.07177e-49
5.84593e-50
9.6272e-51
1.39546e-51
1.8053e-52
2.10862e-53
2.24512e-54
2.19685e-55
1.98924e-56
1.67684e-57
1.32273e-58
9.8089e-60
6.86636e-61
4.55415e-62
2.87177e-63
1.7272e-64
9.93797e-66
5.48618e-67
2.91391e-68
1.49315e-69
7.40151e-71
3.55855e-72
1.66374e-73
7.58307e-75
3.37741e-76
1.47318e-77
6.30539e-79
2.65261e-80
1.09828e-81
4.47973e-83
1.80116e-84
7.14066e-86
2.79144e-87
1.07584e-88
3.95061e-90
2.10661e-65
-2.26231e-58
1.44046e-53
-1.7832e-49
-8.76907e-50
1.27078e-50
2.25671e-49
6.6591e-49
7.51233e-49
1.66268e-44
1.96712e-44
1.2329e-44
5.31309e-45
1.73459e-45
4.52133e-46
9.74733e-47
1.78467e-47
2.83359e-48
3.96761e-49
4.9671e-50
5.62331e-51
5.81187e-52
5.52768e-53
4.87111e-54
4.00051e-55
3.07766e-56
2.22792e-57
1.52372e-58
9.88156e-60
6.09706e-61
3.5905e-62
2.02404e-63
1.09535e-64
5.70635e-66
2.86951e-67
1.39656e-68
6.59555e-70
3.0304e-71
1.35797e-72
5.94902e-74
2.55342e-75
1.07589e-76
4.45754e-78
1.81836e-79
7.31021e-81
2.89805e-82
1.13325e-83
4.37113e-85
1.66276e-86
6.05228e-88
2.19944e-61
-1.43104e-54
1.00312e-49
-8.09727e-46
-3.1846e-46
-2.18959e-47
1.12218e-46
2.97217e-46
3.04986e-46
6.72919e-42
7.42884e-42
4.39177e-42
1.7984e-42
5.60616e-43
1.40004e-43
2.89951e-44
5.11156e-45
7.83027e-46
1.0598e-46
1.28467e-47
1.41047e-48
1.41576e-49
1.30945e-50
1.12349e-51
8.99333e-53
6.75028e-54
4.7719e-55
3.18968e-56
2.02324e-57
1.22188e-58
7.04747e-60
3.89345e-61
2.06612e-62
1.05605e-63
5.21294e-65
2.49174e-66
1.15631e-67
5.22292e-69
2.30194e-70
9.92301e-72
4.19285e-73
1.73994e-74
7.10286e-76
2.85605e-77
1.13223e-78
4.42782e-80
1.70858e-81
6.50527e-83
2.44336e-84
8.81614e-86
3.01787e-57
-1.33281e-50
6.99519e-46
-3.57571e-42
-1.11263e-42
-9.93869e-44
4.59485e-44
1.2066e-43
1.1298e-43
2.521e-39
2.59685e-39
1.44951e-39
5.64796e-40
1.68338e-40
4.03251e-41
8.03091e-42
1.36436e-42
2.01806e-43
2.64203e-44
3.10305e-45
3.30599e-46
3.22463e-47
2.90192e-48
2.42535e-49
1.8932e-50
1.38703e-51
9.57906e-53
6.2603e-54
3.88538e-55
2.29748e-56
1.29829e-57
7.03153e-59
3.66013e-60
1.83607e-61
8.89991e-63
4.17954e-64
1.90654e-65
8.46932e-67
3.67291e-68
1.55868e-69
6.48678e-71
2.65257e-72
1.06751e-73
4.23344e-75
1.65586e-76
6.39135e-78
2.43496e-79
9.15581e-81
3.39707e-82
1.21523e-83
6.92177e-53
-1.49219e-46
4.82201e-42
-1.52316e-38
-3.74799e-39
-2.98848e-40
4.4638e-42
4.35293e-41
3.77105e-41
8.67252e-37
8.33108e-37
4.39483e-37
1.6319e-37
4.65744e-38
1.07158e-38
2.05447e-39
3.3668e-40
4.81255e-41
6.09931e-42
6.94589e-43
7.18589e-44
6.81539e-45
5.97128e-46
4.86424e-47
3.70459e-48
2.65054e-49
1.78914e-50
1.14373e-51
6.94834e-53
4.02444e-54
2.22897e-55
1.18391e-56
6.04718e-58
2.97834e-59
1.4182e-60
6.54609e-62
2.93655e-63
1.28355e-64
5.48004e-66
2.29071e-67
9.3953e-69
3.78821e-70
1.50394e-71
5.88617e-73
2.27306e-74
8.6651e-76
3.26131e-77
1.21178e-78
4.44371e-80
1.57637e-81
2.3004e-48
-1.75485e-42
3.25952e-38
-6.18159e-35
-1.20662e-35
-8.12297e-37
-3.30829e-38
1.2683e-38
1.11327e-38
2.71337e-34
2.42761e-34
1.21136e-34
4.29382e-35
1.17542e-35
2.60129e-36
4.80715e-37
7.60723e-38
1.05186e-38
1.29166e-39
1.42744e-40
1.43514e-41
1.32454e-42
1.13063e-43
8.98291e-45
6.67908e-46
4.6695e-47
3.0824e-48
1.92841e-49
1.14731e-50
6.51197e-52
3.53656e-53
1.84298e-54
9.24121e-56
4.47066e-57
2.0922e-58
9.49657e-60
4.19174e-61
1.80384e-62
7.58669e-64
3.12592e-65
1.26446e-66
5.03098e-68
1.97191e-69
7.62289e-71
2.90865e-72
1.09593e-73
4.07793e-75
1.49828e-76
5.43373e-78
1.91209e-79
8.65538e-44
-2.07177e-38
2.14182e-34
-2.34239e-31
-3.65315e-32
-2.05365e-33
-8.84431e-35
6.70126e-37
2.78492e-36
7.63128e-32
6.34306e-32
2.99638e-32
1.01586e-32
2.67261e-33
5.69866e-34
1.01649e-34
1.55522e-35
2.08247e-36
2.48034e-37
2.66262e-38
2.60401e-39
2.34078e-40
1.94834e-41
1.51099e-42
1.09764e-43
7.50373e-45
4.84716e-46
2.96955e-47
1.7312e-48
9.63424e-50
5.13313e-51
2.62587e-52
1.29325e-53
6.14867e-55
2.82964e-56
1.26381e-57
5.49252e-59
2.32874e-60
9.65628e-62
3.92511e-63
1.56736e-64
6.15968e-66
2.38595e-67
9.11918e-69
3.44148e-70
1.28284e-71
4.72328e-73
1.71737e-74
6.16411e-76
2.1526e-77
3.34923e-39
-2.42311e-34
1.3497e-30
-7.99145e-28
-1.01256e-28
-4.74399e-30
-1.85864e-31
-5.22705e-33
4.65232e-34
1.9016e-29
1.46205e-29
6.54261e-30
2.12661e-30
5.38958e-31
1.10938e-31
1.91314e-32
2.83406e-33
3.67981e-34
4.2564e-35
4.44383e-36
4.23246e-37
3.70974e-38
3.01409e-39
2.28392e-40
1.62249e-41
1.08551e-42
6.86719e-44
4.12283e-45
2.35682e-46
1.28684e-47
6.73077e-49
3.38206e-50
1.6371e-51
7.6547e-53
3.46667e-54
1.52474e-55
6.53021e-57
2.73048e-58
1.11741e-59
4.486e-61
1.77045e-62
6.881e-64
2.63736e-65
9.97854e-67
3.72903e-68
1.37674e-69
5.02108e-71
1.80843e-72
6.42948e-74
2.22939e-75
1.3033e-34
-2.79133e-30
7.95286e-27
-2.27282e-24
-2.44684e-25
-9.61254e-27
-3.45745e-28
-1.00612e-29
-1.29729e-31
4.12046e-27
2.90937e-27
1.23403e-27
3.85731e-28
9.44437e-29
1.88103e-29
3.14226e-30
4.51474e-31
5.69365e-32
6.406e-33
6.51467e-34
6.05178e-35
5.17954e-36
4.1134e-37
3.04933e-38
2.12088e-39
1.39018e-40
8.62157e-42
5.07713e-43
2.84841e-44
1.52717e-45
7.84799e-47
3.87666e-48
1.84588e-49
8.49572e-51
3.79003e-52
1.64331e-53
6.94389e-55
2.86706e-56
1.1596e-57
4.60481e-59
1.79899e-60
6.92602e-62
2.63101e-63
9.86986e-65
3.65793e-66
1.33945e-67
4.84504e-69
1.73053e-70
6.10035e-72
2.10173e-73
5.07822e-30
-3.14949e-26
4.13507e-23
-4.31741e-21
-4.62838e-22
-1.58592e-23
-5.64547e-25
-1.48159e-26
-2.90992e-28
7.55878e-25
4.85038e-25
1.9515e-25
5.89127e-26
1.39877e-26
2.70348e-27
4.38531e-28
6.1247e-29
7.51842e-30
8.2458e-31
8.18552e-32
7.43157e-33
6.2229e-34
4.83942e-35
3.51567e-36
2.39776e-37
1.54198e-38
9.38705e-40
5.42875e-41
2.99246e-42
1.57716e-43
7.9716e-45
3.87531e-46
1.81722e-47
8.24306e-49
3.62728e-50
1.55277e-51
6.48434e-53
2.6486e-54
1.06081e-55
4.17554e-57
1.61833e-58
6.18523e-60
2.33372e-61
8.69798e-63
3.20306e-64
1.16532e-65
4.18706e-67
1.48508e-68
5.19673e-70
1.7804e-71
1.97985e-25
-3.45299e-22
1.72527e-19
-2.48969e-17
-9.08107e-19
-1.82883e-20
-7.95586e-22
-1.777e-23
-3.06944e-25
1.11518e-22
6.47314e-23
2.47692e-23
7.27099e-24
1.68276e-24
3.16804e-25
5.00605e-26
6.81744e-27
8.17156e-28
8.76368e-29
8.51835e-30
7.58108e-31
6.22828e-32
4.7554e-33
3.39347e-34
2.27435e-35
1.43779e-36
8.60692e-38
4.8963e-39
2.65592e-40
1.3781e-41
6.86132e-43
3.28788e-44
1.52092e-45
6.81201e-47
2.96283e-48
1.25507e-49
5.19266e-51
2.10397e-52
8.36917e-54
3.27523e-55
1.26318e-56
4.80734e-58
1.80678e-59
6.70844e-61
2.46061e-62
8.91327e-64
3.18711e-65
1.12429e-66
3.91052e-68
1.3335e-69
7.72258e-21
-1.56788e-17
5.06241e-15
-1.45043e-13
-2.19301e-14
-5.27904e-17
-1.03726e-18
-1.51422e-20
-1.94992e-22
1.10752e-20
6.38817e-21
2.3518e-21
6.80047e-22
1.54588e-22
2.85003e-23
4.40838e-24
5.88294e-25
6.92068e-26
7.29555e-27
6.97876e-28
6.11742e-29
4.95266e-30
3.72734e-31
2.62202e-32
1.73234e-33
1.07958e-34
6.37118e-36
3.57371e-37
1.91192e-38
9.7888e-40
4.81198e-41
2.27853e-42
1.04258e-43
4.62453e-45
1.99474e-46
8.39251e-48
3.4541e-49
1.39434e-50
5.53343e-52
2.16287e-53
8.33833e-55
3.1734e-56
1.19272e-57
4.42715e-59
1.62234e-60
5.86646e-62
2.09203e-63
7.35293e-65
2.54576e-66
8.64954e-68
3.00413e-16
-9.78262e-14
2.41388e-11
-4.49507e-09
-5.66167e-11
-7.39625e-14
-6.72477e-16
4.69058e-18
4.89403e-18
1.63628e-18
4.08075e-19
1.46463e-19
4.29951e-20
9.7185e-21
1.77007e-21
2.70447e-22
3.57168e-23
4.16639e-24
4.36109e-25
4.14481e-26
3.60964e-27
2.90192e-28
2.16708e-29
1.51144e-30
9.89331e-32
6.10478e-33
3.56602e-34
1.97968e-35
1.04846e-36
5.31684e-38
2.59099e-39
1.21769e-40
5.53847e-42
2.44638e-43
1.05289e-44
4.42922e-46
1.82636e-47
7.39969e-49
2.95154e-50
1.16061e-51
4.5028e-53
1.72412e-54
6.51471e-56
2.42823e-57
8.9229e-59
3.2305e-60
1.15165e-61
4.04042e-63
1.39449e-64
4.72544e-66
-1.53003e-06
1.48554e-05
-8.42232e-05
-1.21377e-05
0.000787346
0.00141709
0.00201825
0.00166535
0.000331832
1.13944e-06
1.19909e-17
4.37268e-18
1.41246e-18
3.2437e-19
5.97068e-20
9.26113e-21
1.24644e-21
1.48352e-22
1.58242e-23
1.52817e-24
1.34734e-25
1.09243e-26
8.19885e-28
5.72976e-29
3.7492e-30
2.30886e-31
1.3447e-32
7.44106e-34
3.92979e-35
1.98935e-36
9.69379e-38
4.56564e-39
2.08665e-40
9.28857e-42
4.04074e-43
1.72284e-44
7.21631e-46
2.9744e-47
1.20767e-48
4.83226e-50
1.9054e-51
7.40099e-53
2.83015e-54
1.0648e-55
3.9391e-57
1.4321e-58
5.11477e-60
1.79408e-61
6.1797e-63
2.09012e-64
-0.000452067
0.00312656
-0.0165741
0.024603
0.158036
0.243889
0.287685
0.248953
0.115576
0.0206372
1.90227e-05
1.04917e-15
2.16891e-18
1.03747e-18
3.2388e-19
7.27639e-20
1.27423e-20
1.83052e-21
2.23407e-22
2.37593e-23
2.24455e-24
1.91231e-25
1.48752e-26
1.06737e-27
7.12811e-29
4.4652e-30
2.64233e-31
1.48676e-32
8.00235e-34
4.14331e-35
2.07418e-36
1.00851e-37
4.78085e-39
2.21633e-40
1.00693e-41
4.48911e-43
1.96504e-44
8.44566e-46
3.5628e-47
1.47438e-48
5.98182e-50
2.37818e-51
9.26137e-53
3.532e-54
1.319e-55
4.82351e-57
1.72764e-58
6.06206e-60
2.08454e-61
7.03722e-63
0.00423039
-0.013637
0.00759655
0.154431
0.413556
0.653875
0.768886
0.784542
0.582114
0.232683
0.0315987
1.09846e-05
2.81624e-16
6.31837e-20
2.16398e-20
6.59336e-21
1.66641e-21
3.48622e-22
6.13982e-23
9.29279e-24
1.23176e-24
1.45286e-25
1.5451e-26
1.4978e-27
1.33551e-28
1.10367e-29
8.50797e-31
6.15197e-32
4.19255e-33
2.70413e-34
1.65675e-35
9.67327e-37
5.398e-38
2.88644e-39
1.48244e-40
7.32813e-42
3.49342e-43
1.60884e-44
7.16938e-46
3.09601e-47
1.2974e-48
5.28258e-50
2.09235e-51
8.07084e-53
3.03491e-54
1.11361e-55
3.99096e-57
1.39813e-58
4.79168e-60
1.61231e-61
0.00938856
-0.0296251
0.0213177
0.290859
0.634915
0.898054
0.980006
1.05008
0.967486
0.558944
0.159837
0.00854784
2.83053e-14
1.93205e-18
6.24029e-20
3.26641e-20
1.09503e-20
2.79548e-21
5.61652e-22
9.29591e-23
1.31309e-23
1.62361e-24
1.79019e-25
1.78506e-26
1.62755e-27
1.36902e-28
1.07022e-29
7.82355e-31
5.37633e-32
3.48893e-33
2.14657e-34
1.25649e-35
7.01905e-37
3.75237e-38
1.92451e-39
9.49077e-41
4.50956e-42
2.06837e-43
9.17336e-45
3.94016e-46
1.64141e-47
6.64074e-49
2.6125e-50
1.00055e-51
3.73455e-53
1.35984e-54
4.83508e-56
1.68024e-57
5.71159e-59
1.90842e-60
0.00915734
-0.0247807
-0.00510318
0.305745
0.74596
0.97484
0.991742
1.02528
1.00528
0.695183
0.255188
0.0282026
1.19031e-13
8.9307e-18
4.51187e-21
-7.40733e-20
-1.05915e-19
-1.43826e-20
-1.43217e-21
-1.2418e-22
-9.83973e-24
-7.1981e-25
-4.84887e-26
-2.98724e-27
-1.66342e-28
-8.16549e-30
-3.30631e-31
-8.43584e-33
2.07545e-34
5.24654e-35
5.16043e-36
3.98502e-37
2.71139e-38
1.69483e-39
9.9304e-41
5.51634e-42
2.92613e-43
1.48946e-44
7.30178e-46
3.45708e-47
1.5844e-48
7.04247e-50
3.04101e-51
1.27756e-52
5.22872e-54
2.0873e-55
8.13641e-57
3.10021e-58
1.15579e-59
4.24485e-61
0.00335449
-0.0039907
-0.0378698
0.165894
0.625169
0.938405
0.989485
1.02534
1.01002
0.710733
0.271211
0.033563
1.49673e-12
1.06978e-15
1.28336e-18
-2.27884e-16
-1.89599e-17
-1.45335e-18
-1.09973e-19
-8.34608e-21
-6.26359e-22
-4.51704e-23
-3.06403e-24
-1.937e-25
-1.1402e-26
-6.26963e-28
-3.235e-29
-1.57288e-30
-7.22577e-32
-3.13668e-33
-1.28096e-34
-4.85921e-36
-1.65992e-37
-4.68648e-39
-7.32342e-41
3.1602e-42
4.30466e-43
3.16084e-44
1.91322e-45
1.04456e-46
5.32459e-48
2.57723e-49
1.19587e-50
5.35162e-52
2.3191e-53
9.76038e-55
3.99852e-56
1.59732e-57
6.23148e-59
2.39515e-60
-0.00139806
0.00702911
-0.0236161
-0.0149707
0.266034
0.686257
0.96047
0.99351
0.895146
0.624361
0.253615
0.0377951
1.2424e-10
9.17931e-14
-3.94065e-13
-4.86512e-14
-2.37619e-17
-3.17011e-18
-7.78415e-19
-1.14016e-19
-1.23406e-20
-1.08468e-21
-8.15755e-23
-5.42648e-24
-3.26726e-25
-1.8113e-26
-9.36999e-28
-4.57193e-29
-2.12272e-30
-9.44524e-32
-4.05004e-33
-1.67994e-34
-6.75384e-36
-2.63093e-37
-9.90096e-39
-3.5757e-40
-1.22376e-41
-3.8733e-43
-1.07284e-44
-2.17616e-46
2.72374e-49
3.75585e-49
2.91924e-50
1.69251e-51
8.61147e-53
4.04923e-54
1.80101e-55
7.67253e-57
3.15447e-58
1.26956e-59
0.000178216
-0.00131202
0.00800925
-0.0269256
-0.00467274
0.237508
0.567299
0.705799
0.619029
0.383199
0.139894
0.0176718
-3.62175e-08
-5.73172e-09
-3.67534e-11
2.54731e-16
1.87188e-17
9.81837e-19
7.62249e-21
-9.0635e-21
-1.90244e-21
-2.70548e-22
-3.11542e-23
-3.07262e-24
-2.67218e-25
-2.08846e-26
-1.48713e-27
-9.74911e-29
-5.93199e-30
-3.37155e-31
-1.7989e-32
-9.04373e-34
-4.29465e-35
-1.92862e-36
-8.18597e-38
-3.2743e-39
-1.22569e-40
-4.2317e-42
-1.30463e-43
-3.2918e-45
-4.50626e-47
1.80236e-48
2.12427e-49
1.36206e-50
7.19588e-52
3.42809e-53
1.52566e-54
6.4567e-56
2.62529e-57
1.04316e-58
-9.99922e-06
9.39937e-05
-0.000780615
0.0046146
-0.0154085
0.00282731
0.106792
0.21944
0.225031
0.118321
0.0253339
0.000206663
-5.29286e-06
-5.24987e-07
2.24693e-13
3.23763e-14
3.93911e-17
5.60703e-18
1.31542e-18
1.89975e-19
2.08257e-20
1.90197e-21
1.52862e-22
1.1234e-23
7.77529e-25
5.18433e-26
3.38248e-27
2.17682e-28
1.38358e-29
8.65776e-31
5.30756e-32
3.17281e-33
1.84304e-34
1.03807e-35
5.66352e-37
2.99249e-38
1.53191e-39
7.6033e-41
3.66212e-42
1.71342e-43
7.79538e-45
3.45222e-46
1.48959e-47
6.26828e-49
2.57463e-50
1.03302e-51
4.05182e-53
1.5546e-54
5.83796e-56