/*--------------------------------*- C++ -*----------------------------------*\
| =========                 |                                                 |
| \\      /  F ield         | OpenFOAM: The Open Source CFD Toolbox           |
|  \\    /   O peration     | Version:  v2006                                 |
|   \\  /    A nd           | Website:  www.openfoam.com                      |
|    \\/     M anipulation  |                                                 |
\*---------------------------------------------------------------------------*/
FoamFile
{
    version     2.0;
    format      ascii;
    class       volScalarField;
    location    "6.25";
    object      r;
}
// * * * * * * * * * * * * * * * * * * * * * * * * * * * * * * * * * * * * * //

dimensions      [1 2 0 0 0 0 0];


internalField   nonuniform List<scalar> 
350
(
9.43112e-23
1.81132e-22
4.32397e-22
1.07063e-21
2.65425e-21
6.55068e-21
1.60792e-20
3.92455e-20
9.52417e-20
2.298e-19
5.51225e-19
1.31443e-18
3.11566e-18
7.34069e-18
1.71897e-17
4.00051e-17
9.25226e-17
2.12636e-16
4.85566e-16
1.10167e-15
2.48324e-15
5.56047e-15
1.23679e-14
2.7324e-14
5.99537e-14
1.3064e-13
2.82678e-13
6.0733e-13
1.2955e-12
2.74341e-12
5.76697e-12
1.20328e-11
2.4918e-11
5.12083e-11
1.04426e-10
2.1129e-10
4.24134e-10
8.44583e-10
1.66821e-09
3.268e-09
6.34881e-09
1.22303e-08
2.33596e-08
4.42316e-08
8.30214e-08
1.54451e-07
2.84762e-07
5.20255e-07
9.41767e-07
1.68893e-06
3.00036e-06
5.27925e-06
9.19941e-06
1.58739e-05
2.712e-05
4.587e-05
7.67974e-05
0.00012726
0.000208695
0.000338655
0.000543721
0.000863609
0.00135685
0.00210848
0.00324029
0.00492413
0.0073988
0.010991
0.0161403
0.0234288
0.0336137
0.0476625
0.0667883
0.092483
0.126543
0.171085
0.228543
0.301648
0.393373
0.506858
0.645291
0.811766
1.00911
1.23968
1.50519
1.80649
2.14342
2.51466
2.9177
3.3488
3.80308
4.27469
4.75702
5.24298
5.72531
6.19692
6.6512
7.08229
7.48533
7.85657
8.19349
8.49478
8.76027
8.99082
9.18811
9.3545
9.4928
9.60608
9.69749
9.7701
9.82681
9.87022
9.90259
9.92581
9.94135
9.95025
9.95314
9.95025
9.94135
9.92581
9.90259
9.87022
9.82681
9.7701
9.69749
9.60608
9.4928
9.3545
9.18811
8.99082
8.76027
8.49478
8.19349
7.85657
7.48533
7.08229
6.6512
6.19692
5.72531
5.24298
4.75702
4.27469
3.80308
3.3488
2.9177
2.51466
2.14342
1.80649
1.50519
1.23968
1.00911
0.811766
0.645291
0.506858
0.393373
0.301648
0.228543
0.171085
0.126543
0.092483
0.0667883
0.0476625
0.0336137
0.0234288
0.0161403
0.010991
0.0073988
0.00492413
0.00324029
0.00210848
0.00135685
0.000863609
0.000543721
0.000338655
0.000208695
0.00012726
7.67974e-05
4.587e-05
2.712e-05
1.58739e-05
9.19941e-06
5.27925e-06
3.00036e-06
1.68893e-06
9.41767e-07
5.20255e-07
2.84762e-07
1.54451e-07
8.30214e-08
4.42316e-08
2.33596e-08
1.22303e-08
6.34881e-09
3.268e-09
1.66821e-09
8.44583e-10
4.24134e-10
2.1129e-10
1.04426e-10
5.12083e-11
2.4918e-11
1.20328e-11
5.76697e-12
2.74341e-12
1.2955e-12
6.0733e-13
2.82678e-13
1.3064e-13
5.99537e-14
2.7324e-14
1.23679e-14
5.56047e-15
2.48324e-15
1.10167e-15
4.85566e-16
2.12636e-16
9.25226e-17
4.00051e-17
1.71897e-17
7.34069e-18
3.11566e-18
1.31443e-18
5.51225e-19
2.298e-19
9.52417e-20
3.92454e-20
1.60791e-20
6.55044e-21
2.65363e-21
1.06905e-21
4.28318e-22
1.70675e-22
6.76442e-23
2.6667e-23
1.04573e-23
4.07939e-24
1.58313e-24
6.11237e-25
2.34797e-25
8.97404e-26
3.41284e-26
1.2915e-26
4.86347e-27
1.82259e-27
6.79739e-28
2.52304e-28
9.32079e-29
3.42726e-29
1.25436e-29
4.56983e-30
1.65728e-30
5.98306e-31
2.15032e-31
7.69394e-32
2.7408e-32
9.72087e-33
3.43279e-33
1.20703e-33
4.22603e-34
1.47335e-34
5.1151e-35
1.76843e-35
6.08871e-36
2.08774e-36
7.12948e-37
2.42482e-37
8.21407e-38
2.77143e-38
9.3139e-39
3.11783e-39
1.03963e-39
3.4532e-40
1.1426e-40
3.76626e-41
1.23674e-41
4.04586e-42
1.31862e-42
4.28167e-43
1.38518e-43
4.46484e-44
1.43392e-44
4.58853e-45
1.46306e-45
4.64834e-46
1.47162e-46
4.64259e-47
1.4595e-47
4.57232e-48
1.42747e-48
4.44124e-49
1.37707e-49
4.25535e-50
1.31053e-50
4.02255e-51
1.23057e-51
3.75207e-52
1.14026e-52
3.45392e-53
1.04281e-53
3.13827e-54
9.41401e-55
2.81493e-55
8.39026e-56
2.49291e-56
7.3836e-57
2.18005e-57
6.4167e-58
1.88281e-58
5.50762e-59
1.60615e-59
4.66961e-60
1.35349e-60
3.91126e-61
1.12686e-61
3.23687e-62
9.27006e-63
2.64701e-63
7.5361e-64
2.13923e-64
6.05501e-65
1.70874e-65
4.80885e-66
1.34911e-66
3.77558e-67
1.05294e-67
2.93093e-68
8.12413e-69
2.24993e-69
6.19719e-70
1.7081e-70
4.67438e-71
1.28241e-71
3.48752e-72
9.51829e-73
2.57585e-73
6.97744e-74
1.8863e-74
5.0421e-75
1.37316e-75
3.58041e-76
9.97204e-77
2.48782e-77
7.24826e-78
1.68498e-78
5.27346e-79
1.11369e-79
3.80926e-80
7.31782e-81
2.70698e-81
6.73713e-82
)
;

boundaryField
{
    right
    {
        type            zeroGradient;
    }
    left
    {
        type            inletOutlet;
        inletValue      uniform 0;
        value           uniform 9.43112e-23;
    }
    top
    {
        type            zeroGradient;
    }
    bottom
    {
        type            zeroGradient;
    }
    empty
    {
        type            empty;
    }
}


// ************************************************************************* //
