/*--------------------------------*- C++ -*----------------------------------*\
| =========                 |                                                 |
| \\      /  F ield         | OpenFOAM: The Open Source CFD Toolbox           |
|  \\    /   O peration     | Version:  v2006                                 |
|   \\  /    A nd           | Website:  www.openfoam.com                      |
|    \\/     M anipulation  |                                                 |
\*---------------------------------------------------------------------------*/
FoamFile
{
    version     2.0;
    format      ascii;
    class       volScalarField;
    location    "7";
    object      r;
}
// * * * * * * * * * * * * * * * * * * * * * * * * * * * * * * * * * * * * * //

dimensions      [1 2 0 0 0 0 0];


internalField   nonuniform List<scalar> 
350
(
-1.6808e-179
-3.77358e-176
-8.36212e-173
-1.82985e-169
-3.95265e-166
-8.42484e-163
-1.77114e-159
-3.67088e-156
-7.49742e-153
-1.50822e-149
-2.9868e-146
-5.81963e-143
-1.11501e-139
-2.09938e-136
-3.8819e-133
-7.0443e-130
-1.25357e-126
-2.18588e-123
-3.7317e-120
-6.23147e-117
-1.01684e-113
-1.6197e-110
-2.51559e-107
-3.80482e-104
-5.59674e-101
-7.99481e-98
-1.10729e-94
-1.48437e-91
-1.92225e-88
-2.39964e-85
-2.8809e-82
-3.31756e-79
-3.65372e-76
-3.83563e-73
-3.82367e-70
-3.60403e-67
-3.19584e-64
-2.6505e-61
-2.0418e-58
-1.44886e-55
-9.37456e-53
-5.46091e-50
-2.81749e-47
-1.25962e-44
-4.73161e-42
-1.42474e-39
-3.16897e-37
-4.33472e-35
-1.42898e-33
4.01713e-31
4.99472e-30
2.96756e-29
8.0555e-29
-1.53047e-28
-3.21217e-27
-2.24735e-26
-1.12169e-25
-4.6219e-25
-1.60309e-24
-4.41112e-24
-8.08218e-24
-1.30477e-24
6.00489e-23
2.9011e-22
9.0872e-22
2.23532e-21
4.59341e-21
7.95293e-21
1.14059e-20
1.30489e-20
9.79154e-21
8.25677e-21
3.74519e-20
1.29801e-19
2.48851e-19
2.62503e-19
-6.77139e-21
-7.14015e-19
-1.49002e-18
-1.36944e-18
8.25351e-19
6.80035e-18
9.7205e-18
2.60084e-17
5.74627e-17
1.34922e-16
7.76743e-17
1.43252e-16
1.16081e-16
5.71351e-16
3.29883e-16
6.59778e-16
-1.4816e-15
3.3237e-15
-6.71886e-16
2.518e-15
-1.02078e-14
1.45268e-14
-2.96002e-14
-1.73041e-14
-4.7395e-14
-1.86945e-13
1.29303e-13
-3.09482e-13
6.17497e-13
-8.01904e-13
5.20557e-13
1.17627e-12
-1.25734e-12
2.47479e-12
2.73807e-12
-3.51688e-12
9.41767e-12
-1.58592e-11
-4.92413e-12
4.13029e-11
-3.15052e-11
4.09182e-11
-2.89542e-11
2.2991e-11
2.56635e-10
-1.7929e-10
6.02363e-10
-7.08739e-10
-5.54164e-10
-9.31371e-10
-1.75764e-09
-4.15924e-09
-5.64875e-09
-1.40094e-08
-1.02824e-08
-2.67037e-08
-2.15406e-08
-6.22375e-08
-8.183e-08
-1.29454e-07
-1.40555e-07
-7.75431e-08
-1.29858e-07
-1.61552e-07
1.31325e-07
-2.76554e-07
3.96146e-07
-9.17672e-07
-3.18609e-06
-4.63464e-06
-1.07764e-05
-1.91581e-06
-9.13351e-07
-2.38785e-06
-3.44637e-05
-0.000112565
-4.1062e-05
0.000333086
0.00146198
0.00416428
0.00979546
0.0204308
0.0390348
0.0695802
0.117079
0.187486
0.287461
0.423967
0.603746
0.832705
1.11528
1.45386
1.84831
2.29578
2.79062
3.32467
3.88767
4.46794
5.05312
5.63092
6.18989
6.71999
7.2131
7.66323
8.06664
8.42175
8.7289
8.99002
9.20829
9.38774
9.5329
9.64843
9.73895
9.80878
9.86181
9.90148
9.93071
9.95192
9.96709
9.97779
9.98516
9.9903
9.99316
9.99666
9.99735
9.99709
9.99498
9.98976
9.97944
9.96109
9.93079
9.88353
9.81336
9.71362
9.57732
9.39771
9.16884
8.88628
8.54762
8.15297
7.70521
7.20999
6.67552
6.11207
5.53137
4.94581
4.36769
3.80851
3.27829
2.78517
2.33512
1.93186
1.57695
1.27004
1.00916
0.791121
0.611876
0.466901
0.351505
0.261089
0.191338
0.138348
0.0986971
0.0694691
0.048242
0.0330515
0.022339
0.0148939
0.00979444
0.00635208
0.00406197
0.00256059
0.00159072
0.00097349
0.0005866
0.000347822
0.000202781
0.000116119
6.52193e-05
3.5861e-05
1.92603e-05
1.00641e-05
5.10379e-06
2.4603e-06
1.13888e-06
4.24988e-07
1.59e-07
8.48273e-10
3.42567e-10
2.75451e-11
2.03199e-11
1.40321e-11
9.55654e-12
5.88633e-12
3.28052e-12
1.64592e-12
6.77585e-13
2.31911e-13
-6.59337e-14
-6.7459e-14
-6.68577e-14
-6.3398e-14
-5.74448e-14
-5.01529e-14
-4.2627e-14
-3.56666e-14
-2.97309e-14
-2.49917e-14
-2.13904e-14
-1.87402e-14
-1.68121e-14
-1.53951e-14
-1.43154e-14
-1.34341e-14
-1.26365e-14
-1.18227e-14
-1.09019e-14
-9.79415e-15
-8.43935e-15
-6.81097e-15
-4.9274e-15
-2.85472e-15
-6.97362e-16
1.42167e-15
3.3853e-15
5.1035e-15
6.52455e-15
7.6348e-15
8.4489e-15
8.99857e-15
9.3214e-15
9.45549e-15
9.43173e-15
9.26427e-15
8.96626e-15
8.55661e-15
8.0471e-15
7.45302e-15
6.77908e-15
6.03245e-15
5.21558e-15
4.33464e-15
3.39847e-15
2.4222e-15
1.42606e-15
4.35223e-16
-5.23494e-16
-1.42417e-15
-2.24484e-15
-2.96931e-15
-3.58795e-15
-4.09734e-15
-4.49928e-15
-4.7994e-15
-5.00589e-15
-5.12821e-15
-5.1764e-15
-5.15949e-15
-5.08401e-15
-4.95662e-15
-4.78536e-15
-4.5768e-15
-4.33887e-15
-4.07692e-15
-3.79739e-15
-3.50453e-15
-3.2035e-15
-2.89783e-15
-2.59218e-15
-2.29e-15
-1.99549e-15
-1.71223e-15
-1.44462e-15
-1.18394e-15
)
;

boundaryField
{
    right
    {
        type            zeroGradient;
    }
    left
    {
        type            inletOutlet;
        inletValue      uniform 0;
        value           uniform 0;
    }
    top
    {
        type            zeroGradient;
    }
    bottom
    {
        type            zeroGradient;
    }
    empty
    {
        type            empty;
    }
}


// ************************************************************************* //
