/*--------------------------------*- C++ -*----------------------------------*\
| =========                 |                                                 |
| \\      /  F ield         | OpenFOAM: The Open Source CFD Toolbox           |
|  \\    /   O peration     | Version:  v2006                                 |
|   \\  /    A nd           | Website:  www.openfoam.com                      |
|    \\/     M anipulation  |                                                 |
\*---------------------------------------------------------------------------*/
FoamFile
{
    version     2.0;
    format      ascii;
    class       volVectorField;
    location    "0";
    object      U_new;
}
// * * * * * * * * * * * * * * * * * * * * * * * * * * * * * * * * * * * * * //

dimensions      [0 1 -1 0 0 0 0];


internalField   nonuniform List<vector> 
2500
(
(0.000184 -0.004232 0)
(0.000184 -0.012696 0)
(0.000184 -0.02116 0)
(0.000184 -0.029624 0)
(0.000184 -0.038088 0)
(0.000184 -0.046552 0)
(0.000184 -0.055016 0)
(0.000184 -0.06348 0)
(0.000184 -0.071944 0)
(0.000184 -0.080408 0)
(0.000184 -0.088872 0)
(0.000184 -0.097336 0)
(0.000184 -0.1058 0)
(0.000184 -0.114264 0)
(0.000184 -0.122728 0)
(0.000184 -0.131192 0)
(0.000184 -0.139656 0)
(0.000184 -0.14812 0)
(0.000184 -0.156584 0)
(0.000184 -0.165048 0)
(0.000184 -0.173512 0)
(0.000184 -0.181976 0)
(0.000184 -0.19044 0)
(0.000184 -0.198904 0)
(0.000184 -0.207368 0)
(0.000184 -0.215832 0)
(0.000184 -0.224296 0)
(0.000184 -0.23276 0)
(0.000184 -0.241224 0)
(0.000184 -0.249688 0)
(0.000184 -0.258152 0)
(0.000184 -0.266616 0)
(0.000184 -0.27508 0)
(0.000184 -0.283544 0)
(0.000184 -0.292008 0)
(0.000184 -0.300472 0)
(0.000184 -0.308936 0)
(0.000184 -0.3174 0)
(0.000184 -0.325864 0)
(0.000184 -0.334328 0)
(0.000184 -0.342792 0)
(0.000184 -0.351256 0)
(0.000184 -0.35972 0)
(0.000184 -0.368184 0)
(0.000184 -0.376648 0)
(0.000184 -0.385112 0)
(0.000184 -0.393576 0)
(0.000184 -0.40204 0)
(0.000184 -0.410504 0)
(0.000184 -0.418968 0)
(0.001656 -0.004232 0)
(0.001656 -0.012696 0)
(0.001656 -0.02116 0)
(0.001656 -0.029624 0)
(0.001656 -0.038088 0)
(0.001656 -0.046552 0)
(0.001656 -0.055016 0)
(0.001656 -0.06348 0)
(0.001656 -0.071944 0)
(0.001656 -0.080408 0)
(0.001656 -0.088872 0)
(0.001656 -0.097336 0)
(0.001656 -0.1058 0)
(0.001656 -0.114264 0)
(0.001656 -0.122728 0)
(0.001656 -0.131192 0)
(0.001656 -0.139656 0)
(0.001656 -0.14812 0)
(0.001656 -0.156584 0)
(0.001656 -0.165048 0)
(0.001656 -0.173512 0)
(0.001656 -0.181976 0)
(0.001656 -0.19044 0)
(0.001656 -0.198904 0)
(0.001656 -0.207368 0)
(0.001656 -0.215832 0)
(0.001656 -0.224296 0)
(0.001656 -0.23276 0)
(0.001656 -0.241224 0)
(0.001656 -0.249688 0)
(0.001656 -0.258152 0)
(0.001656 -0.266616 0)
(0.001656 -0.27508 0)
(0.001656 -0.283544 0)
(0.001656 -0.292008 0)
(0.001656 -0.300472 0)
(0.001656 -0.308936 0)
(0.001656 -0.3174 0)
(0.001656 -0.325864 0)
(0.001656 -0.334328 0)
(0.001656 -0.342792 0)
(0.001656 -0.351256 0)
(0.001656 -0.35972 0)
(0.001656 -0.368184 0)
(0.001656 -0.376648 0)
(0.001656 -0.385112 0)
(0.001656 -0.393576 0)
(0.001656 -0.40204 0)
(0.001656 -0.410504 0)
(0.001656 -0.418968 0)
(0.0046 -0.004232 0)
(0.0046 -0.012696 0)
(0.0046 -0.02116 0)
(0.0046 -0.029624 0)
(0.0046 -0.038088 0)
(0.0046 -0.046552 0)
(0.0046 -0.055016 0)
(0.0046 -0.06348 0)
(0.0046 -0.071944 0)
(0.0046 -0.080408 0)
(0.0046 -0.088872 0)
(0.0046 -0.097336 0)
(0.0046 -0.1058 0)
(0.0046 -0.114264 0)
(0.0046 -0.122728 0)
(0.0046 -0.131192 0)
(0.0046 -0.139656 0)
(0.0046 -0.14812 0)
(0.0046 -0.156584 0)
(0.0046 -0.165048 0)
(0.0046 -0.173512 0)
(0.0046 -0.181976 0)
(0.0046 -0.19044 0)
(0.0046 -0.198904 0)
(0.0046 -0.207368 0)
(0.0046 -0.215832 0)
(0.0046 -0.224296 0)
(0.0046 -0.23276 0)
(0.0046 -0.241224 0)
(0.0046 -0.249688 0)
(0.0046 -0.258152 0)
(0.0046 -0.266616 0)
(0.0046 -0.27508 0)
(0.0046 -0.283544 0)
(0.0046 -0.292008 0)
(0.0046 -0.300472 0)
(0.0046 -0.308936 0)
(0.0046 -0.3174 0)
(0.0046 -0.325864 0)
(0.0046 -0.334328 0)
(0.0046 -0.342792 0)
(0.0046 -0.351256 0)
(0.0046 -0.35972 0)
(0.0046 -0.368184 0)
(0.0046 -0.376648 0)
(0.0046 -0.385112 0)
(0.0046 -0.393576 0)
(0.0046 -0.40204 0)
(0.0046 -0.410504 0)
(0.0046 -0.418968 0)
(0.009016 -0.004232 0)
(0.009016 -0.012696 0)
(0.009016 -0.02116 0)
(0.009016 -0.029624 0)
(0.009016 -0.038088 0)
(0.009016 -0.046552 0)
(0.009016 -0.055016 0)
(0.009016 -0.06348 0)
(0.009016 -0.071944 0)
(0.009016 -0.080408 0)
(0.009016 -0.088872 0)
(0.009016 -0.097336 0)
(0.009016 -0.1058 0)
(0.009016 -0.114264 0)
(0.009016 -0.122728 0)
(0.009016 -0.131192 0)
(0.009016 -0.139656 0)
(0.009016 -0.14812 0)
(0.009016 -0.156584 0)
(0.009016 -0.165048 0)
(0.009016 -0.173512 0)
(0.009016 -0.181976 0)
(0.009016 -0.19044 0)
(0.009016 -0.198904 0)
(0.009016 -0.207368 0)
(0.009016 -0.215832 0)
(0.009016 -0.224296 0)
(0.009016 -0.23276 0)
(0.009016 -0.241224 0)
(0.009016 -0.249688 0)
(0.009016 -0.258152 0)
(0.009016 -0.266616 0)
(0.009016 -0.27508 0)
(0.009016 -0.283544 0)
(0.009016 -0.292008 0)
(0.009016 -0.300472 0)
(0.009016 -0.308936 0)
(0.009016 -0.3174 0)
(0.009016 -0.325864 0)
(0.009016 -0.334328 0)
(0.009016 -0.342792 0)
(0.009016 -0.351256 0)
(0.009016 -0.35972 0)
(0.009016 -0.368184 0)
(0.009016 -0.376648 0)
(0.009016 -0.385112 0)
(0.009016 -0.393576 0)
(0.009016 -0.40204 0)
(0.009016 -0.410504 0)
(0.009016 -0.418968 0)
(0.014904 -0.004232 0)
(0.014904 -0.012696 0)
(0.014904 -0.02116 0)
(0.014904 -0.029624 0)
(0.014904 -0.038088 0)
(0.014904 -0.046552 0)
(0.014904 -0.055016 0)
(0.014904 -0.06348 0)
(0.014904 -0.071944 0)
(0.014904 -0.080408 0)
(0.014904 -0.088872 0)
(0.014904 -0.097336 0)
(0.014904 -0.1058 0)
(0.014904 -0.114264 0)
(0.014904 -0.122728 0)
(0.014904 -0.131192 0)
(0.014904 -0.139656 0)
(0.014904 -0.14812 0)
(0.014904 -0.156584 0)
(0.014904 -0.165048 0)
(0.014904 -0.173512 0)
(0.014904 -0.181976 0)
(0.014904 -0.19044 0)
(0.014904 -0.198904 0)
(0.014904 -0.207368 0)
(0.014904 -0.215832 0)
(0.014904 -0.224296 0)
(0.014904 -0.23276 0)
(0.014904 -0.241224 0)
(0.014904 -0.249688 0)
(0.014904 -0.258152 0)
(0.014904 -0.266616 0)
(0.014904 -0.27508 0)
(0.014904 -0.283544 0)
(0.014904 -0.292008 0)
(0.014904 -0.300472 0)
(0.014904 -0.308936 0)
(0.014904 -0.3174 0)
(0.014904 -0.325864 0)
(0.014904 -0.334328 0)
(0.014904 -0.342792 0)
(0.014904 -0.351256 0)
(0.014904 -0.35972 0)
(0.014904 -0.368184 0)
(0.014904 -0.376648 0)
(0.014904 -0.385112 0)
(0.014904 -0.393576 0)
(0.014904 -0.40204 0)
(0.014904 -0.410504 0)
(0.014904 -0.418968 0)
(0.022264 -0.004232 0)
(0.022264 -0.012696 0)
(0.022264 -0.02116 0)
(0.022264 -0.029624 0)
(0.022264 -0.038088 0)
(0.022264 -0.046552 0)
(0.022264 -0.055016 0)
(0.022264 -0.06348 0)
(0.022264 -0.071944 0)
(0.022264 -0.080408 0)
(0.022264 -0.088872 0)
(0.022264 -0.097336 0)
(0.022264 -0.1058 0)
(0.022264 -0.114264 0)
(0.022264 -0.122728 0)
(0.022264 -0.131192 0)
(0.022264 -0.139656 0)
(0.022264 -0.14812 0)
(0.022264 -0.156584 0)
(0.022264 -0.165048 0)
(0.022264 -0.173512 0)
(0.022264 -0.181976 0)
(0.022264 -0.19044 0)
(0.022264 -0.198904 0)
(0.022264 -0.207368 0)
(0.022264 -0.215832 0)
(0.022264 -0.224296 0)
(0.022264 -0.23276 0)
(0.022264 -0.241224 0)
(0.022264 -0.249688 0)
(0.022264 -0.258152 0)
(0.022264 -0.266616 0)
(0.022264 -0.27508 0)
(0.022264 -0.283544 0)
(0.022264 -0.292008 0)
(0.022264 -0.300472 0)
(0.022264 -0.308936 0)
(0.022264 -0.3174 0)
(0.022264 -0.325864 0)
(0.022264 -0.334328 0)
(0.022264 -0.342792 0)
(0.022264 -0.351256 0)
(0.022264 -0.35972 0)
(0.022264 -0.368184 0)
(0.022264 -0.376648 0)
(0.022264 -0.385112 0)
(0.022264 -0.393576 0)
(0.022264 -0.40204 0)
(0.022264 -0.410504 0)
(0.022264 -0.418968 0)
(0.031096 -0.004232 0)
(0.031096 -0.012696 0)
(0.031096 -0.02116 0)
(0.031096 -0.029624 0)
(0.031096 -0.038088 0)
(0.031096 -0.046552 0)
(0.031096 -0.055016 0)
(0.031096 -0.06348 0)
(0.031096 -0.071944 0)
(0.031096 -0.080408 0)
(0.031096 -0.088872 0)
(0.031096 -0.097336 0)
(0.031096 -0.1058 0)
(0.031096 -0.114264 0)
(0.031096 -0.122728 0)
(0.031096 -0.131192 0)
(0.031096 -0.139656 0)
(0.031096 -0.14812 0)
(0.031096 -0.156584 0)
(0.031096 -0.165048 0)
(0.031096 -0.173512 0)
(0.031096 -0.181976 0)
(0.031096 -0.19044 0)
(0.031096 -0.198904 0)
(0.031096 -0.207368 0)
(0.031096 -0.215832 0)
(0.031096 -0.224296 0)
(0.031096 -0.23276 0)
(0.031096 -0.241224 0)
(0.031096 -0.249688 0)
(0.031096 -0.258152 0)
(0.031096 -0.266616 0)
(0.031096 -0.27508 0)
(0.031096 -0.283544 0)
(0.031096 -0.292008 0)
(0.031096 -0.300472 0)
(0.031096 -0.308936 0)
(0.031096 -0.3174 0)
(0.031096 -0.325864 0)
(0.031096 -0.334328 0)
(0.031096 -0.342792 0)
(0.031096 -0.351256 0)
(0.031096 -0.35972 0)
(0.031096 -0.368184 0)
(0.031096 -0.376648 0)
(0.031096 -0.385112 0)
(0.031096 -0.393576 0)
(0.031096 -0.40204 0)
(0.031096 -0.410504 0)
(0.031096 -0.418968 0)
(0.0414 -0.004232 0)
(0.0414 -0.012696 0)
(0.0414 -0.02116 0)
(0.0414 -0.029624 0)
(0.0414 -0.038088 0)
(0.0414 -0.046552 0)
(0.0414 -0.055016 0)
(0.0414 -0.06348 0)
(0.0414 -0.071944 0)
(0.0414 -0.080408 0)
(0.0414 -0.088872 0)
(0.0414 -0.097336 0)
(0.0414 -0.1058 0)
(0.0414 -0.114264 0)
(0.0414 -0.122728 0)
(0.0414 -0.131192 0)
(0.0414 -0.139656 0)
(0.0414 -0.14812 0)
(0.0414 -0.156584 0)
(0.0414 -0.165048 0)
(0.0414 -0.173512 0)
(0.0414 -0.181976 0)
(0.0414 -0.19044 0)
(0.0414 -0.198904 0)
(0.0414 -0.207368 0)
(0.0414 -0.215832 0)
(0.0414 -0.224296 0)
(0.0414 -0.23276 0)
(0.0414 -0.241224 0)
(0.0414 -0.249688 0)
(0.0414 -0.258152 0)
(0.0414 -0.266616 0)
(0.0414 -0.27508 0)
(0.0414 -0.283544 0)
(0.0414 -0.292008 0)
(0.0414 -0.300472 0)
(0.0414 -0.308936 0)
(0.0414 -0.3174 0)
(0.0414 -0.325864 0)
(0.0414 -0.334328 0)
(0.0414 -0.342792 0)
(0.0414 -0.351256 0)
(0.0414 -0.35972 0)
(0.0414 -0.368184 0)
(0.0414 -0.376648 0)
(0.0414 -0.385112 0)
(0.0414 -0.393576 0)
(0.0414 -0.40204 0)
(0.0414 -0.410504 0)
(0.0414 -0.418968 0)
(0.053176 -0.004232 0)
(0.053176 -0.012696 0)
(0.053176 -0.02116 0)
(0.053176 -0.029624 0)
(0.053176 -0.038088 0)
(0.053176 -0.046552 0)
(0.053176 -0.055016 0)
(0.053176 -0.06348 0)
(0.053176 -0.071944 0)
(0.053176 -0.080408 0)
(0.053176 -0.088872 0)
(0.053176 -0.097336 0)
(0.053176 -0.1058 0)
(0.053176 -0.114264 0)
(0.053176 -0.122728 0)
(0.053176 -0.131192 0)
(0.053176 -0.139656 0)
(0.053176 -0.14812 0)
(0.053176 -0.156584 0)
(0.053176 -0.165048 0)
(0.053176 -0.173512 0)
(0.053176 -0.181976 0)
(0.053176 -0.19044 0)
(0.053176 -0.198904 0)
(0.053176 -0.207368 0)
(0.053176 -0.215832 0)
(0.053176 -0.224296 0)
(0.053176 -0.23276 0)
(0.053176 -0.241224 0)
(0.053176 -0.249688 0)
(0.053176 -0.258152 0)
(0.053176 -0.266616 0)
(0.053176 -0.27508 0)
(0.053176 -0.283544 0)
(0.053176 -0.292008 0)
(0.053176 -0.300472 0)
(0.053176 -0.308936 0)
(0.053176 -0.3174 0)
(0.053176 -0.325864 0)
(0.053176 -0.334328 0)
(0.053176 -0.342792 0)
(0.053176 -0.351256 0)
(0.053176 -0.35972 0)
(0.053176 -0.368184 0)
(0.053176 -0.376648 0)
(0.053176 -0.385112 0)
(0.053176 -0.393576 0)
(0.053176 -0.40204 0)
(0.053176 -0.410504 0)
(0.053176 -0.418968 0)
(0.066424 -0.004232 0)
(0.066424 -0.012696 0)
(0.066424 -0.02116 0)
(0.066424 -0.029624 0)
(0.066424 -0.038088 0)
(0.066424 -0.046552 0)
(0.066424 -0.055016 0)
(0.066424 -0.06348 0)
(0.066424 -0.071944 0)
(0.066424 -0.080408 0)
(0.066424 -0.088872 0)
(0.066424 -0.097336 0)
(0.066424 -0.1058 0)
(0.066424 -0.114264 0)
(0.066424 -0.122728 0)
(0.066424 -0.131192 0)
(0.066424 -0.139656 0)
(0.066424 -0.14812 0)
(0.066424 -0.156584 0)
(0.066424 -0.165048 0)
(0.066424 -0.173512 0)
(0.066424 -0.181976 0)
(0.066424 -0.19044 0)
(0.066424 -0.198904 0)
(0.066424 -0.207368 0)
(0.066424 -0.215832 0)
(0.066424 -0.224296 0)
(0.066424 -0.23276 0)
(0.066424 -0.241224 0)
(0.066424 -0.249688 0)
(0.066424 -0.258152 0)
(0.066424 -0.266616 0)
(0.066424 -0.27508 0)
(0.066424 -0.283544 0)
(0.066424 -0.292008 0)
(0.066424 -0.300472 0)
(0.066424 -0.308936 0)
(0.066424 -0.3174 0)
(0.066424 -0.325864 0)
(0.066424 -0.334328 0)
(0.066424 -0.342792 0)
(0.066424 -0.351256 0)
(0.066424 -0.35972 0)
(0.066424 -0.368184 0)
(0.066424 -0.376648 0)
(0.066424 -0.385112 0)
(0.066424 -0.393576 0)
(0.066424 -0.40204 0)
(0.066424 -0.410504 0)
(0.066424 -0.418968 0)
(0.081144 -0.004232 0)
(0.081144 -0.012696 0)
(0.081144 -0.02116 0)
(0.081144 -0.029624 0)
(0.081144 -0.038088 0)
(0.081144 -0.046552 0)
(0.081144 -0.055016 0)
(0.081144 -0.06348 0)
(0.081144 -0.071944 0)
(0.081144 -0.080408 0)
(0.081144 -0.088872 0)
(0.081144 -0.097336 0)
(0.081144 -0.1058 0)
(0.081144 -0.114264 0)
(0.081144 -0.122728 0)
(0.081144 -0.131192 0)
(0.081144 -0.139656 0)
(0.081144 -0.14812 0)
(0.081144 -0.156584 0)
(0.081144 -0.165048 0)
(0.081144 -0.173512 0)
(0.081144 -0.181976 0)
(0.081144 -0.19044 0)
(0.081144 -0.198904 0)
(0.081144 -0.207368 0)
(0.081144 -0.215832 0)
(0.081144 -0.224296 0)
(0.081144 -0.23276 0)
(0.081144 -0.241224 0)
(0.081144 -0.249688 0)
(0.081144 -0.258152 0)
(0.081144 -0.266616 0)
(0.081144 -0.27508 0)
(0.081144 -0.283544 0)
(0.081144 -0.292008 0)
(0.081144 -0.300472 0)
(0.081144 -0.308936 0)
(0.081144 -0.3174 0)
(0.081144 -0.325864 0)
(0.081144 -0.334328 0)
(0.081144 -0.342792 0)
(0.081144 -0.351256 0)
(0.081144 -0.35972 0)
(0.081144 -0.368184 0)
(0.081144 -0.376648 0)
(0.081144 -0.385112 0)
(0.081144 -0.393576 0)
(0.081144 -0.40204 0)
(0.081144 -0.410504 0)
(0.081144 -0.418968 0)
(0.097336 -0.004232 0)
(0.097336 -0.012696 0)
(0.097336 -0.02116 0)
(0.097336 -0.029624 0)
(0.097336 -0.038088 0)
(0.097336 -0.046552 0)
(0.097336 -0.055016 0)
(0.097336 -0.06348 0)
(0.097336 -0.071944 0)
(0.097336 -0.080408 0)
(0.097336 -0.088872 0)
(0.097336 -0.097336 0)
(0.097336 -0.1058 0)
(0.097336 -0.114264 0)
(0.097336 -0.122728 0)
(0.097336 -0.131192 0)
(0.097336 -0.139656 0)
(0.097336 -0.14812 0)
(0.097336 -0.156584 0)
(0.097336 -0.165048 0)
(0.097336 -0.173512 0)
(0.097336 -0.181976 0)
(0.097336 -0.19044 0)
(0.097336 -0.198904 0)
(0.097336 -0.207368 0)
(0.097336 -0.215832 0)
(0.097336 -0.224296 0)
(0.097336 -0.23276 0)
(0.097336 -0.241224 0)
(0.097336 -0.249688 0)
(0.097336 -0.258152 0)
(0.097336 -0.266616 0)
(0.097336 -0.27508 0)
(0.097336 -0.283544 0)
(0.097336 -0.292008 0)
(0.097336 -0.300472 0)
(0.097336 -0.308936 0)
(0.097336 -0.3174 0)
(0.097336 -0.325864 0)
(0.097336 -0.334328 0)
(0.097336 -0.342792 0)
(0.097336 -0.351256 0)
(0.097336 -0.35972 0)
(0.097336 -0.368184 0)
(0.097336 -0.376648 0)
(0.097336 -0.385112 0)
(0.097336 -0.393576 0)
(0.097336 -0.40204 0)
(0.097336 -0.410504 0)
(0.097336 -0.418968 0)
(0.115 -0.004232 0)
(0.115 -0.012696 0)
(0.115 -0.02116 0)
(0.115 -0.029624 0)
(0.115 -0.038088 0)
(0.115 -0.046552 0)
(0.115 -0.055016 0)
(0.115 -0.06348 0)
(0.115 -0.071944 0)
(0.115 -0.080408 0)
(0.115 -0.088872 0)
(0.115 -0.097336 0)
(0.115 -0.1058 0)
(0.115 -0.114264 0)
(0.115 -0.122728 0)
(0.115 -0.131192 0)
(0.115 -0.139656 0)
(0.115 -0.14812 0)
(0.115 -0.156584 0)
(0.115 -0.165048 0)
(0.115 -0.173512 0)
(0.115 -0.181976 0)
(0.115 -0.19044 0)
(0.115 -0.198904 0)
(0.115 -0.207368 0)
(0.115 -0.215832 0)
(0.115 -0.224296 0)
(0.115 -0.23276 0)
(0.115 -0.241224 0)
(0.115 -0.249688 0)
(0.115 -0.258152 0)
(0.115 -0.266616 0)
(0.115 -0.27508 0)
(0.115 -0.283544 0)
(0.115 -0.292008 0)
(0.115 -0.300472 0)
(0.115 -0.308936 0)
(0.115 -0.3174 0)
(0.115 -0.325864 0)
(0.115 -0.334328 0)
(0.115 -0.342792 0)
(0.115 -0.351256 0)
(0.115 -0.35972 0)
(0.115 -0.368184 0)
(0.115 -0.376648 0)
(0.115 -0.385112 0)
(0.115 -0.393576 0)
(0.115 -0.40204 0)
(0.115 -0.410504 0)
(0.115 -0.418968 0)
(0.134136 -0.004232 0)
(0.134136 -0.012696 0)
(0.134136 -0.02116 0)
(0.134136 -0.029624 0)
(0.134136 -0.038088 0)
(0.134136 -0.046552 0)
(0.134136 -0.055016 0)
(0.134136 -0.06348 0)
(0.134136 -0.071944 0)
(0.134136 -0.080408 0)
(0.134136 -0.088872 0)
(0.134136 -0.097336 0)
(0.134136 -0.1058 0)
(0.134136 -0.114264 0)
(0.134136 -0.122728 0)
(0.134136 -0.131192 0)
(0.134136 -0.139656 0)
(0.134136 -0.14812 0)
(0.134136 -0.156584 0)
(0.134136 -0.165048 0)
(0.134136 -0.173512 0)
(0.134136 -0.181976 0)
(0.134136 -0.19044 0)
(0.134136 -0.198904 0)
(0.134136 -0.207368 0)
(0.134136 -0.215832 0)
(0.134136 -0.224296 0)
(0.134136 -0.23276 0)
(0.134136 -0.241224 0)
(0.134136 -0.249688 0)
(0.134136 -0.258152 0)
(0.134136 -0.266616 0)
(0.134136 -0.27508 0)
(0.134136 -0.283544 0)
(0.134136 -0.292008 0)
(0.134136 -0.300472 0)
(0.134136 -0.308936 0)
(0.134136 -0.3174 0)
(0.134136 -0.325864 0)
(0.134136 -0.334328 0)
(0.134136 -0.342792 0)
(0.134136 -0.351256 0)
(0.134136 -0.35972 0)
(0.134136 -0.368184 0)
(0.134136 -0.376648 0)
(0.134136 -0.385112 0)
(0.134136 -0.393576 0)
(0.134136 -0.40204 0)
(0.134136 -0.410504 0)
(0.134136 -0.418968 0)
(0.154744 -0.004232 0)
(0.154744 -0.012696 0)
(0.154744 -0.02116 0)
(0.154744 -0.029624 0)
(0.154744 -0.038088 0)
(0.154744 -0.046552 0)
(0.154744 -0.055016 0)
(0.154744 -0.06348 0)
(0.154744 -0.071944 0)
(0.154744 -0.080408 0)
(0.154744 -0.088872 0)
(0.154744 -0.097336 0)
(0.154744 -0.1058 0)
(0.154744 -0.114264 0)
(0.154744 -0.122728 0)
(0.154744 -0.131192 0)
(0.154744 -0.139656 0)
(0.154744 -0.14812 0)
(0.154744 -0.156584 0)
(0.154744 -0.165048 0)
(0.154744 -0.173512 0)
(0.154744 -0.181976 0)
(0.154744 -0.19044 0)
(0.154744 -0.198904 0)
(0.154744 -0.207368 0)
(0.154744 -0.215832 0)
(0.154744 -0.224296 0)
(0.154744 -0.23276 0)
(0.154744 -0.241224 0)
(0.154744 -0.249688 0)
(0.154744 -0.258152 0)
(0.154744 -0.266616 0)
(0.154744 -0.27508 0)
(0.154744 -0.283544 0)
(0.154744 -0.292008 0)
(0.154744 -0.300472 0)
(0.154744 -0.308936 0)
(0.154744 -0.3174 0)
(0.154744 -0.325864 0)
(0.154744 -0.334328 0)
(0.154744 -0.342792 0)
(0.154744 -0.351256 0)
(0.154744 -0.35972 0)
(0.154744 -0.368184 0)
(0.154744 -0.376648 0)
(0.154744 -0.385112 0)
(0.154744 -0.393576 0)
(0.154744 -0.40204 0)
(0.154744 -0.410504 0)
(0.154744 -0.418968 0)
(0.176824 -0.004232 0)
(0.176824 -0.012696 0)
(0.176824 -0.02116 0)
(0.176824 -0.029624 0)
(0.176824 -0.038088 0)
(0.176824 -0.046552 0)
(0.176824 -0.055016 0)
(0.176824 -0.06348 0)
(0.176824 -0.071944 0)
(0.176824 -0.080408 0)
(0.176824 -0.088872 0)
(0.176824 -0.097336 0)
(0.176824 -0.1058 0)
(0.176824 -0.114264 0)
(0.176824 -0.122728 0)
(0.176824 -0.131192 0)
(0.176824 -0.139656 0)
(0.176824 -0.14812 0)
(0.176824 -0.156584 0)
(0.176824 -0.165048 0)
(0.176824 -0.173512 0)
(0.176824 -0.181976 0)
(0.176824 -0.19044 0)
(0.176824 -0.198904 0)
(0.176824 -0.207368 0)
(0.176824 -0.215832 0)
(0.176824 -0.224296 0)
(0.176824 -0.23276 0)
(0.176824 -0.241224 0)
(0.176824 -0.249688 0)
(0.176824 -0.258152 0)
(0.176824 -0.266616 0)
(0.176824 -0.27508 0)
(0.176824 -0.283544 0)
(0.176824 -0.292008 0)
(0.176824 -0.300472 0)
(0.176824 -0.308936 0)
(0.176824 -0.3174 0)
(0.176824 -0.325864 0)
(0.176824 -0.334328 0)
(0.176824 -0.342792 0)
(0.176824 -0.351256 0)
(0.176824 -0.35972 0)
(0.176824 -0.368184 0)
(0.176824 -0.376648 0)
(0.176824 -0.385112 0)
(0.176824 -0.393576 0)
(0.176824 -0.40204 0)
(0.176824 -0.410504 0)
(0.176824 -0.418968 0)
(0.200376 -0.004232 0)
(0.200376 -0.012696 0)
(0.200376 -0.02116 0)
(0.200376 -0.029624 0)
(0.200376 -0.038088 0)
(0.200376 -0.046552 0)
(0.200376 -0.055016 0)
(0.200376 -0.06348 0)
(0.200376 -0.071944 0)
(0.200376 -0.080408 0)
(0.200376 -0.088872 0)
(0.200376 -0.097336 0)
(0.200376 -0.1058 0)
(0.200376 -0.114264 0)
(0.200376 -0.122728 0)
(0.200376 -0.131192 0)
(0.200376 -0.139656 0)
(0.200376 -0.14812 0)
(0.200376 -0.156584 0)
(0.200376 -0.165048 0)
(0.200376 -0.173512 0)
(0.200376 -0.181976 0)
(0.200376 -0.19044 0)
(0.200376 -0.198904 0)
(0.200376 -0.207368 0)
(0.200376 -0.215832 0)
(0.200376 -0.224296 0)
(0.200376 -0.23276 0)
(0.200376 -0.241224 0)
(0.200376 -0.249688 0)
(0.200376 -0.258152 0)
(0.200376 -0.266616 0)
(0.200376 -0.27508 0)
(0.200376 -0.283544 0)
(0.200376 -0.292008 0)
(0.200376 -0.300472 0)
(0.200376 -0.308936 0)
(0.200376 -0.3174 0)
(0.200376 -0.325864 0)
(0.200376 -0.334328 0)
(0.200376 -0.342792 0)
(0.200376 -0.351256 0)
(0.200376 -0.35972 0)
(0.200376 -0.368184 0)
(0.200376 -0.376648 0)
(0.200376 -0.385112 0)
(0.200376 -0.393576 0)
(0.200376 -0.40204 0)
(0.200376 -0.410504 0)
(0.200376 -0.418968 0)
(0.2254 -0.004232 0)
(0.2254 -0.012696 0)
(0.2254 -0.02116 0)
(0.2254 -0.029624 0)
(0.2254 -0.038088 0)
(0.2254 -0.046552 0)
(0.2254 -0.055016 0)
(0.2254 -0.06348 0)
(0.2254 -0.071944 0)
(0.2254 -0.080408 0)
(0.2254 -0.088872 0)
(0.2254 -0.097336 0)
(0.2254 -0.1058 0)
(0.2254 -0.114264 0)
(0.2254 -0.122728 0)
(0.2254 -0.131192 0)
(0.2254 -0.139656 0)
(0.2254 -0.14812 0)
(0.2254 -0.156584 0)
(0.2254 -0.165048 0)
(0.2254 -0.173512 0)
(0.2254 -0.181976 0)
(0.2254 -0.19044 0)
(0.2254 -0.198904 0)
(0.2254 -0.207368 0)
(0.2254 -0.215832 0)
(0.2254 -0.224296 0)
(0.2254 -0.23276 0)
(0.2254 -0.241224 0)
(0.2254 -0.249688 0)
(0.2254 -0.258152 0)
(0.2254 -0.266616 0)
(0.2254 -0.27508 0)
(0.2254 -0.283544 0)
(0.2254 -0.292008 0)
(0.2254 -0.300472 0)
(0.2254 -0.308936 0)
(0.2254 -0.3174 0)
(0.2254 -0.325864 0)
(0.2254 -0.334328 0)
(0.2254 -0.342792 0)
(0.2254 -0.351256 0)
(0.2254 -0.35972 0)
(0.2254 -0.368184 0)
(0.2254 -0.376648 0)
(0.2254 -0.385112 0)
(0.2254 -0.393576 0)
(0.2254 -0.40204 0)
(0.2254 -0.410504 0)
(0.2254 -0.418968 0)
(0.251896 -0.004232 0)
(0.251896 -0.012696 0)
(0.251896 -0.02116 0)
(0.251896 -0.029624 0)
(0.251896 -0.038088 0)
(0.251896 -0.046552 0)
(0.251896 -0.055016 0)
(0.251896 -0.06348 0)
(0.251896 -0.071944 0)
(0.251896 -0.080408 0)
(0.251896 -0.088872 0)
(0.251896 -0.097336 0)
(0.251896 -0.1058 0)
(0.251896 -0.114264 0)
(0.251896 -0.122728 0)
(0.251896 -0.131192 0)
(0.251896 -0.139656 0)
(0.251896 -0.14812 0)
(0.251896 -0.156584 0)
(0.251896 -0.165048 0)
(0.251896 -0.173512 0)
(0.251896 -0.181976 0)
(0.251896 -0.19044 0)
(0.251896 -0.198904 0)
(0.251896 -0.207368 0)
(0.251896 -0.215832 0)
(0.251896 -0.224296 0)
(0.251896 -0.23276 0)
(0.251896 -0.241224 0)
(0.251896 -0.249688 0)
(0.251896 -0.258152 0)
(0.251896 -0.266616 0)
(0.251896 -0.27508 0)
(0.251896 -0.283544 0)
(0.251896 -0.292008 0)
(0.251896 -0.300472 0)
(0.251896 -0.308936 0)
(0.251896 -0.3174 0)
(0.251896 -0.325864 0)
(0.251896 -0.334328 0)
(0.251896 -0.342792 0)
(0.251896 -0.351256 0)
(0.251896 -0.35972 0)
(0.251896 -0.368184 0)
(0.251896 -0.376648 0)
(0.251896 -0.385112 0)
(0.251896 -0.393576 0)
(0.251896 -0.40204 0)
(0.251896 -0.410504 0)
(0.251896 -0.418968 0)
(0.279864 -0.004232 0)
(0.279864 -0.012696 0)
(0.279864 -0.02116 0)
(0.279864 -0.029624 0)
(0.279864 -0.038088 0)
(0.279864 -0.046552 0)
(0.279864 -0.055016 0)
(0.279864 -0.06348 0)
(0.279864 -0.071944 0)
(0.279864 -0.080408 0)
(0.279864 -0.088872 0)
(0.279864 -0.097336 0)
(0.279864 -0.1058 0)
(0.279864 -0.114264 0)
(0.279864 -0.122728 0)
(0.279864 -0.131192 0)
(0.279864 -0.139656 0)
(0.279864 -0.14812 0)
(0.279864 -0.156584 0)
(0.279864 -0.165048 0)
(0.279864 -0.173512 0)
(0.279864 -0.181976 0)
(0.279864 -0.19044 0)
(0.279864 -0.198904 0)
(0.279864 -0.207368 0)
(0.279864 -0.215832 0)
(0.279864 -0.224296 0)
(0.279864 -0.23276 0)
(0.279864 -0.241224 0)
(0.279864 -0.249688 0)
(0.279864 -0.258152 0)
(0.279864 -0.266616 0)
(0.279864 -0.27508 0)
(0.279864 -0.283544 0)
(0.279864 -0.292008 0)
(0.279864 -0.300472 0)
(0.279864 -0.308936 0)
(0.279864 -0.3174 0)
(0.279864 -0.325864 0)
(0.279864 -0.334328 0)
(0.279864 -0.342792 0)
(0.279864 -0.351256 0)
(0.279864 -0.35972 0)
(0.279864 -0.368184 0)
(0.279864 -0.376648 0)
(0.279864 -0.385112 0)
(0.279864 -0.393576 0)
(0.279864 -0.40204 0)
(0.279864 -0.410504 0)
(0.279864 -0.418968 0)
(0.309304 -0.004232 0)
(0.309304 -0.012696 0)
(0.309304 -0.02116 0)
(0.309304 -0.029624 0)
(0.309304 -0.038088 0)
(0.309304 -0.046552 0)
(0.309304 -0.055016 0)
(0.309304 -0.06348 0)
(0.309304 -0.071944 0)
(0.309304 -0.080408 0)
(0.309304 -0.088872 0)
(0.309304 -0.097336 0)
(0.309304 -0.1058 0)
(0.309304 -0.114264 0)
(0.309304 -0.122728 0)
(0.309304 -0.131192 0)
(0.309304 -0.139656 0)
(0.309304 -0.14812 0)
(0.309304 -0.156584 0)
(0.309304 -0.165048 0)
(0.309304 -0.173512 0)
(0.309304 -0.181976 0)
(0.309304 -0.19044 0)
(0.309304 -0.198904 0)
(0.309304 -0.207368 0)
(0.309304 -0.215832 0)
(0.309304 -0.224296 0)
(0.309304 -0.23276 0)
(0.309304 -0.241224 0)
(0.309304 -0.249688 0)
(0.309304 -0.258152 0)
(0.309304 -0.266616 0)
(0.309304 -0.27508 0)
(0.309304 -0.283544 0)
(0.309304 -0.292008 0)
(0.309304 -0.300472 0)
(0.309304 -0.308936 0)
(0.309304 -0.3174 0)
(0.309304 -0.325864 0)
(0.309304 -0.334328 0)
(0.309304 -0.342792 0)
(0.309304 -0.351256 0)
(0.309304 -0.35972 0)
(0.309304 -0.368184 0)
(0.309304 -0.376648 0)
(0.309304 -0.385112 0)
(0.309304 -0.393576 0)
(0.309304 -0.40204 0)
(0.309304 -0.410504 0)
(0.309304 -0.418968 0)
(0.340216 -0.004232 0)
(0.340216 -0.012696 0)
(0.340216 -0.02116 0)
(0.340216 -0.029624 0)
(0.340216 -0.038088 0)
(0.340216 -0.046552 0)
(0.340216 -0.055016 0)
(0.340216 -0.06348 0)
(0.340216 -0.071944 0)
(0.340216 -0.080408 0)
(0.340216 -0.088872 0)
(0.340216 -0.097336 0)
(0.340216 -0.1058 0)
(0.340216 -0.114264 0)
(0.340216 -0.122728 0)
(0.340216 -0.131192 0)
(0.340216 -0.139656 0)
(0.340216 -0.14812 0)
(0.340216 -0.156584 0)
(0.340216 -0.165048 0)
(0.340216 -0.173512 0)
(0.340216 -0.181976 0)
(0.340216 -0.19044 0)
(0.340216 -0.198904 0)
(0.340216 -0.207368 0)
(0.340216 -0.215832 0)
(0.340216 -0.224296 0)
(0.340216 -0.23276 0)
(0.340216 -0.241224 0)
(0.340216 -0.249688 0)
(0.340216 -0.258152 0)
(0.340216 -0.266616 0)
(0.340216 -0.27508 0)
(0.340216 -0.283544 0)
(0.340216 -0.292008 0)
(0.340216 -0.300472 0)
(0.340216 -0.308936 0)
(0.340216 -0.3174 0)
(0.340216 -0.325864 0)
(0.340216 -0.334328 0)
(0.340216 -0.342792 0)
(0.340216 -0.351256 0)
(0.340216 -0.35972 0)
(0.340216 -0.368184 0)
(0.340216 -0.376648 0)
(0.340216 -0.385112 0)
(0.340216 -0.393576 0)
(0.340216 -0.40204 0)
(0.340216 -0.410504 0)
(0.340216 -0.418968 0)
(0.3726 -0.004232 0)
(0.3726 -0.012696 0)
(0.3726 -0.02116 0)
(0.3726 -0.029624 0)
(0.3726 -0.038088 0)
(0.3726 -0.046552 0)
(0.3726 -0.055016 0)
(0.3726 -0.06348 0)
(0.3726 -0.071944 0)
(0.3726 -0.080408 0)
(0.3726 -0.088872 0)
(0.3726 -0.097336 0)
(0.3726 -0.1058 0)
(0.3726 -0.114264 0)
(0.3726 -0.122728 0)
(0.3726 -0.131192 0)
(0.3726 -0.139656 0)
(0.3726 -0.14812 0)
(0.3726 -0.156584 0)
(0.3726 -0.165048 0)
(0.3726 -0.173512 0)
(0.3726 -0.181976 0)
(0.3726 -0.19044 0)
(0.3726 -0.198904 0)
(0.3726 -0.207368 0)
(0.3726 -0.215832 0)
(0.3726 -0.224296 0)
(0.3726 -0.23276 0)
(0.3726 -0.241224 0)
(0.3726 -0.249688 0)
(0.3726 -0.258152 0)
(0.3726 -0.266616 0)
(0.3726 -0.27508 0)
(0.3726 -0.283544 0)
(0.3726 -0.292008 0)
(0.3726 -0.300472 0)
(0.3726 -0.308936 0)
(0.3726 -0.3174 0)
(0.3726 -0.325864 0)
(0.3726 -0.334328 0)
(0.3726 -0.342792 0)
(0.3726 -0.351256 0)
(0.3726 -0.35972 0)
(0.3726 -0.368184 0)
(0.3726 -0.376648 0)
(0.3726 -0.385112 0)
(0.3726 -0.393576 0)
(0.3726 -0.40204 0)
(0.3726 -0.410504 0)
(0.3726 -0.418968 0)
(0.406456 -0.004232 0)
(0.406456 -0.012696 0)
(0.406456 -0.02116 0)
(0.406456 -0.029624 0)
(0.406456 -0.038088 0)
(0.406456 -0.046552 0)
(0.406456 -0.055016 0)
(0.406456 -0.06348 0)
(0.406456 -0.071944 0)
(0.406456 -0.080408 0)
(0.406456 -0.088872 0)
(0.406456 -0.097336 0)
(0.406456 -0.1058 0)
(0.406456 -0.114264 0)
(0.406456 -0.122728 0)
(0.406456 -0.131192 0)
(0.406456 -0.139656 0)
(0.406456 -0.14812 0)
(0.406456 -0.156584 0)
(0.406456 -0.165048 0)
(0.406456 -0.173512 0)
(0.406456 -0.181976 0)
(0.406456 -0.19044 0)
(0.406456 -0.198904 0)
(0.406456 -0.207368 0)
(0.406456 -0.215832 0)
(0.406456 -0.224296 0)
(0.406456 -0.23276 0)
(0.406456 -0.241224 0)
(0.406456 -0.249688 0)
(0.406456 -0.258152 0)
(0.406456 -0.266616 0)
(0.406456 -0.27508 0)
(0.406456 -0.283544 0)
(0.406456 -0.292008 0)
(0.406456 -0.300472 0)
(0.406456 -0.308936 0)
(0.406456 -0.3174 0)
(0.406456 -0.325864 0)
(0.406456 -0.334328 0)
(0.406456 -0.342792 0)
(0.406456 -0.351256 0)
(0.406456 -0.35972 0)
(0.406456 -0.368184 0)
(0.406456 -0.376648 0)
(0.406456 -0.385112 0)
(0.406456 -0.393576 0)
(0.406456 -0.40204 0)
(0.406456 -0.410504 0)
(0.406456 -0.418968 0)
(0.441784 -0.004232 0)
(0.441784 -0.012696 0)
(0.441784 -0.02116 0)
(0.441784 -0.029624 0)
(0.441784 -0.038088 0)
(0.441784 -0.046552 0)
(0.441784 -0.055016 0)
(0.441784 -0.06348 0)
(0.441784 -0.071944 0)
(0.441784 -0.080408 0)
(0.441784 -0.088872 0)
(0.441784 -0.097336 0)
(0.441784 -0.1058 0)
(0.441784 -0.114264 0)
(0.441784 -0.122728 0)
(0.441784 -0.131192 0)
(0.441784 -0.139656 0)
(0.441784 -0.14812 0)
(0.441784 -0.156584 0)
(0.441784 -0.165048 0)
(0.441784 -0.173512 0)
(0.441784 -0.181976 0)
(0.441784 -0.19044 0)
(0.441784 -0.198904 0)
(0.441784 -0.207368 0)
(0.441784 -0.215832 0)
(0.441784 -0.224296 0)
(0.441784 -0.23276 0)
(0.441784 -0.241224 0)
(0.441784 -0.249688 0)
(0.441784 -0.258152 0)
(0.441784 -0.266616 0)
(0.441784 -0.27508 0)
(0.441784 -0.283544 0)
(0.441784 -0.292008 0)
(0.441784 -0.300472 0)
(0.441784 -0.308936 0)
(0.441784 -0.3174 0)
(0.441784 -0.325864 0)
(0.441784 -0.334328 0)
(0.441784 -0.342792 0)
(0.441784 -0.351256 0)
(0.441784 -0.35972 0)
(0.441784 -0.368184 0)
(0.441784 -0.376648 0)
(0.441784 -0.385112 0)
(0.441784 -0.393576 0)
(0.441784 -0.40204 0)
(0.441784 -0.410504 0)
(0.441784 -0.418968 0)
(0.478584 -0.004232 0)
(0.478584 -0.012696 0)
(0.478584 -0.02116 0)
(0.478584 -0.029624 0)
(0.478584 -0.038088 0)
(0.478584 -0.046552 0)
(0.478584 -0.055016 0)
(0.478584 -0.06348 0)
(0.478584 -0.071944 0)
(0.478584 -0.080408 0)
(0.478584 -0.088872 0)
(0.478584 -0.097336 0)
(0.478584 -0.1058 0)
(0.478584 -0.114264 0)
(0.478584 -0.122728 0)
(0.478584 -0.131192 0)
(0.478584 -0.139656 0)
(0.478584 -0.14812 0)
(0.478584 -0.156584 0)
(0.478584 -0.165048 0)
(0.478584 -0.173512 0)
(0.478584 -0.181976 0)
(0.478584 -0.19044 0)
(0.478584 -0.198904 0)
(0.478584 -0.207368 0)
(0.478584 -0.215832 0)
(0.478584 -0.224296 0)
(0.478584 -0.23276 0)
(0.478584 -0.241224 0)
(0.478584 -0.249688 0)
(0.478584 -0.258152 0)
(0.478584 -0.266616 0)
(0.478584 -0.27508 0)
(0.478584 -0.283544 0)
(0.478584 -0.292008 0)
(0.478584 -0.300472 0)
(0.478584 -0.308936 0)
(0.478584 -0.3174 0)
(0.478584 -0.325864 0)
(0.478584 -0.334328 0)
(0.478584 -0.342792 0)
(0.478584 -0.351256 0)
(0.478584 -0.35972 0)
(0.478584 -0.368184 0)
(0.478584 -0.376648 0)
(0.478584 -0.385112 0)
(0.478584 -0.393576 0)
(0.478584 -0.40204 0)
(0.478584 -0.410504 0)
(0.478584 -0.418968 0)
(0.516856 -0.004232 0)
(0.516856 -0.012696 0)
(0.516856 -0.02116 0)
(0.516856 -0.029624 0)