/*--------------------------------*- C++ -*----------------------------------*\
| =========                 |                                                 |
| \\      /  F ield         | OpenFOAM: The Open Source CFD Toolbox           |
|  \\    /   O peration     | Version:  v2006                                 |
|   \\  /    A nd           | Website:  www.openfoam.com                      |
|    \\/     M anipulation  |                                                 |
\*---------------------------------------------------------------------------*/
FoamFile
{
    version     2.0;
    format      ascii;
    class       volScalarField;
    location    "7.8";
    object      p;
}
// * * * * * * * * * * * * * * * * * * * * * * * * * * * * * * * * * * * * * //

dimensions      [1 -1 -2 0 0 0 0];


internalField   nonuniform List<scalar> 
150000
(
25524
25523.7
25523.1
25522.1
25520.8
25519.2
25517.2
25514.9
25512.3
25509.4
25506.2
25502.7
25498.9
25494.8
25490.5
25485.8
25480.9
25475.7
25470.2
25464.5
25458.6
25452.4
25445.9
25439.3
25432.4
25425.2
25417.9
25410.4
25402.7
25394.8
25386.7
25378.4
25370
25361.4
25352.7
25343.8
25334.7
25325.5
25316.2
25306.7
25297.2
25287.5
25277.8
25268
25258.1
25248.2
25238.3
25228.3
25218.2
25208
25197.8
25187.5
25177.1
25166.7
25156.2
25145.7
25135.1
25124.5
25113.7
25102.8
25091.7
25080.4
25068.9
25057.2
25045.4
25033.5
25021.7
25009.8
24997.9
24985.9
24973.8
24961.6
24949.3
24936.8
24924.2
24911.4
24898.4
24885.2
24871.9
24858.4
24844.7
24830.9
24816.8
24802.5
24788
24773.4
24758.5
24743.4
24728.1
24712.7
24697
24681.1
24665
24648.7
24632.2
24615.5
24598.7
24581.6
24564.5
24547.1
24529.7
24512
24494.2
24476.2
24458
24439.6
24421.1
24402.6
24384.2
24365.8
24347.4
24329
24310.6
24292.2
24273.7
24255.2
24236.8
24218.3
24199.9
24181.5
24163.2
24145
24126.9
24108.9
24091.1
24073.4
24055.9
24038.5
24021.3
24004.4
23987.6
23971
23954.7
23938.6
23922.7
23907.1
23891.7
23876.6
23861.8
23847.2
23832.8
23818.8
23805
23791.5
23778.2
23765.2
23752.4
23739.9
23727.6
23715.6
23703.8
23692.2
23680.8
23669.6
23658.6
23647.8
23637.2
23626.7
23616.4
23606.1
23596
23586
23576
23566
23556
23546
23535.9
23525.8
23515.5
23505.1
23494.6
23484
23473.4
23462.9
23452.6
23442.4
23431.8
23420.9
23409.7
23398.3
23386.4
23374.3
23361.8
23348.9
23335.6
23321.8
23307.7
23293
23277.9
23262.3
23246.3
23229.8
23212.8
23195.5
23177.7
23159.4
23140.6
23121
23100.7
23079.8
23058.2
23036.1
23013.3
22989.8
22965.7
22940.9
22915.5
22889.3
22862.4
22834.8
22806.4
22777.3
22747.5
22717
22685.6
22653.4
22620.4
22586.6
22551.9
22516.4
22480
22442.8
22404.7
22365.7
22325.9
22285.1
22243.4
22200.8
22157.2
22112.7
22067.3
22021
21973.7
21925.4
21876.2
21826
21774.7
21722.5
21669.4
21615.2
21560.1
21504.1
21447.2
21389.2
21330.4
21270.5
21209.7
21148
21085.3
21021.7
20957.2
20891.8
20825.5
20758.4
20690.4
20621.7
20552.2
20481.9
20410.9
20339.2
20266.9
20193.9
20120.4
20046.3
19971.7
19896.7
19821.2
19745.4
19669.2
19592.8
19516.2
19439.4
19362.4
19285.4
19208.4
19131.5
19054.6
18977.9
18901.4
18825.1
18749.2
18673.7
18598.6
18523.9
18449.8
18376.3
18303.4
18231.2
18159.8
18089.1
18019.2
17950.3
17882.2
17815.2
17749.1
17684
17620.1
17557.2
17495.6
17435
17375.7
17317.6
17260.8
17205.3
17151.1
17098.1
17046.6
16996.4
16947.5
16900.1
16854
16809.4
16766.2
16724.3
16683.9
16645
16607.4
16571.3
16536.6
16503.3
16471.4
16440.9
16411.8
16384.2
16357.8
16332.9
16309.4
16287.1
16266.2
16246.7
16228.4
16211.4
16195.7
16181.2
16168
16156
16145.3
16135.6
16127.2
16119.9
16113.8
16108.7
16104.8
16101.9
16100
16099.2
16099.4
16100.6
16102.8
16105.9
16109.9
16114.9
16120.8
16127.5
16135.1
16143.6
16152.9
16162.9
16173.8
16185.4
16197.8
16211
16224.8
16239.4
16254.6
16270.5
16287.1
16304.2
16322
16340.4
16359.4
16378.9
16398.9
16419.5
16440.6
16462.1
16484.1
16506.5
16529.4
16552.6
16576.2
16600.2
16624.5
16649.1
16674
16699.2
16724.6
16750.2
16776
16802
16828.1
16854.3
16880.6
16907
16933.5
16959.9
16986.4
17012.8
17039.2
17065.5
17091.7
17117.8
17143.8
17169.5
17195.1
17220.5
17245.6
17270.5
17295.1
17319.4
17343.4
17367
17390.3
17413.2
17435.7
17457.8
17479.5
17500.8
17521.6
17541.9
17561.8
17581.1
17600
17618.4
17636.3
17653.7
17670.5
17686.8
17702.5
17717.8
17732.5
17746.6
17760.2
17773.3
17785.9
17797.9
17809.4
17820.3
17830.8
17840.7
17850.1
17859.1
17867.5
17875.4
17882.9
17889.9
17896.5
17902.6
17908.4
17913.7
17918.6
17923.1
17927.2
17931
17934.5
17937.6
17940.4
17942.9
17945.1
17947
17948.7
17950.2
17951.4
17952.4
17953.2
17953.9
17954.3
17954.6
17954.8
17954.8
17954.8
17954.6
17954.3
17954
17953.6
17953.1
17952.6
17952.1
17951.5
17950.9
17950.4
17949.8
17949.2
17948.7
17948.2
17947.7
17947.3
17946.9
17946.5
17946.2
17945.9
17945.7
17945.5
17945.4
17945.3
17945.3
17945.3
17945.3
17945.2
17945.1
25197.3
25196.9
25196.3
25195.3
25194
25192.4
25190.4
25188.1
25185.6
25182.6
25179.4
25175.9
25172.1
25168
25163.7
25159
25154.1
25148.9
25143.4
25137.7
25131.7
25125.5
25119.1
25112.4
25105.5
25098.4
25091
25083.5
25075.8
25067.8
25059.7
25051.5
25043
25034.4
25025.7
25016.8
25007.7
24998.5
24989.2
24979.8
24970.2
24960.6
24950.9
24941.1
24931.2
24921.2
24911.2
24901.1
24891
24880.8
24870.6
24860.2
24849.9
24839.5
24829
24818.5
24807.9
24797.2
24786.5
24775.5
24764.5
24753.2
24741.7
24730.1
24718.3
24706.5
24694.7
24682.8
24670.9
24659
24646.9
24634.7
24622.3
24609.8
24597.1
24584.3
24571.4
24558.2
24544.9
24531.4
24517.7
24503.8
24489.7
24475.5
24461
24446.3
24431.5
24416.4
24401.1
24385.6
24370
24354.1
24338
24321.7
24305.2
24288.5
24271.7
24254.7
24237.5
24220.2
24202.7
24185
24167.2
24149.2
24131
24112.6
24094.1
24075.7
24057.3
24038.9
24020.5
24002.1
23983.7
23965.2
23946.7
23928.1
23909.6
23891.1
23872.7
23854.3
23836
23817.7
23799.6
23781.7
23763.8
23746.1
23728.6
23711.2
23694
23677
23660.3
23643.7
23627.3
23611.2
23595.4
23579.7
23564.4
23549.2
23534.4
23519.8
23505.5
23491.4
23477.6
23464.1
23450.8
23437.8
23425.1
23412.6
23400.3
23388.3
23376.5
23364.9
23353.5
23342.3
23331.3
23320.5
23309.9
23299.4
23289.1
23278.9
23268.7
23258.7
23248.7
23238.7
23228.8
23218.8
23208.8
23198.6
23188.4
23178.1
23167.7
23157.2
23146.6
23136
23125.3
23114.7
23104.1
23093.3
23082.1
23070.6
23058.8
23046.6
23034.2
23021.4
23008.2
22994.6
22980.7
22966.3
22951.6
22936.4
22920.7
22904.5
22887.8
22870.4
22852.4
22833.8
22814.4
22794.6
22774.3
22753.3
22731.7
22709.6
22686.8
22663.3
22639.2
22614.4
22588.9
22562.7
22535.8
22508.2
22479.9
22450.7
22420.8
22390.1
22358.7
22326.5
22293.5
22259.6
22224.8
22189.4
22153.1
22115.9
22077.8
22038.9
21999
21958.3
21916.6
21874.1
21830.6
21786.2
21740.8
21694.5
21647.2
21598.9
21549.7
21499.5
21448.3
21396.2
21343.1
21289
21233.9
21177.8
21120.8
21062.8
21003.9
20944
20883.1
20821.4
20758.7
20695
20630.5
20565.1
20498.9
20431.7
20363.8
20295
20225.5
20155.2
20084.2
20012.5
19940.1
19867.1
19793.6
19719.4
19644.8
19569.8
19494.3
19418.4
19342.2
19265.8
19189.1
19112.3
19035.3
18958.3
18881.2
18804.2
18727.3
18650.6
18574.1
18497.8
18421.8
18346.2
18271.1
18196.4
18122.3
18048.7
17975.8
17903.6
17832.1
17761.4
17691.5
17622.5
17554.4
17487.3
17421.2
17356.2
17292.2
17229.3
17167.6
17107.1
17047.7
16989.6
16932.8
16877.3
16823
16770.1
16718.5
16668.3
16619.5
16572
16526
16481.3
16438.1
16396.3
16355.9
16316.9
16279.3
16243.2
16208.5
16175.2
16143.4
16112.9
16083.8
16056.1
16029.8
16004.9
15981.4
15959.1
15938.3
15918.7
15900.4
15883.5
15867.8
15853.3
15840.1
15828.2
15817.4
15807.8
15799.4
15792.1
15786
15780.9
15777
15774.1
15772.3
15771.5
15771.7
15772.9
15775.1
15778.2
15782.3
15787.3
15793.1
15799.9
15807.5
15816
15825.3
15835.4
15846.2
15857.9
15870.3
15883.5
15897.3
15911.9
15927.1
15943
15959.6
15976.8
15994.6
16013
16032
16051.5
16071.6
16092.1
16113.2
16134.8
16156.8
16179.2
16202.1
16225.4
16249
16273
16297.3
16321.9
16346.8
16372
16397.4
16423
16448.9
16474.8
16501
16527.2
16553.6
16580
16606.4
16632.9
16659.4
16685.9
16712.3
16738.6
16764.8
16790.9
16816.9
16842.7
16868.3
16893.7
16918.8
16943.7
16968.3
16992.6
17016.6
17040.2
17063.5
17086.5
17109
17131.1
17152.8
17174.1
17194.9
17215.2
17235.1
17254.5
17273.4
17291.8
17309.6
17327
17343.8
17360.1
17375.9
17391.1
17405.8
17420
17433.6
17446.7
17459.2
17471.3
17482.7
17493.7
17504.1
17514.1
17523.5
17532.4
17540.8
17548.8
17556.2
17563.2
17569.8
17575.9
17581.6
17586.9
17591.8
17596.3
17600.5
17604.3
17607.7
17610.8
17613.6
17616.1
17618.3
17620.2
17621.9
17623.3
17624.5
17625.5
17626.3
17627
17627.4
17627.7
17627.9
17627.9
17627.8
17627.6
17627.3
17627
17626.6
17626.1
17625.6
17625
17624.5
17623.9
17623.3
17622.7
17622.2
17621.6
17621.1
17620.6
17620.2
17619.8
17619.4
17619.1
17618.8
17618.6
17618.4
17618.3
17618.2
17618.2
17618.2
17618.2
17618.1
17618
24870.7
24870.4
24869.7
24868.7
24867.4
24865.8
24863.8
24861.5
24858.9
24856
24852.8
24849.3
24845.5
24841.4
24837
24832.3
24827.4
24822.2
24816.7
24811
24805
24798.8
24792.3
24785.6
24778.7
24771.6
24764.2
24756.7
24748.9
24741
24732.9
24724.6
24716.2
24707.6
24698.8
24689.9
24680.8
24671.6
24662.3
24652.8
24643.2
24633.5
24623.8
24613.9
24604.1
24594.1
24584.2
24574.1
24564
24553.9
24543.6
24533.3
24522.9
24512.4
24501.9
24491.3
24480.7
24469.9
24459.1
24448.1
24437
24425.8
24414.4
24402.9
24391.2
24379.5
24367.7
24355.9
24343.9
24331.9
24319.8
24307.6
24295.2
24282.7
24270
24257.2
24244.2
24231.1
24217.8
24204.2
24190.6
24176.7
24162.6
24148.3
24133.9
24119.2
24104.3
24089.3
24074
24058.5
24042.8
24027
24010.9
23994.6
23978.1
23961.5
23944.6
23927.6
23910.4
23893.1
23875.6
23857.9
23840
23822.1
23803.9
23785.6
23767.3
23748.9
23730.5
23712
23693.6
23675.1
23656.6
23638
23619.4
23600.9
23582.3
23563.8
23545.3
23526.9
23508.6
23490.3
23472.2
23454.2
23436.4
23418.7
23401.1
23383.7
23366.5
23349.5
23332.7
23316.2
23299.8
23283.7
23267.8
23252.2
23236.8
23221.7
23206.9
23192.3
23178
23163.9
23150.1
23136.6
23123.3
23110.3
23097.6
23085.1
23072.9
23060.8
23049
23037.5
23026.1
23014.9
23004
22993.2
22982.6
22972.1
22961.8
22951.6
22941.6
22931.5
22921.6
22911.6
22901.7
22891.8
22881.8
22871.8
22861.7
22851.5
22841.2
22830.9
22820.5
22810.1
22799.7
22789.1
22778.4
22767.5
22756.3
22744.8
22733
22720.8
22708.4
22695.5
22682.3
22668.6
22654.5
22640
22625
22609.6
22593.6
22577.2
22560.4
22543
22525.1
22506.7
22487.6
22468
22447.8
22426.9
22405.5
22383.3
22360.6
22337.2
22313.1
22288.4
22262.9
22236.8
22209.9
22182.3
22154
22124.9
22095.1
22064.5
22033.1
22000.9
21967.9
21934
21899.5
21864.1
21827.6
21790.4
21752.3
21713.3
21673.5
21632.7
21591
21548.4
21504.9
21460.5
21415.1
21368.7
21321.4
21273.1
21223.9
21173.7
21122.5
21070.3
21017.2
20963.1
20908
20851.9
20794.9
20736.9
20677.9
20618
20557.2
20495.4
20432.6
20369
20304.4
20239
20172.6
20105.4
20037.4
19968.6
19899
19828.7
19757.6
19685.8
19613.4
19540.3
19466.7
19392.5
19317.8
19242.7
19167.1
19091.2
19014.9
18938.4
18861.6
18784.7
18707.7
18630.6
18553.4
18476.4
18399.4
18322.6
18245.9
18169.6
18093.6
18017.9
17942.7
17868
17793.7
17720.1
17647.2
17574.9
17503.3
17432.6
17362.7
17293.6
17225.5
17158.4
17092.2
17027.1
16963.1
16900.2
16838.5
16777.9
16718.6
16660.5
16603.6
16548
16493.8
16440.9
16389.3
16339.1
16290.2
16242.8
16196.7
16152.1
16108.8
16067
16026.6
15987.7
15950.1
15914
15879.3
15846.1
15814.2
15783.7
15754.7
15727
15700.8
15675.9
15652.3
15630.1
15609.3
15589.8
15571.5
15554.6
15538.9
15524.5
15511.3
15499.4
15488.6
15479.1
15470.7
15463.5
15457.3
15452.3
15448.4
15445.6
15443.8
15443
15443.3
15444.5
15446.7
15449.9
15454
15459
15464.9
15471.7
15479.3
15487.8
15497.1
15507.2
15518.1
15529.8
15542.3
15555.4
15569.3
15583.9
15599.2
15615.1
15631.7
15648.9
15666.8
15685.2
15704.2
15723.7
15743.8
15764.4
15785.5
15807.1
15829.2
15851.6
15874.5
15897.8
15921.5
15945.5
15969.9
15994.5
16019.5
16044.7
16070.1
16095.8
16121.6
16147.6
16173.8
16200.1
16226.5
16252.9
16279.4
16305.9
16332.4
16358.9
16385.4
16411.7
16438
16464.1
16490.1
16515.9
16541.6
16567
16592.1
16617.1
16641.7
16666
16690.1
16713.7
16737
16760
16782.5
16804.7
16826.4
16847.7
16868.5
16888.9
16908.8
16928.2
16947.1
16965.5
16983.4
17000.7
17017.6
17033.9
17049.7
17064.9
17079.6
17093.8
17107.4
17120.5
17133
17145
17156.5
17167.4
17177.9
17187.8
17197.2
17206.1
17214.5
17222.4
17229.9
17236.9
17243.4
17249.5
17255.2
17260.5
17265.4
17269.9
17274
17277.7
17281.1
17284.2
17287
17289.5
17291.6
17293.6
17295.2
17296.6
17297.8
17298.8
17299.6
17300.2
17300.6
17300.9
17301
17301
17300.9
17300.7
17300.4
17300
17299.5
17299.1
17298.5
17298
17297.4
17296.8
17296.2
17295.6
17295
17294.5
17293.9
17293.4
17293
17292.6
17292.2
17291.9
17291.6
17291.4
17291.2
17291
17291
17290.9
17290.9
17291
17290.9
17290.7
24544.2
24543.9
24543.2
24542.2
24540.9
24539.3
24537.3
24535
24532.4
24529.5
24526.3
24522.8
24518.9
24514.8
24510.4
24505.8
24500.8
24495.6
24490.1
24484.4
24478.4
24472.2
24465.7
24459
24452.1
24444.9
24437.6
24430
24422.3
24414.3
24406.2
24397.9
24389.4
24380.8
24372
24363.1
24354
24344.8
24335.5
24326
24316.4
24306.7
24296.9
24287.1
24277.2
24267.2
24257.2
24247.2
24237
24226.8
24216.6
24206.2
24195.8
24185.4
24174.8
24164.2
24153.5
24142.7
24131.9
24120.9
24109.8
24098.5
24087.2
24075.7
24064.1
24052.4
24040.7
24028.8
24016.9
24004.9
23992.8
23980.5
23968.1
23955.6
23942.9
23930.1
23917.1
23903.9
23890.6
23877.1
23863.4
23849.5
23835.4
23821.2
23806.7
23792
23777.1
23762.1
23746.8
23731.3
23715.6
23699.8
23683.7
23667.4
23650.9
23634.3
23617.4
23600.4
23583.2
23565.8
23548.3
23530.6
23512.8
23494.8
23476.6
23458.4
23440.1
23421.8
23403.4
23385
23366.5
23348
23329.5
23310.9
23292.2
23273.6
23255
23236.4
23217.9
23199.5
23181.1
23162.9
23144.7
23126.7
23108.8
23091.1
23073.5
23056.1
23038.9
23021.8
23005
22988.4
22972.1
22956
22940.1
22924.4
22909
22893.9
22879.1
22864.5
22850.2
22836.1
22822.3
22808.8
22795.6
22782.6
22769.8
22757.4
22745.1
22733.1
22721.4
22709.8
22698.5
22687.3
22676.4
22665.6
22655.1
22644.6
22634.3
22624.2
22614.1
22604.1
22594.2
22584.3
22574.4
22564.5
22554.5
22544.6
22534.5
22524.4
22514.3
22504
22493.7
22483.3
22472.8
22462.2
22451.5
22440.5
22429.3
22417.8
22406
22393.9
22381.5
22368.7
22355.6
22342.1
22328.1
22313.7
22298.9
22283.7
22268
22251.8
22235
22217.7
22199.8
22181.3
22162.2
22142.5
22122.2
22101.4
22079.9
22057.7
22035
22011.6
21987.5
21962.8
21937.3
21911.2
21884.4
21856.8
21828.5
21799.4
21769.6
21739
21707.6
21675.4
21642.4
21608.6
21574
21538.5
21502.2
21465
21427
21388.1
21348.2
21307.5
21265.9
21223.3
21179.8
21135.4
21090
21043.7
20996.4
20948.1
20898.9
20848.7
20797.5
20745.3
20692.2
20638.1
20582.9
20526.9
20469.8
20411.8
20352.7
20292.8
20231.8
20170
20107.2
20043.4
19978.8
19913.3
19846.9
19779.6
19711.5
19642.6
19572.9
19502.5
19431.3
19359.4
19286.9
19213.7
19140
19065.7
18990.8
18915.6
18839.9
18763.8
18687.5
18610.8
18533.9
18456.9
18379.7
18302.5
18225.3
18148.1
18071
17994
17917.3
17840.8
17764.7
17688.9
17613.6
17538.8
17464.5
17390.8
17317.7
17245.3
17173.7
17102.9
17032.9
16963.8
16895.6
16828.4
16762.2
16697.1
16633
16570.1
16508.3
16447.7
16388.3
16330.1
16273.3
16217.7
16163.4
16110.5
16058.9
16008.7
15959.8
15912.4
15866.3
15821.7
15778.4
15736.6
15696.3
15657.3
15619.8
15583.7
15549
15515.8
15484
15453.5
15424.5
15396.9
15370.7
15345.8
15322.3
15300.2
15279.3
15259.8
15241.7
15224.8
15209.1
15194.8
15181.6
15169.7
15159
15149.5
15141.2
15134
15127.9
15123
15119.1
15116.3
15114.5
15113.8
15114.1
15115.4
15117.6
15120.8
15125
15130
15136
15142.8
15150.5
15159
15168.4
15178.5
15189.5
15201.2
15213.7
15226.9
15240.8
15255.4
15270.7
15286.7
15303.3
15320.6
15338.5
15356.9
15376
15395.6
15415.7
15436.4
15457.5
15479.1
15501.2
15523.7
15546.7
15570
15593.7
15617.8
15642.2
15666.9
15691.9
15717.1
15742.6
15768.3
15794.2
15820.3
15846.5
15872.9
15899.3
15925.8
15952.3
15978.9
16005.5
16032
16058.5
16084.9
16111.2
16137.4
16163.5
16189.3
16215
16240.5
16265.7
16290.6
16315.3
16339.7
16363.8
16387.5
16410.8
16433.8
16456.4
16478.6
16500.3
16521.6
16542.5
16562.9
16582.8
16602.2
16621.1
16639.5
16657.4
16674.8
16691.7
16708
16723.8
16739
16753.7
16767.9
16781.5
16794.6
16807.1
16819.1
16830.6
16841.5
16851.9
16861.8
16871.2
16880.1
16888.5
16896.4
16903.8
16910.8
16917.3
16923.4
16929.1
16934.3
16939.2
16943.6
16947.7
16951.4
16954.8
16957.8
16960.6
16963
16965.2
16967
16968.7
16970
16971.2
16972.1
16972.9
16973.4
16973.8
16974.1
16974.2
16974.1
16974
16973.8
16973.4
16973
16972.5
16972
16971.5
16970.9
16970.3
16969.6
16969
16968.4
16967.8
16967.2
16966.7
16966.2
16965.7
16965.3
16964.9
16964.6
16964.3
16964
16963.9
16963.7
16963.6
16963.6
16963.6
16963.6
16963.5
16963.4
24217.9
24217.5
24216.9
24215.9
24214.6
24213
24211
24208.7
24206.1
24203.2
24200
24196.4
24192.6
24188.5
24184.1
24179.4
24174.5
24169.3
24163.8
24158
24152
24145.8
24139.3
24132.6
24125.7
24118.5
24111.1
24103.6
24095.8
24087.8
24079.7
24071.4
24062.9
24054.3
24045.5
24036.5
24027.4
24018.2
24008.8
23999.3
23989.7
23980
23970.2
23960.4
23950.5
23940.5
23930.5
23920.4
23910.2
23900
23889.7
23879.3
23868.9
23858.4
23847.8
23837.2
23826.4
23815.6
23804.7
23793.7
23782.6
23771.3
23760
23748.5
23737
23725.3
23713.6
23701.7
23689.8
23677.8
23665.7
23653.4
23641
23628.5
23615.8
23603
23590
23576.8
23563.5
23549.9
23536.2
23522.3
23508.3
23494
23479.5
23464.8
23450
23434.9
23419.6
23404.1
23388.4
23372.5
23356.5
23340.2
23323.7
23307
23290.2
23273.1
23255.9
23238.6
23221
23203.3
23185.5
23167.5
23149.4
23131.2
23112.9
23094.5
23076.1
23057.6
23039.1
23020.6
23002
22983.3
22964.7
22946
22927.4
22908.8
22890.3
22871.8
22853.4
22835.1
22816.9
22798.9
22781
22763.2
22745.6
22728.2
22710.9
22693.9
22677.1
22660.5
22644.1
22627.9
22612
22596.4
22581
22565.9
22551
22536.4
22522.1
22508.1
22494.3
22480.8
22467.6
22454.6
22441.9
22429.4
22417.2
22405.3
22393.5
22382
22370.7
22359.6
22348.7
22338
22327.5
22317.1
22306.8
22296.7
22286.7
22276.8
22266.9
22257
22247.2
22237.4
22227.6
22217.7
22207.8
22197.8
22187.7
22177.6
22167.3
22157
22146.6
22136.1
22125.4
22114.4
22103.3
22091.8
22080.1
22068
22055.6
22042.9
22029.7
22016.2
22002.3
21987.9
21973.1
21957.8
21942
21925.7
21908.9
21891.6
21873.7
21855.3
21836.3
21816.7
21796.6
21775.8
21754.4
21732.3
21709.7
21686.3
21662.3
21637.6
21612.2
21586.2
21559.4
21531.8
21503.6
21474.5
21444.7
21414.2
21382.8
21350.7
21317.7
21284
21249.4
21213.9
21177.6
21140.4
21102.4
21063.5
21023.7
20983
20941.3
20898.8
20855.3
20810.9
20765.5
20719.2
20671.9
20623.6
20574.4
20524.2
20473
20420.8
20367.7
20313.5
20258.4
20202.3
20145.2
20087.1
20028.1
19968
19907.1
19845.1
19782.2
19718.4
19653.7
19588.1
19521.5
19454.2
19386
19316.9
19247.1
19176.5
19105.2
19033.2
18960.5
18887.2
18813.3
18738.9
18663.9
18588.5
18512.6
18436.4
18359.9
18283.1
18206
18128.8
18051.5
17974.1
17896.7
17819.3
17742.1
17665
17588.1
17511.5
17435.2
17359.3
17283.9
17208.9
17134.5
17060.6
16987.4
16915
16843.2
16772.3
16702.2
16633
16564.7
16497.4
16431.2
16365.9
16301.8
16238.8
16177
16116.3
16056.9
15998.7
15941.8
15886.2
15831.9
15778.9
15727.3
15677.1
15628.3
15580.8
15534.8
15490.1
15446.9
15405.1
15364.8
15325.8
15288.3
15252.3
15217.7
15184.4
15152.6
15122.3
15093.3
15065.7
15039.5
15014.7
14991.3
14969.2
14948.4
14928.9
14910.8
14894
14878.4
14864.1
14851
14839.2
14828.5
14819.1
14810.8
14803.7
14797.7
14792.8
14789
14786.2
14784.5
14783.9
14784.2
14785.6
14787.9
14791.1
14795.3
14800.4
14806.4
14813.3
14821.1
14829.7
14839.1
14849.3
14860.3
14872
14884.6
14897.8
14911.8
14926.5
14941.8
14957.9
14974.5
14991.9
15009.8
15028.3
15047.4
15067
15087.2
15107.9
15129.1
15150.8
15173
15195.5
15218.5
15241.9
15265.7
15289.9
15314.3
15339.1
15364.1
15389.5
15415
15440.8
15466.8
15492.9
15519.2
15545.6
15572.1
15598.6
15625.3
15651.9
15678.5
15705.1
15731.7
15758.2
15784.6
15810.8
15836.9
15862.9
15888.6
15914.1
15939.4
15964.4
15989.1
16013.6
16037.7
16061.5
16084.9
16107.9
16130.5
16152.7
16174.5
16195.9
16216.8
16237.2
16257.1
16276.6
16295.5
16314
16331.9
16349.3
16366.1
16382.5
16398.3
16413.5
16428.2
16442.4
16456
16469.1
16481.6
16493.6
16505
16515.9
16526.3
16536.2
16545.6
16554.4
16562.8
16570.7
16578.1
16585
16591.5
16597.6
16603.2
16608.4
16613.2
16617.6
16621.7
16625.3
16628.7
16631.7
16634.4
16636.8
16638.9
16640.7
16642.3
16643.6
16644.7
16645.6
16646.3
16646.8
16647.2
16647.4
16647.4
16647.3
16647.1
16646.9
16646.5
16646
16645.5
16645
16644.4
16643.7
16643.1
16642.4
16641.8
16641.1
16640.5
16639.9
16639.4
16638.8
16638.3
16637.9
16637.5
16637.1
16636.8
16636.6
16636.4
16636.3
16636.2
16636.2
16636.2
16636.2
16636
16635.9
23891.7
23891.4
23890.7
23889.8
23888.5
23886.8
23884.9
23882.6
23880
23877
23873.8
23870.3
23866.5
23862.4
23858
23853.3
23848.3
23843.1
23837.6
23831.9
23825.9
23819.6
23813.1
23806.4
23799.4
23792.2
23784.9
23777.3
23769.5
23761.5
23753.3
23745
23736.4
23727.8
23719
23710
23700.9
23691.6
23682.2
23672.7
23663.1
23653.4
23643.6
23633.7
23623.8
23613.8
23603.7
23593.6
23583.4
23573.1
23562.8
23552.4
23541.9
23531.4
23520.7
23510.1
23499.3
23488.5
23477.6
23466.5
23455.4
23444.2
23432.8
23421.4
23409.8
23398.2
23386.4
23374.6
23362.7
23350.7
23338.5
23326.3
23313.9
23301.3
23288.6
23275.8
23262.8
23249.6
23236.3
23222.7
23209
23195.1
23181.1
23166.8
23152.3
23137.6
23122.7
23107.6
23092.4
23076.9
23061.2
23045.3
23029.2
23012.9
22996.4
22979.7
22962.9
22945.8
22928.6
22911.2
22893.6
22875.9
22858.1
22840.1
22822
22803.8
22785.5
22767.1
22748.7
22730.2
22711.7
22693.1
22674.4
22655.8
22637.1
22618.4
22599.8
22581.1
22562.5
22544
22525.6
22507.2
22489
22470.9
22453
22435.2
22417.5
22400.1
22382.8
22365.7
22348.9
22332.2
22315.8
22299.7
22283.8
22268.1
22252.7
22237.6
22222.7
22208.1
22193.8
22179.8
22166
22152.5
22139.3
22126.3
22113.7
22101.2
22089.1
22077.1
22065.4
22054
22042.7
22031.7
22020.8
22010.2
21999.7
21989.3
21979.1
21969.1
21959.1
21949.2
21939.4
21929.6
21919.9
21910.1
21900.4
21890.6
21880.7
21870.8
21860.9
21850.8
21840.7
21830.4
21820.1
21809.6
21798.9
21788
21776.9
21765.5
21753.8
21741.8
21729.5
21716.8
21703.7
21690.3
21676.4
21662.1
21647.4
21632.2
21616.6
21600.4
21583.7
21566.5
21548.7
21530.4
21511.4
21491.9
21471.7
21451
21429.6
21407.6
21384.9
21361.6
21337.6
21313
21287.6
21261.6
21234.8
21207.3
21179.1
21150.1
21120.4
21089.8
21058.5
21026.4
20993.5
20959.8
20925.2
20889.8
20853.5
20816.4
20778.4
20739.5
20699.8
20659.1
20617.5
20574.9
20531.5
20487.1
20441.7
20395.4
20348.1
20299.9
20250.6
20200.4
20149.2
20097
20043.9
19989.7
19934.5
19878.4
19821.2
19763.1
19704
19643.9
19582.8
19520.8
19457.8
19393.9
19329
19263.3
19196.6
19129.1
19060.8
18991.6
18921.6
18850.9
18779.4
18707.2
18634.3
18560.8
18486.8
18412.1
18337
18261.3
18185.3
18108.9
18032.1
17955.1
17877.9
17800.5
17722.9
17645.3
17567.7
17490.2
17412.7
17335.4
17258.4
17181.6
17105.1
17029
16953.4
16878.3
16803.7
16729.7
16656.4
16583.7
16511.9
16440.8
16370.6
16301.3
16232.9
16165.5
16099.1
16033.8
15969.6
15906.5
15844.6
15783.9
15724.4
15666.2
15609.2
15553.6
15499.3
15446.3
15394.7
15344.4
15295.6
15248.1
15202.1
15157.4
15114.2
15072.5
15032.1
14993.3
14955.8
14919.8
14885.2
14852
14820.3
14789.9
14761
14733.5
14707.3
14682.6
14659.2
14637.2
14616.5
14597.1
14579
14562.2
14546.8
14532.5
14519.5
14507.8
14497.2
14487.8
14479.6
14472.6
14466.6
14461.8
14458.1
14455.4
14453.8
14453.2
14453.6
14455
14457.4
14460.8
14465
14470.2
14476.3
14483.2
14491
14499.7
14509.2
14519.4
14530.5
14542.3
14554.9
14568.2
14582.3
14597
14612.4
14628.5
14645.3
14662.7
14680.6
14699.2
14718.4
14738.1
14758.4
14779.1
14800.4
14822.2
14844.4
14867.1
14890.1
14913.6
14937.5
14961.7
14986.2
15011.1
15036.2
15061.6
15087.2
15113.1
15139.1
15165.4
15191.7
15218.2
15244.8
15271.5
15298.2
15324.9
15351.6
15378.3
15404.9
15431.5
15458
15484.3
15510.5
15536.5
15562.3
15587.9
15613.3
15638.4
15663.2
15687.7
15711.9
15735.7
15759.2
15782.3
15804.9
15827.2
15849
15870.4
15891.4
15911.8
15931.8
15951.3
15970.3
15988.8
16006.7
16024.1
16041
16057.3
16073.1
16088.4
16103.1
16117.2
16130.9
16143.9
16156.4
16168.4
16179.8
16190.7
16201.1
16211
16220.3
16229.1
16237.5
16245.3
16252.7
16259.6
16266
16272
16277.6
16282.8
16287.5
16291.9
16295.9
16299.5
16302.8
16305.7
16308.4
16310.7
16312.7
16314.5
16316
16317.3
16318.3
16319.2
16319.8
16320.3
16320.6
16320.7
16320.7
16320.6
16320.3
16320
16319.6
16319.1
16318.5
16317.9
16317.2
16316.6
16315.9
16315.2
16314.5
16313.8
16313.2
16312.5
16311.9
16311.4
16310.9
16310.4
16310
16309.6
16309.3
16309
16308.8
16308.7
16308.6
16308.6
16308.6
16308.6
16308.5
16308.3
23565.8
23565.4
23564.8
23563.8
23562.5
23560.9
23558.9
23556.6
23554
23551.1
23547.9
23544.4
23540.6
23536.4
23532
23527.4
23522.4
23517.2
23511.7
23505.9
23499.9
23493.6
23487.1
23480.3
23473.3
23466.1
23458.7
23451.1
23443.3
23435.3
23427.1
23418.7
23410.2
23401.5
23392.6
23383.6
23374.5
23365.2
23355.8
23346.2
23336.6
23326.9
23317
23307.1
23297.2
23287.1
23277
23266.8
23256.6
23246.2
23235.9
23225.4
23214.9
23204.4
23193.7
23183
23172.2
23161.3
23150.4
23139.3
23128.2
23117
23105.6
23094.2
23082.6
23071
23059.3
23047.5
23035.5
23023.5
23011.4
22999.1
22986.7
22974.1
22961.4
22948.6
22935.6
22922.4
22909.1
22895.5
22881.8
22867.9
22853.8
22839.5
22825
22810.4
22795.5
22780.4
22765.1
22749.6
22733.9
22718
22701.9
22685.6
22669.1
22652.4
22635.5
22618.4
22601.2
22583.8
22566.2
22548.5
22530.6
22512.6
22494.5
22476.3
22458
22439.6
22421.1
22402.6
22384
22365.4
22346.7
22328
22309.3
22290.5
22271.8
22253.1
22234.5
22216
22197.5
22179.1
22160.8
22142.7
22124.7
22106.9
22089.2
22071.7
22054.4
22037.3
22020.4
22003.8
21987.3
21971.1
21955.2
21939.5
21924.1
21909
21894.1
21879.6
21865.2
21851.2
21837.5
21824
21810.8
21797.9
21785.2
21772.8
21760.7
21748.8
21737.2
21725.7
21714.5
21703.6
21692.8
21682.2
21671.7
21661.5
21651.4
21641.4
21631.5
21621.7
21611.9
21602.3
21592.6
21583
21573.3
21563.6
21553.9
21544.1
21534.3
21524.3
21514.3
21504.1
21493.9
21483.5
21472.8
21462
21451
21439.6
21428
21416.1
21403.8
21391.2
21378.2
21364.8
21351
21336.8
21322.1
21307
21291.4
21275.2
21258.6
21241.4
21223.7
21205.4
21186.5
21167
21147
21126.3
21105
21083.1
21060.5
21037.2
21013.3
20988.8
20963.5
20937.5
20910.8
20883.4
20855.2
20826.2
20796.6
20766.1
20734.8
20702.8
20669.9
20636.2
20601.7
20566.3
20530.1
20493
20455.1
20416.2
20376.5
20335.8
20294.2
20251.7
20208.3
20163.9
20118.6
20072.2
20025
19976.7
19927.5
19877.3
19826.1
19773.9
19720.6
19666.4
19611.2
19555
19497.8
19439.6
19380.4
19320.2
19259
19196.9
19133.8
19069.8
19004.8
18938.9
18872.1
18804.4
18735.9
18666.6
18596.4
18525.5
18453.8
18381.4
18308.3
18234.6
18160.3
18085.4
18010
17934.2
17857.9
17781.2
17704.2
17627
17549.5
17471.8
17394.1
17316.2
17238.4
17160.6
17082.9
17005.4
16928.1
16851.1
16774.4
16698.1
16622.3
16546.9
16472.1
16398
16324.4
16251.6
16179.6
16108.4
16038
15968.6
15900.1
15832.5
15766.1
15700.6
15636.3
15573.2
15511.2
15450.4
15390.8
15332.6
15275.6
15219.9
15165.5
15112.5
15060.9
15010.6
14961.7
14914.3
14868.2
14823.6
14780.4
14738.7
14698.4
14659.5
14622.1
14586.1
14551.6
14518.5
14486.8
14456.5
14427.6
14400.2
14374.1
14349.4
14326.1
14304.2
14283.5
14264.2
14246.3
14229.6
14214.2
14200
14187.1
14175.4
14165
14155.7
14147.6
14140.6
14134.8
14130
14126.4
14123.8
14122.3
14121.8
14122.3
14123.8
14126.3
14129.7
14134.1
14139.3
14145.5
14152.5
14160.4
14169.1
14178.7
14189
14200.2
14212.1
14224.7
14238.1
14252.3
14267.1
14282.6
14298.8
14315.6
14333
14351.1
14369.8
14389
14408.8
14429.1
14450
14471.4
14493.2
14515.5
14538.3
14561.4
14585
14608.9
14633.2
14657.9
14682.8
14708.1
14733.6
14759.3
14785.3
14811.4
14837.7
14864.2
14890.8
14917.5
14944.2
14971
14997.9
15024.7
15051.5
15078.2
15104.9
15131.5
15157.9
15184.2
15210.3
15236.2
15261.9
15287.4
15312.5
15337.4
15362
15386.3
15410.2
15433.7
15456.9
15479.6
15502
15523.9
15545.3
15566.3
15586.8
15606.9
15626.4
15645.4
15663.9
15681.9
15699.3
15716.2
15732.6
15748.4
15763.6
15778.3
15792.5
15806.1
15819.2
15831.7
15843.6
15855
15865.9
15876.3
15886.1
15895.4
15904.2
15912.5
15920.3
15927.6
15934.4
15940.8
15946.8
15952.3
15957.4
15962.1
15966.4
15970.3
15973.9
15977.1
15980
15982.5
15984.8
15986.8
15988.5
15989.9
15991.1
15992.1
15992.9
15993.4
15993.8
15994.1
15994.1
15994
15993.9
15993.5
15993.1
15992.7
15992.1
15991.5
15990.8
15990.1
15989.4
15988.6
15987.9
15987.2
15986.4
15985.7
15985.1
15984.4
15983.8
15983.3
15982.8
15982.4
15982
15981.6
15981.4
15981.2
15981
15980.9
15980.9
15980.9
15980.9
15980.7
15980.6
23240
23239.7
23239.1
23238.1
23236.8
23235.1
23233.2
23230.9
23228.3
23225.4
23222.2
23218.7
23214.8
23210.7
23206.3
23201.6
23196.6
23191.4
23185.9
23180.1
23174
23167.7
23161.2
23154.4
23147.4
23140.2
23132.7
23125.1
23117.2
23109.2
23101
23092.5
23084
23075.2
23066.3
23057.3
23048.1
23038.8
23029.4
23019.8
23010.1
23000.4
22990.5
22980.6
22970.6
22960.5
22950.3
22940.1
22929.8
22919.4
22909
22898.5
22888
22877.4
22866.7
22855.9
22845.1
22834.2
22823.2
22812.2
22801
22789.8
22778.4
22767
22755.4
22743.8
22732.1
22720.3
22708.3
22696.3
22684.2
22671.9
22659.5
22646.9
22634.2
22621.4
22608.3
22595.2
22581.8
22568.3
22554.5
22540.6
22526.5
22512.2
22497.8
22483.1
22468.2
22453.1
22437.8
22422.3
22406.5
22390.6
22374.5
22358.2
22341.7
22325
22308.1
22291
22273.7
22256.3
22238.7
22221
22203.1
22185.1
22166.9
22148.7
22130.3
22111.9
22093.4
22074.8
22056.2
22037.5
22018.8
22000.1
21981.3
21962.5
21943.8
21925
21906.4
21887.7
21869.2
21850.8
21832.5
21814.3
21796.2
21778.4
21760.6
21743.1
21725.8
21708.6
21691.7
21675
21658.6
21642.4
21626.4
21610.7
21595.3
21580.2
21565.3
21550.7
21536.4
21522.4
21508.7
21495.2
21482.1
21469.2
21456.5
21444.2
21432.1
21420.3
21408.7
21397.3
21386.2
21375.3
21364.5
21354
21343.7
21333.5
21323.4
21313.5
21303.7
21294
21284.4
21274.8
21265.2
21255.7
21246.1
21236.6
21227
21217.3
21207.6
21197.8
21187.8
21177.8
21167.6
21157.3
21146.8
21136
21125
21113.8
21102.3
21090.4
21078.2
21065.7
21052.8
21039.5
21025.8
21011.7
20997.1
20982
20966.5
20950.5
20933.9
20916.8
20899.2
20881
20862.2
20842.8
20822.8
20802.2
20780.9
20759.1
20736.6
20713.4
20689.6
20665
20639.8
20613.9
20587.2
20559.9
20531.8
20502.9
20473.3
20442.9
20411.7
20379.7
20346.8
20313.2
20278.7
20243.4
20207.3
20170.2
20132.3
20093.5
20053.8
20013.2
19971.6
19929.1
19885.7
19841.4
19796