/*--------------------------------*- C++ -*----------------------------------*\
| =========                 |                                                 |
| \\      /  F ield         | OpenFOAM: The Open Source CFD Toolbox           |
|  \\    /   O peration     | Version:  v2006                                 |
|   \\  /    A nd           | Website:  www.openfoam.com                      |
|    \\/     M anipulation  |                                                 |
\*---------------------------------------------------------------------------*/
FoamFile
{
    version     2.0;
    format      ascii;
    class       volScalarField;
    location    "7.8";
    object      p_rgh;
}
// * * * * * * * * * * * * * * * * * * * * * * * * * * * * * * * * * * * * * //

dimensions      [1 -1 -2 0 0 0 0];


internalField   nonuniform List<scalar> 
150000
(
6067.55
6067.22
6066.56
6065.58
6064.28
6062.65
6060.7
6058.43
6055.84
6052.94
6049.73
6046.23
6042.42
6038.33
6033.96
6029.31
6024.38
6019.19
6013.74
6008.03
6002.07
5995.87
5989.43
5982.75
5975.86
5968.74
5961.41
5953.88
5946.16
5938.25
5930.16
5921.9
5913.48
5904.9
5896.17
5887.27
5878.23
5869.03
5859.7
5850.24
5840.67
5831.01
5821.27
5811.49
5801.64
5791.74
5781.78
5771.77
5761.68
5751.51
5741.27
5730.96
5720.6
5710.18
5699.73
5689.21
5678.63
5667.96
5657.19
5646.27
5635.18
5623.88
5612.38
5600.71
5588.91
5577.04
5565.16
5553.27
5541.37
5529.41
5517.34
5505.14
5492.8
5480.3
5467.66
5454.86
5441.89
5428.75
5415.43
5401.92
5388.23
5374.35
5360.27
5346
5331.53
5316.86
5301.98
5286.91
5271.63
5256.16
5240.48
5224.6
5208.51
5192.22
5175.72
5159.03
5142.16
5125.14
5107.96
5090.65
5073.18
5055.54
5037.71
5019.68
5001.46
4983.07
4964.6
4946.11
4927.66
4909.26
4890.9
4872.53
4854.14
4835.7
4817.23
4798.74
4780.25
4761.79
4743.36
4725
4706.71
4688.51
4670.42
4652.44
4634.61
4616.92
4599.38
4582.02
4564.85
4547.87
4531.09
4514.53
4498.19
4482.08
4466.21
4450.59
4435.22
4420.11
4405.25
4390.67
4376.34
4362.28
4348.49
4334.96
4321.7
4308.69
4295.93
4283.42
4271.15
4259.1
4247.29
4235.68
4224.29
4213.1
4202.11
4191.3
4180.67
4170.19
4159.85
4149.63
4139.51
4129.47
4119.47
4109.49
4099.51
4089.5
4079.43
4069.27
4059
4048.61
4038.1
4027.51
4016.9
4006.37
3996.06
3985.91
3975.34
3964.42
3953.23
3941.75
3929.94
3917.79
3905.27
3892.37
3879.07
3865.35
3851.17
3836.54
3821.42
3805.82
3789.75
3773.25
3756.32
3738.98
3721.2
3702.95
3684.11
3664.49
3644.19
3623.27
3601.75
3579.6
3556.8
3533.34
3509.23
3484.44
3458.95
3432.77
3405.87
3378.25
3349.9
3320.82
3291.02
3260.5
3229.12
3196.93
3163.94
3130.12
3095.4
3059.88
3023.51
2986.29
2948.2
2909.24
2869.37
2828.6
2786.91
2744.29
2700.74
2656.25
2610.82
2564.46
2517.16
2468.9
2419.67
2369.45
2318.24
2266.04
2212.87
2158.73
2103.65
2047.63
1990.66
1932.75
1873.87
1814.03
1753.22
1691.47
1628.78
1565.17
1500.66
1435.26
1369
1301.88
1233.94
1165.2
1095.67
1025.4
954.403
882.718
810.377
737.417
663.874
589.788
515.201
440.156
364.696
288.869
212.721
136.302
59.6612
-17.1494
-94.0781
-171.072
-248.076
-325.038
-401.902
-478.613
-555.116
-631.356
-707.277
-782.826
-857.947
-932.587
-1006.69
-1080.21
-1153.1
-1225.29
-1296.75
-1367.42
-1437.26
-1506.22
-1574.26
-1641.34
-1707.42
-1772.45
-1836.41
-1899.25
-1960.95
-2021.47
-2080.78
-2138.86
-2195.68
-2251.22
-2305.45
-2358.35
-2409.92
-2460.12
-2508.95
-2556.4
-2602.45
-2647.1
-2690.34
-2732.16
-2772.56
-2811.54
-2849.09
-2885.22
-2919.93
-2953.23
-2985.11
-3015.58
-3044.66
-3072.35
-3098.66
-3123.59
-3147.15
-3169.38
-3190.27
-3209.85
-3228.12
-3245.1
-3260.81
-3275.26
-3288.47
-3300.46
-3311.25
-3320.85
-3329.29
-3336.57
-3342.73
-3347.78
-3351.74
-3354.64
-3356.48
-3357.29
-3357.09
-3355.9
-3353.74
-3350.62
-3346.57
-3341.6
-3335.73
-3328.98
-3321.37
-3312.92
-3303.65
-3293.57
-3282.7
-3271.06
-3258.66
-3245.53
-3231.68
-3217.13
-3201.89
-3185.99
-3169.44
-3152.27
-3134.48
-3116.1
-3097.14
-3077.63
-3057.58
-3037.01
-3015.95
-2994.4
-2972.41
-2949.97
-2927.12
-2903.87
-2880.25
-2856.28
-2831.98
-2807.37
-2782.48
-2757.32
-2731.93
-2706.32
-2680.52
-2654.55
-2628.44
-2602.21
-2575.88
-2549.48
-2523.04
-2496.57
-2470.11
-2443.67
-2417.29
-2390.98
-2364.76
-2338.67
-2312.73
-2286.96
-2261.38
-2236.01
-2210.88
-2186.01
-2161.41
-2137.12
-2113.14
-2089.5
-2066.22
-2043.31
-2020.8
-1998.69
-1977
-1955.74
-1934.94
-1914.6
-1894.73
-1875.35
-1856.46
-1838.08
-1820.21
-1802.85
-1786.01
-1769.71
-1753.95
-1738.72
-1724.03
-1709.87
-1696.25
-1683.17
-1670.62
-1658.61
-1647.12
-1636.16
-1625.71
-1615.79
-1606.37
-1597.45
-1589.02
-1581.07
-1573.59
-1566.56
-1559.99
-1553.85
-1548.14
-1542.84
-1537.94
-1533.42
-1529.27
-1525.49
-1522.04
-1518.93
-1516.12
-1513.62
-1511.41
-1509.46
-1507.77
-1506.32
-1505.09
-1504.08
-1503.27
-1502.64
-1502.18
-1501.87
-1501.7
-1501.67
-1501.74
-1501.92
-1502.19
-1502.53
-1502.94
-1503.4
-1503.91
-1504.44
-1505
-1505.57
-1506.14
-1506.7
-1507.26
-1507.79
-1508.3
-1508.77
-1509.21
-1509.61
-1509.97
-1510.29
-1510.56
-1510.78
-1510.95
-1511.08
-1511.15
-1511.19
-1511.2
-1511.2
-1511.28
-1511.4
6067.78
6067.44
6066.79
6065.81
6064.5
6062.87
6060.92
6058.64
6056.05
6053.15
6049.94
6046.43
6042.62
6038.53
6034.15
6029.49
6024.56
6019.37
6013.91
6008.19
6002.23
5996.02
5989.57
5982.89
5975.98
5968.86
5961.53
5953.99
5946.26
5938.34
5930.24
5921.97
5913.52
5904.92
5896.17
5887.27
5878.22
5869.03
5859.71
5850.27
5840.73
5831.09
5821.36
5811.55
5801.66
5791.7
5781.69
5771.62
5761.49
5751.3
5741.05
5730.74
5720.38
5709.97
5699.51
5688.99
5678.4
5667.73
5656.96
5646.05
5634.96
5623.68
5612.21
5600.58
5588.83
5577.02
5565.17
5553.32
5541.43
5529.46
5517.37
5505.15
5492.79
5480.29
5467.63
5454.83
5441.85
5428.71
5415.38
5401.88
5388.19
5374.31
5360.24
5345.97
5331.5
5316.83
5301.96
5286.89
5271.62
5256.15
5240.47
5224.59
5208.51
5192.22
5175.73
5159.05
5142.19
5125.17
5108
5090.67
5073.18
5055.53
5037.69
5019.66
5001.45
4983.09
4964.65
4946.19
4927.75
4909.37
4891
4872.62
4854.2
4835.72
4817.19
4798.65
4780.11
4761.61
4743.15
4724.76
4706.46
4688.25
4670.15
4652.17
4634.32
4616.62
4599.08
4581.71
4564.53
4547.54
4530.75
4514.18
4497.84
4481.73
4465.86
4450.23
4434.86
4419.74
4404.89
4390.3
4375.98
4361.92
4348.13
4334.6
4321.33
4308.33
4295.57
4283.07
4270.81
4258.77
4246.97
4235.38
4224.01
4212.83
4201.85
4191.05
4180.41
4169.93
4159.59
4149.36
4139.24
4129.19
4119.19
4109.23
4099.27
4089.29
4079.26
4069.15
4058.94
4048.63
4038.2
4027.68
4017.1
4006.49
3995.85
3985.18
3974.64
3963.83
3952.61
3941.08
3929.26
3917.13
3904.67
3891.87
3878.7
3865.14
3851.19
3836.82
3822.07
3806.87
3791.19
3775
3758.27
3740.93
3722.94
3704.26
3684.94
3665.14
3644.79
3623.82
3602.25
3580.08
3557.27
3533.82
3509.7
3484.91
3459.42
3433.24
3406.35
3378.72
3350.36
3321.24
3291.32
3260.62
3229.2
3196.98
3163.96
3130.11
3095.35
3059.91
3023.58
2986.39
2948.32
2909.36
2869.52
2828.79
2787.15
2744.59
2701.12
2656.7
2611.33
2565
2517.71
2469.44
2420.21
2370
2318.82
2266.68
2213.57
2159.47
2104.4
2048.35
1991.32
1933.33
1874.38
1814.48
1753.64
1691.86
1629.16
1565.55
1501.03
1435.63
1369.35
1302.23
1234.28
1165.52
1095.98
1025.69
954.673
882.969
810.607
737.624
664.058
589.948
515.335
440.262
364.774
288.917
212.738
136.287
59.6139
-17.2303
-94.1932
-171.222
-248.262
-325.26
-402.16
-478.907
-555.447
-631.723
-707.682
-783.267
-858.424
-933.1
-1007.24
-1080.8
-1153.71
-1225.94
-1297.43
-1368.13
-1438
-1506.99
-1575.06
-1642.17
-1708.27
-1773.33
-1837.31
-1900.17
-1961.89
-2022.43
-2081.76
-2139.85
-2196.68
-2252.23
-2306.47
-2359.39
-2410.96
-2461.18
-2510.01
-2557.47
-2603.52
-2648.17
-2691.41
-2733.23
-2773.63
-2812.6
-2850.15
-2886.28
-2920.99
-2954.27
-2986.15
-3016.62
-3045.69
-3073.36
-3099.66
-3124.58
-3148.14
-3170.36
-3191.23
-3210.8
-3229.06
-3246.03
-3261.72
-3276.16
-3289.36
-3301.33
-3312.1
-3321.69
-3330.11
-3337.38
-3343.53
-3348.56
-3352.51
-3355.39
-3357.22
-3358.02
-3357.8
-3356.6
-3354.42
-3351.29
-3347.22
-3342.24
-3336.36
-3329.6
-3321.98
-3313.51
-3304.23
-3294.13
-3283.25
-3271.6
-3259.19
-3246.05
-3232.18
-3217.62
-3202.37
-3186.46
-3169.9
-3152.71
-3134.9
-3116.51
-3097.54
-3078.01
-3057.95
-3037.37
-3016.29
-2994.73
-2972.72
-2950.27
-2927.4
-2904.14
-2880.5
-2856.52
-2832.2
-2807.57
-2782.66
-2757.49
-2732.08
-2706.46
-2680.64
-2654.65
-2628.52
-2602.28
-2575.93
-2549.52
-2523.06
-2496.57
-2470.09
-2443.64
-2417.24
-2390.91
-2364.68
-2338.58
-2312.62
-2286.83
-2261.23
-2235.85
-2210.7
-2185.82
-2161.21
-2136.9
-2112.91
-2089.26
-2065.97
-2043.05
-2020.52
-1998.4
-1976.7
-1955.44
-1934.62
-1914.28
-1894.4
-1875.01
-1856.12
-1837.73
-1819.86
-1802.5
-1785.67
-1769.36
-1753.59
-1738.35
-1723.66
-1709.5
-1695.88
-1682.8
-1670.25
-1658.24
-1646.76
-1635.8
-1625.36
-1615.43
-1606.02
-1597.11
-1588.68
-1580.74
-1573.27
-1566.25
-1559.69
-1553.56
-1547.85
-1542.56
-1537.67
-1533.16
-1529.02
-1525.24
-1521.81
-1518.71
-1515.92
-1513.42
-1511.22
-1509.28
-1507.6
-1506.17
-1504.95
-1503.96
-1503.15
-1502.53
-1502.09
-1501.79
-1501.64
-1501.61
-1501.7
-1501.89
-1502.17
-1502.53
-1502.95
-1503.42
-1503.94
-1504.48
-1505.05
-1505.63
-1506.21
-1506.78
-1507.34
-1507.88
-1508.4
-1508.88
-1509.32
-1509.73
-1510.09
-1510.41
-1510.69
-1510.91
-1511.09
-1511.22
-1511.3
-1511.33
-1511.33
-1511.32
-1511.41
-1511.53
6068.18
6067.85
6067.21
6066.23
6064.92
6063.29
6061.33
6059.04
6056.44
6053.53
6050.31
6046.79
6042.98
6038.88
6034.49
6029.82
6024.88
6019.68
6014.21
6008.48
6002.51
5996.29
5989.83
5983.14
5976.22
5969.08
5961.74
5954.18
5946.44
5938.51
5930.4
5922.12
5913.68
5905.07
5896.31
5887.4
5878.33
5869.12
5859.77
5850.29
5840.7
5831.01
5821.25
5811.44
5801.57
5791.65
5781.67
5771.63
5761.53
5751.35
5741.1
5730.78
5720.39
5709.94
5699.42
5688.84
5678.18
5667.43
5656.59
5645.62
5634.52
5623.28
5611.9
5600.37
5588.73
5577
5565.21
5553.36
5541.45
5529.45
5517.33
5505.1
5492.72
5480.21
5467.54
5454.72
5441.74
5428.58
5415.26
5401.75
5388.06
5374.17
5360.1
5345.83
5331.37
5316.7
5301.83
5286.76
5271.49
5256.02
5240.34
5224.47
5208.39
5192.11
5175.63
5158.97
5142.12
5125.1
5107.91
5090.56
5073.05
5055.38
5037.55
5019.56
5001.41
4983.15
4964.79
4946.39
4927.96
4909.52
4891.06
4872.58
4854.06
4835.52
4816.95
4798.37
4779.81
4761.29
4742.81
4724.4
4706.08
4687.85
4669.73
4651.73
4633.87
4616.16
4598.61
4581.23
4564.04
4547.04
4530.25
4513.67
4497.32
4481.21
4465.33
4449.71
4434.33
4419.22
4404.36
4389.78
4375.45
4361.4
4347.61
4334.09
4320.84
4307.84
4295.1
4282.61
4270.36
4258.34
4246.55
4234.97
4223.61
4212.44
4201.48
4190.7
4180.09
4169.64
4159.34
4149.15
4139.06
4129.04
4119.08
4109.15
4099.22
4089.29
4079.31
4069.28
4059.18
4049
4038.74
4028.41
4018.03
4007.61
3997.17
3986.62
3975.92
3964.98
3953.77
3942.27
3930.47
3918.33
3905.85
3893.01
3879.77
3866.12
3852.04
3837.52
3822.52
3807.06
3791.14
3774.75
3757.88
3740.51
3722.62
3704.17
3685.14
3665.52
3645.29
3624.44
3602.97
3580.85
3558.09
3534.68
3510.61
3485.86
3460.41
3434.27
3407.41
3379.83
3351.5
3322.43
3292.6
3261.97
3230.56
3198.37
3165.36
3131.55
3097.02
3061.57
3025.14
2987.9
2949.8
2910.83
2870.97
2830.21
2788.54
2745.95
2702.43
2657.97
2612.56
2566.21
2518.9
2470.64
2421.4
2371.19
2320.01
2267.84
2214.69
2160.57
2105.48
2049.42
1992.39
1934.4
1875.45
1815.53
1754.67
1692.86
1630.13
1566.47
1501.9
1436.45
1370.13
1302.95
1234.94
1166.12
1096.52
1026.16
955.082
883.31
810.879
737.825
664.186
590.001
515.312
440.163
364.597
288.662
212.405
135.875
59.123
-17.8002
-94.8417
-171.948
-249.066
-326.14
-403.116
-479.938
-556.551
-632.9
-708.928
-784.581
-859.806
-934.547
-1008.75
-1082.37
-1155.34
-1227.62
-1299.16
-1369.92
-1439.83
-1508.87
-1576.98
-1644.13
-1710.27
-1775.37
-1839.38
-1902.27
-1964.02
-2024.58
-2083.93
-2142.05
-2198.9
-2254.46
-2308.71
-2361.64
-2413.22
-2463.44
-2512.28
-2559.73
-2605.79
-2650.43
-2693.67
-2735.48
-2775.87
-2814.83
-2852.37
-2888.49
-2923.18
-2956.45
-2988.3
-3018.75
-3047.8
-3075.46
-3101.73
-3126.63
-3150.17
-3172.36
-3193.21
-3212.74
-3230.98
-3247.92
-3263.58
-3277.99
-3291.16
-3303.11
-3313.85
-3323.41
-3331.8
-3339.04
-3345.16
-3350.16
-3354.08
-3356.92
-3358.72
-3359.49
-3359.24
-3358.01
-3355.8
-3352.64
-3348.54
-3343.53
-3337.62
-3330.83
-3323.19
-3314.7
-3305.38
-3295.26
-3284.35
-3272.67
-3260.24
-3247.07
-3233.18
-3218.59
-3203.32
-3187.38
-3170.79
-3153.58
-3135.75
-3117.33
-3098.33
-3078.78
-3058.69
-3038.08
-3016.97
-2995.39
-2973.34
-2950.86
-2927.97
-2904.67
-2881.01
-2856.99
-2832.64
-2807.98
-2783.04
-2757.84
-2732.4
-2706.74
-2680.89
-2654.87
-2628.7
-2602.42
-2576.04
-2549.6
-2523.1
-2496.58
-2470.07
-2443.58
-2417.14
-2390.78
-2364.52
-2338.38
-2312.39
-2286.57
-2260.94
-2235.53
-2210.35
-2185.44
-2160.8
-2136.46
-2112.45
-2088.77
-2065.45
-2042.51
-2019.95
-1997.81
-1976.09
-1954.81
-1933.98
-1913.62
-1893.73
-1874.32
-1855.42
-1837.02
-1819.13
-1801.76
-1784.92
-1768.6
-1752.83
-1737.6
-1722.9
-1708.74
-1695.13
-1682.05
-1669.51
-1657.5
-1646.03
-1635.08
-1624.65
-1614.73
-1605.33
-1596.42
-1588
-1580.07
-1572.61
-1565.62
-1559.07
-1552.96
-1547.27
-1542
-1537.12
-1532.64
-1528.52
-1524.77
-1521.35
-1518.27
-1515.5
-1513.04
-1510.85
-1508.94
-1507.29
-1505.87
-1504.69
-1503.71
-1502.93
-1502.34
-1501.91
-1501.64
-1501.51
-1501.51
-1501.62
-1501.83
-1502.13
-1502.51
-1502.95
-1503.44
-1503.98
-1504.54
-1505.13
-1505.72
-1506.32
-1506.91
-1507.48
-1508.03
-1508.56
-1509.06
-1509.51
-1509.93
-1510.3
-1510.63
-1510.9
-1511.14
-1511.32
-1511.45
-1511.53
-1511.56
-1511.56
-1511.55
-1511.65
-1511.78
6068.7
6068.37
6067.73
6066.75
6065.44
6063.8
6061.83
6059.54
6056.94
6054.02
6050.79
6047.27
6043.45
6039.34
6034.94
6030.27
6025.32
6020.11
6014.64
6008.9
6002.92
5996.69
5990.22
5983.52
5976.59
5969.44
5962.08
5954.52
5946.76
5938.81
5930.68
5922.37
5913.91
5905.31
5896.54
5887.61
5878.54
5869.33
5859.98
5850.5
5840.91
5831.22
5821.44
5811.59
5801.69
5791.74
5781.73
5771.67
5761.54
5751.34
5741.07
5730.73
5720.33
5709.86
5699.33
5688.72
5678.03
5667.25
5656.37
5645.37
5634.26
5623.02
5611.66
5600.17
5588.59
5576.91
5565.15
5553.32
5541.4
5529.39
5517.26
5505.01
5492.62
5480.09
5467.42
5454.59
5441.6
5428.44
5415.1
5401.59
5387.89
5374
5359.92
5345.65
5331.18
5316.51
5301.64
5286.57
5271.3
5255.82
5240.14
5224.26
5208.18
5191.9
5175.43
5158.77
5141.92
5124.9
5107.7
5090.33
5072.8
5055.1
5037.25
5019.26
5001.14
4982.93
4964.64
4946.29
4927.91
4909.49
4891.03
4872.53
4853.97
4835.37
4816.75
4798.12
4779.51
4760.94
4742.42
4723.98
4705.62
4687.36
4669.21
4651.18
4633.29
4615.55
4597.98
4580.58
4563.36
4546.35
4529.54
4512.95
4496.58
4480.45
4464.57
4448.93
4433.55
4418.42
4403.57
4388.98
4374.65
4360.6
4346.82
4333.31
4320.06
4307.07
4294.34
4281.86
4269.63
4257.63
4245.86
4234.31
4222.97
4211.84
4200.9
4190.14
4179.55
4169.12
4158.83
4148.66
4138.59
4128.59
4118.66
4108.76
4098.87
4088.97
4079.05
4069.08
4059.05
4048.95
4038.77
4028.51
4018.18
4007.77
3997.28
3986.68
3975.95
3965.01
3953.8
3942.31
3930.53
3918.44
3906.02
3893.25
3880.1
3866.56
3852.61
3838.24
3823.43
3808.18
3792.47
3776.26
3759.5
3742.19
3724.29
3705.79
3686.7
3667.01
3646.74
3625.87
3604.37
3582.24
3559.49
3536.08
3512.02
3487.27
3461.84
3435.7
3408.86
3381.28
3352.97
3323.91
3294.08
3263.47
3232.08
3199.89
3166.9
3133.09
3098.49
3062.96
3026.71
2989.54
2951.5
2912.56
2872.73
2832
2790.36
2747.79
2704.3
2659.87
2614.5
2568.17
2520.88
2472.63
2423.4
2373.19
2322
2269.83
2216.68
2162.55
2107.44
2051.36
1994.29
1936.25
1877.24
1817.27
1756.35
1694.48
1631.67
1567.95
1503.31
1437.78
1371.38
1304.11
1236.02
1167.11
1097.41
1026.96
955.782
883.906
811.368
738.204
664.452
590.153
515.347
440.079
364.393
288.337
211.958
135.305
58.43
-18.6158
-95.7796
-173.008
-250.246
-327.439
-404.533
-481.471
-558.197
-634.656
-710.793
-786.553
-861.879
-936.72
-1011.02
-1084.73
-1157.79
-1230.16
-1301.78
-1372.61
-1442.6
-1511.71
-1579.89
-1647.1
-1713.29
-1778.44
-1842.5
-1905.44
-1967.23
-2027.83
-2087.21
-2145.36
-2202.23
-2257.81
-2312.09
-2365.03
-2416.62
-2466.84
-2515.69
-2563.14
-2609.19
-2653.83
-2697.06
-2738.86
-2779.23
-2818.18
-2855.7
-2891.79
-2926.46
-2959.71
-2991.53
-3021.95
-3050.97
-3078.59
-3104.83
-3129.7
-3153.2
-3175.35
-3196.16
-3215.66
-3233.85
-3250.75
-3266.37
-3280.74
-3293.86
-3305.76
-3316.46
-3325.97
-3334.32
-3341.51
-3347.58
-3352.54
-3356.41
-3359.21
-3360.96
-3361.69
-3361.4
-3360.12
-3357.86
-3354.66
-3350.52
-3345.47
-3339.52
-3332.69
-3325
-3316.47
-3307.12
-3296.96
-3286.02
-3274.3
-3261.83
-3248.62
-3234.69
-3220.07
-3204.75
-3188.78
-3172.15
-3154.89
-3137.03
-3118.56
-3099.53
-3079.93
-3059.8
-3039.15
-3018
-2996.37
-2974.28
-2951.76
-2928.82
-2905.48
-2881.77
-2857.7
-2833.3
-2808.6
-2783.61
-2758.35
-2732.86
-2707.15
-2681.25
-2655.18
-2628.97
-2602.63
-2576.2
-2549.7
-2523.16
-2496.59
-2470.02
-2443.48
-2416.99
-2390.58
-2364.27
-2338.08
-2312.04
-2286.17
-2260.5
-2235.04
-2209.82
-2184.86
-2160.18
-2135.8
-2111.74
-2088.03
-2064.67
-2041.69
-2019.11
-1996.93
-1975.18
-1953.87
-1933.02
-1912.63
-1892.71
-1873.29
-1854.37
-1835.95
-1818.05
-1800.67
-1783.82
-1767.51
-1751.73
-1736.48
-1721.78
-1707.63
-1694.01
-1680.94
-1668.4
-1656.4
-1644.94
-1634
-1623.59
-1613.69
-1604.3
-1595.42
-1587.03
-1579.12
-1571.68
-1564.71
-1558.18
-1552.1
-1546.44
-1541.19
-1536.35
-1531.89
-1527.81
-1524.08
-1520.7
-1517.65
-1514.92
-1512.48
-1510.34
-1508.46
-1506.84
-1505.46
-1504.3
-1503.36
-1502.62
-1502.06
-1501.67
-1501.43
-1501.33
-1501.36
-1501.5
-1501.75
-1502.08
-1502.49
-1502.96
-1503.48
-1504.04
-1504.63
-1505.24
-1505.86
-1506.48
-1507.09
-1507.69
-1508.26
-1508.8
-1509.31
-1509.79
-1510.21
-1510.6
-1510.93
-1511.22
-1511.46
-1511.65
-1511.78
-1511.86
-1511.89
-1511.89
-1511.89
-1511.99
-1512.13
6069.37
6069.04
6068.4
6067.42
6066.11
6064.46
6062.5
6060.21
6057.6
6054.68
6051.46
6047.93
6044.11
6040
6035.6
6030.93
6025.98
6020.76
6015.27
6009.53
6003.54
5997.3
5990.82
5984.11
5977.17
5970
5962.63
5955.05
5947.28
5939.32
5931.18
5922.87
5914.41
5905.75
5896.95
5888
5878.9
5869.66
5860.29
5850.79
5841.19
5831.49
5821.71
5811.87
5801.96
5791.99
5781.96
5771.87
5761.7
5751.47
5741.17
5730.8
5720.37
5709.87
5699.3
5688.65
5677.93
5667.12
5656.21
5645.2
5634.08
5622.84
5611.49
5600.02
5588.46
5576.81
5565.07
5553.24
5541.32
5529.3
5517.17
5504.91
5492.51
5479.98
5467.3
5454.46
5441.46
5428.3
5414.95
5401.44
5387.73
5373.84
5359.76
5345.48
5331.01
5316.34
5301.46
5286.38
5271.1
5255.62
5239.93
5224.05
5207.96
5191.67
5175.19
5158.52
5141.67
5124.64
5107.43
5090.06
5072.52
5054.82
5036.97
5018.99
5000.87
4982.66
4964.36
4946
4927.58
4909.11
4890.61
4872.05
4853.46
4834.84
4816.19
4797.55
4778.92
4760.33
4741.79
4723.31
4704.92
4686.63
4668.45
4650.39
4632.47
4614.71
4597.11
4579.68
4562.44
4545.4
4528.57
4511.97
4495.58
4479.44
4463.54
4447.9
4432.51
4417.38
4402.52
4387.93
4373.61
4359.57
4345.79
4332.29
4319.06
4306.09
4293.38
4280.93
4268.72
4256.75
4245.01
4233.5
4222.2
4211.11
4200.21
4189.5
4178.96
4168.57
4158.33
4148.21
4138.19
4128.26
4118.38
4108.54
4098.72
4088.9
4079.06
4069.18
4059.25
4049.26
4039.19
4029.05
4018.83
4008.52
3998.11
3987.57
3976.86
3965.93
3954.76
3943.32
3931.58
3919.52
3907.13
3894.38
3881.25
3867.72
3853.77
3839.39
3824.56
3809.27
3793.49
3777.2
3760.41
3743.09
3725.22
3706.8
3687.81
3668.24
3648.07
3627.29
3605.88
3583.84
3561.15
3537.81
3513.81
3489.12
3463.74
3437.65
3410.85
3383.32
3355.05
3326.03
3296.24
3265.68
3234.33
3202.18
3169.23
3135.46
3100.86
3065.39
3029.1
2991.95
2953.92
2915
2875.19
2834.47
2792.84
2750.29
2706.81
2662.39
2617.02
2570.69
2523.4
2475.15
2425.92
2375.71
2324.52
2272.35
2219.19
2165.04
2109.91
2053.79
1996.7
1938.62
1879.56
1819.54
1758.55
1696.61
1633.73
1569.91
1505.19
1439.56
1373.05
1305.68
1237.47
1168.44
1098.62
1028.03
956.72
884.705
812.024
738.714
664.813
590.361
515.4
439.974
364.128
287.91
211.368
134.553
57.5139
-19.6955
-97.0224
-174.413
-251.812
-329.164
-406.415
-483.507
-560.386
-636.994
-713.276
-789.177
-864.642
-939.616
-1014.05
-1087.88
-1161.06
-1233.54
-1305.28
-1376.21
-1446.3
-1515.5
-1583.77
-1651.06
-1717.33
-1782.55
-1846.68
-1909.68
-1971.52
-2032.17
-2091.6
-2149.78
-2206.69
-2262.3
-2316.6
-2369.55
-2421.16
-2471.39
-2520.24
-2567.69
-2613.74
-2658.38
-2701.59
-2743.37
-2783.73
-2822.66
-2860.15
-2896.21
-2930.85
-2964.06
-2995.85
-3026.23
-3055.21
-3082.79
-3108.98
-3133.8
-3157.25
-3179.35
-3200.11
-3219.55
-3237.69
-3254.53
-3270.1
-3284.4
-3297.47
-3309.31
-3319.95
-3329.4
-3337.69
-3344.82
-3350.83
-3355.73
-3359.54
-3362.28
-3363.97
-3364.63
-3364.28
-3362.94
-3360.63
-3357.37
-3353.17
-3348.06
-3342.05
-3335.17
-3327.43
-3318.85
-3309.44
-3299.23
-3288.23
-3276.46
-3263.94
-3250.68
-3236.7
-3222.03
-3206.66
-3190.63
-3173.96
-3156.65
-3138.73
-3120.21
-3101.12
-3081.47
-3061.28
-3040.58
-3019.37
-2997.68
-2975.54
-2952.95
-2929.95
-2906.55
-2882.78
-2858.65
-2834.19
-2809.42
-2784.36
-2759.05
-2733.49
-2707.71
-2681.74
-2655.6
-2629.32
-2602.92
-2576.42
-2549.85
-2523.24
-2496.6
-2469.96
-2443.35
-2416.8
-2390.32
-2363.94
-2337.69
-2311.58
-2285.65
-2259.91
-2234.39
-2209.11
-2184.09
-2159.35
-2134.92
-2110.81
-2087.04
-2063.63
-2040.61
-2017.98
-1995.76
-1973.97
-1952.62
-1931.73
-1911.31
-1891.37
-1871.92
-1852.97
-1834.53
-1816.61
-1799.22
-1782.35
-1766.03
-1750.24
-1734.99
-1720.28
-1706.13
-1692.52
-1679.45
-1666.92
-1654.94
-1643.48
-1632.56
-1622.17
-1612.29
-1602.92
-1594.06
-1585.7
-1577.81
-1570.41
-1563.47
-1556.98
-1550.93
-1545.31
-1540.1
-1535.3
-1530.88
-1526.84
-1523.16
-1519.82
-1516.82
-1514.13
-1511.74
-1509.64
-1507.81
-1506.23
-1504.9
-1503.8
-1502.9
-1502.2
-1501.69
-1501.34
-1501.15
-1501.1
-1501.17
-1501.36
-1501.65
-1502.02
-1502.47
-1502.98
-1503.54
-1504.14
-1504.76
-1505.41
-1506.06
-1506.71
-1507.35
-1507.97
-1508.57
-1509.14
-1509.67
-1510.16
-1510.61
-1511
-1511.35
-1511.65
-1511.9
-1512.09
-1512.23
-1512.31
-1512.35
-1512.35
-1512.35
-1512.45
-1512.6
6070.23
6069.9
6069.25
6068.27
6066.96
6065.32
6063.35
6061.07
6058.46
6055.55
6052.33
6048.8
6044.98
6040.87
6036.47
6031.79
6026.84
6021.61
6016.12
6010.37
6004.36
5998.11
5991.61
5984.88
5977.92
5970.74
5963.35
5955.75
5947.96
5939.97
5931.8
5923.46
5914.92
5906.28
5897.47
5888.5
5879.38
5870.13
5860.75
5851.24
5841.63
5831.92
5822.12
5812.24
5802.29
5792.28
5782.21
5772.07
5761.86
5751.59
5741.25
5730.85
5720.38
5709.85
5699.25
5688.57
5677.82
5666.98
5656.05
5645.03
5633.9
5622.66
5611.31
5599.86
5588.32
5576.68
5564.95
5553.13
5541.21
5529.18
5517.04
5504.77
5492.37
5479.83
5467.14
5454.3
5441.29
5428.12
5414.77
5401.25
5387.54
5373.64
5359.55
5345.27
5330.79
5316.11
5301.23
5286.15
5270.86
5255.37
5239.68
5223.78
5207.68
5191.39
5174.9
5158.22
5141.36
5124.32
5107.09
5089.7
5072.15
5054.43
5036.57
5018.58
5000.47
4982.25
4963.95
4945.59
4927.16
4908.68
4890.15
4871.57
4852.95
4834.29
4815.61
4796.92
4778.25
4759.61
4741.03
4722.51
4704.08
4685.74
4667.52
4649.42
4631.46
4613.66
4596.02
4578.56
4561.29
4544.23
4527.37
4510.74
4494.34
4478.18
4462.26
4446.6
4431.21
4416.07
4401.21
4386.62
4372.31
4358.27
4344.5
4331.01
4317.8
4304.85
4292.16
4279.74
4267.56
4255.63
4243.93
4232.46
4221.21
4210.16
4199.31
4188.65
4178.16
4167.82
4157.63
4147.56
4137.59
4127.71
4117.89
4108.11
4098.36
4088.62
4078.86
4069.07
4059.23
4049.33
4039.36
4029.31
4019.18
4008.94
3998.58
3988.08
3977.4
3966.52
3955.39
3943.99
3932.31
3920.31
3907.98
3895.29
3882.24
3868.79
3854.93
3840.65
3825.91
3810.72
3795.06
3778.9
3762.22
3745
3727.22
3708.86
3689.91
3670.37
3650.22
3629.46
3608.08
3586.07
3563.41
3540.1
3516.13
3491.48
3466.13
3440.09
3413.32
3385.83
3357.6
3328.62
3298.87
3268.34
3237.03
3204.92
3172.01
3138.27
3103.71
3068.29
3032.04
2994.92
2956.92
2918.04
2878.25
2837.57
2795.96
2753.43
2709.97
2665.57
2620.21
2573.9
2526.62
2478.37
2429.14
2378.93
2327.73
2275.54
2222.36
2168.19
2113.02
2056.86
1999.71
1941.58
1882.46
1822.36
1761.29
1699.26
1636.27
1572.36
1507.51
1441.76
1375.12
1307.62
1239.26
1170.08
1100.11
1029.37
957.883
885.696
812.837
739.345
665.257
590.614
515.459
439.836
363.791
287.372
210.627
133.608
56.3651
-21.0483
-98.5786
-176.171
-253.771
-331.322
-408.769
-486.054
-563.122
-639.916
-716.38
-792.458
-868.095
-943.236
-1017.83
-1091.81
-1165.15
-1237.77
-1309.64
-1380.71
-1450.92
-1520.24
-1588.62
-1656.01
-1722.38
-1787.69
-1851.9
-1914.98
-1976.88
-2037.59
-2097.08
-2155.31
-2212.26
-2267.91
-2322.23
-2375.21
-2426.83
-2477.08
-2525.93
-2573.39
-2619.43
-2664.05
-2707.25
-2749.02
-2789.35
-2828.25
-2865.71
-2901.74
-2936.33
-2969.5
-3001.25
-3031.58
-3060.5
-3088.03
-3114.16
-3138.92
-3162.31
-3184.34
-3205.04
-3224.42
-3242.48
-3259.25
-3274.75
-3288.98
-3301.98
-3313.74
-3324.31
-3333.68
-3341.89
-3348.95
-3354.88
-3359.7
-3363.44
-3366.1
-3367.71
-3368.3
-3367.88
-3366.46
-3364.08
-3360.74
-3356.48
-3351.3
-3345.22
-3338.27
-3330.46
-3321.82
-3312.35
-3302.07
-3291.01
-3279.17
-3266.59
-3253.26
-3239.22
-3224.48
-3209.05
-3192.96
-3176.22
-3158.84
-3140.85
-3122.27
-3103.11
-3083.39
-3063.14
-3042.36
-3021.08
-2999.32
-2977.11
-2954.45
-2931.37
-2907.89
-2884.04
-2859.84
-2835.3
-2810.45
-2785.31
-2759.91
-2734.27
-2708.41
-2682.36
-2656.13
-2629.77
-2603.28
-2576.69
-2550.04
-2523.33
-2496.61
-2469.89
-2443.2
-2416.56
-2389.99
-2363.53
-2337.19
-2311.01
-2284.99
-2259.17
-2233.57
-2208.22
-2183.12
-2158.32
-2133.81
-2109.64
-2085.8
-2062.34
-2039.25
-2016.56
-1994.29
-1972.45
-1951.06
-1930.12
-1909.66
-1889.68
-1870.19
-1851.21
-1832.75
-1814.8
-1797.39
-1780.51
-1764.17
-1748.37
-1733.11
-1718.41
-1704.25
-1690.65
-1677.58
-1665.07
-1653.1
-1641.66
-1630.76
-1620.39
-1610.54
-1601.2
-1592.37
-1584.04
-1576.2
-1568.83
-1561.93
-1555.48
-1549.48
-1543.9
-1538.75
-1533.99
-1529.63
-1525.64
-1522.01
-1518.73
-1515.78
-1513.15
-1510.82
-1508.77
-1507
-1505.48
-1504.21
-1503.16
-1502.32
-1501.68
-1501.23
-1500.94
-1500.8
-1500.8
-1500.93
-1501.17
-1501.51
-1501.94
-1502.44
-1503
-1503.61
-1504.25
-1504.93
-1505.61
-1506.31
-1507
-1507.67
-1508.33
-1508.96
-1509.56
-1510.12
-1510.63
-1511.1
-1511.52
-1511.88
-1512.19
-1512.45
-1512.66
-1512.8
-1512.89
-1512.93
-1512.93
-1512.93
-1513.04
-1513.19
6071.28
6070.95
6070.3
6069.32
6068.01
6066.37
6064.41
6062.13
6059.53
6056.62
6053.4
6049.88
6046.06
6041.95
6037.54
6032.86
6027.89
6022.66
6017.15
6011.38
6005.36
5999.09
5992.57
5985.82
5978.84
5971.64
5964.22
5956.6
5948.78
5940.77
5932.57
5924.2
5915.68
5906.96
5898.11
5889.1
5879.96
5870.68
5861.27
5851.74
5842.11
5832.37
5822.55
5812.64
5802.66
5792.61
5782.49
5772.31
5762.06
5751.75
5741.37
5730.93
5720.42
5709.85
5699.21
5688.5
5677.72
5666.85
5655.9
5644.85
5633.71
5622.47
5611.12
5599.68
5588.14
5576.51
5564.79
5552.97
5541.04
5529.01
5516.87
5504.59
5492.19
5479.64
5466.95
5454.1
5441.08
5427.91
5414.56
5401.03
5387.31
5373.41
5359.32
5345.03
5330.55
5315.86
5300.97
5285.88
5270.58
5255.09
5239.38
5223.48
5207.37
5191.06
5174.56
5157.87
5141
5123.94
5106.7
5089.29
5071.72
5054
5036.13
5018.12
5000
4981.77
4963.45
4945.05
4926.59
4908.06
4889.48
4870.85
4852.18
4833.48
4814.75
4796.03
4777.32
4758.65
4740.02
4721.46
4702.99
4684.61
4666.34
4648.21
4630.21
4612.37
4594.69
4577.2
4559.89
4542.8
4525.91
4509.25
4492.83
4476.65
4460.72
4445.05
4429.64
4414.5
4399.64
4385.05
4370.74
4356.71
4342.96
4329.49
4316.3
4303.38
4290.72
4278.33
4266.2
4254.31
4242.66
4231.24
4220.04
4209.06
4198.27
4187.67
4177.25
4166.98
4156.86
4146.86
4136.97
4127.17
4117.44
4107.76
4098.1
4088.46
4078.8
4069.12
4059.39
4049.61
4039.76
4029.82
4019.79
4009.65
3999.38
3988.95
3978.35
3967.53
3956.47
3945.14
3933.53
3921.6
3909.34
3896.72
3883.73
3870.34
3856.54
3842.31
3827.64
3812.49
3796.87
3780.74
3764.09
3746.9
3729.17
3710.87
3691.99
3672.52
3652.46
3631.79
3610.49
3588.56
3565.98
3542.75
3518.84
3494.26
3468.98
3442.99
3416.29
3388.85
3360.68
3331.75
3302.05
3271.58
3240.32
3208.27
3175.4
3141.71
3107.19
3071.82
3035.6
2998.52
2960.56
2921.71
2881.96
2841.3
2799.72
2757.22
2713.78
2669.39
2624.05
2577.75
2530.48
2482.23
2433
2382.77
2331.56
2279.35
2226.14
2171.93
2116.72
2060.51
2003.3
1945.1
1885.9
1825.71
1764.54
1702.41
1639.31
1575.26
1510.29
1444.39
1377.6
1309.93
1241.41
1172.05
1101.89
1030.95
959.271
886.877
813.806
740.095
665.784
590.913
515.525
439.666
363.382
286.722
209.734
132.47
54.9829
-22.6751
-100.449
-178.284
-256.125
-333.914
-411.596
-489.113
-566.408
-643.425
-720.107
-796.398
-872.241
-947.582
-1022.37
-1096.54
-1170.05
-1242.85
-1314.89
-1386.11
-1456.47
-1525.93
-1594.44
-1661.96
-1728.44
-1793.86
-1858.17
-1921.33
-1983.33
-2044.11
-2103.66
-2161.95
-2218.95
-2274.64
-2329
-2382.01
-2433.65
-2483.91
-2532.77
-2580.22
-2626.26
-2670.87
-2714.05
-2755.8
-2796.1
-2834.96
-2872.39
-2908.37
-2942.92
-2976.03
-3007.72
-3038
-3066.86
-3094.31
-3120.38
-3145.06
-3168.38
-3190.34
-3210.96
-3230.25
-3248.23
-3264.92
-3280.33
-3294.48
-3307.38
-3319.06
-3329.53
-3338.82
-3346.93
-3353.9
-3359.74
-3364.47
-3368.11
-3370.68
-3372.21
-3372.7
-3372.19
-3370.69
-3368.22
-3364.8
-3360.45
-3355.18
-3349.03
-3341.99
-3334.1
-3325.38
-3315.83
-3305.47
-3294.33
-3282.42
-3269.76
-3256.36
-3242.24
-3227.42
-3211.92
-3195.75
-3178.93
-3161.48
-3143.41
-3124.75
-3105.5
-3085.7
-3065.36
-3044.5
-3023.14
-3001.3
-2978.99
-2956.24
-2933.07
-2909.51
-2885.56
-2861.26
-2836.63
-2811.68
-2786.45
-2760.95
-2735.21
-2709.25
-2683.09
-2656.77
-2630.3
-2603.71
-2577.02
-2550.26
-2523.45
-2496.63
-2469.8
-2443
-2416.26
-2389.6
-2363.03
-2336.6
-2310.31
-2284.2
-2258.29
-2232.6
-2207.15
-2181.97
-2157.07
-2132.48
-2108.23
-2084.32
-2060.77
-2037.62
-2014.86
-1992.52
-1970.62
-1949.17
-1928.18
-1907.67
-1887.64
-1868.12
-1849.1
-1830.6
-1812.63
-1795.19
-1778.29
-1761.93
-1746.12
-1730.86
-1716.15
-1702
-1688.39
-1675.34
-1662.84
-1650.88
-1639.47
-1628.59
-1618.25
-1608.43
-1599.13
-1590.34
-1582.05
-1574.24
-1566.92
-1560.07
-1553.68
-1547.73
-1542.21
-1537.11
-1532.42
-1528.11
-1524.19
-1520.63
-1517.41
-1514.53
-1511.97
-1509.7
-1507.73
-1506.02
-1504.58
-1503.37
-1502.39
-1501.63
-1501.06
-1500.67
-1500.45
-1500.38
-1500.45
-1500.65
-1500.95
-1501.36
-1501.85
-1502.41
-1503.03
-1503.7
-1504.4
-1505.12
-1505.87
-1506.61
-1507.35
-1508.07
-1508.77
-1509.44
-1510.07
-1510.66
-1511.2
-1511.7
-1512.14
-1512.52
-1512.85
-1513.13
-1513.34
-1513.5
-1513.59
-1513.63
-1513.64
-1513.64