/*--------------------------------*- C++ -*----------------------------------*\
| =========                 |                                                 |
| \\      /  F ield         | OpenFOAM: The Open Source CFD Toolbox           |
|  \\    /   O peration     | Version:  v2006                                 |
|   \\  /    A nd           | Website:  www.openfoam.com                      |
|    \\/     M anipulation  |                                                 |
\*---------------------------------------------------------------------------*/
FoamFile
{
    version     2.0;
    format      ascii;
    class       surfaceScalarField;
    location    "7.8";
    object      phi;
}
// * * * * * * * * * * * * * * * * * * * * * * * * * * * * * * * * * * * * * //

dimensions      [0 3 -1 0 0 0 0];
oriented        oriented;


internalField   nonuniform List<scalar> 
299200
(
-6.44317e-05
6.44317e-05
-2.09629e-05
-4.34688e-05
2.67862e-05
-4.77491e-05
6.17456e-05
-3.49594e-05
9.46381e-05
-3.28925e-05
0.000126924
-3.22863e-05
0.000159507
-3.25827e-05
0.000192896
-3.3389e-05
0.000227293
-3.43972e-05
0.000262843
-3.55494e-05
0.000299682
-3.68389e-05
0.000338008
-3.83267e-05
0.000378391
-4.03829e-05
0.000421339
-4.29472e-05
0.000467463
-4.61249e-05
0.000517423
-4.99598e-05
0.000571627
-5.42041e-05
0.000630937
-5.93093e-05
0.000695897
-6.49598e-05
0.000766846
-7.09495e-05
0.000844397
-7.7551e-05
0.00092902
-8.4623e-05
0.00102101
-9.19856e-05
0.00112078
-9.97763e-05
0.00122854
-0.00010776
0.00134461
-0.000116064
0.00146905
-0.000124443
0.00160191
-0.000132866
0.00174322
-0.000141311
0.00189307
-0.000149842
0.00205165
-0.00015858
0.00221931
-0.000167667
0.00239701
-0.000177691
0.00258639
-0.000189385
0.00278908
-0.000202687
0.00300681
-0.000217736
0.00324076
-0.000233942
0.00349079
-0.000250033
0.00375523
-0.000264437
0.00403212
-0.000276894
0.00432068
-0.000288558
0.00461814
-0.000297466
0.00492366
-0.00030552
0.00523758
-0.000313917
0.0055614
-0.000323822
0.0058963
-0.000334898
0.00624026
-0.000343963
0.00659685
-0.000356591
0.00696639
-0.00036954
0.00734738
-0.000380988
0.00773705
-0.000389672
0.00813236
-0.000395305
0.00853125
-0.000398892
0.00893375
-0.000402497
0.00934278
-0.000409036
0.00976427
-0.000421485
0.0102062
-0.000441979
0.0106799
-0.000473612
0.0111988
-0.000518906
0.0117764
-0.000577603
0.0124211
-0.000644776
0.0131323
-0.000711139
0.0138976
-0.000765282
0.0146928
-0.000795192
0.0154865
-0.000793728
0.0162507
-0.000764208
0.016968
-0.000717288
0.0176353
-0.00066732
0.018262
-0.000626724
0.0188633
-0.000601308
0.0194521
-0.00058872
0.0200359
-0.000583814
0.0206187
-0.000582811
0.0212026
-0.000583963
0.0217899
-0.000587306
0.0223828
-0.000592899
0.0229834
-0.000600588
0.0235932
-0.000609772
0.024213
-0.000619748
0.024843
-0.000630007
0.0254832
-0.000640243
0.0261334
-0.000650232
0.0267932
-0.000659798
0.027462
-0.000668755
0.0281389
-0.000676899
0.0288229
-0.000684
0.0295127
-0.000689833
0.030207
-0.000694309
0.0309046
-0.000697569
0.0316046
-0.00069998
0.0323066
-0.000701994
0.0330104
-0.000703871
0.0337158
-0.000705348
0.0344212
-0.00070544
0.0351238
-0.000702612
0.0358193
-0.00069546
0.0365029
-0.000683591
0.0371712
-0.000668309
0.0378239
-0.000652686
0.0384646
-0.000640757
0.0391006
-0.000635928
0.0397397
-0.000639139
0.040387
-0.00064733
0.0410398
-0.000652796
0.0416843
-0.000644414
0.0422958
-0.000611541
0.042846
-0.000550163
0.0433136
-0.000467656
0.043695
-0.000381356
0.0440057
-0.000310763
0.0442749
-0.000269176
0.0445338
-0.000258846
0.0448069
-0.00027311
0.045109
-0.000302175
0.0454468
-0.000337764
0.0458217
-0.000374863
0.046233
-0.000411368
0.0466796
-0.00044655
0.0471595
-0.000479945
0.0476708
-0.000511265
0.048211
-0.000540227
0.0487776
-0.000566591
0.0493678
-0.000590194
0.0499788
-0.000610967
0.0506077
-0.00062894
0.0512519
-0.000644229
0.0519089
-0.000657003
0.0525764
-0.00066746
0.0532522
-0.000675821
0.0539345
-0.000682309
0.0546217
-0.000687157
0.0553123
-0.000690592
0.0560051
-0.000692839
0.0566992
-0.00069411
0.0573938
-0.000694596
0.0580883
-0.000694468
0.0587822
-0.000693862
0.059475
-0.000692876
0.0601666
-0.000691579
0.0608566
-0.000690015
0.0615449
-0.000688223
0.0622311
-0.000686245
0.0629152
-0.000684135
0.0635972
-0.000681953
0.0642769
-0.000679762
0.0649546
-0.000677607
0.0656301
-0.000675506
0.0663035
-0.000673416
0.0669747
-0.000671235
0.0676435
-0.000668818
0.0683095
-0.000666012
0.0689722
-0.000662695
0.069631
-0.000658806
0.0702854
-0.000654385
0.070935
-0.000649587
0.0715797
-0.000644642
0.0722194
-0.00063978
0.0728546
-0.000635194
0.0734857
-0.000631037
0.0741131
-0.000627425
0.0747375
-0.00062442
0.0753596
-0.000622056
0.0759799
-0.000620372
0.0765993
-0.000619386
0.0772183
-0.000618928
0.0778366
-0.00061836
0.0784528
-0.000616233
0.0790628
-0.000609979
0.0796585
-0.00059572
0.0802269
-0.000568346
0.0807488
-0.000521894
0.081199
-0.000450182
0.0815469
-0.000347888
0.0817609
-0.000214032
0.0818273
-6.64575e-05
0.0817669
6.04265e-05
0.0816341
0.00013283
0.0814593
0.000174745
0.0812435
0.000215817
0.0809806
0.000262914
0.0806673
0.000313291
0.0803038
0.000363503
0.0798925
0.000411303
0.0794376
0.000454931
0.0789454
0.000492212
0.0784255
0.000519834
0.0778923
0.000533234
0.077364
0.000528292
0.0768582
0.000505833
0.076395
0.000463165
0.0759956
0.000399373
0.0756784
0.000317243
0.0754545
0.000223905
0.0753243
0.000130179
0.0752758
4.84759e-05
0.075291
-1.5167e-05
0.0753552
-6.41673e-05
0.0754501
-9.48767e-05
0.0755677
-0.000117623
0.0757009
-0.000133236
0.0758445
-0.000143555
0.0759943
-0.000149846
0.0761468
-0.000152445
0.0762985
-0.000151693
0.0764462
-0.000147779
0.076587
-0.000140739
0.0767175
-0.000130485
0.0768344
-0.000116953
0.0769346
-0.000100182
0.0770149
-8.0302e-05
0.0770725
-5.75692e-05
0.077105
-3.25799e-05
0.0771127
-7.68513e-06
0.0770926
2.01448e-05
0.0770469
4.5706e-05
0.0769754
7.14945e-05
0.0768773
9.80504e-05
0.0767515
0.000125785
0.0765987
0.000152847
0.0764183
0.000180383
0.0762097
0.000208593
0.0759725
0.00023725
0.075706
0.000266481
0.0754098
0.000296169
0.0750839
0.000325895
0.0747291
0.000354816
0.0743474
0.000381708
0.0739422
0.000405245
0.0735177
0.000424473
0.0730784
0.000439298
0.0726277
0.00045073
0.072167
0.000460666
0.0716958
0.000471169
0.0712122
0.000483589
0.0707144
0.000497845
0.0702022
0.00051224
0.0696781
0.000524092
0.0691472
0.000530859
0.0686158
0.000531362
0.0680892
0.000526603
0.0675696
0.000519623
0.0670552
0.000514419
0.0665408
0.000514426
0.0660194
0.000521352
0.0654845
0.000534894
0.0649312
0.000553298
0.0643567
0.000574492
0.0637601
0.000596665
0.0631414
0.000618631
0.0625016
0.000639851
0.0618414
0.000660229
0.0611615
0.000679896
0.0604624
0.000699024
0.0597447
0.000717734
0.0590086
0.000736077
0.0582546
0.000754053
0.057483
0.000771623
0.0566942
0.000788738
0.0558889
0.000805357
0.0550674
0.000821447
0.0542304
0.000836967
0.0533786
0.000851877
0.0525124
0.000866148
0.0516327
0.000879752
0.05074
0.000892657
0.0498352
0.000904826
0.048919
0.000916228
0.0479921
0.000926847
0.0470554
0.000936666
0.0461098
0.00094566
0.045156
0.000953817
0.0441948
0.000961128
0.0432273
0.000967577
0.0422541
0.000973152
0.0412763
0.000977855
0.0402946
0.000981674
0.03931
0.000984608
0.0383233
0.000986662
0.0373354
0.000987861
0.0363472
0.000988207
0.0353595
0.000987698
0.0343732
0.000986356
0.033389
0.000984156
0.0324077
0.000981285
0.0314301
0.000977611
0.030457
0.0009731
0.0294892
0.000967881
0.0285271
0.000962006
0.0275717
0.000955462
0.0266234
0.000948261
0.0256829
0.000940481
0.0247508
0.000932113
0.0238277
0.000923151
0.0229139
0.000913733
0.0220101
0.000903854
0.0211166
0.000893445
0.020234
0.000882646
0.0193625
0.000871536
0.0185025
0.000859972
0.0176544
0.000848088
0.0168184
0.000836011
0.0159948
0.000823605
0.0151838
0.000811009
0.0143856
0.000798142
0.0136004
0.0007852
0.0128285
0.000771983
0.0120696
0.000758842
0.0113241
0.000745549
0.0105919
0.000732154
0.00987311
0.0007188
0.00916772
0.000705387
0.00847577
0.000691956
0.0077968
0.000678964
0.00713114
0.000665666
0.00647855
0.000652585
0.00583914
0.000639415
0.00521238
0.000626754
0.00459838
0.000614
0.00399678
0.000601609
0.00340741
0.000589371
0.00283004
0.000577365
0.00226424
0.000565801
0.00170974
0.000554503
0.00116702
0.000542721
0.000634913
0.000532102
0.000113166
0.000521747
-0.000398307
0.000511473
-0.000899655
0.000501349
-0.00139141
0.000491752
-0.00187385
0.000482446
-0.00234725
0.0004734
-0.0028119
0.000464642
-0.00326807
0.000456179
-0.00371612
0.000448044
-0.00415637
0.000440254
-0.00458921
0.000432837
-0.00501503
0.000425825
-0.00543428
0.000419251
-0.00584728
0.000413
-0.00625427
0.000406982
-0.00665545
0.000401182
-0.00705076
0.000395307
-0.0074399
0.000389144
-0.00782234
0.00038244
-0.00819719
0.000374851
-0.00856339
0.000366201
-0.00891988
0.000356485
-0.00926562
0.000345741
-0.0095999
0.000334281
-0.00992247
0.000322569
-0.0102336
0.000311117
-0.010534
0.000300423
-0.0108248
0.000290838
-0.0111074
0.000282548
-0.0113829
0.000275537
-0.0116525
0.000269535
-0.0119168
0.000264353
-0.0121764
0.00025961
-0.0124314
0.000254967
-0.0126817
0.000250299
-0.0129272
0.000245543
-0.0131679
0.000240687
-0.0134038
0.000235841
-0.0136349
0.000231133
-0.0138616
0.000226742
-0.0140843
0.000222677
-0.0143032
0.000218932
-0.0145187
0.000215443
-0.0147308
0.000212107
-0.0149395
0.000208721
-0.0151448
0.000205284
-0.0153465
0.000201695
-0.0155446
0.00019807
-0.0157389
0.000194379
-0.0159296
0.000190687
-0.0161167
0.000187022
-0.0163001
0.000183435
-0.01648
0.0001799
-0.0166564
0.000176417
-0.0168294
0.000172982
-0.016999
0.00016958
-0.0171652
0.00016621
-0.0173281
0.000162892
-0.0174876
0.000159578
-0.017644
0.000156366
-0.0177972
0.000153225
-0.0179474
0.000150192
-0.0180947
0.000147304
-0.0182393
0.000144537
-0.0183811
0.000141813
-0.0185202
0.000139098
-0.0186565
0.000136341
-0.01879
0.000133508
-0.0189206
0.000130576
-0.0190481
0.000127531
-0.0191725
0.000124375
-0.0192936
0.000121116
-0.0194114
0.000117755
-0.0195257
0.000114299
-0.0196365
0.000110774
-0.0197436
0.000107181
-0.0198471
0.000103493
-0.0199468
9.97052e-05
-0.0200427
9.59047e-05
-0.0201348
9.20383e-05
-0.0202229
8.81117e-05
-0.020307
8.41432e-05
-0.0203872
8.01306e-05
-0.0204632
7.6071e-05
-0.0205352
7.19611e-05
-0.020603
6.78245e-05
-0.0206667
6.36627e-05
-0.0207262
5.94713e-05
-0.0207814
5.52555e-05
-0.0208324
5.10123e-05
-0.0208792
4.67573e-05
-0.0209217
4.24918e-05
-0.0209599
3.82121e-05
-0.0209938
3.39234e-05
-0.0210234
2.9612e-05
-0.0210487
2.52978e-05
-0.0210697
2.09814e-05
-0.0210864
1.66574e-05
-0.0210987
1.23025e-05
-0.0211066
7.95777e-06
-0.0211102
3.61278e-06
-0.0211094
-8.66105e-07
-0.021104
-5.33084e-06
-0.0210942
-9.86468e-06
-0.0210798
-1.44162e-05
-0.0210608
-1.89695e-05
-0.0210373
-2.35148e-05
-0.0210092
-2.8068e-05
-0.0209767
-3.25207e-05
-0.0209399
-3.68134e-05
-0.0208991
-4.07226e-05
-0.0208555
-4.35979e-05
-0.0208111
-4.44668e-05
-0.0207682
-4.28467e-05
-0.0207287
-3.9561e-05
-0.0206918
-3.68421e-05
-0.020655
-3.68726e-05
-0.0206143
-4.06776e-05
-0.0205667
-4.7608e-05
-0.0205105
-5.61243e-05
-0.0204455
-6.50936e-05
-0.0203713
-7.41764e-05
-0.0202878
-8.34873e-05
-0.0201945
-9.32748e-05
-0.0200908
-0.000103665
-0.0199762
-0.000114637
-0.01985
-0.000126208
-0.0197116
-0.000138382
-0.0195606
-0.000151008
-0.0193966
-0.000164031
-0.0192192
-0.000177361
-0.0190283
-0.000190909
-0.0188238
-0.000204522
-0.0186057
-0.000218063
-0.0183743
-0.000231474
-0.0181295
-0.000244775
-0.0178715
-0.000257962
-0.0176005
-0.000271027
-0.0173166
-0.000283883
-0.01702
-0.000296565
-0.0167109
-0.000309104
-0.0163895
-0.000321473
-0.0160558
-0.000333625
-0.0157102
-0.000345598
-0.0153529
-0.000357387
-0.0149838
-0.000369021
-0.0146034
-0.000380462
-0.0142117
-0.000391683
-0.0138091
-0.00040262
-0.0133956
-0.000413438
-0.0129716
-0.000424073
-0.0125371
-0.000434467
-0.0120925
-0.000444616
-0.011638
-0.000454499
-0.0111738
-0.000464189
-0.0107002
-0.000473576
-0.0102175
-0.000482688
-0.00972596
-0.000491568
-0.00922569
-0.00050027
-0.00871689
-0.000508797
-0.00819965
-0.000517244
-0.00767386
-0.000525788
-0.00713962
-0.000534235
-0.00659702
-0.000542598
-0.0060464
-0.000550627
-0.0054878
-0.000558602
-0.00492045
-0.000567341
-0.00434256
-0.000577892
-0.00375193
-0.00059063
-0.00314615
-0.000605782
-0.00251906
-0.000627091
-0.0018559
-0.000663158
-0.00114093
-0.000714973
-0.00045512
-0.000685809
-0.00045512
-0.000433887
0.000498319
-0.000834482
0.000357125
-0.00126392
0.000381685
-0.00169421
0.000395334
-0.00212155
0.000394444
-0.00254759
0.000393755
-0.0029722
0.00039203
-0.00339493
0.000389341
-0.00381508
0.000385754
-0.00423167
0.000381041
-0.00464357
0.000375055
-0.00504947
0.000367578
-0.00544833
0.000358478
-0.00583904
0.000347766
-0.00622062
0.000335449
-0.00659224
0.000321665
-0.00695308
0.000306638
-0.00730284
0.000290444
-0.00764118
0.000273383
-0.00796788
0.000255748
-0.00828302
0.000237588
-0.00858667
0.00021903
-0.00887889
0.000200235
-0.00916001
0.000181345
-0.00943033
0.000162554
-0.00969035
0.000143957
-0.00994014
0.000125355
-0.0101792
0.000106173
-0.0104057
8.52079e-05
-0.0106165
6.09401e-05
-0.0108069
3.17966e-05
-0.0109711
-3.38032e-06
-0.0111065
-4.23761e-05
-0.0112127
-8.3153e-05
-0.0112938
-0.000121532
-0.011356
-0.000155596
-0.0114091
-0.000180796
-0.0114657
-0.000193457
-0.0115386
-0.00019157
-0.0116349
-0.00018055
-0.0117542
-0.000169248
-0.0118834
-0.00016834
-0.0120023
-0.000186593
-0.0120877
-0.000228517
-0.0121169
-0.000294567
-0.0120728
-0.000379034
-0.0119458
-0.000471014
-0.0117381
-0.000564192
-0.0114611
-0.000646551
-0.0111237
-0.000718389
-0.0107326
-0.00078077
-0.0102922
-0.000835779
-0.00980505
-0.00088601
-0.00927372
-0.000933827
-0.0087018
-0.000980952
-0.00809538
-0.00102791
-0.00746466
-0.0010727
-0.00681528
-0.00112299
-0.00615654
-0.00117765
-0.00549773
-0.00123641
-0.00484563
-0.00129688
-0.00420236
-0.00135441
-0.0035652
-0.00140244
-0.00292951
-0.00143088
-0.00228989
-0.00143336
-0.00164061
-0.00141348
-0.000979023
-0.00137888
-0.000306935
-0.00133941
0.000372115
-0.00130577
0.00105567
-0.00128486
0.00174561
-0.00127867
0.00244345
-0.00128165
0.00315213
-0.00129149
0.00387356
-0.00130539
0.00460853
-0.00132228
0.00535681
-0.00134118
0.00611811
-0.00136189
0.00689213
-0.00138379
0.00767845
-0.00140606
0.0084765
-0.00142806
0.00928562
-0.00144936
0.0101051
-0.00146968
0.0109341
-0.0014888
0.0117717
-0.00150642
0.012617
-0.00152221
0.0134689
-0.00153583
0.0143263
-0.00154724
0.0151888
-0.00155681
0.0160566
-0.00156534
0.0169302
-0.00157363
0.0178103
-0.00158206
0.0186964
-0.00159001
0.0195867
-0.00159565
0.0204775
-0.00159625
0.0213641
-0.00158921
0.0222421
-0.00157341
0.023109
-0.00155053
0.0239662
-0.00152548
0.0248189
-0.0015054
0.0256755
-0.00149733
0.026545
-0.00150545
0.0274344
-0.00152858
0.0283462
-0.0015591
0.0292764
-0.00158299
0.0302138
-0.00158184
0.0311401
-0.00153777
0.0320304
-0.00144046
0.032856
-0.00129331
0.0335892
-0.00111451
0.0342102
-0.000931772
0.0347146
-0.000773633
0.0351155
-0.000659722
0.0354393
-0.000596878
0.0357188
-0.000581667
0.0359851
-0.000604052
0.0362615
-0.00065128
0.0365612
-0.000711036
0.0368881
-0.000773484
0.0372402
-0.000832107
0.0376126
-0.000883576
0.0379992
-0.000926889
0.038395
-0.000962409
0.038796
-0.000991111
0.0391991
-0.00101409
0.0396025
-0.00103235
0.0400049
-0.00104668
0.0404056
-0.00105769
0.040804
-0.00106584
0.0411997
-0.0010715
0.0415924
-0.00107504
0.0419821
-0.0010768
0.0423686
-0.00107714
0.0427521
-0.00107636
0.0431328
-0.00107476
0.0435107
-0.00107256
0.0438862
-0.00106995
0.0442594
-0.00106706
0.0446306
-0.00106401
0.0449999
-0.0010609
0.0453677
-0.00105784
0.0457344
-0.00105494
0.0461005
-0.00105232
0.0464664
-0.00105006
0.0468326
-0.00104813
0.0471993
-0.00104642
0.0475663
-0.00104468
0.0479334
-0.0010426
0.0482999
-0.00103988
0.048665
-0.0010363
0.0490281
-0.00103194
0.0493893
-0.00102719
0.0497494
-0.00102281
0.0501104
-0.00101984
0.0504755
-0.00101946
0.0508486
-0.00102272
0.0512343
-0.00103031
0.0516369
-0.00104238
0.0520602
-0.00105851
0.052507
-0.00107786
0.052979
-0.00109941
0.0534767
-0.00112213
0.0539999
-0.00114521
0.0545476
-0.0011681
0.0551187
-0.00119051
0.055712
-0.00121218
0.0563261
-0.00123254
0.0569603
-0.00125034
0.0576137
-0.00126345
0.0582868
-0.00126876
0.0589809
-0.00126244
0.0596995
-0.00124053
0.0604491
-0.0011998
0.0612401
-0.00113885
0.0620861
-0.00106008
0.0629914
-0.000971725
0.0639342
-0.000882368
0.0648727
-0.000805691
0.065797
-0.000749525
0.0667181
-0.000705279
0.0676427
-0.000661653
0.0685685
-0.000612539
0.0694878
-0.000555834
0.0703902
-0.000491075
0.0712635
-0.000418409
0.072094
-0.000338273
0.0728651
-0.000251286
0.0735568
-0.000158385
0.0741467
-6.16166e-05
0.0746167
3.57818e-05
0.07495
0.000129832
0.0751345
0.000214893
0.0751668
0.000284997
0.0750577
0.000333021
0.0748355
0.000352353
0.0745453
0.000338706
0.0742382
0.00029189
0.073956
0.000218013
0.073733
0.000128113
0.0735856
2.98379e-05
0.073513
-6.06441e-05
0.0735124
-0.00014293
0.0735733
-0.000210753
0.0736829
-0.000262129
0.0738292
-0.000298003
0.0740016
-0.000320171
0.0741917
-0.000330781
0.0743932
-0.000331982
0.0746018
-0.000325554
0.0748145
-0.000312873
0.0750291
-0.000294966
0.0752442
-0.000272634
0.0754582
-0.000246596
0.075668
-0.000217452
0.0758721
-0.000184006
0.0760654
-0.000147598
0.0762455
-0.00010858
0.0764103
-6.67285e-05
0.0765566
-2.04794e-05
0.0766879
2.14859e-05
0.0768012
6.71422e-05
0.0768938
0.000115964
0.076965
0.000166076
0.0770143
0.000217163
0.0770416
0.000268809
0.0770471
0.000320451
0.0770307
0.000371236
0.0769924
0.000420004
0.0769323
0.000465345
0.076851
0.000505755
0.0767503
0.000539961
0.0766335
0.000567527
0.0765046
0.000589606
0.0763669
0.000608812
0.0762219
0.000628646
0.0760673
0.000652418
0.0758976
0.000681969
0.0757048
0.000716838
0.0754813
0.000754423
0.0752214
0.000791242
0.0749233
0.000824739
0.0745882
0.000854696
0.0742191
0.000883488
0.0738185
0.000915055
0.0733867
0.000953158
0.0729217
0.000999832
0.0724203
0.00105476
0.071879
0.00111574
0.071296
0.0011797
0.0706709
0.00124375
0.0700049
0.00130582
0.0693003
0.00136486
0.0685596
0.00142058
0.0677855
0.00147318
0.0669801
0.00152304
0.0661457
0.00157055
0.0652837
0.001616
0.0643958
0.00165956
0.0634832
0.00170135
0.0625472
0.00174138
0.0615889
0.00177967
0.0606097
0.00181618
0.0596107
0.00185087
0.0585932
0.00188372
0.0575582
0.00191466
0.0565072
0.00194367
0.0554414
0.00197069
0.0543619
0.00199568
0.0532702
0.0020186
0.0521674
0.00203943
0.0510549
0.00205814
0.049934
0.00207471
0.048806
0.00208914
0.0476722
0.0021014
0.0465338
0.00211152
0.0453922
0.0021195
0.0442485
0.00212536
0.043104
0.00212912
0.0419599
0.00213081
0.0408173
0.00213045
0.0396773
0.00212812
0.0385412
0.00212384
0.0374099
0.00211768
0.0362843
0.00210971
0.0351657
0.00209995
0.0340548
0.00208851
0.0329525
0.00207538
0.0318597
0.00206068
0.0307771
0.00204453
0.0297057
0.00202693
0.028646
0.00200797
0.0275987
0.00198775
0.0265645
0.00196634
0.0255438
0.00194383
0.0245373
0.00192025
0.0235453
0.00189579
0.0225686
0.0018702
0.0216072
0.00184403
0.0206615
0.0018172
0.0197322
0.00178932
0.0188191
0.00176119
0.0179226
0.00173247
0.017043
0.00170322
0.0161804
0.00167366
0.0153349
0.0016436
0.0145067
0.00161337
0.0136955
0.00158317
0.0129018
0.00155261
0.0121253
0.00152201
0.0113661
0.00149139
0.010624
0.00146083
0.00989912
0.00143031
0.00919114
0.00139994
0.00850022
0.00136988
0.00782595
0.00133994
0.0071684
0.00131014
0.00652677
0.00128104
0.00590147
0.00125206
0.00529193
0.00122354
0.0046981
0.00119544
0.00411965
0.00116783
0.00355619
0.00114082
0.00300768
0.00111431
0.00247408
0.0010881
0.00195345
0.00106335
0.00144709
0.00103846
0.000954435
0.0010144
0.000474948
0.00099096
8.0821e-06
0.000968214
-0.000446289
0.000946123
-0.00088852
0.000924677
-0.00131899
0.000903866
-0.00173802
0.000883681
-0.00214599
0.000864145
-0.00254322
0.00084527
-0.00293001
0.000827047
-0.00330658
0.000809406
-0.00367316
0.000792406
-0.00402987
0.000775955
-0.00437676
0.000759899
-0.00471393
0.000744149
-0.00504138
0.000728634
-0.00535907
0.000712995
-0.00566705
0.000697119
-0.00596535
0.000680746
-0.0062543
0.000663801
-0.00653435
0.000646244
-0.00680607
0.000628212
-0.00707029
0.000609954
-0.00732793
0.000591922
-0.00757999
0.000574632
-0.00782741
0.00055854
-0.008071
0.000544013
-0.00831147
0.000531305
-0.00854928
0.000520361
-0.00878483
0.000511079
-0.00901837
0.000503081
-0.00924994
0.000495916
-0.00947958
0.000489251
-0.00970725
0.000482637
-0.00993291
0.000475959
-0.0101565
0.000469159
-0.010378
0.000462171
-0.0105973
0.000455116
-0.0108142
0.000448019
-0.0110286
0.000441218
-0.0112406
0.000434649
-0.01145
0.000428364
-0.0116568
0.00042224
-0.0118609
0.000416203
-0.0120623
0.000410063
-0.0122607
0.000403693
-0.012456
0.000397027
-0.0126482
0.000390224
-0.012837
0.000383243
-0.0130225
0.000376178
-0.0132047
0.000369164
-0.0133834
0.000362177
-0.0135588
0.000355306
-0.0137309
0.000348535
-0.0138998
0.000341876
-0.0140656
0.000335304
-0.0142282
0.000328848
-0.0143879
0.000322547
-0.0145447
0.000316437
-0.0146988
0.000310426
-0.0148501
0.000304571
-0.0149988
0.000298839
-0.0151447
0.000293199
-0.0152877
0.000287573
-0.0154278
0.000281895
-0.0155648
0.000276115
-0.0156987
0.000270233
-0.0158294
0.000264251
-0.015957
0.000258164
-0.0160815
0.000251975
-0.0162028
0.000245683
-0.016321
0.000239297
-0.016436
0.000232823
-0.016548
0.000226259
-0.0166568
0.000219612
-0.0167625
0.000212869
-0.016865
0.000206007
-0.0169644
0.000199062
-0.0170605
0.000192053
-0.0171534
0.000184932
-0.017243
0.000177709
-0.0173293
0.0001704
-0.0174121
0.000162993
-0.0174915
0.00015547
-0.0175674
0.000147852
-0.0176397
0.000140137
-0.0177084
0.000132313
-0.0177733
0.000124385
-0.0178344
0.000116349
-0.0178916
0.000108212
-0.0179448
9.99657e-05
-0.0179939
9.16124e-05
-0.0180389
8.31573e-05
-0.0180796
7.46025e-05
-0.0181159
6.59432e-05
-0.0181477
5.71606e-05
-0.018175
4.82732e-05
-0.0181977
3.92783e-05
-0.0182155
3.01497e-05
-0.0182284
2.08836e-05
-0.0182363
1.14782e-05
-0.018239
1.8691e-06
-0.0182369
-7.44836e-06
-0.0182296
-1.72183e-05
-0.0182168
-2.71706e-05
-0.0181987
-3.70492e-05
-0.0181753
-4.6977e-05
-0.0181464
-5.69721e-05
-0.0181121
-6.67976e-05
-0.0180725
-7.63907e-05
-0.0180278
-8.54613e-05
-0.0179776
-9.37583e-05
-0.0179207
-0.000101363
-0.0178546
-0.000108942
-0.0177762
-0.000117943
-0.0176833
-0.000129767
-0.0175758
-0.000144373
-0.0174557
-0.000160826
-0.0173255
-0.000177783
-0.0171872
-0.00019439
-0.0170418
-0.000210561
-0.0168892
-0.000226697
-0.0167297
-0.000243033
-0.0165633
-0.000259702
-0.0163901
-0.000276817
-0.0162104
-0.000294297
-0.0160246
-0.000312011
-0.0158331
-0.000329956
-0.0156359
-0.000348175
-0.0154333
-0.000366611
-0.0152255
-0.000385175
-0.0150126
-0.000403823
-0.0147945
-0.00042257
-0.0145712
-0.000441384
-0.0143424
-0.000460292
-0.014108
-0.000479148
-0.013868
-0.000497955
-0.0136223
-0.000516798
-0.0133706
-0.000535556
-0.013113
-0.000554154
-0.0128495
-0.000572637
-0.01258
-0.000590928
-0.0123046
-0.000609068
-0.0120232
-0.000626994
-0.0117358
-0.00064473
-0.0114427
-0.000662206
-0.0111436
-0.000679488
-0.0108388
-0.000696548
-0.010528
-0.000713341
-0.0102116
-0.000729851
-0.00988936
-0.000746342
-0.00956125
-0.000762569
-0.00922723
-0.000778637
-0.00888722
-0.000794514
-0.00854114
-0.000810271
-0.00818879
-0.000825923
-0.00783011
-0.000841365
-0.00746497
-0.000856709
-0.0070933
-0.000871943
-0.00671496
-0.000887134
-0.00632984
-0.000902364
-0.00593771
-0.000917918
-0.00553825
-0.000933698
-0.00513092
-0.000949921
-0.00471518
-0.00096637
-0.00429145
-0.000982328
-0.00386244
-0.000996351
-0.00343416
-0.00100618
-0.0030137
-0.0010111
-0.00259835
-0.00102113
-0.00215876
-0.00106667
-0.00163309
-0.00118883
-0.000986519
-0.00136154
-0.000318234
-0.00135409
-0.000773354
-0.000561225
0.00105954
-0.00107881
0.000874709
-0.00164789
0.000950769
-0.00222503
0.000972467
-0.00279791
0.000967334
-0.00336346
0.000959301
-0.00391985
0.000948417
-0.00446469
0.000934185
-0.00499558
0.000916643
-0.0055103
0.000895764
-0.00600694
0.000871688
-0.00648385
0.000844492
-0.00693989
0.000814521
-0.00737434
0.00078221
-0.00778685
0.000747964
-0.00817757
0.000712381
-0.00854692
0.000675993
-0.00889569
0.000639209
-0.00922465
0.000602339
-0.00953458
0.000565676
-0.0098263
0.000529308
-0.0101005
0.000493271
-0.0103579
0.000457555
-0.0105985
0.000422005
-0.0108224
0.000386468
-0.0110291
0.00035058
-0.0112174
0.000313707
-0.0113863
0.000275043
-0.0115348
0.000233776
-0.0116633
0.000189408
-0.0117737
0.000142176
-0.0118703
9.32286e-05
-0.011957
4.42863e-05
-0.0120354
-4.74505e-06
-0.0121116
-4.52989e-05
-0.0121866
-8.05638e-05
-0.0122575
-0.000109979
-0.012315
-0.000135889
-0.0123446
-0.000162002
-0.0123305
-0.000194649
-0.0122585
-0.000241206
-0.0121171
-0.000309778
-0.0119003
-0.000403348
-0.0116102
-0.000518607
-0.011258
-0.000646805
-0.0108615
-0.000775498
-0.0104394
-0.000893125
-0.0100055
-0.000998127
-0.0095657
-0.00108635
-0.00912428
-0.00115981
-0.00868258
-0.00122247
-0.00824016
-0.00127821
-0.00779681
-0.00132936
-0.0073535
-0.00137714
-0.00691187
-0.00142258
-0.00647288
-0.0014669
-0.00603426
-0.00151131
-0.00559724
-0.00156001
-0.00516021
-0.00161468
-0.00472146
-0.00167517
-0.00427928
-0.00173906
-0.00383172
-0.00180196
-0.00337645
-0.00185771
-0.00290684
-0.00190048
-0.00241402
-0.00192617
-0.00188981
-0.00193769
-0.0013294
-0.00193929
-0.0007326
-0.00193621
-0.00010295
-0.00193542
0.0005531
-0.00194091
0.00122764
-0.00195321
0.00191775
-0.00197176
0.00262066
-0.0019944
0.0033351
-0.00201983
0.0040595
-0.00204668
0.00479317
-0.00207484
0.005535
-0.00210372
0.00628397
-0.00213277
0.00703936
-0.00216145
0.00780062
-0.00218932
0.00856733
-0.00221607
0.00933916
-0.00224151
0.0101158
-0.00226546
0.0108972
-0.00228777
0.0116832
-0.00230827
0.0124743
-0.00232688
0.0132707
-0.00234364
0.0140725
-0.00235867
0.0148794
-0.00237222
0.0156902
-0.00238445
0.0165033
-0.00239513
0.0173168
-0.00240348
0.0181293
-0.00240818
0.0189408
-0.00240774
0.0197526
-0.00240104
0.0205672
-0.00238802
0.021387
-0.00237027
0.0222126
-0.00235112
0.0230421
-0.00233494
0.0238704
-0.00232559
0.0246897
-0.00232472
0.0254915
-0.00233043
0.0262693
-0.00233687
0.0270207
-0.00233445
0.02775
-0.00231112
0.0284673
-0.002255
0.0291853
-0.0021585
0.0299145
-0.0020225
0.0306586
-0.00185866
0.0314147
-0.00168785
0.0321746
-0.00153349
0.0329287
-0.00141388
0.0336693
-0.00133748
0.0343905
-0.00130279
0.0350877
-0.00130133
0.0357581
-0.00132166
0.0364
-0.00135292
0.0370134
-0.00138684
0.0375996
-0.00141832
0.038161
-0.00144501
0.0387005
-0.00146641
0.0392211
-0.00148296
0.0397254
-0.00149542
0.0402158
-0.00150451
0.0406942
-0.00151074
0.041162
-0.00151446
0.0416202
-0.00151592
0.0420697
-0.00151534
0.0425111
-0.00151294
0.0429451
-0.00150902
0.0433722
-0.00150391
0.043793
-0.00149795
0.0442081
-0.00149143
0.0446179
-0.00148459
0.045023
-0.00147761
0.0454237
-0.00147063
0.0458203
-0.00146373
0.0462133
-0.001457
0.0466029
-0.00145052
0.0469895
-0.00144435
0.0473731
-0.00143855
0.0477538
-0.00143307
0.0481316
-0.00142781
0.048506
-0.00142254
0.0488765
-0.00141694
0.0492425
-0.00141074
0.0496037
-0.00140378
0.0499601
-0.00139625
0.0503125
-0.00138875
0.050663
-0.00138238
0.0510143
-0.00137858
0.0513705
-0.00137895
0.0517355
-0.00138485
0.0521131
-0.00139704
0.0525058
-0.00141548
0.0529147
-0.00143914
0.0533385
-0.0014662
0.0537743
-0.00149436
0.0542178
-0.00152131
0.0546635
-0.00154514
0.0551061
-0.00156467
0.0555404
-0.00157958
0.0559626
-0.00159029
0.0563698
-0.00159767
0.0567603
-0.00160272
0.0571339
-0.00160608
0.0574912
-0.0016077
0.0578344
-0.00160661
0.0581666
-0.00160093
0.0584922
-0.00158812
0.0588172
-0.00156549
0.0591483
-0.00153095
0.0594934
-0.00148387
0.0598592
-0.00142597
0.0602488
-0.00136124
0.0606608
-0.00129442
0.0610886
-0.00123351
0.0615238
-0.00118469
0.061963
-0.00114445
0.0624069
-0.00110554
0.0628576
-0.00106323
0.0633175
-0.0010158
0.0637894
-0.000962989
0.0642761
-0.000905105
0.0647804
-0.00084254
0.0653048
-0.000775645
0.0658516
-0.000705201
0.0664225
-0.000632524
0.0670137
-0.000555397
0.0676153
-0.000471845
0.0682144
-0.000384138
0.0687971
-0.000297736
0.0693515
-0.000221387
0.0698695
-0.000165596
0.0703481
-0.000139895
0.0707892
-0.000149261
0.0711976
-0.000190351
0.0715782
-0.000252508
0.0719318
-0.000323762
0.0722638
-0.00039262
0.072573
-0.0004522
0.0728605
-0.000498211
0.0731275
-0.00052915
0.0733756
-0.000546081
0.0736066
-0.000551137
0.0738223
-0.000546533
0.0740245
-0.000534143
0.0742142
-0.000515329
0.0743925
-0.000491087
0.0745596
-0.000462138
0.0747161
-0.000429069
0.0748618
-0.000392354
0.0749966
-0.000352254
0.0751212
-0.000308537
0.0752354
-0.000261791
0.0753391
-0.00021236
0.0754327
-0.000160344
0.0755181
-0.000105795
0.0755907
-5.11865e-05
0.0756495
8.42648e-06
0.0756958
6.9569e-05
0.0757302
0.000131753
0.0757519
0.000195457
0.0757607
0.000259955
0.075757
0.000324157
0.0757415
0.000386731
0.0757152
0.000446302
0.0756789
0.000501726
0.0756322
0.000552404
0.0755736
0.000598514
0.0755001
0.000641111
0.0754075
0.00068217
0.0752921
0.000724209
0.075151
0.000769755
0.0749827
0.000820682
0.0747871
0.000877641
0.074564
0.000939854
0.074313
0.00100546
0.0740319
0.00107234
0.0737175
0.00113914
0.0733662
0.001206
0.0729751
0.00127458
0.0725429
0.00134731
0.0720697
0.00142628
0.0715573
0.00151226
0.0710077
0.0016044
0.0704228
0.00170057
0.0698044
0.00179815
0.0691534
0.00189468
0.0684709
0.00198836
0.0677576
0.00207817
0.0670145
0.00216372
0.0662425
0.00224509
0.0654431
0.00232252
0.0646173
0.00239635
0.0637664
0.00246684
0.0628918
0.00253418
0.0619946
0.00259851
0.0610761
0.00265988
0.0601375
0.00271831
0.0591799
0.00277378
0.0582045
0.00282627
0.0572125
0.00287573
0.056205
0.00292213
0.0551833
0.00296541
0.0541485
0.00300551
0.0531017
0.00304241
0.0520443
0.00307606
0.0509773
0.00310643
0.0499019
0.00313349
0.0488194
0.00315724
0.0477308
0.00317767
0.0466374
0.0031948
0.0455403
0.00320864
0.0444406
0.00321922
0.0433394
0.00322657
0.0422377
0.00323076
0.0411367
0.00323181
0.0400374
0.0032298
0.0389407
0.00322482
0.0378476
0.00321694
0.0367591
0.00320623
0.035676
0.00319281
0.0345992
0.00317675
0.0335295
0.00315819