/*--------------------------------*- C++ -*----------------------------------*\
| =========                 |                                                 |
| \\      /  F ield         | OpenFOAM: The Open Source CFD Toolbox           |
|  \\    /   O peration     | Version:  v2006                                 |
|   \\  /    A nd           | Website:  www.openfoam.com                      |
|    \\/     M anipulation  |                                                 |
\*---------------------------------------------------------------------------*/
FoamFile
{
    version     2.0;
    format      ascii;
    class       volScalarField;
    location    "0";
    object      p;
}
// * * * * * * * * * * * * * * * * * * * * * * * * * * * * * * * * * * * * * //

dimensions      [1 -1 -2 0 0 0 0];


internalField   nonuniform List<scalar> 
67500
(
15.358
13.2029
12.8406
11.8845
11.2098
5.20612
1.15178
-0.113338
-2.50939
0.645198
3.84464
3.90707
3.74419
3.82956
4.22096
4.18608
3.82835
3.52196
3.31218
3.16977
3.10893
3.14625
3.27006
3.46945
3.73926
4.0566
4.37393
4.63812
4.81384
4.89422
4.89852
4.86041
4.81602
4.79515
4.81738
4.89437
5.0348
5.24666
5.53395
5.88996
6.29055
6.68801
7.0047
7.1512
7.12283
7.04275
7.00483
7.01421
7.03746
7.03291
6.99131
6.96642
7.01161
7.12696
7.28582
7.46156
7.64117
7.82881
8.02621
8.22285
8.40607
8.57036
8.71761
8.84948
8.9644
9.0623
9.14531
9.21402
9.26711
9.30364
9.32304
9.32431
9.30662
9.26967
9.21344
9.13822
9.04471
8.93383
8.80672
8.6646
8.5088
8.34065
8.16148
7.97261
7.77531
7.57084
7.36045
7.14535
6.92673
6.70572
6.48339
6.26074
6.03872
5.81821
5.60001
5.38489
5.17352
4.96653
4.76444
4.56774
4.3768
4.19195
4.01341
3.84137
3.67591
3.51709
3.36488
3.21922
3.08001
2.94712
2.82039
2.69964
2.58466
2.47524
2.37117
2.27222
2.17816
2.08876
2.00379
1.92301
1.8462
1.77312
1.70355
1.63725
1.57402
1.51362
1.45587
1.40054
1.34745
1.29643
1.2473
1.19991
1.15412
1.10981
1.06687
1.02521
0.984762
0.945458
0.907252
0.870108
0.834001
0.798912
0.76483
0.731749
0.699666
0.66858
0.638491
0.6094
0.581304
0.554203
0.528092
0.502966
0.478816
0.455632
0.433401
0.412109
0.391737
0.372267
0.353677
0.335943
0.319041
0.302944
0.287623
0.273049
0.259193
0.246022
0.233506
0.221611
0.210307
0.199562
0.189344
0.179623
0.170369
0.161553
0.15315
0.145132
0.137476
0.13016
0.123162
0.116464
0.110049
0.1039
0.0980039
0.0923479
0.0869207
0.0817124
0.0767141
0.0719181
0.0673172
0.0629053
0.0586765
0.0546258
0.0507482
0.047039
0.0434938
0.0401082
0.0368778
0.0337984
0.0308654
0.0280745
0.025421
0.0229005
0.0205082
0.0182393
0.0160893
0.0140532
0.0121263
0.0103038
0.00858109
0.00695346
0.00541636
0.00396533
0.00259602
0.0013042
8.57792e-05
-0.00106321
-0.00214656
-0.00316796
-0.0041309
-0.00503875
-0.00589473
-0.00670191
-0.0074632
-0.0081814
-0.00885915
-0.00949898
-0.0101033
-0.0106743
-0.0112142
-0.0117251
-0.0122088
-0.0126672
-0.013102
-0.0135148
-0.0139073
-0.0142808
-0.0146368
-0.0149764
-0.015301
-0.0156117
-0.0159095
-0.0161955
-0.0164705
-0.0167354
-0.0169911
-0.0172383
-0.0174776
-0.0177096
-0.017935
-0.0181543
-0.0183678
-0.018576
-0.0187792
-0.0189777
-0.0191717
-0.0193615
-0.0195471
-0.0197286
-0.0199061
-0.0200795
-0.0202488
-0.0204139
-0.0205745
-0.0207305
-0.0208817
-0.0210278
-0.0211685
-0.0213034
-0.0214323
-0.0215547
-0.0216702
-0.0217784
-0.0218791
-0.0219717
-0.022056
-0.0221316
-0.0221982
-0.0222555
-0.0223033
-0.0223414
-0.0223695
-0.0223877
-0.0223958
-0.0223938
-0.0223817
-0.0223595
-0.0223274
-0.0222855
-0.0222341
-0.0221733
-0.0221035
-0.022025
-0.0219384
-0.0218441
-0.0217428
-0.0216349
-0.0215212
-0.0214024
-0.0212792
-0.0211522
-0.021022
-0.0208891
-0.020754
-0.0206169
-0.0204781
-0.0203376
-0.0201952
-0.0200508
-0.0199042
-0.0197551
-0.019603
-0.0194478
-0.0192892
-0.0191269
-0.0189609
-0.0187911
-0.0186174
-0.0184401
-0.0182594
-0.0180754
-0.0178884
-0.0176989
-0.0175071
-0.0173134
-0.0171182
-0.0169219
-0.0167248
-0.0165273
-0.0163296
-0.0161321
-0.015935
-0.0157386
-0.015543
-0.0153484
-0.015155
-0.014963
-0.0147724
-0.0145833
-0.0143958
-0.0142099
-0.0140257
-0.0138433
-0.0136625
-0.0134835
-0.0133063
-0.0131308
-0.012957
-0.0127849
-0.0126145
-0.0124457
-0.0122786
-0.0121131
-0.0119492
-0.0117868
-0.0116259
-0.0114665
-0.0113085
-0.011152
-0.0109968
-0.010843
-0.0106905
-0.0105393
-0.0103894
-0.0102407
-0.0100932
-0.00994687
-0.00980169
-0.00965763
-0.00951467
-0.00937277
-0.00923192
-0.0090921
-0.00895328
-0.00881543
-0.00867855
-0.0085426
-0.00840756
-0.00827343
-0.00814017
-0.00800777
-0.00787622
-0.00774548
-0.00761556
-0.00748642
-0.00735805
-0.00723045
-0.00710359
-0.00697745
-0.00685203
-0.0067273
-0.00660326
-0.00647988
-0.00635717
-0.00623509
-0.00611364
-0.00599282
-0.00587259
-0.00575296
-0.0056339
-0.00551541
-0.00539747
-0.00528007
-0.00516321
-0.00504686
-0.00493102
-0.00481567
-0.00470081
-0.00458642
-0.00447249
-0.00435901
-0.00424597
-0.00413335
-0.00402115
-0.00390936
-0.00379796
-0.00368694
-0.0035763
-0.00346601
-0.00335608
-0.00324648
-0.00313722
-0.00302827
-0.00291963
-0.00281129
-0.00270323
-0.00259545
-0.00248793
-0.00238067
-0.00227365
-0.00216686
-0.00206029
-0.00195394
-0.00184779
-0.00174182
-0.00163604
-0.00153042
-0.00142496
-0.00131965
-0.00121448
-0.00110943
-0.00100449
-0.000899664
-0.000794929
-0.000690269
-0.000585709
-0.000481106
-0.000376875
-0.000271388
-0.000169213
-4.90923e-05
14.8369
11.9846
11.9449
10.8642
6.59595
3.4334
1.63104
1.22975
1.64437
4.59312
-1.49359
2.06296
7.08334
6.9458
5.37454
4.53149
4.06046
3.63473
3.29887
3.09974
3.00493
3.01858
3.12109
3.30496
3.57775
3.91446
4.24808
4.50789
4.65444
4.68795
4.63951
4.55188
4.46617
4.41278
4.40838
4.46156
4.58185
4.78185
5.07086
5.44625
5.88822
6.35388
6.75149
6.91912
6.81882
6.68248
6.64577
6.69262
6.76718
6.78832
6.71917
6.66041
6.70468
6.8396
7.02123
7.20979
7.38894
7.57706
7.78352
7.99279
8.18589
8.35568
8.50861
8.64838
8.77095
8.87595
8.96754
9.04621
9.1092
9.15544
9.18462
9.19529
9.18639
9.15769
9.10908
9.04084
8.95377
8.84886
8.72726
8.5903
8.43932
8.2757
8.10078
7.91587
7.72225
7.52119
7.31395
7.10177
6.88583
6.66731
6.44728
6.22676
6.00671
5.78802
5.57151
5.35795
5.14803
4.94239
4.74159
4.54609
4.35631
4.17255
3.99508
3.82405
3.65957
3.50169
3.35038
3.20559
3.06721
2.93511
2.80913
2.68909
2.57479
2.46601
2.36254
2.26417
2.17065
2.08176
1.99727
1.91696
1.84058
1.76791
1.69873
1.63281
1.56992
1.50986
1.45241
1.39738
1.34456
1.29379
1.24488
1.19769
1.15209
1.10794
1.06514
1.0236
0.983254
0.944034
0.905897
0.86881
0.832747
0.797693
0.763639
0.73058
0.698516
0.667445
0.63737
0.608291
0.580209
0.553122
0.527026
0.501915
0.477783
0.454618
0.432409
0.411139
0.390791
0.371346
0.352783
0.335078
0.318206
0.302139
0.28685
0.272309
0.258486
0.245348
0.232866
0.221005
0.209734
0.199021
0.188835
0.179144
0.169919
0.161132
0.152755
0.144762
0.137129
0.129834
0.122856
0.116176
0.109777
0.103643
0.0977596
0.0921152
0.0866983
0.0814992
0.0765091
0.0717203
0.0671259
0.0627199
0.0584967
0.054451
0.0505782
0.0468736
0.0433329
0.0399518
0.0367259
0.0336509
0.0307225
0.0279362
0.0252874
0.0227716
0.0203841
0.0181201
0.0159748
0.0139436
0.0120214
0.0102037
0.00848566
0.00686261
0.00533
0.00388335
0.00251829
0.00123058
1.61246e-05
-0.00112904
-0.00220872
-0.00322659
-0.00418616
-0.00509079
-0.00594369
-0.00674793
-0.00750643
-0.00822197
-0.0088972
-0.00953463
-0.0101367
-0.0107055
-0.0112434
-0.0117523
-0.0122342
-0.0126908
-0.013124
-0.0135353
-0.0139263
-0.0142985
-0.0146531
-0.0149916
-0.015315
-0.0156246
-0.0159215
-0.0162065
-0.0164806
-0.0167448
-0.0169997
-0.0172462
-0.0174849
-0.0177164
-0.0179413
-0.01816
-0.0183732
-0.018581
-0.0187839
-0.0189822
-0.0191761
-0.0193657
-0.0195512
-0.0197327
-0.0199102
-0.0200837
-0.0202531
-0.0204183
-0.0205791
-0.0207354
-0.0208869
-0.0210333
-0.0211743
-0.0213096
-0.0214388
-0.0215615
-0.0216774
-0.0217861
-0.0218871
-0.0219801
-0.0220647
-0.0221406
-0.0222075
-0.022265
-0.022313
-0.0223512
-0.0223795
-0.0223978
-0.0224059
-0.0224039
-0.0223917
-0.0223694
-0.0223372
-0.0222951
-0.0222434
-0.0221823
-0.0221121
-0.0220332
-0.0219461
-0.0218512
-0.0217492
-0.0216407
-0.0215263
-0.0214069
-0.021283
-0.0211553
-0.0210246
-0.0208913
-0.0207559
-0.0206187
-0.0204799
-0.0203394
-0.0201972
-0.0200531
-0.0199068
-0.019758
-0.0196063
-0.0194514
-0.019293
-0.0191308
-0.0189649
-0.018795
-0.0186212
-0.0184437
-0.0182627
-0.0180784
-0.0178911
-0.0177012
-0.0175091
-0.017315
-0.0171194
-0.0169228
-0.0167253
-0.0165275
-0.0163295
-0.0161317
-0.0159344
-0.0157377
-0.0155419
-0.0153472
-0.0151537
-0.0149616
-0.0147708
-0.0145817
-0.0143941
-0.0142082
-0.014024
-0.0138415
-0.0136608
-0.0134818
-0.0133046
-0.0131291
-0.0129553
-0.0127832
-0.0126128
-0.0124441
-0.012277
-0.0121115
-0.0119476
-0.0117853
-0.0116244
-0.011465
-0.0113071
-0.0111506
-0.0109955
-0.0108417
-0.0106892
-0.0105381
-0.0103882
-0.0102395
-0.010092
-0.00994572
-0.00980056
-0.00965653
-0.00951359
-0.00937172
-0.0092309
-0.00909109
-0.00895229
-0.00881447
-0.00867761
-0.00854168
-0.00840666
-0.00827255
-0.00813931
-0.00800693
-0.00787539
-0.00774467
-0.00761476
-0.00748564
-0.00735729
-0.0072297
-0.00710286
-0.00697674
-0.00685133
-0.00672661
-0.00660258
-0.00647922
-0.00635652
-0.00623446
-0.00611303
-0.00599221
-0.005872
-0.00575238
-0.00563333
-0.00551485
-0.00539693
-0.00527954
-0.00516269
-0.00504635
-0.00493052
-0.00481519
-0.00470034
-0.00458596
-0.00447204
-0.00435857
-0.00424554
-0.00413293
-0.00402075
-0.00390896
-0.00379758
-0.00368657
-0.00357593
-0.00346566
-0.00335574
-0.00324615
-0.0031369
-0.00302796
-0.00291934
-0.002811
-0.00270296
-0.00259518
-0.00248768
-0.00238042
-0.00227341
-0.00216664
-0.00206008
-0.00195374
-0.0018476
-0.00174164
-0.00163587
-0.00153026
-0.00142481
-0.00131951
-0.00121435
-0.00110931
-0.00100439
-0.000899569
-0.000794846
-0.000690196
-0.000585646
-0.000481055
-0.000376835
-0.000271359
-0.000169194
-4.90866e-05
14.5679
11.0194
10.2405
10.627
8.58888
4.26791
1.63531
0.424475
-3.08505
-16.2701
-13.1907
-1.47262
6.08018
6.29438
4.80904
4.03125
3.64525
3.28177
3.00594
2.8551
2.81187
2.82944
2.87452
2.96545
3.16596
3.48257
3.8293
4.10813
4.24928
4.23681
4.10711
3.92058
3.73953
3.6082
3.54514
3.55144
3.62855
3.79137
4.06456
4.46482
4.99205
5.63086
6.28288
6.53831
6.19679
5.90156
5.88015
6.02279
6.22532
6.31139
6.15235
6.00178
6.04946
6.23758
6.48487
6.71204
6.8864
7.07223
7.29982
7.53807
7.75095
7.92733
8.08931
8.24563
8.38352
8.50178
8.6108
8.71036
8.79336
8.85916
8.9083
8.93801
8.94676
8.93461
8.90125
8.84692
8.77268
8.67964
8.56904
8.44233
8.30097
8.14639
7.97996
7.80297
7.61671
7.42244
7.22146
7.01506
6.80448
6.5909
6.37545
6.15918
5.94304
5.72797
5.5148
5.30433
5.09729
4.89435
4.69607
4.50298
4.31548
4.13391
3.95854
3.78953
3.627
3.47099
3.32148
3.17842
3.04169
2.91117
2.78669
2.66808
2.55512
2.44762
2.34536
2.24813
2.15569
2.06782
1.9843
1.90489
1.82938
1.75754
1.68914
1.62395
1.56177
1.50237
1.44554
1.39109
1.33881
1.28853
1.24008
1.1933
1.14806
1.10423
1.06171
1.02041
0.980259
0.941205
0.903204
0.866225
0.830249
0.795264
0.761264
0.728248
0.696219
0.665178
0.63513
0.606077
0.57802
0.55096
0.524893
0.499815
0.475717
0.452591
0.430422
0.409197
0.388898
0.369504
0.350995
0.333347
0.316534
0.300529
0.285304
0.270828
0.257071
0.244001
0.231586
0.219792
0.208588
0.19794
0.187817
0.178188
0.169022
0.160291
0.151967
0.144024
0.136438
0.129185
0.122246
0.115602
0.109235
0.10313
0.0972725
0.0916512
0.0862548
0.0810738
0.0760998
0.0713254
0.066744
0.0623498
0.0581373
0.0541016
0.0502383
0.046543
0.0430113
0.039639
0.036422
0.0333561
0.0304367
0.0276596
0.0250202
0.0225139
0.0201359
0.0178815
0.015746
0.0137243
0.0118118
0.0100036
0.00829489
0.00668103
0.00515741
0.00371951
0.00236295
0.00108347
-0.000123038
-0.00126055
-0.00233288
-0.0033437
-0.00429652
-0.0051947
-0.00604146
-0.00683984
-0.00759276
-0.00830299
-0.00897318
-0.00960582
-0.0102033
-0.0107679
-0.0113016
-0.0118067
-0.0122849
-0.0127381
-0.013168
-0.0135762
-0.0139643
-0.0143337
-0.0146858
-0.0150218
-0.015343
-0.0156505
-0.0159453
-0.0162284
-0.0165008
-0.0167634
-0.0170168
-0.017262
-0.0174994
-0.0177298
-0.0179537
-0.0181715
-0.0183839
-0.0185911
-0.0187934
-0.0189912
-0.0191847
-0.0193741
-0.0195594
-0.0197409
-0.0199184
-0.020092
-0.0202616
-0.0204271
-0.0205884
-0.0207451
-0.0208971
-0.0210441
-0.0211858
-0.0213218
-0.0214517
-0.0215752
-0.0216919
-0.0218013
-0.0219031
-0.0219968
-0.0220821
-0.0221586
-0.022226
-0.022284
-0.0223324
-0.022371
-0.0223995
-0.0224179
-0.0224261
-0.022424
-0.0224118
-0.0223893
-0.0223568
-0.0223143
-0.022262
-0.0222003
-0.0221293
-0.0220496
-0.0219614
-0.0218654
-0.0217622
-0.0216524
-0.0215366
-0.0214158
-0.0212906
-0.0211618
-0.02103
-0.0208959
-0.0207599
-0.0206223
-0.0204833
-0.020343
-0.0202011
-0.0200575
-0.0199117
-0.0197635
-0.0196123
-0.0194579
-0.0192999
-0.019138
-0.0189721
-0.0188022
-0.0186282
-0.0184504
-0.018269
-0.0180841
-0.0178962
-0.0177056
-0.0175127
-0.017318
-0.0171217
-0.0169243
-0.0167262
-0.0165277
-0.0163292
-0.0161309
-0.0159331
-0.015736
-0.0155399
-0.0153449
-0.0151511
-0.0149587
-0.0147678
-0.0145785
-0.0143908
-0.0142049
-0.0140206
-0.0138381
-0.0136573
-0.0134783
-0.0133011
-0.0131256
-0.0129519
-0.0127799
-0.0126095
-0.0124408
-0.0122738
-0.0121084
-0.0119446
-0.0117823
-0.0116215
-0.0114622
-0.0113043
-0.0111478
-0.0109928
-0.0108391
-0.0106867
-0.0105356
-0.0103857
-0.0102371
-0.0100897
-0.00994343
-0.00979833
-0.00965435
-0.00951146
-0.00936963
-0.00922886
-0.0090891
-0.00895034
-0.00881256
-0.00867574
-0.00853985
-0.00840488
-0.0082708
-0.0081376
-0.00800525
-0.00787375
-0.00774306
-0.00761319
-0.0074841
-0.00735578
-0.00722822
-0.00710141
-0.00697532
-0.00684994
-0.00672525
-0.00660125
-0.00647792
-0.00635524
-0.00623321
-0.0061118
-0.00599101
-0.00587082
-0.00575122
-0.0056322
-0.00551375
-0.00539585
-0.00527849
-0.00516166
-0.00504534
-0.00492954
-0.00481423
-0.0046994
-0.00458504
-0.00447114
-0.0043577
-0.00424469
-0.00413211
-0.00401994
-0.00390818
-0.00379681
-0.00368583
-0.00357522
-0.00346496
-0.00335506
-0.0032455
-0.00313627
-0.00302735
-0.00291875
-0.00281043
-0.00270241
-0.00259466
-0.00248717
-0.00237994
-0.00227295
-0.0021662
-0.00205966
-0.00195334
-0.00184722
-0.00174129
-0.00163554
-0.00152995
-0.00142452
-0.00131925
-0.0012141
-0.00110909
-0.00100418
-0.000899386
-0.000794683
-0.000690055
-0.000585527
-0.000480957
-0.000376758
-0.000271304
-0.000169159
-4.90785e-05
17.0676
8.63251
10.6425
10.8417
10.2457
0.417629
-9.48227
-9.51989
-12.187
-19.7667
-14.567
-1.96421
4.8963
5.28689
4.10684
3.79314
3.64963
3.1945
2.5535
1.98466
1.71147
1.70081
1.79323
1.98264
2.38704
2.92643
3.36949
3.60985
3.62313
3.48241
3.27145
3.04733
2.8492
2.6907
2.57365
2.51107
2.52524
2.63585
2.85277
3.1745
3.6152
4.29289
5.3904
6.00814
5.17254
4.5953
4.62533
4.99507
5.54041
5.83471
5.37628
4.97745
5.04618
5.33261
5.69453
5.97891
6.10607
6.26868
6.53638
6.84008
7.09933
7.28143
7.45482
7.64118
7.80239
7.9365
8.07237
8.20615
8.31911
8.41387
8.49388
8.55251
8.58781
8.60083
8.59034
8.55669
8.50162
8.42626
8.33203
8.22063
8.09366
7.95265
7.79899
7.63393
7.45871
7.27463
7.08303
6.88527
6.68268
6.47652
6.26794
6.05801
5.84774
5.63808
5.4299
5.22405
5.0213
4.82237
4.62787
4.43836
4.25428
4.07599
3.90377
3.7378
3.57819
3.425
3.2782
3.13773
3.00349
2.87533
2.75311
2.63663
2.52569
2.42011
2.31966
2.22413
2.1333
2.04696
1.96488
1.88685
1.81264
1.74202
1.67479
1.61072
1.54958
1.49118
1.43528
1.3817
1.33023
1.2807
1.23293
1.18676
1.14206
1.09871
1.05661
1.01566
0.975809
0.937
0.899197
0.862376
0.826525
0.791638
0.757715
0.72476
0.692779
0.66178
0.63177
0.602753
0.574734
0.547713
0.52169
0.496659
0.472613
0.449544
0.427438
0.40628
0.386053
0.366737
0.348309
0.330747
0.314024
0.298112
0.282983
0.268605
0.254949
0.24198
0.229666
0.217974
0.20687
0.19632
0.186294
0.176757
0.16768
0.159034
0.150789
0.142921
0.135404
0.128216
0.121336
0.114745
0.108426
0.102364
0.0965454
0.0909583
0.0855924
0.0804383
0.0754882
0.070735
0.0661727
0.0617957
0.0575991
0.0535783
0.049729
0.0460472
0.0425289
0.0391699
0.0359662
0.0329136
0.0300079
0.0272446
0.0246192
0.0221272
0.0197636
0.0175237
0.0154027
0.0133956
0.0114975
0.00970356
0.00800895
0.00640891
0.0048988
0.00347406
0.00213028
0.000863166
-0.000331411
-0.00145744
-0.00251874
-0.00351899
-0.00446169
-0.00535021
-0.00618775
-0.00697734
-0.0077219
-0.00842419
-0.00908682
-0.00971229
-0.010303
-0.0108611
-0.0113887
-0.011888
-0.0123607
-0.0128087
-0.0132337
-0.0136374
-0.0140211
-0.0143864
-0.0147346
-0.015067
-0.0153847
-0.015689
-0.0159808
-0.0162612
-0.016531
-0.0167912
-0.0170424
-0.0172855
-0.0175211
-0.0177498
-0.0179721
-0.0181887
-0.0183998
-0.018606
-0.0188075
-0.0190046
-0.0191975
-0.0193865
-0.0195716
-0.019753
-0.0199306
-0.0201044
-0.0202743
-0.0204403
-0.0206021
-0.0207596
-0.0209124
-0.0210603
-0.021203
-0.0213401
-0.0214711
-0.0215958
-0.0217137
-0.0218242
-0.0219271
-0.0220219
-0.0221083
-0.0221857
-0.0222539
-0.0223127
-0.0223617
-0.0224007
-0.0224296
-0.0224482
-0.0224565
-0.0224544
-0.022442
-0.0224192
-0.0223862
-0.0223432
-0.0222902
-0.0222275
-0.0221554
-0.0220743
-0.0219846
-0.0218868
-0.0217817
-0.0216698
-0.0215519
-0.0214289
-0.0213016
-0.0211709
-0.0210375
-0.020902
-0.0207651
-0.0206271
-0.0204881
-0.0203482
-0.020207
-0.0200644
-0.0199197
-0.0197726
-0.0196226
-0.0194691
-0.0193117
-0.0191503
-0.0189846
-0.0188145
-0.0186402
-0.0184617
-0.0182794
-0.0180935
-0.0179045
-0.0177128
-0.0175187
-0.0173227
-0.0171253
-0.0169268
-0.0167276
-0.0165282
-0.0163287
-0.0161296
-0.0159311
-0.0157334
-0.0155367
-0.0153412
-0.0151471
-0.0149544
-0.0147632
-0.0145737
-0.0143858
-0.0141997
-0.0140154
-0.0138328
-0.013652
-0.0134731
-0.0132959
-0.0131204
-0.0129467
-0.0127748
-0.0126045
-0.0124359
-0.012269
-0.0121036
-0.0119399
-0.0117777
-0.011617
-0.0114578
-0.0113
-0.0111437
-0.0109887
-0.0108351
-0.0106828
-0.0105318
-0.010382
-0.0102335
-0.0100861
-0.00993997
-0.00979494
-0.00965104
-0.00950822
-0.00936647
-0.00922577
-0.00908608
-0.00894739
-0.00880967
-0.00867291
-0.00853708
-0.00840217
-0.00826815
-0.008135
-0.00800271
-0.00787126
-0.00774063
-0.0076108
-0.00748176
-0.00735349
-0.00722598
-0.00709921
-0.00697316
-0.00684783
-0.00672319
-0.00659923
-0.00647594
-0.0063533
-0.00623131
-0.00610994
-0.00598919
-0.00586904
-0.00574948
-0.00563049
-0.00551207
-0.00539421
-0.00527688
-0.00516009
-0.00504381
-0.00492804
-0.00481276
-0.00469797
-0.00458365
-0.00446979
-0.00435637
-0.0042434
-0.00413085
-0.00401872
-0.00390699
-0.00379565
-0.0036847
-0.00357412
-0.0034639
-0.00335403
-0.00324451
-0.00313531
-0.00302642
-0.00291785
-0.00280957
-0.00270157
-0.00259386
-0.0024864
-0.0023792
-0.00227225
-0.00216553
-0.00205903
-0.00195274
-0.00184665
-0.00174075
-0.00163503
-0.00152947
-0.00142408
-0.00131883
-0.00121372
-0.00110874
-0.00100387
-0.0008991
-0.00079443
-0.000689833
-0.000585338
-0.0004808
-0.000376633
-0.000271212
-0.000169099
-4.90599e-05
24.1887
15.0384
12.2238
10.4421
3.33256
1.97033
-0.97139
-7.02806
-17.0979
-18.4819
-5.49945
-0.235089
1.56615
2.09002
2.44277
2.77038
3.01441
3.13204
3.19676
3.61082
4.18932
4.30367
3.9596
3.53299
3.61604
3.99546
3.92411
3.45815
2.75516
2.00224
1.36316
0.939608
0.730248
0.632193
0.535012
0.442579
0.456627
0.683796
1.20432
2.04053
3.16038
4.69468
7.32702
7.84243
4.64692
3.60063
3.4774
3.67268
4.43977
5.2467
4.03946
3.23011
3.44084
4.01039
4.71318
5.15404
5.0856
5.15563
5.48678
5.89922
6.22857
6.38456
6.56755
6.81387
7.01548
7.16582
7.34401
7.53347
7.686
7.81908
7.94343
8.04108
8.11131
8.15827
8.17797
8.17147
8.14185
8.08984
8.01711
7.92592
7.81806
7.69518
7.55866
7.40958
7.24912
7.07857
6.89938
6.71306
6.52107
6.32474
6.12528
5.9238
5.72132
5.51882
5.31724
5.11748
4.92039
4.72674
4.53724
4.35246
4.17291
3.99897
3.83093
3.669
3.51329
3.36385
3.22067
3.08367
2.95274
2.82774
2.70852
2.59488
2.48665
2.3836
2.28556
2.19229
2.10361
2.01929
1.93913
1.86291
1.79042
1.72144
1.65576
1.59317
1.53343
1.47635
1.4217
1.36928
1.3189
1.27036
1.2235
1.17815
1.13417
1.09146
1.0499
1.00942
0.969955
0.931462
0.893914
0.857296
0.821603
0.786838
0.753009
0.720128
0.688207
0.657259
0.627295
0.598324
0.570352
0.543383
0.517415
0.492446
0.46847
0.445476
0.423453
0.402384
0.382254
0.363041
0.344722
0.327275
0.310672
0.294885
0.279884
0.265639
0.252117
0.239284
0.227107
0.215551
0.204582
0.194165
0.184267
0.174855
0.165898
0.157364
0.149227
0.141459
0.134035
0.126932
0.12013
0.11361
0.107355
0.10135
0.0955826
0.0900406
0.0847145
0.0795957
0.0746767
0.0699512
0.0654137
0.0610591
0.0568831
0.0528816
0.0490507
0.0453867
0.0418859
0.0385443
0.0353582
0.0323234
0.0294358
0.0266909
0.0240843
0.0216113
0.019267
0.0170466
0.014945
0.0129574
0.0110786
0.00930385
0.0076281
0.00604657
0.00455454
0.0031474
0.00182069
0.000570095
-0.000608552
-0.00171925
-0.00276584
-0.00375199
-0.00468122
-0.00555687
-0.00638212
-0.00716003
-0.00789346
-0.00858517
-0.00923775
-0.00985368
-0.0104353
-0.0109848
-0.0115044
-0.0119959
-0.0124614
-0.0129025
-0.013321
-0.0137184
-0.0140964
-0.0144562
-0.0147993
-0.0151268
-0.01544
-0.01574
-0.0160279
-0.0163046
-0.0165709
-0.0168279
-0.0170762
-0.0173166
-0.0175497
-0.0177761
-0.0179965
-0.0182112
-0.0184208
-0.0186256
-0.018826
-0.0190222
-0.0192144
-0.0194029
-0.0195877
-0.0197689
-0.0199466
-0.0201206
-0.020291
-0.0204576
-0.0206203
-0.0207787
-0.0209326
-0.0210818
-0.0212258
-0.0213644
-0.021497
-0.0216232
-0.0217427
-0.0218548
-0.0219593
-0.0220556
-0.0221432
-0.022222
-0.0222913
-0.0223511
-0.0224009
-0.0224405
-0.0224699
-0.0224888
-0.0224973
-0.0224952
-0.0224825
-0.0224593
-0.0224258
-0.0223819
-0.0223279
-0.0222639
-0.0221904
-0.0221075
-0.0220158
-0.0219158
-0.0218081
-0.0216934
-0.0215727
-0.0214469
-0.0213168
-0.0211834
-0.0210477
-0.0209104
-0.0207721
-0.0206333
-0.020494
-0.0203542
-0.0202138
-0.0200721
-0.0199287
-0.0197829
-0.0196341
-0.0194817
-0.0193253
-0.0191644
-0.018999
-0.0188289
-0.0186542
-0.0184751
-0.0182918
-0.0181049
-0.0179146
-0.0177214
-0.0175259
-0.0173285
-0.0171296
-0.0169297
-0.0167292
-0.0165285
-0.016328
-0.0161278
-0.0159284
-0.0157299
-0.0155325
-0.0153364
-0.0151417
-0.0149486
-0.0147571
-0.0145673
-0.0143792
-0.014193
-0.0140085
-0.0138259
-0.0136451
-0.0134661
-0.0132889
-0.0131135
-0.0129399
-0.0127681
-0.0125979
-0.0124294
-0.0122626
-0.0120974
-0.0119338
-0.0117717
-0.0116111
-0.011452
-0.0112944
-0.0111382
-0.0109833
-0.0108298
-0.0106777
-0.0105268
-0.0103771
-0.0102287
-0.0100815
-0.00993542
-0.0097905
-0.00964669
-0.00950398
-0.00936233
-0.00922171
-0.00908211
-0.00894351
-0.00880588
-0.0086692
-0.00853345
-0.00839862
-0.00826467
-0.0081316
-0.00799938
-0.007868
-0.00773743
-0.00760767
-0.00747869
-0.00735049
-0.00722304
-0.00709633
-0.00697034
-0.00684506
-0.00672048
-0.00659657
-0.00647334
-0.00635075
-0.00622881
-0.0061075
-0.00598679
-0.00586669
-0.00574718
-0.00562825
-0.00550988
-0.00539206
-0.00527479
-0.00515804
-0.00504181
-0.00492608
-0.00481085
-0.0046961
-0.00458183
-0.00446801
-0.00435464
-0.00424171
-0.00412921
-0.00401712
-0.00390543
-0.00379414
-0.00368323
-0.00357269
-0.00346252
-0.00335269
-0.00324321
-0.00313405
-0.00302521
-0.00291668
-0.00280844
-0.00270049
-0.00259281
-0.0024854
-0.00237825
-0.00227133
-0.00216465
-0.0020582
-0.00195195
-0.0018459
-0.00174004
-0.00163437
-0.00152886
-0.0014235
-0.0013183
-0.00121323
-0.00110829
-0.00100346
-0.000898739
-0.000794111
-0.000689557
-0.000585104
-0.000480609
-0.000376485
-0.000271107
-0.000169035
-4.90471e-05
38.5774
34.3499
13.161
3.48703
1.28813
0.927314
0.66525
-0.496708
-14.5426
-37.7743
-18.1367
-0.627038
-0.382691
-0.380034
-0.417602
-0.275929
-0.0542541
0.143146
0.249068
0.468703
0.637728
0.908548
1.13772
1.1552
0.836064
0.733806
0.618861
0.546244
0.500139
0.459295
0.424392
0.406118
0.402381
0.399419
0.391431
0.38681
0.389463
0.397798
0.421743
0.520606
0.778267
1.4762
5.65274
8.46446
0.0562498
-0.714779
0.722754
2.62101
5.69113
8.26392
3.5876
2.27176
2.37543
2.51822
3.37531
4.17287
3.64681
3.54094
4.03208
4.75701
5.27913
5.26125
5.41181
5.76631
6.01369
6.1515
6.40157
6.68756
6.88509
7.06537
7.25523
7.40377
7.5187
7.61043
7.66658
7.69255
7.69453
7.67114
7.62477
7.55851
7.47435
7.37428
7.25945
7.13055
6.98857
6.83484
6.67102
6.49886
6.32001
6.13594
5.94787
5.75693
5.56415
5.37054
5.17711
4.98486
4.79474
4.60762
4.42427
4.24536
4.07143
3.9029
3.74008
3.5832
3.43237
3.28764
3.14899
3.01633
2.88956
2.76852
2.65305
2.54297
2.43809
2.33822
2.24317
2.15272
2.0667
1.9849
1.90712
1.83315
1.7628
1.69587
1.63213
1.57137
1.51339
1.45796
1.40487
1.35391
1.30489
1.2576
1.21187
1.16755
1.12448
1.08255
1.04167
1.00176
0.962769
0.924658
0.887413
0.851032
0.815519
0.780891
0.747166
0.714365
0.682508
0.651615
0.621702
0.592782
0.564865
0.537956
0.512057
0.487165
0.463274
0.440376
0.418456
0.397501
0.377492
0.358408
0.340227
0.322924
0.306473
0.290843
0.276005
0.261927
0.248574
0.235913
0.223909
0.212525
0.201727
0.191477
0.181742
0.172487
0.16368
0.15529
0.147287
0.139644
0.132336
0.125341
0.118636
0.112204
0.106029
0.100095
0.0943897
0.0889033
0.083626
0.0785501
0.0736689
0.068977
0.0644694
0.0601419
0.0559908
0.0520127
0.0482041
0.0445617
0.0410823
0.0377622
0.0345978
0.0315851
0.0287201
0.0259983
0.0234152
0.0209661
0.018646
0.01645
0.014373
0.0124098
0.0105554
0.00880474
0.0071527
0.00559442
0.00412509
0.00274004
0.00143474
0.000204844
-0.000953855
-0.00204537
-0.00307357
-0.0040421
-0.00495449
-0.00581407
-0.00662401
-0.00738732
-0.00810688
-0.0087854
-0.00942546
-0.0100295
-0.0105998
-0.0111387
-0.0116481
-0.0121301
-0.0125864
-0.013019
-0.0134294
-0.0138192
-0.0141899
-0.0145429
-0.0148795
-0.0152011
-0.0155086
-0.0158033
-0.0160862
-0.0163583
-0.0166204
-0.0168734
-0.017118
-0.017355
-0.017585
-0.0178087
-0.0180265
-0.018239
-0.0184467
-0.0186498
-0.0188487
-0.0190437
-0.0192351
-0.0194229
-0.0196073
-0.0197884
-0.0199662
-0.0201406
-0.0203116
-0.020479
-0.0206427
-0.0208023
-0.0209577
-0.0211084
-0.0212542
-0.0213946
-0.0215292
-0.0216575
-0.0217789
-0.0218931
-0.0219996
-0.0220977
-0.0221872
-0.0222676
-0.0223384
-0.0223993
-0.0224502
-0.0224907
-0.0225206
-0.0225399
-0.0225485
-0.0225464
-0.0225335
-0.0225099
-0.0224756
-0.0224308
-0.0223756
-0.0223102
-0.0222347
-0.0221495
-0.0220551
-0.0219519
-0.0218407
-0.0217223
-0.0215976
-0.0214678
-0.0213338
-0.021197
-0.0210583
-0.0209187
-0.020779
-0.0206396
-0.0205007
-0.0203622
-0.0202236
-0.0200842
-0.0199433
-0.0198
-0.0196535
-0.019503
-0.0193478
-0.0191877
-0.0190224
-0.0188518
-0.0186762
-0.0184957
-0.0183107
-0.0181217
-0.0179293
-0.0177339
-0.0175361
-0.0173365
-0.0171355
-0.0169336
-0.0167312
-0.0165288
-0.0163267
-0.0161252
-0.0159246
-0.015725
-0.0155267
-0.0153299
-0.0151346
-0.0149409
-0.014749
-0.0145589
-0.0143706
-0.0141842
-0.0139996
-0.0138169
-0.0136361
-0.0134572
-0.01328
-0.0131047
-0.0129312
-0.0127595
-0.0125894
-0.0124211
-0.0122544
-0.0120894
-0.0119259
-0.011764
-0.0116036
-0.0114447
-0.0112872
-0.0111312
-0.0109765
-0.0108232
-0.0106711
-0.0105204
-0.0103709
-0.0102226
-0.0100755
-0.00992961
-0.00978483
-0.00964115
-0.00949856
-0.00935703
-0.00921654
-0.00907705
-0.00893856
-0.00880104
-0.00866446
-0.00852882
-0.00839408
-0.00826023
-0.00812725
-0.00799512
-0.00786383
-0.00773335
-0.00760367
-0.00747478
-0.00734665
-0.00721928
-0.00709264
-0.00696673
-0.00684152
-0.00671701
-0.00659318
-0.00647001
-0.0063475
-0.00622562
-0.00610437
-0.00598373
-0.0058637
-0.00574425
-0.00562538
-0.00550707
-0.00538932
-0.0052721
-0.00515541
-0.00503924
-0.00492357
-0.0048084
-0.00469371
-0.00457949
-0.00446573
-0.00435242
-0.00423954
-0.00412709
-0.00401506
-0.00390343
-0.00379219
-0.00368134
-0.00357085
-0.00346073
-0.00335096
-0.00324153
-0.00313243
-0.00302364
-0.00291517
-0.00280698
-0.00269909
-0.00259146
-0.00248411
-0.002377
-0.00227015
-0.00216352
-0.00205712
-0.00195092
-0.00184493
-0.00173913
-0.0016335
-0.00152805
-0.00142275
-0.0013176
-0.00121258
-0.0011077
-0.00100292
-0.000898252
-0.000793677
-0.000689177
-0.000584778
-0.000480337
-0.000376266
-0.000270943
-0.000168925
-4.90095e-05
31.5164
17.2312
3.47505
0.67587
0.588373
0.506372
0.44434
0.254836
-0.240914
-1.27045
-0.377748
-0.338688
-0.286043
-0.287729
-0.376969
-0.288423
-0.0890947
0.0871708
0.161334
0.151388
0.234289
0.481313
0.75379
0.90941
0.803047
0.640472
0.538003
0.487685
0.46185
0.445434
0.434008
0.427449
0.426035
0.428221
0.432273
0.4382
0.445304
0.451712
0.466988
0.52328
0.67812
0.965781
1.12068
0.0294509
-0.479616
0.0566816
0.467981
1.19436
4.18137
10.8019
-2.20221
-2.72442
0.0963023
2.29278
4.96302
5.95744
3.12238
2.47008
2.52995
3.30389
4.30023
3.85375
3.91117
4.52217
4.88103
4.87429
5.22984
5.68581
5.90569
6.13999
6.4323
6.63668
6.80501
6.95796
7.0566
7.12155
7.16271
7.17213
7.15594
7.11884
7.0629
6.9907
6.9025
6.79815
6.67837
6.54459
6.39889
6.24346
6.08024
5.91082
5.73643
5.55813
5.37694
5.19389
5.01011
4.82671
4.64478
4.46534
4.28926
4.1173
3.95004
3.78796
3.63139
3.48057
3.33561
3.19654
3.06334
2.93592
2.81415
2.69787
2.58692
2.4811
2.38024
2.28416
2.19268
2.1056
2.02274
1.94393
1.86898
1.79771
1.72991
1.6654
1.60398
1.54543
1.48954
1.4361
1.38489
1.3357
1.28831
1.24253
1.19817
1.15507
1.11309
1.0721
1.03202
0.992779
0.954331
0.916656
0.879752
0.843631
0.808314
0.773831
0.740213
0.707492
0.675699
0.64486
0.615
0.586135
0.558279
0.531439
0.505619
0.480817
0.457027
0.434241
0.412446
0.391626
0.371762
0.352835
0.334819
0.317691
0.301422
0.285983
0.271342
0.257465
0.244319
0.231867
0.220073
0.208899
0.198307
0.188261
0.178724
0.16966
0.161035
0.152818
0.144978
0.137486
0.130319
0.123452
0.116864
0.110537
0.104456
0.0986053
0.0929743
0.0875529
0.0823325
0.0773065
0.0724691
0.0678157
0.0633425
0.0590461
0.0549237
0.0509724
0.0471896
0.0435724
0.0401181
0.0368233
0.0336846
0.0306983
0.0278602
0.0251662
0.0226114
0.0201911
0.0179004
0.0157339
0.0136866
0.0117531
0.00992817
0.0082066
0.00658323
0.00505302
0.00361109
0.00225266
0.000973158
-0.000231836
-0.00136655
-0.00243503
-0.00344113
-0.00438854
-0.00528074
-0.00612106
-0.00691266
-0.00765852
-0.00836148
-0.00902423
-0.00964931
-0.0102391
-0.010796
-0.0113221
-0.0118194
-0.0122899
-0.0127354
-0.0131577
-0.0135584
-0.0139391
-0.0143011
-0.014646
-0.014975
-0.0152893
-0.0155902
-0.0158785
-0.0161555
-0.0164221