/*--------------------------------*- C++ -*----------------------------------*\
| =========                 |                                                 |
| \\      /  F ield         | OpenFOAM: The Open Source CFD Toolbox           |
|  \\    /   O peration     | Version:  v2006                                 |
|   \\  /    A nd           | Website:  www.openfoam.com                      |
|    \\/     M anipulation  |                                                 |
\*---------------------------------------------------------------------------*/
FoamFile
{
    version     2.0;
    format      ascii;
    class       volScalarField;
    location    "0";
    object      shifted_f;
}
// * * * * * * * * * * * * * * * * * * * * * * * * * * * * * * * * * * * * * //

dimensions      [0 0 0 0 0 0 0];


internalField   nonuniform List<scalar> 
2500
(
0.0556902
0.0556902
0.0556907
0.055691
0.055691
0.0556913
0.0556913
0.0556916
0.0556914
0.0556919
0.0556919
0.055692
0.0556919
0.0556924
0.0556925
0.0556924
0.055693
0.0556932
0.0556932
0.0556934
0.0556937
0.0556936
0.0556938
0.0556943
0.0556941
0.0556947
0.0556948
0.055695
0.0556953
0.0556952
0.0556958
0.0556961
0.0556963
0.0250554
0.0250563
0.0250569
0.0250573
0.0250579
0.0250587
0.0250592
0.0250595
0.02506
0.0250609
0.0250609
0.0250615
0.0250622
0.0250627
0.0250629
0.0250634
0.0250639
0.0250643
0.0250647
0.0250649
0.0250655
0.0250659
0.0250663
0.0250667
0.0250669
0.0250671
0.0250677
0.0250679
0.0250682
0.0250685
0.0250688
0.0250691
0.0250693
0.0250696
0.02507
0.0250703
0.0250706
0.0250709
0.0250708
0.0250714
0.0250713
0.0250718
0.0250722
0.0250722
0.0250724
0.0250726
0.0250727
0.0250729
0.0250734
0.0250737
0.0250739
0.0250741
0.0250742
0.0250744
0.0250746
0.0250749
0.0250748
0.0250752
0.0250752
0.0250756
0.0250759
0.0250758
0.0250763
0.0250764
0.0250767
0.0250768
0.0250773
0.0250773
0.0250771
0.0250777
0.0250777
0.025078
0.0250783
0.0250783
0.0250784
0.0250787
0.0250791
0.0250791
0.0250793
0.0250796
0.02508
0.0250801
0.0250804
0.0250805
0.0250807
0.025081
0.0250814
0.0250811
0.0250817
0.0250819
0.0250821
0.0250822
0.0250822
0.0250828
0.0250831
0.0250835
0.0250836
0.0250839
0.025084
0.0250844
0.0250846
0.00892517
0.00892553
0.00892572
0.00892575
0.00892621
0.00892608
0.0089264
0.00892661
0.00892683
0.00892707
0.00892726
0.00892774
0.008928
0.0089281
0.00892818
0.00892818
0.00892865
0.00892874
0.00892916
0.008929
0.00892918
0.00892959
0.00892987
0.00892984
0.00892983
0.0089299
0.0089304
0.00893053
0.00893059
0.00893066
0.00893089
0.00893113
0.00893102
0.00893142
0.00893183
0.00893183
0.00893174
0.00893186
0.00893232
0.0089321
0.00893252
0.00893245
0.00893267
0.00893295
0.00893291
0.00893296
0.00893317
0.00893339
0.00893367
0.00893348
0.00893382
0.00893392
0.00893409
0.00893428
0.00893437
0.00893449
0.00893467
0.00893483
0.00893492
0.00893508
0.00893534
0.00893539
0.00893544
0.00893547
0.00893582
0.00893584
0.00893623
0.0089365
0.00893625
0.00893649
0.00893666
0.0089368
0.0089369
0.00893696
0.00893733
0.00893743
0.00893757
0.00893782
0.00893801
0.00893791
0.00893813
0.00893844
0.00893869
0.00893867
0.00893908
0.0089392
0.00893948
0.00893955
0.00893962
0.00893958
0.00893992
0.00894014
0.00894036
0.00894046
0.00894063
0.00894083
0.00894125
0.00894109
0.00894162
0.00894171
0.00894203
0.0020134
0.0020135
0.0020134
0.0020135
0.0020138
0.00201373
0.00201382
0.00201408
0.00201415
0.00201425
0.00201445
0.00201448
0.00201444
0.00201432
0.00201441
0.00201483
0.00201468
0.00201474
0.00201481
0.00201501
0.00201523
0.00201523
0.00201518
0.00201539
0.00201542
0.00201572
0.00201566
0.0020158
0.00201602
0.00201579
0.00201578
0.0020158
0.00201611
0.00201618
0.0020162
0.00201637
0.00201632
0.00201635
0.00201652
0.00201626
0.00201647
0.00201657
0.00201674
0.00201677
0.00201697
0.00201683
0.00201678
0.00201728
0.00201712
0.00201744
0.00201728
0.00201774
0.00201764
0.00201763
0.00201757
0.00201757
0.00201767
0.00201773
0.00201805
0.00201808
0.00201804
0.0020181
0.00201835
0.00201849
0.00201838
0.00201854
0.00201887
0.00201865
0.00201877
0.00201875
0.00201898
0.00201919
0.00201917
0.00201917
0.0020193
0.00201955
0.00201941
0.00201955
0.00201981
0.00201969
0.00201991
0.00202003
0.00201988
0.00202008
0.00202016
0.00202037
0.00202039
0.00202051
0.00202079
0.00202053
0.00202065
0.00202081
0.00202103
0.0020211
0.00202126
0.00202119
0.00202134
0.00202152
0.00202153
0.00202173
0.00202187
-8.06041e-05
-8.05408e-05
-8.03731e-05
-8.04104e-05
-8.03433e-05
-8.01273e-05
-8.02688e-05
-8.04029e-05
-8.01235e-05
-8.03098e-05
-8.02502e-05
-8.00453e-05
-8.03284e-05
-8.00937e-05
-8.01347e-05
-7.99261e-05
-7.99149e-05
-8.00677e-05
-7.9859e-05
-7.97473e-05
-7.98963e-05
-8.00081e-05
-7.96206e-05
-7.97138e-05
-7.96504e-05
-7.9941e-05
-7.96802e-05
-7.96281e-05
-7.94716e-05
-7.94865e-05
-7.93077e-05
-7.94902e-05
-7.92556e-05
-7.95014e-05
-7.96281e-05
-7.94791e-05
-7.94567e-05
-7.94157e-05
-7.94046e-05
-7.93077e-05
-7.93114e-05
-7.91959e-05
-7.9114e-05
-7.90618e-05
-7.91363e-05
-7.90171e-05
-7.90209e-05
-7.89948e-05
-7.91624e-05
-7.89911e-05
-7.90283e-05
-7.88011e-05
-7.89389e-05
-7.8842e-05
-7.88532e-05
-7.87117e-05
-7.88383e-05
-7.87452e-05
-7.87377e-05
-7.8585e-05
-7.86223e-05
-7.85738e-05
-7.86148e-05
-7.88271e-05
-7.85515e-05
-7.85254e-05
-7.85254e-05
-7.84956e-05
-7.8436e-05
-7.84099e-05
-7.85142e-05
-7.81789e-05
-7.82236e-05
-7.83093e-05
-7.80933e-05
-7.81976e-05
-7.80486e-05
-7.80858e-05
-7.82572e-05
-7.81305e-05
-7.81044e-05
-7.80337e-05
-7.79219e-05
-7.80076e-05
-7.78697e-05
-7.78995e-05
-7.77803e-05
-7.78176e-05
-7.78399e-05
-7.77245e-05
-7.78027e-05
-7.75792e-05
-7.76649e-05
-7.77505e-05
-7.74972e-05
-7.74078e-05
-7.74153e-05
-7.74376e-05
-7.76164e-05
-7.72886e-05
-7.73259e-05
-0.000126053
-0.000126116
-0.000126068
-0.000126027
-0.000126068
-0.000126094
-0.0001259
-0.000125956
-0.000125851
-0.000125837
-0.000125829
-0.000125907
-0.000125889
-0.000125978
-0.000125818
-0.000125784
-0.000126053
-0.000126023
-0.00012574
-0.000125751
-0.000125643
-0.000125781
-0.000125706
-0.000125736
-0.000125788
-0.000125665
-0.000125919
-0.000125874
-0.000125654
-0.000125676
-0.000125896
-0.000125688
-0.000125919
-0.00012584
-0.000125814
-0.000125807
-0.000125561
-0.000125475
-0.000125568
-0.000125546
-0.00012565
-0.000125811
-0.000125628
-0.000125736
-0.000125781
-0.000125777
-0.00012574
-0.00012577
-0.00012568
-0.000125747
-0.000125665
-0.000125613
-0.000125781
-0.000125665
-0.000125576
-0.000125613
-0.000125486
-0.00012577
-0.000125524
-0.000125725
-0.000125755
-0.00012574
-0.000125658
-0.000125881
-0.000125691
-0.000125613
-0.000125732
-0.000125911
-0.000125632
-0.000125837
-0.000125721
-0.00012574
-0.000125777
-0.000125829
-0.000125814
-0.000125717
-0.000125796
-0.000125676
-0.000125751
-0.000125617
-0.000125855
-0.00012577
-0.000125971
-0.000125859
-0.000125919
-0.000125799
-0.00012587
-0.000125859
-0.000125553
-0.000125837
-0.000125952
-0.000126045
-0.00012577
-0.000125933
-0.000125725
-0.000125792
-0.000125762
-0.000125915
-0.000125743
-0.000125859
-0.000125993
0.000449065
0.000448976
0.000448924
0.000448894
0.00044905
0.000449013
0.000448953
0.000449151
0.000449073
0.000449117
0.000449073
0.000449125
0.00044911
0.000449169
0.000449006
0.000449169
0.000449236
0.00044902
0.000449043
0.000448849
0.000448968
0.000448946
0.000449095
0.000449147
0.00044911
0.000449203
0.000449095
0.000448924
0.000449087
0.00044892
0.000448946
0.000448942
0.000448953
0.000449132
0.00044889
0.000448782
0.00044876
0.000448909
0.000449289
0.000448879
0.00044905
0.000448782
0.000448946
0.000448819
0.000448909
0.000448909
0.000448789
0.000448652
0.0004487
0.000448722
0.00044886
0.000448778
0.00044902
0.000448961
0.000448972
0.000449095
0.00044876
0.000448897
0.000448622
0.000449035
0.000448689
0.000448737
0.000448693
0.000448715
0.000448748
0.000448529
0.000448648
0.000448611
0.000448696
0.000448614
0.000448707
0.000448618
0.000448462
0.000448529
0.000448424
0.000448599
0.00044867
0.000448402
0.000448432
0.000448421
0.000448368
0.000448205
0.000448499
0.000448283
0.000448313
0.00044819
0.000448372
0.000448454
0.000448395
0.000448499
0.000448316
0.000448082
0.000447962
0.000448123
0.000448104
0.000448078
0.000448022
0.000448119
0.000447992
0.000447948
0.000448141
0.00101659
0.00101681
0.00101659
0.00101684
0.0010165
0.00101671
0.00101665
0.00101671
0.00101646
0.00101669
0.00101672
0.00101629
0.00101646
0.00101657
0.00101666
0.00101649
0.0010165
0.00101652
0.00101656
0.00101646
0.00101637
0.00101663
0.00101635
0.00101627
0.00101628
0.00101653
0.0010163
0.00101624
0.00101622
0.00101645
0.00101627
0.0010164
0.00101628
0.00101634
0.00101634
0.00101637
0.00101638
0.00101629
0.00101629
0.00101629
0.00101629
0.00101619
0.0010164
0.00101623
0.00101614
0.00101611
0.00101605
0.00101604
0.00101639
0.00101611
0.00101601
0.00101608
0.00101608
0.00101614
0.00101607
0.00101602
0.00101606
0.00101595
0.00101594
0.00101591
0.00101614
0.00101594
0.00101575
0.00101597
0.00101603
0.00101585
0.00101589
0.00101588
0.00101597
0.0010157
0.00101585
0.00101586
0.00101579
0.00101564
0.00101588
0.00101604
0.00101561
0.0010156
0.0010157
0.00101577
0.00101545
0.00101538
0.00101544
0.00101573
0.0010154
0.00101533
0.00101536
0.00101538
0.00101566
0.00101548
0.0010154
0.00101551
0.00101528
0.00101563
0.00101521
0.00101538
0.00101538
0.00101546
0.00101525
0.00101523
0.00101521
0.00135505
0.00135516
0.00135508
0.00135514
0.00135502
0.00135498
0.00135495
0.00135482
0.00135498
0.00135494
0.00135507
0.00135499
0.00135507
0.00135487
0.00135487
0.00135482
0.00135491
0.00135529
0.00135482
0.00135488
0.00135484
0.00135488
0.00135496
0.00135493
0.00135494
0.00135476
0.00135474
0.00135468
0.00135479
0.00135495
0.00135479
0.00135485
0.00135469
0.00135473
0.00135479
0.00135474
0.00135461
0.00135458
0.0013547
0.00135478
0.00135468
0.00135474
0.00135476
0.00135458
0.00135453
0.00135456
0.00135458
0.00135443
0.00135462
0.00135445
0.0013545
0.00135454
0.00135427
0.00135436
0.00135447
0.00135442
0.00135448
0.00135458
0.0013545
0.00135471
0.00135428
0.00135436
0.00135433
0.00135444
0.00135432
0.00135435
0.00135426
0.0013543
0.00135428
0.00135402
0.00135424
0.00135394
0.00135406
0.00135427
0.00135417
0.00135397
0.0013542
0.00135406
0.00135403
0.00135398
0.00135395
0.00135396
0.00135383
0.00135411
0.00135413
0.00135382
0.00135389
0.00135387
0.00135401
0.00135389
0.00135366
0.00135384
0.00135371
0.00135364
0.0013536
0.00135376
0.00135385
0.00135381
0.00135393
0.00135378
0.00135365
0.00143507
0.00143505
0.00143506
0.00143496
0.00143499
0.001435
0.00143492
0.00143509
0.00143483
0.00143487
0.00143487
0.00143481
0.00143494
0.00143486
0.00143481
0.00143451
0.00143474
0.00143478
0.00143469
0.00143466
0.00143488
0.00143457
0.0014346
0.00143467
0.00143469
0.00143464
0.00143467
0.00143474
0.00143469
0.00143463
0.00143434
0.00143427
0.00143431
0.00143462
0.00143443
0.00143426
0.00143455
0.00143454
0.00143465
0.00143449
0.00143442
0.0014345
0.00143442
0.00143448
0.00143427
0.00143444
0.00143449
0.00143445
0.00143451
0.0014344
0.0014343
0.00143398
0.00143435
0.00143438
0.00143424
0.0014342
0.0014343
0.0014342
0.00143421
0.00143409
0.00143412
0.00143399
0.00143414
0.00143394
0.00143417
0.00143403
0.00143399
0.00143408
0.00143416
0.00143418
0.00143411
0.00143393
0.00143426
0.00143398
0.00143397
0.00143402
0.00143395
0.00143382
0.00143386
0.00143408
0.00143406
0.00143416
0.00143393
0.00143387
0.00143394
0.0014338
0.00143365
0.00143382
0.00143382
0.00143389
0.00143364
0.00143369
0.0014338
0.00143363
0.00143362
0.00143398
0.00143373
0.00143361
0.00143385
0.00143367
0.00143377
0.00131121
0.00131121
0.00131107
0.00131106
0.0013112
0.00131072
0.00131083
0.00131074
0.00131101
0.00131079
0.00131086
0.00131081
0.00131084
0.00131068
0.0013108
0.00131072
0.00131058
0.00131059
0.00131045
0.00131055
0.00131049
0.00131049
0.00131053
0.00131037
0.00131045
0.00131055
0.00131051
0.00131033
0.00131014
0.00131031
0.00131043
0.0013105
0.00131037
0.00131018
0.0013105
0.00131018
0.00131027
0.0013102
0.00131011
0.00131009
0.00131015
0.00131016
0.00131015
0.00130994
0.00131008
0.00131
0.0013099
0.00130985
0.00131005
0.00131001
0.00131007
0.00131003
0.00130988
0.00130992
0.00130984
0.00131011
0.00130996
0.00130988
0.00130982
0.0013097
0.00130976
0.00130988
0.00130977
0.00130953
0.00130956
0.00130967
0.0013096
0.00130957
0.00130976
0.00130986
0.0013097
0.00130975
0.00130955
0.00130965
0.00130969
0.00130955
0.0013098
0.00130962
0.00130975
0.00130991
0.0013097
0.00130975
0.00130958
0.00130943
0.00130947
0.00130956
0.00130955
0.0013095
0.00130923
0.00130962
0.00130944
0.00130964
0.00130969
0.00130956
0.00130927
0.00130961
0.00130944
0.00130942
0.00130936
0.00130927
0.00130934
0.00106673
0.00106676
0.00106674
0.00106658
0.00106652
0.00106633
0.00106654
0.00106643
0.0010665
0.00106627
0.00106667
0.00106641
0.00106633
0.00106627
0.00106619
0.00106624
0.00106629
0.00106606
0.00106611
0.001066
0.0010658
0.00106601
0.00106589
0.00106596
0.00106595
0.00106572
0.0010659
0.00106584
0.00106561
0.00106558
0.00106572
0.00106583
0.0010657
0.00106581
0.00106558
0.00106555
0.00106566
0.00106556
0.00106564
0.00106537
0.00106532
0.00106554
0.00106556
0.00106542
0.00106516
0.0010651
0.00106532
0.00106521
0.00106519
0.00106525
0.00106518
0.00106542
0.00106516
0.00106526
0.001065
0.00106503
0.00106505
0.00106517
0.00106497
0.001065
0.001065
0.00106507
0.00106503
0.00106506
0.00106511
0.00106515
0.001065
0.00106477
0.00106479
0.00106494
0.00106496
0.00106497
0.00106475
0.00106477
0.00106478
0.0010646
0.00106471
0.00106476
0.00106461
0.00106462
0.0010647
0.0010647
0.00106466
0.00106489
0.00106479
0.0010647
0.00106472
0.00106462
0.0010648
0.00106466
0.00106469
0.00106465
0.00106442
0.00106466
0.00106468
0.00106448
0.0010647
0.00106474
0.00106453
0.0010646
0.00106444
0.00078677
0.000786833
0.000786476
0.000786554
0.000786383
0.000786625
0.000786606
0.000786487
0.00078636
0.000786368
0.000786532
0.000786003
0.000786297
0.000786103
0.000786234
0.000786249
0.000786055
0.00078607
0.000785995
0.000785947
0.000785891
0.000785965
0.000785761
0.000785891
0.000785794
0.000785768
0.000785705
0.000785682
0.000785828
0.000785779
0.000785593
0.000785656
0.000785563
0.000785317
0.000785332
0.000785105
0.000785176
0.000785425
0.000785276
0.000785317
0.000785258
0.000785265
0.000785068
0.000785287
0.000785135
0.000784986
0.000785034
0.000784937
0.000784848
0.00078487
0.0007849
0.000784729
0.000784952
0.000784647
0.000784855
0.000784766
0.000784796
0.000784658
0.000784751
0.000784721
0.000784669
0.000784747
0.00078465
0.000784695
0.000784758
0.000784557
0.000784587
0.000784677
0.000784595
0.000784606
0.000784311
0.000784542
0.000784416
0.000784289
0.000784356
0.000784297
0.000784498
0.000784252
0.000784133
0.000784233
0.000784494
0.000784185
0.000784326
0.0007842
0.000784237
0.000784393
0.000784002
0.000784036
0.000784282
0.000784021
0.000783969
0.000784058
0.000784088
0.000783969
0.000784118
0.00078382
0.000783857
0.000784032
0.000783976
0.000783898
0.000784118
0.000543166
0.000543285
0.00054327
0.000542935
0.000543039
0.000542868
0.000542827
0.00054295
0.000542831
0.000542816
0.000542641
0.000542633
0.000542667
0.00054257
0.000542469
0.000542548
0.000542384
0.000542261
0.000542361
0.000542305
0.000542168
0.000542291
0.000542257
0.000542156
0.000542104
0.000542182
0.000542093
0.000542078
0.000541996
0.000542209
0.000541728
0.000542056
0.000541799
0.000541806
0.000541884
0.000541631
0.000541721
0.000541706
0.000541583
0.000541799
0.000541613
0.00054149
0.000541616
0.000541572
0.000541419
0.000541519
0.000541266
0.000541322
0.000541013
0.000541348
0.000541307
0.000541154
0.000541355
0.000541024
0.000541095
0.00054105
0.000541136
0.000541061
0.000540797
0.000540737
0.000540975
0.000540655
0.000540879
0.000540797
0.000540789
0.000540871
0.000540789
0.000540726
0.000540789
0.00054067
0.000540778
0.000540789
0.000540849
0.000540722
0.000540849
0.000540633
0.00054067
0.000540506
0.000540663
0.000540465
0.000540625
0.000540484
0.000540633
0.000540469
0.000540625
0.000540305
0.000540528
0.000540558
0.000540353
0.000540223
0.00054023
0.000540104
0.000540201
0.000540245
0.000540074
0.000540245
0.000539966
0.000539955
0.000540063
0.000540022
0.000540201
0.000391211
0.000391103
0.000391077
0.000390943
0.000390943
0.000390887
0.000391122
0.000390936
0.000390805
0.000390857
0.000390586
0.000390723
0.000390753
0.000390746
0.000390757
0.000390571
0.000390556
0.000390504
0.000390518
0.000390399
0.000390641
0.000390608
0.000390381
0.000390466
0.000390343
0.000390392
0.000390362
0.000390261
0.000390086
0.000390138
0.000390355
0.000390124
0.000390206
0.000390094
0.000389975
0.000390101
0.000390045
0.0003899
0.000389967
0.000389967
0.000389859
0.00038984
0.000389878
0.000389878
0.000389919
0.000389863
0.000389803
0.000389777
0.000389621
0.000389669
0.0003899
0.000389658
0.00038977
0.000389542
0.000389319
0.000389393
0.000389449
0.000389624
0.000389535
0.000389334
0.000389334
0.000389483
0.000389356
0.000389386
0.000389349
0.000389263
0.000389297
0.000389453
0.000389487
0.00038946
0.000389304
0.000389431
0.000389285
0.000389364
0.000389375
0.000389222
0.000389192
0.000389308
0.000389244
0.000389267
0.000388928
0.00038908
0.000389133
0.000388898
0.000389036
0.000388894
0.000388931
0.000388857
0.000388976
0.000388756
0.000388812
0.000388786
0.000388775
0.000388604
0.000388715
0.000388782
0.000388723
0.000388652
0.000388552
0.000388611
0.000388455
0.000369828
0.000369776
0.000369787
0.000369735
0.000369553
0.000369638
0.000369728
0.000369843
0.000369668
0.000369694
0.000369664
0.00036969
0.000369433
0.000369705
0.00036956
0.000369582
0.000369649
0.000369351
0.000369597
0.0003695
0.000369549
0.000369687
0.000369716
0.000369702
0.000369862
0.000369448
0.000369679
0.000369828
0.000369485
0.00036969
0.000369605
0.000369389
0.000369463
0.000369545
0.000369687
0.000369553
0.000369415
0.000369325
0.00036953
0.000369474
0.000369426
0.000369605
0.000369389
0.000369765
0.000369702
0.000369497
0.000369575
0.000369605
0.00036924
0.000369281
0.000369508
0.000369523
0.000369318
0.000369269
0.000369381
0.000369433
0.000369154
0.000369336
0.000369515
0.000369404
0.00036953
0.000369489
0.000369329
0.00036931
0.000369404
0.000369508
0.000369433
0.000369478
0.000369184
0.000369426
0.000369329
0.000369307
0.000369135
0.00036943
0.00036912
0.000369232
0.000369277
0.000369225
0.000369195
0.000369117
0.00036931
0.000369195
0.000369057
0.000369191
0.00036953
0.000369165
0.000369377
0.00036931
0.000369351
0.000369195
0.000369478
0.000369329
0.000369441
0.000369161
0.000369158
0.000369363
0.0003694
0.000369322
0.000369359
0.000369377
0.000369173
0.000503406
0.000503372
0.000503462
0.000503425
0.000503607
0.000503678
0.000503842
0.000503536
0.000503667
0.000503842
0.000503719
0.000503846
0.000504065
0.000504039
0.000503976
0.000504151
0.000504088
0.000504334
0.0005043
0.000504352
0.000504117
0.000504591
0.000504285
0.000504613
0.000504699
0.000504583
0.000504691
0.000504635
0.000504665
0.000504822
0.000504751
0.000504725
0.000504829
0.000504784
0.000504952
0.000505116
0.000504952
0.000505209
0.000505287
0.000505131
0.000505369
0.000505336
0.000505306
0.000505235
0.000505168
0.000505287
0.000505351
0.000505373
0.000505354
0.000505447
0.000505682
0.000505615
0.000505377
0.00050563
0.000505514
0.000505615
0.00050563
0.000505768
0.000505663
0.000505764
0.000505749
0.000505995
0.000506014
0.000506032
0.000506025
0.000506062
0.000505883
0.000505947
0.000506066
0.000505988
0.000506289
0.000506211
0.000506349
0.000506237
0.000506219
0.000506327
0.000506226
0.000506278
0.000506166
0.000506364
0.000506382
0.00050633
0.000506546
0.000506423
0.000506509
0.000506658
0.00050655
0.000506639
0.000506666
0.000506807
0.000506695
0.000506584
0.00050677
0.000506777
0.000506878
0.000506919
0.000506822
0.000506688
0.000506915
0.000506893
0.000506885
0.000806134
0.000806298
0.000806358
0.000806484
0.00080682
0.000806879
0.000806805
0.000807252
0.000807285
0.000807386
0.000807576
0.000807967
0.000807934
0.000808049
0.00080815
0.00080825
0.000808518
0.000808589
0.000808649
0.000808876
0.000809047
0.000809088
0.000809193
0.000809159
0.000809278
0.00080948
0.000809584
0.00080977
0.000809804
0.00080996
0.000810206
0.000810254
0.000810497
0.000810537
0.000810504
0.000810798
0.000810686
0.000811037
0.000810977
0.000810999
0.000811212
0.000811439
0.000811532
0.000811558
0.000811774
0.000811737
0.000811849
0.00081183
0.000812002
0.000812374
0.000812326
0.000812322
0.00081259
0.000812549
0.00081275
0.000812899
0.000812899
0.000812978
0.00081322
0.000813197
0.000813451
0.000813466
0.000813428
0.000813667
0.000813771
0.00081373
0.000813939
0.000814077
0.000814032
0.000814073
0.000814244
0.000814553
0.000814427
0.000814587
0.000814717
0.000814568
0.000814494
0.000814926
0.000814836
0.000815134
0.000815038
0.000815231
0.000815235
0.000815202
0.000815544
0.00081582
0.000815704
0.00081588
0.000815842
0.000815932
0.000815909
0.000816118
0.000816282
0.000816122
0.000816386
0.000816327
0.000816271
0.000816554
0.000816554
0.00081655
0.000816662
0.000197504
0.000197478
0.000197496
0.000197411
0.000197414
0.000197373
0.000197403
0.000197336
0.000197336
0.00019728
0.000197299
0.000197273
0.000197213
0.00019725
0.000197221
0.000197161
0.000197101
0.00019712
0.000197083
0.000197068
0.000197072
0.000197042
0.00019706
0.000196971
0.000196986
0.00019693
0.000196889
0.000196874
0.000196908
0.000196919
0.000196833
0.000196788
0.000196774
0.000196733
0.000196688
0.000196692
0.000196673
0.000196643
0.000196617
0.000196606
0.000196591
0.000196517
0.000196531
0.000196531
0.000196535
0.000196461
0.000196416
0.000196397
0.000196371
0.000196327
0.000196267
0.000196327
0.000196282
0.000196252
0.000196256
0.000196289
0.000196181
0.00019623
0.000196107
0.000196133
0.000196122
0.000196088
0.000196051
0.000196017
0.000195976
0.000195947
0.000195932
0.000195839
0.000195947
0.000195868
0.000195872
0.000195768
0.000195768
0.000195794
0.000195753
0.000195678
0.000195663
0.000195678
0.000195604
0.000195559
0.000195555
0.000195514
0.00019557
0.000195481
0.000195421
0.000195421
0.000195432
0.00019538
0.00019538
0.000195362
0.000195283
0.000195257
0.000195239
0.000195164
0.000195213
0.000195164
0.000195105
0.000195056
0.000195075
0.000195041
0.000195011
0.000145931
0.000145927
0.00014589
0.000145879
0.000145882
0.000145886
0.000145845
0.00014583
0.000145815
0.000145804
0.000145823
0.000145778
0.000145767
0.000145767
0.000145737
0.000145793
0.00014573
0.000145745
0.000145778
0.000145689
0.000145704
0.000145648
0.000145677
0.000145663
0.000145711
0.000145636
0.000145588
0.000145655
0.000145596
0.00014561
0.000145521
0.000145581
0.000145525
0.000145525
0.000145525
0.00014551
0.000145528
0.000145484
0.000145499
0.000145484
0.000145484
0.00014545
0.000145439
0.000145394
0.000145398
0.000145368
0.000145368
0.000145424
0.000145335
0.000145353
0.000145417
0.000145357
0.00014535
0.000145249
0.00014523
0.000145249
0.000145201
0.000145271
0.00014523
0.000145279
0.000145253
0.000145175
0.000145249
0.000145219
0.000145201
0.000145156
0.000145111
0.000145111
0.000145055
0.000145026
0.000145115
0.000145085
0.000145048
0.000145037
0.000145055
0.00014507
0.000145022
0.000145052
0.000144992
0.000144936
0.000144966
0.000144966
0.000144944
0.000144918
0.000144873
0.000144918
0.000144828
0.000144828
0.000144798
0.000144824
0.000144828
0.000144806
0.00014478
0.000144724
0.000144754
0.000144694
0.000144731
0.00014475
0.00014466
0.000144705
0.000144616
0.000114776
0.000114791
0.000114784
0.000114772
0.000114828
0.000114806
0.00011478
0.000114761
0.000114813
0.000114765
0.000114769
0.000114754
0.000114772
0.000114698
0.000114769
0.000114743
0.000114787
0.000114746
0.000114776
0.00011472
0.000114765
0.000114739
0.000114795
0.00011475
0.00011472
0.000114713
0.000114765
0.000114769
0.000114743
0.000114754
0.000114724
0.000114691
0.000114754
0.000114709
0.000114761
0.000114761
0.000114787
0.000114799
0.000114772
0.000114772
0.000114772
0.000114772
0.000114679
0.000114735
0.000114735
0.000114739
0.00011475
0.000114713
0.000114679
0.000114735
0.000114754
0.000114709
0.000114784
0.000114743
0.000114735
0.000114705
0.000114735
0.000114691
0.000114735
0.00011481
0.000114746
0.00011472
0.000114705
0.000114776
0.00011475
0.000114691
0.000114657
0.000114705
0.000114746
0.000114735
0.000114739
0.000114754
0.000114717
0.00011478
0.000114705
0.000114713
0.000114676
0.000114687
0.000114657
0.000114761
0.000114761
0.000114776
0.000114687
0.000114698
0.000114668
0.000114702
0.000114698
0.000114728
0.000114698
0.000114702
0.000114657
0.000114717
0.000114642
0.000114657
0.000114657
0.000114638
0.000114698
0.000114642
0.000114657
0.000114687
0.000114672
0.000107974
0.000107963
0.000107951
0.000108011
0.000107981
0.00010797
0.000108011
0.000108045
0.000108041
0.000108
0.000108045
0.000108045
0.000108063
0.000108082
0.000107974
0.000108093
0.000108082
0.000108082
0.000108123
0.000108097
0.000108078
0.000108082
0.000108123
0.000108127
0.000108112
0.000108141
0.000108182
0.000108156
0.000108138
0.000108112
0.000108171
0.000108201
0.000108168
0.000108197
0.000108209
0.000108164
0.000108223
0.000108197
0.000108253
0.000108268
0.000108235
0.000108298
0.000108264
0.000108268
0.000108246
0.000108249
0.000108324
0.000108279
0.000108294
0.000108335
0.00010832
0.00010835
0.000108365
0.000108425
0.000108361
0.00010841
0.00010841
0.000108343
0.000108402
0.000108343
0.000108417
0.000108358
0.000108417
0.000108391
0.000108466
0.000108402
0.000108477
0.000108451
0.000108462
0.000108488
0.000108473
0.000108432
0.000108503
0.000108514
0.000108518
0.000108551
0.000108492
0.000108477
0.000108488
0.000108562
0.000108548
0.000108551
0.000108533
0.000108641
0.000108562
0.000108644
0.000108596
0.000108678
0.000108641
0.000108562
0.000108581
0.000108685
0.000108715
0.000108682
0.0001087
0.00010873
0.00010867
0.000108704
0.000108689
0.000108704
0.000108719
0.000127576
0.000127565
0.000127546
0.000127584
0.000127606
0.000127655
0.000127565
0.000127625
0.000127625
0.000127628
0.000127688
0.000127707
0.000127699
0.000127744
0.000127718
0.000127703
0.000127718
0.000127759
0.000127759
0.00012774
0.000127759
0.000127755
0.000127815
0.00012783
0.000127785
0.00012783
0.000127796
0.000127856
0.000127841
0.000127852
0.000127912
0.000127941
0.000127908
0.000127923
0.000127967
0.000127967
0.000127964
0.000128012
0.000128005
0.000128005
0.00012799
0.000128053
0.000128064
0.000128075
0.00012812
0.000128046
0.000128102
0.000128072
0.000128102
0.00012809
0.000128131
0.000128146
0.000128154
0.000128157
0.000128232
0.000128247
0.000128217
0.000128239
0.000128213
0.000128292
0.000128303
0.000128329
0.000128374
0.000128269
0.000128318
0.000128344
0.000128403
0.000128407
0.000128377
0.000128388
0.000128407
0.000128403
0.000128478
0.000128463
0.000128496
0.000128429
0.000128493
0.000128478
0.000128537
0.000128537
0.000128508
0.000128638
0.000128601
0.000128582
0.000128645
0.000128601
0.000128619
0.000128619
0.00012869
0.000128713
0.00012866
0.00012869
0.000128724
0.000128724
0.000128727
0.000128802
0.000128735
0.000128824
0.000128813
0.000128858
0.000128794
0.000171673
0.000171624
0.000171639
0.000171673
0.000171658
0.000171665
0.000171658
0.000171684
0.000171684
0.000171669
0.000171725
0.000171714
0.00017174
0.000171755
0.000171755
0.000171784
0.000171755
0.000171755
0.000171795
0.000171818
0.000171766
0.000171866
0.000171863
0.000171822
0.000171863
0.000171877
0.000171904
0.000171904
0.000171941
0.000171926
0.000171941
0.000171985
0.000171952
0.000171937
0.000171937
0.000171989
0.000171993
0.000172038
0.000172019
0.000172064
0.000172026
0.000172019
0.00017206
0.000172101
0.000172082
0.000172082
0.000172101
0.000172175
0.000172187
0.000172157
0.000172168
0.000172168
0.000172198
0.000172209
0.000172213
0.000172239
0.000172194
0.000172205
0.000172235
0.000172235
0.000172298
0.000172291
0.000172365
0.00017231
0.000172384
0.00017238
0.00017241
0.000172433
0.000172433
0.000172406
0.000172433
0.000172462
0.000172462
0.000172477
0.000172459
0.000172473
0.000172537
0.000172555
0.00017257
0.000172544
0.000172533
0.000172671
0.000172608
0.000172596
0.000172611
0.000172671
0.000172645
0.00017266
0.000172757
0.000172693
0.000172742
0.000172712
0.000172686
0.000172794
0.000172783
0.000172783
0.00017279
0.000172883
0.000172868
0.000172857
0.000172876
0.000231039
0.000231095
0.000231098
0.000231124
0.000231154
0.000231098
0.000231128
0.00023118
0.000231124
0.000231154
0.000231091
0.000231139
0.000231162
0.000231106
0.000231128
0.000231206
0.000231162
0.000231128
0.000231188
0.000231214
0.000231199
0.000231232
0.00023118
0.00023121
0.000231236
0.000231232
0.000231218
0.000231192
0.000231262
0.000231255
0.000231225
0.000231259
0.000231259
0.000231251
0.000231277
0.000231232
0.000231273
0.000231307
0.000231292
0.000231322
0.000231333
0.000231318
0.000231318
0.000231255
0.000231363
0.000231359
0.000231318
0.000231359
0.000231393
0.00023137
0.000231355
0.000231367
0.000231404
0.000231355
0.000231426
0.000231396
0.000231426
0.000231382
0.00023143
0.000231355
0.00023146
0.000231463
0.00023146
0.000231478
0.000231445
0.000231449
0.000231523
0.000231523
0.000231557
0.000231501
0.000231516
0.000231501
0.000231549
0.000231523
0.000231568
0.000231527
0.000231601
0.000231575
0.000231624
0.000231601
0.000231598
0.00023159
0.000231653
0.000231653
0.000231676
0.00023165
0.000231642
0.000231639
0.00023168
0.000231743
0.000231743
0.000231735
0.000231724
0.000231687
0.000231717
0.000231739
0.000231732
0.000231754
0.000231758
0.000231825
0.000231851
0.000287268
0.00028725
0.000287298
0.00028725
0.00028722
0.00028719
0.00028722
0.000287205
0.00028722
0.00028722
0.000287201
0.000287205
0.000287235
0.000287216
0.000287224
0.000287179
0.000287272
0.000287149
0.000287212
0.000287175
0.000287164
0.000287198
0.000287205
0.000287179
0.000287127
0.000287171
0.000287186
0.000287183
0.000287168
0.000287153
0.000287149
0.000287123
0.000287164
0.000287149
0.000287134
0.000287194
0.000287134
0.000287134
0.000287075
0.00028716
0.000287049
0.000287075
0.000287104
)
;

boundaryField
{
    movingWall
    {
        type            zeroGradient;
    }
    fixedWalls
    {
        type            zeroGradient;
    }
    frontAndBack
    {