/*--------------------------------*- C++ -*----------------------------------*\
| =========                 |                                                 |
| \\      /  F ield         | OpenFOAM: The Open Source CFD Toolbox           |
|  \\    /   O peration     | Version:  v2006                                 |
|   \\  /    A nd           | Website:  www.openfoam.com                      |
|    \\/     M anipulation  |                                                 |
\*---------------------------------------------------------------------------*/
FoamFile
{
    version     2.0;
    format      ascii;
    class       volScalarField;
    location    "0";
    object      shifted_f;
}
// * * * * * * * * * * * * * * * * * * * * * * * * * * * * * * * * * * * * * //

dimensions      [0 0 0 0 0 0 0];


internalField   nonuniform List<scalar> 
2500
(
0.000222538
0.000222575
0.000222575
0.00022259
0.000222586
0.000222564
0.000222549
0.000222564
0.000222605
0.000222608
0.000222653
0.000222575
0.00022259
0.000222612
0.000222642
0.000222623
0.000222605
0.000222668
0.000222582
0.000223249
0.000223238
0.000223227
0.000223223
0.000223305
0.000223216
0.000223249
0.000223268
0.000223231
0.000223253
0.000223272
0.000223275
0.000223257
0.000223253
0.000223234
0.000223316
0.000223331
0.000223283
0.000223264
0.000223238
0.000223257
0.000223272
0.000223264
0.000223294
0.00022335
0.000223313
0.000223316
0.000223324
0.000223368
0.000223361
0.000223305
0.000223335
0.000223365
0.000223342
0.000223309
0.000223361
0.000223298
0.000223286
0.000223301
0.000223301
0.000223309
0.000223365
0.000223372
0.000223327
0.00022335
0.000223275
0.000223327
0.000223361
0.000223354
0.000223368
0.000223376
0.000223428
0.000223391
0.000223394
0.000223398
0.000223357
0.000223346
0.000223421
0.000223406
0.000223428
0.000223402
0.000223465
0.000223383
0.000223368
0.000223383
0.000223383
0.000223387
0.000223406
0.00022338
0.000223383
0.000223406
0.00022338
0.000223424
0.00022338
0.000223402
0.000223417
0.000223394
0.000223394
0.000223417
0.000223454
0.000223394
0.00022338
0.000223417
0.000223376
0.000223376
0.00022338
0.000223417
0.000223398
0.000223387
0.000223394
0.000223394
0.000223383
0.000223387
0.000223387
0.000223402
0.000223424
0.000223409
0.000223394
0.000223383
0.000223428
0.000223409
0.000223283
0.00022329
0.000223275
0.000223283
0.000223305
0.000223313
0.00022329
0.000223257
0.000223316
0.000223346
0.000223335
0.000223268
0.000223316
0.000223301
0.000223327
0.000223335
0.000223335
0.000223275
0.000223279
0.000223331
0.000223327
0.000223309
0.000223357
0.00022338
0.000223342
0.000223365
0.000223398
0.000223435
0.00022332
0.000223354
0.000223368
0.000223383
0.000223361
0.000223368
0.000223368
0.000223342
0.000223361
0.000223383
0.000223372
0.000223357
0.000223417
0.000223339
0.000223394
0.00022338
0.000223409
0.000223424
0.000223387
0.000223402
0.000223417
0.000223432
0.000223439
0.000223368
0.000223391
0.000223394
0.000223398
0.000223409
0.000223327
0.000223402
0.000223409
0.000223383
0.000223424
0.000223391
0.000223424
0.000223402
0.000223372
0.000223387
0.000223428
0.00022338
0.000223387
0.000223413
0.000223424
0.000223424
0.00022338
0.000223394
0.000223409
0.000223432
0.00022338
0.000223424
0.000223421
0.000223402
0.000223432
0.000223443
0.000223391
0.000223417
0.000223402
0.00022338
0.000223372
0.000223402
0.000223413
0.000223365
0.000223391
0.000223435
0.000223406
0.000223413
0.000223439
0.000223372
0.000223376
0.000223428
0.000223357
0.000223357
0.000223387
0.000222635
0.000222553
0.000222627
0.000222679
0.000222638
0.000222642
0.000222631
0.000222635
0.000222679
0.000222582
0.000222579
0.000222642
0.000222575
0.000222664
0.000222627
0.000222616
0.000222653
0.000222638
0.000222672
0.000222612
0.000222668
0.000222672
0.000222646
0.000222668
0.000222631
0.000222702
0.000222631
0.000222649
0.000222683
0.000222716
0.000222705
0.000222728
0.000222653
0.000222676
0.000222702
0.000222746
0.000222661
0.000222668
0.000222664
0.000222653
0.000222601
0.000222638
0.000222638
0.000222698
0.000222687
0.000222657
0.000222646
0.000222657
0.000222698
0.000222713
0.000222709
0.000222761
0.000222694
0.000222694
0.000222668
0.000222672
0.000222679
0.000222724
0.000222646
0.00022269
0.000222683
0.000222709
0.000222657
0.000222672
0.000222694
0.000222638
0.000222709
0.000222649
0.000222646
0.000222664
0.000222683
0.000222731
0.000222668
0.000222679
0.000222705
0.000222687
0.000222668
0.000222687
0.000222687
0.000222664
0.000222679
0.000222705
0.000222664
0.000222765
0.000222728
0.000222694
0.000222713
0.000222664
0.000222679
0.000222713
0.000222683
0.00022269
0.000222724
0.000222676
0.00022272
0.000222716
0.000222627
0.000222694
0.000222709
0.000222694
0.000222687
0.000221185
0.000221234
0.00022123
0.000221264
0.000221275
0.000221252
0.000221297
0.000221271
0.000221293
0.000221238
0.00022126
0.000221282
0.00022129
0.000221323
0.000221305
0.000221312
0.000221297
0.000221293
0.000221245
0.000221271
0.000221267
0.000221308
0.000221319
0.000221293
0.000221323
0.000221323
0.000221308
0.000221319
0.000221316
0.000221334
0.000221334
0.000221282
0.000221264
0.000221264
0.000221316
0.000221331
0.000221334
0.000221338
0.000221346
0.000221319
0.000221316
0.000221349
0.000221271
0.000221327
0.000221271
0.000221301
0.000221316
0.000221364
0.000221308
0.000221323
0.000221319
0.000221267
0.000221349
0.000221275
0.000221342
0.000221338
0.000221357
0.000221305
0.000221338
0.000221301
0.000221349
0.000221323
0.000221308
0.000221319
0.000221353
0.000221357
0.000221279
0.000221346
0.000221293
0.000221286
0.000221301
0.000221338
0.000221305
0.000221267
0.000221319
0.000221375
0.000221312
0.000221301
0.000221323
0.000221327
0.000221331
0.000221331
0.000221308
0.000221312
0.000221297
0.000221275
0.000221308
0.000221264
0.000221301
0.000221301
0.000221346
0.00022129
0.000221334
0.000221323
0.000221267
0.000221264
0.000221238
0.000221308
0.000221349
0.000221249
0.000221267
0.000219319
0.000219353
0.00021933
0.000219367
0.00021933
0.000219304
0.000219278
0.000219278
0.000219285
0.000219304
0.000219319
0.000219289
0.000219289
0.000219349
0.000219297
0.000219304
0.000219323
0.000219356
0.000219319
0.00021939
0.000219338
0.000219367
0.000219345
0.000219263
0.000219312
0.000219282
0.000219341
0.000219349
0.000219371
0.000219386
0.000219334
0.000219375
0.000219323
0.0002193
0.00021933
0.00021936
0.000219353
0.000219326
0.000219304
0.00021933
0.000219423
0.000219371
0.000219353
0.000219382
0.00021933
0.000219364
0.000219338
0.000219334
0.000219367
0.000219312
0.000219375
0.000219334
0.000219349
0.000219382
0.000219326
0.000219386
0.00021933
0.000219312
0.000219319
0.000219338
0.00021936
0.000219308
0.000219319
0.000219364
0.000219334
0.000219364
0.000219308
0.000219289
0.000219319
0.000219349
0.000219263
0.000219285
0.000219364
0.000219338
0.000219271
0.000219326
0.000219326
0.000219274
0.000219289
0.000219282
0.000219341
0.000219349
0.000219338
0.000219304
0.000219345
0.000219341
0.000219297
0.000219345
0.000219323
0.00021933
0.000219341
0.000219338
0.000219252
0.000219338
0.000219293
0.000219282
0.00021923
0.000219319
0.000219338
0.000219278
0.000219297
0.000216726
0.000216711
0.00021676
0.00021673
0.000216778
0.000216763
0.000216842
0.000216797
0.000216801
0.000216786
0.000216745
0.00021676
0.000216719
0.000216749
0.000216693
0.000216722
0.000216741
0.000216786
0.000216804
0.00021673
0.000216763
0.000216749
0.000216767
0.000216722
0.000216767
0.000216711
0.000216741
0.000216745
0.000216775
0.000216749
0.000216749
0.000216752
0.000216782
0.000216726
0.000216786
0.000216745
0.000216775
0.00021673
0.000216808
0.000216704
0.000216767
0.000216737
0.000216801
0.000216771
0.000216756
0.00021673
0.000216775
0.000216808
0.000216749
0.000216737
0.000216767
0.000216771
0.000216726
0.000216741
0.00021673
0.00021676
0.000216745
0.000216734
0.000216734
0.000216763
0.000216767
0.000216767
0.000216786
0.000216801
0.000216715
0.000216745
0.00021676
0.000216763
0.000216778
0.000216749
0.000216722
0.000216752
0.000216756
0.000216786
0.000216667
0.00021673
0.0002167
0.0002167
0.000216734
0.000216689
0.000216719
0.000216737
0.000216708
0.000216711
0.000216667
0.000216741
0.000216745
0.00021673
0.00021673
0.000216719
0.000216689
0.000216749
0.000216722
0.000216693
0.000216737
0.000216663
0.000216652
0.000216637
0.000216637
0.000216685
0.0002167
0.000213746
0.000213701
0.000213757
0.00021369
0.000213746
0.000213705
0.000213794
0.000213724
0.000213716
0.000213783
0.000213731
0.000213716
0.000213783
0.000213694
0.000213757
0.000213813
0.000213806
0.000213776
0.000213746
0.000213739
0.000213772
0.00021378
0.000213798
0.000213794
0.000213794
0.000213776
0.000213731
0.000213765
0.000213735
0.000213806
0.00021375
0.000213746
0.000213776
0.000213731
0.000213772
0.00021372
0.000213757
0.000213731
0.00021375
0.000213686
0.00021378
0.000213783
0.00021382
0.000213739
0.000213742
0.000213731
0.000213724
0.000213761
0.000213683
0.000213731
0.000213716
0.000213824
0.000213757
0.000213761
0.00021372
0.000213806
0.000213798
0.000213731
0.00021375
0.000213798
0.000213731
0.000213809
0.000213694
0.000213761
0.000213701
0.000213705
0.000213724
0.000213705
0.000213694
0.000213746
0.000213731
0.000213709
0.000213757
0.000213783
0.000213757
0.000213716
0.000213739
0.000213761
0.000213783
0.000213746
0.000213787
0.000213761
0.000213765
0.000213679
0.000213694
0.000213683
0.000213653
0.000213698
0.00021366
0.000213712
0.000213686
0.00021372
0.000213694
0.00021369
0.000213642
0.000213698
0.000213705
0.000213679
0.000213668
0.000213683
0.000213668
0.000210438
0.000210386
0.000210397
0.000210397
0.000210427
0.000210378
0.000210363
0.000210408
0.000210457
0.000210401
0.000210453
0.000210427
0.000210464
0.000210401
0.000210378
0.000210393
0.000210382
0.000210404
0.000210416
0.000210438
0.000210393
0.000210509
0.000210453
0.000210423
0.000210423
0.000210471
0.000210453
0.000210457
0.00021043
0.000210471
0.000210386
0.000210475
0.00021046
0.000210438
0.000210427
0.000210449
0.000210453
0.000210423
0.000210404
0.000210408
0.000210427
0.000210423
0.00021046
0.000210438
0.000210471
0.000210416
0.000210419
0.000210423
0.000210419
0.000210427
0.000210416
0.000210449
0.000210397
0.000210416
0.000210408
0.000210434
0.000210386
0.000210419
0.000210412
0.000210442
0.000210386
0.000210401
0.000210419
0.00021046
0.000210453
0.000210445
0.000210416
0.00021046
0.000210457
0.000210438
0.000210468
0.000210449
0.000210423
0.000210457
0.00021043
0.000210434
0.000210468
0.000210453
0.000210453
0.00021043
0.000210483
0.000210494
0.000210427
0.000210468
0.000210393
0.000210483
0.000210434
0.000210438
0.000210404
0.000210423
0.000210416
0.000210401
0.000210412
0.00021043
0.000210375
0.000210408
0.000210408
0.000210419
0.000210397
0.000210434
0.000210404
0.000206947
0.000206895
0.000206921
0.000206996
0.00020691
0.000206988
0.000206966
0.000206951
0.000206996
0.000206966
0.000206914
0.000206966
0.000206906
0.000206951
0.000206921
0.000206865
0.000206936
0.000206959
0.000206951
0.000206914
0.000206944
0.000206929
0.000206962
0.000206992
0.00020697
0.000207014
0.000207052
0.000207026
0.000207007
0.000206959
0.000206981
0.000207055
0.000206985
0.000206977
0.000206996
0.000206981
0.000206999
0.000206973
0.000206992
0.00020697
0.000206951
0.000206988
0.000206988
0.000206951
0.000206988
0.000206959
0.000206999
0.000207011
0.000207018
0.000206959
0.000206947
0.000206992
0.000206977
0.000206981
0.000207014
0.000206973
0.000206966
0.000206988
0.000206962
0.000206962
0.000206962
0.000206996
0.000206985
0.000206977
0.000206981
0.000206921
0.000207011
0.000207026
0.00020694
0.000206951
0.000206918
0.000206981
0.000206996
0.000206914
0.000206973
0.00020691
0.000206914
0.000206947
0.000206944
0.000206906
0.000206914
0.000206951
0.000206966
0.000206865
0.000206936
0.000206929
0.000206884
0.000206903
0.000207018
0.000206947
0.000206891
0.000206944
0.000206903
0.000206921
0.00020688
0.000206873
0.000206906
0.000206921
0.000206903
0.000206854
0.000206921
0.000203438
0.00020346
0.000203434
0.000203457
0.000203442
0.000203434
0.000203457
0.000203419
0.00020349
0.00020346
0.000203498
0.000203442
0.000203483
0.000203475
0.000203472
0.00020349
0.00020352
0.000203457
0.000203434
0.000203427
0.000203494
0.000203501
0.000203487
0.000203501
0.000203453
0.00020346
0.000203427
0.000203464
0.000203453
0.000203434
0.000203498
0.000203431
0.000203498
0.000203457
0.000203483
0.000203431
0.000203475
0.000203531
0.000203434
0.000203501
0.000203468
0.000203453
0.000203442
0.000203487
0.000203479
0.000203434
0.000203438
0.000203468
0.000203509
0.000203453
0.000203438
0.000203479
0.000203431
0.000203505
0.000203449
0.000203427
0.000203468
0.000203438
0.000203472
0.000203464
0.000203498
0.000203464
0.000203453
0.000203449
0.00020352
0.000203494
0.000203438
0.000203434
0.000203501
0.000203501
0.000203405
0.000203427
0.000203431
0.000203382
0.00020349
0.000203419
0.000203412
0.000203438
0.000203386
0.000203393
0.000203386
0.000203423
0.000203393
0.000203367
0.000203434
0.000203405
0.000203412
0.000203419
0.00020339
0.000203412
0.000203378
0.000203405
0.000203408
0.00020339
0.000203397
0.000203334
0.000203378
0.000203345
0.000203405
0.000203427
0.000203326
0.000200097
0.000200033
0.000200089
0.000200059
0.00020013
0.000200123
0.000200115
0.000200115
0.000200115
0.000200082
0.000200149
0.000200097
0.000200149
0.000200097
0.000200104
0.000200115
0.000200093
0.000200115
0.000200134
0.000200097
0.000200063
0.000200097
0.000200074
0.000200044
0.000200141
0.000200067
0.000200115
0.000200137
0.000200085
0.000200119
0.000200115
0.000200085
0.000200123
0.000200044
0.000200063
0.000200134
0.000200063
0.0002001
0.000200078
0.000200093
0.000200067
0.000200119
0.000200059
0.000200108
0.000200093
0.000200111
0.000200052
0.000200108
0.000200041
0.0002
0.000200063
0.000200026
0.000200029
0.000200015
0.000200044
0.000200078
0.000200056
0.000200048
0.000200056
0.000200033
0.000200056
0.000200067
0.000200059
0.000200022
0.000200056
0.000200089
0.000200015
0.000200093
0.000200048
0.000200011
0.0002
0.000200026
0.000200078
0.000200067
0.000199996
0.000200059
0.000200018
0.000200026
0.000200044
0.000200022
0.000200048
0.0002
0.000200074
0.000200078
0.000200022
0.000200078
0.000200126
0.0002001
0.000200089
0.000200104
0.000200082
0.000200082
0.000200026
0.000200089
0.000200063
0.000200029
0.000200007
0.000200074
0.000200078
0.000200015
0.000200037
0.000196964
0.00019696
0.000196956
0.000196904
0.000197019
0.000196952
0.00019696
0.000196926
0.000196915
0.000196997
0.000196956
0.000196937
0.000196964
0.000196967
0.000196956
0.000196964
0.000196919
0.000196949
0.000196908
0.000196915
0.00019696
0.000196975
0.000196941
0.000196949
0.000196975
0.000196923
0.000196971
0.000196949
0.000196952
0.000196937
0.000196978
0.000197005
0.000196997
0.000196926
0.000196982
0.000196982
0.000196952
0.000196904
0.000196889
0.000196941
0.000196908
0.000196952
0.000196896
0.000197034
0.000197027
0.000197064
0.00019699
0.000197001
0.000197001
0.00019693
0.000196967
0.000196949
0.000196967
0.000197019
0.000196982
0.000196937
0.000196986
0.000196952
0.00019699
0.000197008
0.000196934
0.000196937
0.000196915
0.000196949
0.000196919
0.000196956
0.000196889
0.000196978
0.000196934
0.000196986
0.000196934
0.000196937
0.000197005
0.00019696
0.000196919
0.000196915
0.000196934
0.000196937
0.000196904
0.000196893
0.000196923
0.000196982
0.00019696
0.000196967
0.000196945
0.000196919
0.00019699
0.000196867
0.00019693
0.0001969
0.000196874
0.000196896
0.000196885
0.000196934
0.000196923
0.000196911
0.000196841
0.0001969
0.000196896
0.000196885
0.00019693
0.000194188
0.000194099
0.000194184
0.000194207
0.000194184
0.000194199
0.000194184
0.000194184
0.000194158
0.000194125
0.000194196
0.000194162
0.000194114
0.000194151
0.000194177
0.000194214
0.000194233
0.000194263
0.000194255
0.000194192
0.000194211
0.000194211
0.000194181
0.000194214
0.000194225
0.000194162
0.000194203
0.000194225
0.000194155
0.000194225
0.00019414
0.000194114
0.000194203
0.000194151
0.000194184
0.000194233
0.000194181
0.000194173
0.000194214
0.000194177
0.000194229
0.000194173
0.000194147
0.000194188
0.000194136
0.000194136
0.000194192
0.000194151
0.000194151
0.000194136
0.000194274
0.000194229
0.000194196
0.000194222
0.000194192
0.000194199
0.000194173
0.000194181
0.000194181
0.000194177
0.000194218
0.000194222
0.000194199
0.000194203
0.000194244
0.000194188
0.000194196
0.000194151
0.00019417
0.000194177
0.000194188
0.000194222
0.000194155
0.000194211
0.000194184
0.000194211
0.000194199
0.000194184
0.000194129
0.00019414
0.000194188
0.000194117
0.000194155
0.000194162
0.000194136
0.00019417
0.000194184
0.000194158
0.000194184
0.000194196
0.000194166
0.000194255
0.000194147
0.000194147
0.000194188
0.000194188
0.000194166
0.000194147
0.000194151
0.000194166
0.00019417
0.00019183
0.000191849
0.000191879
0.000191841
0.000191815
0.000191826
0.000191841
0.000191811
0.00019183
0.000191782
0.000191841
0.00019186
0.000191808
0.000191823
0.000191875
0.00019186
0.000191826
0.000191901
0.000191882
0.00019189
0.000191871
0.000191905
0.000191908
0.000191834
0.000191871
0.000191879
0.000191867
0.000191893
0.000191789
0.000191931
0.000191864
0.000191882
0.000191893
0.00019186
0.000191849
0.000191815
0.000191834
0.000191875
0.000191912
0.000191905
0.000191897
0.000191923
0.000191934
0.000191905
0.000191908
0.000191927
0.00019189
0.000191886
0.000191916
0.000191849
0.000191886
0.000191886
0.000191886
0.000191838
0.000191901
0.000191867
0.000191856
0.00019189
0.000191852
0.000191905
0.000191901
0.000191864
0.000191897
0.000191879
0.000191875
0.000191912
0.000191912
0.000191856
0.000191893
0.000191923
0.000191856
0.000191893
0.000191923
0.000191864
0.000191864
0.000191875
0.000191897
0.00019192
0.000191901
0.000191864
0.000191849
0.00019189
0.000191879
0.000191852
0.000191804
0.000191834
0.00019186
0.000191852
0.000191879
0.000191845
0.000191797
0.000191931
0.000191879
0.00019192
0.000191867
0.000191826
0.000191912
0.000191931
0.000191886
0.000191931
0.00019189
0.000190146
0.000190105
0.000190143
0.000190105
0.000190139
0.000190135
0.00019012
0.000190128
0.000190135
0.000190098
0.00019012
0.000190113
0.00019012
0.000190176
0.000190161
0.000190165
0.000190154
0.000190102
0.000190157
0.000190083
0.000190105
0.000190187
0.000190116
0.000190105
0.000190113
0.000190075
0.000190105
0.000190083
0.000190102
0.000190075
0.00019018
0.00019015
0.000190157
0.000190116
0.000190135
0.00019009
0.00019018
0.000190135
0.000190161
0.000190068
0.000190187
0.00019012
0.00019015
0.000190139
0.000190079
0.00019015
0.000190068
0.000190113
0.000190146
0.000190154
0.000190102
0.000190165
0.000190172
0.000190165
0.00019015
0.000190135
0.000190094
0.000190172
0.000190098
0.00019012
0.000190087
0.00019009
0.000190128
0.000190087
0.000190165
0.000190105
0.000190165
0.00019015
0.000190135
0.000190135
0.00019015
0.000190165
0.000190157
0.00019015
0.000190161
0.000190143
0.000190135
0.00019015
0.000190057
0.000190083
0.000190139
0.000190124
0.000190128
0.000190131
0.000190079
0.00019015
0.000190172
0.000190109
0.000190113
0.000190135
0.00019015
0.000190146
0.000190146
0.000190143
0.000190154
0.000190139
0.000190135
0.000190154
0.000190146
0.000190131
0.000190135
0.000189021
0.000189029
0.000188991
0.000189018
0.000189047
0.000189021
0.00018901
0.000189081
0.000188995
0.000189003
0.000188947
0.00018898
0.000189003
0.000189006
0.000189025
0.00018898
0.000189003
0.000188995
0.00018901
0.000189003
0.000189021
0.000189003
0.000189047
0.000188995
0.000189044
0.000189055
0.000189085
0.000189058
0.000189032
0.000189077
0.000188988
0.000189044
0.000188969
0.000189032
0.000189036
0.000189051
0.000189055
0.000189073
0.000189062
0.000189036
0.000189085
0.000189073
0.000189077
0.00018904
0.000189051
0.000189044
0.000189025
0.000189021
0.000188977
0.000189044
0.000189047
0.000189025
0.000189055
0.00018907
0.000189081
0.000188988
0.000189066
0.000189085
0.000189047
0.000189018
0.000189006
0.00018895
0.000189047
0.000189062
0.000189129
0.000189081
0.000189099
0.000189085
0.000189047
0.000189025
0.000189058
0.000189021
0.000189055
0.000189044
0.00018898
0.000189032
0.000189066
0.000189114
0.000189088
0.000189032
0.000189036
0.000188991
0.000189018
0.000189085
0.000189062
0.000189018
0.000189025
0.000189036
0.000189062
0.000189006
0.000189077
0.000189025
0.000189058
0.000189114
0.000189062
0.000189073
0.000189032
0.000189036
0.000189032
0.000189006
0.00018901
0.000188585
0.000188652
0.000188652
0.00018863
0.00018869
0.000188634
0.000188716
0.000188638
0.000188604
0.000188716
0.000188667
0.000188701
0.000188671
0.000188585
0.000188652
0.000188656
0.000188675
0.000188719
0.00018869
0.000188652
0.000188652
0.000188638
0.0001886
0.00018869
0.000188679
0.000188675
0.000188712
0.000188623
0.000188675
0.000188667
0.000188652
0.00018863
0.000188675
0.000188682
0.000188682
0.00018866
0.000188686
0.000188734
0.000188705
0.000188638
0.000188686
0.000188723
0.000188679
0.000188697
0.000188638
0.000188671
0.000188719
0.000188675
0.00018866
0.000188645
0.000188708
0.000188708
0.000188705
0.000188734
0.000188682
0.000188705
0.000188638
0.000188679
0.000188667
0.00018869
0.000188746
0.000188764
0.000188611
0.000188626
0.000188608
0.000188638
0.000188604
0.000188652
0.000188645
0.000188738
0.000188783
0.000188686
0.000188664
0.000188652
0.000188671
0.000188667
0.000188693
0.000188652
0.000188731
0.00018879
0.000188772
0.000188716
0.000188675
0.000188701
0.000188705
0.000188712
0.000188652
0.000188716
0.000188723
0.000188697
0.000188697
0.000188671
0.000188705
0.000188671
0.000188731
0.000188746
0.000188705
0.000188679
0.000188768
0.000188708
0.000188742
0.000189122
0.000189155
0.000189185
0.000189167
0.000189129
0.000189133
0.000189152
0.000189155
0.000189189
0.000189163
0.000189181
0.000189178
0.000189144
0.000189137
0.000189219
0.000189196
0.000189163
0.000189167
0.000189148
0.000189144
0.000189167
0.000189148
0.0001892
0.000189159
0.000189193
0.000189167
0.000189133
0.000189174
0.000189204
0.000189137
0.000189207
0.000189133
0.000189148
0.000189237
0.000189219
0.000189211
0.000189241
0.000189241
0.000189181
0.000189137
0.000189181
0.0001892
0.000189174
0.000189237
0.000189241
0.000189237
0.000189167
0.000189189
0.000189282
0.000189245
0.000189167
0.000189181
0.000189211
0.000189207
0.000189286
0.000189304
0.000189248
0.000189189
0.000189241
0.000189222
0.000189211
0.000189219
0.000189207
0.000189215
0.000189241
0.000189189
0.000189204
0.000189234
0.000189248
0.000189237
0.000189234
0.000189219
0.000189241
0.000189226
0.000189226
0.00018923
0.000189263
0.000189271
0.000189267
0.000189289
0.000189267
0.00018923
0.000189263
0.000189189
0.000189248
0.000189234
0.000189282
0.000189163
0.000189204
0.000189234
0.000189248
0.000189193
0.000189267
0.0001892
0.000189237
0.000189226
0.000189226
0.000189226
0.000189256
0.000189252
0.000189263
0.000190586
0.000190642
0.000190649
0.000190683
0.000190686
0.000190645
0.000190597
0.000190675
0.000190694
0.00019072
0.000190701
0.000190653
0.000190686
0.000190686
0.000190698
0.000190642
0.000190742
0.000190709
0.000190679
0.000190724
0.00019066
0.000190709
0.000190727
0.000190705
0.000190664
0.000190631
0.000190694
0.000190694
0.000190713
0.000190735
0.000190713
0.000190746
0.000190716
0.000190716
0.000190724
0.000190657
0.000190753
0.000190698
0.000190698
0.000190739
0.000190727
0.000190739
0.000190806
0.000190686
0.000190698
0.000190701
0.000190776
0.000190787
0.000190753
0.000190761
0.00019075
0.000190813
0.000190798
0.000190798
0.00019078
0.000190753
0.00019072
0.00019078
0.000190813
0.000190739
0.000190739
0.00019078
0.000190768
0.000190739
0.000190753
0.00019072
0.000190701
0.000190768
0.000190813
0.000190783
0.00019075
0.00019078
0.000190817
0.000190761
0.000190742
0.000190787
0.000190768
0.000190824
0.000190824
0.000190835
0.000190802
0.000190821
0.000190753
0.000190824
0.000190876
0.000190794
0.000190787
0.000190776
0.000190817
0.00019085
0.000190794
0.000190828
0.000190835
0.000190843
0.000190899
0.000190821
0.000190821
0.000190839
0.000190753
0.000190817
0.00019088
0.000193276
0.000193231
0.000193279
0.00019332
0.000193272
0.00019335
0.000193328
0.000193346
0.000193279
0.000193257
0.000193354
0.000193354
0.000193328
0.00019335
0.000193272
0.000193298
0.000193298
0.000193376
0.00019332
0.000193257
0.000193339
0.000193413
0.000193339
0.000193324
0.000193328
0.000193398
0.000193361
0.00019329
0.000193384
0.000193346
0.000193335
0.000193357
0.000193391
0.000193376
0.000193324
0.000193425
0.000193361
0.000193398
0.000193313
0.000193376
0.000193421
0.000193343
0.000193402
0.000193391
0.000193369
0.000193372
0.000193454
0.00019338
0.00019341
0.000193331
0.000193402
0.000193421
0.00019341
0.000193361
0.000193417
0.000193428
0.000193428
0.000193417
0.000193536
0.000193417
0.000193395
0.000193406
0.000193473
0.000193432
0.000193466
0.000193376
0.000193421
0.000193402
0.000193372
0.000193473
0.000193495
0.000193473
0.000193402
0.000193469
0.000193447
0.000193432
0.000193477
0.000193521
0.000193398
0.000193421
0.000193466
0.000193462
0.000193466
0.000193451
0.000193469
0.000193529
0.000193495
0.000193495
0.000193495
0.000193518
0.000193488
0.000193547
0.000193503
0.000193503
0.000193521
0.000193525
0.00019351
0.000193473
0.000193577
0.000193525
0.000193495
0.000197209
0.000197142
0.000197198
0.000197269
0.000197161
0.000197191
0.000197217
0.000197191
0.000197165
0.000197191
0.000197254
0.000197221
0.000197228
0.000197239
0.000197243
0.000197269
0.000197235
0.000197191
0.000197198
0.000197191
0.000197232
0.000197183
0.000197224
0.000197295
0.000197321
0.000197269
0.000197306
0.000197321
0.000197291
0.000197295
0.000197235
0.000197232
0.000197351
0.000197291
0.000197303
0.00019731
0.000197284
0.000197347
0.000197295
0.000197262
0.000197321
0.000197317
0.000197347
0.000197265
0.000197276
0.000197273
0.000197373
0.000197265
0.000197373
0.000197362
0.000197332
0.000197437
0.000197388
0.000197362
0.000197407
0.000197362
0.000197377
0.00019737
0.000197332
0.000197358
0.000197332
0.000197344
0.000197373
0.000197362
0.000197351
0.000197385
0.000197452
0.000197399
0.000197358
0.000197452
0.000197425
0.000197396
0.000197414
0.000197377
0.000197355
0.000197422
0.000197452
0.000197407
0.000197463
0.000197429
0.000197433
0.00019744
0.000197425
0.000197459
0.000197452
0.000197452
0.000197433
0.000197489
0.000197452
0.000197474
0.000197507
0.000197459
0.000197466
0.000197489
0.00019747
0.000197485
0.000197541
0.000197526
0.000197452
0.000197474
0.000197489
0.000202492
0.000202507
0.000202503
0.000202455
0.000202585
0.000202473
0.000202518
0.000202496
0.000202537
0.000202559
0.000202522
0.000202522
0.000202496
0.000202525
0.000202578
0.000202622
0.000202563
0.000202574
0.000202548
0.000202533
0.000202585
0.000202533
0.000202596
0.000202529
0.000202592
0.000202499
0.000202622
0.000202619
0.000202559
0.000202585
0.000202652
0.000202544
0.000202615
0.00020263
0.000202637
0.000202667
0.000202633
0.000202663
0.00020266
0.000202633
0.000202615
0.0002027
0.000202671
0.000202637
0.000202563
0.000202645
0.000202697
0.000202734
0.000202712
0.00020276
0.000202693
0.000202645
0.000202708
0.000202712
0.000202753
0.0002027
0.000202786
0.000202697
0.000202794
0.000202723
0.000202749
0.000202734
0.000202809
0.000202715
0.000202745
0.00020276
0.000202771
0.00020282
0.000202782
0.000202734
0.000202764
0.000202831
0.000202823
0.000202771
0.000202797
0.000202782
0.000202753
0.000202764
0.000202756
0.000202805
0.000202853
0.000202816
0.000202939
0.000202898
0.000202827
0.00020289
0.000202864
0.000202864
0.000202879
0.000202898
0.00020289
0.000202857
0.000202943
0.000202943
0.00020295
0.000202868
0.000202902
0.000202909
0.000202999
0.000202928
0.000202902
0.000209268
0.000209235
0.000209138
0.000209305
0.000209216
0.000209287
0.000209302
0.000209209
0.000209328
0.000209317
0.000209261
0.000209253
0.000209305
0.000209276
0.000209276
0.000209346
0.000209335
0.000209339
0.000209339
0.000209298
0.000209343
0.000209332
0.000209387
0.000209361
0.000209365
0.000209361
0.000209391
0.000209428
0.000209425
0.000209436
0.000209365
0.000209469
0.000209484
0.000209417
0.000209495
0.000209451
0.000209417
0.00020941
0.000209421
0.000209451
0.000209488
0.000209481
0.000209432
0.000209536
0.000209469
0.000209518
0.000209522
0.00020951
0.000209518
0.000209544
0.000209492
0.000209536
0.000209469
0.000209525
0.000209577
0.000209533
0.000209551
0.000209551
0.000209548
0.000209477
0.000209592
0.000209618
0.000209585
0.000209581
0.00020957
0.000209611
0.000209611
0.00020963
0.000209667
0.0002096
0.000209589
0.000209697
0.000209652
0.000209704
0.000209689
0.000209667
0.000209674
0.000209637
0.000209685
0.000209678
0.000209618
0.000209704
0.000209708
0.000209726
0.000209671
0.000209745
0.000209719
0.000209708
0.000209726
0.000209749
0.000209793
0.000209756
0.000209719
0.000209812
0.000209756
0.000209793
0.000209805
0.000209861
0.00020982
0.00020976
0.000209801
0.000217598
0.000217546
0.000217509
0.000217497
0.000217494
0.00021755
0.000217605
0.000217572
0.000217628
0.000217613
0.000217587
0.000217568
0.00021762
0.000217658
0.000217669
0.000217624
0.000217628
0.000217613
0.000217665
0.000217576
0.000217658
0.00021768
0.000217706
0.000217643
0.000217643
0.000217672
0.000217658
0.00021768
0.000217732
0.000217754
0.000217807
0.000217736
0.000217687
0.000217728
0.000217814
0.000217814
0.000217788
0.000217713
0.000217717
0.00021778
0.000217784
0.00021778
0.00021781
0.000217807
0.000217799
0.000217792
0.000217825
0.000217829
0.000217814
0.000217825
0.000217851
0.000217885
0.000217937
0.000217862
0.000217918
0.000217926
0.000217956
0.000217892
0.000217892
0.0002179
0.000217866
0.000217907
0.000217985
0.00021797
0.000217956
0.000217941
0.000218019
0.000217967
0.000217978
0.00021797
0.000218015
0.000218045
0.000218041
0.000218067
0.000218038
0.000218056
0.000218038
0.000218008
0.000218056
0.00021806
0.000218116
0.000218105
0.000218071
0.000218067
0.000218123
0.000218157
0.000218093
0.000218105
0.000218101
0.000218172
0.000218086
0.000218168
0.00021819
0.000218149
0.000218239
0.000218172
0.000218168
0.000218157
0.000218213
0.000218201
0.000218183
0.000227246
0.000227198
0.000227179
0.000227179
0.000227209
0.000227131