/*--------------------------------*- C++ -*----------------------------------*\
| =========                 |                                                 |
| \\      /  F ield         | OpenFOAM: The Open Source CFD Toolbox           |
|  \\    /   O peration     | Version:  v2006                                 |
|   \\  /    A nd           | Website:  www.openfoam.com                      |
|    \\/     M anipulation  |                                                 |
\*---------------------------------------------------------------------------*/
FoamFile
{
    version     2.0;
    format      ascii;
    class       volVectorField;
    location    "0";
    object      U;
}
// * * * * * * * * * * * * * * * * * * * * * * * * * * * * * * * * * * * * * //

dimensions      [0 1 -1 0 0 0 0];


internalField   nonuniform List<vector> 
67500
(
(-0.0211146 0.0158671 0)
(-0.0461659 0.00265568 0)
(-0.0165719 -0.0206349 0)
(0.048385 -0.0341676 0)
(0.129203 -0.0383306 0)
(0.193216 -0.025158 0)
(0.224784 -0.0108123 0)
(0.231093 -0.00246386 0)
(0.228224 0.000529681 0)
(0.224716 0.00132139 0)
(0.221538 0.00137251 0)
(0.218962 0.000889586 0)
(0.2178 6.79308e-05 0)
(0.218512 -0.0008647 0)
(0.221419 -0.00185367 0)
(0.226322 -0.00279858 0)
(0.232974 -0.00364706 0)
(0.24117 -0.00439652 0)
(0.250745 -0.00506655 0)
(0.261574 -0.00567877 0)
(0.273567 -0.00624705 0)
(0.286652 -0.00677614 0)
(0.300755 -0.0072643 0)
(0.315793 -0.0077066 0)
(0.331668 -0.00809774 0)
(0.348272 -0.0084335 0)
(0.365489 -0.008711 0)
(0.3832 -0.00892814 0)
(0.401279 -0.0090828 0)
(0.419596 -0.00917221 0)
(0.438016 -0.00919256 0)
(0.456395 -0.00914078 0)
(0.474591 -0.00902044 0)
(0.49248 -0.00884893 0)
(0.509991 -0.00865295 0)
(0.527096 -0.00844995 0)
(0.543789 -0.00824526 0)
(0.560072 -0.00804444 0)
(0.57596 -0.00785544 0)
(0.591485 -0.0076809 0)
(0.606673 -0.00751731 0)
(0.621543 -0.00736079 0)
(0.636108 -0.00720811 0)
(0.65037 -0.00705506 0)
(0.664324 -0.0068978 0)
(0.677959 -0.00673437 0)
(0.69126 -0.00656396 0)
(0.704213 -0.00638645 0)
(0.716804 -0.00620255 0)
(0.729021 -0.0060135 0)
(0.740855 -0.0058207 0)
(0.752299 -0.00562563 0)
(0.763352 -0.00542969 0)
(0.774011 -0.00523414 0)
(0.78428 -0.00504005 0)
(0.794163 -0.00484832 0)
(0.803665 -0.00465967 0)
(0.812793 -0.00447468 0)
(0.821554 -0.00429377 0)
(0.829958 -0.00411728 0)
(0.838014 -0.00394545 0)
(0.845731 -0.00377844 0)
(0.853119 -0.00361637 0)
(0.860188 -0.00345932 0)
(0.866948 -0.00330733 0)
(0.873409 -0.00316042 0)
(0.879582 -0.00301857 0)
(0.885476 -0.00288177 0)
(0.891101 -0.00274997 0)
(0.896468 -0.00262311 0)
(0.901587 -0.00250112 0)
(0.906466 -0.00238391 0)
(0.911116 -0.00227139 0)
(0.915546 -0.00216346 0)
(0.919764 -0.00206 0)
(0.92378 -0.00196088 0)
(0.927602 -0.001866 0)
(0.931239 -0.00177522 0)
(0.934699 -0.00168841 0)
(0.937988 -0.00160544 0)
(0.941116 -0.00152618 0)
(0.944089 -0.00145051 0)
(0.946914 -0.0013783 0)
(0.949598 -0.00130941 0)
(0.952148 -0.00124373 0)
(0.95457 -0.00118114 0)
(0.95687 -0.00112152 0)
(0.959053 -0.00106476 0)
(0.961126 -0.00101074 0)
(0.963093 -0.000959352 0)
(0.96496 -0.000910497 0)
(0.966732 -0.000864065 0)
(0.968414 -0.000819953 0)
(0.97001 -0.00077806 0)
(0.971524 -0.000738284 0)
(0.972961 -0.000700529 0)
(0.974324 -0.000664699 0)
(0.975618 -0.000630698 0)
(0.976845 -0.000598437 0)
(0.97801 -0.000567827 0)
(0.979115 -0.000538783 0)
(0.980164 -0.000511222 0)
(0.981159 -0.000485065 0)
(0.982103 -0.000460237 0)
(0.982998 -0.000436667 0)
(0.983848 -0.000414284 0)
(0.984654 -0.000393026 0)
(0.985419 -0.000372829 0)
(0.986144 -0.000353639 0)
(0.986833 -0.000335401 0)
(0.987485 -0.000318065 0)
(0.988104 -0.000301588 0)
(0.988691 -0.000285926 0)
(0.989247 -0.000271042 0)
(0.989774 -0.0002569 0)
(0.990274 -0.000243468 0)
(0.990747 -0.000230716 0)
(0.991196 -0.000218615 0)
(0.991621 -0.000207138 0)
(0.992024 -0.00019626 0)
(0.992406 -0.000185955 0)
(0.992767 -0.000176199 0)
(0.99311 -0.000166968 0)
(0.993435 -0.000158238 0)
(0.993742 -0.000149985 0)
(0.994034 -0.000142187 0)
(0.994311 -0.000134822 0)
(0.994573 -0.000127868 0)
(0.994822 -0.000121304 0)
(0.995058 -0.000115109 0)
(0.995282 -0.000109264 0)
(0.995494 -0.00010375 0)
(0.995696 -9.85497e-05 0)
(0.995888 -9.36446e-05 0)
(0.996071 -8.90185e-05 0)
(0.996244 -8.46553e-05 0)
(0.996409 -8.05396e-05 0)
(0.996566 -7.66566e-05 0)
(0.996716 -7.2992e-05 0)
(0.996858 -6.95322e-05 0)
(0.996993 -6.62641e-05 0)
(0.997123 -6.31752e-05 0)
(0.997246 -6.02537e-05 0)
(0.997364 -5.74883e-05 0)
(0.997476 -5.48683e-05 0)
(0.997583 -5.23837e-05 0)
(0.997685 -5.00253e-05 0)
(0.997783 -4.77842e-05 0)
(0.997876 -4.56525e-05 0)
(0.997965 -4.36228e-05 0)
(0.998051 -4.16882e-05 0)
(0.998132 -3.98427e-05 0)
(0.99821 -3.80807e-05 0)
(0.998284 -3.6397e-05 0)
(0.998355 -3.4787e-05 0)
(0.998423 -3.32467e-05 0)
(0.998488 -3.17723e-05 0)
(0.99855 -3.03604e-05 0)
(0.99861 -2.90079e-05 0)
(0.998666 -2.77121e-05 0)
(0.998721 -2.64704e-05 0)
(0.998772 -2.52805e-05 0)
(0.998822 -2.41402e-05 0)
(0.998869 -2.30476e-05 0)
(0.998914 -2.20008e-05 0)
(0.998957 -2.09981e-05 0)
(0.998998 -2.00378e-05 0)
(0.999037 -1.91185e-05 0)
(0.999074 -1.82385e-05 0)
(0.99911 -1.73966e-05 0)
(0.999144 -1.65912e-05 0)
(0.999176 -1.58212e-05 0)
(0.999207 -1.50853e-05 0)
(0.999236 -1.43821e-05 0)
(0.999264 -1.37105e-05 0)
(0.999291 -1.30694e-05 0)
(0.999317 -1.24575e-05 0)
(0.999341 -1.18738e-05 0)
(0.999364 -1.13172e-05 0)
(0.999386 -1.07867e-05 0)
(0.999407 -1.02811e-05 0)
(0.999427 -9.7996e-06 0)
(0.999446 -9.34116e-06 0)
(0.999465 -8.90484e-06 0)
(0.999482 -8.48976e-06 0)
(0.999499 -8.09503e-06 0)
(0.999514 -7.71982e-06 0)
(0.999529 -7.3633e-06 0)
(0.999544 -7.02468e-06 0)
(0.999558 -6.7032e-06 0)
(0.999571 -6.39812e-06 0)
(0.999583 -6.10874e-06 0)
(0.999595 -5.83436e-06 0)
(0.999606 -5.57432e-06 0)
(0.999617 -5.32799e-06 0)
(0.999628 -5.09475e-06 0)
(0.999638 -4.874e-06 0)
(0.999647 -4.66518e-06 0)
(0.999656 -4.46774e-06 0)
(0.999665 -4.28113e-06 0)
(0.999673 -4.10485e-06 0)
(0.999682 -3.9384e-06 0)
(0.999689 -3.78131e-06 0)
(0.999697 -3.63312e-06 0)
(0.999704 -3.49337e-06 0)
(0.999711 -3.36166e-06 0)
(0.999717 -3.23755e-06 0)
(0.999724 -3.12066e-06 0)
(0.99973 -3.01059e-06 0)
(0.999736 -2.90699e-06 0)
(0.999741 -2.80949e-06 0)
(0.999747 -2.71774e-06 0)
(0.999752 -2.63142e-06 0)
(0.999757 -2.55021e-06 0)
(0.999762 -2.47378e-06 0)
(0.999767 -2.40185e-06 0)
(0.999772 -2.33412e-06 0)
(0.999777 -2.27031e-06 0)
(0.999781 -2.21016e-06 0)
(0.999785 -2.1534e-06 0)
(0.99979 -2.09978e-06 0)
(0.999794 -2.04906e-06 0)
(0.999798 -2.00101e-06 0)
(0.999802 -1.95538e-06 0)
(0.999806 -1.91198e-06 0)
(0.999809 -1.87059e-06 0)
(0.999813 -1.83101e-06 0)
(0.999817 -1.79304e-06 0)
(0.99982 -1.7565e-06 0)
(0.999824 -1.72123e-06 0)
(0.999827 -1.68704e-06 0)
(0.999831 -1.6538e-06 0)
(0.999834 -1.62134e-06 0)
(0.999837 -1.58954e-06 0)
(0.99984 -1.55827e-06 0)
(0.999843 -1.52742e-06 0)
(0.999846 -1.49689e-06 0)
(0.999849 -1.46659e-06 0)
(0.999852 -1.43644e-06 0)
(0.999855 -1.40638e-06 0)
(0.999858 -1.37636e-06 0)
(0.99986 -1.34634e-06 0)
(0.999863 -1.31631e-06 0)
(0.999866 -1.28625e-06 0)
(0.999868 -1.25618e-06 0)
(0.999871 -1.2261e-06 0)
(0.999873 -1.19607e-06 0)
(0.999876 -1.16611e-06 0)
(0.999878 -1.13627e-06 0)
(0.99988 -1.10661e-06 0)
(0.999882 -1.0772e-06 0)
(0.999884 -1.04808e-06 0)
(0.999886 -1.01931e-06 0)
(0.999888 -9.90951e-07 0)
(0.99989 -9.63039e-07 0)
(0.999892 -9.35613e-07 0)
(0.999894 -9.08703e-07 0)
(0.999896 -8.82332e-07 0)
(0.999898 -8.56518e-07 0)
(0.999899 -8.31281e-07 0)
(0.999901 -8.06642e-07 0)
(0.999903 -7.82632e-07 0)
(0.999904 -7.59293e-07 0)
(0.999906 -7.36684e-07 0)
(0.999907 -7.14881e-07 0)
(0.999909 -6.93977e-07 0)
(0.99991 -6.74081e-07 0)
(0.999911 -6.55304e-07 0)
(0.999912 -6.3776e-07 0)
(0.999914 -6.21543e-07 0)
(0.999915 -6.06718e-07 0)
(0.999916 -5.93305e-07 0)
(0.999917 -5.81263e-07 0)
(0.999918 -5.70485e-07 0)
(0.99992 -5.60792e-07 0)
(0.999921 -5.51936e-07 0)
(0.999922 -5.4362e-07 0)
(0.999923 -5.35517e-07 0)
(0.999924 -5.27301e-07 0)
(0.999925 -5.18686e-07 0)
(0.999926 -5.09457e-07 0)
(0.999927 -4.995e-07 0)
(0.999928 -4.88824e-07 0)
(0.999929 -4.77568e-07 0)
(0.99993 -4.65988e-07 0)
(0.999931 -4.54442e-07 0)
(0.999932 -4.43349e-07 0)
(0.999933 -4.33149e-07 0)
(0.999934 -4.24257e-07 0)
(0.999934 -4.17028e-07 0)
(0.999935 -4.11718e-07 0)
(0.999936 -4.08466e-07 0)
(0.999937 -4.07289e-07 0)
(0.999938 -4.0808e-07 0)
(0.999938 -4.1063e-07 0)
(0.999939 -4.14645e-07 0)
(0.99994 -4.19776e-07 0)
(0.999941 -4.25643e-07 0)
(0.999942 -4.31861e-07 0)
(0.999943 -4.38063e-07 0)
(0.999944 -4.4392e-07 0)
(0.999944 -4.49145e-07 0)
(0.999945 -4.5351e-07 0)
(0.999946 -4.56838e-07 0)
(0.999947 -4.59012e-07 0)
(0.999948 -4.59964e-07 0)
(0.999949 -4.59672e-07 0)
(0.99995 -4.58155e-07 0)
(0.999951 -4.5546e-07 0)
(0.999952 -4.5166e-07 0)
(0.999953 -4.46847e-07 0)
(0.999954 -4.41123e-07 0)
(0.999954 -4.34596e-07 0)
(0.999955 -4.27378e-07 0)
(0.999956 -4.19577e-07 0)
(0.999957 -4.11299e-07 0)
(0.999958 -4.02644e-07 0)
(0.999959 -3.93703e-07 0)
(0.999959 -3.84561e-07 0)
(0.99996 -3.75292e-07 0)
(0.999961 -3.65965e-07 0)
(0.999962 -3.56637e-07 0)
(0.999962 -3.4736e-07 0)
(0.999963 -3.38176e-07 0)
(0.999964 -3.29122e-07 0)
(0.999964 -3.20228e-07 0)
(0.999965 -3.11518e-07 0)
(0.999966 -3.03012e-07 0)
(0.999966 -2.94725e-07 0)
(0.999967 -2.86666e-07 0)
(0.999967 -2.78845e-07 0)
(0.999968 -2.71266e-07 0)
(0.999968 -2.63931e-07 0)
(0.999969 -2.5684e-07 0)
(0.999969 -2.49991e-07 0)
(0.99997 -2.43382e-07 0)
(0.99997 -2.37009e-07 0)
(0.999971 -2.30866e-07 0)
(0.999971 -2.24948e-07 0)
(0.999972 -2.19248e-07 0)
(0.999972 -2.13759e-07 0)
(0.999973 -2.08475e-07 0)
(0.999973 -2.03388e-07 0)
(0.999973 -1.9849e-07 0)
(0.999974 -1.93775e-07 0)
(0.999974 -1.89235e-07 0)
(0.999975 -1.84862e-07 0)
(0.999975 -1.80651e-07 0)
(0.999975 -1.76592e-07 0)
(0.999976 -1.72681e-07 0)
(0.999976 -1.6891e-07 0)
(0.999976 -1.65273e-07 0)
(0.999977 -1.61764e-07 0)
(0.999977 -1.58376e-07 0)
(0.999977 -1.55105e-07 0)
(0.999978 -1.51944e-07 0)
(0.999978 -1.4889e-07 0)
(0.999978 -1.45935e-07 0)
(0.999978 -1.43077e-07 0)
(0.999979 -1.40309e-07 0)
(0.999979 -1.37629e-07 0)
(0.999979 -1.35032e-07 0)
(0.99998 -1.32513e-07 0)
(0.99998 -1.3007e-07 0)
(0.99998 -1.27698e-07 0)
(0.99998 -1.25395e-07 0)
(0.999981 -1.23157e-07 0)
(0.999981 -1.20981e-07 0)
(0.999981 -1.18864e-07 0)
(0.999981 -1.16803e-07 0)
(0.999982 -1.14797e-07 0)
(0.999982 -1.12841e-07 0)
(0.999982 -1.10935e-07 0)
(0.999982 -1.09076e-07 0)
(0.999982 -1.07262e-07 0)
(0.999983 -1.05491e-07 0)
(0.999983 -1.0376e-07 0)
(0.999983 -1.02069e-07 0)
(0.999983 -1.00415e-07 0)
(0.999983 -9.87972e-08 0)
(0.999984 -9.72138e-08 0)
(0.999984 -9.56633e-08 0)
(0.999984 -9.41444e-08 0)
(0.999984 -9.26559e-08 0)
(0.999984 -9.11965e-08 0)
(0.999985 -8.97651e-08 0)
(0.999985 -8.83604e-08 0)
(0.999985 -8.69816e-08 0)
(0.999985 -8.56276e-08 0)
(0.999985 -8.42975e-08 0)
(0.999985 -8.29904e-08 0)
(0.999986 -8.17055e-08 0)
(0.999986 -8.04419e-08 0)
(0.999986 -7.91989e-08 0)
(0.999986 -7.79757e-08 0)
(0.999986 -7.67717e-08 0)
(0.999986 -7.55862e-08 0)
(0.999987 -7.44187e-08 0)
(0.999987 -7.32684e-08 0)
(0.999987 -7.21348e-08 0)
(0.999987 -7.10175e-08 0)
(0.999987 -6.99158e-08 0)
(0.999987 -6.88294e-08 0)
(0.999987 -6.77577e-08 0)
(0.999988 -6.67003e-08 0)
(0.999988 -6.56567e-08 0)
(0.999988 -6.46265e-08 0)
(0.999988 -6.36095e-08 0)
(0.999988 -6.26051e-08 0)
(0.999988 -6.16131e-08 0)
(0.999988 -6.06331e-08 0)
(0.999988 -5.96648e-08 0)
(0.999989 -5.87078e-08 0)
(0.999989 -5.77618e-08 0)
(0.999989 -5.68267e-08 0)
(0.999989 -5.5902e-08 0)
(0.999989 -5.49876e-08 0)
(0.999989 -5.40832e-08 0)
(0.999989 -5.31884e-08 0)
(0.999989 -5.23032e-08 0)
(0.999989 -5.14272e-08 0)
(0.999989 -5.05602e-08 0)
(0.99999 -4.97021e-08 0)
(0.99999 -4.88526e-08 0)
(0.99999 -4.80115e-08 0)
(0.99999 -4.71786e-08 0)
(0.99999 -4.63538e-08 0)
(0.99999 -4.55368e-08 0)
(0.99999 -4.47275e-08 0)
(0.99999 -4.39257e-08 0)
(0.99999 -4.31313e-08 0)
(0.99999 -4.2344e-08 0)
(0.999991 -4.15636e-08 0)
(0.999991 -4.07902e-08 0)
(0.999991 -4.00235e-08 0)
(0.999991 -3.92634e-08 0)
(0.999991 -3.85097e-08 0)
(0.999991 -3.77622e-08 0)
(0.999991 -3.7021e-08 0)
(0.999991 -3.62857e-08 0)
(0.999991 -3.55563e-08 0)
(0.999991 -3.48327e-08 0)
(0.999991 -3.41147e-08 0)
(0.999991 -3.34022e-08 0)
(0.999991 -3.26954e-08 0)
(0.999991 -3.19923e-08 0)
(0.999992 -3.1301e-08 0)
(0.999992 -3.05867e-08 0)
(0.999992 -2.9997e-08 0)
(0.999992 -2.89001e-08 0)
(-0.0235969 0.0472053 0)
(-0.0443509 0.00195593 0)
(0.00156606 -0.0762649 0)
(0.0760317 -0.114626 0)
(0.17272 -0.117602 0)
(0.247735 -0.0577816 0)
(0.257366 -0.0121786 0)
(0.236941 0.00142541 0)
(0.220724 0.00281409 0)
(0.215826 0.00393205 0)
(0.214971 0.00446846 0)
(0.214032 0.00306263 0)
(0.213781 0.000260028 0)
(0.215569 -0.00291513 0)
(0.219351 -0.00597032 0)
(0.224872 -0.00874204 0)
(0.23189 -0.0111994 0)
(0.240244 -0.0133787 0)
(0.24983 -0.0153462 0)
(0.260585 -0.017161 0)
(0.272472 -0.0188564 0)
(0.285457 -0.0204398 0)
(0.299492 -0.0219009 0)
(0.314509 -0.0232219 0)
(0.330419 -0.0243864 0)
(0.347115 -0.0253829 0)
(0.364474 -0.0262032 0)
(0.382367 -0.0268408 0)
(0.400659 -0.0272904 0)
(0.419207 -0.0275461 0)
(0.437862 -0.0275981 0)
(0.456464 -0.0274363 0)
(0.474841 -0.0270668 0)
(0.492845 -0.026542 0)
(0.510406 -0.0259512 0)
(0.527522 -0.0253455 0)
(0.544205 -0.0247311 0)
(0.560461 -0.0241233 0)
(0.576311 -0.0235532 0)
(0.5918 -0.0230307 0)
(0.606963 -0.022542 0)
(0.621819 -0.0220748 0)
(0.636378 -0.0216201 0)
(0.650644 -0.021164 0)
(0.664609 -0.0206939 0)
(0.678259 -0.0202043 0)
(0.691576 -0.019693 0)
(0.704544 -0.0191596 0)
(0.717148 -0.0186067 0)
(0.729375 -0.0180383 0)
(0.741216 -0.0174585 0)
(0.752664 -0.016872 0)
(0.763718 -0.0162831 0)
(0.774377 -0.0156955 0)
(0.784643 -0.0151125 0)
(0.794521 -0.0145368 0)
(0.804017 -0.0139706 0)
(0.813137 -0.0134154 0)
(0.821891 -0.0128726 0)
(0.830287 -0.0123432 0)
(0.838334 -0.0118277 0)
(0.846042 -0.0113269 0)
(0.853421 -0.0108408 0)
(0.86048 -0.0103699 0)
(0.867231 -0.00991416 0)
(0.873682 -0.00947365 0)
(0.879845 -0.00904836 0)
(0.88573 -0.00863821 0)
(0.891346 -0.00824307 0)
(0.896704 -0.00786275 0)
(0.901814 -0.00749703 0)
(0.906684 -0.00714567 0)
(0.911326 -0.00680837 0)
(0.915747 -0.00648482 0)
(0.919957 -0.00617467 0)
(0.923965 -0.00587757 0)
(0.927779 -0.00559315 0)
(0.931409 -0.00532102 0)
(0.934861 -0.00506081 0)
(0.938143 -0.00481211 0)
(0.941264 -0.00457454 0)
(0.944231 -0.00434771 0)
(0.947049 -0.00413124 0)
(0.949728 -0.00392475 0)
(0.952271 -0.00372787 0)
(0.954687 -0.00354025 0)
(0.956982 -0.00336154 0)
(0.95916 -0.00319139 0)
(0.961227 -0.00302946 0)
(0.96319 -0.00287544 0)
(0.965052 -0.002729 0)
(0.96682 -0.00258982 0)
(0.968498 -0.0024576 0)
(0.970089 -0.00233203 0)
(0.971599 -0.00221281 0)
(0.973033 -0.00209965 0)
(0.974392 -0.00199225 0)
(0.975682 -0.00189035 0)
(0.976907 -0.00179366 0)
(0.978068 -0.00170192 0)
(0.97917 -0.00161487 0)
(0.980216 -0.00153227 0)
(0.981208 -0.00145387 0)
(0.98215 -0.00137946 0)
(0.983043 -0.00130882 0)
(0.983891 -0.00124174 0)
(0.984695 -0.00117802 0)
(0.985458 -0.00111749 0)
(0.986181 -0.00105997 0)
(0.986868 -0.00100531 0)
(0.987518 -0.000953346 0)
(0.988136 -0.000903954 0)
(0.988721 -0.000857007 0)
(0.989276 -0.000812389 0)
(0.989801 -0.000769996 0)
(0.9903 -0.00072973 0)
(0.990772 -0.000691502 0)
(0.991219 -0.000655226 0)
(0.991643 -0.000620822 0)
(0.992045 -0.000588212 0)
(0.992425 -0.000557322 0)
(0.992786 -0.000528078 0)
(0.993128 -0.000500407 0)
(0.993451 -0.000474239 0)
(0.993758 -0.000449504 0)
(0.994049 -0.000426133 0)
(0.994325 -0.000404059 0)
(0.994586 -0.000383217 0)
(0.994834 -0.000363544 0)
(0.99507 -0.000344979 0)
(0.995293 -0.000327463 0)
(0.995505 -0.00031094 0)
(0.995707 -0.000295355 0)
(0.995898 -0.000280656 0)
(0.99608 -0.000266794 0)
(0.996253 -0.00025372 0)
(0.996417 -0.000241387 0)
(0.996574 -0.000229752 0)
(0.996723 -0.000218772 0)
(0.996865 -0.000208405 0)
(0.997 -0.000198614 0)
(0.997129 -0.000189359 0)
(0.997252 -0.000180605 0)
(0.997369 -0.00017232 0)
(0.997481 -0.00016447 0)
(0.997588 -0.000157025 0)
(0.99769 -0.000149959 0)
(0.997787 -0.000143243 0)
(0.99788 -0.000136856 0)
(0.997969 -0.000130773 -3.20916e-42)
(0.998054 -0.000124976 -3.05249e-42)
(0.998136 -0.000119445 0)
(0.998213 -0.000114164 0)
(0.998288 -0.000109117 0)
(0.998359 -0.000104291 0)
(0.998426 -9.96743e-05 0)
(0.998491 -9.52544e-05 0)
(0.998553 -9.10217e-05 0)
(0.998612 -8.69671e-05 0)
(0.998669 -8.30822e-05 0)
(0.998723 -7.93594e-05 0)
(0.998775 -7.57918e-05 0)
(0.998824 -7.23729e-05 0)
(0.998871 -6.9097e-05 0)
(0.998916 -6.59583e-05 0)
(0.998959 -6.29518e-05 0)
(0.999 -6.00726e-05 0)
(0.999039 -5.7316e-05 0)
(0.999076 -5.46775e-05 0)
(0.999111 -5.2153e-05 0)
(0.999145 -4.97384e-05 0)
(0.999178 -4.74297e-05 0)
(0.999208 -4.5223e-05 0)
(0.999238 -4.31147e-05 0)
(0.999266 -4.11012e-05 0)
(0.999292 -3.91789e-05 0)
(0.999318 -3.73444e-05 0)
(0.999342 -3.55944e-05 0)
(0.999365 -3.39256e-05 0)
(0.999387 -3.2335e-05 0)
(0.999408 -3.08193e-05 0)
(0.999428 -2.93757e-05 0)
(0.999447 -2.80013e-05 0)
(0.999466 -2.66933e-05 0)
(0.999483 -2.54489e-05 0)
(0.999499 -2.42656e-05 0)
(0.999515 -2.31408e-05 0)
(0.99953 -2.2072e-05 0)
(0.999544 -2.10569e-05 0)
(0.999558 -2.00932e-05 0)
(0.999571 -1.91787e-05 0)
(0.999584 -1.83112e-05 0)
(0.999596 -1.74887e-05 0)
(0.999607 -1.67092e-05 0)
(0.999618 -1.59709e-05 0)
(0.999628 -1.52717e-05 0)
(0.999638 -1.46101e-05 0)
(0.999648 -1.39842e-05 0)
(0.999657 -1.33924e-05 0)
(0.999665 -1.28331e-05 0)
(0.999674 -1.23047e-05 0)
(0.999682 -1.18058e-05 0)
(0.99969 -1.1335e-05 0)
(0.999697 -1.08909e-05 0)
(0.999704 -1.04721e-05 0)
(0.999711 -1.00774e-05 0)
(0.999717 -9.70543e-06 0)
(0.999724 -9.35513e-06 0)
(0.99973 -9.02532e-06 0)
(0.999736 -8.71486e-06 0)
(0.999741 -8.4227e-06 0)
(0.999747 -8.1478e-06 0)
(0.999752 -7.88916e-06 0)
(0.999757 -7.64582e-06 0)
(0.999762 -7.41685e-06 0)
(0.999767 -7.20134e-06 0)
(0.999772 -6.99843e-06 0)
(0.999777 -6.80728e-06 0)
(0.999781 -6.62709e-06 0)
(0.999785 -6.45706e-06 0)
(0.99979 -6.29645e-06 0)
(0.999794 -6.14452e-06 0)
(0.999798 -6.00058e-06 0)
(0.999802 -5.86393e-06 0)
(0.999806 -5.73394e-06 0)
(0.999809 -5.60996e-06 0)
(0.999813 -5.4914e-06 0)
(0.999817 -5.37768e-06 0)
(0.99982 -5.26825e-06 0)
(0.999824 -5.16259e-06 0)
(0.999827 -5.06019e-06 0)
(0.999831 -4.96059e-06 0)
(0.999834 -4.86336e-06 0)
(0.999837 -4.76809e-06 0)
(0.99984 -4.6744e-06 0)
(0.999843 -4.58195e-06 0)
(0.999846 -4.49044e-06 0)
(0.999849 -4.39961e-06 0)
(0.999852 -4.30922e-06 0)
(0.999855 -4.21909e-06 0)
(0.999858 -4.12906e-06 0)
(0.999861 -4.03903e-06 0)
(0.999863 -3.94894e-06 0)
(0.999866 -3.85876e-06 0)
(0.999868 -3.76852e-06 0)
(0.999871 -3.67828e-06 0)
(0.999873 -3.58812e-06 0)
(0.999876 -3.49819e-06 0)
(0.999878 -3.40863e-06 0)
(0.99988 -3.3196e-06 0)
(0.999882 -3.2313e-06 0)
(0.999884 -3.14388e-06 0)
(0.999887 -3.05753e-06 0)
(0.999889 -2.97241e-06 0)
(0.99989 -2.88863e-06 0)
(0.999892 -2.80633e-06 0)
(0.999894 -2.72557e-06 0)
(0.999896 -2.64644e-06 0)
(0.999898 -2.56898e-06 0)
(0.999899 -2.49324e-06 0)
(0.999901 -2.41929e-06 0)
(0.999903 -2.34722e-06 0)
(0.999904 -2.27714e-06 0)
(0.999906 -2.20924e-06 0)
(0.999907 -2.14374e-06 0)
(0.999909 -2.08092e-06 0)
(0.99991 -2.02112e-06 0)
(0.999911 -1.96469e-06 0)
(0.999913 -1.91197e-06 0)
(0.999914 -1.86326e-06 0)
(0.999915 -1.81877e-06 0)
(0.999916 -1.77857e-06 0)
(0.999917 -1.74256e-06 0)
(0.999919 -1.7104e-06 0)
(0.99992 -1.68156e-06 0)
(0.999921 -1.65528e-06 0)
(0.999922 -1.63065e-06 0)
(0.999923 -1.60665e-06 0)
(0.999924 -1.58227e-06 0)
(0.999925 -1.55663e-06 0)
(0.999926 -1.52904e-06 0)
(0.999927 -1.49916e-06 0)
(0.999928 -1.46699e-06 0)
(0.999929 -1.43297e-06 0)
(0.99993 -1.39789e-06 0)
(0.999931 -1.36285e-06 0)
(0.999932 -1.32915e-06 0)
(0.999933 -1.29815e-06 0)
(0.999934 -1.27114e-06 0)
(0.999934 -1.24922e-06 0)
(0.999935 -1.23316e-06 0)
(0.999936 -1.2234e-06 0)
(0.999937 -1.21997e-06 0)
(0.999938 -1.22256e-06 0)
(0.999938 -1.23049e-06 0)
(0.999939 -1.24288e-06 0)
(0.99994 -1.25865e-06 0)
(0.999941 -1.27662e-06 0)
(0.999942 -1.29562e-06 0)
(0.999943 -1.31455e-06 0)
(0.999944 -1.3324e-06 0)
(0.999944 -1.3483e-06 0)
(0.999945 -1.36156e-06 0)
(0.999946 -1.37166e-06 0)
(0.999947 -1.37824e-06 0)
(0.999948 -1.38112e-06 0)
(0.999949 -1.38023e-06 0)
(0.99995 -1.37563e-06 0)
(0.999951 -1.36747e-06 0)
(0.999952 -1.35599e-06 0)
(0.999953 -1.34145e-06 0)
(0.999954 -1.32417e-06 0)
(0.999954 -1.30448e-06 0)
(0.999955 -1.28271e-06 0)
(0.999956 -1.25921e-06 0)
(0.999957 -1.23428e-06 0)
(0.999958 -1.20822e-06 0)
(0.999959 -1.18131e-06 0)
(0.999959 -1.15381e-06 0)
(0.99996 -1.12594e-06 0)
(0.999961 -1.0979e-06 0)
(0.999962 -1.06986e-06 0)
(0.999962 -1.04199e-06 0)
(0.999963 -1.0144e-06 0)
(0.999964 -9.87207e-07 0)
(0.999964 -9.605e-07 0)
(0.999965 -9.34351e-07 0)
(0.999966 -9.08818e-07 0)
(0.999966 -8.83944e-07 0)
(0.999967 -8.59761e-07 0)
(0.999967 -8.36293e-07 0)
(0.999968 -8.13553e-07 0)
(0.999968 -7.91547e-07 0)
(0.999969 -7.70275e-07 0)
(0.999969 -7.49732e-07 0)
(0.99997 -7.2991e-07 0)
(0.99997 -7.10795e-07 0)
(0.999971 -6.92373e-07 0)
(0.999971 -6.74624e-07 0)
(0.999972 -6.57531e-07 0)
(0.999972 -6.41072e-07 0)
(0.999973 -6.25226e-07 0)
(0.999973 -6.09972e-07 0)
(0.999973 -5.95287e-07 0)
(0.999974 -5.81148e-07 0)
(0.999974 -5.67535e-07 0)
(0.999975 -5.54425e-07 0)
(0.999975 -5.41796e-07 0)
(0.999975 -5.29629e-07 0)
(0.999976 -5.17901e-07 0)
(0.999976 -5.06595e-07 0)
(0.999976 -4.95689e-07 0)
(0.999977 -4.85167e-07 0)
(0.999977 -4.75011e-07 0)
(0.999977 -4.65203e-07 0)
(0.999978 -4.55726e-07 0)
(0.999978 -4.46567e-07 0)
(0.999978 -4.37709e-07 0)
(0.999978 -4.29138e-07 0)
(0.999979 -4.2084e-07 0)
(0.999979 -4.12804e-07 0)
(0.999979 -4.05015e-07 0)
(0.99998 -3.97464e-07 0)
(0.99998 -3.90137e-07 0)
(0.99998 -3.83026e-07 0)
(0.99998 -3.76119e-07 0)
(0.999981 -3.69407e-07 0)
(0.999981 -3.62882e-07 0)
(0.999981 -3.56534e-07 0)
(0.999981 -3.50355e-07 0)
(0.999982 -3.44337e-07 0)
(0.999982 -3.38474e-07 0)
(0.999982 -3.32758e-07 0)
(0.999982 -3.27183e-07 0)
(0.999982 -3.21742e-07 0)
(0.999983 -3.1643e-07 0)
(0.999983 -3.1124e-07 0)
(0.999983 -3.06168e-07 0)
(0.999983 -3.01208e-07 0)
(0.999983 -2.96356e-07 0)
(0.999984 -2.91607e-07 0)
(0.999984 -2.86957e-07 0)
(0.999984 -2.82402e-07 0)
(0.999984 -2.77938e-07 0)
(0.999984 -2.73561e-07 0)
(0.999985 -2.69268e-07 0)
(0.999985 -2.65055e-07 0)
(0.999985 -2.60919e-07 0)
(0.999985 -2.56858e-07 0)
(0.999985 -2.52869e-07 0)
(0.999985 -2.48948e-07 0)
(0.999986 -2.45094e-07 0)
(0.999986 -2.41304e-07 0)
(0.999986 -2.37576e-07 0)
(0.999986 -2.33907e-07 0)
(0.999986 -2.30296e-07 0)
(0.999986 -2.2674e-07 0)
(0.999987 -2.23238e-07 0)
(0.999987 -2.19788e-07 0)
(0.999987 -2.16388e-07 0)
(0.999987 -2.13036e-07 0)
(0.999987 -2.09732e-07 0)
(0.999987 -2.06473e-07 0)
(0.999987 -2.03258e-07 0)
(0.999988 -2.00086e-07 0)
(0.999988 -1.96956e-07 0)
(0.999988 -1.93866e-07 0)
(0.999988 -1.90815e-07 0)
(0.999988 -1.87803e-07 0)
(0.999988 -1.84827e-07 0)
(0.999988 -1.81887e-07 0)
(0.999988 -1.78982e-07 0)
(0.999989 -1.76112e-07 0)
(0.999989 -1.73274e-07 0)
(0.999989 -1.70469e-07 0)
(0.999989 -1.67695e-07 0)
(0.999989 -1.64952e-07 0)
(0.999989 -1.62239e-07 0)
(0.999989 -1.59555e-07 0)
(0.999989 -1.569e-07 0)
(0.999989 -1.54272e-07 0)
(0.99999 -1.51671e-07 0)
(0.99999 -1.49097e-07 0)
(0.99999 -1.46549e-07 0)
(0.99999 -1.44026e-07 0)
(0.99999 -1.41527e-07 0)
(0.99999 -1.39053e-07 0)
(0.99999 -1.36602e-07 0)
(0.99999 -1.34175e-07 0)
(0.99999 -1.31769e-07 0)
(0.99999 -1.29386e-07 0)
(0.99999 -1.27024e-07 0)
(0.999991 -1.24684e-07 0)
(0.999991 -1.22364e-07 0)
(0.999991 -1.20064e-07 0)
(0.999991 -1.17783e-07 0)
(0.999991 -1.15522e-07 0)
(0.999991 -1.1328e-07 0)
(0.999991 -1.11056e-07 0)
(0.999991 -1.08851e-07 0)
(0.999991 -1.06663e-07 0)
(0.999991 -1.04492e-07 0)
(0.999991 -1.02338e-07 0)
(0.999991 -1.00201e-07 0)
(0.999991 -9.80806e-08 0)
(0.999991 -9.59716e-08 0)
(0.999992 -9.38977e-08 0)
(0.999992 -9.17548e-08 0)
(0.999992 -8.9986e-08 0)
(0.999992 -8.66953e-08 0)
(-0.0228296 0.0786957 0)
(-0.0418513 -0.00964795 0)
(0.021456 -0.134927 0)
(0.0134667 -0.176338 0)
(0.0855889 -0.234359 0)
(0.257944 -0.105975 0)
(0.29581 0.0109991 0)
(0.250053 0.0333006 0)
(0.210491 0.0167442 0)
(0.19773 0.00558415 0)
(0.197249 0.00268335 0)
(0.199777 0.00115933 0)
(0.20348 -0.00214917 0)
(0.208277 -0.00663908 0)
(0.213963 -0.0111546 0)
(0.220429 -0.0152676 0)
(0.227699 -0.0189337 0)
(0.235831 -0.0222393 0)
(0.244907 -0.0252994 0)
(0.255041 -0.0281991 0)
(0.266347 -0.030978 0)
(0.278904 -0.0336377 0)
(0.29273 -0.0361503 0)
(0.307772 -0.03847 0)
(0.323916 -0.0405501 0)
(0.341013 -0.0423543 0)
(0.358902 -0.0438575 0)
(0.377423 -0.0450387 0)
(0.396418 -0.0458806 0)
(0.415733 -0.0463647 0)
(0.435206 -0.0464633 0)
(0.454641 -0.0461423 0)
(0.473795 -0.045403 0)
(0.492427 -0.0443702 0)
(0.51044 -0.0432759 0)
(0.527883 -0.0422186 0)
(0.544791 -0.0411671 0)
(0.561156 -0.0401323 0)
(0.57702 -0.0391824 0)
(0.592482 -0.0383318 0)
(0.60761 -0.0375376 0)
(0.622432 -0.0367757 0)
(0.63697 -0.0360353 0)
(0.651234 -0.0352894 0)
(0.665213 -0.0345137 0)
(0.678886 -0.0337012 0)
(0.69223 -0.0328497 0)
(0.705227 -0.0319585 0)
(0.717856 -0.0310329 0)
(0.730104 -0.0300806 0)
(0.741959 -0.0291093 0)
(0.753416 -0.028127 0)
(0.764472 -0.0271412 0)
(0.775129 -0.0261582 0)
(0.785388 -0.0251834 0)
(0.795257 -0.0242214 0)
(0.80474 -0.0232756 0)
(0.813846 -0.0223487 0)
(0.822584 -0.0214428 0)
(0.830963 -0.0205594 0)
(0.838992 -0.0196997 0)
(0.846681 -0.0188644 0)
(0.85404 -0.018054 0)
(0.86108 -0.0172688 0)
(0.867811 -0.0165091 0)
(0.874244 -0.0157748 0)
(0.880387 -0.015066 0)
(0.886253 -0.0143825 0)
(0.89185 -0.013724 0)
(0.897189 -0.0130902 0)
(0.90228 -0.0124809 0)
(0.907132 -0.0118955 0)
(0.911755 -0.0113336 0)
(0.916159 -0.0107947 0)
(0.920352 -0.0102781 0)
(0.924344 -0.00978323 0)
(0.928142 -0.00930954 0)
(0.931756 -0.00885635 0)
(0.935192 -0.00842301 0)
(0.938461 -0.00800888 0)
(0.941567 -0.00761329 0)
(0.94452 -0.0072356 0)
(0.947326 -0.00687517 0)
(0.949991 -0.00653137 0)
(0.952523 -0.00620359 0)
(0.954927 -0.00589123 0)
(0.95721 -0.0055937 0)
(0.959377 -0.00531044 0)
(0.961434 -0.00504088 0)
(0.963387 -0.00478449 0)
(0.96524 -0.00454073 0)
(0.966998 -0.00430908 0)
(0.968667 -0.00408901 0)
(0.97025 -0.00388003 0)
(0.971752 -0.00368163 0)
(0.973178 -0.00349332 0)
(0.97453 -0.00331462 0)
(0.975813 -0.00314505 0)
(0.977031 -0.00298418 0)
(0.978186 -0.00283154 0)
(0.979282 -0.00268671 0)
(0.980322 -0.00254928 0)
(0.981309 -0.00241886 0)
(0.982246 -0.00229507 0)
(0.983134 -0.00217755 0)
(0.983977 -0.00206595 0)
(0.984777 -0.00195995 0)
(0.985536 -0.00185924 0)
(0.986255 -0.00176355 0)
(0.986938 -0.00167259 0)
(0.987585 -0.00158613 0)
(0.988199 -0.00150395 0)
(0.988781 -0.00142582 0)
(0.989333 -0.00135157 0)
(0.989856 -0.00128102 0)
(0.990352 -0.001214 0)
(0.990821 -0.00115038 0)
(0.991266 -0.00109 0)
(0.991688 -0.00103275 0)
(0.992087 -0.000978478 0)
(0.992465 -0.000927073 0)
(0.992824 -0.00087841 0)
(0.993163 -0.000832369 0)
(0.993485 -0.00078883 0)
(0.99379 -0.000747679 0)
(0.994079 -0.000708799 0)
(0.994353 -0.000672079 0)
(0.994613 -0.000637411 0)
(0.99486 -0.000604689 0)
(0.995094 -0.000573811 0)
(0.995316 -0.000544679 0)
(0.995526 -0.0005172 0)
(0.995727 -0.000491282 0)
(0.995917 -0.000466839 0)
(0.996098 -0.000443788 0)
(0.99627 -0.000422048 0)
(0.996433 -0.000401542 0)
(0.996589 -0.000382198 0)
(0.996737 -0.000363942 0)
(0.996878 -0.000346708 0)
(0.997012 -0.000330429 0)
(0.997141 -0.000315044 0)
(0.997263 -0.000300492 0)
(0.99738 -0.000286717 0)
(0.997491 -0.000273667 0)
(0.997597 -0.000261291 0)
(0.997699 -0.000249541 0)
(0.997796 -0.000238376 0)
(0.997889 -0.000227754 0)
(0.997977 -0.000217639 0)
(0.998062 -0.000207997 0)
(0.998143 -0.000198798 0)
(0.99822 -0.000190012 0)
(0.998294 -0.000181617 0)
(0.998365 -0.000173588 0)
(0.998432 -0.000165905 0)
(0.998497 -0.00015855 0)
(0.998559 -0.000151505 0)
(0.998618 -0.000144757 0)
(0.998674 -0.00013829 0)
(0.998728 -0.000132093 0)
(0.998779 -0.000126155 0)
(0.998828 -0.000120463 0)
(0.998875 -0.000115009 0)
(0.99892 -0.000109784 0)
(0.998963 -0.000104779 0)
(0.999003 -9.9985e-05 0)
(0.999042 -9.53955e-05 0)
(0.999079 -9.10028e-05 0)
(0.999115 -8.67998e-05 0)
(0.999148 -8.27798e-05 0)
(0.999181 -7.89362e-05 0)
(0.999211 -7.52625e-05 0)
(0.99924 -7.17527e-05 0)
(0.999268 -6.84007e-05 0)
(0.999295 -6.52007e-05 0)
(0.99932 -6.21469e-05 0)
(0.999344 -5.92338e-05 0)
(0.999367 -5.6456e-05 0)
(0.999389 -5.38083e-05 0)
(0.99941 -5.12855e-05 0)
(0.99943 -4.88827e-05 0)
(0.999449 -4.65951e-05 0)
(0.999467 -4.44181e-05 0)
(0.999484 -4.2347e-05 0)
(0.999501 -4.03776e-05 0)
(0.999517 -3.85056e-05 0)
(0.999532 -3.6727e-05 0)
(0.999546 -3.50377e-05 0)
(0.999559 -3.3434e-05 0)
(0.999572 -3.19122e-05 0)
(0.999585 -3.04687e-05 0)
(0.999597 -2.91001e-05 0)
(0.999608 -2.78031e-05 0)
(0.999619 -2.65745e-05 0)
(0.999629 -2.54113e-05 0)
(0.999639 -2.43104e-05 0)
(0.999648 -2.32691e-05 0)
(0.999658 -2.22845e-05 0)
(0.999666 -2.1354e-05 0)
(0.999674 -2.04751e-05 0)
(0.999682 -1.96452e-05 0)
(0.99969 -1.88621e-05 0)
(0.999697 -1.81233e-05 0)
(0.999705 -1.74267e-05 0)
(0.999711 -1.67702e-05 0)
(0.999718 -1.61517e-05 0)
(0.999724 -1.55691e-05 0)
(0.99973 -1.50207e-05 0)
(0.999736 -1.45044e-05 0)
(0.999742 -1.40186e-05 0)
(0.999747 -1.35616e-05 0)
(0.999753 -1.31316e-05 0)
(0.999758 -1.27271e-05 0)
(0.999763 -1.23464e-05 0)
(0.999768 -1.19882e-05 0)
(0.999772 -1.1651e-05 0)
(0.999777 -1.13333e-05 0)
(0.999781 -1.10338e-05 0)
(0.999786 -1.07513e-05 0)
(0.99979 -1.04844e-05 0)
(0.999794 -1.0232e-05 0)
(0.999798 -9.99284e-06 0)
(0.999802 -9.76582e-06 0)
(0.999806 -9.54986e-06 0)
(0.99981 -9.3439e-06 0)
(0.999813 -9.14695e-06 0)
(0.999817 -8.95803e-06 0)
(0.999821 -8.77622e-06 0)
(0.999824 -8.60067e-06 0)
(0.999827 -8.43052e-06 0)
(0.999831 -8.26501e-06 0)
(0.999834 -8.10341e-06 0)
(0.999837 -7.94503e-06 0)
(0.99984 -7.78926e-06 0)
(0.999843 -7.63552e-06 0)
(0.999846 -7.4833e-06 0)
(0.999849 -7.33217e-06 0)
(0.999852 -7.18173e-06 0)
(0.999855 -7.03167e-06 0)
(0.999858 -6.88174e-06 0)
(0.999861 -6.73176e-06 0)
(0.999863 -6.58163e-06 0)
(0.999866 -6.43131e-06 0)
(0.999868 -6.28085e-06 0)
(0.999871 -6.13034e-06 0)
(0.999873 -5.97995e-06 0)
(0.999876 -5.8299e-06 0)