/*--------------------------------*- C++ -*----------------------------------*\
| =========                 |                                                 |
| \\      /  F ield         | OpenFOAM: The Open Source CFD Toolbox           |
|  \\    /   O peration     | Version:  v2006                                 |
|   \\  /    A nd           | Website:  www.openfoam.com                      |
|    \\/     M anipulation  |                                                 |
\*---------------------------------------------------------------------------*/
FoamFile
{
    version     2.0;
    format      ascii;
    class       volScalarField;
    location    "0";
    object      alpha.water;
}
// * * * * * * * * * * * * * * * * * * * * * * * * * * * * * * * * * * * * * //

dimensions      [0 0 0 0 0 0 0];


internalField   nonuniform List<scalar> 
67500
(
0.0364196
0.0278056
-0.0117812
-0.00592778
-0.0468573
0.0585518
0.104093
0.208857
0.216305
-0.166954
-0.386278
-0.184437
0.296216
0.284298
-0.156321
-0.0931384
0.119727
-0.187426
0.0546941
0.215953
-0.116493
-0.106136
-0.00763117
-0.0085381
0.0195317
0.0275588
-0.00146914
-0.0145992
-0.00454561
0.00389335
0.00486071
0.00486071
0.00486071
0.00486071
0.00486071
0.00486071
0.00486071
0.00486071
0.00486071
0.00486071
0.00486071
0.00486071
0.00486071
0.00486071
0.00486071
0.00486071
0.00486071
0.00486071
0.00486071
0.00486071
0.00486071
0.00486071
0.00486071
0.00486071
0.00486071
0.00486071
0.00486071
0.00486071
0.00486071
0.00486071
0.00486071
0.00486071
0.00486071
0.00486071
0.00486071
0.00486071
0.00486071
0.00486071
0.00486071
0.00486071
0.00486071
0.00486071
0.00486071
0.00486071
0.00486071
0.00486071
0.00486071
0.00486071
0.00486071
0.00486071
0.00486071
0.00486071
0.00486071
0.00486071
0.00486071
0.00486071
0.00486071
0.00486071
0.00486071
0.00486071
0.00486071
0.00486071
0.00486071
0.00486071
0.00486071
0.00486071
0.00486071
0.00486071
0.00486071
0.00486071
0.00486071
0.00486071
0.00486071
0.00486071
0.00486071
0.00486071
0.00486071
0.00486071
0.00486071
0.00486071
0.00486071
0.00486071
0.00486071
0.00486071
0.00486071
0.00486071
0.00486071
0.00486071
0.00486071
0.00486071
0.00486071
0.00486071
0.00486071
0.00486071
0.00486071
0.00486071
0.00486071
0.00486071
0.00486071
0.00486071
0.00486071
0.00486071
0.00486071
0.00486071
0.00486071
0.00486071
0.00486071
0.00486071
0.00486071
0.00486071
0.00486071
0.00486071
0.00486071
0.00486071
0.00486071
0.00486071
0.00486071
0.00486071
0.00486071
0.00486071
0.00486071
0.00486071
0.00486071
0.00486071
0.00486071
0.00486071
0.00486071
0.00486071
0.00486071
0.00486071
0.00486071
0.00486071
0.00486071
0.00486071
0.00486071
0.00486071
0.00486071
0.00486071
0.00486071
0.00486071
0.00486071
0.00486071
0.00486071
0.00486071
0.00486071
0.00486071
0.00486071
0.00486071
0.00486071
0.00486071
0.00486071
0.00486071
0.00486071
0.00486071
0.00486071
0.00486071
0.00486071
0.00486071
0.00486071
0.00486071
0.00486071
0.00486071
0.00486071
0.00486071
0.00486071
0.00486071
0.00486071
0.00486071
0.00486071
0.00486071
0.00486071
0.00486071
0.00486071
0.00486071
0.00486071
0.00486071
0.00486071
0.00486071
0.00486071
0.00486071
0.00486071
0.00486071
0.00486071
0.00486071
0.00486071
0.00486071
0.00486071
0.00486071
0.00486071
0.00486071
0.00486071
0.00486071
0.00486071
0.00486071
0.00486071
0.00486071
0.00486071
0.00486071
0.00486071
0.00486071
0.00486071
0.00486071
0.00486071
0.00486071
0.00486071
0.00486071
0.00486071
0.00486071
0.00486071
0.00486071
0.00486071
0.00486071
0.00486071
0.00486071
0.00486071
0.00486071
0.00486071
0.00486071
0.00486071
0.00486071
0.00486071
0.00486071
0.00486071
0.00486071
0.00486071
0.00486071
0.00486071
0.00486071
0.00486071
0.00486071
0.00486071
0.00486071
0.00486071
0.00486071
0.00486071
0.00486071
0.00486071
0.00486071
0.00486071
0.00486071
0.00486071
0.00486071
0.00486071
0.00486071
0.00486071
0.00486071
0.00486071
0.00486071
0.00486071
0.00486071
0.00486071
0.00486071
0.00486071
0.00486071
0.00486071
0.00486071
0.00486071
0.00486071
0.00486071
0.00486071
0.00486071
0.00486071
0.00486071
0.00486071
0.00486071
0.00486071
0.00486071
0.00486071
0.00486071
0.00486071
0.00486071
0.00486071
0.00486071
0.00486071
0.00486071
0.00486071
0.00486071
0.00486071
0.00486071
0.00486071
0.00486071
0.00486071
0.00486071
0.00486071
0.00486071
0.00486071
0.00486071
0.00486071
0.00486071
0.00486071
0.00486071
0.00486071
0.00486071
0.00486071
0.00486071
0.00486071
0.00486071
0.00486071
0.00486071
0.00486071
0.00486071
0.00486071
0.00486071
0.00486071
0.00486071
0.00486071
0.00486071
0.00486071
0.00486071
0.00486071
0.00486071
0.00486071
0.00486071
0.00486071
0.00486071
0.00486071
0.00486071
0.00486071
0.00486071
0.00486071
0.00486071
0.00486071
0.00486071
0.00486071
0.00486071
0.00486071
0.00486071
0.00486071
0.00486071
0.00486071
0.00486071
0.00486071
0.00486071
0.00486071
0.00486071
0.00486071
0.00486071
0.00486071
0.00486071
0.00486071
0.00486071
0.00486071
0.00486071
0.00486071
0.00486071
0.00486071
0.00486071
0.00486071
0.00486071
0.00486071
0.00486071
0.00486071
0.00486071
0.00486071
0.00486071
0.00486071
0.00486071
0.00486071
0.00486071
0.00486071
0.00486071
0.00486071
0.00486071
0.00486071
0.00486071
0.00486071
0.00486071
0.00486071
0.00486071
0.00486071
0.00486071
0.00486071
0.00486071
0.00486071
0.00486071
0.00486071
0.00486071
0.00486071
0.00486071
0.00486071
0.00486071
0.00486071
0.00486071
0.00486071
0.00486071
0.00486071
0.00486071
0.00486071
0.00486071
0.00486071
0.00486071
0.00486071
0.00486071
0.00486071
0.00486071
0.00486071
0.00486071
0.00486071
0.00486071
0.00486071
0.00486071
0.00486071
0.00486071
0.00486071
0.00486071
0.00486071
0.00486071
0.00486071
0.00486071
0.00486071
0.00486071
0.00486071
0.00486071
0.00486071
0.00486071
0.00486071
0.00486071
0.00486071
0.00486071
0.00486071
0.0235853
0.0285925
-0.0268474
0.0577934
-0.0707781
-0.0493625
0.235556
0.185515
0.0643473
0.157955
0.0854289
-0.228372
-0.273724
-0.0795782
0.161129
0.272539
0.0685614
-0.258642
-0.26518
0.10103
0.344742
0.0573824
-0.355376
-0.201441
0.164372
0.230944
0.0958552
-0.126142
-0.148158
-0.0117314
0.00486071
0.00486071
0.00486071
0.00486071
0.00486071
0.00486071
0.00486071
0.00485334
0.00482207
0.00483326
0.00479817
0.00456198
0.00426173
0.0041569
0.0042637
0.00447313
0.00482999
0.00503805
0.00475778
0.00395641
0.00289231
0.0019603
0.00144114
0.00132343
0.00155294
0.00200046
0.00253705
0.00305663
0.00349435
0.00382518
0.00405744
0.00420485
0.00427236
0.00427325
0.0042765
0.00433287
0.00445093
0.00459725
0.00472473
0.0048093
0.00484824
0.00486044
0.00486071
0.00486071
0.00486071
0.00486071
0.00486071
0.00486071
0.00486071
0.00486071
0.00486071
0.00486071
0.00486071
0.00486071
0.00486071
0.00486071
0.00486071
0.00486071
0.00486071
0.00486071
0.00486071
0.00486071
0.00486071
0.00486071
0.00486071
0.00486071
0.00486071
0.00486071
0.00486071
0.00486071
0.00486071
0.00486071
0.00486071
0.00486071
0.00486071
0.00486071
0.00486071
0.00486071
0.00486071
0.00486071
0.00486071
0.00486071
0.00486071
0.00486071
0.00486071
0.00486071
0.00486071
0.00486071
0.00486071
0.00486071
0.00486071
0.00486071
0.00486071
0.00486071
0.00486071
0.00486071
0.00486071
0.00486071
0.00486071
0.00486071
0.00486071
0.00486071
0.00486071
0.00486071
0.00486071
0.00486071
0.00486071
0.00486071
0.00486071
0.00486071
0.00486071
0.00486071
0.00486071
0.00486071
0.00486071
0.00486071
0.00486071
0.00486071
0.00486071
0.00486071
0.00486071
0.00486071
0.00486071
0.00486071
0.00486071
0.00486071
0.00486071
0.00486071
0.00486071
0.00486071
0.00486071
0.00486071
0.00486071
0.00486071
0.00486071
0.00486071
0.00486071
0.00486071
0.00486071
0.00486071
0.00486071
0.00486071
0.00486071
0.00486071
0.00486071
0.00486071
0.00486071
0.00486071
0.00486071
0.00486071
0.00486071
0.00486071
0.00486071
0.00486071
0.00486071
0.00486071
0.00486071
0.00486071
0.00486071
0.00486071
0.00486071
0.00486071
0.00486071
0.00486071
0.00486071
0.00486071
0.00486071
0.00486071
0.00486071
0.00486071
0.00486071
0.00486071
0.00486071
0.00486071
0.00486071
0.00486071
0.00486071
0.00486071
0.00486071
0.00486071
0.00486071
0.00486071
0.00486071
0.00486071
0.00486071
0.00486071
0.00486071
0.00486071
0.00486071
0.00486071
0.00486071
0.00486071
0.00486071
0.00486071
0.00486071
0.00486071
0.00486071
0.00486071
0.00486071
0.00486071
0.00486071
0.00486071
0.00486071
0.00486071
0.00486071
0.00486071
0.00486071
0.00486071
0.00486071
0.00486071
0.00486071
0.00486071
0.00486071
0.00486071
0.00486071
0.00486071
0.00486071
0.00486071
0.00486071
0.00486071
0.00486071
0.00486071
0.00486071
0.00486071
0.00486071
0.00486071
0.00486071
0.00486071
0.00486071
0.00486071
0.00486071
0.00486071
0.00486071
0.00486071
0.00486071
0.00486071
0.00486071
0.00486071
0.00486071
0.00486071
0.00486071
0.00486071
0.00486071
0.00486071
0.00486071
0.00486071
0.00486071
0.00486071
0.00486071
0.00486071
0.00486071
0.00486071
0.00486071
0.00486071
0.00486071
0.00486071
0.00486071
0.00486071
0.00486071
0.00486071
0.00486071
0.00486071
0.00486071
0.00486071
0.00486071
0.00486071
0.00486071
0.00486071
0.00486071
0.00486071
0.00486071
0.00486071
0.00486071
0.00486071
0.00486071
0.00486071
0.00486071
0.00486071
0.00486071
0.00486071
0.00486071
0.00486071
0.00486071
0.00486071
0.00486071
0.00486071
0.00486071
0.00486071
0.00486071
0.00486071
0.00486071
0.00486071
0.00486071
0.00486071
0.00486071
0.00486071
0.00486071
0.00486071
0.00486071
0.00486071
0.00486071
0.00486071
0.00486071
0.00486071
0.00486071
0.00486071
0.00486071
0.00486071
0.00486071
0.00486071
0.00486071
0.00486071
0.00486071
0.00486071
0.00486071
0.00486071
0.00486071
0.00486071
0.00486071
0.00486071
0.00486071
0.00486071
0.00486071
0.00486071
0.00486071
0.00486071
0.00486071
0.00486071
0.00486071
0.00486071
0.00486071
0.00486071
0.00486071
0.00486071
0.00486071
0.00486071
0.00486071
0.00486071
0.00486071
0.00486071
0.00486071
0.00486071
0.00486071
0.00486071
0.00486071
0.00486071
0.00486071
0.00486071
0.00486071
0.00486071
0.00486071
0.00486071
0.00486071
0.00486071
0.00486071
0.00486071
0.00486071
0.00486071
0.00486071
0.00486071
0.00486071
0.00486071
0.00486071
0.00486071
0.00486071
0.00486071
0.00486071
0.00486071
0.00486071
0.00486071
0.00486071
0.00486071
0.00486071
0.00486071
0.00486071
0.00486071
0.00486071
0.00486071
0.00486071
0.00486071
0.00486071
0.00486071
0.00486071
0.00486071
0.00486071
0.00486071
0.00486071
0.00486071
0.00486071
0.00486071
0.00486071
0.00486071
0.00486071
0.00486071
0.00486071
0.00486071
0.00486071
0.00486071
0.00486071
0.00486071
0.00486071
0.00486071
0.00486071
0.00486071
0.00486071
0.00486071
0.00486071
0.00486071
0.00486071
0.00486071
0.00486071
0.00486071
0.00486071
0.00486071
0.00486071
0.00486071
0.00486071
0.00486071
0.00486071
0.00486071
0.0713826
0.0131535
-0.0251559
-0.0282658
-0.0195233
-0.318702
0.024928
0.326037
0.165512
0.085392
-0.105269
-0.0675349
0.0210435
0.0132108
-0.0483688
-0.0588862
0.0225798
0.132809
0.0314356
-0.0505168
-0.0546016
-0.0931777
0.0719393
0.175132
0.00973821
-0.166276
-0.0895767
-0.0020846
0.00486071
0.00486071
0.00545631
0.00632589
-0.00296048
-0.00212293
0.00664951
0.0231382
0.0257769
5.38649e-05
-0.00552373
0.00922653
0.0191173
0.0130278
-0.000525661
-0.0118151
-0.0147239
-0.00426013
0.0119359
0.0210007
0.020596
0.0159739
0.0107451
0.00580712
-0.000245706
-0.00794203
-0.0166329
-0.0244035
-0.0291621
-0.0299212
-0.0267375
-0.0202234
-0.0119718
-0.00533468
-0.00400238
-0.00838941
-0.0168007
-0.0254121
-0.0313031
-0.0329105
-0.0306643
-0.0257154
-0.0192757
-0.0125101
-0.00652544
-0.00274643
-0.00150392
-0.00348323
-0.00748664
-0.0124324
-0.0162628
-0.0183263
-0.0187533
-0.0180183
-0.0165874
-0.0147537
-0.0126298
-0.0102757
-0.00775452
-0.00518597
-0.00270815
-0.000481839
0.00138002
0.0028173
0.00381977
0.00443129
0.00474136
0.00484872
0.00486071
0.00486071
0.00486071
0.00486071
0.00486071
0.00486071
0.00486071
0.00486071
0.00486071
0.00486071
0.00486071
0.00486071
0.00486071
0.00486071
0.00486071
0.00486071
0.00486071
0.00486071
0.00486071
0.00486071
0.00486071
0.00486071
0.00486071
0.00486071
0.00486071
0.00486071
0.00486071
0.00486071
0.00486071
0.00486071
0.00486071
0.00486071
0.00486071
0.00486071
0.00486071
0.00486071
0.00486071
0.00486071
0.00486071
0.00486071
0.00486071
0.00486071
0.00486071
0.00486071
0.00486071
0.00486071
0.00486071
0.00486071
0.00486071
0.00486071
0.00486071
0.00486071
0.00486071
0.00486071
0.00486071
0.00486071
0.00486071
0.00486071
0.00486071
0.00486071
0.00486071
0.00486071
0.00486071
0.00486071
0.00486071
0.00486071
0.00486071
0.00486071
0.00486071
0.00486071
0.00486071
0.00486071
0.00486071
0.00486071
0.00486071
0.00486071
0.00486071
0.00486071
0.00486071
0.00486071
0.00486071
0.00486071
0.00486071
0.00486071
0.00486071
0.00486071
0.00486071
0.00486071
0.00486071
0.00486071
0.00486071
0.00486071
0.00486071
0.00486071
0.00486071
0.00486071
0.00486071
0.00486071
0.00486071
0.00486071
0.00486071
0.00486071
0.00486071
0.00486071
0.00486071
0.00486071
0.00486071
0.00486071
0.00486071
0.00486071
0.00486071
0.00486071
0.00486071
0.00486071
0.00486071
0.00486071
0.00486071
0.00486071
0.00486071
0.00486071
0.00486071
0.00486071
0.00486071
0.00486071
0.00486071
0.00486071
0.00486071
0.00486071
0.00486071
0.00486071
0.00486071
0.00486071
0.00486071
0.00486071
0.00486071
0.00486071
0.00486071
0.00486071
0.00486071
0.00486071
0.00486071
0.00486071
0.00486071
0.00486071
0.00486071
0.00486071
0.00486071
0.00486071
0.00486071
0.00486071
0.00486071
0.00486071
0.00486071
0.00486071
0.00486071
0.00486071
0.00486071
0.00486071
0.00486071
0.00486071
0.00486071
0.00486071
0.00486071
0.00486071
0.00486071
0.00486071
0.00486071
0.00486071
0.00486071
0.00486071
0.00486071
0.00486071
0.00486071
0.00486071
0.00486071
0.00486071
0.00486071
0.00486071
0.00486071
0.00486071
0.00486071
0.00486071
0.00486071
0.00486071
0.00486071
0.00486071
0.00486071
0.00486071
0.00486071
0.00486071
0.00486071
0.00486071
0.00486071
0.00486071
0.00486071
0.00486071
0.00486071
0.00486071
0.00486071
0.00486071
0.00486071
0.00486071
0.00486071
0.00486071
0.00486071
0.00486071
0.00486071
0.00486071
0.00486071
0.00486071
0.00486071
0.00486071
0.00486071
0.00486071
0.00486071
0.00486071
0.00486071
0.00486071
0.00486071
0.00486071
0.00486071
0.00486071
0.00486071
0.00486071
0.00486071
0.00486071
0.00486071
0.00486071
0.00486071
0.00486071
0.00486071
0.00486071
0.00486071
0.00486071
0.00486071
0.00486071
0.00486071
0.00486071
0.00486071
0.00486071
0.00486071
0.00486071
0.00486071
0.00486071
0.00486071
0.00486071
0.00486071
0.00486071
0.00486071
0.00486071
0.00486071
0.00486071
0.00486071
0.00486071
0.00486071
0.00486071
0.00486071
0.00486071
0.00486071
0.00486071
0.00486071
0.00486071
0.00486071
0.00486071
0.00486071
0.00486071
0.00486071
0.00486071
0.00486071
0.00486071
0.00486071
0.00486071
0.00486071
0.00486071
0.00486071
0.00486071
0.00486071
0.00486071
0.00486071
0.00486071
0.00486071
0.00486071
0.00486071
0.00486071
0.00486071
0.00486071
0.00486071
0.00486071
0.00486071
0.00486071
0.00486071
0.00486071
0.00486071
0.00486071
0.00486071
0.00486071
0.00486071
0.00486071
0.00486071
0.00486071
0.00486071
0.00486071
0.00486071
0.00486071
0.00486071
0.00486071
0.00486071
0.00486071
0.00486071
0.00486071
0.00486071
0.00486071
0.00486071
0.00486071
0.00486071
0.00486071
0.00486071
0.00486071
0.00486071
0.00486071
0.00486071
0.00486071
0.00486071
0.00486071
0.00486071
0.00486071
0.00486071
0.00486071
0.00486071
0.00486071
0.00486071
0.00486071
0.00486071
0.00486071
0.00486071
0.00486071
0.00486071
0.00486071
0.00486071
0.00486071
0.00486071
0.00486071
0.00486071
0.00486071
0.00486071
0.00486071
0.00486071
0.00486071
0.00486071
0.00486071
0.00486071
0.00486071
0.00486071
0.00486071
0.0600948
0.0184416
0.0493489
0.183412
0.117753
-0.22953
-0.366859
-0.197089
-0.118984
-0.0928997
-0.0508789
-0.00853543
0.0270615
0.0456533
0.0743569
-0.0256049
-0.116864
0.0685347
0.096154
-0.176636
-0.0411305
0.0455158
0.0411593
-0.0318276
-0.0415279
-0.0232322
0.00673142
0.00554188
-0.00386005
0.00174334
-0.0329799
-0.0945406
0.0941893
0.104852
-0.0501706
-0.0516439
-0.0214302
-0.0185871
-0.0197909
-0.0184989
-0.0159139
-0.0119698
-0.00766037
-0.00606117
-0.00852154
-0.016225
-0.0255761
-0.0311024
-0.0300177
-0.0222688
-0.0108258
0.00146491
0.0112925
0.0160748
0.0156656
0.00987191
0.00137743
-0.00537559
-0.0062996
0.00141089
0.0160529
0.0331103
0.0456594
0.0489624
0.0436127
0.0323273
0.0187884
0.00429382
-0.00944484
-0.0202064
-0.0281893
-0.0325834
-0.0338784
-0.0320207
-0.0279676
-0.0212338
-0.0124841
-0.00290221
0.00587948
0.0135576
0.0184037
0.0188714
0.0146306
0.00624231
-0.00549007
-0.0183821
-0.0305505
-0.0416706
-0.0506041
-0.0556579
-0.0566936
-0.0544503
-0.0495693
-0.0434732
-0.0369938
-0.0315581
-0.0271791
-0.0248223
-0.0239799
-0.0239869
-0.0234861
-0.0223316
-0.0207057
-0.0188276
-0.0167241
-0.0142505
-0.01124
-0.00783271
-0.00440681
-0.00133435
0.00111693
0.002887
0.00402488
0.0046294
0.00484557
0.00486071
0.00486071
0.00486071
0.00486071
0.00486071
0.00486071
0.00486071
0.00486071
0.00486071
0.00486071
0.00486071
0.00486071
0.00486071
0.00486071
0.00486071
0.00486071
0.00486071
0.00486071
0.00486071
0.00486071
0.00486071
0.00486071
0.00486071
0.00486071
0.00486071
0.00486071
0.00486071
0.00486071
0.00486071
0.00486071
0.00486071
0.00486071
0.00486071
0.00486071
0.00486071
0.00486071
0.00486071
0.00486071
0.00486071
0.00486071
0.00486071
0.00486071
0.00486071
0.00486071
0.00486071
0.00486071
0.00486071
0.00486071
0.00486071
0.00486071
0.00486071
0.00486071
0.00486071
0.00486071
0.00486071
0.00486071
0.00486071
0.00486071
0.00486071
0.00486071
0.00486071
0.00486071
0.00486071
0.00486071
0.00486071
0.00486071
0.00486071
0.00486071
0.00486071
0.00486071
0.00486071
0.00486071
0.00486071
0.00486071
0.00486071
0.00486071
0.00486071
0.00486071
0.00486071
0.00486071
0.00486071
0.00486071
0.00486071
0.00486071
0.00486071
0.00486071
0.00486071
0.00486071
0.00486071
0.00486071
0.00486071
0.00486071
0.00486071
0.00486071
0.00486071
0.00486071
0.00486071
0.00486071
0.00486071
0.00486071
0.00486071
0.00486071
0.00486071
0.00486071
0.00486071
0.00486071
0.00486071
0.00486071
0.00486071
0.00486071
0.00486071
0.00486071
0.00486071
0.00486071
0.00486071
0.00486071
0.00486071
0.00486071
0.00486071
0.00486071
0.00486071
0.00486071
0.00486071
0.00486071
0.00486071
0.00486071
0.00486071
0.00486071
0.00486071
0.00486071
0.00486071
0.00486071
0.00486071
0.00486071
0.00486071
0.00486071
0.00486071
0.00486071
0.00486071
0.00486071
0.00486071
0.00486071
0.00486071
0.00486071
0.00486071
0.00486071
0.00486071
0.00486071
0.00486071
0.00486071
0.00486071
0.00486071
0.00486071
0.00486071
0.00486071
0.00486071
0.00486071
0.00486071
0.00486071
0.00486071
0.00486071
0.00486071
0.00486071
0.00486071
0.00486071
0.00486071
0.00486071
0.00486071
0.00486071
0.00486071
0.00486071
0.00486071
0.00486071
0.00486071
0.00486071
0.00486071
0.00486071
0.00486071
0.00486071
0.00486071
0.00486071
0.00486071
0.00486071
0.00486071
0.00486071
0.00486071
0.00486071
0.00486071
0.00486071
0.00486071
0.00486071
0.00486071
0.00486071
0.00486071
0.00486071
0.00486071
0.00486071
0.00486071
0.00486071
0.00486071
0.00486071
0.00486071
0.00486071
0.00486071
0.00486071
0.00486071
0.00486071
0.00486071
0.00486071
0.00486071
0.00486071
0.00486071
0.00486071
0.00486071
0.00486071
0.00486071
0.00486071
0.00486071
0.00486071
0.00486071
0.00486071
0.00486071
0.00486071
0.00486071
0.00486071
0.00486071
0.00486071
0.00486071
0.00486071
0.00486071
0.00486071
0.00486071
0.00486071
0.00486071
0.00486071
0.00486071
0.00486071
0.00486071
0.00486071
0.00486071
0.00486071
0.00486071
0.00486071
0.00486071
0.00486071
0.00486071
0.00486071
0.00486071
0.00486071
0.00486071
0.00486071
0.00486071
0.00486071
0.00486071
0.00486071
0.00486071
0.00486071
0.00486071
0.00486071
0.00486071
0.00486071
0.00486071
0.00486071
0.00486071
0.00486071
0.00486071
0.00486071
0.00486071
0.00486071
0.00486071
0.00486071
0.00486071
0.00486071
0.00486071
0.00486071
0.00486071
0.00486071
0.00486071
0.00486071
0.00486071
0.00486071
0.00486071
0.00486071
0.00486071
0.00486071
0.00486071
0.00486071
0.00486071
0.00486071
0.00486071
0.00486071
0.00486071
0.00486071
0.00486071
0.00486071
0.00486071
0.00486071
0.00486071
0.00486071
0.00486071
0.00486071
0.00486071
0.00486071
0.00486071
0.00486071
0.00486071
0.00486071
0.00486071
0.00486071
0.00486071
0.00486071
0.00486071
0.00486071
0.00486071
0.00486071
0.00486071
0.00486071
0.00486071
0.00486071
0.00486071
0.00486071
0.00486071
0.00486071
0.00486071
0.00486071
0.00486071
0.00486071
0.00486071
0.00486071
0.00486071
0.00486071
0.00486071
0.00486071
0.00486071
0.00486071
0.024877
-0.0225471
0.134508
0.101942
0.227268
0.133298
-0.0923681
-0.255706
0.140543
0.16405
0.0475123
-0.11895
-0.117821
-0.0598124
-0.0123088
0.0160032
0.012419
-0.00841979
-0.0378802
0.0446169
-0.0481294
-0.00457799
0.0901055
-0.132919
-0.203845
-0.0910975
0.0796454
0.0479169
0.0379854
0.0320848
0.0175342
-0.0368239
-0.00847021
-0.00280354
-0.01723
-0.0148796
-0.0152751
-0.0173219
-0.0198797
-0.0208706
-0.018367
-0.0133166
-0.00710866
-0.00115327
0.00118953
-0.0006347
-0.00448882
-0.00580036
-0.000386819
0.0117698
0.0293742
0.0463733
0.0609617
0.0683358
0.0667027
0.0560654
0.037866
0.013713
-0.0137562
-0.0413002
-0.0646516
-0.0819833
-0.0907418
-0.0888358
-0.0768077
-0.0556418
-0.0279556
0.00290533
0.0332727
0.059402
0.0780473
0.0863309
0.0844792
0.0731524
0.0546626
0.0321309
0.00820446
-0.0124126
-0.0282512
-0.0385172
-0.0437568
-0.0439723
-0.0401234
-0.0350053
-0.0281025
-0.0221621
-0.017828
-0.0149322
-0.0124556
-0.0104148
-0.00619566
0.000276702
0.00980855
0.020743
0.0307228
0.0396066
0.0445849
0.0476306
0.0477023
0.0452008
0.0383067
0.0262562
0.00785053
-0.0156054
-0.0407023
-0.0650928
-0.0844731
-0.0980675
-0.105432
-0.107011
-0.104327
-0.0970454
-0.0859907
-0.0723245
-0.0573374
-0.0430679
-0.0305534
-0.020904
-0.0127029
-0.00607341
-0.00122339
0.00198357
0.00385225
0.00466964
0.00486071
0.00486071
0.00486071
0.00486071
0.00486071
0.00486071
0.00486071
0.00486071
0.00486071
0.00486071
0.00486071
0.00486071
0.00486071
0.00486071
0.00486071
0.00486071
0.00486071
0.00486071
0.00486071
0.00486071
0.00486071
0.00486071
0.00486071
0.00486071
0.00486071
0.00486071
0.00486071
0.00486071
0.00486071
0.00486071
0.00486071
0.00486071
0.00486071
0.00486071
0.00486071
0.00486071
0.00486071
0.00486071
0.00486071
0.00486071
0.00486071
0.00486071
0.00486071
0.00486071
0.00486071
0.00486071
0.00486071
0.00486071
0.00486071
0.00486071
0.00486071
0.00486071
0.00486071
0.00486071
0.00486071
0.00486071
0.00486071
0.00486071
0.00486071
0.00486071
0.00486071
0.00486071
0.00486071
0.00486071
0.00486071
0.00486071
0.00486071
0.00486071
0.00486071
0.00486071
0.00486071
0.00486071
0.00486071
0.00486071
0.00486071
0.00486071
0.00486071
0.00486071
0.00486071
0.00486071
0.00486071
0.00486071
0.00486071
0.00486071
0.00486071
0.00486071
0.00486071
0.00486071
0.00486071
0.00486071
0.00486071
0.00486071
0.00486071
0.00486071
0.00486071
0.00486071
0.00486071
0.00486071
0.00486071
0.00486071
0.00486071
0.00486071
0.00486071
0.00486071
0.00486071
0.00486071
0.00486071
0.00486071
0.00486071
0.00486071
0.00486071
0.00486071
0.00486071
0.00486071
0.00486071
0.00486071
0.00486071
0.00486071
0.00486071
0.00486071
0.00486071
0.00486071
0.00486071
0.00486071
0.00486071
0.00486071
0.00486071
0.00486071
0.00486071
0.00486071
0.00486071
0.00486071
0.00486071
0.00486071
0.00486071
0.00486071
0.00486071
0.00486071
0.00486071
0.00486071
0.00486071
0.00486071
0.00486071
0.00486071
0.00486071
0.00486071
0.00486071
0.00486071
0.00486071
0.00486071
0.00486071
0.00486071
0.00486071
0.00486071
0.00486071
0.00486071
0.00486071
0.00486071
0.00486071
0.00486071
0.00486071
0.00486071
0.00486071
0.00486071
0.00486071
0.00486071
0.00486071
0.00486071
0.00486071
0.00486071
0.00486071
0.00486071
0.00486071
0.00486071
0.00486071
0.00486071
0.00486071
0.00486071
0.00486071
0.00486071
0.00486071
0.00486071
0.00486071
0.00486071
0.00486071
0.00486071
0.00486071
0.00486071
0.00486071
0.00486071
0.00486071
0.00486071
0.00486071
0.00486071
0.00486071
0.00486071
0.00486071
0.00486071
0.00486071
0.00486071
0.00486071
0.00486071
0.00486071
0.00486071
0.00486071
0.00486071
0.00486071
0.00486071
0.00486071
0.00486071
0.00486071
0.00486071
0.00486071
0.00486071
0.00486071
0.00486071
0.00486071
0.00486071
0.00486071
0.00486071
0.00486071
0.00486071
0.00486071
0.00486071
0.00486071
0.00486071
0.00486071
0.00486071
0.00486071
0.00486071
0.00486071
0.00486071
0.00486071
0.00486071
0.00486071
0.00486071
0.00486071
0.00486071
0.00486071
0.00486071
0.00486071
0.00486071
0.00486071
0.00486071
0.00486071
0.00486071
0.00486071
0.00486071
0.00486071
0.00486071
0.00486071
0.00486071
0.00486071
0.00486071
0.00486071
0.00486071
0.00486071
0.00486071
0.00486071
0.00486071
0.00486071
0.00486071
0.00486071
0.00486071
0.00486071
0.00486071
0.00486071
0.00486071
0.00486071
0.00486071
0.00486071
0.00486071
0.00486071
0.00486071
0.00486071
0.00486071
0.00486071
0.00486071
0.00486071
0.00486071
0.00486071
0.00486071
0.00486071
0.00486071
0.00486071
0.00486071
0.00486071
0.00486071
0.00486071
0.00486071
0.00486071
0.00486071
0.00486071
0.00486071
0.00486071
0.00486071
0.00486071
0.00486071
0.00486071
0.00486071
0.00486071
0.00486071
0.00486071
0.00486071
0.00486071
0.00486071
0.00486071
0.00486071
0.00486071
0.00486071
0.00486071
0.00486071
0.00486071
0.00486071
0.00486071
0.00486071
0.00486071
0.00486071
0.00486071
0.00486071
0.00486071
0.00486071
0.00486071
0.00486071
0.00486071
0.00486071
-0.0725383
0.0532508
0.00808653
-0.132953
-0.0334624
0.228655
0.107846
0.139388
0.109414
0.0724682
-0.17057
-0.244366
-0.144973
0.0965739
0.313543
0.262327
0.103937
0.100421
-0.313147
-0.242044
0.146515
0.150597
0.00942933
-0.00257284
0.00184583
0.0209278
0.039127
0.0471347
0.138976
0.108831
0.0443839
0.0499317
0.0557842
0.0636711
0.0726691
0.0813382
0.0900612
0.0979254
0.102848
0.107942
0.1099
0.107827
0.0979497
0.0791176
0.0492545
0.0105934
-0.0327617
-0.0757874
-0.113379
-0.141996
-0.158708
-0.158769
-0.145346
-0.115838
-0.0750633
-0.0259792
0.0263191
0.075572
0.1166
0.145763
0.159444
0.159193
0.144796
0.117392
0.0821133
0.0418338
0.00138078
-0.0364594
-0.0683142
-0.0942267
-0.112545
-0.121217
-0.123382
-0.11746
-0.105115
-0.0870076
-0.0638566
-0.036582
-0.00647442
0.0244467
0.0553731
0.0846755
0.109904
0.128372
0.138341
0.138331
0.127034
0.106061
0.0762457
0.0405932
0.00034192
-0.0394307
-0.078757
-0.113593
-0.139157
-0.155317
-0.157609
-0.146389
-0.122682
-0.0885603
-0.0470542
-0.00130427
0.0448813
0.087757
0.122988
0.148685
0.162486
0.164084
0.151878
0.126805
0.0918306
0.0495778
0.00312794
-0.0435372
-0.0858133
-0.121481
-0.146673
-0.159238
-0.161149
-0.153375
-0.138182
-0.117399
-0.093675
-0.0695502
-0.0466458
-0.0281395
-0.0147504
-0.00620139
-0.000491787
0.00289413
0.00442883
0.00485562
0.00486071
0.00486071
0.00486071
0.00486071
0.00486071
0.00486071
0.00486071
0.00486071
0.00486071
0.00486071
0.00486071
0.00486071
0.00486071
0.00486071
0.00486071
0.00486071
0.00486071
0.00486071
0.00486071
0.00486071
0.00486071
0.00486071
0.00486071
0.00486071
0.00486071
0.00486071
0.00486071
0.00486071
0.00486071
0.00486071
0.00486071
0.00486071
0.00486071
0.00486071
0.00486071
0.00486071
0.00486071
0.00486071
0.00486071
0.00486071
0.00486071
0.00486071
0.00486071
0.00486071
0.00486071
0.00486071
0.00486071
0.00486071
0.00486071
0.00486071
0.00486071
0.00486071
0.00486071
0.00486071
0.00486071
0.00486071
0.00486071
0.00486071
0.00486071
0.00486071
0.00486071
0.00486071
0.00486071
0.00486071
0.00486071
0.00486071
0.00486071
0.00486071
0.00486071
0.00486071
0.00486071
0.00486071
0.00486071
0.00486071
0.00486071
0.00486071
0.00486071
0.00486071
0.00486071
0.00486071
0.00486071
0.00486071
0.00486071
0.00486071
0.00486071
0.00486071
0.00486071
0.00486071
0.00486071
0.00486071
0.00486071
0.00486071
0.00486071
0.00486071
0.00486071
0.00486071
0.00486071
0.00486071
0.00486071
0.00486071
0.00486071
0.00486071
0.00486071
0.00486071
0.00486071
0.00486071
0.00486071
0.00486071
0.00486071
0.00486071
0.00486071
0.00486071
0.00486071
0.00486071
0.00486071
0.00486071
0.00486071
0.00486071
0.00486071
0.00486071
0.00486071
0.00486071
0.00486071
0.00486071
0.00486071
0.00486071
0.00486071
0.00486071
0.00486071
0.00486071
0.00486071
0.00486071
0.00486071
0.00486071
0.00486071
0.00486071
0.00486071
0.00486071
0.00486071
0.00486071
0.00486071
0.00486071
0.00486071
0.00486071
0.00486071
0.00486071
0.00486071
0.00486071
0.00486071
0.00486071
0.00486071
0.00486071
0.00486071
0.00486071
0.00486071
0.00486071
0.00486071
0.00486071
0.00486071
0.00486071
0.00486071
0.00486071
0.00486071
0.00486071
0.00486071
0.00486071
0.00486071
0.00486071
0.00486071
0.00486071
0.00486071
0.00486071
0.00486071
0.00486071
0.00486071
0.00486071
0.00486071
0.00486071
0.00486071
0.00486071
0.00486071
0.00486071
0.00486071
0.00486071
0.00486071
0.00486071
0.00486071
0.00486071
0.00486071
0.00486071
0.00486071
0.00486071
0.00486071
0.00486071
0.00486071
0.00486071
0.00486071
0.00486071
0.00486071
0.00486071
0.00486071
0.00486071
0.00486071
0.00486071
0.00486071
0.00486071
0.00486071
0.00486071
0.00486071
0.00486071
0.00486071
0.00486071
0.00486071
0.00486071
0.00486071
0.00486071
0.00486071
0.00486071
0.00486071
0.00486071
0.00486071
0.00486071
0.00486071
0.00486071
0.00486071
0.00486071
0.00486071
0.00486071
0.00486071
0.00486071
0.00486071
0.00486071
0.00486071
0.00486071
0.00486071
0.00486071
0.00486071
0.00486071
0.00486071
0.00486071
0.00486071
0.00486071
0.00486071
0.00486071
0.00486071
0.00486071
0.00486071
0.00486071
0.00486071
0.00486071
0.00486071
0.00486071
0.00486071
0.00486071
0.00486071
0.00486071
0.00486071
0.00486071
0.00486071
0.00486071
0.00486071
0.00486071
0.00486071
0.00486071
0.00486071
0.00486071
0.00486071
0.00486071
0.00486071
0.00486071
0.00486071
0.00486071
0.00486071
0.00486071
0.00486071
0.00486071
0.00486071
0.00486071
0.00486071
0.00486071
0.00486071
0.00486071
0.00486071
0.00486071
0.00486071
0.00486071
0.00486071
0.00486071
0.00486071
0.00486071
0.00486071
0.00486071
0.00486071