/*--------------------------------*- C++ -*----------------------------------*\
| =========                 |                                                 |
| \\      /  F ield         | OpenFOAM: The Open Source CFD Toolbox           |
|  \\    /   O peration     | Version:  v2006                                 |
|   \\  /    A nd           | Website:  www.openfoam.com                      |
|    \\/     M anipulation  |                                                 |
\*---------------------------------------------------------------------------*/
FoamFile
{
    version     2.0;
    format      ascii;
    class       volVectorField;
    location    "0";
    object      U;
}
// * * * * * * * * * * * * * * * * * * * * * * * * * * * * * * * * * * * * * //

dimensions      [0 1 -1 0 0 0 0];


internalField   nonuniform List<vector> 
20000
(
(1 3.20974e-12 0)
(1 9.12249e-12 0)
(1 1.60225e-11 0)
(1 2.45778e-11 0)
(1 3.5092e-11 0)
(1 4.78152e-11 0)
(1 6.28606e-11 0)
(1 8.03231e-11 0)
(1 1.00408e-10 0)
(1 1.23416e-10 0)
(1 1.49573e-10 0)
(1 1.78846e-10 0)
(1 2.10869e-10 0)
(1 2.44974e-10 0)
(1 2.80274e-10 0)
(1 3.15741e-10 0)
(1 3.50231e-10 0)
(1 3.8247e-10 0)
(1 4.11059e-10 0)
(1 4.34514e-10 0)
(1 4.51373e-10 0)
(1 4.60371e-10 0)
(1 4.60601e-10 0)
(1 4.51561e-10 0)
(1 4.33067e-10 0)
(1 4.05446e-10 0)
(1 3.69641e-10 0)
(1 3.27035e-10 0)
(1 2.79165e-10 0)
(1 2.27476e-10 0)
(1 1.73187e-10 0)
(1 1.17296e-10 0)
(1 6.07298e-11 0)
(1 4.55535e-12 0)
(1 -4.99244e-11 0)
(1 -1.01219e-10 0)
(1 -1.4769e-10 0)
(1 -1.87324e-10 0)
(1 -2.17491e-10 0)
(1 -2.34944e-10 0)
(1 -2.36598e-10 0)
(1 -2.22455e-10 0)
(1 -1.97784e-10 0)
(1 -1.84116e-10 0)
(1 -2.0707e-10 0)
(1 -2.76402e-10 0)
(1 -3.96136e-10 0)
(1 -5.71101e-10 0)
(1 -8.08477e-10 0)
(1 -1.11821e-09 0)
(1 -1.51331e-09 0)
(1 -2.01011e-09 0)
(1 -2.62863e-09 0)
(1 -3.39329e-09 0)
(1 -4.33397e-09 0)
(1 -5.48727e-09 0)
(1 -6.89776e-09 0)
(1 -8.61891e-09 0)
(1 -1.07143e-08 0)
(1 -1.32592e-08 0)
(1 -1.63416e-08 0)
(1 -2.00617e-08 0)
(1 -2.45288e-08 0)
(1 -2.98613e-08 0)
(1 -3.61927e-08 0)
(1 -4.36695e-08 0)
(1 -5.24238e-08 0)
(1 -6.25497e-08 0)
(1 -7.41818e-08 0)
(1 -8.76526e-08 0)
(1 -1.03318e-07 0)
(1 -1.20554e-07 0)
(1.00001 -1.36885e-07 0)
(1.00001 -1.50767e-07 0)
(1.00001 -1.69662e-07 0)
(1.00001 -2.11445e-07 0)
(1.00001 -2.73797e-07 0)
(1.00001 -2.72969e-07 0)
(1.00001 -6.15765e-08 0)
(1.00001 3.28209e-07 0)
(1.00001 7.00468e-07 0)
(1.00001 9.67751e-07 0)
(1.00001 1.1305e-06 0)
(1.00001 1.22301e-06 0)
(1.00001 1.27941e-06 0)
(1 1.32489e-06 0)
(1 1.37701e-06 0)
(0.999998 1.44702e-06 0)
(0.999996 1.5393e-06 0)
(0.999993 1.64961e-06 0)
(0.999991 1.76385e-06 0)
(0.999988 1.85955e-06 0)
(0.999986 1.91047e-06 0)
(0.999983 1.89327e-06 0)
(0.99998 1.79345e-06 0)
(0.999977 1.60929e-06 0)
(0.999973 1.35218e-06 0)
(0.99997 1.04092e-06 0)
(0.999967 6.95197e-07 0)
(0.999964 3.3189e-07 0)
(0.999961 -3.53011e-08 0)
(0.999958 -3.94248e-07 0)
(0.999955 -7.32362e-07 0)
(0.999953 -1.03579e-06 0)
(0.999951 -1.28996e-06 0)
(0.999949 -1.48097e-06 0)
(0.999947 -1.59793e-06 0)
(0.999946 -1.63449e-06 0)
(0.999945 -1.58845e-06 0)
(0.999945 -1.46306e-06 0)
(0.999945 -1.27727e-06 0)
(0.999945 -1.07669e-06 0)
(0.999945 -9.28607e-07 0)
(0.999946 -8.51292e-07 0)
(0.999948 -8.39205e-07 0)
(0.999952 -8.76404e-07 0)
(0.999956 -9.33979e-07 0)
(0.999961 -9.65709e-07 0)
(0.999968 -9.06002e-07 0)
(0.999975 -6.74821e-07 0)
(0.999982 -1.94591e-07 0)
(0.999988 5.83918e-07 0)
(0.999993 1.63482e-06 0)
(0.999996 2.79076e-06 0)
(0.999996 3.67531e-06 0)
(0.999994 4.18981e-06 0)
(0.999992 4.41291e-06 0)
(0.999989 4.43044e-06 0)
(0.999986 4.28877e-06 0)
(0.999983 4.0073e-06 0)
(0.999978 3.59621e-06 0)
(0.999974 3.06485e-06 0)
(0.999969 2.42645e-06 0)
(0.999964 1.70232e-06 0)
(0.999959 9.206e-07 0)
(0.999954 1.14908e-07 0)
(0.99995 -6.77081e-07 0)
(0.999945 -1.41613e-06 0)
(0.99994 -2.06488e-06 0)
(0.999937 -2.59134e-06 0)
(0.999933 -2.97185e-06 0)
(0.99993 -3.19351e-06 0)
(0.999928 -3.25553e-06 0)
(0.999926 -3.16906e-06 0)
(0.999925 -2.95455e-06 0)
(0.999924 -2.63794e-06 0)
(0.999923 -2.2512e-06 0)
(0.999923 -1.83893e-06 0)
(0.999923 -1.47782e-06 0)
(0.999924 -1.21768e-06 0)
(0.999926 -1.05444e-06 0)
(0.999928 -9.6555e-07 0)
(0.999931 -9.23024e-07 0)
(0.999935 -8.97207e-07 0)
(0.999939 -8.62682e-07 0)
(0.999944 -8.04733e-07 0)
(0.999948 -7.22751e-07 0)
(0.999952 -6.28285e-07 0)
(0.999956 -5.37971e-07 0)
(0.999959 -4.65059e-07 0)
(0.999962 -4.14746e-07 0)
(0.999964 -3.85076e-07 0)
(0.999967 -3.70475e-07 0)
(0.999969 -3.64636e-07 0)
(0.999972 -3.62053e-07 0)
(0.999974 -3.5873e-07 0)
(0.999976 -3.52292e-07 0)
(0.999979 -3.41721e-07 0)
(0.999981 -3.26968e-07 0)
(0.999983 -3.08597e-07 0)
(0.999985 -2.87481e-07 0)
(0.999987 -2.64592e-07 0)
(0.999989 -2.40858e-07 0)
(0.99999 -2.17086e-07 0)
(0.999991 -1.93926e-07 0)
(0.999993 -1.71865e-07 0)
(0.999994 -1.51238e-07 0)
(0.999995 -1.3225e-07 0)
(0.999995 -1.14999e-07 0)
(0.999996 -9.94985e-08 0)
(0.999997 -8.57033e-08 0)
(0.999997 -7.3525e-08 0)
(0.999998 -6.28493e-08 0)
(0.999998 -5.35469e-08 0)
(0.999998 -4.54834e-08 0)
(0.999999 -3.85248e-08 0)
(0.999999 -3.25418e-08 0)
(0.999999 -2.74126e-08 0)
(0.999999 -2.30236e-08 0)
(0.999999 -1.92704e-08 0)
(1 -1.60578e-08 0)
(1 -1.33004e-08 0)
(1 -1.09224e-08 0)
(1 -8.85849e-09 0)
(1 -7.05326e-09 0)
(1 -5.46598e-09 0)
(1 -4.05401e-09 0)
(1 -2.83389e-09 0)
(1 -1.70226e-09 0)
(1 -5.23969e-10 0)
(1 5.937e-12 0)
(1 1.58923e-11 0)
(1 2.61913e-11 0)
(1 3.74746e-11 0)
(1 4.97807e-11 0)
(1 6.3376e-11 0)
(1 7.85405e-11 0)
(1 9.55325e-11 0)
(1 1.14497e-10 0)
(1 1.35415e-10 0)
(1 1.58122e-10 0)
(1 1.8238e-10 0)
(1 2.07973e-10 0)
(1 2.34742e-10 0)
(1 2.62543e-10 0)
(1 2.91173e-10 0)
(1 3.20273e-10 0)
(1 3.49291e-10 0)
(1 3.77513e-10 0)
(1 4.04155e-10 0)
(1 4.28502e-10 0)
(1 4.50044e-10 0)
(1 4.68576e-10 0)
(1 4.84212e-10 0)
(1 4.97377e-10 0)
(1 5.08969e-10 0)
(1 5.20104e-10 0)
(1 5.31744e-10 0)
(1 5.4453e-10 0)
(1 5.58665e-10 0)
(1 5.73897e-10 0)
(1 5.89575e-10 0)
(1 6.04773e-10 0)
(1 6.18367e-10 0)
(1 6.28959e-10 0)
(1 6.34753e-10 0)
(1 6.33519e-10 0)
(1 6.22746e-10 0)
(1 5.9969e-10 0)
(1 5.61128e-10 0)
(1 5.03214e-10 0)
(1 4.19901e-10 0)
(1 3.02695e-10 0)
(1 1.30803e-10 0)
(1 -1.21501e-10 0)
(1 -4.6992e-10 0)
(1 -9.31993e-10 0)
(1 -1.53074e-09 0)
(1 -2.29515e-09 0)
(1 -3.26086e-09 8.49459e-43)
(1 -4.47126e-09 9.0139e-43)
(1 -5.97852e-09 0)
(1 -7.84501e-09 0)
(1 -1.01456e-08 0)
(1 -1.29711e-08 0)
(1 -1.64321e-08 0)
(1 -2.06627e-08 0)
(1 -2.58236e-08 0)
(1 -3.21059e-08 0)
(1 -3.97351e-08 0)
(1 -4.89749e-08 0)
(1 -6.01262e-08 0)
(1 -7.3521e-08 0)
(1 -8.95165e-08 0)
(1 -1.08496e-07 0)
(1 -1.30874e-07 0)
(1 -1.57086e-07 0)
(1 -1.87569e-07 0)
(1 -2.22736e-07 0)
(1 -2.62948e-07 0)
(1 -3.08365e-07 0)
(1 -3.58591e-07 0)
(1.00001 -4.12451e-07 0)
(1.00001 -4.68979e-07 0)
(1.00001 -5.29598e-07 0)
(1.00001 -5.96683e-07 0)
(1.00001 -6.59679e-07 0)
(1.00001 -6.69795e-07 0)
(1.00001 -5.55446e-07 0)
(1.00002 -3.66586e-07 0)
(1.00002 -2.25835e-07 0)
(1.00002 -1.46916e-07 0)
(1.00003 -1.02951e-07 0)
(1.00003 -6.95343e-08 0)
(1.00004 -3.87704e-08 0)
(1.00004 -1.65999e-08 0)
(1.00005 -1.5779e-08 0)
(1.00005 -4.88193e-08 0)
(1.00006 -1.20447e-07 0)
(1.00006 -2.20415e-07 0)
(1.00007 -3.19753e-07 0)
(1.00007 -3.76669e-07 0)
(1.00008 -3.51652e-07 0)
(1.00009 -2.25384e-07 0)
(1.00009 -3.49474e-09 0)
(1.0001 2.88921e-07 0)
(1.0001 6.16839e-07 0)
(1.0001 9.54557e-07 0)
(1.0001 1.28757e-06 0)
(1.00009 1.60746e-06 0)
(1.00009 1.90584e-06 0)
(1.00008 2.17149e-06 0)
(1.00007 2.39092e-06 0)
(1.00006 2.54951e-06 0)
(1.00005 2.63308e-06 0)
(1.00003 2.63121e-06 0)
(1.00002 2.54007e-06 0)
(1 2.36271e-06 0)
(0.999992 2.10775e-06 0)
(0.999981 1.78679e-06 0)
(0.999971 1.40717e-06 0)
(0.999964 9.66285e-07 0)
(0.999959 4.45637e-07 0)
(0.999956 -1.38234e-07 0)
(0.999956 -7.60533e-07 0)
(0.999957 -1.3987e-06 0)
(0.99996 -2.02985e-06 0)
(0.999965 -2.6279e-06 0)
(0.999971 -3.1615e-06 0)
(0.99998 -3.5939e-06 0)
(0.999991 -3.88624e-06 0)
(1 -4.00242e-06 0)
(1.00002 -3.92699e-06 0)
(1.00004 -3.70676e-06 0)
(1.00006 -3.53404e-06 0)
(1.00009 -3.3934e-06 0)
(1.00011 -3.19655e-06 0)
(1.00014 -2.88916e-06 0)
(1.00016 -2.45371e-06 0)
(1.00018 -1.89228e-06 0)
(1.00019 -1.21803e-06 0)
(1.00021 -4.467e-07 0)
(1.00021 3.97435e-07 0)
(1.00022 1.27649e-06 0)
(1.00021 2.1509e-06 0)
(1.00021 2.9789e-06 0)
(1.00019 3.71752e-06 0)
(1.00018 4.32689e-06 0)
(1.00016 4.77459e-06 0)
(1.00013 5.03943e-06 0)
(1.00011 5.11371e-06 0)
(1.00008 5.00311e-06 0)
(1.00005 4.72473e-06 0)
(1.00003 4.30458e-06 0)
(1.00001 3.77635e-06 0)
(0.999986 3.17902e-06 0)
(0.999969 2.54979e-06 0)
(0.999956 1.91338e-06 0)
(0.999947 1.26134e-06 0)
(0.999941 5.95184e-07 0)
(0.999937 -5.75579e-08 0)
(0.999936 -6.65365e-07 0)
(0.999936 -1.19089e-06 0)
(0.999938 -1.59129e-06 0)
(0.999942 -1.83097e-06 0)
(0.999945 -1.89933e-06 0)
(0.999949 -1.82145e-06 0)
(0.999953 -1.65306e-06 0)
(0.999956 -1.4601e-06 0)
(0.999959 -1.29398e-06 0)
(0.999962 -1.17837e-06 0)
(0.999964 -1.1129e-06 0)
(0.999967 -1.08463e-06 0)
(0.999969 -1.07723e-06 0)
(0.999972 -1.07597e-06 0)
(0.999974 -1.07009e-06 0)
(0.999976 -1.05329e-06 0)
(0.999979 -1.02309e-06 0)
(0.999981 -9.79714e-07 0)
(0.999983 -9.25095e-07 0)
(0.999985 -8.62014e-07 0)
(0.999987 -7.93481e-07 0)
(0.999989 -7.22341e-07 0)
(0.99999 -6.51051e-07 0)
(0.999991 -5.8158e-07 0)
(0.999993 -5.15401e-07 0)
(0.999994 -4.53525e-07 0)
(0.999995 -3.96568e-07 0)
(0.999995 -3.44822e-07 0)
(0.999996 -2.98333e-07 0)
(0.999997 -2.5696e-07 0)
(0.999997 -2.20439e-07 0)
(0.999998 -1.88425e-07 0)
(0.999998 -1.6053e-07 0)
(0.999998 -1.36348e-07 0)
(0.999999 -1.15478e-07 0)
(0.999999 -9.7535e-08 0)
(0.999999 -8.21579e-08 0)
(0.999999 -6.90154e-08 0)
(1 -5.78069e-08 0)
(1 -4.82632e-08 0)
(1 -4.01449e-08 0)
(1 -3.32408e-08 0)
(1 -2.73656e-08 0)
(1 -2.23572e-08 0)
(1 -1.80748e-08 0)
(1 -1.4398e-08 0)
(1 -1.11997e-08 0)
(1 -8.54307e-09 0)
(1 -5.14286e-09 0)
(1 6.89479e-12 0)
(1 1.76628e-11 0)
(1 2.81238e-11 0)
(1 3.83784e-11 0)
(1 4.82281e-11 0)
(1 5.81104e-11 0)
(1 6.8579e-11 0)
(1 8.00801e-11 0)
(1 9.26924e-11 0)
(1 1.06163e-10 0)
(1 1.202e-10 0)
(1 1.34761e-10 0)
(1 1.50197e-10 0)
(1 1.67196e-10 0)
(1 1.866e-10 0)
(1 2.09228e-10 0)
(1 2.35747e-10 0)
(1 2.66637e-10 0)
(1 3.02231e-10 0)
(1 3.42762e-10 0)
(1 3.884e-10 0)
(1 4.39252e-10 0)
(1 4.95342e-10 0)
(1 5.56628e-10 0)
(1 6.23044e-10 0)
(1 6.94415e-10 0)
(1 7.70176e-10 0)
(1 8.49351e-10 0)
(1 9.30778e-10 0)
(1 1.01318e-09 0)
(1 1.09513e-09 0)
(1 1.175e-09 0)
(1 1.25075e-09 0)
(1 1.31979e-09 0)
(1 1.37883e-09 0)
(1 1.42388e-09 0)
(1 1.45012e-09 0)
(1 1.45169e-09 0)
(1 1.42125e-09 0)
(1 1.34947e-09 0)
(1 1.2249e-09 0)
(1 1.03437e-09 0)
(1 7.63449e-10 0)
(1 3.9784e-10 0)
(1 -8.0538e-11 0)
(1 -6.98869e-10 0)
(1 -1.49268e-09 0)
(1 -2.50498e-09 0)
(1 -3.78706e-09 0)
(1 -5.40029e-09 0)
(1 -7.41815e-09 0)
(1 -9.92829e-09 0)
(1 -1.30351e-08 0)
(1 -1.68634e-08 0)
(1 -2.15646e-08 0)
(1 -2.73229e-08 0)
(1 -3.43617e-08 0)
(1 -4.29486e-08 0)
(1 -5.34014e-08 0)
(1 -6.60955e-08 0)
(1 -8.14697e-08 0)
(1 -1.00026e-07 0)
(1 -1.22317e-07 0)
(1 -1.4894e-07 0)
(1 -1.80528e-07 0)
(1 -2.17765e-07 0)
(1 -2.61397e-07 0)
(1 -3.12189e-07 0)
(1 -3.70819e-07 0)
(1 -4.37717e-07 0)
(1 -5.1301e-07 0)
(1 -5.96657e-07 0)
(1.00001 -6.88429e-07 0)
(1.00001 -7.86598e-07 0)
(1.00001 -8.8498e-07 0)
(1.00001 -9.72475e-07 0)
(1.00001 -1.04342e-06 0)
(1.00001 -1.11753e-06 0)
(1.00001 -1.23341e-06 0)
(1.00001 -1.37438e-06 0)
(1.00002 -1.47166e-06 0)
(1.00002 -1.48911e-06 0)
(1.00002 -1.43219e-06 0)
(1.00002 -1.32756e-06 0)
(1.00002 -1.20891e-06 0)
(1.00002 -1.11363e-06 0)
(1.00002 -1.08064e-06 0)
(1.00002 -1.14286e-06 0)
(1.00003 -1.31312e-06 0)
(1.00003 -1.56671e-06 0)
(1.00003 -1.83134e-06 0)
(1.00003 -1.99836e-06 0)
(1.00003 -1.96068e-06 0)
(1.00004 -1.65873e-06 0)
(1.00004 -1.10085e-06 0)
(1.00004 -3.48897e-07 0)
(1.00004 5.16247e-07 0)
(1.00004 1.42596e-06 0)
(1.00003 2.33498e-06 0)
(1.00003 3.21665e-06 0)
(1.00002 4.04891e-06 0)
(1.00002 4.80488e-06 0)
(1.00001 5.45143e-06 0)
(1.00001 5.9504e-06 0)
(0.999998 6.26251e-06 0)
(0.99999 6.35661e-06 0)
(0.999983 6.21838e-06 0)
(0.999975 5.85082e-06 0)
(0.999968 5.26829e-06 0)
(0.999963 4.49222e-06 0)
(0.999958 3.55366e-06 0)
(0.999954 2.49465e-06 0)
(0.999952 1.36465e-06 0)
(0.999951 1.99872e-07 0)
(0.999952 -9.74881e-07 0)
(0.999954 -2.14013e-06 0)
(0.999957 -3.27997e-06 0)
(0.999963 -4.38253e-06 0)
(0.999969 -5.43987e-06 0)
(0.999977 -6.4464e-06 0)
(0.999986 -7.39483e-06 0)
(0.999996 -8.27032e-06 0)
(1.00001 -9.03743e-06 0)
(1.00002 -9.62294e-06 0)
(1.00003 -9.9053e-06 0)
(1.00004 -9.83237e-06 0)
(1.00005 -9.41309e-06 0)
(1.00006 -8.6667e-06 0)
(1.00007 -7.60371e-06 0)
(1.00008 -6.23427e-06 0)
(1.00009 -4.57974e-06 0)
(1.00009 -2.67569e-06 0)
(1.00009 -5.77573e-07 0)
(1.00009 1.63853e-06 0)
(1.00009 3.88091e-06 0)
(1.00008 6.04392e-06 0)
(1.00007 8.01578e-06 0)
(1.00006 9.6897e-06 0)
(1.00005 1.09752e-05 0)
(1.00003 1.18084e-05 0)
(1.00002 1.21588e-05 0)
(1 1.20313e-05 0)
(0.99999 1.1463e-05 0)
(0.999977 1.05171e-05 0)
(0.999965 9.27625e-06 0)
(0.999954 7.83377e-06 0)
(0.999946 6.28178e-06 0)
(0.999939 4.70204e-06 0)
(0.999935 3.16555e-06 0)
(0.999932 1.72167e-06 0)
(0.999931 3.97827e-07 0)
(0.999931 -7.80552e-07 0)
(0.999933 -1.77181e-06 0)
(0.999936 -2.51836e-06 0)
(0.99994 -2.97e-06 0)
(0.999945 -3.1159e-06 0)
(0.999949 -3.00371e-06 0)
(0.999953 -2.73192e-06 0)
(0.999956 -2.41514e-06 0)
(0.999959 -2.14202e-06 0)
(0.999962 -1.95301e-06 0)
(0.999964 -1.84739e-06 0)
(0.999967 -1.80327e-06 0)
(0.999969 -1.79327e-06 0)
(0.999972 -1.7928e-06 0)
(0.999974 -1.78398e-06 0)
(0.999976 -1.75647e-06 0)
(0.999979 -1.70627e-06 0)
(0.999981 -1.63388e-06 0)
(0.999983 -1.54263e-06 0)
(0.999985 -1.43723e-06 0)
(0.999987 -1.32274e-06 0)
(0.999989 -1.20394e-06 0)
(0.99999 -1.08493e-06 0)
(0.999991 -9.68995e-07 0)
(0.999993 -8.58591e-07 0)
(0.999994 -7.55399e-07 0)
(0.999995 -6.60437e-07 0)
(0.999995 -5.74187e-07 0)
(0.999996 -4.96715e-07 0)
(0.999997 -4.27785e-07 0)
(0.999997 -3.66949e-07 0)
(0.999998 -3.1363e-07 0)
(0.999998 -2.67177e-07 0)
(0.999998 -2.26913e-07 0)
(0.999999 -1.92167e-07 0)
(0.999999 -1.62298e-07 0)
(0.999999 -1.36704e-07 0)
(0.999999 -1.14834e-07 0)
(1 -9.61901e-08 0)
(1 -8.03266e-08 0)
(1 -6.68476e-08 0)
(1 -5.54043e-08 0)
(1 -4.56898e-08 0)
(1 -3.74357e-08 0)
(1 -3.04008e-08 0)
(1 -2.43982e-08 0)
(1 -1.91312e-08 0)
(1 -1.49787e-08 0)
(1 -9.13798e-09 0)
(1 9.76154e-12 0)
(1 2.5566e-11 0)
(1 4.19911e-11 0)
(1 5.91148e-11 0)
(1 7.68632e-11 0)
(1 9.59507e-11 0)
(1 1.17096e-10 0)
(1 1.40877e-10 0)
(1 1.67512e-10 0)
(1 1.96879e-10 0)
(1 2.28767e-10 0)
(1 2.63109e-10 0)
(1 3.00115e-10 0)
(1 3.40249e-10 0)
(1 3.84089e-10 0)
(1 4.32156e-10 0)
(1 4.8476e-10 0)
(1 5.41933e-10 0)
(1 6.0343e-10 0)
(1 6.68795e-10 0)
(1 7.37448e-10 0)
(1 8.08776e-10 0)
(1 8.82213e-10 0)
(1 9.57273e-10 0)
(1 1.03352e-09 0)
(1 1.11053e-09 0)
(1 1.18797e-09 0)
(1 1.26562e-09 0)
(1 1.34336e-09 0)
(1 1.42087e-09 0)
(1 1.49743e-09 0)
(1 1.57173e-09 0)
(1 1.64168e-09 0)
(1 1.70443e-09 0)
(1 1.75631e-09 0)
(1 1.79277e-09 0)
(1 1.80818e-09 0)
(1 1.79553e-09 0)
(1 1.74615e-09 0)
(1 1.6493e-09 0)
(1 1.49134e-09 0)
(1 1.25489e-09 0)
(1 9.16966e-10 0)
(1 4.49589e-10 0)
(1 -1.81163e-10 0)
(1 -1.01682e-09 0)
(1 -2.10555e-09 0)
(1 -3.50509e-09 0)
(1 -5.28531e-09 0)
(1 -7.53062e-09 0)
(1 -1.03428e-08 0)
(1 -1.38436e-08 0)
(1 -1.81785e-08 0)
(1 -2.35215e-08 0)
(1 -3.00837e-08 0)
(1 -3.81225e-08 0)
(1 -4.795e-08 0)
(1 -5.99401e-08 0)
(1 -7.45363e-08 0)
(1 -9.22629e-08 0)
(1 -1.13734e-07 0)
(1 -1.3965e-07 0)
(1 -1.70787e-07 0)
(1 -2.07976e-07 0)
(1 -2.52108e-07 0)
(1 -3.04145e-07 0)
(1 -3.65124e-07 0)
(1 -4.36103e-07 0)
(1 -5.18059e-07 0)
(1 -6.11747e-07 0)
(1 -7.17497e-07 0)
(1 -8.34868e-07 0)
(1.00001 -9.62259e-07 0)
(1.00001 -1.09695e-06 0)
(1.00001 -1.2358e-06 0)
(1.00001 -1.3752e-06 0)
(1.00001 -1.50694e-06 0)
(1.00001 -1.61199e-06 0)
(1.00001 -1.66382e-06 0)
(1.00001 -1.64154e-06 0)
(1.00002 -1.55048e-06 0)
(1.00002 -1.4163e-06 0)
(1.00002 -1.25652e-06 0)
(1.00002 -1.08463e-06 0)
(1.00002 -9.19981e-07 0)
(1.00002 -7.93675e-07 0)
(1.00002 -7.4616e-07 0)
(1.00002 -8.15906e-07 0)
(1.00003 -1.0196e-06 0)
(1.00003 -1.32826e-06 0)
(1.00003 -1.65244e-06 0)
(1.00003 -1.8564e-06 0)
(1.00003 -1.80763e-06 0)
(1.00004 -1.4353e-06 0)
(1.00004 -7.57449e-07 0)
(1.00004 1.42047e-07 0)
(1.00004 1.1612e-06 0)
(1.00004 2.21588e-06 0)
(1.00003 3.25633e-06 0)
(1.00003 4.25707e-06 0)
(1.00002 5.196e-06 0)
(1.00002 6.04271e-06 0)
(1.00001 6.75833e-06 0)
(1.00001 7.29748e-06 0)
(0.999998 7.61347e-06 0)
(0.99999 7.67052e-06 0)
(0.999982 7.4545e-06 0)
(0.999975 6.97206e-06 0)
(0.999968 6.24239e-06 0)
(0.999962 5.29158e-06 0)
(0.999957 4.15113e-06 0)
(0.999954 2.85576e-06 0)
(0.999951 1.44236e-06 0)
(0.999951 -5.50003e-08 0)
(0.999951 -1.60035e-06 0)
(0.999953 -3.1574e-06 0)
(0.999957 -4.6898e-06 0)
(0.999962 -6.15946e-06 0)
(0.999969 -7.52509e-06 0)
(0.999977 -8.74241e-06 0)
(0.999986 -9.76697e-06 0)
(0.999996 -1.056e-05 0)
(1.00001 -1.10953e-05 0)
(1.00002 -1.13641e-05 0)
(1.00003 -1.13528e-05 0)
(1.00004 -1.10598e-05 0)
(1.00005 -1.04618e-05 0)
(1.00006 -9.52818e-06 0)
(1.00007 -8.2405e-06 0)
(1.00008 -6.59945e-06 0)
(1.00009 -4.62618e-06 0)
(1.00009 -2.36627e-06 0)
(1.00009 1.11722e-07 0)
(1.00009 2.71878e-06 0)
(1.00009 5.34357e-06 0)
(1.00008 7.85934e-06 0)
(1.00007 1.0134e-05 0)
(1.00006 1.20425e-05 0)
(1.00005 1.34803e-05 0)
(1.00003 1.43756e-05 0)
(1.00002 1.46972e-05 0)
(1 1.44567e-05 0)
(0.99999 1.37029e-05 0)
(0.999976 1.25135e-05 0)
(0.999964 1.09879e-05 0)
(0.999954 9.23746e-06 0)
(0.999946 7.37011e-06 0)
(0.999939 5.4729e-06 0)
(0.999934 3.60899e-06 0)
(0.999932 1.81904e-06 0)
(0.999931 1.3654e-07 0)
(0.999931 -1.3931e-06 0)
(0.999933 -2.69878e-06 0)
(0.999936 -3.68749e-06 0)
(0.99994 -4.27814e-06 0)
(0.999945 -4.44789e-06 0)
(0.999949 -4.26027e-06 0)
(0.999953 -3.85392e-06 0)
(0.999956 -3.39175e-06 0)
(0.999959 -2.99881e-06 0)
(0.999962 -2.73023e-06 0)
(0.999964 -2.58238e-06 0)
(0.999967 -2.52237e-06 0)
(0.999969 -2.51046e-06 0)
(0.999972 -2.51147e-06 0)
(0.999974 -2.50014e-06 0)
(0.999976 -2.46199e-06 0)
(0.999979 -2.39158e-06 0)
(0.999981 -2.2898e-06 0)
(0.999983 -2.16146e-06 0)
(0.999985 -2.01326e-06 0)
(0.999987 -1.85238e-06 0)
(0.999989 -1.68555e-06 0)
(0.99999 -1.51852e-06 0)
(0.999991 -1.3559e-06 0)
(0.999993 -1.20113e-06 0)
(0.999994 -1.05653e-06 0)
(0.999995 -9.23522e-07 0)
(0.999996 -8.02762e-07 0)
(0.999996 -6.94331e-07 0)
(0.999997 -5.97884e-07 0)
(0.999997 -5.12786e-07 0)
(0.999998 -4.3822e-07 0)
(0.999998 -3.7327e-07 0)
(0.999999 -3.16985e-07 0)
(0.999999 -2.68422e-07 0)
(0.999999 -2.2668e-07 0)
(0.999999 -1.90917e-07 0)
(0.999999 -1.60359e-07 0)
(1 -1.34306e-07 0)
(1 -1.12132e-07 0)
(1 -9.32821e-08 0)
(1 -7.72653e-08 0)
(1 -6.36511e-08 0)
(1 -5.20638e-08 0)
(1 -4.21696e-08 0)
(1 -3.37056e-08 0)
(1 -2.62885e-08 0)
(1 -2.03958e-08 0)
(1 -1.21742e-08 0)
(1 1.26061e-11 0)
(1 3.29969e-11 0)
(1 5.39801e-11 0)
(1 7.54939e-11 0)
(1 9.7305e-11 0)
(1 1.20206e-10 0)
(1 1.4507e-10 0)
(1 1.72641e-10 0)
(1 2.03153e-10 0)
(1 2.36307e-10 0)
(1 2.71634e-10 0)
(1 3.0892e-10 0)
(1 3.4846e-10 0)
(1 3.91041e-10 0)
(1 4.37709e-10 0)
(1 4.89471e-10 0)
(1 5.47057e-10 0)
(1 6.1082e-10 0)
(1 6.80772e-10 0)
(1 7.56706e-10 0)
(1 8.38319e-10 0)
(1 9.25314e-10 0)
(1 1.01744e-09 0)
(1 1.11453e-09 0)
(1 1.21645e-09 0)
(1 1.32315e-09 0)
(1 1.43454e-09 0)
(1 1.55035e-09 0)
(1 1.66996e-09 0)
(1 1.79217e-09 0)
(1 1.91512e-09 0)
(1 2.03617e-09 0)
(1 2.15185e-09 0)
(1 2.25776e-09 0)
(1 2.3484e-09 0)
(1 2.41703e-09 0)
(1 2.45541e-09 0)
(1 2.45351e-09 0)
(1 2.39917e-09 0)
(1 2.27744e-09 0)
(1 2.06997e-09 0)
(1 1.75435e-09 0)
(1 1.30284e-09 0)
(1 6.82978e-10 0)
(1 -1.44876e-10 0)
(1 -1.23093e-09 0)
(1 -2.63667e-09 0)
(1 -4.43684e-09 0)
(1 -6.7218e-09 0)
(1 -9.6005e-09 0)
(1 -1.3204e-08 0)
(1 -1.76888e-08 0)
(1 -2.32417e-08 0)
(1 -3.00857e-08 0)
(1 -3.84916e-08 0)
(1 -4.87894e-08 0)
(1 -6.13798e-08 0)
(1 -7.67422e-08 0)
(1 -9.54448e-08 0)
(1 -1.18159e-07 0)
(1 -1.45673e-07 0)
(1 -1.78888e-07 0)
(1 -2.18801e-07 0)
(1 -2.66478e-07 0)
(1 -3.2306e-07 0)
(1 -3.89782e-07 0)
(1 -4.67995e-07 0)
(1 -5.59096e-07 0)
(1 -6.64359e-07 0)
(1 -7.84697e-07 0)
(1 -9.20467e-07 0)
(1 -1.07138e-06 0)
(1.00001 -1.2363e-06 0)
(1.00001 -1.41234e-06 0)
(1.00001 -1.59299e-06 0)
(1.00001 -1.7668e-06 0)
(1.00001 -1.91997e-06 0)
(1.00001 -2.04371e-06 0)
(1.00001 -2.13793e-06 0)
(1.00001 -2.19831e-06 0)
(1.00002 -2.20992e-06 0)
(1.00002 -2.15877e-06 0)
(1.00002 -2.04051e-06 0)
(1.00002 -1.86982e-06 0)
(1.00002 -1.68211e-06 0)
(1.00002 -1.53117e-06 0)
(1.00002 -1.48176e-06 0)
(1.00002 -1.5934e-06 0)
(1.00003 -1.89335e-06 0)
(1.00003 -2.34351e-06 0)
(1.00003 -2.81902e-06 0)
(1.00003 -3.12735e-06 0)
(1.00003 -3.07853e-06 0)
(1.00004 -2.56946e-06 0)
(1.00004 -1.62097e-06 0)
(1.00004 -3.47594e-07 0)
(1.00004 1.10574e-06 0)
(1.00004 2.61999e-06 0)
(1.00003 4.12413e-06 0)
(1.00003 5.58033e-06 0)
(1.00003 6.95522e-06 0)
(1.00002 8.20408e-06 0)
(1.00001 9.27084e-06 0)
(1.00001 1.00903e-05 0)
(0.999998 1.0595e-05 0)
(0.99999 1.07321e-05 0)
(0.999982 1.04792e-05 0)
(0.999975 9.84368e-06 0)
(0.999968 8.85219e-06 0)
(0.999962 7.54289e-06 0)
(0.999957 5.96476e-06 0)
(0.999953 4.17601e-06 0)
(0.999951 2.2388e-06 0)
(0.99995 2.0954e-07 0)
(0.999951 -1.8613e-06 0)
(0.999953 -3.92996e-06 0)
(0.999957 -5.95854e-06 0)
(0.999962 -7.91296e-06 0)
(0.999968 -9.76073e-06 0)
(0.999976 -1.14686e-05 0)
(0.999985 -1.29995e-05 0)
(0.999996 -1.43096e-05 0)
(1.00001 -1.5345e-05 0)
(1.00002 -1.60408e-05 0)
(1.00003 -1.63198e-05 0)
(1.00004 -1.61256e-05 0)
(1.00005 -1.54199e-05 0)
(1.00006 -1.41825e-05 0)
(1.00007 -1.24098e-05 0)
(1.00008 -1.01157e-05 0)
(1.00009 -7.33648e-06 0)
(1.00009 -4.13596e-06 0)
(1.00009 -6.08941e-07 0)
(1.00009 3.11572e-06 0)
(1.00009 6.87943e-06 0)
(1.00008 1.05025e-05 0)
(1.00007 1.37965e-05 0)
(1.00006 1.65814e-05 0)
(1.00005 1.87051e-05 0)
(1.00003 2.00618e-05 0)
(1.00002 2.06031e-05 0)
(1 2.03412e-05 0)
(0.99999 1.93416e-05 0)
(0.999976 1.77123e-05 0)
(0.999964 1.55936e-05 0)
(0.999953 1.31458e-05 0)
(0.999945 1.05266e-05 0)
(0.999938 7.8677e-06 0)
(0.999934 5.26633e-06 0)
(0.999931 2.79016e-06 0)
(0.99993 4.86838e-07 0)
(0.999931 -1.59028e-06 0)
(0.999933 -3.35478e-06 0)
(0.999936 -4.68855e-06 0)
(0.99994 -5.48671e-06 0)
(0.999945 -5.72072e-06 0)
(0.999949 -5.47724e-06 0)
(0.999953 -4.94367e-06 0)
(0.999956 -4.33925e-06 0)
(0.999959 -3.83031e-06 0)
(0.999962 -3.48764e-06 0)
(0.999964 -3.30364e-06 0)
(0.999967 -3.23335e-06 0)
(0.999969 -3.22403e-06 0)
(0.999972 -3.22971e-06 0)
(0.999974 -3.21777e-06 0)
(0.999976 -3.16989e-06 0)
(0.999979 -3.07946e-06 0)
(0.999981 -2.94803e-06 0)
(0.999983 -2.78209e-06 0)
(0.999985 -2.59051e-06 0)
(0.999987 -2.38265e-06 0)
(0.999989 -2.16727e-06 0)
(0.99999 -1.9518e-06 0)
(0.999992 -1.74218e-06 0)
(0.999993 -1.54281e-06 0)
(0.999994 -1.35666e-06 0)
(0.999995 -1.18553e-06 0)
(0.999996 -1.03025e-06 0)
(0.999996 -8.90878e-07 0)
(0.999997 -7.66964e-07 0)
(0.999997 -6.57673e-07 0)
(0.999998 -5.61939e-07 0)
(0.999998 -4.78576e-07 0)
(0.999999 -4.06353e-07 0)
(0.999999 -3.44053e-07 0)
(0.999999 -2.90515e-07 0)
(0.999999 -2.44653e-07 0)
(0.999999 -2.05475e-07 0)
(1 -1.72082e-07 0)
(1 -1.4367e-07 0)
(1 -1.19529e-07 0)
(1 -9.90307e-08 0)
(1 -8.1623e-08 0)
(1 -6.68242e-08 0)
(1 -5.42044e-08 0)
(1 -4.34244e-08 0)
(1 -3.39858e-08 0)
(1 -2.64842e-08 0)
(1 -1.60027e-08 0)
(1 1.54272e-11 0)
(1 4.02823e-11 0)
(1 6.58259e-11 0)
(1 9.2054e-11 0)
(1 1.18752e-10 0)
(1 1.46988e-10 0)
(1 1.779e-10 0)
(1 2.12426e-10 0)
(1 2.50879e-10 0)
(1 2.92977e-10 0)
(1 3.38281e-10 0)
(1 3.86678e-10 0)
(1 4.38609e-10 0)
(1 4.95014e-10 0)
(1 5.57062e-10 0)
(1 6.25819e-10 0)
(1 7.02007e-10 0)
(1 7.85904e-10 0)
(1 8.77383e-10 0)
(1 9.76029e-10 0)
(1 1.08127e-09 0)
(1 1.19248e-09 0)
(1 1.30907e-09 0)
(1 1.43051e-09 0)
(1 1.55634e-09 0)
(1 1.68611e-09 0)
(1 1.8193e-09 0)
(1 1.95526e-09 0)
(1 2.09308e-09 0)
(1 2.23144e-09 0)
(1 2.3685e-09 0)
(1 2.50165e-09 0)
(1 2.62731e-09 0)
(1 2.74077e-09 0)
(1 2.83601e-09 0)
(1 2.90555e-09 0)
(1 2.94021e-09 0)
(1 2.92871e-09 0)
(1 2.85709e-09 0)
(1 2.708e-09 0)
(1 2.4596e-09 0)
(1 2.08457e-09 0)
(1 1.54898e-09 0)
(1 8.10859e-10 0)
(1 -1.8074e-10 0)
(1 -1.48784e-09 0)
(1 -3.18597e-09 0)
(1 -5.36607e-09 0)
(1 -8.13772e-09 0)
(1 -1.16331e-08 0)
(1 -1.60114e-08 0)
(1 -2.14632e-08 0)
(1 -2.82151e-08 0)
(1 -3.65388e-08 0)
(1 -4.67633e-08 0)
(1 -5.92908e-08 0)
(1 -7.46098e-08 0)
(1 -9.33042e-08 0)
(1 -1.16065e-07 0)
(1 -1.43709e-07 0)
(1 -1.77198e-07 0)
(1 -2.17632e-07 0)
(1 -2.66229e-07 0)
(1 -3.24289e-07 0)
(1 -3.93203e-07 0)
(1 -4.74485e-07 0)
(1 -5.69794e-07 0)
(1 -6.80853e-07 0)
(1 -8.09258e-07 0)
(1 -9.56235e-07 0)
(1 -1.12238e-06 0)
(1 -1.30732e-06 0)
(1.00001 -1.50915e-06 0)
(1.00001 -1.72378e-06 0)
(1.00001 -1.94438e-06 0)
(1.00001 -2.16124e-06 0)
(1.00001 -2.36176e-06 0)
(1.00001 -2.53019e-06 0)
(1.00001 -2.64759e-06 0)
(1.00001 -2.69123e-06 0)
(1.00002 -2.64369e-06 0)
(1.00002 -2.50427e-06 0)
(1.00002 -2.28633e-06 0)
(1.00002 -2.01673e-06 0)
(1.00002 -1.73867e-06 0)
(1.00002 -1.51397e-06 0)
(1.00002 -1.41844e-06 0)
(1.00002 -1.52439e-06 0)
(1.00003 -1.86782e-06 0)
(1.00003 -2.40558e-06 0)
(1.00003 -2.98573e-06 0)
(1.00003 -3.36851e-06 0)
(1.00003 -3.31646e-06 0)
(1.00004 -2.70435e-06 0)
(1.00004 -1.56615e-06 0)
(1.00004 -5.18112e-08 0)
(1.00004 1.65824e-06 0)
(1.00004 3.42096e-06 0)
(1.00003 5.15634e-06 0)
(1.00003 6.8271e-06 0)
(1.00003 8.3997e-06 0)
(1.00002 9.82447e-06 0)
(1.00001 1.1037e-05 0)
(1.00001 1.19608e-05 0)
(0.999998 1.25148e-05 0)
(0.99999 1.26361e-05 0)
(0.999982 1.23001e-05 0)
(0.999975 1.1519e-05 0)
(0.999968 1.0326e-05 0)
(0.999961 8.76554e-06 0)
(0.999956 6.89288e-06 0)
(0.999953 4.77185e-06 0)
(0.99995 2.46998e-06 0)
(0.999949 5.01346e-08 0)
(0.99995 -2.43071e-06 0)
(0.999952 -4.91975e-06 0)
(0.999956 -7.36644e-06 0)
(0.999961 -9.72007e-06 0)
(0.999968 -1.19275e-05 0)
(0.999976 -1.39321e-05 0)
(0.999985 -1.56751e-05 0)
(0.999995 -1.70979e-05 0)
(1.00001 -1.81453e-05 0)
(1.00002 -1.8766e-05 0)
(1.00003 -1.89083e-05 0)
(1.00004 -1.85324e-05 0)
(1.00005 -1.76032e-05 0)
(1.00006 -1.60918e-05 0)
(1.00007 -1.39828e-05 0)
(1.00008 -1.12833e-05 0)
(1.00009 -8.02983e-06 0)
(1.00009 -4.29473e-06 0)
(1.0001 -1.8816e-07 0)
(1.00009 4.14186e-06 0)
(1.00009 8.5113e-06 0)
(1.00008 1.27094e-05 0)
(1.00007 1.65145e-05 0)
(1.00006 1.97154e-05 0)
(1.00005 2.21346e-05 0)
(1.00003 2.36496e-05 0)
(1.00002 2.42073e-05 0)
(1 2.38261e-05 0)
(0.999989 2.25871e-05 0)
(0.999975 2.06199e-05 0)
(0.999963 1.80915e-05 0)
(0.999952 1.51915e-05 0)
(0.999944 1.21043e-05 0)
(0.999937 8.98008e-06 0)
(0.999933 5.92454e-06 0)
(0.99993 3.00813e-06 0)
(0.999929 2.80703e-07 0)
(0.99993 -2.19648e-06 0)
(0.999932 -4.31459e-06 0)
(0.999936 -5.91859e-06 0)
(0.99994 -6.86729e-06 0)
(0.999945 -7.11722e-06 0)
(0.999949 -6.77446e-06 0)
(0.999953 -6.07682e-06 0)
(0.999957 -5.30357e-06 0)
(0.99996 -4.66369e-06 0)
(0.999962 -4.24127e-06 0)
(0.999965 -4.02088e-06 0)
(0.999967 -3.94235e-06 0)
(0.999969 -3.9381e-06 0)
(0.999972 -3.95039e-06 0)
(0.999974 -3.93894e-06 0)
(0.999976 -3.88164e-06 0)
(0.999979 -3.77092e-06 0)
(0.999981 -3.6092e-06 0)
(0.999983 -3.40486e-06 0)
(0.999985 -3.16906e-06 0)
(0.999987 -2.91347e-06 0)
(0.999989 -2.64889e-06 0)
(0.99999 -2.38448e-06 0)
(0.999992 -2.12749e-06 0)
(0.999993 -1.88327e-06 0)
(0.999994 -1.65543e-06 0)
(0.999995 -1.44612e-06 0)
(0.999996 -1.2563e-06 0)
(0.999996 -1.08604e-06 0)
(0.999997 -9.34741e-07 0)
(0.999997 -8.01354e-07 0)
(0.999998 -6.8456e-07 0)
(0.999998 -5.82894e-07 0)
(0.999999 -4.94841e-07 0)
(0.999999 -4.18908e-07 0)
(0.999999 -3.5367e-07 0)
(0.999999 -2.97798e-07 0)
(0.999999 -2.50075e-07 0)
(1 -2.09404e-07 0)
(1 -1.74801e-07 0)
(1 -1.45396e-07 0)
(1 -1.20422e-07 0)
(1 -9.92063e-08 0)
(1 -8.11599e-08 0)
(1 -6.57606e-08 0)
(1 -5.25966e-08 0)
(1 -4.10675e-08 0)
(1 -3.18914e-08 0)
(1 -1.91154e-08 0)
(1 1.82255e-11 0)
(1 4.75471e-11 0)
(1 7.76972e-11 0)
(1 1.08691e-10 0)
(1 1.40252e-10 0)
(1 1.73607e-10 0)
(1 2.10057e-10 0)
(1 2.5068e-10 0)
(1 2.95828e-10 0)
(1 3.45137e-10 0)
(1 3.98026e-10 0)
(1 4.54265e-10 0)
(1 5.14281e-10 0)
(1 5.79131e-10 0)
(1 6.50198e-10 0)
(1 7.28797e-10 0)
(1 8.15855e-10 0)
(1 9.11774e-10 0)
(1 1.01647e-09 0)
(1 1.1295e-09 0)
(1 1.25027e-09 0)
(1 1.37815e-09 0)
(1 1.51259e-09 0)
(1 1.65314e-09 0)
(1 1.79945e-09 0)
(1 1.95124e-09 0)
(1 2.10822e-09 0)
(1 2.26995e-09 0)
(1 2.43567e-09 0)
(1 2.60403e-09 0)
(1 2.77286e-09 0)
(1 2.93894e-09 0)
(1 3.09771e-09 0)
(1 3.2432e-09 0)
(1 3.36786e-09 0)
(1 3.46241e-09 0)
(1 3.51544e-09 0)
(1 3.51302e-09 0)
(1 3.43808e-09 0)
(1 3.26963e-09 0)
(1 2.98172e-09 0)
(1 2.54205e-09 0)
(1 1.91149e-09 0)
(1 1.04158e-09 0)
(1 -1.26924e-10 0)
(1 -1.66571e-09 0)
(1 -3.66286e-09 0)
(1 -6.22518e-09 0)
(1 -9.48152e-09 0)
(1 -1.35875e-08 -4.23331e-43)
(1 -1.87307e-08 -4.49578e-43)
(1 -2.51353e-08 0)
(1 -3.30683e-08 0)
(1 -4.28488e-08 0)
(1 -5.48637e-08 0)
(1 -6.95868e-08 0)
(1 -8.75937e-08 0)
(1 -1.09572e-07 0)
(1 -1.36332e-07 0)
(1 -1.68837e-07 0)
(1 -2.08216e-07 0)
(1 -2.55773e-07 0)
(1 -3.12944e-07 0)
(1 -3.81262e-07 0)
(1 -4.62362e-07 0)
(1 -5.58032e-07 0)
(1 -6.70255e-07 0)
(1 -8.0112e-07 0)
(1 -9.52581e-07 0)
(1 -1.12611e-06 0)
(1 -1.32241e-06 0)
(1 -1.54112e-06 0)
(1.00001 -1.78048e-06 0)
(1.00001 -2.03638e-06 0)
(1.00001 -2.30087e-06 0)
(1.00001 -2.56074e-06 0)
(1.00001 -2.79783e-06 0)
(1.00001 -2.99217e-06 0)
(1.00001 -3.12578e-06 0)
(1.00001 -3.1824e-06 0)
(1.00002 -3.14909e-06 0)
(1.00002 -3.02109e-06 0)
(1.00002 -2.80378e-06 0)
(1.00002 -2.5196e-06 0)
(1.00002 -2.21573e-06 0)
(1.00002 -1.96713e-06 0)
(1.00002 -1.86967e-06 0)
(1.00002 -2.01781e-06 0)
(1.00003 -2.46292e-06 0)
(1.00003 -3.15771e-06 0)
(1.00003 -3.91476e-06 0)
(1.00003 -4.43118e-06 0)
(1.00003 -4.40394e-06 0)
(1.00004 -3.67279e-06 0)
(1.00004 -2.28086e-06 0)
(1.00004 -4.18294e-07 0)
(1.00004 1.68621e-06 0)
(1.00004 3.85422e-06 0)
(1.00003 5.99042e-06 0)
(1.00003 8.05346e-06 0)
(1.00003 1.00039e-05 0)
(1.00002 1.17803e-05 0)
(1.00001 1.33026e-05 0)
(1.00001 1.44754e-05 0)
(0.999998 1.5196e-05 0)
(0.99999 1.5384e-05 0)
(0.999982 1.50087e-05 0)
(0.999974 1.40855e-05 0)
(0.999967 1.26554e-05 0)
(0.999961 1.07733e-05 0)
(0.999956 8.50792e-06 0)
(0.999952 5.94166e-06 0)
(0.999949 3.15889e-06 0)
(0.999949 2.38551e-07 0)