/*--------------------------------*- C++ -*----------------------------------*\
| =========                 |                                                 |
| \\      /  F ield         | OpenFOAM: The Open Source CFD Toolbox           |
|  \\    /   O peration     | Version:  v2006                                 |
|   \\  /    A nd           | Website:  www.openfoam.com                      |
|    \\/     M anipulation  |                                                 |
\*---------------------------------------------------------------------------*/
FoamFile
{
    version     2.0;
    format      ascii;
    class       volScalarField;
    location    "0";
    object      f;
}
// * * * * * * * * * * * * * * * * * * * * * * * * * * * * * * * * * * * * * //

dimensions      [0 0 0 0 0 0 0];


internalField   nonuniform List<scalar> 
2500
(
-1.77603e-17
-1.77601e-17
-1.77669e-17
-1.78256e-17
-1.81013e-17
-1.90856e-17
-2.01924e-17
-2.00539e-17
-2.24414e-17
-2.8974e-17
-3.92388e-17
-4.34294e-17
-2.12363e-17
3.47941e-17
1.04836e-16
1.6213e-16
1.81868e-16
1.4306e-16
4.56873e-17
-6.01519e-17
-9.59794e-17
-6.74235e-17
1.25182e-18
8.29571e-17
1.09934e-16
6.94909e-17
8.37564e-18
-2.4259e-17
-2.11594e-17
-2.80094e-18
9.29151e-18
1.07583e-17
7.33197e-18
3.75072e-18
1.49654e-18
4.11558e-19
4.74384e-21
-9.34146e-20
-8.26729e-20
-4.96446e-20
-2.30961e-20
-7.7267e-21
-7.25914e-22
1.58157e-21
1.79738e-21
1.33891e-21
8.23365e-22
4.43841e-22
2.13394e-22
9.08869e-23
-2.65459e-17
-2.65465e-17
-2.65568e-17
-2.66782e-17
-2.72708e-17
-3.0296e-17
-3.28748e-17
-3.10404e-17
-3.59157e-17
-4.86388e-17
-7.03402e-17
-9.24313e-17
-5.84193e-17
7.13519e-17
2.44773e-16
3.87684e-16
4.54398e-16
3.81268e-16
1.35413e-16
-1.64452e-16
-2.66749e-16
-1.82095e-16
-1.12417e-17
2.39641e-16
3.36436e-16
2.03526e-16
1.64564e-17
-7.79771e-17
-6.45855e-17
-6.92202e-18
2.77279e-17
2.85143e-17
1.71723e-17
7.76651e-18
2.75024e-18
6.65728e-19
-6.60387e-21
-1.32015e-19
-9.6964e-20
-4.29281e-20
-7.43477e-21
8.40016e-21
1.20835e-20
1.03413e-20
7.17148e-21
4.35182e-21
2.37846e-21
1.18236e-21
5.32849e-22
2.13275e-22
-3.74587e-17
-3.7465e-17
-3.74757e-17
-3.76991e-17
-3.87822e-17
-4.93789e-17
-5.53151e-17
-4.75038e-17
-5.69298e-17
-8.65414e-17
-1.17915e-16
-2.00939e-16
-1.76484e-16
1.29176e-16
6.27108e-16
9.67751e-16
1.14421e-15
1.05137e-15
4.08486e-16
-4.294e-16
-7.39934e-16
-4.41833e-16
-6.02527e-17
9.86131e-16
1.20478e-15
5.83235e-16
8.61655e-18
-2.711e-16
-2.08426e-16
-2.08583e-17
8.29835e-17
7.45087e-17
3.74596e-17
1.3969e-17
4.03128e-18
7.46739e-19
-5.2531e-20
-1.10029e-19
-2.35856e-20
4.32288e-20
6.8212e-20
6.51836e-20
5.03053e-20
3.39046e-20
2.06102e-20
1.14702e-20
5.87699e-21
2.76651e-21
1.18189e-21
4.43379e-22
-4.95805e-17
-4.96126e-17
-4.96168e-17
-4.99572e-17
-5.12712e-17
-9.16133e-17
-1.04525e-16
-7.81209e-17
-8.65809e-17
-2.11934e-16
-1.7396e-16
-4.32328e-16
-5.38531e-16
1.59624e-16
2.31272e-15
2.98304e-15
2.76187e-15
2.62535e-15
1.07006e-15
-5.08796e-15
-1.83667e-15
-4.41697e-16
9.43047e-15
9.27853e-15
4.94125e-15
1.34067e-15
-3.40083e-16
-1.27398e-15
-7.29392e-16
-6.49295e-17
2.68401e-16
1.98778e-16
7.3495e-17
1.90985e-17
3.39995e-18
2.39946e-19
4.70354e-20
2.53528e-19
3.64867e-19
3.62602e-19
2.99669e-19
2.19271e-19
1.4587e-19
8.93652e-20
5.07406e-20
2.67581e-20
1.30784e-20
5.87525e-21
2.37669e-21
8.22054e-22
-6.10008e-17
-6.11269e-17
-6.11562e-17
-6.14475e-17
-6.05692e-17
-2.09246e-16
-2.28444e-16
-1.6423e-16
-1.07577e-16
-1.00844e-15
-1.39155e-15
-2.673e-15
-1.35797e-15
1.60543e-15
9.82614e-15
8.27449e-15
4.64115e-15
2.07752e-15
-8.75538e-14
-5.10063e-14
7.82016e-15
1.05456e-13
9.28884e-14
4.43134e-14
1.07199e-14
-3.34332e-16
-1.24418e-14
-7.45571e-15
-2.4635e-15
-1.38844e-16
1.30385e-15
5.69948e-16
1.09483e-16
6.43655e-18
-3.49531e-18
-4.23553e-19
1.50821e-18
1.90157e-18
1.65744e-18
1.25926e-18
8.83259e-19
5.80631e-19
3.58545e-19
2.07743e-19
1.12697e-19
5.70389e-20
2.67521e-20
1.14638e-20
4.34695e-21
1.33571e-21
-6.87153e-17
-6.91394e-17
-6.94293e-17
-6.89527e-17
-5.89055e-17
-5.16384e-16
-4.50541e-16
-5.23911e-16
6.89405e-15
-3.87317e-15
-3.31066e-14
-2.91652e-14
4.08781e-14
8.13349e-14
2.50458e-14
-1.38999e-14
-1.97388e-13
-6.9445e-13
-5.96251e-13
-1.613e-13
6.22762e-13
5.66122e-13
2.34994e-13
8.14265e-14
-1.393e-13
-1.67172e-13
-7.97539e-14
-1.82932e-14
-4.66275e-15
1.6991e-14
8.88949e-15
1.38548e-15
-4.34329e-17
-7.91964e-17
-1.78143e-17
5.4921e-18
9.05887e-18
7.34911e-18
5.11997e-18
3.38357e-18
2.16615e-18
1.33797e-18
7.89194e-19
4.40378e-19
2.30739e-19
1.12677e-19
5.0719e-20
2.05932e-20
7.16e-21
1.79031e-21
3.76325e-15
2.12238e-15
4.2271e-15
1.52534e-14
9.21869e-15
-9.03252e-16
1.41914e-14
5.01058e-14
8.26629e-14
9.25509e-17
-1.61208e-13
-9.95929e-14
4.54377e-13
6.17377e-13
-5.61754e-14
-2.43724e-12
-3.88152e-12
-3.72842e-12
-1.29152e-12
3.52079e-12
3.19627e-12
1.14762e-12
-5.19569e-13
-3.41582e-12
-2.24763e-12
-8.60324e-13
-1.66531e-13
5.34658e-14
2.38693e-13
1.26447e-13
2.35445e-14
-1.86818e-15
-1.46001e-15
-3.22958e-16
1.03974e-17
4.94581e-17
3.57243e-17
2.16145e-17
1.2804e-17
7.68905e-18
4.65042e-18
2.77102e-18
1.59054e-18
8.64855e-19
4.40317e-19
2.07674e-19
8.93097e-20
3.38659e-20
1.03168e-20
1.56711e-21
4.25827e-13
4.10332e-13
4.39051e-13
5.03809e-13
4.30343e-13
2.24221e-13
5.0151e-13
5.25889e-13
2.95242e-13
1.38986e-14
-3.44333e-13
1.51242e-14
9.78061e-13
1.54735e-12
-6.08259e-12
-1.11656e-11
-1.5876e-11
-8.76892e-12
2.49951e-11
2.16487e-11
7.65543e-12
-1.74822e-11
-3.30546e-11
-2.0847e-11
-7.21436e-12
-1.62265e-12
1.58679e-12
2.80662e-12
1.43073e-12
2.91184e-13
-4.06323e-14
-2.99194e-14
-6.47074e-15
-1.586e-16
4.33602e-16
2.26514e-16
1.03241e-16
4.99453e-17
2.63437e-17
1.49717e-17
8.85951e-18
5.23098e-18
2.97357e-18
1.59037e-18
7.88991e-19
3.58375e-19
1.45748e-19
5.02256e-20
1.20352e-20
-7.53614e-22
2.11638e-12
2.13539e-12
2.16461e-12
2.13198e-12
1.91297e-12
1.98135e-12
2.13196e-12
1.82549e-12
3.8547e-13
-4.57279e-14
8.45926e-13
5.74511e-12
-4.70865e-12
-3.39686e-11
-3.43772e-11
-1.88179e-11
-3.55235e-11
1.81545e-10
1.33406e-10
5.33921e-11
-1.06747e-10
-2.3128e-10
-1.49309e-10
-4.16532e-11
-6.16441e-12
2.58818e-11
2.71471e-11
1.32858e-11
2.95627e-12
-5.17367e-13
-4.10133e-13
-1.06624e-13
-6.70185e-15
7.51132e-15
2.72003e-15
6.03121e-16
1.96268e-16
8.39826e-17
4.28711e-17
2.46837e-17
1.50557e-17
9.11893e-18
5.23052e-18
2.77046e-18
1.33748e-18
5.80271e-19
2.19029e-19
6.50325e-20
8.31111e-21
-7.77661e-21
5.41876e-12
5.59108e-12
5.55177e-12
4.94253e-12
4.7085e-12
6.52965e-12
4.56989e-12
4.17366e-12
-8.07218e-13
1.14943e-11
4.49482e-11
4.07393e-11
-8.8742e-11
-2.14039e-10
-9.05088e-11
5.40758e-10
1.37921e-09
1.35807e-09
2.18628e-10
-1.1134e-09
-1.71548e-09
-8.01883e-10
-2.53975e-10
3.44787e-10
4.47519e-10
2.71486e-10
1.11072e-10
2.48644e-11
-6.53164e-12
-4.95935e-12
-1.30861e-12
-1.01784e-13
9.60589e-14
4.12795e-14
5.56719e-15
4.26719e-16
1.58694e-16
8.41677e-17
5.13384e-17
3.40785e-17
2.32092e-17
1.50546e-17
8.85808e-18
4.64913e-18
2.16517e-18
8.82577e-19
2.99229e-19
6.7945e-20
-7.5887e-21
-2.3181e-20
9.76095e-12
1.026e-11
1.00651e-11
7.98144e-12
8.33433e-12
1.52055e-11
5.8357e-12
6.25808e-12
2.85194e-13
6.88057e-11
1.85307e-10
1.01217e-10
-2.24229e-10
-4.87867e-10
1.85347e-09
6.75441e-09
9.11924e-09
3.93482e-09
-4.77056e-09
-9.45388e-09
-7.27167e-09
-1.04963e-09
5.00923e-09
4.21652e-09
2.29694e-09
8.68425e-10
1.96172e-10
-9.00453e-11
-6.44567e-11
-1.5762e-11
-1.08842e-12
9.28493e-13
4.43178e-13
7.36993e-14
-8.98298e-16
-3.95134e-16
-6.45257e-17
2.92268e-17
4.31678e-17
4.04688e-17
3.4076e-17
2.46804e-17
1.49686e-17
7.68656e-18
3.38179e-18
1.25807e-18
3.6186e-19
4.27876e-20
-4.31785e-20
-4.97808e-20
1.33817e-11
1.4269e-11
1.39239e-11
9.78124e-12
1.14105e-11
2.66909e-11
2.95932e-12
2.06313e-13
5.55298e-11
1.77807e-10
4.12193e-10
1.21007e-10
-1.75213e-10
3.49087e-09
1.09032e-08
2.09509e-08
2.11325e-08
3.51778e-09
-2.04923e-08
-2.85899e-08
-1.48711e-08
3.15004e-08
2.8479e-08
1.33134e-08
4.5538e-09
1.3279e-09
-1.27383e-09
-9.00561e-10
-2.09121e-10
-1.20941e-11
7.54555e-12
3.8742e-12
7.78738e-13
9.26984e-15
-2.95396e-15
-1.14454e-15
-2.17585e-16
-1.14907e-17
2.66532e-17
4.31635e-17
5.13318e-17
4.28642e-17
2.63379e-17
1.27997e-17
5.11701e-18
1.65553e-18
3.63698e-19
-2.42693e-20
-9.73473e-20
-8.28795e-20
1.40954e-11
1.50871e-11
1.47344e-11
9.87567e-12
1.20343e-11
3.19448e-11
-1.2319e-11
-1.64402e-11
1.08469e-10
2.21269e-10
5.98617e-10
-1.23685e-09
7.08841e-10
1.82595e-08
3.36202e-08
3.0191e-08
1.07023e-08
-1.02567e-07
-4.20246e-08
-3.97899e-08
1.57475e-07
1.6308e-07
5.89014e-08
1.79341e-08
-4.1482e-09
-2.2177e-08
-1.34511e-08
-2.99617e-09
-1.54125e-10
5.3178e-11
2.8858e-11
6.76588e-12
3.26696e-13
-1.56491e-14
-6.71878e-15
-1.07801e-15
9.74064e-17
3.86454e-17
-1.14968e-17
2.92165e-17
8.41553e-17
8.39704e-17
4.99356e-17
2.16076e-17
7.34459e-18
1.89872e-18
2.51812e-19
-1.11022e-19
-1.32568e-19
-9.37104e-20
-9.90824e-08
-9.93916e-08
-9.90472e-08
-9.72474e-08
-9.92238e-08
-1.04083e-07
-1.0065e-07
-8.67697e-08
-7.57455e-08
-1.24498e-07
-1.90731e-07
-1.29455e-07
-1.35817e-08
3.00059e-08
5.40668e-08
-4.67887e-07
-1.16417e-06
-6.92154e-07
4.20096e-07
1.61228e-06
1.35744e-06
3.81243e-07
-1.74114e-07
-5.18954e-07
-4.26937e-07
-1.96007e-07
-4.58417e-08
-2.57169e-09
3.34544e-10
1.8831e-10
5.04777e-11
4.07351e-12
-1.39491e-13
-5.14335e-14
-5.90414e-15
4.19156e-15
1.80002e-15
9.73965e-17
-2.17599e-16
-6.45426e-17
1.58674e-16
1.96247e-16
1.03226e-16
3.57143e-17
9.05254e-18
1.5043e-18
4.46881e-20
-5.38855e-20
-7.35437e-21
4.34409e-21
-1.07825e-06
-1.07856e-06
-1.07825e-06
-1.07629e-06
-1.08062e-06
-1.08738e-06
-1.06923e-06
-1.05878e-06
-1.10499e-06
-1.1808e-06
-1.13028e-06
-7.72831e-07
-1.76382e-07
-2.16142e-07
-2.41494e-06
-5.667e-06
-5.84651e-06
-1.73262e-06
5.27362e-06
8.58218e-06
5.19574e-06
-9.00757e-07
-4.63519e-06
-3.87031e-06
-1.94516e-06
-5.93934e-07
-6.56672e-08
1.56343e-09
9.86067e-10
3.32178e-10
4.4723e-11
-9.21559e-13
-3.70836e-13
-6.03318e-14
4.38771e-14
2.3928e-14
4.19153e-15
-1.07804e-15
-1.14457e-15
-3.95157e-16
4.2669e-16
6.03079e-16
2.26489e-16
4.94448e-17
5.48414e-18
-4.28488e-19
2.36955e-19
7.45003e-19
6.64766e-19
4.11047e-19
-3.47508e-06
-3.47323e-06
-3.47554e-06
-3.48586e-06
-3.48371e-06
-3.46077e-06
-3.42063e-06
-3.53151e-06
-3.82021e-06
-3.71151e-06
-2.91334e-06
-1.91565e-06
-1.36549e-06
-4.2449e-06
-1.25102e-05
-1.84353e-05
-1.54187e-05
5.58481e-07
1.77756e-05
2.32997e-05
1.00674e-05
-1.93491e-05
-1.92956e-05
-1.08969e-05
-4.29572e-06
-1.00917e-06
-3.67346e-08
2.19825e-09
1.41472e-09
4.14188e-10
2.61693e-11
-7.11965e-13
-1.16429e-14
5.20594e-13
2.49878e-13
4.38773e-14
-5.90409e-15
-6.71883e-15
-2.95402e-15
-8.98333e-16
5.56691e-15
2.71987e-15
4.33564e-16
1.03838e-17
-1.78227e-17
-3.50095e-18
3.39636e-18
4.02916e-18
2.74907e-18
1.49592e-18
-6.5221e-06
-6.51561e-06
-6.52375e-06
-6.56113e-06
-6.54057e-06
-6.44272e-06
-6.38971e-06
-6.75882e-06
-7.45854e-06
-6.95115e-06
-4.65925e-06
-2.70249e-06
-5.07547e-06
-1.40767e-05
-2.99398e-05
-3.38364e-05
-2.1889e-05
1.3473e-05
2.83356e-05
3.75939e-05
-6.90245e-05
-8.61498e-05
-3.83219e-05
-1.54e-05
-5.27064e-06
-1.08068e-06
-6.97223e-09
2.3618e-09
1.40086e-09
4.45765e-10
3.87949e-11
1.2544e-12
4.15441e-12
2.66982e-12
5.20601e-13
-6.03297e-14
-5.14326e-14
-1.5649e-14
9.26905e-15
7.36964e-14
4.12778e-14
7.51094e-15
-1.58606e-16
-3.22957e-16
-7.92024e-17
6.43038e-18
1.90943e-17
1.39665e-17
7.76513e-18
3.75001e-18
-7.47098e-06
-7.46189e-06
-7.47346e-06
-7.52699e-06
-7.49397e-06
-7.34798e-06
-7.29644e-06
-7.82161e-06
-8.73765e-06
-7.97096e-06
-4.97084e-06
-2.3703e-06
-8.45906e-06
-2.82792e-05
-3.95173e-05
-2.66527e-05
0.000125436
6.95978e-05
-6.0597e-05
-0.000414506
-0.000542949
-0.00018578
0.000240425
0.000644416
0.000789114
0.000694415
0.000451847
0.000207881
5.52901e-05
2.25148e-06
2.20342e-10
3.93325e-11
1.47885e-11
4.15448e-12
-1.16266e-14
-3.70829e-13
-1.39488e-13
3.26684e-13
7.78711e-13
4.43162e-13
9.60552e-14
-6.70136e-15
-6.4704e-15
-1.45996e-15
-4.34396e-17
1.09473e-16
7.34892e-17
3.74565e-17
1.71708e-17
7.33121e-18
8.5366e-05
8.5517e-05
8.51957e-05
8.41215e-05
8.54128e-05
8.94818e-05
8.7382e-05
7.53497e-05
7.02992e-05
9.78732e-05
0.000136742
0.000111779
1.24811e-05
-4.0856e-05
7.32374e-05
0.000613596
0.000864247
0.000184559
-0.00181665
-0.0033324
-0.002229
0.00242033
0.0103371
0.0183492
0.02263
0.0222421
0.0183075
0.0125009
0.00692449
0.00291871
0.000764675
4.41027e-05
3.93331e-11
1.25449e-12
-7.11974e-13
-9.21544e-13
4.07339e-12
6.76567e-12
3.87407e-12
9.2846e-13
-1.01776e-13
-1.06618e-13
-2.9918e-14
-1.86812e-15
1.38541e-15
5.69922e-16
1.98769e-16
7.45052e-17
2.85128e-17
1.07576e-17
0.000716755
0.000717393
0.000715286
0.000710855
0.00071956
0.00073706
0.000716777
0.000659213
0.000675235
0.000828212
0.000913802
0.000660883
0.000178641
0.000154346
0.00131644
0.00285798
0.00276299
-0.000866899
-0.00712631
-0.010705
-0.00525816
0.014283
0.0450928
0.0762983
0.0945274
0.094572
0.0808659
0.0582559
0.034791
0.0164855
0.00547826
0.000764675
2.20346e-10
3.87928e-11
2.61678e-11
4.47216e-11
5.04763e-11
2.88571e-11
7.5453e-12
-1.08833e-12
-1.30855e-12
-4.10116e-13
-4.06308e-14
2.35437e-14
8.88914e-15
1.3038e-15
2.68394e-16
8.29812e-17
2.77269e-17
9.29111e-18
0.00217917
0.00218067
0.00217459
0.00216439
0.00218978
0.0022309
0.00216554
0.0020227
0.00211528
0.00253153
0.00262608
0.00178625
0.000665494
0.00124467
0.00438307
0.00751707
0.00594951
-0.00353482
-0.0173996
-0.0235196
-0.00771127
0.0401717
0.113566
0.188329
0.234097
0.236214
0.205394
0.151334
0.0930883
0.0460058
0.0164855
0.00291871
2.2515e-06
4.45768e-10
4.14183e-10
3.32171e-10
1.88305e-10
5.31763e-11
-1.20934e-11
-1.57615e-11
-4.95919e-12
-5.1735e-13
2.91175e-13
1.26443e-13
1.69904e-14
-1.38825e-16
-6.49227e-17
-2.08563e-17
-6.92146e-18
-2.80076e-18
0.00443639
0.00443907
0.00442689
0.00440889
0.0044604
0.0045333
0.00439423
0.00413212
0.00436439
0.00517762
0.00520716
0.00337609
0.00152203
0.00324056
0.00945244
0.0144596
0.00997951
-0.00838931
-0.0325374
-0.0401939
-0.00818586
0.0804002
0.214057
0.351216
0.438285
0.445373
0.391737
0.292986
0.183635
0.0930883
0.034791
0.0069245
5.52902e-05
1.40089e-09
1.41472e-09
9.86049e-10
3.34535e-10
-1.54117e-10
-2.09115e-10
-6.44552e-11
-6.53149e-12
2.95618e-12
1.43069e-12
2.38684e-13
-4.66266e-15
-2.46341e-15
-7.29365e-16
-2.0842e-16
-6.45836e-17
-2.11587e-17
0.00685438
0.00685834
0.00683936
0.006813
0.00689422
0.00700091
0.00677503
0.00638334
0.00679363
0.00804408
0.00795073
0.00498274
0.00232684
0.00557143
0.015375
0.0221197
0.0136362
-0.0149165
-0.0493483
-0.0571639
-0.00645388
0.126808
0.326488
0.533459
0.669381
0.685143
0.608516
0.460701
0.292986
0.151334
0.0582559
0.0125009
0.000207881
2.36189e-09
2.19826e-09
1.5634e-09
-2.57153e-09
-2.99609e-09
-9.00542e-10
-9.00441e-11
2.48638e-11
1.32854e-11
2.80653e-12
5.34614e-14
-1.82924e-14
-7.45535e-15
-1.27394e-15
-2.71096e-16
-7.79761e-17
-2.42585e-17
0.00829905
0.00830403
0.0082802
0.00824728
0.00835012
0.00848291
0.00819193
0.00770205
0.0082505
0.00983611
0.00964516
0.00578898
0.00253844
0.00705596
0.0197761
0.027653
0.0155754
-0.02087
-0.0626035
-0.0696985
-0.00426282
0.163645
0.41546
0.680071
0.85987
0.887294
0.795156
0.608516
0.391737
0.205394
0.0808659
0.0183075
0.000451847
-6.97057e-09
-3.67316e-08
-6.56647e-08
-4.58404e-08
-1.34507e-08
-1.27381e-09
1.96167e-10
1.1107e-10
2.71463e-11
1.58672e-12
-1.66522e-13
-7.97495e-14
-1.24411e-14
-3.401e-16
8.60655e-18
1.64533e-17
8.37499e-18
0.00795897
0.00796451
0.00793976
0.00790328
0.0080108
0.00815706
0.00785097
0.00731553
0.00789437
0.00961397
0.00942276
0.00518997
0.00164656
0.00666404
0.0202926
0.0284699
0.0152437
-0.0235082
-0.0673997
-0.0745389
-0.00471434
0.174649
0.447289
0.739045
0.943806
0.982423
0.887294
0.685143
0.445373
0.236214
0.094572
0.0222421
0.000694414
-1.08065e-06
-1.00915e-06
-5.9392e-07
-1.96003e-07
-2.21765e-08
1.32788e-09
8.68411e-10
2.7148e-10
2.58809e-11
-1.62258e-12
-8.60279e-13
-1.67162e-13
-3.34149e-16
1.34061e-15
5.83209e-16
2.03519e-16
6.94893e-17
0.0049261
0.00493162
0.00491201
0.00487562
0.00496131
0.0051039
0.00486345
0.00436353
0.00478918
0.00633929
0.00634429
0.00277813
-0.000589782
0.00325149
0.0151199
0.0230487
0.0128721
-0.0207774
-0.0611595
-0.071235
-0.0124172
0.149534
0.40499
0.687363
0.89437
0.943806
0.85987
0.669381
0.438285
0.234097
0.0945274
0.02263
0.000789113
-5.27055e-06
-4.29564e-06
-1.94512e-06
-4.26929e-07
-4.14792e-09
4.55377e-09
2.29691e-09
4.4751e-10
-6.16446e-12
-7.2141e-12
-2.24752e-12
-1.39289e-13
1.07196e-14
4.94105e-15
1.20474e-15
3.3643e-16
1.09933e-16
0.0005871
0.000591586
0.000582142
0.00055241
0.000593524
0.000705214
0.000599851
0.000241391
0.00036318
0.00135493
0.00172298
-0.000192035
-0.00284876
-0.0016565
0.00538103
0.0124829
0.0091896
-0.0112731
-0.0425826
-0.0591995
-0.0270714
0.0867039
0.282636
0.510985
0.687363
0.739045
0.680071
0.533459
0.351216
0.188329
0.0762983
0.0183492
0.000644415
-1.53998e-05
-1.08967e-05
-3.87026e-06
-5.18943e-07
1.7934e-08
1.33133e-08
4.21647e-09
3.4478e-10
-4.16519e-11
-2.08462e-11
-3.41565e-12
8.14251e-14
4.4312e-14
9.27804e-15
9.86094e-16
2.39643e-16
8.296e-17
-0.00258915
-0.00258645
-0.00258555
-0.00260351
-0.00260813
-0.00254559
-0.00251452
-0.00267496
-0.00284596
-0.00254911
-0.00189266
-0.00196477
-0.00360202
-0.00511047
-0.00355765
0.00189886
0.00627345
0.000702572
-0.0193474
-0.0420914
-0.0397408
0.015818
0.133376
0.282636
0.40499
0.447289
0.41546
0.326488
0.214057
0.113566
0.0450928
0.0103371
0.000240425
-3.83215e-05
-1.92954e-05
-4.63512e-06
-1.74108e-07
5.89009e-08
2.84788e-08
5.00916e-09
-2.53972e-10
-1.49305e-10
-3.30533e-11
-5.19461e-13
2.34995e-13
9.28852e-14
9.42953e-15
-6.02374e-17
-1.12305e-17
1.25888e-18
-0.00309162
-0.00309088
-0.00308401
-0.00308896
-0.00312025
-0.00310872
-0.00300098
-0.00299626
-0.00329437
-0.00350018
-0.00288499
-0.00195075
-0.00238157
-0.00524833
-0.00736076
-0.00405885
0.00458168
0.00915472
-0.000438171
-0.0235228
-0.0411205
-0.0312529
0.015818
0.0867039
0.149534
0.174649
0.163645
0.126808
0.0804002
0.0401717
0.014283
0.00242033
-0.000185779
-8.61492e-05
-1.93489e-05
-9.00716e-07
3.81239e-07
1.63078e-07
3.15001e-08
-1.04961e-09
-8.0187e-10
-2.31275e-10
-1.74811e-11
1.14761e-12
5.66115e-13
1.05452e-13
-4.41975e-16
-4.41841e-16
-1.82083e-16
-6.74148e-17
-0.00142509
-0.00142598
-0.00141879
-0.00141283
-0.00144534
-0.00147222
-0.0013721
-0.00125732
-0.00148065
-0.00189967
-0.00166074
-0.000398337
-2.17064e-06
-0.00236256
-0.00560038
-0.00453049
0.00297412
0.0106224
0.008729
-0.00662186
-0.0280615
-0.0411205
-0.0397408
-0.0270714
-0.0124172
-0.00471435
-0.00426282
-0.00645387
-0.00818585
-0.00771126
-0.00525815
-0.002229
-0.000542948
-6.90242e-05
1.00673e-05
5.19572e-06
1.35743e-06
1.57472e-07
-1.48709e-08
-7.27156e-09
-1.71545e-09
-1.06743e-10
7.65515e-12
3.19619e-12
6.22751e-13
7.8199e-15
-1.83668e-15
-7.39936e-16
-2.66739e-16
-9.59715e-17
0.000523017
0.000521512
0.000524633
0.000534602
0.000521278
0.000483374
0.000516806
0.000638801
0.00060644
0.000268568
0.000170907
0.000773715
0.00149196
0.000866771
-0.00115674
-0.00197526
0.000788331
0.00600997
0.00873546
0.00487254
-0.00662186
-0.0235228
-0.0420914
-0.0591995
-0.071235
-0.0745389
-0.0696985
-0.0571639
-0.0401939
-0.0235196
-0.010705
-0.0033324
-0.000414504
3.75936e-05
2.32995e-05
8.5821e-06
1.61227e-06
-3.97889e-08
-2.85894e-08
-9.45369e-09
-1.11337e-09
5.33902e-11
2.1648e-11
3.52069e-12
-1.61291e-13
-5.10036e-14
-5.08781e-15
-4.29411e-16
-1.64447e-16
-6.0146e-17
0.0009457
0.000944694
0.000943273
0.000950019
0.000956787
0.000933446
0.000905392
0.000963026
0.00106327
0.000992261
0.00069378
0.000643
0.00115944
0.00184873
0.00162092
0.000109757
-0.00132046
-0.000307122
0.00396343
0.00873546
0.00872899
-0.000438172
-0.0193474
-0.0425826
-0.0611595
-0.0673997
-0.0626035
-0.0493483
-0.0325374
-0.0173996
-0.00712631
-0.00181666
-6.05975e-05
2.83352e-05
1.77754e-05
5.27356e-06
4.20093e-07
-4.20237e-08
-2.04917e-08
-4.77043e-09
2.18621e-10
1.33402e-10
2.49943e-11
-1.29148e-12
-5.96234e-13
-8.75508e-14
1.07006e-15
4.08486e-16
1.35416e-16
4.5691e-17
-8.15068e-05
-8.16151e-05
-8.52626e-05
-8.43387e-05
-6.83489e-05
-6.92464e-05
-0.000120247
-0.000137085
-6.79758e-06
0.000108107
-0.000119409
-0.000560235
-0.000443976
0.000559357
0.00129279
0.000236516
-0.00223318
-0.00323578
-0.00030712
0.00600997
0.0106224
0.00915471
0.000702575
-0.0112731
-0.0207774
-0.0235082
-0.02087
-0.0149165
-0.00838933
-0.00353484
-0.000866911
0.000184552
6.95954e-05
1.34726e-05
5.5838e-07
-1.73263e-06
-6.92152e-07
-1.02565e-07
3.51823e-09
3.93478e-09
1.35803e-09
1.81539e-10
-8.76872e-12
-3.72833e-12
-6.94433e-13
2.07779e-15
2.6254e-15
1.05138e-15
3.81272e-16
1.43063e-16
-0.00128397
-0.00128369
-0.00128676
-0.00128879
-0.00127535
-0.00126637
-0.0013045
-0.00134265
-0.00126771
-0.00113235
-0.00120798
-0.0015309
-0.00163814
-0.00121051
-0.000683716
-0.00084898
-0.00174813
-0.00223318
-0.00132045
0.000788329
0.00297411
0.00458167
0.00627345
0.00918963
0.0128722
0.0152437
0.0155754
0.0136362
0.00997948
0.00594948
0.00276297
0.000864238
0.000125432
-2.18892e-05
-1.54188e-05
-5.84654e-06
-1.16416e-06
1.07049e-08
2.11332e-08
9.11919e-09
1.37915e-09
-3.55229e-11
-1.58758e-11
-3.88145e-12
-1.97379e-13
4.6413e-15
2.76193e-15
1.14422e-15
4.54404e-16
1.81871e-16
-0.00162661
-0.00162655
-0.00162844
-0.00162912
-0.00162125
-0.00161861
-0.00163871
-0.00165245
-0.00161637
-0.00157179
-0.00159272
-0.00166441
-0.00171417
-0.00179044
-0.00190929
-0.0017413
-0.000848978
0.000236522
0.000109763
-0.00197526
-0.00453051
-0.00405886
0.00189886
0.0124829
0.0230488
0.0284699
0.027653
0.0221197
0.0144596
0.00751704
0.00285796
0.000613587
-2.66549e-05
-3.38374e-05
-1.84356e-05
-5.66705e-06
-4.67881e-07
3.01909e-08
2.09505e-08
6.75428e-09
5.40734e-10
-1.88183e-11
-1.11658e-11
-2.43721e-12
-1.38913e-14
8.27514e-15
2.98308e-15
9.67759e-16
3.87691e-16
1.62135e-16
-0.00140104
-0.00140135
-0.00140296
-0.00140108
-0.00139438
-0.0014006
-0.00142014
-0.00140678
-0.00136194
-0.00137421
-0.00145544
-0.00145017
-0.00132815
-0.00141791
-0.00185956
-0.00190929
-0.000683716
0.00129279
0.00162093
-0.00115674
-0.00560039
-0.00736077
-0.00355765
0.00538106
0.0151199
0.0202926
0.0197761
0.0153749
0.00945241
0.00438304
0.00131642
7.32309e-05
-3.95195e-05
-2.99414e-05
-1.25108e-05
-2.415e-06
5.40699e-08
3.36204e-08
1.09033e-08
1.8535e-09
-9.05056e-11
-3.43768e-11
-6.08269e-12
-5.62042e-14
2.50462e-14
9.82674e-15
2.31282e-15
6.27121e-16
2.44783e-16
1.04843e-16
-0.00129846
-0.00129887
-0.00130125
-0.00129857
-0.00128866
-0.00129696
-0.00132699
-0.00131367
-0.00123529
-0.00123396
-0.0013819
-0.00145317
-0.00127515
-0.0011285
-0.00141791
-0.00179045
-0.00121051
0.000559362
0.00184874
0.000866768
-0.00236257
-0.00524834
-0.00511046
-0.00165647
0.00325153
0.00666406
0.00705596
0.00557141
0.00324052
0.00124464
0.000154325
-4.08593e-05
-2.82823e-05
-1.40785e-05
-4.24548e-06
-2.16203e-07
3.00057e-08
1.82597e-08
3.49104e-09
-4.87835e-10
-2.14029e-10
-3.3968e-11
1.54729e-12
6.17349e-13
8.13332e-14
1.60582e-15
1.59686e-16
1.29208e-16
7.13708e-17
3.4806e-17
-0.0014447
-0.00144493
-0.00144798
-0.00144633
-0.00143399
-0.00143776
-0.00147518
-0.00147577
-0.00138689
-0.00134302
-0.0014911
-0.00165619
-0.00154403
-0.00127515
-0.00132815
-0.00171417
-0.00163814
-0.000443971
0.00115945
0.00149196
-2.18208e-06
-0.00238158
-0.00360202
-0.00284874
-0.000589749
0.00164658
0.00253843
0.00232681
0.00152199
0.000665457
0.00017862
1.24739e-05
-8.46164e-06
-5.0769e-06
-1.366e-06
-1.76442e-07
-1.35792e-08
7.09111e-10
-1.75132e-10
-2.242e-10
-8.87367e-11
-4.70968e-12
9.77938e-13
4.54364e-13
4.08864e-14
-1.35783e-15
-5.38448e-16
-1.76438e-16
-5.83928e-17
-2.12206e-17
-0.00152211
-0.00152223
-0.0015251
-0.00152438
-0.00151245
-0.00151339
-0.00154793
-0.00155598
-0.00147959
-0.00142358
-0.00153333
-0.00169646
-0.00165619
-0.00145317
-0.00145016
-0.00166441
-0.0015309
-0.000560228
0.000643005
0.000773712
-0.000398348
-0.00195076
-0.00196477
-0.000192013
0.00277816
0.00518999
0.00578897
0.00498271
0.00337605
0.00178622
0.00066086
0.000111769
-2.37146e-06
-2.70341e-06
-1.91611e-06
-7.72953e-07
-1.29452e-07
-1.2369e-09
1.21001e-10
1.01208e-10
4.07359e-11
5.74427e-12
1.50523e-14
-9.95781e-14
-2.91595e-14
-2.67266e-15
-4.32319e-16
-2.00902e-16
-9.24037e-17
-4.34121e-17
-0.00140524
-0.00140537
-0.00140776
-0.00140692
-0.00139706
-0.00139866
-0.00142744
-0.00143127
-0.00136796
-0.00132901
-0.00142024
-0.00153333
-0.0014911
-0.0013819
-0.00145544
-0.00159272
-0.00120798
-0.000119402
0.000693785
0.000170904
-0.00166075
-0.002885
-0.00189266
0.001723
0.00634433
0.00942277
0.00964516
0.0079507
0.00520712
0.00262605
0.000913779
0.000136733
-4.97156e-06
-4.65992e-06
-2.91373e-06
-1.13041e-06
-1.90742e-07
5.98671e-10
4.12161e-10
1.85291e-10
4.49453e-11
8.46239e-13
-3.44278e-13
-1.61206e-13
-3.31102e-14
-1.39211e-15
-1.73916e-16
-1.17878e-16
-7.0314e-17
-3.92216e-17
-0.00129528
-0.00129548
-0.00129774
-0.00129641
-0.00128712
-0.00129054
-0.00131798
-0.00131678
-0.00125257
-0.00122666
-0.00132901
-0.00142358
-0.00134302
-0.00123396
-0.0013742
-0.00157178
-0.00113235
0.000108113
0.000992267
0.000268565
-0.00189969
-0.00350019
-0.00254911
0.00135496
0.00633932
0.00961399
0.00983611
0.00804406
0.00517759
0.0025315
0.000828191
9.78653e-05
-7.97202e-06
-6.95201e-06
-3.71192e-06
-1.18092e-06
-1.24508e-07
2.21272e-10
1.7781e-10
6.88088e-11
1.14962e-11
-4.57196e-14
1.39061e-14
9.20692e-17
-3.87463e-15
-1.00867e-15
-2.11914e-16
-8.65093e-17
-4.86137e-17
-2.89569e-17
-0.00132874
-0.00132898
-0.00133145
-0.00132994
-0.00131975
-0.00132365
-0.00135389
-0.00135212
-0.0012807
-0.00125257
-0.00136796
-0.00147959
-0.00138688
-0.00123529
-0.00136194
-0.00161637
-0.00126771
-6.79146e-06
0.00106328
0.000606438
-0.00148066
-0.00329438
-0.00284596
0.000363205
0.00478922
0.00789439
0.0082505
0.00679361
0.00436435
0.00211524
0.000675214
7.02915e-05
-8.7391e-06
-7.45968e-06
-3.82072e-06
-1.10511e-06
-7.57471e-08
1.0847e-10
5.55282e-11
2.84609e-13
-8.07104e-13
3.85589e-13
2.95306e-13
8.26765e-14
6.89387e-15
-1.07533e-16
-8.65415e-17
-5.68964e-17
-3.58906e-17
-2.24242e-17
-0.00139889
-0.0013991
-0.00140168
-0.00140037
-0.0013897
-0.00139283
-0.00142447
-0.00142501
-0.00135212
-0.00131678
-0.00143127
-0.00155598
-0.00147577
-0.00131367
-0.00140678
-0.00165245
-0.00134265
-0.000137078
0.000963031
0.000638798
-0.00125733
-0.00299627
-0.00267496
0.000241416
0.00436356
0.00731555
0.00770204
0.00638331
0.00413208
0.00202267
0.000659192
7.53415e-05
-7.82315e-06
-6.76006e-06
-3.53208e-06
-1.05891e-06
-8.67703e-08
-1.6448e-11
2.0065e-13
6.25572e-12
4.17305e-12
1.82547e-12
5.25946e-13
5.01239e-14
-5.23913e-16
-1.642e-16
-7.80793e-17
-4.74685e-17
-3.10146e-17
-2.00365e-17
-0.0013985
-0.00139868
-0.00140121
-0.00140002
-0.00138958
-0.00139234
-0.0014232
-0.00142447
-0.00135389
-0.00131798
-0.00142744
-0.00154793
-0.00147518
-0.00132699
-0.00142014
-0.00163871
-0.0013045
-0.00012024
0.000905398
0.000516804
-0.00137211
-0.00300099
-0.00251452
0.000599876
0.00486348
0.00785099
0.00819192
0.006775
0.00439419
0.00216551
0.000716756
8.73738e-05
-7.29792e-06
-6.39091e-06
-3.42119e-06
-1.06937e-06
-1.00652e-07
-1.23106e-11
2.96337e-12
5.83677e-12
4.57031e-12
2.13197e-12
5.01462e-13
1.41838e-14
-4.50831e-16
-2.28499e-16
-1.04498e-16
-5.52814e-17
-3.28489e-17
-2.01748e-17
-0.00136805
-0.00136824
-0.00137071
-0.00136947
-0.0013593
-0.00136227
-0.00139234
-0.00139283
-0.00132365
-0.00129054
-0.00139866
-0.00151339
-0.00143776
-0.00129695
-0.0014006
-0.00161861
-0.00126637
-6.92403e-05
0.000933451
0.000483372
-0.00147223
-0.00310874
-0.00254559
0.000705239
0.00510394
0.00815708
0.00848291
0.00700088
0.00453327
0.00223087
0.000737039
8.94737e-05
-7.34929e-06
-6.44379e-06
-3.46127e-06
-1.08751e-06
-1.04086e-07
3.19547e-11
2.66986e-11
1.52088e-11
6.53051e-12
1.98139e-12
2.24136e-13
-9.04772e-16
-5.16975e-16
-2.09343e-16
-9.15946e-17
-4.93474e-17
-3.02707e-17
-1.90681e-17
-0.001365
-0.00136519
-0.00136768
-0.00136639
-0.00135614
-0.0013593
-0.00138958
-0.0013897
-0.00131975
-0.00128712
-0.00139706
-0.00151245
-0.00143399
-0.00128866
-0.00139438
-0.00162125
-0.00127535
-6.83428e-05
0.000956793
0.000521275
-0.00144536
-0.00312026
-0.00260812
0.000593549
0.00496134
0.00801082
0.00835012
0.0068942
0.00446036
0.00218975
0.000719539
8.54049e-05
-7.4951e-06
-6.54149e-06
-3.48415e-06
-1.08074e-06
-9.9229e-08
1.20379e-11
1.14132e-11
8.3356e-12
4.70895e-12
1.91306e-12
4.3033e-13
9.21416e-15
-5.88239e-17
-6.05116e-17
-5.12252e-17
-3.87465e-17
-2.72449e-17
-1.80837e-17
-0.00137529
-0.00137549
-0.001378
-0.00137672
-0.00136639
-0.00136947
-0.00140002
-0.00140037
-0.00132994
-0.00129641
-0.00140692
-0.00152438
-0.00144633
-0.00129857
-0.00140108
-0.00162911
-0.00128879
-8.43326e-05
0.000950025
0.000534599
-0.00141284
-0.00308897
-0.00260351
0.000552434
0.00487565
0.00790329
0.00824727
0.00681298
0.00440885
0.00216435
0.000710833
8.41137e-05
-7.52807e-06
-6.562e-06
-3.48628e-06
-1.0764e-06
-9.72534e-08
9.87523e-12
9.78095e-12
7.98161e-12
4.9428e-12
2.13214e-12
5.03846e-13
1.5254e-14
-6.88916e-17
-6.13909e-17
-4.99096e-17
-3.76624e-17
-2.66518e-17
-1.78078e-17
-0.00137656
-0.00137676
-0.00137926
-0.001378
-0.00136768
-0.00137071
-0.00140121
-0.00140168
-0.00133145
-0.00129774
-0.00140776
-0.0015251
-0.00144798
-0.00130125
-0.00140295
-0.00162844
-0.00128676
-8.52565e-05
0.000943279
0.00052463
-0.0014188
-0.00308403
-0.00258554
0.000582167
0.00491204
0.00793978
0.0082802
0.00683933
0.00442685
0.00217455
0.000715264
8.51878e-05
-7.47457e-06
-6.52465e-06
-3.47597e-06
-1.07837e-06
-9.90531e-08
1.47367e-11
1.39256e-11
1.0066e-11
5.55225e-12
2.16477e-12
4.39068e-13
4.22547e-15
-6.93692e-17
-6.10992e-17
-4.95688e-17
-3.74387e-17
-2.65303e-17
-1.77491e-17
-0.00137406
-0.00137426
-0.00137676
-0.00137549
-0.00136519
-0.00136824
-0.00139868
-0.0013991
-0.00132898
-0.00129548
-0.00140537
-0.00152222
-0.00144493
-0.00129887
-0.00140135
-0.00162655
-0.00128369
-8.1609e-05
0.0009447
0.000521509
-0.00142599
-0.0030909
-0.00258644
0.000591611
0.00493165
0.00796453
0.00830402
0.00685832
0.00443903
0.00218064
0.000717371
8.55091e-05
-7.46303e-06
-6.51654e-06
-3.47367e-06
-1.07868e-06
-9.93972e-08
1.50905e-11
1.42717e-11
1.02613e-11
5.59159e-12
2.13551e-12