/*--------------------------------*- C++ -*----------------------------------*\
| =========                 |                                                 |
| \\      /  F ield         | OpenFOAM: The Open Source CFD Toolbox           |
|  \\    /   O peration     | Version:  v2006                                 |
|   \\  /    A nd           | Website:  www.openfoam.com                      |
|    \\/     M anipulation  |                                                 |
\*---------------------------------------------------------------------------*/
FoamFile
{
    version     2.0;
    format      ascii;
    class       volVectorField;
    location    "0";
    object      U;
}
// * * * * * * * * * * * * * * * * * * * * * * * * * * * * * * * * * * * * * //

dimensions      [0 1 -1 0 0 0 0];


internalField   nonuniform List<vector> 
67500
(
(-0.0272834 0.0183325 0)
(-0.0450126 0.00331911 0)
(-0.0188857 -0.0114788 0)
(-0.0129904 -0.00669021 0)
(0.0479852 0.0170443 0)
(0.128221 -0.00344056 0)
(0.143021 -0.0453812 0)
(0.137324 -0.0744113 0)
(0.138136 -0.0906687 0)
(0.202719 -0.091234 0)
(0.266967 -0.0563845 0)
(0.270703 0.00133138 0)
(0.233398 0.026367 0)
(0.204034 0.00719563 0)
(0.19682 -0.0143238 0)
(0.201587 -0.0163115 0)
(0.209326 -0.00980683 0)
(0.214169 -0.00454907 0)
(0.215843 -0.00204477 0)
(0.216618 -0.00120371 0)
(0.218003 -0.00115503 0)
(0.220409 -0.00145232 0)
(0.223825 -0.0019039 0)
(0.228164 -0.00240765 0)
(0.233348 -0.00293233 0)
(0.239388 -0.00349613 0)
(0.246418 -0.00411003 0)
(0.254594 -0.00472186 0)
(0.263959 -0.00525758 0)
(0.274383 -0.0056607 0)
(0.285608 -0.00590986 0)
(0.297334 -0.00602489 0)
(0.309309 -0.00605019 0)
(0.321367 -0.00602888 0)
(0.333427 -0.00599651 0)
(0.345491 -0.00598425 0)
(0.357609 -0.00599805 0)
(0.369832 -0.00602722 0)
(0.382182 -0.00606388 0)
(0.394658 -0.00611008 0)
(0.40726 -0.00617277 0)
(0.420007 -0.00625405 0)
(0.432926 -0.00634517 0)
(0.446032 -0.00642785 0)
(0.459303 -0.00648065 0)
(0.472662 -0.00648492 0)
(0.485985 -0.00642835 0)
(0.499114 -0.00630413 0)
(0.511874 -0.00610886 0)
(0.524104 -0.00586083 0)
(0.535755 -0.00562954 0)
(0.546945 -0.00547469 0)
(0.557852 -0.00538231 0)
(0.568573 -0.00531421 0)
(0.579127 -0.00524922 0)
(0.589518 -0.0051836 0)
(0.59977 -0.00513267 0)
(0.609952 -0.00511855 0)
(0.620156 -0.00514001 0)
(0.630441 -0.00517509 0)
(0.640811 -0.00520338 0)
(0.651231 -0.00521357 0)
(0.661657 -0.00520444 0)
(0.672053 -0.00518289 0)
(0.682399 -0.00515356 0)
(0.692678 -0.00511332 0)
(0.702862 -0.00505795 0)
(0.712918 -0.00498817 0)
(0.722822 -0.00490855 0)
(0.732558 -0.00482251 0)
(0.742115 -0.0047306 0)
(0.751482 -0.00463328 0)
(0.760649 -0.00453223 0)
(0.76961 -0.00442865 0)
(0.778362 -0.00432288 0)
(0.7869 -0.00421537 0)
(0.795221 -0.00410676 0)
(0.803323 -0.00399741 0)
(0.811207 -0.00388754 0)
(0.81887 -0.00377739 0)
(0.826312 -0.00366714 0)
(0.833534 -0.00355694 0)
(0.840536 -0.00344693 0)
(0.847318 -0.00333728 0)
(0.853881 -0.00322815 0)
(0.860226 -0.00311975 0)
(0.866356 -0.00301227 0)
(0.872271 -0.00290592 0)
(0.877975 -0.00280091 0)
(0.88347 -0.00269744 0)
(0.88876 -0.00259571 0)
(0.893849 -0.00249588 0)
(0.89874 -0.0023981 0)
(0.903437 -0.0023025 0)
(0.907945 -0.00220917 0)
(0.912269 -0.00211821 0)
(0.916414 -0.00202968 0)
(0.920384 -0.00194364 0)
(0.924184 -0.00186012 0)
(0.927821 -0.00177916 0)
(0.931297 -0.00170077 0)
(0.93462 -0.00162495 0)
(0.937794 -0.00155171 0)
(0.940823 -0.00148102 0)
(0.943714 -0.00141287 0)
(0.946472 -0.00134724 0)
(0.9491 -0.00128409 0)
(0.951605 -0.0012234 0)
(0.953991 -0.00116511 0)
(0.956262 -0.0011092 0)
(0.958425 -0.00105561 0)
(0.960482 -0.0010043 0)
(0.962439 -0.000955209 0)
(0.964301 -0.000908291 0)
(0.96607 -0.000863486 0)
(0.967752 -0.000820735 0)
(0.969351 -0.000779974 0)
(0.97087 -0.000741141 0)
(0.972313 -0.00070417 0)
(0.973685 -0.000668996 0)
(0.974988 -0.00063555 0)
(0.976225 -0.000603764 0)
(0.977401 -0.00057357 0)
(0.978518 -0.000544898 0)
(0.979579 -0.000517679 0)
(0.980587 -0.000491844 0)
(0.981545 -0.000467326 0)
(0.982455 -0.000444056 0)
(0.98332 -0.000421968 0)
(0.984142 -0.000400997 0)
(0.984923 -0.00038108 0)
(0.985665 -0.000362156 0)
(0.986371 -0.000344166 0)
(0.987041 -0.000327054 0)
(0.987678 -0.000310767 0)
(0.988283 -0.000295258 0)
(0.988858 -0.000280482 0)
(0.989404 -0.000266397 0)
(0.989923 -0.000252968 0)
(0.990416 -0.000240163 0)
(0.990883 -0.000227953 0)
(0.991327 -0.000216314 0)
(0.991748 -0.000205223 0)
(0.992147 -0.000194662 0)
(0.992526 -0.000184611 0)
(0.992885 -0.000175055 0)
(0.993226 -0.000165978 0)
(0.993549 -0.000157363 0)
(0.993855 -0.000149194 0)
(0.994145 -0.000141456 0)
(0.99442 -0.000134131 0)
(0.994681 -0.000127204 0)
(0.994929 -0.000120655 0)
(0.995163 -0.000114469 0)
(0.995386 -0.000108627 0)
(0.995598 -0.000103113 0)
(0.995798 -9.79091e-05 0)
(0.995989 -9.2999e-05 0)
(0.99617 -8.83666e-05 0)
(0.996342 -8.39961e-05 0)
(0.996506 -7.98725e-05 0)
(0.996661 -7.59813e-05 0)
(0.996809 -7.23086e-05 0)
(0.99695 -6.88409e-05 0)
(0.997085 -6.55655e-05 0)
(0.997212 -6.24702e-05 0)
(0.997334 -5.95433e-05 0)
(0.997451 -5.67736e-05 0)
(0.997561 -5.41507e-05 0)
(0.997667 -5.16644e-05 0)
(0.997768 -4.93053e-05 0)
(0.997864 -4.70645e-05 0)
(0.997956 -4.49337e-05 0)
(0.998044 -4.29051e-05 0)
(0.998127 -4.09717e-05 0)
(0.998208 -3.91269e-05 0)
(0.998284 -3.73647e-05 0)
(0.998357 -3.56797e-05 0)
(0.998427 -3.40671e-05 0)
(0.998493 -3.25224e-05 0)
(0.998557 -3.10418e-05 0)
(0.998617 -2.96218e-05 0)
(0.998675 -2.82594e-05 0)
(0.99873 -2.69517e-05 0)
(0.998783 -2.56963e-05 0)
(0.998833 -2.44911e-05 0)
(0.998881 -2.33341e-05 0)
(0.998926 -2.22236e-05 0)
(0.99897 -2.11579e-05 0)
(0.999011 -2.01356e-05 0)
(0.99905 -1.91553e-05 0)
(0.999087 -1.82158e-05 0)
(0.999123 -1.73158e-05 0)
(0.999157 -1.64543e-05 0)
(0.999189 -1.56302e-05 0)
(0.999219 -1.48424e-05 0)
(0.999248 -1.40898e-05 0)
(0.999275 -1.33716e-05 0)
(0.999301 -1.26866e-05 0)
(0.999326 -1.20339e-05 0)
(0.99935 -1.14126e-05 0)
(0.999372 -1.08216e-05 0)
(0.999393 -1.02599e-05 0)
(0.999413 -9.72674e-06 0)
(0.999432 -9.22101e-06 0)
(0.99945 -8.7418e-06 0)
(0.999467 -8.28815e-06 0)
(0.999483 -7.85915e-06 0)
(0.999498 -7.45385e-06 0)
(0.999513 -7.07135e-06 0)
(0.999526 -6.71073e-06 0)
(0.999539 -6.37111e-06 0)
(0.999552 -6.0516e-06 0)
(0.999564 -5.75135e-06 0)
(0.999575 -5.4695e-06 0)
(0.999585 -5.20521e-06 0)
(0.999596 -4.95767e-06 0)
(0.999605 -4.72608e-06 0)
(0.999614 -4.50964e-06 0)
(0.999623 -4.3076e-06 0)
(0.999632 -4.11921e-06 0)
(0.99964 -3.94373e-06 0)
(0.999647 -3.78046e-06 0)
(0.999655 -3.6287e-06 0)
(0.999662 -3.48779e-06 0)
(0.999669 -3.35708e-06 0)
(0.999675 -3.23594e-06 0)
(0.999682 -3.12376e-06 0)
(0.999688 -3.01998e-06 0)
(0.999694 -2.92401e-06 0)
(0.9997 -2.83533e-06 0)
(0.999705 -2.75342e-06 0)
(0.999711 -2.67778e-06 0)
(0.999716 -2.60795e-06 0)
(0.999721 -2.54347e-06 0)
(0.999726 -2.48391e-06 0)
(0.999731 -2.42886e-06 0)
(0.999736 -2.37794e-06 0)
(0.99974 -2.33077e-06 0)
(0.999745 -2.28701e-06 0)
(0.99975 -2.24632e-06 0)
(0.999754 -2.20838e-06 0)
(0.999758 -2.1729e-06 0)
(0.999763 -2.13959e-06 0)
(0.999767 -2.10819e-06 0)
(0.999771 -2.07843e-06 0)
(0.999775 -2.05007e-06 0)
(0.999779 -2.02289e-06 0)
(0.999783 -1.99665e-06 0)
(0.999787 -1.97116e-06 0)
(0.999791 -1.94621e-06 0)
(0.999795 -1.92161e-06 0)
(0.999799 -1.89719e-06 0)
(0.999803 -1.87278e-06 0)
(0.999806 -1.84822e-06 0)
(0.99981 -1.82336e-06 0)
(0.999814 -1.79806e-06 0)
(0.999817 -1.7722e-06 0)
(0.999821 -1.74566e-06 0)
(0.999824 -1.71835e-06 0)
(0.999828 -1.69016e-06 0)
(0.999831 -1.66104e-06 0)
(0.999834 -1.63092e-06 0)
(0.999838 -1.59976e-06 0)
(0.999841 -1.56754e-06 0)
(0.999844 -1.53426e-06 0)
(0.999847 -1.49994e-06 0)
(0.99985 -1.46461e-06 0)
(0.999853 -1.42834e-06 0)
(0.999855 -1.39121e-06 0)
(0.999858 -1.35332e-06 0)
(0.999861 -1.3148e-06 0)
(0.999863 -1.27579e-06 0)
(0.999866 -1.23645e-06 0)
(0.999868 -1.19694e-06 0)
(0.999871 -1.15746e-06 0)
(0.999873 -1.11818e-06 0)
(0.999875 -1.07928e-06 0)
(0.999877 -1.04095e-06 0)
(0.999879 -1.00335e-06 0)
(0.999881 -9.66619e-07 0)
(0.999883 -9.309e-07 0)
(0.999885 -8.96303e-07 0)
(0.999887 -8.62918e-07 0)
(0.999889 -8.30818e-07 0)
(0.99989 -8.00058e-07 0)
(0.999892 -7.70685e-07 0)
(0.999893 -7.42735e-07 0)
(0.999895 -7.16251e-07 0)
(0.999896 -6.91276e-07 0)
(0.999898 -6.67868e-07 0)
(0.999899 -6.46097e-07 0)
(0.9999 -6.26046e-07 0)
(0.999901 -6.07802e-07 0)
(0.999903 -5.91456e-07 0)
(0.999904 -5.77081e-07 0)
(0.999905 -5.64717e-07 0)
(0.999906 -5.54357e-07 0)
(0.999907 -5.45926e-07 0)
(0.999908 -5.39267e-07 0)
(0.999909 -5.34133e-07 0)
(0.99991 -5.30188e-07 0)
(0.999911 -5.2702e-07 0)
(0.999912 -5.24163e-07 0)
(0.999913 -5.21133e-07 0)
(0.999914 -5.17467e-07 0)
(0.999915 -5.12774e-07 0)
(0.999917 -5.06774e-07 0)
(0.999918 -4.99335e-07 0)
(0.999919 -4.90496e-07 0)
(0.999919 -4.80473e-07 0)
(0.99992 -4.69646e-07 0)
(0.999921 -4.58524e-07 0)
(0.999922 -4.47701e-07 0)
(0.999923 -4.37802e-07 0)
(0.999924 -4.2942e-07 0)
(0.999925 -4.23068e-07 0)
(0.999926 -4.19131e-07 0)
(0.999927 -4.17842e-07 0)
(0.999927 -4.19265e-07 0)
(0.999928 -4.23301e-07 0)
(0.999929 -4.29708e-07 0)
(0.99993 -4.3812e-07 0)
(0.999931 -4.48091e-07 0)
(0.999932 -4.5912e-07 0)
(0.999933 -4.70694e-07 0)
(0.999934 -4.82313e-07 0)
(0.999935 -4.93516e-07 0)
(0.999936 -5.03899e-07 0)
(0.999937 -5.13126e-07 0)
(0.999938 -5.20936e-07 0)
(0.999939 -5.27142e-07 0)
(0.99994 -5.31628e-07 0)
(0.999941 -5.34342e-07 0)
(0.999942 -5.35288e-07 0)
(0.999943 -5.34516e-07 0)
(0.999944 -5.32114e-07 0)
(0.999945 -5.28196e-07 0)
(0.999946 -5.22898e-07 0)
(0.999947 -5.16365e-07 0)
(0.999948 -5.0875e-07 0)
(0.999949 -5.00203e-07 0)
(0.99995 -4.90874e-07 0)
(0.999951 -4.80904e-07 0)
(0.999952 -4.70425e-07 0)
(0.999953 -4.5956e-07 0)
(0.999954 -4.4842e-07 0)
(0.999955 -4.37103e-07 0)
(0.999956 -4.25698e-07 0)
(0.999957 -4.1428e-07 0)
(0.999957 -4.02917e-07 0)
(0.999958 -3.91665e-07 0)
(0.999959 -3.8057e-07 0)
(0.99996 -3.69672e-07 0)
(0.99996 -3.59003e-07 0)
(0.999961 -3.48587e-07 0)
(0.999962 -3.38445e-07 0)
(0.999962 -3.28589e-07 0)
(0.999963 -3.19031e-07 0)
(0.999964 -3.09777e-07 0)
(0.999964 -3.00829e-07 0)
(0.999965 -2.92188e-07 0)
(0.999966 -2.83852e-07 0)
(0.999966 -2.75818e-07 0)
(0.999967 -2.6808e-07 0)
(0.999967 -2.60632e-07 0)
(0.999968 -2.53467e-07 0)
(0.999968 -2.46576e-07 0)
(0.999969 -2.3995e-07 0)
(0.999969 -2.33582e-07 0)
(0.99997 -2.27461e-07 0)
(0.99997 -2.21579e-07 0)
(0.999971 -2.15926e-07 0)
(0.999971 -2.10492e-07 0)
(0.999971 -2.05269e-07 0)
(0.999972 -2.00248e-07 0)
(0.999972 -1.95418e-07 0)
(0.999973 -1.90773e-07 0)
(0.999973 -1.86303e-07 0)
(0.999973 -1.82001e-07 0)
(0.999974 -1.77858e-07 0)
(0.999974 -1.73868e-07 0)
(0.999974 -1.70022e-07 0)
(0.999975 -1.66314e-07 0)
(0.999975 -1.62737e-07 0)
(0.999975 -1.59286e-07 0)
(0.999976 -1.55953e-07 0)
(0.999976 -1.52733e-07 0)
(0.999976 -1.49621e-07 0)
(0.999977 -1.46611e-07 0)
(0.999977 -1.43699e-07 0)
(0.999977 -1.40879e-07 0)
(0.999977 -1.38147e-07 0)
(0.999978 -1.35499e-07 0)
(0.999978 -1.32931e-07 0)
(0.999978 -1.30438e-07 0)
(0.999978 -1.28018e-07 0)
(0.999979 -1.25666e-07 0)
(0.999979 -1.2338e-07 0)
(0.999979 -1.21156e-07 0)
(0.999979 -1.18991e-07 0)
(0.99998 -1.16883e-07 0)
(0.99998 -1.14829e-07 0)
(0.99998 -1.12826e-07 0)
(0.99998 -1.10872e-07 0)
(0.999981 -1.08964e-07 0)
(0.999981 -1.07101e-07 0)
(0.999981 -1.05281e-07 0)
(0.999981 -1.03501e-07 0)
(0.999981 -1.0176e-07 0)
(0.999982 -1.00057e-07 0)
(0.999982 -9.83882e-08 0)
(0.999982 -9.67536e-08 0)
(0.999982 -9.51516e-08 0)
(0.999982 -9.35806e-08 0)
(0.999983 -9.20393e-08 0)
(0.999983 -9.05265e-08 0)
(0.999983 -8.90411e-08 0)
(0.999983 -8.75818e-08 0)
(0.999983 -8.61476e-08 0)
(0.999983 -8.47376e-08 0)
(0.999984 -8.33508e-08 0)
(0.999984 -8.19862e-08 0)
(0.999984 -8.0643e-08 0)
(0.999984 -7.93204e-08 0)
(0.999984 -7.80177e-08 0)
(0.999984 -7.6734e-08 0)
(0.999985 -7.54688e-08 0)
(0.999985 -7.42213e-08 0)
(0.999985 -7.2991e-08 0)
(0.999985 -7.1777e-08 0)
(0.999985 -7.0579e-08 0)
(0.999985 -6.93964e-08 0)
(0.999985 -6.82286e-08 0)
(0.999986 -6.70753e-08 0)
(0.999986 -6.59358e-08 0)
(0.999986 -6.48097e-08 0)
(0.999986 -6.36967e-08 0)
(0.999986 -6.25964e-08 0)
(0.999986 -6.15082e-08 0)
(0.999986 -6.04319e-08 0)
(0.999986 -5.93671e-08 0)
(0.999987 -5.83134e-08 0)
(0.999987 -5.72705e-08 0)
(0.999987 -5.62386e-08 0)
(0.999987 -5.52147e-08 0)
(0.999987 -5.42101e-08 0)
(0.999987 -5.31751e-08 0)
(0.999987 -5.23208e-08 0)
(0.999987 -5.07403e-08 0)
(-0.0257779 0.0459131 0)
(-0.0241375 -0.000408382 0)
(-0.000277983 -0.0386322 0)
(0.0536568 -0.043442 0)
(0.159163 -0.223628 0)
(0.397235 -0.131149 0)
(0.543841 0.0301857 0)
(0.739179 0.0738782 0)
(0.661544 0.0547045 0)
(0.396598 0.0426816 0)
(0.336447 0.019594 0)
(0.340153 0.0172443 0)
(0.320218 0.0357388 0)
(0.287031 0.0369947 0)
(0.251801 0.0187759 0)
(0.229547 0.00313134 0)
(0.21966 -0.00173091 0)
(0.216532 -0.00101948 0)
(0.21588 -0.000276657 0)
(0.21588 -0.00117356 0)
(0.216554 -0.00302598 0)
(0.218125 -0.00478511 0)
(0.220588 -0.00617161 0)
(0.223899 -0.00722551 0)
(0.228056 -0.0081846 0)
(0.233249 -0.00927433 0)
(0.239893 -0.0106967 0)
(0.248324 -0.0124398 0)
(0.258484 -0.0142629 0)
(0.269954 -0.015855 0)
(0.282174 -0.0170131 0)
(0.294665 -0.0177141 0)
(0.307144 -0.0180526 0)
(0.319503 -0.0181499 0)
(0.331719 -0.0181403 0)
(0.343843 -0.0181884 0)
(0.355959 -0.0183403 0)
(0.368114 -0.0185515 0)
(0.380307 -0.0187638 0)
(0.392539 -0.0189538 0)
(0.404838 -0.019142 0)
(0.41727 -0.0193659 0)
(0.429909 -0.0196382 0)
(0.442803 -0.0199234 0)
(0.455951 -0.0201456 0)
(0.469295 -0.0202182 0)
(0.482727 -0.0200722 0)
(0.496099 -0.0196674 0)
(0.509209 -0.0189769 0)
(0.521799 -0.0180469 0)
(0.533739 -0.0171655 0)
(0.545196 -0.0165839 0)
(0.556417 -0.0162287 0)
(0.567477 -0.0159538 0)
(0.578347 -0.0156973 0)
(0.588983 -0.0154514 0)
(0.599386 -0.0152698 0)
(0.609651 -0.0152338 0)
(0.619921 -0.0153304 0)
(0.630284 -0.0154741 0)
(0.640736 -0.0155917 0)
(0.651231 -0.0156419 0)
(0.66171 -0.0156203 0)
(0.672133 -0.015557 0)
(0.682497 -0.0154721 0)
(0.692795 -0.0153537 0)
(0.702999 -0.0151858 0)
(0.713069 -0.0149718 0)
(0.722979 -0.0147295 0)
(0.732719 -0.0144704 0)
(0.742282 -0.014194 0)
(0.751654 -0.0139007 0)
(0.760826 -0.0135963 0)
(0.769791 -0.0132849 0)
(0.778547 -0.0129669 0)
(0.787088 -0.0126438 0)
(0.795412 -0.0123175 0)
(0.803517 -0.0119892 0)
(0.811402 -0.0116593 0)
(0.819067 -0.0113287 0)
(0.82651 -0.0109978 0)
(0.833733 -0.0106672 0)
(0.840735 -0.0103371 0)
(0.847517 -0.0100081 0)
(0.854079 -0.00968066 0)
(0.860424 -0.00935538 0)
(0.866552 -0.00903286 0)
(0.872465 -0.00871374 0)
(0.878167 -0.00839865 0)
(0.88366 -0.00808821 0)
(0.888947 -0.007783 0)
(0.894032 -0.00748351 0)
(0.898919 -0.00719019 0)
(0.903612 -0.0069034 0)
(0.908117 -0.00662347 0)
(0.912437 -0.00635064 0)
(0.916577 -0.00608512 0)
(0.920543 -0.00582707 0)
(0.924339 -0.00557661 0)
(0.92797 -0.00533382 0)
(0.931442 -0.00509873 0)
(0.93476 -0.00487138 0)
(0.937929 -0.00465174 0)
(0.940954 -0.00443978 0)
(0.943841 -0.00423544 0)
(0.946593 -0.00403864 0)
(0.949217 -0.00384929 0)
(0.951718 -0.0036673 0)
(0.954099 -0.00349254 0)
(0.956367 -0.0033249 0)
(0.958525 -0.00316422 0)
(0.960578 -0.00301038 0)
(0.962531 -0.00286321 0)
(0.964388 -0.00272254 0)
(0.966154 -0.00258822 0)
(0.967832 -0.00246005 0)
(0.969427 -0.00233785 0)
(0.970943 -0.00222144 0)
(0.972383 -0.00211061 0)
(0.973751 -0.00200517 0)
(0.97505 -0.00190491 0)
(0.976285 -0.00180964 0)
(0.977458 -0.00171913 0)
(0.978572 -0.0016332 0)
(0.97963 -0.00155162 0)
(0.980636 -0.00147419 0)
(0.981591 -0.0014007 0)
(0.982499 -0.00133096 0)
(0.983362 -0.00126477 0)
(0.984182 -0.00120192 0)
(0.984961 -0.00114224 0)
(0.985701 -0.00108553 0)
(0.986405 -0.00103161 0)
(0.987074 -0.00098033 0)
(0.987709 -0.000931521 0)
(0.988313 -0.000885039 0)
(0.988887 -0.00084075 0)
(0.989431 -0.000798533 0)
(0.989949 -0.000758279 0)
(0.99044 -0.000719891 0)
(0.990907 -0.000683287 0)
(0.991349 -0.000648391 0)
(0.991769 -0.000615138 0)
(0.992168 -0.000583471 0)
(0.992545 -0.000553336 0)
(0.992904 -0.000524685 0)
(0.993243 -0.000497468 0)
(0.993565 -0.00047164 0)
(0.993871 -0.000447151 0)
(0.99416 -0.000423954 -9.74663e-42)
(0.994434 -0.000401998 -9.4722e-42)
(0.994694 -0.000381233 0)
(0.994941 -0.000361606 0)
(0.995175 -0.000343065 0)
(0.995397 -0.000325558 0)
(0.995608 -0.000309033 0)
(0.995808 -0.000293439 0)
(0.995998 -0.000278725 0)
(0.996179 -0.000264843 0)
(0.996351 -0.000251746 0)
(0.996514 -0.00023939 0)
(0.996669 -0.00022773 0)
(0.996817 -0.000216724 0)
(0.996957 -0.000206333 0)
(0.997091 -0.000196519 0)
(0.997218 -0.000187244 0)
(0.99734 -0.000178474 0)
(0.997456 -0.000170175 0)
(0.997566 -0.000162316 0)
(0.997672 -0.000154867 0)
(0.997772 -0.000147798 0)
(0.997868 -0.000141084 0)
(0.99796 -0.000134699 0)
(0.998048 -0.00012862 0)
(0.998131 -0.000122827 0)
(0.998211 -0.000117298 0)
(0.998287 -0.000112017 0)
(0.99836 -0.000106967 0)
(0.99843 -0.000102133 0)
(0.998496 -9.75031e-05 0)
(0.998559 -9.30648e-05 0)
(0.99862 -8.88079e-05 0)
(0.998678 -8.47233e-05 0)
(0.998733 -8.08026e-05 0)
(0.998785 -7.70388e-05 0)
(0.998835 -7.34251e-05 0)
(0.998883 -6.99559e-05 0)
(0.998928 -6.66259e-05 0)
(0.998972 -6.34302e-05 0)
(0.999013 -6.03647e-05 0)
(0.999052 -5.74251e-05 0)
(0.999089 -5.46077e-05 0)
(0.999125 -5.1909e-05 0)
(0.999158 -4.93256e-05 0)
(0.99919 -4.68543e-05 0)
(0.999221 -4.44919e-05 0)
(0.999249 -4.22352e-05 0)
(0.999277 -4.00815e-05 0)
(0.999303 -3.80275e-05 0)
(0.999327 -3.60704e-05 0)
(0.999351 -3.42073e-05 0)
(0.999373 -3.24353e-05 0)
(0.999394 -3.07514e-05 0)
(0.999414 -2.91527e-05 0)
(0.999433 -2.76365e-05 0)
(0.999451 -2.61998e-05 0)
(0.999467 -2.48398e-05 0)
(0.999484 -2.35537e-05 0)
(0.999499 -2.23387e-05 0)
(0.999513 -2.11921e-05 0)
(0.999527 -2.01112e-05 0)
(0.99954 -1.90932e-05 0)
(0.999552 -1.81356e-05 0)
(0.999564 -1.72356e-05 0)
(0.999575 -1.63909e-05 0)
(0.999586 -1.55989e-05 0)
(0.999596 -1.48571e-05 0)
(0.999606 -1.41631e-05 0)
(0.999615 -1.35145e-05 0)
(0.999624 -1.29092e-05 0)
(0.999632 -1.23447e-05 0)
(0.99964 -1.1819e-05 0)
(0.999648 -1.13298e-05 0)
(0.999655 -1.08752e-05 0)
(0.999662 -1.04532e-05 0)
(0.999669 -1.00616e-05 0)
(0.999676 -9.69883e-06 0)
(0.999682 -9.3629e-06 0)
(0.999688 -9.0521e-06 0)
(0.999694 -8.76474e-06 0)
(0.9997 -8.49922e-06 0)
(0.999705 -8.25398e-06 0)
(0.999711 -8.02754e-06 0)
(0.999716 -7.81849e-06 0)
(0.999721 -7.62547e-06 0)
(0.999726 -7.4472e-06 0)
(0.999731 -7.28245e-06 0)
(0.999736 -7.13005e-06 0)
(0.99974 -6.9889e-06 0)
(0.999745 -6.85794e-06 0)
(0.99975 -6.73618e-06 0)
(0.999754 -6.62268e-06 0)
(0.999758 -6.51652e-06 0)
(0.999763 -6.41687e-06 0)
(0.999767 -6.32292e-06 0)
(0.999771 -6.23388e-06 0)
(0.999775 -6.14904e-06 0)
(0.999779 -6.0677e-06 0)
(0.999783 -5.98921e-06 0)
(0.999787 -5.91293e-06 0)
(0.999791 -5.83827e-06 0)
(0.999795 -5.76466e-06 0)
(0.999799 -5.69157e-06 0)
(0.999803 -5.6185e-06 0)
(0.999806 -5.54496e-06 0)
(0.99981 -5.47051e-06 0)
(0.999814 -5.39475e-06 0)
(0.999817 -5.31728e-06 0)
(0.999821 -5.23776e-06 0)
(0.999824 -5.1559e-06 0)
(0.999828 -5.07142e-06 0)
(0.999831 -4.9841e-06 0)
(0.999834 -4.89378e-06 0)
(0.999838 -4.80033e-06 0)
(0.999841 -4.70368e-06 0)
(0.999844 -4.60382e-06 0)
(0.999847 -4.50082e-06 0)
(0.99985 -4.39478e-06 0)
(0.999853 -4.28588e-06 0)
(0.999856 -4.17439e-06 0)
(0.999858 -4.0606e-06 0)
(0.999861 -3.94489e-06 0)
(0.999864 -3.8277e-06 0)
(0.999866 -3.7095e-06 0)
(0.999869 -3.59081e-06 0)
(0.999871 -3.47218e-06 0)
(0.999873 -3.35415e-06 0)
(0.999875 -3.23729e-06 0)
(0.999877 -3.12213e-06 0)
(0.99988 -3.00917e-06 0)
(0.999881 -2.89886e-06 0)
(0.999883 -2.7916e-06 0)
(0.999885 -2.68772e-06 0)
(0.999887 -2.58749e-06 0)
(0.999889 -2.49112e-06 0)
(0.99989 -2.39879e-06 0)
(0.999892 -2.31061e-06 0)
(0.999893 -2.22671e-06 0)
(0.999895 -2.14719e-06 0)
(0.999896 -2.0722e-06 0)
(0.999898 -2.00192e-06 0)
(0.999899 -1.93654e-06 0)
(0.9999 -1.87634e-06 0)
(0.999901 -1.82157e-06 0)
(0.999903 -1.77252e-06 0)
(0.999904 -1.7294e-06 0)
(0.999905 -1.69235e-06 0)
(0.999906 -1.66134e-06 0)
(0.999907 -1.63616e-06 0)
(0.999908 -1.61632e-06 0)
(0.999909 -1.60108e-06 0)
(0.99991 -1.58944e-06 0)
(0.999911 -1.58014e-06 0)
(0.999912 -1.57177e-06 0)
(0.999913 -1.56286e-06 0)
(0.999914 -1.55202e-06 0)
(0.999915 -1.53806e-06 0)
(0.999917 -1.52014e-06 0)
(0.999918 -1.49787e-06 0)
(0.999919 -1.4714e-06 0)
(0.999919 -1.44139e-06 0)
(0.99992 -1.40901e-06 0)
(0.999921 -1.37579e-06 0)
(0.999922 -1.34355e-06 0)
(0.999923 -1.31415e-06 0)
(0.999924 -1.28936e-06 0)
(0.999925 -1.2707e-06 0)
(0.999926 -1.2593e-06 0)
(0.999927 -1.25584e-06 0)
(0.999927 -1.26047e-06 0)
(0.999928 -1.27289e-06 0)
(0.999929 -1.29235e-06 0)
(0.99993 -1.31776e-06 0)
(0.999931 -1.34777e-06 0)
(0.999932 -1.38088e-06 0)
(0.999933 -1.41557e-06 0)
(0.999934 -1.45035e-06 0)
(0.999935 -1.48383e-06 0)
(0.999936 -1.51482e-06 0)
(0.999937 -1.54231e-06 0)
(0.999938 -1.56554e-06 0)
(0.999939 -1.58394e-06 0)
(0.99994 -1.59717e-06 0)
(0.999941 -1.60509e-06 0)
(0.999942 -1.6077e-06 0)
(0.999943 -1.60516e-06 0)
(0.999944 -1.59774e-06 0)
(0.999945 -1.58578e-06 0)
(0.999946 -1.56969e-06 0)
(0.999947 -1.5499e-06 0)
(0.999948 -1.52688e-06 0)
(0.999949 -1.50109e-06 0)
(0.99995 -1.47295e-06 0)
(0.999951 -1.44291e-06 0)
(0.999952 -1.41136e-06 0)
(0.999953 -1.37866e-06 0)
(0.999954 -1.34514e-06 0)
(0.999955 -1.31111e-06 0)
(0.999956 -1.27683e-06 0)
(0.999957 -1.24252e-06 0)
(0.999957 -1.20838e-06 0)
(0.999958 -1.17459e-06 0)
(0.999959 -1.14127e-06 0)
(0.99996 -1.10855e-06 0)
(0.99996 -1.07653e-06 0)
(0.999961 -1.04527e-06 0)
(0.999962 -1.01483e-06 0)
(0.999963 -9.8526e-07 0)
(0.999963 -9.56585e-07 0)
(0.999964 -9.28824e-07 0)
(0.999964 -9.01985e-07 0)
(0.999965 -8.7607e-07 0)
(0.999966 -8.51071e-07 0)
(0.999966 -8.26978e-07 0)
(0.999967 -8.03775e-07 0)
(0.999967 -7.81442e-07 0)
(0.999968 -7.59958e-07 0)
(0.999968 -7.39297e-07 0)
(0.999969 -7.19434e-07 0)
(0.999969 -7.00342e-07 0)
(0.99997 -6.81993e-07 0)
(0.99997 -6.64359e-07 0)
(0.999971 -6.47412e-07 0)
(0.999971 -6.31123e-07 0)
(0.999971 -6.15466e-07 0)
(0.999972 -6.00412e-07 0)
(0.999972 -5.85936e-07 0)
(0.999973 -5.72012e-07 0)
(0.999973 -5.58613e-07 0)
(0.999973 -5.45716e-07 0)
(0.999974 -5.33298e-07 0)
(0.999974 -5.21336e-07 0)
(0.999974 -5.09808e-07 0)
(0.999975 -4.98693e-07 0)
(0.999975 -4.87972e-07 0)
(0.999975 -4.77625e-07 0)
(0.999976 -4.67635e-07 0)
(0.999976 -4.57983e-07 0)
(0.999976 -4.48654e-07 0)
(0.999977 -4.39631e-07 0)
(0.999977 -4.30901e-07 0)
(0.999977 -4.22447e-07 0)
(0.999977 -4.14258e-07 0)
(0.999978 -4.06319e-07 0)
(0.999978 -3.98619e-07 0)
(0.999978 -3.91147e-07 0)
(0.999978 -3.83891e-07 0)
(0.999979 -3.76841e-07 0)
(0.999979 -3.69986e-07 0)
(0.999979 -3.63319e-07 0)
(0.999979 -3.56829e-07 0)
(0.99998 -3.50508e-07 0)
(0.99998 -3.44349e-07 0)
(0.99998 -3.38344e-07 0)
(0.99998 -3.32485e-07 0)
(0.999981 -3.26766e-07 0)
(0.999981 -3.21181e-07 0)
(0.999981 -3.15723e-07 0)
(0.999981 -3.10387e-07 0)
(0.999981 -3.05167e-07 0)
(0.999982 -3.00059e-07 0)
(0.999982 -2.95056e-07 0)
(0.999982 -2.90155e-07 0)
(0.999982 -2.85351e-07 0)
(0.999982 -2.80641e-07 0)
(0.999983 -2.76019e-07 0)
(0.999983 -2.71483e-07 0)
(0.999983 -2.67029e-07 0)
(0.999983 -2.62653e-07 0)
(0.999983 -2.58353e-07 0)
(0.999983 -2.54125e-07 0)
(0.999984 -2.49966e-07 0)
(0.999984 -2.45874e-07 0)
(0.999984 -2.41846e-07 0)
(0.999984 -2.3788e-07 0)
(0.999984 -2.33974e-07 0)
(0.999984 -2.30124e-07 0)
(0.999985 -2.2633e-07 0)
(0.999985 -2.22589e-07 0)
(0.999985 -2.189e-07 0)
(0.999985 -2.15259e-07 0)
(0.999985 -2.11667e-07 0)
(0.999985 -2.0812e-07 0)
(0.999985 -2.04618e-07 0)
(0.999986 -2.01159e-07 0)
(0.999986 -1.97742e-07 0)
(0.999986 -1.94365e-07 0)
(0.999986 -1.91027e-07 0)
(0.999986 -1.87727e-07 0)
(0.999986 -1.84464e-07 0)
(0.999986 -1.81236e-07 0)
(0.999986 -1.78043e-07 0)
(0.999987 -1.74883e-07 0)
(0.999987 -1.71755e-07 0)
(0.999987 -1.6866e-07 0)
(0.999987 -1.6559e-07 0)
(0.999987 -1.62577e-07 0)
(0.999987 -1.59473e-07 0)
(0.999987 -1.56911e-07 0)
(0.999987 -1.52172e-07 0)
(-0.0185758 0.0618876 0)
(-0.00503638 -0.0172909 0)
(0.0298418 -0.0958372 0)
(0.172392 -0.117945 0)
(-0.153911 -0.345916 0)
(-0.0275615 -0.288449 0)
(0.0654384 -0.145876 0)
(0.143539 0.00723817 0)
(0.179571 0.034307 0)
(0.251687 -0.00188901 0)
(0.2833 0.00207661 0)
(0.26641 0.0351276 0)
(0.240005 0.067172 0)
(0.220755 0.0670038 0)
(0.210033 0.041454 0)
(0.204126 0.0158753 0)
(0.200869 0.00264065 0)
(0.201214 -0.000988483 0)
(0.203715 -0.00100273 0)
(0.2069 -0.00102299 0)
(0.211094 -0.00210259 0)
(0.217144 -0.00364159 0)
(0.225433 -0.00591767 0)
(0.236128 -0.00875935 0)
(0.249236 -0.0122771 0)
(0.264878 -0.0162532 0)
(0.282689 -0.0205565 0)
(0.301704 -0.0245826 0)
(0.320675 -0.0277028 0)
(0.338542 -0.0296295 0)
(0.354705 -0.030508 0)
(0.3691 -0.0307885 0)
(0.381992 -0.0308343 0)
(0.393722 -0.0307465 0)
(0.404503 -0.0305493 0)
(0.414484 -0.0304936 0)
(0.423821 -0.0305576 0)
(0.432577 -0.0306724 0)
(0.440785 -0.0308282 0)
(0.448541 -0.0310567 0)
(0.45602 -0.0313854 0)
(0.463416 -0.0318067 0)
(0.47088 -0.0322688 0)
(0.478475 -0.0326925 0)
(0.486198 -0.0329959 0)
(0.494045 -0.0331047 0)
(0.502076 -0.0329591 0)
(0.510419 -0.0325081 0)
(0.519135 -0.0316338 0)
(0.527967 -0.0302219 0)
(0.536681 -0.0288504 0)
(0.545613 -0.0280817 0)
(0.555172 -0.0276856 0)
(0.565301 -0.0273274 0)
(0.575741 -0.0268824 0)
(0.58624 -0.026332 0)
(0.596619 -0.0258342 0)
(0.606936 -0.0256599 0)
(0.617405 -0.0257831 0)
(0.628115 -0.0259954 0)
(0.639 -0.0261532 0)
(0.649943 -0.0261835 0)
(0.660816 -0.0260848 0)
(0.671552 -0.0259401 0)
(0.682172 -0.0257961 0)
(0.692699 -0.0256093 0)
(0.703094 -0.0253314 0)
(0.713298 -0.0249658 0)
(0.723286 -0.0245556 0)
(0.733072 -0.0241256 0)
(0.742665 -0.0236668 0)
(0.752055 -0.0231765 0)
(0.761231 -0.0226686 0)
(0.770198 -0.0221503 0)
(0.778955 -0.0216198 0)
(0.787497 -0.0210799 0)
(0.795821 -0.0205353 0)
(0.803927 -0.0199874 0)
(0.811814 -0.0194367 0)
(0.81948 -0.0188849 0)
(0.826925 -0.0183328 0)
(0.834148 -0.017781 0)
(0.84115 -0.0172302 0)
(0.847932 -0.0166812 0)
(0.854493 -0.0161347 0)
(0.860835 -0.0155918 0)
(0.86696 -0.0150535 0)
(0.87287 -0.0145209 0)
(0.878566 -0.013995 0)
(0.884053 -0.0134769 0)
(0.889334 -0.0129675 0)
(0.894412 -0.0124678 0)
(0.899291 -0.0119785 0)
(0.903977 -0.0115001 0)
(0.908472 -0.0110331 0)
(0.912783 -0.0105781 0)
(0.916914 -0.0101353 0)
(0.920871 -0.00970502 0)
(0.924657 -0.00928742 0)
(0.928279 -0.00888263 0)
(0.931741 -0.00849074 0)
(0.935049 -0.00811176 0)
(0.938209 -0.00774566 0)
(0.941224 -0.00739239 0)
(0.944101 -0.00705183 0)
(0.946844 -0.00672387 0)
(0.949459 -0.00640835 0)
(0.95195 -0.00610509 0)
(0.954322 -0.00581391 0)
(0.95658 -0.0055346 0)
(0.958729 -0.00526692 0)
(0.960774 -0.00501063 0)
(0.962719 -0.00476548 0)
(0.964568 -0.00453118 0)
(0.966325 -0.00430746 0)
(0.967996 -0.00409401 0)
(0.969583 -0.00389052 0)
(0.971091 -0.00369667 0)
(0.972524 -0.00351215 0)
(0.973886 -0.0033366 0)
(0.975179 -0.00316971 0)
(0.976407 -0.00301111 0)
(0.977574 -0.00286048 0)
(0.978682 -0.00271745 0)
(0.979735 -0.00258169 0)
(0.980735 -0.00245284 0)
(0.981686 -0.00233058 0)
(0.982589 -0.00221455 0)
(0.983447 -0.00210442 0)
(0.984262 -0.00199987 0)
(0.985037 -0.00190058 0)
(0.985774 -0.00180625 0)
(0.986474 -0.00171656 0)
(0.98714 -0.00163125 0)
(0.987772 -0.00155006 0)
(0.988373 -0.00147273 0)
(0.988944 -0.00139904 0)
(0.989486 -0.00132879 0)
(0.990001 -0.0012618 0)
(0.99049 -0.00119791 0)
(0.990954 -0.00113698 0)
(0.991394 -0.00107889 0)
(0.991812 -0.00102353 0)
(0.992209 -0.000970803 0)
(0.992584 -0.00092063 0)
(0.992941 -0.000872927 0)
(0.993278 -0.000827614 0)
(0.993599 -0.000784616 0)
(0.993902 -0.000743851 0)
(0.99419 -0.000705241 0)
(0.994463 -0.0006687 0)
(0.994721 -0.000634145 0)
(0.994967 -0.000601488 0)
(0.995199 -0.000570642 0)
(0.99542 -0.000541519 0)
(0.99563 -0.000514031 0)
(0.995828 -0.000488094 0)
(0.996017 -0.000463623 0)
(0.996197 -0.000440538 0)
(0.996367 -0.00041876 0)
(0.99653 -0.000398213 0)
(0.996684 -0.000378826 0)
(0.996831 -0.000360527 0)
(0.996971 -0.000343252 0)
(0.997104 -0.000326935 0)
(0.99723 -0.000311516 0)
(0.997351 -0.000296936 0)
(0.997467 -0.00028314 0)
(0.997577 -0.000270075 0)
(0.997681 -0.00025769 0)
(0.997782 -0.000245938 0)
(0.997877 -0.000234775 0)
(0.997968 -0.000224159 0)
(0.998056 -0.000214052 0)
(0.998139 -0.000204417 0)
(0.998218 -0.000195223 0)
(0.998294 -0.000186439 0)
(0.998367 -0.000178038 0)
(0.998436 -0.000169996 0)
(0.998502 -0.000162293 0)
(0.998565 -0.000154907 0)
(0.998626 -0.000147822 0)
(0.998683 -0.000141024 0)
(0.998738 -0.000134497 0)
(0.99879 -0.000128231 0)
(0.99884 -0.000122215 0)
(0.998887 -0.000116439 0)
(0.998933 -0.000110894 0)
(0.998976 -0.000105573 0)
(0.999017 -0.000100468 0)
(0.999056 -9.5573e-05 0)
(0.999093 -9.08813e-05 0)
(0.999128 -8.63873e-05 0)
(0.999162 -8.20852e-05 0)
(0.999193 -7.79698e-05 0)
(0.999224 -7.40358e-05 0)
(0.999252 -7.02781e-05 0)
(0.99928 -6.66917e-05 0)
(0.999305 -6.32717e-05 0)
(0.99933 -6.00132e-05 0)
(0.999353 -5.69112e-05 0)
(0.999375 -5.3961e-05 0)
(0.999396 -5.11577e-05 0)
(0.999416 -4.84965e-05 0)
(0.999435 -4.59726e-05 0)
(0.999452 -4.35812e-05 0)
(0.999469 -4.13177e-05 0)
(0.999485 -3.91773e-05 0)
(0.9995 -3.71554e-05 0)
(0.999515 -3.52473e-05 0)
(0.999528 -3.34487e-05 0)
(0.999541 -3.1755e-05 0)
(0.999554 -3.01618e-05 0)
(0.999565 -2.86648e-05 0)
(0.999576 -2.72597e-05 0)
(0.999587 -2.59424e-05 0)
(0.999597 -2.47087e-05 0)
(0.999607 -2.35546e-05 0)
(0.999616 -2.24763e-05 0)
(0.999624 -2.14698e-05 0)
(0.999633 -2.05315e-05 0)
(0.999641 -1.96576e-05 0)
(0.999648 -1.88447e-05 0)
(0.999656 -1.80892e-05 0)
(0.999663 -1.73879e-05 0)
(0.99967 -1.67375e-05 0)
(0.999676 -1.61348e-05 0)
(0.999682 -1.55769e-05 0)
(0.999688 -1.50607e-05 0)
(0.999694 -1.45836e-05 0)
(0.9997 -1.41428e-05 0)
(0.999706 -1.37357e-05 0)
(0.999711 -1.33599e-05 0)
(0.999716 -1.3013e-05 0)
(0.999721 -1.26927e-05 0)
(0.999726 -1.23969e-05 0)
(0.999731 -1.21237e-05 0)
(0.999736 -1.18709e-05 0)
(0.999741 -1.16368e-05 0)
(0.999745 -1.14197e-05 0)
(0.99975 -1.12178e-05 0)
(0.999754 -1.10296e-05 0)
(0.999759 -1.08536e-05 0)
(0.999763 -1.06884e-05 0)
(0.999767 -1.05327e-05 0)
(0.999771 -1.03851e-05 0)
(0.999775 -1.02445e-05 0)
(0.999779 -1.01097e-05 0)
(0.999783 -9.97954e-06 0)
(0.999787 -9.85306e-06 0)