/*--------------------------------*- C++ -*----------------------------------*\
| =========                 |                                                 |
| \\      /  F ield         | OpenFOAM: The Open Source CFD Toolbox           |
|  \\    /   O peration     | Version:  v2006                                 |
|   \\  /    A nd           | Website:  www.openfoam.com                      |
|    \\/     M anipulation  |                                                 |
\*---------------------------------------------------------------------------*/
FoamFile
{
    version     2.0;
    format      ascii;
    class       volScalarField;
    location    "9.25";
    object      r;
}
// * * * * * * * * * * * * * * * * * * * * * * * * * * * * * * * * * * * * * //

dimensions      [1 2 0 0 0 0 0];


internalField   nonuniform List<scalar> 
350
(
-1.24416e-180
-2.07656e-177
-3.41114e-174
-5.52002e-171
-8.79598e-168
-1.37955e-164
-2.12859e-161
-3.22953e-158
-4.81561e-155
-7.05329e-152
-1.01417e-148
-1.43068e-145
-1.97884e-142
-2.68177e-139
-3.55843e-136
-4.61946e-133
-5.86229e-130
-7.26625e-127
-8.7886e-124
-1.03625e-120
-1.18984e-117
-1.32892e-114
-1.44199e-111
-1.51812e-108
-1.5485e-105
-1.52793e-102
-1.45597e-99
-1.33739e-96
-1.1818e-93
-1.00239e-90
-8.14098e-88
-6.31343e-85
-4.66095e-82
-3.26439e-79
-2.16047e-76
-1.34513e-73
-7.83793e-71
-4.24845e-68
-2.12687e-65
-9.74959e-63
-4.04923e-60
-1.50357e-57
-4.90607e-55
-1.37416e-52
-3.19428e-50
-5.84075e-48
-7.59519e-46
-5.31747e-44
1.10674e-42
4.63317e-40
1.28804e-38
1.83669e-37
1.72302e-36
1.15827e-35
5.58059e-35
1.60575e-34
-1.87048e-34
-6.31127e-33
-5.26927e-32
-3.16823e-31
-1.57366e-30
-6.75302e-30
-2.54442e-29
-8.43077e-29
-2.42863e-28
-5.87807e-28
-1.07733e-27
-8.07881e-28
4.45192e-27
2.91208e-26
1.14364e-25
3.63518e-25
1.00987e-24
2.53341e-24
5.84312e-24
1.25405e-23
2.52871e-23
4.83304e-23
8.83018e-23
1.55443e-22
2.65305e-22
4.4053e-22
7.11491e-22
1.11386e-21
1.68174e-21
2.43951e-21
3.40727e-21
4.65792e-21
6.50141e-21
9.92023e-21
1.74291e-20
3.45627e-20
7.21955e-20
1.49861e-19
3.00152e-19
5.74045e-19
1.04675e-18
1.82349e-18
3.04427e-18
4.88758e-18
7.57294e-18
1.13467e-17
1.64442e-17
2.29691e-17
3.14257e-17
4.26975e-17
5.68766e-17
7.28107e-17
8.843e-17
1.05127e-16
1.27821e-16
1.51595e-16
1.79809e-16
1.56123e-16
1.10251e-16
6.45348e-17
-5.12272e-16
3.9678e-16
-4.28276e-15
-4.51387e-15
-5.90639e-15
-1.66291e-14
-1.80831e-16
-2.56336e-14
-3.73887e-14
2.90128e-14
-1.2269e-13
1.45673e-13
-3.15566e-14
1.73029e-13
5.63338e-14
1.84084e-14
5.58854e-13
8.22442e-13
-1.89301e-12
2.80922e-12
-4.79427e-12
6.46032e-12
-3.90364e-12
1.28436e-11
5.44853e-12
3.53597e-11
2.0277e-11
1.98267e-11
9.51679e-12
-6.98016e-11
-2.32011e-10
-6.0723e-10
-8.72437e-10
-1.56555e-09
-3.15461e-09
-3.27423e-09
-8.88006e-09
-8.8435e-09
-1.56661e-08
-2.37083e-08
-2.68587e-08
-5.40995e-08
-4.06649e-08
-7.74509e-08
-5.09439e-08
-4.47168e-08
-1.72945e-07
-5.2474e-08
-4.81314e-07
-6.33879e-07
-1.18608e-06
-1.21459e-06
-1.77359e-07
-1.70364e-06
-5.09537e-06
-1.51951e-05
-9.25037e-06
2.98309e-05
0.000158669
0.000488197
0.00121966
0.00269318
0.00544984
0.0103051
0.0184297
0.0314289
0.0514117
0.0810346
0.123509
0.182557
0.26231
0.367148
0.501469
0.669426
0.874623
1.11981
1.40662
1.73531
2.10462
2.51174
2.95233
3.42067
3.90994
4.41248
4.92024
5.42509
5.91924
6.39557
6.84788
7.27112
7.66152
8.01657
8.33504
8.61683
8.86285
9.07483
9.25513
9.40655
9.5321
9.63493
9.71811
9.78458
9.83704
9.87792
9.90931
9.93302
9.95064
9.96249
9.9724
9.98059
9.97915
9.97403
9.96337
9.94512
9.91677
9.87524
9.81688
9.73764
9.63319
9.49916
9.3314
9.12633
8.88118
8.59436
8.26559
7.89613
7.48882
7.048
6.57941
6.08988
5.58707
5.07908
4.57403
4.07973
3.6033
3.15094
2.7277
2.33735
1.98238
1.66402
1.38237
1.13648
0.924638
0.744466
0.593173
0.467717
0.364968
0.28184
0.215393
0.162912
0.121947
0.0903431
0.0662415
0.048071
0.034527
0.0245447
0.0172695
0.012026
0.00828856
0.0056538
0.00381672
0.00254982
0.00168567
0.00110266
0.000713645
0.000456915
0.000289362
0.000181225
0.000112221
6.86896e-05
4.15457e-05
2.48201e-05
1.46388e-05
8.51848e-06
4.88687e-06
2.76105e-06
1.53434e-06
8.37244e-07
4.47487e-07
2.33636e-07
1.18159e-07
5.79633e-08
2.61282e-08
1.20659e-08
3.27128e-09
1.18885e-09
1.87072e-12
7.58538e-13
5.7958e-14
4.04328e-14
2.0133e-14
3.52347e-15
-7.40491e-15
-1.32672e-14
-1.59545e-14
-1.69821e-14
-1.71534e-14
-1.67516e-14
-1.59121e-14
-1.47955e-14
-1.34954e-14
-1.20971e-14
-1.06213e-14
-9.09678e-15
-7.53464e-15
-5.95069e-15
-4.36492e-15
-2.80266e-15
-1.29259e-15
1.35573e-16
1.45469e-15
2.64252e-15
3.68354e-15
4.56927e-15
5.29779e-15
5.87255e-15
6.30088e-15
6.59265e-15
6.75912e-15
6.81149e-15
6.75774e-15
6.59713e-15
6.33348e-15
5.97084e-15
5.51708e-15
4.98259e-15
4.37888e-15
3.72023e-15
3.02164e-15
2.2992e-15
1.5693e-15
8.44943e-16
1.57889e-16
-5.82101e-16
)
;

boundaryField
{
    right
    {
        type            zeroGradient;
    }
    left
    {
        type            inletOutlet;
        inletValue      uniform 0;
        value           uniform 0;
    }
    top
    {
        type            zeroGradient;
    }
    bottom
    {
        type            zeroGradient;
    }
    empty
    {
        type            empty;
    }
}


// ************************************************************************* //
