/*--------------------------------*- C++ -*----------------------------------*\
| =========                 |                                                 |
| \\      /  F ield         | OpenFOAM: The Open Source CFD Toolbox           |
|  \\    /   O peration     | Version:  v2006                                 |
|   \\  /    A nd           | Website:  www.openfoam.com                      |
|    \\/     M anipulation  |                                                 |
\*---------------------------------------------------------------------------*/
FoamFile
{
    version     2.0;
    format      ascii;
    class       volScalarField;
    location    "19.5";
    object      p_rgh;
}
// * * * * * * * * * * * * * * * * * * * * * * * * * * * * * * * * * * * * * //

dimensions      [1 -1 -2 0 0 0 0];


internalField   nonuniform List<scalar> 
50000
(
2579.54
2579.48
2579.32
2579.07
2578.72
2578.27
2577.74
2577.12
2576.41
2575.6
2574.7
2573.71
2572.62
2571.43
2570.16
2568.8
2567.37
2565.86
2564.29
2562.66
2560.97
2559.25
2557.48
2555.68
2553.86
2552.02
2550.16
2548.3
2546.43
2544.56
2542.71
2540.87
2539.04
2537.24
2535.47
2533.73
2532.04
2530.38
2528.78
2527.24
2525.75
2524.33
2522.98
2521.71
2520.52
2519.41
2518.4
2517.48
2516.66
2515.94
2515.33
2514.84
2514.46
2514.21
2514.08
2514.09
2514.23
2514.51
2514.93
2515.5
2516.22
2517.08
2518.1
2519.27
2520.61
2522.09
2523.74
2525.55
2527.53
2529.66
2531.96
2534.42
2537.04
2539.82
2542.76
2545.87
2549.13
2552.54
2556.11
2559.83
2563.69
2567.7
2571.85
2576.14
2580.57
2585.12
2589.8
2594.6
2599.52
2604.55
2609.68
2614.91
2620.24
2625.66
2631.16
2636.73
2642.38
2648.09
2653.85
2659.67
2665.53
2671.42
2677.34
2683.27
2689.22
2695.17
2701.11
2707.05
2712.97
2718.87
2724.74
2730.58
2736.38
2742.12
2747.81
2753.45
2759.01
2764.48
2769.87
2775.16
2780.35
2785.43
2790.4
2795.25
2799.97
2804.56
2809.01
2813.32
2817.48
2821.48
2825.33
2829.01
2832.53
2835.88
2839.05
2842.04
2844.85
2847.48
2849.91
2852.16
2854.21
2856.06
2857.72
2859.17
2860.42
2861.47
2862.3
2862.93
2863.35
2863.56
2579.66
2579.6
2579.44
2579.19
2578.84
2578.41
2577.88
2577.26
2576.56
2575.75
2574.85
2573.86
2572.76
2571.58
2570.3
2568.93
2567.49
2565.97
2564.39
2562.75
2561.06
2559.32
2557.54
2555.73
2553.9
2552.05
2550.18
2548.31
2546.43
2544.55
2542.68
2540.83
2538.99
2537.18
2535.39
2533.64
2531.93
2530.27
2528.66
2527.1
2525.6
2524.18
2522.82
2521.54
2520.34
2519.23
2518.21
2517.28
2516.45
2515.72
2515.11
2514.61
2514.22
2513.96
2513.83
2513.83
2513.96
2514.24
2514.65
2515.21
2515.92
2516.78
2517.8
2518.97
2520.3
2521.78
2523.43
2525.24
2527.21
2529.34
2531.64
2534.1
2536.73
2539.51
2542.46
2545.56
2548.82
2552.24
2555.81
2559.54
2563.41
2567.43
2571.59
2575.88
2580.32
2584.88
2589.57
2594.38
2599.31
2604.34
2609.49
2614.73
2620.07
2625.5
2631.01
2636.6
2642.26
2647.98
2653.76
2659.59
2665.46
2671.36
2677.29
2683.24
2689.2
2695.16
2701.12
2707.06
2713
2718.9
2724.79
2730.64
2736.46
2742.23
2747.95
2753.59
2759.16
2764.65
2770.05
2775.35
2780.55
2785.65
2790.63
2795.48
2800.22
2804.81
2809.28
2813.59
2817.76
2821.78
2825.63
2829.33
2832.85
2836.21
2839.38
2842.38
2845.2
2847.83
2850.27
2852.52
2854.57
2856.43
2858.09
2859.54
2860.8
2861.84
2862.68
2863.31
2863.73
2863.94
2579.9
2579.84
2579.69
2579.45
2579.11
2578.68
2578.17
2577.56
2576.86
2576.07
2575.17
2574.17
2573.08
2571.88
2570.59
2569.21
2567.74
2566.21
2564.6
2562.94
2561.22
2559.46
2557.66
2555.84
2553.98
2552.11
2550.22
2548.33
2546.43
2544.53
2542.65
2540.77
2538.92
2537.08
2535.28
2533.51
2531.78
2530.1
2528.47
2526.89
2525.37
2523.92
2522.54
2521.23
2520.01
2518.87
2517.82
2516.87
2516.02
2515.28
2514.65
2514.13
2513.73
2513.45
2513.31
2513.29
2513.41
2513.67
2514.08
2514.63
2515.33
2516.18
2517.18
2518.35
2519.67
2521.15
2522.79
2524.6
2526.57
2528.7
2531
2533.46
2536.09
2538.88
2541.83
2544.94
2548.21
2551.64
2555.22
2558.96
2562.84
2566.87
2571.04
2575.36
2579.81
2584.39
2589.09
2593.92
2598.87
2603.93
2609.1
2614.36
2619.73
2625.18
2630.71
2636.33
2642.01
2647.76
2653.56
2659.42
2665.31
2671.24
2677.2
2683.18
2689.16
2695.16
2701.15
2707.13
2713.1
2719.05
2724.97
2730.85
2736.69
2742.48
2748.22
2753.88
2759.48
2764.99
2770.41
2775.74
2780.96
2786.08
2791.08
2795.96
2800.71
2805.33
2809.81
2814.15
2818.34
2822.37
2826.24
2829.95
2833.49
2836.86
2840.05
2843.07
2845.89
2848.54
2850.99
2853.25
2855.31
2857.17
2858.84
2860.3
2861.56
2862.61
2863.45
2864.09
2864.5
2864.72
2580.25
2580.2
2580.05
2579.82
2579.5
2579.09
2578.59
2578.01
2577.32
2576.54
2575.65
2574.65
2573.55
2572.34
2571.02
2569.62
2568.12
2566.55
2564.91
2563.21
2561.46
2559.67
2557.84
2555.97
2554.09
2552.18
2550.26
2548.34
2546.41
2544.49
2542.57
2540.67
2538.78
2536.92
2535.09
2533.29
2531.53
2529.81
2528.15
2526.54
2524.99
2523.51
2522.09
2520.76
2519.5
2518.33
2517.26
2516.28
2515.4
2514.62
2513.96
2513.42
2512.99
2512.69
2512.52
2512.49
2512.59
2512.83
2513.21
2513.74
2514.43
2515.27
2516.26
2517.41
2518.72
2520.2
2521.83
2523.64
2525.6
2527.74
2530.03
2532.5
2535.13
2537.93
2540.88
2544.01
2547.29
2550.73
2554.33
2558.08
2561.98
2566.03
2570.23
2574.57
2579.04
2583.65
2588.38
2593.24
2598.22
2603.31
2608.51
2613.81
2619.21
2624.69
2630.27
2635.92
2641.64
2647.42
2653.27
2659.16
2665.1
2671.07
2677.07
2683.09
2689.12
2695.16
2701.2
2707.23
2713.24
2719.24
2725.2
2731.12
2737
2742.83
2748.6
2754.31
2759.94
2765.48
2770.94
2776.3
2781.56
2786.72
2791.75
2796.66
2801.45
2806.1
2810.61
2814.98
2819.2
2823.26
2827.16
2830.89
2834.46
2837.85
2841.06
2844.1
2846.94
2849.6
2852.07
2854.35
2856.42
2858.3
2859.98
2861.45
2862.71
2863.77
2864.62
2865.26
2865.68
2865.9
2580.71
2580.66
2580.53
2580.31
2580.01
2579.63
2579.16
2578.6
2577.95
2577.19
2576.31
2575.31
2574.19
2572.96
2571.61
2570.17
2568.63
2567.01
2565.32
2563.58
2561.78
2559.94
2558.06
2556.16
2554.23
2552.28
2550.32
2548.36
2546.39
2544.43
2542.47
2540.53
2538.6
2536.7
2534.83
2532.99
2531.19
2529.44
2527.73
2526.08
2524.49
2522.96
2521.51
2520.13
2518.83
2517.62
2516.5
2515.48
2514.56
2513.75
2513.05
2512.47
2512.01
2511.68
2511.48
2511.41
2511.48
2511.7
2512.06
2512.57
2513.23
2514.05
2515.02
2516.16
2517.46
2518.92
2520.55
2522.35
2524.31
2526.44
2528.74
2531.21
2533.85
2536.65
2539.62
2542.75
2546.05
2549.51
2553.13
2556.9
2560.83
2564.91
2569.14
2573.51
2578.01
2582.66
2587.43
2592.33
2597.35
2602.48
2607.72
2613.07
2618.51
2624.05
2629.67
2635.37
2641.14
2646.98
2652.88
2658.82
2664.81
2670.84
2676.9
2682.98
2689.07
2695.17
2701.27
2707.35
2713.43
2719.48
2725.49
2731.48
2737.41
2743.29
2749.12
2754.87
2760.55
2766.15
2771.66
2777.07
2782.38
2787.57
2792.65
2797.61
2802.44
2807.13
2811.69
2816.09
2820.35
2824.45
2828.38
2832.15
2835.75
2839.17
2842.42
2845.48
2848.35
2851.04
2853.53
2855.82
2857.92
2859.81
2861.5
2862.99
2864.27
2865.33
2866.19
2866.84
2867.26
2867.48
2581.27
2581.22
2581.1
2580.9
2580.63
2580.29
2579.87
2579.36
2578.74
2578.01
2577.15
2576.15
2575.02
2573.75
2572.36
2570.86
2569.27
2567.59
2565.84
2564.03
2562.17
2560.27
2558.34
2556.38
2554.39
2552.4
2550.39
2548.37
2546.36
2544.35
2542.34
2540.35
2538.37
2536.42
2534.5
2532.61
2530.76
2528.95
2527.19
2525.49
2523.85
2522.27
2520.76
2519.33
2517.98
2516.72
2515.55
2514.48
2513.51
2512.66
2511.91
2511.29
2510.78
2510.41
2510.17
2510.06
2510.1
2510.28
2510.6
2511.09
2511.72
2512.51
2513.47
2514.59
2515.87
2517.32
2518.94
2520.72
2522.68
2524.81
2527.11
2529.59
2532.23
2535.05
2538.03
2541.18
2544.5
2547.98
2551.63
2555.43
2559.39
2563.5
2567.77
2572.17
2576.72
2581.41
2586.23
2591.18
2596.25
2601.43
2606.73
2612.14
2617.64
2623.24
2628.92
2634.68
2640.52
2646.42
2652.39
2658.4
2664.46
2670.56
2676.69
2682.84
2689
2695.17
2701.34
2707.5
2713.65
2719.77
2725.86
2731.91
2737.91
2743.87
2749.76
2755.58
2761.32
2766.98
2772.55
2778.03
2783.39
2788.65
2793.79
2798.8
2803.68
2808.43
2813.03
2817.49
2821.79
2825.94
2829.92
2833.73
2837.37
2840.83
2844.11
2847.21
2850.11
2852.83
2855.35
2857.67
2859.79
2861.71
2863.42
2864.92
2866.21
2867.29
2868.16
2868.81
2869.25
2869.46
2581.91
2581.87
2581.75
2581.58
2581.35
2581.06
2580.7
2580.27
2579.72
2579.03
2578.2
2577.2
2576.04
2574.73
2573.28
2571.71
2570.04
2568.28
2566.45
2564.56
2562.63
2560.66
2558.66
2556.63
2554.59
2552.53
2550.47
2548.39
2546.32
2544.25
2542.19
2540.13
2538.1
2536.09
2534.11
2532.16
2530.24
2528.37
2526.55
2524.79
2523.08
2521.44
2519.87
2518.37
2516.96
2515.64
2514.41
2513.28
2512.25
2511.34
2510.54
2509.86
2509.3
2508.88
2508.59
2508.43
2508.43
2508.56
2508.85
2509.3
2509.9
2510.67
2511.59
2512.69
2513.95
2515.38
2516.99
2518.77
2520.72
2522.85
2525.15
2527.63
2530.28
2533.11
2536.11
2539.28
2542.62
2546.13
2549.81
2553.65
2557.64
2561.8
2566.11
2570.56
2575.16
2579.91
2584.78
2589.79
2594.92
2600.17
2605.54
2611.01
2616.59
2622.26
2628.01
2633.85
2639.77
2645.75
2651.8
2657.9
2664.04
2670.22
2676.43
2682.67
2688.92
2695.18
2701.43
2707.68
2713.91
2720.12
2726.3
2732.43
2738.52
2744.56
2750.53
2756.43
2762.25
2767.99
2773.64
2779.18
2784.62
2789.95
2795.16
2800.24
2805.19
2810
2814.66
2819.18
2823.54
2827.74
2831.77
2835.63
2839.32
2842.83
2846.15
2849.29
2852.24
2854.99
2857.54
2859.9
2862.05
2863.99
2865.72
2867.25
2868.56
2869.65
2870.53
2871.19
2871.63
2871.84
2582.63
2582.58
2582.48
2582.33
2582.14
2581.92
2581.67
2581.34
2580.88
2580.27
2579.47
2578.48
2577.29
2575.91
2574.38
2572.71
2570.93
2569.07
2567.15
2565.17
2563.15
2561.1
2559.02
2556.92
2554.81
2552.68
2550.55
2548.41
2546.27
2544.13
2542
2539.88
2537.78
2535.7
2533.65
2531.63
2529.64
2527.7
2525.8
2523.96
2522.18
2520.47
2518.82
2517.25
2515.77
2514.37
2513.07
2511.87
2510.78
2509.79
2508.93
2508.18
2507.56
2507.08
2506.73
2506.52
2506.46
2506.55
2506.8
2507.2
2507.76
2508.49
2509.39
2510.45
2511.69
2513.11
2514.7
2516.46
2518.41
2520.53
2522.84
2525.32
2527.99
2530.83
2533.85
2537.04
2540.41
2543.96
2547.67
2551.55
2555.59
2559.79
2564.15
2568.67
2573.33
2578.13
2583.08
2588.15
2593.36
2598.69
2604.13
2609.69
2615.35
2621.1
2626.95
2632.88
2638.89
2644.97
2651.1
2657.3
2663.54
2669.82
2676.13
2682.47
2688.82
2695.18
2701.54
2707.89
2714.22
2720.53
2726.81
2733.04
2739.23
2745.36
2751.43
2757.42
2763.34
2769.17
2774.91
2780.54
2786.07
2791.48
2796.76
2801.93
2806.95
2811.84
2816.57
2821.16
2825.59
2829.85
2833.95
2837.87
2841.61
2845.18
2848.55
2851.74
2854.73
2857.52
2860.12
2862.51
2864.69
2866.66
2868.42
2869.97
2871.3
2872.41
2873.3
2873.97
2874.42
2874.64
2583.4
2583.35
2583.26
2583.12
2582.98
2582.86
2582.74
2582.56
2582.26
2581.76
2581.02
2580.02
2578.77
2577.3
2575.65
2573.85
2571.94
2569.96
2567.91
2565.83
2563.71
2561.57
2559.41
2557.24
2555.05
2552.85
2550.64
2548.43
2546.21
2544
2541.79
2539.6
2537.42
2535.26
2533.12
2531.02
2528.95
2526.93
2524.95
2523.02
2521.16
2519.35
2517.62
2515.97
2514.4
2512.92
2511.54
2510.26
2509.08
2508.02
2507.08
2506.26
2505.57
2505.01
2504.6
2504.33
2504.21
2504.24
2504.43
2504.78
2505.3
2505.99
2506.85
2507.88
2509.09
2510.48
2512.05
2513.81
2515.75
2517.87
2520.17
2522.66
2525.34
2528.2
2531.24
2534.46
2537.87
2541.45
2545.2
2549.13
2553.22
2557.48
2561.9
2566.48
2571.21
2576.09
2581.11
2586.27
2591.56
2596.97
2602.51
2608.16
2613.91
2619.77
2625.72
2631.76
2637.87
2644.05
2650.3
2656.61
2662.96
2669.36
2675.79
2682.24
2688.71
2695.18
2701.66
2708.12
2714.57
2721
2727.39
2733.74
2740.04
2746.29
2752.47
2758.57
2764.59
2770.53
2776.37
2782.1
2787.73
2793.23
2798.61
2803.87
2808.98
2813.95
2818.77
2823.44
2827.94
2832.28
2836.45
2840.44
2844.25
2847.87
2851.31
2854.55
2857.59
2860.43
2863.07
2865.5
2867.72
2869.73
2871.52
2873.09
2874.44
2875.57
2876.48
2877.16
2877.61
2877.84
2584.23
2584.18
2584.07
2583.93
2583.82
2583.81
2583.87
2583.93
2583.84
2583.51
2582.86
2581.86
2580.52
2578.91
2577.08
2575.1
2573.03
2570.9
2568.72
2566.52
2564.3
2562.07
2559.82
2557.56
2555.29
2553.02
2550.73
2548.44
2546.14
2543.85
2541.56
2539.28
2537.01
2534.76
2532.54
2530.34
2528.18
2526.06
2523.98
2521.96
2520
2518.1
2516.27
2514.52
2512.86
2511.28
2509.81
2508.43
2507.16
2506.01
2504.98
2504.07
2503.3
2502.67
2502.18
2501.83
2501.64
2501.61
2501.74
2502.04
2502.5
2503.14
2503.96
2504.96
2506.14
2507.5
2509.05
2510.79
2512.72
2514.83
2517.14
2519.64
2522.33
2525.21
2528.27
2531.53
2534.97
2538.59
2542.39
2546.37
2550.52
2554.85
2559.34
2563.99
2568.8
2573.76
2578.87
2584.12
2589.51
2595.03
2600.66
2606.42
2612.29
2618.26
2624.32
2630.48
2636.71
2643.02
2649.39
2655.83
2662.31
2668.83
2675.39
2681.97
2688.57
2695.18
2701.79
2708.39
2714.97
2721.53
2728.05
2734.53
2740.96
2747.33
2753.64
2759.87
2766.01
2772.07
2778.02
2783.87
2789.61
2795.22
2800.71
2806.07
2811.28
2816.35
2821.26
2826.02
2830.61
2835.03
2839.28
2843.35
2847.23
2850.93
2854.43
2857.73
2860.83
2863.73
2866.42
2868.89
2871.16
2873.2
2875.02
2876.63
2878
2879.15
2880.08
2880.77
2881.23
2881.46
2585.13
2585.1
2584.92
2584.75
2584.62
2584.68
2584.93
2585.27
2585.5
2585.42
2584.9
2583.91
2582.46
2580.66
2578.6
2576.4
2574.13
2571.83
2569.52
2567.2
2564.88
2562.56
2560.23
2557.89
2555.55
2553.19
2550.82
2548.45
2546.07
2543.69
2541.31
2538.93
2536.57
2534.22
2531.89
2529.59
2527.33
2525.1
2522.92
2520.78
2518.71
2516.7
2514.77
2512.91
2511.14
2509.45
2507.87
2506.39
2505.02
2503.76
2502.63
2501.63
2500.77
2500.04
2499.46
2499.04
2498.77
2498.66
2498.73
2498.96
2499.36
2499.95
2500.72
2501.67
2502.82
2504.15
2505.67
2507.4
2509.31
2511.42
2513.73
2516.24
2518.94
2521.84
2524.94
2528.23
2531.71
2535.38
2539.23
2543.27
2547.49
2551.89
2556.46
2561.19
2566.09
2571.15
2576.36
2581.71
2587.2
2592.83
2598.59
2604.47
2610.46
2616.55
2622.75
2629.04
2635.41
2641.85
2648.37
2654.94
2661.57
2668.24
2674.94
2681.67
2688.42
2695.18
2701.93
2708.68
2715.41
2722.12
2728.79
2735.42
2741.99
2748.51
2754.95
2761.32
2767.6
2773.79
2779.87
2785.85
2791.71
2797.45
2803.06
2808.53
2813.86
2819.03
2824.05
2828.91
2833.6
2838.12
2842.46
2846.61
2850.57
2854.35
2857.92
2861.29
2864.46
2867.42
2870.16
2872.69
2875
2877.08
2878.95
2880.58
2881.99
2883.16
2884.1
2884.81
2885.28
2885.52
2586.14
2586.07
2585.79
2585.42
2585.08
2584.93
2585.06
2585.58
2586.39
2586.83
2586.72
2586.02
2584.53
2582.32
2579.96
2577.55
2575.1
2572.66
2570.23
2567.83
2565.43
2563.03
2560.63
2558.23
2555.81
2553.37
2550.92
2548.46
2545.99
2543.51
2541.03
2538.56
2536.09
2533.63
2531.19
2528.78
2526.39
2524.05
2521.74
2519.49
2517.3
2515.17
2513.11
2511.13
2509.23
2507.43
2505.72
2504.12
2502.64
2501.27
2500.03
2498.92
2497.95
2497.13
2496.45
2495.93
2495.58
2495.39
2495.37
2495.53
2495.87
2496.4
2497.11
2498.02
2499.12
2500.42
2501.91
2503.61
2505.52
2507.62
2509.94
2512.45
2515.17
2518.09
2521.22
2524.55
2528.07
2531.79
2535.71
2539.82
2544.11
2548.59
2553.24
2558.07
2563.07
2568.23
2573.55
2579.02
2584.64
2590.39
2596.28
2602.29
2608.42
2614.65
2621
2627.43
2633.95
2640.55
2647.22
2653.96
2660.74
2667.57
2674.44
2681.33
2688.24
2695.17
2702.09
2709
2715.9
2722.77
2729.61
2736.4
2743.13
2749.8
2756.41
2762.93
2769.36
2775.7
2781.93
2788.05
2794.05
2799.92
2805.66
2811.26
2816.71
2822.01
2827.15
2832.12
2836.92
2841.54
2845.97
2850.22
2854.28
2858.14
2861.79
2865.24
2868.48
2871.5
2874.31
2876.89
2879.25
2881.39
2883.29
2884.96
2886.4
2887.6
2888.56
2889.29
2889.77
2890.01
2587.25
2587.02
2586.47
2585.4
2584.03
2582.84
2582.34
2582.8
2584.18
2585.83
2586.92
2587.05
2586.05
2584.03
2580.9
2578.21
2575.69
2573.22
2570.78
2568.34
2565.9
2563.47
2561.02
2558.56
2556.07
2553.57
2551.04
2548.49
2545.92
2543.34
2540.75
2538.16
2535.58
2533
2530.44
2527.89
2525.38
2522.9
2520.47
2518.08
2515.75
2513.49
2511.29
2509.18
2507.14
2505.21
2503.37
2501.64
2500.02
2498.53
2497.16
2495.93
2494.85
2493.91
2493.13
2492.51
2492.05
2491.77
2491.66
2491.74
2492.01
2492.47
2493.12
2493.97
2495.03
2496.29
2497.75
2499.43
2501.32
2503.42
2505.73
2508.26
2510.99
2513.94
2517.1
2520.47
2524.05
2527.83
2531.81
2535.99
2540.37
2544.93
2549.68
2554.62
2559.72
2565
2570.44
2576.04
2581.79
2587.68
2593.72
2599.88
2606.16
2612.55
2619.05
2625.65
2632.34
2639.11
2645.95
2652.86
2659.82
2666.83
2673.88
2680.95
2688.04
2695.15
2702.25
2709.35
2716.43
2723.49
2730.5
2737.47
2744.39
2751.23
2758.01
2764.7
2771.3
2777.8
2784.2
2790.47
2796.63
2802.65
2808.53
2814.27
2819.86
2825.29
2830.56
2835.65
2840.57
2845.3
2849.85
2854.2
2858.35
2862.31
2866.05
2869.58
2872.9
2876
2878.87
2881.52
2883.94
2886.12
2888.07
2889.78
2891.25
2892.48
2893.47
2894.21
2894.7
2894.95
2588.33
2587.92
2586.64
2584.22
2581.1
2578.6
2577.33
2577.58
2579.57
2582.16
2584.39
2585.44
2585.39
2584
2581.8
2578.34
2575.7
2573.36
2571.07
2568.71
2566.3
2563.87
2561.41
2558.91
2556.37
2553.79
2551.18
2548.53
2545.87
2543.18
2540.47
2537.76
2535.05
2532.34
2529.64
2526.96
2524.3
2521.68
2519.1
2516.56
2514.08
2511.67
2509.32
2507.05
2504.87
2502.79
2500.8
2498.92
2497.17
2495.53
2494.03
2492.67
2491.45
2490.39
2489.48
2488.75
2488.18
2487.8
2487.6
2487.58
2487.77
2488.15
2488.73
2489.53
2490.53
2491.75
2493.18
2494.83
2496.7
2498.79
2501.1
2503.64
2506.4
2509.37
2512.57
2515.99
2519.62
2523.46
2527.52
2531.78
2536.25
2540.91
2545.77
2550.81
2556.04
2561.45
2567.02
2572.76
2578.66
2584.71
2590.9
2597.22
2603.67
2610.24
2616.92
2623.69
2630.57
2637.52
2644.55
2651.65
2658.81
2666.01
2673.25
2680.52
2687.82
2695.12
2702.43
2709.73
2717.01
2724.26
2731.48
2738.65
2745.76
2752.8
2759.76
2766.64
2773.43
2780.11
2786.68
2793.13
2799.45
2805.63
2811.68
2817.57
2823.31
2828.88
2834.28
2839.51
2844.56
2849.42
2854.08
2858.55
2862.81
2866.87
2870.71
2874.33
2877.73
2880.91
2883.86
2886.57
2889.05
2891.29
2893.29
2895.05
2896.55
2897.82
2898.83
2899.59
2900.09
2900.34
2589.61
2588.98
2586.87
2583.07
2579.14
2579.72
2575.9
2573.47
2575.56
2579.01
2582.06
2583.69
2583.65
2582.19
2581.16
2578.38
2574.89
2572.92
2571.04
2568.94
2566.64
2564.26
2561.82
2559.3
2556.71
2554.06
2551.36
2548.62
2545.85
2543.04
2540.21
2537.36
2534.5
2531.65
2528.8
2525.96
2523.15
2520.37
2517.63
2514.93
2512.28
2509.7
2507.19
2504.76
2502.41
2500.16
2498.01
2495.98
2494.06
2492.27
2490.62
2489.11
2487.75
2486.55
2485.51
2484.65
2483.96
2483.46
2483.15
2483.04
2483.13
2483.43
2483.94
2484.66
2485.61
2486.78
2488.17
2489.79
2491.64
2493.72
2496.04
2498.58
2501.36
2504.37
2507.61
2511.07
2514.77
2518.68
2522.82
2527.17
2531.73
2536.5
2541.48
2546.65
2552.01
2557.55
2563.28
2569.17
2575.23
2581.45
2587.81
2594.31
2600.95
2607.7
2614.57
2621.55
2628.62
2635.78
2643.02
2650.32
2657.69
2665.1
2672.56
2680.05
2687.56
2695.08
2702.61
2710.13
2717.63
2725.1
2732.54
2739.92
2747.25
2754.5
2761.68
2768.76
2775.74
2782.62
2789.38
2796.02
2802.52
2808.88
2815.1
2821.16
2827.06
2832.79
2838.34
2843.72
2848.9
2853.9
2858.69
2863.28
2867.66
2871.83
2875.77
2879.5
2882.99
2886.25
2889.28
2892.07
2894.61
2896.91
2898.97
2900.77
2902.32
2903.61
2904.65
2905.43
2905.95
2906.21
2592.35
2591.29
2588.92
2585.17
2584.06
2579.57
2577.15
2575.19
2574.65
2577.87
2580.63
2581.91
2581.55
2579.95
2578.44
2578.39
2573.9
2572.17
2570.86
2569.12
2567.02
2564.73
2562.31
2559.78
2557.14
2554.42
2551.63
2548.78
2545.88
2542.94
2539.97
2536.97
2533.96
2530.94
2527.93
2524.93
2521.94
2518.98
2516.06
2513.18
2510.36
2507.6
2504.9
2502.29
2499.76
2497.33
2495.01
2492.79
2490.7
2488.74
2486.92
2485.25
2483.73
2482.38
2481.19
2480.19
2479.37
2478.74
2478.32
2478.09
2478.08
2478.29
2478.71
2479.36
2480.24
2481.36
2482.71
2484.3
2486.13
2488.2
2490.51
2493.07
2495.87
2498.91
2502.19
2505.71
2509.47
2513.46
2517.68
2522.13
2526.8
2531.69
2536.79
2542.1
2547.61
2553.3
2559.19
2565.25
2571.49
2577.89
2584.44
2591.14
2597.97
2604.94
2612.02
2619.21
2626.5
2633.87
2641.33
2648.87
2656.46
2664.1
2671.79
2679.51
2687.26
2695.02
2702.79
2710.55
2718.3
2726.01
2733.68
2741.31
2748.87
2756.35
2763.75
2771.06
2778.26
2785.35
2792.32
2799.16
2805.86
2812.41
2818.81
2825.05
2831.13
2837.03
2842.75
2848.28
2853.61
2858.75
2863.68
2868.41
2872.91
2877.2
2881.26
2885.09
2888.68
2892.04
2895.15
2898.02
2900.63
2903
2905.11
2906.96
2908.56
2909.89
2910.96
2911.76
2912.29
2912.56
2597.25
2596.26
2593.68
2589.9
2589.38
2584.86
2582.17
2579
2577.93
2579.69
2580.86
2580.77
2579.42
2577.34
2576.15
2576.37
2573.43
2571.54
2570.84
2569.49
2567.58
2565.38
2562.98
2560.42
2557.72
2554.91
2552
2549.03
2545.99
2542.9
2539.77
2536.61
2533.42
2530.23
2527.04
2523.85
2520.67
2517.52
2514.41
2511.33
2508.31
2505.35
2502.46
2499.64
2496.92
2494.29
2491.77
2489.36
2487.08
2484.94
2482.93
2481.08
2479.39
2477.87
2476.52
2475.36
2474.4
2473.63
2473.07
2472.73
2472.6
2472.7
2473.04
2473.61
2474.42
2475.47
2476.77
2478.32
2480.13
2482.19
2484.5
2487.07
2489.89
2492.97
2496.3
2499.88
2503.71
2507.78
2512.1
2516.66
2521.44
2526.46
2531.7
2537.15
2542.82
2548.68
2554.74
2560.99
2567.42
2574.02
2580.78
2587.69
2594.74
2601.93
2609.24
2616.66
2624.18
2631.8
2639.5
2647.28
2655.11
2663.01
2670.95
2678.92
2686.92
2694.94
2702.97
2710.99
2719
2726.98
2734.92
2742.8
2750.61
2758.35
2766
2773.54
2780.98
2788.3
2795.49
2802.55
2809.46
2816.22
2822.83
2829.26
2835.52
2841.6
2847.5
2853.2
2858.7
2863.99
2869.07
2873.94
2878.58
2882.99
2887.17
2891.11
2894.82
2898.27
2901.48
2904.43
2907.12
2909.56
2911.73
2913.64
2915.28
2916.65
2917.76
2918.58
2919.13
2919.4
2603.94
2603.22
2600.96
2597.7
2595.53
2594.58
2591.05
2585.47
2584.58
2583.98
2582.8
2580.72
2578.06
2575.39
2575.83
2574.98
2573.43
2571.75
2571.45
2570.34
2568.53
2566.36
2563.93
2561.29
2558.49
2555.56
2552.52
2549.39
2546.19
2542.93
2539.63
2536.28
2532.91
2529.52
2526.13
2522.74
2519.35
2516
2512.67
2509.38
2506.14
2502.96
2499.85
2496.82
2493.88
2491.03
2488.3
2485.68
2483.19
2480.84
2478.64
2476.59
2474.71
2473
2471.48
2470.15
2469.02
2468.1
2467.4
2466.92
2466.67
2466.66
2466.89
2467.37
2468.1
2469.09
2470.34
2471.85
2473.62
2475.67
2477.98
2480.56
2483.41
2486.52
2489.9
2493.55
2497.46
2501.62
2506.04
2510.71
2515.63
2520.78
2526.17
2531.79
2537.62
2543.67
2549.92
2556.37
2563.01
2569.82
2576.8
2583.95
2591.24
2598.66
2606.22
2613.89
2621.67
2629.55
2637.51
2645.54
2653.64
2661.8
2670.01
2678.25
2686.53
2694.83
2703.14
2711.45
2719.75
2728.01
2736.23
2744.4
2752.49
2760.5
2768.42
2776.23
2783.92
2791.49
2798.92
2806.21
2813.35
2820.34
2827.15
2833.8
2840.26
2846.54
2852.62
2858.5
2864.17
2869.63
2874.87
2879.89
2884.67
2889.22
2893.53
2897.6
2901.41
2904.97
2908.28
2911.32
2914.1
2916.61
2918.85
2920.82
2922.51
2923.92
2925.06
2925.91
2926.47
2926.75
2610.5
2610.33
2609.04
2606.62
2603.61
2601.32
2597.44
2594.78
2592.2
2589.34
2585.97
2582.18
2578.47
2579.14
2577.26
2574.12
2573.16
2573.3
2573.07
2571.9
2570.04
2567.77
2565.22
2562.45
2559.5
2556.41
2553.2
2549.9
2546.51
2543.06
2539.56
2536.01
2532.43
2528.82
2525.21
2521.6
2517.99
2514.4
2510.84
2507.32
2503.85
2500.43
2497.08
2493.82
2490.64
2487.56
2484.59
2481.74
2479.03
2476.45
2474.03
2471.77
2469.68
2467.77
2466.05
2464.54
2463.23
2462.14
2461.28
2460.65
2460.27
2460.13
2460.25
2460.63
2461.27
2462.19
2463.38
2464.84
2466.59
2468.61
2470.92
2473.51
2476.39
2479.55
2482.98
2486.7
2490.69
2494.95
2499.48
2504.28
2509.33
2514.64
2520.19
2525.98
2532
2538.25
2544.71
2551.37
2558.23
2565.28
2572.51
2579.9
2587.45
2595.14
2602.96
2610.9
2618.96
2627.11
2635.35
2643.66
2652.04
2660.48
2668.97
2677.51
2686.08
2694.67
2703.29
2711.91
2720.52
2729.1
2737.64
2746.11
2754.51
2762.82
2771.03
2779.12
2787.09
2794.92
2802.62
2810.16
2817.54
2824.76
2831.81
2838.67
2845.35
2851.83
2858.12
2864.19
2870.05
2875.68
2881.09
2886.27
2891.21
2895.9
2900.35
2904.54
2908.48
2912.15
2915.56
2918.7
2921.57
2924.16
2926.47
2928.5
2930.25
2931.71
2932.88
2933.76
2934.34
2934.63
2616.08
2615.96
2615.32
2613.93
2611.86
2609.21
2606.15
2602.76
2599.01
2594.82
2590.27
2585.84
2584.97
2582.19
2578.73
2576.36
2576.38
2576.46
2575.78
2574.25
2572.14
2569.65
2566.9
2563.92
2560.78
2557.48
2554.07
2550.56
2546.96
2543.29
2539.57
2535.79
2531.98
2528.15
2524.29
2520.44
2516.58
2512.75
2508.94
2505.16
2501.43
2497.76
2494.16
2490.63
2487.2
2483.86
2480.64
2477.54
2474.57
2471.75
2469.09
2466.6
2464.28
2462.15
2460.22
2458.5
2457
2455.73
2454.69
2453.91
2453.37
2453.1
2453.09
2453.36
2453.91
2454.74
2455.87
2457.28
2458.99
2461
2463.3
2465.91
2468.81
2472.01
2475.51
2479.3
2483.38
2487.75
2492.4
2497.33
2502.53
2508
2513.73
2519.71
2525.93
2532.39
2539.07
2545.97
2553.08
2560.38
2567.87
2575.53
2583.36
2591.33
2599.44
2607.68
2616.03
2624.47
2633.01
2641.62
2650.3
2659.03
2667.82
2676.66
2685.54
2694.46
2703.41
2712.37
2721.32
2730.25
2739.13
2747.95
2756.68
2765.31
2773.84
2782.23
2790.5
2798.62
2806.59
2814.4
2822.04
2829.51
2836.8
2843.9
2850.81
2857.52
2864.01
2870.29
2876.34
2882.17
2887.75
2893.1
2898.2
2903.05
2907.64
2911.97
2916.03
2919.83
2923.35
2926.59
2929.55
2932.23
2934.61
2936.71
2938.51
2940.02
2941.24
2942.14
2942.75
2943.04
2620.68
2620.47
2620.18
2619.34
2617.71
2615.35
2612.34
2608.82
2604.83
2600.44
2595.83
2594.43
2590.78
2587.35
2583.12
2582.21
2581.62
2580.89
2579.37
2577.29
2574.78
2571.97
2568.93
2565.7
2562.31
2558.78
2555.13
2551.38
2547.54
2543.64
2539.66
2535.64
2531.58
2527.49
2523.38
2519.26
2515.14
2511.04
2506.95
2502.9
2498.9
2494.95
2491.06
2487.26
2483.54
2479.93
2476.43
2473.06
2469.83
2466.74
2463.82
2461.07
2458.5
2456.13
2453.97
2452.03
2450.31
2448.84
2447.61
2446.65
2445.95
2445.53
2445.38
2445.53
2445.97
2446.72
2447.77
2449.13
2450.8
2452.78
2455.08
2457.7
2460.63
2463.88
2467.44
2471.31
2475.49
2479.97
2484.76
2489.83
2495.2
2500.84
2506.76
2512.94
2519.38
2526.07
2533
2540.15
2547.53
2555.1
2562.88
2570.83
2578.95
2587.23
2595.65
2604.2
2612.87
2621.63
2630.49
2639.41
2648.4
2657.44
2666.54
2675.68
2684.88
2694.15
2703.46
2712.79
2722.13
2731.44
2740.7
2749.89
2758.99
2767.99
2776.85
2785.58
2794.16
2802.59
2810.85
2818.94
2826.86
2834.6
2842.15
2849.51
2856.66
2863.59
2870.31
2876.81
2883.07
2889.09
2894.87
2900.39
2905.67
2910.68
2915.42
2919.89
2924.09
2928.01
2931.65
2935
2938.06
2940.83
2943.29
2945.46
2947.33
2948.89
2950.14
2951.08
2951.71
2952.01
2624.79
2624.53
2624.25
2623.5
2622.05
2619.85
2617.09
2613.92
2610.35
2606.46
2602.57
2599.96
2596.82
2592.58
2590.64
2589.11
2587.55
2585.7
2583.4
2580.74
2577.79
2574.62
2571.26
2567.74
2564.07
2560.27
2556.36
2552.35
2548.26
2544.09
2539.85
2535.57
2531.23
2526.87
2522.48
2518.07
2513.67
2509.27
2504.89
2500.55
2496.24
2491.99
2487.81
2483.7
2479.68
2475.77
2471.97
2468.3
2464.77
2461.4
2458.19
2455.16
2452.32
2449.69
2447.28
2445.09
2443.14
2441.45
2440.02
2438.86
2437.98
2437.39
2437.1
2437.11
2437.44
2438.08
2439.05
2440.35
2441.98
2443.93
2446.23
2448.86
2451.82
2455.12
2458.75
2462.71
2466.99
2471.6
2476.52
2481.76
2487.3
2493.13
2499.26
2505.66
2512.34
2519.28
2526.46
2533.89
2541.55
2549.42
2557.5
2565.77
2574.22
2582.83
2591.58
2600.47
2609.48
2618.58
2627.77
2637.03
2646.35
2655.7
2665.1
2674.56
2684.08
2693.71
2703.41
2713.17
2722.93
2732.67
2742.35
2751.96
2761.46
2770.85
2780.09
2789.18
2798.1
2806.85
2815.42
2823.82
2832.03
2840.05
2847.88
2855.5
2862.9
2870.09
2877.04
2883.77
2890.25
2896.48
2902.45
2908.17
2913.62
2918.8
2923.7
2928.33
2932.67
2936.72
2940.48
2943.95
2947.11
2949.97
2952.53
2954.77
2956.7
2958.32
2959.62
2960.6
2961.24
2961.55
2628.93
2628.75
2628.48
2627.7
2626.21
2624.06
2621.67
2619
2616.01
2612.82
2609.23
2605.95
2602.93
2600.23
2597.81
2595.52
2593.15
2590.5
2587.57
2584.41
2581.05
2577.52
2573.83
2570
2566.03
2561.95
2557.77
2553.48
2549.11
2544.66
2540.14
2535.56
2530.94
2526.27
2521.58
2516.88
2512.16
2507.45
2502.76
2498.09
2493.47
2488.89
2484.38
2479.95
2475.6
2471.36
2467.24
2463.25
2459.4
2455.71
2452.19
2448.86
2445.73
2442.81
2440.12
2437.67
2435.47
2433.53
2431.87
2430.5
2429.42
2428.65
2428.19
2428.06
2428.26
2428.8
2429.68
2430.91
2432.49
2434.42
2436.7
2439.35
2442.34
2445.7
2449.4
2453.45
2457.85
2462.59
2467.67
2473.07
2478.8
2484.84
2491.19
2497.83
2504.76
2511.97
2519.44
2527.16
2535.13
2543.32
2551.73
2560.34
2569.14
2578.1
2587.22
2596.47
2605.85
2615.32
2624.87
2634.48
2644.13
2653.8
2663.49
2673.22
2683.06
2693.05
2703.21
2713.45
2723.71
2733.92
2744.08
2754.14
2764.1
2773.92
2783.57
2793.04
2802.32
2811.42
2820.32
2829.04
2837.56
2845.88
2853.99
2861.89
2869.57
2877.02
2884.22
2891.18
2897.89
2904.34
2910.52
2916.43
2922.07
2927.43
2932.5
2937.29
2941.78
2945.97
2949.86
2953.45
2956.72
2959.69
2962.33
2964.66
2966.66
2968.34
2969.68
2970.69
2971.36
2971.68
2633.4
2633.56
2633.17
2632.02
2630.49
2628.66
2626.6
2624.32
2621.78
2618.99
2615.97
2612.94
2609.97
2607.05
2604.18
2601.28
2598.3
2595.09
2591.7
2588.14
2584.43
2580.57
2576.57
2572.43
2568.18
2563.8
2559.32
2554.75
2550.08
2545.33
2540.51
2535.63
2530.7
2525.72
2520.71
2515.68
2510.63
2505.59
2500.56
2495.55
2490.58
2485.65
2480.79
2476
2471.31
2466.71
2462.24
2457.9
2453.7
2449.67
2445.82
2442.16
2438.71
2435.48
2432.48
2429.74
2427.26
2425.06
2423.15
2421.54
2420.24
2419.28
2418.64
2418.35
2418.41
2418.83
2419.61
2420.76
2422.29
2424.19
2426.46
2429.12
2432.15
2435.56
2439.35
2443.5
2448.02
2452.91
2458.15
2463.73
2469.66
2475.93
2482.52
2489.42
2496.62
2504.12
2511.9
2519.94
2528.24
2536.78
2545.54
2554.52
2563.69
2573.04
2582.55
2592.19
2601.96
2611.83
2621.77
2631.76
2641.76
2651.75
2661.68
2671.6
2681.68
2692.06
2702.76
2713.6
2724.44
2735.2
2745.86
2756.42
2766.88
2777.18
2787.29
2797.18
2806.85
2816.3
2825.56
2834.61
2843.45
2852.09
2860.52
2868.71
2876.68
2884.4
2891.87
2899.08
2906.02
2912.7
2919.1
2925.21
2931.05
2936.59
2941.84
2946.78
2951.43
2955.77
2959.8
2963.51
2966.91
2969.98
2972.72
2975.13
2977.21
2978.95
2980.35
2981.4
2982.09
2982.43
2638.29
2638.4
2637.72
2636.72
2635.43
2633.8
2631.99
2629.97
2627.69
2625.13
2622.3
2619.33
2616.26
2613.11
2609.89
2606.58
2603.14
2599.56
2595.82
2591.94
2587.92
2583.75
2579.45
2575.03
2570.48
2565.81
2561.03
2556.15
2551.18
2546.12
2540.99
2535.78
2530.52
2525.21
2519.86
2514.48
2509.09
2503.68
2498.29
2492.91
2487.57
2482.27
2477.03
2471.86
2466.78
2461.81
2456.95
2452.23
2447.67
2443.26
2439.05
2435.03
2431.22
2427.65
2424.33
2421.27
2418.49
2416
2413.81
2411.95
2410.42
2409.23
2408.4
2407.93
2407.84
2408.12
2408.8
2409.86
2411.33
2413.19
2415.46
2418.13
2421.2
2424.67
2428.54
2432.81
2437.46
2442.5
2447.92
2453.71
2459.86
2466.36
2473.21
2480.39
2487.89
2495.7
2503.81
2512.2
2520.86
2529.77
2538.92
2548.29
2557.86
2567.63
2577.55
2587.63