/*--------------------------------*- C++ -*----------------------------------*\
| =========                 |                                                 |
| \\      /  F ield         | OpenFOAM: The Open Source CFD Toolbox           |
|  \\    /   O peration     | Version:  v2006                                 |
|   \\  /    A nd           | Website:  www.openfoam.com                      |
|    \\/     M anipulation  |                                                 |
\*---------------------------------------------------------------------------*/
FoamFile
{
    version     2.0;
    format      ascii;
    class       volScalarField;
    location    "0";
    object      shifted_f;
}
// * * * * * * * * * * * * * * * * * * * * * * * * * * * * * * * * * * * * * //

dimensions      [0 0 0 0 0 0 0];


internalField   nonuniform List<scalar> 
2500
(
0.000287078
0.000287086
0.000287104
0.000287086
0.000287011
0.000287034
0.000287063
0.000287123
0.000287082
0.000287034
0.000287067
0.000287041
0.000287056
0.00028703
0.000287045
0.000287082
0.000286989
0.000287116
0.000287015
0.000287045
0.00028703
0.000286989
0.000287041
0.000286985
0.000287004
0.000287004
0.000287071
0.000286989
0.000286993
0.000286996
0.000287
0.000286985
0.00028703
0.000287008
0.000287008
0.000286981
0.000287022
0.000286948
0.000286929
0.000286967
0.000286959
0.000286937
0.000287008
0.000287
0.000286959
0.000286974
0.000286985
0.000286974
0.000286963
0.000287008
0.000286944
0.000286981
0.000286989
0.000286959
0.000286985
0.000286974
0.000287034
0.000286926
0.000313099
0.000313144
0.000313114
0.000313055
0.000313122
0.000313032
0.000313032
0.000313006
0.000312988
0.000313006
0.000312988
0.000312958
0.000312936
0.000312902
0.000312939
0.000312965
0.000312902
0.000312906
0.00031288
0.000312831
0.000312842
0.000312787
0.000312816
0.000312824
0.000312787
0.000312798
0.000312783
0.000312783
0.000312727
0.000312742
0.00031276
0.000312727
0.000312671
0.00031266
0.00031266
0.000312615
0.000312649
0.000312649
0.000312623
0.000312611
0.000312567
0.000312552
0.000312544
0.000312526
0.000312548
0.000312537
0.000312481
0.000312466
0.000312481
0.000312433
0.000312403
0.00031244
0.000312425
0.000312433
0.00031238
0.000312354
0.000312328
0.000312302
0.000312347
0.000312362
0.000312325
0.000312269
0.000312276
0.000312254
0.000312291
0.000312213
0.00031225
0.000312258
0.000312224
0.000312202
0.000312123
0.000312146
0.000312153
0.000312153
0.000312179
0.000312034
0.000312094
0.000312079
0.000312086
0.000312027
0.000312056
0.000312004
0.000312019
0.000312019
0.000311974
0.000311919
0.00031196
0.000311989
0.000311881
0.000311956
0.000311919
0.000311915
0.000311885
0.000311859
0.000311844
0.000311863
0.000311825
0.000311837
0.000311799
0.000311825
0.000311766
0.000282086
0.000282086
0.000282057
0.000281986
0.000282019
0.000282008
0.000281978
0.000282016
0.000281982
0.000281986
0.000281971
0.000281926
0.0002819
0.000281896
0.000281874
0.000281874
0.000281882
0.000281844
0.000281822
0.000281796
0.000281751
0.00028174
0.000281744
0.000281703
0.000281692
0.000281725
0.00028168
0.00028168
0.000281665
0.000281639
0.000281658
0.000281561
0.000281535
0.000281595
0.000281554
0.00028155
0.000281565
0.00028152
0.000281487
0.000281487
0.000281479
0.00028149
0.000281382
0.000281397
0.00028142
0.00028142
0.000281386
0.000281379
0.000281308
0.000281271
0.000281293
0.000281282
0.000281274
0.000281312
0.000281226
0.000281252
0.000281252
0.000281218
0.000281151
0.000281211
0.000281192
0.000281177
0.000281096
0.00028111
0.000281096
0.000281002
0.000281006
0.000281002
0.000281021
0.000280973
0.00028098
0.00028098
0.000280954
0.000280913
0.000280872
0.000280812
0.000280865
0.00028082
0.000280801
0.000280831
0.000280786
0.000280786
0.000280764
0.000280749
0.000280745
0.000280701
0.000280689
0.000280708
0.000280667
0.000280648
0.000280615
0.000280596
0.000280555
0.000280529
0.000280503
0.000280533
0.000280533
0.000280488
0.000280473
0.000280444
0.000280436
0.000182468
0.000182442
0.00018255
0.00018242
0.000182446
0.000182431
0.000182465
0.000182483
0.000182483
0.000182427
0.000182476
0.000182386
0.000182409
0.000182401
0.000182405
0.000182401
0.00018239
0.000182364
0.000182375
0.00018239
0.000182476
0.000182349
0.00018239
0.000182342
0.000182439
0.000182383
0.000182427
0.000182413
0.000182316
0.000182394
0.000182353
0.000182368
0.000182357
0.000182327
0.000182342
0.00018239
0.000182334
0.000182338
0.000182401
0.000182286
0.000182319
0.000182342
0.000182338
0.00018239
0.000182327
0.000182334
0.000182271
0.000182278
0.000182293
0.00018226
0.000182327
0.000182331
0.00018229
0.000182267
0.000182252
0.00018229
0.000182245
0.000182189
0.000182282
0.000182256
0.000182226
0.00018226
0.000182252
0.000182249
0.000182226
0.000182208
0.000182226
0.000182152
0.000182133
0.000182081
0.00018217
0.000182156
0.000182208
0.000182118
0.000182122
0.000182055
0.000182115
0.000182088
0.000182081
0.000182025
0.000182081
0.000182025
0.000182059
0.000182029
0.000181977
0.000181917
0.000182014
0.000181917
0.000181977
0.000181932
0.000181925
0.000181917
0.000181898
0.00018188
0.000181872
0.000181831
0.000181828
0.000181839
0.000181798
0.000181824
0.000181854
2.68519e-05
2.68109e-05
2.68444e-05
2.6878e-05
2.68929e-05
2.69152e-05
2.69376e-05
2.6945e-05
2.69301e-05
2.69935e-05
2.69935e-05
2.69674e-05
2.69972e-05
2.70493e-05
2.7135e-05
2.70829e-05
2.71834e-05
2.7135e-05
2.7217e-05
2.7243e-05
2.72579e-05
2.7243e-05
2.72691e-05
2.72579e-05
2.73325e-05
2.73436e-05
2.73548e-05
2.73734e-05
2.74256e-05
2.73921e-05
2.7407e-05
2.74889e-05
2.7407e-05
2.75299e-05
2.75262e-05
2.75597e-05
2.75075e-05
2.76007e-05
2.75522e-05
2.76268e-05
2.76379e-05
2.76677e-05
2.76752e-05
2.76752e-05
2.77162e-05
2.77422e-05
2.76677e-05
2.77199e-05
2.77236e-05
2.77571e-05
2.77348e-05
2.77795e-05
2.77869e-05
2.77869e-05
2.78279e-05
2.78279e-05
2.78614e-05
2.79024e-05
2.78801e-05
2.79397e-05
2.79434e-05
2.79546e-05
2.79061e-05
2.79285e-05
2.79061e-05
2.79769e-05
2.7962e-05
2.79732e-05
2.80179e-05
2.80328e-05
2.79993e-05
2.8003e-05
2.80254e-05
2.80701e-05
2.80291e-05
2.80328e-05
2.80514e-05
2.80701e-05
2.8111e-05
2.81446e-05
2.81557e-05
2.81148e-05
2.81371e-05
2.81595e-05
2.81855e-05
2.81408e-05
2.80924e-05
2.81185e-05
2.81446e-05
2.81967e-05
2.81446e-05
2.82042e-05
2.81222e-05
2.82042e-05
2.81967e-05
2.82042e-05
2.82191e-05
2.82116e-05
2.81855e-05
2.81818e-05
2.81595e-05
-0.00014038
-0.000140343
-0.000140399
-0.000140268
-0.000140212
-0.000140183
-0.000140168
-0.00014009
-0.000140134
-0.000140037
-0.000140015
-0.000139967
-0.000139963
-0.000139918
-0.000139851
-0.000139784
-0.000139762
-0.000139743
-0.000139661
-0.000139654
-0.000139605
-0.000139579
-0.000139482
-0.00013952
-0.000139475
-0.000139441
-0.0001394
-0.000139326
-0.000139304
-0.00013927
-0.000139162
-0.000139132
-0.00013902
-0.000139095
-0.000139039
-0.000139009
-0.000138924
-0.000138916
-0.000138819
-0.000138823
-0.000138786
-0.000138741
-0.000138726
-0.000138644
-0.000138614
-0.000138626
-0.000138588
-0.000138525
-0.000138562
-0.000138469
-0.000138413
-0.000138417
-0.000138391
-0.000138398
-0.000138316
-0.000138305
-0.000138152
-0.000138212
-0.00013813
-0.000138167
-0.000138063
-0.000138003
-0.000138033
-0.000137903
-0.000137974
-0.000137962
-0.000137903
-0.000137847
-0.000137929
-0.00013778
-0.00013778
-0.000137769
-0.000137724
-0.000137679
-0.000137739
-0.000137646
-0.00013769
-0.00013756
-0.000137571
-0.000137541
-0.000137504
-0.000137489
-0.000137452
-0.000137433
-0.000137392
-0.000137374
-0.00013737
-0.000137292
-0.000137355
-0.000137288
-0.000137288
-0.000137247
-0.000137229
-0.000137158
-0.000137169
-0.000137191
-0.000137147
-0.00013715
-0.000137124
-0.000137087
-0.00013705
-0.00018527
-0.000185315
-0.000185218
-0.00018524
-0.00018521
-0.000185084
-0.000185095
-0.000185095
-0.000185009
-0.000184935
-0.000184927
-0.000184886
-0.000184864
-0.000184827
-0.000184759
-0.000184719
-0.00018467
-0.000184711
-0.000184625
-0.00018464
-0.000184502
-0.000184584
-0.000184443
-0.00018445
-0.000184413
-0.000184346
-0.000184316
-0.000184253
-0.000184245
-0.000184204
-0.000184163
-0.000184126
-0.000184119
-0.000184119
-0.000183973
-0.000183936
-0.000183921
-0.000183906
-0.000183865
-0.000183783
-0.000183765
-0.000183772
-0.000183702
-0.000183664
-0.000183709
-0.000183564
-0.000183523
-0.000183471
-0.000183482
-0.000183485
-0.000183403
-0.000183437
-0.00018337
-0.000183299
-0.000183214
-0.000183236
-0.000183232
-0.000183176
-0.000183109
-0.000183117
-0.000183083
-0.000183005
-0.000182915
-0.000182923
-0.000182886
-0.000182804
-0.000182766
-0.000182804
-0.000182729
-0.000182733
-0.000182636
-0.000182573
-0.000182588
-0.000182591
-0.00018258
-0.000182372
-0.000182401
-0.000182334
-0.000182319
-0.00018226
-0.000182241
-0.000182204
-0.000182182
-0.00018217
-0.000182107
-0.000182081
-0.000181932
-0.00018191
-0.000181954
-0.000181839
-0.000181884
-0.000181828
-0.000181802
-0.000181708
-0.000181701
-0.000181627
-0.000181682
-0.000181582
-0.000181563
-0.000181511
-0.000181455
0.000288904
0.000288941
0.000288922
0.00028887
0.000288833
0.000288785
0.000288762
0.00028874
0.000288676
0.000288606
0.000288595
0.000288598
0.000288568
0.000288486
0.000288472
0.000288531
0.000288371
0.000288311
0.000288341
0.000288274
0.000288233
0.000288222
0.000288174
0.000288159
0.000288099
0.000288151
0.000288051
0.000288092
0.00028808
0.00028801
0.000287931
0.000287972
0.000287943
0.000287872
0.000287928
0.000287805
0.000287842
0.000287812
0.000287808
0.000287715
0.000287719
0.000287723
0.000287715
0.000287566
0.000287611
0.000287626
0.000287648
0.000287667
0.000287585
0.000287715
0.000287563
0.000287708
0.000287611
0.000287596
0.00028754
0.000287585
0.000287566
0.000287592
0.000287607
0.000287592
0.000287578
0.000287555
0.000287518
0.000287626
0.00028757
0.000287551
0.00028763
0.000287682
0.000287712
0.000287678
0.000287671
0.000287645
0.000287745
0.000287637
0.000287723
0.000287808
0.000287812
0.000287727
0.000287887
0.000287902
0.00028789
0.000287909
0.000287946
0.000288021
0.000287924
0.000288054
0.000288118
0.000288058
0.000288159
0.000288222
0.000288285
0.000288282
0.000288386
0.000288431
0.000288453
0.000288527
0.000288557
0.00028855
0.000288673
0.000288725
0.000288744
0.00177041
0.00177019
0.00177
0.0017698
0.00176964
0.00176943
0.00176916
0.00176902
0.00176882
0.00176858
0.00176845
0.00176822
0.001768
0.0017679
0.00176756
0.00176741
0.0017672
0.00176697
0.00176677
0.00176663
0.0017664
0.0017662
0.001766
0.00176579
0.00176563
0.00176542
0.0017653
0.00176498
0.00176484
0.00176463
0.00176446
0.00176427
0.00176413
0.00176386
0.00176375
0.00176356
0.0017634
0.00176312
0.00176301
0.00176282
0.00176266
0.00176252
0.00176233
0.0017622
0.00176201
0.00176179
0.00176167
0.00176145
0.00176131
0.00176123
0.00176106
0.0017609
0.00176074
0.00176069
0.00176056
0.00176046
0.00176028
0.00176011
0.00175996
0.00175982
0.00175964
0.00175959
0.00175945
0.00175938
0.00175933
0.00175914
0.00175899
0.00175886
0.0017588
0.00175867
0.00175862
0.00175856
0.00175844
0.00175836
0.00175827
0.00175833
0.00175811
0.00175811
0.00175802
0.001758
0.00175793
0.00175777
0.00175778
0.00175777
0.00175769
0.0017577
0.00175755
0.00175749
0.00175749
0.00175753
0.00175751
0.00175741
0.00175745
0.00175736
0.00175733
0.00175739
0.0017573
0.00175733
0.00175736
0.00175734
0.0017574
0.00279645
0.00279613
0.00279593
0.00279571
0.00279536
0.00279518
0.00279497
0.00279465
0.00279443
0.00279426
0.0027939
0.00279376
0.00279341
0.00279323
0.0027929
0.00279271
0.00279233
0.00279217
0.00279194
0.0027917
0.00279142
0.0027912
0.00279088
0.00279066
0.00279025
0.00279009
0.00278992
0.00278959
0.00278937
0.00278912
0.0027888
0.00278857
0.00278838
0.00278812
0.00278787
0.00278759
0.00278736
0.00278709
0.00278684
0.00278652
0.00278634
0.002786
0.00278577
0.0027855
0.00278523
0.00278505
0.0027848
0.00278453
0.0027843
0.00278409
0.00278373
0.00278351
0.00278321
0.00278307
0.00278283
0.00278251
0.00278229
0.00278196
0.00278178
0.00278156
0.00278127
0.00278104
0.00278075
0.00278064
0.00278033
0.00278009
0.00277982
0.00277966
0.00277929
0.00277907
0.00277891
0.0027786
0.0027784
0.00277811
0.00277792
0.00277768
0.00277743
0.00277711
0.00277688
0.00277671
0.00277659
0.00277628
0.00277603
0.0027758
0.00277559
0.00277537
0.00277516
0.00277488
0.00277466
0.00277447
0.00277422
0.00277396
0.00277381
0.00277351
0.00277325
0.00277312
0.00277289
0.00277269
0.00277249
0.00277222
0.00277195
-0.000461239
-0.000461034
-0.000460807
-0.00046071
-0.000460666
-0.000460468
-0.00046036
-0.000460166
-0.000460152
-0.000459861
-0.000459854
-0.000459667
-0.000459511
-0.000459358
-0.000459347
-0.000459142
-0.000459049
-0.000458907
-0.000458766
-0.000458643
-0.000458445
-0.000458453
-0.000458222
-0.000458218
-0.000458043
-0.000457946
-0.000457827
-0.000457693
-0.000457626
-0.000457492
-0.000457436
-0.000457402
-0.000457186
-0.000457197
-0.000457078
-0.00045706
-0.000456888
-0.000456784
-0.000456747
-0.000456665
-0.000456672
-0.000456449
-0.000456609
-0.000456538
-0.000456449
-0.000456475
-0.000456486
-0.000456415
-0.000456341
-0.000456382
-0.000456456
-0.000456382
-0.000456464
-0.000456385
-0.000456486
-0.000456467
-0.000456452
-0.000456572
-0.000456613
-0.000456605
-0.000456717
-0.000456743
-0.000456829
-0.000456896
-0.00045694
-0.000457119
-0.000457134
-0.000457313
-0.000457298
-0.00045751
-0.000457685
-0.000457764
-0.000457954
-0.000458073
-0.00045827
-0.000458479
-0.00045849
-0.000458729
-0.000458989
-0.00045919
-0.00045944
-0.00045963
-0.000459872
-0.000460062
-0.000460275
-0.000460606
-0.000460781
-0.000460953
-0.000461284
-0.000461616
-0.000461932
-0.000462182
-0.00046248
-0.000462871
-0.000463188
-0.00046343
-0.00046378
-0.00046416
-0.000464603
-0.000464968
-0.000465333
-0.00914978
-0.00914916
-0.00914838
-0.00914762
-0.00914682
-0.00914597
-0.00914527
-0.00914444
-0.00914357
-0.00914279
-0.00914212
-0.00914131
-0.0091404
-0.00913959
-0.00913889
-0.00913811
-0.00913726
-0.00913652
-0.00913567
-0.00913479
-0.00913396
-0.00913319
-0.00913248
-0.00913159
-0.00913086
-0.00913001
-0.00912922
-0.00912847
-0.00912759
-0.0091269
-0.00912618
-0.00912547
-0.00912465
-0.00912383
-0.00912312
-0.0091224
-0.00912153
-0.00912097
-0.00912025
-0.00911954
-0.0091188
-0.00911827
-0.00911745
-0.00911679
-0.00911624
-0.00911546
-0.00911487
-0.00911419
-0.00911367
-0.009113
-0.00911258
-0.00911178
-0.00911129
-0.00911066
-0.00911022
-0.00910968
-0.00910912
-0.00910869
-0.00910817
-0.00910776
-0.00910714
-0.00910685
-0.00910631
-0.00910599
-0.00910551
-0.00910517
-0.00910472
-0.00910437
-0.00910411
-0.00910382
-0.00910343
-0.00910317
-0.0091029
-0.00910262
-0.00910238
-0.00910213
-0.00910195
-0.00910168
-0.00910157
-0.00910142
-0.00910121
-0.00910105
-0.00910098
-0.00910094
-0.00910084
-0.00910073
-0.00910076
-0.0091007
-0.00910069
-0.00910067
-0.00910074
-0.00910077
-0.00910071
-0.00910103
-0.00910097
-0.0091011
-0.00910127
-0.00910145
-0.0091016
-0.00910182
-0.00910189
-0.0191348
-0.0191337
-0.0191326
-0.0191316
-0.0191304
-0.0191292
-0.0191281
-0.0191269
-0.0191256
-0.0191244
-0.0191232
-0.0191222
-0.0191209
-0.0191197
-0.0191184
-0.0191173
-0.019116
-0.0191149
-0.0191136
-0.0191124
-0.019111
-0.01911
-0.0191087
-0.0191074
-0.0191063
-0.019105
-0.0191037
-0.0191025
-0.0191013
-0.0191001
-0.0190988
-0.0190976
-0.0190963
-0.0190952
-0.0190941
-0.0190928
-0.0190917
-0.0190904
-0.0190892
-0.019088
-0.0190869
-0.0190858
-0.0190846
-0.0190833
-0.0190823
-0.019081
-0.01908
-0.0190789
-0.0190778
-0.0190767
-0.0190756
-0.0190744
-0.0190733
-0.0190725
-0.0190714
-0.0190704
-0.0190693
-0.0190684
-0.0190674
-0.0190664
-0.0190655
-0.0190644
-0.0190634
-0.0190625
-0.0190616
-0.0190607
-0.0190598
-0.019059
-0.0190582
-0.0190572
-0.0190564
-0.0190556
-0.0190548
-0.0190541
-0.0190531
-0.0190524
-0.0190518
-0.019051
-0.0190503
-0.0190497
-0.0190489
-0.0190483
-0.0190477
-0.0190469
-0.0190463
-0.0190457
-0.0190452
-0.0190446
-0.0190439
-0.0190435
-0.019043
-0.0190425
-0.0190421
-0.0190415
-0.0190413
-0.0190407
-0.0190403
-0.01904
-0.0190395
-0.0190393
-0.0190388
-0.0162552
-0.0162545
-0.0162539
-0.0162532
-0.0162524
-0.0162518
-0.016251
-0.0162503
-0.0162497
-0.0162491
-0.0162483
-0.0162474
-0.0162468
-0.0162462
-0.0162454
-0.0162445
-0.0162439
-0.0162431
-0.0162424
-0.0162415
-0.0162411
-0.0162402
-0.0162394
-0.0162387
-0.0162379
-0.016237
-0.0162363
-0.0162354
-0.0162346
-0.0162338
-0.016233
-0.0162322
-0.0162314
-0.0162304
-0.0162297
-0.0162288
-0.016228
-0.0162271
-0.0162263
-0.0162254
-0.0162246
-0.0162236
-0.0162228
-0.016222
-0.016221
-0.0162199
-0.016219
-0.0162182
-0.0162172
-0.0162162
-0.0162153
-0.0162142
-0.0162132
-0.0162123
-0.0162115
-0.0162103
-0.0162093
-0.0162082
-0.0162072
-0.0162063
-0.0162052
-0.016204
-0.016203
-0.0162019
-0.0162008
-0.0161998
-0.0161985
-0.0161974
-0.0161964
-0.0161953
-0.016194
-0.0161928
-0.0161917
-0.0161906
-0.0161893
-0.0161881
-0.0161868
-0.0161857
-0.0161844
-0.0161832
-0.0161819
-0.0161806
-0.0161794
-0.0161781
-0.0161769
-0.0161754
-0.0161742
-0.0161727
-0.0161715
-0.0161701
-0.0161688
-0.0161674
-0.0161661
-0.0161646
-0.0161631
-0.0161618
-0.0161603
-0.0161588
-0.0161574
-0.0161558
-0.0161544
0.0231374
0.0231372
0.0231373
0.0231371
0.023137
0.0231369
0.0231369
0.0231365
0.0231363
0.0231363
0.0231358
0.0231357
0.0231354
0.023135
0.0231347
0.0231343
0.023134
0.0231338
0.0231334
0.0231332
0.0231327
0.0231323
0.023132
0.0231316
0.0231312
0.0231307
0.0231305
0.0231303
0.0231301
0.0231297
0.0231291
0.023129
0.0231289
0.0231285
0.0231282
0.023128
0.0231279
0.0231277
0.0231276
0.0231275
0.0231276
0.0231272
0.0231272
0.0231274
0.0231273
0.0231276
0.0231274
0.0231276
0.0231277
0.0231281
0.0231283
0.0231286
0.0231289
0.0231292
0.0231298
0.0231302
0.0231307
0.0231312
0.0231319
0.0231326
0.0231333
0.023134
0.0231348
0.0231358
0.0231367
0.0231377
0.0231387
0.0231396
0.0231406
0.0231421
0.0231433
0.0231446
0.0231458
0.0231474
0.023149
0.0231505
0.023152
0.0231537
0.0231554
0.0231572
0.0231592
0.0231611
0.0231631
0.0231652
0.0231672
0.0231696
0.0231717
0.023174
0.0231765
0.0231789
0.0231815
0.023184
0.0231868
0.0231895
0.0231924
0.0231951
0.0231983
0.0232013
0.0232042
0.0232073
0.0232107
0.116304
0.116305
0.116305
0.116304
0.116304
0.116304
0.116303
0.116303
0.116302
0.116302
0.116301
0.1163
0.116299
0.116298
0.116298
0.116296
0.116295
0.116294
0.116293
0.116292
0.11629
0.116289
0.116288
0.116287
0.116285
0.116284
0.116282
0.116281
0.11628
0.116278
0.116277
0.116275
0.116274
0.116272
0.116271
0.116269
0.116268
0.116267
0.116266
0.116264
0.116263
0.116262
0.116261
0.11626
0.116259
0.116258
0.116257
0.116256
0.116255
0.116254
0.116254
0.116253
0.116252
0.116252
0.116252
0.116251
0.116251
0.116251
0.116251
0.116251
0.116251
0.116251
0.116251
0.116252
0.116252
0.116253
0.116253
0.116254
0.116255
0.116256
0.116257
0.116258
0.11626
0.116261
0.116263
0.116265
0.116266
0.116268
0.11627
0.116272
0.116275
0.116277
0.116279
0.116282
0.116285
0.116288
0.116291
0.116294
0.116298
0.116301
0.116305
0.116308
0.116312
0.116316
0.11632
0.116324
0.116329
0.116333
0.116338
0.116343
0.116348
0.260233
0.260235
0.260237
0.260238
0.260239
0.260239
0.26024
0.260241
0.260242
0.260241
0.260242
0.260241
0.260241
0.26024
0.26024
0.260239
0.260238
0.260237
0.260236
0.260235
0.260233
0.260232
0.260231
0.260229
0.260227
0.260226
0.260224
0.260222
0.26022
0.260218
0.260216
0.260215
0.260212
0.260211
0.260208
0.260206
0.260204
0.260202
0.2602
0.260198
0.260196
0.260194
0.260192
0.26019
0.260188
0.260186
0.260185
0.260183
0.260181
0.26018
0.260178
0.260177
0.260176
0.260174
0.260173
0.260172
0.260171
0.260169
0.260169
0.260168
0.260168
0.260167
0.260167
0.260166
0.260166
0.260166
0.260166
0.260166
0.260167
0.260167
0.260167
0.260168
0.260169
0.26017
0.260171
0.260173
0.260175
0.260176
0.260178
0.26018
0.260182
0.260184
0.260187
0.26019
0.260192
0.260195
0.260198
0.260202
0.260205
0.260209
0.260213
0.260217
0.260222
0.260226
0.260231
0.260235
0.260241
0.260246
0.260251
0.260257
0.260262
0.427622
0.427626
0.427631
0.427634
0.427638
0.427641
0.427645
0.427647
0.42765
0.427652
0.427653
0.427655
0.427657
0.427657
0.427659
0.427659
0.427659
0.42766
0.42766
0.42766
0.42766
0.427659
0.427659
0.427659
0.427657
0.427656
0.427655
0.427654
0.427653
0.427651
0.42765
0.427648
0.427647
0.427644
0.427643
0.427641
0.427639
0.427637
0.427635
0.427633
0.427631
0.427629
0.427627
0.427625
0.427622
0.427621
0.427619
0.427616
0.427614
0.427612
0.42761
0.427609
0.427607
0.427605
0.427604
0.427601
0.4276
0.427599
0.427597
0.427596
0.427595
0.427593
0.427592
0.427592
0.427591
0.42759
0.427589
0.427589
0.427588
0.427588
0.427588
0.427588
0.427589
0.427589
0.42759
0.42759
0.427591
0.427592
0.427593
0.427595
0.427596
0.427598
0.4276
0.427602
0.427604
0.427606
0.427609
0.427612
0.427615
0.427618
0.427622
0.427625
0.427629
0.427633
0.427637
0.427641
0.427646
0.427651
0.427656
0.427661
0.427667
0.576609
0.576617
0.576623
0.57663
0.576636
0.576642
0.576647
0.576652
0.576656
0.57666
0.576665
0.576669
0.576672
0.576675
0.576677
0.576679
0.576682
0.576683
0.576685
0.576686
0.576688
0.576688
0.57669
0.57669
0.57669
0.57669
0.57669
0.576689
0.576689
0.576689
0.576688
0.576687
0.576686
0.576685
0.576684
0.576683
0.576681
0.576679
0.576678
0.576676
0.576675
0.576673
0.57667
0.576669
0.576667
0.576665
0.576663
0.57666
0.576659
0.576657
0.576654
0.576652
0.57665
0.576648
0.576646
0.576644
0.576642
0.57664
0.576637
0.576636
0.576634
0.576632
0.576631
0.576628
0.576627
0.576626
0.576625
0.576623
0.576622
0.576621
0.57662
0.576619
0.576619
0.576618
0.576616
0.576617
0.576617
0.576616
0.576617
0.576616
0.576617
0.576617
0.576617
0.576618
0.576619
0.576621
0.576621
0.576623
0.576624
0.576626
0.576628
0.57663
0.576632
0.576635
0.576637
0.57664
0.576643
0.576646
0.576649
0.576653
0.576656
0.661604
0.661611
0.661619
0.661627
0.661634
0.66164
0.661646
0.661653
0.661658
0.661663
0.661668
0.661672
0.661676
0.661681
0.661683
0.661687
0.66169
0.661691
0.661694
0.661696
0.661698
0.661699
0.661701
0.661701
0.661703
0.661703
0.661704
0.661704
0.661704
0.661704
0.661704
0.661703
0.661702
0.661701
0.6617
0.661699
0.661697
0.661696
0.661695
0.661693
0.661691
0.661689
0.661687
0.661685
0.661683
0.661681
0.661679
0.661677
0.661674
0.661672
0.661669
0.661667
0.661664
0.661661
0.661659
0.661656
0.661653
0.661651
0.661648
0.661647
0.661643
0.661641
0.661638
0.661636
0.661633
0.661631
0.661628
0.661626
0.661623
0.661622
0.66162
0.661617
0.661615
0.661613
0.661611
0.66161
0.661607
0.661606
0.661604
0.661603
0.661601
0.661601
0.661599
0.661598
0.661597
0.661595
0.661596
0.661595
0.661594
0.661593
0.661593
0.661593
0.661593
0.661593
0.661593
0.661594
0.661594
0.661595
0.661595
0.661597
0.661598
0.664088
0.664096
0.664104
0.66411
0.664117
0.664124
0.664129
0.664135
0.664141
0.664145
0.664149
0.664154
0.664158
0.664161
0.664165
0.664168
0.664171
0.664173
0.664175
0.664178
0.66418
0.664182
0.664183
0.664184
0.664185
0.664186
0.664186
0.664186
0.664187
0.664186
0.664186
0.664185
0.664185
0.664185
0.664184
0.664183
0.664182
0.66418
0.664179
0.664178
0.664176
0.664174
0.664173
0.664171
0.664168
0.664167
0.664164
0.664162
0.66416
0.664158
0.664154
0.664152
0.66415
0.664147
0.664145
0.664141
0.664138
0.664136
0.664133
0.66413
0.664127
0.664125
0.664122
0.664118
0.664116
0.664114
0.66411
0.664107
0.664105
0.664102
0.664099
0.664097
0.664093
0.664091
0.664088
0.664086
0.664083
0.66408
0.664078
0.664076
0.664074
0.664071
0.664069
0.664067
0.664064
0.664063
0.66406
0.664059
0.664056
0.664055
0.664053
0.664052
0.66405
0.664049
0.664047
0.664047
0.664045
0.664044
0.664042
0.664043
0.664041
0.599282
0.599288
0.599294
0.5993
0.599306
0.59931
0.599316
0.59932
0.599325
0.599329
0.599333
0.599337
0.59934
0.599343
0.599347
0.599349
0.599352
0.599354
0.599356
0.599357
0.59936
0.599361
0.599363
0.599363
0.599365
0.599365
0.599365
0.599367
0.599366
0.599367
0.599366
0.599366
0.599366
0.599366
0.599366
0.599365
0.599364
0.599363
0.599361
0.599361
0.599359
0.599357
0.599356
0.599355
0.599354
0.599352
0.59935
0.599348
0.599346
0.599345
0.599343
0.59934
0.599338
0.599335
0.599333
0.599331
0.599328
0.599327
0.599324
0.599322
0.599319
0.599316
0.599314
0.599312
0.599309
0.599306
0.599304
0.599302
0.599299
0.599296
0.599293
0.599292
0.599289
0.599286
0.599284
0.599281
0.599278
0.599276
0.599273
0.599271
0.599269
0.599267
0.599264
0.599262
0.599259
0.599257
0.599255
0.599253
0.599251
0.599249
0.599248
0.599245
0.599244
0.599242
0.59924
0.599238
0.599236
0.599235
0.599234
0.599232
0.59923
0.490605
0.49061
0.490615
0.49062
0.490623
0.490627
0.490631
0.490634
0.490637
0.49064
0.490643
0.490646
0.490648
0.490651
0.490652
0.490656
0.490657
0.490659
0.49066
0.490662
0.490663
0.490664
0.490665
0.490666
0.490667
0.490667
0.490668
0.490668
0.490668
0.490669
0.490669
0.490669
0.490668
0.490668
0.490668
0.490667
0.490667
0.490667
0.490665
0.490665
0.490664
0.490663
0.490661
0.49066
0.490659
0.490658
0.490657
0.490656
0.490653
0.490652
0.490651
0.490649
0.490648
0.490646
0.490645
0.490643
0.490641
0.490639
0.490637
0.490636
0.490634
0.490631
0.49063
0.490628
0.490626
0.490624
0.490622
0.49062
0.490618
0.490617
0.490615
0.490613
0.490611
0.490608
0.490607
0.490605
0.490603
0.490601
0.490599
0.490597
0.490595
0.490594
0.490592
0.49059
0.490588
0.490586
0.490584
0.490583
0.490581
0.490579
0.490578
0.490576
0.490574
0.490573
0.490572
0.49057
0.490568
0.490567
0.490566
0.490565
0.490563
0.361548
0.361552
0.361554
0.361557
0.361559
0.361561
0.361564
0.361565
0.361567
0.361569
0.361571
0.361572
0.361575
0.361576
0.361577
0.361578
0.361579
0.36158
0.361581
0.361582
0.361582
0.361583
0.361584
0.361584
0.361584
0.361584
0.361585
0.361585
0.361584
0.361585
0.361585
0.361585
0.361585
0.361585
0.361584
0.361584
0.361584
0.361583
0.361583
0.361582
0.361581
0.361581
0.36158
0.36158
0.361578
0.361578
0.361577
0.361576
0.361575
0.361574
0.361573
0.361572
0.361571
0.36157
0.361569
0.361568
0.361567
0.361566
0.361565
0.361563
0.361562
0.361561
0.36156
0.361559
0.361558
0.361556
0.361555
0.361554
0.361553
0.361552
0.36155
0.36155
0.361548
0.361547
0.361546
0.361545
0.361544
0.361542
0.361541
0.36154
0.361539
0.361538
0.361536
0.361536
0.361534
0.361534
0.361532
0.361531
0.361531
0.36153
0.361528
0.361527
0.361527
0.361526
0.361525
0.361524
0.361523
0.361522
0.361522
0.361521
0.36152
0.237089
0.23709
0.237091
0.237092
0.237094
0.237095
0.237095
0.237096
0.237097
0.237098
0.237098
0.237099
0.237099
0.2371
0.2371
0.237101
0.237101
0.237102
0.237102
0.237102
0.237103
0.237102
0.237103
0.237103
0.237103
0.237103
0.237102
0.237103
0.237102
0.237102
0.237102
0.237102
0.237102
0.237102
0.237101
0.237101
0.2371
0.2371
0.2371
0.237099
0.2371
0.237099
0.237099
0.237098
0.237098
0.237098
0.237097
0.237097
0.237096
0.237095
0.237096
0.237094
0.237094
0.237094
0.237093
0.237093
0.237092
0.237092
0.237091
0.23709
0.23709
0.237089
0.237089
0.237089
0.237088
0.237088
0.237087
0.237087
0.237086
0.237085
0.237085
0.237084
0.237084
0.237083
0.237083
0.237082
0.237082
0.237081
0.237081
0.237081
0.237081
0.23708
0.23708
0.237079
0.237079
0.237079
0.237078
0.237078
0.237078
0.237078
0.237078
0.237078
0.237077
0.237077
0.237077
0.237077
0.237076
0.237076
0.237076
0.237076
0.237076
0.136803
0.136803
0.136803
0.136803
0.136803
0.136803
0.136803
0.136803
0.136803
0.136803
0.136803
0.136803
0.136803
0.136803
0.136803
0.136802
0.136803
0.136803
)
;

boundaryField
{
    movingWall
    {
        type            zeroGradient;
    }
    fixedWalls
    {
        type            zeroGradient;
    }
    frontAndBack
    {
        type            empty;
    }
}

