/*--------------------------------*- C++ -*----------------------------------*\
| =========                 |                                                 |
| \\      /  F ield         | OpenFOAM: The Open Source CFD Toolbox           |
|  \\    /   O peration     | Version:  v2006                                 |
|   \\  /    A nd           | Website:  www.openfoam.com                      |
|    \\/     M anipulation  |                                                 |
\*---------------------------------------------------------------------------*/
FoamFile
{
    version     2.0;
    format      ascii;
    class       volScalarField;
    location    "0";
    object      f;
}
// * * * * * * * * * * * * * * * * * * * * * * * * * * * * * * * * * * * * * //

dimensions      [0 0 0 0 0 0 0];


internalField   nonuniform List<scalar> 
2500
(
-3.09182e-23
-3.08745e-23
-3.05699e-23
-2.95487e-23
-2.73568e-23
-2.38765e-23
-1.93479e-23
-1.40529e-23
-8.14672e-24
-2.06155e-24
3.06632e-24
5.8291e-24
5.66879e-24
3.52024e-24
1.19781e-24
5.93218e-26
2.05551e-25
8.30028e-25
1.13975e-24
9.0919e-25
3.81456e-25
-1.09335e-25
-3.85336e-25
-4.46024e-25
-3.77018e-25
-2.6542e-25
-1.63793e-25
-9.09963e-26
-4.62483e-26
-2.17285e-26
-9.50172e-27
-3.88371e-27
-1.48661e-27
-5.32583e-28
-1.77861e-28
-5.48355e-29
-1.5278e-29
-3.65275e-30
-6.30864e-31
3.75648e-33
7.26546e-32
4.61516e-32
2.15681e-32
8.76332e-33
3.26625e-33
1.1445e-33
3.82164e-34
1.22627e-34
3.80241e-35
1.14388e-35
-1.24019e-22
-1.23858e-22
-1.22708e-22
-1.18681e-22
-1.09773e-22
-9.54813e-23
-7.71729e-23
-5.65603e-23
-3.42684e-23
-1.1258e-23
8.75862e-24
2.02862e-23
2.04855e-23
1.2378e-23
3.02456e-24
-1.78345e-24
-1.21313e-24
1.60831e-24
3.33004e-24
2.85833e-24
1.08804e-24
-6.43198e-25
-1.60309e-24
-1.76932e-24
-1.46423e-24
-1.01647e-24
-6.20334e-25
-3.41342e-25
-1.72009e-25
-8.01948e-26
-3.48278e-26
-1.41494e-26
-5.38836e-27
-1.92268e-27
-6.40503e-28
-1.97443e-28
-5.52381e-29
-1.33943e-29
-2.43637e-30
-7.68971e-32
2.18331e-31
1.47403e-31
7.01159e-32
2.87079e-32
1.07435e-32
3.7743e-33
1.26284e-33
4.05992e-34
1.26147e-34
3.80356e-35
-4.78704e-22
-4.78146e-22
-4.74096e-22
-4.59097e-22
-4.24571e-22
-3.68171e-22
-2.96727e-22
-2.1942e-22
-1.38724e-22
-5.50133e-23
2.08743e-23
6.80916e-23
7.28546e-23
4.36535e-23
6.98384e-24
-1.30429e-23
-1.1195e-23
8.56906e-25
9.27048e-24
8.95197e-24
3.11361e-24
-2.95939e-24
-6.29794e-24
-6.74194e-24
-5.49014e-24
-3.76496e-24
-2.27333e-24
-1.23876e-24
-6.18589e-25
-2.85965e-25
-1.23215e-25
-4.96947e-26
-1.87995e-26
-6.66868e-27
-2.21058e-27
-6.78989e-28
-1.89709e-28
-4.6171e-29
-8.57646e-30
-4.12701e-31
6.67529e-31
4.67063e-31
2.24038e-31
9.19814e-32
3.44578e-32
1.21123e-32
4.05534e-33
1.30508e-33
4.06116e-34
1.22702e-34
-1.77413e-21
-1.77231e-21
-1.7592e-21
-1.70691e-21
-1.57976e-21
-1.36611e-21
-1.0972e-21
-8.1867e-22
-5.40342e-22
-2.49028e-22
2.97738e-23
2.19386e-22
2.55683e-22
1.56157e-22
1.62042e-23
-6.62496e-23
-6.22461e-23
-1.33351e-23
2.45548e-23
2.84081e-23
9.39814e-24
-1.18651e-23
-2.35306e-23
-2.47366e-23
-1.98957e-23
-1.34934e-23
-8.06169e-24
-4.34824e-24
-2.15007e-24
-9.84593e-25
-4.20414e-25
-1.681e-25
-6.30699e-26
-2.21976e-26
-7.30361e-27
-2.22768e-27
-6.18415e-28
-1.49679e-28
-2.77182e-29
-1.38293e-30
2.09552e-30
1.46708e-30
7.0178e-31
2.87289e-31
1.07364e-31
3.76761e-32
1.2604e-32
4.05656e-33
1.26362e-33
3.82518e-34
-6.29837e-21
-6.29277e-21
-6.25476e-21
-6.08661e-21
-5.64411e-21
-4.86794e-21
-3.89127e-21
-2.93002e-21
-2.02428e-21
-1.06283e-21
-7.32735e-23
6.72019e-22
8.86652e-22
5.70627e-22
5.09917e-23
-2.84738e-22
-2.885e-22
-9.93485e-23
6.16518e-23
9.28549e-23
3.15305e-23
-4.29527e-23
-8.3993e-23
-8.75514e-23
-6.97407e-23
-4.68026e-23
-2.76585e-23
-1.47552e-23
-7.21718e-24
-3.27001e-24
-1.38182e-24
-5.46902e-25
-2.03138e-25
-7.07804e-26
-2.30523e-26
-6.95653e-27
-1.90844e-27
-4.55054e-28
-8.20397e-29
-3.09334e-30
6.7399e-30
4.54902e-30
2.14457e-30
8.70063e-31
3.23149e-31
1.12928e-31
3.76871e-32
1.21196e-32
3.77781e-33
1.14594e-33
-2.13648e-20
-2.13483e-20
-2.12548e-20
-2.07698e-20
-1.93278e-20
-1.66237e-20
-1.31938e-20
-1.00249e-20
-7.28878e-21
-4.32265e-21
-9.44231e-22
1.91746e-21
3.03422e-21
2.12877e-21
2.55131e-22
-1.09519e-21
-1.20871e-21
-5.10601e-22
1.44546e-22
3.15457e-22
1.19134e-22
-1.42086e-22
-2.87361e-22
-2.99374e-22
-2.36608e-22
-1.57112e-22
-9.17647e-23
-4.83648e-23
-2.33703e-23
-1.04613e-23
-4.36771e-24
-1.70796e-24
-6.26684e-25
-2.15617e-25
-6.92856e-26
-2.05971e-26
-5.54868e-27
-1.28892e-27
-2.19605e-28
-1.67809e-30
2.18839e-29
1.38084e-29
6.34252e-30
2.53382e-30
9.31394e-31
3.23237e-31
1.07426e-31
3.44895e-32
1.07572e-32
3.27158e-33
-6.90577e-20
-6.90091e-20
-6.88407e-20
-6.76666e-20
-6.33373e-20
-5.42939e-20
-4.25906e-20
-3.2631e-20
-2.51935e-20
-1.68743e-20
-5.85325e-21
4.85526e-21
1.01981e-20
8.0412e-21
1.50122e-21
-3.8501e-21
-4.74166e-21
-2.28304e-21
2.98265e-22
1.1112e-21
4.88011e-22
-4.2877e-22
-9.44681e-22
-9.90364e-22
-7.77324e-22
-5.10332e-22
-2.94206e-22
-1.52956e-22
-7.28908e-23
-3.21764e-23
-1.32464e-23
-5.10606e-24
-1.84579e-24
-6.25046e-25
-1.9735e-25
-5.74735e-26
-1.50776e-26
-3.36029e-27
-5.16184e-28
2.75979e-29
7.00544e-29
4.04872e-29
1.79232e-29
7.0011e-30
2.5344e-30
8.70521e-31
2.87543e-31
9.20985e-32
2.87562e-32
8.78162e-33
-2.12056e-19
-2.11907e-19
-2.11839e-19
-2.09972e-19
-1.98402e-19
-1.69268e-19
-1.30118e-19
-1.00282e-19
-8.33869e-20
-6.35289e-20
-2.95526e-20
9.39046e-21
3.339e-20
3.03946e-20
8.39648e-21
-1.2433e-20
-1.77673e-20
-9.52951e-21
4.0533e-22
4.01385e-21
2.05826e-21
-1.15967e-21
-2.99081e-21
-3.17402e-21
-2.4738e-21
-1.6033e-21
-9.10527e-22
-4.65967e-22
-2.18518e-22
-9.49038e-23
-3.84255e-23
-1.45578e-23
-5.16639e-24
-1.71441e-24
-5.2886e-25
-1.49699e-25
-3.77784e-26
-7.88281e-27
-9.90066e-28
1.89654e-28
2.14902e-28
1.12325e-28
4.73679e-29
1.79255e-29
6.34506e-30
2.14624e-30
7.02644e-31
2.24426e-31
7.02732e-32
2.16271e-32
-6.1653e-19
-6.16027e-19
-6.17081e-19
-6.19058e-19
-5.93996e-19
-5.02887e-19
-3.72621e-19
-2.87103e-19
-2.62913e-19
-2.31241e-19
-1.34228e-19
2.98614e-21
1.05402e-19
1.13836e-19
4.29052e-20
-3.64926e-20
-6.43879e-20
-3.83594e-20
-7.52327e-22
1.46862e-20
8.63857e-21
-2.66527e-21
-9.14033e-21
-9.87019e-21
-7.62845e-21
-4.86827e-21
-2.71601e-21
-1.36438e-21
-6.27864e-22
-2.67478e-22
-1.06153e-22
-3.93701e-23
-1.36496e-23
-4.41062e-24
-1.318e-24
-3.58137e-25
-8.51593e-26
-1.58663e-26
-1.1785e-27
8.32942e-28
6.10111e-28
2.84635e-28
1.12316e-28
4.04916e-29
1.38154e-29
4.55394e-30
1.46968e-30
4.68238e-31
1.47881e-31
4.63309e-32
-1.69069e-18
-1.68889e-18
-1.69405e-18
-1.72986e-18
-1.70241e-18
-1.42196e-18
-9.8248e-19
-7.45406e-19
-7.80945e-19
-8.13867e-19
-5.67927e-19
-1.00626e-19
3.1781e-19
4.21264e-19
2.02626e-19
-9.33048e-20
-2.27241e-19
-1.51375e-19
-1.07599e-20
5.4012e-20
3.55807e-20
-4.28025e-21
-2.70509e-20
-2.98374e-20
-2.27978e-20
-1.42704e-20
-7.79146e-21
-3.82799e-21
-1.7222e-21
-7.16781e-22
-2.77535e-22
-1.00188e-22
-3.36828e-23
-1.04923e-23
-2.99361e-24
-7.63315e-25
-1.63858e-25
-2.40042e-26
1.2011e-27
2.85215e-27
1.51555e-27
6.0976e-28
2.14763e-28
7.00335e-29
2.18948e-29
6.75168e-30
2.10245e-30
6.70802e-31
2.1969e-31
7.31706e-32
-4.35401e-18
-4.3476e-18
-4.35824e-18
-4.56979e-18
-4.69134e-18
-3.82426e-18
-2.29226e-18
-1.64442e-18
-2.13545e-18
-2.76774e-18
-2.27283e-18
-7.32868e-19
9.13301e-19
1.55313e-18
9.02921e-19
-1.77511e-19
-7.82323e-19
-5.89754e-19
-6.98955e-20
1.9936e-19
1.43597e-19
1.64536e-21
-7.79509e-20
-8.79126e-20
-6.60325e-20
-4.03117e-20
-2.14281e-20
-1.0246e-20
-4.48408e-21
-1.81306e-21
-6.80205e-22
-2.36862e-22
-7.6262e-23
-2.24847e-23
-5.94933e-24
-1.35025e-24
-2.30371e-25
-1.09446e-26
1.30451e-26
7.62307e-27
2.84697e-27
8.30222e-28
1.88714e-28
2.7374e-29
-1.69458e-30
-3.07314e-30
-1.36678e-30
-4.04325e-31
-7.32691e-32
5.16439e-33
-1.04761e-17
-1.04554e-17
-1.04263e-17
-1.13781e-17
-1.25336e-17
-9.78895e-18
-4.21905e-18
-2.43893e-18
-5.11341e-18
-9.12943e-18
-8.68719e-18
-3.723e-18
2.53107e-18
5.82701e-18
3.87667e-18
-1.92948e-20
-2.61784e-18
-2.27169e-18
-3.76499e-19
7.4063e-19
5.70315e-19
5.53808e-20
-2.21087e-19
-2.53447e-19
-1.85347e-19
-1.09444e-19
-5.62356e-20
-2.5995e-20
-1.09885e-20
-4.27997e-21
-1.53857e-21
-5.08624e-22
-1.53025e-22
-4.09772e-23
-9.287e-24
-1.53377e-24
-4.56532e-26
9.45367e-26
4.68278e-26
1.29869e-26
1.16684e-27
-1.19255e-27
-9.9471e-28
-5.17419e-28
-2.19829e-28
-8.20341e-29
-2.76873e-29
-8.55697e-30
-2.4273e-30
-6.2722e-31
-2.34016e-17
-2.33457e-17
-2.29151e-17
-2.6578e-17
-3.28948e-17
-2.39591e-17
-2.98967e-18
1.94815e-18
-9.38701e-18
-2.97762e-17
-3.21092e-17
-1.59855e-17
6.83756e-18
2.29172e-17
1.63339e-17
2.18329e-18
-8.42947e-18
-8.64721e-18
-1.87007e-18
2.78158e-18
2.24553e-18
3.21979e-19
-6.30292e-19
-7.19094e-19
-5.03888e-19
-2.84343e-19
-1.39831e-19
-6.18964e-20
-2.50027e-20
-9.24958e-21
-3.12018e-21
-9.46313e-22
-2.49812e-22
-5.28286e-23
-6.34948e-24
1.26403e-24
1.17198e-24
4.48916e-25
9.39765e-26
-1.12988e-26
-2.41629e-26
-1.59255e-26
-7.90194e-27
-3.3656e-27
-1.2901e-27
-4.55202e-28
-1.49641e-28
-4.61307e-29
-1.33731e-29
-3.6438e-30
-4.81148e-17
-4.8018e-17
-4.52043e-17
-5.77247e-17
-8.65359e-17
-5.69297e-17
2.33689e-17
3.70602e-17
-5.83121e-18
-1.00654e-16
-1.18002e-16
-6.19252e-17
1.66333e-17
9.78164e-17
6.86273e-17
1.4865e-17
-2.5454e-17
-3.26132e-17
-8.87846e-18
1.05903e-17
8.86345e-18
1.36024e-18
-1.87173e-18
-2.02337e-18
-1.32425e-18
-7.01746e-19
-3.25622e-19
-1.3606e-19
-5.15726e-20
-1.76254e-20
-5.31223e-21
-1.33359e-21
-2.30007e-22
6.16365e-24
2.77181e-23
1.4955e-23
5.27488e-24
1.16718e-24
-4.8858e-26
-2.31898e-25
-1.64471e-25
-8.53772e-26
-3.78477e-26
-1.50973e-26
-5.55342e-27
-1.90929e-27
-6.18443e-28
-1.89639e-28
-5.51922e-29
-1.52572e-29
-8.98488e-17
-8.99879e-17
-7.55204e-17
-1.13677e-16
-2.38108e-16
-1.35199e-16
1.74643e-16
2.18327e-16
5.10232e-17
-3.98195e-16
-4.69509e-16
-2.30543e-16
3.15232e-17
5.3686e-16
2.95833e-16
6.69375e-17
-6.66628e-17
-1.2478e-16
-4.06803e-17
4.05489e-17
3.57585e-17
4.56274e-18
-6.05608e-18
-5.68718e-18
-3.34405e-18
-1.62267e-18
-6.95629e-19
-2.67804e-19
-9.17571e-20
-2.69488e-20
-6.04847e-21
-5.08081e-22
4.42548e-22
3.47877e-22
1.64076e-22
5.83983e-23
1.49177e-23
1.23795e-24
-1.54683e-24
-1.3558e-24
-7.65413e-25
-3.58859e-25
-1.49926e-25
-5.75383e-26
-2.06134e-26
-6.95989e-27
-2.22808e-27
-6.789e-28
-1.97351e-28
-5.47893e-29
-1.48747e-16
-1.51559e-16
-8.75226e-17
-1.94379e-16
-9.51635e-16
-3.10771e-16
9.11197e-16
1.27737e-15
2.92597e-16
-2.61242e-15
-1.72464e-15
-7.9711e-16
5.95512e-15
4.34491e-15
1.25068e-15
1.96898e-16
-2.05312e-16
-5.83012e-16
-1.80226e-16
1.57314e-16
1.55076e-16
9.96135e-18
-2.20384e-17
-1.59604e-17
-7.97399e-18
-3.41667e-18
-1.30754e-18
-4.40654e-19
-1.22258e-19
-2.14078e-20
3.16428e-21
5.46229e-21
3.36816e-21
1.53886e-21
5.68182e-22
1.63811e-22
2.75248e-23
-6.45058e-24
-9.33192e-24
-5.9672e-24
-3.00012e-24
-1.32019e-24
-5.29541e-25
-1.97545e-25
-6.93357e-26
-2.30633e-26
-7.30536e-27
-2.21057e-27
-6.40334e-28
-1.77763e-28
-2.05468e-16
-2.24992e-16
4.19108e-17
-3.00012e-15
-8.20896e-15
1.35005e-14
3.41763e-15
6.08313e-15
-7.21054e-14
-1.34829e-14
1.63183e-14
1.11828e-13
7.86505e-14
1.51766e-14
3.00144e-15
-2.006e-14
-1.1702e-14
-4.17442e-15
-6.43664e-16
2.04368e-15
8.28861e-16
-2.24557e-17
-9.03811e-17
-4.35375e-17
-1.70832e-17
-6.11843e-18
-1.94467e-18
-4.80588e-19
-3.87606e-20
5.34059e-20
4.77912e-20
2.72931e-20
1.25416e-20
4.84402e-21
1.53713e-21
3.46565e-22
5.44875e-24
-5.31596e-23
-4.11146e-23
-2.25371e-23
-1.05108e-23
-4.41675e-24
-1.7163e-24
-6.25584e-25
-2.15756e-25
-7.08123e-26
-2.22033e-26
-6.66909e-27
-1.9224e-27
-5.32384e-28
1.47354e-14
5.31653e-17
3.85539e-15
-3.96731e-14
-3.23538e-14
2.36981e-13
-3.94074e-14
-6.51949e-13
-8.43062e-13
4.86799e-13
1.65469e-12
1.23256e-12
2.78068e-13
-7.41109e-13
-5.98152e-13
-2.68295e-13
-8.00167e-14
-1.36255e-14
4.79837e-14
2.43434e-14
3.14949e-15
-1.16118e-15
-4.08919e-16
-1.01782e-16
-2.79422e-17
-7.46705e-18
-1.3948e-18
2.32698e-19
4.66974e-19
3.4262e-19
1.91044e-19
8.9825e-20
3.64284e-20
1.25313e-20
3.35998e-21
4.37912e-22
-2.32239e-22
-2.50775e-22
-1.53408e-22
-7.64034e-23
-3.37317e-23
-1.36655e-23
-5.17124e-24
-1.84717e-24
-6.27043e-25
-2.03221e-25
-6.30858e-26
-1.88012e-26
-5.38792e-27
-1.48621e-27
1.88777e-12
9.87864e-13
1.09512e-13
-1.60089e-13
1.38344e-12
8.58981e-13
-3.27273e-12
-5.99628e-12
-2.47173e-12
5.02104e-12
6.58396e-12
3.41707e-12
-1.05263e-11
-1.01337e-11
-3.55256e-12
-6.6877e-13
-1.716e-13
9.02964e-13
4.88747e-13
7.85062e-14
-3.69268e-14
-1.2977e-14
-1.14489e-15
-8.22824e-17
-1.02012e-17
1.73861e-18
3.7834e-18
3.22604e-18
2.10739e-18
1.16811e-18
5.67108e-19
2.42383e-19
8.97682e-20
2.72463e-20
5.43471e-21
-5.21865e-22
-1.33977e-21
-9.4886e-22
-5.09602e-22
-2.37215e-22
-1.00308e-22
-3.94084e-23
-1.45694e-23
-5.10932e-24
-1.7088e-24
-5.471e-25
-1.68139e-25
-4.96994e-26
-1.41487e-26
-3.88292e-27
9.03546e-12
8.89633e-12
5.65526e-12
4.98295e-12
1.08542e-11
-8.61488e-12
-1.85493e-11
-1.57389e-11
6.18526e-11
2.63133e-11
-9.76144e-12
-6.66769e-11
-9.85552e-11
-2.87535e-11
-6.13793e-12
1.17663e-11
1.70813e-11
7.66468e-12
1.3413e-12
-8.58572e-13
-3.38307e-13
-3.36715e-14
1.74989e-15
4.58865e-16
1.02671e-16
3.58906e-17
1.90536e-17
1.12073e-17
6.21548e-18
3.13614e-18
1.42091e-18
5.66823e-19
1.90799e-19
4.7641e-20
3.08631e-21
-6.08473e-21
-5.32772e-21
-3.12635e-21
-1.54088e-21
-6.81019e-22
-2.77806e-22
-1.06239e-22
-3.8451e-23
-1.32535e-23
-4.36955e-24
-1.38224e-24
-4.20498e-25
-1.23226e-25
-3.48266e-26
-9.50013e-27
1.85273e-11
2.63787e-11
3.47529e-11
4.97707e-11
2.77324e-11
-5.76539e-11
-5.36174e-11
3.67552e-10
8.96756e-10
1.34944e-10
-1.86753e-09
-1.44508e-09
-3.21524e-10
2.99296e-10
6.50477e-10
3.65084e-10
1.19711e-10
1.87382e-11
-1.74559e-11
-7.24232e-12
-7.92391e-13
4.39222e-14
1.25497e-14
1.11865e-15
1.61732e-16
7.36595e-17
4.66053e-17
2.78374e-17
1.49204e-17
7.23759e-18
3.13483e-18
1.16694e-18
3.41874e-19
5.30035e-20
-2.16019e-20
-2.70348e-20
-1.76608e-20
-9.26331e-21
-4.28499e-21
-1.81479e-21
-7.17352e-22
-2.67656e-22
-9.49561e-23
-3.21908e-23
-1.0465e-23
-3.27086e-24
-9.84753e-25
-2.85983e-25
-8.01917e-26
-2.17252e-26
2.77373e-11
4.75519e-11
1.12375e-10
1.83811e-10
-9.84669e-11
-1.42266e-10
5.06011e-09
8.62075e-09
4.23656e-09
-5.26358e-09
-8.93603e-09
-5.81139e-09
1.87261e-09
6.43548e-09
4.19495e-09
1.44857e-09
2.58117e-10
-2.82148e-10
-1.268e-10
-1.58604e-11
7.97632e-13
2.5761e-13
2.18333e-14
-4.98881e-16
-1.00615e-16
7.98044e-17
9.51829e-17
6.04436e-17
3.15881e-17
1.4915e-17
6.21042e-18
2.10402e-18
4.65089e-19
-3.97039e-20
-1.22691e-19
-9.19419e-20
-5.16466e-20
-2.50308e-20
-1.09986e-20
-4.48751e-21
-1.72331e-21
-6.28204e-22
-2.18616e-22
-7.29175e-23
-2.33769e-23
-7.21866e-24
-2.15034e-24
-6.18613e-25
-1.72e-25
-4.62411e-26
5.18088e-11
8.97244e-11
1.97644e-10
4.09683e-10
-1.7276e-09
7.14301e-09
2.97209e-08
3.46661e-08
8.78291e-09
-3.34601e-08
-1.63288e-08
-9.65503e-09
3.88822e-08
2.5944e-08
8.1684e-09
2.23329e-09
-3.98982e-09
-1.83835e-09
-2.57639e-10
1.15369e-11
4.06306e-12
4.0453e-13
-1.11219e-14
-3.22154e-15
-4.76607e-16
1.90867e-16
2.41837e-16
1.28285e-16
6.04234e-17
2.78176e-17
1.11936e-17
3.21806e-18
2.28563e-19
-4.82552e-19
-4.41522e-19
-2.68164e-19
-1.36201e-19
-6.19488e-20
-2.60134e-20
-1.02522e-20
-3.82996e-21
-1.36498e-21
-4.66136e-22
-1.53001e-22
-4.83757e-23
-1.47575e-23
-4.34861e-24
-1.23877e-24
-3.41316e-25
-9.09807e-26
6.83601e-11
4.43087e-10
-1.35786e-08
-8.81469e-09
-8.08265e-09
3.53943e-08
5.15031e-08
6.80484e-08
-2.79787e-07
-1.12956e-07
3.40093e-07
6.66307e-07
2.06838e-07
4.40781e-08
-1.22987e-07
-1.0506e-07
-3.29992e-08
-3.5793e-09
1.3586e-10
5.22363e-11
6.19728e-12
-1.19915e-13
-3.70638e-14
-5.02733e-15
9.25284e-16
1.93994e-15
7.85564e-16
2.4177e-16
9.51141e-17
4.65555e-17
1.90233e-17
3.76715e-18
-1.40276e-18
-1.9483e-18
-1.3091e-18
-6.9626e-19
-3.25865e-19
-1.3992e-19
-5.62664e-20
-2.14383e-20
-7.79466e-21
-2.71696e-21
-9.10792e-22
-2.94274e-22
-9.17803e-23
-2.76615e-23
-8.06202e-24
-2.27326e-24
-6.20264e-25
-1.63759e-25
-5.38202e-07
-5.65074e-07
-8.42054e-07
-8.20778e-07
-1.96947e-07
9.64382e-08
-9.59164e-07
-2.48585e-06
-2.34651e-06
8.62234e-07
4.56467e-06
3.81229e-06
4.522e-07
-2.83854e-06
-2.08728e-06
-7.22402e-07
-8.80007e-08
9.16841e-10
4.40939e-10
8.92696e-11
1.58466e-13
-2.20766e-13
1.04337e-14
1.05654e-13
6.74769e-14
1.98211e-14
1.93989e-15
1.90671e-16
7.96469e-17
7.35589e-17
3.58334e-17
1.70989e-18
-7.48043e-18
-6.12433e-18
-3.41914e-18
-1.62365e-18
-7.0212e-19
-2.84478e-19
-1.0949e-19
-4.03269e-20
-1.4275e-20
-4.86963e-21
-1.60367e-21
-5.10422e-22
-1.57131e-22
-4.68054e-23
-1.34933e-23
-3.76465e-24
-1.0163e-24
-2.6535e-25
-4.23984e-06
-4.18557e-06
-3.90825e-06
-3.75997e-06
-2.93923e-06
-5.02629e-06
-1.33083e-05
-1.49337e-05
-5.94151e-06
1.01675e-05
1.76167e-05
8.61437e-06
-1.7998e-05
-1.66079e-05
-7.28308e-06
-1.72587e-06
-7.52695e-08
9.18459e-10
5.28209e-10
1.01003e-10
1.22862e-13
3.16233e-14
6.65575e-13
6.36685e-13
3.13427e-13
6.74799e-14
9.25224e-16
-4.7711e-16
-1.00929e-16
1.6156e-16
1.02575e-16
-1.02448e-17
-2.79613e-17
-1.70913e-17
-7.97735e-18
-3.34539e-18
-1.32475e-18
-5.0407e-19
-1.85409e-19
-6.60526e-20
-2.28039e-20
-7.63016e-21
-2.47424e-21
-7.77421e-22
-2.36624e-22
-6.97408e-23
-1.98943e-23
-5.48929e-24
-1.46386e-24
-3.76878e-25
-1.15742e-05
-1.12742e-05
-8.65888e-06
-7.2124e-06
-1.29271e-05
-2.90178e-05
-4.23693e-05
-3.89347e-05
6.99763e-06
4.04635e-05
3.5816e-05
-8.35775e-05
-0.000101701
-3.57758e-05
-1.03782e-05
-1.91036e-06
5.59108e-09
2.15764e-09
4.23599e-10
1.08752e-10
8.01428e-12
1.66772e-11
4.13804e-12
1.51265e-12
6.36706e-13
1.05662e-13
-5.02936e-15
-3.22299e-15
-4.99388e-16
1.11832e-15
4.58706e-16
-8.23372e-17
-1.01803e-16
-4.35462e-17
-1.59641e-17
-5.68872e-18
-2.02396e-18
-7.19311e-19
-2.53521e-19
-8.79361e-20
-2.98443e-20
-9.87203e-21
-3.17444e-21
-9.90432e-22
-2.99373e-22
-8.7544e-23
-2.47321e-23
-6.73996e-24
-1.76855e-24
-4.45755e-25
-1.57715e-05
-1.53415e-05
-1.06988e-05
-7.08463e-06
-2.72787e-05
-6.94217e-05
-6.24038e-05
-4.02935e-05
0.000142994
7.35742e-05
-0.000409236
-0.000727809
-0.000263107
0.000677756
0.0018042
0.00209206
0.00159669
0.000777738
0.000187872
1.72164e-06
6.82876e-10
1.25493e-09
2.10166e-10
4.13819e-12
6.65597e-13
1.04324e-14
-3.70699e-14
-1.11243e-14
2.18308e-14
1.25484e-14
1.74961e-15
-1.14487e-15
-4.08918e-16
-9.03867e-17
-2.20418e-17
-6.05763e-18
-1.87235e-18
-6.3052e-19
-2.21164e-19
-7.79746e-20
-2.70574e-20
-9.14181e-21
-2.99102e-21
-9.44652e-22
-2.87318e-22
-8.39689e-23
-2.352e-23
-6.29378e-24
-1.6016e-24
-3.84832e-25
6.96323e-05
7.04022e-05
0.000117038
0.000126486
-7.35142e-06
-9.49624e-05
0.000127446
0.000843677
0.000682595
-0.00128777
-0.00381041
-0.00308323
0.00404409
0.0192765
0.0358036
0.0437062
0.0408777
0.0300687
0.0170133
0.00687013
0.0015294
3.37258e-05
1.25493e-09
1.66774e-11
3.1594e-14
-2.20797e-13
-1.19925e-13
4.04503e-13
2.57594e-13
4.3919e-14
-3.36696e-14
-1.29762e-14
-1.16111e-15
-2.24641e-17
9.95711e-18
4.561e-18
1.3596e-18
3.21756e-19
5.53107e-20
1.62612e-21
-4.28433e-21
-2.66558e-21
-1.15936e-21
-4.28521e-22
-1.41957e-22
-4.28962e-23
-1.18429e-23
-2.95127e-24
-6.40403e-25
-1.0842e-25
0.00103755
0.00105296
0.00124659
0.0012018
0.00045697
0.000221957
0.00224755
0.00415748
0.00156949
-0.00634463
-0.0126655
-0.00654453
0.0247042
0.0795583
0.138126
0.170405
0.16589
0.131248
0.0827972
0.0398435
0.012822
0.0015294
6.82911e-10
8.01362e-12
1.22625e-13
1.58261e-13
6.19697e-12
4.06287e-12
7.97591e-13
-7.92352e-13
-3.38289e-13
-3.69246e-14
3.14927e-15
8.28801e-16
1.55066e-16
3.57562e-17
8.86279e-18
2.24534e-18
5.7027e-19
1.43591e-19
3.55826e-20
8.64086e-21
2.05965e-21
4.88687e-22
1.19425e-22
3.1646e-23
9.44098e-24
3.12865e-24
1.09308e-24
3.83073e-25
0.00350314
0.00355586
0.00397727
0.00369578
0.00185475
0.0021706
0.00753812
0.0110021
0.00216186
-0.017329
-0.027827
-0.00477077
0.0700239
0.190972
0.319995
0.397602
0.39446
0.323491
0.214059
0.110139
0.0398435
0.00687013
1.72169e-06
1.08758e-10
1.01001e-10
8.92669e-11
5.22344e-11
1.15364e-11
-1.58597e-11
-7.24199e-12
-8.58529e-13
7.85014e-14
2.43418e-14
2.04355e-15
1.57316e-16
4.05486e-17
1.05902e-17
2.78159e-18
7.4066e-19
1.99384e-19
5.40263e-20
1.46935e-20
4.01722e-21
1.11264e-21
3.16031e-22
9.30711e-23
2.84856e-23
8.97852e-24
2.86705e-24
9.11948e-25
0.00707166
0.00718591
0.00785946
0.00713749
0.00411328
0.00531812
0.0154592
0.020447
0.00182917
-0.0335557
-0.0453853
0.00349262
0.134814
0.334955
0.548379
0.686688
0.69115
0.582288
0.398448
0.214059
0.0827972
0.0170133
0.000187873
4.23623e-10
5.28224e-10
4.40933e-10
1.35855e-10
-2.57628e-10
-1.26795e-10
-1.74551e-11
1.34122e-12
4.88718e-13
4.79807e-14
-6.43615e-16
-1.80211e-16
-4.06763e-17
-8.87724e-18
-1.86963e-18
-3.76321e-19
-6.9816e-20
-1.0724e-20
-7.36569e-22
4.11966e-22
3.0093e-22
1.45568e-22
6.20259e-23
2.46861e-23
9.31473e-24
3.3444e-24
1.14424e-24
0.00986439
0.010038
0.0108961
0.00983075
0.00571436
0.00777684
0.022397
0.0287557
0.000586292
-0.0488993
-0.0600907
0.0144248
0.195374
0.459967
0.7431
0.939361
0.959917
0.827515
0.582288
0.323491
0.131248
0.0300687
0.000777738
2.15772e-09
9.18497e-10
9.16824e-10
-3.57912e-09
-1.83827e-09
-2.82138e-10
1.87372e-11
7.66426e-12
9.02911e-13
-1.36246e-14
-4.17414e-15
-5.82984e-16
-1.24775e-16
-3.26113e-17
-8.64645e-18
-2.27136e-18
-5.89609e-19
-1.51312e-19
-3.83323e-20
-9.5184e-21
-2.27868e-21
-5.08955e-22
-9.8754e-23
-1.31288e-23
9.25773e-25
1.63047e-24
8.36912e-25
0.00977953
0.00995643
0.0109032
0.00978355
0.00517574
0.00726832
0.023548
0.0310721
-0.000397931
-0.0560258
-0.0668122
0.0190125
0.219661
0.50847
0.821798
1.05231
1.09278
0.959917
0.69115
0.39446
0.16589
0.0408777
0.00159669
5.593e-09
-7.52612e-08
-8.79956e-08
-3.29979e-08
-3.9897e-09
2.58105e-10
1.19705e-10
1.70804e-11
-1.7159e-13
-8.00122e-14
-1.17012e-14
-2.05321e-16
-6.66634e-17
-2.54531e-17
-8.42879e-18
-2.61746e-18
-7.82131e-19
-2.27152e-19
-6.4349e-20
-1.77512e-20
-4.73531e-21
-1.20632e-21
-2.87639e-22
-6.19485e-23
-1.10961e-23
-1.18141e-24
2.15368e-25
0.00513702
0.00524949
0.00617949
0.00553861
0.00121658
0.00175349
0.0156323
0.0248383
0.000108967
-0.0496999
-0.0640397
0.00774179
0.185823
0.451976
0.753357
0.990645
1.05231
0.939361
0.686688
0.397602
0.170405
0.0437061
0.00209206
-1.91027e-06
-1.72581e-06
-7.22377e-07
-1.05057e-07
2.23319e-09
1.4485e-09
3.65067e-10
1.17656e-11
-6.68746e-13
-2.68282e-13
-2.00585e-14
1.96891e-16
6.69344e-17
1.48645e-17
2.18362e-18
-1.89578e-20
-1.77304e-19
-9.31988e-20
-3.64439e-20
-1.24123e-20
-3.84183e-21
-1.09205e-21
-2.83605e-22
-6.58575e-23
-1.29125e-23
-1.7417e-24
7.22228e-26
-0.00127375
-0.00128159
-0.000617615
-0.000422982
-0.00322581
-0.00508132
0.00190757
0.0115921
0.00346937
-0.0273462
-0.049646
-0.0209314
0.0907455
0.2911
0.542062
0.753357
0.821798
0.7431
0.548379
0.319995
0.138126
0.0358035
0.0018042
-1.03779e-05
-7.2829e-06
-2.08722e-06
-1.22983e-07
8.16811e-09
4.19478e-09
6.50442e-10
-6.13782e-12
-3.55243e-12
-5.98111e-13
3.00154e-15
1.25065e-15
2.95821e-16
6.86248e-17
1.63338e-17
3.87694e-18
9.03134e-19
2.02744e-19
4.29611e-20
8.42073e-21
1.51103e-21
2.58877e-22
5.23512e-23
1.66759e-23
7.14083e-24
3.07484e-24
1.21335e-24
-0.00431987
-0.00442649
-0.00419041
-0.00340659
-0.00415262
-0.00724997
-0.00740841
-0.000152308
0.00694601
-0.0017244
-0.0283379
-0.0448438
-0.0083383
0.111274
0.2911
0.451976
0.50847
0.459967
0.334955
0.190972
0.0795582
0.0192765
0.000677755
-3.57752e-05
-1.66076e-05
-2.83847e-06
4.40785e-08
2.59433e-08
6.43517e-09
2.99261e-10
-2.87524e-11
-1.01331e-11
-7.41031e-13
1.51763e-14
4.3448e-15
5.36838e-16
9.78126e-17
2.29169e-17
5.8273e-18
1.55336e-18
4.21394e-19
1.13898e-19
3.04212e-20
8.05198e-21
2.13289e-21
5.72123e-22
1.56676e-22
4.38262e-23
1.24333e-23
3.53731e-24
-0.00253687
-0.00264812
-0.00280405
-0.00211893
-0.00120833
-0.00329278
-0.0072999
-0.00476801
0.0072131
0.012758
-0.00700349
-0.0444753
-0.05558
-0.0083383
0.0907454
0.185823
0.219661
0.195374
0.134814
0.0700239
0.0247043
0.0040441
-0.000263105
-0.0001017
-1.79977e-05
4.5222e-07
2.06841e-07
3.88812e-08
1.87219e-09
-3.21514e-10
-9.85495e-11
-1.05253e-11
2.78049e-13
7.86464e-14
5.95491e-15
3.15226e-17
1.66337e-17
6.83826e-18
2.5316e-18
9.13598e-19
3.17957e-19
1.05468e-19
3.34179e-20
1.02092e-20
3.03842e-21
8.88168e-22
2.56207e-22
7.30282e-23
2.05409e-23
5.68587e-24
0.000890658
0.000854618
0.000531108
0.000685879
0.0019195
0.00198994
-0.00135039
-0.00317871
0.00331368
0.0121975
0.00656037
-0.0190147
-0.0444753
-0.0448438
-0.0209314
0.00774177
0.0190125
0.0144248
0.00349264
-0.00477074
-0.0065445
-0.00308321
-0.000727805
-8.3577e-05
8.61425e-06
3.81223e-06
6.66297e-07
-9.65495e-09
-5.81131e-09
-1.44505e-09
-6.6668e-11
3.41682e-12
1.23248e-12
1.11822e-13
-7.9706e-16
-2.30528e-16
-6.19202e-17
-1.59836e-17
-3.72215e-18
-7.3249e-19
-1.0046e-19
3.05591e-21
9.41866e-21
4.86616e-21
1.9215e-21
6.7345e-22
2.19874e-22
6.82519e-23
2.0337e-23
5.84465e-24
0.00158914
0.00161764
0.00145641
0.00118158
0.0017323
0.00284079
0.00238159
-0.000317537
-0.00124095
0.00304882
0.00849805
0.00656038
-0.00700348
-0.0283379
-0.0496461
-0.0640397
-0.0668122
-0.0600907
-0.0453853
-0.027827
-0.0126655
-0.0038104
-0.000409233
3.58154e-05
1.76164e-05
4.5646e-06
3.40086e-07
-1.63283e-08
-8.93574e-09
-1.86746e-09
-9.76112e-12
6.58357e-12
1.6546e-12
1.6319e-14
-1.72451e-15
-4.69486e-16
-1.17996e-16
-3.21069e-17
-8.68619e-18
-2.27241e-18
-5.67748e-19
-1.34156e-19
-2.95246e-20
-5.84283e-21
-9.40498e-22
-7.19848e-23
3.02033e-23
2.10126e-23
8.80176e-24
3.07936e-24
-0.000114635
-7.34886e-05
-1.28281e-05
-0.000277903
-0.000606012
0.000101876
0.00139189
0.000588497
-0.00261354
-0.00320293
0.00304882
0.0121975
0.012758
-0.0017244
-0.0273461
-0.0496999
-0.0560258
-0.0488993
-0.0335557
-0.017329
-0.00634464
-0.00128778
7.35722e-05
4.04627e-05
1.01673e-05
8.62233e-07
-1.12953e-07
-3.34591e-08
-5.26339e-09
1.34946e-10
2.63132e-11
5.02095e-12
4.86792e-13
-1.34824e-14
-2.61232e-15
-3.98184e-16
-1.0065e-16
-2.9774e-17
-9.12837e-18
-2.76727e-18
-8.13669e-19
-2.31163e-19
-6.34998e-20
-1.68638e-20
-4.31908e-21
-1.06165e-21
-2.48648e-22
-5.4895e-23
-1.12222e-23
-2.05102e-24
-0.00123625
-0.00122218
-0.00111733
-0.00117467
-0.00160036
-0.00165242
-0.000719187
-4.03907e-05
-0.00113287
-0.00261354
-0.00124095
0.00331368
0.00721309
0.006946
0.00346938
0.000108996
-0.00039791
0.000586292
0.00182915
0.00216183
0.00156947
0.000682584
0.000142991
6.9969e-06
-5.94151e-06
-2.3465e-06
-2.79782e-07
8.78276e-09
4.23647e-09
8.96728e-10
6.18492e-11
-2.47167e-12
-8.4304e-13
-7.21024e-14
2.92574e-16
5.10216e-17
-5.82836e-18
-9.38466e-18
-5.11211e-18
-2.13485e-18
-7.80693e-19
-2.62816e-19
-8.33519e-20
-2.51815e-20
-7.28484e-21
-2.02303e-21
-5.39963e-22
-1.38612e-22
-3.4236e-23
-8.13762e-24
-0.000943187
-0.000939665
-0.000921346
-0.000946358
-0.0010283
-0.00108066
-0.00099867
-0.000701774
-4.03938e-05
0.000588499
-0.00031753
-0.00317871
-0.00476803
-0.000152319
0.0115921
0.0248384
0.0310721
0.0287557
0.020447
0.011002
0.00415746
0.000843667
-4.02955e-05
-3.89355e-05
-1.49339e-05
-2.48585e-06
6.80474e-08
3.46653e-08
8.62058e-09
3.67549e-10
-1.57382e-11
-5.99608e-12
-6.51943e-13
6.08267e-15
1.27725e-15
2.18319e-16
3.70645e-17
1.95187e-18
-2.43691e-18
-1.64351e-18
-7.45036e-19
-2.86965e-19
-1.00233e-19
-3.26149e-20
-1.00198e-20
-2.92847e-21
-8.18218e-22
-2.19292e-22
-5.65253e-23
-1.40435e-23
-0.000829009
-0.000810143
-0.000827442
-0.000956439
-0.000966423
-0.000600424
-0.00048701
-0.000998672
-0.000719191
0.0013919
0.0023816
-0.00135039
-0.00729992
-0.00740842
0.00190759
0.0156324
0.0235481
0.022397
0.0154592
0.00753808
0.00224753
0.000127437
-6.24072e-05
-4.2371e-05
-1.33087e-05
-9.59174e-07
5.15026e-08
2.97206e-08
5.06006e-09
-5.36149e-11
-1.85485e-11
-3.27264e-12
-3.94205e-14
3.41722e-15
9.1108e-16
1.74642e-16
2.33789e-17
-2.98302e-18
-4.21576e-18
-2.29083e-18
-9.8192e-19
-3.72416e-19
-1.30047e-19
-4.25677e-20
-1.31867e-20
-3.88917e-21
-1.09661e-21
-2.96563e-22
-7.71292e-23
-1.93366e-23
-0.00140234
-0.00136812
-0.00134102
-0.00156842
-0.00177858
-0.00126067
-0.000600422
-0.00108066
-0.00165242
0.000101878
0.0028408
0.00198994
-0.0032928
-0.00724999
-0.0050813
0.00175354
0.00726835
0.00777684
0.00531808
0.00217055
0.000221921
-9.49701e-05
-6.94275e-05
-2.90202e-05
-5.02665e-06
9.64428e-08
3.5395e-08
7.14318e-09
-1.42235e-10
-5.76456e-11
-8.61408e-12
8.58995e-13
2.36982e-13
1.35e-14
-3.10705e-16
-1.35158e-16
-5.69073e-17
-2.39479e-17
-9.78392e-18
-3.82218e-18
-1.42116e-18
-5.026e-19
-1.69171e-19
-5.42627e-20
-1.66142e-20
-4.86516e-21
-1.36533e-21
-3.67959e-22
-9.5426e-23
-2.38624e-23
-0.00170313
-0.00167341
-0.00161285
-0.00180011
-0.0021201
-0.00177858
-0.000966419
-0.0010283
-0.00160036
-0.000606011
0.0017323
0.0019195
-0.00120834
-0.00415264
-0.00322579
0.00121662
0.00517577
0.00571436
0.00411324
0.0018547
0.000456933
-7.36502e-06
-2.7285e-05
-1.29296e-05
-2.93964e-06
-1.96923e-07
-8.08143e-09
-1.72758e-09
-9.8509e-11
2.77326e-11
1.08545e-11
1.38355e-12
-3.23521e-14
-8.2083e-15
-9.51523e-16
-2.38055e-16
-8.65057e-17
-3.28797e-17
-1.25269e-17
-4.68859e-18
-1.70137e-18
-5.93625e-19
-1.98278e-19
-6.32979e-20
-1.93159e-20
-5.64066e-21
-1.5788e-21
-4.24315e-22
-1.09707e-22
-2.73401e-23
-0.00147222
-0.0014495
-0.00140062
-0.00154243
-0.00180011
-0.00156842
-0.000956436
-0.000946356
-0.00117467
-0.000277901
0.00118159
0.000685878
-0.00211895
-0.00340661
-0.000422965
0.00553865
0.00978358
0.00983075
0.00713745
0.00369573
0.00120177
0.00012647
-7.0873e-06
-7.21434e-06
-3.76055e-06
-8.20778e-07
-8.80347e-09
4.09728e-10
1.83822e-10
4.97722e-11
4.98303e-12
-1.60091e-13
-3.96706e-14
-2.99951e-15
-1.94302e-16
-1.13613e-16
-5.76866e-17
-2.65591e-17
-1.13698e-17
-4.56645e-18
-1.72861e-18
-6.18619e-19
-2.09827e-19
-6.76208e-20
-2.0756e-20
-6.08266e-21
-1.70583e-21
-4.58807e-22
-1.18606e-22
-2.953e-23
-0.00131144
-0.00128795
-0.00125191
-0.00140062
-0.00161285
-0.00134101
-0.000827438
-0.000921343
-0.00111733
-1.28263e-05
0.00145642
0.000531108
-0.00280406
-0.00419043
-0.000617598
0.00617953
0.0109032
0.0108961
0.00785942
0.00397722
0.00124656
0.000117026
-1.07011e-05
-8.66063e-06
-3.90886e-06
-8.42094e-07
-1.35671e-08
1.97738e-10
1.12402e-10
3.47544e-11
5.65399e-12
1.09485e-13
3.8552e-15
4.21474e-17
-8.73606e-17
-7.54262e-17