/*--------------------------------*- C++ -*----------------------------------*\
| =========                 |                                                 |
| \\      /  F ield         | OpenFOAM: The Open Source CFD Toolbox           |
|  \\    /   O peration     | Version:  v2006                                 |
|   \\  /    A nd           | Website:  www.openfoam.com                      |
|    \\/     M anipulation  |                                                 |
\*---------------------------------------------------------------------------*/
FoamFile
{
    version     2.0;
    format      ascii;
    class       volScalarField;
    location    "10.2";
    object      p;
}
// * * * * * * * * * * * * * * * * * * * * * * * * * * * * * * * * * * * * * //

dimensions      [1 -1 -2 0 0 0 0];


internalField   nonuniform List<scalar> 
52500
(
32567
32567
32566.9
32566.8
32566.7
32566.6
32566.5
32566.3
32566.1
32565.8
32565.5
32565.2
32564.9
32564.6
32564.2
32563.8
32563.3
32562.9
32562.4
32561.8
32561.3
32560.7
32560.1
32559.4
32558.7
32558
32557.2
32556.4
32555.5
32554.6
32553.7
32552.7
32551.6
32550.5
32549.4
32548.1
32546.8
32545.5
32544
32542.5
32540.9
32539.2
32537.5
32535.6
32533.6
32531.5
32529.4
32527.1
32524.7
32522.2
32519.5
32516.7
32513.8
32510.8
32507.6
32504.3
32500.8
32497.2
32493.4
32489.4
32485.3
32481
32476.5
32471.8
32467
32462
32456.8
32451.4
32445.7
32439.9
32433.9
32427.7
32421.2
32414.5
32407.6
32400.5
32393.1
32385.5
32377.7
32369.6
32361.3
32352.7
32343.9
32334.8
32325.4
32315.8
32306
32295.8
32285.4
32274.7
32263.7
32252.5
32241
32229.2
32217.1
32204.7
32192.1
32179.1
32165.9
32152.3
32138.5
32124.4
32110
32095.3
32080.3
32065.1
32049.5
32033.6
32017.5
32001
31984.3
31967.3
31950
31932.4
31914.5
31896.3
31877.9
31859.2
31840.2
31820.9
31801.4
31781.5
31761.5
31741.1
31720.6
31699.7
31678.6
31657.3
31635.7
31613.9
31591.8
31569.6
31547.1
31524.4
31501.4
31478.3
31455
31431.4
31407.7
31383.8
31359.7
31335.4
31311
31286.4
31261.7
31236.8
31211.8
31186.7
31161.4
31136
31110.6
31085
31059.3
31033.5
31007.6
30981.7
30955.7
30929.7
30903.6
30877.5
30851.3
30825.1
30798.9
30772.7
30746.5
30720.3
30694.1
30667.9
30641.8
30615.7
30589.7
30563.7
30537.8
30512
30486.2
30460.6
30435
30409.5
30384.2
30359
30333.9
30308.9
30284.1
30259.4
30234.9
30210.6
30186.4
30162.4
30138.6
30115
30091.6
30068.4
30045.4
30022.6
30000.1
29977.7
29955.6
29933.8
29912.2
29890.8
29869.7
29848.8
29828.2
29807.9
29787.8
29768
29748.5
29729.3
29710.3
29691.6
29673.2
29655.1
29637.3
29619.8
29602.6
29585.7
29569.1
29552.7
29536.7
29521
29505.6
29490.4
29475.6
29461.1
29446.9
29433
29419.4
29406.1
29393.1
29380.4
29367.9
29355.8
29344
29332.5
29321.3
29310.3
29299.7
29289.3
29279.2
29269.4
29259.9
29250.6
29241.6
29232.9
29224.5
29216.3
29208.4
29200.7
29193.3
29186.1
29179.2
29172.5
29166.1
29159.9
29153.9
29148.2
29142.7
29137.4
29132.3
29127.4
29122.8
29118.3
29114
29110
29106.1
29102.4
29098.9
29095.6
29092.5
29089.5
29086.7
29084
29081.5
29079.2
29077
29075
29073.1
29071.3
29069.7
29068.2
29066.8
29065.6
29064.4
29063.4
29062.5
29061.6
29060.9
29060.3
29059.7
29059.3
29058.9
29058.6
29058.4
29058.3
29058.2
29058.3
29058.4
29058.6
29058.8
29059.1
29059.4
29059.8
29060.2
29060.7
29061.2
29061.7
29062.3
29062.9
29063.5
29064.2
29064.9
29065.6
29066.3
29067
29067.7
29068.5
29069.2
29070
29070.7
29071.5
29072.2
29073
29073.7
29074.4
29075.1
29075.8
29076.5
29077.2
29077.9
29078.5
29079.1
29079.7
29080.3
29080.8
29081.3
29081.8
29082.3
29082.7
29083.2
29083.5
29083.9
29084.2
29084.5
29084.7
29084.9
29085.1
29085.3
29085.4
29085.5
29085.5
32109.3
32109.2
32109.2
32109.1
32109
32108.9
32108.7
32108.5
32108.3
32108.1
32107.8
32107.5
32107.2
32106.8
32106.4
32106
32105.6
32105.1
32104.6
32104.1
32103.5
32102.9
32102.3
32101.7
32101
32100.2
32099.5
32098.7
32097.8
32096.9
32096
32095
32094
32092.9
32091.7
32090.5
32089.2
32087.9
32086.4
32084.9
32083.3
32081.7
32079.9
32078
32076.1
32074
32071.8
32069.6
32067.2
32064.7
32062
32059.3
32056.4
32053.3
32050.1
32046.8
32043.3
32039.7
32035.9
32032
32027.9
32023.6
32019.1
32014.5
32009.7
32004.7
31999.5
31994.1
31988.5
31982.7
31976.6
31970.4
31964
31957.3
31950.4
31943.3
31935.9
31928.3
31920.5
31912.4
31904.1
31895.6
31886.7
31877.6
31868.3
31858.7
31848.8
31838.7
31828.3
31817.6
31806.6
31795.4
31783.9
31772.1
31760
31747.6
31735
31722
31708.8
31695.3
31681.5
31667.4
31653
31638.3
31623.3
31608
31592.4
31576.6
31560.4
31544
31527.2
31510.2
31492.9
31475.3
31457.4
31439.2
31420.8
31402.1
31383.1
31363.8
31344.3
31324.4
31304.4
31284
31263.4
31242.6
31221.5
31200.1
31178.5
31156.7
31134.6
31112.4
31089.9
31067.1
31044.2
31021
30997.7
30974.1
30950.4
30926.5
30902.4
30878.1
30853.7
30829.1
30804.3
30779.4
30754.4
30729.2
30704
30678.6
30653
30627.4
30601.7
30575.9
30550
30524.1
30498.1
30472
30445.9
30419.7
30393.6
30367.4
30341.1
30314.9
30288.7
30262.4
30236.2
30210
30183.9
30157.8
30131.7
30105.7
30079.8
30053.9
30028.2
30002.5
29976.9
29951.4
29926.1
29900.8
29875.7
29850.7
29825.9
29801.2
29776.7
29752.3
29728.1
29704.1
29680.3
29656.7
29633.3
29610
29587
29564.2
29541.7
29519.3
29497.2
29475.3
29453.7
29432.3
29411.2
29390.3
29369.7
29349.4
29329.3
29309.5
29290
29270.7
29251.7
29233.1
29214.7
29196.6
29178.8
29161.2
29144
29127.1
29110.5
29094.1
29078.1
29062.4
29047
29031.8
29017
29002.5
28988.3
28974.4
28960.8
28947.5
28934.5
28921.8
28909.4
28897.2
28885.4
28873.9
28862.7
28851.7
28841.1
28830.7
28820.7
28810.8
28801.3
28792.1
28783.1
28774.4
28766
28757.8
28749.9
28742.2
28734.8
28727.7
28720.7
28714.1
28707.7
28701.5
28695.5
28689.8
28684.3
28679
28673.9
28669.1
28664.4
28660
28655.7
28651.7
28647.8
28644.1
28640.6
28637.3
28634.2
28631.2
28628.4
28625.8
28623.3
28621
28618.8
28616.8
28614.9
28613.2
28611.6
28610.1
28608.7
28607.5
28606.3
28605.3
28604.4
28603.6
28602.8
28602.2
28601.6
28601.2
28600.8
28600.5
28600.3
28600.2
28600.2
28600.3
28600.4
28600.6
28600.9
28601.2
28601.5
28601.9
28602.3
28602.8
28603.3
28603.9
28604.4
28605
28605.7
28606.3
28607
28607.7
28608.4
28609.2
28609.9
28610.6
28611.4
28612.2
28612.9
28613.7
28614.4
28615.2
28615.9
28616.6
28617.4
28618.1
28618.8
28619.4
28620.1
28620.7
28621.3
28621.9
28622.5
28623.1
28623.6
28624.1
28624.6
28625
28625.4
28625.8
28626.2
28626.5
28626.8
28627
28627.2
28627.4
28627.5
28627.7
28627.7
28627.8
31651.4
31651.3
31651.3
31651.2
31651.1
31651
31650.8
31650.6
31650.4
31650.2
31649.9
31649.6
31649.3
31648.9
31648.6
31648.2
31647.7
31647.3
31646.8
31646.3
31645.7
31645.1
31644.5
31643.9
31643.2
31642.5
31641.8
31641
31640.2
31639.3
31638.4
31637.4
31636.4
31635.3
31634.2
31633
31631.7
31630.4
31629
31627.5
31625.9
31624.3
31622.5
31620.7
31618.7
31616.7
31614.6
31612.3
31609.9
31607.5
31604.9
31602.1
31599.2
31596.2
31593.1
31589.8
31586.3
31582.7
31579
31575.1
31571
31566.7
31562.3
31557.7
31552.9
31547.9
31542.7
31537.3
31531.7
31526
31520
31513.7
31507.3
31500.7
31493.8
31486.7
31479.4
31471.8
31464
31455.9
31447.6
31439.1
31430.3
31421.2
31411.9
31402.3
31392.4
31382.3
31371.9
31361.2
31350.3
31339
31327.5
31315.7
31303.7
31291.3
31278.7
31265.7
31252.5
31239
31225.2
31211.1
31196.7
31182
31167
31151.7
31136.1
31120.3
31104.1
31087.7
31070.9
31053.9
31036.6
31019
31001.1
30982.9
30964.4
30945.7
30926.7
30907.4
30887.8
30868
30847.9
30827.6
30806.9
30786.1
30765
30743.6
30722
30700.1
30678
30655.7
30633.2
30610.4
30587.5
30564.3
30540.9
30517.3
30493.6
30469.6
30445.5
30421.2
30396.7
30372.1
30347.3
30322.4
30297.3
30272.1
30246.8
30221.3
30195.8
30170.1
30144.4
30118.5
30092.6
30066.6
30040.6
30014.5
29988.3
29962.1
29935.9
29909.6
29883.4
29857.1
29830.8
29804.5
29778.3
29752.1
29725.9
29699.7
29673.6
29647.6
29621.6
29595.7
29569.9
29544.1
29518.5
29493
29467.6
29442.3
29417.2
29392.1
29367.3
29342.6
29318
29293.6
29269.4
29245.3
29221.5
29197.8
29174.4
29151.1
29128.1
29105.2
29082.6
29060.3
29038.1
29016.2
28994.6
28973.2
28952
28931.1
28910.5
28890.1
28870
28850.2
28830.7
28811.4
28792.4
28773.7
28755.3
28737.2
28719.4
28701.9
28684.6
28667.7
28651.1
28634.7
28618.7
28603
28587.5
28572.4
28557.6
28543.1
28528.9
28515
28501.4
28488.1
28475.1
28462.4
28450
28437.9
28426.1
28414.6
28403.3
28392.4
28381.8
28371.4
28361.4
28351.6
28342.1
28332.8
28323.9
28315.2
28306.8
28298.6
28290.7
28283.1
28275.7
28268.5
28261.6
28255
28248.6
28242.4
28236.5
28230.8
28225.3
28220
28215
28210.1
28205.5
28201.1
28196.9
28192.8
28189
28185.3
28181.9
28178.6
28175.5
28172.5
28169.8
28167.1
28164.7
28162.4
28160.2
28158.2
28156.4
28154.6
28153
28151.6
28150.2
28149
28147.9
28146.9
28146
28145.2
28144.5
28143.9
28143.4
28143
28142.7
28142.5
28142.3
28142.2
28142.2
28142.2
28142.4
28142.6
28142.8
28143.1
28143.5
28143.9
28144.3
28144.8
28145.3
28145.9
28146.5
28147.1
28147.8
28148.4
28149.1
28149.9
28150.6
28151.3
28152.1
28152.8
28153.6
28154.4
28155.1
28155.9
28156.7
28157.4
28158.2
28158.9
28159.6
28160.3
28161
28161.7
28162.4
28163
28163.7
28164.3
28164.8
28165.4
28165.9
28166.4
28166.9
28167.4
28167.8
28168.2
28168.5
28168.8
28169.1
28169.4
28169.6
28169.8
28169.9
28170
28170.1
28170.1
31193.4
31193.4
31193.3
31193.3
31193.2
31193.1
31192.9
31192.7
31192.5
31192.3
31192
31191.7
31191.4
31191.1
31190.7
31190.3
31189.9
31189.4
31189
31188.5
31187.9
31187.4
31186.8
31186.2
31185.5
31184.8
31184.1
31183.4
31182.6
31181.7
31180.8
31179.9
31178.9
31177.9
31176.8
31175.6
31174.4
31173.1
31171.7
31170.3
31168.7
31167.1
31165.4
31163.6
31161.7
31159.7
31157.6
31155.4
31153.1
31150.6
31148.1
31145.4
31142.5
31139.5
31136.4
31133.2
31129.8
31126.2
31122.5
31118.6
31114.5
31110.3
31105.9
31101.3
31096.6
31091.6
31086.5
31081.1
31075.6
31069.8
31063.9
31057.7
31051.3
31044.7
31037.8
31030.7
31023.4
31015.9
31008.1
31000.1
30991.8
30983.3
30974.5
30965.4
30956.1
30946.5
30936.7
30926.6
30916.2
30905.6
30894.6
30883.4
30871.9
30860.1
30848.1
30835.7
30823.1
30810.2
30796.9
30783.4
30769.6
30755.5
30741.1
30726.4
30711.4
30696.2
30680.6
30664.7
30648.5
30632.1
30615.3
30598.3
30581
30563.3
30545.4
30527.3
30508.8
30490
30471
30451.7
30432.1
30412.3
30392.1
30371.8
30351.1
30330.2
30309.1
30287.7
30266
30244.1
30222
30199.7
30177.1
30154.3
30131.3
30108.1
30084.7
30061
30037.2
30013.2
29989
29964.7
29940.2
29915.5
29890.7
29865.7
29840.6
29815.3
29789.9
29764.4
29738.8
29713.1
29687.3
29661.4
29635.4
29609.3
29583.2
29557
29530.8
29504.5
29478.3
29451.9
29425.6
29399.3
29372.9
29346.6
29320.3
29294
29267.7
29241.5
29215.3
29189.2
29163.2
29137.2
29111.3
29085.5
29059.9
29034.3
29008.8
28983.5
28958.2
28933.2
28908.2
28883.5
28858.9
28834.4
28810.1
28786
28762.1
28738.4
28714.9
28691.6
28668.5
28645.6
28623
28600.6
28578.4
28556.5
28534.8
28513.3
28492.2
28471.2
28450.6
28430.2
28410
28390.2
28370.6
28351.3
28332.3
28313.6
28295.2
28277.1
28259.2
28241.7
28224.4
28207.5
28190.9
28174.5
28158.5
28142.8
28127.3
28112.2
28097.4
28082.9
28068.7
28054.8
28041.2
28027.9
28014.9
28002.2
27989.8
27977.7
27965.9
27954.4
27943.2
27932.3
27921.7
27911.4
27901.3
27891.5
27882
27872.8
27863.9
27855.2
27846.8
27838.7
27830.8
27823.2
27815.9
27808.7
27801.9
27795.3
27788.9
27782.8
27776.8
27771.2
27765.7
27760.5
27755.5
27750.7
27746.1
27741.7
27737.5
27733.5
27729.7
27726.1
27722.6
27719.4
27716.3
27713.4
27710.6
27708.1
27705.6
27703.4
27701.2
27699.3
27697.4
27695.7
27694.2
27692.7
27691.4
27690.2
27689.2
27688.2
27687.3
27686.6
27685.9
27685.3
27684.9
27684.5
27684.2
27684
27683.8
27683.8
27683.8
27683.9
27684.1
27684.3
27684.6
27684.9
27685.3
27685.7
27686.2
27686.7
27687.3
27687.8
27688.5
27689.1
27689.8
27690.5
27691.2
27691.9
27692.7
27693.4
27694.2
27695
27695.8
27696.6
27697.3
27698.1
27698.9
27699.7
27700.4
27701.2
27701.9
27702.7
27703.4
27704.1
27704.7
27705.4
27706
27706.6
27707.2
27707.8
27708.3
27708.8
27709.3
27709.8
27710.2
27710.6
27710.9
27711.3
27711.6
27711.8
27712
27712.2
27712.4
27712.5
27712.6
27712.6
30735.4
30735.4
30735.3
30735.3
30735.2
30735.1
30734.9
30734.7
30734.5
30734.3
30734.1
30733.8
30733.5
30733.2
30732.8
30732.4
30732
30731.6
30731.1
30730.7
30730.2
30729.6
30729.1
30728.5
30727.9
30727.2
30726.5
30725.8
30725.1
30724.3
30723.4
30722.5
30721.6
30720.6
30719.5
30718.4
30717.2
30716
30714.7
30713.3
30711.8
30710.2
30708.6
30706.8
30705
30703
30701
30698.8
30696.5
30694.1
30691.6
30688.9
30686.2
30683.2
30680.2
30677
30673.6
30670.1
30666.4
30662.6
30658.6
30654.4
30650
30645.5
30640.8
30635.9
30630.8
30625.5
30619.9
30614.2
30608.3
30602.2
30595.8
30589.2
30582.4
30575.4
30568.1
30560.6
30552.9
30544.9
30536.6
30528.1
30519.3
30510.3
30501.1
30491.5
30481.7
30471.6
30461.3
30450.6
30439.7
30428.5
30417
30405.3
30393.2
30380.9
30368.2
30355.3
30342.1
30328.6
30314.8
30300.7
30286.3
30271.6
30256.6
30241.4
30225.8
30209.9
30193.7
30177.3
30160.5
30143.4
30126.1
30108.5
30090.5
30072.3
30053.8
30035.1
30016
29996.7
29977.1
29957.2
29937
29916.6
29895.9
29875
29853.8
29832.4
29810.7
29788.8
29766.6
29744.2
29721.6
29698.7
29675.7
29652.4
29628.9
29605.2
29581.4
29557.3
29533.1
29508.6
29484.1
29459.3
29434.4
29409.3
29384.2
29358.8
29333.4
29307.8
29282.1
29256.3
29230.4
29204.4
29178.4
29152.2
29126
29099.8
29073.5
29047.1
29020.7
28994.3
28967.9
28941.5
28915
28888.6
28862.2
28835.8
28809.5
28783.2
28756.9
28730.7
28704.6
28678.5
28652.6
28626.7
28600.9
28575.2
28549.7
28524.3
28499
28473.8
28448.8
28424
28399.3
28374.7
28350.4
28326.2
28302.3
28278.5
28254.9
28231.5
28208.4
28185.5
28162.7
28140.3
28118
28096.1
28074.3
28052.8
28031.6
28010.6
27989.9
27969.5
27949.3
27929.4
27909.8
27890.5
27871.5
27852.7
27834.3
27816.1
27798.3
27780.7
27763.5
27746.5
27729.8
27713.5
27697.5
27681.7
27666.3
27651.2
27636.3
27621.8
27607.6
27593.7
27580.1
27566.9
27553.9
27541.2
27528.8
27516.8
27505
27493.5
27482.3
27471.4
27460.8
27450.5
27440.5
27430.8
27421.3
27412.1
27403.2
27394.6
27386.2
27378.1
27370.3
27362.7
27355.4
27348.3
27341.5
27334.9
27328.6
27322.5
27316.6
27311
27305.5
27300.3
27295.4
27290.6
27286.1
27281.7
27277.6
27273.6
27269.8
27266.3
27262.9
27259.7
27256.6
27253.8
27251.1
27248.5
27246.2
27243.9
27241.9
27239.9
27238.1
27236.5
27235
27233.6
27232.3
27231.1
27230.1
27229.2
27228.4
27227.7
27227.1
27226.5
27226.1
27225.8
27225.5
27225.4
27225.3
27225.3
27225.3
27225.5
27225.6
27225.9
27226.2
27226.6
27227
27227.5
27228
27228.5
27229.1
27229.7
27230.4
27231
27231.7
27232.5
27233.2
27234
27234.8
27235.5
27236.3
27237.1
27237.9
27238.8
27239.6
27240.4
27241.2
27242
27242.7
27243.5
27244.3
27245
27245.7
27246.5
27247.2
27247.8
27248.5
27249.1
27249.7
27250.3
27250.8
27251.3
27251.8
27252.3
27252.7
27253.1
27253.5
27253.8
27254.1
27254.4
27254.6
27254.8
27254.9
27255
27255.1
27255.2
30277.4
30277.3
30277.3
30277.2
30277.1
30277
30276.9
30276.7
30276.5
30276.3
30276.1
30275.8
30275.5
30275.2
30274.9
30274.5
30274.1
30273.7
30273.3
30272.8
30272.4
30271.9
30271.4
30270.8
30270.2
30269.6
30269
30268.3
30267.6
30266.9
30266.1
30265.2
30264.3
30263.4
30262.4
30261.3
30260.2
30259
30257.8
30256.4
30255
30253.5
30251.9
30250.2
30248.5
30246.6
30244.6
30242.5
30240.3
30237.9
30235.5
30232.9
30230.1
30227.3
30224.3
30221.1
30217.8
30214.4
30210.8
30207
30203
30198.9
30194.6
30190.1
30185.5
30180.6
30175.6
30170.3
30164.9
30159.2
30153.3
30147.3
30140.9
30134.4
30127.7
30120.7
30113.4
30106
30098.3
30090.3
30082.1
30073.6
30064.9
30055.9
30046.7
30037.2
30027.4
30017.3
30007
29996.4
29985.5
29974.3
29962.9
29951.1
29939.1
29926.8
29914.2
29901.3
29888.1
29874.6
29860.8
29846.7
29832.3
29817.6
29802.6
29787.3
29771.7
29755.8
29739.7
29723.2
29706.4
29689.3
29672
29654.3
29636.4
29618.1
29599.6
29580.8
29561.7
29542.4
29522.7
29502.8
29482.6
29462.2
29441.4
29420.5
29399.2
29377.7
29356
29334
29311.8
29289.3
29266.6
29243.7
29220.6
29197.3
29173.7
29150
29126
29101.9
29077.5
29053
29028.4
29003.5
28978.5
28953.4
28928.1
28902.7
28877.1
28851.4
28825.7
28799.8
28773.8
28747.7
28721.5
28695.3
28669
28642.6
28616.2
28589.7
28563.2
28536.7
28510.2
28483.6
28457.1
28430.5
28404
28377.5
28351.1
28324.7
28298.3
28272
28245.8
28219.6
28193.5
28167.5
28141.7
28115.9
28090.2
28064.7
28039.3
28014.1
27988.9
27964
27939.2
27914.6
27890.2
27865.9
27841.8
27818
27794.3
27770.9
27747.6
27724.6
27701.9
27679.3
27657
27635
27613.2
27591.6
27570.3
27549.3
27528.5
27508.1
27487.8
27467.9
27448.3
27428.9
27409.8
27391.1
27372.6
27354.4
27336.5
27318.9
27301.7
27284.7
27268
27251.7
27235.6
27219.9
27204.4
27189.3
27174.5
27160
27145.8
27131.9
27118.3
27105
27092.1
27079.4
27067.1
27055
27043.2
27031.8
27020.6
27009.8
26999.2
26988.9
26978.9
26969.2
26959.8
26950.7
26941.8
26933.2
26924.9
26916.8
26909
26901.5
26894.2
26887.2
26880.4
26873.9
26867.6
26861.5
26855.7
26850.1
26844.8
26839.6
26834.7
26830
26825.5
26821.2
26817.1
26813.2
26809.5
26806
26802.7
26799.5
26796.5
26793.7
26791.1
26788.6
26786.3
26784.1
26782.1
26780.2
26778.5
26776.9
26775.4
26774.1
26772.9
26771.8
26770.8
26769.9
26769.1
26768.5
26767.9
26767.5
26767.1
26766.8
26766.6
26766.5
26766.5
26766.5
26766.6
26766.8
26767
26767.3
26767.7
26768.1
26768.6
26769.1
26769.6
26770.2
26770.8
26771.5
26772.2
26772.9
26773.6
26774.4
26775.2
26776
26776.8
26777.6
26778.4
26779.3
26780.1
26781
26781.8
26782.6
26783.5
26784.3
26785.1
26785.9
26786.7
26787.4
26788.2
26788.9
26789.6
26790.3
26791
26791.6
26792.2
26792.8
26793.4
26793.9
26794.4
26794.9
26795.3
26795.7
26796.1
26796.4
26796.7
26797
26797.2
26797.4
26797.6
26797.7
26797.8
26797.8
29819.3
29819.2
29819.2
29819.1
29819
29818.9
29818.8
29818.6
29818.5
29818.3
29818
29817.8
29817.5
29817.2
29816.9
29816.6
29816.2
29815.8
29815.4
29815
29814.6
29814.1
29813.6
29813.1
29812.6
29812
29811.5
29810.8
29810.2
29809.5
29808.8
29808
29807.2
29806.3
29805.4
29804.4
29803.4
29802.3
29801.1
29799.8
29798.5
29797
29795.5
29793.9
29792.2
29790.4
29788.5
29786.5
29784.3
29782
29779.7
29777.1
29774.5
29771.7
29768.8
29765.7
29762.5
29759.1
29755.6
29751.8
29748
29743.9
29739.7
29735.3
29730.7
29725.9
29720.9
29715.7
29710.3
29704.7
29698.9
29692.9
29686.7
29680.2
29673.5
29666.6
29659.4
29652
29644.3
29636.4
29628.2
29619.8
29611.1
29602.2
29593
29583.5
29573.8
29563.8
29553.5
29542.9
29532
29520.9
29509.5
29497.7
29485.7
29473.4
29460.8
29447.9
29434.7
29421.3
29407.5
29393.4
29379
29364.3
29349.3
29334
29318.4
29302.5
29286.4
29269.9
29253.1
29236
29218.6
29200.9
29183
29164.7
29146.1
29127.3
29108.2
29088.8
29069.1
29049.1
29028.9
29008.4
28987.6
28966.6
28945.3
28923.7
28901.9
28879.9
28857.6
28835
28812.3
28789.3
28766.1
28742.7
28719
28695.2
28671.1
28646.9
28622.5
28597.9
28573.1
28548.2
28523.1
28497.8
28472.4
28446.9
28421.2
28395.4
28369.5
28343.5
28317.4
28291.2
28264.9
28238.5
28212.1
28185.6
28159
28132.4
28105.8
28079.2
28052.5
28025.8
27999.1
27972.5
27945.8
27919.2
27892.6
27866
27839.5
27813.1
27786.7
27760.4
27734.2
27708.1
27682.1
27656.2
27630.4
27604.8
27579.3
27553.9
27528.7
27503.6
27478.7
27454
27429.4
27405.1
27380.9
27356.9
27333.2
27309.6
27286.3
27263.2
27240.4
27217.7
27195.3
27173.2
27151.3
27129.7
27108.3
27087.3
27066.4
27045.9
27025.6
27005.6
26985.9
26966.5
26947.4
26928.6
26910.1
26891.9
26874
26856.4
26839.1
26822.1
26805.4
26789
26772.9
26757.2
26741.7
26726.6
26711.8
26697.3
26683.1
26669.2
26655.7
26642.4
26629.5
26616.8
26604.5
26592.4
26580.7
26569.3
26558.2
26547.3
26536.8
26526.6
26516.6
26506.9
26497.6
26488.5
26479.6
26471.1
26462.8
26454.8
26447.1
26439.6
26432.4
26425.4
26418.7
26412.2
26406
26400
26394.2
26388.7
26383.4
26378.3
26373.5
26368.8
26364.4
26360.2
26356.1
26352.3
26348.7
26345.2
26342
26338.9
26336
26333.2
26330.6
26328.2
26326
26323.9
26321.9
26320.1
26318.4
26316.9
26315.5
26314.2
26313.1
26312.1
26311.1
26310.3
26309.6
26309
26308.6
26308.2
26307.8
26307.6
26307.5
26307.4
26307.5
26307.6
26307.7
26308
26308.3
26308.6
26309
26309.5
26310
26310.6
26311.2
26311.8
26312.5
26313.2
26313.9
26314.7
26315.5
26316.3
26317.1
26318
26318.8
26319.7
26320.5
26321.4
26322.3
26323.2
26324
26324.9
26325.8
26326.6
26327.4
26328.3
26329.1
26329.9
26330.7
26331.4
26332.1
26332.9
26333.5
26334.2
26334.8
26335.5
26336
26336.6
26337.1
26337.6
26338
26338.4
26338.8
26339.2
26339.5
26339.8
26340
26340.2
26340.3
26340.5
26340.5
26340.6
29361.1
29361
29361
29360.9
29360.9
29360.8
29360.6
29360.5
29360.3
29360.1
29359.9
29359.7
29359.4
29359.2
29358.9
29358.6
29358.2
29357.9
29357.5
29357.1
29356.7
29356.3
29355.9
29355.4
29355
29354.5
29354
29353.4
29352.8
29352.2
29351.6
29350.9
29350.1
29349.4
29348.5
29347.6
29346.7
29345.6
29344.5
29343.4
29342.1
29340.8
29339.3
29337.8
29336.2
29334.5
29332.7
29330.7
29328.7
29326.5
29324.2
29321.8
29319.2
29316.5
29313.7
29310.7
29307.5
29304.2
29300.8
29297.2
29293.4
29289.4
29285.2
29280.9
29276.4
29271.7
29266.8
29261.7
29256.4
29250.8
29245.1
29239.2
29233
29226.6
29219.9
29213.1
29206
29198.6
29191
29183.2
29175
29166.7
29158.1
29149.2
29140
29130.6
29120.9
29110.9
29100.7
29090.1
29079.3
29068.2
29056.8
29045.1
29033.1
29020.8
29008.2
28995.4
28982.2
28968.7
28954.9
28940.9
28926.5
28911.8
28896.8
28881.5
28865.9
28850
28833.8
28817.3
28800.5
28783.4
28766
28748.3
28730.3
28712
28693.4
28674.5
28655.3
28635.9
28616.2
28596.1
28575.8
28555.3
28534.4
28513.3
28492
28470.3
28448.5
28426.3
28404
28381.4
28358.5
28335.4
28312.1
28288.6
28264.9
28240.9
28216.8
28192.4
28167.9
28143.2
28118.3
28093.2
28068
28042.6
28017.1
27991.4
27965.6
27939.7
27913.6
27887.5
27861.2
27834.9
27808.4
27781.9
27755.3
27728.7
27702
27675.2
27648.5
27621.6
27594.8
27568
27541.1
27514.3
27487.5
27460.7
27434
27407.3
27380.6
27354
27327.5
27301.1
27274.7
27248.4
27222.3
27196.2
27170.3
27144.5
27118.8
27093.3
27068
27042.8
27017.7
26992.9
26968.2
26943.7
26919.4
26895.3
26871.5
26847.8
26824.4
26801.2
26778.2
26755.5
26733
26710.8
26688.8
26667.1
26645.6
26624.5
26603.6
26583
26562.6
26542.6
26522.8
26503.4
26484.2
26465.4
26446.8
26428.5
26410.6
26393
26375.6
26358.6
26341.9
26325.5
26309.4
26293.7
26278.2
26263.1
26248.3
26233.8
26219.6
26205.7
26192.2
26178.9
26166
26153.4
26141.1
26129.1
26117.4
26106
26094.9
26084.1
26073.6
26063.4
26053.5
26043.9
26034.6
26025.5
26016.7
26008.3
26000
25992.1
25984.4
25977
25969.8
25962.9
25956.3
25949.9
25943.7
25937.8
25932.1
25926.7
25921.5
25916.4
25911.7
25907.1
25902.7
25898.6
25894.6
25890.9
25887.3
25883.9
25880.8
25877.8
25874.9
25872.3
25869.8
25867.4
25865.2
25863.2
25861.3
25859.6
25858
25856.6
25855.3
25854.1
25853
25852
25851.2
25850.5
25849.9
25849.3
25848.9
25848.6
25848.4
25848.2
25848.2
25848.2
25848.3
25848.4
25848.7
25849
25849.3
25849.8
25850.2
25850.8
25851.3
25852
25852.6
25853.3
25854.1
25854.8
25855.6
25856.4
25857.3
25858.1
25859
25859.9
25860.8
25861.7
25862.6
25863.5
25864.5
25865.4
25866.3
25867.2
25868.1
25869
25869.8
25870.7
25871.6
25872.4
25873.2
25874
25874.7
25875.5
25876.2
25876.9
25877.5
25878.2
25878.8
25879.3
25879.9
25880.4
25880.8
25881.2
25881.6
25882
25882.3
25882.6
25882.8
25883
25883.2
25883.3
25883.4
25883.4
28902.8
28902.8
28902.7
28902.7
28902.6
28902.5
28902.4
28902.3
28902.1
28901.9
28901.8
28901.5
28901.3
28901
28900.8
28900.5
28900.2
28899.9
28899.6
28899.2
28898.9
28898.5
28898.1
28897.7
28897.3
28896.9
28896.5
28896
28895.5
28895
28894.4
28893.8
28893.2
28892.5
28891.7
28890.9
28890.1
28889.2
28888.2
28887.1
28885.9
28884.7
28883.4
28882
28880.5
28878.8
28877.1
28875.3
28873.3
28871.3
28869.1
28866.7
28864.3
28861.7
28858.9
28856
28853
28849.8
28846.4
28842.9
28839.2
28835.3
28831.3
28827
28822.6
28818
28813.2
28808.2
28802.9
28797.5
28791.8
28786
28779.9
28773.6
28767
28760.2
28753.2
28745.9
28738.3
28730.6
28722.5
28714.2
28705.7
28696.8
28687.7
28678.4
28668.7
28658.8
28648.6
28638.1
28627.3
28616.2
28604.8
28593.2
28581.2
28569
28556.4
28543.6
28530.4
28517
28503.2
28489.1
28474.7
28460.1
28445.1
28429.8
28414.2
28398.3
28382
28365.5
28348.7
28331.6
28314.1
28296.4
28278.3
28260
28241.4
28222.5
28203.2
28183.7
28163.9
28143.9
28123.5
28102.9
28082
28060.8
28039.3
28017.6
27995.7
27973.5
27951
27928.3
27905.3
27882.1
27858.7
27835.1
27811.2
27787.2
27762.9
27738.4
27713.8
27688.9
27663.9
27638.7
27613.3
27587.8
27562.1
27536.3
27510.3
27484.3
27458.1
27431.7
27405.3
27378.8
27352.2
27325.5
27298.7
27271.9
27245.1
27218.1
27191.2
27164.2
27137.2
27110.2
27083.1
27056.1
27029.1
27002.2
26975.2
26948.4
26921.5
26894.8
26868.1
26841.4
26814.9
26788.5
26762.1
26735.9
26709.8
26683.8
26658
26632.3
26606.8
26581.5
26556.3
26531.3
26506.4
26481.8
26457.4
26433.2
26409.2
26385.4
26361.8
26338.5
26315.4
26292.6
26270
26247.6
26225.6
26203.8
26182.2
26161
26140
26119.3
26098.9
26078.8
26058.9
26039.4
26020.2
26001.3
25982.7
25964.4
25946.4
25928.7
25911.4
25894.3
25877.6
25861.2
25845.1
25829.3
25813.9
25798.7
25783.9
25769.4
25755.3
25741.4
25727.9
25714.6
25701.7
25689.1
25676.9
25664.9
25653.2
25641.9
25630.8
25620.1
25609.6
25599.5
25589.6
25580.1
25570.8
25561.8
25553.1
25544.7
25536.5
25528.7
25521.1
25513.7
25506.6
25499.8
25493.2
25486.9
25480.8
25475
25469.4
25464
25458.9
25454
25449.3
25444.8
25440.5
25436.5
25432.6
25428.9
25425.5
25422.2
25419.1
25416.2
25413.4
25410.8
25408.4
25406.2
25404.1
25402.2
25400.4
25398.8
25397.3
25395.9
25394.7
25393.6
25392.6
25391.7
25391
25390.3
25389.8
25389.4
25389
25388.8
25388.6
25388.6
25388.6
25388.7
25388.9
25389.1
25389.4
25389.8
25390.3
25390.8
25391.3
25391.9
25392.6
25393.2
25394
25394.7
25395.5
25396.4
25397.2
25398.1
25399
25399.9
25400.9
25401.8
25402.8
25403.7
25404.7
25405.7
25406.6
25407.6
25408.6
25409.5
25410.4
25411.4
25412.3
25413.2
25414.1
25414.9
25415.8
25416.6
25417.4
25418.2
25418.9
25419.6
25420.3
25420.9
25421.6
25422.1
25422.7
25423.2
25423.7
25424.1
25424.6
25424.9
25425.2
25425.5
25425.8
25426
25426.2
25426.3
25426.4
25426.4
28444.5
28444.4
28444.4
28444.4
28444.3
28444.2
28444.1
28444
28443.8
28443.7
28443.5
28443.3
28443.1
28442.9
28442.6
28442.4
28442.1
28441.8
28441.5
28441.2
28440.9
28440.6
28440.3
28440
28439.7
28439.3
28439
28438.6
28438.2
28437.8
28437.3
28436.8
28436.3
28435.7
28435.1
28434.4
28433.7
28432.8
28432
28431
28430
28428.9
28427.7
28426.4
28425
28423.5
28421.8
28420.1
28418.3
28416.3
28414.3
28412
28409.7
28407.2
28404.6
28401.8
28398.9
28395.8
28392.5
28389.1
28385.5
28381.7
28377.8
28373.7
28369.3
28364.8
28360.1
28355.2
28350.1
28344.7
28339.2
28333.4
28327.4
28321.1
28314.7
28308
28301
28293.8
28286.3
28278.6
28270.7
28262.4
28254
28245.2
28236.1
28226.8
28217.2
28207.4
28197.2
28186.8
28176
28165
28153.7
28142
28130.1
28117.9
28105.4
28092.5
28079.4
28066
28052.2
28038.1
28023.8
28009.1
27994.1
27978.8
27963.2
27947.3
27931
27914.5
27897.6
27880.5
27863
27845.2
27827.2
27808.8
27790.1
27771.1
27751.9
27732.3
27712.5
27692.3
27671.9
27651.2
27630.2
27608.9
27587.4
27565.6
27543.5
27521.2
27498.6
27475.8
27452.8
27429.5
27405.9
27382.2
27358.2
27334
27309.6
27284.9
27260.1
27235.1
27210
27184.6
27159.1
27133.4
27107.5
27081.5
27055.4
27029.2
27002.8
26976.3
26949.7
26922.9
26896.1
26869.3
26842.3
26815.3
26788.2
26761.1
26733.9
26706.8
26679.5
26652.3
26625.1
26597.9
26570.7
26543.5
26516.4
26489.3
26462.3
26435.3
26408.4
26381.6
26354.8
26328.2
26301.7
26275.3
26249
26222.8
26196.8
26170.9
26145.2
26119.7
26094.3
26069.2
26044.2
26019.4
25994.8
25970.4
25946.2
25922.3
25898.6
25875.1
25851.9
25829
25806.2
25783.8
25761.6
25739.7
25718
25696.7
25675.6
25654.8
25634.3
25614.1
25594.3
25574.7
25555.4
25536.4
25517.7
25499.4
25481.4
25463.6
25446.3
25429.2
25412.4
25396
25379.9
25364.1
25348.6
25333.5
25318.7
25304.2
25290.1
25276.2
25262.7
25249.5
25236.6
25224.1
25211.8
25199.9
25188.3
25177
25166
25155.3
25144.9
25134.8
25125
25115.5
25106.3
25097.4
25088.7
25080.4
25072.3
25064.5
25057
25049.7
25042.7
25036
25029.5
25023.3
25017.3
25011.5
25006
25000.8
24995.7
24990.9
24986.3
24981.9
24977.7
24973.8
24970
24966.5
24963.1
24959.9
24956.9
24954.1
24951.5
24949
24946.7
24944.5
24942.6
24940.7
24939
24937.5
24936.1
24934.8
24933.7
24932.7
24931.8
24931.1
24930.4
24929.9
24929.4
24929.1
24928.9
24928.7
24928.7
24928.7
24928.8
24929
24929.3
24929.6
24930
24930.5
24931
24931.6
24932.2
24932.9
24933.7
24934.4
24935.2
24936.1
24936.9
24937.9
24938.8
24939.7
24940.7
24941.7
24942.7
24943.7
24944.7
24945.7
24946.8
24947.8
24948.8
24949.8
24950.8
24951.8
24952.8
24953.8
24954.8
24955.7
24956.6
24957.5
24958.4
24959.3
24960.1
24960.9
24961.7
24962.4
24963.1
24963.8
24964.5
24965.1
24965.6
24966.2
24966.7
24967.1
24967.6
24967.9
24968.3
24968.6
24968.8
24969.1
24969.2
24969.4
24969.5
24969.5
27986
27986
27986
27985.9
27985.9
27985.8
27985.7
27985.6
27985.5
27985.3
27985.2
27985
27984.8
27984.6
27984.3
27984.1
27983.9
27983.7
27983.4
27983.2
27982.9
27982.7
27982.5
27982.2
27982
27981.7
27981.5
27981.2
27980.9
27980.6
27980.3
27979.9
27979.5
27979
27978.5
27978
27977.4
27976.7
27975.9
27975.1
27974.2
27973.2
27972.1
27971
27969.7
27968.3
27966.9
27965.3
27963.6
27961.7
27959.8
27957.7
27955.5
27953.1
27950.6
27947.9
27945.1
27942.2
27939
27935.7
27932.3
27928.6
27924.8
27920.8
27916.6
27912.2
27907.6
27902.8
27897.7
27892.5
27887.1
27881.4
27875.5
27869.3
27863
27856.3
27849.5
27842.4
27835
27827.4
27819.5
27811.4
27802.9
27794.2
27785.3
27776
27766.5
27756.7
27746.6
27736.2
27725.5
27714.5
27703.2
27691.7
27679.8
27667.6
27655.1
27642.3
27629.2
27615.7
27602
27588
27573.6
27558.9
27543.9
27528.6
27513
27497.1
27480.8
27464.3
27447.4
27430.2
27412.7
27394.9
27376.8
27358.3
27339.6
27320.6
27301.3
27281.6
27261.7
27241.5
27221
27200.2
27179.1
27157.8
27136.1
27114.2
27092
27069.6
27046.9
27024
27000.8
26977.4
26953.7
26929.8
26905.7
26881.3
26856.7
26832
26807
26781.8
26756.5
26730.9
26705.2
26679.4
26653.3
26627.2
26600.8
26574.4
26547.8
26521.1
26494.3
26467.3
26440.3
26413.2
26386.1
26358.8
26331.5
26304.2
26276.8
26249.4
26222
26194.5
26167.1
26139.6
26112.2
26084.8
26057.4
26030.1
26002.8
25975.6
25948.5
25921.5
25894.5
25867.6
25840.9
25814.3
25787.8
25761.4
25735.2
25709.1
25683.2
25657.5
25631.9
25606.5
25581.4
25556.4
25531.6
25507.1
25482.7
25458.6
25434.8
25411.2
25387.8
25364.7
25341.8
25319.2
25296.9
25274.9
25253.1
25231.7
25210.5
25189.6
25169
25148.7
25128.7
25109.1
25089.7
25070.7
25052
25033.6
25015.5
24997.7
24980.3
24963.2
24946.4
24929.9
24913.8
24898
24882.6
24867.4
24852.6
24838.1
24824
24810.2
24796.7
24783.5