/*--------------------------------*- C++ -*----------------------------------*\
| =========                 |                                                 |
| \\      /  F ield         | OpenFOAM: The Open Source CFD Toolbox           |
|  \\    /   O peration     | Version:  v2006                                 |
|   \\  /    A nd           | Website:  www.openfoam.com                      |
|    \\/     M anipulation  |                                                 |
\*---------------------------------------------------------------------------*/
FoamFile
{
    version     2.0;
    format      ascii;
    class       volScalarField;
    location    "0";
    object      p;
}
// * * * * * * * * * * * * * * * * * * * * * * * * * * * * * * * * * * * * * //

dimensions      [1 -1 -2 0 0 0 0];


internalField   nonuniform List<scalar> 
67500
(
83.4154
84.1945
86.5244
88.3386
87.7268
85.7589
83.6045
81.8675
80.7706
80.3128
80.3988
80.9161
81.745
82.7585
83.8359
84.8733
85.7846
86.4985
86.9599
87.1327
86.9992
86.5585
85.8226
84.8128
83.5565
82.084
80.4265
78.6145
76.6765
74.6391
72.5262
70.359
68.1562
65.9343
63.7073
61.4871
59.284
57.1064
54.9615
52.855
50.7917
48.7755
46.8092
44.8954
43.0358
41.2317
39.4839
37.793
36.159
34.5818
33.0612
31.5964
30.1867
28.8312
27.5289
26.2785
25.0789
23.9287
22.8266
21.7711
20.7608
19.7942
18.8699
17.9865
17.1424
16.3362
15.5666
14.8321
14.1314
13.4631
12.826
12.2187
11.6401
11.0889
10.564
10.0644
9.58878
9.13627
8.70583
8.29648
7.90728
7.53734
7.18579
6.8518
6.53456
6.2333
5.94728
5.67579
5.41815
5.17369
4.9418
4.72186
4.51332
4.31561
4.12821
3.95061
3.78236
3.62297
3.47203
3.32911
3.19382
3.06579
2.94465
2.83007
2.72172
2.61929
2.52249
2.43103
2.34465
2.2631
2.18613
2.11351
2.04503
1.98046
1.9196
1.86227
1.80827
1.75744
1.70958
1.66454
1.62217
1.58229
1.54477
1.50945
1.4762
1.44488
1.41535
1.38749
1.36117
1.33627
1.31267
1.29026
1.26892
1.24856
1.22908
1.21037
1.19235
1.17493
1.15803
1.14157
1.12549
1.10973
1.09422
1.07891
1.06376
1.04872
1.03376
1.01885
1.00396
0.989073
0.974167
0.959231
0.944257
0.929237
0.914168
0.899052
0.883888
0.868681
0.853438
0.838165
0.82287
0.807563
0.792254
0.776954
0.761673
0.746423
0.731214
0.716058
0.700966
0.685949
0.671017
0.656179
0.641447
0.626828
0.612331
0.597965
0.583738
0.569655
0.555724
0.541952
0.528342
0.514902
0.501634
0.488545
0.475636
0.462911
0.450375
0.438028
0.425873
0.413912
0.402147
0.390579
0.379209
0.368037
0.357065
0.346292
0.335719
0.325347
0.315173
0.3052
0.295425
0.285849
0.276471
0.26729
0.258306
0.249518
0.240925
0.232526
0.224321
0.216308
0.208486
0.200855
0.193413
0.186159
0.179093
0.172213
0.165519
0.159008
0.15268
0.146533
0.140566
0.134777
0.129165
0.123728
0.118465
0.113372
0.108448
0.103691
0.0990984
0.0946668
0.0903938
0.0862762
0.082311
0.0784948
0.0748241
0.0712952
0.0679044
0.064648
0.061522
0.0585225
0.0556456
0.0528872
0.0502435
0.0477104
0.0452842
0.042961
0.0407369
0.0386083
0.0365716
0.0346231
0.0327594
0.0309771
0.029273
0.0276437
0.0260864
0.0245981
0.0231762
0.0218181
0.0205215
0.0192842
0.0181042
0.0169798
0.0159092
0.0148908
0.0139233
0.0130049
0.0121345
0.0113103
0.010531
0.00979501
0.00910068
0.00844639
0.00783045
0.00725114
0.00670672
0.00619545
0.0057156
0.00526547
0.00484338
0.00444771
0.0040769
0.00372945
0.00340392
0.00309895
0.00281324
0.00254557
0.00229481
0.00205987
0.00183975
0.0016335
0.00144026
0.00125919
0.00108954
0.000930596
0.000781685
0.000642192
0.000511542
0.0003892
0.000274663
0.000167465
6.71673e-05
-2.66387e-05
-0.000114336
-0.000196283
-0.000272813
-0.000344236
-0.000410846
-0.000472919
-0.000530717
-0.000584485
-0.000634454
-0.000680836
-0.000723833
-0.000763631
-0.000800412
-0.000834343
-0.000865586
-0.000894289
-0.000920596
-0.000944638
-0.000966541
-0.000986422
-0.00100439
-0.00102056
-0.00103503
-0.0010479
-0.00105926
-0.00106919
-0.00107777
-0.00108507
-0.00109118
-0.00109616
-0.00110007
-0.00110298
-0.00110495
-0.00110603
-0.00110627
-0.00110572
-0.00110442
-0.00110243
-0.00109977
-0.0010965
-0.00109264
-0.00108824
-0.00108332
-0.00107793
-0.00107207
-0.0010658
-0.00105912
-0.00105207
-0.00104468
-0.00103696
-0.00102893
-0.00102061
-0.00101203
-0.00100319
-0.000994133
-0.00098486
-0.000975391
-0.000965741
-0.000955924
-0.000945953
-0.000935838
-0.000925589
-0.000915217
-0.000904732
-0.000894145
-0.000883466
-0.000872705
-0.000861869
-0.000850963
-0.000839995
-0.000828971
-0.000817899
-0.000806784
-0.000795633
-0.000784452
-0.000773248
-0.000762023
-0.000750784
-0.000739533
-0.000728272
-0.000717004
-0.000705732
-0.000694459
-0.000683187
-0.000671921
-0.000660664
-0.000649417
-0.000638182
-0.000626962
-0.000615757
-0.000604569
-0.000593403
-0.000582258
-0.000571138
-0.000560044
-0.000548976
-0.000537936
-0.000526923
-0.000515938
-0.000504982
-0.000494054
-0.000483156
-0.000472288
-0.000461452
-0.000450648
-0.000439875
-0.000429133
-0.00041842
-0.000407735
-0.000397079
-0.000386452
-0.000375856
-0.00036529
-0.000354755
-0.000344249
-0.000333769
-0.000323315
-0.000312884
-0.000302476
-0.000292091
-0.000281729
-0.000271392
-0.00026108
-0.000250794
-0.000240533
-0.000230294
-0.000220075
-0.000209873
-0.000199688
-0.000189518
-0.000179365
-0.000169228
-0.00015911
-0.000149008
-0.000138923
-0.000128851
-0.000118793
-0.000108745
-9.87073e-05
-8.86776e-05
-7.86557e-05
-6.86376e-05
-5.86336e-05
-4.86035e-05
-3.86779e-05
-2.83544e-05
-1.90637e-05
-4.05517e-06
82.2946
83.1019
85.0951
86.9344
86.2457
84.226
82.0596
80.3387
79.2763
78.8683
79.0171
79.6022
80.4966
81.5723
82.7109
83.8096
84.7807
85.5507
86.063
86.2812
86.1882
85.7842
85.0823
84.105
82.8804
81.4393
79.8131
78.0322
76.1253
74.1186
72.0358
69.898
67.7237
65.5292
63.3284
61.1332
58.9537
56.7985
54.6745
52.5876
50.5426
48.5433
46.5928
44.6936
42.8475
41.0559
39.3197
37.6394
36.0153
34.4474
32.9352
31.4783
30.0759
28.7273
27.4313
26.1868
24.9927
23.8477
22.7503
21.6993
20.6931
19.7305
18.8098
17.9298
17.0889
16.2858
15.519
14.7871
14.0889
13.4229
12.7879
12.1827
11.606
11.0567
10.5335
10.0355
9.56144
9.11037
8.68129
8.27322
7.88524
7.51645
7.16599
6.83302
6.51676
6.21643
5.93129
5.66063
5.40377
5.16006
4.92888
4.70962
4.50171
4.3046
4.11777
3.94072
3.77298
3.61408
3.46359
3.32111
3.18624
3.0586
2.93783
2.8236
2.71558
2.61347
2.51696
2.42579
2.33968
2.25839
2.18166
2.10928
2.04101
1.97665
1.916
1.85886
1.80505
1.75439
1.70671
1.66184
1.61962
1.5799
1.54252
1.50735
1.47424
1.44305
1.41366
1.38592
1.35973
1.33495
1.31146
1.28916
1.26793
1.24768
1.22829
1.20967
1.19174
1.1744
1.15757
1.14119
1.12517
1.10947
1.09401
1.07875
1.06364
1.04864
1.03371
1.01883
1.00396
0.989086
0.974194
0.959268
0.944299
0.929283
0.914215
0.899096
0.883929
0.868717
0.853466
0.838185
0.822881
0.807564
0.792245
0.776934
0.761642
0.74638
0.73116
0.715994
0.700891
0.685863
0.670921
0.656074
0.641333
0.626705
0.6122
0.597827
0.583592
0.569503
0.555566
0.541788
0.528174
0.514728
0.501457
0.488363
0.475451
0.462724
0.450184
0.437835
0.425679
0.413716
0.40195
0.390381
0.37901
0.367838
0.356865
0.346092
0.33552
0.325147
0.314974
0.305001
0.295226
0.285651
0.276274
0.267094
0.25811
0.249323
0.240731
0.232333
0.224128
0.216116
0.208295
0.200665
0.193224
0.185972
0.178907
0.172028
0.165335
0.158825
0.152498
0.146353
0.140387
0.1346
0.12899
0.123555
0.118294
0.113203
0.108282
0.103527
0.098937
0.0945083
0.0902382
0.0861239
0.0821621
0.0783493
0.0746822
0.071157
0.0677701
0.0645176
0.0613955
0.0584
0.055527
0.0527726
0.0501328
0.0476036
0.0451813
0.0428618
0.0406414
0.0385165
0.0364833
0.0345383
0.032678
0.030899
0.029198
0.0275718
0.0260173
0.0245318
0.0231124
0.0217566
0.0204621
0.0192268
0.0180487
0.0169259
0.0158569
0.0148401
0.013874
0.0129571
0.0120881
0.0112655
0.0104877
0.00975333
0.00906064
0.00840804
0.00779381
0.00721623
0.00667354
0.006164
0.00568585
0.00523738
0.00481691
0.00442281
0.0040535
0.00370749
0.00338332
0.00307964
0.00279515
0.00252863
0.00227895
0.00204501
0.00182584
0.00162048
0.00142805
0.00124776
0.00107882
0.000920541
0.00077225
0.000633335
0.000503224
0.000381384
0.000267318
0.000160558
6.06702e-05
-3.27537e-05
-0.000120095
-0.000201708
-0.000277924
-0.000349052
-0.000415384
-0.000477197
-0.000534752
-0.000588293
-0.000638047
-0.000684227
-0.000727033
-0.000766652
-0.000803262
-0.000837034
-0.000868126
-0.000896689
-0.000922862
-0.000946779
-0.000968562
-0.000988329
-0.00100619
-0.00102226
-0.00103664
-0.00104941
-0.00106069
-0.00107054
-0.00107904
-0.00108627
-0.00109231
-0.00109722
-0.00110108
-0.00110393
-0.00110585
-0.00110688
-0.00110707
-0.00110647
-0.00110513
-0.00110309
-0.00110039
-0.00109708
-0.00109319
-0.00108876
-0.00108381
-0.00107838
-0.0010725
-0.00106619
-0.00105949
-0.00105242
-0.00104501
-0.00103726
-0.00102921
-0.00102088
-0.00101227
-0.00100342
-0.000994344
-0.000985056
-0.000975573
-0.00096591
-0.000956081
-0.000946098
-0.000935971
-0.000925711
-0.000915327
-0.000904832
-0.000894236
-0.00088355
-0.000872781
-0.000861937
-0.000851025
-0.000840049
-0.000829018
-0.000817939
-0.000806818
-0.000795662
-0.000784476
-0.000773267
-0.00076204
-0.000750797
-0.000739542
-0.000728278
-0.000717007
-0.000705731
-0.000694454
-0.00068318
-0.000671911
-0.000660652
-0.000649402
-0.000638166
-0.000626943
-0.000615736
-0.000604547
-0.000593378
-0.000582233
-0.000571112
-0.000560017
-0.000548949
-0.000537908
-0.000526895
-0.00051591
-0.000504953
-0.000494024
-0.000483125
-0.000472258
-0.000461422
-0.000450618
-0.000439846
-0.000429104
-0.00041839
-0.000407705
-0.000397049
-0.000386422
-0.000375826
-0.000365261
-0.000354727
-0.000344221
-0.000333742
-0.000323288
-0.000312858
-0.00030245
-0.000292064
-0.000281703
-0.000271366
-0.000261056
-0.000250771
-0.000240512
-0.000230274
-0.000220055
-0.000209854
-0.000199669
-0.000189499
-0.000179347
-0.000169211
-0.000159094
-0.000148994
-0.000138909
-0.000128839
-0.000118782
-0.000108735
-9.8698e-05
-8.86691e-05
-7.86481e-05
-6.86305e-05
-5.86271e-05
-4.85976e-05
-3.86729e-05
-2.83508e-05
-1.90614e-05
-4.05498e-06
79.9266
80.6953
82.5232
84.189
83.2929
81.1514
78.9494
77.2575
76.271
75.9734
76.2537
76.974
77.9952
79.1908
80.4489
81.6693
82.7608
83.6445
84.2598
84.5697
84.5587
84.2289
83.5959
82.6844
81.5241
80.1467
78.584
76.8665
75.0225
73.0778
71.0558
68.9771
66.8601
64.7206
62.5724
60.4273
58.2952
56.1846
54.1025
52.0547
50.0461
48.0807
46.1617
44.2916
42.4724
40.7057
38.9925
37.3335
35.7291
34.1794
32.6842
31.243
29.8552
28.5201
27.2367
26.004
24.8209
23.686
22.5982
21.556
20.5582
19.6033
18.69
17.8167
16.9822
16.1851
15.4239
14.6973
14.004
13.3427
12.7121
12.111
11.5381
10.9924
10.4727
9.97787
9.50687
9.05867
8.6323
8.22679
7.84123
7.47473
7.12644
6.79554
6.48122
6.18274
5.89935
5.63035
5.37507
5.13285
4.90308
4.68516
4.47852
4.28262
4.09693
3.92096
3.75424
3.59632
3.44675
3.30514
3.17109
3.04423
2.92421
2.81068
2.70332
2.60184
2.50593
2.41533
2.32976
2.24898
2.17274
2.10082
2.03299
1.96906
1.90881
1.85206
1.79862
1.74831
1.70097
1.65643
1.61453
1.57512
1.53804
1.50316
1.47033
1.43941
1.41028
1.3828
1.35685
1.33231
1.30905
1.28697
1.26596
1.24591
1.22671
1.20828
1.19052
1.17334
1.15667
1.14042
1.12454
1.10895
1.0936
1.07843
1.06341
1.04848
1.03361
1.01878
1.00395
0.989117
0.974251
0.959344
0.944387
0.929377
0.91431
0.899187
0.884012
0.868789
0.853524
0.838226
0.822903
0.807567
0.792226
0.776893
0.761579
0.746295
0.731053
0.715864
0.70074
0.685692
0.67073
0.655864
0.641104
0.626459
0.611938
0.597549
0.5833
0.569198
0.555249
0.54146
0.527835
0.514381
0.501101
0.488
0.475081
0.462348
0.449804
0.43745
0.42529
0.413325
0.401556
0.389984
0.378612
0.367439
0.356465
0.345692
0.335119
0.324747
0.314575
0.304602
0.294829
0.285255
0.275879
0.2667
0.257719
0.248933
0.240342
0.231946
0.223744
0.215733
0.207914
0.200286
0.192847
0.185597
0.178534
0.171658
0.164967
0.15846
0.152136
0.145993
0.140031
0.134247
0.12864
0.123209
0.117951
0.112865
0.107948
0.103199
0.098614
0.094191
0.0899271
0.0858191
0.081864
0.0780583
0.0743984
0.0708807
0.0675014
0.0642567
0.0611425
0.0581549
0.0552899
0.0525434
0.0499115
0.0473901
0.0449754
0.0426635
0.0404506
0.0383329
0.0363069
0.0343688
0.0325153
0.0307429
0.0290482
0.027428
0.0258793
0.0243991
0.0229848
0.0216337
0.0203435
0.0191122
0.0179377
0.0168183
0.0157524
0.0147386
0.0137754
0.0128615
0.0119954
0.0111758
0.0104012
0.00966993
0.00898054
0.0083313
0.00772051
0.0071464
0.00660719
0.00610111
0.00562637
0.00518125
0.00476402
0.00437306
0.00400676
0.00366362
0.00334219
0.0030411
0.00275905
0.00249483
0.00224729
0.00201538
0.00179809
0.00159448
0.0014037
0.00122494
0.00105743
0.000900476
0.000753422
0.000615661
0.000486626
0.00036579
0.00025266
0.000146774
4.77019e-05
-4.49604e-05
-0.000131589
-0.000212534
-0.000288124
-0.000358663
-0.000424444
-0.000485741
-0.000542811
-0.000595896
-0.000645221
-0.000690998
-0.000733422
-0.000772682
-0.000808954
-0.000842407
-0.000873199
-0.00090148
-0.000927387
-0.000951051
-0.000972596
-0.000992136
-0.00100979
-0.00102565
-0.00103984
-0.00105244
-0.00106354
-0.00107323
-0.00108158
-0.00108867
-0.00109457
-0.00109936
-0.00110309
-0.00110583
-0.00110763
-0.00110856
-0.00110865
-0.00110796
-0.00110653
-0.00110441
-0.00110163
-0.00109825
-0.00109429
-0.00108979
-0.00108477
-0.00107929
-0.00107335
-0.00106699
-0.00106024
-0.00105312
-0.00104565
-0.00103787
-0.00102978
-0.0010214
-0.00101276
-0.00100388
-0.000994767
-0.000985448
-0.000975936
-0.000966247
-0.000956393
-0.000946385
-0.000936235
-0.000925952
-0.000915548
-0.000905034
-0.00089442
-0.000883717
-0.000872932
-0.000862073
-0.000851145
-0.000840155
-0.00082911
-0.000818018
-0.000806886
-0.000795719
-0.000784524
-0.000773307
-0.000762072
-0.000750821
-0.000739559
-0.000728287
-0.000717009
-0.000705726
-0.000694443
-0.000683163
-0.00067189
-0.000660625
-0.000649371
-0.00063813
-0.000626903
-0.000615692
-0.0006045
-0.000593329
-0.000582182
-0.00057106
-0.000559964
-0.000548895
-0.000537853
-0.000526839
-0.000515853
-0.000504895
-0.000493965
-0.000483066
-0.000472198
-0.000461362
-0.000450559
-0.000439786
-0.000429043
-0.000418329
-0.000407644
-0.000396988
-0.000386362
-0.000375767
-0.000365203
-0.000354669
-0.000344164
-0.000333686
-0.000323232
-0.000312802
-0.000302395
-0.000292011
-0.000281651
-0.000271316
-0.000261007
-0.000250725
-0.000240467
-0.000230231
-0.000220014
-0.000209814
-0.00019963
-0.000189463
-0.000179312
-0.000169178
-0.000159063
-0.000148965
-0.000138882
-0.000128814
-0.000118758
-0.000108713
-9.86785e-05
-8.86515e-05
-7.86322e-05
-6.86164e-05
-5.86149e-05
-4.85875e-05
-3.86649e-05
-2.8345e-05
-1.90575e-05
-4.05452e-06
76.3336
77.0365
78.6398
80.0548
78.8402
76.4905
74.2177
72.578
71.7298
71.6225
72.1149
73.0394
74.2413
75.6041
77.0325
78.4321
79.7056
80.7623
81.5339
81.983
82.0962
81.8788
81.3506
80.5396
79.4776
78.1979
76.7325
75.1119
73.3639
71.5138
69.5842
67.5954
65.5651
63.5088
61.4402
59.3705
57.3098
55.2664
53.2472
51.2582
49.3043
47.3896
45.5176
43.691
41.912
40.1825
38.5036
36.8764
35.3015
33.779
32.309
30.8913
29.5253
28.2104
26.9459
25.7307
24.5639
23.4443
22.3707
21.3419
20.3565
19.4132
18.5107
17.6477
16.8227
16.0345
15.2817
14.563
13.877
13.2227
12.5986
12.0036
11.4366
10.8963
10.3817
9.89167
9.42522
8.98131
8.55899
8.15732
7.77538
7.41232
7.06727
6.73944
6.42804
6.13232
5.85155
5.58504
5.33211
5.09213
4.86448
4.64856
4.44383
4.24973
4.06575
3.8914
3.72621
3.56974
3.42155
3.28124
3.14843
3.02273
2.90382
2.79134
2.68498
2.58444
2.48943
2.39967
2.31491
2.2349
2.15939
2.08816
2.02099
1.95769
1.89805
1.84187
1.78899
1.73921
1.69239
1.64834
1.60691
1.56796
1.53133
1.49688
1.46447
1.43396
1.40522
1.37813
1.35255
1.32836
1.30545
1.28371
1.26301
1.24327
1.22436
1.20621
1.1887
1.17177
1.15533
1.13929
1.1236
1.10819
1.09299
1.07797
1.06307
1.04825
1.03347
1.01872
1.00396
0.989172
0.974345
0.959466
0.944527
0.929525
0.914459
0.89933
0.884142
0.8689
0.853614
0.83829
0.822939
0.807571
0.792199
0.776832
0.761484
0.746167
0.730891
0.715669
0.700513
0.685434
0.670441
0.655546
0.640759
0.626088
0.611543
0.597132
0.582861
0.568739
0.554772
0.540966
0.527327
0.513859
0.500567
0.487454
0.474526
0.461784
0.449232
0.436872
0.424706
0.412736
0.400964
0.389389
0.378014
0.36684
0.355865
0.345092
0.334519
0.324147
0.313976
0.304004
0.294233
0.28466
0.275286
0.26611
0.257131
0.248347
0.23976
0.231366
0.223166
0.215159
0.207343
0.199718
0.192282
0.185035
0.177975
0.171102
0.164415
0.157912
0.151591
0.145453
0.139495
0.133716
0.128115
0.122689
0.117437
0.112358
0.107448
0.102706
0.0981291
0.0937147
0.0894599
0.0853616
0.0814165
0.0776213
0.0739724
0.070466
0.0670982
0.0638652
0.0607629
0.0577873
0.0549342
0.0521997
0.0495796
0.0470699
0.0446667
0.0423662
0.0401644
0.0380577
0.0360424
0.0341148
0.0322715
0.030509
0.0288238
0.0272127
0.0256727
0.0242007
0.0227939
0.0214498
0.0201661
0.0189406
0.0177715
0.0166571
0.0155959
0.0145865
0.0136277
0.012718
0.0118563
0.0110412
0.0102712
0.00954473
0.00886027
0.00821612
0.00761051
0.00704164
0.00650769
0.00600683
0.00553725
0.00509716
0.00468483
0.00429859
0.00393682
0.003598
0.00328067
0.00298346
0.00270507
0.00244429
0.00219998
0.00197109
0.00175661
0.00155564
0.00136732
0.00119084
0.00102546
0.000870493
0.000725288
0.00058925
0.000461822
0.000342484
0.000230751
0.00012617
2.8315e-05
-6.32092e-05
-0.000148773
-0.00022872
-0.000303373
-0.000373036
-0.000437994
-0.000498518
-0.000554863
-0.000607267
-0.000655951
-0.000701123
-0.000742978
-0.000781701
-0.000817468
-0.000850445
-0.000880789
-0.000908647
-0.000934156
-0.000957443
-0.000978629
-0.000997832
-0.00101516
-0.00103073
-0.00104463
-0.00105697
-0.00106781
-0.00107726
-0.00108538
-0.00109226
-0.00109796
-0.00110255
-0.0011061
-0.00110867
-0.00111031
-0.00111108
-0.00111102
-0.00111019
-0.00110863
-0.00110638
-0.00110349
-0.00109999
-0.00109593
-0.00109133
-0.00108622
-0.00108064
-0.00107462
-0.00106818
-0.00106135
-0.00105416
-0.00104662
-0.00103877
-0.00103062
-0.00102219
-0.00101349
-0.00100456
-0.000995399
-0.000986034
-0.000976481
-0.000966751
-0.000956858
-0.000946814
-0.000936628
-0.000926312
-0.000915878
-0.000905335
-0.000894695
-0.000883966
-0.000873157
-0.000862273
-0.000851323
-0.000840311
-0.000829247
-0.000818136
-0.000806987
-0.000795805
-0.000784597
-0.000773367
-0.000762119
-0.000750857
-0.000739582
-0.000728299
-0.00071701
-0.000705718
-0.000694426
-0.000683138
-0.000671856
-0.000660584
-0.000649323
-0.000638076
-0.000626843
-0.000615627
-0.000604431
-0.000593256
-0.000582106
-0.000570981
-0.000559884
-0.000548813
-0.00053777
-0.000526754
-0.000515767
-0.000504807
-0.000493877
-0.000482977
-0.000472109
-0.000461273
-0.000450468
-0.000439695
-0.000428952
-0.000418237
-0.000407552
-0.000396897
-0.000386272
-0.000375678
-0.000365114
-0.000354581
-0.000344077
-0.0003336
-0.000323148
-0.000312719
-0.000302313
-0.000291931
-0.000281573
-0.000271241
-0.000260935
-0.000250655
-0.0002404
-0.000230166
-0.000219952
-0.000209754
-0.000199573
-0.000189408
-0.00017926
-0.000169129
-0.000159016
-0.000148921
-0.000138841
-0.000128776
-0.000118723
-0.000108681
-9.86489e-05
-8.86247e-05
-7.86082e-05
-6.85954e-05
-5.85969e-05
-4.85727e-05
-3.86533e-05
-2.83367e-05
-1.90517e-05
-4.05378e-06
71.5305
72.1552
73.3589
74.3901
72.7268
70.1019
67.7545
66.2276
65.6147
65.8038
66.6074
67.8089
69.2273
70.7824
72.42
74.0572
75.5823
76.878
77.8604
78.4961
78.777
78.7119
78.3267
77.6534
76.7267
75.5812
74.2496
72.7619
71.1453
69.4241
67.6202
65.7531
63.8401
61.8961
59.9344
57.9662
56.0012
54.0476
52.1125
50.2019
48.3208
46.4736
44.6641
42.8952
41.1695
39.4892
37.8559
36.2708
34.7347
33.2483
31.8117
30.425
29.0879
27.7998
26.5602
25.3683
24.2231
23.1237
22.0689
21.0577
20.0888
19.1609
18.2728
17.4233
16.611
15.8346
15.0929
14.3846
13.7085
13.0633
12.4479
11.8611
11.3017
10.7686
10.2608
9.77718
9.31676
8.87855
8.46161
8.06502
7.6879
7.32938
6.98865
6.6649
6.35737
6.06532
5.78803
5.52482
5.27503
5.03801
4.81318
4.59993
4.39772
4.20602
4.02431
3.85211
3.68896
3.53442
3.38806
3.24948
3.11831
2.99417
2.87672
2.76564
2.6606
2.56132
2.46749
2.37887
2.29518
2.21618
2.14163
2.07133
2.00504
1.94258
1.88373
1.82833
1.77618
1.72711
1.68096
1.63757
1.59678
1.55844
1.52241
1.48853
1.45668
1.42671
1.3985
1.37191
1.34683
1.32312
1.30067
1.27937
1.25911
1.23977
1.22125
1.20347
1.18631
1.16971
1.15356
1.13781
1.12238
1.1072
1.09222
1.07738
1.06264
1.04796
1.03331
1.01866
1.00399
0.989266
0.974488
0.959644
0.944727
0.929735
0.914668
0.899529
0.884322
0.869056
0.853739
0.838379
0.822989
0.80758
0.792164
0.776753
0.761359
0.745996
0.730675
0.715409
0.700209
0.685087
0.670055
0.655121
0.640297
0.625592
0.611014
0.596572
0.582274
0.568126
0.554135
0.540306
0.526647
0.51316
0.499852
0.486725
0.473783
0.46103
0.448468
0.4361
0.423927
0.41195
0.400173
0.388595
0.377217
0.36604
0.355065
0.34429
0.333718
0.323347
0.313176
0.303207
0.293437
0.283867
0.274496
0.265322
0.256346
0.247567
0.238982
0.230592
0.222396
0.214393
0.206581
0.198959
0.191528
0.184285
0.17723
0.170361
0.163679
0.15718
0.150865
0.144732
0.13878
0.133008
0.127413
0.121995
0.116751
0.11168
0.10678
0.102048
0.0974818
0.0930789
0.0888362
0.0847508
0.0808192
0.0770382
0.0734039
0.0699126
0.0665603
0.063343
0.0602567
0.0572971
0.0544601
0.0517415
0.0491372
0.0466432
0.0442555
0.0419701
0.0397833
0.0376912
0.0356902
0.0337766
0.031947
0.0301976
0.0285253
0.0269264
0.025398
0.0239369
0.0225403
0.0212055
0.0199303
0.0187126
0.0175506
0.0164427
0.0153875
0.0143839
0.0134307
0.0125267
0.0116707
0.0108615
0.0100976
0.00937755
0.00869973
0.00806239
0.00746375
0.00690194
0.00637507
0.00588124
0.00541859
0.00498527
0.0045795
0.00419959
0.00384388
0.00351084
0.00319899
0.00290696
0.00263344
0.00237724
0.00213722
0.00191234
0.00170161
0.00150414
0.00131907
0.00114562
0.000983068
0.000830729
0.000687975
0.00055422
0.00042892
0.000311566
0.000201684
9.88307e-05
2.58985e-06
-8.74254e-05
-0.000171577
-0.000250201
-0.000323614
-0.000392114
-0.00045598
-0.000515481
-0.000570864
-0.000622364
-0.000670198
-0.000714569
-0.000755668
-0.000793679
-0.000828775
-0.000861122
-0.000890871
-0.000918168
-0.000943146
-0.000965931
-0.000986643
-0.0010054
-0.00102231
-0.00103748
-0.001051
-0.00106298
-0.00107349
-0.00108261
-0.00109043
-0.00109702
-0.00110245
-0.00110679
-0.00111009
-0.00111243
-0.00111386
-0.00111442
-0.00111417
-0.00111315
-0.00111142
-0.00110901
-0.00110596
-0.00110231
-0.00109811
-0.00109337
-0.00108814
-0.00108244
-0.0010763
-0.00106976
-0.00106282
-0.00105554
-0.00104791
-0.00103997
-0.00103174
-0.00102323
-0.00101446
-0.00100546
-0.000996238
-0.000986813
-0.000977203
-0.000967419
-0.000957475
-0.000947381
-0.000937149
-0.00092679
-0.000916315
-0.000905734
-0.000895058
-0.000884295
-0.000873453
-0.000862538
-0.000851557
-0.000840518
-0.000829427
-0.000818292
-0.000807121
-0.000795919
-0.000784692
-0.000773445
-0.00076218
-0.000750902
-0.000739611
-0.000728313
-0.00071701
-0.000705706
-0.000694402
-0.000683103
-0.000671811
-0.000660529
-0.000649259
-0.000638003
-0.000626762
-0.00061554
-0.000604338
-0.000593159
-0.000582005
-0.000570878
-0.000559777
-0.000548704
-0.000537659
-0.000526641
-0.000515651
-0.00050469
-0.000493758
-0.000482858
-0.000471989
-0.000461152
-0.000450347
-0.000439573
-0.000428829
-0.000418115
-0.00040743
-0.000396775
-0.000386151
-0.000375558
-0.000364995
-0.000354464
-0.000343961
-0.000333485
-0.000323035
-0.000312608
-0.000302204
-0.000291825
-0.00028147
-0.000271141
-0.000260838
-0.000250562
-0.00024031
-0.00023008
-0.000219868
-0.000209674
-0.000199496
-0.000189334
-0.00017919
-0.000169063
-0.000158954
-0.000148862
-0.000138786
-0.000128725
-0.000118676
-0.000108638
-9.86093e-05
-8.85889e-05
-7.85763e-05
-6.85676e-05
-5.85733e-05
-4.85534e-05
-3.86381e-05
-2.83256e-05
-1.90438e-05
-4.05273e-06
65.5843
66.0169
66.9364
67.5238
65.1796
61.9369
59.439
58.1176
57.8905
58.5355
59.7935
61.36
62.9859
64.6971
66.5409
68.463
70.3252
71.9458
73.2012
74.075
74.5692
74.6976
74.4969
74.0026
73.2517
72.281
71.1233
69.8078
68.3607
66.8053
65.1623
63.4505
61.6865
59.8849
58.0585
56.2182
54.3737
52.533
50.7033
48.8906
47.1004
45.3373
43.6054
41.9082
40.2487
38.6294
37.0524
35.5194
34.0315
32.5897
31.1946
29.8463
28.5448
27.29
26.0813
24.9181
23.7998
22.7254
21.694
20.7046
19.7561
18.8474
17.9772
17.1444
16.3478
15.5861
14.8582
14.1629
13.4989
12.8652
12.2605
11.6838
11.1339
10.6098
10.1104
9.63475
9.18182
8.75069
8.34044
7.95017
7.57902
7.22616
6.89079
6.57213
6.26942
5.98193
5.70898
5.44987
5.20398
4.97066
4.74933
4.5394
4.34034
4.15162
3.97274
3.80322
3.6426
3.49046
3.34637
3.20995
3.08082
2.95862
2.843
2.73365
2.63026
2.53253
2.44019
2.35296
2.27061
2.19287
2.11953
2.05037
1.98518
1.92375
1.86591
1.81145
1.76022
1.71203
1.66673
1.62416
1.58416
1.54658
1.51128
1.47813
1.44697
1.41768
1.39012
1.36417
1.33971
1.3166
1.29473
1.27399
1.25426
1.23543
1.2174
1.20008
1.18336
1.16717
1.1514
1.136
1.12089
1.106
1.09129
1.07668
1.06215
1.04765
1.03315
1.01863
1.00405
0.989412
0.974695
0.959893
0.945
0.930018
0.914947
0.899793
0.884561
0.869262
0.853904
0.838498
0.823058
0.807595
0.792123
0.776654
0.761202
0.745781
0.730403
0.71508
0.699826
0.684652
0.669568
0.654586
0.639716
0.624968
0.610349
0.595869
0.581535
0.567355
0.553333
0.539478
0.525793
0.512284
0.498955
0.48581
0.472852
0.460085
0.447511
0.435132
0.42295
0.410966
0.399183
0.3876
0.376218
0.365039
0.354062
0.343288
0.332715
0.322345
0.312176
0.302209
0.292442
0.282875
0.273507
0.264338
0.255366
0.24659
0.23801
0.229625
0.221433
0.213435
0.205628
0.198011
0.190585
0.183347
0.176298
0.169435
0.162758
0.156265
0.149957
0.143831
0.137886
0.132121
0.126535
0.121126
0.115893
0.110832
0.105944
0.101224
0.0966713
0.0922827
0.0880553
0.0839861
0.0800715
0.0763082
0.0726924
0.0692201
0.0658874
0.06269
0.0596237
0.0566843
0.0538675
0.051169
0.0485846
0.0461103
0.0437419
0.0414755
0.0393074
0.0372336
0.0352506
0.0333546
0.0315421
0.0298094
0.0281531
0.0265697
0.0250559
0.0236086
0.0222247
0.0209016
0.019637
0.0184289
0.0172755
0.0161754
0.0151276
0.014131
0.0131845
0.0122874
0.0114384
0.0106365
0.00988023
0.00916819
0.0084987
0.00786998
0.00728016
0.00672728
0.00620936
0.00572443
0.00527053
0.00484576
0.00444827
0.00407632
0.00372823
0.00340243
0.00309744
0.00281188
0.00254446
0.00229396
0.00205929
0.0018394
0.00163333
0.00144019
0.00125917
0.00108949
0.000930441
0.000781365
0.000641649
0.000510724
0.000388062
0.000273169
0.000165583
6.48716e-05
-2.93674e-05
-0.000117511
-0.00019991
-0.000276893
-0.000348767
-0.000415824
-0.000478337
-0.000536567
-0.000590757
-0.000641135
-0.000687912
-0.000731287
-0.000771448
-0.000808576
-0.00084284
-0.000874402
-0.000903413
-0.000930011
-0.000954329
-0.000976489
-0.000996613
-0.00101481
-0.0010312
-0.00104587
-0.00105892
-0.00107045
-0.00108054
-0.00108927
-0.00109672
-0.00110295
-0.00110804
-0.00111206
-0.00111507
-0.00111712
-0.00111827
-0.00111858
-0.00111809
-0.00111684
-0.00111489
-0.00111227
-0.00110903
-0.0011052
-0.00110081
-0.00109591
-0.00109052
-0.00108468
-0.0010784
-0.00107172
-0.00106466
-0.00105725
-0.00104951
-0.00104147
-0.00103313
-0.00102453
-0.00101567
-0.00100658
-0.000997281
-0.000987781
-0.000978099
-0.000968248
-0.000958239
-0.000948085
-0.000937795
-0.000927382
-0.000916857
-0.000906228
-0.000895507
-0.000884701
-0.000873818
-0.000862864
-0.000851847
-0.000840774
-0.00082965
-0.000818486
-0.000807287
-0.00079606
-0.00078481
-0.000773541
-0.000762254
-0.000750954
-0.000739645
-0.000728329
-0.000717009
-0.000705688
-0.00069437
-0.000683057
-0.000671752
-0.000660458
-0.000649177
-0.00063791
-0.000626661
-0.00061543
-0.000604222
-0.000593037
-0.000581879
-0.000570748
-0.000559644
-0.000548568
-0.000537519
-0.000526498
-0.000515505
-0.000504542
-0.000493609
-0.000482708
-0.000471838
-0.000461001
-0.000450195
-0.00043942
-0.000428676
-0.000417961
-0.000407277
-0.000396623
-0.000385999
-0.000375407
-0.000364846
-0.000354316
-0.000343815
-0.000333341
-0.000322893
-0.000312469
-0.000302069
-0.000291693
-0.000281341
-0.000271016
-0.000260718
-0.000250446
-0.000240198
-0.000229971
-0.000219763
-0.000209573
-0.000199399
-0.000189242
-0.000179102
-0.00016898
-0.000158876
-0.000148789
-0.000138718
-0.000128661
-0.000118617
-0.000108583
-9.85596e-05
-8.8544e-05
-7.85364e-05
-6.85328e-05
-5.85438e-05
-4.85292e-05
-3.86189e-05
-2.83116e-05
-1.90338e-05
-4.05134e-06
58.6367
58.5139
59.1935
59.9862
57.1572
52.8062
49.5674
48.1688
48.3066
49.5732
51.5473
53.6862
55.4931
57.2971
59.3379
61.592
63.8833
65.9113
67.4824
68.6524
69.4239
69.7954
69.8269
69.5584
69.0293
68.2791
67.3398
66.24
65.0041
63.6541
62.2096
60.6886
59.107
57.479
55.8172
54.1322
52.4334
50.7289
49.026
47.3309
45.6494
43.9867
42.3473
40.7353
39.1544
37.6075
36.0974
34.6261
33.1954
31.8066
30.4605
29.1578
27.8987
26.6832
25.5112
24.3822
23.2958
22.2511
21.2476
20.2841
19.3599
18.4738
17.6249
16.812
16.0341
15.2899
14.5785
13.8986
13.2491
12.629
12.0371
11.4724
10.9338
10.4204
9.93103
9.46483
9.02084
8.59814
8.19585
7.81311
7.44908
7.10297
6.77399
6.46138
6.16442
5.88239
5.6146
5.36041
5.11916
4.89026
4.67311
4.46715
4.27185
4.08669
3.91118
3.74486
3.58727
3.43799
3.29662
3.16277
3.03607
2.91618
2.80275
2.69547
2.59404
2.49817
2.40759
2.32204
2.24127
2.16504
2.09314
2.02534
1.96145
1.90127
1.84461
1.79129
1.74115
1.69401
1.64972
1.60812
1.56906
1.5324
1.49799
1.46569
1.43536
1.40688
1.38011
1.35493
1.33121
1.30882
1.28764
1.26757
1.24849
1.23028
1.21284
1.19607
1.17988
1.16418
1.14888
1.1339
1.11917
1.10464
1.09023
1.07591
1.06162
1.04733
1.03301
1.01864
1.00418
0.989633
0.974984
0.960228
0.945361
0.930386
0.915308
0.900131
0.884867
0.869524
0.854114
0.838651
0.823148
0.807618
0.792077
0.776538
0.761015
0.745523
0.730074
0.714684
0.699363
0.684124
0.668979
0.653939
0.639014
0.624213
0.609546
0.59502
0.580643
0.566424
0.552366
0.538478
0.524763
0.511227
0.497874
0.484708
0.471731
0.458947
0.446358
0.433967
0.421774
0.409782
0.397991
0.386403
0.375018
0.363836
0.352857
0.342082
0.33151
0.321142
0.310975
0.301011
0.291247
0.281684
0.27232
0.263156
0.254188
0.245418
0.236844
0.228464
0.220278
0.212285
0.204484
0.196874
0.189453
0.182222
0.175179
0.168322
0.161652
0.155167
0.148866
0.142748
0.136812
0.131057
0.12548
0.120082
0.11486
0.109813
0.104938
0.100233
0.0956967
0.0913254
0.0871164
0.0830666
0.0791726
0.0754308
0.0718374