/*--------------------------------*- C++ -*----------------------------------*\
| =========                 |                                                 |
| \\      /  F ield         | OpenFOAM: The Open Source CFD Toolbox           |
|  \\    /   O peration     | Version:  v2006                                 |
|   \\  /    A nd           | Website:  www.openfoam.com                      |
|    \\/     M anipulation  |                                                 |
\*---------------------------------------------------------------------------*/
FoamFile
{
    version     2.0;
    format      ascii;
    class       volScalarField;
    location    "0";
    object      f;
}
// * * * * * * * * * * * * * * * * * * * * * * * * * * * * * * * * * * * * * //

dimensions      [0 0 0 0 0 0 0];


internalField   nonuniform List<scalar> 
2500
(
1.19238e-159
-2.44895e-141
1.00792e-130
-1.77716e-123
-1.81879e-120
-2.18792e-118
-2.31874e-116
-3.44259e-115
-4.02863e-115
6.94704e-109
1.18367e-107
8.47963e-107
3.47067e-106
9.25607e-106
1.73783e-105
2.42332e-105
2.61335e-105
2.25037e-105
1.58804e-105
9.38297e-106
4.72594e-106
2.06015e-106
7.87389e-107
2.66805e-107
8.09276e-108
2.2159e-108
5.5178e-109
1.25773e-109
2.63964e-110
5.12767e-111
9.26341e-112
1.56306e-112
2.47317e-113
3.683e-114
5.1796e-115
6.90125e-116
8.73784e-117
1.05431e-117
1.21564e-118
1.34291e-119
1.4249e-120
1.45565e-121
1.43507e-122
1.36829e-123
1.26438e-124
1.13451e-125
9.90247e-127
8.42133e-128
6.98767e-129
4.1182e-130
1.46527e-155
-9.86383e-138
2.40228e-127
-2.98895e-120
-2.40553e-117
-2.40426e-115
-2.3645e-113
-3.28232e-112
-8.70406e-112
3.46498e-106
5.40923e-105
3.5827e-104
1.36589e-103
3.41421e-103
6.03951e-103
7.97028e-103
8.16588e-103
6.70298e-103
4.52247e-103
2.56156e-103
1.23974e-103
5.2041e-104
1.91902e-104
6.28476e-105
1.8454e-105
4.89867e-106
1.18416e-106
2.62352e-107
5.35787e-108
1.01385e-108
1.78589e-109
2.94089e-110
4.54509e-111
6.61624e-112
9.1021e-113
1.18713e-113
1.47222e-114
1.74095e-115
1.96836e-116
2.13328e-117
2.2217e-118
2.2287e-119
2.15841e-120
2.02244e-121
1.83724e-122
1.62122e-123
1.39209e-124
1.16503e-125
9.51621e-127
5.61445e-128
1.74021e-151
-3.83654e-134
5.52551e-124
-4.84991e-117
-3.07185e-114
-2.55294e-112
-2.34076e-110
-2.98331e-109
-9.78891e-109
1.65811e-103
2.37385e-102
1.45495e-101
5.17131e-101
1.21257e-100
2.02258e-100
2.52808e-100
2.46262e-100
1.92838e-100
1.24484e-100
6.76385e-101
3.14769e-101
1.27319e-101
4.53258e-102
1.43557e-102
4.08304e-103
1.05138e-103
2.46861e-104
5.31887e-105
1.05757e-105
1.95039e-106
3.3516e-107
5.38906e-108
8.13902e-109
1.15869e-109
1.56003e-110
1.99258e-111
2.42146e-112
2.80754e-113
3.11394e-114
3.31231e-115
3.38724e-116
3.33791e-117
3.17681e-118
2.92638e-119
2.61441e-120
2.2696e-121
1.91786e-122
1.58005e-123
1.27091e-124
7.51018e-126
2.03321e-147
-1.46698e-130
1.24869e-120
-7.73005e-114
-3.85481e-111
-2.66503e-109
-2.28665e-107
-2.64181e-106
-9.11911e-106
7.77758e-101
1.02162e-99
5.79687e-99
1.92167e-98
4.22856e-98
6.65353e-98
7.87983e-98
7.30062e-98
5.45555e-98
3.37068e-98
1.75747e-98
7.86668e-99
3.06698e-99
1.0544e-99
3.23054e-100
8.90241e-101
2.22423e-101
5.07393e-102
1.06343e-102
2.05911e-103
3.70189e-104
6.20724e-105
9.7474e-106
1.43891e-106
2.00374e-107
2.64076e-108
3.3038e-109
3.93501e-110
4.47412e-111
4.86892e-112
5.084e-113
5.10587e-114
4.94344e-115
4.62434e-116
4.18844e-117
3.68055e-118
3.14376e-119
2.61469e-120
2.12086e-121
1.68009e-122
9.94423e-124
2.33537e-143
-5.5104e-127
2.77034e-117
-1.20929e-110
-4.75001e-108
-2.73316e-106
-2.20425e-104
-2.28936e-103
-7.75179e-103
3.57349e-98
4.30877e-97
2.26446e-96
7.00443e-96
1.44704e-95
2.14872e-95
2.41208e-95
2.12635e-95
1.51688e-95
8.97296e-96
4.49098e-96
1.93413e-96
7.27032e-97
2.41442e-97
7.15805e-98
1.91169e-98
4.63552e-99
1.02764e-99
2.09559e-100
3.95239e-101
6.92839e-102
1.13383e-102
1.73923e-103
2.50999e-104
3.41966e-105
4.41238e-106
5.40808e-107
6.31425e-108
7.04164e-109
7.51993e-110
7.70923e-111
7.60492e-112
7.23527e-113
6.65341e-114
5.9262e-115
5.12289e-116
4.30601e-117
3.5254e-118
2.81578e-119
2.1971e-120
1.30242e-121
2.63513e-139
-2.03177e-123
6.02896e-114
-1.85533e-107
-5.74273e-105
-2.75172e-103
-2.09633e-101
-1.94663e-100
-6.23409e-100
1.60709e-95
1.77965e-94
8.66687e-94
2.50261e-93
4.85608e-93
6.80776e-93
7.24671e-93
6.08061e-93
4.14248e-93
2.34695e-93
1.12794e-93
4.67531e-94
1.69495e-94
5.43889e-95
1.56071e-95
4.04064e-96
9.51157e-97
2.04966e-97
4.06771e-98
7.47458e-99
1.27786e-99
2.0414e-100
3.05948e-101
4.31741e-102
5.75596e-103
7.27267e-104
8.73432e-105
9.99842e-106
1.09383e-106
1.14651e-107
1.15417e-108
1.11851e-109
1.04585e-110
9.45571e-112
8.28359e-113
7.0453e-114
5.82832e-115
4.69783e-116
3.69522e-117
2.84039e-118
1.68602e-119
2.91858e-135
-7.34739e-120
1.28583e-110
-2.78914e-104
-6.80596e-102
-2.71746e-100
-1.96633e-98
-1.62658e-97
-4.82504e-97
7.06881e-93
7.19302e-92
3.24764e-91
8.75844e-91
1.59699e-90
2.1146e-90
2.13534e-90
1.70612e-90
1.1104e-90
6.02746e-91
2.78254e-91
1.11041e-91
3.88365e-92
1.20452e-92
3.34641e-93
8.40092e-94
1.92026e-94
4.02329e-95
7.77243e-96
1.39179e-96
2.32108e-97
3.62043e-98
5.30247e-99
7.31811e-100
9.54906e-101
1.18169e-101
1.39085e-102
1.56128e-103
1.67586e-104
1.72435e-105
1.70484e-106
1.62335e-107
1.49202e-108
1.32647e-109
1.14308e-110
9.5667e-112
7.79022e-113
6.18276e-114
4.79001e-115
3.62756e-116
2.15558e-117
3.17025e-131
-2.60355e-116
2.6849e-107
-4.10451e-101
-7.89928e-99
-2.62998e-97
-1.81828e-95
-1.33672e-94
-3.62702e-94
3.03846e-90
2.84271e-89
1.19054e-88
3.00015e-88
5.14286e-88
6.43477e-88
6.16678e-88
4.69362e-88
2.91945e-88
1.51888e-88
6.73751e-89
2.58939e-89
8.73979e-90
2.62072e-90
7.05114e-91
1.7169e-91
3.81172e-92
7.76676e-93
1.46091e-93
2.54989e-94
4.14906e-95
6.32025e-96
9.0477e-97
1.22149e-97
1.56027e-98
1.89141e-99
2.18214e-100
2.40248e-101
2.53061e-102
2.55649e-103
2.48276e-104
2.3232e-105
2.09917e-106
1.83542e-107
1.55609e-108
1.28169e-109
1.02748e-110
8.03048e-112
6.12862e-113
4.57337e-114
2.71958e-115
3.37415e-127
-9.03123e-113
5.48273e-104
-5.90675e-98
-8.96917e-96
-2.49197e-94
-1.6567e-92
-1.08069e-91
-2.66165e-91
1.27519e-87
1.09756e-86
4.26607e-86
1.00505e-85
1.62049e-85
1.91679e-85
1.74411e-85
1.26506e-85
7.52304e-86
3.75266e-86
1.60006e-86
5.92425e-87
1.93026e-87
5.59767e-88
1.45895e-88
3.4465e-89
7.43375e-90
1.47344e-90
2.69914e-91
4.59303e-92
7.29346e-93
1.08523e-93
1.51879e-94
2.00615e-95
2.50901e-96
2.97997e-97
3.37057e-98
3.64022e-99
3.76335e-100
3.73329e-101
3.56193e-102
3.27585e-103
2.91038e-104
2.50302e-105
2.08806e-106
1.69283e-107
1.33618e-108
1.02856e-109
7.73347e-111
5.68719e-112
3.38306e-113
3.51522e-123
-3.0635e-109
1.09361e-100
-8.30323e-95
-9.95115e-93
-2.30921e-91
-1.48638e-89
-8.59481e-89
-1.91233e-88
5.22026e-85
4.13625e-84
1.49292e-83
3.28993e-83
4.99177e-83
5.58457e-83
4.82676e-83
3.33778e-83
1.89846e-83
9.08303e-84
3.7239e-84
1.32873e-84
4.18053e-85
1.1728e-85
2.96194e-86
6.79017e-87
1.42322e-87
2.74476e-88
4.8979e-89
8.12748e-90
1.25977e-90
1.83135e-91
2.50614e-92
3.2394e-93
3.96746e-94
4.61765e-95
5.12132e-96
5.42656e-97
5.5071e-98
5.36547e-99
5.03e-100
4.54738e-101
3.97295e-102
3.36138e-103
2.75953e-104
2.20237e-105
1.71184e-106
1.29801e-107
9.61619e-109
6.96998e-110
4.14572e-111
3.58085e-119
-1.01503e-105
2.12781e-97
-1.13876e-91
-1.07741e-89
-2.09023e-88
-1.31226e-86
-6.72207e-86
-1.34727e-85
2.08237e-82
1.51999e-81
5.09745e-81
1.05131e-80
1.50187e-80
1.58995e-80
1.30591e-80
8.61322e-81
4.6875e-81
2.15188e-81
8.48611e-82
2.91898e-82
8.87104e-83
2.40823e-83
5.89502e-84
1.31182e-84
2.67263e-85
5.0163e-86
8.72166e-87
1.41161e-87
2.13618e-88
3.03459e-89
4.0614e-90
5.1382e-91
6.16377e-92
7.03119e-93
7.64771e-94
7.95177e-95
7.92287e-96
7.5823e-97
6.98544e-98
6.20876e-99
5.33514e-100
4.4412e-101
3.58856e-102
2.81981e-103
2.15859e-104
1.61249e-105
1.17722e-106
8.41094e-108
4.99997e-109
3.56252e-115
-3.28084e-102
4.03214e-94
-1.52171e-88
-1.13667e-86
-1.84566e-85
-1.1391e-83
-5.16739e-83
-9.31349e-83
8.08504e-80
5.44101e-79
1.69644e-78
3.27631e-78
4.4091e-78
4.41907e-78
3.45085e-78
2.17179e-78
1.13136e-78
4.98528e-79
1.89172e-79
6.27493e-80
1.84262e-80
4.84191e-81
1.14912e-81
2.48285e-82
4.9181e-83
8.98588e-84
1.5226e-84
2.40416e-85
3.55278e-86
4.93284e-87
6.458e-88
7.99817e-89
9.39916e-90
1.05104e-90
1.12134e-91
1.14427e-92
1.11953e-93
1.05258e-94
9.53111e-96
8.32981e-97
7.0409e-98
5.76759e-99
4.58749e-100
3.54958e-101
2.6765e-102
1.96997e-103
1.41746e-104
9.98429e-106
5.92902e-107
3.45708e-111
-1.0331e-98
7.42831e-91
-1.97843e-85
-1.16652e-83
-1.58735e-82
-9.7138e-81
-3.90159e-80
-6.31788e-80
3.05151e-77
1.89509e-76
5.49683e-76
9.94673e-76
1.26167e-75
1.19778e-75
8.89699e-76
5.34524e-76
2.66647e-76
1.12824e-76
4.12099e-77
1.31865e-77
3.74263e-78
9.52234e-79
2.19165e-79
4.59907e-80
8.8595e-81
1.57614e-81
2.60332e-82
4.01109e-83
5.78946e-84
7.85816e-85
1.00654e-85
1.22055e-86
1.40539e-87
1.54081e-88
1.61269e-89
1.61536e-90
1.55214e-91
1.43388e-92
1.27634e-93
1.09698e-94
9.12235e-96
7.35436e-97
5.75901e-98
4.38846e-99
3.25986e-100
2.36438e-101
1.67695e-102
1.16466e-103
6.90546e-105
3.26767e-107
-3.16447e-95
1.3276e-87
-2.49872e-82
-1.16222e-80
-1.32739e-79
-8.12989e-78
-2.89103e-77
-4.20421e-77
1.11798e-74
6.41452e-74
1.73206e-73
2.93841e-73
3.51495e-73
3.1625e-73
2.23551e-73
1.2827e-73
6.13006e-74
2.49158e-74
8.76322e-75
2.7059e-75
7.42538e-76
1.82979e-76
4.08537e-77
8.32835e-78
1.56062e-78
2.70401e-79
4.3546e-80
6.54837e-81
9.23357e-82
1.22544e-82
1.53599e-83
1.82403e-84
2.05818e-85
2.21275e-86
2.27241e-87
2.23462e-88
2.10904e-89
1.91469e-90
1.67561e-91
1.41649e-92
1.15903e-93
9.19743e-95
7.09171e-96
5.32278e-97
3.89566e-98
2.78474e-99
1.94714e-100
1.33355e-101
7.89064e-103
3.00386e-103
-9.41308e-92
2.29579e-84
-3.06034e-79
-1.12148e-77
-1.07707e-76
-6.67115e-75
-2.10033e-74
-2.74262e-74
3.96928e-72
2.10719e-71
5.30068e-71
8.43592e-71
9.52207e-71
8.12366e-71
5.46757e-71
2.99757e-71
1.37296e-71
5.36272e-72
1.81686e-72
5.4155e-73
1.43729e-73
3.4314e-74
7.43407e-75
1.47264e-75
2.68501e-76
4.53194e-77
7.11754e-78
1.04486e-78
1.43961e-79
1.86849e-80
2.29223e-81
2.66619e-82
2.94873e-83
3.1092e-84
3.13349e-85
3.02557e-86
2.80528e-87
2.50312e-88
2.15399e-89
1.79123e-90
1.44234e-91
1.12677e-92
8.55581e-94
6.32604e-95
4.56238e-96
3.21469e-97
2.21627e-98
1.49701e-99
8.8354e-101
2.68104e-99
-2.71412e-88
3.82851e-81
-3.62781e-76
-1.04501e-74
-8.45952e-74
-5.36104e-72
-1.49444e-71
-1.75238e-71
1.36286e-69
6.70834e-69
1.57331e-68
2.35043e-68
2.50492e-68
2.0275e-68
1.29993e-68
6.81275e-69
2.99192e-69
1.12348e-69
3.66783e-70
1.05571e-70
2.71073e-71
6.27176e-72
1.31884e-72
2.53935e-73
4.50599e-74
7.41072e-75
1.1353e-75
1.62733e-76
2.19129e-77
2.78197e-78
3.34096e-79
3.80692e-80
4.12744e-81
4.26907e-82
4.22285e-83
4.00419e-84
3.64783e-85
3.19962e-86
2.70776e-87
2.21537e-88
1.75574e-89
1.35046e-90
1.00998e-91
7.35744e-93
5.22955e-94
3.63262e-95
2.46965e-96
1.64547e-97
9.68232e-99
2.31903e-95
-7.56977e-85
6.12932e-78
-4.15356e-73
-9.36733e-72
-6.41206e-71
-4.21405e-69
-1.04016e-68
-1.09544e-68
4.51308e-67
2.06629e-66
4.52225e-66
6.34612e-66
6.38949e-66
4.90935e-66
3.00001e-66
1.50369e-66
6.33454e-67
2.28767e-67
7.1996e-68
2.00176e-68
4.97428e-69
1.11568e-69
2.2778e-70
4.26404e-71
7.36576e-72
1.18066e-72
1.76471e-73
2.47042e-74
3.25177e-75
4.03893e-76
4.74916e-77
5.3023e-78
5.6365e-79
5.71967e-80
5.55398e-81
5.17262e-82
4.6307e-83
3.99329e-84
3.32396e-85
2.67598e-86
2.08764e-87
1.58122e-88
1.1649e-89
8.36203e-91
5.85856e-92
4.01252e-93
2.69047e-94
1.76848e-95
1.037e-96
1.93996e-91
-2.03725e-81
9.36016e-75
-4.58217e-70
-8.03625e-69
-4.67219e-68
-3.23573e-66
-7.07246e-66
-6.69091e-66
1.43589e-64
6.14656e-64
1.25668e-63
1.65771e-63
1.57779e-63
1.15146e-63
6.70987e-64
3.21806e-64
1.30098e-64
4.52055e-65
1.37196e-65
3.68608e-66
8.86752e-67
1.92865e-67
3.82405e-68
6.9618e-69
1.171e-69
1.82979e-70
2.66902e-71
3.64984e-72
4.6972e-73
5.70903e-74
6.57392e-75
7.19276e-76
7.49811e-77
7.46609e-78
7.11799e-79
6.51219e-80
5.72986e-81
4.85862e-82
3.97844e-83
3.15206e-84
2.42097e-85
1.80595e-86
1.31078e-87
9.27308e-89
6.40486e-90
4.32586e-91
2.86118e-92
1.85567e-93
1.08386e-94
1.56593e-87
-5.27576e-78
1.3499e-71
-4.85782e-67
-6.54967e-66
-3.25581e-65
-2.42348e-63
-4.69077e-63
-3.98714e-63
4.3634e-62
1.762e-61
3.36996e-61
4.18188e-61
3.7651e-61
2.61138e-61
1.45191e-61
6.66619e-62
2.58745e-62
8.65394e-63
2.53375e-63
6.58056e-64
1.53307e-64
3.23436e-65
6.22986e-66
1.10329e-66
1.80748e-67
2.754e-68
3.92115e-69
5.23906e-70
6.59361e-71
7.84348e-72
8.84635e-73
9.48714e-74
9.70012e-75
9.47917e-76
8.87429e-77
7.97689e-78
6.89917e-79
5.75328e-80
4.63504e-81
3.61454e-82
2.73358e-83
2.0086e-84
1.43652e-85
1.00171e-86
6.82185e-88
4.54433e-89
2.96534e-90
1.89795e-91
1.10376e-92
1.21654e-83
-1.31008e-74
1.80708e-68
-4.93437e-64
-5.01302e-63
-2.15369e-62
-1.76771e-60
-3.02971e-60
-2.31407e-60
1.25375e-59
4.85486e-59
8.70292e-59
1.01681e-58
8.66566e-59
5.71548e-59
3.03364e-59
1.33407e-59
4.97384e-60
1.60191e-60
4.52644e-61
1.13681e-61
2.56564e-62
5.25208e-63
9.83038e-64
1.69399e-64
2.70371e-65
4.01792e-66
5.58536e-67
7.29297e-68
8.97779e-69
1.04545e-69
1.15514e-70
1.21446e-71
1.21811e-72
1.16843e-73
1.07432e-74
9.48925e-76
8.06878e-77
6.61821e-78
5.24665e-79
4.02776e-80
2.99981e-81
2.17152e-82
1.53054e-83
1.05216e-84
7.06618e-86
4.64333e-87
2.98978e-88
1.88877e-89
1.09326e-90
9.06998e-80
-3.10556e-71
2.16908e-65
-4.78589e-61
-3.5314e-60
-1.33685e-59
-1.25353e-57
-1.90213e-57
-1.30553e-57
3.34116e-57
1.28142e-56
2.15939e-56
2.37776e-56
1.91951e-56
1.20468e-56
6.10759e-57
2.57386e-57
9.22185e-58
2.86125e-58
7.80577e-59
1.89644e-59
4.14764e-60
8.24112e-61
1.49935e-61
2.51476e-62
3.91132e-63
5.67055e-64
7.698e-65
9.8252e-66
1.1833e-66
1.34916e-67
1.46067e-68
1.50577e-69
1.48182e-70
1.39543e-71
1.26032e-72
1.09407e-73
9.14747e-75
7.38099e-76
5.75872e-77
4.35267e-78
3.19304e-79
2.27747e-80
1.58222e-81
1.07246e-82
7.10399e-84
4.60575e-85
2.92681e-86
1.82534e-87
1.05121e-88
6.46818e-76
-6.98358e-68
2.13567e-62
-4.4151e-58
-2.19687e-57
-7.63306e-57
-8.62541e-55
-1.15839e-54
-7.1438e-55
7.90863e-55
3.22502e-54
5.13399e-54
5.33444e-54
4.08232e-54
2.43946e-54
1.18204e-54
4.77614e-55
1.64528e-55
4.91994e-56
1.29639e-56
3.04798e-57
6.46223e-58
1.24669e-58
2.20539e-59
3.60127e-60
5.45983e-61
7.72415e-62
1.02426e-62
1.27816e-63
1.50632e-64
1.68194e-65
1.7846e-66
1.80421e-67
1.74236e-68
1.6111e-69
1.42957e-70
1.21985e-71
1.00302e-72
7.96295e-74
6.11539e-75
4.55168e-76
3.28933e-77
2.3121e-78
1.58353e-79
1.05851e-80
6.91694e-82
4.42535e-83
2.77593e-84
1.70944e-85
9.79191e-87
4.39567e-72
-1.47515e-64
1.14395e-59
-3.85667e-55
-1.07807e-54
-3.8495e-54
-5.74678e-52
-6.82696e-52
-3.7818e-52
1.46096e-52
7.68495e-52
1.16584e-51
1.14501e-51
8.31356e-52
4.73341e-52
2.19337e-52
8.50198e-53
2.81725e-53
8.12313e-54
2.06822e-54
4.70753e-55
9.6789e-56
1.81358e-56
3.12041e-57
4.96235e-58
7.33546e-59
1.01294e-59
1.31238e-60
1.60157e-61
1.84738e-62
2.02053e-63
2.10148e-64
2.08397e-65
1.97532e-66
1.79378e-67
1.564e-68
1.31204e-69
1.06114e-70
8.29001e-72
6.26779e-73
4.59464e-74
3.27152e-75
2.2666e-76
1.53066e-77
1.00921e-78
6.50707e-80
4.10906e-81
2.54485e-82
1.54773e-83
8.81585e-85
2.83434e-68
-2.87514e-61
-1.76259e-56
-3.17326e-52
-2.14062e-52
-1.53745e-51
-3.69866e-49
-3.8832e-49
-1.93117e-49
7.7759e-51
1.71341e-49
2.51853e-49
2.344e-49
1.61632e-49
8.77454e-50
3.89072e-50
1.44758e-50
4.61647e-51
1.28407e-51
3.16041e-52
6.96676e-53
1.38959e-53
2.52978e-54
4.23493e-55
6.56087e-56
9.45895e-57
1.27527e-57
1.61476e-58
1.92757e-59
2.1767e-60
2.33248e-61
2.37847e-62
2.31405e-63
2.15324e-64
1.92066e-65
1.64582e-66
1.35762e-67
1.08018e-68
8.30568e-70
6.18328e-71
4.46501e-72
3.133e-73
2.13991e-74
1.42517e-75
9.27035e-77
5.89893e-78
3.67747e-79
2.24919e-80
1.3513e-81
7.6521e-83
1.72532e-64
-4.9722e-58
-8.08168e-53
-2.44435e-49
3.86832e-49
-2.63122e-49
-2.29342e-46
-2.1252e-46
-9.47994e-47
-1.10896e-47
3.49409e-47
5.1484e-47
4.5598e-47
2.98981e-47
1.54877e-47
6.5757e-48
2.34969e-48
7.21552e-49
1.93701e-49
4.61064e-50
9.84734e-51
1.90618e-51
3.37288e-52
5.49541e-53
8.29647e-54
1.16694e-54
1.53652e-55
1.90189e-56
2.22135e-57
2.45634e-58
2.5794e-59
2.57936e-60
2.46254e-61
2.24992e-62
1.97167e-63
1.66077e-64
1.34731e-65
1.05478e-66
7.98388e-68
5.85359e-69
4.1646e-70
2.8803e-71
1.93985e-72
1.27438e-73
8.17997e-75
5.13813e-76
3.16305e-77
1.91097e-78
1.13444e-79
6.38558e-81
9.8555e-61
-6.79618e-55
-1.99779e-49
-1.75009e-46
7.43471e-46
3.32771e-46
-1.36594e-43
-1.11504e-43
-4.45548e-44
-8.06015e-45
6.18871e-45
9.88365e-45
8.3922e-45
5.24133e-45
2.59304e-45
1.0549e-45
3.62238e-46
1.07171e-46
2.77808e-47
6.39805e-48
1.32453e-48
2.48925e-49
4.28265e-50
6.79366e-51
9.99819e-52
1.37243e-52
1.76537e-53
2.13675e-54
2.44248e-55
2.64543e-56
2.72296e-57
2.67086e-58
2.50274e-59
2.2457e-60
1.93383e-61
1.60148e-62
1.278e-63
9.8465e-65
7.33822e-66
5.29969e-67
3.71568e-68
2.53349e-69
1.68284e-70
1.09079e-71
6.91066e-73
4.2861e-74
2.6062e-75
1.55578e-76
9.1287e-78
5.10702e-79
5.24523e-57
-3.338e-52
-4.03015e-46
-1.15493e-43
8.94881e-43
5.24632e-43
-7.78705e-41
-5.58479e-41
-1.99517e-41
-3.98639e-42
8.08078e-43
1.76076e-42
1.45348e-42
8.66867e-43
4.10009e-43
1.5994e-43
5.28119e-44
1.50622e-44
3.77212e-45
8.40953e-46
1.68825e-46
3.08173e-47
5.15726e-48
7.96832e-49
1.14358e-49
1.53248e-50
1.92638e-51
2.28066e-52
2.55217e-53
2.70825e-54
2.73314e-55
2.63022e-56
2.41964e-57
2.13275e-58
1.80509e-59
1.47002e-60
1.15417e-61
8.75332e-63
6.4244e-64
4.57128e-65
3.15908e-66
2.12404e-67
1.39183e-68
8.90352e-70
5.5692e-71
3.41156e-72
2.04964e-73
1.20934e-74
7.01596e-76
3.90094e-77
2.57822e-53
2.38307e-48
-7.23526e-43
-6.9591e-41
8.91551e-40
5.05431e-40
-4.23174e-38
-2.65653e-38
-8.46233e-39
-1.67293e-39
5.50945e-42
2.85037e-40
2.35251e-40
1.34542e-40
6.09171e-41
2.28045e-41
7.24566e-42
1.99328e-42
4.82542e-43
1.04191e-43
2.02935e-44
3.59965e-45
5.86211e-46
8.82544e-47
1.23563e-47
1.6171e-48
1.98718e-49
2.30199e-50
2.52268e-51
2.6235e-52
2.5966e-53
2.4523e-54
2.21532e-55
1.91859e-56
1.59638e-57
1.27875e-58
9.88036e-60
7.37775e-61
5.3338e-62
3.74018e-63
2.54837e-64
1.69005e-65
1.09282e-66
6.90134e-68
4.26337e-69
2.58035e-70
1.53227e-71
8.93923e-73
5.12958e-74
2.83465e-75
1.15766e-49
1.34664e-44
-1.19183e-39
-3.7929e-38
7.86806e-37
3.98994e-37
-2.18127e-35
-1.19252e-35
-3.37459e-36
-6.28654e-37
-4.62017e-38
4.0166e-38
3.52487e-38
1.94705e-38
8.45422e-39
3.04001e-39
9.30105e-40
2.46966e-40
5.78269e-41
1.20996e-41
2.28764e-42
3.94507e-43
6.25493e-44
9.17987e-45
1.25437e-45
1.60389e-46
1.92751e-47
2.18559e-48
2.34631e-49
2.39215e-50
2.32272e-51
2.15343e-52
1.91083e-53
1.62645e-54
1.33078e-55
1.04879e-56
7.97678e-58
5.86599e-59
4.17852e-60
2.88836e-61
1.94085e-62
1.26999e-63
8.1062e-65
5.05548e-66
3.08556e-67
1.84585e-68
1.08384e-69
6.25476e-71
3.55162e-72
1.95088e-73
4.68165e-46
5.1149e-41
-1.82237e-36
-1.86046e-35
6.29626e-34
2.76192e-34
-1.05984e-32
-5.01173e-33
-1.25336e-33
-2.14547e-34
-2.1671e-35
4.39571e-36
4.82301e-36
2.60672e-36
1.08828e-36
3.76309e-37
1.10956e-37
2.84561e-38
6.44874e-39
1.30836e-39
2.40261e-40
4.03043e-41
6.22477e-42
8.9102e-43
1.18884e-43
1.48584e-44
1.74704e-45
1.93981e-46
2.04081e-47
2.04056e-48
1.94444e-49
1.77025e-50
1.54344e-51
1.29156e-52
1.03948e-53
8.06231e-55
6.0378e-56
4.37406e-57
3.07092e-58
2.09319e-59
1.38762e-60
8.96206e-62
5.64886e-63
3.48055e-64
2.09973e-65
1.24212e-66
7.21544e-68
4.12106e-69
2.31679e-70
1.26523e-71
1.67278e-42
1.67991e-37
-2.5933e-33
-8.31926e-33
4.5968e-31
1.71147e-31
-4.81462e-30
-1.95145e-30
-4.282e-31
-6.63324e-32
-7.11711e-33
2.00032e-34
5.90058e-34
3.19696e-34
1.28843e-34
4.29015e-35
1.22018e-35
3.02486e-36
6.6393e-37
1.30701e-37
2.33269e-38
3.80889e-39
5.73369e-40
8.00939e-41
1.04405e-41
1.27614e-42
1.46877e-43
1.59771e-44
1.64801e-45
1.61671e-46
1.51245e-47
1.35267e-48
1.15922e-49
9.54e-51
7.55501e-52
5.76881e-53
4.25532e-54
3.03796e-55
2.10294e-56
1.41399e-57
9.25137e-59
5.90015e-60
3.67414e-61
2.23771e-62
1.33505e-63
7.81423e-65
4.49334e-66
2.54146e-67
1.41544e-68
7.68776e-70
5.13146e-39
5.07228e-34
-3.42416e-30
-3.61052e-30
3.04795e-28
9.50873e-29
-2.02185e-27
-6.94091e-28
-1.32272e-28
-1.83313e-29
-1.91195e-30
-6.48464e-32
6.23198e-32
3.54711e-32
1.38849e-32
4.46002e-33
1.22488e-33
2.93777e-34
6.2504e-35
1.19483e-35
2.07411e-36
3.29882e-37
4.84355e-38
6.60728e-39
8.41999e-40
1.00712e-40
1.13531e-41
1.21055e-42
1.22487e-43
1.17949e-44
1.08381e-45
9.52625e-47
8.0278e-48
6.49997e-49
5.06707e-50
3.81056e-51
2.76974e-52
1.94946e-53
1.33111e-54
8.83315e-56
5.70681e-57
3.59589e-58
2.21357e-59
1.33345e-60
7.87292e-62
4.56263e-63
2.59896e-64
1.45682e-65
8.04399e-67
4.34724e-68
1.27945e-35
1.43388e-30
-4.1633e-27
-1.73287e-27
1.80676e-25
4.6838e-26
-7.7167e-25
-2.2099e-25
-3.60276e-26
-4.41726e-27
-4.30111e-28
-2.43425e-29
5.32741e-30
3.50492e-30
1.34471e-30
4.17635e-31
1.10894e-31
2.57586e-32
5.31742e-33
9.87963e-34
1.66955e-34
2.58877e-35
3.7105e-36
4.94695e-37
6.1678e-38
7.22458e-39
7.98226e-40
8.34845e-41
8.2913e-42
7.84177e-43
7.08129e-44
6.12021e-45
5.07409e-46
4.04405e-47
3.10478e-48
2.30068e-49
1.64864e-50
1.14461e-51
7.71349e-53
5.0547e-54
3.22678e-55
2.0102e-56
1.22418e-57
7.29972e-59
4.26875e-60
2.45164e-61
1.38465e-62
7.69905e-64
4.21852e-65
2.26998e-66
2.12952e-32
3.80306e-27
-4.60224e-24
-9.85629e-25
9.2452e-23
1.99656e-23
-2.60325e-22
-6.10764e-23
-8.31385e-24
-8.8988e-25
-7.91854e-26
-5.00933e-27
3.20211e-28
3.02782e-28
1.15186e-28
3.46824e-29
8.91709e-30
2.00849e-30
4.02757e-31
7.28143e-32
1.1992e-32
1.81476e-33
2.54184e-34
3.31543e-35
4.04814e-36
4.64779e-37
5.03747e-38
5.17191e-39
5.0455e-40
4.69016e-41
4.16502e-42
3.54186e-43
2.89072e-44
2.26918e-45
1.71678e-46
1.25429e-47
8.86686e-49
6.07644e-50
4.04437e-51
2.61925e-52
1.65354e-53
1.01938e-54
6.14733e-56
3.6323e-57
2.10615e-58
1.20009e-59
6.7282e-61
3.71531e-62
2.02242e-63
1.08452e-64
-2.32091e-29
9.40852e-24
-4.53245e-21
-5.74624e-22
3.75044e-20
7.08301e-21
-7.3822e-20
-1.39422e-20
-1.5109e-21
-1.38748e-22
-1.11694e-23
-7.05387e-25
8.38926e-27
2.24802e-26
8.55556e-27
2.50345e-27
6.24305e-28
1.36568e-28
2.6642e-29
4.69364e-30
7.5444e-31
1.11583e-31
1.52937e-32
1.95415e-33
2.33957e-34
2.63599e-35
2.80566e-36
2.83058e-37
2.71504e-38
2.48277e-39
2.17e-40
1.81711e-41
1.4611e-42
1.13053e-43
8.43524e-45
6.08129e-46
4.24459e-47
2.87382e-48
1.89102e-49
1.21162e-50
7.573e-52
4.62576e-53
2.76604e-54
1.62181e-55
9.33805e-57
5.28696e-58
2.94677e-59
1.6184e-60
8.76466e-62
4.68925e-63
-6.45396e-25
2.15114e-20
-4.87214e-18
-2.62259e-19
3.47953e-17
2.0227e-18
-3.3055e-17
-2.42273e-18
-1.80804e-19
-1.4052e-20
-1.03781e-21
-6.30618e-23
-1.81273e-25
1.42738e-24
5.37456e-25
1.52875e-25
3.7046e-26
7.88648e-27
1.49978e-27
2.57997e-28
4.0554e-29
5.8735e-30
7.89235e-31
9.89638e-32
1.1637e-32
1.28867e-33
1.34892e-34
1.33908e-35
1.26442e-36
1.13876e-37
9.80677e-39
8.09494e-40
6.41922e-41
4.90095e-42
3.61019e-43
2.57115e-44
1.77402e-45
1.18819e-46
7.74051e-48
4.91411e-49
3.046e-50
1.84675e-51
1.09705e-52
6.39536e-54
3.66391e-55
2.06536e-56
1.14672e-57
6.27579e-59
3.38746e-60
1.81088e-61
-7.09621e-21
4.42493e-17
-3.99087e-15
1.44913e-13
1.38993e-14
-7.26297e-14
-9.22592e-15
-2.05969e-17
-3.424e-18
-4.48411e-19
-3.99247e-20
-2.44067e-21
5.04687e-23
7.81995e-23
2.75843e-23
7.59777e-24
1.79294e-24
3.7254e-25
6.92722e-26
1.16707e-26
1.79928e-27
2.55914e-28
3.38049e-29
4.17047e-30
4.82798e-31
5.26628e-32
5.43209e-33
5.31569e-34
4.94954e-35
4.39714e-36
3.73671e-37
3.04495e-38
2.38482e-39
1.79927e-40
1.31057e-41
9.23599e-43
6.3108e-44
4.18957e-45
2.70785e-46
1.7073e-47
1.0521e-48
6.34817e-50
3.75667e-51
2.18357e-52
1.24824e-53
7.02514e-55
3.89571e-56
2.12983e-57
1.14838e-58
6.14557e-60
6.98881e-13
-1.52588e-11
1.98046e-10
5.80606e-11
-8.04152e-10
-8.563e-11
-1.69879e-17
-1.09354e-19
-4.3066e-20
-3.43853e-21
3.02793e-20
1.9755e-20
9.20112e-21
3.46605e-21
1.08577e-21
2.8895e-22
6.66891e-23
1.35935e-23
2.48412e-24
4.11943e-25
6.25942e-26
8.7833e-27
1.14548e-27
1.39584e-28
1.59657e-29
1.72096e-30
1.75437e-31
1.69685e-32
1.56183e-33
1.37185e-34
1.15296e-35
9.29534e-37
7.20648e-38
5.38552e-39
3.8886e-40
2.71904e-41
1.84532e-42
1.21817e-43
7.83885e-45
4.92697e-46
3.0305e-47
1.8273e-48
1.08175e-49
6.29551e-51
3.60557e-52
2.03374e-53
1.13039e-54
6.19305e-56
3.3449e-57
1.79593e-58
2.38482e-10
-4.45745e-09
6.45793e-08
-5.10108e-07
-1.48117e-07
-3.13758e-09
-1.17334e-15
3.8442e-18
4.59777e-18
2.99107e-18
1.27571e-18
5.63029e-19
2.44509e-19
9.12215e-20
2.84362e-20
7.51117e-21
1.71871e-21
3.47482e-22
6.30515e-23
1.03927e-23
1.57067e-24
2.19271e-25
2.84465e-26
3.44699e-27
3.91861e-28
4.19589e-29
4.247e-30
4.07719e-31
3.72417e-32
3.24629e-33
2.7082e-34
2.16828e-35
1.67055e-36
1.24179e-37
8.92882e-39
6.22552e-40
4.21927e-41
2.78596e-42
1.79608e-43
1.13278e-44
7.00158e-46
4.24748e-47
2.53209e-48
1.48472e-49
8.56862e-51
4.86911e-52
2.72486e-53
1.50178e-54
8.15071e-56
4.40149e-57
-1.09084e-05
5.02402e-05
-0.000104203
-0.000263277
0.000858
0.00252246
0.0043788
0.00494279
0.00255844
0.000338706
1.94573e-17
4.389e-18
2.70949e-18
1.16376e-18
3.85493e-19
1.05216e-19
2.46561e-20
5.09147e-21
9.42385e-22
1.58191e-22
2.42929e-23
3.43656e-24
4.50462e-25
5.49963e-26
6.28348e-27
6.74774e-28
6.83889e-29
6.56689e-30
5.99615e-31
5.22451e-32
4.3585e-33
3.49261e-34
2.69671e-35
2.01229e-36
1.4553e-37
1.02279e-38
7.00264e-40
4.68111e-41
3.06115e-42
1.96141e-43
1.23296e-44
7.61075e-46
4.61611e-47
2.75199e-48
1.61289e-49
9.29281e-51
5.26301e-52
2.92962e-53
1.60257e-54
8.72231e-56
-0.00152658
0.00505873
-0.011937
-0.0113045
0.0857165
0.198004
0.280528
0.294925
0.204327
0.0799968
0.0115751
2.01164e-15
2.21842e-18
1.48403e-18
7.51478e-19
2.89167e-19
8.87511e-20
2.25739e-20
4.90051e-21
9.28628e-22
1.5632e-22
2.37049e-23
3.27557e-24
4.16417e-25
4.91054e-26
5.41e-27
5.60388e-28
5.48889e-29
5.11025e-30
4.54392e-31
3.87571e-32
3.18374e-33
2.52785e-34
1.94614e-35
1.45674e-36
1.06254e-37
7.56527e-39
5.26479e-40
3.58425e-41
2.38842e-42
1.55829e-43
9.95548e-45
6.22821e-46
3.81546e-47
2.28883e-48
1.34454e-49
7.7352e-51
4.35876e-52
2.40624e-53
1.32055e-54
0.00731328
-0.00632731
-0.0195808
0.0491629
0.251871
0.517711
0.707989
0.809991
0.742333
0.452027
0.154163
0.0162324
4.11572e-07
1.9861e-19
7.03415e-20
2.60682e-20
7.34769e-21
1.11365e-21
1.65795e-22
4.4885e-23
1.47386e-23
4.05572e-24
9.14147e-25
1.74979e-25
2.9361e-26
4.41902e-27
6.0641e-28
7.67914e-29
9.05542e-30
1.00144e-30
1.04452e-31
1.03227e-32
9.70355e-34
8.70484e-35
7.4734e-36
6.15581e-37
4.87554e-38
3.72042e-39
2.74011e-40
1.95101e-41
1.34497e-42
8.98936e-44
5.83252e-45
3.67797e-46
2.25665e-47
1.34856e-48
7.85685e-50
4.46678e-51
2.48018e-52
1.36799e-53
0.0161358
-0.0140543
-0.0373451
0.105611
0.411882
0.744148
0.921302
1.02462
1.06534
0.832865
0.410625
0.101331
0.00315028
3.98872e-18
2.06512e-19
7.73697e-20
-4.18307e-20
-1.0772e-19
-3.47899e-20
-7.41157e-21
-1.23915e-21
-1.72881e-22
-2.06398e-23
-2.11154e-24
-1.79381e-25
-1.11265e-26
-1.48986e-28
9.59251e-29
2.05175e-29
2.98186e-30
3.64449e-31
3.99028e-32
4.0253e-33
3.79911e-34
3.38682e-35
2.87039e-36
2.32366e-37
1.80329e-38
1.3455e-39
9.6756e-41
6.71971e-42
4.51532e-43
2.94032e-44
1.85824e-45
1.14128e-46
6.8203e-48
3.97043e-49
2.25408e-50
1.24925e-51
6.88664e-53
0.0139034
-0.00473615
-0.0536193
0.0774507
0.460358
0.833277
0.970356
1.00846
1.05493
0.924088
0.541161
0.175906
0.0158383
4.08075e-18
1.1269e-17
1.70361e-18
-1.9056e-18
-9.00636e-18
-1.96557e-18
-3.51492e-19
-5.42137e-20
-7.44592e-21
-9.33285e-22
-1.08811e-22
-1.1975e-23
-1.25768e-24
-1.2699e-25
-1.23809e-26
-1.16768e-27
-1.06558e-28
-9.40319e-30
-8.0175e-31
-6.60111e-32
-5.24697e-33
-4.02707e-34
-2.98599e-35
-2.14072e-36
-1.48537e-37
-9.98628e-39
-6.5129e-40
-4.12534e-41
-2.54072e-42
-1.5231e-43
-8.89598e-45
-5.06648e-46
-2.81543e-47
-1.52718e-48
-8.08722e-50
-4.18002e-51
-2.14612e-52
0.00262205
0.00939083
-0.0418893
-0.00959342
0.308449
0.72559
0.939073
1.00591
1.05673
0.938777
0.568197
0.196623
0.0216565
3.19515e-14
1.07349e-15
-1.97687e-15
-1.17704e-14
-9.02021e-16
-6.92056e-17
-8.9712e-18
-1.14027e-18
-1.37528e-19
-1.57712e-20
-1.73285e-21
-1.83967e-22
-1.89892e-23
-1.91094e-24
-1.87376e-25
-1.78551e-26
-1.64803e-27
-1.46915e-28
-1.26239e-29
-1.04453e-30
-8.3211e-32
-6.38559e-33
-4.72498e-34
-3.37534e-35
-2.33109e-36
-1.55867e-37
-1.01047e-38
-6.36009e-40
-3.89147e-41
-2.31715e-42
-1.34394e-43
-7.59766e-45
-4.18817e-46
-2.25125e-47
-1.17947e-48
-6.01675e-50
-3.04035e-51
-0.00364476
0.00711041
-0.00217505
-0.053439
0.0424343
0.375206
0.759613
0.970035
0.980227
0.835791
0.5133
0.191503
0.0267713
8.91551e-13
2.08201e-13
-2.22598e-11
-1.90713e-12
6.39677e-20
-1.02295e-18
-6.52384e-19
-2.40715e-19
-6.5266e-20
-1.42623e-20
-2.63699e-21
-4.25175e-22
-6.10443e-23
-7.92606e-24
-9.41929e-25
-1.03447e-25
-1.05828e-26
-1.01523e-27
-9.18503e-29
-7.87556e-30
-6.42724e-31
-5.01119e-32
-3.74513e-33
-2.69071e-34
-1.86316e-35
-1.24618e-36
-8.06615e-38
-5.0603e-39
-3.08043e-40
-1.8209e-41
-1.04546e-42
-5.82781e-44
-3.15041e-45
-1.64773e-46
-8.30447e-48
-4.00556e-49
-1.85939e-50
0.000854766
-0.00306674
0.00866032
-0.00536368
-0.0462823
0.0396281
0.317074
0.601815
0.679179
0.557221
0.316286
0.108494
0.0127811
-1.30398e-07
-4.68753e-08
-3.14266e-09
1.62429e-15
3.35314e-16
3.03951e-17
3.04826e-18
3.63385e-19
5.05377e-20
7.27397e-21
9.91367e-22
1.23378e-22
1.38489e-23
1.39083e-24
1.23036e-25
9.21171e-27
5.14159e-28
7.86405e-30
-3.16136e-30
-6.17137e-31
-7.9695e-32
-8.54956e-33
-8.11645e-34
-6.99289e-35
-5.52395e-36
-4.0046e-37
-2.64122e-38
-1.54476e-39
-7.45894e-41
-2.20388e-42
8.48983e-44
2.3131e-44
2.75022e-45
2.60511e-46
2.19068e-47
1.70284e-48
1.28827e-49
-8.57736e-05
0.000424015
-0.00185428
0.00516438
-0.00420877
-0.0204445
0.0202939
0.12984
0.216981
0.190044
0.0932294
0.020942
0.000290577
-6.45449e-06
-1.43898e-06
-5.90641e-09
-1.12176e-12
3.15393e-17
1.16085e-17
3.53522e-18
9.08084e-19
2.0478e-19
4.10794e-20
7.38691e-21
1.1998e-21
1.7745e-22
2.40957e-23
3.02792e-24
3.54758e-25
3.90211e-26
4.0551e-27
4.00467e-28
3.77849e-29
3.42275e-30
2.98997e-31
2.52879e-32
2.0779e-33
1.66371e-34
1.30113e-35
9.95762e-37
7.46739e-38
5.49219e-39
3.96381e-40
2.80784e-41
1.9523e-42
1.33232e-43
8.92307e-45
5.86429e-46
3.78164e-47
2.46419e-48
5.02976e-07
-3.06508e-06
1.53462e-05
-4.71502e-05
3.36549e-05