/*--------------------------------*- C++ -*----------------------------------*\
| =========                 |                                                 |
| \\      /  F ield         | OpenFOAM: The Open Source CFD Toolbox           |
|  \\    /   O peration     | Version:  v2006                                 |
|   \\  /    A nd           | Website:  www.openfoam.com                      |
|    \\/     M anipulation  |                                                 |
\*---------------------------------------------------------------------------*/
FoamFile
{
    version     2.0;
    format      ascii;
    class       volScalarField;
    location    "4.3";
    object      p_rgh;
}
// * * * * * * * * * * * * * * * * * * * * * * * * * * * * * * * * * * * * * //

dimensions      [1 -1 -2 0 0 0 0];


internalField   nonuniform List<scalar> 
150000
(
-2079.25
-2079.84
-2080.76
-2082.05
-2083.79
-2085.98
-2088.63
-2091.73
-2095.29
-2099.29
-2103.73
-2108.6
-2113.9
-2119.61
-2125.72
-2132.23
-2139.11
-2146.37
-2153.98
-2161.93
-2170.2
-2178.77
-2187.64
-2196.78
-2206.16
-2215.79
-2225.62
-2235.64
-2245.83
-2256.17
-2266.63
-2277.2
-2287.84
-2298.53
-2309.25
-2319.96
-2330.66
-2341.3
-2351.85
-2362.3
-2372.62
-2382.76
-2392.71
-2402.43
-2411.9
-2421.07
-2429.92
-2438.41
-2446.51
-2454.18
-2461.39
-2468.12
-2474.33
-2479.99
-2485.07
-2489.51
-2493.29
-2496.38
-2498.73
-2500.33
-2501.14
-2501.12
-2500.23
-2498.4
-2495.6
-2491.8
-2486.97
-2481.12
-2474.23
-2466.28
-2457.23
-2447.07
-2435.77
-2423.31
-2409.68
-2394.85
-2378.82
-2361.57
-2343.1
-2323.41
-2302.48
-2280.33
-2256.95
-2232.36
-2206.55
-2179.55
-2151.36
-2122.01
-2091.5
-2059.87
-2027.12
-1993.3
-1958.41
-1922.49
-1885.56
-1847.66
-1808.81
-1769.04
-1728.39
-1686.89
-1644.57
-1601.46
-1557.59
-1512.99
-1467.7
-1421.75
-1375.17
-1327.98
-1280.22
-1231.92
-1183.09
-1133.78
-1083.99
-1033.76
-983.115
-932.068
-880.642
-828.859
-776.736
-724.293
-671.547
-618.514
-565.21
-511.652
-457.855
-403.834
-349.603
-295.178
-240.574
-185.806
-130.889
-75.8385
-20.6707
34.5994
89.9578
145.383
200.815
256.191
311.608
367.05
422.466
477.822
533.092
588.249
643.268
698.123
752.787
807.231
861.428
915.35
968.966
1022.25
1075.17
1127.69
1179.79
1231.43
1282.59
1333.23
1383.33
1432.85
1481.76
1530.04
1577.65
1624.57
1670.78
1716.23
1760.91
1804.78
1847.83
1890.04
1931.36
1971.8
2011.31
2049.89
2087.51
2124.16
2159.82
2194.48
2228.11
2260.72
2292.28
2322.78
2352.22
2380.59
2407.88
2434.08
2459.2
2483.22
2506.15
2527.98
2548.72
2568.38
2586.94
2604.43
2620.84
2636.18
2650.47
2663.7
2675.9
2687.06
2697.22
2706.37
2714.53
2721.72
2727.95
2733.24
2737.59
2741.04
2743.6
2745.3
2746.16
2746.21
2745.48
2743.99
2741.77
2738.84
2735.21
2730.92
2725.97
2720.4
2714.23
2707.47
2700.15
2692.3
2683.94
2675.1
2665.8
2656.07
2645.94
2635.43
2624.57
2613.38
2601.89
2590.12
2578.11
2565.87
2553.43
2540.82
2528.05
2515.16
2502.17
2489.1
2475.97
2462.82
2449.65
2436.49
2423.37
2410.31
2397.32
2384.44
2371.67
2359.03
2346.56
2334.26
2322.15
2310.25
2298.58
2287.17
2276.01
2265.14
2254.57
2244.31
2234.37
2224.77
2215.52
2206.63
2198.11
2189.96
2182.23
2174.92
2168.02
2161.54
2155.49
2149.87
2144.7
2139.98
2135.71
2131.89
2128.54
2125.64
2123.2
2121.21
2119.67
2118.59
2118
2117.88
2118.19
2118.92
2120.04
2121.56
2123.53
2125.96
2128.84
2132.14
2135.84
2139.91
2144.34
2149.11
2154.21
2159.63
2165.33
2171.32
2177.57
2184.06
2190.78
2197.7
2204.8
2212.07
2219.48
2227.01
2234.64
2242.35
2250.11
2257.91
2265.71
2273.51
2281.27
2288.97
2296.59
2304.11
2311.51
2318.76
2325.85
2332.76
2339.46
2345.94
2352.18
2358.16
2363.87
2369.3
2374.42
2379.22
2383.7
2387.84
2391.63
2395.06
2398.14
2400.85
2403.18
2405.14
2406.72
2407.93
2408.76
2409.22
2409.31
2409.04
2408.41
2407.43
2406.11
2404.46
2402.5
2400.22
2397.66
2394.82
2391.71
2388.36
2384.78
2380.99
2377.01
2372.86
2368.55
2364.11
2359.56
2354.91
2350.2
2345.44
2340.66
2335.87
2331.1
2326.37
2321.71
2317.15
2312.68
2308.35
2304.15
2300.11
2296.25
2292.59
2289.14
2285.94
2283.03
2280.43
2278.13
2276.14
2274.48
2273.16
2272.19
2271.59
2271.37
2271.53
2272.09
2273.05
2274.44
2276.24
2278.47
2281.14
2284.24
2287.79
2291.78
2296.22
2301.11
2306.44
2312.22
2318.45
2325.12
2332.24
2339.79
2347.77
2356.18
2365.01
2374.26
2383.92
2393.98
2404.43
2415.26
2426.47
2438.05
2449.98
2462.25
2474.86
2487.79
2501.03
2514.57
2528.4
2542.5
2556.87
2571.48
2586.33
2601.4
2616.67
2632.15
2647.8
2663.63
2679.61
2695.73
2711.97
2728.33
2744.79
2761.33
2777.94
2794.61
2811.32
2828.06
2844.82
2861.58
2878.32
2895.04
2911.72
2928.35
2944.91
2961.39
2977.78
2994.06
3010.22
3026.25
3042.14
3057.87
3073.43
3088.81
3103.99
3118.97
3133.73
3148.26
3162.56
3176.6
3190.38
3203.89
3217.12
3230.05
3242.69
3255.01
3267.01
3278.68
3290.01
3301
3311.63
3321.89
3331.79
3341.31
3350.44
3359.19
3367.53
3375.47
3383
3390.12
3396.82
3403.09
3408.93
3414.34
3419.31
3423.84
3427.93
3431.58
3434.76
3437.54
3439.81
3441.59
3443.13
3443.76
3444.18
-2078.98
-2079.6
-2080.5
-2081.76
-2083.5
-2085.69
-2088.34
-2091.45
-2095.01
-2099.02
-2103.46
-2108.34
-2113.64
-2119.36
-2125.48
-2132
-2138.9
-2146.16
-2153.78
-2161.75
-2170.03
-2178.62
-2187.5
-2196.65
-2206.06
-2215.7
-2225.55
-2235.59
-2245.8
-2256.16
-2266.64
-2277.22
-2287.88
-2298.59
-2309.33
-2320.07
-2330.79
-2341.45
-2352.03
-2362.5
-2372.84
-2383.01
-2392.98
-2402.72
-2412.21
-2421.41
-2430.29
-2438.81
-2446.95
-2454.66
-2461.92
-2468.7
-2474.95
-2480.64
-2485.73
-2490.2
-2494
-2497.1
-2499.45
-2501.03
-2501.79
-2501.71
-2500.75
-2498.89
-2496.12
-2492.39
-2487.68
-2481.93
-2475.12
-2467.22
-2458.22
-2448.09
-2436.82
-2424.38
-2410.75
-2395.93
-2379.9
-2362.66
-2344.18
-2324.48
-2303.54
-2281.38
-2257.99
-2233.38
-2207.56
-2180.54
-2152.34
-2122.96
-2092.44
-2060.78
-2028.01
-1994.16
-1959.25
-1923.3
-1886.35
-1848.42
-1809.55
-1769.76
-1729.08
-1687.56
-1645.21
-1602.07
-1558.18
-1513.57
-1468.26
-1422.29
-1375.68
-1328.48
-1280.7
-1232.38
-1183.54
-1134.21
-1084.42
-1034.18
-983.522
-932.467
-881.034
-829.244
-777.116
-724.667
-671.916
-618.878
-565.569
-512.006
-458.203
-404.176
-349.94
-295.509
-240.9
-186.127
-131.207
-76.1572
-20.9948
34.2605
89.587
144.971
200.438
256.017
311.588
367.085
422.527
477.902
533.187
588.359
643.394
698.264
752.942
807.402
861.615
915.553
969.185
1022.48
1075.42
1127.96
1180.07
1231.73
1282.91
1333.56
1383.68
1433.21
1482.14
1530.44
1578.07
1625.01
1671.22
1716.69
1761.39
1805.28
1848.35
1890.57
1931.91
1972.36
2011.89
2050.48
2088.12
2124.78
2160.45
2195.12
2228.77
2261.39
2292.96
2323.47
2352.92
2381.29
2408.58
2434.79
2459.91
2483.94
2506.87
2528.7
2549.45
2569.1
2587.67
2605.15
2621.56
2636.9
2651.18
2664.4
2676.59
2687.76
2697.9
2707.05
2715.2
2722.39
2728.61
2733.88
2738.23
2741.66
2744.21
2745.9
2746.75
2746.8
2746.06
2744.56
2742.32
2739.37
2735.73
2731.41
2726.44
2720.85
2714.64
2707.86
2700.52
2692.64
2684.26
2675.4
2666.08
2656.34
2646.19
2635.66
2624.78
2613.57
2602.07
2590.28
2578.25
2566
2553.54
2540.91
2528.13
2515.23
2502.22
2489.13
2475.99
2462.82
2449.64
2436.47
2423.33
2410.26
2397.26
2384.35
2371.57
2358.93
2346.44
2334.13
2322.02
2310.12
2298.46
2287.04
2275.88
2265.01
2254.43
2244.16
2234.22
2224.62
2215.37
2206.48
2197.97
2189.81
2182.07
2174.76
2167.85
2161.37
2155.32
2149.7
2144.53
2139.81
2135.55
2131.73
2128.37
2125.47
2123.04
2121.09
2119.62
2118.56
2117.87
2117.54
2117.57
2118.03
2119.06
2120.73
2122.94
2125.57
2128.56
2131.91
2135.64
2139.73
2144.18
2148.97
2154.09
2159.51
2165.23
2171.23
2177.5
2184
2190.73
2197.66
2204.78
2212.06
2219.48
2227.03
2234.67
2242.4
2250.17
2257.98
2265.8
2273.61
2281.38
2289.1
2296.73
2304.27
2311.68
2318.94
2326.05
2332.96
2339.68
2346.17
2352.41
2358.41
2364.12
2369.55
2374.67
2379.48
2383.96
2388.1
2391.9
2395.33
2398.4
2401.11
2403.44
2405.39
2406.97
2408.17
2408.99
2409.44
2409.52
2409.24
2408.6
2407.6
2406.27
2404.61
2402.62
2400.33
2397.75
2394.89
2391.76
2388.39
2384.79
2380.98
2376.97
2372.8
2368.46
2364
2359.42
2354.75
2350.02
2345.23
2340.42
2335.59
2330.78
2326.01
2321.28
2316.63
2312.08
2307.67
2303.44
2299.41
2295.61
2292.06
2288.75
2285.68
2282.84
2280.24
2277.94
2275.94
2274.27
2272.94
2271.96
2271.35
2271.12
2271.27
2271.82
2272.78
2274.16
2275.96
2278.18
2280.85
2283.95
2287.49
2291.48
2295.91
2300.8
2306.13
2311.91
2318.14
2324.81
2331.92
2339.48
2347.46
2355.87
2364.71
2373.96
2383.62
2393.68
2404.13
2414.97
2426.18
2437.76
2449.69
2461.97
2474.58
2487.52
2500.76
2514.31
2528.14
2542.24
2556.61
2571.23
2586.08
2601.15
2616.44
2631.92
2647.58
2663.4
2679.39
2695.51
2711.76
2728.12
2744.58
2761.13
2777.74
2794.42
2811.13
2827.88
2844.64
2861.4
2878.15
2894.87
2911.55
2928.18
2944.75
2961.23
2977.62
2993.9
3010.07
3026.1
3041.99
3057.72
3073.28
3088.66
3103.85
3118.83
3133.59
3148.13
3162.42
3176.47
3190.25
3203.76
3216.99
3229.93
3242.56
3254.88
3266.89
3278.56
3289.89
3300.88
3311.51
3321.78
3331.68
3341.2
3350.33
3359.07
3367.42
3375.36
3382.89
3390.01
3396.71
3402.98
3408.83
3414.24
3419.21
3423.74
3427.83
3431.48
3434.66
3437.41
3439.68
3441.47
3443.03
3443.7
3444.12
-2078.84
-2079.44
-2080.33
-2081.6
-2083.34
-2085.54
-2088.2
-2091.32
-2094.88
-2098.9
-2103.35
-2108.24
-2113.55
-2119.28
-2125.42
-2131.95
-2138.87
-2146.15
-2153.79
-2161.77
-2170.07
-2178.69
-2187.59
-2196.76
-2206.19
-2215.85
-2225.73
-2235.79
-2246.03
-2256.42
-2266.93
-2277.54
-2288.23
-2298.97
-2309.74
-2320.51
-2331.25
-2341.95
-2352.56
-2363.07
-2373.44
-2383.64
-2393.65
-2403.43
-2412.96
-2422.19
-2431.1
-2439.66
-2447.82
-2455.57
-2462.86
-2469.67
-2475.95
-2481.68
-2486.82
-2491.33
-2495.17
-2498.32
-2500.74
-2502.39
-2503.24
-2503.24
-2502.36
-2500.56
-2497.82
-2494.09
-2489.37
-2483.62
-2476.82
-2468.94
-2459.96
-2449.85
-2438.59
-2426.17
-2412.56
-2397.75
-2381.73
-2364.49
-2346.02
-2326.31
-2305.38
-2283.21
-2259.81
-2235.19
-2209.35
-2182.32
-2154.09
-2124.69
-2094.14
-2062.45
-2029.65
-1995.77
-1960.82
-1924.83
-1887.84
-1849.87
-1810.96
-1771.12
-1730.4
-1688.83
-1646.43
-1603.25
-1559.31
-1514.65
-1469.29
-1423.27
-1376.62
-1329.37
-1281.55
-1233.18
-1184.3
-1134.93
-1085.09
-1034.81
-984.11
-933.015
-881.544
-829.716
-777.552
-725.068
-672.283
-619.212
-565.872
-512.278
-458.445
-404.388
-350.122
-295.661
-241.021
-186.216
-131.262
-76.1746
-20.9702
34.3342
89.7198
145.163
200.641
256.143
311.642
367.148
422.616
478.021
533.339
588.544
643.612
698.516
753.228
807.723
861.971
915.943
969.611
1022.94
1075.91
1128.49
1180.64
1232.34
1283.55
1334.24
1384.39
1433.96
1482.93
1531.26
1578.93
1625.9
1672.15
1717.65
1762.38
1806.3
1849.4
1891.65
1933.02
1973.5
2013.06
2051.68
2089.35
2126.03
2161.73
2196.42
2230.09
2262.72
2294.31
2324.84
2354.3
2382.69
2409.99
2436.21
2461.33
2485.36
2508.3
2530.14
2550.88
2570.53
2589.09
2606.57
2622.97
2638.3
2652.57
2665.79
2677.96
2689.11
2699.24
2708.36
2716.49
2723.65
2729.84
2735.09
2739.42
2742.83
2745.37
2747.04
2747.88
2747.91
2747.14
2745.62
2743.35
2740.36
2736.68
2732.32
2727.32
2721.68
2715.45
2708.63
2701.25
2693.34
2684.92
2676.03
2666.67
2656.89
2646.7
2636.14
2625.22
2613.98
2602.43
2590.62
2578.55
2566.26
2553.77
2541.11
2528.29
2515.35
2502.31
2489.19
2476.02
2462.82
2449.6
2436.4
2423.24
2410.13
2397.1
2384.17
2371.36
2358.69
2346.18
2333.84
2321.7
2309.78
2298.09
2286.64
2275.46
2264.56
2253.95
2243.66
2233.69
2224.06
2214.78
2205.86
2197.31
2189.17
2181.4
2174.1
2167.18
2160.68
2154.61
2148.98
2143.79
2139.05
2134.77
2130.95
2127.59
2124.68
2122.24
2120.27
2118.77
2117.74
2117.15
2116.98
2117.22
2117.88
2118.95
2120.47
2122.48
2124.97
2127.91
2131.26
2134.99
2139.09
2143.54
2148.34
2153.47
2158.91
2164.65
2170.67
2176.96
2183.48
2190.23
2197.19
2204.33
2211.64
2219.09
2226.66
2234.34
2242.09
2249.89
2257.73
2265.58
2273.42
2281.22
2288.97
2296.63
2304.2
2311.64
2318.93
2326.06
2333.01
2339.75
2346.27
2352.55
2358.56
2364.31
2369.76
2374.91
2379.74
2384.24
2388.4
2392.22
2395.67
2398.76
2401.48
2403.82
2405.79
2407.38
2408.58
2409.41
2409.87
2409.95
2409.67
2409.03
2408.04
2406.7
2405.03
2403.04
2400.75
2398.16
2395.29
2392.15
2388.77
2385.16
2381.33
2377.32
2373.13
2368.78
2364.3
2359.71
2355.03
2350.27
2345.47
2340.65
2335.82
2331
2326.23
2321.52
2316.89
2312.36
2307.96
2303.7
2299.6
2295.7
2292.01
2288.57
2285.39
2282.48
2279.86
2277.53
2275.51
2273.82
2272.47
2271.47
2270.84
2270.59
2270.73
2271.27
2272.22
2273.58
2275.37
2277.59
2280.24
2283.33
2286.87
2290.85
2295.28
2300.16
2305.49
2311.27
2317.5
2324.17
2331.28
2338.83
2346.82
2355.24
2364.07
2373.33
2382.99
2393.06
2403.52
2414.36
2425.58
2437.16
2449.1
2461.39
2474.01
2486.95
2500.21
2513.76
2527.6
2541.71
2556.09
2570.71
2585.57
2600.66
2615.95
2631.44
2647.11
2662.94
2678.94
2695.07
2711.33
2727.7
2744.17
2760.72
2777.35
2794.03
2810.75
2827.51
2844.28
2861.04
2877.8
2894.53
2911.22
2927.86
2944.43
2960.92
2977.32
2993.61
3009.79
3025.83
3041.72
3057.46
3073.03
3088.42
3103.61
3118.6
3133.37
3147.91
3162.22
3176.27
3190.06
3203.58
3216.81
3229.75
3242.4
3254.73
3266.73
3278.41
3289.75
3300.74
3311.38
3321.66
3331.56
3341.08
3350.22
3358.97
3367.32
3375.27
3382.81
3389.93
3396.63
3402.91
3408.76
3414.17
3419.15
3423.68
3427.77
3431.42
3434.6
3437.36
3439.64
3441.42
3443
3443.66
3444.07
-2078.61
-2079.2
-2080.1
-2081.37
-2083.11
-2085.31
-2087.98
-2091.1
-2094.68
-2098.7
-2103.17
-2108.07
-2113.39
-2119.14
-2125.29
-2131.84
-2138.78
-2146.08
-2153.74
-2161.75
-2170.08
-2178.72
-2187.65
-2196.85
-2206.31
-2216
-2225.91
-2236.01
-2246.29
-2256.71
-2267.26
-2277.91
-2288.64
-2299.42
-2310.24
-2321.05
-2331.85
-2342.59
-2353.26
-2363.81
-2374.24
-2384.5
-2394.56
-2404.4
-2413.99
-2423.28
-2432.26
-2440.89
-2449.13
-2456.94
-2464.31
-2471.19
-2477.54
-2483.34
-2488.54
-2493.12
-2497.03
-2500.24
-2502.72
-2504.42
-2505.31
-2505.37
-2504.55
-2502.82
-2500.16
-2496.52
-2491.87
-2486.19
-2479.45
-2471.62
-2462.69
-2452.61
-2441.39
-2428.99
-2415.4
-2400.61
-2384.6
-2367.36
-2348.89
-2329.19
-2308.24
-2286.06
-2262.64
-2237.99
-2212.12
-2185.05
-2156.79
-2127.35
-2096.75
-2065.01
-2032.16
-1998.21
-1963.2
-1927.16
-1890.1
-1852.06
-1813.08
-1773.17
-1732.38
-1690.74
-1648.28
-1605.02
-1561.01
-1516.28
-1470.86
-1424.77
-1378.06
-1330.74
-1282.86
-1234.43
-1185.49
-1136.06
-1086.16
-1035.83
-985.08
-933.935
-882.417
-830.545
-778.337
-725.811
-672.985
-619.875
-566.496
-512.864
-458.994
-404.901
-350.599
-296.103
-241.428
-186.589
-131.601
-76.481
-21.2444
34.0917
89.5108
144.998
200.539
256.114
311.695
367.254
422.771
478.225
533.593
588.849
643.969
698.925
753.692
808.241
862.544
916.573
970.297
1023.69
1076.72
1129.35
1181.56
1233.31
1284.58
1335.33
1385.54
1435.17
1484.19
1532.57
1580.29
1627.32
1673.63
1719.18
1763.96
1807.93
1851.08
1893.37
1934.79
1975.31
2014.91
2053.57
2091.27
2128
2163.73
2198.45
2232.14
2264.8
2296.41
2326.96
2356.44
2384.84
2412.16
2438.38
2463.52
2487.55
2510.49
2532.33
2553.07
2572.71
2591.27
2608.73
2625.12
2640.44
2654.69
2667.88
2680.04
2691.16
2701.26
2710.36
2718.46
2725.59
2731.75
2736.97
2741.26
2744.65
2747.15
2748.79
2749.59
2749.57
2748.76
2747.19
2744.87
2741.83
2738.09
2733.67
2728.6
2722.9
2716.6
2709.72
2702.28
2694.31
2685.84
2676.88
2667.47
2657.63
2647.39
2636.77
2625.8
2614.51
2602.91
2591.04
2578.93
2566.59
2554.05
2541.33
2528.47
2515.49
2502.4
2489.24
2476.02
2462.77
2449.51
2436.27
2423.06
2409.92
2396.85
2383.88
2371.03
2358.32
2345.77
2333.39
2321.22
2309.26
2297.53
2286.06
2274.84
2263.91
2253.28
2242.96
2232.97
2223.31
2214.01
2205.08
2196.53
2188.38
2180.64
2173.25
2166.3
2159.78
2153.7
2148.06
2142.86
2138.11
2133.83
2129.99
2126.62
2123.72
2121.28
2119.3
2117.79
2116.72
2116.08
2115.86
2116.06
2116.71
2117.86
2119.51
2121.63
2124.18
2127.14
2130.49
2134.24
2138.36
2142.84
2147.66
2152.82
2158.29
2164.06
2170.11
2176.42
2182.98
2189.77
2196.76
2203.94
2211.29
2218.78
2226.39
2234.1
2241.89
2249.74
2257.62
2265.51
2273.38
2281.23
2289.01
2296.72
2304.32
2311.8
2319.14
2326.31
2333.29
2340.07
2346.62
2352.93
2358.98
2364.75
2370.23
2375.4
2380.26
2384.78
2388.96
2392.79
2396.26
2399.36
2402.09
2404.44
2406.41
2408
2409.21
2410.04
2410.49
2410.56
2410.27
2409.61
2408.6
2407.24
2405.55
2403.54
2401.21
2398.59
2395.68
2392.51
2389.09
2385.44
2381.58
2377.51
2373.28
2368.88
2364.36
2359.72
2354.98
2350.18
2345.33
2340.45
2335.56
2330.69
2325.86
2321.09
2316.4
2311.83
2307.39
2303.12
2299.04
2295.15
2291.49
2288.04
2284.84
2281.9
2279.24
2276.88
2274.83
2273.11
2271.73
2270.7
2270.05
2269.78
2269.89
2270.41
2271.34
2272.68
2274.45
2276.66
2279.3
2282.38
2285.9
2289.88
2294.3
2299.18
2304.5
2310.28
2316.5
2323.17
2330.29
2337.84
2345.83
2354.25
2363.09
2372.35
2382.02
2392.09
2402.56
2413.41
2424.64
2436.24
2448.19
2460.49
2473.12
2486.07
2499.34
2512.9
2526.76
2540.88
2555.27
2569.91
2584.78
2599.88
2615.19
2630.69
2646.37
2662.22
2678.23
2694.38
2710.65
2727.03
2743.52
2760.08
2776.72
2793.42
2810.16
2826.92
2843.71
2860.49
2877.26
2894
2910.71
2927.36
2943.94
2960.45
2976.86
2993.16
3009.35
3025.4
3041.31
3057.06
3072.64
3088.04
3103.24
3118.24
3133.03
3147.58
3161.89
3175.96
3189.76
3203.29
3216.53
3229.49
3242.14
3254.48
3266.5
3278.19
3289.54
3300.54
3311.19
3321.47
3331.38
3340.92
3350.07
3358.83
3367.19
3375.14
3382.69
3389.82
3396.52
3402.81
3408.66
3414.08
3419.07
3423.61
3427.7
3431.35
3434.54
3437.31
3439.59
3441.38
3442.96
3443.61
3444.01
-2078.28
-2078.88
-2079.79
-2081.06
-2082.81
-2085.01
-2087.68
-2090.81
-2094.4
-2098.44
-2102.92
-2107.83
-2113.18
-2118.94
-2125.12
-2131.69
-2138.65
-2145.99
-2153.68
-2161.72
-2170.08
-2178.76
-2187.72
-2196.97
-2206.47
-2216.21
-2226.16
-2236.31
-2246.63
-2257.11
-2267.71
-2278.41
-2289.2
-2300.04
-2310.92
-2321.8
-2332.65
-2343.46
-2354.19
-2364.82
-2375.32
-2385.65
-2395.79
-2405.7
-2415.36
-2424.74
-2433.8
-2442.5
-2450.82
-2458.73
-2466.18
-2473.14
-2479.59
-2485.48
-2490.77
-2495.44
-2499.45
-2502.75
-2505.32
-2507.12
-2508.11
-2508.25
-2507.52
-2505.87
-2503.28
-2499.71
-2495.13
-2489.53
-2482.85
-2475.09
-2466.21
-2456.2
-2445.02
-2432.66
-2419.11
-2404.35
-2388.36
-2371.14
-2352.67
-2332.97
-2312.01
-2289.81
-2266.37
-2241.7
-2215.8
-2188.69
-2160.37
-2130.88
-2100.22
-2068.42
-2035.49
-2001.48
-1966.39
-1930.26
-1893.12
-1855
-1815.92
-1775.93
-1735.05
-1693.31
-1650.75
-1607.41
-1563.3
-1518.48
-1472.96
-1426.79
-1379.98
-1332.58
-1284.61
-1236.1
-1187.08
-1137.57
-1087.6
-1037.19
-986.372
-935.159
-883.575
-831.64
-779.37
-726.786
-673.902
-620.736
-567.303
-513.618
-459.696
-405.551
-351.198
-296.65
-241.924
-187.032
-131.992
-76.8173
-21.5254
33.8668
89.341
144.88
200.472
256.096
311.728
367.343
422.921
478.439
533.873
589.196
644.385
699.411
754.249
808.87
863.247
917.349
971.149
1024.62
1077.72
1130.43
1182.71
1234.54
1285.89
1336.72
1387
1436.71
1485.8
1534.26
1582.06
1629.16
1675.53
1721.16
1766
1810.04
1853.25
1895.61
1937.09
1977.67
2017.32
2056.03
2093.78
2130.56
2166.33
2201.09
2234.83
2267.52
2299.16
2329.74
2359.24
2387.66
2415
2441.24
2466.38
2490.42
2513.36
2535.2
2555.94
2575.58
2594.12
2611.58
2627.95
2643.25
2657.47
2670.64
2682.77
2693.86
2703.92
2712.98
2721.04
2728.12
2734.24
2739.4
2743.65
2746.98
2749.43
2751.01
2751.76
2751.69
2750.82
2749.19
2746.81
2743.7
2739.9
2735.42
2730.28
2724.52
2718.15
2711.2
2703.69
2695.65
2687.1
2678.08
2668.59
2658.69
2648.37
2637.68
2626.65
2615.28
2603.62
2591.68
2579.5
2567.09
2554.48
2541.71
2528.78
2515.73
2502.58
2489.35
2476.07
2462.76
2449.45
2436.14
2422.88
2409.67
2396.55
2383.53
2370.62
2357.86
2345.26
2332.84
2320.61
2308.61
2296.84
2285.31
2274.06
2263.09
2252.41
2242.06
2232.02
2222.33
2213
2204.04
2195.45
2187.26
2179.48
2172.09
2165.11
2158.57
2152.46
2146.8
2141.58
2136.82
2132.52
2128.68
2125.3
2122.39
2119.95
2117.97
2116.47
2115.42
2114.83
2114.68
2114.98
2115.71
2116.87
2118.48
2120.56
2123.08
2126.04
2129.4
2133.17
2137.3
2141.81
2146.66
2151.85
2157.35
2163.16
2169.25
2175.61
2182.21
2189.04
2196.08
2203.31
2210.7
2218.24
2225.9
2233.67
2241.51
2249.41
2257.35
2265.29
2273.23
2281.13
2288.97
2296.73
2304.39
2311.92
2319.31
2326.53
2333.56
2340.39
2346.99
2353.35
2359.44
2365.26
2370.78
2375.99
2380.88
2385.44
2389.65
2393.51
2397
2400.13
2402.87
2405.24
2407.22
2408.82
2410.03
2410.86
2411.31
2411.38
2411.07
2410.4
2409.38
2408
2406.29
2404.25
2401.9
2399.25
2396.31
2393.11
2389.65
2385.96
2382.06
2377.95
2373.67
2369.24
2364.66
2359.97
2355.19
2350.34
2345.44
2340.51
2335.58
2330.66
2325.79
2320.97
2316.24
2311.61
2307.11
2302.76
2298.59
2294.62
2290.87
2287.36
2284.11
2281.12
2278.41
2276.01
2273.91
2272.15
2270.73
2269.67
2268.99
2268.68
2268.77
2269.25
2270.16
2271.48
2273.23
2275.41
2278.03
2281.1
2284.61
2288.57
2292.99
2297.86
2303.17
2308.95
2315.17
2321.84
2328.95
2336.51
2344.5
2352.93
2361.77
2371.04
2380.72
2390.8
2401.28
2412.15
2423.39
2435
2446.96
2459.27
2471.92
2484.89
2498.17
2511.75
2525.62
2539.77
2554.18
2568.83
2583.72
2598.84
2614.16
2629.68
2645.39
2661.26
2677.28
2693.45
2709.74
2726.14
2742.64
2759.23
2775.89
2792.6
2809.36
2826.14
2842.95
2859.75
2876.53
2893.3
2910.02
2926.69
2943.29
2959.81
2976.24
2992.56
3008.76
3024.83
3040.76
3056.52
3072.12
3087.54
3102.76
3117.77
3132.57
3147.14
3161.47
3175.55
3189.37
3202.91
3216.17
3229.14
3241.8
3254.16
3266.19
3277.89
3289.26
3300.27
3310.93
3321.23
3331.15
3340.7
3349.86
3358.63
3367
3374.96
3382.52
3389.66
3396.38
3402.67
3408.53
3413.96
3418.95
3423.49
3427.6
3431.25
3434.45
3437.22
3439.52
3441.3
3442.89
3443.53
3443.94
-2077.86
-2078.47
-2079.38
-2080.66
-2082.41
-2084.62
-2087.3
-2090.44
-2094.04
-2098.1
-2102.6
-2107.54
-2112.91
-2118.7
-2124.9
-2131.51
-2138.5
-2145.87
-2153.61
-2161.68
-2170.09
-2178.81
-2187.83
-2197.13
-2206.68
-2216.47
-2226.48
-2236.69
-2247.08
-2257.61
-2268.28
-2279.06
-2289.91
-2300.83
-2311.78
-2322.73
-2333.67
-2344.56
-2355.37
-2366.09
-2376.67
-2387.09
-2397.33
-2407.34
-2417.1
-2426.57
-2435.73
-2444.54
-2452.97
-2460.98
-2468.54
-2475.61
-2482.17
-2488.17
-2493.58
-2498.36
-2502.48
-2505.9
-2508.59
-2510.5
-2511.6
-2511.86
-2511.24
-2509.7
-2507.22
-2503.76
-2499.28
-2493.76
-2487.18
-2479.49
-2470.69
-2460.74
-2449.62
-2437.31
-2423.8
-2409.07
-2393.1
-2375.9
-2357.44
-2337.73
-2316.77
-2294.55
-2271.08
-2246.37
-2220.42
-2193.25
-2164.88
-2135.31
-2104.58
-2072.69
-2039.68
-2005.57
-1970.38
-1934.15
-1896.9
-1858.67
-1819.48
-1779.37
-1738.37
-1696.52
-1653.84
-1610.37
-1566.15
-1521.21
-1475.58
-1429.29
-1382.37
-1334.86
-1286.78
-1238.17
-1189.04
-1139.43
-1089.37
-1038.87
-987.965
-936.668
-885.002
-832.988
-780.643
-727.986
-675.032
-621.797
-568.298
-514.548
-460.562
-406.354
-351.938
-297.329
-242.54
-187.586
-132.482
-77.2428
-21.8844
33.5771
89.1247
144.74
200.404
256.1
311.805
367.499
423.157
478.755
534.27
589.678
644.952
700.066
754.993
809.705
864.173
918.369
972.263
1025.82
1079.02
1131.83
1184.21
1236.14
1287.58
1338.51
1388.89
1438.69
1487.88
1536.43
1584.32
1631.51
1677.97
1723.68
1768.61
1812.74
1856.03
1898.46
1940.02
1980.67
2020.39
2059.17
2096.98
2133.81
2169.64
2204.45
2238.23
2270.97
2302.65
2333.26
2362.79
2391.24
2418.6
2444.85
2470.01
2494.06
2517
2538.84
2559.57
2579.2
2597.73
2615.17
2631.52
2646.79
2660.99
2674.12
2686.21
2697.26
2707.28
2716.29
2724.3
2731.33
2737.39
2742.51
2746.69
2749.97
2752.35
2753.87
2754.55
2754.41
2753.46
2751.75
2749.28
2746.09
2742.2
2737.63
2732.4
2726.54
2720.08
2713.03
2705.43
2697.3
2688.66
2679.55
2669.98
2659.98
2649.57
2638.8
2627.67
2616.22
2604.47
2592.44
2580.17
2567.68
2554.99
2542.13
2529.13
2515.99
2502.76
2489.46
2476.1
2462.72
2449.33
2435.95
2422.62
2409.34
2396.14
2383.05
2370.08
2357.26
2344.59
2332.11
2319.82
2307.76
2295.93
2284.35
2273.04
2262.02
2251.3
2240.89
2230.81
2221.08
2211.71
2202.7
2194.08
2185.85
2178.02
2170.6
2163.62
2157.04
2150.91
2145.22
2139.99
2135.21
2130.89
2127.04
2123.65
2120.73
2118.28
2116.3
2114.78
2113.72
2113.12
2112.96
2113.26
2114.01
2115.23
2116.92
2119.05
2121.62
2124.61
2128.01
2131.8
2135.98
2140.52
2145.41
2150.64
2156.2
2162.05
2168.19
2174.6
2181.26
2188.15
2195.25
2202.54
2210
2217.6
2225.33
2233.16
2241.08
2249.05
2257.05
2265.07
2273.07
2281.04
2288.95
2296.78
2304.51
2312.11
2319.57
2326.85
2333.95
2340.84
2347.5
2353.92
2360.07
2365.93
2371.51
2376.77
2381.7
2386.3
2390.55
2394.43
2397.96
2401.1
2403.87
2406.25
2408.25
2409.85
2411.07
2411.9
2412.34
2412.4
2412.08
2411.39
2410.34
2408.94
2407.19
2405.12
2402.73
2400.03
2397.05
2393.79
2390.28
2386.53
2382.57
2378.4
2374.06
2369.55
2364.91
2360.16
2355.3
2350.38
2345.4
2340.4
2335.4
2330.41
2325.46
2320.58
2315.78
2311.09
2306.54
2302.15
2297.93
2293.9
2290.09
2286.52
2283.2
2280.15
2277.38
2274.92
2272.77
2270.96
2269.5
2268.39
2267.66
2267.31
2267.36
2267.81
2268.68
2269.98
2271.7
2273.86
2276.46
2279.5
2283
2286.95
2291.35
2296.21
2301.52
2307.29
2313.5
2320.17
2327.29
2334.85
2342.84
2351.27
2360.13
2369.41
2379.1
2389.19
2399.69
2410.56
2421.82
2433.45
2445.43
2457.76
2470.43
2483.42
2496.72
2510.32
2524.21
2538.38
2552.81
2567.49
2582.4
2597.54
2612.89
2628.43
2644.16
2660.05
2676.1
2692.29
2708.6
2725.03
2741.56
2758.17
2774.85
2791.59
2808.37
2825.17
2842
2858.82
2875.63
2892.42
2909.16
2925.85
2942.48
2959.02
2975.47
2991.81
3008.04
3024.13
3040.07
3055.86
3071.48
3086.91
3102.16
3117.19
3132.01
3146.6
3160.95
3175.04
3188.88
3202.44
3215.72
3228.7
3241.39
3253.76
3265.81
3277.53
3288.9
3299.94
3310.61
3320.92
3330.86
3340.42
3349.6
3358.38
3366.76
3374.74
3382.3
3389.45
3396.18
3402.49
3408.36
3413.79
3418.79
3423.35
3427.46
3431.12
3434.32
3437.1
3439.4
3441.18
3442.77
3443.42
3443.83
-2077.36
-2077.97
-2078.88
-2080.17
-2081.92
-2084.14
-2086.83
-2089.99
-2093.61
-2097.68
-2102.21
-2107.17
-2112.57
-2118.4
-2124.64
-2131.28
-2138.32
-2145.74
-2153.52
-2161.64
-2170.11
-2178.88
-2187.96
-2197.32
-2206.93
-2216.79
-2226.87
-2237.15
-2247.61
-2258.23
-2268.97
-2279.83
-2290.77
-2301.77
-2312.81
-2323.86
-2334.89
-2345.88
-2356.79
-2367.61
-2378.29
-2388.82
-2399.17
-2409.29
-2419.17
-2428.76
-2438.04
-2446.97
-2455.53
-2463.67
-2471.36
-2478.57
-2485.26
-2491.39
-2496.94
-2501.86
-2506.12
-2509.67
-2512.49
-2514.54
-2515.78
-2516.17
-2515.68
-2514.27
-2511.91
-2508.57
-2504.21
-2498.8
-2492.32
-2484.74
-2476.03
-2466.16
-2455.11
-2442.87
-2429.41
-2414.72
-2398.79
-2381.61
-2363.16
-2343.46
-2322.48
-2300.24
-2276.73
-2251.98
-2225.98
-2198.74
-2170.3
-2140.65
-2109.82
-2077.83
-2044.72
-2010.49
-1975.19
-1938.83
-1901.45
-1863.08
-1823.76
-1783.51
-1742.37
-1700.37
-1657.55
-1613.95
-1569.58
-1524.5
-1478.72
-1432.3
-1385.25
-1337.6
-1289.4
-1240.66
-1191.41
-1141.69
-1091.51
-1040.9
-989.888
-938.489
-886.726
-834.618
-782.183
-729.438
-676.4
-623.084
-569.505
-515.677
-461.615
-407.332
-352.841
-298.157
-243.294
-188.265
-133.086
-77.7705
-22.3349
33.2045
88.8309
144.528
200.278
256.061
311.856
367.639
423.391
479.086
534.7
590.209
645.587
700.807
755.841
810.663
865.242
919.55
973.557
1027.23
1080.55
1133.47
1185.97
1238.01
1289.57
1340.61
1391.11
1441.02
1490.33
1539
1586.99
1634.29
1680.86
1726.68
1771.71
1815.94
1859.32
1901.85
1943.49
1984.23
2024.04
2062.9
2100.78
2137.68
2173.58
2208.45
2242.29
2275.08
2306.8
2337.46
2367.03
2395.51
2422.89
2449.17
2474.34
2498.4
2521.35
2543.18
2563.91
2583.53
2602.05
2619.46
2635.79
2651.03
2665.19
2678.29
2690.33
2701.32
2711.29
2720.24
2728.19
2735.15
2741.15
2746.19
2750.3
2753.49
2755.8
2757.24
2757.83
2757.6
2756.57
2754.77
2752.21
2748.92
2744.93
2740.26
2734.93
2728.96
2722.4
2715.24
2707.54
2699.3
2690.55
2681.33
2671.65
2661.54
2651.04
2640.15
2628.92
2617.36
2605.51
2593.39
2581.01
2568.42
2555.63
2542.67
2529.57
2516.34
2503.01
2489.61
2476.16
2462.69
2449.21
2435.74
2422.32
2408.96
2395.68
2382.51
2369.46
2356.55
2343.81
2331.26
2318.9
2306.76
2294.87
2283.22
2271.85
2260.77
2249.98
2239.52
2229.39
2219.6
2210.18
2201.12
2192.45
2184.18
2176.31
2168.87
2161.87
2155.23
2149.06
2143.35
2138.09
2133.3
2128.96
2125.1
2121.7
2118.77
2116.32
2114.34
2112.83
2111.79
2111.22
2111.1
2111.44
2112.23
2113.47
2115.16
2117.31
2119.89
2122.91
2126.33
2130.16
2134.37
2138.96
2143.9
2149.18
2154.79
2160.7
2166.91
2173.38
2180.11
2187.06
2194.23
2201.6
2209.13
2216.81
2224.62
2232.54
2240.53
2248.58
2256.67
2264.77
2272.86
2280.91
2288.91
2296.83
2304.64
2312.32
2319.86
2327.23
2334.4
2341.37
2348.1
2354.59
2360.81
2366.74
2372.37
2377.69
2382.68
2387.32
2391.62
2395.55
2399.1
2402.28
2405.08
2407.48
2409.49
2411.11
2412.33
2413.15
2413.59
2413.64
2413.3
2412.59
2411.52
2410.08
2408.3
2406.19
2403.75
2401.01
2397.97
2394.66
2391.09
2387.28
2383.24
2379.01
2374.59
2370.01
2365.29
2360.46
2355.53
2350.52
2345.46
2340.38
2335.29
2330.22
2325.19
2320.22
2315.34
2310.56
2305.92
2301.44
2297.14
2293.03
2289.14
2285.49
2282.1
2278.97
2276.14
2273.61
2271.4
2269.53
2268
2266.84
2266.06
2265.66
2265.67
2266.08
2266.91
2268.17
2269.86
2271.98
2274.56
2277.58
2281.06
2284.99
2289.38
2294.22
2299.53
2305.29
2311.5
2318.17
2325.29
2332.85
2340.85
2349.29
2358.16
2367.44
2377.15
2387.26
2397.77
2408.66
2419.94
2431.58
2443.59
2455.94
2468.63
2481.64
2494.97
2508.6
2522.52
2536.71
2551.17
2565.87
2580.82
2595.98
2611.36
2626.93
2642.68
2658.61
2674.68
2690.9
2707.24
2723.7
2740.25
2756.89
2773.6
2790.37
2807.17
2824.01
2840.86
2857.71
2874.55
2891.36
2908.14
2924.85
2941.5
2958.07
2974.55
2990.92
3007.17
3023.28
3039.26
3055.07
3070.71
3086.17
3101.44
3116.5
3131.34
3145.95
3160.32
3174.44
3188.3
3201.88
3215.18
3228.19
3240.89
3253.28
3265.35
3277.09
3288.49
3299.54
3310.23
3320.56
3330.51
3340.09
3349.28
3358.08
3366.47
3374.46
3382.04
3389.21
3395.95
3402.26
3408.14
3413.59
3418.6
3423.16
3427.28
3430.95
3434.16
3436.94
3439.25
3441.03
3442.63
3443.28
3443.69
-2076.76
-2077.38
-2078.29
-2079.58
-2081.34
-2083.57
-2086.28
-2089.45
-2093.09
-2097.19
-2101.74
-2106.74
-2112.18
-2118.04
-2124.33
-2131.02
-2138.1
-2145.57
-2153.41
-2161.6
-2170.12
-2178.97
-2188.11
-2197.54
-2207.23
-2217.17
-2227.33
-2237.7
-2248.24
-2258.95
-2269.78
-2280.74
-2291.78
-2302.88
-2314.02
-2325.17
-2336.31
-2347.41
-2358.44
-2369.38
-2380.19
-2390.84
-2401.31
-2411.57
-2421.58
-2431.31
-2440.73
-2449.81
-2458.51
-2466.8
-2474.64
-2482.01
-2488.86
-2495.15
-2500.86
-2505.94
-2510.36
-2514.08
-2517.06
-2519.27
-2520.66
-2521.21
-2520.88
-2519.62
-2517.41
-2514.21
-2509.99