/*--------------------------------*- C++ -*----------------------------------*\
| =========                 |                                                 |
| \\      /  F ield         | OpenFOAM: The Open Source CFD Toolbox           |
|  \\    /   O peration     | Version:  v2006                                 |
|   \\  /    A nd           | Website:  www.openfoam.com                      |
|    \\/     M anipulation  |                                                 |
\*---------------------------------------------------------------------------*/
FoamFile
{
    version     2.0;
    format      ascii;
    class       volVectorField;
    location    "0";
    object      U_new;
}
// * * * * * * * * * * * * * * * * * * * * * * * * * * * * * * * * * * * * * //

dimensions      [0 1 -1 0 0 0 0];


internalField   nonuniform List<vector> 
2500
(
(0.000336 -0.014112 0)
(0.000336 -0.042336 0)
(0.000336 -0.07056 0)
(0.000336 -0.098784 0)
(0.000336 -0.127008 0)
(0.000336 -0.155232 0)
(0.000336 -0.183456 0)
(0.000336 -0.21168 0)
(0.000336 -0.239904 0)
(0.000336 -0.268128 0)
(0.000336 -0.296352 0)
(0.000336 -0.324576 0)
(0.000336 -0.3528 0)
(0.000336 -0.381024 0)
(0.000336 -0.409248 0)
(0.000336 -0.437472 0)
(0.000336 -0.465696 0)
(0.000336 -0.49392 0)
(0.000336 -0.522144 0)
(0.000336 -0.550368 0)
(0.000336 -0.578592 0)
(0.000336 -0.606816 0)
(0.000336 -0.63504 0)
(0.000336 -0.663264 0)
(0.000336 -0.691488 0)
(0.000336 -0.719712 0)
(0.000336 -0.747936 0)
(0.000336 -0.77616 0)
(0.000336 -0.804384 0)
(0.000336 -0.832608 0)
(0.000336 -0.860832 0)
(0.000336 -0.889056 0)
(0.000336 -0.91728 0)
(0.000336 -0.945504 0)
(0.000336 -0.973728 0)
(0.000336 -1.00195 0)
(0.000336 -1.03018 0)
(0.000336 -1.0584 0)
(0.000336 -1.08662 0)
(0.000336 -1.11485 0)
(0.000336 -1.14307 0)
(0.000336 -1.1713 0)
(0.000336 -1.19952 0)
(0.000336 -1.22774 0)
(0.000336 -1.25597 0)
(0.000336 -1.28419 0)
(0.000336 -1.31242 0)
(0.000336 -1.34064 0)
(0.000336 -1.36886 0)
(0.000336 -1.39709 0)
(0.003024 -0.014112 0)
(0.003024 -0.042336 0)
(0.003024 -0.07056 0)
(0.003024 -0.098784 0)
(0.003024 -0.127008 0)
(0.003024 -0.155232 0)
(0.003024 -0.183456 0)
(0.003024 -0.21168 0)
(0.003024 -0.239904 0)
(0.003024 -0.268128 0)
(0.003024 -0.296352 0)
(0.003024 -0.324576 0)
(0.003024 -0.3528 0)
(0.003024 -0.381024 0)
(0.003024 -0.409248 0)
(0.003024 -0.437472 0)
(0.003024 -0.465696 0)
(0.003024 -0.49392 0)
(0.003024 -0.522144 0)
(0.003024 -0.550368 0)
(0.003024 -0.578592 0)
(0.003024 -0.606816 0)
(0.003024 -0.63504 0)
(0.003024 -0.663264 0)
(0.003024 -0.691488 0)
(0.003024 -0.719712 0)
(0.003024 -0.747936 0)
(0.003024 -0.77616 0)
(0.003024 -0.804384 0)
(0.003024 -0.832608 0)
(0.003024 -0.860832 0)
(0.003024 -0.889056 0)
(0.003024 -0.91728 0)
(0.003024 -0.945504 0)
(0.003024 -0.973728 0)
(0.003024 -1.00195 0)
(0.003024 -1.03018 0)
(0.003024 -1.0584 0)
(0.003024 -1.08662 0)
(0.003024 -1.11485 0)
(0.003024 -1.14307 0)
(0.003024 -1.1713 0)
(0.003024 -1.19952 0)
(0.003024 -1.22774 0)
(0.003024 -1.25597 0)
(0.003024 -1.28419 0)
(0.003024 -1.31242 0)
(0.003024 -1.34064 0)
(0.003024 -1.36886 0)
(0.003024 -1.39709 0)
(0.0084 -0.014112 0)
(0.0084 -0.042336 0)
(0.0084 -0.07056 0)
(0.0084 -0.098784 0)
(0.0084 -0.127008 0)
(0.0084 -0.155232 0)
(0.0084 -0.183456 0)
(0.0084 -0.21168 0)
(0.0084 -0.239904 0)
(0.0084 -0.268128 0)
(0.0084 -0.296352 0)
(0.0084 -0.324576 0)
(0.0084 -0.3528 0)
(0.0084 -0.381024 0)
(0.0084 -0.409248 0)
(0.0084 -0.437472 0)
(0.0084 -0.465696 0)
(0.0084 -0.49392 0)
(0.0084 -0.522144 0)
(0.0084 -0.550368 0)
(0.0084 -0.578592 0)
(0.0084 -0.606816 0)
(0.0084 -0.63504 0)
(0.0084 -0.663264 0)
(0.0084 -0.691488 0)
(0.0084 -0.719712 0)
(0.0084 -0.747936 0)
(0.0084 -0.77616 0)
(0.0084 -0.804384 0)
(0.0084 -0.832608 0)
(0.0084 -0.860832 0)
(0.0084 -0.889056 0)
(0.0084 -0.91728 0)
(0.0084 -0.945504 0)
(0.0084 -0.973728 0)
(0.0084 -1.00195 0)
(0.0084 -1.03018 0)
(0.0084 -1.0584 0)
(0.0084 -1.08662 0)
(0.0084 -1.11485 0)
(0.0084 -1.14307 0)
(0.0084 -1.1713 0)
(0.0084 -1.19952 0)
(0.0084 -1.22774 0)
(0.0084 -1.25597 0)
(0.0084 -1.28419 0)
(0.0084 -1.31242 0)
(0.0084 -1.34064 0)
(0.0084 -1.36886 0)
(0.0084 -1.39709 0)
(0.016464 -0.014112 0)
(0.016464 -0.042336 0)
(0.016464 -0.07056 0)
(0.016464 -0.098784 0)
(0.016464 -0.127008 0)
(0.016464 -0.155232 0)
(0.016464 -0.183456 0)
(0.016464 -0.21168 0)
(0.016464 -0.239904 0)
(0.016464 -0.268128 0)
(0.016464 -0.296352 0)
(0.016464 -0.324576 0)
(0.016464 -0.3528 0)
(0.016464 -0.381024 0)
(0.016464 -0.409248 0)
(0.016464 -0.437472 0)
(0.016464 -0.465696 0)
(0.016464 -0.49392 0)
(0.016464 -0.522144 0)
(0.016464 -0.550368 0)
(0.016464 -0.578592 0)
(0.016464 -0.606816 0)
(0.016464 -0.63504 0)
(0.016464 -0.663264 0)
(0.016464 -0.691488 0)
(0.016464 -0.719712 0)
(0.016464 -0.747936 0)
(0.016464 -0.77616 0)
(0.016464 -0.804384 0)
(0.016464 -0.832608 0)
(0.016464 -0.860832 0)
(0.016464 -0.889056 0)
(0.016464 -0.91728 0)
(0.016464 -0.945504 0)
(0.016464 -0.973728 0)
(0.016464 -1.00195 0)
(0.016464 -1.03018 0)
(0.016464 -1.0584 0)
(0.016464 -1.08662 0)
(0.016464 -1.11485 0)
(0.016464 -1.14307 0)
(0.016464 -1.1713 0)
(0.016464 -1.19952 0)
(0.016464 -1.22774 0)
(0.016464 -1.25597 0)
(0.016464 -1.28419 0)
(0.016464 -1.31242 0)
(0.016464 -1.34064 0)
(0.016464 -1.36886 0)
(0.016464 -1.39709 0)
(0.027216 -0.014112 0)
(0.027216 -0.042336 0)
(0.027216 -0.07056 0)
(0.027216 -0.098784 0)
(0.027216 -0.127008 0)
(0.027216 -0.155232 0)
(0.027216 -0.183456 0)
(0.027216 -0.21168 0)
(0.027216 -0.239904 0)
(0.027216 -0.268128 0)
(0.027216 -0.296352 0)
(0.027216 -0.324576 0)
(0.027216 -0.3528 0)
(0.027216 -0.381024 0)
(0.027216 -0.409248 0)
(0.027216 -0.437472 0)
(0.027216 -0.465696 0)
(0.027216 -0.49392 0)
(0.027216 -0.522144 0)
(0.027216 -0.550368 0)
(0.027216 -0.578592 0)
(0.027216 -0.606816 0)
(0.027216 -0.63504 0)
(0.027216 -0.663264 0)
(0.027216 -0.691488 0)
(0.027216 -0.719712 0)
(0.027216 -0.747936 0)
(0.027216 -0.77616 0)
(0.027216 -0.804384 0)
(0.027216 -0.832608 0)
(0.027216 -0.860832 0)
(0.027216 -0.889056 0)
(0.027216 -0.91728 0)
(0.027216 -0.945504 0)
(0.027216 -0.973728 0)
(0.027216 -1.00195 0)
(0.027216 -1.03018 0)
(0.027216 -1.0584 0)
(0.027216 -1.08662 0)
(0.027216 -1.11485 0)
(0.027216 -1.14307 0)
(0.027216 -1.1713 0)
(0.027216 -1.19952 0)
(0.027216 -1.22774 0)
(0.027216 -1.25597 0)
(0.027216 -1.28419 0)
(0.027216 -1.31242 0)
(0.027216 -1.34064 0)
(0.027216 -1.36886 0)
(0.027216 -1.39709 0)
(0.040656 -0.014112 0)
(0.040656 -0.042336 0)
(0.040656 -0.07056 0)
(0.040656 -0.098784 0)
(0.040656 -0.127008 0)
(0.040656 -0.155232 0)
(0.040656 -0.183456 0)
(0.040656 -0.21168 0)
(0.040656 -0.239904 0)
(0.040656 -0.268128 0)
(0.040656 -0.296352 0)
(0.040656 -0.324576 0)
(0.040656 -0.3528 0)
(0.040656 -0.381024 0)
(0.040656 -0.409248 0)
(0.040656 -0.437472 0)
(0.040656 -0.465696 0)
(0.040656 -0.49392 0)
(0.040656 -0.522144 0)
(0.040656 -0.550368 0)
(0.040656 -0.578592 0)
(0.040656 -0.606816 0)
(0.040656 -0.63504 0)
(0.040656 -0.663264 0)
(0.040656 -0.691488 0)
(0.040656 -0.719712 0)
(0.040656 -0.747936 0)
(0.040656 -0.77616 0)
(0.040656 -0.804384 0)
(0.040656 -0.832608 0)
(0.040656 -0.860832 0)
(0.040656 -0.889056 0)
(0.040656 -0.91728 0)
(0.040656 -0.945504 0)
(0.040656 -0.973728 0)
(0.040656 -1.00195 0)
(0.040656 -1.03018 0)
(0.040656 -1.0584 0)
(0.040656 -1.08662 0)
(0.040656 -1.11485 0)
(0.040656 -1.14307 0)
(0.040656 -1.1713 0)
(0.040656 -1.19952 0)
(0.040656 -1.22774 0)
(0.040656 -1.25597 0)
(0.040656 -1.28419 0)
(0.040656 -1.31242 0)
(0.040656 -1.34064 0)
(0.040656 -1.36886 0)
(0.040656 -1.39709 0)
(0.056784 -0.014112 0)
(0.056784 -0.042336 0)
(0.056784 -0.07056 0)
(0.056784 -0.098784 0)
(0.056784 -0.127008 0)
(0.056784 -0.155232 0)
(0.056784 -0.183456 0)
(0.056784 -0.21168 0)
(0.056784 -0.239904 0)
(0.056784 -0.268128 0)
(0.056784 -0.296352 0)
(0.056784 -0.324576 0)
(0.056784 -0.3528 0)
(0.056784 -0.381024 0)
(0.056784 -0.409248 0)
(0.056784 -0.437472 0)
(0.056784 -0.465696 0)
(0.056784 -0.49392 0)
(0.056784 -0.522144 0)
(0.056784 -0.550368 0)
(0.056784 -0.578592 0)
(0.056784 -0.606816 0)
(0.056784 -0.63504 0)
(0.056784 -0.663264 0)
(0.056784 -0.691488 0)
(0.056784 -0.719712 0)
(0.056784 -0.747936 0)
(0.056784 -0.77616 0)
(0.056784 -0.804384 0)
(0.056784 -0.832608 0)
(0.056784 -0.860832 0)
(0.056784 -0.889056 0)
(0.056784 -0.91728 0)
(0.056784 -0.945504 0)
(0.056784 -0.973728 0)
(0.056784 -1.00195 0)
(0.056784 -1.03018 0)
(0.056784 -1.0584 0)
(0.056784 -1.08662 0)
(0.056784 -1.11485 0)
(0.056784 -1.14307 0)
(0.056784 -1.1713 0)
(0.056784 -1.19952 0)
(0.056784 -1.22774 0)
(0.056784 -1.25597 0)
(0.056784 -1.28419 0)
(0.056784 -1.31242 0)
(0.056784 -1.34064 0)
(0.056784 -1.36886 0)
(0.056784 -1.39709 0)
(0.0756 -0.014112 0)
(0.0756 -0.042336 0)
(0.0756 -0.07056 0)
(0.0756 -0.098784 0)
(0.0756 -0.127008 0)
(0.0756 -0.155232 0)
(0.0756 -0.183456 0)
(0.0756 -0.21168 0)
(0.0756 -0.239904 0)
(0.0756 -0.268128 0)
(0.0756 -0.296352 0)
(0.0756 -0.324576 0)
(0.0756 -0.3528 0)
(0.0756 -0.381024 0)
(0.0756 -0.409248 0)
(0.0756 -0.437472 0)
(0.0756 -0.465696 0)
(0.0756 -0.49392 0)
(0.0756 -0.522144 0)
(0.0756 -0.550368 0)
(0.0756 -0.578592 0)
(0.0756 -0.606816 0)
(0.0756 -0.63504 0)
(0.0756 -0.663264 0)
(0.0756 -0.691488 0)
(0.0756 -0.719712 0)
(0.0756 -0.747936 0)
(0.0756 -0.77616 0)
(0.0756 -0.804384 0)
(0.0756 -0.832608 0)
(0.0756 -0.860832 0)
(0.0756 -0.889056 0)
(0.0756 -0.91728 0)
(0.0756 -0.945504 0)
(0.0756 -0.973728 0)
(0.0756 -1.00195 0)
(0.0756 -1.03018 0)
(0.0756 -1.0584 0)
(0.0756 -1.08662 0)
(0.0756 -1.11485 0)
(0.0756 -1.14307 0)
(0.0756 -1.1713 0)
(0.0756 -1.19952 0)
(0.0756 -1.22774 0)
(0.0756 -1.25597 0)
(0.0756 -1.28419 0)
(0.0756 -1.31242 0)
(0.0756 -1.34064 0)
(0.0756 -1.36886 0)
(0.0756 -1.39709 0)
(0.097104 -0.014112 0)
(0.097104 -0.042336 0)
(0.097104 -0.07056 0)
(0.097104 -0.098784 0)
(0.097104 -0.127008 0)
(0.097104 -0.155232 0)
(0.097104 -0.183456 0)
(0.097104 -0.21168 0)
(0.097104 -0.239904 0)
(0.097104 -0.268128 0)
(0.097104 -0.296352 0)
(0.097104 -0.324576 0)
(0.097104 -0.3528 0)
(0.097104 -0.381024 0)
(0.097104 -0.409248 0)
(0.097104 -0.437472 0)
(0.097104 -0.465696 0)
(0.097104 -0.49392 0)
(0.097104 -0.522144 0)
(0.097104 -0.550368 0)
(0.097104 -0.578592 0)
(0.097104 -0.606816 0)
(0.097104 -0.63504 0)
(0.097104 -0.663264 0)
(0.097104 -0.691488 0)
(0.097104 -0.719712 0)
(0.097104 -0.747936 0)
(0.097104 -0.77616 0)
(0.097104 -0.804384 0)
(0.097104 -0.832608 0)
(0.097104 -0.860832 0)
(0.097104 -0.889056 0)
(0.097104 -0.91728 0)
(0.097104 -0.945504 0)
(0.097104 -0.973728 0)
(0.097104 -1.00195 0)
(0.097104 -1.03018 0)
(0.097104 -1.0584 0)
(0.097104 -1.08662 0)
(0.097104 -1.11485 0)
(0.097104 -1.14307 0)
(0.097104 -1.1713 0)
(0.097104 -1.19952 0)
(0.097104 -1.22774 0)
(0.097104 -1.25597 0)
(0.097104 -1.28419 0)
(0.097104 -1.31242 0)
(0.097104 -1.34064 0)
(0.097104 -1.36886 0)
(0.097104 -1.39709 0)
(0.121296 -0.014112 0)
(0.121296 -0.042336 0)
(0.121296 -0.07056 0)
(0.121296 -0.098784 0)
(0.121296 -0.127008 0)
(0.121296 -0.155232 0)
(0.121296 -0.183456 0)
(0.121296 -0.21168 0)
(0.121296 -0.239904 0)
(0.121296 -0.268128 0)
(0.121296 -0.296352 0)
(0.121296 -0.324576 0)
(0.121296 -0.3528 0)
(0.121296 -0.381024 0)
(0.121296 -0.409248 0)
(0.121296 -0.437472 0)
(0.121296 -0.465696 0)
(0.121296 -0.49392 0)
(0.121296 -0.522144 0)
(0.121296 -0.550368 0)
(0.121296 -0.578592 0)
(0.121296 -0.606816 0)
(0.121296 -0.63504 0)
(0.121296 -0.663264 0)
(0.121296 -0.691488 0)
(0.121296 -0.719712 0)
(0.121296 -0.747936 0)
(0.121296 -0.77616 0)
(0.121296 -0.804384 0)
(0.121296 -0.832608 0)
(0.121296 -0.860832 0)
(0.121296 -0.889056 0)
(0.121296 -0.91728 0)
(0.121296 -0.945504 0)
(0.121296 -0.973728 0)
(0.121296 -1.00195 0)
(0.121296 -1.03018 0)
(0.121296 -1.0584 0)
(0.121296 -1.08662 0)
(0.121296 -1.11485 0)
(0.121296 -1.14307 0)
(0.121296 -1.1713 0)
(0.121296 -1.19952 0)
(0.121296 -1.22774 0)
(0.121296 -1.25597 0)
(0.121296 -1.28419 0)
(0.121296 -1.31242 0)
(0.121296 -1.34064 0)
(0.121296 -1.36886 0)
(0.121296 -1.39709 0)
(0.148176 -0.014112 0)
(0.148176 -0.042336 0)
(0.148176 -0.07056 0)
(0.148176 -0.098784 0)
(0.148176 -0.127008 0)
(0.148176 -0.155232 0)
(0.148176 -0.183456 0)
(0.148176 -0.21168 0)
(0.148176 -0.239904 0)
(0.148176 -0.268128 0)
(0.148176 -0.296352 0)
(0.148176 -0.324576 0)
(0.148176 -0.3528 0)
(0.148176 -0.381024 0)
(0.148176 -0.409248 0)
(0.148176 -0.437472 0)
(0.148176 -0.465696 0)
(0.148176 -0.49392 0)
(0.148176 -0.522144 0)
(0.148176 -0.550368 0)
(0.148176 -0.578592 0)
(0.148176 -0.606816 0)
(0.148176 -0.63504 0)
(0.148176 -0.663264 0)
(0.148176 -0.691488 0)
(0.148176 -0.719712 0)
(0.148176 -0.747936 0)
(0.148176 -0.77616 0)
(0.148176 -0.804384 0)
(0.148176 -0.832608 0)
(0.148176 -0.860832 0)
(0.148176 -0.889056 0)
(0.148176 -0.91728 0)
(0.148176 -0.945504 0)
(0.148176 -0.973728 0)
(0.148176 -1.00195 0)
(0.148176 -1.03018 0)
(0.148176 -1.0584 0)
(0.148176 -1.08662 0)
(0.148176 -1.11485 0)
(0.148176 -1.14307 0)
(0.148176 -1.1713 0)
(0.148176 -1.19952 0)
(0.148176 -1.22774 0)
(0.148176 -1.25597 0)
(0.148176 -1.28419 0)
(0.148176 -1.31242 0)
(0.148176 -1.34064 0)
(0.148176 -1.36886 0)
(0.148176 -1.39709 0)
(0.177744 -0.014112 0)
(0.177744 -0.042336 0)
(0.177744 -0.07056 0)
(0.177744 -0.098784 0)
(0.177744 -0.127008 0)
(0.177744 -0.155232 0)
(0.177744 -0.183456 0)
(0.177744 -0.21168 0)
(0.177744 -0.239904 0)
(0.177744 -0.268128 0)
(0.177744 -0.296352 0)
(0.177744 -0.324576 0)
(0.177744 -0.3528 0)
(0.177744 -0.381024 0)
(0.177744 -0.409248 0)
(0.177744 -0.437472 0)
(0.177744 -0.465696 0)
(0.177744 -0.49392 0)
(0.177744 -0.522144 0)
(0.177744 -0.550368 0)
(0.177744 -0.578592 0)
(0.177744 -0.606816 0)
(0.177744 -0.63504 0)
(0.177744 -0.663264 0)
(0.177744 -0.691488 0)
(0.177744 -0.719712 0)
(0.177744 -0.747936 0)
(0.177744 -0.77616 0)
(0.177744 -0.804384 0)
(0.177744 -0.832608 0)
(0.177744 -0.860832 0)
(0.177744 -0.889056 0)
(0.177744 -0.91728 0)
(0.177744 -0.945504 0)
(0.177744 -0.973728 0)
(0.177744 -1.00195 0)
(0.177744 -1.03018 0)
(0.177744 -1.0584 0)
(0.177744 -1.08662 0)
(0.177744 -1.11485 0)
(0.177744 -1.14307 0)
(0.177744 -1.1713 0)
(0.177744 -1.19952 0)
(0.177744 -1.22774 0)
(0.177744 -1.25597 0)
(0.177744 -1.28419 0)
(0.177744 -1.31242 0)
(0.177744 -1.34064 0)
(0.177744 -1.36886 0)
(0.177744 -1.39709 0)
(0.21 -0.014112 0)
(0.21 -0.042336 0)
(0.21 -0.07056 0)
(0.21 -0.098784 0)
(0.21 -0.127008 0)
(0.21 -0.155232 0)
(0.21 -0.183456 0)
(0.21 -0.21168 0)
(0.21 -0.239904 0)
(0.21 -0.268128 0)
(0.21 -0.296352 0)
(0.21 -0.324576 0)
(0.21 -0.3528 0)
(0.21 -0.381024 0)
(0.21 -0.409248 0)
(0.21 -0.437472 0)
(0.21 -0.465696 0)
(0.21 -0.49392 0)
(0.21 -0.522144 0)
(0.21 -0.550368 0)
(0.21 -0.578592 0)
(0.21 -0.606816 0)
(0.21 -0.63504 0)
(0.21 -0.663264 0)
(0.21 -0.691488 0)
(0.21 -0.719712 0)
(0.21 -0.747936 0)
(0.21 -0.77616 0)
(0.21 -0.804384 0)
(0.21 -0.832608 0)
(0.21 -0.860832 0)
(0.21 -0.889056 0)
(0.21 -0.91728 0)
(0.21 -0.945504 0)
(0.21 -0.973728 0)
(0.21 -1.00195 0)
(0.21 -1.03018 0)
(0.21 -1.0584 0)
(0.21 -1.08662 0)
(0.21 -1.11485 0)
(0.21 -1.14307 0)
(0.21 -1.1713 0)
(0.21 -1.19952 0)
(0.21 -1.22774 0)
(0.21 -1.25597 0)
(0.21 -1.28419 0)
(0.21 -1.31242 0)
(0.21 -1.34064 0)
(0.21 -1.36886 0)
(0.21 -1.39709 0)
(0.244944 -0.014112 0)
(0.244944 -0.042336 0)
(0.244944 -0.07056 0)
(0.244944 -0.098784 0)
(0.244944 -0.127008 0)
(0.244944 -0.155232 0)
(0.244944 -0.183456 0)
(0.244944 -0.21168 0)
(0.244944 -0.239904 0)
(0.244944 -0.268128 0)
(0.244944 -0.296352 0)
(0.244944 -0.324576 0)
(0.244944 -0.3528 0)
(0.244944 -0.381024 0)
(0.244944 -0.409248 0)
(0.244944 -0.437472 0)
(0.244944 -0.465696 0)
(0.244944 -0.49392 0)
(0.244944 -0.522144 0)
(0.244944 -0.550368 0)
(0.244944 -0.578592 0)
(0.244944 -0.606816 0)
(0.244944 -0.63504 0)
(0.244944 -0.663264 0)
(0.244944 -0.691488 0)
(0.244944 -0.719712 0)
(0.244944 -0.747936 0)
(0.244944 -0.77616 0)
(0.244944 -0.804384 0)
(0.244944 -0.832608 0)
(0.244944 -0.860832 0)
(0.244944 -0.889056 0)
(0.244944 -0.91728 0)
(0.244944 -0.945504 0)
(0.244944 -0.973728 0)
(0.244944 -1.00195 0)
(0.244944 -1.03018 0)
(0.244944 -1.0584 0)
(0.244944 -1.08662 0)
(0.244944 -1.11485 0)
(0.244944 -1.14307 0)
(0.244944 -1.1713 0)
(0.244944 -1.19952 0)
(0.244944 -1.22774 0)
(0.244944 -1.25597 0)
(0.244944 -1.28419 0)
(0.244944 -1.31242 0)
(0.244944 -1.34064 0)
(0.244944 -1.36886 0)
(0.244944 -1.39709 0)
(0.282576 -0.014112 0)
(0.282576 -0.042336 0)
(0.282576 -0.07056 0)
(0.282576 -0.098784 0)
(0.282576 -0.127008 0)
(0.282576 -0.155232 0)
(0.282576 -0.183456 0)
(0.282576 -0.21168 0)
(0.282576 -0.239904 0)
(0.282576 -0.268128 0)
(0.282576 -0.296352 0)
(0.282576 -0.324576 0)
(0.282576 -0.3528 0)
(0.282576 -0.381024 0)
(0.282576 -0.409248 0)
(0.282576 -0.437472 0)
(0.282576 -0.465696 0)
(0.282576 -0.49392 0)
(0.282576 -0.522144 0)
(0.282576 -0.550368 0)
(0.282576 -0.578592 0)
(0.282576 -0.606816 0)
(0.282576 -0.63504 0)
(0.282576 -0.663264 0)
(0.282576 -0.691488 0)
(0.282576 -0.719712 0)
(0.282576 -0.747936 0)
(0.282576 -0.77616 0)
(0.282576 -0.804384 0)
(0.282576 -0.832608 0)
(0.282576 -0.860832 0)
(0.282576 -0.889056 0)
(0.282576 -0.91728 0)
(0.282576 -0.945504 0)
(0.282576 -0.973728 0)
(0.282576 -1.00195 0)
(0.282576 -1.03018 0)
(0.282576 -1.0584 0)
(0.282576 -1.08662 0)
(0.282576 -1.11485 0)
(0.282576 -1.14307 0)
(0.282576 -1.1713 0)
(0.282576 -1.19952 0)
(0.282576 -1.22774 0)
(0.282576 -1.25597 0)
(0.282576 -1.28419 0)
(0.282576 -1.31242 0)
(0.282576 -1.34064 0)
(0.282576 -1.36886 0)
(0.282576 -1.39709 0)
(0.322896 -0.014112 0)
(0.322896 -0.042336 0)
(0.322896 -0.07056 0)
(0.322896 -0.098784 0)
(0.322896 -0.127008 0)
(0.322896 -0.155232 0)
(0.322896 -0.183456 0)
(0.322896 -0.21168 0)
(0.322896 -0.239904 0)
(0.322896 -0.268128 0)
(0.322896 -0.296352 0)
(0.322896 -0.324576 0)
(0.322896 -0.3528 0)
(0.322896 -0.381024 0)
(0.322896 -0.409248 0)
(0.322896 -0.437472 0)
(0.322896 -0.465696 0)
(0.322896 -0.49392 0)
(0.322896 -0.522144 0)
(0.322896 -0.550368 0)
(0.322896 -0.578592 0)
(0.322896 -0.606816 0)
(0.322896 -0.63504 0)
(0.322896 -0.663264 0)
(0.322896 -0.691488 0)
(0.322896 -0.719712 0)
(0.322896 -0.747936 0)
(0.322896 -0.77616 0)
(0.322896 -0.804384 0)
(0.322896 -0.832608 0)
(0.322896 -0.860832 0)
(0.322896 -0.889056 0)
(0.322896 -0.91728 0)
(0.322896 -0.945504 0)
(0.322896 -0.973728 0)
(0.322896 -1.00195 0)
(0.322896 -1.03018 0)
(0.322896 -1.0584 0)
(0.322896 -1.08662 0)
(0.322896 -1.11485 0)
(0.322896 -1.14307 0)
(0.322896 -1.1713 0)
(0.322896 -1.19952 0)
(0.322896 -1.22774 0)
(0.322896 -1.25597 0)
(0.322896 -1.28419 0)
(0.322896 -1.31242 0)
(0.322896 -1.34064 0)
(0.322896 -1.36886 0)
(0.322896 -1.39709 0)
(0.365904 -0.014112 0)
(0.365904 -0.042336 0)
(0.365904 -0.07056 0)
(0.365904 -0.098784 0)
(0.365904 -0.127008 0)
(0.365904 -0.155232 0)
(0.365904 -0.183456 0)
(0.365904 -0.21168 0)
(0.365904 -0.239904 0)
(0.365904 -0.268128 0)
(0.365904 -0.296352 0)
(0.365904 -0.324576 0)
(0.365904 -0.3528 0)
(0.365904 -0.381024 0)
(0.365904 -0.409248 0)
(0.365904 -0.437472 0)
(0.365904 -0.465696 0)
(0.365904 -0.49392 0)
(0.365904 -0.522144 0)
(0.365904 -0.550368 0)
(0.365904 -0.578592 0)
(0.365904 -0.606816 0)
(0.365904 -0.63504 0)
(0.365904 -0.663264 0)
(0.365904 -0.691488 0)
(0.365904 -0.719712 0)
(0.365904 -0.747936 0)
(0.365904 -0.77616 0)
(0.365904 -0.804384 0)
(0.365904 -0.832608 0)
(0.365904 -0.860832 0)
(0.365904 -0.889056 0)
(0.365904 -0.91728 0)
(0.365904 -0.945504 0)
(0.365904 -0.973728 0)
(0.365904 -1.00195 0)
(0.365904 -1.03018 0)
(0.365904 -1.0584 0)
(0.365904 -1.08662 0)
(0.365904 -1.11485 0)
(0.365904 -1.14307 0)
(0.365904 -1.1713 0)
(0.365904 -1.19952 0)
(0.365904 -1.22774 0)
(0.365904 -1.25597 0)
(0.365904 -1.28419 0)
(0.365904 -1.31242 0)
(0.365904 -1.34064 0)
(0.365904 -1.36886 0)
(0.365904 -1.39709 0)
(0.4116 -0.014112 0)
(0.4116 -0.042336 0)
(0.4116 -0.07056 0)
(0.4116 -0.098784 0)
(0.4116 -0.127008 0)
(0.4116 -0.155232 0)
(0.4116 -0.183456 0)
(0.4116 -0.21168 0)
(0.4116 -0.239904 0)
(0.4116 -0.268128 0)
(0.4116 -0.296352 0)
(0.4116 -0.324576 0)
(0.4116 -0.3528 0)
(0.4116 -0.381024 0)
(0.4116 -0.409248 0)
(0.4116 -0.437472 0)
(0.4116 -0.465696 0)
(0.4116 -0.49392 0)
(0.4116 -0.522144 0)
(0.4116 -0.550368 0)
(0.4116 -0.578592 0)
(0.4116 -0.606816 0)
(0.4116 -0.63504 0)
(0.4116 -0.663264 0)
(0.4116 -0.691488 0)
(0.4116 -0.719712 0)
(0.4116 -0.747936 0)
(0.4116 -0.77616 0)
(0.4116 -0.804384 0)
(0.4116 -0.832608 0)
(0.4116 -0.860832 0)
(0.4116 -0.889056 0)
(0.4116 -0.91728 0)
(0.4116 -0.945504 0)
(0.4116 -0.973728 0)
(0.4116 -1.00195 0)
(0.4116 -1.03018 0)
(0.4116 -1.0584 0)
(0.4116 -1.08662 0)
(0.4116 -1.11485 0)
(0.4116 -1.14307 0)
(0.4116 -1.1713 0)
(0.4116 -1.19952 0)
(0.4116 -1.22774 0)
(0.4116 -1.25597 0)
(0.4116 -1.28419 0)
(0.4116 -1.31242 0)
(0.4116 -1.34064 0)
(0.4116 -1.36886 0)
(0.4116 -1.39709 0)
(0.459984 -0.014112 0)
(0.459984 -0.042336 0)
(0.459984 -0.07056 0)
(0.459984 -0.098784 0)
(0.459984 -0.127008 0)
(0.459984 -0.155232 0)
(0.459984 -0.183456 0)
(0.459984 -0.21168 0)
(0.459984 -0.239904 0)
(0.459984 -0.268128 0)
(0.459984 -0.296352 0)
(0.459984 -0.324576 0)
(0.459984 -0.3528 0)
(0.459984 -0.381024 0)
(0.459984 -0.409248 0)
(0.459984 -0.437472 0)
(0.459984 -0.465696 0)
(0.459984 -0.49392 0)
(0.459984 -0.522144 0)
(0.459984 -0.550368 0)
(0.459984 -0.578592 0)
(0.459984 -0.606816 0)
(0.459984 -0.63504 0)
(0.459984 -0.663264 0)
(0.459984 -0.691488 0)
(0.459984 -0.719712 0)
(0.459984 -0.747936 0)
(0.459984 -0.77616 0)
(0.459984 -0.804384 0)
(0.459984 -0.832608 0)
(0.459984 -0.860832 0)
(0.459984 -0.889056 0)
(0.459984 -0.91728 0)
(0.459984 -0.945504 0)
(0.459984 -0.973728 0)
(0.459984 -1.00195 0)
(0.459984 -1.03018 0)
(0.459984 -1.0584 0)
(0.459984 -1.08662 0)
(0.459984 -1.11485 0)
(0.459984 -1.14307 0)
(0.459984 -1.1713 0)
(0.459984 -1.19952 0)
(0.459984 -1.22774 0)
(0.459984 -1.25597 0)
(0.459984 -1.28419 0)
(0.459984 -1.31242 0)
(0.459984 -1.34064 0)
(0.459984 -1.36886 0)
(0.459984 -1.39709 0)
(0.511056 -0.014112 0)
(0.511056 -0.042336 0)
(0.511056 -0.07056 0)
(0.511056 -0.098784 0)
(0.511056 -0.127008 0)
(0.511056 -0.155232 0)
(0.511056 -0.183456 0)
(0.511056 -0.21168 0)
(0.511056 -0.239904 0)
(0.511056 -0.268128 0)
(0.511056 -0.296352 0)
(0.511056 -0.324576 0)
(0.511056 -0.3528 0)
(0.511056 -0.381024 0)
(0.511056 -0.409248 0)
(0.511056 -0.437472 0)
(0.511056 -0.465696 0)
(0.511056 -0.49392 0)
(0.511056 -0.522144 0)
(0.511056 -0.550368 0)
(0.511056 -0.578592 0)
(0.511056 -0.606816 0)
(0.511056 -0.63504 0)
(0.511056 -0.663264 0)
(0.511056 -0.691488 0)
(0.511056 -0.719712 0)
(0.511056 -0.747936 0)
(0.511056 -0.77616 0)
(0.511056 -0.804384 0)
(0.511056 -0.832608 0)
(0.511056 -0.860832 0)
(0.511056 -0.889056 0)
(0.511056 -0.91728 0)
(0.511056 -0.945504 0)
(0.511056 -0.973728 0)
(0.511056 -1.00195 0)
(0.511056 -1.03018 0)
(0.511056 -1.0584 0)
(0.511056 -1.08662 0)
(0.511056 -1.11485 0)
(0.511056 -1.14307 0)
(0.511056 -1.1713 0)
(0.511056 -1.19952 0)
(0.511056 -1.22774 0)
(0.511056 -1.25597 0)
(0.511056 -1.28419 0)
(0.511056 -1.31242 0)
(0.511056 -1.34064 0)
(0.511056 -1.36886 0)
(0.511056 -1.39709 0)
(0.564816 -0.014112 0)
(0.564816 -0.042336 0)
(0.564816 -0.07056 0)
(0.564816 -0.098784 0)
(0.564816 -0.127008 0)
(0.564816 -0.155232 0)
(0.564816 -0.183456 0)
(0.564816 -0.21168 0)
(0.564816 -0.239904 0)
(0.564816 -0.268128 0)
(0.564816 -0.296352 0)
(0.564816 -0.324576 0)
(0.564816 -0.3528 0)
(0.564816 -0.381024 0)
(0.564816 -0.409248 0)
(0.564816 -0.437472 0)
(0.564816 -0.465696 0)
(0.564816 -0.49392 0)
(0.564816 -0.522144 0)
(0.564816 -0.550368 0)
(0.564816 -0.578592 0)
(0.564816 -0.606816 0)
(0.564816 -0.63504 0)
(0.564816 -0.663264 0)
(0.564816 -0.691488 0)
(0.564816 -0.719712 0)
(0.564816 -0.747936 0)
(0.564816 -0.77616 0)
(0.564816 -0.804384 0)
(0.564816 -0.832608 0)
(0.564816 -0.860832 0)
(0.564816 -0.889056 0)
(0.564816 -0.91728 0)
(0.564816 -0.945504 0)
(0.564816 -0.973728 0)
(0.564816 -1.00195 0)
(0.564816 -1.03018 0)
(0.564816 -1.0584 0)
(0.564816 -1.08662 0)
(0.564816 -1.11485 0)
(0.564816 -1.14307 0)
(0.564816 -1.1713 0)
(0.564816 -1.19952 0)
(0.564816 -1.22774 0)
(0.564816 -1.25597 0)
(0.564816 -1.28419 0)
(0.564816 -1.31242 0)
(0.564816 -1.34064 0)
(0.564816 -1.36886 0)
(0.564816 -1.39709 0)
(0.621264 -0.014112 0)
(0.621264 -0.042336 0)
(0.621264 -0.07056 0)
(0.621264 -0.098784 0)
(0.621264 -0.127008 0)
(0.621264 -0.155232 0)
(0.621264 -0.183456 0)
(0.621264 -0.21168 0)
(0.621264 -0.239904 0)
(0.621264 -0.268128 0)
(0.621264 -0.296352 0)
(0.621264 -0.324576 0)
(0.621264 -0.3528 0)
(0.621264 -0.381024 0)
(0.621264 -0.409248 0)
(0.621264 -0.437472 0)
(0.621264 -0.465696 0)
(0.621264 -0.49392 0)
(0.621264 -0.522144 0)
(0.621264 -0.550368 0)
(0.621264 -0.578592 0)
(0.621264 -0.606816 0)
(0.621264 -0.63504 0)
(0.621264 -0.663264 0)
(0.621264 -0.691488 0)
(0.621264 -0.719712 0)
(0.621264 -0.747936 0)
(0.621264 -0.77616 0)
(0.621264 -0.804384 0)
(0.621264 -0.832608 0)
(0.621264 -0.860832 0)
(0.621264 -0.889056 0)
(0.621264 -0.91728 0)
(0.621264 -0.945504 0)
(0.621264 -0.973728 0)
(0.621264 -1.00195 0)
(0.621264 -1.03018 0)
(0.621264 -1.0584 0)
(0.621264 -1.08662 0)
(0.621264 -1.11485 0)
(0.621264 -1.14307 0)
(0.621264 -1.1713 0)
(0.621264 -1.19952 0)
(0.621264 -1.22774 0)
(0.621264 -1.25597 0)
(0.621264 -1.28419 0)
(0.621264 -1.31242 0)
(0.621264 -1.34064 0)
(0.621264 -1.36886 0)
(0.621264 -1.39709 0)
(0.6804 -0.014112 0)
(0.6804 -0.042336 0)
(0.6804 -0.07056 0)
(0.6804 -0.098784 0)
(0.6804 -0.127008 0)
(0.6804 -0.155232 0)
(0.6804 -0.183456 0)
(0.6804 -0.21168 0)
(0.6804 -0.239904 0)
(0.6804 -0.268128 0)
(0.6804 -0.296352 0)
(0.6804 -0.324576 0)
(0.6804 -0.3528 0)
(0.6804 -0.381024 0)
(0.6804 -0.409248 0)
(0.6804 -0.437472 0)
(0.6804 -0.465696 0)
(0.6804 -0.49392 0)
(0.6804 -0.522144 0)
(0.6804 -0.550368 0)
(0.6804 -0.578592 0)
(0.6804 -0.606816 0)
(0.6804 -0.63504 0)
(0.6804 -0.663264 0)
(0.6804 -0.691488 0)
(0.6804 -0.719712 0)
(0.6804 -0.747936 0)
(0.6804 -0.77616 0)
(0.6804 -0.804384 0)
(0.6804 -0.832608 0)
(0.6804 -0.860832 0)
(0.6804 -0.889056 0)
(0.6804 -0.91728 0)
(0.6804 -0.945504 0)
(0.6804 -0.973728 0)
(0.6804 -1.00195 0)
(0.6804 -1.03018 0)
(0.6804 -1.0584 0)
(0.6804 -1.08662 0)
(0.6804 -1.11485 0)
(0.6804 -1.14307 0)
(0.6804 -1.1713 0)
(0.6804 -1.19952 0)
(0.6804 -1.22774 0)
(0.6804 -1.25597 0)
(0.6804 -1.28419 0)
(0.6804 -1.31242 0)
(0.6804 -1.34064 0)
(0.6804 -1.36886 0)
(0.6804 -1.39709 0)
(0.742224 -0.014112 0)
(0.742224 -0.042336 0)
(0.742224 -0.07056 0)
(0.742224 -0.098784 0)
(0.742224 -0.127008 0)
(0.742224 -0.155232 0)
(0.742224 -0.183456 0)
(0.742224 -0.21168 0)
(0.742224 -0.239904 0)
(0.742224 -0.268128 0)
(0.742224 -0.296352 0)
(0.742224 -0.324576 0)
(0.742224 -0.3528 0)
(0.742224 -0.381024 0)
(0.742224 -0.409248 0)
(0.742224 -0.437472 0)
(0.742224 -0.465696 0)
(0.742224 -0.49392 0)
(0.742224 -0.522144 0)
(0.742224 -0.550368 0)
(0.742224 -0.578592 0)
(0.742224 -0.606816 0)
(0.742224 -0.63504 0)
(0.742224 -0.663264 0)
(0.742224 -0.691488 0)
(0.742224 -0.719712 0)
(0.742224 -0.747936 0)
(0.742224 -0.77616 0)
(0.742224 -0.804384 0)
(0.742224 -0.832608 0)
(0.742224 -0.860832 0)
(0.742224 -0.889056 0)
(0.742224 -0.91728 0)
(0.742224 -0.945504 0)
(0.742224 -0.973728 0)
(0.742224 -1.00195 0)
(0.742224 -1.03018 0)
(0.742224 -1.0584 0)
(0.742224 -1.08662 0)
(0.742224 -1.11485 0)
(0.742224 -1.14307 0)
(0.742224 -1.1713 0)
(0.742224 -1.19952 0)
(0.742224 -1.22774 0)
(0.742224 -1.25597 0)
(0.742224 -1.28419 0)
(0.742224 -1.31242 0)
(0.742224 -1.34064 0)
(0.742224 -1.36886 0)
(0.742224 -1.39709 0)
(0.806736 -0.014112 0)
(0.806736 -0.042336 0)
(0.806736 -0.07056 0)
(0.806736 -0.098784 0)
(0.806736 -0.127008 0)
(0.806736 -0.155232 0)
(0.806736 -0.183456 0)
(0.806736 -0.21168 0)
(0.806736 -0.239904 0)
(0.806736 -0.268128 0)
(0.806736 -0.296352 0)
(0.806736 -0.324576 0)
(0.806736 -0.3528 0)
(0.806736 -0.381024 0)
(0.806736 -0.409248 0)
(0.806736 -0.437472 0)
(0.806736 -0.465696 0)
(0.806736 -0.49392 0)
(0.806736 -0.522144 0)
(0.806736 -0.550368 0)
(0.806736 -0.578592 0)
(0.806736 -0.606816 0)
(0.806736 -0.63504 0)
(0.806736 -0.663264 0)
(0.806736 -0.691488 0)
(0.806736 -0.719712 0)
(0.806736 -0.747936 0)
(0.806736 -0.77616 0)
(0.806736 -0.804384 0)
(0.806736 -0.832608 0)
(0.806736 -0.860832 0)
(0.806736 -0.889056 0)
(0.806736 -0.91728 0)
(0.806736 -0.945504 0)
(0.806736 -0.973728 0)
(0.806736 -1.00195 0)
(0.806736 -1.03018 0)
(0.806736 -1.0584 0)
(0.806736 -1.08662 0)
(0.806736 -1.11485 0)
(0.806736 -1.14307 0)
(0.806736 -1.1713 0)
(0.806736 -1.19952 0)
(0.806736 -1.22774 0)
(0.806736 -1.25597 0)
(0.806736 -1.28419 0)
(0.806736 -1.31242 0)
(0.806736 -1.34064 0)
(0.806736 -1.36886 0)
(0.806736 -1.39709 0)
(0.873936 -0.014112 0)
(0.873936 -0.042336 0)
(0.873936 -0.07056 0)
(0.873936 -0.098784 0)
(0.873936 -0.127008 0)
(0.873936 -0.155232 0)
(0.873936 -0.183456 0)
(0.873936 -0.21168 0)
(0.873936 -0.239904 0)
(0.873936 -0.268128 0)
(0.873936 -0.296352 0)
(0.873936 -0.324576 0)
(0.873936 -0.3528 0)
(0.873936 -0.381024 0)
(0.873936 -0.409248 0)
(0.873936 -0.437472 0)
(0.873936 -0.465696 0)
(0.873936 -0.49392 0)
(0.873936 -0.522144 0)
(0.873936 -0.550368 0)
(0.873936 -0.578592 0)
(0.873936 -0.606816 0)
(0.873936 -0.63504 0)
(0.873936 -0.663264 0)
(0.873936 -0.691488 0)
(0.873936 -0.719712 0)
(0.873936 -0.747936 0)
(0.873936 -0.77616 0)
(0.873936 -0.804384 0)
(0.873936 -0.832608 0)
(0.873936 -0.860832 0)
(0.873936 -0.889056 0)
(0.873936 -0.91728 0)
(0.873936 -0.945504 0)
(0.873936 -0.973728 0)
(0.873936 -1.00195 0)
(0.873936 -1.03018 0)
(0.873936 -1.0584 0)
(0.873936 -1.08662 0)
(0.873936 -1.11485 0)
(0.873936 -1.14307 0)
(0.873936 -1.1713 0)
(0.873936 -1.19952 0)
(0.873936 -1.22774 0)
(0.873936 -1.25597 0)
(0.873936 -1.28419 0)
(0.873936 -1.31242 0)
(0.873936 -1.34064 0)
(0.873936 -1.36886 0)
(0.873936 -1.39709 0)
(0.943824 -0.014112 0)
(0.943824 -0.042336 0)
(0.943824 -0.07056 0)
(0.943824 -0.098784 0)
(0.943824 -0.127008 0)
(0.943824 -0.155232 0)
(0.943824 -0.183456 0)
(0.943824 -0.21168 0)
(0.943824 -0.239904 0)
(0.943824 -0.268128 0)
(0.943824 -0.296352 0)
(0.943824 -0.324576 0)
(0.943824 -0.3528 0)
(0.943824 -0.381024 0)
(0.943824 -0.409248 0)
(0.943824 -0.437472 0)
(0.943824 -0.465696 0)
(0.943824 -0.49392 0)
(0.943824 -0.522144 0)
(0.943824 -0.550368 0)
(0.943824 -0.578592 0)