/*--------------------------------*- C++ -*----------------------------------*\
| =========                 |                                                 |
| \\      /  F ield         | OpenFOAM: The Open Source CFD Toolbox           |
|  \\    /   O peration     | Version:  v2006                                 |
|   \\  /    A nd           | Website:  www.openfoam.com                      |
|    \\/     M anipulation  |                                                 |
\*---------------------------------------------------------------------------*/
FoamFile
{
    version     2.0;
    format      ascii;
    class       surfaceScalarField;
    location    "5.6";
    object      alphaPhi0.water;
}
// * * * * * * * * * * * * * * * * * * * * * * * * * * * * * * * * * * * * * //

dimensions      [0 3 -1 0 0 0 0];
oriented        oriented;


internalField   nonuniform List<scalar> 
299200
(
-0.000307427
0.000307427
-0.000522257
0.00021483
-0.000735308
0.000213051
-0.000952417
0.000217109
-0.00116916
0.000216744
-0.00138406
0.000214903
-0.00159722
0.000213156
-0.00180944
0.000212217
-0.00202194
0.000212499
-0.00223576
0.000213825
-0.00245187
0.000216106
-0.00267111
0.000219248
-0.00289429
0.000223178
-0.00312209
0.000227803
-0.00335513
0.000233032
-0.0035939
0.000238776
-0.00383884
0.00024494
-0.00409027
0.000251426
-0.00434842
0.000258151
-0.00461346
0.000265044
-0.00488552
0.000272056
-0.00516467
0.000279154
-0.00545099
0.000286317
-0.00574452
0.000293533
-0.00604534
0.000300815
-0.00635355
0.000308209
-0.00666931
0.000315766
-0.00699275
0.000323434
-0.00732371
0.000330959
-0.00766168
0.000337971
-0.00800603
0.00034435
-0.0083567
0.000350666
-0.00871491
0.000358218
-0.0090833
0.000368388
-0.00946499
0.000381685
-0.00986226
0.000397279
-0.0102757
0.00041346
-0.0107042
0.000428507
-0.0111451
0.0004409
-0.0115937
0.000448566
-0.0120419
0.000448175
-0.0124778
0.000435943
-0.0128879
0.000410108
-0.0132613
0.000373407
-0.0135948
0.000333435
-0.013895
0.000300184
-0.0141772
0.000282215
-0.0144609
0.000283734
-0.0147648
0.000303905
-0.015103
0.0003382
-0.0154836
0.000380611
-0.0159091
0.000425468
-0.0163774
0.00046834
-0.0168837
0.000506246
-0.0174212
0.000537521
-0.0179828
0.000561562
-0.0185613
0.000578558
-0.0191505
0.000589228
-0.0197451
0.00059459
-0.0203409
0.00059578
-0.0209348
0.000593917
-0.0215249
0.000590025
-0.0221098
0.000584981
-0.0226893
0.000579501
-0.0232635
0.000574137
-0.0238328
0.000569293
-0.024398
0.000565247
-0.0249602
0.000562166
-0.0255203
0.000560138
-0.0260795
0.000559183
-0.0266388
0.00055928
-0.0271992
0.000560374
-0.0277615
0.000562393
-0.0283268
0.000565261
-0.0288957
0.000568897
-0.0294689
0.000573229
-0.0300471
0.000578192
-0.0306309
0.000583732
-0.0312207
0.000589804
-0.031817
0.000596379
-0.0324205
0.000603437
-0.0330314
0.000610973
-0.0336504
0.000618986
-0.0342779
0.000627472
-0.0349143
0.0006364
-0.03556
0.000645719
-0.0362154
0.000655379
-0.0368808
0.000665394
-0.0375567
0.000675902
-0.0382439
0.000687157
-0.0389433
0.000699402
-0.0396559
0.000712628
-0.0403822
0.000726344
-0.0411218
0.000739545
-0.0418728
0.000751052
-0.042633
0.000760166
-0.0434004
0.000767366
-0.044175
0.000774644
-0.0449602
0.000785151
-0.0457623
0.000802103
-0.0465895
0.000827282
-0.0474493
0.000859802
-0.0483452
0.000895813
-0.0492744
0.00092923
-0.0502279
0.000953537
-0.0511919
0.000963985
-0.0521482
0.000956284
-0.0530786
0.000930413
-0.0539682
0.000889625
-0.0548071
0.000838891
-0.0555908
0.000783649
-0.0563196
0.000728838
-0.0569979
0.00067826
-0.0576322
0.000634332
-0.0582304
0.000598157
-0.0588001
0.000569792
-0.0593488
0.000548607
-0.0598824
0.000533607
-0.060406
0.000523686
-0.0609238
0.000517792
-0.0614388
0.000515001
-0.0619534
0.00051455
-0.0624692
0.000515835
-0.0629876
0.000518388
-0.0635095
0.000521848
-0.0640354
0.000525932
-0.0645658
0.000530423
-0.065101
0.000535153
-0.065641
0.000540001
-0.0661858
0.000544878
-0.0667356
0.000549726
-0.0672901
0.000554509
-0.0678493
0.000559209
-0.0684131
0.000563809
-0.0689814
0.000568287
-0.069554
0.000572608
-0.0701307
0.000576717
-0.0707113
0.000580546
-0.0712953
0.000584014
-0.0718823
0.00058704
-0.0724719
0.000589542
-0.0730633
0.000591452
-0.073656
0.000592715
-0.0742493
0.000593296
-0.0748425
0.000593177
-0.0754349
0.000592358
-0.0760257
0.000590851
-0.0766144
0.000588667
-0.0772002
0.000585821
-0.0777825
0.000582325
-0.0783607
0.000578193
-0.0789342
0.00057344
-0.0795022
0.000568085
-0.0800644
0.000562141
-0.08062
0.000555612
-0.0811685
0.000548494
-0.0817093
0.000540772
-0.0822417
0.000532426
-0.0827651
0.000523444
-0.0832789
0.00051382
-0.0837825
0.00050357
-0.0842753
0.000492738
-0.0847567
0.000481405
-0.0852264
0.000469694
-0.0856841
0.000457743
-0.0861298
0.000445676
-0.0865633
0.000433572
-0.0869848
0.00042143
-0.0873939
0.000409155
-0.0877905
0.000396545
-0.0881738
0.000383315
-0.0885429
0.000369149
-0.0888967
0.000353767
-0.0892337
0.000337002
-0.0895526
0.000318859
-0.0898521
0.00029955
-0.0901316
0.000279487
-0.0903908
0.00025923
-0.0906302
0.000239397
-0.0908508
0.000220571
-0.091054
0.000203216
-0.0912416
0.000187627
-0.0914155
0.000173908
-0.0915775
0.000161989
-0.0917292
0.000151662
-0.0918718
0.000142617
-0.0920063
0.00013449
-0.0921332
0.000126907
-0.0922527
0.000119502
-0.0923646
0.000111928
-0.0924685
0.000103872
-0.0925636
9.51013e-05
-0.0926491
8.54644e-05
-0.0927237
7.4586e-05
-0.0927859
6.22385e-05
-0.0928345
4.85607e-05
-0.0928679
3.34619e-05
-0.092885
1.71203e-05
-0.0928851
3.92747e-08
-0.0928691
-1.5974e-05
-0.0928371
-3.20102e-05
-0.0927891
-4.79952e-05
-0.0927251
-6.40154e-05
-0.0926451
-8.00184e-05
-0.0925492
-9.58974e-05
-0.0924376
-0.000111534
-0.0923108
-0.000126845
-0.0921689
-0.000141856
-0.0920122
-0.000156761
-0.0918402
-0.000171943
-0.0916523
-0.000187892
-0.0914473
-0.000205038
-0.0912237
-0.000223564
-0.0909804
-0.000243295
-0.0907167
-0.000263736
-0.0904325
-0.000284238
-0.0901283
-0.000304212
-0.089805
-0.000323271
-0.0894637
-0.000341253
-0.0891056
-0.000358152
-0.0887316
-0.000374024
-0.0883426
-0.000388925
-0.0879397
-0.000402902
-0.0875237
-0.000415994
-0.0870955
-0.00042824
-0.0866558
-0.000439681
-0.0862055
-0.000450352
-0.0857452
-0.000460281
-0.0852757
-0.000469491
-0.0847977
-0.000478
-0.0843119
-0.000485822
-0.0838189
-0.000492969
-0.0833195
-0.000499451
-0.0828142
-0.000505278
-0.0823037
-0.000510461
-0.0817887
-0.000515015
-0.0812697
-0.000518952
-0.0807475
-0.000522282
-0.0802225
-0.000525004
-0.0796954
-0.000527105
-0.0791668
-0.000528567
-0.0786374
-0.000529384
-0.0781078
-0.000529582
-0.0775786
-0.000529233
-0.0770501
-0.000528442
-0.0765228
-0.000527298
-0.075997
-0.000525807
-0.0754732
-0.000523849
-0.074952
-0.000521204
-0.0744343
-0.000517672
-0.0739211
-0.000513239
-0.0734129
-0.000508198
-0.0729098
-0.000503121
-0.0724111
-0.000498637
-0.0719161
-0.000495069
-0.071424
-0.000492089
-0.0709354
-0.000488592
-0.0704525
-0.00048291
-0.0699791
-0.000473406
-0.0695198
-0.000459278
-0.0690784
-0.000441336
-0.068656
-0.000422407
-0.0682489
-0.000407126
-0.067848
-0.000400875
-0.0674401
-0.000407951
-0.0670106
-0.00042953
-0.066548
-0.000462567
-0.0660473
-0.000500646
-0.0655108
-0.000536582
-0.0649456
-0.00056511
-0.0643615
-0.000584138
-0.0637671
-0.000594425
-0.0631689
-0.000598149
-0.0625713
-0.000597596
-0.0619768
-0.000594528
-0.0613867
-0.000590083
-0.0608018
-0.00058493
-0.0602224
-0.000579437
-0.0596486
-0.000573803
-0.0590804
-0.000568131
-0.058518
-0.000562474
-0.0579611
-0.000556852
-0.0574098
-0.000551271
-0.0568641
-0.000545729
-0.0563239
-0.000540222
-0.0557891
-0.000534744
-0.0552598
-0.00052929
-0.054736
-0.000523855
-0.0542176
-0.000518437
-0.0537045
-0.000513034
-0.0531969
-0.000507649
-0.0526946
-0.000502284
-0.0521976
-0.000496944
-0.051706
-0.000491635
-0.0512196
-0.000486365
-0.0507385
-0.000481142
-0.0502625
-0.000475975
-0.0497917
-0.000470871
-0.0493258
-0.000465839
-0.0488649
-0.000460887
-0.0484089
-0.000456022
-0.0479577
-0.000451251
-0.0475111
-0.000446581
-0.0470691
-0.000442019
-0.0466315
-0.000437569
-0.0461983
-0.000433237
-0.0457692
-0.000429027
-0.0453443
-0.000424943
-0.0449233
-0.000420988
-0.0445061
-0.000417164
-0.0440927
-0.000413475
-0.0436827
-0.000409924
-0.0432762
-0.000406513
-0.042873
-0.000403246
-0.0424728
-0.000400126
-0.0420757
-0.000397156
-0.0416813
-0.000394339
-0.0412897
-0.000391676
-0.0409005
-0.000389164
-0.0405137
-0.000386804
-0.0401291
-0.000384592
-0.0397466
-0.000382526
-0.039366
-0.000380603
-0.0389872
-0.000378822
-0.03861
-0.00037718
-0.0382343
-0.000375673
-0.03786
-0.000374296
-0.037487
-0.000373042
-0.0371151
-0.000371901
-0.0367442
-0.000370863
-0.0363743
-0.000369912
-0.0360053
-0.000369032
-0.0356371
-0.000368206
-0.0352696
-0.00036742
-0.034903
-0.00036667
-0.034537
-0.000365965
-0.0341717
-0.000365328
-0.0338069
-0.000364788
-0.0334425
-0.000364371
-0.0330784
-0.000364071
-0.0327146
-0.000363833
-0.0323511
-0.000363538
-0.0319881
-0.000363018
-0.031626
-0.000362095
-0.0312653
-0.000360647
-0.0309066
-0.000358695
-0.0305501
-0.00035647
-0.0301957
-0.000354461
-0.0298423
-0.00035342
-0.029488
-0.000354287
-0.0291299
-0.000358031
-0.0287646
-0.000365389
-0.028388
-0.000376557
-0.027997
-0.000390957
-0.0275898
-0.00040726
-0.0271661
-0.000423708
-0.0267275
-0.000438605
-0.0262767
-0.000450819
-0.0258167
-0.000459914
-0.0253506
-0.000466148
-0.0248804
-0.00047023
-0.0244074
-0.000472955
-0.0239325
-0.000474886
-0.0234563
-0.000476189
-0.0229797
-0.000476673
-0.0225037
-0.000476
-0.0220297
-0.000473947
-0.0215591
-0.000470576
-0.0210929
-0.000466207
-0.0206317
-0.000461255
-0.0201756
-0.000456042
-0.0197249
-0.000450715
-0.0192796
-0.000445279
-0.0188399
-0.000439691
-0.018406
-0.000433915
-0.0179781
-0.000427942
-0.0175563
-0.000421776
-0.0171409
-0.000415426
-0.016732
-0.000408897
-0.0163298
-0.000402198
-0.0159345
-0.000395339
-0.0155461
-0.00038833
-0.0151649
-0.00038118
-0.014791
-0.000373903
-0.0144245
-0.000366509
-0.0140655
-0.000359012
-0.0137141
-0.000351424
-0.0133703
-0.000343758
-0.0130343
-0.000336026
-0.0127061
-0.00032824
-0.0123857
-0.000320408
-0.0120731
-0.000312539
-0.0117685
-0.000304643
-0.0114718
-0.000296726
-0.011183
-0.000288798
-0.0109021
-0.000280866
-0.0106292
-0.00027294
-0.0103641
-0.00026503
-0.010107
-0.000257147
-0.00985767
-0.000249303
-0.00961616
-0.00024151
-0.00938238
-0.00023378
-0.00915626
-0.000226124
-0.0089377
-0.000218554
-0.00872662
-0.000211082
-0.0085229
-0.00020372
-0.00832642
-0.000196477
-0.00813706
-0.000189366
-0.00795466
-0.000182394
-0.00777909
-0.000175573
-0.00761018
-0.000168911
-0.00744777
-0.000162415
-0.00729167
-0.000156093
-0.00714172
-0.000149952
-0.00699772
-0.000143998
-0.00685949
-0.000138234
-0.00672682
-0.000132667
-0.00659952
-0.000127298
-0.00647739
-0.000122131
-0.00636022
-0.000117169
-0.00624781
-0.000112411
-0.00613995
-0.000107859
-0.00603644
-0.000103511
-0.00593707
-9.93686e-05
-0.00584164
-9.54295e-05
-0.00574995
-9.16936e-05
-0.00566179
-8.81607e-05
-0.00557696
-8.4831e-05
-0.00549525
-8.17046e-05
-0.00541647
-7.87809e-05
-0.00534042
-7.60576e-05
-0.00526689
-7.35297e-05
-0.0051957
-7.11893e-05
-0.00512667
-6.90249e-05
-0.00505965
-6.70224e-05
-0.00499448
-6.51659e-05
-0.00493104
-6.34389e-05
-0.00486922
-6.18265e-05
-0.0048089
-6.03159e-05
-0.00475
-5.88982e-05
-0.00469244
-5.7568e-05
-0.00463611
-5.63236e-05
-0.00458095
-5.51656e-05
-0.00452685
-5.40963e-05
-0.00447373
-5.31177e-05
-0.0044215
-5.22307e-05
-0.00437007
-5.14347e-05
-0.00431934
-5.07265e-05
-0.00426924
-5.01017e-05
-0.00421968
-4.95547e-05
-0.0041706
-4.90799e-05
-0.00412193
-4.86724e-05
-0.0040736
-4.83285e-05
-0.00402556
-4.80455e-05
-0.00397774
-4.78218e-05
-0.00393008
-4.76562e-05
-0.00388253
-4.75477e-05
-0.00383504
-4.74955e-05
-0.00378754
-4.74992e-05
-0.00373998
-4.75589e-05
-0.0036923
-4.76763e-05
-0.00364445
-4.78547e-05
-0.00359635
-4.80995e-05
-0.00354793
-4.84182e-05
-0.00349911
-4.88199e-05
-0.0034498
-4.93154e-05
-0.00339988
-4.99167e-05
-0.00334924
-5.06372e-05
-0.00329775
-5.14923e-05
-0.00324525
-5.24998e-05
-0.00319157
-5.368e-05
-0.00313651
-5.50553e-05
-0.00307987
-5.66482e-05
-0.00302139
-5.84794e-05
-0.00296082
-6.0565e-05
-0.00289791
-6.29146e-05
-0.00283238
-6.553e-05
-0.00276397
-6.84046e-05
-0.00269245
-7.15242e-05
-0.00261758
-7.48695e-05
-0.00253916
-7.84216e-05
-0.00245699
-8.21704e-05
-0.00237086
-8.61256e-05
-0.00228053
-9.03285e-05
-0.00218567
-9.48635e-05
-0.00208582
-9.9848e-05
-0.00198046
-0.000105359
-0.00186916
-0.000111306
-0.00175175
-0.000117402
-0.00162843
-0.000123321
-0.00149947
-0.00012896
-0.00136466
-0.000134815
-0.00122199
-0.000142665
-0.00106709
-0.000154903
-0.000893698
-0.000173392
-0.000689582
-0.000204116
-0.000428142
-0.00026144
-9.77542e-05
-0.000330388
0.000171602
-0.000269356
0.000171602
-0.000873355
0.00118078
-0.00168574
0.00102722
-0.00253398
0.00106129
-0.00338587
0.00106899
-0.00423441
0.00106528
-0.00508061
0.00106111
-0.00592446
0.00105701
-0.00676575
0.00105351
-0.0076042
0.00105095
-0.00843967
0.00104929
-0.00927202
0.00104846
-0.0101011
0.00104835
-0.0109268
0.00104888
-0.011749
0.00104997
-0.0125675
0.00105153
-0.0133822
0.00105352
-0.0141932
0.00105589
-0.0150004
0.0010586
-0.0158038
0.00106162
-0.0166037
0.00106491
-0.0174001
0.00106845
-0.0181932
0.00107223
-0.0189831
0.00107621
-0.0197699
0.00108035
-0.0205537
0.0010846
-0.0213343
0.00108888
-0.0221117
0.00109315
-0.0228856
0.00109732
-0.0236558
0.00110118
-0.0244223
0.00110439
-0.0251846
0.00110666
-0.025942
0.00110805
-0.0266928
0.00110908
-0.027435
0.0011106
-0.0281666
0.0011133
-0.028887
0.00111761
-0.0295973
0.00112375
-0.0303008
0.00113199
-0.031002
0.00114215
-0.031706
0.00115254
-0.0324169
0.00115914
-0.0331374
0.00115643
-0.0338672
0.00113984
-0.0346023
0.00110858
-0.0353357
0.00106678
-0.0360577
0.00102224
-0.0367591
0.000983572
-0.0374327
0.00095735
-0.0380753
0.000946492
-0.0386873
0.000950225
-0.0392718
0.000965139
-0.039833
0.000986618
-0.0403748
0.00101011
-0.0409005
0.00103194
-0.0414126
0.00104967
-0.0419131
0.001062
-0.0424031
0.00106862
-0.0428838
0.00106989
-0.0433558
0.00106661
-0.0438198
0.00105978
-0.0442763
0.00105043
-0.0447258
0.00103954
-0.0451688
0.00102794
-0.0456056
0.00101631
-0.0460366
0.00100515
-0.0464622
0.000994839
-0.0468825
0.000985605
-0.0472979
0.000977581
-0.0477086
0.000970818
-0.0481147
0.000965307
-0.0485165
0.000960998
-0.0489139
0.000957818
-0.0493072
0.000955682
-0.0496964
0.000954502
-0.0500817
0.000954193
-0.0504632
0.000954679
-0.0508409
0.000955894
-0.0512149
0.00095778
-0.0515854
0.000960294
-0.0519525
0.000963401
-0.0523161
0.00096708
-0.0526764
0.000971325
-0.0530336
0.000976132
-0.0533876
0.000981489
-0.0537386
0.000987351
-0.0540865
0.000993624
-0.0544313
0.00100017
-0.0547727
0.00100685
-0.0551104
0.00101355
-0.0554434
0.00102023
-0.0557709
0.00102686
-0.0560916
0.00103339
-0.0564049
0.00103957
-0.0567104
0.00104503
-0.0570087
0.00104941
-0.0573012
0.00105261
-0.0575889
0.00105509
-0.0578721
0.00105787
-0.0581492
0.00106229
-0.0584166
0.00106944
-0.0586689
0.00107961
-0.058901
0.00109188
-0.0591094
0.00110424
-0.0592943
0.00111412
-0.0594601
0.00111934
-0.0596159
0.0011198
-0.0597752
0.00111557
-0.0599527
0.00110789
-0.0601618
0.00109878
-0.0604131
0.00109019
-0.060713
0.00108355
-0.0610639
0.00107965
-0.0614643
0.00107866
-0.0619103
0.00108035
-0.0623964
0.0010843
-0.0629167
0.00109002
-0.0634651
0.00109706
-0.0640365
0.00110504
-0.0646265
0.00111367
-0.0652314
0.00112272
-0.0658485
0.00113201
-0.0664753
0.00114138
-0.0671102
0.00115071
-0.0677517
0.00115988
-0.0683986
0.00116879
-0.06905
0.00117733
-0.069705
0.00118539
-0.0703627
0.0011929
-0.0710225
0.0011998
-0.0716837
0.00120605
-0.0723456
0.00121163
-0.0730076
0.00121656
-0.0736693
0.00122085
-0.07433
0.00122452
-0.0749893
0.00122759
-0.0756467
0.00123003
-0.0763018
0.00123182
-0.0769542
0.00123289
-0.0776033
0.0012332
-0.078249
0.00123267
-0.0788907
0.00123123
-0.0795281
0.00122885
-0.0801608
0.00122548
-0.0807886
0.00122109
-0.0814111
0.00121569
-0.082028
0.00120925
-0.082639
0.00120178
-0.0832436
0.00119329
-0.0838415
0.00118378
-0.0844325
0.00117325
-0.085016
0.0011617
-0.0855917
0.00114914
-0.0861591
0.00113556
-0.086718
0.00112096
-0.0872677
0.00110535
-0.087808
0.00108876
-0.0883384
0.00107122
-0.0888588
0.00105284
-0.0893691
0.00103374
-0.0898694
0.0010141
-0.0903599
0.000994102
-0.0908411
0.000973946
-0.0913135
0.000953769
-0.0917774
0.000933618
-0.0922331
0.000913401
-0.0926803
0.000892865
-0.0931183
0.000871604
-0.093546
0.00084909
-0.0939616
0.000824749
-0.0943631
0.000798052
-0.0947484
0.000768608
-0.0951155
0.000736249
-0.0954628
0.000701073
-0.0957892
0.000663441
-0.0960943
0.000623937
-0.096378
0.000583282
-0.0966408
0.000542239
-0.0968831
0.000501522
-0.0971054
0.000461725
-0.0973081
0.000423279
-0.0974913
0.000386442
-0.097655
0.000351305
-0.0977989
0.000317826
-0.0979228
0.000285854
-0.0980263
0.000255165
-0.0981092
0.00022551
-0.0981713
0.000196598
-0.0982125
0.000168151
-0.098233
0.000139931
-0.0982327
0.000111693
-0.0982121
8.32321e-05
-0.0981714
5.44492e-05
-0.0981115
2.55178e-05
-0.0980327
-4.21541e-06
-0.0979358
-3.4633e-05
-0.0978222
-6.50847e-05
-0.0976928
-9.5901e-05
-0.0975487
-0.000126971
-0.0973904
-0.000158284
-0.0972166
-0.000189784
-0.097027
-0.000221629
-0.0968215
-0.000253425
-0.0966005
-0.000285088
-0.0963639
-0.000316555
-0.0961121
-0.00034775
-0.095845
-0.000378576
-0.095563
-0.000408921
-0.0952661
-0.000438672
-0.0949552
-0.000467751
-0.094631
-0.000496147
-0.0942949
-0.000523944
-0.0939486
-0.000551306
-0.0935938
-0.000578437
-0.0932315
-0.000605512
-0.0928627
-0.000632618
-0.0924872
-0.000659725
-0.0921047
-0.000686689
-0.0917147
-0.00071329
-0.0913166
-0.000739288
-0.0909103
-0.000764469
-0.0904957
-0.00078869
-0.0900727
-0.000811883
-0.0896416
-0.000834046
-0.0892023
-0.000855211
-0.0887552
-0.000875417
-0.0883002
-0.000894688
-0.0878375
-0.000913033
-0.0873673
-0.000930449
-0.0868899
-0.000946927
-0.0864054
-0.000962456
-0.0859142
-0.000977028
-0.0854165
-0.000990639
-0.0849127
-0.00100329
-0.084403
-0.001015
-0.0838877
-0.00102578
-0.083367
-0.00103567
-0.0828412
-0.00104473
-0.0823105
-0.00105301
-0.0817749
-0.00106058
-0.0812345
-0.00106751
-0.0806892
-0.00107391
-0.0801387
-0.00107989
-0.0795827
-0.00108555
-0.079021
-0.00109097
-0.0784532
-0.00109615
-0.0778796
-0.00110092
-0.0773004
-0.00110499
-0.0767162
-0.00110805
-0.0761274
-0.00111009
-0.0755333
-0.00111177
-0.0749317
-0.00111483
-0.0743178
-0.00112209
-0.0736839
-0.00113697
-0.0730202
-0.00116234
-0.0723162
-0.00119911
-0.0715631
-0.00124522
-0.0707563
-0.00129539
-0.0698969
-0.00134226
-0.0689919
-0.00137846
-0.0680523
-0.00139888
-0.0670913
-0.0014023
-0.0661221
-0.00139159
-0.0651567
-0.00137253
-0.0642061
-0.00135152
-0.0632808
-0.00133323
-0.0623913
-0.00131906
-0.0615466
-0.00130723
-0.0607528
-0.00129442
-0.0600115
-0.0012779
-0.0593198
-0.00125681
-0.0586718
-0.00123211
-0.0580605
-0.00120576
-0.057479
-0.00117965
-0.0569216
-0.00115498
-0.0563839
-0.00113222
-0.0558627
-0.00111129
-0.0553558
-0.00109186
-0.0548617
-0.00107353
-0.0543795
-0.00105599
-0.0539087
-0.00103897
-0.0534488
-0.00102231
-0.0529998
-0.0010059
-0.0525614
-0.000989692
-0.0521334
-0.000973651
-0.0517159
-0.000957788
-0.0513085
-0.000942125
-0.0509111
-0.000926699
-0.0505234
-0.000911555
-0.0501451
-0.00089674
-0.0497758
-0.000882305
-0.0494151
-0.000868299
-0.0490627
-0.000854772
-0.0487178
-0.000841769
-0.0483801
-0.000829333
-0.048049
-0.0008175
-0.0477238
-0.000806305
-0.047404
-0.000795774
-0.047089
-0.00078593
-0.046778
-0.000776792
-0.0464705
-0.000768371
-0.0461659
-0.000760675
-0.0458634
-0.000753709
-0.0455625
-0.000747474
-0.0452626
-0.000741967
-0.044963
-0.000737182
-0.0446631
-0.000733109
-0.0443624
-0.000729736
-0.0440603
-0.00072705
-0.0437562
-0.000725034
-0.0434497
-0.000723671
-0.0431403
-0.000722942
-0.0428274
-0.000722828
-0.0425106
-0.000723308
-0.0421895
-0.00072436
-0.0418636
-0.000725961
-0.0415327
-0.000728087
-0.0411963
-0.000730716
-0.0408542
-0.000733824
-0.0405059
-0.000737386
-0.0401514
-0.00074138
-0.0397902
-0.000745782
-0.0394221
-0.000750568
-0.039047
-0.000755714
-0.0386647
-0.000761195
-0.0382748
-0.000766986
-0.0378775
-0.000773063
-0.0374724
-0.000779403
-0.0370594
-0.000785982
-0.0366385
-0.000792779
-0.0362096
-0.00079977
-0.0357726
-0.000806935
-0.0353274
-0.000814254
-0.0348739
-0.000821712
-0.034412
-0.000829294
-0.0339417
-0.000836995
-0.0334628
-0.00084481
-0.0329754
-0.000852741
-0.0324794
-0.000860782
-0.0319749
-0.000868921
-0.0314618
-0.000877128
-0.0309403
-0.000885355
-0.0304103
-0.000893537
-0.0298717
-0.000901606
-0.0293243
-0.00090951
-0.0287677
-0.000917238
-0.0282016
-0.000924835
-0.0276256
-0.000932411
-0.02704
-0.000940121
-0.0264453
-0.000948128
-0.025843
-0.000956533
-0.0252358
-0.000965277
-0.0246271
-0.000974043
-0.0240214
-0.000982226
-0.0234235
-0.000988932
-0.0228375
-0.000993251
-0.0222666
-0.000994552
-0.0217126
-0.000992672
-0.0211754
-0.000988
-0.020654
-0.000981326
-0.0201465
-0.00097358
-0.0196512
-0.000965552
-0.0191665
-0.000957669
-0.0186915
-0.000949929
-0.0182256
-0.000942003
-0.0177688
-0.000933471
-0.0173208
-0.000924084
-0.0168808
-0.000913902
-0.0164481
-0.000903243
-0.0160219
-0.000892491
-0.0156012
-0.000881888
-0.0151858
-0.000871465
-0.0147754
-0.000861096
-0.0143701
-0.000850621
-0.0139698
-0.000839924
-0.0135748
-0.000828938
-0.0131851
-0.000817626
-0.012801
-0.000805964
-0.0124224
-0.000793934
-0.0120498
-0.000781539
-0.0116832
-0.000768786
-0.0113229
-0.000755693
-0.0109689
-0.000742277
-0.0106215
-0.000728554
-0.0102809
-0.000714546
-0.00994713
-0.000700273
-0.00962038
-0.000685757
-0.00930079
-0.00067102
-0.00898846
-0.000656084
-0.00868352
-0.00064097
-0.00838606
-0.000625701
-0.00809617
-0.000610296
-0.00781393
-0.000594774
-0.00753942
-0.000579155
-0.00727269
-0.000563455
-0.0070138
-0.000547694
-0.00676277
-0.000531891
-0.00651965
-0.000516066
-0.00628443
-0.000500241
-0.00605714
-0.000484439
-0.00583776
-0.000468684
-0.00562627
-0.000453003
-0.00542263
-0.000437421
-0.00522679
-0.000421966
-0.00503868
-0.000406663
-0.00485822
-0.000391538
-0.00468532
-0.000376617
-0.00451988
-0.000361921
-0.00436177
-0.000347473
-0.00421087
-0.000333295
-0.00406704
-0.000319405
-0.00393013
-0.000305822
-0.00379998
-0.000292563
-0.00367643
-0.000279644
-0.0035593
-0.00026708
-0.00344842
-0.000254883
-0.00334359
-0.000243063
-0.00324462
-0.000231632
-0.00315133
-0.000220595
-0.0030635
-0.000209959
-0.00298094
-0.000199728
-0.00290345
-0.000189905
-0.00283081
-0.000180491
-0.00276284
-0.000171487
-0.00269932
-0.000162891
-0.00264004
-0.000154703
-0.00258482
-0.000146918
-0.00253344
-0.000139536
-0.00248572
-0.000132552
-0.00244147
-0.000125961
-0.00240049
-0.000119759
-0.00236261
-0.000113938
-0.00232765
-0.000108488
-0.00229544
-0.000103397
-0.00226581
-9.86517e-05
-0.0022386
-9.4236e-05
-0.00221363
-9.0133e-05
-0.00219075
-8.63244e-05
-0.00216978
-8.2792e-05
-0.00215058
-7.95175e-05
-0.002133
-7.64832e-05
-0.00211689
-7.36726e-05
-0.00210214
-7.10716e-05
-0.00208864
-6.86683e-05
-0.00207628
-6.64541e-05
-0.00206498
-6.44231e-05
-0.00205464
-6.25716e-05
-0.00204517
-6.08968e-05
-0.00203651
-5.93958e-05
-0.00202854
-5.8064e-05
-0.0020212
-5.6895e-05
-0.0020144
-5.58807e-05
-0.00200806
-5.50118e-05
-0.00200211
-5.42788e-05
-0.00199648
-5.36732e-05
-0.00199112
-5.31878e-05
-0.00198596
-5.2817e-05
-0.00198095
-5.25573e-05
-0.00197604
-5.24066e-05
-0.00197117
-5.23646e-05
-0.0019663
-5.24328e-05
-0.00196136
-5.2615e-05
-0.0019563
-5.29172e-05
-0.00195105
-5.33486e-05
-0.00194554
-5.39213e-05
-0.00193971
-5.4651e-05
-0.00193347
-5.55568e-05
-0.00192673
-5.66621e-05
-0.00191937
-5.79938e-05
-0.00191128
-5.95832e-05
-0.00190231
-6.14652e-05
-0.00189232
-6.3678e-05
-0.00188111
-6.62621e-05
-0.0018685
-6.92589e-05
-0.00185427
-7.27086e-05
-0.00183819
-7.66481e-05
-0.00181999
-8.1108e-05
-0.00179941
-8.61107e-05
-0.00177615
-9.16685e-05
-0.00174989
-9.77842e-05
-0.0017203
-0.000104454
-0.00168705
-0.000111676
-0.00164976
-0.000119456
-0.00160807
-0.000127818
-0.00156159
-0.000136811
-0.00150994
-0.000146516
-0.00145275
-0.000157034
-0.00138967
-0.000168436
-0.00132033
-0.00018065
-0.00124441
-0.000193325
-0.00116212
-0.000205611
-0.00107523
-0.000215845
-0.000988347
-0.000221699
-0.000908935
-0.000222077
-0.000841905
-0.000221933
-0.000774285
-0.000241012
-0.000658228
-0.000320172
-0.000425135
-0.000494533
-6.70437e-05
-0.000688479
0.000243233
-0.000579632
0.000414834
-0.00101344
0.00219422
-0.00198347
0.00199725
-0.00301514
0.00209296
-0.00405356
0.00210741
-0.00508499
0.00209672
-0.00611051
0.00208662
-0.00712976
0.00207626
-0.00814103
0.00206477
-0.00914257
0.0020525
-0.0101328
0.00203956
-0.0111104
0.00202606
-0.0120742
0.00201207
-0.013023
0.00199771
-0.0139561
0.0019831
-0.014873
0.0019684
-0.0157733
0.00195378
-0.0166567
0.00193939
-0.0175235
0.00192539
-0.0183738
0.0019119
-0.0192079
0.00189902
-0.0200263
0.00188678
-0.0208292
0.00187521
-0.0216173
0.00186427
-0.0223908
0.00185388
-0.0231502
0.00184395
-0.0238956
0.00183434
-0.0246273
0.00182483
-0.0253451
0.00181511
-0.0260487
0.00180474
-0.0267376
0.00179333
-0.0274117
0.00178073
-0.0280709
0.00176731
-0.0287158
0.00175398
-0.0293474
0.00174213
-0.0299674
0.00173331
-0.0305787
0.00172889
-0.0311846
0.00172964
-0.0317876
0.00173506
-0.0323882
0.00174271
-0.0329836
0.00174795
-0.0335691
0.00174468
-0.0341399
0.0017272
-0.0346925
0.00169241
-0.0352254
0.00164148
-0.0357383
0.00157975
-0.0362312
0.00151507
-0.036703
0.00145536
-0.037152
0.00140638
-0.0375763
0.00137079
-0.0379744
0.00134829
-0.0383459
0.00133664
-0.0386919
0.00133267
-0.039015
0.00133318
-0.0393185
0.00133544
-0.0396063
0.00133747
-0.0398823
0.00133806
-0.0401503
0.00133662
-0.0404136
0.00133311
-0.0406747
0.00132777
-0.040936
0.00132103
-0.0411989
0.00131339
-0.0414647
0.00130532
-0.041734
0.00129725
-0.0420072
0.0012895
-0.0422844
0.00128234
-0.0425655
0.00127592
-0.0428502
0.00127037
-0.0431384
0.00126571
-0.0434295
0.00126197
-0.0437233
0.00125911
-0.0440194
0.00125711
-0.0443175
0.00125593
-0.0446174
0.00125552
-0.0449187
0.00125585
-0.0452214
0.00125689
-0.0455254
0.00125861
-0.0458305
0.00126099
-0.0461367
0.00126402
-0.0464441
0.00126767
-0.0467526
0.00127194
-0.0470623
0.00127681
-0.0473733
0.00128227
-0.0476855
0.0012883
-0.0479988
0.00129486
-0.0483133
0.00130188
-0.048629
0.00130925
-0.0489457
0.00131687
-0.0492635
0.00132463
-0.0495824
0.00133245
-0.0499025
0.00134036
-0.0502241
0.00134844
-0.0505475
0.00135678
-0.0508734
0.00136546
-0.0512028
0.00137446
-0.0515371
0.00138375
-0.0518778
0.00139332
-0.0522261
0.00140329
-0.0525822
0.00141402
-0.0529459
0.00142596
-0.053316
0.00143956
-0.0536914
0.00145505
-0.0540717
0.00147218
-0.0544578
0.00149028
-0.054852
0.00150832
-0.055258
0.00152535
-0.0556791
0.00154097
-0.0561186
0.00155503
-0.0565785
0.00156786
-0.0570597
0.00157997
-0.0575614
0.00159184
-0.0580817
0.00160383
-0.0586181
0.0016161
-0.0591682
0.00162872
-0.0597295
0.00164168
-0.0603002
0.00165496
-0.0608787
0.00166852
-0.0614639
0.00168231
-0.0620551
0.00169623
-0.0626516
0.00171018
-0.0632529
0.00172403
-0.0638586
0.00173764
-0.0644681
0.0017509
-0.065081
0.00176367
-0.065697
0.00177585
-0.0663155
0.00178732
-0.0669362
0.001798
-0.0675586
0.00180779
-0.0681824
0.00181665
-0.0688071
0.00182456
-0.0694326
0.00183152
-0.0700585
0.00183757
-0.0706847
0.00184276
-0.071311
0.00184713
-0.0719372
0.00185069
-0.0725631
0.00185346
-0.0731884
0.00185538
-0.073813
0.00185639
-0.0744365
0.00185641
-0.0750586
0.00185534
-0.0756791
0.0018531
-0.0762974
0.0018496
-0.0769134
0.00184479
-0.0775265
0.00183861
-0.0781365
0.00183105
-0.0787428
0.00182207
-0.0793453
0.00181166
-0.0799433
0.00179981
-0.0805365
0.00178652
-0.0811245
0.00177178
-0.0817069
0.00175559
-0.0822831
0.00173794
-0.0828528
0.00171882
-0.0834155
0.00169825
-0.0839707
0.00167623
-0.0845182
0.00165279
-0.0850574
0.00162798
-0.0855881
0.0016019
-0.0861099
0.00157465
-0.0866226
0.00154641
-0.0871258
0.00151732
-0.0876192
0.00148753
-0.0881024
0.00145714
-0.0885748
0.00142612
-0.0890355
0.00139437
-0.0894837
0.00136158
-0.0899182
0.00132738
-0.0903378
0.00129125
-0.0907414
0.00125269
-0.0911279
0.00121123
-0.0914964
0.00116657
-0.0918465
0.00111864
-0.0921778
0.00106761
-0.0924907
0.00101391
-0.0927854
0.000958169
-0.0930626
0.000901118
-0.0933228
0.000843521
-0.0935667
0.000786075
-0.0937945
0.000729348
-0.0940065
0.000673752
-0.0942028
0.00061953
-0.0943831
0.000566781
-0.0945473
0.000515483
-0.094695
0.000465543
-0.0948259
0.000416781
-0.0949398
0.000369037
-0.0950364
0.000322088
-0.0951155
0.000275745
-0.0951772
0.000229795
-0.0952213
0.000184094
-0.0952481
0.000138457
-0.0952576
9.27575e-05
-0.0952501
4.69348e-05
-0.0952255
9.3258e-07
-0.0951843
-4.5481e-05
-0.0951265
-9.23751e-05
-0.0950522
-0.000139431
-0.0949614
-0.000186645
-0.0948544
-0.000233968
-0.0947313
-0.000281376
-0.0945923
-0.000328811
-0.0944377
-0.000376253
-0.0942676
-0.000423541
-0.0940821
-0.000470574
-0.0938814
-0.000517277
-0.0936655
-0.000563578
-0.0934347
-0.000609399
-0.093189
-0.000654656
-0.0929284
-0.000699262
-0.092653
-0.000743145
-0.0923629
-0.000786266
-0.0920582
-0.000828644
-0.0917391
-0.000870348
-0.0914061
-0.000911471
-0.0910595
-0.000952078
-0.0907
-0.000992153
-0.0903281
-0.00103158
-0.0899447
-0.00107017
-0.0895502
-0.00110773
-0.0891454
-0.00114412
-0.0887305
-0.00117932
-0.0883058
-0.00121339
-0.0878713
-0.00124643
-0.0874268
-0.00127851
-0.0869724
-0.00130965
-0.086508
-0.00133982
-0.0860337
-0.00136899
-0.0855496
-0.00139709
-0.085056
-0.00142408
-0.084553
-0.00144993
-0.0840408
-0.0014746
-0.0835198
-0.00149807
-0.0829901
-0.00152033
-0.0824521
-0.00154135
-0.0819059
-0.00156113
-0.081352
-0.00157969
-0.0807906
-0.00159705
-0.0802221
-0.00161325
-0.0796468
-0.00162834
-0.079065
-0.00164236
-0.0784772
-0.00165536
-0.0778837
-0.00166742
-0.077285
-0.00167859
-0.0766815
-0.00168899
-0.0760738
-0.00169874
-0.075462
-0.00170795
-0.0748462
-0.00171666
-0.0742264
-0.00172477
-0.0736024
-0.00173212
-0.0729738
-0.00173866
-0.0723407
-0.00174483
-0.0717036
-0.00175197
-0.0710632
-0.00176243
-0.0704209
-0.00177927
-0.069778
-0.00180527