/*--------------------------------*- C++ -*----------------------------------*\
| =========                 |                                                 |
| \\      /  F ield         | OpenFOAM: The Open Source CFD Toolbox           |
|  \\    /   O peration     | Version:  v2006                                 |
|   \\  /    A nd           | Website:  www.openfoam.com                      |
|    \\/     M anipulation  |                                                 |
\*---------------------------------------------------------------------------*/
FoamFile
{
    version     2.0;
    format      ascii;
    class       volScalarField;
    location    "0";
    object      shifted_f;
}
// * * * * * * * * * * * * * * * * * * * * * * * * * * * * * * * * * * * * * //

dimensions      [0 0 0 0 0 0 0];


internalField   nonuniform List<scalar> 
2500
(
0.000204895
0.000204921
0.000204932
0.000204954
0.000204988
0.000204999
0.000204999
0.000292659
0.000292633
0.00029264
0.000292618
0.000292629
0.000292622
0.00029264
0.00029264
0.000292599
0.000292636
0.000292592
0.000292595
0.000292629
0.000292651
0.000292685
0.000292689
0.000292629
0.000292633
0.000292636
0.00029273
0.0002927
0.000292692
0.000292677
0.000292651
0.00029264
0.000292644
0.000292663
0.000292726
0.000292689
0.000292648
0.000292648
0.000292651
0.000292692
0.000292722
0.000292655
0.000292689
0.000292722
0.0002927
0.00029273
0.000292752
0.000292748
0.000292748
0.000292681
0.000292655
0.000292677
0.000292756
0.000292763
0.000292744
0.000292808
0.000292756
0.000292789
0.000292737
0.000292733
0.000292741
0.000292748
0.000292756
0.000292808
0.000292756
0.000292737
0.000292771
0.000292793
0.000292834
0.000292815
0.000292826
0.000292774
0.000292834
0.000292823
0.000292838
0.000292856
0.000292826
0.000292823
0.000292879
0.000292875
0.000292875
0.000292871
0.000292972
0.000292864
0.000292908
0.000292949
0.000292961
0.000292975
0.000292934
0.000292931
0.000292975
0.000292961
0.000292957
0.000293002
0.00029299
0.00029299
0.000292946
0.00029302
0.000293013
0.000293009
0.000293002
0.000293016
0.000293024
0.000293065
0.00029302
0.000293087
0.000293106
0.000293065
0.000367116
0.00036706
0.000367049
0.000367016
0.000366978
0.000367023
0.000367034
0.000366967
0.000366952
0.000366967
0.000366949
0.000367012
0.000366997
0.000366982
0.000366941
0.000366967
0.000366915
0.0003669
0.000366915
0.0003669
0.00036687
0.0003669
0.000366889
0.000366829
0.000366833
0.000366874
0.000366848
0.000366807
0.000366852
0.000366811
0.000366844
0.00036677
0.000366773
0.000366714
0.000366732
0.000366751
0.00036677
0.000366751
0.000366729
0.000366699
0.000366691
0.000366729
0.00036671
0.000366706
0.000366651
0.00036661
0.000366647
0.000366669
0.000366658
0.000366636
0.000366628
0.000366662
0.000366624
0.000366602
0.000366606
0.000366587
0.000366561
0.000366539
0.000366595
0.000366572
0.000366539
0.000366561
0.000366554
0.000366498
0.000366472
0.000366502
0.000366542
0.000366502
0.000366442
0.000366446
0.00036649
0.000366416
0.000366446
0.000366416
0.00036652
0.000366431
0.000366449
0.000366487
0.000366453
0.000366401
0.000366401
0.000366382
0.000366446
0.000366416
0.000366423
0.000366393
0.000366367
0.000366401
0.00036642
0.000366334
0.000366352
0.000366371
0.000366364
0.000366308
0.000366416
0.00036633
0.000366312
0.000366364
0.000366304
0.000366364
0.000366308
0.000376862
0.000376847
0.000376888
0.000376813
0.000376772
0.000376761
0.000376742
0.00037672
0.000376754
0.000376645
0.000376631
0.000376642
0.000376638
0.000376638
0.000376623
0.000376601
0.000376645
0.000376523
0.00037659
0.000376552
0.000376508
0.000376452
0.000376426
0.000376418
0.000376411
0.000376482
0.000376396
0.000376407
0.000376355
0.000376374
0.000376333
0.000376336
0.000376273
0.000376288
0.000376243
0.000376187
0.000376187
0.000376157
0.000376206
0.000376176
0.000376135
0.000376128
0.000376161
0.00037609
0.000376035
0.000376064
0.000376046
0.000375986
0.000376035
0.000376012
0.000375938
0.000376012
0.000375986
0.000375886
0.000375882
0.000375878
0.000375856
0.000375804
0.000375804
0.000375792
0.000375845
0.000375744
0.000375688
0.000375669
0.000375699
0.000375692
0.000375684
0.000375614
0.000375602
0.000375628
0.000375617
0.000375554
0.000375584
0.000375524
0.000375487
0.00037555
0.000375461
0.000375405
0.000375416
0.00037539
0.000375398
0.000375401
0.000375383
0.000375342
0.000375334
0.000375282
0.000375271
0.000375312
0.000375275
0.000375211
0.000375245
0.000375204
0.000375185
0.000375159
0.000375126
0.00037517
0.000375111
0.000375066
0.000375081
0.000375059
0.000375051
0.000264484
0.000264522
0.000264488
0.000264436
0.000264503
0.000264499
0.000264414
0.000264376
0.000264414
0.00026438
0.000264421
0.00026438
0.000264376
0.000264369
0.000264317
0.00026428
0.000264302
0.000264309
0.000264246
0.000264268
0.000264261
0.000264287
0.000264175
0.000264287
0.000264119
0.000264168
0.00026422
0.000264168
0.000264149
0.000264134
0.00026406
0.000264067
0.000264063
0.000264075
0.000264045
0.000264049
0.000264063
0.000264056
0.000263982
0.000263982
0.000263944
0.000263911
0.000263914
0.000263885
0.000263859
0.000263862
0.000263903
0.00026387
0.000263788
0.000263818
0.000263751
0.000263792
0.00026378
0.000263758
0.000263695
0.000263732
0.000263683
0.000263643
0.000263639
0.00026362
0.000263561
0.000263605
0.000263553
0.000263598
0.00026352
0.000263479
0.000263479
0.000263464
0.000263505
0.000263426
0.000263337
0.0002634
0.000263348
0.000263322
0.00026333
0.000263311
0.000263251
0.000263277
0.00026324
0.000263225
0.000263155
0.000263181
0.000263102
0.000263087
0.000263058
0.000263155
0.000263073
0.000262998
0.000262968
0.000262909
0.000262927
0.000262879
0.000262879
0.000262894
0.000262786
0.000262789
0.000262734
0.000262644
0.000262685
0.00026264
0.000262611
-4.09782e-07
-3.68804e-07
-3.31551e-07
-3.1665e-07
-4.02331e-07
-2.94298e-07
-3.76254e-07
-2.79397e-07
-3.01749e-07
-3.31551e-07
-2.75671e-07
-2.75671e-07
-2.04891e-07
-3.09199e-07
-2.5332e-07
-2.45869e-07
-1.93715e-07
-2.30968e-07
-2.04891e-07
-2.30968e-07
-1.45286e-07
-1.75089e-07
-1.2666e-07
-1.82539e-07
-9.31323e-08
-1.22935e-07
-7.45058e-08
-7.45058e-08
-7.07805e-08
-3.72529e-08
-1.04308e-07
-2.23517e-08
-8.56817e-08
-7.45058e-08
-3.72529e-08
-3.72529e-09
-4.84288e-08
-1.49012e-08
-3.72529e-08
1.86265e-08
1.49012e-08
7.07805e-08
4.47035e-08
3.72529e-09
3.35276e-08
7.07805e-08
9.68575e-08
9.68575e-08
6.33299e-08
5.58794e-08
7.82311e-08
9.68575e-08
5.58794e-08
5.58794e-08
6.33299e-08
9.68575e-08
8.9407e-08
8.56817e-08
6.33299e-08
3.35276e-08
5.58794e-08
4.09782e-08
1.3411e-07
4.09782e-08
5.96046e-08
1.19209e-07
5.58794e-08
4.47035e-08
3.72529e-08
7.07805e-08
5.21541e-08
4.09782e-08
7.45058e-09
-3.35276e-08
2.6077e-08
1.86265e-08
1.11759e-08
-4.09782e-08
0
0
-7.07805e-08
-3.35276e-08
-3.35276e-08
-1.19209e-07
-1.08033e-07
-7.07805e-08
-8.56817e-08
-4.84288e-08
-1.30385e-07
-2.01166e-07
-2.01166e-07
-1.9744e-07
-2.6077e-07
-2.42144e-07
-2.6077e-07
-2.5332e-07
-2.90573e-07
-2.68221e-07
-2.90573e-07
-3.7998e-07
-3.50177e-07
-0.000363696
-0.000363644
-0.000363566
-0.00036354
-0.000363484
-0.000363436
-0.000363376
-0.000363305
-0.000363242
-0.000363179
-0.000363145
-0.000363134
-0.000363044
-0.000363003
-0.000362985
-0.000362903
-0.00036284
-0.000362832
-0.000362746
-0.000362638
-0.000362571
-0.000362616
-0.000362519
-0.000362508
-0.000362393
-0.000362393
-0.000362281
-0.000362277
-0.000362221
-0.000362106
-0.000362128
-0.000362072
-0.000362039
-0.000362001
-0.000361908
-0.000361878
-0.000361849
-0.000361826
-0.0003618
-0.000361729
-0.000361703
-0.000361614
-0.000361618
-0.000361521
-0.000361506
-0.000361416
-0.000361454
-0.000361349
-0.000361338
-0.00036132
-0.000361193
-0.000361226
-0.00036123
-0.000361115
-0.000361089
-0.00036107
-0.00036107
-0.000360947
-0.000360928
-0.000360895
-0.000360891
-0.000360876
-0.00036085
-0.000360761
-0.000360727
-0.000360716
-0.000360698
-0.000360668
-0.000360657
-0.000360645
-0.000360582
-0.000360519
-0.000360526
-0.000360522
-0.000360467
-0.000360522
-0.000360411
-0.000360452
-0.000360377
-0.000360325
-0.000360392
-0.000360295
-0.000360258
-0.00036037
-0.000360321
-0.000360202
-0.000360236
-0.000360273
-0.000360209
-0.000360198
-0.000360157
-0.000360142
-0.000360176
-0.00036015
-0.000360142
-0.000360113
-0.000360116
-0.00036012
-0.000360113
-0.000360131
-0.000360105
-0.000584409
-0.000584405
-0.000584286
-0.000584252
-0.0005842
-0.000584114
-0.000584055
-0.000583973
-0.000583865
-0.000583831
-0.000583816
-0.000583727
-0.000583567
-0.000583559
-0.00058357
-0.000583392
-0.00058344
-0.000583295
-0.000583258
-0.00058312
-0.000583064
-0.000582963
-0.000582956
-0.00058287
-0.000582784
-0.000582725
-0.000582594
-0.000582624
-0.000582613
-0.000582542
-0.000582375
-0.000582378
-0.0005823
-0.000582296
-0.00058217
-0.000582077
-0.000582077
-0.000581969
-0.000581887
-0.000581838
-0.000581756
-0.000581685
-0.000581622
-0.000581495
-0.000581492
-0.000581484
-0.00058141
-0.000581339
-0.000581224
-0.000581153
-0.000581123
-0.000581026
-0.000581015
-0.000580918
-0.000580847
-0.000580858
-0.000580821
-0.000580769
-0.000580642
-0.000580549
-0.000580523
-0.000580531
-0.000580378
-0.000580367
-0.000580277
-0.000580199
-0.000580151
-0.000580154
-0.000580065
-0.000580084
-0.000579927
-0.00057986
-0.000579856
-0.000579778
-0.000579674
-0.000579674
-0.000579637
-0.000579592
-0.00057948
-0.000579458
-0.000579432
-0.000579398
-0.00057926
-0.000579264
-0.000579242
-0.000579137
-0.00057907
-0.000579007
-0.000578981
-0.000578925
-0.000578862
-0.000578817
-0.000578798
-0.000578694
-0.00057872
-0.000578616
-0.000578567
-0.000578482
-0.000578497
-0.0005784
-0.000578344
5.49294e-05
5.48176e-05
5.48549e-05
5.47245e-05
5.46724e-05
5.45532e-05
5.45718e-05
5.45233e-05
5.44488e-05
5.44973e-05
5.43557e-05
5.42253e-05
5.42961e-05
5.42179e-05
5.41732e-05
5.40651e-05
5.40614e-05
5.408e-05
5.39981e-05
5.3864e-05
5.3823e-05
5.38193e-05
5.38267e-05
5.37299e-05
5.36926e-05
5.3674e-05
5.36703e-05
5.36777e-05
5.35622e-05
5.35175e-05
5.3484e-05
5.34579e-05
5.33983e-05
5.34207e-05
5.3402e-05
5.33797e-05
5.32828e-05
5.32828e-05
5.32456e-05
5.32195e-05
5.31599e-05
5.32083e-05
5.32232e-05
5.31971e-05
5.31599e-05
5.31599e-05
5.30928e-05
5.31115e-05
5.3063e-05
5.30966e-05
5.31189e-05
5.30668e-05
5.31115e-05
5.30742e-05
5.30481e-05
5.30295e-05
5.30742e-05
5.30779e-05
5.3104e-05
5.3104e-05
5.31562e-05
5.30891e-05
5.31413e-05
5.31524e-05
5.3104e-05
5.3186e-05
5.31711e-05
5.32195e-05
5.33015e-05
5.33015e-05
5.33201e-05
5.33201e-05
5.33089e-05
5.34616e-05
5.3484e-05
5.35697e-05
5.35548e-05
5.35436e-05
5.36554e-05
5.37261e-05
5.37038e-05
5.38118e-05
5.38714e-05
5.39906e-05
5.39236e-05
5.40875e-05
5.40614e-05
5.41694e-05
5.43222e-05
5.43334e-05
5.43743e-05
5.43743e-05
5.45606e-05
5.45681e-05
5.46984e-05
5.4799e-05
5.47878e-05
5.48735e-05
5.50039e-05
5.50859e-05
5.51902e-05
0.00286682
0.0028664
0.00286593
0.00286556
0.00286517
0.00286465
0.0028643
0.00286386
0.00286353
0.00286307
0.00286264
0.00286223
0.00286197
0.00286134
0.00286099
0.00286062
0.00286027
0.00285979
0.00285947
0.00285897
0.00285863
0.00285819
0.00285792
0.00285751
0.00285715
0.00285674
0.00285641
0.00285602
0.0028556
0.00285528
0.00285485
0.00285455
0.00285424
0.00285389
0.00285353
0.00285313
0.00285281
0.00285254
0.00285222
0.00285188
0.0028515
0.00285121
0.002851
0.00285066
0.00285036
0.00285007
0.00284972
0.00284951
0.00284911
0.00284894
0.00284868
0.00284844
0.00284813
0.00284794
0.00284769
0.00284745
0.00284718
0.00284693
0.00284676
0.00284654
0.00284625
0.00284607
0.00284602
0.0028457
0.00284552
0.00284544
0.00284533
0.00284514
0.00284493
0.00284481
0.00284462
0.00284445
0.00284441
0.0028443
0.00284424
0.00284406
0.00284394
0.00284383
0.00284375
0.00284366
0.00284361
0.00284356
0.00284341
0.00284347
0.00284337
0.00284334
0.00284339
0.00284334
0.00284326
0.00284334
0.00284327
0.00284326
0.0028433
0.00284337
0.00284326
0.00284337
0.0028434
0.00284347
0.00284349
0.00284354
0.00284363
0.00617621
0.00617568
0.00617508
0.00617468
0.00617418
0.00617355
0.00617307
0.00617256
0.00617209
0.00617164
0.0061711
0.00617053
0.00616997
0.00616943
0.00616894
0.00616847
0.00616798
0.00616743
0.00616699
0.00616645
0.00616586
0.00616545
0.00616496
0.00616444
0.0061639
0.00616334
0.00616284
0.00616242
0.00616189
0.00616147
0.00616097
0.00616044
0.00615992
0.00615943
0.00615895
0.00615846
0.00615807
0.00615754
0.00615717
0.00615674
0.00615624
0.00615578
0.00615532
0.00615481
0.00615437
0.00615391
0.00615345
0.00615302
0.0061526
0.00615219
0.00615174
0.00615133
0.00615089
0.0061505
0.00615003
0.00614965
0.0061492
0.00614885
0.00614853
0.00614796
0.00614765
0.00614723
0.0061469
0.0061465
0.00614614
0.00614579
0.00614545
0.00614509
0.00614462
0.00614427
0.00614394
0.00614365
0.00614328
0.00614287
0.0061426
0.00614234
0.00614188
0.00614162
0.00614136
0.00614098
0.00614066
0.00614036
0.0061401
0.00613985
0.00613946
0.00613932
0.00613899
0.00613879
0.00613846
0.00613816
0.00613791
0.00613764
0.00613746
0.00613713
0.00613703
0.00613662
0.00613643
0.00613618
0.006136
0.0061358
0.0061355
0.00162247
0.0016228
0.00162316
0.00162343
0.00162375
0.00162418
0.00162447
0.00162489
0.0016252
0.00162547
0.00162588
0.00162626
0.0016265
0.00162682
0.00162722
0.0016275
0.00162773
0.00162813
0.00162832
0.00162863
0.00162893
0.00162929
0.00162955
0.00162989
0.00163008
0.00163037
0.00163062
0.00163085
0.00163118
0.00163137
0.00163164
0.00163177
0.00163212
0.00163229
0.00163245
0.0016326
0.00163276
0.001633
0.00163326
0.00163335
0.00163346
0.00163369
0.00163385
0.0016339
0.00163409
0.00163421
0.0016343
0.00163442
0.00163444
0.00163465
0.00163462
0.00163464
0.00163475
0.00163475
0.00163468
0.00163485
0.00163472
0.00163471
0.00163459
0.00163462
0.00163459
0.00163461
0.00163444
0.00163442
0.00163435
0.00163427
0.00163418
0.00163401
0.00163379
0.00163373
0.00163354
0.00163334
0.00163312
0.00163298
0.00163264
0.00163249
0.00163221
0.00163209
0.00163184
0.00163146
0.00163115
0.00163082
0.00163059
0.00163019
0.00162977
0.00162945
0.00162908
0.0016288
0.00162838
0.00162797
0.00162755
0.001627
0.00162663
0.00162605
0.00162567
0.00162519
0.00162467
0.0016241
0.00162354
0.00162303
0.00162248
-0.0145843
-0.0145829
-0.0145812
-0.0145798
-0.0145784
-0.014577
-0.0145754
-0.0145738
-0.0145723
-0.0145709
-0.0145694
-0.0145678
-0.0145663
-0.0145647
-0.0145633
-0.0145619
-0.0145603
-0.014559
-0.0145575
-0.014556
-0.0145546
-0.0145531
-0.0145518
-0.0145503
-0.014549
-0.0145474
-0.0145463
-0.0145449
-0.0145435
-0.0145422
-0.0145409
-0.0145395
-0.0145382
-0.0145369
-0.0145357
-0.0145345
-0.0145333
-0.0145321
-0.0145309
-0.0145297
-0.0145286
-0.0145274
-0.0145263
-0.0145254
-0.0145241
-0.0145231
-0.0145221
-0.0145211
-0.0145201
-0.0145192
-0.0145182
-0.0145173
-0.0145165
-0.0145155
-0.0145147
-0.0145138
-0.0145131
-0.0145124
-0.0145117
-0.0145109
-0.0145103
-0.0145097
-0.0145089
-0.0145085
-0.0145078
-0.0145074
-0.0145068
-0.0145064
-0.0145058
-0.0145054
-0.0145051
-0.0145048
-0.0145045
-0.014504
-0.0145039
-0.0145035
-0.0145034
-0.0145031
-0.014503
-0.0145029
-0.0145028
-0.0145027
-0.0145026
-0.0145026
-0.0145026
-0.0145026
-0.0145028
-0.0145027
-0.0145031
-0.0145032
-0.0145034
-0.0145037
-0.014504
-0.0145043
-0.0145045
-0.014505
-0.0145054
-0.0145058
-0.0145064
-0.0145068
-0.0145074
-0.0338663
-0.0338645
-0.0338629
-0.033861
-0.0338592
-0.0338575
-0.0338556
-0.0338538
-0.0338521
-0.0338502
-0.0338483
-0.0338467
-0.0338448
-0.0338431
-0.0338412
-0.0338394
-0.0338377
-0.0338358
-0.0338341
-0.0338324
-0.0338306
-0.0338287
-0.033827
-0.0338255
-0.0338237
-0.0338218
-0.0338199
-0.0338184
-0.0338166
-0.033815
-0.0338134
-0.0338116
-0.03381
-0.0338083
-0.0338067
-0.0338052
-0.0338035
-0.0338019
-0.0338003
-0.0337988
-0.0337972
-0.0337957
-0.0337942
-0.0337928
-0.0337912
-0.0337897
-0.0337884
-0.0337869
-0.0337857
-0.0337841
-0.0337828
-0.0337815
-0.0337803
-0.0337789
-0.0337777
-0.0337764
-0.0337752
-0.033774
-0.0337728
-0.0337717
-0.0337706
-0.0337694
-0.0337685
-0.0337674
-0.0337665
-0.0337653
-0.0337645
-0.0337635
-0.0337626
-0.0337616
-0.0337609
-0.0337599
-0.0337594
-0.0337585
-0.0337577
-0.0337569
-0.0337562
-0.0337556
-0.0337551
-0.0337543
-0.0337539
-0.0337531
-0.0337527
-0.0337522
-0.0337518
-0.0337513
-0.0337509
-0.0337505
-0.0337502
-0.0337499
-0.0337495
-0.0337493
-0.0337491
-0.0337489
-0.0337486
-0.0337486
-0.0337484
-0.0337484
-0.0337483
-0.0337484
-0.0337483
-0.034959
-0.0349582
-0.0349576
-0.0349567
-0.0349562
-0.0349555
-0.0349548
-0.034954
-0.0349533
-0.0349527
-0.0349517
-0.0349509
-0.0349505
-0.0349496
-0.0349488
-0.0349481
-0.0349472
-0.0349464
-0.0349459
-0.0349452
-0.0349441
-0.0349434
-0.0349426
-0.0349417
-0.0349411
-0.0349401
-0.0349393
-0.0349385
-0.0349377
-0.0349368
-0.0349361
-0.0349352
-0.0349342
-0.0349335
-0.0349324
-0.0349316
-0.0349309
-0.0349299
-0.0349292
-0.034928
-0.0349272
-0.0349265
-0.0349255
-0.0349246
-0.0349236
-0.0349226
-0.0349218
-0.0349208
-0.0349198
-0.0349188
-0.0349179
-0.0349169
-0.034916
-0.0349149
-0.0349141
-0.0349131
-0.0349119
-0.0349111
-0.0349103
-0.0349091
-0.0349081
-0.0349071
-0.0349059
-0.034905
-0.0349038
-0.0349029
-0.0349018
-0.0349008
-0.0348997
-0.0348985
-0.0348974
-0.0348964
-0.0348952
-0.0348943
-0.0348931
-0.0348919
-0.0348909
-0.0348897
-0.0348886
-0.0348875
-0.0348864
-0.0348853
-0.0348841
-0.0348829
-0.0348816
-0.0348805
-0.0348793
-0.0348781
-0.0348768
-0.0348758
-0.0348745
-0.0348733
-0.0348721
-0.0348708
-0.0348695
-0.0348683
-0.0348669
-0.0348657
-0.0348644
-0.0348631
-0.0348618
0.011773
0.0117718
0.0117708
0.0117699
0.0117688
0.0117676
0.0117666
0.0117651
0.0117642
0.011763
0.0117623
0.011761
0.0117597
0.0117585
0.0117576
0.0117566
0.0117554
0.0117544
0.0117533
0.0117521
0.0117511
0.0117502
0.0117492
0.011748
0.0117469
0.0117465
0.0117452
0.0117443
0.0117435
0.0117428
0.0117418
0.0117409
0.0117404
0.0117395
0.0117388
0.0117382
0.0117376
0.0117371
0.0117364
0.0117358
0.0117354
0.011735
0.0117346
0.0117345
0.0117341
0.0117339
0.0117336
0.0117334
0.0117337
0.0117333
0.0117336
0.0117334
0.0117335
0.0117336
0.011734
0.0117344
0.0117344
0.0117351
0.0117355
0.0117359
0.0117364
0.0117371
0.0117379
0.0117386
0.0117393
0.0117403
0.0117413
0.0117424
0.0117434
0.0117445
0.0117457
0.0117469
0.0117484
0.0117499
0.0117512
0.0117529
0.0117543
0.011756
0.0117579
0.0117597
0.0117617
0.0117636
0.0117657
0.0117678
0.0117703
0.0117724
0.0117747
0.0117773
0.0117796
0.0117826
0.011785
0.0117877
0.0117908
0.0117934
0.0117967
0.0117994
0.0118025
0.0118059
0.0118093
0.0118126
0.0118159
0.131253
0.131251
0.131248
0.131246
0.131243
0.131241
0.131238
0.131236
0.131233
0.13123
0.131227
0.131225
0.131222
0.131219
0.131216
0.131213
0.131211
0.131208
0.131205
0.131202
0.1312
0.131197
0.131194
0.131191
0.131188
0.131186
0.131183
0.13118
0.131177
0.131175
0.131172
0.13117
0.131167
0.131165
0.131163
0.13116
0.131158
0.131156
0.131154
0.131152
0.13115
0.131148
0.131146
0.131144
0.131143
0.131141
0.13114
0.131138
0.131137
0.131136
0.131135
0.131134
0.131133
0.131132
0.131132
0.131131
0.13113
0.13113
0.13113
0.13113
0.13113
0.13113
0.13113
0.131131
0.131131
0.131132
0.131133
0.131133
0.131134
0.131135
0.131137
0.131138
0.13114
0.131141
0.131143
0.131146
0.131147
0.13115
0.131152
0.131155
0.131157
0.13116
0.131163
0.131167
0.13117
0.131173
0.131177
0.131181
0.131184
0.131188
0.131193
0.131197
0.131202
0.131206
0.131211
0.131217
0.131222
0.131227
0.131232
0.131239
0.131244
0.321697
0.321695
0.321693
0.321691
0.321689
0.321686
0.321684
0.321682
0.321679
0.321676
0.321673
0.321671
0.321667
0.321665
0.321662
0.321659
0.321655
0.321652
0.321649
0.321646
0.321642
0.321639
0.321635
0.321633
0.321629
0.321626
0.321622
0.321619
0.321616
0.321613
0.321609
0.321606
0.321603
0.3216
0.321597
0.321594
0.321591
0.321588
0.321586
0.321583
0.32158
0.321578
0.321575
0.321573
0.32157
0.321569
0.321566
0.321564
0.321562
0.321561
0.321559
0.321557
0.321556
0.321555
0.321553
0.321552
0.321551
0.321551
0.32155
0.321549
0.321549
0.321549
0.321549
0.321549
0.321549
0.32155
0.32155
0.321551
0.321552
0.321553
0.321554
0.321556
0.321557
0.321559
0.321561
0.321564
0.321566
0.321568
0.321571
0.321574
0.321577
0.32158
0.321584
0.321588
0.321592
0.321596
0.3216
0.321604
0.32161
0.321615
0.32162
0.321625
0.321631
0.321636
0.321642
0.321648
0.321655
0.321662
0.321668
0.321675
0.321683
0.54423
0.54423
0.54423
0.54423
0.544229
0.544228
0.544228
0.544227
0.544226
0.544225
0.544224
0.544222
0.54422
0.544219
0.544217
0.544216
0.544213
0.544211
0.544209
0.544207
0.544204
0.544202
0.5442
0.544198
0.544195
0.544192
0.54419
0.544187
0.544184
0.544182
0.54418
0.544177
0.544175
0.544172
0.544169
0.544167
0.544164
0.544162
0.54416
0.544157
0.544155
0.544153
0.54415
0.544148
0.544146
0.544144
0.544142
0.54414
0.544139
0.544137
0.544136
0.544134
0.544132
0.544131
0.54413
0.544129
0.544128
0.544127
0.544127
0.544126
0.544126
0.544125
0.544126
0.544126
0.544126
0.544126
0.544127
0.544127
0.544128
0.544129
0.54413
0.544131
0.544133
0.544134
0.544136
0.544137
0.54414
0.544143
0.544145
0.544148
0.544151
0.544153
0.544157
0.54416
0.544164
0.544168
0.544173
0.544176
0.544181
0.544186
0.544191
0.544196
0.544201
0.544207
0.544213
0.544219
0.544224
0.544231
0.544238
0.544245
0.544251
0.746978
0.746979
0.746982
0.746983
0.746985
0.746986
0.746988
0.746988
0.746989
0.74699
0.74699
0.74699
0.746991
0.746991
0.74699
0.74699
0.746989
0.746989
0.746988
0.746987
0.746987
0.746986
0.746985
0.746984
0.746983
0.746981
0.746979
0.746978
0.746977
0.746975
0.746974
0.746973
0.74697
0.746969
0.746968
0.746966
0.746964
0.746962
0.74696
0.746959
0.746957
0.746956
0.746954
0.746953
0.746951
0.746949
0.746947
0.746946
0.746945
0.746943
0.746942
0.746941
0.74694
0.746939
0.746938
0.746937
0.746936
0.746935
0.746934
0.746934
0.746933
0.746933
0.746932
0.746932
0.746932
0.746931
0.746932
0.746932
0.746932
0.746932
0.746933
0.746934
0.746934
0.746936
0.746937
0.746938
0.746939
0.74694
0.746943
0.746944
0.746946
0.746948
0.746951
0.746953
0.746955
0.746958
0.746961
0.746964
0.746967
0.746971
0.746975
0.746978
0.746982
0.746986
0.74699
0.746995
0.746999
0.747005
0.747009
0.747014
0.74702
0.879849
0.879852
0.879855
0.879858
0.87986
0.879862
0.879864
0.879866
0.879868
0.879869
0.87987
0.879871
0.879872
0.879873
0.879874
0.879874
0.879875
0.879875
0.879875
0.879875
0.879875
0.879875
0.879875
0.879874
0.879874
0.879873
0.879873
0.879872
0.879871
0.87987
0.879869
0.879868
0.879867
0.879866
0.879865
0.879863
0.879862
0.879861
0.879859
0.879858
0.879857
0.879856
0.879854
0.879853
0.879851
0.87985
0.879849
0.879847
0.879846
0.879844
0.879843
0.879841
0.87984
0.879839
0.879838
0.879836
0.879835
0.879834
0.879833
0.879831
0.87983
0.879829
0.879828
0.879827
0.879827
0.879826
0.879825
0.879824
0.879824
0.879823
0.879823
0.879822
0.879822
0.879822
0.879822
0.879822
0.879822
0.879822
0.879822
0.879823
0.879823
0.879824
0.879824
0.879825
0.879825
0.879827
0.879828
0.879829
0.87983
0.879831
0.879833
0.879834
0.879836
0.879838
0.87984
0.879842
0.879844
0.879847
0.879849
0.879852
0.879854
0.914931
0.914934
0.914936
0.914938
0.91494
0.914942
0.914944
0.914945
0.914947
0.914949
0.914949
0.91495
0.914951
0.914952
0.914953
0.914953
0.914953
0.914953
0.914954
0.914954
0.914954
0.914953
0.914953
0.914953
0.914952
0.914952
0.914951
0.91495
0.91495
0.914949
0.914948
0.914946
0.914945
0.914944
0.914944
0.914941
0.91494
0.914939
0.914938
0.914936
0.914935
0.914934
0.914932
0.91493
0.914929
0.914927
0.914926
0.914924
0.914922
0.91492
0.914919
0.914917
0.914915
0.914914
0.914912
0.91491
0.914908
0.914907
0.914905
0.914903
0.914902
0.9149
0.914898
0.914897
0.914895
0.914894
0.914892
0.914891
0.914889
0.914888
0.914886
0.914885
0.914884
0.914883
0.914882
0.91488
0.914879
0.914878
0.914877
0.914876
0.914875
0.914874
0.914873
0.914872
0.914871
0.914871
0.91487
0.91487
0.914869
0.914869
0.914868
0.914869
0.914868
0.914868
0.914868
0.914868
0.914868
0.914868
0.914868
0.914869
0.914869
0.857312
0.857314
0.857315
0.857316
0.857318
0.857319
0.857319
0.857321
0.857321
0.857322
0.857322
0.857323
0.857323
0.857323
0.857323
0.857323
0.857324
0.857323
0.857323
0.857323
0.857322
0.857322
0.857321
0.857321
0.85732
0.857319
0.857318
0.857317
0.857317
0.857316
0.857315
0.857314
0.857312
0.857311
0.85731
0.857309
0.857307
0.857306
0.857304
0.857303
0.857302
0.8573
0.857299
0.857297
0.857295
0.857294
0.857292
0.857291
0.857289
0.857287
0.857285
0.857284
0.857282
0.85728
0.857278
0.857276
0.857275
0.857273
0.857271
0.857269
0.857268
0.857265
0.857264
0.857262
0.857261
0.857259
0.857257
0.857255
0.857253
0.857252
0.85725
0.857249
0.857247
0.857245
0.857243
0.857242
0.85724
0.857239
0.857238
0.857235
0.857234
0.857232
0.857231
0.85723
0.857229
0.857227
0.857226
0.857224
0.857223
0.857222
0.857221
0.85722
0.857218
0.857218
0.857216
0.857216
0.857215
0.857214
0.857213
0.857212
0.857212
0.733916
0.733916
0.733917
0.733918
0.733917
0.733918
0.733917
0.733918
0.733917
0.733917
0.733918
0.733917
0.733917
0.733916
0.733916
0.733915
0.733915
0.733914
0.733914
0.733914
0.733913
0.733912
0.733911
0.73391
0.733909
0.733909
0.733907
0.733906
0.733906
0.733905
0.733903
0.733902
0.733901
0.7339
0.733899
0.733898
0.733897
0.733896
0.733894
0.733893
0.733891
0.73389
0.733889
0.733888
0.733887
0.733885
0.733883
0.733882
0.733881
0.733879
0.733878
0.733876
0.733875
0.733874
0.733872
0.733871
0.733869
0.733867
0.733866
0.733865
0.733864
0.733863
0.733861
0.733859
0.733858
0.733857
0.733855
0.733854
0.733852
0.733851
0.73385
0.733848
0.733847
0.733846
0.733845
0.733843
0.733841
0.73384
0.733839
0.733838
0.733837
0.733836
0.733835
0.733833
0.733832
0.733831
0.733829
0.733828
0.733827
0.733826
0.733825
0.733824
0.733824
0.733822
0.733821
0.733821
0.73382
0.733819
0.733817
0.733816
0.733816
0.573142
0.57314
0.573139
0.573139
0.573138
0.573137
0.573136
0.573135
0.573134
0.573132
0.573131
0.573131
0.57313
0.573128
0.573127
0.573126
0.573125
0.573124
0.573123
0.573122
0.573121
0.57312
0.573119
0.573118
0.573117
0.573116
0.573114
0.573113
0.573112
0.573111
0.57311
0.573109
0.573108
0.573107
0.573105
0.573105
0.573103
0.573103
0.573102
0.5731
0.573099
0.573098
0.573097
0.573096
0.573095
0.573094
0.573093
0.573092
0.573091
0.57309
0.573089
0.573088
0.573087
0.573086
0.573085
0.573084
0.573083
0.573082
0.573082
0.57308
0.57308
0.573079
0.573078
0.573077
0.573076
0.573076
0.573074
0.573074
0.573073
0.573072
0.573071
0.573071
0.57307
0.57307
0.573069
0.573068
0.573067
0.573066
0.573066
0.573065
0.573065
0.573064
0.573063
0.573062
0.573062
0.573061
0.573061
0.57306
0.57306
0.573059
0.573059
0.573058
0.573058
0.573057
0.573057
0.573056
0.573056
0.573056
0.573055
0.573055
0.573055
0.401815
0.401814
0.401812
0.40181
0.401808
0.401806
0.401804
0.401802
0.4018
0.401798
0.401797
0.401796
0.401793
0.401792
0.401791
0.401789
0.401787
0.401786
0.401785
0.401784
0.401781
0.401781
0.401779
0.401778
0.401777
0.401775
0.401774
0.401773
0.401772
0.401771
0.40177
0.401769
0.401767
0.401767
0.401766
0.401765
0.401764
0.401763
0.401762
0.401761
0.40176
0.40176
0.401759
0.401758
0.401757
0.401757
0.401756
0.401756
0.401756
0.401755
0.401754
0.401753
0.401753
0.401752
0.401752
0.401751
0.401751
0.401751
0.40175
0.40175
0.40175
0.401749
0.401749
0.401749
0.401748
0.401748
0.401747
0.401747
0.401748
)
;

boundaryField
{
    movingWall
    {
        type            zeroGradient;
    }
    fixedWalls
    {
        type            zeroGradient;
    }
    frontAndBack
    {
        type            empty;
    }
}

