/*--------------------------------*- C++ -*----------------------------------*\
| =========                 |                                                 |
| \\      /  F ield         | OpenFOAM: The Open Source CFD Toolbox           |
|  \\    /   O peration     | Version:  v2006                                 |
|   \\  /    A nd           | Website:  www.openfoam.com                      |
|    \\/     M anipulation  |                                                 |
\*---------------------------------------------------------------------------*/
FoamFile
{
    version     2.0;
    format      ascii;
    class       volScalarField;
    location    "1.25";
    object      r;
}
// * * * * * * * * * * * * * * * * * * * * * * * * * * * * * * * * * * * * * //

dimensions      [1 2 0 0 0 0 0];


internalField   nonuniform List<scalar> 
350
(
-3.15207e-211
7.09023e-208
-1.71644e-204
4.5685e-201
-1.32154e-197
4.00931e-194
-1.2295e-190
3.71428e-187
-1.08936e-183
3.07943e-180
-8.36371e-177
2.18046e-173
-5.45835e-170
1.31367e-166
-3.04623e-163
6.82766e-160
-1.48571e-156
3.15643e-153
-6.58761e-150
1.3569e-146
-2.75521e-143
5.43589e-140
-9.98808e-137
1.5165e-133
-9.80111e-131
-5.54395e-127
3.52983e-123
-1.40348e-119
4.60754e-116
-1.33752e-112
3.53441e-109
-8.67467e-106
2.02361e-102
-4.63315e-99
1.08107e-95
-2.63437e-92
6.64665e-89
-1.67484e-85
4.05009e-82
-9.12952e-79
1.88581e-75
-3.72293e-72
9.23656e-69
-3.30493e-65
7.05963e-62
4.31299e-58
-5.4782e-54
3.10107e-50
-1.18702e-46
3.29008e-43
-7.1089e-40
1.0583e-36
-1.73953e-33
-1.0613e-30
-1.38249e-26
-7.63554e-23
-4.47558e-19
2.18626e-16
-3.31357e-15
1.75638e-14
-6.57894e-14
2.24919e-13
-7.49541e-13
2.44973e-12
-7.85337e-12
2.46874e-11
-7.60223e-11
2.29005e-10
-6.73711e-10
1.93197e-09
-5.38863e-09
1.45812e-08
-3.81645e-08
9.62708e-08
-2.33036e-07
5.38333e-07
-1.17851e-06
2.42185e-06
-4.60909e-06
7.95354e-06
-1.19806e-05
1.44496e-05
-1.01576e-05
-1.9227e-05
4.49469e-05
3.23366e-05
-0.000301718
0.000627316
-0.000692267
0.000358232
-5.09391e-05
0.000980318
-0.00283618
0.000199037
0.00861507
-0.000806026
-0.0196321
-0.00478473
0.0253226
0.0197397
-0.0683134
-0.0732828
0.0778936
0.511628
1.3032
2.4332
3.79017
5.21163
6.53865
7.65794
8.51822
9.1236
9.51668
9.75239
9.89053
9.95663
9.99934
9.99976
10
10
10
10
10
10
10
9.99999
10
9.99998
10
9.99993
10.0001
9.99989
9.99992
10.0005
9.99912
10.0009
9.9999
10.0001
9.99862
10.0029
9.99975
9.99146
9.9988
10.0179
10.0119
9.96922
9.97828
10.0659
10.0772
9.93425
9.50406
8.71112
7.57554
6.21071
4.78175
3.44977
2.3288
1.46914
0.864316
0.473601
0.238293
0.113852
0.0420584
0.0181923
0.00218787
0.00159628
0.00095915
0.000494651
0.000206564
7.93859e-05
1.49867e-06
7.60456e-07
9.96609e-08
5.31639e-08
1.11038e-08
7.20927e-09
2.62279e-09
1.96559e-09
1.26484e-09
7.0835e-10
3.69931e-10
1.1534e-10
1.02674e-10
8.70122e-11
6.93387e-11
5.11645e-11
3.49414e-11
2.26384e-11
1.62039e-11
9.99574e-12
8.51308e-12
6.33935e-12
3.76317e-12
1.58468e-12
-1.05482e-12
-1.4999e-12
-1.68077e-12
-1.55019e-12
-9.52773e-13
-8.569e-13
-7.6304e-13
-4.62291e-13
2.22908e-13
3.68598e-13
2.61814e-13
3.66254e-14
-3.35847e-13
-2.77534e-13
-3.34689e-13
-1.39934e-13
-1.39547e-13
-6.45724e-14
3.01224e-14
4.55748e-14
7.02614e-14
3.5146e-14
3.47059e-14
3.6732e-14
-2.90982e-14
4.8836e-14
2.11924e-14
8.08248e-14
-2.31186e-14
-2.86473e-14
-3.80098e-14
-1.17253e-14
2.06244e-15
-9.12834e-14
-1.11476e-13
-1.13357e-13
-4.33354e-14
9.33873e-15
6.21378e-14
1.8574e-14
7.41758e-14
1.3223e-14
6.14291e-14
-1.31045e-14
-3.14068e-14
6.07144e-15
5.12075e-14
1.21457e-13
8.53568e-14
6.46951e-14
-3.09942e-14
-2.34788e-15
-1.20064e-13
3.49799e-14
-1.59069e-13
4.5221e-14
-1.35856e-14
3.32695e-14
2.08288e-14
3.85784e-14
8.16474e-14
3.73634e-14
4.47373e-14
-3.30337e-14
-3.62154e-14
9.64644e-15
-1.07599e-13
8.08308e-15
-7.44731e-14
1.56485e-14
-4.16747e-14
8.09473e-15
-8.54602e-18
8.88904e-15
1.11559e-14
-1.00734e-14
1.91777e-14
-8.41272e-15
5.87939e-15
-1.35872e-14
2.25108e-14
-5.04647e-14
3.17472e-14
-3.25691e-14
1.07081e-14
-1.12691e-14
3.88314e-16
-5.78331e-15
-4.66321e-15
-2.91809e-15
-7.78692e-15
1.20576e-14
-2.70932e-15
-2.71372e-15
7.88907e-15
2.34674e-14
8.91411e-15
1.09166e-14
-5.83824e-15
-6.33897e-15
-8.76608e-15
-4.96665e-15
-2.51858e-15
-8.12701e-16
8.98005e-16
-1.03943e-15
1.14645e-15
-7.1775e-16
1.05504e-15
9.98252e-16
1.26852e-15
1.59082e-16
-5.57365e-16
-1.34476e-15
-2.86013e-16
-1.15464e-15
5.39213e-16
-7.62464e-16
9.60223e-16
-1.79457e-16
3.95044e-16
-1.70701e-16
3.31106e-16
-9.98167e-17
1.85381e-16
-4.51777e-16
7.44317e-16
-9.54992e-16
1.1167e-15
-1.17408e-15
9.77933e-16
-8.00233e-16
5.89844e-16
-3.10876e-16
7.93959e-17
5.82796e-18
8.13705e-17
5.36747e-17
-8.13364e-17
-9.96852e-17
2.35253e-16
-3.93886e-16
5.18995e-16
-5.6601e-16
5.15805e-16
-4.43437e-16
3.38235e-16
-1.29345e-16
-1.87968e-17
-5.23918e-17
1.95469e-16
-1.19503e-16
8.15457e-17
-2.31584e-16
4.54733e-16
-6.99195e-16
)
;

boundaryField
{
    right
    {
        type            zeroGradient;
    }
    left
    {
        type            inletOutlet;
        inletValue      uniform 0;
        value           uniform 0;
    }
    top
    {
        type            zeroGradient;
    }
    bottom
    {
        type            zeroGradient;
    }
    empty
    {
        type            empty;
    }
}


// ************************************************************************* //
