/*--------------------------------*- C++ -*----------------------------------*\
| =========                 |                                                 |
| \\      /  F ield         | OpenFOAM: The Open Source CFD Toolbox           |
|  \\    /   O peration     | Version:  v2006                                 |
|   \\  /    A nd           | Website:  www.openfoam.com                      |
|    \\/     M anipulation  |                                                 |
\*---------------------------------------------------------------------------*/
FoamFile
{
    version     2.0;
    format      ascii;
    class       volScalarField;
    location    "12.4";
    object      p_rgh;
}
// * * * * * * * * * * * * * * * * * * * * * * * * * * * * * * * * * * * * * //

dimensions      [1 -1 -2 0 0 0 0];


internalField   nonuniform List<scalar> 
52500
(
-1147.03
-1146.63
-1145.81
-1144.57
-1142.92
-1140.86
-1138.39
-1135.53
-1132.26
-1128.59
-1124.54
-1120.09
-1115.25
-1110.02
-1104.42
-1098.44
-1092.09
-1085.37
-1078.28
-1070.83
-1063.03
-1054.87
-1046.37
-1037.52
-1028.32
-1018.79
-1008.93
-998.735
-988.214
-977.369
-966.205
-954.723
-942.928
-930.824
-918.412
-905.698
-892.683
-879.372
-865.768
-851.875
-837.695
-823.234
-808.493
-793.479
-778.194
-762.642
-746.829
-730.759
-714.436
-697.864
-681.049
-663.995
-646.708
-629.19
-611.447
-593.485
-575.31
-556.926
-538.34
-519.557
-500.584
-481.427
-462.089
-442.579
-422.9
-403.058
-383.058
-362.907
-342.61
-322.172
-301.6
-280.9
-260.076
-239.134
-218.095
-196.945
-175.691
-154.341
-132.902
-111.381
-89.7825
-68.1144
-46.382
-24.5907
-2.74646
19.1446
41.0768
63.0445
85.042
107.064
129.104
151.158
173.22
195.284
217.346
239.4
261.442
283.466
305.468
327.443
349.387
371.295
393.162
414.984
436.758
458.479
480.144
501.747
523.287
544.759
566.16
587.486
608.734
629.902
650.986
671.984
692.894
713.712
734.436
755.064
775.593
796.021
816.346
836.565
856.677
876.681
896.573
916.353
936.019
955.57
975.003
994.318
1013.51
1032.59
1051.54
1070.37
1089.07
1107.65
1126.1
1144.42
1162.62
1180.68
1198.62
1216.42
1234.09
1251.63
1269.03
1286.3
1303.44
1320.44
1337.3
1354.03
1370.62
1387.07
1403.38
1419.55
1435.58
1451.48
1467.23
1482.85
1498.32
1513.65
1528.84
1543.89
1558.8
1573.56
1588.18
1602.65
1616.99
1631.17
1645.22
1659.12
1672.87
1686.48
1699.95
1713.27
1726.44
1739.48
1752.36
1765.11
1777.71
1790.17
1802.49
1814.67
1826.71
1838.6
1850.36
1861.98
1873.46
1884.79
1896
1907.06
1917.99
1928.78
1939.44
1949.96
1960.35
1970.6
1980.72
1990.72
2000.61
2010.36
2019.99
2029.51
2038.94
2048.23
2057.4
2066.45
2075.38
2084.19
2092.91
2101.51
2110.01
2118.41
2126.7
2134.89
2142.98
2150.97
2158.87
2166.68
2174.4
2182.03
2189.58
2197.04
2204.43
2211.74
2218.97
2226.13
2233.22
2240.24
2247.19
2254.08
2260.91
2267.68
2274.39
2281.05
2287.65
2294.21
2300.71
2307.17
2313.59
2319.97
2326.3
2332.6
2338.86
2345.09
2351.29
2357.46
2363.59
2369.71
2375.8
2381.86
2387.9
2393.93
2399.93
2405.92
2411.89
2417.84
2423.79
2429.72
2435.63
2441.54
2447.43
2453.32
2459.19
2465.06
2470.92
2476.77
2482.62
2488.46
2494.29
2500.11
2505.92
2511.73
2517.53
2523.32
2529.1
2534.87
2540.63
2546.38
2552.11
2557.82
2563.52
2569.2
2574.85
2580.48
2586.09
2591.67
2597.22
2602.74
2608.23
2613.69
2619.11
2624.51
2629.88
2635.22
2640.54
2645.82
2651.07
2656.28
2661.44
2666.56
2671.63
2676.64
2681.6
2686.49
2691.32
2696.09
2700.79
2705.42
2709.98
2714.47
2718.88
2723.22
2727.47
2731.64
2735.72
2739.71
2743.61
2747.41
2751.12
2754.73
2758.23
2761.63
2764.93
2768.11
2771.18
2774.15
2776.99
2779.72
2782.34
2784.83
2787.2
2789.45
2791.58
2793.58
2795.46
2797.21
2798.83
2800.32
2801.68
2802.91
2804.01
2804.97
2805.8
2806.49
2807.05
2807.47
2807.74
2807.88
-1148.22
-1147.82
-1146.99
-1145.75
-1144.09
-1142.02
-1139.55
-1136.68
-1133.4
-1129.73
-1125.66
-1121.2
-1116.36
-1111.12
-1105.51
-1099.52
-1093.16
-1086.43
-1079.33
-1071.87
-1064.06
-1055.89
-1047.37
-1038.51
-1029.31
-1019.77
-1009.9
-999.692
-989.162
-978.308
-967.134
-955.643
-943.839
-931.725
-919.303
-906.579
-893.554
-880.232
-866.617
-852.712
-838.521
-824.048
-809.296
-794.269
-778.972
-763.408
-747.582
-731.498
-715.162
-698.577
-681.747
-664.679
-647.377
-629.847
-612.092
-594.119
-575.933
-557.539
-538.943
-520.151
-501.167
-481.997
-462.646
-443.12
-423.425
-403.567
-383.551
-363.382
-343.067
-322.611
-302.02
-281.3
-260.458
-239.502
-218.423
-197.244
-175.969
-154.6
-133.145
-111.608
-89.9946
-68.3117
-46.5647
-24.7595
-2.90173
19.0028
40.9483
62.929
84.9393
106.974
129.027
151.093
173.166
195.242
217.315
239.381
261.434
283.469
305.482
327.467
349.421
371.338
393.214
415.046
436.828
458.558
480.23
501.842
523.389
544.868
566.276
587.61
608.865
630.04
651.132
672.137
693.054
713.879
734.61
755.244
775.779
796.213
816.544
836.769
856.886
876.895
896.793
916.578
936.248
955.804
975.241
994.561
1013.76
1032.84
1051.79
1070.63
1089.33
1107.92
1126.37
1144.7
1162.9
1180.97
1198.91
1216.71
1234.39
1251.93
1269.34
1286.61
1303.75
1320.76
1337.62
1354.35
1370.95
1387.4
1403.72
1419.89
1435.93
1451.83
1467.59
1483.21
1498.68
1514.02
1529.21
1544.26
1559.17
1573.94
1588.54
1603.03
1617.36
1631.55
1645.6
1659.5
1673.25
1686.86
1700.33
1713.65
1726.82
1739.86
1752.74
1765.49
1778.09
1790.55
1802.87
1815.04
1827.08
1838.97
1850.73
1862.34
1873.82
1885.15
1896.35
1907.42
1918.34
1929.13
1939.79
1950.31
1960.71
1970.98
1981.13
1991.13
2001.01
2010.77
2020.41
2029.93
2039.31
2048.59
2057.73
2066.77
2075.69
2084.51
2093.21
2101.8
2110.29
2118.68
2126.96
2135.14
2143.23
2151.21
2159.11
2166.91
2174.63
2182.25
2189.79
2197.25
2204.63
2211.94
2219.16
2226.32
2233.4
2240.41
2247.36
2254.24
2261.07
2267.83
2274.53
2281.19
2287.78
2294.33
2300.83
2307.29
2313.7
2320.07
2326.4
2332.69
2338.95
2345.17
2351.36
2357.53
2363.66
2369.77
2375.85
2381.91
2387.95
2393.97
2399.97
2405.96
2411.92
2417.88
2423.82
2429.74
2435.66
2441.56
2447.45
2453.34
2459.21
2465.08
2470.94
2476.79
2482.63
2488.47
2494.3
2500.12
2505.94
2511.74
2517.55
2523.34
2529.12
2534.89
2540.65
2546.4
2552.14
2557.86
2563.56
2569.24
2574.9
2580.53
2586.14
2591.72
2597.27
2602.79
2608.28
2613.72
2619.13
2624.5
2629.84
2635.16
2640.47
2645.77
2651.06
2656.33
2661.55
2666.7
2671.79
2676.82
2681.78
2686.68
2691.51
2696.29
2700.99
2705.63
2710.2
2714.69
2719.11
2723.45
2727.71
2731.88
2735.97
2739.96
2743.87
2747.67
2751.38
2754.99
2758.5
2761.91
2765.2
2768.39
2771.47
2774.43
2777.29
2780.02
2782.64
2785.13
2787.51
2789.76
2791.89
2793.9
2795.77
2797.53
2799.15
2800.64
2802
2803.23
2804.33
2805.3
2806.12
2806.82
2807.37
2807.79
2808.07
2808.21
-1150.68
-1150.27
-1149.44
-1148.19
-1146.52
-1144.45
-1141.97
-1139.08
-1135.79
-1132.1
-1128.02
-1123.54
-1118.67
-1113.42
-1107.79
-1101.78
-1095.39
-1088.64
-1081.52
-1074.04
-1066.2
-1058.01
-1049.47
-1040.58
-1031.36
-1021.79
-1011.9
-1001.67
-991.116
-980.238
-969.041
-957.527
-945.699
-933.561
-921.115
-908.366
-895.316
-881.969
-868.329
-854.398
-840.18
-825.68
-810.9
-795.846
-780.52
-764.927
-749.072
-732.959
-716.592
-699.976
-683.116
-666.017
-648.683
-631.12
-613.333
-595.328
-577.108
-558.681
-540.051
-521.224
-502.205
-483
-463.615
-444.055
-424.325
-404.433
-384.382
-364.18
-343.831
-323.343
-302.72
-281.968
-261.093
-240.101
-218.996
-197.787
-176.48
-155.08
-133.593
-112.025
-90.3823
-68.6697
-46.8936
-25.0598
-3.1741
18.7579
40.7304
62.7377
84.774
106.834
128.912
151.002
173.1
195.199
217.296
239.384
261.458
283.514
305.547
327.553
349.526
371.462
393.357
415.206
437.006
458.753
480.442
502.069
523.632
545.127
566.549
587.897
609.167
630.355
651.46
672.477
693.406
714.242
734.983
755.628
776.173
796.617
816.957
837.191
857.318
877.336
897.242
917.036
936.715
956.279
975.725
995.053
1014.26
1033.35
1052.31
1071.15
1089.86
1108.45
1126.92
1145.25
1163.46
1181.53
1199.48
1217.29
1234.98
1252.53
1269.94
1287.22
1304.37
1321.38
1338.25
1354.99
1371.59
1388.05
1404.37
1420.56
1436.6
1452.51
1468.27
1483.9
1499.38
1514.72
1529.92
1544.97
1559.88
1574.65
1589.27
1603.76
1618.09
1632.28
1646.33
1660.23
1673.99
1687.6
1701.07
1714.39
1727.57
1740.6
1753.49
1766.23
1778.83
1791.29
1803.61
1815.78
1827.81
1839.71
1851.46
1863.07
1874.54
1885.88
1897.07
1908.13
1919.05
1929.84
1940.49
1951.01
1961.4
1971.66
1981.79
1991.79
2001.66
2011.41
2021.03
2030.53
2039.9
2049.14
2058.28
2067.32
2076.25
2085.07
2093.76
2102.35
2110.83
2119.21
2127.48
2135.65
2143.72
2151.7
2159.58
2167.38
2175.08
2182.69
2190.22
2197.67
2205.04
2212.33
2219.54
2226.68
2233.75
2240.76
2247.69
2254.56
2261.37
2268.12
2274.82
2281.45
2288.04
2294.58
2301.07
2307.51
2313.91
2320.27
2326.58
2332.87
2339.11
2345.33
2351.51
2357.66
2363.79
2369.88
2375.96
2382.01
2388.04
2394.05
2400.05
2406.02
2411.98
2417.93
2423.86
2429.79
2435.69
2441.59
2447.48
2453.36
2459.24
2465.1
2470.96
2476.8
2482.65
2488.48
2494.31
2500.13
2505.95
2511.76
2517.55
2523.35
2529.13
2534.9
2540.65
2546.4
2552.13
2557.85
2563.56
2569.24
2574.91
2580.56
2586.18
2591.79
2597.37
2602.92
2608.44
2613.94
2619.41
2624.86
2630.27
2635.66
2641.01
2646.33
2651.59
2656.79
2661.95
2667.08
2672.15
2677.18
2682.15
2687.06
2691.91
2696.7
2701.42
2706.07
2710.64
2715.15
2719.58
2723.92
2728.19
2732.37
2736.47
2740.47
2744.38
2748.2
2751.92
2755.54
2759.05
2762.47
2765.77
2768.97
2772.06
2775.03
2777.89
2780.63
2783.25
2785.76
2788.14
2790.4
2792.53
2794.54
2796.43
2798.19
2799.81
2801.31
2802.68
2803.91
2805.01
2805.98
2806.81
2807.51
2808.07
2808.49
2808.76
2808.9
-1154.4
-1153.99
-1153.16
-1151.9
-1150.22
-1148.13
-1145.63
-1142.73
-1139.42
-1135.7
-1131.59
-1127.09
-1122.19
-1116.91
-1111.24
-1105.19
-1098.77
-1091.98
-1084.82
-1077.31
-1069.43
-1061.2
-1052.62
-1043.7
-1034.44
-1024.84
-1014.9
-1004.64
-994.045
-983.13
-971.894
-960.342
-948.476
-936.3
-923.816
-911.028
-897.939
-884.552
-870.871
-856.899
-842.64
-828.098
-813.276
-798.178
-782.809
-767.172
-751.272
-735.113
-718.7
-702.038
-685.131
-667.984
-650.603
-632.992
-615.156
-597.101
-578.833
-560.356
-541.677
-522.8
-503.732
-484.477
-465.042
-445.432
-425.654
-405.711
-385.612
-365.36
-344.963
-324.425
-303.753
-282.953
-262.03
-240.99
-219.839
-198.584
-177.231
-155.785
-134.252
-112.639
-90.9515
-69.1948
-47.3752
-25.4984
-3.57043
18.403
40.4161
62.4633
84.5389
106.637
128.753
150.88
173.014
195.148
217.279
239.4
261.507
283.595
305.659
327.695
349.697
371.661
393.583
415.459
437.285
459.056
480.768
502.419
524.004
545.52
566.963
588.331
609.62
630.826
651.949
672.984
693.929
714.781
735.539
756.199
776.759
797.217
817.571
837.82
857.96
877.991
897.91
917.717
937.408
956.984
976.442
995.781
1015
1034.1
1053.07
1071.92
1090.65
1109.25
1127.72
1146.07
1164.29
1182.37
1200.33
1218.15
1235.85
1253.4
1270.83
1288.12
1305.28
1322.3
1339.18
1355.93
1372.54
1389.01
1405.34
1421.53
1437.59
1453.5
1469.27
1484.9
1500.39
1515.74
1530.95
1546.01
1560.93
1575.7
1590.33
1604.82
1619.16
1633.36
1647.41
1661.32
1675.08
1688.7
1702.17
1715.49
1728.67
1741.71
1754.6
1767.35
1779.95
1792.41
1804.72
1816.9
1828.93
1840.82
1852.57
1864.17
1875.64
1886.97
1898.16
1909.21
1920.13
1930.91
1941.55
1952.06
1962.44
1972.69
1982.81
1992.8
2002.67
2012.4
2022.02
2031.51
2040.88
2050.13
2059.28
2068.28
2077.17
2085.96
2094.63
2103.2
2111.67
2120.02
2128.28
2136.43
2144.49
2152.45
2160.31
2168.09
2175.77
2183.37
2190.88
2198.31
2205.66
2212.93
2220.12
2227.24
2234.29
2241.27
2248.19
2255.04
2261.83
2268.56
2275.24
2281.86
2288.43
2294.94
2301.41
2307.84
2314.22
2320.56
2326.86
2333.13
2339.36
2345.56
2351.72
2357.86
2363.97
2370.06
2376.12
2382.16
2388.17
2394.17
2400.16
2406.12
2412.07
2418.01
2423.94
2429.85
2435.75
2441.64
2447.53
2453.4
2459.27
2465.13
2470.98
2476.83
2482.67
2488.51
2494.34
2500.16
2505.98
2511.79
2517.59
2523.38
2529.17
2534.95
2540.71
2546.47
2552.21
2557.94
2563.66
2569.36
2575.04
2580.7
2586.34
2591.96
2597.56
2603.13
2608.67
2614.19
2619.68
2625.13
2630.55
2635.94
2641.28
2646.6
2651.87
2657.14
2662.35
2667.5
2672.61
2677.66
2682.65
2687.58
2692.45
2697.26
2702
2706.67
2711.26
2715.79
2720.23
2724.6
2728.88
2733.08
2737.19
2741.21
2745.14
2748.98
2752.71
2756.35
2759.88
2763.3
2766.62
2769.84
2772.94
2775.92
2778.79
2781.55
2784.19
2786.7
2789.09
2791.37
2793.51
2795.53
2797.43
2799.19
2800.83
2802.33
2803.7
2804.94
2806.05
2807.01
2807.84
2808.59
2809.13
2809.55
2809.82
2809.96
-1159.39
-1158.98
-1158.13
-1156.86
-1155.17
-1153.06
-1150.54
-1147.6
-1144.26
-1140.52
-1136.37
-1131.83
-1126.89
-1121.56
-1115.85
-1109.76
-1103.29
-1096.45
-1089.24
-1081.67
-1073.75
-1065.47
-1056.84
-1047.86
-1038.55
-1028.89
-1018.91
-1008.59
-997.948
-986.982
-975.696
-964.093
-952.176
-939.948
-927.413
-914.573
-901.432
-887.992
-874.257
-860.232
-845.918
-831.321
-816.442
-801.287
-785.859
-770.163
-754.204
-737.984
-721.51
-704.786
-687.817
-670.607
-653.162
-635.487
-617.588
-599.468
-581.135
-562.593
-543.848
-524.906
-505.771
-486.451
-466.95
-447.273
-427.428
-407.42
-387.254
-366.937
-346.474
-325.871
-305.134
-284.269
-263.282
-242.179
-220.965
-199.648
-178.233
-156.725
-135.132
-113.459
-91.7111
-69.8956
-48.018
-26.0841
-4.09985
17.929
39.9965
62.097
84.2249
106.375
128.54
150.717
172.898
195.08
217.256
239.422
261.573
283.703
305.808
327.883
349.924
371.926
393.885
415.796
437.656
459.46
481.205
502.886
524.502
546.047
567.519
588.914
610.229
631.462
652.609
673.668
694.636
715.511
736.29
756.97
777.551
798.029
818.402
838.669
858.827
878.876
898.812
918.635
938.344
957.935
977.409
996.764
1016
1035.11
1054.1
1072.97
1091.71
1110.32
1128.81
1147.17
1165.4
1183.5
1201.47
1219.31
1237.01
1254.59
1272.02
1289.33
1306.5
1323.53
1340.43
1357.19
1373.81
1390.29
1406.64
1422.84
1438.91
1454.83
1470.62
1486.26
1501.76
1517.12
1532.33
1547.41
1562.33
1577.12
1591.76
1606.25
1620.6
1634.8
1648.86
1662.78
1676.54
1690.16
1703.64
1716.97
1730.15
1743.19
1756.08
1768.83
1781.43
1793.89
1806.2
1818.38
1830.4
1842.29
1854.03
1865.64
1877.1
1888.42
1899.6
1910.65
1921.56
1932.33
1942.96
1953.46
1963.83
1974.07
1984.17
1994.15
2004
2013.72
2023.32
2032.79
2042.14
2051.37
2060.47
2069.48
2078.36
2087.13
2095.79
2104.34
2112.78
2121.11
2129.35
2137.48
2145.51
2153.45
2161.29
2169.04
2176.69
2184.27
2191.75
2199.16
2206.48
2213.72
2220.89
2227.99
2235.01
2241.97
2248.86
2255.68
2262.45
2269.15
2275.8
2282.4
2288.94
2295.43
2301.88
2308.28
2314.64
2320.95
2327.23
2333.48
2339.68
2345.86
2352.01
2358.12
2364.22
2370.28
2376.32
2382.35
2388.35
2394.33
2400.3
2406.25
2412.19
2418.11
2424.03
2429.93
2435.82
2441.71
2447.58
2453.45
2459.32
2465.17
2471.02
2476.87
2482.71
2488.54
2494.37
2500.2
2506.02
2511.83
2517.64
2523.44
2529.23
2535.01
2540.79
2546.56
2552.31
2558.05
2563.78
2569.5
2575.19
2580.87
2586.54
2592.18
2597.8
2603.39
2608.96
2614.51
2620.02
2625.51
2630.97
2636.39
2641.79
2647.14
2652.46
2657.72
2662.93
2668.11
2673.23
2678.3
2683.31
2688.27
2693.16
2698
2702.76
2707.45
2712.08
2716.62
2721.09
2725.49
2729.79
2734.02
2738.15
2742.2
2746.15
2750
2753.76
2757.42
2760.97
2764.42
2767.76
2771
2774.12
2777.12
2780.01
2782.79
2785.44
2787.97
2790.38
2792.67
2794.83
2796.87
2798.77
2800.55
2802.2
2803.71
2805.09
2806.34
2807.46
2808.43
2809.28
2809.99
2810.55
2810.98
2811.25
2811.39
-1165.63
-1165.21
-1164.36
-1163.07
-1161.36
-1159.23
-1156.67
-1153.71
-1150.33
-1146.54
-1142.35
-1137.76
-1132.77
-1127.39
-1121.62
-1115.47
-1108.94
-1102.04
-1094.77
-1087.13
-1079.14
-1070.8
-1062.1
-1053.07
-1043.69
-1033.97
-1023.92
-1013.54
-1002.83
-991.805
-980.456
-968.79
-956.81
-944.519
-931.92
-919.016
-905.81
-892.305
-878.504
-864.411
-850.029
-835.361
-820.412
-805.185
-789.685
-773.915
-757.88
-741.585
-725.034
-708.232
-691.184
-673.895
-656.37
-638.614
-620.634
-602.433
-584.017
-565.393
-546.566
-527.54
-508.323
-488.919
-469.335
-449.576
-429.648
-409.557
-389.308
-368.909
-348.364
-327.679
-306.861
-285.915
-264.848
-243.665
-222.373
-200.977
-179.484
-157.9
-136.231
-114.482
-92.66
-70.771
-48.8208
-26.8153
-4.76054
17.3376
39.4732
61.6405
83.834
106.048
128.277
150.515
172.756
194.997
217.23
239.452
261.657
283.84
305.996
328.121
350.21
372.259
394.263
416.219
438.121
459.966
481.751
503.471
525.123
546.704
568.211
589.639
610.987
632.251
653.428
674.516
695.513
716.415
737.22
757.927
778.532
799.035
819.432
839.722
859.903
879.974
899.932
919.776
939.505
959.117
978.611
997.986
1017.24
1036.37
1055.38
1074.26
1093.02
1111.66
1130.16
1148.54
1166.79
1184.91
1202.89
1220.75
1238.47
1256.06
1273.52
1290.84
1308.02
1325.07
1341.99
1358.76
1375.4
1391.9
1408.26
1424.48
1440.56
1456.5
1472.3
1487.95
1503.47
1518.84
1534.06
1549.15
1564.09
1578.88
1593.53
1608.04
1622.39
1636.61
1650.67
1664.59
1678.37
1692
1705.48
1718.81
1732
1745.04
1757.94
1770.68
1783.29
1795.75
1808.06
1820.23
1832.26
1844.14
1855.88
1867.47
1878.93
1890.24
1901.42
1912.45
1923.35
1934.11
1944.73
1955.22
1965.57
1975.79
1985.88
1995.84
2005.67
2015.37
2024.95
2034.4
2043.73
2052.94
2062.03
2071
2079.86
2088.6
2097.24
2105.76
2114.17
2122.48
2130.68
2138.78
2146.79
2154.69
2162.5
2170.22
2177.85
2185.39
2192.84
2200.21
2207.51
2214.72
2221.85
2228.92
2235.91
2242.83
2249.69
2256.48
2263.21
2269.89
2276.5
2283.07
2289.58
2296.04
2302.46
2308.83
2315.16
2321.44
2327.69
2333.91
2340.09
2346.24
2352.36
2358.45
2364.52
2370.56
2376.58
2382.58
2388.56
2394.53
2400.48
2406.41
2412.33
2418.24
2424.14
2430.03
2435.91
2441.79
2447.65
2453.51
2459.37
2465.22
2471.07
2476.91
2482.75
2488.58
2494.41
2500.24
2506.06
2511.88
2517.7
2523.5
2529.31
2535.1
2540.89
2546.67
2552.44
2558.2
2563.95
2569.68
2575.4
2581.1
2586.79
2592.46
2598.1
2603.73
2609.33
2614.9
2620.45
2625.97
2631.45
2636.91
2642.32
2647.7
2653.03
2658.32
2663.59
2668.8
2673.96
2679.07
2684.12
2689.11
2694.04
2698.9
2703.7
2708.43
2713.08
2717.66
2722.16
2726.59
2730.93
2735.18
2739.35
2743.42
2747.4
2751.29
2755.07
2758.76
2762.34
2765.82
2769.19
2772.45
2775.59
2778.62
2781.54
2784.34
2787.01
2789.57
2792
2794.31
2796.49
2798.54
2800.47
2802.26
2803.92
2805.45
2806.84
2808.1
2809.23
2810.21
2811.06
2811.77
2812.34
2812.77
2813.05
2813.19
-1173.14
-1172.72
-1171.85
-1170.55
-1168.81
-1166.64
-1164.06
-1161.05
-1157.63
-1153.79
-1149.54
-1144.89
-1139.84
-1134.39
-1128.55
-1122.33
-1115.73
-1108.75
-1101.41
-1093.7
-1085.63
-1077.21
-1068.44
-1059.32
-1049.87
-1040.07
-1029.95
-1019.49
-1008.71
-997.609
-986.186
-974.446
-962.391
-950.025
-937.35
-924.37
-911.086
-897.502
-883.621
-869.447
-854.982
-840.23
-825.195
-809.881
-794.292
-778.433
-762.307
-745.919
-729.275
-712.378
-695.235
-677.849
-660.227
-642.374
-624.295
-605.996
-587.481
-568.757
-549.83
-530.705
-511.388
-491.884
-472.2
-452.342
-432.314
-412.123
-391.776
-371.277
-350.634
-329.851
-308.936
-287.893
-266.73
-245.451
-224.064
-202.574
-180.987
-159.311
-137.549
-115.71
-93.7985
-71.821
-49.7834
-27.6919
-5.55241
16.6291
38.8468
61.0946
83.3668
105.658
127.962
150.274
172.588
194.899
217.202
239.491
261.761
284.007
306.225
328.41
350.557
372.662
394.72
416.728
438.681
460.576
482.408
504.175
525.872
547.496
569.044
590.513
611.9
633.201
654.415
675.539
696.57
717.505
738.342
759.08
779.716
800.248
820.673
840.991
861.199
881.296
901.28
921.15
940.904
960.541
980.058
999.456
1018.73
1037.89
1056.92
1075.83
1094.61
1113.26
1131.79
1150.19
1168.46
1186.6
1204.6
1222.48
1240.22
1257.83
1275.31
1292.65
1309.86
1326.93
1343.86
1360.65
1377.31
1393.83
1410.21
1426.44
1442.54
1458.5
1474.31
1489.99
1505.52
1520.9
1536.14
1551.24
1566.2
1581
1595.67
1610.18
1624.55
1638.78
1652.85
1666.78
1680.57
1694.2
1707.69
1721.03
1734.22
1747.27
1760.16
1772.91
1785.52
1797.98
1810.29
1822.46
1834.48
1846.36
1858.09
1869.68
1881.13
1892.43
1903.59
1914.62
1925.5
1936.25
1946.85
1957.33
1967.66
1977.86
1987.93
1997.87
2007.68
2017.36
2026.91
2036.34
2045.65
2054.83
2063.89
2072.83
2081.66
2090.37
2098.97
2107.46
2115.84
2124.12
2132.29
2140.35
2148.32
2156.19
2163.96
2171.65
2179.24
2186.74
2194.15
2201.49
2208.74
2215.91
2223.01
2230.03
2236.98
2243.87
2250.68
2257.44
2264.13
2270.77
2277.34
2283.87
2290.34
2296.77
2303.15
2309.48
2315.77
2322.03
2328.24
2334.42
2340.57
2346.69
2352.78
2358.84
2364.88
2370.89
2376.88
2382.86
2388.81
2394.75
2400.68
2406.59
2412.5
2418.39
2424.27
2430.14
2436.01
2441.87
2447.73
2453.58
2459.43
2465.27
2471.12
2476.95
2482.79
2488.63
2494.46
2500.29
2506.12
2511.94
2517.77
2523.58
2529.4
2535.21
2541.01
2546.81
2552.6
2558.38
2564.15
2569.9
2575.65
2581.38
2587.09
2592.79
2598.47
2604.13
2609.76
2615.37
2620.95
2626.51
2632.03
2637.52
2642.98
2648.4
2653.78
2659.13
2664.43
2669.67
2674.86
2680
2685.09
2690.12
2695.09
2699.99
2704.83
2709.59
2714.29
2718.91
2723.45
2727.91
2732.29
2736.58
2740.78
2744.89
2748.91
2752.83
2756.66
2760.38
2763.99
2767.5
2770.9
2774.19
2777.37
2780.43
2783.38
2786.2
2788.91
2791.49
2793.95
2796.28
2798.48
2800.56
2802.5
2804.32
2805.99
2807.54
2808.95
2810.22
2811.36
2812.35
2813.21
2813.93
2814.5
2814.93
2815.22
2815.36
-1181.93
-1181.5
-1180.62
-1179.3
-1177.53
-1175.33
-1172.7
-1169.64
-1166.17
-1162.27
-1157.96
-1153.23
-1148.11
-1142.58
-1136.66
-1130.36
-1123.67
-1116.6
-1109.17
-1101.37
-1093.21
-1084.7
-1075.84
-1066.63
-1057.09
-1047.21
-1037
-1026.45
-1015.59
-1004.4
-992.888
-981.061
-968.92
-956.467
-943.704
-930.634
-917.26
-903.585
-889.61
-875.34
-860.779
-845.928
-830.793
-815.377
-799.684
-783.719
-767.486
-750.989
-734.235
-717.227
-699.972
-682.473
-664.737
-646.769
-628.575
-610.16
-591.529
-572.689
-553.645
-534.403
-514.968
-495.348
-475.547
-455.571
-435.427
-415.12
-394.657
-374.043
-353.284
-332.387
-311.357
-290.201
-268.925
-247.534
-226.035
-204.435
-182.739
-160.954
-139.086
-117.14
-95.1236
-73.0425
-50.9028
-28.7105
-6.47177
15.8074
38.1211
60.4629
82.8274
105.209
127.602
150.001
172.399
194.793
217.175
239.542
261.888
284.209
306.498
328.753
350.967
373.138
395.26
417.329
439.341
461.293
483.181
505.001
526.75
548.424
570.02
591.535
612.967
634.312
655.568
676.732
697.802
718.776
739.65
760.424
781.095
801.66
822.119
842.469
862.709
882.836
902.851
922.75
942.533
962.198
981.743
1001.17
1020.47
1039.65
1058.71
1077.64
1096.45
1115.13
1133.68
1152.11
1170.4
1188.57
1206.6
1224.5
1242.27
1259.9
1277.4
1294.76
1311.99
1329.09
1346.04
1362.86
1379.54
1396.08
1412.48
1428.74
1444.86
1460.83
1476.67
1492.36
1507.91
1523.31
1538.57
1553.69
1568.66
1583.48
1598.16
1612.69
1627.07
1641.31
1655.4
1669.34
1683.13
1696.77
1710.27
1723.62
1736.82
1749.87
1762.77
1775.52
1788.13
1800.58
1812.9
1825.06
1837.08
1848.95
1860.68
1872.26
1883.69
1894.99
1906.14
1917.15
1928.02
1938.75
1949.34
1959.79
1970.11
1980.29
1990.34
2000.25
2010.03
2019.69
2029.21
2038.61
2047.88
2057.03
2066.06
2074.97
2083.77
2092.44
2101.01
2109.46
2117.8
2126.03
2134.16
2142.19
2150.11
2157.94
2165.67
2173.31
2180.85
2188.31
2195.68
2202.97
2210.18
2217.3
2224.35
2231.33
2238.24
2245.07
2251.84
2258.55
2265.2
2271.79
2278.32
2284.8
2291.23
2297.61
2303.95
2310.24
2316.49
2322.7
2328.87
2335.01
2341.12
2347.2
2353.26
2359.28
2365.28
2371.27
2377.23
2383.17
2389.1
2395.01
2400.91
2406.8
2412.68
2418.55
2424.41
2430.27
2436.12
2441.97
2447.81
2453.65
2459.49
2465.33
2471.16
2477
2482.83
2488.67
2494.5
2500.34
2506.17
2512.01
2517.84
2523.67
2529.5
2535.32
2541.14
2546.96
2552.77
2558.57
2564.37
2570.16
2575.93
2581.69
2587.44
2593.17
2598.89
2604.58
2610.25
2615.91
2621.53
2627.13
2632.7
2638.23
2643.73
2649.2
2654.63
2660.01
2665.35
2670.64
2675.88
2681.07
2686.21
2691.29
2696.3
2701.25
2706.14
2710.95
2715.69
2720.36
2724.95
2729.45
2733.88
2738.22
2742.46
2746.62
2750.68
2754.64
2758.51
2762.27
2765.92
2769.47
2772.91
2776.24
2779.45
2782.55
2785.53
2788.39
2791.13
2793.74
2796.23
2798.59
2800.82
2802.92
2804.89
2806.72
2808.42
2809.98
2811.41
2812.7
2813.85
2814.85
2815.72
2816.44
2817.02
2817.46
2817.75
2817.89
-1192.03
-1191.59
-1190.69
-1189.34
-1187.54
-1185.3
-1182.62
-1179.51
-1175.97
-1172
-1167.61
-1162.8
-1157.59
-1151.97
-1145.96
-1139.56
-1132.77
-1125.6
-1118.06
-1110.16
-1101.9
-1093.28
-1084.32
-1075.01
-1065.36
-1055.38
-1045.07
-1034.43
-1023.46
-1012.17
-1000.57
-988.643
-976.404
-963.852
-950.989
-937.818
-924.341
-910.56
-896.479
-882.1
-867.427
-852.464
-837.213
-821.679
-805.866
-789.78
-773.423
-756.802
-739.921
-722.785
-705.4
-687.771
-669.904
-651.804
-633.477
-614.928
-596.164
-577.19
-558.011
-538.635
-519.067
-499.312
-479.377
-459.267
-438.99
-418.55
-397.953
-377.207
-356.316
-335.287
-314.127
-292.841
-271.435
-249.916
-228.29
-206.563
-184.742
-162.832
-140.841
-118.773
-96.6363
-74.4364
-52.1792
-29.8712
-7.5186
14.8726
37.2961
59.7461
82.2166
104.702
127.196
149.694
172.189
194.677
217.152
239.608
262.041
284.446
306.818
329.152
351.444
373.689
395.883
418.022
440.102
462.119
484.069
505.95
527.757
549.488
571.139
592.708
614.191
635.585
656.889
678.099
699.214
720.231
741.147
761.962
782.672
803.276
823.773
844.159
864.435
884.597
904.646
924.578
944.394
964.091
983.669
1003.13
1022.46
1041.67
1060.76
1079.72
1098.56
1117.27
1135.85
1154.3
1172.62
1190.82
1208.88
1226.8
1244.6
1262.26
1279.79
1297.18
1314.44
1331.55
1348.54
1365.38
1382.08
1398.65
1415.07
1431.36
1447.5
1463.5
1479.36
1495.07
1510.65
1526.07
1541.35
1556.49
1571.48
1586.32
1601.01
1615.56
1629.96
1644.21
1658.31
1672.27
1686.07
1699.72
1713.23
1726.58
1739.79
1752.84
1765.75
1778.51
1791.11
1803.57
1815.88
1828.04
1840.06
1851.92
1863.64
1875.21
1886.64
1897.92
1909.06
1920.05
1930.91
1941.62
1952.19
1962.62
1972.91
1983.07
1993.09
2002.97
2012.73
2022.35
2031.84
2041.21
2050.45
2059.56
2068.55
2077.42
2086.18
2094.81
2103.33
2111.74
2120.04
2128.23
2136.31
2144.29
2152.17
2159.94
2167.62
2175.21
2182.71
2190.11
2197.43
2204.67
2211.82
2218.89
2225.89
2232.81
2239.67
2246.45
2253.17
2259.82
2266.42
2272.95
2279.43
2285.86
2292.24
2298.57
2304.85
2311.09
2317.3
2323.46
2329.59
2335.68
2341.75
2347.78
2353.79
2359.78
2365.74
2371.69
2377.61
2383.52
2389.41
2395.3
2401.17
2407.03
2412.88
2418.72
2424.56
2430.4
2436.23
2442.06
2447.89
2453.72
2459.54
2465.37
2471.2
2477.03
2482.87
2488.7
2494.54
2500.38
2506.22
2512.07
2517.91
2523.75
2529.6
2535.44
2541.29
2547.12
2552.96
2558.79
2564.62
2570.43
2576.24
2582.04
2587.83
2593.6
2599.35
2605.09
2610.81
2616.51
2622.18
2627.82
2633.44
2639.03
2644.58
2650.1
2655.58
2661.02
2666.41
2671.76
2677.05
2682.3
2687.49
2692.62
2697.69
2702.69
2707.63
2712.5
2717.3
2722.02
2726.66
2731.22
2735.7
2740.09
2744.39
2748.59
2752.7
2756.72
2760.63
2764.44
2768.14
2771.74
2775.22
2778.59
2781.85
2784.98
2788
2790.9
2793.67
2796.32
2798.84
2801.23
2803.49
2805.62
2807.62
2809.48
2811.2
2812.78
2814.23
2815.53
2816.7
2817.72
2818.6
2819.33
2819.92
2820.36
2820.65
2820.8
-1203.44
-1203
-1202.08
-1200.7
-1198.86
-1196.57
-1193.84
-1190.66
-1187.04
-1182.99
-1178.52
-1173.62
-1168.31
-1162.58
-1156.46
-1149.94
-1143.04
-1135.75
-1128.1
-1120.07
-1111.69
-1102.96
-1093.87
-1084.45
-1074.69
-1064.59
-1054.17
-1043.42
-1032.34
-1020.95
-1009.23
-997.198
-984.849
-972.187
-959.213
-945.928
-932.336
-918.438
-904.237
-889.736
-874.937
-859.845
-844.464
-828.797
-812.848
-796.623
-780.127
-763.363
-746.338
-729.057
-711.525
-693.748
-675.732
-657.482
-639.004
-620.305
-601.389
-582.263
-562.934
-543.406
-523.685
-503.779
-483.693
-463.432
-443.003
-422.413
-401.667
-380.771
-359.731
-338.554
-317.246
-295.813
-274.261
-252.597
-230.827
-208.957
-186.994
-164.944
-142.813
-120.608
-98.3346
-76.0001
-53.6104
-31.1717
-8.69025
13.8276
36.3753
58.9472
81.5376
104.14
126.749
149.359
171.963
194.557
217.136
239.693
262.224
284.724
307.188
329.611
351.989
374.318
396.593
418.81
440.966
463.056
485.077
507.026
528.899
550.693
572.405
594.032
615.572
637.022
658.379
679.64
700.805
721.87
742.833
763.693
784.448
805.095
825.633
846.06
866.376
886.577
906.664
926.634
946.486
966.22
985.833
1005.32
1024.69
1043.94
1063.06
1082.06
1100.93
1119.67
1138.28
1156.77
1175.12
1193.34
1211.44
1229.4
1247.22
1264.91
1282.47
1299.89
1317.18
1334.33
1351.34
1368.21
1384.95
1401.54
1418
1434.31
1450.48
1466.51
1482.39
1498.13
1513.73
1529.18
1544.48
1559.64
1574.65
1589.51
1604.23
1618.79
1633.21
1647.48
1661.6
1675.57
1689.38
1703.05
1716.56
1729.93
1743.14
1756.2
1769.11
1781.87
1794.48
1806.94
1819.25
1831.41
1843.42
1855.28
1866.99
1878.55
1889.96
1901.23
1912.35
1923.33
1934.16
1944.85
1955.4
1965.81
1976.07
1986.2
1996.19
2006.05
2015.77
2025.36
2034.81
2044.14
2053.34
2062.41
2071.36
2080.19
2088.9
2097.49
2105.96
2114.32
2122.56
2130.7
2138.73
2146.66
2154.48
2162.2
2169.83
2177.36
2184.79
2192.14
2199.4
2206.58
2213.67
2220.68
2227.62
2234.48
2241.27
2248
2254.65
2261.25
2267.78
2274.26
2280.68
2287.05
2293.37
2299.64
2305.87
2312.05
2318.2
2324.31
2330.38
2336.43
2342.44
2348.43
2354.39
2360.33
2366.25
2372.15
2378.03
2383.9
2389.75
2395.6
2401.43
2407.26
2413.08
2418.9
2424.71
2430.53
2436.34
2442.15
2447.96
2453.77
2459.59
2465.41
2471.23
2477.06
2482.89
2488.73
2494.57
2500.41
2506.26
2512.12
2517.97
2523.83
2529.7
2535.56
2541.43
2547.29
2553.16
2559.02
2564.88
2570.73
2576.58
2582.42
2588.24
2594.06
2599.86
2605.65
2611.42
2617.17
2622.89
2628.59
2634.27
2639.91
2645.52
2651.1
2656.64
2662.14
2667.59
2673
2678.36
2683.67
2688.92
2694.11
2699.24
2704.31
2709.31
2714.25
2719.11
2723.89
2728.59
2733.21
2737.75
2742.2
2746.56
2750.82
2754.99
2759.06
2763.03
2766.89
2770.64
2774.29
2777.82
2781.24
2784.55
2787.73
2790.8
2793.74
2796.55
2799.24
2801.8
2804.22
2806.52
2808.68
2810.7
2812.59
2814.34
2815.95
2817.42
2818.74
2819.92
2820.96
2821.85
2822.59
2823.19
2823.63
2823.93
2824.08
-1216.21
-1215.75
-1214.81
-1213.4
-1211.51
-1209.17
-1206.37
-1203.12
-1199.42
-1195.28
-1190.7
-1185.69
-1180.27
-1174.42
-1168.17
-1161.53
-1154.49
-1147.07
-1139.28
-1131.12
-1122.6
-1113.73
-1104.52
-1094.96
-1085.07
-1074.85
-1064.3
-1053.43
-1042.24
-1030.72
-1018.89
-1006.73
-994.267
-981.484
-968.387
-954.978
-941.258
-927.23
-912.895
-898.258
-883.319
-868.084
-852.556
-836.74
-820.639
-804.259
-787.605
-770.681
-753.495
-736.05
-718.353
-700.41
-682.227
-663.809
-645.163
-626.294
-607.209
-587.914
-568.414
-548.717
-528.827
-508.752
-488.496
-468.067
-447.471
-426.713
-405.799
-384.736
-363.531
-342.188
-320.716
-299.119
-277.405
-255.579
-233.647
-211.618
-189.496
-167.289
-145.003
-122.644