/*--------------------------------*- C++ -*----------------------------------*\
| =========                 |                                                 |
| \\      /  F ield         | OpenFOAM: The Open Source CFD Toolbox           |
|  \\    /   O peration     | Version:  v2006                                 |
|   \\  /    A nd           | Website:  www.openfoam.com                      |
|    \\/     M anipulation  |                                                 |
\*---------------------------------------------------------------------------*/
FoamFile
{
    version     2.0;
    format      ascii;
    class       volVectorField;
    location    "12.4";
    object      U;
}
// * * * * * * * * * * * * * * * * * * * * * * * * * * * * * * * * * * * * * //

dimensions      [0 1 -1 0 0 0 0];


internalField   nonuniform List<vector> 
52500
(
(-0.00318278 0.0034152 0)
(-0.00692838 0.00188093 0)
(-0.0103468 0.00192338 0)
(-0.0144316 0.00225526 0)
(-0.0186966 0.00245684 0)
(-0.0230585 0.00253787 0)
(-0.0274254 0.00255863 0)
(-0.0317902 0.00256253 0)
(-0.0361625 0.0025697 0)
(-0.0405477 0.00258577 0)
(-0.0449468 0.00260609 0)
(-0.0493591 0.00262874 0)
(-0.0537842 0.00265181 0)
(-0.0582207 0.00267495 0)
(-0.0626667 0.00269795 0)
(-0.0671202 0.00272067 0)
(-0.0715792 0.00274274 0)
(-0.0760411 0.00276415 0)
(-0.0805031 0.00278435 0)
(-0.0849624 0.00280308 0)
(-0.0894162 0.00282015 0)
(-0.0938606 0.00283546 0)
(-0.0982924 0.00284903 0)
(-0.102708 0.00286089 0)
(-0.107105 0.00287114 0)
(-0.111478 0.00287947 0)
(-0.115824 0.00288605 0)
(-0.12014 0.00289088 0)
(-0.124421 0.00289413 0)
(-0.128665 0.00289573 0)
(-0.132868 0.00289557 0)
(-0.137027 0.00289388 0)
(-0.141138 0.00289035 0)
(-0.145197 0.0028846 0)
(-0.149203 0.00287692 0)
(-0.153152 0.00286686 0)
(-0.157044 0.00285547 0)
(-0.160873 0.00284374 0)
(-0.16464 0.002832 0)
(-0.168346 0.00282264 0)
(-0.17199 0.00281582 0)
(-0.175574 0.00281121 0)
(-0.179097 0.00280856 0)
(-0.18256 0.00280706 0)
(-0.18596 0.00280453 0)
(-0.189297 0.0027989 0)
(-0.192568 0.00278951 0)
(-0.195772 0.0027766 0)
(-0.198906 0.00276143 0)
(-0.201969 0.00274653 0)
(-0.204962 0.00273499 0)
(-0.207888 0.00272974 0)
(-0.210747 0.00273222 0)
(-0.213535 0.00273843 0)
(-0.216254 0.0027399 0)
(-0.218899 0.00272728 0)
(-0.221459 0.00268852 0)
(-0.223921 0.00261518 0)
(-0.226266 0.00250279 0)
(-0.228479 0.0023527 0)
(-0.230548 0.00217246 0)
(-0.23246 0.00197239 0)
(-0.23421 0.00176304 0)
(-0.235797 0.00155319 0)
(-0.237219 0.001349 0)
(-0.238481 0.00115349 0)
(-0.239585 0.000966998 0)
(-0.240535 0.000789524 0)
(-0.241335 0.000620793 0)
(-0.241987 0.000458897 0)
(-0.242494 0.000302779 0)
(-0.242857 0.000151687 0)
(-0.243077 5.46631e-06 0)
(-0.243154 -0.000134951 0)
(-0.243095 -0.000271034 0)
(-0.242909 -0.000400456 0)
(-0.242595 -0.000524575 0)
(-0.242155 -0.000644037 0)
(-0.241592 -0.000759629 0)
(-0.240906 -0.000870629 0)
(-0.2401 -0.000978888 0)
(-0.239177 -0.00108441 0)
(-0.238136 -0.00118735 0)
(-0.236976 -0.00128909 0)
(-0.2357 -0.00139143 0)
(-0.234309 -0.00149376 0)
(-0.232802 -0.00159639 0)
(-0.23118 -0.00169916 0)
(-0.229444 -0.0018015 0)
(-0.227594 -0.00190261 0)
(-0.225635 -0.00200152 0)
(-0.223567 -0.00209707 0)
(-0.221394 -0.00218866 0)
(-0.219119 -0.00227683 0)
(-0.216748 -0.00236095 0)
(-0.214283 -0.00243927 0)
(-0.211725 -0.00251384 0)
(-0.209078 -0.00258634 0)
(-0.20635 -0.00265604 0)
(-0.203538 -0.00272352 0)
(-0.200647 -0.00278904 0)
(-0.197679 -0.00285318 0)
(-0.194638 -0.00291584 0)
(-0.191522 -0.00297699 0)
(-0.188337 -0.00303621 0)
(-0.185085 -0.00309345 0)
(-0.181769 -0.00314843 0)
(-0.17839 -0.00320071 0)
(-0.174952 -0.00324954 0)
(-0.171457 -0.00329412 0)
(-0.167909 -0.00333299 0)
(-0.164311 -0.00336481 0)
(-0.160669 -0.00338556 0)
(-0.15699 -0.00339049 0)
(-0.153282 -0.00337683 0)
(-0.149556 -0.00334754 0)
(-0.145818 -0.00331132 0)
(-0.14207 -0.00327781 0)
(-0.138311 -0.00325283 0)
(-0.134541 -0.00323703 0)
(-0.130759 -0.00322782 0)
(-0.126964 -0.00322211 0)
(-0.123159 -0.00321772 0)
(-0.119345 -0.00321327 0)
(-0.115524 -0.00320817 0)
(-0.111699 -0.0032019 0)
(-0.107871 -0.00319404 0)
(-0.104044 -0.00318427 0)
(-0.100221 -0.00317231 0)
(-0.096403 -0.00315792 0)
(-0.0925936 -0.00314098 0)
(-0.0887956 -0.00312135 0)
(-0.0850116 -0.00309885 0)
(-0.0812444 -0.00307341 0)
(-0.0774966 -0.00304489 0)
(-0.0737709 -0.00301334 0)
(-0.0700703 -0.00297863 0)
(-0.0663972 -0.00294073 0)
(-0.0627544 -0.00289959 0)
(-0.0591445 -0.00285515 0)
(-0.05557 -0.00280738 0)
(-0.0520333 -0.00275619 0)
(-0.0485368 -0.00270151 0)
(-0.0450825 -0.00264323 0)
(-0.0416721 -0.00258129 0)
(-0.0383073 -0.00251562 0)
(-0.0349894 -0.00244617 0)
(-0.0317197 -0.00237269 0)
(-0.0284997 -0.0022944 0)
(-0.0253319 -0.00220967 0)
(-0.0222201 -0.00211567 0)
(-0.0191705 -0.00200848 0)
(-0.0161916 -0.00188366 0)
(-0.0132947 -0.00173732 0)
(-0.0104924 -0.00156755 0)
(-0.00779829 -0.00137542 0)
(-0.0052243 -0.00116534 0)
(-0.00277995 -0.00094428 0)
(-0.000471214 -0.000719871 0)
(0.00169928 -0.000498463 0)
(0.00373128 -0.000283555 0)
(0.00562549 -7.52372e-05 0)
(0.0073822 0.000129076 0)
(0.00900042 0.000333282 0)
(0.0104778 0.000540861 0)
(0.0118108 0.000753332 0)
(0.0129951 0.000969777 0)
(0.0140279 0.00118363 0)
(0.0149105 0.00138497 0)
(0.01565 0.00155927 0)
(0.0162613 0.00169209 0)
(0.0167665 0.00177492 0)
(0.017191 0.0018083 0)
(0.0175581 0.0017997 0)
(0.0178847 0.00175814 0)
(0.0181829 0.00169198 0)
(0.0184628 0.00160422 0)
(0.018736 0.00149136 0)
(0.0190178 0.0013477 0)
(0.0193259 0.00117129 0)
(0.0196779 0.000968957 0)
(0.0200861 0.00075697 0)
(0.0205534 0.000557891 0)
(0.0210711 0.000393826 0)
(0.0216203 0.00027978 0)
(0.0221765 0.000219492 0)
(0.0227149 0.000205893 0)
(0.0232154 0.000225364 0)
(0.0236645 0.000262703 0)
(0.0240556 0.000305261 0)
(0.0243874 0.000344685 0)
(0.0246622 0.000376169 0)
(0.024884 0.000397712 0)
(0.0250576 0.000408698 0)
(0.0251884 0.000409412 0)
(0.025282 0.000400205 0)
(0.0253438 0.000381603 0)
(0.0253791 0.00035395 0)
(0.0253934 0.000317679 0)
(0.025394 0.000273074 0)
(0.0253875 0.000218801 0)
(0.0253788 0.00015486 0)
(0.0253732 8.24978e-05 0)
(0.0253746 4.52888e-06 0)
(0.025388 -7.33962e-05 0)
(0.0254159 -0.000144606 0)
(0.0254552 -0.000203439 0)
(0.0254982 -0.000243067 0)
(0.0255344 -0.000258938 0)
(0.0255522 -0.000250142 0)
(0.0255414 -0.000217892 0)
(0.0254906 -0.000164662 0)
(0.025388 -9.23823e-05 0)
(0.0252242 -5.54063e-06 0)
(0.0249934 8.80986e-05 0)
(0.0246938 0.000178776 0)
(0.0243285 0.000257187 0)
(0.0239043 0.000316814 0)
(0.0234305 0.000355221 0)
(0.0229169 0.000374022 0)
(0.0223726 0.000377775 0)
(0.0218045 0.000372331 0)
(0.0212175 0.000363257 0)
(0.0206144 0.000354777 0)
(0.0199963 0.000349305 0)
(0.0193637 0.000347545 0)
(0.0187165 0.000348958 0)
(0.0180546 0.000352361 0)
(0.0173784 0.000356507 0)
(0.0166881 0.000360473 0)
(0.0159842 0.000363812 0)
(0.0152673 0.000366478 0)
(0.0145377 0.000368658 0)
(0.0137957 0.000370646 0)
(0.0130415 0.00037269 0)
(0.0122753 0.000374907 0)
(0.0114971 0.000377323 0)
(0.0107071 0.00037993 0)
(0.00990519 0.000382696 0)
(0.00909161 0.000385616 0)
(0.00826646 0.000388757 0)
(0.00742987 0.00039225 0)
(0.00658189 0.000396236 0)
(0.00572261 0.000400877 0)
(0.00485206 0.00040642 0)
(0.00397019 0.000413105 0)
(0.00307696 0.000421196 0)
(0.00217215 0.000430992 0)
(0.00125546 0.00044281 0)
(0.000326487 0.000457058 0)
(-0.000615365 0.000474228 0)
(-0.00157082 0.000494882 0)
(-0.00254106 0.000519712 0)
(-0.00352746 0.00054963 0)
(-0.00453176 0.00058565 0)
(-0.00555631 0.000629053 0)
(-0.00660408 0.000681203 0)
(-0.00767819 0.000743564 0)
(-0.008783 0.000817659 0)
(-0.0099236 0.00090282 0)
(-0.0111027 0.000994656 0)
(-0.0123205 0.0010889 0)
(-0.0135775 0.00118499 0)
(-0.0148738 0.00128471 0)
(-0.0162102 0.00138787 0)
(-0.0175885 0.00149295 0)
(-0.0190088 0.00159737 0)
(-0.0204705 0.0016989 0)
(-0.0219729 0.00179682 0)
(-0.0235165 0.00189259 0)
(-0.0251018 0.00199059 0)
(-0.0267328 0.00209593 0)
(-0.0284183 0.00221408 0)
(-0.0301675 0.00235032 0)
(-0.0319943 0.00250527 0)
(-0.0339106 0.00267961 0)
(-0.0359292 0.00286904 0)
(-0.0380671 0.00306964 0)
(-0.0403306 0.00327914 0)
(-0.0427294 0.00348934 0)
(-0.0452739 0.0036936 0)
(-0.0479685 0.00388169 0)
(-0.0508035 0.00404231 0)
(-0.0537714 0.00415907 0)
(-0.0568619 0.00422608 0)
(-0.0600488 0.0042414 0)
(-0.0633064 0.0042073 0)
(-0.0666066 0.00412544 0)
(-0.0699182 0.00399896 0)
(-0.0732063 0.00383202 0)
(-0.0764356 0.00362862 0)
(-0.0795671 0.00338156 0)
(-0.0825454 0.00306715 0)
(-0.0852897 0.00264332 0)
(-0.0877011 0.00208567 0)
(-0.0896759 0.0014287 0)
(-0.0911508 0.000768058 0)
(-0.0921317 0.000223108 0)
(-0.0926821 -0.000127545 0)
(-0.0929017 -0.000278083 0)
(-0.0929054 -0.000282098 0)
(-0.0927847 -0.000210526 0)
(-0.0926002 -0.000131788 0)
(-0.0923662 -0.000101959 0)
(-0.0920764 -0.000144862 0)
(-0.0917129 -0.000261931 0)
(-0.0912548 -0.000438698 0)
(-0.0906865 -0.000653904 0)
(-0.0899995 -0.000885643 0)
(-0.0891925 -0.00111682 0)
(-0.088267 -0.00133533 0)
(-0.0872245 -0.00153426 0)
(-0.0860662 -0.00171119 0)
(-0.0847937 -0.00186687 0)
(-0.0834124 -0.00200031 0)
(-0.08193 -0.00211698 0)
(-0.0803563 -0.00222071 0)
(-0.0787005 -0.00231541 0)
(-0.0769712 -0.00240332 0)
(-0.0751755 -0.00248774 0)
(-0.073319 -0.00256975 0)
(-0.0714068 -0.00265105 0)
(-0.069443 -0.0027322 0)
(-0.0674315 -0.00281344 0)
(-0.0653757 -0.00289499 0)
(-0.0632786 -0.00297666 0)
(-0.0611419 -0.0030591 0)
(-0.0589674 -0.0031422 0)
(-0.056757 -0.00322672 0)
(-0.054512 -0.0033133 0)
(-0.0522333 -0.00340253 0)
(-0.0499212 -0.00349454 0)
(-0.0475756 -0.00358918 0)
(-0.0451952 -0.0036861 0)
(-0.0427784 -0.00378462 0)
(-0.0403234 -0.00388357 0)
(-0.0378278 -0.00398163 0)
(-0.0352891 -0.00407777 0)
(-0.0327055 -0.00417086 0)
(-0.0300751 -0.0042591 0)
(-0.027397 -0.00433962 0)
(-0.0246722 -0.00440825 0)
(-0.0219037 -0.00446134 0)
(-0.0190957 -0.00450208 0)
(-0.0162508 -0.0045485 0)
(-0.0133589 -0.00464215 0)
(-0.0103971 -0.00483559 0)
(-0.00737685 -0.00511998 0)
(-0.00416134 -0.00508431 0)
(-0.00102905 -0.00375673 0)
(-0.00380292 0.0131595 0)
(-0.00851293 0.00981353 0)
(-0.0134512 0.0105107 0)
(-0.0189552 0.0113944 0)
(-0.0247125 0.011723 0)
(-0.0304929 0.0117773 0)
(-0.0362383 0.0117781 0)
(-0.0419698 0.0117903 0)
(-0.0477009 0.0118146 0)
(-0.0534367 0.0118412 0)
(-0.0591716 0.0118645 0)
(-0.0648981 0.0118837 0)
(-0.0706147 0.0118984 0)
(-0.0763184 0.0119081 0)
(-0.0820061 0.011912 0)
(-0.0876742 0.0119091 0)
(-0.0933185 0.0118991 0)
(-0.0989348 0.0118812 0)
(-0.104519 0.0118551 0)
(-0.110065 0.0118204 0)
(-0.115567 0.0117766 0)
(-0.121022 0.0117233 0)
(-0.126422 0.0116601 0)
(-0.131762 0.011587 0)
(-0.137038 0.0115036 0)
(-0.142243 0.0114098 0)
(-0.147371 0.0113057 0)
(-0.152418 0.0111915 0)
(-0.157379 0.0110674 0)
(-0.162249 0.0109336 0)
(-0.167022 0.0107903 0)
(-0.171696 0.0106376 0)
(-0.176265 0.010476 0)
(-0.180727 0.0103063 0)
(-0.185078 0.0101294 0)
(-0.189318 0.00994681 0)
(-0.193443 0.0097604 0)
(-0.197453 0.00957104 0)
(-0.201345 0.00937891 0)
(-0.205121 0.00918533 0)
(-0.208779 0.00899041 0)
(-0.212316 0.00879428 0)
(-0.215731 0.00859611 0)
(-0.219023 0.00839512 0)
(-0.222193 0.00819072 0)
(-0.22524 0.00798289 0)
(-0.228164 0.00777218 0)
(-0.230966 0.0075593 0)
(-0.233648 0.00734499 0)
(-0.236207 0.00712926 0)
(-0.238644 0.0069119 0)
(-0.240959 0.00669218 0)
(-0.243148 0.00646852 0)
(-0.245211 0.00623761 0)
(-0.247146 0.00599569 0)
(-0.248956 0.00574103 0)
(-0.250646 0.0054719 0)
(-0.252223 0.00518819 0)
(-0.253695 0.00489042 0)
(-0.255071 0.00458016 0)
(-0.25636 0.00426136 0)
(-0.257566 0.00393764 0)
(-0.258692 0.00361125 0)
(-0.259739 0.00328491 0)
(-0.260704 0.00296015 0)
(-0.261587 0.0026381 0)
(-0.262384 0.00231914 0)
(-0.26309 0.00200311 0)
(-0.263706 0.00168988 0)
(-0.264229 0.0013788 0)
(-0.264659 0.00106951 0)
(-0.264994 0.000762036 0)
(-0.265235 0.000456604 0)
(-0.265383 0.000154182 0)
(-0.265433 -0.000145589 0)
(-0.265376 -0.000440631 0)
(-0.265212 -0.00073215 0)
(-0.264943 -0.00102086 0)
(-0.264565 -0.00130727 0)
(-0.264078 -0.00159173 0)
(-0.263483 -0.00187485 0)
(-0.262779 -0.00215672 0)
(-0.261965 -0.00243698 0)
(-0.261041 -0.00271644 0)
(-0.260009 -0.00299573 0)
(-0.258869 -0.00327345 0)
(-0.257623 -0.00354912 0)
(-0.256272 -0.00382212 0)
(-0.254818 -0.00409138 0)
(-0.253263 -0.00435601 0)
(-0.251609 -0.00461507 0)
(-0.249857 -0.00486764 0)
(-0.248012 -0.00511312 0)
(-0.246073 -0.00535145 0)
(-0.244041 -0.00558241 0)
(-0.24192 -0.00580536 0)
(-0.239712 -0.00602103 0)
(-0.237418 -0.00623064 0)
(-0.235042 -0.00643336 0)
(-0.232585 -0.00662947 0)
(-0.23005 -0.00681921 0)
(-0.22744 -0.00700291 0)
(-0.224757 -0.00718022 0)
(-0.222003 -0.00735142 0)
(-0.219183 -0.00751665 0)
(-0.216298 -0.00767558 0)
(-0.213351 -0.00782847 0)
(-0.210344 -0.00797523 0)
(-0.207279 -0.00811614 0)
(-0.204157 -0.00825197 0)
(-0.200981 -0.00838228 0)
(-0.197751 -0.00850606 0)
(-0.194467 -0.00862012 0)
(-0.191126 -0.00872172 0)
(-0.187727 -0.00881014 0)
(-0.184265 -0.0088874 0)
(-0.180744 -0.0089566 0)
(-0.177169 -0.00902005 0)
(-0.173548 -0.00907844 0)
(-0.169888 -0.00913152 0)
(-0.166197 -0.00917873 0)
(-0.16248 -0.00921972 0)
(-0.158741 -0.00925431 0)
(-0.154983 -0.00928244 0)
(-0.151209 -0.00930414 0)
(-0.147423 -0.00931935 0)
(-0.143626 -0.00932811 0)
(-0.139822 -0.00933041 0)
(-0.136013 -0.00932626 0)
(-0.132201 -0.0093157 0)
(-0.128389 -0.00929888 0)
(-0.124578 -0.0092758 0)
(-0.120771 -0.00924659 0)
(-0.116969 -0.00921134 0)
(-0.113175 -0.00917014 0)
(-0.10939 -0.00912324 0)
(-0.105615 -0.00907067 0)
(-0.101853 -0.00901258 0)
(-0.0981054 -0.00894915 0)
(-0.0943726 -0.00888061 0)
(-0.0906563 -0.00880734 0)
(-0.0869576 -0.00872986 0)
(-0.0832776 -0.0086489 0)
(-0.0796171 -0.00856535 0)
(-0.0759769 -0.00848018 0)
(-0.0723576 -0.00839428 0)
(-0.0687593 -0.00830818 0)
(-0.0651822 -0.00822174 0)
(-0.0616256 -0.00813384 0)
(-0.0580885 -0.00804223 0)
(-0.0545689 -0.00794356 0)
(-0.0510641 -0.00783381 0)
(-0.0475704 -0.00770905 0)
(-0.0440839 -0.00756617 0)
(-0.0406009 -0.00740353 0)
(-0.0371184 -0.00722146 0)
(-0.0336361 -0.00702209 0)
(-0.0301557 -0.0068087 0)
(-0.0266811 -0.00658486 0)
(-0.0232182 -0.00635368 0)
(-0.0197729 -0.00611721 0)
(-0.0163501 -0.00587627 0)
(-0.012953 -0.00563073 0)
(-0.00958256 -0.0053798 0)
(-0.00623812 -0.00512241 0)
(-0.00291685 -0.00485773 0)
(0.000381172 -0.0045856 0)
(0.00365554 -0.00430782 0)
(0.00690337 -0.00402968 0)
(0.0101129 -0.00376007 0)
(0.0132672 -0.0035092 0)
(0.0163449 -0.00328473 0)
(0.0193234 -0.00308882 0)
(0.0221853 -0.00291764 0)
(0.0249235 -0.00276464 0)
(0.0275375 -0.00262503 0)
(0.0300276 -0.00249828 0)
(0.0323921 -0.00238782 0)
(0.0346261 -0.00229859 0)
(0.0367228 -0.002234 0)
(0.0386757 -0.0021929 0)
(0.0404821 -0.0021684 0)
(0.0421465 -0.00214876 0)
(0.0436816 -0.00212051 0)
(0.0451066 -0.00207214 0)
(0.046443 -0.00199713 0)
(0.0477105 -0.00189499 0)
(0.0489233 -0.0017702 0)
(0.0500886 -0.00162984 0)
(0.0512078 -0.00148125 0)
(0.0522783 -0.00133054 0)
(0.0532951 -0.00118192 0)
(0.054253 -0.00103813 0)
(0.0551469 -0.000900794 0)
(0.0559727 -0.000770798 0)
(0.0567269 -0.000648729 0)
(0.057407 -0.000535231 0)
(0.0580114 -0.000430884 0)
(0.0585386 -0.000336036 0)
(0.0589864 -0.000250994 0)
(0.0593533 -0.000176964 0)
(0.0596397 -0.000114067 0)
(0.0598465 -6.19111e-05 0)
(0.0599756 -1.8977e-05 0)
(0.0600296 1.75051e-05 0)
(0.0600066 4.93693e-05 0)
(0.0599106 8.24078e-05 0)
(0.0597551 0.000123332 0)
(0.0595529 0.00017731 0)
(0.0593139 0.000246309 0)
(0.0590443 0.000330296 0)
(0.0587495 0.00042759 0)
(0.0584332 0.00053687 0)
(0.0580959 0.000656225 0)
(0.0577354 0.000782589 0)
(0.0573472 0.00091167 0)
(0.0569247 0.00103857 0)
(0.0564607 0.00115877 0)
(0.0559489 0.00126903 0)
(0.0553849 0.00136775 0)
(0.054767 0.00145483 0)
(0.0540963 0.00153126 0)
(0.053376 0.00159859 0)
(0.0526107 0.00165855 0)
(0.0518054 0.00171273 0)
(0.0509646 0.00176256 0)
(0.050092 0.00180914 0)
(0.0491903 0.00185335 0)
(0.0482613 0.00189581 0)
(0.047306 0.00193696 0)
(0.0463252 0.00197709 0)
(0.0453193 0.00201641 0)
(0.0442887 0.00205501 0)
(0.0432339 0.00209298 0)
(0.0421553 0.00213038 0)
(0.0410533 0.00216726 0)
(0.0399284 0.00220367 0)
(0.0387809 0.00223961 0)
(0.0376112 0.00227508 0)
(0.0364196 0.00231001 0)
(0.0352067 0.00234434 0)
(0.0339729 0.002378 0)
(0.0327189 0.00241091 0)
(0.0314454 0.00244298 0)
(0.0301533 0.00247414 0)
(0.0288435 0.00250437 0)
(0.0275172 0.00253363 0)
(0.0261757 0.00256197 0)
(0.0248204 0.00258938 0)
(0.0234532 0.00261589 0)
(0.0220758 0.00264157 0)
(0.0206906 0.00266658 0)
(0.0192999 0.00269113 0)
(0.0179068 0.0027156 0)
(0.0165147 0.00274036 0)
(0.0151275 0.00276588 0)
(0.0137497 0.00279263 0)
(0.0123864 0.00282106 0)
(0.0110433 0.00285166 0)
(0.00972716 0.00288435 0)
(0.008443 0.00291757 0)
(0.0071931 0.00294946 0)
(0.00597902 0.00297883 0)
(0.00480259 0.00300827 0)
(0.00366569 0.00303779 0)
(0.00257024 0.00306805 0)
(0.00151739 0.00309919 0)
(0.000507306 0.0031312 0)
(-0.000461029 0.00316576 0)
(-0.00138887 0.00320471 0)
(-0.00227701 0.00325156 0)
(-0.00312659 0.00330994 0)
(-0.00393552 0.00338447 0)
(-0.00470252 0.00347984 0)
(-0.00542658 0.0035986 0)
(-0.00610605 0.00374512 0)
(-0.00674372 0.00392006 0)
(-0.00734018 0.00412445 0)
(-0.00790018 0.00435964 0)
(-0.00843246 0.00462152 0)
(-0.00894474 0.00490757 0)
(-0.00944755 0.00521109 0)
(-0.00995311 0.00552567 0)
(-0.0104727 0.0058329 0)
(-0.0110227 0.00612469 0)
(-0.0116166 0.00638531 0)
(-0.0122641 0.00660105 0)
(-0.0129667 0.0067572 0)
(-0.0137179 0.006839 0)
(-0.0145016 0.00683097 0)
(-0.0152873 0.00671316 0)
(-0.0160242 0.00646827 0)
(-0.0166606 0.00607742 0)
(-0.0171674 0.0055232 0)
(-0.0175303 0.00480184 0)
(-0.0177523 0.00394562 0)
(-0.017841 0.00301328 0)
(-0.0178154 0.00209021 0)
(-0.0176845 0.00125493 0)
(-0.0174429 0.000571802 0)
(-0.0170983 5.14258e-05 0)
(-0.0166778 -0.000324399 0)
(-0.0162125 -0.000587643 0)
(-0.0157328 -0.000779996 0)
(-0.0152419 -0.000940941 0)
(-0.0147376 -0.00109508 0)
(-0.0142108 -0.00125387 0)
(-0.0136561 -0.00141667 0)
(-0.0130748 -0.00157869 0)
(-0.0124718 -0.00174004 0)
(-0.0118529 -0.00190688 0)
(-0.0112254 -0.00208619 0)
(-0.0105976 -0.00228115 0)
(-0.00996387 -0.00248762 0)
(-0.0093236 -0.00269819 0)
(-0.00868004 -0.00289676 0)
(-0.00802613 -0.00307788 0)
(-0.00735573 -0.00323809 0)
(-0.00666732 -0.00337834 0)
(-0.00596188 -0.00350112 0)
(-0.00524118 -0.00360901 0)
(-0.00451128 -0.00370314 0)
(-0.00377708 -0.00378387 0)
(-0.00304516 -0.00385199 0)
(-0.00232104 -0.00391177 0)
(-0.00161117 -0.00396118 0)
(-0.000920641 -0.004004 0)
(-0.000254845 -0.00404082 0)
(0.000378198 -0.00407161 0)
(0.000971308 -0.00409662 0)
(0.0015175 -0.00411657 0)
(0.00200965 -0.00413333 0)
(0.00244042 -0.00414961 0)
(0.00280284 -0.00416784 0)
(0.00309139 -0.00419055 0)
(0.00330246 -0.00422004 0)
(0.0034339 -0.00425831 0)
(0.00348569 -0.00430669 0)
(0.00346046 -0.00436572 0)
(0.0033628 -0.0044354 0)
(0.00319863 -0.00451411 0)
(0.00297627 -0.00459989 0)
(0.00270593 -0.00469033 0)
(0.00240145 -0.00478432 0)
(0.00206766 -0.0048783 0)
(0.0017238 -0.00497076 0)
(0.00132784 -0.00502743 0)
(0.000878946 -0.00511322 0)
(0.000253803 -0.0053677 0)
(0.000153267 -0.00476396 0)
(-0.00390684 0.0234555 0)
(-0.00844537 0.0176775 0)
(-0.0130554 0.0190247 0)
(-0.0182982 0.0206469 0)
(-0.0239173 0.021266 0)
(-0.0295955 0.0213294 0)
(-0.0352306 0.0212779 0)
(-0.0408306 0.0212585 0)
(-0.046416 0.0212686 0)
(-0.0519976 0.0212819 0)
(-0.057575 0.0212885 0)
(-0.0631439 0.0212841 0)
(-0.0687018 0.02127 0)
(-0.0742455 0.0212458 0)
(-0.0797715 0.0212094 0)
(-0.0852759 0.0211598 0)
(-0.0907546 0.0210957 0)
(-0.0962023 0.0210158 0)
(-0.101614 0.0209191 0)
(-0.106986 0.0208042 0)
(-0.112312 0.0206709 0)
(-0.117588 0.0205186 0)
(-0.122806 0.0203467 0)
(-0.127963 0.020155 0)
(-0.133052 0.0199434 0)
(-0.138069 0.0197127 0)
(-0.143007 0.0194632 0)
(-0.14786 0.0191951 0)
(-0.152625 0.0189092 0)
(-0.157298 0.0186065 0)
(-0.161874 0.0182879 0)
(-0.166351 0.0179545 0)
(-0.170725 0.0176075 0)
(-0.174994 0.0172486 0)
(-0.179155 0.0168792 0)
(-0.183208 0.0165013 0)
(-0.18715 0.0161173 0)
(-0.190981 0.0157286 0)
(-0.1947 0.0153363 0)
(-0.198305 0.0149419 0)
(-0.201794 0.014546 0)
(-0.205167 0.0141488 0)
(-0.208426 0.01375 0)
(-0.21157 0.0133495 0)
(-0.214599 0.012947 0)
(-0.217514 0.0125422 0)
(-0.220315 0.0121351 0)
(-0.223003 0.011726 0)
(-0.22558 0.0113156 0)
(-0.228047 0.0109047 0)
(-0.230402 0.010494 0)
(-0.232648 0.0100846 0)
(-0.234786 0.00967746 0)
(-0.236819 0.00927202 0)
(-0.238748 0.00886661 0)
(-0.240576 0.00845937 0)
(-0.242306 0.00804816 0)
(-0.24394 0.00762983 0)
(-0.245484 0.00720261 0)
(-0.246935 0.00676557 0)
(-0.248294 0.00631887 0)
(-0.249563 0.00586356 0)
(-0.25074 0.00540139 0)
(-0.251822 0.00493406 0)
(-0.252809 0.00446308 0)
(-0.253697 0.00398997 0)
(-0.254484 0.00351605 0)
(-0.25517 0.00304176 0)
(-0.255753 0.00256718 0)
(-0.25623 0.00209321 0)
(-0.256602 0.00161999 0)
(-0.256867 0.00114762 0)
(-0.257024 0.000675978 0)
(-0.257073 0.00020456 0)
(-0.257012 -0.000265375 0)
(-0.256841 -0.000735375 0)
(-0.256559 -0.00120494 0)
(-0.256166 -0.00167344 0)
(-0.255662 -0.0021401 0)
(-0.255046 -0.00260582 0)
(-0.25432 -0.0030694 0)
(-0.253482 -0.00353111 0)
(-0.252534 -0.00399058 0)
(-0.251477 -0.00444764 0)
(-0.250312 -0.00490182 0)
(-0.249039 -0.00535265 0)
(-0.24766 -0.00579948 0)
(-0.246177 -0.00624101 0)
(-0.244591 -0.00667595 0)
(-0.242903 -0.00710337 0)
(-0.241115 -0.00752224 0)
(-0.239228 -0.00793192 0)
(-0.237244 -0.00833164 0)
(-0.235165 -0.00872045 0)
(-0.232992 -0.00909873 0)
(-0.230727 -0.00946713 0)
(-0.228373 -0.00982476 0)
(-0.225931 -0.0101721 0)
(-0.223404 -0.0105093 0)
(-0.220793 -0.0108362 0)
(-0.218102 -0.0111527 0)
(-0.215334 -0.0114589 0)
(-0.212492 -0.0117543 0)
(-0.209577 -0.0120391 0)
(-0.206594 -0.0123136 0)
(-0.203546 -0.0125773 0)
(-0.200436 -0.0128302 0)
(-0.197267 -0.0130724 0)
(-0.194043 -0.0133042 0)
(-0.190769 -0.0135261 0)
(-0.187448 -0.0137381 0)
(-0.184085 -0.0139417 0)
(-0.180684 -0.0141381 0)
(-0.177247 -0.0143281 0)
(-0.173776 -0.0145098 0)
(-0.170271 -0.014679 0)
(-0.166735 -0.0148316 0)
(-0.163169 -0.0149656 0)
(-0.159578 -0.0150819 0)
(-0.155963 -0.0151828 0)
(-0.152329 -0.0152704 0)
(-0.148678 -0.0153461 0)
(-0.145012 -0.0154104 0)
(-0.141334 -0.0154639 0)
(-0.137648 -0.0155065 0)
(-0.133954 -0.0155386 0)
(-0.130257 -0.0155604 0)
(-0.126557 -0.0155721 0)
(-0.122858 -0.0155738 0)
(-0.119162 -0.0155656 0)
(-0.115471 -0.0155477 0)
(-0.111787 -0.0155203 0)
(-0.108113 -0.0154836 0)
(-0.10445 -0.0154377 0)
(-0.1008 -0.0153828 0)
(-0.0971657 -0.0153193 0)
(-0.0935487 -0.0152473 0)
(-0.0899506 -0.0151671 0)
(-0.0863733 -0.0150792 0)
(-0.0828182 -0.0149837 0)
(-0.0792871 -0.0148809 0)
(-0.0757815 -0.0147711 0)
(-0.0723032 -0.0146545 0)
(-0.0688538 -0.0145316 0)
(-0.0654356 -0.0144027 0)
(-0.0620508 -0.0142684 0)
(-0.0587023 -0.0141293 0)
(-0.0553933 -0.0139865 0)
(-0.0521272 -0.0138406 0)
(-0.0489073 -0.013692 0)
(-0.0457366 -0.0135409 0)
(-0.0426171 -0.0133864 0)
(-0.03955 -0.0132264 0)
(-0.0365347 -0.013058 0)
(-0.0335698 -0.0128774 0)
(-0.0306532 -0.0126811 0)
(-0.0277823 -0.0124663 0)
(-0.0249552 -0.0122317 0)
(-0.0221703 -0.0119783 0)
(-0.0194271 -0.0117089 0)
(-0.0167255 -0.0114276 0)
(-0.0140659 -0.0111389 0)
(-0.0114485 -0.0108468 0)
(-0.00887349 -0.0105541 0)
(-0.00634062 -0.0102624 0)
(-0.00384888 -0.00997188 0)
(-0.00139637 -0.00968167 0)
(0.00101938 -0.00938737 0)
(0.00340077 -0.00908437 0)
(0.00574854 -0.0087671 0)
(0.0080611 -0.00843279 0)
(0.010335 -0.00808408 0)
(0.0125665 -0.00772868 0)
(0.0147529 -0.0073757 0)
(0.0168901 -0.00703264 0)
(0.0189723 -0.00670449 0)
(0.0209958 -0.00639172 0)
(0.0229583 -0.00609195 0)
(0.0248562 -0.00580222 0)
(0.0266836 -0.00552056 0)
(0.0284342 -0.0052474 0)
(0.0301024 -0.00498522 0)
(0.0316853 -0.00473735 0)
(0.0331836 -0.00450612 0)
(0.0346016 -0.00429136 0)
(0.035946 -0.00409007 0)
(0.0372243 -0.003897 0)
(0.0384433 -0.0037061 0)
(0.0396077 -0.00351194 0)
(0.0407201 -0.00331091 0)
(0.0417819 -0.0031019 0)
(0.0427934 -0.00288559 0)
(0.043754 -0.0026634 0)
(0.0446632 -0.00243735 0)
(0.0455204 -0.00220957 0)
(0.0463243 -0.00198216 0)
(0.0470733 -0.00175658 0)
(0.0477663 -0.00153397 0)
(0.0484018 -0.00131597 0)
(0.0489777 -0.00110385 0)
(0.0494924 -0.000897958 0)
(0.0499439 -0.000699134 0)
(0.0503299 -0.000508558 0)
(0.0506484 -0.000327368 0)
(0.0508962 -0.000157513 0)
(0.0510752 -2.6787e-07 0)
(0.0511912 0.000146995 0)
(0.0512458 0.000284135 0)
(0.0512396 0.000411367 0)
(0.0511751 0.000533502 0)
(0.0510569 0.000657495 0)
(0.0508888 0.00079095 0)
(0.0506738 0.000938951 0)
(0.0504145 0.00110361 0)
(0.0501124 0.00128411 0)
(0.0497684 0.0014773 0)
(0.0493826 0.00167841 0)
(0.0489543 0.00188164 0)
(0.0484827 0.00208091 0)
(0.0479672 0.00227077 0)
(0.0474078 0.00244712 0)
(0.0468053 0.00260779 0)
(0.0461607 0.00275256 0)
(0.0454758 0.00288284 0)
(0.0447521 0.003001 0)
(0.0439911 0.00310973 0)
(0.0431942 0.00321147 0)
(0.0423627 0.00330816 0)
(0.0414975 0.00340111 0)
(0.0405997 0.00349116 0)
(0.0396702 0.00357878 0)
(0.0387099 0.0036643 0)
(0.0377196 0.00374797 0)
(0.0367001 0.00383003 0)
(0.0356521 0.0039107 0)
(0.0345763 0.00399015 0)
(0.0334735 0.00406847 0)
(0.0323444 0.0041457 0)
(0.0311896 0.00422178 0)
(0.0300098 0.0042966 0)
(0.0288058 0.00437001 0)
(0.0275783 0.00444182 0)
(0.026328 0.00451184 0)
(0.0250556 0.00457988 0)
(0.0237621 0.00464574 0)
(0.0224482 0.0047092 0)
(0.021115 0.00477001 0)
(0.0197633 0.00482794 0)
(0.0183942 0.00488277 0)
(0.0170088 0.00493422 0)
(0.0156084 0.00498197 0)
(0.0141943 0.00502571 0)
(0.0127682 0.00506502 0)
(0.0113315 0.0050995 0)
(0.00988613 0.00512866 0)
(0.00843383 0.00515195 0)
(0.00697671 0.00516885 0)
(0.00551731 0.0051788 0)
(0.00405836 0.00518096 0)
(0.00260293 0.00517503 0)
(0.00115434 0.00516243 0)
(-0.000285754 0.00514538 0)
(-0.00171255 0.00512492 0)
(-0.00312298 0.00510084 0)
(-0.00451572 0.00507268 0)
(-0.00588583 0.00504059 0)
(-0.00723032 0.00500539 0)
(-0.00854481 0.00496817 0)
(-0.0098259 0.00492985 0)
(-0.0110713 0.00489272 0)
(-0.0122767 0.00485797 0)
(-0.0134372 0.00482762 0)
(-0.0145472 0.00480416 0)
(-0.0155996 0.00478947 0)
(-0.0165849 0.00478578 0)
(-0.0174917 0.00479698 0)
(-0.0183098 0.004825 0)
(-0.0190286 0.00487348 0)
(-0.0196379 0.00494355 0)
(-0.0201275 0.00503728 0)
(-0.0204886 0.0051547 0)
(-0.0207167 0.00529491 0)
(-0.0208113 0.005454 0)
(-0.0207655 0.00562597 0)
(-0.0205846 0.00580282 0)
(-0.0202847 0.00597428 0)
(-0.0198773 0.00612648 0)
(-0.0193762 0.00624275 0)
(-0.0187954 0.00629884 0)
(-0.0181619 0.00626804 0)
(-0.017506 0.00611848 0)
(-0.0168614 0.00581546 0)
(-0.0162701 0.00531964 0)
(-0.0157601 0.00460903 0)
(-0.0153424 0.00369421 0)
(-0.0150226 0.00262847 0)
(-0.0147882 0.00150286 0)
(-0.0146178 0.000434325 0)
(-0.0144783 -0.000457478 0)
(-0.0143509 -0.00108853 0)
(-0.0142384 -0.00144393 0)
(-0.014124 -0.00157713 0)
(-0.0139801 -0.00159873 0)
(-0.0137904 -0.00161171 0)
(-0.0135436 -0.00169316 0)
(-0.0132352 -0.00186437 0)
(-0.0128671 -0.0021141 0)
(-0.0124382 -0.00241048 0)
(-0.0119504 -0.00271918 0)
(-0.0114113 -0.00301164 0)
(-0.0108317 -0.00327132 0)
(-0.0102253 -0.00349311 0)
(-0.0096066 -0.00368403 0)
(-0.00898848 -0.00384801 0)
(-0.00836781 -0.00400227 0)
(-0.0077438 -0.00415288 0)
(-0.00711686 -0.00430486 0)
(-0.00647404 -0.00445636 0)
(-0.00580911 -0.00460552 0)
(-0.00511921 -0.00474543 0)
(-0.00440446 -0.00487203 0)
(-0.00366576 -0.00498032 0)
(-0.00290477 -0.00506906 0)
(-0.00212825 -0.0051381 0)
(-0.00133351 -0.00518782 0)
(-0.000525306 -0.00521848 0)
(0.000283344 -0.00522925 0)
(0.0010891 -0.00522229 0)
(0.00188363 -0.00519254 0)
(0.00265815 -0.00514069 0)
(0.0034031 -0.00506635 0)
(0.00410755 -0.00496995 0)
(0.00476041 -0.0048544 0)
(0.00534945 -0.00471906 0)
(0.00586106 -0.00456906 0)
(0.00628205 -0.00440872 0)
(0.00660028 -0.00424352 0)
(0.00680547 -0.00407919 0)
(0.0068882 -0.00392041 0)
(0.00684177 -0.00377429 0)
(0.0066631 -0.00364188 0)
(0.00635247 -0.00352966 0)
(0.00591257 -0.00343843 0)
(0.00535261 -0.00337324 0)
(0.00467677 -0.0033326 0)
(0.00391578 -0.00332614 0)
(0.00304956 -0.00330804 0)
(0.0021496 -0.00330693 0)
(0.00117107 -0.00370132 0)
(0.000721667 -0.00302398 0)
(-0.00381313 0.0332679 0)
(-0.0081045 0.0247394 0)
(-0.01231 0.0265823 0)
(-0.0171438 0.0290578 0)
(-0.0223797 0.0300847 0)
(-0.0277223 0.0301955 0)
(-0.0330396 0.0300787 0)
(-0.0383241 0.0300097 0)
(-0.0435967 0.0300041 0)
(-0.0488705 0.0300165 0)
(-0.0541507 0.03002 0)
(-0.0594347 0.0300079 0)
(-0.0647175 0.0299805 0)
(-0.0699994 0.0299383 0)
(-0.0752769 0.0298798 0)
(-0.0805457 0.0298029 0)
(-0.0858029 0.0297052 0)
(-0.0910448 0.0295846 0)
(-0.0962678 0.029439 0)
(-0.101466 0.0292678 0)
(-0.106634 0.0290697 0)
(-0.111767 0.0288438 0)
(-0.116861 0.0285898 0)
(-0.121909 0.0283074 0)
(-0.126906 0.0279968 0)
(-0.131847 0.0276586 0)
(-0.136726 0.027294 0)
(-0.141541 0.0269037 0)
(-0.146284 0.0264882 0)
(-0.150952 0.0260498 0)
(-0.15554 0.0255896 0)
(-0.160046 0.0251096 0)
(-0.164465 0.0246116 0)
(-0.168794 0.0240976 0)
(-0.173032 0.0235703 0)
(-0.177175 0.0230316 0)
(-0.181221 0.0224839 0)
(-0.185167 0.021929 0)
(-0.189012 0.0213687 0)
(-0.192755 0.020804 0)
(-0.196393 0.0202352 0)
(-0.199925 0.0196627 0)
(-0.20335 0.0190878 0)
(-0.206666 0.0185116 0)
(-0.209875 0.0179343 0)
(-0.212976 0.0173558 0)
(-0.215968 0.016777 0)
(-0.218852 0.0161983 0)
(-0.221629 0.0156204 0)
(-0.224299 0.0150439 0)
(-0.226862 0.0144683 0)
(-0.229315 0.0138941 0)
(-0.231661 0.0133213 0)
(-0.233897 0.012748 0)
(-0.236024 0.0121726 0)
(-0.23804 0.0115932 0)
(-0.239945 0.0110076 0)
(-0.24174 0.0104136 0)
(-0.243424 0.00981036 0)
(-0.244999 0.00919829 0)
(-0.246465 0.00857705 0)
(-0.247823 0.00794631 0)
(-0.249073 0.00730907 0)
(-0.250216 0.00666691 0)
(-0.251251 0.00602046 0)
(-0.252178 0.005371 0)
(-0.252996 0.00471918 0)
(-0.253705 0.00406579 0)
(-0.254304 0.00341134 0)
(-0.254791 0.00275637 0)
(-0.255167 0.00210109 0)
(-0.255431 0.00144572 0)
(-0.255582 0.00079046 0)
(-0.255619 0.000135322 0)
(-0.255542 -0.000519488 0)
(-0.255353 -0.00117395 0)
(-0.25505 -0.00182772 0)
(-0.254633 -0.0024802 0)
(-0.254102 -0.00313091 0)
(-0.253459 -0.00377955 0)
(-0.252702 -0.00442566 0)
(-0.251833 -0.00506876 0)
(-0.250852 -0.00570846 0)