/*--------------------------------*- C++ -*----------------------------------*\
| =========                 |                                                 |
| \\      /  F ield         | OpenFOAM: The Open Source CFD Toolbox           |
|  \\    /   O peration     | Version:  v2006                                 |
|   \\  /    A nd           | Website:  www.openfoam.com                      |
|    \\/     M anipulation  |                                                 |
\*---------------------------------------------------------------------------*/
FoamFile
{
    version     2.0;
    format      ascii;
    class       volScalarField;
    location    "7.75";
    object      r;
}
// * * * * * * * * * * * * * * * * * * * * * * * * * * * * * * * * * * * * * //

dimensions      [1 2 0 0 0 0 0];


internalField   nonuniform List<scalar> 
500
(
1.8588e-54
8.38405e-54
2.47713e-53
6.58899e-53
1.68851e-52
4.25984e-52
1.06628e-51
2.65588e-51
6.59003e-51
1.62964e-50
4.01692e-50
9.86991e-50
2.41747e-49
5.90248e-49
1.4366e-48
3.48544e-48
8.42944e-48
2.03215e-47
4.88343e-47
1.16977e-46
2.79309e-46
6.64765e-46
1.57706e-45
3.72927e-45
8.79003e-45
2.06511e-44
4.83593e-44
1.12875e-43
2.62597e-43
6.08913e-43
1.40731e-42
3.24185e-42
7.44316e-42
1.70326e-41
3.88472e-41
8.83063e-41
2.00066e-40
4.51751e-40
1.01664e-39
2.28021e-39
5.09704e-39
1.13552e-38
2.52114e-38
5.57863e-38
1.23021e-37
2.70366e-37
5.9216e-37
1.29253e-36
2.81158e-36
6.09489e-36
1.3167e-35
2.83469e-35
6.08167e-35
1.30027e-34
2.77036e-34
5.88202e-34
1.24452e-33
2.62397e-33
5.51309e-33
1.15427e-32
2.40821e-32
5.00668e-32
1.03723e-31
2.14122e-31
4.40466e-31
9.02864e-31
1.84412e-30
3.75326e-30
7.61167e-30
1.53815e-29
3.09717e-29
6.21404e-29
1.24229e-28
2.47464e-28
4.91175e-28
9.71391e-28
1.91418e-27
3.75837e-27
7.35264e-27
1.43321e-26
2.78356e-26
5.38653e-26
1.03857e-25
1.99516e-25
3.81885e-25
7.28279e-25
1.3838e-24
2.61972e-24
4.94131e-24
9.28607e-24
1.7387e-23
3.24351e-23
6.02842e-23
1.11632e-22
2.05953e-22
3.78564e-22
6.9327e-22
1.2649e-21
2.2993e-21
4.1641e-21
7.51335e-21
1.35061e-20
2.41884e-20
4.31584e-20
7.67193e-20
1.35869e-19
2.39727e-19
4.21393e-19
7.37962e-19
1.28752e-18
2.23794e-18
3.87539e-18
6.68581e-18
1.14911e-17
1.96763e-17
3.35653e-17
5.70438e-17
9.65814e-17
1.6291e-16
2.73758e-16
4.58303e-16
7.64374e-16
1.27006e-15
2.10237e-15
3.46704e-15
5.69605e-15
9.32297e-15
1.5202e-14
2.4695e-14
3.99655e-14
6.44355e-14
1.03498e-13
1.65616e-13
2.64022e-13
4.19317e-13
6.63457e-13
1.0458e-12
1.6423e-12
2.56936e-12
4.00466e-12
6.21835e-12
9.61956e-12
1.48254e-11
2.27629e-11
3.48194e-11
5.30626e-11
8.05621e-11
1.21856e-10
1.83629e-10
2.75685e-10
4.12347e-10
6.1446e-10
9.12233e-10
1.34927e-09
1.98829e-09
2.91907e-09
4.2697e-09
6.22213e-09
9.03383e-09
1.30676e-08
1.88329e-08
2.70416e-08
3.86854e-08
5.51393e-08
7.83028e-08
1.10789e-07
1.5618e-07
2.19362e-07
3.06979e-07
4.28026e-07
5.9463e-07
8.23079e-07
1.13516e-06
1.5599e-06
2.13581e-06
2.91377e-06
3.96079e-06
5.36466e-06
7.24002e-06
9.73594e-06
1.30455e-05
1.74176e-05
2.31721e-05
3.07183e-05
4.05774e-05
5.34111e-05
7.00553e-05
9.15626e-05
0.000119252
0.00015477
0.000200163
0.000257967
0.000331306
0.000424018
0.000540794
0.000687349
0.000870611
0.00109895
0.00138242
0.00173307
0.00216527
0.00269608
0.00334566
0.00413773
0.00510014
0.00626534
0.00767104
0.0093609
0.0113852
0.0138014
0.0166755
0.020082
0.0241055
0.0288411
0.0343953
0.0408869
0.0484477
0.0572232
0.0673734
0.0790729
0.0925116
0.107895
0.125444
0.145395
0.167999
0.193522
0.222242
0.254449
0.290446
0.330542
0.375053
0.424298
0.478599
0.538275
0.603637
0.674989
0.752621
0.836805
0.927794
1.02581
1.13105
1.24368
1.36382
1.49154
1.6269
1.76987
1.9204
2.07837
2.24361
2.41591
2.59499
2.78051
2.97211
3.16934
3.37172
3.57873
3.78982
4.00436
4.22175
4.44131
4.66238
4.88427
5.10628
5.32772
5.5479
5.76614
5.98177
6.19416
6.4027
6.6068
6.80593
6.99958
7.18728
7.36861
7.5432
7.71072
7.87088
8.02343
8.16818
8.30496
8.43365
8.55415
8.66641
8.77038
8.86606
8.95344
9.03256
9.10343
9.1661
9.22059
9.26695
9.30521
9.33538
9.35748
9.37153
9.3775
9.37538
9.36513
9.34671
9.32008
9.28516
9.24188
9.19018
9.12999
9.06124
8.98387
8.89784
8.80312
8.69971
8.58761
8.46688
8.3376
8.19989
8.05391
7.89985
7.73796
7.56854
7.39192
7.20848
7.01865
6.82292
6.62179
6.41583
6.20562
5.99179
5.77498
5.55588
5.33516
5.11352
4.89166
4.67029
4.45009
4.23175
4.0159
3.80319
3.59422
3.38954
3.18968
2.99512
2.8063
2.62359
2.44733
2.27781
2.11525
1.95984
1.8117
1.6709
1.53749
1.41143
1.29269
1.18116
1.07671
0.979176
0.888362
0.80405
0.726002
0.653959
0.587649
0.526792
0.471098
0.420273
0.374023
0.332056
0.294082
0.259817
0.228986
0.201322
0.176569
0.154482
0.134827
0.117387
0.101953
0.0883317
0.0763439
0.0658219
0.0566118
0.0485717
0.041572
0.0354943
0.0302315
0.0256864
0.0217716
0.0184087
0.0155275
0.0130655
0.0109673
0.00918383
0.00767182
0.00639331
0.00531505
0.00440802
0.00364702
0.00301017
0.00247859
0.00203601
0.00166847
0.00136403
0.0011125
0.000905194
0.000734778
0.000595038
0.000480738
0.00038748
0.000311581
0.000249962
0.00020006
0.000159748
0.000127261
0.000101146
8.02034e-05
6.34501e-05
5.00806e-05
3.94371e-05
3.09844e-05
2.42877e-05
1.89948e-05
1.48215e-05
1.15388e-05
8.96279e-06
6.94611e-06
5.37104e-06
4.14377e-06
3.18974e-06
2.44986e-06
1.87739e-06
1.43549e-06
1.09516e-06
8.3366e-07
6.33197e-07
4.79876e-07
3.6288e-07
2.73805e-07
2.06142e-07
1.54861e-07
1.16084e-07
8.68271e-08
6.48032e-08
4.82612e-08
3.58643e-08
2.65945e-08
1.96783e-08
1.45296e-08
1.07052e-08
7.87061e-09
5.77431e-09
4.22739e-09
3.08835e-09
2.25147e-09
1.63792e-09
1.18908e-09
8.6143e-10
6.22765e-10
4.4929e-10
3.23466e-10
2.32398e-10
1.66626e-10
1.19223e-10
8.51304e-11
6.06629e-11
4.31396e-11
3.06159e-11
2.16839e-11
1.53267e-11
1.08115e-11
7.61114e-12
5.3474e-12
3.74945e-12
2.62377e-12
1.83241e-12
1.27719e-12
8.8845e-13
6.16812e-13
4.27385e-13
2.95552e-13
2.03986e-13
1.40514e-13
9.66038e-14
6.62868e-14
4.53963e-14
3.10297e-14
2.11689e-14
1.44141e-14
9.79595e-15
6.64474e-15
4.49866e-15
3.03994e-15
2.05035e-15
1.38029e-15
9.27462e-16
6.22026e-16
4.16399e-16
2.78228e-16
1.8556e-16
1.23528e-16
8.2082e-17
5.44457e-17
3.60637e-17
2.3904e-17
1.60435e-17
1.16126e-17
)
;

boundaryField
{
    right
    {
        type            zeroGradient;
    }
    left
    {
        type            inletOutlet;
        inletValue      uniform 0;
        value           uniform 0;
    }
    top
    {
        type            zeroGradient;
    }
    bottom
    {
        type            zeroGradient;
    }
    empty
    {
        type            empty;
    }
}


// ************************************************************************* //
