/*--------------------------------*- C++ -*----------------------------------*\
| =========                 |                                                 |
| \\      /  F ield         | OpenFOAM: The Open Source CFD Toolbox           |
|  \\    /   O peration     | Version:  v2006                                 |
|   \\  /    A nd           | Website:  www.openfoam.com                      |
|    \\/     M anipulation  |                                                 |
\*---------------------------------------------------------------------------*/
FoamFile
{
    version     2.0;
    format      ascii;
    class       volScalarField;
    location    "0";
    object      p;
}
// * * * * * * * * * * * * * * * * * * * * * * * * * * * * * * * * * * * * * //

dimensions      [1 -1 -2 0 0 0 0];


internalField   nonuniform List<scalar> 
67500
(
11.1211
9.27806
9.36968
8.97787
9.00391
7.95198
5.6259
4.51021
6.92124
5.19579
4.21467
4.85277
4.51344
4.34649
4.25862
3.78324
3.27549
2.95993
2.81645
2.80742
2.92258
3.13541
3.41139
3.72944
4.07056
4.40496
4.70032
4.93623
5.11196
5.24601
5.36826
5.51053
5.6995
5.95274
6.27786
6.67331
7.12699
7.60887
8.05864
8.38241
8.50718
8.49014
8.45252
8.45777
8.5072
8.56479
8.58142
8.54584
8.52254
8.57871
8.71856
8.91404
9.14118
9.39325
9.67087
9.96002
10.2356
10.479
10.685
10.8555
10.9897
11.0862
11.1482
11.1814
11.1896
11.1752
11.1403
11.0866
11.0148
10.926
10.8214
10.7022
10.5695
10.4245
10.2681
10.101
9.92413
9.73821
9.54406
9.34247
9.13424
8.92014
8.70086
8.4771
8.2495
8.01873
7.78544
7.5503
7.31396
7.07709
6.84032
6.60426
6.36951
6.13662
5.90612
5.67852
5.45429
5.23389
5.01773
4.8062
4.59966
4.39842
4.20277
4.01293
3.8291
3.65144
3.48006
3.31503
3.15637
3.00408
2.85812
2.71842
2.58487
2.45736
2.33573
2.21982
2.10945
2.00444
1.90457
1.80965
1.71947
1.63382
1.55247
1.47524
1.4019
1.33226
1.26613
1.20331
1.14364
1.08693
1.03304
0.981796
0.93307
0.886723
0.842628
0.80067
0.760738
0.722731
0.686553
0.652116
0.619337
0.588139
0.55845
0.530203
0.503333
0.477782
0.453493
0.430415
0.408496
0.38769
0.367951
0.349236
0.331504
0.314714
0.298827
0.283807
0.269615
0.256215
0.243572
0.231651
0.220415
0.20983
0.199862
0.190477
0.181641
0.17332
0.165483
0.158097
0.15113
0.144553
0.138337
0.132454
0.126877
0.121581
0.116542
0.11174
0.107152
0.102762
0.0985517
0.094506
0.0906111
0.0868549
0.0832267
0.0797172
0.0763182
0.0730229
0.0698253
0.0667205
0.0637042
0.0607731
0.0579242
0.0551552
0.0524641
0.0498491
0.047309
0.0448424
0.0424483
0.0401256
0.0378734
0.0356907
0.0335766
0.0315301
0.0295502
0.0276358
0.0257858
0.0239991
0.0222744
0.0206105
0.019006
0.0174596
0.0159697
0.014535
0.013154
0.011825
0.0105465
0.00931694
0.00813462
0.00699795
0.00590528
0.00485497
0.00384538
0.00287487
0.00194185
0.00104471
0.000181889
-0.000648154
-0.00144692
-0.00221589
-0.00295649
-0.0036701
-0.00435807
-0.00502168
-0.00566218
-0.00628075
-0.00687855
-0.00745664
-0.00801606
-0.00855778
-0.00908272
-0.00959174
-0.0100856
-0.0105652
-0.011031
-0.0114839
-0.0119242
-0.0123526
-0.0127696
-0.0131755
-0.0135707
-0.0139555
-0.0143302
-0.0146949
-0.0150499
-0.0153951
-0.0157308
-0.0160568
-0.0163731
-0.0166797
-0.0169764
-0.017263
-0.0175395
-0.0178054
-0.0180607
-0.0183051
-0.0185382
-0.0187598
-0.0189696
-0.0191674
-0.0193529
-0.0195258
-0.019686
-0.0198333
-0.0199676
-0.0200888
-0.0201969
-0.0202918
-0.0203737
-0.0204427
-0.0204989
-0.0205427
-0.0205741
-0.0205935
-0.0206012
-0.0205977
-0.0205832
-0.0205583
-0.0205234
-0.020479
-0.0204257
-0.0203641
-0.020295
-0.0202189
-0.0201367
-0.0200491
-0.0199569
-0.0198609
-0.0197618
-0.0196602
-0.0195567
-0.0194517
-0.0193455
-0.0192383
-0.01913
-0.0190206
-0.0189098
-0.0187972
-0.0186824
-0.0185651
-0.0184447
-0.018321
-0.0181936
-0.0180623
-0.0179269
-0.0177873
-0.0176436
-0.0174959
-0.0173443
-0.017189
-0.0170304
-0.0168687
-0.0167042
-0.0165374
-0.0163686
-0.016198
-0.0160261
-0.0158531
-0.0156793
-0.0155051
-0.0153306
-0.0151561
-0.0149817
-0.0148077
-0.0146342
-0.0144613
-0.0142892
-0.0141179
-0.0139476
-0.0137782
-0.01361
-0.0134428
-0.0132768
-0.0131119
-0.0129482
-0.0127858
-0.0126245
-0.0124645
-0.0123056
-0.012148
-0.0119916
-0.0118364
-0.0116823
-0.0115295
-0.0113778
-0.0112272
-0.0110778
-0.0109295
-0.0107823
-0.0106362
-0.0104911
-0.0103471
-0.0102041
-0.0100621
-0.00992118
-0.0097812
-0.00964218
-0.00950412
-0.009367
-0.0092308
-0.0090955
-0.00896109
-0.00882757
-0.0086949
-0.00856308
-0.0084321
-0.00830194
-0.00817259
-0.00804404
-0.00791627
-0.00778927
-0.00766303
-0.00753753
-0.00741276
-0.00728872
-0.00716539
-0.00704275
-0.0069208
-0.00679952
-0.0066789
-0.00655894
-0.00643963
-0.00632094
-0.00620287
-0.00608541
-0.00596855
-0.00585228
-0.00573658
-0.00562145
-0.00550687
-0.00539284
-0.00527935
-0.00516638
-0.00505393
-0.00494198
-0.00483053
-0.00471956
-0.00460906
-0.00449903
-0.00438945
-0.00428031
-0.00417161
-0.00406332
-0.00395545
-0.00384798
-0.00374091
-0.00363421
-0.00352789
-0.00342193
-0.00331632
-0.00321105
-0.00310611
-0.0030015
-0.00289719
-0.00279319
-0.00268947
-0.00258604
-0.00248287
-0.00237996
-0.0022773
-0.00217488
-0.00207269
-0.00197071
-0.00186894
-0.00176736
-0.00166598
-0.00156477
-0.00146372
-0.00136283
-0.00126208
-0.00116147
-0.00106098
-0.000960603
-0.000860327
-0.000760145
-0.000660037
-0.000560026
-0.000459979
-0.000360284
-0.000259408
-0.000161655
-4.69958e-05
10.0089
7.62207
7.76902
7.18368
7.03511
6.8543
6.70096
6.52788
3.68087
-5.26494
-0.809868
6.86547
8.12261
6.26123
4.78107
3.93266
3.29788
2.89068
2.70153
2.67336
2.78862
3.00283
3.27241
3.58384
3.92282
4.25239
4.53024
4.73187
4.86031
4.943
5.01688
5.11711
5.27184
5.49923
5.80801
6.20118
6.67526
7.20937
7.7416
8.13119
8.21688
8.11398
8.03282
8.04503
8.13886
8.25643
8.30407
8.23692
8.17366
8.22927
8.39242
8.6117
8.85001
9.10702
9.39906
9.71028
10.005
10.2589
10.4707
10.6485
10.7907
10.8926
10.9587
10.9975
11.0129
11.0064
10.9801
10.9353
10.8721
10.7914
10.6947
10.5831
10.4579
10.32
10.1705
10.01
9.83941
9.65939
9.47077
9.27439
9.07107
8.86158
8.64662
8.42687
8.20299
7.97564
7.74547
7.51318
7.27946
7.04496
6.81037
6.5763
6.34335
6.11211
5.88311
5.65687
5.43387
5.21459
4.99945
4.78885
4.58316
4.38271
4.18778
3.99862
3.81545
3.6384
3.46761
3.30314
3.14502
2.99326
2.84781
2.70861
2.57554
2.4485
2.32732
2.21186
2.10192
1.99732
1.89785
1.80332
1.71351
1.6282
1.5472
1.47028
1.39724
1.32789
1.26203
1.19947
1.14004
1.08356
1.02987
0.978824
0.930278
0.884098
0.840158
0.798343
0.758544
0.720659
0.684594
0.650262
0.61758
0.586472
0.556866
0.528696
0.501898
0.476414
0.452189
0.429169
0.407306
0.386553
0.366864
0.348196
0.330509
0.313763
0.297919
0.282939
0.268787
0.255427
0.242822
0.230938
0.219739
0.209191
0.199259
0.18991
0.181108
0.172822
0.165018
0.157664
0.150729
0.144182
0.137995
0.132139
0.126587
0.121315
0.1163
0.111518
0.10695
0.102577
0.0983824
0.0943508
0.0904685
0.0867233
0.0831048
0.0796037
0.076212
0.0729228
0.0697304
0.0666299
0.0636173
0.0606892
0.0578429
0.055076
0.0523866
0.0497732
0.0472345
0.0447691
0.0423761
0.0400544
0.0378032
0.0356216
0.0335085
0.031463
0.0294842
0.027571
0.0257222
0.0239367
0.0222133
0.0205508
0.0189477
0.0174027
0.0159143
0.0144812
0.0131017
0.0117743
0.0104974
0.00926949
0.00808882
0.0069538
0.00586277
0.00481411
0.00380615
0.00283726
0.00190584
0.00101027
0.000148992
-0.000679541
-0.00147684
-0.00224438
-0.00298358
-0.00369585
-0.00438252
-0.00504489
-0.00568419
-0.00630163
-0.00689834
-0.0074754
-0.00803385
-0.00857465
-0.00909873
-0.00960694
-0.0101001
-0.0105789
-0.0110442
-0.0114964
-0.0119362
-0.0123642
-0.0127807
-0.0131862
-0.0135811
-0.0139657
-0.0143402
-0.0147048
-0.0150596
-0.0154048
-0.0157405
-0.0160665
-0.0163829
-0.0166896
-0.0169864
-0.0172733
-0.0175499
-0.0178162
-0.0180717
-0.0183163
-0.0185497
-0.0187716
-0.0189817
-0.0191797
-0.0193654
-0.0195386
-0.0196989
-0.0198463
-0.0199807
-0.0201019
-0.0202099
-0.0203048
-0.0203866
-0.0204554
-0.0205115
-0.0205549
-0.020586
-0.0206051
-0.0206125
-0.0206085
-0.0205936
-0.0205682
-0.0205328
-0.0204878
-0.020434
-0.0203717
-0.0203019
-0.0202251
-0.0201421
-0.0200537
-0.0199608
-0.019864
-0.0197642
-0.0196621
-0.0195582
-0.0194529
-0.0193465
-0.0192393
-0.0191312
-0.019022
-0.0189115
-0.0187993
-0.018685
-0.0185681
-0.0184482
-0.0183248
-0.0181976
-0.0180665
-0.0179311
-0.0177916
-0.0176478
-0.0174998
-0.017348
-0.0171925
-0.0170335
-0.0168715
-0.0167067
-0.0165395
-0.0163703
-0.0161994
-0.0160272
-0.0158539
-0.0156799
-0.0155054
-0.0153306
-0.0151559
-0.0149814
-0.0148072
-0.0146335
-0.0144605
-0.0142883
-0.014117
-0.0139466
-0.0137772
-0.0136089
-0.0134417
-0.0132756
-0.0131107
-0.012947
-0.0127846
-0.0126233
-0.0124632
-0.0123044
-0.0121468
-0.0119904
-0.0118352
-0.0116812
-0.0115283
-0.0113766
-0.0112261
-0.0110767
-0.0109284
-0.0107812
-0.0106351
-0.01049
-0.0103461
-0.0102031
-0.0100611
-0.00992019
-0.00978022
-0.00964123
-0.00950318
-0.00936607
-0.00922989
-0.0090946
-0.00896021
-0.0088267
-0.00869405
-0.00856224
-0.00843128
-0.00830113
-0.00817179
-0.00804325
-0.00791549
-0.00778851
-0.00766228
-0.00753679
-0.00741204
-0.00728801
-0.00716469
-0.00704206
-0.00692012
-0.00679885
-0.00667825
-0.0065583
-0.00643899
-0.00632032
-0.00620226
-0.00608481
-0.00596796
-0.0058517
-0.00573601
-0.00562089
-0.00550632
-0.0053923
-0.00527882
-0.00516586
-0.00505342
-0.00494148
-0.00483004
-0.00471908
-0.0046086
-0.00449858
-0.00438901
-0.00427988
-0.00417118
-0.00406291
-0.00395505
-0.00384759
-0.00374053
-0.00363384
-0.00352753
-0.00342158
-0.00331598
-0.00321072
-0.00310579
-0.00300119
-0.00289689
-0.0027929
-0.00268919
-0.00258577
-0.00248261
-0.00237971
-0.00227707
-0.00217465
-0.00207247
-0.0019705
-0.00186874
-0.00176718
-0.0016658
-0.0015646
-0.00146356
-0.00136268
-0.00126195
-0.00116135
-0.00106087
-0.0009605
-0.000860234
-0.000760063
-0.000659966
-0.000559966
-0.000459929
-0.000360244
-0.000259379
-0.000161636
-4.69905e-05
8.57659
7.52725
6.94627
7.13371
7.12723
6.99059
6.58912
0.278484
-16.2012
-20.286
-7.05163
5.08779
7.59635
5.70608
4.19177
3.3866
2.8059
2.48145
2.32697
2.34697
2.52165
2.76714
3.0198
3.28458
3.57531
3.8638
4.10077
4.24831
4.29795
4.28079
4.24678
4.24628
4.31778
4.48352
4.75292
5.13369
5.63908
6.28304
7.04064
7.67366
7.65248
7.31096
7.12896
7.16656
7.37305
7.64353
7.77052
7.59659
7.42389
7.48653
7.71445
8.00205
8.26891
8.53092
8.85493
9.21782
9.55417
9.82485
10.0421
10.2341
10.3939
10.5056
10.5782
10.6282
10.6585
10.6681
10.6596
10.6332
10.5872
10.5228
10.4419
10.3455
10.235
10.1116
9.97597
9.82876
9.67067
9.50242
9.32485
9.13887
8.94534
8.74505
8.53873
8.32701
8.11054
7.88999
7.66604
7.43943
7.21088
6.98112
6.75085
6.52072
6.29137
6.0634
5.83737
5.61382
5.39327
5.1762
4.96307
4.75431
4.5503
4.35141
4.15793
3.97013
3.78823
3.6124
3.44277
3.27942
3.12239
2.97168
2.82725
2.68903
2.55693
2.43082
2.31056
2.19597
2.08689
1.98311
1.88444
1.79068
1.7016
1.617
1.53667
1.46039
1.38796
1.31919
1.25387
1.19182
1.13286
1.07683
1.02356
0.972897
0.924711
0.878864
0.835233
0.793703
0.754167
0.716526
0.680687
0.646563
0.614074
0.583145
0.553705
0.525689
0.499035
0.473685
0.449585
0.426684
0.404932
0.384283
0.364693
0.34612
0.328524
0.311864
0.296104
0.281206
0.267134
0.253851
0.241323
0.229514
0.218389
0.207914
0.198054
0.188776
0.180044
0.171826
0.164089
0.1568
0.149927
0.143441
0.137311
0.13151
0.12601
0.120787
0.115816
0.111076
0.106547
0.102209
0.0980455
0.094042
0.0901847
0.0864617
0.0828624
0.0793779
0.0760005
0.0727234
0.0695413
0.0664495
0.0634441
0.060522
0.0576806
0.0549179
0.0522321
0.0496217
0.0470855
0.0446225
0.0422316
0.039912
0.0376629
0.0354832
0.0333722
0.0313288
0.0293522
0.0274412
0.0255948
0.0238119
0.0220911
0.0204313
0.018831
0.0172889
0.0158035
0.0143735
0.0129971
0.0116729
0.0103993
0.00917458
0.0079972
0.00686548
0.00577777
0.00473239
0.0037277
0.00276206
0.00183383
0.000941418
8.3231e-05
-0.000742278
-0.00153663
-0.0023013
-0.00303772
-0.0037473
-0.00443138
-0.00509125
-0.00572817
-0.00634333
-0.00693787
-0.00751287
-0.00806936
-0.00860833
-0.00913068
-0.00963728
-0.0101289
-0.0106064
-0.0110703
-0.0115214
-0.0119602
-0.0123872
-0.0128029
-0.0132077
-0.013602
-0.013986
-0.0143601
-0.0147244
-0.0150791
-0.0154242
-0.0157598
-0.0160859
-0.0164025
-0.0167094
-0.0170066
-0.0172938
-0.0175709
-0.0178376
-0.0180937
-0.0183388
-0.0185728
-0.0187952
-0.0190058
-0.0192044
-0.0193905
-0.0195641
-0.0197247
-0.0198724
-0.0200069
-0.0201282
-0.0202362
-0.0203309
-0.0204124
-0.0204809
-0.0205365
-0.0205795
-0.02061
-0.0206284
-0.0206351
-0.0206303
-0.0206145
-0.0205882
-0.0205517
-0.0205056
-0.0204505
-0.0203869
-0.0203156
-0.0202373
-0.0201528
-0.0200629
-0.0199685
-0.0198703
-0.0197692
-0.019666
-0.0195612
-0.0194553
-0.0193486
-0.0192414
-0.0191335
-0.0190248
-0.0189149
-0.0188035
-0.01869
-0.0185739
-0.0184546
-0.0183319
-0.0182052
-0.0180744
-0.0179392
-0.0177996
-0.0176557
-0.0175074
-0.0173552
-0.0171991
-0.0170396
-0.0168769
-0.0167114
-0.0165436
-0.0163737
-0.0162022
-0.0160293
-0.0158555
-0.0156809
-0.0155059
-0.0153307
-0.0151556
-0.0149807
-0.0148062
-0.0146323
-0.0144591
-0.0142866
-0.0141151
-0.0139446
-0.0137751
-0.0136067
-0.0134394
-0.0132733
-0.0131083
-0.0129446
-0.0127821
-0.0126209
-0.0124608
-0.012302
-0.0121444
-0.011988
-0.0118328
-0.0116788
-0.011526
-0.0113744
-0.0112238
-0.0110745
-0.0109262
-0.010779
-0.010633
-0.010488
-0.010344
-0.0102011
-0.0100591
-0.00991823
-0.00977829
-0.00963933
-0.00950131
-0.00936424
-0.00922808
-0.00909283
-0.00895846
-0.00882498
-0.00869235
-0.00856058
-0.00842964
-0.00829952
-0.00817021
-0.00804169
-0.00791396
-0.007787
-0.00766079
-0.00753533
-0.0074106
-0.0072866
-0.0071633
-0.00704069
-0.00691877
-0.00679753
-0.00667695
-0.00655702
-0.00643774
-0.00631908
-0.00620105
-0.00608362
-0.00596679
-0.00585055
-0.00573488
-0.00561978
-0.00550524
-0.00539124
-0.00527777
-0.00516484
-0.00505242
-0.0049405
-0.00482908
-0.00471814
-0.00460768
-0.00449767
-0.00438813
-0.00427902
-0.00417034
-0.00406209
-0.00395425
-0.00384681
-0.00373977
-0.0036331
-0.00352681
-0.00342088
-0.0033153
-0.00321006
-0.00310515
-0.00300057
-0.0028963
-0.00279232
-0.00268864
-0.00258523
-0.0024821
-0.00237922
-0.00227659
-0.0021742
-0.00207204
-0.00197009
-0.00186835
-0.00176681
-0.00166545
-0.00156427
-0.00146326
-0.0013624
-0.00126168
-0.0011611
-0.00106064
-0.000960298
-0.000860054
-0.000759904
-0.000659827
-0.000559849
-0.000459833
-0.000360169
-0.000259325
-0.000161602
-4.69821e-05
8.00118
6.53825
7.13894
7.18449
7.24607
6.89642
-2.85284
-21.086
-21.0377
-19.2853
-6.8342
4.49885
7.39838
5.17869
3.54917
2.83431
2.39617
2.0572
1.76642
1.6499
1.76203
1.96625
2.18584
2.49982
2.90357
3.26872
3.49097
3.55046
3.49483
3.3843
3.2664
3.18829
3.18311
3.26354
3.4383
3.73657
4.18574
4.84425
5.87607
7.14664
6.84552
6.03907
5.69109
5.7698
6.20048
6.84496
7.22616
6.70192
6.23757
6.34075
6.70127
7.11112
7.3938
7.62257
7.99583
8.45826
8.88029
9.17627
9.392
9.61127
9.80565
9.92771
10.0022
10.0688
10.1236
10.1577
10.1772
10.1799
10.1597
10.1196
10.0624
9.98881
9.90054
9.79892
9.6843
9.55712
9.41792
9.26733
9.1063
8.93588
8.75705
8.57063
8.3773
8.17767
7.97234
7.76198
7.54734
7.32921
7.1084
6.8857
6.66188
6.43765
6.21368
5.9906
5.769
5.54947
5.33256
5.11879
4.90866
4.70263
4.50113
4.30455
4.11322
3.92744
3.74745
3.57344
3.40555
3.24387
3.08846
2.93932
2.79642
2.65969
2.52903
2.40433
2.28543
2.17217
2.06437
1.96184
1.86436
1.77175
1.68378
1.60023
1.52091
1.44559
1.37408
1.30616
1.24166
1.18037
1.12213
1.06677
1.01412
0.96404
0.916392
0.871043
0.827873
0.786769
0.747627
0.710349
0.674846
0.641033
0.608832
0.57817
0.548977
0.521191
0.494752
0.469602
0.445689
0.422963
0.401376
0.380883
0.361442
0.34301
0.325549
0.309019
0.293385
0.278609
0.264655
0.251489
0.239075
0.227378
0.216365
0.206
0.196248
0.187076
0.178449
0.170334
0.162697
0.155506
0.148728
0.142332
0.136289
0.13057
0.125148
0.119998
0.115095
0.110418
0.105946
0.10166
0.0975441
0.0935828
0.0897629
0.0860726
0.082502
0.0790422
0.0756859
0.0724268
0.0692598
0.0661806
0.0631858
0.0602724
0.0574383
0.0546817
0.0520009
0.0493948
0.0468625
0.0444028
0.0420151
0.0396985
0.0374523
0.0352756
0.0331676
0.0311274
0.029154
0.0272465
0.0254037
0.0236245
0.0219076
0.0202519
0.0186558
0.0171181
0.0156372
0.0142118
0.0128401
0.0115207
0.010252
0.00903219
0.00785976
0.00673301
0.00565026
0.00460984
0.00361008
0.00264931
0.0017259
0.000838217
-1.53237e-05
-0.000836289
-0.00162621
-0.00238657
-0.00311882
-0.00382436
-0.00450454
-0.00516068
-0.00579401
-0.00640575
-0.00699702
-0.00756893
-0.0081225
-0.00865871
-0.00917847
-0.00968265
-0.0101721
-0.0106474
-0.0111095
-0.0115588
-0.011996
-0.0124216
-0.0128361
-0.0132398
-0.0136332
-0.0140164
-0.0143899
-0.0147538
-0.0151081
-0.0154531
-0.0157887
-0.0161149
-0.0164317
-0.0167391
-0.0170367
-0.0173245
-0.0176023
-0.0178697
-0.0181266
-0.0183726
-0.0186074
-0.0188307
-0.0190421
-0.0192414
-0.0194283
-0.0196024
-0.0197636
-0.0199116
-0.0200463
-0.0201677
-0.0202756
-0.0203701
-0.0204513
-0.0205193
-0.0205742
-0.0206164
-0.0206461
-0.0206635
-0.0206691
-0.0206631
-0.020646
-0.0206182
-0.0205802
-0.0205324
-0.0204754
-0.0204098
-0.0203364
-0.0202558
-0.0201689
-0.0200766
-0.0199797
-0.0198793
-0.0197762
-0.0196712
-0.019565
-0.0194582
-0.0193512
-0.019244
-0.0191367
-0.0190289
-0.0189202
-0.0188101
-0.0186981
-0.0185833
-0.0184654
-0.0183437
-0.0182178
-0.0180875
-0.0179525
-0.0178128
-0.0176685
-0.0175197
-0.0173666
-0.0172097
-0.0170491
-0.0168853
-0.0167188
-0.0165499
-0.0163789
-0.0162064
-0.0160325
-0.0158578
-0.0156824
-0.0155066
-0.0153307
-0.015155
-0.0149796
-0.0148046
-0.0146303
-0.0144567
-0.014284
-0.0141123
-0.0139415
-0.0137718
-0.0136033
-0.0134359
-0.0132697
-0.0131047
-0.012941
-0.0127785
-0.0126172
-0.0124571
-0.0122983
-0.0121408
-0.0119844
-0.0118292
-0.0116753
-0.0115225
-0.0113709
-0.0112204
-0.0110711
-0.0109229
-0.0107758
-0.0106297
-0.0104848
-0.0103409
-0.010198
-0.0100561
-0.00991526
-0.00977537
-0.00963645
-0.00949849
-0.00936145
-0.00922534
-0.00909013
-0.00895582
-0.00882237
-0.00868979
-0.00855806
-0.00842716
-0.00829708
-0.00816781
-0.00803933
-0.00791164
-0.00778471
-0.00765854
-0.00753312
-0.00740843
-0.00728446
-0.00716119
-0.00703862
-0.00691674
-0.00679553
-0.00667498
-0.00655509
-0.00643583
-0.00631721
-0.00619921
-0.00608182
-0.00596502
-0.00584881
-0.00573317
-0.0056181
-0.00550359
-0.00538962
-0.00527619
-0.00516329
-0.0050509
-0.00493901
-0.00482762
-0.00471671
-0.00460628
-0.00449631
-0.00438679
-0.00427771
-0.00416907
-0.00406085
-0.00395304
-0.00384563
-0.00373862
-0.00363198
-0.00352572
-0.00341982
-0.00331427
-0.00320906
-0.00310419
-0.00299964
-0.00289539
-0.00279145
-0.0026878
-0.00258442
-0.00248132
-0.00237847
-0.00227587
-0.00217351
-0.00207138
-0.00196947
-0.00186776
-0.00176625
-0.00166492
-0.00156377
-0.00146279
-0.00136196
-0.00126128
-0.00116073
-0.0010603
-0.000959988
-0.000859776
-0.000759657
-0.000659613
-0.000559666
-0.000459681
-0.000360048
-0.000259237
-0.000161545
-4.69651e-05
9.15623
6.85736
7.06196
7.28404
7.30014
3.89456
-15.1949
-25.6011
-15.7484
-9.65227
0.318641
5.98272
5.9928
2.67265
1.8568
1.03501
0.683386
0.830144
1.25648
1.89948
2.74019
3.4079
3.77871
4.06445
4.18849
3.94654
3.3597
2.61073
1.89864
1.35494
1.0367
0.949952
1.04239
1.22224
1.47727
1.96847
2.89287
4.34604
6.81606
9.85437
7.16497
5.02488
4.33532
4.2427
4.61614
5.59053
6.64911
5.21908
4.27531
4.55725
5.26619
6.04582
6.31537
6.3701
6.82111
7.45981
8.01685
8.29765
8.46756
8.74619
9.01975
9.15236
9.21547
9.30914
9.40388
9.47166
9.53298
9.5781
9.59127
9.5825
9.55687
9.51311
9.45452
9.38246
9.29624
9.1961
9.0822
8.95508
8.81597
8.66623
8.507
8.33915
8.16326
7.97981
7.78935
7.59255
7.39023
7.1833
6.97271
6.75936
6.54409
6.32767
6.11082
5.89421
5.67848
5.46426
5.25214
5.04271
4.83652
4.63408
4.43587
4.24233
4.05384
3.87072
3.69324
3.52163
3.35604
3.19658
3.04332
2.89626
2.75539
2.62064
2.49191
2.36908
2.252
2.14051
2.03442
1.93354
1.83767
1.74659
1.66009
1.57796
1.49998
1.42595
1.35565
1.28888
1.22546
1.16519
1.1079
1.05342
1.0016
0.952296
0.905361
0.860672
0.818113
0.777573
0.738953
0.702157
0.667099
0.633697
0.601877
0.571567
0.542703
0.515221
0.489065
0.46418
0.440515
0.41802
0.396652
0.376365
0.357119
0.338874
0.321591
0.305234
0.289765
0.275151
0.261355
0.248343
0.236081
0.224534
0.213668
0.203449
0.193843
0.184813
0.176327
0.168349
0.160847
0.153786
0.147134
0.14086
0.134933
0.129325
0.124007
0.118954
0.114142
0.109549
0.105153
0.100937
0.0968834
0.092978
0.0892074
0.0855605
0.0820275
0.0786001
0.0752714
0.0720357
0.0688883
0.0658255
0.0628442
0.059942
0.0571171
0.0543681
0.0516938
0.0490932
0.0465657
0.0441103
0.0417267
0.039414
0.0371715
0.0349987
0.0328947
0.0308586
0.0288896
0.0269866
0.0251486
0.0233744
0.0216628
0.0200124
0.018422
0.0168902
0.0154153
0.013996
0.0126307
0.0113177
0.0100555
0.00884228
0.00767648
0.00655639
0.00548029
0.0044465
0.00345332
0.00249907
0.0015821
0.000700753
-0.000146574
-0.000961462
-0.00174545
-0.00250006
-0.00322672
-0.00392687
-0.00460186
-0.005253
-0.00588155
-0.00648871
-0.00707564
-0.00764342
-0.00819308
-0.00872561
-0.00924192
-0.00974288
-0.0102293
-0.0107019
-0.0111614
-0.0116084
-0.0120435
-0.0124672
-0.01288
-0.0132823
-0.0136745
-0.0140567
-0.0144294
-0.0147927
-0.0151466
-0.0154914
-0.015827
-0.0161534
-0.0164706
-0.0167784
-0.0170767
-0.0173653
-0.017644
-0.0179125
-0.0181704
-0.0184175
-0.0186535
-0.0188779
-0.0190905
-0.0192909
-0.0194787
-0.0196537
-0.0198155
-0.0199641
-0.0200992
-0.0202206
-0.0203284
-0.0204227
-0.0205033
-0.0205706
-0.0206247
-0.0206659
-0.0206943
-0.0207104
-0.0207145
-0.020707
-0.0206881
-0.0206584
-0.0206183
-0.0205683
-0.0205088
-0.0204406
-0.0203643
-0.0202806
-0.0201906
-0.020095
-0.0199949
-0.0198914
-0.0197855
-0.0196781
-0.0195701
-0.019462
-0.0193542
-0.019247
-0.0191402
-0.0190334
-0.0189261
-0.0188177
-0.0187075
-0.0185945
-0.0184782
-0.0183579
-0.0182331
-0.0181034
-0.0179688
-0.0178291
-0.0176845
-0.017535
-0.0173811
-0.017223
-0.0170612
-0.0168962
-0.0167283
-0.0165579
-0.0163856
-0.0162117
-0.0160367
-0.0158607
-0.0156842
-0.0155075
-0.0153308
-0.0151542
-0.0149781
-0.0148025
-0.0146277
-0.0144537
-0.0142806
-0.0141085
-0.0139375
-0.0137676
-0.0135988
-0.0134313
-0.013265
-0.0131
-0.0129362
-0.0127736
-0.0126123
-0.0124523
-0.0122935
-0.012136
-0.0119796
-0.0118245
-0.0116706
-0.0115179
-0.0113663
-0.0112159
-0.0110667
-0.0109185
-0.0107715
-0.0106255
-0.0104806
-0.0103368
-0.010194
-0.0100521
-0.00991135
-0.00977152
-0.00963267
-0.00949476
-0.00935779
-0.00922174
-0.00908659
-0.00895233
-0.00881895
-0.00868642
-0.00855474
-0.00842389
-0.00829387
-0.00816465
-0.00803622
-0.00790858
-0.0077817
-0.00765558
-0.00753021
-0.00740556
-0.00728164
-0.00715842
-0.00703589
-0.00691405
-0.00679289
-0.00667239
-0.00655254
-0.00643333
-0.00631475
-0.00619679
-0.00607944
-0.00596269
-0.00584652
-0.00573093
-0.0056159
-0.00550143
-0.0053875
-0.00527411
-0.00516125
-0.0050489
-0.00493706
-0.0048257
-0.00471484
-0.00460444
-0.00449451
-0.00438503
-0.004276
-0.0041674
-0.00405921
-0.00395145
-0.00384408
-0.0037371
-0.00363051
-0.00352429
-0.00341843
-0.00331292
-0.00320776
-0.00310292
-0.00299841
-0.00289421
-0.0027903
-0.00268669
-0.00258336
-0.0024803
-0.00237749
-0.00227493
-0.00217262
-0.00207052
-0.00196865
-0.00186698
-0.00176551
-0.00166423
-0.00156312
-0.00146218
-0.0013614
-0.00126075
-0.00116025
-0.00105986
-0.000959589
-0.000859419
-0.000759343
-0.00065934
-0.000559434
-0.000459492
-0.000359901
-0.000259132
-0.000161481
-4.69509e-05
9.82895
6.38883
5.68254
6.59293
4.38963
1.96367
0.143596
-0.86358
-0.0779598
-0.91717
-2.29306
15.3319
12.3005
-2.00341
-0.0394022
-0.161445
-0.285027
-0.183422
-0.0105587
0.218615
0.412307
0.465794
0.558454
0.667345
0.689969
0.659067
0.619078
0.588589
0.566587
0.549422
0.539605
0.547175
0.569425
0.58868
0.603566
0.666556
0.857676
1.49956
3.30851
10.2233
4.34784
0.70215
0.45523
1.42933
3.4339
6.96283
10.305
4.37722
2.86499
3.17481
3.58044
4.76245
4.89164
4.53845
5.1281
6.16441
7.12284
7.27234
7.23569
7.64212
8.07282
8.16254
8.16435
8.31838
8.48549
8.5962
8.72257
8.82962
8.88107
8.91145
8.9262
8.91821
8.89655
8.86221
8.81221
8.74656
8.66448
8.56639
8.45435
8.33028
8.19563
8.05121
7.89735
7.7343
7.56246
7.38252
7.19546
7.00239
6.80443
6.60265
6.39797
6.19126
5.98325
5.77467
5.56621
5.35855
5.15235
4.94826
4.74691
4.54888
4.35471
4.1649
3.97989
3.80004
3.62567
3.45702
3.29428
3.13758
2.98699
2.84253
2.7042
2.57191
2.44559
2.32511
2.21031
2.10103
1.99709
1.89828
1.80441
1.71525
1.6306
1.55023
1.47394
1.40151
1.33272
1.2674
1.20532
1.14633
1.09022
1.03686
0.986071
0.93772
0.891672
0.847804
0.806002
0.766162
0.728187
0.691987
0.657479
0.624586
0.593236
0.563362
0.534902
0.507796
0.48199
0.457432
0.434072
0.411865
0.390767
0.370736
0.351732
0.333718
0.316656
0.300512
0.285249
0.270835
0.257235
0.244415
0.232342
0.220982
0.210301
0.200265
0.190839
0.181989
0.173678
0.165874
0.15854
0.151644
0.145151
0.13903
0.133249
0.12778
0.122593
0.117662
0.112964
0.108475
0.104175
0.100046
0.09607
0.0922338
0.0885244
0.0849309
0.0814441
0.0780564
0.0747613
0.0715539
0.0684302
0.0653868
0.0624216
0.0595327
0.0567187
0.0539786
0.0513118
0.0487176
0.0461956
0.0437454
0.0413664
0.0390583
0.0368205
0.0346524
0.0325533
0.0305223
0.0285587
0.0266614
0.0248293
0.0230614
0.0213563
0.0197128
0.0181295
0.0166049
0.0151377
0.0137261
0.0123687
0.0110638
0.00980973
0.00860481
0.00744734
0.0063356
0.00526786
0.0042424
0.00325749
0.00231144
0.00140254
0.000529149
-0.000310381
-0.00111764
-0.00189421
-0.00264159
-0.00336126
-0.00405465
-0.00472312
-0.00536801
-0.00599057
-0.00659201
-0.00717349
-0.00773611
-0.00828089
-0.00880882
-0.00932082
-0.00981774
-0.0103004
-0.0107695
-0.0112258
-0.01167
-0.0121024
-0.0125238
-0.0129346
-0.0133351
-0.0137257
-0.0141067
-0.0144784
-0.0148409
-0.0151944
-0.0155389
-0.0158745
-0.0162012
-0.0165188
-0.0168273
-0.0171265
-0.0174161
-0.017696
-0.0179657
-0.0182251
-0.0184737
-0.0187112
-0.0189371
-0.0191512
-0.0193529
-0.019542
-0.0197181
-0.0198808
-0.0200301
-0.0201655
-0.0202872
-0.0203949
-0.0204887
-0.0205687
-0.0206351
-0.0206881
-0.0207279
-0.0207549
-0.0207693
-0.0207716
-0.0207621
-0.0207412
-0.0207092
-0.0206665
-0.0206136
-0.0205511
-0.0204794
-0.0203993
-0.0203116
-0.0202172
-0.0201172
-0.0200127
-0.019905
-0.0197953
-0.0196848
-0.0195743
-0.0194647
-0.0193565
-0.0192497
-0.0191442
-0.0190396
-0.018935
-0.0188296
-0.0187223
-0.0186122
-0.0184983
-0.01838
-0.0182566
-0.0181277
-0.0179932
-0.0178532
-0.0177076
-0.0175569
-0.0174014
-0.0172415
-0.0170778
-0.0169107
-0.0167407
-0.0165684
-0.0163942
-0.0162185
-0.0160417
-0.0158642
-0.0156863
-0.0155083
-0.0153304
-0.0151529
-0.0149759
-0.0147996
-0.0146241
-0.0144495
-0.0142759
-0.0141034
-0.0139321
-0.013762
-0.013593
-0.0134254
-0.0132589
-0.0130938
-0.01293
-0.0127674
-0.0126061
-0.0124461
-0.0122873
-0.0121298
-0.0119735
-0.0118185
-0.0116646
-0.011512
-0.0113605
-0.0112102
-0.011061
-0.010913
-0.010766
-0.0106201
-0.0104753
-0.0103315
-0.0101888
-0.0100471
-0.00990637
-0.00976663
-0.00962785
-0.00949003
-0.00935313
-0.00921716
-0.00908208
-0.0089479
-0.00881458
-0.00868213
-0.00855052
-0.00841974
-0.00828978
-0.00816063
-0.00803227
-0.00790469
-0.00777787
-0.00765182
-0.0075265
-0.00740192
-0.00727805
-0.00715489
-0.00703242
-0.00691064
-0.00678953
-0.00666909
-0.00654929
-0.00643014
-0.00631162
-0.00619372
-0.00607642
-0.00595972
-0.0058436
-0.00572806
-0.00561309
-0.00549867
-0.0053848
-0.00527146
-0.00515865
-0.00504635
-0.00493456
-0.00482326
-0.00471245
-0.0046021
-0.00449222
-0.0043828
-0.00427381
-0.00416526
-0.00405713
-0.00394941
-0.0038421
-0.00373517
-0.00362863
-0.00352246
-0.00341666
-0.0033112
-0.00320609
-0.0031013
-0.00299684
-0.00289269
-0.00278884
-0.00268528
-0.002582
-0.00247899
-0.00237623
-0.00227373
-0.00217146
-0.00206942
-0.0019676
-0.00186599
-0.00176457
-0.00166334
-0.00156228
-0.00146139
-0.00136066
-0.00126007
-0.00115962
-0.00105928
-0.000959064
-0.000858947
-0.000758924
-0.000658973
-0.000559121
-0.000459231
-0.000359693
-0.000258978
-0.000161379
-4.69176e-05
14.0827
5.12151
3.35385
2.53879
1.37357
0.953592
0.486579
0.237412
0.228041
0.0140706
-0.174541
0.263765
1.35329
0.558279
0.281319
0.164723
0.0255907
-0.0117498
0.0336255
0.160488
0.291334
0.389601
0.454788
0.500338
0.533997
0.555639
0.564885
0.566306
0.566473
0.567916
0.572644
0.584449
0.604365
0.628477
0.657297
0.714058
0.874858
1.20941
1.51647
0.774514
-0.935541
-0.18064
0.229411
0.640496
1.50073
4.7351
13.0788
-2.78089
-2.99641
0.632953
3.71211
7.18965
5.17045
3.48891
3.95657
4.81874
6.3376
5.94441
5.51691
6.28833
7.15926
7.02889
6.78473
7.07197
7.36145
7.50576
7.7456
7.94186
8.02164
8.10032
8.16791
8.20105
8.22607
8.2394
8.23386
8.2107
8.16672
8.10265
8.02235
7.92872
7.82369
7.70785
7.58092
7.44264
7.29318
7.13332
6.96429
6.78755
6.60451
6.41644
6.22437
6.02921
5.83174
5.63272
5.43287
5.23296
5.03373
4.83592
4.64025
4.44738
4.25795
4.07252
3.89159
3.71559
3.54488
3.37974
3.22038
3.06696
2.91955
2.77821
2.64291
2.51359
2.39016
2.27249
2.16043
2.05382
1.95245
1.85613
1.76466
1.67782
1.59538
1.51714
1.44287
1.37236
1.3054
1.24179
1.18134
1.12387
1.06919
1.01714
0.967588
0.920378
0.875386
0.832493
0.791592
0.752582
0.715373
0.67988
0.646026
0.613736
0.582945
0.553589
0.525609
0.49895
0.473559
0.449388
0.42639
0.404523
0.383744
0.364015
0.345297
0.327556
0.310756
0.294864
0.279845
0.265668
0.252301
0.23971
0.227862
0.216726
0.206266
0.19645
0.187241
0.178606
0.170508
0.162912
0.155782
0.149085
0.142785
0.136849
0.131245
0.125943
0.120914
0.116131
0.111569
0.107206
0.103021
0.0989952
0.0951125
0.0913587
0.0877216
0.0841911
0.0807585
0.0774169
0.0741609
0.0709861
0.0678893
0.0648681
0.061921
0.0590468
0.0562447
0.0535145
0.0508559
0.0482687
0.0457528
0.0433082
0.0409346
0.0386317
0.0363992
0.0342366
0.0321431
0.0301182
0.028161
0.0262704
0.0244455
0.0226851
0.0209879
0.0193526
0.0177779
0.0162622
0.014804
0.0134019
0.012054
0.0107588
0.00951466
0.00831973
0.00717232
0.00607066
0.00501301
0.0039976
0.00302268
0.00208651
0.00118737
0.000323559
-0.000506569
-0.00130465
-0.00207226
-0.00281094
-0.00352218
-0.00420743
-0.00486807
-0.00550544
-0.00612079
-0.00671537
-0.00729031
-0.00784672
-0.00838564