/*--------------------------------*- C++ -*----------------------------------*\
| =========                 |                                                 |
| \\      /  F ield         | OpenFOAM: The Open Source CFD Toolbox           |
|  \\    /   O peration     | Version:  v2006                                 |
|   \\  /    A nd           | Website:  www.openfoam.com                      |
|    \\/     M anipulation  |                                                 |
\*---------------------------------------------------------------------------*/
FoamFile
{
    version     2.0;
    format      ascii;
    class       volScalarField;
    location    "0";
    object      alpha.water;
}
// * * * * * * * * * * * * * * * * * * * * * * * * * * * * * * * * * * * * * //

dimensions      [0 0 0 0 0 0 0];


internalField   nonuniform List<scalar> 
67500
(
0.0340239
0.076526
-0.105282
0.0546507
0.0911442
0.0683507
0.0586212
-0.00398074
-0.194561
-0.20331
-0.120465
-0.0208534
0.0742294
0.133802
0.150822
0.125694
0.0774983
-0.0016522
-0.0822386
-0.144498
-0.11559
-0.0237898
0.0180787
0.0178135
0.0120692
0.00290256
-4.58258e-05
0.00653478
0.0143395
0.0175406
0.0178314
0.0178314
0.0178314
0.0178314
0.0178314
0.0178314
0.0178314
0.0178314
0.0178314
0.0178314
0.0178314
0.0178314
0.0178314
0.0178314
0.0178314
0.0178314
0.0178314
0.0178314
0.0178314
0.0178314
0.0178314
0.0178314
0.0178314
0.0178314
0.0178314
0.0178314
0.0178314
0.0178314
0.0178314
0.0178314
0.0178314
0.0178314
0.0178314
0.0178314
0.0178314
0.0178314
0.0178314
0.0178314
0.0178314
0.0178314
0.0178314
0.0178314
0.0178314
0.0178314
0.0178314
0.0178314
0.0178314
0.0178314
0.0178314
0.0178314
0.0178314
0.0178314
0.0178314
0.0178314
0.0178314
0.0178314
0.0178314
0.0178314
0.0178314
0.0178314
0.0178314
0.0178314
0.0178314
0.0178314
0.0178314
0.0178314
0.0178314
0.0178314
0.0178314
0.0178314
0.0178314
0.0178314
0.0178314
0.0178314
0.0178314
0.0178314
0.0178314
0.0178314
0.0178314
0.0178314
0.0178314
0.0178314
0.0178314
0.0178314
0.0178314
0.0178314
0.0178314
0.0178314
0.0178314
0.0178314
0.0178314
0.0178314
0.0178314
0.0178314
0.0178314
0.0178314
0.0178314
0.0178314
0.0178314
0.0178314
0.0178314
0.0178314
0.0178314
0.0178314
0.0178314
0.0178314
0.0178314
0.0178314
0.0178314
0.0178314
0.0178314
0.0178314
0.0178314
0.0178314
0.0178314
0.0178314
0.0178314
0.0178314
0.0178314
0.0178314
0.0178314
0.0178314
0.0178314
0.0178314
0.0178314
0.0178314
0.0178314
0.0178314
0.0178314
0.0178314
0.0178314
0.0178314
0.0178314
0.0178314
0.0178314
0.0178314
0.0178314
0.0178314
0.0178314
0.0178314
0.0178314
0.0178314
0.0178314
0.0178314
0.0178314
0.0178314
0.0178314
0.0178314
0.0178314
0.0178314
0.0178314
0.0178314
0.0178314
0.0178314
0.0178314
0.0178314
0.0178314
0.0178314
0.0178314
0.0178314
0.0178314
0.0178314
0.0178314
0.0178314
0.0178314
0.0178314
0.0178314
0.0178314
0.0178314
0.0178314
0.0178314
0.0178314
0.0178314
0.0178314
0.0178314
0.0178314
0.0178314
0.0178314
0.0178314
0.0178314
0.0178314
0.0178314
0.0178314
0.0178314
0.0178314
0.0178314
0.0178314
0.0178314
0.0178314
0.0178314
0.0178314
0.0178314
0.0178314
0.0178314
0.0178314
0.0178314
0.0178314
0.0178314
0.0178314
0.0178314
0.0178314
0.0178314
0.0178314
0.0178314
0.0178314
0.0178314
0.0178314
0.0178314
0.0178314
0.0178314
0.0178314
0.0178314
0.0178314
0.0178314
0.0178314
0.0178314
0.0178314
0.0178314
0.0178314
0.0178314
0.0178314
0.0178314
0.0178314
0.0178314
0.0178314
0.0178314
0.0178314
0.0178314
0.0178314
0.0178314
0.0178314
0.0178314
0.0178314
0.0178314
0.0178314
0.0178314
0.0178314
0.0178314
0.0178314
0.0178314
0.0178314
0.0178314
0.0178314
0.0178314
0.0178314
0.0178314
0.0178314
0.0178314
0.0178314
0.0178314
0.0178314
0.0178314
0.0178314
0.0178314
0.0178314
0.0178314
0.0178314
0.0178314
0.0178314
0.0178314
0.0178314
0.0178314
0.0178314
0.0178314
0.0178314
0.0178314
0.0178314
0.0178314
0.0178314
0.0178314
0.0178314
0.0178314
0.0178314
0.0178314
0.0178314
0.0178314
0.0178314
0.0178314
0.0178314
0.0178314
0.0178314
0.0178314
0.0178314
0.0178314
0.0178314
0.0178314
0.0178314
0.0178314
0.0178314
0.0178314
0.0178314
0.0178314
0.0178314
0.0178314
0.0178314
0.0178314
0.0178314
0.0178314
0.0178314
0.0178314
0.0178314
0.0178314
0.0178314
0.0178314
0.0178314
0.0178314
0.0178314
0.0178314
0.0178314
0.0178314
0.0178314
0.0178314
0.0178314
0.0178314
0.0178314
0.0178314
0.0178314
0.0178314
0.0178314
0.0178314
0.0178314
0.0178314
0.0178314
0.0178314
0.0178314
0.0178314
0.0178314
0.0178314
0.0178314
0.0178314
0.0178314
0.0178314
0.0178314
0.0178314
0.0178314
0.0178314
0.0178314
0.0178314
0.0178314
0.0178314
0.0178314
0.0178314
0.0178314
0.0178314
0.0178314
0.0178314
0.0178314
0.0178314
0.0178314
0.0178314
0.0178314
0.0178314
0.0178314
0.0178314
0.0178314
0.0178314
0.0178314
0.0178314
0.0178314
0.0178314
0.0178314
0.0178314
0.0178314
0.0178314
0.0178314
0.0178314
0.0178314
0.0178314
0.0178314
0.0178314
0.0178314
0.0178314
0.0178314
0.0178314
0.0178314
0.0178314
0.0178314
0.0178314
0.0178314
0.0178314
0.0178314
0.0178314
0.0178314
0.0178314
0.0178314
0.0178314
0.0178314
0.0178314
0.0178314
0.0178314
0.0178314
0.0178314
0.0178314
0.0178314
0.0178314
0.0178314
0.0178314
0.0178314
0.0178314
0.0178314
0.0178314
0.0178314
0.0178314
0.0178314
0.0178314
0.0178314
0.0178314
0.0178314
0.0178314
0.0178314
0.0178314
0.0178314
0.0178314
0.0178314
0.0178314
0.0178314
0.0178314
0.0178314
0.0178314
0.0178314
-0.0181832
0.0776103
0.0648338
0.0623384
-0.0904197
-0.100504
-0.143464
-0.333941
-0.426972
-0.394986
-0.305756
-0.149072
0.053923
0.212269
0.231111
0.232051
0.219921
0.186423
0.130254
0.0621142
-0.00719149
-0.0483476
-0.0670509
-0.0736412
-0.120795
-0.17562
-0.162408
-0.110672
-0.0404223
0.0128259
0.0178314
0.0178314
0.0178314
0.0178314
0.0178314
0.0178314
0.0178314
0.0178292
0.01782
0.0178234
0.0178088
0.017695
0.0175832
0.017564
0.0176187
0.0176967
0.0176171
0.0172842
0.0167532
0.0161884
0.0157592
0.0155696
0.0156276
0.0158543
0.0161758
0.0165216
0.0168399
0.0171024
0.0172992
0.0174365
0.0175261
0.0175787
0.0176032
0.0176106
0.017625
0.0176561
0.0177027
0.0177518
0.0177914
0.0178166
0.0178279
0.0178314
0.0178314
0.0178314
0.0178314
0.0178314
0.0178314
0.0178314
0.0178314
0.0178314
0.0178314
0.0178314
0.0178314
0.0178314
0.0178314
0.0178314
0.0178314
0.0178314
0.0178314
0.0178314
0.0178314
0.0178314
0.0178314
0.0178314
0.0178314
0.0178314
0.0178314
0.0178314
0.0178314
0.0178314
0.0178314
0.0178314
0.0178314
0.0178314
0.0178314
0.0178314
0.0178314
0.0178314
0.0178314
0.0178314
0.0178314
0.0178314
0.0178314
0.0178314
0.0178314
0.0178314
0.0178314
0.0178314
0.0178314
0.0178314
0.0178314
0.0178314
0.0178314
0.0178314
0.0178314
0.0178314
0.0178314
0.0178314
0.0178314
0.0178314
0.0178314
0.0178314
0.0178314
0.0178314
0.0178314
0.0178314
0.0178314
0.0178314
0.0178314
0.0178314
0.0178314
0.0178314
0.0178314
0.0178314
0.0178314
0.0178314
0.0178314
0.0178314
0.0178314
0.0178314
0.0178314
0.0178314
0.0178314
0.0178314
0.0178314
0.0178314
0.0178314
0.0178314
0.0178314
0.0178314
0.0178314
0.0178314
0.0178314
0.0178314
0.0178314
0.0178314
0.0178314
0.0178314
0.0178314
0.0178314
0.0178314
0.0178314
0.0178314
0.0178314
0.0178314
0.0178314
0.0178314
0.0178314
0.0178314
0.0178314
0.0178314
0.0178314
0.0178314
0.0178314
0.0178314
0.0178314
0.0178314
0.0178314
0.0178314
0.0178314
0.0178314
0.0178314
0.0178314
0.0178314
0.0178314
0.0178314
0.0178314
0.0178314
0.0178314
0.0178314
0.0178314
0.0178314
0.0178314
0.0178314
0.0178314
0.0178314
0.0178314
0.0178314
0.0178314
0.0178314
0.0178314
0.0178314
0.0178314
0.0178314
0.0178314
0.0178314
0.0178314
0.0178314
0.0178314
0.0178314
0.0178314
0.0178314
0.0178314
0.0178314
0.0178314
0.0178314
0.0178314
0.0178314
0.0178314
0.0178314
0.0178314
0.0178314
0.0178314
0.0178314
0.0178314
0.0178314
0.0178314
0.0178314
0.0178314
0.0178314
0.0178314
0.0178314
0.0178314
0.0178314
0.0178314
0.0178314
0.0178314
0.0178314
0.0178314
0.0178314
0.0178314
0.0178314
0.0178314
0.0178314
0.0178314
0.0178314
0.0178314
0.0178314
0.0178314
0.0178314
0.0178314
0.0178314
0.0178314
0.0178314
0.0178314
0.0178314
0.0178314
0.0178314
0.0178314
0.0178314
0.0178314
0.0178314
0.0178314
0.0178314
0.0178314
0.0178314
0.0178314
0.0178314
0.0178314
0.0178314
0.0178314
0.0178314
0.0178314
0.0178314
0.0178314
0.0178314
0.0178314
0.0178314
0.0178314
0.0178314
0.0178314
0.0178314
0.0178314
0.0178314
0.0178314
0.0178314
0.0178314
0.0178314
0.0178314
0.0178314
0.0178314
0.0178314
0.0178314
0.0178314
0.0178314
0.0178314
0.0178314
0.0178314
0.0178314
0.0178314
0.0178314
0.0178314
0.0178314
0.0178314
0.0178314
0.0178314
0.0178314
0.0178314
0.0178314
0.0178314
0.0178314
0.0178314
0.0178314
0.0178314
0.0178314
0.0178314
0.0178314
0.0178314
0.0178314
0.0178314
0.0178314
0.0178314
0.0178314
0.0178314
0.0178314
0.0178314
0.0178314
0.0178314
0.0178314
0.0178314
0.0178314
0.0178314
0.0178314
0.0178314
0.0178314
0.0178314
0.0178314
0.0178314
0.0178314
0.0178314
0.0178314
0.0178314
0.0178314
0.0178314
0.0178314
0.0178314
0.0178314
0.0178314
0.0178314
0.0178314
0.0178314
0.0178314
0.0178314
0.0178314
0.0178314
0.0178314
0.0178314
0.0178314
0.0178314
0.0178314
0.0178314
0.0178314
0.0178314
0.0178314
0.0178314
0.0178314
0.0178314
0.0178314
0.0178314
0.0178314
0.0178314
0.0178314
0.0178314
0.0178314
0.0178314
0.0178314
0.0178314
0.0178314
0.0178314
0.0178314
0.0178314
0.0178314
0.0178314
0.0178314
0.0178314
0.0178314
0.0178314
0.0178314
0.0178314
0.0178314
0.0178314
0.0178314
0.0178314
0.0178314
0.0178314
0.0178314
0.0178314
0.0178314
0.0178314
0.0178314
0.0178314
0.0178314
0.0178314
0.0178314
0.0178314
0.0178314
0.0178314
0.0178314
0.0178314
0.0178314
0.0178314
0.0178314
0.0178314
0.0178314
0.0178314
0.0178314
0.0178314
0.0178314
0.0178314
0.0178314
0.0178314
0.0178314
0.0178314
0.0178314
0.0178314
0.0178314
0.0178314
0.0178314
0.0178314
0.0178314
0.0178314
0.0178314
0.0178314
0.0178314
0.0178314
0.0178314
0.0178314
0.0178314
0.0178314
0.0178314
-0.0109883
0.0303589
-0.101034
-0.224965
-0.29872
-0.299824
-0.223636
-0.185477
-0.16955
-0.152698
-0.111603
-0.0436515
0.0244886
0.072541
0.1054
0.105242
0.0696255
0.0274848
-0.00577037
-0.0346202
-0.0887824
-0.16558
-0.203068
-0.194355
-0.154236
-0.0904479
-0.0165546
0.0157716
0.0178314
0.0178314
0.0196047
0.0200202
0.012471
0.00305319
-0.00575105
-0.0165945
-0.0294854
-0.035201
-0.0327915
-0.0314951
-0.0345323
-0.0388231
-0.03986
-0.0383496
-0.0373966
-0.0409171
-0.0511363
-0.0661433
-0.0808828
-0.0910801
-0.0957523
-0.0959913
-0.0934351
-0.0892169
-0.0842024
-0.079105
-0.0745431
-0.0709698
-0.0684713
-0.0668673
-0.065822
-0.0649154
-0.0639487
-0.062472
-0.060033
-0.0564799
-0.0520597
-0.0474269
-0.0429946
-0.0390642
-0.0357508
-0.0330388
-0.0306013
-0.0284436
-0.0261557
-0.0237801
-0.0210119
-0.0178339
-0.0140743
-0.00993091
-0.00571312
-0.00170046
0.00192909
0.00510642
0.00783392
0.0101493
0.0120895
0.0136845
0.014958
0.015944
0.0166761
0.0171892
0.0175173
0.0177053
0.0177973
0.017828
0.0178314
0.0178314
0.0178314
0.0178314
0.0178314
0.0178314
0.0178314
0.0178314
0.0178314
0.0178314
0.0178314
0.0178314
0.0178314
0.0178314
0.0178314
0.0178314
0.0178314
0.0178314
0.0178314
0.0178314
0.0178314
0.0178314
0.0178314
0.0178314
0.0178314
0.0178314
0.0178314
0.0178314
0.0178314
0.0178314
0.0178314
0.0178314
0.0178314
0.0178314
0.0178314
0.0178314
0.0178314
0.0178314
0.0178314
0.0178314
0.0178314
0.0178314
0.0178314
0.0178314
0.0178314
0.0178314
0.0178314
0.0178314
0.0178314
0.0178314
0.0178314
0.0178314
0.0178314
0.0178314
0.0178314
0.0178314
0.0178314
0.0178314
0.0178314
0.0178314
0.0178314
0.0178314
0.0178314
0.0178314
0.0178314
0.0178314
0.0178314
0.0178314
0.0178314
0.0178314
0.0178314
0.0178314
0.0178314
0.0178314
0.0178314
0.0178314
0.0178314
0.0178314
0.0178314
0.0178314
0.0178314
0.0178314
0.0178314
0.0178314
0.0178314
0.0178314
0.0178314
0.0178314
0.0178314
0.0178314
0.0178314
0.0178314
0.0178314
0.0178314
0.0178314
0.0178314
0.0178314
0.0178314
0.0178314
0.0178314
0.0178314
0.0178314
0.0178314
0.0178314
0.0178314
0.0178314
0.0178314
0.0178314
0.0178314
0.0178314
0.0178314
0.0178314
0.0178314
0.0178314
0.0178314
0.0178314
0.0178314
0.0178314
0.0178314
0.0178314
0.0178314
0.0178314
0.0178314
0.0178314
0.0178314
0.0178314
0.0178314
0.0178314
0.0178314
0.0178314
0.0178314
0.0178314
0.0178314
0.0178314
0.0178314
0.0178314
0.0178314
0.0178314
0.0178314
0.0178314
0.0178314
0.0178314
0.0178314
0.0178314
0.0178314
0.0178314
0.0178314
0.0178314
0.0178314
0.0178314
0.0178314
0.0178314
0.0178314
0.0178314
0.0178314
0.0178314
0.0178314
0.0178314
0.0178314
0.0178314
0.0178314
0.0178314
0.0178314
0.0178314
0.0178314
0.0178314
0.0178314
0.0178314
0.0178314
0.0178314
0.0178314
0.0178314
0.0178314
0.0178314
0.0178314
0.0178314
0.0178314
0.0178314
0.0178314
0.0178314
0.0178314
0.0178314
0.0178314
0.0178314
0.0178314
0.0178314
0.0178314
0.0178314
0.0178314
0.0178314
0.0178314
0.0178314
0.0178314
0.0178314
0.0178314
0.0178314
0.0178314
0.0178314
0.0178314
0.0178314
0.0178314
0.0178314
0.0178314
0.0178314
0.0178314
0.0178314
0.0178314
0.0178314
0.0178314
0.0178314
0.0178314
0.0178314
0.0178314
0.0178314
0.0178314
0.0178314
0.0178314
0.0178314
0.0178314
0.0178314
0.0178314
0.0178314
0.0178314
0.0178314
0.0178314
0.0178314
0.0178314
0.0178314
0.0178314
0.0178314
0.0178314
0.0178314
0.0178314
0.0178314
0.0178314
0.0178314
0.0178314
0.0178314
0.0178314
0.0178314
0.0178314
0.0178314
0.0178314
0.0178314
0.0178314
0.0178314
0.0178314
0.0178314
0.0178314
0.0178314
0.0178314
0.0178314
0.0178314
0.0178314
0.0178314
0.0178314
0.0178314
0.0178314
0.0178314
0.0178314
0.0178314
0.0178314
0.0178314
0.0178314
0.0178314
0.0178314
0.0178314
0.0178314
0.0178314
0.0178314
0.0178314
0.0178314
0.0178314
0.0178314
0.0178314
0.0178314
0.0178314
0.0178314
0.0178314
0.0178314
0.0178314
0.0178314
0.0178314
0.0178314
0.0178314
0.0178314
0.0178314
0.0178314
0.0178314
0.0178314
0.0178314
0.0178314
0.0178314
0.0178314
0.0178314
0.0178314
0.0178314
0.0178314
0.0178314
0.0178314
0.0178314
0.0178314
0.0178314
0.0178314
0.0178314
0.0178314
0.0178314
0.0178314
0.0178314
0.0178314
0.0178314
0.0178314
0.0178314
0.0178314
0.0178314
0.0178314
0.0178314
0.0178314
0.0178314
0.0178314
0.0178314
0.0178314
0.0178314
0.0178314
0.0178314
0.0178314
0.0178314
0.0178314
0.0178314
0.0178314
0.0178314
0.0178314
0.0178314
0.0178314
0.0178314
0.0178314
0.0178314
0.0178314
0.0178314
0.0178314
0.0178314
0.0178314
0.0178314
0.0178314
0.0178314
0.0178314
0.0178314
0.0178314
0.0178314
0.0178314
0.0178314
0.0178314
0.0178314
0.0178314
0.0338322
-0.0664248
-0.238505
-0.235683
-0.249395
-0.19836
0.0400484
0.190671
0.20687
0.170236
0.136153
0.101408
0.0675192
0.0215969
-0.0303087
-0.105605
-0.180111
-0.229935
-0.205242
-0.121302
-0.0150253
-0.00779048
-0.0205528
-0.0174067
0.00767524
0.0387588
0.0728269
0.0744575
0.0761719
0.139856
0.191633
0.0456868
-0.0520776
-0.0780668
-0.0231214
0.0426397
0.0805458
0.0981935
0.10653
0.109032
0.107254
0.101911
0.0939728
0.0841757
0.0737207
0.0639824
0.0562897
0.0509275
0.0467228
0.0418945
0.0355921
0.0273334
0.0174588
0.00653513
-0.00522121
-0.0173271
-0.0294368
-0.0412218
-0.0523489
-0.0627063
-0.072182
-0.0811051
-0.0899892
-0.0990587
-0.109119
-0.120175
-0.131917
-0.143836
-0.155513
-0.166347
-0.176182
-0.184485
-0.191274
-0.196108
-0.199231
-0.200342
-0.199565
-0.196758
-0.192248
-0.1862
-0.178743
-0.170044
-0.16031
-0.149646
-0.138204
-0.126275
-0.114126
-0.101857
-0.0896626
-0.0778477
-0.0665335
-0.0558102
-0.0461115
-0.037388
-0.0297512
-0.0233578
-0.0177833
-0.0131876
-0.00930373
-0.00594661
-0.00277356
0.000214108
0.00296629
0.00544559
0.0076648
0.00968358
0.0115384
0.0132195
0.0146709
0.0158261
0.016673
0.0172415
0.0175872
0.0177654
0.0178271
0.0178314
0.0178314
0.0178314
0.0178314
0.0178314
0.0178314
0.0178314
0.0178314
0.0178314
0.0178314
0.0178314
0.0178314
0.0178314
0.0178314
0.0178314
0.0178314
0.0178314
0.0178314
0.0178314
0.0178314
0.0178314
0.0178314
0.0178314
0.0178314
0.0178314
0.0178314
0.0178314
0.0178314
0.0178314
0.0178314
0.0178314
0.0178314
0.0178314
0.0178314
0.0178314
0.0178314
0.0178314
0.0178314
0.0178314
0.0178314
0.0178314
0.0178314
0.0178314
0.0178314
0.0178314
0.0178314
0.0178314
0.0178314
0.0178314
0.0178314
0.0178314
0.0178314
0.0178314
0.0178314
0.0178314
0.0178314
0.0178314
0.0178314
0.0178314
0.0178314
0.0178314
0.0178314
0.0178314
0.0178314
0.0178314
0.0178314
0.0178314
0.0178314
0.0178314
0.0178314
0.0178314
0.0178314
0.0178314
0.0178314
0.0178314
0.0178314
0.0178314
0.0178314
0.0178314
0.0178314
0.0178314
0.0178314
0.0178314
0.0178314
0.0178314
0.0178314
0.0178314
0.0178314
0.0178314
0.0178314
0.0178314
0.0178314
0.0178314
0.0178314
0.0178314
0.0178314
0.0178314
0.0178314
0.0178314
0.0178314
0.0178314
0.0178314
0.0178314
0.0178314
0.0178314
0.0178314
0.0178314
0.0178314
0.0178314
0.0178314
0.0178314
0.0178314
0.0178314
0.0178314
0.0178314
0.0178314
0.0178314
0.0178314
0.0178314
0.0178314
0.0178314
0.0178314
0.0178314
0.0178314
0.0178314
0.0178314
0.0178314
0.0178314
0.0178314
0.0178314
0.0178314
0.0178314
0.0178314
0.0178314
0.0178314
0.0178314
0.0178314
0.0178314
0.0178314
0.0178314
0.0178314
0.0178314
0.0178314
0.0178314
0.0178314
0.0178314
0.0178314
0.0178314
0.0178314
0.0178314
0.0178314
0.0178314
0.0178314
0.0178314
0.0178314
0.0178314
0.0178314
0.0178314
0.0178314
0.0178314
0.0178314
0.0178314
0.0178314
0.0178314
0.0178314
0.0178314
0.0178314
0.0178314
0.0178314
0.0178314
0.0178314
0.0178314
0.0178314
0.0178314
0.0178314
0.0178314
0.0178314
0.0178314
0.0178314
0.0178314
0.0178314
0.0178314
0.0178314
0.0178314
0.0178314
0.0178314
0.0178314
0.0178314
0.0178314
0.0178314
0.0178314
0.0178314
0.0178314
0.0178314
0.0178314
0.0178314
0.0178314
0.0178314
0.0178314
0.0178314
0.0178314
0.0178314
0.0178314
0.0178314
0.0178314
0.0178314
0.0178314
0.0178314
0.0178314
0.0178314
0.0178314
0.0178314
0.0178314
0.0178314
0.0178314
0.0178314
0.0178314
0.0178314
0.0178314
0.0178314
0.0178314
0.0178314
0.0178314
0.0178314
0.0178314
0.0178314
0.0178314
0.0178314
0.0178314
0.0178314
0.0178314
0.0178314
0.0178314
0.0178314
0.0178314
0.0178314
0.0178314
0.0178314
0.0178314
0.0178314
0.0178314
0.0178314
0.0178314
0.0178314
0.0178314
0.0178314
0.0178314
0.0178314
0.0178314
0.0178314
0.0178314
0.0178314
0.0178314
0.0178314
0.0178314
0.0178314
0.0178314
0.0178314
0.0178314
0.0178314
0.0178314
0.0178314
0.0178314
0.0178314
0.0178314
0.0178314
0.0178314
0.0178314
0.0178314
0.0178314
0.0178314
0.0178314
0.0178314
0.0178314
0.0178314
0.0178314
0.0178314
0.0178314
0.0178314
0.0178314
0.0178314
0.0178314
0.0178314
0.0178314
0.0178314
0.0178314
0.0178314
0.0178314
0.0178314
0.0178314
0.0178314
0.0178314
0.0178314
0.0178314
0.0178314
0.0178314
0.0178314
0.0178314
0.0178314
0.0178314
0.0178314
0.0178314
0.0178314
0.0178314
0.0178314
0.0178314
0.0178314
0.0178314
0.0178314
0.0178314
0.0178314
0.0178314
0.0178314
0.0178314
0.0178314
0.0178314
0.0178314
0.0178314
0.0178314
0.0178314
0.0178314
0.0178314
0.0178314
0.0178314
0.0178314
0.0178314
0.0178314
0.0178314
0.0178314
0.0178314
0.0178314
0.0178314
0.0178314
0.0178314
0.0178314
0.0732226
-0.146349
-0.172586
-0.15636
-0.167771
-0.166737
-0.0995603
0.0904952
0.230806
0.239167
0.218518
0.203912
0.211817
0.213996
0.197647
0.163814
0.117811
-0.0127344
-0.213439
-0.158993
0.0287855
0.00272862
0.152119
0.146736
0.172136
0.184544
0.188144
0.243946
0.357739
0.313728
0.14727
0.115133
0.110416
0.109728
0.114175
0.120066
0.125686
0.131521
0.137951
0.145274
0.152867
0.160703
0.168462
0.175749
0.182508
0.18848
0.193833
0.199011
0.204171
0.209544
0.214736
0.219452
0.223572
0.226352
0.227921
0.227842
0.225996
0.222501
0.217122
0.209924
0.200886
0.19
0.177459
0.163189
0.147567
0.130552
0.112156
0.0930714
0.0732117
0.052363
0.0313269
0.0101216
-0.0109771
-0.0318071
-0.05181
-0.0711267
-0.0895091
-0.106671
-0.122799
-0.137499
-0.150985
-0.163195
-0.173976
-0.183666
-0.191953
-0.198984
-0.204694
-0.209357
-0.213038
-0.215528
-0.217065
-0.217622
-0.217169
-0.215701
-0.213117
-0.209237
-0.204355
-0.198149
-0.190754
-0.182273
-0.173008
-0.163213
-0.152847
-0.141945
-0.130407
-0.117833
-0.104441
-0.0904317
-0.0764111
-0.0629858
-0.0501926
-0.0381411
-0.0270712
-0.0170719
-0.00832555
-0.00106496
0.0046601
0.00881651
0.0120112
0.0143763
0.0159804
0.0169808
0.0175402
0.0177769
0.0178314
0.0178314
0.0178314
0.0178314
0.0178314
0.0178314
0.0178314
0.0178314
0.0178314
0.0178314
0.0178314
0.0178314
0.0178314
0.0178314
0.0178314
0.0178314
0.0178314
0.0178314
0.0178314
0.0178314
0.0178314
0.0178314
0.0178314
0.0178314
0.0178314
0.0178314
0.0178314
0.0178314
0.0178314
0.0178314
0.0178314
0.0178314
0.0178314
0.0178314
0.0178314
0.0178314
0.0178314
0.0178314
0.0178314
0.0178314
0.0178314
0.0178314
0.0178314
0.0178314
0.0178314
0.0178314
0.0178314
0.0178314
0.0178314
0.0178314
0.0178314
0.0178314
0.0178314
0.0178314
0.0178314
0.0178314
0.0178314
0.0178314
0.0178314
0.0178314
0.0178314
0.0178314
0.0178314
0.0178314
0.0178314
0.0178314
0.0178314
0.0178314
0.0178314
0.0178314
0.0178314
0.0178314
0.0178314
0.0178314
0.0178314
0.0178314
0.0178314
0.0178314
0.0178314
0.0178314
0.0178314
0.0178314
0.0178314
0.0178314
0.0178314
0.0178314
0.0178314
0.0178314
0.0178314
0.0178314
0.0178314
0.0178314
0.0178314
0.0178314
0.0178314
0.0178314
0.0178314
0.0178314
0.0178314
0.0178314
0.0178314
0.0178314
0.0178314
0.0178314
0.0178314
0.0178314
0.0178314
0.0178314
0.0178314
0.0178314
0.0178314
0.0178314
0.0178314
0.0178314
0.0178314
0.0178314
0.0178314
0.0178314
0.0178314
0.0178314
0.0178314
0.0178314
0.0178314
0.0178314
0.0178314
0.0178314
0.0178314
0.0178314
0.0178314
0.0178314
0.0178314
0.0178314
0.0178314
0.0178314
0.0178314
0.0178314
0.0178314
0.0178314
0.0178314
0.0178314
0.0178314
0.0178314
0.0178314
0.0178314
0.0178314
0.0178314
0.0178314
0.0178314
0.0178314
0.0178314
0.0178314
0.0178314
0.0178314
0.0178314
0.0178314
0.0178314
0.0178314
0.0178314
0.0178314
0.0178314
0.0178314
0.0178314
0.0178314
0.0178314
0.0178314
0.0178314
0.0178314
0.0178314
0.0178314
0.0178314
0.0178314
0.0178314
0.0178314
0.0178314
0.0178314
0.0178314
0.0178314
0.0178314
0.0178314
0.0178314
0.0178314
0.0178314
0.0178314
0.0178314
0.0178314
0.0178314
0.0178314
0.0178314
0.0178314
0.0178314
0.0178314
0.0178314
0.0178314
0.0178314
0.0178314
0.0178314
0.0178314
0.0178314
0.0178314
0.0178314
0.0178314
0.0178314
0.0178314
0.0178314
0.0178314
0.0178314
0.0178314
0.0178314
0.0178314
0.0178314
0.0178314
0.0178314
0.0178314
0.0178314
0.0178314
0.0178314
0.0178314
0.0178314
0.0178314
0.0178314
0.0178314
0.0178314
0.0178314
0.0178314
0.0178314
0.0178314
0.0178314
0.0178314
0.0178314
0.0178314
0.0178314
0.0178314
0.0178314
0.0178314
0.0178314
0.0178314
0.0178314
0.0178314
0.0178314
0.0178314
0.0178314
0.0178314
0.0178314
0.0178314
0.0178314
0.0178314
0.0178314
0.0178314
0.0178314
0.0178314
0.0178314
0.0178314
0.0178314
0.0178314
0.0178314
0.0178314
0.0178314
0.0178314
0.0178314
0.0178314
0.0178314
0.0178314
0.0178314
0.0178314
0.0178314
0.0178314
0.0178314
0.0178314
0.0178314
0.0178314
0.0178314
0.0178314
0.0178314
0.0178314
0.0178314
0.0178314
0.0178314
0.0178314
0.0178314
0.0178314
0.0178314
0.0178314
0.0178314
0.0178314
0.0178314
0.0178314
0.0178314
0.0178314
0.0178314
0.0178314
0.0178314
0.0178314
0.0178314
0.0178314
0.0178314
0.0178314
0.0178314
0.0178314
0.0178314
0.0178314
0.0178314
0.0178314
0.0178314
0.0178314
0.0178314
0.0178314
0.0178314
0.0178314
0.0178314
0.0178314
0.0178314
0.0178314
0.0178314
0.0178314
0.0178314
0.0178314
0.0178314
0.0178314
0.0178314
0.0178314
0.0178314
0.0178314
0.0178314
0.0178314
0.0178314
0.0178314
0.0604839
-0.14743
-0.0902057
-0.0609193
-0.0767623
-0.137515
-0.188571
-0.143717
-0.0334069
0.100573
0.114429
0.0557044
-0.00438585
-0.0154488
0.0251771
0.1117
0.163753
0.104988
-0.075825
-0.174125
-0.14246
-0.143063
-0.120702
-0.127117
-0.135844
-0.143372
-0.148825
-0.13525
-0.0521965
-0.103879
-0.150401
-0.147144
-0.143457
-0.138922
-0.132622
-0.125031
-0.116356
-0.106448
-0.0960278
-0.0849468
-0.0731674
-0.0602213
-0.0463105
-0.0307999
-0.014052
0.00434822
0.023461
0.0430607
0.0625448
0.082138
0.101368
0.119953
0.13778
0.155096
0.170943
0.185563
0.198883
0.210433
0.220154
0.228154
0.234205
0.238578
0.241206
0.241849
0.240812
0.238163
0.233993
0.228182
0.221063
0.213061
0.203777
0.193569
0.182437
0.170573
0.157683
0.144157
0.130135
0.115084
0.0998425
0.0838736
0.0674226
0.0504211
0.0326728
0.0151039
-0.00318695
-0.021709
-0.0400768
-0.0585593
-0.0765617
-0.0942705
-0.111562
-0.128009
-0.14387
-0.159109
-0.173269
-0.186569
-0.198636
-0.209046
-0.21817
-0.225794
-0.231812
-0.236268
-0.23915
-0.240433
-0.239952
-0.237951
-0.234258
-0.229019
-0.222198
-0.21367
-0.203753
-0.192587
-0.179876
-0.165924
-0.151009
-0.134853
-0.117737
-0.0996892
-0.0818088
-0.064579
-0.0483467
-0.0333326
-0.0201949
-0.00907915
0.000115558
0.0069485
0.0116112
0.0144544
0.0162458
0.0172613
0.017708
0.01783
0.0178314
0.0178314
0.0178314
0.0178314
0.0178314
0.0178314
0.0178314
0.0178314
0.0178314
0.0178314
0.0178314
0.0178314
0.0178314
0.0178314
0.0178314
0.0178314
0.0178314
0.0178314
0.0178314
0.0178314
0.0178314
0.0178314
0.0178314
0.0178314
0.0178314
0.0178314
0.0178314
0.0178314
0.0178314
0.0178314
0.0178314
0.0178314
0.0178314
0.0178314
0.0178314
0.0178314
0.0178314
0.0178314
0.0178314
0.0178314
0.0178314
0.0178314
0.0178314
0.0178314
0.0178314
0.0178314
0.0178314
0.0178314
0.0178314
0.0178314
0.0178314
0.0178314
0.0178314
0.0178314
0.0178314
0.0178314
0.0178314
0.0178314
0.0178314
0.0178314
0.0178314
0.0178314
0.0178314
0.0178314
0.0178314
0.0178314
0.0178314
0.0178314
0.0178314
0.0178314
0.0178314
0.0178314
0.0178314
0.0178314
0.0178314
0.0178314
0.0178314
0.0178314
0.0178314
0.0178314
0.0178314
0.0178314
0.0178314
0.0178314
0.0178314
0.0178314
0.0178314
0.0178314
0.0178314
0.0178314
0.0178314
0.0178314
0.0178314
0.0178314
0.0178314
0.0178314
0.0178314
0.0178314
0.0178314
0.0178314
0.0178314
0.0178314
0.0178314
0.0178314
0.0178314
0.0178314
0.0178314
0.0178314
0.0178314
0.0178314
0.0178314
0.0178314
0.0178314
0.0178314
0.0178314
0.0178314
0.0178314
0.0178314
0.0178314
0.0178314
0.0178314
0.0178314
0.0178314
0.0178314
0.0178314
0.0178314
0.0178314
0.0178314
0.0178314
0.0178314
0.0178314
0.0178314
0.0178314
0.0178314
0.0178314
0.0178314
0.0178314
0.0178314
0.0178314
0.0178314
0.0178314
0.0178314
0.0178314
0.0178314
0.0178314
0.0178314
0.0178314
0.0178314
0.0178314
0.0178314
0.0178314
0.0178314
0.0178314
0.0178314
0.0178314
0.0178314
0.0178314
0.0178314
0.0178314
0.0178314
0.0178314
0.0178314
0.0178314
0.0178314
0.0178314
0.0178314
0.0178314
0.0178314
0.0178314
0.0178314
0.0178314
0.0178314
0.0178314
0.0178314
0.0178314
0.0178314
0.0178314
0.0178314
0.0178314
0.0178314
0.0178314
0.0178314
0.0178314
0.0178314
0.0178314
0.0178314
0.0178314
0.0178314
0.0178314
0.0178314
0.0178314
0.0178314
0.0178314
0.0178314
0.0178314
0.0178314
0.0178314
0.0178314
0.0178314
0.0178314
0.0178314
0.0178314
0.0178314
0.0178314
0.0178314
0.0178314
0.0178314
0.0178314
0.0178314
0.0178314
0.0178314
0.0178314
0.0178314
0.0178314
0.0178314
0.0178314
0.0178314
0.0178314
0.0178314
0.0178314
0.0178314
0.0178314
0.0178314
0.0178314
0.0178314
0.0178314
0.0178314
0.0178314
0.0178314
0.0178314
0.0178314
0.0178314
0.0178314
0.0178314
0.0178314
0.0178314
0.0178314
0.0178314
0.0178314
0.0178314
0.0178314
0.0178314
0.0178314
0.0178314
0.0178314
0.0178314
0.0178314
0.0178314
0.0178314
0.0178314
0.0178314
0.0178314
0.0178314
0.0178314
0.0178314
0.0178314
0.0178314
0.0178314
0.0178314
0.0178314
0.0178314
0.0178314
0.0178314
0.0178314
0.0178314
0.0178314
0.0178314
0.0178314
0.0178314
0.0178314
0.0178314
0.0178314
0.0178314
0.0178314
0.0178314
0.0178314
0.0178314
0.0178314
0.0178314
0.0178314
0.0178314
0.0178314
0.0178314
0.0178314
0.0178314
0.0178314
0.0178314
0.0178314
0.0178314
0.0178314
0.0178314
0.0178314
0.0178314
0.0178314
0.0178314
0.0178314
0.0178314
0.0178314
0.0178314
0.0178314
0.0178314
0.0178314
0.0178314
0.0178314
0.0178314
0.0178314
0.0178314
0.0178314
0.0178314
0.0178314
0.0178314
0.0178314
0.0178314
0.0178314
0.0178314
0.0178314
0.0178314
0.0178314
0.0223387
-0.116863
-0.0149542
0.0261671
0.017667
-0.0353794
-0.0902416
-0.144691
-0.167714
-0.177857
-0.172759
-0.182521
-0.196834
-0.208535
-0.221065
-0.237438
-0.254346
-0.270428
-0.280579
-0.252116
-0.242183
-0.233101
-0.228931
-0.2278
-0.227944
-0.228477
-0.229187
-0.228185
-0.221959
-0.232145
-0.233487
-0.234359
-0.234473
-0.234016
-0.232769
-0.230383
-0.226964
-0.222451
-0.216029
-0.208513
-0.198816
-0.188084
-0.175353
-0.161539
-0.146502
-0.130142
-0.112278
-0.0936364
-0.0737245
-0.0534278
-0.0329892
-0.0113945
0.00970559
0.0301501
0.0505933
0.0704534
0.089045
0.107194
0.124371
0.140277
0.155572
0.169345
0.182299
0.194096
0.204647
0.214172
0.22219
0.229265
0.234925
0.239632
0.243069
0.245114
0.245987
0.245316
0.243262
0.239759
0.234627
0.228173
0.220127
0.210709
0.199838
0.187847
0.174863
0.160381
0.145489
0.129572
0.1124
0.0949765
0.0760566
0.0567094
0.0370744
0.0166402
-0.00334193
-0.0232953
-0.0434555
-0.0625888
-0.0816385
-0.100605
-0.11853
-0.135988
-0.15252
-0.167913
-0.182397
-0.195374
-0.206816
-0.217011
-0.225562
-0.232645
-0.238194
-0.242006
-0.244356
-0.244928
-0.243929
-0.241275
-0.236669
-0.230671
-0.223009
-0.213911
-0.203283
-0.190973
-0.177527
-0.163232
-0.147486
-0.130826
-0.113307
-0.0947059
-0.0756675
-0.05608
-0.0380037
-0.022311
-0.00933284
0.000827127
0.00833877
0.0132956
0.0158662
0.0171537
0.0176909
0.0178307
0.0178314
0.0178314
0.0178314
0.0178314
0.0178314
0.0178314
0.0178314
0.0178314
0.0178314
0.0178314
0.0178314
0.0178314
0.0178314
0.0178314
0.0178314
0.0178314
0.0178314
0.0178314
0.0178314
0.0178314
0.0178314
0.0178314
0.0178314
0.0178314
0.0178314
0.0178314
0.0178314
0.0178314
0.0178314
0.0178314
0.0178314
0.0178314
0.0178314
0.0178314
0.0178314
0.0178314
0.0178314
0.0178314
0.0178314
0.0178314
0.0178314
0.0178314
0.0178314
0.0178314
0.0178314
0.0178314
0.0178314
0.0178314
0.0178314
0.0178314
0.0178314
0.0178314
0.0178314
0.0178314
0.0178314
0.0178314
0.0178314
0.0178314
0.0178314
0.0178314
0.0178314
0.0178314
0.0178314
0.0178314
0.0178314
0.0178314
0.0178314
0.0178314
0.0178314
0.0178314
0.0178314
0.0178314
0.0178314
0.0178314
0.0178314
0.0178314