/*--------------------------------*- C++ -*----------------------------------*\
| =========                 |                                                 |
| \\      /  F ield         | OpenFOAM: The Open Source CFD Toolbox           |
|  \\    /   O peration     | Version:  v2006                                 |
|   \\  /    A nd           | Website:  www.openfoam.com                      |
|    \\/     M anipulation  |                                                 |
\*---------------------------------------------------------------------------*/
FoamFile
{
    version     2.0;
    format      ascii;
    class       volScalarField;
    location    "0";
    object      f;
}
// * * * * * * * * * * * * * * * * * * * * * * * * * * * * * * * * * * * * * //

dimensions      [0 0 0 0 0 0 0];


internalField   nonuniform List<scalar> 
2500
(
-1.31522e-18
-1.31525e-18
-1.31587e-18
-1.31356e-18
-1.31105e-18
-1.324e-18
-1.38858e-18
-1.49794e-18
-1.49428e-18
-1.1628e-18
-5.26767e-19
8.52967e-20
3.03387e-19
1.26419e-20
-5.62327e-19
-1.01189e-18
-1.02407e-18
-5.68096e-19
1.07573e-19
6.24436e-19
7.27742e-19
4.64557e-19
1.01704e-19
-1.23871e-19
-1.56043e-19
-8.14736e-20
-5.83837e-21
2.54301e-20
2.11415e-20
5.2155e-21
-7.10007e-21
-1.19898e-20
-1.15086e-20
-8.73038e-21
-5.72409e-21
-3.37482e-21
-1.82802e-21
-9.21465e-22
-4.35783e-22
-1.94379e-22
-8.2066e-23
-3.28857e-23
-1.25442e-23
-4.57586e-24
-1.61047e-24
-5.56404e-25
-1.94447e-25
-7.15977e-26
-2.87381e-26
-1.2604e-26
-2.66646e-18
-2.66653e-18
-2.66927e-18
-2.66377e-18
-2.6643e-18
-2.70372e-18
-2.88362e-18
-3.23248e-18
-3.30926e-18
-2.41332e-18
-5.8667e-19
1.18092e-18
1.81221e-18
9.61144e-19
-7.82737e-19
-2.27466e-18
-2.58962e-18
-1.55955e-18
2.29072e-19
1.72443e-18
2.07181e-18
1.29769e-18
1.98625e-19
-4.69594e-19
-5.27167e-19
-2.57209e-19
-3.82775e-21
9.46193e-20
7.80223e-20
2.72957e-20
-1.06789e-20
-2.61315e-20
-2.61646e-20
-1.98353e-20
-1.28229e-20
-7.40921e-21
-3.91815e-21
-1.92168e-21
-8.80845e-22
-3.78969e-22
-1.53372e-22
-5.84568e-23
-2.10196e-23
-7.1701e-24
-2.35894e-24
-7.79288e-25
-2.78e-25
-1.15135e-25
-5.53539e-26
-2.87668e-26
-5.1601e-18
-5.16025e-18
-5.17093e-18
-5.15951e-18
-5.19283e-18
-5.31479e-18
-5.7803e-18
-6.83371e-18
-7.32278e-18
-4.96428e-18
1.98557e-19
5.18561e-18
7.00888e-18
4.71388e-18
-2.54672e-19
-4.85478e-18
-6.41968e-18
-4.30094e-18
2.62428e-19
4.54663e-18
5.77129e-18
3.56831e-18
2.80824e-19
-1.67185e-18
-1.71911e-18
-7.74789e-19
4.77862e-20
3.37195e-19
2.65412e-19
1.03313e-19
-1.06142e-20
-5.60867e-20
-5.83271e-20
-4.38249e-20
-2.77192e-20
-1.55775e-20
-7.976e-21
-3.76834e-21
-1.65248e-21
-6.73431e-22
-2.54428e-22
-8.86112e-23
-2.823e-23
-8.19902e-24
-2.23576e-24
-6.64408e-25
-2.84844e-25
-1.74367e-25
-1.1531e-25
-7.17373e-26
-9.49965e-18
-9.49988e-18
-9.5373e-18
-9.51881e-18
-9.71707e-18
-1.00845e-17
-1.11715e-17
-1.41635e-17
-1.63961e-17
-1.03901e-17
4.02106e-18
1.76851e-17
2.28119e-17
1.70654e-17
3.67274e-18
-9.76071e-18
-1.56829e-17
-1.1925e-17
-7.92911e-19
1.13335e-17
1.58478e-17
9.83676e-18
7.90763e-20
-5.59274e-18
-5.37905e-18
-2.1852e-18
3.97753e-19
1.17308e-18
8.53923e-19
3.35395e-19
3.70891e-21
-1.2084e-19
-1.28024e-19
-9.40129e-20
-5.75166e-20
-3.10873e-20
-1.52138e-20
-6.80687e-21
-2.78452e-21
-1.03188e-21
-3.38382e-22
-9.2919e-23
-1.80675e-23
-3.23128e-25
1.63794e-24
7.07195e-25
-3.25193e-26
-2.8586e-25
-2.78831e-25
-1.94942e-25
-1.65682e-17
-1.65683e-17
-1.66871e-17
-1.66765e-17
-1.75005e-17
-1.85259e-17
-2.06807e-17
-2.85336e-17
-3.75006e-17
-2.2924e-17
1.71289e-17
5.34474e-17
6.73642e-17
5.39643e-17
1.9607e-17
-1.80794e-17
-3.81694e-17
-3.31958e-17
-7.51792e-18
2.60029e-17
4.32715e-17
2.78123e-17
-1.10999e-18
-1.76593e-17
-1.61411e-17
-5.64945e-18
2.20543e-18
4.00431e-18
2.62077e-18
9.73364e-19
4.43363e-20
-2.68472e-19
-2.77626e-19
-1.94994e-19
-1.13475e-19
-5.79779e-20
-2.65198e-20
-1.08538e-20
-3.89034e-21
-1.14367e-21
-2.13331e-22
3.03144e-23
5.7177e-23
3.6298e-23
1.63702e-23
5.31331e-24
7.01642e-25
-6.69075e-25
-7.82143e-25
-5.57912e-25
-2.72314e-17
-2.72298e-17
-2.75703e-17
-2.76686e-17
-3.04425e-17
-3.29476e-17
-3.59242e-17
-5.42798e-17
-8.77673e-17
-5.52762e-17
5.62765e-17
1.51024e-16
1.88708e-16
1.59317e-16
7.47923e-17
-2.82684e-17
-9.48309e-17
-9.26158e-17
-3.70593e-17
5.1215e-17
1.18901e-16
8.27383e-17
-3.84261e-18
-5.31806e-17
-4.6795e-17
-1.30121e-17
1.0278e-17
1.33738e-17
7.64491e-18
2.51583e-18
6.03315e-20
-6.30133e-19
-5.94456e-19
-3.87222e-19
-2.09037e-19
-9.80015e-20
-3.99665e-20
-1.35926e-20
-3.24953e-21
4.07868e-23
6.84105e-22
5.53103e-22
3.15845e-22
1.47251e-22
5.66536e-23
1.63416e-23
1.61319e-24
-2.25132e-24
-2.36738e-24
-1.61464e-24
-4.18841e-17
-4.18751e-17
-4.27436e-17
-4.34504e-17
-5.13421e-17
-5.62736e-17
-5.51301e-17
-9.0553e-17
-2.08282e-16
-1.48242e-16
1.57954e-16
4.13606e-16
5.29456e-16
4.71394e-16
2.6496e-16
-2.36819e-17
-2.59638e-16
-2.6241e-16
-1.41804e-16
7.32119e-17
3.49813e-16
2.70923e-16
-2.03667e-18
-1.56528e-16
-1.3395e-16
-2.55679e-17
4.30213e-17
4.35109e-17
2.08322e-17
5.4878e-18
-3.84578e-19
-1.56381e-18
-1.24348e-18
-7.20213e-19
-3.45984e-19
-1.39524e-19
-4.3731e-20
-6.54957e-21
4.30049e-21
5.33594e-21
3.75012e-21
2.10646e-21
1.01452e-21
4.22984e-22
1.47113e-22
3.61743e-23
-4.03144e-25
-8.24365e-24
-7.19274e-24
-4.58657e-24
-5.97028e-17
-5.9662e-17
-6.15921e-17
-6.49881e-17
-8.42929e-17
-9.07036e-17
-5.86584e-17
-1.05608e-16
-5.32143e-16
-4.37577e-16
3.41088e-16
1.15098e-15
1.58052e-15
1.80217e-15
1.06382e-15
4.0525e-17
-1.34157e-15
-8.18937e-16
-3.85709e-16
8.16047e-17
2.18573e-15
1.08064e-15
3.82956e-17
-5.07123e-16
-4.00932e-16
-4.02395e-17
1.70751e-16
1.38329e-16
5.07155e-17
8.08048e-18
-3.28946e-18
-3.95286e-18
-2.46189e-18
-1.19169e-18
-4.65109e-19
-1.27127e-19
7.17817e-22
3.36271e-20
3.1637e-20
2.12808e-20
1.20393e-20
5.98844e-21
2.64111e-21
1.01389e-21
3.15264e-22
5.67898e-23
-1.82896e-23
-2.83458e-23
-2.10759e-23
-1.25701e-23
-7.7715e-17
-7.75484e-17
-8.11583e-17
-9.4919e-17
-1.34442e-16
-1.35625e-16
5.12109e-17
3.33012e-17
-3.86934e-15
-1.23292e-15
1.21243e-15
3.46623e-15
4.11208e-15
7.80352e-15
3.88204e-15
-2.50339e-14
-1.16626e-14
-2.42917e-15
1.08983e-14
2.97746e-14
1.81496e-14
3.41501e-15
-3.85625e-15
-3.11424e-15
-1.36651e-15
-3.25361e-17
7.88406e-16
4.3768e-16
9.51038e-17
-5.5293e-18
-1.53937e-17
-9.41546e-18
-4.25775e-18
-1.50731e-18
-3.11234e-19
1.07144e-19
1.92496e-19
1.61477e-19
1.06897e-19
6.13951e-20
3.152e-20
1.45598e-20
5.98573e-21
2.1039e-21
5.51344e-22
2.92754e-23
-9.34763e-23
-8.88894e-23
-5.85879e-23
-3.29445e-23
-8.99514e-17
-8.94899e-17
-9.47846e-17
-1.54597e-16
-1.94634e-16
-1.86005e-16
7.38134e-16
-1.42143e-14
-2.92841e-14
1.82359e-14
3.76445e-14
9.00595e-15
5.86385e-15
5.33179e-15
-2.58089e-13
-1.54182e-13
-3.24656e-14
3.18966e-13
3.90673e-13
2.19863e-13
5.25582e-14
-8.88323e-14
-5.58794e-14
-1.76362e-14
-3.52137e-15
8.49415e-15
5.01977e-15
1.2232e-15
2.3828e-17
-1.10499e-16
-5.21589e-17
-1.81619e-17
-4.91622e-18
-3.95588e-19
8.56099e-19
9.67836e-19
7.46903e-19
4.88161e-19
2.8473e-19
1.50685e-19
7.25441e-20
3.15092e-20
1.20287e-20
3.74262e-21
6.79547e-22
-2.15847e-22
-3.39674e-22
-2.55054e-22
-1.5366e-22
-8.21929e-23
1.66151e-14
2.85994e-14
1.18484e-14
-4.29719e-16
2.26957e-14
4.33851e-14
3.47321e-15
-1.43694e-13
-8.53706e-14
1.78224e-13
3.27389e-13
-1.02072e-13
-1.45115e-12
-2.35436e-12
-1.75518e-12
1.25432e-14
1.87885e-12
2.37476e-12
1.30123e-12
5.14486e-13
-1.14592e-12
-7.25523e-13
-1.8145e-13
-3.83662e-14
1.1852e-13
7.08159e-14
1.50638e-14
1.29485e-15
-1.79119e-15
-5.91391e-16
-1.10856e-16
-1.47829e-17
3.5501e-18
5.72508e-18
4.67353e-18
3.24465e-18
2.05998e-18
1.21181e-18
6.59585e-19
3.30274e-19
1.50644e-19
6.13544e-20
2.1251e-20
5.31724e-21
3.01557e-23
-1.14929e-21
-1.03467e-21
-6.74754e-22
-3.79567e-22
-1.94638e-22
7.51859e-13
7.8215e-13
6.44655e-13
4.81038e-13
7.14699e-13
5.30687e-13
3.4707e-14
-4.78012e-13
1.74486e-15
3.48756e-13
7.86325e-13
-4.24864e-12
-1.0983e-11
-1.10307e-11
-4.44312e-12
1.36194e-11
1.05103e-11
4.85005e-12
-2.80063e-12
-1.45829e-11
-8.93522e-12
-1.82621e-12
1.88564e-13
1.87099e-12
9.79861e-13
1.8242e-13
-1.18408e-14
-4.51377e-14
-1.44045e-14
-1.29886e-15
9.17754e-17
7.64218e-17
4.18139e-17
2.33646e-17
1.3663e-17
8.11015e-18
4.73254e-18
2.63998e-18
1.37673e-18
6.59446e-19
2.84584e-19
1.06786e-19
3.15655e-20
4.25859e-21
-3.27233e-21
-3.90202e-21
-2.7902e-21
-1.65512e-21
-8.82022e-22
-4.36288e-22
3.31217e-12
3.13424e-12
2.92898e-12
3.23806e-12
2.94237e-12
1.73156e-12
1.44257e-13
-5.51744e-13
5.78332e-12
-1.71335e-12
-2.25163e-11
-2.30928e-11
-2.07656e-11
-1.34257e-11
1.13571e-10
4.76334e-11
2.40171e-11
-1.16918e-10
-1.60897e-10
-9.139e-11
-2.20371e-11
1.89813e-11
2.97204e-11
1.3954e-11
2.48472e-12
-5.75111e-13
-7.56437e-13
-2.52982e-13
-2.69258e-14
5.16493e-15
1.64765e-15
3.59352e-16
1.20712e-16
5.49698e-17
2.93372e-17
1.66603e-17
9.49865e-18
5.19926e-18
2.63954e-18
1.21132e-18
4.87783e-19
1.61224e-19
3.34737e-20
-6.63566e-21
-1.3638e-20
-1.08765e-20
-6.81773e-21
-3.77332e-21
-1.92387e-21
-9.22395e-22
7.618e-12
6.75748e-12
6.99249e-12
9.25507e-12
5.53604e-12
2.78444e-12
8.26697e-12
3.29638e-11
3.32745e-11
-1.89297e-11
-1.17618e-10
-4.81325e-11
5.05137e-10
1.41365e-09
7.89272e-10
-8.48717e-11
-1.33469e-09
-1.38925e-09
-5.98304e-10
-1.67667e-10
3.03851e-10
2.98101e-10
1.44679e-10
3.08616e-11
-7.09929e-12
-9.57919e-12
-3.43114e-12
-4.1616e-13
8.14114e-14
3.06183e-14
3.51901e-15
3.08771e-16
1.39783e-16
8.16666e-17
4.9037e-17
2.93109e-17
1.71971e-17
9.49736e-18
4.73107e-18
2.05878e-18
7.46074e-19
1.91977e-19
4.16994e-22
-4.38947e-20
-4.00509e-20
-2.65613e-20
-1.52334e-20
-7.98485e-21
-3.92201e-21
-1.82964e-21
1.1732e-11
9.8091e-12
1.16392e-11
1.7381e-11
4.70653e-12
3.04785e-12
9.26226e-11
1.63996e-10
8.98549e-11
-3.23435e-11
-2.01579e-10
2.94029e-09
7.58855e-09
7.24975e-09
2.05927e-09
-6.24959e-09
-8.30291e-09
-3.57061e-09
-6.01726e-11
4.14212e-09
2.82422e-09
1.15355e-09
2.65772e-10
-5.65842e-11
-1.0572e-10
-3.83708e-11
-5.23301e-12
9.43485e-13
3.92209e-13
5.13354e-14
-1.51418e-15
-3.70468e-16
4.12379e-17
9.57267e-17
7.27051e-17
4.70604e-17
2.93075e-17
1.66563e-17
8.10668e-18
3.24215e-18
9.6622e-19
1.06176e-19
-1.2767e-19
-1.39813e-19
-9.81479e-20
-5.8049e-20
-3.11204e-20
-1.55924e-20
-7.41562e-21
-3.37749e-21
1.33898e-11
1.06487e-11
1.52092e-11
2.32813e-11
-5.56673e-12
4.6378e-11
2.556e-10
4.25961e-10
1.33709e-10
-2.70711e-11
3.40548e-09
1.53466e-08
2.41675e-08
1.44103e-08
-1.51532e-08
-2.75297e-08
-1.59916e-08
3.72458e-09
3.51579e-08
2.30386e-08
8.002e-09
1.90011e-09
-1.13093e-09
-1.37031e-09
-4.24416e-10
-5.22127e-11
9.09652e-12
4.07954e-12
6.18098e-13
-1.92423e-14
-7.63003e-15
-1.07163e-15
1.05458e-16
1.83501e-16
1.1738e-16
7.26974e-17
4.9027e-17
2.93281e-17
1.36561e-17
4.66892e-18
8.53252e-19
-3.12884e-19
-4.66015e-19
-3.46458e-19
-2.09274e-19
-1.13589e-19
-5.7569e-20
-2.77426e-20
-1.28329e-20
-5.72824e-21
1.28579e-11
9.92085e-12
1.60835e-11
2.36585e-11
-2.17884e-11
9.83757e-11
3.19008e-10
6.37769e-10
-1.35845e-09
5.25297e-10
1.27839e-08
3.07861e-08
3.71141e-08
-4.50152e-08
-1.28764e-07
-5.80086e-08
1.32189e-07
2.79964e-07
1.45275e-07
4.37266e-08
5.51973e-09
-3.28001e-08
-2.31815e-08
-5.90897e-09
-5.24567e-10
7.32411e-11
3.51897e-11
6.53008e-12
-3.88827e-14
-4.16701e-14
-1.20399e-14
-1.43962e-16
1.01819e-15
5.0911e-16
1.83486e-16
9.57057e-17
8.1646e-17
5.49528e-17
2.33526e-17
5.71745e-18
-4.00141e-19
-1.50989e-18
-1.19308e-18
-7.20933e-19
-3.87579e-19
-1.95164e-19
-9.40908e-20
-4.38593e-20
-1.985e-20
-8.73644e-21
-1.40731e-07
-1.39685e-07
-1.43915e-07
-1.47305e-07
-1.24865e-07
-1.07946e-07
-1.75402e-07
-2.63416e-07
-1.75124e-07
-1.87873e-08
2.23635e-08
-8.36908e-08
-8.28097e-07
-1.49928e-06
-4.81973e-07
1.39672e-06
2.4756e-06
1.35134e-06
1.32934e-07
-6.76633e-07
-7.26752e-07
-3.73658e-07
-9.638e-08
-7.57405e-09
4.97455e-10
2.507e-10
5.60288e-11
1.96593e-12
-7.83541e-14
-4.01128e-14
2.27617e-15
1.03169e-14
4.85922e-15
1.01817e-15
1.05421e-16
4.11995e-17
1.39748e-16
1.20683e-16
4.17949e-17
3.5387e-18
-4.92282e-18
-4.26143e-18
-2.46386e-18
-1.24449e-18
-5.94955e-19
-2.77863e-19
-1.28132e-19
-5.83746e-20
-2.61847e-20
-1.15169e-20
-1.52356e-06
-1.52374e-06
-1.52879e-06
-1.53215e-06
-1.50481e-06
-1.52387e-06
-1.63501e-06
-1.54017e-06
-1.08179e-06
-4.18377e-07
-6.83759e-07
-4.23814e-06
-7.54099e-06
-6.53847e-06
8.77269e-07
8.79211e-06
9.17197e-06
2.78216e-06
-6.66055e-06
-6.64708e-06
-3.7546e-06
-1.24317e-06
-1.61612e-07
2.36554e-09
1.31091e-09
3.91549e-10
3.66559e-11
-4.22327e-13
-1.40185e-13
9.05889e-14
1.01013e-13
4.9314e-14
1.03169e-14
-1.44026e-16
-1.0717e-15
-3.70525e-16
3.0872e-16
3.59302e-16
7.63937e-17
-1.47979e-17
-1.81704e-17
-9.42021e-18
-3.95542e-18
-1.56513e-18
-6.30782e-19
-2.68779e-19
-1.20979e-19
-5.61476e-20
-2.61572e-20
-1.20003e-20
-4.82215e-06
-4.83269e-06
-4.80981e-06
-4.78702e-06
-4.92304e-06
-5.14958e-06
-5.01065e-06
-3.90733e-06
-2.57364e-06
-3.26914e-06
-8.24693e-06
-1.74688e-05
-2.30409e-05
-1.19713e-05
1.19267e-05
2.32184e-05
1.64909e-05
-1.53025e-05
-3.00395e-05
-1.99175e-05
-8.59346e-06
-2.19739e-06
-1.18933e-07
2.17432e-09
1.44927e-09
4.22907e-10
2.12408e-11
-3.81176e-13
1.28552e-13
4.35544e-13
3.13285e-13
1.01013e-13
2.27606e-15
-1.204e-14
-7.6301e-15
-1.51423e-15
3.51876e-15
1.64751e-15
9.17363e-17
-1.10871e-16
-5.21682e-17
-1.53992e-17
-3.29254e-18
-3.86179e-19
5.95449e-20
4.3967e-20
3.54239e-21
-1.06865e-20
-1.07092e-20
-7.11226e-21
-8.67509e-06
-8.702e-06
-8.61773e-06
-8.54474e-06
-9.01747e-06
-9.59995e-06
-8.93331e-06
-6.05109e-06
-3.25172e-06
-1.03441e-05
-2.63848e-05
-3.80443e-05
-3.5624e-05
2.11913e-06
5.10441e-05
3.66082e-05
-2.46056e-05
-0.000109173
-5.71662e-05
-2.64153e-05
-1.00719e-05
-2.32887e-06
-5.22504e-08
2.06081e-09
1.28489e-09
3.99206e-10
4.13216e-11
4.8431e-13
8.61669e-13
8.26017e-13
4.35548e-13
9.05869e-14
-4.01123e-14
-4.16708e-14
-1.92422e-14
5.1333e-14
3.06168e-14
5.16461e-15
-1.29883e-15
-5.91386e-16
-1.10507e-16
-5.5357e-18
8.0768e-18
5.48593e-18
2.51493e-18
9.72951e-19
3.35212e-19
1.03235e-19
2.72635e-20
5.20274e-21
-9.49932e-06
-9.53328e-06
-9.39442e-06
-9.26713e-06
-9.98689e-06
-1.07355e-05
-9.77007e-06
-4.58818e-06
6.12561e-07
-1.57135e-05
-5.10239e-05
-5.20856e-05
4.23421e-05
0.000226442
0.000113942
-0.000519056
-0.00114161
-0.000516154
0.000527171
0.00227108
0.0036471
0.00383147
0.00315003
0.00199641
0.000938062
0.000284338
2.76774e-05
2.75665e-12
1.67257e-12
8.6168e-13
1.28556e-13
-1.40192e-13
-7.83518e-14
-3.88869e-14
6.18074e-13
3.92194e-13
8.14079e-14
-2.69246e-14
-1.44039e-14
-1.79113e-15
2.38104e-17
9.50933e-17
5.07106e-17
2.08301e-17
7.64395e-18
2.62035e-18
8.53745e-19
2.65339e-19
7.79928e-20
2.11303e-20
0.000193969
0.000193921
0.000198564
0.000199776
0.000180392
0.000167557
0.000217907
0.00028236
0.000219118
3.07792e-05
-5.79795e-05
0.000355064
0.00116539
0.00115037
-0.000702873
-0.00391173
-0.00510491
-0.00131485
0.0106061
0.0269083
0.0403822
0.0445804
0.0404487
0.0303392
0.0185049
0.00879338
0.00286059
0.000357886
2.75677e-12
4.84317e-13
-3.812e-13
-4.22325e-13
1.9658e-12
6.52985e-12
4.0794e-12
9.43451e-13
-4.16141e-13
-2.52971e-13
-4.51359e-14
1.2947e-15
1.22312e-15
4.37657e-16
1.38322e-16
4.35087e-17
1.3373e-17
4.00399e-18
1.17295e-18
3.37143e-19
9.45998e-20
2.54233e-20
0.0011646
0.00116527
0.00118289
0.00118078
0.00110518
0.00108969
0.00130325
0.00146354
0.00105761
0.000324452
0.0005455
0.00248293
0.0043861
0.0030231
-0.00368959
-0.0122362
-0.0134686
0.00265318
0.0411025
0.0926057
0.136568
0.152939
0.142481
0.111369
0.0719791
0.0372172
0.0140956
0.0028606
2.76775e-05
4.13205e-11
2.12389e-11
3.66543e-11
5.60273e-11
3.51887e-11
9.09623e-12
-5.23276e-12
-3.43099e-12
-7.56406e-13
-1.1841e-14
1.5063e-14
5.01952e-15
7.88381e-16
1.70748e-16
4.30205e-17
1.02778e-17
2.20537e-18
3.97734e-19
4.77808e-20
-3.82808e-21
-5.83713e-21
0.00316656
0.00316909
0.00320923
0.00319564
0.00302219
0.00302454
0.00354783
0.0038089
0.00264626
0.00110565
0.00230046
0.00706666
0.0104121
0.00543097
-0.0100338
-0.0265133
-0.0252675
0.0131982
0.0968304
0.207155
0.303184
0.342545
0.323841
0.258589
0.171935
0.0923852
0.0372172
0.00879339
0.000284338
3.99219e-10
4.22907e-10
3.91543e-10
2.50695e-10
7.3239e-11
-5.22104e-11
-3.83692e-11
-9.5788e-12
-5.75091e-13
1.82414e-13
7.08132e-14
8.49375e-15
-3.25151e-17
-4.02325e-17
-2.55652e-17
-1.30111e-17
-5.64906e-18
-2.18505e-18
-7.74729e-19
-2.57183e-19
-8.14614e-20
0.00590596
0.00591135
0.00597995
0.00594757
0.0056486
0.00569162
0.00663902
0.00695342
0.00471794
0.00221345
0.00499205
0.0137265
0.0184086
0.00773786
-0.0195657
-0.0445463
-0.0379214
0.0306358
0.171626
0.356272
0.519998
0.592381
0.566648
0.459702
0.311843
0.171935
0.0719791
0.0185049
0.000938063
1.28494e-09
1.4493e-09
1.3109e-09
4.97444e-10
-5.24543e-10
-4.244e-10
-1.05717e-10
-7.09913e-12
2.48464e-12
9.79831e-13
1.18515e-13
-3.52125e-15
-1.36646e-15
-4.00917e-16
-1.33945e-16
-4.67931e-17
-1.61404e-17
-5.37876e-18
-1.71899e-18
-5.27116e-19
-1.5602e-19
0.00829317
0.00830119
0.00839574
0.00834513
0.00792888
0.00801884
0.00936706
0.00970772
0.00641726
0.0029752
0.00749943
0.0201754
0.0258158
0.00893124
-0.0297114
-0.0614792
-0.0476515
0.0499104
0.24402
0.498332
0.728758
0.838122
0.810517
0.666657
0.459702
0.258589
0.111369
0.0303392
0.00199641
2.06087e-09
2.17439e-09
2.36552e-09
-7.57372e-09
-5.90877e-09
-1.37027e-09
-5.65856e-11
3.08606e-11
1.39535e-11
1.87093e-12
-3.83651e-14
-1.76355e-14
-3.1141e-15
-5.07112e-16
-1.56525e-16
-5.31792e-17
-1.76587e-17
-5.59245e-18
-1.67171e-18
-4.69531e-19
-1.23841e-19
0.0089024
0.00891102
0.00901912
0.00896366
0.00848532
0.00858435
0.0101504
0.0105624
0.00667699
0.00270901
0.00813746
0.0231343
0.0292476
0.00860418
-0.036237
-0.0710758
-0.052621
0.0608208
0.283896
0.579132
0.854226
0.995099
0.972766
0.810517
0.566648
0.323841
0.142481
0.0404487
0.00315003
-5.22459e-08
-1.18926e-07
-1.61606e-07
-9.63772e-08
-2.31809e-08
-1.13092e-09
2.65765e-10
1.44674e-10
2.97192e-11
1.88536e-13
-1.81441e-13
-5.58761e-14
-3.85598e-15
3.82825e-17
-2.04008e-18
-3.84309e-18
-1.10989e-18
7.92233e-20
2.80926e-19
1.98686e-19
1.01737e-19
0.00674282
0.00674828
0.00685268
0.0068185
0.00635188
0.00638584
0.00789672
0.00846692
0.00477105
0.000625279
0.00554406
0.0201701
0.0267097
0.00743233
-0.0359015
-0.0702873
-0.05379
0.055098
0.274465
0.571212
0.854841
1.00889
0.995099
0.838122
0.592381
0.342545
0.152939
0.0445804
0.00383147
-2.32882e-06
-2.19734e-06
-1.24314e-06
-3.7365e-07
-3.27993e-08
1.90008e-09
1.15353e-09
2.98093e-10
1.89802e-11
-1.8261e-12
-7.25475e-13
-8.88264e-14
3.41478e-15
1.08058e-15
2.70912e-16
8.27363e-17
2.7812e-17
9.83681e-18
3.5684e-18
1.29775e-18
4.64594e-19
0.00206262
0.00206105
0.0021385
0.0021487
0.00180689
0.00170984
0.00275784
0.00349638
0.00117904
-0.00231983
-2.53877e-05
0.0102276
0.0171143
0.00603121
-0.0252103
-0.0560731
-0.0520689
0.02435
0.198009
0.44931
0.703185
0.854841
0.854226
0.728758
0.519998
0.303184
0.136568
0.0403821
0.0036471
-1.00718e-05
-8.59332e-06
-3.75454e-06
-7.26737e-07
5.51999e-09
8.00193e-09
2.82417e-09
3.03841e-10
-2.20359e-11
-8.93465e-12
-1.14584e-12
5.2555e-14
1.81484e-14
2.18562e-15
3.49816e-16
1.18904e-16
4.32724e-17
1.58482e-17
5.77148e-18
2.0719e-18
7.27792e-19
-0.00218346
-0.00219145
-0.00215669
-0.00210373
-0.00224992
-0.00246592
-0.00209163
-0.00130543
-0.00179457
-0.00401283
-0.00493624
-0.00107402
0.00545224
0.00582372
-0.00789175
-0.0329808
-0.0468885
-0.0165185
0.0878759
0.261255
0.44931
0.571212
0.579132
0.498332
0.356272
0.207155
0.0926057
0.0269083
0.00227108
-2.6415e-05
-1.99173e-05
-6.64698e-06
-6.76618e-07
4.37263e-08
2.30384e-08
4.14206e-09
-1.67664e-10
-9.13863e-11
-1.4582e-11
5.14465e-13
2.1985e-13
2.97723e-14
8.16837e-17
7.32413e-17
5.12283e-17
2.60075e-17
1.1335e-17
4.54712e-18
1.72462e-18
6.24515e-19
-0.00349049
-0.00350025
-0.00350405
-0.0034388
-0.0034122
-0.00364024
-0.00381941
-0.00324519
-0.00236194
-0.00315734
-0.00603248
-0.00731244
-0.00252257
0.00622466
0.00686773
-0.0101206
-0.0368942
-0.0434126
-0.00363542
0.0878759
0.198009
0.274465
0.283896
0.24402
0.171626
0.0968304
0.0411025
0.0106061
0.000527172
-5.71657e-05
-3.00391e-05
-6.66045e-06
1.32938e-07
1.45275e-07
3.51575e-08
-6.02028e-11
-5.98289e-10
-1.60889e-10
-2.79993e-12
1.30123e-12
3.90647e-13
1.08952e-14
-3.8558e-16
-1.4173e-16
-3.70304e-17
-7.50838e-18
-7.90009e-19
2.63323e-19
2.29378e-19
1.07692e-19
-0.00187501
-0.00188118
-0.00190666
-0.00186665
-0.00174637
-0.00186348
-0.00229156
-0.00216142
-0.000870338
-0.000387843
-0.00307107
-0.00663576
-0.0044761
0.00525907
0.0125167
0.00455139
-0.02025
-0.0435351
-0.0434126
-0.0165185
0.02435
0.0550979
0.0608208
0.0499104
0.0306358
0.0131982
0.0026532
-0.00131484
-0.00051615
-0.000109172
-1.53023e-05
2.78215e-06
1.35133e-06
2.79961e-07
3.72421e-09
-3.57056e-09
-1.38921e-09
-1.16909e-10
4.85007e-12
2.37474e-12
3.18941e-13
-2.42888e-15
-8.18732e-16
-2.62316e-16
-9.25806e-17
-3.31843e-17
-1.19215e-17
-4.29983e-18
-1.55917e-18
-5.67942e-19
0.000516165
0.000516271
0.000492082
0.000490263
0.000597705
0.000631016
0.000306248
6.69025e-05
0.000741429
0.00169797
0.000894678
-0.001817
-0.00241567
0.00228437
0.00891262
0.00890491
-0.00202696
-0.02025
-0.0368942
-0.0468885
-0.0520689
-0.05379
-0.052621
-0.0476515
-0.0379214
-0.0252675
-0.0134686
-0.0051049
-0.0011416
-2.46049e-05
1.64908e-05
9.17189e-06
2.47557e-06
1.32186e-07
-1.59915e-08
-8.3028e-09
-1.33465e-09
2.40163e-11
1.05102e-11
1.87882e-12
-3.24689e-14
-1.16635e-14
-1.34148e-15
-2.59582e-16
-9.48104e-17
-3.81624e-17
-1.56805e-17
-6.41878e-18
-2.58924e-18
-1.0239e-18
0.00118893
0.00119293
0.00118495
0.00115807
0.00118955
0.00129294
0.0012413
0.000919281
0.000847803
0.00151484
0.00222605
0.00167754
-0.00014515
-0.00106778
0.00122257
0.00605521
0.00890492
0.00455139
-0.0101206
-0.0329808
-0.0560731
-0.0702873
-0.0710758
-0.0614792
-0.0445463
-0.0265133
-0.0122362
-0.00391173
-0.000519055
3.66077e-05
2.32181e-05
8.79204e-06
1.39671e-06
-5.80073e-08
-2.75291e-08
-6.24944e-09
-8.48654e-11
4.76326e-11
1.3619e-11
1.25058e-14
-1.54181e-13
-2.50336e-14
4.0505e-17
-2.36882e-17
-2.82694e-17
-1.80788e-17
-9.75988e-18
-4.85419e-18
-2.27431e-18
-1.01171e-18
6.91626e-05
7.28968e-05
8.02304e-05
5.62802e-05
1.99728e-05
9.75448e-05
0.00023616
9.54061e-05
-0.000373145
-0.000335861
0.000728595
0.00155648
0.00027756
-0.00255095
-0.00317396
0.00122257
0.00891262
0.0125167
0.00686773
-0.00789175
-0.0252103
-0.0359015
-0.036237
-0.0297114
-0.0195657
-0.0100338
-0.0036896
-0.000702881
0.000113939
5.10431e-05
1.19265e-05
8.77228e-07
-4.81968e-07
-1.28761e-07
-1.51525e-08
2.05923e-09
7.89255e-10
1.13568e-10
-4.44302e-12
-1.75514e-12
-2.58081e-13
3.88209e-15
1.06384e-15
2.64962e-16
7.47938e-17
1.96084e-17
3.67385e-18
-2.53939e-19
-7.82311e-19
-5.62099e-19
-0.00122594
-0.00122434
-0.00121314
-0.00122356
-0.00127138
-0.00124875
-0.00109638
-0.00109173
-0.00142996
-0.00166959
-0.00122725
-0.000468866
-0.000589182
-0.00182962
-0.00255094
-0.00106778
0.00228437
0.00525906
0.00622465
0.00582373
0.00603124
0.00743235
0.00860419
0.00893123
0.00773784
0.00543094
0.00302308
0.00115036
0.000226438
2.11828e-06
-1.19714e-05
-6.53848e-06
-1.49927e-06
-4.50109e-08
1.44101e-08
7.24963e-09
1.41361e-09
-1.34267e-11
-1.10306e-11
-2.35427e-12
5.33656e-15
7.8038e-15
1.80214e-15
4.71392e-16
1.59319e-16
5.39665e-17
1.7067e-17
4.71488e-18
9.61711e-19
1.2941e-20
-0.00148874
-0.00148767
-0.00148229
-0.00148853
-0.00151037
-0.00149608
-0.00143587
-0.0014337
-0.00153424
-0.00164144
-0.00165751
-0.00163451
-0.00139466
-0.000589181
0.000277565
-0.000145144
-0.00241568
-0.00447612
-0.00252258
0.00545225
0.0171144
0.0267097
0.0292476
0.0258158
0.0184086
0.0104121
0.00438608
0.00116538
4.23382e-05
-3.5625e-05
-2.30414e-05
-7.54104e-06
-8.28077e-07
3.71135e-08
2.41673e-08
7.58845e-09
5.05114e-10
-2.07658e-11
-1.09829e-11
-1.45108e-12
5.864e-15
4.11217e-15
1.58052e-15
5.29459e-16
1.88713e-16
6.7368e-17
2.28144e-17
7.01039e-18
1.81302e-18
3.03803e-19
-0.001238
-0.00123602
-0.00123447
-0.00124792
-0.00125286
-0.00121141
-0.00118524
-0.00127975
-0.00134735
-0.00122105
-0.00115289
-0.00149123
-0.00163451
-0.000468866
0.00155649
0.00167754
-0.001817
-0.00663578
-0.00731245
-0.00107401
0.0102276
0.0201701
0.0231343
0.0201754
0.0137265
0.00706663
0.0024829
0.000355053
-5.20881e-05
-3.8046e-05
-1.74694e-05
-4.23825e-06
-8.36843e-08
3.07868e-08
1.53466e-08
2.94024e-09
-4.81356e-11
-2.30928e-11
-4.24855e-12
-1.02063e-13
9.00659e-15
3.46638e-15
1.151e-15
4.13617e-16
1.51034e-16
5.34544e-17
1.76894e-17
5.18793e-18
1.18211e-18
8.58785e-20
-0.00126437
-0.00126138
-0.00125799
-0.00127757
-0.00129204
-0.00122774
-0.00117311
-0.00130733
-0.0014976
-0.00133988
-0.00100675
-0.00115289
-0.00165752
-0.00122725
0.000728599
0.00222606
0.000894675
-0.00307108
-0.00603249
-0.00493624
-2.53546e-05
0.00554409
0.00813747
0.00749942
0.00499202
0.00230043
0.000545472
-5.79883e-05
-5.1029e-05
-2.63872e-05
-8.24777e-06
-6.83873e-07
2.23645e-08
1.27847e-08
3.4057e-09
-2.01571e-10
-1.17618e-10
-2.25163e-11
7.8634e-13
3.27399e-13
3.76475e-14
1.21243e-15
3.41091e-16
1.57971e-16
5.62929e-17
1.71399e-17
4.02735e-18
2.01844e-19
-5.85045e-19
-5.25994e-19
-0.00153474
-0.00153152
-0.0015245
-0.00154505
-0.00157401
-0.00151229
-0.00141363
-0.00152255
-0.00178851
-0.00175355
-0.00133988
-0.00122105
-0.00164144
-0.00166959
-0.000335856
0.00151485
0.00169796
-0.000387858
-0.00315735
-0.00401282
-0.0023198
0.000625315
0.00270902
0.00297519
0.00221341
0.00110561
0.000324421
3.07664e-05
-1.57178e-05
-1.03466e-05
-3.26996e-06
-4.18484e-07
-1.87827e-08
5.25844e-10
-2.69645e-11
-3.23464e-11
-1.89335e-11
-1.71397e-12
3.4877e-13
1.78233e-13
1.82385e-14
-1.23277e-15
-4.3751e-16
-1.48204e-16
-5.52514e-17
-2.29091e-17
-1.0382e-17
-4.96015e-18
-2.41131e-18
-1.16186e-18
-0.00156368
-0.00156109
-0.00155398
-0.00157036
-0.00160028
-0.00155297
-0.00145709
-0.00152737
-0.00176786
-0.0017885
-0.0014976
-0.00134735
-0.00153423
-0.00142995
-0.000373139
0.000847808
0.000741427
-0.000870352
-0.00236195
-0.00179456
0.00117907
0.00477109
0.006677
0.00641725
0.00471791
0.00264621
0.00105758
0.000219103
6.10104e-07
-3.25297e-06
-2.57432e-06
-1.08196e-06
-1.75121e-07
-1.35858e-09
1.3369e-10
8.9847e-11
3.32731e-11
5.78324e-12
1.76677e-15
-8.53716e-14
-2.92838e-14
-3.86895e-15
-5.32052e-16
-2.08236e-16
-8.77389e-17
-3.74842e-17
-1.63872e-17
-7.3182e-18
-3.307e-18
-1.49321e-18
-0.00136602
-0.00136381
-0.0013584
-0.00137247
-0.00139463
-0.00135326
-0.00128083
-0.00134665
-0.00152737
-0.00152254
-0.00130733
-0.00127975
-0.0014337
-0.00109173
9.54115e-05
0.000919287
6.68993e-05
-0.00216144
-0.0032452
-0.00130543
0.00349642
0.00846695
0.0105624
0.0097077
0.00695338
0.00380886
0.00146351
0.000282345
-4.58993e-06
-6.05202e-06
-3.90788e-06
-1.54036e-06
-2.63431e-07
6.38061e-10
4.25978e-10
1.63999e-10
3.29641e-11
-5.5184e-13
-4.78044e-13
-1.43703e-13
-1.42158e-14
3.3335e-17
-1.05556e-16
-9.05118e-17
-5.42528e-17
-2.85175e-17
-1.41545e-17
-6.82897e-18
-3.23009e-18
-1.49679e-18
-0.00128091
-0.00127845
-0.00127376
-0.00128944
-0.00130891
-0.00126104
-0.00119457
-0.00128083
-0.00145709
-0.00141363
-0.00117311
-0.00118524
-0.00143587
-0.00109638
0.000236165
0.00124131
0.000306245
-0.00229158
-0.00381942
-0.00209162
0.00275787
0.00789675
0.0101504
0.00936705
0.00663898
0.00354779
0.00130322
0.000217893
-9.7714e-06
-8.93437e-06
-5.0112e-06
-1.63518e-06
-1.75418e-07
3.19016e-10
2.55611e-10
9.26291e-11
8.26838e-12
1.44277e-13
3.4687e-14
3.46071e-15
7.37199e-16
5.12067e-17
-5.86034e-17
-5.5088e-17
-3.58971e-17
-2.06644e-17
-1.11623e-17
-5.77537e-18
-2.88111e-18
-1.38736e-18
-0.00135687
-0.00135422
-0.00134891
-0.00136592
-0.00138799
-0.00133631
-0.00126104
-0.00135326
-0.00155297
-0.00151229
-0.00122773
-0.00121141
-0.00149608
-0.00124875
9.75504e-05
0.00129294
0.000631012
-0.00186349
-0.00364025
-0.00246592
0.00170987
0.00638588
0.00858436
0.00801882
0.00569158
0.0030245
0.00108966
0.000167543
-1.07372e-05
-9.60136e-06
-5.15024e-06
-1.52404e-06
-1.07951e-07
9.83317e-11
4.63512e-11
3.04371e-12
2.78459e-12
1.73176e-12
5.30717e-13
4.33808e-14
-1.85892e-16
-1.35543e-16
-9.06421e-17
-5.62306e-17
-3.29197e-17
-1.85091e-17
-1.0075e-17
-5.30968e-18
-2.70113e-18
-1.32274e-18
-0.00140589
-0.00140329
-0.0013976
-0.00141419
-0.00143781
-0.00138799
-0.00130891
-0.00139463
-0.00160028
-0.00157401
-0.00129204
-0.00125285
-0.00151037
-0.00127138
1.99784e-05
0.00118955
0.000597702
-0.00174638
-0.00341222
-0.00224991
0.00180692
0.00635192
0.00848533
0.00792886
0.00564856
0.00302215
0.00110515
0.000180378
-9.98895e-06
-9.01916e-06
-4.92385e-06
-1.505e-06
-1.24865e-07
-2.18045e-11
-5.5748e-12
4.70384e-12
5.53626e-12
2.94266e-12
7.14779e-13
2.27009e-14
-1.94547e-16
-1.34371e-16
-8.42367e-17
-5.13011e-17
-3.04152e-17
-1.74838e-17
-9.70752e-18
-5.1877e-18
-2.66168e-18
-1.30978e-18
-0.00138327
-0.00138076
-0.00137524
-0.00139132
-0.00141419
-0.00136592
-0.00128944
-0.00137247
-0.00157036
-0.00154505
-0.00127757
-0.00124792
-0.00148853
-0.00122356
5.62858e-05
0.00115808
0.00049026
-0.00186667
-0.00343881
-0.00210372
0.00214873
0.00681853
0.00896367
0.00834511
0.00594754
0.0031956
0.00118075
0.000199762
-9.2693e-06
-8.54646e-06
-4.78786e-06
-1.53236e-06
-1.47305e-07
2.36804e-11
2.32906e-11
1.73839e-11
9.25576e-12
3.23814e-12
4.81004e-13
-4.30491e-16
-1.54555e-16
-9.48412e-17
-6.49271e-17
-4.34075e-17
-2.76408e-17
-1.66596e-17
-9.50923e-18
-5.15436e-18
-2.66115e-18
-1.31229e-18
-0.00136699
-0.00136447
-0.00135907
-0.00137524
-0.0013976
-0.00134891
-0.00127376
-0.0013584
-0.00155398
-0.0015245
-0.00125799
-0.00123447
-0.00148229
-0.00121314
8.02359e-05
0.00118495
0.000492078
-0.00190667
-0.00350407
-0.00215669
0.00213853
0.00685272
0.00901913
0.00839572
0.00597992
0.00320919
0.00118286
0.00019855
-9.3963e-06
-8.61921e-06
-4.81053e-06
-1.52898e-06
-1.4392e-07
1.6088e-11
1.52142e-11
1.16422e-11
6.9935e-12
2.92914e-12
6.44606e-13
1.1838e-14
-9.46999e-17
-8.10818e-17
-6.15319e-17
-4.27009e-17
-2.75424e-17
-1.66703e-17
-9.52773e-18
-5.16579e-18
-2.66665e-18
-1.31459e-18
-0.00137245
-0.00136991
-0.00136447
-0.00138076
-0.00140329
-0.00135422
-0.00127845
-0.00136381
-0.00156109
-0.00153152
-0.00126137
-0.00123601
-0.00148767
-0.00122434
7.29023e-05
0.00119293
0.000516268
-0.00188119
-0.00350026
-0.00219144
0.00206108
0.00674831