/*--------------------------------*- C++ -*----------------------------------*\
| =========                 |                                                 |
| \\      /  F ield         | OpenFOAM: The Open Source CFD Toolbox           |
|  \\    /   O peration     | Version:  v2006                                 |
|   \\  /    A nd           | Website:  www.openfoam.com                      |
|    \\/     M anipulation  |                                                 |
\*---------------------------------------------------------------------------*/
FoamFile
{
    version     2.0;
    format      ascii;
    class       volScalarField;
    location    "0";
    object      alpha.water;
}
// * * * * * * * * * * * * * * * * * * * * * * * * * * * * * * * * * * * * * //

dimensions      [0 0 0 0 0 0 0];


internalField   nonuniform List<scalar> 
67500
(
0.996865
0.989671
0.549995
0.0430782
0.11838
0.225389
0.277151
0.432595
0.582202
0.689693
0.777096
0.805531
0.805531
0.805531
0.766608
0.767193
0.767091
0.43077
0.454755
0.944567
0.999983
0.999983
0.995057
0.958449
0.966305
0.991992
0.999978
1
1
1
1
1
1
1
1
1
1
1
1
1
1
1
1
1
1
1
1
1
1
1
1
1
1
1
1
1
1
1
1
1
1
1
1
1
1
1
1
1
1
1
1
1
1
1
1
1
1
1
1
1
1
1
1
1
1
1
1
1
1
1
1
1
1
1
1
1
1
1
1
1
1
1
1
1
1
1
1
1
1
1
1
1
1
1
1
1
1
1
1
1
1
1
1
1
1
1
1
1
1
1
1
1
1
1
1
1
1
1
1
1
1
1
1
1
1
1
1
1
1
1
1
1
1
1
1
1
1
1
1
1
1
1
1
1
1
1
1
1
1
1
1
1
1
1
1
1
1
1
1
1
1
1
1
1
1
1
1
1
1
1
1
1
1
1
1
1
1
1
1
1
1
1
1
1
1
1
1
1
1
1
1
1
1
1
1
1
1
1
1
1
1
1
1
1
1
1
1
1
1
1
1
1
1
1
1
1
1
1
1
1
1
1
1
1
1
1
1
1
1
1
1
1
1
1
1
1
1
1
1
1
1
1
1
1
1
1
1
1
1
1
1
1
1
1
1
1
1
1
1
1
1
1
1
1
1
1
1
1
1
1
1
1
1
1
1
1
1
1
1
1
1
1
1
1
1
1
1
1
1
1
1
1
1
1
1
1
1
1
1
1
1
1
1
1
1
1
1
1
1
1
1
1
1
1
1
1
1
1
1
1
1
1
1
1
1
1
1
1
1
1
1
1
1
1
1
1
1
1
1
1
1
1
1
1
1
1
1
1
1
1
1
1
1
1
1
1
1
1
1
1
1
1
1
1
1
1
1
1
1
1
1
1
1
1
1
1
1
1
1
1
1
1
1
1
1
1
1
1
1
1
1
1
1
1
1
1
1
1
1
1
1
1
1
1
1
1
1
1
1
1
1
1
1
1
1
1
1
1
1
1
1
1
1
1
1
1
1
1
1
1
0.996865
0.871545
0.0427023
0.0427054
0.0427023
0.291099
0.34948
0.209551
1.35687e-05
0.0189087
0.176896
0.37977
0.592929
0.404786
0.218146
0.221561
0.224317
0.119331
0.115552
0.12617
0.469749
0.468732
0.215653
0.195968
0.224548
0.869104
1
1
1
1
1
1
1
1
1
1
1
1
1
1
1
1
1
1
1
1
1
1
1
1
1
1
1
1
1
1
1
1
1
1
1
1
1
1
1
1
1
1
1
1
1
1
1
1
1
1
1
1
1
1
1
1
1
1
1
1
1
1
1
1
1
1
1
1
1
1
1
1
1
1
1
1
1
1
1
1
1
1
1
1
1
1
1
1
1
1
1
1
1
1
1
1
1
1
1
1
1
1
1
1
1
1
1
1
1
1
1
1
1
1
1
1
1
1
1
1
1
1
1
1
1
1
1
1
1
1
1
1
1
1
1
1
1
1
1
1
1
1
1
1
1
1
1
1
1
1
1
1
1
1
1
1
1
1
1
1
1
1
1
1
1
1
1
1
1
1
1
1
1
1
1
1
1
1
1
1
1
1
1
1
1
1
1
1
1
1
1
1
1
1
1
1
1
1
1
1
1
1
1
1
1
1
1
1
1
1
1
1
1
1
1
1
1
1
1
1
1
1
1
1
1
1
1
1
1
1
1
1
1
1
1
1
1
1
1
1
1
1
1
1
1
1
1
1
1
1
1
1
1
1
1
1
1
1
1
1
1
1
1
1
1
1
1
1
1
1
1
1
1
1
1
1
1
1
1
1
1
1
1
1
1
1
1
1
1
1
1
1
1
1
1
1
1
1
1
1
1
1
1
1
1
1
1
1
1
1
1
1
1
1
1
1
1
1
1
1
1
1
1
1
1
1
1
1
1
1
1
1
1
1
1
1
1
1
1
1
1
1
1
1
1
1
1
1
1
1
1
1
1
1
1
1
1
1
1
1
1
1
1
1
1
1
1
1
1
1
1
1
1
1
1
1
1
1
1
1
1
1
1
1
1
1
1
1
1
1
1
1
1
1
1
1
1
1
1
1
1
1
1
1
1
1
1
1
1
1
1
1
1
1
1
1
1
1
1
1
1
1
1
1
0.994838
0.677692
0.222232
0.228475
0.226485
0.0283049
0.0572575
1.78699e-05
1.85625e-05
-4.50792e-23
-4.76769e-23
-3.84881e-26
-1.62003e-25
0.0365125
0.130835
0.0713163
0.0857581
0.339923
0.230571
0.152238
0.152343
0.152509
0.38177
0.895608
1
1
1
1
1
1
0.995843
0.980501
0.968399
0.962332
0.935971
0.900113
0.90076
0.886756
0.863147
0.848528
0.839113
0.828919
0.814498
0.79235
0.764588
0.742674
0.735911
0.738611
0.750407
0.767132
0.784372
0.79969
0.812484
0.821703
0.825719
0.82562
0.823637
0.821904
0.823244
0.830023
0.842614
0.85923
0.876915
0.892886
0.905511
0.914465
0.92033
0.924196
0.92744
0.93154
0.937624
0.945953
0.95583
0.966057
0.97556
0.983694
0.990224
0.99512
0.998368
0.999874
1
1
1
1
1
1
1
1
1
1
1
1
1
1
1
1
1
1
1
1
1
1
1
1
1
1
1
1
1
1
1
1
1
1
1
1
1
1
1
1
1
1
1
1
1
1
1
1
1
1
1
1
1
1
1
1
1
1
1
1
1
1
1
1
1
1
1
1
1
1
1
1
1
1
1
1
1
1
1
1
1
1
1
1
1
1
1
1
1
1
1
1
1
1
1
1
1
1
1
1
1
1
1
1
1
1
1
1
1
1
1
1
1
1
1
1
1
1
1
1
1
1
1
1
1
1
1
1
1
1
1
1
1
1
1
1
1
1
1
1
1
1
1
1
1
1
1
1
1
1
1
1
1
1
1
1
1
1
1
1
1
1
1
1
1
1
1
1
1
1
1
1
1
1
1
1
1
1
1
1
1
1
1
1
1
1
1
1
1
1
1
1
1
1
1
1
1
1
1
1
1
1
1
1
1
1
1
1
1
1
1
1
1
1
1
1
1
1
1
1
1
1
1
1
1
1
1
1
1
1
1
1
1
1
1
1
1
1
1
1
1
1
1
1
1
1
1
1
1
1
1
1
1
1
1
1
1
1
1
1
1
1
1
1
1
1
1
1
1
1
1
1
1
1
1
1
1
1
1
1
1
1
1
1
1
1
1
1
1
1
1
1
1
1
1
1
1
1
1
1
1
1
1
1
1
1
1
1
1
1
1
1
1
1
1
1
1
1
1
1
1
1
1
1
1
1
1
1
1
1
1
1
1
1
1
1
1
1
1
1
1
1
1
1
1
1
1
1
1
1
1
1
1
1
1
1
1
1
1
1
1
1
1
1
1
1
1
1
1
1
0.99492
0.662197
0.0830164
0.00179103
0.0168123
3.34739e-05
6.06641e-05
5.58415e-05
4.7807e-05
7.03988e-06
9.52634e-22
1.96945e-07
1.50396e-07
2.49712e-10
0.000114553
1.6336e-22
1.83026e-21
0.308299
0.831688
0.865851
0.855198
0.927503
0.97082
0.974812
0.963366
0.980162
1
0.98773
1
0.990075
0.488101
0.349216
0.602293
0.290554
-3.32106e-15
-1.5998e-14
-4.34204e-14
-7.43428e-14
-7.63399e-14
-3.93433e-14
1.11932e-35
7.47645e-36
1.70537e-36
2.27958e-37
1.3794e-36
3.69309e-21
0.00079674
0.00386352
0.00491822
0.00515318
0.00584659
0.00779685
0.0110056
0.0152763
0.020514
0.0269026
0.0350107
0.0456537
0.0596739
0.0779018
0.100463
0.125534
0.149133
0.166921
0.177462
0.18313
0.187979
0.195185
0.206445
0.223041
0.24602
0.275752
0.311589
0.35218
0.396319
0.443053
0.492674
0.546157
0.605258
0.671273
0.743359
0.791245
0.830673
0.86506
0.893492
0.916487
0.934878
0.949378
0.960734
0.969744
0.977148
0.983494
0.989063
0.993805
0.997389
0.999473
1
1
1
1
1
1
1
1
1
1
1
1
1
1
1
1
1
1
1
1
1
1
1
1
1
1
1
1
1
1
1
1
1
1
1
1
1
1
1
1
1
1
1
1
1
1
1
1
1
1
1
1
1
1
1
1
1
1
1
1
1
1
1
1
1
1
1
1
1
1
1
1
1
1
1
1
1
1
1
1
1
1
1
1
1
1
1
1
1
1
1
1
1
1
1
1
1
1
1
1
1
1
1
1
1
1
1
1
1
1
1
1
1
1
1
1
1
1
1
1
1
1
1
1
1
1
1
1
1
1
1
1
1
1
1
1
1
1
1
1
1
1
1
1
1
1
1
1
1
1
1
1
1
1
1
1
1
1
1
1
1
1
1
1
1
1
1
1
1
1
1
1
1
1
1
1
1
1
1
1
1
1
1
1
1
1
1
1
1
1
1
1
1
1
1
1
1
1
1
1
1
1
1
1
1
1
1
1
1
1
1
1
1
1
1
1
1
1
1
1
1
1
1
1
1
1
1
1
1
1
1
1
1
1
1
1
1
1
1
1
1
1
1
1
1
1
1
1
1
1
1
1
1
1
1
1
1
1
1
1
1
1
1
1
1
1
1
1
1
1
1
1
1
1
1
1
1
1
1
1
1
1
1
1
1
1
1
1
1
1
1
1
1
1
1
1
1
1
1
1
1
1
1
1
1
1
1
1
1
1
1
1
1
1
1
1
1
1
1
1
1
1
1
1
1
1
1
1
1
1
1
1
1
1
1
1
1
1
1
1
1
1
1
1
1
1
1
1
1
1
1
1
1
1
0.994986
0.551883
-2.33962e-19
0.0014331
3.34739e-05
3.46317e-05
6.82175e-05
1.95186e-07
1.42885e-23
0.000237629
0.000386299
1.25123e-08
1.4275e-08
3.05662e-10
-1.64887e-22
-8.73574e-22
0.00684248
0.0066107
0.15651
0.923902
1
1
0.210012
0.000172466
3.17954e-18
0.0125047
0.081323
0.208728
0.385316
0.164099
9.82053e-18
0.0178426
0.050476
0.0274794
-2.83067e-16
-8.89869e-16
-4.18068e-16
-1.76261e-17
1.13351e-17
1.77325e-17
2.0182e-17
5.48117e-18
3.0232e-18
1.47755e-18
5.73878e-19
1.45618e-19
-4.25909e-36
-2.06193e-38
5.42011e-40
2.4063e-37
1.71833e-36
3.76818e-37
2.06262e-37
7.35798e-39
-6.06501e-37
8.53611e-40
-4.71805e-38
-2.26337e-40
-4.71454e-38
2.00787e-38
5.01854e-38
0
-1.05921e-21
-1.67367e-21
-2.00491e-21
-2.15337e-21
-2.22388e-21
-2.36722e-21
-2.77331e-21
-3.57685e-21
-4.70359e-21
-5.67332e-21
-5.71179e-21
-4.58872e-21
-3.43452e-21
-3.99697e-21
-6.40421e-21
-7.23153e-21
-1.83074e-21
-3.53208e-21
0.00231824
0.0331797
0.0710404
0.112034
0.154529
0.197735
0.240356
0.280738
0.318072
0.353483
0.389502
0.42865
0.473448
0.524797
0.581261
0.64138
0.704756
0.771821
0.81715
0.858305
0.89707
0.930321
0.95697
0.976962
0.990503
0.997971
1
1
1
1
1
1
1
1
1
1
1
1
1
1
1
1
1
1
1
1
1
1
1
1
1
1
1
1
1
1
1
1
1
1
1
1
1
1
1
1
1
1
1
1
1
1
1
1
1
1
1
1
1
1
1
1
1
1
1
1
1
1
1
1
1
1
1
1
1
1
1
1
1
1
1
1
1
1
1
1
1
1
1
1
1
1
1
1
1
1
1
1
1
1
1
1
1
1
1
1
1
1
1
1
1
1
1
1
1
1
1
1
1
1
1
1
1
1
1
1
1
1
1
1
1
1
1
1
1
1
1
1
1
1
1
1
1
1
1
1
1
1
1
1
1
1
1
1
1
1
1
1
1
1
1
1
1
1
1
1
1
1
1
1
1
1
1
1
1
1
1
1
1
1
1
1
1
1
1
1
1
1
1
1
1
1
1
1
1
1
1
1
1
1
1
1
1
1
1
1
1
1
1
1
1
1
1
1
1
1
1
1
1
1
1
1
1
1
1
1
1
1
1
1
1
1
1
1
1
1
1
1
1
1
1
1
1
1
1
1
1
1
1
1
1
1
1
1
1
1
1
1
1
1
1
1
1
1
1
1
1
1
1
1
1
1
1
1
1
1
1
1
1
1
1
1
1
1
1
1
1
1
1
1
1
1
1
1
1
1
1
1
1
1
1
1
1
1
1
1
1
1
1
1
1
1
1
1
1
1
1
1
1
1
1
1
1
1
1
1
1
1
1
1
1
1
1
1
1
1
1
1
1
1
1
1
1
1
1
1
1
1
1
1
0.958346
0.450471
1.76658e-22
8.12088e-05
9.32844e-05
8.90795e-05
6.88848e-06
3.72874e-25
7.13632e-21
0.00165713
0.0126275
0.00560246
-1.79143e-26
-2.95322e-28
4.43287e-05
0.0168751
0.351479
0.707295
0.706289
0.526033
0.249902
0.056033
7.93734e-21
1.94075e-20
3.062e-18
9.21903e-21
5.93789e-21
-1.55071e-20
0.00326791
5.67248e-20
9.62532e-18
-3.15176e-21
-5.69952e-20
-4.52777e-21
-1.04644e-17
-8.1055e-18
5.5029e-17
8.56701e-17
9.44986e-17
8.49093e-17
6.63754e-17
4.78631e-17
3.30359e-17
2.21823e-17
1.45163e-17
9.33242e-18
6.03314e-18
4.00751e-18
2.69445e-18
1.84248e-18
1.28697e-18
9.17307e-19
6.63427e-19
4.82818e-19
3.50537e-19
2.52062e-19
1.78585e-19
1.24218e-19
8.45517e-20
5.6081e-20
3.59884e-20
2.20391e-20
1.25234e-20
6.17617e-21
2.04772e-21
-6.2487e-22
-2.37026e-21
-3.64213e-21
-4.78365e-21
-5.87745e-21
-6.832e-21
-7.66192e-21
-8.45369e-21
-9.32774e-21
-1.04287e-20
-1.15632e-20
-1.24469e-20
-1.30543e-20
-1.36372e-20
-1.4134e-20
-1.44352e-20
-1.4179e-20
-1.36496e-20
-1.32094e-20
-1.33444e-20
-1.46608e-20
-1.84488e-20
-2.2647e-20
-1.75661e-20
-4.70633e-21
-7.3635e-22
-1.49289e-21
-4.86166e-21
9.99374e-39
-2.34962e-38
2.37203e-38
-2.33471e-38
0.00176425
0.0340793
0.0796694
0.137076
0.206682
0.288764
0.382556
0.485248
0.592812
0.700901
0.807898
0.875433
0.922679
0.958915
0.983209
0.996252
0.99999
1
1
1
1
1
1
1
1
1
1
1
1
1
1
1
1
1
1
1
1
1
1
1
1
1
1
1
1
1
1
1
1
1
1
1
1
1
1
1
1
1
1
1
1
1
1
1
1
1
1
1
1
1
1
1
1
1
1
1
1
1
1
1
1
1
1
1
1
1
1
1
1
1
1
1
1
1
1
1
1
1
1
1
1
1
1
1
1
1
1
1
1
1
1
1
1
1
1
1
1
1
1
1
1
1
1
1
1
1
1
1
1
1
1
1
1
1
1
1
1
1
1
1
1
1
1
1
1
1
1
1
1
1
1
1
1
1
1
1
1
1
1
1
1
1
1
1
1
1
1
1
1
1
1
1
1
1
1
1
1
1
1
1
1
1
1
1
1
1
1
1
1
1
1
1
1
1
1
1
1
1
1
1
1
1
1
1
1
1
1
1
1
1
1
1
1
1
1
1
1
1
1
1
1
1
1
1
1
1
1
1
1
1
1
1
1
1
1
1
1
1
1
1
1
1
1
1
1
1
1
1
1
1
1
1
1
1
1
1
1
1
1
1
1
1
1
1
1
1
1
1
1
1
1
1
1
1
1
1
1
1
1
1
1
1
1
1
1
1
1
1
1
1
1
1
1
1
1
1
1
1
1
1
1
1
1
1
1
1
1
1
1
1
1
1
1
1
1
1
1
1
1
1
1
1
1
1
1
1
1
1
1
1
1
1
1
1
1
1
1
1
1
1
1
1
1
1
1
1
1
1
1
1
1
1
1
0.854645
0.271443
7.64039e-23
3.81847e-05
0.000104417
7.06973e-05
3.93545e-11
1.14136e-08
-2.45283e-22
2.27242e-20
0.0818614
0.272562
0.272077
0.271421
0.256344
0.0231465
-5.82421e-26
-8.05006e-31
5.02825e-26
9.86439e-08
2.38445e-19
4.45948e-20
8.47382e-13
7.93734e-21
3.37287e-16
7.46671e-16
2.57997e-39
-9.11065e-22
-5.20472e-22
1.92179e-35
6.03017e-16
3.91998e-16
4.06526e-16
2.05242e-16
1.98322e-16
2.45891e-16
2.84939e-16
2.95141e-16
2.70217e-16
2.21208e-16
1.64964e-16
1.15616e-16
7.84547e-17
5.2582e-17
3.5181e-17
2.3634e-17
1.60199e-17
1.10113e-17
7.69669e-18
5.47043e-18
3.94614e-18
2.88075e-18
2.12092e-18
1.56908e-18
1.16262e-18
8.60594e-19
6.35249e-19
4.6701e-19
3.41581e-19
2.48342e-19
1.79358e-19
1.28634e-19
9.15889e-20
6.46924e-20
4.52462e-20
3.12089e-20
2.1063e-20
1.37094e-20
8.36386e-21
4.46654e-21
1.60842e-21
-5.23684e-22
-2.17174e-21
-3.51817e-21
-4.69773e-21
-5.81114e-21
-6.96579e-21
-8.29516e-21
-9.94563e-21
-1.20338e-20
-1.46e-20
-1.74324e-20
-1.99159e-20
-2.15256e-20
-2.2041e-20
-2.14708e-20
-1.99262e-20
-1.7513e-20
-1.43006e-20
-1.05122e-20
-6.41105e-21
-2.02573e-21
2.93738e-21
9.83595e-21
2.01865e-20
3.04652e-20
3.43455e-20
-1.82861e-36
-1.10731e-36
5.94997e-36
4.89104e-36
-8.97479e-19
-7.4379e-18
-1.45841e-17
-1.74573e-17
-1.401e-17
-8.18085e-18
9.84742e-19
0.0571759
0.154535
0.277973
0.415817
0.556009
0.691058
0.817457
0.90624
0.954842
0.98388
0.997709
1
1
1
1
1
1
1
1
1
1
1
1
1
1
1
1
1
1
1
1
1
1
1
1
1
1
1
1
1
1
1
1
1
1
1
1
1
1
1
1
1
1
1
1
1
1
1
1
1
1
1
1
1
1
1
1
1
1
1
1
1
1
1
1
1
1
1
1
1
1
1
1
1
1
1
1
1
1
1
1
1
1
1
1
1
1
1
1
1
1
1
1
1
1
1
1
1
1
1
1
1
1
1
1
1
1
1
1
1
1
1
1
1
1
1
1
1
1
1
1
1
1
1
1
1
1
1
1
1
1
1
1
1
1
1
1
1
1
1
1
1
1
1
1
1
1
1
1
1
1
1
1
1
1
1
1
1
1
1
1
1
1
1
1
1
1
1
1
1
1
1
1
1
1
1
1
1
1
1
1
1
1
1
1
1
1
1
1
1
1
1
1
1
1
1
1
1
1
1
1
1
1
1
1
1
1
1
1
1
1
1
1
1
1
1
1
1
1
1
1
1
1
1
1
1
1
1
1
1
1
1
1
1
1
1
1
1
1
1
1
1
1
1
1
1
1
1
1
1
1
1
1
1
1
1
1
1
1
1
1
1
1
1
1
1
1
1
1
1
1
1
1
1
1
1
1
1
1
1
1
1
1
1
1
1
1
1
1
1
1
1
1
1
1
1
1
1
1
1
1
1
1
1
1
1
1
1
1
1
1
1
1
1
1
1
1
1
1
1
1
1
1
1
1
1
1
1
1
1
1
1
0.81656
0.117232
-4.77627e-24
1.62744e-05
8.74027e-05
6.70318e-06
6.66007e-10
1.11657e-07
-5.03368e-22
-1.40876e-21
0.00416785
0.0991426
0.217434
0.0969381
6.51009e-06
0.000387533
2.44494e-05
1.38014e-29
2.69739e-12
2.70022e-12
4.68778e-12
4.67116e-12
2.94936e-12
1.94075e-20
5.23634e-14
2.79725e-13
2.01629e-13
5.26851e-14
6.40191e-14
7.63967e-14
7.55304e-14
4.68369e-14
1.45211e-14
1.91851e-15
8.81597e-16
7.89377e-16
7.36612e-16
6.9269e-16
5.83466e-16
4.51016e-16
3.24677e-16
2.22172e-16
1.47486e-16
9.65091e-17
6.2982e-17
4.13625e-17
2.75403e-17
1.87001e-17
1.29914e-17
9.23621e-18
6.70388e-18
4.94825e-18
3.69759e-18
2.78518e-18
2.10702e-18
1.59628e-18
1.20831e-18
9.12052e-19
6.85263e-19
5.11706e-19
3.79356e-19
2.79083e-19
2.03747e-19
1.47645e-19
1.06204e-19
7.57984e-20
5.36007e-20
3.74622e-20
2.57809e-20
1.73701e-20
1.13486e-20
7.05831e-21
4.01015e-21
1.84534e-21
2.99615e-22
-8.21599e-22
-1.66335e-21
-2.33705e-21
-2.93525e-21
-3.54569e-21
-4.26005e-21
-5.1672e-21
-6.33755e-21
-7.82772e-21
-9.6702e-21
-1.18374e-20
-1.42067e-20
-1.65456e-20
-1.84753e-20
-1.93751e-20
-1.82168e-20
-1.31893e-20
-8.1431e-22
2.59038e-20
8.04092e-20
1.84816e-19
3.71445e-19
6.70841e-19
1.23209e-18
2.06562e-18
3.12334e-18
3.35065e-18
-2.87821e-18
-1.94301e-17
-3.90272e-17
-5.05159e-17
-4.82539e-17
-3.53461e-17
-1.86687e-17
-5.76736e-18
8.27055e-36
0
2.39461e-35
5.79281e-36
-1.95257e-37
0.0642179
0.228059
0.413955
0.583804
0.734617
0.870522
0.949117
0.985392
0.998773
1
1
1
1
1
1
1
1
1
1
1
1
1
1
1
1
1
1
1
1
1
1
1
1
1
1
1
1
1
1
1
1
1
1
1
1
1
1
1
1
1
1
1
1
1
1
1
1
1
1
1
1
1
1
1
1
1
1
1
1
1
1
1
1
1
1
1
1
1
1
1
1
1
1
1
1
1
1
1
1
1
1
1
1
1
1
1
1
1
1
1
1
1
1
1
1
1
1
1
1
1
1
1
1
1
1
1
1
1
1
1
1
1
1
1
1
1
1
1
1
1
1
1
1
1
1
1
1
1
1
1
1
1
1
1
1
1
1
1
1
1
1
1
1
1
1
1
1
1
1
1
1
1
1
1
1
1
1
1
1
1
1
1
1
1
1
1
1
1
1
1
1
1
1
1
1
1
1
1
1
1
1
1
1
1
1
1
1
1
1
1
1
1
1
1
1
1
1
1
1
1
1
1
1
1
1
1
1
1
1
1
1
1
1
1
1
1
1
1
1
1
1
1
1
1
1
1
1
1
1
1
1
1
1
1
1
1
1
1
1
1
1
1
1
1
1
1
1
1
1
1
1
1
1
1
1
1
1
1
1
1
1
1
1
1
1
1
1
1
1
1
1
1
1
1
1
1
1
1
1
1
1
1
1
1
1
1
1
1
1
1
1
1
1
1
1
1
1
1
1
1
1
1
1
1
1
1
1
1
1
1
1
1
1
1
1
1
1
1
1
1
1
1
1
1
1
0.817396
0.048773
-1.88023e-25
2.0897e-06
4.13248e-06
4.9555e-10
2.51562e-07
1.70457e-07
1.16741e-28
7.01806e-27
-2.47214e-24
1.40974e-23
2.76768e-21
0.000171001
6.78742e-06
6.51009e-06
2.62473e-05
5.50143e-22
8.99078e-23
2.88632e-12
4.64698e-12
4.48507e-12
1.10041e-12
3.32294e-13
8.12977e-13
9.66809e-13
8.91503e-13
5.8223e-13
3.53046e-13
2.75224e-13
2.6396e-13
2.56768e-13
1.92131e-13
1.12934e-13
3.80143e-14
4.74918e-15
1.25684e-15
1.09832e-15
9.74606e-16
7.99808e-16
5.9414e-16
4.14847e-16
2.79208e-16
1.84571e-16
1.21588e-16
8.07173e-17
5.4438e-17
3.74805e-17
2.63903e-17
1.89897e-17
1.39341e-17
1.0397e-17
7.86591e-18
6.01712e-18
4.64151e-18
3.60064e-18
2.80092e-18
2.17827e-18
1.68849e-18
1.30093e-18
9.9403e-19
7.52071e-19
5.62911e-19
4.16644e-19
3.04911e-19
2.20606e-19
1.5776e-19
1.11459e-19
7.77534e-20
5.35174e-20
3.63065e-20
2.42313e-20
1.58537e-20
1.00998e-20
6.17943e-21
3.5197e-21
1.71211e-21
4.70005e-22
-4.05083e-22
-1.04999e-21
-1.55943e-21
-2.00011e-21
-2.42272e-21
-2.87289e-21
-3.39649e-21
-4.03965e-21
-4.84247e-21
-5.81864e-21
-6.89646e-21
-7.76586e-21
-7.52751e-21
-3.93313e-21
8.18662e-21
4.00162e-20
1.14599e-19
2.77219e-19
6.11184e-19
1.25588e-18
2.41457e-18
4.33668e-18
7.28181e-18
1.13683e-17
1.59138e-17
1.84136e-17
1.51448e-17
4.79816e-18
-8.14685e-18
-1.6029e-17
-1.32946e-17
-1.70763e-18
8.29787e-18
1.20379e-17
1.0149e-17
4.96507e-18
2.7414e-19
-1.45069e-52
-1.27545e-26
1.35998e-26
-1.5243e-28
-2.66292e-26
9.84742e-19
0.150439
0.398759
0.60311
0.761208
0.900399
0.972878
0.997731
1
1
1
1
1
1
1
1
1
1
1
1
1
1
1
1
1
1
1
1
1
1
1
1
1
1
1
1
1
1
1
1
1
1
1
1
1
1
1
1
1
1
1
1
1
1
1
1
1
1
1
1
1
1
1
1
1
1
1
1
1
1
1
1
1
1
1
1
1
1
1
1
1
1
1
1
1
1
1
1
1
1
1
1
1
1
1
1
1
1
1
1
1
1
1
1
1
1
1
1
1
1
1
1
1
1
1
1
1
1
1
1
1
1
1
1
1
1
1
1
1
1
1
1
1
1
1
1
1
1
1
1
1
1
1
1
1
1
1
1
1
1
1
1
1
1
1
1
1
1
1
1
1
1
1
1
1
1
1
1
1
1
1
1
1
1
1
1
1
1
1
1
1
1
1
1
1
1
1
1
1
1
1
1
1
1
1
1
1
1
1
1
1
1
1
1
1
1
1
1
1
1
1
1
1
1
1
1
1
1
1
1
1
1
1
1
1
1
1
1
1
1
1
1
1
1
1
1
1
1
1
1
1
1
1
1
1
1
1
1
1
1
1
1
1
1
1
1
1
1
1
1
1
1
1
1
1
1
1
1
1
1
1
1
1
1
1
1
1
1
1
1
1
1
1
1
1
1
1
1
1
1
1
1
1
1
1
1
1
1
1
1
1
1
1
1
1
1
1
1
1
1
1
1
1
1
1
1
1
1
1
1
1
1
1
1
1
1
1
1
1
1
0.75716
0.0252204
-9.74573e-26
-9.75859e-24
-1.32716e-23
1.3931e-23
5.23755e-08
3.06155e-08
1.62862e-10
9.46159e-09
1.33817e-21
0.000156314
0.000665032
0.000678031
0.000315817
0.000169095
0.000500796
0.000456341
1.82498e-05
1.86406e-21
2.04024e-20
9.24666e-13
7.52732e-13
5.10583e-13
6.77804e-13
5.41105e-13
3.30367e-13
2.34896e-13
1.92561e-13
1.83885e-13
1.75633e-13
1.83885e-13
2.46595e-13
4.03505e-13
3.91515e-13
2.2355e-13
6.48231e-14
3.74636e-15
1.28187e-15
1.11436e-15
8.96442e-16
6.55768e-16
4.53701e-16
3.05409e-16
2.0409e-16
1.37366e-16
9.40147e-17
6.57486e-17
4.7034e-17
3.43742e-17
2.56136e-17
1.94246e-17
1.49743e-17
1.17223e-17
9.30425e-18
7.46711e-18
6.03451e-18
4.88626e-18
3.9439e-18
3.15872e-18
2.50143e-18
1.9539e-18
1.50325e-18
1.13838e-18
8.48385e-19
6.22282e-19
4.49326e-19
3.19468e-19
2.23726e-19
1.5438e-19
1.05009e-19
7.04312e-20
4.65848e-20
3.03731e-20
1.9494e-20
1.22752e-20
7.52886e-21
4.42881e-21
2.41143e-21
1.09775e-21
2.35243e-22
-3.44523e-22
-7.55317e-22
-1.07538e-21
-1.35954e-21
-1.64718e-21
-1.96328e-21
-2.30058e-21
-2.54996e-21
-2.30149e-21
-3.53604e-22
6.3837e-21
2.51588e-20
7.17845e-20
1.78703e-19
4.08884e-19
8.77693e-19
1.78266e-18
3.43478e-18
6.27544e-18
1.08639e-17
1.78221e-17
2.76748e-17
4.04966e-17
5.54882e-17
7.0802e-17
8.39925e-17
9.30125e-17
9.71156e-17
9.7183e-17
9.34785e-17
8.382e-17
6.66082e-17
3.9852e-17
6.95449e-18
-2.10121e-35
7.63314e-09
1.84967e-08
1.03117e-08
-2.96524e-25
8.70029e-26
-2.34045e-28
-4.5161e-27
2.19005e-34
1.60526e-30
0.00178122
0.245916
0.543145
0.736596
0.880619
0.972969
0.999224
1
1
1
1
1
1
1
1
1
1
1
1
1
1
1
1
1
1
1
1
1
1
1
1
1
1
1
1
1
1
1
1
1
1
1
1
1
1
1
1
1
1
1
1
1
1
1
1
1
1
1
1
1
1
1
1
1
1
1
1
1
1
1
1
1
1
1
1
1
1
1
1
1
1
1
1
1
1
1
1
1
1
1
1
1
1
1
1
1
1
1
1
1
1
1
1
1
1
1
1
1
1
1
1
1
1
1
1
1
1
1
1
1
1
1
1
1
1
1
1
1
1
1
1
1
1
1
1
1
1
1
1
1
1
1
1
1
1
1
1
1
1
1
1
1
1
1
1
1
1
1
1
1
1
1
1
1
1
1
1
1
1
1
1
1
1
1
1
1
1
1
1
1
1
1
1
1
1
1
1
1
1
1
1
1
1
1
1
1
1
1
1
1
1
1
1
1
1
1
1
1
1
1
1
1
1
1
1
1
1
1
1
1
1
1
1
1
1
1
1
1
1
1
1
1
1
1
1
1
1
1
1
1
1
1
1
1
1
1
1
1
1
1
1
1
1
1
1
1
1
1
1
1
1
1
1
1
1
1
1
1
1
1
1
1
1
1
1
1
1
1
1
1
1
1
1
1
1
1
1
1
1
1
1
1
1
1
1
1
1
1
1
1
1
1
1
1
1
1
1
1
1
1
1
1
1
1
1
1
1
1
1
1
1
1
1
1
1
0.234002
0.0482919
-3.79563e-25
0
-7.49842e-26
7.37793e-07
9.7451e-25
-1.37081e-27
-7.79481e-25
3.92424e-08
3.25076e-07
3.27936e-07
3.30758e-07
0.00111107
0.00285424
0.00285755
0.00285606
0.00284009
0.00128926
0.00159277
0.000361999
2.81467e-14
2.81467e-14
2.81467e-14
2.81467e-14
2.81467e-14
2.81467e-14
2.81467e-14
1.71552e-05
7.17415e-05
3.48605e-05
1.0722e-06
2.57397e-13
2.81467e-14
6.10213e-13
8.93066e-13
6.68014e-13
2.49908e-13
2.82737e-14
1.28926e-15
1.08004e-15
8.71805e-16
6.42289e-16
4.49982e-16
3.08971e-16
2.12293e-16
1.4786e-16
1.05046e-16
7.62397e-17
5.64907e-17
4.27122e-17
3.29796e-17
2.60544e-17
2.10915e-17
1.74749e-17
1.47433e-17
1.25628e-17
1.07125e-17
9.06664e-18
7.56963e-18
6.20909e-18
4.99268e-18
3.93171e-18
3.03191e-18
2.29029e-18
1.69575e-18
1.23148e-18
8.77798e-19
6.14576e-19
4.22951e-19
2.86327e-19
1.90813e-19
1.2526e-19
8.10403e-20
5.16878e-20
3.24918e-20
2.01093e-20
1.22235e-20
7.26209e-21
4.17749e-21
2.28089e-21
1.12377e-21
4.16116e-22
-2.75154e-23
-3.23613e-22
-5.43723e-22
-7.27349e-22
-8.74802e-22
-8.90066e-22
-3.93407e-22
1.78094e-21
8.77868e-21
2.83044e-20
7.77589e-20
1.93754e-19
4.48506e-19
9.75684e-19
2.00628e-18
3.90974e-18
7.22719e-18
1.26755e-17
2.11005e-17
3.33681e-17
5.01785e-17
7.18156e-17
9.78851e-17
1.27072e-16
1.56947e-16
1.83979e-16
2.0404e-16
2.13098e-16
2.07553e-16
1.85167e-16
1.4663e-16
9.04426e-17
2.63862e-17
1.82188e-17
1.92896e-08
2.70395e-07
3.21241e-07
5.98258e-08
-3.84728e-25
-3.40581e-27
1.07178e-12
1.79544e-12
-3.34794e-30
1.39654e-28
-1.46995e-27
1.58633e-27
-9.74885e-19
0.207104
0.582677
0.79033
0.925962
0.990834
1
1
1
1
1
1
1
1
1
1
1
1
1
1
1
1
1
1
1
1
1
1
1
1
1
1
1
1
1
1
1
1
1
1
1
1
1
1
1
1
1
1
1
1
1
1
1
1
1
1
1
1
1
1
1
1
1
1
1
1
1
1
1
1
1
1
1
1
1
1
1
1
1
1
1
1
1
1
1
1
1
1
1
1
1
1
1
1
1
1
1
1
1
1
1
1
1
1
1
1
1
1
1
1
1
1
1
1
1
1
1
1
1
1
1
1
1
1
1
1
1
1
1
1
1
1
1
1
1
1
1
1
1
1
1
1
1
1
1
1
1
1
1
1
1
1
1
1
1
1
1
1
1
1
1
1
1
1
1
1
1
1
1
1
1
1
1
1
1
1
1
1
1
1
1
1
1
1
1
1
1
1
1
1
1
1
1
1
1
1
1
1
1
1
1
1
1
1
1
1
1
1
1
1
1
1
1
1
1
1
1
1
1
1
1
1
1
1
1
1
1
1
1
1
1
1
1
1
1
1
1
1
1
1
1
1
1
1
1
1
1
1
1
1
1
1
1
1
1
1
1
1
1
1
1
1
1
1
1
1
1
1
1
1
1
1
1
1
1
1
1
1
1
1
1
1
1
1
1
1
1
1
1
1
1
1
1
1
1
1
1
1
1
1
1
1
1
1
1
1
1
1
1
1
1
1
1
1
1
1
1
1
1
1
1
0.31342
0.0504529
-4.01464e-26
3.33854e-06
2.28592e-05
3.08558e-05
3.03224e-05
8.58816e-06
-3.3867e-23
-2.18537e-24
-9.98835e-27
4.86575e-07
5.08557e-07
2.81818e-24
0
3.25352e-24
-6.59537e-23
6.63294e-21
0.00351237
0.00455437
0.00454175
8.09663e-05
1.4515e-05
0.000115701
0.000118995
0.000212256
0.000334153
0.000188932
0.000765779
0.00112422
0.000923941
0.000406839
6.4072e-05
9.48205e-07
6.38509e-13
9.48789e-13
1.33406e-12
1.15392e-12
4.88948e-13
7.14346e-14
1.10983e-15
9.14068e-16
7.66218e-16
5.83113e-16
4.22107e-16
3.0027e-16
2.14113e-16
1.54657e-16
1.13666e-16
8.52205e-17
6.54556e-17
5.18218e-17
4.25655e-17
3.63883e-17
3.22162e-17
2.91515e-17
2.65215e-17
2.39172e-17
2.11743e-17
1.8305e-17
1.54171e-17
1.26453e-17
1.01063e-17
7.87833e-18
5.99745e-18
4.4637e-18
3.25155e-18
2.32054e-18
1.62399e-18
1.11544e-18
7.52526e-19
4.99041e-19
3.25523e-19
2.08984e-19
1.32105e-19
8.22445e-20
5.04266e-20
3.04377e-20
1.80725e-20
1.05419e-20
6.02761e-21
3.36273e-21
1.80958e-21
9.10125e-22
3.86085e-22
7.2463e-23
-1.24269e-22
-2.43585e-22
-2.48171e-22
9.39942e-23
1.5658e-21
6.41311e-21
2.04369e-20
5.73628e-20
1.47199e-19
3.50845e-19
7.83148e-19
1.64495e-18
3.26062e-18
6.11097e-18
1.08444e-17
1.82465e-17
2.91535e-17
4.43027e-17
6.41211e-17
8.84902e-17
1.16537e-16
1.46497e-16
1.75712e-16
2.00892e-16
2.18569e-16
2.25576e-16
2.19315e-16
1.97796e-16
1.60258e-16
1.05404e-16
3.70892e-17
1.96235e-17
1.54714e-07
2.904e-06
2.78363e-06
7.34401e-07
9.17774e-09
1.18101e-12
1.15604e-11
5.90833e-14
9.31173e-11
1.05088e-09
7.84305e-10
3.19914e-10
3.0652e-28
-9.37141e-19
-5.08592e-19
0.00230087
0.387362
0.736081
0.895796
0.982463
1
1
1
1
1
1
1
1
1
1
1
1
1
1
1
1
1
1
1
1
1
1
1
1
1
1
1
1
1
1
1
1
1
1
1
1
1
1
1
1
1
1
1
1
1
1
1
1
1
1
1
1
1
1
1
1
1
1
1
1
1
1
1
1
1
1
1
1
1
1
1
1
1
1
1
1
1
1
1
1
1
1
1
1
1
1
1
1
1
1
1
1
1
1
1
1
1
1
1
1
1
1
1
1
1
1
1
1
1
1
1
1
1
1
1
1
1
1
1
1
1
1
1
1
1
1
1
1
1
1
1
1
1
1
1
1
1
1
1
1
1
1
1
1
1
1
1
1
1
1
1
1
1
1
1
1
1
1
1
1
1
1
1
1
1
1
1
1
1
1
1
1
1
1
1
1
1
1
1
1
1
1
1
1
1
1
1
1
1
1
1
1
1
1
1
1
1
1
1
1
1
1
1
1
1
1
1
1
1
1
1
1
1
1
1
1
1
1
1
1
1
1
1
1
1
1
1
1
1
1
1
1
1
1
1
1
1
1
1
1
1
1
1
1
1
1
1
1
1
1
1
1
1
1
1
1
1
1
1
1
1
1
1
1
1
1
1
1
1
1
1
1
1
1
1
1
1
1
1
1
1
1
1
1
1
1
1
1
1
1
1
1
1
1
1
1
1
1
1
1
1
1
1
1
1
1
1
1
1
1
1
1
0.622332
0.0399696
-1.3058e-26
8.15263e-06
1.83669e-05
3.08729e-05
2.17019e-05
5.86506e-06
6.37784e-07
-2.11571e-24
-1.4623e-38
5.96934e-09
5.1495e-22
2.57433e-22
-1.55632e-21
7.34881e-06
3.94889e-23
-1.75849e-40
-4.20585e-26
6.74419e-23
0.00119526
0.00403464
0.00403776
0.00268656
0.00267163
0.00264579
0.00255913
0.00130998
0.00156621
0.00156182
0.00133516
0.00107195
0.000493515
0.000251474
2.55442e-05
9.89718e-13
1.09392e-12
1.50326e-12
1.46816e-12
6.72236e-13
1.0565e-13
8.85182e-16
7.41596e-16
6.43206e-16
5.07974e-16
3.80839e-16
2.79866e-16
2.05533e-16
1.52531e-16
1.15565e-16
9.10521e-17
7.59083e-17
6.72124e-17
6.29377e-17
6.11764e-17
6.00623e-17
5.81751e-17
5.48083e-17
4.99288e-17
4.39384e-17
3.7407e-17
3.0879e-17
2.47737e-17
1.93577e-17
1.4758e-17
1.09942e-17
8.01302e-18
5.71972e-18
4.00208e-18
2.74704e-18
1.85104e-18
1.22521e-18
7.97064e-19
5.09884e-19
3.2086e-19
1.98678e-19
1.21073e-19
7.26154e-20
4.28647e-20
2.49049e-20
1.4245e-20
8.02269e-21
4.44732e-21
2.42049e-21
1.28264e-21
6.46258e-22
2.89116e-22
9.15493e-23
1.47403e-23
1.43174e-22
8.72129e-22
3.44077e-21
1.12328e-20
3.26222e-20
8.66085e-20
2.12916e-19
4.88228e-19
1.04916e-18
2.1199e-18
4.03792e-18
7.26648e-18
1.23798e-17
2.00104e-17
3.07546e-17
4.50403e-17
6.29766e-17
8.42162e-17
1.07862e-16
1.32442e-16
1.55997e-16
1.76263e-16
1.90787e-16
1.96949e-16
1.9191e-16
1.72369e-16
1.34954e-16
7.24269e-17
2.05879e-17
1.96235e-17
2.2106e-06
4.52339e-06
4.50829e-06
2.507e-06
7.50444e-08
8.65665e-14
8.13659e-14
4.20633e-14
1.44739e-09
4.7714e-09
1.22248e-08
2.21431e-10
1.47314e-23
-5.79997e-26
-1.77698e-19
-9.62068e-20
-9.40184e-30
-9.13547e-30
0.236125
0.704369
0.904429
0.986915
1
1
1
1
1
1
1
1
1
1
1
1
1
1
1
1
1
1
1
1
1
1
1
1
1
1
1
1
1
1
1
1
1
1
1
1
1
1
1
1
1
1
1
1
1
1
1
1
1
1
1
1
1
1
1
1
1
1
1
1
1
1
1
1
1
1
1
1
1
1
1
1
1
1
1
1
1
1
1
1
1
1
1
1
1
1
1
1
1
1
1
1
1
1
1
1
1
1
1
1
1
1
1
1
1
1
1
1
1
1
1
1
1
1
1
1
1
1
1
1
1
1
1
1
1
1
1
1
1
1
1
1
1
1
1
1
1
1
1
1
1
1
1
1
1
1
1
1
1
1
1
1
1
1
1
1
1
1
1
1
1
1
1
1
1
1
1
1
1
1
1
1
1
1
1
1
1
1
1
1
1
1
1
1
1
1
1
1
1
1
1
1
1
1
1
1
1
1
1
1
1
1
1
1
1
1
1
1
1
1
1
1
1
1
1
1
1
1
1
1
1
1
1
1
1
1
1
1
1
1
1
1
1
1
1
1
1
1
1
1
1
1
1
1
1
1
1
1
1
1
1
1
1
1
1
1
1
1
1
1
1
1
1
1
1
1
1
1
1
1
1
1
1
1
1
1
1
1
1
1
1
1
1
1
1
1
1
1
1
1
1
1
1
1
1
1
1
1
1
1
1
1
1
1
1
1
1
1
1
0.625073
0.0237797
3.97452e-25
1.31792e-06
1.06704e-06
1.13358e-06
4.05774e-05
3.07407e-21
-2.40826e-21
-1.4438e-22
2.59578e-21
-2.88179e-22
5.73753e-05
0.00852692
0.00615167
0.00253572
0.000174188
1.49736e-21
-1.42851e-22
-9.7601e-24
-5.86176e-25
8.8752e-05
0.00328154
0.00370054
0.0036971
0.00296199
0.00119963
0.00124601
0.000582969
6.89088e-05
-1.85981e-23
-6.70296e-21
0.000474836
0.000585043
0.00046654
4.37475e-05
1.13969e-12
1.1941e-12
1.61172e-12
1.58093e-12
7.09668e-13
1.00567e-13
7.14696e-16
6.06608e-16
5.35129e-16
4.2729e-16
3.23546e-16
2.40619e-16
1.79443e-16
1.37376e-16
1.15211e-16
1.13076e-16
1.15665e-16
1.20988e-16
1.27928e-16
1.32925e-16
1.32941e-16
1.26984e-16
1.15933e-16
1.01617e-16
8.59503e-17
7.04689e-17
5.61996e-17
4.37097e-17
3.32162e-17
2.46972e-17
1.79853e-17
1.28381e-17
8.98826e-18
6.17554e-18
4.16585e-18
2.76024e-18
1.7971e-18
1.15009e-18
7.23689e-19
4.47857e-19
2.72632e-19
1.63281e-19
9.62279e-20
5.58208e-20
3.18881e-20
1.79516e-20
9.96742e-21
5.46212e-21
2.95391e-21
1.57314e-21
8.19503e-22
4.12149e-22
2.05276e-22
1.62014e-22
4.14329e-22
1.50448e-21
5.03051e-21
1.51277e-20
4.15059e-20
1.05047e-19
2.47043e-19
5.42688e-19
1.11807e-18
2.1676e-18
3.96609e-18
6.86771e-18
1.12848e-17
1.76432e-17
2.63177e-17
3.75586e-17
5.14287e-17
6.77687e-17
8.61991e-17
1.06155e-16
1.2691e-16
1.47492e-16
1.66337e-16
1.80595e-16
1.85436e-16
1.73278e-16
4.34968e-17
2.29633e-13
2.65838e-14
1.60975e-17
3.08373e-06
4.52339e-06
4.50829e-06
1.3389e-06
7.0012e-14
1.00911e-11
4.13044e-12
-1.36008e-28
-1.58142e-30
2.59054e-34
1.77322e-06
4.20778e-06
1.09406e-06
6.07757e-24
-8.35411e-21
2.94351e-12
4.67178e-12
1.50257e-28
1.11714e-31
-9.6571e-29
0.22915
0.734046
0.939327
0.996985
1
1
1
1
1
1
1
1
1
1
1
1
1
1
1
1
1
1
1
1
1
1
1
1
1
1
1
1
1
1
1
1
1
1
1
1
1
1
1
1
1
1
1
1
1
1
1
1
1
1
1
1
1
1
1
1
1
1
1
1
1
1
1
1
1
1
1
1
1
1
1
1
1
1
1
1
1
1
1
1
1
1
1
1
1
1
1
1
1
1
1
1
1
1
1
1
1
1
1
1
1
1
1
1
1
1
1
1
1
1
1
1
1
1
1
1
1
1
1
1
1
1
1
1
1
1
1
1
1
1
1
1
1
1
1
1
1
1
1
1
1
1
1
1
1
1
1
1
1
1
1
1
1
1
1
1
1
1
1
1
1
1
1
1
1
1
1
1
1
1
1
1
1
1
1
1
1
1
1
1
1
1
1
1
1
1
1
1
1
1
1
1
1
1
1
1
1
1
1
1
1
1
1
1
1
1
1
1
1
1
1
1
1
1
1
1
1
1
1
1
1
1
1
1
1
1
1
1
1
1
1
1
1
1
1
1
1
1
1
1
1
1
1
1
1
1
1
1
1
1
1
1
1
1
1
1
1
1
1
1
1
1
1
1
1
1
1
1
1
1
1
1
1
1
1
1
1
1
1
1
1
1
1
1
1
1
1
1
1
1
1
1
1
1
1
1
1
1
1
1
1
1
1
1
1
1
0.516451
0.0266404
-1.21224e-21
-1.65405e-23
7.31252e-05
0.000103121
4.1969e-05
0.00132953
0.00108655
0.00388482
0.0122032
0.0189722
0.0585351
0.0876591
0.0550612
0.00184016
6.32415e-07
6.32144e-07
5.84013e-07
1.47561e-07
-1.7448e-24
2.78977e-22
9.35791e-06
-7.53341e-23
-2.18471e-24
-4.12865e-28
-1.26356e-27
0.000986309
0.00124204
0.000170276
1.1932e-06
-1.14432e-24
-4.43709e-27
0.000367129
0.000531374
0.000446626
4.87935e-05
1.24304e-12
1.3037e-12
1.58529e-12
1.4521e-12
5.8196e-13
6.42017e-14
5.58244e-16
5.03196e-16
4.45578e-16
3.63397e-16
2.83374e-16
2.16776e-16
1.72982e-16
2.04616e-16
3.09117e-16
3.0348e-16
2.97318e-16
3.0515e-16
3.12172e-16
3.06792e-16
2.86491e-16
2.55071e-16
2.18219e-16
1.80728e-16
1.45693e-16
1.14734e-16
8.84615e-17
6.68637e-17
4.95837e-17
3.60912e-17
2.57929e-17
1.81019e-17
1.24778e-17
8.44923e-18
5.62118e-18
3.67489e-18
2.36128e-18
1.49148e-18
9.26246e-19
5.6566e-19
3.3977e-19
2.00779e-19
1.1676e-19
6.68519e-20
3.77091e-20
2.09713e-20
1.15087e-20
6.23715e-21
3.33982e-21
1.76658e-21
9.21863e-22
4.76392e-22
2.6375e-22
2.48443e-22
5.89545e-22
1.88567e-21
5.78714e-21
1.63028e-20
4.22819e-20
1.01634e-19
2.27704e-19
4.77709e-19
9.42147e-19
1.75291e-18
3.08702e-18
5.16356e-18
8.23426e-18
1.25727e-17
1.84727e-17
2.62686e-17
3.63892e-17
4.94451e-17
6.63268e-17
8.82547e-17
1.16654e-16
1.52583e-16
1.95238e-16
2.38901e-16
2.67138e-16
4.0398e-17
1.69464e-11
2.61565e-11
1.60958e-17
5.85402e-07
2.98349e-06
9.16058e-07
1.46911e-13
5.52032e-12
3.87376e-11
4.55864e-11
3.5845e-11
7.20191e-12
2.45422e-29
7.86183e-06
6.75087e-05
4.01151e-05
4.095e-06
-1.24012e-23
3.37192e-12
1.13287e-10
2.81981e-10
1.08965e-11
-5.6953e-28
-1.40349e-18
-4.39544e-18
8.74626e-34
0.354519
0.826946
0.981044
0.999868
1
1
1
1
1
1
1
1
1
1
1
1
1
1
1
1
1
1
1
1
1
1
1
1
1
1
1
1
1
1
1
1
1
1
1
1
1
1
1
1
1
1
1
1
1
1
1
1
1
1
1
1
1
1
1
1
1
1
1
1
1
1
1
1
1
1
1
1
1
1
1
1
1
1
1
1
1
1
1
1
1
1
1
1
1
1
1
1
1
1
1
1
1
1
1
1
1
1
1
1
1
1
1
1
1
1
1
1
1
1
1
1
1
1
1
1
1
1
1
1
1
1
1
1
1
1
1
1
1
1
1
1
1
1
1
1
1
1
1
1
1
1
1
1
1
1
1
1
1
1
1
1
1
1
1
1
1
1
1
1
1
1
1
1
1
1
1
1
1
1
1
1
1
1
1
1
1
1
1
1
1
1
1
1
1
1
1
1
1
1
1
1
1
1
1
1
1
1
1
1
1
1
1
1
1
1
1
1
1
1
1
1
1
1
1
1
1
1
1
1
1
1
1
1
1
1
1
1
1
1
1
1
1
1
1
1
1
1
1
1
1
1
1
1
1
1
1
1
1
1
1
1
1
1
1
1
1
1
1
1
1
1
1
1
1
1
1
1
1
1
1
1
1
1
1
1
1
1
1
1
1
1
1
1
1
1
1
1
1
1
1
1
1
1
1
1
1
1
1
1
1
1
1
0.405888
0.0178928
-3.00972e-20
-3.46542e-23
2.73527e-05
2.95957e-05
0.010036
0.0500065
0.0395245
0.0421202
0.119765
0.119033
0.11915