/*--------------------------------*- C++ -*----------------------------------*\
| =========                 |                                                 |
| \\      /  F ield         | OpenFOAM: The Open Source CFD Toolbox           |
|  \\    /   O peration     | Version:  v2006                                 |
|   \\  /    A nd           | Website:  www.openfoam.com                      |
|    \\/     M anipulation  |                                                 |
\*---------------------------------------------------------------------------*/
FoamFile
{
    version     2.0;
    format      ascii;
    class       volScalarField;
    location    "8";
    object      r;
}
// * * * * * * * * * * * * * * * * * * * * * * * * * * * * * * * * * * * * * //

dimensions      [1 2 0 0 0 0 0];


internalField   nonuniform List<scalar> 
350
(
4.18724e-19
7.04016e-19
1.46188e-18
3.18499e-18
6.97897e-18
1.52432e-17
3.31256e-17
7.1594e-17
1.53873e-16
3.28847e-16
6.98789e-16
1.47637e-15
3.10111e-15
6.47575e-15
1.34428e-14
2.77389e-14
5.68938e-14
1.15983e-13
2.34988e-13
4.73151e-13
9.46734e-13
1.88236e-12
3.71876e-12
7.29941e-12
1.42345e-11
2.75763e-11
5.30687e-11
1.01443e-10
1.92601e-10
3.63178e-10
6.80102e-10
1.26471e-09
2.33531e-09
4.28156e-09
7.79348e-09
1.40833e-08
2.52631e-08
4.49833e-08
7.94992e-08
1.39441e-07
2.4272e-07
4.19249e-07
7.18553e-07
1.22189e-06
2.06141e-06
3.45001e-06
5.72751e-06
9.43128e-06
1.54029e-05
2.49475e-05
4.00696e-05
6.38166e-05
0.000100775
0.000157774
0.000244883
0.00037678
0.000574638
0.000868657
0.00130143
0.00193235
0.00284324
0.00414554
0.00598911
0.008573
0.0121583
0.0170827
0.0237777
0.0327862
0.0447823
0.06059
0.0812016
0.107792
0.141729
0.184579
0.238095
0.304206
0.384981
0.482585
0.599219
0.73704
0.898074
1.08411
1.29662
1.53659
1.80451
2.1002
2.42281
2.77075
3.14168
3.53256
3.93971
4.35889
4.78546
5.21453
5.6411
6.06027
6.46741
6.85828
7.22919
7.57709
7.89964
8.19525
8.46303
8.70281
8.91502
9.10062
9.26103
9.39794
9.51327
9.60903
9.68722
9.74975
9.79834
9.83449
9.85942
9.87402
9.87882
9.87402
9.85942
9.83449
9.79834
9.74975
9.68722
9.60903
9.51327
9.39794
9.26103
9.10062
8.91502
8.70281
8.46303
8.19525
7.89964
7.57709
7.22919
6.85828
6.46741
6.06027
5.6411
5.21453
4.78546
4.35889
3.93971
3.53256
3.14168
2.77075
2.42281
2.1002
1.80451
1.53659
1.29662
1.08411
0.898074
0.73704
0.599219
0.482585
0.384981
0.304206
0.238095
0.184579
0.141729
0.107792
0.0812016
0.06059
0.0447823
0.0327862
0.0237777
0.0170827
0.0121583
0.008573
0.00598911
0.00414554
0.00284324
0.00193235
0.00130143
0.000868657
0.000574638
0.00037678
0.000244883
0.000157774
0.000100775
6.38166e-05
4.00696e-05
2.49475e-05
1.54029e-05
9.43128e-06
5.72751e-06
3.45001e-06
2.06141e-06
1.22189e-06
7.18553e-07
4.19249e-07
2.4272e-07
1.39441e-07
7.94992e-08
4.49833e-08
2.52631e-08
1.40833e-08
7.79348e-09
4.28156e-09
2.33531e-09
1.26471e-09
6.80102e-10
3.63178e-10
1.92601e-10
1.01443e-10
5.30687e-11
2.75763e-11
1.42345e-11
7.29941e-12
3.71876e-12
1.88236e-12
9.46734e-13
4.73151e-13
2.34988e-13
1.15983e-13
5.68938e-14
2.77389e-14
1.34428e-14
6.47575e-15
3.10111e-15
1.47637e-15
6.98789e-16
3.28847e-16
1.53873e-16
7.15936e-17
3.31246e-17
1.52411e-17
6.97414e-18
3.17393e-18
1.43666e-18
6.46825e-19
2.89676e-19
1.29048e-19
5.71908e-20
2.52147e-20
1.106e-20
4.8267e-21
2.09583e-21
9.05507e-22
3.89293e-22
1.66543e-22
7.09026e-23
3.00399e-23
1.26665e-23
5.31554e-24
2.2202e-24
9.23012e-25
3.81951e-25
1.5733e-25
6.45105e-26
2.6332e-26
1.07e-26
4.32863e-27
1.74339e-27
6.99089e-28
2.79112e-28
1.10955e-28
4.39188e-29
1.73103e-29
6.79396e-30
2.65533e-30
1.03349e-30
4.00585e-31
1.54633e-31
5.94481e-32
2.27623e-32
8.6806e-33
3.29723e-33
1.24746e-33
4.70107e-34
1.76469e-34
6.59862e-35
2.4579e-35
9.12034e-36
3.37137e-36
1.24154e-36
4.55494e-37
1.66489e-37
6.06288e-38
2.19975e-38
7.95206e-39
2.86422e-39
1.02793e-39
3.6759e-40
1.30983e-40
4.65077e-41
1.64553e-41
5.80181e-42
2.0385e-42
7.13767e-43
2.49062e-43
8.66112e-44
3.00168e-44
1.03678e-44
3.56904e-45
1.22452e-45
4.18731e-46
1.42716e-46
4.84823e-47
1.64163e-47
5.54063e-48
1.86397e-48
6.25066e-49
2.08942e-49
6.96216e-50
2.31255e-50
7.65727e-51
2.52755e-51
8.31713e-52
2.72838e-52
8.92276e-53
2.90914e-53
9.45599e-54
3.06432e-54
9.90036e-55
3.18908e-55
1.0242e-55
3.27953e-56
1.04702e-56
3.33291e-57
1.05784e-57
3.34774e-58
1.05639e-58
3.32386e-59
1.04283e-59
3.26246e-60
1.01775e-60
3.16597e-61
9.82082e-62
3.03788e-62
9.37088e-63
2.88258e-63
8.84263e-64
2.70511e-64
8.25268e-65
2.51084e-65
7.61838e-66
2.30531e-66
6.95704e-67
2.09389e-67
6.28523e-68
1.88162e-68
5.61813e-69
1.67303e-69
4.96914e-70
1.47227e-70
4.35859e-71
1.31397e-71
4.87171e-72
)
;

boundaryField
{
    right
    {
        type            zeroGradient;
    }
    left
    {
        type            inletOutlet;
        inletValue      uniform 0;
        value           uniform 4.18724e-19;
    }
    top
    {
        type            zeroGradient;
    }
    bottom
    {
        type            zeroGradient;
    }
    empty
    {
        type            empty;
    }
}


// ************************************************************************* //
