/*--------------------------------*- C++ -*----------------------------------*\
| =========                 |                                                 |
| \\      /  F ield         | OpenFOAM: The Open Source CFD Toolbox           |
|  \\    /   O peration     | Version:  v2006                                 |
|   \\  /    A nd           | Website:  www.openfoam.com                      |
|    \\/     M anipulation  |                                                 |
\*---------------------------------------------------------------------------*/
FoamFile
{
    version     2.0;
    format      ascii;
    class       volScalarField;
    location    "0";
    object      p;
}
// * * * * * * * * * * * * * * * * * * * * * * * * * * * * * * * * * * * * * //

dimensions      [1 -1 -2 0 0 0 0];


internalField   nonuniform List<scalar> 
20000
(
4.29674e-05
4.31928e-05
4.36949e-05
4.44488e-05
4.54618e-05
4.67352e-05
4.82752e-05
5.009e-05
5.21887e-05
5.45806e-05
5.7277e-05
6.02898e-05
6.36324e-05
6.73192e-05
7.13653e-05
7.57894e-05
8.06003e-05
8.58195e-05
9.14655e-05
9.75563e-05
0.00010411
0.000111144
0.000118674
0.000126717
0.000135283
0.000144383
0.000154022
0.000164201
0.000174913
0.000186143
0.000197865
0.000210041
0.000222615
0.000235513
0.000248637
0.000261858
0.000275015
0.000287905
0.000300275
0.000311811
0.000322132
0.000330776
0.00033719
0.000340714
0.000340555
0.00033578
0.000325308
0.000307924
0.000282278
0.000246897
0.000200225
0.000140746
6.71964e-05
-2.11424e-05
-0.000124109
-0.000240295
-0.000366594
-0.000497784
-0.00062379
-0.000716286
-0.000803698
-0.000859902
-0.000881851
-0.000876786
-0.000869302
-0.000890098
-0.000956237
-0.00105901
-0.00116892
-0.00124618
-0.00125794
-0.00117889
-0.000995543
-0.000698715
-0.000280603
0.000263399
0.000933295
0.00172434
0.00262454
0.00361138
0.00465283
0.00571277
0.00675596
0.00775003
0.00866414
0.00948407
0.0101759
0.0107376
0.011164
0.0114549
0.011614
0.0116477
0.0115648
0.0113759
0.0110927
0.0107278
0.0102973
0.009859
0.00931011
0.00870651
0.00805743
0.00736406
0.00661899
0.00580944
0.00491727
0.0039603
0.00290037
0.00175332
0.000533051
-0.000734706
-0.00201221
-0.00325308
-0.00440703
-0.00542561
-0.00626784
-0.00690449
-0.00732099
-0.00751917
-0.00751677
-0.00733903
-0.00701636
-0.00658747
-0.00607908
-0.00551228
-0.00491158
-0.00430551
-0.00372985
-0.00322169
-0.00280652
-0.00248738
-0.00224278
-0.00203666
-0.00183633
-0.00162552
-0.00140371
-0.00117786
-0.000956458
-0.000747292
-0.000556207
-0.000386541
-0.000239499
-0.000114771
-1.10417e-05
7.3597e-05
0.000141308
0.000194298
0.000234682
0.000264412
0.000285238
0.000298701
0.000306137
0.000308692
0.00030734
0.000302904
0.000296072
0.000287417
0.000277415
0.000266457
0.000254862
0.000242891
0.000230753
0.000218616
0.00020661
0.00019484
0.000183382
0.000172296
0.000161623
0.00015139
0.000141617
0.00013231
0.000123471
0.000115097
0.000107178
9.9705e-05
9.26913e-05
8.60366e-05
7.97837e-05
7.39093e-05
6.83936e-05
6.32157e-05
5.83552e-05
5.37926e-05
4.95087e-05
4.5485e-05
4.17036e-05
3.8147e-05
3.47986e-05
3.16425e-05
2.86632e-05
2.58461e-05
2.31771e-05
2.0643e-05
1.82309e-05
1.59288e-05
1.37254e-05
1.16108e-05
9.58106e-06
7.61081e-06
5.70798e-06
3.79504e-06
4.29391e-05
4.31634e-05
4.36635e-05
4.4416e-05
4.54286e-05
4.67026e-05
4.82439e-05
5.00608e-05
5.21619e-05
5.45566e-05
5.72554e-05
6.02701e-05
6.36132e-05
6.72989e-05
7.1342e-05
7.57574e-05
8.05653e-05
8.57821e-05
9.14261e-05
9.7515e-05
0.000104067
0.000111099
0.000118629
0.00012667
0.000135235
0.000144335
0.000153974
0.000164154
0.000174867
0.000186099
0.000197825
0.000210006
0.000222587
0.000235494
0.000248629
0.000261866
0.000275041
0.000287954
0.000300352
0.000311923
0.000322286
0.00033098
0.000337454
0.000341049
0.000340975
0.000336297
0.000325934
0.000308671
0.000283157
0.000247913
0.000201371
0.000141999
6.85081e-05
-1.98554e-05
-0.000122988
-0.000239528
-0.000366206
-0.00049729
-0.000626314
-0.0007552
-0.000852656
-0.000910308
-0.000926001
-0.00091427
-0.000902433
-0.000920684
-0.000984579
-0.00108441
-0.00119027
-0.00126184
-0.00126795
-0.00118396
-0.000996206
-0.000695173
-0.000272695
0.000276026
0.000950927
0.00174705
0.00265204
0.00364287
0.00468706
0.00574829
0.006791
0.00778212
0.00869383
0.00949954
0.01019
0.0107508
0.0111766
0.0114669
0.0116252
0.011658
0.0115742
0.0113843
0.0110995
0.0107312
0.0102873
0.00975433
0.00919593
0.00860449
0.00797432
0.00729659
0.00656417
0.00576715
0.00488521
0.0039434
0.00289824
0.00176535
0.000558267
-0.000697955
-0.00196625
-0.00320064
-0.00435095
-0.00536865
-0.00621252
-0.00685295
-0.00727475
-0.00747915
-0.00748314
-0.00731585
-0.00700933
-0.00658893
-0.00608127
-0.00551373
-0.00491114
-0.00430232
-0.00372377
-0.00321365
-0.00279831
-0.00248093
-0.00223924
-0.00203579
-0.00183691
-0.00162631
-0.00140402
-0.00117748
-0.000955401
-0.000745723
-0.000554333
-0.000384545
-0.000237517
-0.000112898
-9.33107e-06
7.5119e-05
0.000142636
0.000195437
0.000235647
0.000265219
0.000285907
0.000299249
0.000306581
0.000309048
0.000307622
0.000303123
0.000296239
0.000287541
0.000277503
0.000266516
0.000254898
0.000242908
0.000230755
0.000218605
0.00020659
0.000194812
0.000183349
0.000172259
0.000161583
0.000151349
0.000141574
0.000132265
0.000123426
0.00011505
0.00010713
9.96505e-05
9.25871e-05
8.59596e-05
7.97248e-05
7.38641e-05
6.83574e-05
6.31858e-05
5.83303e-05
5.37718e-05
4.94915e-05
4.54708e-05
4.16921e-05
3.81379e-05
3.47916e-05
3.16374e-05
2.86598e-05
2.58443e-05
2.31768e-05
2.06441e-05
1.82335e-05
1.59331e-05
1.37318e-05
1.16181e-05
9.58224e-06
7.6078e-06
5.72014e-06
3.76966e-06
4.28949e-05
4.31212e-05
4.36212e-05
4.4374e-05
4.53864e-05
4.66596e-05
4.81994e-05
5.0014e-05
5.2112e-05
5.45031e-05
5.71976e-05
6.02076e-05
6.35464e-05
6.72282e-05
7.12683e-05
7.56824e-05
8.04891e-05
8.57041e-05
9.13453e-05
9.74314e-05
0.00010398
0.00011101
0.000118537
0.000126576
0.00013514
0.000144238
0.000153878
0.000164058
0.000174774
0.000186011
0.000197744
0.000209935
0.00022253
0.000235455
0.000248614
0.000261879
0.000275092
0.000288051
0.000300506
0.000312147
0.000322593
0.000331387
0.000337981
0.00034172
0.000341814
0.00033733
0.000327186
0.000310165
0.000284915
0.000249946
0.00020367
0.000144512
7.11327e-05
-1.72735e-05
-0.00012063
-0.000237646
-0.000365603
-0.000499797
-0.000631678
-0.000750946
-0.000836333
-0.000886881
-0.000898549
-0.000882679
-0.000866936
-0.000884208
-0.000952272
-0.00106135
-0.00117748
-0.00126313
-0.00127863
-0.00120244
-0.0010213
-0.000726002
-0.000308327
0.000236674
0.000909133
0.00170472
0.0026118
0.00360729
0.00465798
0.00572668
0.00677745
0.0077775
0.00869859
0.00951394
0.0102098
0.0107731
0.0111999
0.0114901
0.0116476
0.0116791
0.0115934
0.0114012
0.0111145
0.010747
0.0103136
0.00981555
0.00928037
0.00869016
0.0080523
0.00736646
0.00662686
0.0058244
0.00496316
0.00397981
0.00292493
0.00177835
0.000554484
-0.000720142
-0.00200727
-0.00325943
-0.00442488
-0.00545377
-0.00630397
-0.00694539
-0.00736287
-0.00755834
-0.00755032
-0.00736921
-0.0070473
-0.00661328
-0.00609651
-0.00552224
-0.00491331
-0.0042976
-0.00371247
-0.00319797
-0.00278204
-0.00246812
-0.00223227
-0.00203421
-0.0018382
-0.00162796
-0.00140468
-0.00117671
-0.000953278
-0.000742571
-0.000550571
-0.000380541
-0.000233547
-0.000109146
-5.90739e-06
7.81636e-05
0.00014529
0.000197714
0.000237575
0.000266833
0.000287242
0.000300343
0.000307468
0.000309759
0.000308184
0.000303561
0.000296572
0.000287788
0.000277679
0.000266634
0.000254968
0.00024294
0.000230756
0.000218583
0.000206549
0.000194757
0.000183284
0.000172186
0.000161505
0.000151268
0.000141492
0.000132185
0.000123348
0.000114977
0.000107063
9.95933e-05
9.25447e-05
8.59169e-05
7.96771e-05
7.38121e-05
6.83031e-05
6.31312e-05
5.82764e-05
5.37192e-05
4.94406e-05
4.5422e-05
4.16455e-05
3.80936e-05
3.47497e-05
3.15979e-05
2.86227e-05
2.58095e-05
2.31444e-05
2.06139e-05
1.82054e-05
1.5907e-05
1.37074e-05
1.15951e-05
9.5614e-06
7.59077e-06
5.70029e-06
3.75573e-06
4.28276e-05
4.30532e-05
4.35523e-05
4.43035e-05
4.53141e-05
4.65851e-05
4.81226e-05
4.99348e-05
5.20305e-05
5.4419e-05
5.71111e-05
6.01188e-05
6.3455e-05
6.71337e-05
7.11702e-05
7.55799e-05
8.0381e-05
8.55903e-05
9.12262e-05
9.73072e-05
0.000103851
0.000110876
0.000118399
0.000126435
0.000134996
0.000144093
0.000153733
0.000163915
0.000174635
0.00018588
0.000197623
0.000209829
0.000222444
0.000235396
0.00024859
0.0002619
0.000275167
0.000288195
0.000300735
0.00031248
0.000323052
0.000331996
0.00033877
0.000342722
0.00034307
0.000338877
0.000329061
0.000312404
0.00028755
0.000252996
0.000207119
0.000148291
7.50953e-05
-1.33698e-05
-0.000117176
-0.000235203
-0.000364563
-0.000499853
-0.000633296
-0.000756605
-0.000852592
-0.00091091
-0.00092468
-0.000905116
-0.000883197
-0.000896473
-0.000965447
-0.00107926
-0.00120279
-0.00129121
-0.00130926
-0.00123326
-0.00105102
-0.000754239
-0.000334402
0.000213712
0.000890318
0.00169165
0.00260659
0.00361155
0.00467193
0.00574934
0.00680728
0.00781257
0.00873617
0.00955295
0.0102485
0.0108115
0.0112374
0.011526
0.0116812
0.01171
0.0116214
0.0114261
0.0111357
0.010762
0.0103161
0.00980319
0.00924791
0.00864991
0.00801313
0.00733358
0.00660272
0.00580955
0.0049375
0.00398566
0.00293759
0.00179618
0.000574657
-0.000701091
-0.00199259
-0.00325157
-0.00442511
-0.00546207
-0.0063192
-0.00696552
-0.00738527
-0.00758031
-0.00757028
-0.00738678
-0.00706269
-0.00662679
-0.00610705
-0.00552831
-0.00491277
-0.00428828
-0.00369404
-0.00317333
-0.00275682
-0.00244842
-0.00222171
-0.00203198
-0.00184033
-0.00163057
-0.00140571
-0.00117556
-0.000950056
-0.000737798
-0.000544887
-0.000374504
-0.000227568
-0.000103505
-7.65297e-07
8.27324e-05
0.00014927
0.000201127
0.000240462
0.000269248
0.000289242
0.000301981
0.000308796
0.000310823
0.000309025
0.000304214
0.00029707
0.000288157
0.000277941
0.000266809
0.000255073
0.000242988
0.000230759
0.000218549
0.000206487
0.000194674
0.000183184
0.000172075
0.000161386
0.000151144
0.000141364
0.000132055
0.000123218
0.000114846
0.000106931
9.94613e-05
9.24166e-05
8.57921e-05
7.95615e-05
7.37062e-05
6.82067e-05
6.3043e-05
5.81956e-05
5.36452e-05
4.93729e-05
4.53601e-05
4.1589e-05
3.80422e-05
3.4703e-05
3.15556e-05
2.85846e-05
2.57752e-05
2.31137e-05
2.05866e-05
1.81813e-05
1.58859e-05
1.3689e-05
1.15794e-05
9.54866e-06
7.57992e-06
5.68993e-06
3.74953e-06
4.27377e-05
4.29627e-05
4.3461e-05
4.4211e-05
4.52201e-05
4.64893e-05
4.80245e-05
4.98339e-05
5.19262e-05
5.43108e-05
5.69985e-05
6.0001e-05
6.33315e-05
6.70042e-05
7.10343e-05
7.54378e-05
8.02326e-05
8.54359e-05
9.10657e-05
9.71404e-05
0.000103678
0.000110698
0.000118215
0.000126246
0.000134804
0.0001439
0.000153539
0.000163724
0.00017445
0.000185703
0.000197461
0.000209687
0.000222329
0.000235316
0.000248556
0.000261925
0.000275266
0.000288385
0.000301038
0.000312921
0.00032366
0.000332803
0.000339816
0.000344054
0.000344739
0.000340934
0.000331556
0.000315385
0.000291062
0.000257068
0.000211734
0.000153353
8.04048e-05
-8.12832e-06
-0.000112415
-0.000231448
-0.000362679
-0.000501396
-0.000639904
-0.000767104
-0.000864536
-0.00091886
-0.00092385
-0.000891597
-0.000857146
-0.000864206
-0.000936775
-0.00106231
-0.00120031
-0.00130486
-0.00133446
-0.00126636
-0.00109056
-0.000799462
-0.000383875
0.000161864
0.000838195
0.0016424
0.00256444
0.00358025
0.00465342
0.00574398
0.00681462
0.00783171
0.00876538
0.00959059
0.0102917
0.0108579
0.0112848
0.0115728
0.0117262
0.0117522
0.01166
0.0114604
0.0111658
0.0107894
0.0103439
0.00983803
0.00928904
0.00869768
0.00806426
0.00738639
0.00665671
0.00586454
0.00500065
0.00403633
0.00298062
0.00182824
0.000590853
-0.000705024
-0.00201945
-0.00330204
-0.0044974
-0.00555211
-0.0064212
-0.00707266
-0.00749018
-0.00767621
-0.00765265
-0.00745388
-0.00711469
-0.0066651
-0.00613323
-0.00554353
-0.00491637
-0.00427826
-0.00367047
-0.0031406
-0.00272291
-0.002422
-0.00220788
-0.00202955
-0.0018437
-0.00163436
-0.00140721
-0.00117402
-0.000945705
-0.000731354
-0.000537236
-0.000366398
-0.000219559
-9.59605e-05
6.102e-06
8.88271e-05
0.000154574
0.000205672
0.000244306
0.000272462
0.0002919
0.000304158
0.00031056
0.000312235
0.00031014
0.000305081
0.00029773
0.000288645
0.000278289
0.000267041
0.000255211
0.00024305
0.00023076
0.000218503
0.000206404
0.000194562
0.000183051
0.000171927
0.000161228
0.00015098
0.000141199
0.000131891
0.000123056
0.00011469
0.000106781
9.93182e-05
9.22822e-05
8.56629e-05
7.9437e-05
7.3586e-05
6.80906e-05
6.29317e-05
5.80896e-05
5.35446e-05
4.92779e-05
4.52708e-05
4.15053e-05
3.7964e-05
3.46304e-05
3.14882e-05
2.85223e-05
2.5718e-05
2.30612e-05
2.05386e-05
1.81377e-05
1.58464e-05
1.36534e-05
1.15474e-05
9.52029e-06
7.5545e-06
5.66689e-06
3.73045e-06
4.26253e-05
4.28497e-05
4.33471e-05
4.40956e-05
4.51025e-05
4.63688e-05
4.79007e-05
4.97061e-05
5.17939e-05
5.41736e-05
5.68557e-05
5.98524e-05
6.31767e-05
6.68428e-05
7.08661e-05
7.52625e-05
8.00495e-05
8.52447e-05
9.08662e-05
9.69328e-05
0.000103463
0.000110475
0.000117986
0.000126011
0.000134565
0.000143658
0.000153297
0.000163485
0.000174217
0.000185482
0.000197257
0.000209508
0.000222183
0.000235215
0.000248512
0.000261954
0.000275386
0.000288619
0.000301412
0.000313468
0.000324414
0.000333805
0.000341115
0.00034571
0.000346816
0.000343497
0.000334667
0.000319105
0.000295449
0.000262159
0.000217515
0.000159712
8.7102e-05
-1.48247e-06
-0.000106398
-0.000226886
-0.000360621
-0.00050286
-0.00064556
-0.000776943
-0.000879299
-0.000936588
-0.000939339
-0.000898308
-0.000852823
-0.000854465
-0.000931955
-0.00107087
-0.00122583
-0.00134344
-0.00138173
-0.001318
-0.00114461
-0.000855101
-0.000439575
0.000108035
0.000788214
0.0015995
0.00253321
0.00356449
0.00465443
0.00576089
0.0068457
0.00787473
0.00881746
0.00964901
0.0103535
0.0109208
0.0113469
0.0116326
0.0117826
0.0118042
0.011707
0.0115019
0.0112014
0.0108182
0.010365
0.00985187
0.00929412
0.00869698
0.00806183
0.00738642
0.00666251
0.0058777
0.00501618
0.00406461
0.00301246
0.00185868
0.000614439
-0.000693844
-0.00202522
-0.00332733
-0.00454225
-0.00561403
-0.00649575
-0.00715397
-0.00757147
-0.00775097
-0.00771677
-0.00750637
-0.00715617
-0.00669646
-0.00615529
-0.00555626
-0.00491716
-0.00426324
-0.00363888
-0.00309764
-0.00267875
-0.00238793
-0.00219055
-0.00202717
-0.00184864
-0.00163954
-0.00140924
-0.00117209
-0.000940157
-0.000723163
-0.000527549
-0.000356171
-0.000209483
-8.64913e-05
1.4705e-05
9.64508e-05
0.000161201
0.000211344
0.000249099
0.000276466
0.000295211
0.000306868
0.000312754
0.000313991
0.000311527
0.000306158
0.000298549
0.00028925
0.000278718
0.000267326
0.000255379
0.000243124
0.00023076
0.000218443
0.000206298
0.000194421
0.000182884
0.000171741
0.000161029
0.000150773
0.000140987
0.000131678
0.000122844
0.00011448
0.000106575
9.91173e-05
9.20891e-05
8.54775e-05
7.92612e-05
7.34204e-05
6.79356e-05
6.2787e-05
5.79548e-05
5.34193e-05
4.91617e-05
4.51632e-05
4.14059e-05
3.78726e-05
3.45464e-05
3.14113e-05
2.84521e-05
2.56541e-05
2.30033e-05
2.04865e-05
1.80909e-05
1.58046e-05
1.36164e-05
1.15148e-05
9.49185e-06
7.52982e-06
5.64543e-06
3.7128e-06
4.24906e-05
4.27143e-05
4.32105e-05
4.3957e-05
4.49613e-05
4.62244e-05
4.77524e-05
4.95533e-05
5.16359e-05
5.40098e-05
5.66855e-05
5.96751e-05
6.29918e-05
6.66497e-05
7.06642e-05
7.50514e-05
7.98288e-05
8.50143e-05
9.06261e-05
9.6683e-05
0.000103204
0.000110207
0.00011771
0.000125728
0.000134276
0.000143366
0.000153005
0.000163196
0.000173937
0.000185215
0.000197011
0.000209291
0.000222006
0.000235091
0.000248457
0.000261985
0.000275526
0.000288894
0.000301856
0.000314117
0.000325311
0.000334998
0.000342663
0.000347685
0.000349296
0.000346561
0.000338388
0.000323558
0.000300708
0.000268277
0.000224481
0.000167397
9.52152e-05
6.59051e-06
-9.90181e-05
-0.000221072
-0.000357561
-0.000504156
-0.000652998
-0.000791423
-0.000900161
-0.000958834
-0.000953938
-0.000895893
-0.000830892
-0.000821742
-0.000903642
-0.00105939
-0.00123581
-0.00137364
-0.00142598
-0.00137071
-0.00120374
-0.000920049
-0.000508446
3.7766e-05
0.000719123
0.001536
0.00248174
0.00353058
0.00464037
0.0057663
0.00686916
0.00791422
0.00887007
0.00971144
0.0104222
0.0109927
0.0114194
0.0117036
0.0118503
0.0118675
0.0117647
0.0115534
0.0112462
0.0108569
0.0103987
0.0098836
0.0093254
0.00873026
0.00809907
0.00742894
0.00671121
0.00593263
0.00507753
0.00412605
0.00307036
0.00190683
0.000645609
-0.000686579
-0.00204702
-0.0033804
-0.0046252
-0.00572204
-0.00662146
-0.00728831
-0.00770428
-0.00787259
-0.00782096
-0.00759148
-0.00722305
-0.00674654
-0.00619042
-0.00557748
-0.00492212
-0.00424737
-0.00360133
-0.00304511
-0.00262434
-0.00234622
-0.00217016
-0.00202559
-0.00185579
-0.00164646
-0.00141193
-0.00116977
-0.000933343
-0.000713134
-0.000515748
-0.000343764
-0.0001973
-7.50748e-05
2.50535e-05
0.000105605
0.000169147
0.000218137
0.000254833
0.000281253
0.000299166
0.000310102
0.000315371
0.000316084
0.000313179
0.00030744
0.000299523
0.000289969
0.000279228
0.000267664
0.000255578
0.00024321
0.000230756
0.000218369
0.000206169
0.00019425
0.000182682
0.000171517
0.00016079
0.000150525
0.000140736
0.000131426
0.000122596
0.000114237
0.000106341
9.88913e-05
9.18731e-05
8.52706e-05
7.90637e-05
7.32325e-05
6.77572e-05
6.26182e-05
5.77954e-05
5.32694e-05
4.90212e-05
4.50319e-05
4.12836e-05
3.7759e-05
3.44413e-05
3.13144e-05
2.8363e-05
2.55724e-05
2.29288e-05
2.04188e-05
1.80297e-05
1.57495e-05
1.35671e-05
1.14709e-05
9.45315e-06
7.49583e-06
5.61562e-06
3.68739e-06
4.23336e-05
4.25565e-05
4.30512e-05
4.37955e-05
4.47968e-05
4.60562e-05
4.75795e-05
4.93751e-05
5.14516e-05
5.38186e-05
5.64867e-05
5.9468e-05
6.27757e-05
6.64241e-05
7.04285e-05
7.48052e-05
7.95717e-05
8.47459e-05
9.03463e-05
9.63919e-05
0.000102902
0.000109894
0.000117387
0.000125398
0.00013394
0.000143026
0.000152665
0.000162859
0.000173608
0.000184903
0.000196722
0.000209036
0.000221797
0.000234942
0.000248387
0.000262016
0.000275683
0.000289208
0.000302364
0.000314864
0.000326346
0.000336377
0.000344454
0.000349972
0.000352173
0.000350119
0.000342714
0.00032874
0.000306836
0.000275421
0.000232638
0.000176426
0.000104789
1.6174e-05
-9.01885e-05
-0.000214065
-0.000353859
-0.000505618
-0.000661449
-0.00080777
-0.000923711
-0.000984902
-0.000972951
-0.000896951
-0.000810826
-0.000791173
-0.000880893
-0.00105872
-0.00126203
-0.00142243
-0.00148899
-0.00144093
-0.00127888
-0.00099964
-0.000590184
-4.32299e-05
0.000641472
0.00146663
0.00242826
0.00349933
0.00463345
0.00578249
0.00690617
0.00796924
0.00893932
0.00979071
0.0105073
0.0110803
0.0115064
0.0117878
0.0119299
0.0119411
0.0118312
0.0116121
0.0112966
0.0108989
0.0104327
0.00991103
0.00934726
0.00874896
0.008118
0.00745156
0.00674059
0.00597054
0.00512303
0.00417899
0.00312477
0.0019554
0.000679949
-0.000674717
-0.00206411
-0.00342969
-0.00470589
-0.00582944
-0.00674799
-0.00742446
-0.007839
-0.00799515
-0.00792469
-0.00767539
-0.00728868
-0.00679544
-0.00622468
-0.00559824
-0.00492566
-0.00422691
-0.00355491
-0.00298055
-0.00255765
-0.00229568
-0.00214657
-0.00202536
-0.00186578
-0.00165545
-0.00141538
-0.001167
-0.000925151
-0.000701144
-0.000501726
-0.000329097
-0.000182957
-6.16792e-05
3.71634e-05
0.000116294
0.000178409
0.000226044
0.0002615
0.000286813
0.000303756
0.000313853
0.000318404
0.000318508
0.00031509
0.000308922
0.000300647
0.000290798
0.000279813
0.00026805
0.000255803
0.000243305
0.000230747
0.000218278
0.000206015
0.000194048
0.000182445
0.000171254
0.00016051
0.000150234
0.00014044
0.000131129
0.000122301
0.000113948
0.000106058
9.86177e-05
9.16102e-05
8.50189e-05
7.88241e-05
7.30057e-05
6.75435e-05
6.24174e-05
5.76073e-05
5.30938e-05
4.88576e-05
4.48799e-05
4.11428e-05
3.76289e-05
3.43214e-05
3.12043e-05
2.82622e-05
2.54805e-05
2.28453e-05
2.03432e-05
1.79617e-05
1.56886e-05
1.35128e-05
1.1423e-05
9.4111e-06
7.4592e-06
5.58389e-06
3.66041e-06
4.21542e-05
4.23764e-05
4.28694e-05
4.36112e-05
4.4609e-05
4.5864e-05
4.73822e-05
4.91716e-05
5.12412e-05
5.36003e-05
5.62598e-05
5.92317e-05
6.25292e-05
6.61666e-05
7.01595e-05
7.45241e-05
7.92779e-05
8.44391e-05
9.00264e-05
9.6059e-05
0.000102556
0.000109537
0.000117019
0.00012502
0.000133554
0.000142636
0.000152274
0.000162473
0.000173232
0.000184543
0.00019639
0.000208741
0.000221553
0.000234768
0.000248302
0.000262045
0.000275854
0.000289556
0.000302934
0.000315706
0.000327514
0.000337934
0.000346479
0.000352562
0.000355437
0.000354162
0.000347635
0.00033464
0.000313826
0.000283594
0.000242006
0.000186838
0.000115874
2.73238e-05
-7.98304e-05
-0.000205677
-0.000349091
-0.000506672
-0.000670776
-0.000827138
-0.000952761
-0.00101806
-0.00099759
-0.000897966
-0.000783045
-0.000747708
-0.000845032
-0.00104851
-0.00128355
-0.00147135
-0.00155507
-0.00151568
-0.0013603
-0.00108786
-0.000682569
-0.000136484
0.000550018
0.00138283
0.00236173
0.00345812
0.00462018
0.00579575
0.00694353
0.00802779
0.00901488
0.0098784
0.0106025
0.0111788
0.011605
0.0118836
0.0120209
0.0120256
0.0119081
0.0116804
0.0113558
0.010949
0.0104746
0.00994689
0.00937935
0.00878047
0.00815261
0.00749263
0.00679071
0.00603081
0.00519264
0.0042542
0.00319921
0.00202022
0.000724949
-0.000659498
-0.00208637
-0.00349308
-0.004809
-0.00596607
-0.00690851
-0.00759693
-0.00800954
-0.0081501
-0.00805567
-0.0077814
-0.00737179
-0.00685747
-0.00626857
-0.0056261
-0.0049331
-0.00420508
-0.00350096
-0.00290388
-0.002478
-0.00223592
-0.00212032
-0.00202764
-0.00187958
-0.001667
-0.00141972
-0.00116376
-0.000915458
-0.000687052
-0.000485368
-0.000312089
-0.000166403
-4.62785e-05
5.10431e-05
0.000128515
0.000188977
0.000235052
0.000269086
0.000293133
0.000308968
0.000318109
0.000321842
0.000321254
0.000317252
0.000310596
0.000301916
0.000291731
0.00028047
0.000268482
0.000256052
0.000243407
0.000230732
0.000218171
0.000205836
0.000193814
0.00018217
0.000170951
0.000160188
0.000149901
0.000140101
0.00013079
0.000121966
0.00011362
0.00010574
9.83109e-05
9.1316e-05
8.47379e-05
7.85566e-05
7.27518e-05
6.73033e-05
6.21908e-05
5.73943e-05
5.28941e-05
4.86708e-05
4.47059e-05
4.09811e-05
3.74791e-05
3.4183e-05
3.10768e-05
2.81452e-05
2.53735e-05
2.27478e-05
2.02549e-05
1.78819e-05
1.5617e-05
1.3449e-05
1.13663e-05
9.36122e-06
7.41562e-06
5.54603e-06
3.62798e-06
4.19528e-05
4.21741e-05
4.2665e-05
4.3404e-05
4.4398e-05
4.56481e-05
4.71604e-05
4.8943e-05
5.10047e-05
5.3355e-05
5.60047e-05
5.8966e-05
6.2252e-05
6.58771e-05
6.98569e-05
7.42078e-05
7.89474e-05
8.4094e-05
8.96665e-05
9.56843e-05
0.000102167
0.000109134
0.000116604
0.000124594
0.00013312
0.000142196
0.000151833
0.000162036
0.000172805
0.000184136
0.000196012
0.000208405
0.000221275
0.000234566
0.0002482
0.000262069
0.000276037
0.000289936
0.000303561
0.000316637
0.000328809
0.000339663
0.00034873
0.000355447
0.00035908
0.000358683
0.000353144
0.000341252
0.000321673
0.000292798
0.000252596
0.000198661
0.000128522
4.01245e-05
-6.78183e-05
-0.000195766
-0.000343185
-0.000507391
-0.000681114
-0.000849413
-0.000986791
-0.0010576
-0.00102754
-0.00089941
-0.000749335
-0.000695581
-0.000803771
-0.00103972
-0.00131355
-0.00153374
-0.00163625
-0.00160493
-0.00145589
-0.00119062
-0.000789224
-0.000243261
0.000445574
0.00128736
0.00228692
0.00341359
0.00460851
0.00581464
0.00698984
0.00809804
0.00910411
0.0099808
0.0107126
0.0112922
0.0117177
0.0119927
0.0121241
0.0121212
0.0119945
0.0117566
0.0114213
0.0110036
0.0105192
0.00998333
0.00941005
0.00880883
0.00818283
0.00752894
0.00683669
0.00608855
0.00526176
0.00433174
0.0032782
0.00209069
0.000775116
-0.000641243
-0.00210913
-0.00356133
-0.00492136
-0.00611562
-0.00708452
-0.00778615
-0.00819619
-0.00831827
-0.00819596
-0.00789374
-0.00745928
-0.00692221
-0.00631432
-0.00565596
-0.00494129
-0.00417947
-0.00343702
-0.00281247
-0.00238292
-0.00216549
-0.00209152
-0.00203353
-0.00189819
-0.00168157
-0.00142506
-0.00115995
-0.000904084
-0.000670671
-0.00046652
-0.000292624
-0.00014756
-2.88247e-05
6.67183e-05
0.000142279
0.000200853
0.000245156
0.000277581
0.0003002
0.00031479
0.000322857
0.000325675
0.00032431
0.000319657
0.000312456
0.000303322
0.000292763
0.000281195
0.000268956
0.000256321
0.000243513
0.000230707
0.000218043
0.000205629
0.000193547
0.000181858
0.000170607
0.000159823
0.000149524
0.000139718
0.000130407
0.000121587
0.000113248
0.000105378
9.79616e-05
9.09806e-05
8.44172e-05
7.82514e-05
7.24625e-05
6.70302e-05
6.19339e-05
5.71533e-05
5.26686e-05
4.84606e-05
4.45103e-05
4.07997e-05
3.73113e-05
3.40283e-05
3.09346e-05
2.80148e-05
2.52545e-05
2.26396e-05
2.01569e-05
1.77937e-05
1.55379e-05
1.33785e-05
1.1304e-05
9.30647e-06
7.3679e-06
5.50476e-06
3.59267e-06
4.17292e-05
4.19495e-05
4.24383e-05
4.31741e-05
4.41638e-05
4.54085e-05
4.69143e-05
4.86893e-05
5.07422e-05
5.30828e-05
5.57216e-05
5.8671e-05
6.19442e-05
6.55557e-05
6.9521e-05
7.38566e-05
7.85804e-05
8.37106e-05
8.92666e-05
9.52679e-05
0.000101734
0.000108686
0.000116142
0.00012412
0.000132636
0.000141707
0.000151342
0.000161548
0.000172329
0.00018368
0.000195588
0.000208027
0.000220959
0.000234334
0.000248077
0.000262086
0.000276226
0.000290342
0.000304239
0.000317651
0.000330225
0.000341556
0.000351197
0.000358614
0.000363091
0.000363671
0.000359228
0.000348562
0.000330366
0.000303028
0.000264425
0.000211936
0.0001428
5.4664e-05
-5.40397e-05
-0.000184168
-0.000335877
-0.000507399
-0.0006921
-0.000874594
-0.00102671
-0.00110563
-0.00106532
-0.000902414
-0.000707949
-0.00063042
-0.000751238
-0.00102577
-0.00134527
-0.00160304
-0.00172607
-0.00170236
-0.00156014
-0.00130378
-0.000907373
-0.000362194
0.000327723
0.00117809
0.00220063
0.003362
0.00459432
0.0058347
0.00704055
0.00817573
0.00920317
0.0100946
0.0108351
0.0114183
0.0118431
0.0121141
0.0122391
0.0122276
0.0120911
0.011842
0.0114947
0.011065
0.0105696
0.0100248
0.00944556
0.00884248
0.00821948
0.00757342
0.00689301
0.00615895
0.00534579
0.00442545
0.00337354
0.00217601
0.000836624
-0.000617229
-0.00213337
-0.00363909
-0.00505094
-0.00628876
-0.00728867
-0.00800599
-0.00841304
-0.00851282
-0.00835712
-0.00802236
-0.00755951
-0.00699625
-0.00636708
-0.00569223
-0.00495385
-0.00415223
-0.00336343
-0.00270519
-0.00227067
-0.00208341
-0.00206084
-0.00204474
-0.00192298
-0.00169973
-0.00143149
-0.00115547
-0.000890834
-0.000651813
-0.000445047
-0.000270618
-0.000126385
-9.30638e-06
8.41815e-05
0.000157567
0.000214014
0.000256332
0.000286963
0.000307997
0.000321205
0.000328084
0.000329889
0.000327669
0.000322295
0.000314493
0.000304861
0.00029389
0.000281982
0.000269467
0.000256608
0.00024362
0.000230671
0.000217894
0.000205393
0.000193245
0.000181507
0.000170222
0.000159415
0.000149102
0.000139291
0.000129981
0.000121166
0.000112836
0.000104978
9.75752e-05
9.061e-05
8.40632e-05
7.79147e-05
7.21434e-05
6.67287e-05
6.16499e-05
5.68867e-05
5.2419e-05
4.82274e-05
4.42932e-05
4.05982e-05
3.71248e-05
3.38561e-05
3.07761e-05
2.78695e-05
2.51218e-05
2.25188e-05
2.00475e-05
1.7695e-05
1.54495e-05
1.32996e-05
1.12341e-05
9.24508e-06
7.31438e-06
5.45844e-06
3.55299e-06
4.14836e-05
4.17029e-05
4.21893e-05
4.29216e-05
4.39066e-05
4.51453e-05
4.66439e-05
4.84105e-05
5.04539e-05
5.27836e-05
5.54105e-05
5.83469e-05
6.1606e-05
6.52024e-05
6.91517e-05
7.34705e-05
7.81767e-05
8.32889e-05
8.88266e-05
9.48097e-05
0.000101258
0.000108193
0.000115633
0.000123597
0.000132103
0.000141166
0.000150799
0.000161009
0.000171802
0.000183175
0.000195117
0.000207605
0.000220604
0.000234069
0.000247932
0.000262091
0.00027642
0.000290771
0.000304964
0.000318742
0.000331755
0.000343604
0.000353869
0.000362053
0.000367457
0.000369113
0.000365877
0.00035656
0.000339896
0.000314287
0.000277509
0.000226701
0.000158767
7.10311e-05
-3.83587e-05
-0.000170678
-0.000326903
-0.000506438
-0.000703615
-0.000902845
-0.00107318
-0.00116336
-0.00111218
-0.000906896
-0.000656923
-0.000549915
-0.000686862
-0.00100869
-0.00138309
-0.00168482
-0.00182982
-0.00181216
-0.00167664
-0.00143071
-0.00103969
-0.000495149
0.000194973
0.00105395
0.00210281
0.00330467
0.00457997
0.00585876
0.00709875
0.00826408
0.0093152
0.0102226
0.0109724
0.0115591
0.0119828
0.012249
0.0123665
0.0123455
0.0121976
0.0119359
0.0115751
0.0111317
0.0106235
0.0100681
0.00948172
0.008876
0.00825584
0.00761821
0.00695103
0.00623317
0.00543614
0.00452791
0.00347932
0.00227199
0.000906988
-0.000588337
-0.00215851
-0.0037245
-0.00519472
-0.0064814
-0.00751598
-0.00825093
-0.00865417
-0.0087272
-0.00853214
-0.00816065
-0.00766679
-0.00707464
-0.006423
-0.00573281
-0.00496995
-0.00412231
-0.00327816
-0.00257911
-0.0021381
-0.00198783
-0.00202888
-0.00206328
-0.00195554
-0.00172207
-0.00143906
-0.00115013
-0.000875394
-0.000630169
-0.000420693
-0.000245877
-0.000102741
1.23686e-05
0.000103489
0.00017441
0.000228471
0.00026858
0.000297224
0.000316507
0.000328197
0.000333773
0.000334469
0.000331313
0.000325154
0.000316697
0.000306521
0.000295101
0.000282825
0.000270009
0.000256907
0.000243724
0.000230619
0.000217721
0.000205125
0.000192906
0.000181116
0.000169794
0.000158963
0.000148636
0.000138819
0.00012951
0.0001207
0.000112381
0.000104536
9.71484e-05
9.02004e-05
8.3672e-05
7.75425e-05
7.17908e-05
6.63958e-05
6.13366e-05
5.65927e-05
5.2144e-05
4.79709e-05
4.40545e-05
4.03767e-05
3.69199e-05
3.36671e-05
3.06023e-05
2.77103e-05
2.49763e-05
2.23866e-05
1.99277e-05
1.75872e-05
1.53528e-05
1.32135e-05
1.1158e-05
9.17821e-06
7.25615e-06
5.40814e-06
3.50996e-06
4.12162e-05
4.14343e-05
4.19182e-05
4.26466e-05
4.36264e-05
4.48587e-05
4.63495e-05
4.81069e-05
5.01398e-05
5.24577e-05
5.50716e-05
5.79937e-05
6.12375e-05
6.48173e-05
6.87491e-05
7.30495e-05
7.77365e-05
8.2829e-05
8.83467e-05
9.43097e-05
0.000100739
0.000107655
0.000115077
0.000123026
0.00013152
0.000140575
0.000150204
0.000160418
0.000171222
0.000182619
0.000194598
0.000207138
0.000220208
0.00023377
0.000247761
0.000262083
0.000276612
0.000291215
0.000305729
0.000319904
0.000333392
0.000345797
0.000356733
0.000365749
0.000372167
0.000375
0.000373077
0.000365225
0.000350244
0.000326566
0.000291865
0.000243005
0.000176506
8.9335e-05
-2.06335e-05
-0.000155097
-0.000315976
-0.000504144
-0.000715297
-0.000934056
-0.00112681
-0.00123264
-0.00117065
-0.000914011
-0.00059454
-0.000450719
-0.000607817
-0.000986731
-0.00142608
-0.00177865
-0.00194651
-0.00193225