/*--------------------------------*- C++ -*----------------------------------*\
| =========                 |                                                 |
| \\      /  F ield         | OpenFOAM: The Open Source CFD Toolbox           |
|  \\    /   O peration     | Version:  v2006                                 |
|   \\  /    A nd           | Website:  www.openfoam.com                      |
|    \\/     M anipulation  |                                                 |
\*---------------------------------------------------------------------------*/
FoamFile
{
    version     2.0;
    format      ascii;
    class       volScalarField;
    location    "0";
    object      alpha.water;
}
// * * * * * * * * * * * * * * * * * * * * * * * * * * * * * * * * * * * * * //

dimensions      [0 0 0 0 0 0 0];


internalField   nonuniform List<scalar> 
67500
(
0.0501392
-0.0674259
-0.0969008
0.0806404
-0.0236251
0.0636929
0.132224
0.125484
-0.109697
-0.249535
-0.275245
-0.244417
-0.159443
-0.057814
0.0496229
0.117116
0.140127
0.0716629
-0.0480043
-0.161746
-0.150225
-0.0406265
0.013491
0.0149698
0.00837949
-0.00436268
-0.00994019
-0.00275495
0.0067856
0.0108043
0.0111729
0.0111729
0.0111729
0.0111729
0.0111729
0.0111729
0.0111729
0.0111729
0.0111729
0.0111729
0.0111729
0.0111729
0.0111729
0.0111729
0.0111729
0.0111729
0.0111729
0.0111729
0.0111729
0.0111729
0.0111729
0.0111729
0.0111729
0.0111729
0.0111729
0.0111729
0.0111729
0.0111729
0.0111729
0.0111729
0.0111729
0.0111729
0.0111729
0.0111729
0.0111729
0.0111729
0.0111729
0.0111729
0.0111729
0.0111729
0.0111729
0.0111729
0.0111729
0.0111729
0.0111729
0.0111729
0.0111729
0.0111729
0.0111729
0.0111729
0.0111729
0.0111729
0.0111729
0.0111729
0.0111729
0.0111729
0.0111729
0.0111729
0.0111729
0.0111729
0.0111729
0.0111729
0.0111729
0.0111729
0.0111729
0.0111729
0.0111729
0.0111729
0.0111729
0.0111729
0.0111729
0.0111729
0.0111729
0.0111729
0.0111729
0.0111729
0.0111729
0.0111729
0.0111729
0.0111729
0.0111729
0.0111729
0.0111729
0.0111729
0.0111729
0.0111729
0.0111729
0.0111729
0.0111729
0.0111729
0.0111729
0.0111729
0.0111729
0.0111729
0.0111729
0.0111729
0.0111729
0.0111729
0.0111729
0.0111729
0.0111729
0.0111729
0.0111729
0.0111729
0.0111729
0.0111729
0.0111729
0.0111729
0.0111729
0.0111729
0.0111729
0.0111729
0.0111729
0.0111729
0.0111729
0.0111729
0.0111729
0.0111729
0.0111729
0.0111729
0.0111729
0.0111729
0.0111729
0.0111729
0.0111729
0.0111729
0.0111729
0.0111729
0.0111729
0.0111729
0.0111729
0.0111729
0.0111729
0.0111729
0.0111729
0.0111729
0.0111729
0.0111729
0.0111729
0.0111729
0.0111729
0.0111729
0.0111729
0.0111729
0.0111729
0.0111729
0.0111729
0.0111729
0.0111729
0.0111729
0.0111729
0.0111729
0.0111729
0.0111729
0.0111729
0.0111729
0.0111729
0.0111729
0.0111729
0.0111729
0.0111729
0.0111729
0.0111729
0.0111729
0.0111729
0.0111729
0.0111729
0.0111729
0.0111729
0.0111729
0.0111729
0.0111729
0.0111729
0.0111729
0.0111729
0.0111729
0.0111729
0.0111729
0.0111729
0.0111729
0.0111729
0.0111729
0.0111729
0.0111729
0.0111729
0.0111729
0.0111729
0.0111729
0.0111729
0.0111729
0.0111729
0.0111729
0.0111729
0.0111729
0.0111729
0.0111729
0.0111729
0.0111729
0.0111729
0.0111729
0.0111729
0.0111729
0.0111729
0.0111729
0.0111729
0.0111729
0.0111729
0.0111729
0.0111729
0.0111729
0.0111729
0.0111729
0.0111729
0.0111729
0.0111729
0.0111729
0.0111729
0.0111729
0.0111729
0.0111729
0.0111729
0.0111729
0.0111729
0.0111729
0.0111729
0.0111729
0.0111729
0.0111729
0.0111729
0.0111729
0.0111729
0.0111729
0.0111729
0.0111729
0.0111729
0.0111729
0.0111729
0.0111729
0.0111729
0.0111729
0.0111729
0.0111729
0.0111729
0.0111729
0.0111729
0.0111729
0.0111729
0.0111729
0.0111729
0.0111729
0.0111729
0.0111729
0.0111729
0.0111729
0.0111729
0.0111729
0.0111729
0.0111729
0.0111729
0.0111729
0.0111729
0.0111729
0.0111729
0.0111729
0.0111729
0.0111729
0.0111729
0.0111729
0.0111729
0.0111729
0.0111729
0.0111729
0.0111729
0.0111729
0.0111729
0.0111729
0.0111729
0.0111729
0.0111729
0.0111729
0.0111729
0.0111729
0.0111729
0.0111729
0.0111729
0.0111729
0.0111729
0.0111729
0.0111729
0.0111729
0.0111729
0.0111729
0.0111729
0.0111729
0.0111729
0.0111729
0.0111729
0.0111729
0.0111729
0.0111729
0.0111729
0.0111729
0.0111729
0.0111729
0.0111729
0.0111729
0.0111729
0.0111729
0.0111729
0.0111729
0.0111729
0.0111729
0.0111729
0.0111729
0.0111729
0.0111729
0.0111729
0.0111729
0.0111729
0.0111729
0.0111729
0.0111729
0.0111729
0.0111729
0.0111729
0.0111729
0.0111729
0.0111729
0.0111729
0.0111729
0.0111729
0.0111729
0.0111729
0.0111729
0.0111729
0.0111729
0.0111729
0.0111729
0.0111729
0.0111729
0.0111729
0.0111729
0.0111729
0.0111729
0.0111729
0.0111729
0.0111729
0.0111729
0.0111729
0.0111729
0.0111729
0.0111729
0.0111729
0.0111729
0.0111729
0.0111729
0.0111729
0.0111729
0.0111729
0.0111729
0.0111729
0.0111729
0.0111729
0.0111729
0.0111729
0.0111729
0.0111729
0.0111729
0.0111729
0.0111729
0.0111729
0.0111729
0.0111729
0.0111729
0.0111729
0.0111729
0.0111729
0.0111729
0.0111729
0.0111729
0.0111729
0.0111729
0.0111729
0.0111729
0.0111729
0.0111729
0.0111729
0.0111729
0.0111729
0.0111729
0.0111729
0.0111729
0.0111729
0.0111729
0.0111729
0.0111729
0.0111729
0.0111729
0.0111729
0.0111729
0.0111729
0.0111729
0.0111729
0.0111729
0.0111729
0.0111729
0.0111729
0.0111729
0.0111729
0.0111729
0.0111729
0.0111729
0.0111729
0.0111729
0.0111729
0.0111729
0.0111729
0.0111729
0.0111729
0.0111729
0.0217902
-0.0340799
0.0701342
-0.105169
0.0439079
0.120484
0.012008
-0.0953038
-0.19952
-0.405886
-0.571729
-0.570199
-0.400799
-0.177314
-0.0919304
-0.013004
0.081428
0.155755
0.182049
0.15654
0.099383
0.0570404
0.0294585
0.0057692
-0.082035
-0.184419
-0.194693
-0.145174
-0.061961
0.0048307
0.0111729
0.0111729
0.0111729
0.0111729
0.0111729
0.0111729
0.0111729
0.01117
0.0111583
0.0111627
0.0111444
0.0110028
0.0108622
0.0108371
0.0109051
0.0110031
0.0109246
0.0105431
0.00990828
0.00921357
0.00867041
0.00841546
0.00846708
0.00873169
0.00911918
0.00954196
0.00993453
0.0102602
0.0105055
0.0106772
0.0107897
0.0108558
0.0108865
0.0108955
0.0109129
0.0109515
0.01101
0.011072
0.011122
0.0111541
0.0111683
0.0111728
0.0111729
0.0111729
0.0111729
0.0111729
0.0111729
0.0111729
0.0111729
0.0111729
0.0111729
0.0111729
0.0111729
0.0111729
0.0111729
0.0111729
0.0111729
0.0111729
0.0111729
0.0111729
0.0111729
0.0111729
0.0111729
0.0111729
0.0111729
0.0111729
0.0111729
0.0111729
0.0111729
0.0111729
0.0111729
0.0111729
0.0111729
0.0111729
0.0111729
0.0111729
0.0111729
0.0111729
0.0111729
0.0111729
0.0111729
0.0111729
0.0111729
0.0111729
0.0111729
0.0111729
0.0111729
0.0111729
0.0111729
0.0111729
0.0111729
0.0111729
0.0111729
0.0111729
0.0111729
0.0111729
0.0111729
0.0111729
0.0111729
0.0111729
0.0111729
0.0111729
0.0111729
0.0111729
0.0111729
0.0111729
0.0111729
0.0111729
0.0111729
0.0111729
0.0111729
0.0111729
0.0111729
0.0111729
0.0111729
0.0111729
0.0111729
0.0111729
0.0111729
0.0111729
0.0111729
0.0111729
0.0111729
0.0111729
0.0111729
0.0111729
0.0111729
0.0111729
0.0111729
0.0111729
0.0111729
0.0111729
0.0111729
0.0111729
0.0111729
0.0111729
0.0111729
0.0111729
0.0111729
0.0111729
0.0111729
0.0111729
0.0111729
0.0111729
0.0111729
0.0111729
0.0111729
0.0111729
0.0111729
0.0111729
0.0111729
0.0111729
0.0111729
0.0111729
0.0111729
0.0111729
0.0111729
0.0111729
0.0111729
0.0111729
0.0111729
0.0111729
0.0111729
0.0111729
0.0111729
0.0111729
0.0111729
0.0111729
0.0111729
0.0111729
0.0111729
0.0111729
0.0111729
0.0111729
0.0111729
0.0111729
0.0111729
0.0111729
0.0111729
0.0111729
0.0111729
0.0111729
0.0111729
0.0111729
0.0111729
0.0111729
0.0111729
0.0111729
0.0111729
0.0111729
0.0111729
0.0111729
0.0111729
0.0111729
0.0111729
0.0111729
0.0111729
0.0111729
0.0111729
0.0111729
0.0111729
0.0111729
0.0111729
0.0111729
0.0111729
0.0111729
0.0111729
0.0111729
0.0111729
0.0111729
0.0111729
0.0111729
0.0111729
0.0111729
0.0111729
0.0111729
0.0111729
0.0111729
0.0111729
0.0111729
0.0111729
0.0111729
0.0111729
0.0111729
0.0111729
0.0111729
0.0111729
0.0111729
0.0111729
0.0111729
0.0111729
0.0111729
0.0111729
0.0111729
0.0111729
0.0111729
0.0111729
0.0111729
0.0111729
0.0111729
0.0111729
0.0111729
0.0111729
0.0111729
0.0111729
0.0111729
0.0111729
0.0111729
0.0111729
0.0111729
0.0111729
0.0111729
0.0111729
0.0111729
0.0111729
0.0111729
0.0111729
0.0111729
0.0111729
0.0111729
0.0111729
0.0111729
0.0111729
0.0111729
0.0111729
0.0111729
0.0111729
0.0111729
0.0111729
0.0111729
0.0111729
0.0111729
0.0111729
0.0111729
0.0111729
0.0111729
0.0111729
0.0111729
0.0111729
0.0111729
0.0111729
0.0111729
0.0111729
0.0111729
0.0111729
0.0111729
0.0111729
0.0111729
0.0111729
0.0111729
0.0111729
0.0111729
0.0111729
0.0111729
0.0111729
0.0111729
0.0111729
0.0111729
0.0111729
0.0111729
0.0111729
0.0111729
0.0111729
0.0111729
0.0111729
0.0111729
0.0111729
0.0111729
0.0111729
0.0111729
0.0111729
0.0111729
0.0111729
0.0111729
0.0111729
0.0111729
0.0111729
0.0111729
0.0111729
0.0111729
0.0111729
0.0111729
0.0111729
0.0111729
0.0111729
0.0111729
0.0111729
0.0111729
0.0111729
0.0111729
0.0111729
0.0111729
0.0111729
0.0111729
0.0111729
0.0111729
0.0111729
0.0111729
0.0111729
0.0111729
0.0111729
0.0111729
0.0111729
0.0111729
0.0111729
0.0111729
0.0111729
0.0111729
0.0111729
0.0111729
0.0111729
0.0111729
0.0111729
0.0111729
0.0111729
0.0111729
0.0111729
0.0111729
0.0111729
0.0111729
0.0111729
0.0111729
0.0111729
0.0111729
0.0111729
0.0111729
0.0111729
0.0111729
0.0111729
0.0111729
0.0111729
0.0111729
0.0111729
0.0111729
0.0111729
0.0111729
0.0111729
0.0111729
0.0111729
0.0111729
0.0111729
0.0111729
0.0111729
0.0111729
0.0111729
0.0111729
0.0111729
0.0111729
0.0111729
0.0111729
0.0111729
0.0111729
0.0111729
0.0111729
0.0111729
0.0111729
0.0111729
0.0111729
0.0111729
0.0111729
0.0111729
0.0111729
0.0111729
0.0111729
0.0111729
0.0111729
0.0111729
0.0111729
0.0111729
0.0111729
0.0111729
0.0111729
0.0111729
0.0111729
0.0111729
0.0111729
0.0111729
0.0111729
0.0111729
0.0111729
-0.0327698
-0.0661277
-0.0205515
0.0478676
0.0223059
-0.0265078
-0.00301997
0.140667
-0.0638395
-0.189973
-0.232893
-0.24154
-0.18369
-0.103014
-0.000453289
0.0869472
0.117509
0.112846
0.106657
0.093339
0.023696
-0.100787
-0.188652
-0.214659
-0.18985
-0.122084
-0.0320622
0.00856141
0.0111729
0.0111729
0.0140601
0.017338
0.010047
-0.000671539
-0.0083314
-0.0167894
-0.0316562
-0.0381038
-0.032904
-0.0282557
-0.028939
-0.0312957
-0.0294991
-0.0242649
-0.0195841
-0.0208386
-0.0316268
-0.0498867
-0.0691671
-0.0835898
-0.0914148
-0.0936497
-0.0921815
-0.0883716
-0.0832538
-0.0778602
-0.0730876
-0.0696053
-0.0677055
-0.0671943
-0.067658
-0.0685441
-0.0694904
-0.0697664
-0.0686742
-0.065925
-0.0618179
-0.0572095
-0.0527072
-0.0487723
-0.045609
-0.0432296
-0.0412392
-0.0396307
-0.0378673
-0.0359655
-0.0335002
-0.0304168
-0.0264747
-0.0219114
-0.0171206
-0.0124712
-0.00820694
-0.00443179
-0.00115715
0.00164876
0.00402035
0.00598515
0.00756548
0.00879628
0.00971445
0.0103603
0.0107749
0.0110128
0.0111295
0.0111685
0.0111729
0.0111729
0.0111729
0.0111729
0.0111729
0.0111729
0.0111729
0.0111729
0.0111729
0.0111729
0.0111729
0.0111729
0.0111729
0.0111729
0.0111729
0.0111729
0.0111729
0.0111729
0.0111729
0.0111729
0.0111729
0.0111729
0.0111729
0.0111729
0.0111729
0.0111729
0.0111729
0.0111729
0.0111729
0.0111729
0.0111729
0.0111729
0.0111729
0.0111729
0.0111729
0.0111729
0.0111729
0.0111729
0.0111729
0.0111729
0.0111729
0.0111729
0.0111729
0.0111729
0.0111729
0.0111729
0.0111729
0.0111729
0.0111729
0.0111729
0.0111729
0.0111729
0.0111729
0.0111729
0.0111729
0.0111729
0.0111729
0.0111729
0.0111729
0.0111729
0.0111729
0.0111729
0.0111729
0.0111729
0.0111729
0.0111729
0.0111729
0.0111729
0.0111729
0.0111729
0.0111729
0.0111729
0.0111729
0.0111729
0.0111729
0.0111729
0.0111729
0.0111729
0.0111729
0.0111729
0.0111729
0.0111729
0.0111729
0.0111729
0.0111729
0.0111729
0.0111729
0.0111729
0.0111729
0.0111729
0.0111729
0.0111729
0.0111729
0.0111729
0.0111729
0.0111729
0.0111729
0.0111729
0.0111729
0.0111729
0.0111729
0.0111729
0.0111729
0.0111729
0.0111729
0.0111729
0.0111729
0.0111729
0.0111729
0.0111729
0.0111729
0.0111729
0.0111729
0.0111729
0.0111729
0.0111729
0.0111729
0.0111729
0.0111729
0.0111729
0.0111729
0.0111729
0.0111729
0.0111729
0.0111729
0.0111729
0.0111729
0.0111729
0.0111729
0.0111729
0.0111729
0.0111729
0.0111729
0.0111729
0.0111729
0.0111729
0.0111729
0.0111729
0.0111729
0.0111729
0.0111729
0.0111729
0.0111729
0.0111729
0.0111729
0.0111729
0.0111729
0.0111729
0.0111729
0.0111729
0.0111729
0.0111729
0.0111729
0.0111729
0.0111729
0.0111729
0.0111729
0.0111729
0.0111729
0.0111729
0.0111729
0.0111729
0.0111729
0.0111729
0.0111729
0.0111729
0.0111729
0.0111729
0.0111729
0.0111729
0.0111729
0.0111729
0.0111729
0.0111729
0.0111729
0.0111729
0.0111729
0.0111729
0.0111729
0.0111729
0.0111729
0.0111729
0.0111729
0.0111729
0.0111729
0.0111729
0.0111729
0.0111729
0.0111729
0.0111729
0.0111729
0.0111729
0.0111729
0.0111729
0.0111729
0.0111729
0.0111729
0.0111729
0.0111729
0.0111729
0.0111729
0.0111729
0.0111729
0.0111729
0.0111729
0.0111729
0.0111729
0.0111729
0.0111729
0.0111729
0.0111729
0.0111729
0.0111729
0.0111729
0.0111729
0.0111729
0.0111729
0.0111729
0.0111729
0.0111729
0.0111729
0.0111729
0.0111729
0.0111729
0.0111729
0.0111729
0.0111729
0.0111729
0.0111729
0.0111729
0.0111729
0.0111729
0.0111729
0.0111729
0.0111729
0.0111729
0.0111729
0.0111729
0.0111729
0.0111729
0.0111729
0.0111729
0.0111729
0.0111729
0.0111729
0.0111729
0.0111729
0.0111729
0.0111729
0.0111729
0.0111729
0.0111729
0.0111729
0.0111729
0.0111729
0.0111729
0.0111729
0.0111729
0.0111729
0.0111729
0.0111729
0.0111729
0.0111729
0.0111729
0.0111729
0.0111729
0.0111729
0.0111729
0.0111729
0.0111729
0.0111729
0.0111729
0.0111729
0.0111729
0.0111729
0.0111729
0.0111729
0.0111729
0.0111729
0.0111729
0.0111729
0.0111729
0.0111729
0.0111729
0.0111729
0.0111729
0.0111729
0.0111729
0.0111729
0.0111729
0.0111729
0.0111729
0.0111729
0.0111729
0.0111729
0.0111729
0.0111729
0.0111729
0.0111729
0.0111729
0.0111729
0.0111729
0.0111729
0.0111729
0.0111729
0.0111729
0.0111729
0.0111729
0.0111729
0.0111729
0.0111729
0.0111729
0.0111729
0.0111729
0.0111729
0.0111729
0.0111729
0.0111729
0.0111729
0.0111729
0.0111729
0.0111729
0.0111729
0.0111729
0.0111729
0.0111729
0.0111729
0.0111729
0.0111729
0.0111729
0.0111729
0.0111729
0.0111729
0.0111729
0.0111729
0.0111729
0.0111729
0.0111729
0.0111729
0.0111729
0.0111729
0.0111729
0.0111729
0.0111729
0.0111729
0.0111729
0.0111729
0.0111729
0.0111729
0.0111729
0.0111729
0.0111729
0.0111729
0.0111729
-0.0733078
-0.12587
0.0452888
0.146592
0.132807
0.118633
-0.0774536
0.130388
0.185452
0.205073
0.213116
0.207591
0.188378
0.153831
0.11461
0.0294983
-0.0844707
-0.201089
-0.219322
-0.138451
-0.0124506
-0.0100551
-0.0289594
-0.0276852
-0.00261977
0.0249013
0.055782
0.0524668
0.0328689
0.103224
0.220044
0.0633575
-0.0819704
-0.110652
-0.0297503
0.0470696
0.0814625
0.0967721
0.107419
0.114497
0.118839
0.120152
0.118709
0.11494
0.109402
0.104123
0.101098
0.101905
0.105288
0.10899
0.110787
0.109679
0.105604
0.0989682
0.0902396
0.0799636
0.0686455
0.0568495
0.0451958
0.0341878
0.0242119
0.0151857
0.00654286
-0.00226709
-0.0125431
-0.0248624
-0.0392608
-0.0553344
-0.072604
-0.0902201
-0.107848
-0.124574
-0.140243
-0.154017
-0.166044
-0.175763
-0.183194
-0.187882
-0.190105
-0.1901
-0.187933
-0.183648
-0.177417
-0.169472
-0.159964
-0.149194
-0.137516
-0.125175
-0.11244
-0.0997152
-0.0872241
-0.0751551
-0.0640974
-0.0540619
-0.0452299
-0.0378347
-0.0313725
-0.0260628
-0.0215797
-0.0176972
-0.0139834
-0.0104454
-0.00715512
-0.00416859
-0.00147606
0.000992678
0.00328159
0.00537232
0.00718747
0.0086389
0.00970652
0.0104252
0.010863
0.011089
0.0111674
0.0111729
0.0111729
0.0111729
0.0111729
0.0111729
0.0111729
0.0111729
0.0111729
0.0111729
0.0111729
0.0111729
0.0111729
0.0111729
0.0111729
0.0111729
0.0111729
0.0111729
0.0111729
0.0111729
0.0111729
0.0111729
0.0111729
0.0111729
0.0111729
0.0111729
0.0111729
0.0111729
0.0111729
0.0111729
0.0111729
0.0111729
0.0111729
0.0111729
0.0111729
0.0111729
0.0111729
0.0111729
0.0111729
0.0111729
0.0111729
0.0111729
0.0111729
0.0111729
0.0111729
0.0111729
0.0111729
0.0111729
0.0111729
0.0111729
0.0111729
0.0111729
0.0111729
0.0111729
0.0111729
0.0111729
0.0111729
0.0111729
0.0111729
0.0111729
0.0111729
0.0111729
0.0111729
0.0111729
0.0111729
0.0111729
0.0111729
0.0111729
0.0111729
0.0111729
0.0111729
0.0111729
0.0111729
0.0111729
0.0111729
0.0111729
0.0111729
0.0111729
0.0111729
0.0111729
0.0111729
0.0111729
0.0111729
0.0111729
0.0111729
0.0111729
0.0111729
0.0111729
0.0111729
0.0111729
0.0111729
0.0111729
0.0111729
0.0111729
0.0111729
0.0111729
0.0111729
0.0111729
0.0111729
0.0111729
0.0111729
0.0111729
0.0111729
0.0111729
0.0111729
0.0111729
0.0111729
0.0111729
0.0111729
0.0111729
0.0111729
0.0111729
0.0111729
0.0111729
0.0111729
0.0111729
0.0111729
0.0111729
0.0111729
0.0111729
0.0111729
0.0111729
0.0111729
0.0111729
0.0111729
0.0111729
0.0111729
0.0111729
0.0111729
0.0111729
0.0111729
0.0111729
0.0111729
0.0111729
0.0111729
0.0111729
0.0111729
0.0111729
0.0111729
0.0111729
0.0111729
0.0111729
0.0111729
0.0111729
0.0111729
0.0111729
0.0111729
0.0111729
0.0111729
0.0111729
0.0111729
0.0111729
0.0111729
0.0111729
0.0111729
0.0111729
0.0111729
0.0111729
0.0111729
0.0111729
0.0111729
0.0111729
0.0111729
0.0111729
0.0111729
0.0111729
0.0111729
0.0111729
0.0111729
0.0111729
0.0111729
0.0111729
0.0111729
0.0111729
0.0111729
0.0111729
0.0111729
0.0111729
0.0111729
0.0111729
0.0111729
0.0111729
0.0111729
0.0111729
0.0111729
0.0111729
0.0111729
0.0111729
0.0111729
0.0111729
0.0111729
0.0111729
0.0111729
0.0111729
0.0111729
0.0111729
0.0111729
0.0111729
0.0111729
0.0111729
0.0111729
0.0111729
0.0111729
0.0111729
0.0111729
0.0111729
0.0111729
0.0111729
0.0111729
0.0111729
0.0111729
0.0111729
0.0111729
0.0111729
0.0111729
0.0111729
0.0111729
0.0111729
0.0111729
0.0111729
0.0111729
0.0111729
0.0111729
0.0111729
0.0111729
0.0111729
0.0111729
0.0111729
0.0111729
0.0111729
0.0111729
0.0111729
0.0111729
0.0111729
0.0111729
0.0111729
0.0111729
0.0111729
0.0111729
0.0111729
0.0111729
0.0111729
0.0111729
0.0111729
0.0111729
0.0111729
0.0111729
0.0111729
0.0111729
0.0111729
0.0111729
0.0111729
0.0111729
0.0111729
0.0111729
0.0111729
0.0111729
0.0111729
0.0111729
0.0111729
0.0111729
0.0111729
0.0111729
0.0111729
0.0111729
0.0111729
0.0111729
0.0111729
0.0111729
0.0111729
0.0111729
0.0111729
0.0111729
0.0111729
0.0111729
0.0111729
0.0111729
0.0111729
0.0111729
0.0111729
0.0111729
0.0111729
0.0111729
0.0111729
0.0111729
0.0111729
0.0111729
0.0111729
0.0111729
0.0111729
0.0111729
0.0111729
0.0111729
0.0111729
0.0111729
0.0111729
0.0111729
0.0111729
0.0111729
0.0111729
0.0111729
0.0111729
0.0111729
0.0111729
0.0111729
0.0111729
0.0111729
0.0111729
0.0111729
0.0111729
0.0111729
0.0111729
0.0111729
0.0111729
0.0111729
0.0111729
0.0111729
0.0111729
0.0111729
0.0111729
0.0111729
0.0111729
0.0111729
0.0111729
0.0111729
0.0111729
0.0111729
0.0111729
0.0111729
0.0111729
0.0111729
0.0111729
0.0111729
0.0111729
0.0111729
0.0111729
-0.0102164
-0.193239
0.182399
0.189849
0.211842
0.133048
-0.126543
-0.0843834
0.068905
0.0274323
0.00412555
0.0345537
0.084193
0.123039
0.140597
0.140547
0.143092
0.0750972
-0.204871
-0.282923
-0.103513
-0.0807271
0.258157
0.148844
0.092112
0.0531937
-0.00548524
-0.0137469
0.0741703
0.0484886
-0.124924
-0.168692
-0.176858
-0.179321
-0.173814
-0.16867
-0.164744
-0.160591
-0.155554
-0.148848
-0.140628
-0.130683
-0.119078
-0.106237
-0.0919926
-0.0777808
-0.0638684
-0.0509623
-0.0382168
-0.0250871
-0.0104633
0.00545365
0.0234909
0.0426064
0.0628087
0.0834296
0.103471
0.122941
0.141449
0.158416
0.173318
0.186029
0.196309
0.203484
0.207873
0.209202
0.207243
0.202237
0.194247
0.183073
0.169339
0.153044
0.13469
0.114435
0.0930703
0.0707709
0.0479697
0.0250811
0.00218328
-0.019928
-0.0413302
-0.0619222
-0.0813348
-0.0998115
-0.116751
-0.132405
-0.146557
-0.159456
-0.171193
-0.181425
-0.190595
-0.1984
-0.20503
-0.210243
-0.213837
-0.215693
-0.215944
-0.214362
-0.210861
-0.205635
-0.199105
-0.191468
-0.182785
-0.172983
-0.161879
-0.149049
-0.134687
-0.11912
-0.103125
-0.0875035
-0.072392
-0.0579519
-0.0445335
-0.0322992
-0.0215125
-0.0125087
-0.00537619
-0.000182418
0.00382549
0.00680288
0.00882829
0.0100943
0.0108032
0.0111036
0.0111729
0.0111729
0.0111729
0.0111729
0.0111729
0.0111729
0.0111729
0.0111729
0.0111729
0.0111729
0.0111729
0.0111729
0.0111729
0.0111729
0.0111729
0.0111729
0.0111729
0.0111729
0.0111729
0.0111729
0.0111729
0.0111729
0.0111729
0.0111729
0.0111729
0.0111729
0.0111729
0.0111729
0.0111729
0.0111729
0.0111729
0.0111729
0.0111729
0.0111729
0.0111729
0.0111729
0.0111729
0.0111729
0.0111729
0.0111729
0.0111729
0.0111729
0.0111729
0.0111729
0.0111729
0.0111729
0.0111729
0.0111729
0.0111729
0.0111729
0.0111729
0.0111729
0.0111729
0.0111729
0.0111729
0.0111729
0.0111729
0.0111729
0.0111729
0.0111729
0.0111729
0.0111729
0.0111729
0.0111729
0.0111729
0.0111729
0.0111729
0.0111729
0.0111729
0.0111729
0.0111729
0.0111729
0.0111729
0.0111729
0.0111729
0.0111729
0.0111729
0.0111729
0.0111729
0.0111729
0.0111729
0.0111729
0.0111729
0.0111729
0.0111729
0.0111729
0.0111729
0.0111729
0.0111729
0.0111729
0.0111729
0.0111729
0.0111729
0.0111729
0.0111729
0.0111729
0.0111729
0.0111729
0.0111729
0.0111729
0.0111729
0.0111729
0.0111729
0.0111729
0.0111729
0.0111729
0.0111729
0.0111729
0.0111729
0.0111729
0.0111729
0.0111729
0.0111729
0.0111729
0.0111729
0.0111729
0.0111729
0.0111729
0.0111729
0.0111729
0.0111729
0.0111729
0.0111729
0.0111729
0.0111729
0.0111729
0.0111729
0.0111729
0.0111729
0.0111729
0.0111729
0.0111729
0.0111729
0.0111729
0.0111729
0.0111729
0.0111729
0.0111729
0.0111729
0.0111729
0.0111729
0.0111729
0.0111729
0.0111729
0.0111729
0.0111729
0.0111729
0.0111729
0.0111729
0.0111729
0.0111729
0.0111729
0.0111729
0.0111729
0.0111729
0.0111729
0.0111729
0.0111729
0.0111729
0.0111729
0.0111729
0.0111729
0.0111729
0.0111729
0.0111729
0.0111729
0.0111729
0.0111729
0.0111729
0.0111729
0.0111729
0.0111729
0.0111729
0.0111729
0.0111729
0.0111729
0.0111729
0.0111729
0.0111729
0.0111729
0.0111729
0.0111729
0.0111729
0.0111729
0.0111729
0.0111729
0.0111729
0.0111729
0.0111729
0.0111729
0.0111729
0.0111729
0.0111729
0.0111729
0.0111729
0.0111729
0.0111729
0.0111729
0.0111729
0.0111729
0.0111729
0.0111729
0.0111729
0.0111729
0.0111729
0.0111729
0.0111729
0.0111729
0.0111729
0.0111729
0.0111729
0.0111729
0.0111729
0.0111729
0.0111729
0.0111729
0.0111729
0.0111729
0.0111729
0.0111729
0.0111729
0.0111729
0.0111729
0.0111729
0.0111729
0.0111729
0.0111729
0.0111729
0.0111729
0.0111729
0.0111729
0.0111729
0.0111729
0.0111729
0.0111729
0.0111729
0.0111729
0.0111729
0.0111729
0.0111729
0.0111729
0.0111729
0.0111729
0.0111729
0.0111729
0.0111729
0.0111729
0.0111729
0.0111729
0.0111729
0.0111729
0.0111729
0.0111729
0.0111729
0.0111729
0.0111729
0.0111729
0.0111729
0.0111729
0.0111729
0.0111729
0.0111729
0.0111729
0.0111729
0.0111729
0.0111729
0.0111729
0.0111729
0.0111729
0.0111729
0.0111729
0.0111729
0.0111729
0.0111729
0.0111729
0.0111729
0.0111729
0.0111729
0.0111729
0.0111729
0.0111729
0.0111729
0.0111729
0.0111729
0.0111729
0.0111729
0.0111729
0.0111729
0.0111729
0.0111729
0.0111729
0.0111729
0.0111729
0.0111729
0.0111729
0.0111729
0.0111729
0.0111729
0.0111729
0.0111729
0.0111729
0.0111729
0.0111729
0.0111729
0.0111729
0.0111729
0.0111729
0.0111729
0.0111729
0.0111729
0.0111729
0.0111729
0.0111729
0.0111729
0.0111729
0.0111729
0.0111729
0.0111729
0.0111729
0.0111729
0.0111729
0.0111729
0.0111729
0.0111729
0.0111729
0.0111729
0.0859483
-0.146556
0.210825
0.189572
0.224274
0.219148
0.0747483
-0.120484
-0.120115
-0.0664134
-0.135067
-0.160148
-0.153096
-0.111436
-0.0622068
0.00784678
-0.00164385
-0.174603
-0.408733
-0.47604
-0.31223
-0.230431
-0.168518
-0.156635
-0.144799
-0.138071
-0.138637
-0.120846
-0.0214372
-0.0856325
-0.14899
-0.153907
-0.159369
-0.165865
-0.173742
-0.182274
-0.191319
-0.200519
-0.209154
-0.217971
-0.225963
-0.234012
-0.241205
-0.247293
-0.252094
-0.254746
-0.255047
-0.252687
-0.247715
-0.239904
-0.229599
-0.216317
-0.201124
-0.182831
-0.162942
-0.141314
-0.117548
-0.092881
-0.0677235
-0.0418249
-0.0157499
0.0102269
0.0357597
0.0600747
0.0833018
0.105141
0.12489
0.143152
0.159246
0.173322
0.185534
0.195338
0.203448
0.209479
0.213508
0.215779
0.21617
0.214524
0.211119
0.205719
0.198453
0.18939
0.178193
0.165603
0.150763
0.134152
0.116047
0.0963266
0.0756084
0.0537184
0.0310614
0.00799766
-0.0154425
-0.0393547
-0.0630426
-0.0865974
-0.109566
-0.13088
-0.151317
-0.170295
-0.18738
-0.202793
-0.216061
-0.227301
-0.23614
-0.242605
-0.246632
-0.248274
-0.247286
-0.243561
-0.237479
-0.229084
-0.21816
-0.204981
-0.189825
-0.172542
-0.153448
-0.132651
-0.111582
-0.0909245
-0.0712123
-0.0527849
-0.0365243
-0.0226734
-0.0111553
-0.00256772
0.00330684
0.00689602
0.00916252
0.0104494
0.0110162
0.011171
0.0111729
0.0111729
0.0111729
0.0111729
0.0111729
0.0111729
0.0111729
0.0111729
0.0111729
0.0111729
0.0111729
0.0111729
0.0111729
0.0111729
0.0111729
0.0111729
0.0111729
0.0111729
0.0111729
0.0111729
0.0111729
0.0111729
0.0111729
0.0111729
0.0111729
0.0111729
0.0111729
0.0111729
0.0111729
0.0111729
0.0111729
0.0111729
0.0111729
0.0111729
0.0111729
0.0111729
0.0111729
0.0111729
0.0111729
0.0111729
0.0111729
0.0111729
0.0111729
0.0111729
0.0111729
0.0111729
0.0111729
0.0111729
0.0111729
0.0111729
0.0111729
0.0111729
0.0111729
0.0111729
0.0111729
0.0111729
0.0111729
0.0111729
0.0111729
0.0111729
0.0111729
0.0111729
0.0111729
0.0111729
0.0111729
0.0111729
0.0111729
0.0111729
0.0111729
0.0111729
0.0111729
0.0111729
0.0111729
0.0111729
0.0111729
0.0111729
0.0111729
0.0111729
0.0111729
0.0111729
0.0111729
0.0111729
0.0111729
0.0111729
0.0111729
0.0111729
0.0111729
0.0111729
0.0111729
0.0111729
0.0111729
0.0111729
0.0111729
0.0111729
0.0111729
0.0111729
0.0111729
0.0111729
0.0111729
0.0111729
0.0111729
0.0111729
0.0111729
0.0111729
0.0111729
0.0111729
0.0111729
0.0111729
0.0111729
0.0111729
0.0111729
0.0111729
0.0111729
0.0111729
0.0111729
0.0111729
0.0111729
0.0111729
0.0111729
0.0111729
0.0111729
0.0111729
0.0111729
0.0111729
0.0111729
0.0111729
0.0111729
0.0111729
0.0111729
0.0111729
0.0111729
0.0111729
0.0111729
0.0111729
0.0111729
0.0111729
0.0111729
0.0111729
0.0111729
0.0111729
0.0111729
0.0111729
0.0111729
0.0111729
0.0111729
0.0111729
0.0111729
0.0111729
0.0111729
0.0111729
0.0111729
0.0111729
0.0111729
0.0111729
0.0111729
0.0111729
0.0111729
0.0111729
0.0111729
0.0111729
0.0111729
0.0111729
0.0111729
0.0111729
0.0111729
0.0111729
0.0111729
0.0111729
0.0111729
0.0111729
0.0111729
0.0111729
0.0111729
0.0111729
0.0111729
0.0111729
0.0111729
0.0111729
0.0111729
0.0111729
0.0111729
0.0111729
0.0111729
0.0111729
0.0111729
0.0111729
0.0111729
0.0111729
0.0111729
0.0111729
0.0111729
0.0111729
0.0111729
0.0111729
0.0111729
0.0111729
0.0111729
0.0111729
0.0111729
0.0111729
0.0111729
0.0111729
0.0111729
0.0111729
0.0111729
0.0111729
0.0111729
0.0111729
0.0111729
0.0111729
0.0111729
0.0111729
0.0111729
0.0111729
0.0111729
0.0111729
0.0111729
0.0111729
0.0111729
0.0111729
0.0111729
0.0111729
0.0111729
0.0111729
0.0111729
0.0111729
0.0111729
0.0111729
0.0111729
0.0111729
0.0111729
0.0111729
0.0111729
0.0111729
0.0111729
0.0111729
0.0111729
0.0111729
0.0111729
0.0111729
0.0111729
0.0111729
0.0111729
0.0111729
0.0111729
0.0111729
0.0111729
0.0111729
0.0111729
0.0111729
0.0111729
0.0111729
0.0111729
0.0111729
0.0111729
0.0111729
0.0111729
0.0111729
0.0111729
0.0111729
0.0111729
0.0111729
0.0111729
0.0111729
0.0111729
0.0111729
0.0111729
0.0111729
0.0111729
0.0111729
0.0111729
0.0111729
0.0111729
0.0111729
0.0111729
0.0111729
0.0111729
0.0111729
0.0111729
0.0111729
0.0111729
0.0111729
0.0111729
0.0111729
0.0111729
0.0111729
0.0111729
0.0111729
0.0111729
0.0111729
0.0111729
0.0111729
0.0111729
0.0111729
0.0111729
0.0111729
0.0111729
0.0111729
0.0111729
0.0111729
0.0111729
0.0111729
0.0111729
0.0111729
0.0111729
0.0111729
0.0111729
0.0111729
0.0111729
0.0111729
0.0111729
0.0111729
0.0111729
0.0111729
0.0111729
0.0111729
0.0111729
0.0111729
0.0631805
-0.0631404
0.170219
0.136126
0.171414
0.230339
0.247156
0.17927
0.0945431
0.130282
0.12355
0.0988676
0.0752373
0.0461679
0.00558976
-0.0314724
-0.0461601
-0.0500865
-0.0226367
0.0417624
0.0709724
0.0913201
0.101249
0.106164
0.108438
0.108715
0.107096
0.106097
0.110269
0.0926211
0.0838501
0.073016
0.059979
0.0449718
0.0291937
0.010728
-0.00831685
-0.0286583
-0.0506712
-0.0729766
-0.096516
-0.119149
-0.141427
-0.16257
-0.18203
-0.200057
-0.216563
-0.230751
-0.242668
-0.252166
-0.258839
-0.262863
-0.264177
-0.262691
-0.25824
-0.251368
-0.242365
-0.230955
-0.217485
-0.202812
-0.186326
-0.16906
-0.150663
-0.130886
-0.110661
-0.089725
-0.0683877
-0.0465614
-0.0247324
-0.00191311
0.0205122
0.0434141
0.0660845
0.0878327
0.109195
0.129458
0.148184
0.16562
0.181208
0.194858
0.206688
0.215973
0.223062
0.227686
0.229745
0.229526
0.226595
0.221318
0.213292
0.202856
0.190321
0.175106
0.158391
0.139958
0.119439
0.0983316
0.0756904
0.0513426
0.0268277
0.00147109
-0.024098
-0.0492315
-0.0743768
-0.0983507
-0.121079
-0.143057
-0.163273
-0.181905
-0.199016
-0.213826
-0.226859
-0.237587
-0.245663
-0.251435
-0.254396
-0.254963
-0.252859
-0.2482
-0.240949
-0.230967
-0.21875
-0.204733
-0.188244
-0.169909
-0.149946
-0.128082
-0.105171
-0.0812133
-0.0588729
-0.0393381
-0.0230918
-0.010316
-0.000841256
0.00542649
0.00868095
0.0103128
0.0109944
0.0111719
0.0111729
0.0111729
0.0111729
0.0111729
0.0111729
0.0111729
0.0111729
0.0111729
0.0111729
0.0111729
0.0111729
0.0111729
0.0111729
0.0111729
0.0111729
0.0111729
0.0111729
0.0111729
0.0111729
0.0111729
0.0111729
0.0111729
0.0111729
0.0111729
0.0111729
0.0111729
0.0111729
0.0111729
0.0111729
0.0111729
0.0111729
0.0111729
0.0111729
0.0111729
0.0111729
0.0111729
0.0111729
0.0111729
0.0111729
0.0111729
0.0111729
0.0111729
0.0111729
0.0111729
0.0111729
0.0111729
0.0111729
0.0111729
0.0111729
0.0111729
0.0111729
0.0111729
0.0111729
0.0111729
0.0111729
0.0111729
0.0111729
0.0111729
0.0111729
0.0111729
0.0111729
0.0111729
0.0111729
0.0111729
0.0111729
0.0111729
0.0111729
0.0111729
0.0111729
0.0111729
0.0111729
0.0111729