/*--------------------------------*- C++ -*----------------------------------*\
| =========                 |                                                 |
| \\      /  F ield         | OpenFOAM: The Open Source CFD Toolbox           |
|  \\    /   O peration     | Version:  v2006                                 |
|   \\  /    A nd           | Website:  www.openfoam.com                      |
|    \\/     M anipulation  |                                                 |
\*---------------------------------------------------------------------------*/
FoamFile
{
    version     2.0;
    format      ascii;
    class       volScalarField;
    location    "2.5";
    object      r;
}
// * * * * * * * * * * * * * * * * * * * * * * * * * * * * * * * * * * * * * //

dimensions      [1 2 0 0 0 0 0];


internalField   nonuniform List<scalar> 
350
(
4.40074e-187
-1.22418e-183
3.31199e-180
-8.63179e-177
2.15773e-173
-5.17701e-170
1.19976e-166
-2.72037e-163
6.14992e-160
-1.41369e-156
3.33653e-153
-8.00344e-150
1.89174e-146
-4.19851e-143
8.09333e-140
-1.09905e-136
-3.0654e-134
9.53134e-130
-4.5518e-126
1.58106e-122
-4.58563e-119
1.14586e-115
-2.44251e-112
4.18157e-109
-4.48509e-106
-3.30575e-103
3.60851e-99
-1.28909e-95
3.51183e-92
-8.80448e-89
2.34845e-85
-7.05283e-82
2.19541e-78
-6.31742e-75
1.56082e-71
-3.14215e-68
4.78182e-65
-4.33086e-62
1.18775e-59
-1.96925e-55
2.15108e-51
-9.38309e-48
2.8235e-44
-3.41431e-41
6.56766e-38
3.18487e-34
1.06715e-30
6.83198e-27
3.37423e-23
1.75051e-19
-6.71163e-17
1.05247e-15
-4.71618e-15
1.33263e-14
-3.33325e-14
7.95759e-14
-1.82233e-13
4.04633e-13
-8.72372e-13
1.82322e-12
-3.68732e-12
7.19688e-12
-1.35113e-11
2.43059e-11
-4.17216e-11
6.8057e-11
-1.05253e-10
1.54951e-10
-2.21999e-10
3.28749e-10
-5.52474e-10
1.08547e-09
-2.26275e-09
4.45119e-09
-7.7318e-09
1.14371e-08
-1.37447e-08
1.12037e-08
7.33205e-09
-4.91219e-08
8.49056e-08
-7.62449e-08
3.05808e-08
1.36529e-09
5.7757e-08
-1.31717e-07
3.12763e-07
-4.17958e-07
9.23494e-07
1.36129e-06
-4.58398e-06
-2.12838e-06
1.24964e-05
-9.93715e-06
-1.73316e-05
2.68663e-05
-1.43344e-06
-5.32001e-06
-2.16586e-05
8.86348e-05
0.00011317
-9.47911e-05
-0.000460118
-0.000328459
0.000939113
0.000823892
-0.00159096
-0.00195778
-9.22283e-06
0.00501203
-0.00166858
-0.0122107
-0.00911724
0.0246488
0.122242
0.322586
0.662496
1.16676
1.84002
2.66326
3.59603
4.58358
5.56676
6.49174
7.31733
8.01865
8.58711
9.02767
9.35462
9.58722
9.7459
9.84971
9.91477
9.95373
9.97608
9.98818
9.99488
9.99798
9.99994
9.99996
9.99998
10
9.99998
9.99997
9.99999
10.0001
9.99993
9.9999
10.0001
10.0005
10.0004
9.99892
9.99921
10.0017
10.0019
10.0003
9.99595
9.99865
10.0122
10.0104
9.97736
9.88109
9.68223
9.34338
8.83929
8.16512
7.33999
6.40469
5.4144
4.42876
3.502
2.67555
1.9744
1.40702
0.968189
0.643198
0.412393
0.255007
0.151876
0.0869038
0.0476607
0.0248655
0.0125522
0.00568114
0.00257531
0.000154659
7.35385e-05
1.23374e-05
8.6093e-06
5.21591e-06
2.87239e-06
1.25936e-06
4.67345e-07
2.45617e-09
1.19336e-09
3.02487e-10
2.56886e-10
2.02639e-10
1.51672e-10
1.08817e-10
7.58805e-11
5.20335e-11
3.53909e-11
2.40318e-11
1.61686e-11
1.11173e-11
5.16144e-12
4.01758e-12
2.61229e-12
1.33972e-12
4.87991e-13
-4.58791e-13
-6.18897e-13
-6.47499e-13
-5.69907e-13
-4.31513e-13
-3.04596e-13
-1.30902e-13
-1.04783e-13
-1.0532e-13
-1.24269e-13
-1.43816e-13
-1.41127e-13
-1.28016e-13
-1.05339e-13
-7.71657e-14
-4.82861e-14
-2.27612e-14
-3.04446e-15
1.05214e-14
1.86408e-14
2.21647e-14
2.2734e-14
2.11199e-14
1.70717e-14
1.11661e-14
3.92778e-15
-4.75954e-15
-1.62813e-14
-2.93791e-14
-4.03917e-14
-4.47547e-14
-4.33682e-14
-3.65759e-14
-2.51161e-14
-1.15667e-14
5.02278e-16
8.35985e-15
1.22092e-14
1.45513e-14
1.75807e-14
2.30106e-14
3.00038e-14
3.55191e-14
3.73439e-14
3.58128e-14
2.96326e-14
1.91145e-14
6.55056e-15
-4.8897e-15
-1.2177e-14
-1.36795e-14
-1.21691e-14
-6.74201e-15
1.71024e-15
1.0872e-14
1.77569e-14
2.02714e-14
1.96258e-14
1.54451e-14
8.17154e-15
-6.88278e-16
-9.15975e-15
-1.54323e-14
-1.86591e-14
-1.94483e-14
-1.87644e-14
-1.65321e-14
-1.32834e-14
-9.77464e-15
-6.66844e-15
-4.34425e-15
-2.86029e-15
-2.07185e-15
-1.78224e-15
-1.83306e-15
-2.12651e-15
-2.55075e-15
-2.9996e-15
-3.39704e-15
-3.69158e-15
-3.86234e-15
-3.90406e-15
-3.81801e-15
-3.58596e-15
-3.17097e-15
-2.48818e-15
-1.46226e-15
-1.3712e-16
1.2482e-15
2.38233e-15
3.07105e-15
3.30664e-15
3.13707e-15
2.60094e-15
1.84506e-15
1.0531e-15
3.64792e-16
-1.53157e-16
-4.87955e-16
-6.6256e-16
-7.12265e-16
-6.73229e-16
-5.81769e-16
-4.71324e-16
-3.66072e-16
-2.8253e-16
-2.2149e-16
-1.84037e-16
-1.61722e-16
-1.47633e-16
-1.37526e-16
-1.24023e-16
-1.08854e-16
-8.90386e-17
-6.83077e-17
-4.66481e-17
-2.81112e-17
-1.08864e-17
-3.02273e-21
9.64596e-18
1.30162e-17
1.56685e-17
1.48323e-17
1.33148e-17
1.16702e-17
8.97284e-18
8.35512e-18
6.0966e-18
6.4638e-18
4.98431e-18
5.06006e-18
4.69719e-18
2.83216e-18
4.69601e-18
-3.91906e-19
4.95562e-18
-3.60682e-18
5.33342e-18
-5.39247e-18
)
;

boundaryField
{
    right
    {
        type            zeroGradient;
    }
    left
    {
        type            inletOutlet;
        inletValue      uniform 0;
        value           uniform 0;
    }
    top
    {
        type            zeroGradient;
    }
    bottom
    {
        type            zeroGradient;
    }
    empty
    {
        type            empty;
    }
}


// ************************************************************************* //
