/*--------------------------------*- C++ -*----------------------------------*\
| =========                 |                                                 |
| \\      /  F ield         | OpenFOAM: The Open Source CFD Toolbox           |
|  \\    /   O peration     | Version:  v2006                                 |
|   \\  /    A nd           | Website:  www.openfoam.com                      |
|    \\/     M anipulation  |                                                 |
\*---------------------------------------------------------------------------*/
FoamFile
{
    version     2.0;
    format      ascii;
    class       surfaceScalarField;
    location    "18";
    object      alphaPhi0.water;
}
// * * * * * * * * * * * * * * * * * * * * * * * * * * * * * * * * * * * * * //

dimensions      [0 3 -1 0 0 0 0];
oriented        oriented;


internalField   nonuniform List<scalar> 
99450
(
2.3345e-05
-2.3345e-05
6.44512e-05
-4.11063e-05
0.000107734
-4.32826e-05
0.000147573
-3.98388e-05
0.00018356
-3.5987e-05
0.000216948
-3.33886e-05
0.000248817
-3.18682e-05
0.000279704
-3.08871e-05
0.000309746
-3.00421e-05
0.000338892
-2.91465e-05
0.000367048
-2.81561e-05
0.000394113
-2.70651e-05
0.000420012
-2.58986e-05
0.000444684
-2.4672e-05
0.000468086
-2.34019e-05
0.000490186
-2.20997e-05
0.000510962
-2.07762e-05
0.000530408
-1.94458e-05
0.000548525
-1.81172e-05
0.000565318
-1.67936e-05
0.000580812
-1.54935e-05
0.000595019
-1.42076e-05
0.000607966
-1.2947e-05
0.000619676
-1.17094e-05
0.000630169
-1.0493e-05
0.00063946
-9.29081e-06
0.000647562
-8.10252e-06
0.000654484
-6.92158e-06
0.000660225
-5.74104e-06
0.00066478
-4.55504e-06
0.00066813
-3.35015e-06
0.000670242
-2.11236e-06
0.000671078
-8.35626e-07
0.000670546
5.32265e-07
0.00066851
2.03573e-06
0.000664854
3.65574e-06
0.00065939
5.46401e-06
0.000651887
7.50302e-06
0.000642106
9.78092e-06
0.000629967
1.21397e-05
0.000615585
1.4381e-05
0.000599215
1.63708e-05
0.000581111
1.81037e-05
0.000561499
1.9612e-05
0.000540647
2.08515e-05
0.000518833
2.18145e-05
0.000496335
2.24976e-05
0.00047345
2.28856e-05
0.000450474
2.29753e-05
0.000427755
2.27194e-05
0.000405629
2.21263e-05
0.000384341
2.12873e-05
0.000363936
2.04054e-05
0.000344287
1.96487e-05
0.00032517
1.91177e-05
0.000306435
1.87347e-05
0.000287906
1.85291e-05
0.000269513
1.83927e-05
0.000251227
1.82865e-05
0.000233031
1.81959e-05
0.000214901
1.81299e-05
0.000196832
1.80691e-05
0.000178791
1.80411e-05
0.000160794
1.79961e-05
0.000142834
1.79601e-05
0.000124914
1.79206e-05
0.000107032
1.78818e-05
8.91923e-05
1.78396e-05
7.14009e-05
1.77914e-05
5.36697e-05
1.77312e-05
3.60105e-05
1.76593e-05
1.84374e-05
1.75731e-05
9.62842e-07
1.74745e-05
-1.63992e-05
1.7362e-05
-3.36282e-05
1.7229e-05
-5.07058e-05
1.70776e-05
-6.7612e-05
1.69062e-05
-8.4329e-05
1.6717e-05
-0.000100841
1.65121e-05
-0.000117135
1.6294e-05
-0.000133199
1.60641e-05
-0.000149025
1.58254e-05
-0.00016461
1.55857e-05
-0.000179955
1.53445e-05
-0.000195062
1.51072e-05
-0.000209936
1.48735e-05
-0.00022459
1.46541e-05
-0.000239044
1.44546e-05
-0.000253329
1.42846e-05
-0.000267486
1.41577e-05
-0.000281571
1.4085e-05
-0.000295661
1.40895e-05
-0.000309861
1.41995e-05
-0.000324314
1.44535e-05
-0.000339249
1.49353e-05
-0.000355012
1.57623e-05
-0.000372029
1.70178e-05
-0.000390709
1.86795e-05
-0.000411256
2.05472e-05
-0.000433543
2.22867e-05
-0.000457121
2.35782e-05
-0.00048138
2.42587e-05
-0.000505709
2.43288e-05
-0.000529586
2.38774e-05
-0.000552557
2.29714e-05
-0.000574214
2.16565e-05
-0.000594124
1.99101e-05
-0.00061176
1.76366e-05
-0.000626461
1.47007e-05
-0.000637479
1.1018e-05
-0.000644167
6.68746e-06
-0.00064648
2.31317e-06
-0.000645258
-1.22194e-06
-0.000641431
-3.82705e-06
-0.000635734
-5.69674e-06
-0.000628762
-6.97202e-06
-0.000620841
-7.9211e-06
-0.000612121
-8.71971e-06
-0.000602647
-9.47398e-06
-0.000592438
-1.02096e-05
-0.000581519
-1.0919e-05
-0.000569913
-1.16059e-05
-0.000557635
-1.22778e-05
-0.000544691
-1.29437e-05
-0.000531085
-1.36062e-05
-0.000516821
-1.42641e-05
-0.000501903
-1.49177e-05
-0.000486334
-1.5569e-05
-0.000470123
-1.62114e-05
-0.000453282
-1.68406e-05
-0.000435827
-1.74556e-05
-0.000417776
-1.80511e-05
-0.000399141
-1.86349e-05
-0.000379931
-1.92095e-05
-0.000360151
-1.97804e-05
-0.000339802
-2.03485e-05
-0.000318877
-2.09249e-05
-0.000297368
-2.15094e-05
-0.000275276
-2.20921e-05
-0.0002526
-2.26757e-05
-0.000229346
-2.32545e-05
-0.000205508
-2.38377e-05
-0.000181086
-2.44217e-05
-0.000156053
-2.50336e-05
-0.000130398
-2.56551e-05
-0.000104124
-2.62739e-05
-7.73834e-05
-2.67403e-05
-5.01328e-05
-2.72507e-05
-2.29313e-05
-2.72014e-05
-2.29313e-05
2.1233e-05
-4.4578e-05
5.91619e-05
-7.90351e-05
9.89905e-05
-8.31113e-05
0.000134633
-7.54813e-05
0.000165538
-6.6892e-05
0.000193239
-6.10895e-05
0.000219242
-5.78712e-05
0.000244263
-5.59083e-05
0.000268357
-5.41358e-05
0.000291359
-5.21486e-05
0.000313068
-4.98654e-05
0.000333361
-4.73584e-05
0.000352178
-4.47148e-05
0.000369488
-4.19828e-05
0.000385272
-3.91854e-05
0.000399541
-3.63683e-05
0.000412315
-3.35505e-05
0.000423633
-3.07635e-05
0.000433563
-2.80479e-05
0.000442181
-2.54112e-05
0.000449558
-2.28708e-05
0.000455788
-2.0437e-05
0.000460954
-1.81136e-05
0.000465154
-1.59092e-05
0.000468472
-1.38113e-05
0.000471005
-1.18237e-05
0.000472836
-9.93322e-06
0.000474046
-8.13179e-06
0.000474731
-6.42596e-06
0.000474977
-4.80137e-06
0.000474878
-3.25117e-06
0.000474514
-1.748e-06
0.000473896
-2.17815e-07
0.000473301
1.12763e-06
0.000472724
2.61231e-06
0.000472147
4.23303e-06
0.000471586
6.02495e-06
0.000471065
8.02367e-06
0.000470595
1.02514e-05
0.000470023
1.27117e-05
0.000469065
1.53388e-05
0.000467401
1.80352e-05
0.000464768
2.07368e-05
0.000461059
2.33203e-05
0.000456148
2.57633e-05
0.000449989
2.79727e-05
0.000442557
2.99304e-05
0.000433897
3.15449e-05
0.000424035
3.28377e-05
0.000412992
3.37622e-05
0.000400819
3.42995e-05
0.000387497
3.46094e-05
0.000373153
3.47488e-05
0.00035789
3.49125e-05
0.00034195
3.50572e-05
0.000325425
3.52594e-05
0.000308402
3.55527e-05
0.000290929
3.58661e-05
0.000273016
3.61989e-05
0.000254678
3.65336e-05
0.00023595
3.68585e-05
0.000216847
3.71717e-05
0.00019742
3.74684e-05
0.00017767
3.77457e-05
0.000157637
3.79936e-05
0.000137353
3.82048e-05
0.000116862
3.83719e-05
9.62052e-05
3.84968e-05
7.54185e-05
3.8578e-05
5.45357e-05
3.8614e-05
3.36069e-05
3.85881e-05
1.26665e-05
3.85135e-05
-8.24092e-06
3.83819e-05
-2.90689e-05
3.819e-05
-4.97751e-05
3.79352e-05
-7.03138e-05
3.76163e-05
-9.06372e-05
3.72296e-05
-0.000110704
3.67836e-05
-0.000130463
3.62712e-05
-0.000149869
3.56999e-05
-0.000168878
3.50735e-05
-0.000187448
3.43956e-05
-0.000205546
3.36838e-05
-0.000223135
3.2933e-05
-0.000240183
3.21554e-05
-0.000256676
3.13663e-05
-0.000272588
3.05659e-05
-0.000287908
2.97749e-05
-0.000302628
2.90043e-05
-0.000316739
2.82691e-05
-0.000330247
2.75932e-05
-0.000343163
2.70054e-05
-0.000355499
2.65351e-05
-0.000367277
2.62313e-05
-0.000378503
2.61615e-05
-0.000389144
2.64038e-05
-0.000399141
2.70145e-05
-0.000408441
2.79793e-05
-0.000417037
2.91438e-05
-0.00042497
3.02192e-05
-0.000432243
3.08518e-05
-0.000438711
3.07259e-05
-0.000444025
2.96436e-05
-0.000447675
2.75265e-05
-0.000449167
2.44636e-05
-0.000448102
2.05917e-05
-0.000444243
1.60516e-05
-0.000437611
1.10042e-05
-0.000428576
5.6653e-06
-0.000418
4.42253e-07
-0.000406195
-5.11737e-06
-0.000394085
-9.79714e-06
-0.000381807
-1.34994e-05
-0.000369401
-1.62336e-05
-0.000356931
-1.8166e-05
-0.000344377
-1.9526e-05
-0.000331751
-2.05475e-05
-0.000319062
-2.14086e-05
-0.000306336
-2.22002e-05
-0.00029359
-2.29554e-05
-0.000280822
-2.36871e-05
-0.000268027
-2.44005e-05
-0.000255215
-2.50899e-05
-0.000242418
-2.57413e-05
-0.000229672
-2.63521e-05
-0.00021701
-2.69257e-05
-0.000204471
-2.74573e-05
-0.00019209
-2.79496e-05
-0.000179901
-2.84007e-05
-0.000167931
-2.88106e-05
-0.000156233
-2.9153e-05
-0.000144856
-2.94284e-05
-0.000133841
-2.96495e-05
-0.000123243
-2.98077e-05
-0.000113095
-2.9929e-05
-0.000103413
-3.003e-05
-9.42296e-05
-3.01085e-05
-8.5523e-05
-3.02159e-05
-7.72736e-05
-3.03415e-05
-6.94168e-05
-3.05326e-05
-6.19161e-05
-3.07552e-05
-5.4736e-05
-3.10178e-05
-4.77977e-05
-3.136e-05
-4.10964e-05
-3.17349e-05
-3.46411e-05
-3.21104e-05
-2.84333e-05
-3.24817e-05
-2.24604e-05
-3.27132e-05
-1.60244e-05
-3.36867e-05
-7.53623e-06
-3.56896e-05
-3.04676e-05
2.07937e-05
-6.53717e-05
6.05456e-05
-0.000118787
0.000104289
-0.000126854
0.000144495
-0.000115688
0.000179284
-0.000101681
0.000209738
-9.1544e-05
0.000237693
-8.58263e-05
0.000264386
-8.26008e-05
0.000290257
-8.00065e-05
0.000315131
-7.70231e-05
0.00033873
-7.34638e-05
0.000360798
-6.94268e-05
0.000381218
-6.51347e-05
0.000399912
-6.06773e-05
0.000416874
-5.61468e-05
0.000432103
-5.15974e-05
0.000445644
-4.70912e-05
0.000457558
-4.26781e-05
0.000467905
-3.83941e-05
0.000476786
-3.42927e-05
0.000484315
-3.03992e-05
0.000490586
-2.67089e-05
0.000495699
-2.32264e-05
0.00049975
-1.99598e-05
0.000502816
-1.68772e-05
0.000504992
-1.4e-05
0.000506333
-1.12741e-05
0.000506892
-8.69086e-06
0.000506712
-6.24633e-06
0.000505833
-3.92166e-06
0.000504296
-1.71454e-06
0.000502088
4.604e-07
0.000499247
2.62255e-06
0.00049566
4.71501e-06
0.000491433
6.83887e-06
0.000486626
9.04058e-06
0.000481293
1.13581e-05
0.000475529
1.37871e-05
0.000469463
1.63176e-05
0.000463183
1.89914e-05
0.000456724
2.17983e-05
0.000450079
2.46799e-05
0.000443252
2.7564e-05
0.000436155
3.04176e-05
0.000428745
3.31727e-05
0.000420897
3.58213e-05
0.000412581
3.82459e-05
0.000403611
4.05144e-05
0.000393912
4.25371e-05
0.000383328
4.43458e-05
0.000371738
4.58904e-05
0.000359143
4.72038e-05
0.000345561
4.83309e-05
0.00033118
4.92935e-05
0.000316046
5.01916e-05
0.000300258
5.1047e-05
0.000283929
5.18819e-05
0.000267092
5.27031e-05
0.000249766
5.35243e-05
0.000232004
5.42955e-05
0.000213828
5.50347e-05
0.000195255
5.5745e-05
0.000176361
5.63621e-05
0.000157154
5.69532e-05
0.000137688
5.74594e-05
0.000117995
5.78981e-05
9.81063e-05
5.82605e-05
7.8065e-05
5.8538e-05
5.79142e-05
5.87288e-05
3.76948e-05
5.88334e-05
1.74378e-05
5.8845e-05
-2.80522e-06
5.87566e-05
-2.29941e-05
5.85708e-05
-4.30892e-05
5.82852e-05
-6.30509e-05
5.78969e-05
-8.28445e-05
5.74099e-05
-0.000102414
5.67992e-05
-0.000121721
5.60906e-05
-0.000140728
5.52777e-05
-0.000159397
5.43696e-05
-0.000177682
5.33579e-05
-0.000195543
5.22567e-05
-0.000212944
5.10844e-05
-0.000229854
4.9843e-05
-0.000246236
4.85374e-05
-0.000262066
4.7197e-05
-0.00027731
4.58097e-05
-0.000291938
4.44032e-05
-0.000305933
4.29994e-05
-0.000319254
4.15896e-05
-0.000331881
4.022e-05
-0.000343775
3.88996e-05
-0.000354894
3.76539e-05
-0.000365175
3.65123e-05
-0.000374514
3.55003e-05
-0.000382754
3.4644e-05
-0.000389688
3.39489e-05
-0.0003951
3.33908e-05
-0.000398857
3.29013e-05
-0.000400954
3.23155e-05
-0.00040151
3.14077e-05
-0.000400739
2.99558e-05
-0.000398899
2.78036e-05
-0.000396267
2.48945e-05
-0.000393077
2.12729e-05
-0.000389575
1.70899e-05
-0.00038596
1.24368e-05
-0.000382402
7.44578e-06
-0.000378958
2.22141e-06
-0.000375823
-2.69311e-06
-0.000373615
-7.32514e-06
-0.000371871
-1.15407e-05
-0.000370163
-1.52076e-05
-0.000368115
-1.8282e-05
-0.000365454
-2.08265e-05
-0.000361966
-2.30141e-05
-0.000357505
-2.5008e-05
-0.000351999
-2.69153e-05
-0.000345414
-2.87849e-05
-0.000337741
-3.06281e-05
-0.000328991
-3.24376e-05
-0.000319193
-3.41982e-05
-0.000308399
-3.58838e-05
-0.000296682
-3.7459e-05
-0.00028413
-3.8904e-05
-0.000270853
-4.02022e-05
-0.000256956
-4.13546e-05
-0.000242543
-4.23624e-05
-0.000227725
-4.32192e-05
-0.000212612
-4.39231e-05
-0.000197309
-4.44564e-05
-0.000181934
-4.48028e-05
-0.000166616
-4.49675e-05
-0.000151489
-4.49355e-05
-0.000136698
-4.47196e-05
-0.000122378
-4.43494e-05
-0.000108663
-4.38241e-05
-9.56879e-05
-4.31908e-05
-8.35419e-05
-4.24875e-05
-7.23244e-05
-4.17501e-05
-6.20586e-05
-4.1021e-05
-5.27651e-05
-4.03112e-05
-4.44422e-05
-3.96829e-05
-3.70578e-05
-3.91193e-05
-3.05599e-05
-3.86083e-05
-2.49587e-05
-3.80829e-05
-1.98187e-05
-3.78532e-05
-1.36424e-05
-3.98631e-05
-4.6804e-06
-4.46515e-05
-3.5148e-05
2.05305e-05
-8.59022e-05
6.12606e-05
-0.000159517
0.000107114
-0.000172708
0.000150365
-0.000158939
0.000188461
-0.000139776
0.000221907
-0.00012499
0.000252362
-0.000116281
0.000281279
-0.000111519
0.000309302
-0.000108029
0.000336462
-0.000104183
0.000362471
-9.94728e-05
0.000387035
-9.39913e-05
0.000409915
-8.80148e-05
0.000431002
-8.17643e-05
0.000450241
-7.53856e-05
0.000467619
-6.89758e-05
0.000483159
-6.26309e-05
0.000496902
-5.64214e-05
0.000508938
-5.04294e-05
0.000519341
-4.4696e-05
0.000528202
-3.92599e-05
0.000535633
-3.41406e-05
0.000541736
-2.93288e-05
0.000546605
-2.48294e-05
0.000550343
-2.06151e-05
0.000553
-1.66564e-05
0.000554658
-1.29324e-05
0.000555385
-9.41735e-06
0.000555203
-6.06495e-06
0.000554134
-2.85271e-06
0.000552203
2.16716e-07
0.000549471
3.192e-06
0.000545947
6.1467e-06
0.000541574
9.08832e-06
0.000536374
1.20392e-05
0.000530378
1.50366e-05
0.000523642
1.80939e-05
0.000516206
2.12227e-05
0.00050812
2.44038e-05
0.000499461
2.76502e-05
0.000490329
3.09303e-05
0.000480789
3.42198e-05
0.000470879
3.74748e-05
0.000460631
4.06653e-05
0.000450048
4.37558e-05
0.000439176
4.6693e-05
0.000427919
4.95031e-05
0.000416283
5.21509e-05
0.000404201
5.46189e-05
0.000391634
5.69126e-05
0.000378491
5.90338e-05
0.000364719
6.09755e-05
0.000350298
6.27521e-05
0.000335226
6.43652e-05
0.000319539
6.5879e-05
0.000303284
6.73014e-05
0.000286513
6.86534e-05
0.000269265
6.99514e-05
0.000251628
7.11608e-05
0.000233614
7.231e-05
0.000215249
7.3399e-05
0.000196625
7.43691e-05
0.000177711
7.52758e-05
0.000158577
7.60882e-05
0.000139235
7.68012e-05
0.000119727
7.74055e-05
0.000100086
7.79019e-05
8.0343e-05
7.82809e-05
6.05302e-05
7.85415e-05
4.06818e-05
7.86818e-05
2.08359e-05
7.8691e-05
1.02773e-06
7.85647e-05
-1.87151e-05
7.83136e-05
-3.83566e-05
7.79267e-05
-5.78633e-05
7.74035e-05
-7.71962e-05
7.67428e-05
-9.63374e-05
7.59405e-05
-0.000115247
7.50005e-05
-0.000133894
7.39243e-05
-0.000152244
7.272e-05
-0.000170276
7.13897e-05
-0.000187957
6.99376e-05
-0.000205248
6.83753e-05
-0.000222119
6.67143e-05
-0.000238541
6.49596e-05
-0.000254469
6.31243e-05
-0.000269882
6.12233e-05
-0.000284742
5.92632e-05
-0.000299005
5.72623e-05
-0.000312643
5.52274e-05
-0.000325612
5.31893e-05
-0.000337864
5.11509e-05
-0.000349343
4.91328e-05
-0.000359986
4.71561e-05
-0.000369715
4.52291e-05
-0.000378431
4.33597e-05
-0.000386019
4.15369e-05
-0.000392361
3.97329e-05
-0.000397343
3.78836e-05
-0.000400928
3.59002e-05
-0.000403192
3.36721e-05
-0.000404332
3.10959e-05
-0.000404626
2.80974e-05
-0.000404386
2.46547e-05
-0.00040391
2.0797e-05
-0.000403417
1.65967e-05
-0.000403124
1.21436e-05
-0.000403239
7.56028e-06
-0.000404004
2.98659e-06
-0.000405006
-1.69109e-06
-0.00040613
-6.20062e-06
-0.000407246
-1.04254e-05
-0.000408076
-1.43775e-05
-0.000408305
-1.8053e-05
-0.000407674
-2.1457e-05
-0.000406067
-2.46211e-05
-0.000403477
-2.7598e-05
-0.000399952
-3.04405e-05
-0.000395545
-3.31918e-05
-0.00039029
-3.58831e-05
-0.000384207
-3.85211e-05
-0.000377302
-4.11025e-05
-0.000369573
-4.36132e-05
-0.000361009
-4.60226e-05
-0.000351594
-4.83196e-05
-0.000341325
-5.04706e-05
-0.000330211
-5.2469e-05
-0.000318268
-5.43052e-05
-0.000305538
-5.59492e-05
-0.000292056
-5.74047e-05
-0.000277876
-5.8637e-05
-0.000263061
-5.96177e-05
-0.000247677
-6.03515e-05
-0.00023184
-6.07727e-05
-0.000215636
-6.09231e-05
-0.000199205
-6.07808e-05
-0.000182681
-6.0348e-05
-0.000166217
-5.96544e-05
-0.000149955
-5.87498e-05
-0.00013404
-5.7665e-05
-0.0001186
-5.64608e-05
-0.000103717
-5.51947e-05
-8.94778e-05
-5.3922e-05
-7.60374e-05
-5.25597e-05
-6.36111e-05
-5.10346e-05
-5.21938e-05
-4.95001e-05
-4.05259e-05
-4.95211e-05
-2.60505e-05
-5.43385e-05
-8.85287e-06
-6.18492e-05
-4.40008e-05
1.97883e-05
-0.000105691
6.05822e-05
-0.000200311
0.000107752
-0.000219878
0.00015314
-0.000204326
0.000193513
-0.00018015
0.000228902
-0.000160379
0.000260854
-0.000148233
0.000290941
-0.000141606
0.000320052
-0.000137141
0.000348355
-0.000132486
0.000375601
-0.000126719
0.000401431
-0.000119821
0.000425544
-0.000112128
0.000447771
-0.000103991
0.000468013
-9.56272e-05
0.000486258
-8.72213e-05
0.000502524
-7.88972e-05
0.000516874
-7.0771e-05
0.00052937
-6.2925e-05
0.00054012
-5.54467e-05
0.000549233
-4.83727e-05
0.000556807
-4.1714e-05
0.000562958
-3.54803e-05
0.000567777
-2.96487e-05
0.000571358
-2.41957e-05
0.000573797
-1.9096e-05
0.000575141
-1.42756e-05
0.000575465
-9.74207e-06
0.000574839
-5.43806e-06
0.000573321
-1.33564e-06
0.000570871
2.66677e-06
0.000567551
6.51213e-06
0.000563426
1.02721e-05
0.000558527
1.39875e-05
0.000552891
1.76746e-05
0.00054657
2.13582e-05
0.000539612
2.50516e-05
0.000532073
2.87613e-05
0.000523993
3.2484e-05
0.000515413
3.62303e-05
0.000506367
3.99761e-05
0.000496866
4.37204e-05
0.000486919
4.74223e-05
0.000476514
5.10706e-05
0.000465642
5.46272e-05
0.000454262
5.80729e-05
0.000442388
6.13774e-05
0.000430016
6.45235e-05
0.000417125
6.75097e-05
0.000403722
7.03155e-05
0.000389806
7.29498e-05
0.000375369
7.54123e-05
0.000360396
7.77246e-05
0.000344867
7.98943e-05
0.000328804
8.19421e-05
0.000312242
8.38641e-05
0.000295228
8.56674e-05
0.000277807
8.73718e-05
0.000259976
8.89922e-05
0.000241776
9.05094e-05
0.000223277
9.18983e-05
0.000204473
9.31726e-05
0.000185416
9.43335e-05
0.000166135
9.53688e-05
0.000146652
9.62843e-05
0.000127019
9.70382e-05
0.000107247
9.7674e-05
8.73804e-05
9.81477e-05
6.74404e-05
9.84815e-05
4.74558e-05
9.86664e-05
2.74744e-05
9.86723e-05
7.51199e-06
9.85272e-05
-1.23948e-05
9.82204e-05
-3.22162e-05
9.7748e-05
-5.19235e-05
9.71109e-05
-7.14828e-05
9.63022e-05
-9.08632e-05
9.53209e-05
-0.000110038
9.41755e-05
-0.000128979
9.28651e-05
-0.000147651
9.13919e-05
-0.000166034
8.97723e-05
-0.00018408
8.7984e-05
-0.000201763
8.60584e-05
-0.000219048
8.39989e-05
-0.000235901
8.18125e-05
-0.00025228
7.95042e-05
-0.000268158
7.7101e-05
-0.000283479
7.45844e-05
-0.000298214
7.1997e-05
-0.00031232
6.93334e-05
-0.000325747
6.66162e-05
-0.000338457
6.38615e-05
-0.00035039
6.10655e-05
-0.0003615
5.8266e-05
-0.000371712
5.5441e-05
-0.000380968
5.26154e-05
-0.000389207
4.9776e-05
-0.00039637
4.6896e-05
-0.000402432
4.39456e-05
-0.000407403
4.08712e-05
-0.000411352
3.7621e-05
-0.000414396
3.41401e-05
-0.000416696
3.03974e-05
-0.000418421
2.63798e-05
-0.000419722
2.20982e-05
-0.000420715
1.75897e-05
-0.000421459
1.28879e-05
-0.000421955
8.05561e-06
-0.000422102
3.13373e-06
-0.000422166
-1.62679e-06
-0.000422015
-6.35196e-06
-0.00042152
-1.092e-05
-0.00042064
-1.52579e-05
-0.000419345
-1.93474e-05
-0.000417603
-2.31994e-05
-0.000415378
-2.68458e-05
-0.000412648
-3.03287e-05
-0.000409399
-3.36887e-05
-0.000405634
-3.69572e-05
-0.000401361
-4.01556e-05
-0.000396586
-4.32962e-05
-0.000391302
-4.6387e-05
-0.000385488
-4.94269e-05
-0.000379103
-5.24073e-05
-0.000372128
-5.52955e-05
-0.000364509
-5.80891e-05
-0.000356209
-6.07686e-05
-0.000347199
-6.33153e-05
-0.000337445
-6.5703e-05
-0.000326935
-6.79151e-05
-0.00031565
-6.99224e-05
-0.000303574
-7.16934e-05
-0.000290727
-7.31988e-05
-0.000277091
-7.44079e-05
-0.000262711
-7.53033e-05
-0.000247639
-7.58535e-05
-0.000231898
-7.60886e-05
-0.000215572
-7.59803e-05
-0.000198757
-7.55644e-05
-0.000181548
-7.48742e-05
-0.000164041
-7.39683e-05
-0.000146327
-7.29083e-05
-0.000128563
-7.16865e-05
-0.000110996
-7.01263e-05
-9.39496e-05
-6.80811e-05
-7.71404e-05
-6.63093e-05
-5.87717e-05
-6.78898e-05
-3.66386e-05
-7.64716e-05
-1.29943e-05
-8.54934e-05
-5.69951e-05
1.86408e-05
-0.000124331
5.90962e-05
-0.000240766
0.0001076
-0.000268382
0.000155515
-0.00025224
0.000198555
-0.00022319
0.000236038
-0.000197863
0.000269385
-0.00018158
0.000300427
-0.000172648
0.000330374
-0.000167087
0.00035957
-0.000161682
0.000387748
-0.000154897
0.000414445
-0.000146518
0.000439255
-0.000136938
0.000461912
-0.000126648
0.00048233
-0.000116045
0.000500496
-0.000105387
0.000516467
-9.48682e-05
0.00053035
-8.46547e-05
0.000542282
-7.48571e-05
0.000552391
-6.55548e-05
0.000560813
-5.67947e-05
0.000567695
-4.85967e-05
0.000573155
-4.09396e-05
0.000577316
-3.38098e-05
0.000580284
-2.7164e-05
0.000582138
-2.09503e-05
0.000582986
-1.51237e-05
0.000582869
-9.62507e-06
0.000581838
-4.40648e-06
0.000579942
5.60658e-07
0.000577246
5.36195e-06
0.000573768
9.99067e-06
0.000569539
1.45013e-05
0.000564591
1.89355e-05
0.000558958
2.33078e-05
0.000552676
2.764e-05
0.000545774
3.19533e-05
0.000538276
3.62597e-05
0.000530211
4.05483e-05
0.000521612
4.48296e-05
0.0005125
4.9088e-05
0.00050291
5.33108e-05
0.000492846
5.74859e-05
0.000482329
6.15877e-05
0.000471363
6.55938e-05
0.000459922
6.95133e-05
0.000448023
7.32764e-05
0.000435634
7.69128e-05
0.000422731
8.04123e-05
0.000409307
8.37402e-05
0.000395327
8.69292e-05
0.000380797
8.99426e-05
0.000365724
9.27978e-05
0.000350107
9.55107e-05
0.000333981
9.80682e-05
0.000317356
0.000100489
0.00030025
0.000102773
0.000282698
0.000104924
0.000264755
0.000106935
0.000246443
0.000108822
0.000227788
0.000110554
0.000208817
0.000112144
0.00018957
0.00011358
0.000170079
0.00011486
0.000150384
0.000115979
0.000130492
0.00011693
0.000110455
0.000117711
9.02957e-05
0.000118307
7.00517e-05
0.000118726
4.97556e-05
0.000118962
2.94241e-05
0.000119004
9.09767e-06
0.000118854
-1.1189e-05
0.000118507
-3.14046e-05
0.000117964
-5.15162e-05
0.000117222
-7.14975e-05
0.000116284
-9.13082e-05
0.000115132
-0.000110917
0.000113785
-0.000130291
0.000112239
-0.000149398
0.000110498
-0.000168193
0.000108568
-0.000186666
0.000106457
-0.000204753
0.000104145
-0.000222422
0.000101668
-0.000239637
9.90272e-05
-0.000256355
9.62223e-05
-0.000272526
9.32721e-05
-0.000288127
9.01858e-05
-0.0003031
8.697e-05
-0.000317406
8.36392e-05
-0.000331
8.02105e-05
-0.00034384
7.67009e-05
-0.000355875
7.31005e-05
-0.00036705
6.94408e-05
-0.000377335
6.57264e-05
-0.000386676
6.19565e-05
-0.000395033
5.81332e-05
-0.00040238
5.42429e-05
-0.000408702
5.02672e-05
-0.000414014
4.61835e-05
-0.000418359
4.1966e-05
-0.000421803
3.75843e-05
-0.000424441
3.30351e-05
-0.000426373
2.83118e-05
-0.000427692
2.34169e-05
-0.000428506
1.84043e-05
-0.00042892
1.33014e-05
-0.000429032
8.16741e-06
-0.000428963
3.06464e-06
-0.000428514
-2.0757e-06
-0.000427822
-7.04398e-06
-0.000426879
-1.18627e-05
-0.00042562
-1.65166e-05
-0.000423975
-2.0993e-05
-0.000421882
-2.52918e-05
-0.000419304
-2.94245e-05
-0.000416222
-3.34101e-05
-0.00041264
-3.72711e-05
-0.000408567
-4.10297e-05
-0.000404019
-4.4704e-05
-0.000399008
-4.8307e-05
-0.000393557
-5.18378e-05
-0.000387672
-5.53126e-05
-0.000381364
-5.87153e-05
-0.000374604
-6.20555e-05
-0.000367387
-6.53055e-05
-0.000359681
-6.84745e-05
-0.000351466
-7.15308e-05
-0.000342709
-7.44603e-05
-0.00033338
-7.72435e-05
-0.000323444
-7.9859e-05
-0.000312864
-8.22727e-05
-0.000301597
-8.44659e-05
-0.000289607
-8.63983e-05
-0.00027686
-8.80501e-05
-0.000263318
-8.93951e-05
-0.000248985
-9.04217e-05
-0.000233842
-9.11234e-05
-0.000217907
-9.15001e-05
-0.000201202
-9.15789e-05
-0.00018376
-9.14099e-05
-0.000165634
-9.10345e-05
-0.000146943
-9.03779e-05
-0.000127908
-8.91606e-05
-0.000108731
-8.72584e-05
-8.89928e-05
-8.60477e-05
-6.7152e-05
-8.97305e-05
-4.18415e-05
-0.000101782
-1.57019e-05
-0.000111633
-7.2697e-05
1.6923e-05
-0.000141254
5.64947e-05
-0.000280338
0.000105934
-0.000317821
0.000156588
-0.000302895
0.000203165
-0.000269766
0.000243842
-0.00023854
0.000279521
-0.000217259
0.000312195
-0.000205322
0.000343499
-0.000198391
0.000374056
-0.000192239
0.000403626
-0.000184467
0.00043157
-0.000174462
0.000457309
-0.000162677
0.000480471
-0.00014981
0.000500926
-0.000136499
0.000518729
-0.00012319
0.000534025
-0.000110164
0.000546988
-9.76182e-05
0.000557839
-8.57072e-05
0.000566782
-7.44985e-05
0.000574038
-6.40502e-05
0.00057978
-5.4339e-05
0.000584178
-4.53377e-05
0.000587368
-3.69999e-05
0.000589464
-2.92594e-05
0.000590563
-2.20501e-05
0.000590743
-1.5303e-05
0.000590074
-8.95665e-06
0.000588605
-2.93749e-06
0.00058636
2.8059e-06
0.000583411
8.31148e-06
0.000579751
1.36501e-05
0.000575411
1.88412e-05
0.000570404
2.39425e-05
0.000564768
2.89441e-05
0.000558515
3.38933e-05
0.000551673
3.87947e-05
0.000544248
4.36847e-05
0.000536266
4.85299e-05
0.00052776
5.33363e-05
0.000518725
5.81227e-05
0.000509183
6.28524e-05
0.000499132
6.75371e-05
0.000488579
7.21407e-05
0.000477503
7.667e-05
0.000465951
8.10656e-05
0.000453849
8.5378e-05
0.000441201
8.95608e-05
0.000428031
9.35821e-05
0.00041431
9.74614e-05
0.000400069
0.00010117
0.000385288
0.000104724
0.000369956
0.00010813
0.000354114
0.000111353
0.000337752
0.00011443
0.000320898
0.000117343
0.000303576
0.000120095
0.000285816
0.000122685
0.000267629
0.000125121
0.000249081
0.00012737
0.000230176
0.000129459
0.00021095
0.00013137
0.000191419
0.00013311
0.000171631
0.000134648
0.000151616
0.000135994
0.000131399
0.000137147
0.000111019
0.000138091
9.05027e-05
0.000138824
6.9883e-05
0.000139345
4.91945e-05
0.000139651
2.84705e-05
0.000139728
7.74215e-06
0.000139582
-1.29572e-05
0.000139206
-3.35916e-05
0.000138598
-5.41239e-05
0.000137755
-7.4528e-05
0.000136688
-9.47574e-05
0.000135361
-0.00011478
0.000133808
-0.00013456
0.000132019
-0.00015406
0.000129998
-0.000173239
0.000127747
-0.000192052
0.00012527
-0.000210476
0.00012257
-0.000228457
0.000119649
-0.000245953
0.000116523
-0.000262926
0.000113196
-0.000279327
0.000109673
-0.000295121
0.000105979
-0.000310255
0.000102104
-0.000324691
9.80751e-05
-0.000338383
9.39034e-05
-0.000351283
8.96005e-05
-0.000363358
8.51752e-05
-0.000374568
8.06515e-05
-0.000384868
7.6026e-05
-0.00039423
7.13185e-05
-0.000402627
6.65303e-05
-0.000410041
6.16567e-05
-0.000416475
5.67017e-05
-0.000421948
5.16558e-05
-0.000426495
4.65134e-05
-0.00043018
4.12692e-05
-0.000433069
3.59239e-05
-0.000435244
3.04874e-05
-0.0004368
2.49722e-05
-0.000437804
1.94084e-05
-0.000438319
1.38163e-05
-0.000438392
8.24119e-06
-0.000438018
2.69059e-06
-0.00043735
-2.74404e-06
-0.000436298
-8.0965e-06
-0.000434853
-1.33075e-05
-0.00043301
-1.83594e-05
-0.000430756
-2.32465e-05
-0.000428074
-2.79742e-05
-0.000424945
-3.25531e-05
-0.00042136
-3.69958e-05
-0.000417309
-4.13222e-05
-0.00041279
-4.55481e-05
-0.000407809
-4.96851e-05
-0.000402369
-5.37473e-05
-0.000396472
-5.7735e-05
-0.000390124
-6.16604e-05
-0.000383321
-6.55177e-05
-0.000376068
-6.93091e-05
-0.000368366
-7.30069e-05
-0.000360218
-7.66231e-05
-0.000351608
-8.01404e-05
-0.000342527
-8.35411e-05
-0.000332958
-8.68132e-05
-0.000322881
-8.9936e-05
-0.000312269
-9.28848e-05
-0.000301093
-9.56412e-05
-0.000289313
-9.81787e-05
-0.000276888
-0.000100475
-0.000263773
-0.00010251
-0.000249929
-0.000104265
-0.000235325
-0.000105728
-0.00021993
-0.000106895
-0.000203734
-0.000107775
-0.000186726
-0.000108418
-0.000168914
-0.000108847
-0.000150356
-0.000108936
-0.000131138
-0.000108379
-0.000111361
-0.000107035
-9.07971e-05
-0.000106612
-6.85191e-05
-0.000112009
-4.34541e-05
-0.000126847
-1.72636e-05
-0.000137824
-8.99606e-05
1.45683e-05
-0.000155823
5.19336e-05
-0.000317703
0.000100631
-0.000366518
0.000153601
-0.000355865
0.000204517
-0.000320682
0.000249835
-0.000283858
0.000289457
-0.000256881
0.000325244
-0.000241109
0.000359136
-0.000232282
0.000392065
-0.000225169
0.00042388
-0.000216282
0.000453804
-0.000204386
0.000480995
-0.000189869
0.000504947
-0.000173762
0.000525516
-0.000157068
0.000542835
-0.00014051
0.000557182
-0.000124511
0.000568919
-0.000109355
0.000578364
-9.51519e-05
0.000585829
-8.19642e-05
0.000591605
-6.98254e-05
0.000595932
-5.86663e-05
0.000599015
-4.8421e-05
0.00060102
-3.90046e-05
0.000602073
-3.0313e-05
0.000602278
-2.22545e-05
0.000601708
-1.47328e-05
0.000600412
-7.66117e-06
0.000598438
-9.63489e-07
0.00059581
5.43406e-06
0.000592547
1.15742e-05
0.00058867
1.75272e-05
0.000584169
2.33425e-05
0.000579092
2.90192e-05
0.000573415
3.46219e-05
0.000567142
4.01659e-05
0.00056028
4.56569e-05
0.000552876
5.10887e-05
0.000544895
5.65104e-05
0.000536347
6.18848e-05
0.00052724
6.72299e-05
0.000517579
7.25128e-05
0.000507379
7.77374e-05
0.000496631
8.2889e-05
0.000485352
8.79485e-05
0.000473514
9.29035e-05
0.000461147
9.77451e-05
0.000448249
0.000102458
0.0004348
0.000107032
0.000420794
0.000111468
0.000406218
0.000115746
0.000391098
0.000119843
0.000375463
0.000123765
0.000359282
0.000127534
0.000342599
0.000131113
0.000325429
0.000134512
0.000307774
0.000137751
0.000289676
0.000140782
0.000271177
0.000143621
0.000252269
0.000146278
0.000233
0.000148728
0.000213399
0.000150971
0.000193507
0.000153002
0.000173344
0.000154811
0.000152936
0.000156403
0.000132325
0.000157758
0.00011153
0.000158886
9.0596e-05
0.000159757
6.95447e-05
0.000160396
4.84304e-05
0.000160765
2.72723e-05
0.000160886
6.0997e-06
0.000160755
-1.50424e-05
0.000160349
-3.61211e-05
0.000159677
-5.71e-05
0.000158734
-7.79348e-05
0.000157522
-9.86068e-05
0.000156033
-0.000119064
0.000154265
-0.000139268
0.000152223
-0.000159181
0.000149911
-0.000178762
0.000147328
-0.000197967
0.000144475
-0.000216769
0.000141372
-0.000235102
0.000137981
-0.000252932
0.000134353
-0.000270221
0.000130484
-0.000286917
0.000126369
-0.000302986
0.000122048
-0.000318365
0.000117483
-0.000333022
0.000112733
-0.000346913
0.000107795
-0.000359993
0.00010268
-0.000372225
9.74077e-05
-0.000383567
9.19933e-05
-0.000393998
8.64566e-05
-0.000403476
8.07966e-05
-0.000411999
7.50535e-05
-0.000419539
6.91962e-05
-0.00042611
6.32725e-05
-0.000431733
5.72792e-05
-0.000436437
5.12176e-05
-0.000440279
4.51109e-05
-0.000443302
3.89466e-05
-0.000445586
3.27722e-05
-0.000447192
2.65779e-05
-0.000448201
2.0417e-05
-0.000448658
1.42733e-05
-0.000448643
8.22678e-06
-0.000448225
2.27224e-06
-0.000447318
-3.65064e-06
-0.000446035
-9.37987e-06
-0.00044437
-1.49729e-05
-0.000442311
-2.04178e-05
-0.000439839
-2.57185e-05
-0.000436938
-3.08756e-05
-0.000433585
-3.59059e-05
-0.000429767
-4.08141e-05
-0.000425473
-4.56163e-05
-0.00042069
-5.03308e-05
-0.000415412
-5.49627e-05
-0.000409635
-5.9525e-05
-0.000403356
-6.40135e-05
-0.000396578
-6.84388e-05
-0.000389302
-7.27939e-05
-0.000381534
-7.70766e-05
-0.00037326
-8.12809e-05
-0.000364486
-8.53968e-05
-0.000355214
-8.94128e-05
-0.00034544
-9.33154e-05
-0.000335165
-9.70883e-05