/*--------------------------------*- C++ -*----------------------------------*\
| =========                 |                                                 |
| \\      /  F ield         | OpenFOAM: The Open Source CFD Toolbox           |
|  \\    /   O peration     | Version:  v2006                                 |
|   \\  /    A nd           | Website:  www.openfoam.com                      |
|    \\/     M anipulation  |                                                 |
\*---------------------------------------------------------------------------*/
FoamFile
{
    version     2.0;
    format      ascii;
    class       volScalarField;
    location    "18";
    object      p;
}
// * * * * * * * * * * * * * * * * * * * * * * * * * * * * * * * * * * * * * //

dimensions      [1 -1 -2 0 0 0 0];


internalField   nonuniform List<scalar> 
50000
(
22280.3
22280.3
22280.3
22280.2
22280
22279.8
22279.5
22279.3
22279
22278.6
22278.2
22277.8
22277.3
22276.8
22276.3
22275.7
22275.1
22274.5
22273.8
22273.1
22272.4
22271.6
22270.8
22270
22269.2
22268.3
22267.4
22266.4
22265.4
22264.4
22263.3
22262.2
22261.1
22259.9
22258.7
22257.4
22256
22254.6
22253.2
22251.7
22250.1
22248.5
22246.8
22245
22243.2
22241.3
22239.3
22237.2
22235
22232.8
22230.5
22228.1
22225.6
22223
22220.4
22217.6
22214.8
22211.8
22208.8
22205.7
22202.5
22199.1
22195.7
22192.2
22188.6
22184.9
22181.1
22177.2
22173.2
22169.1
22164.9
22160.6
22156.2
22151.7
22147.1
22142.5
22137.7
22132.9
22128
22123
22117.9
22112.8
22107.6
22102.3
22096.9
22091.5
22086
22080.5
22074.9
22069.3
22063.6
22058
22052.2
22046.5
22040.7
22034.9
22029.1
22023.3
22017.5
22011.7
22005.9
22000.1
21994.3
21988.6
21982.9
21977.2
21971.6
21966
21960.5
21955
21949.6
21944.2
21939
21933.8
21928.7
21923.7
21918.8
21914
21909.3
21904.7
21900.3
21895.9
21891.6
21887.5
21883.5
21879.6
21875.9
21872.3
21868.8
21865.4
21862.2
21859.2
21856.3
21853.5
21850.9
21848.5
21846.2
21844.1
21842.1
21840.3
21838.6
21837.1
21835.8
21834.7
21833.7
21832.8
21832.2
21831.7
21831.3
21831.2
21829.1
21829.1
21829
21828.9
21828.8
21828.5
21828.3
21828
21827.7
21827.4
21827
21826.6
21826.1
21825.6
21825.1
21824.5
21823.9
21823.3
21822.6
21821.9
21821.2
21820.4
21819.6
21818.8
21818
21817.1
21816.2
21815.2
21814.2
21813.2
21812.2
21811.1
21809.9
21808.7
21807.5
21806.2
21804.8
21803.5
21802
21800.5
21798.9
21797.3
21795.6
21793.9
21792
21790.1
21788.1
21786.1
21783.9
21781.7
21779.4
21777
21774.5
21771.9
21769.3
21766.5
21763.7
21760.8
21757.7
21754.6
21751.4
21748.1
21744.6
21741.1
21737.5
21733.8
21730
21726.1
21722.1
21718
21713.8
21709.5
21705.1
21700.6
21696
21691.4
21686.6
21681.8
21676.9
21671.9
21666.8
21661.6
21656.4
21651.1
21645.8
21640.3
21634.9
21629.3
21623.7
21618.1
21612.4
21606.7
21601
21595.2
21589.5
21583.7
21577.9
21572
21566.2
21560.4
21554.6
21548.8
21543
21537.3
21531.5
21525.8
21520.2
21514.6
21509
21503.6
21498.1
21492.8
21487.6
21482.4
21477.3
21472.3
21467.4
21462.6
21457.9
21453.3
21448.8
21444.4
21440.1
21436
21432
21428.1
21424.3
21420.7
21417.2
21413.9
21410.7
21407.6
21404.7
21402
21399.4
21396.9
21394.6
21392.5
21390.5
21388.7
21387
21385.5
21384.2
21383.1
21382.1
21381.2
21380.6
21380.1
21379.7
21379.6
21377.9
21377.9
21377.8
21377.7
21377.5
21377.3
21377.1
21376.8
21376.5
21376.2
21375.8
21375.4
21374.9
21374.4
21373.9
21373.3
21372.7
21372.1
21371.4
21370.7
21370
21369.3
21368.5
21367.7
21366.8
21366
21365
21364.1
21363.1
21362.1
21361.1
21360
21358.9
21357.7
21356.4
21355.2
21353.8
21352.5
21351
21349.5
21347.9
21346.3
21344.6
21342.9
21341
21339.1
21337.2
21335.1
21333
21330.7
21328.4
21326
21323.6
21321
21318.3
21315.6
21312.8
21309.8
21306.8
21303.7
21300.5
21297.1
21293.7
21290.2
21286.6
21282.9
21279.1
21275.2
21271.2
21267
21262.8
21258.5
21254.2
21249.7
21245.1
21240.4
21235.7
21230.8
21225.9
21220.9
21215.8
21210.6
21205.4
21200.1
21194.7
21189.3
21183.8
21178.2
21172.6
21167
21161.3
21155.6
21149.8
21144.1
21138.3
21132.4
21126.6
21120.8
21114.9
21109.1
21103.3
21097.4
21091.6
21085.9
21080.1
21074.4
21068.8
21063.2
21057.6
21052.1
21046.7
21041.3
21036
21030.8
21025.7
21020.7
21015.8
21010.9
21006.2
21001.6
20997.1
20992.7
20988.4
20984.3
20980.2
20976.3
20972.6
20968.9
20965.4
20962.1
20958.9
20955.8
20952.9
20950.1
20947.5
20945.1
20942.8
20940.6
20938.6
20936.8
20935.1
20933.6
20932.3
20931.1
20930.1
20929.3
20928.6
20928.1
20927.8
20927.6
20926.6
20926.6
20926.6
20926.5
20926.4
20926.2
20925.9
20925.7
20925.4
20925.1
20924.7
20924.3
20923.8
20923.3
20922.8
20922.2
20921.6
20921
20920.3
20919.6
20918.9
20918.2
20917.4
20916.6
20915.7
20914.9
20914
20913.1
20912.1
20911.1
20910
20909
20907.8
20906.7
20905.5
20904.2
20902.9
20901.5
20900.1
20898.6
20897
20895.4
20893.8
20892
20890.2
20888.3
20886.3
20884.3
20882.1
20879.9
20877.6
20875.2
20872.8
20870.2
20867.6
20864.8
20862
20859.1
20856
20852.9
20849.7
20846.4
20843
20839.5
20835.8
20832.1
20828.3
20824.4
20820.4
20816.3
20812.1
20807.8
20803.4
20798.9
20794.3
20789.6
20784.8
20780
20775
20770
20764.9
20759.7
20754.5
20749.2
20743.8
20738.3
20732.8
20727.2
20721.6
20715.9
20710.2
20704.5
20698.7
20692.9
20687.1
20681.2
20675.4
20669.5
20663.6
20657.8
20651.9
20646
20640.2
20634.4
20628.7
20622.9
20617.2
20611.6
20606
20600.5
20595
20589.6
20584.3
20579.1
20574
20568.9
20563.9
20559.1
20554.3
20549.7
20545.2
20540.7
20536.4
20532.3
20528.2
20524.3
20520.5
20516.9
20513.4
20510
20506.8
20503.7
20500.8
20498
20495.3
20492.9
20490.6
20488.4
20486.4
20484.6
20482.9
20481.4
20480.1
20478.9
20477.9
20477.1
20476.4
20475.9
20475.6
20475.4
20475.4
20475.4
20475.4
20475.3
20475.2
20475
20474.8
20474.6
20474.3
20474
20473.6
20473.2
20472.8
20472.3
20471.7
20471.2
20470.6
20469.9
20469.3
20468.6
20467.8
20467.1
20466.3
20465.5
20464.7
20463.9
20463
20462.1
20461.1
20460.1
20459.1
20458
20456.9
20455.8
20454.6
20453.3
20452
20450.7
20449.3
20447.8
20446.3
20444.7
20443
20441.3
20439.5
20437.6
20435.6
20433.6
20431.5
20429.3
20427
20424.6
20422.1
20419.6
20417
20414.2
20411.4
20408.5
20405.5
20402.3
20399.1
20395.8
20392.4
20388.9
20385.3
20381.6
20377.7
20373.8
20369.8
20365.7
20361.5
20357.2
20352.8
20348.2
20343.6
20339
20334.2
20329.3
20324.3
20319.3
20314.2
20309
20303.7
20298.4
20292.9
20287.5
20281.9
20276.3
20270.7
20265
20259.2
20253.4
20247.6
20241.8
20235.9
20230
20224.1
20218.2
20212.3
20206.4
20200.5
20194.6
20188.8
20182.9
20177.1
20171.3
20165.6
20159.9
20154.3
20148.7
20143.2
20137.8
20132.5
20127.2
20122
20116.9
20111.9
20107
20102.3
20097.6
20093
20088.6
20084.2
20080
20076
20072
20068.2
20064.5
20061
20057.6
20054.4
20051.3
20048.3
20045.5
20042.9
20040.4
20038.1
20035.9
20033.9
20032.1
20030.4
20028.9
20027.5
20026.3
20025.3
20024.5
20023.8
20023.3
20023
20022.8
20024.2
20024.2
20024.2
20024.1
20024
20023.9
20023.7
20023.5
20023.2
20022.9
20022.6
20022.2
20021.7
20021.2
20020.7
20020.1
20019.5
20018.9
20018.2
20017.5
20016.8
20016.1
20015.3
20014.5
20013.7
20012.9
20012
20011.1
20010.2
20009.2
20008.2
20007.2
20006.1
20005
20003.8
20002.6
20001.3
20000
19998.6
19997.1
19995.6
19994
19992.4
19990.7
19988.9
19987
19985.1
19983
19980.9
19978.8
19976.5
19974.1
19971.7
19969.1
19966.5
19963.8
19961
19958.1
19955
19951.9
19948.7
19945.4
19942
19938.5
19934.9
19931.2
19927.3
19923.4
19919.4
19915.3
19911
19906.7
19902.3
19897.8
19893.2
19888.5
19883.7
19878.8
19873.8
19868.7
19863.6
19858.3
19853
19847.7
19842.2
19836.7
19831.1
19825.5
19819.8
19814.1
19808.3
19802.5
19796.6
19790.7
19784.8
19778.9
19772.9
19767
19761
19755
19749.1
19743.2
19737.2
19731.3
19725.5
19719.7
19713.9
19708.2
19702.5
19696.9
19691.3
19685.8
19680.4
19675.1
19669.9
19664.8
19659.7
19654.8
19650
19645.2
19640.6
19636.2
19631.8
19627.5
19623.4
19619.5
19615.6
19611.9
19608.4
19604.9
19601.7
19598.5
19595.6
19592.8
19590.1
19587.6
19585.3
19583.1
19581.1
19579.2
19577.5
19576
19574.6
19573.4
19572.4
19571.6
19570.9
19570.4
19570.1
19569.9
19572.9
19572.9
19572.9
19572.9
19572.8
19572.7
19572.6
19572.4
19572.2
19571.9
19571.6
19571.2
19570.8
19570.3
19569.7
19569.2
19568.5
19567.9
19567.2
19566.6
19565.8
19565.1
19564.4
19563.6
19562.8
19562
19561.1
19560.3
19559.4
19558.4
19557.4
19556.4
19555.4
19554.3
19553.1
19551.9
19550.7
19549.4
19548
19546.6
19545.1
19543.5
19541.9
19540.2
19538.4
19536.6
19534.7
19532.7
19530.6
19528.4
19526.1
19523.8
19521.4
19518.8
19516.2
19513.5
19510.7
19507.8
19504.8
19501.7
19498.5
19495.2
19491.8
19488.3
19484.6
19480.9
19477.1
19473.2
19469.2
19465
19460.8
19456.5
19452
19447.5
19442.8
19438.1
19433.3
19428.4
19423.4
19418.3
19413.1
19407.8
19402.5
19397.1
19391.6
19386
19380.4
19374.7
19369
19363.2
19357.4
19351.5
19345.6
19339.7
19333.7
19327.7
19321.7
19315.7
19309.7
19303.7
19297.6
19291.6
19285.7
19279.7
19273.8
19267.9
19262.1
19256.3
19250.5
19244.9
19239.3
19233.7
19228.3
19222.9
19217.6
19212.4
19207.3
19202.3
19197.5
19192.7
19188
19183.5
19179.1
19174.8
19170.7
19166.6
19162.8
19159
19155.4
19152
19148.7
19145.5
19142.5
19139.7
19137
19134.5
19132.1
19129.9
19127.9
19126
19124.3
19122.8
19121.4
19120.2
19119.2
19118.3
19117.7
19117.1
19116.8
19116.6
19121.5
19121.6
19121.6
19121.6
19121.6
19121.6
19121.5
19121.4
19121.2
19121
19120.7
19120.3
19119.9
19119.4
19118.8
19118.2
19117.6
19117
19116.3
19115.6
19114.9
19114.2
19113.4
19112.7
19111.9
19111.1
19110.3
19109.4
19108.6
19107.7
19106.7
19105.7
19104.7
19103.6
19102.5
19101.3
19100.1
19098.8
19097.5
19096.1
19094.7
19093.1
19091.5
19089.9
19088.1
19086.3
19084.4
19082.4
19080.3
19078.2
19076
19073.6
19071.2
19068.7
19066.1
19063.4
19060.6
19057.7
19054.7
19051.6
19048.4
19045.1
19041.7
19038.2
19034.6
19030.9
19027.1
19023.1
19019.1
19014.9
19010.7
19006.4
19001.9
18997.3
18992.7
18987.9
18983.1
18978.1
18973.1
18968
18962.8
18957.5
18952.1
18946.6
18941.1
18935.5
18929.8
18924.1
18918.3
18912.5
18906.6
18900.7
18894.7
18888.7
18882.6
18876.6
18870.5
18864.4
18858.3
18852.2
18846.2
18840.1
18834
18828
18822
18816.1
18810.2
18804.3
18798.5
18792.7
18787.1
18781.5
18775.9
18770.5
18765.1
18759.9
18754.7
18749.7
18744.7
18739.9
18735.2
18730.6
18726.2
18721.8
18717.6
18713.6
18709.6
18705.9
18702.2
18698.7
18695.4
18692.2
18689.2
18686.3
18683.6
18681.1
18678.7
18676.4
18674.4
18672.5
18670.8
18669.2
18667.9
18666.6
18665.6
18664.7
18664.1
18663.5
18663.2
18663
18670.1
18670.2
18670.2
18670.3
18670.3
18670.4
18670.4
18670.4
18670.3
18670.1
18669.8
18669.4
18669
18668.5
18667.9
18667.3
18666.7
18666
18665.3
18664.7
18664
18663.2
18662.5
18661.8
18661
18660.3
18659.5
18658.7
18657.8
18657
18656.1
18655.1
18654.1
18653.1
18652
18650.9
18649.7
18648.4
18647.1
18645.8
18644.4
18642.9
18641.3
18639.6
18637.9
18636.1
18634.3
18632.3
18630.3
18628.2
18625.9
18623.6
18621.2
18618.8
18616.2
18613.5
18610.7
18607.8
18604.8
18601.8
18598.6
18595.3
18591.9
18588.4
18584.7
18581
18577.2
18573.3
18569.2
18565.1
18560.8
18556.4
18552
18547.4
18542.7
18537.9
18533
18528.1
18523
18517.8
18512.6
18507.2
18501.8
18496.3
18490.7
18485.1
18479.3
18473.6
18467.7
18461.8
18455.8
18449.8
18443.8
18437.7
18431.6
18425.5
18419.3
18413.2
18407
18400.8
18394.7
18388.5
18382.4
18376.3
18370.2
18364.1
18358.1
18352.2
18346.3
18340.5
18334.7
18329
18323.4
18317.9
18312.5
18307.2
18301.9
18296.8
18291.8
18286.9
18282.1
18277.5
18273
18268.6
18264.3
18260.2
18256.3
18252.4
18248.7
18245.2
18241.8
18238.6
18235.5
18232.6
18229.9
18227.3
18224.9
18222.7
18220.6
18218.7
18216.9
18215.3
18214
18212.7
18211.7
18210.8
18210.1
18209.6
18209.2
18209.1
18218.6
18218.6
18218.7
18218.9
18219
18219.2
18219.3
18219.4
18219.4
18219.3
18219
18218.7
18218.2
18217.7
18217.1
18216.4
18215.8
18215.1
18214.4
18213.7
18213
18212.3
18211.6
18210.9
18210.2
18209.5
18208.7
18208
18207.2
18206.3
18205.5
18204.6
18203.6
18202.6
18201.6
18200.5
18199.4
18198.2
18196.9
18195.6
18194.2
18192.7
18191.2
18189.6
18187.9
18186.1
18184.3
18182.4
18180.4
18178.3
18176.1
18173.8
18171.4
18169
18166.4
18163.7
18161
18158.1
18155.1
18152.1
18148.9
18145.6
18142.2
18138.7
18135.1
18131.3
18127.5
18123.6
18119.5
18115.3
18111.1
18106.7
18102.2
18097.6
18092.9
18088.1
18083.2
18078.2
18073
18067.8
18062.5
18057.1
18051.7
18046.1
18040.5
18034.8
18029
18023.1
18017.2
18011.2
18005.2
17999.1
17993
17986.8
17980.6
17974.4
17968.2
17961.9
17955.7
17949.4
17943.1
17936.9
17930.7
17924.4
17918.3
17912.1
17906
17900
17894
17888.1
17882.2
17876.4
17870.8
17865.1
17859.6
17854.2
17848.9
17843.7
17838.6
17833.7
17828.8
17824.1
17819.5
17815.1
17810.8
17806.6
17802.6
17798.7
17795
17791.4
17788
17784.7
17781.6
17778.6
17775.9
17773.2
17770.8
17768.5
17766.4
17764.5
17762.7
17761.1
17759.7
17758.5
17757.4
17756.5
17755.8
17755.3
17754.9
17754.7
17766.9
17766.9
17767.1
17767.3
17767.5
17767.8
17768.2
17768.5
17768.7
17768.6
17768.4
17768
17767.5
17766.9
17766.2
17765.5
17764.8
17764.1
17763.4
17762.8
17762.1
17761.4
17760.8
17760.1
17759.4
17758.7
17758
17757.3
17756.6
17755.8
17755
17754.1
17753.2
17752.3
17751.3
17750.2
17749.1
17748
17746.8
17745.5
17744.1
17742.7
17741.2
17739.6
17738
17736.3
17734.5
17732.6
17730.6
17728.5
17726.4
17724.1
17721.8
17719.3
17716.8
17714.2
17711.4
17708.6
17705.6
17702.5
17699.4
17696.1
17692.7
17689.2
17685.6
17681.9
17678
17674.1
17670
17665.8
17661.5
17657.1
17652.6
17648
17643.3
17638.4
17633.5
17628.4
17623.3
17618
17612.6
17607.2
17601.7
17596.1
17590.3
17584.6
17578.7
17572.8
17566.8
17560.7
17554.6
17548.4
17542.2
17536
17529.7
17523.4
17517
17510.7
17504.3
17497.9
17491.6
17485.2
17478.9
17472.6
17466.3
17460
17453.8
17447.7
17441.6
17435.5
17429.6
17423.7
17417.9
17412.2
17406.6
17401.1
17395.7
17390.4
17385.3
17380.2
17375.3
17370.5
17365.8
17361.3
17356.9
17352.7
17348.6
17344.7
17340.9
17337.3
17333.8
17330.5
17327.3
17324.3
17321.5
17318.8
17316.4
17314.1
17311.9
17309.9
17308.2
17306.5
17305.1
17303.8
17302.8
17301.9
17301.2
17300.6
17300.3
17300.1
17315
17315.1
17315.2
17315.5
17315.8
17316.4
17317.1
17317.7
17318.1
17318.2
17317.9
17317.5
17316.8
17316.1
17315.4
17314.6
17313.8
17313.1
17312.4
17311.8
17311.1
17310.5
17309.9
17309.2
17308.6
17308
17307.3
17306.7
17306
17305.3
17304.5
17303.7
17302.9
17302
17301
17300.1
17299
17297.9
17296.7
17295.5
17294.2
17292.8
17291.4
17289.9
17288.2
17286.6
17284.8
17282.9
17281
17279
17276.8
17274.6
17272.3
17269.9
17267.4
17264.8
17262
17259.2
17256.3
17253.2
17250.1
17246.8
17243.4
17239.9
17236.3
17232.6
17228.7
17224.8
17220.7
17216.5
17212.2
17207.8
17203.2
17198.6
17193.8
17188.9
17183.9
17178.8
17173.6
17168.3
17162.9
17157.4
17151.8
17146.1
17140.4
17134.5
17128.6
17122.5
17116.5
17110.3
17104.1
17097.8
17091.5
17085.2
17078.8
17072.4
17065.9
17059.5
17053
17046.5
17040
17033.5
17027.1
17020.6
17014.2
17007.8
17001.5
16995.2
16989
16982.9
16976.8
16970.8
16964.9
16959.1
16953.4
16947.8
16942.3
16936.9
16931.6
16926.5
16921.5
16916.6
16911.9
16907.3
16902.8
16898.5
16894.4
16890.4
16886.5
16882.8
16879.3
16875.9
16872.7
16869.7
16866.8
16864.1
16861.6
16859.2
16857.1
16855.1
16853.2
16851.6
16850.1
16848.9
16847.8
16846.9
16846.1
16845.6
16845.2
16845
16863.1
16863.2
16863.2
16863.5
16864
16864.9
16865.9
16866.9
16867.6
16867.8
16867.6
16867
16866.2
16865.3
16864.4
16863.5
16862.8
16862
16861.3
16860.7
16860.1
16859.5
16859
16858.4
16857.8
16857.3
16856.7
16856.1
16855.5
16854.8
16854.1
16853.4
16852.6
16851.8
16850.9
16850
16849
16847.9
16846.8
16845.6
16844.4
16843.1
16841.7
16840.2
16838.6
16837
16835.3
16833.5
16831.6
16829.6
16827.5
16825.3
16823
16820.6
16818.1
16815.5
16812.8
16810
16807.1
16804.1
16800.9
16797.7
16794.3
16790.8
16787.2
16783.5
16779.6
16775.7
16771.6
16767.4
16763
16758.6
16754
16749.3
16744.5
16739.6
16734.6
16729.4
16724.2
16718.8
16713.3
16707.8
16702.1
16696.3
16690.5
16684.6
16678.5
16672.4
16666.3
16660
16653.7
16647.3
16640.9
16634.4
16627.9
16621.4
16614.8
16608.2
16601.6
16595
16588.4
16581.8
16575.2
16568.6
16562.1
16555.5
16549.1
16542.7
16536.3
16530
16523.8
16517.7
16511.7
16505.8
16499.9
16494.2
16488.6
16483.1
16477.8
16472.5
16467.4
16462.5
16457.6
16453
16448.4
16444
16439.8
16435.7
16431.8
16428.1
16424.5
16421.1
16417.8
16414.7
16411.8
16409
16406.5
16404.1
16401.9
16399.8
16398
16396.3
16394.8
16393.5
16392.4
16391.5
16390.7
16390.2
16389.8
16389.6
16410.9
16410.9
16411
16411.1
16411.6
16412.6
16414
16415.5
16416.7
16417.3
16417.1
16416.3
16415.3
16414.2
16413.2
16412.3
16411.5
16410.7
16410.1
16409.5
16409
16408.5
16408
16407.5
16407.1
16406.6
16406.1
16405.6
16405
16404.4
16403.8
16403.1
16402.4
16401.7
16400.9
16400
16399.1
16398.1
16397
16395.9
16394.7
16393.5
16392.1
16390.7
16389.2
16387.6
16385.9
16384.1
16382.3
16380.3
16378.3
16376.1
16373.9
16371.5
16369.1
16366.5
16363.8
16361
16358.1
16355.1
16352
16348.8
16345.4
16341.9
16338.3
16334.6
16330.7
16326.7
16322.6
16318.4
16314.1
16309.6
16305
16300.3
16295.4
16290.5
16285.4
16280.2
16274.9
16269.5
16263.9
16258.3
16252.6
16246.7
16240.8
16234.7
16228.6
16222.4
16216.2
16209.8
16203.4
16196.9
16190.4
16183.8
16177.1
16170.5
16163.8
16157
16150.3
16143.5
16136.8
16130
16123.3
16116.5
16109.8
16103.2
16096.5
16090
16083.5
16077.1
16070.7
16064.5
16058.3
16052.2
16046.3
16040.4
16034.7
16029.1
16023.6
16018.3
16013.1
16008
16003.1
15998.4
15993.7
15989.3
15985
15980.8
15976.8
15973
15969.3
15965.8
15962.5
15959.4
15956.4
15953.6
15951
15948.6
15946.3
15944.2
15942.3
15940.6
15939.1
15937.8
15936.7
15935.7
15935
15934.4
15934
15933.8
15958
15958
15957.6
15957
15956.7
15957.3
15958.9
15961.3
15963.5
15965.1
15965.5
15964.9
15963.7
15962.5
15961.4
15960.6
15959.9
15959.2
15958.7
15958.2
15957.8
15957.4
15957.1
15956.7
15956.3
15955.9
15955.5
15955.1
15954.6
15954.1
15953.6
15953
15952.4
15951.7
15950.9
15950.1
15949.3
15948.4
15947.4
15946.3
15945.2
15944
15942.7
15941.3
15939.9
15938.3
15936.7
15935
15933.2
15931.3
15929.2
15927.1
15924.9
15922.6
15920.2
15917.6
15915
15912.2
15909.4
15906.4
15903.3
15900
15896.7
15893.2
15889.6
15885.9
15882
15878.1
15873.9
15869.7
15865.3
15860.8
15856.2
15851.5
15846.6
15841.6
15836.4
15831.2
15825.8
15820.3
15814.7
15809
15803.2
15797.2
15791.2
15785.1
15778.9
15772.6
15766.2
15759.7
15753.2
15746.6
15739.9
15733.2
15726.4
15719.6
15712.7
15705.9
15699
15692
15685.1
15678.2
15671.3
15664.4
15657.5
15650.7
15643.9
15637.2
15630.5
15623.9
15617.4
15611
15604.7
15598.5
15592.4
15586.4
15580.6
15574.9
15569.3
15563.8
15558.5
15553.3
15548.3
15543.5
15538.7
15534.2
15529.8
15525.6
15521.5
15517.6
15513.9
15510.3
15506.9
15503.7
15500.7
15497.8
15495.2
15492.7
15490.4
15488.3
15486.3
15484.6
15483.1
15481.7
15480.5
15479.6
15478.8
15478.2
15477.8
15477.6
15504.3
15503.9
15502.4
15500.3
15498.5
15498.3
15500.1
15503.4
15507.2
15510.5
15512.2
15512.3
15511.2
15509.8
15508.9
15508.3
15507.8
15507.4
15507.1
15506.8
15506.5
15506.3
15506.1
15505.8
15505.5
15505.3
15505
15504.6
15504.3
15503.9
15503.4
15502.9
15502.4
15501.8
15501.1
15500.4
15499.6
15498.8
15497.8
15496.8
15495.8
15494.6
15493.4
15492.1
15490.7
15489.2
15487.6
15486
15484.2
15482.3
15480.4
15478.3
15476.2
15473.9
15471.5
15469
15466.4
15463.6
15460.8
15457.8
15454.7
15451.5
15448.2
15444.7
15441.1
15437.4
15433.6
15429.6
15425.4
15421.2
15416.8
15412.3
15407.6
15402.8
15397.9
15392.9
15387.7
15382.4
15376.9
15371.4
15365.7
15359.9
15354
15347.9
15341.8
15335.6
15329.2
15322.8
15316.3
15309.7
15303
15296.3
15289.5
15282.6
15275.7
15268.7
15261.7
15254.7
15247.6
15240.5
15233.4
15226.3
15219.3
15212.2
15205.1
15198.1
15191.1
15184.2
15177.4
15170.6
15164
15157.4
15150.9
15144.5
15138.3
15132.2
15126.2
15120.3
15114.6
15109
15103.6
15098.3
15093.2
15088.3
15083.4
15078.8
15074.3
15070
15065.8
15061.9
15058.1
15054.4
15051
15047.7
15044.6
15041.7
15039
15036.4
15034.1
15031.9
15029.9
15028.2
15026.6
15025.2
15024
15023
15022.3
15021.7
15021.3
15021
15049.8
15048.9
15046.1
15042.1
15039
15038.2
15040.2
15044.4
15049.6
15054.2
15057.1
15058
15057.3
15056.1
15055.4
15055.2
15055.3
15055.3
15055.3
15055.2
15055.2
15055.1
15055.1
15055
15054.8
15054.7
15054.5
15054.3
15054
15053.7
15053.3
15052.9
15052.5
15051.9
15051.4
15050.7
15050
15049.3
15048.4
15047.5
15046.5
15045.4
15044.3
15043
15041.7
15040.3
15038.8
15037.1
15035.4
15033.6
15031.7
15029.7
15027.6
15025.3
15023
15020.5
15017.9
15015.2
15012.4
15009.5
15006.4
15003.2
14999.9
14996.5
14992.9
14989.2
14985.3
14981.3
14977.2
14972.9
14968.5
14963.9
14959.3
14954.4
14949.5
14944.4
14939.1
14933.7
14928.2
14922.6
14916.8
14910.9
14904.9
14898.8
14892.6
14886.2
14879.8
14873.2
14866.6
14859.8
14853
14846.1
14839.2
14832.2
14825.1
14818
14810.8
14803.6
14796.3
14789.1
14781.8
14774.5
14767.2
14759.9
14752.6
14745.4
14738.3
14731.2
14724.1
14717.2
14710.3
14703.6
14696.9
14690.4
14684
14677.7
14671.5
14665.5
14659.7
14654
14648.4
14643
14637.8
14632.7
14627.8
14623.1
14618.5
14614.1
14609.8
14605.8
14601.9
14598.2
14594.7
14591.3
14588.1
14585.2
14582.4
14579.8
14577.4
14575.2
14573.2
14571.3
14569.7
14568.3
14567.1
14566.1
14565.3
14564.7
14564.3
14564.1
14596.9
14595.7
14592.1
14587.2
14583
14581.8
14583.8
14588.2
14593.5
14598.3
14601.4
14602.6
14602.2
14601.3
14601
14601.6
14602.4
14603
14603.4
14603.6
14603.8
14604
14604.1
14604.1
14604.2
14604.1
14604.1
14604
14603.8
14603.6
14603.3
14603
14602.7
14602.2
14601.8
14601.2
14600.6
14599.9
14599.1
14598.3
14597.4
14596.4
14595.3
14594.1
14592.8
14591.5
14590
14588.5
14586.8
14585.1
14583.2
14581.2
14579.2
14577
14574.7
14572.2
14569.7
14567
14564.3
14561.4
14558.3
14555.2
14551.9
14548.4
14544.8
14541.1
14537.3
14533.3
14529.1
14524.9
14520.4
14515.8
14511.1
14506.3
14501.2
14496.1
14490.8
14485.3
14479.7
14474
14468.2
14462.2
14456.1
14449.8
14443.5
14437
14430.4
14423.7
14417
14410.1
14403.1
14396.1
14389
14381.8
14374.5
14367.2
14359.9
14352.5
14345
14337.6
14330.1
14322.6
14315.1
14307.6
14300.1
14292.6
14285.3
14277.9
14270.7
14263.5
14256.5
14249.5
14242.7
14235.9
14229.4
14222.9
14216.6
14210.5
14204.5
14198.6
14193
14187.4
14182.1
14176.9
14171.9
14167
14162.4
14157.8
14153.5
14149.4
14145.4
14141.6
14138
14134.5
14131.3
14128.3
14125.4
14122.7
14120.3
14118
14116
14114.1
14112.5
14111
14109.8
14108.7
14107.9
14107.3
14106.9
14106.6
14147
14145.5
14141.9
14137.1
14133
14131.4
14132.6
14136.2
14140.3
14143.8
14146
14146.6
14146.2
14145.8
14146.3
14147.7
14149.5
14150.7
14151.5
14152.1
14152.6
14152.9
14153.2
14153.4
14153.6
14153.7
14153.7
14153.7
14153.7
14153.6
14153.4
14153.2
14153
14152.6
14152.3
14151.8
14151.3
14150.7
14150
14149.2
14148.4
14147.5
14146.4
14145.3
14144.1
14142.8
14141.5
14140
14138.4
14136.7
14134.9
14133
14130.9
14128.8
14126.5
14124.2
14121.7
14119.1
14116.3
14113.4
14110.4
14107.3
14104
14100.6
14097
14093.3
14089.5
14085.5
14081.3
14077
14072.6
14068
14063.2
14058.3
14053.3
14048
14042.7
14037.1
14031.5
14025.7
14019.7
14013.6
14007.4
14001
13994.6
13988
13981.2
13974.4
13967.5
13960.5
13953.3
13946.1
13938.9
13931.5
13924.1
13916.6
13909
13901.4
13893.8
13886.1
13878.4
13870.6
13862.9
13855.1
13847.4
13839.8
13832.1
13824.6
13817.1
13809.7
13802.4
13795.2
13788.2
13781.3
13774.5
13767.9
13761.4
13755.1
13749
13743
13737.2
13731.5
13726
13720.7
13715.6
13710.6
13705.9
13701.2
13696.8
13692.6
13688.5
13684.6
13680.9
13677.4
13674.1
13671
13668
13665.3
13662.8
13660.5
13658.4
13656.4
13654.8
13653.3
13652
13650.9
13650.1
13649.4
13649
13648.8
13699.6
13698.5
13695.3
13691.2
13687.7
13685.8
13685.9
13687.6
13689.5
13690.9
13691.3
13690.9
13690.4
13690.6
13692
13694.4
13696.9
13698.7
13699.9
13700.8
13701.4
13702
13702.4
13702.8
13703.1
13703.3
13703.5
13703.6
13703.7
13703.7
13703.6
13703.5
13703.4
13703.2
13702.9
13702.5
13702.1
13701.6
13701
13700.3
13699.5
13698.7
13697.8
13696.7
13695.6
13694.4
13693.1
13691.6
13690.1
13688.5
13686.7
13684.9
13682.9
13680.8
13678.6
13676.3
13673.8
13671.3
13668.6
13665.7
13662.8
13659.7
13656.4
13653
13649.5
13645.8
13641.9
13637.9
13633.8
13629.5
13625
13620.4
13615.6
13610.6
13605.5
13600.2
13594.8
13589.2
13583.5
13577.5
13571.5
13565.3
13558.9
13552.5
13545.8
13539.1
13532.2
13525.3
13518.2
13511
13503.7
13496.3
13488.8
13481.3
13473.6
13466
13458.2
13450.4
13442.5
13434.6
13426.7
13418.7
13410.7
13402.7
13394.7
13386.7
13378.8
13371
13363.3
13355.6
13348.1
13340.7
13333.4
13326.3
13319.3
13312.5
13305.9
13299.4
13293.1
13287
13281
13275.3
13269.7
13264.2
13259
13253.9
13249
13244.3
13239.8
13235.4
13231.2
13227.3
13223.5
13219.9
13216.5
13213.3
13210.3
13207.5
13204.9
13202.5
13200.3
13198.4
13196.6
13195.1
13193.8
13192.7
13191.8
13191.2
13190.7
13190.5
13252.4
13252
13249.9
13247.1
13244.3
13242.2
13241
13240.5
13240
13239.1
13237.9
13236.7
13236.3
13237.2
13239.4
13242.4
13245.3
13247.3
13248.7
13249.7
13250.6
13251.2
13251.8
13252.3
13252.7
13253
13253.3
13253.6
13253.8
13253.9
13253.9
13254
13253.9
13253.8
13253.6
13253.3
13253
13252.6
13252.1
13251.5
13250.8
13250.1
13249.2
13248.3
13247.2
13246.1
13244.8
13243.5
13242
13240.4
13238.8
13237
13235.1
13233
13230.9
13228.6
13226.2
13223.7
13221
13218.2
13215.3
13212.2
13209
13205.7
13202.1
13198.5
13194.6
13190.6
13186.5
13182.2
13177.7
13173
13168.2
13163.2
13158
13152.7
13147.2
13141.5
13135.7
13129.7
13123.5
13117.2
13110.7
13104.1
13097.3
13090.4
13083.4
13076.2
13069
13061.6
13054.1
13046.5
13038.9
13031.1
13023.3
13015.4
13007.4
12999.4
12991.3
12983.1
12974.9
12966.7
12958.4
12950.1
12941.8
12933.6
12925.4
12917.3
12909.3
12901.4
12893.6
12885.9
12878.4
12871.1
12863.9
12856.9
12850.1
12843.4
12837
12830.7
12824.6
12818.7
12812.9
12807.4
12802
12796.8
12791.8
12787
12782.3
12777.9
12773.6
12769.5
12765.6
12761.9
12758.4
12755.1
12752.1
12749.2
12746.5
12744.1
12741.8
12739.8
12738
12736.4
12735.1
12734
12733.1
12732.4
12732
12731.7
12803.5
12803.2
12802.7
12801.4
12799.3
12796.9
12794.7
12792.6
12790.5
12788.3
12786.3
12785
12784.9
12786.3
12788.8
12792
12794.6
12796.6
12798
12799
12799.9
12800.7
12801.4
12801.9
12802.4
12802.9
12803.3
12803.6
12803.9
12804.2
12804.4
12804.5
12804.5
12804.5
12804.5
12804.3
12804.1
12803.8
12803.4
12802.9
12802.3
12801.6
12800.9
12800
12799
12797.9
12796.8
12795.5
12794.1
12792.6
12791
12789.3
12787.4
12785.4
12783.4
12781.1
12778.8
12776.3
12773.7
12771
12768.1
12765.1
12761.9
12758.6
12755.1
12751.4
12747.6
12743.6
12739.5
12735.1
12730.6
12726
12721.1
12716.1
12710.8
12705.4
12699.8
12694.1
12688.1
12682
12675.7
12669.3
12662.7
12655.9
12649
12641.9
12634.7
12627.4
12619.9
12612.4
12604.7
12596.9
12589
12581.1
12573
12564.9
12556.7
12548.5
12540.1
12531.7
12523.2
12514.7
12506.1
12497.5
12488.8
12480.3
12471.8
12463.3
12455
12446.8
12438.8
12430.9
12423.1
12415.5
12408.1
12400.9
12393.9
12387.1
12380.4
12374
12367.8
12361.7
12355.8
12350.2
12344.7
12339.3
12334.2
12329.3
12324.5
12319.9
12315.5
12311.4
12307.4
12303.6
12300
12296.6
12293.4
12290.5
12287.7
12285.2
12282.9
12280.8
12279
12277.3
12275.9
12274.8
12273.9
12273.2
12272.7
12272.4
12352.7
12352.5
12352.8
12352.3
12350.6
12348.3
12345.8
12343.3
12340.8
12338.4
12336.6
12335.6
12336
12337.7
12340.1
12342.6
12344.8
12346.4
12347.6
12348.7
12349.5
12350.3
12351
12351.7
12352.3
12352.8
12353.3
12353.8
12354.2
12354.6
12354.9
12355.1
12355.3
12355.4
12355.4
12355.4
12355.3
12355.1
12354.8
12354.4
12353.9
12353.3
12352.6
12351.9
12351
12350
12348.9
12347.7
12346.4
12344.9
12343.4
12341.7
12339.9
12338
12336
12333.9
12331.6
12329.2
12326.6
12323.9
12321.1
12318.1
12315
12311.7
12308.2
12304.6
12300.8
12296.9
12292.7
12288.4
12283.9
12279.2
12274.3
12269.2
12263.9
12258.4
12252.8
12246.9
12240.9
12234.7
12228.3
12221.7
12214.9
12208
12200.9
12193.6
12186.2
12178.7
12171
12163.3
12155.4
12147.4
12139.3
12131.1
12122.8
12114.5
12106
12097.5
12088.9
12080.3
12071.5
12062.6
12053.7
12044.7
12035.7
12026.8
12017.9
12009.2
12000.5
11992
11983.7
11975.5
11967.5
11959.6
11952
11944.5
11937.3
11930.3
11923.5
11916.9
11910.6
11904.4
11898.4
11892.6
11886.9
11881.5
11876.3
11871.2
11866.3
11861.6
11857.1
11852.8
11848.7
11844.8
11841.1
11837.6
11834.3
11831.3
11828.4
11825.8
11823.5
11821.3
11819.4
11817.7
11816.3
11815.1
11814.2
11813.4
11812.9
11812.7
11900.4
11900.5
11900.8
11900.4
11899.1
11897.2
11895.2
11893.1
11891.1
11889.3
11888.2
11887.8
11888.5
11889.9
11891.8
11893.7
11895.2
11896.4
11897.5
11898.4
11899.2
11900
11900.8
11901.5
11902.2
11902.8
11903.5
11904
11904.6
11905
11905.5
11905.8
11906.1
11906.4
11906.5
11906.6
11906.6
11906.5
11906.3
11906
11905.7
11905.2
11904.6
11903.9
11903.1
11902.2
11901.2
11900
11898.8
11897.4
11896
11894.4
11892.7
11890.8
11888.9
11886.8
11884.6
11882.2
11879.8
11877.1
11874.4
11871.4
11868.3
11865.1
11861.7
11858.1
11854.3
11850.4
11846.2
11841.9
11837.4
11832.7
11827.8
11822.6
11817.3
11811.8
11806
11800.1
11793.9
11787.6
11781
11774.3
11767.4
11760.3
11753
11745.5
11737.9
11730.2
11722.3
11714.3
11706.1
11697.9
11689.6
11681.1
11672.6
11664
11655.3
11646.6
11637.8
11628.8
11619.8
11610.6
11601.2
11591.8
11582.4
11573
11563.8
11554.7
11545.7
11536.9
11528.3
11519.8
11511.5
11503.4
11495.4
11487.8
11480.3
11473.2
11466.2
11459.5
11453
11446.7
11440.5
11434.6
11428.8
11423.3
11417.9
11412.7
11407.7
11402.9
11398.2
11393.8
11389.6
11385.5
11381.7
11378.1
11374.8
11371.6
11368.7
11366
11363.5
11361.3
11359.3
11357.6
11356.1
11354.9
11353.9
11353.2
11352.7
11352.4
11447.6
11447.6
11447.7
11447.4
11446.5
11445.2
11443.9
11442.5
11441.4
11440.5
11440
11440
11440.7
11441.8
11443
11444.3
11445.3
11446.3
11447.2
11448
11448.9
11449.7
11450.5
11451.3
11452.1
11452.9
11453.6
11454.3
11455
11455.6
11456.2
11456.7
11457.1
11457.5
11457.8
11458
11458.1
11458.1
11458
11457.8
11457.6
11457.2
11456.7
11456.1
11455.4
11454.6
11453.6
11452.6
11451.4
11450.1
11448.7
11447.2
11445.6
11443.8
11441.9
11439.9
11437.8
11435.5
11433.1
11430.5
11427.8
11425
11421.9
11418.7
11415.4
11411.8
11408.1
11404.2
11400.1
11395.8
11391.2
11386.5
11381.6
11376.4
11371
11365.4
11359.6
11353.5
11347.3
11340.8
11334.1
11327.2
11320.1
11312.8
11305.3
11297.7
11289.8
11281.9
11273.7
11265.4
11257
11248.5
11239.9
11231.2
11222.4
11213.5
11204.6
11195.6
11186.5
11177.3
11167.9
11158.4
11148.6
11138.7
11128.7
11118.8
11109.2
11099.8
11090.6
11081.4
11072.5
11063.7
11055.1
11046.7
11038.5
11030.5
11022.9
11015.6
11008.5
11001.6
10995
10988.5
10982.3
10976.2
10970.3
10964.7
10959.1
10953.8
10948.7
10943.7
10938.9
10934.4
10930
10925.9
10921.9
10918.2