/*--------------------------------*- C++ -*----------------------------------*\
| =========                 |                                                 |
| \\      /  F ield         | OpenFOAM: The Open Source CFD Toolbox           |
|  \\    /   O peration     | Version:  v2006                                 |
|   \\  /    A nd           | Website:  www.openfoam.com                      |
|    \\/     M anipulation  |                                                 |
\*---------------------------------------------------------------------------*/
FoamFile
{
    version     2.0;
    format      ascii;
    class       volScalarField;
    location    "18";
    object      p_rgh;
}
// * * * * * * * * * * * * * * * * * * * * * * * * * * * * * * * * * * * * * //

dimensions      [1 -1 -2 0 0 0 0];


internalField   nonuniform List<scalar> 
50000
(
2885.98
2885.96
2885.9
2885.78
2885.62
2885.42
2885.18
2884.9
2884.58
2884.23
2883.84
2883.42
2882.95
2882.45
2881.92
2881.35
2880.74
2880.11
2879.44
2878.74
2878.01
2877.25
2876.46
2875.64
2874.79
2873.91
2872.99
2872.04
2871.06
2870.03
2868.97
2867.87
2866.72
2865.54
2864.3
2863.01
2861.67
2860.27
2858.82
2857.31
2855.74
2854.11
2852.41
2850.64
2848.8
2846.88
2844.89
2842.83
2840.68
2838.45
2836.13
2833.74
2831.25
2828.68
2826.01
2823.26
2820.41
2817.48
2814.44
2811.31
2808.09
2804.77
2801.35
2797.84
2794.22
2790.51
2786.7
2782.79
2778.79
2774.69
2770.49
2766.2
2761.82
2757.34
2752.77
2748.11
2743.36
2738.53
2733.62
2728.62
2723.55
2718.4
2713.18
2707.89
2702.54
2697.13
2691.66
2686.13
2680.56
2674.94
2669.28
2663.58
2657.85
2652.1
2646.32
2640.53
2634.73
2628.92
2623.11
2617.31
2611.51
2605.73
2599.97
2594.23
2588.52
2582.84
2577.21
2571.62
2566.09
2560.62
2555.21
2549.88
2544.62
2539.44
2534.36
2529.37
2524.47
2519.67
2514.97
2510.37
2505.89
2501.52
2497.27
2493.13
2489.13
2485.25
2481.5
2477.89
2474.41
2471.07
2467.88
2464.83
2461.93
2459.18
2456.57
2454.13
2451.84
2449.7
2447.73
2445.92
2444.26
2442.77
2441.45
2440.29
2439.29
2438.46
2437.8
2437.3
2436.97
2436.8
2885.99
2885.97
2885.91
2885.8
2885.64
2885.44
2885.2
2884.93
2884.62
2884.27
2883.88
2883.46
2883
2882.5
2881.96
2881.39
2880.79
2880.16
2879.49
2878.79
2878.06
2877.31
2876.52
2875.7
2874.85
2873.97
2873.06
2872.11
2871.13
2870.11
2869.05
2867.95
2866.8
2865.6
2864.36
2863.07
2861.74
2860.35
2858.9
2857.4
2855.84
2854.21
2852.52
2850.75
2848.92
2847.01
2845.03
2842.97
2840.82
2838.6
2836.29
2833.89
2831.41
2828.84
2826.18
2823.43
2820.58
2817.65
2814.61
2811.49
2808.26
2804.94
2801.53
2798.01
2794.4
2790.69
2786.88
2782.97
2778.96
2774.86
2770.66
2766.37
2761.98
2757.5
2752.93
2748.26
2743.51
2738.68
2733.76
2728.76
2723.68
2718.53
2713.3
2708.01
2702.65
2697.23
2691.75
2686.22
2680.64
2675.01
2669.34
2663.64
2657.9
2652.14
2646.35
2640.56
2634.75
2628.93
2623.11
2617.29
2611.49
2605.69
2599.91
2594.15
2588.42
2582.73
2577.08
2571.48
2565.93
2560.44
2555.02
2549.7
2544.45
2539.28
2534.2
2529.2
2524.29
2519.48
2514.77
2510.16
2505.67
2501.29
2497.03
2492.89
2488.88
2484.99
2481.24
2477.62
2474.13
2470.79
2467.59
2464.54
2461.63
2458.87
2456.27
2453.82
2451.52
2449.38
2447.4
2445.59
2443.93
2442.44
2441.11
2439.94
2438.95
2438.11
2437.45
2436.95
2436.62
2436.45
2886.01
2886
2885.95
2885.84
2885.69
2885.5
2885.26
2885
2884.69
2884.35
2883.97
2883.55
2883.09
2882.6
2882.06
2881.49
2880.89
2880.26
2879.59
2878.9
2878.17
2877.42
2876.63
2875.82
2874.98
2874.1
2873.2
2872.26
2871.28
2870.27
2869.22
2868.14
2867
2865.83
2864.6
2863.32
2861.99
2860.6
2859.16
2857.66
2856.1
2854.47
2852.78
2851.02
2849.19
2847.28
2845.3
2843.25
2841.11
2838.89
2836.58
2834.19
2831.72
2829.15
2826.5
2823.75
2820.91
2817.98
2814.95
2811.82
2808.6
2805.28
2801.87
2798.35
2794.74
2791.03
2787.22
2783.31
2779.3
2775.2
2770.99
2766.69
2762.3
2757.81
2753.24
2748.57
2743.81
2738.97
2734.04
2729.03
2723.94
2718.78
2713.54
2708.23
2702.86
2697.43
2691.93
2686.39
2680.79
2675.14
2669.46
2663.74
2657.98
2652.2
2646.4
2640.58
2634.75
2628.91
2623.07
2617.23
2611.4
2605.59
2599.79
2594.02
2588.28
2582.58
2576.92
2571.31
2565.76
2560.26
2554.84
2549.47
2544.19
2538.99
2533.87
2528.85
2523.92
2519.09
2514.36
2509.74
2505.23
2500.84
2496.56
2492.41
2488.38
2484.48
2480.72
2477.08
2473.59
2470.24
2467.03
2463.96
2461.04
2458.28
2455.66
2453.21
2450.9
2448.76
2446.77
2444.95
2443.29
2441.79
2440.46
2439.29
2438.29
2437.45
2436.78
2436.28
2435.95
2435.78
2886.05
2886.04
2886
2885.9
2885.76
2885.58
2885.36
2885.1
2884.81
2884.47
2884.1
2883.69
2883.23
2882.74
2882.21
2881.64
2881.04
2880.4
2879.74
2879.04
2878.32
2877.57
2876.79
2875.99
2875.15
2874.29
2873.39
2872.46
2871.5
2870.49
2869.45
2868.37
2867.25
2866.09
2864.87
2863.61
2862.3
2860.92
2859.5
2858.01
2856.46
2854.85
2853.16
2851.41
2849.59
2847.7
2845.73
2843.68
2841.55
2839.33
2837.04
2834.66
2832.19
2829.63
2826.98
2824.24
2821.4
2818.48
2815.45
2812.33
2809.11
2805.8
2802.38
2798.87
2795.25
2791.54
2787.73
2783.82
2779.8
2775.69
2771.49
2767.18
2762.78
2758.29
2753.7
2749.02
2744.25
2739.39
2734.45
2729.43
2724.33
2719.15
2713.89
2708.57
2703.18
2697.72
2692.21
2686.64
2681.02
2675.35
2669.64
2663.9
2658.12
2652.31
2646.48
2640.63
2634.77
2628.9
2623.03
2617.16
2611.3
2605.46
2599.63
2593.83
2588.07
2582.33
2576.64
2571
2565.41
2559.87
2554.42
2549.04
2543.73
2538.51
2533.36
2528.31
2523.36
2518.5
2513.75
2509.1
2504.57
2500.15
2495.85
2491.68
2487.63
2483.71
2479.93
2476.28
2472.77
2469.4
2466.17
2463.09
2460.16
2457.38
2454.76
2452.29
2449.98
2447.82
2445.83
2444
2442.33
2440.82
2439.48
2438.31
2437.31
2436.47
2435.8
2435.3
2434.96
2434.79
2886.07
2886.08
2886.05
2885.97
2885.85
2885.68
2885.48
2885.23
2884.96
2884.64
2884.28
2883.87
2883.42
2882.93
2882.4
2881.83
2881.23
2880.59
2879.93
2879.24
2878.52
2877.77
2877
2876.2
2875.38
2874.53
2873.64
2872.73
2871.78
2870.8
2869.78
2868.71
2867.61
2866.46
2865.26
2864.01
2862.72
2861.36
2859.95
2858.48
2856.94
2855.34
2853.68
2851.94
2850.13
2848.25
2846.29
2844.25
2842.13
2839.93
2837.65
2835.28
2832.82
2830.27
2827.63
2824.89
2822.07
2819.14
2816.12
2813.01
2809.79
2806.48
2803.07
2799.55
2795.94
2792.23
2788.41
2784.49
2780.48
2776.36
2772.15
2767.83
2763.42
2758.92
2754.32
2749.63
2744.84
2739.97
2735.01
2729.97
2724.85
2719.65
2714.37
2709.02
2703.6
2698.12
2692.58
2686.98
2681.33
2675.63
2669.89
2664.11
2658.29
2652.45
2646.58
2640.7
2634.8
2628.89
2622.98
2617.07
2611.17
2605.29
2599.42
2593.59
2587.78
2582.01
2576.28
2570.6
2564.98
2559.42
2553.92
2548.49
2543.14
2537.87
2532.69
2527.6
2522.61
2517.71
2512.93
2508.25
2503.68
2499.23
2494.91
2490.7
2486.63
2482.68
2478.87
2475.2
2471.66
2468.27
2465.03
2461.93
2458.98
2456.19
2453.55
2451.06
2448.74
2446.57
2444.57
2442.73
2441.05
2439.54
2438.19
2437.01
2436
2435.16
2434.49
2433.99
2433.64
2433.47
2886.08
2886.1
2886.08
2886.03
2885.93
2885.79
2885.61
2885.4
2885.14
2884.85
2884.5
2884.1
2883.66
2883.17
2882.64
2882.07
2881.46
2880.83
2880.16
2879.47
2878.76
2878.02
2877.26
2876.47
2875.66
2874.82
2873.95
2873.06
2872.13
2871.16
2870.16
2869.12
2868.04
2866.91
2865.73
2864.51
2863.23
2861.9
2860.51
2859.05
2857.54
2855.96
2854.31
2852.59
2850.8
2848.94
2847
2844.97
2842.87
2840.68
2838.41
2836.05
2833.61
2831.07
2828.44
2825.71
2822.9
2819.98
2816.97
2813.86
2810.65
2807.34
2803.93
2800.42
2796.8
2793.08
2789.27
2785.35
2781.32
2777.2
2772.98
2768.65
2764.23
2759.71
2755.1
2750.39
2745.59
2740.69
2735.71
2730.65
2725.5
2720.27
2714.97
2709.59
2704.14
2698.63
2693.05
2687.41
2681.73
2675.99
2670.2
2664.38
2658.52
2652.63
2646.72
2640.79
2634.84
2628.88
2622.92
2616.97
2611.02
2605.08
2599.16
2593.27
2587.42
2581.59
2575.81
2570.08
2564.41
2558.79
2553.24
2547.77
2542.37
2537.06
2531.83
2526.7
2521.66
2516.72
2511.89
2507.17
2502.57
2498.08
2493.72
2489.48
2485.37
2481.39
2477.55
2473.84
2470.28
2466.87
2463.59
2460.47
2457.5
2454.69
2452.03
2449.53
2447.18
2445
2442.98
2441.13
2439.44
2437.92
2436.57
2435.38
2434.36
2433.52
2432.84
2432.33
2431.99
2431.81
2886.06
2886.08
2886.09
2886.06
2886
2885.91
2885.77
2885.59
2885.37
2885.1
2884.77
2884.39
2883.95
2883.46
2882.93
2882.35
2881.74
2881.1
2880.43
2879.74
2879.03
2878.3
2877.55
2876.78
2875.98
2875.17
2874.32
2873.45
2872.54
2871.6
2870.63
2869.61
2868.55
2867.45
2866.3
2865.1
2863.85
2862.54
2861.18
2859.75
2858.26
2856.7
2855.08
2853.38
2851.61
2849.77
2847.85
2845.84
2843.76
2841.59
2839.33
2836.99
2834.56
2832.03
2829.42
2826.7
2823.9
2820.99
2817.99
2814.88
2811.68
2808.37
2804.96
2801.45
2797.84
2794.12
2790.3
2786.37
2782.34
2778.21
2773.98
2769.64
2765.21
2760.67
2756.04
2751.31
2746.48
2741.57
2736.56
2731.47
2726.29
2721.03
2715.69
2710.28
2704.79
2699.24
2693.62
2687.94
2682.2
2676.42
2670.58
2664.71
2658.8
2652.86
2646.89
2640.9
2634.89
2628.88
2622.86
2616.84
2610.83
2604.83
2598.86
2592.9
2586.98
2581.1
2575.26
2569.47
2563.73
2558.06
2552.45
2546.91
2541.46
2536.09
2530.8
2525.61
2520.52
2515.53
2510.65
2505.88
2501.23
2496.7
2492.29
2488.01
2483.86
2479.84
2475.96
2472.22
2468.62
2465.17
2461.87
2458.72
2455.73
2452.88
2450.2
2447.68
2445.31
2443.11
2441.08
2439.21
2437.5
2435.97
2434.6
2433.41
2432.38
2431.53
2430.85
2430.34
2429.99
2429.81
2885.98
2886.01
2886.04
2886.06
2886.05
2886.01
2885.94
2885.82
2885.64
2885.41
2885.11
2884.74
2884.3
2883.81
2883.26
2882.67
2882.05
2881.4
2880.73
2880.04
2879.34
2878.62
2877.88
2877.13
2876.35
2875.56
2874.74
2873.89
2873.02
2872.11
2871.16
2870.18
2869.15
2868.08
2866.96
2865.8
2864.57
2863.3
2861.96
2860.56
2859.1
2857.57
2855.97
2854.3
2852.56
2850.74
2848.84
2846.86
2844.8
2842.65
2840.41
2838.09
2835.67
2833.16
2830.56
2827.86
2825.07
2822.17
2819.18
2816.08
2812.89
2809.59
2806.18
2802.67
2799.06
2795.34
2791.51
2787.58
2783.54
2779.4
2775.15
2770.8
2766.35
2761.8
2757.14
2752.39
2747.54
2742.6
2737.56
2732.43
2727.22
2721.92
2716.54
2711.08
2705.55
2699.95
2694.28
2688.55
2682.77
2676.93
2671.04
2665.1
2659.13
2653.12
2647.09
2641.03
2634.96
2628.88
2622.79
2616.7
2610.62
2604.55
2598.49
2592.47
2586.47
2580.52
2574.6
2568.74
2562.93
2557.18
2551.51
2545.9
2540.38
2534.94
2529.59
2524.33
2519.18
2514.13
2509.19
2504.37
2499.66
2495.07
2490.61
2486.28
2482.08
2478.02
2474.1
2470.32
2466.68
2463.2
2459.86
2456.67
2453.65
2450.77
2448.06
2445.51
2443.12
2440.9
2438.84
2436.95
2435.23
2433.68
2432.3
2431.1
2430.06
2429.2
2428.51
2427.99
2427.65
2427.47
2885.82
2885.86
2885.93
2885.99
2886.05
2886.1
2886.11
2886.08
2885.97
2885.79
2885.52
2885.16
2884.71
2884.2
2883.63
2883.02
2882.39
2881.73
2881.05
2880.36
2879.66
2878.96
2878.24
2877.51
2876.76
2875.99
2875.2
2874.39
2873.55
2872.68
2871.77
2870.82
2869.83
2868.8
2867.72
2866.59
2865.4
2864.16
2862.86
2861.49
2860.06
2858.56
2857
2855.36
2853.64
2851.85
2849.98
2848.02
2845.99
2843.86
2841.65
2839.35
2836.95
2834.46
2831.88
2829.19
2826.41
2823.53
2820.55
2817.46
2814.27
2810.98
2807.58
2804.07
2800.46
2796.73
2792.9
2788.97
2784.92
2780.77
2776.51
2772.14
2767.67
2763.09
2758.41
2753.63
2748.76
2743.78
2738.71
2733.54
2728.29
2722.95
2717.52
2712.02
2706.44
2700.78
2695.06
2689.27
2683.42
2677.51
2671.56
2665.56
2659.51
2653.44
2647.33
2641.2
2635.04
2628.88
2622.71
2616.54
2610.37
2604.22
2598.08
2591.97
2585.89
2579.85
2573.85
2567.9
2562.01
2556.18
2550.42
2544.74
2539.14
2533.62
2528.19
2522.87
2517.64
2512.52
2507.52
2502.62
2497.85
2493.21
2488.69
2484.3
2480.05
2475.94
2471.97
2468.14
2464.46
2460.93
2457.55
2454.33
2451.26
2448.35
2445.61
2443.03
2440.61
2438.36
2436.28
2434.37
2432.63
2431.06
2429.66
2428.44
2427.39
2426.52
2425.82
2425.3
2424.95
2424.77
2885.54
2885.6
2885.7
2885.83
2885.97
2886.13
2886.28
2886.38
2886.38
2886.26
2886.02
2885.66
2885.19
2884.65
2884.04
2883.4
2882.73
2882.05
2881.37
2880.68
2880
2879.31
2878.61
2877.91
2877.19
2876.46
2875.71
2874.94
2874.14
2873.31
2872.44
2871.54
2870.59
2869.6
2868.56
2867.47
2866.33
2865.13
2863.86
2862.54
2861.15
2859.69
2858.15
2856.55
2854.87
2853.11
2851.27
2849.34
2847.33
2845.23
2843.05
2840.77
2838.4
2835.93
2833.36
2830.7
2827.94
2825.07
2822.1
2819.02
2815.84
2812.56
2809.16
2805.65
2802.04
2798.32
2794.48
2790.54
2786.48
2782.32
2778.04
2773.66
2769.16
2764.56
2759.86
2755.05
2750.14
2745.13
2740.01
2734.81
2729.51
2724.12
2718.64
2713.08
2707.44
2701.73
2695.94
2690.08
2684.17
2678.19
2672.16
2666.08
2659.96
2653.8
2647.6
2641.39
2635.15
2628.89
2622.63
2616.36
2610.1
2603.85
2597.62
2591.41
2585.23
2579.09
2573
2566.95
2560.97
2555.04
2549.19
2543.42
2537.72
2532.12
2526.61
2521.2
2515.89
2510.7
2505.61
2500.65
2495.81
2491.09
2486.51
2482.06
2477.75
2473.58
2469.55
2465.67
2461.94
2458.36
2454.94
2451.67
2448.56
2445.62
2442.83
2440.22
2437.77
2435.49
2433.38
2431.44
2429.68
2428.09
2426.67
2425.44
2424.37
2423.49
2422.78
2422.25
2421.9
2421.71
2885.11
2885.18
2885.3
2885.48
2885.73
2886.05
2886.42
2886.73
2886.89
2886.86
2886.64
2886.25
2885.73
2885.13
2884.46
2883.77
2883.06
2882.36
2881.67
2880.99
2880.32
2879.65
2878.99
2878.32
2877.65
2876.96
2876.26
2875.53
2874.78
2874
2873.18
2872.33
2871.43
2870.49
2869.5
2868.46
2867.36
2866.2
2864.98
2863.7
2862.35
2860.93
2859.44
2857.88
2856.23
2854.51
2852.7
2850.81
2848.83
2846.77
2844.61
2842.36
2840.01
2837.57
2835.02
2832.38
2829.64
2826.79
2823.83
2820.77
2817.6
2814.32
2810.93
2807.43
2803.81
2800.09
2796.25
2792.3
2788.23
2784.05
2779.76
2775.36
2770.84
2766.22
2761.48
2756.64
2751.69
2746.64
2741.48
2736.23
2730.88
2725.43
2719.9
2714.28
2708.58
2702.79
2696.93
2691
2685.01
2678.95
2672.84
2666.67
2660.46
2654.21
2647.92
2641.61
2635.27
2628.91
2622.54
2616.17
2609.81
2603.45
2597.11
2590.79
2584.5
2578.25
2572.05
2565.89
2559.8
2553.77
2547.81
2541.93
2536.14
2530.44
2524.83
2519.33
2513.93
2508.65
2503.48
2498.44
2493.52
2488.73
2484.07
2479.55
2475.17
2470.94
2466.85
2462.91
2459.12
2455.49
2452.01
2448.7
2445.55
2442.56
2439.73
2437.08
2434.59
2432.28
2430.14
2428.17
2426.38
2424.77
2423.33
2422.08
2421
2420.1
2419.38
2418.85
2418.48
2418.3
2884.52
2884.64
2884.73
2884.95
2885.31
2885.88
2886.54
2887.16
2887.56
2887.65
2887.43
2886.96
2886.33
2885.61
2884.85
2884.09
2883.34
2882.62
2881.92
2881.25
2880.61
2879.98
2879.36
2878.74
2878.12
2877.49
2876.84
2876.17
2875.48
2874.75
2873.99
2873.2
2872.36
2871.47
2870.53
2869.54
2868.5
2867.39
2866.22
2864.99
2863.69
2862.31
2860.87
2859.34
2857.74
2856.05
2854.29
2852.43
2850.49
2848.46
2846.33
2844.11
2841.79
2839.38
2836.86
2834.24
2831.52
2828.69
2825.75
2822.7
2819.54
2816.27
2812.89
2809.39
2805.78
2802.05
2798.21
2794.25
2790.17
2785.98
2781.67
2777.25
2772.71
2768.05
2763.28
2758.4
2753.42
2748.32
2743.12
2737.81
2732.41
2726.9
2721.3
2715.62
2709.84
2703.98
2698.05
2692.03
2685.95
2679.81
2673.6
2667.34
2661.03
2654.68
2648.28
2641.86
2635.41
2628.94
2622.46
2615.97
2609.49
2603.01
2596.54
2590.1
2583.69
2577.32
2570.99
2564.72
2558.5
2552.35
2546.28
2540.29
2534.38
2528.57
2522.86
2517.25
2511.76
2506.38
2501.12
2495.98
2490.98
2486.1
2481.37
2476.77
2472.32
2468.01
2463.86
2459.85
2456
2452.31
2448.78
2445.41
2442.21
2439.17
2436.3
2433.6
2431.08
2428.73
2426.55
2424.56
2422.74
2421.1
2419.64
2418.36
2417.26
2416.35
2415.62
2415.07
2414.71
2414.52
2883.82
2883.96
2883.98
2884.25
2884.76
2885.6
2886.63
2887.69
2888.36
2888.59
2888.35
2887.75
2886.93
2886.04
2885.15
2884.3
2883.5
2882.77
2882.08
2881.45
2880.84
2880.27
2879.71
2879.15
2878.6
2878.03
2877.45
2876.85
2876.22
2875.57
2874.87
2874.14
2873.36
2872.54
2871.66
2870.73
2869.74
2868.69
2867.58
2866.4
2865.15
2863.82
2862.42
2860.95
2859.39
2857.75
2856.03
2854.21
2852.31
2850.31
2848.22
2846.04
2843.75
2841.36
2838.87
2836.28
2833.58
2830.77
2827.85
2824.82
2821.68
2818.42
2815.04
2811.55
2807.94
2804.22
2800.37
2796.4
2792.31
2788.11
2783.78
2779.33
2774.76
2770.08
2765.27
2760.36
2755.32
2750.18
2744.92
2739.56
2734.09
2728.53
2722.86
2717.1
2711.24
2705.3
2699.28
2693.18
2687
2680.76
2674.45
2668.08
2661.67
2655.2
2648.69
2642.15
2635.58
2628.99
2622.38
2615.76
2609.14
2602.53
2595.93
2589.35
2582.8
2576.29
2569.83
2563.42
2557.07
2550.79
2544.59
2538.47
2532.44
2526.51
2520.68
2514.96
2509.35
2503.87
2498.51
2493.28
2488.18
2483.21
2478.39
2473.71
2469.18
2464.8
2460.57
2456.49
2452.58
2448.82
2445.23
2441.8
2438.54
2435.45
2432.53
2429.79
2427.22
2424.83
2422.61
2420.58
2418.73
2417.06
2415.57
2414.27
2413.16
2412.23
2411.49
2410.93
2410.56
2410.36
2882.9
2882.94
2882.98
2883.13
2883.62
2884.6
2886.01
2887.55
2888.87
2889.43
2889.14
2888.34
2887.3
2886.22
2885.2
2884.28
2883.47
2882.75
2882.12
2881.54
2881.01
2880.51
2880.03
2879.56
2879.08
2878.6
2878.1
2877.58
2877.02
2876.44
2875.82
2875.16
2874.45
2873.69
2872.88
2872.02
2871.09
2870.1
2869.05
2867.93
2866.73
2865.47
2864.12
2862.7
2861.19
2859.6
2857.92
2856.15
2854.29
2852.33
2850.28
2848.13
2845.88
2843.53
2841.07
2838.5
2835.83
2833.05
2830.15
2827.14
2824.01
2820.76
2817.4
2813.92
2810.31
2806.58
2802.73
2798.76
2794.66
2790.43
2786.09
2781.62
2777.02
2772.3
2767.46
2762.5
2757.42
2752.22
2746.91
2741.49
2735.95
2730.31
2724.57
2718.73
2712.79
2706.76
2700.64
2694.44
2688.16
2681.81
2675.39
2668.91
2662.38
2655.79
2649.15
2642.48
2635.78
2629.05
2622.3
2615.54
2608.77
2602.01
2595.26
2588.53
2581.84
2575.17
2568.56
2562
2555.5
2549.08
2542.73
2536.47
2530.31
2524.24
2518.29
2512.44
2506.72
2501.12
2495.65
2490.31
2485.11
2480.05
2475.13
2470.36
2465.75
2461.28
2456.97
2452.82
2448.83
2445.01
2441.35
2437.86
2434.54
2431.39
2428.42
2425.62
2423.01
2420.57
2418.31
2416.24
2414.35
2412.65
2411.14
2409.81
2408.68
2407.73
2406.98
2406.41
2406.03
2405.83
2881.32
2881.23
2880.87
2880.26
2879.99
2880.63
2882.21
2884.52
2887.13
2889.14
2890.06
2889.09
2887.09
2885.75
2884.71
2883.85
2883.12
2882.5
2881.97
2881.5
2881.08
2880.69
2880.32
2879.95
2879.58
2879.18
2878.78
2878.34
2877.88
2877.38
2876.84
2876.26
2875.63
2874.94
2874.21
2873.41
2872.55
2871.63
2870.65
2869.59
2868.45
2867.25
2865.96
2864.59
2863.14
2861.6
2859.97
2858.25
2856.43
2854.52
2852.51
2850.4
2848.19
2845.87
2843.45
2840.92
2838.27
2835.51
2832.64
2829.65
2826.54
2823.31
2819.96
2816.48
2812.88
2809.16
2805.3
2801.32
2797.21
2792.97
2788.6
2784.11
2779.48
2774.73
2769.84
2764.84
2759.71
2754.46
2749.08
2743.59
2737.99
2732.27
2726.44
2720.51
2714.48
2708.35
2702.13
2695.83
2689.44
2682.97
2676.43
2669.83
2663.16
2656.44
2649.67
2642.86
2636.01
2629.13
2622.22
2615.31
2608.38
2601.46
2594.55
2587.65
2580.79
2573.96
2567.18
2560.45
2553.79
2547.21
2540.7
2534.29
2527.98
2521.77
2515.68
2509.7
2503.85
2498.12
2492.53
2487.08
2481.77
2476.61
2471.59
2466.72
2462.01
2457.46
2453.07
2448.84
2444.77
2440.87
2437.14
2433.58
2430.19
2426.98
2423.95
2421.1
2418.43
2415.95
2413.64
2411.53
2409.61
2407.87
2406.33
2404.97
2403.81
2402.85
2402.08
2401.5
2401.11
2400.9
2878.8
2878.39
2876.95
2874.88
2874.27
2875.8
2875.85
2878.37
2881.83
2885.05
2887.9
2888.53
2887.45
2884.55
2883.39
2882.8
2882.36
2881.97
2881.62
2881.33
2881.08
2880.83
2880.59
2880.34
2880.08
2879.8
2879.5
2879.16
2878.8
2878.39
2877.94
2877.44
2876.89
2876.29
2875.63
2874.91
2874.13
2873.28
2872.36
2871.37
2870.31
2869.16
2867.94
2866.63
2865.23
2863.75
2862.17
2860.51
2858.74
2856.88
2854.92
2852.85
2850.68
2848.4
2846.01
2843.52
2840.9
2838.18
2835.33
2832.36
2829.27
2826.06
2822.72
2819.26
2815.67
2811.94
2808.09
2804.1
2799.98
2795.72
2791.33
2786.81
2782.15
2777.36
2772.44
2767.38
2762.2
2756.89
2751.45
2745.89
2740.2
2734.4
2728.49
2722.46
2716.33
2710.1
2703.77
2697.35
2690.84
2684.24
2677.57
2670.83
2664.03
2657.16
2650.25
2643.28
2636.27
2629.23
2622.16
2615.07
2607.98
2600.88
2593.78
2586.71
2579.65
2572.64
2565.68
2558.77
2551.93
2545.17
2538.5
2531.92
2525.44
2519.08
2512.83
2506.71
2500.72
2494.86
2489.15
2483.57
2478.15
2472.87
2467.75
2462.78
2457.97
2453.33
2448.84
2444.52
2440.37
2436.39
2432.59
2428.95
2425.5
2422.22
2419.13
2416.21
2413.49
2410.95
2408.6
2406.44
2404.47
2402.7
2401.12
2399.74
2398.55
2397.57
2396.78
2396.19
2395.79
2395.58
2875.64
2874.73
2871.91
2868.45
2869.84
2869.04
2871.02
2874.13
2875.62
2880.01
2882.94
2884.47
2885.63
2883.9
2881.27
2881.02
2881.1
2881.11
2881.07
2881.02
2880.98
2880.92
2880.84
2880.74
2880.62
2880.46
2880.27
2880.05
2879.78
2879.47
2879.12
2878.71
2878.25
2877.74
2877.16
2876.53
2875.82
2875.05
2874.21
2873.29
2872.3
2871.22
2870.06
2868.82
2867.48
2866.06
2864.54
2862.93
2861.22
2859.41
2857.49
2855.48
2853.35
2851.12
2848.77
2846.31
2843.73
2841.04
2838.22
2835.28
2832.22
2829.02
2825.7
2822.25
2818.67
2814.95
2811.09
2807.1
2802.97
2798.7
2794.29
2789.74
2785.05
2780.22
2775.25
2770.14
2764.9
2759.53
2754.02
2748.38
2742.61
2736.72
2730.71
2724.58
2718.34
2711.99
2705.54
2699
2692.36
2685.63
2678.82
2671.94
2664.98
2657.96
2650.88
2643.75
2636.58
2629.36
2622.11
2614.84
2607.55
2600.26
2592.97
2585.69
2578.44
2571.22
2564.06
2556.95
2549.92
2542.96
2536.1
2529.34
2522.69
2516.16
2509.75
2503.47
2497.33
2491.34
2485.48
2479.78
2474.23
2468.84
2463.6
2458.53
2453.62
2448.87
2444.29
2439.88
2435.64
2431.57
2427.68
2423.97
2420.44
2417.09
2413.93
2410.95
2408.17
2405.57
2403.17
2400.96
2398.95
2397.13
2395.52
2394.1
2392.89
2391.88
2391.08
2390.47
2390.06
2389.84
2873.98
2872.74
2869.48
2868.72
2864.9
2863.73
2865.68
2869.25
2871.08
2875.36
2878.48
2879.61
2881.07
2882.07
2879.05
2878.63
2879.47
2880.07
2880.43
2880.68
2880.89
2881.04
2881.14
2881.19
2881.21
2881.18
2881.11
2881
2880.84
2880.64
2880.38
2880.08
2879.71
2879.29
2878.81
2878.26
2877.64
2876.95
2876.19
2875.35
2874.42
2873.42
2872.33
2871.16
2869.89
2868.53
2867.07
2865.52
2863.87
2862.11
2860.25
2858.28
2856.21
2854.02
2851.72
2849.3
2846.76
2844.1
2841.32
2838.41
2835.37
2832.2
2828.9
2825.47
2821.89
2818.18
2814.33
2810.33
2806.19
2801.91
2797.48
2792.9
2788.17
2783.3
2778.29
2773.13
2767.82
2762.38
2756.79
2751.07
2745.21
2739.23
2733.11
2726.88
2720.52
2714.05
2707.47
2700.79
2694.01
2687.14
2680.18
2673.14
2666.03
2658.84
2651.59
2644.29
2636.93
2629.52
2622.08
2614.61
2607.12
2599.61
2592.11
2584.61
2577.13
2569.7
2562.31
2554.99
2547.74
2540.57
2533.51
2526.55
2519.71
2513
2506.41
2499.97
2493.67
2487.53
2481.53
2475.69
2470.01
2464.5
2459.14
2453.95
2448.93
2444.08
2439.4
2434.89
2430.56
2426.4
2422.43
2418.63
2415.02
2411.59
2408.36
2405.31
2402.46
2399.8
2397.34
2395.07
2393.01
2391.16
2389.5
2388.05
2386.81
2385.78
2384.95
2384.33
2383.91
2383.68
2875.31
2873.8
2870.18
2867.86
2864.96
2860.78
2861.96
2864.46
2868.61
2872.13
2874.27
2874.88
2875.6
2877.7
2875.38
2876.05
2877.76
2879.03
2879.82
2880.4
2880.87
2881.23
2881.51
2881.72
2881.88
2881.98
2882.03
2882.04
2881.99
2881.9
2881.75
2881.54
2881.28
2880.95
2880.56
2880.1
2879.58
2878.97
2878.29
2877.54
2876.69
2875.77
2874.75
2873.65
2872.45
2871.16
2869.77
2868.28
2866.69
2864.99
2863.19
2861.27
2859.25
2857.11
2854.85
2852.48
2849.99
2847.37
2844.62
2841.75
2838.74
2835.6
2832.32
2828.91
2825.35
2821.64
2817.8
2813.8
2809.65
2805.35
2800.9
2796.3
2791.54
2786.63
2781.56
2776.35
2770.98
2765.46
2759.79
2753.98
2748.03
2741.94
2735.71
2729.36
2722.88
2716.27
2709.56
2702.73
2695.8
2688.77
2681.65
2674.45
2667.16
2659.8
2652.37
2644.88
2637.33
2629.72
2622.08
2614.39
2606.67
2598.94
2591.2
2583.46
2575.74
2568.06
2560.43
2552.87
2545.38
2537.99
2530.7
2523.53
2516.49
2509.58
2502.81
2496.19
2489.72
2483.42
2477.27
2471.29
2465.48
2459.83
2454.36
2449.05
2443.92
2438.95
2434.17
2429.56
2425.12
2420.87
2416.8
2412.92
2409.22
2405.71
2402.39
2399.27
2396.35
2393.62
2391.1
2388.78
2386.66
2384.76
2383.06
2381.57
2380.3
2379.24
2378.4
2377.76
2377.32
2377.09
2879.2
2878.1
2874.85
2871
2867.23
2865.34
2865.52
2867.18
2869.12
2870.46
2870.87
2870.49
2871.09
2873.66
2871.99
2874.01
2876.49
2878.29
2879.47
2880.33
2881.01
2881.56
2882
2882.36
2882.65
2882.88
2883.05
2883.17
2883.24
2883.25
2883.21
2883.11
2882.95
2882.73
2882.43
2882.07
2881.64
2881.13
2880.54
2879.87
2879.11
2878.26
2877.33
2876.3
2875.18
2873.95
2872.63
2871.21
2869.68
2868.05
2866.3
2864.45
2862.48
2860.39
2858.19
2855.87
2853.42
2850.84
2848.14
2845.3
2842.33
2839.22
2835.97
2832.58
2829.04
2825.35
2821.51
2817.51
2813.36
2809.05
2804.58
2799.95
2795.15
2790.2
2785.08
2779.81
2774.37
2768.78
2763.02
2757.12
2751.06
2744.86
2738.52
2732.03
2725.42
2718.67
2711.81
2704.82
2697.73
2690.54
2683.24
2675.86
2668.39
2660.84
2653.22
2645.53
2637.77
2629.96
2622.09
2614.18
2606.22
2598.24
2590.24
2582.24
2574.25
2566.3
2558.41
2550.58
2542.84
2535.2
2527.67
2520.27
2513.01
2505.89
2498.92
2492.11
2485.47
2479
2472.7
2466.57
2460.62
2454.84
2449.23
2443.81
2438.55
2433.48
2428.58
2423.86
2419.32
2414.97
2410.8
2406.82
2403.03
2399.43
2396.03
2392.83
2389.83
2387.03
2384.44
2382.06
2379.88
2377.93
2376.18
2374.65
2373.35
2372.26
2371.39
2370.74
2370.29
2370.04
2883.22
2882.81
2880.72
2877.94
2875.16
2873.01
2871.86
2871.34
2870.83
2869.97
2868.74
2867.56
2870.52
2871.58
2872.36
2873.32
2876.1
2878.15
2879.53
2880.57
2881.4
2882.08
2882.64
2883.12
2883.53
2883.88
2884.17
2884.4
2884.58
2884.71
2884.78
2884.79
2884.73
2884.61
2884.43
2884.17
2883.83
2883.42
2882.92
2882.34
2881.67
2880.91
2880.06
2879.11
2878.06
2876.91
2875.66
2874.31
2872.85
2871.28
2869.6
2867.8
2865.9
2863.87
2861.72
2859.45
2857.05
2854.53
2851.87
2849.08
2846.15
2843.07
2839.86
2836.49
2832.97
2829.3
2825.47
2821.48
2817.32
2813
2808.51
2803.86
2799.03
2794.03
2788.87
2783.53
2778.02
2772.34
2766.5
2760.49
2754.33
2748.01
2741.53
2734.91
2728.15
2721.25
2714.22
2707.07
2699.8
2692.43
2684.95
2677.38
2669.71
2661.96
2654.14
2646.24
2638.27
2630.23
2622.14
2613.98
2605.77
2597.52
2589.23
2580.94
2572.66
2564.41
2556.22
2548.11
2540.09
2532.19
2524.4
2516.75
2509.25
2501.9
2494.73
2487.72
2480.89
2474.25
2467.79
2461.51
2455.41
2449.5
2443.76
2438.21
2432.84
2427.64
2422.63
2417.8
2413.15
2408.69
2404.42
2400.33
2396.45
2392.75
2389.26
2385.97
2382.88
2380.01
2377.34
2374.89
2372.66
2370.64
2368.85
2367.28
2365.93
2364.81
2363.92
2363.25
2362.78
2362.53
2885.58
2885.32
2884.79
2883.48
2881.36
2879.04
2876.82
2874.72
2872.59
2870.4
2868.37
2868.77
2870.59
2871.61
2871.28
2874.05
2876.73
2878.68
2880.07
2881.14
2882.04
2882.8
2883.45
2884.02
2884.53
2884.98
2885.38
2885.73
2886.02
2886.26
2886.45
2886.57
2886.63
2886.62
2886.54
2886.39
2886.16
2885.84
2885.45
2884.96
2884.38
2883.71
2882.94
2882.08
2881.11
2880.04
2878.86
2877.58
2876.19
2874.69
2873.08
2871.35
2869.5
2867.54
2865.45
2863.24
2860.9
2858.42
2855.82
2853.07
2850.19
2847.16
2843.98
2840.64
2837.15
2833.5
2829.69
2825.71
2821.55
2817.23
2812.72
2808.04
2803.18
2798.14
2792.92
2787.52
2781.94
2776.17
2770.23
2764.12
2757.84
2751.39
2744.77
2738
2731.08
2724.02
2716.81
2709.48
2702.02
2694.45
2686.77
2678.99
2671.12
2663.16
2655.12
2647
2638.81
2630.54
2622.2
2613.79
2605.31
2596.77
2588.17
2579.55
2570.94
2562.36
2553.85
2545.43
2537.12
2528.92
2520.86
2512.95
2505.19
2497.61
2490.2
2482.99
2475.97
2469.15
2462.52
2456.09
2449.85
2443.8
2437.93
2432.25
2426.75
2421.44
2416.31
2411.36
2406.6
2402.02
2397.64
2393.45
2389.45
2385.66
2382.06
2378.68
2375.5
2372.54
2369.8
2367.27
2364.97
2362.89
2361.04
2359.42
2358.04
2356.89
2355.97
2355.27
2354.79
2354.53
2886.01
2885.84
2886.19
2885.62
2883.97
2881.7
2879.2
2876.63
2874.13
2871.79
2869.9
2870.68
2872.69
2871.01
2873.46
2875.98
2878.11
2879.75
2881
2882.03
2882.9
2883.68
2884.39
2885.03
2885.63
2886.18
2886.69
2887.15
2887.55
2887.91
2888.22
2888.46
2888.63
2888.74
2888.78
2888.74
2888.62
2888.41
2888.11
2887.73
2887.24
2886.67
2885.99
2885.21
2884.32
2883.33
2882.23
2881.03
2879.71
2878.28
2876.74
2875.08
2873.3
2871.4
2869.37
2867.22
2864.94
2862.53
2859.98
2857.29
2854.46
2851.48
2848.34
2845.05
2841.59
2837.97
2834.17
2830.21
2826.06
2821.73
2817.22
2812.52
2807.62
2802.54
2797.27
2791.8
2786.14
2780.28
2774.24
2768.02
2761.6
2755.02
2748.25
2741.32
2734.23
2726.98
2719.59
2712.06
2704.39
2696.61
2688.71
2680.71
2672.61
2664.42
2656.15
2647.81
2639.38
2630.88
2622.29
2613.62
2604.85
2595.99
2587.05
2578.06
2569.07
2560.12
2551.26
2542.51
2533.88
2525.39
2517.04
2508.84
2500.81
2492.97
2485.32
2477.89
2470.67
2463.67
2456.88
2450.3
2443.91
2437.73
2431.73
2425.92
2420.3
2414.86
2409.6
2404.53
2399.65
2394.95
2390.45
2386.14
2382.04
2378.13
2374.43
2370.94
2367.67
2364.62
2361.78
2359.18
2356.8
2354.66
2352.75
2351.08
2349.65
2348.46
2347.51
2346.79
2346.3
2346.02
2885.03
2885.1
2885.4
2885.05
2883.76
2881.85
2879.78
2877.67
2875.7
2873.98
2872.85
2872.44
2873.11
2874.53
2876.43
2878.29
2879.83
2881.04
2882.07
2882.99
2883.84
2884.63
2885.39
2886.11
2886.8
2887.45
2888.06
2888.64
2889.17
2889.65
2890.08
2890.45
2890.75
2890.98
2891.14
2891.22
2891.21
2891.12
2890.93
2890.64
2890.26
2889.78
2889.19
2888.5
2887.7
2886.79
2885.77
2884.65
2883.4
2882.05
2880.58
2878.99
2877.28
2875.45
2873.49
2871.41
2869.2
2866.85
2864.36
2861.74
2858.96
2856.03
2852.95
2849.7
2846.29
2842.7
2838.94
2834.99
2830.86
2826.53
2822.01
2817.29
2812.37
2807.24
2801.91
2796.38
2790.64
2784.69
2778.54
2772.19
2765.65
2758.91
2751.98
2744.88
2737.6
2730.16
2722.55
2714.8
2706.91
2698.89
2690.76
2682.51
2674.17
2665.73
2657.22
2648.62
2639.95
2631.2
2622.37
2613.43
2604.37
2595.17
2585.85
2576.43
2567
2557.63
2548.4
2539.3
2530.35
2521.54
2512.89
2504.4
2496.08
2487.96
2480.05
2472.37
2464.95
2457.78
2450.83
2444.1
2437.58
2431.26
2425.14
2419.2
2413.45
2407.89
2402.51
2397.31
2392.3
2387.48
2382.85
2378.42
2374.18
2370.16
2366.34
2362.74
2359.37
2356.21
2353.28
2350.59
2348.13
2345.91
2343.94
2342.21
2340.73
2339.51
2338.53
2337.79
2337.27
2336.98
2883.44
2883.56
2883.79
2883.44
2882.44
2881.1
2879.73
2878.41
2877.27
2876.35
2875.85
2875.92
2876.57
2877.63
2878.91
2880.12
2881.2
2882.16
2883.05
2883.91
2884.75
2885.58
2886.4
2887.2
2887.99
2888.75
2889.49
2890.19
2890.85
2891.47
2892.03
2892.54
2892.97
2893.34
2893.63
2893.83
2893.94
2893.97
2893.89
2893.71
2893.44
2893.05
2892.56
2891.96
2891.24
2890.42
2889.48
2888.43
2887.27
2885.99
2884.59
2883.08
2881.44
2879.69
2877.8
2875.8
2873.65
2871.38
2868.96
2866.41
2863.7
2860.83
2857.81
2854.62
2851.26
2847.71
2843.99
2840.07
2835.95
2831.64
2827.12
2822.38
2817.44
2812.27
2806.89
2801.29
2795.46
2789.42
2783.15
2776.68
2769.98
2763.09
2755.99
2748.69
2741.21
2733.55
2725.72
2717.73
2709.59
2701.31
2692.91
2684.39
2675.77
2667.06
2658.27
2649.41
2640.47
2631.47