/*--------------------------------*- C++ -*----------------------------------*\
| =========                 |                                                 |
| \\      /  F ield         | OpenFOAM: The Open Source CFD Toolbox           |
|  \\    /   O peration     | Version:  v2006                                 |
|   \\  /    A nd           | Website:  www.openfoam.com                      |
|    \\/     M anipulation  |                                                 |
\*---------------------------------------------------------------------------*/
FoamFile
{
    version     2.0;
    format      ascii;
    class       surfaceScalarField;
    location    "18";
    object      phi;
}
// * * * * * * * * * * * * * * * * * * * * * * * * * * * * * * * * * * * * * //

dimensions      [0 3 -1 0 0 0 0];
oriented        oriented;


internalField   nonuniform List<scalar> 
99450
(
2.33542e-05
-2.33542e-05
6.44852e-05
-4.1131e-05
0.000107804
-4.33191e-05
0.000147683
-3.98783e-05
0.000183706
-3.60239e-05
0.000217128
-3.3422e-05
0.000249028
-3.19e-05
0.000279948
-3.09194e-05
0.000310024
-3.00761e-05
0.000339207
-2.91826e-05
0.000367401
-2.81939e-05
0.000394505
-2.71045e-05
0.000420444
-2.5939e-05
0.000445157
-2.47132e-05
0.000468601
-2.34436e-05
0.000490742
-2.21417e-05
0.000511561
-2.08185e-05
0.000531049
-1.94885e-05
0.00054921
-1.81602e-05
0.000566047
-1.68372e-05
0.000581585
-1.55377e-05
0.000595837
-1.42527e-05
0.000608831
-1.29932e-05
0.000620588
-1.17571e-05
0.00063113
-1.05424e-05
0.000640472
-9.34207e-06
0.000648628
-8.15588e-06
0.000655605
-6.97718e-06
0.000661404
-5.799e-06
0.00066602
-4.61545e-06
0.000669433
-3.41312e-06
0.000671611
-2.17794e-06
0.000672513
-9.02433e-07
0.000672054
4.59362e-07
0.000670088
1.96563e-06
0.000666505
3.58349e-06
0.000661116
5.38845e-06
0.000653692
7.4237e-06
0.000643994
9.69792e-06
0.00063194
1.20545e-05
0.000617645
1.4295e-05
0.000601361
1.62842e-05
0.000583345
1.80162e-05
0.000563821
1.9523e-05
0.00054306
2.07614e-05
0.000521337
2.17232e-05
0.000498932
2.2405e-05
0.00047614
2.27918e-05
0.00045326
2.28803e-05
0.000430636
2.26233e-05
0.000408607
2.20292e-05
0.000387419
2.11886e-05
0.000367115
2.03042e-05
0.00034757
1.95446e-05
0.000328559
1.90109e-05
0.000309933
1.86259e-05
0.000291515
1.84185e-05
0.000273234
1.82807e-05
0.000255061
1.81732e-05
0.000236979
1.80816e-05
0.000218965
1.80146e-05
0.000201011
1.79532e-05
0.000183087
1.79245e-05
0.000165208
1.78792e-05
0.000147365
1.7843e-05
0.000129561
1.78037e-05
0.000111796
1.77651e-05
9.40726e-05
1.77233e-05
7.63969e-05
1.76757e-05
5.87804e-05
1.76165e-05
4.12348e-05
1.75457e-05
2.37738e-05
1.74609e-05
6.40992e-06
1.73639e-05
-1.08431e-05
1.7253e-05
-2.79652e-05
1.71221e-05
-4.49382e-05
1.6973e-05
-6.17423e-05
1.68041e-05
-7.836e-05
1.66177e-05
-9.47758e-05
1.64158e-05
-0.000110977
1.62009e-05
-0.000126951
1.59744e-05
-0.000142691
1.57395e-05
-0.000158194
1.55037e-05
-0.000173461
1.52667e-05
-0.000188495
1.50338e-05
-0.0002033
1.48046e-05
-0.00021789
1.45901e-05
-0.000232285
1.43956e-05
-0.000246516
1.42309e-05
-0.000260626
1.41095e-05
-0.000274668
1.40425e-05
-0.000288721
1.4053e-05
-0.00030289
1.41691e-05
-0.00031732
1.44295e-05
-0.000332238
1.49185e-05
-0.000347992
1.57534e-05
-0.000365009
1.70174e-05
-0.000383696
1.86873e-05
-0.000404258
2.05621e-05
-0.000426565
2.23069e-05
-0.000450168
2.36028e-05
-0.000474455
2.42873e-05
-0.000498818
2.43621e-05
-0.000522734
2.39163e-05
-0.00054575
2.30157e-05
-0.000567456
2.1706e-05
-0.00058742
1.99642e-05
-0.000605114
1.7694e-05
-0.000619873
1.47591e-05
-0.000630947
1.1074e-05
-0.000637695
6.74845e-06
-0.000640077
2.3815e-06
-0.000638927
-1.1497e-06
-0.000635185
-3.74209e-06
-0.000629581
-5.60368e-06
-0.00062271
-6.87093e-06
-0.000614897
-7.81292e-06
-0.000606292
-8.60529e-06
-0.000596938
-9.35366e-06
-0.000586855
-1.00836e-05
-0.000576067
-1.07874e-05
-0.000564598
-1.14691e-05
-0.000552462
-1.2136e-05
-0.000539665
-1.27971e-05
-0.00052621
-1.3455e-05
-0.000512102
-1.41084e-05
-0.000497344
-1.47576e-05
-0.00048194
-1.54047e-05
-0.000465897
-1.6043e-05
-0.000449228
-1.66681e-05
-0.000431949
-1.72792e-05
-0.000414078
-1.7871e-05
-0.000395627
-1.84511e-05
-0.000376605
-1.90224e-05
-0.000357015
-1.95899e-05
-0.00033686
-2.01549e-05
-0.000316132
-2.07283e-05
-0.000294822
-2.13098e-05
-0.000272932
-2.18899e-05
-0.000250461
-2.2471e-05
-0.000227413
-2.30474e-05
-0.000203785
-2.36284e-05
-0.000179574
-2.42106e-05
-0.000154754
-2.48208e-05
-0.000129313
-2.54408e-05
-0.000103255
-2.60582e-05
-7.67308e-05
-2.65238e-05
-4.96972e-05
-2.70336e-05
-2.2712e-05
-2.69852e-05
-2.2712e-05
2.12439e-05
-4.45981e-05
5.92024e-05
-7.90895e-05
9.90758e-05
-8.31926e-05
0.000134768
-7.55706e-05
0.00016572
-6.69753e-05
0.000193462
-6.11639e-05
0.000219502
-5.79409e-05
0.000244562
-5.59787e-05
0.000268696
-5.42103e-05
0.000291741
-5.22277e-05
0.000313495
-4.99482e-05
0.000333835
-4.74439e-05
0.000352698
-4.48018e-05
0.000370055
-4.20706e-05
0.000385885
-3.92733e-05
0.000400199
-3.6456e-05
0.000413018
-3.36377e-05
0.00042438
-3.08502e-05
0.000434354
-2.81342e-05
0.000443014
-2.54975e-05
0.000450434
-2.29574e-05
0.000456706
-2.05245e-05
0.000461915
-1.82024e-05
0.000466158
-1.59999e-05
0.00046952
-1.39044e-05
0.000472097
-1.19197e-05
0.000473974
-1.00326e-05
0.000475232
-8.23496e-06
0.000475966
-6.53315e-06
0.000476263
-4.91283e-06
0.000476218
-3.36742e-06
0.000475912
-1.87259e-06
0.000475363
-3.52679e-07
0.000474821
1.00108e-06
0.000474313
2.47379e-06
0.00047381
4.08617e-06
0.000473328
5.87085e-06
0.000472889
7.86278e-06
0.000472502
1.00843e-05
0.000472018
1.25389e-05
0.000471151
1.51616e-05
0.000469581
1.78547e-05
0.000467043
2.05535e-05
0.000463431
2.31353e-05
0.000458616
2.55768e-05
0.000452554
2.77849e-05
0.000445218
2.9741e-05
0.000436656
3.13541e-05
0.000426891
3.26451e-05
0.000415947
3.35677e-05
0.000403873
3.41029e-05
0.000390652
3.44095e-05
0.000376411
3.45451e-05
0.000361251
3.47043e-05
0.000345417
3.48452e-05
0.000328999
3.50438e-05
0.000312084
3.53339e-05
0.00029472
3.56446e-05
0.000276918
3.59752e-05
0.000258691
3.63079e-05
0.000240075
3.66313e-05
0.000221085
3.69434e-05
0.00020177
3.72393e-05
0.000182133
3.75161e-05
0.000162212
3.77639e-05
0.00014204
3.79754e-05
0.000121662
3.81432e-05
0.000101117
3.82691e-05
8.04405e-05
3.83517e-05
5.96674e-05
3.83896e-05
3.88471e-05
3.8366e-05
1.80138e-05
3.82941e-05
-2.78796e-06
3.81657e-05
-2.35122e-05
3.79773e-05
-4.41165e-05
3.77264e-05
-6.45554e-05
3.74119e-05
-8.47813e-05
3.703e-05
-0.000104753
3.65893e-05
-0.00012442
3.60826e-05
-0.000143736
3.55174e-05
-0.000162659
3.48977e-05
-0.000181147
3.42267e-05
-0.000199165
3.35225e-05
-0.000216678
3.27796e-05
-0.000233655
3.20105e-05
-0.000250081
3.12302e-05
-0.00026593
3.04391e-05
-0.000281192
2.96578e-05
-0.000295858
2.88975e-05
-0.000309922
2.8173e-05
-0.000323388
2.75084e-05
-0.000336267
2.69323e-05
-0.000348573
2.64744e-05
-0.000360327
2.61837e-05
-0.000371536
2.61279e-05
-0.000382168
2.63851e-05
-0.000392162
2.70116e-05
-0.000401467
2.79919e-05
-0.000410076
2.9171e-05
-0.000418028
3.02589e-05
-0.000425326
3.09016e-05
-0.000431823
3.07835e-05
-0.000437168
2.97076e-05
-0.000440848
2.7596e-05
-0.000442371
2.45388e-05
-0.000441338
2.06732e-05
-0.000437514
1.61398e-05
-0.00043092
1.11e-05
-0.000421931
5.77036e-06
-0.000411403
5.46376e-07
-0.000399671
-4.98376e-06
-0.000387638
-9.65183e-06
-0.00037545
-1.33372e-05
-0.000363141
-1.60516e-05
-0.000350779
-1.79659e-05
-0.000338339
-1.93102e-05
-0.000325834
-2.03182e-05
-0.000313272
-2.11672e-05
-0.000300678
-2.19477e-05
-0.000288069
-2.26923e-05
-0.000275443
-2.34139e-05
-0.000262794
-2.41178e-05
-0.000250132
-2.4798e-05
-0.000237489
-2.54406e-05
-0.000224901
-2.60428e-05
-0.000212401
-2.66082e-05
-0.000200027
-2.7132e-05
-0.000187815
-2.76168e-05
-0.000175797
-2.80605e-05
-0.000164002
-2.84633e-05
-0.000152482
-2.8799e-05
-0.000141285
-2.90678e-05
-0.000130454
-2.92827e-05
-0.000120041
-2.94349e-05
-0.000110081
-2.95504e-05
-0.00010059
-2.9646e-05
-9.15984e-05
-2.97194e-05
-8.30863e-05
-2.9822e-05
-7.50333e-05
-2.99429e-05
-6.73746e-05
-3.01296e-05
-6.00737e-05
-3.03483e-05
-5.30949e-05
-3.06073e-05
-4.63592e-05
-3.09462e-05
-3.98619e-05
-3.13182e-05
-3.36115e-05
-3.16912e-05
-2.76094e-05
-3.20604e-05
-2.18423e-05
-3.22908e-05
-1.56112e-05
-3.32647e-05
-7.3286e-06
-3.52679e-05
-3.00406e-05
2.07996e-05
-6.53977e-05
6.0575e-05
-0.000118865
0.000104357
-0.000126975
0.000144613
-0.000115826
0.00017945
-0.000101813
0.000209949
-9.16628e-05
0.000237944
-8.59359e-05
0.000264676
-8.27101e-05
0.000290587
-8.01218e-05
0.000315506
-7.71464e-05
0.000339152
-7.35938e-05
0.000361269
-6.95613e-05
0.000381738
-6.52713e-05
0.000400482
-6.08144e-05
0.000417492
-5.62834e-05
0.000432769
-5.17327e-05
0.000446356
-4.72247e-05
0.000458316
-4.28098e-05
0.000468706
-3.85242e-05
0.00047763
-3.44217e-05
0.0004852
-3.05278e-05
0.000491513
-2.68378e-05
0.000496668
-2.33567e-05
0.00050076
-2.00923e-05
0.000503869
-1.70129e-05
0.000506088
-1.41395e-05
0.000507474
-1.14184e-05
0.00050808
-8.84065e-06
0.000507949
-6.40193e-06
0.000507119
-4.08287e-06
0.00050563
-1.87854e-06
0.000503484
2.73627e-07
0.000500697
2.43355e-06
0.000497177
4.52128e-06
0.000493015
6.6364e-06
0.000488272
8.82863e-06
0.000483007
1.11365e-05
0.000477313
1.35563e-05
0.000471319
1.6078e-05
0.000465115
1.87433e-05
0.000458734
2.15424e-05
0.000452172
2.44168e-05
0.000445431
2.72948e-05
0.000438423
3.01427e-05
0.000431107
3.28927e-05
0.000423356
3.55364e-05
0.00041514
3.79568e-05
0.000406273
4.02209e-05
0.000396679
4.22395e-05
0.000386202
4.40441e-05
0.000374721
4.55845e-05
0.000362237
4.68936e-05
0.000348765
4.80164e-05
0.000334495
4.89747e-05
0.000319472
4.98684e-05
0.000303796
5.07195e-05
0.00028758
5.15505e-05
0.000270856
5.23684e-05
0.000253644
5.31866e-05
0.000235997
5.39554e-05
0.000217935
5.46927e-05
0.000199477
5.54016e-05
0.000180699
5.60178e-05
0.000161606
5.66085e-05
0.000142255
5.71149e-05
0.000122676
5.75543e-05
0.000102902
5.79179e-05
8.29734e-05
5.81972e-05
6.29348e-05
5.83904e-05
4.28266e-05
5.84979e-05
2.26795e-05
5.8513e-05
2.54509e-06
5.84286e-05
-1.75368e-05
5.82476e-05
-3.75267e-05
5.79672e-05
-5.73851e-05
5.75848e-05
-7.70776e-05
5.71044e-05
-9.65484e-05
5.65009e-05
-0.000115759
5.58e-05
-0.000134672
5.49955e-05
-0.000153251
5.40964e-05
-0.000171448
5.30943e-05
-0.000189224
5.20035e-05
-0.000206544
5.08422e-05
-0.000223377
4.96124e-05
-0.000239686
4.83192e-05
-0.000255447
4.69916e-05
-0.000270626
4.56181e-05
-0.000285194
4.42258e-05
-0.000299134
4.2837e-05
-0.000312403
4.14429e-05
-0.000324985
4.00896e-05
-0.000336839
3.87862e-05
-0.000347922
3.75583e-05
-0.000358174
3.64351e-05
-0.000367488
3.54422e-05
-0.000375709
3.46057e-05
-0.000382628
3.3931e-05
-0.00038803
3.33935e-05
-0.000391783
3.29241e-05
-0.000393881
3.23572e-05
-0.000394446
3.14667e-05
-0.000393693
3.00304e-05
-0.000391878
2.78924e-05
-0.000389279
2.4997e-05
-0.000386129
2.13893e-05
-0.000382677
1.72207e-05
-0.00037912
1.25825e-05
-0.000375627
7.60774e-06
-0.000372262
2.4046e-06
-0.00036921
-2.5055e-06
-0.000367085
-7.108e-06
-0.000365439
-1.12984e-05
-0.000363835
-1.49416e-05
-0.000361892
-1.79938e-05
-0.000359341
-2.05173e-05
-0.000355966
-2.26854e-05
-0.000351623
-2.46612e-05
-0.000346238
-2.65514e-05
-0.000339782
-2.84045e-05
-0.000332242
-3.0232e-05
-0.00032363
-3.20262e-05
-0.000313975
-3.37721e-05
-0.00030333
-3.54433e-05
-0.000291766
-3.70048e-05
-0.000279372
-3.84365e-05
-0.000266258
-3.97221e-05
-0.000252528
-4.08625e-05
-0.000238286
-4.18588e-05
-0.000223641
-4.27049e-05
-0.000208706
-4.33984e-05
-0.000193583
-4.39219e-05
-0.000178392
-4.42591e-05
-0.00016326
-4.4415e-05
-0.00014832
-4.43747e-05
-0.000133719
-4.41511e-05
-0.000119592
-4.37735e-05
-0.00010607
-4.32415e-05
-9.32899e-05
-4.26019e-05
-8.13401e-05
-4.18927e-05
-7.03199e-05
-4.11499e-05
-6.02524e-05
-4.04158e-05
-5.11582e-05
-3.97015e-05
-4.30351e-05
-3.90692e-05
-3.58514e-05
-3.85019e-05
-2.9555e-05
-3.79876e-05
-2.41559e-05
-3.74596e-05
-1.92168e-05
-3.72299e-05
-1.32384e-05
-3.92431e-05
-4.47569e-06
-4.40306e-05
-3.45162e-05
2.05287e-05
-8.59265e-05
6.1274e-05
-0.00015961
0.000107161
-0.000172862
0.000150455
-0.00015912
0.000188597
-0.000139955
0.000222087
-0.000125153
0.000252582
-0.00011643
0.000281537
-0.000111666
0.0003096
-0.000108185
0.000336804
-0.00010435
0.00036286
-9.96502e-05
0.000387474
-9.41757e-05
0.000410405
-8.82024e-05
0.000431543
-8.19523e-05
0.000450832
-7.55721e-05
0.000468259
-6.91597e-05
0.000483846
-6.28116e-05
0.000497635
-5.65988e-05
0.000509715
-5.06038e-05
0.000520161
-4.48683e-05
0.000529064
-3.94309e-05
0.000536538
-3.43116e-05
0.000542683
-2.95012e-05
0.000547595
-2.50044e-05
0.000551376
-2.07941e-05
0.000554077
-1.68407e-05
0.000555782
-1.31231e-05
0.000556557
-9.61559e-06
0.000556427
-6.27227e-06
0.000555416
-3.07119e-06
0.000553533
3.76524e-09
0.000550853
2.9534e-06
0.000547388
5.89865e-06
0.000543079
8.83043e-06
0.000537945
1.17705e-05
0.000532017
1.47566e-05
0.000525351
1.78023e-05
0.000517988
2.09197e-05
0.000509976
2.40898e-05
0.000501394
2.73254e-05
0.000492341
3.05953e-05
0.000482883
3.38751e-05
0.000473057
3.7121e-05
0.000462896
4.03028e-05
0.000452404
4.33852e-05
0.000441625
4.6315e-05
0.000430464
4.91177e-05
0.000418927
5.17583e-05
0.000406947
5.42196e-05
0.000394484
5.65069e-05
0.000381447
5.86218e-05
0.000367783
6.05575e-05
0.000353471
6.23281e-05
0.00033851
6.39357e-05
0.000322935
6.5444e-05
0.000306793
6.68613e-05
0.000290135
6.82086e-05
0.000273001
6.95024e-05
0.000255479
7.07083e-05
0.00023758
7.18545e-05
0.000219331
7.29411e-05
0.000200823
7.39096e-05
0.000182026
7.48153e-05
0.000163007
7.56272e-05
0.000143782
7.63405e-05
0.00012439
7.69457e-05
0.000104864
7.74438e-05
8.52363e-05
7.78252e-05
6.55377e-05
7.8089e-05
4.58026e-05
7.8233e-05
2.60687e-05
7.82469e-05
6.37112e-06
7.81261e-05
-1.32624e-05
7.78811e-05
-3.27963e-05
7.75012e-05
-5.21974e-05
7.69859e-05
-7.14268e-05
7.63338e-05
-9.04669e-05
7.5541e-05
-0.000109278
7.46112e-05
-0.000127829
7.35462e-05
-0.000146086
7.23538e-05
-0.000164028
7.10363e-05
-0.000181623
6.95979e-05
-0.00019883
6.80502e-05
-0.000215623
6.64046e-05
-0.00023197
6.46663e-05
-0.000247826
6.28481e-05
-0.000263173
6.09651e-05
-0.000277971
5.90239e-05
-0.000292177
5.70428e-05
-0.000305763
5.50285e-05
-0.000318685
5.30118e-05
-0.000330894
5.09956e-05
-0.000342337
4.90006e-05
-0.000352949
4.70477e-05
-0.000362652
4.51452e-05
-0.000371347
4.33008e-05
-0.00037892
4.15036e-05
-0.000385252
3.97253e-05
-0.000390229
3.79016e-05
-0.000393815
3.59432e-05
-0.000396088
3.37396e-05
-0.000397245
3.11871e-05
-0.000397564
2.82119e-05
-0.000397359
2.4792e-05
-0.000396927
2.09574e-05
-0.000396487
1.67804e-05
-0.000396256
1.23512e-05
-0.00039644
7.79174e-06
-0.000397275
3.23961e-06
-0.000398379
-1.40082e-06
-0.000399594
-5.89296e-06
-0.000400801
-1.00915e-05
-0.000401727
-1.40162e-05
-0.000402056
-1.76649e-05
-0.00040153
-2.10428e-05
-0.000400034
-2.4182e-05
-0.00039756
-2.71349e-05
-0.000394157
-2.99544e-05
-0.000389878
-3.26837e-05
-0.000384756
-3.53537e-05
-0.000378811
-3.79712e-05
-0.00037205
-4.05328e-05
-0.00036447
-4.30243e-05
-0.000356059
-4.54153e-05
-0.000346801
-4.76945e-05
-0.000336695
-4.98285e-05
-0.000325746
-5.18107e-05
-0.000313974
-5.36313e-05
-0.000301418
-5.52606e-05
-0.000288114
-5.67023e-05
-0.000274115
-5.79214e-05
-0.000259484
-5.88896e-05
-0.000244288
-5.96116e-05
-0.00022864
-6.00219e-05
-0.000212629
-6.01621e-05
-0.000196393
-6.00104e-05
-0.000180065
-5.95689e-05
-0.000163799
-5.88675e-05
-0.000147736
-5.79556e-05
-0.000132022
-5.68644e-05
-0.000116783
-5.56546e-05
-0.000102101
-5.43834e-05
-8.80644e-05
-5.31061e-05
-7.48269e-05
-5.17394e-05
-6.26044e-05
-5.02101e-05
-5.13905e-05
-4.86735e-05
-3.99223e-05
-4.8698e-05
-2.56427e-05
-5.35227e-05
-8.64485e-06
-6.10285e-05
-4.31611e-05
1.97776e-05
-0.000105704
6.05773e-05
-0.00020041
0.000107774
-0.000220058
0.000153202
-0.000204548
0.000193621
-0.000180374
0.000229054
-0.000160586
0.000261046
-0.000148422
0.000291172
-0.000141792
0.000320324
-0.000137337
0.000348672
-0.000132698
0.000375968
-0.000126946
0.000401849
-0.000120057
0.000426017
-0.00011237
0.000448296
-0.000104232
0.00046859
-9.58652e-05
0.000486884
-8.74546e-05
0.000503198
-7.91252e-05
0.000517593
-7.09937e-05
0.000530132
-6.31432e-05
0.000540925
-5.56613e-05
0.00055008
-4.85852e-05
0.000557694
-4.19264e-05
0.000563887
-3.56941e-05
0.000568749
-2.98659e-05
0.000572373
-2.44179e-05
0.000574857
-1.93248e-05
0.000576246
-1.45127e-05
0.000576619
-9.98843e-06
0.000576042
-5.69475e-06
0.000574573
-1.60308e-06
0.00057219
2.3876e-06
0.000568924
6.21886e-06
0.000564858
9.96519e-06
0.000560021
1.36669e-05
0.000554451
1.73403e-05
0.000548198
2.101e-05
0.000541311
2.46895e-05
0.000533845
2.83854e-05
0.00052584
3.20946e-05
0.000517338
3.58277e-05
0.000508373
3.95607e-05
0.000498955
4.32927e-05
0.000489093
4.69828e-05
0.000478776
5.06197e-05
0.000467996
5.41656e-05
0.00045671
5.76009e-05
0.000444932
6.08956e-05
0.000432658
6.40323e-05
0.000419868
6.70094e-05
0.000406569
6.98066e-05
0.000392758
7.24326e-05
0.000378428
7.48872e-05
0.000363564
7.7192e-05
0.000348146
7.93545e-05
0.000332194
8.13954e-05
0.000315744
8.33112e-05
0.000298844
8.51089e-05
0.000281538
8.68084e-05
0.000263822
8.84244e-05
0.000245739
8.99378e-05
0.000227356
9.13238e-05
0.00020867
9.25959e-05
0.000189729
9.37555e-05
0.000170566
9.47902e-05
0.000151201
9.57059e-05
0.000131686
9.64609e-05
0.000112031
9.70987e-05
9.22807e-05
9.75753e-05
7.24568e-05
9.79129e-05
5.25873e-05
9.81025e-05
3.272e-05
9.81142e-05
1.28704e-05
9.79757e-05
-6.9251e-06
9.76766e-05
-2.66368e-05
9.72129e-05
-4.62364e-05
9.65855e-05
-6.56902e-05
9.57876e-05
-8.49673e-05
9.48181e-05
-0.000104042
9.36855e-05
-0.000122885
9.23891e-05
-0.000141462
9.09309e-05
-0.000159753
8.93273e-05
-0.000177711
8.75561e-05
-0.00019531
8.56488e-05
-0.000212514
8.36086e-05
-0.00022929
8.14426e-05
-0.000245598
7.91558e-05
-0.000261407
7.6775e-05
-0.000276666
7.4282e-05
-0.000291342
7.17192e-05
-0.000305395
6.90813e-05
-0.000318774
6.63907e-05
-0.000331442
6.36635e-05
-0.000343337
6.0896e-05
-0.000354415
5.81258e-05
-0.000364601
5.53309e-05
-0.000373836
5.25361e-05
-0.000382061
4.9728e-05
-0.000389215
4.68796e-05
-0.000395274
4.39611e-05
-0.00040025
4.09185e-05
-0.00040421
3.76999e-05
-0.000407273
3.42504e-05
-0.0004096
3.0539e-05
-0.000411361
2.65526e-05
-0.000412706
2.23022e-05
-0.00041375
1.7825e-05
-0.000414554
1.31547e-05
-0.000415116
8.3543e-06
-0.000415343
3.46644e-06
-0.000415474
-1.27047e-06
-0.00041541
-5.95636e-06
-0.000415009
-1.04922e-05
-0.000414228
-1.47981e-05
-0.000413037
-1.88558e-05
-0.000411403
-2.26765e-05
-0.000409292
-2.62926e-05
-0.000406681
-2.97461e-05
-0.000403558
-3.30779e-05
-0.000399922
-3.63191e-05
-0.000395785
-3.94911e-05
-0.00039115
-4.26063e-05
-0.00038601
-4.56726e-05
-0.000380345
-4.86889e-05
-0.000374114
-5.16464e-05
-0.000367296
-5.45127e-05
-0.000359839
-5.72853e-05
-0.000351705
-5.99446e-05
-0.000342865
-6.24719e-05
-0.000333284
-6.48413e-05
-0.00032295
-6.70358e-05
-0.000311845
-6.90264e-05
-0.000299953
-7.07816e-05
-0.000287293
-7.22723e-05
-0.000273847
-7.34674e-05
-0.000259659
-7.43498e-05
-0.000244782
-7.48881e-05
-0.000229238
-7.51123e-05
-0.000213112
-7.49939e-05
-0.000196498
-7.45691e-05
-0.000179492
-7.3871e-05
-0.000162188
-7.29582e-05
-0.000144679
-7.18922e-05
-0.000127121
-7.06647e-05
-0.000109761
-6.90988e-05
-9.29226e-05
-6.70487e-05
-7.63197e-05
-6.52764e-05
-5.81528e-05
-6.68648e-05
-3.62196e-05
-7.5456e-05
-1.27808e-05
-8.44672e-05
-5.59419e-05
1.86185e-05
-0.000124323
5.90678e-05
-0.000240859
0.000107588
-0.000268579
0.000155538
-0.000252498
0.000198624
-0.00022346
0.000236155
-0.000198117
0.000269546
-0.000181814
0.000300631
-0.000172877
0.000330622
-0.000167328
0.000359868
-0.000161944
0.000388101
-0.000155179
0.000414857
-0.000146813
0.000439726
-0.000137239
0.00046244
-0.000126946
0.000482912
-0.000116337
0.000501128
-0.000105671
0.000517146
-9.51432e-05
0.000531074
-8.49213e-05
0.000543048
-7.51166e-05
0.000553195
-6.58091e-05
0.000561656
-5.70459e-05
0.000568577
-4.88472e-05
0.000574075
-4.1192e-05
0.000578275
-3.40664e-05
0.000581284
-2.7427e-05
0.000583181
-2.12216e-05
0.000584074
-1.54051e-05
0.000584003
-9.91818e-06
0.000583021
-4.71265e-06
0.000581176
2.42388e-07
0.000578536
5.02705e-06
0.000575115
9.64013e-06
0.000570946
1.41345e-05
0.00056606
1.85523e-05
0.000560493
2.29079e-05
0.000554279
2.72235e-05
0.000547449
3.15201e-05
0.000540024
3.581e-05
0.000532036
4.00824e-05
0.000523516
4.43477e-05
0.000514486
4.85907e-05
0.00050498
5.27985e-05
0.000495004
5.69592e-05
0.000484577
6.10471e-05
0.000473702
6.50399e-05
0.000462357
6.89464e-05
0.000450555
7.26974e-05
0.000438265
7.6322e-05
0.000425464
7.98102e-05
0.000412144
8.31273e-05
0.00039827
8.63059e-05
0.000383848
8.93095e-05
0.000368885
9.21555e-05
0.000353379
9.48597e-05
0.000337366
9.74091e-05
0.000320854
9.98225e-05
0.000303864
0.0001021
0.000286428
0.000104244
0.000268602
0.000106251
0.000250407
0.000108133
0.00023187
0.000109861
0.000213017
0.000111448
0.00019389
0.000112883
0.000174518
0.000114162
0.000154943
0.000115281
0.00013517
0.000116233
0.000115252
0.000117017
9.52113e-05
0.000117616
7.50852e-05
0.000118039
5.49061e-05
0.000118282
3.46905e-05
0.00011833
1.44788e-05
0.000118187
-5.69465e-06
0.00011785
-2.57987e-05
0.000117317
-4.58007e-05
0.000116588
-6.56746e-05
0.000115661
-8.53802e-05
0.000114524
-0.000104887
0.000113192
-0.000124161
0.000111663
-0.000143171
0.000109941
-0.000161873
0.00010803
-0.000180256
0.000105939
-0.000198257
0.00010365
-0.000215844
0.000101196
-0.00023298
9.85792e-05
-0.000249625
9.58001e-05
-0.000265727
9.28769e-05
-0.000281263
8.98189e-05
-0.000296177
8.66326e-05
-0.000310428
8.33325e-05
-0.000323973
7.99356e-05
-0.000336768
7.64589e-05
-0.000348765
7.28926e-05
-0.000359907
6.92678e-05
-0.000370165
6.55893e-05
-0.000379485
6.18561e-05
-0.000387828
5.80703e-05
-0.000395166
5.42179e-05
-0.000401485
5.02806e-05
-0.000406802
4.62355e-05
-0.000411159
4.20567e-05
-0.000414623
3.77139e-05
-0.000417287
3.32036e-05
-0.000419254
2.85192e-05
-0.000420615
2.36633e-05
-0.00042148
1.86897e-05
-0.000421951
1.36259e-05
-0.000422127
8.53079e-06
-0.000422127
3.4661e-06
-0.000421767
-1.63026e-06
-0.00042116
-6.56333e-06
-0.000420309
-1.13431e-05
-0.000419149
-1.59585e-05
-0.000417607
-2.03972e-05
-0.000415625
-2.46592e-05
-0.000413161
-2.8756e-05
-0.000410201
-3.27068e-05
-0.000406744
-3.65341e-05
-0.000402803
-4.02601e-05
-0.000398392
-4.39029e-05
-0.000393522
-4.74756e-05
-0.000388218
-5.09772e-05
-0.000382483
-5.44239e-05
-0.00037633
-5.77994e-05
-0.000369729
-6.11137e-05
-0.000362675
-6.43386e-05
-0.000355136
-6.74837e-05
-0.000347091
-7.0517e-05
-0.000338508
-7.34246e-05
-0.000329357
-7.6187e-05
-0.000319601
-7.87825e-05
-0.000309205
-8.11774e-05
-0.000298124
-8.33528e-05
-0.000286324
-8.52683e-05
-0.000273769
-8.69044e-05
-0.000260422
-8.82348e-05
-0.000246286
-8.92481e-05
-0.000231343
-8.99374e-05
-0.000215609
-9.0303e-05
-0.000199108
-9.03719e-05
-0.000181872
-9.01943e-05
-0.000163953
-8.98115e-05
-0.00014547
-8.91477e-05
-0.000126646
-8.7923e-05
-0.000107679
-8.60151e-05
-8.81503e-05
-8.48054e-05
-6.65165e-05
-8.84987e-05
-4.14126e-05
-0.00010056
-1.54841e-05
-0.000110396
-7.1426e-05
1.6887e-05
-0.00014121
5.64357e-05
-0.000280408
0.000105872
-0.000318015
0.00015655
-0.000303176
0.000203169
-0.00027008
0.000243899
-0.000238846
0.000279631
-0.000217546
0.000312357
-0.000205602
0.000343714
-0.000198685
0.000374331
-0.00019256
0.000403965
-0.000184814
0.000431978
-0.000174826
0.000457785
-0.000163046
0.000481012
-0.000150173
0.000501525
-0.00013685
0.00051938
-0.000123527
0.000534722
-0.000110486
0.000547728
-9.79264e-05
0.000558615
-8.60045e-05
0.000567594
-7.47881e-05
0.000574884
-6.43352e-05
0.00058066
-5.4623e-05
0.000585091
-4.56239e-05
0.000588316
-3.72914e-05
0.000590449
-2.95591e-05
0.000591587
-2.23603e-05
0.000591808
-1.56257e-05
0.000591183
-9.29369e-06
0.000589761
-3.29028e-06
0.000587567
2.4363e-06
0.00058467
7.92377e-06
0.000581067
1.32436e-05
0.000576786
1.84154e-05
0.000571841
2.34971e-05
0.00056627
2.8479e-05
0.000560085
3.34085e-05
0.000553315
3.82904e-05
0.000545964
4.31609e-05
0.000538059
4.7987e-05
0.000529632
5.27747e-05
0.00052068
5.75428e-05
0.000511224
6.22549e-05
0.000501261
6.69222e-05
0.000490798
7.15093e-05
0.000479816
7.60225e-05
0.000468359
8.04029e-05
0.000456356
8.47004e-05
0.00044381
8.88689e-05
0.000430743
9.28767e-05
0.000417127
9.6743e-05
0.000402994
0.000100439
0.000388322
0.000103982
0.000373101
0.000107376
0.000357371
0.00011059
0.000341124
0.000113656
0.000324385
0.000116561
0.00030718
0.000119305
0.000289537
0.000121887
0.000271469
0.000124318
0.000253041
0.000126561
0.000234256
0.000128646
0.00021515
0.000130554
0.000195741
0.000132292
0.000176074
0.000133829
0.00015618
0.000135175
0.000136085
0.000136329
0.000115826
0.000137276
9.54299e-05
0.000138012
7.49303e-05
0.000138539
5.4361e-05
0.000138851
3.37551e-05
0.000138936
1.31436e-05
0.000138799
-7.4403e-06
0.000138434
-2.7961e-05
0.000137838
-4.83814e-05
0.000137008
-6.86759e-05
0.000135956
-8.87979e-05
0.000134646
-0.000108716
0.00013311
-0.000128394
0.000131341
-0.000147795
0.000129342
-0.000166878
0.000127113
-0.000185599
0.00012466
-0.000203935
0.000121986
-0.000221832
0.000119092
-0.000239247
0.000115994
-0.000256144
0.000112697
-0.000272474
0.000109207
-0.0002882
0.000105546
-0.000303272
0.000101705
-0.000317652
9.77117e-05
-0.000331293
9.3577e-05
-0.000344147
8.93125e-05
-0.000356181
8.49269e-05
-0.000367357
8.04439e-05
-0.000377628
7.58604e-05
-0.000386968
7.11957e-05
-0.000395349
6.64513e-05
-0.000402753
6.16223e-05
-0.000409185
5.67123e-05
-0.000414661
5.17121e-05
-0.00041922
4.66157e-05
-0.000422924
4.14179e-05
-0.00042584
3.61192e-05
-0.00042805
3.07293e-05
-0.000429648
2.52611e-05
-0.000430703
1.97441e-05
-0.000431276
1.41989e-05
-0.000431415
8.67041e-06
-0.000431115
3.16634e-06
-0.000430523
-2.22224e-06
-0.000429559
-7.52812e-06
-0.000428208
-1.2694e-05
-0.000426465
-1.77014e-05
-0.000424317
-2.25448e-05
-0.000421747
-2.72297e-05
-0.000418736
-3.1767e-05
-0.000415273
-3.61693e-05
-0.000411351
-4.04566e-05
-0.000406966
-4.46446e-05
-0.000402124
-4.87452e-05
-0.000396827
-5.27721e-05
-0.000391079
-5.6726e-05
-0.000384884
-6.06189e-05
-0.000378238
-6.44448e-05
-0.000371146
-6.82061e-05
-0.000363609
-7.1875e-05
-0.00035563
-7.54636e-05
-0.000347192
-7.89544e-05
-0.000338287
-8.23298e-05
-0.000328896
-8.55778e-05
-0.000319001
-8.86776e-05
-0.000308574
-9.16045e-05
-0.000297587
-9.43403e-05
-0.000285997
-9.68583e-05
-0.000273765
-9.91365e-05
-0.000260845
-0.000101154
-0.0002472
-0.000102893
-0.000232796
-0.000104341
-0.000217604
-0.000105495
-0.000201612
-0.000106364
-0.000184811
-0.000106996
-0.000167207
-0.000107415
-0.000148859
-0.000107496
-0.000129853
-0.000106929
-0.00011029
-0.000105579
-8.99387e-05
-0.000105156
-6.78727e-05
-0.000110565
-4.30195e-05
-0.000125413
-1.70432e-05
-0.000136372
-8.84693e-05
1.45152e-05
-0.000155725
5.18271e-05
-0.00031772
0.000100488
-0.000366676
0.000153461
-0.000356149
0.000204415
-0.000321034
0.000249791
-0.000284222
0.000289479
-0.000257234
0.000325336
-0.000241459
0.0003593
-0.000232649
0.000392306
-0.000225566
0.000424203
-0.00021671
0.00045421
-0.000204833
0.000481483
-0.000190318
0.000505508
-0.000174199
0.000526141
-0.000157483
0.000543514
-0.0001409
0.000557905
-0.000124877
0.00056968
-0.000109701
0.000579157
-9.54815e-05
0.000586652
-8.22828e-05
0.000592454
-7.01377e-05
0.000596808
-5.89773e-05
0.00059992
-4.87351e-05
0.000601954
-3.93257e-05
0.000603039
-3.06445e-05
0.000603278
-2.25993e-05
0.000602746
-1.50932e-05
0.000601491
-8.03923e-06
0.000599562
-1.36072e-06
0.000596982
5.01626e-06
0.00059377
1.1135e-05
0.000589948
1.70657e-05
0.000585506
2.28583e-05
0.00058049
2.85122e-05
0.000574878
3.40918e-05
0.000568673
3.96128e-05
0.000561883
4.50809e-05
0.000554553
5.04904e-05
0.000546651
5.58898e-05
0.000538183
6.12426e-05
0.000529159
6.65663e-05
0.000519586
7.18286e-05
0.000509475
7.70332e-05
0.000498818
8.21656e-05
0.000487634
8.72063e-05
0.000475894
9.21435e-05
0.000463626
9.69677e-05
0.000450831
0.000101665
0.000437486
0.000106222
0.000423586
0.000110643
0.000409119
0.000114907
0.00039411
0.00011899
0.000378587
0.000122899
0.000362521
0.000126656
0.000345953
0.000130224
0.0003289
0.000133613
0.000311363
0.000136842
0.000293385
0.000139865
0.000275006
0.000142697
0.00025622
0.000145348
0.000237072
0.000147793
0.000217594
0.000150032
0.000197826
0.000152061
0.000177786
0.000153869
0.000157501
0.00015546
0.000137014
0.000156816
0.000116342
0.000157947
9.5532e-05
0.000158823
7.46033e-05
0.000159467
5.36107e-05
0.000159843
3.25734e-05
0.000159973
1.15203e-05
0.000159852
-9.50367e-06
0.000159458
-3.04658e-05
0.0001588
-5.13302e-05
0.000157872
-7.20525e-05
0.000156678
-9.26143e-05
0.000155208
-0.000112964
0.00015346
-0.000133064
0.000151441
-0.000152874
0.000149153
-0.000172357
0.000146596
-0.000191467
0.00014377
-0.000210177
0.000140696
-0.000228423
0.000137337
-0.00024617
0.000133742
-0.00026338
0.000129907
-0.000280001
0.000125828
-0.000296001
0.000121545
-0.000311315
0.000117019
-0.000325913
0.00011231
-0.00033975
0.000107414
-0.000352781
0.000102344
-0.000364971
9.71167e-05
-0.000376276
9.17491e-05
-0.000386676
8.62604e-05
-0.00039613
8.06497e-05
-0.000404636
7.49568e-05
-0.000412165
6.91509e-05
-0.000418732
6.32794e-05
-0.000424359
5.7339e-05
-0.000429074
5.13309e-05
-0.000432934
4.52782e-05
-0.000435983
3.91684e-05
-0.000438303
3.30486e-05
-0.000439951
2.69091e-05
-0.00044101
2.0803e-05
-0.000441525
1.47142e-05
-0.000441576
8.7219e-06
-0.000441231
2.82109e-06
-0.000440407
-3.04643e-06
-0.000439211
-8.72365e-06
-0.000437641
-1.42646e-05
-0.000435684
-1.96583e-05
-0.00043332
-2.4909e-05
-0.000430532
-3.00173e-05
-0.000427299
-3.5e-05
-0.000423606
-3.98622e-05
-0.000419443
-4.46198e-05
-0.000414796
-4.92912e-05
-0.00040966
-5.38815e-05
-0.000404028
-5.84037e-05
-0.000397901
-6.28537e-05
-0.000391278
-6.72419e-05
-0.000384161
-7.15614e-05
-0.000376557
-7.58099e-05
-0.000368451
-7.99814e-05
-0.000359848
-8.40661e-05
-0.000350751
-8.8052e-05
-0.000341155
-9.19259e-05
-0.000331061
-9.56716e-05
-0.00032046