/*--------------------------------*- C++ -*----------------------------------*\
| =========                 |                                                 |
| \\      /  F ield         | OpenFOAM: The Open Source CFD Toolbox           |
|  \\    /   O peration     | Version:  v2006                                 |
|   \\  /    A nd           | Website:  www.openfoam.com                      |
|    \\/     M anipulation  |                                                 |
\*---------------------------------------------------------------------------*/
FoamFile
{
    version     2.0;
    format      ascii;
    class       volScalarField;
    location    "4.4";
    object      p_rgh;
}
// * * * * * * * * * * * * * * * * * * * * * * * * * * * * * * * * * * * * * //

dimensions      [1 -1 -2 0 0 0 0];


internalField   nonuniform List<scalar> 
150000
(
-1584.03
-1584.57
-1585.44
-1586.66
-1588.31
-1590.39
-1592.9
-1595.84
-1599.2
-1602.98
-1607.16
-1611.75
-1616.73
-1622.09
-1627.82
-1633.91
-1640.35
-1647.11
-1654.19
-1661.58
-1669.24
-1677.17
-1685.35
-1693.76
-1702.37
-1711.17
-1720.13
-1729.23
-1738.45
-1747.77
-1757.15
-1766.58
-1776.03
-1785.48
-1794.89
-1804.24
-1813.49
-1822.64
-1831.63
-1840.45
-1849.07
-1857.45
-1865.56
-1873.39
-1880.88
-1888.01
-1894.75
-1901.06
-1906.92
-1912.3
-1917.16
-1921.5
-1925.27
-1928.44
-1930.98
-1932.87
-1934.07
-1934.57
-1934.35
-1933.38
-1931.62
-1929.04
-1925.59
-1921.24
-1915.97
-1909.78
-1902.68
-1894.66
-1885.7
-1875.81
-1864.95
-1853.13
-1840.32
-1826.52
-1811.72
-1795.92
-1779.11
-1761.29
-1742.46
-1722.62
-1701.78
-1679.94
-1657.12
-1633.31
-1608.53
-1582.79
-1556.11
-1528.5
-1499.98
-1470.57
-1440.29
-1409.16
-1377.2
-1344.43
-1310.88
-1276.57
-1241.53
-1205.78
-1169.35
-1132.26
-1094.55
-1056.23
-1017.34
-977.892
-937.919
-897.443
-856.487
-815.075
-773.227
-730.966
-688.311
-645.28
-601.893
-558.165
-514.113
-469.753
-425.097
-380.16
-334.953
-289.49
-243.78
-197.835
-151.665
-105.279
-58.688
-11.9007
35.073
82.2231
129.54
177.016
224.644
272.421
320.344
368.374
416.419
464.437
512.606
560.888
609.225
657.59
705.96
754.314
802.632
850.892
899.072
947.15
995.1
1042.9
1090.52
1137.94
1185.13
1232.06
1278.7
1325.02
1371.01
1416.62
1461.82
1506.59
1550.9
1594.71
1638
1680.74
1722.9
1764.44
1805.34
1845.58
1885.12
1923.93
1962
1999.29
2035.78
2071.45
2106.28
2140.24
2173.31
2205.49
2236.73
2267.05
2296.4
2324.79
2352.2
2378.61
2404.02
2428.42
2451.8
2474.16
2495.49
2515.79
2535.06
2553.29
2570.49
2586.67
2601.82
2615.96
2629.08
2641.2
2652.33
2662.48
2671.65
2679.87
2687.14
2693.48
2698.91
2703.44
2707.08
2709.86
2711.79
2712.91
2713.24
2712.8
2711.62
2709.73
2707.15
2703.92
2700.04
2695.54
2690.45
2684.79
2678.59
2671.86
2664.64
2656.95
2648.81
2640.27
2631.33
2622.03
2612.41
2602.47
2592.27
2581.81
2571.13
2560.26
2549.22
2538.03
2526.74
2515.35
2503.91
2492.42
2480.92
2469.43
2457.98
2446.59
2435.28
2424.07
2412.99
2402.05
2391.28
2380.7
2370.32
2360.17
2350.25
2340.61
2331.24
2322.18
2313.42
2304.99
2296.89
2289.15
2281.76
2274.75
2268.13
2261.92
2256.13
2250.74
2245.78
2241.25
2237.15
2233.49
2230.27
2227.5
2225.18
2223.31
2221.89
2220.91
2220.39
2220.31
2220.68
2221.48
2222.71
2224.35
2226.4
2228.86
2231.73
2235.03
2238.71
2242.74
2247.09
2251.74
2256.72
2262.04
2267.71
2273.69
2279.97
2286.5
2293.26
2300.23
2307.4
2314.73
2322.22
2329.83
2337.55
2345.35
2353.22
2361.13
2369.06
2376.98
2384.88
2392.73
2400.51
2408.2
2415.77
2423.21
2430.48
2437.58
2444.47
2451.14
2457.57
2463.74
2469.63
2475.21
2480.49
2485.42
2490.01
2494.24
2498.09
2501.55
2504.6
2507.24
2509.46
2511.25
2512.6
2513.5
2513.95
2513.95
2513.49
2512.57
2511.19
2509.36
2507.06
2504.32
2501.13
2497.49
2493.43
2488.93
2484.02
2478.69
2472.98
2466.87
2460.4
2453.57
2446.39
2438.89
2431.08
2422.97
2414.59
2405.95
2397.07
2387.97
2378.67
2369.19
2359.55
2349.76
2339.86
2329.85
2319.77
2309.63
2299.46
2289.27
2279.09
2268.95
2258.85
2248.81
2238.85
2228.98
2219.24
2209.63
2200.18
2190.91
2181.84
2172.97
2164.34
2155.96
2147.85
2140.01
2132.46
2125.2
2118.24
2111.61
2105.3
2099.33
2093.7
2088.43
2083.53
2078.99
2074.83
2071.06
2067.67
2064.67
2062.06
2059.86
2058.05
2056.65
2055.64
2055.04
2054.84
2055.04
2055.64
2056.63
2058.02
2059.8
2061.97
2064.52
2067.44
2070.74
2074.41
2078.43
2082.81
2087.54
2092.61
2098.01
2103.73
2109.77
2116.12
2122.77
2129.71
2136.93
2144.42
2152.17
2160.17
2168.42
2176.9
2185.6
2194.52
2203.63
2212.93
2222.42
2232.07
2241.88
2251.83
2261.92
2272.14
2282.47
2292.89
2303.41
2314.01
2324.67
2335.39
2346.15
2356.94
2367.76
2378.58
2389.4
2400.21
2410.99
2421.74
2432.44
2443.08
2453.65
2464.14
2474.54
2484.84
2495.02
2505.08
2515.01
2524.8
2534.43
2543.9
2553.2
2562.32
2571.25
2579.98
2588.5
2596.81
2604.89
2612.74
2620.36
2627.73
2634.84
2641.7
2648.29
2654.6
2660.64
2666.4
2671.86
2677.03
2681.9
2686.47
2690.73
2694.68
2698.31
2701.62
2704.62
2707.29
2709.63
2711.67
2713.33
2714.65
2715.8
2716.2
2716.46
-1583.75
-1584.33
-1585.17
-1586.37
-1588.02
-1590.1
-1592.61
-1595.56
-1598.92
-1602.7
-1606.9
-1611.49
-1616.48
-1621.85
-1627.59
-1633.69
-1640.13
-1646.91
-1654.01
-1661.4
-1669.08
-1677.03
-1685.22
-1693.64
-1702.27
-1711.09
-1720.07
-1729.19
-1738.43
-1747.77
-1757.17
-1766.62
-1776.1
-1785.56
-1794.99
-1804.36
-1813.65
-1822.81
-1831.83
-1840.67
-1849.31
-1857.72
-1865.86
-1873.7
-1881.22
-1888.38
-1895.15
-1901.5
-1907.41
-1912.83
-1917.74
-1922.11
-1925.9
-1929.1
-1931.66
-1933.56
-1934.78
-1935.27
-1935
-1933.97
-1932.13
-1929.48
-1926.01
-1921.69
-1916.5
-1910.41
-1903.41
-1895.47
-1886.57
-1876.72
-1865.9
-1854.09
-1841.3
-1827.51
-1812.72
-1796.92
-1780.11
-1762.28
-1743.45
-1723.6
-1702.75
-1680.91
-1658.07
-1634.24
-1609.45
-1583.7
-1557
-1529.38
-1500.84
-1471.41
-1441.11
-1409.96
-1377.98
-1345.19
-1311.61
-1277.28
-1242.22
-1206.45
-1170
-1132.9
-1095.16
-1056.83
-1017.91
-978.45
-938.46
-897.968
-856.998
-815.573
-773.714
-731.442
-688.778
-645.739
-602.345
-558.612
-514.555
-470.191
-425.532
-380.593
-335.384
-289.919
-244.208
-198.262
-152.09
-105.703
-59.1111
-12.3231
34.6511
81.8019
129.119
176.589
224.197
271.922
319.748
367.693
415.825
464.188
512.521
560.861
609.224
657.603
705.983
754.347
802.675
850.945
899.136
947.225
995.187
1043
1090.63
1138.06
1185.26
1232.2
1278.86
1325.2
1371.19
1416.82
1462.04
1506.82
1551.14
1594.97
1638.28
1681.03
1723.2
1764.76
1805.68
1845.93
1885.49
1924.32
1962.4
1999.71
2036.21
2071.9
2106.74
2140.72
2173.81
2206
2237.26
2267.58
2296.95
2325.35
2352.77
2379.19
2404.61
2429.02
2452.41
2474.77
2496.11
2516.41
2535.68
2553.92
2571.12
2587.3
2602.45
2616.59
2629.71
2641.83
2652.96
2663.1
2672.27
2680.48
2687.75
2694.09
2699.5
2704.02
2707.65
2710.42
2712.34
2713.45
2713.77
2713.33
2712.14
2710.25
2707.66
2704.41
2700.51
2696
2690.89
2685.2
2678.97
2672.22
2664.97
2657.26
2649.1
2640.53
2631.58
2622.26
2612.61
2602.66
2592.43
2581.96
2571.26
2560.37
2549.31
2538.11
2526.8
2515.4
2503.93
2492.43
2480.92
2469.41
2457.95
2446.54
2435.21
2423.99
2412.89
2401.94
2391.16
2380.57
2370.19
2360.03
2350.12
2340.48
2331.11
2322.03
2313.27
2304.84
2296.74
2289
2281.62
2274.61
2267.96
2261.76
2255.96
2250.57
2245.6
2241.07
2236.96
2233.3
2230.08
2227.31
2225
2223.13
2221.71
2220.75
2220.24
2220.16
2220.53
2221.33
2222.57
2224.25
2226.37
2228.88
2231.72
2234.86
2238.31
2242.07
2246.23
2250.89
2256.04
2261.58
2267.41
2273.49
2279.82
2286.39
2293.17
2300.17
2307.35
2314.7
2322.2
2329.83
2337.56
2345.38
2353.26
2361.18
2369.12
2377.06
2384.97
2392.84
2400.63
2408.33
2415.92
2423.37
2430.65
2437.76
2444.67
2451.35
2457.79
2463.97
2469.87
2475.47
2480.75
2485.7
2490.3
2494.53
2498.39
2501.85
2504.91
2507.56
2509.79
2511.58
2512.93
2513.83
2514.28
2514.28
2513.82
2512.9
2511.51
2509.67
2507.38
2504.62
2501.42
2497.78
2493.7
2489.2
2484.27
2478.94
2473.21
2467.09
2460.6
2453.75
2446.56
2439.04
2431.21
2423.09
2414.69
2406.03
2397.12
2388
2378.68
2369.17
2359.51
2349.7
2339.77
2329.75
2319.64
2309.47
2299.25
2289.01
2278.77
2268.53
2258.34
2248.23
2238.22
2228.35
2218.63
2209.08
2199.71
2190.51
2181.52
2172.73
2164.15
2155.8
2147.68
2139.84
2132.28
2125.01
2118.04
2111.4
2105.08
2099.1
2093.47
2088.2
2083.29
2078.75
2074.58
2070.8
2067.41
2064.41
2061.8
2059.59
2057.78
2056.37
2055.37
2054.76
2054.56
2054.76
2055.36
2056.36
2057.74
2059.52
2061.69
2064.24
2067.17
2070.47
2074.13
2078.16
2082.54
2087.27
2092.34
2097.74
2103.46
2109.5
2115.85
2122.5
2129.44
2136.66
2144.16
2151.91
2159.92
2168.16
2176.65
2185.35
2194.26
2203.38
2212.68
2222.17
2231.82
2241.63
2251.59
2261.68
2271.9
2282.23
2292.66
2303.18
2313.77
2324.44
2335.16
2345.92
2356.72
2367.53
2378.36
2389.18
2399.99
2410.77
2421.52
2432.22
2442.86
2453.43
2463.92
2474.32
2484.62
2494.81
2504.87
2514.8
2524.58
2534.22
2543.69
2552.99
2562.11
2571.04
2579.77
2588.29
2596.6
2604.68
2612.54
2620.15
2627.52
2634.64
2641.49
2648.08
2654.4
2660.44
2666.19
2671.66
2676.83
2681.7
2686.27
2690.53
2694.48
2698.12
2701.43
2704.43
2707.09
2709.43
2711.45
2713.11
2714.43
2715.61
2716.04
2716.3
-1583.6
-1584.15
-1584.98
-1586.19
-1587.85
-1589.94
-1592.46
-1595.41
-1598.79
-1602.58
-1606.78
-1611.39
-1616.39
-1621.77
-1627.53
-1633.65
-1640.11
-1646.91
-1654.03
-1661.45
-1669.15
-1677.12
-1685.34
-1693.79
-1702.45
-1711.29
-1720.3
-1729.46
-1738.73
-1748.1
-1757.54
-1767.03
-1776.53
-1786.03
-1795.5
-1804.91
-1814.23
-1823.44
-1832.49
-1841.38
-1850.06
-1858.5
-1866.68
-1874.57
-1882.13
-1889.32
-1896.13
-1902.52
-1908.45
-1913.91
-1918.85
-1923.26
-1927.09
-1930.32
-1932.93
-1934.87
-1936.13
-1936.67
-1936.48
-1935.52
-1933.77
-1931.19
-1927.75
-1923.44
-1918.24
-1912.14
-1905.12
-1897.18
-1888.29
-1878.45
-1867.63
-1855.83
-1843.04
-1829.25
-1814.45
-1798.65
-1781.83
-1764
-1745.15
-1725.3
-1704.43
-1682.57
-1659.71
-1635.87
-1611.05
-1585.28
-1558.55
-1530.9
-1502.33
-1472.87
-1442.53
-1411.34
-1379.32
-1346.49
-1312.88
-1278.5
-1243.4
-1207.59
-1171.09
-1133.94
-1096.16
-1057.78
-1018.82
-979.316
-939.282
-898.746
-857.732
-816.264
-774.363
-732.05
-689.345
-646.268
-602.835
-559.065
-514.973
-470.575
-425.883
-380.912
-335.673
-290.179
-244.439
-198.466
-152.268
-105.856
-59.2378
-12.4239
34.5766
81.7546
129.101
176.605
224.258
272.048
319.955
367.956
416.052
464.206
512.484
560.818
609.195
657.596
706.001
754.39
802.743
851.039
899.256
947.371
995.361
1043.2
1090.86
1138.32
1185.55
1232.52
1279.21
1325.58
1371.61
1417.27
1462.52
1507.34
1551.7
1595.56
1638.9
1681.68
1723.89
1765.48
1806.43
1846.72
1886.3
1925.17
1963.28
2000.62
2037.16
2072.87
2107.75
2141.75
2174.87
2207.08
2238.36
2268.71
2298.1
2326.52
2353.95
2380.39
2405.82
2430.24
2453.64
2476.02
2497.36
2517.67
2536.94
2555.18
2572.39
2588.57
2603.72
2617.85
2630.96
2643.07
2654.19
2664.32
2673.47
2681.67
2688.92
2695.23
2700.62
2705.12
2708.73
2711.48
2713.4
2714.49
2714.8
2714.34
2713.13
2711.21
2708.59
2705.3
2701.37
2696.81
2691.66
2685.94
2679.67
2672.88
2665.59
2657.84
2649.65
2641.04
2632.04
2622.69
2613
2603.01
2592.75
2582.23
2571.5
2560.57
2549.48
2538.24
2526.89
2515.46
2503.96
2492.42
2480.88
2469.34
2457.84
2446.4
2435.05
2423.79
2412.67
2401.69
2390.88
2380.26
2369.85
2359.67
2349.73
2340.06
2330.66
2321.56
2312.77
2304.31
2296.18
2288.41
2281
2273.96
2267.29
2261.12
2255.31
2249.91
2244.93
2240.37
2236.26
2232.59
2229.36
2226.58
2224.25
2222.37
2220.95
2219.98
2219.45
2219.38
2219.75
2220.56
2221.8
2223.46
2225.56
2228.08
2231.01
2234.31
2237.94
2241.91
2246.21
2250.84
2255.84
2261.22
2266.95
2273.01
2279.34
2285.91
2292.72
2299.73
2306.93
2314.31
2321.83
2329.48
2337.24
2345.09
2353
2360.95
2368.92
2376.89
2384.84
2392.73
2400.56
2408.29
2415.91
2423.38
2430.7
2437.84
2444.78
2451.49
2457.96
2464.17
2470.09
2475.72
2481.03
2486
2490.62
2494.88
2498.76
2502.24
2505.33
2507.99
2510.23
2512.04
2513.4
2514.32
2514.79
2514.79
2514.34
2513.43
2512.05
2510.21
2507.92
2505.17
2501.97
2498.33
2494.24
2489.73
2484.8
2479.46
2473.72
2467.59
2461.09
2454.24
2447.03
2439.5
2431.66
2423.52
2415.1
2406.42
2397.51
2388.37
2379.03
2369.51
2359.83
2350
2340.06
2330.01
2319.89
2309.71
2299.5
2289.27
2279.04
2268.83
2258.67
2248.57
2238.55
2228.63
2218.84
2209.19
2199.72
2190.43
2181.34
2172.48
2163.85
2155.46
2147.33
2139.47
2131.88
2124.6
2117.62
2110.96
2104.63
2098.64
2092.99
2087.71
2082.78
2078.23
2074.06
2070.27
2066.87
2063.86
2061.25
2059.03
2057.22
2055.81
2054.8
2054.19
2053.99
2054.19
2054.78
2055.78
2057.17
2058.94
2061.11
2063.66
2066.59
2069.89
2073.56
2077.59
2081.97
2086.7
2091.77
2097.18
2102.9
2108.95
2115.3
2121.95
2128.9
2136.12
2143.62
2151.38
2159.39
2167.64
2176.12
2184.83
2193.75
2202.87
2212.18
2221.67
2231.33
2241.14
2251.1
2261.2
2271.42
2281.75
2292.19
2302.71
2313.31
2323.98
2334.71
2345.47
2356.27
2367.1
2377.93
2388.75
2399.57
2410.36
2421.11
2431.81
2442.46
2453.04
2463.53
2473.94
2484.24
2494.43
2504.5
2514.43
2524.22
2533.86
2543.34
2552.64
2561.77
2570.7
2579.44
2587.96
2596.28
2604.37
2612.22
2619.84
2627.22
2634.34
2641.2
2647.79
2654.11
2660.16
2665.92
2671.38
2676.56
2681.44
2686.01
2690.27
2694.22
2697.86
2701.18
2704.17
2706.84
2709.18
2711.21
2712.87
2714.19
2715.38
2715.81
2716.05
-1583.34
-1583.89
-1584.73
-1585.94
-1587.6
-1589.69
-1592.22
-1595.18
-1598.57
-1602.37
-1606.59
-1611.21
-1616.23
-1621.63
-1627.41
-1633.55
-1640.04
-1646.87
-1654.01
-1661.46
-1669.19
-1677.2
-1685.45
-1693.94
-1702.63
-1711.52
-1720.57
-1729.77
-1739.08
-1748.5
-1757.99
-1767.52
-1777.08
-1786.64
-1796.16
-1805.62
-1815
-1824.26
-1833.38
-1842.32
-1851.06
-1859.57
-1867.81
-1875.76
-1883.39
-1890.66
-1897.54
-1903.99
-1910
-1915.53
-1920.54
-1925.01
-1928.91
-1932.21
-1934.87
-1936.87
-1938.18
-1938.76
-1938.61
-1937.68
-1935.97
-1933.43
-1930.05
-1925.81
-1920.68
-1914.63
-1907.67
-1899.76
-1890.9
-1881.08
-1870.28
-1858.5
-1845.72
-1831.94
-1817.14
-1801.34
-1784.51
-1766.67
-1747.81
-1727.93
-1707.05
-1685.16
-1662.27
-1638.39
-1613.54
-1587.72
-1560.95
-1533.25
-1504.63
-1475.12
-1444.73
-1413.48
-1381.4
-1348.51
-1314.83
-1280.4
-1245.23
-1209.35
-1172.79
-1135.57
-1097.73
-1059.29
-1020.26
-980.694
-940.6
-900.005
-858.934
-817.411
-775.457
-733.093
-690.339
-647.216
-603.739
-559.928
-515.796
-471.36
-426.633
-381.628
-336.358
-290.833
-245.065
-199.065
-152.841
-106.403
-59.7614
-12.925
34.0968
81.2945
128.658
176.177
223.841
271.637
319.559
367.604
415.768
464.044
512.375
560.755
609.17
657.606
706.047
754.473
802.866
851.202
899.462
947.62
995.654
1043.54
1091.25
1138.76
1186.03
1233.06
1279.79
1326.22
1372.3
1418.01
1463.31
1508.18
1552.59
1596.51
1639.9
1682.74
1725
1766.64
1807.65
1847.98
1887.62
1926.53
1964.69
2002.07
2038.66
2074.42
2109.33
2143.37
2176.52
2208.77
2240.09
2270.46
2299.88
2328.33
2355.78
2382.24
2407.7
2432.13
2455.55
2477.93
2499.28
2519.59
2538.87
2557.11
2574.32
2590.49
2605.63
2619.75
2632.85
2644.95
2656.05
2666.16
2675.29
2683.47
2690.69
2696.98
2702.35
2706.81
2710.4
2713.11
2714.99
2716.05
2716.31
2715.81
2714.56
2712.59
2709.92
2706.58
2702.59
2697.97
2692.76
2686.98
2680.65
2673.8
2666.45
2658.64
2650.38
2641.72
2632.66
2623.25
2613.51
2603.47
2593.15
2582.58
2571.8
2560.82
2549.67
2538.39
2526.99
2515.5
2503.96
2492.37
2480.78
2469.2
2457.65
2446.17
2434.77
2423.48
2412.31
2401.29
2390.45
2379.79
2369.34
2359.12
2349.15
2339.45
2330.02
2320.89
2312.08
2303.59
2295.44
2287.65
2280.23
2273.21
2266.61
2260.3
2254.45
2249.02
2244.03
2239.46
2235.34
2231.66
2228.42
2225.64
2223.31
2221.43
2220.01
2219.04
2218.52
2218.45
2218.83
2219.64
2220.9
2222.59
2224.69
2227.2
2230.09
2233.34
2236.95
2240.91
2245.25
2250
2255.13
2260.62
2266.4
2272.48
2278.84
2285.44
2292.27
2299.32
2306.56
2313.97
2321.53
2329.22
2337.02
2344.91
2352.86
2360.85
2368.86
2376.88
2384.86
2392.8
2400.67
2408.44
2416.1
2423.62
2430.98
2438.16
2445.13
2451.89
2458.39
2464.64
2470.6
2476.26
2481.6
2486.61
2491.26
2495.55
2499.45
2502.96
2506.07
2508.76
2511.02
2512.84
2514.22
2515.15
2515.62
2515.64
2515.19
2514.28
2512.9
2511.06
2508.76
2506
2502.79
2499.13
2495.03
2490.5
2485.55
2480.19
2474.42
2468.26
2461.73
2454.84
2447.6
2440.03
2432.15
2423.97
2415.51
2406.79
2397.83
2388.65
2379.26
2369.69
2359.96
2350.08
2340.09
2329.99
2319.82
2309.59
2299.31
2289.02
2278.73
2268.47
2258.25
2248.12
2238.08
2228.16
2218.38
2208.75
2199.28
2189.99
2180.9
2172.01
2163.35
2154.93
2146.77
2138.88
2131.27
2123.95
2116.95
2110.27
2103.92
2097.9
2092.24
2086.94
2082
2077.44
2073.25
2069.45
2066.03
2063.01
2060.39
2058.17
2056.35
2054.93
2053.91
2053.3
2053.09
2053.29
2053.88
2054.88
2056.26
2058.04
2060.21
2062.76
2065.69
2068.99
2072.66
2076.7
2081.08
2085.82
2090.89
2096.3
2102.03
2108.08
2114.44
2121.1
2128.05
2135.28
2142.78
2150.54
2158.56
2166.82
2175.31
2184.02
2192.95
2202.08
2211.39
2220.89
2230.55
2240.38
2250.34
2260.45
2270.68
2281.02
2291.46
2301.99
2312.6
2323.28
2334.01
2344.78
2355.59
2366.42
2377.26
2388.09
2398.92
2409.71
2420.47
2431.19
2441.84
2452.43
2462.93
2473.34
2483.65
2493.85
2503.93
2513.87
2523.67
2533.31
2542.8
2552.11
2561.24
2570.19
2578.93
2587.47
2595.79
2603.88
2611.75
2619.38
2626.76
2633.88
2640.75
2647.35
2653.68
2659.73
2665.5
2670.97
2676.15
2681.03
2685.61
2689.88
2693.84
2697.48
2700.8
2703.8
2706.47
2708.81
2710.85
2712.52
2713.84
2715.04
2715.45
2715.69
-1582.98
-1583.54
-1584.38
-1585.6
-1587.26
-1589.36
-1591.9
-1594.87
-1598.28
-1602.1
-1606.33
-1610.98
-1616.02
-1621.45
-1627.25
-1633.43
-1639.95
-1646.81
-1653.99
-1661.48
-1669.26
-1677.31
-1685.61
-1694.14
-1702.89
-1711.83
-1720.93
-1730.19
-1739.57
-1749.05
-1758.6
-1768.2
-1777.83
-1787.45
-1797.04
-1806.58
-1816.03
-1825.37
-1834.57
-1843.59
-1852.41
-1861
-1869.33
-1877.36
-1885.07
-1892.42
-1899.39
-1905.93
-1912.02
-1917.64
-1922.74
-1927.29
-1931.28
-1934.66
-1937.4
-1939.48
-1940.88
-1941.55
-1941.47
-1940.62
-1938.97
-1936.49
-1933.16
-1928.96
-1923.88
-1917.88
-1910.97
-1903.1
-1894.29
-1884.5
-1873.73
-1861.97
-1849.21
-1835.44
-1820.66
-1804.85
-1788.02
-1770.17
-1751.3
-1731.41
-1710.5
-1688.57
-1665.65
-1641.73
-1616.84
-1590.97
-1564.15
-1536.39
-1507.71
-1478.12
-1447.66
-1416.34
-1384.18
-1351.21
-1317.45
-1282.93
-1247.68
-1211.71
-1175.07
-1137.77
-1099.84
-1061.3
-1022.2
-982.543
-942.365
-901.689
-860.539
-818.938
-776.909
-734.473
-691.65
-648.459
-604.918
-561.045
-516.855
-472.363
-427.582
-382.526
-337.207
-291.636
-245.823
-199.779
-153.513
-107.035
-60.3534
-13.4774
33.5842
80.8221
128.227
175.789
223.498
271.342
319.308
367.388
415.574
463.849
512.204
560.62
609.079
657.562
706.051
754.528
802.972
851.362
899.676
947.892
995.985
1043.93
1091.7
1139.27
1186.62
1233.7
1280.51
1327
1373.15
1418.93
1464.31
1509.25
1553.73
1597.72
1641.18
1684.09
1726.42
1768.13
1809.2
1849.61
1889.31
1928.28
1966.51
2003.95
2040.6
2076.41
2111.38
2145.48
2178.68
2210.98
2242.34
2272.76
2302.21
2330.69
2358.18
2384.67
2410.15
2434.61
2458.04
2480.44
2501.8
2522.13
2541.41
2559.65
2576.85
2593.02
2608.15
2622.26
2635.34
2647.42
2658.49
2668.58
2677.68
2685.82
2693.01
2699.25
2704.58
2709
2712.54
2715.21
2717.04
2718.04
2718.26
2717.7
2716.39
2714.36
2711.63
2708.22
2704.17
2699.49
2694.21
2688.36
2681.96
2675.04
2667.62
2659.74
2651.41
2642.67
2633.55
2624.07
2614.25
2604.14
2593.75
2583.11
2572.25
2561.2
2549.99
2538.64
2527.17
2515.62
2504.01
2492.36
2480.7
2469.06
2457.45
2445.91
2434.45
2423.1
2411.88
2400.81
2389.91
2379.2
2368.7
2358.44
2348.42
2338.67
2329.2
2320.03
2311.17
2302.64
2294.46
2286.64
2279.19
2272.13
2265.47
2259.17
2253.29
2247.84
2242.82
2238.24
2234.1
2230.4
2227.15
2224.36
2222.02
2220.14
2218.71
2217.74
2217.23
2217.16
2217.55
2218.37
2219.64
2221.34
2223.47
2226.01
2228.96
2232.29
2235.99
2240.05
2244.46
2249.21
2254.32
2259.79
2265.59
2271.69
2278.07
2284.7
2291.58
2298.66
2305.95
2313.4
2321.01
2328.75
2336.61
2344.54
2352.55
2360.6
2368.67
2376.74
2384.78
2392.77
2400.7
2408.53
2416.24
2423.82
2431.24
2438.47
2445.5
2452.31
2458.87
2465.16
2471.18
2476.88
2482.27
2487.32
2492.02
2496.35
2500.29
2503.84
2506.98
2509.7
2511.99
2513.83
2515.24
2516.19
2516.68
2516.71
2516.27
2515.36
2513.99
2512.15
2509.85
2507.09
2503.87
2500.2
2496.09
2491.54
2486.57
2481.18
2475.39
2469.2
2462.64
2455.72
2448.45
2440.84
2432.92
2424.7
2416.2
2407.43
2398.43
2389.2
2379.77
2370.15
2360.37
2350.45
2340.41
2330.27
2320.05
2309.77
2299.45
2289.12
2278.79
2268.49
2258.22
2248.03
2237.92
2227.93
2218.06
2208.35
2198.81
2189.46
2180.31
2171.38
2162.68
2154.22
2146.01
2138.08
2130.44
2123.09
2116.06
2109.35
2102.96
2096.93
2091.24
2085.91
2080.95
2076.36
2072.16
2068.34
2064.91
2061.88
2059.24
2057.01
2055.18
2053.75
2052.73
2052.11
2051.9
2052.09
2052.68
2053.67
2055.06
2056.84
2059
2061.56
2064.49
2067.79
2071.47
2075.5
2079.89
2084.63
2089.71
2095.13
2100.87
2106.92
2113.29
2119.95
2126.91
2134.15
2141.66
2149.43
2157.45
2165.72
2174.22
2182.94
2191.88
2201.01
2210.34
2219.85
2229.52
2239.35
2249.33
2259.45
2269.68
2280.03
2290.49
2301.03
2311.65
2322.34
2333.08
2343.87
2354.69
2365.53
2376.37
2387.22
2398.05
2408.86
2419.63
2430.36
2441.02
2451.62
2462.13
2472.56
2482.88
2493.09
2503.17
2513.13
2522.94
2532.59
2542.09
2551.41
2560.55
2569.51
2578.26
2586.8
2595.13
2603.24
2611.12
2618.75
2626.14
2633.28
2640.16
2646.76
2653.1
2659.16
2664.93
2670.42
2675.6
2680.49
2685.08
2689.35
2693.32
2696.96
2700.29
2703.3
2705.97
2708.32
2710.36
2712.04
2713.36
2714.56
2714.97
2715.21
-1582.52
-1583.09
-1583.94
-1585.16
-1586.83
-1588.94
-1591.49
-1594.48
-1597.9
-1601.75
-1606.01
-1610.68
-1615.75
-1621.21
-1627.06
-1633.27
-1639.83
-1646.74
-1653.97
-1661.51
-1669.34
-1677.45
-1685.81
-1694.4
-1703.22
-1712.22
-1721.4
-1730.73
-1740.18
-1749.74
-1759.37
-1769.06
-1778.77
-1788.48
-1798.16
-1807.79
-1817.34
-1826.77
-1836.07
-1845.19
-1854.11
-1862.81
-1871.24
-1879.38
-1887.19
-1894.65
-1901.72
-1908.37
-1914.58
-1920.3
-1925.5
-1930.17
-1934.26
-1937.74
-1940.59
-1942.77
-1944.26
-1945.03
-1945.04
-1944.28
-1942.72
-1940.33
-1937.08
-1932.97
-1927.95
-1922.02
-1915.16
-1907.35
-1898.58
-1888.84
-1878.1
-1866.37
-1853.63
-1839.88
-1825.1
-1809.29
-1792.46
-1774.6
-1755.71
-1735.78
-1714.84
-1692.88
-1669.91
-1645.94
-1620.98
-1595.05
-1568.16
-1540.32
-1511.56
-1481.89
-1451.34
-1419.92
-1387.66
-1354.59
-1320.73
-1286.1
-1250.74
-1214.66
-1177.91
-1140.49
-1102.45
-1063.81
-1024.6
-984.835
-944.553
-903.775
-862.526
-820.829
-778.707
-736.182
-693.273
-650
-606.381
-562.433
-518.171
-473.611
-428.766
-383.649
-338.272
-292.645
-246.779
-200.685
-154.37
-107.845
-61.1174
-14.1967
32.9085
80.1895
127.637
175.243
222.996
270.887
318.905
367.039
415.28
463.615
512.027
560.498
609.011
657.552
706.101
754.64
803.149
851.606
899.99
948.277
996.443
1044.46
1092.31
1139.96
1187.39
1234.56
1281.45
1328.03
1374.27
1420.13
1465.6
1510.63
1555.2
1599.28
1642.83
1685.83
1728.25
1770.05
1811.2
1851.69
1891.48
1930.53
1968.84
2006.36
2043.08
2078.97
2114
2148.16
2181.43
2213.78
2245.2
2275.67
2305.17
2333.7
2361.23
2387.75
2413.26
2437.75
2461.2
2483.62
2504.99
2525.33
2544.61
2562.86
2580.05
2596.21
2611.33
2625.42
2638.49
2650.54
2661.58
2671.63
2680.7
2688.8
2695.94
2702.14
2707.42
2711.79
2715.27
2717.89
2719.66
2720.6
2720.75
2720.11
2718.73
2716.62
2713.81
2710.32
2706.18
2701.41
2696.04
2690.1
2683.6
2676.59
2669.08
2661.1
2652.68
2643.85
2634.63
2625.06
2615.15
2604.95
2594.47
2583.74
2572.8
2561.66
2550.36
2538.92
2527.37
2515.73
2504.04
2492.31
2480.58
2468.85
2457.17
2445.55
2434.02
2422.6
2411.31
2400.17
2389.2
2378.43
2367.87
2357.54
2347.47
2337.66
2328.14
2318.91
2310.01
2301.44
2293.21
2285.34
2277.85
2270.75
2264.04
2257.72
2251.82
2246.35
2241.31
2236.7
2232.54
2228.83
2225.57
2222.76
2220.41
2218.53
2217.1
2216.13
2215.62
2215.56
2215.95
2216.79
2218.07
2219.78
2221.92
2224.47
2227.43
2230.77
2234.5
2238.6
2243.08
2247.92
2253.12
2258.66
2264.52
2270.67
2277.1
2283.79
2290.72
2297.86
2305.2
2312.72
2320.39
2328.2
2336.12
2344.13
2352.2
2360.32
2368.46
2376.6
2384.72
2392.79
2400.78
2408.69
2416.47
2424.12
2431.61
2438.91
2446.01
2452.89
2459.51
2465.87
2471.95
2477.72
2483.16
2488.27
2493.02
2497.4
2501.39
2504.98
2508.16
2510.92
2513.24
2515.12
2516.55
2517.52
2518.03
2518.07
2517.65
2516.75
2515.38
2513.54
2511.23
2508.46
2505.22
2501.54
2497.4
2492.83
2487.82
2482.4
2476.57
2470.35
2463.74
2456.77
2449.44
2441.79
2433.81
2425.53
2416.96
2408.14
2399.07
2389.77
2380.27
2370.58
2360.73
2350.74
2340.63
2330.41
2320.12
2309.77
2299.38
2288.98
2278.58
2268.21
2257.9
2247.65
2237.5
2227.46
2217.56
2207.8
2198.2
2188.79
2179.58
2170.59
2161.84
2153.33
2145.07
2137.1
2129.41
2122.02
2114.95
2108.2
2101.78
2095.71
2089.99
2084.63
2079.64
2075.03
2070.8
2066.96
2063.51
2060.46
2057.81
2055.56
2053.72
2052.28
2051.25
2050.62
2050.4
2050.59
2051.18
2052.16
2053.55
2055.33
2057.5
2060.05
2062.99
2066.3
2069.97
2074.02
2078.41
2083.16
2088.25
2093.67
2099.41
2105.48
2111.85
2118.53
2125.49
2132.74
2140.26
2148.04
2156.08
2164.35
2172.87
2181.6
2190.54
2199.69
2209.03
2218.55
2228.23
2238.08
2248.07
2258.2
2268.45
2278.81
2289.28
2299.83
2310.46
2321.17
2331.92
2342.72
2353.55
2364.41
2375.27
2386.13
2396.98
2407.8
2418.58
2429.32
2440
2450.61
2461.14
2471.58
2481.91
2492.13
2502.23
2512.2
2522.02
2531.69
2541.2
2550.54
2559.69
2568.66
2577.42
2585.98
2594.32
2602.44
2610.33
2617.97
2625.37
2632.52
2639.41
2646.03
2652.37
2658.44
2664.22
2669.72
2674.91
2679.81
2684.4
2688.69
2692.66
2696.31
2699.64
2702.65
2705.34
2707.69
2709.73
2711.42
2712.74
2713.94
2714.35
2714.59
-1581.96
-1582.53
-1583.39
-1584.62
-1586.3
-1588.42
-1590.99
-1594
-1597.44
-1601.31
-1605.6
-1610.31
-1615.42
-1620.92
-1626.81
-1633.07
-1639.69
-1646.65
-1653.94
-1661.54
-1669.44
-1677.61
-1686.05
-1694.72
-1703.61
-1712.7
-1721.96
-1731.38
-1740.92
-1750.57
-1760.3
-1770.09
-1779.9
-1789.72
-1799.51
-1809.25
-1818.91
-1828.46
-1837.87
-1847.11
-1856.15
-1864.97
-1873.52
-1881.78
-1889.73
-1897.31
-1904.51
-1911.3
-1917.63
-1923.48
-1928.82
-1933.61
-1937.83
-1941.43
-1944.41
-1946.71
-1948.32
-1949.2
-1949.32
-1948.67
-1947.2
-1944.91
-1941.76
-1937.73
-1932.8
-1926.95
-1920.16
-1912.42
-1903.71
-1894.01
-1883.33
-1871.63
-1858.92
-1845.18
-1830.42
-1814.62
-1797.78
-1779.91
-1760.99
-1741.04
-1720.06
-1698.06
-1675.03
-1651
-1625.97
-1599.96
-1572.99
-1545.06
-1516.2
-1486.43
-1455.76
-1424.23
-1391.85
-1358.66
-1324.67
-1289.92
-1254.42
-1218.21
-1181.32
-1143.78
-1105.6
-1066.83
-1027.49
-987.597
-947.189
-906.288
-864.919
-823.107
-780.873
-738.239
-695.227
-651.855
-608.142
-564.103
-519.756
-475.114
-430.192
-385.001
-339.553
-293.86
-247.93
-201.774
-155.401
-108.818
-62.0353
-15.0602
32.0987
79.4331
126.934
174.592
222.399
270.343
318.416
366.608
414.907
463.298
511.768
560.301
608.882
657.493
706.114
754.729
803.315
851.853
900.321
948.694
996.949
1045.06
1093
1140.75
1188.27
1235.55
1282.54
1329.22
1375.56
1421.53
1467.1
1512.24
1556.92
1601.11
1644.77
1687.87
1730.4
1772.3
1813.56
1854.15
1894.04
1933.19
1971.59
2009.21
2046.02
2081.99
2117.11
2151.35
2184.69
2217.12
2248.6
2279.13
2308.7
2337.27
2364.85
2391.42
2416.97
2441.49
2464.97
2487.41
2508.8
2529.15
2548.44
2566.69
2583.88
2600.03
2615.13
2629.2
2642.24
2654.27
2665.28
2675.29
2684.31
2692.36
2699.44
2705.59
2710.8
2715.1
2718.51
2721.05
2722.75
2723.61
2723.68
2722.96
2721.49
2719.29
2716.39
2712.8
2708.56
2703.7
2698.22
2692.18
2685.58
2678.45
2670.84
2662.75
2654.22
2645.28
2635.95
2626.27
2616.26
2605.94
2595.35
2584.52
2573.47
2562.23
2550.82
2539.28
2527.63
2515.9
2504.1
2492.28
2480.44
2468.63
2456.86
2445.15
2433.53
2422.02
2410.64
2399.42
2388.38
2377.53
2366.89
2356.49
2346.35
2336.47
2326.88
2317.6
2308.64
2300.01
2291.73
2283.81
2276.27
2269.12
2262.37
2256.04
2250.08
2244.57
2239.5
2234.87
2230.68
2226.95
2223.67
2220.85
2218.5
2216.6
2215.17
2214.21
2213.7
2213.65
2214.06
2214.91
2216.22
2217.96
2220.13
2222.73
2225.73
2229.14
2232.93
2237.09
2241.62
2246.5
2251.74
2257.32
2263.23
2269.43
2275.92
2282.67
2289.66
2296.87
2304.29
2311.88
2319.63
2327.51
2335.51
2343.6
2351.76
2359.97
2368.19
2376.42
2384.62
2392.77
2400.86
2408.85
2416.72
2424.46
2432.03
2439.42
2446.6
2453.56
2460.27
2466.71
2472.86
2478.7
2484.22
2489.39
2494.21
2498.65
2502.7
2506.34
2509.57
2512.38
2514.74
2516.66
2518.12
2519.12
2519.65
2519.72
2519.3
2518.42
2517.05
2515.21
2512.9
2510.11
2506.86
2503.16
2499
2494.39
2489.36
2483.89
2478.02
2471.75
2465.1
2458.07
2450.69
2442.97
2434.93
2426.58
2417.95
2409.05
2399.91
2390.54
2380.96
2371.2
2361.27
2351.2
2341
2330.71
2320.34
2309.91
2299.44
2288.96
2278.48
2268.03
2257.63
2247.3
2237.07
2226.94
2216.96
2207.12
2197.46
2187.98
2178.7
2169.65
2160.82
2152.25
2143.94
2135.91
2128.17
2120.73
2113.61
2106.81
2100.35
2094.24
2088.48
2083.09
2078.07
2073.42
2069.17
2065.3
2061.83
2058.76
2056.09
2053.82
2051.96
2050.51
2049.47
2048.83
2048.61
2048.78
2049.37
2050.35
2051.74
2053.52
2055.69
2058.24
2061.18
2064.5
2068.18
2072.23
2076.63
2081.38
2086.48
2091.91
2097.67
2103.74
2110.13
2116.81
2123.79
2131.05
2138.58
2146.37
2154.42
2162.71
2171.24
2179.98
2188.94
2198.1
2207.45
2216.99
2226.69
2236.55
2246.55
2256.69
2266.96
2277.34
2287.82
2298.39
2309.04
2319.76
2330.53
2341.35
2352.2
2363.07
2373.95
2384.83
2395.69
2406.53
2417.33
2428.09
2438.78
2449.41
2459.95
2470.41
2480.76
2491
2501.11
2511.09
2520.93
2530.62
2540.14
2549.49
2558.66
2567.64
2576.42
2584.99
2593.35
2601.48
2609.38
2617.04
2624.45
2631.61
2638.51
2645.14
2651.5
2657.58
2663.37
2668.88
2674.08
2678.99
2683.59
2687.88
2691.86
2695.52
2698.86
2701.88
2704.56
2706.92
2708.97
2710.66
2711.98
2713.18
2713.6
2713.84
-1581.3
-1581.88
-1582.74
-1583.98
-1585.67
-1587.8
-1590.39
-1593.42
-1596.9
-1600.8
-1605.13
-1609.87
-1615.03
-1620.58
-1626.52
-1632.84
-1639.52
-1646.54
-1653.9
-1661.58
-1669.55
-1677.81
-1686.33
-1695.09
-1704.07
-1713.26
-1722.62
-1732.14
-1741.79
-1751.55
-1761.39
-1771.29
-1781.23
-1791.16
-1801.08
-1810.95
-1820.74
-1830.42
-1839.96
-1849.34
-1858.53
-1867.48
-1876.18
-1884.59
-1892.68
-1900.42
-1907.77
-1914.71
-1921.19
-1927.19
-1932.68
-1937.62
-1941.99
-1945.74
-1948.86
-1951.3
-1953.05
-1954.07
-1954.32
-1953.8
-1952.46
-1950.28
-1947.24
-1943.31
-1938.48
-1932.72
-1926.02
-1918.36
-1909.71
-1900.08
-1889.44
-1877.79
-1865.11
-1851.4
-1836.65
-1820.86
-1804.02
-1786.13
-1767.19