/*--------------------------------*- C++ -*----------------------------------*\
| =========                 |                                                 |
| \\      /  F ield         | OpenFOAM: The Open Source CFD Toolbox           |
|  \\    /   O peration     | Version:  v2006                                 |
|   \\  /    A nd           | Website:  www.openfoam.com                      |
|    \\/     M anipulation  |                                                 |
\*---------------------------------------------------------------------------*/
FoamFile
{
    version     2.0;
    format      ascii;
    class       volScalarField;
    location    "1.5";
    object      r;
}
// * * * * * * * * * * * * * * * * * * * * * * * * * * * * * * * * * * * * * //

dimensions      [1 2 0 0 0 0 0];


internalField   nonuniform List<scalar> 
350
(
-1.24223e-154
1.19826e-152
-7.04721e-151
4.34723e-149
-2.60389e-147
1.57041e-145
-9.46018e-144
5.63648e-142
-3.38345e-140
2.00432e-138
-1.19369e-136
7.0432e-135
-4.15864e-133
2.44225e-131
-1.43055e-129
8.35128e-128
-4.8558e-126
2.81513e-124
-1.62507e-122
9.35071e-121
-5.3579e-119
3.05879e-117
-1.73904e-115
9.84723e-114
-5.55258e-112
3.11748e-110
-1.74266e-108
9.6974e-107
-5.37154e-105
2.96127e-103
-1.62461e-101
8.86853e-100
-4.81648e-98
2.60209e-96
-1.39819e-94
7.47125e-93
-3.96952e-91
2.09665e-89
-1.10074e-87
5.74289e-86
-2.97704e-84
1.53306e-82
-7.84083e-81
3.98198e-79
-2.00756e-77
1.00454e-75
-4.98748e-74
2.45637e-72
-1.19973e-70
5.80922e-69
-2.78779e-67
1.32545e-65
-6.2413e-64
2.90958e-62
-1.34232e-60
6.12588e-59
-2.76421e-57
1.23269e-55
-5.42989e-54
2.36128e-52
-1.01313e-50
4.2862e-49
-1.78678e-47
7.33408e-46
-2.96177e-44
1.17575e-42
-4.58394e-41
1.7534e-39
-6.57302e-38
2.41194e-36
-8.65196e-35
3.02952e-33
-1.03382e-31
3.43206e-30
-1.1062e-28
3.45386e-27
-1.04201e-25
3.02895e-24
-8.45533e-23
2.25808e-21
-5.74376e-20
1.3843e-18
-3.14146e-17
6.66191e-16
-1.30781e-14
2.34832e-13
-3.79649e-12
5.40715e-11
-6.57052e-10
6.46476e-09
-4.64788e-08
1.79953e-07
3.56901e-07
-6.23922e-06
-1.13707e-05
0.000179059
0.0014703
0.00650742
0.0210934
0.0555146
0.125054
0.24907
0.44846
0.741948
1.14211
1.65222
2.26473
2.9618
3.71757
4.50163
5.2829
6.03307
6.72916
7.35491
7.9011
8.36493
8.74883
9.05899
9.30398
9.49341
9.63695
9.74368
9.82161
9.87755
9.91706
9.94454
9.96337
9.97609
9.98457
9.99015
9.99378
9.99611
9.99759
9.99853
9.9991
9.99946
9.99968
9.99981
9.99989
9.99993
9.99997
9.99999
9.99981
9.99852
9.99349
9.9789
9.94448
9.87495
9.75093
9.55154
9.25805
8.85789
8.34778
7.73527
7.0382
6.28243
5.49837
4.7171
3.96693
3.27084
2.64509
2.0989
1.63507
1.25117
0.941005
0.696016
0.506591
0.363047
0.256322
0.17839
0.122448
0.0829384
0.0554623
0.0366343
0.0239123
0.0154309
0.0098486
0.00621935
0.00388747
0.00240601
0.00147497
0.000895914
0.000539366
0.00032193
0.000190557
0.000111889
6.51878e-05
3.76933e-05
2.16363e-05
1.23316e-05
6.98019e-06
3.92478e-06
2.19255e-06
1.21716e-06
6.71571e-07
3.68344e-07
2.00865e-07
1.08922e-07
5.87417e-08
3.15112e-08
1.68164e-08
8.92897e-09
4.71774e-09
2.48071e-09
1.29835e-09
6.76412e-10
3.50836e-10
1.81175e-10
9.3163e-11
4.77091e-11
2.43305e-11
1.23611e-11
6.25389e-12
3.15336e-12
1.58329e-12
7.92499e-13
3.95107e-13
1.96308e-13
9.72633e-14
4.79481e-14
2.36342e-14
1.15552e-14
5.66964e-15
2.75117e-15
1.34174e-15
6.48533e-16
3.12758e-16
1.51717e-16
7.17558e-17
3.52163e-17
1.62626e-17
8.05859e-18
3.68338e-18
1.79307e-18
8.47208e-19
3.82737e-19
1.98316e-19
7.90991e-20
4.56612e-20
1.68991e-20
9.62658e-21
4.11661e-21
1.70379e-21
1.11583e-21
2.49236e-22
2.77949e-22
4.97385e-23
4.83038e-23
2.20096e-23
1.84709e-24
9.08845e-24
-1.38912e-24
2.15017e-24
4.70524e-26
6.9878e-27
3.39561e-25
-1.86192e-25
1.46617e-25
-5.17977e-26
1.66599e-26
8.08145e-27
-1.1392e-26
1.04423e-26
-6.27602e-27
3.13813e-27
-9.39512e-28
-7.39611e-29
4.34726e-28
-4.20248e-28
2.93412e-28
-1.59107e-28
6.59564e-29
-1.40164e-29
-7.44749e-30
1.22814e-29
-9.95408e-30
6.02854e-30
-2.79427e-30
8.24224e-31
1.04247e-31
-3.89537e-31
3.70168e-31
-2.53892e-31
1.40761e-31
-6.2844e-32
1.99211e-32
-1.09473e-33
-4.54881e-33
4.53194e-33
-2.92558e-33
1.44079e-33
-5.20925e-34
9.09802e-35
4.68913e-35
-5.50079e-35
2.68592e-35
-1.96566e-36
-1.02376e-35
1.24539e-35
-9.79028e-36
6.01049e-36
-2.94144e-36
1.0443e-36
-1.22684e-37
-1.93707e-37
2.18496e-37
-1.46404e-37
7.04088e-38
-2.04358e-38
-3.40786e-39
1.03198e-38
-9.20043e-39
5.74799e-39
-2.65155e-39
6.94401e-40
2.35135e-40
-5.09761e-40
4.67139e-40
-3.23641e-40
1.85476e-40
-8.805e-41
3.17251e-41
-4.81758e-42
-4.97198e-42
6.55202e-42
-5.12834e-42
3.20153e-42
-1.68825e-42
7.44789e-43
-2.49182e-43
3.19888e-44
3.97011e-44
-4.81442e-44
3.60539e-44
-2.18176e-44
1.12879e-44
-4.98201e-45
1.75769e-45
-3.58358e-46
-1.19347e-46
2.04124e-46
-1.5952e-46
9.58072e-47
-4.78792e-47
1.97089e-47
-5.9053e-48
3.75353e-49
1.17842e-48
-1.18315e-48
8.04534e-49
)
;

boundaryField
{
    right
    {
        type            zeroGradient;
    }
    left
    {
        type            inletOutlet;
        inletValue      uniform 0;
        value           uniform 0;
    }
    top
    {
        type            zeroGradient;
    }
    bottom
    {
        type            zeroGradient;
    }
    empty
    {
        type            empty;
    }
}


// ************************************************************************* //
