/*--------------------------------*- C++ -*----------------------------------*\
| =========                 |                                                 |
| \\      /  F ield         | OpenFOAM: The Open Source CFD Toolbox           |
|  \\    /   O peration     | Version:  v2006                                 |
|   \\  /    A nd           | Website:  www.openfoam.com                      |
|    \\/     M anipulation  |                                                 |
\*---------------------------------------------------------------------------*/
FoamFile
{
    version     2.0;
    format      ascii;
    class       volVectorField;
    location    "0";
    object      U;
}
// * * * * * * * * * * * * * * * * * * * * * * * * * * * * * * * * * * * * * //

dimensions      [0 1 -1 0 0 0 0];


internalField   nonuniform List<vector> 
67500
(
(0.0392472 0.00252108 0)
(0.0505168 -0.00418506 0)
(0.0563834 0.00758033 0)
(0.0341036 0.0346194 0)
(0.0184843 0.0332306 0)
(0.0304227 0.0234896 0)
(0.0336586 0.0183008 0)
(0.0309077 0.00515759 0)
(0.0216819 -0.00105801 0)
(0.01062 -0.00357851 0)
(0.00149067 -0.00321588 0)
(-0.00750651 -0.00121166 0)
(-0.0185908 0.000295917 0)
(-0.0300086 0.000233588 0)
(-0.0353915 -0.00159712 0)
(-0.0317858 -0.00436084 0)
(-0.0184119 -0.00703924 0)
(0.00257748 -0.00795699 0)
(0.0248136 -0.00548671 0)
(0.0402173 -8.74663e-05 0)
(0.0452727 0.00580574 0)
(0.0394006 0.00888783 0)
(0.029057 0.00756458 0)
(0.0205559 0.00384158 0)
(0.0156595 0.000721984 0)
(0.013409 -0.000556207 0)
(0.0128898 -0.000787857 0)
(0.0133813 -0.00083572 0)
(0.0143242 -0.000838644 0)
(0.0154469 -0.000908798 0)
(0.0168265 -0.000912273 0)
(0.0183528 -0.000682417 0)
(0.0195509 -0.000381398 0)
(0.0201135 -0.000178479 0)
(0.020067 -0.00010149 0)
(0.0195672 -6.57295e-05 0)
(0.0187214 3.4198e-06 0)
(0.0175949 0.00012335 0)
(0.0162693 0.000287025 0)
(0.0148435 0.000483921 0)
(0.0134135 0.000683154 0)
(0.0120765 0.000833766 0)
(0.0109335 0.000893405 0)
(0.0100677 0.000851797 0)
(0.00951411 0.000732128 0)
(0.00924726 0.000576907 0)
(0.00918873 0.000428075 0)
(0.0092316 0.000312651 0)
(0.00927007 0.000237959 0)
(0.00922203 0.000197264 0)
(0.00903885 0.000177735 0)
(0.00870399 0.000167315 0)
(0.00822615 0.000156897 0)
(0.00763035 0.000143634 0)
(0.00694826 0.000129443 0)
(0.00621159 0.000118195 0)
(0.00544703 0.000114021 0)
(0.00467324 0.000118455 0)
(0.003901 0.000130219 0)
(0.00313446 0.000146798 0)
(0.00237362 0.00016449 0)
(0.00161748 0.00018038 0)
(0.00086588 0.000192913 0)
(0.000121407 0.000200581 0)
(-0.000608526 0.00020131 0)
(-0.00131023 0.000191998 0)
(-0.00196361 0.000169855 0)
(-0.00254428 0.000134058 0)
(-0.00302641 8.48711e-05 0)
(-0.00338648 2.50105e-05 0)
(-0.00360865 -4.14577e-05 0)
(-0.00368704 -0.000111355 0)
(-0.00362568 -0.000181091 0)
(-0.00343815 -0.000246418 0)
(-0.00314426 -0.000304409 0)
(-0.00276767 -0.000350716 0)
(-0.00233393 -0.000383977 0)
(-0.00186681 -0.000403395 0)
(-0.00138601 -0.000409656 0)
(-0.000906968 -0.000402387 0)
(-0.000442207 -0.000382225 0)
(-1.04047e-06 -0.000350855 0)
(0.000410293 -0.000310543 0)
(0.0007876 -0.000264105 0)
(0.00112787 -0.000214721 0)
(0.00142847 -0.000165167 0)
(0.00168668 -0.000117892 0)
(0.00190024 -7.49158e-05 0)
(0.00206761 -3.7266e-05 0)
(0.00218782 -5.20575e-06 0)
(0.00226085 2.1063e-05 0)
(0.00228848 4.15543e-05 0)
(0.00227389 5.70346e-05 0)
(0.002221 6.80187e-05 0)
(0.00213419 7.52276e-05 0)
(0.00201835 7.92119e-05 0)
(0.00187925 8.01969e-05 0)
(0.00172286 7.92816e-05 0)
(0.00155429 7.73959e-05 0)
(0.00137819 7.51803e-05 0)
(0.00119904 7.29462e-05 0)
(0.00102039 7.12532e-05 0)
(0.00084417 7.03934e-05 0)
(0.000671072 7.04289e-05 0)
(0.000500915 7.12746e-05 0)
(0.000333017 7.27334e-05 0)
(0.000166525 7.46692e-05 0)
(6.04771e-07 7.68905e-05 0)
(-0.000165454 7.92602e-05 0)
(-0.00033214 8.16367e-05 0)
(-0.000499624 8.3895e-05 0)
(-0.000668015 8.61361e-05 0)
(-0.000837686 8.85115e-05 0)
(-0.00100916 9.10116e-05 0)
(-0.00118264 9.34085e-05 0)
(-0.00135774 9.54435e-05 0)
(-0.00153371 9.68215e-05 0)
(-0.00170914 9.69342e-05 0)
(-0.0018813 9.51186e-05 0)
(-0.00204676 9.13579e-05 0)
(-0.00220274 8.60758e-05 0)
(-0.00234755 7.96665e-05 0)
(-0.00248027 7.24174e-05 0)
(-0.00260027 6.45365e-05 0)
(-0.00270704 5.61571e-05 0)
(-0.00280002 4.73932e-05 0)
(-0.00287849 3.82526e-05 0)
(-0.00294127 2.8572e-05 0)
(-0.00298655 1.82713e-05 0)
(-0.0030126 7.5949e-06 0)
(-0.00301842 -3.08359e-06 0)
(-0.00300384 -1.35165e-05 0)
(-0.00296904 -2.36109e-05 0)
(-0.00291436 -3.33884e-05 0)
(-0.00284006 -4.29672e-05 0)
(-0.00274622 -5.24747e-05 0)
(-0.00263284 -6.19152e-05 0)
(-0.00250016 -7.11778e-05 0)
(-0.00234876 -8.01423e-05 0)
(-0.0021795 -8.87305e-05 0)
(-0.0019933 -9.69125e-05 0)
(-0.00179109 -0.000104683 0)
(-0.00157376 -0.000112015 0)
(-0.00134228 -0.000118849 0)
(-0.00109771 -0.000125128 0)
(-0.000841218 -0.000130825 0)
(-0.000573954 -0.000135938 0)
(-0.000297062 -0.000140476 0)
(-1.1673e-05 -0.00014444 0)
(0.000281076 -0.000147835 0)
(0.000580057 -0.000150675 0)
(0.000884174 -0.000152978 0)
(0.00119236 -0.000154759 0)
(0.00150359 -0.000156034 0)
(0.00181686 -0.000156821 0)
(0.0021312 -0.000157139 0)
(0.00244571 -0.000157007 0)
(0.0027595 -0.000156446 0)
(0.00307174 -0.000155477 0)
(0.00338163 -0.000154123 0)
(0.00368842 -0.000152407 0)
(0.00399143 -0.000150351 0)
(0.00428998 -0.000147978 0)
(0.00458347 -0.000145312 0)
(0.00487134 -0.000142375 0)
(0.00515307 -0.000139193 0)
(0.00542818 -0.00013579 0)
(0.00569628 -0.000132193 0)
(0.00595699 -0.000128433 0)
(0.00621002 -0.000124539 0)
(0.00645513 -0.000120542 0)
(0.00669215 -0.000116476 0)
(0.00692098 -0.000112372 0)
(0.00714157 -0.00010826 0)
(0.00735392 -0.000104168 0)
(0.00755812 -0.000100119 0)
(0.00775427 -9.61353e-05 0)
(0.00794253 -9.22339e-05 0)
(0.00812306 -8.84287e-05 0)
(0.00829609 -8.47299e-05 0)
(0.00846183 -8.11451e-05 0)
(0.00862052 -7.76791e-05 0)
(0.0087724 -7.43346e-05 0)
(0.00891771 -7.11126e-05 0)
(0.0090567 -6.80126e-05 0)
(0.00918962 -6.50331e-05 0)
(0.00931669 -6.21718e-05 0)
(0.00943817 -5.94255e-05 0)
(0.00955427 -5.67909e-05 0)
(0.0096652 -5.42643e-05 0)
(0.0097712 -5.18418e-05 0)
(0.00987245 -4.95192e-05 0)
(0.00996916 -4.72927e-05 0)
(0.0100615 -4.51581e-05 0)
(0.0101497 -4.31114e-05 0)
(0.0102338 -4.11487e-05 0)
(0.0103142 -3.92661e-05 0)
(0.0103908 -3.74601e-05 0)
(0.0104639 -3.5727e-05 0)
(0.0105336 -3.40635e-05 0)
(0.0106001 -3.24664e-05 0)
(0.0106634 -3.09327e-05 0)
(0.0107237 -2.94596e-05 0)
(0.0107811 -2.80444e-05 0)
(0.0108358 -2.66847e-05 0)
(0.0108878 -2.53783e-05 0)
(0.0109372 -2.41231e-05 0)
(0.0109842 -2.29175e-05 0)
(0.0110288 -2.17597e-05 0)
(0.0110712 -2.06485e-05 0)
(0.0111113 -1.95827e-05 0)
(0.0111494 -1.85612e-05 0)
(0.0111855 -1.75834e-05 0)
(0.0112197 -1.66484e-05 0)
(0.0112521 -1.57557e-05 0)
(0.0112828 -1.49049e-05 0)
(0.0113117 -1.40954e-05 0)
(0.0113391 -1.33267e-05 0)
(0.0113651 -1.25982e-05 0)
(0.0113896 -1.19093e-05 0)
(0.0114127 -1.12594e-05 0)
(0.0114346 -1.06474e-05 0)
(0.0114554 -1.00724e-05 0)
(0.011475 -9.53329e-06 0)
(0.0114935 -9.0288e-06 0)
(0.0115111 -8.55754e-06 0)
(0.0115278 -8.11802e-06 0)
(0.0115437 -7.70868e-06 0)
(0.0115587 -7.32786e-06 0)
(0.011573 -6.97387e-06 0)
(0.0115867 -6.64499e-06 0)
(0.0115996 -6.33948e-06 0)
(0.0116121 -6.05561e-06 0)
(0.0116239 -5.79168e-06 0)
(0.0116353 -5.54603e-06 0)
(0.0116461 -5.31702e-06 0)
(0.0116566 -5.1031e-06 0)
(0.0116666 -4.90279e-06 0)
(0.0116762 -4.71465e-06 0)
(0.0116855 -4.53737e-06 0)
(0.0116944 -4.36969e-06 0)
(0.011703 -4.21047e-06 0)
(0.0117112 -4.05863e-06 0)
(0.0117192 -3.91323e-06 0)
(0.0117269 -3.77338e-06 0)
(0.0117343 -3.63833e-06 0)
(0.0117415 -3.50738e-06 0)
(0.0117484 -3.37997e-06 0)
(0.011755 -3.25559e-06 0)
(0.0117614 -3.13382e-06 0)
(0.0117675 -3.01434e-06 0)
(0.0117734 -2.89687e-06 0)
(0.0117791 -2.78123e-06 0)
(0.0117846 -2.66728e-06 0)
(0.0117898 -2.55492e-06 0)
(0.0117948 -2.44412e-06 0)
(0.0117996 -2.33487e-06 0)
(0.0118041 -2.22721e-06 0)
(0.0118085 -2.12118e-06 0)
(0.0118126 -2.01685e-06 0)
(0.0118165 -1.91432e-06 0)
(0.0118203 -1.81367e-06 0)
(0.0118238 -1.71501e-06 0)
(0.0118271 -1.61844e-06 0)
(0.0118303 -1.52405e-06 0)
(0.0118332 -1.43195e-06 0)
(0.011836 -1.34223e-06 0)
(0.0118386 -1.25497e-06 0)
(0.011841 -1.17025e-06 0)
(0.0118432 -1.08815e-06 0)
(0.0118453 -1.00872e-06 0)
(0.0118473 -9.32015e-07 0)
(0.0118491 -8.58087e-07 0)
(0.0118507 -7.86971e-07 0)
(0.0118522 -7.18697e-07 0)
(0.0118536 -6.53288e-07 0)
(0.0118548 -5.9076e-07 0)
(0.0118559 -5.31124e-07 0)
(0.0118569 -4.74382e-07 0)
(0.0118578 -4.20534e-07 0)
(0.0118586 -3.69575e-07 0)
(0.0118593 -3.21492e-07 0)
(0.0118599 -2.76271e-07 0)
(0.0118604 -2.33893e-07 0)
(0.0118608 -1.94334e-07 0)
(0.0118612 -1.57568e-07 0)
(0.0118615 -1.23563e-07 0)
(0.0118617 -9.22842e-08 0)
(0.0118618 -6.36917e-08 0)
(0.0118619 -3.77422e-08 0)
(0.011862 -1.4388e-08 0)
(0.011862 6.42247e-09 0)
(0.0118619 2.47451e-08 0)
(0.0118619 4.06398e-08 0)
(0.0118618 5.41703e-08 0)
(0.0118617 6.54042e-08 0)
(0.0118615 7.4413e-08 0)
(0.0118614 8.12717e-08 0)
(0.0118612 8.60594e-08 0)
(0.011861 8.88588e-08 0)
(0.0118608 8.97563e-08 0)
(0.0118606 8.88423e-08 0)
(0.0118605 8.62112e-08 0)
(0.0118603 8.19614e-08 0)
(0.0118601 7.61953e-08 0)
(0.01186 6.90194e-08 0)
(0.0118599 6.05441e-08 0)
(0.0118597 5.08835e-08 0)
(0.0118597 4.01554e-08 0)
(0.0118596 2.84808e-08 0)
(0.0118595 1.59836e-08 0)
(0.0118595 2.78998e-09 0)
(0.0118595 -1.09716e-08 0)
(0.0118596 -2.51714e-08 0)
(0.0118596 -3.96789e-08 0)
(0.0118597 -5.43632e-08 0)
(0.0118598 -6.9094e-08 0)
(0.01186 -8.37423e-08 0)
(0.0118602 -9.8181e-08 0)
(0.0118604 -1.12286e-07 0)
(0.0118606 -1.25938e-07 0)
(0.0118609 -1.39021e-07 0)
(0.0118612 -1.51426e-07 0)
(0.0118615 -1.63054e-07 0)
(0.0118618 -1.7381e-07 0)
(0.0118622 -1.83611e-07 0)
(0.0118626 -1.92387e-07 0)
(0.011863 -2.00075e-07 0)
(0.0118634 -2.06628e-07 0)
(0.0118638 -2.12008e-07 0)
(0.0118642 -2.16194e-07 0)
(0.0118647 -2.19174e-07 0)
(0.0118651 -2.2095e-07 0)
(0.0118656 -2.21536e-07 0)
(0.011866 -2.20958e-07 0)
(0.0118665 -2.19251e-07 0)
(0.0118669 -2.16461e-07 0)
(0.0118673 -2.12645e-07 0)
(0.0118678 -2.07866e-07 0)
(0.0118682 -2.02194e-07 0)
(0.0118686 -1.95707e-07 0)
(0.011869 -1.88487e-07 0)
(0.0118693 -1.8062e-07 0)
(0.0118697 -1.72194e-07 0)
(0.01187 -1.63298e-07 0)
(0.0118703 -1.54022e-07 0)
(0.0118706 -1.44454e-07 0)
(0.0118709 -1.34679e-07 0)
(0.0118712 -1.24778e-07 0)
(0.0118714 -1.14828e-07 0)
(0.0118716 -1.049e-07 0)
(0.0118718 -9.50586e-08 0)
(0.011872 -8.5361e-08 0)
(0.0118721 -7.58576e-08 0)
(0.0118723 -6.65909e-08 0)
(0.0118724 -5.75959e-08 0)
(0.0118725 -4.88999e-08 0)
(0.0118725 -4.05233e-08 0)
(0.0118726 -3.24794e-08 0)
(0.0118726 -2.47751e-08 0)
(0.0118727 -1.74115e-08 0)
(0.0118727 -1.03843e-08 0)
(0.0118727 -3.6846e-09 0)
(0.0118726 2.70065e-09 0)
(0.0118726 8.78779e-09 0)
(0.0118726 1.45957e-08 0)
(0.0118725 2.01448e-08 0)
(0.0118725 2.5456e-08 0)
(0.0118724 3.05493e-08 0)
(0.0118723 3.54426e-08 0)
(0.0118722 4.01497e-08 0)
(0.0118721 4.46791e-08 0)
(0.011872 4.90321e-08 0)
(0.0118719 5.3201e-08 0)
(0.0118718 5.71678e-08 0)
(0.0118717 6.0903e-08 0)
(0.0118715 6.43646e-08 0)
(0.0118714 6.74987e-08 0)
(0.0118713 7.02397e-08 0)
(0.0118712 7.25131e-08 0)
(0.011871 7.42377e-08 0)
(0.0118709 7.53305e-08 0)
(0.0118708 7.57111e-08 0)
(0.0118707 7.53072e-08 0)
(0.0118706 7.40599e-08 0)
(0.0118704 7.1929e-08 0)
(0.0118703 6.8897e-08 0)
(0.0118702 6.49719e-08 0)
(0.0118701 6.01892e-08 0)
(0.01187 5.4611e-08 0)
(0.01187 4.83244e-08 0)
(0.0118699 4.14379e-08 0)
(0.0118699 3.40767e-08 0)
(0.0118698 2.63771e-08 0)
(0.0118698 1.84808e-08 0)
(0.0118698 1.0529e-08 0)
(0.0118698 2.65726e-09 0)
(0.0118698 -5.00941e-09 0)
(0.0118699 -1.23597e-08 0)
(0.0118699 -1.92987e-08 0)
(0.01187 -2.57494e-08 0)
(0.01187 -3.16533e-08 0)
(0.0118701 -3.69697e-08 0)
(0.0118702 -4.16752e-08 0)
(0.0118703 -4.57619e-08 0)
(0.0118704 -4.92354e-08 0)
(0.0118705 -5.21129e-08 0)
(0.0118706 -5.4421e-08 0)
(0.0118707 -5.61936e-08 0)
(0.0118708 -5.74696e-08 0)
(0.0118709 -5.82914e-08 0)
(0.011871 -5.87032e-08 0)
(0.0118712 -5.87497e-08 0)
(0.0118713 -5.84749e-08 0)
(0.0118714 -5.79214e-08 0)
(0.0118715 -5.71296e-08 0)
(0.0118716 -5.6137e-08 0)
(0.0118717 -5.49785e-08 0)
(0.0118718 -5.36858e-08 0)
(0.0118719 -5.22873e-08 0)
(0.011872 -5.08085e-08 0)
(0.0118721 -4.92717e-08 0)
(0.0118722 -4.76965e-08 0)
(0.0118723 -4.60999e-08 0)
(0.0118724 -4.44963e-08 0)
(0.0118725 -4.28982e-08 0)
(0.0118726 -4.13157e-08 0)
(0.0118727 -3.97574e-08 0)
(0.0118728 -3.82304e-08 0)
(0.0118728 -3.674e-08 0)
(0.0118729 -3.52906e-08 0)
(0.011873 -3.38856e-08 0)
(0.011873 -3.25274e-08 0)
(0.0118731 -3.12176e-08 0)
(0.0118732 -2.99572e-08 0)
(0.0118732 -2.87466e-08 0)
(0.0118733 -2.75858e-08 0)
(0.0118733 -2.64743e-08 0)
(0.0118734 -2.54115e-08 0)
(0.0118734 -2.43962e-08 0)
(0.0118735 -2.34274e-08 0)
(0.0118735 -2.25037e-08 0)
(0.0118736 -2.16237e-08 0)
(0.0118736 -2.07859e-08 0)
(0.0118736 -1.9989e-08 0)
(0.0118737 -1.92299e-08 0)
(0.0118737 -1.85135e-08 0)
(0.0118737 -1.78097e-08 0)
(0.0118738 -1.72405e-08 0)
(0.0118738 -1.62625e-08 0)
(0.0427246 0.00590452 0)
(0.0597936 -0.00620115 0)
(0.0439566 0.00253389 0)
(0.00655274 0.0240292 0)
(-0.0016757 -0.0250844 0)
(0.0138434 -0.0464698 0)
(0.0514237 -0.031019 0)
(0.133393 0.00517472 0)
(0.158445 0.0304067 0)
(0.120086 0.0301557 0)
(0.0958869 0.025113 0)
(0.0758881 0.0250123 0)
(0.0622785 0.0232525 0)
(0.0405028 0.0163683 0)
(0.0238335 0.00560514 0)
(0.0100703 -0.00907745 0)
(-0.0017995 -0.0242731 0)
(-0.00944473 -0.0335282 0)
(-0.00840143 -0.033279 0)
(0.00138847 -0.0223984 0)
(0.013791 -0.00723627 0)
(0.0240889 0.00561294 0)
(0.0284624 0.0109048 0)
(0.0295567 0.0100119 0)
(0.0291659 0.0064029 0)
(0.0274881 0.00297925 0)
(0.0250256 0.000867314 0)
(0.0223652 -0.000566975 0)
(0.0192127 -0.00119189 0)
(0.0160936 -0.00161537 0)
(0.0145012 -0.00212623 0)
(0.0143593 -0.00183183 0)
(0.0140506 -0.0010394 0)
(0.0132482 -9.20442e-05 0)
(0.0118322 0.000792772 0)
(0.0100761 0.00153456 0)
(0.00820774 0.00210857 0)
(0.00636487 0.00246437 0)
(0.00467435 0.00255423 0)
(0.00325715 0.00240436 0)
(0.00216657 0.00207309 0)
(0.00139577 0.00161157 0)
(0.000895212 0.00107311 0)
(0.000581035 0.000524866 0)
(0.000355019 4.15973e-05 0)
(0.000132739 -0.000306177 0)
(-0.000127015 -0.000473771 0)
(-0.000411029 -0.000453166 0)
(-0.000668005 -0.000276659 0)
(-0.00083939 1.21221e-06 0)
(-0.000889492 0.000320961 0)
(-0.000820336 0.000638228 0)
(-0.00066693 0.000918071 0)
(-0.000479997 0.00114402 0)
(-0.000309175 0.00130859 0)
(-0.000190874 0.00141064 0)
(-0.000143126 0.00146041 0)
(-0.000169431 0.00147145 0)
(-0.000260209 0.00145813 0)
(-0.000394184 0.0014358 0)
(-0.000543017 0.00141269 0)
(-0.000670889 0.00139167 0)
(-0.000737694 0.00137244 0)
(-0.000702463 0.00134813 0)
(-0.000530207 0.00131047 0)
(-0.000197307 0.00124777 0)
(0.000300899 0.00115 0)
(0.000947345 0.00101582 0)
(0.00170692 0.000843438 0)
(0.00254386 0.000640218 0)
(0.0034207 0.000422334 0)
(0.00430432 0.000205055 0)
(0.00516537 3.5252e-06 0)
(0.0059802 -0.000168198 0)
(0.00672831 -0.000308089 0)
(0.00739691 -0.0004077 0)
(0.00797253 -0.000472785 0)
(0.00844929 -0.000506568 0)
(0.0088212 -0.000519786 0)
(0.00908823 -0.000518126 0)
(0.00925147 -0.000507457 0)
(0.00931478 -0.000493121 0)
(0.00928474 -0.000477859 0)
(0.00916956 -0.000461815 0)
(0.00897903 -0.000443519 0)
(0.00872324 -0.000418758 0)
(0.00841141 -0.000385302 0)
(0.0080527 -0.000342954 0)
(0.00765637 -0.000291328 0)
(0.00723033 -0.000230769 0)
(0.00678202 -0.000165036 0)
(0.00631987 -9.87458e-05 0)
(0.00585159 -3.29478e-05 0)
(0.00538352 2.95844e-05 0)
(0.00492154 8.77688e-05 0)
(0.00447001 0.000140044 0)
(0.00403339 0.000183166 0)
(0.00361512 0.000218298 0)
(0.00321561 0.000245055 0)
(0.00283419 0.000262832 0)
(0.00247038 0.000271364 0)
(0.0021234 0.000273537 0)
(0.00179136 0.00027173 0)
(0.00147216 0.000268208 0)
(0.00116389 0.000264436 0)
(0.00086534 0.000261054 0)
(0.000575911 0.000258858 0)
(0.000295424 0.000257716 0)
(2.40615e-05 0.000257574 0)
(-0.000237892 0.000258116 0)
(-0.000489725 0.000258656 0)
(-0.000730782 0.000259382 0)
(-0.00096123 0.000260538 0)
(-0.00118185 0.000261821 0)
(-0.00139324 0.000262471 0)
(-0.00159557 0.000261859 0)
(-0.00178922 0.00025971 0)
(-0.00197423 0.000254909 0)
(-0.00214864 0.000245507 0)
(-0.00230942 0.000231676 0)
(-0.00245481 0.000215103 0)
(-0.00258458 0.000197277 0)
(-0.00269917 0.00017905 0)
(-0.0027992 0.000160656 0)
(-0.00288516 0.000141882 0)
(-0.00295743 0.000122526 0)
(-0.0030162 0.000101991 0)
(-0.00306085 7.90284e-05 0)
(-0.0030895 5.28906e-05 0)
(-0.00310016 2.43272e-05 0)
(-0.00309193 -5.38601e-06 0)
(-0.00306492 -3.54206e-05 0)
(-0.00301954 -6.53676e-05 0)
(-0.00295621 -9.50691e-05 0)
(-0.00287516 -0.000124657 0)
(-0.00277615 -0.000154329 0)
(-0.00265874 -0.000183881 0)
(-0.00252284 -0.000212768 0)
(-0.00236887 -0.000240492 0)
(-0.0021976 -0.000266764 0)
(-0.00200986 -0.000291535 0)
(-0.00180646 -0.000314891 0)
(-0.00158811 -0.000336837 0)
(-0.00135566 -0.000357239 0)
(-0.00111014 -0.000375955 0)
(-0.000852702 -0.000392937 0)
(-0.000584508 -0.000408211 0)
(-0.000306675 -0.000421801 0)
(-2.03235e-05 -0.000433696 0)
(0.000273406 -0.000443895 7.48415e-42)
(0.000573374 -0.000452425 7.17241e-42)
(0.000878478 -0.000459334 0)
(0.00118765 -0.000464666 0)
(0.00149985 -0.000468471 0)
(0.00181407 -0.000470804 0)
(0.00212935 -0.000471728 0)
(0.00244476 -0.000471303 0)
(0.00275941 -0.000469593 0)
(0.00307247 -0.000466663 0)
(0.00338315 -0.000462579 0)
(0.00369069 -0.000457409 0)
(0.00399439 -0.000451221 0)
(0.0042936 -0.000444083 0)
(0.0045877 -0.000436065 0)
(0.00487612 -0.000427235 0)
(0.00515836 -0.000417668 0)
(0.00543394 -0.000407438 0)
(0.00570244 -0.000396626 0)
(0.00596349 -0.000385321 0)
(0.0062168 -0.000373614 0)
(0.00646213 -0.000361601 0)
(0.00669931 -0.00034938 0)
(0.00692823 -0.000337045 0)
(0.00714885 -0.000324689 0)
(0.00736119 -0.000312393 0)
(0.00756532 -0.000300233 0)
(0.00776137 -0.000288271 0)
(0.00794948 -0.00027656 0)
(0.00812986 -0.000265139 0)
(0.00830271 -0.00025404 0)
(0.00846825 -0.000243285 0)
(0.00862674 -0.000232888 0)
(0.0087784 -0.000222857 0)
(0.00892351 -0.000213193 0)
(0.00906229 -0.000203897 0)
(0.009195 -0.000194962 0)
(0.00932187 -0.000186382 0)
(0.00944315 -0.000178147 0)
(0.00955905 -0.000170246 0)
(0.00966981 -0.00016267 0)
(0.00977562 -0.000155405 0)
(0.0098767 -0.00014844 0)
(0.00997324 -0.000141762 0)
(0.0100654 -0.000135361 0)
(0.0101534 -0.000129222 0)
(0.0102375 -0.000123336 0)
(0.0103176 -0.00011769 0)
(0.0103941 -0.000112274 0)
(0.0104671 -0.000107076 0)
(0.0105367 -0.000102088 0)
(0.010603 -9.72992e-05 0)
(0.0106662 -9.27009e-05 0)
(0.0107264 -8.82847e-05 0)
(0.0107838 -8.40428e-05 0)
(0.0108383 -7.99682e-05 0)
(0.0108902 -7.60541e-05 0)
(0.0109396 -7.22946e-05 0)
(0.0109865 -6.86843e-05 0)
(0.011031 -6.52185e-05 0)
(0.0110733 -6.18931e-05 0)
(0.0111134 -5.87043e-05 0)
(0.0111514 -5.56492e-05 0)
(0.0111874 -5.27252e-05 0)
(0.0112215 -4.99301e-05 0)
(0.0112538 -4.72618e-05 0)
(0.0112844 -4.47187e-05 0)
(0.0113133 -4.22992e-05 0)
(0.0113406 -4.00014e-05 0)
(0.0113665 -3.78237e-05 0)
(0.0113909 -3.57639e-05 0)
(0.011414 -3.38198e-05 0)
(0.0114358 -3.19886e-05 0)
(0.0114565 -3.02675e-05 0)
(0.011476 -2.8653e-05 0)
(0.0114945 -2.71414e-05 0)
(0.011512 -2.57285e-05 0)
(0.0115287 -2.44101e-05 0)
(0.0115444 -2.31814e-05 0)
(0.0115594 -2.20377e-05 0)
(0.0115737 -2.09739e-05 0)
(0.0115873 -1.9985e-05 0)
(0.0116002 -1.90658e-05 0)
(0.0116126 -1.82114e-05 0)
(0.0116244 -1.74166e-05 0)
(0.0116357 -1.66765e-05 0)
(0.0116466 -1.59864e-05 0)
(0.011657 -1.53416e-05 0)
(0.011667 -1.47377e-05 0)
(0.0116766 -1.41704e-05 0)
(0.0116858 -1.36359e-05 0)
(0.0116947 -1.31303e-05 0)
(0.0117033 -1.26503e-05 0)
(0.0117115 -1.21926e-05 0)
(0.0117195 -1.17543e-05 0)
(0.0117272 -1.13329e-05 0)
(0.0117346 -1.0926e-05 0)
(0.0117417 -1.05316e-05 0)
(0.0117486 -1.01478e-05 0)
(0.0117552 -9.77327e-06 0)
(0.0117616 -9.40666e-06 0)
(0.0117678 -9.04698e-06 0)
(0.0117737 -8.69343e-06 0)
(0.0117793 -8.34542e-06 0)
(0.0117848 -8.00253e-06 0)
(0.01179 -7.6645e-06 0)
(0.011795 -7.33122e-06 0)
(0.0117998 -7.00267e-06 0)
(0.0118043 -6.67893e-06 0)
(0.0118087 -6.36018e-06 0)
(0.0118128 -6.04663e-06 0)
(0.0118167 -5.73854e-06 0)
(0.0118205 -5.43619e-06 0)
(0.011824 -5.13988e-06 0)
(0.0118273 -4.84991e-06 0)
(0.0118304 -4.56659e-06 0)
(0.0118334 -4.29019e-06 0)
(0.0118362 -4.02099e-06 0)
(0.0118387 -3.75923e-06 0)
(0.0118412 -3.50514e-06 0)
(0.0118434 -3.25894e-06 0)
(0.0118455 -3.02078e-06 0)
(0.0118474 -2.79084e-06 0)
(0.0118492 -2.56923e-06 0)
(0.0118508 -2.35607e-06 0)
(0.0118523 -2.15144e-06 0)
(0.0118537 -1.9554e-06 0)
(0.0118549 -1.76801e-06 0)
(0.011856 -1.58927e-06 0)
(0.011857 -1.41922e-06 0)
(0.0118579 -1.25784e-06 0)
(0.0118587 -1.1051e-06 0)
(0.0118594 -9.60991e-07 0)
(0.01186 -8.25454e-07 0)
(0.0118605 -6.98435e-07 0)
(0.0118609 -5.79866e-07 0)
(0.0118612 -4.69666e-07 0)
(0.0118615 -3.67743e-07 0)
(0.0118617 -2.73993e-07 0)
(0.0118619 -1.88299e-07 0)
(0.011862 -1.10531e-07 0)
(0.011862 -4.05479e-08 0)
(0.011862 2.18053e-08 0)
(0.011862 7.66954e-08 0)
(0.0118619 1.24301e-07 0)
(0.0118618 1.64815e-07 0)
(0.0118617 1.98438e-07 0)
(0.0118615 2.25387e-07 0)
(0.0118614 2.45886e-07 0)
(0.0118612 2.60173e-07 0)
(0.011861 2.68496e-07 0)
(0.0118608 2.71116e-07 0)
(0.0118606 2.68303e-07 0)
(0.0118605 2.60341e-07 0)
(0.0118603 2.47525e-07 0)
(0.0118601 2.30162e-07 0)
(0.01186 2.0857e-07 0)
(0.0118598 1.83079e-07 0)
(0.0118597 1.5403e-07 0)
(0.0118596 1.21774e-07 0)
(0.0118596 8.66729e-08 0)
(0.0118595 4.90943e-08 0)
(0.0118595 9.41427e-09 0)
(0.0118595 -3.19858e-08 0)
(0.0118595 -7.47206e-08 0)
(0.0118596 -1.18403e-07 0)
(0.0118597 -1.62644e-07 0)
(0.0118598 -2.07057e-07 0)
(0.01186 -2.51259e-07 0)
(0.0118602 -2.94873e-07 0)
(0.0118604 -3.3753e-07 0)
(0.0118606 -3.7887e-07 0)
(0.0118609 -4.18551e-07 0)
(0.0118612 -4.56244e-07 0)
(0.0118615 -4.91645e-07 0)
(0.0118618 -5.2447e-07 0)
(0.0118622 -5.54465e-07 0)
(0.0118626 -5.81405e-07 0)
(0.011863 -6.05097e-07 0)
(0.0118634 -6.25382e-07 0)
(0.0118638 -6.42139e-07 0)
(0.0118642 -6.55281e-07 0)
(0.0118647 -6.64758e-07 0)
(0.0118651 -6.70556e-07 0)
(0.0118656 -6.72698e-07 0)
(0.011866 -6.71238e-07 0)
(0.0118665 -6.66265e-07 0)
(0.0118669 -6.57896e-07 0)
(0.0118673 -6.46279e-07 0)
(0.0118678 -6.31587e-07 0)
(0.0118682 -6.14017e-07 0)
(0.0118686 -5.93786e-07 0)
(0.011869 -5.7113e-07 0)
(0.0118693 -5.46299e-07 0)
(0.0118697 -5.19554e-07 0)
(0.01187 -4.91165e-07 0)
(0.0118704 -4.61402e-07 0)
(0.0118707 -4.3054e-07 0)
(0.0118709 -3.98847e-07 0)
(0.0118712 -3.66586e-07 0)
(0.0118714 -3.34009e-07 0)
(0.0118716 -3.01356e-07 0)
(0.0118718 -2.68852e-07 0)
(0.011872 -2.36705e-07 0)
(0.0118722 -2.05104e-07 0)
(0.0118723 -1.7422e-07 0)
(0.0118724 -1.44205e-07 0)
(0.0118725 -1.15193e-07 0)
(0.0118726 -8.72986e-08 0)
(0.0118726 -6.06226e-08 0)
(0.0118727 -3.52489e-08 0)
(0.0118727 -1.12476e-08 0)
(0.0118727 1.1324e-08 0)
(0.0118727 3.24213e-08 0)
(0.0118727 5.20122e-08 0)
(0.0118726 7.0077e-08 0)
(0.0118726 8.66093e-08 0)
(0.0118725 1.01616e-07 0)
(0.0118725 1.15119e-07 0)
(0.0118724 1.27153e-07 0)
(0.0118723 1.37766e-07 0)
(0.0118722 1.47019e-07 0)
(0.0118721 1.5498e-07 0)
(0.011872 1.61723e-07 0)
(0.0118719 1.67322e-07 0)
(0.0118718 1.71844e-07 0)
(0.0118717 1.75343e-07 0)
(0.0118716 1.77857e-07 0)
(0.0118714 1.79398e-07 0)
(0.0118713 1.79953e-07 0)
(0.0118712 1.79482e-07 0)
(0.011871 1.77915e-07 0)
(0.0118709 1.75164e-07 0)
(0.0118708 1.71124e-07 0)
(0.0118707 1.65687e-07 0)
(0.0118705 1.58754e-07 0)
(0.0118704 1.50243e-07 0)
(0.0118703 1.40107e-07 0)
(0.0118702 1.28338e-07 0)
(0.0118701 1.1498e-07 0)
(0.01187 1.00126e-07 0)
(0.01187 8.39241e-08 0)
(0.0118699 6.65704e-08 0)
(0.0118698 4.8302e-08 0)
(0.0118698 2.93877e-08 0)
(0.0118698 1.01161e-08 0)
(0.0118698 -9.21576e-09 0)
(0.0118698 -2.8315e-08 0)
(0.0118698 -4.69036e-08 0)
(0.0118698 -6.47271e-08 0)
(0.0118699 -8.15628e-08 0)
(0.0118699 -9.72243e-08 0)
(0.01187 -1.11564e-07 0)
(0.0118701 -1.24476e-07 0)
(0.0118702 -1.35891e-07 0)
(0.0118703 -1.45778e-07 0)
(0.0118704 -1.5414e-07 0)
(0.0118705 -1.61009e-07 0)
(0.0118706 -1.66438e-07 0)
(0.0118707 -1.70505e-07 0)
(0.0118708 -1.73299e-07 0)
(0.0118709 -1.7492e-07 0)
(0.011871 -1.75476e-07 0)
(0.0118712 -1.75078e-07 0)
(0.0118713 -1.73834e-07 0)
(0.0118714 -1.71854e-07 0)
(0.0118715 -1.69242e-07 0)
(0.0118716 -1.66094e-07 0)
(0.0118717 -1.62503e-07 0)
(0.0118718 -1.58552e-07 0)
(0.0118719 -1.54318e-07 0)
(0.0118721 -1.49869e-07 0)
(0.0118721 -1.45267e-07 0)
(0.0118722 -1.40565e-07 0)
(0.0118723 -1.3581e-07 0)
(0.0118724 -1.31042e-07 0)
(0.0118725 -1.26296e-07 0)
(0.0118726 -1.21601e-07 0)
(0.0118727 -1.1698e-07 0)
(0.0118728 -1.12454e-07 0)
(0.0118728 -1.08038e-07 0)
(0.0118729 -1.03744e-07 0)
(0.011873 -9.95829e-08 0)
(0.011873 -9.55608e-08 0)
(0.0118731 -9.16823e-08 0)
(0.0118732 -8.79504e-08 0)
(0.0118732 -8.43663e-08 0)
(0.0118733 -8.09297e-08 0)
(0.0118733 -7.76395e-08 0)
(0.0118734 -7.44935e-08 0)
(0.0118734 -7.14889e-08 0)
(0.0118735 -6.86222e-08 0)
(0.0118735 -6.58894e-08 0)
(0.0118736 -6.32865e-08 0)
(0.0118736 -6.08086e-08 0)
(0.0118736 -5.84521e-08 0)
(0.0118737 -5.62077e-08 0)
(0.0118737 -5.40902e-08 0)
(0.0118737 -5.201e-08 0)
(0.0118738 -5.03271e-08 0)
(0.0118738 -4.74521e-08 0)
(0.0412868 0.00484777 0)
(0.0512139 -0.0032636 0)
(0.0186524 0.0495907 0)
(0.0439413 0.0491202 0)
(0.0306943 0.00323893 0)
(0.0463693 -0.0175682 0)
(0.0859667 -0.0577403 0)
(0.147621 -0.06016 0)
(0.200969 0.000789175 0)
(0.16782 0.0245279 0)
(0.135413 0.0291231 0)
(0.116343 0.0343729 0)
(0.0958604 0.0376153 0)
(0.0866613 0.0326874 0)
(0.0839564 0.0211552 0)
(0.0686902 0.0127251 0)
(0.0499797 0.00508326 0)
(0.0307689 -0.00691948 0)
(0.017719 -0.0129049 0)
(0.00497793 -0.0144919 0)
(0.00277537 -0.0111443 0)
(0.0089415 -0.00428944 0)
(0.0185269 0.00103787 0)
(0.0266537 0.00326829 0)
(0.0297949 0.00351097 0)
(0.0302843 0.0032691 0)
(0.0296245 0.00368029 0)
(0.0286337 0.00443379 0)
(0.0276728 0.0046967 0)
(0.0274458 0.00267738 0)
(0.0270548 -0.000791853 0)
(0.0253679 -0.0010605 0)
(0.0231828 2.08662e-05 0)
(0.0209974 0.0014627 0)
(0.0194339 0.00255378 0)
(0.0181454 0.00307182 0)
(0.0170821 0.0032039 0)
(0.0159163 0.00314044 0)
(0.0145649 0.00296158 0)
(0.0129069 0.00271399 0)
(0.0107264 0.0024134 0)
(0.00786434 0.00206491 0)
(0.00423407 0.0017164 0)
(-0.000177711 0.00142373 0)
(-0.00530125 0.00122009 0)
(-0.0109248 0.00109574 0)
(-0.0166454 0.000978363 0)
(-0.0219707 0.000804606 0)
(-0.0264888 0.000547672 0)
(-0.0300215 0.000249101 0)
(-0.0326448 -3.50155e-05 0)
(-0.0345942 -0.000238536 0)
(-0.0361497 -0.000345381 0)
(-0.0375434 -0.000347269 0)
(-0.0389222 -0.000266495 0)
(-0.0403591 -0.000139128 0)
(-0.0418374 9.98696e-06 0)
(-0.0432859 0.000154033 0)
(-0.0446308 0.000267797 0)
(-0.045744 0.000334921 0)
(-0.0465287 0.000332657 0)
(-0.0469152 0.000249954 0)
(-0.0468297 8.12026e-05 0)
(-0.0461456 -0.000175084 0)
(-0.0448238 -0.000492102 0)
(-0.042903 -0.000840136 0)
(-0.0405049 -0.00117794 0)
(-0.0377179 -0.00146759 0)
(-0.0347844 -0.00169523 0)
(-0.0318493 -0.00185949 0)
(-0.0289307 -0.00195655 0)
(-0.0260143 -0.00199915 0)
(-0.0231479 -0.00198522 0)
(-0.0202305 -0.00192381 0)
(-0.017352 -0.001823 0)
(-0.0143757 -0.00168375 0)
(-0.0113696 -0.00151496 0)
(-0.00835041 -0.00132505 0)
(-0.00547727 -0.00111468 0)
(-0.00278611 -0.000887546 0)
(-0.000307231 -0.000648682 0)
(0.0019304 -0.000404871 0)
(0.00391049 -0.000164114 0)
(0.00563127 6.57109e-05 0)
(0.0071023 0.00027544 0)
(0.00834074 0.000466277 0)
(0.00936599 0.000635468 0)
(0.0101995 0.000776584 0)
(0.0108653 0.000890061 0)
(0.0113811 0.000979547 0)
(0.0117605 0.00104621 0)
(0.0120178 0.00108559 0)
(0.0121688 0.00110706 0)
(0.0122175 0.00110621 0)
(0.0121799 0.00108854 0)
(0.0120606 0.00106002 0)
(0.0118645 0.00101438 0)
(0.0116028 0.00096301 0)
(0.0112758 0.000909704 0)
(0.0108885 0.000859428 0)
(0.010445 0.000810273 0)
(0.00995221 0.000766801 0)
(0.0094138 0.000729287 0)
(0.00883272 0.000698697 0)
(0.00821203 0.000673298 0)
(0.00755611 0.000650021 0)
(0.0068706 0.000629195 0)
(0.00616227 0.000608663 0)
(0.00543921 0.000588181 0)
(0.00470942 0.000567156 0)
(0.00398142 0.000544429 0)
(0.0032642 0.000522402 0)
(0.00256476 0.000503447 0)
(0.00188915 0.000487371 0)
(0.00124341 0.00047358 0)
(0.000633318 0.00046201 0)
(6.30604e-05 0.00045163 0)
(-0.000465298 0.000438705 0)
(-0.000948369 0.000417494 0)
(-0.00138143 0.000389636 0)
(-0.00176283 0.000358301 0)
(-0.002094 0.000325058 0)
(-0.00237759 0.000290974 0)
(-0.00261673 0.000256328 0)
(-0.00281435 0.000220635 0)
(-0.00297358 0.00018427 0)
(-0.00309827 0.0001468 0)
(-0.003191 0.000105987 0)
(-0.00325164 6.01365e-05 0)
(-0.00327985 1.10119e-05 0)
(-0.00327758 -3.85534e-05 0)
(-0.00324806 -8.69877e-05 0)
(-0.00319427 -0.000133832 0)
(-0.00311882 -0.00017924 0)
(-0.00302372 -0.000224148 0)
(-0.00290975 -0.000269681 0)
(-0.00277691 -0.000315707 0)
(-0.00262563 -0.000361196 0)
(-0.002457 -0.000405286 0)
(-0.00227241 -0.00044748 0)
(-0.00207312 -0.00048769 0)
(-0.00185994 -0.000526073 0)
(-0.00163334 -0.000562539 0)
(-0.00139388 -0.000596655 0)
(-0.00114244 -0.000628002 0)
(-0.000880093 -0.000656419 0)
(-0.000607848 -0.000681959 0)
(-0.000326599 -0.000704677 0)
(-3.7277e-05 -0.000724541 0)
(0.000259088 -0.00074154 0)
(0.000561429 -0.000755742 0)
(0.000868714 -0.000767243 0)
(0.00117994 -0.000776118 0)
(0.00149408 -0.000782441 0)
(0.00181017 -0.000786306 0)
(0.00212724 -0.000787811 0)
(0.00244438 -0.000787058 0)
(0.00276071 -0.00078415 0)
(0.00307537 -0.000779201 0)
(0.00338757 -0.000772324 0)
(0.00369656 -0.000763634 0)
(0.00400162 -0.000753244 0)
(0.00430211 -0.000741271 0)
(0.0045974 -0.000727827 0)
(0.00488692 -0.000713029 0)
(0.00517016 -0.000696996 0)
(0.00544663 -0.000679852 0)
(0.00571591 -0.000661734 0)
(0.00597763 -0.000642787 0)
(0.00623147 -0.000623166 0)
(0.0064772 -0.000603033 0)
(0.00671465 -0.000582555 0)
(0.00694371 -0.000561894 0)
(0.00716436 -0.000541203 0)
(0.00737662 -0.000520624 0)
(0.00758058 -0.000500283 0)
(0.00777637 -0.000480283 0)
(0.00796417 -0.000460713 0)
(0.00814418 -0.000441638 0)
(0.00831662 -0.000423111 0)
(0.00848174 -0.000405165 0)
(0.00863978 -0.000387823 0)
(0.008791 -0.000371097 0)