/*--------------------------------*- C++ -*----------------------------------*\
| =========                 |                                                 |
| \\      /  F ield         | OpenFOAM: The Open Source CFD Toolbox           |
|  \\    /   O peration     | Version:  v2006                                 |
|   \\  /    A nd           | Website:  www.openfoam.com                      |
|    \\/     M anipulation  |                                                 |
\*---------------------------------------------------------------------------*/
FoamFile
{
    version     2.0;
    format      ascii;
    class       volScalarField;
    location    "0";
    object      f;
}
// * * * * * * * * * * * * * * * * * * * * * * * * * * * * * * * * * * * * * //

dimensions      [0 0 0 0 0 0 0];


internalField   nonuniform List<scalar> 
2500
(
-1.13452e-225
7.74856e-204
-3.64539e-194
2.783e-184
1.64238e-179
4.77677e-176
3.82084e-173
3.40826e-171
1.57702e-170
2.09417e-167
4.15528e-167
3.31385e-167
1.47149e-167
4.21585e-168
8.50866e-169
1.28383e-169
1.51237e-170
1.4379e-171
1.13285e-172
7.55684e-174
4.34592e-175
2.18848e-176
9.78299e-178
3.93058e-179
1.43585e-180
4.82161e-182
1.50416e-183
4.4037e-185
1.22144e-186
3.2366e-188
8.24864e-190
2.03137e-191
4.84647e-193
1.12101e-194
2.51256e-196
5.4506e-198
1.14301e-199
2.31473e-201
4.52407e-203
8.53221e-205
1.55304e-206
2.72965e-208
4.63609e-210
7.61541e-212
1.21102e-213
1.86623e-215
2.78987e-217
4.04999e-219
5.71499e-221
6.27925e-223
-2.53346e-220
5.82916e-199
-1.64526e-189
8.97173e-180
4.11821e-175
9.80085e-172
6.63355e-169
5.13084e-167
2.10824e-166
2.53946e-163
4.58767e-163
3.3607e-163
1.38085e-163
3.68342e-164
6.9581e-165
9.87134e-166
1.0977e-166
9.88612e-168
7.40077e-169
4.7038e-170
2.58384e-171
1.24557e-172
5.34094e-174
2.06217e-175
7.25161e-177
2.34775e-178
7.07158e-180
2.00163e-181
5.37429e-183
1.38013e-184
3.41239e-186
8.16092e-188
1.89253e-189
4.25853e-191
9.29259e-193
1.96405e-194
4.01558e-196
7.93358e-198
1.5137e-199
2.78849e-201
4.96058e-203
8.52578e-205
1.4167e-206
2.27788e-208
3.54736e-210
5.35587e-212
7.84778e-214
1.1171e-215
1.54633e-217
1.68484e-219
-5.5303e-215
4.28827e-194
-7.26134e-185
2.82837e-175
1.00982e-170
1.96654e-167
1.12628e-164
7.55401e-163
2.75757e-162
3.01576e-159
4.96233e-159
3.34037e-159
1.27046e-159
3.15637e-160
5.58256e-161
7.44887e-162
7.82139e-163
6.67447e-164
4.74889e-165
2.87658e-166
1.50964e-167
6.96817e-169
2.86672e-170
1.06392e-171
3.60217e-173
1.12462e-174
3.27126e-176
8.9538e-178
2.3276e-179
5.79388e-181
1.39005e-182
3.22894e-184
7.27951e-186
1.59375e-187
3.38638e-189
6.97434e-191
1.39042e-192
2.68038e-194
4.99301e-196
8.98549e-198
1.56242e-199
2.62617e-201
4.26984e-203
6.72082e-205
1.02507e-206
1.51647e-208
2.17815e-210
3.04053e-212
4.12899e-214
4.46197e-216
-1.19422e-209
3.12158e-189
-3.17113e-180
8.82287e-171
2.45019e-166
3.90445e-163
1.8922e-160
1.10053e-158
3.57046e-158
3.54811e-155
5.31951e-155
3.29146e-155
1.15913e-155
2.68289e-156
4.44392e-157
5.5783e-158
5.53198e-159
4.47403e-160
3.02613e-161
1.74731e-162
8.76245e-164
3.87338e-165
1.52914e-166
5.45575e-168
1.7788e-169
5.35616e-171
1.50479e-172
3.98342e-174
1.00273e-175
2.41973e-177
5.63394e-179
1.2713e-180
2.78666e-182
5.93687e-184
1.22846e-185
2.46563e-187
4.79362e-189
9.01746e-191
1.64016e-192
2.88372e-194
4.90159e-196
8.05788e-198
1.282e-199
1.97554e-201
2.95127e-203
4.27827e-205
6.02406e-207
8.24697e-209
1.09875e-210
1.17756e-212
-2.54941e-204
2.24713e-184
-1.36953e-175
2.72172e-166
5.87912e-162
7.66621e-159
3.14377e-156
1.58563e-154
4.57374e-154
4.13358e-151
5.64857e-151
3.21371e-151
1.04823e-151
2.26099e-152
3.50828e-153
4.14396e-154
3.88222e-155
2.97631e-156
1.91412e-157
1.05374e-158
5.05041e-160
2.13838e-161
8.1022e-163
2.77948e-164
8.72804e-166
2.53511e-167
6.88005e-169
1.76167e-170
4.29476e-172
1.00487e-173
2.2709e-175
4.9785e-177
1.06118e-178
2.20025e-180
4.43419e-182
8.6742e-184
1.64476e-185
3.01952e-187
5.36308e-189
9.21311e-191
1.53092e-192
2.46167e-194
3.83271e-196
5.78261e-198
8.46183e-200
1.20208e-201
1.65939e-203
2.22803e-205
2.9125e-207
3.09521e-209
-5.37664e-199
1.5987e-179
-5.84532e-171
8.29771e-162
1.39415e-157
1.48761e-154
5.16206e-152
2.25793e-150
5.793e-150
4.76595e-147
5.93829e-147
3.10762e-147
9.39132e-148
1.88826e-148
2.7454e-149
3.05226e-150
2.70193e-151
1.96402e-152
1.20123e-153
6.30597e-155
2.8891e-156
1.1719e-157
4.26224e-159
1.40611e-160
4.25322e-162
1.19183e-163
3.12496e-165
7.74088e-167
1.82792e-168
4.14739e-170
9.09853e-172
1.9382e-173
4.01794e-175
8.10871e-177
1.59179e-178
3.03528e-180
5.61379e-182
1.00588e-183
1.74477e-185
2.92881e-187
4.75813e-189
7.48404e-191
1.14039e-192
1.68469e-194
2.41495e-196
3.36213e-198
4.55038e-200
5.99261e-202
7.68638e-204
8.09871e-206
-1.11935e-193
1.12329e-174
-2.46395e-166
2.49839e-157
3.26508e-153
2.85095e-150
8.3712e-148
3.17562e-146
7.24999e-146
5.43519e-143
6.17725e-143
2.97451e-143
8.33109e-144
1.56192e-144
2.1285e-145
2.22788e-146
1.86394e-147
1.28491e-148
7.47532e-150
3.74283e-151
1.63947e-152
6.37189e-154
2.22493e-155
7.05966e-157
2.05727e-158
5.56241e-160
1.40927e-161
3.37767e-163
7.72678e-165
1.70031e-166
3.62158e-168
7.49753e-170
1.51181e-171
2.97009e-173
5.68004e-175
1.05587e-176
1.90502e-178
3.33186e-180
5.64459e-182
9.25942e-184
1.47083e-185
2.26318e-187
3.37527e-189
4.88261e-191
6.85669e-193
9.35589e-195
1.24155e-196
1.60381e-198
2.01857e-200
2.1082e-202
-2.29845e-188
7.78914e-170
-1.025e-161
7.42383e-153
7.54652e-149
5.39214e-146
1.33976e-143
4.40797e-142
8.95914e-142
6.12709e-139
6.35447e-139
2.81652e-139
7.31361e-140
1.27892e-140
1.63398e-141
1.61058e-142
1.27383e-143
8.32935e-145
4.61032e-146
2.20204e-147
9.22351e-149
3.43534e-150
1.15181e-151
3.51559e-153
9.87135e-155
2.57566e-156
6.30638e-158
1.46266e-159
3.24195e-161
6.92019e-163
1.43129e-164
2.88009e-166
5.64968e-168
1.08064e-169
2.01357e-171
3.64944e-173
6.42381e-175
1.09679e-176
1.81494e-178
2.9097e-180
4.51953e-182
6.8036e-184
9.93187e-186
1.40696e-187
1.93574e-189
2.58886e-191
3.36867e-193
4.26865e-195
5.27222e-197
5.45669e-199
-4.65073e-183
5.32609e-165
-4.20469e-157
2.17529e-148
1.71998e-144
1.00568e-141
2.11442e-139
6.03391e-138
1.09235e-137
6.82302e-135
6.45997e-135
2.63659e-135
6.34956e-136
1.03597e-136
1.24125e-137
1.15244e-138
8.61864e-140
5.34677e-141
2.81617e-142
1.28338e-143
5.1412e-145
1.83533e-146
5.9096e-148
1.73534e-149
4.69565e-151
1.18252e-152
2.79849e-154
6.28195e-156
1.34929e-157
2.79426e-159
5.61288e-161
1.09798e-162
2.09565e-164
3.90326e-166
7.08723e-168
1.25253e-169
2.15121e-171
3.58591e-173
5.79659e-175
9.08308e-177
1.37968e-178
2.03211e-180
2.90383e-182
4.02864e-184
5.43068e-186
7.11924e-188
9.08409e-190
1.12923e-191
1.36874e-193
1.40348e-195
-9.26357e-178
3.58821e-160
-1.69939e-152
6.27991e-144
3.86232e-140
1.84806e-137
3.28786e-135
8.13836e-134
1.31299e-133
7.50016e-131
6.48553e-131
2.4384e-131
5.44805e-132
8.29602e-133
9.32433e-134
8.15664e-135
5.76928e-136
3.39639e-137
1.70261e-138
7.40442e-140
2.83733e-141
9.70963e-143
3.00288e-144
8.48475e-146
2.2128e-147
5.37919e-149
1.23061e-150
2.67401e-152
5.56661e-154
1.11861e-155
2.18264e-157
4.15141e-159
7.71082e-161
1.39871e-162
2.47515e-164
4.26604e-166
7.14984e-168
1.16371e-169
1.83779e-171
2.81493e-173
4.18168e-175
6.02662e-177
8.43068e-179
1.14555e-180
1.51311e-182
1.94444e-184
2.43313e-186
2.96731e-188
3.52989e-190
3.58483e-192
-1.8143e-172
2.37954e-155
-6.76071e-148
1.78456e-139
8.53726e-136
3.34287e-133
5.03253e-131
1.08057e-129
1.55448e-129
8.13202e-127
6.42529e-127
2.22627e-127
4.61639e-128
6.5629e-129
6.9215e-130
5.7061e-131
3.81802e-132
2.13338e-133
1.01807e-134
4.22576e-136
1.54918e-137
5.0828e-139
1.51006e-140
4.10607e-142
1.03224e-143
2.42259e-145
5.3584e-147
1.12725e-148
2.27479e-150
4.43638e-152
8.4101e-154
1.5556e-155
2.81229e-157
4.96909e-159
8.57124e-161
1.44092e-162
2.3569e-164
3.74604e-166
5.7802e-168
8.65497e-170
1.25754e-171
1.77351e-173
2.42896e-175
3.23272e-177
4.18419e-179
5.27119e-181
6.46891e-183
7.74015e-185
9.03718e-187
9.08728e-189
-3.48947e-167
1.55172e-150
-2.64481e-143
4.9867e-135
1.85564e-131
5.94615e-129
7.57481e-127
1.41093e-125
1.81093e-125
8.68954e-123
6.27649e-123
2.00496e-123
3.85992e-124
5.12477e-125
5.07292e-126
3.94232e-127
2.49596e-128
1.324e-129
6.01573e-131
2.38364e-132
8.36151e-134
2.6306e-135
7.50861e-137
1.9651e-138
4.76269e-140
1.07929e-141
2.3084e-143
4.70231e-145
9.20031e-147
1.74171e-148
3.20848e-150
5.77254e-152
1.01594e-153
1.74886e-155
2.94092e-157
4.82295e-159
7.70024e-161
1.19527e-162
1.8022e-164
2.63826e-166
3.74962e-168
5.17515e-170
6.93964e-172
9.04716e-174
1.14756e-175
1.41734e-177
1.70598e-179
2.00282e-181
2.29529e-183
2.28455e-185
-6.58104e-162
9.93941e-146
-1.0163e-138
1.36873e-130
3.96181e-127
1.03892e-124
1.11993e-122
1.80976e-121
2.07375e-121
9.14261e-119
6.03989e-119
1.77953e-119
3.18189e-120
3.94661e-121
3.66784e-122
2.68761e-123
1.61041e-124
8.11131e-126
3.50962e-127
1.32773e-128
4.4572e-130
1.34482e-131
3.68843e-133
9.29215e-135
2.17149e-136
4.75218e-138
9.83004e-140
1.9393e-141
3.67952e-143
6.76297e-145
1.2109e-146
2.11952e-148
3.6322e-150
6.09264e-152
9.99021e-154
1.59847e-155
2.49141e-157
3.7774e-159
5.566e-161
7.96698e-163
1.10768e-164
1.49627e-166
1.96466e-168
2.50913e-170
3.11914e-172
3.77717e-174
4.45939e-176
5.13712e-178
5.77904e-180
5.69177e-182
-1.21504e-156
6.24612e-141
-3.83129e-134
3.68572e-126
8.29846e-123
1.78091e-120
1.6245e-118
2.27761e-117
2.33155e-117
9.46217e-115
5.72013e-115
1.5551e-115
2.58348e-116
2.99452e-117
2.61358e-118
1.80618e-119
1.02449e-120
4.90064e-122
2.01959e-123
7.29585e-125
2.34424e-126
6.78413e-128
1.78815e-129
4.33697e-131
9.77374e-133
2.06592e-134
4.13368e-136
7.89947e-138
1.45374e-139
2.59481e-141
4.51671e-143
7.69338e-145
1.28403e-146
2.0992e-148
3.35693e-150
5.24139e-152
7.97628e-154
1.18138e-155
1.70139e-157
2.38141e-159
3.23926e-161
4.28293e-163
5.50705e-165
6.89046e-167
8.39541e-169
9.96867e-171
1.15448e-172
1.30508e-174
1.44126e-176
1.40421e-178
-2.19182e-151
3.84583e-136
-1.41513e-129
9.72417e-122
1.70306e-118
2.99115e-116
2.30882e-114
2.80875e-113
2.57047e-113
9.62259e-111
5.32583e-111
1.33661e-111
2.06386e-112
2.23626e-113
1.83348e-114
1.19529e-115
6.4193e-117
2.91678e-118
1.14506e-119
3.95067e-121
1.21515e-122
3.37341e-124
8.54608e-126
1.9958e-127
4.33797e-129
8.85774e-131
1.71469e-132
3.17473e-134
5.66811e-136
9.82728e-138
1.66344e-139
2.75788e-141
4.48401e-143
7.14633e-145
1.11476e-146
1.69878e-148
2.52448e-150
3.6531e-152
5.14271e-154
7.03966e-156
9.36915e-158
1.21265e-159
1.52704e-161
1.87201e-163
2.23572e-165
2.60322e-167
2.95753e-169
3.2811e-171
3.55734e-173
3.42757e-175
-3.85428e-146
2.31671e-131
-5.11379e-125
2.51004e-117
3.41953e-114
4.91524e-112
3.21048e-110
3.38918e-109
2.77494e-109
9.60428e-107
4.86931e-107
1.1286e-107
1.62034e-108
1.64175e-109
1.2648e-110
7.78026e-112
3.95697e-113
1.70815e-114
6.38906e-116
2.10557e-117
6.20041e-119
1.65144e-120
4.02166e-122
9.04439e-124
1.89631e-125
3.74113e-127
7.00788e-129
1.25736e-130
2.17842e-132
3.6697e-134
6.04201e-136
9.75318e-138
1.5452e-139
2.4013e-141
3.65466e-143
5.43675e-145
7.89092e-147
1.11579e-148
1.53563e-150
2.05601e-152
2.67766e-154
3.39291e-156
4.1847e-158
5.02679e-160
5.88508e-162
6.72011e-164
7.49031e-166
8.15572e-168
8.68165e-170
8.2701e-172
-6.58868e-141
1.3632e-126
-1.80507e-120
6.32866e-113
6.70669e-110
7.88986e-108
4.36084e-106
3.99519e-105
2.92885e-105
9.39622e-103
4.36608e-103
9.34994e-104
1.2486e-104
1.18336e-105
8.56855e-107
4.97455e-108
2.39642e-109
9.82992e-111
3.50357e-112
1.10305e-113
3.11023e-115
7.94868e-117
1.86095e-118
4.03082e-120
8.1536e-122
1.55445e-123
2.8182e-125
4.90121e-127
8.24233e-129
1.34946e-130
2.16185e-132
3.39875e-134
5.24847e-136
7.95529e-138
1.18158e-139
1.71625e-141
2.43332e-143
3.36271e-145
4.52508e-147
5.92649e-149
7.55368e-151
9.37132e-153
1.13217e-154
1.33274e-156
1.52967e-158
1.71313e-160
1.8735e-162
2.00228e-164
2.09282e-166
1.97048e-168
-1.09113e-135
7.8215e-122
-6.2127e-116
1.5559e-108
1.2826e-105
1.23494e-103
5.77597e-102
4.5928e-101
3.01718e-101
8.99801e-99
3.83399e-99
7.58929e-100
9.43025e-101
8.36256e-102
5.69265e-103
3.11981e-104
1.42383e-105
5.55057e-107
1.88543e-108
5.67155e-110
1.53145e-111
3.75592e-113
8.45495e-115
1.76407e-116
3.44323e-118
6.34465e-120
1.11356e-121
1.87766e-123
3.06592e-125
4.88021e-127
7.60965e-129
1.16556e-130
1.75494e-132
2.59522e-134
3.76268e-136
5.3375e-138
7.39391e-140
9.98779e-142
1.31433e-143
1.68409e-145
2.10091e-147
2.55225e-149
3.02063e-151
3.48483e-153
3.92162e-155
4.3079e-157
4.62284e-159
4.8498e-161
4.97778e-163
4.63119e-165
-1.74283e-130
4.36727e-117
-2.08091e-111
3.7225e-104
2.38709e-101
1.88117e-99
7.44532e-98
5.13892e-97
3.02787e-97
8.42119e-95
3.29208e-95
6.02612e-96
6.96976e-97
5.78472e-98
3.70295e-99
1.91609e-100
8.28601e-102
3.07032e-103
9.94094e-105
2.85746e-106
7.38983e-108
1.73945e-109
3.76544e-111
7.5688e-113
1.42576e-114
2.53977e-116
4.31634e-118
7.05867e-120
1.11947e-121
1.73307e-123
2.6313e-125
3.92809e-127
5.76869e-129
8.32558e-131
1.17863e-132
1.63322e-134
2.21099e-136
2.91989e-138
3.75808e-140
4.71169e-142
5.75382e-144
6.84536e-146
7.93745e-148
8.9755e-150
9.90413e-152
1.06725e-153
1.1239e-155
1.15752e-157
1.16677e-159
1.07239e-161
-2.66899e-125
2.36795e-112
-6.768e-107
8.6482e-100
4.31406e-97
2.78268e-95
9.31966e-94
5.58439e-93
2.95382e-93
7.68939e-91
2.75933e-91
4.67268e-92
5.03208e-93
3.91003e-94
2.35415e-95
1.15038e-96
4.71453e-98
1.66072e-99
5.12584e-101
1.40809e-102
3.48807e-104
7.8809e-106
1.64076e-107
3.17783e-109
5.77832e-111
9.95295e-113
1.63837e-114
2.59936e-116
4.00558e-118
6.03362e-120
8.92377e-122
1.29892e-123
1.8613e-125
2.6226e-127
3.62632e-129
4.90991e-131
6.49708e-133
8.39006e-135
1.05634e-136
1.29606e-138
1.54953e-140
1.80559e-142
2.05146e-144
2.27395e-146
2.4607e-148
2.60137e-150
2.6886e-152
2.71865e-154
2.6915e-156
2.44331e-158
-3.88566e-120
1.24369e-107
-2.13226e-102
1.94621e-95
7.5524e-93
3.98746e-91
1.13009e-89
5.87942e-89
2.79449e-89
6.83722e-87
2.25329e-87
3.53137e-88
3.54211e-89
2.57734e-90
1.45985e-91
6.73795e-93
2.61732e-94
8.76572e-96
2.57948e-97
6.77259e-99
1.60716e-100
3.48587e-102
6.98079e-104
1.30297e-105
2.28739e-107
3.81071e-109
6.07774e-111
9.35853e-113
1.40187e-114
2.05559e-116
2.96301e-118
4.20724e-120
5.88512e-122
8.0987e-124
1.09412e-125
1.44788e-127
1.8732e-129
2.36585e-131
2.91433e-133
3.49981e-135
4.09708e-137
4.67655e-139
5.20694e-141
5.65839e-143
6.00533e-145
6.22901e-147
6.31906e-149
6.27408e-151
6.10129e-153
5.46925e-155
-5.30756e-115
6.31006e-103
-6.48926e-98
4.23087e-91
1.27723e-88
5.51989e-87
1.32382e-85
5.98078e-85
2.55695e-85
5.90773e-83
1.78888e-83
2.59553e-84
2.42552e-85
1.65308e-86
8.81026e-88
3.84141e-89
1.41451e-90
4.50465e-92
1.26393e-93
3.17209e-95
7.21174e-97
1.50178e-98
2.89322e-100
5.20509e-102
8.82411e-104
1.42225e-105
2.1986e-107
3.28712e-109
4.7889e-111
6.83933e-113
9.61342e-115
1.33229e-116
1.82008e-118
2.44724e-120
3.23143e-122
4.18079e-124
5.28964e-126
6.53549e-128
7.87818e-130
9.26158e-132
1.06178e-133
1.18735e-135
1.2957e-137
1.38057e-139
1.43722e-141
1.46283e-143
1.45674e-145
1.42036e-147
1.3569e-149
1.20086e-151
-6.64837e-110
3.08305e-98
-1.90182e-93
8.85706e-87
2.08007e-84
7.35888e-83
1.49346e-81
5.86e-81
2.25588e-81
4.94872e-79
1.37737e-79
1.85076e-80
1.61175e-81
1.02908e-82
5.16149e-84
2.12625e-85
7.42275e-87
2.24793e-88
6.01451e-90
1.44298e-91
3.1433e-93
6.28512e-95
1.16502e-96
2.02061e-98
3.3088e-100
5.16133e-102
7.7366e-104
1.12369e-105
1.59308e-107
2.21737e-109
3.04117e-111
4.116e-113
5.49455e-115
7.22179e-117
9.32398e-119
1.17977e-120
1.46016e-122
1.76524e-124
2.08273e-126
2.39729e-128
2.69191e-130
2.94958e-132
3.1551e-134
3.2966e-136
3.36667e-138
3.3629e-140
3.28783e-142
3.14844e-144
2.95508e-146
2.58154e-148
-7.28409e-105
1.44546e-93
-5.34826e-89
1.77919e-82
3.25067e-80
9.41451e-79
1.61682e-77
5.51083e-77
1.91233e-77
4.00816e-75
1.02576e-75
1.27677e-76
1.03637e-77
6.2001e-79
2.92691e-80
1.13927e-81
3.77095e-83
1.08609e-84
2.7712e-86
6.35619e-88
1.32676e-89
2.5476e-91
4.54427e-93
7.59991e-95
1.20246e-96
1.81601e-98
2.64085e-100
3.72842e-102
5.14742e-104
6.98756e-106
9.3579e-108
1.2377e-109
1.61545e-111
2.07658e-113
2.62256e-115
3.24644e-117
3.9316e-119
4.65185e-121
5.37314e-123
6.05655e-125
6.66232e-127
7.15397e-129
7.50221e-131
7.68778e-133
7.70306e-135
7.55218e-137
7.24986e-139
6.81925e-141
6.28911e-143
5.42246e-145
-6.10015e-100
6.47638e-89
-1.43731e-84
3.41546e-78
4.85483e-76
1.1511e-74
1.67287e-73
4.95391e-73
1.55136e-73
3.12952e-71
7.36593e-72
8.49452e-73
6.42775e-74
3.60346e-75
1.60122e-76
5.88953e-78
1.84841e-79
5.06324e-81
1.23208e-82
2.70187e-84
5.40463e-86
9.96705e-88
1.71115e-89
2.76018e-91
4.22112e-93
6.175e-95
8.71684e-97
1.19713e-98
1.61075e-100
2.13435e-102
2.79335e-104
3.61319e-106
4.61393e-108
5.80375e-110
7.17299e-112
8.69012e-114
1.0301e-115
1.19316e-117
1.34949e-119
1.48991e-121
1.60581e-123
1.69008e-125
1.73781e-127
1.74677e-129
1.71745e-131
1.6529e-133
1.5582e-135
1.43982e-137
1.30495e-139
1.1103e-141
-1.37747e-95
2.75994e-84
-3.67384e-80
6.23608e-74
6.89642e-72
1.33877e-70
1.6464e-69
4.23684e-69
1.19877e-69
2.34753e-67
5.08228e-68
5.43065e-69
3.83103e-70
2.01268e-71
8.41866e-73
2.92612e-74
8.70792e-76
2.26867e-77
5.26504e-79
1.10393e-80
2.11634e-82
3.7489e-84
6.19587e-86
9.64242e-88
1.4259e-89
2.02168e-91
2.77236e-93
3.70692e-95
4.86562e-97
6.29953e-99
8.06458e-101
1.02104e-102
1.27655e-104
1.57222e-106
1.90251e-108
2.25665e-110
2.61905e-112
2.97061e-114
3.29064e-116
3.55917e-118
3.75922e-120
3.87858e-122
3.91102e-124
3.85662e-126
3.72141e-128
3.5163e-130
3.25566e-132
2.9557e-134
2.63293e-136
2.2104e-138
9.18496e-90
1.1125e-79
-8.88198e-76
1.07695e-69
9.26642e-68
1.47289e-66
1.53277e-65
3.42846e-65
8.77497e-66
1.6852e-63
3.3556e-64
3.3222e-65
2.18483e-66
1.07563e-67
4.235e-69
1.39095e-70
3.9249e-72
9.72537e-74
2.15258e-75
4.31551e-77
7.92955e-79
1.34943e-80
2.14748e-82
3.2256e-84
4.61487e-86
6.34611e-88
8.46169e-90
1.10272e-91
1.41362e-93
1.79035e-95
2.24439e-97
2.78396e-99
3.41047e-101
4.11529e-103
4.87815e-105
5.66733e-107
6.44213e-109
7.15697e-111
7.76658e-113
8.23126e-115
8.52136e-117
8.62029e-119
8.52572e-121
8.249e-123
7.813e-125
7.24895e-127
6.59278e-129
5.88151e-131
5.15016e-133
4.26576e-135
2.81815e-84
4.21377e-75
-2.01773e-71
1.74762e-65
1.17e-63
1.52283e-62
1.34103e-61
2.60782e-61
6.04524e-62
1.1525e-59
2.1101e-60
1.93521e-61
1.18625e-62
5.47203e-64
2.02776e-65
6.29284e-67
1.68355e-68
3.96738e-70
8.37476e-72
1.60541e-73
2.82757e-75
4.62353e-77
7.08708e-79
1.0279e-80
1.42379e-82
1.90072e-84
2.46706e-86
3.13765e-88
3.93393e-90
4.8805e-92
5.99856e-94
7.29751e-96
8.76698e-98
1.03715e-99
1.20493e-101
1.37167e-103
1.52762e-105
1.66277e-107
1.76808e-109
1.83653e-111
1.86388e-113
1.84903e-115
1.79399e-117
1.70338e-119
1.58385e-121
1.44317e-123
1.28949e-125
1.13058e-127
9.73308e-130
7.95306e-132
5.78283e-79
1.48795e-70
-4.27315e-67
2.64385e-61
1.37727e-59
1.46801e-58
1.09393e-57
1.84996e-57
3.88898e-58
7.46961e-56
1.25672e-56
1.06718e-57
6.09531e-59
2.63382e-60
9.18422e-62
2.6926e-63
6.82905e-65
1.53037e-66
3.08076e-68
5.64699e-70
9.53458e-72
1.49838e-73
2.21312e-75
3.10147e-77
4.16292e-79
5.40158e-81
6.8349e-83
8.49762e-85
1.0438e-86
1.27054e-88
1.53324e-90
1.83148e-92
2.15972e-94
2.50663e-96
2.85569e-98
3.18673e-100
3.4783e-102
3.7104e-104
3.86689e-106
3.93738e-108
3.91822e-110
3.8125e-112
3.62932e-114
3.38232e-116
3.08796e-118
2.7637e-120
2.42641e-122
2.09113e-124
1.77017e-126
1.42686e-128
9.88945e-74
4.85141e-66
-8.35568e-63
3.693e-57
1.49703e-55
1.30686e-54
8.24063e-54
1.21223e-53
2.31395e-54
4.55966e-52
7.04186e-53
5.53267e-54
2.94283e-55
1.19067e-56
3.90564e-58
1.08146e-59
2.59967e-61
5.53926e-63
1.06334e-64
1.86374e-66
3.01709e-68
4.55832e-70
6.49116e-72
8.79714e-74
1.14563e-75
1.44715e-77
1.78859e-79
2.17836e-81
2.62696e-83
3.14331e-85
3.73026e-87
4.38069e-89
5.07536e-91
5.78323e-93
6.46423e-95
7.07406e-97
7.56985e-99
7.91577e-101
8.08736e-103
8.0741e-105
7.8799e-107
7.52171e-109
7.02669e-111
6.42853e-113
5.76365e-115
5.06763e-117
4.37247e-119
3.70464e-121
3.08416e-123
2.45224e-125
1.49436e-68
1.44311e-61
-1.49057e-58
4.70613e-53
1.48462e-51
1.06158e-50
5.66427e-50
7.25025e-50
1.25829e-50
2.60216e-48
3.68272e-49
2.67394e-50
1.32338e-51
5.01035e-53
1.54528e-54
4.0397e-56
9.20141e-58
1.86379e-59
3.41142e-61
5.71761e-63
8.87626e-65
1.28988e-66
1.77237e-68
2.32579e-70
2.94373e-72
3.62802e-74
4.39095e-76
5.25282e-78
6.23492e-80
7.34998e-82
8.59281e-84
9.93395e-86
1.13185e-87
1.26706e-89
1.39022e-91
1.4925e-93
1.56624e-95
1.60593e-97
1.60883e-99
1.57517e-101
1.50794e-103
1.41233e-105
1.295e-107
1.16327e-109
1.0244e-111
8.84999e-114
7.50561e-116
6.25291e-118
5.12036e-120
4.01583e-122
2.0382e-63
3.85688e-57
-2.38894e-54
5.38819e-49
1.32291e-47
7.74921e-47
3.49866e-46
3.89797e-46
6.15875e-47
1.37597e-44
1.77987e-45
1.19215e-46
5.48305e-48
1.94075e-49
5.624e-51
1.38735e-52
2.99308e-54
5.7618e-56
1.00546e-57
1.61158e-59
2.40015e-61
3.35726e-63
4.45672e-65
5.67322e-67
6.99622e-69
8.43858e-71
1.00354e-72
1.18323e-74
1.38663e-76
1.61447e-78
1.86292e-80
2.12296e-82
2.38092e-84
2.62012e-86
2.82315e-88
2.9743e-90
3.06173e-92
3.07889e-94
3.02508e-96
2.90518e-98
2.72863e-100
2.50804e-102
2.25759e-104
1.99152e-106
1.72291e-108
1.46277e-110
1.21961e-112
9.99239e-115
8.04993e-117
6.22745e-119
2.52765e-58
9.07651e-53
-3.37119e-50
5.43198e-45
1.03807e-43
4.982e-43
1.9032e-42
1.8463e-42
2.6592e-43
6.66737e-41
7.85112e-42
4.83825e-43
2.06417e-44
6.82165e-46
1.85562e-47
4.31637e-49
8.81575e-51
1.61236e-52
2.68227e-54
4.11238e-56
5.87939e-58
7.92573e-60
1.01849e-61
1.26126e-63
1.5211e-65
1.80341e-67
2.11707e-69
2.47089e-71
2.86928e-73
3.30862e-75
3.77528e-77
4.24609e-79
4.69096e-81
5.07716e-83
5.37407e-85
5.55753e-87
5.61298e-89
5.53687e-91
5.33641e-93
5.02786e-95
4.63394e-97
4.18082e-99
3.69517e-101
3.20175e-103
2.72165e-105
2.27129e-107
1.86206e-109
1.50064e-111
1.18955e-113
9.07705e-116
2.85029e-53
1.82944e-48
-4.07427e-46
4.69006e-41
6.97709e-40
2.74394e-39
8.86902e-39
7.49444e-39
9.8524e-40
2.91944e-37
3.11008e-38
1.75638e-39
6.93259e-41
2.13521e-42
5.44496e-44
1.19318e-45
2.30554e-47
4.00488e-49
6.35154e-51
9.31973e-53
1.28064e-54
1.66737e-56
2.08102e-58
2.51854e-60
2.98734e-62
3.50332e-64
4.08479e-66
4.74437e-68
5.48142e-70
6.27731e-72
7.09506e-74
7.88336e-76
8.5839e-78
9.14016e-80
9.50577e-82
9.65069e-84
9.56452e-86
9.25646e-88
8.75274e-90
8.09197e-92
7.31982e-94
6.48361e-96
5.62778e-98
4.79059e-100
4.0021e-102
3.2835e-104
2.64742e-106
2.09904e-108
1.63753e-110
1.23255e-112
2.90839e-48
3.03334e-44
-4.05023e-42
3.33108e-37
3.85807e-36
1.24356e-35
3.4007e-35
2.50412e-35
3.00862e-36
1.13439e-33
1.08242e-34
5.56814e-36
2.02546e-37
5.79884e-39
1.38378e-40
2.85311e-42
5.21171e-44
8.59591e-46
1.30012e-47
1.828e-49
2.42017e-51
3.0556e-53
3.72575e-55
4.44042e-57
5.22617e-59
6.11705e-61
7.14073e-63
8.30443e-65
9.58522e-67
1.09277e-68
1.22493e-70
1.34524e-72
1.44392e-74
1.51264e-76
1.5457e-78
1.54065e-80
1.49842e-82
1.42291e-84
1.32024e-86
1.19789e-88
1.06372e-90
9.25201e-93
7.88852e-95
6.59839e-97
5.41854e-99
4.3715e-101
3.46711e-103
2.70499e-105
2.07721e-107
1.54227e-109
2.66079e-43
3.88082e-40
-3.10636e-38
1.82544e-33
1.64632e-32
4.35008e-32
1.00639e-31
6.46053e-32
7.10292e-33
3.81688e-30
3.2075e-31
1.48867e-32
4.96157e-34
1.31548e-35
2.93024e-37
5.67554e-39
9.79285e-41
1.53372e-42
2.21505e-44
2.99311e-46
3.83806e-48
4.73701e-50
5.70497e-52
6.78443e-54
8.0327e-56
9.50048e-58
1.12089e-59
1.31325e-61
1.51929e-63
1.72662e-65
1.91999e-67
2.0837e-69
2.20397e-71
2.27089e-73
2.27959e-75
2.23054e-77
2.12898e-79
1.98388e-81
1.8065e-83
1.60892e-85
1.40281e-87
1.19839e-89
1.00392e-91
8.25337e-94
6.66376e-96
5.28765e-98
4.12614e-100
3.16833e-102
2.39539e-104
1.75443e-106
2.15224e-38
3.40761e-36
-1.63468e-34
6.86449e-30
4.82178e-29
1.04465e-28
2.04448e-28
1.14473e-28
1.15308e-29
1.07417e-26
7.70441e-28
3.17473e-29
9.60687e-31
2.34581e-32
4.86095e-34
8.82754e-36
1.43806e-37
2.14155e-39
2.96511e-41
3.8802e-43
4.87917e-45
5.99067e-47
7.28074e-49
8.83683e-51
1.07388e-52
1.30262e-54
1.56726e-56
1.85748e-58
2.15607e-60
2.44126e-62
2.69011e-64
2.88193e-66
3.00126e-68
3.0397e-70
2.99649e-72
2.87788e-74
2.69568e-76
2.46526e-78
2.20348e-80
1.92681e-82
1.64993e-84
1.38477e-86
1.14007e-88
9.21449e-91
7.31667e-93
5.71159e-95
4.38612e-97
3.3155e-99
2.46837e-101
1.78349e-103
1.50844e-33
1.54209e-32
-4.42926e-31
1.32954e-26
7.27856e-26
1.29366e-25
2.14226e-25
1.04614e-25
9.66293e-27
2.39828e-23
1.37141e-24
4.87042e-26
1.31799e-27
2.93905e-29
5.63941e-31
9.58624e-33
1.47702e-34
2.10549e-36
2.83376e-38
3.67607e-40
4.68721e-42
5.96348e-44
7.62431e-46
9.77826e-48
1.24833e-49
1.57143e-51
1.93483e-53
2.3172e-55
2.69095e-57
3.02641e-59
3.29621e-61
3.47917e-63
3.56279e-65
3.54423e-67
3.42973e-69
3.23283e-71
2.97201e-73
2.668e-75
2.34143e-77
2.0109e-79
1.69174e-81
1.39542e-83
1.12944e-85
8.97739e-88
7.01257e-90
5.3869e-92
4.07205e-94
3.03082e-96
2.22241e-98
1.58417e-100
8.89449e-29
2.53969e-26
-1.38539e-22
1.88906e-18
8.10208e-18
1.19012e-17
1.66594e-17
7.26274e-18
6.91997e-19
3.88256e-20
1.44279e-21
4.13938e-23
9.7442e-25
1.95867e-26
3.46478e-28
5.53882e-30
8.22033e-32
1.16625e-33
1.62904e-35
2.29188e-37
3.27429e-39
4.71554e-41
6.74112e-43
9.42271e-45
1.2744e-46
1.65835e-48
2.07197e-50
2.48589e-52
2.86771e-54
3.18679e-56
3.41848e-58
3.54712e-60
3.5673e-62
3.48358e-64
3.30878e-66
3.06151e-68
2.76335e-70
2.43625e-72
2.10038e-74
1.77264e-76
1.46592e-78
1.18894e-80
9.46504e-83
7.40175e-85
5.68991e-87
4.30255e-89
3.20237e-91
2.34745e-93
1.69569e-95
1.19251e-97
-3.82847e-10
3.00201e-08
-1.44249e-06
1.80951e-05
6.85856e-05
8.2462e-05
0.000100044
3.92161e-05
7.19858e-07
1.78621e-18
4.42551e-24
5.11887e-24
1.634e-24
1.05741e-25
5.29389e-27
2.16639e-28
7.28207e-30
2.05087e-31
4.96023e-33
1.05383e-34
2.00416e-36
3.46452e-38
5.51181e-40
8.15238e-42
1.13039e-43
1.47957e-45
1.83873e-47
2.18024e-49
2.47685e-51
2.7055e-53
2.85021e-55
2.90359e-57
2.86697e-59
2.74924e-61
2.56492e-63
2.33179e-65
2.06855e-67
1.79288e-69
1.51999e-71
1.26177e-73
1.02657e-75
8.19298e-78
6.41942e-80
4.94175e-82
3.74027e-84
2.78518e-86
2.04176e-88
1.47439e-90
1.04937e-92
7.28074e-95
-1.9421e-06
0.000112719
-0.00483429
0.102579
0.239716
0.262533
0.267968
0.160464
0.0232163
-2.66598e-18
-1.432e-19
-5.52308e-21
1.70644e-21
8.32238e-23
4.21618e-24
1.78758e-25
6.06758e-27
1.69233e-28
4.01119e-30
8.31007e-32
1.53818e-33
2.58738e-35
4.00825e-37
5.77949e-39
7.82304e-41
1.00101e-42
1.21782e-44
1.4154e-46
1.57788e-48
1.69294e-50
1.75324e-52
1.75693e-54
1.70732e-56
1.61192e-58
1.48102e-60
1.32621e-62
1.15898e-64
9.89638e-67
8.26593e-69
6.76026e-71
5.41874e-73
4.26066e-75
3.28892e-77
2.49436e-79
1.85999e-81
1.36459e-83
9.85631e-86
7.01311e-88
4.91862e-90
3.36662e-92
0.000138485
-0.00494914
0.0968115
0.334974
0.603471
0.755023
0.76782
0.671492
0.320882
0.0315004
1.81942e-06
6.65037e-14
7.27366e-18
1.68445e-20
1.52545e-21
7.64069e-23
2.7084e-24
7.56996e-26
1.77192e-27
3.60844e-29
6.56198e-31
1.08577e-32
1.65772e-34
2.36055e-36
3.1615e-38
4.00905e-40
4.83946e-42
5.58558e-44
6.18642e-46
6.59544e-48
6.7861e-50
6.75391e-52
6.51503e-54
6.10206e-56
5.55815e-58
4.93072e-60
4.26577e-62
3.60351e-64
2.97573e-66
2.4047e-68
1.90354e-70
1.47742e-72
1.1253e-74
8.41801e-77
6.18971e-79
4.47681e-81
3.18717e-83
2.23494e-85
1.54461e-87
1.04272e-89
0.000305457
-0.0104462
0.196654
0.571465
0.854154
0.99352
0.99961
1.01593
0.702315
0.196714
0.00585839
1.63682e-10
1.18312e-14
8.20471e-19
3.13787e-20
2.10425e-21
9.62993e-23
3.37927e-24
9.69155e-26
2.36496e-27
5.04846e-29
9.62024e-31
1.66186e-32
2.63417e-34
3.86871e-36
5.30692e-38
6.84512e-40
8.34921e-42
9.67711e-44
1.07031e-45
1.1338e-47
1.15405e-49
1.13194e-51
1.07261e-53
9.84179e-56
8.76224e-58
7.58361e-60
6.39134e-62
5.25332e-64
4.21711e-66
3.31055e-68
2.54452e-70
1.91694e-72
1.41695e-74
1.02861e-76
7.33976e-79
5.15227e-81
3.56068e-83
2.42434e-85
1.61313e-87
0.000330436
-0.010726
0.189081
0.675139
0.982703
1
0.999713
1.01072
0.810949
0.32492
0.0173339
6.68771e-10
5.06214e-14
3.83018e-18
2.52398e-22
3.25972e-23
2.24872e-24
1.06868e-25
3.90818e-27
1.17007e-28
2.98351e-30
6.65889e-32
1.32722e-33
2.39881e-35
3.9791e-37
6.11681e-39
8.78385e-41
1.18621e-42
1.51501e-44
1.83887e-46
2.13007e-48
2.36339e-50
2.51989e-52
2.58926e-54
2.57055e-56
2.47132e-58
2.30556e-60
2.09114e-62
1.84707e-64
1.5913e-66
1.33906e-68
1.10202e-70
8.88073e-73
7.01537e-75
5.43803e-77
4.14031e-79
3.0989e-81
2.28204e-83
1.65468e-85
1.1721e-87
0.000173094
-0.00524828
0.0819534
0.534952
0.95545
1
0.999691
1.01111
0.812972
0.327782
0.0182989
7.37033e-10
5.8384e-14
4.62439e-18
3.1686e-22
4.26871e-23
3.07802e-24
1.5298e-25
5.85205e-27
1.8329e-28
4.88958e-30
1.14178e-31
2.38108e-33
4.50278e-35
7.81502e-37
1.257e-38
1.88871e-40
2.66878e-42
3.56648e-44
4.5295e-46
5.48995e-48
6.37364e-50
7.1107e-52
7.64514e-54
7.94174e-56
7.98909e-58
7.79877e-60
7.40138e-62
6.84059e-64
6.16653e-66
5.4296e-68
4.67562e-70
3.94253e-72
3.25878e-74
2.64315e-76
2.10566e-78
1.64906e-80
1.27064e-82
9.6401e-85
7.1473e-87
-7.59378e-06
0.000347317
-0.0116035
0.185292
0.657922
0.965425
1.00556
0.907435
0.677656
0.303516
0.0196106
8.66613e-10
7.17231e-14
5.93592e-18
4.22336e-22
5.92739e-23
4.46192e-24
2.31631e-25
9.25705e-27
3.02933e-28
8.4439e-30
2.06028e-31
4.48944e-33
8.87102e-35
1.60877e-36
2.70374e-38
4.24473e-40
6.26683e-42
8.7501e-44
1.16105e-45
1.47023e-47
1.78322e-49
2.07835e-51
2.33434e-53
2.53309e-55
2.66177e-57
2.71406e-59
2.69033e-61
2.59696e-63
2.44494e-65
2.24816e-67
2.02165e-69
1.78001e-71
1.53622e-73
1.3009e-75
1.08193e-77
8.84514e-80
7.11399e-82
5.63321e-84
4.36025e-86
1.36215e-07
-7.99609e-06
0.000382028
-0.0122494
0.189227
0.557219
0.732204
0.647877
0.410458
0.15175
0.00857175
3.18497e-10
3.24985e-14
2.81126e-18
2.07546e-22
3.03213e-23
2.38054e-24
1.28962e-25
5.37959e-27
1.83773e-28
5.34763e-30
1.36221e-31
3.09894e-33
6.39298e-35
1.21041e-36
2.1238e-38
3.48101e-40
5.36545e-42
7.82113e-44
1.08343e-45
1.43226e-47
1.81352e-49
2.20653e-51
2.58714e-53
2.93064e-55
3.21462e-57
3.42149e-59
3.5402e-61
3.567e-63
3.50516e-65
3.36401e-67
3.15728e-69
2.90129e-71
2.61317e-73
2.30934e-75
2.00427e-77
1.70984e-79
1.43496e-81
1.1856e-83
9.57804e-86
-1.09526e-09
7.66451e-08
-4.61036e-06
0.000211049
-0.00649113
0.097029