/*--------------------------------*- C++ -*----------------------------------*\
| =========                 |                                                 |
| \\      /  F ield         | OpenFOAM: The Open Source CFD Toolbox           |
|  \\    /   O peration     | Version:  v2006                                 |
|   \\  /    A nd           | Website:  www.openfoam.com                      |
|    \\/     M anipulation  |                                                 |
\*---------------------------------------------------------------------------*/
FoamFile
{
    version     2.0;
    format      ascii;
    class       surfaceScalarField;
    location    "8.7";
    object      alphaPhi0.water;
}
// * * * * * * * * * * * * * * * * * * * * * * * * * * * * * * * * * * * * * //

dimensions      [0 3 -1 0 0 0 0];
oriented        oriented;


internalField   nonuniform List<scalar> 
99450
(
2.65861e-05
-2.65861e-05
6.57664e-05
-3.91803e-05
0.000102034
-3.62671e-05
0.000136119
-3.40854e-05
0.00016937
-3.32512e-05
0.000202383
-3.30125e-05
0.000234988
-3.26053e-05
0.000267169
-3.21809e-05
0.000298808
-3.16393e-05
0.000329877
-3.10685e-05
0.000360322
-3.04453e-05
0.000390093
-2.97712e-05
0.00041914
-2.90464e-05
0.000447408
-2.82687e-05
0.000474847
-2.74384e-05
0.000501398
-2.65516e-05
0.000527011
-2.56126e-05
0.000551632
-2.46211e-05
0.000575202
-2.35695e-05
0.000597669
-2.24671e-05
0.000618983
-2.13145e-05
0.000639108
-2.01253e-05
0.000657988
-1.88792e-05
0.000675572
-1.75841e-05
0.000691826
-1.62546e-05
0.000706713
-1.48871e-05
0.000720196
-1.34829e-05
0.000732236
-1.204e-05
0.000742805
-1.05686e-05
0.000751868
-9.06352e-06
0.000759399
-7.53067e-06
0.000765376
-5.97738e-06
0.000769785
-4.40899e-06
0.000772625
-2.83924e-06
0.000773895
-1.27062e-06
0.000773628
2.67792e-07
0.000771814
1.81353e-06
0.000768518
3.29629e-06
0.000763839
4.67841e-06
0.000757849
5.99051e-06
0.000750598
7.25032e-06
0.000742112
8.48651e-06
0.000732377
9.73473e-06
0.000721378
1.09989e-05
0.000709113
1.22658e-05
0.000695643
1.34695e-05
0.00068112
1.45229e-05
0.000665753
1.53677e-05
0.000649763
1.59896e-05
0.000633337
1.64254e-05
0.000616579
1.67586e-05
0.0005995
1.70789e-05
0.000582059
1.74413e-05
0.000564204
1.78552e-05
0.000545903
1.83005e-05
0.000527145
1.87576e-05
0.000507939
1.92062e-05
0.0004883
1.96394e-05
0.000468248
2.00521e-05
0.000447802
2.04462e-05
0.00042698
2.08221e-05
0.000405804
2.11752e-05
0.000384299
2.15051e-05
0.000362488
2.18114e-05
0.000340393
2.20946e-05
0.000318043
2.23507e-05
0.000295461
2.25814e-05
0.000272673
2.27876e-05
0.000249704
2.29697e-05
0.000226578
2.31258e-05
0.000203325
2.32533e-05
0.000179972
2.33531e-05
0.000156546
2.3426e-05
0.000133072
2.34735e-05
0.000109586
2.34862e-05
8.61111e-05
2.34748e-05
6.26689e-05
2.34421e-05
3.92809e-05
2.3388e-05
1.59807e-05
2.33002e-05
-7.23717e-06
2.32179e-05
-3.03668e-05
2.31296e-05
-5.3406e-05
2.30393e-05
-7.63535e-05
2.29475e-05
-9.92377e-05
2.28841e-05
-0.000122029
2.27912e-05
-0.000144742
2.27131e-05
-0.000167374
2.26319e-05
-0.000189981
2.26075e-05
-0.000212542
2.25607e-05
-0.00023508
2.25377e-05
-0.000257644
2.25639e-05
-0.000280244
2.26001e-05
-0.000302945
2.27009e-05
-0.000325808
2.28631e-05
-0.000348894
2.3086e-05
-0.000372305
2.34111e-05
-0.000396153
2.38481e-05
-0.00042066
2.45068e-05
-0.0004459
2.52405e-05
-0.000471745
2.58444e-05
-0.000497865
2.612e-05
-0.000523709
2.58441e-05
-0.000548801
2.50927e-05
-0.000572755
2.39534e-05
-0.000595242
2.2487e-05
-0.00061608
2.08383e-05
-0.000635201
1.91209e-05
-0.000652436
1.72355e-05
-0.00066776
1.53239e-05
-0.000681096
1.33352e-05
-0.000692393
1.12977e-05
-0.000701625
9.23209e-06
-0.000708781
7.1561e-06
-0.000713818
5.0369e-06
-0.000716783
2.96481e-06
-0.000717687
9.03496e-07
-0.000716557
-1.12945e-06
-0.000713512
-3.04473e-06
-0.000708624
-4.88839e-06
-0.000702042
-6.58232e-06
-0.000693856
-8.1859e-06
-0.000684181
-9.67519e-06
-0.000673095
-1.10855e-05
-0.000660658
-1.24367e-05
-0.00064693
-1.37285e-05
-0.000631962
-1.49684e-05
-0.000615788
-1.61736e-05
-0.000598463
-1.73254e-05
-0.00058001
-1.84523e-05
-0.000560469
-1.95412e-05
-0.000539884
-2.05852e-05
-0.000518278
-2.16054e-05
-0.000495683
-2.25956e-05
-0.000472112
-2.35712e-05
-0.000447619
-2.44928e-05
-0.000422259
-2.53602e-05
-0.000396046
-2.62128e-05
-0.000369054
-2.69923e-05
-0.000341304
-2.77493e-05
-0.000312859
-2.8445e-05
-0.000283723
-2.91359e-05
-0.000253919
-2.9804e-05
-0.000223517
-3.0402e-05
-0.000192481
-3.10366e-05
-0.000160956
-3.15248e-05
-0.000128558
-3.23975e-05
-9.57751e-05
-3.27833e-05
-6.17342e-05
-3.40409e-05
-2.85862e-05
-3.31481e-05
-2.85862e-05
1.9539e-05
-4.61251e-05
4.65376e-05
-6.61789e-05
7.13272e-05
-6.10568e-05
9.38767e-05
-5.6635e-05
0.000116204
-5.55789e-05
0.000138321
-5.51289e-05
0.000160497
-5.47815e-05
0.000182332
-5.40162e-05
0.000203979
-5.32858e-05
0.000225292
-5.23823e-05
0.000246288
-5.1441e-05
0.000266924
-5.04071e-05
0.000287177
-4.9299e-05
0.000307016
-4.81075e-05
0.000326413
-4.68361e-05
0.000345347
-4.54854e-05
0.000363786
-4.40517e-05
0.000381704
-4.25392e-05
0.00039909
-4.09552e-05
0.00041591
-3.92871e-05
0.000432135
-3.75397e-05
0.000447741
-3.57315e-05
0.000462707
-3.3845e-05
0.00047701
-3.18865e-05
0.000490619
-2.98644e-05
0.000503514
-2.77822e-05
0.000515682
-2.56505e-05
0.000527112
-2.34702e-05
0.000537791
-2.12469e-05
0.00054771
-1.89826e-05
0.000556855
-1.66764e-05
0.00056522
-1.43422e-05
0.000572802
-1.19909e-05
0.000579582
-9.61892e-06
0.00058556
-7.24901e-06
0.000590727
-4.89855e-06
0.000595091
-2.55126e-06
0.000598557
-1.68992e-07
0.000601132
2.10318e-06
0.000602794
4.32833e-06
0.000603522
6.52278e-06
0.000603311
8.69675e-06
0.00060219
1.0856e-05
0.000600176
1.30127e-05
0.000597281
1.51609e-05
0.000593451
1.73002e-05
0.000588569
1.94043e-05
0.000582502
2.14345e-05
0.000575124
2.33676e-05
0.00056637
2.51795e-05
0.000556248
2.68811e-05
0.000544828
2.84991e-05
0.000532219
3.00498e-05
0.000518505
3.15687e-05
0.000503767
3.30385e-05
0.000488058
3.44674e-05
0.000471411
3.58531e-05
0.000453866
3.71842e-05
0.000435465
3.84529e-05
0.000416252
3.96591e-05
0.000396274
4.07998e-05
0.00037557
4.18796e-05
0.000354186
4.28887e-05
0.000332176
4.38222e-05
0.000309593
4.46772e-05
0.000286476
4.54683e-05
0.000262884
4.61728e-05
0.000238871
4.6801e-05
0.000214487
4.73535e-05
0.00018979
4.7823e-05
0.000164831
4.8212e-05
0.000139665
4.85188e-05
0.000114347
4.8744e-05
8.89345e-05
4.88863e-05
6.34788e-05
4.89419e-05
3.80428e-05
4.89109e-05
1.26864e-05
4.87985e-05
-1.25259e-05
4.86003e-05
-3.75603e-05
4.83345e-05
-6.23241e-05
4.79817e-05
-8.67728e-05
4.75782e-05
-0.000110813
4.70796e-05
-0.000134412
4.65466e-05
-0.000157498
4.59701e-05
-0.000180047
4.53402e-05
-0.000201999
4.46652e-05
-0.00022332
4.39526e-05
-0.000243922
4.321e-05
-0.0002638
4.24378e-05
-0.000282899
4.16373e-05
-0.000301156
4.08207e-05
-0.000318539
3.99826e-05
-0.000334975
3.9137e-05
-0.0003504
3.82889e-05
-0.000364744
3.74299e-05
-0.00037791
3.65767e-05
-0.000389759
3.56969e-05
-0.000400095
3.48431e-05
-0.000408771
3.39163e-05
-0.000415794
3.28672e-05
-0.00042127
3.15964e-05
-0.000425414
2.99885e-05
-0.000428331
2.80098e-05
-0.000430059
2.56807e-05
-0.000430681
2.31089e-05
-0.000430152
2.03096e-05
-0.00042845
1.74186e-05
-0.000425709
1.44943e-05
-0.000421899
1.15145e-05
-0.000417119
8.55535e-06
-0.000411439
5.61691e-06
-0.000404936
2.7298e-06
-0.0003978
1.93689e-08
-0.000389904
-2.85883e-06
-0.000381314
-5.62488e-06
-0.000372135
-8.27572e-06
-0.000362447
-1.08174e-05
-0.000352294
-1.31978e-05
-0.000341729
-1.5453e-05
-0.000330799
-1.75127e-05
-0.000319561
-1.94234e-05
-0.000308055
-2.11812e-05
-0.000296321
-2.28195e-05
-0.00028446
-2.42984e-05
-0.000272497
-2.5691e-05
-0.000260462
-2.70033e-05
-0.000248391
-2.82451e-05
-0.000236306
-2.94101e-05
-0.000224252
-3.05063e-05
-0.00021226
-3.15335e-05
-0.000200363
-3.24819e-05
-0.000188591
-3.33774e-05
-0.000176955
-3.42322e-05
-0.000165513
-3.50124e-05
-0.000154188
-3.58181e-05
-0.000143011
-3.65368e-05
-0.000132045
-3.71788e-05
-0.000121215
-3.78231e-05
-0.00011055
-3.8414e-05
-0.00010002
-3.89749e-05
-8.96557e-05
-3.95002e-05
-7.94422e-05
-4.00175e-05
-6.93502e-05
-4.0494e-05
-5.94834e-05
-4.09034e-05
-4.97786e-05
-4.12296e-05
-4.0744e-05
-4.14321e-05
-3.19185e-05
-4.16087e-05
-2.231e-05
-4.36495e-05
-8.16827e-06
-4.72898e-05
-3.67544e-05
2.13739e-05
-6.7499e-05
5.21999e-05
-9.70048e-05
8.09776e-05
-8.98345e-05
0.000106816
-8.2473e-05
0.000131884
-8.0647e-05
0.000156932
-8.01775e-05
0.000181927
-7.97765e-05
0.000206707
-7.87956e-05
0.000231163
-7.77422e-05
0.000255265
-7.64843e-05
0.000278963
-7.51389e-05
0.000302235
-7.3679e-05
0.00032503
-7.20942e-05
0.000347315
-7.03922e-05
0.00036905
-6.85709e-05
0.000390197
-6.66324e-05
0.000410725
-6.45802e-05
0.000430598
-6.24117e-05
0.000449777
-6.01341e-05
0.000468234
-5.77447e-05
0.000485933
-5.52384e-05
0.000502835
-5.2634e-05
0.000518931
-4.99406e-05
0.000534189
-4.71446e-05
0.000548577
-4.4252e-05
0.000562077
-4.12822e-05
0.000574663
-3.82371e-05
0.000586306
-3.51135e-05
0.000596983
-3.19236e-05
0.000606687
-2.86862e-05
0.000615398
-2.53879e-05
0.000623104
-2.20478e-05
0.000629786
-1.86729e-05
0.000635433
-1.52661e-05
0.000640022
-1.18381e-05
0.000643522
-8.39795e-06
0.000645922
-4.95182e-06
0.000647292
-1.53929e-06
0.000647596
1.79955e-06
0.00064671
5.21438e-06
0.000644683
8.54934e-06
0.000641535
1.18447e-05
0.000637301
1.50906e-05
0.000632015
1.8298e-05
0.00062571
2.14659e-05
0.000618409
2.46018e-05
0.000610105
2.77078e-05
0.000600779
3.07603e-05
0.000590407
3.37398e-05
0.000578972
3.66147e-05
0.000566481
3.93726e-05
0.000552969
4.20105e-05
0.000538483
4.45356e-05
0.000523091
4.6961e-05
0.000506828
4.93016e-05
0.000489743
5.15522e-05
0.000471873
5.37236e-05
0.000453256
5.58004e-05
0.000433929
5.77803e-05
0.000413925
5.96631e-05
0.000393282
6.14428e-05
0.000372041
6.31207e-05
0.000350241
6.46891e-05
0.000327936
6.61263e-05
0.000305155
6.74585e-05
0.000281939
6.86848e-05
0.000258345
6.97667e-05
0.000234411
7.07351e-05
0.00021018
7.15845e-05
0.000185711
7.22918e-05
0.000161037
7.28857e-05
0.000136218
7.33378e-05
0.000111299
7.36629e-05
8.63138e-05
7.38716e-05
6.13366e-05
7.39191e-05
3.63993e-05
7.38482e-05
1.15422e-05
7.36556e-05
-1.31632e-05
7.33058e-05
-3.76668e-05
7.28381e-05
-6.19261e-05
7.2241e-05
-8.58721e-05
7.15242e-05
-0.000109505
7.07121e-05
-0.000132723
6.97646e-05
-0.000155459
6.87067e-05
-0.000177708
6.75886e-05
-0.000199399
6.63562e-05
-0.000220494
6.50483e-05
-0.00024092
6.36354e-05
-0.000260672
6.21902e-05
-0.000279684
6.06488e-05
-0.000297905
5.90426e-05
-0.000315323
5.73998e-05
-0.000331875
5.56892e-05
-0.000347497
5.39107e-05
-0.000362175
5.21079e-05
-0.000375822
5.02237e-05
-0.000388406
4.82815e-05
-0.000399794
4.62314e-05
-0.00040991
4.40315e-05
-0.000418716
4.1674e-05
-0.000426272
3.91519e-05
-0.000432683
3.63996e-05
-0.000438068
3.33947e-05
-0.000442567
3.01796e-05
-0.000446213
2.67545e-05
-0.000449065
2.31621e-05
-0.000451144
1.94975e-05
-0.00045244
1.57901e-05
-0.000452964
1.20387e-05
-0.000452698
8.28947e-06
-0.00045161
4.52861e-06
-0.000449594
7.14022e-07
-0.000446586
-2.98857e-06
-0.000442803
-6.64231e-06
-0.00043816
-1.02673e-05
-0.000432624
-1.38122e-05
-0.000426195
-1.72467e-05
-0.000418837
-2.05553e-05
-0.000410552
-2.37381e-05
-0.000401345
-2.67193e-05
-0.000391244
-2.95243e-05
-0.000380295
-3.21304e-05
-0.000368588
-3.45265e-05
-0.000356126
-3.67606e-05
-0.000342995
-3.88223e-05
-0.000329268
-4.07298e-05
-0.000315035
-4.2478e-05
-0.000300413
-4.40325e-05
-0.000285471
-4.54487e-05
-0.000270288
-4.67157e-05
-0.000254925
-4.78452e-05
-0.000239469
-4.88337e-05
-0.000224023
-4.96783e-05
-0.000208637
-5.03978e-05
-0.000193452
-5.10036e-05
-0.000178493
-5.14955e-05
-0.000163755
-5.19172e-05
-0.000149345
-5.22329e-05
-0.00013528
-5.24786e-05
-0.000121594
-5.26616e-05
-0.000108279
-5.28148e-05
-9.5376e-05
-5.29204e-05
-8.28677e-05
-5.30024e-05
-7.07661e-05
-5.3005e-05
-5.91367e-05
-5.2859e-05
-4.82788e-05
-5.229e-05
-3.75248e-05
-5.23627e-05
-2.52389e-05
-5.59353e-05
-8.00785e-06
-6.45209e-05
-4.47623e-05
2.30482e-05
-9.05473e-05
5.70166e-05
-0.000130973
8.88096e-05
-0.000121628
0.000117667
-0.000111331
0.000145505
-0.000108484
0.00017321
-0.000107883
0.000200688
-0.000107255
0.000227889
-0.000105996
0.000254609
-0.000104462
0.000280847
-0.000102722
0.000306537
-0.00010083
0.000331656
-9.8797e-05
0.000356149
-9.65877e-05
0.000379971
-9.42145e-05
0.00040309
-9.169e-05
0.000425467
-8.90084e-05
0.000447056
-8.61696e-05
0.00046783
-8.31861e-05
0.000487757
-8.00607e-05
0.000506804
-7.67914e-05
0.000524951
-7.33861e-05
0.000542168
-6.98509e-05
0.00055842
-6.61923e-05
0.000573695
-6.24192e-05
0.000587982
-5.85392e-05
0.000601264
-5.45649e-05
0.000613523
-5.04956e-05
0.000624745
-4.63354e-05
0.000634919
-4.20978e-05
0.000644025
-3.77922e-05
0.00065206
-3.34229e-05
0.000659018
-2.90057e-05
0.000664888
-2.45426e-05
0.000669668
-2.00466e-05
0.000673358
-1.55276e-05
0.000675963
-1.10035e-05
0.000677494
-6.48268e-06
0.000677918
-1.96313e-06
0.000677115
2.6024e-06
0.000675284
7.04576e-06
0.000672358
1.14754e-05
0.000668336
1.58664e-05
0.000663216
2.02104e-05
0.000657006
2.45082e-05
0.000649719
2.87531e-05
0.000641389
3.29315e-05
0.00063206
3.70371e-05
0.000621769
4.1051e-05
0.000610536
4.49726e-05
0.000598379
4.87719e-05
0.000585296
5.24556e-05
0.000571298
5.60091e-05
0.000556396
5.94373e-05
0.000540615
6.27415e-05
0.000523981
6.59362e-05
0.000506547
6.89861e-05
0.000488333
7.1937e-05
0.000469399
7.4735e-05
0.000449772
7.74071e-05
0.000429493
7.99421e-05
0.0004086
8.23359e-05
0.000387135
8.45852e-05
0.000365133
8.6692e-05
0.000342632
8.86271e-05
0.000319682
9.04084e-05
0.000296334
9.2033e-05
0.000272604
9.34961e-05
0.000248559
9.47802e-05
0.000224225
9.59184e-05
0.000199665
9.68525e-05
0.000174902
9.76483e-05
0.000150002
9.8238e-05
0.000124992
9.86725e-05
9.99368e-05
9.89271e-05
7.4855e-05
9.9001e-05
4.97977e-05
9.89054e-05
2.48208e-05
9.86325e-05
-4.95938e-08
9.81761e-05
-2.47661e-05
9.75547e-05
-4.92903e-05
9.67652e-05
-7.35783e-05
9.58123e-05
-9.75575e-05
9.46912e-05
-0.000121206
9.34127e-05
-0.000144517
9.20178e-05
-0.000167392
9.04638e-05
-0.000189795
8.87598e-05
-0.00021168
8.69323e-05
-0.000233056
8.50117e-05
-0.000253807
8.29414e-05
-0.000273927
8.07683e-05
-0.000293348
7.84642e-05
-0.000312026
7.60774e-05
-0.000329944
7.36071e-05
-0.000347014
7.09809e-05
-0.000363198
6.82921e-05
-0.00037844
6.54657e-05
-0.000392737
6.25788e-05
-0.000406038
5.95322e-05
-0.000418371
5.63647e-05
-0.000429746
5.3049e-05
-0.000440134
4.95398e-05
-0.000449579
4.58438e-05
-0.000458155
4.19715e-05
-0.000465872
3.78964e-05
-0.000472773
3.36551e-05
-0.000478874
2.92634e-05
-0.000484131
2.47549e-05
-0.000488505
2.0164e-05
-0.000491983
1.55162e-05
-0.000494537
1.08434e-05
-0.00049616
6.15232e-06
-0.000496978
1.53217e-06
-0.000496918
-3.04855e-06
-0.000495855
-7.70543e-06
-0.000493884
-1.22386e-05
-0.000491005
-1.66913e-05
-0.000487195
-2.10566e-05
-0.000482448
-2.53022e-05
-0.000476825
-2.93612e-05
-0.000470252
-3.32926e-05
-0.000462709
-3.70669e-05
-0.000454194
-4.06453e-05
-0.000444717
-4.40036e-05
-0.000434287
-4.719e-05
-0.000422944
-5.01659e-05
-0.000410752
-5.29215e-05
-0.000397771
-5.54591e-05
-0.000384007
-5.77966e-05
-0.000369458
-5.9998e-05
-0.000354248
-6.19252e-05
-0.000338428
-6.36654e-05
-0.000322067
-6.51944e-05
-0.000305254
-6.64916e-05
-0.000288048
-6.76039e-05
-0.000270525
-6.85263e-05
-0.000252716
-6.93052e-05
-0.000234743
-6.98893e-05
-0.000216642
-7.03339e-05
-0.000198487
-7.06338e-05
-0.000180325
-7.0824e-05
-0.000162204
-7.09356e-05
-0.000144153
-7.09715e-05
-0.00012622
-7.09357e-05
-0.000108425
-7.07999e-05
-9.09101e-05
-7.03736e-05
-7.37961e-05
-6.9404e-05
-5.63742e-05
-6.97846e-05
-3.64025e-05
-7.5907e-05
-1.30503e-05
-8.7873e-05
-5.78126e-05
2.36408e-05
-0.000114188
5.86453e-05
-0.000165978
9.13745e-05
-0.000154357
0.000121222
-0.000141178
0.000150091
-0.000137354
0.000178663
-0.000136454
0.000206973
-0.000135565
0.000234885
-0.000133908
0.000262292
-0.000131869
0.000289151
-0.00012958
0.000315417
-0.000127096
0.000341036
-0.000124416
0.000365968
-0.00012152
0.00039018
-0.000118426
0.000413623
-0.000115133
0.000436261
-0.000111646
0.000458067
-0.000107977
0.000479006
-0.000104124
0.000499049
-0.000100104
0.000518166
-9.59087e-05
0.000536344
-9.15638e-05
0.000553555
-8.70624e-05
0.000569787
-8.24238e-05
0.000585024
-7.76565e-05
0.000599244
-7.27594e-05
0.000612432
-6.77523e-05
0.000624566
-6.26296e-05
0.000635641
-5.74109e-05
0.000645654
-5.2111e-05
0.000654583
-4.6721e-05
0.000662436
-4.12756e-05
0.000669191
-3.57607e-05
0.000674864
-3.02162e-05
0.000679446
-2.46287e-05
0.000682934
-1.90149e-05
0.000685315
-1.3385e-05
0.00068659
-7.75726e-06
0.000686766
-2.13911e-06
0.000685961
3.40711e-06
0.000684019
8.98786e-06
0.000680985
1.4509e-05
0.000676886
1.99659e-05
0.000671726
2.537e-05
0.000665523
3.07115e-05
0.000658288
3.59878e-05
0.000650042
4.11777e-05
0.000640797
4.6282e-05
0.000630571
5.12776e-05
0.00061937
5.61733e-05
0.000607218
6.09234e-05
0.000594119
6.55551e-05
0.00058009
7.00375e-05
0.000565158
7.43699e-05
0.000549346
7.85533e-05
0.000532694
8.2588e-05
0.00051522
8.646e-05
0.000496979
9.01788e-05
0.000477984
9.37296e-05
0.000458284
9.7107e-05
0.000437914
0.000100312
0.000416915
0.000103335
0.000395327
0.000106173
0.000373191
0.000108828
0.000350538
0.00011128
0.00032742
0.000113526
0.000303877
0.000115576
0.000279934
0.000117439
0.000255664
0.00011905
0.000231095
0.000120488
0.000206268
0.000121679
0.000181229
0.000122688
0.000156027
0.00012344
0.000130689
0.000124011
0.000105289
0.000124327
7.9853e-05
0.000124437
5.44065e-05
0.000124352
2.90357e-05
0.000124003
3.75638e-06
0.000123455
-2.13852e-05
0.000122696
-4.63603e-05
0.00012174
-7.10914e-05
0.000120543
-9.55562e-05
0.000119156
-0.000119718
0.000117574
-0.000143519
0.000115819
-0.000166902
0.000113847
-0.000189837
0.000111694
-0.00021228
0.000109375
-0.00023417
0.000106901
-0.000255457
0.000104229
-0.000276115
0.000101426
-0.000296102
9.84514e-05
-0.000315357
9.53325e-05
-0.00033381
9.20597e-05
-0.000351493
8.86643e-05
-0.000368312
8.51106e-05
-0.00038427
8.14243e-05
-0.000399243
7.7552e-05
-0.000413281
7.357e-05
-0.000426317
6.94003e-05
-0.000438341
6.5073e-05
-0.000449379
6.05777e-05
-0.00045944
5.59048e-05
-0.000468527
5.10587e-05
-0.000476655
4.60243e-05
-0.000483841
4.08418e-05
-0.000490139
3.55614e-05
-0.000495525
3.01406e-05
-0.000500048
2.46866e-05
-0.000503711
1.91794e-05
-0.000506525
1.36578e-05
-0.00050847
8.09659e-06
-0.000509503
2.56522e-06
-0.00050955
-3.00154e-06
-0.000508835
-8.42055e-06
-0.000507286
-1.3787e-05
-0.000504886
-1.90913e-05
-0.000501676
-2.42672e-05
-0.000497644
-2.93335e-05
-0.000492759
-3.42463e-05
-0.000487054
-3.89978e-05
-0.000480548
-4.35727e-05
-0.000473183
-4.80102e-05
-0.000464957
-5.22297e-05
-0.000455947
-5.62005e-05
-0.000446115
-5.99977e-05
-0.000435444
-6.35926e-05
-0.000423945
-6.69581e-05
-0.000411631
-7.01098e-05
-0.000398623
-7.30064e-05
-0.000384834
-7.5714e-05
-0.000370292
-7.82082e-05
-0.000355037
-8.04492e-05
-0.000339096
-8.24321e-05
-0.000322489
-8.42113e-05
-0.000305261
-8.57544e-05
-0.000287503
-8.70629e-05
-0.000269227
-8.81656e-05
-0.000250452
-8.91083e-05
-0.000231239
-8.98474e-05
-0.000211646
-9.04164e-05
-0.000191707
-9.08745e-05
-0.000171484
-9.11949e-05
-0.000150996
-9.14238e-05
-0.000130302
-9.14938e-05
-0.000109554
-9.11211e-05
-8.87472e-05
-9.02113e-05
-6.71672e-05
-9.13645e-05
-4.30408e-05
-0.000100033
-1.65956e-05
-0.000114318
-7.44083e-05
2.40932e-05
-0.000138281
5.94996e-05
-0.000201384
9.25844e-05
-0.000187442
0.000122757
-0.000171351
0.000151983
-0.000166579
0.000180887
-0.000165359
0.000209542
-0.000164219
0.000237761
-0.000162127
0.000265472
-0.00015958
0.000292627
-0.000156736
0.000319173
-0.000153642
0.000345072
-0.000150315
0.000370276
-0.000146724
0.000394751
-0.000142901
0.000418452
-0.000138834
0.000441356
-0.00013455
0.000463415
-0.000130035
0.000484608
-0.000125317
0.000504901
-0.000120398
0.000524276
-0.000115283
0.000542703
-0.000109991
0.000560165
-0.000104524
0.000576637
-9.88961e-05
0.000592098
-9.31169e-05
0.000606539
-8.72007e-05
0.000619935
-8.11482e-05
0.000632277
-7.49723e-05
0.000643555
-6.86886e-05
0.000653747
-6.23025e-05
0.000662865
-5.58391e-05
0.000670884
-4.92945e-05
0.000677815
-4.26926e-05
0.000683625
-3.60257e-05
0.000688331
-2.93346e-05
0.000691932
-2.26159e-05
0.000694431
-1.5884e-05
0.000695819
-9.14558e-06
0.000696108
-2.42808e-06
0.000695211
4.30426e-06
0.000693226
1.09726e-05
0.000690146
1.7589e-05
0.000685963
2.41495e-05
0.000680695
3.06375e-05
0.000674351
3.70562e-05
0.000666954
4.33848e-05
0.000658513
4.96182e-05
0.000649054
5.57408e-05
0.000638581
6.17507e-05
0.000627143
6.76111e-05
0.000614729
7.33375e-05
0.00060138
7.89048e-05
0.000587088
8.43288e-05
0.000571902
8.95567e-05
0.000555826
9.46285e-05
0.000538905
9.95089e-05
0.000521166
0.0001042
0.000502637
0.000108707
0.000483351
0.000113016
0.000463358
0.0001171
0.000442686
0.000120984
0.000421373
0.000124648
0.000399459
0.000128088
0.000376985
0.000131302
0.000353979
0.000134285
0.000330504
0.000137002
0.000306591
0.000139489
0.00028228
0.000141751
0.000257618
0.000143712
0.000232658
0.000145447
0.000207423
0.000146914
0.000181987
0.000148124
0.000156363
0.000149063
0.000130605
0.000149769
0.000104776
0.000150156
7.89031e-05
0.00015031
5.30459e-05
0.000150209
2.72416e-05
0.000149808
1.53216e-06
0.000149165
-2.40426e-05
0.000148271
-4.94045e-05
0.000147102
-7.45377e-05
0.000145677
-9.9392e-05
0.00014401
-0.00012392
0.000142103
-0.000148079
0.000139978
-0.000171795
0.000137563
-0.000195051
0.00013495
-0.000217785
0.00013211
-0.000239951
0.000129068
-0.000261512
0.000125789
-0.00028241
0.000122324
-0.000302607
0.000118648
-0.000322055
0.000114781
-0.00034072
0.000110724
-0.000358544
0.000106489
-0.000375511
0.000102078
-0.000391577
9.74902e-05
-0.000406673
9.26474e-05
-0.000420797
8.76944e-05
-0.000433978
8.25813e-05
-0.000446138
7.72334e-05
-0.000457298
7.17377e-05
-0.000467469
6.60759e-05
-0.00047663
6.02197e-05
-0.000484851
5.42446e-05
-0.000492141
4.81322e-05
-0.00049846
4.188e-05
-0.000503886
3.55673e-05
-0.000508351
2.91508e-05
-0.000511878
2.27071e-05
-0.000514427
1.62061e-05
-0.000516096
9.76552e-06
-0.000516836
3.30584e-06
-0.000516801
-3.03652e-06
-0.000515827
-9.39496e-06
-0.000513939
-1.56745e-05
-0.000511178
-2.18528e-05
-0.000507563
-2.78821e-05
-0.000503123
-3.37736e-05
-0.000497838
-3.95309e-05
-0.000491725
-4.51115e-05
-0.000484798
-5.04995e-05
-0.000477153
-5.56547e-05
-0.000468702
-6.06814e-05
-0.000459463
-6.54387e-05
-0.00044947
-6.99911e-05
-0.00043877
-7.4293e-05
-0.000427345
-7.8383e-05
-0.00041521
-8.22449e-05
-0.000402358
-8.58582e-05
-0.000388845
-8.92268e-05
-0.000374636
-9.2417e-05
-0.000359803
-9.52826e-05
-0.000344271
-9.79634e-05
-0.000328152
-0.000100331
-0.000311407
-0.000102499
-0.000294006
-0.000104464
-0.000276017
-0.000106155
-0.000257493
-0.000107633
-0.000238391
-0.000108949
-0.000218788
-0.000110019
-0.000198739
-0.000110923
-0.000178217
-0.000111718
-0.000157283
-0.000112357
-0.000135989
-0.000112789
-0.00011442
-0.00011269
-9.26311e-05
-0.000112
-7.00674e-05
-0.000113928
-4.52411e-05
-0.00012486
-1.82321e-05
-0.000141327
-9.26403e-05
2.46235e-05
-0.000162905
6.06184e-05
-0.000237379
9.42813e-05
-0.000221104
0.000124943
-0.000202012
0.000154581
-0.000196218
0.00018391
-0.000194688
0.000213004
-0.000193313
0.000241663
-0.000190786
0.000269824
-0.000187741
0.000297413
-0.000184325
0.00032439
-0.000180619
0.000350708
-0.000176633
0.000376334
-0.00017235
0.000401217
-0.000167784
0.000425327
-0.000162944
0.000448624
-0.000157847
0.00047108
-0.000152491
0.00049266
-0.000146898
0.00051333
-0.000141067
0.00053307
-0.000135024
0.000551848
-0.000128769
0.000569643
-0.00012232
0.000586437
-0.00011569
0.000602212
-0.000108892
0.000616949
-0.000101938
0.000630622
-9.48209e-05
0.000643227
-8.75769e-05
0.000654746
-8.02082e-05
0.00066517
-7.27268e-05
0.000674482
-6.51502e-05
0.000682673
-5.74863e-05
0.000689731
-4.97503e-05
0.000695671
-4.19652e-05
0.000700468
-3.41318e-05
0.000704132
-2.62803e-05
0.000706639
-1.83908e-05
0.000708013
-1.05201e-05
0.000708234
-2.64885e-06
0.000707338
5.20008e-06
0.000705309
1.30023e-05
0.000702153
2.07448e-05
0.000697869
2.84336e-05
0.000692472
3.60347e-05
0.000685987
4.35406e-05
0.000678419
5.09533e-05
0.000669784
5.8253e-05
0.0006601
6.54244e-05
0.000649393
7.24586e-05
0.000637665
7.93382e-05
0.000624947
8.60561e-05
0.000611254
9.25975e-05
0.000596615
9.89679e-05
0.000581052
0.000105119
0.000564599
0.000111082
0.000547276
0.000116832
0.000529121
0.000122354
0.000510166
0.000127663
0.000490457
0.000132724
0.000470016
0.000137542
0.000448885
0.000142114
0.000427105
0.000146428
0.000404718
0.000150476
0.000381765
0.000154255
0.000358271
0.000157779
0.000334294
0.000160978
0.000309878
0.000163905
0.00028508
0.000166549
0.000259907
0.000168886
0.000234433
0.000170921
0.000208681
0.000172665
0.000182723
0.000174082
0.000156581
0.000175205
0.000130338
0.000176012
0.000103995
0.000176498
7.76051e-05
0.0001767
5.12608e-05
0.000176553
2.49616e-05
0.000176107
-1.23297e-06
0.000175359
-2.7282e-05
0.00017432
-5.3104e-05
0.000172924
-7.86851e-05
0.000171258
-0.000103971
0.000169296
-0.000128921
0.000167052
-0.000153469
0.000164526
-0.000177572
0.000161666
-0.000201193
0.000158571
-0.000224281
0.000155198
-0.000246788
0.000151574
-0.000268672
0.000147673
-0.000289883
0.000143536
-0.000310388
0.000139153
-0.000330124
0.000134517
-0.000349079
0.000129679
-0.000367183
0.000124593
-0.000384406
0.0001193
-0.000400718
0.000113803
-0.000416145
0.000108073
-0.00043059
0.00010214
-0.000444032
9.60227e-05
-0.000456523
8.97241e-05
-0.000467998
8.32129e-05
-0.000478425
7.65033e-05
-0.000487894
6.96886e-05
-0.000496359
6.27097e-05
-0.000503823
5.55961e-05
-0.000510253
4.83099e-05
-0.000515691
4.10058e-05
-0.000520142
3.36018e-05
-0.00052364
2.62042e-05
-0.000526172
1.87383e-05
-0.000527717
1.13109e-05
-0.000528335
3.92392e-06
-0.000527889
-3.4831e-06
-0.000526533
-1.07507e-05
-0.000524241
-1.79659e-05
-0.000521067
-2.50267e-05
-0.000516985
-3.19648e-05
-0.000512021
-3.87371e-05
-0.000506179
-4.53729e-05
-0.000499479
-5.18121e-05
-0.000491937
-5.80411e-05
-0.000483539
-6.40528e-05
-0.000474433
-6.97874e-05
-0.000464543
-7.53286e-05
-0.000453898
-8.0636e-05
-0.000442494
-8.56965e-05
-0.000430383
-9.04947e-05
-0.000417601
-9.50263e-05
-0.000404154
-9.93053e-05
-0.000390057
-0.000103324
-0.000375393
-0.000107081
-0.000360112
-0.000110564
-0.00034426
-0.000113815
-0.000327802
-0.000116789
-0.000310771
-0.00011953
-0.00029325
-0.000121986
-0.000275154
-0.00012425
-0.00025655
-0.000126237
-0.000237452
-0.000128047
-0.000217903
-0.000129568
-0.000197857
-0.000130969
-0.000177437
-0.000132138
-0.000156584
-0.00013321
-0.000135362
-0.000134011
-0.000113847
-0.000134205
-9.21558e-05
-0.000133691
-6.98764e-05
-0.000136208
-4.55942e-05
-0.000149142
-1.8753e-05
-0.000168168
-0.000111393
2.51988e-05
-0.000188104
6.20741e-05
-0.000274254
9.66186e-05
-0.000255649
0.000128023
-0.000233416
0.000158281
-0.000226476
0.000188232
-0.000224639
0.000217932
-0.000223013
0.000247215
-0.000220069
0.000275969
-0.000216495
0.000304144
-0.0002125
0.000331688
-0.000208163
0.00035856
-0.000203505
0.000384728
-0.000198518
0.00041014
-0.000193195
0.000434759
-0.000187563
0.00045855
-0.000181637
0.000481475
-0.000175416
0.000503507
-0.00016893
0.000524612
-0.000162173
0.000544758
-0.000155169
0.000563932
-0.000147943
0.0005821
-0.000140487
0.000599243
-0.000132833
0.000615339
-0.000124988
0.00063036
-0.000116959
0.000644306
-0.000108766
0.000657153
-0.000100424
0.000668887
-9.19426e-05
0.000679502
-8.33413e-05
0.000688978
-7.46262e-05
0.000697311
-6.58197e-05
0.000704497
-5.69366e-05
0.000710526
-4.79933e-05
0.000715388
-3.89944e-05
0.000719073
-2.99652e-05
0.000721606
-2.0924e-05
0.000722969
-1.1883e-05
0.000723162
-2.84151e-06
0.000722186
6.17549e-06
0.00072006
1.5129e-05
0.000716773
2.40318e-05
0.000712344
3.28623e-05
0.000706777
4.16017e-05
0.000700087
5.02301e-05
0.000692295
5.87461e-05
0.000683412
6.71353e-05
0.000673456
7.53811e-05
0.000662439
8.34754e-05
0.000650393
9.13837e-05
0.000637332
9.91169e-05
0.000623283
0.000106647
0.000608267
0.000113983
0.000592315
0.000121072
0.000575453
0.000127944
0.000557693
0.000134592
0.000539103
0.000140945
0.000519681
0.000147084
0.000499499
0.000152906
0.000478571
0.00015847
0.00045694
0.000163746
0.000434644
0.000168724
0.000411725
0.000173395
0.000388227
0.000177753
0.000364208
0.000181798
0.000339656
0.000185531
0.000314676
0.000188884
0.000289297
0.000191928
0.000263532
0.000194651
0.000237478
0.000196976
0.000211131
0.000199012
0.000184587
0.000200627
0.000157838
0.000201954
0.000130995
0.000202856
0.000104061
0.000203432
7.70848e-05
0.000203676
5.01447e-05
0.000203494
2.32624e-05
0.000202989
-3.52267e-06
0.000202144
-3.01163e-05
0.000200914
-5.65139e-05
0.000199322
-8.26533e-05
0.000197397
-0.000108488
0.000195131
-0.000133982
0.000192546
-0.000159042
0.000189586
-0.000183647
0.000186271
-0.00020774
0.000182663
-0.000231306
0.000178764
-0.000254305
0.000174574
-0.000276673
0.000170041
-0.000298316
0.000165179
-0.000319261
0.000160098
-0.000339461
0.000154717
-0.000358824
0.000149041
-0.000377358
0.000143128
-0.000394988
0.00013693
-0.000411692
0.000130506
-0.000427475
0.000123857
-0.000442294
0.000116959
-0.000456112
0.000109841
-0.000468902
0.000102514
-0.000480704
9.50151e-05
-0.000491493
8.72925e-05
-0.000501238
7.94335e-05
-0.000509929
7.14002e-05
-0.00051757
6.32378e-05
-0.000524239
5.49783e-05
-0.000529861
4.66279e-05
-0.00053443
3.81711e-05
-0.000537939
2.97127e-05
-0.000540475
2.12748e-05
-0.000541951
1.27864e-05
-0.000542389
4.36256e-06
-0.000541909
-3.96363e-06
-0.000540404
-1.2255e-05
-0.00053791
-2.04601e-05
-0.00053443
-2.85075e-05
-0.000529997
-3.63977e-05
-0.000524607
-4.4127e-05
-0.000518313
-5.16663e-05
-0.000511162
-5.89634e-05
-0.000503129
-6.60739e-05
-0.000494256
-7.29257e-05
-0.000484512
-7.95321e-05
-0.00047396
-8.58804e-05
-0.00046263
-9.19662e-05
-0.000450562
-9.77644e-05
-0.000437773
-0.000103284
-0.000424281
-0.000108519
-0.000410113
-0.000113473
-0.000395313