/*--------------------------------*- C++ -*----------------------------------*\
| =========                 |                                                 |
| \\      /  F ield         | OpenFOAM: The Open Source CFD Toolbox           |
|  \\    /   O peration     | Version:  v2006                                 |
|   \\  /    A nd           | Website:  www.openfoam.com                      |
|    \\/     M anipulation  |                                                 |
\*---------------------------------------------------------------------------*/
FoamFile
{
    version     2.0;
    format      ascii;
    class       volVectorField;
    location    "0";
    object      U_new;
}
// * * * * * * * * * * * * * * * * * * * * * * * * * * * * * * * * * * * * * //

dimensions      [0 1 -1 0 0 0 0];


internalField   nonuniform List<vector> 
2500
(
(0.000776 -0.075272 0)
(0.000776 -0.225816 0)
(0.000776 -0.37636 0)
(0.000776 -0.526904 0)
(0.000776 -0.677448 0)
(0.000776 -0.827992 0)
(0.000776 -0.978536 0)
(0.000776 -1.12908 0)
(0.000776 -1.27962 0)
(0.000776 -1.43017 0)
(0.000776 -1.58071 0)
(0.000776 -1.73126 0)
(0.000776 -1.8818 0)
(0.000776 -2.03234 0)
(0.000776 -2.18289 0)
(0.000776 -2.33343 0)
(0.000776 -2.48398 0)
(0.000776 -2.63452 0)
(0.000776 -2.78506 0)
(0.000776 -2.93561 0)
(0.000776 -3.08615 0)
(0.000776 -3.2367 0)
(0.000776 -3.38724 0)
(0.000776 -3.53778 0)
(0.000776 -3.68833 0)
(0.000776 -3.83887 0)
(0.000776 -3.98942 0)
(0.000776 -4.13996 0)
(0.000776 -4.2905 0)
(0.000776 -4.44105 0)
(0.000776 -4.59159 0)
(0.000776 -4.74214 0)
(0.000776 -4.89268 0)
(0.000776 -5.04322 0)
(0.000776 -5.19377 0)
(0.000776 -5.34431 0)
(0.000776 -5.49486 0)
(0.000776 -5.6454 0)
(0.000776 -5.79594 0)
(0.000776 -5.94649 0)
(0.000776 -6.09703 0)
(0.000776 -6.24758 0)
(0.000776 -6.39812 0)
(0.000776 -6.54866 0)
(0.000776 -6.69921 0)
(0.000776 -6.84975 0)
(0.000776 -7.0003 0)
(0.000776 -7.15084 0)
(0.000776 -7.30138 0)
(0.000776 -7.45193 0)
(0.006984 -0.075272 0)
(0.006984 -0.225816 0)
(0.006984 -0.37636 0)
(0.006984 -0.526904 0)
(0.006984 -0.677448 0)
(0.006984 -0.827992 0)
(0.006984 -0.978536 0)
(0.006984 -1.12908 0)
(0.006984 -1.27962 0)
(0.006984 -1.43017 0)
(0.006984 -1.58071 0)
(0.006984 -1.73126 0)
(0.006984 -1.8818 0)
(0.006984 -2.03234 0)
(0.006984 -2.18289 0)
(0.006984 -2.33343 0)
(0.006984 -2.48398 0)
(0.006984 -2.63452 0)
(0.006984 -2.78506 0)
(0.006984 -2.93561 0)
(0.006984 -3.08615 0)
(0.006984 -3.2367 0)
(0.006984 -3.38724 0)
(0.006984 -3.53778 0)
(0.006984 -3.68833 0)
(0.006984 -3.83887 0)
(0.006984 -3.98942 0)
(0.006984 -4.13996 0)
(0.006984 -4.2905 0)
(0.006984 -4.44105 0)
(0.006984 -4.59159 0)
(0.006984 -4.74214 0)
(0.006984 -4.89268 0)
(0.006984 -5.04322 0)
(0.006984 -5.19377 0)
(0.006984 -5.34431 0)
(0.006984 -5.49486 0)
(0.006984 -5.6454 0)
(0.006984 -5.79594 0)
(0.006984 -5.94649 0)
(0.006984 -6.09703 0)
(0.006984 -6.24758 0)
(0.006984 -6.39812 0)
(0.006984 -6.54866 0)
(0.006984 -6.69921 0)
(0.006984 -6.84975 0)
(0.006984 -7.0003 0)
(0.006984 -7.15084 0)
(0.006984 -7.30138 0)
(0.006984 -7.45193 0)
(0.0194 -0.075272 0)
(0.0194 -0.225816 0)
(0.0194 -0.37636 0)
(0.0194 -0.526904 0)
(0.0194 -0.677448 0)
(0.0194 -0.827992 0)
(0.0194 -0.978536 0)
(0.0194 -1.12908 0)
(0.0194 -1.27962 0)
(0.0194 -1.43017 0)
(0.0194 -1.58071 0)
(0.0194 -1.73126 0)
(0.0194 -1.8818 0)
(0.0194 -2.03234 0)
(0.0194 -2.18289 0)
(0.0194 -2.33343 0)
(0.0194 -2.48398 0)
(0.0194 -2.63452 0)
(0.0194 -2.78506 0)
(0.0194 -2.93561 0)
(0.0194 -3.08615 0)
(0.0194 -3.2367 0)
(0.0194 -3.38724 0)
(0.0194 -3.53778 0)
(0.0194 -3.68833 0)
(0.0194 -3.83887 0)
(0.0194 -3.98942 0)
(0.0194 -4.13996 0)
(0.0194 -4.2905 0)
(0.0194 -4.44105 0)
(0.0194 -4.59159 0)
(0.0194 -4.74214 0)
(0.0194 -4.89268 0)
(0.0194 -5.04322 0)
(0.0194 -5.19377 0)
(0.0194 -5.34431 0)
(0.0194 -5.49486 0)
(0.0194 -5.6454 0)
(0.0194 -5.79594 0)
(0.0194 -5.94649 0)
(0.0194 -6.09703 0)
(0.0194 -6.24758 0)
(0.0194 -6.39812 0)
(0.0194 -6.54866 0)
(0.0194 -6.69921 0)
(0.0194 -6.84975 0)
(0.0194 -7.0003 0)
(0.0194 -7.15084 0)
(0.0194 -7.30138 0)
(0.0194 -7.45193 0)
(0.038024 -0.075272 0)
(0.038024 -0.225816 0)
(0.038024 -0.37636 0)
(0.038024 -0.526904 0)
(0.038024 -0.677448 0)
(0.038024 -0.827992 0)
(0.038024 -0.978536 0)
(0.038024 -1.12908 0)
(0.038024 -1.27962 0)
(0.038024 -1.43017 0)
(0.038024 -1.58071 0)
(0.038024 -1.73126 0)
(0.038024 -1.8818 0)
(0.038024 -2.03234 0)
(0.038024 -2.18289 0)
(0.038024 -2.33343 0)
(0.038024 -2.48398 0)
(0.038024 -2.63452 0)
(0.038024 -2.78506 0)
(0.038024 -2.93561 0)
(0.038024 -3.08615 0)
(0.038024 -3.2367 0)
(0.038024 -3.38724 0)
(0.038024 -3.53778 0)
(0.038024 -3.68833 0)
(0.038024 -3.83887 0)
(0.038024 -3.98942 0)
(0.038024 -4.13996 0)
(0.038024 -4.2905 0)
(0.038024 -4.44105 0)
(0.038024 -4.59159 0)
(0.038024 -4.74214 0)
(0.038024 -4.89268 0)
(0.038024 -5.04322 0)
(0.038024 -5.19377 0)
(0.038024 -5.34431 0)
(0.038024 -5.49486 0)
(0.038024 -5.6454 0)
(0.038024 -5.79594 0)
(0.038024 -5.94649 0)
(0.038024 -6.09703 0)
(0.038024 -6.24758 0)
(0.038024 -6.39812 0)
(0.038024 -6.54866 0)
(0.038024 -6.69921 0)
(0.038024 -6.84975 0)
(0.038024 -7.0003 0)
(0.038024 -7.15084 0)
(0.038024 -7.30138 0)
(0.038024 -7.45193 0)
(0.062856 -0.075272 0)
(0.062856 -0.225816 0)
(0.062856 -0.37636 0)
(0.062856 -0.526904 0)
(0.062856 -0.677448 0)
(0.062856 -0.827992 0)
(0.062856 -0.978536 0)
(0.062856 -1.12908 0)
(0.062856 -1.27962 0)
(0.062856 -1.43017 0)
(0.062856 -1.58071 0)
(0.062856 -1.73126 0)
(0.062856 -1.8818 0)
(0.062856 -2.03234 0)
(0.062856 -2.18289 0)
(0.062856 -2.33343 0)
(0.062856 -2.48398 0)
(0.062856 -2.63452 0)
(0.062856 -2.78506 0)
(0.062856 -2.93561 0)
(0.062856 -3.08615 0)
(0.062856 -3.2367 0)
(0.062856 -3.38724 0)
(0.062856 -3.53778 0)
(0.062856 -3.68833 0)
(0.062856 -3.83887 0)
(0.062856 -3.98942 0)
(0.062856 -4.13996 0)
(0.062856 -4.2905 0)
(0.062856 -4.44105 0)
(0.062856 -4.59159 0)
(0.062856 -4.74214 0)
(0.062856 -4.89268 0)
(0.062856 -5.04322 0)
(0.062856 -5.19377 0)
(0.062856 -5.34431 0)
(0.062856 -5.49486 0)
(0.062856 -5.6454 0)
(0.062856 -5.79594 0)
(0.062856 -5.94649 0)
(0.062856 -6.09703 0)
(0.062856 -6.24758 0)
(0.062856 -6.39812 0)
(0.062856 -6.54866 0)
(0.062856 -6.69921 0)
(0.062856 -6.84975 0)
(0.062856 -7.0003 0)
(0.062856 -7.15084 0)
(0.062856 -7.30138 0)
(0.062856 -7.45193 0)
(0.093896 -0.075272 0)
(0.093896 -0.225816 0)
(0.093896 -0.37636 0)
(0.093896 -0.526904 0)
(0.093896 -0.677448 0)
(0.093896 -0.827992 0)
(0.093896 -0.978536 0)
(0.093896 -1.12908 0)
(0.093896 -1.27962 0)
(0.093896 -1.43017 0)
(0.093896 -1.58071 0)
(0.093896 -1.73126 0)
(0.093896 -1.8818 0)
(0.093896 -2.03234 0)
(0.093896 -2.18289 0)
(0.093896 -2.33343 0)
(0.093896 -2.48398 0)
(0.093896 -2.63452 0)
(0.093896 -2.78506 0)
(0.093896 -2.93561 0)
(0.093896 -3.08615 0)
(0.093896 -3.2367 0)
(0.093896 -3.38724 0)
(0.093896 -3.53778 0)
(0.093896 -3.68833 0)
(0.093896 -3.83887 0)
(0.093896 -3.98942 0)
(0.093896 -4.13996 0)
(0.093896 -4.2905 0)
(0.093896 -4.44105 0)
(0.093896 -4.59159 0)
(0.093896 -4.74214 0)
(0.093896 -4.89268 0)
(0.093896 -5.04322 0)
(0.093896 -5.19377 0)
(0.093896 -5.34431 0)
(0.093896 -5.49486 0)
(0.093896 -5.6454 0)
(0.093896 -5.79594 0)
(0.093896 -5.94649 0)
(0.093896 -6.09703 0)
(0.093896 -6.24758 0)
(0.093896 -6.39812 0)
(0.093896 -6.54866 0)
(0.093896 -6.69921 0)
(0.093896 -6.84975 0)
(0.093896 -7.0003 0)
(0.093896 -7.15084 0)
(0.093896 -7.30138 0)
(0.093896 -7.45193 0)
(0.131144 -0.075272 0)
(0.131144 -0.225816 0)
(0.131144 -0.37636 0)
(0.131144 -0.526904 0)
(0.131144 -0.677448 0)
(0.131144 -0.827992 0)
(0.131144 -0.978536 0)
(0.131144 -1.12908 0)
(0.131144 -1.27962 0)
(0.131144 -1.43017 0)
(0.131144 -1.58071 0)
(0.131144 -1.73126 0)
(0.131144 -1.8818 0)
(0.131144 -2.03234 0)
(0.131144 -2.18289 0)
(0.131144 -2.33343 0)
(0.131144 -2.48398 0)
(0.131144 -2.63452 0)
(0.131144 -2.78506 0)
(0.131144 -2.93561 0)
(0.131144 -3.08615 0)
(0.131144 -3.2367 0)
(0.131144 -3.38724 0)
(0.131144 -3.53778 0)
(0.131144 -3.68833 0)
(0.131144 -3.83887 0)
(0.131144 -3.98942 0)
(0.131144 -4.13996 0)
(0.131144 -4.2905 0)
(0.131144 -4.44105 0)
(0.131144 -4.59159 0)
(0.131144 -4.74214 0)
(0.131144 -4.89268 0)
(0.131144 -5.04322 0)
(0.131144 -5.19377 0)
(0.131144 -5.34431 0)
(0.131144 -5.49486 0)
(0.131144 -5.6454 0)
(0.131144 -5.79594 0)
(0.131144 -5.94649 0)
(0.131144 -6.09703 0)
(0.131144 -6.24758 0)
(0.131144 -6.39812 0)
(0.131144 -6.54866 0)
(0.131144 -6.69921 0)
(0.131144 -6.84975 0)
(0.131144 -7.0003 0)
(0.131144 -7.15084 0)
(0.131144 -7.30138 0)
(0.131144 -7.45193 0)
(0.1746 -0.075272 0)
(0.1746 -0.225816 0)
(0.1746 -0.37636 0)
(0.1746 -0.526904 0)
(0.1746 -0.677448 0)
(0.1746 -0.827992 0)
(0.1746 -0.978536 0)
(0.1746 -1.12908 0)
(0.1746 -1.27962 0)
(0.1746 -1.43017 0)
(0.1746 -1.58071 0)
(0.1746 -1.73126 0)
(0.1746 -1.8818 0)
(0.1746 -2.03234 0)
(0.1746 -2.18289 0)
(0.1746 -2.33343 0)
(0.1746 -2.48398 0)
(0.1746 -2.63452 0)
(0.1746 -2.78506 0)
(0.1746 -2.93561 0)
(0.1746 -3.08615 0)
(0.1746 -3.2367 0)
(0.1746 -3.38724 0)
(0.1746 -3.53778 0)
(0.1746 -3.68833 0)
(0.1746 -3.83887 0)
(0.1746 -3.98942 0)
(0.1746 -4.13996 0)
(0.1746 -4.2905 0)
(0.1746 -4.44105 0)
(0.1746 -4.59159 0)
(0.1746 -4.74214 0)
(0.1746 -4.89268 0)
(0.1746 -5.04322 0)
(0.1746 -5.19377 0)
(0.1746 -5.34431 0)
(0.1746 -5.49486 0)
(0.1746 -5.6454 0)
(0.1746 -5.79594 0)
(0.1746 -5.94649 0)
(0.1746 -6.09703 0)
(0.1746 -6.24758 0)
(0.1746 -6.39812 0)
(0.1746 -6.54866 0)
(0.1746 -6.69921 0)
(0.1746 -6.84975 0)
(0.1746 -7.0003 0)
(0.1746 -7.15084 0)
(0.1746 -7.30138 0)
(0.1746 -7.45193 0)
(0.224264 -0.075272 0)
(0.224264 -0.225816 0)
(0.224264 -0.37636 0)
(0.224264 -0.526904 0)
(0.224264 -0.677448 0)
(0.224264 -0.827992 0)
(0.224264 -0.978536 0)
(0.224264 -1.12908 0)
(0.224264 -1.27962 0)
(0.224264 -1.43017 0)
(0.224264 -1.58071 0)
(0.224264 -1.73126 0)
(0.224264 -1.8818 0)
(0.224264 -2.03234 0)
(0.224264 -2.18289 0)
(0.224264 -2.33343 0)
(0.224264 -2.48398 0)
(0.224264 -2.63452 0)
(0.224264 -2.78506 0)
(0.224264 -2.93561 0)
(0.224264 -3.08615 0)
(0.224264 -3.2367 0)
(0.224264 -3.38724 0)
(0.224264 -3.53778 0)
(0.224264 -3.68833 0)
(0.224264 -3.83887 0)
(0.224264 -3.98942 0)
(0.224264 -4.13996 0)
(0.224264 -4.2905 0)
(0.224264 -4.44105 0)
(0.224264 -4.59159 0)
(0.224264 -4.74214 0)
(0.224264 -4.89268 0)
(0.224264 -5.04322 0)
(0.224264 -5.19377 0)
(0.224264 -5.34431 0)
(0.224264 -5.49486 0)
(0.224264 -5.6454 0)
(0.224264 -5.79594 0)
(0.224264 -5.94649 0)
(0.224264 -6.09703 0)
(0.224264 -6.24758 0)
(0.224264 -6.39812 0)
(0.224264 -6.54866 0)
(0.224264 -6.69921 0)
(0.224264 -6.84975 0)
(0.224264 -7.0003 0)
(0.224264 -7.15084 0)
(0.224264 -7.30138 0)
(0.224264 -7.45193 0)
(0.280136 -0.075272 0)
(0.280136 -0.225816 0)
(0.280136 -0.37636 0)
(0.280136 -0.526904 0)
(0.280136 -0.677448 0)
(0.280136 -0.827992 0)
(0.280136 -0.978536 0)
(0.280136 -1.12908 0)
(0.280136 -1.27962 0)
(0.280136 -1.43017 0)
(0.280136 -1.58071 0)
(0.280136 -1.73126 0)
(0.280136 -1.8818 0)
(0.280136 -2.03234 0)
(0.280136 -2.18289 0)
(0.280136 -2.33343 0)
(0.280136 -2.48398 0)
(0.280136 -2.63452 0)
(0.280136 -2.78506 0)
(0.280136 -2.93561 0)
(0.280136 -3.08615 0)
(0.280136 -3.2367 0)
(0.280136 -3.38724 0)
(0.280136 -3.53778 0)
(0.280136 -3.68833 0)
(0.280136 -3.83887 0)
(0.280136 -3.98942 0)
(0.280136 -4.13996 0)
(0.280136 -4.2905 0)
(0.280136 -4.44105 0)
(0.280136 -4.59159 0)
(0.280136 -4.74214 0)
(0.280136 -4.89268 0)
(0.280136 -5.04322 0)
(0.280136 -5.19377 0)
(0.280136 -5.34431 0)
(0.280136 -5.49486 0)
(0.280136 -5.6454 0)
(0.280136 -5.79594 0)
(0.280136 -5.94649 0)
(0.280136 -6.09703 0)
(0.280136 -6.24758 0)
(0.280136 -6.39812 0)
(0.280136 -6.54866 0)
(0.280136 -6.69921 0)
(0.280136 -6.84975 0)
(0.280136 -7.0003 0)
(0.280136 -7.15084 0)
(0.280136 -7.30138 0)
(0.280136 -7.45193 0)
(0.342216 -0.075272 0)
(0.342216 -0.225816 0)
(0.342216 -0.37636 0)
(0.342216 -0.526904 0)
(0.342216 -0.677448 0)
(0.342216 -0.827992 0)
(0.342216 -0.978536 0)
(0.342216 -1.12908 0)
(0.342216 -1.27962 0)
(0.342216 -1.43017 0)
(0.342216 -1.58071 0)
(0.342216 -1.73126 0)
(0.342216 -1.8818 0)
(0.342216 -2.03234 0)
(0.342216 -2.18289 0)
(0.342216 -2.33343 0)
(0.342216 -2.48398 0)
(0.342216 -2.63452 0)
(0.342216 -2.78506 0)
(0.342216 -2.93561 0)
(0.342216 -3.08615 0)
(0.342216 -3.2367 0)
(0.342216 -3.38724 0)
(0.342216 -3.53778 0)
(0.342216 -3.68833 0)
(0.342216 -3.83887 0)
(0.342216 -3.98942 0)
(0.342216 -4.13996 0)
(0.342216 -4.2905 0)
(0.342216 -4.44105 0)
(0.342216 -4.59159 0)
(0.342216 -4.74214 0)
(0.342216 -4.89268 0)
(0.342216 -5.04322 0)
(0.342216 -5.19377 0)
(0.342216 -5.34431 0)
(0.342216 -5.49486 0)
(0.342216 -5.6454 0)
(0.342216 -5.79594 0)
(0.342216 -5.94649 0)
(0.342216 -6.09703 0)
(0.342216 -6.24758 0)
(0.342216 -6.39812 0)
(0.342216 -6.54866 0)
(0.342216 -6.69921 0)
(0.342216 -6.84975 0)
(0.342216 -7.0003 0)
(0.342216 -7.15084 0)
(0.342216 -7.30138 0)
(0.342216 -7.45193 0)
(0.410504 -0.075272 0)
(0.410504 -0.225816 0)
(0.410504 -0.37636 0)
(0.410504 -0.526904 0)
(0.410504 -0.677448 0)
(0.410504 -0.827992 0)
(0.410504 -0.978536 0)
(0.410504 -1.12908 0)
(0.410504 -1.27962 0)
(0.410504 -1.43017 0)
(0.410504 -1.58071 0)
(0.410504 -1.73126 0)
(0.410504 -1.8818 0)
(0.410504 -2.03234 0)
(0.410504 -2.18289 0)
(0.410504 -2.33343 0)
(0.410504 -2.48398 0)
(0.410504 -2.63452 0)
(0.410504 -2.78506 0)
(0.410504 -2.93561 0)
(0.410504 -3.08615 0)
(0.410504 -3.2367 0)
(0.410504 -3.38724 0)
(0.410504 -3.53778 0)
(0.410504 -3.68833 0)
(0.410504 -3.83887 0)
(0.410504 -3.98942 0)
(0.410504 -4.13996 0)
(0.410504 -4.2905 0)
(0.410504 -4.44105 0)
(0.410504 -4.59159 0)
(0.410504 -4.74214 0)
(0.410504 -4.89268 0)
(0.410504 -5.04322 0)
(0.410504 -5.19377 0)
(0.410504 -5.34431 0)
(0.410504 -5.49486 0)
(0.410504 -5.6454 0)
(0.410504 -5.79594 0)
(0.410504 -5.94649 0)
(0.410504 -6.09703 0)
(0.410504 -6.24758 0)
(0.410504 -6.39812 0)
(0.410504 -6.54866 0)
(0.410504 -6.69921 0)
(0.410504 -6.84975 0)
(0.410504 -7.0003 0)
(0.410504 -7.15084 0)
(0.410504 -7.30138 0)
(0.410504 -7.45193 0)
(0.485 -0.075272 0)
(0.485 -0.225816 0)
(0.485 -0.37636 0)
(0.485 -0.526904 0)
(0.485 -0.677448 0)
(0.485 -0.827992 0)
(0.485 -0.978536 0)
(0.485 -1.12908 0)
(0.485 -1.27962 0)
(0.485 -1.43017 0)
(0.485 -1.58071 0)
(0.485 -1.73126 0)
(0.485 -1.8818 0)
(0.485 -2.03234 0)
(0.485 -2.18289 0)
(0.485 -2.33343 0)
(0.485 -2.48398 0)
(0.485 -2.63452 0)
(0.485 -2.78506 0)
(0.485 -2.93561 0)
(0.485 -3.08615 0)
(0.485 -3.2367 0)
(0.485 -3.38724 0)
(0.485 -3.53778 0)
(0.485 -3.68833 0)
(0.485 -3.83887 0)
(0.485 -3.98942 0)
(0.485 -4.13996 0)
(0.485 -4.2905 0)
(0.485 -4.44105 0)
(0.485 -4.59159 0)
(0.485 -4.74214 0)
(0.485 -4.89268 0)
(0.485 -5.04322 0)
(0.485 -5.19377 0)
(0.485 -5.34431 0)
(0.485 -5.49486 0)
(0.485 -5.6454 0)
(0.485 -5.79594 0)
(0.485 -5.94649 0)
(0.485 -6.09703 0)
(0.485 -6.24758 0)
(0.485 -6.39812 0)
(0.485 -6.54866 0)
(0.485 -6.69921 0)
(0.485 -6.84975 0)
(0.485 -7.0003 0)
(0.485 -7.15084 0)
(0.485 -7.30138 0)
(0.485 -7.45193 0)
(0.565704 -0.075272 0)
(0.565704 -0.225816 0)
(0.565704 -0.37636 0)
(0.565704 -0.526904 0)
(0.565704 -0.677448 0)
(0.565704 -0.827992 0)
(0.565704 -0.978536 0)
(0.565704 -1.12908 0)
(0.565704 -1.27962 0)
(0.565704 -1.43017 0)
(0.565704 -1.58071 0)
(0.565704 -1.73126 0)
(0.565704 -1.8818 0)
(0.565704 -2.03234 0)
(0.565704 -2.18289 0)
(0.565704 -2.33343 0)
(0.565704 -2.48398 0)
(0.565704 -2.63452 0)
(0.565704 -2.78506 0)
(0.565704 -2.93561 0)
(0.565704 -3.08615 0)
(0.565704 -3.2367 0)
(0.565704 -3.38724 0)
(0.565704 -3.53778 0)
(0.565704 -3.68833 0)
(0.565704 -3.83887 0)
(0.565704 -3.98942 0)
(0.565704 -4.13996 0)
(0.565704 -4.2905 0)
(0.565704 -4.44105 0)
(0.565704 -4.59159 0)
(0.565704 -4.74214 0)
(0.565704 -4.89268 0)
(0.565704 -5.04322 0)
(0.565704 -5.19377 0)
(0.565704 -5.34431 0)
(0.565704 -5.49486 0)
(0.565704 -5.6454 0)
(0.565704 -5.79594 0)
(0.565704 -5.94649 0)
(0.565704 -6.09703 0)
(0.565704 -6.24758 0)
(0.565704 -6.39812 0)
(0.565704 -6.54866 0)
(0.565704 -6.69921 0)
(0.565704 -6.84975 0)
(0.565704 -7.0003 0)
(0.565704 -7.15084 0)
(0.565704 -7.30138 0)
(0.565704 -7.45193 0)
(0.652616 -0.075272 0)
(0.652616 -0.225816 0)
(0.652616 -0.37636 0)
(0.652616 -0.526904 0)
(0.652616 -0.677448 0)
(0.652616 -0.827992 0)
(0.652616 -0.978536 0)
(0.652616 -1.12908 0)
(0.652616 -1.27962 0)
(0.652616 -1.43017 0)
(0.652616 -1.58071 0)
(0.652616 -1.73126 0)
(0.652616 -1.8818 0)
(0.652616 -2.03234 0)
(0.652616 -2.18289 0)
(0.652616 -2.33343 0)
(0.652616 -2.48398 0)
(0.652616 -2.63452 0)
(0.652616 -2.78506 0)
(0.652616 -2.93561 0)
(0.652616 -3.08615 0)
(0.652616 -3.2367 0)
(0.652616 -3.38724 0)
(0.652616 -3.53778 0)
(0.652616 -3.68833 0)
(0.652616 -3.83887 0)
(0.652616 -3.98942 0)
(0.652616 -4.13996 0)
(0.652616 -4.2905 0)
(0.652616 -4.44105 0)
(0.652616 -4.59159 0)
(0.652616 -4.74214 0)
(0.652616 -4.89268 0)
(0.652616 -5.04322 0)
(0.652616 -5.19377 0)
(0.652616 -5.34431 0)
(0.652616 -5.49486 0)
(0.652616 -5.6454 0)
(0.652616 -5.79594 0)
(0.652616 -5.94649 0)
(0.652616 -6.09703 0)
(0.652616 -6.24758 0)
(0.652616 -6.39812 0)
(0.652616 -6.54866 0)
(0.652616 -6.69921 0)
(0.652616 -6.84975 0)
(0.652616 -7.0003 0)
(0.652616 -7.15084 0)
(0.652616 -7.30138 0)
(0.652616 -7.45193 0)
(0.745736 -0.075272 0)
(0.745736 -0.225816 0)
(0.745736 -0.37636 0)
(0.745736 -0.526904 0)
(0.745736 -0.677448 0)
(0.745736 -0.827992 0)
(0.745736 -0.978536 0)
(0.745736 -1.12908 0)
(0.745736 -1.27962 0)
(0.745736 -1.43017 0)
(0.745736 -1.58071 0)
(0.745736 -1.73126 0)
(0.745736 -1.8818 0)
(0.745736 -2.03234 0)
(0.745736 -2.18289 0)
(0.745736 -2.33343 0)
(0.745736 -2.48398 0)
(0.745736 -2.63452 0)
(0.745736 -2.78506 0)
(0.745736 -2.93561 0)
(0.745736 -3.08615 0)
(0.745736 -3.2367 0)
(0.745736 -3.38724 0)
(0.745736 -3.53778 0)
(0.745736 -3.68833 0)
(0.745736 -3.83887 0)
(0.745736 -3.98942 0)
(0.745736 -4.13996 0)
(0.745736 -4.2905 0)
(0.745736 -4.44105 0)
(0.745736 -4.59159 0)
(0.745736 -4.74214 0)
(0.745736 -4.89268 0)
(0.745736 -5.04322 0)
(0.745736 -5.19377 0)
(0.745736 -5.34431 0)
(0.745736 -5.49486 0)
(0.745736 -5.6454 0)
(0.745736 -5.79594 0)
(0.745736 -5.94649 0)
(0.745736 -6.09703 0)
(0.745736 -6.24758 0)
(0.745736 -6.39812 0)
(0.745736 -6.54866 0)
(0.745736 -6.69921 0)
(0.745736 -6.84975 0)
(0.745736 -7.0003 0)
(0.745736 -7.15084 0)
(0.745736 -7.30138 0)
(0.745736 -7.45193 0)
(0.845064 -0.075272 0)
(0.845064 -0.225816 0)
(0.845064 -0.37636 0)
(0.845064 -0.526904 0)
(0.845064 -0.677448 0)
(0.845064 -0.827992 0)
(0.845064 -0.978536 0)
(0.845064 -1.12908 0)
(0.845064 -1.27962 0)
(0.845064 -1.43017 0)
(0.845064 -1.58071 0)
(0.845064 -1.73126 0)
(0.845064 -1.8818 0)
(0.845064 -2.03234 0)
(0.845064 -2.18289 0)
(0.845064 -2.33343 0)
(0.845064 -2.48398 0)
(0.845064 -2.63452 0)
(0.845064 -2.78506 0)
(0.845064 -2.93561 0)
(0.845064 -3.08615 0)
(0.845064 -3.2367 0)
(0.845064 -3.38724 0)
(0.845064 -3.53778 0)
(0.845064 -3.68833 0)
(0.845064 -3.83887 0)
(0.845064 -3.98942 0)
(0.845064 -4.13996 0)
(0.845064 -4.2905 0)
(0.845064 -4.44105 0)
(0.845064 -4.59159 0)
(0.845064 -4.74214 0)
(0.845064 -4.89268 0)
(0.845064 -5.04322 0)
(0.845064 -5.19377 0)
(0.845064 -5.34431 0)
(0.845064 -5.49486 0)
(0.845064 -5.6454 0)
(0.845064 -5.79594 0)
(0.845064 -5.94649 0)
(0.845064 -6.09703 0)
(0.845064 -6.24758 0)
(0.845064 -6.39812 0)
(0.845064 -6.54866 0)
(0.845064 -6.69921 0)
(0.845064 -6.84975 0)
(0.845064 -7.0003 0)
(0.845064 -7.15084 0)
(0.845064 -7.30138 0)
(0.845064 -7.45193 0)
(0.9506 -0.075272 0)
(0.9506 -0.225816 0)
(0.9506 -0.37636 0)
(0.9506 -0.526904 0)
(0.9506 -0.677448 0)
(0.9506 -0.827992 0)
(0.9506 -0.978536 0)
(0.9506 -1.12908 0)
(0.9506 -1.27962 0)
(0.9506 -1.43017 0)
(0.9506 -1.58071 0)
(0.9506 -1.73126 0)
(0.9506 -1.8818 0)
(0.9506 -2.03234 0)
(0.9506 -2.18289 0)
(0.9506 -2.33343 0)
(0.9506 -2.48398 0)
(0.9506 -2.63452 0)
(0.9506 -2.78506 0)
(0.9506 -2.93561 0)
(0.9506 -3.08615 0)
(0.9506 -3.2367 0)
(0.9506 -3.38724 0)
(0.9506 -3.53778 0)
(0.9506 -3.68833 0)
(0.9506 -3.83887 0)
(0.9506 -3.98942 0)
(0.9506 -4.13996 0)
(0.9506 -4.2905 0)
(0.9506 -4.44105 0)
(0.9506 -4.59159 0)
(0.9506 -4.74214 0)
(0.9506 -4.89268 0)
(0.9506 -5.04322 0)
(0.9506 -5.19377 0)
(0.9506 -5.34431 0)
(0.9506 -5.49486 0)
(0.9506 -5.6454 0)
(0.9506 -5.79594 0)
(0.9506 -5.94649 0)
(0.9506 -6.09703 0)
(0.9506 -6.24758 0)
(0.9506 -6.39812 0)
(0.9506 -6.54866 0)
(0.9506 -6.69921 0)
(0.9506 -6.84975 0)
(0.9506 -7.0003 0)
(0.9506 -7.15084 0)
(0.9506 -7.30138 0)
(0.9506 -7.45193 0)
(1.06234 -0.075272 0)
(1.06234 -0.225816 0)
(1.06234 -0.37636 0)
(1.06234 -0.526904 0)
(1.06234 -0.677448 0)
(1.06234 -0.827992 0)
(1.06234 -0.978536 0)
(1.06234 -1.12908 0)
(1.06234 -1.27962 0)
(1.06234 -1.43017 0)
(1.06234 -1.58071 0)
(1.06234 -1.73126 0)
(1.06234 -1.8818 0)
(1.06234 -2.03234 0)
(1.06234 -2.18289 0)
(1.06234 -2.33343 0)
(1.06234 -2.48398 0)
(1.06234 -2.63452 0)
(1.06234 -2.78506 0)
(1.06234 -2.93561 0)
(1.06234 -3.08615 0)
(1.06234 -3.2367 0)
(1.06234 -3.38724 0)
(1.06234 -3.53778 0)
(1.06234 -3.68833 0)
(1.06234 -3.83887 0)
(1.06234 -3.98942 0)
(1.06234 -4.13996 0)
(1.06234 -4.2905 0)
(1.06234 -4.44105 0)
(1.06234 -4.59159 0)
(1.06234 -4.74214 0)
(1.06234 -4.89268 0)
(1.06234 -5.04322 0)
(1.06234 -5.19377 0)
(1.06234 -5.34431 0)
(1.06234 -5.49486 0)
(1.06234 -5.6454 0)
(1.06234 -5.79594 0)
(1.06234 -5.94649 0)
(1.06234 -6.09703 0)
(1.06234 -6.24758 0)
(1.06234 -6.39812 0)
(1.06234 -6.54866 0)
(1.06234 -6.69921 0)
(1.06234 -6.84975 0)
(1.06234 -7.0003 0)
(1.06234 -7.15084 0)
(1.06234 -7.30138 0)
(1.06234 -7.45193 0)
(1.1803 -0.075272 0)
(1.1803 -0.225816 0)
(1.1803 -0.37636 0)
(1.1803 -0.526904 0)
(1.1803 -0.677448 0)
(1.1803 -0.827992 0)
(1.1803 -0.978536 0)
(1.1803 -1.12908 0)
(1.1803 -1.27962 0)
(1.1803 -1.43017 0)
(1.1803 -1.58071 0)
(1.1803 -1.73126 0)
(1.1803 -1.8818 0)
(1.1803 -2.03234 0)
(1.1803 -2.18289 0)
(1.1803 -2.33343 0)
(1.1803 -2.48398 0)
(1.1803 -2.63452 0)
(1.1803 -2.78506 0)
(1.1803 -2.93561 0)
(1.1803 -3.08615 0)
(1.1803 -3.2367 0)
(1.1803 -3.38724 0)
(1.1803 -3.53778 0)
(1.1803 -3.68833 0)
(1.1803 -3.83887 0)
(1.1803 -3.98942 0)
(1.1803 -4.13996 0)
(1.1803 -4.2905 0)
(1.1803 -4.44105 0)
(1.1803 -4.59159 0)
(1.1803 -4.74214 0)
(1.1803 -4.89268 0)
(1.1803 -5.04322 0)
(1.1803 -5.19377 0)
(1.1803 -5.34431 0)
(1.1803 -5.49486 0)
(1.1803 -5.6454 0)
(1.1803 -5.79594 0)
(1.1803 -5.94649 0)
(1.1803 -6.09703 0)
(1.1803 -6.24758 0)
(1.1803 -6.39812 0)
(1.1803 -6.54866 0)
(1.1803 -6.69921 0)
(1.1803 -6.84975 0)
(1.1803 -7.0003 0)
(1.1803 -7.15084 0)
(1.1803 -7.30138 0)
(1.1803 -7.45193 0)
(1.30446 -0.075272 0)
(1.30446 -0.225816 0)
(1.30446 -0.37636 0)
(1.30446 -0.526904 0)
(1.30446 -0.677448 0)
(1.30446 -0.827992 0)
(1.30446 -0.978536 0)
(1.30446 -1.12908 0)
(1.30446 -1.27962 0)
(1.30446 -1.43017 0)
(1.30446 -1.58071 0)
(1.30446 -1.73126 0)
(1.30446 -1.8818 0)
(1.30446 -2.03234 0)
(1.30446 -2.18289 0)
(1.30446 -2.33343 0)
(1.30446 -2.48398 0)
(1.30446 -2.63452 0)
(1.30446 -2.78506 0)
(1.30446 -2.93561 0)
(1.30446 -3.08615 0)
(1.30446 -3.2367 0)
(1.30446 -3.38724 0)
(1.30446 -3.53778 0)
(1.30446 -3.68833 0)
(1.30446 -3.83887 0)
(1.30446 -3.98942 0)
(1.30446 -4.13996 0)
(1.30446 -4.2905 0)
(1.30446 -4.44105 0)
(1.30446 -4.59159 0)
(1.30446 -4.74214 0)
(1.30446 -4.89268 0)
(1.30446 -5.04322 0)
(1.30446 -5.19377 0)
(1.30446 -5.34431 0)
(1.30446 -5.49486 0)
(1.30446 -5.6454 0)
(1.30446 -5.79594 0)
(1.30446 -5.94649 0)
(1.30446 -6.09703 0)
(1.30446 -6.24758 0)
(1.30446 -6.39812 0)
(1.30446 -6.54866 0)
(1.30446 -6.69921 0)
(1.30446 -6.84975 0)
(1.30446 -7.0003 0)
(1.30446 -7.15084 0)
(1.30446 -7.30138 0)
(1.30446 -7.45193 0)
(1.43482 -0.075272 0)
(1.43482 -0.225816 0)
(1.43482 -0.37636 0)
(1.43482 -0.526904 0)
(1.43482 -0.677448 0)
(1.43482 -0.827992 0)
(1.43482 -0.978536 0)
(1.43482 -1.12908 0)
(1.43482 -1.27962 0)
(1.43482 -1.43017 0)
(1.43482 -1.58071 0)
(1.43482 -1.73126 0)
(1.43482 -1.8818 0)
(1.43482 -2.03234 0)
(1.43482 -2.18289 0)
(1.43482 -2.33343 0)
(1.43482 -2.48398 0)
(1.43482 -2.63452 0)
(1.43482 -2.78506 0)
(1.43482 -2.93561 0)
(1.43482 -3.08615 0)
(1.43482 -3.2367 0)
(1.43482 -3.38724 0)
(1.43482 -3.53778 0)
(1.43482 -3.68833 0)
(1.43482 -3.83887 0)
(1.43482 -3.98942 0)
(1.43482 -4.13996 0)
(1.43482 -4.2905 0)
(1.43482 -4.44105 0)
(1.43482 -4.59159 0)
(1.43482 -4.74214 0)
(1.43482 -4.89268 0)
(1.43482 -5.04322 0)
(1.43482 -5.19377 0)
(1.43482 -5.34431 0)
(1.43482 -5.49486 0)
(1.43482 -5.6454 0)
(1.43482 -5.79594 0)
(1.43482 -5.94649 0)
(1.43482 -6.09703 0)
(1.43482 -6.24758 0)
(1.43482 -6.39812 0)
(1.43482 -6.54866 0)
(1.43482 -6.69921 0)
(1.43482 -6.84975 0)
(1.43482 -7.0003 0)
(1.43482 -7.15084 0)
(1.43482 -7.30138 0)
(1.43482 -7.45193 0)
(1.5714 -0.075272 0)
(1.5714 -0.225816 0)
(1.5714 -0.37636 0)
(1.5714 -0.526904 0)
(1.5714 -0.677448 0)
(1.5714 -0.827992 0)
(1.5714 -0.978536 0)
(1.5714 -1.12908 0)
(1.5714 -1.27962 0)
(1.5714 -1.43017 0)
(1.5714 -1.58071 0)
(1.5714 -1.73126 0)
(1.5714 -1.8818 0)
(1.5714 -2.03234 0)
(1.5714 -2.18289 0)
(1.5714 -2.33343 0)
(1.5714 -2.48398 0)
(1.5714 -2.63452 0)
(1.5714 -2.78506 0)
(1.5714 -2.93561 0)
(1.5714 -3.08615 0)
(1.5714 -3.2367 0)
(1.5714 -3.38724 0)
(1.5714 -3.53778 0)
(1.5714 -3.68833 0)
(1.5714 -3.83887 0)
(1.5714 -3.98942 0)
(1.5714 -4.13996 0)
(1.5714 -4.2905 0)
(1.5714 -4.44105 0)
(1.5714 -4.59159 0)
(1.5714 -4.74214 0)
(1.5714 -4.89268 0)
(1.5714 -5.04322 0)
(1.5714 -5.19377 0)
(1.5714 -5.34431 0)
(1.5714 -5.49486 0)
(1.5714 -5.6454 0)
(1.5714 -5.79594 0)
(1.5714 -5.94649 0)
(1.5714 -6.09703 0)
(1.5714 -6.24758 0)
(1.5714 -6.39812 0)
(1.5714 -6.54866 0)
(1.5714 -6.69921 0)
(1.5714 -6.84975 0)
(1.5714 -7.0003 0)
(1.5714 -7.15084 0)
(1.5714 -7.30138 0)
(1.5714 -7.45193 0)
(1.71418 -0.075272 0)
(1.71418 -0.225816 0)
(1.71418 -0.37636 0)
(1.71418 -0.526904 0)
(1.71418 -0.677448 0)
(1.71418 -0.827992 0)
(1.71418 -0.978536 0)
(1.71418 -1.12908 0)
(1.71418 -1.27962 0)
(1.71418 -1.43017 0)
(1.71418 -1.58071 0)
(1.71418 -1.73126 0)
(1.71418 -1.8818 0)
(1.71418 -2.03234 0)
(1.71418 -2.18289 0)
(1.71418 -2.33343 0)
(1.71418 -2.48398 0)
(1.71418 -2.63452 0)
(1.71418 -2.78506 0)
(1.71418 -2.93561 0)
(1.71418 -3.08615 0)
(1.71418 -3.2367 0)
(1.71418 -3.38724 0)
(1.71418 -3.53778 0)
(1.71418 -3.68833 0)
(1.71418 -3.83887 0)
(1.71418 -3.98942 0)
(1.71418 -4.13996 0)
(1.71418 -4.2905 0)
(1.71418 -4.44105 0)
(1.71418 -4.59159 0)
(1.71418 -4.74214 0)
(1.71418 -4.89268 0)
(1.71418 -5.04322 0)
(1.71418 -5.19377 0)
(1.71418 -5.34431 0)
(1.71418 -5.49486 0)
(1.71418 -5.6454 0)
(1.71418 -5.79594 0)
(1.71418 -5.94649 0)
(1.71418 -6.09703 0)
(1.71418 -6.24758 0)
(1.71418 -6.39812 0)
(1.71418 -6.54866 0)
(1.71418 -6.69921 0)
(1.71418 -6.84975 0)
(1.71418 -7.0003 0)
(1.71418 -7.15084 0)
(1.71418 -7.30138 0)
(1.71418 -7.45193 0)
(1.86318 -0.075272 0)
(1.86318 -0.225816 0)
(1.86318 -0.37636 0)
(1.86318 -0.526904 0)
(1.86318 -0.677448 0)
(1.86318 -0.827992 0)
(1.86318 -0.978536 0)
(1.86318 -1.12908 0)
(1.86318 -1.27962 0)
(1.86318 -1.43017 0)
(1.86318 -1.58071 0)
(1.86318 -1.73126 0)
(1.86318 -1.8818 0)
(1.86318 -2.03234 0)
(1.86318 -2.18289 0)
(1.86318 -2.33343 0)
(1.86318 -2.48398 0)
(1.86318 -2.63452 0)
(1.86318 -2.78506 0)
(1.86318 -2.93561 0)
(1.86318 -3.08615 0)
(1.86318 -3.2367 0)
(1.86318 -3.38724 0)
(1.86318 -3.53778 0)
(1.86318 -3.68833 0)
(1.86318 -3.83887 0)
(1.86318 -3.98942 0)
(1.86318 -4.13996 0)
(1.86318 -4.2905 0)
(1.86318 -4.44105 0)
(1.86318 -4.59159 0)
(1.86318 -4.74214 0)
(1.86318 -4.89268 0)
(1.86318 -5.04322 0)
(1.86318 -5.19377 0)
(1.86318 -5.34431 0)
(1.86318 -5.49486 0)
(1.86318 -5.6454 0)
(1.86318 -5.79594 0)
(1.86318 -5.94649 0)
(1.86318 -6.09703 0)
(1.86318 -6.24758 0)
(1.86318 -6.39812 0)
(1.86318 -6.54866 0)
(1.86318 -6.69921 0)
(1.86318 -6.84975 0)
(1.86318 -7.0003 0)
(1.86318 -7.15084 0)
(1.86318 -7.30138 0)
(1.86318 -7.45193 0)
(2.01838 -0.075272 0)
(2.01838 -0.225816 0)
(2.01838 -0.37636 0)
(2.01838 -0.526904 0)
(2.01838 -0.677448 0)
(2.01838 -0.827992 0)
(2.01838 -0.978536 0)
(2.01838 -1.12908 0)
(2.01838 -1.27962 0)
(2.01838 -1.43017 0)
(2.01838 -1.58071 0)
(2.01838 -1.73126 0)
(2.01838 -1.8818 0)
(2.01838 -2.03234 0)
(2.01838 -2.18289 0)
(2.01838 -2.33343 0)
(2.01838 -2.48398 0)
(2.01838 -2.63452 0)
(2.01838 -2.78506 0)
(2.01838 -2.93561 0)
(2.01838 -3.08615 0)
(2.01838 -3.2367 0)
(2.01838 -3.38724 0)
(2.01838 -3.53778 0)
(2.01838 -3.68833 0)
(2.01838 -3.83887 0)
(2.01838 -3.98942 0)
(2.01838 -4.13996 0)
(2.01838 -4.2905 0)
(2.01838 -4.44105 0)
(2.01838 -4.59159 0)
(2.01838 -4.74214 0)
(2.01838 -4.89268 0)
(2.01838 -5.04322 0)
(2.01838 -5.19377 0)
(2.01838 -5.34431 0)
(2.01838 -5.49486 0)
(2.01838 -5.6454 0)
(2.01838 -5.79594 0)
(2.01838 -5.94649 0)
(2.01838 -6.09703 0)
(2.01838 -6.24758 0)
(2.01838 -6.39812 0)
(2.01838 -6.54866 0)
(2.01838 -6.69921 0)
(2.01838 -6.84975 0)
(2.01838 -7.0003 0)
(2.01838 -7.15084 0)
(2.01838 -7.30138 0)
(2.01838 -7.45193 0)
(2.17978 -0.075272 0)
(2.17978 -0.225816 0)
(2.17978 -0.37636 0)
(2.17978 -0.526904 0)
(2.17978 -0.677448 0)
(2.17978 -0.827992 0)
(2.17978 -0.978536 0)
(2.17978 -1.12908 0)
(2.17978 -1.27962 0)
(2.17978 -1.43017 0)
(2.17978 -1.58071 0)
(2.17978 -1.73126 0)
(2.17978 -1.8818 0)
(2.17978 -2.03234 0)
(2.17978 -2.18289 0)
(2.17978 -2.33343 0)
(2.17978 -2.48398 0)
(2.17978 -2.63452 0)
(2.17978 -2.78506 0)
(2.17978 -2.93561 0)
(2.17978 -3.08615 0)
(2.17978 -3.2367 0)
(2.17978 -3.38724 0)
(2.17978 -3.53778 0)
(2.17978 -3.68833 0)
(2.17978 -3.83887 0)
(2.17978 -3.98942 0)
(2.17978 -4.13996 0)
(2.17978 -4.2905 0)
(2.17978 -4.44105 0)
(2.17978 -4.59159 0)
(2.17978 -4.74214 0)
(2.17978 -4.89268 0)
(2.17978 -5.04322 0)
(2.17978 -5.19377 0)
(2.17978 -5.34431 0)
(2.17978 -5.49486 0)
(2.17978 -5.6454 0)
(2.17978 -5.79594 0)
(2.17978 -5.94649 0)
(2.17978 -6.09703 0)
(2.17978 -6.24758 0)
(2.17978 -6.39812 0)
(2.17978 -6.54866 0)
(2.17978 -6.69921 0)
(2.17978 -6.84975 0)
(2.17978 -7.0003 0)
(2.17978 -7.15084 0)
(2.17978 -7.30138 0)
(2.17978 -7.45193 0)
(2.3474 -0.075272 0)
(2.3474 -0.225816 0)
(2.3474 -0.37636 0)
(2.3474 -0.526904 0)
(2.3474 -0.677448 0)
(2.3474 -0.827992 0)
(2.3474 -0.978536 0)
(2.3474 -1.12908 0)
(2.3474 -1.27962 0)
(2.3474 -1.43017 0)
(2.3474 -1.58071 0)
(2.3474 -1.73126 0)
(2.3474 -1.8818 0)
(2.3474 -2.03234 0)
(2.3474 -2.18289 0)
(2.3474 -2.33343 0)
(2.3474 -2.48398 0)
(2.3474 -2.63452 0)
(2.3474 -2.78506 0)
(2.3474 -2.93561 0)