/*--------------------------------*- C++ -*----------------------------------*\
| =========                 |                                                 |
| \\      /  F ield         | OpenFOAM: The Open Source CFD Toolbox           |
|  \\    /   O peration     | Version:  v2006                                 |
|   \\  /    A nd           | Website:  www.openfoam.com                      |
|    \\/     M anipulation  |                                                 |
\*---------------------------------------------------------------------------*/
FoamFile
{
    version     2.0;
    format      ascii;
    class       volScalarField;
    location    "0";
    object      f;
}
// * * * * * * * * * * * * * * * * * * * * * * * * * * * * * * * * * * * * * //

dimensions      [0 0 0 0 0 0 0];


internalField   nonuniform List<scalar> 
2500
(
2.15765e-07
-9.20725e-07
-1.09311e-06
4.53898e-06
2.67211e-06
-1.65189e-05
-9.48935e-06
4.5372e-05
3.47295e-05
-0.000108689
-0.000121516
0.000207495
0.000379714
-0.000260673
-0.00103448
-9.85994e-05
0.00246005
0.00237179
-0.00405765
-0.0119868
-0.00544184
0.0308251
0.0942588
0.151073
0.150817
0.0727132
-0.069131
-0.182732
-0.146821
0.141228
0.713511
1.46728
2.18244
2.61466
2.63147
2.35171
1.84401
1.25864
0.735021
0.352077
0.125853
0.0233439
-9.49717e-05
-5.91325e-05
-2.19488e-05
-7.23416e-06
-1.68742e-06
-7.96967e-08
5.74759e-08
4.07563e-08
-3.98713e-08
4.22953e-08
2.50201e-07
-2.45605e-07
-8.40521e-07
9.92908e-07
2.72087e-06
-2.33087e-06
-8.01765e-06
4.09068e-06
2.13931e-05
-6.1921e-07
-5.55798e-05
-2.25526e-05
0.000132376
0.000130721
-0.000236261
-0.000591769
3.43483e-06
0.00172249
0.00286673
0.000360822
-0.00799609
-0.0185807
-0.0254293
-0.0237288
-0.012486
0.00237022
0.013572
0.0127489
-0.00490741
-0.0393651
-0.0860641
-0.126969
-0.147855
-0.150144
-0.134619
-0.105905
-0.0722117
-0.0420344
-0.0194913
-0.00561652
-0.000519668
-4.63374e-05
-1.65355e-05
-4.16957e-06
9.48148e-08
2.66112e-07
1.34799e-07
2.90736e-08
4.09934e-08
-2.02872e-07
-1.98724e-07
1.01952e-06
4.67029e-07
-3.6726e-06
-1.75357e-06
1.00515e-05
6.88014e-06
-2.35402e-05
-2.46735e-05
4.24124e-05
7.81886e-05
-4.67132e-05
-0.00019263
-3.33942e-05
0.000399318
0.000374672
-0.000672765
-0.00179607
-0.000401143
0.0064211
0.0183164
0.0289123
0.0281439
0.00885987
-0.0266206
-0.0547864
-0.0433683
0.0367092
0.193563
0.396785
0.586192
0.690794
0.687713
0.603695
0.462882
0.307187
0.172627
0.0784817
0.0253847
0.00355315
-0.000158496
-0.000104117
-3.38214e-05
-3.83717e-06
1.1484e-06
6.67857e-07
1.91646e-07
1.20473e-08
-9.10058e-09
3.94472e-09
6.33795e-08
-2.51735e-08
-2.09398e-07
9.80639e-08
6.24027e-07
-3.32057e-07
-1.47136e-06
1.25655e-06
3.78266e-06
-4.14918e-06
-1.14203e-05
1.3192e-05
4.92292e-05
-1.21511e-05
-0.00018399
-0.000173783
0.000331841
0.00101272
0.000895556
-0.000772807
-0.00352692
-0.0056978
-0.0069739
-0.00941827
-0.0137143
-0.0168471
-0.0121751
0.00677001
0.0403587
0.0799721
0.110809
0.116897
0.105347
0.0797088
0.048486
0.0212782
0.00365894
-0.00383384
-0.00451387
-0.00196078
-0.000541457
-0.000123418
-1.02683e-05
5.66632e-06
3.32994e-06
9.93467e-07
1.12263e-07
-3.13446e-08
-1.79322e-09
3.1792e-08
4.89583e-09
-1.46242e-07
3.12365e-08
4.81323e-07
-1.47522e-07
-1.57685e-06
4.34829e-07
4.94915e-06
2.62439e-08
-1.44975e-05
-5.76152e-06
3.9986e-05
4.30298e-05
-7.91014e-05
-0.000212871
-8.95194e-06
0.000604028
0.000865751
-0.00020851
-0.00268836
-0.00471557
-0.00435014
-0.00278283
-0.00261262
-0.00650691
-0.0130063
-0.015014
-0.00558942
0.0170869
0.0468887
0.0719
0.0818553
0.0762183
0.0596294
0.0385334
0.019684
0.006707
0.000240974
-0.00165495
-0.0011041
-0.000422368
-7.31729e-05
1.77468e-05
1.22943e-05
4.33723e-06
6.4137e-07
-7.67745e-08
-5.10348e-08
-8.56795e-09
6.86406e-08
3.97449e-08
-3.29638e-07
-8.74277e-08
1.13338e-06
2.32453e-07
-3.30558e-06
-9.95971e-07
8.62957e-06
4.84842e-06
-2.01978e-05
-1.91374e-05
4.23411e-05
6.81161e-05
-6.92052e-05
-0.00023537
-3.16037e-05
0.000650226
0.000952592
-0.000379618
-0.00370237
-0.00731085
-0.00828931
-0.00605665
-0.00212928
0.000375974
-0.000698888
-0.00545391
-0.0127806
-0.0227629
-0.0351497
-0.0489396
-0.0593078
-0.0639608
-0.0620273
-0.0536582
-0.0406468
-0.0265884
-0.0143937
-0.00605045
-0.00181427
-0.000254504
6.1745e-05
3.94455e-05
1.4861e-05
2.98127e-06
-1.22e-07
-1.12905e-07
-5.39962e-08
-6.88223e-09
5.58972e-08
3.30684e-08
-2.66036e-07
-7.66553e-08
8.82421e-07
1.93997e-07
-2.52123e-06
-9.17017e-07
6.22279e-06
4.18741e-06
-1.35608e-05
-1.42113e-05
2.47069e-05
3.99002e-05
-3.99598e-05
-0.000123363
2.60121e-05
0.000397865
0.000433754
-0.000568002
-0.0027234
-0.00470877
-0.00478152
-0.0025723
0.00115121
0.00407868
0.00376628
-0.00120548
-0.0120232
-0.0279297
-0.047228
-0.0648321
-0.0758198
-0.076418
-0.0692252
-0.0552731
-0.0384543
-0.0225849
-0.0108807
-0.00399748
-0.000852252
5.92912e-05
5.85535e-05
3.06059e-05
9.05454e-06
4.49682e-07
-2.11521e-07
-1.33315e-07
-4.1451e-08
-6.6695e-09
2.26141e-08
4.24113e-08
-1.10074e-07
-1.43396e-07
3.38309e-07
3.99922e-07
-8.57721e-07
-1.27737e-06
1.59673e-06
3.69949e-06
-1.45853e-06
-8.4228e-06
-3.44754e-06
9.5625e-06
9.91604e-06
3.06088e-06
1.1674e-05
4.13175e-05
-1.99283e-05
-0.000338567
-0.000857299
-0.00131507
-0.00124408
-0.000203758
0.00197267
0.00461554
0.005652
0.00288238
-0.00603929
-0.0214692
-0.0401021
-0.0568294
-0.0650958
-0.0638854
-0.0549919
-0.0411689
-0.026386
-0.0141325
-0.005967
-0.00160647
2.19385e-05
6.16131e-05
3.49692e-05
1.10716e-05
7.63392e-07
-8.01167e-07
-4.35984e-07
-1.42663e-07
-1.06032e-08
-6.03631e-09
-1.3122e-08
4.68968e-08
5.51729e-08
-1.79359e-07
-2.25763e-07
5.26793e-07
7.64887e-07
-1.29599e-06
-2.55403e-06
2.4462e-06
7.91988e-06
-1.85149e-06
-2.17543e-05
-1.38457e-05
4.07705e-05
7.76453e-05
-2.78104e-06
-0.000191895
-0.000276368
4.1117e-06
0.000639171
0.0011595
0.00119472
0.00111145
0.00167084
0.00310054
0.00448656
0.00383294
-0.000339289
-0.00785578
-0.0166627
-0.0233669
-0.0250723
-0.0225211
-0.0169914
-0.0104429
-0.00485264
-0.00124675
0.000434755
0.000823014
0.000408158
0.000104484
4.59765e-06
-9.03949e-06
-5.4291e-06
-1.88107e-06
-4.42549e-07
-4.76674e-08
3.31044e-08
-5.60657e-09
-3.13751e-08
4.61995e-08
1.36746e-07
-1.87882e-07
-4.79282e-07
5.57665e-07
1.48637e-06
-1.19193e-06
-4.21503e-06
1.47227e-06
1.09666e-05
1.65326e-06
-2.54298e-05
-2.04827e-05
4.47737e-05
8.52227e-05
-1.8264e-05
-0.000240898
-0.000247125
0.000247216
0.00109819
0.00159988
0.00142383
0.000799059
0.000475347
0.000937652
0.0019271
0.00252478
0.00219136
0.00158589
0.00193043
0.00392691
0.00667668
0.00935007
0.0109207
0.0106214
0.00879378
0.00614709
0.00355528
0.00157435
0.000481982
5.36665e-05
-2.65473e-05
-1.86235e-05
-7.95055e-06
-1.98661e-06
-9.20329e-08
6.83968e-08
4.57558e-08
-4.92182e-09
-3.04689e-08
4.10986e-08
1.27891e-07
-1.6715e-07
-4.30737e-07
4.80484e-07
1.32389e-06
-9.65863e-07
-3.57723e-06
8.83915e-07
8.56097e-06
2.28966e-06
-1.74491e-05
-1.44175e-05
2.70001e-05
4.62475e-05
-2.734e-05
-0.00012556
-6.73961e-05
0.000273796
0.000652958
0.000653308
0.000348569
-0.000113362
-0.000451827
-0.000531582
-0.000461159
-2.03461e-05
0.00143627
0.00468309
0.00999959
0.016057
0.0208609
0.0228158
0.0215683
0.0176707
0.0124653
0.00744865
0.00362013
0.00130336
0.000248986
-4.22891e-05
-3.63097e-05
-1.84158e-05
-5.48566e-06
-5.6299e-07
1.72509e-07
9.82676e-08
2.82029e-08
-3.88334e-09
-1.49359e-08
3.06633e-08
5.67694e-08
-1.19941e-07
-1.86643e-07
3.34114e-07
5.78021e-07
-6.69102e-07
-1.61788e-06
6.81283e-07
3.69353e-06
7.66744e-07
-5.75629e-06
-3.76867e-06
3.46641e-06
-1.61938e-06
-8.109e-06
2.56663e-05
9.40641e-05
8.54817e-05
-0.000156715
-0.000508422
-0.000741799
-0.00070145
-0.000660101
-0.000948461
-0.00162589
-0.00193933
-0.000659535
0.00313323
0.00895175
0.0150669
0.019247
0.0195949
0.0173449
0.0131482
0.00842601
0.00441907
0.00176857
0.000399521
-7.66905e-05
-5.87037e-05
-2.86824e-05
-7.91976e-06
-1.18227e-07
6.00899e-07
2.81501e-07
5.63987e-08
-8.71105e-09
-2.58761e-09
1.10823e-09
1.67216e-08
-9.6362e-09
-5.98836e-08
3.07972e-08
1.63073e-07
-7.43858e-08
-3.83825e-07
5.27439e-08
6.98145e-07
-1.39691e-07
-8.44915e-07
1.85428e-06
2.90635e-06
-9.95903e-06
-2.22641e-05
1.29864e-05
9.89787e-05
0.00011656
-0.000109222
-0.000566807
-0.000993361
-0.000980111
-0.000634981
-0.000309013
-0.000607029
-0.00156596
-0.00230949
-0.00180485
0.000359384
0.00372671
0.00694152
0.00840281
0.00800041
0.00625805
0.00395647
0.00186802
0.000481829
-0.000159941
-0.000311193
-0.000177994
-6.39528e-05
-9.10067e-06
5.27331e-06
3.5252e-06
1.2288e-06
1.78275e-07
-4.33548e-08
-3.18144e-08
-9.58128e-10
7.715e-09
5.78488e-09
-3.54944e-08
-2.06244e-08
1.19429e-07
5.61076e-08
-3.31746e-07
-2.01298e-07
7.48666e-07
5.96622e-07
-1.53558e-06
-1.36519e-06
3.46998e-06
3.43078e-06
-9.54407e-06
-1.61825e-05
1.79558e-05
7.54472e-05
4.77681e-05
-0.00015129
-0.000497168
-0.00067409
-0.000516362
-0.000111343
0.000134193
-8.33662e-05
-0.000704795
-0.00129426
-0.00139591
-0.000987558
-0.000523713
-0.000616976
-0.00118004
-0.00192864
-0.0025123
-0.00267281
-0.00234699
-0.00170024
-0.00101589
-0.000462272
-0.000155688
-2.16094e-05
1.41465e-05
1.03635e-05
4.40818e-06
9.80668e-07
-5.10511e-08
-6.14575e-08
-3.23175e-08
2.5897e-10
5.73605e-09
-1.07768e-09
-2.64436e-08
1.42552e-09
9.26955e-08
-9.66361e-10
-2.52673e-07
-6.31841e-08
5.95245e-07
3.8744e-07
-1.06681e-06
-1.04066e-06
1.1289e-06
1.49963e-06
-1.10619e-06
-1.12034e-06
9.1339e-06
1.15922e-05
-2.09669e-05
-9.58788e-05
-0.000122273
-5.84746e-05
9.09909e-05
0.000224066
0.000240186
0.000174512
0.000138149
0.000105369
-0.000115465
-0.000809193
-0.00209431
-0.00369223
-0.00500684
-0.00556768
-0.00529352
-0.00432766
-0.00302148
-0.00177478
-0.000827539
-0.000273304
-3.40371e-05
2.82741e-05
2.01859e-05
8.97974e-06
2.23558e-06
-7.13438e-08
-1.17952e-07
-6.32714e-08
-1.41353e-08
5.70273e-10
1.44895e-09
-3.73234e-09
-6.48321e-09
1.24826e-08
1.8361e-08
-2.79282e-08
-5.22499e-08
4.54985e-08
1.38195e-07
2.32835e-08
-9.50667e-08
-2.44317e-07
-8.61646e-07
-4.21291e-07
3.75866e-06
7.50045e-06
-1.76593e-06
-2.60739e-05
-4.71634e-05
2.20782e-06
0.000137991
0.000285045
0.000329486
0.000225147
8.7889e-05
0.000156885
0.000481112
0.000808968
0.000715129
-8.61992e-05
-0.00151981
-0.00305788
-0.00404138
-0.0040644
-0.00351635
-0.00254229
-0.00150164
-0.000679884
-0.000193091
5.73205e-06
5.04379e-05
3.31733e-05
1.33658e-05
2.74221e-06
-6.86699e-07
-4.61337e-07
-1.82883e-07
-3.81905e-08
5.65347e-09
5.0198e-10
-1.42665e-09
-3.11271e-09
6.58848e-09
1.33907e-08
-2.37909e-08
-3.8345e-08
6.62332e-08
1.07621e-07
-1.42996e-07
-2.45844e-07
3.04369e-07
4.61709e-07
-8.96168e-07
-1.13324e-06
2.87679e-06
6.13666e-06
-3.98933e-06
-2.87274e-05
-2.33608e-05
4.75447e-05
0.00016942
0.000256569
0.000206813
3.42383e-05
-8.40969e-05
2.18757e-05
0.00035674
0.000680761
0.000677626
0.000288952
-0.000302339
-0.000817691
-0.000933815
-0.000744865
-0.000376467
-8.55722e-06
0.000229599
0.000296916
0.000237847
0.000138495
5.83544e-05
1.61037e-05
1.30402e-06
-2.22679e-06
-1.40931e-06
-5.32178e-07
-1.02131e-07
1.56377e-08
1.28976e-08
2.75456e-10
-1.34803e-09
-2.34591e-09
7.46077e-09
9.85996e-09
-2.66685e-08
-3.03972e-08
7.03441e-08
9.94727e-08
-1.47038e-07
-2.86875e-07
1.72345e-07
5.98013e-07
7.8026e-08
-7.0533e-07
-4.43748e-07
8.4675e-07
-2.80255e-06
-6.22454e-06
3.38157e-06
3.49747e-05
6.15775e-05
4.77381e-05
-1.72337e-05
-9.12656e-05
-0.000110181
-5.41065e-05
4.00811e-05
0.000101728
0.000122426
0.000202504
0.000403917
0.000774046
0.00112982
0.00132508
0.00133895
0.00118098
0.00088284
0.000549793
0.000277578
0.000108164
2.28118e-05
-4.94242e-06
-5.00569e-06
-2.77016e-06
-9.74309e-07
-1.68187e-07
5.56611e-08
3.55151e-08
1.34664e-08
7.07365e-11
-3.42636e-10
-6.64935e-10
2.25271e-09
2.62567e-09
-7.14728e-09
-7.88624e-09
1.41688e-08
3.04921e-08
-2.17929e-08
-1.05827e-07
-7.01968e-08
2.17072e-07
5.46416e-07
9.87517e-08
-1.47354e-06
-3.03214e-06
6.76313e-07
8.52972e-06
1.42004e-05
1.29323e-06
-3.77656e-05
-8.26112e-05
-9.66813e-05
-6.27793e-05
-1.98678e-05
-3.66398e-05
-0.000142398
-0.000265585
-0.000255609
-1.93165e-05
0.000456048
0.000980711
0.00136024
0.00141381
0.00126252
0.000940609
0.000576351
0.000279206
9.53007e-05
1.07373e-05
-1.5843e-05
-1.13545e-05
-5.27113e-06
-1.38333e-06
-6.29623e-08
1.65184e-07
9.59221e-08
3.25951e-08
2.93732e-09
-9.21001e-11
3.83672e-10
7.38528e-10
-1.90468e-09
-3.66765e-09
8.26368e-09
1.10666e-08
-2.42793e-08
-3.45681e-08
5.922e-08
9.06866e-08
-1.25504e-07
-2.1196e-07
2.50206e-07
6.15772e-07
-7.56934e-07
-2.09992e-06
6.91178e-07
8.10679e-06
7.57482e-06
-1.24042e-05
-4.84909e-05
-7.25957e-05
-4.63253e-05
1.77344e-05
5.63927e-05
1.06033e-05
-0.000124143
-0.000248716
-0.000246996
-9.06637e-05
0.000155266
0.000382529
0.00047307
0.00042718
0.000281617
0.000115962
-5.9482e-06
-6.1778e-05
-6.48787e-05
-4.37194e-05
-2.10799e-05
-7.71198e-06
-1.58818e-06
4.63913e-07
3.71067e-07
1.7472e-07
4.29329e-08
-1.27733e-11
-5.96264e-09
-1.49845e-10
4.07277e-10
1.19702e-09
-2.31745e-09
-4.81698e-09
8.40993e-09
1.5232e-08
-2.23546e-08
-4.74329e-08
4.33176e-08
1.35251e-07
-2.57495e-08
-3.05499e-07
-1.22931e-07
3.55895e-07
5.0103e-07
-6.35696e-09
-5.03831e-08
2.41224e-08
-1.43577e-06
-5.99298e-06
-9.52153e-06
-3.35551e-06
1.66499e-05
4.12245e-05
4.72917e-05
2.43117e-05
-1.05495e-05
-3.00956e-05
-2.81221e-05
-3.83347e-05
-9.04646e-05
-0.000198925
-0.000309116
-0.000378563
-0.000395452
-0.000354344
-0.000271147
-0.000172337
-8.91501e-05
-3.6336e-05
-8.37877e-06
8.13124e-07
1.87525e-06
1.12815e-06
4.22132e-07
7.45752e-08
-2.10811e-08
-1.47822e-08
-5.31419e-09
-7.23517e-11
-2.7376e-11
5.9656e-10
-2.1118e-10
-2.17356e-09
4.80635e-10
5.8379e-09
8.48338e-10
-1.57655e-08
-1.02987e-08
4.38831e-08
5.23323e-08
-6.15395e-08
-2.39578e-07
-6.53e-08
6.14953e-07
1.00443e-06
-4.13514e-07
-3.35025e-06
-4.08886e-06
2.14654e-06
1.60674e-05
2.80701e-05
2.61397e-05
9.71968e-06
-5.33244e-06
6.17735e-06
5.1069e-05
0.000100793
0.000100559
2.08578e-05
-0.000139627
-0.000318234
-0.000442204
-0.000458952
-0.000406875
-0.000303094
-0.000183155
-8.70536e-05
-2.82508e-05
-1.93246e-06
5.85437e-06
4.27553e-06
2.01861e-06
5.96815e-07
7.86717e-08
-5.15899e-08
-3.16417e-08
-1.08795e-08
-9.45403e-10
3.21721e-11
-2.62257e-10
-2.37244e-10
1.20751e-09
9.51514e-10
-4.34514e-09
-3.74463e-09
1.29977e-08
1.44554e-08
-3.01811e-08
-4.96139e-08
5.71695e-08
1.26577e-07
-5.83061e-08
-2.80755e-07
2.03916e-08
5.81445e-07
1.40718e-07
-1.52259e-06
-1.75542e-06
2.90849e-06
1.20897e-05
1.40817e-05
2.41525e-06
-1.86933e-05
-2.9863e-05
-1.12819e-05
3.49803e-05
7.59857e-05
7.46764e-05
2.41912e-05
-5.4182e-05
-0.000121275
-0.000139622
-0.000117164
-6.94107e-05
-1.92673e-05
1.4918e-05
2.79896e-05
2.45296e-05
1.58102e-05
7.29277e-06
2.45355e-06
4.45968e-07
-2.20734e-07
-1.63311e-07
-7.06574e-08
-1.6864e-08
2.93859e-10
2.39138e-09
5.64653e-11
-1.23537e-10
-4.44131e-10
7.17039e-10
1.77911e-09
-2.44702e-09
-5.58939e-09
6.40911e-09
1.75696e-08
-1.23149e-08
-4.95655e-08
-9.3725e-10
1.17652e-07
9.32308e-08
-1.56357e-07
-3.50613e-07
-1.02319e-07
5.11207e-07
8.11606e-07
6.38756e-07
-1.32991e-08
-2.23129e-06
-6.18792e-06
-1.17671e-05
-1.66125e-05
-1.48445e-05
-9.8642e-06
-5.92527e-06
-7.44968e-06
-8.82349e-06
1.51505e-06
3.10171e-05
7.99623e-05
0.00012445
0.000147263
0.000147967
0.000128344
9.37191e-05
5.69184e-05
2.78021e-05
1.00386e-05
1.82425e-06
-9.21462e-07
-7.92391e-07
-4.12739e-07
-1.41943e-07
-2.20896e-08
9.56031e-09
6.14892e-09
1.84087e-09
2.03033e-11
1.01815e-10
-1.45296e-10
-3.98349e-10
6.54741e-10
1.33814e-09
-1.69108e-09
-4.15072e-09
2.50176e-09
1.19881e-08
-1.98197e-09
-3.15304e-08
-9.54166e-09
8.11445e-08
6.8459e-08
-1.74957e-07
-2.95912e-07
1.4488e-07
9.94968e-07
9.4325e-07
-1.54706e-06
-5.7698e-06
-8.24512e-06
-5.16931e-06
3.25648e-06
8.76718e-06
1.66978e-06
-1.89197e-05
-3.89687e-05
-3.81977e-05
-8.64871e-06
4.67673e-05
0.000104336
0.000140226
0.000141834
0.00012096
8.46187e-05
4.76191e-05
1.97905e-05
4.02777e-06
-2.07644e-06
-2.55716e-06
-1.57506e-06
-6.73944e-07
-1.52894e-07
2.45902e-08
2.43143e-08
1.20456e-08
3.19859e-09
-9.90274e-11
-1.53516e-11
1.26506e-10
1.01683e-10
-5.89258e-10
-3.98063e-10
2.03526e-09
1.47702e-09
-5.76392e-09
-6.19414e-09
1.2799e-08
2.33422e-08
-1.76092e-08
-6.58099e-08
-9.88373e-09
1.2644e-07
1.28903e-07
-1.27611e-07
-2.93599e-07
-4.12779e-08
1.72693e-07
-2.0339e-07
-8.51954e-07
1.02247e-07
4.2763e-06
1.05061e-05
1.22911e-05
6.24624e-06
-6.30187e-06
-1.57117e-05
-1.4672e-05
-2.92799e-06
1.17782e-05
2.21111e-05
1.63138e-05
5.27293e-06
-6.95998e-06
-1.59486e-05
-1.88197e-05
-1.59497e-05
-1.07058e-05
-5.49049e-06
-2.12482e-06
-4.33434e-07
1.03492e-07
1.31085e-07
7.15544e-08
2.42667e-08
3.70543e-09
-1.51273e-09
-1.07968e-09
-1.19417e-11
-1.06084e-11
1.08159e-10
-4.75207e-12
-4.91061e-10
8.74879e-11
1.6021e-09
-6.28349e-11
-4.45883e-09
-9.26857e-10
1.26573e-08
8.00886e-09
-2.83623e-08
-4.22767e-08
4.00321e-08
1.36153e-07
5.61538e-08
-2.41903e-07
-4.867e-07
-1.97878e-07
8.81251e-07
2.51046e-06
3.91437e-06
4.37451e-06
2.72809e-06
1.29424e-06
2.08251e-06
5.95698e-06
1.08459e-05
1.10153e-05
2.12484e-06
-1.56098e-05
-3.86555e-05
-5.58074e-05
-6.29839e-05
-5.90676e-05
-4.67938e-05
-3.12117e-05
-1.72652e-05
-7.35007e-06
-1.85436e-06
1.92361e-07
5.02418e-07
3.32958e-07
1.38894e-07
3.02122e-08
-3.35004e-09
-3.88796e-09
-1.96339e-09
-4.39485e-10
-2.99737e-12
-7.9322e-11
2.70464e-11
3.32166e-10
-1.23089e-10
-1.08539e-09
2.46609e-10
3.00457e-09
5.24253e-10
-7.2903e-09
-5.64137e-09
1.34668e-08
2.04948e-08
-1.21323e-08
-4.97949e-08
-1.44901e-08
8.14723e-08
5.97345e-08
-1.04326e-07
-1.22514e-07
3.52004e-07
1.17237e-06
1.10585e-06
-9.11214e-07
-4.12525e-06
-5.51473e-06
-2.19594e-06
5.37099e-06
1.17929e-05
1.11e-05
1.57465e-06
-1.43817e-05
-2.81495e-05
-3.49508e-05
-3.30933e-05
-2.51721e-05
-1.50497e-05
-6.25503e-06
-7.57309e-07
1.47694e-06
1.58361e-06
9.6691e-07
3.90618e-07
9.33158e-08
-4.54658e-09
-1.98058e-08
-1.12552e-08
-3.88177e-09
-6.57621e-10
3.19433e-10
-2.44134e-14
-2.2393e-11
-1.70188e-11
1.19951e-10
1.13057e-10
-4.18438e-10
-5.7891e-10
1.1937e-09
2.33682e-09
-2.82105e-09
-8.19874e-09
2.22922e-09
2.35979e-08
1.25019e-08
-4.67865e-08
-6.86933e-08
1.31963e-08
1.70958e-07
2.07126e-07
-1.64507e-08
-4.20914e-07
-9.23827e-07
-1.60949e-06
-2.43542e-06
-3.14529e-06
-2.98022e-06
-2.09633e-06
-8.08916e-07
-3.63501e-07
-6.1369e-07
-7.46073e-07
1.34443e-06
5.76842e-06
1.09293e-05
1.46026e-05
1.60258e-05
1.45987e-05
1.14462e-05
7.43706e-06
3.91451e-06
1.59516e-06
3.66077e-07
-3.81107e-08
-9.42473e-08
-6.17829e-08
-2.37594e-08
-4.63526e-09
7.50536e-10
6.46492e-10
3.30067e-10
3.16654e-12
3.55589e-11
-2.7615e-11
-1.40548e-10
1.42514e-10
4.16173e-10
-4.43802e-10
-1.0462e-09
7.18174e-10
2.6773e-09
-4.88269e-10
-5.60661e-09
-1.32187e-09
9.72569e-09
7.6769e-09
-1.8587e-08
-2.44862e-08
3.37185e-08
1.04507e-07
1.93801e-08
-3.3908e-07
-8.39225e-07
-9.99565e-07
-3.15299e-07
9.39831e-07
1.50724e-06
2.88266e-07
-2.68557e-06
-5.26563e-06
-4.99136e-06
-6.04688e-07
7.04199e-06
1.51779e-05
2.03986e-05
2.05049e-05
1.78221e-05
1.30913e-05
7.68518e-06
3.49e-06
1.0053e-06
-3.70796e-08
-2.73746e-07
-1.84894e-07
-7.90909e-08
-2.00809e-08
-4.47668e-10
3.06446e-09
1.7866e-09
6.39581e-10
4.65061e-11
3.29638e-12
2.07096e-11
-1.8337e-11
-9.80055e-11
3.03856e-11
3.34187e-10
7.55229e-11
-1.00992e-09
-7.1585e-10
2.54665e-09
3.61519e-09
-3.90135e-09
-1.19127e-08
-6.07975e-10
2.46749e-08
2.91666e-08
-1.83621e-08
-8.09541e-08
-6.73126e-08
2.0155e-08
1.22395e-07
2.36824e-07
5.27542e-07
1.15644e-06
1.86049e-06
1.96345e-06
1.11184e-06
-4.67548e-07
-1.61967e-06
-1.33066e-06
2.413e-07
2.0929e-06
3.4469e-06
2.65745e-06
1.20692e-06
-4.72888e-07
-1.78115e-06
-2.2811e-06
-1.99653e-06
-1.35936e-06
-7.14256e-07
-2.80983e-07
-6.31767e-08
6.9059e-09
1.64464e-08
1.0341e-08
3.62868e-09
5.82882e-10
-1.73823e-10
-1.4478e-10
-1.31094e-12
-1.33672e-11
1.2093e-11
4.31587e-11
-6.96665e-11
-9.51227e-11
2.23297e-10
1.86477e-10
-5.69123e-10
-4.42121e-10
1.26895e-09
1.15919e-09
-2.94742e-09
-4.35238e-09
5.37594e-09
1.64873e-08
1.59216e-09
-4.32788e-08
-6.54659e-08
9.83191e-09
2.11694e-07
4.68474e-07
6.04211e-07
4.89443e-07
1.457e-07
-5.81128e-08
2.41019e-07
1.03671e-06
1.78692e-06
1.70363e-06
1.94689e-07
-2.51473e-06
-5.77174e-06
-7.98874e-06
-8.7331e-06
-8.03243e-06
-6.28184e-06
-4.14146e-06
-2.25672e-06
-9.53104e-07
-2.40706e-07
2.10241e-08
6.10573e-08
3.95613e-08
1.60562e-08
3.53414e-09
-2.12987e-10
-5.31444e-10
-2.98812e-10
-8.10062e-11
-2.1942e-12
-1.17223e-11
1.6442e-11
5.14153e-11
-4.36431e-11
-1.80681e-10
5.12011e-11
5.47058e-10
1.39709e-10
-1.38183e-09
-1.23079e-09
2.44328e-09
4.43992e-09
-7.35014e-10
-1.07799e-08
-9.17381e-09
1.05403e-08
2.56123e-08
1.51824e-08
-1.9985e-09
2.89167e-09
2.51393e-09
-1.17621e-07
-4.38345e-07
-8.48477e-07
-9.19696e-07
-4.48086e-07
4.93029e-07
1.20009e-06
1.04028e-06
-6.93814e-08
-1.87089e-06
-3.23649e-06
-3.71949e-06
-3.33437e-06
-2.37051e-06
-1.24659e-06
-3.53979e-07
1.42764e-07
2.89747e-07
2.27827e-07
1.25321e-07
4.71665e-08
9.78129e-09
-1.98805e-09
-2.90855e-09
-1.6808e-09
-5.35005e-10
-5.27218e-11
5.58941e-11
2.947e-13
3.05065e-12
-4.01304e-12
-3.8994e-12
2.11799e-11
-9.88284e-12
-7.03336e-11
7.25675e-11
2.35792e-10
-2.11283e-10
-8.05882e-10
2.5265e-10
2.57314e-09
1.24289e-09
-5.83094e-09
-9.16923e-09
3.19225e-09
2.71754e-08
3.36034e-08
-8.5287e-09
-1.06056e-07
-2.22711e-07
-3.08813e-07
-3.47033e-07
-2.83901e-07
-2.26219e-07
-2.34423e-07
-3.2561e-07
-4.66763e-07
-4.34667e-07
-1.15045e-07
6.42051e-07
1.59653e-06
2.39046e-06
2.84053e-06
2.78687e-06
2.35431e-06
1.68721e-06
1.01354e-06
4.8872e-07
1.76096e-07
2.96152e-08
-1.54471e-08
-1.36218e-08
-7.52496e-09
-2.60011e-09
-3.61843e-10
1.81329e-10
1.08336e-10
3.54131e-11
1.24299e-12
4.47924e-12
-8.31709e-12
-2.16478e-11
2.42403e-11
7.9444e-11
-4.61203e-11
-2.43498e-10
1.11663e-11
6.01404e-10
3.27546e-10
-1.01563e-09
-1.52864e-09
7.42774e-10
3.69273e-09
1.65779e-09
-4.01628e-09
-3.88842e-09
-4.70108e-10
-5.58087e-09
-2.79101e-08
-4.66227e-08
-4.28015e-09
1.40048e-07
3.14818e-07
3.55942e-07
1.42979e-07
-2.8445e-07
-5.96279e-07
-5.25425e-07
5.31116e-08
9.50574e-07
1.77459e-06
2.25269e-06
2.17953e-06
1.76019e-06
1.16071e-06
6.05188e-07
2.16636e-07
1.36676e-08
-5.30913e-08
-4.22418e-08
-2.23337e-08
-7.71402e-09
-1.06306e-09
8.04676e-10
5.38898e-10
2.13612e-10
5.37218e-11
-9.97825e-12
-1.88183e-13
2.98129e-13
9.23701e-13
-5.35465e-12
-3.60961e-12
2.47316e-11
1.26038e-11
-8.74615e-11
-7.56936e-11
2.48478e-10
3.85771e-10
-4.50042e-10
-1.41567e-09
-1.78617e-10
3.43629e-09
4.16384e-09
-2.20072e-09
-1.34778e-08
-1.52814e-08
3.22574e-09
4.35301e-08
9.28887e-08
1.41004e-07
1.76383e-07
1.91555e-07
1.75876e-07
1.34122e-07
8.81311e-08
6.96837e-08
7.17498e-08
5.56492e-08
-5.8831e-08
-2.82088e-07
-5.36958e-07
-7.15433e-07
-7.81018e-07
-7.13567e-07
-5.64432e-07
-3.72843e-07
-2.00819e-07
-8.32058e-08
-2.13602e-08
4.87618e-10
4.25225e-09
2.77042e-09
1.08109e-09
2.50751e-10
-2.46726e-11
-3.51305e-11
-1.70957e-11
-4.38954e-13
-1.28436e-12
2.92009e-12
7.61556e-12
-9.32006e-12
-2.92585e-11
2.09535e-11
9.11435e-11
-1.77706e-11
-2.16296e-10
-9.14166e-11
3.70355e-10
4.515e-10
-3.71888e-10
-9.68808e-10
2.72322e-10
7.74585e-10
-1.26593e-09
-1.92606e-09
5.09717e-09
2.15398e-08
3.60811e-08
2.2637e-08
-3.21686e-08
-1.00455e-07
-1.16591e-07
-3.40072e-08
1.30421e-07
2.51646e-07
2.17429e-07
-2.48703e-08
-4.13346e-07
-7.924e-07
-1.02726e-06
-1.02127e-06
-8.74554e-07
-6.35066e-07
-3.72477e-07
-1.70943e-07
-4.99008e-08
1.37356e-09
1.31515e-08
8.75088e-09
3.71755e-09
9.20347e-10
-6.08103e-11
-1.74586e-10
-9.11287e-11
-2.54164e-11
5.85415e-13
4.30233e-14
-9.53454e-13
1.15485e-13
4.88418e-12
-1.37836e-12
-1.60447e-11
1.29419e-12
5.28858e-11
1.91997e-11
-1.50812e-10
-1.56431e-10
2.87161e-10
6.50357e-10
-7.05698e-11
-1.54187e-09
-1.76376e-09
1.04648e-09
5.666e-09
6.48984e-09
-5.89922e-10
-1.53927e-08
-3.54015e-08
-5.82255e-08
-8.07955e-08
-9.79429e-08
-9.30925e-08
-6.13317e-08
-1.77797e-08
1.18836e-08
4.18394e-09
-3.01545e-08
-4.17224e-08
-1.93578e-08
4.76148e-08
1.12589e-07
1.64009e-07
1.82788e-07
1.61692e-07
1.18728e-07
7.17736e-08
3.34825e-08
1.08828e-08
1.55521e-09
-1.0432e-09
-8.7243e-10
-4.39858e-10
-1.21468e-10
-6.42841e-12
1.09068e-11
6.43949e-12
8.67682e-14
5.21433e-13
-7.18564e-13
-2.76881e-12
3.20647e-12
9.51419e-12
-8.23929e-12
-2.90949e-11
6.95239e-12
7.19045e-11
2.9113e-11
-1.2478e-10
-1.22696e-10
1.81249e-10
1.45942e-10
-3.48007e-10
4.31319e-12
1.4706e-09
1.43395e-09
-2.74085e-09
-1.18279e-08
-1.97735e-08
-1.60102e-08
3.79961e-09
2.99799e-08
3.51501e-08
4.48827e-09
-5.38742e-08
-9.77032e-08
-8.15988e-08
1.28107e-08
1.61564e-07
3.1822e-07
4.13072e-07
4.21232e-07
3.70308e-07
2.7593e-07
1.73842e-07
8.85451e-08
3.22796e-08
5.38831e-09
-3.68421e-09
-2.94819e-09
-1.52123e-09
-4.99892e-10
-5.28111e-11
5.07881e-11
3.10178e-11
1.05934e-11
8.79792e-13
2.59015e-14
5.54024e-13
-4.0483e-13
-2.54208e-12
1.38245e-12
8.63516e-12
-2.57021e-12
-2.71967e-11
-1.88329e-12
7.40216e-11
5.21484e-11
-1.47935e-10
-2.48589e-10
6.61345e-11
6.28121e-10
6.93046e-10
-3.87712e-10
-2.23358e-09
-2.59923e-09
-6.93516e-11
5.32121e-09
1.28375e-08
2.24806e-08
3.33708e-08
4.14715e-08
4.01444e-08
2.53807e-08
1.51937e-09
-1.46502e-08
-9.65359e-09
1.27699e-08
3.58909e-08
4.87028e-08
3.33351e-08
9.35176e-09
-1.68353e-08
-3.55005e-08
-4.0986e-08
-3.4627e-08
-2.33712e-08
-1.21315e-08
-4.47908e-09
-9.73801e-10
1.66463e-10
2.77009e-10
1.57289e-10
4.95448e-11
7.30692e-12
-2.63774e-12
-2.29212e-12
2.31401e-15
-2.09807e-13
1.39105e-13
9.43548e-13
-5.71845e-13
-3.18041e-12
1.73384e-12
9.53555e-12
-1.16172e-12
-2.46813e-11
-1.08446e-11
4.30525e-11
2.77798e-11
-6.77825e-11
2.49596e-11
1.75877e-10
-1.40254e-10
-7.59468e-10
-6.58199e-10
1.25475e-09
5.12608e-09
8.76656e-09
7.95113e-09
1.35187e-09
-7.71727e-09
-9.4409e-09
8.71858e-10
2.0751e-08
3.54349e-08
2.90004e-08
-4.65177e-09
-5.89789e-08
-1.19023e-07
-1.53961e-07
-1.60224e-07
-1.4257e-07
-1.08503e-07
-6.99087e-08
-3.73191e-08
-1.51994e-08
-3.48289e-09
6.94027e-10
1.00697e-09
6.04338e-10
2.27545e-10
4.37393e-11
-1.21167e-11
-8.99702e-12
-3.78387e-12
-6.55827e-13
-3.1202e-14
-2.20782e-13
2.40065e-13
1.08507e-12
-8.7136e-13
-3.70807e-12
1.66961e-12
1.12568e-11
-3.45758e-15
-3.03428e-11
-1.75209e-11
6.24683e-11
9.00226e-11
-2.68471e-11
-2.46868e-10
-2.64903e-10
1.63154e-10
8.37522e-10
9.39906e-10
9.13161e-11
-1.76966e-09
-4.42318e-09
-8.21927e-09
-1.2812e-08
-1.62661e-08
-1.57972e-08
-9.60886e-09
6.84598e-10
7.60988e-09
5.20747e-09
-5.31896e-09
-1.79029e-08
-2.68471e-08
-2.35538e-08
-1.55852e-08
-5.22053e-09
4.0828e-09
9.22924e-09
9.69758e-09
7.19716e-09
4.12466e-09
1.72049e-09
4.5411e-10
4.42195e-12
-7.86776e-11
-4.96889e-11
-1.85028e-11
-4.10538e-12
3.81614e-13
7.90123e-13
-1.97591e-15
7.37892e-14
-3.63392e-14
-3.46901e-13
1.77857e-13
1.11917e-12
-3.96903e-13
-3.1391e-12
-1.68571e-13
7.9519e-12
3.02279e-12
-1.6439e-11
-3.23322e-12
2.14906e-11
-2.29117e-11
-6.22474e-11
7.77785e-11
3.164e-10
2.6349e-10
-5.16505e-10
-1.99645e-09
-3.43348e-09
-3.21009e-09
-9.37348e-10
2.15861e-09
2.66639e-09
-7.88782e-10
-7.43095e-09
-1.22384e-08
-9.79059e-09
1.81184e-09
2.06597e-08
4.17659e-08
5.41498e-08
5.69085e-08
5.11337e-08
3.93772e-08
2.57436e-08
1.39415e-08
6.05001e-09
1.5668e-09
-5.49877e-11
-3.31995e-10
-2.12951e-10
-8.54707e-11
-2.0525e-11
8.71078e-13
2.72969e-12
1.39989e-12
2.97134e-13
1.58875e-14
7.82784e-14
-1.27545e-13
-3.66916e-13
4.08954e-13
1.36228e-12
-7.63145e-13
-4.131e-12
1.78019e-13
1.06778e-11
5.7065e-12
-2.0616e-11
-3.15999e-11
9.05423e-12
8.93029e-11
9.6727e-11
-6.2249e-11
-3.11641e-10
-3.47222e-10
-2.93356e-11
6.16296e-10
1.5437e-09
2.88703e-09
4.50647e-09
5.70097e-09
5.54736e-09
3.30683e-09
-4.17275e-10
-2.86857e-09
-1.96821e-09
1.9458e-09
6.90242e-09
1.05919e-08
9.75572e-09
7.20635e-09
3.45856e-09
-6.72638e-11
-2.22264e-09
-2.79661e-09
-2.20914e-09
-1.35395e-09
-6.00321e-10
-1.71321e-10
-1.51475e-11
2.03559e-11
1.51298e-11
6.93384e-12
1.82704e-12
9.28438e-14
-2.24826e-13
-1.68612e-15
-3.09281e-14
3.44179e-14
1.20237e-13
-9.32113e-14
-3.92078e-13
1.40988e-13
9.93822e-13
-2.93748e-14
-2.48308e-12
-1.79247e-13
5.48031e-12
2.94537e-14
-6.5473e-12
8.46346e-12
1.68408e-11
-3.13153e-11
-1.03512e-10
-7.85513e-11
1.79051e-10
6.79165e-10
1.16581e-09
1.10245e-09
3.46055e-10
-6.4985e-10
-8.52862e-10
2.77803e-10
2.44419e-09
3.97807e-09
3.13557e-09
-7.05484e-10
-6.92755e-09
-1.38633e-08
-1.78921e-08
-1.88236e-08
-1.69127e-08
-1.30557e-08
-8.574e-09
-4.66961e-09
-2.05251e-09
-5.4172e-10
5.36706e-12
1.06342e-10
6.92374e-11
2.85739e-11
7.46209e-12
-3.35115e-14
-9.59646e-13
-5.09687e-13
-1.28465e-13
-6.06076e-15
-2.01994e-14
3.63336e-14
1.17496e-13
-1.18234e-13
-4.26984e-13
2.34389e-13
1.31389e-12
-7.62249e-14
-3.23322e-12
-1.79211e-12
6.059e-12
1.04001e-11
-2.85008e-12
-2.94433e-11
-3.0817e-11
2.17954e-11
1.01793e-10
1.11053e-10
9.6972e-12
-1.98745e-10
-5.06391e-10
-9.42331e-10
-1.44692e-09
-1.8177e-09
-1.75917e-09
-1.06879e-09
6.27977e-11
8.05431e-10
5.42945e-10
-6.13849e-10
-2.08769e-09
-3.16226e-09
-2.88768e-09
-2.06612e-09
-9.39296e-10
9.96939e-11
7.27295e-10
8.82109e-10
6.93194e-10
4.20829e-10
1.85908e-10
5.21904e-11
3.14368e-12
-7.48198e-12
-5.26746e-12
-2.28972e-12
-5.83641e-13
-1.6654e-14
7.01361e-14
1.32652e-15
6.56879e-15
-1.3559e-14
-2.79738e-14
4.34313e-14
1.02734e-13
-6.95124e-14
-2.91711e-13
2.19181e-14
7.45384e-13
2.19807e-15
-1.57428e-12
-3.86573e-13
1.68992e-12
-1.18791e-12
-3.27742e-12
8.83532e-12
2.74792e-11
2.01792e-11
-5.22302e-11
-1.95908e-10
-3.29858e-10
-2.99545e-10
-6.68194e-11
2.32002e-10
2.86254e-10
-5.71417e-11
-7.16102e-10
-1.16628e-09
-8.97123e-10
2.63437e-10
2.09361e-09
4.08528e-09
5.23166e-09
5.43808e-09
4.86899e-09
3.74466e-09
2.44851e-09
1.3241e-09
5.69253e-10
1.40453e-10
-1.38418e-11
-3.33715e-11
-2.09432e-11
-8.09191e-12
-1.70892e-12
2.85487e-13
3.20761e-13
1.5903e-13
4.41652e-14
9.64452e-16
1.78435e-15
-6.28314e-15
-2.18073e-14
1.96573e-14
1.05284e-13
-3.99541e-14
-3.3636e-13
2.97725e-14
7.89756e-13
4.20131e-13
-1.56739e-12
-2.65895e-12
7.81861e-13
7.54324e-12
7.43013e-12
-6.35412e-12
-2.6036e-11
-2.96833e-11
-4.56376e-12
5.49299e-11
1.45024e-10
2.6076e-10
3.82469e-10
4.66477e-10
4.48938e-10
2.85946e-10
2.61992e-11
-1.48231e-10
-1.00161e-10
1.39565e-10
4.28578e-10
6.3365e-10
5.34522e-10