/*--------------------------------*- C++ -*----------------------------------*\
| =========                 |                                                 |
| \\      /  F ield         | OpenFOAM: The Open Source CFD Toolbox           |
|  \\    /   O peration     | Version:  v2006                                 |
|   \\  /    A nd           | Website:  www.openfoam.com                      |
|    \\/     M anipulation  |                                                 |
\*---------------------------------------------------------------------------*/
FoamFile
{
    version     2.0;
    format      ascii;
    class       volVectorField;
    location    "0";
    object      U_new;
}
// * * * * * * * * * * * * * * * * * * * * * * * * * * * * * * * * * * * * * //

dimensions      [0 1 -1 0 0 0 0];


internalField   nonuniform List<vector> 
2500
(
(0.000368 -0.016928 0)
(0.000368 -0.050784 0)
(0.000368 -0.08464 0)
(0.000368 -0.118496 0)
(0.000368 -0.152352 0)
(0.000368 -0.186208 0)
(0.000368 -0.220064 0)
(0.000368 -0.25392 0)
(0.000368 -0.287776 0)
(0.000368 -0.321632 0)
(0.000368 -0.355488 0)
(0.000368 -0.389344 0)
(0.000368 -0.4232 0)
(0.000368 -0.457056 0)
(0.000368 -0.490912 0)
(0.000368 -0.524768 0)
(0.000368 -0.558624 0)
(0.000368 -0.59248 0)
(0.000368 -0.626336 0)
(0.000368 -0.660192 0)
(0.000368 -0.694048 0)
(0.000368 -0.727904 0)
(0.000368 -0.76176 0)
(0.000368 -0.795616 0)
(0.000368 -0.829472 0)
(0.000368 -0.863328 0)
(0.000368 -0.897184 0)
(0.000368 -0.93104 0)
(0.000368 -0.964896 0)
(0.000368 -0.998752 0)
(0.000368 -1.03261 0)
(0.000368 -1.06646 0)
(0.000368 -1.10032 0)
(0.000368 -1.13418 0)
(0.000368 -1.16803 0)
(0.000368 -1.20189 0)
(0.000368 -1.23574 0)
(0.000368 -1.2696 0)
(0.000368 -1.30346 0)
(0.000368 -1.33731 0)
(0.000368 -1.37117 0)
(0.000368 -1.40502 0)
(0.000368 -1.43888 0)
(0.000368 -1.47274 0)
(0.000368 -1.50659 0)
(0.000368 -1.54045 0)
(0.000368 -1.5743 0)
(0.000368 -1.60816 0)
(0.000368 -1.64202 0)
(0.000368 -1.67587 0)
(0.003312 -0.016928 0)
(0.003312 -0.050784 0)
(0.003312 -0.08464 0)
(0.003312 -0.118496 0)
(0.003312 -0.152352 0)
(0.003312 -0.186208 0)
(0.003312 -0.220064 0)
(0.003312 -0.25392 0)
(0.003312 -0.287776 0)
(0.003312 -0.321632 0)
(0.003312 -0.355488 0)
(0.003312 -0.389344 0)
(0.003312 -0.4232 0)
(0.003312 -0.457056 0)
(0.003312 -0.490912 0)
(0.003312 -0.524768 0)
(0.003312 -0.558624 0)
(0.003312 -0.59248 0)
(0.003312 -0.626336 0)
(0.003312 -0.660192 0)
(0.003312 -0.694048 0)
(0.003312 -0.727904 0)
(0.003312 -0.76176 0)
(0.003312 -0.795616 0)
(0.003312 -0.829472 0)
(0.003312 -0.863328 0)
(0.003312 -0.897184 0)
(0.003312 -0.93104 0)
(0.003312 -0.964896 0)
(0.003312 -0.998752 0)
(0.003312 -1.03261 0)
(0.003312 -1.06646 0)
(0.003312 -1.10032 0)
(0.003312 -1.13418 0)
(0.003312 -1.16803 0)
(0.003312 -1.20189 0)
(0.003312 -1.23574 0)
(0.003312 -1.2696 0)
(0.003312 -1.30346 0)
(0.003312 -1.33731 0)
(0.003312 -1.37117 0)
(0.003312 -1.40502 0)
(0.003312 -1.43888 0)
(0.003312 -1.47274 0)
(0.003312 -1.50659 0)
(0.003312 -1.54045 0)
(0.003312 -1.5743 0)
(0.003312 -1.60816 0)
(0.003312 -1.64202 0)
(0.003312 -1.67587 0)
(0.0092 -0.016928 0)
(0.0092 -0.050784 0)
(0.0092 -0.08464 0)
(0.0092 -0.118496 0)
(0.0092 -0.152352 0)
(0.0092 -0.186208 0)
(0.0092 -0.220064 0)
(0.0092 -0.25392 0)
(0.0092 -0.287776 0)
(0.0092 -0.321632 0)
(0.0092 -0.355488 0)
(0.0092 -0.389344 0)
(0.0092 -0.4232 0)
(0.0092 -0.457056 0)
(0.0092 -0.490912 0)
(0.0092 -0.524768 0)
(0.0092 -0.558624 0)
(0.0092 -0.59248 0)
(0.0092 -0.626336 0)
(0.0092 -0.660192 0)
(0.0092 -0.694048 0)
(0.0092 -0.727904 0)
(0.0092 -0.76176 0)
(0.0092 -0.795616 0)
(0.0092 -0.829472 0)
(0.0092 -0.863328 0)
(0.0092 -0.897184 0)
(0.0092 -0.93104 0)
(0.0092 -0.964896 0)
(0.0092 -0.998752 0)
(0.0092 -1.03261 0)
(0.0092 -1.06646 0)
(0.0092 -1.10032 0)
(0.0092 -1.13418 0)
(0.0092 -1.16803 0)
(0.0092 -1.20189 0)
(0.0092 -1.23574 0)
(0.0092 -1.2696 0)
(0.0092 -1.30346 0)
(0.0092 -1.33731 0)
(0.0092 -1.37117 0)
(0.0092 -1.40502 0)
(0.0092 -1.43888 0)
(0.0092 -1.47274 0)
(0.0092 -1.50659 0)
(0.0092 -1.54045 0)
(0.0092 -1.5743 0)
(0.0092 -1.60816 0)
(0.0092 -1.64202 0)
(0.0092 -1.67587 0)
(0.018032 -0.016928 0)
(0.018032 -0.050784 0)
(0.018032 -0.08464 0)
(0.018032 -0.118496 0)
(0.018032 -0.152352 0)
(0.018032 -0.186208 0)
(0.018032 -0.220064 0)
(0.018032 -0.25392 0)
(0.018032 -0.287776 0)
(0.018032 -0.321632 0)
(0.018032 -0.355488 0)
(0.018032 -0.389344 0)
(0.018032 -0.4232 0)
(0.018032 -0.457056 0)
(0.018032 -0.490912 0)
(0.018032 -0.524768 0)
(0.018032 -0.558624 0)
(0.018032 -0.59248 0)
(0.018032 -0.626336 0)
(0.018032 -0.660192 0)
(0.018032 -0.694048 0)
(0.018032 -0.727904 0)
(0.018032 -0.76176 0)
(0.018032 -0.795616 0)
(0.018032 -0.829472 0)
(0.018032 -0.863328 0)
(0.018032 -0.897184 0)
(0.018032 -0.93104 0)
(0.018032 -0.964896 0)
(0.018032 -0.998752 0)
(0.018032 -1.03261 0)
(0.018032 -1.06646 0)
(0.018032 -1.10032 0)
(0.018032 -1.13418 0)
(0.018032 -1.16803 0)
(0.018032 -1.20189 0)
(0.018032 -1.23574 0)
(0.018032 -1.2696 0)
(0.018032 -1.30346 0)
(0.018032 -1.33731 0)
(0.018032 -1.37117 0)
(0.018032 -1.40502 0)
(0.018032 -1.43888 0)
(0.018032 -1.47274 0)
(0.018032 -1.50659 0)
(0.018032 -1.54045 0)
(0.018032 -1.5743 0)
(0.018032 -1.60816 0)
(0.018032 -1.64202 0)
(0.018032 -1.67587 0)
(0.029808 -0.016928 0)
(0.029808 -0.050784 0)
(0.029808 -0.08464 0)
(0.029808 -0.118496 0)
(0.029808 -0.152352 0)
(0.029808 -0.186208 0)
(0.029808 -0.220064 0)
(0.029808 -0.25392 0)
(0.029808 -0.287776 0)
(0.029808 -0.321632 0)
(0.029808 -0.355488 0)
(0.029808 -0.389344 0)
(0.029808 -0.4232 0)
(0.029808 -0.457056 0)
(0.029808 -0.490912 0)
(0.029808 -0.524768 0)
(0.029808 -0.558624 0)
(0.029808 -0.59248 0)
(0.029808 -0.626336 0)
(0.029808 -0.660192 0)
(0.029808 -0.694048 0)
(0.029808 -0.727904 0)
(0.029808 -0.76176 0)
(0.029808 -0.795616 0)
(0.029808 -0.829472 0)
(0.029808 -0.863328 0)
(0.029808 -0.897184 0)
(0.029808 -0.93104 0)
(0.029808 -0.964896 0)
(0.029808 -0.998752 0)
(0.029808 -1.03261 0)
(0.029808 -1.06646 0)
(0.029808 -1.10032 0)
(0.029808 -1.13418 0)
(0.029808 -1.16803 0)
(0.029808 -1.20189 0)
(0.029808 -1.23574 0)
(0.029808 -1.2696 0)
(0.029808 -1.30346 0)
(0.029808 -1.33731 0)
(0.029808 -1.37117 0)
(0.029808 -1.40502 0)
(0.029808 -1.43888 0)
(0.029808 -1.47274 0)
(0.029808 -1.50659 0)
(0.029808 -1.54045 0)
(0.029808 -1.5743 0)
(0.029808 -1.60816 0)
(0.029808 -1.64202 0)
(0.029808 -1.67587 0)
(0.044528 -0.016928 0)
(0.044528 -0.050784 0)
(0.044528 -0.08464 0)
(0.044528 -0.118496 0)
(0.044528 -0.152352 0)
(0.044528 -0.186208 0)
(0.044528 -0.220064 0)
(0.044528 -0.25392 0)
(0.044528 -0.287776 0)
(0.044528 -0.321632 0)
(0.044528 -0.355488 0)
(0.044528 -0.389344 0)
(0.044528 -0.4232 0)
(0.044528 -0.457056 0)
(0.044528 -0.490912 0)
(0.044528 -0.524768 0)
(0.044528 -0.558624 0)
(0.044528 -0.59248 0)
(0.044528 -0.626336 0)
(0.044528 -0.660192 0)
(0.044528 -0.694048 0)
(0.044528 -0.727904 0)
(0.044528 -0.76176 0)
(0.044528 -0.795616 0)
(0.044528 -0.829472 0)
(0.044528 -0.863328 0)
(0.044528 -0.897184 0)
(0.044528 -0.93104 0)
(0.044528 -0.964896 0)
(0.044528 -0.998752 0)
(0.044528 -1.03261 0)
(0.044528 -1.06646 0)
(0.044528 -1.10032 0)
(0.044528 -1.13418 0)
(0.044528 -1.16803 0)
(0.044528 -1.20189 0)
(0.044528 -1.23574 0)
(0.044528 -1.2696 0)
(0.044528 -1.30346 0)
(0.044528 -1.33731 0)
(0.044528 -1.37117 0)
(0.044528 -1.40502 0)
(0.044528 -1.43888 0)
(0.044528 -1.47274 0)
(0.044528 -1.50659 0)
(0.044528 -1.54045 0)
(0.044528 -1.5743 0)
(0.044528 -1.60816 0)
(0.044528 -1.64202 0)
(0.044528 -1.67587 0)
(0.062192 -0.016928 0)
(0.062192 -0.050784 0)
(0.062192 -0.08464 0)
(0.062192 -0.118496 0)
(0.062192 -0.152352 0)
(0.062192 -0.186208 0)
(0.062192 -0.220064 0)
(0.062192 -0.25392 0)
(0.062192 -0.287776 0)
(0.062192 -0.321632 0)
(0.062192 -0.355488 0)
(0.062192 -0.389344 0)
(0.062192 -0.4232 0)
(0.062192 -0.457056 0)
(0.062192 -0.490912 0)
(0.062192 -0.524768 0)
(0.062192 -0.558624 0)
(0.062192 -0.59248 0)
(0.062192 -0.626336 0)
(0.062192 -0.660192 0)
(0.062192 -0.694048 0)
(0.062192 -0.727904 0)
(0.062192 -0.76176 0)
(0.062192 -0.795616 0)
(0.062192 -0.829472 0)
(0.062192 -0.863328 0)
(0.062192 -0.897184 0)
(0.062192 -0.93104 0)
(0.062192 -0.964896 0)
(0.062192 -0.998752 0)
(0.062192 -1.03261 0)
(0.062192 -1.06646 0)
(0.062192 -1.10032 0)
(0.062192 -1.13418 0)
(0.062192 -1.16803 0)
(0.062192 -1.20189 0)
(0.062192 -1.23574 0)
(0.062192 -1.2696 0)
(0.062192 -1.30346 0)
(0.062192 -1.33731 0)
(0.062192 -1.37117 0)
(0.062192 -1.40502 0)
(0.062192 -1.43888 0)
(0.062192 -1.47274 0)
(0.062192 -1.50659 0)
(0.062192 -1.54045 0)
(0.062192 -1.5743 0)
(0.062192 -1.60816 0)
(0.062192 -1.64202 0)
(0.062192 -1.67587 0)
(0.0828 -0.016928 0)
(0.0828 -0.050784 0)
(0.0828 -0.08464 0)
(0.0828 -0.118496 0)
(0.0828 -0.152352 0)
(0.0828 -0.186208 0)
(0.0828 -0.220064 0)
(0.0828 -0.25392 0)
(0.0828 -0.287776 0)
(0.0828 -0.321632 0)
(0.0828 -0.355488 0)
(0.0828 -0.389344 0)
(0.0828 -0.4232 0)
(0.0828 -0.457056 0)
(0.0828 -0.490912 0)
(0.0828 -0.524768 0)
(0.0828 -0.558624 0)
(0.0828 -0.59248 0)
(0.0828 -0.626336 0)
(0.0828 -0.660192 0)
(0.0828 -0.694048 0)
(0.0828 -0.727904 0)
(0.0828 -0.76176 0)
(0.0828 -0.795616 0)
(0.0828 -0.829472 0)
(0.0828 -0.863328 0)
(0.0828 -0.897184 0)
(0.0828 -0.93104 0)
(0.0828 -0.964896 0)
(0.0828 -0.998752 0)
(0.0828 -1.03261 0)
(0.0828 -1.06646 0)
(0.0828 -1.10032 0)
(0.0828 -1.13418 0)
(0.0828 -1.16803 0)
(0.0828 -1.20189 0)
(0.0828 -1.23574 0)
(0.0828 -1.2696 0)
(0.0828 -1.30346 0)
(0.0828 -1.33731 0)
(0.0828 -1.37117 0)
(0.0828 -1.40502 0)
(0.0828 -1.43888 0)
(0.0828 -1.47274 0)
(0.0828 -1.50659 0)
(0.0828 -1.54045 0)
(0.0828 -1.5743 0)
(0.0828 -1.60816 0)
(0.0828 -1.64202 0)
(0.0828 -1.67587 0)
(0.106352 -0.016928 0)
(0.106352 -0.050784 0)
(0.106352 -0.08464 0)
(0.106352 -0.118496 0)
(0.106352 -0.152352 0)
(0.106352 -0.186208 0)
(0.106352 -0.220064 0)
(0.106352 -0.25392 0)
(0.106352 -0.287776 0)
(0.106352 -0.321632 0)
(0.106352 -0.355488 0)
(0.106352 -0.389344 0)
(0.106352 -0.4232 0)
(0.106352 -0.457056 0)
(0.106352 -0.490912 0)
(0.106352 -0.524768 0)
(0.106352 -0.558624 0)
(0.106352 -0.59248 0)
(0.106352 -0.626336 0)
(0.106352 -0.660192 0)
(0.106352 -0.694048 0)
(0.106352 -0.727904 0)
(0.106352 -0.76176 0)
(0.106352 -0.795616 0)
(0.106352 -0.829472 0)
(0.106352 -0.863328 0)
(0.106352 -0.897184 0)
(0.106352 -0.93104 0)
(0.106352 -0.964896 0)
(0.106352 -0.998752 0)
(0.106352 -1.03261 0)
(0.106352 -1.06646 0)
(0.106352 -1.10032 0)
(0.106352 -1.13418 0)
(0.106352 -1.16803 0)
(0.106352 -1.20189 0)
(0.106352 -1.23574 0)
(0.106352 -1.2696 0)
(0.106352 -1.30346 0)
(0.106352 -1.33731 0)
(0.106352 -1.37117 0)
(0.106352 -1.40502 0)
(0.106352 -1.43888 0)
(0.106352 -1.47274 0)
(0.106352 -1.50659 0)
(0.106352 -1.54045 0)
(0.106352 -1.5743 0)
(0.106352 -1.60816 0)
(0.106352 -1.64202 0)
(0.106352 -1.67587 0)
(0.132848 -0.016928 0)
(0.132848 -0.050784 0)
(0.132848 -0.08464 0)
(0.132848 -0.118496 0)
(0.132848 -0.152352 0)
(0.132848 -0.186208 0)
(0.132848 -0.220064 0)
(0.132848 -0.25392 0)
(0.132848 -0.287776 0)
(0.132848 -0.321632 0)
(0.132848 -0.355488 0)
(0.132848 -0.389344 0)
(0.132848 -0.4232 0)
(0.132848 -0.457056 0)
(0.132848 -0.490912 0)
(0.132848 -0.524768 0)
(0.132848 -0.558624 0)
(0.132848 -0.59248 0)
(0.132848 -0.626336 0)
(0.132848 -0.660192 0)
(0.132848 -0.694048 0)
(0.132848 -0.727904 0)
(0.132848 -0.76176 0)
(0.132848 -0.795616 0)
(0.132848 -0.829472 0)
(0.132848 -0.863328 0)
(0.132848 -0.897184 0)
(0.132848 -0.93104 0)
(0.132848 -0.964896 0)
(0.132848 -0.998752 0)
(0.132848 -1.03261 0)
(0.132848 -1.06646 0)
(0.132848 -1.10032 0)
(0.132848 -1.13418 0)
(0.132848 -1.16803 0)
(0.132848 -1.20189 0)
(0.132848 -1.23574 0)
(0.132848 -1.2696 0)
(0.132848 -1.30346 0)
(0.132848 -1.33731 0)
(0.132848 -1.37117 0)
(0.132848 -1.40502 0)
(0.132848 -1.43888 0)
(0.132848 -1.47274 0)
(0.132848 -1.50659 0)
(0.132848 -1.54045 0)
(0.132848 -1.5743 0)
(0.132848 -1.60816 0)
(0.132848 -1.64202 0)
(0.132848 -1.67587 0)
(0.162288 -0.016928 0)
(0.162288 -0.050784 0)
(0.162288 -0.08464 0)
(0.162288 -0.118496 0)
(0.162288 -0.152352 0)
(0.162288 -0.186208 0)
(0.162288 -0.220064 0)
(0.162288 -0.25392 0)
(0.162288 -0.287776 0)
(0.162288 -0.321632 0)
(0.162288 -0.355488 0)
(0.162288 -0.389344 0)
(0.162288 -0.4232 0)
(0.162288 -0.457056 0)
(0.162288 -0.490912 0)
(0.162288 -0.524768 0)
(0.162288 -0.558624 0)
(0.162288 -0.59248 0)
(0.162288 -0.626336 0)
(0.162288 -0.660192 0)
(0.162288 -0.694048 0)
(0.162288 -0.727904 0)
(0.162288 -0.76176 0)
(0.162288 -0.795616 0)
(0.162288 -0.829472 0)
(0.162288 -0.863328 0)
(0.162288 -0.897184 0)
(0.162288 -0.93104 0)
(0.162288 -0.964896 0)
(0.162288 -0.998752 0)
(0.162288 -1.03261 0)
(0.162288 -1.06646 0)
(0.162288 -1.10032 0)
(0.162288 -1.13418 0)
(0.162288 -1.16803 0)
(0.162288 -1.20189 0)
(0.162288 -1.23574 0)
(0.162288 -1.2696 0)
(0.162288 -1.30346 0)
(0.162288 -1.33731 0)
(0.162288 -1.37117 0)
(0.162288 -1.40502 0)
(0.162288 -1.43888 0)
(0.162288 -1.47274 0)
(0.162288 -1.50659 0)
(0.162288 -1.54045 0)
(0.162288 -1.5743 0)
(0.162288 -1.60816 0)
(0.162288 -1.64202 0)
(0.162288 -1.67587 0)
(0.194672 -0.016928 0)
(0.194672 -0.050784 0)
(0.194672 -0.08464 0)
(0.194672 -0.118496 0)
(0.194672 -0.152352 0)
(0.194672 -0.186208 0)
(0.194672 -0.220064 0)
(0.194672 -0.25392 0)
(0.194672 -0.287776 0)
(0.194672 -0.321632 0)
(0.194672 -0.355488 0)
(0.194672 -0.389344 0)
(0.194672 -0.4232 0)
(0.194672 -0.457056 0)
(0.194672 -0.490912 0)
(0.194672 -0.524768 0)
(0.194672 -0.558624 0)
(0.194672 -0.59248 0)
(0.194672 -0.626336 0)
(0.194672 -0.660192 0)
(0.194672 -0.694048 0)
(0.194672 -0.727904 0)
(0.194672 -0.76176 0)
(0.194672 -0.795616 0)
(0.194672 -0.829472 0)
(0.194672 -0.863328 0)
(0.194672 -0.897184 0)
(0.194672 -0.93104 0)
(0.194672 -0.964896 0)
(0.194672 -0.998752 0)
(0.194672 -1.03261 0)
(0.194672 -1.06646 0)
(0.194672 -1.10032 0)
(0.194672 -1.13418 0)
(0.194672 -1.16803 0)
(0.194672 -1.20189 0)
(0.194672 -1.23574 0)
(0.194672 -1.2696 0)
(0.194672 -1.30346 0)
(0.194672 -1.33731 0)
(0.194672 -1.37117 0)
(0.194672 -1.40502 0)
(0.194672 -1.43888 0)
(0.194672 -1.47274 0)
(0.194672 -1.50659 0)
(0.194672 -1.54045 0)
(0.194672 -1.5743 0)
(0.194672 -1.60816 0)
(0.194672 -1.64202 0)
(0.194672 -1.67587 0)
(0.23 -0.016928 0)
(0.23 -0.050784 0)
(0.23 -0.08464 0)
(0.23 -0.118496 0)
(0.23 -0.152352 0)
(0.23 -0.186208 0)
(0.23 -0.220064 0)
(0.23 -0.25392 0)
(0.23 -0.287776 0)
(0.23 -0.321632 0)
(0.23 -0.355488 0)
(0.23 -0.389344 0)
(0.23 -0.4232 0)
(0.23 -0.457056 0)
(0.23 -0.490912 0)
(0.23 -0.524768 0)
(0.23 -0.558624 0)
(0.23 -0.59248 0)
(0.23 -0.626336 0)
(0.23 -0.660192 0)
(0.23 -0.694048 0)
(0.23 -0.727904 0)
(0.23 -0.76176 0)
(0.23 -0.795616 0)
(0.23 -0.829472 0)
(0.23 -0.863328 0)
(0.23 -0.897184 0)
(0.23 -0.93104 0)
(0.23 -0.964896 0)
(0.23 -0.998752 0)
(0.23 -1.03261 0)
(0.23 -1.06646 0)
(0.23 -1.10032 0)
(0.23 -1.13418 0)
(0.23 -1.16803 0)
(0.23 -1.20189 0)
(0.23 -1.23574 0)
(0.23 -1.2696 0)
(0.23 -1.30346 0)
(0.23 -1.33731 0)
(0.23 -1.37117 0)
(0.23 -1.40502 0)
(0.23 -1.43888 0)
(0.23 -1.47274 0)
(0.23 -1.50659 0)
(0.23 -1.54045 0)
(0.23 -1.5743 0)
(0.23 -1.60816 0)
(0.23 -1.64202 0)
(0.23 -1.67587 0)
(0.268272 -0.016928 0)
(0.268272 -0.050784 0)
(0.268272 -0.08464 0)
(0.268272 -0.118496 0)
(0.268272 -0.152352 0)
(0.268272 -0.186208 0)
(0.268272 -0.220064 0)
(0.268272 -0.25392 0)
(0.268272 -0.287776 0)
(0.268272 -0.321632 0)
(0.268272 -0.355488 0)
(0.268272 -0.389344 0)
(0.268272 -0.4232 0)
(0.268272 -0.457056 0)
(0.268272 -0.490912 0)
(0.268272 -0.524768 0)
(0.268272 -0.558624 0)
(0.268272 -0.59248 0)
(0.268272 -0.626336 0)
(0.268272 -0.660192 0)
(0.268272 -0.694048 0)
(0.268272 -0.727904 0)
(0.268272 -0.76176 0)
(0.268272 -0.795616 0)
(0.268272 -0.829472 0)
(0.268272 -0.863328 0)
(0.268272 -0.897184 0)
(0.268272 -0.93104 0)
(0.268272 -0.964896 0)
(0.268272 -0.998752 0)
(0.268272 -1.03261 0)
(0.268272 -1.06646 0)
(0.268272 -1.10032 0)
(0.268272 -1.13418 0)
(0.268272 -1.16803 0)
(0.268272 -1.20189 0)
(0.268272 -1.23574 0)
(0.268272 -1.2696 0)
(0.268272 -1.30346 0)
(0.268272 -1.33731 0)
(0.268272 -1.37117 0)
(0.268272 -1.40502 0)
(0.268272 -1.43888 0)
(0.268272 -1.47274 0)
(0.268272 -1.50659 0)
(0.268272 -1.54045 0)
(0.268272 -1.5743 0)
(0.268272 -1.60816 0)
(0.268272 -1.64202 0)
(0.268272 -1.67587 0)
(0.309488 -0.016928 0)
(0.309488 -0.050784 0)
(0.309488 -0.08464 0)
(0.309488 -0.118496 0)
(0.309488 -0.152352 0)
(0.309488 -0.186208 0)
(0.309488 -0.220064 0)
(0.309488 -0.25392 0)
(0.309488 -0.287776 0)
(0.309488 -0.321632 0)
(0.309488 -0.355488 0)
(0.309488 -0.389344 0)
(0.309488 -0.4232 0)
(0.309488 -0.457056 0)
(0.309488 -0.490912 0)
(0.309488 -0.524768 0)
(0.309488 -0.558624 0)
(0.309488 -0.59248 0)
(0.309488 -0.626336 0)
(0.309488 -0.660192 0)
(0.309488 -0.694048 0)
(0.309488 -0.727904 0)
(0.309488 -0.76176 0)
(0.309488 -0.795616 0)
(0.309488 -0.829472 0)
(0.309488 -0.863328 0)
(0.309488 -0.897184 0)
(0.309488 -0.93104 0)
(0.309488 -0.964896 0)
(0.309488 -0.998752 0)
(0.309488 -1.03261 0)
(0.309488 -1.06646 0)
(0.309488 -1.10032 0)
(0.309488 -1.13418 0)
(0.309488 -1.16803 0)
(0.309488 -1.20189 0)
(0.309488 -1.23574 0)
(0.309488 -1.2696 0)
(0.309488 -1.30346 0)
(0.309488 -1.33731 0)
(0.309488 -1.37117 0)
(0.309488 -1.40502 0)
(0.309488 -1.43888 0)
(0.309488 -1.47274 0)
(0.309488 -1.50659 0)
(0.309488 -1.54045 0)
(0.309488 -1.5743 0)
(0.309488 -1.60816 0)
(0.309488 -1.64202 0)
(0.309488 -1.67587 0)
(0.353648 -0.016928 0)
(0.353648 -0.050784 0)
(0.353648 -0.08464 0)
(0.353648 -0.118496 0)
(0.353648 -0.152352 0)
(0.353648 -0.186208 0)
(0.353648 -0.220064 0)
(0.353648 -0.25392 0)
(0.353648 -0.287776 0)
(0.353648 -0.321632 0)
(0.353648 -0.355488 0)
(0.353648 -0.389344 0)
(0.353648 -0.4232 0)
(0.353648 -0.457056 0)
(0.353648 -0.490912 0)
(0.353648 -0.524768 0)
(0.353648 -0.558624 0)
(0.353648 -0.59248 0)
(0.353648 -0.626336 0)
(0.353648 -0.660192 0)
(0.353648 -0.694048 0)
(0.353648 -0.727904 0)
(0.353648 -0.76176 0)
(0.353648 -0.795616 0)
(0.353648 -0.829472 0)
(0.353648 -0.863328 0)
(0.353648 -0.897184 0)
(0.353648 -0.93104 0)
(0.353648 -0.964896 0)
(0.353648 -0.998752 0)
(0.353648 -1.03261 0)
(0.353648 -1.06646 0)
(0.353648 -1.10032 0)
(0.353648 -1.13418 0)
(0.353648 -1.16803 0)
(0.353648 -1.20189 0)
(0.353648 -1.23574 0)
(0.353648 -1.2696 0)
(0.353648 -1.30346 0)
(0.353648 -1.33731 0)
(0.353648 -1.37117 0)
(0.353648 -1.40502 0)
(0.353648 -1.43888 0)
(0.353648 -1.47274 0)
(0.353648 -1.50659 0)
(0.353648 -1.54045 0)
(0.353648 -1.5743 0)
(0.353648 -1.60816 0)
(0.353648 -1.64202 0)
(0.353648 -1.67587 0)
(0.400752 -0.016928 0)
(0.400752 -0.050784 0)
(0.400752 -0.08464 0)
(0.400752 -0.118496 0)
(0.400752 -0.152352 0)
(0.400752 -0.186208 0)
(0.400752 -0.220064 0)
(0.400752 -0.25392 0)
(0.400752 -0.287776 0)
(0.400752 -0.321632 0)
(0.400752 -0.355488 0)
(0.400752 -0.389344 0)
(0.400752 -0.4232 0)
(0.400752 -0.457056 0)
(0.400752 -0.490912 0)
(0.400752 -0.524768 0)
(0.400752 -0.558624 0)
(0.400752 -0.59248 0)
(0.400752 -0.626336 0)
(0.400752 -0.660192 0)
(0.400752 -0.694048 0)
(0.400752 -0.727904 0)
(0.400752 -0.76176 0)
(0.400752 -0.795616 0)
(0.400752 -0.829472 0)
(0.400752 -0.863328 0)
(0.400752 -0.897184 0)
(0.400752 -0.93104 0)
(0.400752 -0.964896 0)
(0.400752 -0.998752 0)
(0.400752 -1.03261 0)
(0.400752 -1.06646 0)
(0.400752 -1.10032 0)
(0.400752 -1.13418 0)
(0.400752 -1.16803 0)
(0.400752 -1.20189 0)
(0.400752 -1.23574 0)
(0.400752 -1.2696 0)
(0.400752 -1.30346 0)
(0.400752 -1.33731 0)
(0.400752 -1.37117 0)
(0.400752 -1.40502 0)
(0.400752 -1.43888 0)
(0.400752 -1.47274 0)
(0.400752 -1.50659 0)
(0.400752 -1.54045 0)
(0.400752 -1.5743 0)
(0.400752 -1.60816 0)
(0.400752 -1.64202 0)
(0.400752 -1.67587 0)
(0.4508 -0.016928 0)
(0.4508 -0.050784 0)
(0.4508 -0.08464 0)
(0.4508 -0.118496 0)
(0.4508 -0.152352 0)
(0.4508 -0.186208 0)
(0.4508 -0.220064 0)
(0.4508 -0.25392 0)
(0.4508 -0.287776 0)
(0.4508 -0.321632 0)
(0.4508 -0.355488 0)
(0.4508 -0.389344 0)
(0.4508 -0.4232 0)
(0.4508 -0.457056 0)
(0.4508 -0.490912 0)
(0.4508 -0.524768 0)
(0.4508 -0.558624 0)
(0.4508 -0.59248 0)
(0.4508 -0.626336 0)
(0.4508 -0.660192 0)
(0.4508 -0.694048 0)
(0.4508 -0.727904 0)
(0.4508 -0.76176 0)
(0.4508 -0.795616 0)
(0.4508 -0.829472 0)
(0.4508 -0.863328 0)
(0.4508 -0.897184 0)
(0.4508 -0.93104 0)
(0.4508 -0.964896 0)
(0.4508 -0.998752 0)
(0.4508 -1.03261 0)
(0.4508 -1.06646 0)
(0.4508 -1.10032 0)
(0.4508 -1.13418 0)
(0.4508 -1.16803 0)
(0.4508 -1.20189 0)
(0.4508 -1.23574 0)
(0.4508 -1.2696 0)
(0.4508 -1.30346 0)
(0.4508 -1.33731 0)
(0.4508 -1.37117 0)
(0.4508 -1.40502 0)
(0.4508 -1.43888 0)
(0.4508 -1.47274 0)
(0.4508 -1.50659 0)
(0.4508 -1.54045 0)
(0.4508 -1.5743 0)
(0.4508 -1.60816 0)
(0.4508 -1.64202 0)
(0.4508 -1.67587 0)
(0.503792 -0.016928 0)
(0.503792 -0.050784 0)
(0.503792 -0.08464 0)
(0.503792 -0.118496 0)
(0.503792 -0.152352 0)
(0.503792 -0.186208 0)
(0.503792 -0.220064 0)
(0.503792 -0.25392 0)
(0.503792 -0.287776 0)
(0.503792 -0.321632 0)
(0.503792 -0.355488 0)
(0.503792 -0.389344 0)
(0.503792 -0.4232 0)
(0.503792 -0.457056 0)
(0.503792 -0.490912 0)
(0.503792 -0.524768 0)
(0.503792 -0.558624 0)
(0.503792 -0.59248 0)
(0.503792 -0.626336 0)
(0.503792 -0.660192 0)
(0.503792 -0.694048 0)
(0.503792 -0.727904 0)
(0.503792 -0.76176 0)
(0.503792 -0.795616 0)
(0.503792 -0.829472 0)
(0.503792 -0.863328 0)
(0.503792 -0.897184 0)
(0.503792 -0.93104 0)
(0.503792 -0.964896 0)
(0.503792 -0.998752 0)
(0.503792 -1.03261 0)
(0.503792 -1.06646 0)
(0.503792 -1.10032 0)
(0.503792 -1.13418 0)
(0.503792 -1.16803 0)
(0.503792 -1.20189 0)
(0.503792 -1.23574 0)
(0.503792 -1.2696 0)
(0.503792 -1.30346 0)
(0.503792 -1.33731 0)
(0.503792 -1.37117 0)
(0.503792 -1.40502 0)
(0.503792 -1.43888 0)
(0.503792 -1.47274 0)
(0.503792 -1.50659 0)
(0.503792 -1.54045 0)
(0.503792 -1.5743 0)
(0.503792 -1.60816 0)
(0.503792 -1.64202 0)
(0.503792 -1.67587 0)
(0.559728 -0.016928 0)
(0.559728 -0.050784 0)
(0.559728 -0.08464 0)
(0.559728 -0.118496 0)
(0.559728 -0.152352 0)
(0.559728 -0.186208 0)
(0.559728 -0.220064 0)
(0.559728 -0.25392 0)
(0.559728 -0.287776 0)
(0.559728 -0.321632 0)
(0.559728 -0.355488 0)
(0.559728 -0.389344 0)
(0.559728 -0.4232 0)
(0.559728 -0.457056 0)
(0.559728 -0.490912 0)
(0.559728 -0.524768 0)
(0.559728 -0.558624 0)
(0.559728 -0.59248 0)
(0.559728 -0.626336 0)
(0.559728 -0.660192 0)
(0.559728 -0.694048 0)
(0.559728 -0.727904 0)
(0.559728 -0.76176 0)
(0.559728 -0.795616 0)
(0.559728 -0.829472 0)
(0.559728 -0.863328 0)
(0.559728 -0.897184 0)
(0.559728 -0.93104 0)
(0.559728 -0.964896 0)
(0.559728 -0.998752 0)
(0.559728 -1.03261 0)
(0.559728 -1.06646 0)
(0.559728 -1.10032 0)
(0.559728 -1.13418 0)
(0.559728 -1.16803 0)
(0.559728 -1.20189 0)
(0.559728 -1.23574 0)
(0.559728 -1.2696 0)
(0.559728 -1.30346 0)
(0.559728 -1.33731 0)
(0.559728 -1.37117 0)
(0.559728 -1.40502 0)
(0.559728 -1.43888 0)
(0.559728 -1.47274 0)
(0.559728 -1.50659 0)
(0.559728 -1.54045 0)
(0.559728 -1.5743 0)
(0.559728 -1.60816 0)
(0.559728 -1.64202 0)
(0.559728 -1.67587 0)
(0.618608 -0.016928 0)
(0.618608 -0.050784 0)
(0.618608 -0.08464 0)
(0.618608 -0.118496 0)
(0.618608 -0.152352 0)
(0.618608 -0.186208 0)
(0.618608 -0.220064 0)
(0.618608 -0.25392 0)
(0.618608 -0.287776 0)
(0.618608 -0.321632 0)
(0.618608 -0.355488 0)
(0.618608 -0.389344 0)
(0.618608 -0.4232 0)
(0.618608 -0.457056 0)
(0.618608 -0.490912 0)
(0.618608 -0.524768 0)
(0.618608 -0.558624 0)
(0.618608 -0.59248 0)
(0.618608 -0.626336 0)
(0.618608 -0.660192 0)
(0.618608 -0.694048 0)
(0.618608 -0.727904 0)
(0.618608 -0.76176 0)
(0.618608 -0.795616 0)
(0.618608 -0.829472 0)
(0.618608 -0.863328 0)
(0.618608 -0.897184 0)
(0.618608 -0.93104 0)
(0.618608 -0.964896 0)
(0.618608 -0.998752 0)
(0.618608 -1.03261 0)
(0.618608 -1.06646 0)
(0.618608 -1.10032 0)
(0.618608 -1.13418 0)
(0.618608 -1.16803 0)
(0.618608 -1.20189 0)
(0.618608 -1.23574 0)
(0.618608 -1.2696 0)
(0.618608 -1.30346 0)
(0.618608 -1.33731 0)
(0.618608 -1.37117 0)
(0.618608 -1.40502 0)
(0.618608 -1.43888 0)
(0.618608 -1.47274 0)
(0.618608 -1.50659 0)
(0.618608 -1.54045 0)
(0.618608 -1.5743 0)
(0.618608 -1.60816 0)
(0.618608 -1.64202 0)
(0.618608 -1.67587 0)
(0.680432 -0.016928 0)
(0.680432 -0.050784 0)
(0.680432 -0.08464 0)
(0.680432 -0.118496 0)
(0.680432 -0.152352 0)
(0.680432 -0.186208 0)
(0.680432 -0.220064 0)
(0.680432 -0.25392 0)
(0.680432 -0.287776 0)
(0.680432 -0.321632 0)
(0.680432 -0.355488 0)
(0.680432 -0.389344 0)
(0.680432 -0.4232 0)
(0.680432 -0.457056 0)
(0.680432 -0.490912 0)
(0.680432 -0.524768 0)
(0.680432 -0.558624 0)
(0.680432 -0.59248 0)
(0.680432 -0.626336 0)
(0.680432 -0.660192 0)
(0.680432 -0.694048 0)
(0.680432 -0.727904 0)
(0.680432 -0.76176 0)
(0.680432 -0.795616 0)
(0.680432 -0.829472 0)
(0.680432 -0.863328 0)
(0.680432 -0.897184 0)
(0.680432 -0.93104 0)
(0.680432 -0.964896 0)
(0.680432 -0.998752 0)
(0.680432 -1.03261 0)
(0.680432 -1.06646 0)
(0.680432 -1.10032 0)
(0.680432 -1.13418 0)
(0.680432 -1.16803 0)
(0.680432 -1.20189 0)
(0.680432 -1.23574 0)
(0.680432 -1.2696 0)
(0.680432 -1.30346 0)
(0.680432 -1.33731 0)
(0.680432 -1.37117 0)
(0.680432 -1.40502 0)
(0.680432 -1.43888 0)
(0.680432 -1.47274 0)
(0.680432 -1.50659 0)
(0.680432 -1.54045 0)
(0.680432 -1.5743 0)
(0.680432 -1.60816 0)
(0.680432 -1.64202 0)
(0.680432 -1.67587 0)
(0.7452 -0.016928 0)
(0.7452 -0.050784 0)
(0.7452 -0.08464 0)
(0.7452 -0.118496 0)
(0.7452 -0.152352 0)
(0.7452 -0.186208 0)
(0.7452 -0.220064 0)
(0.7452 -0.25392 0)
(0.7452 -0.287776 0)
(0.7452 -0.321632 0)
(0.7452 -0.355488 0)
(0.7452 -0.389344 0)
(0.7452 -0.4232 0)
(0.7452 -0.457056 0)
(0.7452 -0.490912 0)
(0.7452 -0.524768 0)
(0.7452 -0.558624 0)
(0.7452 -0.59248 0)
(0.7452 -0.626336 0)
(0.7452 -0.660192 0)
(0.7452 -0.694048 0)
(0.7452 -0.727904 0)
(0.7452 -0.76176 0)
(0.7452 -0.795616 0)
(0.7452 -0.829472 0)
(0.7452 -0.863328 0)
(0.7452 -0.897184 0)
(0.7452 -0.93104 0)
(0.7452 -0.964896 0)
(0.7452 -0.998752 0)
(0.7452 -1.03261 0)
(0.7452 -1.06646 0)
(0.7452 -1.10032 0)
(0.7452 -1.13418 0)
(0.7452 -1.16803 0)
(0.7452 -1.20189 0)
(0.7452 -1.23574 0)
(0.7452 -1.2696 0)
(0.7452 -1.30346 0)
(0.7452 -1.33731 0)
(0.7452 -1.37117 0)
(0.7452 -1.40502 0)
(0.7452 -1.43888 0)
(0.7452 -1.47274 0)
(0.7452 -1.50659 0)
(0.7452 -1.54045 0)
(0.7452 -1.5743 0)
(0.7452 -1.60816 0)
(0.7452 -1.64202 0)
(0.7452 -1.67587 0)
(0.812912 -0.016928 0)
(0.812912 -0.050784 0)
(0.812912 -0.08464 0)
(0.812912 -0.118496 0)
(0.812912 -0.152352 0)
(0.812912 -0.186208 0)
(0.812912 -0.220064 0)
(0.812912 -0.25392 0)
(0.812912 -0.287776 0)
(0.812912 -0.321632 0)
(0.812912 -0.355488 0)
(0.812912 -0.389344 0)
(0.812912 -0.4232 0)
(0.812912 -0.457056 0)
(0.812912 -0.490912 0)
(0.812912 -0.524768 0)
(0.812912 -0.558624 0)
(0.812912 -0.59248 0)
(0.812912 -0.626336 0)
(0.812912 -0.660192 0)
(0.812912 -0.694048 0)
(0.812912 -0.727904 0)
(0.812912 -0.76176 0)
(0.812912 -0.795616 0)
(0.812912 -0.829472 0)
(0.812912 -0.863328 0)
(0.812912 -0.897184 0)
(0.812912 -0.93104 0)
(0.812912 -0.964896 0)
(0.812912 -0.998752 0)
(0.812912 -1.03261 0)
(0.812912 -1.06646 0)
(0.812912 -1.10032 0)
(0.812912 -1.13418 0)
(0.812912 -1.16803 0)
(0.812912 -1.20189 0)
(0.812912 -1.23574 0)
(0.812912 -1.2696 0)
(0.812912 -1.30346 0)
(0.812912 -1.33731 0)
(0.812912 -1.37117 0)
(0.812912 -1.40502 0)
(0.812912 -1.43888 0)
(0.812912 -1.47274 0)
(0.812912 -1.50659 0)
(0.812912 -1.54045 0)
(0.812912 -1.5743 0)
(0.812912 -1.60816 0)
(0.812912 -1.64202 0)
(0.812912 -1.67587 0)
(0.883568 -0.016928 0)
(0.883568 -0.050784 0)
(0.883568 -0.08464 0)
(0.883568 -0.118496 0)
(0.883568 -0.152352 0)
(0.883568 -0.186208 0)
(0.883568 -0.220064 0)
(0.883568 -0.25392 0)
(0.883568 -0.287776 0)
(0.883568 -0.321632 0)
(0.883568 -0.355488 0)
(0.883568 -0.389344 0)
(0.883568 -0.4232 0)
(0.883568 -0.457056 0)
(0.883568 -0.490912 0)
(0.883568 -0.524768 0)
(0.883568 -0.558624 0)
(0.883568 -0.59248 0)
(0.883568 -0.626336 0)
(0.883568 -0.660192 0)
(0.883568 -0.694048 0)
(0.883568 -0.727904 0)
(0.883568 -0.76176 0)
(0.883568 -0.795616 0)
(0.883568 -0.829472 0)
(0.883568 -0.863328 0)
(0.883568 -0.897184 0)
(0.883568 -0.93104 0)
(0.883568 -0.964896 0)
(0.883568 -0.998752 0)
(0.883568 -1.03261 0)
(0.883568 -1.06646 0)
(0.883568 -1.10032 0)
(0.883568 -1.13418 0)
(0.883568 -1.16803 0)
(0.883568 -1.20189 0)
(0.883568 -1.23574 0)
(0.883568 -1.2696 0)
(0.883568 -1.30346 0)
(0.883568 -1.33731 0)
(0.883568 -1.37117 0)
(0.883568 -1.40502 0)
(0.883568 -1.43888 0)
(0.883568 -1.47274 0)
(0.883568 -1.50659 0)
(0.883568 -1.54045 0)
(0.883568 -1.5743 0)
(0.883568 -1.60816 0)
(0.883568 -1.64202 0)
(0.883568 -1.67587 0)
(0.957168 -0.016928 0)
(0.957168 -0.050784 0)
(0.957168 -0.08464 0)
(0.957168 -0.118496 0)
(0.957168 -0.152352 0)
(0.957168 -0.186208 0)
(0.957168 -0.220064 0)
(0.957168 -0.25392 0)
(0.957168 -0.287776 0)
(0.957168 -0.321632 0)
(0.957168 -0.355488 0)
(0.957168 -0.389344 0)
(0.957168 -0.4232 0)
(0.957168 -0.457056 0)
(0.957168 -0.490912 0)
(0.957168 -0.524768 0)
(0.957168 -0.558624 0)
(0.957168 -0.59248 0)
(0.957168 -0.626336 0)
(0.957168 -0.660192 0)
(0.957168 -0.694048 0)
(0.957168 -0.727904 0)
(0.957168 -0.76176 0)
(0.957168 -0.795616 0)
(0.957168 -0.829472 0)
(0.957168 -0.863328 0)
(0.957168 -0.897184 0)
(0.957168 -0.93104 0)
(0.957168 -0.964896 0)
(0.957168 -0.998752 0)
(0.957168 -1.03261 0)
(0.957168 -1.06646 0)
(0.957168 -1.10032 0)
(0.957168 -1.13418 0)
(0.957168 -1.16803 0)
(0.957168 -1.20189 0)
(0.957168 -1.23574 0)
(0.957168 -1.2696 0)
(0.957168 -1.30346 0)
(0.957168 -1.33731 0)
(0.957168 -1.37117 0)
(0.957168 -1.40502 0)
(0.957168 -1.43888 0)
(0.957168 -1.47274 0)
(0.957168 -1.50659 0)
(0.957168 -1.54045 0)
(0.957168 -1.5743 0)
(0.957168 -1.60816 0)
(0.957168 -1.64202 0)
(0.957168 -1.67587 0)
(1.03371 -0.016928 0)
(1.03371 -0.050784 0)
(1.03371 -0.08464 0)
(1.03371 -0.118496 0)
(1.03371 -0.152352 0)
(1.03371 -0.186208 0)
(1.03371 -0.220064 0)
(1.03371 -0.25392 0)
(1.03371 -0.287776 0)
(1.03371 -0.321632 0)
(1.03371 -0.355488 0)
(1.03371 -0.389344 0)
(1.03371 -0.4232 0)
(1.03371 -0.457056 0)
(1.03371 -0.490912 0)
(1.03371 -0.524768 0)
(1.03371 -0.558624 0)
(1.03371 -0.59248 0)
(1.03371 -0.626336 0)
(1.03371 -0.660192 0)
(1.03371 -0.694048 0)
(1.03371 -0.727904 0)
(1.03371 -0.76176 0)
(1.03371 -0.795616 0)
(1.03371 -0.829472 0)
(1.03371 -0.863328 0)
(1.03371 -0.897184 0)