/*--------------------------------*- C++ -*----------------------------------*\
| =========                 |                                                 |
| \\      /  F ield         | OpenFOAM: The Open Source CFD Toolbox           |
|  \\    /   O peration     | Version:  v2006                                 |
|   \\  /    A nd           | Website:  www.openfoam.com                      |
|    \\/     M anipulation  |                                                 |
\*---------------------------------------------------------------------------*/
FoamFile
{
    version     2.0;
    format      ascii;
    class       volVectorField;
    location    "15.1";
    object      U;
}
// * * * * * * * * * * * * * * * * * * * * * * * * * * * * * * * * * * * * * //

dimensions      [0 1 -1 0 0 0 0];


internalField   nonuniform List<vector> 
150000
(
(0.00029913 -0.00273608 0)
(0.00323075 -0.00347302 0)
(0.00673403 -0.00397433 0)
(0.0111973 -0.00428878 0)
(0.0159319 -0.00451024 0)
(0.0207432 -0.00462538 0)
(0.0253694 -0.00464326 0)
(0.0296803 -0.00457841 0)
(0.033575 -0.00444161 0)
(0.0370026 -0.00423931 0)
(0.0399462 -0.00397822 0)
(0.042425 -0.00367804 0)
(0.0444912 -0.00336465 0)
(0.046217 -0.00306291 0)
(0.0476749 -0.00278979 0)
(0.0489295 -0.00254947 0)
(0.050031 -0.00234142 0)
(0.0510118 -0.00216615 0)
(0.0518955 -0.00202506 0)
(0.0527036 -0.00191354 0)
(0.0534574 -0.00181567 0)
(0.0541745 -0.00171153 0)
(0.0548798 -0.00158448 0)
(0.055569 -0.00144322 0)
(0.0562581 -0.00128232 0)
(0.0569752 -0.00113572 0)
(0.0577139 -0.00103565 0)
(0.0584643 -0.00101462 0)
(0.0592143 -0.00109484 0)
(0.0599348 -0.00127578 0)
(0.0606178 -0.00150451 0)
(0.0612838 -0.00171189 0)
(0.0619451 -0.00182878 0)
(0.0626278 -0.00180969 0)
(0.063354 -0.00166763 0)
(0.0641122 -0.00143527 0)
(0.0648737 -0.00117067 0)
(0.0656099 -0.000902767 0)
(0.0662909 -0.000638693 0)
(0.0668892 -0.000374942 0)
(0.0673882 -0.00011093 0)
(0.0678054 0.000145063 0)
(0.0681538 0.000364871 0)
(0.0684886 0.000549026 0)
(0.0688946 0.000676858 0)
(0.0694371 0.000738673 0)
(0.0701856 0.000733857 0)
(0.0712068 0.00066126 0)
(0.0725583 0.000521604 0)
(0.0742819 0.000313575 0)
(0.0764215 4.51159e-05 0)
(0.0790035 -0.000283037 0)
(0.0820458 -0.000653773 0)
(0.0855606 -0.00105358 0)
(0.0895399 -0.00146338 0)
(0.0939701 -0.00186318 0)
(0.0988241 -0.00223761 0)
(0.104071 -0.00257431 0)
(0.109672 -0.00287108 0)
(0.115594 -0.00312842 0)
(0.12177 -0.00336062 0)
(0.128154 -0.00356087 0)
(0.134707 -0.00373936 0)
(0.14138 -0.00389913 0)
(0.148139 -0.00403973 0)
(0.154965 -0.00415967 0)
(0.161854 -0.0042563 0)
(0.168805 -0.00432594 0)
(0.175823 -0.00436499 0)
(0.182905 -0.00437051 0)
(0.190042 -0.00433968 0)
(0.197218 -0.00427113 0)
(0.204415 -0.00416543 0)
(0.211614 -0.00402727 0)
(0.218799 -0.00386341 0)
(0.225956 -0.00368169 0)
(0.233068 -0.00348833 0)
(0.240104 -0.00328482 0)
(0.247017 -0.00306639 0)
(0.253742 -0.00282912 0)
(0.2602 -0.00256865 0)
(0.266309 -0.00229087 0)
(0.272003 -0.00202247 0)
(0.277248 -0.00179986 0)
(0.282051 -0.0016711 0)
(0.286486 -0.00167343 0)
(0.290678 -0.00182145 0)
(0.294778 -0.00209868 0)
(0.298928 -0.00246062 0)
(0.303231 -0.00285098 0)
(0.307734 -0.00322001 0)
(0.312429 -0.00352987 0)
(0.317267 -0.00375518 0)
(0.322182 -0.00389116 0)
(0.32709 -0.00394705 0)
(0.331895 -0.00393461 0)
(0.336506 -0.00386264 0)
(0.340835 -0.00372484 0)
(0.344807 -0.00350201 0)
(0.348379 -0.00316991 0)
(0.351531 -0.00269737 0)
(0.354297 -0.00208396 0)
(0.356719 -0.00136118 0)
(0.358819 -0.000573528 0)
(0.360581 0.000242361 0)
(0.36196 0.0010629 0)
(0.362907 0.00186076 0)
(0.363417 0.00257653 0)
(0.363562 0.00311515 0)
(0.363414 0.00334155 0)
(0.362964 0.00323132 0)
(0.361927 0.0028396 0)
(0.359786 0.00219616 0)
(0.356203 0.001365 0)
(0.351322 0.000349265 0)
(0.345665 -0.000790177 0)
(0.339904 -0.00184183 0)
(0.334645 -0.00256069 0)
(0.330278 -0.00278701 0)
(0.326823 -0.00255219 0)
(0.32403 -0.00210539 0)
(0.321621 -0.00165618 0)
(0.319379 -0.00123373 0)
(0.317091 -0.000774535 0)
(0.314486 -0.00022133 0)
(0.311293 0.000429593 0)
(0.307339 0.00111363 0)
(0.302578 0.00174502 0)
(0.297072 0.00227073 0)
(0.290963 0.00268014 0)
(0.284426 0.00298499 0)
(0.277628 0.00320163 0)
(0.270704 0.00334343 0)
(0.263746 0.00342365 0)
(0.256803 0.00346482 0)
(0.249883 0.00349664 0)
(0.242967 0.00354389 0)
(0.236012 0.00361793 0)
(0.22897 0.00371906 0)
(0.221789 0.00384158 0)
(0.21443 0.00397862 0)
(0.206859 0.00412139 0)
(0.199054 0.00426634 0)
(0.191018 0.00440638 0)
(0.182763 0.0045359 0)
(0.174313 0.00465126 0)
(0.165705 0.00474895 0)
(0.156978 0.00482594 0)
(0.148177 0.00488073 0)
(0.139349 0.00491368 0)
(0.130539 0.00492556 0)
(0.121787 0.0049167 0)
(0.113128 0.00488685 0)
(0.104591 0.00483577 0)
(0.0961999 0.00476342 0)
(0.0879686 0.00467135 0)
(0.0799034 0.00456384 0)
(0.0720017 0.00444835 0)
(0.0642545 0.00433537 0)
(0.056641 0.00423567 0)
(0.0491404 0.00416522 0)
(0.0417328 0.0041339 0)
(0.0344027 0.00415423 0)
(0.0271481 0.00422888 0)
(0.0199703 0.00435115 0)
(0.0128763 0.00450822 0)
(0.00588901 0.00468418 0)
(-0.000975649 0.00485005 0)
(-0.00770404 0.00498352 0)
(-0.0142628 0.00504689 0)
(-0.0206167 0.00498451 0)
(-0.0267261 0.0047493 0)
(-0.0325592 0.00432572 0)
(-0.0380948 0.00373484 0)
(-0.0433492 0.0030426 0)
(-0.0483912 0.00235273 0)
(-0.0533451 0.00178737 0)
(-0.0583777 0.00145822 0)
(-0.0636692 0.00143311 0)
(-0.0693721 0.00170929 0)
(-0.0755643 0.00220604 0)
(-0.082203 0.00278076 0)
(-0.0891094 0.00325755 0)
(-0.095995 0.00347769 0)
(-0.102515 0.00336118 0)
(-0.108354 0.0029352 0)
(-0.113294 0.00230586 0)
(-0.117254 0.00160114 0)
(-0.12027 0.000918033 0)
(-0.122472 0.000302321 0)
(-0.124043 -0.000234208 0)
(-0.125214 -0.000687514 0)
(-0.12626 -0.00103394 0)
(-0.127469 -0.00121581 0)
(-0.129123 -0.00117359 0)
(-0.131441 -0.00090767 0)
(-0.134535 -0.000506167 0)
(-0.138394 -9.9993e-05 0)
(-0.14292 0.000205681 0)
(-0.148017 0.000344692 0)
(-0.153687 0.000306363 0)
(-0.160037 0.000187941 0)
(-0.167194 0.000138386 0)
(-0.17522 0.000282552 0)
(-0.184061 0.000678238 0)
(-0.193555 0.00129432 0)
(-0.203479 0.00202687 0)
(-0.213608 0.00274931 0)
(-0.223749 0.00337206 0)
(-0.233759 0.00386277 0)
(-0.243559 0.00422049 0)
(-0.253136 0.0044695 0)
(-0.262522 0.00464843 0)
(-0.271768 0.00478438 0)
(-0.280904 0.00487595 0)
(-0.289917 0.00489881 0)
(-0.298757 0.0048282 0)
(-0.307349 0.00466238 0)
(-0.315635 0.00443232 0)
(-0.323606 0.00419352 0)
(-0.331313 0.00400649 0)
(-0.338865 0.00391679 0)
(-0.346401 0.00394147 0)
(-0.354051 0.0040635 0)
(-0.3619 0.00424088 0)
(-0.369981 0.00443129 0)
(-0.378297 0.00461787 0)
(-0.386857 0.00481989 0)
(-0.395722 0.00508515 0)
(-0.405014 0.00547345 0)
(-0.414911 0.00603637 0)
(-0.425598 0.00678862 0)
(-0.437199 0.00767308 0)
(-0.449691 0.00855479 0)
(-0.462865 0.00929372 0)
(-0.476406 0.00988661 0)
(-0.490103 0.0105542 0)
(-0.504049 0.0116239 0)
(-0.518632 0.0132158 0)
(-0.534206 0.0149721 0)
(-0.550683 0.0161469 0)
(-0.567321 0.0161169 0)
(-0.582945 0.0147792 0)
(-0.596466 0.0124217 0)
(-0.607396 0.00963915 0)
(-0.6159 0.00707116 0)
(-0.622518 0.00509268 0)
(-0.627833 0.00375005 0)
(-0.632287 0.00289764 0)
(-0.636157 0.00236083 0)
(-0.639611 0.00201505 0)
(-0.64276 0.0017862 0)
(-0.64568 0.00162868 0)
(-0.648421 0.00151256 0)
(-0.651011 0.00141874 0)
(-0.653466 0.00133563 0)
(-0.655792 0.00125631 0)
(-0.657989 0.00117669 0)
(-0.660055 0.0010945 0)
(-0.661989 0.0010085 0)
(-0.663788 0.000918015 0)
(-0.665452 0.000822664 0)
(-0.66698 0.000722249 0)
(-0.668372 0.000616718 0)
(-0.669628 0.000506196 0)
(-0.670749 0.000391052 0)
(-0.671734 0.000271948 0)
(-0.672583 0.000149856 0)
(-0.673294 2.60333e-05 0)
(-0.673865 -9.80549e-05 0)
(-0.674293 -0.000220849 0)
(-0.674571 -0.000341421 0)
(-0.674688 -0.000465493 0)
(-0.674624 -0.000614996 0)
(-0.674357 -0.000783489 0)
(-0.673876 -0.000957382 0)
(-0.673169 -0.00113459 0)
(-0.67223 -0.00130805 0)
(-0.671063 -0.00147486 0)
(-0.669669 -0.00163302 0)
(-0.668055 -0.00178128 0)
(-0.666227 -0.00191902 0)
(-0.664191 -0.00204633 0)
(-0.661955 -0.00216409 0)
(-0.659525 -0.00227315 0)
(-0.656907 -0.00237393 0)
(-0.654107 -0.00246646 0)
(-0.65113 -0.00255095 0)
(-0.647981 -0.00262766 0)
(-0.644665 -0.00269691 0)
(-0.641186 -0.00275911 0)
(-0.637548 -0.00281456 0)
(-0.633755 -0.00286351 0)
(-0.629812 -0.0029062 0)
(-0.625723 -0.00294284 0)
(-0.621492 -0.0029736 0)
(-0.617125 -0.0029987 0)
(-0.612626 -0.00301834 0)
(-0.608 -0.00303274 0)
(-0.603254 -0.00304207 0)
(-0.598392 -0.00304657 0)
(-0.593422 -0.00304652 0)
(-0.588349 -0.00304216 0)
(-0.583181 -0.00303376 0)
(-0.577923 -0.00302158 0)
(-0.572584 -0.00300595 0)
(-0.56717 -0.00298717 0)
(-0.56169 -0.00296546 0)
(-0.556152 -0.00294102 0)
(-0.550562 -0.00291402 0)
(-0.544931 -0.00288459 0)
(-0.539267 -0.00285274 0)
(-0.533578 -0.00281834 0)
(-0.527874 -0.00278108 0)
(-0.522165 -0.00274047 0)
(-0.516461 -0.00269589 0)
(-0.510773 -0.00264661 0)
(-0.505112 -0.00259186 0)
(-0.49949 -0.0025309 0)
(-0.49392 -0.00246302 0)
(-0.488413 -0.0023875 0)
(-0.482984 -0.00230385 0)
(-0.477645 -0.00221187 0)
(-0.472409 -0.00211179 0)
(-0.46729 -0.00200424 0)
(-0.462299 -0.00189023 0)
(-0.457449 -0.001771 0)
(-0.452751 -0.00164796 0)
(-0.448216 -0.0015226 0)
(-0.443853 -0.00139646 0)
(-0.439671 -0.00127103 0)
(-0.43568 -0.00114762 0)
(-0.431887 -0.00102732 0)
(-0.4283 -0.00091097 0)
(-0.424924 -0.000798963 0)
(-0.421766 -0.000691181 0)
(-0.418832 -0.00058688 0)
(-0.416127 -0.000484629 0)
(-0.413657 -0.000382324 0)
(-0.411427 -0.000277305 0)
(-0.409442 -0.000166636 0)
(-0.407706 -4.75615e-05 0)
(-0.406223 8.18425e-05 0)
(-0.404994 0.000221857 0)
(-0.404019 0.000370277 0)
(-0.403292 0.000521415 0)
(-0.402801 0.000664738 0)
(-0.402531 0.000788102 0)
(-0.402464 0.000896519 0)
(-0.402563 0.0010156 0)
(-0.402874 0.00113646 0)
(-0.403402 0.00124647 0)
(-0.404145 0.00135082 0)
(-0.405113 0.00145762 0)
(-0.406326 0.00155466 0)
(-0.407791 0.00158169 0)
(-0.409465 0.00147152 0)
(-0.411236 0.00120084 0)
(-0.412967 0.000827303 0)
(-0.414595 0.000480527 0)
(-0.416168 0.000265605 0)
(-0.417798 0.000182259 0)
(-0.419574 0.000157507 0)
(-0.421539 0.000140221 0)
(-0.423698 0.000109872 0)
(-0.426047 5.57476e-05 0)
(-0.428574 -2.46755e-05 0)
(-0.431258 -0.000120107 0)
(-0.434079 -0.000202659 0)
(-0.437017 -0.000228924 0)
(-0.440064 -0.000145152 0)
(-0.443234 0.000105146 0)
(-0.446562 0.000570238 0)
(-0.450115 0.00127267 0)
(-0.453977 0.00218597 0)
(-0.458224 0.00321345 0)
(-0.462877 0.00418372 0)
(-0.46786 0.00488858 0)
(-0.472985 0.00518049 0)
(-0.477964 0.00504685 0)
(-0.482489 0.00455572 0)
(-0.486383 0.00387604 0)
(-0.489677 0.0032203 0)
(-0.492554 0.00273104 0)
(-0.495235 0.00244777 0)
(-0.497886 0.00233609 0)
(-0.500597 0.00233088 0)
(-0.503396 0.00237731 0)
(-0.506259 0.00243175 0)
(-0.509121 0.00246521 0)
(-0.511898 0.00246813 0)
(-0.514505 0.00242828 0)
(-0.516868 0.00233047 0)
(-0.518918 0.00215275 0)
(-0.520577 0.0018656 0)
(-0.521749 0.00145945 0)
(-0.522328 0.000981773 0)
(-0.522264 0.000519287 0)
(-0.521732 0.000161046 0)
(-0.520859 -9.34779e-05 0)
(-0.519746 -0.000246146 0)
(-0.51852 -0.000296931 0)
(-0.517295 -0.00026066 0)
(-0.516162 -0.000164622 0)
(-0.515182 -4.13731e-05 0)
(-0.514377 7.93231e-05 0)
(-0.513739 0.000176444 0)
(-0.513232 0.000239965 0)
(-0.512811 0.000268713 0)
(-0.512424 0.000266463 0)
(-0.512026 0.000238924 0)
(-0.511584 0.000191892 0)
(-0.511071 0.000130294 0)
(-0.510474 5.82573e-05 0)
(-0.509786 -2.06743e-05 0)
(-0.509005 -0.000103622 0)
(-0.508135 -0.000188722 0)
(-0.507181 -0.00027528 0)
(-0.506149 -0.00036367 0)
(-0.505043 -0.000454887 0)
(-0.503866 -0.000549921 0)
(-0.502618 -0.000649215 0)
(-0.501297 -0.000752897 0)
(-0.499898 -0.000860234 0)
(-0.498417 -0.000971109 0)
(-0.496846 -0.00108562 0)
(-0.495177 -0.00120391 0)
(-0.493399 -0.00132644 0)
(-0.491503 -0.00145407 0)
(-0.489473 -0.00158772 0)
(-0.487292 -0.00172811 0)
(-0.48494 -0.00187558 0)
(-0.482396 -0.00203003 0)
(-0.479632 -0.00219092 0)
(-0.476623 -0.00235737 0)
(-0.47334 -0.00252825 0)
(-0.469754 -0.00270236 0)
(-0.465838 -0.00287855 0)
(-0.461563 -0.00305579 0)
(-0.456905 -0.00323321 0)
(-0.45184 -0.00341014 0)
(-0.446347 -0.00358596 0)
(-0.44041 -0.00376007 0)
(-0.434015 -0.00393173 0)
(-0.427154 -0.00410006 0)
(-0.419822 -0.00426402 0)
(-0.412021 -0.00442237 0)
(-0.403756 -0.00457378 0)
(-0.395041 -0.0047168 0)
(-0.385892 -0.00484999 0)
(-0.37633 -0.00497195 0)
(-0.366383 -0.00508145 0)
(-0.35608 -0.00517745 0)
(-0.345456 -0.00525921 0)
(-0.334545 -0.00532628 0)
(-0.323387 -0.00537844 0)
(-0.312018 -0.00541568 0)
(-0.300477 -0.00543815 0)
(-0.288802 -0.00544613 0)
(-0.27703 -0.00543999 0)
(-0.265197 -0.00542021 0)
(-0.253339 -0.00538737 0)
(-0.24149 -0.00534211 0)
(-0.229685 -0.00528505 0)
(-0.217961 -0.00521658 0)
(-0.206353 -0.00513673 0)
(-0.194899 -0.00504509 0)
(-0.183638 -0.00494098 0)
(-0.172608 -0.00482369 0)
(-0.161852 -0.00469276 0)
(-0.151409 -0.00454797 0)
(-0.141323 -0.00438954 0)
(-0.131633 -0.00421884 0)
(-0.122374 -0.00403864 0)
(-0.113579 -0.00385239 0)
(-0.105273 -0.00366441 0)
(-0.0974726 -0.00348021 0)
(-0.0901876 -0.00330477 0)
(-0.0834212 -0.00314202 0)
(-0.0771654 -0.00299305 0)
(-0.0714056 -0.00286244 0)
(-0.0661191 -0.00275689 0)
(-0.0612764 -0.00267702 0)
(-0.0568414 -0.00262526 0)
(-0.0527742 -0.00260218 0)
(-0.0490321 -0.00261032 0)
(-0.0455713 -0.00265159 0)
(-0.0423431 -0.00272289 0)
(-0.0392968 -0.0028133 0)
(-0.0363874 -0.00291309 0)
(-0.0335627 -0.00303099 0)
(-0.0307469 -0.00316547 0)
(-0.0278646 -0.00330708 0)
(-0.0248205 -0.00344282 0)
(-0.0215008 -0.0035654 0)
(-0.0178605 -0.00368324 0)
(-0.013624 -0.0037979 0)
(-0.00864921 -0.00380179 0)
(-0.00293075 -0.00314907 0)
(0.00107403 -0.00137555 0)
(-0.0039178 -0.000139735 0)
(-0.00881013 -0.00168097 0)
(-0.0143271 -0.00264408 0)
(-0.0192496 -0.00324514 0)
(-0.0242858 -0.00338425 0)
(-0.0296894 -0.00316024 0)
(-0.0355918 -0.00272074 0)
(-0.0419668 -0.0021588 0)
(-0.048732 -0.00154766 0)
(-0.0557289 -0.000953058 0)
(-0.0627747 -0.000427045 0)
(-0.0696968 -5.05168e-06 0)
(-0.0763573 0.000299833 0)
(-0.0826642 0.000494379 0)
(-0.088573 0.0006006 0)
(-0.0940784 0.00064904 0)
(-0.0992011 0.000666734 0)
(-0.103972 0.000672262 0)
(-0.108415 0.000673634 0)
(-0.112536 0.000668198 0)
(-0.116314 0.000645159 0)
(-0.119709 0.00058938 0)
(-0.122685 0.000486006 0)
(-0.125236 0.000327767 0)
(-0.127393 0.000142244 0)
(-0.129257 -4.44833e-05 0)
(-0.130986 -0.000175539 0)
(-0.132765 -0.000193604 0)
(-0.134748 -6.98794e-05 0)
(-0.136993 0.000172768 0)
(-0.13941 0.000465924 0)
(-0.14179 0.000701693 0)
(-0.143869 0.000793609 0)
(-0.145418 0.000716101 0)
(-0.146307 0.000504241 0)
(-0.146551 0.000216624 0)
(-0.146259 -5.85142e-05 0)
(-0.145539 -0.000274244 0)
(-0.144474 -0.000425102 0)
(-0.143104 -0.000535149 0)
(-0.141433 -0.000636895 0)
(-0.139449 -0.000764221 0)
(-0.13715 -0.000945041 0)
(-0.134529 -0.00117784 0)
(-0.131597 -0.00147774 0)
(-0.128372 -0.00183816 0)
(-0.124881 -0.00224496 0)
(-0.121163 -0.00268268 0)
(-0.117265 -0.00313578 0)
(-0.113251 -0.0035924 0)
(-0.109192 -0.00403804 0)
(-0.105156 -0.00446648 0)
(-0.10119 -0.00486546 0)
(-0.0973162 -0.00523792 0)
(-0.0935297 -0.0055868 0)
(-0.0898073 -0.00591722 0)
(-0.0861179 -0.00623232 0)
(-0.0824346 -0.00652693 0)
(-0.078745 -0.00679233 0)
(-0.0750543 -0.00701556 0)
(-0.0713831 -0.00718631 0)
(-0.0677429 -0.0072855 0)
(-0.064133 -0.00732715 0)
(-0.0605336 -0.00732852 0)
(-0.0569032 -0.00731616 0)
(-0.0531884 -0.00731692 0)
(-0.0493371 -0.00734896 0)
(-0.0453086 -0.00741663 0)
(-0.0410767 -0.00751338 0)
(-0.0366255 -0.00762754 0)
(-0.031943 -0.0077492 0)
(-0.027018 -0.00787402 0)
(-0.0218454 -0.00800124 0)
(-0.0164315 -0.00813378 0)
(-0.0108011 -0.00826555 0)
(-0.00500284 -0.00838371 0)
(0.000893223 -0.00846696 0)
(0.00680341 -0.00848769 0)
(0.012632 -0.00841425 0)
(0.0182848 -0.00822606 0)
(0.0236723 -0.00790994 0)
(0.0287027 -0.00747806 0)
(0.0333029 -0.00696473 0)
(0.0374192 -0.00640846 0)
(0.0410286 -0.00584982 0)
(0.0441541 -0.00533627 0)
(0.0468476 -0.00491726 0)
(0.0491844 -0.00462244 0)
(0.0512473 -0.00445636 0)
(0.0531107 -0.00440138 0)
(0.0548273 -0.00441508 0)
(0.0564197 -0.00443999 0)
(0.057878 -0.0044256 0)
(0.0591865 -0.00434309 0)
(0.0603485 -0.0041553 0)
(0.0614275 -0.00386819 0)
(0.0625794 -0.00349922 0)
(0.0640332 -0.00309844 0)
(0.0660568 -0.00273922 0)
(0.0689063 -0.00249119 0)
(0.0727053 -0.00238785 0)
(0.0774136 -0.00245034 0)
(0.0828188 -0.00264002 0)
(0.0885356 -0.00286632 0)
(0.0940535 -0.00304164 0)
(0.0988289 -0.00313483 0)
(0.102404 -0.0031789 0)
(0.104482 -0.00320026 0)
(0.104857 -0.00321528 0)
(0.103664 -0.00302526 0)
(0.100919 -0.00222097 0)
(0.0967315 -0.000381562 0)
(0.0909229 0.00249326 0)
(0.0829924 0.00584395 0)
(0.072713 0.00882518 0)
(0.0607326 0.0108429 0)
(0.0481719 0.0115663 0)
(0.0362216 0.0110284 0)
(0.0258694 0.00962917 0)
(0.0175038 0.0079626 0)
(0.0108754 0.00649257 0)
(0.00553317 0.00544904 0)
(0.00114509 0.00483509 0)
(-0.00251355 0.00460385 0)
(-0.00555759 0.004712 0)
(-0.00811358 0.00509832 0)
(-0.0104378 0.0056673 0)
(-0.0127776 0.00631839 0)
(-0.0153246 0.00694879 0)
(-0.0181865 0.00747247 0)
(-0.0213896 0.00783954 0)
(-0.0248885 0.00804477 0)
(-0.0285983 0.00811583 0)
(-0.0324254 0.00809636 0)
(-0.0362854 0.00803243 0)
(-0.0401216 0.00796363 0)
(-0.0439139 0.00792086 0)
(-0.0476722 0.00792577 0)
(-0.0514229 0.00799245 0)
(-0.0552025 0.00812229 0)
(-0.0590493 0.00830926 0)
(-0.0629955 0.00854188 0)
(-0.0670581 0.00880307 0)
(-0.0712526 0.00906829 0)
(-0.0755742 0.00931662 0)
(-0.0800109 0.00952839 0)
(-0.0845434 0.00968955 0)
(-0.0891495 0.00979363 0)
(-0.0938068 0.00983876 0)
(-0.0984984 0.00982687 0)
(-0.103216 0.00976374 0)
(-0.107959 0.00965759 0)
(-0.112731 0.00951836 0)
(-0.11754 0.00935703 0)
(-0.122393 0.00918488 0)
(-0.127288 0.00901265 0)
(-0.132217 0.00884914 0)
(-0.137154 0.00869974 0)
(-0.142056 0.00856437 0)
(-0.146863 0.00843714 0)
(-0.151503 0.00830802 0)
(-0.155906 0.008159 0)
(-0.160017 0.00797601 0)
(-0.163809 0.00774649 0)
(-0.167292 0.00746694 0)
(-0.170521 0.00714419 0)
(-0.173586 0.00679377 0)
(-0.176618 0.00642747 0)
(-0.179766 0.006075 0)
(-0.18318 0.00576242 0)
(-0.186996 0.00551585 0)
(-0.191324 0.00536735 0)
(-0.196238 0.00534661 0)
(-0.201751 0.00547503 0)
(-0.207797 0.00576058 0)
(-0.214226 0.00618991 0)
(-0.220812 0.00672288 0)
(-0.227291 0.00729416 0)
(-0.233401 0.00782321 0)
(-0.238936 0.00822882 0)
(-0.243793 0.00844574 0)
(-0.247983 0.00842753 0)
(-0.251604 0.00814539 0)
(-0.254799 0.00760757 0)
(-0.257706 0.00686152 0)
(-0.260439 0.00598239 0)
(-0.263061 0.00505773 0)
(-0.265592 0.00417225 0)
(-0.268029 0.003403 0)
(-0.270395 0.00282557 0)
(-0.272789 0.00251713 0)
(-0.275414 0.00254107 0)
(-0.278574 0.00291486 0)
(-0.282668 0.0035818 0)
(-0.288133 0.00442987 0)
(-0.295361 0.00533942 0)
(-0.304578 0.00621653 0)
(-0.315759 0.00703008 0)
(-0.32865 0.00784251 0)
(-0.342857 0.00878826 0)
(-0.357945 0.00999164 0)
(-0.373491 0.0114462 0)
(-0.389019 0.0129561 0)
(-0.403926 0.0142226 0)
(-0.417575 0.0149864 0)
(-0.429497 0.0151571 0)
(-0.439518 0.0148168 0)
(-0.447762 0.0141397 0)
(-0.454556 0.0133145 0)
(-0.460303 0.0124915 0)
(-0.465374 0.0117678 0)
(-0.470057 0.0111925 0)
(-0.474554 0.0107672 0)
(-0.478993 0.0104548 0)
(-0.483449 0.0101998 0)
(-0.487969 0.00995041 0)
(-0.492587 0.0096772 0)
(-0.497339 0.00938306 0)
(-0.502263 0.00910016 0)
(-0.507393 0.00887559 0)
(-0.512743 0.00875105 0)
(-0.5183 0.00874563 0)
(-0.524021 0.0088483 0)
(-0.529848 0.00902367 0)
(-0.535726 0.00923059 0)
(-0.54162 0.00944513 0)
(-0.547518 0.0096752 0)
(-0.553423 0.0099588 0)
(-0.559334 0.0103463 0)
(-0.565229 0.0108739 0)
(-0.571042 0.0115351 0)
(-0.576664 0.0122589 0)
(-0.581967 0.01291 0)
(-0.586856 0.0133281 0)
(-0.591303 0.013411 0)
(-0.595315 0.0131961 0)
(-0.598775 0.0128629 0)
(-0.601232 0.0126089 0)
(-0.601844 0.0124635 0)
(-0.599632 0.0122037 0)
(-0.593979 0.0114985 0)
(-0.585157 0.0101904 0)
(-0.57461 0.00843112 0)
(-0.564443 0.00667631 0)
(-0.556361 0.00533784 0)
(-0.551077 0.00451038 0)
(-0.548356 0.00405719 0)
(-0.547463 0.00379191 0)
(-0.547686 0.00359081 0)
(-0.548562 0.00340679 0)
(-0.549835 0.00323484 0)
(-0.551344 0.00307851 0)
(-0.552969 0.00293605 0)
(-0.554624 0.00280158 0)
(-0.556252 0.00266955 0)
(-0.557822 0.00253662 0)
(-0.559316 0.0024015 0)
(-0.560726 0.00226444 0)
(-0.562052 0.00212667 0)
(-0.563293 0.00198988 0)
(-0.564453 0.0018558 0)
(-0.565533 0.00172589 0)
(-0.566537 0.00160122 0)
(-0.567466 0.00148228 0)
(-0.568325 0.00136896 0)
(-0.569116 0.00126051 0)
(-0.569846 0.00115557 0)
(-0.57052 0.00105223 0)
(-0.571143 0.000948177 0)
(-0.571721 0.000840813 0)
(-0.572258 0.000727358 0)
(-0.572761 0.000604789 0)
(-0.573237 0.000467409 0)
(-0.573704 0.000302321 0)
(-0.574181 0.00011528 0)
(-0.574673 -8.41424e-05 0)
(-0.575175 -0.000283791 0)
(-0.575678 -0.000484858 0)
(-0.576177 -0.000688709 0)
(-0.57666 -0.000895084 0)
(-0.577113 -0.0011019 0)
(-0.577523 -0.0013084 0)
(-0.577875 -0.00151448 0)
(-0.578156 -0.00172002 0)
(-0.578352 -0.00192501 0)
(-0.578447 -0.00212972 0)
(-0.57843 -0.00233466 0)
(-0.578287 -0.00254021 0)
(-0.578009 -0.00274657 0)
(-0.577583 -0.00295367 0)
(-0.577001 -0.00316118 0)
(-0.576253 -0.00336874 0)
(-0.575331 -0.00357594 0)
(-0.574227 -0.00378237 0)
(-0.572936 -0.00398755 0)
(-0.571452 -0.00419089 0)
(-0.569769 -0.00439174 0)
(-0.567884 -0.00458942 0)
(-0.565794 -0.00478324 0)
(-0.563496 -0.00497254 0)
(-0.560989 -0.00515659 0)
(-0.558273 -0.00533462 0)
(-0.55535 -0.00550587 0)
(-0.552222 -0.00566958 0)
(-0.548891 -0.00582502 0)
(-0.545363 -0.00597148 0)
(-0.541643 -0.00610827 0)
(-0.537737 -0.00623474 0)
(-0.533654 -0.00635026 0)
(-0.529403 -0.0064543 0)
(-0.524993 -0.00654634 0)
(-0.520434 -0.00662586 0)
(-0.51574 -0.00669245 0)
(-0.51092 -0.00674577 0)
(-0.505988 -0.00678558 0)
(-0.500956 -0.00681168 0)
(-0.495835 -0.00682395 0)
(-0.490637 -0.00682229 0)
(-0.485375 -0.00680664 0)
(-0.480057 -0.006777 0)
(-0.474695 -0.00673343 0)
(-0.469299 -0.00667605 0)
(-0.463878 -0.00660497 0)
(-0.458442 -0.00652021 0)
(-0.453003 -0.0064217 0)
(-0.447572 -0.00630927 0)
(-0.44216 -0.00618267 0)
(-0.436783 -0.00604164 0)
(-0.431454 -0.00588588 0)
(-0.42619 -0.00571517 0)
(-0.421008 -0.00552927 0)
(-0.415925 -0.00532806 0)
(-0.41096 -0.00511153 0)
(-0.406132 -0.00487984 0)
(-0.401459 -0.00463339 0)
(-0.396959 -0.00437293 0)
(-0.392648 -0.00409969 0)
(-0.38854 -0.00381545 0)
(-0.384646 -0.00352261 0)
(-0.380975 -0.00322419 0)
(-0.377529 -0.00292378 0)
(-0.374308 -0.00262526 0)
(-0.371305 -0.00233254 0)
(-0.36851 -0.00204917 0)
(-0.365909 -0.00177802 0)
(-0.363491 -0.00152117 0)
(-0.361248 -0.00128157 0)
(-0.359179 -0.00106236 0)
(-0.357293 -0.000852797 0)
(-0.355615 -0.00062512 0)
(-0.354088 -0.000378431 0)
(-0.352702 -0.000120075 0)
(-0.351464 0.000151736 0)
(-0.350361 0.000442517 0)
(-0.349376 0.000748643 0)
(-0.348495 0.00106712 0)
(-0.347744 0.00137104 0)
(-0.347248 0.00164151 0)
(-0.347202 0.00188048 0)
(-0.347755 0.00211905 0)
(-0.348921 0.00239215 0)
(-0.350598 0.00270705 0)
(-0.352656 0.00304505 0)
(-0.355012 0.00339235 0)
(-0.35764 0.00374606 0)
(-0.360535 0.00410411 0)
(-0.363704 0.00445886 0)
(-0.367163 0.00479557 0)
(-0.370932 0.00509243 0)
(-0.375024 0.0053225 0)
(-0.379422 0.00545791 0)
(-0.384059 0.00547653 0)
(-0.388792 0.00536995 0)
(-0.393395 0.00514861 0)
(-0.397563 0.00483926 0)
(-0.400952 0.00447228 0)
(-0.403245 0.00406423 0)
(-0.404238 0.00361208 0)
(-0.403917 0.00311395 0)
(-0.402566 0.00259735 0)
(-0.400708 0.00213003 0)
(-0.398878 0.00180536 0)
(-0.397453 0.00168135 0)
(-0.396592 0.00174731 0)
(-0.396282 0.00193374 0)
(-0.396421 0.00215131 0)
(-0.39686 0.00232231 0)
(-0.397421 0.0023955 0)
(-0.397937 0.00234669 0)
(-0.398294 0.00217523 0)
(-0.398437 0.00190263 0)
(-0.398363 0.00155819 0)
(-0.398094 0.00116764 0)
(-0.39767 0.000745747 0)
(-0.397155 0.000295484 0)
(-0.396647 -0.000178793 0)
(-0.396289 -0.000647642 0)
(-0.396181 -0.00105115 0)
(-0.396163 -0.0013669 0)
(-0.396199 -0.00159104 0)
(-0.396281 -0.0017238 0)
(-0.396389 -0.00176477 0)
(-0.396508 -0.00172189 0)
(-0.396633 -0.0016124 0)
(-0.396767 -0.00146081 0)
(-0.396918 -0.00129474 0)
(-0.397098 -0.00114012 0)
(-0.397318 -0.00101781 0)
(-0.397582 -0.000940262 0)
(-0.397888 -0.00091051 0)
(-0.398228 -0.000923623 0)
(-0.398591 -0.000968942 0)
(-0.398968 -0.00103428 0)
(-0.399351 -0.00110861 0)
(-0.399735 -0.00118352 0)
(-0.400114 -0.00125335 0)
(-0.400485 -0.0013146 0)
(-0.400843 -0.00136574 0)
(-0.401185 -0.00140716 0)
(-0.401507 -0.00144056 0)
(-0.401808 -0.00146847 0)
(-0.402085 -0.0014933 0)
(-0.402337 -0.0015193 0)
(-0.402561 -0.00154736 0)
(-0.402751 -0.00158146 0)
(-0.402902 -0.0016248 0)
(-0.403003 -0.00167919 0)
(-0.403046 -0.00174649 0)
(-0.403021 -0.00182968 0)
(-0.402919 -0.0019323 0)
(-0.402728 -0.00205838 0)
(-0.402435 -0.0022122 0)
(-0.402023 -0.00239807 0)
(-0.401471 -0.00262001 0)
(-0.400751 -0.00288142 0)
(-0.39983 -0.00318492 0)
(-0.398668 -0.00353211 0)
(-0.397221 -0.00392344 0)
(-0.395444 -0.00435814 0)
(-0.393286 -0.00483419 0)
(-0.390703 -0.00534839 0)
(-0.387652 -0.00589643 0)
(-0.384093 -0.00647302 0)
(-0.379996 -0.00707202 0)
(-0.375336 -0.00768661 0)
(-0.370097 -0.00830944 0)
(-0.36427 -0.00893291 0)
(-0.357855 -0.00954931 0)
(-0.35086 -0.0101511 0)
(-0.343299 -0.010731 0)
(-0.335194 -0.0112824 0)
(-0.326571 -0.0117991 0)
(-0.317464 -0.0122761 0)
(-0.30791 -0.0127092 0)
(-0.297946 -0.0130954 0)
(-0.287615 -0.0134331 0)
(-0.276959 -0.0137214 0)
(-0.26602 -0.0139607 0)
(-0.254838 -0.0141517 0)
(-0.243451 -0.0142957 0)
(-0.231897 -0.0143936 0)
(-0.220209 -0.0144459 0)
(-0.208422 -0.0144526 0)
(-0.196569 -0.0144128 0)
(-0.184684 -0.0143254 0)
(-0.172804 -0.0141889 0)
(-0.160966 -0.0140019 0)
(-0.149213 -0.0137628 0)
(-0.137589 -0.0134702 0)
(-0.12614 -0.0131227 0)
(-0.114913 -0.0127196 0)
(-0.103958 -0.0122614 0)
(-0.0933223 -0.0117505 0)
(-0.0830491 -0.0111911 0)
(-0.0731864 -0.0105885 0)
(-0.0637858 -0.00994879 0)
(-0.0548854 -0.00928096 0)
(-0.0465188 -0.00859493 0)
(-0.0387221 -0.00789325 0)
(-0.0315298 -0.00719503 0)
(-0.0249746 -0.00650929 0)
(-0.0190755 -0.00583961 0)
(-0.013856 -0.00519789 0)
(-0.00934134 -0.00459001 0)
(-0.00554131 -0.0040227 0)
(-0.00246065 -0.00350044 0)
(-0.000105652 -0.00303173 0)
(0.00154662 -0.00260658 0)
(0.00245987 -0.00222972 0)
(0.0026517 -0.00192137 0)
(0.00219501 -0.00169776 0)
(0.0011424 -0.00159052 0)
(-0.000382118 -0.00163258 0)
(-0.00223536 -0.00186898 0)
(-0.00410702 -0.00230993 0)
(-0.00571597 -0.00292367 0)
(-0.0060071 -0.00389513 0)
(-0.00405253 -0.00526341 0)
(2.82189e-05 -0.00499456 0)
(0.00304526 -0.000144874 0)
(-0.00518723 0.00736968 0)
(-0.0125533 0.00533732 0)
(-0.0217079 0.00442393 0)
(-0.0309768 0.00394015 0)
(-0.0406117 0.00414931 0)
(-0.0506062 0.00478513 0)
(-0.0608531 0.00555775 0)
(-0.0711261 0.00630638 0)
(-0.0811954 0.00691284 0)
(-0.0908288 0.00730897 0)
(-0.0998472 0.00747375 0)
(-0.108143 0.00742311 0)
(-0.115677 0.00719725 0)
(-0.12247 0.00685063 0)
(-0.128577 0.00644236 0)
(-0.134071 0.00602253 0)
(-0.139019 0.00561748 0)
(-0.14346 0.0052247 0)
(-0.147406 0.00482071 0)
(-0.150845 0.00437717 0)
(-0.153766 0.00387795 0)
(-0.156178 0.0033309 0)
(-0.15813 0.00276993 0)
(-0.159717 0.00225487 0)
(-0.161068 0.0018656 0)
(-0.16232 0.00167315 0)
(-0.163571 0.00170924 0)
(-0.164822 0.0019301 0)
(-0.165939 0.00220524 0)
(-0.166673 0.00234916 0)
(-0.166726 0.00220012 0)
(-0.165872 0.00169858 0)
(-0.164045 0.000908554 0)
(-0.161349 -1.92707e-06 0)
(-0.158039 -0.000858267 0)
(-0.154395 -0.00156642 0)
(-0.150634 -0.00208134 0)
(-0.146888 -0.00243888 0)
(-0.143201 -0.00270511 0)
(-0.139567 -0.00294013 0)
(-0.135963 -0.00318493 0)
(-0.132373 -0.0034607 0)
(-0.128796 -0.00377524 0)
(-0.125245 -0.00412441 0)
(-0.121745 -0.00450358 0)
(-0.118325 -0.00490323 0)
(-0.115013 -0.00531326 0)
(-0.111826 -0.00571847 0)
(-0.108771 -0.0061013 0)
(-0.105836 -0.00644688 0)
(-0.102988 -0.00675103 0)
(-0.100189 -0.00702455 0)
(-0.097392 -0.00728539 0)
(-0.094554 -0.00755534 0)
(-0.0916372 -0.00784956 0)
(-0.088618 -0.00817023 0)
(-0.0854876 -0.00850427 0)
(-0.0822499 -0.00882717 0)
(-0.0789126 -0.00911375 0)
(-0.075477 -0.00934881 0)
(-0.071928 -0.00953449 0)
(-0.0682286 -0.00968701 0)
(-0.0643268 -0.0098385 0)
(-0.0601742 -0.0100202 0)
(-0.0557431 -0.0102515 0)
(-0.05104 -0.0105341 0)
(-0.0461064 -0.0108557 0)
(-0.041008 -0.0111962 0)
(-0.0358167 -0.0115378 0)
(-0.0305951 -0.0118696 0)
(-0.0253883 -0.0121879 0)
(-0.0202265 -0.0124876 0)
(-0.0151395 -0.0127518 0)
(-0.0101602 -0.0129693 0)
(-0.00532762 -0.0131073 0)
(-0.000688993 -0.013138 0)
(0.0037148 -0.0130373 0)
(0.00786127 -0.0127877 0)
(0.0117456 -0.01238 0)
(0.0153939 -0.0118094 0)
(0.0188605 -0.011086 0)
(0.0222098 -0.0102377 0)
(0.0255143 -0.00931434 0)
(0.0288417 -0.00839158 0)
(0.0322351 -0.00755218 0)
(0.0357042 -0.00687725 0)
(0.0392323 -0.0064185 0)
(0.0427783 -0.00617837 0)
(0.0462783 -0.00610962 0)
(0.0496598 -0.00613085 0)
(0.0528583 -0.00615465 0)
(0.0558301 -0.00611695 0)
(0.0585676 -0.00600061 0)
(0.0611203 -0.00584258 0)
(0.0635682 -0.00572083 0)
(0.0660338 -0.00574168 0)
(0.0686602 -0.00599999 0)
(0.0715463 -0.00654949 0)
(0.0747446 -0.00736153 0)
(0.0782414 -0.00831824 0)
(0.0819544 -0.00923543 0)
(0.0857308 -0.0098679 0)
(0.0893429 -0.00995831 0)
(0.0924717 -0.00928825 0)
(0.094678 -0.00773703 0)
(0.0953844 -0.00534207 0)
(0.0939414 -0.00234191 0)
(0.0897627 0.000866597 0)
(0.0827182 0.00398112 0)
(0.0729148 0.00686339 0)
(0.0611655 0.00951262 0)
(0.0488704 0.0120852 0)
(0.0376183 0.0146639 0)
(0.0286807 0.0169001 0)
(0.0226944 0.0182159 0)
(0.0195942 0.0181564 0)
(0.0187603 0.0166538 0)
(0.0192325 0.0141519 0)
(0.0199458 0.0114196 0)
(0.0200985 0.00912642 0)
(0.0194079 0.00753026 0)
(0.017968 0.00652399 0)
(0.0159652 0.00588817 0)
(0.0135726 0.00552016 0)
(0.0109407 0.0054376 0)
(0.00818403 0.0056978 0)
(0.00541584 0.00628164 0)
(0.00273269 0.00706812 0)
(0.000200133 0.00789991 0)
(-0.00216433 0.00864263 0)
(-0.00439107 0.00921276 0)
(-0.00655016 0.00958693 0)
(-0.00873516 0.00979265 0)
(-0.0110403 0.00988703 0)
(-0.0135428 0.00992946 0)
(-0.016291 0.00996774 0)
(-0.0192986 0.0100378 0)
(-0.0225511 0.0101598 0)
(-0.0260149 0.0103469 0)
(-0.0296402 0.0105898 0)
(-0.0333679 0.0108767 0)