/*--------------------------------*- C++ -*----------------------------------*\
| =========                 |                                                 |
| \\      /  F ield         | OpenFOAM: The Open Source CFD Toolbox           |
|  \\    /   O peration     | Version:  v2006                                 |
|   \\  /    A nd           | Website:  www.openfoam.com                      |
|    \\/     M anipulation  |                                                 |
\*---------------------------------------------------------------------------*/
FoamFile
{
    version     2.0;
    format      ascii;
    class       volVectorField;
    location    "19.4";
    object      U;
}
// * * * * * * * * * * * * * * * * * * * * * * * * * * * * * * * * * * * * * //

dimensions      [0 1 -1 0 0 0 0];


internalField   nonuniform List<vector> 
150000
(
(0.00102836 -0.00328878 0)
(0.0115235 -0.00623116 0)
(0.0259408 -0.0072058 0)
(0.0403146 -0.00715271 0)
(0.0536709 -0.00672299 0)
(0.0657938 -0.0062697 0)
(0.0767824 -0.0059014 0)
(0.0867634 -0.00562483 0)
(0.0958293 -0.00542337 0)
(0.104079 -0.00528001 0)
(0.111637 -0.00517995 0)
(0.118642 -0.00510848 0)
(0.125233 -0.00504887 0)
(0.131549 -0.00498378 0)
(0.137716 -0.00490057 0)
(0.143846 -0.00479516 0)
(0.150027 -0.00467229 0)
(0.156327 -0.00454293 0)
(0.162785 -0.00442008 0)
(0.169424 -0.00431497 0)
(0.17625 -0.00423477 0)
(0.183259 -0.0041819 0)
(0.190439 -0.00415463 0)
(0.197776 -0.00414824 0)
(0.205254 -0.00415631 0)
(0.212859 -0.00417195 0)
(0.220579 -0.00418878 0)
(0.228408 -0.00420152 0)
(0.23634 -0.00420651 0)
(0.244371 -0.00420188 0)
(0.252501 -0.00418766 0)
(0.260726 -0.00416571 0)
(0.269043 -0.00413953 0)
(0.277447 -0.00411393 0)
(0.285927 -0.00409447 0)
(0.294471 -0.00408673 0)
(0.30306 -0.00409545 0)
(0.311675 -0.0041238 0)
(0.320293 -0.00417258 0)
(0.32889 -0.0042395 0)
(0.337444 -0.00431832 0)
(0.34594 -0.00439875 0)
(0.354372 -0.00446773 0)
(0.362747 -0.00451236 0)
(0.37108 -0.0045232 0)
(0.379394 -0.0044964 0)
(0.387711 -0.00443368 0)
(0.396046 -0.00434054 0)
(0.4044 -0.00422388 0)
(0.412756 -0.00409011 0)
(0.421085 -0.00394462 0)
(0.429347 -0.00379222 0)
(0.437499 -0.00363802 0)
(0.445504 -0.00348788 0)
(0.453333 -0.0033481 0)
(0.460974 -0.00322403 0)
(0.468425 -0.00311913 0)
(0.475701 -0.00303454 0)
(0.482823 -0.00296881 0)
(0.489819 -0.00291839 0)
(0.496722 -0.00287844 0)
(0.50356 -0.00284416 0)
(0.510359 -0.00281172 0)
(0.517145 -0.00277892 0)
(0.523936 -0.00274528 0)
(0.53075 -0.00271201 0)
(0.537606 -0.0026816 0)
(0.544521 -0.00265745 0)
(0.551512 -0.00264322 0)
(0.558599 -0.0026422 0)
(0.5658 -0.00265675 0)
(0.573133 -0.0026878 0)
(0.58061 -0.00273474 0)
(0.58824 -0.00279542 0)
(0.596026 -0.00286645 0)
(0.603961 -0.0029435 0)
(0.612033 -0.00302175 0)
(0.620221 -0.00309624 0)
(0.628497 -0.00316232 0)
(0.63683 -0.00321597 0)
(0.645182 -0.00325412 0)
(0.653517 -0.00327477 0)
(0.661797 -0.0032771 0)
(0.669986 -0.00326146 0)
(0.678054 -0.00322927 0)
(0.685971 -0.00318293 0)
(0.693716 -0.00312555 0)
(0.701272 -0.00306076 0)
(0.708631 -0.00299228 0)
(0.715789 -0.00292354 0)
(0.722749 -0.00285731 0)
(0.729519 -0.00279533 0)
(0.736112 -0.0027382 0)
(0.742542 -0.00268541 0)
(0.748825 -0.00263555 0)
(0.754977 -0.00258674 0)
(0.761011 -0.00253704 0)
(0.766937 -0.00248485 0)
(0.772762 -0.00242907 0)
(0.778492 -0.00236912 0)
(0.784127 -0.00230475 0)
(0.789666 -0.00223575 0)
(0.795106 -0.00216169 0)
(0.800442 -0.00208176 0)
(0.80567 -0.00199473 0)
(0.810781 -0.00189894 0)
(0.815767 -0.00179233 0)
(0.82062 -0.00167243 0)
(0.825329 -0.00153663 0)
(0.829879 -0.00138288 0)
(0.834257 -0.0012112 0)
(0.838446 -0.00102532 0)
(0.842436 -0.000833424 0)
(0.846227 -0.000646249 0)
(0.849829 -0.000471986 0)
(0.853258 -0.000308711 0)
(0.85653 -0.000136855 0)
(0.859639 8.497e-05 0)
(0.862537 0.000416593 0)
(0.86512 0.000919814 0)
(0.867229 0.00162483 0)
(0.868688 0.00248609 0)
(0.869379 0.00335011 0)
(0.869302 0.0039843 0)
(0.868689 0.00431062 0)
(0.867689 0.00438147 0)
(0.866415 0.00421644 0)
(0.864978 0.00382116 0)
(0.863491 0.00323149 0)
(0.862056 0.00251999 0)
(0.86075 0.00176679 0)
(0.859606 0.00104298 0)
(0.858635 0.000397551 0)
(0.857838 -0.000140488 0)
(0.857212 -0.000553981 0)
(0.856743 -0.000835847 0)
(0.856411 -0.000981182 0)
(0.856173 -0.000988267 0)
(0.855973 -0.000840013 0)
(0.855735 -0.000497895 0)
(0.855361 5.09992e-05 0)
(0.854742 0.000769416 0)
(0.853791 0.00153694 0)
(0.852504 0.00218633 0)
(0.851014 0.00247854 0)
(0.849567 0.00200899 0)
(0.848718 0.000531243 0)
(0.848795 -0.00169232 0)
(0.850052 -0.00410284 0)
(0.852648 -0.00626194 0)
(0.856488 -0.00749663 0)
(0.861654 -0.00537598 0)
(0.864708 0.00306353 0)
(0.858631 0.0167731 0)
(0.839612 0.0304527 0)
(0.809492 0.0367646 0)
(0.77683 0.0302644 0)
(0.752655 0.0129454 0)
(0.742634 -0.00604166 0)
(0.744842 -0.018658 0)
(0.755821 -0.0239681 0)
(0.769503 -0.023811 0)
(0.779996 -0.0199917 0)
(0.784416 -0.0146471 0)
(0.7837 -0.0100575 0)
(0.781544 -0.00698753 0)
(0.779805 -0.00474325 0)
(0.778562 -0.00267524 0)
(0.777276 -0.000594712 0)
(0.775351 0.00147693 0)
(0.772292 0.00347382 0)
(0.767768 0.00524742 0)
(0.761686 0.00655192 0)
(0.754264 0.00715227 0)
(0.746023 0.00698282 0)
(0.737605 0.00611409 0)
(0.729525 0.00474075 0)
(0.722057 0.0032374 0)
(0.715236 0.00196584 0)
(0.70892 0.00112671 0)
(0.70289 0.000748823 0)
(0.696956 0.000747681 0)
(0.690996 0.000998074 0)
(0.684937 0.00138635 0)
(0.678731 0.00183046 0)
(0.672334 0.00227771 0)
(0.665707 0.00269533 0)
(0.658821 0.00306085 0)
(0.651665 0.00335541 0)
(0.644249 0.00356333 0)
(0.6366 0.0036742 0)
(0.628758 0.00368675 0)
(0.620771 0.00361108 0)
(0.612686 0.00346648 0)
(0.604547 0.00327715 0)
(0.596385 0.00306772 0)
(0.588226 0.00285969 0)
(0.580086 0.00266935 0)
(0.571976 0.00250725 0)
(0.563907 0.00237877 0)
(0.555886 0.00228534 0)
(0.547923 0.0022255 0)
(0.540029 0.00219573 0)
(0.532214 0.00219129 0)
(0.524492 0.0022069 0)
(0.516874 0.00223731 0)
(0.509374 0.00227772 0)
(0.502002 0.00232397 0)
(0.494768 0.00237242 0)
(0.487679 0.00241994 0)
(0.480738 0.00246384 0)
(0.473946 0.00250196 0)
(0.467299 0.00253274 0)
(0.460791 0.00255504 0)
(0.45441 0.00256795 0)
(0.448142 0.00257081 0)
(0.441971 0.00256317 0)
(0.435878 0.00254538 0)
(0.429843 0.00251905 0)
(0.423848 0.00248681 0)
(0.417878 0.00245204 0)
(0.411923 0.00241884 0)
(0.405978 0.00239137 0)
(0.400048 0.00237292 0)
(0.394146 0.00236507 0)
(0.388291 0.00236712 0)
(0.38251 0.00237514 0)
(0.376831 0.00238293 0)
(0.371282 0.00238353 0)
(0.365887 0.00236992 0)
(0.360663 0.00233653 0)
(0.355616 0.00228076 0)
(0.350746 0.00220358 0)
(0.346037 0.00210987 0)
(0.341466 0.00200762 0)
(0.337003 0.00190706 0)
(0.332614 0.0018176 0)
(0.328267 0.00174668 0)
(0.323939 0.00169903 0)
(0.319615 0.00167509 0)
(0.315296 0.00167065 0)
(0.310989 0.0016777 0)
(0.306703 0.0016877 0)
(0.302435 0.00169375 0)
(0.298165 0.0016962 0)
(0.293842 0.00170335 0)
(0.289396 0.00172928 0)
(0.284753 0.00178715 0)
(0.279871 0.00188367 0)
(0.274766 0.0020121 0)
(0.269525 0.0021468 0)
(0.264271 0.00224773 0)
(0.259102 0.00227074 0)
(0.254018 0.00218306 0)
(0.248911 0.00196979 0)
(0.243591 0.00165454 0)
(0.237873 0.00130716 0)
(0.231681 0.00103035 0)
(0.225118 0.000925481 0)
(0.218454 0.00104314 0)
(0.212062 0.00134916 0)
(0.206345 0.00173317 0)
(0.201661 0.00205813 0)
(0.198254 0.00222795 0)
(0.196219 0.00225617 0)
(0.195541 0.00229924 0)
(0.195957 0.00257272 0)
(0.196863 0.00362561 0)
(0.19773 0.00721094 0)
(0.193205 0.0141493 0)
(0.180076 0.0215439 0)
(0.159627 0.0255568 0)
(0.136478 0.0252357 0)
(0.114706 0.0219648 0)
(0.0958894 0.0179783 0)
(0.0798345 0.0146857 0)
(0.0658523 0.0122745 0)
(0.0533925 0.0104274 0)
(0.0421848 0.00885783 0)
(0.0321463 0.00740153 0)
(0.0232708 0.00598486 0)
(0.0155564 0.00460495 0)
(0.00896425 0.00330157 0)
(0.003405 0.00213056 0)
(-0.00124945 0.00113547 0)
(-0.0051477 0.000330461 0)
(-0.00845021 -0.000298946 0)
(-0.011297 -0.00077488 0)
(-0.0138037 -0.00112643 0)
(-0.0160669 -0.00137829 0)
(-0.0181567 -0.00155277 0)
(-0.0201262 -0.00167043 0)
(-0.0220217 -0.00175227 0)
(-0.0238827 -0.00181788 0)
(-0.025737 -0.00189167 0)
(-0.02761 -0.00200849 0)
(-0.0295208 -0.00221201 0)
(-0.0314727 -0.00255417 0)
(-0.0334493 -0.00308555 0)
(-0.0354081 -0.00383244 0)
(-0.0372833 -0.00474754 0)
(-0.039007 -0.00568554 0)
(-0.0405354 -0.00644986 0)
(-0.0418536 -0.00685318 0)
(-0.0429767 -0.00678688 0)
(-0.0439449 -0.0062527 0)
(-0.0447825 -0.00533931 0)
(-0.0454504 -0.00422277 0)
(-0.045856 -0.0030933 0)
(-0.0458622 -0.00208033 0)
(-0.045371 -0.00125716 0)
(-0.0443608 -0.000651636 0)
(-0.0428904 -0.00025153 0)
(-0.0410623 -3.33812e-06 0)
(-0.0389945 0.000138832 0)
(-0.0367909 0.000205903 0)
(-0.0345207 0.00021439 0)
(-0.0322183 0.000174818 0)
(-0.0298887 9.71046e-05 0)
(-0.0275183 -7.50585e-06 0)
(-0.0250864 -0.000127093 0)
(-0.0225729 -0.000250735 0)
(-0.0199631 -0.000370037 0)
(-0.0172495 -0.000479947 0)
(-0.0144309 -0.000578497 0)
(-0.0115109 -0.000666027 0)
(-0.00849549 -0.000744333 0)
(-0.00539187 -0.000815779 0)
(-0.00220753 -0.000882612 0)
(0.00105017 -0.000946708 0)
(0.00437417 -0.00100923 0)
(0.00775797 -0.00107084 0)
(0.0111953 -0.00113186 0)
(0.0146802 -0.00119239 0)
(0.0182067 -0.0012524 0)
(0.0217687 -0.00131184 0)
(0.0253603 -0.00137059 0)
(0.0289754 -0.00142851 0)
(0.0326077 -0.0014854 0)
(0.0362501 -0.00154069 0)
(0.0398947 -0.00159298 0)
(0.043531 -0.00164034 0)
(0.0471457 -0.00168128 0)
(0.0507224 -0.00171018 0)
(0.0542336 -0.00170189 0)
(0.0576177 -0.00159485 0)
(0.0607484 -0.00129962 0)
(0.0634271 -0.000748204 0)
(0.0654269 4.16902e-05 0)
(0.0665775 0.000948133 0)
(0.0668504 0.00182847 0)
(0.0663161 0.00265533 0)
(0.06497 0.00348241 0)
(0.0628132 0.00427928 0)
(0.0599141 0.00494157 0)
(0.0564473 0.00536231 0)
(0.0526745 0.00548797 0)
(0.0488782 0.00534492 0)
(0.0452786 0.00503153 0)
(0.0419718 0.00468407 0)
(0.0389181 0.00443268 0)
(0.0359833 0.00435174 0)
(0.033008 0.00443024 0)
(0.0298739 0.00459384 0)
(0.0265415 0.00475133 0)
(0.0230465 0.0048371 0)
(0.019465 0.0048313 0)
(0.0158721 0.00475273 0)
(0.0123151 0.00463499 0)
(0.00881032 0.00450392 0)
(0.00535503 0.00436916 0)
(0.00194321 0.00422795 0)
(-0.00142437 0.00407397 0)
(-0.00473852 0.00390413 0)
(-0.00798526 0.00371951 0)
(-0.0111498 0.00352421 0)
(-0.0142188 0.00332236 0)
(-0.0171825 0.00311689 0)
(-0.020034 0.00291029 0)
(-0.0227696 0.00270462 0)
(-0.0253896 0.00250304 0)
(-0.0278983 0.00230954 0)
(-0.0303047 0.0021286 0)
(-0.032623 0.00196533 0)
(-0.0348748 0.00182407 0)
(-0.0370844 0.00171102 0)
(-0.0392792 0.00163011 0)
(-0.0414883 0.00157689 0)
(-0.0437395 0.00154521 0)
(-0.0460607 0.00152994 0)
(-0.0484739 0.00152691 0)
(-0.050989 0.0015316 0)
(-0.0536211 0.00153591 0)
(-0.0563735 0.00154542 0)
(-0.0592397 0.0015567 0)
(-0.062225 0.00157142 0)
(-0.06533 0.00159251 0)
(-0.0685549 0.00161859 0)
(-0.07189 0.00164177 0)
(-0.0753072 0.00164524 0)
(-0.0787502 0.00160292 0)
(-0.0821344 0.00148711 0)
(-0.0853744 0.00131579 0)
(-0.0883407 0.0011317 0)
(-0.0908935 0.000938679 0)
(-0.0928897 0.000718769 0)
(-0.0941992 0.00037507 0)
(-0.0946628 -0.000370934 0)
(-0.0935849 -0.0014914 0)
(-0.091531 -0.00248136 0)
(-0.0887045 -0.00322522 0)
(-0.0853647 -0.00377889 0)
(-0.0818107 -0.0041785 0)
(-0.078259 -0.004492 0)
(-0.074895 -0.00479749 0)
(-0.07181 -0.00514369 0)
(-0.0689756 -0.00553498 0)
(-0.0663039 -0.00595809 0)
(-0.0636253 -0.00638037 0)
(-0.0607351 -0.00672551 0)
(-0.057464 -0.00691002 0)
(-0.0537276 -0.00686896 0)
(-0.0495306 -0.00657419 0)
(-0.044937 -0.006046 0)
(-0.0400827 -0.0053547 0)
(-0.0351544 -0.00457721 0)
(-0.0303639 -0.0038045 0)
(-0.0259286 -0.00309246 0)
(-0.0220349 -0.00250674 0)
(-0.0188055 -0.0020925 0)
(-0.0162524 -0.00185085 0)
(-0.0142744 -0.00173901 0)
(-0.0126728 -0.00167046 0)
(-0.0111972 -0.00153962 0)
(-0.00964031 -0.00127782 0)
(-0.00788191 -0.000883574 0)
(-0.00590914 -0.00040639 0)
(-0.00381743 8.14576e-05 0)
(-0.00178921 0.000502489 0)
(5.53781e-06 0.000789425 0)
(0.00145954 0.000886092 0)
(0.00253085 0.000778084 0)
(0.00320286 0.000540282 0)
(0.00348555 0.000298275 0)
(0.00337619 0.000148656 0)
(0.00288104 0.000147937 0)
(0.00204615 0.000307202 0)
(0.000921227 0.000553939 0)
(-0.000444009 0.000828302 0)
(-0.00201639 0.00108584 0)
(-0.00377195 0.00129606 0)
(-0.00568921 0.00144208 0)
(-0.00774374 0.00151578 0)
(-0.00991252 0.00151661 0)
(-0.0121576 0.00145511 0)
(-0.0144441 0.00133493 0)
(-0.0167417 0.00116821 0)
(-0.0190042 0.00095355 0)
(-0.0211777 0.000677192 0)
(-0.0231892 0.000313539 0)
(-0.0249488 -0.000161702 0)
(-0.0263568 -0.000754989 0)
(-0.027321 -0.00145663 0)
(-0.0277852 -0.002237 0)
(-0.0277227 -0.00303601 0)
(-0.0271604 -0.00376395 0)
(-0.0261662 -0.00428819 0)
(-0.024843 -0.00453674 0)
(-0.0233433 -0.00442945 0)
(-0.0217702 -0.00397446 0)
(-0.0203441 -0.0032672 0)
(-0.0193673 -0.00238466 0)
(-0.0191005 -0.00137539 0)
(-0.0199178 -0.000250048 0)
(-0.0222392 0.00101785 0)
(-0.0264992 0.00244457 0)
(-0.0330288 0.00388429 0)
(-0.0418036 0.00494485 0)
(-0.0522884 0.00529863 0)
(-0.063601 0.00501242 0)
(-0.0748982 0.00445869 0)
(-0.0856911 0.00384586 0)
(-0.0957796 0.00316932 0)
(-0.105012 0.0023729 0)
(-0.113235 0.00148183 0)
(-0.120258 0.000566629 0)
(-0.125878 -0.000338561 0)
(-0.129912 -0.00124334 0)
(-0.132191 -0.00220151 0)
(-0.132583 -0.00337442 0)
(-0.130744 -0.00485284 0)
(-0.126449 -0.00648346 0)
(-0.119371 -0.00814342 0)
(-0.109309 -0.00960239 0)
(-0.0963475 -0.010659 0)
(-0.0807716 -0.0112315 0)
(-0.0630655 -0.0113425 0)
(-0.0440883 -0.01112 0)
(-0.0253229 -0.0107899 0)
(-0.00781243 -0.00940835 0)
(-0.00029464 -0.00702226 0)
(0.00926271 -0.0151156 0)
(0.0221385 -0.0171451 0)
(0.0345035 -0.0163439 0)
(0.0450928 -0.0147819 0)
(0.0536972 -0.0132315 0)
(0.060589 -0.0117973 0)
(0.0659855 -0.0104481 0)
(0.0700151 -0.00919348 0)
(0.0728551 -0.00807279 0)
(0.0747791 -0.00712423 0)
(0.0761224 -0.00637752 0)
(0.0772433 -0.00585271 0)
(0.0784838 -0.00555874 0)
(0.08013 -0.00548798 0)
(0.0823837 -0.00561121 0)
(0.0853499 -0.00588203 0)
(0.0890435 -0.00624671 0)
(0.0934122 -0.00665434 0)
(0.0983648 -0.00706385 0)
(0.103795 -0.00744695 0)
(0.109603 -0.00778769 0)
(0.115702 -0.00808053 0)
(0.122029 -0.00832792 0)
(0.128541 -0.00853769 0)
(0.135215 -0.00872059 0)
(0.142043 -0.00888802 0)
(0.149024 -0.00905001 0)
(0.156161 -0.00921383 0)
(0.163454 -0.00938316 0)
(0.170894 -0.00955779 0)
(0.178465 -0.00973387 0)
(0.186137 -0.00990428 0)
(0.193875 -0.0100592 0)
(0.201632 -0.0101871 0)
(0.20936 -0.0102759 0)
(0.217014 -0.0103152 0)
(0.224557 -0.0102978 0)
(0.231972 -0.0102222 0)
(0.239263 -0.010095 0)
(0.246464 -0.0099316 0)
(0.253635 -0.00975646 0)
(0.260857 -0.00959915 0)
(0.268214 -0.00948814 0)
(0.275781 -0.00944317 0)
(0.283605 -0.00946939 0)
(0.291695 -0.00955545 0)
(0.300024 -0.00967646 0)
(0.308529 -0.00980059 0)
(0.317126 -0.00989695 0)
(0.325724 -0.00994217 0)
(0.334239 -0.00992407 0)
(0.342602 -0.00984216 0)
(0.350768 -0.00970552 0)
(0.358714 -0.00952958 0)
(0.366439 -0.00933249 0)
(0.37396 -0.00913245 0)
(0.381306 -0.00894582 0)
(0.388515 -0.0087855 0)
(0.395625 -0.00866016 0)
(0.402676 -0.00857421 0)
(0.409704 -0.00852844 0)
(0.416739 -0.00852102 0)
(0.423808 -0.00854858 0)
(0.430931 -0.00860737 0)
(0.438127 -0.00869396 0)
(0.445409 -0.00880553 0)
(0.45279 -0.00893978 0)
(0.46028 -0.00909444 0)
(0.467886 -0.00926678 0)
(0.475612 -0.00945311 0)
(0.48346 -0.00964843 0)
(0.491427 -0.00984642 0)
(0.499506 -0.0100396 0)
(0.507686 -0.0102199 0)
(0.515951 -0.0103787 0)
(0.524282 -0.0105083 0)
(0.532656 -0.0106018 0)
(0.541046 -0.010654 0)
(0.549424 -0.0106618 0)
(0.557763 -0.010624 0)
(0.566031 -0.0105415 0)
(0.574202 -0.0104169 0)
(0.582249 -0.0102542 0)
(0.590147 -0.0100584 0)
(0.597878 -0.0098357 0)
(0.605427 -0.0095925 0)
(0.612782 -0.00933582 0)
(0.619941 -0.00907284 0)
(0.626905 -0.00881064 0)
(0.633681 -0.00855595 0)
(0.640282 -0.0083147 0)
(0.646723 -0.00809171 0)
(0.653022 -0.00789026 0)
(0.659195 -0.00771181 0)
(0.665258 -0.00755596 0)
(0.671223 -0.00742058 0)
(0.677096 -0.00730222 0)
(0.682881 -0.00719666 0)
(0.688575 -0.00709952 0)
(0.694174 -0.00700676 0)
(0.699674 -0.00691506 0)
(0.705069 -0.00682205 0)
(0.710356 -0.0067263 0)
(0.715536 -0.00662723 0)
(0.72061 -0.00652477 0)
(0.725584 -0.00641891 0)
(0.730467 -0.00630929 0)
(0.735267 -0.00619488 0)
(0.739994 -0.00607419 0)
(0.744659 -0.00594612 0)
(0.749266 -0.00581128 0)
(0.753819 -0.00567316 0)
(0.758314 -0.00553838 0)
(0.762748 -0.00541513 0)
(0.767128 -0.00530998 0)
(0.77148 -0.00522332 0)
(0.775867 -0.00514486 0)
(0.780396 -0.00505104 0)
(0.785225 -0.00490766 0)
(0.790534 -0.00468071 0)
(0.796478 -0.00435449 0)
(0.803109 -0.00395297 0)
(0.81031 -0.00354531 0)
(0.817682 -0.00313309 0)
(0.824887 -0.00266235 0)
(0.831611 -0.00211661 0)
(0.837551 -0.00151145 0)
(0.842444 -0.000877356 0)
(0.846114 -0.000250804 0)
(0.848512 0.000329448 0)
(0.849713 0.00081327 0)
(0.849891 0.00117627 0)
(0.84928 0.00142045 0)
(0.848125 0.00155305 0)
(0.846655 0.0015789 0)
(0.84508 0.00151238 0)
(0.843603 0.00137134 0)
(0.842415 0.00117075 0)
(0.84169 0.00092158 0)
(0.841578 0.000637476 0)
(0.842199 0.000353479 0)
(0.843593 0.000124088 0)
(0.845564 -1.00346e-05 0)
(0.847471 1.44728e-05 0)
(0.848192 0.000171004 0)
(0.846062 0.000401424 0)
(0.839834 0.000708086 0)
(0.82909 0.00101821 0)
(0.814716 0.000949723 0)
(0.799259 -4.77949e-05 0)
(0.786796 -0.001549 0)
(0.786334 -0.00169851 0)
(0.806725 0.00107641 0)
(0.845426 0.00710429 0)
(0.890868 0.0146693 0)
(0.927718 0.0196912 0)
(0.943901 0.0190599 0)
(0.935971 0.0138067 0)
(0.91004 0.00778873 0)
(0.873886 0.00416523 0)
(0.835303 0.00450716 0)
(0.800355 0.00797049 0)
(0.77224 0.0114547 0)
(0.751124 0.0122421 0)
(0.734826 0.0102664 0)
(0.722419 0.00723547 0)
(0.713668 0.00461738 0)
(0.708265 0.00294891 0)
(0.705815 0.00219431 0)
(0.705884 0.00220111 0)
(0.707854 0.00284613 0)
(0.710765 0.00397376 0)
(0.713341 0.00533771 0)
(0.714186 0.00667621 0)
(0.712278 0.00780996 0)
(0.707372 0.00862491 0)
(0.699864 0.0091336 0)
(0.690513 0.00941857 0)
(0.680197 0.00954409 0)
(0.669695 0.00953688 0)
(0.659545 0.00941217 0)
(0.650041 0.00920087 0)
(0.641288 0.00895492 0)
(0.633267 0.00873305 0)
(0.625887 0.00858301 0)
(0.619008 0.00853277 0)
(0.61246 0.00859012 0)
(0.606059 0.00874625 0)
(0.599627 0.0089816 0)
(0.593005 0.0092708 0)
(0.586065 0.00958765 0)
(0.578726 0.00990912 0)
(0.570948 0.0102171 0)
(0.562737 0.0104982 0)
(0.554129 0.0107435 0)
(0.545188 0.0109464 0)
(0.535993 0.0111027 0)
(0.52663 0.0112098 0)
(0.517184 0.0112658 0)
(0.507735 0.0112704 0)
(0.49836 0.0112244 0)
(0.48912 0.0111301 0)
(0.480068 0.0109904 0)
(0.471243 0.0108097 0)
(0.462668 0.0105928 0)
(0.454357 0.0103458 0)
(0.44631 0.0100753 0)
(0.438515 0.00978836 0)
(0.430951 0.0094928 0)
(0.42359 0.00919682 0)
(0.416399 0.00890831 0)
(0.409342 0.00863497 0)
(0.402383 0.00838434 0)
(0.395489 0.00816329 0)
(0.388632 0.00797767 0)
(0.381792 0.00783173 0)
(0.374958 0.00772724 0)
(0.368129 0.00766276 0)
(0.361316 0.00763297 0)
(0.354544 0.00762811 0)
(0.347845 0.00763458 0)
(0.341261 0.00763613 0)
(0.334834 0.00761581 0)
(0.328607 0.00755857 0)
(0.322609 0.00745441 0)
(0.31686 0.00730001 0)
(0.311362 0.00709867 0)
(0.306099 0.0068604 0)
(0.301043 0.00660079 0)
(0.296156 0.00633882 0)
(0.291395 0.00609319 0)
(0.286718 0.0058805 0)
(0.28209 0.00571319 0)
(0.277482 0.00559801 0)
(0.272884 0.00553345 0)
(0.268293 0.00551238 0)
(0.263726 0.00552019 0)
(0.259211 0.00553628 0)
(0.254781 0.00554265 0)
(0.250469 0.00552753 0)
(0.246301 0.00548774 0)
(0.242275 0.00543755 0)
(0.238356 0.00540874 0)
(0.234457 0.0054401 0)
(0.23043 0.00556464 0)
(0.226077 0.00579179 0)
(0.221167 0.00608947 0)
(0.215476 0.00638022 0)
(0.208838 0.00656728 0)
(0.201183 0.00658711 0)
(0.192547 0.00646333 0)
(0.183038 0.00633013 0)
(0.172789 0.00639489 0)
(0.161949 0.00683679 0)
(0.150754 0.00768769 0)
(0.139573 0.00877625 0)
(0.128898 0.00976336 0)
(0.119279 0.010266 0)
(0.1112 0.0100094 0)
(0.104953 0.00891707 0)
(0.100574 0.00710655 0)
(0.0978691 0.00482113 0)
(0.0965149 0.00234684 0)
(0.0961486 -6.61246e-05 0)
(0.0964637 -0.00222462 0)
(0.0974155 -0.00401197 0)
(0.0990631 -0.0051089 0)
(0.101816 -0.0044473 0)
(0.110999 -0.000779751 0)
(0.124704 0.00491837 0)
(0.138218 0.00992848 0)
(0.148597 0.0124431 0)
(0.155028 0.0126333 0)
(0.158191 0.0117574 0)
(0.159181 0.0108279 0)
(0.158868 0.0101364 0)
(0.157771 0.00959415 0)
(0.156155 0.00907759 0)
(0.154173 0.00853066 0)
(0.15192 0.00794858 0)
(0.149426 0.00735461 0)
(0.146681 0.00678815 0)
(0.143664 0.00628861 0)
(0.140381 0.00587985 0)
(0.136868 0.00556653 0)
(0.133193 0.00533541 0)
(0.129445 0.00517012 0)
(0.125714 0.00504833 0)
(0.122077 0.00495775 0)
(0.118602 0.00489228 0)
(0.115341 0.00485011 0)
(0.112328 0.00483326 0)
(0.109578 0.00485317 0)
(0.107077 0.00492719 0)
(0.10478 0.00507614 0)
(0.102589 0.00532844 0)
(0.100341 0.00571175 0)
(0.0977955 0.00624043 0)
(0.0946234 0.00689857 0)
(0.0904565 0.00762146 0)
(0.0850058 0.00828632 0)
(0.0781746 0.00873941 0)
(0.0701392 0.00885052 0)
(0.0613736 0.00854559 0)
(0.0526022 0.00779926 0)
(0.0446205 0.00664608 0)
(0.0380795 0.00516747 0)
(0.0333702 0.00348478 0)
(0.0305757 0.00175075 0)
(0.0295296 0.000101567 0)
(0.0299563 -0.00131728 0)
(0.0315144 -0.00240858 0)
(0.0338728 -0.0031646 0)
(0.0367482 -0.00363226 0)
(0.0399295 -0.00387987 0)
(0.0432739 -0.00398083 0)
(0.0466908 -0.00399972 0)
(0.050129 -0.00398571 0)
(0.0535644 -0.00397118 0)
(0.0569917 -0.00397358 0)
(0.0604169 -0.00399899 0)
(0.0638519 -0.00404609 0)
(0.0673105 -0.0041098 0)
(0.0708053 -0.00418365 0)
(0.0743461 -0.00426143 0)
(0.0779394 -0.00433807 0)
(0.0815883 -0.00440992 0)
(0.0852931 -0.00447455 0)
(0.0890519 -0.00453064 0)
(0.092861 -0.00457733 0)
(0.0967158 -0.00461428 0)
(0.100611 -0.00464141 0)
(0.10454 -0.00465878 0)
(0.108497 -0.00466655 0)
(0.112474 -0.00466482 0)
(0.116465 -0.00465358 0)
(0.12046 -0.00463269 0)
(0.12445 -0.00460174 0)
(0.128425 -0.00455997 0)
(0.132371 -0.00450592 0)
(0.136277 -0.00443704 0)
(0.140126 -0.00434926 0)
(0.143903 -0.00423585 0)
(0.147589 -0.00408494 0)
(0.151178 -0.00387698 0)
(0.154708 -0.00358682 0)
(0.158299 -0.00319516 0)
(0.16214 -0.00270704 0)
(0.166421 -0.00216514 0)
(0.171204 -0.00163168 0)
(0.176398 -0.0011341 0)
(0.181937 -0.000644172 0)
(0.187791 -0.000158442 0)
(0.193923 0.000280255 0)
(0.200254 0.000611283 0)
(0.206666 0.000791259 0)
(0.213029 0.000819665 0)
(0.219224 0.000744037 0)
(0.225169 0.000639641 0)
(0.230838 0.000576904 0)
(0.236253 0.000595966 0)
(0.241473 0.0006996 0)
(0.246572 0.000856314 0)
(0.251612 0.00101872 0)
(0.25663 0.00114794 0)
(0.261637 0.00122936 0)
(0.266624 0.00127303 0)
(0.271574 0.00130159 0)
(0.276466 0.00133568 0)
(0.281277 0.0013849 0)
(0.285985 0.00144677 0)
(0.290575 0.00151167 0)
(0.295032 0.00156903 0)
(0.299347 0.00161249 0)
(0.303513 0.00164129 0)
(0.307527 0.0016581 0)
(0.311385 0.00166666 0)
(0.315081 0.00167127 0)
(0.318608 0.00167528 0)
(0.321958 0.0016823 0)
(0.325118 0.00169645 0)
(0.328077 0.00172218 0)
(0.330821 0.00176437 0)
(0.333335 0.00182676 0)
(0.335608 0.00191346 0)
(0.33763 0.00202048 0)
(0.339393 0.0021513 0)
(0.340895 0.00230522 0)
(0.34214 0.00247729 0)
(0.343134 0.00266229 0)
(0.343886 0.00285579 0)
(0.344404 0.0030497 0)
(0.344692 0.00324603 0)
(0.344755 0.00344131 0)
(0.344601 0.00362679 0)
(0.344236 0.00380691 0)
(0.343672 0.00397034 0)
(0.342933 0.00409853 0)
(0.342061 0.00416652 0)
(0.341112 0.00414492 0)
(0.340179 0.00400667 0)
(0.339352 0.00371974 0)
(0.338732 0.00325277 0)
(0.338389 0.002594 0)
(0.33837 0.0017575 0)
(0.338618 0.000789839 0)
(0.339173 -0.00020953 0)
(0.339489 -0.00109898 0)
(0.339626 -0.0017664 0)
(0.339602 -0.00215329 0)
(0.339365 -0.00224792 0)
(0.338853 -0.00205612 0)
(0.337968 -0.00159489 0)
(0.336567 -0.000905044 0)
(0.33442 -5.00475e-05 0)
(0.331181 0.000852025 0)
(0.326777 0.00156491 0)
(0.3212 0.00192009 0)
(0.314523 0.00185997 0)
(0.306915 0.00139372 0)
(0.298654 0.000590355 0)
(0.290102 -0.000428985 0)
(0.28166 -0.00151809 0)
(0.273709 -0.00254127 0)
(0.266549 -0.00336336 0)
(0.260388 -0.00387293 0)
(0.255312 -0.00396754 0)
(0.251267 -0.0036136 0)
(0.248116 -0.00289888 0)
(0.245701 -0.0020259 0)
(0.243813 -0.00125242 0)
(0.242261 -0.000806014 0)
(0.240942 -0.000821946 0)
(0.239825 -0.00128249 0)
(0.23895 -0.00202452 0)
(0.238437 -0.00280668 0)
(0.238444 -0.00340656 0)
(0.239128 -0.00368373 0)
(0.240592 -0.00357752 0)
(0.242774 -0.00310016 0)
(0.245437 -0.00233462 0)
(0.248206 -0.0014076 0)
(0.250657 -0.000457227 0)
(0.252456 0.000406928 0)
(0.253466 0.00108288 0)
(0.25369 0.00149253 0)
(0.253275 0.00169131 0)
(0.252436 0.00178407 0)
(0.25137 0.00183947 0)
(0.250225 0.00189979 0)
(0.249085 0.00198688 0)
(0.247974 0.0021034 0)
(0.246874 0.00224203 0)
(0.24574 0.00239668 0)
(0.244514 0.00254692 0)
(0.243138 0.00268002 0)
(0.241565 0.0027774 0)
(0.239763 0.00282393 0)
(0.237707 0.00281316 0)
(0.235365 0.00275175 0)
(0.232672 0.00266042 0)
(0.229501 0.00257174 0)
(0.225667 0.00251588 0)
(0.220944 0.00250385 0)
(0.215089 0.00249848 0)
(0.207984 0.00245746 0)
(0.19968 0.00229544 0)
(0.190423 0.00200882 0)
(0.180646 0.00166956 0)
(0.170829 0.00140435 0)
(0.161339 0.00143048 0)
(0.15228 0.00196216 0)
(0.143502 0.00310846 0)
(0.13469 0.00483419 0)
(0.125526 0.00700427 0)
(0.115823 0.00940913 0)
(0.105571 0.0117028 0)
(0.094875 0.0134493 0)
(0.0839362 0.0143188 0)
(0.0730353 0.0143323 0)
(0.0624879 0.013777 0)
(0.0524846 0.0129788 0)
(0.0430791 0.0120681 0)
(0.0342866 0.0109819 0)
(0.0261741 0.00962993 0)
(0.0188294 0.00799542 0)
(0.0122967 0.00613868 0)
(0.00652578 0.00412522 0)
(0.0014118 0.00192115 0)
(-0.0034242 -0.000560022 0)
(-0.00812969 -0.00333771 0)
(-0.0126673 -0.00644361 0)
(-0.0167403 -0.00993338 0)
(-0.0197495 -0.0136676 0)
(-0.0208043 -0.0172519 0)
(-0.0193167 -0.020075 0)
(-0.0149105 -0.0213183 0)
(-0.00894351 -0.0205227 0)
(-0.00246398 -0.0184219 0)
(-0.000781934 -0.0103197 0)
(0.00847852 -0.0245973 0)
(0.0223067 -0.0280127 0)
(0.036096 -0.0259037 0)
(0.0472495 -0.0222164 0)
(0.0550114 -0.0186881 0)
(0.0599819 -0.0156453 0)
(0.0630231 -0.0129725 0)
(0.0647727 -0.0106496 0)
(0.0657286 -0.00878318 0)
(0.0663958 -0.00748443 0)
(0.0672874 -0.00680126 0)
(0.0688445 -0.00670873 0)
(0.07136 -0.00711974 0)
(0.0749522 -0.00789967 0)
(0.0795894 -0.00889345 0)
(0.0851394 -0.00995773 0)
(0.0914232 -0.0109824 0)
(0.0982571 -0.0118985 0)
(0.105479 -0.0126753 0)
(0.112959 -0.0133113 0)
(0.120605 -0.0138243 0)
(0.128355 -0.014241 0)
(0.136176 -0.0145905 0)
(0.144051 -0.0148984 0)
(0.151978 -0.0151848 0)
(0.159958 -0.0154623 0)
(0.167991 -0.0157354 0)
(0.176074 -0.0160016 0)
(0.184196 -0.0162521 0)
(0.192341 -0.0164744 0)
(0.200483 -0.0166544 0)
(0.208599 -0.0167794 0)
(0.21666 -0.0168406 0)
(0.224647 -0.0168348 0)
(0.232548 -0.0167664 0)
(0.240368 -0.0166485 0)
(0.248127 -0.0165037 0)
(0.255866 -0.0163625 0)
(0.263641 -0.0162606 0)
(0.271513 -0.0162332 0)
(0.279546 -0.0163073 0)
(0.287787 -0.016494 0)
(0.29626 -0.0167829 0)
(0.304958 -0.0171411 0)
(0.313845 -0.0175189 0)
(0.322856 -0.017859 0)
(0.331911 -0.0181085 0)
(0.340929 -0.0182279 0)
(0.349834 -0.0181974 0)
(0.358563 -0.0180181 0)
(0.367072 -0.0177094 0)
(0.375337 -0.0173039 0)
(0.383351 -0.0168413 0)
(0.391119 -0.016362 0)
(0.398662 -0.0159029 0)
(0.406005 -0.0154928 0)
(0.41318 -0.015151 0)
(0.42022 -0.0148866 0)
(0.427155 -0.0147 0)
(0.434017 -0.0145853 0)
(0.44083 -0.0145327 0)
(0.447619 -0.0145316 0)
(0.454407 -0.0145724 0)
(0.461214 -0.0146479 0)
(0.468061 -0.0147533 0)
(0.474967 -0.014886 0)
(0.481953 -0.0150447 0)
(0.489036 -0.0152286 0)
(0.496232 -0.0154357 0)
(0.503553 -0.0156627 0)
(0.511008 -0.0159039 0)
(0.5186 -0.0161516 0)
(0.526328 -0.0163963 0)
(0.534184 -0.0166271 0)
(0.542155 -0.0168327 0)
(0.550221 -0.0170019 0)
(0.558359 -0.0171246 0)
(0.566541 -0.0171924 0)
(0.574736 -0.0171989 0)
(0.582913 -0.0171406 0)
(0.591039 -0.0170166 0)
(0.599083 -0.0168286 0)
(0.607015 -0.0165815 0)
(0.614811 -0.0162822 0)
(0.622452 -0.0159403 0)
(0.629924 -0.015567 0)
(0.637218 -0.0151751 0)
(0.644333 -0.0147776 0)
(0.651271 -0.0143873 0)
(0.658038 -0.0140152 0)
(0.664641 -0.0136698 0)
(0.67109 -0.013356 0)
(0.67739 -0.0130748 0)
(0.683547 -0.0128232 0)
(0.689561 -0.0125951 0)
(0.695429 -0.0123822 0)
(0.701143 -0.0121753 0)
(0.706692 -0.0119663 0)
(0.712062 -0.0117488 0)
(0.717238 -0.0115194 0)
(0.722204 -0.0112769 0)
(0.726946 -0.0110228 0)
(0.73145 -0.0107598 0)
(0.735708 -0.0104911 0)
(0.739712 -0.0102199 0)
(0.74346 -0.00994857 0)
(0.746951 -0.00967805 0)
(0.75019 -0.00940802 0)
(0.753184 -0.00913669 0)
(0.755943 -0.00886133 0)
(0.758482 -0.00857951 0)
(0.760814 -0.00829128 0)
(0.762955 -0.00800179 0)
(0.764913 -0.00772347 0)
(0.766696 -0.00747624 0)
(0.768302 -0.00728526 0)
(0.769732 -0.00717585 0)
(0.770988 -0.00716584 0)
(0.77208 -0.00725599 0)
(0.773036 -0.00742035 0)
(0.773893 -0.00760023 0)
(0.774689 -0.00770382 0)
(0.775462 -0.00761903 0)
(0.776258 -0.0072976 0)
(0.777123 -0.00673691 0)
(0.778092 -0.00593433 0)
(0.779183 -0.00491228 0)
(0.780386 -0.00373391 0)
(0.78167 -0.00249863 0)
(0.782968 -0.00131957 0)
(0.784209 -0.000297171 0)
(0.785342 0.000513791 0)
(0.786343 0.00108588 0)
(0.787192 0.00140285 0)
(0.78787 0.00149764 0)
(0.788353 0.00141392 0)
(0.788582 0.0011933 0)
(0.788463 0.000855935 0)
(0.787905 0.000408407 0)
(0.786833 -0.000119177 0)
(0.785176 -0.000643709 0)
(0.782811 -0.000987984 0)
(0.77963 -0.000868606 0)
(0.775599 0.000149277 0)
(0.77061 0.00259853 0)
(0.764311 0.0066563 0)
(0.756162 0.0116364 0)
(0.745815 0.0161461 0)
(0.733481 0.0184822 0)
(0.720167 0.0162417 0)
(0.708001 0.00647288 0)
(0.699645 -0.0101695 0)
(0.696722 -0.0270151 0)
(0.70205 -0.0351921 0)
(0.719037 -0.03091 0)
(0.745939 -0.016473 0)
(0.772703 0.00213273 0)
(0.787708 0.0189217 0)
(0.785969 0.0301322 0)
(0.769793 0.0353932 0)
(0.74636 0.0358101 0)
(0.723156 0.0327077 0)
(0.704638 0.0276459 0)
(0.691605 0.0222466 0)
(0.682542 0.0173718 0)
(0.675449 0.0132028 0)
(0.668907 0.00971755 0)
(0.662334 0.0068382 0)
(0.655732 0.00455639 0)
(0.649343 0.00302605 0)
(0.643433 0.00253219 0)
(0.638208 0.0033107 0)
(0.633759 0.00531943 0)
(0.629981 0.00814074 0)
(0.626463 0.0112346 0)
(0.622668 0.0140473 0)
(0.618234 0.0161125 0)
(0.613089 0.0172398 0)
(0.607374 0.0175206 0)