/*--------------------------------*- C++ -*----------------------------------*\
| =========                 |                                                 |
| \\      /  F ield         | OpenFOAM: The Open Source CFD Toolbox           |
|  \\    /   O peration     | Version:  v2006                                 |
|   \\  /    A nd           | Website:  www.openfoam.com                      |
|    \\/     M anipulation  |                                                 |
\*---------------------------------------------------------------------------*/
FoamFile
{
    version     2.0;
    format      ascii;
    class       volVectorField;
    location    "0";
    object      U;
}
// * * * * * * * * * * * * * * * * * * * * * * * * * * * * * * * * * * * * * //

dimensions      [0 1 -1 0 0 0 0];


internalField   nonuniform List<vector> 
67500
(
(-0.0287638 0.022698 0)
(-0.0667613 0.00920421 0)
(-0.0443452 -0.0183405 0)
(0.00901403 -0.0327527 0)
(0.0893196 -0.0457533 0)
(0.208716 -0.0389245 0)
(0.2881 -0.00791032 0)
(0.283516 0.00836368 0)
(0.248829 0.00769127 0)
(0.228521 0.00395492 0)
(0.221903 0.00242818 0)
(0.218477 0.00152409 0)
(0.215693 0.000421582 0)
(0.214512 -0.000446367 0)
(0.215061 -0.000917578 0)
(0.217401 -0.00149622 0)
(0.221334 -0.00222839 0)
(0.226736 -0.00296393 0)
(0.233505 -0.00363746 0)
(0.241517 -0.00425225 0)
(0.250677 -0.00482588 0)
(0.260925 -0.00536896 0)
(0.272213 -0.00588213 0)
(0.284484 -0.00636043 0)
(0.297667 -0.00679894 0)
(0.311683 -0.00719526 0)
(0.326451 -0.00754879 0)
(0.34189 -0.00785903 0)
(0.357916 -0.00812391 0)
(0.374436 -0.00833863 0)
(0.39134 -0.00849538 0)
(0.408496 -0.0085839 0)
(0.425747 -0.00859528 0)
(0.442926 -0.00853144 0)
(0.459901 -0.00841604 0)
(0.476605 -0.00828094 0)
(0.493018 -0.00813541 0)
(0.509116 -0.00797079 0)
(0.524856 -0.00778229 0)
(0.540197 -0.00758192 0)
(0.555143 -0.00739451 0)
(0.569743 -0.00723415 0)
(0.58405 -0.00709523 0)
(0.598099 -0.00697058 0)
(0.611916 -0.00685993 0)
(0.625529 -0.00676095 0)
(0.638953 -0.00666534 0)
(0.652187 -0.00656553 0)
(0.665216 -0.00645848 0)
(0.678024 -0.00634267 0)
(0.690591 -0.00621641 0)
(0.702894 -0.00607938 0)
(0.714912 -0.00593276 0)
(0.726627 -0.005778 0)
(0.738025 -0.00561656 0)
(0.749092 -0.00545018 0)
(0.759823 -0.00528055 0)
(0.770211 -0.00510914 0)
(0.780254 -0.00493719 0)
(0.789953 -0.00476578 0)
(0.79931 -0.00459573 0)
(0.808329 -0.0044277 0)
(0.817014 -0.00426217 0)
(0.82537 -0.00409955 0)
(0.833404 -0.00394012 0)
(0.841123 -0.00378412 0)
(0.848533 -0.00363176 0)
(0.855642 -0.0034832 0)
(0.862458 -0.00333858 0)
(0.868989 -0.00319799 0)
(0.875243 -0.00306152 0)
(0.881228 -0.00292923 0)
(0.886953 -0.00280116 0)
(0.892426 -0.00267731 0)
(0.897656 -0.0025577 0)
(0.902651 -0.0024423 0)
(0.907419 -0.00233108 0)
(0.91197 -0.00222399 0)
(0.91631 -0.00212097 0)
(0.920448 -0.00202195 0)
(0.924393 -0.00192685 0)
(0.928151 -0.00183558 0)
(0.93173 -0.00174806 0)
(0.935138 -0.00166418 0)
(0.938383 -0.00158384 0)
(0.94147 -0.00150695 0)
(0.944407 -0.00143339 0)
(0.9472 -0.00136306 0)
(0.949855 -0.00129586 0)
(0.95238 -0.00123169 0)
(0.954779 -0.00117043 0)
(0.957058 -0.00111199 0)
(0.959224 -0.00105628 0)
(0.96128 -0.00100318 0)
(0.963234 -0.000952613 0)
(0.965088 -0.000904472 0)
(0.966849 -0.000858666 0)
(0.968521 -0.000815101 0)
(0.970107 -0.000773683 0)
(0.971613 -0.000734324 0)
(0.973042 -0.000696931 0)
(0.974399 -0.000661417 0)
(0.975686 -0.000627695 0)
(0.976908 -0.00059568 0)
(0.978067 -0.000565289 0)
(0.979168 -0.000536441 0)
(0.980212 -0.000509059 0)
(0.981202 -0.000483065 0)
(0.982143 -0.000458388 0)
(0.983035 -0.000434957 0)
(0.983881 -0.000412705 0)
(0.984684 -0.000391568 0)
(0.985446 -0.000371487 0)
(0.986169 -0.000352403 0)
(0.986855 -0.000334264 0)
(0.987505 -0.000317021 0)
(0.988122 -0.000300627 0)
(0.988707 -0.000285041 0)
(0.989262 -0.000270224 0)
(0.989787 -0.000256142 0)
(0.990286 -0.000242762 0)
(0.990758 -0.000230054 0)
(0.991205 -0.000217991 0)
(0.991629 -0.000206547 0)
(0.992031 -0.000195697 0)
(0.992411 -0.000185416 0)
(0.992772 -0.000175683 0)
(0.993113 -0.000166472 0)
(0.993437 -0.000157762 0)
(0.993744 -0.00014953 0)
(0.994035 -0.000141753 0)
(0.994311 -0.000134409 0)
(0.994572 -0.000127478 0)
(0.99482 -0.000120938 0)
(0.995055 -0.000114768 0)
(0.995279 -0.000108949 0)
(0.995491 -0.000103463 0)
(0.995692 -9.82901e-05 0)
(0.995884 -9.34138e-05 0)
(0.996066 -8.88172e-05 0)
(0.996239 -8.4484e-05 0)
(0.996403 -8.03988e-05 0)
(0.99656 -7.65468e-05 0)
(0.996709 -7.29136e-05 0)
(0.996852 -6.94856e-05 0)
(0.996987 -6.62496e-05 0)
(0.997116 -6.31929e-05 0)
(0.99724 -6.03036e-05 0)
(0.997357 -5.75702e-05 0)
(0.99747 -5.49818e-05 0)
(0.997577 -5.25282e-05 0)
(0.99768 -5.01998e-05 0)
(0.997778 -4.79877e-05 0)
(0.997872 -4.58835e-05 0)
(0.997961 -4.38795e-05 0)
(0.998047 -4.19689e-05 0)
(0.998129 -4.01451e-05 0)
(0.998208 -3.84025e-05 0)
(0.998283 -3.67357e-05 0)
(0.998354 -3.51401e-05 0)
(0.998423 -3.36114e-05 0)
(0.998489 -3.2146e-05 0)
(0.998552 -3.07405e-05 0)
(0.998612 -2.93917e-05 0)
(0.998669 -2.80972e-05 0)
(0.998724 -2.68543e-05 0)
(0.998777 -2.56609e-05 0)
(0.998827 -2.45151e-05 0)
(0.998875 -2.34149e-05 0)
(0.99892 -2.23589e-05 0)
(0.998964 -2.13453e-05 0)
(0.999006 -2.03727e-05 0)
(0.999045 -1.94398e-05 0)
(0.999083 -1.85453e-05 0)
(0.99912 -1.7688e-05 0)
(0.999154 -1.68666e-05 0)
(0.999187 -1.608e-05 0)
(0.999218 -1.53271e-05 0)
(0.999248 -1.46068e-05 0)
(0.999277 -1.39179e-05 0)
(0.999304 -1.32595e-05 0)
(0.99933 -1.26305e-05 0)
(0.999354 -1.20299e-05 0)
(0.999378 -1.14567e-05 0)
(0.9994 -1.091e-05 0)
(0.999421 -1.03886e-05 0)
(0.999442 -9.89186e-06 0)
(0.999461 -9.41869e-06 0)
(0.999479 -8.96822e-06 0)
(0.999497 -8.53958e-06 0)
(0.999514 -8.13193e-06 0)
(0.999529 -7.74444e-06 0)
(0.999544 -7.37628e-06 0)
(0.999559 -7.02669e-06 0)
(0.999573 -6.69489e-06 0)
(0.999586 -6.38015e-06 0)
(0.999598 -6.08175e-06 0)
(0.99961 -5.79898e-06 0)
(0.999621 -5.53117e-06 0)
(0.999632 -5.27768e-06 0)
(0.999642 -5.03786e-06 0)
(0.999652 -4.8111e-06 0)
(0.999662 -4.5968e-06 0)
(0.999671 -4.3944e-06 0)
(0.999679 -4.20333e-06 0)
(0.999687 -4.02305e-06 0)
(0.999695 -3.85306e-06 0)
(0.999703 -3.69283e-06 0)
(0.99971 -3.5419e-06 0)
(0.999717 -3.39978e-06 0)
(0.999724 -3.26603e-06 0)
(0.99973 -3.14021e-06 0)
(0.999736 -3.02189e-06 0)
(0.999742 -2.91068e-06 0)
(0.999748 -2.80617e-06 0)
(0.999753 -2.70799e-06 0)
(0.999759 -2.61577e-06 0)
(0.999764 -2.52915e-06 0)
(0.999769 -2.44781e-06 0)
(0.999774 -2.3714e-06 0)
(0.999778 -2.29962e-06 0)
(0.999783 -2.23216e-06 0)
(0.999787 -2.16871e-06 0)
(0.999791 -2.10901e-06 0)
(0.999796 -2.05277e-06 0)
(0.9998 -1.99973e-06 0)
(0.999804 -1.94964e-06 0)
(0.999807 -1.90224e-06 0)
(0.999811 -1.85731e-06 0)
(0.999815 -1.81461e-06 0)
(0.999818 -1.77392e-06 0)
(0.999822 -1.73504e-06 0)
(0.999825 -1.69776e-06 0)
(0.999829 -1.66189e-06 0)
(0.999832 -1.62725e-06 0)
(0.999835 -1.59366e-06 0)
(0.999838 -1.56096e-06 0)
(0.999841 -1.52901e-06 0)
(0.999844 -1.49765e-06 0)
(0.999847 -1.46676e-06 0)
(0.99985 -1.43621e-06 0)
(0.999853 -1.40592e-06 0)
(0.999856 -1.37577e-06 0)
(0.999859 -1.3457e-06 0)
(0.999861 -1.31563e-06 0)
(0.999864 -1.28553e-06 0)
(0.999866 -1.25536e-06 0)
(0.999869 -1.22509e-06 0)
(0.999871 -1.19474e-06 0)
(0.999874 -1.16431e-06 0)
(0.999876 -1.13383e-06 0)
(0.999878 -1.10334e-06 0)
(0.99988 -1.0729e-06 0)
(0.999883 -1.04258e-06 0)
(0.999885 -1.01245e-06 0)
(0.999887 -9.82588e-07 0)
(0.999889 -9.53075e-07 0)
(0.99989 -9.2399e-07 0)
(0.999892 -8.95407e-07 0)
(0.999894 -8.67391e-07 0)
(0.999896 -8.4e-07 0)
(0.999897 -8.1328e-07 0)
(0.999899 -7.87265e-07 0)
(0.999901 -7.61983e-07 0)
(0.999902 -7.37453e-07 0)
(0.999903 -7.13693e-07 0)
(0.999905 -6.90725e-07 0)
(0.999906 -6.68575e-07 0)
(0.999908 -6.47284e-07 0)
(0.999909 -6.26908e-07 0)
(0.99991 -6.0752e-07 0)
(0.999911 -5.89212e-07 0)
(0.999912 -5.72086e-07 0)
(0.999914 -5.5625e-07 0)
(0.999915 -5.41808e-07 0)
(0.999916 -5.28841e-07 0)
(0.999917 -5.17396e-07 0)
(0.999918 -5.07466e-07 0)
(0.999919 -4.98981e-07 0)
(0.99992 -4.91794e-07 0)
(0.999921 -4.85682e-07 0)
(0.999922 -4.80354e-07 0)
(0.999923 -4.75467e-07 0)
(0.999924 -4.70652e-07 0)
(0.999925 -4.65552e-07 0)
(0.999925 -4.59857e-07 0)
(0.999926 -4.53343e-07 0)
(0.999927 -4.45902e-07 0)
(0.999928 -4.37561e-07 0)
(0.999929 -4.28489e-07 0)
(0.99993 -4.18982e-07 0)
(0.999931 -4.09441e-07 0)
(0.999932 -4.00332e-07 0)
(0.999932 -3.92135e-07 0)
(0.999933 -3.85304e-07 0)
(0.999934 -3.80219e-07 0)
(0.999935 -3.77152e-07 0)
(0.999935 -3.76248e-07 0)
(0.999936 -3.77517e-07 0)
(0.999937 -3.8084e-07 0)
(0.999938 -3.85984e-07 0)
(0.999938 -3.92627e-07 0)
(0.999939 -4.00388e-07 0)
(0.99994 -4.08856e-07 0)
(0.999941 -4.17614e-07 0)
(0.999942 -4.26269e-07 0)
(0.999943 -4.34462e-07 0)
(0.999943 -4.41889e-07 0)
(0.999944 -4.48303e-07 0)
(0.999945 -4.53518e-07 0)
(0.999946 -4.57409e-07 0)
(0.999947 -4.59906e-07 0)
(0.999948 -4.60988e-07 0)
(0.999949 -4.60677e-07 0)
(0.99995 -4.59029e-07 0)
(0.999951 -4.56126e-07 0)
(0.999952 -4.52068e-07 0)
(0.999953 -4.46969e-07 0)
(0.999953 -4.4095e-07 0)
(0.999954 -4.34132e-07 0)
(0.999955 -4.26637e-07 0)
(0.999956 -4.18581e-07 0)
(0.999957 -4.10074e-07 0)
(0.999958 -4.01218e-07 0)
(0.999958 -3.92105e-07 0)
(0.999959 -3.82819e-07 0)
(0.99996 -3.73435e-07 0)
(0.999961 -3.64019e-07 0)
(0.999961 -3.54626e-07 0)
(0.999962 -3.45305e-07 0)
(0.999963 -3.36097e-07 0)
(0.999963 -3.27036e-07 0)
(0.999964 -3.18149e-07 0)
(0.999965 -3.0946e-07 0)
(0.999965 -3.00984e-07 0)
(0.999966 -2.92736e-07 0)
(0.999967 -2.84725e-07 0)
(0.999967 -2.76957e-07 0)
(0.999968 -2.69434e-07 0)
(0.999968 -2.6216e-07 0)
(0.999969 -2.55131e-07 0)
(0.999969 -2.48347e-07 0)
(0.99997 -2.41804e-07 0)
(0.99997 -2.35496e-07 0)
(0.999971 -2.29418e-07 0)
(0.999971 -2.23564e-07 0)
(0.999972 -2.17928e-07 0)
(0.999972 -2.12501e-07 0)
(0.999972 -2.07277e-07 0)
(0.999973 -2.02249e-07 0)
(0.999973 -1.97408e-07 0)
(0.999974 -1.92748e-07 0)
(0.999974 -1.88261e-07 0)
(0.999974 -1.83939e-07 0)
(0.999975 -1.79776e-07 0)
(0.999975 -1.75764e-07 0)
(0.999975 -1.71897e-07 0)
(0.999976 -1.68169e-07 0)
(0.999976 -1.64572e-07 0)
(0.999976 -1.61102e-07 0)
(0.999977 -1.57751e-07 0)
(0.999977 -1.54514e-07 0)
(0.999977 -1.51386e-07 0)
(0.999978 -1.48363e-07 0)
(0.999978 -1.45438e-07 0)
(0.999978 -1.42607e-07 0)
(0.999978 -1.39866e-07 0)
(0.999979 -1.3721e-07 0)
(0.999979 -1.34636e-07 0)
(0.999979 -1.32139e-07 0)
(0.99998 -1.29716e-07 0)
(0.99998 -1.27363e-07 0)
(0.99998 -1.25077e-07 0)
(0.99998 -1.22855e-07 0)
(0.999981 -1.20694e-07 0)
(0.999981 -1.18591e-07 0)
(0.999981 -1.16544e-07 0)
(0.999981 -1.14549e-07 0)
(0.999981 -1.12605e-07 0)
(0.999982 -1.10709e-07 0)
(0.999982 -1.08859e-07 0)
(0.999982 -1.07053e-07 0)
(0.999982 -1.05288e-07 0)
(0.999983 -1.03564e-07 0)
(0.999983 -1.01879e-07 0)
(0.999983 -1.0023e-07 0)
(0.999983 -9.86161e-08 0)
(0.999983 -9.70361e-08 0)
(0.999984 -9.54884e-08 0)
(0.999984 -9.39716e-08 0)
(0.999984 -9.24845e-08 0)
(0.999984 -9.10259e-08 0)
(0.999984 -8.95946e-08 0)
(0.999984 -8.81896e-08 0)
(0.999985 -8.68099e-08 0)
(0.999985 -8.54545e-08 0)
(0.999985 -8.41225e-08 0)
(0.999985 -8.2813e-08 0)
(0.999985 -8.15251e-08 0)
(0.999985 -8.02581e-08 0)
(0.999986 -7.90112e-08 0)
(0.999986 -7.77837e-08 0)
(0.999986 -7.6575e-08 0)
(0.999986 -7.53845e-08 0)
(0.999986 -7.42114e-08 0)
(0.999986 -7.30552e-08 0)
(0.999987 -7.19154e-08 0)
(0.999987 -7.07914e-08 0)
(0.999987 -6.96827e-08 0)
(0.999987 -6.8589e-08 0)
(0.999987 -6.75096e-08 0)
(0.999987 -6.64442e-08 0)
(0.999987 -6.53923e-08 0)
(0.999988 -6.43535e-08 0)
(0.999988 -6.33275e-08 0)
(0.999988 -6.2314e-08 0)
(0.999988 -6.13125e-08 0)
(0.999988 -6.03227e-08 0)
(0.999988 -5.93443e-08 0)
(0.999988 -5.8377e-08 0)
(0.999988 -5.74205e-08 0)
(0.999988 -5.64745e-08 0)
(0.999989 -5.55388e-08 0)
(0.999989 -5.46131e-08 0)
(0.999989 -5.3697e-08 0)
(0.999989 -5.27905e-08 0)
(0.999989 -5.18933e-08 0)
(0.999989 -5.1005e-08 0)
(0.999989 -5.01257e-08 0)
(0.999989 -4.92549e-08 0)
(0.999989 -4.83925e-08 0)
(0.99999 -4.75384e-08 0)
(0.99999 -4.66922e-08 0)
(0.99999 -4.58539e-08 0)
(0.99999 -4.50233e-08 0)
(0.99999 -4.42002e-08 0)
(0.99999 -4.33843e-08 0)
(0.99999 -4.25757e-08 0)
(0.99999 -4.1774e-08 0)
(0.99999 -4.09792e-08 0)
(0.99999 -4.0191e-08 0)
(0.99999 -3.94095e-08 0)
(0.99999 -3.86343e-08 0)
(0.999991 -3.78653e-08 0)
(0.999991 -3.71029e-08 0)
(0.999991 -3.63448e-08 0)
(0.999991 -3.55995e-08 0)
(0.999991 -3.483e-08 0)
(0.999991 -3.41947e-08 0)
(0.999991 -3.30144e-08 0)
(-0.0306414 0.0653016 0)
(-0.0572945 0.0150208 0)
(-0.0132181 -0.0632413 0)
(-0.00403191 -0.0808356 0)
(0.0144586 -0.153803 0)
(0.158901 -0.182172 0)
(0.307042 -0.0376066 0)
(0.321187 0.0419 0)
(0.265269 0.0402263 0)
(0.226509 0.019287 0)
(0.215579 0.0092488 0)
(0.213395 0.00631806 0)
(0.211943 0.00396272 0)
(0.21143 0.00100588 0)
(0.212753 -0.00189691 0)
(0.215631 -0.00456155 0)
(0.219994 -0.00700413 0)
(0.225676 -0.00919696 0)
(0.232503 -0.0111574 0)
(0.240375 -0.0129472 0)
(0.249259 -0.0146245 0)
(0.259161 -0.0162167 0)
(0.270092 -0.0177212 0)
(0.282042 -0.0191212 0)
(0.294975 -0.0204047 0)
(0.308832 -0.0215714 0)
(0.323544 -0.0226253 0)
(0.339033 -0.0235664 0)
(0.355213 -0.0243841 0)
(0.371984 -0.0250564 0)
(0.389226 -0.0255501 0)
(0.406786 -0.0258236 0)
(0.424473 -0.0258409 0)
(0.442069 -0.0256059 0)
(0.459387 -0.0252096 0)
(0.476361 -0.024777 0)
(0.493002 -0.0243373 0)
(0.509295 -0.0238524 0)
(0.525175 -0.0232959 0)
(0.540577 -0.0226969 0)
(0.555512 -0.0221399 0)
(0.57007 -0.0216728 0)
(0.584335 -0.0212679 0)
(0.598344 -0.0208982 0)
(0.612123 -0.0205692 0)
(0.625708 -0.0202781 0)
(0.639124 -0.0199966 0)
(0.652363 -0.0196999 0)
(0.665405 -0.0193803 0)
(0.678231 -0.0190341 0)
(0.69082 -0.0186554 0)
(0.703144 -0.0182431 0)
(0.715181 -0.0178016 0)
(0.726913 -0.0173356 0)
(0.738323 -0.0168495 0)
(0.749401 -0.0163487 0)
(0.760137 -0.0158384 0)
(0.770528 -0.015323 0)
(0.780573 -0.0148062 0)
(0.790271 -0.0142912 0)
(0.799626 -0.0137806 0)
(0.808641 -0.0132762 0)
(0.817321 -0.0127794 0)
(0.825672 -0.0122914 0)
(0.8337 -0.0118131 0)
(0.841412 -0.0113451 0)
(0.848816 -0.0108881 0)
(0.855918 -0.0104425 0)
(0.862727 -0.0100088 0)
(0.86925 -0.00958715 0)
(0.875496 -0.0091779 0)
(0.881474 -0.0087812 0)
(0.887191 -0.00839715 0)
(0.892656 -0.00802581 0)
(0.897878 -0.00766717 0)
(0.902865 -0.00732116 0)
(0.907626 -0.00698769 0)
(0.912169 -0.00666662 0)
(0.916501 -0.00635776 0)
(0.920632 -0.0060609 0)
(0.924569 -0.0057758 0)
(0.928321 -0.0055022 0)
(0.931893 -0.00523982 0)
(0.935295 -0.00498837 0)
(0.938532 -0.00474754 0)
(0.941613 -0.00451703 0)
(0.944544 -0.00429652 0)
(0.947331 -0.0040857 0)
(0.949981 -0.00388425 0)
(0.9525 -0.00369187 0)
(0.954893 -0.00350824 0)
(0.957168 -0.00333307 0)
(0.959328 -0.00316605 0)
(0.96138 -0.00300689 0)
(0.963329 -0.0028553 0)
(0.965179 -0.00271099 0)
(0.966935 -0.00257368 0)
(0.968603 -0.00244309 0)
(0.970185 -0.00231894 0)
(0.971688 -0.00220097 0)
(0.973113 -0.00208888 0)
(0.974466 -0.00198244 0)
(0.97575 -0.00188136 0)
(0.976969 -0.00178541 0)
(0.978125 -0.00169432 0)
(0.979222 -0.00160786 0)
(0.980264 -0.00152579 0)
(0.981252 -0.00144788 0)
(0.98219 -0.00137392 0)
(0.983079 -0.0013037 0)
(0.983924 -0.00123701 0)
(0.984725 -0.00117366 0)
(0.985485 -0.00111347 0)
(0.986206 -0.00105627 0)
(0.98689 -0.0010019 0)
(0.987539 -0.000950219 0)
(0.988154 -0.000901079 0)
(0.988737 -0.00085436 0)
(0.98929 -0.000809945 0)
(0.989814 -0.00076773 0)
(0.990311 -0.000727618 0)
(0.990782 -0.000689522 0)
(0.991228 -0.00065336 0)
(0.991651 -0.000619052 0)
(0.992052 -0.000586525 0)
(0.992431 -0.000555707 0)
(0.992791 -0.000526529 0)
(0.993131 -0.000498919 0)
(0.993454 -0.000472811 0)
(0.99376 -0.000448136 0)
(0.99405 -0.000424827 0)
(0.994325 -0.000402818 0)
(0.994585 -0.000382045 0)
(0.994833 -0.000362444 0)
(0.995067 -0.000343955 0)
(0.99529 -0.000326518 0)
(0.995501 -0.000310076 0)
(0.995702 -0.000294576 0)
(0.995893 -0.000279963 0)
(0.996075 -0.000266189 0)
(0.996247 -0.000253205 0)
(0.996411 -0.000240965 0)
(0.996568 -0.000229423 0)
(0.996716 -0.000218537 0)
(0.996858 -0.000208266 0)
(0.996993 -0.00019857 0)
(0.997122 -0.000189412 0)
(0.997245 -0.000180755 0)
(0.997363 -0.000172566 0)
(0.997475 -0.000164811 -5.64929e-42)
(0.997582 -0.00015746 -5.44631e-42)
(0.997684 -0.000150483 0)
(0.997782 -0.000143855 0)
(0.997876 -0.00013755 0)
(0.997965 -0.000131545 0)
(0.998051 -0.00012582 0)
(0.998133 -0.000120354 0)
(0.998211 -0.000115131 0)
(0.998286 -0.000110136 0)
(0.998358 -0.000105353 0)
(0.998426 -0.000100771 0)
(0.998492 -9.63782e-05 0)
(0.998554 -9.21645e-05 0)
(0.998614 -8.8121e-05 0)
(0.998672 -8.42397e-05 0)
(0.998727 -8.05132e-05 0)
(0.998779 -7.69351e-05 0)
(0.998829 -7.34994e-05 0)
(0.998877 -7.02007e-05 0)
(0.998922 -6.7034e-05 0)
(0.998966 -6.39947e-05 0)
(0.999008 -6.10784e-05 0)
(0.999047 -5.82811e-05 0)
(0.999085 -5.55989e-05 0)
(0.999121 -5.3028e-05 0)
(0.999156 -5.0565e-05 0)
(0.999189 -4.82064e-05 0)
(0.99922 -4.59487e-05 0)
(0.99925 -4.37887e-05 0)
(0.999278 -4.17233e-05 0)
(0.999305 -3.97491e-05 0)
(0.999331 -3.78632e-05 0)
(0.999356 -3.60624e-05 0)
(0.999379 -3.43438e-05 0)
(0.999401 -3.27044e-05 0)
(0.999422 -3.11414e-05 0)
(0.999443 -2.9652e-05 0)
(0.999462 -2.82333e-05 0)
(0.99948 -2.68828e-05 0)
(0.999498 -2.55978e-05 0)
(0.999514 -2.43756e-05 0)
(0.99953 -2.3214e-05 0)
(0.999545 -2.21103e-05 0)
(0.99956 -2.10623e-05 0)
(0.999573 -2.00676e-05 0)
(0.999586 -1.91241e-05 0)
(0.999599 -1.82296e-05 0)
(0.99961 -1.7382e-05 0)
(0.999622 -1.65792e-05 0)
(0.999633 -1.58194e-05 0)
(0.999643 -1.51005e-05 0)
(0.999653 -1.44208e-05 0)
(0.999662 -1.37785e-05 0)
(0.999671 -1.31719e-05 0)
(0.99968 -1.25992e-05 0)
(0.999688 -1.20589e-05 0)
(0.999696 -1.15494e-05 0)
(0.999703 -1.10692e-05 0)
(0.99971 -1.06169e-05 0)
(0.999717 -1.0191e-05 0)
(0.999724 -9.79016e-06 0)
(0.99973 -9.41312e-06 0)
(0.999736 -9.05858e-06 0)
(0.999742 -8.72533e-06 0)
(0.999748 -8.41218e-06 0)
(0.999753 -8.118e-06 0)
(0.999759 -7.84169e-06 0)
(0.999764 -7.58219e-06 0)
(0.999769 -7.33848e-06 0)
(0.999774 -7.10958e-06 0)
(0.999778 -6.89454e-06 0)
(0.999783 -6.69244e-06 0)
(0.999787 -6.5024e-06 0)
(0.999791 -6.32357e-06 0)
(0.999796 -6.15512e-06 0)
(0.9998 -5.99625e-06 0)
(0.999804 -5.84622e-06 0)
(0.999807 -5.70426e-06 0)
(0.999811 -5.56969e-06 0)
(0.999815 -5.44181e-06 0)
(0.999818 -5.31996e-06 0)
(0.999822 -5.20351e-06 0)
(0.999825 -5.09186e-06 0)
(0.999829 -4.98443e-06 0)
(0.999832 -4.88068e-06 0)
(0.999835 -4.78008e-06 0)
(0.999838 -4.68215e-06 0)
(0.999842 -4.58642e-06 0)
(0.999845 -4.49247e-06 0)
(0.999847 -4.39991e-06 0)
(0.99985 -4.30839e-06 0)
(0.999853 -4.21759e-06 0)
(0.999856 -4.12723e-06 0)
(0.999859 -4.03707e-06 0)
(0.999861 -3.94694e-06 0)
(0.999864 -3.85666e-06 0)
(0.999867 -3.76616e-06 0)
(0.999869 -3.67537e-06 0)
(0.999871 -3.58429e-06 0)
(0.999874 -3.49296e-06 0)
(0.999876 -3.40148e-06 0)
(0.999878 -3.30996e-06 0)
(0.999881 -3.21859e-06 0)
(0.999883 -3.12755e-06 0)
(0.999885 -3.03708e-06 0)
(0.999887 -2.94742e-06 0)
(0.999889 -2.8588e-06 0)
(0.99989 -2.77147e-06 0)
(0.999892 -2.68566e-06 0)
(0.999894 -2.60156e-06 0)
(0.999896 -2.51934e-06 0)
(0.999897 -2.43914e-06 0)
(0.999899 -2.36107e-06 0)
(0.999901 -2.2852e-06 0)
(0.999902 -2.21159e-06 0)
(0.999904 -2.14029e-06 0)
(0.999905 -2.07135e-06 0)
(0.999906 -2.00486e-06 0)
(0.999908 -1.94093e-06 0)
(0.999909 -1.87973e-06 0)
(0.99991 -1.82148e-06 0)
(0.999911 -1.76645e-06 0)
(0.999912 -1.71497e-06 0)
(0.999914 -1.66736e-06 0)
(0.999915 -1.62396e-06 0)
(0.999916 -1.58503e-06 0)
(0.999917 -1.5507e-06 0)
(0.999918 -1.52099e-06 0)
(0.999919 -1.49569e-06 0)
(0.99992 -1.47435e-06 0)
(0.999921 -1.4563e-06 0)
(0.999922 -1.44064e-06 0)
(0.999923 -1.42633e-06 0)
(0.999924 -1.41222e-06 0)
(0.999925 -1.39721e-06 0)
(0.999925 -1.38032e-06 0)
(0.999926 -1.36087e-06 0)
(0.999927 -1.33851e-06 0)
(0.999928 -1.31331e-06 0)
(0.999929 -1.2858e-06 0)
(0.99993 -1.25689e-06 0)
(0.999931 -1.22782e-06 0)
(0.999932 -1.20004e-06 0)
(0.999932 -1.17504e-06 0)
(0.999933 -1.15421e-06 0)
(0.999934 -1.13873e-06 0)
(0.999935 -1.12943e-06 0)
(0.999935 -1.12674e-06 0)
(0.999936 -1.1307e-06 0)
(0.999937 -1.14091e-06 0)
(0.999938 -1.15666e-06 0)
(0.999938 -1.17696e-06 0)
(0.999939 -1.20064e-06 0)
(0.99994 -1.22644e-06 0)
(0.999941 -1.25308e-06 0)
(0.999942 -1.27937e-06 0)
(0.999943 -1.30423e-06 0)
(0.999943 -1.32674e-06 0)
(0.999944 -1.34614e-06 0)
(0.999945 -1.3619e-06 0)
(0.999946 -1.37363e-06 0)
(0.999947 -1.38113e-06 0)
(0.999948 -1.38435e-06 0)
(0.999949 -1.38336e-06 0)
(0.99995 -1.37833e-06 0)
(0.999951 -1.36952e-06 0)
(0.999952 -1.35723e-06 0)
(0.999953 -1.34181e-06 0)
(0.999953 -1.32364e-06 0)
(0.999954 -1.30306e-06 0)
(0.999955 -1.28046e-06 0)
(0.999956 -1.25619e-06 0)
(0.999957 -1.23056e-06 0)
(0.999958 -1.2039e-06 0)
(0.999958 -1.17648e-06 0)
(0.999959 -1.14855e-06 0)
(0.99996 -1.12033e-06 0)
(0.999961 -1.09203e-06 0)
(0.999961 -1.0638e-06 0)
(0.999962 -1.03579e-06 0)
(0.999963 -1.00814e-06 0)
(0.999963 -9.80925e-07 0)
(0.999964 -9.54244e-07 0)
(0.999965 -9.28158e-07 0)
(0.999965 -9.02719e-07 0)
(0.999966 -8.77966e-07 0)
(0.999967 -8.53926e-07 0)
(0.999967 -8.30617e-07 0)
(0.999968 -8.08049e-07 0)
(0.999968 -7.86225e-07 0)
(0.999969 -7.65143e-07 0)
(0.999969 -7.44795e-07 0)
(0.99997 -7.25169e-07 0)
(0.99997 -7.06251e-07 0)
(0.999971 -6.88025e-07 0)
(0.999971 -6.7047e-07 0)
(0.999972 -6.53567e-07 0)
(0.999972 -6.37295e-07 0)
(0.999972 -6.21631e-07 0)
(0.999973 -6.06553e-07 0)
(0.999973 -5.92038e-07 0)
(0.999974 -5.78065e-07 0)
(0.999974 -5.6461e-07 0)
(0.999974 -5.51653e-07 0)
(0.999975 -5.3917e-07 0)
(0.999975 -5.27143e-07 0)
(0.999975 -5.15549e-07 0)
(0.999976 -5.0437e-07 0)
(0.999976 -4.93586e-07 0)
(0.999976 -4.8318e-07 0)
(0.999977 -4.73133e-07 0)
(0.999977 -4.63428e-07 0)
(0.999977 -4.54051e-07 0)
(0.999978 -4.44984e-07 0)
(0.999978 -4.36214e-07 0)
(0.999978 -4.27726e-07 0)
(0.999978 -4.19507e-07 0)
(0.999979 -4.11544e-07 0)
(0.999979 -4.03825e-07 0)
(0.999979 -3.96338e-07 0)
(0.99998 -3.89073e-07 0)
(0.99998 -3.82018e-07 0)
(0.99998 -3.75164e-07 0)
(0.99998 -3.68501e-07 0)
(0.999981 -3.62021e-07 0)
(0.999981 -3.55715e-07 0)
(0.999981 -3.49575e-07 0)
(0.999981 -3.43594e-07 0)
(0.999981 -3.37764e-07 0)
(0.999982 -3.32077e-07 0)
(0.999982 -3.26529e-07 0)
(0.999982 -3.21113e-07 0)
(0.999982 -3.15822e-07 0)
(0.999983 -3.10652e-07 0)
(0.999983 -3.05596e-07 0)
(0.999983 -3.00651e-07 0)
(0.999983 -2.95812e-07 0)
(0.999983 -2.91073e-07 0)
(0.999984 -2.86431e-07 0)
(0.999984 -2.81882e-07 0)
(0.999984 -2.77422e-07 0)
(0.999984 -2.73047e-07 0)
(0.999984 -2.68755e-07 0)
(0.999984 -2.64541e-07 0)
(0.999985 -2.60403e-07 0)
(0.999985 -2.56338e-07 0)
(0.999985 -2.52342e-07 0)
(0.999985 -2.48415e-07 0)
(0.999985 -2.44552e-07 0)
(0.999985 -2.40752e-07 0)
(0.999986 -2.37012e-07 0)
(0.999986 -2.3333e-07 0)
(0.999986 -2.29705e-07 0)
(0.999986 -2.26134e-07 0)
(0.999986 -2.22615e-07 0)
(0.999986 -2.19147e-07 0)
(0.999987 -2.15728e-07 0)
(0.999987 -2.12357e-07 0)
(0.999987 -2.09031e-07 0)
(0.999987 -2.0575e-07 0)
(0.999987 -2.02513e-07 0)
(0.999987 -1.99317e-07 0)
(0.999987 -1.96162e-07 0)
(0.999988 -1.93046e-07 0)
(0.999988 -1.89968e-07 0)
(0.999988 -1.86928e-07 0)
(0.999988 -1.83924e-07 0)
(0.999988 -1.80955e-07 0)
(0.999988 -1.7802e-07 0)
(0.999988 -1.75118e-07 0)
(0.999988 -1.72249e-07 0)
(0.999988 -1.69412e-07 0)
(0.999989 -1.66605e-07 0)
(0.999989 -1.63828e-07 0)
(0.999989 -1.6108e-07 0)
(0.999989 -1.58361e-07 0)
(0.999989 -1.55669e-07 0)
(0.999989 -1.53005e-07 0)
(0.999989 -1.50367e-07 0)
(0.999989 -1.47755e-07 0)
(0.999989 -1.45168e-07 0)
(0.99999 -1.42606e-07 0)
(0.99999 -1.40067e-07 0)
(0.99999 -1.37553e-07 0)
(0.99999 -1.35061e-07 0)
(0.99999 -1.32592e-07 0)
(0.99999 -1.30144e-07 0)
(0.99999 -1.27719e-07 0)
(0.99999 -1.25314e-07 0)
(0.99999 -1.22929e-07 0)
(0.99999 -1.20565e-07 0)
(0.99999 -1.18221e-07 0)
(0.99999 -1.15895e-07 0)
(0.999991 -1.13589e-07 0)
(0.999991 -1.11301e-07 0)
(0.999991 -1.09027e-07 0)
(0.999991 -1.06792e-07 0)
(0.999991 -1.04483e-07 0)
(0.999991 -1.02577e-07 0)
(0.999991 -9.90368e-08 0)
(-0.0268579 0.100954 0)
(-0.0345769 0.00659431 0)
(0.00240943 -0.0791736 0)
(-0.0983509 -0.103082 0)
(-0.0872959 -0.28409 0)
(0.000899082 -0.42002 0)
(0.230446 -0.142094 0)
(0.277457 0.0515609 0)
(0.234193 0.080113 0)
(0.200425 0.045674 0)
(0.191353 0.0163591 0)
(0.19111 0.00383466 0)
(0.193829 7.89942e-05 0)
(0.198497 -0.00215179 0)
(0.203891 -0.00525542 0)
(0.209208 -0.00877733 0)
(0.214565 -0.0121784 0)
(0.220323 -0.0152802 0)
(0.226682 -0.0181013 0)
(0.233801 -0.0207459 0)
(0.241888 -0.0233259 0)
(0.251169 -0.025902 0)
(0.261797 -0.0284676 0)
(0.273795 -0.0309694 0)
(0.287059 -0.0333428 0)
(0.301424 -0.035541 0)
(0.316712 -0.0375409 0)
(0.332767 -0.0393308 0)
(0.349461 -0.0408908 0)
(0.366687 -0.042189 0)
(0.384349 -0.0431786 0)
(0.402341 -0.0437844 0)
(0.420496 -0.0439061 0)
(0.43855 -0.0434799 0)
(0.456266 -0.042693 0)
(0.473641 -0.0418848 0)
(0.490797 -0.0410867 0)
(0.507719 -0.0401725 0)
(0.524234 -0.0390784 0)
(0.540143 -0.0378902 0)
(0.555403 -0.0368406 0)
(0.570174 -0.0360331 0)
(0.584602 -0.0353607 0)
(0.598707 -0.0347463 0)
(0.612512 -0.0342139 0)
(0.626101 -0.033764 0)
(0.639529 -0.0333273 0)
(0.652788 -0.0328498 0)
(0.665849 -0.0323272 0)
(0.678701 -0.0317585 0)
(0.691322 -0.0311303 0)
(0.703681 -0.0304409 0)
(0.71575 -0.0297012 0)
(0.72751 -0.0289197 0)
(0.738944 -0.0281037 0)
(0.750039 -0.0272632 0)
(0.760787 -0.0264077 0)
(0.771185 -0.0255441 0)
(0.781231 -0.0246791 0)
(0.790927 -0.0238179 0)
(0.800276 -0.0229645 0)
(0.809283 -0.022122 0)
(0.817953 -0.0212926 0)
(0.826293 -0.0204782 0)
(0.834309 -0.0196801 0)
(0.842008 -0.0188994 0)
(0.849398 -0.018137 0)
(0.856485 -0.0173938 0)
(0.863279 -0.0166704 0)
(0.869787 -0.0159673 0)
(0.876017 -0.0152849 0)
(0.881979 -0.0146235 0)
(0.88768 -0.0139833 0)
(0.893129 -0.0133643 0)
(0.898335 -0.0127665 0)
(0.903306 -0.0121899 0)
(0.90805 -0.0116342 0)
(0.912577 -0.0110991 0)
(0.916895 -0.0105845 0)
(0.92101 -0.0100899 0)
(0.924933 -0.00961497 0)
(0.928669 -0.0091592 0)
(0.932227 -0.00872215 0)
(0.935615 -0.00830333 0)
(0.938839 -0.00790222 0)
(0.941907 -0.00751831 0)
(0.944825 -0.00715108 0)
(0.9476 -0.0068 0)
(0.950238 -0.00646454 0)
(0.952745 -0.00614418 0)
(0.955128 -0.00583842 0)
(0.957391 -0.00554675 0)
(0.959542 -0.00526866 0)
(0.961584 -0.00500367 0)
(0.963522 -0.00475129 0)
(0.965363 -0.00451106 0)
(0.967111 -0.00428248 0)
(0.96877 -0.0040651 0)
(0.970344 -0.00385846 0)
(0.971838 -0.0036621 0)
(0.973257 -0.00347556 0)
(0.974602 -0.00329841 0)
(0.97588 -0.00313021 0)
(0.977092 -0.00297053 0)
(0.978242 -0.00281897 0)
(0.979333 -0.0026751 0)
(0.980369 -0.00253855 0)
(0.981352 -0.00240894 0)
(0.982285 -0.00228589 0)
(0.98317 -0.00216906 0)
(0.984009 -0.0020581 0)
(0.984806 -0.00195271 0)
(0.985562 -0.00185257 0)
(0.98628 -0.00175741 0)
(0.98696 -0.00166696 0)
(0.987605 -0.00158096 0)
(0.988217 -0.00149919 0)
(0.988797 -0.00142144 0)
(0.989347 -0.00134753 0)
(0.989869 -0.00127727 0)
(0.990363 -0.00121051 0)
(0.990831 -0.00114711 0)
(0.991275 -0.00108692 0)
(0.991695 -0.00102982 0)
(0.992094 -0.000975681 0)
(0.992471 -0.000924394 0)
(0.992828 -0.000875836 0)
(0.993167 -0.000829894 0)
(0.993488 -0.000786453 0)
(0.993792 -0.0007454 0)
(0.99408 -0.000706622 0)
(0.994353 -0.00067001 0)
(0.994612 -0.000635456 0)
(0.994858 -0.000602854 0)
(0.995091 -0.000572102 0)
(0.995313 -0.000543102 0)
(0.995523 -0.000515758 0)
(0.995722 -0.000489981 0)
(0.995912 -0.000465683 0)
(0.996092 -0.000442779 0)
(0.996264 -0.000421189 0)
(0.996427 -0.000400837 0)
(0.996582 -0.000381647 0)
(0.99673 -0.000363549 0)
(0.996871 -0.000346474 0)
(0.997006 -0.000330356 0)
(0.997134 -0.000315133 0)
(0.997257 -0.000300743 0)
(0.997373 -0.000287129 0)
(0.997485 -0.000274238 0)
(0.997592 -0.000262018 0)
(0.997693 -0.00025042 0)
(0.997791 -0.000239401 0)
(0.997884 -0.000228918 0)
(0.997973 -0.000218933 0)
(0.998058 -0.000209411 0)
(0.99814 -0.000200321 0)
(0.998218 -0.000191634 0)
(0.998292 -0.000183323 0)
(0.998364 -0.000175366 0)
(0.998432 -0.000167742 0)
(0.998497 -0.000160432 0)
(0.99856 -0.000153419 0)
(0.99862 -0.000146689 0)
(0.998677 -0.000140228 0)
(0.998731 -0.000134024 0)
(0.998784 -0.000128067 0)
(0.998833 -0.000122347 0)
(0.998881 -0.000116855 0)
(0.998926 -0.000111582 0)
(0.99897 -0.000106521 0)
(0.999011 -0.000101665 0)
(0.999051 -9.70075e-05 0)
(0.999089 -9.25412e-05 0)
(0.999125 -8.82605e-05 0)
(0.999159 -8.41593e-05 0)
(0.999192 -8.02319e-05 0)
(0.999223 -7.64728e-05 0)
(0.999252 -7.28764e-05 0)
(0.999281 -6.94374e-05 0)
(0.999308 -6.61506e-05 0)
(0.999333 -6.30107e-05 0)
(0.999358 -6.00127e-05 0)
(0.999381 -5.71516e-05 0)
(0.999403 -5.44226e-05 0)
(0.999425 -5.18207e-05 0)
(0.999445 -4.93413e-05 0)
(0.999464 -4.69799e-05 0)
(0.999482 -4.4732e-05 0)
(0.999499 -4.2593e-05 0)
(0.999516 -4.05589e-05 0)
(0.999532 -3.86255e-05 0)
(0.999547 -3.67887e-05 0)
(0.999561 -3.50445e-05 0)
(0.999575 -3.33892e-05 0)
(0.999587 -3.18191e-05 0)
(0.9996 -3.03305e-05 0)
(0.999612 -2.89201e-05 0)
(0.999623 -2.75843e-05 0)
(0.999634 -2.632e-05 0)
(0.999644 -2.5124e-05 0)
(0.999654 -2.39932e-05 0)
(0.999663 -2.29245e-05 0)
(0.999672 -2.19153e-05 0)
(0.99968 -2.09626e-05 0)
(0.999688 -2.00639e-05 0)
(0.999696 -1.92164e-05 0)
(0.999704 -1.84177e-05 0)
(0.999711 -1.76654e-05 0)
(0.999718 -1.69571e-05 0)
(0.999724 -1.62905e-05 0)
(0.999731 -1.56635e-05 0)
(0.999737 -1.5074e-05 0)
(0.999743 -1.45199e-05 0)
(0.999748 -1.39992e-05 0)
(0.999754 -1.35101e-05 0)
(0.999759 -1.30508e-05 0)
(0.999764 -1.26194e-05 0)
(0.999769 -1.22143e-05 0)
(0.999774 -1.18339e-05 0)
(0.999779 -1.14765e-05 0)
(0.999783 -1.11407e-05 0)
(0.999787 -1.08249e-05 0)
(0.999792 -1.05277e-05 0)
(0.999796 -1.02479e-05 0)
(0.9998 -9.98394e-06 0)
(0.999804 -9.73469e-06 0)
(0.999808 -9.4989e-06 0)
(0.999811 -9.27537e-06 0)
(0.999815 -9.06296e-06 0)
(0.999819 -8.86057e-06 0)
(0.999822 -8.66717e-06 0)
(0.999826 -8.48173e-06 0)
(0.999829 -8.30329e-06 0)
(0.999832 -8.13095e-06 0)
(0.999835 -7.96382e-06 0)
(0.999839 -7.80111e-06 0)
(0.999842 -7.64203e-06 0)
(0.999845 -7.48588e-06 0)
(0.999848 -7.33201e-06 0)
(0.999851 -7.17983e-06 0)
(0.999853 -7.0288e-06 0)
(0.999856 -6.87846e-06 0)
(0.999859 -6.72842e-06 0)
(0.999862 -6.57835e-06 0)
(0.999864 -6.428e-06 0)
(0.999867 -6.27722e-06 0)
(0.999869 -6.12591e-06 0)