/*--------------------------------*- C++ -*----------------------------------*\
| =========                 |                                                 |
| \\      /  F ield         | OpenFOAM: The Open Source CFD Toolbox           |
|  \\    /   O peration     | Version:  v2006                                 |
|   \\  /    A nd           | Website:  www.openfoam.com                      |
|    \\/     M anipulation  |                                                 |
\*---------------------------------------------------------------------------*/
FoamFile
{
    version     2.0;
    format      ascii;
    class       volScalarField;
    location    "3.25";
    object      r;
}
// * * * * * * * * * * * * * * * * * * * * * * * * * * * * * * * * * * * * * //

dimensions      [1 2 0 0 0 0 0];


internalField   nonuniform List<scalar> 
350
(
1.8926e-33
5.15632e-33
1.72176e-32
5.83661e-32
1.97173e-31
6.62734e-31
2.21586e-30
7.36937e-30
2.43767e-29
8.01952e-29
2.62376e-28
8.53627e-28
2.76158e-27
8.88286e-27
2.84074e-26
9.03136e-26
2.85424e-25
8.96613e-25
2.79939e-24
8.68619e-24
2.67833e-23
8.20599e-23
2.49798e-22
7.55435e-22
2.26941e-21
6.77168e-21
2.00678e-20
5.90578e-20
1.72577e-19
5.00686e-19
1.44204e-18
4.12253e-18
1.1697e-17
3.29343e-17
9.20099e-17
2.55018e-16
7.01125e-16
1.91182e-15
5.16961e-15
1.386e-14
3.68376e-14
9.70446e-14
2.53354e-13
6.55367e-13
1.67942e-12
4.26258e-12
1.07136e-11
2.66601e-11
6.56688e-11
1.60078e-10
3.86082e-10
9.21093e-10
2.17318e-09
5.06932e-09
1.16882e-08
2.66303e-08
5.99395e-08
1.33239e-07
2.92416e-07
6.33416e-07
1.35381e-06
2.85404e-06
5.93267e-06
1.21556e-05
2.45405e-05
4.87985e-05
9.55393e-05
0.000184095
0.000348989
0.000650602
0.00119227
0.00214688
0.00379693
0.00659272
0.0112337
0.0187769
0.0307748
0.0494379
0.0778134
0.119957
0.181061
0.267503
0.386748
0.547058
0.756981
1.0246
1.35657
1.75711
2.22696
2.76261
3.35595
3.99436
4.6615
5.3385
6.00564
6.64405
7.23739
7.77304
8.24289
8.64343
8.9754
9.24302
9.45294
9.61325
9.7325
9.81894
9.88004
9.92219
9.95056
9.96922
9.98121
9.98874
9.99336
9.99611
9.99767
9.99846
9.9987
9.99846
9.99767
9.99611
9.99336
9.98874
9.98121
9.96922
9.95056
9.92219
9.88004
9.81894
9.7325
9.61325
9.45294
9.24302
8.9754
8.64343
8.24289
7.77304
7.23739
6.64405
6.00564
5.3385
4.6615
3.99436
3.35595
2.76261
2.22696
1.75711
1.35657
1.0246
0.756981
0.547058
0.386748
0.267503
0.181061
0.119957
0.0778134
0.0494379
0.0307748
0.0187769
0.0112337
0.00659272
0.00379693
0.00214688
0.00119227
0.000650602
0.000348989
0.000184095
9.55393e-05
4.87985e-05
2.45405e-05
1.21556e-05
5.93267e-06
2.85404e-06
1.35381e-06
6.33416e-07
2.92416e-07
1.33239e-07
5.99395e-08
2.66303e-08
1.16882e-08
5.06932e-09
2.17318e-09
9.21093e-10
3.86082e-10
1.60078e-10
6.56688e-11
2.66601e-11
1.07136e-11
4.26258e-12
1.67942e-12
6.55367e-13
2.53354e-13
9.70446e-14
3.68376e-14
1.386e-14
5.16961e-15
1.91182e-15
7.01124e-16
2.55018e-16
9.20099e-17
3.29344e-17
1.1697e-17
4.12253e-18
1.44204e-18
5.00686e-19
1.72577e-19
5.90578e-20
2.00678e-20
6.77168e-21
2.26941e-21
7.55435e-22
2.49798e-22
8.20598e-23
2.67833e-23
8.68618e-24
2.7994e-24
8.96612e-25
2.85424e-25
9.03136e-26
2.84074e-26
8.88287e-27
2.76157e-27
8.53628e-28
2.62375e-28
8.01954e-29
2.43767e-29
7.36939e-30
2.21585e-30
6.62734e-31
1.9717e-31
5.8356e-32
1.71823e-32
5.03351e-33
1.46711e-33
4.2549e-34
1.22792e-34
3.52632e-35
1.00782e-35
2.86646e-36
8.11458e-37
2.28626e-37
6.41185e-38
1.78986e-38
4.9738e-39
1.37588e-39
3.78902e-40
1.03885e-40
2.83557e-41
7.70664e-42
2.08529e-42
5.61892e-43
1.50741e-43
4.02751e-44
1.07143e-44
2.83882e-45
7.48985e-46
1.9682e-46
5.1508e-47
1.34258e-47
3.4856e-48
9.01259e-49
2.32165e-49
5.95493e-50
1.52249e-50
3.87341e-51
9.83249e-52
2.48071e-52
6.25482e-53
1.56474e-53
3.91945e-54
9.72503e-55
2.41883e-55
5.9598e-56
1.46947e-56
3.60445e-57
8.78377e-58
2.15279e-58
5.16595e-59
1.26952e-59
2.99276e-60
7.37932e-61
1.71298e-61
4.21308e-62
9.73256e-63
2.35181e-63
5.51406e-64
1.27928e-64
3.11715e-65
6.79444e-66
1.7454e-66
3.56796e-67
9.51805e-68
1.90037e-68
4.93402e-69
1.05592e-69
2.36819e-70
6.15012e-71
1.03438e-71
3.62265e-72
4.22951e-73
2.02179e-73
1.91295e-74
9.84018e-75
1.23051e-75
3.62919e-76
1.01996e-76
5.35869e-78
8.20535e-78
-5.24879e-79
5.58891e-79
-5.48191e-80
3.00752e-80
-2.4362e-81
1.10432e-81
2.06464e-83
6.03948e-84
1.39066e-83
-3.08939e-84
1.42247e-84
-3.07863e-85
9.50879e-86
-1.83563e-86
4.52886e-87
-6.8979e-88
1.26463e-88
-4.29186e-90
-2.12699e-90
1.8026e-90
-5.64107e-91
1.79505e-91
-4.40754e-92
1.10012e-92
-2.29659e-93
4.75417e-94
-7.93336e-95
1.18135e-95
-6.91031e-97
-2.30871e-97
1.49652e-97
-4.9937e-98
1.4538e-98
-3.62321e-99
8.49635e-100
-1.78623e-100
3.50347e-101
-5.93341e-102
8.34547e-103
-5.70672e-104
-1.50938e-104
9.16236e-105
-2.27623e-105
)
;

boundaryField
{
    right
    {
        type            zeroGradient;
    }
    left
    {
        type            inletOutlet;
        inletValue      uniform 0;
        value           uniform 1.8926e-33;
    }
    top
    {
        type            zeroGradient;
    }
    bottom
    {
        type            zeroGradient;
    }
    empty
    {
        type            empty;
    }
}


// ************************************************************************* //
