/*--------------------------------*- C++ -*----------------------------------*\
| =========                 |                                                 |
| \\      /  F ield         | OpenFOAM: The Open Source CFD Toolbox           |
|  \\    /   O peration     | Version:  v2006                                 |
|   \\  /    A nd           | Website:  www.openfoam.com                      |
|    \\/     M anipulation  |                                                 |
\*---------------------------------------------------------------------------*/
FoamFile
{
    version     2.0;
    format      ascii;
    class       surfaceScalarField;
    location    "3.6";
    object      alphaPhi0.water;
}
// * * * * * * * * * * * * * * * * * * * * * * * * * * * * * * * * * * * * * //

dimensions      [0 3 -1 0 0 0 0];
oriented        oriented;


internalField   nonuniform List<scalar> 
299200
(
-0.000946299
0.000946299
-0.00136277
0.000416474
-0.00177192
0.000409147
-0.00229242
0.000520499
-0.0028926
0.000600182
-0.00352585
0.000633248
-0.00416354
0.00063769
-0.00479913
0.000635589
-0.00543247
0.00063334
-0.00606419
0.000631718
-0.00669466
0.000630479
-0.00732393
0.000629263
-0.0079515
0.000627575
-0.00857676
0.000625253
-0.00919907
0.000622316
-0.00981779
0.000618722
-0.0104324
0.000614595
-0.0110422
0.000609855
-0.0116469
0.000604653
-0.0122458
0.000598855
-0.0128383
0.000592516
-0.0134238
0.000585567
-0.0140021
0.000578271
-0.0145727
0.000570632
-0.0151351
0.000562347
-0.0156886
0.000553561
-0.0162329
0.00054428
-0.0167676
0.000534633
-0.0172922
0.000524605
-0.0178063
0.000514169
-0.0183095
0.000503193
-0.0188015
0.000491981
-0.019282
0.000480459
-0.0197505
0.000468523
-0.0202068
0.000456308
-0.0206507
0.000443879
-0.0210819
0.000431182
-0.0215001
0.000418227
-0.0219052
0.000405104
-0.0222969
0.000391726
-0.0226751
0.000378185
-0.0230396
0.000364528
-0.0233904
0.000350723
-0.0237272
0.000336813
-0.0240499
0.000322743
-0.0243584
0.000308508
-0.0246527
0.000294274
-0.0249327
0.000279963
-0.025198
0.00026536
-0.0254486
0.000250616
-0.0256844
0.000235785
-0.0259055
0.000221048
-0.026112
0.000206569
-0.0263042
0.000192163
-0.0264814
0.000177218
-0.0266422
0.000160819
-0.0267842
0.000141946
-0.0269037
0.000119518
-0.0269972
9.3545e-05
-0.0270624
6.51313e-05
-0.0270985
3.60968e-05
-0.0271069
8.44791e-06
-0.0270914
-1.54982e-05
-0.0270555
-3.58833e-05
-0.0270018
-5.37564e-05
-0.0269316
-7.01776e-05
-0.0268457
-8.58864e-05
-0.026745
-0.000100752
-0.0266324
-0.00011253
-0.0265156
-0.000116803
-0.0264067
-0.000108894
-0.0263189
-8.78517e-05
-0.0262593
-5.95685e-05
-0.0262235
-3.5856e-05
-0.0261964
-2.70322e-05
-0.0261616
-3.48146e-05
-0.0261093
-5.23495e-05
-0.0260379
-7.13478e-05
-0.0259502
-8.77112e-05
-0.0258485
-0.000101743
-0.0257333
-0.000115209
-0.0256041
-0.000129107
-0.0254606
-0.000143591
-0.025302
-0.000158508
-0.0251286
-0.000173415
-0.0249403
-0.000188287
-0.0247372
-0.000203093
-0.0245194
-0.000217844
-0.0242868
-0.0002326
-0.0240396
-0.000247185
-0.023778
-0.000261582
-0.0235021
-0.000275927
-0.0232122
-0.000289957
-0.0229083
-0.000303846
-0.0225908
-0.000317472
-0.02226
-0.000330825
-0.0219164
-0.000343651
-0.0215602
-0.000356164
-0.0211919
-0.000368331
-0.0208119
-0.000379952
-0.0204212
-0.000390671
-0.02002
-0.0004012
-0.019609
-0.000411092
-0.0191886
-0.000420306
-0.0187603
-0.000428305
-0.0183242
-0.000436098
-0.0178814
-0.000442889
-0.0174325
-0.000448869
-0.0169785
-0.00045399
-0.0165202
-0.000458307
-0.016059
-0.000461167
-0.0155955
-0.000463528
-0.0151306
-0.000464849
-0.0146656
-0.00046508
-0.0142013
-0.000464256
-0.0137389
-0.000462374
-0.0132795
-0.000459446
-0.0128241
-0.000455394
-0.0123738
-0.000450258
-0.0119299
-0.000443979
-0.0114932
-0.000436621
-0.0110651
-0.000428145
-0.0106465
-0.000418559
-0.0102387
-0.000407844
-0.00984268
-0.000396009
-0.00945961
-0.000383072
-0.00909055
-0.000369063
-0.00873665
-0.000353895
-0.008399
-0.000337646
-0.00807868
-0.000320327
-0.00777675
-0.000301932
-0.00749426
-0.000282482
-0.00723225
-0.000262011
-0.00699172
-0.000240537
-0.00677361
-0.000218109
-0.00657883
-0.000194773
-0.00640824
-0.000170597
-0.00626252
-0.000145717
-0.00614226
-0.000120265
-0.00604782
-9.44307e-05
-0.00597938
-6.84402e-05
-0.00593685
-4.2539e-05
-0.00592037
-1.6474e-05
-0.00593001
9.64291e-06
-0.00596541
3.53913e-05
-0.00602732
6.1916e-05
-0.00611539
8.80686e-05
-0.00622906
0.000113672
-0.00636773
0.000138668
-0.0065307
0.000162971
-0.00671733
0.000186624
-0.00692677
0.000209444
-0.00715825
0.000231483
-0.00741137
0.000253121
-0.00768564
0.000274271
-0.00797954
0.0002939
-0.00829326
0.000313715
-0.00862634
0.000333085
-0.0089774
0.000351057
-0.00934653
0.000369129
-0.00973323
0.000386704
-0.0101371
0.000403826
-0.0105576
0.000420559
-0.0109941
0.000436511
-0.0114467
0.000452582
-0.011915
0.000468279
-0.012399
0.00048404
-0.0128983
0.000499309
-0.0134119
0.000513531
-0.0139393
0.000527465
-0.0144802
0.000540862
-0.0150339
0.0005537
-0.0156003
0.000566369
-0.0161788
0.00057857
-0.0167693
0.000590423
-0.0173711
0.000601887
-0.0179842
0.000613009
-0.018608
0.000623799
-0.0192422
0.000634266
-0.0198866
0.000644426
-0.020541
0.000654313
-0.0212049
0.000663948
-0.0218783
0.000673396
-0.0225612
0.000682848
-0.0232537
0.000692568
-0.0239563
0.000702615
-0.0246689
0.000712536
-0.0253903
0.000721475
-0.0261191
0.000728716
-0.0268532
0.000734111
-0.0275912
0.000737975
-0.0283319
0.000740703
-0.0290744
0.000742545
-0.029818
0.000743608
-0.0305619
0.000743936
-0.0313055
0.00074356
-0.032048
0.000742504
-0.0327888
0.000740794
-0.0335272
0.000738448
-0.0342627
0.000735483
-0.0349946
0.000731916
-0.0357224
0.000727769
-0.0364455
0.000723065
-0.0371633
0.000717826
-0.0378754
0.000712073
-0.0385812
0.000705828
-0.0392803
0.00069912
-0.0399723
0.00069199
-0.0406568
0.00068449
-0.0413335
0.000676668
-0.042002
0.000668531
-0.042662
0.000659996
-0.0433129
0.000650881
-0.0439538
0.000640935
-0.0445838
0.000629969
-0.0452018
0.000618061
-0.0458076
0.00060579
-0.046402
0.000594367
-0.0469875
0.000585539
-0.0475687
0.000581144
-0.0481511
0.00058243
-0.0487406
0.000589437
-0.0493413
0.000600791
-0.0499554
0.000614033
-0.0505817
0.000626345
-0.0512171
0.000635335
-0.0518566
0.000639562
-0.0524953
0.00063865
-0.0531283
0.000633061
-0.053752
0.00062371
-0.0543637
0.000611624
-0.0549613
0.000597659
-0.0555438
0.000582497
-0.0561105
0.000566641
-0.0566609
0.000550429
-0.057195
0.000534076
-0.0577127
0.000517719
-0.0582141
0.000501454
-0.0586995
0.000485351
-0.059169
0.000469463
-0.0596228
0.000453831
-0.0600613
0.000438487
-0.0604847
0.000423457
-0.0608935
0.000408757
-0.0612879
0.000394402
-0.0616683
0.000380398
-0.062035
0.000366753
-0.0623885
0.000353467
-0.0627291
0.000340545
-0.063057
0.000327984
-0.0633728
0.000315785
-0.0636768
0.000303941
-0.0639692
0.000292449
-0.0642505
0.000281301
-0.064521
0.000270492
-0.064781
0.000260017
-0.0650309
0.000249872
-0.0652709
0.000240051
-0.0655015
0.00023055
-0.0657229
0.000221362
-0.0659353
0.000212482
-0.0661392
0.000203903
-0.0663349
0.000195621
-0.0665225
0.000187632
-0.0667024
0.000179931
-0.0668749
0.000172517
-0.0670403
0.000165386
-0.0671989
0.00015854
-0.0673508
0.000151977
-0.0674965
0.000145698
-0.0676362
0.0001397
-0.0677702
0.000133981
-0.0678988
0.00012854
-0.0680221
0.000123364
-0.0681407
0.000118548
-0.068255
0.000114304
-0.0683647
0.000109693
-0.0684702
0.000105493
-0.0685718
0.000101649
-0.0686699
9.8113e-05
-0.0687648
9.48775e-05
-0.0688568
9.19546e-05
-0.0689461
8.93597e-05
-0.0690332
8.71067e-05
-0.0691184
8.52066e-05
-0.0692021
8.36626e-05
-0.0692846
8.24716e-05
-0.0693662
8.16265e-05
-0.0694473
8.11211e-05
-0.0695283
8.09374e-05
-0.0696092
8.09939e-05
-0.0696903
8.10501e-05
-0.0697709
8.06378e-05
-0.0698502
7.92218e-05
-0.069927
7.68524e-05
-0.0700022
7.52171e-05
-0.07008
7.7779e-05
-0.0701671
8.70557e-05
-0.0702653
9.82894e-05
-0.0703534
8.80475e-05
-0.0703741
2.07275e-05
-0.0702893
-8.48091e-05
-0.0701148
-0.00017455
-0.0698971
-0.000217706
-0.0696686
-0.000228506
-0.0694393
-0.000229209
-0.0692089
-0.000230406
-0.0689757
-0.000233215
-0.0687395
-0.000236217
-0.0685008
-0.00023872
-0.06826
-0.000240738
-0.0680177
-0.000242392
-0.0677739
-0.000243711
-0.0675293
-0.00024468
-0.067284
-0.000245293
-0.0670384
-0.000245553
-0.0667929
-0.00024547
-0.0665479
-0.000245053
-0.0663036
-0.000244315
-0.0660603
-0.00024327
-0.0658184
-0.00024193
-0.0655781
-0.000240312
-0.0653396
-0.000238433
-0.0651033
-0.00023631
-0.0648694
-0.00023396
-0.064638
-0.000231402
-0.0644093
-0.00022865
-0.0641836
-0.000225723
-0.063961
-0.000222636
-0.0637415
-0.000219406
-0.0635255
-0.000216052
-0.0633129
-0.000212591
-0.0631039
-0.000209039
-0.0628985
-0.000205412
-0.0626967
-0.000201727
-0.0624987
-0.000197999
-0.0623045
-0.000194242
-0.062114
-0.000190472
-0.0619273
-0.000186703
-0.0617444
-0.000182949
-0.0615651
-0.000179222
-0.0613896
-0.000175536
-0.0612177
-0.000171901
-0.0610494
-0.000168331
-0.0608845
-0.000164837
-0.0607231
-0.00016143
-0.060565
-0.000158121
-0.0604101
-0.000154922
-0.0602582
-0.000151843
-0.0601093
-0.000148894
-0.0599632
-0.000146084
-0.0598198
-0.000143424
-0.0596789
-0.000140923
-0.0595403
-0.000138592
-0.0594039
-0.00013644
-0.0592694
-0.000134477
-0.0591367
-0.000132712
-0.0590055
-0.000131156
-0.0588757
-0.000129819
-0.058747
-0.000128712
-0.0586191
-0.000127843
-0.0584919
-0.000127223
-0.0583651
-0.00012686
-0.0582383
-0.000126761
-0.0581114
-0.000126937
-0.057984
-0.000127396
-0.0578558
-0.000128147
-0.0577266
-0.000129201
-0.0575961
-0.000130563
-0.0574638
-0.000132241
-0.0573296
-0.000134238
-0.057193
-0.000136557
-0.0570538
-0.000139197
-0.0569117
-0.000142161
-0.0567662
-0.000145452
-0.0566171
-0.000149071
-0.0564641
-0.000153021
-0.0563068
-0.000157302
-0.0561449
-0.00016191
-0.0559781
-0.00016684
-0.055806
-0.000172083
-0.0556284
-0.00017763
-0.0554449
-0.000183475
-0.0552553
-0.00018961
-0.0550592
-0.000196027
-0.0548565
-0.000202714
-0.0546469
-0.000209656
-0.05443
-0.000216836
-0.0542058
-0.000224238
-0.0539739
-0.000231849
-0.0537343
-0.00023966
-0.0534866
-0.000247656
-0.0532308
-0.000255812
-0.0529667
-0.000264101
-0.0526942
-0.000272496
-0.0524132
-0.000280978
-0.0521237
-0.000289542
-0.0518255
-0.000298177
-0.0515187
-0.000306861
-0.0512031
-0.00031556
-0.0508789
-0.000324245
-0.050546
-0.000332895
-0.0502045
-0.000341502
-0.0498544
-0.000350058
-0.0494959
-0.000358538
-0.049129
-0.000366913
-0.0487538
-0.000375158
-0.0483705
-0.000383259
-0.0479793
-0.000391205
-0.0475804
-0.00039898
-0.0471738
-0.000406567
-0.0467598
-0.000413949
-0.0463387
-0.000421112
-0.0459107
-0.000428044
-0.0454759
-0.000434732
-0.0450348
-0.000441167
-0.0445874
-0.000447341
-0.0441342
-0.000453243
-0.0436753
-0.000458866
-0.0432111
-0.000464204
-0.0427419
-0.000469252
-0.0422679
-0.000474006
-0.0417894
-0.000478459
-0.0413068
-0.00048261
-0.0408203
-0.000486466
-0.0403303
-0.000490032
-0.039837
-0.000493312
-0.0393407
-0.000496318
-0.0388416
-0.000499068
-0.03834
-0.000501585
-0.0378361
-0.000503896
-0.0373301
-0.000506034
-0.0368221
-0.000508022
-0.0363122
-0.000509878
-0.0358006
-0.000511606
-0.0352874
-0.00051321
-0.0347727
-0.000514685
-0.0342567
-0.00051603
-0.0337394
-0.00051725
-0.0332211
-0.000518352
-0.0327017
-0.000519339
-0.0321815
-0.000520218
-0.0316605
-0.000520996
-0.0311388
-0.000521686
-0.0306165
-0.000522302
-0.0300937
-0.000522862
-0.0295703
-0.000523381
-0.0290464
-0.000523869
-0.0285221
-0.000524335
-0.0279973
-0.000524793
-0.027472
-0.000525252
-0.0269463
-0.000525722
-0.0264201
-0.000526218
-0.0258933
-0.000526759
-0.025366
-0.00052735
-0.024838
-0.000528001
-0.0243092
-0.000528736
-0.0237797
-0.00052957
-0.0232492
-0.000530512
-0.0227176
-0.000531587
-0.0221847
-0.000532866
-0.0216503
-0.000534418
-0.021114
-0.000536261
-0.0205757
-0.000538338
-0.0200352
-0.000540498
-0.0194926
-0.000542617
-0.018948
-0.000544616
-0.0184014
-0.00054652
-0.017853
-0.000548392
-0.0173028
-0.000550279
-0.0167506
-0.000552194
-0.0161965
-0.00055411
-0.0156404
-0.000556018
-0.0150825
-0.000557917
-0.0145227
-0.000559812
-0.013961
-0.000561717
-0.0133974
-0.000563642
-0.0128318
-0.000565566
-0.0122643
-0.000567456
-0.011695
-0.000569291
-0.0111239
-0.000571161
-0.0105508
-0.000573047
-0.00997615
-0.000574687
-0.00939945
-0.000576698
-0.00882109
-0.00057836
-0.00824172
-0.000579365
-0.00765895
-0.000582777
-0.00707579
-0.000583153
-0.00649159
-0.0005842
-0.00590106
-0.000590528
-0.00532486
-0.000576203
-0.0047298
-0.00059506
-0.00415884
-0.000570961
-0.00357382
-0.00058502
-0.00296908
-0.000604735
-0.00237427
-0.000594816
-0.00171386
-0.000660406
-0.000970995
-0.000742868
-0.000539509
-0.000431486
-0.000539509
-0.00097178
0.00191808
-0.00145121
0.000895908
-0.00192627
0.000884203
-0.00252942
0.00112365
-0.00321135
0.0012821
-0.00392113
0.00134303
-0.00463376
0.00135032
-0.00534163
0.00134346
-0.00604592
0.00133763
-0.00674842
0.00133423
-0.00744965
0.00133171
-0.008149
0.00132861
-0.00884548
0.00132406
-0.00953809
0.00131786
-0.010226
0.0013102
-0.0109081
0.00130085
-0.0115837
0.00129018
-0.0122522
0.0012784
-0.0129127
0.00126514
-0.0135644
0.00125058
-0.0142067
0.00123474
-0.0148388
0.00121766
-0.01546
0.00119954
-0.0160697
0.00118034
-0.0166673
0.00115994
-0.0172523
0.00113855
-0.0178241
0.00111605
-0.0183821
0.00109264
-0.0189258
0.00106826
-0.0194546
0.001043
-0.0199683
0.00101691
-0.0204664
0.000990068
-0.0209483
0.000962384
-0.0214138
0.000933997
-0.0218625
0.000904996
-0.0222941
0.000875473
-0.0227082
0.000845279
-0.0231045
0.000814517
-0.0234828
0.000783449
-0.0238429
0.000751876
-0.0241846
0.000719865
-0.0245077
0.000687573
-0.0248119
0.000654992
-0.0250973
0.000622121
-0.0253635
0.000588994
-0.0256106
0.000555634
-0.0258384
0.000522078
-0.0260468
0.000488306
-0.0262357
0.000454276
-0.0264051
0.000420029
-0.0265549
0.000385629
-0.026685
0.000351074
-0.0267947
0.000316335
-0.026884
0.000281436
-0.0269531
0.000246336
-0.0270032
0.000210893
-0.0270363
0.000175044
-0.0270558
0.000138993
-0.0270651
0.000102859
-0.0270669
6.69482e-05
-0.0270623
3.14877e-05
-0.0270503
-3.55266e-06
-0.0270277
-3.8109e-05
-0.0269913
-7.22829e-05
-0.0269392
-0.000105805
-0.0268709
-0.000138565
-0.0267863
-0.000170441
-0.0266857
-0.000201313
-0.0265671
-0.000231121
-0.0264248
-0.000259171
-0.0262486
-0.000285121
-0.0260277
-0.000308682
-0.0257568
-0.000330482
-0.0254407
-0.000351944
-0.025093
-0.000374712
-0.024729
-0.0003989
-0.024358
-0.000423345
-0.0239826
-0.00044669
-0.0236017
-0.000468612
-0.0232138
-0.000489637
-0.0228189
-0.00051017
-0.0224176
-0.000530344
-0.022011
-0.00055018
-0.0216
-0.000569564
-0.021185
-0.000588377
-0.0207666
-0.000606661
-0.0203451
-0.000624598
-0.0199209
-0.000642038
-0.0194944
-0.000659101
-0.0190659
-0.000675723
-0.0186356
-0.000691854
-0.0182039
-0.000707692
-0.0177708
-0.000723011
-0.0173367
-0.000737917
-0.0169019
-0.000752347
-0.0164662
-0.000766461
-0.0160301
-0.000779824
-0.0155936
-0.000792662
-0.015157
-0.000804942
-0.0147205
-0.000816446
-0.0142841
-0.000827072
-0.0138481
-0.00083711
-0.0134129
-0.000846313
-0.0129788
-0.000854397
-0.0125457
-0.000861439
-0.0121143
-0.000867488
-0.0116848
-0.000872355
-0.0112576
-0.000876088
-0.0108332
-0.000878447
-0.0104121
-0.000879361
-0.00999449
-0.000878795
-0.00958119
-0.000876825
-0.00917283
-0.000873208
-0.00876989
-0.000868024
-0.00837301
-0.000861129
-0.00798288
-0.000852503
-0.00760015
-0.000842179
-0.00722558
-0.000829969
-0.00685986
-0.000815973
-0.00650375
-0.000800094
-0.006158
-0.000782369
-0.00582335
-0.00076279
-0.00550057
-0.000741338
-0.00519039
-0.000718031
-0.00489351
-0.000692885
-0.00461068
-0.000665903
-0.00434267
-0.000637076
-0.00409001
-0.000606554
-0.00385337
-0.000574288
-0.00363336
-0.000540328
-0.00343057
-0.000504722
-0.00324554
-0.000467516
-0.00307878
-0.000428766
-0.0029308
-0.000388526
-0.00280205
-0.000346852
-0.00269301
-0.00030381
-0.00260414
-0.000259473
-0.00253596
-0.000213892
-0.00248907
-0.00016716
-0.00246413
-0.000119372
-0.00246189
-7.06783e-05
-0.00248253
-2.18937e-05
-0.00252815
2.91434e-05
-0.0025985
7.99923e-05
-0.00269336
0.000130247
-0.00281244
0.000180997
-0.00295624
0.000231873
-0.00312526
0.00028269
-0.00331996
0.000333365
-0.00354068
0.000383691
-0.00378769
0.000433635
-0.00406126
0.000483018
-0.00436158
0.000531799
-0.00468849
0.000580039
-0.00504185
0.000627629
-0.00542201
0.000674057
-0.00582877
0.000720473
-0.00626143
0.000765751
-0.00672012
0.000809746
-0.00720433
0.000853335
-0.00771361
0.000895982
-0.00824749
0.00093771
-0.0088054
0.000978467
-0.00938692
0.00101804
-0.00999136
0.00105702
-0.0106179
0.00109486
-0.0112653
0.0011314
-0.0119329
0.00116687
-0.0126201
0.00120081
-0.0133264
0.00123373
-0.0140507
0.00126517
-0.0147923
0.00129525
-0.0155499
0.00132405
-0.0163229
0.00135154
-0.0171102
0.00137771
-0.0179108
0.00140249
-0.0187237
0.00142591
-0.0195479
0.00144797
-0.0203823
0.00146866
-0.0212258
0.00148798
-0.0220775
0.00150596
-0.0229361
0.00152261
-0.0238007
0.00153799
-0.0246701
0.00155222
-0.0255429
0.00156535
-0.0264176
0.0015773
-0.0272928
0.00158776
-0.0281677
0.00159637
-0.029042
0.00160299
-0.0299156
0.00160772
-0.0307884
0.00161081
-0.0316601
0.00161241
-0.0325302
0.0016126
-0.033398
0.00161143
-0.034263
0.00160891
-0.0351245
0.00160511
-0.0359821
0.00160005
-0.036835
0.00159378
-0.0376829
0.00158635
-0.0385252
0.00157778
-0.0393615
0.00156813
-0.0401911
0.00155743
-0.0410138
0.00154573
-0.041829
0.00153308
-0.0426365
0.00151952
-0.0434357
0.0015051
-0.0442265
0.00148987
-0.0450084
0.00147389
-0.0457811
0.00145723
-0.0465444
0.00143992
-0.0472979
0.00142203
-0.0480415
0.0014036
-0.0487754
0.00138476
-0.0495002
0.00136574
-0.0502172
0.00134701
-0.0509284
0.0013293
-0.0516361
0.00131345
-0.0523419
0.00130016
-0.053046
0.00128963
-0.0537461
0.00128128
-0.0544375
0.00127378
-0.0551134
0.00126539
-0.0557671
0.00125445
-0.0563929
0.00123989
-0.0569879
0.00122135
-0.0575518
0.00119916
-0.0580862
0.00117403
-0.0585943
0.00114674
-0.0590792
0.00111796
-0.0595437
0.00108818
-0.0599898
0.00105776
-0.0604191
0.00102694
-0.0608325
0.00099592
-0.0612308
0.000964885
-0.0616143
0.00093399
-0.0619836
0.000903355
-0.062339
0.000873061
-0.0626807
0.000843165
-0.063009
0.000813699
-0.0633242
0.000784683
-0.0636265
0.000756125
-0.0639161
0.000728028
-0.064193
0.00070039
-0.0644575
0.000673206
-0.0647095
0.000646468
-0.0649493
0.000620169
-0.0651768
0.000594297
-0.0653922
0.000568839
-0.0655955
0.000543783
-0.0657866
0.000519116
-0.0659656
0.000494827
-0.0661326
0.000470907
-0.0662875
0.000447348
-0.0664303
0.000424141
-0.0665611
0.000401279
-0.0666799
0.000378754
-0.0667865
0.000356561
-0.0668812
0.000334695
-0.0669638
0.000313154
-0.0670344
0.000291937
-0.0670929
0.000271042
-0.0671395
0.00025047
-0.0671741
0.000230218
-0.0671967
0.000210284
-0.0672075
0.000190668
-0.0672063
0.000171365
-0.0671933
0.000152373
-0.0671685
0.000133692
-0.0671318
0.000115321
-0.0670834
9.72653e-05
-0.0670232
7.95292e-05
-0.0669513
6.21137e-05
-0.0668678
4.50119e-05
-0.0667727
2.82292e-05
-0.0666662
1.20967e-05
-0.0665499
-1.99187e-06
-0.0664221
-1.81642e-05
-0.0662833
-3.33269e-05
-0.0661337
-4.78927e-05
-0.0659735
-6.20581e-05
-0.0658027
-7.59298e-05
-0.0656212
-8.96145e-05
-0.0654286
-0.000103224
-0.0652246
-0.000116867
-0.0650087
-0.000130668
-0.0647803
-0.000144748
-0.0645386
-0.000159233
-0.0642828
-0.000174238
-0.0640118
-0.000189849
-0.0637248
-0.000206091
-0.0634209
-0.000222895
-0.0630997
-0.000240068
-0.0627618
-0.000257309
-0.0624082
-0.000274351
-0.06204
-0.000291353
-0.0616551
-0.000309653
-0.0612447
-0.000332654
-0.0607919
-0.000365806
-0.0602797
-0.000413906
-0.0597176
-0.000473991
-0.0591696
-0.000527258
-0.058705
-0.000549439
-0.0583406
-0.000538916
-0.0580481
-0.000510282
-0.0577955
-0.00048105
-0.0575637
-0.000461072
-0.0573435
-0.000450563
-0.057131
-0.00044572
-0.0569238
-0.000443387
-0.0567205
-0.000442057
-0.0565201
-0.000441095
-0.0563224
-0.000440131
-0.0561272
-0.000438929
-0.0559345
-0.000437374
-0.0557444
-0.000435418
-0.0555569
-0.000433045
-0.0553721
-0.000430248
-0.0551901
-0.000427032
-0.055011
-0.000423406
-0.0548349
-0.000419386
-0.0546618
-0.000414989
-0.0544919
-0.000410237
-0.0543252
-0.000405153
-0.0541617
-0.000399764
-0.0540016
-0.000394095
-0.0538448
-0.000388173
-0.0536915
-0.000382024
-0.0535415
-0.000375675
-0.053395
-0.000369155
-0.0532519
-0.00036249
-0.0531122
-0.00035571
-0.052976
-0.000348843
-0.0528431
-0.000341916
-0.0527136
-0.000334956
-0.0525873
-0.000327987
-0.0524643
-0.000321034
-0.0523444
-0.000314121
-0.0522276
-0.000307273
-0.0521138
-0.000300511
-0.0520029
-0.000293857
-0.0518948
-0.000287334
-0.0517893
-0.00028096
-0.0516865
-0.000274754
-0.0515861
-0.000268736
-0.051488
-0.000262924
-0.0513921
-0.000257334
-0.0512982
-0.000251985
-0.0512063
-0.000246892
-0.051116
-0.000242072
-0.0510274
-0.00023754
-0.0509402
-0.000233311
-0.0508542
-0.000229398
-0.0507693
-0.000225817
-0.0506853
-0.000222582
-0.050602
-0.000219708
-0.0505193
-0.000217211
-0.0504369
-0.000215106
-0.0503547
-0.00021341
-0.0502723
-0.000212138
-0.0501897
-0.000211307
-0.0501067
-0.000210932
-0.0500228
-0.000211029
-0.0499381
-0.000211612
-0.0498522
-0.000212695
-0.0497648
-0.000214294
-0.0496758
-0.000216424
-0.0495848
-0.0002191
-0.0494917
-0.000222335
-0.0493961
-0.000226144
-0.0492978
-0.000230535
-0.0491965
-0.000235516
-0.049092
-0.000241092
-0.0489839
-0.000247268
-0.048872
-0.000254046
-0.0487561
-0.000261433
-0.0486357
-0.000269435
-0.0485107
-0.000278053
-0.0483807
-0.000287281
-0.0482455
-0.00029711
-0.0481048
-0.000307528
-0.0479584
-0.000318528
-0.0478059
-0.000330099
-0.0476471
-0.000342227
-0.0474818
-0.000354897
-0.0473098
-0.000368091
-0.0471307
-0.00038179
-0.0469444
-0.000395968
-0.0467506
-0.000410599
-0.0465492
-0.00042565
-0.04634
-0.000441097
-0.0461227
-0.000456915
-0.0458973
-0.000473075
-0.0456636
-0.000489543
-0.0454214
-0.000506278
-0.0451706
-0.00052324
-0.0449112
-0.000540394
-0.0446431
-0.000557709
-0.0443661
-0.000575154
-0.0440803
-0.000592691
-0.0437855
-0.000610268
-0.043482
-0.000627838
-0.0431695
-0.000645367
-0.0428481
-0.000662837
-0.042518
-0.000680221
-0.0421791
-0.000697469
-0.0418314
-0.000714529
-0.0414752
-0.000731361
-0.0411105
-0.000747944
-0.0407375
-0.000764252
-0.0403562
-0.000780253
-0.0399669
-0.000795908
-0.0395696
-0.000811191
-0.0391647
-0.000826073
-0.0387522
-0.000840524
-0.0383324
-0.000854528
-0.0379055
-0.000868064
-0.0374717
-0.00088111
-0.0370313
-0.000893648
-0.0365845
-0.000905661
-0.0361316
-0.000917133
-0.0356728
-0.000928055
-0.0352084
-0.000938416
-0.0347387
-0.000948205
-0.0342638
-0.00095742
-0.0337843
-0.000966058
-0.0333002
-0.000974122
-0.0328119
-0.000981619
-0.0323196
-0.00098856
-0.0318237
-0.000994961
-0.0313245
-0.00100084
-0.0308221
-0.00100623
-0.030317
-0.00101114
-0.0298094
-0.0010156
-0.0292997
-0.00101961
-0.0287881
-0.00102319
-0.028275
-0.00102636
-0.0277605
-0.00102911
-0.0272451
-0.00103147
-0.0267289
-0.00103346
-0.0262121
-0.00103512
-0.025695
-0.00103647
-0.0251777
-0.0010375
-0.0246605
-0.00103825
-0.0241434
-0.0010387
-0.0236268
-0.00103891
-0.0231108
-0.00103887
-0.0225956
-0.00103862
-0.0220813
-0.00103818
-0.021568
-0.00103757
-0.021056
-0.0010368
-0.0205454
-0.00103589
-0.0200363
-0.00103486
-0.0195288
-0.00103372
-0.019023
-0.0010325
-0.0185191
-0.00103123
-0.0180172
-0.00102993
-0.0175174
-0.0010286
-0.0170196
-0.00102729
-0.0165242
-0.001026
-0.0160309
-0.00102479
-0.0155401
-0.00102369
-0.0150518
-0.00102275
-0.0145661
-0.00102198
-0.0140832
-0.00102125
-0.0136033
-0.0010204
-0.0131267
-0.00101921
-0.0126538
-0.0010175
-0.012185
-0.00101529
-0.0117207
-0.00101272
-0.011261
-0.00100996
-0.0108061
-0.00100706
-0.0103563
-0.00100397
-0.00991165
-0.00100064
-0.00947236
-0.000997213
-0.0090385
-0.000993668
-0.00861018
-0.000990035
-0.00818753
-0.000986302
-0.00777062
-0.000982472
-0.00735956
-0.000978515
-0.00695441
-0.000974445
-0.00655527
-0.000970298
-0.0061623
-0.000966019
-0.00577526
-0.000961725
-0.00539435
-0.000957604
-0.00501964
-0.000953072
-0.00465013
-0.000948876
-0.0042876
-0.000945311
-0.00393023
-0.000940521
-0.00357858
-0.000935852
-0.00323262
-0.000936484
-0.0028897
-0.000919122
-0.0025476
-0.00093716
-0.00221259
-0.000905973
-0.0018634
-0.000934211
-0.00154985
-0.000918283
-0.00121748
-0.00092719
-0.000947761
-0.000930122
-0.00074781
-0.000942819
-0.000346529
-0.000832767
-0.000886038
-0.000953642
0.00287172
-0.00140721
0.00134948
-0.00184783
0.00132482
-0.00241191
0.00168774
-0.00306013
0.00193033
-0.00374084
0.00202373
-0.00442531
0.00203479
-0.00510483
0.00202298
-0.0057804
0.0020132
-0.00645412
0.00200794
-0.00712664
0.00200423
-0.00779758
0.00199955
-0.00846608
0.00199256
-0.00913132
0.0019831
-0.00979224
0.00197112
-0.0104483
0.00195688
-0.0110986
0.00194049
-0.0117423
0.00192214
-0.0123788
0.00190166
-0.0130076
0.00187938
-0.013628
0.00185514
-0.0142395
0.00182911
-0.0148414
0.00180142
-0.015433
0.00177198
-0.0160139
0.00174082
-0.0165835
0.00170811
-0.0171415
0.00167408
-0.0176873
0.00163845
-0.0182204
0.00160139
-0.0187406
0.00156314
-0.0192472
0.00152355
-0.01974
0.00148283
-0.0202186
0.00144103
-0.0206828
0.00139814
-0.0211321
0.00135428
-0.0215662
0.00130957
-0.0219849
0.00126405
-0.0223881
0.00121774
-0.0227755
0.00117076
-0.0231468
0.00112322
-0.0235021
0.00107519
-0.0238411
0.00102652
-0.0241636
0.000977503
-0.0244695
0.000928084
-0.0247589
0.000878306
-0.0250315
0.000828265
-0.0252874
0.000777953
-0.0255264
0.000727332
-0.0257486
0.000676461
-0.0259539
0.000625356
-0.0261423
0.000574041
-0.0263137
0.000522507
-0.0264681
0.000470648
-0.0266052
0.00041854
-0.026725
0.000366169
-0.0268276
0.000313494
-0.0269128
0.000260274
-0.0269807
0.000206893
-0.0270312
0.000153334
-0.0270642
9.9937e-05
-0.0270796
4.69301e-05
-0.0270774
-5.81156e-06
-0.0270576
-5.78345e-05
-0.0270207
-0.000109202
-0.0269669
-0.000159659
-0.0268965
-0.000208932
-0.0268103
-0.000256688
-0.0267089
-0.000302637
-0.0265935
-0.000346594
-0.0264637
-0.000388919
-0.026319
-0.000429829
-0.0261579
-0.000469796
-0.0259794
-0.00050896
-0.025784
-0.000547373
-0.0255736
-0.000585069
-0.0253505
-0.000622039
-0.0251156
-0.000658202
-0.0248687
-0.000693587
-0.0246091
-0.000728272
-0.0243363
-0.000762365
-0.0240507
-0.000795793
-0.0237529
-0.000828185
-0.0234434
-0.000859687
-0.0231228
-0.000890176
-0.0227915
-0.000919628
-0.0224501
-0.000948118
-0.022099
-0.000975626
-0.0217388
-0.0010023
-0.0213698
-0.00102806
-0.0209926
-0.0010529
-0.0206075
-0.001077
-0.020215
-0.00110016
-0.0198156
-0.00112246
-0.0194096
-0.00114391
-0.0189974
-0.00116456
-0.0185796
-0.0011842
-0.0181564
-0.00120301
-0.0177283
-0.0012208
-0.0172957
-0.00123757
-0.016859
-0.00125313
-0.0164186
-0.00126751
-0.015975
-0.00128067
-0.0155288
-0.00129253
-0.0150803
-0.00130289
-0.01463
-0.00131171
-0.0141786
-0.0013189
-0.0137264
-0.00132454
-0.0132744
-0.00132807
-0.0128229
-0.00132993
-0.0123727
-0.00132957
-0.0119244
-0.00132716
-0.0114787
-0.00132254
-0.0110363
-0.00131554
-0.0105981
-0.00130623
-0.0101648
-0.00129443
-0.00973732
-0.00127999
-0.00931622
-0.00126329
-0.00890256
-0.00124363
-0.00849718
-0.00122135
-0.00810091
-0.00119637
-0.0077146
-0.00116867
-0.00733916
-0.00113823
-0.00697544
-0.00110506
-0.0066243
-0.00106917
-0.00628661
-0.00103057
-0.00596321
-0.000989307
-0.00565487
-0.000945411
-0.00536246
-0.000898973
-0.0050867
-0.000850044
-0.00482833
-0.000798693
-0.00458806
-0.000744998
-0.00436653
-0.000689049
-0.00416432
-0.000630975
-0.003982
-0.000570842
-0.00382007
-0.000508784
-0.00367898
-0.000444904
-0.00355916
-0.000379291
-0.00346092
-0.000312125
-0.00338461
-0.000243478
-0.00333053
-0.000173453
-0.00329908
-0.000102122
-0.00329232
-2.8652e-05
-0.00330643
4.32541e-05
-0.00334373
0.000117285
-0.00340564
0.000192157
-0.00349215
0.000267508
-0.00360341
0.000343138
-0.00373968
0.000418958
-0.0039012
0.000494883
-0.00408826
0.000570744
-0.00430104
0.000646421
-0.00453978
0.000721755
-0.00480471
0.000796729
-0.00509573
0.000871064
-0.00541304
0.00094494
-0.00575696
0.00101797
-0.00612596
0.00108947
-0.0065209
0.0011607
-0.0069417
0.00123054
-0.00738759
0.00129922
-0.0078582
0.0013666
-0.00835289
0.0014324
-0.00887132
0.0014969
-0.00941298
0.0015597
-0.00997659
0.00162064
-0.0105619
0.00168013
-0.0111678
0.00173738
-0.0117938
0.00179281
-0.0124391
0.00184608
-0.0131028
0.00189744
-0.0137842
0.00194659
-0.0144824
0.00199344
-0.0151965
0.00203818
-0.0159256
0.00208064
-0.0166687
0.00212084
-0.0174248
0.0021586
-0.0181929
0.00219401
-0.018972
0.00222702
-0.0197609
0.00225762
-0.0205588
0.0022858
-0.0213644
0.00231157
-0.0221767
0.00233493
-0.0229946
0.00235589
-0.0238168
0.00237446
-0.0246421
0.00239061
-0.0254692
0.00240438
-0.0262973
0.00241587
-0.0271261
0.00242524
-0.0279557
0.0024326
-0.028786
0.00243797
-0.0296165
0.0024413
-0.0304466
0.00244256
-0.0312758
0.00244179
-0.0321034
0.00243904
-0.0329289
0.00243435
-0.0337516
0.0024278
-0.034571
0.00241945
-0.0353865
0.00240934
-0.0361977
0.00239753
-0.037004
0.0023841
-0.037805
0.0023691
-0.0386002
0.00235259
-0.0393891
0.00233463
-0.0401713
0.0023153
-0.0409464
0.00229465
-0.0417141
0.00227277
-0.0424739
0.00224971
-0.0432256
0.00222555
-0.0439687
0.00220037
-0.0447031
0.00217425
-0.0454283
0.00214731
-0.0461445
0.0021197
-0.0468513
0.00209164
-0.047549
0.0020634
-0.0482374
0.00203541
-0.0489162
0.00200807
-0.0495844
0.00198172
-0.0502406
0.00195635
-0.0508824
0.00193144
-0.0515071
0.00190598
-0.052112
0.00187868
-0.0526951
0.00184846
-0.0532555
0.00181482
-0.0537936
0.001778
-0.054311
0.00173879
-0.05481
0.00169812
-0.0552927
0.00165672
-0.0557609
0.001615
-0.056216
0.00157305
-0.0566587
0.00153085
-0.0570893
0.00148838
-0.0575081
0.00144572
-0.0579152
0.001403
-0.0583107
0.00136038
-0.0586947
0.00131801
-0.0590673
0.00127598
-0.0594286
0.00123437
-0.0597786
0.00119321
-0.0601175
0.00115253
-0.0604451
0.00111234
-0.0607616
0.00107264
-0.0610671
0.00103345
-0.0613614
0.00099475
-0.0616448
0.000956543
-0.0619171
0.000918822
-0.0621785
0.000881578
-0.062429
0.0008448
-0.0626687
0.000808479
-0.0628975
0.000772603
-0.0631155
0.000737163
-0.0633229
0.000702151
-0.0635195
0.000667561
-0.0637056
0.000633387
-0.063881
0.000599625