/*--------------------------------*- C++ -*----------------------------------*\
| =========                 |                                                 |
| \\      /  F ield         | OpenFOAM: The Open Source CFD Toolbox           |
|  \\    /   O peration     | Version:  v2006                                 |
|   \\  /    A nd           | Website:  www.openfoam.com                      |
|    \\/     M anipulation  |                                                 |
\*---------------------------------------------------------------------------*/
FoamFile
{
    version     2.0;
    format      ascii;
    class       surfaceScalarField;
    location    "3.6";
    object      phi;
}
// * * * * * * * * * * * * * * * * * * * * * * * * * * * * * * * * * * * * * //

dimensions      [0 3 -1 0 0 0 0];
oriented        oriented;


internalField   nonuniform List<scalar> 
299200
(
-0.000947394
0.000947394
-0.00136567
0.000418276
-0.00177678
0.000411115
-0.00229916
0.000522379
-0.0029011
0.00060194
-0.00353603
0.000634922
-0.00417538
0.000639349
-0.00481263
0.000637255
-0.00544765
0.00063502
-0.00608106
0.00063341
-0.00671324
0.000632182
-0.00734422
0.000630976
-0.00797352
0.000629298
-0.0086005
0.000626987
-0.00922457
0.000624063
-0.00984505
0.000620482
-0.0104614
0.000616368
-0.0110731
0.000611641
-0.0116795
0.000606453
-0.0122802
0.000600668
-0.0128745
0.000594341
-0.0134619
0.000587405
-0.014042
0.000580121
-0.0146145
0.000572491
-0.0151788
0.000564215
-0.0157342
0.000555438
-0.0162804
0.000546165
-0.0168169
0.000536524
-0.0173434
0.000526503
-0.0178595
0.000516071
-0.0183646
0.000505099
-0.0188584
0.000493889
-0.0193408
0.000482368
-0.0198112
0.000470433
-0.0202695
0.000458218
-0.0207152
0.000445788
-0.0211483
0.000433088
-0.0215685
0.000420131
-0.0219755
0.000407003
-0.0223691
0.00039362
-0.0227492
0.000380072
-0.0231156
0.000366407
-0.0234682
0.000352593
-0.0238068
0.000338673
-0.0241314
0.000324591
-0.0244418
0.000310344
-0.0247379
0.000296096
-0.0250196
0.000281767
-0.0252868
0.000267148
-0.0255392
0.000252385
-0.0257767
0.000237535
-0.0259995
0.000222782
-0.0262078
0.000208285
-0.0264016
0.000193858
-0.0265805
0.000178881
-0.0267429
0.000162436
-0.0268864
0.000143498
-0.0270074
0.000120999
-0.0271024
9.49565e-05
-0.0271689
6.64858e-05
-0.0272063
3.74088e-05
-0.027216
9.71526e-06
-0.0272017
-1.42911e-05
-0.027167
-3.47105e-05
-0.0271144
-5.26042e-05
-0.0270453
-6.90566e-05
-0.0269605
-8.48047e-05
-0.0268608
-9.96896e-05
-0.0267494
-0.000111422
-0.0266339
-0.000115559
-0.0265264
-0.000107458
-0.0264401
-8.6276e-05
-0.0263821
-5.80388e-05
-0.0263475
-3.45855e-05
-0.0263214
-2.61172e-05
-0.0262872
-3.41817e-05
-0.0262354
-5.18442e-05
-0.0261645
-7.08618e-05
-0.0260773
-8.72221e-05
-0.025976
-0.000101274
-0.0258612
-0.000114783
-0.0257325
-0.000128727
-0.0255892
-0.000143252
-0.025431
-0.000158199
-0.0252579
-0.000173129
-0.0250699
-0.00018802
-0.0248671
-0.000202839
-0.0246495
-0.0002176
-0.0244171
-0.000232359
-0.0241702
-0.000246944
-0.0239088
-0.000261337
-0.0236332
-0.000275671
-0.0233435
-0.000289688
-0.0230399
-0.000303557
-0.0227227
-0.00031716
-0.0223923
-0.000330485
-0.022049
-0.000343281
-0.0216932
-0.000355762
-0.0213253
-0.000367893
-0.0209458
-0.000379474
-0.0205557
-0.000390157
-0.020155
-0.000400645
-0.0197446
-0.000410495
-0.0193249
-0.000419666
-0.0188973
-0.000427629
-0.0184619
-0.000435381
-0.0180197
-0.000442133
-0.0175717
-0.000448076
-0.0171185
-0.000453164
-0.0166611
-0.000457449
-0.0162008
-0.000460287
-0.0157381
-0.000462623
-0.0152742
-0.000463925
-0.0148101
-0.000464141
-0.0143468
-0.000463308
-0.0138853
-0.000461422
-0.0134269
-0.000458495
-0.0129724
-0.000454449
-0.0125231
-0.000449325
-0.01208
-0.000443062
-0.0116443
-0.000435727
-0.011217
-0.000427279
-0.0107993
-0.000417725
-0.0103922
-0.000407049
-0.00999698
-0.000395257
-0.00961461
-0.000382369
-0.0092462
-0.000368413
-0.0088929
-0.000353301
-0.00855578
-0.000337114
-0.00823592
-0.000319859
-0.00793439
-0.000301534
-0.00765223
-0.000282155
-0.00739048
-0.000261758
-0.00715011
-0.000240361
-0.0069321
-0.000218012
-0.00673735
-0.000194756
-0.00656668
-0.000170662
-0.00642082
-0.000145865
-0.00630032
-0.000120497
-0.00620557
-9.47478e-05
-0.00613673
-6.88448e-05
-0.0060937
-4.30259e-05
-0.00607662
-1.70848e-05
-0.00608558
8.96404e-06
-0.00612017
3.45891e-05
-0.0061812
6.10278e-05
-0.0062683
8.71031e-05
-0.00638094
0.000112632
-0.00651849
0.000137554
-0.00668027
0.000161785
-0.00686564
0.000185368
-0.00707376
0.00020812
-0.00730386
0.000230094
-0.00755553
0.000251669
-0.00782828
0.000272756
-0.00812061
0.000292332
-0.00843271
0.000312093
-0.00876411
0.000331408
-0.00911345
0.000349336
-0.00948081
0.000367362
-0.00986571
0.000384894
-0.0102677
0.000401979
-0.0106864
0.000418675
-0.011121
0.000434599
-0.0115716
0.000450644
-0.0120379
0.000466318
-0.01252
0.000482059
-0.0130173
0.000497307
-0.0135288
0.000511517
-0.0140542
0.000525441
-0.0145931
0.000538831
-0.0151447
0.000551668
-0.0157091
0.000564336
-0.0162856
0.000576542
-0.016874
0.000588402
-0.0174739
0.000599876
-0.0180849
0.000611013
-0.0187067
0.000621819
-0.019339
0.000632306
-0.0199815
0.000642488
-0.0206339
0.0006524
-0.021296
0.000662062
-0.0219675
0.000671541
-0.0226486
0.000681031
-0.0233394
0.000690794
-0.0240402
0.000700884
-0.0247511
0.000710841
-0.0254709
0.000719806
-0.026198
0.00072707
-0.0269304
0.000732489
-0.0276668
0.000736382
-0.028406
0.000739142
-0.029147
0.000741018
-0.0298891
0.000742114
-0.0306316
0.000742475
-0.0313737
0.00074213
-0.0321148
0.000741106
-0.0328542
0.000739425
-0.0335913
0.000737108
-0.0343255
0.000734171
-0.0350561
0.000730631
-0.0357827
0.00072651
-0.0365045
0.000721831
-0.0372211
0.000716615
-0.037932
0.000710882
-0.0386366
0.000704657
-0.0393346
0.000697967
-0.0400255
0.000690855
-0.0407088
0.000683372
-0.0413844
0.000675566
-0.0420518
0.000667441
-0.0427108
0.000658915
-0.0433606
0.0006498
-0.0440004
0.000639844
-0.0446293
0.000628861
-0.0452462
0.000616937
-0.0458509
0.000604662
-0.0464441
0.000593265
-0.0470286
0.000584502
-0.0476088
0.000580211
-0.0481905
0.000581619
-0.0487792
0.000588739
-0.0493794
0.000600167
-0.0499928
0.000613424
-0.0506185
0.000625695
-0.0512531
0.000634601
-0.0518918
0.000638726
-0.0525295
0.000637714
-0.0531616
0.000632039
-0.0537842
0.000622622
-0.0543947
0.000610487
-0.0549912
0.000596484
-0.0555724
0.000581291
-0.0561379
0.000565412
-0.056687
0.000549178
-0.0572198
0.000532805
-0.0577363
0.00051643
-0.0582364
0.000500148
-0.0587204
0.000484028
-0.0591886
0.000468124
-0.059641
0.000452477
-0.0600782
0.000437119
-0.0605002
0.000422075
-0.0609076
0.000407363
-0.0613006
0.000392996
-0.0616796
0.000378982
-0.0620449
0.000365325
-0.0623969
0.000352031
-0.062736
0.0003391
-0.0630626
0.000326531
-0.0633769
0.000314324
-0.0636794
0.000302475
-0.0639703
0.000290977
-0.0642502
0.000279825
-0.0645192
0.000269012
-0.0647777
0.000258535
-0.0650261
0.000248388
-0.0652647
0.000238566
-0.0654937
0.000229065
-0.0657136
0.000219879
-0.0659246
0.000211002
-0.066127
0.000202427
-0.0663212
0.00019415
-0.0665074
0.000186166
-0.0666858
0.000178473
-0.0668569
0.000171067
-0.0670208
0.000163947
-0.067178
0.000157112
-0.0673285
0.000150561
-0.0674728
0.000144296
-0.0676111
0.000138313
-0.0677437
0.000132612
-0.0678709
0.00012719
-0.067993
0.00012204
-0.0681103
0.000117297
-0.0682232
0.000112972
-0.0683316
0.000108403
-0.0684359
0.000104246
-0.0685363
0.000100435
-0.0686333
9.69294e-05
-0.068727
9.37251e-05
-0.0688178
9.08347e-05
-0.0689061
8.82742e-05
-0.0689921
8.60576e-05
-0.0690763
8.41954e-05
-0.069159
8.26911e-05
-0.0692406
8.15412e-05
-0.0693213
8.07389e-05
-0.0694016
8.02784e-05
-0.0694817
8.0141e-05
-0.069562
8.02413e-05
-0.0696423
8.03295e-05
-0.0697222
7.99275e-05
-0.0698007
7.8504e-05
-0.0698769
7.61546e-05
-0.0699515
7.46562e-05
-0.0700291
7.75204e-05
-0.0701162
8.71299e-05
-0.0702144
9.82056e-05
-0.0703007
8.63498e-05
-0.0703169
1.61042e-05
-0.0702274
-8.94668e-05
-0.0700499
-0.000177515
-0.0698311
-0.000218785
-0.0696024
-0.000228696
-0.0693732
-0.000229201
-0.0691428
-0.000230385
-0.0689097
-0.000233145
-0.0686736
-0.000236054
-0.0684351
-0.000238455
-0.0681948
-0.000240375
-0.0679528
-0.000241933
-0.0677097
-0.000243154
-0.0674657
-0.000244023
-0.0672211
-0.000244535
-0.0669764
-0.000244694
-0.0667319
-0.00024451
-0.0664879
-0.000243991
-0.0662448
-0.000243152
-0.0660028
-0.000242005
-0.0657622
-0.000240564
-0.0655234
-0.000238846
-0.0652865
-0.000236866
-0.0650519
-0.000234644
-0.0648197
-0.000232196
-0.0645901
-0.00022954
-0.0643634
-0.000226692
-0.0641398
-0.00022367
-0.0639193
-0.000220489
-0.0637021
-0.000217167
-0.0634884
-0.000213722
-0.0632782
-0.000210172
-0.0630717
-0.000206533
-0.0628689
-0.000202822
-0.0626698
-0.000199055
-0.0624745
-0.000195247
-0.0622831
-0.000191413
-0.0620956
-0.000187568
-0.0619118
-0.000183727
-0.0617319
-0.000179903
-0.0615558
-0.00017611
-0.0613835
-0.000172361
-0.0612148
-0.000168667
-0.0610498
-0.000165041
-0.0608883
-0.000161494
-0.0607302
-0.000158038
-0.0605755
-0.000154685
-0.0604241
-0.000151445
-0.0602758
-0.000148329
-0.0601304
-0.000145347
-0.0599879
-0.000142508
-0.0598481
-0.000139824
-0.0597108
-0.000137304
-0.0595758
-0.000134958
-0.059443
-0.000132795
-0.0593122
-0.000130827
-0.0591831
-0.000129061
-0.0590556
-0.000127509
-0.0589295
-0.000126181
-0.0588044
-0.000125088
-0.0586801
-0.000124239
-0.0585565
-0.000123642
-0.0584332
-0.000123308
-0.0583099
-0.000123243
-0.0581865
-0.000123457
-0.0580625
-0.00012396
-0.0579378
-0.00012476
-0.0578119
-0.000125867
-0.0576846
-0.000127287
-0.0575556
-0.000129028
-0.0574245
-0.000131091
-0.057291
-0.00013348
-0.0571548
-0.000136195
-0.0570156
-0.000139238
-0.056873
-0.00014261
-0.0567266
-0.000146315
-0.0565763
-0.000150353
-0.0564216
-0.000154726
-0.0562621
-0.000159428
-0.0560977
-0.000164455
-0.0559279
-0.000169796
-0.0557524
-0.000175444
-0.0555711
-0.000181391
-0.0553834
-0.00018763
-0.0551893
-0.000194151
-0.0549883
-0.000200943
-0.0547803
-0.000207991
-0.0545651
-0.000215277
-0.0543423
-0.000222785
-0.0541118
-0.000230502
-0.0538734
-0.000238419
-0.0536268
-0.00024652
-0.0533721
-0.00025478
-0.0531089
-0.000263171
-0.0528372
-0.000271667
-0.052557
-0.000280249
-0.0522681
-0.000288912
-0.0519704
-0.000297643
-0.051664
-0.000306422
-0.0513488
-0.000315213
-0.0510248
-0.000323987
-0.0506921
-0.000332725
-0.0503506
-0.000341418
-0.0500006
-0.000350057
-0.049642
-0.000358618
-0.0492749
-0.00036707
-0.0488995
-0.00037539
-0.0485159
-0.000383563
-0.0481244
-0.000391579
-0.0477249
-0.000399422
-0.0473179
-0.000407073
-0.0469034
-0.000414517
-0.0464816
-0.00042174
-0.0460529
-0.000428728
-0.0456174
-0.000435471
-0.0451755
-0.000441958
-0.0447273
-0.000448181
-0.0442732
-0.00045413
-0.0438134
-0.000459798
-0.0433482
-0.000465179
-0.0428779
-0.000470268
-0.0424028
-0.000475061
-0.0419233
-0.00047955
-0.0414396
-0.000483737
-0.0409519
-0.000487626
-0.0404607
-0.000491225
-0.0399662
-0.000494535
-0.0394686
-0.000497571
-0.0389683
-0.000500351
-0.0384654
-0.000502895
-0.0379601
-0.000505234
-0.0374527
-0.000507399
-0.0369433
-0.000509413
-0.036432
-0.000511293
-0.035919
-0.000513046
-0.0354043
-0.000514673
-0.0348881
-0.000516169
-0.0343706
-0.000517534
-0.0338518
-0.000518773
-0.0333319
-0.000519894
-0.032811
-0.000520899
-0.0322892
-0.000521796
-0.0317666
-0.00052259
-0.0312433
-0.000523297
-0.0307194
-0.000523929
-0.0301949
-0.000524505
-0.0296699
-0.00052504
-0.0291443
-0.000525543
-0.0286183
-0.000526024
-0.0280918
-0.000526496
-0.0275648
-0.000526968
-0.0270374
-0.000527453
-0.0265094
-0.000527962
-0.0259809
-0.000528516
-0.0254518
-0.00052912
-0.024922
-0.000529784
-0.0243915
-0.000530532
-0.0238601
-0.000531378
-0.0233278
-0.000532332
-0.0227943
-0.000533419
-0.0222596
-0.00053471
-0.0217234
-0.000536276
-0.0211852
-0.000538131
-0.020645
-0.000540217
-0.0201026
-0.000542384
-0.0195581
-0.000544508
-0.0190116
-0.000546511
-0.0184632
-0.000548419
-0.0179129
-0.000550296
-0.0173607
-0.000552188
-0.0168066
-0.000554108
-0.0162506
-0.000556027
-0.0156926
-0.000557939
-0.0151328
-0.000559841
-0.014571
-0.00056174
-0.0140074
-0.000563647
-0.0134418
-0.000565575
-0.0128743
-0.0005675
-0.0123049
-0.000569391
-0.0117337
-0.000571228
-0.0111606
-0.000573099
-0.0105856
-0.000574984
-0.010009
-0.000576627
-0.00943036
-0.000578638
-0.00885006
-0.000580294
-0.00826875
-0.000581314
-0.00768404
-0.000584709
-0.00709895
-0.000585091
-0.0065128
-0.000586148
-0.00592037
-0.000592427
-0.00534221
-0.00057817
-0.00474526
-0.000596949
-0.00417235
-0.000572906
-0.00358537
-0.00058698
-0.00297867
-0.000606698
-0.00238199
-0.000596683
-0.00171937
-0.00066262
-0.000974977
-0.000744394
-0.000541416
-0.000433561
-0.000541416
-0.00097324
0.00192063
-0.00145458
0.000899614
-0.00193184
0.000888376
-0.00253719
0.00112773
-0.0032212
0.00128595
-0.00393298
0.0013467
-0.00464757
0.00135394
-0.0053574
0.00134709
-0.00606366
0.00134128
-0.00676815
0.0013379
-0.00747138
0.0013354
-0.00817271
0.00133231
-0.00887119
0.00132778
-0.0095658
0.0013216
-0.0102557
0.00131394
-0.0109398
0.00130462
-0.0116174
0.00129396
-0.012288
0.00128219
-0.0129504
0.00126894
-0.0136042
0.00125439
-0.0142484
0.00123856
-0.0148825
0.00122149
-0.0155057
0.00120337
-0.0161174
0.00118418
-0.016717
0.00116378
-0.0173039
0.00114238
-0.0178776
0.00111988
-0.0184376
0.00109647
-0.0189831
0.00107208
-0.0195139
0.0010468
-0.0200295
0.00102071
-0.0205294
0.000993849
-0.0210132
0.000966149
-0.0214805
0.000937745
-0.021931
0.000908725
-0.0223644
0.00087918
-0.0227803
0.000848964
-0.0231784
0.000818179
-0.0235584
0.000787085
-0.0239203
0.000755485
-0.0242637
0.000723447
-0.0245884
0.000691125
-0.0248943
0.000658511
-0.0251813
0.000625607
-0.0254491
0.000592445
-0.0256978
0.000559048
-0.0259272
0.000525453
-0.026137
0.000491639
-0.0263275
0.000457566
-0.0264983
0.000423274
-0.0266496
0.000388826
-0.0267811
0.000354222
-0.0268922
0.000319432
-0.0269828
0.00028448
-0.0270533
0.00024932
-0.0271047
0.000213812
-0.0271391
0.000177895
-0.0271598
0.000141773
-0.0271704
0.000105568
-0.0271736
6.95877e-05
-0.0271702
3.4058e-05
-0.0271594
-1.03664e-06
-0.0271381
-3.56523e-05
-0.0271029
-6.9894e-05
-0.027052
-0.00010349
-0.0269847
-0.000136324
-0.0269013
-0.000168272
-0.0268018
-0.000199216
-0.0266841
-0.000229087
-0.0265425
-0.000257195
-0.0263667
-0.000283193
-0.0261462
-0.000306803
-0.0258756
-0.000328672
-0.0255599
-0.000350234
-0.0252129
-0.00037312
-0.0248497
-0.000397416
-0.0244796
-0.000421942
-0.0241051
-0.000445351
-0.023725
-0.000467336
-0.0233378
-0.000488429
-0.0229436
-0.00050903
-0.022543
-0.000529266
-0.0221371
-0.000549159
-0.0217267
-0.000568591
-0.0213124
-0.000587444
-0.0208947
-0.000605762
-0.0204738
-0.000623725
-0.0200502
-0.000641185
-0.0196243
-0.000658258
-0.0191964
-0.000674884
-0.0187667
-0.000691012
-0.0183355
-0.000706837
-0.0179031
-0.000722138
-0.0174696
-0.000737018
-0.0170354
-0.000751415
-0.0166004
-0.000765488
-0.0161648
-0.000778806
-0.015729
-0.000791595
-0.0152931
-0.000803821
-0.0148573
-0.000815266
-0.0144216
-0.000825835
-0.0139864
-0.000835811
-0.013552
-0.00084495
-0.0131187
-0.000852972
-0.0126863
-0.000859955
-0.0122558
-0.000865944
-0.0118272
-0.000870755
-0.0114008
-0.000874435
-0.0109772
-0.000876747
-0.0105571
-0.000877618
-0.0101403
-0.000877018
-0.00972793
-0.00087502
-0.00932047
-0.000871382
-0.00891842
-0.000866185
-0.00852245
-0.000859286
-0.0081332
-0.000850666
-0.00775134
-0.000840356
-0.00737762
-0.000828171
-0.00701274
-0.000814209
-0.00665742
-0.000798374
-0.00631245
-0.000780703
-0.00597854
-0.000761188
-0.00565645
-0.000739809
-0.00534692
-0.000716585
-0.00505064
-0.000691531
-0.00476836
-0.00066465
-0.00450084
-0.000635932
-0.00424862
-0.000605527
-0.00401235
-0.000573384
-0.00379265
-0.000539555
-0.0035901
-0.000504086
-0.00340523
-0.000467022
-0.00323857
-0.00042842
-0.0030906
-0.000388331
-0.0029618
-0.000346812
-0.00285263
-0.000303928
-0.00276354
-0.000259751
-0.00269507
-0.000214332
-0.00264781
-0.000167761
-0.00262242
-0.000120134
-0.00261967
-7.16005e-05
-0.00263975
-2.29465e-05
-0.00268471
2.78746e-05
-0.00275436
7.86206e-05
-0.0028485
0.000128728
-0.0029668
0.000179325
-0.00310975
0.00023005
-0.00327784
0.000280721
-0.00347154
0.000331256
-0.0036912
0.000381447
-0.00393709
0.000431261
-0.00420949
0.000480519
-0.00450858
0.000529182
-0.00483422
0.00057731
-0.00518626
0.000624793
-0.00556505
0.000671123
-0.0059704
0.000717443
-0.00640162
0.000762634
-0.00685884
0.00080655
-0.00734154
0.000850067
-0.0078493
0.000892648
-0.00838163
0.000934317
-0.00893798
0.00097502
-0.00951793
0.00101455
-0.0101208
0.00105349
-0.0107458
0.0010913
-0.0113915
0.00112782
-0.0120575
0.00116327
-0.0127432
0.00119719
-0.0134478
0.00123011
-0.0141705
0.00126154
-0.0149105
0.00129164
-0.0156666
0.00132045
-0.016438
0.00134796
-0.0172238
0.00137414
-0.0180228
0.00139895
-0.0188342
0.00142241
-0.0196569
0.0014445
-0.0204898
0.00146523
-0.0213319
0.0014846
-0.0221822
0.00150262
-0.0230394
0.00151933
-0.0239027
0.00153477
-0.0247707
0.00154905
-0.0256421
0.00156225
-0.0265155
0.00157426
-0.0273894
0.00158478
-0.0282631
0.00159344
-0.0291361
0.00160011
-0.0300085
0.0016049
-0.0308802
0.00160804
-0.0317508
0.0016097
-0.0326197
0.00160995
-0.0334864
0.00160882
-0.0343503
0.00160636
-0.0352107
0.0016026
-0.0360672
0.00159759
-0.0369192
0.00159137
-0.037766
0.00158397
-0.0386073
0.00157544
-0.0394425
0.00156582
-0.0402711
0.00155515
-0.0410928
0.00154348
-0.041907
0.00153086
-0.0427135
0.00151732
-0.0435117
0.00150292
-0.0443015
0.00148771
-0.0450824
0.00147175
-0.0458541
0.00145509
-0.0466163
0.0014378
-0.0473688
0.00141991
-0.0481114
0.00140149
-0.0488442
0.00138265
-0.049568
0.00136364
-0.0502841
0.00134493
-0.0509944
0.00132727
-0.0517012
0.00131148
-0.0524062
0.00129828
-0.0531095
0.00128781
-0.0538088
0.0012795
-0.0544992
0.00127197
-0.0551739
0.0012635
-0.0558262
0.00125245
-0.0564506
0.00123775
-0.057044
0.00121909
-0.0576061
0.0011968
-0.058139
0.00117158
-0.0586455
0.00114421
-0.0591288
0.00111537
-0.0595918
0.00108554
-0.0600363
0.00105507
-0.0604641
0.0010242
-0.0608759
0.000993129
-0.0612725
0.000962048
-0.0616545
0.000931109
-0.0620221
0.000900433
-0.0623758
0.0008701
-0.0627158
0.000840165
-0.0630424
0.000810662
-0.0633559
0.00078161
-0.0636564
0.000753017
-0.0639442
0.000724887
-0.0642193
0.000697216
-0.064482
0.000670001
-0.0647322
0.000643234
-0.0649701
0.000616907
-0.0651958
0.000591007
-0.0654093
0.000565524
-0.0656107
0.000540444
-0.0657999
0.000515755
-0.065977
0.000491446
-0.066142
0.000467508
-0.066295
0.000443932
-0.0664359
0.000420711
-0.0665647
0.000397837
-0.0666815
0.000375302
-0.0667862
0.000353102
-0.0668789
0.000331231
-0.0669595
0.000309687
-0.0670281
0.00028847
-0.0670846
0.000267579
-0.0671292
0.000247012
-0.0671618
0.000226769
-0.0671825
0.000206847
-0.0671913
0.000187244
-0.0671882
0.000167958
-0.0671732
0.000148986
-0.0671464
0.000130328
-0.0671079
0.000111983
-0.0670575
9.39554e-05
-0.0669955
7.62501e-05
-0.0669217
5.88658e-05
-0.0668363
4.17958e-05
-0.0667393
2.50573e-05
-0.0666313
9.26242e-06
-0.0665132
-5.13503e-06
-0.0663836
-2.12251e-05
-0.066243
-3.6279e-05
-0.0660918
-5.07671e-05
-0.0659301
-6.48643e-05
-0.0657577
-7.86716e-05
-0.0655745
-9.22937e-05
-0.0653804
-0.000105842
-0.0651749
-0.000119425
-0.0649576
-0.000133167
-0.0647277
-0.000147189
-0.0644845
-0.000161618
-0.0642272
-0.000176568
-0.0639548
-0.000192121
-0.0636664
-0.000208301
-0.0633611
-0.000225035
-0.0630387
-0.000242123
-0.0626995
-0.000259262
-0.0623448
-0.000276192
-0.0619755
-0.000293103
-0.0615894
-0.000311403
-0.0611773
-0.000334604
-0.060722
-0.000368231
-0.0602068
-0.000416962
-0.0596431
-0.000477298
-0.0590973
-0.000529792
-0.0586363
-0.000550381
-0.0582752
-0.000538655
-0.0579845
-0.000509478
-0.0577329
-0.000480271
-0.0575016
-0.000460495
-0.0572819
-0.000450096
-0.0570698
-0.000445228
-0.0568631
-0.000442791
-0.0566602
-0.000441322
-0.0564604
-0.000440202
-0.0562633
-0.00043907
-0.0560687
-0.000437692
-0.0558768
-0.000435956
-0.0556875
-0.000433817
-0.055501
-0.000431258
-0.0553172
-0.000428274
-0.0551363
-0.000424869
-0.0549584
-0.000421054
-0.0547836
-0.000416844
-0.0546119
-0.000412257
-0.0544434
-0.000407314
-0.0542782
-0.000402041
-0.0541164
-0.000396462
-0.053958
-0.000390605
-0.0538031
-0.000384496
-0.0536516
-0.000378162
-0.0535036
-0.00037163
-0.0533592
-0.000364928
-0.0532183
-0.000358084
-0.0530809
-0.000351128
-0.052947
-0.000344088
-0.0528165
-0.000336992
-0.0526894
-0.000329866
-0.0525658
-0.000322735
-0.0524454
-0.000315625
-0.0523282
-0.000308559
-0.0522143
-0.000301562
-0.0521033
-0.000294658
-0.0519954
-0.000287867
-0.0518903
-0.000281212
-0.0517879
-0.000274713
-0.0516882
-0.000268388
-0.051591
-0.000262258
-0.0514961
-0.00025634
-0.0514035
-0.000250652
-0.051313
-0.000245211
-0.0512244
-0.000240035
-0.0511376
-0.00023514
-0.0510524
-0.00023054
-0.0509686
-0.000226252
-0.0508862
-0.000222289
-0.0508048
-0.000218665
-0.0507244
-0.000215398
-0.0506447
-0.0002125
-0.0505655
-0.000209989
-0.0504867
-0.000207879
-0.050408
-0.000206188
-0.0503293
-0.00020493
-0.0502502
-0.000204123
-0.0501707
-0.000203782
-0.0500904
-0.000203923
-0.0500091
-0.00020456
-0.0499267
-0.000205707
-0.0498428
-0.000207379
-0.0497571
-0.000209591
-0.0496695
-0.000212359
-0.0495797
-0.000215697
-0.0494874
-0.000219616
-0.0493923
-0.000224127
-0.0492941
-0.000229237
-0.0491927
-0.00023495
-0.0490876
-0.00024127
-0.0489786
-0.0002482
-0.0488655
-0.000255747
-0.0487479
-0.000263916
-0.0486255
-0.000272707
-0.0484981
-0.000282114
-0.0483654
-0.000292126
-0.0482272
-0.000302734
-0.048083
-0.000313927
-0.0479328
-0.000325696
-0.0477761
-0.000338026
-0.0476129
-0.0003509
-0.0474427
-0.0003643
-0.0472655
-0.000378207
-0.0470809
-0.000392595
-0.0468887
-0.000407436
-0.0466888
-0.000422698
-0.0464809
-0.000438356
-0.046265
-0.000454384
-0.0460407
-0.000470753
-0.0458081
-0.000487428
-0.0455669
-0.000504369
-0.045317
-0.000521534
-0.0450584
-0.000538887
-0.0447909
-0.0005564
-0.0445145
-0.00057404
-0.0442292
-0.000591766
-0.0439348
-0.00060953
-0.0436315
-0.00062728
-0.0433193
-0.000644988
-0.0429981
-0.000662631
-0.0426679
-0.000680183
-0.042329
-0.000697594
-0.0419812
-0.000714811
-0.0416248
-0.000731797
-0.0412599
-0.000748527
-0.0408865
-0.000764979
-0.0405048
-0.000781116
-0.0401149
-0.000796904
-0.0397171
-0.000812313
-0.0393116
-0.000827316
-0.0388984
-0.000841884
-0.0384779
-0.000856
-0.0380502
-0.000869642
-0.0376156
-0.00088279
-0.0371743
-0.000895425
-0.0367266
-0.00090753
-0.0362726
-0.000919091
-0.0358128
-0.000930097
-0.0353473
-0.000940537
-0.0348765
-0.000950402
-0.0344005
-0.000959689
-0.0339198
-0.000968397
-0.0334345
-0.000976526
-0.0329449
-0.000984086
-0.0324514
-0.000991087
-0.0319542
-0.000997545
-0.0314536
-0.00100348
-0.0309499
-0.00100892
-0.0304434
-0.00101389
-0.0299345
-0.00101839
-0.0294233
-0.00102245
-0.0289103
-0.00102608
-0.0283957
-0.00102928
-0.0278797
-0.00103208
-0.0273628
-0.00103448
-0.0268451
-0.00103651
-0.0263268
-0.00103821
-0.0258081
-0.00103959
-0.0252892
-0.00104066
-0.0247704
-0.00104143
-0.0242517
-0.00104193
-0.0237335
-0.00104216
-0.0232159
-0.00104215
-0.022699
-0.00104193
-0.022183
-0.00104153
-0.0216681
-0.00104094
-0.0211544
-0.0010402
-0.020642
-0.00103932
-0.0201311
-0.00103831
-0.0196219
-0.0010372
-0.0191144
-0.001036
-0.0186088
-0.00103477
-0.0181051
-0.00103349
-0.0176034
-0.00103218
-0.0171039
-0.00103089
-0.0166066
-0.00102963
-0.0161116
-0.00102845
-0.0156189
-0.00102737
-0.0151287
-0.00102645
-0.0146412
-0.00102571
-0.0141564
-0.00102499
-0.0136746
-0.00102416
-0.0131961
-0.00102298
-0.0127214
-0.00102128
-0.0122507
-0.00101909
-0.0117845
-0.00101653
-0.0113228
-0.0010138
-0.010866
-0.00101091
-0.0104142
-0.00100783
-0.00996767
-0.00100452
-0.00952641
-0.0010011
-0.00909058
-0.000997571
-0.00866027
-0.000993951
-0.00823562
-0.000990231
-0.0078167
-0.000986413
-0.00740363
-0.000982467
-0.00699645
-0.000978408
-0.00659528
-0.000974271
-0.00620026
-0.000970001
-0.00581117
-0.000965719
-0.0054282
-0.000961604
-0.00505141
-0.000957081
-0.00467983
-0.000952895
-0.00431521
-0.000949336
-0.00395575
-0.000944545
-0.00360199
-0.000939906
-0.00325393
-0.000940488
-0.00290889
-0.000923212
-0.00256467
-0.000941164
-0.00222751
-0.000910069
-0.00187622
-0.000938269
-0.00156055
-0.00092237
-0.00122601
-0.00093122
-0.000954362
-0.000934269
-0.000752086
-0.00094667
-0.00034861
-0.000837037
-0.000890026
-0.000954933
0.00287557
-0.00141041
0.00135509
-0.00185318
0.00133115
-0.0024194
0.00169395
-0.00306963
0.00193619
-0.00375226
0.00202933
-0.0044386
0.00204029
-0.00512001
0.00202849
-0.00579747
0.00201874
-0.0064731
0.00201353
-0.00714753
0.00200984
-0.0078204
0.00200518
-0.00849082
0.0019982
-0.00915798
0.00198876
-0.00982083
0.00197679
-0.0104788
0.00196257
-0.011131
0.0019462
-0.0117767
0.00192787
-0.0124152
0.0019074
-0.0130459
0.00188513
-0.0136683
0.0018609
-0.0142816
0.00183487
-0.0148855
0.00180719
-0.015479
0.00177774
-0.0160618
0.00174658
-0.0166333
0.00171387
-0.0171932
0.00167982
-0.017741
0.00164418
-0.018276
0.0016071
-0.018798
0.00156883
-0.0193065
0.00152922
-0.0198012
0.00148848
-0.0202817
0.00144665
-0.0207476
0.00140372
-0.0211987
0.00135983
-0.0216347
0.00131509
-0.0220552
0.00126953
-0.0224602
0.00122318
-0.0228493
0.00117616
-0.0232224
0.00112858
-0.0235795
0.0010805
-0.0239201
0.00103179
-0.0242443
0.000982727
-0.024552
0.000933258
-0.024843
0.000883428
-0.0251173
0.000833332
-0.0253748
0.000782963
-0.0256154
0.000732282
-0.0258392
0.000681349
-0.0260461
0.000630179
-0.0262361
0.000578796
-0.026409
0.000527191
-0.0265649
0.000475258
-0.0267035
0.000423071
-0.0268247
0.000370617
-0.0269288
0.00031785
-0.0270154
0.000264538
-0.0270847
0.00021106
-0.0271366
0.000157404
-0.0271709
0.000103908
-0.0271876
5.08001e-05
-0.0271866
-2.03138e-06
-0.0271681
-5.41582e-05
-0.0271324
-0.000105629
-0.0270797
-0.000156191
-0.0270104
-0.000205569
-0.0269253
-0.000253427
-0.026825
-0.000299476
-0.0267106
-0.000343539
-0.0265818
-0.000385974
-0.026438
-0.000427002
-0.0262777
-0.000467089
-0.0261
-0.000506371
-0.0259053
-0.000544904
-0.0256957
-0.000582721
-0.0254733
-0.000619812
-0.0252392
-0.000656093
-0.0249929
-0.000691592
-0.0247339
-0.000726385
-0.0244617
-0.000760579
-0.0241767
-0.000794095
-0.0238794
-0.000826569
-0.0235704
-0.000858142
-0.0232503
-0.000888691
-0.0229195
-0.000918193
-0.0225786
-0.000946724
-0.022228
-0.000974262
-0.0218683
-0.00100095
-0.0214998
-0.00102673
-0.0211231
-0.00105156
-0.0207385
-0.00107565
-0.0203465
-0.00109878
-0.0199476
-0.00112105
-0.0195422
-0.00114246
-0.0191305
-0.00116305
-0.0187134
-0.00118264
-0.0182908
-0.00120138
-0.0178633
-0.00121909
-0.0174314
-0.00123579
-0.0169954
-0.00125126
-0.0165556
-0.00126556
-0.0161128
-0.00127863
-0.0156674
-0.0012904
-0.0152197
-0.00130067
-0.0147702
-0.00130941
-0.0143196
-0.00131651
-0.0138683
-0.00132208
-0.0134172
-0.00132553
-0.0129666
-0.00132733
-0.0125173
-0.00132692
-0.0120699
-0.00132446
-0.0116251
-0.0013198
-0.0111837
-0.00131278
-0.0107464
-0.00130347
-0.010314
-0.00129167
-0.00988748
-0.00127724
-0.00946727
-0.00126056
-0.00905449
-0.00124095
-0.00864997
-0.00121872
-0.00825452
-0.00119382
-0.00786902
-0.00116621
-0.00749433
-0.00113587
-0.00713132
-0.00110282
-0.00678086
-0.00106705
-0.00644379
-0.0010286
-0.00612095
-0.000987488
-0.00581312
-0.000943759
-0.00552115
-0.000897499
-0.00524578
-0.000848759
-0.00498773
-0.000797606
-0.00474769
-0.000744118
-0.00452633
-0.000688384
-0.00432422
-0.000630532
-0.00414192
-0.000570627
-0.00397994
-0.000508802
-0.0038387
-0.000445159
-0.00371867
-0.000379785
-0.00362014
-0.000312862
-0.00354344
-0.000244457
-0.0034889
-0.000174676
-0.00345691
-0.000103588
-0.00344947
-3.0392e-05
-0.00346295
4.13536e-05
-0.00349944
0.000115111
-0.00356046
0.000189752
-0.00364602
0.000264881
-0.00375626
0.000340295
-0.00389145
0.000415904
-0.00405182
0.000491625
-0.00423766
0.000567292
-0.00444918
0.000642781
-0.0046866
0.000717938
-0.00495016
0.000792744
-0.00523977
0.00086692
-0.00555563
0.000940647
-0.00589804
0.00101353
-0.00626551
0.00108492
-0.0066589
0.00115602
-0.00707811
0.00122576
-0.00752239
0.00129434
-0.00799137
0.00136163
-0.00848441
0.00142736
-0.00900119
0.00149179
-0.00954119
0.00155454
-0.0101031
0.00161544
-0.0106867
0.0016749
-0.011291
0.00173212
-0.0119153
0.00178754
-0.0125589
0.0018408
-0.013221
0.00189217
-0.0139008
0.00194133
-0.0145973
0.0019882
-0.0153098
0.00203297
-0.0160374
0.00207547
-0.0167789
0.0021157
-0.0175335
0.00215351
-0.0183
0.00218897
-0.0190776
0.00222203
-0.019865
0.0022527
-0.0206614
0.00228094
-0.0214655
0.00230678
-0.0222764
0.00233021
-0.0230929
0.00235125
-0.0239138
0.00236989
-0.0247376
0.00238612
-0.0255633
0.00239997
-0.0263901
0.00241154
-0.0272176
0.00242099
-0.028046
0.00242844
-0.028875
0.00243389
-0.0297042
0.0024373
-0.0305332
0.00243864
-0.0313612
0.00243794
-0.0321876
0.00243526
-0.0330119
0.00243064
-0.0338334
0.00242416
-0.0346517
0.00241586
-0.0354662
0.00240581
-0.0362763
0.00239406
-0.0370815
0.00238068
-0.0378814
0.00236573
-0.0386755
0.00234926
-0.0394634
0.00233134
-0.0402445
0.00231204
-0.0410186
0.00229142
-0.0417853
0.00226956
-0.0425441
0.00224652
-0.0432947
0.00222237
-0.0440368
0.0021972
-0.0447701
0.00217109
-0.0454944
0.00214416
-0.0462094
0.00211656
-0.0469153
0.00208849
-0.0476119
0.00206027
-0.0482993
0.0020323
-0.048977
0.00200499
-0.0496442
0.00197867
-0.0502992
0.00195333
-0.0509398
0.00192841
-0.0515632
0.00190289
-0.0521667
0.00187548
-0.0527484
0.00184511
-0.0533072
0.00181131
-0.0538438
0.00177435
-0.0543598
0.00173503
-0.0548572
0.00169427
-0.0553385
0.00165281
-0.0558053
0.00161103
-0.0562589
0.00156902
-0.0567001
0.00152675
-0.0571293
0.00148422
-0.0575466
0.00144149
-0.0579522
0.0013987
-0.0583461
0.00135602
-0.0587286
0.00131359
-0.0590997
0.00127151
-0.0594594
0.00122984
-0.0598079
0.00118863
-0.0601451
0.0011479
-0.0604712
0.00110766
-0.0607861
0.00106791
-0.0610899
0.00102867
-0.0613826
0.000989923
-0.0616642
0.000951671
-0.0619349
0.000913907
-0.0621946
0.000876621
-0.0624434
0.000839804
-0.0626813
0.000803446
-0.0629084
0.000767535
-0.0631247
0.000732062
-0.0633303
0.00069702
-0.0635252
0.000662403
-0.0637095
0.000628206