/*--------------------------------*- C++ -*----------------------------------*\
| =========                 |                                                 |
| \\      /  F ield         | OpenFOAM: The Open Source CFD Toolbox           |
|  \\    /   O peration     | Version:  v2006                                 |
|   \\  /    A nd           | Website:  www.openfoam.com                      |
|    \\/     M anipulation  |                                                 |
\*---------------------------------------------------------------------------*/
FoamFile
{
    version     2.0;
    format      ascii;
    class       volVectorField;
    location    "0";
    object      U;
}
// * * * * * * * * * * * * * * * * * * * * * * * * * * * * * * * * * * * * * //

dimensions      [0 1 -1 0 0 0 0];


internalField   nonuniform List<vector> 
67500
(
(-0.0150591 0.0101911 0)
(-0.0278429 -0.00375541 0)
(0.00546391 -0.0193496 0)
(0.0492263 -0.025026 0)
(0.0986853 -0.0232782 0)
(0.141545 -0.0177574 0)
(0.172196 -0.0119269 0)
(0.191309 -0.0074179 0)
(0.202431 -0.00454622 0)
(0.209268 -0.00313083 0)
(0.214644 -0.00282228 0)
(0.220385 -0.00321703 0)
(0.227468 -0.00396508 0)
(0.23627 -0.00482948 0)
(0.246834 -0.00568225 0)
(0.25905 -0.0064711 0)
(0.27277 -0.0071848 0)
(0.287844 -0.00782797 0)
(0.30414 -0.0084063 0)
(0.321534 -0.00892038 0)
(0.339895 -0.00936532 0)
(0.359076 -0.00973315 0)
(0.378914 -0.0100157 0)
(0.399228 -0.0102076 0)
(0.419835 -0.0103097 0)
(0.440557 -0.0103295 0)
(0.461239 -0.0102777 0)
(0.481745 -0.0101642 0)
(0.501958 -0.00999862 0)
(0.521787 -0.00979308 0)
(0.541166 -0.00956038 0)
(0.560051 -0.00931112 0)
(0.578422 -0.0090529 0)
(0.596267 -0.00879093 0)
(0.613584 -0.00852798 0)
(0.630374 -0.00826501 0)
(0.646637 -0.00800217 0)
(0.662374 -0.00773927 0)
(0.677585 -0.00747623 0)
(0.69227 -0.00721323 0)
(0.706429 -0.00695079 0)
(0.720063 -0.00668965 0)
(0.733177 -0.00643072 0)
(0.745775 -0.00617495 0)
(0.757865 -0.00592325 0)
(0.769456 -0.00567646 0)
(0.780558 -0.0054353 0)
(0.791184 -0.00520033 0)
(0.801347 -0.00497201 0)
(0.81106 -0.00475067 0)
(0.820337 -0.00453652 0)
(0.829194 -0.00432972 0)
(0.837644 -0.00413031 0)
(0.845703 -0.0039383 0)
(0.853386 -0.00375366 0)
(0.860707 -0.0035763 0)
(0.867681 -0.0034061 0)
(0.874322 -0.00324294 0)
(0.880643 -0.00308665 0)
(0.886659 -0.00293705 0)
(0.892383 -0.00279396 0)
(0.897827 -0.00265719 0)
(0.903004 -0.00252653 0)
(0.907926 -0.00240178 0)
(0.912604 -0.00228272 0)
(0.91705 -0.00216915 0)
(0.921275 -0.00206085 0)
(0.925288 -0.00195763 0)
(0.9291 -0.00185927 0)
(0.93272 -0.00176559 0)
(0.936157 -0.00167637 0)
(0.93942 -0.00159144 0)
(0.942518 -0.00151061 0)
(0.945458 -0.0014337 0)
(0.948249 -0.00136054 0)
(0.950897 -0.00129096 0)
(0.953409 -0.00122481 0)
(0.955792 -0.00116192 0)
(0.958053 -0.00110217 0)
(0.960198 -0.00104539 0)
(0.962232 -0.000991469 0)
(0.964161 -0.000940262 0)
(0.96599 -0.000891647 0)
(0.967725 -0.000845504 0)
(0.96937 -0.000801715 0)
(0.97093 -0.000760169 0)
(0.972408 -0.000720757 0)
(0.973811 -0.000683376 0)
(0.97514 -0.000647925 0)
(0.9764 -0.000614309 0)
(0.977595 -0.000582434 0)
(0.978728 -0.000552211 0)
(0.979803 -0.000523556 0)
(0.980821 -0.000496385 0)
(0.981787 -0.000470621 0)
(0.982702 -0.000446188 0)
(0.98357 -0.000423014 0)
(0.984393 -0.000401033 0)
(0.985173 -0.000380178 0)
(0.985913 -0.000360391 0)
(0.986614 -0.000341614 0)
(0.987278 -0.000323795 0)
(0.987908 -0.000306884 0)
(0.988505 -0.000290836 0)
(0.989071 -0.000275608 0)
(0.989607 -0.000261162 0)
(0.990115 -0.000247459 0)
(0.990596 -0.000234466 0)
(0.991052 -0.00022215 0)
(0.991484 -0.000210479 0)
(0.991893 -0.000199424 0)
(0.992281 -0.000188956 0)
(0.992648 -0.000179048 0)
(0.992996 -0.000169673 0)
(0.993326 -0.000160806 0)
(0.993639 -0.000152422 0)
(0.993936 -0.000144498 0)
(0.994217 -0.00013701 0)
(0.994483 -0.000129937 0)
(0.994736 -0.000123257 0)
(0.994976 -0.000116951 0)
(0.995204 -0.000110999 0)
(0.99542 -0.000105382 0)
(0.995625 -0.000100083 0)
(0.99582 -9.50846e-05 0)
(0.996005 -9.03694e-05 0)
(0.996181 -8.59216e-05 0)
(0.996348 -8.17258e-05 0)
(0.996507 -7.7767e-05 0)
(0.996659 -7.40308e-05 0)
(0.996803 -7.05032e-05 0)
(0.996941 -6.71711e-05 0)
(0.997072 -6.40216e-05 0)
(0.997197 -6.10427e-05 0)
(0.997316 -5.8223e-05 0)
(0.99743 -5.55517e-05 0)
(0.997538 -5.30187e-05 0)
(0.997641 -5.06145e-05 0)
(0.99774 -4.83303e-05 0)
(0.997835 -4.61581e-05 0)
(0.997925 -4.40906e-05 0)
(0.998011 -4.21208e-05 0)
(0.998093 -4.02426e-05 0)
(0.998172 -3.84504e-05 0)
(0.998247 -3.67391e-05 0)
(0.998319 -3.51041e-05 0)
(0.998387 -3.35412e-05 0)
(0.998453 -3.20467e-05 0)
(0.998515 -3.0617e-05 0)
(0.998575 -2.92492e-05 0)
(0.998632 -2.79403e-05 0)
(0.998687 -2.66877e-05 0)
(0.998739 -2.5489e-05 0)
(0.998789 -2.4342e-05 0)
(0.998836 -2.32446e-05 0)
(0.998882 -2.21948e-05 0)
(0.998925 -2.11907e-05 0)
(0.998966 -2.02305e-05 0)
(0.999006 -1.93127e-05 0)
(0.999044 -1.84354e-05 0)
(0.99908 -1.75972e-05 0)
(0.999114 -1.67964e-05 0)
(0.999147 -1.60317e-05 0)
(0.999178 -1.53016e-05 0)
(0.999208 -1.46047e-05 0)
(0.999236 -1.39397e-05 0)
(0.999264 -1.33051e-05 0)
(0.99929 -1.26998e-05 0)
(0.999314 -1.21226e-05 0)
(0.999338 -1.15721e-05 0)
(0.999361 -1.10474e-05 0)
(0.999382 -1.05473e-05 0)
(0.999403 -1.00706e-05 0)
(0.999423 -9.61647e-06 0)
(0.999441 -9.18383e-06 0)
(0.999459 -8.77175e-06 0)
(0.999476 -8.37934e-06 0)
(0.999493 -8.00571e-06 0)
(0.999508 -7.65006e-06 0)
(0.999523 -7.31158e-06 0)
(0.999538 -6.98953e-06 0)
(0.999551 -6.68317e-06 0)
(0.999564 -6.39183e-06 0)
(0.999577 -6.11485e-06 0)
(0.999589 -5.85159e-06 0)
(0.9996 -5.60145e-06 0)
(0.999611 -5.36387e-06 0)
(0.999622 -5.13828e-06 0)
(0.999632 -4.92417e-06 0)
(0.999641 -4.72103e-06 0)
(0.999651 -4.52838e-06 0)
(0.999659 -4.34575e-06 0)
(0.999668 -4.17269e-06 0)
(0.999676 -4.00878e-06 0)
(0.999684 -3.8536e-06 0)
(0.999692 -3.70675e-06 0)
(0.999699 -3.56784e-06 0)
(0.999706 -3.43651e-06 0)
(0.999713 -3.31238e-06 0)
(0.999719 -3.19512e-06 0)
(0.999725 -3.08439e-06 0)
(0.999731 -2.97985e-06 0)
(0.999737 -2.8812e-06 0)
(0.999743 -2.78812e-06 0)
(0.999748 -2.70031e-06 0)
(0.999754 -2.61748e-06 0)
(0.999759 -2.53935e-06 0)
(0.999764 -2.46565e-06 0)
(0.999769 -2.39611e-06 0)
(0.999773 -2.33048e-06 0)
(0.999778 -2.26849e-06 0)
(0.999783 -2.20992e-06 0)
(0.999787 -2.15452e-06 0)
(0.999791 -2.10206e-06 0)
(0.999795 -2.05232e-06 0)
(0.999799 -2.0051e-06 0)
(0.999803 -1.96017e-06 0)
(0.999807 -1.91736e-06 0)
(0.999811 -1.87646e-06 0)
(0.999815 -1.83729e-06 0)
(0.999818 -1.79969e-06 0)
(0.999822 -1.76348e-06 0)
(0.999825 -1.72851e-06 0)
(0.999829 -1.69462e-06 0)
(0.999832 -1.6617e-06 0)
(0.999835 -1.62959e-06 0)
(0.999839 -1.59819e-06 0)
(0.999842 -1.56739e-06 0)
(0.999845 -1.53709e-06 0)
(0.999848 -1.50719e-06 0)
(0.999851 -1.47763e-06 0)
(0.999854 -1.44834e-06 0)
(0.999857 -1.41927e-06 0)
(0.99986 -1.39036e-06 0)
(0.999862 -1.3616e-06 0)
(0.999865 -1.33295e-06 0)
(0.999868 -1.30442e-06 0)
(0.99987 -1.27599e-06 0)
(0.999873 -1.24768e-06 0)
(0.999875 -1.21949e-06 0)
(0.999878 -1.19144e-06 0)
(0.99988 -1.16355e-06 0)
(0.999882 -1.13584e-06 0)
(0.999885 -1.10832e-06 0)
(0.999887 -1.08102e-06 0)
(0.999889 -1.05394e-06 0)
(0.999891 -1.02711e-06 0)
(0.999893 -1.00054e-06 0)
(0.999895 -9.74234e-07 0)
(0.999897 -9.48228e-07 0)
(0.999899 -9.22551e-07 0)
(0.999901 -8.97245e-07 0)
(0.999902 -8.7237e-07 0)
(0.999904 -8.48001e-07 0)
(0.999906 -8.2423e-07 0)
(0.999907 -8.01162e-07 0)
(0.999909 -7.78913e-07 0)
(0.99991 -7.57601e-07 0)
(0.999912 -7.37339e-07 0)
(0.999913 -7.18216e-07 0)
(0.999915 -7.00294e-07 0)
(0.999916 -6.83586e-07 0)
(0.999918 -6.68053e-07 0)
(0.999919 -6.53594e-07 0)
(0.99992 -6.4005e-07 0)
(0.999921 -6.27206e-07 0)
(0.999923 -6.14816e-07 0)
(0.999924 -6.02616e-07 0)
(0.999925 -5.9036e-07 0)
(0.999926 -5.77845e-07 0)
(0.999927 -5.64943e-07 0)
(0.999929 -5.51617e-07 0)
(0.99993 -5.37937e-07 0)
(0.999931 -5.24076e-07 0)
(0.999932 -5.10296e-07 0)
(0.999933 -4.96925e-07 0)
(0.999934 -4.84321e-07 0)
(0.999935 -4.72835e-07 0)
(0.999936 -4.62775e-07 0)
(0.999936 -4.54378e-07 0)
(0.999937 -4.47785e-07 0)
(0.999938 -4.43035e-07 0)
(0.999939 -4.40063e-07 0)
(0.99994 -4.3871e-07 0)
(0.999941 -4.38742e-07 0)
(0.999942 -4.39874e-07 0)
(0.999943 -4.41788e-07 0)
(0.999944 -4.44157e-07 0)
(0.999944 -4.46667e-07 0)
(0.999945 -4.49031e-07 0)
(0.999946 -4.51e-07 0)
(0.999947 -4.52368e-07 0)
(0.999948 -4.52977e-07 0)
(0.999949 -4.52718e-07 0)
(0.99995 -4.51523e-07 0)
(0.999951 -4.49368e-07 0)
(0.999952 -4.46258e-07 0)
(0.999953 -4.42229e-07 0)
(0.999953 -4.37336e-07 0)
(0.999954 -4.31652e-07 0)
(0.999955 -4.2526e-07 0)
(0.999956 -4.18247e-07 0)
(0.999957 -4.10705e-07 0)
(0.999958 -4.02724e-07 0)
(0.999958 -3.9439e-07 0)
(0.999959 -3.85787e-07 0)
(0.99996 -3.76989e-07 0)
(0.999961 -3.68066e-07 0)
(0.999961 -3.59081e-07 0)
(0.999962 -3.50089e-07 0)
(0.999963 -3.41137e-07 0)
(0.999964 -3.32269e-07 0)
(0.999964 -3.23517e-07 0)
(0.999965 -3.14913e-07 0)
(0.999965 -3.0648e-07 0)
(0.999966 -2.98237e-07 0)
(0.999967 -2.90199e-07 0)
(0.999967 -2.82378e-07 0)
(0.999968 -2.74781e-07 0)
(0.999968 -2.67414e-07 0)
(0.999969 -2.60279e-07 0)
(0.999969 -2.53378e-07 0)
(0.99997 -2.46708e-07 0)
(0.99997 -2.40269e-07 0)
(0.999971 -2.34055e-07 0)
(0.999971 -2.28063e-07 0)
(0.999972 -2.22287e-07 0)
(0.999972 -2.16721e-07 0)
(0.999973 -2.11359e-07 0)
(0.999973 -2.06195e-07 0)
(0.999973 -2.0122e-07 0)
(0.999974 -1.96429e-07 0)
(0.999974 -1.91815e-07 0)
(0.999975 -1.8737e-07 0)
(0.999975 -1.83087e-07 0)
(0.999975 -1.7896e-07 0)
(0.999976 -1.74982e-07 0)
(0.999976 -1.71146e-07 0)
(0.999976 -1.67446e-07 0)
(0.999977 -1.63877e-07 0)
(0.999977 -1.60432e-07 0)
(0.999977 -1.57105e-07 0)
(0.999978 -1.53891e-07 0)
(0.999978 -1.50785e-07 0)
(0.999978 -1.47781e-07 0)
(0.999979 -1.44875e-07 0)
(0.999979 -1.42063e-07 0)
(0.999979 -1.3934e-07 0)
(0.999979 -1.36701e-07 0)
(0.99998 -1.34143e-07 0)
(0.99998 -1.31662e-07 0)
(0.99998 -1.29254e-07 0)
(0.99998 -1.26917e-07 0)
(0.999981 -1.24646e-07 0)
(0.999981 -1.22438e-07 0)
(0.999981 -1.20292e-07 0)
(0.999981 -1.18203e-07 0)
(0.999982 -1.1617e-07 0)
(0.999982 -1.14189e-07 0)
(0.999982 -1.12259e-07 0)
(0.999982 -1.10376e-07 0)
(0.999983 -1.0854e-07 0)
(0.999983 -1.06748e-07 0)
(0.999983 -1.04998e-07 0)
(0.999983 -1.03288e-07 0)
(0.999983 -1.01617e-07 0)
(0.999984 -9.99825e-08 0)
(0.999984 -9.83835e-08 0)
(0.999984 -9.68184e-08 0)
(0.999984 -9.52859e-08 0)
(0.999984 -9.37845e-08 0)
(0.999985 -9.23131e-08 0)
(0.999985 -9.08705e-08 0)
(0.999985 -8.94555e-08 0)
(0.999985 -8.8067e-08 0)
(0.999985 -8.67042e-08 0)
(0.999985 -8.53659e-08 0)
(0.999986 -8.40514e-08 0)
(0.999986 -8.27597e-08 0)
(0.999986 -8.149e-08 0)
(0.999986 -8.02415e-08 0)
(0.999986 -7.90136e-08 0)
(0.999986 -7.78054e-08 0)
(0.999987 -7.66163e-08 0)
(0.999987 -7.54457e-08 0)
(0.999987 -7.4293e-08 0)
(0.999987 -7.31576e-08 0)
(0.999987 -7.2039e-08 0)
(0.999987 -7.09365e-08 0)
(0.999987 -6.98497e-08 0)
(0.999988 -6.87782e-08 0)
(0.999988 -6.77215e-08 0)
(0.999988 -6.66791e-08 0)
(0.999988 -6.56507e-08 0)
(0.999988 -6.46358e-08 0)
(0.999988 -6.36341e-08 0)
(0.999988 -6.26452e-08 0)
(0.999988 -6.16687e-08 0)
(0.999989 -6.07043e-08 0)
(0.999989 -5.97517e-08 0)
(0.999989 -5.88106e-08 0)
(0.999989 -5.78806e-08 0)
(0.999989 -5.69616e-08 0)
(0.999989 -5.60532e-08 0)
(0.999989 -5.51552e-08 0)
(0.999989 -5.42674e-08 0)
(0.99999 -5.33893e-08 0)
(0.99999 -5.25209e-08 0)
(0.99999 -5.16619e-08 0)
(0.99999 -5.08121e-08 0)
(0.99999 -4.99712e-08 0)
(0.99999 -4.91392e-08 0)
(0.99999 -4.83157e-08 0)
(0.99999 -4.75006e-08 0)
(0.99999 -4.66937e-08 0)
(0.99999 -4.58948e-08 0)
(0.999991 -4.51037e-08 0)
(0.999991 -4.43203e-08 0)
(0.999991 -4.35444e-08 0)
(0.999991 -4.27759e-08 0)
(0.999991 -4.20145e-08 0)
(0.999991 -4.12602e-08 0)
(0.999991 -4.05127e-08 0)
(0.999991 -3.97719e-08 0)
(0.999991 -3.90378e-08 0)
(0.999991 -3.831e-08 0)
(0.999991 -3.75886e-08 0)
(0.999991 -3.68733e-08 0)
(0.999991 -3.61641e-08 0)
(0.999992 -3.54609e-08 0)
(0.999992 -3.47634e-08 0)
(0.999992 -3.40716e-08 0)
(0.999992 -3.33853e-08 0)
(0.999992 -3.27045e-08 0)
(0.999992 -3.20289e-08 0)
(0.999992 -3.13585e-08 0)
(0.999992 -3.06932e-08 0)
(0.999992 -3.00329e-08 0)
(0.999992 -2.93774e-08 0)
(0.999992 -2.87267e-08 0)
(0.999992 -2.80806e-08 0)
(0.999992 -2.74391e-08 0)
(0.999992 -2.6802e-08 0)
(0.999992 -2.61692e-08 0)
(0.999992 -2.5541e-08 0)
(0.999993 -2.49155e-08 0)
(0.999993 -2.42999e-08 0)
(0.999993 -2.3663e-08 0)
(0.999993 -2.31376e-08 0)
(0.999993 -2.21569e-08 0)
(-0.0171457 0.0303522 0)
(-0.0260324 -0.0123239 0)
(0.00604872 -0.0575918 0)
(0.0520999 -0.0747384 0)
(0.1022 -0.0708102 0)
(0.143755 -0.0539647 0)
(0.172692 -0.0354613 0)
(0.190529 -0.0216252 0)
(0.200882 -0.0132255 0)
(0.207357 -0.00923315 0)
(0.212691 -0.00847932 0)
(0.218594 -0.00975234 0)
(0.225911 -0.0120173 0)
(0.23492 -0.0145934 0)
(0.245626 -0.0171246 0)
(0.257926 -0.0194695 0)
(0.271694 -0.0216001 0)
(0.286808 -0.0235304 0)
(0.303159 -0.0252743 0)
(0.320635 -0.0268297 0)
(0.33911 -0.0281783 0)
(0.358435 -0.0292936 0)
(0.378436 -0.0301487 0)
(0.398923 -0.0307253 0)
(0.419695 -0.031025 0)
(0.440564 -0.0310734 0)
(0.461373 -0.0309055 0)
(0.481987 -0.0305509 0)
(0.50229 -0.0300388 0)
(0.522185 -0.0294069 0)
(0.541607 -0.0286964 0)
(0.560519 -0.0279395 0)
(0.578904 -0.0271585 0)
(0.596756 -0.0263687 0)
(0.614076 -0.0255779 0)
(0.630867 -0.0247882 0)
(0.647132 -0.0239994 0)
(0.66287 -0.0232106 0)
(0.678083 -0.0224212 0)
(0.692768 -0.0216318 0)
(0.706925 -0.0208438 0)
(0.720557 -0.0200597 0)
(0.733666 -0.0192822 0)
(0.746258 -0.0185143 0)
(0.75834 -0.0177587 0)
(0.769921 -0.0170179 0)
(0.781012 -0.0162942 0)
(0.791626 -0.0155892 0)
(0.801776 -0.0149042 0)
(0.811475 -0.0142403 0)
(0.820739 -0.0135981 0)
(0.829581 -0.0129779 0)
(0.838018 -0.01238 0)
(0.846063 -0.0118044 0)
(0.853732 -0.0112508 0)
(0.861039 -0.0107191 0)
(0.867999 -0.0102089 0)
(0.874627 -0.00971983 0)
(0.880936 -0.00925135 0)
(0.886939 -0.00880296 0)
(0.892651 -0.00837409 0)
(0.898083 -0.00796415 0)
(0.903249 -0.00757253 0)
(0.908159 -0.00719862 0)
(0.912827 -0.00684179 0)
(0.917263 -0.0065014 0)
(0.921478 -0.00617683 0)
(0.925481 -0.00586746 0)
(0.929284 -0.00557267 0)
(0.932895 -0.00529188 0)
(0.936324 -0.00502449 0)
(0.93958 -0.00476994 0)
(0.94267 -0.00452767 0)
(0.945603 -0.00429716 0)
(0.948387 -0.00407787 0)
(0.951028 -0.00386933 0)
(0.953534 -0.00367105 0)
(0.955911 -0.00348257 0)
(0.958166 -0.00330346 0)
(0.960305 -0.00313329 0)
(0.962334 -0.00297166 0)
(0.964258 -0.00281818 0)
(0.966083 -0.00267246 0)
(0.967813 -0.00253416 0)
(0.969453 -0.00240291 0)
(0.971009 -0.00227838 0)
(0.972483 -0.00216026 0)
(0.973882 -0.00204821 0)
(0.975208 -0.00194196 0)
(0.976465 -0.0018412 0)
(0.977656 -0.00174567 0)
(0.978786 -0.00165509 0)
(0.979857 -0.0015692 0)
(0.980873 -0.00148777 0)
(0.981836 -0.00141055 0)
(0.982749 -0.00133732 0)
(0.983615 -0.00126787 0)
(0.984435 -0.00120199 0)
(0.985213 -0.00113948 0)
(0.985951 -0.00108018 0)
(0.98665 -0.0010239 0)
(0.987313 -0.000970488 0)
(0.987941 -0.0009198 0)
(0.988536 -0.000871698 0)
(0.9891 -0.000826054 0)
(0.989634 -0.00078275 0)
(0.990141 -0.000741677 0)
(0.990621 -0.00070273 0)
(0.991075 -0.000665811 0)
(0.991506 -0.000630828 0)
(0.991914 -0.000597691 0)
(0.992301 -0.000566315 0)
(0.992667 -0.000536616 0)
(0.993015 -0.000508517 0)
(0.993344 -0.00048194 0)
(0.993655 -0.000456812 0)
(0.993951 -0.00043306 0)
(0.994231 -0.000410618 0)
(0.994497 -0.000389419 0)
(0.994749 -0.0003694 0)
(0.994988 -0.000350501 0)
(0.995215 -0.000332663 0)
(0.99543 -0.000315831 0)
(0.995635 -0.000299952 0)
(0.995829 -0.000284972 0)
(0.996014 -0.000270842 0)
(0.996189 -0.000257514 0)
(0.996356 -0.000244942 0)
(0.996515 -0.000233079 0)
(0.996666 -0.000221884 0)
(0.99681 -0.000211315 0)
(0.996947 -0.000201331 0)
(0.997078 -0.000191895 0)
(0.997203 -0.000182969 0)
(0.997321 -0.000174521 0)
(0.997435 -0.000166517 0)
(0.997543 -0.000158927 0)
(0.997646 -0.000151723 0)
(0.997745 -0.000144879 0)
(0.997839 -0.00013837 0)
(0.997929 -0.000132174 0)
(0.998015 -0.000126271 0)
(0.998097 -0.000120642 0)
(0.998175 -0.00011527 0)
(0.99825 -0.000110141 0)
(0.998322 -0.00010524 0)
(0.99839 -0.000100555 0)
(0.998456 -9.60751e-05 0)
(0.998518 -9.17892e-05 0)
(0.998578 -8.76885e-05 -4.41225e-42)
(0.998635 -8.37644e-05 -4.35809e-42)
(0.998689 -8.00091e-05 0)
(0.998741 -7.64153e-05 0)
(0.998791 -7.29764e-05 0)
(0.998838 -6.96861e-05 0)
(0.998884 -6.65385e-05 0)
(0.998927 -6.3528e-05 0)
(0.998968 -6.06493e-05 0)
(0.999008 -5.78973e-05 0)
(0.999045 -5.52671e-05 0)
(0.999081 -5.2754e-05 0)
(0.999116 -5.03533e-05 0)
(0.999148 -4.80606e-05 0)
(0.99918 -4.58717e-05 0)
(0.999209 -4.37823e-05 0)
(0.999238 -4.17884e-05 0)
(0.999265 -3.98861e-05 0)
(0.999291 -3.80714e-05 0)
(0.999316 -3.63409e-05 0)
(0.999339 -3.46907e-05 0)
(0.999362 -3.31176e-05 0)
(0.999383 -3.16182e-05 0)
(0.999404 -3.01894e-05 0)
(0.999423 -2.88279e-05 0)
(0.999442 -2.75309e-05 0)
(0.99946 -2.62956e-05 0)
(0.999477 -2.51192e-05 0)
(0.999494 -2.39992e-05 0)
(0.999509 -2.2933e-05 0)
(0.999524 -2.19183e-05 0)
(0.999538 -2.09529e-05 0)
(0.999552 -2.00345e-05 0)
(0.999565 -1.91611e-05 0)
(0.999577 -1.83308e-05 0)
(0.999589 -1.75416e-05 0)
(0.999601 -1.67918e-05 0)
(0.999612 -1.60796e-05 0)
(0.999622 -1.54034e-05 0)
(0.999632 -1.47615e-05 0)
(0.999642 -1.41526e-05 0)
(0.999651 -1.35751e-05 0)
(0.99966 -1.30277e-05 0)
(0.999668 -1.25089e-05 0)
(0.999676 -1.20176e-05 0)
(0.999684 -1.15525e-05 0)
(0.999692 -1.11123e-05 0)
(0.999699 -1.06959e-05 0)
(0.999706 -1.03023e-05 0)
(0.999713 -9.93029e-06 0)
(0.999719 -9.57885e-06 0)
(0.999726 -9.24697e-06 0)
(0.999732 -8.93368e-06 0)
(0.999737 -8.63802e-06 0)
(0.999743 -8.35907e-06 0)
(0.999749 -8.09593e-06 0)
(0.999754 -7.84774e-06 0)
(0.999759 -7.61363e-06 0)
(0.999764 -7.3928e-06 0)
(0.999769 -7.18444e-06 0)
(0.999774 -6.98778e-06 0)
(0.999778 -6.80207e-06 0)
(0.999783 -6.62658e-06 0)
(0.999787 -6.4606e-06 0)
(0.999791 -6.30345e-06 0)
(0.999795 -6.15445e-06 0)
(0.999799 -6.01298e-06 0)
(0.999803 -5.87842e-06 0)
(0.999807 -5.75016e-06 0)
(0.999811 -5.62764e-06 0)
(0.999815 -5.51032e-06 0)
(0.999818 -5.39767e-06 0)
(0.999822 -5.28919e-06 0)
(0.999825 -5.18442e-06 0)
(0.999829 -5.08292e-06 0)
(0.999832 -4.98426e-06 0)
(0.999836 -4.88807e-06 0)
(0.999839 -4.79398e-06 0)
(0.999842 -4.70167e-06 0)
(0.999845 -4.61085e-06 0)
(0.999848 -4.52124e-06 0)
(0.999851 -4.43263e-06 0)
(0.999854 -4.34481e-06 0)
(0.999857 -4.25762e-06 0)
(0.99986 -4.17094e-06 0)
(0.999862 -4.08466e-06 0)
(0.999865 -3.99874e-06 0)
(0.999868 -3.91314e-06 0)
(0.99987 -3.82785e-06 0)
(0.999873 -3.7429e-06 0)
(0.999875 -3.65832e-06 0)
(0.999878 -3.57415e-06 0)
(0.99988 -3.49047e-06 0)
(0.999882 -3.40732e-06 0)
(0.999885 -3.32475e-06 0)
(0.999887 -3.24283e-06 0)
(0.999889 -3.16159e-06 0)
(0.999891 -3.08108e-06 0)
(0.999893 -3.00133e-06 0)
(0.999895 -2.9224e-06 0)
(0.999897 -2.84435e-06 0)
(0.999899 -2.76727e-06 0)
(0.999901 -2.6913e-06 0)
(0.999902 -2.6166e-06 0)
(0.999904 -2.5434e-06 0)
(0.999906 -2.47198e-06 0)
(0.999907 -2.40267e-06 0)
(0.999909 -2.33581e-06 0)
(0.99991 -2.27177e-06 0)
(0.999912 -2.21089e-06 0)
(0.999913 -2.15347e-06 0)
(0.999915 -2.09969e-06 0)
(0.999916 -2.04961e-06 0)
(0.999918 -2.00311e-06 0)
(0.999919 -1.95989e-06 0)
(0.99992 -1.91946e-06 0)
(0.999921 -1.88117e-06 0)
(0.999923 -1.84425e-06 0)
(0.999924 -1.80788e-06 0)
(0.999925 -1.7713e-06 0)
(0.999926 -1.73388e-06 0)
(0.999927 -1.6952e-06 0)
(0.999929 -1.65516e-06 0)
(0.99993 -1.61395e-06 0)
(0.999931 -1.57212e-06 0)
(0.999932 -1.53047e-06 0)
(0.999933 -1.49001e-06 0)
(0.999934 -1.45186e-06 0)
(0.999935 -1.41711e-06 0)
(0.999936 -1.3867e-06 0)
(0.999937 -1.36138e-06 0)
(0.999937 -1.34156e-06 0)
(0.999938 -1.32737e-06 0)
(0.999939 -1.31861e-06 0)
(0.99994 -1.31477e-06 0)
(0.999941 -1.31515e-06 0)
(0.999942 -1.31885e-06 0)
(0.999943 -1.3249e-06 0)
(0.999944 -1.33232e-06 0)
(0.999944 -1.34013e-06 0)
(0.999945 -1.34747e-06 0)
(0.999946 -1.35358e-06 0)
(0.999947 -1.35784e-06 0)
(0.999948 -1.35978e-06 0)
(0.999949 -1.35907e-06 0)
(0.99995 -1.35552e-06 0)
(0.999951 -1.34904e-06 0)
(0.999952 -1.33968e-06 0)
(0.999953 -1.32754e-06 0)
(0.999953 -1.31279e-06 0)
(0.999954 -1.29566e-06 0)
(0.999955 -1.2764e-06 0)
(0.999956 -1.25527e-06 0)
(0.999957 -1.23256e-06 0)
(0.999958 -1.20853e-06 0)
(0.999958 -1.18344e-06 0)
(0.999959 -1.15756e-06 0)
(0.99996 -1.13109e-06 0)
(0.999961 -1.10426e-06 0)
(0.999961 -1.07725e-06 0)
(0.999962 -1.05023e-06 0)
(0.999963 -1.02333e-06 0)
(0.999964 -9.96691e-07 0)
(0.999964 -9.70407e-07 0)
(0.999965 -9.4457e-07 0)
(0.999965 -9.19251e-07 0)
(0.999966 -8.94506e-07 0)
(0.999967 -8.70381e-07 0)
(0.999967 -8.46909e-07 0)
(0.999968 -8.24114e-07 0)
(0.999968 -8.0201e-07 0)
(0.999969 -7.80605e-07 0)
(0.999969 -7.59902e-07 0)
(0.99997 -7.39896e-07 0)
(0.99997 -7.20581e-07 0)
(0.999971 -7.01944e-07 0)
(0.999971 -6.83973e-07 0)
(0.999972 -6.66651e-07 0)
(0.999972 -6.4996e-07 0)
(0.999973 -6.33881e-07 0)
(0.999973 -6.18393e-07 0)
(0.999973 -6.03477e-07 0)
(0.999974 -5.89111e-07 0)
(0.999974 -5.75275e-07 0)
(0.999975 -5.61946e-07 0)
(0.999975 -5.49105e-07 0)
(0.999975 -5.3673e-07 0)
(0.999976 -5.24802e-07 0)
(0.999976 -5.13302e-07 0)
(0.999976 -5.02209e-07 0)
(0.999977 -4.91507e-07 0)
(0.999977 -4.81177e-07 0)
(0.999977 -4.71201e-07 0)
(0.999978 -4.61565e-07 0)
(0.999978 -4.52251e-07 0)
(0.999978 -4.43245e-07 0)
(0.999979 -4.34533e-07 0)
(0.999979 -4.261e-07 0)
(0.999979 -4.17934e-07 0)
(0.999979 -4.10022e-07 0)
(0.99998 -4.02352e-07 0)
(0.99998 -3.94912e-07 0)
(0.99998 -3.87693e-07 0)
(0.99998 -3.80683e-07 0)
(0.999981 -3.73874e-07 0)
(0.999981 -3.67255e-07 0)
(0.999981 -3.60817e-07 0)
(0.999981 -3.54554e-07 0)
(0.999982 -3.48456e-07 0)
(0.999982 -3.42516e-07 0)
(0.999982 -3.36727e-07 0)
(0.999982 -3.31083e-07 0)
(0.999983 -3.25577e-07 0)
(0.999983 -3.20202e-07 0)
(0.999983 -3.14954e-07 0)
(0.999983 -3.09826e-07 0)
(0.999983 -3.04814e-07 0)
(0.999984 -2.99912e-07 0)
(0.999984 -2.95117e-07 0)
(0.999984 -2.90423e-07 0)
(0.999984 -2.85826e-07 0)
(0.999984 -2.81324e-07 0)
(0.999985 -2.7691e-07 0)
(0.999985 -2.72584e-07 0)
(0.999985 -2.6834e-07 0)
(0.999985 -2.64175e-07 0)
(0.999985 -2.60088e-07 0)
(0.999985 -2.56074e-07 0)
(0.999986 -2.52131e-07 0)
(0.999986 -2.48257e-07 0)
(0.999986 -2.44449e-07 0)
(0.999986 -2.40704e-07 0)
(0.999986 -2.37021e-07 0)
(0.999986 -2.33397e-07 0)
(0.999987 -2.29831e-07 0)
(0.999987 -2.26319e-07 0)
(0.999987 -2.22862e-07 0)
(0.999987 -2.19456e-07 0)
(0.999987 -2.16101e-07 0)
(0.999987 -2.12794e-07 0)
(0.999987 -2.09534e-07 0)
(0.999988 -2.0632e-07 0)
(0.999988 -2.0315e-07 0)
(0.999988 -2.00023e-07 0)
(0.999988 -1.96939e-07 0)
(0.999988 -1.93894e-07 0)
(0.999988 -1.9089e-07 0)
(0.999988 -1.87923e-07 0)
(0.999989 -1.84994e-07 0)
(0.999989 -1.82101e-07 0)
(0.999989 -1.79244e-07 0)
(0.999989 -1.76421e-07 0)
(0.999989 -1.73631e-07 0)
(0.999989 -1.70874e-07 0)
(0.999989 -1.68149e-07 0)
(0.999989 -1.65456e-07 0)
(0.999989 -1.62792e-07 0)
(0.99999 -1.60158e-07 0)
(0.99999 -1.57553e-07 0)
(0.99999 -1.54976e-07 0)
(0.99999 -1.52427e-07 0)
(0.99999 -1.49905e-07 0)
(0.99999 -1.47409e-07 0)
(0.99999 -1.44939e-07 0)
(0.99999 -1.42494e-07 0)
(0.99999 -1.40073e-07 0)
(0.99999 -1.37676e-07 0)
(0.999991 -1.35303e-07 0)
(0.999991 -1.32953e-07 0)
(0.999991 -1.30626e-07 0)
(0.999991 -1.2832e-07 0)
(0.999991 -1.26036e-07 0)
(0.999991 -1.23774e-07 0)
(0.999991 -1.21531e-07 0)
(0.999991 -1.19309e-07 0)
(0.999991 -1.17107e-07 0)
(0.999991 -1.14924e-07 0)
(0.999991 -1.1276e-07 0)
(0.999991 -1.10614e-07 0)
(0.999991 -1.08486e-07 0)
(0.999992 -1.06377e-07 0)
(0.999992 -1.04284e-07 0)
(0.999992 -1.02209e-07 0)
(0.999992 -1.0015e-07 0)
(0.999992 -9.8108e-08 0)
(0.999992 -9.60814e-08 0)
(0.999992 -9.40704e-08 0)
(0.999992 -9.20747e-08 0)
(0.999992 -9.00938e-08 0)
(0.999992 -8.81275e-08 0)
(0.999992 -8.61755e-08 0)
(0.999992 -8.42374e-08 0)
(0.999992 -8.23129e-08 0)
(0.999992 -8.04018e-08 0)
(0.999992 -7.85035e-08 0)
(0.999992 -7.66188e-08 0)
(0.999993 -7.47424e-08 0)
(0.999993 -7.28958e-08 0)
(0.999993 -7.09853e-08 0)
(0.999993 -6.94091e-08 0)
(0.999993 -6.64671e-08 0)
(-0.014939 0.0493388 0)
(-0.0231606 -0.021854 0)
(0.0134432 -0.096415 0)
(0.0780256 -0.126026 0)
(0.130145 -0.113974 0)
(0.159786 -0.0851615 0)
(0.17587 -0.0564991 0)
(0.186886 -0.0348764 0)
(0.195563 -0.0214744 0)
(0.202249 -0.0152273 0)
(0.208129 -0.0143165 0)
(0.214669 -0.0166266 0)
(0.222601 -0.020421 0)
(0.232073 -0.0246367 0)
(0.243045 -0.0287563 0)
(0.255455 -0.0325888 0)
(0.269245 -0.0361039 0)
(0.28437 -0.0393233 0)
(0.300778 -0.0422594 0)
(0.318399 -0.0448937 0)
(0.33712 -0.0471836 0)
(0.356785 -0.0490755 0)
(0.377199 -0.050517 0)
(0.398129 -0.0514715 0)
(0.419327 -0.051943 0)
(0.440568 -0.0519908 0)
(0.461685 -0.0516876 0)
(0.482549 -0.0510761 0)
(0.503041 -0.0501931 0)
(0.523062 -0.0491035 0)
(0.542556 -0.0478874 0)
(0.561506 -0.0466019 0)
(0.579906 -0.0452833 0)
(0.597761 -0.0439577 0)
(0.615081 -0.0426359 0)
(0.631872 -0.0413186 0)
(0.648139 -0.040004 0)
(0.663881 -0.0386893 0)
(0.679096 -0.0373727 0)
(0.693783 -0.0360552 0)
(0.70794 -0.0347394 0)
(0.721566 -0.0334295 0)
(0.734667 -0.0321305 0)
(0.747245 -0.0308474 0)
(0.75931 -0.0295852 0)
(0.770871 -0.0283481 0)
(0.78194 -0.0271398 0)
(0.792529 -0.0259631 0)
(0.802653 -0.0248203 0)
(0.812325 -0.0237129 0)
(0.82156 -0.0226419 0)
(0.830374 -0.021608 0)
(0.838781 -0.0206113 0)
(0.846798 -0.0196519 0)
(0.854438 -0.0187295 0)
(0.861717 -0.0178436 0)
(0.86865 -0.0169936 0)
(0.875251 -0.0161789 0)
(0.881533 -0.0153986 0)
(0.887511 -0.0146518 0)
(0.893197 -0.0139375 0)
(0.898606 -0.0132549 0)
(0.903748 -0.0126028 0)
(0.908636 -0.0119802 0)
(0.913282 -0.0113861 0)
(0.917697 -0.0108194 0)
(0.921891 -0.010279 0)
(0.925876 -0.00976403 0)
(0.92966 -0.00927332 0)
(0.933254 -0.00880592 0)
(0.936666 -0.00836084 0)
(0.939905 -0.00793713 0)
(0.94298 -0.00753389 0)
(0.945898 -0.0071502 0)
(0.948667 -0.00678523 0)
(0.951294 -0.00643813 0)
(0.953787 -0.00610812 0)
(0.956152 -0.00579444 0)
(0.958396 -0.00549635 0)
(0.960523 -0.00521315 0)
(0.962541 -0.00494416 0)
(0.964455 -0.00468874 0)
(0.966269 -0.00444625 0)
(0.96799 -0.0042161 0)
(0.969621 -0.0039977 0)
(0.971168 -0.00379049 0)
(0.972635 -0.00359393 0)
(0.974026 -0.00340751 0)
(0.975344 -0.00323072 0)
(0.976594 -0.00306308 0)
(0.977779 -0.00290413 0)
(0.978903 -0.00275343 0)
(0.979968 -0.00261055 0)
(0.980978 -0.00247507 0)
(0.981936 -0.00234661 0)
(0.982843 -0.00222479 0)
(0.983704 -0.00210925 0)
(0.98452 -0.00199965 0)
(0.985294 -0.00189567 0)
(0.986027 -0.00179701 0)
(0.986723 -0.00170338 0)
(0.987382 -0.00161452 0)
(0.988006 -0.00153019 0)
(0.988598 -0.00145015 0)
(0.989159 -0.0013742 0)
(0.98969 -0.00130215 0)
(0.990194 -0.00123381 0)
(0.990671 -0.001169 0)
(0.991123 -0.00110757 0)
(0.991551 -0.00104936 0)
(0.991957 -0.000994223 0)
(0.992342 -0.000942018 0)
(0.992706 -0.000892607 0)
(0.993051 -0.000845857 0)
(0.993378 -0.000801642 0)
(0.993688 -0.000759838 0)
(0.993982 -0.000720327 0)
(0.99426 -0.000682995 0)
(0.994524 -0.000647732 0)
(0.994775 -0.000614433 0)
(0.995013 -0.000582998 0)
(0.995238 -0.00055333 0)
(0.995452 -0.000525336 0)
(0.995656 -0.000498926 0)
(0.995849 -0.000474014 0)
(0.996032 -0.000450518 0)
(0.996207 -0.000428356 0)
(0.996373 -0.000407451 0)
(0.99653 -0.000387728 0)
(0.996681 -0.000369116 0)
(0.996824 -0.000351544 0)
(0.99696 -0.000334946 0)
(0.99709 -0.000319258 0)
(0.997214 -0.000304421 0)
(0.997332 -0.000290376 0)
(0.997445 -0.00027707 0)
(0.997553 -0.000264451 0)
(0.997655 -0.000252474 0)
(0.997754 -0.000241093 0)
(0.997847 -0.000230269 0)
(0.997937 -0.000219965 0)
(0.998022 -0.000210147 0)
(0.998104 -0.000200784 0)
(0.998182 -0.000191848 0)
(0.998257 -0.000183315 0)
(0.998328 -0.000175161 0)
(0.998396 -0.000167365 0)
(0.998462 -0.000159909 0)
(0.998524 -0.000152777 0)
(0.998583 -0.000145952 0)
(0.99864 -0.00013942 0)
(0.998694 -0.000133169 0)
(0.998746 -0.000127187 0)
(0.998796 -0.000121462 0)
(0.998843 -0.000115985 0)
(0.998888 -0.000110745 0)
(0.998931 -0.000105734 0)
(0.998972 -0.000100942 0)
(0.999011 -9.63604e-05 0)
(0.999049 -9.19819e-05 0)
(0.999085 -8.77984e-05 0)
(0.999119 -8.38022e-05 0)
(0.999151 -7.99859e-05 0)
(0.999182 -7.63423e-05 0)
(0.999212 -7.28645e-05 0)
(0.99924 -6.95457e-05 0)
(0.999267 -6.63793e-05 0)
(0.999293 -6.3359e-05 0)
(0.999318 -6.04787e-05 0)
(0.999341 -5.77323e-05 0)
(0.999364 -5.51142e-05 0)
(0.999385 -5.26187e-05 0)
(0.999406 -5.02407e-05 0)
(0.999425 -4.79748e-05 0)
(0.999444 -4.58163e-05 0)
(0.999462 -4.37605e-05 0)
(0.999479 -4.18027e-05 0)
(0.999495 -3.99387e-05 0)
(0.99951 -3.81644e-05 0)
(0.999525 -3.64758e-05 0)
(0.99954 -3.48691e-05 0)
(0.999553 -3.33408e-05 0)
(0.999566 -3.18874e-05 0)
(0.999578 -3.05056e-05 0)
(0.99959 -2.91923e-05 0)
(0.999602 -2.79445e-05 0)
(0.999613 -2.67593e-05 0)
(0.999623 -2.5634e-05 0)
(0.999633 -2.4566e-05 0)
(0.999643 -2.35527e-05 0)
(0.999652 -2.25918e-05 0)
(0.999661 -2.16809e-05 0)
(0.999669 -2.08177e-05 0)
(0.999677 -2.00002e-05 0)
(0.999685 -1.92263e-05 0)
(0.999692 -1.8494e-05 0)
(0.9997 -1.78013e-05 0)
(0.999707 -1.71465e-05 0)
(0.999713 -1.65276e-05 0)
(0.99972 -1.5943e-05 0)
(0.999726 -1.5391e-05 0)
(0.999732 -1.48699e-05 0)
(0.999738 -1.43781e-05 0)
(0.999743 -1.39142e-05 0)
(0.999749 -1.34766e-05 0)
(0.999754 -1.30639e-05 0)
(0.999759 -1.26746e-05 0)
(0.999764 -1.23075e-05 0)
(0.999769 -1.19611e-05 0)
(0.999774 -1.16341e-05 0)
(0.999778 -1.13254e-05 0)
(0.999783 -1.10337e-05 0)
(0.999787 -1.07579e-05 0)
(0.999791 -1.04967e-05 0)
(0.999796 -1.02491e-05 0)
(0.9998 -1.0014e-05 0)
(0.999804 -9.79034e-06 0)
(0.999807 -9.57721e-06 0)
(0.999811 -9.37362e-06 0)
(0.999815 -9.17866e-06 0)
(0.999819 -8.99146e-06 0)
(0.999822 -8.81119e-06 0)
(0.999826 -8.63706e-06 0)
(0.999829 -8.46835e-06 0)
(0.999832 -8.30435e-06 0)
(0.999836 -8.14442e-06 0)
(0.999839 -7.98797e-06 0)
(0.999842 -7.83445e-06 0)
(0.999845 -7.68337e-06 0)
(0.999848 -7.53428e-06 0)
(0.999851 -7.38681e-06 0)
(0.999854 -7.24062e-06 0)
(0.999857 -7.09545e-06 0)
(0.99986 -6.95109e-06 0)
(0.999862 -6.80737e-06 0)
(0.999865 -6.6642e-06 0)
(0.999868 -6.52154e-06 0)
(0.99987 -6.37937e-06 0)
(0.999873 -6.23774e-06 0)
(0.999875 -6.09672e-06 0)
(0.999878 -5.95639e-06 0)
(0.99988 -5.81685e-06 0)
(0.999882 -5.67821e-06 0)
(0.999885 -5.54055e-06 0)
(0.999887 -5.40396e-06 0)