/*--------------------------------*- C++ -*----------------------------------*\
| =========                 |                                                 |
| \\      /  F ield         | OpenFOAM: The Open Source CFD Toolbox           |
|  \\    /   O peration     | Version:  v2006                                 |
|   \\  /    A nd           | Website:  www.openfoam.com                      |
|    \\/     M anipulation  |                                                 |
\*---------------------------------------------------------------------------*/
FoamFile
{
    version     2.0;
    format      ascii;
    class       volVectorField;
    location    "0";
    object      U;
}
// * * * * * * * * * * * * * * * * * * * * * * * * * * * * * * * * * * * * * //

dimensions      [0 1 -1 0 0 0 0];


internalField   nonuniform List<vector> 
20000
(
(1 3.84509e-11 0)
(1 4.59994e-11 0)
(1 3.17863e-11 0)
(1 1.21277e-11 0)
(1 -1.86999e-11 0)
(1 -6.48394e-11 0)
(1 -1.31558e-10 0)
(1 -2.24801e-10 0)
(1 -3.51221e-10 0)
(1 -5.19308e-10 0)
(1 -7.40444e-10 0)
(1 -1.02941e-09 0)
(1 -1.40453e-09 0)
(1 -1.88746e-09 0)
(1 -2.50286e-09 0)
(1 -3.27817e-09 0)
(1 -4.24534e-09 0)
(1 -5.44575e-09 0)
(1 -6.93733e-09 0)
(1 -8.79971e-09 0)
(1 -1.11323e-08 0)
(1 -1.40435e-08 0)
(1 -1.76334e-08 0)
(1 -2.19785e-08 0)
(1 -2.71228e-08 0)
(1 -3.30799e-08 0)
(1 -3.98438e-08 0)
(1 -4.74011e-08 0)
(1 -5.5733e-08 0)
(1 -6.48e-08 0)
(1 -7.45085e-08 0)
(1 -8.46546e-08 0)
(1 -9.4835e-08 0)
(1 -1.04336e-07 0)
(1.00001 -1.12056e-07 0)
(1.00001 -1.16528e-07 0)
(1.00001 -1.16134e-07 0)
(1.00001 -1.09524e-07 0)
(1.00001 -9.62241e-08 0)
(1.00001 -7.72255e-08 0)
(1.00001 -5.5202e-08 0)
(1.00001 -3.44248e-08 0)
(1.00001 -2.15421e-08 0)
(1.00001 -2.75021e-08 0)
(1.00001 -6.50788e-08 0)
(1.00001 -1.30537e-07 0)
(1.00001 -1.66225e-07 0)
(1.00001 -5.99604e-08 0)
(1.00001 2.08404e-07 0)
(1.00001 4.75181e-07 0)
(1.00001 6.67713e-07 0)
(1.00001 7.64601e-07 0)
(1.00001 7.78991e-07 0)
(1.00001 7.39696e-07 0)
(1 6.71744e-07 0)
(1 5.85605e-07 0)
(1 4.83006e-07 0)
(0.999997 3.66053e-07 0)
(0.999995 2.39329e-07 0)
(0.999994 1.09917e-07 0)
(0.999992 -1.34221e-08 0)
(0.999991 -1.21538e-07 0)
(0.999989 -2.05937e-07 0)
(0.999988 -2.60098e-07 0)
(0.999988 -2.81985e-07 0)
(0.999987 -2.73237e-07 0)
(0.999987 -2.38773e-07 0)
(0.999987 -1.95119e-07 0)
(0.999987 -1.72793e-07 0)
(0.999987 -1.85123e-07 0)
(0.999988 -2.24559e-07 0)
(0.999989 -2.78854e-07 0)
(0.999991 -3.3519e-07 0)
(0.999993 -3.81147e-07 0)
(0.999996 -4.05629e-07 0)
(0.999999 -3.99805e-07 0)
(1 -3.59144e-07 0)
(1.00001 -2.81333e-07 0)
(1.00001 -1.57538e-07 0)
(1.00001 3.22888e-08 0)
(1.00002 3.24523e-07 0)
(1.00002 7.18768e-07 0)
(1.00002 1.04779e-06 0)
(1.00002 1.2635e-06 0)
(1.00001 1.38507e-06 0)
(1.00001 1.43711e-06 0)
(1.00001 1.42441e-06 0)
(1.00001 1.3459e-06 0)
(1 1.21342e-06 0)
(0.999998 1.03735e-06 0)
(0.999993 8.18796e-07 0)
(0.999989 5.64548e-07 0)
(0.999984 2.89934e-07 0)
(0.99998 1.49725e-08 0)
(0.999976 -2.39445e-07 0)
(0.999972 -4.54587e-07 0)
(0.999969 -6.16148e-07 0)
(0.999967 -7.15783e-07 0)
(0.999965 -7.50645e-07 0)
(0.999963 -7.24657e-07 0)
(0.999962 -6.50376e-07 0)
(0.999961 -5.43289e-07 0)
(0.999961 -4.22423e-07 0)
(0.999961 -3.19177e-07 0)
(0.999961 -2.6827e-07 0)
(0.999962 -2.6433e-07 0)
(0.999963 -2.93269e-07 0)
(0.999965 -3.40793e-07 0)
(0.999967 -3.91102e-07 0)
(0.99997 -4.27479e-07 0)
(0.999972 -4.36197e-07 0)
(0.999975 -4.11737e-07 0)
(0.999978 -3.59594e-07 0)
(0.99998 -2.94196e-07 0)
(0.999982 -2.32304e-07 0)
(0.999983 -1.85711e-07 0)
(0.999984 -1.5802e-07 0)
(0.999985 -1.46471e-07 0)
(0.999986 -1.45604e-07 0)
(0.999987 -1.49866e-07 0)
(0.999988 -1.54861e-07 0)
(0.999989 -1.57783e-07 0)
(0.99999 -1.5731e-07 0)
(0.999991 -1.53216e-07 0)
(0.999992 -1.45942e-07 0)
(0.999993 -1.36258e-07 0)
(0.999994 -1.25011e-07 0)
(0.999995 -1.12985e-07 0)
(0.999996 -1.00823e-07 0)
(0.999996 -8.90068e-08 0)
(0.999997 -7.78669e-08 0)
(0.999997 -6.76039e-08 0)
(0.999998 -5.83175e-08 0)
(0.999998 -5.00331e-08 0)
(0.999998 -4.27256e-08 0)
(0.999999 -3.63375e-08 0)
(0.999999 -3.07934e-08 0)
(0.999999 -2.60101e-08 0)
(0.999999 -2.19026e-08 0)
(0.999999 -1.83893e-08 0)
(1 -1.53942e-08 0)
(1 -1.28479e-08 0)
(1 -1.06884e-08 0)
(1 -8.86058e-09 0)
(1 -7.31656e-09 0)
(1 -6.01545e-09 0)
(1 -4.9232e-09 0)
(1 -4.01026e-09 0)
(1 -3.24729e-09 0)
(1 -2.60155e-09 0)
(1 -2.03439e-09 0)
(1 -1.50383e-09 0)
(1 -9.7648e-10 0)
(1 -4.37167e-10 0)
(1 8.26013e-11 0)
(1 4.85651e-10 0)
(1 6.55596e-10 0)
(1 6.63257e-10 0)
(1 5.94973e-10 0)
(1 5.05147e-10 0)
(1 4.19172e-10 0)
(1 3.4425e-10 0)
(1 2.8031e-10 0)
(1 2.26191e-10 0)
(1 1.80654e-10 0)
(1 1.42496e-10 0)
(1 1.10637e-10 0)
(1 8.41235e-11 0)
(1 6.21353e-11 0)
(1 4.39706e-11 0)
(1 2.90224e-11 0)
(1 1.67717e-11 0)
(1 6.77448e-12 0)
(1 -1.34215e-12 0)
(1 -7.8948e-12 0)
(1 -1.31497e-11 0)
(1 -1.73394e-11 0)
(1 -2.06578e-11 0)
(1 -2.3267e-11 0)
(1 -2.53002e-11 0)
(1 -2.6881e-11 0)
(1 -2.81071e-11 0)
(1 -2.90628e-11 0)
(1 -2.98178e-11 0)
(1 -3.04254e-11 0)
(1 -3.09457e-11 0)
(1 -3.14205e-11 0)
(1 -3.18876e-11 0)
(1 -3.23808e-11 0)
(1 -3.29251e-11 0)
(1 -3.35523e-11 0)
(1 -3.42858e-11 0)
(1 -3.51488e-11 0)
(1 -3.61685e-11 0)
(1 -3.73869e-11 0)
(1 -3.87919e-11 0)
(1 -4.08649e-11 0)
(1 -4.16721e-11 0)
(1 -4.95586e-11 0)
(1 -3.99386e-11 0)
(1 1.09658e-10 0)
(1 1.21435e-10 0)
(1 7.98489e-11 0)
(1 3.10931e-11 0)
(1 -5.21875e-11 0)
(1 -1.87794e-10 0)
(1 -3.88953e-10 0)
(1 -6.70135e-10 0)
(1 -1.05012e-09 0)
(1 -1.5542e-09 0)
(1 -2.21668e-09 0)
(1 -3.08218e-09 0)
(1 -4.20594e-09 0)
(1 -5.65315e-09 0)
(1 -7.49774e-09 0)
(1 -9.82193e-09 0)
(1 -1.27214e-08 0)
(1 -1.632e-08 0)
(1 -2.07913e-08 0)
(1 -2.63742e-08 0)
(1 -3.3367e-08 0)
(1 -4.20943e-08 0)
(1 -5.28565e-08 0)
(1 -6.58821e-08 0)
(1 -8.13041e-08 0)
(1 -9.91669e-08 0)
(1 -1.19457e-07 0)
(1 -1.42133e-07 0)
(1 -1.67129e-07 0)
(1 -1.94318e-07 0)
(1 -2.23412e-07 0)
(1 -2.538e-07 0)
(1 -2.84322e-07 0)
(1 -3.12974e-07 0)
(1.00001 -3.36669e-07 0)
(1.00001 -3.512e-07 0)
(1.00001 -3.51684e-07 0)
(1.00001 -3.33646e-07 0)
(1.00001 -2.94814e-07 0)
(1.00001 -2.37314e-07 0)
(1.00001 -1.69612e-07 0)
(1.00001 -1.07315e-07 0)
(1.00001 -7.19838e-08 0)
(1.00001 -8.66965e-08 0)
(1.00001 -1.6597e-07 0)
(1.00001 -2.98169e-07 0)
(1.00001 -4.24657e-07 0)
(1.00001 -4.48086e-07 0)
(1.00001 -3.35961e-07 0)
(1.00002 -1.87401e-07 4.45867e-42)
(1.00002 -2.53846e-08 3.60835e-42)
(1.00002 1.3816e-07 0)
(1.00003 3.14899e-07 0)
(1.00003 4.77828e-07 0)
(1.00003 6.1634e-07 0)
(1.00003 7.36184e-07 0)
(1.00003 8.40365e-07 0)
(1.00003 9.28031e-07 0)
(1.00002 9.95746e-07 0)
(1.00002 1.03766e-06 0)
(1.00002 1.04698e-06 0)
(1.00001 1.01938e-06 0)
(1.00001 9.55772e-07 0)
(1 8.60702e-07 0)
(0.999998 7.3844e-07 0)
(0.999994 5.93411e-07 0)
(0.999991 4.30656e-07 0)
(0.999989 2.50489e-07 0)
(0.999988 4.12585e-08 0)
(0.999988 -1.95033e-07 0)
(0.999988 -4.4381e-07 0)
(0.999989 -6.9414e-07 0)
(0.999991 -9.36885e-07 0)
(0.999994 -1.16369e-06 0)
(0.999996 -1.36686e-06 0)
(1 -1.53902e-06 0)
(1 -1.67368e-06 0)
(1.00001 -1.76328e-06 0)
(1.00001 -1.79501e-06 0)
(1.00002 -1.7499e-06 0)
(1.00003 -1.5958e-06 0)
(1.00003 -1.32308e-06 0)
(1.00004 -1.04698e-06 0)
(1.00005 -7.73698e-07 0)
(1.00006 -4.79546e-07 0)
(1.00006 -1.56021e-07 0)
(1.00007 2.13195e-07 0)
(1.00007 6.6134e-07 0)
(1.00008 1.10189e-06 0)
(1.00007 1.52373e-06 0)
(1.00007 1.91262e-06 0)
(1.00007 2.24594e-06 0)
(1.00006 2.50293e-06 0)
(1.00005 2.66693e-06 0)
(1.00004 2.72755e-06 0)
(1.00003 2.68232e-06 0)
(1.00002 2.53687e-06 0)
(1.00001 2.30413e-06 0)
(0.999995 2.00362e-06 0)
(0.999985 1.65864e-06 0)
(0.999978 1.2935e-06 0)
(0.999972 9.34791e-07 0)
(0.999967 6.01347e-07 0)
(0.999965 2.90685e-07 0)
(0.999963 -1.49856e-08 0)
(0.999963 -3.1091e-07 0)
(0.999964 -5.93993e-07 0)
(0.999965 -8.57362e-07 0)
(0.999967 -1.0808e-06 0)
(0.99997 -1.23239e-06 0)
(0.999973 -1.28252e-06 0)
(0.999975 -1.22184e-06 0)
(0.999978 -1.07146e-06 0)
(0.99998 -8.77792e-07 0)
(0.999982 -6.93184e-07 0)
(0.999983 -5.54119e-07 0)
(0.999984 -4.71765e-07 0)
(0.999985 -4.37834e-07 0)
(0.999986 -4.3586e-07 0)
(0.999987 -4.49134e-07 0)
(0.999988 -4.6445e-07 0)
(0.999989 -4.73404e-07 0)
(0.99999 -4.72068e-07 0)
(0.999991 -4.59797e-07 0)
(0.999992 -4.37949e-07 0)
(0.999993 -4.0885e-07 0)
(0.999994 -3.75063e-07 0)
(0.999995 -3.38942e-07 0)
(0.999996 -3.02422e-07 0)
(0.999996 -2.66951e-07 0)
(0.999997 -2.33517e-07 0)
(0.999997 -2.02721e-07 0)
(0.999998 -1.74861e-07 0)
(0.999998 -1.50012e-07 0)
(0.999998 -1.28095e-07 0)
(0.999999 -1.08939e-07 0)
(0.999999 -9.23148e-08 0)
(0.999999 -7.79728e-08 0)
(0.999999 -6.56581e-08 0)
(0.999999 -5.51254e-08 0)
(1 -4.61461e-08 0)
(1 -3.85123e-08 0)
(1 -3.20381e-08 0)
(1 -2.65593e-08 0)
(1 -2.19322e-08 0)
(1 -1.80323e-08 0)
(1 -1.47522e-08 0)
(1 -1.1999e-08 0)
(1 -9.69138e-09 0)
(1 -7.75719e-09 0)
(1 -6.13101e-09 0)
(1 -4.75416e-09 0)
(1 -3.57803e-09 0)
(1 -2.56216e-09 0)
(1 -1.69076e-09 0)
(1 -9.92114e-10 0)
(1 -5.20648e-10 0)
(1 -1.9663e-10 0)
(1 4.48646e-11 0)
(1 2.35392e-10 0)
(1 3.81003e-10 0)
(1 4.91447e-10 0)
(1 5.73571e-10 0)
(1 6.32231e-10 0)
(1 6.71597e-10 0)
(1 6.9521e-10 0)
(1 7.06075e-10 0)
(1 7.06712e-10 0)
(1 6.99237e-10 0)
(1 6.85427e-10 0)
(1 6.66745e-10 0)
(1 6.44396e-10 0)
(1 6.19374e-10 0)
(1 5.92493e-10 0)
(1 5.64414e-10 0)
(1 5.35674e-10 0)
(1 5.06695e-10 0)
(1 4.7781e-10 0)
(1 4.49286e-10 0)
(1 4.2133e-10 0)
(1 3.9408e-10 0)
(1 3.67643e-10 0)
(1 3.42092e-10 0)
(1 3.17468e-10 0)
(1 2.93802e-10 0)
(1 2.71082e-10 0)
(1 2.49294e-10 0)
(1 2.28416e-10 0)
(1 2.08407e-10 0)
(1 1.89227e-10 0)
(1 1.70816e-10 0)
(1 1.53116e-10 0)
(1 1.36072e-10 0)
(1 1.19611e-10 0)
(1 1.0366e-10 0)
(1 8.81349e-11 0)
(1 7.27781e-11 0)
(1 5.83341e-11 0)
(1 4.1091e-11 0)
(1 3.26658e-11 0)
(1 1.7767e-10 0)
(1 1.91634e-10 0)
(1 1.26517e-10 0)
(1 5.30666e-11 0)
(1 -8.07776e-11 0)
(1 -3.05858e-10 0)
(1 -6.41551e-10 0)
(1 -1.11014e-09 0)
(1 -1.74256e-09 0)
(1 -2.58102e-09 0)
(1 -3.68274e-09 0)
(1 -5.12216e-09 0)
(1 -6.99131e-09 0)
(1 -9.39875e-09 0)
(1 -1.24675e-08 0)
(1 -1.63343e-08 0)
(1 -2.11584e-08 0)
(1 -2.7146e-08 0)
(1 -3.45859e-08 0)
(1 -4.38758e-08 0)
(1 -5.55124e-08 0)
(1 -7.00364e-08 0)
(1 -8.7948e-08 0)
(1 -1.09628e-07 0)
(1 -1.353e-07 0)
(1 -1.65041e-07 0)
(1 -1.98831e-07 0)
(1 -2.36605e-07 0)
(1 -2.78262e-07 0)
(1 -3.23595e-07 0)
(1 -3.72139e-07 0)
(1 -4.22901e-07 0)
(1 -4.73983e-07 0)
(1 -5.22105e-07 0)
(1.00001 -5.62171e-07 0)
(1.00001 -5.87162e-07 0)
(1.00001 -5.88791e-07 0)
(1.00001 -5.59298e-07 0)
(1.00001 -4.94476e-07 0)
(1.00001 -3.97545e-07 0)
(1.00001 -2.82845e-07 0)
(1.00001 -1.7741e-07 0)
(1.00001 -1.17598e-07 0)
(1.00001 -1.38552e-07 0)
(1.00001 -2.58076e-07 0)
(1.00001 -4.635e-07 0)
(1.00001 -7.14291e-07 0)
(1.00001 -9.55299e-07 0)
(1.00001 -1.10974e-06 0)
(1.00002 -1.09207e-06 0)
(1.00002 -8.92972e-07 0)
(1.00002 -5.62476e-07 0)
(1.00002 -1.72753e-07 0)
(1.00002 2.2288e-07 0)
(1.00002 6.00961e-07 0)
(1.00002 9.60677e-07 0)
(1.00001 1.30307e-06 0)
(1.00001 1.62226e-06 0)
(1.00001 1.9046e-06 0)
(1.00001 2.12926e-06 0)
(1 2.27224e-06 0)
(1 2.31544e-06 0)
(0.999998 2.25335e-06 0)
(0.999995 2.09121e-06 0)
(0.999993 1.8396e-06 0)
(0.999991 1.51121e-06 0)
(0.999989 1.12062e-06 0)
(0.999988 6.86052e-07 0)
(0.999987 2.30387e-07 0)
(0.999987 -2.2936e-07 0)
(0.999988 -6.84154e-07 0)
(0.999989 -1.12809e-06 0)
(0.999991 -1.55578e-06 0)
(0.999993 -1.96183e-06 0)
(0.999996 -2.34012e-06 0)
(1 -2.68307e-06 0)
(1 -2.98089e-06 0)
(1.00001 -3.22231e-06 0)
(1.00001 -3.39798e-06 0)
(1.00002 -3.5021e-06 0)
(1.00002 -3.53359e-06 0)
(1.00003 -3.48218e-06 0)
(1.00003 -3.29625e-06 0)
(1.00003 -2.94878e-06 0)
(1.00004 -2.44088e-06 0)
(1.00004 -1.78033e-06 0)
(1.00004 -9.76439e-07 0)
(1.00004 -4.63598e-08 0)
(1.00004 9.67982e-07 0)
(1.00004 2.02537e-06 0)
(1.00003 3.07317e-06 0)
(1.00003 4.04809e-06 0)
(1.00002 4.88368e-06 0)
(1.00002 5.51959e-06 0)
(1.00001 5.91037e-06 0)
(1 6.03151e-06 0)
(0.999993 5.88167e-06 0)
(0.999986 5.48162e-06 0)
(0.99998 4.87119e-06 0)
(0.999974 4.10674e-06 0)
(0.99997 3.25779e-06 0)
(0.999966 2.39505e-06 0)
(0.999964 1.5745e-06 0)
(0.999962 8.30309e-07 0)
(0.999962 1.74201e-07 0)
(0.999962 -4.064e-07 0)
(0.999963 -9.29677e-07 0)
(0.999965 -1.3992e-06 0)
(0.999967 -1.79027e-06 0)
(0.99997 -2.05406e-06 0)
(0.999973 -2.14289e-06 0)
(0.999975 -2.04217e-06 0)
(0.999978 -1.78859e-06 0)
(0.99998 -1.46173e-06 0)
(0.999982 -1.15098e-06 0)
(0.999983 -9.18154e-07 0)
(0.999984 -7.81537e-07 0)
(0.999985 -7.26452e-07 0)
(0.999986 -7.24744e-07 0)
(0.999987 -7.48165e-07 0)
(0.999988 -7.74551e-07 0)
(0.999989 -7.89906e-07 0)
(0.99999 -7.87787e-07 0)
(0.999991 -7.67237e-07 0)
(0.999992 -7.30617e-07 0)
(0.999993 -6.8188e-07 0)
(0.999994 -6.25342e-07 0)
(0.999995 -5.64952e-07 0)
(0.999996 -5.03942e-07 0)
(0.999996 -4.44723e-07 0)
(0.999997 -3.88938e-07 0)
(0.999997 -3.37581e-07 0)
(0.999998 -2.91139e-07 0)
(0.999998 -2.49729e-07 0)
(0.999998 -2.13218e-07 0)
(0.999999 -1.81312e-07 0)
(0.999999 -1.53631e-07 0)
(0.999999 -1.29753e-07 0)
(0.999999 -1.09253e-07 0)
(0.999999 -9.17207e-08 0)
(1 -7.67758e-08 0)
(1 -6.40714e-08 0)
(1 -5.32975e-08 0)
(1 -4.41806e-08 0)
(1 -3.64815e-08 0)
(1 -2.99921e-08 0)
(1 -2.45322e-08 0)
(1 -1.9947e-08 0)
(1 -1.61051e-08 0)
(1 -1.28958e-08 0)
(1 -1.02278e-08 0)
(1 -8.02579e-09 0)
(1 -6.22413e-09 0)
(1 -4.76303e-09 0)
(1 -3.57994e-09 0)
(1 -2.60288e-09 0)
(1 -1.76328e-09 0)
(1 -1.04625e-09 0)
(1 -4.51217e-10 0)
(1 2.99561e-11 0)
(1 4.09455e-10 0)
(1 7.04013e-10 0)
(1 9.28397e-10 0)
(1 1.09493e-09 0)
(1 1.21401e-09 0)
(1 1.29434e-09 0)
(1 1.34322e-09 0)
(1 1.36672e-09 0)
(1 1.3699e-09 0)
(1 1.357e-09 0)
(1 1.33152e-09 0)
(1 1.29636e-09 0)
(1 1.25391e-09 0)
(1 1.20614e-09 0)
(1 1.15466e-09 0)
(1 1.10078e-09 0)
(1 1.04555e-09 0)
(1 9.89807e-10 0)
(1 9.34232e-10 0)
(1 8.79349e-10 0)
(1 8.25547e-10 0)
(1 7.73124e-10 0)
(1 7.223e-10 0)
(1 6.73218e-10 0)
(1 6.25979e-10 0)
(1 5.80619e-10 0)
(1 5.37146e-10 0)
(1 4.95547e-10 0)
(1 4.55769e-10 0)
(1 4.17752e-10 0)
(1 3.81409e-10 0)
(1 3.46648e-10 0)
(1 3.13381e-10 0)
(1 2.81499e-10 0)
(1 2.50908e-10 0)
(1 2.21437e-10 0)
(1 1.93325e-10 0)
(1 1.64868e-10 0)
(1 1.43486e-10 0)
(1 1.031e-10 0)
(1 2.48796e-10 0)
(1 2.71886e-10 0)
(1 1.83322e-10 0)
(1 7.97201e-11 0)
(1 -1.09096e-10 0)
(1 -4.23739e-10 0)
(1 -8.91529e-10 0)
(1 -1.54457e-09 0)
(1 -2.42646e-09 0)
(1 -3.59616e-09 0)
(1 -5.13354e-09 0)
(1 -7.14252e-09 0)
(1 -9.75154e-09 0)
(1 -1.31123e-08 0)
(1 -1.73965e-08 0)
(1 -2.27953e-08 0)
(1 -2.95311e-08 0)
(1 -3.78919e-08 0)
(1 -4.82816e-08 0)
(1 -6.1256e-08 0)
(1 -7.75092e-08 0)
(1 -9.77974e-08 0)
(1 -1.2282e-07 0)
(1 -1.53113e-07 0)
(1 -1.88988e-07 0)
(1 -2.30559e-07 0)
(1 -2.77804e-07 0)
(1 -3.30645e-07 0)
(1 -3.88958e-07 0)
(1 -4.5248e-07 0)
(1 -5.20591e-07 0)
(1 -5.91942e-07 0)
(1 -6.63917e-07 0)
(1 -7.31938e-07 0)
(1.00001 -7.88817e-07 0)
(1.00001 -8.24597e-07 0)
(1.00001 -8.27458e-07 0)
(1.00001 -7.86264e-07 0)
(1.00001 -6.94844e-07 0)
(1.00001 -5.57449e-07 0)
(1.00001 -3.93873e-07 0)
(1.00001 -2.41762e-07 0)
(1.00001 -1.53026e-07 0)
(1.00001 -1.8135e-07 0)
(1.00001 -3.5947e-07 0)
(1.00001 -6.7066e-07 0)
(1.00001 -1.03091e-06 0)
(1.00001 -1.3082e-06 0)
(1.00001 -1.38265e-06 0)
(1.00002 -1.2052e-06 0)
(1.00002 -8.24565e-07 0)
(1.00002 -3.30135e-07 0)
(1.00002 1.81887e-07 0)
(1.00002 6.71966e-07 0)
(1.00002 1.12877e-06 0)
(1.00002 1.5534e-06 0)
(1.00001 1.9474e-06 0)
(1.00001 2.30417e-06 0)
(1.00001 2.60843e-06 0)
(1.00001 2.83652e-06 0)
(1 2.96094e-06 0)
(1 2.96222e-06 0)
(0.999998 2.83766e-06 0)
(0.999995 2.59829e-06 0)
(0.999993 2.25976e-06 0)
(0.99999 1.83689e-06 0)
(0.999989 1.34453e-06 0)
(0.999988 7.98689e-07 0)
(0.999987 2.16344e-07 0)
(0.999987 -3.878e-07 0)
(0.999988 -9.99888e-07 0)
(0.999989 -1.60517e-06 0)
(0.999991 -2.1899e-06 0)
(0.999993 -2.741e-06 0)
(0.999996 -3.24522e-06 0)
(1 -3.68874e-06 0)
(1 -4.05709e-06 0)
(1.00001 -4.33546e-06 0)
(1.00001 -4.50793e-06 0)
(1.00002 -4.55707e-06 0)
(1.00002 -4.46728e-06 0)
(1.00003 -4.22764e-06 0)
(1.00003 -3.82337e-06 0)
(1.00003 -3.25799e-06 0)
(1.00004 -2.52766e-06 0)
(1.00004 -1.62856e-06 0)
(1.00004 -5.77732e-07 0)
(1.00004 5.77152e-07 0)
(1.00004 1.8387e-06 0)
(1.00004 3.14515e-06 0)
(1.00003 4.41904e-06 0)
(1.00003 5.57816e-06 0)
(1.00002 6.54175e-06 0)
(1.00002 7.2405e-06 0)
(1.00001 7.62574e-06 0)
(1 7.6754e-06 0)
(0.999993 7.39559e-06 0)
(0.999986 6.81823e-06 0)
(0.999979 5.99733e-06 0)
(0.999974 5.0062e-06 0)
(0.999969 3.93091e-06 0)
(0.999966 2.8552e-06 0)
(0.999964 1.84184e-06 0)
(0.999962 9.21294e-07 0)
(0.999962 9.42458e-08 0)
(0.999962 -6.58683e-07 0)
(0.999963 -1.35595e-06 0)
(0.999965 -1.99556e-06 0)
(0.999967 -2.53662e-06 0)
(0.99997 -2.90434e-06 0)
(0.999973 -3.02635e-06 0)
(0.999975 -2.87903e-06 0)
(0.999978 -2.51398e-06 0)
(0.99998 -2.04576e-06 0)
(0.999982 -1.60325e-06 0)
(0.999983 -1.27463e-06 0)
(0.999984 -1.08455e-06 0)
(0.999985 -1.01046e-06 0)
(0.999986 -1.01136e-06 0)
(0.999987 -1.04684e-06 0)
(0.999988 -1.08554e-06 0)
(0.999989 -1.1079e-06 0)
(0.99999 -1.10512e-06 0)
(0.999991 -1.07611e-06 0)
(0.999992 -1.02439e-06 0)
(0.999993 -9.55634e-07 0)
(0.999994 -8.75993e-07 0)
(0.999995 -7.91043e-07 0)
(0.999996 -7.05322e-07 0)
(0.999996 -6.22204e-07 0)
(0.999997 -5.43974e-07 0)
(0.999997 -4.72008e-07 0)
(0.999998 -4.06969e-07 0)
(0.999998 -3.49009e-07 0)
(0.999998 -2.97928e-07 0)
(0.999999 -2.53306e-07 0)
(0.999999 -2.14603e-07 0)
(0.999999 -1.81227e-07 0)
(0.999999 -1.52578e-07 0)
(0.999999 -1.28081e-07 0)
(1 -1.07202e-07 0)
(1 -8.94548e-08 0)
(1 -7.4406e-08 0)
(1 -6.16725e-08 0)
(1 -5.09199e-08 0)
(1 -4.18576e-08 0)
(1 -3.4235e-08 0)
(1 -2.78364e-08 0)
(1 -2.24762e-08 0)
(1 -1.79941e-08 0)
(1 -1.4252e-08 0)
(1 -1.11307e-08 0)
(1 -8.52959e-09 0)
(1 -6.36813e-09 0)
(1 -4.58346e-09 0)
(1 -3.12534e-09 0)
(1 -1.94684e-09 0)
(1 -1.01234e-09 0)
(1 -2.78513e-10 0)
(1 2.95135e-10 0)
(1 7.43025e-10 0)
(1 1.0877e-09 0)
(1 1.34726e-09 0)
(1 1.5369e-09 0)
(1 1.66931e-09 0)
(1 1.7551e-09 0)
(1 1.80311e-09 0)
(1 1.82075e-09 0)
(1 1.81418e-09 0)
(1 1.78855e-09 0)
(1 1.74811e-09 0)
(1 1.69638e-09 0)
(1 1.63626e-09 0)
(1 1.57013e-09 0)
(1 1.49993e-09 0)
(1 1.42722e-09 0)
(1 1.35327e-09 0)
(1 1.27909e-09 0)
(1 1.20547e-09 0)
(1 1.13302e-09 0)
(1 1.0622e-09 0)
(1 9.93348e-10 0)
(1 9.26714e-10 0)
(1 8.62448e-10 0)
(1 8.00648e-10 0)
(1 7.41343e-10 0)
(1 6.84521e-10 0)
(1 6.30142e-10 0)
(1 5.78124e-10 0)
(1 5.28371e-10 0)
(1 4.80762e-10 0)
(1 4.35168e-10 0)
(1 3.9146e-10 0)
(1 3.4949e-10 0)
(1 3.09114e-10 0)
(1 2.70135e-10 0)
(1 2.32652e-10 0)
(1 1.95311e-10 0)
(1 1.64477e-10 0)
(1 1.09735e-10 0)
(1 3.20474e-10 0)
(1 3.51082e-10 0)
(1 2.37588e-10 0)
(1 1.05591e-10 0)
(1 -1.34552e-10 0)
(1 -5.35616e-10 0)
(1 -1.13317e-09 0)
(1 -1.96829e-09 0)
(1 -3.09657e-09 0)
(1 -4.59348e-09 0)
(1 -6.56133e-09 0)
(1 -9.13336e-09 0)
(1 -1.24743e-08 0)
(1 -1.67785e-08 0)
(1 -2.22664e-08 0)
(1 -2.91827e-08 0)
(1 -3.78125e-08 0)
(1 -4.85252e-08 0)
(1 -6.18388e-08 0)
(1 -7.84662e-08 0)
(1 -9.92983e-08 0)
(1 -1.25305e-07 0)
(1 -1.57386e-07 0)
(1 -1.96229e-07 0)
(1 -2.42242e-07 0)
(1 -2.95576e-07 0)
(1 -3.56219e-07 0)
(1 -4.24086e-07 0)
(1 -4.99045e-07 0)
(1 -5.80794e-07 0)
(1 -6.68589e-07 0)
(1 -7.60773e-07 0)
(1 -8.54073e-07 0)
(1 -9.42692e-07 0)
(1.00001 -1.01741e-06 0)
(1.00001 -1.06529e-06 0)
(1.00001 -1.07073e-06 0)
(1.00001 -1.01873e-06 0)
(1.00001 -9.00468e-07 0)
(1.00001 -7.20637e-07 0)
(1.00001 -5.04532e-07 0)
(1.00001 -3.0165e-07 0)
(1.00001 -1.81011e-07 0)
(1.00001 -2.13731e-07 0)
(1.00001 -4.42222e-07 0)
(1.00001 -8.4487e-07 0)
(1.00001 -1.31911e-06 0)
(1.00001 -1.70776e-06 0)
(1.00001 -1.86307e-06 0)
(1.00002 -1.71201e-06 0)
(1.00002 -1.28697e-06 0)
(1.00002 -6.85974e-07 0)
(1.00002 -1.11189e-08 0)
(1.00002 6.54022e-07 0)
(1.00002 1.27737e-06 0)
(1.00002 1.86162e-06 0)
(1.00001 2.41169e-06 0)
(1.00001 2.91942e-06 0)
(1.00001 3.36363e-06 0)
(1.00001 3.71021e-06 0)
(1 3.91848e-06 0)
(1 3.9585e-06 0)
(0.999998 3.824e-06 0)
(0.999995 3.5279e-06 0)
(0.999992 3.08962e-06 0)
(0.99999 2.52893e-06 0)
(0.999989 1.86816e-06 0)
(0.999987 1.13387e-06 0)
(0.999987 3.5306e-07 0)
(0.999987 -4.504e-07 0)
(0.999988 -1.25616e-06 0)
(0.999989 -2.04773e-06 0)
(0.999991 -2.81125e-06 0)
(0.999993 -3.53367e-06 0)
(0.999996 -4.2013e-06 0)
(0.999999 -4.79872e-06 0)
(1 -5.30824e-06 0)
(1.00001 -5.70999e-06 0)
(1.00001 -5.98277e-06 0)
(1.00002 -6.10583e-06 0)
(1.00002 -6.05988e-06 0)
(1.00003 -5.82583e-06 0)
(1.00003 -5.37786e-06 0)
(1.00003 -4.69926e-06 0)
(1.00004 -3.77989e-06 0)
(1.00004 -2.62387e-06 0)
(1.00004 -1.23954e-06 0)
(1.00004 3.53553e-07 0)
(1.00004 2.08375e-06 0)
(1.00004 3.87263e-06 0)
(1.00003 5.62745e-06 0)
(1.00003 7.24032e-06 0)
(1.00002 8.60103e-06 0)
(1.00002 9.61201e-06 0)
(1.00001 1.02019e-05 0)
(1 1.03351e-05 0)
(0.999993 1.00146e-05 0)
(0.999986 9.27957e-06 0)
(0.999979 8.20055e-06 0)
(0.999973 6.87551e-06 0)
(0.999969 5.42186e-06 0)
(0.999966 3.9581e-06 0)
(0.999963 2.57686e-06 0)
(0.999962 1.32592e-06 0)
(0.999961 2.09923e-07 0)
(0.999962 -7.94932e-07 0)
(0.999963 -1.7175e-06 0)
(0.999964 -2.56132e-06 0)
(0.999967 -3.27621e-06 0)
(0.999969 -3.76353e-06 0)
(0.999973 -3.92589e-06 0)
(0.999976 -3.73064e-06 0)
(0.999978 -3.24644e-06 0)
(0.99998 -2.62728e-06 0)
(0.999982 -2.04609e-06 0)
(0.999983 -1.61945e-06 0)
(0.999984 -1.37744e-06 0)
(0.999985 -1.28761e-06 0)
(0.999986 -1.29456e-06 0)
(0.999987 -1.34487e-06 0)
(0.999988 -1.39768e-06 0)
(0.999989 -1.42793e-06 0)
(0.99999 -1.42467e-06 0)
(0.999991 -1.38695e-06 0)
(0.999992 -1.31965e-06 0)
(0.999993 -1.23036e-06 0)
(0.999994 -1.12714e-06 0)
(0.999995 -1.01723e-06 0)
(0.999996 -9.0649e-07 0)
(0.999996 -7.99264e-07 0)
(0.999997 -6.98463e-07 0)
(0.999997 -6.05823e-07 0)
(0.999998 -5.22171e-07 0)
(0.999998 -4.47676e-07 0)
(0.999999 -3.8206e-07 0)
(0.999999 -3.24769e-07 0)
(0.999999 -2.75098e-07 0)
(0.999999 -2.32276e-07 0)
(0.999999 -1.9553e-07 0)
(0.999999 -1.64116e-07 0)
(1 -1.37346e-07 0)
(1 -1.14595e-07 0)
(1 -9.53056e-08 0)
(1 -7.8986e-08 0)
(1 -6.52064e-08 0)
(1 -5.35938e-08 0)
(1 -4.38259e-08 0)
(1 -3.56254e-08 0)
(1 -2.87548e-08 0)
(1 -2.30121e-08 0)
(1 -1.82261e-08 0)
(1 -1.42517e-08 0)
(1 -1.09659e-08 0)
(1 -8.26206e-09 0)
(1 -6.04483e-09 0)
(1 -4.22979e-09 0)
(1 -2.7437e-09 0)
(1 -1.53084e-09 0)
(1 -5.47565e-10 0)
(1 2.39719e-10 0)
(1 8.59809e-10 0)
(1 1.33971e-09 0)
(1 1.70358e-09 0)
(1 1.97176e-09 0)
(1 2.16137e-09 0)
(1 2.28682e-09 0)
(1 2.3602e-09 0)
(1 2.39163e-09 0)
(1 2.38955e-09 0)
(1 2.361e-09 0)
(1 2.31181e-09 0)
(1 2.24682e-09 0)
(1 2.17001e-09 0)
(1 2.08465e-09 0)
(1 1.9934e-09 0)
(1 1.89844e-09 0)
(1 1.80151e-09 0)
(1 1.70402e-09 0)
(1 1.60704e-09 0)
(1 1.51145e-09 0)
(1 1.41788e-09 0)
(1 1.32682e-09 0)
(1 1.23862e-09 0)
(1 1.1535e-09 0)
(1 1.0716e-09 0)
(1 9.92988e-10 0)
(1 9.17655e-10 0)
(1 8.45557e-10 0)
(1 7.76597e-10 0)
(1 7.10654e-10 0)
(1 6.47579e-10 0)
(1 5.87205e-10 0)
(1 5.29366e-10 0)
(1 4.7387e-10 0)
(1 4.20537e-10 0)
(1 3.69093e-10 0)
(1 3.19713e-10 0)
(1 2.70528e-10 0)
(1 2.29335e-10 0)
(1 1.58481e-10 0)
(1 3.9215e-10 0)
(1 4.31107e-10 0)
(1 2.94526e-10 0)
(1 1.36064e-10 0)
(1 -1.5395e-10 0)
(1 -6.39895e-10 0)
(1 -1.36488e-09 0)
(1 -2.37878e-09 0)
(1 -3.74925e-09 0)
(1 -5.56816e-09 0)
(1 -7.96009e-09 0)
(1 -1.10872e-08 0)
(1 -1.51502e-08 0)
(1 -2.03856e-08 0)
(1 -2.70618e-08 0)
(1 -3.54768e-08 0)
(1 -4.59778e-08 0)
(1 -5.90148e-08 0)
(1 -7.52188e-08 0)
(1 -9.54588e-08 0)
(1 -1.20821e-07 0)
(1 -1.52488e-07 0)
(1 -1.91559e-07 0)
(1 -2.38875e-07 0)
(1 -2.9494e-07 0)
(1 -3.59951e-07 0)
(1 -4.33909e-07 0)
(1 -5.16742e-07 0)
(1 -6.0833e-07 0)
(1 -7.08367e-07 0)
(1 -8.16027e-07 0)
(1 -9.29397e-07 0)
(1 -1.04461e-06 0)
(1 -1.1547e-06 0)
(1.00001 -1.24836e-06 0)
(1.00001 -1.3095e-06 0)
(1.00001 -1.31846e-06 0)
(1.00001 -1.25594e-06 0)
(1.00001 -1.11003e-06 0)
(1.00001 -8.85474e-07 0)
(1.00001 -6.12804e-07 0)
(1.00001 -3.53313e-07 0)
(1.00001 -1.94105e-07 0)
(1.00001 -2.27568e-07 0)
(1.00001 -5.12912e-07 0)
(1.00001 -1.02822e-06 0)
(1.00001 -1.6414e-06 0)
(1.00001 -2.13933e-06 0)
(1.00001 -2.32046e-06 0)
(1.00002 -2.09326e-06 0)
(1.00002 -1.51337e-06 0)
(1.00002 -7.25252e-07 0)
(1.00002 1.18157e-07 0)
(1.00002 9.25439e-07 0)
(1.00002 1.67247e-06 0)
(1.00002 2.36943e-06 0)
(1.00001 3.02368e-06 0)
(1.00001 3.62548e-06 0)
(1.00001 4.14919e-06 0)
(1.00001 4.55309e-06 0)
(1 4.78682e-06 0)
(1 4.81429e-06 0)
(0.999998 4.63039e-06 0)
(0.999995 4.25408e-06 0)
(0.999992 3.71095e-06 0)
(0.99999 3.02547e-06 0)
(0.999988 2.22399e-06 0)
(0.999987 1.33605e-06 0)
(0.999987 3.9251e-07 0)
(0.999987 -5.79813e-07 0)
(0.999987 -1.55821e-06 0)
(0.999989 -2.52204e-06 0)
(0.99999 -3.45253e-06 0)
(0.999993 -4.33162e-06 0)
(0.999996 -5.14057e-06 0)
(0.999999 -5.85898e-06 0)
(1 -6.4645e-06 0)
(1.00001 -6.93318e-06 0)
(1.00001 -7.24027e-06 0)
(1.00002 -7.36092e-06 0)
(1.00002 -7.27149e-06 0)
(1.00003 -6.94928e-06 0)
(1.00003 -6.36917e-06 0)
(1.00003 -5.5154e-06 0)
(1.00004 -4.37988e-06 0)
(1.00004 -2.96229e-06 0)
(1.00004 -1.28012e-06 0)
(1.00004 6.23911e-07 0)
(1.00004 2.69455e-06 0)
(1.00004 4.84217e-06 0)
(1.00003 6.94863e-06 0)
(1.00003 8.87992e-06 0)
(1.00002 1.05007e-05 0)
(1.00002 1.16925e-05 0)
(1.00001 1.23701e-05 0)
(1 1.24928e-05 0)
(0.999993 1.20677e-05 0)
(0.999985 1.11449e-05 0)
(0.999979 9.81193e-06 0)
(0.999973 8.18878e-06 0)
(0.999968 6.42011e-06 0)
(0.999965 4.65137e-06 0)
(0.999963 2.99382e-06 0)
(0.999962 1.5007e-06 0)
(0.999961 1.71154e-07 0)
(0.999961 -1.02963e-06 0)
(0.999962 -2.14171e-06 0)
(0.999964 -3.17153e-06 0)
(0.999966 -4.05441e-06 0)
(0.999969 -4.66073e-06 0)
(0.999973 -4.861e-06 0)
(0.999976 -4.60939e-06 0)
(0.999978 -3.99215e-06 0)
(0.999981 -3.20732e-06 0)
(0.999982 -2.47734e-06 0)
(0.999984 -1.94942e-06 0)
(0.999984 -1.65745e-06 0)
(0.999985 -1.55619e-06 0)
(0.999986 -1.57368e-06 0)
(0.999987 -1.64239e-06 0)
(0.999988 -1.71157e-06 0)
(0.999989 -1.75076e-06 0)
(0.99999 -1.7472e-06 0)
(0.999991 -1.7004e-06 0)
(0.999992 -1.6169e-06 0)
(0.999993 -1.50638e-06 0)
(0.999994 -1.37892e-06 0)
(0.999995 -1.24352e-06 0)
(0.999996 -1.10738e-06 0)
(0.999996 -9.75777e-07 0)
(0.999997 -8.5224e-07 0)
(0.999997 -7.38846e-07 0)
(0.999998 -6.36561e-07 0)
(0.999998 -5.45551e-07 0)
(0.999999 -4.65446e-07 0)
(0.999999 -3.95548e-07 0)
(0.999999 -3.34975e-07 0)
(0.999999 -2.82777e-07 0)
(0.999999 -2.37999e-07 0)
(0.999999 -1.9973e-07 0)
(1 -1.67126e-07 0)
(1 -1.39422e-07 0)
(1 -1.15936e-07 0)
(1 -9.60688e-08 0)
(1 -7.92957e-08 0)
(1 -6.51617e-08 0)
(1 -5.32747e-08 0)
(1 -4.32972e-08 0)
(1 -3.49403e-08 0)
(1 -2.79561e-08 0)
(1 -2.21326e-08 0)
(1 -1.72889e-08 0)
(1 -1.32707e-08 0)
(1 -9.94833e-09 0)
(1 -7.21328e-09 0)
(1 -4.97393e-09 0)
(1 -3.1499e-09 0)
(1 -1.67851e-09 0)
(1 -5.03705e-10 0)
(1 4.24634e-10 0)
(1 1.15046e-09 0)
(1 1.70961e-09 0)
(1 2.13135e-09 0)
(1 2.4401e-09 0)
(1 2.65633e-09 0)
(1 2.79716e-09 0)
(1 2.87691e-09 0)
(1 2.90754e-09 0)
(1 2.89901e-09 0)
(1 2.85961e-09 0)
(1 2.79623e-09 0)
(1 2.71453e-09 0)
(1 2.6192e-09 0)
(1 2.51409e-09 0)
(1 2.40232e-09 0)
(1 2.28643e-09 0)
(1 2.16848e-09 0)
(1 2.05008e-09 0)
(1 1.93251e-09 0)
(1 1.81678e-09 0)
(1 1.70362e-09 0)
(1 1.59359e-09 0)
(1 1.48708e-09 0)
(1 1.38437e-09 0)
(1 1.28558e-09 0)
(1 1.1908e-09 0)
(1 1.09999e-09 0)
(1 1.0131e-09 0)
(1 9.30002e-10 0)
(1 8.5054e-10 0)
(1 7.74533e-10 0)
(1 7.01776e-10 0)
(1 6.32062e-10 0)
(1 5.65157e-10 0)
(1 5.00838e-10 0)
(1 4.38773e-10 0)
(1 3.79158e-10 0)
(1 3.19715e-10 0)
(1 2.69754e-10 0)
(1 1.84235e-10 0)
(1 4.63982e-10 0)
(1 5.12419e-10 0)
(1 3.54058e-10 0)
(1 1.70492e-10 0)
(1 -1.67559e-10 0)
(1 -7.35817e-10 0)
(1 -1.58492e-09 0)
(1 -2.77348e-09 0)
(1 -4.38106e-09 0)
(1 -6.51563e-09 0)
(1 -9.32367e-09 0)
(1 -1.2996e-08 0)
(1 -1.77686e-08 0)
(1 -2.39201e-08 0)
(1 -3.17659e-08 0)
(1 -4.16568e-08 0)
(1 -5.40012e-08 0)
(1 -6.93287e-08 0)
(1 -8.83825e-08 0)
(1 -1.12186e-07 0)
(1 -1.42019e-07 0)
(1 -1.79275e-07 0)
(1 -2.25251e-07 0)
(1 -2.80944e-07 0)
(1 -3.46957e-07 0)
(1 -4.23537e-07 0)
(1 -5.10713e-07 0)
(1 -6.0844e-07 0)
(1 -7.16635e-07 0)
(1 -8.35016e-07 0)
(1 -9.62723e-07 0)
(1 -1.09766e-06 0)
(1 -1.23546e-06 0)
(1 -1.36807e-06 0)
(1.00001 -1.48215e-06 0)
(1.00001 -1.55838e-06 0)
(1.00001 -1.57264e-06 0)
(1.00001 -1.50073e-06 0)
(1.00001 -1.32678e-06 0)
(1.00001 -1.05468e-06 0)
(1.00001 -7.19883e-07 0)
(1.00001 -3.96335e-07 0)
(1.00001 -1.91621e-07 0)
(1.00001 -2.2236e-07 0)
(1.00001 -5.66105e-07 0)
(1.00001 -1.19957e-06 0)
(1.00001 -1.95981e-06 0)
(1.00001 -2.58085e-06 0)
(1.00001 -2.81325e-06 0)
(1.00002 -2.5497e-06 1.05111e-43)
(1.00002 -1.86145e-06 2.05017e-42)
(1.00002 -9.24791e-07 0)
(1.00002 8.10856e-08 0)
(1.00002 1.04314e-06 0)
(1.00002 1.93136e-06 0)
(1.00002 2.76144e-06 0)
(1.00001 3.54509e-06 0)
(1.00001 4.27138e-06 0)
(1.00001 4.90989e-06 0)
(1.00001 5.40909e-06 0)
(1 5.70488e-06 0)
(1 5.751e-06 0)
(0.999997 5.54118e-06 0)
(0.999995 5.09936e-06 0)
(0.999992 4.45645e-06 0)
(0.99999 3.64104e-06 0)
(0.999988 2.68439e-06 0)
(0.999987 1.62381e-06 0)
(0.999986 4.96159e-07 0)
(0.999986 -6.65071e-07 0)
(0.999987 -1.83117e-06 0)
(0.999988 -2.97786e-06 0)
(0.99999 -4.08417e-06 0)
(0.999993 -5.13043e-06 0)
(0.999996 -6.09604e-06 0)
(0.999999 -6.95812e-06 0)
(1 -7.69082e-06 0)
(1.00001 -8.26568e-06 0)
(1.00001 -8.65255e-06 0)
(1.00002 -8.82072e-06 0)
(1.00002 -8.74023e-06 0)
(1.00003 -8.38214e-06 0)
(1.00003 -7.71746e-06 0)
(1.00003 -6.72441e-06 0)
(1.00004 -5.38908e-06 0)
(1.00004 -3.70975e-06 0)
(1.00004 -1.70458e-06 0)
(1.00004 5.84255e-07 0)
(1.00004 3.08109e-06 0)
(1.00004 5.67424e-06 0)
(1.00003 8.2222e-06 0)
(1.00003 1.05634e-05 0)
(1.00002 1.25337e-05 0)
(1.00002 1.39886e-05 0)
(1.00001 1.48237e-05 0)
(1 1.49888e-05 0)
(0.999992 1.44912e-05 0)
(0.999985 1.33903e-05 0)
(0.999978 1.17907e-05 0)
(0.999972 9.83672e-06 0)
(0.999968 7.70514e-06 0)
(0.999964 5.57598e-06 0)
(0.999962 3.58676e-06 0)
(0.999961 1.80167e-06 0)
(0.999961 2.17654e-07 0)
(0.999961 -1.21006e-06 0)
(0.999962 -2.53554e-06 0)
(0.999964 -3.77264e-06 0)
(0.999966 -4.84367e-06 0)
(0.999969 -5.58479e-06 0)
(0.999973 -5.82951e-06 0)
(0.999976 -5.51618e-06 0)
(0.999979 -4.75094e-06 0)
(0.999981 -3.78313e-06 0)
(0.999983 -2.89241e-06 0)
(0.999984 -2.25982e-06 0)
(0.999985 -1.92094e-06 0)
(0.999985 -1.81398e-06 0)
(0.999986 -1.84776e-06 0)
(0.999987 -1.93935e-06 0)
(0.999988 -2.0277e-06 0)
(0.999989 -2.07711e-06 0)
(0.99999 -2.07342e-06 0)
(0.999991 -2.01705e-06 0)
(0.999993 -1.91655e-06 0)
(0.999993 -1.78393e-06 0)