/*--------------------------------*- C++ -*----------------------------------*\
| =========                 |                                                 |
| \\      /  F ield         | OpenFOAM: The Open Source CFD Toolbox           |
|  \\    /   O peration     | Version:  v2006                                 |
|   \\  /    A nd           | Website:  www.openfoam.com                      |
|    \\/     M anipulation  |                                                 |
\*---------------------------------------------------------------------------*/
FoamFile
{
    version     2.0;
    format      ascii;
    class       volVectorField;
    location    "0";
    object      U;
}
// * * * * * * * * * * * * * * * * * * * * * * * * * * * * * * * * * * * * * //

dimensions      [0 1 -1 0 0 0 0];


internalField   nonuniform List<vector> 
67500
(
(-0.0291527 0.020177 0)
(-0.0506836 0.00497804 0)
(-0.0279289 -0.0127718 0)
(-0.0145308 -0.00663521 0)
(0.0164282 0.0157005 0)
(0.0720628 -0.0290327 0)
(0.101714 -0.061271 0)
(0.117237 -0.082726 0)
(0.178272 -0.0919483 0)
(0.260482 -0.0696881 0)
(0.297549 -0.011961 0)
(0.269463 0.0308094 0)
(0.223954 0.0204464 0)
(0.203699 -0.00659142 0)
(0.204042 -0.0148484 0)
(0.209792 -0.0100948 0)
(0.214176 -0.00485742 0)
(0.21583 -0.0022401 0)
(0.216364 -0.00126635 0)
(0.217343 -0.00109646 0)
(0.219349 -0.00136925 0)
(0.222503 -0.0018739 0)
(0.226818 -0.00245373 0)
(0.232207 -0.0030206 0)
(0.238572 -0.00358168 0)
(0.245928 -0.00416827 0)
(0.254366 -0.00475693 0)
(0.263909 -0.00527653 0)
(0.274426 -0.00566848 0)
(0.285682 -0.00591559 0)
(0.29741 -0.00604126 0)
(0.309399 -0.00609237 0)
(0.321529 -0.00611744 0)
(0.333767 -0.00615083 0)
(0.346141 -0.00620563 0)
(0.358698 -0.00627633 0)
(0.371463 -0.00635032 0)
(0.384431 -0.00642049 0)
(0.397578 -0.0064894 0)
(0.410888 -0.00656372 0)
(0.424362 -0.00664516 0)
(0.438009 -0.00672405 0)
(0.451818 -0.00677946 0)
(0.465722 -0.0067849 0)
(0.479584 -0.006715 0)
(0.493197 -0.00655331 0)
(0.506344 -0.00631713 0)
(0.518927 -0.00608283 0)
(0.531035 -0.00591433 0)
(0.542824 -0.00579818 0)
(0.554364 -0.00569511 0)
(0.565651 -0.00558356 0)
(0.576664 -0.00546679 0)
(0.587435 -0.00537431 0)
(0.598066 -0.00533388 0)
(0.608677 -0.00533718 0)
(0.619335 -0.00535617 0)
(0.630047 -0.00537057 0)
(0.640785 -0.00537249 0)
(0.651523 -0.00536446 0)
(0.662244 -0.00535208 0)
(0.67294 -0.00533298 0)
(0.683588 -0.00529921 0)
(0.694149 -0.00524694 0)
(0.704587 -0.00517924 0)
(0.714875 -0.00510106 0)
(0.724997 -0.0050143 0)
(0.734937 -0.00491901 0)
(0.744677 -0.0048168 0)
(0.754206 -0.00471006 0)
(0.763517 -0.00459998 0)
(0.772605 -0.00448708 0)
(0.781464 -0.00437223 0)
(0.790091 -0.00425622 0)
(0.798485 -0.00413948 0)
(0.806645 -0.00402235 0)
(0.814571 -0.00390515 0)
(0.822262 -0.00378808 0)
(0.829718 -0.00367132 0)
(0.836942 -0.00355502 0)
(0.843934 -0.00343937 0)
(0.850695 -0.00332452 0)
(0.857227 -0.00321066 0)
(0.863533 -0.00309799 0)
(0.869615 -0.00298672 0)
(0.875475 -0.00287704 0)
(0.881118 -0.00276915 0)
(0.886547 -0.00266323 0)
(0.891766 -0.00255943 0)
(0.89678 -0.0024579 0)
(0.901593 -0.00235875 0)
(0.906211 -0.00226208 0)
(0.910637 -0.00216796 0)
(0.914878 -0.00207647 0)
(0.918939 -0.00198763 0)
(0.922825 -0.00190149 0)
(0.926541 -0.00181807 0)
(0.930093 -0.00173737 0)
(0.933486 -0.00165939 0)
(0.936727 -0.00158411 0)
(0.939819 -0.00151152 0)
(0.942769 -0.00144159 0)
(0.945582 -0.00137428 0)
(0.948263 -0.00130956 0)
(0.950817 -0.00124739 0)
(0.95325 -0.00118772 0)
(0.955565 -0.00113049 0)
(0.957769 -0.00107567 0)
(0.959865 -0.0010232 0)
(0.961859 -0.000973009 0)
(0.963755 -0.000925055 0)
(0.965557 -0.00087927 0)
(0.967269 -0.000835592 0)
(0.968897 -0.000793955 0)
(0.970443 -0.000754293 0)
(0.971912 -0.000716537 0)
(0.973307 -0.000680619 0)
(0.974633 -0.000646467 0)
(0.975891 -0.000614011 0)
(0.977087 -0.000583181 0)
(0.978223 -0.000553904 0)
(0.979301 -0.000526111 0)
(0.980326 -0.00049973 0)
(0.981299 -0.000474693 0)
(0.982223 -0.00045093 0)
(0.983101 -0.000428374 0)
(0.983935 -0.00040696 0)
(0.984728 -0.000386623 0)
(0.985481 -0.000367301 0)
(0.986196 -0.000348937 0)
(0.986876 -0.000331474 0)
(0.987521 -0.000314859 0)
(0.988134 -0.000299043 0)
(0.988716 -0.000283982 0)
(0.989269 -0.000269635 0)
(0.989794 -0.000255964 0)
(0.990293 -0.000242938 0)
(0.990765 -0.000230527 0)
(0.991214 -0.000218706 0)
(0.99164 -0.000207451 0)
(0.992043 -0.000196741 0)
(0.992426 -0.000186558 0)
(0.992789 -0.000176884 0)
(0.993133 -0.000167701 0)
(0.993459 -0.000158991 0)
(0.993769 -0.000150738 0)
(0.994062 -0.000142923 0)
(0.99434 -0.00013553 0)
(0.994604 -0.00012854 0)
(0.994854 -0.000121934 0)
(0.995091 -0.000115696 0)
(0.995316 -0.000109807 0)
(0.99553 -0.000104248 0)
(0.995733 -9.90035e-05 0)
(0.995926 -9.40555e-05 0)
(0.996109 -8.93878e-05 0)
(0.996283 -8.49846e-05 0)
(0.996448 -8.08307e-05 0)
(0.996606 -7.69113e-05 0)
(0.996756 -7.32125e-05 0)
(0.996899 -6.97207e-05 0)
(0.997035 -6.64231e-05 0)
(0.997164 -6.33072e-05 0)
(0.997288 -6.03612e-05 0)
(0.997405 -5.75739e-05 0)
(0.997518 -5.49346e-05 0)
(0.997625 -5.24329e-05 0)
(0.997727 -5.00595e-05 0)
(0.997825 -4.78051e-05 0)
(0.997918 -4.56613e-05 0)
(0.998008 -4.36202e-05 0)
(0.998093 -4.16747e-05 0)
(0.998174 -3.98181e-05 0)
(0.998252 -3.80442e-05 0)
(0.998326 -3.63476e-05 0)
(0.998397 -3.47234e-05 0)
(0.998465 -3.31671e-05 0)
(0.99853 -3.16747e-05 0)
(0.998592 -3.02428e-05 0)
(0.998651 -2.88683e-05 0)
(0.998707 -2.75484e-05 0)
(0.998761 -2.62807e-05 0)
(0.998812 -2.50629e-05 0)
(0.998861 -2.38933e-05 0)
(0.998908 -2.27699e-05 0)
(0.998952 -2.16912e-05 0)
(0.998995 -2.06558e-05 0)
(0.999035 -1.96624e-05 0)
(0.999073 -1.87097e-05 0)
(0.99911 -1.77966e-05 0)
(0.999144 -1.69219e-05 0)
(0.999177 -1.60846e-05 0)
(0.999209 -1.52836e-05 0)
(0.999238 -1.4518e-05 0)
(0.999267 -1.37867e-05 0)
(0.999293 -1.30888e-05 0)
(0.999319 -1.24233e-05 0)
(0.999343 -1.17892e-05 0)
(0.999366 -1.11856e-05 0)
(0.999388 -1.06115e-05 0)
(0.999409 -1.00659e-05 0)
(0.999428 -9.54796e-06 0)
(0.999447 -9.05663e-06 0)
(0.999464 -8.591e-06 0)
(0.999481 -8.15014e-06 0)
(0.999497 -7.73312e-06 0)
(0.999512 -7.33902e-06 0)
(0.999526 -6.96694e-06 0)
(0.99954 -6.616e-06 0)
(0.999553 -6.2853e-06 0)
(0.999565 -5.97399e-06 0)
(0.999577 -5.68123e-06 0)
(0.999588 -5.40617e-06 0)
(0.999598 -5.14801e-06 0)
(0.999608 -4.90594e-06 0)
(0.999618 -4.67919e-06 0)
(0.999627 -4.46699e-06 0)
(0.999636 -4.2686e-06 0)
(0.999644 -4.0833e-06 0)
(0.999652 -3.91039e-06 0)
(0.99966 -3.74918e-06 0)
(0.999667 -3.59901e-06 0)
(0.999674 -3.45925e-06 0)
(0.999681 -3.32926e-06 0)
(0.999687 -3.20846e-06 0)
(0.999694 -3.09627e-06 0)
(0.9997 -2.99213e-06 0)
(0.999706 -2.89552e-06 0)
(0.999711 -2.80592e-06 0)
(0.999717 -2.72284e-06 0)
(0.999722 -2.64583e-06 0)
(0.999727 -2.57442e-06 0)
(0.999732 -2.5082e-06 0)
(0.999737 -2.44676e-06 0)
(0.999742 -2.38972e-06 0)
(0.999747 -2.3367e-06 0)
(0.999752 -2.28737e-06 0)
(0.999756 -2.24138e-06 0)
(0.99976 -2.19841e-06 0)
(0.999765 -2.15818e-06 0)
(0.999769 -2.12039e-06 0)
(0.999773 -2.08478e-06 0)
(0.999777 -2.05107e-06 0)
(0.999782 -2.01904e-06 0)
(0.999786 -1.98844e-06 0)
(0.999789 -1.95904e-06 0)
(0.999793 -1.93065e-06 0)
(0.999797 -1.90305e-06 0)
(0.999801 -1.87605e-06 0)
(0.999805 -1.84948e-06 0)
(0.999808 -1.82315e-06 0)
(0.999812 -1.7969e-06 0)
(0.999816 -1.77059e-06 0)
(0.999819 -1.74406e-06 0)
(0.999823 -1.7172e-06 0)
(0.999826 -1.68987e-06 0)
(0.999829 -1.66198e-06 0)
(0.999833 -1.63343e-06 0)
(0.999836 -1.60414e-06 0)
(0.999839 -1.57405e-06 0)
(0.999842 -1.54311e-06 0)
(0.999845 -1.51129e-06 0)
(0.999848 -1.47858e-06 0)
(0.999851 -1.44499e-06 0)
(0.999854 -1.41056e-06 0)
(0.999857 -1.37532e-06 0)
(0.999859 -1.33935e-06 0)
(0.999862 -1.30275e-06 0)
(0.999865 -1.26561e-06 0)
(0.999867 -1.22808e-06 0)
(0.99987 -1.19029e-06 0)
(0.999872 -1.15241e-06 0)
(0.999874 -1.11458e-06 0)
(0.999876 -1.07699e-06 0)
(0.999878 -1.0398e-06 0)
(0.999881 -1.00317e-06 0)
(0.999882 -9.67241e-07 0)
(0.999884 -9.32164e-07 0)
(0.999886 -8.98052e-07 0)
(0.999888 -8.65005e-07 0)
(0.99989 -8.33105e-07 0)
(0.999891 -8.02414e-07 0)
(0.999893 -7.72982e-07 0)
(0.999894 -7.44849e-07 0)
(0.999896 -7.18049e-07 0)
(0.999897 -6.9262e-07 0)
(0.999899 -6.68604e-07 0)
(0.9999 -6.4606e-07 0)
(0.999901 -6.25056e-07 0)
(0.999902 -6.05676e-07 0)
(0.999904 -5.88012e-07 0)
(0.999905 -5.72155e-07 0)
(0.999906 -5.58184e-07 0)
(0.999907 -5.46145e-07 0)
(0.999908 -5.3604e-07 0)
(0.999909 -5.27801e-07 0)
(0.99991 -5.21286e-07 0)
(0.999911 -5.16259e-07 0)
(0.999912 -5.12401e-07 0)
(0.999913 -5.09316e-07 0)
(0.999914 -5.06553e-07 0)
(0.999915 -5.03645e-07 0)
(0.999916 -5.00145e-07 0)
(0.999917 -4.9567e-07 0)
(0.999918 -4.89951e-07 0)
(0.999919 -4.8286e-07 0)
(0.99992 -4.74435e-07 0)
(0.999921 -4.64889e-07 0)
(0.999922 -4.5459e-07 0)
(0.999923 -4.44032e-07 0)
(0.999924 -4.33795e-07 0)
(0.999925 -4.2448e-07 0)
(0.999926 -4.16663e-07 0)
(0.999926 -4.10834e-07 0)
(0.999927 -4.07363e-07 0)
(0.999928 -4.06467e-07 0)
(0.999929 -4.08199e-07 0)
(0.99993 -4.12456e-07 0)
(0.999931 -4.18992e-07 0)
(0.999931 -4.27447e-07 0)
(0.999932 -4.37381e-07 0)
(0.999933 -4.48305e-07 0)
(0.999934 -4.59718e-07 0)
(0.999935 -4.71135e-07 0)
(0.999936 -4.82109e-07 0)
(0.999937 -4.92252e-07 0)
(0.999938 -5.01242e-07 0)
(0.999939 -5.0883e-07 0)
(0.99994 -5.14838e-07 0)
(0.999941 -5.19159e-07 0)
(0.999942 -5.21748e-07 0)
(0.999943 -5.22612e-07 0)
(0.999944 -5.21805e-07 0)
(0.999945 -5.19413e-07 0)
(0.999946 -5.15552e-07 0)
(0.999947 -5.10354e-07 0)
(0.999948 -5.03963e-07 0)
(0.999949 -4.96526e-07 0)
(0.99995 -4.88191e-07 0)
(0.999951 -4.79104e-07 0)
(0.999952 -4.694e-07 0)
(0.999953 -4.5921e-07 0)
(0.999954 -4.48649e-07 0)
(0.999955 -4.37827e-07 0)
(0.999956 -4.26838e-07 0)
(0.999957 -4.15768e-07 0)
(0.999957 -4.04689e-07 0)
(0.999958 -3.93665e-07 0)
(0.999959 -3.82751e-07 0)
(0.99996 -3.71992e-07 0)
(0.99996 -3.61426e-07 0)
(0.999961 -3.51081e-07 0)
(0.999962 -3.40984e-07 0)
(0.999962 -3.31151e-07 0)
(0.999963 -3.21597e-07 0)
(0.999964 -3.12331e-07 0)
(0.999964 -3.03359e-07 0)
(0.999965 -2.94684e-07 0)
(0.999966 -2.86306e-07 0)
(0.999966 -2.78222e-07 0)
(0.999967 -2.70431e-07 0)
(0.999967 -2.62925e-07 0)
(0.999968 -2.557e-07 0)
(0.999968 -2.48748e-07 0)
(0.999969 -2.4206e-07 0)
(0.999969 -2.3563e-07 0)
(0.99997 -2.29447e-07 0)
(0.99997 -2.23504e-07 0)
(0.999971 -2.17791e-07 0)
(0.999971 -2.12299e-07 0)
(0.999971 -2.07019e-07 0)
(0.999972 -2.01942e-07 0)
(0.999972 -1.9706e-07 0)
(0.999973 -1.92363e-07 0)
(0.999973 -1.87844e-07 0)
(0.999973 -1.83495e-07 0)
(0.999974 -1.79307e-07 0)
(0.999974 -1.75273e-07 0)
(0.999974 -1.71386e-07 0)
(0.999975 -1.67639e-07 0)
(0.999975 -1.64026e-07 0)
(0.999975 -1.60539e-07 0)
(0.999976 -1.57172e-07 0)
(0.999976 -1.53921e-07 0)
(0.999976 -1.50779e-07 0)
(0.999977 -1.47741e-07 0)
(0.999977 -1.44801e-07 0)
(0.999977 -1.41956e-07 0)
(0.999978 -1.39201e-07 0)
(0.999978 -1.3653e-07 0)
(0.999978 -1.33941e-07 0)
(0.999978 -1.31429e-07 0)
(0.999979 -1.2899e-07 0)
(0.999979 -1.26621e-07 0)
(0.999979 -1.24318e-07 0)
(0.999979 -1.22079e-07 0)
(0.99998 -1.199e-07 0)
(0.99998 -1.17779e-07 0)
(0.99998 -1.15713e-07 0)
(0.99998 -1.13698e-07 0)
(0.999981 -1.11734e-07 0)
(0.999981 -1.09817e-07 0)
(0.999981 -1.07945e-07 0)
(0.999981 -1.06117e-07 0)
(0.999981 -1.0433e-07 0)
(0.999982 -1.02583e-07 0)
(0.999982 -1.00873e-07 0)
(0.999982 -9.91991e-08 0)
(0.999982 -9.75599e-08 0)
(0.999982 -9.59537e-08 0)
(0.999983 -9.43791e-08 0)
(0.999983 -9.28348e-08 0)
(0.999983 -9.13196e-08 0)
(0.999983 -8.98321e-08 0)
(0.999983 -8.83713e-08 0)
(0.999983 -8.69361e-08 0)
(0.999984 -8.55254e-08 0)
(0.999984 -8.41383e-08 0)
(0.999984 -8.2774e-08 0)
(0.999984 -8.14314e-08 0)
(0.999984 -8.01099e-08 0)
(0.999984 -7.88085e-08 0)
(0.999985 -7.75266e-08 0)
(0.999985 -7.62635e-08 0)
(0.999985 -7.50184e-08 0)
(0.999985 -7.37907e-08 0)
(0.999985 -7.25799e-08 0)
(0.999985 -7.13853e-08 0)
(0.999986 -7.02063e-08 0)
(0.999986 -6.90425e-08 0)
(0.999986 -6.78934e-08 0)
(0.999986 -6.67585e-08 0)
(0.999986 -6.56373e-08 0)
(0.999986 -6.45294e-08 0)
(0.999986 -6.34344e-08 0)
(0.999986 -6.23519e-08 0)
(0.999987 -6.12814e-08 0)
(0.999987 -6.02227e-08 0)
(0.999987 -5.91754e-08 0)
(0.999987 -5.81392e-08 0)
(0.999987 -5.71137e-08 0)
(0.999987 -5.60986e-08 0)
(0.999987 -5.50937e-08 0)
(0.999987 -5.40986e-08 0)
(0.999987 -5.31136e-08 0)
(0.999988 -5.21358e-08 0)
(0.999988 -5.11761e-08 0)
(0.999988 -5.0187e-08 0)
(0.999988 -4.93704e-08 0)
(0.999988 -4.78589e-08 0)
(-0.0277561 0.0514644 0)
(-0.0303098 0.00250017 0)
(-0.009249 -0.0361645 0)
(0.0211049 -0.0298334 0)
(0.125087 -0.153334 0)
(0.51432 -0.120839 0)
(0.599601 -0.000177426 0)
(0.830712 0.0448986 0)
(0.500814 0.0451636 0)
(0.393955 0.0170658 0)
(0.350612 -0.00164659 0)
(0.338652 0.0360584 0)
(0.304186 0.0519363 0)
(0.260869 0.032012 0)
(0.233582 0.00919334 0)
(0.221545 0.000380083 0)
(0.217211 -5.028e-05 0)
(0.216045 0.000571652 0)
(0.215785 -0.000117076 0)
(0.216148 -0.00182325 0)
(0.217447 -0.00385001 0)
(0.219803 -0.00577667 0)
(0.22322 -0.00740519 0)
(0.227606 -0.00872593 0)
(0.232929 -0.00996992 0)
(0.239426 -0.0113828 0)
(0.247439 -0.0129797 0)
(0.257057 -0.0145853 0)
(0.268007 -0.0159764 0)
(0.279826 -0.0170024 0)
(0.292076 -0.0176458 0)
(0.304467 -0.0180003 0)
(0.316878 -0.0182111 0)
(0.329321 -0.0184109 0)
(0.341864 -0.0186731 0)
(0.354566 -0.0189987 0)
(0.367442 -0.01934 0)
(0.380464 -0.0196476 0)
(0.393604 -0.019908 0)
(0.406868 -0.0201482 0)
(0.420297 -0.0204043 0)
(0.433952 -0.0206773 0)
(0.44786 -0.0209091 0)
(0.461985 -0.0209952 0)
(0.476197 -0.0208179 0)
(0.490252 -0.0202816 0)
(0.503826 -0.0194172 0)
(0.516749 -0.0185441 0)
(0.529173 -0.0179338 0)
(0.54133 -0.0175129 0)
(0.553271 -0.0171293 0)
(0.564924 -0.0167195 0)
(0.576206 -0.016303 0)
(0.587124 -0.0159883 0)
(0.597825 -0.0158737 0)
(0.608498 -0.0159171 0)
(0.61923 -0.0160124 0)
(0.630014 -0.0160868 0)
(0.640807 -0.0161104 0)
(0.651575 -0.0160944 0)
(0.66231 -0.0160645 0)
(0.673023 -0.0160141 0)
(0.683694 -0.0159146 0)
(0.694278 -0.015754 0)
(0.70473 -0.0155459 0)
(0.715028 -0.0153091 0)
(0.72516 -0.0150482 0)
(0.73511 -0.0147609 0)
(0.744858 -0.0144523 0)
(0.754394 -0.0141306 0)
(0.763711 -0.0137994 0)
(0.772804 -0.0134596 0)
(0.781667 -0.0131142 0)
(0.790297 -0.0127657 0)
(0.798694 -0.0124151 0)
(0.806855 -0.0120634 0)
(0.814782 -0.0117116 0)
(0.822473 -0.0113603 0)
(0.82993 -0.0110099 0)
(0.837153 -0.010661 0)
(0.844144 -0.010314 0)
(0.850904 -0.00996939 0)
(0.857435 -0.00962775 0)
(0.863739 -0.00928969 0)
(0.869818 -0.00895582 0)
(0.875676 -0.00862675 0)
(0.881316 -0.00830306 0)
(0.886742 -0.00798529 0)
(0.891957 -0.00767391 0)
(0.896967 -0.00736934 0)
(0.901776 -0.00707193 0)
(0.906389 -0.00678197 0)
(0.910811 -0.0064997 0)
(0.915047 -0.00622529 0)
(0.919103 -0.00595888 0)
(0.922984 -0.00570056 0)
(0.926695 -0.00545039 0)
(0.930242 -0.00520839 0)
(0.933631 -0.00497455 0)
(0.936866 -0.00474883 0)
(0.939954 -0.00453117 0)
(0.942899 -0.00432148 0)
(0.945707 -0.00411967 0)
(0.948383 -0.00392562 0)
(0.950933 -0.0037392 0)
(0.953361 -0.00356028 0)
(0.955672 -0.00338872 0)
(0.957871 -0.00322435 0)
(0.959963 -0.00306702 0)
(0.961953 -0.00291655 0)
(0.963844 -0.00277278 0)
(0.965643 -0.00263552 0)
(0.967351 -0.00250458 0)
(0.968975 -0.00237976 0)
(0.970518 -0.00226086 0)
(0.971983 -0.00214768 0)
(0.973375 -0.00204001 0)
(0.974697 -0.00193764 0)
(0.975953 -0.00184035 0)
(0.977145 -0.00174794 0)
(0.978278 -0.00166019 0)
(0.979354 -0.00157689 0)
(0.980375 -0.00149782 0)
(0.981346 -0.00142278 0)
(0.982268 -0.00135156 0)
(0.983144 -0.00128397 0)
(0.983976 -0.00121979 0)
(0.984766 -0.00115884 0)
(0.985518 -0.00110094 0)
(0.986231 -0.00104591 0)
(0.986909 -0.00099357 0)
(0.987553 -0.000943774 0)
(0.988164 -0.000896373 0)
(0.988745 -0.000851231 0)
(0.989297 -0.000808226 0)
(0.989821 -0.000767248 0)
(0.990318 -0.000728198 0)
(0.990789 -0.000690991 0)
(0.991237 -0.000655549 0)
(0.991661 -0.000621805 0)
(0.992064 -0.000589696 0)
(0.992446 -0.000559166 0)
(0.992808 -0.00053016 0)
(0.993151 -0.000502627 0)
(0.993476 -0.000476516 0)
(0.993785 -0.000451774 0)
(0.994077 -0.000428349 0)
(0.994354 -0.000406187 0)
(0.994617 -0.000385235 0)
(0.994866 -0.000365439 -8.68094e-42)
(0.995103 -0.000346742 -8.50878e-42)
(0.995327 -0.000329092 0)
(0.995541 -0.000312435 0)
(0.995743 -0.000296718 0)
(0.995935 -0.00028189 0)
(0.996118 -0.000267903 0)
(0.996291 -0.000254709 0)
(0.996456 -0.000242261 0)
(0.996613 -0.000230517 0)
(0.996763 -0.000219433 0)
(0.996905 -0.00020897 0)
(0.997041 -0.000199089 0)
(0.99717 -0.000189753 0)
(0.997293 -0.000180926 0)
(0.997411 -0.000172575 0)
(0.997523 -0.000164667 0)
(0.99763 -0.000157171 0)
(0.997732 -0.00015006 0)
(0.997829 -0.000143305 0)
(0.997923 -0.000136881 0)
(0.998012 -0.000130765 0)
(0.998097 -0.000124935 0)
(0.998178 -0.000119371 0)
(0.998255 -0.000114055 0)
(0.99833 -0.00010897 0)
(0.998401 -0.000104102 0)
(0.998468 -9.94371e-05 0)
(0.998533 -9.49636e-05 0)
(0.998595 -9.06711e-05 0)
(0.998654 -8.65503e-05 0)
(0.99871 -8.25931e-05 0)
(0.998763 -7.8792e-05 0)
(0.998815 -7.51407e-05 0)
(0.998863 -7.16334e-05 0)
(0.99891 -6.82649e-05 0)
(0.998954 -6.50303e-05 0)
(0.998997 -6.19256e-05 0)
(0.999037 -5.89466e-05 0)
(0.999075 -5.60897e-05 0)
(0.999111 -5.33514e-05 0)
(0.999146 -5.07283e-05 0)
(0.999179 -4.82174e-05 0)
(0.99921 -4.58156e-05 0)
(0.99924 -4.35197e-05 0)
(0.999268 -4.13268e-05 0)
(0.999295 -3.92341e-05 0)
(0.99932 -3.72385e-05 0)
(0.999344 -3.53372e-05 0)
(0.999367 -3.35273e-05 0)
(0.999389 -3.1806e-05 0)
(0.99941 -3.01702e-05 0)
(0.999429 -2.86172e-05 0)
(0.999448 -2.71442e-05 0)
(0.999465 -2.57482e-05 0)
(0.999482 -2.44266e-05 0)
(0.999498 -2.31764e-05 0)
(0.999513 -2.1995e-05 0)
(0.999527 -2.08797e-05 0)
(0.99954 -1.98277e-05 0)
(0.999553 -1.88365e-05 0)
(0.999565 -1.79034e-05 0)
(0.999577 -1.7026e-05 0)
(0.999588 -1.62016e-05 0)
(0.999599 -1.54279e-05 0)
(0.999609 -1.47025e-05 0)
(0.999618 -1.4023e-05 0)
(0.999627 -1.33871e-05 0)
(0.999636 -1.27927e-05 0)
(0.999644 -1.22375e-05 0)
(0.999652 -1.17195e-05 0)
(0.99966 -1.12365e-05 0)
(0.999667 -1.07866e-05 0)
(0.999674 -1.0368e-05 0)
(0.999681 -9.97859e-06 0)
(0.999687 -9.61677e-06 0)
(0.999694 -9.28074e-06 0)
(0.9997 -8.96887e-06 0)
(0.999706 -8.67953e-06 0)
(0.999711 -8.41122e-06 0)
(0.999717 -8.16246e-06 0)
(0.999722 -7.93186e-06 0)
(0.999727 -7.71807e-06 0)
(0.999733 -7.51981e-06 0)
(0.999737 -7.33589e-06 0)
(0.999742 -7.16513e-06 0)
(0.999747 -7.00643e-06 0)
(0.999752 -6.85875e-06 0)
(0.999756 -6.72109e-06 0)
(0.999761 -6.59251e-06 0)
(0.999765 -6.47209e-06 0)
(0.999769 -6.359e-06 0)
(0.999773 -6.25241e-06 0)
(0.999778 -6.15155e-06 0)
(0.999782 -6.05568e-06 0)
(0.999786 -5.9641e-06 0)
(0.99979 -5.87613e-06 0)
(0.999793 -5.79115e-06 0)
(0.999797 -5.70854e-06 0)
(0.999801 -5.62773e-06 0)
(0.999805 -5.54817e-06 0)
(0.999808 -5.46935e-06 0)
(0.999812 -5.39076e-06 0)
(0.999816 -5.31196e-06 0)
(0.999819 -5.23252e-06 0)
(0.999823 -5.15205e-06 0)
(0.999826 -5.07018e-06 0)
(0.999829 -4.9866e-06 0)
(0.999833 -4.90102e-06 0)
(0.999836 -4.81321e-06 0)
(0.999839 -4.72298e-06 0)
(0.999842 -4.63019e-06 0)
(0.999845 -4.53474e-06 0)
(0.999848 -4.43661e-06 0)
(0.999851 -4.33582e-06 0)
(0.999854 -4.23246e-06 0)
(0.999857 -4.12668e-06 0)
(0.99986 -4.01869e-06 0)
(0.999862 -3.90876e-06 0)
(0.999865 -3.79724e-06 0)
(0.999867 -3.6845e-06 0)
(0.99987 -3.57098e-06 0)
(0.999872 -3.45716e-06 0)
(0.999874 -3.34352e-06 0)
(0.999876 -3.23058e-06 0)
(0.999879 -3.11884e-06 0)
(0.999881 -3.00879e-06 0)
(0.999883 -2.90089e-06 0)
(0.999884 -2.79554e-06 0)
(0.999886 -2.6931e-06 0)
(0.999888 -2.59388e-06 0)
(0.99989 -2.49812e-06 0)
(0.999891 -2.406e-06 0)
(0.999893 -2.31766e-06 0)
(0.999894 -2.23321e-06 0)
(0.999896 -2.15276e-06 0)
(0.999897 -2.07641e-06 0)
(0.999899 -2.0043e-06 0)
(0.9999 -1.93659e-06 0)
(0.999901 -1.87351e-06 0)
(0.999902 -1.8153e-06 0)
(0.999904 -1.76225e-06 0)
(0.999905 -1.71465e-06 0)
(0.999906 -1.67274e-06 0)
(0.999907 -1.63666e-06 0)
(0.999908 -1.60642e-06 0)
(0.999909 -1.58184e-06 0)
(0.99991 -1.56247e-06 0)
(0.999911 -1.54762e-06 0)
(0.999912 -1.5363e-06 0)
(0.999913 -1.52732e-06 0)
(0.999914 -1.5193e-06 0)
(0.999915 -1.51081e-06 0)
(0.999916 -1.5005e-06 0)
(0.999917 -1.48719e-06 0)
(0.999918 -1.47007e-06 0)
(0.999919 -1.44877e-06 0)
(0.99992 -1.42341e-06 0)
(0.999921 -1.39466e-06 0)
(0.999922 -1.36365e-06 0)
(0.999923 -1.3319e-06 0)
(0.999924 -1.30117e-06 0)
(0.999925 -1.27329e-06 0)
(0.999926 -1.24997e-06 0)
(0.999926 -1.2327e-06 0)
(0.999927 -1.22256e-06 0)
(0.999928 -1.22018e-06 0)
(0.999929 -1.2257e-06 0)
(0.99993 -1.23879e-06 0)
(0.99993 -1.2587e-06 0)
(0.999931 -1.28432e-06 0)
(0.999932 -1.31434e-06 0)
(0.999933 -1.34727e-06 0)
(0.999934 -1.38162e-06 0)
(0.999935 -1.41593e-06 0)
(0.999936 -1.44887e-06 0)
(0.999937 -1.47927e-06 0)
(0.999938 -1.50617e-06 0)
(0.999939 -1.52883e-06 0)
(0.99994 -1.54673e-06 0)
(0.999941 -1.55955e-06 0)
(0.999942 -1.56715e-06 0)
(0.999943 -1.56957e-06 0)
(0.999944 -1.56697e-06 0)
(0.999945 -1.55961e-06 0)
(0.999946 -1.54785e-06 0)
(0.999947 -1.53208e-06 0)
(0.999948 -1.51274e-06 0)
(0.999949 -1.49026e-06 0)
(0.99995 -1.46511e-06 0)
(0.999951 -1.43771e-06 0)
(0.999952 -1.40847e-06 0)
(0.999953 -1.37779e-06 0)
(0.999954 -1.346e-06 0)
(0.999955 -1.31345e-06 0)
(0.999956 -1.2804e-06 0)
(0.999957 -1.24712e-06 0)
(0.999957 -1.21383e-06 0)
(0.999958 -1.18071e-06 0)
(0.999959 -1.14793e-06 0)
(0.99996 -1.11562e-06 0)
(0.99996 -1.08389e-06 0)
(0.999961 -1.05284e-06 0)
(0.999962 -1.02253e-06 0)
(0.999963 -9.93024e-07 0)
(0.999963 -9.64357e-07 0)
(0.999964 -9.36557e-07 0)
(0.999964 -9.09642e-07 0)
(0.999965 -8.8362e-07 0)
(0.999966 -8.5849e-07 0)
(0.999966 -8.34248e-07 0)
(0.999967 -8.10881e-07 0)
(0.999967 -7.88374e-07 0)
(0.999968 -7.66708e-07 0)
(0.999968 -7.45862e-07 0)
(0.999969 -7.25811e-07 0)
(0.999969 -7.06531e-07 0)
(0.99997 -6.87995e-07 0)
(0.99997 -6.70176e-07 0)
(0.999971 -6.53048e-07 0)
(0.999971 -6.36583e-07 0)
(0.999971 -6.20754e-07 0)
(0.999972 -6.05534e-07 0)
(0.999972 -5.90898e-07 0)
(0.999973 -5.76819e-07 0)
(0.999973 -5.63272e-07 0)
(0.999973 -5.50233e-07 0)
(0.999974 -5.37679e-07 0)
(0.999974 -5.25586e-07 0)
(0.999974 -5.13934e-07 0)
(0.999975 -5.02702e-07 0)
(0.999975 -4.91868e-07 0)
(0.999975 -4.81415e-07 0)
(0.999976 -4.71324e-07 0)
(0.999976 -4.61577e-07 0)
(0.999976 -4.52157e-07 0)
(0.999977 -4.43049e-07 0)
(0.999977 -4.34237e-07 0)
(0.999977 -4.25708e-07 0)
(0.999978 -4.17446e-07 0)
(0.999978 -4.0944e-07 0)
(0.999978 -4.01677e-07 0)
(0.999978 -3.94145e-07 0)
(0.999979 -3.86833e-07 0)
(0.999979 -3.7973e-07 0)
(0.999979 -3.72827e-07 0)
(0.999979 -3.66114e-07 0)
(0.99998 -3.59582e-07 0)
(0.99998 -3.53221e-07 0)
(0.99998 -3.47025e-07 0)
(0.99998 -3.40986e-07 0)
(0.999981 -3.35096e-07 0)
(0.999981 -3.29348e-07 0)
(0.999981 -3.23736e-07 0)
(0.999981 -3.18254e-07 0)
(0.999981 -3.12896e-07 0)
(0.999982 -3.07656e-07 0)
(0.999982 -3.02529e-07 0)
(0.999982 -2.97511e-07 0)
(0.999982 -2.92595e-07 0)
(0.999982 -2.87779e-07 0)
(0.999983 -2.83057e-07 0)
(0.999983 -2.78426e-07 0)
(0.999983 -2.73882e-07 0)
(0.999983 -2.69422e-07 0)
(0.999983 -2.65041e-07 0)
(0.999983 -2.60737e-07 0)
(0.999984 -2.56507e-07 0)
(0.999984 -2.52347e-07 0)
(0.999984 -2.48256e-07 0)
(0.999984 -2.4423e-07 0)
(0.999984 -2.40266e-07 0)
(0.999984 -2.36364e-07 0)
(0.999985 -2.32519e-07 0)
(0.999985 -2.28731e-07 0)
(0.999985 -2.24997e-07 0)
(0.999985 -2.21316e-07 0)
(0.999985 -2.17684e-07 0)
(0.999985 -2.14101e-07 0)
(0.999986 -2.10566e-07 0)
(0.999986 -2.07075e-07 0)
(0.999986 -2.03629e-07 0)
(0.999986 -2.00225e-07 0)
(0.999986 -1.96863e-07 0)
(0.999986 -1.9354e-07 0)
(0.999986 -1.90256e-07 0)
(0.999986 -1.87009e-07 0)
(0.999987 -1.83799e-07 0)
(0.999987 -1.80623e-07 0)
(0.999987 -1.77482e-07 0)
(0.999987 -1.74374e-07 0)
(0.999987 -1.71299e-07 0)
(0.999987 -1.68254e-07 0)
(0.999987 -1.6524e-07 0)
(0.999987 -1.62256e-07 0)
(0.999987 -1.59302e-07 0)
(0.999988 -1.56369e-07 0)
(0.999988 -1.5349e-07 0)
(0.999988 -1.50524e-07 0)
(0.999988 -1.48075e-07 0)
(0.999988 -1.43542e-07 0)
(-0.0211461 0.0718932 0)
(-0.0138774 -0.0048418 0)
(-0.00378097 -0.0637298 0)
(0.2251 -0.186854 0)
(0.0151522 -0.413719 0)
(0.0755879 -0.23405 0)
(0.120147 -0.108213 0)
(0.158343 0.000373386 0)
(0.235595 -0.014373 0)
(0.282588 -0.0131578 0)
(0.268323 0.0304611 0)
(0.239887 0.0745811 0)
(0.218809 0.0835579 0)
(0.207749 0.0566431 0)
(0.203343 0.0239625 0)
(0.200215 0.00537701 0)
(0.199858 -0.000435774 0)
(0.202419 -0.00122911 0)
(0.205664 -0.00140059 0)
(0.208702 -0.00217863 0)
(0.212308 -0.00388579 0)
(0.217722 -0.0064175 0)
(0.225615 -0.00920095 0)
(0.235939 -0.0119766 0)
(0.248622 -0.0152538 0)
(0.26372 -0.0192274 0)
(0.280776 -0.0232485 0)
(0.298707 -0.0265583 0)
(0.316333 -0.0288102 0)
(0.33284 -0.0300664 0)
(0.347904 -0.0306429 0)
(0.361576 -0.0309056 0)
(0.37411 -0.0311266 0)
(0.385803 -0.0314352 0)
(0.396876 -0.0318305 0)
(0.407424 -0.0322466 0)
(0.417462 -0.0326278 0)
(0.427005 -0.0329645 0)
(0.436127 -0.0332867 0)
(0.444988 -0.0336378 0)
(0.453785 -0.0340356 0)
(0.462692 -0.0344512 0)
(0.471819 -0.0348066 0)
(0.481219 -0.0349787 0)
(0.490927 -0.0348129 0)
(0.500888 -0.0341032 0)
(0.510776 -0.0327174 0)
(0.520381 -0.0313011 0)
(0.530128 -0.0304521 0)
(0.540489 -0.0299332 0)
(0.551419 -0.0293856 0)
(0.562606 -0.0286535 0)
(0.573708 -0.0277599 0)
(0.58454 -0.0270121 0)
(0.595261 -0.0267189 0)
(0.606138 -0.0267623 0)
(0.617232 -0.0268858 0)
(0.628444 -0.0269537 0)
(0.639649 -0.0269226 0)
(0.650756 -0.0268372 0)
(0.661768 -0.0267726 0)
(0.672732 -0.0267041 0)
(0.683636 -0.0265513 0)
(0.694404 -0.0262809 0)
(0.704977 -0.0259248 0)
(0.715348 -0.025529 0)
(0.725529 -0.0250978 0)
(0.735514 -0.0246178 0)
(0.74528 -0.0240997 0)
(0.754822 -0.0235626 0)
(0.764143 -0.0230103 0)
(0.773238 -0.0224423 0)
(0.782103 -0.0218647 0)
(0.790734 -0.0212825 0)
(0.799132 -0.0206969 0)
(0.807295 -0.0201096 0)
(0.815222 -0.0195224 0)
(0.822914 -0.0189361 0)
(0.830371 -0.0183514 0)
(0.837593 -0.0177691 0)
(0.844583 -0.0171901 0)
(0.85134 -0.0166151 0)
(0.857868 -0.0160449 0)
(0.864167 -0.0154807 0)
(0.870242 -0.0149235 0)
(0.876094 -0.0143744 0)
(0.881727 -0.0138342 0)
(0.887145 -0.013304 0)
(0.892352 -0.0127845 0)
(0.897354 -0.0122764 0)
(0.902154 -0.0117803 0)
(0.906757 -0.0112967 0)
(0.911169 -0.0108259 0)
(0.915396 -0.0103684 0)
(0.919441 -0.00992415 0)
(0.923312 -0.00949348 0)
(0.927013 -0.00907643 0)
(0.93055 -0.00867303 0)
(0.933928 -0.00828326 0)
(0.937153 -0.00790705 0)
(0.940231 -0.0075443 0)
(0.943166 -0.00719487 0)
(0.945964 -0.00685858 0)
(0.948631 -0.00653524 0)
(0.95117 -0.00622464 0)
(0.953589 -0.00592654 0)
(0.955891 -0.00564071 0)
(0.958081 -0.00536689 0)
(0.960164 -0.00510481 0)
(0.962145 -0.00485419 0)
(0.964028 -0.00461472 0)
(0.965818 -0.00438612 0)
(0.967518 -0.00416805 0)
(0.969134 -0.0039602 0)
(0.970669 -0.00376223 0)
(0.972128 -0.00357379 0)
(0.973512 -0.00339454 0)
(0.974828 -0.00322412 0)
(0.976077 -0.00306219 0)
(0.977263 -0.00290838 0)
(0.97839 -0.00276234 0)
(0.97946 -0.00262371 0)
(0.980477 -0.00249214 0)
(0.981442 -0.00236729 0)
(0.982359 -0.0022488 0)
(0.983231 -0.00213634 0)
(0.984058 -0.00202957 0)
(0.984845 -0.00192818 0)
(0.985592 -0.00183186 0)
(0.986302 -0.00174031 0)
(0.986976 -0.00165325 0)
(0.987617 -0.00157041 0)
(0.988226 -0.00149154 0)
(0.988803 -0.00141643 0)
(0.989352 -0.00134487 0)
(0.989873 -0.00127668 0)
(0.990368 -0.00121169 0)
(0.990837 -0.00114975 0)
(0.991283 -0.00109076 0)
(0.991705 -0.00103458 0)
(0.992105 -0.000981125 0)
(0.992485 -0.000930297 0)
(0.992845 -0.000882009 0)
(0.993186 -0.000836174 0)
(0.99351 -0.000792709 0)
(0.993816 -0.000751527 0)
(0.994107 -0.00071254 0)
(0.994383 -0.000675661 0)
(0.994644 -0.000640798 0)
(0.994892 -0.000607861 0)
(0.995127 -0.000576757 0)
(0.99535 -0.000547397 0)
(0.995562 -0.00051969 0)
(0.995763 -0.00049355 0)
(0.995954 -0.000468891 0)
(0.996136 -0.000445631 0)
(0.996308 -0.00042369 0)
(0.996473 -0.000402992 0)
(0.996629 -0.000383465 0)
(0.996777 -0.000365037 0)
(0.996919 -0.000347642 0)
(0.997054 -0.000331214 0)
(0.997182 -0.000315693 0)
(0.997305 -0.000301019 0)
(0.997422 -0.000287135 0)
(0.997533 -0.000273988 0)
(0.99764 -0.000261528 0)
(0.997741 -0.000249705 0)
(0.997838 -0.000238475 0)
(0.997931 -0.000227795 0)
(0.99802 -0.000217626 0)
(0.998104 -0.000207931 0)
(0.998185 -0.000198678 0)
(0.998262 -0.000189836 0)
(0.998336 -0.000181377 0)
(0.998407 -0.000173278 0)
(0.998474 -0.000165516 0)
(0.998539 -0.000158072 0)
(0.9986 -0.000150928 0)
(0.998659 -0.000144069 0)
(0.998715 -0.000137482 0)
(0.998768 -0.000131154 0)
(0.998819 -0.000125075 0)
(0.998868 -0.000119235 0)
(0.998914 -0.000113626 0)
(0.998959 -0.00010824 0)
(0.999001 -0.00010307 0)
(0.999041 -9.8109e-05 0)
(0.999079 -9.33513e-05 0)
(0.999115 -8.87911e-05 0)
(0.999149 -8.4423e-05 0)
(0.999182 -8.02415e-05 0)
(0.999213 -7.62417e-05 0)
(0.999243 -7.24186e-05 0)
(0.999271 -6.87671e-05 0)
(0.999298 -6.52824e-05 0)
(0.999323 -6.19596e-05 0)
(0.999347 -5.8794e-05 0)
(0.99937 -5.57807e-05 0)
(0.999391 -5.29149e-05 0)
(0.999412 -5.01919e-05 0)
(0.999431 -4.76067e-05 0)
(0.99945 -4.51548e-05 0)
(0.999467 -4.28313e-05 0)
(0.999484 -4.06316e-05 0)
(0.999499 -3.8551e-05 0)
(0.999514 -3.65851e-05 0)
(0.999528 -3.47291e-05 0)
(0.999542 -3.29788e-05 0)
(0.999555 -3.13296e-05 0)
(0.999567 -2.97773e-05 0)
(0.999578 -2.83176e-05 0)
(0.999589 -2.69464e-05 0)
(0.9996 -2.56596e-05 0)
(0.99961 -2.44531e-05 0)
(0.999619 -2.33232e-05 0)
(0.999628 -2.22659e-05 0)
(0.999637 -2.12776e-05 0)
(0.999645 -2.03546e-05 0)
(0.999653 -1.94934e-05 0)
(0.99966 -1.86907e-05 0)
(0.999668 -1.79431e-05 0)
(0.999675 -1.72473e-05 0)
(0.999681 -1.66004e-05 0)
(0.999688 -1.59992e-05 0)
(0.999694 -1.54411e-05 0)
(0.9997 -1.4923e-05 0)
(0.999706 -1.44425e-05 0)
(0.999712 -1.39969e-05 0)
(0.999717 -1.35839e-05 0)
(0.999723 -1.3201e-05 0)
(0.999728 -1.28461e-05 0)
(0.999733 -1.25171e-05 0)
(0.999738 -1.22118e-05 0)
(0.999742 -1.19284e-05 0)
(0.999747 -1.16651e-05 0)
(0.999752 -1.14201e-05 0)
(0.999756 -1.11917e-05 0)
(0.999761 -1.09784e-05 0)
(0.999765 -1.07787e-05 0)
(0.999769 -1.05911e-05 0)
(0.999774 -1.04143e-05 0)
(0.999778 -1.0247e-05 0)
(0.999782 -1.0088e-05 0)
(0.999786 -9.93612e-06 0)
(0.99979 -9.79022e-06 0)
(0.999794 -9.64926e-06 0)
(0.999797 -9.51222e-06 0)
(0.999801 -9.37815e-06 0)