/*--------------------------------*- C++ -*----------------------------------*\
| =========                 |                                                 |
| \\      /  F ield         | OpenFOAM: The Open Source CFD Toolbox           |
|  \\    /   O peration     | Version:  v2006                                 |
|   \\  /    A nd           | Website:  www.openfoam.com                      |
|    \\/     M anipulation  |                                                 |
\*---------------------------------------------------------------------------*/
FoamFile
{
    version     2.0;
    format      ascii;
    class       volVectorField;
    location    "3.9";
    object      U;
}
// * * * * * * * * * * * * * * * * * * * * * * * * * * * * * * * * * * * * * //

dimensions      [0 1 -1 0 0 0 0];


internalField   nonuniform List<vector> 
52500
(
(-0.00360635 0.00439008 0)
(-0.00749536 0.00262433 0)
(-0.0106514 0.00293309 0)
(-0.0150542 0.00326469 0)
(-0.0192443 0.00334369 0)
(-0.0236304 0.00333201 0)
(-0.0279152 0.00330829 0)
(-0.0321871 0.00328932 0)
(-0.0364389 0.00327234 0)
(-0.0406693 0.00325406 0)
(-0.0448757 0.00323349 0)
(-0.0490556 0.00321066 0)
(-0.053206 0.00318572 0)
(-0.0573243 0.00315874 0)
(-0.0614079 0.0031297 0)
(-0.0654541 0.00309848 0)
(-0.0694606 0.00306512 0)
(-0.0734247 0.00302967 0)
(-0.0773439 0.00299214 0)
(-0.0812159 0.00295254 0)
(-0.0850382 0.00291106 0)
(-0.088808 0.00286757 0)
(-0.0925227 0.00282177 0)
(-0.0961816 0.00277359 0)
(-0.0997825 0.00272433 0)
(-0.103317 0.0026743 0)
(-0.106786 0.00262075 0)
(-0.11019 0.00256504 0)
(-0.113526 0.00250775 0)
(-0.11679 0.00244869 0)
(-0.119981 0.0023876 0)
(-0.123096 0.00232494 0)
(-0.126132 0.00226042 0)
(-0.129088 0.00219415 0)
(-0.131962 0.00212599 0)
(-0.134756 0.00205704 0)
(-0.137457 0.00198773 0)
(-0.140068 0.00191388 0)
(-0.142592 0.00183863 0)
(-0.145022 0.00176248 0)
(-0.147361 0.00168459 0)
(-0.149606 0.00160632 0)
(-0.151747 0.00152814 0)
(-0.153786 0.00144608 0)
(-0.155728 0.00136339 0)
(-0.157567 0.0012785 0)
(-0.159301 0.00119097 0)
(-0.160926 0.00110436 0)
(-0.162445 0.00101566 0)
(-0.163859 0.00092695 0)
(-0.165155 0.000838356 0)
(-0.166338 0.000745189 0)
(-0.167412 0.000652713 0)
(-0.168369 0.000559729 0)
(-0.169209 0.000464384 0)
(-0.169932 0.000367891 0)
(-0.170535 0.000270733 0)
(-0.171018 0.000172057 0)
(-0.171378 7.16164e-05 0)
(-0.171616 -3.05147e-05 0)
(-0.171732 -0.000133402 0)
(-0.171713 -0.000234568 0)
(-0.17157 -0.000337815 0)
(-0.171307 -0.000439412 0)
(-0.170918 -0.000540202 0)
(-0.170402 -0.000642356 0)
(-0.169763 -0.000745428 0)
(-0.168999 -0.000846441 0)
(-0.168111 -0.000948292 0)
(-0.167094 -0.00105164 0)
(-0.16595 -0.00115342 0)
(-0.164683 -0.00125563 0)
(-0.16329 -0.00135798 0)
(-0.161773 -0.00146073 0)
(-0.160136 -0.0015625 0)
(-0.158366 -0.00166246 0)
(-0.15647 -0.00176501 0)
(-0.154456 -0.0018668 0)
(-0.152318 -0.00196803 0)
(-0.150056 -0.00206848 0)
(-0.147673 -0.00216906 0)
(-0.145167 -0.00226779 0)
(-0.14254 -0.00236672 0)
(-0.139797 -0.00246361 0)
(-0.136934 -0.00255735 0)
(-0.133956 -0.0026472 0)
(-0.130865 -0.00273004 0)
(-0.127665 -0.00279977 0)
(-0.124363 -0.0028477 0)
(-0.12097 -0.00286786 0)
(-0.117496 -0.00286452 0)
(-0.113949 -0.0028523 0)
(-0.110332 -0.00284363 0)
(-0.106641 -0.00284533 0)
(-0.102873 -0.00286019 0)
(-0.0990276 -0.00288822 0)
(-0.0950924 -0.00292183 0)
(-0.0910675 -0.00296917 0)
(-0.0869592 -0.00302303 0)
(-0.0827605 -0.00308383 0)
(-0.0784714 -0.00315004 0)
(-0.0740967 -0.00321974 0)
(-0.0696278 -0.00328886 0)
(-0.0650668 -0.00336173 0)
(-0.0604232 -0.00343545 0)
(-0.055694 -0.00350846 0)
(-0.05088 -0.00358149 0)
(-0.0459831 -0.00365451 0)
(-0.0410061 -0.00372724 0)
(-0.0359505 -0.00379935 0)
(-0.0308178 -0.00387072 0)
(-0.0256105 -0.00394107 0)
(-0.0203306 -0.00400976 0)
(-0.0149796 -0.00407694 0)
(-0.00956082 -0.00414232 0)
(-0.00407654 -0.00420547 0)
(0.00147078 -0.00426636 0)
(0.00707825 -0.00432459 0)
(0.0127432 -0.00438014 0)
(0.0184627 -0.00443296 0)
(0.0242342 -0.00448301 0)
(0.0300547 -0.00453027 0)
(0.0359213 -0.00457476 0)
(0.0418312 -0.00461656 0)
(0.0477816 -0.00465581 0)
(0.0537696 -0.00469264 0)
(0.0597926 -0.00472717 0)
(0.0658479 -0.00475949 0)
(0.0719328 -0.00478966 0)
(0.0780445 -0.0048177 0)
(0.0841806 -0.00484361 0)
(0.0903383 -0.00486738 0)
(0.0965149 -0.004889 0)
(0.102708 -0.00490841 0)
(0.108914 -0.00492553 0)
(0.115131 -0.00494023 0)
(0.121356 -0.00495239 0)
(0.127586 -0.00496196 0)
(0.133818 -0.00496892 0)
(0.14005 -0.00497329 0)
(0.146278 -0.00497509 0)
(0.152499 -0.00497438 0)
(0.158711 -0.0049712 0)
(0.164911 -0.0049656 0)
(0.171096 -0.00495759 0)
(0.177264 -0.00494717 0)
(0.183411 -0.00493432 0)
(0.189535 -0.00491903 0)
(0.195633 -0.00490127 0)
(0.201702 -0.00488098 0)
(0.20774 -0.00485809 0)
(0.213744 -0.00483255 0)
(0.219711 -0.00480433 0)
(0.225638 -0.00477345 0)
(0.231522 -0.00473994 0)
(0.237361 -0.00470385 0)
(0.243153 -0.00466524 0)
(0.248893 -0.00462412 0)
(0.254581 -0.00458047 0)
(0.260212 -0.00453421 0)
(0.265786 -0.00448525 0)
(0.271297 -0.0044335 0)
(0.276745 -0.00437887 0)
(0.282127 -0.00432127 0)
(0.287439 -0.00426062 0)
(0.292678 -0.00419686 0)
(0.297843 -0.00412993 0)
(0.30293 -0.00405979 0)
(0.307937 -0.0039864 0)
(0.312861 -0.00390976 0)
(0.317699 -0.00382988 0)
(0.322448 -0.00374679 0)
(0.327106 -0.0036605 0)
(0.33167 -0.00357103 0)
(0.336137 -0.00347839 0)
(0.340505 -0.0033826 0)
(0.344772 -0.00328367 0)
(0.348934 -0.00318162 0)
(0.352989 -0.00307648 0)
(0.356935 -0.00296827 0)
(0.360769 -0.00285704 0)
(0.364488 -0.00274284 0)
(0.368091 -0.00262571 0)
(0.371574 -0.00250574 0)
(0.374936 -0.00238299 0)
(0.378174 -0.00225758 0)
(0.381286 -0.00212961 0)
(0.38427 -0.00199922 0)
(0.387123 -0.00186657 0)
(0.389844 -0.00173186 0)
(0.39243 -0.0015953 0)
(0.39488 -0.00145715 0)
(0.397193 -0.00131775 0)
(0.399366 -0.00117759 0)
(0.401398 -0.00103738 0)
(0.403289 -0.000898133 0)
(0.405037 -0.000761122 0)
(0.406644 -0.000627682 0)
(0.40811 -0.000499039 0)
(0.409436 -0.000376436 0)
(0.410624 -0.000261968 0)
(0.411677 -0.000160131 0)
(0.412601 -7.92463e-05 0)
(0.413406 -3.11072e-05 0)
(0.414107 -2.74936e-05 0)
(0.414726 -7.39868e-05 0)
(0.415285 -0.000163969 0)
(0.415803 -0.000276667 0)
(0.416284 -0.000381557 0)
(0.416721 -0.000447883 0)
(0.417091 -0.000454806 0)
(0.417365 -0.000397186 0)
(0.417514 -0.00028445 0)
(0.417519 -0.000134216 0)
(0.417355 3.14511e-05 0)
(0.41702 0.000196488 0)
(0.416517 0.000352111 0)
(0.415855 0.000496278 0)
(0.415038 0.000630948 0)
(0.414073 0.000758903 0)
(0.412962 0.000881947 0)
(0.411709 0.00100049 0)
(0.410317 0.00111392 0)
(0.408791 0.00122118 0)
(0.407133 0.00132111 0)
(0.40535 0.00141302 0)
(0.403447 0.00149693 0)
(0.401428 0.00157345 0)
(0.399298 0.00164344 0)
(0.397061 0.00170771 0)
(0.39472 0.00176693 0)
(0.39228 0.00182161 0)
(0.389744 0.00187223 0)
(0.387115 0.00191916 0)
(0.384397 0.0019627 0)
(0.381592 0.00200313 0)
(0.378704 0.00204068 0)
(0.375735 0.00207556 0)
(0.372689 0.002108 0)
(0.369568 0.00213823 0)
(0.366376 0.00216649 0)
(0.363115 0.00219301 0)
(0.359787 0.002218 0)
(0.356396 0.00224163 0)
(0.352944 0.00226405 0)
(0.349434 0.00228541 0)
(0.345868 0.00230586 0)
(0.342249 0.00232558 0)
(0.338578 0.00234478 0)
(0.334859 0.00236367 0)
(0.331094 0.00238245 0)
(0.327284 0.00240135 0)
(0.323433 0.00242057 0)
(0.319541 0.00244038 0)
(0.31561 0.00246102 0)
(0.311643 0.00248275 0)
(0.30764 0.00250585 0)
(0.303604 0.0025306 0)
(0.299535 0.00255731 0)
(0.295434 0.00258632 0)
(0.291303 0.00261795 0)
(0.287141 0.00265255 0)
(0.28295 0.00269047 0)
(0.278729 0.00273213 0)
(0.274479 0.00277802 0)
(0.270198 0.00282874 0)
(0.265887 0.00288501 0)
(0.261543 0.00294772 0)
(0.257165 0.00301789 0)
(0.25275 0.00309675 0)
(0.248295 0.00318574 0)
(0.243797 0.00328654 0)
(0.239249 0.00340105 0)
(0.234647 0.00353142 0)
(0.229983 0.00367991 0)
(0.22525 0.00384881 0)
(0.220438 0.00404036 0)
(0.215536 0.00425652 0)
(0.210535 0.00449835 0)
(0.205422 0.00476494 0)
(0.200188 0.00505264 0)
(0.194823 0.00535561 0)
(0.189323 0.00566761 0)
(0.183684 0.00598367 0)
(0.177906 0.00630013 0)
(0.171987 0.00661321 0)
(0.165929 0.00691719 0)
(0.159739 0.00720294 0)
(0.153427 0.0074564 0)
(0.147015 0.00765839 0)
(0.140537 0.00778823 0)
(0.13404 0.00783136 0)
(0.127571 0.00778693 0)
(0.12117 0.00767082 0)
(0.114868 0.00750545 0)
(0.108684 0.00730542 0)
(0.102638 0.00706974 0)
(0.096751 0.00678435 0)
(0.091055 0.00643162 0)
(0.0855892 0.00600343 0)
(0.0803938 0.00551466 0)
(0.0754958 0.00501093 0)
(0.0708943 0.00456035 0)
(0.0665517 0.00422618 0)
(0.0624026 0.00403407 0)
(0.0583753 0.00395758 0)
(0.0544168 0.00393451 0)
(0.050506 0.00390242 0)
(0.0466501 0.00382709 0)
(0.0428703 0.00370701 0)
(0.039188 0.00355837 0)
(0.0356174 0.00339741 0)
(0.0321659 0.0032322 0)
(0.0288369 0.00306382 0)
(0.0256333 0.00289079 0)
(0.0225581 0.0027119 0)
(0.0196146 0.00252682 0)
(0.0168065 0.00233579 0)
(0.0141371 0.0021393 0)
(0.0116095 0.00193787 0)
(0.0092264 0.00173204 0)
(0.00699016 0.00152229 0)
(0.00490277 0.00130915 0)
(0.00296583 0.00109323 0)
(0.00118048 0.000875143 0)
(-0.000456937 0.000655377 0)
(-0.00194037 0.000436796 0)
(-0.00326592 0.000216752 0)
(-0.00444153 -3.84179e-06 0)
(-0.00546611 -0.00022316 0)
(-0.00634024 -0.000441273 0)
(-0.00706909 -0.000656785 0)
(-0.0076493 -0.000867923 0)
(-0.00808898 -0.00107667 0)
(-0.00838801 -0.0012782 0)
(-0.00855086 -0.00147665 0)
(-0.00859143 -0.00166671 0)
(-0.00850729 -0.0018448 0)
(-0.00830195 -0.00201131 0)
(-0.00798687 -0.00216686 0)
(-0.00756411 -0.00230819 0)
(-0.00704288 -0.00243897 0)
(-0.00643523 -0.00255586 0)
(-0.00575633 -0.00265945 0)
(-0.0049895 -0.00274383 0)
(-0.00420991 -0.00281018 0)
(-0.00331684 -0.00286444 0)
(-0.00249235 -0.00304351 0)
(-0.00133125 -0.00334742 0)
(0.000313863 -0.00253222 0)
(-0.00371943 0.01381 0)
(-0.00775079 0.0087303 0)
(-0.0111067 0.00967254 0)
(-0.0157075 0.0106066 0)
(-0.0200918 0.0108272 0)
(-0.0246596 0.0107827 0)
(-0.0291346 0.0107117 0)
(-0.0335951 0.0106561 0)
(-0.0380339 0.0106051 0)
(-0.0424507 0.0105494 0)
(-0.046843 0.0104866 0)
(-0.051208 0.0104169 0)
(-0.0555428 0.0103407 0)
(-0.0598448 0.010258 0)
(-0.0641113 0.010169 0)
(-0.0683399 0.0100736 0)
(-0.0725276 0.00997173 0)
(-0.076672 0.00986355 0)
(-0.0807704 0.00974906 0)
(-0.0848202 0.00962829 0)
(-0.0888191 0.00950149 0)
(-0.092765 0.00936872 0)
(-0.0966551 0.0092296 0)
(-0.100486 0.00908447 0)
(-0.104256 0.00893421 0)
(-0.107962 0.00877895 0)
(-0.111602 0.00861626 0)
(-0.115174 0.00844793 0)
(-0.118675 0.00827393 0)
(-0.122104 0.0080944 0)
(-0.125457 0.00790956 0)
(-0.128733 0.00771904 0)
(-0.131929 0.00752237 0)
(-0.135043 0.00732059 0)
(-0.138073 0.0071139 0)
(-0.141018 0.00690294 0)
(-0.143876 0.00668862 0)
(-0.146642 0.00646699 0)
(-0.149314 0.00624079 0)
(-0.151892 0.00600976 0)
(-0.154376 0.00577405 0)
(-0.156762 0.00553406 0)
(-0.159048 0.00529016 0)
(-0.161232 0.00504143 0)
(-0.163315 0.00478873 0)
(-0.165296 0.00453233 0)
(-0.167165 0.00427211 0)
(-0.168924 0.00400724 0)
(-0.170577 0.0037385 0)
(-0.172121 0.00346762 0)
(-0.173553 0.00319471 0)
(-0.174869 0.00291528 0)
(-0.176071 0.00263397 0)
(-0.177158 0.00235016 0)
(-0.17813 0.00206249 0)
(-0.178982 0.00177254 0)
(-0.179716 0.00147919 0)
(-0.180332 0.0011826 0)
(-0.180828 0.000883657 0)
(-0.181206 0.000581504 0)
(-0.181465 0.000278046 0)
(-0.181606 -2.54156e-05 0)
(-0.181624 -0.000332142 0)
(-0.181517 -0.000638069 0)
(-0.181288 -0.00094414 0)
(-0.180935 -0.00125189 0)
(-0.180452 -0.00155954 0)
(-0.179845 -0.00186723 0)
(-0.179118 -0.0021755 0)
(-0.178258 -0.00248508 0)
(-0.17727 -0.0027931 0)
(-0.17616 -0.00310138 0)
(-0.174924 -0.00340948 0)
(-0.173562 -0.00371745 0)
(-0.172075 -0.00402356 0)
(-0.170462 -0.00432719 0)
(-0.168724 -0.00463259 0)
(-0.166863 -0.00493654 0)
(-0.164878 -0.00523856 0)
(-0.162771 -0.00553791 0)
(-0.160541 -0.00583654 0)
(-0.158189 -0.00613325 0)
(-0.155716 -0.00642714 0)
(-0.153123 -0.00671906 0)
(-0.150408 -0.00700731 0)
(-0.147572 -0.00729353 0)
(-0.144614 -0.00757686 0)
(-0.141532 -0.00785465 0)
(-0.138322 -0.00812406 0)
(-0.134973 -0.00838259 0)
(-0.131478 -0.00863189 0)
(-0.127832 -0.0088773 0)
(-0.124037 -0.00912058 0)
(-0.120103 -0.00936375 0)
(-0.11604 -0.00960682 0)
(-0.111848 -0.00984867 0)
(-0.107534 -0.0100859 0)
(-0.103109 -0.010324 0)
(-0.0985762 -0.0105588 0)
(-0.093944 -0.0107903 0)
(-0.0892148 -0.0110182 0)
(-0.0843924 -0.0112415 0)
(-0.0794799 -0.0114577 0)
(-0.0744818 -0.0116718 0)
(-0.069399 -0.0118804 0)
(-0.0642349 -0.0120836 0)
(-0.0589939 -0.0122811 0)
(-0.0536773 -0.0124738 0)
(-0.0482886 -0.012661 0)
(-0.0428306 -0.0128425 0)
(-0.0373058 -0.0130185 0)
(-0.0317166 -0.0131887 0)
(-0.0260662 -0.013353 0)
(-0.0203572 -0.0135114 0)
(-0.0145919 -0.0136639 0)
(-0.00877308 -0.01381 0)
(-0.00290286 -0.0139509 0)
(0.00301636 -0.0140846 0)
(0.00898178 -0.0142119 0)
(0.0149912 -0.0143329 0)
(0.0210423 -0.0144473 0)
(0.0271326 -0.0145552 0)
(0.0332597 -0.0146565 0)
(0.0394211 -0.0147512 0)
(0.0456143 -0.0148393 0)
(0.0518366 -0.0149209 0)
(0.0580853 -0.0149958 0)
(0.0643577 -0.0150642 0)
(0.0706511 -0.0151261 0)
(0.0769626 -0.0151814 0)
(0.0832894 -0.0152301 0)
(0.0896286 -0.0152722 0)
(0.0959776 -0.0153077 0)
(0.102333 -0.0153365 0)
(0.108694 -0.0153587 0)
(0.115055 -0.0153742 0)
(0.121416 -0.0153831 0)
(0.127773 -0.0153851 0)
(0.134123 -0.0153804 0)
(0.140465 -0.0153689 0)
(0.146796 -0.0153506 0)
(0.153113 -0.0153256 0)
(0.159414 -0.0152939 0)
(0.165696 -0.0152555 0)
(0.171957 -0.0152106 0)
(0.178193 -0.015159 0)
(0.184404 -0.0151009 0)
(0.190585 -0.0150363 0)
(0.196735 -0.0149652 0)
(0.202852 -0.0148876 0)
(0.208932 -0.0148034 0)
(0.214973 -0.0147128 0)
(0.220974 -0.0146158 0)
(0.226932 -0.0145124 0)
(0.232844 -0.0144026 0)
(0.238709 -0.0142866 0)
(0.244523 -0.0141644 0)
(0.250286 -0.0140361 0)
(0.255994 -0.0139016 0)
(0.261645 -0.0137611 0)
(0.267238 -0.0136145 0)
(0.27277 -0.0134618 0)
(0.278239 -0.0133031 0)
(0.283643 -0.0131384 0)
(0.28898 -0.0129678 0)
(0.294249 -0.0127912 0)
(0.299448 -0.0126088 0)
(0.304574 -0.0124206 0)
(0.309627 -0.0122265 0)
(0.314604 -0.0120268 0)
(0.319504 -0.0118213 0)
(0.324325 -0.0116103 0)
(0.329065 -0.0113937 0)
(0.333724 -0.0111717 0)
(0.338299 -0.0109442 0)
(0.342789 -0.0107114 0)
(0.347193 -0.0104733 0)
(0.351508 -0.0102299 0)
(0.355733 -0.00998131 0)
(0.359868 -0.00972759 0)
(0.36391 -0.0094688 0)
(0.367858 -0.00920501 0)
(0.371711 -0.00893628 0)
(0.375468 -0.00866269 0)
(0.379126 -0.00838431 0)
(0.382685 -0.00810121 0)
(0.386144 -0.00781346 0)
(0.389501 -0.00752115 0)
(0.392755 -0.00722436 0)
(0.395905 -0.00692321 0)
(0.398949 -0.00661783 0)
(0.401886 -0.00630837 0)
(0.404715 -0.00599501 0)
(0.407435 -0.00567798 0)
(0.410045 -0.00535759 0)
(0.412542 -0.00503422 0)
(0.414926 -0.0047084 0)
(0.417194 -0.00438068 0)
(0.419345 -0.00405161 0)
(0.421375 -0.00372173 0)
(0.423283 -0.00339185 0)
(0.425066 -0.00306369 0)
(0.426718 -0.00274056 0)
(0.42823 -0.00242765 0)
(0.429591 -0.00213107 0)
(0.430782 -0.00185552 0)
(0.431783 -0.00160145 0)
(0.432581 -0.00136294 0)
(0.433169 -0.00112811 0)
(0.433553 -0.000882164 0)
(0.43375 -0.000612126 0)
(0.433785 -0.000310833 0)
(0.433681 2.15602e-05 0)
(0.433453 0.000377725 0)
(0.433123 0.000746418 0)
(0.432695 0.00111724 0)
(0.432166 0.00148315 0)
(0.431528 0.00184129 0)
(0.430778 0.00219186 0)
(0.429912 0.00253624 0)
(0.428929 0.00287551 0)
(0.427827 0.00320987 0)
(0.426604 0.0035388 0)
(0.42526 0.00386145 0)
(0.423793 0.00417702 0)
(0.422198 0.00448507 0)
(0.420476 0.00478555 0)
(0.418623 0.00507872 0)
(0.416638 0.00536489 0)
(0.41452 0.00564425 0)
(0.41227 0.00591691 0)
(0.409887 0.0061829 0)
(0.407372 0.00644222 0)
(0.404726 0.00669487 0)
(0.40195 0.00694081 0)
(0.399045 0.00718001 0)
(0.396014 0.0074124 0)
(0.392858 0.00763794 0)
(0.389578 0.00785654 0)
(0.386178 0.00806818 0)
(0.382661 0.0082728 0)
(0.379028 0.00847039 0)
(0.375283 0.0086609 0)
(0.371428 0.00884432 0)
(0.367469 0.0090206 0)
(0.363407 0.00918971 0)
(0.359246 0.00935165 0)
(0.354991 0.00950641 0)
(0.350645 0.00965403 0)
(0.346213 0.00979455 0)
(0.341698 0.00992802 0)
(0.337106 0.0100545 0)
(0.332441 0.0101741 0)
(0.327708 0.0102869 0)
(0.322912 0.0103931 0)
(0.318058 0.0104927 0)
(0.313152 0.010586 0)
(0.308198 0.0106731 0)
(0.303203 0.0107543 0)
(0.298171 0.0108297 0)
(0.29311 0.0108997 0)
(0.288024 0.0109645 0)
(0.282921 0.0110245 0)
(0.277806 0.0110799 0)
(0.272685 0.0111313 0)
(0.267566 0.0111791 0)
(0.262455 0.0112239 0)
(0.257359 0.0112664 0)
(0.252285 0.0113074 0)
(0.247242 0.0113477 0)
(0.242238 0.0113884 0)
(0.237281 0.0114305 0)
(0.232381 0.0114754 0)
(0.227547 0.0115244 0)
(0.22279 0.0115788 0)
(0.21812 0.0116403 0)
(0.213548 0.0117104 0)
(0.209085 0.0117909 0)
(0.204742 0.0118833 0)
(0.200529 0.0119881 0)
(0.196453 0.0121045 0)
(0.192519 0.0122304 0)
(0.188729 0.0123638 0)
(0.18508 0.0125035 0)
(0.18157 0.0126488 0)
(0.178194 0.0127984 0)
(0.174945 0.0129495 0)
(0.171816 0.0130963 0)
(0.168791 0.0132295 0)
(0.165849 0.0133346 0)
(0.162962 0.0133948 0)
(0.160098 0.0133967 0)
(0.15723 0.0133352 0)
(0.154343 0.0132161 0)
(0.151432 0.0130514 0)
(0.1485 0.0128506 0)
(0.145547 0.0126157 0)
(0.142573 0.0123406 0)
(0.139568 0.0120151 0)
(0.136519 0.0116317 0)
(0.13341 0.0111929 0)
(0.130235 0.0107178 0)
(0.127002 0.0102435 0)
(0.123745 0.0098156 0)
(0.12051 0.00947146 0)
(0.117342 0.00922264 0)
(0.114269 0.00905001 0)
(0.111294 0.00891436 0)
(0.108402 0.00877621 0)
(0.105572 0.00861174 0)
(0.102788 0.00841646 0)
(0.10004 0.00819814 0)
(0.0973249 0.00796692 0)
(0.0946415 0.00772926 0)
(0.0919878 0.00748715 0)
(0.0893617 0.00724023 0)
(0.0867607 0.00698776 0)
(0.0841821 0.00672955 0)
(0.0816234 0.00646597 0)
(0.0790821 0.00619766 0)
(0.0765557 0.00592531 0)
(0.0740417 0.0056496 0)
(0.0715377 0.00537117 0)
(0.0690411 0.00509066 0)
(0.0665494 0.00480872 0)
(0.06406 0.00452606 0)
(0.0615713 0.00424601 0)
(0.0590816 0.00396582 0)
(0.0565878 0.00368639 0)
(0.0540875 0.00340954 0)
(0.0515788 0.00313525 0)
(0.0490594 0.00286508 0)
(0.046528 0.00260112 0)
(0.0439828 0.00234168 0)
(0.0414227 0.00209163 0)
(0.038847 0.00184751 0)
(0.0362584 0.00161423 0)
(0.0336537 0.00139385 0)
(0.0310282 0.00118678 0)
(0.0283839 0.000992776 0)
(0.0257223 0.000815115 0)
(0.0230443 0.000650574 0)
(0.0203522 0.00050209 0)
(0.0176427 0.000368485 0)
(0.0149345 0.000254777 0)
(0.012191 0.0001692 0)
(0.00947409 0.000124698 0)
(0.00668589 -0.000161225 0)
(0.00396004 -0.00108468 0)
(0.00229663 0.000905432 0)
(-0.00370078 0.0231459 0)
(-0.00767383 0.0145748 0)
(-0.0109276 0.0161449 0)
(-0.0154382 0.0177241 0)
(-0.0197443 0.0181123 0)
(-0.0242431 0.0180363 0)
(-0.0286439 0.0179142 0)
(-0.03303 0.0178202 0)
(-0.0373944 0.0177348 0)
(-0.0417371 0.0176419 0)
(-0.0460557 0.0175371 0)
(-0.0503473 0.0174206 0)
(-0.054609 0.0172931 0)
(-0.0588383 0.0171548 0)
(-0.0630324 0.0170059 0)
(-0.0671887 0.0168463 0)
(-0.0713048 0.0166762 0)
(-0.0753778 0.0164956 0)
(-0.0794054 0.0163045 0)
(-0.0833849 0.016103 0)
(-0.0873135 0.0158912 0)
(-0.0911897 0.0156693 0)
(-0.0950102 0.0154375 0)
(-0.0987723 0.0151959 0)
(-0.102474 0.0149444 0)
(-0.106113 0.014683 0)
(-0.109686 0.0144117 0)
(-0.113191 0.0141312 0)
(-0.116627 0.013841 0)
(-0.119989 0.0135416 0)
(-0.123278 0.0132332 0)
(-0.126492 0.0129148 0)
(-0.129625 0.0125872 0)
(-0.132675 0.0122518 0)
(-0.135642 0.0119075 0)
(-0.138524 0.0115546 0)
(-0.141319 0.0111939 0)
(-0.144024 0.0108254 0)
(-0.146637 0.0104491 0)
(-0.149156 0.0100641 0)
(-0.151582 0.00967123 0)
(-0.153913 0.00927065 0)
(-0.156139 0.00886301 0)
(-0.158262 0.00844821 0)
(-0.160287 0.00802634 0)
(-0.162207 0.00759924 0)
(-0.164022 0.00716647 0)
(-0.165729 0.00672358 0)
(-0.167325 0.00627721 0)
(-0.168812 0.00582474 0)
(-0.170188 0.00536664 0)
(-0.17145 0.0049028 0)
(-0.172597 0.00443435 0)
(-0.173629 0.00396063 0)
(-0.174544 0.00348257 0)
(-0.175341 0.00300122 0)
(-0.176021 0.00251405 0)
(-0.17658 0.00202189 0)
(-0.177018 0.00152892 0)
(-0.177335 0.001032 0)
(-0.17753 0.000532839 0)
(-0.177603 3.06645e-05 0)
(-0.177553 -0.000474171 0)
(-0.177378 -0.000981805 0)
(-0.177079 -0.00149164 0)
(-0.176655 -0.00200248 0)
(-0.176103 -0.00251353 0)
(-0.175429 -0.00302766 0)
(-0.174632 -0.003541 0)
(-0.173702 -0.0040536 0)
(-0.172643 -0.00456811 0)
(-0.171464 -0.00508175 0)
(-0.170157 -0.00559493 0)
(-0.168724 -0.00610728 0)
(-0.167166 -0.00661807 0)
(-0.165482 -0.00712696 0)
(-0.163673 -0.00763454 0)
(-0.161739 -0.00814053 0)
(-0.15968 -0.00864332 0)
(-0.157499 -0.00914332 0)
(-0.155198 -0.00964058 0)
(-0.152772 -0.0101343 0)
(-0.150224 -0.010625 0)
(-0.147559 -0.0111139 0)
(-0.144775 -0.0115966 0)
(-0.141878 -0.0120769 0)
(-0.138866 -0.0125554 0)
(-0.135742 -0.0130322 0)
(-0.132507 -0.0135118 0)
(-0.129161 -0.0139949 0)
(-0.125704 -0.0144776 0)
(-0.122135 -0.0149535 0)
(-0.118456 -0.0154185 0)
(-0.114671 -0.015872 0)
(-0.110782 -0.016312 0)
(-0.106788 -0.0167385 0)
(-0.102692 -0.0171569 0)
(-0.0984965 -0.0175657 0)
(-0.0942034 -0.0179632 0)
(-0.0898152 -0.0183511 0)
(-0.0853333 -0.0187297 0)
(-0.0807598 -0.0190994 0)
(-0.0760964 -0.0194604 0)
(-0.0713452 -0.0198127 0)
(-0.0665075 -0.0201554 0)
(-0.0615856 -0.02049 0)
(-0.0565825 -0.0208147 0)
(-0.0514998 -0.0211304 0)
(-0.0463396 -0.0214363 0)
(-0.0411046 -0.0217323 0)
(-0.0357971 -0.0220182 0)
(-0.0304195 -0.0222941 0)
(-0.0249743 -0.02256 0)
(-0.0194639 -0.0228157 0)
(-0.0138906 -0.0230611 0)
(-0.00825857 -0.0232963 0)
(-0.00256773 -0.0235211 0)
(0.00317945 -0.0237354 0)
(0.00897756 -0.0239393 0)
(0.0148256 -0.0241327 0)
(0.020721 -0.0243153 0)
(0.0266609 -0.0244873 0)
(0.0326427 -0.0246484 0)
(0.0386638 -0.0247986 0)
(0.0447214 -0.0249379 0)
(0.050813 -0.025066 0)
(0.0569356 -0.0251831 0)
(0.0630867 -0.0252889 0)
(0.0692634 -0.0253836 0)
(0.0754631 -0.025467 0)
(0.0816828 -0.0255391 0)
(0.0879201 -0.0256001 0)
(0.094172 -0.0256499 0)
(0.100436 -0.0256884 0)
(0.106709 -0.0257158 0)
(0.112988 -0.0257321 0)
(0.119271 -0.0257373 0)
(0.125555 -0.0257316 0)
(0.131837 -0.0257149 0)
(0.138115 -0.0256872 0)
(0.144386 -0.0256486 0)
(0.150647 -0.0255992 0)
(0.156896 -0.0255389 0)
(0.163129 -0.0254677 0)
(0.169345 -0.0253858 0)
(0.17554 -0.0252932 0)
(0.181713 -0.0251899 0)
(0.187859 -0.0250759 0)
(0.193978 -0.0249515 0)
(0.200065 -0.0248166 0)
(0.20612 -0.0246715 0)
(0.212138 -0.0245161 0)
(0.218118 -0.0243506 0)
(0.224058 -0.0241749 0)
(0.229953 -0.0239892 0)
(0.235804 -0.0237935 0)
(0.241606 -0.0235879 0)
(0.247357 -0.0233723 0)
(0.253055 -0.023147 0)
(0.258699 -0.022912 0)
(0.264284 -0.0226675 0)
(0.269809 -0.0224136 0)
(0.275272 -0.0221503 0)
(0.280671 -0.0218778 0)
(0.286003 -0.0215962 0)
(0.291266 -0.0213056 0)
(0.296458 -0.021006 0)
(0.301576 -0.0206976 0)
(0.30662 -0.0203805 0)
(0.311586 -0.0200547 0)
(0.316472 -0.0197204 0)
(0.321278 -0.0193775 0)
(0.326 -0.0190262 0)
(0.330636 -0.0186666 0)
(0.335185 -0.0182988 0)
(0.339645 -0.0179228 0)
(0.344014 -0.0175388 0)
(0.34829 -0.0171469 0)
(0.352472 -0.0167471 0)
(0.356557 -0.0163396 0)
(0.360543 -0.0159245 0)
(0.36443 -0.015502 0)
(0.368215 -0.015072 0)
(0.371897 -0.0146349 0)
(0.375475 -0.0141906 0)
(0.378946 -0.0137394 0)
(0.38231 -0.0132814 0)
(0.385564 -0.0128169 0)
(0.388709 -0.0123459 0)
(0.391742 -0.0118687 0)
(0.394662 -0.0113856 0)
(0.397468 -0.0108968 0)
(0.400159 -0.0104027 0)
(0.402734 -0.00990362 0)
(0.405193 -0.00939987 0)
(0.407533 -0.00889186 0)
(0.409755 -0.00837996 0)
(0.411858 -0.00786464 0)
(0.41384 -0.00734651 0)
(0.415701 -0.00682631 0)
(0.417441 -0.00630472 0)
(0.419058 -0.00578205 0)
(0.420551 -0.00525767 0)
(0.421918 -0.00472974 0)
(0.423154 -0.00419529 0)
(0.424252 -0.00365124 0)
(0.425203 -0.00309583 0)
(0.426 -0.00253005 0)
(0.426636 -0.00195809 0)
(0.42711 -0.00138627 0)
(0.427426 -0.000820979 0)
(0.427591 -0.000266518 0)
(0.427614 0.000275782 0)
(0.427503 0.000808908 0)
(0.427265 0.00133678 0)
(0.4269 0.00186292 0)
(0.426409 0.00238957 0)
(0.425791 0.00291728 0)
(0.425043 0.00344529 0)
(0.424165 0.00397235 0)
(0.423155 0.00449743 0)
(0.422015 0.00502002 0)
(0.420744 0.00554005 0)
(0.419343 0.00605768 0)
(0.417811 0.00657306 0)
(0.416149 0.00708612 0)
(0.414358 0.00759641 0)
(0.412437 0.00810319 0)
(0.410388 0.00860562 0)
(0.40821 0.00910289 0)
(0.405906 0.0095943 0)
(0.403475 0.0100792 0)
(0.40092 0.0105571 0)
(0.398241 0.0110273 0)
(0.39544 0.0114894 0)
(0.392518 0.0119428 0)
(0.389477 0.0123871 0)
(0.386319 0.0128217 0)
(0.383046 0.0132462 0)
(0.379659 0.0136603 0)
(0.376162 0.0140633 0)
(0.372555 0.014455 0)
(0.368843 0.014835 0)
(0.365027 0.0152027 0)
(0.361111 0.015558 0)
(0.357097 0.0159003 0)
(0.352988 0.0162294 0)
(0.348788 0.016545 0)
(0.344501 0.0168466 0)
(0.340129 0.017134 0)
(0.335677 0.0174069 0)
(0.331149 0.017665 0)
(0.326548 0.0179081 0)
(0.321879 0.018136 0)
(0.317145 0.0183484 0)
(0.312352 0.0185454 0)
(0.307504 0.0187266 0)
(0.302606 0.0188919 0)
(0.297662 0.0190414 0)
(0.292678 0.0191749 0)
(0.287657 0.0192924 0)
(0.282606 0.019394 0)
(0.277528 0.0194797 0)
(0.272431 0.0195496 0)
(0.267317 0.0196038 0)
(0.262194 0.0196424 0)
(0.257065 0.0196655 0)
(0.251937 0.0196733 0)
(0.246813 0.0196659 0)
(0.241701 0.0196433 0)
(0.236604 0.0196058 0)
(0.231528 0.0195534 0)
(0.226479 0.0194863 0)
(0.221462 0.0194047 0)
(0.216482 0.0193089 0)
(0.211546 0.0191995 0)
(0.20666 0.019077 0)
(0.201831 0.0189425 0)
(0.197066 0.0187974 0)
(0.192374 0.0186444 0)
(0.187763 0.0184871 0)
(0.183241 0.0183296 0)
(0.178815 0.0181751 0)
(0.174492 0.0180254 0)
(0.170276 0.0178812 0)
(0.166176 0.0177428 0)
(0.162198 0.0176105 0)
(0.158347 0.0174849 0)
(0.154628 0.017367 0)
(0.151042 0.0172577 0)
(0.147584 0.0171564 0)
(0.144244 0.017059 0)
(0.141003 0.0169576 0)
(0.137843 0.0168412 0)
(0.134751 0.0167004 0)
(0.13172 0.0165305 0)
(0.128744 0.0163326 0)
(0.125818 0.0161109 0)
(0.122931 0.0158707 0)
(0.120066 0.0156163 0)
(0.117199 0.0153505 0)
(0.114311 0.0150742 0)
(0.111387 0.0147866 0)
(0.108431 0.0144866 0)
(0.105466 0.0141749 0)
(0.102526 0.0138555 0)
(0.099646 0.0135355 0)
(0.0968495 0.0132223 0)
(0.0941435 0.0129208 0)
(0.0915218 0.0126313 0)
(0.0889731 0.0123514 0)
(0.0864872 0.0120774 0)
(0.0840576 0.0118068 0)
(0.0816805 0.0115384 0)
(0.0793531 0.0112719 0)
(0.0770722 0.0110076 0)
(0.074834 0.0107457 0)
(0.0726343 0.0104866 0)
(0.0704686 0.0102306 0)
(0.0683324 0.00997802 0)
(0.0662214 0.00972929 0)
(0.064131 0.00948482 0)
(0.0620568 0.00924507 0)
(0.0599945 0.00901052 0)
(0.0579397 0.00878165 0)
(0.0558882 0.00855899 0)
(0.0538362 0.00834314 0)
(0.0517797 0.0081341 0)
(0.0497149 0.00793222 0)
(0.047638 0.00773804 0)
(0.0455455 0.00755196 0)
(0.0434343 0.00737447 0)
(0.0413017 0.00720602 0)
(0.0391452 0.00704688 0)
(0.0369629 0.00689754 0)
(0.0347535 0.00675809 0)
(0.0325158 0.00662868 0)
(0.0302485 0.00650713 0)
(0.0279506 0.00639466 0)
(0.0256222 0.00629159 0)
(0.0232646 0.00619802 0)
(0.0208785 0.00611369 0)
(0.0184673 0.00603807 0)
(0.0160276 0.00596978 0)
(0.013578 0.00591081 0)
(0.0110825 0.00588809 0)
(0.0086032 0.00590109 0)
(0.00607238 0.00549693 0)
(0.00359044 0.00390838 0)
(0.00226818 0.00728458 0)
(-0.00371362 0.0324239 0)
(-0.00770174 0.0203873 0)
(-0.0109634 0.0225802 0)
(-0.0154822 0.0248068 0)
(-0.0198014 0.0253549 0)
(-0.0243157 0.0252512 0)
(-0.0287294 0.0250807 0)
(-0.033129 0.0249485 0)
(-0.0375078 0.0248289 0)
(-0.0418645 0.024699 0)
(-0.046197 0.0245525 0)
(-0.0505024 0.0243895 0)
(-0.0547779 0.0242111 0)
(-0.0590209 0.0240177 0)
(-0.0632286 0.0238093 0)
(-0.0673984 0.0235861 0)
(-0.0715278 0.023348 0)
(-0.0756142 0.0230952 0)
(-0.0796549 0.0228278 0)
(-0.0836474 0.0225459 0)
(-0.0875892 0.0222495 0)
(-0.0914778 0.0219389 0)
(-0.0953109 0.0216145 0)
(-0.0990856 0.0212755 0)
(-0.1028 0.0209228 0)
(-0.10645 0.0205565 0)
(-0.110035 0.0201766 0)
(-0.113553 0.0197831 0)
(-0.117 0.0193763 0)
(-0.120374 0.0189565 0)
(-0.123675 0.0185236 0)
(-0.1269 0.0180781 0)
(-0.130042 0.017621 0)
(-0.133103 0.0171509 0)
(-0.136081 0.0166673 0)
(-0.138974 0.0161728 0)
(-0.141779 0.0156667 0)
(-0.144493 0.0151492 0)
(-0.147116 0.0146206 0)
(-0.149645 0.0140805 0)
(-0.152079 0.0135295 0)
(-0.154416 0.0129691 0)
(-0.156651 0.0123993 0)
(-0.158786 0.0118167 0)
(-0.160817 0.0112259 0)
(-0.162745 0.0106254 0)
(-0.16457 0.0100162 0)
(-0.166282 0.00939822 0)
(-0.167883 0.00877142 0)
(-0.169377 0.00813651 0)
(-0.17076 0.00749398 0)
(-0.172027 0.00684416 0)
(-0.173178 0.00618678 0)
(-0.174215 0.00552288 0)
(-0.175134 0.00485249 0)
(-0.175935 0.00417596 0)
(-0.176621 0.00349457 0)
(-0.17718 0.00280726 0)
(-0.177617 0.00211294 0)
(-0.177935 0.00141684 0)
(-0.178128 0.000716005 0)
(-0.178198 1.19025e-05 0)
(-0.178143 -0.00069567 0)
(-0.177964 -0.00140733 0)
(-0.177659 -0.00212289 0)
(-0.177228 -0.00283772 0)
(-0.176671 -0.00355612 0)
(-0.175988 -0.00427741 0)
(-0.175179 -0.00499672 0)
(-0.174242 -0.00571536 0)
(-0.173176 -0.00643679 0)
(-0.171986 -0.00715721 0)
(-0.170669 -0.00787745 0)
(-0.169225 -0.00859691 0)
(-0.167654 -0.00931384 0)
(-0.165958 -0.0100285 0)
(-0.164137 -0.0107407 0)
(-0.16219 -0.0114497 0)
(-0.160117 -0.0121551 0)
(-0.157922 -0.0128584 0)
(-0.155603 -0.0135581 0)
(-0.153161 -0.0142494 0)
(-0.150601 -0.0149383 0)
(-0.147915 -0.0156204 0)
(-0.145106 -0.016297 0)
(-0.142183 -0.0169654 0)
(-0.139137 -0.0176251 0)
(-0.135972 -0.0182762 0)
(-0.132692 -0.0189178 0)
(-0.129299 -0.0195478 0)
(-0.125796 -0.020166 0)
(-0.122187 -0.0207748 0)
(-0.118473 -0.0213755 0)
(-0.114653 -0.0219684 0)
(-0.110726 -0.0225528 0)
(-0.106697 -0.0231279 0)
(-0.102569 -0.0236959 0)
(-0.0983347 -0.0242567 0)
(-0.0939977 -0.0248065 0)
(-0.0895677 -0.0253467 0)
(-0.0850421 -0.0258769 0)
(-0.080423 -0.0263966 0)
(-0.0757125 -0.0269052 0)
(-0.0709132 -0.0274021 0)
(-0.0660277 -0.0278871 0)
(-0.0610577 -0.0283602 0)
(-0.056006 -0.0288207 0)
(-0.0508751 -0.0292684 0)
(-0.0456666 -0.0297032 0)
(-0.0403831 -0.0301247 0)
(-0.0350275 -0.0305325 0)
(-0.0296022 -0.0309266 0)
(-0.0241093 -0.0313069 0)
(-0.0185513 -0.031673 0)
(-0.012931 -0.0320248 0)
(-0.00725094 -0.0323622 0)
(-0.00151343 -0.0326841 0)
(0.00427884 -0.0329921 0)
(0.0101229 -0.033285 0)
(0.0160162 -0.0335627 0)
(0.0219563 -0.0338253 0)
(0.0279405 -0.0340727 0)
(0.033966 -0.0343048 0)
(0.0400301 -0.0345214 0)
(0.04613 -0.0347227 0)
(0.0522632 -0.0349084 0)
(0.0584269 -0.0350786 0)
(0.0646184 -0.0352332 0)
(0.0708349 -0.0353722 0)