/*--------------------------------*- C++ -*----------------------------------*\
| =========                 |                                                 |
| \\      /  F ield         | OpenFOAM: The Open Source CFD Toolbox           |
|  \\    /   O peration     | Version:  v2006                                 |
|   \\  /    A nd           | Website:  www.openfoam.com                      |
|    \\/     M anipulation  |                                                 |
\*---------------------------------------------------------------------------*/
FoamFile
{
    version     2.0;
    format      ascii;
    class       volScalarField;
    location    "0";
    object      shifted_f;
}
// * * * * * * * * * * * * * * * * * * * * * * * * * * * * * * * * * * * * * //

dimensions      [0 0 0 0 0 0 0];


internalField   nonuniform List<scalar> 
2500
(
-5.35697e-06
-5.4054e-06
-5.3905e-06
-5.4054e-06
-5.3905e-06
-5.32344e-06
-5.33834e-06
-5.35324e-06
-5.33462e-06
-5.37932e-06
-5.36814e-06
-5.34952e-06
-5.30481e-06
-5.37559e-06
-5.30109e-06
-5.37559e-06
-5.32717e-06
-5.37187e-06
-5.38304e-06
-5.33834e-06
-5.34952e-06
-5.35324e-06
-5.33834e-06
-5.37932e-06
-5.35697e-06
-5.30854e-06
-5.34579e-06
-5.32344e-06
-5.30481e-06
-5.31226e-06
-5.22658e-06
-5.26756e-06
-5.30854e-06
-5.25266e-06
-5.34952e-06
-5.29364e-06
-5.21168e-06
-5.30481e-06
-5.30854e-06
-5.25638e-06
-5.25638e-06
-5.20051e-06
-5.26384e-06
-5.21168e-06
-5.21168e-06
-5.14835e-06
-5.21541e-06
-5.21913e-06
-5.1558e-06
-5.21913e-06
-5.12972e-06
-5.21913e-06
-5.18933e-06
-5.1558e-06
-5.24521e-06
-5.12227e-06
9.28901e-05
9.28603e-05
9.28529e-05
9.28417e-05
9.28044e-05
9.28268e-05
9.28156e-05
9.28156e-05
9.27746e-05
9.27709e-05
9.27337e-05
9.27858e-05
9.27821e-05
9.27448e-05
9.27411e-05
9.27597e-05
9.2756e-05
9.26889e-05
9.27746e-05
9.2715e-05
9.27374e-05
9.27001e-05
9.27262e-05
9.27188e-05
9.2715e-05
9.26889e-05
9.26554e-05
9.26442e-05
9.26442e-05
9.26778e-05
9.26442e-05
9.26405e-05
9.26107e-05
9.26368e-05
9.26107e-05
9.2607e-05
9.25772e-05
9.26107e-05
9.25548e-05
9.25772e-05
9.25772e-05
9.25846e-05
9.26107e-05
9.26219e-05
9.25884e-05
9.2566e-05
9.25697e-05
9.24803e-05
9.25511e-05
9.2525e-05
9.25586e-05
9.25325e-05
9.25101e-05
9.25437e-05
9.25213e-05
9.25884e-05
9.25064e-05
9.25474e-05
9.24952e-05
9.25623e-05
9.25437e-05
9.25586e-05
9.25064e-05
9.25139e-05
9.25288e-05
9.25399e-05
9.25511e-05
9.25027e-05
9.24878e-05
9.25362e-05
9.24841e-05
9.25325e-05
9.25176e-05
9.25362e-05
9.24878e-05
9.24766e-05
9.25548e-05
9.24803e-05
9.24468e-05
9.24915e-05
9.24803e-05
9.25288e-05
9.25474e-05
9.25697e-05
9.25288e-05
9.25213e-05
9.25213e-05
9.25064e-05
9.25623e-05
9.25884e-05
9.25176e-05
9.25399e-05
9.25362e-05
9.25958e-05
9.25958e-05
9.25846e-05
9.25884e-05
9.26107e-05
9.25772e-05
9.26368e-05
9.25474e-05
0.000249039
0.00024901
0.000248924
0.000248969
0.000248913
0.000248887
0.000248928
0.000248905
0.000248857
0.000248857
0.000248864
0.000248786
0.000248767
0.000248805
0.000248756
0.000248704
0.000248779
0.000248663
0.000248674
0.000248656
0.000248667
0.000248618
0.000248604
0.000248559
0.000248604
0.000248589
0.000248533
0.000248522
0.000248566
0.000248548
0.000248503
0.000248581
0.000248536
0.000248492
0.000248481
0.000248406
0.000248399
0.000248387
0.000248436
0.000248361
0.00024841
0.000248346
0.000248339
0.000248361
0.000248313
0.000248339
0.000248268
0.000248361
0.00024832
0.000248283
0.000248253
0.000248279
0.000248279
0.000248268
0.000248272
0.000248238
0.000248209
0.000248235
0.000248235
0.000248205
0.000248209
0.000248212
0.00024819
0.000248153
0.000248156
0.000248186
0.000248101
0.000248142
0.000248093
0.000248186
0.000248138
0.000248145
0.000248119
0.00024813
0.000248048
0.000248119
0.000248041
0.000248108
0.000248123
0.000248075
0.000248097
0.000248134
0.000248123
0.000248078
0.000248097
0.000248052
0.000248041
0.000248116
0.000248078
0.000248071
0.000248086
0.000248101
0.000248067
0.000248119
0.000248112
0.000248075
0.000248101
0.000248097
0.000248093
0.000248116
0.000248175
0.000450995
0.000450976
0.000450969
0.000450924
0.000450913
0.000450846
0.000450797
0.000450768
0.000450782
0.000450741
0.000450708
0.000450782
0.000450686
0.000450704
0.000450667
0.000450592
0.000450589
0.000450611
0.000450607
0.000450544
0.000450507
0.000450496
0.00045047
0.000450462
0.000450365
0.000450399
0.000450362
0.000450332
0.000450298
0.000450268
0.000450242
0.000450268
0.000450183
0.000450216
0.000450183
0.000450131
0.000450134
0.000450075
0.000450108
0.000450056
0.000450119
0.000450011
0.000450078
0.00045003
0.000449982
0.000449955
0.0004499
0.000449914
0.000449922
0.000449877
0.000449862
0.000449844
0.000449833
0.000449847
0.000449803
0.000449825
0.000449814
0.000449833
0.000449724
0.000449747
0.00044968
0.000449698
0.000449724
0.000449687
0.00044968
0.000449616
0.000449643
0.000449605
0.000449605
0.000449605
0.000449609
0.000449695
0.000449631
0.000449609
0.000449579
0.000449549
0.000449527
0.00044962
0.000449564
0.000449598
0.000449523
0.000449501
0.000449542
0.000449583
0.000449527
0.000449546
0.000449531
0.000449508
0.000449553
0.000449508
0.000449523
0.000449594
0.000449497
0.000449486
0.000449535
0.000449557
0.000449549
0.000449508
0.000449568
0.000449531
0.00044952
0.000658739
0.000658765
0.000658635
0.000658661
0.000658594
0.000658624
0.000658646
0.000658546
0.000658479
0.000658479
0.000658456
0.000658441
0.000658419
0.000658356
0.000658385
0.00065833
0.00065827
0.000658274
0.000658181
0.000658154
0.000658281
0.000658136
0.00065808
0.000658117
0.000658121
0.000658065
0.000658046
0.000657987
0.000657994
0.000657979
0.000657957
0.000657935
0.000657864
0.000657786
0.000657842
0.000657789
0.000657771
0.0006577
0.000657719
0.000657707
0.000657696
0.000657655
0.000657588
0.00065773
0.000657625
0.000657625
0.000657622
0.000657525
0.000657525
0.000657491
0.000657521
0.000657521
0.000657398
0.000657376
0.000657406
0.000657376
0.000657324
0.000657294
0.000657305
0.00065735
0.000657298
0.000657275
0.000657313
0.000657264
0.000657286
0.000657149
0.000657197
0.000657238
0.000657197
0.00065716
0.000657178
0.000657167
0.000657216
0.000657123
0.000657056
0.000657178
0.000657018
0.000657074
0.000657048
0.000657104
0.000657078
0.000657078
0.000657056
0.000657022
0.000656977
0.000657041
0.000657078
0.000656996
0.000657067
0.000656951
0.00065697
0.000656981
0.000656992
0.000657007
0.000656962
0.000657044
0.000657029
0.000656933
0.000657018
0.000657007
0.000656966
0.000779267
0.000779204
0.000779163
0.000779156
0.000779219
0.000779126
0.000779148
0.000779141
0.000779085
0.000779059
0.000779025
0.000779059
0.000778995
0.000779033
0.000778966
0.000778977
0.000778917
0.000778925
0.000778839
0.000778854
0.000778828
0.000778899
0.000778787
0.00077882
0.000778802
0.000778731
0.000778746
0.000778731
0.000778746
0.000778697
0.000778686
0.000778671
0.000778608
0.000778597
0.000778586
0.000778642
0.000778608
0.000778634
0.000778604
0.000778537
0.000778496
0.000778567
0.000778474
0.000778478
0.000778515
0.000778481
0.000778496
0.00077844
0.000778448
0.000778429
0.000778411
0.000778396
0.000778411
0.000778425
0.000778381
0.000778284
0.000778362
0.000778295
0.000778288
0.000778284
0.000778247
0.000778213
0.000778269
0.000778213
0.000778209
0.000778217
0.000778191
0.000778165
0.000778168
0.00077818
0.000778191
0.000778165
0.000778154
0.000778172
0.000778086
0.000778139
0.000778124
0.000778086
0.000778046
0.000778105
0.00077812
0.000778031
0.000777993
0.000778057
0.000778086
0.000778001
0.000778031
0.000778031
0.000778038
0.000777986
0.000777993
0.000777882
0.000777923
0.000777967
0.000777982
0.000777971
0.00077793
0.000777882
0.000777811
0.000777867
0.000777859
0.000628609
0.000628721
0.000628706
0.000628754
0.000628777
0.00062874
0.000628822
0.00062881
0.000628803
0.000628848
0.000628944
0.000628941
0.0006289
0.00062887
0.000628933
0.000628959
0.000628896
0.000628989
0.00062906
0.000629034
0.000629097
0.000629049
0.00062909
0.00062912
0.000629079
0.000629146
0.00062919
0.000629175
0.00062922
0.000629213
0.000629202
0.00062925
0.000629269
0.000629295
0.000629287
0.000629317
0.000629317
0.000629369
0.000629313
0.000629373
0.000629324
0.000629324
0.000629362
0.000629403
0.000629406
0.000629455
0.000629403
0.000629421
0.000629384
0.000629406
0.000629511
0.000629473
0.000629444
0.000629466
0.000629462
0.000629526
0.000629593
0.00062947
0.000629533
0.000629488
0.000629496
0.000629559
0.000629544
0.000629529
0.000629514
0.000629473
0.000629518
0.000629544
0.000629511
0.000629596
0.000629477
0.000629537
0.000629503
0.000629541
0.000629514
0.000629522
0.00062947
0.000629511
0.000629496
0.000629541
0.000629496
0.000629514
0.000629503
0.00062944
0.000629432
0.000629459
0.000629462
0.000629459
0.000629406
0.000629432
0.000629384
0.000629362
0.000629406
0.000629414
0.000629362
0.000629317
0.000629373
0.000629324
0.00062931
0.000629272
0.000629332
-9.09232e-05
-9.08412e-05
-9.07257e-05
-9.06326e-05
-9.05357e-05
-9.04463e-05
-9.02973e-05
-9.00887e-05
-9.00999e-05
-8.99397e-05
-8.98838e-05
-8.9813e-05
-8.96938e-05
-8.96081e-05
-8.94479e-05
-8.9407e-05
-8.9258e-05
-8.9176e-05
-8.91462e-05
-8.89041e-05
-8.89339e-05
-8.88854e-05
-8.87327e-05
-8.86135e-05
-8.84868e-05
-8.84049e-05
-8.8349e-05
-8.82484e-05
-8.8159e-05
-8.81441e-05
-8.79951e-05
-8.78721e-05
-8.77902e-05
-8.78237e-05
-8.76337e-05
-8.76449e-05
-8.75071e-05
-8.74549e-05
-8.73618e-05
-8.73357e-05
-8.73394e-05
-8.71606e-05
-8.70638e-05
-8.70191e-05
-8.70004e-05
-8.68104e-05
-8.67844e-05
-8.67359e-05
-8.6721e-05
-8.66838e-05
-8.65385e-05
-8.64863e-05
-8.6505e-05
-8.64267e-05
-8.62591e-05
-8.62256e-05
-8.62256e-05
-8.6192e-05
-8.61362e-05
-8.60542e-05
-8.6043e-05
-8.60281e-05
-8.59536e-05
-8.5894e-05
-8.58232e-05
-8.58419e-05
-8.57934e-05
-8.58493e-05
-8.57487e-05
-8.5704e-05
-8.57301e-05
-8.56891e-05
-8.56332e-05
-8.56109e-05
-8.5637e-05
-8.5596e-05
-8.55662e-05
-8.5488e-05
-8.55252e-05
-8.5514e-05
-8.55811e-05
-8.55066e-05
-8.55252e-05
-8.54768e-05
-8.54582e-05
-8.54991e-05
-8.54544e-05
-8.54693e-05
-8.54284e-05
-8.54433e-05
-8.54358e-05
-8.54917e-05
-8.54842e-05
-8.55625e-05
-8.55476e-05
-8.55289e-05
-8.55923e-05
-8.56258e-05
-8.56481e-05
-8.5678e-05
-8.56519e-05
-0.00162534
-0.00162512
-0.00162493
-0.00162465
-0.00162439
-0.00162421
-0.00162403
-0.00162385
-0.00162359
-0.00162337
-0.0016232
-0.00162299
-0.0016227
-0.00162251
-0.0016223
-0.00162212
-0.0016219
-0.00162167
-0.00162153
-0.00162128
-0.00162103
-0.00162092
-0.00162067
-0.00162048
-0.00162031
-0.00162007
-0.00161994
-0.00161978
-0.00161957
-0.00161942
-0.00161922
-0.00161902
-0.00161888
-0.00161869
-0.00161847
-0.00161831
-0.00161813
-0.00161795
-0.00161787
-0.00161768
-0.00161744
-0.00161735
-0.00161718
-0.00161704
-0.00161693
-0.00161682
-0.00161669
-0.00161652
-0.00161641
-0.00161625
-0.00161616
-0.00161596
-0.0016159
-0.00161571
-0.00161564
-0.00161551
-0.00161537
-0.00161527
-0.00161513
-0.00161509
-0.00161497
-0.00161488
-0.00161481
-0.00161468
-0.00161455
-0.0016144
-0.00161436
-0.00161428
-0.00161422
-0.00161411
-0.00161407
-0.00161403
-0.00161393
-0.00161389
-0.00161383
-0.00161372
-0.00161373
-0.00161369
-0.00161364
-0.00161355
-0.00161364
-0.00161352
-0.00161346
-0.00161344
-0.00161343
-0.00161334
-0.00161339
-0.00161336
-0.00161334
-0.00161326
-0.00161327
-0.00161334
-0.00161327
-0.00161323
-0.00161326
-0.00161334
-0.0016133
-0.00161329
-0.00161332
-0.00161338
-0.00161344
-0.00310452
-0.00310436
-0.00310431
-0.00310419
-0.00310403
-0.00310395
-0.0031038
-0.00310374
-0.00310366
-0.00310341
-0.00310333
-0.00310327
-0.00310317
-0.003103
-0.00310291
-0.00310285
-0.00310266
-0.00310255
-0.00310248
-0.00310242
-0.00310216
-0.00310216
-0.00310202
-0.00310191
-0.00310191
-0.00310175
-0.00310165
-0.00310157
-0.00310139
-0.00310135
-0.00310124
-0.00310104
-0.00310104
-0.00310098
-0.0031009
-0.00310078
-0.0031007
-0.0031006
-0.00310051
-0.00310046
-0.00310036
-0.0031003
-0.00310014
-0.00310009
-0.00309997
-0.00309991
-0.0030998
-0.00309969
-0.00309971
-0.00309959
-0.00309956
-0.00309944
-0.00309934
-0.00309931
-0.00309925
-0.00309915
-0.00309904
-0.00309899
-0.0030989
-0.00309896
-0.00309874
-0.00309868
-0.00309872
-0.00309869
-0.00309861
-0.00309857
-0.00309847
-0.00309843
-0.00309845
-0.00309825
-0.00309826
-0.00309824
-0.00309816
-0.00309801
-0.0030981
-0.00309803
-0.00309798
-0.00309793
-0.00309795
-0.00309784
-0.00309779
-0.00309776
-0.00309778
-0.00309762
-0.0030977
-0.00309766
-0.00309755
-0.00309752
-0.00309752
-0.00309752
-0.00309749
-0.00309743
-0.00309739
-0.0030974
-0.00309731
-0.00309733
-0.00309733
-0.00309728
-0.00309724
-0.00309725
-0.00309723
-0.000270117
-0.000270635
-0.000271257
-0.00027173
-0.0002723
-0.000272784
-0.000273321
-0.000273921
-0.000274431
-0.000274912
-0.000275366
-0.000275876
-0.000276435
-0.000276953
-0.000277299
-0.000277951
-0.000278432
-0.000278998
-0.000279404
-0.000279982
-0.000280347
-0.000280794
-0.000281394
-0.000281829
-0.000282194
-0.000282679
-0.000283174
-0.000283577
-0.000284057
-0.0002845
-0.000284761
-0.000285309
-0.000285737
-0.000286188
-0.000286441
-0.000287022
-0.000287402
-0.000287693
-0.000288177
-0.000288419
-0.000288844
-0.000289235
-0.000289541
-0.000290018
-0.000290256
-0.000290673
-0.000290964
-0.000291254
-0.000291493
-0.000291824
-0.00029223
-0.000292439
-0.000292804
-0.000293087
-0.000293322
-0.000293534
-0.00029375
-0.000294037
-0.000294238
-0.000294555
-0.000294693
-0.000294946
-0.000295218
-0.000295352
-0.000295565
-0.000295792
-0.000295911
-0.000296202
-0.000296365
-0.000296395
-0.000296634
-0.000296745
-0.00029682
-0.000297111
-0.000297107
-0.000297185
-0.000297375
-0.000297382
-0.000297498
-0.000297602
-0.000297613
-0.00029774
-0.000297662
-0.000297792
-0.000297848
-0.000297774
-0.000297759
-0.000297826
-0.000297781
-0.000297677
-0.000297863
-0.000297651
-0.000297766
-0.000297692
-0.000297632
-0.000297647
-0.000297491
-0.000297394
-0.000297289
-0.00029714
-0.000297174
0.00890005
0.0088994
0.00889882
0.00889825
0.00889768
0.00889723
0.00889663
0.00889607
0.00889549
0.0088949
0.00889435
0.0088939
0.00889334
0.00889288
0.00889234
0.00889188
0.00889134
0.00889076
0.00889039
0.00888977
0.00888934
0.00888887
0.00888846
0.00888785
0.00888738
0.00888696
0.00888643
0.00888598
0.00888554
0.00888516
0.00888445
0.00888405
0.00888376
0.00888338
0.00888305
0.00888278
0.00888218
0.00888179
0.00888136
0.00888107
0.00888061
0.0088801
0.00887978
0.00887949
0.00887914
0.00887885
0.00887838
0.00887816
0.0088778
0.00887754
0.00887727
0.00887688
0.00887653
0.00887631
0.00887596
0.00887563
0.00887557
0.00887533
0.00887504
0.00887473
0.00887448
0.00887426
0.0088741
0.00887397
0.00887373
0.00887351
0.0088734
0.00887316
0.00887299
0.00887284
0.00887283
0.00887266
0.00887235
0.00887249
0.00887213
0.00887224
0.00887219
0.00887203
0.00887207
0.00887202
0.00887197
0.00887189
0.00887197
0.00887183
0.00887183
0.00887201
0.00887192
0.0088719
0.00887192
0.00887193
0.00887195
0.00887222
0.00887225
0.00887234
0.00887239
0.00887257
0.00887273
0.00887276
0.00887288
0.00887311
0.00887317
0.0157606
0.0157607
0.0157604
0.0157608
0.0157607
0.0157608
0.0157612
0.0157612
0.015761
0.0157612
0.0157612
0.0157612
0.0157613
0.0157612
0.0157612
0.0157615
0.0157614
0.0157616
0.0157614
0.0157617
0.0157618
0.0157616
0.0157617
0.0157618
0.0157619
0.0157619
0.0157619
0.0157619
0.0157621
0.0157621
0.015762
0.0157622
0.0157622
0.0157622
0.0157624
0.0157622
0.0157623
0.0157625
0.0157624
0.0157624
0.0157627
0.0157626
0.0157626
0.0157626
0.0157625
0.0157626
0.0157627
0.0157628
0.0157628
0.0157629
0.0157628
0.0157629
0.015763
0.015763
0.0157632
0.015763
0.0157632
0.015763
0.0157631
0.0157633
0.0157633
0.0157633
0.0157633
0.0157633
0.0157633
0.0157635
0.0157636
0.0157634
0.0157635
0.0157637
0.0157635
0.0157637
0.0157636
0.0157636
0.0157634
0.0157638
0.0157637
0.0157638
0.0157639
0.0157639
0.015764
0.0157642
0.0157641
0.0157641
0.0157642
0.0157641
0.0157643
0.0157643
0.0157643
0.0157644
0.0157644
0.0157645
0.0157644
0.0157645
0.0157645
0.0157648
0.0157647
0.0157647
0.0157647
0.0157649
0.0157649
0.0122385
0.0122389
0.0122392
0.0122396
0.0122401
0.0122403
0.0122408
0.012241
0.0122414
0.0122417
0.012242
0.0122424
0.0122425
0.012243
0.0122433
0.0122435
0.0122439
0.0122443
0.0122446
0.012245
0.0122454
0.0122457
0.0122459
0.012246
0.0122464
0.0122467
0.0122472
0.0122475
0.0122474
0.0122481
0.0122483
0.0122485
0.0122487
0.0122491
0.0122493
0.0122495
0.0122497
0.0122501
0.0122503
0.0122503
0.0122511
0.0122509
0.0122512
0.0122515
0.0122519
0.0122519
0.0122522
0.0122523
0.0122526
0.0122525
0.012253
0.012253
0.0122535
0.0122536
0.0122538
0.0122539
0.0122543
0.0122543
0.0122543
0.0122545
0.0122548
0.0122548
0.012255
0.0122555
0.0122553
0.0122554
0.0122554
0.0122557
0.0122555
0.0122558
0.0122561
0.0122562
0.0122561
0.0122562
0.0122562
0.0122563
0.0122562
0.0122565
0.0122564
0.0122564
0.0122564
0.0122566
0.0122565
0.0122567
0.0122566
0.0122568
0.0122564
0.0122564
0.0122567
0.0122566
0.0122566
0.0122564
0.0122563
0.0122565
0.0122564
0.0122564
0.0122561
0.0122563
0.012256
0.0122559
0.012256
-0.00423604
-0.00423584
-0.00423543
-0.00423539
-0.00423492
-0.00423465
-0.00423418
-0.00423431
-0.00423395
-0.00423366
-0.00423346
-0.00423317
-0.00423298
-0.00423289
-0.00423249
-0.00423229
-0.00423194
-0.00423162
-0.00423154
-0.00423109
-0.00423077
-0.00423062
-0.00423041
-0.00423015
-0.00422991
-0.00422971
-0.00422934
-0.00422901
-0.00422879
-0.00422886
-0.00422871
-0.00422837
-0.00422798
-0.00422742
-0.00422736
-0.00422729
-0.00422702
-0.00422668
-0.0042266
-0.0042261
-0.00422626
-0.00422588
-0.00422593
-0.00422553
-0.00422535
-0.00422525
-0.00422507
-0.00422491
-0.00422459
-0.00422433
-0.00422422
-0.00422413
-0.00422359
-0.00422374
-0.00422357
-0.00422338
-0.00422334
-0.00422305
-0.004223
-0.00422273
-0.00422271
-0.00422258
-0.0042225
-0.00422234
-0.00422188
-0.00422213
-0.00422188
-0.00422188
-0.00422168
-0.00422164
-0.00422159
-0.00422145
-0.00422141
-0.00422113
-0.00422107
-0.004221
-0.0042211
-0.00422096
-0.00422087
-0.0042209
-0.00422068
-0.0042206
-0.00422086
-0.00422071
-0.0042205
-0.00422079
-0.00422073
-0.00422074
-0.00422086
-0.00422061
-0.00422079
-0.00422082
-0.00422079
-0.0042209
-0.0042211
-0.00422099
-0.00422115
-0.00422107
-0.00422106
-0.00422137
-0.00422137
-0.0271521
-0.0271523
-0.0271525
-0.027153
-0.0271531
-0.027153
-0.0271534
-0.0271535
-0.0271538
-0.0271538
-0.0271541
-0.0271542
-0.0271545
-0.0271546
-0.0271549
-0.0271546
-0.0271548
-0.0271553
-0.0271555
-0.0271553
-0.0271554
-0.0271559
-0.0271556
-0.0271557
-0.0271559
-0.0271565
-0.0271566
-0.0271564
-0.0271564
-0.027157
-0.0271574
-0.0271569
-0.0271572
-0.0271573
-0.0271574
-0.0271576
-0.0271575
-0.0271576
-0.0271576
-0.0271579
-0.0271577
-0.0271578
-0.0271579
-0.0271579
-0.0271584
-0.0271584
-0.0271583
-0.0271586
-0.0271585
-0.0271585
-0.0271584
-0.0271585
-0.0271586
-0.0271584
-0.0271587
-0.0271587
-0.0271585
-0.027159
-0.0271587
-0.0271589
-0.0271588
-0.027159
-0.0271588
-0.0271589
-0.027159
-0.0271588
-0.027159
-0.0271589
-0.0271589
-0.0271589
-0.0271588
-0.0271589
-0.0271591
-0.0271586
-0.0271588
-0.0271589
-0.0271588
-0.0271589
-0.0271586
-0.0271588
-0.0271586
-0.0271588
-0.0271587
-0.0271586
-0.0271587
-0.0271587
-0.0271586
-0.0271585
-0.0271582
-0.0271585
-0.0271584
-0.0271583
-0.0271582
-0.027158
-0.0271584
-0.0271582
-0.0271581
-0.0271579
-0.0271581
-0.0271579
-0.0271575
-0.0427881
-0.042789
-0.0427895
-0.04279
-0.0427906
-0.0427914
-0.0427915
-0.0427922
-0.0427931
-0.0427935
-0.0427941
-0.0427947
-0.0427951
-0.0427956
-0.0427962
-0.0427964
-0.0427971
-0.0427978
-0.0427981
-0.0427987
-0.0427993
-0.0427996
-0.0428001
-0.0428004
-0.0428009
-0.0428015
-0.0428018
-0.0428024
-0.0428027
-0.0428032
-0.0428037
-0.0428042
-0.0428047
-0.0428052
-0.0428056
-0.0428057
-0.0428062
-0.0428068
-0.0428068
-0.0428072
-0.0428079
-0.0428082
-0.0428083
-0.0428087
-0.0428092
-0.0428096
-0.04281
-0.0428102
-0.0428104
-0.0428109
-0.042811
-0.0428114
-0.0428115
-0.0428122
-0.0428122
-0.0428124
-0.0428127
-0.0428129
-0.0428131
-0.0428133
-0.042814
-0.0428139
-0.0428139
-0.0428143
-0.0428143
-0.0428143
-0.0428148
-0.042815
-0.0428152
-0.0428152
-0.0428152
-0.0428153
-0.0428156
-0.0428155
-0.0428155
-0.0428159
-0.0428158
-0.0428159
-0.0428159
-0.0428158
-0.0428163
-0.0428161
-0.042816
-0.0428162
-0.042816
-0.0428163
-0.0428162
-0.0428161
-0.0428163
-0.0428158
-0.0428159
-0.0428158
-0.042816
-0.0428159
-0.0428153
-0.0428155
-0.0428153
-0.0428151
-0.0428154
-0.0428152
-0.042815
-0.0404837
-0.0404837
-0.0404836
-0.0404841
-0.0404841
-0.040484
-0.0404842
-0.0404841
-0.040484
-0.0404841
-0.0404848
-0.0404846
-0.040485
-0.040485
-0.0404849
-0.0404849
-0.0404852
-0.0404852
-0.0404852
-0.0404853
-0.0404856
-0.0404857
-0.0404858
-0.0404859
-0.0404859
-0.0404861
-0.040486
-0.0404861
-0.0404864
-0.0404866
-0.0404866
-0.0404868
-0.0404868
-0.0404869
-0.0404871
-0.0404871
-0.0404871
-0.0404875
-0.0404873
-0.0404877
-0.0404878
-0.0404879
-0.0404878
-0.0404882
-0.0404883
-0.0404883
-0.0404883
-0.0404885
-0.0404887
-0.0404887
-0.040489
-0.0404891
-0.0404891
-0.0404892
-0.0404893
-0.0404897
-0.0404894
-0.0404893
-0.04049
-0.0404899
-0.04049
-0.0404903
-0.0404905
-0.0404905
-0.0404907
-0.0404907
-0.0404905
-0.0404912
-0.0404912
-0.0404912
-0.0404911
-0.0404915
-0.0404915
-0.0404917
-0.0404917
-0.0404919
-0.0404918
-0.0404925
-0.0404924
-0.0404926
-0.0404926
-0.0404927
-0.040493
-0.0404932
-0.0404935
-0.0404934
-0.0404936
-0.0404939
-0.0404936
-0.040494
-0.0404941
-0.0404942
-0.0404945
-0.0404941
-0.0404947
-0.0404949
-0.040495
-0.0404951
-0.0404954
-0.0404953
-0.0404953
-0.0169771
-0.0169762
-0.0169751
-0.0169736
-0.0169728
-0.0169712
-0.0169701
-0.0169691
-0.0169681
-0.0169669
-0.0169654
-0.0169645
-0.0169633
-0.0169618
-0.0169609
-0.0169601
-0.0169588
-0.0169576
-0.0169567
-0.0169552
-0.0169545
-0.0169531
-0.0169522
-0.016951
-0.01695
-0.016949
-0.0169481
-0.0169468
-0.0169457
-0.0169449
-0.016944
-0.0169435
-0.0169423
-0.0169414
-0.0169403
-0.0169395
-0.0169387
-0.016938
-0.0169373
-0.016936
-0.0169354
-0.0169348
-0.0169342
-0.0169335
-0.0169326
-0.0169321
-0.0169312
-0.0169306
-0.0169301
-0.0169292
-0.0169291
-0.0169285
-0.0169281
-0.0169275
-0.0169268
-0.0169267
-0.0169265
-0.0169262
-0.0169259
-0.0169255
-0.0169251
-0.0169252
-0.0169247
-0.0169247
-0.0169245
-0.0169242
-0.0169242
-0.0169237
-0.0169241
-0.0169243
-0.0169239
-0.0169239
-0.016924
-0.0169241
-0.0169244
-0.0169245
-0.0169249
-0.0169251
-0.016925
-0.0169254
-0.0169258
-0.0169261
-0.0169268
-0.0169271
-0.0169276
-0.0169279
-0.0169289
-0.0169291
-0.0169296
-0.0169304
-0.0169312
-0.0169316
-0.0169324
-0.0169329
-0.016934
-0.0169347
-0.0169356
-0.0169364
-0.0169373
-0.0169383
-0.0169392
0.0316394
0.0316409
0.0316426
0.0316447
0.0316465
0.031648
0.0316494
0.0316512
0.0316529
0.0316547
0.0316569
0.0316586
0.0316601
0.0316621
0.0316638
0.0316657
0.0316677
0.0316692
0.0316711
0.0316727
0.0316743
0.031676
0.0316779
0.0316793
0.0316807
0.0316827
0.0316836
0.0316856
0.0316878
0.0316889
0.0316902
0.0316914
0.0316929
0.0316946
0.0316963
0.0316974
0.0316984
0.0316999
0.0317013
0.0317025
0.0317035
0.0317049
0.0317057
0.0317068
0.031708
0.0317091
0.0317098
0.0317108
0.0317118
0.031712
0.0317131
0.0317139
0.0317142
0.0317149
0.0317157
0.0317158
0.0317167
0.0317173
0.031717
0.0317176
0.0317178
0.0317176
0.0317179
0.0317181
0.0317181
0.031718
0.031718
0.0317176
0.0317177
0.0317176
0.0317167
0.0317163
0.0317161
0.0317156
0.0317149
0.0317147
0.0317138
0.0317123
0.031712
0.031711
0.0317099
0.0317091
0.0317078
0.0317069
0.0317052
0.0317042
0.0317027
0.0317012
0.0316997
0.0316984
0.0316973
0.031695
0.0316933
0.0316915
0.0316893
0.0316878
0.0316855
0.0316836
0.031681
0.0316794
0.0316767
0.117965
0.117965
0.117966
0.117968
0.117969
0.11797
0.11797
0.117971
0.117974
0.117974
0.117976
0.117977
0.117978
0.117979
0.117981
0.117982
0.117983
0.117984
0.117985
0.117987
0.117988
0.11799
0.11799
0.117992
0.117992
0.117994
0.117996
0.117997
0.117997
0.117999
0.118
0.118001
0.118002
0.118003
0.118004
0.118005
0.118006
0.118006
0.118007
0.118008
0.118009
0.11801
0.11801
0.118011
0.118011
0.118011
0.118012
0.118012
0.118013
0.118013
0.118013
0.118013
0.118013
0.118013
0.118013
0.118013
0.118013
0.118012
0.118012
0.118012
0.118011
0.11801
0.118009
0.118009
0.118008
0.118007
0.118006
0.118006
0.118004
0.118003
0.118002
0.118
0.117998
0.117997
0.117995
0.117994
0.117991
0.11799
0.117988
0.117985
0.117983
0.117981
0.117979
0.117976
0.117974
0.117971
0.117968
0.117965
0.117963
0.117959
0.117957
0.117953
0.117949
0.117946
0.117942
0.117939
0.117935
0.117931
0.117927
0.117923
0.11792
0.237978
0.237979
0.237978
0.237979
0.23798
0.23798
0.237981
0.237981
0.237981
0.237982
0.237983
0.237984
0.237985
0.237985
0.237986
0.237987
0.237987
0.237989
0.23799
0.237991
0.237992
0.237993
0.237994
0.237994
0.237995
0.237996
0.237997
0.237998
0.237998
0.237999
0.238001
0.238002
0.238003
0.238002
0.238004
0.238004
0.238005
0.238004
0.238006
0.238006
0.238007
0.238007
0.238007
0.238008
0.238009
0.238007
0.238007
0.238008
0.238007
0.238007
0.238007
0.238007
0.238006
0.238005
0.238006
0.238005
0.238003
0.238003
0.238001
0.238001
0.237999
0.237999
0.237997
0.237995
0.237994
0.237992
0.237991
0.237988
0.237986
0.237984
0.237982
0.23798
0.237978
0.237976
0.237972
0.237969
0.237967
0.237963
0.23796
0.237957
0.237953
0.23795
0.237946
0.237943
0.237938
0.237934
0.23793
0.237925
0.237922
0.237917
0.237912
0.237907
0.237902
0.237896
0.237892
0.237887
0.237881
0.237875
0.237868
0.237863
0.237856
0.3626
0.3626
0.3626
0.362599
0.362599
0.362599
0.362599
0.362599
0.362599
0.3626
0.3626
0.362601
0.362601
0.362602
0.362603
0.362604
0.362604
0.362605
0.362606
0.362607
0.362607
0.362608
0.362609
0.36261
0.362612
0.362612
0.362613
0.362614
0.362615
0.362616
0.362617
0.362617
0.362619
0.362619
0.36262
0.362621
0.362622
0.362623
0.362623
0.362624
0.362625
0.362625
0.362625
0.362625
0.362626
0.362627
0.362626
0.362626
0.362627
0.362626
0.362627
0.362626
0.362625
0.362625
0.362624
0.362625
0.362623
0.362622
0.362621
0.36262
0.362619
0.362617
0.362616
0.362614
0.362612
0.36261
0.362609
0.362606
0.362604
0.362602
0.3626
0.362596
0.362594
0.36259
0.362587
0.362584
0.36258
0.362576
0.362572
0.362568
0.362565
0.362561
0.362556
0.362552
0.362547
0.362542
0.362536
0.36253
0.362525
0.36252
0.362513
0.362508
0.362502
0.362495
0.362489
0.362482
0.362475
0.362468
0.36246
0.362452
0.362445
0.455918
0.455917
0.455915
0.455914
0.455913
0.455913
0.455913
0.455912
0.455912
0.455912
0.455911
0.455912
0.455912
0.455913
0.455914
0.455914
0.455914
0.455914
0.455916
0.455917
0.455918
0.455918
0.45592
0.455921
0.455923
0.455924
0.455924
0.455925
0.455927
0.455928
0.455929
0.455931
0.455932
0.455933
0.455934
0.455935
0.455937
0.455938
0.455939
0.45594
0.455941
0.455941
0.455943
0.455943
0.455945
0.455945
0.455946
0.455946
0.455947
0.455947
0.455947
0.455948
0.455949
0.455948
0.455948
0.455948
0.455948
0.455947
0.455947
0.455947
0.455946
0.455944
0.455944
0.455942
0.455941
0.45594
0.455937
0.455936
0.455934
0.455932
0.45593
0.455927
0.455924
0.455922
0.455919
0.455916
0.455912
0.455909
0.455905
0.455901
0.455897
0.455894
0.455888
0.455884
0.45588
0.455875
0.455869
0.455864
0.455858
0.455853
0.455846
0.45584
0.455834
0.455827
0.455821
0.455813
0.455806
0.455798
0.455791
0.455782
0.455775
0.491696
0.491694
0.49169
0.49169
0.491687
0.491686
0.491684
0.491683
0.491682
0.491682
0.491681
0.49168
0.491681
0.49168
0.491681
0.49168
0.491681
0.491681
0.491682
0.491682
0.491683
0.491684
0.491685
0.491687
0.491687
0.491688
0.49169
0.491691
0.491692
0.491694
0.491696
0.491697
0.491699
0.491701
0.491702
0.491704
0.491705
0.491706
0.491708
0.49171
0.491711
0.491713
0.491715
0.491716
0.491718
0.491719
0.491721
0.491722
0.491722
0.491724
0.491725
0.491726
0.491727
0.491728
0.491728
0.491728
0.491729
0.491729
0.49173
0.49173
0.49173
0.49173
0.49173
0.49173
0.49173
0.491729
0.491729
0.491727
0.491727
0.491725
0.491724
0.491722
0.491721
0.491719
0.491717
0.491715
0.491712
0.491709
0.491707
0.491704
0.491701
0.491699
0.491694
0.49169
0.491687
0.491683
0.491679
0.491674
0.491668
0.491664
0.491659
0.491653
0.491649
0.491642
0.491636
0.49163
0.491624
0.491617
0.49161
0.491603
0.491595
0.462805
0.462801
0.462797
0.462794
0.462791
0.462788
0.462785
0.462784
0.462782
0.46278
0.462778
0.462776
0.462775
0.462775
0.462775
0.462774
0.462774
0.462773
0.462773
0.462774
)
;

boundaryField
{
    movingWall
    {
        type            zeroGradient;
    }
    fixedWalls
    {
        type            zeroGradient;
    }
    frontAndBack
    {
        type            empty;
    }
}

