/*--------------------------------*- C++ -*----------------------------------*\
| =========                 |                                                 |
| \\      /  F ield         | OpenFOAM: The Open Source CFD Toolbox           |
|  \\    /   O peration     | Version:  v2006                                 |
|   \\  /    A nd           | Website:  www.openfoam.com                      |
|    \\/     M anipulation  |                                                 |
\*---------------------------------------------------------------------------*/
FoamFile
{
    version     2.0;
    format      ascii;
    class       volScalarField;
    location    "0";
    object      shifted_f;
}
// * * * * * * * * * * * * * * * * * * * * * * * * * * * * * * * * * * * * * //

dimensions      [0 0 0 0 0 0 0];


internalField   nonuniform List<scalar> 
2500
(
0.00034311
0.000343148
0.000343159
0.000343159
0.000343233
0.000343159
0.000343245
0.000343241
0.000343274
0.00034323
0.000343282
0.000343297
0.000343345
0.000355031
0.000355035
0.000355076
0.000355054
0.000355102
0.000355087
0.000355091
0.000355091
0.000355147
0.000355121
0.000355072
0.000355165
0.000355147
0.000355117
0.000355151
0.000355218
0.000355188
0.000355206
0.000355229
0.000355139
0.000355169
0.000355162
0.000355218
0.000355188
0.000355173
0.000355233
0.000355266
0.000355273
0.000355273
0.000355329
0.0003553
0.000355285
0.000355281
0.000355314
0.000355396
0.000355374
0.000355292
0.0003554
0.000355404
0.000355378
0.000355411
0.000355456
0.000355382
0.000355478
0.000355449
0.000355467
0.000355508
0.000355478
0.000355531
0.000355512
0.000355501
0.000355504
0.000355523
0.000355531
0.000355583
0.000355583
0.000355639
0.000355616
0.000355631
0.000355665
0.00035568
0.000355721
0.000355702
0.000355739
0.000355739
0.000355758
0.000355735
0.000355769
0.000355829
0.000355806
0.000355866
0.000355858
0.000355847
0.000355858
0.000355903
0.000355966
0.000355944
0.000356
0.000355966
0.000355996
0.000355985
0.000356045
0.000356071
0.0003561
0.000356045
0.000356067
0.000356149
0.000356112
0.000356175
0.000356182
0.000356175
0.000356276
0.000356305
0.00035629
0.000356305
0.000356279
0.000356335
0.000356339
0.000356305
0.000356417
0.000356402
0.000375684
0.000375673
0.000375707
0.000375714
0.000375763
0.000375737
0.000375751
0.000375774
0.000375763
0.000375759
0.000375789
0.000375748
0.000375766
0.000375777
0.000375815
0.0003758
0.000375781
0.000375848
0.000375878
0.000375845
0.000375841
0.000375871
0.000375856
0.000375867
0.000375938
0.000375904
0.000375953
0.00037596
0.000375912
0.000375975
0.00037596
0.000376035
0.000376053
0.000375971
0.000376038
0.000376038
0.000376064
0.000376072
0.000376161
0.000376116
0.000376154
0.00037615
0.000376176
0.000376139
0.000376176
0.000376213
0.000376169
0.000376254
0.000376265
0.00037628
0.000376299
0.00037631
0.000376329
0.000376306
0.000376347
0.000376407
0.000376437
0.000376415
0.0003764
0.000376455
0.000376511
0.000376526
0.000376515
0.000376493
0.000376608
0.000376593
0.000376623
0.000376638
0.000376593
0.000376601
0.00037669
0.000376694
0.000376672
0.000376701
0.000376731
0.000376746
0.000376757
0.000376817
0.000376809
0.000376884
0.000376929
0.000376988
0.00037691
0.00037691
0.000377007
0.000377033
0.000377025
0.000377111
0.000377055
0.00037716
0.000377107
0.000377156
0.000377167
0.000377201
0.000377238
0.000377264
0.000377294
0.00037732
0.000377372
0.000377417
0.000377361
0.000397298
0.000397373
0.000397358
0.000397358
0.000397395
0.000397425
0.000397388
0.000397358
0.000397451
0.000397407
0.000397388
0.000397447
0.000397455
0.000397474
0.000397492
0.000397511
0.000397526
0.000397462
0.000397556
0.000397526
0.000397574
0.000397589
0.000397585
0.000397593
0.000397656
0.000397656
0.000397608
0.000397656
0.000397716
0.000397734
0.000397693
0.000397783
0.000397753
0.000397746
0.000397753
0.000397757
0.00039785
0.000397794
0.000397801
0.000397794
0.00039788
0.000397868
0.000397872
0.000397906
0.00039788
0.000397883
0.000397906
0.000397932
0.000397943
0.000397999
0.00039798
0.000397928
0.000398006
0.000398021
0.000398006
0.000398062
0.00039807
0.000398129
0.000398193
0.000398107
0.00039814
0.000398215
0.000398181
0.000398181
0.000398193
0.000398237
0.000398297
0.000398293
0.000398301
0.000398315
0.000398342
0.000398315
0.000398435
0.000398453
0.000398386
0.000398442
0.000398465
0.000398524
0.000398498
0.000398468
0.000398498
0.000398558
0.000398561
0.000398587
0.000398576
0.000398599
0.000398625
0.000398647
0.000398654
0.000398681
0.000398692
0.000398748
0.000398744
0.000398811
0.000398841
0.000398841
0.000398848
0.000398923
0.000398956
0.000398967
0.000398938
0.000413787
0.000413783
0.000413738
0.000413757
0.000413794
0.000413712
0.000413738
0.000413753
0.000413712
0.00041369
0.000413708
0.000413671
0.000413738
0.000413712
0.000413679
0.000413701
0.000413697
0.000413641
0.00041363
0.000413697
0.000413638
0.000413679
0.000413693
0.000413712
0.000413664
0.000413664
0.0004136
0.000413634
0.000413623
0.000413548
0.000413571
0.000413675
0.000413749
0.000413638
0.000413619
0.00041366
0.000413679
0.000413638
0.000413667
0.000413623
0.000413619
0.000413615
0.0004136
0.00041366
0.000413623
0.000413578
0.000413608
0.000413582
0.000413582
0.000413574
0.000413619
0.000413496
0.000413615
0.000413548
0.000413589
0.000413615
0.000413533
0.000413518
0.00041353
0.000413556
0.000413533
0.000413492
0.000413582
0.000413507
0.000413463
0.000413571
0.000413552
0.000413515
0.000413429
0.000413399
0.000413485
0.000413518
0.000413455
0.000413466
0.000413444
0.000413492
0.000413463
0.000413492
0.000413477
0.000413451
0.00041341
0.00041341
0.000413455
0.000413466
0.000413444
0.000413503
0.000413414
0.000413384
0.000413362
0.000413366
0.000413384
0.000413354
0.000413325
0.000413377
0.000413302
0.000413332
0.000413343
0.000413265
0.00041328
0.000413243
0.000413261
0.00039186
0.00039193
0.000391867
0.000391867
0.000391789
0.00039183
0.000391804
0.000391778
0.000391778
0.00039174
0.00039174
0.000391807
0.000391748
0.000391703
0.000391733
0.000391658
0.000391703
0.000391658
0.000391658
0.000391643
0.000391591
0.000391614
0.000391662
0.00039158
0.000391554
0.000391535
0.000391513
0.000391509
0.000391532
0.000391472
0.000391442
0.000391465
0.000391442
0.000391435
0.000391461
0.000391487
0.000391353
0.000391427
0.000391383
0.000391353
0.00039136
0.000391368
0.000391297
0.000391316
0.000391264
0.000391234
0.000391297
0.000391252
0.00039126
0.000391256
0.000391223
0.000391193
0.000391223
0.000391155
0.000391182
0.000391103
0.000391118
0.0003911
0.000391126
0.000391036
0.000391148
0.000391036
0.000391047
0.000391115
0.000391103
0.000391081
0.000391092
0.000390995
0.000390995
0.000391025
0.000391003
0.000390925
0.000391003
0.000390939
0.000390913
0.000390943
0.000390906
0.000390943
0.000390846
0.000390839
0.00039085
0.000390824
0.000390787
0.000390772
0.000390705
0.000390802
0.000390779
0.000390768
0.00039072
0.000390697
0.000390589
0.000390638
0.000390582
0.000390578
0.000390612
0.000390533
0.000390567
0.000390589
0.000390518
0.000390533
0.000390533
0.00036009
0.000360031
0.000360109
0.00036002
0.000359986
0.000359971
0.000359971
0.000359979
0.000359956
0.000359919
0.000359859
0.000359889
0.000359859
0.000359844
0.000359811
0.000359874
0.000359792
0.00035977
0.000359748
0.000359759
0.000359718
0.000359729
0.000359703
0.000359651
0.000359643
0.000359733
0.000359662
0.000359677
0.000359632
0.000359613
0.000359599
0.000359543
0.000359517
0.000359528
0.000359479
0.000359457
0.000359494
0.000359479
0.000359423
0.000359427
0.000359409
0.000359382
0.000359368
0.00035936
0.000359353
0.00035933
0.000359297
0.000359297
0.000359293
0.000359263
0.000359241
0.000359219
0.000359233
0.000359111
0.000359118
0.000359155
0.000359122
0.000359055
0.00035917
0.000359114
0.000359077
0.00035904
0.000359047
0.000359036
0.000359036
0.000358999
0.000358984
0.000358883
0.00035895
0.000358965
0.000358958
0.000358906
0.000358861
0.000358883
0.000358876
0.000358809
0.000358887
0.000358831
0.00035879
0.000358801
0.000358794
0.000358757
0.000358734
0.000358671
0.00035866
0.000358663
0.00035863
0.000358626
0.000358623
0.000358656
0.000358611
0.000358626
0.000358567
0.000358541
0.000358492
0.000358447
0.000358488
0.000358421
0.000358455
0.000358436
0.000358414
0.000319473
0.000319436
0.000319429
0.000319447
0.000319351
0.000319388
0.000319298
0.000319254
0.000319321
0.000319201
0.000319201
0.000319213
0.000319153
0.00031912
0.000319101
0.00031906
0.00031903
0.000319075
0.000319052
0.000318997
0.000318967
0.000318948
0.000318918
0.000318903
0.0003189
0.000318877
0.000318829
0.000318799
0.000318751
0.000318777
0.000318769
0.000318721
0.000318665
0.000318687
0.000318669
0.000318632
0.000318594
0.000318598
0.000318531
0.000318576
0.000318486
0.000318505
0.000318531
0.000318512
0.000318516
0.00031843
0.00031846
0.000318434
0.000318382
0.000318397
0.000318334
0.000318248
0.000318293
0.000318218
0.000318263
0.000318214
0.000318181
0.000318222
0.000318214
0.000318188
0.000318114
0.000318158
0.000318073
0.000318121
0.000318076
0.000318062
0.000318039
0.000317968
0.000317957
0.000317942
0.000317968
0.000317909
0.000317935
0.000317931
0.000317842
0.000317853
0.000317834
0.000317782
0.000317767
0.000317775
0.000317786
0.000317737
0.000317737
0.000317786
0.00031773
0.00031767
0.000317685
0.000317637
0.000317678
0.000317633
0.000317562
0.000317615
0.000317559
0.000317562
0.00031751
0.000317518
0.000317484
0.000317503
0.000317439
0.000317466
0.000317354
0.000276938
0.000276849
0.000276834
0.000276852
0.000276748
0.000276819
0.000276752
0.000276662
0.000276629
0.000276621
0.000276662
0.00027661
0.000276554
0.00027642
0.000276506
0.000276554
0.000276502
0.000276454
0.000276435
0.00027642
0.000276383
0.000276368
0.000276353
0.000276316
0.000276238
0.000276227
0.000276182
0.000276193
0.000276159
0.000276167
0.000276159
0.000276066
0.000276119
0.000276085
0.000276111
0.00027597
0.000276033
0.000275966
0.00027601
0.000275988
0.000275981
0.000275873
0.000275884
0.000275813
0.000275902
0.000275858
0.000275884
0.000275861
0.000275832
0.000275746
0.000275783
0.000275753
0.000275679
0.000275664
0.000275675
0.000275623
0.000275619
0.000275657
0.000275571
0.000275593
0.000275642
0.000275608
0.000275578
0.00027553
0.000275522
0.000275504
0.000275504
0.000275496
0.000275508
0.000275437
0.000275481
0.000275385
0.000275396
0.000275433
0.000275411
0.000275336
0.000275332
0.00027534
0.000275284
0.000275247
0.000275236
0.000275254
0.000275239
0.000275187
0.000275221
0.000275191
0.000275165
0.000275116
0.000275116
0.000275139
0.000275094
0.00027512
0.000275109
0.000275031
0.000275057
0.000275001
0.000275008
0.000275012
0.000274967
0.000274923
0.000274915
0.00024743
0.000247397
0.000247352
0.000247348
0.000247363
0.000247315
0.000247274
0.000247236
0.000247296
0.000247285
0.000247214
0.000247218
0.000247195
0.000247169
0.000247099
0.000247143
0.000247087
0.000247087
0.000247076
0.000247087
0.000246983
0.000247005
0.00024708
0.000246946
0.000246994
0.000247039
0.000246931
0.000246968
0.000246897
0.000246901
0.000246871
0.000246897
0.000246879
0.000246812
0.000246875
0.000246841
0.000246797
0.000246774
0.000246722
0.000246733
0.0002468
0.000246782
0.000246745
0.000246763
0.000246726
0.000246722
0.00024673
0.000246689
0.000246655
0.000246651
0.000246637
0.00024673
0.000246629
0.000246599
0.00024664
0.000246588
0.000246599
0.00024657
0.000246625
0.000246614
0.000246536
0.000246499
0.000246514
0.000246543
0.000246502
0.000246491
0.000246469
0.000246499
0.000246406
0.000246525
0.000246499
0.000246458
0.000246488
0.000246458
0.000246473
0.000246476
0.00024645
0.000246417
0.000246376
0.000246417
0.000246417
0.000246361
0.000246331
0.00024638
0.000246432
0.000246383
0.000246383
0.000246331
0.000246361
0.000246298
0.000246286
0.000246331
0.000246283
0.000246346
0.00024632
0.000246298
0.00024632
0.000246279
0.00024629
0.000246324
0.000246342
0.000244819
0.000244733
0.000244755
0.000244897
0.0002448
0.000244807
0.000244826
0.000244781
0.000244867
0.000244752
0.000244725
0.000244703
0.000244733
0.000244725
0.000244778
0.000244822
0.000244811
0.000244707
0.000244752
0.000244722
0.00024461
0.000244763
0.000244673
0.000244651
0.00024464
0.000244655
0.000244685
0.000244636
0.000244606
0.000244632
0.000244584
0.000244603
0.000244569
0.00024461
0.000244558
0.000244554
0.000244591
0.000244588
0.00024455
0.000244599
0.000244576
0.00024461
0.000244658
0.000244603
0.000244591
0.000244658
0.000244655
0.000244658
0.000244636
0.000244576
0.000244599
0.000244591
0.000244617
0.000244606
0.000244614
0.000244603
0.000244625
0.000244625
0.000244606
0.00024458
0.000244614
0.000244588
0.000244603
0.000244718
0.000244718
0.000244677
0.000244658
0.000244699
0.000244737
0.000244651
0.00024467
0.000244662
0.000244644
0.000244666
0.000244681
0.000244699
0.000244662
0.000244714
0.000244614
0.000244681
0.000244666
0.00024467
0.00024467
0.000244699
0.000244737
0.000244699
0.000244811
0.000244711
0.000244666
0.000244699
0.00024477
0.000244711
0.000244793
0.000244759
0.000244748
0.000244778
0.000244752
0.000244822
0.000244807
0.000244841
0.000244897
0.000268508
0.000268426
0.000268441
0.000268482
0.000268575
0.000268459
0.0002685
0.00026853
0.000268504
0.000268482
0.000268452
0.0002685
0.000268515
0.000268426
0.000268515
0.00026847
0.000268433
0.000268493
0.000268463
0.00026843
0.000268467
0.000268534
0.0002685
0.000268482
0.000268489
0.000268541
0.000268482
0.000268448
0.00026853
0.000268467
0.000268526
0.00026856
0.000268597
0.000268538
0.000268511
0.000268526
0.000268579
0.000268541
0.000268556
0.000268579
0.000268567
0.000268575
0.00026862
0.000268627
0.000268642
0.000268642
0.00026862
0.000268687
0.000268612
0.000268701
0.00026866
0.000268705
0.000268601
0.000268638
0.000268675
0.00026872
0.000268769
0.000268783
0.000268765
0.000268787
0.000268739
0.000268776
0.000268761
0.000268839
0.000268839
0.000268817
0.000268802
0.000268776
0.000268836
0.000268787
0.00026885
0.000268862
0.00026891
0.000268891
0.000268929
0.00026891
0.000268992
0.00026894
0.000268918
0.000268947
0.000268947
0.00026897
0.000269026
0.000268985
0.000269022
0.000269081
0.000269074
0.000269078
0.000269059
0.000269093
0.000269104
0.000269067
0.00026916
0.000269126
0.000269141
0.000269197
0.000269212
0.000269227
0.000269223
0.000269242
0.000269212
0.0003036
0.000303581
0.00030357
0.000303622
0.000303593
0.000303581
0.000303581
0.000303619
0.000303593
0.000303637
0.000303593
0.00030357
0.00030354
0.000303656
0.000303615
0.000303656
0.000303756
0.000303749
0.000303689
0.000303756
0.000303634
0.000303701
0.000303704
0.000303701
0.00030376
0.000303742
0.000303689
0.000303708
0.000303686
0.00030376
0.000303738
0.000303756
0.000303768
0.00030373
0.000303771
0.000303745
0.000303786
0.000303835
0.000303809
0.000303801
0.000303764
0.00030379
0.000303797
0.000303816
0.000303794
0.000303805
0.000303898
0.000303935
0.000303913
0.000303853
0.000303891
0.000303939
0.000303913
0.000303909
0.000303917
0.000303932
0.00030401
0.000303987
0.000304002
0.000303987
0.000304013
0.000303954
0.000304043
0.000304066
0.000304032
0.000304062
0.000304032
0.000304114
0.000304136
0.00030414
0.000304069
0.000304077
0.000304084
0.000304166
0.000304118
0.000304084
0.00030417
0.000304233
0.000304196
0.000304267
0.000304241
0.000304248
0.000304256
0.000304233
0.000304345
0.000304271
0.000304308
0.0003043
0.0003043
0.000304341
0.000304453
0.000304468
0.000304364
0.000304427
0.000304472
0.000304479
0.000304464
0.000304505
0.000304423
0.000304483
0.000304513
0.000334151
0.000334125
0.00033414
0.000334114
0.000334188
0.000334095
0.000334144
0.000334166
0.000334181
0.000334203
0.000334132
0.00033408
0.000334166
0.000334155
0.000334181
0.000334147
0.000334173
0.000334203
0.000334222
0.00033424
0.00033417
0.000334185
0.000334192
0.000334185
0.000334159
0.000334136
0.000334233
0.000334222
0.000334203
0.000334192
0.000334162
0.000334237
0.000334214
0.000334222
0.000334244
0.000334255
0.000334315
0.00033433
0.000334255
0.000334289
0.000334259
0.000334237
0.000334255
0.000334259
0.00033427
0.000334285
0.000334267
0.000334322
0.000334349
0.00033433
0.00033439
0.000334289
0.00033433
0.000334427
0.000334382
0.000334356
0.000334311
0.000334352
0.000334345
0.000334386
0.000334371
0.00033433
0.000334382
0.000334367
0.000334367
0.00033439
0.000334419
0.00033446
0.000334464
0.000334412
0.000334427
0.000334416
0.000334427
0.000334471
0.000334468
0.000334419
0.000334505
0.000334516
0.000334498
0.000334449
0.000334512
0.000334591
0.000334546
0.00033455
0.000334602
0.000334524
0.000334594
0.000334512
0.000334572
0.000334624
0.000334617
0.000334654
0.000334609
0.000334572
0.000334606
0.000334654
0.000334654
0.000334673
0.000334688
0.00033471
0.000334743
0.00035188
0.000351872
0.000351783
0.000351846
0.000351824
0.000351813
0.000351746
0.000351805
0.000351798
0.00035182
0.00035179
0.000351783
0.00035188
0.000351846
0.00035179
0.000351857
0.000351816
0.000351794
0.000351891
0.000351816
0.000351813
0.000351857
0.000351828
0.000351824
0.000351865
0.000351813
0.000351749
0.000351839
0.000351772
0.000351857
0.000351705
0.000351798
0.000351805
0.000351802
0.00035185
0.000351809
0.000351794
0.000351813
0.00035182
0.000351839
0.000351757
0.000351764
0.00035185
0.000351805
0.000351787
0.000351805
0.000351831
0.000351764
0.000351783
0.000351865
0.000351779
0.000351828
0.000351854
0.000351828
0.000351775
0.000351798
0.000351734
0.000351787
0.000351887
0.000351757
0.000351805
0.00035185
0.00035185
0.000351857
0.00035185
0.000351917
0.000351898
0.00035188
0.000351865
0.000351828
0.000351824
0.000351891
0.000351876
0.000351846
0.000351913
0.000351891
0.000351802
0.000351831
0.000351865
0.00035188
0.000351906
0.000351917
0.000351846
0.000351865
0.000351924
0.000351828
0.000351876
0.000351857
0.000351865
0.00035191
0.000351958
0.000351895
0.00035191
0.000351842
0.000351962
0.00035191
0.00035188
0.000351895
0.000351865
0.00035188
0.000351917
0.000356726
0.000356738
0.000356752
0.000356752
0.00035679
0.000356682
0.000356793
0.000356719
0.000356734
0.000356756
0.000356723
0.000356656
0.000356708
0.000356697
0.000356704
0.000356678
0.000356674
0.000356656
0.000356719
0.000356622
0.000356726
0.000356663
0.000356682
0.000356596
0.000356644
0.000356637
0.000356629
0.000356607
0.000356708
0.000356603
0.000356641
0.000356615
0.000356719
0.0003566
0.000356574
0.000356566
0.000356589
0.000356637
0.000356622
0.000356641
0.000356525
0.000356566
0.000356559
0.000356559
0.000356618
0.000356592
0.000356596
0.000356607
0.000356503
0.000356611
0.000356551
0.000356544
0.000356566
0.000356559
0.000356589
0.000356603
0.00035651
0.000356581
0.000356559
0.000356529
0.000356514
0.000356521
0.000356562
0.000356529
0.000356521
0.000356525
0.000356618
0.000356521
0.000356536
0.000356503
0.000356518
0.000356514
0.000356499
0.000356529
0.000356488
0.000356488
0.000356488
0.000356503
0.000356495
0.000356492
0.000356488
0.000356529
0.00035648
0.000356484
0.000356492
0.000356536
0.000356477
0.000356499
0.000356507
0.000356473
0.000356518
0.000356473
0.000356488
0.000356499
0.000356469
0.000356462
0.000356551
0.000356469
0.00035648
0.00035644
0.000356514
0.000353299
0.000353273
0.000353273
0.000353303
0.000353295
0.000353295
0.000353258
0.00035318
0.000353258
0.000353243
0.000353243
0.000353239
0.000353221
0.000353221
0.000353251
0.000353202
0.000353124
0.000353158
0.000353195
0.000353198
0.00035315
0.000353117
0.000353154
0.000353247
0.000353139
0.000353161
0.000353191
0.000353076
0.000353087
0.000353161
0.000353109
0.000353087
0.000353135
0.00035309
0.000353139
0.000353176
0.000353105
0.000353057
0.000353061
0.000353046
0.000353083
0.00035309
0.000353061
0.000353068
0.000353072
0.000353042
0.000352994
0.000353061
0.000352997
0.00035302
0.000353038
0.00035302
0.00035302
0.000352997
0.00035302
0.000353012
0.000353038
0.000352964
0.000352975
0.00035299
0.000353009
0.000352979
0.000352934
0.000352964
0.000352927
0.00035296
0.000352897
0.00035293
0.000352953
0.000352927
0.00035302
0.0003529
0.000352964
0.000352953
0.000352938
0.000352893
0.000352971
0.000352852
0.000352968
0.000352904
0.00035296
0.000352845
0.000352923
0.000352856
0.000352856
0.000352833
0.00035293
0.000352863
0.000352923
0.000352863
0.000352938
0.000352919
0.000352852
0.000352878
0.000352848
0.000352863
0.000352804
0.000352837
0.000352804
0.000352837
0.000352774
0.000346866
0.00034691
0.000346813
0.000346806
0.000346828
0.000346854
0.000346746
0.000346843
0.000346795
0.000346806
0.000346765
0.000346716
0.000346754
0.000346754
0.000346806
0.000346739
0.000346679
0.000346649
0.000346791
0.000346757
0.000346664
0.000346672
0.000346646
0.00034662
0.00034662
0.000346635
0.000346679
0.000346668
0.000346646
0.000346657
0.000346679
0.000346687
0.000346638
0.000346668
0.000346608
0.000346631
0.000346638
0.000346582
0.000346597
0.00034662
0.000346601
0.000346545
0.000346575
0.000346582
0.000346638
0.000346635
0.000346512
0.000346564
0.000346575
0.000346556
0.00034656
0.000346527
0.000346527
0.000346545
0.00034656
0.000346541
0.000346575
0.000346456
0.000346448
0.000346474
0.000346486
0.000346493
0.000346463
0.000346448
0.000346422
0.000346441
0.000346418
0.000346433
0.000346441
0.000346489
0.000346381
0.000346441
0.000346452
0.000346407
0.000346441
0.000346374
0.000346359
0.000346404
0.000346355
0.000346337
0.000346348
0.00034637
0.000346389
0.000346392
0.000346363
0.000346374
0.000346355
0.000346348
0.000346322
0.000346269
0.000346337
0.000346292
0.000346284
0.000346325
0.000346284
0.000346344
0.000346296
0.000346277
0.000346299
0.000346281
0.000346299
0.00034133
0.000341319
0.000341278
0.000341225
0.000341285
0.000341188
0.000341248
0.000341248
0.000341263
0.000341281
0.000341296
0.000341263
0.000341248
0.000341255
0.000341222
0.000341166
0.000341181
0.000341158
0.000341259
0.000341147
0.000341106
0.000341143
0.000341147
0.000341166
0.000341196
0.000341065
0.000341162
0.000341084
0.000341151
0.000341132
0.000341062
0.000341155
0.000341062
0.000341062
0.00034108
0.00034105
0.000341076
0.00034111
0.000341095
0.000340972
0.000341054
0.000340987
0.000341039
0.000340972
0.000340942
0.000340983
0.000340946
0.000341002
0.000340946
0.000341002
0.000341024
0.000340991
0.000341021
0.00034095
0.000340927
0.000340983
0.000340991
0.000340898
0.000340987
0.000340942
0.000340953
0.000340939
0.000340916
0.000340872
0.000341006
0.000340912
0.00034086
0.000340883
0.000340927
0.00034086
0.000340898
0.000340823
0.000340875
0.00034089
0.000340849
0.00034086
0.000340898
0.000340857
0.00034092
0.000340756
0.000340782
0.00034086
0.000340845
0.000340797
0.000340823
0.000340786
0.000340801
0.000340749
0.000340763
0.000340737
0.00034079
0.000340775
0.000340763
0.000340689
0.000340767
0.000340704
0.000340737
0.00034073
0.0003407
0.000340775
0.000340715
0.000338558
0.00033861
0.000338566
0.000338577
0.000338558
0.000338521
0.000338539
0.00033851
0.00033861
0.00033851
0.000338487
0.000338499
0.000338435
0.000338443
0.00033848
0.000338417
0.000338465
0.000338476
0.000338405
0.000338476
0.000338379
0.000338398
0.000338424
0.000338458
0.000338364
0.00033839
0.000338394
0.000338349
0.000338376
0.000338271
0.000338364
0.00033832
0.000338379
0.000338297
0.000338349
0.000338364
0.000338316
0.000338279
0.000338223
0.000338282
0.000338301
0.000338264
0.000338241
0.000338316
0.000338286
0.000338253
0.000338219
0.000338271
0.000338193
0.000338249
0.000338227
0.000338215
0.000338193
0.000338182
0.000338238
0.000338238
0.000338223
0.000338186
0.000338156
0.000338156
0.000338156
0.00033816
0.000338126
0.00033813
0.00033813
0.00033813
0.000338089
0.000338107
0.000338141
0.000338119
0.000338156
0.000338193
0.000338122
0.000338074
0.000338085
0.000338111
0.000338085
0.000338167
0.000338126
0.000338059
0.000338066
0.00033807
0.000337999
0.000338115
0.000338066
0.000338033
0.000338059
0.000338025
0.000338003
0.000338014
0.000338022
0.000338033
0.000338055
0.000338074
0.000337973
0.000338033
0.000337984
0.000337962
0.00033804
0.00033797
0.000338014
0.0003387
0.000338733
0.000338711
0.000338692
0.000338718
0.000338696
0.000338718
0.000338651
0.000338629
0.000338566
0.000338655
0.000338636
0.000338621
0.00033864
0.000338588
0.000338558
0.000338562
0.000338476
0.00033858
0.000338495
0.000338472
0.000338525
0.000338525
0.000338443
0.000338443
0.000338472
0.000338428
0.000338409
0.000338357
0.000338387
0.000338394
0.000338443
0.000338394
0.000338379
0.000338335
0.000338353
0.000338342
0.000338394
0.000338301
0.000338309
0.00033832
0.000338286
0.00033829
0.00033829
0.000338234
0.000338335
0.000338189
0.00033829
0.000338305
0.00033832
0.000338275
0.000338219
0.000338245
0.000338223
0.00033823
0.00033826
0.000338189
0.000338178
0.000338193
0.000338238
0.000338145
0.000338167
0.000338174
0.000338148
0.000338111
0.000338182
0.000338193
0.000338115
0.000338186
0.000338141
0.00033816
0.000338115
0.000338089
0.00033807
0.000338081
0.000338111
0.000338081
0.000338096
0.000338059
0.000338089
0.000338092
0.000338074
0.000338029
0.000337977
0.000338014
0.00033804
0.00033804
0.000337984
0.000338029
0.000337984
0.00033804
0.00033801
0.00033797
0.000338014
0.000337984
0.00033797
0.000338014
0.000337902
0.00033797
0.000337947
0.000337966
0.000340462
0.000340495
0.000340562
0.000340398
0.000340421
0.000340458
0.000340443
0.000340424
0.000340406
0.000340346
0.000340398
0.000340369
0.000340335
0.000340339
0.000340316
0.000340313
0.000340268
0.000340242
0.000340264
0.000340257
0.000340212
0.000340208
0.000340194
0.000340205
0.000340123
0.000340093
0.000340153
0.000340071
0.000339996
0.000340123
0.000340108
0.000340078
0.000340018
0.000339985
0.000340041
0.000340018
0.000339977
0.000339996
0.000339948
0.00033994
0.000340015
0.000339966
0.000339907
0.000339936
0.000339914
0.000339907
0.000339892
0.000339884
0.000339933
0.000339918
0.000339825
0.000339776
0.000339817
0.000339869
0.000339821
0.000339765
0.000339776
0.000339638
0.000339732
0.000339743
0.000339728
0.000339691
0.000339638
0.000339616
0.000339717
0.000339687
0.000339609
0.000339609
0.000339605
0.00033972
0.000339594
0.000339691
0.000339661
0.000339594
0.000339597
0.000339579
0.000339564
0.000339504
0.000339571
0.000339489
0.00033953
0.000339501
0.000339501
0.000339549
0.000339478
0.000339519
0.000339463
0.000339519
0.000339385
0.000339456
0.000339407
0.0003394
0.000339419
0.000339471
0.00033943
0.00033943
0.000339355
0.000339411
0.000339329
0.000339378
0.00033937
0.000342075
0.000342071
0.000341993
0.000341963
0.000342019
0.000341948
0.000341907
0.000341889
0.000341829
0.000341866
0.000341836
0.000341773
0.000341799
0.000341769
0.000341665
0.000341687
0.000341691
0.000341661
0.000341661
0.000341598
0.000341624
0.000341643
0.000341576
0.000341598
0.000341568
0.000341453
0.00034146
0.000341464
0.000341564
0.000341471
0.000341423
0.000341468
0.000341352
0.000341397
0.000341322
0.000341255
0.000341285
0.000341203
0.000341263
0.000341233
0.000341218
0.000341188
0.000341091
0.000341117
0.000341188
0.000341136
0.000341166
0.000341177
0.000341047
0.000341151
0.000341099
0.00034105
0.000340991
0.000340998
0.000340901
0.000340983
0.000340909
0.000340857
0.000340872
0.000340905
0.000340842
0.000340883
0.00034089
0.000340845
0.00034086
0.000340793
0.000340786
0.000340763
0.000340771
0.000340778
0.000340719
0.0003407
0.000340682
0.00034067
0.000340637
0.0003407
0.000340629
0.000340618
0.000340592
0.000340547
0.000340555
0.000340633
0.000340521
0.000340484
0.000340551
0.000340473
0.00034048
0.000340424
0.000340413
0.000340398
0.000340391
0.000340331
0.000340413
0.000340369
0.000340339
0.000340376
0.000340313
0.000340335
0.000340313
0.000340283
0.000340331
0.000341412
0.000341382
0.00034133
0.000341348
0.000341259
0.000341292
0.000341237
0.000341237
0.000341129
0.000341099
0.000341136
0.000341162
0.000341058
0.000341065
0.000341032
0.000340875
0.000340916
0.000340965
0.00034079
0.000340834
0.000340793
0.000340752
0.000340786
0.000340719
0.000340708
0.000340644
0.000340652
0.000340607
0.000340592
0.000340592
0.000340533
0.000340473
0.00034051
0.000340398
0.000340391
0.000340365
0.000340287
0.000340339
0.00034022
0.000340294
0.000340302
0.00034029
0.000340261
0.000340171
0.000340227
0.000340167
0.000340112
0.000340115
0.000340112
0.000340108
0.000340071
0.000339948
0.000339996
0.00033994
0.000339959
0.000339817
0.000339817
0.000339862
0.000339754
0.000339732
0.000339679
0.000339769
0.000339713
0.000339732
0.000339698
0.000339691
0.000339545
0.000339568
0.000339605
0.000339545
0.000339489
0.000339471
0.000339501
0.000339482
0.000339501
0.000339475
0.000339467
0.000339415
0.000339318
0.000339352
0.000339318
0.000339307
0.000339381
0.000339277
0.000339229
0.000339158
0.000339117
0.000339132
0.000339124
0.000339147
0.000339106
0.000339087
0.000339027
0.000339068
0.000339061
0.000339054
0.000338983
0.000338979
0.000338946
0.000338972
0.000338905
0.000336923
0.000336889
0.000336923
0.000336856
0.000336871
0.000336677
0.00033674
0.000336707
0.000336632
0.000336654
0.000336505
0.000336487
0.000336539
0.000336412
0.000336323
0.00033633
0.000336327
0.000336252
0.000336226
0.000336207
0.000336181
0.000336111
0.000336062
0.000335991
0.000336025
0.000335917
0.000335902
0.000335906
0.000335801
0.000335839
0.000335779
0.000335708
0.000335708
0.000335675
0.000335675
0.000335541
0.000335589
0.000335544
0.000335451
0.000335447
0.00033547
0.000335407
0.000335261
0.00033528
0.000335332
0.000335231
0.000335202
0.000335068
0.000335123
0.000335149
0.000335075
0.000334997
0.00033503
0.000334997
0.000334911
0.000334982
0.000334911
0.000334844
0.000334814
0.000334837
0.000334729
0.000334762
0.000334721
0.000334613
0.000334602
0.00033462
0.00033452
0.00033449
0.00033449
0.000334505
0.000334501
0.000334457
0.000334378
0.000334311
0.000334363
0.000334304
0.000334267
0.00033427
0.000334192
0.000334188
0.000334073
0.000334177
0.000334103
0.000334024
0.000333954
0.000334051
0.000334024
0.000333898
0.000333946
0.000333901
0.000333842
0.000333983
0.000333846
0.000333767
0.000333805
0.000333767
0.000333685
0.000333652
0.000333659
0.000333697
0.000333618
0.000327379
0.000327263
0.000327293
0.000327189
0.000327177
0.00032711
0.000327062
0.000327092
0.000327043
0.000326924
0.000326905
0.000326838
0.000326749
0.000326689
0.000326652