/*--------------------------------*- C++ -*----------------------------------*\
| =========                 |                                                 |
| \\      /  F ield         | OpenFOAM: The Open Source CFD Toolbox           |
|  \\    /   O peration     | Version:  v2006                                 |
|   \\  /    A nd           | Website:  www.openfoam.com                      |
|    \\/     M anipulation  |                                                 |
\*---------------------------------------------------------------------------*/
FoamFile
{
    version     2.0;
    format      ascii;
    class       volScalarField;
    location    "16.6";
    object      p_rgh;
}
// * * * * * * * * * * * * * * * * * * * * * * * * * * * * * * * * * * * * * //

dimensions      [1 -1 -2 0 0 0 0];


internalField   nonuniform List<scalar> 
50000
(
2219.26
2219.61
2220.26
2221.22
2222.51
2224.11
2226.04
2228.28
2230.84
2233.72
2236.9
2240.39
2244.19
2248.28
2252.67
2257.35
2262.32
2267.56
2273.07
2278.86
2284.9
2291.19
2297.73
2304.5
2311.49
2318.71
2326.13
2333.75
2341.58
2349.58
2357.75
2366.09
2374.58
2383.22
2391.98
2400.85
2409.83
2418.9
2428.06
2437.28
2446.57
2455.91
2465.27
2474.66
2484.06
2493.45
2502.83
2512.18
2521.5
2530.76
2539.97
2549.11
2558.16
2567.12
2575.97
2584.71
2593.32
2601.81
2610.14
2618.33
2626.34
2634.19
2641.86
2649.33
2656.61
2663.69
2670.55
2677.2
2683.62
2689.82
2695.78
2701.49
2706.97
2712.19
2717.17
2721.89
2726.35
2730.55
2734.49
2738.17
2741.58
2744.74
2747.63
2750.25
2752.62
2754.72
2756.57
2758.16
2759.5
2760.59
2761.43
2762.04
2762.41
2762.54
2762.46
2762.14
2761.62
2760.88
2759.94
2758.81
2757.48
2755.97
2754.29
2752.44
2750.42
2748.26
2745.95
2743.52
2740.96
2738.29
2735.51
2732.65
2729.71
2726.69
2723.61
2720.47
2717.28
2714.06
2710.81
2707.54
2704.27
2701
2697.74
2694.5
2691.29
2688.12
2685
2681.94
2678.94
2676.02
2673.18
2670.43
2667.78
2665.24
2662.81
2660.5
2658.31
2656.26
2654.34
2652.57
2650.94
2649.46
2648.14
2646.98
2645.98
2645.14
2644.47
2643.97
2643.62
2643.45
2218.61
2218.97
2219.62
2220.59
2221.87
2223.48
2225.41
2227.66
2230.23
2233.11
2236.31
2239.81
2243.61
2247.71
2252.11
2256.81
2261.78
2267.04
2272.57
2278.36
2284.42
2290.73
2297.28
2304.07
2311.08
2318.31
2325.74
2333.38
2341.23
2349.25
2357.43
2365.79
2374.31
2382.96
2391.74
2400.63
2409.62
2418.71
2427.88
2437.12
2446.45
2455.81
2465.21
2474.62
2484.04
2493.46
2502.87
2512.25
2521.59
2530.88
2540.11
2549.27
2558.35
2567.33
2576.21
2584.96
2593.6
2602.09
2610.44
2618.64
2626.67
2634.54
2642.22
2649.71
2657
2664.09
2670.97
2677.63
2684.06
2690.26
2696.23
2701.96
2707.44
2712.67
2717.65
2722.38
2726.84
2731.05
2734.99
2738.67
2742.09
2745.24
2748.13
2750.75
2753.11
2755.21
2757.05
2758.64
2759.97
2761.06
2761.89
2762.49
2762.85
2762.97
2762.87
2762.54
2762
2761.25
2760.3
2759.15
2757.82
2756.3
2754.6
2752.73
2750.7
2748.52
2746.2
2743.74
2741.16
2738.47
2735.67
2732.79
2729.83
2726.8
2723.7
2720.54
2717.34
2714.1
2710.83
2707.55
2704.26
2700.97
2697.69
2694.43
2691.21
2688.02
2684.88
2681.81
2678.79
2675.86
2673
2670.24
2667.58
2665.02
2662.58
2660.26
2658.06
2656
2654.07
2652.29
2650.65
2649.17
2647.84
2646.67
2645.66
2644.82
2644.14
2643.62
2643.29
2643.12
2217.35
2217.71
2218.36
2219.34
2220.63
2222.25
2224.19
2226.45
2229.03
2231.92
2235.13
2238.65
2242.47
2246.59
2251.01
2255.72
2260.72
2266
2271.56
2277.38
2283.47
2289.81
2296.4
2303.22
2310.28
2317.56
2325.07
2332.77
2340.64
2348.71
2356.96
2365.36
2373.89
2382.58
2391.39
2400.33
2409.37
2418.51
2427.73
2437.02
2446.35
2455.74
2465.16
2474.61
2484.08
2493.54
2502.98
2512.4
2521.78
2531.1
2540.37
2549.57
2558.68
2567.7
2576.61
2585.42
2594.1
2602.63
2611.02
2619.26
2627.33
2635.22
2642.93
2650.46
2657.78
2664.89
2671.8
2678.48
2684.94
2691.16
2697.15
2702.89
2708.39
2713.63
2718.62
2723.36
2727.83
2732.04
2735.99
2739.67
2743.09
2746.24
2749.12
2751.74
2754.1
2756.19
2758.03
2759.6
2760.92
2761.99
2762.81
2763.39
2763.73
2763.83
2763.71
2763.36
2762.8
2762.02
2761.04
2759.86
2758.5
2756.94
2755.21
2753.31
2751.26
2749.05
2746.7
2744.22
2741.61
2738.9
2736.09
2733.18
2730.17
2727.1
2723.95
2720.74
2717.5
2714.21
2710.9
2707.58
2704.25
2700.92
2697.61
2694.31
2691.05
2687.83
2684.66
2681.55
2678.51
2675.54
2672.65
2669.86
2667.17
2664.59
2662.12
2659.77
2657.55
2655.46
2653.52
2651.72
2650.06
2648.56
2647.22
2646.04
2645.02
2644.17
2643.48
2642.97
2642.62
2642.45
2215.44
2215.8
2216.46
2217.45
2218.75
2220.38
2222.34
2224.61
2227.21
2230.12
2233.35
2236.89
2240.74
2244.89
2249.34
2254.09
2259.12
2264.43
2270.03
2275.89
2282.02
2288.4
2295.04
2301.92
2309.03
2316.36
2323.91
2331.66
2339.6
2347.73
2356.03
2364.49
2373.1
2381.84
2390.72
2399.72
2408.82
2418.02
2427.31
2436.66
2446.07
2455.53
2465.02
2474.54
2484.06
2493.59
2503.1
2512.58
2522.04
2531.44
2540.78
2550.04
2559.22
2568.3
2577.28
2586.14
2594.87
2603.46
2611.91
2620.2
2628.32
2636.26
2644.02
2651.58
2658.95
2666.11
2673.05
2679.76
2686.25
2692.51
2698.52
2704.29
2709.81
2715.07
2720.08
2724.83
2729.32
2733.54
2737.49
2741.18
2744.6
2747.75
2750.63
2753.24
2755.59
2757.67
2759.49
2761.05
2762.35
2763.4
2764.2
2764.75
2765.06
2765.13
2764.98
2764.59
2763.99
2763.18
2762.16
2760.94
2759.53
2757.93
2756.16
2754.21
2752.11
2749.85
2747.45
2744.91
2742.25
2739.47
2736.59
2733.61
2730.54
2727.41
2724.22
2720.97
2717.68
2714.35
2710.99
2707.61
2704.23
2700.85
2697.48
2694.14
2690.82
2687.55
2684.33
2681.17
2678.07
2675.06
2672.13
2669.29
2666.56
2663.93
2661.42
2659.04
2656.78
2654.66
2652.68
2650.85
2649.17
2647.65
2646.28
2645.08
2644.05
2643.18
2642.48
2641.96
2641.61
2641.44
2212.88
2213.25
2213.92
2214.92
2216.24
2217.89
2219.86
2222.16
2224.78
2227.72
2230.98
2234.55
2238.43
2242.62
2247.11
2251.9
2256.97
2262.34
2267.98
2273.9
2280.08
2286.53
2293.23
2300.17
2307.35
2314.75
2322.37
2330.2
2338.22
2346.42
2354.8
2363.34
2372.04
2380.88
2389.84
2398.93
2408.13
2417.42
2426.79
2436.24
2445.74
2455.29
2464.87
2474.48
2484.1
2493.72
2503.32
2512.9
2522.43
2531.91
2541.33
2550.68
2559.94
2569.1
2578.16
2587.1
2595.91
2604.57
2613.09
2621.45
2629.64
2637.65
2645.47
2653.09
2660.52
2667.73
2674.72
2681.48
2688.01
2694.31
2700.36
2706.16
2711.71
2717.01
2722.04
2726.81
2731.31
2735.54
2739.51
2743.2
2746.62
2749.77
2752.64
2755.25
2757.58
2759.65
2761.45
2762.99
2764.26
2765.28
2766.05
2766.57
2766.84
2766.87
2766.67
2766.25
2765.6
2764.73
2763.66
2762.38
2760.91
2759.25
2757.42
2755.41
2753.24
2750.92
2748.45
2745.85
2743.12
2740.28
2737.33
2734.29
2731.16
2727.95
2724.68
2721.35
2717.98
2714.57
2711.13
2707.68
2704.22
2700.76
2697.32
2693.9
2690.52
2687.18
2683.89
2680.66
2677.5
2674.42
2671.43
2668.53
2665.74
2663.06
2660.49
2658.06
2655.75
2653.59
2651.57
2649.7
2647.98
2646.42
2645.03
2643.8
2642.74
2641.86
2641.14
2640.61
2640.25
2640.07
2209.66
2210.04
2210.72
2211.74
2213.08
2214.75
2216.75
2219.07
2221.73
2224.71
2228
2231.62
2235.54
2239.77
2244.31
2249.15
2254.28
2259.7
2265.41
2271.39
2277.65
2284.17
2290.95
2297.98
2305.24
2312.73
2320.44
2328.36
2336.47
2344.78
2353.26
2361.9
2370.71
2379.65
2388.73
2397.92
2407.23
2416.63
2426.12
2435.67
2445.29
2454.95
2464.65
2474.37
2484.1
2493.83
2503.54
2513.24
2522.89
2532.48
2542.01
2551.47
2560.84
2570.11
2579.27
2588.3
2597.21
2605.97
2614.58
2623.03
2631.3
2639.39
2647.29
2654.99
2662.49
2669.76
2676.82
2683.64
2690.23
2696.58
2702.67
2708.52
2714.11
2719.43
2724.5
2729.29
2733.81
2738.06
2742.03
2745.73
2749.16
2752.3
2755.17
2757.76
2760.08
2762.13
2763.91
2765.42
2766.66
2767.65
2768.37
2768.85
2769.07
2769.06
2768.8
2768.32
2767.61
2766.68
2765.54
2764.19
2762.65
2760.92
2759.01
2756.92
2754.67
2752.26
2749.71
2747.02
2744.21
2741.27
2738.23
2735.1
2731.87
2728.57
2725.21
2721.79
2718.32
2714.81
2711.28
2707.74
2704.19
2700.64
2697.11
2693.6
2690.12
2686.7
2683.32
2680.01
2676.77
2673.61
2670.54
2667.57
2664.7
2661.95
2659.33
2656.83
2654.46
2652.24
2650.17
2648.24
2646.48
2644.88
2643.45
2642.19
2641.1
2640.19
2639.46
2638.91
2638.55
2638.36
2205.76
2206.16
2206.86
2207.9
2209.26
2210.96
2212.99
2215.36
2218.05
2221.07
2224.42
2228.08
2232.05
2236.34
2240.94
2245.83
2251.03
2256.53
2262.31
2268.38
2274.72
2281.33
2288.2
2295.33
2302.69
2310.29
2318.11
2326.14
2334.37
2342.8
2351.4
2360.17
2369.1
2378.17
2387.38
2396.71
2406.15
2415.69
2425.31
2435.01
2444.76
2454.57
2464.4
2474.26
2484.14
2494.01
2503.86
2513.68
2523.46
2533.18
2542.85
2552.43
2561.93
2571.32
2580.6
2589.76
2598.78
2607.66
2616.38
2624.93
2633.31
2641.5
2649.49
2657.29
2664.86
2672.22
2679.35
2686.25
2692.91
2699.31
2705.47
2711.36
2717
2722.37
2727.46
2732.28
2736.83
2741.1
2745.09
2748.79
2752.22
2755.36
2758.22
2760.8
2763.1
2765.13
2766.88
2768.35
2769.56
2770.5
2771.18
2771.6
2771.77
2771.69
2771.37
2770.82
2770.03
2769.03
2767.81
2766.38
2764.75
2762.93
2760.92
2758.74
2756.39
2753.89
2751.23
2748.44
2745.52
2742.48
2739.33
2736.08
2732.75
2729.34
2725.86
2722.32
2718.74
2715.12
2711.47
2707.81
2704.15
2700.49
2696.84
2693.23
2689.64
2686.11
2682.63
2679.21
2675.88
2672.62
2669.46
2666.4
2663.45
2660.61
2657.91
2655.33
2652.89
2650.61
2648.47
2646.49
2644.67
2643.02
2641.55
2640.25
2639.13
2638.19
2637.43
2636.87
2636.49
2636.3
2201.2
2201.58
2202.3
2203.37
2204.77
2206.51
2208.59
2211
2213.74
2216.82
2220.21
2223.93
2227.97
2232.31
2236.98
2241.95
2247.22
2252.8
2258.67
2264.83
2271.28
2278
2284.98
2292.22
2299.7
2307.42
2315.37
2323.54
2331.91
2340.47
2349.22
2358.14
2367.22
2376.44
2385.81
2395.29
2404.89
2414.58
2424.37
2434.22
2444.14
2454.1
2464.1
2474.13
2484.16
2494.19
2504.2
2514.18
2524.12
2534.01
2543.83
2553.56
2563.21
2572.75
2582.18
2591.48
2600.64
2609.65
2618.5
2627.17
2635.67
2643.98
2652.09
2659.98
2667.66
2675.12
2682.34
2689.32
2696.05
2702.53
2708.75
2714.71
2720.4
2725.81
2730.95
2735.81
2740.38
2744.67
2748.67
2752.39
2755.82
2758.96
2761.81
2764.37
2766.65
2768.65
2770.36
2771.8
2772.96
2773.85
2774.47
2774.83
2774.93
2774.78
2774.39
2773.75
2772.88
2771.79
2770.47
2768.94
2767.21
2765.29
2763.17
2760.88
2758.41
2755.79
2753.02
2750.1
2747.05
2743.89
2740.61
2737.23
2733.77
2730.22
2726.61
2722.94
2719.22
2715.46
2711.68
2707.89
2704.09
2700.3
2696.52
2692.78
2689.07
2685.41
2681.81
2678.27
2674.82
2671.45
2668.18
2665.01
2661.96
2659.03
2656.23
2653.56
2651.04
2648.67
2646.46
2644.42
2642.54
2640.83
2639.3
2637.96
2636.8
2635.83
2635.05
2634.46
2634.07
2633.87
2195.91
2196.29
2197.04
2198.14
2199.59
2201.39
2203.52
2205.99
2208.79
2211.93
2215.39
2219.17
2223.27
2227.68
2232.42
2237.47
2242.83
2248.5
2254.48
2260.76
2267.31
2274.15
2281.26
2288.64
2296.26
2304.13
2312.23
2320.55
2329.07
2337.8
2346.71
2355.8
2365.05
2374.45
2383.99
2393.66
2403.44
2413.31
2423.28
2433.32
2443.43
2453.58
2463.77
2473.98
2484.19
2494.41
2504.61
2514.77
2524.89
2534.96
2544.96
2554.87
2564.69
2574.4
2583.99
2593.46
2602.77
2611.94
2620.94
2629.76
2638.4
2646.84
2655.07
2663.09
2670.89
2678.45
2685.78
2692.86
2699.68
2706.24
2712.54
2718.57
2724.31
2729.78
2734.97
2739.87
2744.47
2748.79
2752.81
2756.53
2759.97
2763.1
2765.94
2768.49
2770.74
2772.7
2774.38
2775.77
2776.88
2777.71
2778.26
2778.55
2778.58
2778.35
2777.86
2777.13
2776.16
2774.96
2773.54
2771.9
2770.05
2768
2765.76
2763.34
2760.74
2757.98
2755.07
2752.01
2748.82
2745.51
2742.08
2738.55
2734.94
2731.24
2727.47
2723.64
2719.77
2715.86
2711.92
2707.97
2704.02
2700.07
2696.15
2692.25
2688.4
2684.59
2680.85
2677.18
2673.59
2670.09
2666.69
2663.4
2660.23
2657.19
2654.28
2651.51
2648.89
2646.44
2644.14
2642.01
2640.06
2638.29
2636.71
2635.31
2634.11
2633.1
2632.29
2631.68
2631.27
2631.07
2189.88
2190.27
2191.04
2192.19
2193.7
2195.56
2197.77
2200.32
2203.2
2206.4
2209.93
2213.78
2217.95
2222.44
2227.25
2232.39
2237.85
2243.62
2249.72
2256.12
2262.81
2269.79
2277.04
2284.57
2292.36
2300.39
2308.66
2317.15
2325.86
2334.77
2343.87
2353.15
2362.6
2372.2
2381.94
2391.81
2401.79
2411.88
2422.05
2432.3
2442.62
2452.98
2463.38
2473.8
2484.24
2494.66
2505.07
2515.44
2525.77
2536.04
2546.24
2556.36
2566.37
2576.28
2586.06
2595.71
2605.2
2614.54
2623.71
2632.7
2641.5
2650.09
2658.47
2666.63
2674.56
2682.25
2689.69
2696.88
2703.8
2710.46
2716.84
2722.95
2728.77
2734.3
2739.53
2744.48
2749.12
2753.46
2757.5
2761.24
2764.67
2767.8
2770.63
2773.16
2775.38
2777.31
2778.94
2780.27
2781.32
2782.08
2782.57
2782.77
2782.71
2782.39
2781.8
2780.96
2779.88
2778.56
2777.02
2775.25
2773.26
2771.08
2768.69
2766.12
2763.38
2760.46
2757.39
2754.17
2750.82
2747.34
2743.75
2740.05
2736.25
2732.38
2728.44
2724.43
2720.38
2716.3
2712.18
2708.06
2703.93
2699.81
2695.71
2691.65
2687.62
2683.65
2679.75
2675.92
2672.18
2668.53
2664.99
2661.56
2658.25
2655.08
2652.05
2649.17
2646.44
2643.88
2641.49
2639.27
2637.24
2635.4
2633.75
2632.29
2631.04
2629.99
2629.14
2628.51
2628.08
2627.87
2183.07
2183.48
2184.28
2185.48
2187.05
2189.01
2191.32
2193.97
2196.95
2200.24
2203.84
2207.75
2211.99
2216.56
2221.45
2226.68
2232.25
2238.13
2244.37
2250.91
2257.75
2264.89
2272.31
2280.01
2287.97
2296.19
2304.66
2313.35
2322.26
2331.38
2340.69
2350.19
2359.85
2369.67
2379.64
2389.73
2399.95
2410.27
2420.68
2431.17
2441.72
2452.32
2462.96
2473.62
2484.29
2494.95
2505.59
2516.2
2526.76
2537.27
2547.69
2558.03
2568.27
2578.39
2588.38
2598.24
2607.94
2617.47
2626.83
2636.01
2644.98
2653.74
2662.29
2670.6
2678.68
2686.51
2694.08
2701.39
2708.43
2715.2
2721.68
2727.87
2733.77
2739.37
2744.66
2749.66
2754.34
2758.71
2762.78
2766.53
2769.96
2773.08
2775.9
2778.4
2780.59
2782.47
2784.05
2785.33
2786.31
2786.99
2787.39
2787.51
2787.35
2786.92
2786.22
2785.26
2784.05
2782.6
2780.92
2779
2776.87
2774.53
2771.98
2769.25
2766.33
2763.24
2760
2756.6
2753.06
2749.39
2745.61
2741.71
2737.73
2733.66
2729.52
2725.32
2721.07
2716.78
2712.47
2708.14
2703.82
2699.5
2695.21
2690.95
2686.74
2682.59
2678.5
2674.5
2670.58
2666.76
2663.06
2659.47
2656.02
2652.7
2649.53
2646.52
2643.67
2640.99
2638.49
2636.18
2634.06
2632.13
2630.4
2628.88
2627.57
2626.48
2625.59
2624.93
2624.49
2624.27
2175.48
2175.87
2176.7
2177.94
2179.6
2181.67
2184.14
2186.95
2190.06
2193.44
2197.11
2201.08
2205.38
2210.01
2215
2220.33
2226.02
2232.07
2238.42
2245.11
2252.12
2259.43
2267.04
2274.94
2283.11
2291.53
2300.21
2309.12
2318.26
2327.61
2337.16
2346.89
2356.8
2366.87
2377.09
2387.44
2397.91
2408.48
2419.16
2429.91
2440.72
2451.59
2462.49
2473.41
2484.35
2495.27
2506.18
2517.05
2527.87
2538.63
2549.31
2559.9
2570.38
2580.74
2590.97
2601.06
2610.98
2620.74
2630.31
2639.69
2648.86
2657.81
2666.54
2675.03
2683.27
2691.26
2698.98
2706.42
2713.59
2720.47
2727.06
2733.35
2739.33
2745.01
2750.37
2755.42
2760.15
2764.56
2768.64
2772.4
2775.84
2778.96
2781.75
2784.22
2786.38
2788.21
2789.73
2790.95
2791.85
2792.45
2792.76
2792.77
2792.5
2791.95
2791.13
2790.04
2788.69
2787.09
2785.25
2783.17
2780.87
2778.36
2775.63
2772.72
2769.61
2766.33
2762.88
2759.28
2755.54
2751.66
2747.67
2743.56
2739.36
2735.07
2730.71
2726.29
2721.81
2717.3
2712.77
2708.23
2703.68
2699.15
2694.64
2690.17
2685.75
2681.39
2677.1
2672.89
2668.78
2664.78
2660.89
2657.13
2653.51
2650.03
2646.71
2643.55
2640.57
2637.76
2635.14
2632.72
2630.49
2628.47
2626.66
2625.07
2623.7
2622.55
2621.63
2620.93
2620.47
2620.24
2166.99
2167.43
2168.26
2169.54
2171.26
2173.51
2176.22
2179.26
2182.53
2186.01
2189.73
2193.74
2198.07
2202.77
2207.84
2213.29
2219.12
2225.29
2231.82
2238.69
2245.89
2253.4
2261.23
2269.34
2277.73
2286.4
2295.31
2304.47
2313.86
2323.46
2333.27
2343.27
2353.45
2363.79
2374.28
2384.91
2395.66
2406.52
2417.48
2428.52
2439.63
2450.78
2461.98
2473.19
2484.42
2495.64
2506.83
2517.99
2529.1
2540.14
2551.1
2561.96
2572.72
2583.35
2593.84
2604.18
2614.35
2624.35
2634.16
2643.76
2653.15
2662.32
2671.25
2679.93
2688.35
2696.51
2704.39
2711.99
2719.3
2726.31
2733.01
2739.41
2745.49
2751.24
2756.68
2761.79
2766.57
2771.01
2775.12
2778.9
2782.34
2785.45
2788.22
2790.66
2792.77
2794.55
2796.01
2797.15
2797.97
2798.48
2798.68
2798.58
2798.19
2797.5
2796.54
2795.3
2793.8
2792.03
2790.02
2787.77
2785.28
2782.58
2779.66
2776.54
2773.22
2769.73
2766.07
2762.24
2758.27
2754.17
2749.94
2745.59
2741.15
2736.62
2732.01
2727.35
2722.63
2717.87
2713.09
2708.3
2703.51
2698.74
2693.99
2689.28
2684.63
2680.04
2675.53
2671.1
2666.78
2662.57
2658.48
2654.52
2650.72
2647.06
2643.57
2640.25
2637.11
2634.16
2631.41
2628.86
2626.53
2624.41
2622.51
2620.84
2619.39
2618.19
2617.22
2616.49
2616
2615.76
2157.67
2158.17
2158.99
2160.29
2162.12
2164.58
2167.58
2170.92
2174.39
2177.96
2181.68
2185.67
2190.01
2194.75
2199.91
2205.5
2211.47
2217.81
2224.53
2231.61
2239.03
2246.78
2254.84
2263.2
2271.85
2280.77
2289.95
2299.38
2309.04
2318.92
2329.02
2339.3
2349.77
2360.41
2371.21
2382.14
2393.2
2404.38
2415.65
2427.01
2438.43
2449.91
2461.42
2472.96
2484.5
2496.04
2507.56
2519.03
2530.45
2541.8
2553.07
2564.24
2575.29
2586.21
2596.99
2607.61
2618.06
2628.33
2638.39
2648.25
2657.88
2667.27
2676.42
2685.31
2693.93
2702.28
2710.34
2718.1
2725.57
2732.72
2739.55
2746.06
2752.25
2758.1
2763.61
2768.78
2773.61
2778.1
2782.24
2786.03
2789.47
2792.57
2795.32
2797.72
2799.79
2801.51
2802.9
2803.95
2804.68
2805.08
2805.17
2804.95
2804.42
2803.59
2802.47
2801.07
2799.4
2797.45
2795.25
2792.8
2790.12
2787.2
2784.07
2780.72
2777.18
2773.45
2769.55
2765.48
2761.26
2756.9
2752.41
2747.81
2743.1
2738.31
2733.43
2728.5
2723.51
2718.48
2713.43
2708.37
2703.31
2698.27
2693.26
2688.29
2683.38
2678.54
2673.78
2669.11
2664.55
2660.11
2655.8
2651.63
2647.62
2643.77
2640.09
2636.59
2633.29
2630.18
2627.29
2624.6
2622.14
2619.91
2617.91
2616.15
2614.64
2613.37
2612.35
2611.58
2611.07
2610.81
2147.41
2147.89
2148.73
2150
2151.93
2154.66
2158.04
2161.75
2165.5
2169.14
2172.81
2176.72
2181.03
2185.81
2191.12
2196.85
2203.01
2209.57
2216.53
2223.85
2231.53
2239.54
2247.87
2256.5
2265.43
2274.63
2284.1
2293.83
2303.79
2313.98
2324.38
2334.99
2345.78
2356.74
2367.87
2379.13
2390.53
2402.05
2413.66
2425.36
2437.13
2448.96
2460.82
2472.71
2484.6
2496.49
2508.35
2520.17
2531.94
2543.63
2555.23
2566.73
2578.11
2589.35
2600.45
2611.37
2622.12
2632.68
2643.02
2653.15
2663.05
2672.69
2682.08
2691.2
2700.05
2708.6
2716.85
2724.8
2732.43
2739.73
2746.71
2753.34
2759.64
2765.59
2771.19
2776.43
2781.32
2785.85
2790.02
2793.82
2797.27
2800.35
2803.07
2805.44
2807.45
2809.1
2810.41
2811.38
2812
2812.29
2812.25
2811.89
2811.21
2810.23
2808.94
2807.36
2805.5
2803.36
2800.96
2798.29
2795.38
2792.24
2788.87
2785.28
2781.49
2777.5
2773.34
2769
2764.51
2759.88
2755.11
2750.22
2745.22
2740.14
2734.97
2729.74
2724.45
2719.13
2713.79
2708.43
2703.08
2697.74
2692.44
2687.19
2681.99
2676.87
2671.84
2666.91
2662.09
2657.4
2652.85
2648.45
2644.21
2640.14
2636.26
2632.57
2629.08
2625.8
2622.74
2619.92
2617.32
2614.97
2612.86
2611
2609.4
2608.06
2606.99
2606.18
2605.64
2605.37
2135.66
2136.1
2136.75
2137.61
2139.33
2142.17
2146.09
2150.57
2155.02
2159.03
2162.65
2166.46
2170.78
2175.74
2181.21
2187.21
2193.65
2200.51
2207.76
2215.38
2223.35
2231.66
2240.29
2249.23
2258.46
2267.98
2277.77
2287.81
2298.1
2308.62
2319.36
2330.31
2341.45
2352.77
2364.25
2375.87
2387.64
2399.52
2411.51
2423.58
2435.73
2447.93
2460.17
2472.44
2484.72
2496.98
2509.22
2521.42
2533.56
2545.62
2557.59
2569.45
2581.18
2592.78
2604.21
2615.47
2626.55
2637.42
2648.08
2658.5
2668.68
2678.6
2688.26
2697.63
2706.71
2715.48
2723.95
2732.09
2739.9
2747.37
2754.5
2761.27
2767.69
2773.75
2779.44
2784.76
2789.71
2794.28
2798.48
2802.3
2805.74
2808.81
2811.51
2813.83
2815.78
2817.36
2818.59
2819.45
2819.96
2820.13
2819.95
2819.44
2818.6
2817.44
2815.97
2814.2
2812.13
2809.77
2807.14
2804.25
2801.1
2797.7
2794.08
2790.22
2786.16
2781.9
2777.45
2772.82
2768.03
2763.1
2758.02
2752.82
2747.52
2742.11
2736.63
2731.07
2725.47
2719.82
2714.15
2708.47
2702.79
2697.14
2691.52
2685.95
2680.45
2675.03
2669.7
2664.48
2659.38
2654.41
2649.6
2644.94
2640.45
2636.15
2632.05
2628.14
2624.46
2620.99
2617.76
2614.77
2612.03
2609.54
2607.32
2605.36
2603.67
2602.25
2601.11
2600.26
2599.69
2599.41
2121.53
2121.63
2121.24
2120.85
2121.74
2124.51
2129.19
2135.11
2141.13
2147.36
2152.32
2154.94
2158.74
2163.92
2169.88
2176.4
2183.31
2190.57
2198.19
2206.16
2214.48
2223.13
2232.1
2241.37
2250.94
2260.8
2270.93
2281.32
2291.97
2302.85
2313.95
2325.26
2336.78
2348.47
2360.34
2372.36
2384.51
2396.79
2409.18
2421.66
2434.21
2446.83
2459.48
2472.16
2484.85
2497.52
2510.17
2522.78
2535.32
2547.79
2560.15
2572.4
2584.53
2596.5
2608.31
2619.93
2631.36
2642.58
2653.57
2664.32
2674.81
2685.03
2694.96
2704.61
2713.94
2722.96
2731.65
2740.01
2748.02
2755.67
2762.96
2769.88
2776.43
2782.61
2788.39
2793.8
2798.81
2803.43
2807.66
2811.49
2814.94
2817.99
2820.65
2822.92
2824.81
2826.31
2827.44
2828.19
2828.58
2828.61
2828.28
2827.6
2826.59
2825.24
2823.57
2821.59
2819.29
2816.71
2813.84
2810.69
2807.28
2803.61
2799.7
2795.57
2791.21
2786.64
2781.88
2776.94
2771.84
2766.57
2761.17
2755.63
2749.98
2744.24
2738.4
2732.5
2726.54
2720.54
2714.52
2708.49
2702.46
2696.46
2690.5
2684.59
2678.75
2673
2667.34
2661.81
2656.4
2651.14
2646.03
2641.1
2636.34
2631.79
2627.44
2623.3
2619.4
2615.73
2612.31
2609.15
2606.25
2603.62
2601.26
2599.19
2597.4
2595.9
2594.7
2593.8
2593.2
2592.9
2104.96
2104.38
2102.27
2100.01
2100.33
2105.46
2110.3
2115.98
2123.91
2131.62
2140.1
2144.37
2145.5
2150.35
2156.99
2164.32
2171.92
2179.74
2187.82
2196.21
2204.92
2213.94
2223.28
2232.92
2242.86
2253.08
2263.58
2274.35
2285.37
2296.63
2308.13
2319.84
2331.75
2343.85
2356.13
2368.57
2381.15
2393.86
2406.68
2419.59
2432.59
2445.64
2458.74
2471.86
2484.99
2498.12
2511.21
2524.26
2537.24
2550.14
2562.93
2575.61
2588.15
2600.53
2612.74
2624.76
2636.58
2648.17
2659.52
2670.61
2681.44
2691.99
2702.23
2712.17
2721.78
2731.06
2740
2748.58
2756.8
2764.65
2772.12
2779.2
2785.89
2792.19
2798.08
2803.57
2808.65
2813.32
2817.58
2821.44
2824.87
2827.9
2830.53
2832.74
2834.56
2835.97
2837
2837.63
2837.89
2837.76
2837.27
2836.42
2835.21
2833.66
2831.77
2829.55
2827.02
2824.19
2821.05
2817.63
2813.94
2809.98
2805.77
2801.32
2796.64
2791.75
2786.66
2781.38
2775.93
2770.31
2764.55
2758.65
2752.63
2746.51
2740.31
2734.02
2727.68
2721.3
2714.9
2708.48
2702.07
2695.69
2689.35
2683.07
2676.87
2670.76
2664.75
2658.87
2653.13
2647.55
2642.13
2636.89
2631.85
2627.02
2622.4
2618.02
2613.88
2610
2606.37
2603.02
2599.94
2597.15
2594.66
2592.46
2590.57
2588.99
2587.71
2586.76
2586.12
2585.8
2087.62
2086.32
2082.8
2079.16
2079.63
2084.88
2091.21
2098.45
2105.66
2113.67
2121.02
2128.36
2133.15
2135.53
2142.65
2151.02
2159.53
2168.04
2176.67
2185.53
2194.67
2204.11
2213.84
2223.87
2234.2
2244.81
2255.71
2266.87
2278.3
2289.97
2301.88
2314.02
2326.36
2338.9
2351.62
2364.5
2377.54
2390.71
2403.99
2417.38
2430.84
2444.37
2457.95
2471.55
2485.16
2498.76
2512.33
2525.85
2539.31
2552.68
2565.94
2579.08
2592.07
2604.89
2617.54
2629.99
2642.22
2654.21
2665.95
2677.43
2688.62
2699.51
2710.09
2720.34
2730.26
2739.82
2749.02
2757.85
2766.3
2774.35
2782.01
2789.27
2796.11
2802.53
2808.54
2814.12
2819.27
2824
2828.29
2832.16
2835.59
2838.6
2841.18
2843.33
2845.07
2846.39
2847.3
2847.8
2847.91
2847.62
2846.95
2845.9
2844.48
2842.71
2840.59
2838.12
2835.33
2832.22
2828.8
2825.09
2821.09
2816.82
2812.28
2807.5
2802.48
2797.24
2791.79
2786.14
2780.31
2774.32
2768.17
2761.88
2755.47
2748.95
2742.33
2735.64
2728.89
2722.09
2715.27
2708.44
2701.62
2694.83
2688.08
2681.4
2674.8
2668.3
2661.92
2655.66
2649.56
2643.62
2637.87
2632.3
2626.95
2621.82
2616.92
2612.27
2607.87
2603.75
2599.9
2596.35
2593.09
2590.13
2587.48
2585.15
2583.15
2581.47
2580.12
2579.11
2578.43
2578.1
2072.67
2070.8
2067.19
2063.27
2063.27
2068.59
2074.75
2082.67
2088.83
2096.51
2102.45
2110.05
2116.67
2121.19
2127.42
2136.88
2146.36
2155.62
2164.82
2174.18
2183.77
2193.64
2203.79
2214.23
2224.96
2235.99
2247.3
2258.89
2270.74
2282.85
2295.2
2307.79
2320.59
2333.6
2346.79
2360.15
2373.67
2387.33
2401.11
2415
2428.97
2443.01
2457.1
2471.21
2485.34
2499.46
2513.54
2527.58
2541.55
2555.42
2569.18
2582.81
2596.29
2609.6
2622.72
2635.62
2648.3
2660.73
2672.89
2684.77
2696.36
2707.62
2718.56
2729.16
2739.39
2749.26
2758.75
2767.84
2776.53
2784.81
2792.68
2800.11
2807.11
2813.68
2819.8
2825.48
2830.71
2835.49
2839.82
2843.69
2847.12
2850.1
2852.63
2854.72
2856.37
2857.58
2858.36
2858.73
2858.67
2858.21
2857.34
2856.08
2854.44
2852.43
2850.05
2847.32
2844.25
2840.84
2837.12
2833.09
2828.76
2824.15
2819.27
2814.12
2808.73
2803.11
2797.27
2791.23
2785
2778.6
2772.03
2765.33
2758.49
2751.54
2744.49
2737.35
2730.16
2722.91
2715.64
2708.36
2701.1
2693.86
2686.67
2679.55
2672.53
2665.6
2658.81
2652.15
2645.66
2639.35
2633.22
2627.31
2621.61
2616.16
2610.95
2606.01
2601.34
2596.96
2592.88
2589.1
2585.64
2582.5
2579.7
2577.22
2575.1
2573.32
2571.89
2570.81
2570.09
2569.74
2060.88
2059.52
2056.68
2053.32
2053.89
2058.9
2064.01
2067.31
2074.3
2080.46
2085.33
2091.22
2099.45
2105.62
2112.15
2122.5
2132.78
2142.67
2152.4
2162.23
2172.26
2182.55
2193.12
2203.99
2215.14
2226.6
2238.35
2250.38
2262.68
2275.25
2288.08
2301.14
2314.43
2327.93
2341.62
2355.5
2369.54
2383.72
2398.03
2412.45
2426.97
2441.55
2456.19
2470.86
2485.54
2500.21
2514.85
2529.44
2543.95
2558.37
2572.67
2586.84
2600.84
2614.67
2628.29
2641.69
2654.85
2667.75
2680.37
2692.69
2704.69
2716.36
2727.69
2738.65
2749.23
2759.43
2769.22
2778.6
2787.55
2796.07
2804.15
2811.78
2818.95
2825.66
2831.91
2837.69
2843
2847.84
2852.2
2856.09
2859.5
2862.45
2864.93
2866.94
2868.49
2869.59
2870.24
2870.44
2870.21
2869.56
2868.48
2866.99
2865.11
2862.83
2860.18
2857.16
2853.79
2850.07
2846.02
2841.64
2836.97
2831.99
2826.73
2821.2
2815.42
2809.39
2803.13
2796.67
2790.01
2783.17
2776.16
2769
2761.71
2754.29
2746.77
2739.17
2731.49
2723.76
2716
2708.24
2700.49
2692.77
2685.11
2677.52
2670.03
2662.65
2655.41
2648.32
2641.41
2634.68
2628.16
2621.87
2615.81
2610.01
2604.47
2599.22
2594.26
2589.6
2585.26
2581.25
2577.57
2574.24
2571.26
2568.63
2566.38
2564.49
2562.97
2561.83
2561.07
2560.69
2050.9
2051.17
2049.65
2048.24
2048.54
2053.31
2053.83
2056.99
2061.57
2065.56
2069.18
2075.21
2083.15
2089.47
2097.38
2108.43
2119.11
2129.35
2139.49
2149.72
2160.16
2170.86
2181.85
2193.14
2204.73
2216.63
2228.83
2241.33
2254.11
2267.17
2280.49
2294.05
2307.86
2321.88
2336.11
2350.53
2365.11
2379.86
2394.74
2409.73
2424.82
2439.99
2455.22
2470.48
2485.75
2501.02
2516.25
2531.43
2546.54
2561.54
2576.43
2591.16
2605.73
2620.12
2634.28
2648.22
2661.9
2675.3
2688.41
2701.2
2713.66
2725.76
2737.5
2748.86
2759.81
2770.36
2780.47
2790.15
2799.39
2808.16
2816.47
2824.31
2831.66
2838.53
2844.91
2850.8
2856.19
2861.08
2865.48
2869.38
2872.78
2875.69
2878.11
2880.04
2881.48
2882.45
2882.95
2882.99
2882.57
2881.7
2880.4
2878.66
2876.51
2873.96
2871.01
2867.68
2863.98
2859.92
2855.52
2850.78
2845.72
2840.36
2834.7
2828.75
2822.54
2816.08
2809.37
2802.45
2795.33
2788.02
2780.54
2772.9
2765.12
2757.22
2749.19
2741.07
2732.88
2724.63
2716.35
2708.06
2699.78
2691.55
2683.37
2675.27
2667.28
2659.41
2651.69
2644.14
2636.77
2629.61
2622.66
2615.96
2609.51
2603.34
2597.45
2591.86
2586.58
2581.63
2577.01
2572.75
2568.84
2565.3
2562.13
2559.35
2556.95
2554.94
2553.33
2552.12
2551.31
2550.91
2038.95
2040.04
2039.57
2039.54
2041.33
2042.7
2043.59
2046.03
2048.66
2051.3
2054.26
2059.88
2067.5
2073.71
2083.56
2094.49
2105.25
2115.73
2126.15
2136.7
2147.48
2158.56
2169.96
2181.67
2193.7
2206.06
2218.74
2231.72
2245
2258.57
2272.41
2286.51
2300.86
2315.44
2330.23
2345.22
2360.4
2375.73
2391.22
2406.82
2422.53
2438.32
2454.17
2470.06
2485.97
2501.88
2517.75
2533.57
2549.31
2564.94
2580.45
2595.81
2610.98
2625.96
2640.72
2655.23
2669.47
2683.41
2697.05
2710.34
2723.29
2735.86
2748.04
2759.82
2771.17
2782.09
2792.56
2802.56
2812.09
2821.14
2829.69
2837.75
2845.29
2852.33
2858.85
2864.85
2870.32
2875.28
2879.71
2883.61
2887
2889.86
2892.21
2894.05
2895.38
2896.21
2896.55
2896.4
2895.77
2894.68
2893.13
2891.13
2888.69
2885.83
2882.56
2878.9
2874.85
2870.42
2865.65
2860.52
2855.06
2849.28
2843.19
2836.8
2830.13
2823.19
2816
2808.59
2800.97
2793.16
2785.18
2777.02
2768.74
2760.31
2751.75
2743.08
2734.33
2725.52
2716.67
2707.81
2698.97
2690.17
2681.44
2672.79
2664.26
2655.87
2647.63
2639.58
2631.72
2624.09
2616.69
2609.55
2602.68
2596.1
2589.83
2583.88
2578.27
2573
2568.09
2563.56
2559.4
2555.64
2552.27
2549.31
2546.76
2544.63
2542.92
2541.64
2540.78
2540.35
2023.68
2024.5
2024.88
2025.99
2027.52
2029.04
2030.6
2032.44
2034.64
2037.41
2040.05
2045.09
2051.98
2060.52
2070.39
2080.8
2091.24
2101.68
2112.25
2123.06
2134.18
2145.63
2157.43
2169.54
2182.04
2194.87
2208.04
2221.53
2235.34
2249.44
2263.83
2278.49
2293.41
2308.57
2323.96
2339.56
2355.36
2371.33
2387.46
2403.72
2420.08
2436.53
2453.05
2469.61
2486.2
2502.79
2519.35
2535.85
2552.27
2568.58
2584.76
2600.78
2616.61
2632.23
2647.62
2662.75
2677.59
2692.12
2706.31
2720.16
2733.63
2746.7
2759.36
2771.58
2783.36
2794.68
2805.52
2815.87
2825.71
2835.05
2843.86
2852.15
2859.9
2867.11
2873.77
2879.89
2885.45
2890.47
2894.93
2898.84
2902.2
2905.02
2907.29
2909.03
2910.23
2910.91
2911.07
2910.72
2909.87
2908.53
2906.71
2904.42
2901.67
2898.48
2894.87
2890.84
2886.42
2881.61
2876.42
2870.88
2865
2858.77
2852.22
2845.35
2838.18
2830.73
2823.01
2815.07
2806.92
2798.59
2790.09
2781.44
2772.58
2763.58
2754.44
2745.18
2735.83
2726.41
2716.95
2707.48
2698.03
2688.62
2679.29
2670.06
2660.95
2651.99
2643.2
2634.61
2626.23
2618.09
2610.2
2602.59
2595.28
2588.27
2581.59
2575.26
2569.28
2563.68
2558.46
2553.63
2549.21
2545.21
2541.63
2538.49
2535.78
2533.52
2531.7
2530.34
2529.43
2528.98
2005.53
2006.04
2007.04
2008.64
2010.49
2012.31
2014.21
2016.45
2019.19
2022.55
2026.6
2032.11
2039.1
2047.45
2056.75
2066.55
2076.63
2086.99
2097.67
2108.72
2120.15
2131.97
2144.17
2156.75
2169.71
2183.03
2196.71
2210.73
2225.09
2239.75
2254.72
2269.97
2285.5
2301.28
2317.29
2333.53
2349.98
2366.62
2383.45
2400.4
2417.45
2434.61
2451.83
2469.12
2486.44
2503.76
2521.05
2538.28
2555.43
2572.47
2589.37
2606.1
2622.64
2638.95
2655.02
2670.81
2686.29
2701.45
2716.25
2730.68
2744.71
2758.32
2771.49
2784.2
2796.43
2808.17
2819.41
2830.12
2840.31
2849.95
2859.04
2867.57
2875.53
2882.92
2889.73
2895.97
2901.63
2906.7
2911.19
2915.11
2918.44
2921.2
2923.39
2925.02
2926.08
2926.6
2926.56
2926
2924.9
2923.29
2921.18
2918.57
2915.49
2911.95
2907.96
2903.55