/*--------------------------------*- C++ -*----------------------------------*\
| =========                 |                                                 |
| \\      /  F ield         | OpenFOAM: The Open Source CFD Toolbox           |
|  \\    /   O peration     | Version:  v2006                                 |
|   \\  /    A nd           | Website:  www.openfoam.com                      |
|    \\/     M anipulation  |                                                 |
\*---------------------------------------------------------------------------*/
FoamFile
{
    version     2.0;
    format      ascii;
    class       volScalarField;
    location    "1.75";
    object      r;
}
// * * * * * * * * * * * * * * * * * * * * * * * * * * * * * * * * * * * * * //

dimensions      [1 2 0 0 0 0 0];


internalField   nonuniform List<scalar> 
350
(
-1.37168e-152
1.08354e-150
-6.52676e-149
3.70173e-147
-2.18147e-145
1.2468e-143
-7.22727e-142
4.13227e-140
-2.36867e-138
1.34903e-136
-7.66662e-135
4.33986e-133
-2.44762e-131
1.37568e-129
-7.70075e-128
4.29519e-126
-2.38589e-124
1.32016e-122
-7.27438e-121
3.99175e-119
-2.18105e-117
1.18651e-115
-6.42592e-114
3.46428e-112
-1.8589e-110
9.92705e-109
-5.27535e-107
2.78933e-105
-1.46727e-103
7.67767e-102
-3.99572e-100
2.06799e-98
-1.06421e-96
5.44454e-95
-2.76875e-93
1.39934e-91
-7.02759e-90
3.50632e-88
-1.73771e-86
8.55261e-85
-4.17951e-83
2.02751e-81
-9.7614e-80
4.66305e-78
-2.20968e-76
1.03842e-74
-4.83818e-73
2.23425e-71
-1.02232e-69
4.63345e-68
-2.07941e-66
9.2371e-65
-4.05999e-63
1.76495e-61
-7.58528e-60
3.2214e-58
-1.35127e-56
5.59546e-55
-2.28608e-53
9.20982e-52
-3.65631e-50
1.42946e-48
-5.49954e-47
2.08049e-45
-7.7326e-44
2.82105e-42
-1.00924e-40
3.53677e-39
-1.21268e-37
4.06309e-36
-1.3284e-34
4.23151e-33
-1.31103e-31
3.94332e-30
-1.149e-28
3.23566e-27
-8.7826e-26
2.29075e-24
-5.72152e-23
1.36292e-21
-3.08178e-20
6.57778e-19
-1.31639e-17
2.4499e-16
-4.19656e-15
6.52897e-14
-9.0625e-13
1.09418e-11
-1.10497e-10
8.70622e-10
-4.55166e-09
6.53183e-09
9.71792e-08
-4.08803e-07
-3.03758e-06
6.28364e-06
0.000138528
0.000832454
0.00332331
0.0103708
0.0271297
0.06189
0.126324
0.234931
0.403563
0.647199
0.977393
1.39996
1.91345
2.50868
3.16953
3.87468
4.60001
5.32117
6.01582
6.66546
7.25644
7.78025
8.23334
8.61632
8.93307
9.18969
9.39358
9.5526
9.67444
9.76625
9.83432
9.88403
9.9198
9.94518
9.96295
9.97524
9.98362
9.98928
9.99305
9.99554
9.99716
9.99821
9.99888
9.99931
9.99957
9.99974
9.99984
9.99977
9.99911
9.99664
9.98961
9.97286
9.9381
9.87367
9.76507
9.59644
9.3528
9.02261
8.60004
8.08655
7.49132
6.83047
6.12532
5.39999
4.67883
3.98418
3.33454
2.74356
2.21975
1.76666
1.38368
1.06693
0.81031
0.606419
0.447405
0.325559
0.233752
0.165678
0.11597
0.0801992
0.0548171
0.0370467
0.0247645
0.0163799
0.0107236
0.00695124
0.00446284
0.0028387
0.00178941
0.00111816
0.000692816
0.000425755
0.000259559
0.000157017
9.42736e-05
5.619e-05
3.32539e-05
1.95446e-05
1.14102e-05
6.61791e-06
3.81404e-06
2.18453e-06
1.24369e-06
7.03902e-07
3.96117e-07
2.21671e-07
1.23375e-07
6.83022e-08
3.76174e-08
2.06131e-08
1.12395e-08
6.09893e-09
3.29387e-09
1.77074e-09
9.47636e-10
5.04906e-10
2.67855e-10
1.41502e-10
7.44401e-11
3.90056e-11
2.03546e-11
1.05828e-11
5.4798e-12
2.82769e-12
1.45351e-12
7.44421e-13
3.80164e-13
1.93131e-13
9.81471e-14
4.937e-14
2.50462e-14
1.24274e-14
6.32846e-15
3.07805e-15
1.58493e-15
7.50833e-16
3.92444e-16
1.81807e-16
9.47505e-17
4.49347e-17
2.1294e-17
1.21231e-17
3.78598e-18
3.90084e-18
8.15015e-20
1.49709e-18
-3.79896e-19
5.95722e-19
-2.26987e-19
2.00479e-19
-6.86577e-20
3.64198e-20
4.94822e-21
-1.46445e-20
2.14757e-20
-1.91938e-20
1.60161e-20
-1.14649e-20
7.69753e-21
-4.6042e-21
2.49061e-21
-1.11436e-21
3.38115e-22
5.21365e-23
-1.99091e-22
2.19416e-22
-1.82339e-22
1.30112e-22
-8.22696e-23
4.63153e-23
-2.26052e-23
8.78054e-24
-1.74642e-24
-1.16515e-24
1.90005e-24
-1.67977e-24
1.17796e-24
-7.04178e-25
3.61462e-25
-1.52489e-25
4.37259e-26
2.64118e-27
-1.6026e-26
1.51833e-26
-1.01863e-26
5.4426e-27
-2.25821e-27
5.62725e-28
1.30803e-28
-2.91508e-28
2.36604e-28
-1.34915e-28
5.43007e-29
-8.70602e-30
-9.53281e-30
1.23514e-29
-8.99898e-30
4.69181e-30
-1.52934e-30
-1.53079e-31
7.37064e-31
-7.2495e-31
4.94409e-31
-2.54368e-31
8.50197e-32
5.97995e-33
-3.99549e-32
4.22246e-32
-3.17711e-32
1.94518e-32
-9.85522e-33
3.89557e-33
-8.7107e-34
-3.02625e-34
5.32378e-34
-3.99132e-34
2.01357e-34
-5.36654e-35
-2.46264e-35
5.09494e-35
-4.88386e-35
3.60238e-35
-2.24246e-35
1.20317e-35
-5.46248e-36
1.91812e-36
-3.10858e-37
-2.48309e-37
3.34817e-37
-2.60042e-37
1.63062e-37
-8.99476e-38
4.57892e-38
-2.26392e-38
1.16143e-38
-6.54899e-39
4.06542e-39
-2.63142e-39
1.66947e-39
-9.94628e-40
5.40769e-40
-2.6076e-40
1.06106e-40
-3.17012e-41
2.27977e-42
5.59809e-42
-5.24584e-42
2.99782e-42
-1.18008e-42
2.2745e-43
9.02657e-44
-9.52002e-44
9.24636e-45
7.00828e-44
)
;

boundaryField
{
    right
    {
        type            zeroGradient;
    }
    left
    {
        type            inletOutlet;
        inletValue      uniform 0;
        value           uniform 0;
    }
    top
    {
        type            zeroGradient;
    }
    bottom
    {
        type            zeroGradient;
    }
    empty
    {
        type            empty;
    }
}


// ************************************************************************* //
