/*--------------------------------*- C++ -*----------------------------------*\
| =========                 |                                                 |
| \\      /  F ield         | OpenFOAM: The Open Source CFD Toolbox           |
|  \\    /   O peration     | Version:  v2006                                 |
|   \\  /    A nd           | Website:  www.openfoam.com                      |
|    \\/     M anipulation  |                                                 |
\*---------------------------------------------------------------------------*/
FoamFile
{
    version     2.0;
    format      ascii;
    class       volScalarField;
    location    "0";
    object      p;
}
// * * * * * * * * * * * * * * * * * * * * * * * * * * * * * * * * * * * * * //

dimensions      [1 -1 -2 0 0 0 0];


internalField   nonuniform List<scalar> 
67500
(
4.20955
3.13175
1.9375
1.1305
1.4552
1.69686
1.86116
1.38666
0.421146
0.945482
1.95218
1.48468
0.781574
0.880093
1.63735
2.25701
2.50615
0.4732
-0.402084
1.90593
2.39659
0.817473
-0.206844
-0.463807
0.143834
0.800818
1.60025
2.06563
2.25582
2.24122
1.95578
1.53505
1.17471
0.851268
0.639874
0.515236
0.523725
0.578092
0.596188
0.601463
0.624146
0.675981
0.759087
0.86123
0.96554
1.06119
1.12183
1.08982
1.00813
0.910936
0.813777
0.72829
0.664458
0.630068
0.627898
0.653144
0.692891
0.729262
0.746132
0.735354
0.698112
0.643007
0.582529
0.529384
0.492884
0.476965
0.480512
0.49837
0.522906
0.546414
0.563711
0.5738
0.579894
0.588072
0.605492
0.639387
0.69615
0.779252
0.889411
1.02031
1.12513
1.08451
0.949157
0.839686
0.762391
0.703455
0.663798
0.64149
0.633783
0.640211
0.661675
0.699897
0.756683
0.833144
0.928994
1.04031
1.15582
1.2478
1.27412
1.24466
1.20938
1.19017
1.19154
1.21686
1.26557
1.33202
1.40532
1.46733
1.49641
1.49512
1.49302
1.5081
1.54169
1.59211
1.65406
1.71749
1.77627
1.83524
1.8997
1.9676
2.03421
2.09537
2.14993
2.20048
2.24873
2.29332
2.33256
2.36642
2.39622
2.42293
2.44652
2.46665
2.48308
2.49548
2.50338
2.50664
2.5056
2.50078
2.49271
2.48184
2.4685
2.45281
2.43476
2.41427
2.39123
2.36555
2.33719
2.30614
2.27246
2.23623
2.19756
2.15654
2.11329
2.06791
2.02055
1.97135
1.92051
1.86826
1.81484
1.76055
1.7057
1.65057
1.59548
1.54069
1.48648
1.43305
1.3806
1.32929
1.27923
1.23053
1.18323
1.13737
1.09298
1.05004
1.00853
0.968428
0.929695
0.892289
0.856163
0.821272
0.787571
0.755016
0.723567
0.693184
0.663833
0.635481
0.6081
0.581661
0.55614
0.531515
0.507761
0.484859
0.462787
0.441524
0.421051
0.401346
0.382389
0.36416
0.346639
0.329806
0.313641
0.298124
0.283236
0.268958
0.255271
0.242157
0.229597
0.217573
0.206066
0.195057
0.184529
0.174462
0.164838
0.155636
0.146839
0.138426
0.130377
0.122674
0.115297
0.108225
0.101441
0.0949236
0.088656
0.0826199
0.0767983
0.0711748
0.0657345
0.0604632
0.0553483
0.0503783
0.0455431
0.0408341
0.0362442
0.0317674
0.0273993
0.0231368
0.0189777
0.0149213
0.0109676
0.00711738
0.00337235
-0.000265361
-0.00379317
-0.00720819
-0.0105074
-0.0136876
-0.0167459
-0.0196793
-0.0224853
-0.0251615
-0.0277062
-0.0301178
-0.0323954
-0.0345387
-0.0365477
-0.0384231
-0.0401661
-0.0417785
-0.0432625
-0.0446207
-0.0458564
-0.046973
-0.0479745
-0.048865
-0.0496491
-0.0503313
-0.0509165
-0.0514096
-0.0518157
-0.0521398
-0.0523871
-0.0525624
-0.0526709
-0.0527173
-0.0527065
-0.0526431
-0.0525315
-0.0523761
-0.052181
-0.0519503
-0.0516878
-0.051397
-0.0510815
-0.0507444
-0.0503889
-0.0500179
-0.0496341
-0.0492401
-0.0488383
-0.0484309
-0.0480201
-0.0476079
-0.047196
-0.0467861
-0.0463799
-0.0459787
-0.045584
-0.0451969
-0.0448186
-0.0444501
-0.0440923
-0.043746
-0.0434121
-0.0430911
-0.0427836
-0.0424902
-0.0422112
-0.0419469
-0.0416977
-0.0414636
-0.0412448
-0.0410413
-0.040853
-0.0406797
-0.0405213
-0.0403773
-0.0402475
-0.0401313
-0.0400282
-0.0399374
-0.0398584
-0.0397901
-0.0397319
-0.0396825
-0.0396411
-0.0396064
-0.0395772
-0.0395524
-0.0395305
-0.0395102
-0.0394902
-0.0394689
-0.039445
-0.0394171
-0.0393837
-0.0393433
-0.0392947
-0.0392366
-0.0391675
-0.0390864
-0.0389921
-0.0388835
-0.0387596
-0.0386196
-0.0384627
-0.0382881
-0.0380954
-0.0378839
-0.0376534
-0.0374035
-0.0371342
-0.0368455
-0.0365373
-0.0362101
-0.0358641
-0.0354998
-0.035118
-0.0347192
-0.0343042
-0.0338741
-0.0334296
-0.0329717
-0.0325013
-0.0320195
-0.0315271
-0.0310248
-0.0305137
-0.0299943
-0.0294674
-0.0289336
-0.0283938
-0.0278486
-0.0272988
-0.0267451
-0.0261884
-0.0256297
-0.0250698
-0.0245099
-0.0239509
-0.0233938
-0.0228398
-0.0222897
-0.0217446
-0.0212054
-0.0206728
-0.0201476
-0.0196304
-0.0191218
-0.0186223
-0.0181321
-0.0176516
-0.017181
-0.0167203
-0.0162696
-0.0158289
-0.0153981
-0.014977
-0.0145655
-0.0141634
-0.0137704
-0.0133863
-0.0130107
-0.0126435
-0.0122842
-0.0119325
-0.0115883
-0.0112511
-0.0109206
-0.0105965
-0.0102786
-0.00996645
-0.00965988
-0.00935857
-0.00906226
-0.00877068
-0.00848358
-0.00820073
-0.00792188
-0.00764683
-0.00737535
-0.00710725
-0.00684233
-0.0065804
-0.0063213
-0.00606485
-0.00581089
-0.00555928
-0.00530985
-0.00506249
-0.00481704
-0.0045734
-0.00433142
-0.00409101
-0.00385205
-0.00361443
-0.00337806
-0.00314284
-0.00290867
-0.00267547
-0.00244314
-0.00221161
-0.00198079
-0.00175062
-0.00152097
-0.00129191
-0.00106292
-0.000835313
-0.000603751
-0.000383123
-0.000103714
3.98456
1.72124
0.993708
0.663049
0.749842
0.832946
1.35528
0.0016849
-0.016458
0.00283997
-0.314222
-0.388575
-0.152075
-0.905452
-0.355806
-0.200801
-0.351969
-2.09541
-2.85673
-1.20711
0.135871
0.629813
0.945963
1.29416
1.17635
0.675797
1.23943
1.69144
2.01149
2.0408
1.71144
1.34396
0.9925
0.483931
0.324769
0.283639
0.449139
0.620605
0.686083
0.719209
0.747087
0.769364
0.794235
0.823173
0.857053
0.921037
0.991965
0.922571
0.86292
0.816783
0.771902
0.725319
0.68101
0.648214
0.635249
0.643812
0.66612
0.687882
0.696222
0.686248
0.659382
0.620666
0.576125
0.532614
0.496503
0.472884
0.464297
0.469131
0.482207
0.497384
0.510015
0.517889
0.521313
0.522833
0.526851
0.53939
0.567324
0.617431
0.701005
0.844671
1.03395
0.950029
0.74803
0.629023
0.56624
0.527387
0.509135
0.506776
0.516147
0.535682
0.566185
0.610502
0.672284
0.754391
0.858451
0.983816
1.12553
1.25094
1.26245
1.19132
1.13224
1.09986
1.09162
1.11169
1.16025
1.23229
1.31804
1.3955
1.423
1.40387
1.39158
1.40619
1.44376
1.50234
1.57552
1.64715
1.70589
1.76354
1.83016
1.90178
1.97205
2.03475
2.08853
2.13919
2.18954
2.23665
2.27746
2.31195
2.34258
2.37085
2.39636
2.41847
2.43701
2.45154
2.46129
2.46604
2.46632
2.46282
2.45614
2.44681
2.43517
2.42128
2.40507
2.38642
2.36516
2.34118
2.3144
2.28485
2.25259
2.2177
2.18031
2.14051
2.09842
2.05413
2.00777
1.95948
1.90946
1.85793
1.80515
1.75143
1.69708
1.64241
1.58774
1.53335
1.47951
1.42644
1.37434
1.32337
1.27365
1.22526
1.17828
1.13274
1.08864
1.04598
1.00475
0.964903
0.926412
0.889232
0.853317
0.818621
0.7851
0.75271
0.72141
0.691164
0.661938
0.633699
0.606421
0.580076
0.554641
0.530095
0.506414
0.48358
0.461571
0.440367
0.419949
0.400296
0.381388
0.363205
0.345727
0.328935
0.312808
0.297327
0.282473
0.268228
0.254573
0.241489
0.228958
0.216961
0.205481
0.194499
0.183997
0.173955
0.164356
0.155179
0.146406
0.138017
0.129992
0.122312
0.114958
0.107908
0.101145
0.0946495
0.088402
0.0823851
0.0765815
0.0709749
0.0655501
0.060293
0.0551908
0.050232
0.0454065
0.0407057
0.0361225
0.031651
0.0272868
0.023027
0.0188695
0.0148136
0.0108595
0.00700824
0.0032615
-0.000378379
-0.00390869
-0.00732641
-0.0106284
-0.0138114
-0.0168722
-0.0198081
-0.0226161
-0.0252941
-0.02784
-0.0302524
-0.0325304
-0.0346734
-0.0366817
-0.0385558
-0.0402971
-0.0419072
-0.0433884
-0.0447435
-0.0459756
-0.0470883
-0.0480856
-0.0489717
-0.049751
-0.0504284
-0.0510086
-0.0514967
-0.0518978
-0.0522168
-0.0524591
-0.0526295
-0.052733
-0.0527747
-0.0527592
-0.0526913
-0.0525754
-0.0524158
-0.0522168
-0.0519823
-0.0517161
-0.0514219
-0.0511031
-0.0507629
-0.0504045
-0.0500307
-0.0496444
-0.049248
-0.0488439
-0.0484344
-0.0480217
-0.0476076
-0.047194
-0.0467826
-0.0463749
-0.0459724
-0.0455764
-0.0451882
-0.0448089
-0.0444394
-0.0440808
-0.0437338
-0.0433992
-0.0430776
-0.0427697
-0.0424758
-0.0421965
-0.041932
-0.0416826
-0.0414484
-0.0412296
-0.0410262
-0.040838
-0.040665
-0.0405068
-0.0403633
-0.040234
-0.0401183
-0.0400158
-0.0399258
-0.0398476
-0.0397802
-0.0397229
-0.0396746
-0.0396343
-0.0396008
-0.0395729
-0.0395494
-0.0395288
-0.03951
-0.0394913
-0.0394715
-0.039449
-0.0394225
-0.0393905
-0.0393515
-0.0393042
-0.0392473
-0.0391795
-0.0390995
-0.0390062
-0.0388985
-0.0387755
-0.0386363
-0.03848
-0.0383059
-0.0381135
-0.0379023
-0.0376719
-0.037422
-0.0371525
-0.0368635
-0.036555
-0.0362274
-0.0358809
-0.0355161
-0.0351336
-0.0347342
-0.0343187
-0.033888
-0.033443
-0.0329846
-0.0325139
-0.0320318
-0.031539
-0.0310366
-0.0305252
-0.0300056
-0.0294784
-0.0289443
-0.028404
-0.0278582
-0.0273076
-0.026753
-0.0261953
-0.0256354
-0.0250743
-0.0245131
-0.0239527
-0.0233943
-0.0228388
-0.0222875
-0.0217411
-0.0212007
-0.0206671
-0.0201409
-0.019623
-0.0191137
-0.0186136
-0.018123
-0.0176421
-0.0171713
-0.0167104
-0.0162597
-0.015819
-0.0153883
-0.0149673
-0.014556
-0.0141541
-0.0137613
-0.0133775
-0.0130022
-0.0126352
-0.0122763
-0.0119249
-0.011581
-0.0112441
-0.0109139
-0.0105902
-0.0102725
-0.00996069
-0.0096544
-0.00935336
-0.00905732
-0.00876599
-0.00847914
-0.00819652
-0.0079179
-0.00764306
-0.00737179
-0.00710389
-0.00683916
-0.00657741
-0.00631848
-0.0060622
-0.0058084
-0.00555693
-0.00530765
-0.00506042
-0.0048151
-0.00457158
-0.00432972
-0.00408942
-0.00385057
-0.00361306
-0.00337679
-0.00314166
-0.00290758
-0.00267446
-0.00244222
-0.00221078
-0.00198004
-0.00174994
-0.00152038
-0.00129139
-0.00106247
-0.000834937
-0.000603448
-0.000382893
-0.000103618
4.81431
5.786
1.87834
0.581287
0.524246
0.261777
0.097724
0.0293069
-0.048831
-0.194679
-0.324647
-0.340256
-0.281258
-0.219659
-0.179518
-0.317942
-0.420184
-0.731909
-1.4477
-1.0671
0.331258
1.57906
1.06417
0.694945
1.48897
1.56999
2.02436
2.58627
3.10245
2.74257
1.41988
1.12343
1.19829
-0.307587
-0.058493
0.0783543
0.281561
0.316105
0.311243
0.326901
0.349759
0.367243
0.38165
0.393236
0.414235
0.486167
0.679689
0.479799
0.396642
0.365182
0.358135
0.362196
0.370287
0.382737
0.405104
0.440123
0.478584
0.500677
0.488915
0.443125
0.373156
0.296291
0.229852
0.188932
0.175858
0.183135
0.201592
0.221797
0.23408
0.231615
0.214148
0.188482
0.16665
0.162008
0.183608
0.235502
0.322148
0.452231
0.63628
0.959386
1.53093
1.15549
0.848156
0.743503
0.652838
0.573748
0.519246
0.479256
0.449858
0.431449
0.425995
0.435471
0.462282
0.51341
0.594362
0.708402
0.878296
1.10862
1.08944
0.942347
0.855046
0.816081
0.811182
0.845975
0.921465
1.03379
1.17641
1.31884
1.34324
1.2673
1.22526
1.22994
1.26121
1.32238
1.41054
1.4963
1.54928
1.60223
1.67551
1.75922
1.84322
1.91292
1.96563
2.01742
2.07359
2.12651
2.16973
2.2039
2.23515
2.26627
2.29558
2.32175
2.34479
2.36394
2.37752
2.38515
2.38792
2.38693
2.38296
2.37669
2.36849
2.35828
2.34583
2.3309
2.31323
2.29263
2.26904
2.24247
2.21302
2.18081
2.14597
2.10863
2.06886
2.02675
1.9824
1.93593
1.88754
1.83744
1.78593
1.73333
1.67997
1.6262
1.57236
1.51874
1.46564
1.41328
1.36188
1.31158
1.26252
1.21479
1.16844
1.12351
1.08001
1.03792
0.997223
0.957892
0.919884
0.883155
0.847659
0.813351
0.780186
0.748123
0.717122
0.687147
0.658167
0.630153
0.603078
0.576919
0.551654
0.527264
0.503728
0.481028
0.459144
0.438058
0.417751
0.398203
0.379394
0.361305
0.343916
0.327208
0.311161
0.295755
0.280973
0.266796
0.253205
0.240182
0.22771
0.21577
0.204345
0.193416
0.182964
0.172973
0.163422
0.154293
0.145568
0.137225
0.129246
0.121611
0.114301
0.107295
0.100573
0.0941179
0.0879092
0.0819292
0.0761604
0.0705863
0.0651916
0.0599618
0.0548841
0.0499468
0.0451399
0.0404548
0.0358842
0.0314226
0.0270657
0.0228106
0.0186557
0.0146003
0.010645
0.00679105
0.00304046
-0.000604181
-0.00413988
-0.00756335
-0.0108712
-0.0140599
-0.0171263
-0.020067
-0.0228794
-0.0255608
-0.0281094
-0.0305234
-0.032802
-0.0349445
-0.0369512
-0.0388228
-0.0405604
-0.0421658
-0.0436414
-0.0449901
-0.0462149
-0.0473197
-0.0483085
-0.0491855
-0.0499554
-0.050623
-0.0511932
-0.0516712
-0.0520621
-0.0523709
-0.052603
-0.0527635
-0.0528572
-0.0528893
-0.0528646
-0.0527876
-0.052663
-0.0524951
-0.0522881
-0.052046
-0.0517725
-0.0514714
-0.0511461
-0.0507998
-0.0504356
-0.0500563
-0.0496648
-0.0492636
-0.048855
-0.0484413
-0.0480246
-0.0476069
-0.0471899
-0.0467754
-0.0463648
-0.0459596
-0.0455612
-0.0451707
-0.0447893
-0.044418
-0.0440577
-0.0437093
-0.0433733
-0.0430506
-0.0427417
-0.042447
-0.042167
-0.041902
-0.0416523
-0.0414179
-0.0411991
-0.0409958
-0.0408079
-0.0406354
-0.0404779
-0.0403351
-0.0402067
-0.0400922
-0.0399911
-0.0399025
-0.0398259
-0.0397604
-0.0397051
-0.0396589
-0.0396209
-0.0395898
-0.0395644
-0.0395435
-0.0395257
-0.0395096
-0.0394938
-0.0394769
-0.0394573
-0.0394336
-0.0394044
-0.0393682
-0.0393236
-0.0392692
-0.0392038
-0.0391261
-0.039035
-0.0389294
-0.0388083
-0.0386707
-0.038516
-0.0383433
-0.0381522
-0.037942
-0.0377124
-0.0374631
-0.037194
-0.036905
-0.0365962
-0.0362679
-0.0359204
-0.0355543
-0.0351701
-0.0347686
-0.0343508
-0.0339174
-0.0334696
-0.0330084
-0.0325347
-0.0320495
-0.0315539
-0.0310487
-0.0305347
-0.0300126
-0.0294831
-0.0289469
-0.0284047
-0.027857
-0.0273047
-0.0267485
-0.0261892
-0.0256278
-0.0250652
-0.0245025
-0.0239408
-0.0233811
-0.0228244
-0.0222719
-0.0217246
-0.0211832
-0.0206488
-0.020122
-0.0196035
-0.0190938
-0.0185934
-0.0181026
-0.0176217
-0.0171509
-0.0166902
-0.0162397
-0.0157993
-0.015369
-0.0149485
-0.0145377
-0.0141363
-0.0137441
-0.0133608
-0.0129862
-0.0126198
-0.0122614
-0.0119108
-0.0115674
-0.0112311
-0.0109016
-0.0105784
-0.0102613
-0.00995008
-0.00964434
-0.00934383
-0.00904829
-0.00875746
-0.00847108
-0.00818891
-0.00791072
-0.0076363
-0.00736542
-0.0070979
-0.00683353
-0.00657213
-0.00631353
-0.00605755
-0.00580405
-0.00555287
-0.00530386
-0.00505688
-0.00481182
-0.00456853
-0.0043269
-0.00408681
-0.00384816
-0.00361085
-0.00337476
-0.00313982
-0.00290591
-0.00267297
-0.00244089
-0.0022096
-0.00197901
-0.00174907
-0.00151965
-0.0012908
-0.00106202
-0.000834623
-0.000603276
-0.00038283
-0.000103709
4.64612
3.46393
0.573374
0.165407
0.152663
0.172719
0.137996
0.0340955
-0.130175
-0.336818
-0.441016
-0.456796
-0.385781
-0.283374
-0.223824
-0.215912
-0.223369
-0.667291
-0.383312
-0.652989
0.486245
1.34219
1.33355
0.633445
0.123422
0.218399
0.757478
2.0555
4.29001
5.15896
1.42521
0.456255
1.10511
0.356865
0.367646
0.328949
0.297065
0.292639
0.308484
0.329379
0.347343
0.360053
0.370591
0.384363
0.407433
0.435799
0.413282
0.322979
0.304851
0.276415
0.236564
0.202343
0.185005
0.180953
0.182905
0.186145
0.188519
0.189448
0.188951
0.187352
0.185756
0.185452
0.186773
0.188401
0.188862
0.188018
0.186558
0.184941
0.183146
0.181081
0.179186
0.178162
0.178261
0.179709
0.182602
0.187338
0.195929
0.21601
0.269276
0.453953
1.89187
0.817387
0.142572
0.068186
0.0769354
0.066145
0.0710863
0.0920245
0.11834
0.142312
0.169283
0.205847
0.251609
0.324048
0.44728
0.630008
0.967301
1.59765
1.25862
0.920234
0.804513
0.726138
0.671523
0.660559
0.693606
0.768194
0.910402
1.14618
1.12879
0.927553
0.840145
0.853181
0.912443
1.01693
1.16904
1.30961
1.34266
1.38118
1.46282
1.55868
1.65965
1.73248
1.77227
1.82234
1.88996
1.95632
2.00552
2.03859
2.07133
2.10854
2.14464
2.17692
2.2069
2.23338
2.25252
2.26385
2.26992
2.2725
2.2725
2.27088
2.268
2.26345
2.25676
2.24753
2.23534
2.21987
2.20105
2.17893
2.15366
2.12544
2.09445
2.0608
2.02456
1.98575
1.94445
1.90073
1.85478
1.80683
1.7572
1.70625
1.65436
1.60192
1.5493
1.49684
1.44483
1.39354
1.34317
1.29389
1.24583
1.19908
1.15369
1.10968
1.06707
1.02584
0.985959
0.947401
0.910119
0.874068
0.839203
0.805478
0.772848
0.741274
0.710718
0.681149
0.652537
0.624857
0.598085
0.572203
0.547192
0.523034
0.499713
0.477212
0.455514
0.434603
0.414458
0.395064
0.376399
0.358446
0.341185
0.324597
0.308664
0.293367
0.278687
0.264607
0.251109
0.238175
0.225789
0.213932
0.202587
0.191737
0.181363
0.171448
0.161972
0.152917
0.144265
0.135995
0.128087
0.120523
0.113282
0.106343
0.0996879
0.093296
0.0871485
0.0812268
0.0755129
0.0699901
0.0646426
0.0594558
0.0544165
0.0495132
0.0447355
0.0400749
0.0355244
0.0310784
0.0267331
0.0224857
0.018335
0.0142807
0.0103239
0.00646613
0.00270993
-0.000941721
-0.0044854
-0.00791744
-0.0112341
-0.0144314
-0.017506
-0.0204542
-0.0232731
-0.0259599
-0.0285125
-0.0309291
-0.0332086
-0.0353506
-0.0373551
-0.0392228
-0.040955
-0.0425535
-0.0440208
-0.0453598
-0.0465738
-0.0476668
-0.0486427
-0.0495062
-0.0502619
-0.0509148
-0.05147
-0.0519328
-0.0523083
-0.0526018
-0.0528187
-0.0529641
-0.0530432
-0.0530609
-0.0530222
-0.0529317
-0.0527941
-0.0526137
-0.0523947
-0.0521411
-0.0518568
-0.0515453
-0.0512102
-0.0508546
-0.0504817
-0.0500943
-0.0496951
-0.0492866
-0.0488713
-0.0484513
-0.0480288
-0.0476056
-0.0471835
-0.0467642
-0.0463493
-0.0459402
-0.0455381
-0.0451443
-0.0447598
-0.0443857
-0.0440229
-0.0436722
-0.0433343
-0.0430099
-0.0426995
-0.0424036
-0.0421227
-0.0418569
-0.0416067
-0.041372
-0.0411532
-0.0409501
-0.0407626
-0.0405908
-0.0404342
-0.0402926
-0.0401657
-0.0400529
-0.0399537
-0.0398673
-0.0397932
-0.0397304
-0.039678
-0.039635
-0.0396004
-0.0395729
-0.0395513
-0.0395343
-0.0395206
-0.0395087
-0.0394972
-0.0394845
-0.0394692
-0.0394499
-0.0394249
-0.0393928
-0.0393522
-0.0393016
-0.0392399
-0.0391656
-0.0390776
-0.0389748
-0.0388562
-0.0387208
-0.0385678
-0.0383966
-0.0382064
-0.0379969
-0.0377675
-0.0375182
-0.0372486
-0.0369588
-0.036649
-0.0363194
-0.0359705
-0.0356028
-0.0352169
-0.0348138
-0.0343943
-0.0339595
-0.0335103
-0.0330479
-0.0325733
-0.0320875
-0.0315913
-0.0310857
-0.0305713
-0.0300487
-0.0295186
-0.0289815
-0.0284379
-0.0278885
-0.0273339
-0.0267749
-0.0262124
-0.0256473
-0.0250807
-0.0245137
-0.0239476
-0.0233834
-0.0228224
-0.0222657
-0.0217144
-0.0211695
-0.0206317
-0.020102
-0.019581
-0.0190691
-0.018567
-0.0180748
-0.0175929
-0.0171214
-0.0166603
-0.0162096
-0.0157693
-0.0153392
-0.0149191
-0.0145088
-0.0141081
-0.0137167
-0.0133342
-0.0129604
-0.012595
-0.0122376
-0.0118878
-0.0115455
-0.0112101
-0.0108815
-0.0105593
-0.0102431
-0.00993272
-0.00962783
-0.00932815
-0.00903341
-0.00874335
-0.00845771
-0.00817625
-0.00789874
-0.00762497
-0.00735472
-0.00708778
-0.00682398
-0.00656312
-0.00630504
-0.00604955
-0.00579652
-0.00554578
-0.0052972
-0.00505063
-0.00480595
-0.00456303
-0.00432176
-0.00408201
-0.00384368
-0.00360668
-0.00337089
-0.00313623
-0.00290261
-0.00266992
-0.0024381
-0.00220706
-0.00197672
-0.00174701
-0.00151782
-0.00128919
-0.00106064
-0.000833453
-0.000602325
-0.0003821
-0.000103391
3.3638
1.36617
0.315933
0.129443
0.108781
0.119417
0.105223
-0.00490233
-0.224869
-0.526892
-0.610289
-0.532609
-0.424106
-0.2746
-0.181452
-0.189608
-0.280035
-0.801802
-1.89995
-0.687476
2.28183
2.57576
0.158694
0.229125
0.216455
0.199222
0.195148
0.243382
0.506232
0.38455
0.436413
0.375783
0.367384
0.288796
0.259956
0.242682
0.254501
0.281818
0.30889
0.333147
0.350354
0.360753
0.3672
0.372955
0.379215
0.380224
0.361557
0.326694
0.298861
0.272832
0.248319
0.229091
0.217019
0.210588
0.207335
0.205478
0.204087
0.202765
0.201359
0.199806
0.198074
0.196197
0.194311
0.192564
0.191011
0.18961
0.188346
0.187305
0.186554
0.186061
0.185946
0.186412
0.187349
0.188921
0.191697
0.196105
0.203613
0.220351
0.258982
0.316112
0.253327
-0.0665164
0.0705875
0.119174
0.140293
0.151865
0.159743
0.165763
0.169485
0.170991
0.17183
0.17351
0.177212
0.186212
0.204739
0.245006
0.350997
1.9471
1.02814
0.280253
0.11075
0.0550309
0.0154771
0.0491101
0.176055
0.383621
0.786071
1.5335
1.22837
0.809866
0.741094
0.707658
0.679631
0.704127
0.845188
1.07798
1.01841
0.998384
1.09515
1.24068
1.41422
1.50402
1.51251
1.56559
1.65745
1.7448
1.79463
1.81379
1.84354
1.88972
1.93698
1.97885
2.02094
2.0605
2.08788
2.10297
2.11237
2.11909
2.12394
2.12856
2.13322
2.13662
2.13793
2.13659
2.13181
2.12321
2.11073
2.09447
2.0747
2.05175
2.02587
1.99719
1.96572
1.93141
1.89421
1.85419
1.81149
1.76637
1.7192
1.6704
1.62041
1.5697
1.51867
1.46771
1.41715
1.36726
1.31827
1.27035
1.22363
1.17818
1.13407
1.09131
1.04989
1.00981
0.97102
0.933494
0.897182
0.862036
0.82801
0.795059
0.763139
0.732213
0.702248
0.673214
0.645086
0.617845
0.591472
0.565953
0.541274
0.517422
0.494384
0.472147
0.450697
0.430019
0.410096
0.390911
0.372445
0.35468
0.337597
0.321178
0.305404
0.290257
0.27572
0.261775
0.248404
0.235592
0.223322
0.211576
0.200339
0.189592
0.179319
0.169502
0.160123
0.151163
0.142604
0.134426
0.12661
0.119135
0.111981
0.105128
0.0985568
0.0922459
0.0861762
0.0803285
0.0746846
0.0692271
0.0639397
0.0588076
0.0538173
0.0489568
0.0442159
0.039586
0.0350602
0.0306333
0.0263014
0.0220625
0.0179156
0.0138612
0.00990066
0.00603629
0.00227112
-0.00139124
-0.00494683
-0.00839143
-0.0117207
-0.0149305
-0.0180167
-0.0209755
-0.0238035
-0.0264977
-0.0290558
-0.0314758
-0.0337566
-0.0358977
-0.037899
-0.0397612
-0.0414859
-0.0430748
-0.0445306
-0.0458563
-0.0470555
-0.0481321
-0.0490906
-0.0499356
-0.050672
-0.051305
-0.0518399
-0.052282
-0.0526368
-0.0529097
-0.0531062
-0.0532314
-0.0532907
-0.0532891
-0.0532317
-0.0531231
-0.052968
-0.0527709
-0.0525359
-0.0522671
-0.0519682
-0.051643
-0.0512948
-0.050927
-0.0505424
-0.0501441
-0.0497346
-0.0493166
-0.0488923
-0.048464
-0.0480336
-0.0476032
-0.0471744
-0.0467489
-0.0463282
-0.0459137
-0.0455068
-0.0451085
-0.04472
-0.0443422
-0.0439761
-0.0436225
-0.043282
-0.0429553
-0.0426429
-0.0423454
-0.0420631
-0.0417964
-0.0415454
-0.0413105
-0.0410915
-0.0408887
-0.0407019
-0.0405309
-0.0403756
-0.0402356
-0.0401106
-0.0400001
-0.0399035
-0.0398201
-0.0397493
-0.0396902
-0.0396418
-0.0396031
-0.039573
-0.0395504
-0.039534
-0.0395224
-0.0395142
-0.039508
-0.0395023
-0.0394955
-0.0394861
-0.0394725
-0.0394532
-0.0394267
-0.0393915
-0.0393462
-0.0392894
-0.0392198
-0.0391363
-0.0390377
-0.0389229
-0.0387912
-0.0386415
-0.0384733
-0.0382858
-0.0380786
-0.0378511
-0.0376031
-0.0373343
-0.0370446
-0.0367342
-0.0364032
-0.0360521
-0.0356813
-0.0352916
-0.0348838
-0.0344589
-0.0340181
-0.0335626
-0.0330936
-0.0326123
-0.0321198
-0.0316173
-0.0311056
-0.0305856
-0.0300579
-0.0295231
-0.0289817
-0.0284343
-0.0278814
-0.0273235
-0.0267615
-0.0261961
-0.0256282
-0.025059
-0.0244895
-0.0239208
-0.0233544
-0.0227912
-0.0222325
-0.0216793
-0.0211327
-0.0205936
-0.0200627
-0.0195408
-0.0190283
-0.0185257
-0.0180334
-0.0175515
-0.0170802
-0.0166195
-0.0161694
-0.0157298
-0.0153005
-0.0148814
-0.0144722
-0.0140726
-0.0136823
-0.0133011
-0.0129285
-0.0125643
-0.0122082
-0.0118597
-0.0115186
-0.0111845
-0.0108571
-0.010536
-0.010221
-0.00991177
-0.00960797
-0.00930935
-0.00901562
-0.00872653
-0.00844183
-0.00816127
-0.00788462
-0.00761167
-0.00734221
-0.00707603
-0.00681294
-0.00655276
-0.00629533
-0.00604046
-0.00578802
-0.00553785
-0.0052898
-0.00504374
-0.00479955
-0.0045571
-0.00431626
-0.00407694
-0.00383902
-0.00360241
-0.00336699
-0.00313269
-0.00289941
-0.00266706
-0.00243556
-0.00220483
-0.00197479
-0.00174537
-0.00151647
-0.00128812
-0.00105984
-0.000832928
-0.00060208
-0.000382063
-0.000103634
2.39469
0.258284
0.144013
0.110643
0.0644367
0.0496958
0.0316735
-0.0638426
-0.271451
-0.518539
-0.70206
-0.48564
-0.372629
-0.256921
-0.168409
-0.149115
0.497553
1.57861
1.52315
0.0483236
0.100132
0.267793
0.239617
0.225395
0.214387
0.206904
0.205332
0.21162
0.279851
0.333179
0.338461
0.34934
0.352225
0.328367
0.28739
0.26043
0.269105
0.291362
0.31129
0.32839
0.34075
0.348028
0.352088
0.354598
0.355159
0.350376
0.336363
0.316621
0.295394
0.273892
0.253753
0.23695
0.224697
0.21652
0.211075
0.207196
0.204216
0.201842
0.199936
0.198394
0.197084
0.195834
0.1945
0.19301
0.191354
0.189634
0.188039
0.186748
0.185839
0.185265
0.185055
0.185419
0.186276
0.187608
0.189574
0.192389
0.196741
0.204064
0.214711
0.220292
0.191431
0.149096
0.152963
0.159311
0.164102
0.167713
0.170497
0.172845
0.175063
0.176833
0.178616
0.181772
0.18672
0.193136
0.205999
0.239402
0.305486
0.282551
-0.0819094
0.0594486
0.109476
0.130388
0.14413
0.159559
0.182132
0.227055
0.32365
2.08019
1.2377
-0.0601486
-0.182779
-0.0544238
0.0779535
0.274736
0.612325
1.16859
0.846304
0.840713
0.914448
1.00781
1.23678
1.27589
1.15853
1.18742
1.32496
1.48101
1.53611
1.52193
1.55296
1.61895
1.68098
1.72989
1.78727
1.84585
1.88231
1.89908
1.91202
1.92444
1.93547
1.94845
1.9634
1.97724
1.98903
1.99805
2.00285
2.00291
1.99831
1.98918
1.97608
1.95962
1.94014
1.91777
1.89242
1.86386
1.83192
1.79656
1.75791
1.71628
1.6721
1.6259
1.5782
1.52956
1.48047
1.43134
1.38256
1.33442
1.28715
1.24093
1.19589
1.15209
1.10959
1.0684
1.02849
0.989854
0.952444
0.916216
0.881122
0.847111
0.814135
0.78215
0.751114
0.720993
0.691757
0.663384
0.635854
0.609152
0.583269
0.558195
0.533922
0.510444
0.487752
0.465836
0.444686
0.424289
0.40463
0.385694
0.367463
0.349919
0.333045
0.316822
0.301234
0.286264
0.271893
0.258107
0.24489
0.232225
0.220096
0.208488
0.197385
0.18677
0.176626
0.166937
0.157684
0.148849
0.140414
0.132358
0.124664
0.117309
0.110273
0.103537
0.0970777
0.0908761
0.0849113
0.0791636
0.0736139
0.0682442
0.0630377
0.0579789
0.0530541
0.048251
0.0435593
0.0389705
0.0344778
0.0300762
0.0257627
0.0215354
0.0173942
0.0133402
0.0093755
0.00550315
0.00172696
-0.00194873
-0.00551922
-0.00897962
-0.012325
-0.0155505
-0.0186515
-0.0216239
-0.0244636
-0.0271676
-0.0297329
-0.0321577
-0.0344406
-0.0365808
-0.0385784
-0.0404342
-0.0421496
-0.0437267
-0.0451682
-0.0464774
-0.047658
-0.0487143
-0.0496508
-0.0504726
-0.0511848
-0.0517928
-0.0523021
-0.0527183
-0.053047
-0.053294
-0.0534646
-0.0535645
-0.053599
-0.0535732
-0.0534923
-0.0533611
-0.0531842
-0.0529661
-0.052711
-0.0524231
-0.0521061
-0.0517637
-0.0513993
-0.051016
-0.050617
-0.0502051
-0.0497829
-0.0493529
-0.0489175
-0.0484787
-0.0480386
-0.0475992
-0.047162
-0.0467288
-0.0463009
-0.0458799
-0.0454668
-0.045063
-0.0446695
-0.0442871
-0.0439169
-0.0435596
-0.0432158
-0.0428863
-0.0425715
-0.042272
-0.0419881
-0.0417201
-0.0414683
-0.0412329
-0.0410139
-0.0408114
-0.0406253
-0.0404554
-0.0403017
-0.0401637
-0.040041
-0.0399333
-0.0398399
-0.0397602
-0.0396935
-0.0396389
-0.0395954
-0.0395621
-0.0395377
-0.0395212
-0.0395111
-0.0395062
-0.0395049
-0.0395058
-0.0395073
-0.0395078
-0.0395057
-0.0394994
-0.0394874
-0.0394679
-0.0394394
-0.0394006
-0.0393499
-0.039286
-0.0392076
-0.0391136
-0.039003
-0.0388746
-0.0387278
-0.0385617
-0.0383757
-0.0381692
-0.037942
-0.0376936
-0.0374239
-0.037133
-0.0368209
-0.0364879
-0.0361345
-0.0357613
-0.0353692
-0.034959
-0.034532
-0.0340893
-0.0336323
-0.0331621
-0.0326802
-0.0321874
-0.031685
-0.0311735
-0.0306537
-0.0301261
-0.0295909
-0.0290485
-0.0284992
-0.0279433
-0.0273815
-0.0268144
-0.0262429
-0.0256681
-0.0250912
-0.0245136
-0.0239367
-0.0233619
-0.0227906
-0.0222241
-0.0216637
-0.0211104
-0.0205653
-0.0200292
-0.0195027
-0.0189864
-0.0184808
-0.017986
-0.0175024
-0.0170298
-0.0165685
-0.0161181
-0.0156787
-0.0152499
-0.0148315
-0.0144233
-0.0140248
-0.0136359
-0.0132561
-0.0128851
-0.0125225
-0.012168
-0.0118211
-0.0114816
-0.0111491
-0.0108233
-0.0105038
-0.0101904
-0.00988261
-0.00958026
-0.00928303
-0.00899064
-0.00870285
-0.00841938
-0.00814001
-0.0078645
-0.00759264
-0.00732421
-0.00705902
-0.00679688
-0.00653761
-0.00628103
-0.00602699
-0.00577533
-0.0055259
-0.00527856
-0.00503318
-0.00478964
-0.0045478
-0.00430755
-0.00406879
-0.00383142
-0.00359532
-0.0033604
-0.00312657
-0.00289375
-0.00266184
-0.00243077
-0.00220045
-0.00197082
-0.00174179
-0.00151327
-0.0012853
-0.00105738
-0.000830826
-0.000600343
-0.000380705
-0.000103001
1.46698
0.0959207
0.0664429
0.0508051
-0.00630014
-0.0455006
-0.0679925
-0.127275
-0.256135
-0.397581
-0.576273
-0.149016
0.351
0.449864
0.329008
0.218916
0.210356
0.209205
0.192294
0.177788
0.179431
0.199609
0.201825
0.207959
0.209744
0.214817
0.225036
0.243242
0.278181
0.317343
0.334459
0.341149
0.346802
0.337304
0.316159
0.296546
0.294403
0.30385
0.315396
0.326034
0.334518
0.340266
0.343633
0.344868
0.343189
0.33687
0.324954
0.309237
0.29197
0.274624
0.258355
0.244228
0.232881
0.22423
0.217725
0.212748
0.208818
0.205603
0.202885
0.200517
0.198406
0.196494
0.194726
0.193067
0.191516
0.190095
0.188853
0.18783
0.187037
0.186482
0.186193
0.186278
0.186803
0.187704
0.189022
0.190719
0.192817
0.194877
0.195431
0.190789
0.175149
0.160834
0.1637
0.166402
0.168668
0.170685
0.172243
0.173716
0.175118
0.176124
0.177236
0.179137
0.181835
0.185578
0.192629
0.205723
0.220107
0.191908
0.140024
0.143767
0.151348
0.157961
0.165466
0.174254
0.188796
0.221986
0.287217
0.245788
-0.187443
0.0186553
0.0837573
0.120049
0.15488
0.182282
0.227603
2.03221
0.170273
-0.074909
0.207761
0.569283
1.29219
1.11974
0.853367
0.963227
1.11144
1.33916
1.31355
1.17029
1.17095
1.26775
1.36287
1.41831
1.50843
1.60613
1.64946
1.6559
1.66753
1.68462
1.70161
1.72641
1.75672
1.78467
1.81012
1.83245
1.84894
1.85945
1.86423
1.86335
1.85792
1.84902
1.83721
1.82262
1.8049
1.78351
1.75805
1.72836
1.69455
1.657
1.61626
1.57301
1.52793
1.48166
1.43479
1.38781
1.34112
1.29505
1.24984
1.20567
1.16266
1.12087
1.08032
1.04103
1.00295
0.966064
0.930316
0.895655
0.862028
0.829381
0.797664
0.766835
0.736856
0.707694
0.679326
0.651736
0.624911
0.598846
0.573538
0.548987
0.525193
0.502156
0.479875
0.458346
0.437562
0.417513
0.398185
0.379564
0.361633
0.344374
0.327769
0.311801
0.296453
0.281707
0.267549
0.253962
0.240932
0.228444
0.216484
0.205037
0.194089
0.183624
0.173626
0.164079
0.154966
0.146269
0.13797
0.130049
0.122488
0.115265
0.10836
0.101751
0.095417
0.0893367
0.0834888
0.0778526
0.0724083
0.0671369
0.062021
0.0570443
0.0521925
0.0474531
0.0428155
0.0382712
0.0338136
0.0294382
0.0251422
0.0209246
0.0167861
0.0127285
0.00875486
0.00486923
0.00107634
-0.00261854
-0.00620982
-0.00969175
-0.0130586
-0.0163049
-0.0194253
-0.022415
-0.0252697
-0.0279857
-0.03056
-0.0329904
-0.0352753
-0.0374141
-0.0394066
-0.0412538
-0.0429572
-0.0445191
-0.0459424
-0.0472307
-0.048388
-0.0494189
-0.0503281
-0.0511212
-0.0518034
-0.0523805
-0.0528584
-0.0532428
-0.0535398
-0.053755
-0.0538944
-0.0539635
-0.0539679
-0.0539128
-0.0538035
-0.0536448
-0.0534416
-0.0531983
-0.0529192
-0.0526083
-0.0522696