/*--------------------------------*- C++ -*----------------------------------*\
| =========                 |                                                 |
| \\      /  F ield         | OpenFOAM: The Open Source CFD Toolbox           |
|  \\    /   O peration     | Version:  v2006                                 |
|   \\  /    A nd           | Website:  www.openfoam.com                      |
|    \\/     M anipulation  |                                                 |
\*---------------------------------------------------------------------------*/
FoamFile
{
    version     2.0;
    format      ascii;
    class       volScalarField;
    location    "0";
    object      f;
}
// * * * * * * * * * * * * * * * * * * * * * * * * * * * * * * * * * * * * * //

dimensions      [0 0 0 0 0 0 0];


internalField   nonuniform List<scalar> 
2500
(
-1.61565e-33
-1.52075e-33
-1.21147e-33
-7.09111e-34
-2.1197e-34
1.97321e-34
8.13508e-34
2.09586e-33
4.18384e-33
6.57129e-33
8.33495e-33
8.80007e-33
7.96255e-33
6.33089e-33
4.50949e-33
2.91699e-33
1.72872e-33
9.43989e-34
4.76893e-34
2.23647e-34
9.7684e-35
3.98715e-35
1.52606e-35
5.49599e-36
1.86874e-36
6.01847e-37
1.8416e-37
5.36942e-38
1.4957e-38
3.99049e-39
1.02203e-39
2.51809e-40
5.97974e-41
1.37108e-41
3.04025e-42
6.52919e-43
1.35985e-43
2.74996e-44
5.4056e-45
1.03389e-45
1.92581e-46
3.49629e-47
6.19132e-48
1.07012e-48
1.80641e-49
2.97977e-50
4.80568e-51
7.5812e-52
1.17037e-52
1.76885e-53
-1.16994e-32
-1.11055e-32
-9.01397e-33
-5.32152e-33
-1.56228e-33
1.05253e-33
4.15468e-33
1.12203e-32
2.40158e-32
3.96647e-32
5.1788e-32
5.53955e-32
5.0258e-32
3.98416e-32
2.82399e-32
1.81854e-32
1.07462e-32
5.86164e-33
2.96225e-33
1.39099e-33
6.08635e-34
2.48909e-34
9.54514e-35
3.44376e-35
1.17286e-35
3.783e-36
1.15919e-36
3.38429e-37
9.43985e-38
2.52198e-38
6.46854e-39
1.59619e-39
3.79683e-40
8.72142e-41
1.93769e-41
4.17011e-42
8.70465e-43
1.76448e-43
3.47708e-44
6.66753e-45
1.24524e-45
2.26682e-46
4.02508e-47
6.97597e-48
1.18077e-48
1.95292e-49
3.15781e-50
4.99418e-51
7.72867e-52
1.1708e-52
-8.22056e-32
-7.87901e-32
-6.52158e-32
-3.85322e-32
-1.01502e-32
6.83143e-33
2.0307e-32
5.59539e-32
1.31526e-31
2.3197e-31
3.1387e-31
3.40827e-31
3.09886e-31
2.44484e-31
1.72051e-31
1.10079e-31
6.47741e-32
3.52714e-32
1.78308e-32
8.38672e-33
3.67827e-33
1.50815e-33
5.79807e-34
2.0968e-34
7.15647e-35
2.31278e-35
7.09958e-36
2.07629e-36
5.80115e-37
1.55248e-37
3.98892e-38
9.86145e-39
2.35039e-39
5.41042e-40
1.2048e-40
2.59915e-41
5.43937e-42
1.10556e-42
2.18469e-43
4.20136e-44
7.86954e-45
1.43682e-45
2.55889e-46
4.44798e-47
7.55067e-48
1.2524e-48
2.03069e-49
3.22017e-50
4.99606e-51
7.58683e-52
-5.59637e-31
-5.42369e-31
-4.58249e-31
-2.6868e-31
-5.54848e-32
5.78389e-32
9.96482e-32
2.5496e-31
6.82379e-31
1.3132e-30
1.85666e-30
2.05121e-30
1.86747e-30
1.46272e-30
1.01892e-30
6.4595e-31
3.77806e-31
2.05209e-31
1.03776e-31
4.89184e-32
2.1522e-32
8.85464e-33
3.41555e-33
1.239e-33
4.24057e-34
1.37388e-34
4.22707e-35
1.23888e-35
3.46861e-36
9.30182e-37
2.39508e-37
5.93428e-38
1.4177e-38
3.27154e-39
7.30432e-40
1.58016e-40
3.31651e-41
6.76127e-42
1.34027e-42
2.5857e-43
4.85893e-44
8.90027e-45
1.5902e-45
2.77297e-46
4.72195e-47
7.85585e-48
1.2775e-48
2.03147e-49
3.16021e-50
4.81106e-51
-3.68508e-30
-3.61724e-30
-3.12328e-30
-1.80003e-30
-2.13838e-31
5.66508e-31
5.4716e-31
1.02742e-30
3.31855e-30
7.19059e-30
1.07304e-29
1.2089e-29
1.10075e-29
8.53268e-30
5.86011e-30
3.66758e-30
2.12679e-30
1.15101e-30
5.82319e-31
2.75321e-31
1.21646e-31
5.0279e-32
1.94807e-32
7.09536e-33
2.4372e-33
7.92149e-34
2.4443e-34
7.18297e-35
2.01622e-35
5.42055e-36
1.39926e-36
3.47606e-37
8.32708e-38
1.92713e-38
4.31569e-39
9.36578e-40
1.97221e-40
4.03435e-41
8.02502e-42
1.55367e-42
2.92995e-43
5.38583e-44
9.65635e-45
1.68962e-45
2.88672e-46
4.81799e-47
7.85895e-48
1.25337e-48
1.95516e-49
2.98423e-50
-2.34263e-29
-2.33357e-29
-2.06212e-29
-1.15568e-29
7.55697e-32
5.59529e-30
3.75598e-30
3.44047e-30
1.48689e-29
3.80612e-29
6.06746e-29
6.98696e-29
6.35248e-29
4.85407e-29
3.26965e-29
2.01001e-29
1.15152e-29
6.1999e-30
3.13857e-30
1.4902e-30
6.6232e-31
2.75474e-31
1.07369e-31
3.93158e-32
1.35679e-32
4.42797e-33
1.37129e-33
4.0431e-34
1.13842e-34
3.06987e-35
7.94856e-36
1.98069e-36
4.76e-37
1.10526e-37
2.48373e-38
5.40946e-39
1.14332e-39
2.34763e-40
4.68782e-41
9.11093e-42
1.72479e-42
3.18262e-43
5.72753e-44
1.00582e-44
1.72448e-45
2.88788e-46
4.72569e-47
7.55949e-48
1.18257e-48
1.80978e-49
-1.43468e-28
-1.45362e-28
-1.3172e-28
-7.09116e-29
1.2776e-29
5.24338e-29
3.12744e-29
8.32757e-30
5.94236e-29
1.94689e-28
3.36251e-28
3.96655e-28
3.59379e-28
2.69387e-28
1.76765e-28
1.05991e-28
5.96803e-29
3.18971e-29
1.61638e-29
7.72216e-30
3.46103e-30
1.4521e-30
5.70553e-31
2.10403e-31
7.30522e-32
2.39655e-32
7.45566e-33
2.20721e-33
6.23836e-34
1.68834e-34
4.38713e-35
1.09717e-35
2.64647e-36
6.16847e-37
1.39162e-37
3.04315e-38
6.45848e-39
1.33173e-39
2.67049e-40
5.21213e-41
9.90835e-42
1.83581e-42
3.31696e-43
5.8474e-44
1.00624e-44
1.69099e-45
2.77629e-46
4.45492e-47
6.98926e-48
1.0725e-48
-8.44434e-28
-8.72551e-28
-8.13067e-28
-4.1475e-28
1.73376e-28
4.58905e-28
2.77872e-28
1.08083e-29
1.96239e-28
9.62197e-28
1.8297e-27
2.21547e-27
1.99569e-27
1.45917e-27
9.24574e-28
5.35408e-28
2.94012e-28
1.55473e-28
7.89362e-29
3.80685e-29
1.72733e-29
7.33715e-30
2.91499e-30
1.08517e-30
3.79767e-31
1.25418e-31
3.92397e-32
1.16749e-32
3.31484e-33
9.00997e-34
2.35108e-34
5.90446e-35
1.43027e-35
3.3482e-36
7.58721e-37
1.66668e-37
3.55348e-38
7.36119e-39
1.48296e-39
2.90764e-40
5.55236e-41
1.03324e-41
1.87476e-42
3.31836e-43
5.73229e-44
9.66815e-45
1.59273e-45
2.56386e-46
4.03423e-47
6.20728e-48
-4.76374e-27
-5.03571e-27
-4.846e-27
-2.30853e-27
1.71407e-27
3.74958e-27
2.41e-27
6.90527e-29
3.98336e-28
4.59248e-27
9.7906e-27
1.219e-26
1.08917e-26
7.71822e-27
4.66976e-27
2.57419e-27
1.36164e-27
7.08606e-28
3.61139e-28
1.76834e-28
8.17622e-29
3.53618e-29
1.4269e-29
5.38035e-30
1.90258e-30
6.33685e-31
1.99674e-31
5.97732e-32
1.70645e-32
4.66197e-33
1.22249e-33
3.08504e-34
7.50948e-35
1.76661e-35
4.02326e-36
8.88259e-37
1.90348e-37
3.96319e-38
8.02434e-39
1.58111e-39
3.03378e-40
5.67178e-41
1.03369e-41
1.83737e-42
3.1866e-43
5.3946e-44
8.91794e-45
1.44015e-45
2.27278e-46
3.50647e-47
-2.56774e-26
-2.78704e-26
-2.78827e-26
-1.22421e-26
1.44557e-26
2.86972e-26
1.97218e-26
1.81614e-27
-9.52661e-28
2.11277e-26
5.15446e-26
6.611e-26
5.84688e-26
3.98837e-26
2.27136e-26
1.16602e-26
5.8141e-27
2.94884e-27
1.51516e-27
7.61866e-28
3.63186e-28
1.61447e-28
6.66213e-29
2.55668e-29
9.16611e-30
3.08634e-30
9.81144e-31
2.95907e-31
8.50329e-32
2.33705e-32
6.16337e-33
1.56406e-33
3.82828e-34
9.05615e-35
2.07398e-35
4.60464e-36
9.92265e-37
2.07742e-37
4.22907e-38
8.37703e-39
1.61556e-39
3.03512e-40
5.5572e-41
9.92103e-42
1.72766e-42
2.93589e-43
4.87042e-44
7.8906e-45
1.24892e-45
1.93201e-46
-1.31774e-25
-1.47491e-25
-1.55007e-25
-6.23252e-26
1.09212e-25
2.06445e-25
1.5107e-25
2.5778e-26
-1.76981e-26
9.31086e-26
2.66667e-25
3.53166e-25
3.08767e-25
2.01363e-25
1.05974e-25
4.88833e-26
2.19954e-26
1.0638e-26
5.57538e-27
2.95514e-27
1.48734e-27
6.9115e-28
2.94912e-28
1.16012e-28
4.23648e-29
1.44659e-29
4.64964e-30
1.41504e-30
4.09808e-31
1.13425e-31
3.01101e-32
7.6896e-33
1.89396e-33
4.50828e-34
1.03887e-34
2.32075e-35
5.0316e-36
1.05974e-36
2.16992e-37
4.3224e-38
8.38084e-39
1.58252e-39
2.91145e-40
5.22101e-41
9.1298e-42
1.55742e-42
2.59275e-43
4.21401e-44
6.68935e-45
1.03752e-45
-6.41283e-25
-7.43842e-25
-8.34636e-25
-3.10935e-25
7.54102e-25
1.39976e-24
1.08392e-24
2.65383e-25
-1.36347e-25
3.86455e-25
1.35058e-24
1.85449e-24
1.60264e-24
9.92784e-25
4.71354e-25
1.82978e-25
6.62188e-26
2.83684e-26
1.58717e-26
9.62697e-27
5.42695e-27
2.72847e-27
1.22733e-27
5.00391e-28
1.87349e-28
6.51392e-29
2.12257e-29
6.53056e-30
1.90874e-30
5.32601e-31
1.42453e-31
3.66425e-32
9.08859e-33
2.1784e-33
5.05424e-34
1.1367e-34
2.48078e-35
5.25857e-36
1.08342e-36
2.17093e-37
4.23294e-38
8.03511e-39
1.48555e-39
2.67614e-40
4.69935e-41
8.04729e-42
1.34438e-42
2.19195e-43
3.48944e-44
5.42595e-45
-2.94735e-24
-3.56204e-24
-4.37261e-24
-1.5812e-24
4.79942e-24
8.96086e-24
7.30389e-24
2.26154e-24
-8.1877e-25
1.44373e-24
6.6485e-24
9.5363e-24
8.15974e-24
4.77352e-24
1.97827e-24
5.57139e-25
8.73118e-26
6.74468e-27
1.4717e-26
2.04271e-26
1.62267e-26
9.62948e-27
4.74104e-27
2.0398e-27
7.90443e-28
2.81338e-28
9.32406e-29
2.90644e-29
8.5863e-30
2.41828e-30
6.52338e-31
1.69154e-31
4.22841e-32
1.02124e-32
2.38719e-33
5.40814e-34
1.18869e-34
2.53695e-35
5.26108e-36
1.06073e-36
2.08028e-37
3.97026e-38
7.3771e-39
1.33507e-39
2.35427e-40
4.04691e-41
6.78407e-42
1.10954e-42
1.7712e-43
2.76093e-44
-1.27583e-23
-1.61391e-23
-2.24363e-23
-8.61769e-24
2.82145e-23
5.42088e-23
4.6337e-23
1.69048e-23
-4.32588e-24
4.19062e-24
3.14445e-23
4.77689e-23
4.06284e-23
2.23312e-23
7.69153e-24
8.84286e-25
-8.0042e-25
-6.32683e-25
-2.4045e-25
-3.19892e-26
2.79604e-26
2.8276e-26
1.66412e-26
7.79963e-27
3.17215e-27
1.16387e-27
3.93835e-28
1.2467e-28
3.72869e-29
1.06127e-29
2.89014e-30
7.56137e-31
1.9064e-31
4.64273e-32
1.09407e-32
2.4981e-33
5.53233e-34
1.18927e-34
2.48317e-35
5.03869e-36
9.94076e-37
1.90768e-37
3.56257e-38
6.47707e-39
1.14694e-39
1.97895e-40
3.32861e-41
5.4603e-42
8.73969e-43
1.36553e-43
-5.22404e-23
-6.90763e-23
-1.13598e-22
-5.16536e-23
1.52818e-22
3.09897e-22
2.77228e-22
1.14111e-22
-2.15806e-23
2.13515e-24
1.4031e-22
2.31521e-22
1.97093e-22
1.0131e-22
2.668e-23
-4.85585e-24
-9.70011e-24
-6.11649e-24
-2.56341e-24
-7.38082e-25
-9.15998e-26
5.30576e-26
5.09201e-26
2.76937e-26
1.20748e-26
4.608e-27
1.59904e-27
5.15307e-28
1.56273e-28
4.5001e-29
1.23835e-29
3.27151e-30
8.32521e-31
2.04574e-31
4.86281e-32
1.11963e-32
2.49937e-33
5.41349e-34
1.13834e-34
2.32509e-35
4.61503e-36
8.90578e-37
1.67156e-37
3.05293e-38
5.42822e-39
9.40036e-40
1.5863e-40
2.60969e-41
4.18763e-42
6.55745e-43
-2.08428e-22
-2.81088e-22
-5.70637e-22
-3.31465e-22
7.56862e-22
1.6727e-21
1.56538e-21
7.06672e-22
-1.09505e-22
-1.04516e-22
5.72761e-22
1.07689e-21
9.27945e-22
4.44019e-22
7.48502e-23
-6.55791e-23
-7.18732e-23
-4.19822e-23
-1.78897e-23
-5.83194e-24
-1.33265e-24
-8.13015e-26
1.22162e-25
9.00373e-26
4.35134e-26
1.74643e-26
6.24349e-27
2.0529e-27
6.32103e-28
1.84331e-28
5.12959e-29
1.36935e-29
3.51945e-30
8.73133e-31
2.09464e-31
4.86534e-32
1.09518e-32
2.39073e-33
5.06391e-34
1.04127e-34
2.0795e-35
4.03526e-36
7.61198e-37
1.39651e-37
2.493e-38
4.33262e-39
7.33415e-40
1.20989e-40
1.9461e-41
3.05375e-42
-8.92765e-22
-1.1226e-21
-2.84299e-21
-2.15005e-21
3.37676e-21
8.50823e-21
8.34279e-21
4.05085e-21
-6.03422e-22
-1.2004e-21
2.00667e-21
4.75948e-21
4.22674e-21
1.87383e-21
1.04757e-22
-4.92044e-22
-4.40337e-22
-2.44968e-22
-1.03965e-22
-3.5278e-23
-9.31493e-24
-1.55265e-24
1.33641e-25
2.62697e-25
1.48529e-25
6.34894e-26
2.34772e-26
7.88854e-27
2.46804e-27
7.29242e-28
2.05324e-28
5.54139e-29
1.43919e-29
3.60656e-30
8.736e-31
2.04787e-31
4.64979e-32
1.02324e-32
2.18354e-33
4.52053e-34
9.08365e-35
1.77247e-35
3.36012e-36
6.19173e-37
1.10963e-37
1.93505e-38
3.28541e-39
5.43394e-40
8.76013e-41
1.37726e-41
-4.85556e-21
-4.80627e-21
-1.39328e-20
-1.34053e-20
1.31747e-20
4.06449e-20
4.19641e-20
2.16077e-20
-3.62217e-21
-9.73798e-21
4.93672e-21
1.97277e-20
1.8601e-20
7.60947e-21
-6.09339e-22
-3.01079e-21
-2.3996e-21
-1.28058e-21
-5.35537e-22
-1.83515e-22
-5.11311e-23
-1.05189e-23
-7.62117e-25
6.68102e-25
4.83088e-25
2.2245e-25
8.52474e-26
2.9274e-26
9.30466e-27
2.78549e-27
7.93602e-28
2.16593e-28
5.68645e-29
1.43999e-29
3.52323e-30
8.33822e-31
1.91023e-31
4.23863e-32
9.11382e-33
1.89982e-33
3.84117e-34
7.53656e-35
1.43572e-35
2.65701e-36
4.77965e-37
8.36246e-38
1.42386e-38
2.3608e-39
3.81389e-40
6.0069e-41
-3.51163e-20
-2.51093e-20
-6.61857e-20
-7.78708e-20
4.19615e-20
1.81249e-19
1.99376e-19
1.07688e-19
-2.21001e-20
-6.74212e-20
-2.45328e-21
7.51924e-20
7.92501e-20
2.99222e-20
-7.27146e-21
-1.63418e-20
-1.19584e-20
-6.12135e-21
-2.50175e-21
-8.51555e-22
-2.41369e-22
-5.36816e-23
-6.80637e-24
1.42901e-24
1.52151e-24
7.57398e-25
3.00047e-25
1.05061e-25
3.38722e-26
1.02645e-26
2.95805e-27
8.16397e-28
2.16715e-28
5.5475e-29
1.37154e-29
3.27826e-30
7.58009e-31
1.69634e-31
3.6758e-32
7.71593e-33
1.56977e-33
3.09691e-34
5.92813e-35
1.10172e-35
1.98911e-36
3.49115e-37
5.96046e-38
9.90549e-39
1.60338e-39
2.52951e-40
-2.86681e-19
-1.63124e-19
-2.99595e-19
-4.14251e-19
8.57275e-20
7.45789e-19
8.9809e-19
5.0421e-19
-1.25106e-19
-4.19124e-19
-1.40313e-19
2.54182e-19
3.29385e-19
1.16354e-19
-4.94147e-20
-8.12468e-20
-5.51716e-20
-2.69711e-20
-1.06827e-20
-3.56795e-21
-1.00719e-21
-2.2957e-22
-3.39662e-23
2.62313e-24
4.78518e-24
2.53441e-24
1.02806e-24
3.64995e-25
1.18967e-25
3.64243e-26
1.06077e-26
2.95975e-27
7.94498e-28
2.05663e-28
5.14047e-29
1.24149e-29
2.89854e-30
6.54438e-31
1.4295e-31
3.02217e-32
6.18733e-33
1.22742e-33
2.36085e-34
4.4058e-35
7.98298e-36
1.4054e-36
2.40569e-37
4.00671e-38
6.49752e-39
1.02662e-39
-2.25943e-18
-1.14537e-18
-1.27117e-18
-1.99359e-18
-9.522e-20
2.76628e-18
3.87498e-18
2.24108e-18
-6.01165e-19
-2.38796e-18
-1.22495e-18
6.98345e-19
1.35713e-18
4.68162e-19
-2.74164e-19
-3.76173e-19
-2.36932e-19
-1.0968e-19
-4.16848e-20
-1.35022e-20
-3.7324e-21
-8.42903e-22
-1.27509e-22
6.43553e-24
1.56433e-23
8.42982e-24
3.43933e-24
1.22666e-24
4.02077e-25
1.24012e-25
3.64452e-26
1.02762e-26
2.79018e-27
7.3083e-28
1.84812e-28
4.51353e-29
1.06477e-29
2.42689e-30
5.34608e-31
1.13871e-31
2.34657e-32
4.68144e-33
9.04832e-34
1.69563e-34
3.08326e-35
5.44434e-36
9.34282e-37
1.55934e-37
2.53312e-38
4.00808e-39
-1.59748e-17
-7.54236e-18
-4.95938e-18
-8.49945e-18
-2.15509e-18
8.81639e-18
1.63618e-17
9.64385e-18
-2.1787e-18
-1.26588e-17
-7.91981e-18
1.08557e-18
5.69249e-18
2.07755e-18
-1.3619e-18
-1.6425e-18
-9.48786e-19
-4.10097e-19
-1.47595e-19
-4.57314e-20
-1.21554e-20
-2.62927e-21
-3.63507e-22
3.65162e-23
5.45125e-23
2.80281e-23
1.12265e-23
3.97205e-24
1.29992e-24
4.02295e-25
1.19101e-25
3.39298e-26
9.32538e-27
2.47468e-27
6.3405e-28
1.56805e-28
3.74231e-29
8.61938e-30
1.91638e-30
4.11496e-31
8.53904e-32
1.71373e-32
3.32911e-33
6.26538e-34
1.14337e-34
2.02499e-35
3.48367e-36
5.82628e-37
9.4806e-38
1.50213e-38
-9.95639e-17
-4.24958e-17
-1.70522e-17
-3.01938e-17
-1.36969e-17
2.18125e-17
7.01063e-17
4.15558e-17
-4.3956e-18
-6.38783e-17
-4.50193e-17
-3.16794e-18
2.51699e-17
1.05611e-17
-6.43811e-18
-6.86693e-18
-3.53863e-18
-1.39575e-18
-4.66783e-19
-1.35706e-19
-3.37581e-20
-6.60878e-21
-6.39948e-22
2.44773e-22
1.99482e-22
9.26263e-23
3.54988e-23
1.22735e-23
3.97386e-24
1.22793e-24
3.65599e-25
1.05297e-25
2.93551e-26
7.91379e-27
2.06017e-27
5.17261e-28
1.25166e-28
2.91838e-29
6.55797e-30
1.42106e-30
2.97177e-31
6.00306e-32
1.17252e-32
2.2167e-33
4.06044e-34
7.21362e-35
1.24413e-35
2.08505e-36
3.39845e-37
5.3917e-38
-5.90417e-16
-1.78969e-16
-4.49363e-17
-7.58158e-17
-6.32438e-17
3.58285e-17
3.78859e-16
1.90803e-16
3.55539e-18
-4.07203e-16
-2.54817e-16
-3.67992e-17
1.28065e-16
6.03907e-17
-3.10597e-17
-2.81275e-17
-1.21964e-17
-4.22822e-18
-1.27676e-18
-3.37048e-19
-7.40614e-20
-1.1024e-20
5.78572e-22
1.36043e-21
7.31928e-22
2.98774e-22
1.07002e-22
3.55074e-23
1.12352e-23
3.44437e-24
1.03031e-24
3.009e-25
8.55345e-26
2.35654e-26
6.26861e-27
1.60574e-27
3.95526e-28
9.36456e-29
2.13182e-29
4.66988e-30
9.85397e-31
2.00534e-31
3.94073e-32
7.48722e-33
1.37704e-33
2.45444e-34
4.24444e-35
7.12844e-36
1.16385e-36
1.84893e-37
-3.03569e-15
-6.01445e-16
-1.54059e-16
-7.38104e-16
-2.77653e-16
3.09595e-15
5.05827e-15
8.51498e-16
-1.94336e-15
-6.47172e-15
-1.24254e-15
-1.11119e-16
1.57787e-15
3.77729e-16
-1.84259e-16
-1.17276e-16
-3.75198e-17
-1.07727e-17
-2.80339e-18
-6.21793e-19
-9.62078e-20
3.34562e-21
1.11933e-20
6.2182e-21
2.56581e-21
9.1487e-22
2.9872e-22
9.26405e-23
2.80534e-23
8.44568e-24
2.54164e-24
7.60149e-25
2.23377e-25
6.37733e-26
1.75449e-26
4.62946e-27
1.16926e-27
2.82626e-28
6.54326e-29
1.45299e-29
3.09975e-30
6.36391e-31
1.25944e-31
2.40645e-32
4.44596e-33
7.9532e-34
1.3793e-34
2.32178e-35
3.79751e-36
6.04125e-37
-6.12812e-15
-5.01348e-14
-1.3978e-13
-1.19432e-13
4.24641e-14
1.79431e-13
2.97305e-14
-5.79264e-14
-2.55077e-13
-3.80415e-14
1.75821e-14
7.37013e-14
1.44919e-14
1.35709e-15
-3.26024e-15
-4.87118e-16
-8.59905e-17
-1.91987e-17
-3.88806e-18
-4.55342e-19
1.20757e-19
1.20219e-19
6.03568e-20
2.40388e-20
8.28979e-21
2.5638e-21
7.31177e-22
1.99371e-22
5.45527e-23
1.56833e-23
4.80537e-24
1.5295e-24
4.85821e-25
1.49373e-25
4.37536e-26
1.21388e-26
3.18821e-27
7.94274e-28
1.88221e-28
4.25547e-29
9.20583e-30
1.91058e-30
3.81321e-31
7.33439e-32
1.36209e-32
2.44653e-33
4.25649e-34
7.18286e-35
1.17711e-35
1.8754e-36
9.31092e-13
-9.1822e-13
-2.31733e-12
-6.62122e-13
4.71525e-12
9.90697e-13
-4.80788e-12
-9.64762e-12
-1.51358e-12
3.38439e-12
3.14423e-12
4.3775e-13
-6.81019e-15
-1.78211e-13
-2.50675e-14
-6.32859e-17
-2.19375e-17
-5.99345e-18
1.30204e-18
2.12862e-18
1.30027e-18
5.99046e-19
2.34476e-19
8.02495e-20
2.40083e-20
6.20294e-21
1.3556e-21
2.43757e-22
3.64609e-23
6.51052e-24
2.6721e-24
1.44992e-24
6.75488e-25
2.65011e-25
9.07012e-26
2.78711e-26
7.84422e-27
2.05044e-27
5.02811e-28
1.16539e-28
2.56769e-29
5.40249e-30
1.08947e-30
2.11209e-31
3.9462e-32
7.12108e-33
1.24339e-33
2.10406e-34
3.45546e-35
5.51431e-36
1.29069e-10
3.0409e-12
-9.18782e-12
1.10523e-10
2.8571e-11
-2.54565e-10
-3.12546e-10
-5.35403e-11
1.58447e-10
1.15704e-10
1.60599e-11
-2.73135e-12
-7.40127e-12
-1.09157e-12
1.10627e-14
1.64165e-15
1.65408e-16
4.21654e-17
1.96928e-17
1.09802e-17
5.12068e-18
2.08023e-18
7.49449e-19
2.3414e-19
6.01646e-20
1.11197e-20
5.56648e-22
-6.44963e-22
-3.6421e-22
-1.27436e-22
-3.3864e-23
-6.75686e-24
-7.43797e-25
1.39504e-25
1.23861e-25
5.13765e-26
1.67563e-26
4.76853e-27
1.23358e-27
2.96273e-28
6.69057e-29
1.43262e-29
2.92608e-30
5.72631e-31
1.07746e-31
1.95469e-32
3.42683e-33
5.81675e-34
9.5752e-35
1.53077e-35
5.42448e-10
1.49777e-09
4.40221e-09
3.58392e-09
-3.7493e-09
-6.70755e-09
-1.5273e-09
5.77612e-09
3.76653e-09
5.07508e-10
-1.42779e-10
-2.58195e-10
-4.01957e-11
4.03406e-13
7.72889e-14
1.48324e-15
3.05513e-17
4.83058e-17
4.21137e-17
3.34446e-17
1.52399e-17
5.9672e-18
2.07719e-18
5.9717e-19
1.19423e-19
3.0732e-21
-1.11019e-20
-6.62702e-21
-2.63238e-21
-8.43035e-22
-2.29387e-22
-5.35744e-23
-1.04769e-23
-1.53891e-24
-7.72726e-26
5.41462e-26
2.85514e-26
9.69534e-27
2.74347e-27
6.94414e-28
1.62129e-28
3.54988e-29
7.36372e-30
1.45708e-30
2.76376e-31
5.04374e-32
8.88163e-33
1.51262e-33
2.49628e-34
3.99839e-35
-1.34293e-09
3.00564e-08
3.97309e-08
1.42375e-08
-7.52425e-08
-2.76827e-08
1.18041e-07
9.23253e-08
1.52013e-08
-1.7491e-08
-1.06481e-08
-1.33526e-09
1.02077e-11
2.29745e-12
6.97029e-14
-2.87086e-16
-6.24037e-16
-6.21616e-17
5.37304e-17
1.26205e-16
4.35311e-17
1.52151e-17
5.10494e-18
1.29329e-18
1.18199e-19
-9.7018e-20
-7.42842e-20
-3.38101e-20
-1.21648e-20
-3.73321e-21
-1.00688e-21
-2.4115e-22
-5.10415e-23
-9.28503e-24
-1.32381e-24
-8.91997e-26
2.8569e-26
1.63724e-26
5.46014e-27
1.49456e-27
3.64696e-28
8.20656e-29
1.73321e-29
3.47204e-30
6.64315e-31
1.21997e-31
2.15817e-32
3.68814e-33
6.10222e-34
9.79323e-35
-1.85929e-08
7.78759e-08
9.13344e-08
-7.35479e-07
-3.1043e-07
1.26168e-06
1.3062e-06
3.28081e-07
-8.85055e-07
-4.42101e-07
-5.30925e-08
1.50356e-10
4.23363e-11
2.7034e-12
-7.29017e-15
-4.36089e-14
-4.94912e-15
-3.9674e-16
6.01781e-15
1.10502e-15
1.26011e-16
3.33209e-17
1.09252e-17
2.10833e-18
-4.61961e-19
-6.23734e-19
-3.37555e-19
-1.35821e-19
-4.57519e-20
-1.3504e-20
-3.56736e-21
-8.51114e-22
-1.83333e-22
-3.52172e-23
-5.81396e-24
-7.332e-25
-3.07513e-26
2.07235e-26
9.69447e-27
2.96983e-27
7.64934e-28
1.77451e-28
3.81879e-29
7.74453e-30
1.49425e-30
2.76033e-31
4.90395e-32
8.40676e-33
1.39421e-33
2.24151e-34
-3.06937e-06
-2.33432e-06
-7.59076e-06
-6.34836e-06
3.93626e-06
1.01025e-05
4.15259e-06
-1.39708e-05
-9.26699e-06
-1.76457e-06
-1.81147e-08
5.71418e-11
3.95665e-11
5.20584e-12
-1.29084e-12
-2.99469e-13
1.25415e-12
1.23181e-12
2.72789e-13
6.01826e-15
5.28345e-17
4.16995e-17
1.95408e-17
1.2545e-18
-3.90166e-18
-2.80699e-18
-1.27763e-18
-4.66965e-19
-1.47624e-19
-4.16859e-20
-1.06811e-20
-2.50083e-21
-5.35182e-22
-1.03849e-22
-1.78559e-23
-2.55428e-24
-2.38143e-25
1.52682e-26
1.59971e-26
5.60264e-27
1.52084e-27
3.62281e-28
7.91575e-29
1.62052e-29
3.14607e-30
5.83636e-31
1.04e-31
1.78678e-32
2.96821e-33
4.77825e-34
-2.58761e-05
-4.55219e-05
-4.20416e-05
-1.58167e-05
3.62756e-05
2.95332e-05
-0.000131723
-0.000112779
-2.50073e-05
-1.62671e-06
2.07927e-09
6.57364e-11
1.59854e-09
3.4117e-10
-5.43242e-12
1.09967e-12
2.65635e-11
1.21121e-11
1.23188e-12
-4.02369e-16
-6.54669e-17
4.71316e-17
4.18265e-17
-6.08012e-18
-1.9219e-17
-1.07772e-17
-4.22911e-18
-1.39589e-18
-4.10104e-19
-1.09673e-19
-2.69665e-20
-6.11945e-21
-1.27992e-21
-2.44762e-22
-4.19235e-23
-6.10086e-24
-6.28762e-25
7.67708e-27
2.85798e-26
1.06839e-26
2.95839e-27
7.10523e-28
1.55844e-28
3.19664e-29
6.21246e-30
1.15321e-30
2.05584e-31
3.53334e-32
5.87161e-33
9.45549e-34
-6.40086e-05
-0.000153708
-8.88161e-05
0.000126054
0.000110402
-0.000511246
-0.00092254
-0.000286138
0.00189636
0.00472658
0.00508778
0.00323695
0.00102172
4.64792e-05
-8.8806e-12
9.25004e-11
9.2015e-11
2.65644e-11
1.25432e-12
-4.98009e-15
-6.33365e-16
2.83133e-17
1.64934e-16
-2.20407e-17
-8.60044e-17
-3.75209e-17
-1.21962e-17
-3.53844e-18
-9.48704e-19
-2.36901e-19
-5.51608e-20
-1.19548e-20
-2.39846e-21
-4.40002e-22
-7.17802e-23
-9.67573e-24
-7.94362e-25
8.87433e-26
6.65418e-26
2.20652e-26
5.82859e-27
1.36454e-27
2.94572e-28
5.97848e-29
1.1534e-29
2.1301e-30
3.78368e-31
6.4867e-32
1.07612e-32
1.73105e-33
-5.27423e-05
-0.000241104
0.000313833
0.00137452
-0.000981375
-0.00470662
-0.00272834
0.011424
0.0398486
0.0704872
0.0822737
0.0704729
0.0436524
0.018125
0.0038284
5.13199e-05
9.25042e-11
1.09981e-12
-2.99926e-13
-4.37374e-14
-2.97438e-16
1.48487e-15
1.64261e-15
-6.31517e-17
-4.87074e-16
-1.17266e-16
-2.81251e-17
-6.86623e-18
-1.6423e-18
-3.76112e-19
-8.12281e-20
-1.63361e-20
-3.00909e-21
-4.91552e-22
-6.54444e-23
-4.8209e-24
8.92898e-25
5.59159e-25
1.8343e-25
4.89803e-26
1.16803e-26
2.57816e-27
5.3617e-28
1.06133e-28
2.01255e-29
3.67202e-30
6.46702e-31
1.10203e-31
1.82053e-32
2.92009e-33
0.0011671
0.000791108
0.00366198
0.00500969
-0.00584055
-0.0167945
0.000771991
0.0612187
0.154425
0.25011
0.296972
0.273433
0.192289
0.0984194
0.0323115
0.0038284
-8.88314e-12
-5.43555e-12
-1.29241e-12
-7.35166e-15
6.97391e-14
7.7321e-14
1.10682e-14
-2.50653e-14
-3.26004e-15
-1.84262e-16
-3.10595e-17
-6.43778e-18
-1.36175e-18
-2.74104e-19
-4.93933e-20
-7.26421e-21
-6.07038e-22
1.05438e-22
7.50386e-23
2.67289e-23
7.70346e-24
1.98103e-24
4.71963e-25
1.06102e-25
2.27396e-26
4.67485e-27
9.25535e-28
1.76941e-28
3.27277e-29
5.86549e-30
1.01982e-30
1.72198e-31
2.82633e-32
4.51313e-33
0.00535552
0.00616673
0.0120811
0.0108891
-0.0161043
-0.036102
0.016233
0.157078
0.345167
0.528464
0.632338
0.607414
0.457519
0.257428
0.0984195
0.018125
4.648e-05
3.4117e-10
5.20067e-12
2.70128e-12
2.29744e-12
4.03491e-13
-1.09145e-12
-1.78196e-13
1.35685e-15
3.77669e-16
6.03814e-17
1.05596e-17
2.07739e-18
4.68183e-19
1.16376e-19
2.99322e-20
7.613e-21
1.87491e-21
4.44318e-22
1.01386e-22
2.23495e-23
4.77763e-24
9.93662e-25
2.01542e-25
3.99188e-26
7.72484e-27
1.46037e-27
2.69601e-28
4.85775e-29
8.53886e-30
1.46373e-30
2.44645e-31
3.98667e-32
6.3347e-33
0.0111267
0.0133357
0.0227501
0.0169221
-0.0291471
-0.0556228
0.0405858
0.270572
0.545534
0.796614
0.958295
0.951105
0.758513
0.457519
0.192289
0.0436525
0.00102172
1.59854e-09
3.95706e-11
4.23371e-11
1.02073e-11
-4.01919e-11
-7.40063e-12
-6.81338e-15
1.44904e-14
1.57773e-15
1.28063e-16
2.51695e-17
5.69264e-18
1.35727e-18
3.2945e-19
7.92747e-20
1.8609e-20
4.22903e-21
9.28547e-22
1.9724e-22
4.0662e-23
8.16699e-24
1.60413e-24
3.09056e-25
5.8523e-26
1.09015e-26
1.99738e-27
3.59665e-28
6.35716e-29
1.1015e-29
1.86864e-30
3.10063e-31
5.02844e-32
7.96641e-33
0.0124961
0.0152386
0.0270702
0.019754
-0.0363604
-0.0676741
0.0538939
0.335952
0.651279
0.921327
1.11354
1.13547
0.951105
0.607414
0.273433
0.0704728
0.00323694
6.53228e-11
5.71361e-11
1.50363e-10
-1.33514e-09
-2.58178e-10
-2.73181e-12
4.37726e-13
7.36979e-14
-1.11054e-16
-3.67845e-17
-3.16317e-18
1.08732e-18
6.98972e-19
2.54394e-19
7.52589e-20
1.9747e-20
4.76465e-21
1.07819e-21
2.31824e-22
4.78357e-23
9.55024e-24
1.85725e-24
3.53688e-25
6.62045e-26
1.22065e-26
2.21821e-27
3.97098e-28
6.99389e-29
1.20995e-29
2.05276e-30
3.41051e-31
5.54269e-32
8.80439e-33
0.0053698
0.00648483
0.0184605
0.0181807
-0.030489
-0.0677957
0.0350587
0.302946
0.610195
0.86902
1.06418
1.11354
0.958295
0.632338
0.296972
0.0822736
0.00508777
2.07635e-09
-1.81016e-08
-5.30858e-08
-1.06472e-08
-1.42824e-10
1.60584e-11
3.14398e-12
1.75898e-14
-1.24222e-15
-2.54766e-16
-4.50076e-17
-7.9158e-18
-1.22355e-18
-1.39859e-19
-2.31597e-21
4.9753e-21
2.01677e-21
5.75233e-22
1.40879e-22
3.15679e-23
6.67385e-24
1.35553e-24
2.67589e-25
5.17086e-26
9.8186e-27
1.83429e-27
3.36977e-28
6.07855e-29
1.07468e-29
1.85901e-30
3.14196e-31
5.18321e-32
8.34074e-33
-0.00472935
-0.00640283
0.00133844
0.0118565
-0.0105803
-0.0505419
-0.015133
0.155764
0.411176
0.669697
0.86902
0.921327
0.796614
0.528464
0.25011
0.0704871
0.00472656
-1.62655e-06
-1.76446e-06
-4.42072e-07
-1.74897e-08
5.07479e-10
1.15695e-10
3.38395e-12
-3.80388e-14
-6.47105e-15
-4.07152e-16
-6.38646e-17
-1.26531e-17
-2.38581e-18
-4.18402e-19
-6.72001e-20
-9.67564e-21
-1.18409e-21
-1.00534e-22
3.04768e-24
4.38771e-24
1.48402e-24
3.94279e-25
9.45564e-26
2.13838e-26
4.63591e-27
9.69272e-28
1.95799e-28
3.82292e-29
7.21517e-30
1.31668e-30
2.32448e-31
3.97285e-32
6.57955e-33
-0.00600656
-0.00837972
-0.00779192
0.00401058
0.00782233
-0.020416
-0.048607
0.00040658
0.169167
0.411176
0.610195
0.651279
0.545534
0.345167
0.154425
0.0398486
0.00189635
-2.50067e-05
-9.26669e-06
-8.85012e-07
1.52004e-08
3.76627e-09
1.58432e-10
-1.51347e-12
-2.55057e-13
-1.94312e-15
3.57752e-18
-4.38149e-18
-2.17183e-18
-5.98419e-19
-1.24154e-19
-2.18046e-20
-3.53838e-21
-5.81468e-22
-1.04147e-22
-2.03547e-23
-4.06163e-24
-7.64883e-25
-1.2591e-25
-1.57721e-26
-6.12932e-28
4.55769e-28
2.05568e-28
6.08828e-29
1.50892e-29
3.35068e-30
6.86919e-31
1.32148e-31
2.40986e-32
4.19455e-33
0.000327247
-0.000318444
-0.0043725
-0.00186496
0.0113431
0.00575428
-0.0367485
-0.0626692
0.000406587
0.155764
0.302946
0.335952
0.270572
0.157078
0.0612188
0.011424
-0.000286131
-0.000112776
-1.39704e-05
3.28065e-07
9.23201e-08
5.77569e-09
-5.35361e-11
-9.64682e-12
-5.79192e-14
8.51521e-16
1.90834e-16
4.15743e-17
9.65225e-18
2.2443e-18
5.05299e-19
1.08021e-19
2.17008e-20
4.07507e-21
7.12547e-22
1.1545e-22
1.71924e-23
2.32005e-24
2.7669e-25
2.7861e-26
2.18299e-27
1.30984e-28
2.08557e-29
9.89763e-30
3.67728e-30
1.06196e-30
2.59841e-31
5.66232e-32
1.13095e-32
2.10743e-33
0.00279297
0.00368968
0.00131103
-0.00273873
0.00323686
0.0114527
-0.00237343
-0.0367485
-0.0486069
-0.015133
0.0350587
0.0538938
0.0405858
0.016233
0.000772039
-0.00272832
-0.00092253
-0.000131721
4.15246e-06
1.30615e-06
1.18034e-07
-1.5272e-09
-3.12523e-10
-4.80732e-12
2.97294e-14
5.05824e-15
3.789e-16
7.01256e-17
1.63702e-17
3.87805e-18
8.9909e-19
1.99672e-19
4.20451e-20
8.36349e-21
1.57035e-21
2.78353e-22
4.65777e-23
7.35276e-24
1.09335e-24
1.52809e-25
2.00282e-26
2.46179e-27
2.86287e-28
3.25918e-29
3.95512e-30
5.76284e-31
1.03776e-31
2.0875e-32
4.23068e-33
8.23409e-34
-6.94724e-05
0.000560297
0.00159967
-0.000521379
-0.00297408
0.00236123
0.0114526
0.00575428
-0.020416
-0.0505419
-0.0677957
-0.0676741
-0.0556228
-0.036102
-0.0167945
-0.00470662
-0.000511246
2.95326e-05
1.01022e-05
1.26164e-06
-2.76813e-08
-6.70716e-09
-2.54544e-10
9.90614e-13
1.79422e-13
3.09653e-15
3.58463e-17
2.18234e-17
8.82141e-18
2.76814e-18
7.46386e-19
1.81424e-19
4.06923e-20
8.52028e-21
1.67559e-21
3.10552e-22
5.43496e-23
8.98963e-24
1.40536e-24
2.07485e-25
2.88819e-26
3.78109e-27
4.64073e-28
5.32509e-29
5.72008e-30
5.84952e-31
6.04817e-32
7.19918e-33
1.10229e-33
2.0388e-34
-0.00116915
-0.0013149
-0.000285291
0.000672646
-0.00158447
-0.00297408
0.00323685
0.0113431
0.00782233
-0.0105803
-0.030489
-0.0363604
-0.0291471
-0.0161043
-0.00584056
-0.000981381
0.000110401
3.62751e-05
3.93612e-06
-3.10422e-07
-7.52397e-08
-3.74901e-09
2.85689e-11
4.71482e-12
4.24687e-14
-2.77698e-16
-6.32506e-17
-1.36972e-17
-2.15459e-18
-9.49017e-20
8.58588e-20
4.20062e-20
1.31882e-20
3.38048e-21
7.57816e-22
1.53046e-22
2.82662e-23
4.81045e-24
7.56337e-25
1.09643e-25
1.45352e-26
1.72811e-27
1.75757e-28
1.31652e-29
1.36968e-31
-2.04471e-31
-5.41002e-32
-9.95164e-33
-1.53461e-33
-2.08218e-34
-0.000180384
-0.000293372
-0.000451588
9.69225e-05
0.000672644
-0.00052138
-0.00273872
-0.00186496
0.00401056
0.0118565
0.0181807
0.019754
0.0169221
0.0108891
0.00500968
0.00137451
0.000126052
-1.58169e-05
-6.34843e-06
-7.35481e-07
1.42373e-08
3.58388e-09
1.10523e-10
-6.62079e-13
-1.19427e-13
-7.38253e-16
-7.58268e-17
-3.01985e-17
-8.50083e-18
-1.99391e-18
-4.14305e-19
-7.78758e-20
-1.34042e-20
-2.14928e-21
-3.31178e-22
-5.15695e-23
-8.59601e-24
-1.57611e-24
-3.09822e-25
-6.20962e-26
-1.21975e-26
-2.30023e-27
-4.13273e-28
-7.06591e-29
-1.15153e-29
-1.79344e-30
-2.6767e-31
-3.83823e-32
-5.29995e-33
-7.06097e-34
-0.00027542
-4.06862e-05
0.000199522
-0.000451582
-0.000285294
0.00159967
0.00131104
-0.0043725
-0.00779195
0.00133845
0.0184605
0.0270703
0.0227501
0.012081
0.00366195
0.000313816
-8.88187e-05
-4.2043e-05
-7.59095e-06
9.13378e-08
3.97309e-08
4.40209e-09
-9.18762e-12
-2.31729e-12
-1.3978e-13
-1.5396e-16
-4.49189e-17
-1.70475e-17
-4.95836e-18
-1.27094e-18
-2.99529e-19
-6.61652e-20
-1.39263e-20
-2.84109e-21
-5.70118e-22
-1.13466e-22
-2.24051e-23
-4.36566e-24
-8.33167e-25
-1.54711e-25
-2.78259e-26
-4.83553e-27
-8.11214e-28
-1.31404e-28
-2.05693e-29
-3.11505e-30
-4.56986e-31
-6.50279e-32
-8.98687e-33
-1.20768e-33
-0.00138994
-0.00108408
-4.06898e-05
-0.000293368
-0.0013149
0.000560294
0.0036897
-0.000318446
-0.00837975
-0.00640283
0.00648489
0.0152386
0.0133357
0.00616668
0.00079106
-0.000241115
-0.000153716
-4.5524e-05
-2.33437e-06
7.78781e-08
3.0057e-08
1.4978e-09
3.03939e-12
-9.18467e-13
-5.01347e-14
-6.00741e-16
-1.78851e-16
-4.24732e-17
-7.53813e-18