/*--------------------------------*- C++ -*----------------------------------*\
| =========                 |                                                 |
| \\      /  F ield         | OpenFOAM: The Open Source CFD Toolbox           |
|  \\    /   O peration     | Version:  v2006                                 |
|   \\  /    A nd           | Website:  www.openfoam.com                      |
|    \\/     M anipulation  |                                                 |
\*---------------------------------------------------------------------------*/
FoamFile
{
    version     2.0;
    format      ascii;
    class       volScalarField;
    location    "0";
    object      p;
}
// * * * * * * * * * * * * * * * * * * * * * * * * * * * * * * * * * * * * * //

dimensions      [1 -1 -2 0 0 0 0];


internalField   nonuniform List<scalar> 
67500
(
21.5972
20.647
19.4806
18.3753
17.6332
17.7652
18.687
18.2191
15.0139
7.30624
0.697029
-1.2362
-0.197568
-0.431197
0.591597
2.6724
2.75697
1.6611
0.619285
0.865455
1.83626
2.37101
2.12433
1.60328
1.21829
1.01629
1.02251
1.17495
1.33235
1.40646
1.41385
1.40378
1.39917
1.40069
1.40771
1.43285
1.48279
1.52965
1.54187
1.50989
1.43896
1.34705
1.25569
1.1851
1.14877
1.14691
1.17252
1.21657
1.27487
1.3515
1.45377
1.57561
1.66518
1.65627
1.6126
1.58108
1.5612
1.54168
1.51255
1.47073
1.42162
1.37598
1.34551
1.33973
1.36364
1.41747
1.49709
1.58425
1.6197
1.56369
1.4906
1.44931
1.44159
1.47264
1.54635
1.66034
1.80905
1.98203
2.15856
2.30388
2.39504
2.45932
2.53218
2.62337
2.7301
2.84222
2.94192
3.01293
3.06054
3.10919
3.17124
3.2414
3.3105
3.37302
3.43223
3.49539
3.56438
3.63702
3.71245
3.79175
3.87489
3.95917
4.0414
4.11924
4.19026
4.25165
4.30125
4.33783
4.36074
4.36979
4.36529
4.34795
4.31867
4.27851
4.22865
4.17028
4.10452
4.03241
3.95486
3.87264
3.78641
3.69674
3.60408
3.50885
3.41143
3.31216
3.21138
3.10944
3.0067
2.90355
2.80037
2.69755
2.59548
2.4945
2.39495
2.29709
2.20118
2.1074
2.01592
1.92684
1.84025
1.75623
1.6748
1.59599
1.51982
1.44628
1.37536
1.30705
1.24132
1.17815
1.1175
1.05933
1.0036
0.950253
0.899237
0.850493
0.803955
0.759555
0.717221
0.676879
0.638451
0.601859
0.567022
0.533859
0.502289
0.472231
0.443607
0.416336
0.390343
0.365553
0.341894
0.319296
0.297694
0.277025
0.25723
0.238253
0.220042
0.202549
0.18573
0.169544
0.153953
0.138923
0.124425
0.110431
0.0969158
0.0838598
0.0712439
0.0590526
0.0472727
0.0358934
0.0249061
0.0143042
0.00408302
-0.00576046
-0.0152278
-0.0243191
-0.0330335
-0.0413691
-0.0493232
-0.0568926
-0.0640737
-0.0708632
-0.0772574
-0.0832534
-0.0888489
-0.0940425
-0.0988338
-0.103224
-0.107216
-0.110813
-0.114022
-0.116851
-0.119309
-0.121408
-0.123163
-0.124587
-0.125697
-0.126512
-0.127051
-0.127332
-0.127377
-0.127207
-0.126842
-0.126302
-0.125609
-0.124781
-0.123838
-0.122796
-0.121673
-0.120484
-0.119244
-0.117963
-0.116655
-0.115329
-0.113993
-0.112656
-0.111322
-0.109998
-0.108686
-0.107391
-0.106115
-0.104857
-0.103621
-0.102405
-0.101209
-0.100033
-0.0988764
-0.0977373
-0.0966147
-0.0955072
-0.0944135
-0.0933322
-0.0922619
-0.0912014
-0.0901496
-0.0891054
-0.0880679
-0.0870364
-0.0860101
-0.0849887
-0.0839718
-0.0829592
-0.0819508
-0.0809467
-0.0799469
-0.0789518
-0.0779616
-0.0769768
-0.0759977
-0.075025
-0.074059
-0.0731005
-0.0721499
-0.0712078
-0.0702747
-0.0693513
-0.068438
-0.0675354
-0.0666437
-0.0657636
-0.0648952
-0.0640389
-0.0631949
-0.0623633
-0.0615443
-0.0607378
-0.0599437
-0.0591619
-0.0583923
-0.0576344
-0.056888
-0.0561526
-0.0554276
-0.0547126
-0.0540068
-0.0533097
-0.0526205
-0.0519385
-0.051263
-0.0505931
-0.0499283
-0.0492677
-0.0486108
-0.047957
-0.0473057
-0.0466566
-0.0460094
-0.0453638
-0.0447198
-0.0440775
-0.043437
-0.0427987
-0.0421629
-0.0415302
-0.0409013
-0.0402768
-0.0396575
-0.0390442
-0.0384377
-0.0378387
-0.037248
-0.0366664
-0.0360943
-0.0355323
-0.034981
-0.0344404
-0.033911
-0.0333927
-0.0328855
-0.0323893
-0.0319039
-0.0314288
-0.0309637
-0.0305081
-0.0300613
-0.0296226
-0.0291914
-0.0287667
-0.0283477
-0.0279335
-0.0275233
-0.0271162
-0.0267113
-0.026308
-0.0259056
-0.0255038
-0.025102
-0.0247001
-0.0242982
-0.0238962
-0.0234944
-0.0230931
-0.0226928
-0.0222939
-0.021897
-0.0215025
-0.021111
-0.0207232
-0.0203393
-0.01996
-0.0195857
-0.0192166
-0.0188531
-0.0184955
-0.0181439
-0.0177985
-0.0174594
-0.0171266
-0.0168001
-0.0164799
-0.0161659
-0.015858
-0.0155562
-0.0152602
-0.01497
-0.0146853
-0.0144061
-0.014132
-0.013863
-0.0135988
-0.0133393
-0.0130842
-0.0128334
-0.0125867
-0.0123439
-0.0121049
-0.0118694
-0.0116374
-0.0114085
-0.0111828
-0.0109601
-0.0107401
-0.0105228
-0.0103081
-0.0100957
-0.00988568
-0.00967782
-0.00947203
-0.00926821
-0.00906627
-0.0088661
-0.00866762
-0.00847075
-0.00827539
-0.00808149
-0.00788896
-0.00769773
-0.00750774
-0.00731892
-0.00713122
-0.00694459
-0.00675896
-0.0065743
-0.00639053
-0.00620763
-0.00602555
-0.00584425
-0.00566368
-0.0054838
-0.00530459
-0.00512601
-0.00494802
-0.0047706
-0.00459371
-0.00441732
-0.00424142
-0.00406596
-0.00389094
-0.00371631
-0.00354207
-0.00336818
-0.00319462
-0.00302138
-0.00284843
-0.00267575
-0.00250333
-0.00233115
-0.00215919
-0.00198743
-0.00181585
-0.00164444
-0.00147319
-0.00130207
-0.00113105
-0.000960199
-0.000789235
-0.000618958
-0.000446272
-0.000279884
-7.93654e-05
21.2478
20.205
17.6752
17.9434
17.854
17.7712
17.4624
15.4722
8.27024
-0.312071
-2.23591
-1.73951
-2.06071
-1.42263
0.158237
1.36605
2.28157
2.65855
1.71934
1.41544
2.08157
2.59128
2.47184
1.91433
1.59034
1.55878
1.60881
1.58294
1.53146
1.44724
1.32848
1.17423
1.04698
0.995745
1.02602
1.12204
1.24983
1.37112
1.45237
1.46031
1.39468
1.27949
1.14873
1.03305
0.94971
0.911784
0.919499
0.960949
1.02055
1.09107
1.18562
1.3341
1.47844
1.41325
1.33416
1.3073
1.30885
1.31296
1.29972
1.26222
1.20897
1.15775
1.12681
1.13007
1.17394
1.25648
1.37556
1.52616
1.60842
1.50689
1.39448
1.33321
1.30624
1.32283
1.38809
1.49884
1.65114
1.83799
2.04095
2.207
2.28243
2.32316
2.38641
2.47898
2.59639
2.72595
2.84121
2.91053
2.94259
2.9836
3.04935
3.12719
3.20242
3.26496
3.32144
3.38515
3.4576
3.53378
3.612
3.69499
3.78356
3.87375
3.96157
4.04507
4.12183
4.1884
4.24235
4.28272
4.30893
4.32078
4.31872
4.30356
4.27623
4.23787
4.18974
4.13306
4.06902
3.99865
3.92286
3.84243
3.75798
3.67006
3.57911
3.48552
3.38965
3.29183
3.1924
3.09168
2.99006
2.88791
2.78563
2.68364
2.58234
2.48208
2.3832
2.286
2.19071
2.09753
2.00661
1.91807
1.832
1.74846
1.66748
1.5891
1.51333
1.44016
1.36959
1.3016
1.23617
1.17328
1.11289
1.05497
0.999469
0.946342
0.895536
0.846991
0.800644
0.756427
0.714268
0.674094
0.635828
0.59939
0.564702
0.531681
0.500248
0.470321
0.441821
0.414669
0.388788
0.364105
0.340546
0.318043
0.296529
0.275942
0.256223
0.237317
0.219171
0.201738
0.184973
0.168836
0.15329
0.138301
0.123839
0.109877
0.0963905
0.0833592
0.0707649
0.0585919
0.0468275
0.0354611
0.0244841
0.0138904
0.00367539
-0.00616377
-0.0156284
-0.0247184
-0.0334327
-0.041769
-0.0497246
-0.057296
-0.0644794
-0.071271
-0.077667
-0.0836644
-0.0892604
-0.0944534
-0.0992428
-0.10363
-0.107616
-0.111207
-0.114407
-0.117226
-0.119672
-0.121758
-0.123496
-0.124904
-0.125996
-0.126791
-0.12731
-0.12757
-0.127595
-0.127403
-0.127017
-0.126458
-0.125745
-0.124898
-0.123937
-0.122879
-0.12174
-0.120537
-0.119284
-0.117992
-0.116674
-0.115339
-0.113996
-0.112652
-0.111313
-0.109985
-0.108671
-0.107373
-0.106095
-0.104837
-0.1036
-0.102384
-0.101189
-0.100015
-0.0988588
-0.0977209
-0.0965996
-0.0954935
-0.0944012
-0.0933212
-0.0922522
-0.0911929
-0.0901421
-0.0890988
-0.088062
-0.0870311
-0.0860053
-0.0849843
-0.0839676
-0.0829551
-0.0819466
-0.0809423
-0.0799423
-0.0789469
-0.0779563
-0.076971
-0.0759915
-0.0750182
-0.0740517
-0.0730926
-0.0721414
-0.0711988
-0.0702652
-0.0693413
-0.0684275
-0.0675244
-0.0666324
-0.0657519
-0.0648832
-0.0640267
-0.0631825
-0.0623509
-0.0615318
-0.0607254
-0.0599314
-0.0591499
-0.0583805
-0.0576231
-0.0568771
-0.0561421
-0.0554178
-0.0547033
-0.0539983
-0.0533018
-0.0526134
-0.0519321
-0.0512573
-0.0505881
-0.049924
-0.0492641
-0.0486077
-0.0479544
-0.0473036
-0.0466548
-0.0460077
-0.0453622
-0.0447181
-0.0440756
-0.0434348
-0.042796
-0.0421597
-0.0415265
-0.0408968
-0.0402716
-0.0396515
-0.0390374
-0.0384301
-0.0378304
-0.037239
-0.0366567
-0.036084
-0.0355216
-0.0349698
-0.034429
-0.0338994
-0.0333811
-0.032874
-0.032378
-0.0318929
-0.0314183
-0.0309538
-0.0304989
-0.0300529
-0.0296152
-0.029185
-0.0287614
-0.0283436
-0.0279306
-0.0275215
-0.0271153
-0.0267114
-0.0263089
-0.0259071
-0.0255056
-0.025104
-0.0247022
-0.0243001
-0.0238978
-0.0234955
-0.0230937
-0.0226927
-0.0222932
-0.0218955
-0.0215003
-0.0211082
-0.0207197
-0.0203353
-0.0199555
-0.0195807
-0.0192112
-0.0188474
-0.0184896
-0.0181378
-0.0177922
-0.017453
-0.0171202
-0.0167937
-0.0164736
-0.0161597
-0.0158519
-0.0155502
-0.0152544
-0.0149643
-0.0146799
-0.0144008
-0.0141269
-0.0138581
-0.0135941
-0.0133347
-0.0130798
-0.0128292
-0.0125827
-0.0123401
-0.0121012
-0.0118659
-0.011634
-0.0114054
-0.0111798
-0.0109572
-0.0107374
-0.0105202
-0.0103056
-0.0100934
-0.00988344
-0.00967569
-0.00947
-0.00926628
-0.00906443
-0.00886436
-0.00866596
-0.00846917
-0.0082739
-0.00808006
-0.0078876
-0.00769644
-0.00750651
-0.00731776
-0.00713012
-0.00694354
-0.00675796
-0.00657334
-0.00638963
-0.00620677
-0.00602473
-0.00584347
-0.00566294
-0.0054831
-0.00530393
-0.00512538
-0.00494742
-0.00477003
-0.00459317
-0.00441681
-0.00424093
-0.0040655
-0.0038905
-0.0037159
-0.00354168
-0.00336781
-0.00319427
-0.00302105
-0.00284812
-0.00267547
-0.00250307
-0.0023309
-0.00215896
-0.00198721
-0.00181566
-0.00164426
-0.00147302
-0.00130192
-0.00113092
-0.000960085
-0.000789137
-0.000618874
-0.000446204
-0.000279831
-7.93428e-05
19.7244
19.328
17.547
18.0149
17.8686
17.6702
16.9143
11.1466
3.76287
-6.8718
-4.35066
-1.99628
-0.780555
-0.208144
-0.00696397
0.286805
0.414393
0.540236
1.11751
2.20949
2.82681
2.38396
1.58815
0.473078
-0.198435
-0.39071
0.17524
0.988146
1.51201
1.60859
1.50612
1.47525
1.53667
1.55593
1.46469
1.30144
1.12206
0.953534
0.798355
0.669433
0.583617
0.546984
0.555191
0.599191
0.666305
0.729601
0.764881
0.777869
0.80749
0.903646
1.11669
1.52059
1.94483
1.62228
1.40437
1.28854
1.20784
1.14329
1.08232
1.0198
0.957403
0.898878
0.850212
0.820479
0.817762
0.842021
0.912287
1.12783
1.36983
1.15136
0.970916
0.91956
0.919023
0.963719
1.05423
1.18958
1.37072
1.60038
1.87829
2.10795
2.1126
2.07114
2.09976
2.18322
2.31316
2.47505
2.62654
2.68804
2.67843
2.70576
2.78664
2.89018
2.9878
3.05192
3.10052
3.16575
3.24648
3.3297
3.41171
3.50097
3.60065
3.70282
3.80167
3.89674
3.98556
4.06271
4.12532
4.1732
4.20593
4.22325
4.22596
4.21511
4.19164
4.15682
4.1121
4.05879
3.99815
3.93126
3.85902
3.78218
3.70131
3.61692
3.52939
3.4391
3.34634
3.25144
3.15468
3.05641
2.95699
2.85683
2.75635
2.656
2.5562
2.45736
2.35983
2.26392
2.16986
2.07786
1.98808
1.90062
1.81557
1.733
1.65293
1.5754
1.50042
1.42798
1.3581
1.29075
1.22591
1.16358
1.10371
1.04628
0.991239
0.93855
0.88816
0.840012
0.794044
0.75019
0.70838
0.66854
0.630595
0.594466
0.560073
0.527336
0.496174
0.466507
0.438255
0.411339
0.385683
0.361212
0.337854
0.31554
0.294203
0.273781
0.254216
0.235451
0.217436
0.200123
0.183468
0.167431
0.151975
0.137067
0.122677
0.108779
0.0953494
0.0823675
0.0698157
0.057679
0.0459451
0.0346038
0.0236471
0.0130691
0.0028657
-0.00696542
-0.0164252
-0.0255131
-0.0342276
-0.0425661
-0.0505253
-0.0581011
-0.0652893
-0.0720857
-0.0784859
-0.0844862
-0.0900836
-0.0952757
-0.100062
-0.104442
-0.108419
-0.111996
-0.11518
-0.117978
-0.1204
-0.122458
-0.124165
-0.125538
-0.126594
-0.127351
-0.127828
-0.128048
-0.12803
-0.127796
-0.127368
-0.126768
-0.126015
-0.125131
-0.124134
-0.123042
-0.121873
-0.120642
-0.119362
-0.118048
-0.11671
-0.115357
-0.113999
-0.112643
-0.111295
-0.109958
-0.108638
-0.107337
-0.106056
-0.104796
-0.103559
-0.102344
-0.10115
-0.0999768
-0.0988233
-0.097688
-0.0965695
-0.0954662
-0.0943766
-0.0932993
-0.0922328
-0.0911758
-0.0901271
-0.0890856
-0.0880504
-0.0870207
-0.0859959
-0.0849755
-0.0839592
-0.0829468
-0.0819383
-0.0809338
-0.0799333
-0.0789372
-0.0779458
-0.0769596
-0.0759791
-0.0750047
-0.0740371
-0.0730768
-0.0721245
-0.0711807
-0.0702461
-0.0693211
-0.0684063
-0.0675023
-0.0666095
-0.0657284
-0.0648591
-0.0640022
-0.0631577
-0.0623259
-0.0615068
-0.0607005
-0.0599069
-0.0591258
-0.058357
-0.0576003
-0.0568551
-0.0561212
-0.055398
-0.0546848
-0.0539811
-0.0532861
-0.052599
-0.0519193
-0.0512459
-0.0505782
-0.0499155
-0.0492568
-0.0486017
-0.0479494
-0.0472993
-0.0466512
-0.0460045
-0.0453591
-0.0447149
-0.044072
-0.0434306
-0.042791
-0.0421536
-0.041519
-0.040888
-0.0402612
-0.0396395
-0.0390238
-0.0384149
-0.0378137
-0.037221
-0.0366375
-0.0360639
-0.0355008
-0.0349486
-0.0344076
-0.033878
-0.0333598
-0.0328531
-0.0323577
-0.0318733
-0.0313995
-0.0309359
-0.030482
-0.0300371
-0.0296005
-0.0291714
-0.028749
-0.0283324
-0.0279206
-0.0275126
-0.0271076
-0.0267047
-0.026303
-0.025902
-0.025501
-0.0250998
-0.0246982
-0.024296
-0.0238935
-0.0234909
-0.0230885
-0.022687
-0.0222867
-0.0218883
-0.0214924
-0.0210996
-0.0207103
-0.0203253
-0.0199449
-0.0195695
-0.0191996
-0.0188355
-0.0184773
-0.0181254
-0.0177797
-0.0174405
-0.0171077
-0.0167813
-0.0164613
-0.0161476
-0.0158401
-0.0155387
-0.0152432
-0.0149534
-0.0146693
-0.0143906
-0.0141171
-0.0138486
-0.013585
-0.013326
-0.0130715
-0.0128212
-0.012575
-0.0123328
-0.0120943
-0.0118593
-0.0116277
-0.0113993
-0.0111741
-0.0109517
-0.0107322
-0.0105153
-0.0103009
-0.0100889
-0.00987921
-0.00967167
-0.00946619
-0.00926267
-0.009061
-0.0088611
-0.00866287
-0.00846624
-0.00827112
-0.00807743
-0.0078851
-0.00769407
-0.00750426
-0.00731563
-0.0071281
-0.00694162
-0.00675615
-0.00657162
-0.006388
-0.00620523
-0.00602327
-0.00584208
-0.00566163
-0.00548186
-0.00530276
-0.00512427
-0.00494638
-0.00476904
-0.00459224
-0.00441593
-0.00424011
-0.00406473
-0.00388977
-0.00371522
-0.00354104
-0.00336721
-0.00319372
-0.00302053
-0.00284764
-0.00267503
-0.00250266
-0.00233053
-0.00215862
-0.00198691
-0.00181539
-0.00164403
-0.00147281
-0.00130174
-0.00113078
-0.000959967
-0.000789048
-0.000618814
-0.000446174
-0.000279824
-7.93679e-05
18.6859
18.784
18.5067
17.7804
16.6488
12.386
6.88052
1.08948
-0.228201
-0.453594
-0.275598
0.98548
2.73341
1.18243
0.562068
1.55297
1.16745
0.67051
1.33843
2.59325
3.73804
4.87262
3.81176
-0.142471
-0.225372
-0.0879491
0.00935608
0.173971
0.301538
0.277207
0.261792
0.313461
0.374248
0.387439
0.36252
0.333472
0.313328
0.304065
0.298304
0.292719
0.288773
0.288764
0.292626
0.299031
0.30513
0.307802
0.307924
0.310672
0.324702
0.365824
0.475118
0.823523
1.90007
1.01404
0.821875
0.809908
0.783815
0.711871
0.590383
0.438586
0.299247
0.209312
0.185001
0.230536
0.355681
0.561223
0.845806
1.39723
2.0268
1.3752
1.11469
0.958286
0.811621
0.737005
0.724873
0.768705
0.867767
1.03273
1.37553
1.83516
1.70671
1.53351
1.53619
1.64495
1.84263
2.11262
2.38881
2.42597
2.29754
2.2941
2.39716
2.53682
2.67188
2.72544
2.74856
2.81677
2.91734
3.01791
3.10562
3.20506
3.32526
3.44744
3.56223
3.67485
3.78288
3.87588
3.95074
4.00965
4.0521
4.07737
4.08709
4.0826
4.06473
4.03506
3.99533
3.947
3.89143
3.82979
3.76295
3.69155
3.61614
3.5371
3.45479
3.36948
3.28146
3.19096
3.09826
3.00366
2.90753
2.81033
2.71251
2.61458
2.51703
2.42031
2.32479
2.2308
2.1386
2.04838
1.9603
1.87447
1.79097
1.70985
1.63115
1.55489
1.48109
1.40977
1.34091
1.27451
1.21057
1.14906
1.08997
1.03326
0.978916
0.926881
0.877113
0.829558
0.784158
0.740849
0.699561
0.660224
0.62276
0.587094
0.553145
0.520835
0.490081
0.460805
0.432926
0.406366
0.381047
0.356895
0.333837
0.311805
0.290733
0.270557
0.25122
0.232666
0.214846
0.197711
0.181218
0.165328
0.150006
0.135218
0.120936
0.107133
0.0937873
0.0808788
0.0683905
0.0563081
0.0446198
0.0333161
0.0223897
0.0118354
0.00164962
-0.00816934
-0.0176218
-0.0267066
-0.0354215
-0.0437633
-0.0517279
-0.0593106
-0.0665065
-0.0733104
-0.0797173
-0.0857225
-0.0913222
-0.0965136
-0.101295
-0.105666
-0.109628
-0.113186
-0.116344
-0.119111
-0.121496
-0.123512
-0.125172
-0.126494
-0.127494
-0.128192
-0.128608
-0.128764
-0.128682
-0.128385
-0.127894
-0.127231
-0.126419
-0.125477
-0.124426
-0.123284
-0.122068
-0.120794
-0.119477
-0.118128
-0.11676
-0.115382
-0.114002
-0.112628
-0.111264
-0.109916
-0.108587
-0.10728
-0.105995
-0.104733
-0.103496
-0.102281
-0.10109
-0.0999197
-0.0987698
-0.0976385
-0.0965241
-0.0954252
-0.0943398
-0.0932666
-0.092204
-0.0911505
-0.0901049
-0.0890661
-0.0880332
-0.0870054
-0.0859821
-0.0849627
-0.083947
-0.0829348
-0.0819262
-0.0809211
-0.0799199
-0.0789228
-0.0779302
-0.0769426
-0.0759605
-0.0749845
-0.0740152
-0.0730532
-0.0720991
-0.0711536
-0.0702173
-0.0692908
-0.0683745
-0.0674692
-0.0665752
-0.065693
-0.0648229
-0.0639652
-0.0631203
-0.0622882
-0.0614691
-0.060663
-0.0598698
-0.0590894
-0.0583215
-0.0575659
-0.0568221
-0.0560897
-0.0553682
-0.0546569
-0.0539552
-0.0532623
-0.0525775
-0.0519
-0.0512289
-0.0505635
-0.0499028
-0.0492462
-0.0485928
-0.047942
-0.0472932
-0.046646
-0.0459999
-0.0453547
-0.0447104
-0.0440669
-0.0434245
-0.0427835
-0.0421445
-0.041508
-0.0408747
-0.0402456
-0.0396215
-0.0390033
-0.038392
-0.0377884
-0.0371934
-0.0366078
-0.0360324
-0.0354677
-0.0349143
-0.0343724
-0.0338422
-0.033324
-0.0328175
-0.0323228
-0.0318395
-0.0313672
-0.0309056
-0.0304541
-0.030012
-0.0295785
-0.0291529
-0.0287341
-0.0283212
-0.0279131
-0.0275088
-0.0271071
-0.0267071
-0.0263079
-0.0259087
-0.0255089
-0.0251082
-0.0247065
-0.0243037
-0.0239
-0.0234957
-0.0230915
-0.0226878
-0.0222853
-0.0218846
-0.0214864
-0.0210914
-0.0207001
-0.0203132
-0.0199312
-0.0195544
-0.0191833
-0.0188182
-0.0184593
-0.0181067
-0.0177607
-0.0174213
-0.0170884
-0.0167621
-0.0164422
-0.0161288
-0.0158216
-0.0155206
-0.0152256
-0.0149363
-0.0146527
-0.0143746
-0.0141016
-0.0138337
-0.0135707
-0.0133123
-0.0130583
-0.0128086
-0.012563
-0.0123213
-0.0120833
-0.0118488
-0.0116177
-0.0113898
-0.011165
-0.0109431
-0.0107239
-0.0105074
-0.0102934
-0.0100818
-0.00987246
-0.00966525
-0.00946008
-0.00925686
-0.00905547
-0.00885584
-0.00865787
-0.00846148
-0.00826659
-0.00807313
-0.00788101
-0.00769018
-0.00750056
-0.00731211
-0.00712475
-0.00693844
-0.00675312
-0.00656874
-0.00638526
-0.00620262
-0.00602079
-0.00583973
-0.00565938
-0.00547973
-0.00530073
-0.00512235
-0.00494455
-0.00476731
-0.00459059
-0.00441437
-0.00423862
-0.00406332
-0.00388844
-0.00371395
-0.00353984
-0.00336609
-0.00319266
-0.00301954
-0.00284671
-0.00267415
-0.00250184
-0.00232977
-0.00215791
-0.00198625
-0.00181478
-0.00164347
-0.00147231
-0.00130129
-0.00113037
-0.000959603
-0.000788731
-0.000618542
-0.00044595
-0.000279649
-7.92877e-05
18.7695
19.6614
16.8608
14.0094
5.52388
0.290324
0.52516
0.310678
-0.00758925
-0.191438
-0.207387
-0.142999
-0.218683
-0.707211
-0.55871
-0.334059
-0.2302
-0.0985464
0.484738
2.09515
4.0081
6.08722
6.62868
0.381924
0.421585
0.338665
0.204834
0.17851
0.223846
0.280471
0.308167
0.312706
0.311196
0.311498
0.314112
0.316424
0.316189
0.313597
0.31035
0.307426
0.305227
0.303802
0.302967
0.302728
0.303638
0.30614
0.310159
0.316887
0.331521
0.364758
0.428102
0.479488
0.345139
0.0941965
0.151615
0.193515
0.215177
0.225762
0.229363
0.230209
0.230898
0.231919
0.232424
0.232577
0.237743
0.267349
0.361096
0.776416
2.71282
0.21262
-0.176597
-0.0616663
-0.0282323
0.0212768
0.115892
0.290533
0.590155
0.966838
1.70134
2.71154
1.80933
1.38287
1.28431
1.26867
1.37443
1.6333
2.08798
1.99546
1.61631
1.58624
1.77384
2.04499
2.31598
2.32634
2.27626
2.35029
2.48268
2.60644
2.68646
2.79405
2.94703
3.10008
3.2361
3.37563
3.51517
3.6308
3.72076
3.79408
3.84911
3.88399
3.90259
3.90652
3.89581
3.87267
3.83941
3.79753
3.74866
3.69407
3.63452
3.57055
3.50254
3.43078
3.35551
3.27697
3.19533
3.11079
3.02352
2.93382
2.84207
2.74874
2.65439
2.55963
2.46501
2.37105
2.27819
2.18676
2.09703
2.0092
1.92341
1.83975
1.75831
1.67913
1.60225
1.52769
1.45548
1.38561
1.31811
1.25298
1.19021
1.12979
1.07173
1.01599
0.962552
0.911381
0.862437
0.815668
0.771022
0.728434
0.68784
0.649167
0.612343
0.577291
0.543932
0.512187
0.481977
0.45322
0.425837
0.39975
0.374881
0.351155
0.3285
0.306846
0.286127
0.266282
0.247252
0.228982
0.211422
0.194526
0.178251
0.16256
0.147415
0.132788
0.118648
0.104972
0.0917374
0.0789256
0.0665205
0.0545087
0.0428794
0.031624
0.0207361
0.0102113
4.6918e-05
-0.00975789
-0.0192026
-0.0282852
-0.0370026
-0.0453507
-0.0533245
-0.0609183
-0.0681261
-0.0749418
-0.0813591
-0.0873724
-0.0929768
-0.0981684
-0.102944
-0.107304
-0.111248
-0.11478
-0.117905
-0.12063
-0.122966
-0.124925
-0.126522
-0.127773
-0.128698
-0.129317
-0.12965
-0.129721
-0.129553
-0.129169
-0.128592
-0.127847
-0.126954
-0.125935
-0.124811
-0.123601
-0.122323
-0.120992
-0.119623
-0.118229
-0.116821
-0.115409
-0.114
-0.112601
-0.111219
-0.109856
-0.108516
-0.1072
-0.10591
-0.104647
-0.103409
-0.102197
-0.101008
-0.0998426
-0.0986977
-0.097572
-0.0964636
-0.0953705
-0.0942911
-0.0932234
-0.092166
-0.0911173
-0.090076
-0.0890409
-0.0880111
-0.0869858
-0.0859643
-0.0849462
-0.0839313
-0.0829193
-0.0819104
-0.0809047
-0.0799024
-0.0789039
-0.0779096
-0.0769201
-0.0759359
-0.0749577
-0.0739861
-0.0730217
-0.0720653
-0.0711174
-0.0701788
-0.0692501
-0.0683319
-0.0674248
-0.0665291
-0.0656455
-0.0647742
-0.0639157
-0.0630701
-0.0622377
-0.0614185
-0.0606127
-0.05982
-0.0590405
-0.0582738
-0.0575197
-0.0567777
-0.0560474
-0.0553282
-0.0546195
-0.0539205
-0.0532306
-0.0525488
-0.0518744
-0.0512064
-0.0505439
-0.0498862
-0.0492323
-0.0485813
-0.0479327
-0.0472857
-0.0466397
-0.0459945
-0.0453496
-0.044705
-0.0440608
-0.043417
-0.0427742
-0.0421329
-0.0414937
-0.0408574
-0.0402251
-0.0395976
-0.038976
-0.0383614
-0.0377548
-0.0371572
-0.0365694
-0.0359922
-0.0354262
-0.0348719
-0.0343296
-0.0337996
-0.0332818
-0.0327762
-0.0322825
-0.0318005
-0.0313296
-0.0308696
-0.0304197
-0.0299793
-0.0295476
-0.0291239
-0.0287072
-0.0282965
-0.0278906
-0.0274885
-0.0270889
-0.0266909
-0.0262935
-0.0258959
-0.0254973
-0.0250975
-0.0246962
-0.0242935
-0.0238896
-0.0234848
-0.0230796
-0.0226749
-0.0222711
-0.021869
-0.0214695
-0.021073
-0.0206805
-0.0202923
-0.0199092
-0.0195315
-0.0191596
-0.0187938
-0.0184344
-0.0180816
-0.0177354
-0.017396
-0.0170632
-0.0167371
-0.0164177
-0.0161047
-0.015798
-0.0154976
-0.0152032
-0.0149146
-0.0146317
-0.0143543
-0.0140821
-0.0138149
-0.0135526
-0.013295
-0.0130417
-0.0127928
-0.0125479
-0.0123068
-0.0120695
-0.0118357
-0.0116052
-0.0113779
-0.0111537
-0.0109323
-0.0107137
-0.0104977
-0.0102842
-0.0100731
-0.00986414
-0.00965736
-0.00945259
-0.00924975
-0.00904874
-0.00884945
-0.00865181
-0.00845574
-0.00826115
-0.00806796
-0.00787612
-0.00768554
-0.00749617
-0.00730795
-0.00712081
-0.00693471
-0.00674959
-0.0065654
-0.00638209
-0.00619962
-0.00601795
-0.00583704
-0.00565685
-0.00547733
-0.00529846
-0.00512021
-0.00494253
-0.0047654
-0.0045888
-0.00441268
-0.00423704
-0.00406183
-0.00388704
-0.00371265
-0.00353862
-0.00336495
-0.0031916
-0.00301856
-0.00284581
-0.00267332
-0.00250108
-0.00232908
-0.00215729
-0.0019857
-0.00181428
-0.00164304
-0.00147194
-0.00130098
-0.00113012
-0.000959411
-0.000788596
-0.000618465
-0.000445933
-0.000279674
-7.93656e-05
13.9158
12.28
8.931
4.83162
0.591206
0.0224362
-0.0390013
-0.0587424
-0.179282
-0.237876
-0.242798
-0.253059
-0.332547
-0.424411
-0.405992
-0.342756
-0.370498
-0.522297
-0.52793
0.0921745
1.49468
0.986549
-1.22272
-0.0613407
0.106596
0.0302239
0.00289407
0.0819033
0.18931
0.266553
0.309237
0.323594
0.324347
0.319781
0.314294
0.310531
0.308324
0.306461
0.304676
0.303241
0.302313
0.301799
0.301417
0.300859
0.300231
0.300186
0.30146
0.305535
0.314885
0.331627
0.352164
0.35645
0.323181
0.264496
0.249038
0.248322
0.250614
0.252831
0.254264
0.254907
0.255153
0.255287
0.254661
0.253
0.253741
0.267088
0.297061
0.342951
0.308563
0.126943
0.187921
0.215
0.225502
0.228185
0.228671
0.234457
0.266132
0.354866
0.626858
3.78545
0.774038
-0.12489
-0.0212362
0.209626
0.610578
1.39189
2.9486
2.06896
1.20857
1.23136
1.3034
1.51747
2.01267
1.82987
1.58787
1.67173
1.90136
2.11242
2.15245
2.26683
2.47888
2.67328
2.8228
2.99689
3.18362
3.32594
3.43105
3.52451
3.59706
3.64321
3.67307
3.68764
3.68491
3.6692
3.64371
3.60962
3.56908
3.52346
3.47324
3.4188
3.36029
3.29781
3.23153
3.16162
3.08814
3.01117
2.9308
2.84723
2.76087
2.67228
2.58215
2.49121
2.40016
2.30961
2.22003
2.1318
2.04518
1.96034
1.87743
1.79652
1.71767
1.64093
1.56633
1.49389
1.42364
1.3556
1.28979
1.22621
1.16489
1.10584
1.04904
0.994489
0.942178
0.892079
0.844156
0.798365
0.754656
0.712968
0.673239
0.635398
0.599374
0.56509
0.53247
0.501434
0.471903
0.443797
0.417036
0.391541
0.367234
0.34404
0.321885
0.300701
0.280422
0.260985
0.242332
0.224411
0.207172
0.190569
0.174562
0.159113
0.144188
0.129757
0.115793
0.102273
0.0891755
0.0764832
0.0641811
0.052257
0.0407012
0.029506
0.0186662
0.00817837
-0.00195905
-0.011746
-0.0211809
-0.0302608
-0.0389816
-0.047338
-0.055324
-0.0629326
-0.0701565
-0.0769881
-0.0834199
-0.0894449
-0.0950565
-0.10025
-0.10502
-0.109366
-0.113288
-0.116788
-0.119871
-0.122543
-0.124817
-0.126704
-0.12822
-0.129383
-0.130212
-0.130729
-0.130956
-0.130919
-0.130641
-0.130146
-0.129461
-0.128609
-0.127614
-0.126498
-0.125283
-0.123987
-0.12263
-0.121228
-0.119795
-0.118344
-0.116887
-0.115432
-0.113988
-0.11256
-0.111154
-0.109773
-0.108419
-0.107095
-0.1058
-0.104534
-0.103298
-0.102088
-0.100904
-0.0997446
-0.0986066
-0.0974883
-0.0963877
-0.0953024
-0.0942305
-0.0931701
-0.0921194
-0.0910768
-0.0900409
-0.0890104
-0.0879845
-0.0869623
-0.0859431
-0.0849266
-0.0839126
-0.0829009
-0.0818916
-0.0808849
-0.0798812
-0.0788808
-0.0778844
-0.0768924
-0.0759055
-0.0749243
-0.0739497
-0.0729823
-0.0720228
-0.071072
-0.0701306
-0.0691991
-0.0682784
-0.0673688
-0.0664711
-0.0655857
-0.0647129
-0.0638532
-0.0630068
-0.0621739
-0.0613547
-0.0605492
-0.0597573
-0.0589788
-0.0582137
-0.0574614
-0.0567217
-0.055994
-0.0552778
-0.0545723
-0.0538769
-0.0531907
-0.0525128
-0.0518423
-0.0511783
-0.0505197
-0.0498657
-0.0492153
-0.0485675
-0.0479216
-0.0472769
-0.0466326
-0.0459884
-0.0453439
-0.044699
-0.0440538
-0.0434083
-0.0427632
-0.0421189
-0.0414762
-0.0408361
-0.0401995
-0.0395676
-0.0389415
-0.0383223
-0.0377112
-0.0371093
-0.0365176
-0.0359369
-0.0353679
-0.0348112
-0.0342673
-0.0337362
-0.0332182
-0.0327132
-0.032221
-0.0317412
-0.0312734
-0.0308173
-0.0303722
-0.0299373
-0.029512
-0.0290951
-0.0286856
-0.0282823
-0.0278838
-0.0274886
-0.0270955
-0.026703
-0.02631
-0.0259156
-0.0255189
-0.0251197
-0.0247177
-0.0243132
-0.0239065
-0.0234981
-0.023089
-0.0226797
-0.0222714
-0.0218648
-0.0214608
-0.0210602
-0.0206638
-0.0202722
-0.019886
-0.0195057
-0.0191317
-0.0187642
-0.0184035
-0.0180497
-0.0177029
-0.0173631
-0.0170303
-0.0167043
-0.0163852
-0.0160727
-0.0157667
-0.015467
-0.0151734
-0.0148857
-0.0146037
-0.0143272
-0.014056
-0.0137899
-0.0135285
-0.0132719
-0.0130196
-0.0127716
-0.0125276
-0.0122875
-0.012051
-0.011818
-0.0115884
-0.0113619
-0.0111384
-0.0109178
-0.0106999
-0.0104845
-0.0102717
-0.0100611
-0.00985278
-0.00964654
-0.00944231
-0.00923997
-0.00903942
-0.00884059
-0.00864338
-0.00844772
-0.00825351
-0.0080607
-0.0078692
-0.00767896
-0.00748991
-0.00730199
-0.00711514
-0.00692931
-0.00674445
-0.0065605
-0.00637743
-0.00619519
-0.00601373
-0.00583302
-0.00565302
-0.00547369
-0.005295
-0.00511691
-0.00493939
-0.00476242
-0.00458596
-0.00440999
-0.00423448
-0.0040594
-0.00388474
-0.00371046
-0.00353656
-0.00336299
-0.00318975
-0.00301682
-0.00284416
-0.00267177
-0.00249963
-0.00232772
-0.00215602
-0.00198452
-0.00181319
-0.00164203
-0.00147101
-0.00130013
-0.00112935
-0.000958729
-0.000787993
-0.00061794
-0.000445487
-0.000279315
-7.91838e-05
6.89211
6.47351
5.09079
1.78121
0.203707
-0.0218332
-0.0759396
-0.168712
-0.25272
-0.303992
-0.330604
-0.360853
-0.405174
-0.416452
-0.375318
-0.331585
-0.311727
-0.288664
-0.236497
-0.156681
-0.0277531
0.324343
0.101207
0.0106867
-0.0313356
-0.140182
-0.113835
0.00830144
0.141749
0.236473
0.286944
0.303313
0.305986
0.306083
0.305413
0.304523
0.303571
0.30239
0.301007
0.299695
0.298665
0.297966
0.297538
0.297312
0.297316
0.297789
0.299253
0.302182
0.306984
0.312979
0.31621
0.308542
0.287
0.267605
0.258198
0.254702
0.254054
0.254598
0.255528
0.256429
0.25717
0.25746
0.256664
0.254769
0.253249
0.257307
0.274394
0.290891
0.31788
0.27776
0.263673
0.258283
0.254668
0.252255
0.250686
0.251042
0.268829
0.316004
0.377296
0.315223
0.0268287
0.143217
0.207953
0.266714
0.360456
0.553525
4.08847
1.56139
-0.850498
-0.329448
0.327993
1.13222
2.58741
1.56366
1.14474
1.20015
1.33514
1.66034
1.51948
1.57828
1.87912
2.15978
2.30341
2.53713
2.81232
2.97857
3.08584
3.20371
3.29538
3.35018
3.39548
3.42542
3.43157
3.42437
3.40787
3.38237
3.35169
3.31722
3.27867
3.23619
3.18945
3.13832
3.08306
3.02376
2.96035
2.89272
2.82074
2.74453
2.66452
2.58142
2.49612
2.40956
2.32264
2.23608
2.15041
2.06601
1.98314
1.90194
1.82251
1.74492
1.66921
1.5954
1.52354
1.45364
1.38575
1.31988
1.25607
1.19434
1.13474
1.07728
1.02198
0.968842
0.917866
0.869036
0.822326
0.777698
0.735104
0.694489
0.65579
0.618941
0.583869
0.550501
0.518761
0.488571
0.459852
0.432525
0.406509
0.381725
0.358095
0.335543
0.313995
0.293381
0.273635
0.254694
0.236502
0.219005
0.202155
0.185908
0.170225
0.155068
0.140407
0.126212
0.112457
0.0991218
0.0861859
0.0736334
0.0614509
0.0496275
0.0381548
0.0270268
0.0162395
0.00579087
-0.00431948
-0.0140902
-0.0235185
-0.0326001
-0.0413298
-0.0497009
-0.057706
-0.0653368
-0.0725843
-0.0794394
-0.0858927
-0.0919355
-0.0975595
-0.102758
-0.107525
-0.111858
-0.115754
-0.119217
-0.12225
-0.12486
-0.127059
-0.128859
-0.130276
-0.13133
-0.132042
-0.132434
-0.132532
-0.132361
-0.131947
-0.131318
-0.1305
-0.129519
-0.128398
-0.127164
-0.125837
-0.124437
-0.122985
-0.121497
-0.119986
-0.118468
-0.116951
-0.115446
-0.113959
-0.112498
-0.111064
-0.109663
-0.108295
-0.106961
-0.105661
-0.104394
-0.103159
-0.101954
-0.100777
-0.0996249
-0.0984959
-0.0973872
-0.0962964
-0.0952209
-0.0941586
-0.0931071
-0.0920647
-0.0910296
-0.0900003
-0.0889755
-0.0879543
-0.0869358
-0.0859194
-0.0849047
-0.0838916
-0.0828801
-0.0818702
-0.0808622
-0.0798567
-0.078854