/*--------------------------------*- C++ -*----------------------------------*\
| =========                 |                                                 |
| \\      /  F ield         | OpenFOAM: The Open Source CFD Toolbox           |
|  \\    /   O peration     | Version:  v2006                                 |
|   \\  /    A nd           | Website:  www.openfoam.com                      |
|    \\/     M anipulation  |                                                 |
\*---------------------------------------------------------------------------*/
FoamFile
{
    version     2.0;
    format      ascii;
    class       volScalarField;
    location    "14.4";
    object      p;
}
// * * * * * * * * * * * * * * * * * * * * * * * * * * * * * * * * * * * * * //

dimensions      [1 -1 -2 0 0 0 0];


internalField   nonuniform List<scalar> 
50000
(
21932.9
21933.1
21933.4
21933.9
21934.6
21935.4
21936.4
21937.6
21939
21940.5
21942.2
21944
21946.1
21948.3
21950.6
21953.1
21955.8
21958.7
21961.7
21964.8
21968.2
21971.6
21975.2
21979
21982.8
21986.8
21991
21995.2
21999.6
22004.1
22008.7
22013.3
22018.1
22023
22027.9
22032.9
22038
22043.2
22048.4
22053.6
22058.9
22064.2
22069.6
22074.9
22080.3
22085.7
22091.1
22096.5
22101.8
22107.2
22112.5
22117.8
22123.1
22128.3
22133.5
22138.6
22143.7
22148.7
22153.7
22158.6
22163.4
22168.1
22172.7
22177.3
22181.7
22186.1
22190.4
22194.5
22198.6
22202.6
22206.4
22210.2
22213.8
22217.3
22220.7
22224
22227.2
22230.2
22233.2
22236
22238.7
22241.3
22243.7
22246.1
22248.3
22250.4
22252.4
22254.3
22256.1
22257.8
22259.3
22260.8
22262.1
22263.3
22264.5
22265.5
22266.5
22267.3
22268.1
22268.8
22269.4
22269.9
22270.3
22270.7
22270.9
22271.1
22271.3
22271.4
22271.4
22271.3
22271.3
22271.1
22271
22270.7
22270.5
22270.2
22269.9
22269.6
22269.3
22268.9
22268.5
22268.1
22267.7
22267.3
22266.9
22266.4
22266
22265.6
22265.2
22264.8
22264.4
22264
22263.6
22263.2
22262.8
22262.5
22262.2
22261.9
22261.6
22261.3
22261.1
22260.9
22260.7
22260.5
22260.4
22260.2
22260.1
22260.1
22260
22260
21481.3
21481.4
21481.8
21482.3
21483
21483.8
21484.8
21486
21487.3
21488.9
21490.6
21492.4
21494.5
21496.7
21499
21501.6
21504.3
21507.1
21510.1
21513.3
21516.6
21520.1
21523.7
21527.4
21531.3
21535.3
21539.5
21543.7
21548.1
21552.6
21557.2
21561.9
21566.7
21571.5
21576.5
21581.5
21586.6
21591.8
21597
21602.2
21607.5
21612.9
21618.2
21623.6
21629
21634.4
21639.8
21645.2
21650.6
21656
21661.3
21666.6
21671.9
21677.2
21682.3
21687.5
21692.6
21697.6
21702.5
21707.4
21712.2
21717
21721.6
21726.2
21730.6
21735
21739.3
21743.5
21747.5
21751.5
21755.3
21759.1
21762.7
21766.2
21769.7
21772.9
21776.1
21779.2
21782.1
21784.9
21787.6
21790.2
21792.7
21795
21797.3
21799.4
21801.4
21803.3
21805
21806.7
21808.3
21809.7
21811
21812.3
21813.4
21814.5
21815.4
21816.2
21817
21817.7
21818.3
21818.8
21819.2
21819.5
21819.8
21820
21820.1
21820.2
21820.2
21820.1
21820
21819.9
21819.7
21819.5
21819.3
21819
21818.7
21818.4
21818
21817.7
21817.3
21816.9
21816.5
21816
21815.6
21815.2
21814.8
21814.3
21813.9
21813.5
21813.1
21812.7
21812.3
21811.9
21811.5
21811.2
21810.9
21810.6
21810.3
21810
21809.8
21809.5
21809.3
21809.2
21809
21808.9
21808.8
21808.7
21808.7
21808.6
21029.3
21029.5
21029.8
21030.3
21031
21031.8
21032.9
21034
21035.4
21036.9
21038.6
21040.5
21042.5
21044.7
21047.1
21049.7
21052.4
21055.2
21058.3
21061.4
21064.8
21068.3
21071.9
21075.7
21079.6
21083.6
21087.8
21092.1
21096.5
21101
21105.6
21110.3
21115.1
21120
21125
21130
21135.2
21140.3
21145.6
21150.8
21156.2
21161.5
21166.9
21172.3
21177.7
21183.1
21188.6
21194
21199.4
21204.8
21210.1
21215.5
21220.8
21226
21231.3
21236.4
21241.5
21246.6
21251.5
21256.4
21261.2
21266
21270.7
21275.2
21279.7
21284.1
21288.4
21292.6
21296.6
21300.6
21304.5
21308.2
21311.9
21315.4
21318.8
21322.1
21325.3
21328.3
21331.3
21334.1
21336.8
21339.4
21341.8
21344.2
21346.4
21348.5
21350.5
21352.4
21354.2
21355.8
21357.4
21358.8
21360.2
21361.4
21362.5
21363.5
21364.5
21365.3
21366.1
21366.7
21367.3
21367.8
21368.2
21368.5
21368.8
21369
21369.1
21369.2
21369.2
21369.1
21369
21368.9
21368.7
21368.5
21368.2
21367.9
21367.6
21367.2
21366.9
21366.5
21366.1
21365.7
21365.2
21364.8
21364.4
21363.9
21363.5
21363
21362.6
21362.2
21361.7
21361.3
21360.9
21360.5
21360.2
21359.8
21359.5
21359.2
21358.9
21358.6
21358.4
21358.1
21357.9
21357.8
21357.6
21357.5
21357.4
21357.3
21357.2
21357.2
20577
20577.2
20577.5
20578
20578.7
20579.5
20580.5
20581.7
20583.1
20584.6
20586.3
20588.2
20590.3
20592.5
20594.9
20597.5
20600.2
20603.1
20606.1
20609.3
20612.7
20616.2
20619.8
20623.6
20627.6
20631.6
20635.8
20640.1
20644.6
20649.1
20653.8
20658.5
20663.4
20668.3
20673.3
20678.4
20683.5
20688.8
20694
20699.3
20704.7
20710.1
20715.5
20720.9
20726.4
20731.9
20737.3
20742.8
20748.2
20753.6
20759
20764.4
20769.7
20775
20780.2
20785.4
20790.6
20795.6
20800.6
20805.5
20810.4
20815.2
20819.8
20824.4
20828.9
20833.3
20837.6
20841.8
20845.9
20849.9
20853.8
20857.5
20861.2
20864.7
20868.1
20871.4
20874.6
20877.7
20880.6
20883.5
20886.2
20888.7
20891.2
20893.6
20895.8
20897.9
20899.9
20901.8
20903.5
20905.2
20906.7
20908.1
20909.5
20910.7
20911.8
20912.8
20913.7
20914.6
20915.3
20915.9
20916.5
20917
20917.3
20917.7
20917.9
20918.1
20918.2
20918.2
20918.2
20918.1
20918
20917.9
20917.6
20917.4
20917.1
20916.8
20916.5
20916.1
20915.7
20915.3
20914.9
20914.4
20914
20913.5
20913.1
20912.6
20912.2
20911.7
20911.3
20910.8
20910.4
20910
20909.5
20909.1
20908.8
20908.4
20908.1
20907.7
20907.4
20907.2
20906.9
20906.7
20906.5
20906.3
20906.1
20906
20905.9
20905.8
20905.8
20905.7
20124.3
20124.5
20124.8
20125.3
20126
20126.9
20127.9
20129.1
20130.5
20132
20133.7
20135.6
20137.7
20139.9
20142.3
20144.9
20147.7
20150.6
20153.6
20156.9
20160.3
20163.8
20167.5
20171.3
20175.3
20179.4
20183.6
20188
20192.5
20197.1
20201.8
20206.6
20211.4
20216.4
20221.5
20226.6
20231.8
20237.1
20242.4
20247.8
20253.2
20258.6
20264.1
20269.6
20275.1
20280.6
20286.1
20291.6
20297
20302.5
20307.9
20313.4
20318.7
20324.1
20329.3
20334.6
20339.7
20344.8
20349.8
20354.8
20359.7
20364.5
20369.2
20373.8
20378.3
20382.7
20387.1
20391.3
20395.4
20399.4
20403.3
20407.1
20410.7
20414.3
20417.7
20421
20424.2
20427.3
20430.2
20433
20435.7
20438.3
20440.8
20443.1
20445.4
20447.5
20449.4
20451.3
20453.1
20454.7
20456.2
20457.7
20459
20460.2
20461.3
20462.3
20463.2
20464
20464.7
20465.3
20465.8
20466.3
20466.7
20466.9
20467.2
20467.3
20467.4
20467.4
20467.4
20467.3
20467.1
20466.9
20466.7
20466.4
20466.1
20465.8
20465.4
20465
20464.6
20464.1
20463.7
20463.2
20462.8
20462.3
20461.8
20461.3
20460.8
20460.4
20459.9
20459.4
20459
20458.5
20458.1
20457.7
20457.3
20456.9
20456.6
20456.2
20455.9
20455.7
20455.4
20455.2
20454.9
20454.8
20454.6
20454.5
20454.4
20454.3
20454.2
20454.2
19671.2
19671.4
19671.8
19672.3
19673
19673.8
19674.9
19676.1
19677.5
19679
19680.8
19682.7
19684.7
19687
19689.4
19692
19694.8
19697.8
19700.9
19704.1
19707.6
19711.1
19714.9
19718.7
19722.8
19726.9
19731.2
19735.6
19740.2
19744.8
19749.6
19754.4
19759.4
19764.4
19769.5
19774.7
19780
19785.3
19790.7
19796.1
19801.6
19807.1
19812.6
19818.1
19823.7
19829.3
19834.8
19840.4
19845.9
19851.4
19856.9
19862.4
19867.8
19873.2
19878.5
19883.8
19889
19894.1
19899.2
19904.2
19909.1
19913.9
19918.7
19923.3
19927.9
19932.3
19936.7
19940.9
19945.1
19949.1
19953
19956.8
19960.5
19964
19967.5
19970.8
19974
19977.1
19980
19982.8
19985.5
19988.1
19990.6
19992.9
19995.1
19997.2
19999.2
20001.1
20002.8
20004.5
20006
20007.4
20008.7
20009.8
20010.9
20011.9
20012.8
20013.6
20014.2
20014.8
20015.3
20015.8
20016.1
20016.4
20016.5
20016.7
20016.7
20016.7
20016.6
20016.5
20016.3
20016.1
20015.8
20015.5
20015.2
20014.8
20014.4
20013.9
20013.5
20013
20012.5
20012
20011.5
20011
20010.5
20010
20009.5
20009
20008.5
20008
20007.5
20007.1
20006.6
20006.2
20005.8
20005.4
20005
20004.7
20004.4
20004.1
20003.8
20003.6
20003.3
20003.1
20003
20002.8
20002.7
20002.7
20002.6
20002.6
19217.8
19218
19218.4
19218.9
19219.6
19220.4
19221.5
19222.7
19224.1
19225.7
19227.4
19229.4
19231.5
19233.7
19236.2
19238.8
19241.6
19244.6
19247.8
19251.1
19254.6
19258.2
19262
19265.9
19270
19274.2
19278.5
19283
19287.6
19292.3
19297.2
19302.1
19307.1
19312.2
19317.4
19322.7
19328
19333.4
19338.9
19344.4
19349.9
19355.5
19361.1
19366.7
19372.3
19377.9
19383.6
19389.2
19394.8
19400.4
19405.9
19411.5
19416.9
19422.4
19427.8
19433.1
19438.4
19443.5
19448.7
19453.7
19458.7
19463.5
19468.3
19473
19477.6
19482.1
19486.5
19490.7
19494.9
19499
19502.9
19506.7
19510.4
19514
19517.4
19520.8
19524
19527.1
19530
19532.9
19535.6
19538.1
19540.6
19542.9
19545.2
19547.2
19549.2
19551.1
19552.8
19554.4
19555.9
19557.3
19558.5
19559.7
19560.8
19561.7
19562.6
19563.3
19564
19564.5
19565
19565.4
19565.7
19565.9
19566.1
19566.1
19566.2
19566.1
19566
19565.8
19565.6
19565.3
19565
19564.7
19564.3
19563.8
19563.4
19562.9
19562.4
19561.9
19561.4
19560.9
19560.3
19559.8
19559.2
19558.7
19558.1
19557.6
19557.1
19556.5
19556
19555.6
19555.1
19554.6
19554.2
19553.8
19553.4
19553.1
19552.7
19552.4
19552.1
19551.9
19551.6
19551.4
19551.3
19551.1
19551
19550.9
19550.9
19550.8
18764
18764.2
18764.6
18765.1
18765.8
18766.7
18767.7
18769
18770.4
18772
18773.7
18775.7
18777.8
18780.1
18782.6
18785.3
18788.1
18791.2
18794.4
18797.7
18801.2
18804.9
18808.8
18812.8
18816.9
18821.2
18825.6
18830.2
18834.9
18839.7
18844.6
18849.6
18854.7
18859.9
18865.1
18870.5
18875.9
18881.4
18886.9
18892.5
18898.2
18903.8
18909.5
18915.2
18920.9
18926.6
18932.3
18938
18943.7
18949.4
18955
18960.6
18966.2
18971.7
18977.1
18982.5
18987.8
18993.1
18998.3
19003.4
19008.4
19013.3
19018.1
19022.9
19027.5
19032
19036.5
19040.8
19045
19049
19053
19056.8
19060.6
19064.2
19067.6
19071
19074.2
19077.3
19080.2
19083.1
19085.8
19088.4
19090.8
19093.2
19095.4
19097.5
19099.4
19101.2
19103
19104.6
19106
19107.4
19108.6
19109.8
19110.8
19111.7
19112.5
19113.3
19113.9
19114.4
19114.8
19115.2
19115.4
19115.6
19115.7
19115.8
19115.7
19115.6
19115.4
19115.2
19115
19114.6
19114.3
19113.9
19113.4
19113
19112.5
19111.9
19111.4
19110.8
19110.3
19109.7
19109.1
19108.5
19107.9
19107.3
19106.7
19106.2
19105.6
19105.1
19104.5
19104
19103.5
19103
19102.6
19102.1
19101.7
19101.4
19101
19100.7
19100.4
19100.1
19099.9
19099.7
19099.5
19099.3
19099.2
19099.1
19099.1
19099
18309.8
18310
18310.4
18310.9
18311.7
18312.5
18313.6
18314.8
18316.3
18317.9
18319.7
18321.6
18323.8
18326.2
18328.7
18331.4
18334.3
18337.4
18340.6
18344
18347.6
18351.4
18355.3
18359.4
18363.6
18368
18372.5
18377.1
18381.9
18386.8
18391.8
18396.9
18402.1
18407.4
18412.7
18418.2
18423.7
18429.3
18434.9
18440.6
18446.4
18452.1
18457.9
18463.7
18469.5
18475.3
18481.1
18486.9
18492.7
18498.4
18504.2
18509.8
18515.5
18521.1
18526.6
18532.1
18537.4
18542.8
18548
18553.2
18558.3
18563.2
18568.1
18572.9
18577.6
18582.2
18586.6
18591
18595.2
18599.3
18603.3
18607.2
18610.9
18614.5
18618
18621.4
18624.6
18627.7
18630.7
18633.5
18636.3
18638.8
18641.3
18643.6
18645.8
18647.9
18649.8
18651.7
18653.4
18654.9
18656.4
18657.7
18658.9
18660
18661
18661.9
18662.7
18663.4
18664
18664.4
18664.8
18665.1
18665.3
18665.5
18665.5
18665.5
18665.4
18665.2
18665
18664.7
18664.4
18664
18663.6
18663.1
18662.6
18662.1
18661.6
18661
18660.4
18659.8
18659.1
18658.5
18657.9
18657.2
18656.6
18656
18655.3
18654.7
18654.1
18653.5
18653
18652.4
18651.9
18651.4
18650.9
18650.4
18650
18649.6
18649.2
18648.9
18648.6
18648.3
18648
18647.8
18647.6
18647.5
18647.3
18647.2
18647.2
18647.1
17855.2
17855.4
17855.8
17856.4
17857.1
17858
17859.1
17860.3
17861.8
17863.4
17865.2
17867.2
17869.4
17871.8
17874.4
17877.1
17880.1
17883.2
17886.5
17890
17893.7
17897.5
17901.5
17905.7
17910
17914.4
17919.1
17923.8
17928.7
17933.7
17938.8
17944
17949.3
17954.7
17960.2
17965.8
17971.4
17977.1
17982.8
17988.6
17994.5
18000.3
18006.2
18012.1
18018.1
18024
18029.9
18035.8
18041.7
18047.5
18053.3
18059.1
18064.9
18070.5
18076.1
18081.7
18087.2
18092.6
18097.9
18103.1
18108.3
18113.3
18118.3
18123.1
18127.9
18132.5
18137
18141.4
18145.6
18149.8
18153.8
18157.7
18161.5
18165.1
18168.7
18172
18175.3
18178.4
18181.4
18184.2
18186.9
18189.5
18192
18194.3
18196.5
18198.5
18200.5
18202.3
18204
18205.5
18206.9
18208.2
18209.4
18210.5
18211.5
18212.3
18213.1
18213.7
18214.2
18214.6
18215
18215.2
18215.4
18215.5
18215.4
18215.4
18215.2
18215
18214.7
18214.3
18213.9
18213.5
18213
18212.5
18211.9
18211.3
18210.7
18210
18209.4
18208.7
18208
18207.3
18206.6
18205.9
18205.2
18204.6
18203.9
18203.2
18202.6
18201.9
18201.3
18200.7
18200.2
18199.6
18199.1
18198.6
18198.2
18197.7
18197.3
18197
18196.6
18196.3
18196.1
18195.8
18195.6
18195.5
18195.3
18195.2
18195.2
18195.1
17400.1
17400.3
17400.8
17401.4
17402.1
17403.1
17404.1
17405.4
17406.9
17408.5
17410.4
17412.4
17414.7
17417.1
17419.7
17422.5
17425.5
17428.7
17432.1
17435.6
17439.4
17443.3
17447.4
17451.7
17456.1
17460.7
17465.4
17470.2
17475.2
17480.3
17485.6
17490.9
17496.3
17501.9
17507.5
17513.2
17518.9
17524.8
17530.6
17536.6
17542.5
17548.5
17554.5
17560.6
17566.6
17572.7
17578.7
17584.7
17590.7
17596.7
17602.6
17608.5
17614.3
17620.1
17625.8
17631.5
17637
17642.5
17647.9
17653.2
17658.5
17663.6
17668.6
17673.5
17678.3
17683
17687.5
17692
17696.3
17700.5
17704.6
17708.5
17712.3
17716
17719.5
17722.9
17726.2
17729.3
17732.3
17735.1
17737.9
17740.4
17742.9
17745.2
17747.4
17749.4
17751.3
17753.1
17754.8
17756.3
17757.7
17759
17760.1
17761.2
17762.1
17762.9
17763.6
17764.2
17764.7
17765
17765.3
17765.5
17765.6
17765.6
17765.5
17765.4
17765.1
17764.8
17764.5
17764
17763.6
17763
17762.5
17761.9
17761.2
17760.6
17759.9
17759.1
17758.4
17757.7
17756.9
17756.1
17755.4
17754.6
17753.9
17753.1
17752.4
17751.7
17751
17750.3
17749.6
17749
17748.4
17747.8
17747.3
17746.7
17746.3
17745.8
17745.4
17745
17744.6
17744.3
17744
17743.8
17743.6
17743.4
17743.2
17743.1
17743.1
17743
16944.6
16944.8
16945.3
16945.9
16946.7
16947.7
16948.8
16950.1
16951.6
16953.3
16955.2
16957.2
16959.5
16962
16964.6
16967.5
16970.5
16973.8
16977.3
16980.9
16984.8
16988.8
16993
16997.4
17001.9
17006.6
17011.4
17016.4
17021.5
17026.8
17032.1
17037.6
17043.2
17048.8
17054.6
17060.4
17066.4
17072.3
17078.3
17084.4
17090.5
17096.7
17102.8
17109
17115.2
17121.3
17127.5
17133.7
17139.8
17145.9
17151.9
17157.9
17163.9
17169.8
17175.6
17181.3
17187
17192.6
17198.1
17203.5
17208.8
17214
17219.1
17224.1
17229
17233.7
17238.3
17242.8
17247.2
17251.4
17255.5
17259.5
17263.3
17267
17270.6
17274
17277.3
17280.4
17283.4
17286.3
17289
17291.6
17294
17296.4
17298.5
17300.6
17302.4
17304.2
17305.8
17307.3
17308.7
17310
17311.1
17312.1
17312.9
17313.7
17314.3
17314.9
17315.3
17315.6
17315.8
17315.9
17315.9
17315.9
17315.7
17315.5
17315.2
17314.8
17314.3
17313.8
17313.3
17312.7
17312
17311.3
17310.6
17309.8
17309.1
17308.3
17307.4
17306.6
17305.8
17305
17304.1
17303.3
17302.5
17301.7
17300.9
17300.1
17299.3
17298.6
17297.9
17297.2
17296.6
17295.9
17295.3
17294.8
17294.3
17293.8
17293.3
17292.9
17292.5
17292.2
17291.9
17291.6
17291.4
17291.2
17291
17290.9
17290.9
17290.8
16488.5
16488.8
16489.3
16490
16490.9
16491.9
16493
16494.4
16495.9
16497.6
16499.5
16501.6
16503.9
16506.4
16509.1
16512.1
16515.2
16518.5
16522.1
16525.8
16529.8
16533.9
16538.2
16542.7
16547.4
16552.2
16557.2
16562.3
16567.6
16573
16578.5
16584.1
16589.8
16595.7
16601.6
16607.6
16613.6
16619.8
16626
16632.2
16638.4
16644.7
16651.1
16657.4
16663.7
16670
16676.4
16682.6
16688.9
16695.1
16701.3
16707.5
16713.5
16719.6
16725.5
16731.4
16737.2
16742.8
16748.4
16753.9
16759.3
16764.6
16769.8
16774.9
16779.8
16784.6
16789.3
16793.9
16798.3
16802.6
16806.7
16810.7
16814.6
16818.3
16821.9
16825.3
16828.6
16831.8
16834.8
16837.7
16840.4
16843
16845.4
16847.7
16849.9
16851.9
16853.8
16855.5
16857.1
16858.6
16859.9
16861.1
16862.2
16863.2
16864
16864.7
16865.3
16865.7
16866.1
16866.3
16866.5
16866.5
16866.5
16866.3
16866.1
16865.7
16865.3
16864.9
16864.3
16863.7
16863.1
16862.4
16861.6
16860.8
16860
16859.2
16858.3
16857.4
16856.5
16855.6
16854.7
16853.7
16852.8
16851.9
16851
16850.2
16849.3
16848.5
16847.6
16846.8
16846.1
16845.3
16844.6
16844
16843.3
16842.7
16842.2
16841.6
16841.2
16840.7
16840.3
16839.9
16839.6
16839.3
16839.1
16838.9
16838.7
16838.6
16838.5
16838.5
16032
16032.3
16032.8
16033.6
16034.5
16035.6
16036.8
16038.2
16039.8
16041.5
16043.4
16045.6
16047.9
16050.5
16053.2
16056.2
16059.4
16062.8
16066.5
16070.3
16074.4
16078.7
16083.1
16087.7
16092.6
16097.5
16102.7
16108
16113.4
16118.9
16124.6
16130.4
16136.3
16142.3
16148.4
16154.6
16160.8
16167.1
16173.5
16179.9
16186.3
16192.8
16199.3
16205.7
16212.2
16218.7
16225.2
16231.7
16238.1
16244.5
16250.8
16257.1
16263.3
16269.4
16275.5
16281.5
16287.4
16293.2
16299
16304.6
16310.1
16315.4
16320.7
16325.8
16330.9
16335.7
16340.5
16345.1
16349.6
16353.9
16358.1
16362.2
16366.1
16369.9
16373.5
16376.9
16380.3
16383.4
16386.5
16389.3
16392.1
16394.6
16397.1
16399.4
16401.5
16403.5
16405.4
16407.1
16408.7
16410.1
16411.4
16412.5
16413.6
16414.5
16415.2
16415.9
16416.4
16416.8
16417.1
16417.3
16417.3
16417.3
16417.1
16416.9
16416.6
16416.1
16415.6
16415.1
16414.4
16413.7
16413
16412.2
16411.3
16410.4
16409.5
16408.5
16407.5
16406.6
16405.5
16404.5
16403.5
16402.5
16401.5
16400.5
16399.6
16398.6
16397.7
16396.7
16395.9
16395
16394.2
16393.4
16392.6
16391.9
16391.2
16390.6
16390
16389.4
16388.9
16388.4
16388
16387.6
16387.2
16386.9
16386.7
16386.5
16386.3
16386.2
16386.1
16386
15574.8
15575.1
15575.8
15576.6
15577.7
15578.9
15580.2
15581.6
15583.2
15585
15586.9
15589.1
15591.4
15594
15596.8
15599.9
15603.2
15606.7
15610.5
15614.4
15618.6
15623
15627.6
15632.4
15637.4
15642.6
15647.9
15653.3
15658.9
15664.7
15670.5
15676.5
15682.6
15688.8
15695.1
15701.4
15707.8
15714.3
15720.9
15727.5
15734.1
15740.8
15747.4
15754.1
15760.8
15767.4
15774.1
15780.7
15787.3
15793.9
15800.4
15806.8
15813.2
15819.5
15825.7
15831.8
15837.9
15843.8
15849.6
15855.4
15861
15866.4
15871.8
15877
15882.1
15887.1
15891.9
15896.6
15901.2
15905.5
15909.8
15913.9
15917.8
15921.6
15925.3
15928.8
15932.1
15935.3
15938.3
15941.2
15943.9
15946.5
15949
15951.2
15953.4
15955.3
15957.2
15958.9
15960.4
15961.8
15963.1
15964.2
15965.2
15966
15966.7
15967.3
15967.8
15968.1
15968.3
15968.4
15968.4
15968.2
15968
15967.6
15967.2
15966.7
15966.1
15965.4
15964.6
15963.8
15962.9
15962
15961
15960
15959
15957.9
15956.8
15955.7
15954.6
15953.5
15952.4
15951.3
15950.2
15949.1
15948
15947
15946
15945
15944
15943.1
15942.2
15941.3
15940.5
15939.7
15939
15938.3
15937.7
15937.1
15936.5
15936
15935.5
15935.1
15934.7
15934.4
15934.1
15933.9
15933.7
15933.6
15933.5
15933.4
15116.9
15117.3
15118
15119
15120.1
15121.5
15123
15124.6
15126.2
15128
15129.9
15132.1
15134.5
15137.1
15140
15143.1
15146.5
15150.1
15154
15158.1
15162.5
15167
15171.8
15176.8
15181.9
15187.2
15192.7
15198.4
15204.2
15210.1
15216.2
15222.4
15228.7
15235.1
15241.5
15248.1
15254.7
15261.4
15268.2
15275
15281.8
15288.7
15295.6
15302.4
15309.3
15316.2
15323
15329.8
15336.6
15343.3
15350
15356.6
15363.2
15369.6
15376
15382.3
15388.4
15394.5
15400.5
15406.3
15412.1
15417.7
15423.1
15428.5
15433.6
15438.7
15443.6
15448.4
15453
15457.4
15461.7
15465.9
15469.8
15473.7
15477.4
15480.9
15484.2
15487.4
15490.5
15493.4
15496.1
15498.7
15501.1
15503.4
15505.5
15507.4
15509.3
15510.9
15512.4
15513.8
15515
15516.1
15517
15517.8
15518.5
15519
15519.3
15519.6
15519.7
15519.7
15519.6
15519.4
15519
15518.6
15518
15517.4
15516.6
15515.8
15514.9
15514
15513
15511.9
15510.8
15509.7
15508.5
15507.3
15506.1
15504.9
15503.6
15502.4
15501.2
15500
15498.8
15497.6
15496.4
15495.3
15494.2
15493.1
15492.1
15491.1
15490.1
15489.2
15488.3
15487.5
15486.7
15485.9
15485.2
15484.6
15484
15483.4
15482.9
15482.5
15482.1
15481.8
15481.5
15481.2
15481
15480.9
15480.8
15480.7
14658.2
14658.8
14659.5
14660.5
14661.9
14663.5
14665.3
14667.1
14668.8
14670.6
14672.5
14674.6
14676.9
14679.6
14682.5
14685.7
14689.2
14693
14697
14701.3
14705.9
14710.6
14715.6
14720.7
14726.1
14731.6
14737.3
14743.2
14749.2
14755.3
14761.6
14768
14774.5
14781.2
14787.9
14794.7
14801.5
14808.4
14815.4
14822.4
14829.5
14836.6
14843.7
14850.8
14857.8
14864.9
14872
14879
14886
14892.9
14899.7
14906.5
14913.3
14919.9
14926.4
14932.9
14939.2
14945.4
14951.5
14957.5
14963.4
14969.1
14974.7
14980.1
14985.4
14990.5
14995.5
15000.3
15005
15009.5
15013.9
15018.1
15022.1
15026
15029.7
15033.2
15036.6
15039.8
15042.9
15045.8
15048.5
15051.1
15053.5
15055.8
15057.8
15059.8
15061.6
15063.2
15064.7
15066
15067.2
15068.2
15069.1
15069.8
15070.4
15070.8
15071.1
15071.3
15071.3
15071.3
15071
15070.7
15070.2
15069.7
15069
15068.2
15067.3
15066.4
15065.4
15064.3
15063.1
15061.9
15060.7
15059.4
15058.1
15056.7
15055.4
15054
15052.7
15051.3
15050
15048.6
15047.3
15046
15044.7
15043.5
15042.3
15041.1
15040
15038.9
15037.9
15036.9
15035.9
15035
15034.2
15033.4
15032.7
15032
15031.3
15030.7
15030.2
15029.7
15029.3
15029
15028.6
15028.4
15028.2
15028
15027.9
15027.8
14198.9
14199.6
14200.3
14201.4
14203.1
14205.1
14207.2
14209.2
14211
14212.7
14214.4
14216.5
14218.8
14221.5
14224.5
14227.8
14231.4
14235.4
14239.6
14244.1
14248.8
14253.7
14258.9
14264.3
14269.9
14275.6
14281.6
14287.7
14293.9
14300.3
14306.8
14313.5
14320.2
14327.1
14334
14341
14348.2
14355.3
14362.5
14369.8
14377.1
14384.4
14391.7
14399.1
14406.4
14413.7
14421
14428.2
14435.4
14442.5
14449.6
14456.6
14463.5
14470.3
14477
14483.7
14490.2
14496.5
14502.8
14508.9
14514.9
14520.7
14526.4
14532
14537.4
14542.6
14547.7
14552.6
14557.3
14561.9
14566.3
14570.6
14574.6
14578.5
14582.3
14585.9
14589.3
14592.5
14595.6
14598.5
14601.2
14603.8
14606.2
14608.4
14610.5
14612.4
14614.2
14615.8
14617.2
14618.5
14619.6
14620.6
14621.4
14622.1
14622.6
14623
14623.2
14623.3
14623.2
14623
14622.7
14622.2
14621.6
14620.9
14620.1
14619.2
14618.2
14617.1
14615.9
14614.7
14613.3
14612
14610.6
14609.1
14607.7
14606.2
14604.7
14603.2
14601.7
14600.2
14598.7
14597.2
14595.8
14594.4
14593
14591.6
14590.3
14589.1
14587.9
14586.7
14585.6
14584.5
14583.5
14582.5
14581.6
14580.7
14579.9
14579.2
14578.5
14577.9
14577.3
14576.8
14576.4
14576
14575.7
14575.4
14575.2
14575
14574.9
14574.8
13738.9
13739.4
13740.3
13741.6
13743.6
13746.1
13748.8
13750.9
13752.6
13754.1
13755.7
13757.6
13759.9
13762.6
13765.7
13769.2
13773
13777.2
13781.6
13786.3
13791.3
13796.5
13801.9
13807.5
13813.3
13819.3
13825.5
13831.8
13838.3
13845
13851.8
13858.7
13865.7
13872.8
13880
13887.3
13894.7
13902.1
13909.6
13917.1
13924.6
13932.2
13939.8
13947.4
13955
13962.5
13970
13977.5
13984.9
13992.3
13999.6
14006.8
14013.9
14020.9
14027.8
14034.6
14041.3
14047.9
14054.3
14060.5
14066.7
14072.7
14078.5
14084.1
14089.6
14095
14100.1
14105.1
14109.9
14114.6
14119
14123.3
14127.5
14131.4
14135.2
14138.8
14142.2
14145.4
14148.5
14151.4
14154.1
14156.7
14159.1
14161.3
14163.4
14165.3
14167
14168.6
14170
14171.2
14172.3
14173.2
14174
14174.6
14175
14175.3
14175.5
14175.5
14175.3
14175
14174.5
14173.9
14173.2
14172.4
14171.4
14170.3
14169.2
14167.9
14166.6
14165.1
14163.6
14162.1
14160.5
14158.9
14157.3
14155.6
14153.9
14152.3
14150.6
14149
14147.3
14145.7
14144.2
14142.6
14141.1
14139.7
14138.3
14136.9
14135.6
14134.3
14133.1
14131.9
14130.8
14129.8
14128.8
14127.9
14127.1
14126.3
14125.6
14124.9
14124.3
14123.7
14123.3
14122.9
14122.5
14122.2
14122
14121.8
14121.7
14121.6
13277.1
13277.5
13278.4
13279.6
13282
13285.2
13288.6
13291.3
13293.1
13294.4
13295.7
13297.6
13299.9
13302.8
13306.2
13309.9
13314
13318.4
13323.1
13328.1
13333.3
13338.7
13344.4
13350.3
13356.4
13362.7
13369.1
13375.7
13382.5
13389.4
13396.4
13403.6
13410.9
13418.3
13425.8
13433.4
13441
13448.7
13456.5
13464.3
13472.1
13480
13487.8
13495.7
13503.5
13511.3
13519.1
13526.8
13534.5
13542.1
13549.7
13557.1
13564.4
13571.7
13578.8
13585.8
13592.7
13599.4
13606
13612.4
13618.7
13624.8
13630.8
13636.5
13642.2
13647.6
13652.8
13657.9
13662.8
13667.5
13672
13676.4
13680.6
13684.5
13688.3
13691.9
13695.4
13698.6
13701.7
13704.6
13707.4
13709.9
13712.3
13714.5
13716.6
13718.4
13720.1
13721.7
13723
13724.2
13725.3
13726.1
13726.8
13727.4
13727.7
13728
13728
13727.9
13727.6
13727.2
13726.6
13725.9
13725
13724
13722.9
13721.7
13720.3
13718.9
13717.3
13715.7
13714
13712.3
13710.5
13708.7
13706.9
13705
13703.2
13701.4
13699.5
13697.7
13695.9
13694.2
13692.5
13690.8
13689.2
13687.6
13686
13684.6
13683.1
13681.8
13680.5
13679.2
13678.1
13676.9
13675.9
13674.9
13674
13673.2
13672.4
13671.7
13671.1
13670.5
13670
13669.5
13669.2
13668.9
13668.6
13668.4
13668.3
13668.2
12812.4
12812.5
12812.2
12812.6
12815.1
12819.5
12824.5
12828.6
12831.1
12832.5
12833.8
12835.8
12838.5
12841.9
12845.7
12849.8
12854.2
12859
12864
12869.3
12874.8
12880.6
12886.5
12892.7
12899.1
12905.6
12912.4
12919.3
12926.3
12933.5
12940.9
12948.4
12955.9
12963.6
12971.4
12979.3
12987.2
12995.3
13003.3
13011.4
13019.6
13027.7
13035.9
13044
13052.1
13060.2
13068.3
13076.3
13084.2
13092.1
13099.9
13107.6
13115.1
13122.6
13130
13137.2
13144.2
13151.2
13157.9
13164.5
13171
13177.2
13183.3
13189.2
13195
13200.5
13205.9
13211
13216
13220.8
13225.3
13229.7
13233.9
13238
13241.8
13245.4
13248.9
13252.1
13255.2
13258.1
13260.9
13263.4
13265.8
13268
13270
13271.8
13273.5
13275
13276.3
13277.5
13278.5
13279.3
13280
13280.4
13280.7
13280.9
13280.8
13280.6
13280.2
13279.7
13279
13278.1
13277.1
13275.9
13274.6
13273.2
13271.6
13270
13268.2
13266.4
13264.5
13262.5
13260.6
13258.5
13256.5
13254.5
13252.4
13250.4
13248.4
13246.4
13244.4
13242.5
13240.7
13238.8
13237.1
13235.3
13233.7
13232.1
13230.6
13229.1
13227.7
13226.4
13225.1
13223.9
13222.8
13221.7
13220.8
13219.9
13219
13218.3
13217.6
13217
13216.5
13216
13215.6
13215.3
13215.1
13214.9
13214.7
13214.6
12345
12344.3
12342.2
12341.1
12343.2
12348.9
12356
12362.4
12366.1
12368
12369.6
12372
12375.5
12379.7
12384.2
12388.9
12393.8
12399
12404.4
12410
12415.9
12422
12428.3
12434.7
12441.4
12448.3
12455.3
12462.5
12469.9
12477.4
12485.1
12492.9
12500.8
12508.8
12516.9
12525.1
12533.3
12541.7
12550
12558.5
12566.9
12575.4
12583.9
12592.3
12600.8
12609.2
12617.5
12625.8
12634
12642.2
12650.2
12658.2
12666
12673.8
12681.3
12688.8
12696.1
12703.2
12710.1
12716.9
12723.5
12730
12736.2
12742.2
12748.1
12753.7
12759.2
12764.4
12769.5
12774.3
12779
12783.4
12787.6
12791.7
12795.5
12799.2
12802.7
12805.9
12809
12811.9
12814.6
12817.2
12819.5
12821.7
12823.7
12825.5
12827.2
12828.6
12829.9
12831.1
12832
12832.8
12833.3
12833.8
12834
12834
12833.9
12833.6
12833.1
12832.4
12831.5
12830.5
12829.3
12828
12826.5
12824.9
12823.1
12821.2
12819.2
12817.2
12815
12812.8
12810.6
12808.4
12806.1
12803.8
12801.6
12799.4
12797.1
12795
12792.8
12790.8
12788.7
12786.7
12784.8
12783
12781.2
12779.5
12777.8
12776.2
12774.7
12773.3
12771.9
12770.6
12769.5
12768.3
12767.3
12766.4
12765.5
12764.7
12764
12763.3
12762.8
12762.3
12761.9
12761.5
12761.3
12761.1
12760.9
12760.8
11877.1
11875.4
11871.3
11869
11870.8
11877.4
11886.5
11894.1
11898.9
11901.5
11903.5
11906.4
11910.9
11916.3
11921.8
11927.3
11932.8
11938.5
11944.3
11950.3
11956.6
11963
11969.6
11976.4
11983.4
11990.6
11998
12005.5
12013.2
12021
12029
12037.1
12045.3
12053.7
12062.1
12070.7
12079.3
12088
12096.7
12105.4
12114.2
12123
12131.8
12140.6
12149.4
12158.1
12166.8
12175.4
12184
12192.4
12200.8
12209
12217.1
12225.1
12232.9
12240.6
12248.1
12255.5
12262.6
12269.6
12276.4
12283
12289.4
12295.5
12301.5
12307.3
12312.8
12318.2
12323.3
12328.2
12332.9
12337.4
12341.6
12345.7
12349.6
12353.3
12356.7
12360
12363.1
12366
12368.7
12371.2
12373.6
12375.7
12377.7
12379.5
12381.1
12382.5
12383.8
12384.9
12385.8
12386.5
12387
12387.4
12387.5
12387.5
12387.3
12386.8
12386.2
12385.4
12384.4
12383.2
12381.9
12380.3
12378.6
12376.8
12374.7
12372.6
12370.4
12368.1
12365.7
12363.2
12360.7
12358.2
12355.7
12353.2
12350.7
12348.2
12345.8
12343.5
12341.1
12338.9
12336.6
12334.5
12332.4
12330.4
12328.5
12326.6
12324.8
12323.1
12321.5
12320
12318.5
12317.2
12315.9
12314.7
12313.6
12312.6
12311.7
12310.8
12310.1
12309.4
12308.8
12308.3
12307.9
12307.5
12307.3
12307
12306.9
12306.8
11412.8
11410.5
11406.1
11403.2
11404.4
11410.5
11419.4
11426.8
11431.4
11434.1
11436.5
11440.2
11445.7
11452.4
11459.1
11465.3
11471.4
11477.5
11483.8
11490.2
11496.8
11503.6
11510.6
11517.7
11525
11532.5
11540.2
11548.1
11556.1
11564.3
11572.6
11581.1
11589.7
11598.4
11607.2
11616.1
11625.1
11634.1
11643.2
11652.3
11661.5
11670.7
11679.8
11689
11698.1
11707.2
11716.2
11725.2
11734
11742.8
11751.5
11760
11768.4
11776.7
11784.8
11792.7
11800.5
11808
11815.4
11822.6
11829.6
11836.3
11842.9
11849.2
11855.3
11861.2
11866.8
11872.2
11877.4
11882.4
11887.1
11891.7
11896
11900.1
11904
11907.6
11911.1
11914.4
11917.5
11920.3
11923
11925.5
11927.8
11930
11931.9
11933.7
11935.3
11936.7
11937.9
11939
11939.8
11940.5
11941
11941.3
11941.4
11941.2
11940.9
11940.4
11939.7
11938.7
11937.6
11936.2
11934.7
11932.9
11931
11928.9
11926.6
11924.2
11921.7
11919
11916.3
11913.6
11910.8
11908
11905.2
11902.5
11899.7
11897
11894.4
11891.8
11889.3
11886.8
11884.4
11882.1
11879.8
11877.7
11875.6
11873.6
11871.7
11869.8
11868.1
11866.5
11864.9
11863.5
11862.1
11860.8
11859.7
11858.6
11857.6
11856.7
11855.9
11855.2
11854.6
11854.1
11853.6
11853.3
11853
11852.8
11852.6
11852.5
10953
10951.2
10947.5
10944.7
10945.3
10949.8
10956.4
10961.8
10965.2
10967.5
10970.2
10974.5
10980.9
10988.8
10996.4
11003.3
11009.9
11016.4
11023.1
11029.8
11036.8
11043.9
11051.2
11058.6
11066.3
11074.2
11082.2
11090.4
11098.8
11107.3
11116
11124.9
11133.8
11142.9
11152.1
11161.4
11170.7
11180.1
11189.6
11199.1
11208.7
11218.2
11227.8
11237.3
11246.8
11256.3
11265.7
11275
11284.2
11293.4
11302.4
11311.2
11319.9
11328.5
11336.9
11345.1
11353.1
11360.9
11368.5
11375.9
11383.1
11390
11396.7
11403.2
11409.4
11415.4
11421.2
11426.7
11431.9
11436.9
11441.7
11446.3
11450.6
11454.7
11458.6
11462.3
11465.8
11469
11472.1
11475
11477.6
11480.1
11482.4
11484.5
11486.4
11488.2
11489.8
11491.1
11492.3
11493.3
11494.2
11494.8
11495.2
11495.5
11495.5
11495.3
11494.9
11494.3
11493.5
11492.4
11491.1
11489.6
11487.8
11485.8
11483.6
11481.3
11478.7
11476
11473.1
11470.1
11467.1
11464
11460.9
11457.8
11454.7
11451.7
11448.7
11445.7
11442.8
11440
11437.2
11434.6
11432
11429.5
11427
11424.7
11422.5
11420.3
11418.2
11416.3
11414.4
11412.7
11411
11409.4
11408
11406.7
11405.4