/*--------------------------------*- C++ -*----------------------------------*\
| =========                 |                                                 |
| \\      /  F ield         | OpenFOAM: The Open Source CFD Toolbox           |
|  \\    /   O peration     | Version:  v2006                                 |
|   \\  /    A nd           | Website:  www.openfoam.com                      |
|    \\/     M anipulation  |                                                 |
\*---------------------------------------------------------------------------*/
FoamFile
{
    version     2.0;
    format      ascii;
    class       surfaceScalarField;
    location    "2.6";
    object      phi;
}
// * * * * * * * * * * * * * * * * * * * * * * * * * * * * * * * * * * * * * //

dimensions      [0 3 -1 0 0 0 0];
oriented        oriented;


internalField   nonuniform List<scalar> 
299200
(
0.000937095
-0.000937095
0.0024105
-0.0014734
0.00381543
-0.00140494
0.00513612
-0.00132068
0.00640064
-0.00126452
0.00765254
-0.0012519
0.00890283
-0.00125029
0.0101473
-0.00124452
0.0113853
-0.00123798
0.0126155
-0.00123014
0.013836
-0.00122054
0.0150463
-0.00121033
0.0162459
-0.0011996
0.0174341
-0.00118811
0.01861
-0.00117595
0.0197731
-0.00116314
0.0209228
-0.00114964
0.0220582
-0.00113544
0.0231788
-0.00112059
0.0242839
-0.00110508
0.0253728
-0.00108894
0.026445
-0.00107216
0.0274998
-0.00105476
0.0285365
-0.00103675
0.0295547
-0.00101815
0.0305536
-0.000998961
0.0315328
-0.000979212
0.0324917
-0.000958918
0.0334298
-0.0009381
0.0343466
-0.000916778
0.0352416
-0.000894967
0.0361143
-0.000872686
0.0369642
-0.000849963
0.0377911
-0.000826835
0.0385944
-0.000803343
0.0393739
-0.000779524
0.0401294
-0.000755415
0.0408604
-0.000731049
0.0415669
-0.000706464
0.0422486
-0.000681699
0.0429054
-0.000656797
0.0435372
-0.000631799
0.0441439
-0.000606754
0.0447256
-0.00058172
0.0452824
-0.000556757
0.0458143
-0.000531888
0.0463213
-0.000507015
0.0468032
-0.000481923
0.0472598
-0.00045653
0.0476911
-0.000431346
0.0480989
-0.000407785
0.0484867
-0.000387818
0.0488596
-0.000372929
0.0492226
-0.000362985
0.0495785
-0.00035592
0.0499271
-0.000348573
0.0502653
-0.000338146
0.0505886
-0.000323324
0.050893
-0.000304421
0.0511757
-0.00028268
0.0514351
-0.000259433
0.0516707
-0.000235591
0.0518815
-0.000210825
0.0520631
-0.000181616
0.052203
-0.000139869
0.0522809
-7.78839e-05
0.0522881
-7.16258e-06
0.0522306
5.74845e-05
0.0521386
9.20149e-05
0.0520257
0.000112858
0.0518937
0.000132048
0.0517407
0.000153003
0.0515653
0.000175359
0.0513673
0.000197986
0.051147
0.000220291
0.0509047
0.000242276
0.0506408
0.000263981
0.0503553
0.000285448
0.0500486
0.00030669
0.0497209
0.000327696
0.0493725
0.000348454
0.0490035
0.000368949
0.0486143
0.000389172
0.0482052
0.000409109
0.0477765
0.000428747
0.0473284
0.000448073
0.0468613
0.000467072
0.0463756
0.000485727
0.0458716
0.00050402
0.0453497
0.000521934
0.0448102
0.000539447
0.0442537
0.000556536
0.0436805
0.000573178
0.0430912
0.000589348
0.0424861
0.000605028
0.0418659
0.000620199
0.0412311
0.000634828
0.0405822
0.000648886
0.0399199
0.000662344
0.0392447
0.000675173
0.0385574
0.000687341
0.0378585
0.000698816
0.037149
0.000709564
0.0364294
0.00071955
0.0357007
0.000728741
0.0349636
0.000737104
0.034219
0.000744607
0.0334678
0.000751218
0.0327109
0.000756906
0.0319492
0.000761643
0.0311838
0.000765403
0.0304156
0.000768162
0.0296457
0.000769899
0.0288752
0.000770598
0.0281049
0.000770247
0.0273361
0.00076884
0.0265697
0.000766376
0.0258068
0.000762857
0.0250485
0.000758294
0.0242958
0.000752701
0.0235497
0.000746096
0.0228112
0.000738505
0.0220813
0.000729957
0.0213608
0.000720486
0.0206507
0.000710131
0.0199517
0.000698933
0.0192648
0.00068694
0.0185906
0.0006742
0.0179298
0.000660769
0.0172831
0.000646702
0.0166511
0.000632061
0.0160341
0.000616909
0.0154328
0.000601311
0.0148475
0.000585337
0.0142784
0.000569055
0.0137259
0.000552533
0.0131901
0.000535832
0.0126711
0.000519001
0.012169
0.000502078
0.0116839
0.00048508
0.0112159
0.000468004
0.0107651
0.000450832
0.0103315
0.000433544
0.00991541
0.000416124
0.00951684
0.000398573
0.00913594
0.000380905
0.00877278
0.000363152
0.00842742
0.000345367
0.00809981
0.000327611
0.00778985
0.000309952
0.00749739
0.00029246
0.00722219
0.000275202
0.00696395
0.000258245
0.0067223
0.000241652
0.00649682
0.00022548
0.00628703
0.000209782
0.00609243
0.000194606
0.00591243
0.000179994
0.00574645
0.000165984
0.00559384
0.000152609
0.00545394
0.000139903
0.00532603
0.000127902
0.00520937
0.000116663
0.00510309
0.000106285
0.0050062
9.68831e-05
0.00491784
8.83682e-05
0.00483733
8.05058e-05
0.00476416
7.31724e-05
0.00469769
6.64634e-05
0.00463722
6.04721e-05
0.00458206
5.51625e-05
0.00453152
5.05416e-05
0.00448483
4.6691e-05
0.00444136
4.34692e-05
0.00440036
4.09946e-05
0.00436112
3.92424e-05
0.00432298
3.81371e-05
0.00428524
3.77473e-05
0.00424722
3.80126e-05
0.00420822
3.89988e-05
0.00416759
4.06354e-05
0.00412467
4.29202e-05
0.00407876
4.59106e-05
0.0040292
4.95584e-05
0.00397525
5.39533e-05
0.00391623
5.90212e-05
0.00385141
6.48154e-05
0.00378002
7.13933e-05
0.00370111
7.8905e-05
0.00361426
8.68547e-05
0.00351967
9.45856e-05
0.00341812
0.000101548
0.00331034
0.000107786
0.00319667
0.000113671
0.00307712
0.000119545
0.00295157
0.000125549
0.00281989
0.000131681
0.002682
0.000137898
0.00253782
0.00014417
0.00238735
0.000150478
0.00223054
0.000156804
0.00206741
0.000163137
0.00189794
0.000169464
0.00172218
0.000175763
0.00154015
0.000182034
0.00135189
0.000188258
0.00115746
0.000194427
0.000956929
0.000200531
0.000750368
0.000206562
0.000537857
0.000212511
0.000319486
0.000218371
9.53485e-05
0.000224137
-0.000134453
0.000229802
-0.000369773
0.00023532
-0.000610602
0.000240829
-0.000856689
0.000246087
-0.0011081
0.000251416
-0.00136465
0.000256544
-0.00162613
0.000261479
-0.00189241
0.000266279
-0.00216335
0.00027094
-0.0024389
0.000275548
-0.00271921
0.000280317
-0.00300482
0.000285612
-0.00329692
0.000292092
-0.00359723
0.000300309
-0.00390844
0.000311216
-0.00423354
0.000325094
-0.00457586
0.000342324
-0.00493775
0.000361892
-0.00532043
0.00038268
-0.00572328
0.000402845
-0.00614385
0.000420577
-0.00657837
0.000434514
-0.00702233
0.00044396
-0.00747135
0.000449019
-0.00792195
0.000450602
-0.00837175
0.000449803
-0.00881943
0.000447679
-0.00926447
0.000445044
-0.00970681
0.000442332
-0.0101466
0.000439748
-0.0105838
0.000437272
-0.0110185
0.000434663
-0.0114506
0.000432092
-0.01188
0.000429443
-0.0123067
0.000426647
-0.0127304
0.000423755
-0.0131512
0.000420791
-0.013569
0.000417773
-0.0139837
0.000414711
-0.0143953
0.000411607
-0.0148038
0.000408468
-0.0152091
0.000405292
-0.0156111
0.000402064
-0.0160099
0.000398794
-0.0164054
0.000395499
-0.0167975
0.00039212
-0.0171863
0.000388707
-0.0175715
0.00038522
-0.0179532
0.000381686
-0.0183312
0.00037807
-0.0187056
0.000374399
-0.0190763
0.000370631
-0.0194431
0.000366812
-0.019806
0.000362885
-0.0201649
0.000358899
-0.0205197
0.000354817
-0.0208703
0.000350621
-0.0212167
0.000346358
-0.0215586
0.000341977
-0.0218961
0.000337506
-0.0222291
0.000332952
-0.0225574
0.000328288
-0.0228809
0.000323511
-0.0231995
0.000318629
-0.0235132
0.000313683
-0.0238218
0.000308621
-0.0241252
0.00030342
-0.0244234
0.000298151
-0.0247162
0.000292812
-0.0250036
0.000287375
-0.0252854
0.000281848
-0.0255616
0.000276224
-0.0258322
0.000270523
-0.0260969
0.000264769
-0.0263559
0.000258924
-0.0266089
0.000253004
-0.0268559
0.000247004
-0.0270968
0.000240946
-0.0273316
0.000234828
-0.0275603
0.000228664
-0.0277827
0.000222439
-0.0279989
0.00021618
-0.0282088
0.000209913
-0.0284125
0.000203639
-0.0286099
0.000197405
-0.0288011
0.000191232
-0.0289862
0.000185099
-0.0291652
0.000179008
-0.0293382
0.000173006
-0.0295053
0.000167093
-0.0296665
0.000161153
-0.0298216
0.000155151
-0.0299707
0.000149088
-0.0301136
0.000142894
-0.0302501
0.00013646
-0.0303798
0.000129705
-0.0305023
0.000122562
-0.0306174
0.00011503
-0.0307243
0.000106937
-0.0308218
9.75419e-05
-0.0309093
8.74884e-05
-0.0309857
7.63632e-05
-0.0310497
6.39583e-05
-0.0310995
4.98846e-05
-0.0311333
3.37971e-05
-0.0311492
1.58661e-05
-0.0311466
-2.61738e-06
-0.0311268
-1.97618e-05
-0.0310914
-3.54085e-05
-0.0310405
-5.08961e-05
-0.0309742
-6.6366e-05
-0.0308923
-8.18266e-05
-0.030795
-9.73531e-05
-0.030682
-0.000113008
-0.0305533
-0.000128681
-0.0304091
-0.000144149
-0.0302493
-0.000159801
-0.0300739
-0.000175416
-0.029883
-0.00019095
-0.0296766
-0.000206364
-0.0294549
-0.000221718
-0.0292178
-0.000237046
-0.0289656
-0.000252278
-0.0286985
-0.000267054
-0.0284165
-0.000282005
-0.0281197
-0.000296765
-0.0278086
-0.000311153
-0.0274831
-0.000325437
-0.0271436
-0.000339508
-0.0267903
-0.000353346
-0.0264234
-0.00036691
-0.0260431
-0.00038027
-0.0256499
-0.00039323
-0.025244
-0.000405919
-0.0248256
-0.000418366
-0.0243952
-0.000430357
-0.0239531
-0.000442111
-0.0234996
-0.0004535
-0.0230351
-0.000464559
-0.0225599
-0.000475204
-0.0220744
-0.000485458
-0.0215791
-0.000495313
-0.0210743
-0.000504765
-0.0205605
-0.000513834
-0.020038
-0.000522456
-0.0195074
-0.000530665
-0.018969
-0.000538387
-0.0184233
-0.00054568
-0.0178708
-0.000552546
-0.0173118
-0.000558914
-0.016747
-0.000564819
-0.0161767
-0.000570283
-0.0156015
-0.000575242
-0.0150217
-0.000579761
-0.014438
-0.000583743
-0.0138508
-0.000587242
-0.0132605
-0.000590259
-0.0126677
-0.000592783
-0.0120729
-0.0005948
-0.0114766
-0.000596309
-0.0108793
-0.00059732
-0.0102815
-0.000597831
-0.00968362
-0.000597837
-0.00908628
-0.000597339
-0.00848995
-0.000596328
-0.00789515
-0.000594804
-0.00730237
-0.000592782
-0.00671211
-0.00059026
-0.00612488
-0.000587228
-0.00554119
-0.000583694
-0.00496156
-0.000579627
-0.00438663
-0.000574931
-0.00381627
-0.000570364
-0.00325172
-0.000564545
-0.00269257
-0.000559152
-0.00214007
-0.000552499
-0.00159447
-0.000545596
-0.00105627
-0.000538208
-0.000525773
-0.000530493
-3.42305e-06
-0.000522349
0.000510282
-0.000513705
0.00101493
-0.000504643
0.00151013
-0.000495203
0.0019955
-0.000485376
0.00247067
-0.00047517
0.00293528
-0.000464606
0.00338898
-0.000453697
0.00383142
-0.000442444
0.00426229
-0.000430865
0.00468127
-0.000418985
0.00508809
-0.000406815
0.00548245
-0.000394366
0.00586412
-0.000381664
0.00623283
-0.000368718
0.00658838
-0.000355545
0.00693055
-0.000342174
0.00725917
-0.000328617
0.00757406
-0.000314889
0.00787507
-0.000301013
0.00816208
-0.000287007
0.00843497
-0.000272888
0.00869364
-0.000258678
0.00893805
-0.000244403
0.00916812
-0.000230073
0.00938383
-0.000215706
0.00958515
-0.000201325
0.0097721
-0.000186947
0.00994469
-0.000172593
0.010103
-0.000158278
0.010247
-0.00014402
0.0103768
-0.000129834
0.0104926
-0.000115738
0.0105943
-0.000101745
0.0106822
-8.78691e-05
0.0107563
-7.41245e-05
0.0108168
-6.05276e-05
0.0108639
-4.71113e-05
0.0108979
-3.39205e-05
0.0109189
-2.10281e-05
0.0109269
-8.00183e-06
0.0109225
4.37996e-06
0.010906
1.64605e-05
0.0108779
2.81574e-05
0.0108384
3.9499e-05
0.0107879
5.05104e-05
0.0107267
6.12102e-05
0.0106551
7.15841e-05
0.0105735
8.16101e-05
0.0104822
9.12787e-05
0.0103816
0.000100579
0.0102721
0.000109496
0.0101541
0.000118062
0.0100278
0.000126284
0.00989364
0.000134136
0.00975204
0.000141598
0.00960337
0.000148674
0.009448
0.000155373
0.0092863
0.000161697
0.00911866
0.000167635
0.00894547
0.000173192
0.00876712
0.000178347
0.00858398
0.000183145
0.0083964
0.000187575
0.00820478
0.000191621
0.00800953
0.000195254
0.007811
0.000198534
0.00760954
0.000201456
0.00740559
0.00020395
0.00719955
0.000206042
0.00699181
0.000207735
0.00678291
0.000208901
0.00657351
0.000209402
0.00636421
0.000209295
0.0061554
0.000208809
0.00594723
0.000208178
0.00573976
0.000207468
0.00553314
0.000206623
0.00532753
0.000205602
0.00512312
0.000204413
0.00492004
0.000203078
0.00471847
0.00020157
0.00451854
0.000199932
0.00432034
0.000198197
0.004124
0.000196347
0.00392964
0.000194358
0.00373733
0.00019231
0.00354709
0.000190239
0.00335904
0.000188049
0.00317318
0.000185865
0.00298956
0.00018362
0.00280847
0.000181087
0.0026274
0.000181073
0.00245505
0.000172343
0.00227364
0.000181417
0.0021099
0.000163733
0.00193076
0.000179139
0.0017734
0.000157365
0.00159685
0.000176544
0.00144473
0.000152129
0.00125796
0.000186764
0.00111911
0.000138848
0.000905874
0.00021324
0.000798325
0.000107549
0.000614105
0.000184219
0.000516378
9.77274e-05
0.000520399
-4.02157e-06
0.000201479
0.00031892
0.000201479
0.00092884
-0.00186593
0.00229654
-0.00284111
0.00363118
-0.00273957
0.00486542
-0.00255492
0.00606057
-0.00245967
0.00724136
-0.00243269
0.00842006
-0.00242899
0.00959642
-0.00242087
0.010767
-0.0024086
0.0119298
-0.00239289
0.0130842
-0.00237498
0.0142297
-0.00235579
0.0153656
-0.00233555
0.0164916
-0.00231406
0.017607
-0.00229135
0.0187113
-0.00226744
0.019804
-0.00224231
0.0208845
-0.002216
0.0219525
-0.00218856
0.0230074
-0.00216001
0.0240488
-0.00213038
0.0250764
-0.00209971
0.0260896
-0.00206802
0.0270882
-0.00203534
0.0280718
-0.00200171
0.02904
-0.00196717
0.0299925
-0.00193175
0.0309291
-0.00189549
0.0318494
-0.00185844
0.0327533
-0.00182064
0.0336405
-0.00178213
0.0345107
-0.00174295
0.0353639
-0.00170314
0.0361998
-0.00166277
0.0370184
-0.0016219
0.0378195
-0.00158058
0.0386029
-0.00153886
0.0393687
-0.00149682
0.0401167
-0.00145451
0.040847
-0.00141199
0.0415595
-0.0013693
0.0422542
-0.00132651
0.0429311
-0.00128367
0.0435903
-0.00124083
0.0442315
-0.00119804
0.044855
-0.00115534
0.0454607
-0.00111277
0.0460492
-0.00107033
0.0466207
-0.00102804
0.0471752
-0.000985901
0.0477114
-0.000943956
0.0482258
-0.000902254
0.0487137
-0.000860779
0.0491701
-0.000819402
0.0495921
-0.000777902
0.0499796
-0.000736055
0.0503351
-0.000693717
0.0506626
-0.000650826
0.0509656
-0.000607361
0.0512462
-0.000563297
0.0515054
-0.0005186
0.051743
-0.000473254
0.0519595
-0.000427301
0.0521587
-0.000380835
0.0523528
-0.000333965
0.0525619
-0.000286941
0.0527946
-0.000239843
0.0530408
-0.000188763
0.0532691
-0.000136299
0.0534651
-8.3097e-05
0.0536247
-2.75403e-05
0.0537541
2.35398e-05
0.0538534
7.60446e-05
0.0539213
0.000130131
0.0539566
0.000184942
0.0539589
0.00024002
0.0539277
0.000295208
0.0538626
0.000350479
0.0537635
0.000405779
0.0536302
0.000461036
0.0534625
0.000516169
0.0532604
0.00057109
0.0530238
0.000625707
0.052753
0.000679925
0.0524481
0.000733646
0.0521094
0.000786772
0.0517373
0.000839203
0.0513322
0.000890839
0.0508946
0.000941579
0.0504252
0.000991323
0.0499247
0.00103997
0.0493938
0.00108742
0.0488334
0.00113356
0.0482445
0.00117831
0.0476279
0.00122158
0.0469848
0.00126328
0.0463164
0.0013033
0.0456237
0.00134158
0.044908
0.00137802
0.0441706
0.00141253
0.0434129
0.00144505
0.0426362
0.0014755
0.041842
0.0015038
0.0410316
0.0015299
0.0402066
0.00155374
0.0393685
0.00157525
0.0385187
0.00159439
0.0376588
0.00161111
0.0367903
0.00162538
0.0359148
0.00163718
0.0350337
0.00164647
0.0341487
0.00165324
0.0332611
0.0016575
0.0323724
0.00165924
0.0314842
0.00165848
0.0305978
0.00165523
0.0297147
0.00164952
0.0288361
0.0016414
0.0279635
0.00163089
0.0270982
0.00161807
0.0262413
0.00160297
0.0253941
0.00158568
0.0245578
0.00156625
0.0237335
0.00154478
0.0229223
0.00152135
0.0221252
0.00149604
0.0213432
0.00146896
0.0205772
0.00144021
0.019828
0.00140989
0.0190966
0.00137811
0.0183837
0.001345
0.01769
0.00131065
0.0170161
0.00127521
0.0163626
0.00123878
0.0157302
0.0012015
0.0151192
0.00116347
0.0145302
0.00112484
0.0139635
0.00108571
0.0134194
0.00104622
0.012898
0.00100646
0.0123994
0.000966568
0.0119236
0.00092664
0.0114704
0.000886787
0.0110394
0.000847114
0.0106302
0.000807728
0.0102424
0.000768736
0.00987531
0.000730244
0.00952832
0.000692355
0.00920076
0.000655173
0.00889191
0.000618797
0.00860106
0.000583318
0.00832743
0.000548825
0.00807028
0.000515396
0.00782883
0.000483104
0.00760229
0.000452016
0.00738989
0.000422186
0.00719083
0.000393665
0.00700434
0.000366491
0.00682962
0.000340696
0.00666593
0.000316306
0.00651249
0.000293337
0.00636859
0.000271803
0.00623353
0.000251724
0.00610673
0.000233085
0.00598778
0.000215832
0.00587617
0.000199985
0.00577095
0.00018572
0.00567124
0.000172885
0.0055763
0.000161401
0.00548554
0.000151232
0.00539836
0.00014234
0.00531414
0.000134764
0.00523231
0.000128525
0.00515229
0.000123487
0.00507361
0.000119668
0.00499587
0.000116991
0.00491849
0.000115517
0.00484111
0.000115126
0.00476325
0.000115868
0.00468468
0.000117571
0.00460503
0.000120282
0.00452404
0.000123912
0.00444148
0.000128471
0.00435719
0.000133845
0.0042711
0.00014005
0.00418315
0.00014697
0.00409336
0.000154608
0.00400189
0.00016286
0.00390906
0.000171737
0.00381477
0.000181142
0.00371826
0.000191093
0.00361835
0.000201459
0.00351385
0.000212283
0.00340404
0.000223488
0.00328854
0.000235044
0.00316719
0.000246897
0.00303987
0.000259001
0.00290646
0.000271311
0.00276684
0.000283787
0.00262093
0.00029639
0.00246864
0.000309085
0.00230994
0.000321839
0.00214479
0.00033462
0.00197315
0.000347397
0.00179504
0.000360144
0.00161047
0.000372833
0.00141945
0.000385442
0.00122204
0.000397944
0.00101828
0.000410322
0.000808233
0.000422556
0.000591976
0.000434628
0.000369588
0.000446525
0.000141169
0.000458221
-9.32355e-05
0.000469724
-0.000333383
0.000480977
-0.000579183
0.000491887
-0.000830876
0.000503108
-0.00108784
0.000513513
-0.00135022
0.000523859
-0.00161794
0.000533992
-0.00189092
0.000543923
-0.00216905
0.000553682
-0.00245206
0.000563319
-0.00273933
0.000572882
-0.0030297
0.000582467
-0.00332147
0.000592077
-0.00361242
0.000602168
-0.00390003
0.000612709
-0.00418136
0.000623648
-0.00445501
0.000635543
-0.00471996
0.000647629
-0.00497662
0.000659504
-0.00522648
0.000670435
-0.00547154
0.000679581
-0.00571421
0.000686626
-0.00595657
0.000691384
-0.00620028
0.00069431
-0.00644646
0.000695983
-0.00669572
0.000696938
-0.00694814
0.000697467
-0.00720379
0.00069798
-0.00746243
0.000698384
-0.00772377
0.000698616
-0.00798768
0.000698576
-0.0082539
0.000698309
-0.00852222
0.000697764
-0.00879253
0.000696958
-0.00906468
0.0006959
-0.00933851
0.000694628
-0.00961388
0.000693142
-0.00989061
0.000691443
-0.0101685
0.00068953
-0.0104475
0.000687389
-0.0107272
0.000685007
-0.0110075
0.0006824
-0.0112883
0.000679547
-0.0115692
0.000676404
-0.0118501
0.000673036
-0.0121308
0.000669386
-0.012411
0.000665456
-0.0126905
0.000661234
-0.0129692
0.000656718
-0.0132467
0.000651879
-0.0135228
0.00064675
-0.0137973
0.0006413
-0.0140699
0.000635523
-0.0143404
0.000629416
-0.0146086
0.000622974
-0.0148742
0.000616212
-0.0151369
0.000609063
-0.0153965
0.000601565
-0.0156527
0.000593702
-0.0159052
0.000585502
-0.0161538
0.000576899
-0.0163983
0.00056799
-0.0166384
0.000558684
-0.0168737
0.00054899
-0.017104
0.000538915
-0.0173291
0.000528517
-0.0175486
0.000517713
-0.0177624
0.000506579
-0.01797
0.000495001
-0.0181713
0.000483103
-0.0183659
0.000470838
-0.0185536
0.000458197
-0.018734
0.00044516
-0.0189068
0.000431766
-0.0190718
0.000417988
-0.0192286
0.000403855
-0.019377
0.000389359
-0.0195167
0.000374477
-0.0196473
0.000359243
-0.0197685
0.00034368
-0.0198801
0.000327777
-0.0199818
0.000311578
-0.0200732
0.000295104
-0.0201542
0.000278349
-0.0202243
0.000261319
-0.0202832
0.000244017
-0.0203306
0.000226404
-0.0203661
0.000208502
-0.0203892
0.000190225
-0.0203995
0.000171479
-0.0203967
0.000152324
-0.0203802
0.000132613
-0.0203497
0.000112376
-0.0203047
9.1488e-05
-0.0202449
6.98578e-05
-0.0201698
4.74979e-05
-0.0200795
2.47026e-05
-0.0199742
1.59184e-06
-0.0198518
-2.47734e-05
-0.0197135
-5.08889e-05
-0.0195593
-7.78031e-05
-0.0193902
-0.000105123
-0.0192078
-0.000132543
-0.0190144
-0.000159581
-0.0188131
-0.00018546
-0.0186054
-0.000210297
-0.0183901
-0.000235069
-0.0181655
-0.00026001
-0.0179315
-0.000284867
-0.0176882
-0.000309706
-0.0174356
-0.000334395
-0.0171739
-0.000359069
-0.0169032
-0.000383713
-0.0166234
-0.000408444
-0.0163346
-0.000433002
-0.0160368
-0.000457553
-0.0157302
-0.000482016
-0.0154149
-0.000506319
-0.0150908
-0.000530442
-0.0147581
-0.000554452
-0.0144169
-0.000578206
-0.0140675
-0.000601623
-0.0137099
-0.000624743
-0.0133442
-0.000647652
-0.0129708
-0.000670137
-0.0125898
-0.000692179
-0.0122014
-0.000713856
-0.0118058
-0.000735124
-0.0114032
-0.000755959
-0.0109937
-0.000776344
-0.0105782
-0.00079578
-0.0101563
-0.000815111
-0.00972845
-0.00083381
-0.00929487
-0.000851943
-0.00885579
-0.000869439
-0.00841155
-0.000886358
-0.00796236
-0.00090268
-0.00750866
-0.000918262
-0.00705063
-0.000933234
-0.00658852
-0.000947566
-0.00612265
-0.000961189
-0.00565329
-0.000974118
-0.00518082
-0.000986312
-0.00470544
-0.000997835
-0.00422751
-0.00100859
-0.0037472
-0.0010187
-0.00326493
-0.00102795
-0.00278098
-0.0010365
-0.00229562
-0.00104428
-0.00180918
-0.00105126
-0.00132186
-0.0010576
-0.000834064
-0.00106304
-0.000346144
-0.00106768
0.000141708
-0.00107159
0.00062916
-0.00107469
0.0011159
-0.001077
0.00160164
-0.00107852
0.00208608
-0.00107924
0.00256892
-0.00107915
0.00304985
-0.00107826
0.00352859
-0.00107657
0.00400481
-0.00107406
0.00447823
-0.00107076
0.00494855
-0.00106665
0.00541546
-0.00106172
0.00587868
-0.001056
0.0063379
-0.00104948
0.00679282
-0.00104215
0.00724313
-0.001034
0.00768856
-0.00102506
0.00812897
-0.00101533
0.0085636
-0.00100499
0.00899278
-0.000993733
0.0094155
-0.000981867
0.00983208
-0.000969083
0.010242
-0.000955524
0.0106451
-0.00094127
0.0110409
-0.000926341
0.0114293
-0.000910713
0.0118099
-0.000894362
0.0121826
-0.000877326
0.0125471
-0.000859637
0.012903
-0.000841306
0.0132502
-0.000822358
0.0135884
-0.000802817
0.0139174
-0.000782697
0.014237
-0.000762014
0.0145469
-0.000740796
0.014847
-0.000719073
0.015137
-0.000696862
0.0154168
-0.000674185
0.0156863
-0.000651087
0.0159451
-0.000627584
0.0161933
-0.000603709
0.0164306
-0.000579488
0.0166569
-0.000554953
0.0168722
-0.000530136
0.0170763
-0.000505073
0.017269
-0.000479794
0.0174505
-0.000454325
0.0176205
-0.0004287
0.0177791
-0.000402953
0.0179261
-0.000377121
0.0180616
-0.000351233
0.0181856
-0.000325316
0.0182981
-0.000299403
0.018399
-0.00027353
0.0184885
-0.000247718
0.0185664
-0.000222001
0.018633
-0.000196403
0.0186882
-0.000170957
0.0187322
-0.000145683
0.0187649
-0.000120604
0.0187865
-9.57483e-05
0.0187972
-7.11619e-05
0.0187969
-4.68813e-05
0.0187861
-2.31122e-05
0.0187651
-3.1082e-08
0.0187335
2.36429e-05
0.0186919
4.5962e-05
0.0186405
6.78456e-05
0.0185794
8.92987e-05
0.0185086
0.000110288
0.0184283
0.000130801
0.0183387
0.00015083
0.0182399
0.000170354
0.0181322
0.000189343
0.0180157
0.000207785
0.0178906
0.000225676
0.017757
0.000243011
0.0176153
0.000259794
0.0174656
0.000276032
0.017308
0.000291702
0.0171428
0.000306786
0.0169702
0.000321287
0.0167904
0.000335217
0.0166035
0.000348579
0.0164097
0.000361369
0.0162093
0.000373592
0.0160024
0.000385247
0.0157892
0.00039634
0.0155699
0.000406892
0.0153446
0.000416903
0.0151135
0.000426362
0.0148768
0.000435277
0.0146346
0.000443676
0.014387
0.000451542
0.0141342
0.000458858
0.0138763
0.000465622
0.0136134
0.000471794
0.0133454
0.000477387
0.0130721
0.0004826
0.0127932
0.00048773
0.0125084
0.000492927
0.0122178
0.000498103
0.0119213
0.000503112
0.0116189
0.000507955
0.0113106
0.000512724
0.0109963
0.000517409
0.0106759
0.000521925
0.0103496
0.000526231
0.0100175
0.00053037
0.00967945
0.000534378
0.00933553
0.000538276
0.00898574
0.000542101
0.00863009
0.000545887
0.00826857
0.000549564
0.00790119
0.000553246
0.00752822
0.000556595
0.00714857
0.000560733
0.00676699
0.000562656
0.00637122
0.000568108
0.00598475
0.000567893
0.0055732
0.000575279
0.00518074
0.000571596
0.00475509
0.000583025
0.00435744
0.000574187
0.00391851
0.000591057
0.00352364
0.00058164
0.00307292
0.000589563
0.00268814
0.000598019
0.00222495
0.000570745
0.00180364
0.000605529
0.00133197
0.0005694
0.000756002
0.000571943
0.000410448
0.000664474
0.000611927
0.000939663
-0.0028056
0.00235597
-0.00425741
0.00372768
-0.00411128
0.0050035
-0.00383074
0.00623017
-0.00368634
0.00744438
-0.00364691
0.00865533
-0.00363995
0.00986369
-0.00362923
0.0110661
-0.00361096
0.0122605
-0.00358737
0.0134461
-0.00356055
0.0146221
-0.00353178
0.0157879
-0.00350134
0.0169429
-0.00346907
0.0180865
-0.00343496
0.0192181
-0.00339905
0.0203371
-0.00336134
0.021443
-0.00332189
0.0225352
-0.00328075
0.0236132
-0.00323799
0.0246764
-0.00319363
0.0257245
-0.00314772
0.0267568
-0.00310033
0.0277729
-0.00305149
0.0287725
-0.00300126
0.029755
-0.00294969
0.0307201
-0.00289685
0.0316674
-0.00284278
0.0325965
-0.00278755
0.0335071
-0.00273122
0.0343988
-0.00267386
0.0352714
-0.00261554
0.0361246
-0.00255632
0.0369581
-0.00249628
0.0377717
-0.0024355
0.0385652
-0.00237405
0.0393383
-0.00231202
0.040091
-0.00224949
0.040823
-0.00218653
0.0415343
-0.00212322
0.0422246
-0.00205963
0.0428939
-0.00199582
0.0435421
-0.00193186
0.0441691
-0.00186781
0.0447747
-0.0018037
0.045359
-0.00173961
0.0459218
-0.00167556
0.0464631
-0.00161163
0.0469829
-0.00154788
0.0474814
-0.00148435
0.0479585
-0.00142104
0.0484141
-0.00135786
0.048848
-0.00129469
0.04926
-0.00123141
0.04965
-0.00116793
0.0500182
-0.00110423
0.0503647
-0.00104028
0.0506899
-0.000975987
0.0509937
-0.000911174
0.051276
-0.000845618
0.0515365
-0.000779069
0.0517744
-0.000711198
0.0519888
-0.000641668
0.0521786
-0.000570626
0.052344
-0.000499358
0.0524869
-0.000429834
0.0526089
-0.000361814
0.0527113
-0.00029121
0.052792
-0.000216955
0.0528496
-0.00014077
0.0528869
-6.48391e-05
0.0528971
1.33452e-05
0.0528802
9.2935e-05
0.052839
0.000171343
0.0527736
0.000250322
0.0526834
0.000330221
0.0525677
0.000410981
0.0524257
0.000492408
0.0522572
0.000574349
0.0520615
0.000656661
0.0518385
0.000739201
0.0515878
0.000821816
0.0513091
0.000904349
0.0510024
0.000986634
0.0506676
0.0010685
0.0503046
0.00114977
0.0499135
0.00123027
0.0494945
0.00130982
0.0490479
0.00138822
0.0485739
0.0014653
0.048073
0.00154088
0.0475457
0.00161475
0.0469925
0.00168676
0.0464141
0.00175671
0.0458112
0.00182444
0.0451847
0.00188978
0.0445355
0.00195256
0.0438644
0.00201263
0.0431726
0.00206983
0.0424611
0.00212402
0.0417311
0.00217507
0.0409837
0.00222285
0.0402203
0.00226724
0.0394421
0.00230814
0.0386503
0.00234545
0.0378465
0.00237909
0.0370319
0.00240899
0.0362079
0.00243508
0.035376
0.00245732
0.0345375
0.00247567
0.0336939
0.0024901
0.0328465
0.00250062
0.0319968
0.00250721
0.0311461
0.00250992
0.0302958
0.00250875
0.0294473
0.00250376
0.0286018
0.002495
0.0277607
0.00248253
0.0269251
0.00246643
0.0260964
0.00244678
0.0252757
0.00242368
0.0244642
0.00239723
0.0236629
0.00236755
0.0228729
0.00233476
0.0220952
0.00229899
0.0213309
0.00226038
0.0205808
0.00221909
0.0198457
0.00217525
0.0191266
0.00212904
0.0184241
0.00208063
0.0177389
0.00203017
0.0170717
0.00197786
0.016423
0.00192387
0.0157934
0.00186838
0.0151833
0.00181158
0.0145931
0.00175366
0.0140232
0.00169481
0.0134737
0.00163522
0.0129448
0.00157507
0.0124367
0.00151455
0.0119494
0.00145385
0.0114829
0.00139316
0.011037
0.00133266
0.0106116
0.00127252
0.0102064
0.00121293
0.00982112
0.00115405
0.00945534
0.00109603
0.00910868
0.00103902
0.00878068
0.000983174
0.00847086
0.000928616
0.0081787
0.00087547
0.00790368
0.000823852
0.0076452
0.000773868
0.0074027
0.000725612
0.00717554
0.000679171
0.00696311
0.000634618
0.00676476
0.000592019
0.00657982
0.000551427
0.00640763
0.000512886
0.0062475
0.000476432
0.00609876
0.00044208
0.00596076
0.000409806
0.00583283
0.000379647
0.00571424
0.000351676
0.00560413
0.000325943
0.00550172
0.000302396
0.0054067
0.000280745
0.0053184
0.000261184
0.00523599
0.00024381
0.0051588
0.000228419
0.00508619
0.000214953
0.00501741
0.000203538
0.00495183
0.000194106
0.00488894
0.000186379
0.004828
0.000180612
0.00476852
0.000176471
0.00470987
0.000174166
0.00465156
0.00017343
0.00459312
0.000174317
0.00453396
0.000176732
0.00447361
0.000180633
0.00441153
0.000185988
0.00434739
0.000192613
0.00428067
0.000200564
0.00421103
0.000209688
0.00413798
0.000220021
0.00406125
0.000231339
0.00398051
0.000243597
0.00389549
0.000256759
0.00380598
0.000270653
0.00371162
0.00028545
0.00361208
0.000300999
0.00350702
0.000317349
0.00339621
0.000334296
0.00327952
0.000351727
0.00315686
0.00036956
0.00302812
0.000387744
0.00289321
0.000406225
0.00275204
0.000424956
0.00260455
0.000443874
0.00245071
0.000462932
0.00229047
0.000482077
0.00212383
0.000501262
0.00195078
0.000520443
0.00177135
0.000539576
0.00158556
0.000558624
0.00139344
0.000577556
0.00119507
0.000596322
0.000990485
0.000614904
0.000779771
0.00063327
0.000563006
0.000651393
0.00034027
0.000669262
0.000111687
0.000686803
-0.000122636
0.000704047
-0.000362772
0.000721113
-0.000608722
0.000737837
-0.000859339
0.000753726
-0.0011156
0.000769771
-0.00137709
0.000785355
-0.00164368
0.000800581
-0.00191525
0.00081549
-0.00219169
0.000830125
-0.0024729
0.000844526
-0.00275875
0.00085873
-0.00304907
0.000872786
-0.00334373
0.000886741
-0.00364222
0.000900655
-0.00394415
0.00091464
-0.0042491
0.000928599
-0.00455636
0.000942804
-0.00486536
0.00095663
-0.00517583
0.000969975
-0.00548775
0.000982352
-0.00580156
0.000993392
-0.00611754
0.0010026
-0.00643626
0.0010101
-0.00675784
0.0010159
-0.00708225
0.00102039
-0.00740913
0.00102382
-0.00773817
0.00102651
-0.00806888
0.00102869
-0.00840091
0.00103042
-0.00873402
0.00103172
-0.00906803
0.00103258
-0.00940273
0.00103301
-0.0097379
0.00103293
-0.0100735
0.00103253
-0.0104092
0.00103168
-0.010745
0.00103043
-0.0110807
0.0010288
-0.011416
0.00102678
-0.0117509
0.0010244
-0.0120851
0.00102158
-0.0124185
0.00101837
-0.0127508
0.00101477
-0.013082
0.00101075
-0.0134119
0.0010063
-0.0137403
0.00100141
-0.014067
0.000996076
-0.0143918
0.000990282
-0.0147146
0.000984019
-0.0150352
0.000977288
-0.0153533
0.000970044
-0.0156689
0.000962299
-0.0159816
0.000954058
-0.0162914
0.000945276
-0.016598
0.000936007
-0.0169012
0.000926181
-0.0172008
0.000915819
-0.0174967
0.000904909
-0.0177885
0.000893437
-0.0180762
0.000881334
-0.0183594
0.000868774
-0.0186381
0.000855594
-0.0189119
0.000841779
-0.0191807
0.000827451
-0.0194442
0.000812515
-0.0197022
0.000796939
-0.0199545
0.000780814
-0.0202009
0.000764066
-0.0204411
0.00074675
-0.0206749
0.000728833
-0.020902
0.000710264
-0.0211223
0.000691142
-0.0213356
0.000671403
-0.0215414
0.000650987
-0.0217397
0.000630043