/*--------------------------------*- C++ -*----------------------------------*\
| =========                 |                                                 |
| \\      /  F ield         | OpenFOAM: The Open Source CFD Toolbox           |
|  \\    /   O peration     | Version:  v2006                                 |
|   \\  /    A nd           | Website:  www.openfoam.com                      |
|    \\/     M anipulation  |                                                 |
\*---------------------------------------------------------------------------*/
FoamFile
{
    version     2.0;
    format      ascii;
    class       volVectorField;
    location    "0";
    object      U_new;
}
// * * * * * * * * * * * * * * * * * * * * * * * * * * * * * * * * * * * * * //

dimensions      [0 1 -1 0 0 0 0];


internalField   nonuniform List<vector> 
2500
(
(0.000144 -0.002592 0)
(0.000144 -0.007776 0)
(0.000144 -0.01296 0)
(0.000144 -0.018144 0)
(0.000144 -0.023328 0)
(0.000144 -0.028512 0)
(0.000144 -0.033696 0)
(0.000144 -0.03888 0)
(0.000144 -0.044064 0)
(0.000144 -0.049248 0)
(0.000144 -0.054432 0)
(0.000144 -0.059616 0)
(0.000144 -0.0648 0)
(0.000144 -0.069984 0)
(0.000144 -0.075168 0)
(0.000144 -0.080352 0)
(0.000144 -0.085536 0)
(0.000144 -0.09072 0)
(0.000144 -0.095904 0)
(0.000144 -0.101088 0)
(0.000144 -0.106272 0)
(0.000144 -0.111456 0)
(0.000144 -0.11664 0)
(0.000144 -0.121824 0)
(0.000144 -0.127008 0)
(0.000144 -0.132192 0)
(0.000144 -0.137376 0)
(0.000144 -0.14256 0)
(0.000144 -0.147744 0)
(0.000144 -0.152928 0)
(0.000144 -0.158112 0)
(0.000144 -0.163296 0)
(0.000144 -0.16848 0)
(0.000144 -0.173664 0)
(0.000144 -0.178848 0)
(0.000144 -0.184032 0)
(0.000144 -0.189216 0)
(0.000144 -0.1944 0)
(0.000144 -0.199584 0)
(0.000144 -0.204768 0)
(0.000144 -0.209952 0)
(0.000144 -0.215136 0)
(0.000144 -0.22032 0)
(0.000144 -0.225504 0)
(0.000144 -0.230688 0)
(0.000144 -0.235872 0)
(0.000144 -0.241056 0)
(0.000144 -0.24624 0)
(0.000144 -0.251424 0)
(0.000144 -0.256608 0)
(0.001296 -0.002592 0)
(0.001296 -0.007776 0)
(0.001296 -0.01296 0)
(0.001296 -0.018144 0)
(0.001296 -0.023328 0)
(0.001296 -0.028512 0)
(0.001296 -0.033696 0)
(0.001296 -0.03888 0)
(0.001296 -0.044064 0)
(0.001296 -0.049248 0)
(0.001296 -0.054432 0)
(0.001296 -0.059616 0)
(0.001296 -0.0648 0)
(0.001296 -0.069984 0)
(0.001296 -0.075168 0)
(0.001296 -0.080352 0)
(0.001296 -0.085536 0)
(0.001296 -0.09072 0)
(0.001296 -0.095904 0)
(0.001296 -0.101088 0)
(0.001296 -0.106272 0)
(0.001296 -0.111456 0)
(0.001296 -0.11664 0)
(0.001296 -0.121824 0)
(0.001296 -0.127008 0)
(0.001296 -0.132192 0)
(0.001296 -0.137376 0)
(0.001296 -0.14256 0)
(0.001296 -0.147744 0)
(0.001296 -0.152928 0)
(0.001296 -0.158112 0)
(0.001296 -0.163296 0)
(0.001296 -0.16848 0)
(0.001296 -0.173664 0)
(0.001296 -0.178848 0)
(0.001296 -0.184032 0)
(0.001296 -0.189216 0)
(0.001296 -0.1944 0)
(0.001296 -0.199584 0)
(0.001296 -0.204768 0)
(0.001296 -0.209952 0)
(0.001296 -0.215136 0)
(0.001296 -0.22032 0)
(0.001296 -0.225504 0)
(0.001296 -0.230688 0)
(0.001296 -0.235872 0)
(0.001296 -0.241056 0)
(0.001296 -0.24624 0)
(0.001296 -0.251424 0)
(0.001296 -0.256608 0)
(0.0036 -0.002592 0)
(0.0036 -0.007776 0)
(0.0036 -0.01296 0)
(0.0036 -0.018144 0)
(0.0036 -0.023328 0)
(0.0036 -0.028512 0)
(0.0036 -0.033696 0)
(0.0036 -0.03888 0)
(0.0036 -0.044064 0)
(0.0036 -0.049248 0)
(0.0036 -0.054432 0)
(0.0036 -0.059616 0)
(0.0036 -0.0648 0)
(0.0036 -0.069984 0)
(0.0036 -0.075168 0)
(0.0036 -0.080352 0)
(0.0036 -0.085536 0)
(0.0036 -0.09072 0)
(0.0036 -0.095904 0)
(0.0036 -0.101088 0)
(0.0036 -0.106272 0)
(0.0036 -0.111456 0)
(0.0036 -0.11664 0)
(0.0036 -0.121824 0)
(0.0036 -0.127008 0)
(0.0036 -0.132192 0)
(0.0036 -0.137376 0)
(0.0036 -0.14256 0)
(0.0036 -0.147744 0)
(0.0036 -0.152928 0)
(0.0036 -0.158112 0)
(0.0036 -0.163296 0)
(0.0036 -0.16848 0)
(0.0036 -0.173664 0)
(0.0036 -0.178848 0)
(0.0036 -0.184032 0)
(0.0036 -0.189216 0)
(0.0036 -0.1944 0)
(0.0036 -0.199584 0)
(0.0036 -0.204768 0)
(0.0036 -0.209952 0)
(0.0036 -0.215136 0)
(0.0036 -0.22032 0)
(0.0036 -0.225504 0)
(0.0036 -0.230688 0)
(0.0036 -0.235872 0)
(0.0036 -0.241056 0)
(0.0036 -0.24624 0)
(0.0036 -0.251424 0)
(0.0036 -0.256608 0)
(0.007056 -0.002592 0)
(0.007056 -0.007776 0)
(0.007056 -0.01296 0)
(0.007056 -0.018144 0)
(0.007056 -0.023328 0)
(0.007056 -0.028512 0)
(0.007056 -0.033696 0)
(0.007056 -0.03888 0)
(0.007056 -0.044064 0)
(0.007056 -0.049248 0)
(0.007056 -0.054432 0)
(0.007056 -0.059616 0)
(0.007056 -0.0648 0)
(0.007056 -0.069984 0)
(0.007056 -0.075168 0)
(0.007056 -0.080352 0)
(0.007056 -0.085536 0)
(0.007056 -0.09072 0)
(0.007056 -0.095904 0)
(0.007056 -0.101088 0)
(0.007056 -0.106272 0)
(0.007056 -0.111456 0)
(0.007056 -0.11664 0)
(0.007056 -0.121824 0)
(0.007056 -0.127008 0)
(0.007056 -0.132192 0)
(0.007056 -0.137376 0)
(0.007056 -0.14256 0)
(0.007056 -0.147744 0)
(0.007056 -0.152928 0)
(0.007056 -0.158112 0)
(0.007056 -0.163296 0)
(0.007056 -0.16848 0)
(0.007056 -0.173664 0)
(0.007056 -0.178848 0)
(0.007056 -0.184032 0)
(0.007056 -0.189216 0)
(0.007056 -0.1944 0)
(0.007056 -0.199584 0)
(0.007056 -0.204768 0)
(0.007056 -0.209952 0)
(0.007056 -0.215136 0)
(0.007056 -0.22032 0)
(0.007056 -0.225504 0)
(0.007056 -0.230688 0)
(0.007056 -0.235872 0)
(0.007056 -0.241056 0)
(0.007056 -0.24624 0)
(0.007056 -0.251424 0)
(0.007056 -0.256608 0)
(0.011664 -0.002592 0)
(0.011664 -0.007776 0)
(0.011664 -0.01296 0)
(0.011664 -0.018144 0)
(0.011664 -0.023328 0)
(0.011664 -0.028512 0)
(0.011664 -0.033696 0)
(0.011664 -0.03888 0)
(0.011664 -0.044064 0)
(0.011664 -0.049248 0)
(0.011664 -0.054432 0)
(0.011664 -0.059616 0)
(0.011664 -0.0648 0)
(0.011664 -0.069984 0)
(0.011664 -0.075168 0)
(0.011664 -0.080352 0)
(0.011664 -0.085536 0)
(0.011664 -0.09072 0)
(0.011664 -0.095904 0)
(0.011664 -0.101088 0)
(0.011664 -0.106272 0)
(0.011664 -0.111456 0)
(0.011664 -0.11664 0)
(0.011664 -0.121824 0)
(0.011664 -0.127008 0)
(0.011664 -0.132192 0)
(0.011664 -0.137376 0)
(0.011664 -0.14256 0)
(0.011664 -0.147744 0)
(0.011664 -0.152928 0)
(0.011664 -0.158112 0)
(0.011664 -0.163296 0)
(0.011664 -0.16848 0)
(0.011664 -0.173664 0)
(0.011664 -0.178848 0)
(0.011664 -0.184032 0)
(0.011664 -0.189216 0)
(0.011664 -0.1944 0)
(0.011664 -0.199584 0)
(0.011664 -0.204768 0)
(0.011664 -0.209952 0)
(0.011664 -0.215136 0)
(0.011664 -0.22032 0)
(0.011664 -0.225504 0)
(0.011664 -0.230688 0)
(0.011664 -0.235872 0)
(0.011664 -0.241056 0)
(0.011664 -0.24624 0)
(0.011664 -0.251424 0)
(0.011664 -0.256608 0)
(0.017424 -0.002592 0)
(0.017424 -0.007776 0)
(0.017424 -0.01296 0)
(0.017424 -0.018144 0)
(0.017424 -0.023328 0)
(0.017424 -0.028512 0)
(0.017424 -0.033696 0)
(0.017424 -0.03888 0)
(0.017424 -0.044064 0)
(0.017424 -0.049248 0)
(0.017424 -0.054432 0)
(0.017424 -0.059616 0)
(0.017424 -0.0648 0)
(0.017424 -0.069984 0)
(0.017424 -0.075168 0)
(0.017424 -0.080352 0)
(0.017424 -0.085536 0)
(0.017424 -0.09072 0)
(0.017424 -0.095904 0)
(0.017424 -0.101088 0)
(0.017424 -0.106272 0)
(0.017424 -0.111456 0)
(0.017424 -0.11664 0)
(0.017424 -0.121824 0)
(0.017424 -0.127008 0)
(0.017424 -0.132192 0)
(0.017424 -0.137376 0)
(0.017424 -0.14256 0)
(0.017424 -0.147744 0)
(0.017424 -0.152928 0)
(0.017424 -0.158112 0)
(0.017424 -0.163296 0)
(0.017424 -0.16848 0)
(0.017424 -0.173664 0)
(0.017424 -0.178848 0)
(0.017424 -0.184032 0)
(0.017424 -0.189216 0)
(0.017424 -0.1944 0)
(0.017424 -0.199584 0)
(0.017424 -0.204768 0)
(0.017424 -0.209952 0)
(0.017424 -0.215136 0)
(0.017424 -0.22032 0)
(0.017424 -0.225504 0)
(0.017424 -0.230688 0)
(0.017424 -0.235872 0)
(0.017424 -0.241056 0)
(0.017424 -0.24624 0)
(0.017424 -0.251424 0)
(0.017424 -0.256608 0)
(0.024336 -0.002592 0)
(0.024336 -0.007776 0)
(0.024336 -0.01296 0)
(0.024336 -0.018144 0)
(0.024336 -0.023328 0)
(0.024336 -0.028512 0)
(0.024336 -0.033696 0)
(0.024336 -0.03888 0)
(0.024336 -0.044064 0)
(0.024336 -0.049248 0)
(0.024336 -0.054432 0)
(0.024336 -0.059616 0)
(0.024336 -0.0648 0)
(0.024336 -0.069984 0)
(0.024336 -0.075168 0)
(0.024336 -0.080352 0)
(0.024336 -0.085536 0)
(0.024336 -0.09072 0)
(0.024336 -0.095904 0)
(0.024336 -0.101088 0)
(0.024336 -0.106272 0)
(0.024336 -0.111456 0)
(0.024336 -0.11664 0)
(0.024336 -0.121824 0)
(0.024336 -0.127008 0)
(0.024336 -0.132192 0)
(0.024336 -0.137376 0)
(0.024336 -0.14256 0)
(0.024336 -0.147744 0)
(0.024336 -0.152928 0)
(0.024336 -0.158112 0)
(0.024336 -0.163296 0)
(0.024336 -0.16848 0)
(0.024336 -0.173664 0)
(0.024336 -0.178848 0)
(0.024336 -0.184032 0)
(0.024336 -0.189216 0)
(0.024336 -0.1944 0)
(0.024336 -0.199584 0)
(0.024336 -0.204768 0)
(0.024336 -0.209952 0)
(0.024336 -0.215136 0)
(0.024336 -0.22032 0)
(0.024336 -0.225504 0)
(0.024336 -0.230688 0)
(0.024336 -0.235872 0)
(0.024336 -0.241056 0)
(0.024336 -0.24624 0)
(0.024336 -0.251424 0)
(0.024336 -0.256608 0)
(0.0324 -0.002592 0)
(0.0324 -0.007776 0)
(0.0324 -0.01296 0)
(0.0324 -0.018144 0)
(0.0324 -0.023328 0)
(0.0324 -0.028512 0)
(0.0324 -0.033696 0)
(0.0324 -0.03888 0)
(0.0324 -0.044064 0)
(0.0324 -0.049248 0)
(0.0324 -0.054432 0)
(0.0324 -0.059616 0)
(0.0324 -0.0648 0)
(0.0324 -0.069984 0)
(0.0324 -0.075168 0)
(0.0324 -0.080352 0)
(0.0324 -0.085536 0)
(0.0324 -0.09072 0)
(0.0324 -0.095904 0)
(0.0324 -0.101088 0)
(0.0324 -0.106272 0)
(0.0324 -0.111456 0)
(0.0324 -0.11664 0)
(0.0324 -0.121824 0)
(0.0324 -0.127008 0)
(0.0324 -0.132192 0)
(0.0324 -0.137376 0)
(0.0324 -0.14256 0)
(0.0324 -0.147744 0)
(0.0324 -0.152928 0)
(0.0324 -0.158112 0)
(0.0324 -0.163296 0)
(0.0324 -0.16848 0)
(0.0324 -0.173664 0)
(0.0324 -0.178848 0)
(0.0324 -0.184032 0)
(0.0324 -0.189216 0)
(0.0324 -0.1944 0)
(0.0324 -0.199584 0)
(0.0324 -0.204768 0)
(0.0324 -0.209952 0)
(0.0324 -0.215136 0)
(0.0324 -0.22032 0)
(0.0324 -0.225504 0)
(0.0324 -0.230688 0)
(0.0324 -0.235872 0)
(0.0324 -0.241056 0)
(0.0324 -0.24624 0)
(0.0324 -0.251424 0)
(0.0324 -0.256608 0)
(0.041616 -0.002592 0)
(0.041616 -0.007776 0)
(0.041616 -0.01296 0)
(0.041616 -0.018144 0)
(0.041616 -0.023328 0)
(0.041616 -0.028512 0)
(0.041616 -0.033696 0)
(0.041616 -0.03888 0)
(0.041616 -0.044064 0)
(0.041616 -0.049248 0)
(0.041616 -0.054432 0)
(0.041616 -0.059616 0)
(0.041616 -0.0648 0)
(0.041616 -0.069984 0)
(0.041616 -0.075168 0)
(0.041616 -0.080352 0)
(0.041616 -0.085536 0)
(0.041616 -0.09072 0)
(0.041616 -0.095904 0)
(0.041616 -0.101088 0)
(0.041616 -0.106272 0)
(0.041616 -0.111456 0)
(0.041616 -0.11664 0)
(0.041616 -0.121824 0)
(0.041616 -0.127008 0)
(0.041616 -0.132192 0)
(0.041616 -0.137376 0)
(0.041616 -0.14256 0)
(0.041616 -0.147744 0)
(0.041616 -0.152928 0)
(0.041616 -0.158112 0)
(0.041616 -0.163296 0)
(0.041616 -0.16848 0)
(0.041616 -0.173664 0)
(0.041616 -0.178848 0)
(0.041616 -0.184032 0)
(0.041616 -0.189216 0)
(0.041616 -0.1944 0)
(0.041616 -0.199584 0)
(0.041616 -0.204768 0)
(0.041616 -0.209952 0)
(0.041616 -0.215136 0)
(0.041616 -0.22032 0)
(0.041616 -0.225504 0)
(0.041616 -0.230688 0)
(0.041616 -0.235872 0)
(0.041616 -0.241056 0)
(0.041616 -0.24624 0)
(0.041616 -0.251424 0)
(0.041616 -0.256608 0)
(0.051984 -0.002592 0)
(0.051984 -0.007776 0)
(0.051984 -0.01296 0)
(0.051984 -0.018144 0)
(0.051984 -0.023328 0)
(0.051984 -0.028512 0)
(0.051984 -0.033696 0)
(0.051984 -0.03888 0)
(0.051984 -0.044064 0)
(0.051984 -0.049248 0)
(0.051984 -0.054432 0)
(0.051984 -0.059616 0)
(0.051984 -0.0648 0)
(0.051984 -0.069984 0)
(0.051984 -0.075168 0)
(0.051984 -0.080352 0)
(0.051984 -0.085536 0)
(0.051984 -0.09072 0)
(0.051984 -0.095904 0)
(0.051984 -0.101088 0)
(0.051984 -0.106272 0)
(0.051984 -0.111456 0)
(0.051984 -0.11664 0)
(0.051984 -0.121824 0)
(0.051984 -0.127008 0)
(0.051984 -0.132192 0)
(0.051984 -0.137376 0)
(0.051984 -0.14256 0)
(0.051984 -0.147744 0)
(0.051984 -0.152928 0)
(0.051984 -0.158112 0)
(0.051984 -0.163296 0)
(0.051984 -0.16848 0)
(0.051984 -0.173664 0)
(0.051984 -0.178848 0)
(0.051984 -0.184032 0)
(0.051984 -0.189216 0)
(0.051984 -0.1944 0)
(0.051984 -0.199584 0)
(0.051984 -0.204768 0)
(0.051984 -0.209952 0)
(0.051984 -0.215136 0)
(0.051984 -0.22032 0)
(0.051984 -0.225504 0)
(0.051984 -0.230688 0)
(0.051984 -0.235872 0)
(0.051984 -0.241056 0)
(0.051984 -0.24624 0)
(0.051984 -0.251424 0)
(0.051984 -0.256608 0)
(0.063504 -0.002592 0)
(0.063504 -0.007776 0)
(0.063504 -0.01296 0)
(0.063504 -0.018144 0)
(0.063504 -0.023328 0)
(0.063504 -0.028512 0)
(0.063504 -0.033696 0)
(0.063504 -0.03888 0)
(0.063504 -0.044064 0)
(0.063504 -0.049248 0)
(0.063504 -0.054432 0)
(0.063504 -0.059616 0)
(0.063504 -0.0648 0)
(0.063504 -0.069984 0)
(0.063504 -0.075168 0)
(0.063504 -0.080352 0)
(0.063504 -0.085536 0)
(0.063504 -0.09072 0)
(0.063504 -0.095904 0)
(0.063504 -0.101088 0)
(0.063504 -0.106272 0)
(0.063504 -0.111456 0)
(0.063504 -0.11664 0)
(0.063504 -0.121824 0)
(0.063504 -0.127008 0)
(0.063504 -0.132192 0)
(0.063504 -0.137376 0)
(0.063504 -0.14256 0)
(0.063504 -0.147744 0)
(0.063504 -0.152928 0)
(0.063504 -0.158112 0)
(0.063504 -0.163296 0)
(0.063504 -0.16848 0)
(0.063504 -0.173664 0)
(0.063504 -0.178848 0)
(0.063504 -0.184032 0)
(0.063504 -0.189216 0)
(0.063504 -0.1944 0)
(0.063504 -0.199584 0)
(0.063504 -0.204768 0)
(0.063504 -0.209952 0)
(0.063504 -0.215136 0)
(0.063504 -0.22032 0)
(0.063504 -0.225504 0)
(0.063504 -0.230688 0)
(0.063504 -0.235872 0)
(0.063504 -0.241056 0)
(0.063504 -0.24624 0)
(0.063504 -0.251424 0)
(0.063504 -0.256608 0)
(0.076176 -0.002592 0)
(0.076176 -0.007776 0)
(0.076176 -0.01296 0)
(0.076176 -0.018144 0)
(0.076176 -0.023328 0)
(0.076176 -0.028512 0)
(0.076176 -0.033696 0)
(0.076176 -0.03888 0)
(0.076176 -0.044064 0)
(0.076176 -0.049248 0)
(0.076176 -0.054432 0)
(0.076176 -0.059616 0)
(0.076176 -0.0648 0)
(0.076176 -0.069984 0)
(0.076176 -0.075168 0)
(0.076176 -0.080352 0)
(0.076176 -0.085536 0)
(0.076176 -0.09072 0)
(0.076176 -0.095904 0)
(0.076176 -0.101088 0)
(0.076176 -0.106272 0)
(0.076176 -0.111456 0)
(0.076176 -0.11664 0)
(0.076176 -0.121824 0)
(0.076176 -0.127008 0)
(0.076176 -0.132192 0)
(0.076176 -0.137376 0)
(0.076176 -0.14256 0)
(0.076176 -0.147744 0)
(0.076176 -0.152928 0)
(0.076176 -0.158112 0)
(0.076176 -0.163296 0)
(0.076176 -0.16848 0)
(0.076176 -0.173664 0)
(0.076176 -0.178848 0)
(0.076176 -0.184032 0)
(0.076176 -0.189216 0)
(0.076176 -0.1944 0)
(0.076176 -0.199584 0)
(0.076176 -0.204768 0)
(0.076176 -0.209952 0)
(0.076176 -0.215136 0)
(0.076176 -0.22032 0)
(0.076176 -0.225504 0)
(0.076176 -0.230688 0)
(0.076176 -0.235872 0)
(0.076176 -0.241056 0)
(0.076176 -0.24624 0)
(0.076176 -0.251424 0)
(0.076176 -0.256608 0)
(0.09 -0.002592 0)
(0.09 -0.007776 0)
(0.09 -0.01296 0)
(0.09 -0.018144 0)
(0.09 -0.023328 0)
(0.09 -0.028512 0)
(0.09 -0.033696 0)
(0.09 -0.03888 0)
(0.09 -0.044064 0)
(0.09 -0.049248 0)
(0.09 -0.054432 0)
(0.09 -0.059616 0)
(0.09 -0.0648 0)
(0.09 -0.069984 0)
(0.09 -0.075168 0)
(0.09 -0.080352 0)
(0.09 -0.085536 0)
(0.09 -0.09072 0)
(0.09 -0.095904 0)
(0.09 -0.101088 0)
(0.09 -0.106272 0)
(0.09 -0.111456 0)
(0.09 -0.11664 0)
(0.09 -0.121824 0)
(0.09 -0.127008 0)
(0.09 -0.132192 0)
(0.09 -0.137376 0)
(0.09 -0.14256 0)
(0.09 -0.147744 0)
(0.09 -0.152928 0)
(0.09 -0.158112 0)
(0.09 -0.163296 0)
(0.09 -0.16848 0)
(0.09 -0.173664 0)
(0.09 -0.178848 0)
(0.09 -0.184032 0)
(0.09 -0.189216 0)
(0.09 -0.1944 0)
(0.09 -0.199584 0)
(0.09 -0.204768 0)
(0.09 -0.209952 0)
(0.09 -0.215136 0)
(0.09 -0.22032 0)
(0.09 -0.225504 0)
(0.09 -0.230688 0)
(0.09 -0.235872 0)
(0.09 -0.241056 0)
(0.09 -0.24624 0)
(0.09 -0.251424 0)
(0.09 -0.256608 0)
(0.104976 -0.002592 0)
(0.104976 -0.007776 0)
(0.104976 -0.01296 0)
(0.104976 -0.018144 0)
(0.104976 -0.023328 0)
(0.104976 -0.028512 0)
(0.104976 -0.033696 0)
(0.104976 -0.03888 0)
(0.104976 -0.044064 0)
(0.104976 -0.049248 0)
(0.104976 -0.054432 0)
(0.104976 -0.059616 0)
(0.104976 -0.0648 0)
(0.104976 -0.069984 0)
(0.104976 -0.075168 0)
(0.104976 -0.080352 0)
(0.104976 -0.085536 0)
(0.104976 -0.09072 0)
(0.104976 -0.095904 0)
(0.104976 -0.101088 0)
(0.104976 -0.106272 0)
(0.104976 -0.111456 0)
(0.104976 -0.11664 0)
(0.104976 -0.121824 0)
(0.104976 -0.127008 0)
(0.104976 -0.132192 0)
(0.104976 -0.137376 0)
(0.104976 -0.14256 0)
(0.104976 -0.147744 0)
(0.104976 -0.152928 0)
(0.104976 -0.158112 0)
(0.104976 -0.163296 0)
(0.104976 -0.16848 0)
(0.104976 -0.173664 0)
(0.104976 -0.178848 0)
(0.104976 -0.184032 0)
(0.104976 -0.189216 0)
(0.104976 -0.1944 0)
(0.104976 -0.199584 0)
(0.104976 -0.204768 0)
(0.104976 -0.209952 0)
(0.104976 -0.215136 0)
(0.104976 -0.22032 0)
(0.104976 -0.225504 0)
(0.104976 -0.230688 0)
(0.104976 -0.235872 0)
(0.104976 -0.241056 0)
(0.104976 -0.24624 0)
(0.104976 -0.251424 0)
(0.104976 -0.256608 0)
(0.121104 -0.002592 0)
(0.121104 -0.007776 0)
(0.121104 -0.01296 0)
(0.121104 -0.018144 0)
(0.121104 -0.023328 0)
(0.121104 -0.028512 0)
(0.121104 -0.033696 0)
(0.121104 -0.03888 0)
(0.121104 -0.044064 0)
(0.121104 -0.049248 0)
(0.121104 -0.054432 0)
(0.121104 -0.059616 0)
(0.121104 -0.0648 0)
(0.121104 -0.069984 0)
(0.121104 -0.075168 0)
(0.121104 -0.080352 0)
(0.121104 -0.085536 0)
(0.121104 -0.09072 0)
(0.121104 -0.095904 0)
(0.121104 -0.101088 0)
(0.121104 -0.106272 0)
(0.121104 -0.111456 0)
(0.121104 -0.11664 0)
(0.121104 -0.121824 0)
(0.121104 -0.127008 0)
(0.121104 -0.132192 0)
(0.121104 -0.137376 0)
(0.121104 -0.14256 0)
(0.121104 -0.147744 0)
(0.121104 -0.152928 0)
(0.121104 -0.158112 0)
(0.121104 -0.163296 0)
(0.121104 -0.16848 0)
(0.121104 -0.173664 0)
(0.121104 -0.178848 0)
(0.121104 -0.184032 0)
(0.121104 -0.189216 0)
(0.121104 -0.1944 0)
(0.121104 -0.199584 0)
(0.121104 -0.204768 0)
(0.121104 -0.209952 0)
(0.121104 -0.215136 0)
(0.121104 -0.22032 0)
(0.121104 -0.225504 0)
(0.121104 -0.230688 0)
(0.121104 -0.235872 0)
(0.121104 -0.241056 0)
(0.121104 -0.24624 0)
(0.121104 -0.251424 0)
(0.121104 -0.256608 0)
(0.138384 -0.002592 0)
(0.138384 -0.007776 0)
(0.138384 -0.01296 0)
(0.138384 -0.018144 0)
(0.138384 -0.023328 0)
(0.138384 -0.028512 0)
(0.138384 -0.033696 0)
(0.138384 -0.03888 0)
(0.138384 -0.044064 0)
(0.138384 -0.049248 0)
(0.138384 -0.054432 0)
(0.138384 -0.059616 0)
(0.138384 -0.0648 0)
(0.138384 -0.069984 0)
(0.138384 -0.075168 0)
(0.138384 -0.080352 0)
(0.138384 -0.085536 0)
(0.138384 -0.09072 0)
(0.138384 -0.095904 0)
(0.138384 -0.101088 0)
(0.138384 -0.106272 0)
(0.138384 -0.111456 0)
(0.138384 -0.11664 0)
(0.138384 -0.121824 0)
(0.138384 -0.127008 0)
(0.138384 -0.132192 0)
(0.138384 -0.137376 0)
(0.138384 -0.14256 0)
(0.138384 -0.147744 0)
(0.138384 -0.152928 0)
(0.138384 -0.158112 0)
(0.138384 -0.163296 0)
(0.138384 -0.16848 0)
(0.138384 -0.173664 0)
(0.138384 -0.178848 0)
(0.138384 -0.184032 0)
(0.138384 -0.189216 0)
(0.138384 -0.1944 0)
(0.138384 -0.199584 0)
(0.138384 -0.204768 0)
(0.138384 -0.209952 0)
(0.138384 -0.215136 0)
(0.138384 -0.22032 0)
(0.138384 -0.225504 0)
(0.138384 -0.230688 0)
(0.138384 -0.235872 0)
(0.138384 -0.241056 0)
(0.138384 -0.24624 0)
(0.138384 -0.251424 0)
(0.138384 -0.256608 0)
(0.156816 -0.002592 0)
(0.156816 -0.007776 0)
(0.156816 -0.01296 0)
(0.156816 -0.018144 0)
(0.156816 -0.023328 0)
(0.156816 -0.028512 0)
(0.156816 -0.033696 0)
(0.156816 -0.03888 0)
(0.156816 -0.044064 0)
(0.156816 -0.049248 0)
(0.156816 -0.054432 0)
(0.156816 -0.059616 0)
(0.156816 -0.0648 0)
(0.156816 -0.069984 0)
(0.156816 -0.075168 0)
(0.156816 -0.080352 0)
(0.156816 -0.085536 0)
(0.156816 -0.09072 0)
(0.156816 -0.095904 0)
(0.156816 -0.101088 0)
(0.156816 -0.106272 0)
(0.156816 -0.111456 0)
(0.156816 -0.11664 0)
(0.156816 -0.121824 0)
(0.156816 -0.127008 0)
(0.156816 -0.132192 0)
(0.156816 -0.137376 0)
(0.156816 -0.14256 0)
(0.156816 -0.147744 0)
(0.156816 -0.152928 0)
(0.156816 -0.158112 0)
(0.156816 -0.163296 0)
(0.156816 -0.16848 0)
(0.156816 -0.173664 0)
(0.156816 -0.178848 0)
(0.156816 -0.184032 0)
(0.156816 -0.189216 0)
(0.156816 -0.1944 0)
(0.156816 -0.199584 0)
(0.156816 -0.204768 0)
(0.156816 -0.209952 0)
(0.156816 -0.215136 0)
(0.156816 -0.22032 0)
(0.156816 -0.225504 0)
(0.156816 -0.230688 0)
(0.156816 -0.235872 0)
(0.156816 -0.241056 0)
(0.156816 -0.24624 0)
(0.156816 -0.251424 0)
(0.156816 -0.256608 0)
(0.1764 -0.002592 0)
(0.1764 -0.007776 0)
(0.1764 -0.01296 0)
(0.1764 -0.018144 0)
(0.1764 -0.023328 0)
(0.1764 -0.028512 0)
(0.1764 -0.033696 0)
(0.1764 -0.03888 0)
(0.1764 -0.044064 0)
(0.1764 -0.049248 0)
(0.1764 -0.054432 0)
(0.1764 -0.059616 0)
(0.1764 -0.0648 0)
(0.1764 -0.069984 0)
(0.1764 -0.075168 0)
(0.1764 -0.080352 0)
(0.1764 -0.085536 0)
(0.1764 -0.09072 0)
(0.1764 -0.095904 0)
(0.1764 -0.101088 0)
(0.1764 -0.106272 0)
(0.1764 -0.111456 0)
(0.1764 -0.11664 0)
(0.1764 -0.121824 0)
(0.1764 -0.127008 0)
(0.1764 -0.132192 0)
(0.1764 -0.137376 0)
(0.1764 -0.14256 0)
(0.1764 -0.147744 0)
(0.1764 -0.152928 0)
(0.1764 -0.158112 0)
(0.1764 -0.163296 0)
(0.1764 -0.16848 0)
(0.1764 -0.173664 0)
(0.1764 -0.178848 0)
(0.1764 -0.184032 0)
(0.1764 -0.189216 0)
(0.1764 -0.1944 0)
(0.1764 -0.199584 0)
(0.1764 -0.204768 0)
(0.1764 -0.209952 0)
(0.1764 -0.215136 0)
(0.1764 -0.22032 0)
(0.1764 -0.225504 0)
(0.1764 -0.230688 0)
(0.1764 -0.235872 0)
(0.1764 -0.241056 0)
(0.1764 -0.24624 0)
(0.1764 -0.251424 0)
(0.1764 -0.256608 0)
(0.197136 -0.002592 0)
(0.197136 -0.007776 0)
(0.197136 -0.01296 0)
(0.197136 -0.018144 0)
(0.197136 -0.023328 0)
(0.197136 -0.028512 0)
(0.197136 -0.033696 0)
(0.197136 -0.03888 0)
(0.197136 -0.044064 0)
(0.197136 -0.049248 0)
(0.197136 -0.054432 0)
(0.197136 -0.059616 0)
(0.197136 -0.0648 0)
(0.197136 -0.069984 0)
(0.197136 -0.075168 0)
(0.197136 -0.080352 0)
(0.197136 -0.085536 0)
(0.197136 -0.09072 0)
(0.197136 -0.095904 0)
(0.197136 -0.101088 0)
(0.197136 -0.106272 0)
(0.197136 -0.111456 0)
(0.197136 -0.11664 0)
(0.197136 -0.121824 0)
(0.197136 -0.127008 0)
(0.197136 -0.132192 0)
(0.197136 -0.137376 0)
(0.197136 -0.14256 0)
(0.197136 -0.147744 0)
(0.197136 -0.152928 0)
(0.197136 -0.158112 0)
(0.197136 -0.163296 0)
(0.197136 -0.16848 0)
(0.197136 -0.173664 0)
(0.197136 -0.178848 0)
(0.197136 -0.184032 0)
(0.197136 -0.189216 0)
(0.197136 -0.1944 0)
(0.197136 -0.199584 0)
(0.197136 -0.204768 0)
(0.197136 -0.209952 0)
(0.197136 -0.215136 0)
(0.197136 -0.22032 0)
(0.197136 -0.225504 0)
(0.197136 -0.230688 0)
(0.197136 -0.235872 0)
(0.197136 -0.241056 0)
(0.197136 -0.24624 0)
(0.197136 -0.251424 0)
(0.197136 -0.256608 0)
(0.219024 -0.002592 0)
(0.219024 -0.007776 0)
(0.219024 -0.01296 0)
(0.219024 -0.018144 0)
(0.219024 -0.023328 0)
(0.219024 -0.028512 0)
(0.219024 -0.033696 0)
(0.219024 -0.03888 0)
(0.219024 -0.044064 0)
(0.219024 -0.049248 0)
(0.219024 -0.054432 0)
(0.219024 -0.059616 0)
(0.219024 -0.0648 0)
(0.219024 -0.069984 0)
(0.219024 -0.075168 0)
(0.219024 -0.080352 0)
(0.219024 -0.085536 0)
(0.219024 -0.09072 0)
(0.219024 -0.095904 0)
(0.219024 -0.101088 0)
(0.219024 -0.106272 0)
(0.219024 -0.111456 0)
(0.219024 -0.11664 0)
(0.219024 -0.121824 0)
(0.219024 -0.127008 0)
(0.219024 -0.132192 0)
(0.219024 -0.137376 0)
(0.219024 -0.14256 0)
(0.219024 -0.147744 0)
(0.219024 -0.152928 0)
(0.219024 -0.158112 0)
(0.219024 -0.163296 0)
(0.219024 -0.16848 0)
(0.219024 -0.173664 0)
(0.219024 -0.178848 0)
(0.219024 -0.184032 0)
(0.219024 -0.189216 0)
(0.219024 -0.1944 0)
(0.219024 -0.199584 0)
(0.219024 -0.204768 0)
(0.219024 -0.209952 0)
(0.219024 -0.215136 0)
(0.219024 -0.22032 0)
(0.219024 -0.225504 0)
(0.219024 -0.230688 0)
(0.219024 -0.235872 0)
(0.219024 -0.241056 0)
(0.219024 -0.24624 0)
(0.219024 -0.251424 0)
(0.219024 -0.256608 0)
(0.242064 -0.002592 0)
(0.242064 -0.007776 0)
(0.242064 -0.01296 0)
(0.242064 -0.018144 0)
(0.242064 -0.023328 0)
(0.242064 -0.028512 0)
(0.242064 -0.033696 0)
(0.242064 -0.03888 0)
(0.242064 -0.044064 0)
(0.242064 -0.049248 0)
(0.242064 -0.054432 0)
(0.242064 -0.059616 0)
(0.242064 -0.0648 0)
(0.242064 -0.069984 0)
(0.242064 -0.075168 0)
(0.242064 -0.080352 0)
(0.242064 -0.085536 0)
(0.242064 -0.09072 0)
(0.242064 -0.095904 0)
(0.242064 -0.101088 0)
(0.242064 -0.106272 0)
(0.242064 -0.111456 0)
(0.242064 -0.11664 0)
(0.242064 -0.121824 0)
(0.242064 -0.127008 0)
(0.242064 -0.132192 0)
(0.242064 -0.137376 0)
(0.242064 -0.14256 0)
(0.242064 -0.147744 0)
(0.242064 -0.152928 0)
(0.242064 -0.158112 0)
(0.242064 -0.163296 0)
(0.242064 -0.16848 0)
(0.242064 -0.173664 0)
(0.242064 -0.178848 0)
(0.242064 -0.184032 0)
(0.242064 -0.189216 0)
(0.242064 -0.1944 0)
(0.242064 -0.199584 0)
(0.242064 -0.204768 0)
(0.242064 -0.209952 0)
(0.242064 -0.215136 0)
(0.242064 -0.22032 0)
(0.242064 -0.225504 0)
(0.242064 -0.230688 0)
(0.242064 -0.235872 0)
(0.242064 -0.241056 0)
(0.242064 -0.24624 0)
(0.242064 -0.251424 0)
(0.242064 -0.256608 0)
(0.266256 -0.002592 0)
(0.266256 -0.007776 0)
(0.266256 -0.01296 0)
(0.266256 -0.018144 0)
(0.266256 -0.023328 0)
(0.266256 -0.028512 0)
(0.266256 -0.033696 0)
(0.266256 -0.03888 0)
(0.266256 -0.044064 0)
(0.266256 -0.049248 0)
(0.266256 -0.054432 0)
(0.266256 -0.059616 0)
(0.266256 -0.0648 0)
(0.266256 -0.069984 0)
(0.266256 -0.075168 0)
(0.266256 -0.080352 0)
(0.266256 -0.085536 0)
(0.266256 -0.09072 0)
(0.266256 -0.095904 0)
(0.266256 -0.101088 0)
(0.266256 -0.106272 0)
(0.266256 -0.111456 0)
(0.266256 -0.11664 0)
(0.266256 -0.121824 0)
(0.266256 -0.127008 0)
(0.266256 -0.132192 0)
(0.266256 -0.137376 0)
(0.266256 -0.14256 0)
(0.266256 -0.147744 0)
(0.266256 -0.152928 0)
(0.266256 -0.158112 0)
(0.266256 -0.163296 0)
(0.266256 -0.16848 0)
(0.266256 -0.173664 0)
(0.266256 -0.178848 0)
(0.266256 -0.184032 0)
(0.266256 -0.189216 0)
(0.266256 -0.1944 0)
(0.266256 -0.199584 0)
(0.266256 -0.204768 0)
(0.266256 -0.209952 0)
(0.266256 -0.215136 0)
(0.266256 -0.22032 0)
(0.266256 -0.225504 0)
(0.266256 -0.230688 0)
(0.266256 -0.235872 0)
(0.266256 -0.241056 0)
(0.266256 -0.24624 0)
(0.266256 -0.251424 0)
(0.266256 -0.256608 0)
(0.2916 -0.002592 0)
(0.2916 -0.007776 0)
(0.2916 -0.01296 0)
(0.2916 -0.018144 0)
(0.2916 -0.023328 0)
(0.2916 -0.028512 0)
(0.2916 -0.033696 0)
(0.2916 -0.03888 0)
(0.2916 -0.044064 0)
(0.2916 -0.049248 0)
(0.2916 -0.054432 0)
(0.2916 -0.059616 0)
(0.2916 -0.0648 0)
(0.2916 -0.069984 0)
(0.2916 -0.075168 0)
(0.2916 -0.080352 0)
(0.2916 -0.085536 0)
(0.2916 -0.09072 0)
(0.2916 -0.095904 0)
(0.2916 -0.101088 0)
(0.2916 -0.106272 0)
(0.2916 -0.111456 0)
(0.2916 -0.11664 0)
(0.2916 -0.121824 0)
(0.2916 -0.127008 0)
(0.2916 -0.132192 0)
(0.2916 -0.137376 0)
(0.2916 -0.14256 0)
(0.2916 -0.147744 0)
(0.2916 -0.152928 0)
(0.2916 -0.158112 0)
(0.2916 -0.163296 0)
(0.2916 -0.16848 0)
(0.2916 -0.173664 0)
(0.2916 -0.178848 0)
(0.2916 -0.184032 0)
(0.2916 -0.189216 0)
(0.2916 -0.1944 0)
(0.2916 -0.199584 0)
(0.2916 -0.204768 0)
(0.2916 -0.209952 0)
(0.2916 -0.215136 0)
(0.2916 -0.22032 0)
(0.2916 -0.225504 0)
(0.2916 -0.230688 0)
(0.2916 -0.235872 0)
(0.2916 -0.241056 0)
(0.2916 -0.24624 0)
(0.2916 -0.251424 0)
(0.2916 -0.256608 0)
(0.318096 -0.002592 0)
(0.318096 -0.007776 0)
(0.318096 -0.01296 0)
(0.318096 -0.018144 0)
(0.318096 -0.023328 0)
(0.318096 -0.028512 0)
(0.318096 -0.033696 0)
(0.318096 -0.03888 0)
(0.318096 -0.044064 0)
(0.318096 -0.049248 0)
(0.318096 -0.054432 0)
(0.318096 -0.059616 0)
(0.318096 -0.0648 0)
(0.318096 -0.069984 0)
(0.318096 -0.075168 0)
(0.318096 -0.080352 0)
(0.318096 -0.085536 0)
(0.318096 -0.09072 0)
(0.318096 -0.095904 0)
(0.318096 -0.101088 0)
(0.318096 -0.106272 0)
(0.318096 -0.111456 0)
(0.318096 -0.11664 0)
(0.318096 -0.121824 0)
(0.318096 -0.127008 0)
(0.318096 -0.132192 0)
(0.318096 -0.137376 0)
(0.318096 -0.14256 0)
(0.318096 -0.147744 0)
(0.318096 -0.152928 0)
(0.318096 -0.158112 0)
(0.318096 -0.163296 0)
(0.318096 -0.16848 0)
(0.318096 -0.173664 0)
(0.318096 -0.178848 0)
(0.318096 -0.184032 0)
(0.318096 -0.189216 0)
(0.318096 -0.1944 0)
(0.318096 -0.199584 0)
(0.318096 -0.204768 0)
(0.318096 -0.209952 0)
(0.318096 -0.215136 0)
(0.318096 -0.22032 0)
(0.318096 -0.225504 0)
(0.318096 -0.230688 0)
(0.318096 -0.235872 0)
(0.318096 -0.241056 0)
(0.318096 -0.24624 0)
(0.318096 -0.251424 0)
(0.318096 -0.256608 0)
(0.345744 -0.002592 0)
(0.345744 -0.007776 0)
(0.345744 -0.01296 0)
(0.345744 -0.018144 0)
(0.345744 -0.023328 0)
(0.345744 -0.028512 0)
(0.345744 -0.033696 0)
(0.345744 -0.03888 0)
(0.345744 -0.044064 0)
(0.345744 -0.049248 0)
(0.345744 -0.054432 0)
(0.345744 -0.059616 0)
(0.345744 -0.0648 0)
(0.345744 -0.069984 0)
(0.345744 -0.075168 0)
(0.345744 -0.080352 0)
(0.345744 -0.085536 0)
(0.345744 -0.09072 0)
(0.345744 -0.095904 0)
(0.345744 -0.101088 0)
(0.345744 -0.106272 0)
(0.345744 -0.111456 0)
(0.345744 -0.11664 0)
(0.345744 -0.121824 0)
(0.345744 -0.127008 0)
(0.345744 -0.132192 0)
(0.345744 -0.137376 0)
(0.345744 -0.14256 0)
(0.345744 -0.147744 0)
(0.345744 -0.152928 0)
(0.345744 -0.158112 0)
(0.345744 -0.163296 0)
(0.345744 -0.16848 0)
(0.345744 -0.173664 0)
(0.345744 -0.178848 0)
(0.345744 -0.184032 0)
(0.345744 -0.189216 0)
(0.345744 -0.1944 0)
(0.345744 -0.199584 0)
(0.345744 -0.204768 0)
(0.345744 -0.209952 0)
(0.345744 -0.215136 0)
(0.345744 -0.22032 0)
(0.345744 -0.225504 0)
(0.345744 -0.230688 0)
(0.345744 -0.235872 0)
(0.345744 -0.241056 0)
(0.345744 -0.24624 0)
(0.345744 -0.251424 0)
(0.345744 -0.256608 0)
(0.374544 -0.002592 0)
(0.374544 -0.007776 0)
(0.374544 -0.01296 0)
(0.374544 -0.018144 0)
(0.374544 -0.023328 0)
(0.374544 -0.028512 0)
(0.374544 -0.033696 0)
(0.374544 -0.03888 0)
(0.374544 -0.044064 0)
(0.374544 -0.049248 0)
(0.374544 -0.054432 0)
(0.374544 -0.059616 0)
(0.374544 -0.0648 0)
(0.374544 -0.069984 0)
(0.374544 -0.075168 0)
(0.374544 -0.080352 0)
(0.374544 -0.085536 0)
(0.374544 -0.09072 0)
(0.374544 -0.095904 0)
(0.374544 -0.101088 0)
(0.374544 -0.106272 0)
(0.374544 -0.111456 0)
(0.374544 -0.11664 0)
(0.374544 -0.121824 0)
(0.374544 -0.127008 0)
(0.374544 -0.132192 0)
(0.374544 -0.137376 0)
(0.374544 -0.14256 0)
(0.374544 -0.147744 0)
(0.374544 -0.152928 0)
(0.374544 -0.158112 0)
(0.374544 -0.163296 0)
(0.374544 -0.16848 0)
(0.374544 -0.173664 0)
(0.374544 -0.178848 0)
(0.374544 -0.184032 0)
(0.374544 -0.189216 0)
(0.374544 -0.1944 0)
(0.374544 -0.199584 0)
(0.374544 -0.204768 0)
(0.374544 -0.209952 0)
(0.374544 -0.215136 0)
(0.374544 -0.22032 0)
(0.374544 -0.225504 0)
(0.374544 -0.230688 0)
(0.374544 -0.235872 0)
(0.374544 -0.241056 0)
(0.374544 -0.24624 0)
(0.374544 -0.251424 0)
(0.374544 -0.256608 0)
(0.404496 -0.002592 0)
(0.404496 -0.007776 0)
(0.404496 -0.01296 0)
(0.404496 -0.018144 0)
(0.404496 -0.023328 0)
(0.404496 -0.028512 0)