/*--------------------------------*- C++ -*----------------------------------*\
| =========                 |                                                 |
| \\      /  F ield         | OpenFOAM: The Open Source CFD Toolbox           |
|  \\    /   O peration     | Version:  v2006                                 |
|   \\  /    A nd           | Website:  www.openfoam.com                      |
|    \\/     M anipulation  |                                                 |
\*---------------------------------------------------------------------------*/
FoamFile
{
    version     2.0;
    format      ascii;
    class       volVectorField;
    location    "19.2";
    object      U;
}
// * * * * * * * * * * * * * * * * * * * * * * * * * * * * * * * * * * * * * //

dimensions      [0 1 -1 0 0 0 0];


internalField   nonuniform List<vector> 
52500
(
(0.00204613 -0.00501606 0)
(0.00730276 -0.00624706 0)
(0.0126207 -0.00626871 0)
(0.0177599 -0.00606679 0)
(0.0228606 -0.00593879 0)
(0.027934 -0.00589039 0)
(0.0329912 -0.00588401 0)
(0.038041 -0.00588963 0)
(0.0430822 -0.00589037 0)
(0.048111 -0.0058809 0)
(0.0531237 -0.00586228 0)
(0.0581177 -0.00583728 0)
(0.0630915 -0.00580813 0)
(0.0680448 -0.00577593 0)
(0.0729772 -0.00574105 0)
(0.0778893 -0.00570324 0)
(0.0827812 -0.00566252 0)
(0.087653 -0.00561856 0)
(0.0925052 -0.00557112 0)
(0.0973386 -0.00552011 0)
(0.102153 -0.00546541 0)
(0.10695 -0.00540696 0)
(0.111728 -0.00534494 0)
(0.116487 -0.00527988 0)
(0.121227 -0.0052128 0)
(0.125947 -0.00514492 0)
(0.130646 -0.00507729 0)
(0.135321 -0.00501051 0)
(0.139972 -0.00494481 0)
(0.144595 -0.0048802 0)
(0.14919 -0.00481649 0)
(0.153755 -0.00475353 0)
(0.158288 -0.00469109 0)
(0.162788 -0.00462878 0)
(0.167255 -0.00456606 0)
(0.171685 -0.00450215 0)
(0.176076 -0.00443615 0)
(0.180425 -0.00436755 0)
(0.184725 -0.00429642 0)
(0.188973 -0.00422346 0)
(0.193161 -0.00414958 0)
(0.197284 -0.0040751 0)
(0.201334 -0.00399868 0)
(0.205305 -0.00391658 0)
(0.209184 -0.00382263 0)
(0.212959 -0.00370961 0)
(0.216617 -0.00357174 0)
(0.220145 -0.0034075 0)
(0.223535 -0.0032216 0)
(0.226783 -0.00302494 0)
(0.229893 -0.00283216 0)
(0.232877 -0.00265724 0)
(0.235749 -0.00250913 0)
(0.238525 -0.00238991 0)
(0.241222 -0.00229574 0)
(0.24385 -0.00221964 0)
(0.24642 -0.00215431 0)
(0.248938 -0.0020942 0)
(0.251407 -0.00203634 0)
(0.253831 -0.00198001 0)
(0.256214 -0.00192602 0)
(0.258559 -0.00187598 0)
(0.26087 -0.00183164 0)
(0.263153 -0.00179421 0)
(0.265411 -0.00176397 0)
(0.267649 -0.00174042 0)
(0.269871 -0.00172257 0)
(0.272079 -0.0017094 0)
(0.274276 -0.00170016 0)
(0.276463 -0.00169448 0)
(0.278642 -0.00169235 0)
(0.280814 -0.00169388 0)
(0.282981 -0.0016992 0)
(0.285144 -0.00170819 0)
(0.287304 -0.00172037 0)
(0.289461 -0.00173504 0)
(0.291617 -0.00175125 0)
(0.293771 -0.00176794 0)
(0.295923 -0.00178404 0)
(0.29807 -0.00179856 0)
(0.300212 -0.00181056 0)
(0.302347 -0.0018192 0)
(0.304472 -0.00182368 0)
(0.306586 -0.00182327 0)
(0.308686 -0.00181731 0)
(0.31077 -0.00180533 0)
(0.312835 -0.00178717 0)
(0.314881 -0.00176314 0)
(0.316903 -0.00173397 0)
(0.318902 -0.00170082 0)
(0.320876 -0.00166513 0)
(0.322823 -0.00162847 0)
(0.324743 -0.00159231 0)
(0.326635 -0.00155778 0)
(0.328499 -0.00152528 0)
(0.330334 -0.00149434 0)
(0.332139 -0.00146361 0)
(0.333911 -0.00143129 0)
(0.335647 -0.0013956 0)
(0.337346 -0.00135534 0)
(0.339001 -0.00131005 0)
(0.340612 -0.00126002 0)
(0.342174 -0.00120601 0)
(0.343685 -0.0011489 0)
(0.345143 -0.00108948 0)
(0.346547 -0.0010284 0)
(0.347896 -0.000966092 0)
(0.349188 -0.000902854 0)
(0.350423 -0.000838909 0)
(0.3516 -0.000774429 0)
(0.352719 -0.000709538 0)
(0.353778 -0.00064429 0)
(0.354778 -0.000578668 0)
(0.355719 -0.0005126 0)
(0.356598 -0.000446031 0)
(0.357417 -0.000378907 0)
(0.358175 -0.000311039 0)
(0.35887 -0.000242083 0)
(0.359503 -0.000171682 0)
(0.360072 -9.95215e-05 0)
(0.360578 -2.52563e-05 0)
(0.361019 5.15409e-05 0)
(0.361395 0.000131347 0)
(0.361705 0.000214645 0)
(0.361947 0.000301914 0)
(0.362122 0.000393592 0)
(0.362227 0.00049008 0)
(0.362261 0.0005919 0)
(0.362218 0.000699301 0)
(0.362097 0.000810334 0)
(0.361898 0.000922305 0)
(0.36162 0.00103211 0)
(0.361265 0.00113672 0)
(0.360836 0.00123381 0)
(0.360335 0.00132204 0)
(0.359768 0.00139872 0)
(0.359138 0.00146598 0)
(0.358448 0.00152593 0)
(0.357698 0.00158163 0)
(0.356888 0.00163657 0)
(0.356016 0.00169402 0)
(0.355079 0.00175619 0)
(0.354072 0.001824 0)
(0.352992 0.00189706 0)
(0.351833 0.00197409 0)
(0.350592 0.00205376 0)
(0.349264 0.00213601 0)
(0.347843 0.00222327 0)
(0.346322 0.00232093 0)
(0.344689 0.00243684 0)
(0.342931 0.00257976 0)
(0.341032 0.00275706 0)
(0.338975 0.00297235 0)
(0.336748 0.00322359 0)
(0.33434 0.00350272 0)
(0.331752 0.0037976 0)
(0.328989 0.00409563 0)
(0.326066 0.00438597 0)
(0.323 0.00465866 0)
(0.319818 0.00490135 0)
(0.316553 0.00509636 0)
(0.313253 0.00521514 0)
(0.309974 0.00521514 0)
(0.30678 0.00506455 0)
(0.303737 0.00477196 0)
(0.300888 0.00439115 0)
(0.298245 0.00399494 0)
(0.295786 0.00364038 0)
(0.293474 0.00335215 0)
(0.291271 0.00312865 0)
(0.289146 0.0029568 0)
(0.287077 0.0028224 0)
(0.285049 0.00271372 0)
(0.283052 0.00262152 0)
(0.281083 0.00253856 0)
(0.279139 0.00245928 0)
(0.277223 0.00237973 0)
(0.275336 0.00229756 0)
(0.273479 0.00221171 0)
(0.271655 0.00212199 0)
(0.269865 0.00202893 0)
(0.268109 0.00193367 0)
(0.266387 0.00183783 0)
(0.264697 0.00174341 0)
(0.263035 0.0016527 0)
(0.261397 0.00156809 0)
(0.259778 0.00149192 0)
(0.258172 0.00142619 0)
(0.256573 0.00137242 0)
(0.254973 0.00133162 0)
(0.253367 0.00130431 0)
(0.251747 0.00129047 0)
(0.250109 0.00128963 0)
(0.248448 0.00130093 0)
(0.246759 0.00132318 0)
(0.245038 0.0013549 0)
(0.243285 0.00139434 0)
(0.241496 0.00143934 0)
(0.239671 0.00148758 0)
(0.23781 0.0015368 0)
(0.235914 0.00158472 0)
(0.233984 0.00162925 0)
(0.23202 0.00166876 0)
(0.230025 0.00170219 0)
(0.228001 0.00172907 0)
(0.225949 0.00174957 0)
(0.22387 0.0017645 0)
(0.221765 0.00177517 0)
(0.219636 0.00178307 0)
(0.217481 0.00178972 0)
(0.215299 0.00179648 0)
(0.213092 0.00180436 0)
(0.210856 0.00181407 0)
(0.208592 0.00182602 0)
(0.206299 0.00184031 0)
(0.203975 0.0018568 0)
(0.20162 0.00187519 0)
(0.199233 0.0018951 0)
(0.196814 0.00191614 0)
(0.194362 0.00193794 0)
(0.191876 0.00196013 0)
(0.189358 0.00198242 0)
(0.186806 0.00200461 0)
(0.184221 0.0020266 0)
(0.181602 0.00204825 0)
(0.178949 0.00206947 0)
(0.176263 0.00209014 0)
(0.173544 0.00211016 0)
(0.170793 0.00212947 0)
(0.16801 0.00214807 0)
(0.165195 0.00216598 0)
(0.16235 0.00218323 0)
(0.159474 0.0021998 0)
(0.156569 0.00221572 0)
(0.153635 0.00223119 0)
(0.150674 0.00224637 0)
(0.147686 0.0022614 0)
(0.144671 0.00227646 0)
(0.141631 0.00229181 0)
(0.138565 0.00230769 0)
(0.135475 0.00232441 0)
(0.13236 0.00234249 0)
(0.12922 0.00236252 0)
(0.126056 0.00238509 0)
(0.122866 0.00241099 0)
(0.119649 0.00244137 0)
(0.116404 0.00247764 0)
(0.113126 0.00252174 0)
(0.109812 0.00257716 0)
(0.10646 0.00264775 0)
(0.103057 0.00273917 0)
(0.0995938 0.00285789 0)
(0.0960579 0.00300632 0)
(0.0924355 0.00318051 0)
(0.0887161 0.00336734 0)
(0.0848922 0.00355199 0)
(0.0809654 0.00371993 0)
(0.0769437 0.00386443 0)
(0.0728357 0.00398719 0)
(0.0686466 0.00409359 0)
(0.0643794 0.00419261 0)
(0.0600318 0.00428509 0)
(0.0556015 0.00437628 0)
(0.0510833 0.00446485 0)
(0.046469 0.00455015 0)
(0.0417542 0.00463176 0)
(0.036935 0.0047098 0)
(0.0320101 0.00478027 0)
(0.026983 0.00483445 0)
(0.0218646 0.00486 0)
(0.0166759 0.00484964 0)
(0.0114453 0.00482515 0)
(0.00619464 0.00485927 0)
(0.000916011 0.00506798 0)
(-0.0044444 0.00553719 0)
(-0.00997891 0.0061924 0)
(-0.0157222 0.00673913 0)
(-0.0215257 0.00679029 0)
(-0.0270613 0.00615876 0)
(-0.0319607 0.00500815 0)
(-0.035972 0.00369718 0)
(-0.0390344 0.00253271 0)
(-0.0412359 0.00165799 0)
(-0.0427426 0.00110654 0)
(-0.0437455 0.000827024 0)
(-0.0444177 0.000740206 0)
(-0.0448895 0.00076141 0)
(-0.045248 0.000821327 0)
(-0.0455469 0.000872142 0)
(-0.045817 0.000885885 0)
(-0.0460759 0.000850818 0)
(-0.0463333 0.000767621 0)
(-0.0465925 0.000643598 0)
(-0.0468504 0.000490767 0)
(-0.0470984 0.00032224 0)
(-0.0473246 0.000150508 0)
(-0.0475175 -1.46187e-05 0)
(-0.0476664 -0.000166687 0)
(-0.0477618 -0.000302131 0)
(-0.0477963 -0.000419912 0)
(-0.0477694 -0.000521027 0)
(-0.0476813 -0.0006052 0)
(-0.0475311 -0.00067531 0)
(-0.0473221 -0.000735285 0)
(-0.0470591 -0.00078906 0)
(-0.0467466 -0.000840029 0)
(-0.0463881 -0.000891307 0)
(-0.0459867 -0.000942431 0)
(-0.0455443 -0.000994127 0)
(-0.0450616 -0.00104621 0)
(-0.044538 -0.00109802 0)
(-0.0439729 -0.00114849 0)
(-0.0433655 -0.00119676 0)
(-0.0427161 -0.00124264 0)
(-0.0420255 -0.00128641 0)
(-0.0412944 -0.00132867 0)
(-0.0405239 -0.00137015 0)
(-0.0397158 -0.00141104 0)
(-0.0388725 -0.00145142 0)
(-0.0379961 -0.00149168 0)
(-0.0370892 -0.00153177 0)
(-0.0361541 -0.00157253 0)
(-0.0351928 -0.00161402 0)
(-0.0342077 -0.00165685 0)
(-0.0332008 -0.00170162 0)
(-0.0321741 -0.0017489 0)
(-0.0311297 -0.0017992 0)
(-0.0300692 -0.00185338 0)
(-0.0289942 -0.00191264 0)
(-0.0279063 -0.0019773 0)
(-0.0268066 -0.00204788 0)
(-0.0256954 -0.00212453 0)
(-0.0245729 -0.0022074 0)
(-0.0234387 -0.0022959 0)
(-0.0222899 -0.00238955 0)
(-0.021124 -0.00248403 0)
(-0.0199379 -0.00257712 0)
(-0.0187265 -0.00266682 0)
(-0.0174853 -0.00274874 0)
(-0.0162098 -0.00282176 0)
(-0.0148952 -0.00288627 0)
(-0.013536 -0.0029457 0)
(-0.0121249 -0.00300834 0)
(-0.010653 -0.00308384 0)
(-0.00911255 -0.00318398 0)
(-0.00748704 -0.00332241 0)
(-0.00576994 -0.00351669 0)
(-0.00400915 -0.00372232 0)
(-0.00193986 -0.00353985 0)
(-0.000210909 -0.00183712 0)
(0.00118631 -0.010329 0)
(0.00402028 -0.0113165 0)
(0.00631439 -0.0109633 0)
(0.00871511 -0.0108445 0)
(0.0111218 -0.0108482 0)
(0.0135692 -0.0108275 0)
(0.0160083 -0.0107955 0)
(0.0184457 -0.0107591 0)
(0.020886 -0.0107203 0)
(0.0233352 -0.0106795 0)
(0.0258 -0.0106376 0)
(0.0282861 -0.0105953 0)
(0.0307994 -0.010554 0)
(0.0333453 -0.0105147 0)
(0.0359294 -0.0104784 0)
(0.0385576 -0.0104457 0)
(0.0412352 -0.0104173 0)
(0.0439671 -0.0103933 0)
(0.0467575 -0.0103745 0)
(0.0496093 -0.010361 0)
(0.0525245 -0.0103525 0)
(0.0555033 -0.0103486 0)
(0.0585448 -0.0103479 0)
(0.0616463 -0.0103486 0)
(0.0648044 -0.0103485 0)
(0.0680147 -0.010345 0)
(0.0712723 -0.0103363 0)
(0.0745719 -0.0103211 0)
(0.077908 -0.0102986 0)
(0.0812755 -0.010269 0)
(0.084669 -0.0102329 0)
(0.0880848 -0.0101916 0)
(0.0915195 -0.0101459 0)
(0.0949701 -0.0100961 0)
(0.0984347 -0.010041 0)
(0.101912 -0.00997892 0)
(0.105399 -0.00990713 0)
(0.108894 -0.00982309 0)
(0.11239 -0.00972459 0)
(0.115881 -0.00960964 0)
(0.119358 -0.00947622 0)
(0.122813 -0.0093219 0)
(0.126235 -0.00914401 0)
(0.129617 -0.00894037 0)
(0.132951 -0.00871065 0)
(0.136235 -0.00845743 0)
(0.139469 -0.00818677 0)
(0.142657 -0.0079075 0)
(0.145802 -0.00762999 0)
(0.148909 -0.00736396 0)
(0.151981 -0.00711815 0)
(0.15502 -0.00689701 0)
(0.158025 -0.00670139 0)
(0.160997 -0.00652988 0)
(0.163933 -0.0063799 0)
(0.166834 -0.00624818 0)
(0.169703 -0.00613097 0)
(0.172539 -0.00602578 0)
(0.175348 -0.00593124 0)
(0.17813 -0.00584627 0)
(0.180889 -0.0057704 0)
(0.183627 -0.00570368 0)
(0.186344 -0.00564603 0)
(0.189041 -0.00559686 0)
(0.191716 -0.00555509 0)
(0.19437 -0.0055194 0)
(0.197001 -0.00548842 0)
(0.199609 -0.00546093 0)
(0.202192 -0.00543589 0)
(0.20475 -0.00541274 0)
(0.207282 -0.00539098 0)
(0.209787 -0.00537016 0)
(0.212265 -0.00535003 0)
(0.214713 -0.00533038 0)
(0.217133 -0.00531075 0)
(0.219522 -0.00529059 0)
(0.22188 -0.0052692 0)
(0.224208 -0.0052459 0)
(0.226504 -0.00522008 0)
(0.228769 -0.00519131 0)
(0.231004 -0.0051594 0)
(0.233209 -0.00512442 0)
(0.235385 -0.00508669 0)
(0.237533 -0.00504668 0)
(0.239656 -0.00500486 0)
(0.241755 -0.00496169 0)
(0.243833 -0.00491744 0)
(0.245891 -0.00487218 0)
(0.247931 -0.00482579 0)
(0.249952 -0.00477798 0)
(0.251956 -0.00472837 0)
(0.253941 -0.00467649 0)
(0.255904 -0.00462182 0)
(0.257843 -0.00456367 0)
(0.259756 -0.00450123 0)
(0.26164 -0.00443364 0)
(0.263492 -0.00436018 0)
(0.265313 -0.00428031 0)
(0.2671 -0.00419384 0)
(0.268854 -0.00410096 0)
(0.270575 -0.00400204 0)
(0.272263 -0.00389767 0)
(0.273919 -0.00378862 0)
(0.275542 -0.00367568 0)
(0.277133 -0.00355956 0)
(0.27869 -0.00344081 0)
(0.280214 -0.00331989 0)
(0.281705 -0.00319713 0)
(0.283161 -0.00307276 0)
(0.284582 -0.002947 0)
(0.285969 -0.00282003 0)
(0.287319 -0.00269192 0)
(0.288633 -0.00256262 0)
(0.289911 -0.00243209 0)
(0.291151 -0.00230047 0)
(0.292354 -0.00216793 0)
(0.29352 -0.00203453 0)
(0.294647 -0.00190039 0)
(0.295737 -0.00176585 0)
(0.296789 -0.00163123 0)
(0.297804 -0.00149679 0)
(0.298782 -0.00136281 0)
(0.299723 -0.00122953 0)
(0.300628 -0.00109709 0)
(0.301498 -0.000965399 0)
(0.302332 -0.000834203 0)
(0.303132 -0.000702962 0)
(0.303899 -0.000570838 0)
(0.304637 -0.000437084 0)
(0.305348 -0.000302104 0)
(0.306031 -0.000166517 0)
(0.306684 -3.11051e-05 0)
(0.307306 0.000103218 0)
(0.307892 0.000235575 0)
(0.308432 0.000365439 0)
(0.308925 0.000496307 0)
(0.309372 0.000629256 0)
(0.309767 0.000764105 0)
(0.310108 0.000901416 0)
(0.310393 0.00104245 0)
(0.310625 0.0011886 0)
(0.310804 0.0013411 0)
(0.310933 0.00150106 0)
(0.311012 0.0016695 0)
(0.311042 0.00184751 0)
(0.311024 0.00203653 0)
(0.310957 0.00223854 0)
(0.310842 0.00245603 0)
(0.31068 0.00269154 0)
(0.310476 0.00294703 0)
(0.310237 0.00322287 0)
(0.309973 0.003517 0)
(0.309697 0.00382422 0)
(0.30942 0.00413611 0)
(0.309152 0.00444167 0)
(0.308901 0.00472896 0)
(0.308669 0.00498714 0)
(0.308459 0.00520755 0)
(0.308271 0.00538317 0)
(0.308103 0.00550681 0)
(0.307943 0.00556943 0)
(0.307768 0.0055588 0)
(0.307547 0.00546268 0)
(0.307248 0.00528071 0)
(0.306838 0.00503428 0)
(0.306294 0.00476342 0)
(0.305618 0.00451055 0)
(0.304828 0.00430364 0)
(0.303954 0.00415083 0)
(0.303021 0.00404634 0)
(0.302046 0.00397911 0)
(0.30104 0.0039381 0)
(0.300008 0.00391403 0)
(0.298955 0.00389952 0)
(0.297879 0.00388896 0)
(0.296782 0.00387846 0)
(0.295662 0.0038658 0)
(0.294519 0.00385014 0)
(0.293351 0.00383176 0)
(0.292158 0.00381169 0)
(0.290938 0.00379155 0)
(0.289691 0.00377322 0)
(0.288416 0.00375861 0)
(0.287112 0.00374952 0)
(0.285778 0.00374769 0)
(0.284416 0.00375453 0)
(0.283024 0.00377101 0)
(0.281602 0.00379747 0)
(0.280151 0.00383374 0)
(0.278671 0.00387918 0)
(0.277163 0.00393276 0)
(0.275627 0.00399309 0)
(0.274065 0.00405855 0)
(0.272478 0.00412754 0)
(0.270867 0.0041986 0)
(0.269235 0.00427052 0)
(0.267583 0.00434234 0)
(0.265912 0.00441343 0)
(0.264224 0.00448349 0)
(0.262518 0.00455255 0)
(0.260794 0.00462083 0)
(0.259051 0.00468873 0)
(0.257286 0.00475678 0)
(0.255497 0.00482541 0)
(0.253682 0.00489501 0)
(0.251835 0.00496602 0)
(0.249955 0.00503884 0)
(0.248037 0.00511371 0)
(0.24608 0.00519067 0)
(0.244081 0.00526966 0)
(0.242038 0.00535055 0)
(0.23995 0.0054331 0)
(0.237816 0.00551705 0)
(0.235636 0.00560216 0)
(0.233409 0.00568826 0)
(0.231135 0.00577522 0)
(0.228815 0.00586299 0)
(0.226448 0.00595155 0)
(0.224034 0.00604095 0)
(0.221572 0.00613121 0)
(0.219062 0.0062223 0)
(0.216503 0.00631415 0)
(0.213896 0.00640667 0)
(0.211238 0.0064997 0)
(0.20853 0.00659298 0)
(0.205771 0.00668624 0)
(0.20296 0.00677923 0)
(0.200097 0.0068717 0)
(0.197182 0.00696332 0)
(0.194216 0.00705379 0)
(0.191197 0.00714288 0)
(0.188127 0.00723038 0)
(0.185006 0.00731609 0)
(0.181835 0.00739977 0)
(0.178615 0.00748122 0)
(0.175346 0.00756038 0)
(0.17203 0.00763717 0)
(0.168668 0.0077116 0)
(0.165262 0.0077837 0)
(0.161813 0.00785356 0)
(0.158324 0.00792127 0)
(0.154795 0.00798704 0)
(0.15123 0.00805135 0)
(0.14763 0.00811485 0)
(0.143998 0.00817804 0)
(0.140335 0.00824179 0)
(0.136644 0.00830726 0)
(0.132928 0.00837581 0)
(0.129189 0.00844948 0)
(0.125432 0.00853003 0)
(0.121661 0.00861959 0)
(0.117883 0.00872146 0)
(0.114109 0.00883843 0)
(0.110347 0.00897134 0)
(0.106608 0.00911906 0)
(0.1029 0.00927688 0)
(0.0992239 0.00943772 0)
(0.0955742 0.00959737 0)
(0.0919423 0.00975378 0)
(0.0883222 0.00991059 0)
(0.0847041 0.0100745 0)
(0.0810773 0.0102529 0)
(0.0774393 0.0104514 0)
(0.0737787 0.0106706 0)
(0.070086 0.0109107 0)
(0.0663595 0.0111681 0)
(0.062595 0.0114374 0)
(0.0587861 0.0117089 0)
(0.0549353 0.0119694 0)
(0.0510497 0.0122013 0)
(0.0471333 0.012383 0)
(0.0431989 0.0124943 0)
(0.0392787 0.0125267 0)
(0.0354302 0.0124855 0)
(0.0317615 0.0123787 0)
(0.0284409 0.0121991 0)
(0.0256713 0.0118986 0)
(0.0235505 0.011343 0)
(0.0220076 0.0103953 0)
(0.0209407 0.00903639 0)
(0.0202528 0.00739446 0)
(0.0197669 0.00568039 0)
(0.0192901 0.00409203 0)
(0.0187147 0.00276038 0)
(0.0180125 0.00173734 0)
(0.017241 0.00100336 0)
(0.0164714 0.000504164 0)
(0.0157671 0.00018518 0)
(0.0151663 5.39242e-06 0)
(0.0146765 -6.33886e-05 0)
(0.0142793 -4.26699e-05 0)
(0.0139405 4.51602e-05 0)
(0.0136226 0.000173106 0)
(0.0132971 0.000309655 0)
(0.0129441 0.000428949 0)
(0.0125525 0.000514284 0)
(0.0121194 0.000557117 0)
(0.0116477 0.000554462 0)
(0.0111438 0.000508441 0)
(0.0106167 0.000426415 0)
(0.0100821 0.000317667 0)
(0.00955478 0.000192608 0)
(0.00904747 6.15238e-05 0)
(0.00857483 -6.55574e-05 0)
(0.00814763 -0.000182431 0)
(0.00776907 -0.000285832 0)
(0.0074437 -0.000375257 0)
(0.0071708 -0.000457202 0)
(0.00694051 -0.000535515 0)
(0.00674449 -0.000613197 0)
(0.00657806 -0.000694356 0)
(0.00644042 -0.000779977 0)
(0.00632868 -0.000868624 0)
(0.00624327 -0.000958842 0)
(0.00618792 -0.00105005 0)
(0.00616499 -0.00114035 0)
(0.00617697 -0.00122635 0)
(0.00622451 -0.00130656 0)
(0.00630739 -0.00138028 0)
(0.0064265 -0.00144681 0)
(0.00657832 -0.00150577 0)
(0.00675933 -0.00155704 0)
(0.00696711 -0.00160034 0)
(0.00719675 -0.00163521 0)
(0.00744366 -0.00166155 0)
(0.00770193 -0.00167892 0)
(0.00796503 -0.00168712 0)
(0.00822559 -0.00168592 0)
(0.00847522 -0.00167471 0)
(0.00870372 -0.00165383 0)
(0.00890024 -0.00162384 0)
(0.0090533 -0.00158621 0)
(0.00915059 -0.0015435 0)
(0.00917814 -0.0014996 0)
(0.00912768 -0.00145953 0)
(0.00899076 -0.00142789 0)
(0.00875549 -0.00141026 0)
(0.00842267 -0.00141097 0)
(0.00799601 -0.00143462 0)
(0.00747776 -0.00148424 0)
(0.00687912 -0.00155966 0)
(0.00621364 -0.00166161 0)
(0.00549812 -0.00178617 0)
(0.0047511 -0.00193004 0)
(0.00398407 -0.00208474 0)
(0.00319978 -0.00222862 0)
(0.00240883 -0.00233713 0)
(0.0015394 -0.00254197 0)
(0.000783047 -0.00292975 0)
(0.000323404 -0.00168814 0)
(0.000702471 -0.0133746 0)
(0.00295061 -0.0143799 0)
(0.00461712 -0.0137601 0)
(0.00634747 -0.0136652 0)
(0.00802447 -0.0136785 0)
(0.00976252 -0.0136635 0)
(0.0115221 -0.0136575 0)
(0.0133272 -0.0136663 0)
(0.0151859 -0.0136874 0)
(0.0171078 -0.0137208 0)
(0.0191012 -0.0137666 0)
(0.0211742 -0.013826 0)
(0.0233345 -0.0138999 0)
(0.0255879 -0.0139892 0)
(0.0279397 -0.0140941 0)
(0.0303933 -0.0142138 0)
(0.0329505 -0.0143469 0)
(0.035612 -0.0144906 0)
(0.038376 -0.0146416 0)
(0.0412392 -0.014796 0)
(0.0441958 -0.0149493 0)
(0.0472386 -0.015097 0)
(0.0503593 -0.0152351 0)
(0.0535487 -0.0153605 0)
(0.0567982 -0.0154714 0)
(0.0601002 -0.0155667 0)
(0.0634472 -0.0156461 0)
(0.0668333 -0.0157091 0)
(0.0702534 -0.015756 0)
(0.0737032 -0.0157873 0)
(0.0771777 -0.0158043 0)
(0.0806724 -0.0158095 0)
(0.0841831 -0.0158056 0)
(0.0877058 -0.0157945 0)
(0.0912371 -0.0157766 0)
(0.0947741 -0.015751 0)
(0.0983152 -0.0157135 0)
(0.101859 -0.015659 0)
(0.105404 -0.0155832 0)
(0.108949 -0.0154812 0)
(0.112493 -0.0153495 0)
(0.116036 -0.015186 0)
(0.119577 -0.01499 0)
(0.123116 -0.0147629 0)
(0.126657 -0.0145076 0)
(0.130202 -0.0142289 0)
(0.133756 -0.0139332 0)
(0.137322 -0.0136283 0)
(0.140903 -0.0133229 0)
(0.1445 -0.0130254 0)
(0.148111 -0.012743 0)
(0.151733 -0.0124813 0)
(0.155358 -0.0122423 0)
(0.158979 -0.0120253 0)
(0.162588 -0.0118286 0)
(0.166182 -0.0116492 0)
(0.169754 -0.0114844 0)
(0.173303 -0.0113319 0)
(0.176826 -0.0111901 0)
(0.180321 -0.011058 0)
(0.183787 -0.0109349 0)
(0.187223 -0.0108199 0)
(0.190625 -0.010712 0)
(0.193992 -0.01061 0)
(0.197322 -0.0105127 0)
(0.200611 -0.0104188 0)
(0.203859 -0.0103271 0)
(0.207062 -0.0102367 0)
(0.21022 -0.0101473 0)
(0.213332 -0.0100585 0)
(0.216398 -0.00997032 0)
(0.219416 -0.00988282 0)
(0.222388 -0.00979601 0)
(0.225312 -0.00970982 0)
(0.228189 -0.00962401 0)
(0.231019 -0.00953826 0)
(0.233802 -0.00945224 0)
(0.236539 -0.00936566 0)
(0.239232 -0.00927829 0)
(0.24188 -0.00919001 0)
(0.244484 -0.00910084 0)
(0.247047 -0.00901098 0)
(0.249569 -0.0089208 0)
(0.25205 -0.00883076 0)
(0.254493 -0.0087413 0)
(0.256896 -0.00865265 0)
(0.259261 -0.0085646 0)
(0.261588 -0.00847645 0)
(0.263875 -0.00838701 0)
(0.266122 -0.0082948 0)
(0.26833 -0.00819832 0)
(0.270496 -0.00809633 0)
(0.272621 -0.007988 0)
(0.274703 -0.007873 0)
(0.276744 -0.00775142 0)
(0.278742 -0.0076236 0)
(0.280699 -0.00749002 0)
(0.282614 -0.00735112 0)
(0.284488 -0.00720734 0)
(0.286323 -0.00705907 0)
(0.288119 -0.00690663 0)
(0.289878 -0.00675029 0)
(0.291598 -0.00659033 0)
(0.293281 -0.00642703 0)
(0.294926 -0.00626062 0)
(0.296533 -0.00609131 0)
(0.298101 -0.00591931 0)
(0.29963 -0.00574477 0)
(0.301119 -0.00556781 0)
(0.302568 -0.00538853 0)
(0.303974 -0.00520704 0)
(0.305338 -0.00502348 0)
(0.306659 -0.0048379 0)
(0.307936 -0.00465041 0)
(0.309167 -0.00446116 0)
(0.310353 -0.00427025 0)
(0.311492 -0.00407776 0)
(0.312584 -0.00388385 0)
(0.313628 -0.00368865 0)
(0.314623 -0.00349217 0)
(0.315568 -0.00329434 0)
(0.316462 -0.00309506 0)
(0.317303 -0.00289411 0)
(0.31809 -0.00269116 0)
(0.318822 -0.00248582 0)
(0.319497 -0.00227781 0)
(0.320113 -0.00206699 0)
(0.320669 -0.00185351 0)
(0.321163 -0.00163775 0)
(0.321593 -0.00141948 0)
(0.321958 -0.00119859 0)
(0.322258 -0.000974981 0)
(0.322492 -0.000748491 0)
(0.322659 -0.000519006 0)
(0.322764 -0.000286306 0)
(0.322809 -4.8757e-05 0)
(0.322789 0.000190226 0)
(0.322701 0.000430774 0)
(0.322549 0.00067248 0)
(0.322334 0.000914966 0)
(0.32206 0.00115804 0)
(0.321726 0.00140181 0)
(0.321337 0.00164681 0)
(0.320893 0.00189408 0)
(0.320399 0.00214486 0)
(0.319856 0.00240032 0)
(0.319267 0.00266122 0)
(0.318637 0.00292746 0)
(0.317969 0.00319796 0)
(0.317267 0.00347086 0)
(0.316538 0.00374371 0)
(0.315788 0.00401373 0)
(0.315024 0.00427815 0)
(0.314251 0.00453442 0)
(0.313475 0.00477988 0)
(0.312698 0.00501083 0)
(0.311921 0.00522172 0)
(0.311141 0.00540589 0)
(0.310356 0.00555784 0)
(0.309563 0.00567563 0)
(0.308758 0.00576182 0)
(0.307936 0.00582467 0)
(0.307091 0.00587898 0)
(0.306202 0.00593522 0)
(0.305248 0.00599126 0)
(0.304213 0.00603643 0)
(0.303095 0.00606151 0)
(0.301903 0.00606578 0)
(0.300652 0.00605637 0)
(0.299357 0.00604264 0)
(0.29803 0.00603118 0)
(0.296681 0.00602436 0)
(0.295315 0.00602155 0)
(0.293939 0.00602096 0)
(0.292553 0.00602087 0)
(0.291158 0.00602015 0)
(0.289756 0.00601828 0)
(0.288345 0.00601523 0)
(0.286923 0.00601147 0)
(0.28549 0.00600783 0)
(0.284045 0.00600542 0)
(0.282587 0.0060055 0)
(0.281116 0.00600954 0)
(0.279631 0.00601902 0)
(0.278132 0.00603541 0)
(0.27662 0.00606003 0)
(0.275096 0.00609397 0)
(0.27356 0.00613804 0)
(0.272012 0.00619263 0)
(0.270454 0.0062576 0)
(0.268886 0.00633231 0)
(0.267308 0.00641563 0)
(0.265719 0.00650605 0)
(0.264119 0.00660191 0)
(0.262508 0.00670148 0)
(0.260884 0.00680321 0)
(0.259247 0.00690587 0)
(0.257595 0.00700876 0)
(0.255928 0.00711163 0)
(0.254243 0.00721459 0)
(0.25254 0.00731813 0)
(0.250818 0.00742307 0)
(0.249074 0.00753033 0)
(0.247307 0.00764085 0)
(0.245515 0.00775554 0)
(0.243698 0.00787523 0)
(0.241852 0.00800051 0)
(0.239976 0.00813168 0)
(0.238068 0.00826877 0)
(0.236127 0.00841152 0)
(0.234151 0.00855946 0)
(0.232139 0.00871192 0)
(0.230089 0.00886819 0)
(0.228 0.00902754 0)
(0.225872 0.00918931 0)
(0.223703 0.00935305 0)
(0.221491 0.00951847 0)
(0.219238 0.00968543 0)
(0.216941 0.00985395 0)
(0.2146 0.0100241 0)
(0.212214 0.010196 0)
(0.209783 0.0103696 0)
(0.207306 0.010545 0)
(0.204782 0.010722 0)
(0.202211 0.0109004 0)
(0.199592 0.0110797 0)
(0.196926 0.0112595 0)
(0.194212 0.0114394 0)
(0.191449 0.0116188 0)
(0.188638 0.0117972 0)
(0.185779 0.0119742 0)
(0.182872 0.0121492 0)
(0.179917 0.0123218 0)
(0.176914 0.0124914 0)
(0.173865 0.0126578 0)
(0.17077 0.0128204 0)
(0.16763 0.0129789 0)
(0.164446 0.0131329 0)
(0.16122 0.0132822 0)
(0.157952 0.0134266 0)
(0.154644 0.013566 0)
(0.151298 0.0137006 0)
(0.147917 0.0138304 0)
(0.144502 0.0139555 0)
(0.141057 0.0140767 0)
(0.137583 0.0141943 0)
(0.134085 0.0143092 0)
(0.130566 0.0144224 0)
(0.127031 0.0145348 0)
(0.123485 0.0146467 0)
(0.119934 0.0147584 0)
(0.116386 0.0148686 0)
(0.112849 0.0149737 0)
(0.109335 0.0150696 0)
(0.105855 0.0151527 0)
(0.102416 0.0152214 0)
(0.0990272 0.0152788 0)
(0.0956927 0.0153328 0)
(0.0924127 0.0153922 0)
(0.0891894 0.0154653 0)
(0.0860266 0.015555 0)
(0.0829298 0.0156655 0)
(0.079905 0.0157963 0)
(0.076961 0.0159473 0)
(0.0741052 0.0161169 0)
(0.0713451 0.0163041 0)
(0.0686866 0.0164998 0)
(0.0661327 0.0166933 0)
(0.0636858 0.0168701 0)
(0.0613453 0.0170118 0)
(0.0591067 0.0170984 0)
(0.056963 0.017115 0)
(0.0549101 0.0170472 0)
(0.0529443 0.0168678 0)
(0.0510709 0.0165246 0)
(0.0492978 0.015931 0)
(0.0475776 0.0149556 0)
(0.045838 0.0134511 0)
(0.0440528 0.0114012 0)
(0.0421732 0.00903132 0)
(0.0401206 0.00678817 0)
(0.0378465 0.00511888 0)
(0.0353652 0.00418026 0)
(0.0327441 0.00378395 0)
(0.0300628 0.00364637 0)
(0.0274077 0.00355353 0)
(0.0248467 0.0033942 0)
(0.0224136 0.00313363 0)
(0.0201263 0.00280114 0)
(0.0179897 0.00245519 0)
(0.0160008 0.00215179 0)
(0.0141604 0.00192145 0)
(0.0124685 0.00176734 0)
(0.0109225 0.00167217 0)
(0.00951642 0.00161255 0)
(0.00823729 0.00156931 0)
(0.00706929 0.00153029 0)
(0.00599408 0.00148819 0)
(0.00499436 0.00143625 0)
(0.00405734 0.00136671 0)
(0.00317548 0.00127126 0)
(0.00234543 0.00114218 0)
(0.00156832 0.000978484 0)
(0.000848648 0.000785525 0)
(0.000191294 0.000573974 0)
(-0.000399559 0.000357219 0)
(-0.000927124 0.000148415 0)
(-0.00139205 -4.62402e-05 0)
(-0.00179197 -0.000223639 0)
(-0.002134 -0.000384919 0)
(-0.00242286 -0.000532033 0)
(-0.00265905 -0.000670642 0)
(-0.00284381 -0.000807322 0)
(-0.0029778 -0.000946523 0)
(-0.0030611 -0.00109135 0)
(-0.00309299 -0.00124188 0)
(-0.00307316 -0.00139633 0)
(-0.00300059 -0.00155193 0)
(-0.00287343 -0.00170503 0)
(-0.00269114 -0.0018521 0)
(-0.00245431 -0.00199102 0)
(-0.00216368 -0.00211939 0)
(-0.00182003 -0.00223608 0)
(-0.00142545 -0.00233898 0)
(-0.000982226 -0.00242616 0)
(-0.000493676 -0.00249594 0)
(3.55883e-05 -0.00254648 0)
(0.000601146 -0.00257496 0)
(0.00119666 -0.0025775 0)
(0.00181361 -0.00255228 0)
(0.00244266 -0.00249661 0)
(0.0030723 -0.00240898 0)
(0.00368964 -0.00228849 0)
(0.00427824 -0.0021362 0)
(0.00482088 -0.00195379 0)
(0.0052999 -0.00174864 0)
(0.00569539 -0.00152736 0)
(0.0059889 -0.00129826 0)
(0.00616282 -0.00107455 0)
(0.00620398 -0.000868097 0)
(0.00609976 -0.000690994 0)
(0.00584561 -0.000555091 0)
(0.00544236 -0.000469374 0)
(0.0048961 -0.000444606 0)
(0.00422467 -0.000484168 0)
(0.00344702 -0.000565571 0)
(0.00262435 -0.000647298 0)
(0.0018352 -0.000836432 0)
(0.00126309 -0.00140357 0)
(0.000794368 0.000119525 0)
(0.000693041 -0.0163246 0)
(0.00348068 -0.0177182 0)
(0.00565077 -0.0166168 0)
(0.00773945 -0.0164164 0)
(0.00975033 -0.0165015 0)
(0.0118679 -0.0165759 0)
(0.0140349 -0.0166656 0)
(0.0162717 -0.0167884 0)
(0.0185842 -0.0169409 0)
(0.0209806 -0.0171204 0)
(0.0234691 -0.0173258 0)
(0.0260548 -0.0175555 0)
(0.0287416 -0.017808 0)
(0.0315312 -0.018081 0)
(0.0344235 -0.0183713 0)
(0.0374158 -0.0186748 0)
(0.0405046 -0.0189868 0)
(0.0436847 -0.0193015 0)
(0.0469489 -0.0196134 0)
(0.0502888 -0.0199163 0)
(0.0536959 -0.0202041 0)
(0.0571616 -0.0204711 0)
(0.0606768 -0.0207129 0)
(0.064233 -0.0209269 0)
(0.0678225 -0.0211121 0)
(0.0714378 -0.0212692 0)
(0.0750736 -0.0214003 0)
(0.0787245 -0.0215061 0)
(0.0823866 -0.0215883 0)
(0.0860576 -0.0216485 0)
(0.0897341 -0.0216882 0)
(0.0934134 -0.0217083 0)
(0.097093 -0.0217105 0)
(0.100769 -0.0216967 0)
(0.104437 -0.0216682 0)
(0.108094 -0.0216256 0)
(0.111738 -0.0215684 0)
(0.115366 -0.0214953 0)
(0.11898 -0.0214043 0)
(0.122582 -0.0212933 0)
(0.126174 -0.0211605 0)
(0.129761 -0.0210051 0)
(0.133347 -0.0208276 0)
(0.136937 -0.0206298 0)
(0.140535 -0.0204151 0)
(0.144145 -0.0201878 0)
(0.14777 -0.0199523 0)
(0.151409 -0.0197133 0)
(0.155061 -0.019474 0)
(0.158722 -0.0192372 0)
(0.162387 -0.0190048 0)
(0.166049 -0.0187781 0)
(0.169704 -0.0185574 0)
(0.173346 -0.0183424 0)
(0.176969 -0.0181328 0)
(0.180568 -0.0179283 0)
(0.18414 -0.0177289 0)
(0.187683 -0.0175349 0)
(0.191193 -0.0173463 0)
(0.19467 -0.0171628 0)
(0.19811 -0.0169838 0)
(0.201512 -0.0168083 0)
(0.204875 -0.016635 0)
(0.208196 -0.016463 0)
(0.211473 -0.016291 0)
(0.214707 -0.0161184 0)
(0.217896 -0.015945 0)
(0.221039 -0.0157706 0)
(0.224136 -0.0155956 0)
(0.227188 -0.0154202 0)
(0.230194 -0.0152449 0)
(0.233154 -0.0150702 0)
(0.236068 -0.0148962 0)
(0.238937 -0.014723 0)
(0.241761 -0.0145507 0)
(0.244541 -0.0143793 0)
(0.247275 -0.0142086 0)
(0.249966 -0.0140386 0)
(0.252614 -0.0138693 0)
(0.255219 -0.0137006 0)
(0.257781 -0.0135327 0)
(0.260302 -0.0133655 0)
(0.262781 -0.013199 0)
(0.265219 -0.0130331 0)
(0.267616 -0.0128673 0)
(0.26997 -0.0127012 0)
(0.272281 -0.012534 0)
(0.274549 -0.0123648 0)
(0.276773 -0.0121927 0)
(0.278952 -0.0120168 0)
(0.281087 -0.0118364 0)
(0.283177 -0.0116512 0)
(0.285222 -0.0114611 0)
(0.287225 -0.0112662 0)
(0.289184 -0.0110668 0)
(0.291101 -0.0108632 0)
(0.292976 -0.0106555 0)
(0.29481 -0.0104441 0)
(0.296602 -0.0102291 0)
(0.298353 -0.0100104 0)
(0.300063 -0.00978809 0)
(0.301731 -0.00956192 0)
(0.303357 -0.00933178 0)
(0.30494 -0.0090976 0)
(0.30648 -0.00885935 0)
(0.307976 -0.00861701 0)
(0.309427 -0.00837058 0)
(0.310832 -0.00812005 0)
(0.312191 -0.00786549 0)
(0.313502 -0.00760693 0)
(0.314765 -0.00734444 0)
(0.315978 -0.00707809 0)
(0.317141 -0.00680796 0)
(0.318253 -0.00653411 0)
(0.319313 -0.00625666 0)
(0.32032 -0.00597575 0)
(0.321272 -0.00569156 0)
(0.32217 -0.00540416 0)
(0.323012 -0.00511358 0)
(0.323796 -0.00481979 0)
(0.324523 -0.00452271 0)
(0.325192 -0.00422205 0)
(0.3258 -0.0039175 0)
(0.326348 -0.00360873 0)
(0.326836 -0.00329547 0)
(0.327262 -0.00297741 0)
(0.327626 -0.00265444 0)