/*--------------------------------*- C++ -*----------------------------------*\
| =========                 |                                                 |
| \\      /  F ield         | OpenFOAM: The Open Source CFD Toolbox           |
|  \\    /   O peration     | Version:  v2006                                 |
|   \\  /    A nd           | Website:  www.openfoam.com                      |
|    \\/     M anipulation  |                                                 |
\*---------------------------------------------------------------------------*/
FoamFile
{
    version     2.0;
    format      ascii;
    class       surfaceScalarField;
    location    "1.5";
    object      phi;
}
// * * * * * * * * * * * * * * * * * * * * * * * * * * * * * * * * * * * * * //

dimensions      [0 3 -1 0 0 0 0];
oriented        oriented;


internalField   nonuniform List<scalar> 
104500
(
-2.70912e-05
2.70912e-05
-5.42214e-05
2.71302e-05
-8.13419e-05
2.71205e-05
-0.000108447
2.71056e-05
-0.000135533
2.70855e-05
-0.000162593
2.70602e-05
-0.000189623
2.70297e-05
-0.000216617
2.69941e-05
-0.00024357
2.69533e-05
-0.000270478
2.69074e-05
-0.000297334
2.68562e-05
-0.000324134
2.67999e-05
-0.000350872
2.67384e-05
-0.000377544
2.66716e-05
-0.000404143
2.65996e-05
-0.000430666
2.65222e-05
-0.000457105
2.64396e-05
-0.000483457
2.63515e-05
-0.000509715
2.62581e-05
-0.000535874
2.61592e-05
-0.000561929
2.60549e-05
-0.000587874
2.5945e-05
-0.000613703
2.58296e-05
-0.000639412
2.57086e-05
-0.000664994
2.55819e-05
-0.000690444
2.54496e-05
-0.000715755
2.53115e-05
-0.000740923
2.51676e-05
-0.00076594
2.50178e-05
-0.000790803
2.48622e-05
-0.000815503
2.47006e-05
-0.000840036
2.45331e-05
-0.000864396
2.43594e-05
-0.000888575
2.41797e-05
-0.000912569
2.39937e-05
-0.000936371
2.38016e-05
-0.000959974
2.36031e-05
-0.000983372
2.33983e-05
-0.00100656
2.31871e-05
-0.00102953
2.29694e-05
-0.00105227
2.27452e-05
-0.00107479
2.25143e-05
-0.00109706
2.22768e-05
-0.0011191
2.20326e-05
-0.00114088
2.17816e-05
-0.0011624
2.15238e-05
-0.00118366
2.1259e-05
-0.00120465
2.09873e-05
-0.00122536
2.07086e-05
-0.00124578
2.04228e-05
-0.00126591
2.01298e-05
-0.00128574
1.98297e-05
-0.00130526
1.95223e-05
-0.00132447
1.92076e-05
-0.00134336
1.88855e-05
-0.00136191
1.85561e-05
-0.00138013
1.82192e-05
-0.00139801
1.78748e-05
-0.00141553
1.75228e-05
-0.00143269
1.71633e-05
-0.00144949
1.67962e-05
-0.00146591
1.64215e-05
-0.00148195
1.60391e-05
-0.0014976
1.5649e-05
-0.00151285
1.52512e-05
-0.00152769
1.48456e-05
-0.00154213
1.44324e-05
-0.00155614
1.40114e-05
-0.00156972
1.35826e-05
-0.00158287
1.31462e-05
-0.00159557
1.2702e-05
-0.00160782
1.22501e-05
-0.00161961
1.17906e-05
-0.00163093
1.13234e-05
-0.00164178
1.08486e-05
-0.00165215
1.03662e-05
-0.00166202
9.87639e-06
-0.0016714
9.37911e-06
-0.00168028
8.87446e-06
-0.00168864
8.36254e-06
-0.00169648
7.84342e-06
-0.0017038
7.31721e-06
-0.00171058
6.78402e-06
-0.00171683
6.24397e-06
-0.00172253
5.69719e-06
-0.00172767
5.14382e-06
-0.00173225
4.58402e-06
-0.00173627
4.01792e-06
-0.00173972
3.4457e-06
-0.00174259
2.86749e-06
-0.00174487
2.28338e-06
-0.00174656
1.69333e-06
-0.00174766
1.09704e-06
-0.00174815
4.93846e-07
-0.00174805
-1.05705e-07
-0.00174732
-7.23064e-07
-0.00174597
-1.3533e-06
-0.00174399
-1.98277e-06
-0.00174138
-2.61178e-06
-0.00173813
-3.24162e-06
-0.00173426
-3.87599e-06
-0.00172975
-4.5134e-06
-0.00172459
-5.15152e-06
-0.0017188
-5.79192e-06
-0.00171237
-6.43251e-06
-0.0017053
-7.07405e-06
-0.00169758
-7.71591e-06
-0.00168922
-8.35697e-06
-0.00168023
-8.99653e-06
-0.00167059
-9.63471e-06
-0.00166032
-1.02711e-05
-0.00164941
-1.09051e-05
-0.00163788
-1.15358e-05
-0.00162572
-1.21634e-05
-0.00161293
-1.27855e-05
-0.00159953
-1.34042e-05
-0.00158551
-1.4017e-05
-0.00157089
-1.46236e-05
-0.00155566
-1.52234e-05
-0.00153985
-1.58159e-05
-0.00152345
-1.64005e-05
-0.00150647
-1.69764e-05
-0.00148893
-1.75424e-05
-0.00147083
-1.81001e-05
-0.00145218
-1.86463e-05
-0.001433
-1.91805e-05
-0.0014133
-1.97029e-05
-0.00139308
-2.02124e-05
-0.00137238
-2.07084e-05
-0.00135119
-2.11897e-05
-0.00132953
-2.1656e-05
-0.00130742
-2.21066e-05
-0.00128488
-2.25409e-05
-0.00126192
-2.29585e-05
-0.00123857
-2.33572e-05
-0.00121483
-2.37374e-05
-0.00119073
-2.40966e-05
-0.0011663
-2.44369e-05
-0.00114154
-2.47574e-05
-0.00111648
-2.50553e-05
-0.00109115
-2.53295e-05
-0.00106557
-2.55827e-05
-0.00103976
-2.58106e-05
-0.00101375
-2.60139e-05
-0.000987555
-2.61923e-05
-0.00096121
-2.63451e-05
-0.000934739
-2.64707e-05
-0.000908169
-2.657e-05
-0.000881528
-2.6641e-05
-0.000854844
-2.66839e-05
-0.000828146
-2.66977e-05
-0.000801464
-2.66826e-05
-0.000774826
-2.66378e-05
-0.000748263
-2.65626e-05
-0.000721807
-2.64567e-05
-0.000695487
-2.63197e-05
-0.000669335
-2.61514e-05
-0.000643384
-2.5951e-05
-0.000617666
-2.57186e-05
-0.000592212
-2.54538e-05
-0.000567055
-2.51571e-05
-0.000542227
-2.48275e-05
-0.000517762
-2.44653e-05
-0.000493692
-2.40703e-05
-0.000470049
-2.36428e-05
-0.000446867
-2.31823e-05
-0.000424177
-2.26895e-05
-0.000402013
-2.21645e-05
-0.000380406
-2.1607e-05
-0.000359388
-2.10179e-05
-0.00033899
-2.03974e-05
-0.000319245
-1.97457e-05
-0.000300182
-1.90632e-05
-0.000281831
-1.83502e-05
-0.000264224
-1.76078e-05
-0.000247386
-1.68375e-05
-0.000231345
-1.60407e-05
-0.00021613
-1.52152e-05
-0.000201782
-1.43483e-05
-0.000188364
-1.34177e-05
-0.000175954
-1.24098e-05
-0.000164588
-1.13665e-05
-0.000154153
-1.04351e-05
-0.000144293
-9.85946e-06
-0.000134466
-9.82751e-06
-0.000124221
-1.02449e-05
-0.000113498
-1.07226e-05
-0.000102615
-1.0883e-05
-9.19911e-05
-1.06243e-05
-8.19364e-05
-1.00547e-05
-7.26378e-05
-9.29858e-06
-6.42133e-05
-8.42453e-06
-5.67456e-05
-7.4677e-06
-5.02944e-05
-6.45124e-06
-4.49031e-05
-5.39127e-06
-4.06044e-05
-4.2987e-06
-3.74232e-05
-3.1812e-06
-3.53786e-05
-2.04459e-06
-3.44846e-05
-8.94031e-07
-3.47502e-05
2.65593e-07
-3.61823e-05
1.43215e-06
-3.87832e-05
2.6009e-06
-4.25594e-05
3.77616e-06
-4.75157e-05
4.95632e-06
-5.36558e-05
6.14012e-06
-6.09815e-05
7.32565e-06
-6.94928e-05
8.5113e-06
-7.91877e-05
9.69498e-06
-9.00625e-05
1.08748e-05
-0.000102111
1.20487e-05
-0.000115326
1.32146e-05
-0.000129697
1.43708e-05
-0.000145213
1.55161e-05
-0.00016186
1.66468e-05
-0.000179622
1.77627e-05
-0.000198484
1.88618e-05
-0.000218426
1.99417e-05
-0.000239427
2.10014e-05
-0.000261466
2.20389e-05
-0.000284519
2.30526e-05
-0.00030856
2.40411e-05
-0.000333563
2.50031e-05
-0.000359499
2.59366e-05
-0.000386342
2.68422e-05
-0.000414057
2.77149e-05
-0.000442613
2.85566e-05
-0.000471979
2.93654e-05
-0.000502119
3.01401e-05
-0.000532998
3.08796e-05
-0.000564581
3.1583e-05
-0.000596831
3.22495e-05
-0.000629709
3.28787e-05
-0.000663179
3.34698e-05
-0.0006972
3.40209e-05
-0.000731734
3.45335e-05
-0.000766739
3.50058e-05
-0.000802177
3.54379e-05
-0.000838007
3.58294e-05
-0.000874187
3.61801e-05
-0.000910676
3.64895e-05
-0.000947436
3.67603e-05
-0.000984422
3.69858e-05
-0.00102159
3.7172e-05
-0.00105891
3.73179e-05
-0.00109633
3.74222e-05
-0.00113382
3.74851e-05
-0.00117133
3.75079e-05
-0.00120882
3.74905e-05
-0.00124625
3.7434e-05
-0.00128359
3.73372e-05
-0.00132079
3.71991e-05
-0.00135781
3.70226e-05
-0.00139462
3.68074e-05
-0.00143117
3.65537e-05
-0.00146743
3.62618e-05
-0.00150337
3.5932e-05
-0.00153893
3.55646e-05
-0.00157409
3.51598e-05
-0.00160881
3.4718e-05
-0.00164305
3.42397e-05
-0.00167677
3.37255e-05
-0.00170995
3.31767e-05
-0.00174254
3.25871e-05
-0.0017745
3.19639e-05
-0.00180581
3.13056e-05
-0.00183642
3.06151e-05
-0.00186631
2.98839e-05
-0.00189543
2.91203e-05
-0.00192375
2.83219e-05
-0.00195124
2.7489e-05
-0.00197786
2.66213e-05
-0.00200358
2.57197e-05
-0.00202836
2.47858e-05
-0.00205218
2.38154e-05
-0.00207499
2.28138e-05
-0.00209677
2.17763e-05
-0.00211748
2.07068e-05
-0.00213708
1.96049e-05
-0.00215555
1.84707e-05
-0.00217286
1.7304e-05
-0.00218896
1.61057e-05
-0.00220384
1.48757e-05
-0.00221745
1.36153e-05
-0.00222978
1.23243e-05
-0.00224078
1.10032e-05
-0.00225043
9.65225e-06
-0.0022587
8.27198e-06
-0.00226557
6.86273e-06
-0.00227099
5.42469e-06
-0.00227495
3.95856e-06
-0.00227742
2.46554e-06
-0.00227836
9.46425e-07
-0.00227779
-5.68356e-07
-0.0022757
-2.09151e-06
-0.00227208
-3.62056e-06
-0.00226692
-5.15794e-06
-0.00226022
-6.70317e-06
-0.00225196
-8.25931e-06
-0.00224214
-9.82231e-06
-0.00223075
-1.13909e-05
-0.00221778
-1.29663e-05
-0.00220324
-1.45429e-05
-0.00218712
-1.61212e-05
-0.00216942
-1.76968e-05
-0.00215015
-1.92719e-05
-0.00212931
-2.08424e-05
-0.0021069
-2.2404e-05
-0.00208295
-2.39551e-05
-0.00205745
-2.54925e-05
-0.00203044
-2.70108e-05
-0.00200193
-2.85115e-05
-0.00197194
-2.99906e-05
-0.00194049
-3.14511e-05
-0.0019076
-3.28938e-05
-0.00187328
-3.43178e-05
-0.00183756
-3.57234e-05
-0.00180044
-3.71117e-05
-0.00176196
-3.84808e-05
-0.00172213
-3.98293e-05
-0.00168098
-4.11574e-05
-0.00163851
-4.24633e-05
-0.00159477
-4.37434e-05
-0.00154977
-4.49968e-05
-0.00150355
-4.62214e-05
-0.00145614
-4.74162e-05
-0.00140756
-4.85781e-05
-0.00135785
-4.97062e-05
-0.00130705
-5.07994e-05
-0.0012552
-5.18551e-05
-0.00120232
-5.28728e-05
-0.00114847
-5.38507e-05
-0.00109369
-5.47877e-05
-0.001038
-5.56826e-05
-0.000981468
-5.65351e-05
-0.000924124
-5.73435e-05
-0.000866019
-5.8105e-05
-0.000807199
-5.88203e-05
-0.000747711
-5.94878e-05
-0.000687604
-6.01069e-05
-0.000626927
-6.06772e-05
-0.000565729
-6.11977e-05
-0.000504062
-6.16678e-05
-0.000441975
-6.20867e-05
-0.000379519
-6.24554e-05
-0.000316748
-6.27714e-05
-0.000253715
-6.30334e-05
-0.000190479
-6.32361e-05
-0.000127019
-6.34599e-05
-6.2588e-05
-6.44307e-05
-6.2588e-05
-2.91692e-05
5.62604e-05
-5.83821e-05
5.63431e-05
-8.75834e-05
5.63218e-05
-0.00011677
5.6292e-05
-0.000145937
5.62525e-05
-0.00017508
5.62033e-05
-0.000204194
5.61443e-05
-0.000233276
5.60754e-05
-0.000262319
5.59967e-05
-0.00029132
5.5908e-05
-0.000320273
5.58094e-05
-0.000349174
5.57007e-05
-0.000378017
5.55819e-05
-0.000406799
5.5453e-05
-0.000435513
5.53138e-05
-0.000464155
5.51645e-05
-0.00049272
5.50048e-05
-0.000521203
5.48347e-05
-0.000549599
5.46541e-05
-0.000577903
5.4463e-05
-0.00060611
5.42613e-05
-0.000634214
5.40489e-05
-0.00066221
5.38256e-05
-0.000690093
5.35915e-05
-0.000717857
5.33464e-05
-0.000745498
5.30902e-05
-0.000773009
5.28229e-05
-0.000800386
5.25442e-05
-0.000827622
5.22542e-05
-0.000854713
5.19526e-05
-0.000881651
5.16394e-05
-0.000908433
5.13145e-05
-0.000935051
5.09777e-05
-0.0009615
5.0629e-05
-0.000987775
5.02681e-05
-0.00101387
4.9895e-05
-0.00103977
4.95096e-05
-0.00106549
4.91117e-05
-0.001091
4.87012e-05
-0.00111631
4.82779e-05
-0.00114141
4.78418e-05
-0.00116629
4.73926e-05
-0.00119094
4.69304e-05
-0.00121536
4.64548e-05
-0.00123955
4.59659e-05
-0.00126349
4.54635e-05
-0.00128717
4.49473e-05
-0.0013106
4.44174e-05
-0.00133377
4.38736e-05
-0.00135666
4.33157e-05
-0.00137928
4.27436e-05
-0.0014016
4.21572e-05
-0.00142364
4.15564e-05
-0.00144537
4.09411e-05
-0.0014668
4.03111e-05
-0.00148791
3.96663e-05
-0.00150869
3.90067e-05
-0.00152915
3.83321e-05
-0.00154927
3.76424e-05
-0.00156904
3.69376e-05
-0.00158847
3.62175e-05
-0.00160753
3.54821e-05
-0.00162622
3.47312e-05
-0.00164453
3.3965e-05
-0.00166247
3.31832e-05
-0.00168001
3.23858e-05
-0.00169715
3.15728e-05
-0.00171388
3.07442e-05
-0.0017302
2.98999e-05
-0.00174609
2.904e-05
-0.00176155
2.81644e-05
-0.00177658
2.72731e-05
-0.00179115
2.63662e-05
-0.00180527
2.54437e-05
-0.00181893
2.45057e-05
-0.00183212
2.35522e-05
-0.00184482
2.25834e-05
-0.00185704
2.15992e-05
-0.00186877
2.05999e-05
-0.00187999
1.95855e-05
-0.0018907
1.85562e-05
-0.0019009
1.75121e-05
-0.00191057
1.64535e-05
-0.00191971
1.53806e-05
-0.0019283
1.42935e-05
-0.00193635
1.31926e-05
-0.00194384
1.2078e-05
-0.00195078
1.09501e-05
-0.00195714
9.80913e-06
-0.00196293
8.65553e-06
-0.00196813
7.48969e-06
-0.00197275
6.31217e-06
-0.00197678
5.12378e-06
-0.00198021
3.92587e-06
-0.00198304
2.72052e-06
-0.00198526
1.50367e-06
-0.00198687
2.54361e-07
-0.00198784
-1.01517e-06
-0.0019882
-2.25243e-06
-0.00198794
-3.50579e-06
-0.00198704
-4.7706e-06
-0.00198551
-6.04327e-06
-0.00198334
-7.32261e-06
-0.00198052
-8.60787e-06
-0.00197706
-9.8992e-06
-0.00197294
-1.11924e-05
-0.00196816
-1.24909e-05
-0.00196273
-1.37908e-05
-0.00195663
-1.50918e-05
-0.00194988
-1.63937e-05
-0.00194245
-1.76961e-05
-0.00193436
-1.89966e-05
-0.0019256
-2.02941e-05
-0.00191617
-2.15892e-05
-0.00190608
-2.28816e-05
-0.00189532
-2.41671e-05
-0.00188389
-2.54456e-05
-0.00187179
-2.67186e-05
-0.00185903
-2.79806e-05
-0.00184562
-2.92343e-05
-0.00183154
-3.04783e-05
-0.00181681
-3.17095e-05
-0.00180142
-3.29271e-05
-0.00178539
-3.41298e-05
-0.00176872
-3.53168e-05
-0.00175141
-3.64868e-05
-0.00173348
-3.76381e-05
-0.00171492
-3.87712e-05
-0.00169575
-3.98832e-05
-0.00167597
-4.097e-05
-0.00165558
-4.20373e-05
-0.00163462
-4.30748e-05
-0.00161307
-4.40902e-05
-0.00159095
-4.50738e-05
-0.00156828
-4.60305e-05
-0.00154506
-4.69584e-05
-0.0015213
-4.785e-05
-0.00149703
-4.87097e-05
-0.00147225
-4.95369e-05
-0.00144698
-5.03256e-05
-0.00142123
-5.10776e-05
-0.00139502
-5.1793e-05
-0.00136837
-5.24657e-05
-0.00134128
-5.30977e-05
-0.00131379
-5.36854e-05
-0.00128591
-5.4228e-05
-0.00125765
-5.47244e-05
-0.00122905
-5.51739e-05
-0.00120011
-5.55766e-05
-0.00117087
-5.59295e-05
-0.00114133
-5.62318e-05
-0.00111154
-5.64812e-05
-0.0010815
-5.6678e-05
-0.00105124
-5.68205e-05
-0.00102079
-5.69083e-05
-0.000990166
-5.69395e-05
-0.000959404
-5.69141e-05
-0.000928524
-5.68303e-05
-0.000897555
-5.66878e-05
-0.000866524
-5.64855e-05
-0.000835458
-5.62226e-05
-0.000804387
-5.58986e-05
-0.00077334
-5.55128e-05
-0.000742345
-5.50648e-05
-0.000711434
-5.45539e-05
-0.000680636
-5.39799e-05
-0.000649984
-5.33423e-05
-0.000619507
-5.2641e-05
-0.000589238
-5.18757e-05
-0.00055921
-5.10463e-05
-0.000529454
-5.0153e-05
-0.000500004
-4.91957e-05
-0.000470893
-4.81747e-05
-0.000442153
-4.70904e-05
-0.000413817
-4.59431e-05
-0.000385921
-4.47336e-05
-0.000358499
-4.34626e-05
-0.000331584
-4.21309e-05
-0.000305193
-4.07391e-05
-0.000279323
-3.92875e-05
-0.000253956
-3.77765e-05
-0.000229116
-3.62072e-05
-0.000204968
-3.45829e-05
-0.00018192
-3.29068e-05
-0.00016057
-3.11776e-05
-0.000141424
-2.9391e-05
-0.000124601
-2.75459e-05
-0.000109839
-2.56449e-05
-9.67726e-05
-2.36907e-05
-8.51425e-05
-2.16848e-05
-7.48115e-05
-1.96296e-05
-6.57074e-05
-1.75286e-05
-5.77897e-05
-1.53854e-05
-5.10373e-05
-1.32036e-05
-4.54418e-05
-1.09867e-05
-4.10025e-05
-8.73802e-06
-3.7723e-05
-6.4607e-06
-3.56099e-05
-4.15774e-06
-3.46719e-05
-1.83197e-06
-3.49166e-05
5.10287e-07
-3.636e-05
2.87553e-06
-3.90197e-05
5.26062e-06
-4.28969e-05
7.65332e-06
-4.79934e-05
1.00528e-05
-5.4309e-05
1.24557e-05
-6.18419e-05
1.48586e-05
-7.05886e-05
1.7258e-05
-8.05442e-05
1.96506e-05
-9.17023e-05
2.20329e-05
-0.000104055
2.44009e-05
-0.000117591
2.67509e-05
-0.0001323
2.90797e-05
-0.000148169
3.13852e-05
-0.000165182
3.36596e-05
-0.000183322
3.59035e-05
-0.000202575
3.81139e-05
-0.000222915
4.02818e-05
-0.000244323
4.24098e-05
-0.000266777
4.44929e-05
-0.000290251
4.65267e-05
-0.000314719
4.85089e-05
-0.000340153
5.04375e-05
-0.000366525
5.23079e-05
-0.000393803
5.41206e-05
-0.000421956
5.58676e-05
-0.000450951
5.75514e-05
-0.000480753
5.9168e-05
-0.000511329
6.07154e-05
-0.00054264
6.21913e-05
-0.000574651
6.35938e-05
-0.000607323
6.49213e-05
-0.000640617
6.61729e-05
-0.000674496
6.73485e-05
-0.000708916
6.84416e-05
-0.00074384
6.94571e-05
-0.000779225
7.03911e-05
-0.000815031
7.12436e-05
-0.000851216
7.20142e-05
-0.000887738
7.27019e-05
-0.000924554
7.33061e-05
-0.000961626
7.3832e-05
-0.000998907
7.42671e-05
-0.00103636
7.46229e-05
-0.00107394
7.48967e-05
-0.0011116
7.50869e-05
-0.00114931
7.51937e-05
-0.00118702
7.52198e-05
-0.0012247
7.51651e-05
-0.00126229
7.50302e-05
-0.00129977
7.48165e-05
-0.00133709
7.45173e-05
-0.00137421
7.41423e-05
-0.00141109
7.36895e-05
-0.0014477
7.31592e-05
-0.00148399
7.25522e-05
-0.00151993
7.1869e-05
-0.00155547
7.11103e-05
-0.00159059
7.02768e-05
-0.00162524
6.93692e-05
-0.00165939
6.8388e-05
-0.001693
6.73356e-05
-0.00172603
6.62099e-05
-0.00175845
6.5008e-05
-0.00179022
6.37371e-05
-0.00182131
6.23956e-05
-0.00185169
6.0989e-05
-0.00188131
5.95015e-05
-0.00191014
5.79503e-05
-0.00193814
5.63291e-05
-0.00196529
5.46394e-05
-0.00199155
5.28809e-05
-0.00201689
5.10554e-05
-0.00204127
4.91657e-05
-0.00206466
4.72034e-05
-0.00208702
4.51802e-05
-0.00210833
4.30863e-05
-0.00212856
4.09311e-05
-0.00214767
3.87127e-05
-0.00216563
3.64325e-05
-0.00218241
3.40897e-05
-0.00219799
3.16875e-05
-0.00221235
2.92263e-05
-0.00222544
2.67083e-05
-0.00223725
2.41348e-05
-0.00224775
2.15069e-05
-0.00225693
1.88276e-05
-0.00226475
1.60984e-05
-0.00227122
1.33236e-05
-0.00227629
1.05004e-05
-0.00227997
7.63775e-06
-0.00228224
4.73613e-06
-0.00228309
1.79941e-06
-0.00228248
-1.18399e-06
-0.00228037
-4.19793e-06
-0.00227675
-7.24247e-06
-0.00227159
-1.0313e-05
-0.00226489
-1.34073e-05
-0.00225663
-1.65191e-05
-0.0022468
-1.96486e-05
-0.0022354
-2.2791e-05
-0.00222243
-2.59416e-05
-0.00220787
-2.91009e-05
-0.00219173
-3.22618e-05
-0.002174
-3.5424e-05
-0.00215469
-3.85811e-05
-0.00213381
-4.17285e-05
-0.00211135
-4.48647e-05
-0.00208732
-4.79866e-05
-0.00206172
-5.10887e-05
-0.00203456
-5.41713e-05
-0.00200584
-5.72277e-05
-0.00197558
-6.02565e-05
-0.00194378
-6.32504e-05
-0.00191047
-6.62063e-05
-0.00187566
-6.91241e-05
-0.00183938
-7.19989e-05
-0.00180167
-7.48267e-05
-0.00176254
-7.76046e-05
-0.00172204
-8.03299e-05
-0.0016802
-8.30006e-05
-0.00163705
-8.56122e-05
-0.00159263
-8.81615e-05
-0.00154698
-9.06472e-05
-0.00150014
-9.30671e-05
-0.00145214
-9.54182e-05
-0.00140302
-9.76976e-05
-0.00135282
-9.99043e-05
-0.00130158
-0.000102034
-0.00124935
-0.000104086
-0.00119617
-0.000106058
-0.00114207
-0.000107948
-0.00108711
-0.000109753
-0.00103131
-0.000111474
-0.000974741
-0.000113108
-0.000917432
-0.000114653
-0.000859428
-0.000116109
-0.000800775
-0.000117474
-0.000741516
-0.000118747
-0.000681697
-0.000119926
-0.000621364
-0.00012101
-0.000560564
-0.000121998
-0.000499342
-0.000122889
-0.000437745
-0.000123684
-0.000375819
-0.000124381
-0.000313612
-0.000124979
-0.000251171
-0.000125475
-0.00018855
-0.000125857
-0.000125721
-0.000126288
-6.19421e-05
-0.00012821
-0.00012453
-2.8337e-05
8.45974e-05
-5.6719e-05
8.4725e-05
-8.50915e-05
8.46944e-05
-0.00011345
8.46503e-05
-0.000141789
8.45916e-05
-0.000170104
8.45183e-05
-0.00019839
8.44304e-05
-0.000226642
8.43277e-05
-0.000254856
8.42102e-05
-0.000283026
8.40779e-05
-0.000311147
8.39307e-05
-0.000339215
8.37685e-05
-0.000367224
8.35913e-05
-0.00039517
8.33989e-05
-0.000423048
8.31913e-05
-0.000450852
8.29684e-05
-0.000478577
8.27301e-05
-0.000506219
8.24763e-05
-0.000533772
8.22069e-05
-0.00056123
8.19217e-05
-0.00058859
8.16207e-05
-0.000615844
8.13036e-05
-0.000642989
8.09705e-05
-0.000670019
8.0621e-05
-0.000696927
8.02552e-05
-0.00072371
7.98728e-05
-0.000750361
7.94737e-05
-0.000776874
7.90578e-05
-0.000803245
7.86247e-05
-0.000829467
7.81745e-05
-0.000855534
7.7707e-05
-0.000881442
7.72218e-05
-0.000907183
7.6719e-05
-0.000932752
7.61982e-05
-0.000958144
7.56594e-05
-0.000983351
7.51022e-05
-0.00100837
7.45266e-05
-0.00103319
7.39323e-05
-0.00105781
7.33191e-05
-0.00108222
7.26869e-05
-0.00110641
7.20354e-05
-0.00113038
7.13644e-05
-0.00115412
7.06737e-05
-0.00117763
6.99632e-05
-0.0012009
6.92326e-05
-0.00122392
6.84817e-05
-0.00124668
6.77104e-05
-0.00126918
6.69184e-05
-0.00129141
6.61054e-05
-0.00131337
6.52715e-05
-0.00133504
6.44162e-05
-0.00135642
6.35395e-05
-0.00137751
6.26411e-05
-0.00139829
6.17209e-05
-0.00141876
6.07787e-05
-0.0014389
5.98144e-05
-0.00145873
5.88277e-05
-0.00147821
5.78185e-05
-0.00149736
5.67866e-05
-0.00151615
5.57319e-05
-0.00153459
5.46543e-05
-0.00155266
5.35537e-05
-0.00157036
5.24298e-05
-0.00158767
5.12827e-05
-0.0016046
5.01122e-05
-0.00162114
4.89183e-05
-0.00163726
4.77008e-05
-0.00165298
4.64597e-05
-0.00166828
4.5195e-05
-0.00168314
4.39067e-05
-0.00169757
4.25948e-05
-0.00171156
4.12591e-05
-0.00172509
3.98999e-05
-0.00173817
3.85171e-05
-0.00175077
3.71108e-05
-0.0017629
3.56811e-05
-0.00177454
3.42281e-05
-0.0017857
3.27519e-05
-0.00179635
3.12527e-05
-0.00180649
2.97307e-05
-0.00181612
2.81861e-05
-0.00182523
2.6619e-05
-0.00183381
2.50298e-05
-0.00184185
2.34188e-05
-0.00184934
2.17862e-05
-0.00185628
2.01324e-05
-0.00186266
1.84579e-05
-0.00186847
1.67628e-05
-0.00187371
1.50478e-05
-0.00187837
1.33132e-05
-0.00188244
1.15595e-05
-0.00188591
9.78696e-06
-0.00188878
7.99583e-06
-0.00189104
6.18595e-06
-0.00189268
4.35674e-06
-0.00189369
2.50872e-06
-0.00189409
6.61318e-07
-0.00189397
-1.13766e-06
-0.00189317
-3.05204e-06
-0.00189172
-4.95547e-06
-0.00188963
-6.86374e-06
-0.00188689
-8.78124e-06
-0.0018835
-1.07081e-05
-0.00187947
-1.26426e-05
-0.00187479
-1.45832e-05
-0.00186944
-1.65332e-05
-0.00186345
-1.84858e-05
-0.0018568
-2.0444e-05
-0.00184948
-2.24052e-05
-0.00184151
-2.43692e-05
-0.00183287
-2.63292e-05
-0.00182358
-2.82931e-05
-0.00181362
-3.02521e-05
-0.001803
-3.22057e-05
-0.00179173
-3.4156e-05
-0.0017798
-3.60981e-05
-0.00176721
-3.80296e-05
-0.00175398
-3.99557e-05
-0.00174009
-4.18651e-05
-0.00172556
-4.37623e-05
-0.0017104
-4.56471e-05
-0.00169459
-4.75111e-05
-0.00167817
-4.93559e-05
-0.00166111
-5.11808e-05
-0.00164345
-5.29831e-05
-0.00162517
-5.47602e-05
-0.0016063
-5.65097e-05
-0.00158685
-5.82283e-05
-0.00156681
-5.99199e-05
-0.0015462
-6.15813e-05
-0.00152504
-6.32004e-05
-0.00150332
-6.47894e-05
-0.00148108
-6.63337e-05
-0.00145831
-6.78432e-05
-0.00143504
-6.93018e-05
-0.00141127
-7.07222e-05
-0.00138703
-7.20916e-05
-0.00136233
-7.34079e-05
-0.00133719
-7.46797e-05
-0.00131162
-7.58928e-05
-0.00128565
-7.70472e-05
-0.0012593
-7.81503e-05
-0.00123257
-7.91879e-05
-0.00120551
-8.01618e-05
-0.00117812
-8.10733e-05
-0.00115043
-8.19164e-05
-0.00112247
-8.2691e-05
-0.00109425
-8.33955e-05
-0.00106579
-8.4029e-05
-0.00103714
-8.4584e-05
-0.00100831
-8.5065e-05
-0.000979318
-8.54687e-05
-0.000950207
-8.57886e-05
-0.000920999
-8.60289e-05
-0.000891724
-8.61829e-05
-0.00086241
-8.62531e-05
-0.000833089
-8.6235e-05
-0.000803791
-8.61283e-05
-0.000774547
-8.59318e-05
-0.00074539
-8.56433e-05
-0.00071635
-8.52626e-05
-0.00068746
-8.47881e-05
-0.000658755
-8.42184e-05
-0.000630267
-8.35526e-05
-0.00060203
-8.27902e-05
-0.00057408
-8.19304e-05
-0.00054645
-8.09725e-05
-0.000519174
-7.99162e-05
-0.000492289
-7.87611e-05
-0.000465828
-7.75071e-05
-0.000439827
-7.61544e-05
-0.00041432
-7.4703e-05
-0.000389341
-7.31535e-05
-0.000364925
-7.15064e-05
-0.000341106
-6.97625e-05
-0.000317917
-6.79227e-05
-0.000295391
-6.59881e-05
-0.00027356
-6.39617e-05
-0.000252449
-6.18499e-05
-0.000232073
-5.96634e-05
-0.000212437
-5.7413e-05
-0.000193547
-5.50974e-05
-0.000175441
-5.26885e-05
-0.000158217
-5.01309e-05
-0.000142016
-4.7379e-05
-0.000126953
-4.44537e-05
-0.000113053
-4.14458e-05
-0.000100257
-3.84406e-05
-8.84949e-05
-3.54531e-05
-7.77313e-05
-3.24484e-05
-6.79668e-05
-2.93941e-05
-5.92182e-05
-2.62773e-05
-5.15078e-05
-2.30959e-05
-4.48602e-05
-1.98512e-05
-3.93005e-05
-1.65464e-05
-3.48528e-05
-1.31857e-05
-3.15392e-05
-9.77432e-06
-2.93791e-05
-6.31783e-06
-2.83888e-05
-2.82226e-06
-2.85774e-05
6.98871e-07
-2.99647e-05
4.2628e-06
-3.25504e-05
7.8463e-06
-3.6343e-05
1.14459e-05
-4.13464e-05
1.50562e-05
-4.75626e-05
1.86719e-05
-5.49919e-05
2.22879e-05
-6.36333e-05
2.58994e-05
-7.34828e-05
2.95001e-05
-8.45375e-05
3.30876e-05
-9.6788e-05
3.66513e-05
-0.000110225
4.01876e-05
-0.000124839
4.36936e-05
-0.000140616
4.71625e-05
-0.000157544
5.05878e-05
-0.000175606
5.39652e-05
-0.000194782
5.729e-05
-0.000215055
6.05552e-05
-0.000236403
6.3758e-05
-0.000258806
6.68952e-05
-0.000282232
6.99534e-05
-0.00030666
7.29365e-05
-0.000332061
7.58382e-05
-0.000358407
7.86542e-05
-0.000385665
8.13791e-05
-0.000413807
8.40093e-05
-0.000442798
8.65426e-05
-0.000472605
8.89745e-05
-0.000503191
9.13017e-05
-0.000534521
9.35211e-05
-0.000566557
9.56303e-05
-0.000599262
9.76263e-05
-0.000632596
9.95071e-05
-0.000666524
0.000101277
-0.000701
0.000102917
-0.000735984
0.000104442
-0.00077144
0.000105847
-0.000807322
0.000107126
-0.000843592
0.000108284
-0.000880206
0.000109315
-0.000917122
0.000110222
-0.000954302
0.000111012
-0.000991696
0.000111662
-0.00102927
0.000112194
-0.00106698
0.000112606
-0.00110478
0.000112887
-0.00114263
0.000113047
-0.00118049
0.000113084
-0.00121833
0.000112999
-0.0012561
0.000112797
-0.00129375
0.000112469
-0.00133125
0.00011202
-0.00136856
0.000111455
-0.00140565
0.000110774
-0.00144246
0.000109976
-0.00147898
0.000109063
-0.00151514
0.000108035
-0.00155093
0.000106895
-0.00158629
0.000105642
-0.0016212
0.000104278
-0.00165562
0.000102804
-0.0016895
0.000101223
-0.00172283
9.95363e-05
-0.00175555
9.77289e-05
-0.00178764
9.58209e-05
-0.00181905
9.3807e-05
-0.00184975
9.16964e-05
-0.00187972
8.94633e-05
-0.0019089
8.7135e-05
-0.00193727
8.47028e-05
-0.0019648
8.21661e-05
-0.00199145
7.95267e-05
-0.00201718
7.67895e-05
-0.00204196
7.39482e-05
-0.00206576
7.10043e-05
-0.00208855
6.79648e-05
-0.00211029
6.48281e-05
-0.00213095
6.15888e-05
-0.0021505
5.82597e-05
-0.0021689
5.48409e-05
-0.00218613
5.13195e-05
-0.00220216
4.77112e-05
-0.00221695
4.40159e-05
-0.00223047
4.02338e-05
-0.00224271
3.63705e-05
-0.00225362
3.24234e-05
-0.0022632
2.84021e-05
-0.0022714
2.42981e-05
-0.0022782
2.01282e-05
-0.00228359
1.58896e-05
-0.00228754
1.15833e-05
-0.00229002
7.21756e-06
-0.00229102
2.79664e-06
-0.00229051
-1.69059e-06
-0.00228849
-6.21968e-06
-0.00228494
-1.07932e-05
-0.00227984
-1.54065e-05
-0.0022732
-2.00546e-05
-0.00226498
-2.47349e-05
-0.00225519
-2.94398e-05
-0.00224382
-3.41651e-05
-0.00223085
-3.89048e-05
-0.0022163
-4.36532e-05
-0.00220016
-4.84069e-05
-0.00218242
-5.31583e-05
-0.0021631
-5.79042e-05
-0.00214219
-6.26402e-05
-0.00211969
-6.73562e-05
-0.00209563
-7.20486e-05
-0.00207001
-7.67149e-05
-0.00204283
-8.13481e-05
-0.00201411
-8.59434e-05
-0.00198388
-9.04928e-05
-0.00195213
-9.49945e-05
-0.0019189
-9.94439e-05
-0.00188419
-0.000103832
-0.00184803
-0.000108155
-0.00181045
-0.000112408
-0.00177147
-0.000116588
-0.00173111
-0.000120687
-0.00168941
-0.000124703
-0.00164639
-0.00012863
-0.00160209
-0.000132466
-0.00155653
-0.000136205
-0.00150975
-0.000139845
-0.00146179
-0.00014338
-0.00141268
-0.000146808
-0.00136246
-0.000150124
-0.00131117
-0.000153326
-0.00125884
-0.00015641
-0.00120553
-0.000159374
-0.00115126
-0.000162215
-0.00109608
-0.00016493
-0.00104004
-0.000167516
-0.000983175
-0.000169972
-0.000925534
-0.000172294
-0.000867162
-0.000174481
-0.000808107
-0.000176529
-0.000748414
-0.000178439
-0.000688133
-0.000180207
-0.000627309
-0.000181834
-0.000565991
-0.000183316
-0.000504227
-0.000184653
-0.000442067
-0.000185845
-0.000379559
-0.000186889
-0.000316752
-0.000187785
-0.000253699
-0.000188528
-0.000190456
-0.0001891
-0.000126997
-0.000189747
-6.2561e-05
-0.000192646
-0.000187091
-2.82436e-05
0.000112841
-5.65297e-05
0.000113011
-8.4806e-05
0.000112971
-0.000113068
0.000112912
-0.00014131
0.000112834
-0.000169529
0.000112737
-0.000197718
0.00011262
-0.000225873
0.000112483
-0.000253989
0.000112326
-0.000282061
0.00011215
-0.000310085
0.000111954
-0.000338054
0.000111738
-0.000365965
0.000111502
-0.000393812
0.000111246
-0.00042159
0.000110969
-0.000449294
0.000110672
-0.000476919
0.000110355
-0.000504459
0.000110017
-0.000531911
0.000109658
-0.000559267
0.000109278
-0.000586524
0.000108877
-0.000613675
0.000108455
-0.000640715
0.000108011
-0.00066764
0.000107546
-0.000694443
0.000107058
-0.000721119
0.000106549
-0.000747663
0.000106017
-0.000774068
0.000105463
-0.00080033
0.000104886
-0.000826442
0.000104287
-0.000852398
0.000103664
-0.000878194
0.000103017
-0.000903822
0.000102347
-0.000929277
0.000101654
-0.000954554
0.000100936
-0.000979645
0.000100193
-0.00100454
9.94264e-05
-0.00102925
9.86345e-05
-0.00105375
9.78175e-05
-0.00107803
9.69751e-05
-0.00110211
9.6107e-05
-0.00112595
9.52129e-05
-0.00114957
9.42926e-05
-0.00117296
9.33458e-05
-0.00119609
9.23722e-05
-0.00121898
9.13716e-05
-0.00124162
9.03437e-05
-0.00126399
8.92881e-05
-0.00128609
8.82047e-05
-0.00130791
8.70932e-05
-0.00132945
8.59533e-05
-0.00135069
8.47848e-05
-0.00137164
8.35874e-05
-0.00139228
8.23609e-05
-0.0014126
8.1105e-05
-0.00143261
7.98196e-05
-0.00145229
7.85043e-05
-0.00147163
7.71589e-05
-0.00149062
7.57833e-05
-0.00150927
7.43773e-05
-0.00152755
7.29407e-05
-0.00154547
7.14733e-05
-0.00156302
6.99749e-05
-0.00158018
6.84454e-05
-0.00159695
6.68847e-05
-0.00161333
6.52927e-05
-0.0016293
6.36693e-05
-0.00164485
6.20143e-05
-0.00165998
6.03278e-05
-0.00167469
5.86097e-05
-0.00168895
5.68601e-05
-0.00170277
5.50788e-05
-0.00171614
5.32659e-05
-0.00172904
5.14216e-05
-0.00174148
4.95458e-05
-0.00175344
4.76388e-05
-0.00176491
4.57006e-05
-0.00177589
4.37314e-05
-0.00178637
4.17314e-05
-0.00179634
3.9701e-05
-0.00180579
3.76402e-05
-0.00181472
3.55495e-05
-0.00182312
3.34292e-05
-0.00183098
3.12797e-05
-0.0018383
2.91014e-05
-0.00184506
2.68947e-05
-0.00185126
2.46602e-05
-0.0018569
2.23985e-05
-0.00186196
2.01101e-05
-0.00186644
1.77956e-05
-0.00187034
1.54559e-05
-0.00187364
1.30919e-05
-0.00187635
1.07045e-05
-0.00187846
8.29546e-06
-0.00187997
5.86701e-06
-0.00188089
3.42202e-06
-0.00188118
9.54652e-07
-0.00188071
-1.6022e-06
-0.00187969
-4.07861e-06
-0.00187803
-6.61208e-06
-0.00187574
-9.15285e-06
-0.00187281
-1.17093e-05
-0.00186924
-1.428e-05
-0.00186503
-1.68582e-05
-0.00186015
-1.94591e-05
-0.00185463
-2.2055e-05
-0.00184844
-2.46705e-05
-0.0018416
-2.72851e-05
-0.0018341
-2.99041e-05
-0.00182595
-3.25204e-05
-0.00181713
-3.51488e-05
-0.00180766
-3.7763e-05
-0.00179753
-4.03811e-05
-0.00178675
-4.29944e-05
-0.0017753
-4.55979e-05
-0.00176321
-4.81928e-05
-0.00175046
-5.07823e-05
-0.00173707
-5.33453e-05
-0.00172303
-5.59042e-05
-0.00170836
-5.84344e-05
-0.00169305
-6.09479e-05
-0.00167712
-6.34406e-05
-0.00166057
-6.59074e-05
-0.00164341
-6.83453e-05
-0.00162564
-7.07521e-05
-0.00160727
-7.31264e-05
-0.00158832
-7.54656e-05
-0.00156878
-7.7767e-05
-0.00154867
-8.00285e-05
-0.00152801
-8.22377e-05
-0.00150681
-8.44085e-05
-0.00148507
-8.65267e-05
-0.00146281
-8.85949e-05