/*--------------------------------*- C++ -*----------------------------------*\
| =========                 |                                                 |
| \\      /  F ield         | OpenFOAM: The Open Source CFD Toolbox           |
|  \\    /   O peration     | Version:  v2006                                 |
|   \\  /    A nd           | Website:  www.openfoam.com                      |
|    \\/     M anipulation  |                                                 |
\*---------------------------------------------------------------------------*/
FoamFile
{
    version     2.0;
    format      ascii;
    class       volScalarField;
    location    "0";
    object      f;
}
// * * * * * * * * * * * * * * * * * * * * * * * * * * * * * * * * * * * * * //

dimensions      [0 0 0 0 0 0 0];


internalField   nonuniform List<scalar> 
2500
(
3.4484e-16
6.91226e-16
2.97807e-16
-8.66862e-16
2.16464e-16
6.22812e-16
-6.9179e-16
-9.07752e-16
-6.3189e-16
-1.40542e-15
-6.34804e-15
-3.10131e-15
4.69286e-15
9.04226e-15
3.592e-15
5.28521e-16
-2.70554e-15
-2.40575e-15
-7.20554e-16
4.86034e-16
5.63536e-16
4.65677e-17
-1.28212e-16
-9.87744e-17
-4.72508e-17
-1.54944e-17
-1.05492e-18
3.66994e-18
4.06004e-18
3.03369e-18
1.88296e-18
1.02785e-18
5.03986e-19
2.23441e-19
8.92706e-20
3.16198e-20
9.48823e-21
2.07087e-21
4.43397e-23
-2.93593e-22
-2.26694e-22
-1.24123e-22
-5.80844e-23
-2.46163e-23
-9.69921e-24
-3.6048e-24
-1.27516e-24
-4.31949e-25
-1.40734e-25
-5.33651e-26
2.07291e-16
8.23779e-16
6.71351e-16
-1.96303e-15
-5.86751e-16
8.39628e-15
5.36116e-15
-5.55126e-15
-1.83238e-14
-7.42004e-14
-1.71817e-14
2.82555e-14
8.84573e-14
2.47563e-14
1.95228e-15
-3.45776e-14
-2.22188e-14
-7.1585e-15
-1.15218e-15
4.18513e-15
1.76301e-15
1.35089e-17
-3.06898e-16
-1.50672e-16
-4.83358e-17
-7.11044e-18
6.14424e-18
8.18823e-18
6.50161e-18
4.20853e-18
2.38186e-18
1.20449e-18
5.46144e-19
2.20025e-19
7.65351e-20
2.11243e-20
3.06309e-21
-1.29615e-21
-1.54307e-21
-9.83552e-22
-5.07186e-22
-2.31802e-22
-9.73883e-23
-3.83267e-23
-1.42882e-23
-5.0833e-24
-1.73486e-24
-5.70184e-25
-1.81005e-25
-6.68289e-26
-2.28918e-16
7.74346e-16
1.22469e-15
-4.41373e-15
-9.68403e-15
3.36798e-14
7.12236e-14
-3.16461e-14
-3.39358e-13
-4.1919e-13
1.45944e-13
8.96382e-13
3.87015e-13
-7.71509e-14
-5.87757e-13
-3.28699e-13
-9.63721e-14
-1.59449e-14
6.1584e-14
3.38091e-14
4.9028e-15
-1.73568e-15
-1.23518e-15
-3.06393e-16
-5.63663e-17
8.29952e-18
2.18032e-17
1.95596e-17
1.35979e-17
8.17772e-18
4.38605e-18
2.10741e-18
8.98235e-19
3.30238e-19
9.68574e-20
1.59115e-20
-5.23563e-21
-7.11919e-21
-4.75262e-21
-2.53205e-21
-1.18902e-21
-5.11693e-22
-2.05868e-22
-7.83565e-23
-2.84347e-23
-9.89197e-24
-3.3123e-24
-1.07086e-24
-3.35088e-25
-1.21888e-25
-2.06961e-16
-2.80317e-14
-1.71611e-14
-5.33562e-15
-2.42613e-14
4.98922e-14
2.25709e-13
-4.64114e-14
-1.46527e-12
-9.93793e-13
5.36406e-12
4.22231e-12
6.00805e-13
-5.18427e-12
-3.05088e-12
-8.16965e-13
-1.84022e-13
8.34949e-13
5.00127e-13
8.80402e-14
-2.11516e-14
-2.38709e-14
-4.56664e-15
-3.18596e-16
2.07286e-17
6.32216e-17
5.83141e-17
4.22668e-17
2.663e-17
1.50635e-17
7.68944e-18
3.49843e-18
1.37785e-18
4.38264e-19
8.5878e-20
-1.60639e-20
-2.99129e-20
-2.14283e-20
-1.19032e-20
-5.76757e-21
-2.54752e-21
-1.04867e-21
-4.07573e-22
-1.50835e-22
-5.34685e-23
-1.82334e-23
-6.00124e-24
-1.9113e-24
-5.9024e-25
-2.11787e-25
8.06353e-15
-1.46806e-13
-1.61717e-13
4.07708e-13
3.40655e-13
-5.16702e-13
1.63125e-13
1.31692e-13
-3.23773e-12
3.64497e-11
2.40269e-11
8.3669e-12
-4.17722e-11
-2.58235e-11
-5.76805e-12
3.13817e-12
1.14386e-11
6.45079e-12
1.22827e-12
-2.73729e-13
-4.44407e-13
-1.05987e-13
-5.49419e-15
6.95494e-16
3.18945e-16
1.91632e-16
1.29637e-16
8.29846e-17
4.8665e-17
2.61941e-17
1.2783e-17
5.46921e-18
1.92349e-18
4.57601e-19
-2.10342e-20
-1.1244e-19
-8.97743e-20
-5.2643e-20
-2.64582e-20
-1.20205e-20
-5.06553e-21
-2.00972e-21
-7.57916e-22
-2.73499e-22
-9.48891e-23
-3.17658e-23
-1.02891e-23
-3.23154e-24
-9.85833e-25
-3.49323e-25
3.29923e-14
-3.18099e-13
-3.83569e-13
2.21647e-12
7.25136e-12
-5.63987e-12
-2.86474e-11
9.31728e-11
2.69509e-10
2.34116e-10
2.70012e-11
-3.54325e-10
-2.33888e-10
-5.55082e-11
1.36938e-10
1.73957e-10
8.11584e-11
1.57192e-11
-3.20912e-12
-6.91022e-12
-1.87087e-12
-1.31877e-13
1.07088e-14
3.05188e-15
7.15986e-16
3.77473e-16
2.44106e-16
1.48209e-16
8.26524e-17
4.28222e-17
2.00938e-17
7.97864e-18
2.31592e-18
1.78957e-19
-3.61248e-19
-3.46412e-19
-2.18662e-19
-1.14841e-19
-5.38059e-20
-2.3218e-20
-9.39405e-21
-3.60437e-21
-1.32158e-21
-4.65615e-22
-1.58264e-22
-5.20566e-23
-1.66079e-23
-5.14849e-24
-1.55304e-24
-5.44113e-25
3.73845e-13
-4.10783e-13
1.6705e-12
5.35984e-12
2.64707e-11
-1.4688e-11
-1.43323e-10
5.13143e-10
1.45876e-09
5.97415e-10
-2.19247e-09
-1.94589e-09
-5.31629e-10
1.00672e-09
1.50593e-09
7.58804e-10
1.90528e-10
-1.52271e-11
-9.52846e-11
-2.9075e-11
-2.4964e-12
1.48797e-13
4.8225e-14
4.7067e-15
6.35558e-16
5.53751e-16
4.11343e-16
2.44451e-16
1.30072e-16
6.55989e-17
2.99217e-17
1.07532e-17
2.02384e-18
-8.4739e-19
-1.20498e-18
-8.49727e-19
-4.72081e-19
-2.28948e-19
-1.01154e-19
-4.16555e-20
-1.6214e-20
-6.02115e-21
-2.14723e-21
-7.38813e-22
-2.46125e-22
-7.95897e-23
-2.50305e-23
-7.66682e-24
-2.28958e-24
-7.94424e-25
2.59596e-12
4.32044e-11
2.08575e-11
8.11622e-12
4.18364e-11
-3.64434e-11
-3.10508e-10
1.00242e-09
3.12802e-09
-8.33538e-10
-1.01278e-08
-4.07264e-09
3.91588e-09
1.06607e-08
5.4183e-09
1.30995e-09
-1.12446e-10
-1.25989e-09
-4.14535e-10
-4.03309e-11
1.81018e-12
6.31074e-13
7.25952e-14
-3.49914e-16
3.25976e-16
7.89214e-16
7.01253e-16
3.81548e-16
1.87379e-16
9.37959e-17
4.28575e-17
1.33084e-17
-8.01946e-20
-3.53907e-18
-3.0558e-18
-1.84079e-18
-9.3012e-19
-4.20501e-19
-1.75588e-19
-6.89834e-20
-2.58024e-20
-9.26298e-21
-3.20997e-21
-1.07821e-21
-3.52081e-22
-1.12007e-22
-3.47648e-23
-1.0538e-23
-3.12155e-24
-1.07543e-24
-2.80965e-12
4.22551e-10
4.46298e-12
-1.59292e-09
-2.51209e-09
-1.85046e-09
-9.10848e-10
-3.43998e-09
-5.80795e-09
-4.97661e-08
-2.13432e-08
2.30592e-08
8.52687e-08
3.98435e-08
9.48332e-09
-1.44712e-08
-1.88315e-08
-6.05944e-09
-5.93757e-10
1.95005e-11
7.17941e-12
1.08371e-12
8.86433e-16
-4.74926e-15
-4.71259e-16
1.82852e-15
1.42955e-15
5.53301e-16
2.32387e-16
1.24288e-16
6.21342e-17
1.54562e-17
-6.37326e-18
-9.77412e-18
-6.8149e-18
-3.64241e-18
-1.68297e-18
-7.07362e-19
-2.77824e-19
-1.03623e-19
-3.70888e-20
-1.28305e-20
-4.31177e-21
-1.41264e-21
-4.52308e-22
-1.41756e-22
-4.35241e-23
-1.30963e-23
-3.86178e-24
-1.32716e-24
-4.833e-11
1.37141e-09
-1.26717e-08
-4.05241e-08
-5.13529e-08
-6.17216e-08
-1.66007e-07
-4.11942e-07
-4.60052e-07
-2.98251e-07
1.60703e-07
5.95826e-07
3.53704e-07
4.44996e-08
-3.33976e-07
-2.66975e-07
-9.25982e-08
-1.02437e-08
1.40794e-10
5.57867e-11
1.34745e-11
7.85642e-13
-4.61814e-14
-1.50342e-14
1.10345e-14
1.43799e-14
3.54455e-15
5.77081e-16
1.89484e-16
1.52809e-16
1.02913e-16
1.93225e-17
-2.24622e-17
-2.3595e-17
-1.40221e-17
-6.62882e-18
-2.76358e-18
-1.06402e-18
-3.87758e-19
-1.35729e-19
-4.60679e-20
-1.52594e-20
-4.95488e-21
-1.58192e-21
-4.97458e-22
-1.54188e-22
-4.7097e-23
-1.41655e-23
-4.19026e-24
-1.45007e-24
-3.98121e-10
-3.77169e-09
-6.31349e-08
-1.61757e-07
-1.93532e-07
-2.60699e-07
-8.84589e-07
-1.95531e-06
-2.07618e-06
-7.64958e-07
2.65366e-06
2.53798e-06
4.87407e-07
-3.04137e-06
-2.49528e-06
-1.03338e-06
-2.02978e-07
-2.13521e-09
1.13141e-10
8.69873e-11
1.94951e-11
8.47217e-14
-9.27756e-14
3.41223e-13
2.96864e-13
6.72897e-14
4.30093e-15
-4.06061e-16
-1.1911e-16
1.8768e-16
2.27808e-16
3.62355e-17
-6.43298e-17
-5.43647e-17
-2.70208e-17
-1.08988e-17
-3.94643e-18
-1.34118e-18
-4.38254e-19
-1.39766e-19
-4.39397e-20
-1.37121e-20
-4.26753e-21
-1.32797e-21
-4.13349e-22
-1.28492e-22
-3.9765e-23
-1.22027e-23
-3.69767e-24
-1.3191e-24
-3.77896e-09
-3.09369e-08
-1.60255e-07
-3.6382e-07
-4.18751e-07
-6.19977e-07
-2.23174e-06
-4.62721e-06
-5.39802e-06
-6.77354e-07
8.9837e-06
5.13412e-06
-1.44654e-05
-1.54209e-05
-7.28583e-06
-2.02838e-06
-2.30164e-07
-6.59734e-10
3.43656e-09
7.93399e-10
1.61095e-11
-1.00854e-13
1.05158e-12
4.07881e-12
1.15571e-12
8.94446e-14
-6.66198e-15
-3.28311e-15
-8.80774e-16
3.56738e-16
7.49915e-16
1.09748e-16
-1.88342e-16
-1.25111e-16
-4.78651e-17
-1.50628e-17
-4.26461e-18
-1.12432e-18
-2.82062e-19
-6.87433e-20
-1.67345e-20
-4.23838e-21
-1.17168e-21
-3.63532e-22
-1.24509e-22
-4.49473e-23
-1.63706e-23
-5.85276e-24
-2.02605e-24
-8.2273e-25
-5.50619e-09
-9.68519e-08
-2.70353e-07
-5.15953e-07
-6.00114e-07
-9.961e-07
-3.59062e-06
-6.87938e-06
-8.24229e-06
1.74321e-05
1.60086e-05
-2.69293e-05
-7.08204e-05
-3.25479e-05
-1.02653e-05
-2.19311e-06
-2.04393e-08
-1.05855e-08
2.04779e-07
5.24104e-08
2.92266e-09
2.50373e-10
6.15393e-11
1.26383e-11
9.90843e-13
-7.56984e-14
-3.53768e-14
-1.10413e-14
-2.02193e-15
8.51966e-15
3.67177e-15
3.26337e-16
-6.93757e-16
-2.92163e-16
-6.97649e-17
-1.26431e-17
-1.11694e-18
4.13537e-19
3.11948e-19
1.36108e-19
4.92994e-20
1.61264e-20
4.91861e-21
1.41698e-21
3.86654e-22
9.94526e-23
2.37828e-23
5.13094e-24
9.26331e-25
8.94787e-26
6.08648e-09
-1.78288e-07
-3.40176e-07
1.33081e-06
2.62102e-07
-1.06265e-06
-4.09019e-06
8.60155e-06
9.36822e-05
0.000141095
-7.7508e-05
-0.000502205
-0.000188702
0.000166766
0.00114484
0.00201017
0.00211843
0.0016712
0.000976224
0.000404062
9.62411e-05
2.34141e-06
1.34383e-09
1.04797e-11
-7.54879e-13
-3.27832e-13
-1.00968e-13
-2.24402e-14
1.06226e-13
6.42344e-14
1.00371e-14
-6.56441e-15
-4.12937e-15
-6.05496e-16
-3.48669e-17
1.60702e-17
1.04836e-17
4.32981e-18
1.52338e-18
4.91487e-19
1.50134e-19
4.42236e-20
1.27064e-20
3.58512e-21
9.9616e-22
2.72512e-22
7.32122e-23
1.92411e-23
4.92421e-24
1.41177e-24
2.38467e-06
1.22084e-07
3.56677e-05
0.000126832
0.000196212
0.000296292
0.000669481
0.00130561
0.00154752
0.000577689
-0.00135725
-0.00214765
-0.000232778
0.00714964
0.0176101
0.0260891
0.0278753
0.0240975
0.0167233
0.00909191
0.00359994
0.000789696
1.40422e-05
-4.52524e-12
-1.85466e-12
-6.18624e-13
-1.92466e-13
9.85555e-13
8.55493e-13
1.65728e-13
-8.77369e-14
-8.74399e-14
-1.63278e-14
-9.19077e-17
2.99995e-16
1.09258e-16
3.44941e-17
1.03931e-17
3.01299e-18
8.46352e-19
2.32917e-19
6.36767e-20
1.7534e-20
4.91096e-21
1.40286e-21
4.06776e-22
1.18588e-22
3.43883e-23
9.82783e-24
3.24901e-24
1.56096e-05
3.17402e-05
0.000210279
0.000594562
0.00101324
0.00188103
0.00394724
0.00617546
0.00575894
0.00115575
-0.00484856
-0.00569357
0.00509898
0.0308252
0.0649019
0.0924373
0.0992496
0.0877183
0.0632616
0.0363267
0.0156407
0.00415898
0.000238652
-7.82157e-13
-5.81495e-13
1.3395e-12
1.01867e-11
9.94877e-12
2.27872e-12
-8.83106e-13
-1.49918e-12
-3.66529e-13
-1.78601e-14
5.51746e-15
1.38193e-15
2.39262e-16
5.42218e-17
1.31148e-17
3.15373e-18
7.45167e-19
1.76235e-19
4.37544e-20
1.20838e-20
3.78767e-21
1.29557e-21
4.55674e-22
1.5799e-22
5.28943e-23
1.69724e-23
6.24577e-24
4.60427e-05
0.000118192
0.000591204
0.001545
0.00273882
0.00540412
0.0110216
0.0160406
0.0136396
0.00149534
-0.0114853
-0.0102908
0.0183844
0.0780696
0.153925
0.215467
0.232316
0.207797
0.152741
0.0899539
0.0401375
0.011442
0.000883543
9.54668e-11
1.29104e-10
1.40897e-10
9.87394e-11
3.37349e-11
-5.09267e-12
-2.18908e-11
-6.37847e-12
-4.70345e-13
9.00015e-14
2.6705e-14
1.98558e-15
8.30252e-17
1.22493e-17
2.88498e-19
-7.71006e-19
-4.11328e-19
-1.4568e-19
-3.92312e-20
-7.08819e-21
1.19195e-22
8.76719e-22
5.3395e-22
2.37465e-22
9.07493e-23
3.14516e-23
1.22191e-23
9.59624e-05
0.000264959
0.00118861
0.00298943
0.00541975
0.010983
0.0220465
0.0309477
0.0247269
0.000822762
-0.0212527
-0.014238
0.0421004
0.150048
0.284334
0.394393
0.427347
0.385875
0.287541
0.172264
0.0786266
0.0233489
0.00210488
7.61284e-10
6.67427e-10
6.12343e-10
3.59557e-10
4.27755e-11
-2.87326e-10
-9.8169e-11
-9.18801e-12
1.14093e-12
4.27457e-13
3.95915e-14
-1.06226e-15
-3.81759e-16
-1.08421e-16
-3.12235e-17
-8.98851e-18
-2.50291e-18
-6.49678e-19
-1.48973e-19
-2.64833e-20
-1.49569e-21
1.62429e-21
1.09602e-21
4.91675e-22
1.86585e-22
6.40226e-23
2.45903e-23
0.000156566
0.00044747
0.0018985
0.0046794
0.00856826
0.017578
0.0349753
0.0480097
0.0365782
-0.00134855
-0.0325285
-0.0167287
0.0728036
0.235736
0.435798
0.602033
0.65637
0.597833
0.450585
0.273592
0.126994
0.0388073
0.0038728
2.68925e-09
1.58745e-09
1.05118e-09
6.75838e-10
-3.60601e-09
-1.38831e-09
-1.52352e-10
1.21344e-11
5.45964e-12
8.00323e-13
-1.04854e-14
-4.88345e-15
-1.00846e-15
-2.1695e-16
-5.63296e-17
-1.48355e-17
-3.71504e-18
-8.31194e-19
-1.43926e-19
-6.41422e-21
1.00002e-20
6.58756e-21
2.97192e-21
1.14318e-21
3.99081e-22
1.29882e-22
4.78547e-23
0.000207893
0.000602701
0.00249834
0.0060947
0.0111565
0.0229532
0.0455185
0.0616507
0.0451915
-0.00480373
-0.042728
-0.017381
0.101881
0.311905
0.568795
0.786377
0.863921
0.793575
0.6041
0.370852
0.174378
0.0544058
0.00582283
4.29505e-09
2.66371e-09
-2.29042e-08
-4.99746e-08
-2.03137e-08
-2.33564e-09
1.15108e-10
6.164e-11
1.27838e-11
3.83133e-13
-4.95648e-14
-1.51276e-14
-1.355e-15
-1.61505e-16
-3.73607e-17
-8.14078e-18
-1.29799e-18
4.4877e-20
1.70324e-19
1.04035e-19
4.78087e-20
1.91513e-20
7.01824e-21
2.40549e-21
7.8057e-22
2.41623e-22
8.54325e-23
0.000226431
0.000658748
0.00274165
0.00666812
0.0120715
0.0246734
0.0490022
0.0661288
0.0469392
-0.00860454
-0.0487364
-0.0173981
0.117226
0.351235
0.639167
0.889066
0.98631
0.913922
0.70186
0.434656
0.206309
0.0652659
0.00730001
-3.716e-07
-7.82633e-07
-6.91772e-07
-2.92615e-07
-4.66029e-08
9.05326e-10
6.18688e-10
1.86547e-10
1.53302e-11
-5.8167e-13
-2.31203e-13
-2.23584e-14
3.31805e-16
1.26334e-16
4.30792e-17
1.55418e-17
5.89716e-18
2.27346e-18
8.6707e-19
3.22199e-19
1.15764e-19
4.00839e-20
1.33637e-20
4.29156e-21
1.32884e-21
3.97253e-22
1.3627e-22
0.000195229
0.000562335
0.00245477
0.00601711
0.0105241
0.0209229
0.0420056
0.0574062
0.0396209
-0.0113444
-0.0488609
-0.0185073
0.111368
0.340007
0.627278
0.883134
0.989067
0.922609
0.712679
0.443628
0.211554
0.0673071
0.00765245
-5.55657e-06
-5.49729e-06
-3.01092e-06
-7.8095e-07
-3.7204e-08
4.18357e-09
2.17256e-09
3.59186e-10
-4.42152e-12
-2.3851e-12
-4.71368e-13
-1.15544e-15
1.29882e-15
4.40855e-16
1.35949e-16
4.43423e-17
1.48862e-17
5.06954e-18
1.73328e-18
5.89187e-19
1.97424e-19
6.47789e-20
2.07211e-20
6.44445e-21
1.94616e-21
5.70446e-22
1.92225e-22
0.000110922
0.000299843
0.00153975
0.00391671
0.00628696
0.0114289
0.0239202
0.0346
0.0242646
-0.0119068
-0.0408494
-0.0220392
0.0744369
0.257946
0.502548
0.731561
0.836395
0.788521
0.612711
0.382373
0.182212
0.057648
0.00639546
-2.06444e-05
-1.80285e-05
-7.44614e-06
-1.19436e-06
2.57307e-08
1.74977e-08
4.89775e-09
2.64958e-10
-1.59357e-11
-6.38327e-12
-6.20806e-13
1.17647e-14
4.07382e-15
7.2354e-16
1.89521e-16
6.06027e-17
2.02479e-17
6.85361e-18
2.32137e-18
7.80082e-19
2.58261e-19
8.37738e-20
2.65214e-20
8.17467e-21
2.45005e-21
7.13694e-22
2.39157e-22
1.62326e-05
4.65727e-06
0.0004156
0.00131502
0.00138463
0.00089943
0.00347899
0.00860806
0.00727827
-0.00723349
-0.0262766
-0.0256176
0.0218905
0.13771
0.311248
0.483918
0.568758
0.540516
0.419425
0.259624
0.121733
0.0372072
0.00361726
-6.08937e-05
-4.23323e-05
-1.20087e-05
-7.61912e-07
9.52252e-08
4.45498e-08
6.79875e-09
-1.37325e-10
-7.31158e-11
-1.21362e-11
1.5248e-13
6.49162e-14
8.92531e-15
4.13577e-16
1.23253e-16
4.6338e-17
1.70879e-17
6.21557e-18
2.22198e-18
7.77056e-19
2.64817e-19
8.77117e-20
2.81915e-20
8.78753e-21
2.65664e-21
7.79361e-22
2.63038e-22
-4.33695e-05
-0.000176348
-0.000415974
-0.000671915
-0.00192702
-0.00570908
-0.0100304
-0.00950825
-0.00370304
-0.000866319
-0.0101527
-0.0259498
-0.0222827
0.0274823
0.124781
0.230049
0.284275
0.271231
0.206743
0.123516
0.0545453
0.0146045
0.000695818
-0.000166049
-7.14482e-05
-1.08788e-05
6.91898e-07
3.10885e-07
6.48468e-08
1.24719e-09
-5.59742e-10
-1.72748e-10
-1.10063e-11
6.16399e-13
1.61647e-13
9.29272e-15
-1.79421e-16
-2.95196e-17
3.71088e-18
5.49968e-18
3.0984e-18
1.39393e-18
5.60967e-19
2.09701e-19
7.40511e-20
2.49276e-20
8.04497e-21
2.4992e-21
7.49602e-22
2.58559e-22
-4.99115e-05
-0.000186222
-0.000682093
-0.00139253
-0.00266412
-0.00643513
-0.0125663
-0.0144312
-0.00660243
0.00447182
0.00210062
-0.0194694
-0.0410245
-0.0369519
-0.0021644
0.0419732
0.0652028
0.0612508
0.0409426
0.0183358
0.0035725
-0.00195327
-0.00112885
-0.000357754
-4.98264e-05
5.66025e-06
2.20951e-06
4.4755e-07
2.6102e-08
-5.61359e-09
-1.88059e-09
-1.64159e-10
8.92306e-12
2.48467e-12
1.5518e-13
-4.78475e-15
-1.07167e-15
-1.84507e-16
-3.77383e-17
-6.78993e-18
-5.58833e-19
3.2304e-19
2.53661e-19
1.23455e-19
5.04408e-20
1.86448e-20
6.42663e-21
2.09778e-21
6.54395e-22
2.34375e-22
-1.92497e-05
-7.13645e-05
-0.000455771
-0.0010423
-0.00147041
-0.00291601
-0.00665211
-0.00893086
-0.003944
0.0060703
0.00750677
-0.00761765
-0.0328421
-0.0500856
-0.0535714
-0.0519852
-0.0510734
-0.0503847
-0.0451496
-0.0339182
-0.0199438
-0.00829636
-0.00216941
-0.00018033
2.97848e-05
1.32125e-05
3.18688e-06
2.51486e-07
-3.75277e-08
-1.52534e-08
-1.88464e-09
8.1417e-11
2.7737e-11
2.48267e-12
-6.45783e-14
-1.7971e-14
-1.39911e-15
-1.59296e-16
-4.15034e-17
-1.0303e-17
-2.16892e-18
-2.84122e-19
4.73119e-20
5.81394e-20
3.09087e-20
1.30927e-20
4.92369e-21
1.7108e-21
5.60013e-22
2.09862e-22
1.14811e-05
4.95285e-05
-4.42605e-05
-0.000241549
9.37335e-05
0.000984175
0.000892699
-0.000480881
-0.000238964
0.00370021
0.00718386
0.00346001
-0.00978587
-0.0295797
-0.0507797
-0.0677208
-0.0759869
-0.0730803
-0.0593014
-0.0392459
-0.0202413
-0.00744551
-0.00139165
6.20283e-05
3.73271e-05
1.2293e-05
1.93736e-06
-1.40831e-07
-6.046e-08
-1.10269e-08
3.22149e-10
1.57673e-10
2.95845e-11
-4.1063e-13
-1.96026e-13
-2.5582e-14
8.09765e-17
8.86065e-18
-3.72603e-18
-2.31869e-18
-6.57553e-19
-5.32665e-20
6.34577e-20
5.13114e-20
2.66203e-20
1.14814e-20
4.43068e-21
1.57998e-21
5.29821e-22
2.03727e-22
1.63973e-05
8.23376e-05
0.000193618
0.000244361
0.000640469
0.00217082
0.00395922
0.00362544
0.00112863
7.73948e-06
0.00334377
0.00819686
0.0073569
-0.003681
-0.0223222
-0.0398501
-0.0468533
-0.0433141
-0.0323243
-0.0190644
-0.00849333
-0.0024459
-0.000128038
3.74627e-05
1.98554e-05
4.57802e-06
-4.81877e-07
-1.48826e-07
-1.78881e-08
1.7742e-09
5.18484e-10
1.33958e-10
1.57503e-11
-1.23807e-12
-3.58547e-13
-2.38772e-14
6.00627e-16
1.66081e-16
4.01953e-17
9.75607e-18
2.51628e-18
7.469e-19
2.59219e-19
9.84545e-20
3.79823e-20
1.4272e-20
5.14037e-21
1.76845e-21
5.81927e-22
2.2141e-22
7.93052e-07
3.57015e-05
0.000181792
0.000226296
0.000166371
0.000832355
0.00232707
0.00254111
0.000145756
-0.00211599
-0.000101661
0.00597974
0.00999857
0.0077665
0.00167491
-0.00325398
-0.0027528
-0.000153541
0.00256756
0.00353114
0.00274906
0.00149069
0.000414975
5.6001e-05
-6.0984e-06
-5.91463e-06
-1.86737e-06
-1.66906e-07
2.00158e-08
7.44159e-09
9.19575e-10
4.25387e-12
-1.32775e-11
-4.02198e-12
-2.98694e-13
1.30208e-14
2.68681e-15
3.32172e-16
7.09819e-17
1.79669e-17
4.89667e-18
1.44506e-18
4.61757e-19
1.5635e-19
5.43159e-20
1.88288e-20
6.3987e-21
2.11231e-21
6.74817e-22
2.50476e-22
-1.48497e-05
-1.86571e-05
3.17486e-05
-4.93206e-05
-0.000510378
-0.000905718
-0.000718529
-0.000536656
-0.00111485
-0.00179404
-0.00108676
0.000777905
0.00268986
0.00514907
0.0101262
0.0178257
0.0238162
0.0249481
0.0208018
0.013708
0.00688814
0.00233118
0.000383878
-5.16147e-05
-3.31731e-05
-1.03913e-05
-1.02697e-06
1.07546e-07
4.91492e-08
8.92026e-09
-1.93654e-10
-1.24916e-10
-2.96927e-11
-1.75764e-12
1.69499e-13
4.25368e-14
2.51785e-15
7.8003e-17
3.31198e-17
1.17375e-17
3.99231e-18
1.38325e-18
4.89771e-19
1.74616e-19
6.16743e-20
2.13232e-20
7.16541e-21
2.33227e-21
7.3448e-22
2.68302e-22
-1.52594e-05
-3.11353e-05
-5.96723e-05
-0.000215823
-0.000662835
-0.00129881
-0.00182615
-0.00189489
-0.00135121
-0.000249368
-0.000204078
-0.00214321
-0.00420313
-0.00190587
0.00690934
0.0185534
0.0259912
0.0257532
0.0198818
0.0116369
0.0048903
0.00117535
-4.60351e-05
-6.42385e-05
-3.23391e-05
-6.99603e-06
1.3643e-07
1.53617e-07
5.06174e-08
2.59863e-09
-6.80411e-10
-2.50513e-10
-2.30427e-11
1.59068e-12
4.48832e-13
2.86789e-14
-6.14069e-16
-1.41106e-16
-2.61911e-17
-3.15418e-18
4.91996e-19
5.93688e-19
3.17009e-19
1.37655e-19
5.38296e-20
1.96233e-20
6.77262e-21
2.23145e-21
7.05516e-22
2.57298e-22
-6.14231e-06
-9.81089e-06
-4.88311e-05
-0.000178149
-0.000362869
-0.000591456
-0.000960179
-0.00121518
-0.000638098
0.000665456
0.000823031
-0.00160247
-0.00485172
-0.00469795
0.000352165
0.0077409
0.0120247
0.0114841
0.00786505
0.00370323
0.000911848
-0.000221215
-0.000150145
-7.3584e-05
-1.70588e-05
2.74041e-07
3.87902e-07
1.57309e-07
2.01272e-08
-4.92584e-09
-1.81616e-09
-1.81152e-10
1.44481e-11
4.15463e-12
2.74224e-13
-1.01508e-14
-2.07436e-15
-2.90813e-16
-6.0594e-17
-1.29376e-17
-2.3315e-18
-2.07203e-19
9.33266e-20
7.54909e-20
3.64648e-20
1.47183e-20
5.36971e-21
1.82622e-21
5.87894e-22
2.16565e-22
-1.65031e-08
8.13921e-06
2.94685e-07
-5.04025e-05
-5.78232e-05
5.8577e-05
0.000117423
-5.72177e-05
-0.000111766
0.000393008
0.00085149
0.000262456
-0.00133175
-0.0026997
-0.00278621
-0.00225665
-0.00197018
-0.00207372
-0.00218047
-0.00189308
-0.00124361
-0.000540639
-0.000172278
-2.54235e-05
8.30001e-06
3.57665e-06
7.28394e-07
3.14335e-08
-2.68747e-08
-1.08294e-08
-1.27838e-09
1.10293e-10
3.38194e-11
2.57338e-12
-1.10962e-13
-2.62434e-14
-1.63574e-15
-1.31923e-16
-4.14336e-17
-1.12203e-17
-2.61891e-18
-4.72696e-19
-2.75058e-20
2.97743e-20
2.06024e-20
9.48847e-21
3.70506e-21
1.31074e-21
4.32009e-22
1.61465e-22
1.76889e-07
5.4018e-06
1.84495e-05
1.49936e-05
9.89013e-06
0.000104319
0.000280532
0.000275274
5.25962e-07
-0.000212371
0.000134418
0.000941614
0.00130228
0.000385198
-0.00196584
-0.00458859
-0.00602882
-0.00582125
-0.00440529
-0.00257076
-0.00109323
-0.000296768
-1.89787e-05
2.94561e-05
1.39192e-05
3.01915e-06
4.60401e-08
-8.82744e-08
-4.08763e-08
-5.87455e-09
6.72195e-10
2.16491e-10
1.79358e-11
-9.71066e-13
-2.49804e-13
-1.35237e-14
1.75696e-16
2.66284e-17
-5.60067e-19
-1.93157e-18
-7.4697e-19
-1.6126e-19
-8.41847e-23
2.09486e-20
1.36542e-20
6.35509e-21
2.52153e-21
9.03377e-22
3.00057e-22
1.12397e-22
-1.36241e-06
-3.81037e-06
4.80435e-06
1.14989e-05
-2.48749e-05
-7.82299e-05
-4.43152e-05
4.74566e-05
-4.23256e-05
-0.000340704
-0.000360351
0.000297905
0.00123021
0.00131679
0.000196431
-0.00151487
-0.00249396
-0.00235265
-0.00152729
-0.00062041
-8.06297e-05
9.54378e-05
6.35484e-05
2.35752e-05
3.99783e-06
-7.09207e-07
-3.02887e-07
-9.61028e-08
-1.5193e-08
2.74664e-09
1.00558e-09
9.91879e-11
-6.71306e-12
-1.85407e-12
-1.07298e-13
3.25866e-15
6.7517e-16
1.25352e-16
2.66213e-17
5.72245e-18
1.27576e-18
3.27679e-19
1.04844e-19
3.92818e-20
1.53264e-20
5.80826e-21
2.08632e-21
7.0706e-22
2.2651e-22
8.21211e-23
-7.40517e-07
-4.38021e-06
-7.62833e-06
-1.57887e-06
-1.47929e-05
-8.5633e-05
-0.000149169
-9.74245e-05
1.00669e-05
-4.07695e-05
-0.00026654
-0.000342672
-4.17385e-05
0.000506266
0.00100211
0.00130148
0.00141443
0.0013556
0.00112943
0.000777248
0.000427733
0.000166393
3.86943e-05
1.88232e-09
-3.60599e-06
-1.57753e-06
-3.00199e-07
-4.39129e-11
9.21814e-09
3.18834e-09
3.37403e-10
-3.4038e-11
-1.04072e-11
-7.46192e-13
3.21568e-14
7.17419e-15
6.65304e-16
1.25913e-16
3.22911e-17
8.45535e-18
2.26877e-18
6.39439e-19
1.92328e-19
6.12996e-20
2.01803e-20
6.66717e-21
2.16286e-21
6.79865e-22
2.05604e-22
7.0602e-23
8.97741e-07
8.88307e-07
-4.39178e-06
-2.48843e-07
2.6391e-05
3.74627e-05
2.48355e-06
-1.43361e-05
6.77513e-05
0.00015857
5.52798e-05
-0.00027836
-0.000524957
-0.0003207
0.000396295
0.00125994
0.00168938
0.00160658
0.00117174
0.000640422
0.000235068
4.29485e-05
-1.12116e-05
-8.23615e-06
-3.64228e-06
-7.34473e-07
8.4873e-08
4.07921e-08
6.76491e-09
-4.33308e-10
-1.66695e-10
-3.44615e-11
-2.272e-12
2.07274e-13
5.39727e-14
3.96209e-15
7.53389e-17
4.23916e-17
1.7169e-17
5.95279e-18
1.96088e-18
6.40715e-19
2.10646e-19
6.95435e-20
2.28335e-20
7.37329e-21
2.31999e-21
7.06591e-22
2.07402e-22
6.89862e-23
8.42197e-07
2.70309e-06
2.61183e-06
3.65078e-06
2.51025e-05
6.94078e-05
8.79071e-05
5.53204e-05
3.0856e-05
8.41945e-05
0.000147226
6.63825e-05
-0.000163436
-0.000337719
-0.000288715
-9.26653e-05
6.34717e-05
6.63442e-05
-9.58002e-06
-7.5914e-05
-8.4359e-05
-5.41859e-05
-2.2221e-05
-5.58899e-06
-4.16756e-07
4.5031e-07
1.91408e-07
3.06539e-08
-3.64208e-09
-1.39503e-09
-1.74466e-10
1.23612e-11
3.42256e-12
2.36722e-13
-4.22244e-15
-8.30627e-16
-1.0585e-16
-1.11665e-17
1.80583e-18
2.00239e-18
1.02489e-18
4.33136e-19
1.67284e-19
6.09688e-20
2.12054e-20
7.06454e-21
2.25669e-21
6.9136e-22
2.03128e-22
6.74648e-23
-2.4262e-07
3.97956e-07
2.89147e-06
4.2371e-07
-6.83691e-06
1.02493e-06
2.17682e-05
1.77454e-05
-2.8445e-05
-4.5378e-05
2.93805e-05
0.000146511
0.000162205
7.51967e-06
-0.000279701
-0.000546655
-0.000667056
-0.000627396
-0.000475258
-0.000285805
-0.000131954
-4.32421e-05
-5.97129e-06
2.60961e-06
1.47384e-06
4.39794e-07
6.18935e-08
-1.40453e-08
-5.46491e-09
-6.66217e-10
7.63801e-11
2.47393e-11
2.17645e-12
-1.1474e-13
-3.01681e-14
-1.80718e-15
-6.28831e-17
-1.69746e-17
-2.93703e-18
5.72451e-20
3.66576e-19
2.3166e-19
1.0921e-19
4.48089e-20
1.67939e-20
5.87203e-21
1.93661e-21
6.06308e-22
1.80921e-22
6.09341e-23
-5.09619e-07
-1.08907e-06
-5.68162e-07
-2.62076e-06
-1.60403e-05
-3.53476e-05
-3.77475e-05
-2.68343e-05
-2.82836e-05
-5.09498e-05
-5.27408e-05
1.07687e-05
0.000107644
0.000130728
3.87728e-05
-0.000113848
-0.000209742
-0.000202844
-0.000134121
-5.71278e-05
-8.38541e-06
8.29903e-06
6.76686e-06
2.65916e-06
4.3282e-07
-1.14986e-07
-5.86564e-08
-1.36224e-08
-1.15985e-09
2.96004e-10
1.04175e-10
1.18755e-11
-8.49819e-13
-2.42838e-13
-1.84763e-14
2.4069e-16
5.28296e-17
9.45605e-18
1.68484e-18
5.1502e-19
2.74837e-19
1.50577e-19
7.28617e-20
3.13408e-20
1.22535e-20
4.4308e-21
1.49967e-21
4.79079e-22
1.45297e-22
4.97306e-23
1.09949e-08
-4.81701e-07
-1.41936e-06
-8.49949e-07
-8.73808e-07
-8.72053e-06
-1.84549e-05
-1.26824e-05
7.11308e-06
7.4075e-06
-2.58878e-05
-5.73448e-05
-3.98274e-05
3.18297e-05
0.000122129
0.000189073
0.000210283
0.000194825
0.000152618
9.91761e-05
5.12011e-05
1.93054e-05
3.97713e-06
-2.61305e-07
-4.19314e-07
-1.95979e-07
-4.12086e-08
1.99506e-09
1.18551e-09
2.72076e-10
1.58029e-11
-4.21791e-12
-1.20396e-12
-8.1707e-14
3.63605e-15
7.4399e-16
1.31859e-16
2.67988e-17
5.66201e-18
1.32154e-18
3.82809e-19
1.39264e-19
5.63412e-20
2.27422e-20
8.74348e-21
3.16387e-21
1.07817e-21
3.47403e-22
1.06307e-22
3.67732e-23
1.91853e-07
3.66442e-07
3.29785e-09
1.10364e-06
6.94849e-06
1.3569e-05
1.30156e-05
9.53266e-06
1.31196e-05
2.13239e-05
1.47074e-05
-1.55914e-05
-4.61147e-05
-4.08462e-05
8.84096e-06
7.66499e-05
0.000116078
0.000112065
8.08391e-05
4.26284e-05
1.49091e-05
1.85015e-06
-1.47681e-06
-6.84926e-07
-1.85455e-07
-2.3968e-08
1.11502e-08
3.67536e-09
5.46205e-10
-7.2642e-11
-2.73354e-11
-4.00245e-12
2.33764e-13
5.61676e-14
4.02175e-15
2.60961e-16
7.05686e-17
1.72504e-17
4.08285e-18
1.03294e-18
3.02316e-19
1.04351e-19
3.98449e-20
1.55117e-20
5.86022e-21
2.10644e-21
7.16995e-22
2.31395e-22
7.10244e-23
2.46887e-23
3.78232e-08
2.52975e-07
5.74423e-07
5.59076e-07
1.48588e-06
5.3784e-06
8.9223e-06
6.11146e-06
-4.40128e-07
5.70312e-07
1.19864e-05
1.90242e-05
7.79104e-06
-1.85847e-05
-4.38231e-05
-5.77783e-05
-5.87428e-05
-5.32897e-05
-4.29577e-05
-2.94919e-05
-1.64112e-05
-6.89019e-06
-1.80911e-06
-1.50937e-07
1.26084e-07
6.83438e-08
1.4573e-08
5.41143e-10
-3.52214e-10
-1.20482e-10
-1.5426e-11
1.5189e-12
4.2854e-13
3.67039e-14
-8.61197e-16
-1.64834e-16
-3.06049e-17
-5.45015e-18
-8.20162e-19
-5.39377e-20
4.00688e-20
3.23023e-20
1.73353e-20
7.895e-21
3.22237e-21
1.20627e-21
4.20007e-22
1.37383e-22
4.25313e-23
1.48864e-23
-7.12604e-08
-1.10106e-07
5.71249e-08
-3.77311e-07
-2.49481e-06
-4.47939e-06
-3.93311e-06
-2.9722e-06
-5.08577e-06
-7.58661e-06
-3.67137e-06
7.6165e-06
1.629e-05
1.16062e-05
-8.01868e-06
-3.21227e-05
-4.55127e-05
-4.3916e-05
-3.25849e-05
-1.85753e-05
-7.7465e-06
-1.90104e-06
4.67781e-08
2.39637e-07
1.22781e-07
2.89493e-08
-2.2933e-09
-1.43634e-09
-3.48035e-10
1.52731e-11
1.01421e-11
1.76728e-12
-1.12127e-13
-3.30816e-14
-2.06965e-15
-8.41435e-17
-2.89807e-17
-8.42088e-18
-2.29159e-18
-5.95875e-19
-1.41365e-19
-2.69149e-20
-2.08857e-21
1.45882e-21
1.08836e-21
5.07794e-22
1.96858e-22
6.8301e-23
2.18881e-23
7.84435e-24
-1.91644e-08
-9.52836e-08
-1.93368e-07
-2.38711e-07
-6.80596e-07
-2.11385e-06
-3.20851e-06
-2.2425e-06
-2.60214e-07
-7.36987e-07
-4.10746e-06
-5.56215e-06
-1.33526e-06
6.79788e-06
1.37409e-05
1.66987e-05
1.61345e-05
1.42731e-05
1.14143e-05
7.96863e-06
4.67878e-06
2.14943e-06
6.65367e-07
7.9697e-08
-4.06378e-08
-2.24226e-08
-5.15412e-09
-4.13354e-10
1.34423e-10
4.06562e-11
4.27019e-12
-5.22883e-13
-1.48992e-13
-1.20896e-14
2.10892e-16
4.18557e-17
4.35208e-18
-1.15959e-18
-9.82707e-19
-4.28954e-19
-1.46834e-19
-4.22526e-20
-1.01493e-20
-1.84849e-21
-1.29376e-22
8.86091e-23
5.98488e-23
2.54937e-23
9.05854e-24
3.46547e-24
2.12789e-08
3.18871e-08
-2.18021e-08
1.16552e-07
7.55202e-07
1.31399e-06
1.11407e-06
8.87371e-07
1.57792e-06
2.22512e-06
8.82394e-07
-2.46633e-06
-4.73563e-06
-3.02371e-06
2.90649e-06
9.93129e-06
1.37827e-05
1.32619e-05
1.00182e-05
5.94747e-06
2.63606e-06
7.43195e-07
4.45367e-08
-6.79306e-08
-3.30712e-08
-6.1315e-09
1.3009e-09
6.32678e-10
1.21341e-10
-7.37291e-12
-3.1139e-12
-4.67136e-13
3.83898e-16
2.63422e-15
6.60347e-16
1.47232e-16
3.35511e-17
6.80004e-18
1.05249e-18
5.30425e-20
-4.30826e-20
-2.31695e-20
-7.82449e-21
-2.07673e-21
-4.38736e-22
-6.30166e-23
1.29633e-24
5.45261e-24
2.72366e-24
1.22467e-24
4.76267e-09
2.44483e-08
4.84763e-08
6.5877e-08
1.92938e-07
5.72421e-07
8.49157e-07
5.96504e-07
1.13526e-07
2.35759e-07
1.06611e-06
1.42039e-06
2.96246e-07
-1.84169e-06
-3.63255e-06
-4.34615e-06
-4.11054e-06
-3.54385e-06
-2.82579e-06
-1.98216e-06
-1.15139e-06
-5.12076e-07
-1.47441e-07
-1.32223e-08
1.04457e-08
5.1001e-09
9.5705e-10
-2.00167e-11
-3.54875e-11
-1.1111e-11
-1.1746e-12
6.77278e-14
1.80549e-14
2.88067e-15
5.95031e-16
1.60419e-16
4.15558e-17
9.80673e-18
2.04824e-18
3.5784e-19
4.35075e-20
-5.51903e-22
-2.50798e-21
-1.00635e-21
-2.81127e-22
-6.13075e-23
-9.61787e-24
-3.71162e-25
4.91238e-25
3.3803e-25
-4.26303e-09
-7.23189e-09
4.27139e-09
-2.83718e-08
-1.59088e-07
-2.78175e-07
-2.47821e-07
-2.00943e-07
-3.42474e-07
-4.7038e-07
-1.87238e-07
4.93104e-07
9.54712e-07