/*--------------------------------*- C++ -*----------------------------------*\
| =========                 |                                                 |
| \\      /  F ield         | OpenFOAM: The Open Source CFD Toolbox           |
|  \\    /   O peration     | Version:  v2006                                 |
|   \\  /    A nd           | Website:  www.openfoam.com                      |
|    \\/     M anipulation  |                                                 |
\*---------------------------------------------------------------------------*/
FoamFile
{
    version     2.0;
    format      ascii;
    class       volScalarField;
    location    "16.3";
    object      p;
}
// * * * * * * * * * * * * * * * * * * * * * * * * * * * * * * * * * * * * * //

dimensions      [1 -1 -2 0 0 0 0];


internalField   nonuniform List<scalar> 
50000
(
21905.1
21905.3
21905.7
21906.2
21906.9
21907.7
21908.7
21909.9
21911.3
21912.8
21914.5
21916.4
21918.4
21920.7
21923.1
21925.7
21928.4
21931.4
21934.5
21937.7
21941.2
21944.7
21948.5
21952.4
21956.4
21960.6
21964.9
21969.4
21974
21978.7
21983.5
21988.4
21993.4
21998.5
22003.7
22008.9
22014.3
22019.6
22025.1
22030.6
22036.1
22041.6
22047.2
22052.7
22058.3
22063.8
22069.3
22074.8
22080.3
22085.7
22091.1
22096.4
22101.6
22106.7
22111.8
22116.8
22121.7
22126.5
22131.1
22135.7
22140.1
22144.4
22148.5
22152.5
22156.3
22160
22163.6
22166.9
22170.1
22173.2
22176
22178.7
22181.2
22183.5
22185.7
22187.6
22189.4
22190.9
22192.3
22193.5
22194.5
22195.3
22195.9
22196.4
22196.7
22196.7
22196.6
22196.4
22195.9
22195.3
22194.5
22193.6
22192.5
22191.2
22189.8
22188.3
22186.6
22184.8
22182.9
22180.8
22178.7
22176.4
22174
22171.6
22169
22166.4
22163.6
22160.9
22158
22155.1
22152.2
22149.3
22146.3
22143.3
22140.3
22137.2
22134.2
22131.2
22128.2
22125.3
22122.3
22119.4
22116.5
22113.7
22110.9
22108.2
22105.6
22103
22100.5
22098.1
22095.7
22093.5
22091.3
22089.2
22087.3
22085.4
22083.7
22082
22080.5
22079.1
22077.8
22076.7
22075.6
22074.7
22073.9
22073.3
22072.8
22072.4
22072.1
22072
21453.5
21453.7
21454
21454.5
21455.2
21456
21457
21458.2
21459.6
21461.1
21462.9
21464.7
21466.8
21469
21471.5
21474.1
21476.8
21479.8
21482.9
21486.1
21489.6
21493.2
21496.9
21500.8
21504.9
21509.1
21513.4
21517.9
21522.5
21527.2
21532
21536.9
21542
21547.1
21552.3
21557.5
21562.9
21568.3
21573.7
21579.2
21584.7
21590.3
21595.8
21601.4
21607
21612.6
21618.1
21623.6
21629.1
21634.5
21639.9
21645.2
21650.5
21655.6
21660.7
21665.7
21670.6
21675.4
21680.1
21684.6
21689.1
21693.4
21697.5
21701.5
21705.4
21709.1
21712.6
21716
21719.2
21722.2
21725.1
21727.8
21730.3
21732.6
21734.7
21736.7
21738.5
21740
21741.4
21742.6
21743.6
21744.4
21745
21745.5
21745.7
21745.8
21745.7
21745.4
21745
21744.3
21743.6
21742.6
21741.5
21740.2
21738.8
21737.3
21735.6
21733.8
21731.8
21729.8
21727.6
21725.3
21722.9
21720.4
21717.9
21715.2
21712.5
21709.7
21706.8
21703.9
21701
21698
21695
21692
21689
21686
21682.9
21679.9
21676.9
21673.9
21671
21668.1
21665.2
21662.4
21659.6
21656.9
21654.2
21651.6
21649.1
21646.6
21644.3
21642
21639.9
21637.8
21635.8
21634
21632.2
21630.6
21629
21627.6
21626.3
21625.2
21624.1
21623.2
21622.4
21621.8
21621.3
21620.9
21620.6
21620.5
21001.4
21001.6
21002
21002.5
21003.1
21004
21005
21006.2
21007.6
21009.1
21010.8
21012.7
21014.8
21017.1
21019.5
21022.1
21024.9
21027.8
21030.9
21034.2
21037.7
21041.3
21045.1
21049
21053.1
21057.3
21061.6
21066.1
21070.8
21075.5
21080.3
21085.3
21090.4
21095.5
21100.7
21106
21111.4
21116.9
21122.3
21127.9
21133.4
21139
21144.6
21150.2
21155.8
21161.4
21167
21172.5
21178
21183.5
21188.9
21194.2
21199.5
21204.7
21209.8
21214.8
21219.8
21224.6
21229.3
21233.8
21238.3
21242.6
21246.8
21250.8
21254.7
21258.4
21262
21265.4
21268.6
21271.6
21274.5
21277.2
21279.7
21282
21284.2
21286.1
21287.9
21289.5
21290.8
21292
21293
21293.8
21294.5
21294.9
21295.1
21295.2
21295.1
21294.8
21294.3
21293.7
21292.9
21291.9
21290.8
21289.5
21288.1
21286.5
21284.8
21283
21281
21278.9
21276.7
21274.4
21272
21269.5
21266.9
21264.2
21261.5
21258.7
21255.8
21252.9
21249.9
21246.9
21243.9
21240.9
21237.8
21234.8
21231.7
21228.7
21225.6
21222.6
21219.6
21216.7
21213.8
21210.9
21208.1
21205.4
21202.7
21200.1
21197.5
21195.1
21192.7
21190.4
21188.2
21186.1
21184.2
21182.3
21180.5
21178.9
21177.3
21175.9
21174.6
21173.4
21172.4
21171.5
21170.7
21170
21169.5
21169.1
21168.8
21168.7
20548.9
20549.1
20549.5
20550
20550.7
20551.6
20552.6
20553.8
20555.2
20556.7
20558.4
20560.3
20562.4
20564.7
20567.1
20569.7
20572.5
20575.5
20578.6
20582
20585.4
20589.1
20592.9
20596.8
20601
20605.2
20609.6
20614.1
20618.8
20623.6
20628.5
20633.5
20638.6
20643.8
20649
20654.4
20659.8
20665.3
20670.8
20676.4
20682
20687.6
20693.3
20698.9
20704.6
20710.2
20715.8
20721.4
20727
20732.5
20738
20743.4
20748.7
20753.9
20759.1
20764.1
20769.1
20773.9
20778.7
20783.3
20787.8
20792.1
20796.3
20800.4
20804.3
20808
20811.6
20815
20818.3
20821.4
20824.2
20826.9
20829.5
20831.8
20834
20835.9
20837.7
20839.2
20840.6
20841.8
20842.8
20843.6
20844.2
20844.6
20844.9
20844.9
20844.8
20844.5
20844
20843.3
20842.5
20841.5
20840.4
20839.1
20837.6
20836
20834.3
20832.4
20830.4
20828.3
20826
20823.7
20821.2
20818.7
20816.1
20813.3
20810.6
20807.7
20804.8
20801.8
20798.9
20795.8
20792.8
20789.7
20786.6
20783.5
20780.4
20777.3
20774.2
20771.2
20768.2
20765.2
20762.2
20759.4
20756.5
20753.7
20751
20748.4
20745.8
20743.3
20740.9
20738.6
20736.4
20734.3
20732.3
20730.4
20728.6
20726.9
20725.4
20723.9
20722.6
20721.5
20720.4
20719.5
20718.7
20718
20717.5
20717.1
20716.8
20716.7
20096
20096.3
20096.6
20097.2
20097.9
20098.7
20099.7
20101
20102.3
20103.9
20105.7
20107.6
20109.7
20112
20114.4
20117
20119.9
20122.9
20126
20129.4
20132.9
20136.5
20140.4
20144.4
20148.6
20152.9
20157.3
20161.9
20166.6
20171.4
20176.4
20181.5
20186.6
20191.9
20197.2
20202.6
20208.1
20213.7
20219.3
20224.9
20230.6
20236.3
20242
20247.7
20253.4
20259.1
20264.8
20270.5
20276.1
20281.6
20287.2
20292.6
20298
20303.3
20308.5
20313.6
20318.6
20323.5
20328.3
20333
20337.5
20341.9
20346.2
20350.3
20354.2
20358
20361.6
20365
20368.3
20371.4
20374.3
20377
20379.6
20381.9
20384.1
20386
20387.8
20389.4
20390.8
20392
20392.9
20393.7
20394.3
20394.8
20395
20395
20394.9
20394.5
20394
20393.3
20392.5
20391.4
20390.2
20388.9
20387.4
20385.8
20384
20382.1
20380
20377.8
20375.5
20373.2
20370.7
20368.1
20365.4
20362.6
20359.8
20356.9
20353.9
20350.9
20347.9
20344.8
20341.7
20338.5
20335.4
20332.2
20329.1
20325.9
20322.8
20319.7
20316.7
20313.6
20310.6
20307.7
20304.8
20302
20299.2
20296.6
20294
20291.4
20289
20286.7
20284.4
20282.3
20280.2
20278.3
20276.5
20274.8
20273.2
20271.8
20270.5
20269.2
20268.2
20267.2
20266.4
20265.7
20265.2
20264.8
20264.5
20264.4
19642.7
19643
19643.3
19643.9
19644.6
19645.5
19646.5
19647.7
19649.1
19650.7
19652.5
19654.4
19656.5
19658.8
19661.3
19664
19666.8
19669.8
19673
19676.4
19680
19683.7
19687.6
19691.6
19695.9
19700.2
19704.7
19709.4
19714.2
19719.1
19724.1
19729.2
19734.5
19739.8
19745.2
19750.7
19756.3
19761.9
19767.6
19773.3
19779.1
19784.8
19790.6
19796.4
19802.2
19808
19813.8
19819.5
19825.2
19830.9
19836.5
19842
19847.5
19852.8
19858.1
19863.3
19868.4
19873.4
19878.2
19882.9
19887.5
19892
19896.3
19900.4
19904.4
19908.2
19911.9
19915.4
19918.7
19921.8
19924.7
19927.5
19930
19932.4
19934.6
19936.5
19938.3
19939.9
19941.3
19942.5
19943.4
19944.2
19944.8
19945.2
19945.4
19945.4
19945.2
19944.9
19944.3
19943.6
19942.7
19941.6
19940.4
19939
19937.5
19935.8
19933.9
19932
19929.8
19927.6
19925.3
19922.8
19920.2
19917.6
19914.8
19912
19909.1
19906.1
19903.1
19900
19896.9
19893.8
19890.6
19887.4
19884.2
19881
19877.7
19874.5
19871.4
19868.2
19865.1
19862
19858.9
19855.9
19853
19850.1
19847.3
19844.6
19841.9
19839.4
19836.9
19834.5
19832.2
19830
19828
19826
19824.2
19822.4
19820.8
19819.4
19818
19816.8
19815.7
19814.7
19813.9
19813.2
19812.7
19812.3
19812
19811.8
19189
19189.2
19189.6
19190.2
19190.9
19191.8
19192.9
19194.1
19195.5
19197.1
19198.9
19200.9
19203
19205.3
19207.8
19210.5
19213.4
19216.5
19219.7
19223.1
19226.7
19230.5
19234.5
19238.6
19242.9
19247.3
19251.9
19256.6
19261.5
19266.5
19271.6
19276.8
19282.2
19287.6
19293.1
19298.7
19304.4
19310.1
19315.9
19321.7
19327.5
19333.4
19339.3
19345.2
19351.1
19357
19362.9
19368.7
19374.5
19380.2
19385.9
19391.5
19397.1
19402.5
19407.9
19413.2
19418.3
19423.4
19428.3
19433.1
19437.8
19442.3
19446.6
19450.8
19454.9
19458.8
19462.5
19466
19469.3
19472.5
19475.5
19478.3
19480.8
19483.2
19485.4
19487.4
19489.2
19490.8
19492.1
19493.3
19494.3
19495.1
19495.6
19496
19496.2
19496.2
19496
19495.6
19495
19494.2
19493.3
19492.1
19490.9
19489.4
19487.8
19486
19484.1
19482.1
19479.9
19477.6
19475.2
19472.7
19470
19467.3
19464.5
19461.6
19458.6
19455.5
19452.4
19449.3
19446.1
19442.8
19439.6
19436.3
19433
19429.7
19426.4
19423.1
19419.8
19416.6
19413.4
19410.2
19407.1
19404.1
19401
19398.1
19395.2
19392.4
19389.7
19387.1
19384.6
19382.1
19379.8
19377.6
19375.5
19373.5
19371.6
19369.8
19368.2
19366.7
19365.3
19364.1
19363
19362
19361.1
19360.4
19359.9
19359.4
19359.2
19359
18734.8
18735
18735.4
18736
18736.8
18737.7
18738.8
18740.1
18741.5
18743.1
18745
18746.9
18749.1
18751.4
18754
18756.7
18759.6
18762.7
18766
18769.5
18773.1
18777
18781
18785.2
18789.6
18794.1
18798.8
18803.6
18808.6
18813.7
18818.9
18824.2
18829.7
18835.2
18840.8
18846.5
18852.3
18858.1
18864
18870
18875.9
18881.9
18888
18894
18900
18906
18912
18917.9
18923.8
18929.7
18935.5
18941.2
18946.9
18952.4
18957.9
18963.3
18968.5
18973.7
18978.7
18983.6
18988.3
18992.9
18997.3
19001.6
19005.7
19009.6
19013.4
19017
19020.4
19023.6
19026.6
19029.4
19032
19034.4
19036.6
19038.6
19040.4
19042
19043.4
19044.6
19045.5
19046.3
19046.8
19047.2
19047.3
19047.3
19047
19046.6
19045.9
19045.1
19044.1
19043
19041.6
19040.1
19038.4
19036.6
19034.6
19032.5
19030.2
19027.8
19025.3
19022.7
19020
19017.2
19014.2
19011.2
19008.2
19005
19001.8
18998.5
18995.2
18991.9
18988.5
18985.2
18981.8
18978.4
18975
18971.6
18968.3
18965
18961.7
18958.4
18955.2
18952.1
18949
18946
18943
18940.2
18937.4
18934.7
18932.1
18929.6
18927.2
18924.9
18922.8
18920.7
18918.8
18917
18915.3
18913.8
18912.4
18911.1
18910
18909
18908.1
18907.4
18906.8
18906.4
18906.1
18905.9
18280
18280.3
18280.8
18281.4
18282.2
18283.2
18284.3
18285.6
18287.1
18288.8
18290.6
18292.6
18294.8
18297.1
18299.7
18302.5
18305.4
18308.6
18311.9
18315.4
18319.2
18323.1
18327.2
18331.5
18336
18340.6
18345.4
18350.3
18355.4
18360.6
18365.9
18371.4
18377
18382.6
18388.4
18394.2
18400.1
18406.1
18412.1
18418.2
18424.3
18430.4
18436.6
18442.7
18448.9
18455
18461.1
18467.2
18473.3
18479.2
18485.2
18491
18496.8
18502.5
18508.1
18513.6
18518.9
18524.2
18529.3
18534.3
18539.1
18543.8
18548.3
18552.6
18556.8
18560.8
18564.7
18568.3
18571.7
18575
18578.1
18580.9
18583.5
18586
18588.2
18590.2
18592
18593.6
18595
18596.2
18597.1
18597.9
18598.4
18598.7
18598.8
18598.7
18598.4
18598
18597.3
18596.4
18595.3
18594.1
18592.7
18591.1
18589.3
18587.4
18585.3
18583.1
18580.8
18578.3
18575.7
18573
18570.1
18567.2
18564.2
18561
18557.9
18554.6
18551.3
18547.9
18544.5
18541.1
18537.6
18534.1
18530.6
18527.1
18523.6
18520.1
18516.7
18513.2
18509.8
18506.5
18503.2
18500
18496.8
18493.7
18490.6
18487.7
18484.8
18482.1
18479.4
18476.9
18474.4
18472.1
18469.8
18467.7
18465.8
18463.9
18462.2
18460.6
18459.2
18457.9
18456.7
18455.7
18454.8
18454.1
18453.5
18453
18452.7
18452.6
17824.8
17825.1
17825.6
17826.3
17827.2
17828.2
17829.4
17830.7
17832.3
17834
17835.8
17837.8
17840
17842.4
17845
17847.8
17850.8
17854
17857.4
17861
17864.8
17868.9
17873.1
17877.5
17882
17886.8
17891.7
17896.7
17901.9
17907.3
17912.8
17918.3
17924.1
17929.9
17935.8
17941.8
17947.8
17953.9
17960.1
17966.3
17972.6
17978.9
17985.2
17991.5
17997.8
18004.1
18010.4
18016.6
18022.8
18028.9
18035
18041
18046.9
18052.7
18058.4
18064.1
18069.5
18074.9
18080.1
18085.2
18090.2
18094.9
18099.6
18104
18108.3
18112.4
18116.3
18120
18123.5
18126.8
18129.9
18132.8
18135.5
18137.9
18140.2
18142.2
18144
18145.6
18147
18148.2
18149.1
18149.8
18150.3
18150.6
18150.7
18150.6
18150.2
18149.7
18148.9
18148
18146.9
18145.5
18144
18142.4
18140.5
18138.5
18136.3
18134
18131.6
18129
18126.3
18123.4
18120.5
18117.4
18114.2
18111
18107.7
18104.3
18100.9
18097.4
18093.8
18090.2
18086.6
18083
18079.4
18075.8
18072.2
18068.6
18065
18061.4
18057.9
18054.5
18051.1
18047.7
18044.4
18041.2
18038.1
18035.1
18032.1
18029.3
18026.5
18023.9
18021.4
18019
18016.7
18014.5
18012.5
18010.6
18008.8
18007.2
18005.7
18004.4
18003.2
18002.1
18001.2
18000.4
17999.8
17999.4
17999.1
17998.9
17369
17369.3
17369.9
17370.6
17371.6
17372.7
17374
17375.4
17377
17378.8
17380.6
17382.7
17384.9
17387.3
17389.9
17392.7
17395.8
17399
17402.5
17406.2
17410.1
17414.2
17418.6
17423.1
17427.8
17432.6
17437.7
17442.9
17448.2
17453.7
17459.3
17465.1
17471
17476.9
17483
17489.2
17495.4
17501.7
17508
17514.4
17520.9
17527.3
17533.8
17540.3
17546.8
17553.2
17559.7
17566.1
17572.4
17578.7
17584.9
17591.1
17597.2
17603.1
17609
17614.8
17620.4
17625.9
17631.3
17636.5
17641.5
17646.4
17651.2
17655.7
17660.1
17664.2
17668.2
17672
17675.6
17679
17682.1
17685.1
17687.8
17690.3
17692.6
17694.6
17696.5
17698.1
17699.4
17700.6
17701.5
17702.2
17702.7
17702.9
17703
17702.8
17702.4
17701.8
17701
17700
17698.7
17697.3
17695.7
17694
17692
17689.9
17687.6
17685.2
17682.6
17679.9
17677
17674.1
17671
17667.8
17664.5
17661.1
17657.6
17654.1
17650.5
17646.9
17643.2
17639.5
17635.7
17632
17628.2
17624.4
17620.7
17616.9
17613.2
17609.6
17605.9
17602.3
17598.8
17595.4
17592
17588.7
17585.4
17582.3
17579.2
17576.3
17573.5
17570.7
17568.1
17565.7
17563.3
17561.1
17559
17557
17555.2
17553.5
17552
17550.6
17549.4
17548.3
17547.3
17546.6
17545.9
17545.5
17545.1
17545
16912.6
16912.9
16913.6
16914.4
16915.5
16916.8
16918.2
16919.7
16921.4
16923.2
16925.1
16927.1
16929.3
16931.7
16934.4
16937.2
16940.3
16943.6
16947.2
16951
16955
16959.2
16963.7
16968.3
16973.1
16978.2
16983.4
16988.7
16994.2
16999.9
17005.7
17011.6
17017.7
17023.8
17030.1
17036.4
17042.8
17049.3
17055.8
17062.4
17069.1
17075.7
17082.4
17089.1
17095.7
17102.4
17109
17115.6
17122.1
17128.6
17135
17141.4
17147.6
17153.8
17159.8
17165.7
17171.5
17177.2
17182.7
17188
17193.2
17198.2
17203.1
17207.7
17212.2
17216.5
17220.6
17224.4
17228.1
17231.5
17234.7
17237.7
17240.5
17243.1
17245.4
17247.4
17249.3
17250.9
17252.3
17253.4
17254.3
17255
17255.4
17255.6
17255.6
17255.4
17254.9
17254.3
17253.4
17252.3
17251
17249.5
17247.8
17245.9
17243.8
17241.6
17239.2
17236.6
17233.9
17231.1
17228.1
17224.9
17221.7
17218.3
17214.9
17211.4
17207.7
17204
17200.3
17196.5
17192.6
17188.7
17184.8
17180.9
17177
17173.1
17169.2
17165.3
17161.4
17157.6
17153.8
17150.1
17146.4
17142.9
17139.3
17135.9
17132.6
17129.3
17126.1
17123.1
17120.2
17117.4
17114.7
17112.1
17109.6
17107.3
17105.2
17103.2
17101.3
17099.5
17098
17096.5
17095.3
17094.1
17093.2
17092.4
17091.7
17091.2
17090.9
17090.8
16455.5
16455.9
16456.5
16457.5
16458.7
16460.2
16461.9
16463.6
16465.4
16467.2
16469.1
16471.1
16473.3
16475.7
16478.3
16481.2
16484.3
16487.7
16491.4
16495.3
16499.4
16503.8
16508.4
16513.2
16518.2
16523.3
16528.7
16534.2
16539.9
16545.8
16551.8
16557.9
16564.1
16570.5
16576.9
16583.5
16590.1
16596.8
16603.6
16610.4
16617.2
16624.1
16631
16637.9
16644.7
16651.6
16658.4
16665.2
16672
16678.7
16685.3
16691.8
16698.2
16704.6
16710.8
16716.9
16722.9
16728.7
16734.3
16739.8
16745.2
16750.3
16755.3
16760.1
16764.7
16769.1
16773.3
16777.2
16781
16784.5
16787.8
16790.8
16793.7
16796.2
16798.6
16800.7
16802.5
16804.2
16805.5
16806.7
16807.5
16808.2
16808.6
16808.8
16808.7
16808.4
16807.9
16807.1
16806.2
16805
16803.6
16802
16800.2
16798.2
16796
16793.6
16791
16788.3
16785.5
16782.5
16779.3
16776
16772.6
16769.1
16765.5
16761.7
16757.9
16754.1
16750.1
16746.2
16742.1
16738.1
16734
16729.9
16725.8
16721.7
16717.6
16713.6
16709.5
16705.6
16701.6
16697.8
16693.9
16690.2
16686.6
16683
16679.5
16676.1
16672.9
16669.7
16666.7
16663.7
16660.9
16658.3
16655.7
16653.4
16651.1
16649
16647.1
16645.3
16643.6
16642.2
16640.9
16639.7
16638.7
16637.9
16637.2
16636.7
16636.4
16636.2
15997.7
15998.2
15998.8
15999.8
16001.2
16003.1
16005.1
16007.1
16009
16010.9
16012.7
16014.6
16016.7
16019.1
16021.7
16024.6
16027.8
16031.3
16035.1
16039.1
16043.4
16047.9
16052.7
16057.6
16062.8
16068.2
16073.7
16079.5
16085.4
16091.4
16097.6
16104
16110.4
16117
16123.7
16130.4
16137.3
16144.2
16151.2
16158.2
16165.3
16172.4
16179.5
16186.6
16193.8
16200.9
16207.9
16214.9
16221.9
16228.8
16235.7
16242.4
16249.1
16255.6
16262
16268.3
16274.5
16280.5
16286.3
16292
16297.5
16302.8
16307.9
16312.9
16317.6
16322.1
16326.4
16330.4
16334.3
16337.9
16341.2
16344.3
16347.2
16349.9
16352.2
16354.4
16356.2
16357.9
16359.2
16360.3
16361.2
16361.8
16362.2
16362.3
16362.2
16361.8
16361.2
16360.4
16359.3
16358
16356.5
16354.8
16352.9
16350.8
16348.4
16345.9
16343.2
16340.3
16337.3
16334.1
16330.8
16327.3
16323.7
16320
16316.2
16312.3
16308.3
16304.2
16300.1
16295.9
16291.7
16287.4
16283.1
16278.9
16274.6
16270.3
16266
16261.8
16257.6
16253.4
16249.3
16245.3
16241.3
16237.4
16233.6
16229.9
16226.3
16222.7
16219.3
16216.1
16212.9
16209.9
16207
16204.2
16201.6
16199.1
16196.8
16194.6
16192.6
16190.7
16189
16187.5
16186.1
16184.9
16183.9
16183.1
16182.4
16181.9
16181.5
16181.3
15539.3
15539.8
15540.4
15541.5
15542.9
15545.7
15547.9
15550.3
15552.4
15554.2
15555.9
15557.6
15559.6
15561.9
15564.5
15567.5
15570.7
15574.3
15578.2
15582.4
15586.9
15591.6
15596.5
15601.7
15607.1
15612.7
15618.4
15624.4
15630.5
15636.8
15643.2
15649.8
15656.4
15663.3
15670.2
15677.2
15684.3
15691.5
15698.7
15706
15713.3
15720.7
15728.1
15735.4
15742.8
15750.2
15757.5
15764.8
15772
15779.1
15786.2
15793.2
15800.1
15806.8
15813.5
15820
15826.3
15832.5
15838.6
15844.4
15850.1
15855.6
15860.9
15866
15870.8
15875.5
15879.9
15884.1
15888
15891.7
15895.1
15898.3
15901.2
15903.9
15906.3
15908.5
15910.4
15912
15913.4
15914.5
15915.3
15915.9
15916.3
15916.3
15916.1
15915.7
15915
15914.1
15912.9
15911.5
15909.9
15908.1
15906
15903.7
15901.2
15898.6
15895.7
15892.6
15889.4
15886.1
15882.5
15878.9
15875.1
15871.2
15867.1
15863
15858.8
15854.5
15850.1
15845.7
15841.3
15836.8
15832.3
15827.8
15823.3
15818.8
15814.4
15809.9
15805.5
15801.2
15796.9
15792.7
15788.5
15784.4
15780.5
15776.6
15772.8
15769.2
15765.6
15762.2
15758.9
15755.7
15752.7
15749.9
15747.1
15744.6
15742.1
15739.9
15737.8
15735.9
15734.1
15732.5
15731.1
15729.9
15728.8
15727.9
15727.2
15726.7
15726.3
15726.1
15080.1
15080.5
15081.2
15082.3
15084.2
15086.8
15089.7
15092.7
15095
15096.8
15098.3
15099.8
15101.7
15103.9
15106.5
15109.6
15113
15116.8
15120.9
15125.2
15129.9
15134.8
15140
15145.3
15150.9
15156.8
15162.8
15168.9
15175.3
15181.8
15188.5
15195.3
15202.3
15209.3
15216.5
15223.8
15231.2
15238.6
15246.1
15253.7
15261.3
15268.9
15276.6
15284.2
15291.9
15299.5
15307.1
15314.7
15322.2
15329.6
15336.9
15344.2
15351.3
15358.3
15365.2
15371.9
15378.5
15384.9
15391.2
15397.2
15403.1
15408.8
15414.2
15419.5
15424.5
15429.3
15433.8
15438.1
15442.2
15446
15449.5
15452.7
15455.7
15458.5
15460.9
15463.1
15465
15466.7
15468
15469.1
15469.9
15470.5
15470.8
15470.8
15470.5
15470
15469.2
15468.2
15466.9
15465.4
15463.7
15461.7
15459.5
15457
15454.4
15451.5
15448.5
15445.3
15441.9
15438.3
15434.5
15430.7
15426.6
15422.5
15418.2
15413.9
15409.4
15404.9
15400.3
15395.7
15391
15386.3
15381.5
15376.8
15372
15367.3
15362.6
15358
15353.4
15348.8
15344.3
15339.9
15335.6
15331.3
15327.1
15323.1
15319.2
15315.3
15311.6
15308.1
15304.6
15301.4
15298.2
15295.2
15292.4
15289.7
15287.2
15284.9
15282.7
15280.7
15278.9
15277.2
15275.7
15274.5
15273.4
15272.4
15271.7
15271.1
15270.8
15270.6
14619.4
14619.6
14620
14620.6
14622.2
14625.1
14628.9
14632.8
14635.9
14638
14639.4
14640.8
14642.5
14644.8
14647.6
14650.9
14654.5
14658.5
14662.9
14667.5
14672.4
14677.6
14683
14688.6
14694.4
14700.5
14706.7
14713.2
14719.8
14726.6
14733.5
14740.6
14747.8
14755.2
14762.6
14770.2
14777.9
14785.6
14793.4
14801.3
14809.2
14817.1
14825.1
14833
14841
14848.9
14856.8
14864.7
14872.5
14880.2
14887.8
14895.3
14902.7
14910
14917.1
14924.1
14931
14937.6
14944.1
14950.4
14956.5
14962.3
14968
14973.4
14978.6
14983.5
14988.2
14992.6
14996.8
15000.7
15004.3
15007.7
15010.7
15013.5
15016
15018.2
15020.2
15021.8
15023.2
15024.2
15025
15025.5
15025.8
15025.7
15025.4
15024.8
15023.9
15022.8
15021.4
15019.7
15017.9
15015.7
15013.3
15010.7
15007.9
15004.9
15001.6
14998.2
14994.6
14990.8
14986.8
14982.7
14978.4
14974
14969.5
14964.9
14960.2
14955.4
14950.5
14945.6
14940.7
14935.7
14930.7
14925.7
14920.7
14915.8
14910.8
14905.9
14901.1
14896.3
14891.6
14887
14882.4
14878
14873.6
14869.4
14865.3
14861.3
14857.4
14853.7
14850.1
14846.7
14843.4
14840.3
14837.3
14834.6
14831.9
14829.5
14827.2
14825.2
14823.3
14821.6
14820
14818.7
14817.6
14816.6
14815.8
14815.3
14814.9
14814.7
14156.5
14156.2
14155.2
14154.5
14155.3
14158.2
14163.2
14168.7
14173.5
14176.7
14178.6
14180
14181.8
14184.3
14187.6
14191.3
14195.3
14199.6
14204.3
14209.2
14214.4
14219.8
14225.5
14231.4
14237.5
14243.8
14250.4
14257.1
14264
14271
14278.2
14285.6
14293.1
14300.8
14308.6
14316.4
14324.4
14332.5
14340.6
14348.8
14357
14365.3
14373.6
14381.9
14390.1
14398.4
14406.6
14414.8
14422.9
14430.9
14438.8
14446.7
14454.4
14461.9
14469.4
14476.6
14483.7
14490.7
14497.4
14503.9
14510.2
14516.3
14522.2
14527.8
14533.1
14538.2
14543.1
14547.6
14551.9
14555.9
14559.6
14563.1
14566.2
14569.1
14571.6
14573.9
14575.8
14577.5
14578.8
14579.9
14580.6
14581.1
14581.3
14581.1
14580.7
14580
14579.1
14577.8
14576.3
14574.5
14572.5
14570.2
14567.6
14564.9
14561.8
14558.6
14555.1
14551.5
14547.6
14543.6
14539.4
14535
14530.4
14525.8
14521
14516.1
14511.1
14506
14500.9
14495.7
14490.5
14485.2
14479.9
14474.7
14469.4
14464.2
14459
14453.8
14448.7
14443.7
14438.7
14433.9
14429.1
14424.4
14419.9
14415.4
14411.1
14407
14402.9
14399
14395.3
14391.7
14388.3
14385
14382
14379.1
14376.3
14373.8
14371.5
14369.3
14367.3
14365.5
14364
14362.6
14361.4
14360.4
14359.6
14359
14358.6
14358.4
13690.9
13690.2
13687.8
13685.2
13684.9
13687.8
13693.8
13701.4
13708.3
13713
13715.6
13717.2
13719.2
13722.3
13726.3
13730.7
13735.3
13740.1
13745.1
13750.4
13755.9
13761.7
13767.6
13773.8
13780.2
13786.8
13793.6
13800.6
13807.8
13815.1
13822.7
13830.4
13838.2
13846.2
13854.3
13862.5
13870.8
13879.2
13887.7
13896.2
13904.8
13913.4
13922
13930.7
13939.3
13947.9
13956.5
13965
13973.4
13981.8
13990.1
13998.2
14006.3
14014.1
14021.9
14029.4
14036.8
14044
14051
14057.8
14064.4
14070.7
14076.8
14082.6
14088.1
14093.4
14098.4
14103.1
14107.5
14111.7
14115.5
14119
14122.2
14125.2
14127.7
14130
14132
14133.7
14135
14136
14136.8
14137.2
14137.3
14137.1
14136.6
14135.8
14134.7
14133.4
14131.7
14129.8
14127.6
14125.1
14122.4
14119.4
14116.2
14112.7
14109
14105.1
14101
14096.7
14092.2
14087.5
14082.7
14077.8
14072.7
14067.5
14062.2
14056.8
14051.3
14045.8
14040.3
14034.7
14029.1
14023.6
14018
14012.5
14007
14001.6
13996.2
13990.9
13985.7
13980.6
13975.6
13970.7
13965.9
13961.3
13956.7
13952.4
13948.1
13944.1
13940.2
13936.4
13932.8
13929.5
13926.2
13923.2
13920.4
13917.7
13915.3
13913.1
13911
13909.2
13907.5
13906.1
13904.8
13903.8
13903
13902.4
13901.9
13901.7
13227
13225.4
13221.1
13217.3
13216.2
13219
13225.5
13234.1
13242
13247.6
13250.8
13252.8
13255.2
13259
13263.9
13269.3
13274.7
13280
13285.5
13291.1
13297
13303
13309.3
13315.8
13322.5
13329.4
13336.5
13343.8
13351.3
13358.9
13366.8
13374.8
13383
13391.3
13399.7
13408.3
13417
13425.7
13434.6
13443.5
13452.4
13461.4
13470.5
13479.5
13488.5
13497.5
13506.4
13515.3
13524.1
13532.9
13541.5
13550
13558.4
13566.6
13574.7
13582.6
13590.3
13597.8
13605.1
13612.1
13618.9
13625.5
13631.8
13637.8
13643.6
13649.1
13654.3
13659.1
13663.7
13668
13671.9
13675.5
13678.8
13681.8
13684.4
13686.8
13688.8
13690.4
13691.8
13692.8
13693.4
13693.8
13693.9
13693.6
13693
13692.1
13690.9
13689.4
13687.6
13685.5
13683.1
13680.5
13677.6
13674.4
13670.9
13667.2
13663.3
13659.1
13654.7
13650.2
13645.4
13640.4
13635.3
13630
13624.6
13619
13613.4
13607.6
13601.8
13596
13590.1
13584.2
13578.3
13572.4
13566.6
13560.7
13554.9
13549.2
13543.6
13538
13532.5
13527.1
13521.9
13516.7
13511.7
13506.8
13502.1
13497.5
13493
13488.8
13484.7
13480.8
13477.1
13473.5
13470.2
13467
13464.1
13461.3
13458.8
13456.4
13454.3
13452.4
13450.7
13449.2
13447.9
13446.8
13446
13445.3
13444.9
13444.7
12766.6
12764.8
12760.5
12756.2
12754.4
12756.4
12762.2
12769.9
12777
12782
12785.1
12787.4
12790.4
12795
12801
12807.4
12813.6
12819.5
12825.4
12831.5
12837.7
12844
12850.6
12857.4
12864.4
12871.6
12879
12886.6
12894.4
12902.4
12910.6
12918.9
12927.5
12936.1
12945
12953.9
12963
12972.1
12981.4
12990.7
13000
13009.4
13018.9
13028.3
13037.7
13047.1
13056.5
13065.8
13075
13084.1
13093.1
13102
13110.8
13119.4
13127.8
13136
13144.1
13151.9
13159.5
13166.9
13174
13180.8
13187.4
13193.6
13199.6
13205.3
13210.6
13215.7
13220.4
13224.8
13228.9
13232.6
13236
13239
13241.7
13244.1
13246.1
13247.8
13249.1
13250.1
13250.7
13251
13251
13250.6
13249.9
13248.9
13247.6
13245.9
13244
13241.7
13239.2
13236.3
13233.2
13229.8
13226.1
13222.2
13218
13213.5
13208.9
13204
13198.9
13193.6
13188.1
13182.4
13176.7
13170.7
13164.7
13158.6
13152.5
13146.3
13140
13133.8
13127.5
13121.3
13115
13108.9
13102.8
13096.7
13090.8
13084.9
13079.1
13073.4
13067.9
13062.5
13057.2
13052.1
13047.1
13042.3
13037.6
13033.2
13028.9
13024.8
13020.9
13017.2
13013.7
13010.4
13007.3
13004.5
13001.8
12999.4
12997.2
12995.2
12993.4
12991.8
12990.5
12989.4
12988.5
12987.9
12987.4
12987.2
12309.8
12309
12305.4
12301.4
12299.4
12300.4
12304.2
12309.5
12314.2
12317.6
12319.9
12322.2
12325.9
12331.4
12338.3
12345.6
12352.4
12358.8
12365.1
12371.5
12378
12384.6
12391.5
12398.5
12405.8
12413.3
12421
12429
12437.1
12445.5
12454
12462.8
12471.7
12480.7
12489.9
12499.3
12508.7
12518.3
12528
12537.7
12547.5
12557.4
12567.2
12577.1
12586.9
12596.8
12606.6
12616.3
12626
12635.5
12645
12654.3
12663.4
12672.4
12681.2
12689.9
12698.3
12706.4
12714.4
12722
12729.4
12736.6
12743.4
12749.9
12756.1
12762
12767.6
12772.8
12777.7
12782.3
12786.5
12790.3
12793.8
12796.9
12799.6
12802
12804.1
12805.7
12807
12808
12808.6
12808.8
12808.7
12808.3
12807.5
12806.3
12804.9
12803.1
12800.9
12798.5
12795.8
12792.7
12789.3
12785.7
12781.8
12777.6
12773.1
12768.3
12763.4
12758.1
12752.7
12747
12741.2
12735.2
12729
12722.7
12716.3
12709.8
12703.2
12696.6
12689.9
12683.3
12676.6
12670
12663.4
12656.9
12650.4
12644.1
12637.8
12631.6
12625.5
12619.5
12613.7
12608
12602.4
12597
12591.8
12586.7
12581.9
12577.2
12572.7
12568.4
12564.4
12560.5
12556.8
12553.4
12550.2
12547.2
12544.5
12541.9
12539.6
12537.5
12535.7
12534.1
12532.7
12531.6
12530.7
12530
12529.5
12529.2
11854.2
11854.4
11851.8
11849.1
11847.6
11847.4
11848.8
11851
11853
11854.6
11856.1
11858.6
11863
11869.2
11876.7
11884.3
11891.4
11898.1
11904.6
11911.2
11917.9
11924.8
11931.9
11939.3
11946.9
11954.7
11962.7
11971
11979.5
11988.2
11997.1
12006.2
12015.5
12025
12034.6
12044.4
12054.3
12064.3
12074.4
12084.6
12094.9
12105.2
12115.5
12125.9
12136.2
12146.5
12156.8
12167
12177.1
12187.1
12197
12206.8
12216.4
12225.8
12235
12244
12252.8
12261.4
12269.7
12277.7
12285.4
12292.9
12300
12306.8
12313.3
12319.4
12325.2
12330.6
12335.7
12340.3
12344.7
12348.6
12352.2
12355.4
12358.2
12360.6
12362.6
12364.3
12365.6
12366.5
12367.1
12367.2
12367
12366.5
12365.6
12364.3
12362.7
12360.7
12358.4
12355.8
12352.9
12349.6
12346
12342.1
12337.9
12333.4
12328.6
12323.6
12318.3
12312.7
12306.9
12300.8
12294.6
12288.1
12281.5
12274.8
12267.9
12261
12254
12246.9
12239.9
12232.8
12225.7
12218.7
12211.7
12204.8
12198
12191.2
12184.6
12178
12171.6
12165.3
12159.2
12153.2
12147.3
12141.6
12136.2
12130.9
12125.7
12120.8
12116.1
12111.7
12107.4
12103.4
12099.6
12096
12092.6
12089.5
12086.6
12084
12081.6
12079.5
12077.6
12075.9
12074.5
12073.3
12072.3
12071.6
12071.1
12070.9
11395.6
11395.6
11394.5
11393.7
11393
11392.2
11391.8
11392
11392.3
11392.9
11394.3
11397.3
11402.1
11408.7
11416.2
11423.6
11430.5
11437.2
11443.8
11450.5
11457.5
11464.6
11471.9
11479.6
11487.4
11495.5
11503.9
11512.5
11521.4
11530.5
11539.8
11549.3
11559
11568.9
11579
11589.2
11599.6
11610.1
11620.7
11631.4
11642.2
11653
11663.8
11674.7
11685.5
11696.3
11707.1
11717.8
11728.4
11738.9
11749.3
11759.5
11769.6
11779.5
11789.2
11798.6
11807.8
11816.8
11825.5
11833.9
11841.9
11849.7
11857.1
11864.2
11871
11877.4
11883.4
11889
11894.2
11899.1
11903.5
11907.6
11911.3
11914.5
11917.4
11919.9
11921.9
11923.6
11924.8
11925.7
11926.2
11926.3
11926
11925.3
11924.3
11922.9
11921.1
11919
11916.5
11913.7
11910.5
11907
11903.2
11899
11894.5
11889.8
11884.7
11879.3
11873.6
11867.7
11861.5
11855
11848.3
11841.4
11834.3
11827.1
11819.8
11812.3
11804.9
11797.3
11789.8
11782.3
11774.8
11767.3
11759.9
11752.6
11745.3
11738.2
11731.2
11724.2
11717.5
11710.8
11704.3
11698
11691.9
11685.9
11680.1
11674.6
11669.2
11664.1
11659.1
11654.4
11650
11645.8
11641.8
11638.1
11634.6
11631.3
11628.4
11625.6
11623.1
11620.9
11618.9
11617.2
11615.7
11614.5
11613.5
11612.8
11612.3
11612
10933.4
10932.9
10933.2
10933.5
10933.3
10932.5
10931.7
10931.3
10931.4
10932.1
10934.1
10937.5
10942.5
10949.2
10956.1
10962.9
10969.4
10976
10982.6
10989.4
10996.5
11003.8
11011.4
11019.3
11027.4
11035.9
11044.6
11053.6
11062.8
11072.3
11082
11092
11102.1
11112.5
11123.1
11133.8
11144.7
11155.7
11166.8
11178
11189.3
11200.6
11212
11223.4
11234.8
11246.2
11257.5
11268.7
11279.9
11290.9
11301.8
11312.6
11323.1
11333.5
11343.7
11353.6
11363.3
11372.7
11381.8
11390.6
11399
11407.1
11414.9
11422.3
11429.3
11436
11442.2
11448.1
11453.5
11458.5
11463.1
11467.3
11471.1
11474.4
11477.3
11479.8
11481.9
11483.5
11484.8
11485.6
11486
11486
11485.6
11484.8
11483.7
11482.1
11480.2
11477.9
11475.2
11472.1
11468.7
11465
11460.9
11456.5
11451.7
11446.6
11441.2
11435.4
11429.4
11423.1
11416.4
11409.5
11402.4
11395
11387.4
11379.6
11371.7
11363.8
11355.8
11347.8
11339.7
11331.7
11323.7
11315.8
11307.9
11300.2
11292.5
11284.9
11277.5
11270.2
11263
11256
11249.2
11242.5
11236
11229.8
11223.7
11217.8
11212.2
11206.8
11201.7
11196.8
11192.1
11187.7
11183.6
11179.7
11176
11172.7
11169.6
11166.7
11164.2
11161.9
11159.8
11158