/*--------------------------------*- C++ -*----------------------------------*\
| =========                 |                                                 |
| \\      /  F ield         | OpenFOAM: The Open Source CFD Toolbox           |
|  \\    /   O peration     | Version:  v2006                                 |
|   \\  /    A nd           | Website:  www.openfoam.com                      |
|    \\/     M anipulation  |                                                 |
\*---------------------------------------------------------------------------*/
FoamFile
{
    version     2.0;
    format      ascii;
    class       volScalarField;
    location    "16.3";
    object      p_rgh;
}
// * * * * * * * * * * * * * * * * * * * * * * * * * * * * * * * * * * * * * //

dimensions      [1 -1 -2 0 0 0 0];


internalField   nonuniform List<scalar> 
50000
(
2510.76
2510.96
2511.31
2511.82
2512.48
2513.32
2514.33
2515.52
2516.88
2518.42
2520.13
2522.01
2524.08
2526.31
2528.72
2531.31
2534.07
2536.99
2540.09
2543.35
2546.78
2550.37
2554.11
2558.01
2562.05
2566.24
2570.56
2575.01
2579.59
2584.29
2589.1
2594.01
2599.02
2604.12
2609.3
2614.56
2619.88
2625.27
2630.71
2636.19
2641.7
2647.24
2652.79
2658.34
2663.9
2669.44
2674.96
2680.45
2685.91
2691.32
2696.68
2701.99
2707.22
2712.37
2717.45
2722.43
2727.31
2732.08
2736.75
2741.29
2745.7
2749.98
2754.13
2758.13
2761.97
2765.67
2769.2
2772.58
2775.78
2778.81
2781.67
2784.35
2786.84
2789.16
2791.29
2793.24
2794.99
2796.56
2797.94
2799.13
2800.13
2800.95
2801.58
2802.02
2802.28
2802.36
2802.26
2801.99
2801.54
2800.93
2800.15
2799.21
2798.11
2796.86
2795.46
2793.93
2792.25
2790.45
2788.52
2786.47
2784.31
2782.04
2779.66
2777.19
2774.63
2771.99
2769.27
2766.49
2763.65
2760.77
2757.84
2754.89
2751.9
2748.91
2745.89
2742.88
2739.87
2736.86
2733.87
2730.9
2727.95
2725.04
2722.17
2719.35
2716.58
2713.86
2711.21
2708.63
2706.12
2703.7
2701.35
2699.1
2696.94
2694.87
2692.91
2691.06
2689.31
2687.67
2686.15
2684.75
2683.47
2682.31
2681.27
2680.36
2679.58
2678.92
2678.4
2678.01
2677.74
2677.61
2510.35
2510.55
2510.9
2511.41
2512.08
2512.92
2513.93
2515.12
2516.49
2518.03
2519.74
2521.63
2523.7
2525.94
2528.35
2530.94
2533.71
2536.64
2539.75
2543.02
2546.46
2550.05
2553.81
2557.71
2561.77
2565.97
2570.3
2574.77
2579.36
2584.07
2588.9
2593.83
2598.85
2603.97
2609.16
2614.44
2619.77
2625.17
2630.61
2636.09
2641.61
2647.16
2652.73
2658.3
2663.88
2669.44
2674.99
2680.51
2685.99
2691.42
2696.8
2702.12
2707.37
2712.54
2717.62
2722.62
2727.51
2732.3
2736.97
2741.52
2745.95
2750.24
2754.4
2758.4
2762.26
2765.97
2769.51
2772.89
2776.1
2779.14
2782
2784.68
2787.19
2789.51
2791.64
2793.59
2795.34
2796.91
2798.29
2799.48
2800.49
2801.3
2801.93
2802.37
2802.62
2802.7
2802.59
2802.31
2801.86
2801.23
2800.45
2799.5
2798.39
2797.13
2795.72
2794.17
2792.49
2790.67
2788.73
2786.67
2784.5
2782.21
2779.82
2777.34
2774.77
2772.11
2769.38
2766.59
2763.73
2760.83
2757.89
2754.91
2751.92
2748.91
2745.89
2742.86
2739.84
2736.82
2733.82
2730.83
2727.88
2724.96
2722.08
2719.25
2716.47
2713.74
2711.08
2708.49
2705.97
2703.54
2701.19
2698.92
2696.75
2694.68
2692.71
2690.85
2689.1
2687.45
2685.93
2684.52
2683.23
2682.06
2681.02
2680.11
2679.32
2678.67
2678.14
2677.75
2677.48
2677.35
2509.55
2509.76
2510.11
2510.63
2511.3
2512.14
2513.16
2514.35
2515.72
2517.26
2518.98
2520.88
2522.96
2525.21
2527.63
2530.23
2533.01
2535.95
2539.07
2542.36
2545.81
2549.43
2553.2
2557.13
2561.21
2565.43
2569.79
2574.29
2578.91
2583.65
2588.5
2593.46
2598.51
2603.66
2608.89
2614.2
2619.57
2625
2630.48
2636.01
2641.57
2647.15
2652.75
2658.35
2663.95
2669.54
2675.11
2680.65
2686.15
2691.62
2697.02
2702.37
2707.65
2712.85
2717.96
2722.98
2727.9
2732.72
2737.42
2741.99
2746.44
2750.76
2754.93
2758.96
2762.84
2766.56
2770.12
2773.51
2776.74
2779.79
2782.66
2785.35
2787.86
2790.19
2792.33
2794.28
2796.04
2797.61
2798.99
2800.18
2801.18
2801.99
2802.61
2803.04
2803.29
2803.36
2803.24
2802.95
2802.48
2801.84
2801.04
2800.07
2798.94
2797.67
2796.24
2794.67
2792.96
2791.12
2789.15
2787.07
2784.86
2782.55
2780.14
2777.63
2775.04
2772.36
2769.62
2766.8
2763.93
2761.02
2758.06
2755.07
2752.05
2749.01
2745.96
2742.91
2739.85
2736.81
2733.77
2730.76
2727.78
2724.84
2721.93
2719.07
2716.26
2713.51
2710.83
2708.22
2705.68
2703.22
2700.85
2698.57
2696.39
2694.3
2692.31
2690.44
2688.67
2687.02
2685.48
2684.07
2682.76
2681.59
2680.54
2679.62
2678.83
2678.17
2677.64
2677.24
2676.98
2676.84
2508.34
2508.55
2508.92
2509.44
2510.12
2510.96
2511.99
2513.18
2514.56
2516.12
2517.85
2519.75
2521.84
2524.1
2526.54
2529.16
2531.95
2534.91
2538.05
2541.36
2544.84
2548.49
2552.29
2556.25
2560.36
2564.62
2569.02
2573.55
2578.21
2582.99
2587.89
2592.89
2597.99
2603.18
2608.46
2613.81
2619.23
2624.71
2630.24
2635.81
2641.41
2647.04
2652.69
2658.34
2663.99
2669.64
2675.26
2680.85
2686.4
2691.91
2697.37
2702.76
2708.08
2713.33
2718.48
2723.54
2728.51
2733.36
2738.09
2742.71
2747.19
2751.54
2755.74
2759.8
2763.71
2767.45
2771.03
2774.45
2777.69
2780.76
2783.65
2786.36
2788.88
2791.22
2793.37
2795.32
2797.09
2798.66
2800.04
2801.23
2802.22
2803.02
2803.64
2804.06
2804.3
2804.35
2804.22
2803.9
2803.42
2802.76
2801.93
2800.94
2799.79
2798.48
2797.02
2795.42
2793.68
2791.8
2789.8
2787.68
2785.44
2783.09
2780.64
2778.1
2775.47
2772.76
2769.97
2767.12
2764.22
2761.26
2758.26
2755.23
2752.17
2749.09
2745.99
2742.9
2739.8
2736.72
2733.65
2730.6
2727.58
2724.6
2721.66
2718.77
2715.92
2713.15
2710.44
2707.79
2705.23
2702.74
2700.35
2698.04
2695.83
2693.72
2691.71
2689.81
2688.02
2686.35
2684.79
2683.34
2682.03
2680.86
2679.81
2678.88
2678.08
2677.42
2676.88
2676.48
2676.21
2676.07
2506.71
2506.94
2507.31
2507.84
2508.53
2509.39
2510.42
2511.63
2513.01
2514.58
2516.32
2518.25
2520.35
2522.62
2525.08
2527.72
2530.53
2533.52
2536.69
2540.03
2543.54
2547.22
2551.06
2555.07
2559.22
2563.53
2567.98
2572.56
2577.27
2582.11
2587.07
2592.13
2597.29
2602.55
2607.89
2613.3
2618.79
2624.33
2629.93
2635.57
2641.24
2646.93
2652.65
2658.36
2664.08
2669.78
2675.47
2681.12
2686.74
2692.31
2697.83
2703.28
2708.66
2713.96
2719.18
2724.29
2729.31
2734.21
2739
2743.66
2748.19
2752.58
2756.83
2760.92
2764.86
2768.64
2772.26
2775.7
2778.98
2782.07
2784.98
2787.71
2790.24
2792.59
2794.75
2796.72
2798.49
2800.06
2801.44
2802.63
2803.61
2804.41
2805.01
2805.42
2805.64
2805.67
2805.52
2805.19
2804.67
2803.99
2803.13
2802.1
2800.91
2799.57
2798.07
2796.43
2794.64
2792.72
2790.68
2788.51
2786.22
2783.82
2781.32
2778.73
2776.05
2773.28
2770.45
2767.55
2764.59
2761.58
2758.53
2755.44
2752.33
2749.19
2746.05
2742.9
2739.75
2736.62
2733.49
2730.39
2727.33
2724.3
2721.31
2718.37
2715.49
2712.67
2709.91
2707.23
2704.62
2702.1
2699.67
2697.33
2695.08
2692.94
2690.91
2688.98
2687.17
2685.47
2683.9
2682.44
2681.12
2679.91
2678.84
2677.9
2677.09
2676.41
2675.87
2675.46
2675.19
2675.05
2504.66
2504.89
2505.28
2505.83
2506.53
2507.4
2508.44
2509.67
2511.07
2512.65
2514.41
2516.35
2518.47
2520.77
2523.24
2525.9
2528.75
2531.77
2534.97
2538.35
2541.9
2545.63
2549.52
2553.58
2557.79
2562.16
2566.67
2571.32
2576.1
2581.01
2586.04
2591.17
2596.41
2601.74
2607.16
2612.66
2618.22
2623.85
2629.53
2635.25
2641
2646.78
2652.57
2658.37
2664.17
2669.96
2675.73
2681.46
2687.16
2692.81
2698.41
2703.93
2709.39
2714.76
2720.05
2725.24
2730.32
2735.29
2740.13
2744.86
2749.44
2753.89
2758.19
2762.33
2766.32
2770.14
2773.8
2777.28
2780.59
2783.71
2786.65
2789.4
2791.96
2794.32
2796.49
2798.47
2800.25
2801.82
2803.2
2804.38
2805.37
2806.15
2806.74
2807.13
2807.33
2807.34
2807.16
2806.8
2806.25
2805.53
2804.63
2803.56
2802.33
2800.94
2799.4
2797.7
2795.86
2793.89
2791.78
2789.55
2787.2
2784.74
2782.18
2779.52
2776.77
2773.95
2771.04
2768.07
2765.05
2761.97
2758.85
2755.7
2752.52
2749.32
2746.1
2742.89
2739.67
2736.47
2733.28
2730.12
2727
2723.91
2720.86
2717.86
2714.92
2712.05
2709.24
2706.51
2703.85
2701.29
2698.81
2696.43
2694.14
2691.97
2689.89
2687.93
2686.09
2684.37
2682.76
2681.28
2679.93
2678.71
2677.62
2676.66
2675.83
2675.15
2674.59
2674.18
2673.9
2673.76
2502.16
2502.4
2502.81
2503.38
2504.11
2505
2506.06
2507.3
2508.72
2510.32
2512.1
2514.06
2516.2
2518.52
2521.03
2523.72
2526.59
2529.65
2532.89
2536.32
2539.92
2543.7
2547.66
2551.78
2556.06
2560.5
2565.09
2569.82
2574.68
2579.68
2584.79
2590.02
2595.35
2600.78
2606.29
2611.88
2617.55
2623.27
2629.05
2634.87
2640.72
2646.6
2652.5
2658.4
2664.3
2670.18
2676.04
2681.88
2687.67
2693.42
2699.1
2704.73
2710.27
2715.73
2721.1
2726.38
2731.54
2736.58
2741.51
2746.3
2750.96
2755.47
2759.83
2764.04
2768.08
2771.96
2775.66
2779.19
2782.53
2785.69
2788.66
2791.44
2794.02
2796.41
2798.6
2800.59
2802.37
2803.95
2805.33
2806.51
2807.48
2808.25
2808.83
2809.2
2809.37
2809.35
2809.14
2808.74
2808.16
2807.39
2806.45
2805.33
2804.05
2802.6
2800.99
2799.24
2797.33
2795.29
2793.11
2790.81
2788.39
2785.86
2783.22
2780.48
2777.65
2774.74
2771.76
2768.71
2765.6
2762.44
2759.24
2756.01
2752.74
2749.46
2746.17
2742.87
2739.58
2736.29
2733.03
2729.8
2726.59
2723.43
2720.31
2717.25
2714.24
2711.3
2708.43
2705.63
2702.92
2700.3
2697.77
2695.34
2693.01
2690.78
2688.67
2686.67
2684.79
2683.03
2681.39
2679.88
2678.5
2677.26
2676.14
2675.16
2674.32
2673.62
2673.06
2672.64
2672.35
2672.21
2499.2
2499.46
2499.89
2500.49
2501.25
2502.17
2503.26
2504.52
2505.97
2507.6
2509.4
2511.38
2513.55
2515.89
2518.42
2521.14
2524.05
2527.15
2530.44
2533.92
2537.59
2541.44
2545.46
2549.66
2554.03
2558.55
2563.23
2568.05
2573.02
2578.11
2583.33
2588.66
2594.1
2599.64
2605.26
2610.97
2616.75
2622.59
2628.48
2634.42
2640.39
2646.39
2652.4
2658.42
2664.43
2670.44
2676.42
2682.37
2688.27
2694.13
2699.93
2705.66
2711.31
2716.88
2722.35
2727.72
2732.97
2738.11
2743.13
2748
2752.74
2757.33
2761.77
2766.04
2770.15
2774.09
2777.85
2781.43
2784.82
2788.02
2791.03
2793.84
2796.46
2798.87
2801.07
2803.07
2804.87
2806.45
2807.83
2809
2809.97
2810.73
2811.28
2811.63
2811.77
2811.72
2811.47
2811.03
2810.4
2809.58
2808.58
2807.41
2806.06
2804.55
2802.87
2801.04
2799.06
2796.94
2794.68
2792.29
2789.79
2787.16
2784.43
2781.61
2778.68
2775.68
2772.6
2769.45
2766.25
2762.99
2759.69
2756.36
2753
2749.62
2746.23
2742.84
2739.45
2736.08
2732.72
2729.4
2726.11
2722.86
2719.66
2716.51
2713.43
2710.41
2707.47
2704.61
2701.83
2699.14
2696.55
2694.05
2691.67
2689.39
2687.22
2685.18
2683.25
2681.45
2679.78
2678.23
2676.82
2675.55
2674.41
2673.41
2672.55
2671.83
2671.25
2670.82
2670.53
2670.39
2495.75
2496.02
2496.48
2497.13
2497.93
2498.9
2500.03
2501.33
2502.81
2504.46
2506.29
2508.3
2510.49
2512.86
2515.42
2518.17
2521.12
2524.27
2527.61
2531.16
2534.89
2538.82
2542.93
2547.21
2551.67
2556.3
2561.08
2566.02
2571.09
2576.3
2581.64
2587.1
2592.66
2598.33
2604.08
2609.92
2615.83
2621.8
2627.83
2633.9
2640.01
2646.14
2652.29
2658.45
2664.6
2670.73
2676.85
2682.93
2688.97
2694.95
2700.88
2706.73
2712.51
2718.19
2723.78
2729.26
2734.63
2739.88
2744.99
2749.97
2754.8
2759.48
2764
2768.35
2772.54
2776.55
2780.37
2784.01
2787.46
2790.71
2793.76
2796.61
2799.26
2801.7
2803.92
2805.94
2807.75
2809.34
2810.72
2811.88
2812.83
2813.57
2814.1
2814.42
2814.54
2814.45
2814.15
2813.66
2812.98
2812.1
2811.04
2809.8
2808.38
2806.79
2805.04
2803.12
2801.05
2798.84
2796.49
2794
2791.4
2788.67
2785.84
2782.9
2779.87
2776.76
2773.57
2770.31
2766.99
2763.62
2760.21
2756.76
2753.29
2749.8
2746.3
2742.8
2739.3
2735.82
2732.37
2728.94
2725.55
2722.2
2718.9
2715.66
2712.49
2709.39
2706.36
2703.41
2700.56
2697.79
2695.13
2692.57
2690.12
2687.78
2685.56
2683.46
2681.48
2679.63
2677.91
2676.33
2674.88
2673.57
2672.41
2671.38
2670.5
2669.76
2669.17
2668.73
2668.43
2668.29
2491.77
2492.06
2492.56
2493.27
2494.14
2495.17
2496.36
2497.72
2499.24
2500.93
2502.78
2504.81
2507.02
2509.41
2512
2514.79
2517.78
2520.98
2524.39
2528
2531.82
2535.83
2540.04
2544.43
2549
2553.74
2558.64
2563.7
2568.91
2574.25
2579.73
2585.32
2591.03
2596.84
2602.74
2608.72
2614.78
2620.91
2627.09
2633.32
2639.58
2645.87
2652.17
2658.48
2664.78
2671.07
2677.34
2683.57
2689.76
2695.89
2701.96
2707.95
2713.87
2719.69
2725.41
2731.02
2736.51
2741.88
2747.11
2752.2
2757.14
2761.92
2766.54
2770.98
2775.25
2779.34
2783.24
2786.95
2790.46
2793.76
2796.87
2799.76
2802.44
2804.91
2807.16
2809.2
2811.02
2812.61
2813.99
2815.15
2816.09
2816.81
2817.31
2817.6
2817.68
2817.54
2817.2
2816.66
2815.91
2814.97
2813.84
2812.52
2811.02
2809.34
2807.49
2805.48
2803.32
2801
2798.54
2795.94
2793.22
2790.38
2787.42
2784.37
2781.21
2777.97
2774.66
2771.27
2767.82
2764.33
2760.78
2757.21
2753.61
2749.99
2746.37
2742.74
2739.12
2735.52
2731.95
2728.4
2724.9
2721.44
2718.03
2714.69
2711.41
2708.21
2705.09
2702.05
2699.11
2696.26
2693.52
2690.88
2688.35
2685.95
2683.66
2681.5
2679.46
2677.56
2675.8
2674.17
2672.68
2671.33
2670.13
2669.08
2668.17
2667.42
2666.81
2666.36
2666.05
2665.9
2487.24
2487.55
2488.1
2488.88
2489.84
2490.97
2492.25
2493.68
2495.26
2496.98
2498.86
2500.91
2503.13
2505.54
2508.15
2510.97
2514.01
2517.27
2520.75
2524.44
2528.35
2532.47
2536.78
2541.29
2545.99
2550.86
2555.9
2561.1
2566.45
2571.95
2577.57
2583.32
2589.19
2595.16
2601.23
2607.38
2613.61
2619.91
2626.26
2632.66
2639.1
2645.56
2652.03
2658.52
2664.99
2671.45
2677.89
2684.29
2690.64
2696.94
2703.17
2709.33
2715.4
2721.37
2727.24
2733
2738.63
2744.13
2749.49
2754.71
2759.77
2764.66
2769.39
2773.94
2778.3
2782.48
2786.46
2790.24
2793.82
2797.19
2800.35
2803.29
2806.02
2808.52
2810.8
2812.86
2814.69
2816.29
2817.67
2818.82
2819.74
2820.44
2820.91
2821.17
2821.2
2821.02
2820.62
2820.01
2819.2
2818.19
2816.97
2815.57
2813.97
2812.2
2810.25
2808.14
2805.86
2803.42
2800.84
2798.12
2795.27
2792.29
2789.2
2786.01
2782.72
2779.33
2775.87
2772.34
2768.75
2765.11
2761.42
2757.7
2753.96
2750.2
2746.43
2742.67
2738.91
2735.18
2731.47
2727.79
2724.16
2720.57
2717.05
2713.59
2710.2
2706.88
2703.65
2700.51
2697.47
2694.53
2691.69
2688.97
2686.37
2683.88
2681.52
2679.29
2677.2
2675.24
2673.42
2671.74
2670.2
2668.82
2667.58
2666.5
2665.56
2664.78
2664.16
2663.69
2663.38
2663.22
2482.1
2482.42
2483.05
2483.91
2484.98
2486.25
2487.67
2489.22
2490.88
2492.65
2494.54
2496.59
2498.81
2501.22
2503.85
2506.7
2509.79
2513.11
2516.67
2520.46
2524.47
2528.7
2533.15
2537.79
2542.63
2547.65
2552.84
2558.2
2563.72
2569.38
2575.18
2581.1
2587.15
2593.3
2599.55
2605.89
2612.31
2618.79
2625.34
2631.93
2638.56
2645.21
2651.88
2658.56
2665.23
2671.88
2678.5
2685.09
2691.63
2698.11
2704.53
2710.86
2717.1
2723.25
2729.28
2735.2
2740.99
2746.64
2752.15
2757.5
2762.7
2767.72
2772.56
2777.23
2781.7
2785.98
2790.05
2793.92
2797.57
2801.01
2804.23
2807.23
2810
2812.54
2814.85
2816.93
2818.77
2820.38
2821.76
2822.9
2823.81
2824.48
2824.92
2825.14
2825.12
2824.89
2824.43
2823.75
2822.86
2821.76
2820.46
2818.96
2817.27
2815.38
2813.32
2811.08
2808.68
2806.12
2803.4
2800.54
2797.54
2794.42
2791.18
2787.83
2784.38
2780.84
2777.22
2773.53
2769.77
2765.97
2762.12
2758.24
2754.33
2750.41
2746.49
2742.57
2738.66
2734.77
2730.92
2727.09
2723.32
2719.6
2715.94
2712.34
2708.83
2705.39
2702.04
2698.79
2695.64
2692.59
2689.66
2686.84
2684.15
2681.58
2679.14
2676.83
2674.67
2672.64
2670.76
2669.03
2667.45
2666.02
2664.74
2663.62
2662.66
2661.86
2661.21
2660.73
2660.4
2660.24
2476.27
2476.63
2477.29
2478.24
2479.45
2480.94
2482.61
2484.35
2486.12
2487.93
2489.82
2491.84
2494.03
2496.43
2499.06
2501.94
2505.08
2508.48
2512.13
2516.02
2520.16
2524.53
2529.11
2533.91
2538.91
2544.09
2549.46
2555
2560.69
2566.54
2572.53
2578.65
2584.89
2591.25
2597.7
2604.24
2610.87
2617.56
2624.32
2631.12
2637.96
2644.83
2651.71
2658.6
2665.48
2672.35
2679.18
2685.98
2692.73
2699.41
2706.03
2712.55
2718.99
2725.32
2731.54
2737.64
2743.6
2749.42
2755.09
2760.6
2765.94
2771.1
2776.08
2780.87
2785.46
2789.84
2794.02
2797.98
2801.72
2805.24
2808.52
2811.58
2814.4
2816.98
2819.33
2821.43
2823.29
2824.9
2826.28
2827.41
2828.3
2828.94
2829.35
2829.52
2829.45
2829.16
2828.63
2827.88
2826.91
2825.72
2824.32
2822.71
2820.9
2818.9
2816.71
2814.34
2811.8
2809.09
2806.22
2803.21
2800.05
2796.77
2793.36
2789.84
2786.21
2782.5
2778.7
2774.83
2770.89
2766.91
2762.88
2758.82
2754.73
2750.64
2746.54
2742.45
2738.37
2734.31
2730.29
2726.31
2722.38
2718.5
2714.69
2710.96
2707.3
2703.73
2700.25
2696.88
2693.6
2690.44
2687.4
2684.48
2681.69
2679.02
2676.5
2674.11
2671.87
2669.77
2667.83
2666.04
2664.4
2662.92
2661.6
2660.44
2659.45
2658.62
2657.96
2657.46
2657.12
2656.95
2469.76
2470.19
2470.82
2471.81
2473.19
2475.07
2477.08
2479.1
2481.03
2482.86
2484.69
2486.62
2488.74
2491.1
2493.73
2496.64
2499.84
2503.33
2507.09
2511.11
2515.39
2519.92
2524.67
2529.64
2534.81
2540.19
2545.75
2551.48
2557.38
2563.43
2569.63
2575.96
2582.42
2588.99
2595.67
2602.44
2609.29
2616.21
2623.2
2630.23
2637.31
2644.41
2651.53
2658.65
2665.77
2672.87
2679.93
2686.96
2693.93
2700.84
2707.67
2714.42
2721.07
2727.61
2734.03
2740.32
2746.47
2752.47
2758.32
2764
2769.5
2774.82
2779.94
2784.87
2789.59
2794.09
2798.38
2802.44
2806.28
2809.88
2813.24
2816.36
2819.23
2821.86
2824.24
2826.37
2828.25
2829.87
2831.24
2832.36
2833.23
2833.84
2834.21
2834.33
2834.21
2833.85
2833.24
2832.41
2831.35
2830.06
2828.55
2826.82
2824.89
2822.76
2820.43
2817.92
2815.22
2812.35
2809.32
2806.14
2802.8
2799.34
2795.74
2792.03
2788.22
2784.3
2780.31
2776.24
2772.11
2767.92
2763.69
2759.43
2755.16
2750.87
2746.57
2742.29
2738.02
2733.79
2729.58
2725.43
2721.32
2717.28
2713.31
2709.42
2705.61
2701.89
2698.27
2694.76
2691.35
2688.07
2684.91
2681.87
2678.97
2676.21
2673.59
2671.11
2668.79
2666.62
2664.6
2662.74
2661.05
2659.52
2658.15
2656.95
2655.93
2655.07
2654.38
2653.86
2653.52
2653.34
2462.6
2463.09
2463.68
2464.72
2466.16
2468.97
2471.22
2473.55
2475.62
2477.43
2479.12
2480.88
2482.87
2485.15
2487.77
2490.73
2494.01
2497.62
2501.52
2505.7
2510.15
2514.86
2519.8
2524.96
2530.34
2535.92
2541.69
2547.64
2553.76
2560.03
2566.46
2573.03
2579.72
2586.53
2593.45
2600.46
2607.56
2614.74
2621.98
2629.27
2636.6
2643.96
2651.33
2658.71
2666.08
2673.43
2680.75
2688.03
2695.25
2702.4
2709.48
2716.46
2723.34
2730.11
2736.75
2743.25
2749.61
2755.82
2761.86
2767.72
2773.4
2778.88
2784.17
2789.25
2794.11
2798.74
2803.15
2807.33
2811.26
2814.95
2818.4
2821.59
2824.52
2827.2
2829.61
2831.77
2833.66
2835.3
2836.66
2837.77
2838.61
2839.2
2839.52
2839.59
2839.4
2838.97
2838.28
2837.36
2836.19
2834.8
2833.17
2831.32
2829.25
2826.98
2824.5
2821.82
2818.96
2815.92
2812.7
2809.33
2805.8
2802.14
2798.34
2794.42
2790.39
2786.27
2782.05
2777.77
2773.41
2769.01
2764.57
2760.09
2755.6
2751.09
2746.59
2742.1
2737.63
2733.19
2728.79
2724.44
2720.15
2715.93
2711.78
2707.71
2703.74
2699.86
2696.08
2692.42
2688.88
2685.46
2682.17
2679.01
2676
2673.12
2670.4
2667.83
2665.41
2663.16
2661.07
2659.14
2657.38
2655.8
2654.38
2653.14
2652.08
2651.19
2650.48
2649.94
2649.58
2649.4
2454.64
2455.03
2455.74
2456.87
2458.69
2461.35
2464.27
2467.27
2469.56
2471.34
2472.84
2474.38
2476.2
2478.42
2481.07
2484.11
2487.53
2491.3
2495.38
2499.76
2504.42
2509.33
2514.49
2519.88
2525.48
2531.28
2537.29
2543.47
2549.83
2556.35
2563.02
2569.84
2576.79
2583.86
2591.04
2598.32
2605.69
2613.14
2620.65
2628.21
2635.82
2643.46
2651.11
2658.77
2666.42
2674.05
2681.64
2689.19
2696.68
2704.1
2711.44
2718.68
2725.81
2732.83
2739.71
2746.45
2753.04
2759.46
2765.71
2771.78
2777.65
2783.32
2788.78
2794.02
2799.03
2803.81
2808.35
2812.65
2816.69
2820.48
2824.01
2827.27
2830.27
2833
2835.46
2837.65
2839.56
2841.2
2842.56
2843.65
2844.47
2845.02
2845.29
2845.31
2845.05
2844.54
2843.77
2842.74
2841.47
2839.95
2838.2
2836.21
2834
2831.56
2828.92
2826.07
2823.03
2819.79
2816.38
2812.8
2809.07
2805.18
2801.16
2797.01
2792.75
2788.39
2783.94
2779.41
2774.81
2770.19
2765.5
2760.78
2756.05
2751.31
2746.58
2741.86
2737.17
2732.51
2727.9
2723.34
2718.84
2714.42
2710.08
2705.83
2701.67
2697.62
2693.68
2689.86
2686.17
2682.6
2679.17
2675.88
2672.74
2669.75
2666.92
2664.24
2661.73
2659.39
2657.22
2655.22
2653.39
2651.75
2650.28
2648.99
2647.89
2646.96
2646.23
2645.67
2645.3
2645.11
2445.19
2445.43
2445.78
2446.4
2448.02
2450.91
2454.71
2458.56
2461.8
2463.85
2465.22
2466.58
2468.33
2470.62
2473.43
2476.68
2480.33
2484.33
2488.66
2493.28
2498.18
2503.34
2508.74
2514.37
2520.22
2526.27
2532.52
2538.96
2545.58
2552.36
2559.3
2566.39
2573.61
2580.96
2588.43
2596
2603.66
2611.4
2619.21
2627.07
2634.98
2642.92
2650.87
2658.83
2666.79
2674.72
2682.61
2690.46
2698.24
2705.95
2713.57
2721.1
2728.5
2735.79
2742.93
2749.93
2756.76
2763.42
2769.9
2776.19
2782.27
2788.14
2793.78
2799.2
2804.38
2809.31
2814
2818.42
2822.59
2826.48
2830.1
2833.45
2836.52
2839.3
2841.8
2844.02
2845.95
2847.6
2848.96
2850.03
2850.82
2851.33
2851.55
2851.5
2851.17
2850.57
2849.71
2848.58
2847.18
2845.54
2843.65
2841.51
2839.14
2836.54
2833.71
2830.68
2827.43
2823.99
2820.37
2816.57
2812.6
2808.47
2804.21
2799.81
2795.3
2790.68
2785.97
2781.18
2776.32
2771.42
2766.48
2761.5
2756.51
2751.52
2746.53
2741.57
2736.63
2731.74
2726.9
2722.11
2717.4
2712.76
2708.21
2703.76
2699.41
2695.17
2691.05
2687.06
2683.2
2679.48
2675.9
2672.47
2669.19
2666.08
2663.13
2660.34
2657.73
2655.29
2653.04
2650.96
2649.06
2647.35
2645.83
2644.49
2643.34
2642.39
2641.62
2641.05
2640.66
2640.47
2433.51
2433.2
2432.29
2431.51
2432.32
2435.36
2440.21
2445.77
2450.72
2455.75
2457.66
2457.29
2458.8
2461.38
2464.63
2468.32
2472.35
2476.69
2481.33
2486.26
2491.44
2496.88
2502.55
2508.45
2514.56
2520.88
2527.4
2534.11
2541
2548.07
2555.29
2562.67
2570.19
2577.84
2585.61
2593.49
2601.46
2609.52
2617.65
2625.83
2634.07
2642.33
2650.62
2658.9
2667.18
2675.44
2683.66
2691.82
2699.93
2707.95
2715.88
2723.71
2731.42
2738.99
2746.42
2753.69
2760.79
2767.71
2774.44
2780.96
2787.27
2793.35
2799.21
2804.81
2810.17
2815.27
2820.11
2824.68
2828.96
2832.97
2836.69
2840.13
2843.27
2846.11
2848.66
2850.91
2852.86
2854.52
2855.87
2856.92
2857.68
2858.14
2858.31
2858.19
2857.79
2857.09
2856.12
2854.88
2853.36
2851.58
2849.53
2847.24
2844.69
2841.91
2838.89
2835.65
2832.2
2828.53
2824.67
2820.63
2816.41
2812.03
2807.5
2802.83
2798.04
2793.14
2788.14
2783.07
2777.93
2772.73
2767.5
2762.25
2756.98
2751.71
2746.45
2741.22
2736.02
2730.87
2725.78
2720.75
2715.8
2710.93
2706.16
2701.49
2696.93
2692.49
2688.18
2684
2679.96
2676.07
2672.33
2668.75
2665.33
2662.09
2659.01
2656.11
2653.39
2650.86
2648.51
2646.34
2644.37
2642.6
2641.01
2639.62
2638.43
2637.44
2636.65
2636.05
2635.65
2635.45
2419.17
2418.47
2416.06
2413.51
2413.5
2418.9
2423.5
2429.88
2436.59
2443.72
2448.12
2448.79
2447.76
2450.59
2454.57
2459
2463.61
2468.41
2473.44
2478.72
2484.22
2489.96
2495.92
2502.11
2508.5
2515.1
2521.91
2528.91
2536.09
2543.45
2550.98
2558.67
2566.5
2574.47
2582.57
2590.78
2599.09
2607.49
2615.96
2624.5
2633.08
2641.7
2650.33
2658.97
2667.61
2676.21
2684.78
2693.3
2701.75
2710.11
2718.38
2726.53
2734.56
2742.45
2750.19
2757.76
2765.15
2772.35
2779.34
2786.12
2792.68
2798.99
2805.06
2810.88
2816.43
2821.71
2826.71
2831.43
2835.85
2839.98
2843.81
2847.33
2850.55
2853.46
2856.06
2858.34
2860.31
2861.97
2863.32
2864.35
2865.07
2865.49
2865.6
2865.4
2864.91
2864.12
2863.04
2861.66
2860.01
2858.08
2855.88
2853.41
2850.68
2847.7
2844.48
2841.02
2837.33
2833.43
2829.32
2825.01
2820.52
2815.86
2811.03
2806.07
2800.98
2795.77
2790.46
2785.08
2779.62
2774.12
2768.58
2763.01
2757.44
2751.87
2746.32
2740.8
2735.32
2729.89
2724.53
2719.24
2714.03
2708.92
2703.9
2699
2694.22
2689.57
2685.05
2680.67
2676.44
2672.37
2668.46
2664.72
2661.15
2657.76
2654.55
2651.53
2648.7
2646.06
2643.61
2641.36
2639.31
2637.46
2635.82
2634.38
2633.14
2632.11
2631.29
2630.67
2630.25
2630.04
2406.52
2404.93
2400.7
2396.9
2397.03
2402.97
2409.51
2414.8
2421.56
2427.13
2433.95
2436.65
2437.16
2438.59
2443.48
2448.85
2454.23
2459.58
2465.05
2470.71
2476.56
2482.61
2488.88
2495.35
2502.04
2508.94
2516.04
2523.34
2530.83
2538.51
2546.36
2554.37
2562.54
2570.86
2579.3
2587.87
2596.54
2605.3
2614.14
2623.05
2632.01
2641.01
2650.02
2659.05
2668.06
2677.05
2685.99
2694.88
2703.7
2712.43
2721.06
2729.58
2737.95
2746.18
2754.25
2762.15
2769.85
2777.35
2784.63
2791.69
2798.51
2805.07
2811.38
2817.42
2823.18
2828.65
2833.82
2838.7
2843.27
2847.53
2851.47
2855.09
2858.39
2861.37
2864.02
2866.33
2868.33
2869.99
2871.33
2872.33
2873.02
2873.38
2873.42
2873.15
2872.56
2871.66
2870.46
2868.96
2867.16
2865.07
2862.7
2860.05
2857.12
2853.93
2850.49
2846.8
2842.86
2838.7
2834.32
2829.72
2824.94
2819.97
2814.83
2809.55
2804.12
2798.58
2792.94
2787.21
2781.42
2775.57
2769.69
2763.79
2757.89
2752
2746.13
2740.3
2734.51
2728.79
2723.13
2717.56
2712.08
2706.7
2701.43
2696.28
2691.26
2686.37
2681.63
2677.05
2672.62
2668.36
2664.27
2660.35
2656.63
2653.09
2649.74
2646.58
2643.63
2640.88
2638.33
2635.99
2633.86
2631.94
2630.23
2628.73
2627.45
2626.39
2625.53
2624.89
2624.46
2624.23
2397.46
2395.63
2391.32
2387.04
2388.11
2391.51
2397.27
2402.2
2407.85
2412.87
2416.33
2422.33
2425.35
2426.32
2431.86
2438.23
2444.44
2450.36
2456.27
2462.3
2468.49
2474.86
2481.42
2488.2
2495.18
2502.38
2509.79
2517.4
2525.22
2533.22
2541.41
2549.77
2558.3
2566.98
2575.79
2584.73
2593.79
2602.94
2612.18
2621.49
2630.86
2640.26
2649.68
2659.11
2668.54
2677.93
2687.29
2696.58
2705.8
2714.93
2723.95
2732.85
2741.6
2750.2
2758.63
2766.87
2774.91
2782.73
2790.33
2797.68
2804.78
2811.62
2818.18
2824.46
2830.44
2836.11
2841.48
2846.53
2851.25
2855.65
2859.71
2863.43
2866.82
2869.86
2872.56
2874.92
2876.93
2878.59
2879.92
2880.9
2881.54
2881.85
2881.82
2881.45
2880.77
2879.75
2878.42
2876.78
2874.83
2872.57
2870.01
2867.16
2864.03
2860.62
2856.94
2853
2848.8
2844.36
2839.68
2834.79
2829.68
2824.38
2818.91
2813.27
2807.48
2801.58
2795.56
2789.47
2783.3
2777.09
2770.84
2764.59
2758.33
2752.08
2745.87
2739.7
2733.59
2727.55
2721.58
2715.71
2709.93
2704.27
2698.72
2693.3
2688.03
2682.9
2677.92
2673.11
2668.47
2664
2659.72
2655.63
2651.73
2648.03
2644.54
2641.25
2638.17
2635.3
2632.65
2630.22
2628
2626
2624.23
2622.68
2621.35
2620.24
2619.36
2618.69
2618.24
2618.01
2391.91
2391.13
2387.46
2383.48
2385.32
2386.54
2389.08
2391.59
2396.33
2399.66
2401.94
2408.04
2411.91
2414.37
2420.4
2427.68
2434.49
2440.91
2447.21
2453.57
2460.06
2466.71
2473.57
2480.63
2487.91
2495.41
2503.14
2511.07
2519.22
2527.57
2536.12
2544.84
2553.75
2562.81
2572.02
2581.37
2590.83
2600.41
2610.07
2619.81
2629.6
2639.44
2649.3
2659.18
2669.04
2678.88
2688.67
2698.4
2708.05
2717.61
2727.05
2736.36
2745.52
2754.51
2763.33
2771.94
2780.34
2788.52
2796.45
2804.13
2811.53
2818.66
2825.49
2832.02
2838.24
2844.13
2849.7
2854.93
2859.82
2864.36
2868.55
2872.38
2875.85
2878.97
2881.72
2884.11
2886.14
2887.81
2889.12
2890.07
2890.66
2890.9
2890.8
2890.34
2889.54
2888.41
2886.94
2885.15
2883.03
2880.59
2877.84
2874.79
2871.43
2867.78
2863.85
2859.65
2855.17
2850.43
2845.44
2840.22
2834.77
2829.12
2823.27
2817.25
2811.07
2804.76
2798.35
2791.85
2785.28
2778.66
2772.02
2765.37
2758.73
2752.11
2745.53
2739
2732.54
2726.15
2719.85
2713.65
2707.56
2701.59
2695.75
2690.05
2684.5
2679.11
2673.89
2668.84
2663.97
2659.29
2654.81
2650.52
2646.45
2642.58
2638.93
2635.5
2632.29
2629.31
2626.55
2624.01
2621.71
2619.64
2617.79
2616.18
2614.8
2613.66
2612.74
2612.05
2611.58
2611.34
2387.58
2387.73
2385.12
2383.24
2384.63
2384.47
2382.13
2384.36
2386.4
2387.9
2389.61
2395.54
2399.18
2402.77
2410.04
2417.66
2424.76
2431.41
2437.94
2444.53
2451.26
2458.17
2465.29
2472.63
2480.2
2488.01
2496.05
2504.32
2512.82
2521.53
2530.45
2539.57
2548.87
2558.34
2567.97
2577.75
2587.65
2597.67
2607.79
2617.98
2628.24
2638.55
2648.88
2659.23
2669.56
2679.87
2690.14
2700.34
2710.45
2720.47
2730.36
2740.12
2749.71
2759.14
2768.37
2777.39
2786.18
2794.73
2803.02
2811.05
2818.78
2826.22
2833.34
2840.14
2846.61
2852.74
2858.52
2863.94
2869
2873.7
2878.02
2881.96
2885.53
2888.72
2891.52
2893.95
2896
2897.66
2898.95
2899.87
2900.41
2900.58
2900.39
2899.83
2898.92
2897.65
2896.04
2894.08
2891.79
2889.16
2886.2
2882.93
2879.34
2875.44
2871.25
2866.76
2861.98
2856.93
2851.61
2846.04
2840.23
2834.18
2827.93
2821.49
2814.89
2808.14
2801.29
2794.34
2787.34
2780.29
2773.22
2766.15
2759.09
2752.06
2745.09
2738.17
2731.33
2724.58
2717.92
2711.38
2704.95
2698.66
2692.51
2686.51
2680.66
2674.99
2669.5
2664.2
2659.09
2654.19
2649.49
2645.01
2640.75
2636.71
2632.9
2629.32
2625.98
2622.87
2620
2617.36
2614.97
2612.82
2610.91
2609.23
2607.81
2606.62
2605.67
2604.96
2604.47
2604.22
2380.21
2380.17
2379.15
2378.52
2379.71
2376.8
2376.45
2376.58
2376.91
2377.48
2378.9
2383.2
2387.18
2393.31
2400.86
2408.22
2415.14
2421.79
2428.41
2435.15
2442.06
2449.19
2456.55
2464.16
2472.02
2480.14
2488.51
2497.12
2505.98
2515.07
2524.38
2533.91
2543.63
2553.54
2563.62
2573.85
2584.22
2594.72
2605.32
2616.01
2626.76
2637.57
2648.41
2659.26
2670.11
2680.92
2691.69
2702.4
2713.01
2723.52
2733.9
2744.14
2754.21
2764.09
2773.77
2783.22
2792.44
2801.39
2810.08
2818.47
2826.55
2834.32
2841.76
2848.85
2855.59
2861.97
2867.97
2873.6
2878.84
2883.7
2888.15
2892.22
2895.88
2899.14
2902
2904.46
2906.52
2908.19
2909.45
2910.32
2910.81
2910.9
2910.61
2909.95
2908.91
2907.5
2905.73
2903.6
2901.12
2898.29
2895.12
2891.61
2887.78
2883.62
2879.15
2874.36
2869.27
2863.89
2858.22
2852.27
2846.07
2839.61
2832.92
2826.02
2818.95
2811.72
2804.38
2796.95
2789.46
2781.95
2774.42
2766.89
2759.38
2751.92
2744.52
2737.19
2729.95
2722.81
2715.77
2708.86
2702.08
2695.44
2688.95
2682.63
2676.48
2670.52
2664.74
2659.17
2653.81
2648.67
2643.75
2639.06
2634.6
2630.38
2626.41
2622.68
2619.19
2615.96
2612.97
2610.24
2607.75
2605.52
2603.54
2601.81
2600.33
2599.11
2598.13
2597.39
2596.89
2596.62
2369.32
2368.77
2369.05
2369.37
2369.14
2368.35
2367.56
2367.15
2367.24
2368.03
2369.93
2373.37
2378.4
2385.11
2391.98
2398.74
2405.31
2411.83
2418.47
2425.3
2432.37
2439.69
2447.29
2455.16
2463.32
2471.75
2480.46
2489.43
2498.67
2508.16
2517.89
2527.84
2538.01
2548.38
2558.93
2569.65
2580.53
2591.53
2602.65
2613.86
2625.15
2636.5
2647.88
2659.27
2670.66
2682.02
2693.34
2704.58
2715.74
2726.78
2737.68
2748.44
2759.01
2769.39
2779.55
2789.47
2799.14
2808.53
2817.63
2826.42
2834.88
2843.01
2850.78
2858.18
2865.21
2871.85
2878.09
2883.94
2889.37
2894.39
2898.99
2903.18
2906.94
2910.27
2913.19
2915.68
2917.75
2919.4
2920.64
2921.46
2921.88
2921.89
2921.5
2920.72
2919.54
2917.98
2916.05
2913.73
2911.05
2908.01
2904.61
2900.86
2896.76
2892.33
2887.56
2882.47