/*--------------------------------*- C++ -*----------------------------------*\
| =========                 |                                                 |
| \\      /  F ield         | OpenFOAM: The Open Source CFD Toolbox           |
|  \\    /   O peration     | Version:  v2006                                 |
|   \\  /    A nd           | Website:  www.openfoam.com                      |
|    \\/     M anipulation  |                                                 |
\*---------------------------------------------------------------------------*/
FoamFile
{
    version     2.0;
    format      ascii;
    class       volScalarField;
    location    "0";
    object      f;
}
// * * * * * * * * * * * * * * * * * * * * * * * * * * * * * * * * * * * * * //

dimensions      [0 0 0 0 0 0 0];


internalField   nonuniform List<scalar> 
2500
(
-4.89566e-38
-2.3334e-37
-1.65198e-37
-2.83151e-37
-1.95194e-37
-2.5079e-37
-2.21975e-37
-1.08853e-37
-3.50051e-38
-8.21817e-39
-1.38091e-39
-1.1059e-40
2.86324e-41
1.65187e-41
4.80135e-42
1.02846e-42
1.7756e-43
2.57525e-44
3.22014e-45
3.53728e-46
3.46369e-47
3.05912e-48
2.46073e-49
1.81755e-50
1.24132e-51
7.88591e-53
4.68433e-54
2.61363e-55
1.37526e-56
6.84887e-58
3.23838e-59
1.45798e-60
6.26637e-62
2.57712e-63
1.01633e-64
3.85091e-66
1.40442e-67
4.938e-69
1.67643e-70
5.50316e-72
1.74904e-73
5.38859e-75
1.61114e-76
4.67985e-78
1.32192e-79
3.63463e-81
9.73589e-83
2.5428e-84
6.48048e-86
1.5592e-87
-4.14701e-37
-2.04878e-36
-1.46224e-36
-2.265e-36
-1.48978e-36
-1.97037e-36
-1.83862e-36
-9.22105e-37
-2.99454e-37
-7.05276e-38
-1.17392e-38
-8.54512e-40
2.93196e-40
1.59078e-40
4.59826e-41
9.85847e-42
1.70455e-42
2.47428e-43
3.09393e-44
3.39618e-45
3.3211e-46
2.92787e-47
2.35e-48
1.73147e-49
1.17934e-50
7.47066e-52
4.42434e-53
2.46091e-54
1.29079e-55
6.40741e-57
3.01972e-58
1.35505e-59
5.80466e-61
2.3793e-62
9.35191e-64
3.53168e-65
1.28372e-66
4.49869e-68
1.52226e-69
4.98069e-71
1.57783e-72
4.84535e-74
1.44405e-75
4.18111e-77
1.1773e-78
3.22678e-80
8.61639e-82
2.24343e-83
5.69991e-85
1.36734e-86
-3.52592e-36
-1.81227e-35
-1.30321e-35
-1.82774e-35
-1.1371e-35
-1.55505e-35
-1.54256e-35
-7.92334e-36
-2.59876e-36
-6.1385e-37
-1.01133e-37
-6.59206e-39
2.97792e-39
1.54245e-39
4.44356e-40
9.54176e-41
1.65256e-41
2.40085e-42
3.00197e-43
3.29252e-44
3.21512e-45
2.82903e-46
2.26552e-47
1.66497e-48
1.13092e-49
7.14304e-51
4.21746e-52
2.33851e-53
1.22267e-54
6.04957e-56
2.84174e-57
1.27098e-58
5.4265e-60
2.21692e-61
8.68485e-63
3.26894e-64
1.18431e-65
4.13672e-67
1.39522e-68
4.55024e-70
1.43683e-71
4.39828e-73
1.30666e-74
3.7714e-76
1.05862e-77
2.89254e-79
7.70017e-81
1.99877e-82
5.06301e-84
1.21105e-85
-2.89319e-35
-1.5609e-34
-1.13105e-34
-1.43434e-34
-8.3282e-35
-1.18617e-34
-1.26588e-34
-6.67316e-35
-2.21115e-35
-5.23687e-36
-8.5308e-37
-4.86783e-38
2.92405e-38
1.46066e-38
4.20126e-39
9.04118e-40
1.56878e-40
2.28105e-41
2.85172e-42
3.12471e-43
3.04638e-44
2.67501e-45
2.13697e-46
1.56625e-47
1.06077e-48
6.67949e-50
3.93125e-51
2.17271e-52
1.13221e-53
5.58321e-55
2.61379e-56
1.16506e-57
4.95731e-59
2.01835e-60
7.88007e-62
2.95599e-63
1.06732e-64
3.7156e-66
1.24901e-67
4.05995e-69
1.27781e-70
3.89877e-72
1.15452e-73
3.32165e-75
9.2942e-77
2.53154e-78
6.71818e-80
1.7385e-81
4.39026e-83
1.04705e-84
-2.27558e-34
-1.3075e-33
-9.55218e-34
-1.09407e-33
-5.82135e-34
-8.72254e-34
-1.01622e-33
-5.50856e-34
-1.8442e-34
-4.37798e-35
-7.04404e-36
-3.41503e-37
2.78009e-37
1.35057e-37
3.88487e-38
8.38315e-39
1.4575e-39
2.1209e-40
2.65073e-41
2.90117e-42
2.82342e-43
2.47363e-44
1.97094e-45
1.44042e-46
9.72559e-48
6.10436e-49
3.58084e-50
1.97233e-51
1.02426e-52
5.03328e-54
2.3481e-55
1.04296e-56
4.4222e-58
1.79417e-59
6.98041e-61
2.60941e-62
9.38931e-64
3.25743e-65
1.09127e-66
3.53525e-68
1.10894e-69
3.37231e-71
9.95347e-73
2.85437e-74
7.96097e-76
2.16148e-77
5.71799e-79
1.47505e-80
3.71343e-82
8.83008e-84
-1.69917e-33
-1.06381e-32
-7.84412e-33
-8.10731e-33
-3.85289e-33
-6.16336e-33
-7.98142e-33
-4.45629e-33
-1.50733e-33
-3.58522e-34
-5.69206e-35
-2.24928e-36
2.56198e-36
1.21895e-36
3.51187e-37
7.6026e-38
1.32453e-38
1.92871e-39
2.4094e-40
2.6335e-41
2.55784e-42
2.23546e-43
1.77618e-44
1.29412e-45
8.7095e-47
5.44817e-48
3.18484e-49
1.74801e-50
9.04516e-52
4.42884e-53
2.05864e-54
9.11075e-56
3.84905e-57
1.55601e-58
6.03209e-60
2.24688e-61
8.05621e-63
2.78513e-64
9.29797e-66
3.00176e-67
9.38378e-69
2.84398e-70
8.36599e-72
2.39118e-73
6.64726e-75
1.79894e-76
4.74367e-78
1.21982e-79
3.06126e-81
7.25744e-83
-1.18665e-32
-8.39475e-32
-6.25814e-32
-5.83447e-32
-2.38469e-32
-4.16665e-32
-6.13312e-32
-3.53196e-32
-1.20678e-32
-2.87467e-33
-4.49972e-34
-1.36216e-35
2.28981e-35
1.0735e-35
3.10216e-36
6.73991e-37
1.17667e-37
1.71431e-38
2.1401e-39
2.33549e-40
2.26338e-41
1.97283e-42
1.56279e-43
1.13495e-44
7.61216e-46
4.74487e-47
2.76365e-48
1.51125e-49
7.79095e-51
3.80047e-52
1.75994e-53
7.75969e-55
3.26604e-56
1.31542e-57
5.08062e-59
1.88554e-60
6.7361e-62
2.32038e-63
7.71884e-65
2.48316e-66
7.73554e-68
2.33635e-69
6.84928e-71
1.95107e-72
5.40571e-74
1.45812e-75
3.83243e-77
9.82325e-79
2.4574e-80
5.80812e-82
-7.54842e-32
-6.41462e-31
-4.8464e-31
-4.07701e-31
-1.35032e-31
-2.67852e-31
-4.61034e-31
-2.74126e-31
-9.45784e-32
-2.25538e-32
-3.47846e-33
-7.26484e-35
1.98549e-34
9.22128e-35
2.67624e-35
5.83738e-36
1.02116e-36
1.48823e-37
1.85615e-38
2.02192e-39
1.95468e-40
1.69879e-41
1.34138e-42
9.70787e-44
6.4876e-45
4.02885e-46
2.3377e-47
1.27342e-48
6.53943e-50
3.1776e-51
1.46579e-52
6.43778e-54
2.69923e-55
1.08298e-56
4.16698e-58
1.54065e-59
5.48348e-61
1.88193e-62
6.23748e-64
1.99938e-65
6.20625e-67
1.86786e-68
5.45681e-70
1.54907e-71
4.27736e-73
1.1499e-74
3.01231e-76
7.69592e-78
1.91901e-79
4.52164e-81
-4.12956e-31
-4.73759e-30
-3.63963e-30
-2.76643e-30
-6.6818e-31
-1.6222e-30
-3.38875e-30
-2.0818e-30
-7.24992e-31
-1.73007e-31
-2.62815e-32
-3.02816e-34
1.67037e-33
7.72236e-34
2.25353e-34
4.93578e-35
8.65066e-36
1.26085e-36
1.57065e-37
1.70731e-38
1.64602e-39
1.42602e-40
1.1221e-41
8.09111e-43
5.38652e-44
3.33199e-45
1.92567e-46
1.04477e-47
5.34365e-49
2.58609e-50
1.18815e-51
5.19749e-53
2.17054e-54
8.67429e-56
3.32458e-57
1.22444e-58
4.34136e-60
1.48432e-61
4.90127e-63
1.56527e-64
4.84103e-66
1.45174e-67
4.2261e-69
1.1955e-70
3.28966e-72
8.81357e-74
2.30108e-75
5.85935e-77
1.45627e-78
3.42061e-80
-1.61912e-30
-3.37495e-29
-2.64808e-29
-1.82338e-29
-2.5361e-30
-9.11244e-30
-2.43336e-29
-1.54529e-29
-5.4298e-30
-1.29627e-30
-1.93956e-31
-4.61576e-34
1.36327e-32
6.3015e-33
1.85093e-33
4.07128e-34
7.14754e-35
1.04153e-35
1.29545e-36
1.40476e-37
1.35024e-38
1.16577e-39
9.13908e-41
6.5642e-42
4.35241e-43
2.68125e-44
1.54314e-45
8.33723e-47
4.24635e-48
2.04645e-49
9.363e-51
4.07886e-52
1.6964e-53
6.75186e-55
2.57736e-56
9.45464e-58
3.33906e-59
1.1372e-60
3.74069e-62
1.19011e-63
3.66705e-65
1.09565e-66
3.17794e-68
8.95782e-70
2.45626e-71
6.55794e-73
1.70632e-74
4.33027e-76
1.07267e-77
2.51161e-79
5.07499e-31
-2.31354e-28
-1.86466e-28
-1.16815e-28
-2.82942e-30
-4.60609e-29
-1.7044e-28
-1.11955e-28
-3.9681e-29
-9.47602e-30
-1.39715e-30
8.81996e-33
1.07908e-31
5.00731e-32
1.48174e-32
3.27314e-33
5.7544e-34
8.38036e-35
1.04037e-35
1.12505e-36
1.07779e-37
9.27078e-39
7.23899e-40
5.17791e-41
3.41862e-42
2.09689e-43
1.20157e-44
6.46343e-46
3.27761e-47
1.57272e-48
7.16445e-50
3.10772e-51
1.28701e-52
5.10096e-54
1.93909e-55
7.08411e-57
2.49175e-58
8.45245e-60
2.76942e-61
8.77688e-63
2.69408e-64
8.01919e-66
2.31738e-67
6.50834e-69
1.77821e-70
4.73089e-72
1.22667e-73
3.10238e-75
7.65921e-77
1.78762e-78
1.00797e-28
-1.522e-27
-1.26947e-27
-7.28145e-28
7.3651e-29
-1.94607e-28
-1.16179e-27
-7.90283e-28
-2.82546e-28
-6.74998e-29
-9.81596e-30
1.40292e-31
8.28012e-31
3.87188e-31
1.15513e-31
2.56227e-32
4.50938e-33
6.56071e-34
8.12613e-35
8.76011e-36
8.36135e-37
7.16325e-38
5.56956e-39
3.96626e-40
2.60688e-41
1.59173e-42
9.07928e-44
4.86158e-45
2.45408e-46
1.17223e-47
5.31606e-49
2.29569e-50
9.46546e-52
3.73526e-53
1.41385e-54
5.14341e-56
1.8016e-57
6.08629e-59
1.98611e-60
6.2694e-62
1.91689e-63
5.68388e-65
1.63632e-66
4.57852e-68
1.24638e-69
3.30407e-71
8.53688e-73
2.15159e-74
5.29377e-76
1.23153e-77
1.41603e-27
-9.5793e-27
-8.3484e-27
-4.42195e-27
1.02977e-27
-5.13074e-28
-7.68185e-27
-5.4246e-27
-1.95713e-27
-4.67896e-28
-6.7212e-29
1.4284e-30
6.15573e-30
2.911e-30
8.76059e-31
1.95088e-31
3.43548e-32
4.99108e-33
6.16521e-34
6.62286e-35
6.29599e-36
5.37041e-37
4.15659e-38
2.94619e-39
1.92722e-40
1.1711e-41
6.64797e-43
3.54268e-44
1.7798e-45
8.46135e-47
3.8193e-48
1.64171e-49
6.7381e-51
2.64703e-52
9.97494e-54
3.61292e-55
1.26008e-56
4.2389e-58
1.37751e-59
4.33055e-61
1.31877e-62
3.89499e-64
1.11699e-65
3.11355e-67
8.44426e-69
2.23034e-70
5.74198e-72
1.44208e-73
3.53586e-75
8.19875e-77
1.44729e-26
-5.74753e-26
-5.29926e-26
-2.62048e-26
9.54011e-27
1.61639e-27
-4.90588e-26
-3.6131e-26
-1.31671e-26
-3.15208e-27
-4.48231e-28
1.20268e-29
4.43062e-29
2.12597e-29
6.45639e-30
1.44288e-30
2.54116e-31
3.68462e-32
4.53694e-33
4.85458e-34
4.59468e-35
3.90082e-36
3.00445e-37
2.11895e-38
1.37911e-39
8.33801e-41
4.70933e-42
2.49698e-43
1.2482e-44
5.90476e-46
2.65229e-47
1.13458e-48
4.6346e-50
1.81216e-51
6.79746e-53
2.4509e-54
8.51002e-56
2.85028e-57
9.22287e-59
2.88726e-60
8.75628e-62
2.57572e-63
7.3573e-65
2.04286e-66
5.51942e-68
1.45239e-69
3.72553e-71
9.32318e-73
2.27796e-74
5.26449e-76
1.25926e-25
-3.2737e-25
-3.24551e-25
-1.51802e-25
7.36105e-26
4.06574e-26
-3.00926e-25
-2.33031e-25
-8.59174e-26
-2.06129e-26
-2.91013e-27
8.90585e-29
3.0847e-28
1.50661e-28
4.61788e-29
1.03518e-29
1.82224e-30
2.63558e-31
3.2333e-32
3.4445e-33
3.24441e-34
2.7405e-35
2.09974e-36
1.47302e-37
9.53587e-39
5.73446e-40
3.22158e-41
1.6991e-42
8.44896e-44
3.97617e-45
1.77687e-46
7.56268e-48
3.0739e-49
1.19605e-50
4.46491e-52
1.6023e-53
5.53783e-55
1.84641e-56
5.94809e-58
1.854e-59
5.59881e-61
1.64009e-62
4.66573e-64
1.29037e-65
3.47278e-67
9.10367e-69
2.32653e-70
5.80107e-72
1.41237e-73
3.25313e-75
9.78027e-25
-1.76134e-24
-1.91802e-24
-8.6111e-25
5.02387e-25
4.34195e-25
-1.76029e-24
-1.45267e-24
-5.43133e-25
-1.30733e-25
-1.83928e-26
5.89772e-28
2.07531e-27
1.03476e-27
3.20083e-28
7.19276e-29
1.26469e-29
1.82347e-30
2.22756e-31
2.36151e-32
2.21264e-33
1.85872e-34
1.41613e-35
9.87811e-37
6.35832e-38
3.80185e-39
2.12376e-40
1.11381e-41
5.50783e-43
2.57784e-44
1.14577e-45
4.85068e-47
1.9613e-48
7.5923e-50
2.81999e-51
1.00701e-52
3.46363e-54
1.14939e-55
3.68563e-57
1.14363e-58
3.43841e-60
1.00291e-61
2.84116e-63
7.82553e-65
2.09773e-66
5.47776e-68
1.39461e-69
3.4646e-71
8.40496e-73
1.92937e-74
6.90805e-24
-8.89671e-24
-1.09458e-23
-4.79061e-24
3.0995e-24
3.70199e-24
-9.72755e-24
-8.74031e-24
-3.32415e-24
-8.0373e-25
-1.13205e-25
3.47164e-27
1.34762e-26
6.87812e-27
2.14655e-27
4.83177e-28
8.47942e-29
1.21796e-29
1.4807e-30
1.56123e-31
1.45438e-32
1.21447e-33
9.19676e-35
6.37591e-36
4.07891e-37
2.42405e-38
1.3459e-39
7.0163e-41
3.44903e-42
1.60483e-43
7.09197e-45
2.98548e-46
1.20044e-47
4.62173e-49
1.70751e-50
6.0658e-52
2.07575e-53
6.85414e-55
2.18723e-56
6.75492e-58
2.02163e-59
5.87041e-61
1.65583e-62
4.54157e-64
1.21245e-65
3.1535e-67
7.99777e-69
1.97945e-70
4.78466e-72
1.09458e-73
4.46962e-23
-4.18499e-23
-6.03938e-23
-2.61655e-23
1.74046e-23
2.81393e-23
-5.01235e-23
-5.07143e-23
-1.96951e-23
-4.78958e-24
-6.79097e-25
1.75661e-26
8.43518e-26
4.41779e-26
1.39022e-26
3.13178e-27
5.48099e-28
7.83712e-29
9.47544e-30
9.9306e-31
9.19237e-32
7.62607e-33
5.73682e-34
3.95082e-35
2.51072e-36
1.48224e-37
8.17592e-39
4.23455e-40
2.06827e-41
9.56298e-43
4.19981e-44
1.75722e-45
7.02354e-47
2.68831e-48
9.87542e-50
3.48866e-51
1.18737e-52
3.90006e-54
1.23818e-55
3.80492e-57
1.13326e-58
3.27542e-60
9.19709e-62
2.51154e-63
6.67671e-65
1.7295e-66
4.36903e-68
1.07723e-69
2.59433e-71
5.91471e-73
2.65276e-22
-1.81121e-22
-3.22479e-22
-1.4032e-22
8.8801e-23
1.98414e-22
-2.3602e-22
-2.83653e-22
-1.13005e-22
-2.76767e-23
-3.9749e-24
6.86344e-26
5.08189e-25
2.73698e-25
8.67768e-26
1.95434e-26
3.40773e-27
4.84653e-28
5.8231e-29
6.06172e-30
5.57173e-31
4.58917e-32
3.4272e-33
2.34302e-34
1.47812e-35
8.66298e-37
4.74402e-38
2.43955e-39
1.18316e-40
5.43258e-42
2.36959e-43
9.84819e-45
3.91053e-46
1.48721e-47
5.42919e-49
1.90632e-50
6.45e-52
2.10648e-53
6.65066e-55
2.03284e-56
6.02344e-58
1.7323e-59
4.84095e-61
1.31591e-62
3.48286e-64
8.9838e-66
2.26032e-67
5.55158e-69
1.33206e-70
3.02653e-72
1.44076e-21
-7.04923e-22
-1.66452e-21
-7.37802e-22
4.07924e-22
1.32003e-21
-9.79135e-22
-1.52813e-21
-6.28225e-22
-1.55179e-22
-2.27239e-23
1.08836e-25
2.94211e-24
1.6323e-24
5.20846e-25
1.17131e-25
2.0327e-26
2.8727e-27
3.42696e-28
3.54032e-29
3.22856e-30
2.63787e-31
1.95398e-32
1.32494e-33
8.29026e-35
4.81915e-36
2.61768e-37
1.3353e-38
6.42462e-40
2.92683e-41
1.26679e-42
5.2251e-44
2.05945e-45
7.7758e-47
2.81869e-48
9.82967e-50
3.3039e-51
1.07214e-52
3.36423e-54
1.02225e-55
3.0119e-57
8.61527e-59
2.39517e-60
6.47888e-62
1.70681e-63
4.38321e-65
1.09822e-66
2.68671e-68
6.42263e-70
1.4543e-71
7.12146e-21
-2.32615e-21
-8.25466e-21
-3.79198e-21
1.65512e-21
8.33387e-21
-3.28039e-21
-7.90708e-21
-3.38398e-21
-8.44616e-22
-1.26915e-22
-1.4146e-24
1.63388e-23
9.34999e-24
2.99847e-24
6.72401e-25
1.15993e-25
1.62709e-26
1.9251e-27
1.97155e-28
1.78183e-29
1.44251e-30
1.05861e-31
7.11089e-33
4.40744e-34
2.5379e-35
1.36557e-36
6.90058e-38
3.28927e-39
1.4847e-40
6.36783e-42
2.60312e-43
1.01705e-44
3.80736e-46
1.36872e-47
4.73486e-49
1.57913e-50
5.08623e-52
1.58461e-53
4.78223e-55
1.3999e-56
3.97981e-58
1.10007e-59
2.95955e-61
7.75727e-63
1.98273e-64
4.94602e-66
1.20511e-67
2.87012e-69
6.47734e-71
3.17598e-20
-5.08091e-21
-3.87526e-20
-1.90182e-20
5.70206e-21
4.98149e-20
-6.13622e-21
-3.89931e-20
-1.76447e-20
-4.46208e-21
-6.91661e-22
-2.04404e-23
8.68666e-23
5.13113e-23
1.65101e-23
3.68594e-24
6.3114e-25
8.77552e-26
1.02834e-26
1.04253e-27
9.3236e-29
7.46702e-30
5.4197e-31
3.59997e-32
2.20615e-33
1.25589e-34
6.68018e-36
3.33692e-37
1.57235e-38
7.01615e-40
2.97512e-41
1.2026e-42
4.64689e-44
1.72082e-45
6.12127e-47
2.096e-48
6.92184e-50
2.20848e-51
6.81884e-53
2.0404e-54
5.92517e-56
1.67191e-57
4.58935e-59
1.22682e-60
3.19689e-62
8.12801e-64
2.01797e-65
4.89615e-67
1.16176e-68
2.61364e-70
1.2622e-19
9.75374e-21
-1.67565e-19
-9.41437e-20
1.50154e-20
2.78828e-19
2.42024e-20
-1.80282e-19
-8.89121e-20
-2.28563e-20
-3.66596e-21
-1.79585e-22
4.41131e-22
2.69017e-22
8.66768e-23
1.9229e-23
3.26246e-24
4.48839e-25
5.19955e-26
5.20765e-27
4.59852e-28
3.63459e-29
2.60236e-30
1.70453e-31
1.02968e-32
5.77611e-34
3.02668e-35
1.48906e-36
6.9091e-38
3.0354e-39
1.26717e-40
5.04271e-42
1.91848e-43
6.99612e-45
2.45135e-46
8.27095e-48
2.69269e-49
8.47434e-51
2.58259e-52
7.63341e-54
2.1914e-55
6.11842e-57
1.66341e-58
4.40839e-60
1.14004e-61
2.87949e-63
7.10933e-65
1.71705e-66
4.05954e-68
9.1088e-70
4.39255e-19
2.43015e-19
-6.37697e-19
-4.83409e-19
1.6036e-20
1.42622e-18
3.69265e-19
-7.58793e-19
-4.33002e-19
-1.13289e-19
-1.87879e-20
-1.27431e-21
2.13388e-21
1.34324e-21
4.32387e-22
9.51039e-23
1.59523e-23
2.16635e-24
2.47432e-25
2.44086e-26
2.12091e-27
1.64804e-28
1.15906e-29
7.45043e-31
4.41295e-32
2.42509e-33
1.24374e-34
5.98359e-36
2.71252e-37
1.16334e-38
4.73727e-40
1.83765e-41
6.81104e-43
2.41875e-44
8.2512e-46
2.71047e-47
8.59337e-49
2.63514e-50
7.83142e-52
2.25994e-53
6.34368e-55
1.73493e-56
4.62985e-58
1.20721e-59
3.07929e-61
7.69164e-63
1.88311e-64
4.52208e-66
1.06579e-67
2.38962e-69
1.30668e-18
2.3015e-18
-1.9787e-18
-2.82947e-18
-1.52973e-19
6.35181e-18
2.76703e-18
-2.76796e-18
-2.05247e-18
-5.41641e-19
-9.22888e-20
-7.80794e-21
9.79717e-21
6.36637e-21
2.04212e-21
4.44054e-22
7.34133e-23
9.80681e-24
1.09983e-24
1.06344e-25
9.04088e-27
6.86059e-28
4.70257e-29
2.93974e-30
1.68932e-31
8.98266e-33
4.44429e-34
2.05573e-35
8.92627e-37
3.65139e-38
1.4115e-39
5.17045e-41
1.79912e-42
5.95976e-44
1.88322e-45
5.68713e-47
1.64433e-48
4.56026e-50
1.21555e-51
3.12146e-53
7.74511e-55
1.86403e-56
4.37387e-58
1.00736e-59
2.29648e-61
5.23153e-63
1.20194e-64
2.80381e-66
6.65629e-68
1.55008e-69
3.22784e-18
1.72363e-17
-4.30253e-18
-1.96239e-17
-1.76503e-18
2.23473e-17
1.64707e-17
-8.02909e-18
-9.66951e-18
-2.48194e-18
-4.28927e-19
-4.21769e-20
4.24771e-20
2.85512e-20
9.09938e-21
1.9484e-21
3.16066e-22
4.13052e-23
4.51748e-24
4.24489e-25
3.49354e-26
2.55506e-27
1.67918e-28
1.00008e-29
5.43175e-31
2.70196e-32
1.23376e-33
5.17004e-35
1.98079e-36
6.87025e-38
2.10888e-39
5.41028e-41
9.46114e-43
-4.9489e-45
-1.5058e-45
-9.36899e-47
-4.36609e-48
-1.75907e-49
-6.43402e-51
-2.18636e-52
-6.99303e-54
-2.12277e-55
-6.15043e-57
-1.70793e-58
-4.56005e-60
-1.17349e-61
-2.91649e-63
-7.01168e-65
-1.63283e-66
-3.57666e-68
6.40277e-18
1.15975e-16
-4.36339e-18
-1.59897e-16
-1.43091e-17
5.52631e-17
9.02274e-17
-1.54731e-17
-4.71154e-17
-1.07146e-17
-1.84954e-18
-2.01288e-19
1.72591e-19
1.20945e-19
3.81671e-20
7.99769e-21
1.26365e-21
1.60039e-22
1.68546e-23
1.51314e-24
1.17814e-25
8.04678e-27
4.84984e-28
2.57782e-29
1.19521e-30
4.67533e-32
1.38863e-33
1.63124e-35
-1.64003e-36
-1.76263e-37
-1.16427e-38
-6.30219e-40
-3.01466e-41
-1.31612e-42
-5.33582e-44
-2.03065e-45
-7.30791e-47
-2.50046e-48
-8.16818e-50
-2.556e-51
-7.68292e-53
-2.22351e-54
-6.20834e-56
-1.67533e-57
-4.37616e-59
-1.10804e-60
-2.72291e-62
-6.50151e-64
-1.50988e-65
-3.31077e-67
2.50551e-17
9.19731e-16
-2.02791e-15
-2.73896e-15
-1.02031e-16
3.50783e-15
5.5519e-16
-1.84371e-17
-2.60492e-16
-4.13757e-17
-7.18173e-18
-8.41428e-19
6.49318e-19
4.85173e-19
1.50987e-19
3.06137e-20
4.6484e-21
5.60221e-22
5.53129e-23
4.5547e-24
3.1435e-25
1.79154e-26
7.90792e-28
1.99477e-29
-6.94974e-31
-1.44244e-31
-1.30051e-32
-9.04223e-34
-5.40354e-35
-2.89481e-36
-1.42084e-37
-6.47435e-39
-2.76353e-40
-1.11222e-41
-4.24198e-43
-1.53945e-44
-5.33387e-46
-1.76949e-47
-5.63456e-49
-1.72594e-50
-5.09548e-52
-1.45243e-53
-4.00352e-55
-1.06867e-56
-2.76611e-58
-6.95091e-60
-1.69762e-61
-4.03375e-63
-9.33383e-65
-2.04172e-66
8.53591e-14
6.21765e-15
-2.80615e-13
-2.0608e-14
5.63577e-13
1.18787e-13
2.54472e-15
-3.46561e-14
-1.65862e-15
-1.15117e-16
-2.42361e-17
-3.04438e-18
2.21718e-18
1.86446e-18
5.70334e-19
1.09421e-19
1.55432e-20
1.71254e-21
1.47731e-22
9.67677e-24
4.06999e-25
-2.38768e-27
-2.57272e-27
-3.20992e-28
-2.83313e-29
-2.07736e-30
-1.33797e-31
-7.78068e-33
-4.15254e-34
-2.05621e-35
-9.52142e-37
-4.14794e-38
-1.70826e-39
-6.67725e-41
-2.48558e-42
-8.83713e-44
-3.00859e-45
-9.83041e-47
-3.08907e-48
-9.35266e-50
-2.73292e-51
-7.71926e-53
-2.11056e-54
-5.59324e-56
-1.43847e-57
-3.59418e-59
-8.73405e-61
-2.06621e-62
-4.76292e-64
-1.03857e-65
5.12242e-12
-2.72118e-11
-1.77645e-12
4.16905e-11
1.22539e-11
5.13965e-13
-5.9938e-12
-3.13585e-13
-1.6578e-15
-3.28662e-16
-7.54123e-17
-9.59519e-18
6.63275e-18
6.98508e-18
2.12115e-18
3.69218e-19
4.64058e-20
4.2e-21
2.33751e-22
-1.42594e-24
-2.23104e-24
-3.33862e-25
-3.45297e-26
-2.91833e-27
-2.13922e-28
-1.40166e-29
-8.3602e-31
-4.59524e-32
-2.34841e-33
-1.12345e-34
-5.05798e-36
-2.15256e-37
-8.69152e-39
-3.34029e-40
-1.22528e-41
-4.30057e-43
-1.44753e-44
-4.68183e-46
-1.4578e-47
-4.3773e-49
-1.26948e-50
-3.56107e-52
-9.67515e-54
-2.54918e-55
-6.521e-57
-1.62133e-58
-3.9221e-60
-9.23987e-62
-2.1218e-63
-4.61099e-65
2.05374e-11
-4.88471e-10
3.45765e-09
1.22914e-09
5.20776e-11
-7.47281e-10
-4.61929e-11
-2.40742e-13
-1.37521e-15
-1.31352e-15
-2.24989e-16
-2.70436e-17
1.61959e-17
2.49194e-17
8.08975e-18
1.1994e-18
1.19202e-19
5.63132e-21
-5.46752e-22
-1.67505e-22
-2.39095e-23
-2.54124e-24
-2.24042e-25
-1.71792e-26
-1.17687e-27
-7.32948e-29
-4.20083e-30
-2.23576e-31
-1.11259e-32
-5.20515e-34
-2.29957e-35
-9.62915e-37
-3.83384e-38
-1.45543e-39
-5.2812e-41
-1.83579e-42
-6.12555e-44
-1.96565e-45
-6.07646e-47
-1.81248e-48
-5.22416e-50
-1.45707e-51
-3.93759e-53
-1.03226e-54
-2.62813e-56
-6.50532e-58
-1.56707e-59
-3.67716e-61
-8.41254e-63
-1.82192e-64
-1.48523e-08
-1.82242e-09
4.8659e-08
5.3153e-09
-1.02344e-07
-7.9903e-09
-3.79537e-11
2.09748e-13
4.80033e-16
-5.00633e-15
-5.11828e-16
-7.62817e-17
2.60023e-17
7.29633e-17
3.19956e-17
3.71303e-18
2.30086e-19
-1.86259e-20
-7.53563e-21
-1.22907e-21
-1.44305e-22
-1.37924e-23
-1.1322e-24
-8.22956e-26
-5.40314e-27
-3.24955e-28
-1.8088e-29
-9.39189e-31
-4.57664e-32
-2.10312e-33
-9.14972e-35
-3.78092e-36
-1.48816e-37
-5.59291e-39
-2.01148e-40
-6.93678e-42
-2.29809e-43
-7.32642e-45
-2.25127e-46
-6.67771e-48
-1.91472e-49
-5.3142e-51
-1.42945e-52
-3.73084e-54
-9.45878e-56
-2.33189e-57
-5.59566e-59
-1.30819e-60
-2.98225e-62
-6.4374e-64
-5.05366e-07
1.19693e-06
1.87844e-07
-3.53392e-06
-8.42135e-07
-1.70417e-08
4.41061e-11
7.18952e-12
-2.47441e-14
-1.05796e-14
-1.11173e-15
-4.5962e-15
-3.51463e-17
2.57385e-15
1.32738e-16
9.24106e-18
5.2561e-20
-2.09543e-19
-4.6726e-20
-6.48195e-21
-6.94508e-22
-6.22101e-23
-4.85359e-24
-3.38288e-25
-2.1433e-26
-1.25016e-27
-6.7777e-29
-3.44036e-30
-1.6443e-31
-7.43246e-33
-3.18851e-34
-1.30197e-35
-5.07269e-37
-1.88986e-38
-6.74544e-40
-2.31076e-41
-7.60995e-43
-2.41308e-44
-7.37849e-46
-2.17862e-47
-6.22008e-49
-1.71934e-50
-4.60688e-52
-1.19792e-53
-3.02618e-55
-7.43457e-57
-1.77801e-58
-4.14315e-60
-9.41506e-62
-2.02621e-63
-2.03349e-06
1.07809e-05
-3.37208e-05
-2.37152e-05
-1.90042e-06
1.41914e-07
2.23004e-08
3.65589e-10
1.8255e-13
1.08826e-14
-1.25612e-12
-5.33032e-14
2.04475e-12
7.23844e-14
1.54325e-16
4.57109e-18
-2.46335e-18
-1.22341e-18
-2.27528e-19
-2.86143e-20
-2.85354e-21
-2.41406e-22
-1.79598e-23
-1.20181e-24
-7.34897e-26
-4.15549e-27
-2.19276e-28
-1.08742e-29
-5.09555e-31
-2.26547e-32
-9.58683e-34
-3.87098e-35
-1.49444e-36
-5.52597e-38
-1.96018e-39
-6.68001e-41
-2.19013e-42
-6.91775e-44
-2.10786e-45
-6.20385e-47
-1.76591e-48
-4.86733e-50
-1.30057e-51
-3.37272e-53
-8.49761e-55
-2.08221e-56
-4.96687e-58
-1.15444e-59
-2.61678e-61
-5.61797e-63
-3.09593e-06
2.55786e-05
-0.000367779
-2.37509e-05
0.00419491
0.00785315
0.0104187
0.00743006
0.00135979
9.88177e-08
-1.09466e-11
8.3792e-10
4.98645e-11
1.52621e-13
-1.27611e-16
-1.47008e-17
-1.2335e-17
-5.77202e-18
-9.60486e-19
-1.09335e-19
-1.00712e-20
-7.99575e-22
-5.64453e-23
-3.61143e-24
-2.12324e-25
-1.15965e-26
-5.93613e-28
-2.86808e-29
-1.31505e-30
-5.74482e-32
-2.39787e-33
-9.58195e-35
-3.6711e-36
-1.35009e-37
-4.77092e-39
-1.62166e-40
-5.3074e-42
-1.67433e-43
-5.09707e-45
-1.49905e-46
-4.26405e-48
-1.17446e-49
-3.13579e-51
-8.12507e-53
-2.0452e-54
-5.00628e-56
-1.19285e-57
-2.76918e-59
-6.26894e-61
-1.34413e-62
0.0004743
-0.00027184
-0.00138081
0.0143206
0.0598629
0.094474
0.1119
0.101577
0.054104
0.0122883
0.000245253
7.41549e-09
1.22282e-10
-1.41215e-14
-8.57488e-16
-2.77123e-17
-3.46277e-17
-2.58101e-17
-3.65725e-18
-3.57579e-19
-2.94531e-20
-2.15209e-21
-1.42338e-22
-8.62227e-24
-4.83056e-25
-2.5263e-26
-1.24422e-27
-5.81555e-29
-2.59562e-30
-1.11107e-31
-4.57334e-33
-1.81253e-34
-6.91967e-36
-2.54478e-37
-9.01507e-39
-3.07672e-40
-1.01193e-41
-3.2092e-43
-9.82105e-45
-2.90286e-46
-8.29547e-48
-2.29439e-49
-6.14865e-51
-1.5983e-52
-4.03431e-54
-9.89854e-56
-2.36321e-57
-5.49519e-59
-1.2457e-60
-2.67374e-62
0.00344188
-0.00380844
-0.00211047
0.0731135
0.210827
0.314695
0.359572
0.348884
0.235398
0.0881691
0.0117535
5.91708e-09
1.7758e-10
-3.88472e-15
-1.58605e-15
9.18777e-17
-6.06259e-17
-1.29708e-16
-1.27323e-17
-9.29376e-19
-6.3122e-20
-4.04717e-21
-2.42972e-22
-1.35617e-23
-7.03357e-25
-3.40879e-26
-1.55955e-27
-6.81993e-29
-2.88552e-30
-1.19224e-31
-4.83275e-33
-1.92138e-34
-7.46547e-36
-2.82102e-37
-1.03204e-38
-3.64326e-40
-1.23862e-41
-4.05238e-43
-1.27598e-44
-3.86934e-46
-1.13122e-47
-3.19238e-49
-8.70816e-51
-2.29918e-52
-5.88353e-54
-1.46111e-55
-3.52569e-57
-8.27608e-59
-1.8919e-60
-4.09041e-62
0.00943773
-0.0122134
0.00758303
0.180302
0.444073
0.635479
0.705687
0.710076
0.548253
0.252993
0.0518271
0.00052455
6.0076e-10
-5.1528e-13
-1.33714e-14
2.29135e-15
-2.60426e-16
-1.03038e-15
-3.63471e-17
-1.29704e-18
-4.87333e-20
-1.80894e-21
-5.86163e-23
-8.20046e-25
9.87186e-26
1.27291e-26
9.77713e-28
5.93741e-29
3.07078e-30
1.39703e-31
5.68619e-33
2.08844e-34
6.93538e-36
2.07003e-37
5.44326e-39
1.19267e-40
1.77266e-42
-8.68099e-45
-2.11483e-45
-1.12639e-46
-4.51968e-48
-1.57468e-49
-5.00201e-51
-1.48272e-52
-4.15607e-54
-1.11092e-55
-2.84839e-57
-7.03543e-59
-1.67953e-60
-3.76556e-62
0.0155428
-0.0212799
0.0191246
0.291549
0.665086
0.916309
0.986608
1.01935
0.873584
0.467927
0.11851
0.00399768
-5.39508e-11
-2.37653e-12
1.9886e-13
1.55013e-14
-2.18496e-13
-7.59921e-15
3.91988e-17
3.72816e-18
2.84174e-19
1.89415e-20
1.15921e-21
6.75086e-23
3.79657e-24
2.05493e-25
1.05911e-26
5.14979e-28
2.35078e-29
1.00634e-30
4.0456e-32
1.53133e-33
5.47459e-35
1.85445e-36
5.97004e-38
1.83165e-39
5.36894e-41
1.50678e-42
4.05624e-44
1.04895e-45
2.60872e-47
6.24407e-49
1.43877e-50
3.19067e-52
6.80301e-54
1.39179e-55
2.72239e-57
5.0603e-59
8.84214e-61
1.39529e-62
0.0164768
-0.0224218
0.0173835
0.326338
0.752911
1.01754
1.07206
1.1199
1.03571
0.623587
0.18131
0.00979631
5.27096e-10
1.81506e-11
9.68015e-13
-3.35977e-11
-1.43961e-12
4.76904e-15
2.52768e-16
1.33965e-17
9.10599e-19
5.66286e-20
3.24533e-21
1.77889e-22
9.52296e-24
4.97437e-25
2.50515e-26
1.20195e-27
5.45484e-29
2.33569e-30
9.44052e-32
3.60946e-33
1.30914e-34
4.51803e-36
1.48808e-37
4.69072e-39
1.41874e-40
4.12692e-42
1.15696e-43
3.13173e-45
8.19872e-47
2.07892e-48
5.11238e-50
1.22068e-51
2.83278e-53
6.39511e-55
1.40558e-56
3.00985e-58
6.28333e-60
1.24464e-61
0.00978952
-0.0116498
-0.00468644
0.237941
0.651537
0.921197
0.996385
1.03251
0.98173
0.633829
0.199153
0.0134904
1.45098e-09
-1.50101e-09
-4.39625e-09
-2.00206e-10
6.14592e-13
4.37386e-14
9.33386e-17
2.68119e-18
4.17529e-19
3.16771e-20
1.88192e-21
1.0668e-22
6.21334e-24
3.64645e-25
2.06071e-26
1.09013e-27
5.34886e-29
2.43639e-30
1.03514e-31
4.12557e-33
1.55087e-34
5.52575e-36
1.874e-37
6.07135e-39
1.8849e-40
5.62261e-42
1.61522e-43
4.47748e-45
1.19978e-46
3.11241e-48
7.82728e-50
1.9106e-51
4.5316e-53
1.04541e-54
2.34786e-56
5.13783e-58
1.09635e-59
2.21935e-61
0.000764953
0.00174104
-0.0220317
0.0713222
0.375451
0.671489
0.84024
0.860998
0.77022
0.49442
0.158443
0.0114735
-6.43999e-07
-4.54888e-07
-2.79964e-08
4.85191e-11
9.24466e-12
7.50841e-14
-5.59637e-16
-2.82898e-17
-1.70209e-18
-1.09386e-19
-6.55194e-21
-3.54659e-22
-1.72951e-23
-7.61834e-25
-3.03806e-26
-1.09555e-27
-3.54292e-29
-1.003e-30
-2.32055e-32
-3.29185e-34
5.40563e-36
7.10428e-37
3.88193e-38
1.66625e-39
6.27737e-41
2.16275e-42
6.95338e-44
2.11064e-45
6.09437e-47
1.68276e-48
4.46058e-50
1.13856e-51
2.80538e-53
6.68633e-55
1.54423e-56
3.46126e-58
7.53946e-60
1.55269e-61
-0.00258155
0.00497787
-0.0135532
-0.0368299
0.08797
0.356897
0.589521
0.623318
0.50708
0.287394
0.0832636
0.00478961
-1.04052e-05
-2.40679e-06
-3.4642e-08
5.68996e-10
3.62984e-11
-8.19182e-14
-3.89632e-15
-1.00443e-17
-1.43528e-18
-1.36169e-19
-9.96891e-21
-6.26079e-22
-3.5115e-23
-1.79357e-24
-8.44927e-26
-3.70684e-27
-1.52603e-28
-5.92957e-30
-2.1843e-31
-7.65456e-33
-2.55897e-34
-8.18104e-36
-2.50686e-37
-7.37875e-39
-2.09078e-40
-5.71542e-42
-1.51057e-43
-3.86828e-45
-9.61808e-47
-2.32666e-48
-5.48646e-50
-1.26342e-51
-2.84586e-53
-6.27958e-55
-1.35909e-56
-2.88822e-58
-6.03183e-60
-1.20449e-61
-0.0009114
0.000777165
0.0037661
-0.0394672
-0.0572256
0.0707298
0.243159
0.296551
0.226125
0.10021
0.020026
-0.000220459
-3.5967e-05
-3.72851e-06
3.45042e-08
2.57365e-09
-8.32274e-12
-4.63086e-13
3.76854e-16
2.38032e-17
1.42487e-18
6.57333e-20
1.77409e-21
-3.14717e-23
-8.12758e-24
-6.82516e-25
-4.29451e-26
-2.30597e-27
-1.10889e-28
-4.89072e-30
-2.00605e-31
-7.72286e-33
-2.8092e-34
-9.70606e-36
-3.19936e-37
-1.0099e-38
-3.06273e-40
-8.94961e-42
-2.5261e-43
-6.90233e-45
-1.82918e-46
-4.70901e-48
-1.17928e-49
-2.87627e-51
-6.83917e-53
-1.58679e-54
-3.59508e-56
-7.95913e-58
-1.72291e-59
-3.54506e-61
0.000576344
-0.00140201
0.00548308
0.00025726
-0.046881
-0.0606638
-0.0210057
0.0154149
0.0111741
-0.0135755
-0.0104404
-0.0015796
-4.06599e-05
1.23211e-06
1.17507e-07
-3.14937e-10
-3.29943e-11
3.1838e-14
2.23907e-15
6.21051e-17
5.01272e-18
3.34574e-19
1.93154e-20
9.99942e-22
4.70547e-23
2.02922e-24
8.07036e-26
2.9733e-27
1.01676e-28
3.22201e-30
9.39327e-32
2.47506e-33
5.64619e-35
9.77049e-37
4.34895e-39
-6.47684e-40
-4.13776e-41
-1.79872e-42
-6.63942e-44
-2.21747e-45
-6.88879e-47
-2.0202e-48
-5.64302e-50
-1.5104e-51
-3.89042e-53
-9.67434e-55
-2.32847e-56
-5.43554e-58
-1.2328e-59
-2.64041e-61
0.000256602
-0.000250085
-0.000896399
0.0119148
0.00465701
-0.0375621
-0.0701137
-0.0673148
-0.0486899
-0.0301587
-0.0100481
-0.00107278
1.77098e-05
2.00438e-06
-1.80573e-10
-2.12167e-10
-3.54154e-11
2.70225e-14
5.02784e-15
1.09617e-16
4.92354e-18
2.98753e-19
1.73639e-20
9.43921e-22
4.78096e-23
2.26712e-24
1.01278e-25
4.28181e-27
1.71775e-28
6.54773e-30
2.37339e-31
8.18702e-33
2.69005e-34
8.42847e-36
2.5212e-37
7.20843e-39
1.9719e-40
5.16484e-42
1.29567e-43
3.11226e-45
7.15039e-47
1.56763e-48
3.2656e-50
6.41475e-52
1.17157e-53
1.9329e-55
2.68153e-57
2.35917e-59
-2.2487e-61
-1.85798e-62
-0.000214602
0.000490909
-0.00181631
-0.000183039
0.0103526
0.0103009
-0.00242589
-0.0110265
-0.00762415
0.00017741
0.0013851
0.000379004
1.90823e-05
-4.39247e-07
-1.58744e-08
-2.35173e-10
-4.54097e-12
3.01232e-14
5.2262e-15
4.65899e-17
9.70766e-20
-4.39792e-20
-2.83657e-21
-1.03334e-22
-1.41057e-24
1.29318e-25
1.42578e-26
9.27961e-28
4.8548e-29
2.21502e-30
9.13392e-32
3.47225e-33
1.23232e-34
4.11914e-36
1.30519e-37
3.93975e-39
1.13722e-40
3.14849e-42
8.37989e-44
2.14792e-45
5.30882e-47
1.26636e-48
2.91677e-50
6.4875e-52
1.39296e-53
2.88485e-55
5.7541e-57
1.10263e-58
2.02187e-60
3.44545e-62
-1.10287e-05
-2.62255e-05
0.000401103
-0.0017227
-0.00464533
0.00644745
0.0265561
0.0367377
0.0301044
0.0125524
0.00260759
0.000106861
-1.69966e-05
-1.88525e-06
1.04693e-08
6.65334e-10
4.38983e-12
-1.00283e-14
-1.53883e-15
-5.7535e-17
-2.96552e-18
-1.43318e-19
-6.07106e-21
-2.28894e-22
-7.81691e-24
-2.47481e-25
-7.54247e-27
-2.34417e-28
-7.89221e-30
-2.93382e-31
-1.16059e-32
-4.6317e-34
-1.79797e-35
-6.67772e-37
-2.36218e-38
-7.96669e-40
-2.56962e-41
-7.95491e-43
-2.37157e-44
-6.8284e-46
-1.90328e-47
-5.14503e-49
-1.35079e-50
-3.44799e-52
-8.56416e-54
-2.07123e-55
-4.88017e-57
-1.12077e-58
-2.51e-60
-5.32379e-62