/*--------------------------------*- C++ -*----------------------------------*\
| =========                 |                                                 |
| \\      /  F ield         | OpenFOAM: The Open Source CFD Toolbox           |
|  \\    /   O peration     | Version:  v2006                                 |
|   \\  /    A nd           | Website:  www.openfoam.com                      |
|    \\/     M anipulation  |                                                 |
\*---------------------------------------------------------------------------*/
FoamFile
{
    version     2.0;
    format      ascii;
    class       volScalarField;
    location    "2.9";
    object      p_rgh;
}
// * * * * * * * * * * * * * * * * * * * * * * * * * * * * * * * * * * * * * //

dimensions      [1 -1 -2 0 0 0 0];


internalField   nonuniform List<scalar> 
50000
(
3003.95
3003.59
3002.6
3001.4
2999.52
2997.44
2994.72
2991.76
2988.21
2984.4
2980.05
2975.4
2970.28
2964.83
2958.96
2952.76
2946.19
2939.27
2932.03
2924.45
2916.58
2908.41
2899.96
2891.24
2882.26
2873.06
2863.63
2854
2844.17
2834.18
2824.04
2813.76
2803.36
2792.86
2782.28
2771.63
2760.95
2750.24
2739.52
2728.82
2718.15
2707.53
2696.99
2686.54
2676.2
2665.99
2655.93
2646.04
2636.34
2626.84
2617.57
2608.54
2599.78
2591.29
2583.1
2575.22
2567.67
2560.46
2553.62
2547.15
2541.08
2535.4
2530.15
2525.32
2520.93
2517
2513.53
2510.54
2508.02
2506
2504.47
2503.45
2502.93
2502.94
2503.47
2504.53
2506.11
2508.22
2510.85
2514
2517.68
2521.87
2526.58
2531.81
2537.53
2543.76
2550.48
2557.68
2565.35
2573.49
2582.07
2591.1
2600.55
2610.41
2620.67
2631.31
2642.31
2653.65
2665.33
2677.31
2689.58
2702.12
2714.9
2727.92
2741.14
2754.54
2768.11
2781.81
2795.63
2809.55
2823.53
2837.56
2851.61
2865.65
2879.67
2893.63
2907.52
2921.31
2934.98
2948.5
2961.85
2975
2987.94
3000.64
3013.08
3025.23
3037.08
3048.61
3059.79
3070.61
3081.04
3091.08
3100.69
3109.87
3118.59
3126.85
3134.62
3141.9
3148.67
3154.92
3160.63
3165.81
3170.42
3174.51
3177.95
3180.99
3183.16
3185.14
3186.11
3186.84
3004.74
3004.37
3003.39
3002.16
3000.31
2998.2
2995.49
2992.5
2988.96
2985.12
2980.77
2976.1
2970.97
2965.51
2959.62
2953.4
2946.8
2939.87
2932.6
2925.01
2917.11
2908.91
2900.44
2891.69
2882.69
2873.45
2863.99
2854.33
2844.48
2834.45
2824.28
2813.96
2803.53
2792.99
2782.38
2771.7
2760.98
2750.23
2739.48
2728.74
2718.03
2707.38
2696.8
2686.31
2675.94
2665.69
2655.6
2645.67
2635.93
2626.4
2617.1
2608.04
2599.24
2590.72
2582.49
2574.59
2567.01
2559.77
2552.9
2546.41
2540.31
2534.61
2529.33
2524.48
2520.07
2516.12
2512.63
2509.62
2507.09
2505.06
2503.52
2502.49
2501.97
2501.96
2502.47
2503.52
2505.1
2507.21
2509.84
2513
2516.68
2520.88
2525.6
2530.83
2536.57
2542.81
2549.54
2556.76
2564.45
2572.6
2581.21
2590.26
2599.73
2609.62
2619.9
2630.57
2641.6
2652.98
2664.69
2676.71
2689.02
2701.6
2714.43
2727.49
2740.75
2754.2
2767.81
2781.56
2795.42
2809.38
2823.41
2837.48
2851.58
2865.67
2879.73
2893.75
2907.68
2921.52
2935.23
2948.8
2962.2
2975.4
2988.38
3001.13
3013.61
3025.81
3037.7
3049.27
3060.5
3071.35
3081.83
3091.9
3101.55
3110.76
3119.51
3127.8
3135.61
3142.91
3149.71
3155.98
3161.72
3166.91
3171.55
3175.65
3179.12
3182.14
3184.36
3186.32
3187.3
3188.04
3006.33
3005.96
3004.98
3003.74
3001.88
2999.75
2997.03
2994.02
2990.47
2986.6
2982.23
2977.52
2972.37
2966.86
2960.95
2954.69
2948.05
2941.08
2933.76
2926.12
2918.17
2909.92
2901.39
2892.59
2883.54
2874.24
2864.72
2855
2845.08
2834.99
2824.75
2814.37
2803.87
2793.26
2782.58
2771.83
2761.04
2750.22
2739.39
2728.58
2717.8
2707.08
2696.42
2685.86
2675.42
2665.1
2654.93
2644.93
2635.13
2625.53
2616.15
2607.03
2598.16
2589.58
2581.29
2573.32
2565.68
2558.39
2551.46
2544.92
2538.76
2533.01
2527.69
2522.79
2518.35
2514.35
2510.83
2507.78
2505.23
2503.16
2501.6
2500.54
2500
2499.97
2500.45
2501.52
2503.11
2505.21
2507.85
2511.01
2514.7
2518.92
2523.66
2528.91
2534.67
2540.94
2547.7
2554.96
2562.69
2570.88
2579.54
2588.64
2598.16
2608.11
2618.45
2629.18
2640.28
2651.73
2663.5
2675.6
2687.98
2700.64
2713.54
2726.68
2740.03
2753.56
2767.26
2781.09
2795.05
2809.09
2823.21
2837.37
2851.56
2865.74
2879.89
2894
2908.02
2921.95
2935.75
2949.4
2962.88
2976.17
2989.24
3002.06
3014.62
3026.9
3038.87
3050.51
3061.81
3072.73
3083.27
3093.4
3103.11
3112.38
3121.19
3129.53
3137.39
3144.74
3151.57
3157.88
3163.66
3168.89
3173.55
3177.67
3181.17
3184.2
3186.43
3188.4
3189.39
3190.13
3008.74
3008.37
3007.38
3006.13
3004.25
3002.1
2999.36
2996.32
2992.73
2988.83
2984.42
2979.67
2974.47
2968.91
2962.94
2956.62
2949.93
2942.89
2935.51
2927.79
2919.77
2911.44
2902.83
2893.95
2884.81
2875.42
2865.81
2856
2845.99
2835.8
2825.46
2814.97
2804.37
2793.66
2782.87
2772.02
2761.12
2750.19
2739.26
2728.34
2717.45
2706.62
2695.86
2685.19
2674.63
2664.21
2653.93
2643.83
2633.92
2624.21
2614.74
2605.51
2596.55
2587.87
2579.49
2571.42
2563.69
2556.32
2549.31
2542.68
2536.44
2530.62
2525.22
2520.26
2515.75
2511.7
2508.12
2505.03
2502.42
2500.31
2498.71
2497.63
2497.06
2497.02
2497.5
2498.54
2500.11
2502.21
2504.85
2508.02
2511.72
2515.96
2520.72
2526
2531.8
2538.11
2544.93
2552.23
2560.02
2568.28
2577.01
2586.18
2595.78
2605.81
2616.24
2627.06
2638.26
2649.81
2661.69
2673.89
2686.39
2699.16
2712.19
2725.45
2738.92
2752.58
2766.41
2780.38
2794.47
2808.65
2822.91
2837.21
2851.53
2865.85
2880.14
2894.39
2908.55
2922.61
2936.55
2950.33
2963.94
2977.36
2990.55
3003.5
3016.19
3028.58
3040.67
3052.42
3063.82
3074.85
3085.49
3095.72
3105.52
3114.88
3123.78
3132.19
3140.12
3147.54
3154.44
3160.81
3166.64
3171.91
3176.62
3180.78
3184.31
3187.37
3189.62
3191.61
3192.61
3193.35
3011.97
3011.58
3010.59
3009.31
3007.42
3005.24
3002.47
2999.39
2995.76
2991.81
2987.35
2982.54
2977.28
2971.65
2965.61
2959.21
2952.44
2945.31
2937.84
2930.03
2921.91
2913.48
2904.76
2895.76
2886.51
2877.01
2867.28
2857.34
2847.2
2836.88
2826.41
2815.79
2805.05
2794.21
2783.27
2772.28
2761.24
2750.16
2739.09
2728.02
2716.99
2706.01
2695.1
2684.29
2673.58
2663.01
2652.6
2642.35
2632.3
2622.45
2612.84
2603.48
2594.38
2585.57
2577.06
2568.88
2561.03
2553.53
2546.41
2539.67
2533.33
2527.41
2521.92
2516.87
2512.27
2508.14
2504.49
2501.32
2498.66
2496.49
2494.85
2493.72
2493.12
2493.06
2493.55
2494.55
2496.1
2498.19
2500.83
2504.01
2507.74
2512
2516.79
2522.12
2527.97
2534.34
2541.22
2548.59
2556.46
2564.81
2573.63
2582.9
2592.61
2602.75
2613.31
2624.25
2635.58
2647.26
2659.29
2671.63
2684.28
2697.21
2710.4
2723.83
2737.47
2751.3
2765.3
2779.45
2793.71
2808.08
2822.51
2837
2851.5
2866
2880.48
2894.9
2909.25
2923.49
2937.6
2951.57
2965.36
2978.94
2992.31
3005.42
3018.27
3030.82
3043.06
3054.97
3066.52
3077.69
3088.46
3098.82
3108.75
3118.22
3127.23
3135.75
3143.78
3151.29
3158.28
3164.73
3170.63
3175.97
3180.74
3184.95
3188.52
3191.62
3193.9
3195.9
3196.92
3197.67
3016.02
3015.63
3014.62
3013.32
3011.41
3009.18
3006.38
3003.25
2999.57
2995.55
2991.03
2986.15
2980.8
2975.09
2968.96
2962.47
2955.59
2948.35
2940.77
2932.84
2924.59
2916.03
2907.18
2898.05
2888.65
2879
2869.12
2859.02
2848.72
2838.24
2827.6
2816.82
2805.9
2794.88
2783.78
2772.6
2761.38
2750.13
2738.87
2727.62
2716.41
2705.24
2694.15
2683.15
2672.27
2661.52
2650.92
2640.5
2630.27
2620.25
2610.46
2600.93
2591.67
2582.7
2574.03
2565.69
2557.69
2550.05
2542.78
2535.91
2529.44
2523.39
2517.78
2512.61
2507.91
2503.68
2499.93
2496.68
2493.93
2491.7
2489.99
2488.81
2488.17
2488.07
2488.52
2489.5
2491.04
2493.13
2495.78
2498.97
2502.72
2507.02
2511.86
2517.24
2523.15
2529.59
2536.55
2544.01
2551.98
2560.44
2569.37
2578.77
2588.61
2598.89
2609.6
2620.7
2632.19
2644.04
2656.25
2668.78
2681.62
2694.74
2708.13
2721.77
2735.62
2749.67
2763.89
2778.25
2792.75
2807.34
2822
2836.71
2851.45
2866.18
2880.89
2895.54
2910.12
2924.59
2938.93
2953.11
2967.12
2980.93
2994.5
3007.83
3020.88
3033.63
3046.07
3058.16
3069.89
3081.24
3092.19
3102.71
3112.79
3122.42
3131.57
3140.22
3148.37
3156.01
3163.1
3169.65
3175.64
3181.07
3185.91
3190.18
3193.81
3196.95
3199.28
3201.31
3202.35
3203.11
3020.9
3020.5
3019.48
3018.16
3016.21
3013.95
3011.09
3007.91
3004.16
3000.07
2995.47
2990.5
2985.06
2979.25
2973.01
2966.4
2959.39
2952.03
2944.3
2936.23
2927.84
2919.12
2910.11
2900.8
2891.23
2881.4
2871.34
2861.05
2850.56
2839.89
2829.05
2818.06
2806.94
2795.71
2784.39
2773
2761.56
2750.09
2738.61
2727.15
2715.71
2704.32
2693.01
2681.79
2670.69
2659.72
2648.9
2638.26
2627.82
2617.59
2607.6
2597.86
2588.4
2579.23
2570.37
2561.84
2553.66
2545.84
2538.4
2531.36
2524.73
2518.53
2512.77
2507.47
2502.64
2498.29
2494.43
2491.07
2488.23
2485.91
2484.13
2482.88
2482.18
2482.04
2482.44
2483.41
2484.93
2487.02
2489.67
2492.89
2496.66
2501
2505.89
2511.34
2517.32
2523.85
2530.91
2538.48
2546.57
2555.16
2564.23
2573.78
2583.79
2594.24
2605.13
2616.42
2628.11
2640.17
2652.59
2665.35
2678.42
2691.78
2705.41
2719.3
2733.4
2747.71
2762.19
2776.83
2791.59
2806.45
2821.39
2836.38
2851.39
2866.4
2881.39
2896.32
2911.17
2925.91
2940.52
2954.98
2969.25
2983.31
2997.15
3010.73
3024.02
3037.02
3049.69
3062.01
3073.96
3085.53
3096.68
3107.4
3117.67
3127.48
3136.8
3145.62
3153.92
3161.69
3168.92
3175.6
3181.7
3187.23
3192.16
3196.51
3200.21
3203.4
3205.78
3207.83
3208.91
3209.67
3026.64
3026.23
3025.19
3023.84
3021.85
3019.54
3016.63
3013.38
3009.56
3005.38
3000.68
2995.61
2990.06
2984.13
2977.76
2971.01
2963.86
2956.34
2948.46
2940.22
2931.65
2922.75
2913.54
2904.04
2894.27
2884.23
2873.95
2863.44
2852.73
2841.82
2830.75
2819.52
2808.16
2796.68
2785.12
2773.47
2761.78
2750.05
2738.32
2726.59
2714.89
2703.25
2691.68
2680.2
2668.84
2657.61
2646.54
2635.65
2624.95
2614.48
2604.24
2594.26
2584.56
2575.16
2566.08
2557.33
2548.93
2540.9
2533.26
2526.03
2519.21
2512.83
2506.9
2501.44
2496.45
2491.96
2487.97
2484.49
2481.53
2479.11
2477.24
2475.91
2475.14
2474.94
2475.31
2476.24
2477.75
2479.83
2482.49
2485.73
2489.54
2493.92
2498.88
2504.4
2510.47
2517.1
2524.27
2531.98
2540.2
2548.94
2558.18
2567.91
2578.11
2588.76
2599.86
2611.38
2623.3
2635.61
2648.28
2661.3
2674.64
2688.28
2702.2
2716.38
2730.78
2745.39
2760.19
2775.14
2790.22
2805.4
2820.66
2835.98
2851.32
2866.66
2881.97
2897.22
2912.4
2927.46
2942.39
2957.16
2971.75
2986.12
3000.26
3014.13
3027.72
3041
3053.94
3066.53
3078.74
3090.56
3101.95
3112.91
3123.4
3133.42
3142.94
3151.95
3160.44
3168.38
3175.76
3182.58
3188.81
3194.46
3199.5
3203.94
3207.73
3210.98
3213.42
3215.51
3216.61
3217.39
3033.24
3032.82
3031.76
3030.38
3028.35
3025.98
3023.01
3019.68
3015.77
3011.5
3006.69
3001.5
2995.82
2989.75
2983.24
2976.33
2969.01
2961.32
2953.24
2944.81
2936.04
2926.93
2917.51
2907.78
2897.77
2887.49
2876.97
2866.21
2855.23
2844.06
2832.71
2821.21
2809.57
2797.81
2785.96
2774.03
2762.04
2750.02
2737.98
2725.96
2713.96
2702.02
2690.15
2678.37
2666.71
2655.19
2643.82
2632.64
2621.66
2610.9
2600.38
2590.12
2580.15
2570.48
2561.14
2552.13
2543.49
2535.22
2527.35
2519.89
2512.86
2506.27
2500.14
2494.49
2489.33
2484.67
2480.52
2476.9
2473.82
2471.28
2469.3
2467.88
2467.03
2466.76
2467.08
2467.98
2469.46
2471.54
2474.21
2477.47
2481.32
2485.76
2490.79
2496.39
2502.57
2509.32
2516.62
2524.47
2532.86
2541.78
2551.21
2561.14
2571.56
2582.45
2593.79
2605.56
2617.76
2630.35
2643.31
2656.63
2670.29
2684.25
2698.5
2713.01
2727.76
2742.73
2757.88
2773.19
2788.64
2804.19
2819.83
2835.52
2851.23
2866.95
2882.63
2898.26
2913.81
2929.25
2944.54
2959.68
2974.62
2989.35
3003.83
3018.05
3031.97
3045.58
3058.84
3071.74
3084.25
3096.36
3108.03
3119.25
3130
3140.26
3150.02
3159.25
3167.94
3176.08
3183.64
3190.63
3197.01
3202.8
3207.96
3212.51
3216.38
3219.71
3222.22
3224.35
3225.49
3226.28
3040.74
3040.31
3039.22
3037.8
3035.72
3033.3
3030.24
3026.83
3022.82
3018.44
3013.51
3008.19
3002.36
2996.14
2989.45
2982.37
2974.86
2966.96
2958.68
2950.03
2941.03
2931.68
2922.01
2912.02
2901.75
2891.2
2880.39
2869.35
2858.08
2846.61
2834.95
2823.14
2811.18
2799.1
2786.92
2774.66
2762.34
2749.99
2737.62
2725.25
2712.92
2700.63
2688.42
2676.31
2664.31
2652.45
2640.75
2629.24
2617.93
2606.84
2596.01
2585.44
2575.16
2565.19
2555.54
2546.25
2537.32
2528.78
2520.64
2512.93
2505.65
2498.83
2492.48
2486.61
2481.25
2476.4
2472.08
2468.29
2465.06
2462.38
2460.28
2458.76
2457.82
2457.48
2457.74
2458.59
2460.05
2462.12
2464.8
2468.09
2471.99
2476.49
2481.59
2487.3
2493.59
2500.47
2507.92
2515.94
2524.51
2533.63
2543.28
2553.44
2564.11
2575.26
2586.88
2598.95
2611.45
2624.36
2637.66
2651.32
2665.33
2679.66
2694.29
2709.18
2724.33
2739.69
2755.25
2770.97
2786.84
2802.81
2818.87
2834.99
2851.13
2867.27
2883.39
2899.44
2915.41
2931.27
2946.99
2962.54
2977.89
2993.02
3007.89
3022.5
3036.8
3050.78
3064.4
3077.65
3090.5
3102.94
3114.93
3126.45
3137.5
3148.04
3158.06
3167.54
3176.46
3184.82
3192.59
3199.76
3206.32
3212.26
3217.56
3222.23
3226.22
3229.63
3232.21
3234.39
3235.57
3236.37
3049.15
3048.71
3047.59
3046.13
3043.99
3041.5
3038.36
3034.85
3030.73
3026.23
3021.16
3015.69
3009.7
3003.3
2996.43
2989.14
2981.42
2973.3
2964.79
2955.89
2946.63
2937.01
2927.06
2916.79
2906.22
2895.37
2884.24
2872.88
2861.28
2849.47
2837.47
2825.31
2813
2800.56
2788.01
2775.38
2762.69
2749.96
2737.21
2724.47
2711.76
2699.09
2686.5
2674.01
2661.63
2649.39
2637.32
2625.43
2613.76
2602.31
2591.11
2580.19
2569.56
2559.25
2549.28
2539.66
2530.42
2521.57
2513.13
2505.13
2497.58
2490.49
2483.89
2477.78
2472.19
2467.12
2462.6
2458.63
2455.23
2452.4
2450.16
2448.52
2447.48
2447.05
2447.25
2448.05
2449.48
2451.54
2454.23
2457.55
2461.5
2466.07
2471.26
2477.07
2483.49
2490.51
2498.14
2506.34
2515.12
2524.46
2534.36
2544.78
2555.73
2567.18
2579.11
2591.51
2604.35
2617.62
2631.3
2645.35
2659.76
2674.5
2689.55
2704.88
2720.46
2736.28
2752.29
2768.48
2784.81
2801.26
2817.79
2834.39
2851.01
2867.63
2884.23
2900.76
2917.21
2933.54
2949.73
2965.74
2981.55
2997.13
3012.45
3027.49
3042.22
3056.61
3070.64
3084.29
3097.52
3110.32
3122.67
3134.54
3145.91
3156.76
3167.08
3176.84
3186.03
3194.63
3202.63
3210.01
3216.76
3222.88
3228.34
3233.15
3237.25
3240.76
3243.42
3245.65
3246.88
3247.7
3058.5
3058.04
3056.9
3055.39
3053.19
3050.62
3047.39
3043.77
3039.53
3034.89
3029.67
3024.03
3017.86
3011.27
3004.18
2996.68
2988.72
2980.35
2971.58
2962.4
2952.86
2942.95
2932.69
2922.1
2911.2
2900.01
2888.54
2876.81
2864.85
2852.67
2840.29
2827.73
2815.03
2802.19
2789.24
2776.2
2763.09
2749.95
2736.78
2723.62
2710.48
2697.39
2684.38
2671.46
2658.66
2646.01
2633.52
2621.22
2609.14
2597.28
2585.69
2574.38
2563.36
2552.67
2542.33
2532.35
2522.75
2513.56
2504.79
2496.47
2488.61
2481.23
2474.34
2467.96
2462.12
2456.82
2452.07
2447.89
2444.3
2441.3
2438.91
2437.13
2435.97
2435.45
2435.57
2436.32
2437.72
2439.76
2442.46
2445.81
2449.81
2454.46
2459.75
2465.68
2472.24
2479.43
2487.23
2495.65
2504.66
2514.25
2524.41
2535.13
2546.39
2558.17
2570.45
2583.22
2596.44
2610.11
2624.2
2638.69
2653.54
2668.74
2684.26
2700.07
2716.15
2732.47
2748.99
2765.69
2782.55
2799.52
2816.59
2833.72
2850.88
2868.03
2885.16
2902.23
2919.21
2936.07
2952.78
2969.3
2985.62
3001.71
3017.52
3033.05
3048.25
3063.1
3077.59
3091.67
3105.33
3118.54
3131.28
3143.53
3155.26
3166.46
3177.11
3187.18
3196.67
3205.54
3213.8
3221.42
3228.38
3234.69
3240.32
3245.28
3249.52
3253.14
3255.89
3258.18
3259.46
3260.3
3068.82
3068.34
3067.16
3065.6
3063.33
3060.68
3057.35
3053.62
3049.24
3044.45
3039.06
3033.24
3026.87
3020.06
3012.75
3005
2996.78
2988.14
2979.08
2969.6
2959.74
2949.5
2938.91
2927.97
2916.71
2905.14
2893.28
2881.16
2868.8
2856.2
2843.41
2830.43
2817.28
2804
2790.61
2777.12
2763.56
2749.95
2736.32
2722.69
2709.09
2695.53
2682.05
2668.67
2655.41
2642.29
2629.34
2616.59
2604.05
2591.76
2579.72
2567.97
2556.53
2545.43
2534.67
2524.29
2514.31
2504.74
2495.6
2486.93
2478.72
2471.01
2463.81
2457.14
2451.01
2445.44
2440.45
2436.04
2432.24
2429.04
2426.48
2424.55
2423.26
2422.63
2422.66
2423.35
2424.71
2426.75
2429.45
2432.84
2436.89
2441.62
2447.02
2453.08
2459.79
2467.16
2475.17
2483.81
2493.08
2502.95
2513.41
2524.45
2536.05
2548.19
2560.86
2574.03
2587.69
2601.8
2616.35
2631.31
2646.66
2662.37
2678.41
2694.75
2711.37
2728.24
2745.33
2762.61
2780.04
2797.6
2815.25
2832.97
2850.72
2868.47
2886.19
2903.85
2921.41
2938.86
2956.14
2973.24
2990.12
3006.76
3023.12
3039.18
3054.91
3070.27
3085.25
3099.82
3113.95
3127.61
3140.79
3153.46
3165.6
3177.18
3188.19
3198.61
3208.41
3217.59
3226.13
3234.01
3241.21
3247.74
3253.56
3258.69
3263.07
3266.8
3269.66
3272.02
3273.35
3274.22
3080.14
3079.64
3078.42
3076.81
3074.46
3071.72
3068.27
3064.41
3059.89
3054.93
3049.36
3043.34
3036.76
3029.71
3022.15
3014.13
3005.63
2996.69
2987.31
2977.51
2967.31
2956.71
2945.74
2934.42
2922.76
2910.78
2898.51
2885.95
2873.15
2860.1
2846.84
2833.39
2819.78
2806.01
2792.13
2778.14
2764.08
2749.97
2735.83
2721.7
2707.58
2693.52
2679.53
2665.63
2651.86
2638.24
2624.79
2611.53
2598.5
2585.71
2573.2
2560.97
2549.06
2537.5
2526.29
2515.47
2505.06
2495.07
2485.54
2476.47
2467.89
2459.82
2452.28
2445.27
2438.84
2432.97
2427.7
2423.04
2419
2415.6
2412.84
2410.74
2409.3
2408.55
2408.48
2409.1
2410.42
2412.44
2415.16
2418.57
2422.69
2427.51
2433.02
2439.22
2446.11
2453.67
2461.9
2470.8
2480.33
2490.51
2501.3
2512.69
2524.67
2537.21
2550.31
2563.92
2578.05
2592.65
2607.7
2623.19
2639.08
2655.35
2671.96
2688.89
2706.12
2723.6
2741.3
2759.21
2777.28
2795.48
2813.78
2832.14
2850.54
2868.95
2887.32
2905.62
2923.83
2941.91
2959.83
2977.56
2995.06
3012.31
3029.27
3045.92
3062.22
3078.15
3093.67
3108.77
3123.41
3137.57
3151.23
3164.36
3176.94
3188.94
3200.35
3211.15
3221.31
3230.82
3239.66
3247.83
3255.29
3262.05
3268.08
3273.4
3277.94
3281.8
3284.78
3287.21
3288.59
3289.49
3092.49
3091.97
3090.72
3089.04
3086.61
3083.77
3080.2
3076.2
3071.51
3066.38
3060.61
3054.37
3047.55
3040.25
3032.41
3024.1
3015.3
3006.03
2996.31
2986.15
2975.57
2964.58
2953.21
2941.47
2929.38
2916.95
2904.22
2891.2
2877.91
2864.37
2850.61
2836.65
2822.52
2808.23
2793.81
2779.28
2764.68
2750.02
2735.33
2720.63
2705.96
2691.34
2676.79
2662.34
2648.01
2633.83
2619.83
2606.04
2592.46
2579.14
2566.1
2553.35
2540.94
2528.87
2517.17
2505.87
2494.99
2484.55
2474.57
2465.08
2456.09
2447.62
2439.7
2432.34
2425.55
2419.37
2413.8
2408.86
2404.56
2400.91
2397.94
2395.65
2394.06
2393.16
2392.99
2393.54
2394.81
2396.8
2399.52
2402.97
2407.15
2412.06
2417.7
2424.05
2431.12
2438.9
2447.38
2456.54
2466.38
2476.88
2488.03
2499.81
2512.2
2525.19
2538.74
2552.85
2567.48
2582.62
2598.23
2614.29
2630.78
2647.66
2664.9
2682.47
2700.35
2718.5
2736.89
2755.48
2774.24
2793.15
2812.15
2831.23
2850.35
2869.46
2888.54
2907.56
2926.48
2945.26
2963.87
2982.28
3000.46
3018.37
3035.99
3053.28
3070.21
3086.75
3102.87
3118.55
3133.75
3148.46
3162.64
3176.27
3189.33
3201.79
3213.63
3224.84
3235.39
3245.27
3254.45
3262.92
3270.67
3277.69
3283.95
3289.46
3294.18
3298.18
3301.28
3303.79
3305.24
3306.16
3105.91
3105.37
3104.07
3102.33
3099.81
3096.86
3093.16
3089.01
3084.15
3078.82
3072.84
3066.36
3059.28
3051.7
3043.58
3034.95
3025.81
3016.19
3006.1
2995.55
2984.56
2973.16
2961.34
2949.15
2936.59
2923.68
2910.45
2896.92
2883.11
2869.04
2854.73
2840.22
2825.52
2810.66
2795.66
2780.55
2765.35
2750.09
2734.8
2719.51
2704.23
2689
2673.84
2658.79
2643.86
2629.08
2614.48
2600.09
2585.93
2572.03
2558.41
2545.1
2532.13
2519.52
2507.29
2495.47
2484.07
2473.14
2462.68
2452.72
2443.28
2434.38
2426.04
2418.29
2411.13
2404.59
2398.69
2393.44
2388.85
2384.95
2381.75
2379.25
2377.47
2376.43
2376.13
2376.59
2377.8
2379.77
2382.49
2385.98
2390.23
2395.24
2401
2407.52
2414.79
2422.8
2431.54
2441
2451.16
2462.02
2473.56
2485.76
2498.6
2512.06
2526.12
2540.76
2555.95
2571.67
2587.89
2604.58
2621.71
2639.26
2657.19
2675.47
2694.06
2712.94
2732.07
2751.41
2770.93
2790.6
2810.38
2830.23
2850.12
2870.02
2889.87
2909.66
2929.35
2948.89
2968.26
2987.42
3006.34
3024.97
3043.3
3061.29
3078.9
3096.11
3112.88
3129.19
3145
3160.3
3175.05
3189.22
3202.8
3215.77
3228.08
3239.74
3250.71
3260.98
3270.52
3279.34
3287.39
3294.69
3301.2
3306.93
3311.84
3316
3319.23
3321.82
3323.34
3324.29
3120.44
3119.88
3118.54
3116.72
3114.11
3111.04
3107.2
3102.88
3097.84
3092.3
3086.08
3079.35
3072
3064.12
3055.67
3046.7
3037.21
3027.2
3016.71
3005.74
2994.32
2982.45
2970.17
2957.48
2944.41
2930.99
2917.22
2903.14
2888.76
2874.11
2859.22
2844.11
2828.79
2813.31
2797.69
2781.94
2766.11
2750.21
2734.27
2718.32
2702.39
2686.5
2670.69
2654.98
2639.39
2623.96
2608.72
2593.69
2578.89
2564.36
2550.12
2536.2
2522.63
2509.42
2496.61
2484.22
2472.28
2460.81
2449.82
2439.36
2429.43
2420.06
2411.27
2403.09
2395.52
2388.6
2382.33
2376.75
2371.85
2367.66
2364.19
2361.46
2359.49
2358.27
2357.85
2358.21
2359.35
2361.28
2364.01
2367.53
2371.85
2376.96
2382.87
2389.56
2397.04
2405.3
2414.32
2424.1
2434.62
2445.87
2457.83
2470.48
2483.81
2497.79
2512.4
2527.62
2543.41
2559.77
2576.64
2594.02
2611.85
2630.13
2648.8
2667.84
2687.21
2706.89
2726.82
2746.98
2767.33
2787.83
2808.45
2829.14
2849.88
2870.61
2891.32
2911.95
2932.46
2952.84
2973.02
2992.99
3012.71
3032.13
3051.23
3069.98
3088.33
3106.26
3123.73
3140.73
3157.2
3173.14
3188.5
3203.27
3217.41
3230.91
3243.74
3255.88
3267.31
3278
3287.95
3297.12
3305.52
3313.11
3319.89
3325.86
3330.98
3335.3
3338.67
3341.36
3342.95
3343.94
3136.13
3135.54
3134.15
3132.26
3129.55
3126.35
3122.36
3117.86
3112.62
3106.85
3100.39
3093.37
3085.73
3077.53
3068.74
3059.4
3049.52
3039.1
3028.18
3016.76
3004.87
2992.51
2979.72
2966.5
2952.89
2938.9
2924.55
2909.87
2894.89
2879.62
2864.09
2848.33
2832.36
2816.22
2799.91
2783.49
2766.96
2750.36
2733.72
2717.07
2700.43
2683.84
2667.32
2650.9
2634.61
2618.48
2602.54
2586.81
2571.33
2556.12
2541.21
2526.63
2512.41
2498.56
2485.13
2472.12
2459.58
2447.52
2435.98
2424.96
2414.5
2404.62
2395.35
2386.7
2378.69
2371.34
2364.69
2358.73
2353.49
2348.99
2345.24
2342.25
2340.04
2338.63
2338.07
2338.32
2339.39
2341.28
2344.01
2347.56
2351.94
2357.17
2363.22
2370.1
2377.81
2386.33
2395.66
2405.78
2416.68
2428.35
2440.76
2453.91
2467.76
2482.31
2497.51
2513.36
2529.81
2546.85
2564.44
2582.55
2601.16
2620.22
2639.7
2659.57
2679.79
2700.32
2721.13
2742.17
2763.42
2784.82
2806.35
2827.96
2849.61
2871.26
2892.87
2914.41
2935.83
2957.1
2978.18
2999.02
3019.6
3039.88
3059.81
3079.38
3098.53
3117.24
3135.47
3153.2
3170.39
3187.02
3203.04
3218.45
3233.21
3247.29
3260.67
3273.33
3285.25
3296.4
3306.77
3316.34
3325.1
3333.02
3340.09
3346.31
3351.65
3356.15
3359.67
3362.46
3364.14
3365.16
3153.02
3152.4
3150.96
3148.98
3146.17
3142.83
3138.68
3133.99
3128.53
3122.52
3115.79
3108.48
3100.52
3091.97
3082.82
3073.09
3062.79
3051.94
3040.55
3028.65
3016.24
3003.36
2990.02
2976.24
2962.04
2947.44
2932.47
2917.16
2901.52
2885.58
2869.37
2852.92
2836.24
2819.38
2802.35
2785.18
2767.91
2750.57
2733.17
2715.76
2698.37
2681.01
2663.73
2646.55
2629.5
2612.61
2595.92
2579.45
2563.23
2547.29
2531.66
2516.37
2501.44
2486.91
2472.8
2459.13
2445.95
2433.26
2421.1
2409.49
2398.46
2388.03
2378.23
2369.07
2360.58
2352.78
2345.69
2339.33
2333.72
2328.88
2324.82
2321.55
2319.08
2317.43
2316.73
2316.87
2317.86
2319.7
2322.41
2325.99
2330.45
2335.78
2341.99
2349.07
2357.02
2365.82
2375.47
2385.96
2397.27
2409.39
2422.3
2435.98
2450.4
2465.55
2481.4
2497.92
2515.09
2532.87
2551.23
2570.15
2589.58
2609.49
2629.85
2650.61
2671.75
2693.21
2714.97
2736.97
2759.19
2781.57
2804.08
2826.67
2849.31
2871.95
2894.55
2917.07
2939.47
2961.71
2983.74
3005.53
3027.04
3048.24
3069.07
3089.52
3109.53
3129.08
3148.13
3166.65
3184.61
3201.98
3218.72
3234.82
3250.23
3264.94
3278.91
3292.14
3304.58
3316.23
3327.06
3337.05
3346.19
3354.47
3361.85
3368.35
3373.92
3378.62
3382.31
3385.21
3386.97
3388.03
3171.17
3170.52
3169.02
3166.95
3164.02
3160.54
3156.21
3151.32
3145.64
3139.36
3132.35
3124.72
3116.42
3107.5
3097.96
3087.8
3077.06
3065.74
3053.86
3041.43
3028.49
3015.04
3001.11
2986.72
2971.89
2956.65
2941.02
2925.02
2908.68
2892.02
2875.08
2857.88
2840.45
2822.81
2805
2787.05
2768.98
2750.83
2732.63
2714.4
2696.19
2678.02
2659.92
2641.92
2624.05
2606.36
2588.86
2571.58
2554.57
2537.85
2521.44
2505.39
2489.71
2474.43
2459.6
2445.23
2431.34
2417.98
2405.16
2392.92
2381.27
2370.24
2359.86
2350.16
2341.15
2332.85
2325.3
2318.51
2312.49
2307.28
2302.88
2299.31
2296.56
2294.57
2293.79
2293.81
2294.69
2296.46
2299.15
2302.75
2307.27
2312.72
2319.1
2326.38
2334.59
2343.69
2353.69
2364.58
2376.33
2388.93
2402.37
2416.61
2431.65
2447.46
2464
2481.25
2499.18
2517.77
2536.97
2556.75
2577.07
2597.91
2619.21
2640.94
2663.07
2685.54
2708.31
2731.35
2754.61
2778.05
2801.62
2825.28
2848.99
2872.69
2896.36
2919.94
2943.39
2966.67
2989.73
3012.54
3035.06
3057.24
3079.04
3100.43
3121.37
3141.83
3161.76
3181.14
3199.92
3218.08
3235.6
3252.42
3268.54
3283.92
3298.53
3312.36
3325.37
3337.55
3348.87
3359.32
3368.88
3377.53
3385.25
3392.04
3397.87
3402.77
3406.63
3409.65
3411.5
3412.61
3190.62
3189.93
3188.38
3186.21
3183.16
3179.52
3175.01
3169.9
3163.97
3157.42
3150.1
3142.14
3133.48
3124.17
3114.2
3103.6
3092.38
3080.55
3068.14
3055.16
3041.64
3027.59
3013.03
2997.99
2982.49
2966.56
2950.21
2933.48
2916.39
2898.97
2881.24
2863.24
2845
2826.54
2807.89
2789.09
2770.17
2751.16
2732.09
2713
2693.91
2674.86
2655.88
2637
2618.27
2599.7
2581.34
2563.21
2545.34
2527.78
2510.54
2493.67
2477.18
2461.12
2445.5
2430.37
2415.74
2401.65
2388.12
2375.19
2362.88
2351.21
2340.21
2329.91
2320.34
2311.51
2303.45
2296.18
2289.73
2284.12
2279.37
2275.51
2272.58
2270.66
2269.36
2269.09
2269.8
2271.48
2274.13
2277.74
2282.34
2287.9
2294.44
2301.95
2310.42
2319.85
2330.22
2341.53
2353.75
2366.87
2380.87
2395.74
2411.44
2427.94
2445.23
2463.27
2482.03
2501.48
2521.58
2542.3
2563.59
2585.41
2607.74
2630.52
2653.71
2677.26
2701.14
2725.3
2749.69
2774.26
2798.98
2823.79
2848.64
2873.5
2898.31
2923.02
2947.61
2972.01
2996.18
3020.09
3043.68
3066.92
3089.76
3112.17
3134.11
3155.53
3176.4
3196.69
3216.36
3235.38
3253.71
3271.33
3288.2
3304.3
3319.59
3334.07
3347.68
3360.43
3372.28
3383.22
3393.22
3402.27
3410.35
3417.46
3423.56
3428.68
3432.73
3435.88
3437.83
3438.98
3211.43
3210.71
3209.09
3206.83
3203.65
3199.84
3195.14
3189.79
3183.6
3176.75
3169.11
3160.79
3151.74
3142.01
3131.6
3120.52
3108.79
3096.43
3083.45
3069.89
3055.75
3041.05
3025.83
3010.09
2993.88
2977.2
2960.09
2942.58
2924.69
2906.44
2887.88
2869.03
2849.92
2830.57
2811.04
2791.33
2771.5
2751.57
2731.57
2711.54
2691.51
2671.53
2651.61
2631.8
2612.13
2592.63
2573.35
2554.3
2535.53
2517.06
2498.94
2481.18
2463.83
2446.92
2430.47
2414.52
2399.09
2384.22
2369.94
2356.27
2343.24
2330.88
2319.22
2308.28
2298.09
2288.68
2280.07
2272.29
2265.36
2259.31
2254.16
2249.94
2246.67
2244.4
2242.94
2242.5
2243.06
2244.64
2247.25
2250.88
2255.54
2261.22
2267.94
2275.68
2284.43
2294.2
2304.97
2316.72
2329.45
2343.13
2357.74
2373.26
2389.67
2406.93
2425.03
2443.91
2463.57
2483.95
2505.02
2526.74
2549.07
2571.96
2595.39
2619.29
2643.63
2668.36
2693.42
2718.78
2744.39
2770.19
2796.13
2822.18
2848.27
2874.36
2900.4
2926.34
2952.14
2977.74
3003.11
3028.19
3052.94
3077.31
3101.27
3124.77
3147.77
3170.23
3192.11
3213.38
3234
3253.93
3273.14
3291.6
3309.27
3326.14
3342.16
3357.32
3371.59
3384.94
3397.36
3408.81
3419.29
3428.77
3437.23
3444.68
3451.07
3456.44
3460.69
3463.97
3466.02
3467.22
3233.67
3232.92
3231.23
3228.85
3225.53
3221.55
3216.64
3211.04
3204.58
3197.41
3189.44
3180.73
3171.27
3161.1
3150.21
3138.62
3126.35
3113.42
3099.85
3085.65
3070.85
3055.47
3039.53
3023.06
3006.08
2988.62
2970.7
2952.35
2933.6
2914.49
2895.03
2875.27
2855.23
2834.95
2814.45
2793.78
2772.97
2752.06
2731.07
2710.04
2689.02
2668.03
2647.11
2626.3
2605.63
2585.14
2564.87
2544.84
2525.1
2505.67
2486.6
2467.91
2449.64
2431.82
2414.48
2397.65
2381.37
2365.67
2350.57
2336.11
2322.31
2309.21
2296.83
2285.2
2274.35
2264.31
2255.11
2246.77
2239.31
2232.77
2227.17
2222.53
2218.89
2216.26
2214.59
2213.95
2214.37
2215.85
2218.41
2222.05
2226.77
2232.58
2239.47
2247.45
2256.51
2266.64
2277.82
2290.06
2303.32
2317.59
2332.86
2349.09
2366.26
2384.33
2403.29
2423.09
2443.7
2465.08
2487.2
2510
2533.45
2557.5
2582.11
2607.22
2632.8
2658.79
2685.13
2711.78
2738.7
2765.81
2793.08
2820.45
2847.87
2875.29
2902.65
2929.91
2957.01
2983.91
3010.55
3036.89
3062.87
3088.47
3113.62
3138.28
3162.42
3185.99
3208.95
3231.26
3252.88
3273.79
3293.93
3313.29
3331.83
3349.51
3366.31
3382.21
3397.17
3411.17
3424.18
3436.19
3447.17
3457.11
3465.99
3473.79
3480.49
3486.12
3490.58
3494.01
3496.17
3497.42
3257.4
3256.61
3254.84
3252.36
3248.89
3244.71
3239.59
3233.73
3226.98
3219.47
3211.13
3202.02
3192.13
3181.48
3170.08
3157.95
3145.11
3131.58
3117.37
3102.5
3087.01
3070.9
3054.2
3036.95
3019.15
3000.85
2982.07
2962.83
2943.18
2923.13
2902.72
2881.99
2860.96
2839.67
2818.16
2796.46
2774.61
2752.64
2730.59
2708.51
2686.41
2664.36
2642.37
2620.49
2598.76
2577.21
2555.88
2534.81
2514.04
2493.59
2473.5
2453.81
2434.56
2415.77
2397.48
2379.73
2362.54
2345.94
2329.97
2314.66
2300.04
2286.14
2272.99
2260.62
2249.06
2238.35
2228.49
2219.54
2211.51
2204.43
2198.33
2193.24
2189.18
2186.19
2184.25
2183.39
2183.64
2185.01
2187.51
2191.14
2195.93
2201.86
2208.94
2217.17
2226.54
2237.05
2248.68
2261.42
2275.26
2290.17
2306.13
2323.12
2341.1
2360.05
2379.93
2400.72
2422.36
2444.82
2468.05
2492.02
2516.67
2541.97
2567.85
2594.27
2621.17
2648.51
2676.23
2704.28
2732.59
2761.13
2789.82
2818.61
2847.46
2876.3
2905.08
2933.75
2962.25
2990.53
3018.53
3046.22
3073.53
3100.42
3126.84
3152.75
3178.1
3202.85
3226.96
3250.38
3273.09
3295.03
3316.17
3336.49
3355.94
3374.49
3392.12
3408.8
3424.49
3439.18
3452.83
3465.43
3476.95
3487.38
3496.7
3504.88
3511.92
3517.81
3522.5
3526.08
3528.36
3529.67
3282.69
3281.85
3280.01
3277.4
3273.78
3269.41
3264.05
3257.91
3250.85
3242.99
3234.26
3224.73
3214.37
3203.22
3191.29
3178.59
3165.14
3150.96
3136.08
3120.5
3104.27
3087.38
3069.89
3051.8
3033.14
3013.95
2994.25
2974.07
2953.44
2932.4
2910.98
2889.21
2867.13
2844.78
2822.18
2799.38
2776.42
2753.33
2730.16
2706.94
2683.71
2660.51
2637.38
2614.37
2591.5
2568.83
2546.38
2524.2
2502.32
2480.78
2459.62
2438.87
2418.57
2398.75
2379.45
2360.71
2342.54
2325
2308.1
2291.89
2276.38
2261.63
2247.65
2234.49
2222.16
2210.71
2200.15
2190.54
2181.88
2174.21
2167.56
2161.96
2157.45
2154.08
2151.84
2150.73
2150.78
2152.01
2154.43
2158.05
2162.88
2168.93
2176.2
2184.69
2194.4
2205.3
2217.41
2230.69
2245.14
2260.73
2277.44
2295.24
2314.09
2333.98
2354.86
2376.69