/*--------------------------------*- C++ -*----------------------------------*\
| =========                 |                                                 |
| \\      /  F ield         | OpenFOAM: The Open Source CFD Toolbox           |
|  \\    /   O peration     | Version:  v2006                                 |
|   \\  /    A nd           | Website:  www.openfoam.com                      |
|    \\/     M anipulation  |                                                 |
\*---------------------------------------------------------------------------*/
FoamFile
{
    version     2.0;
    format      ascii;
    class       volScalarField;
    location    "0";
    object      p;
}
// * * * * * * * * * * * * * * * * * * * * * * * * * * * * * * * * * * * * * //

dimensions      [1 -1 -2 0 0 0 0];


internalField   nonuniform List<scalar> 
20000
(
2.68978e-06
2.70303e-06
2.7348e-06
2.78484e-06
2.85198e-06
2.93604e-06
3.03769e-06
3.15781e-06
3.29718e-06
3.45662e-06
3.63709e-06
3.83969e-06
4.06569e-06
4.31645e-06
4.59353e-06
4.89861e-06
5.23357e-06
5.60046e-06
6.00152e-06
6.43918e-06
6.9161e-06
7.43515e-06
7.99947e-06
8.61246e-06
9.27778e-06
9.99943e-06
1.07817e-05
1.16293e-05
1.25473e-05
1.35412e-05
1.46169e-05
1.5781e-05
1.70405e-05
1.84031e-05
1.9877e-05
2.14712e-05
2.31952e-05
2.50597e-05
2.70757e-05
2.92553e-05
3.16116e-05
3.41587e-05
3.69117e-05
3.9887e-05
4.31023e-05
4.65768e-05
5.0331e-05
5.43872e-05
5.87693e-05
6.35031e-05
6.86166e-05
7.41396e-05
8.01044e-05
8.65457e-05
9.35008e-05
0.00010101
0.000109116
0.000117865
0.000127307
0.000137495
0.000148486
0.000160341
0.000173125
0.000186907
0.000201763
0.000217771
0.000235016
0.000253586
0.000273578
0.000295093
0.000318236
0.000343139
0.000369922
0.000398672
0.000429512
0.000462588
0.00049804
0.000536011
0.000576645
0.000620089
0.000666489
0.000715992
0.000768741
0.000824875
0.000884512
0.000947752
0.00101467
0.00108533
0.00115978
0.00123802
0.00132
0.00140555
0.00149448
0.00158658
0.00168363
0.00180916
0.00191447
0.00200822
0.00209635
0.00218538
0.00227641
0.00236766
0.00245787
0.00254673
0.00263472
0.00272333
0.00281564
0.00291728
0.00303724
0.00318799
0.00338448
0.00364096
0.00396547
0.00435312
0.00478377
0.00523116
0.00568126
0.00614571
0.00665939
0.00726652
0.00800815
0.00891389
0.0100017
0.0112826
0.0127629
0.014442
0.0163095
0.0183453
0.0205182
0.022785
0.0250938
0.0273927
0.0296372
0.0317854
0.0338284
0.0357188
0.0374586
0.0390422
0.0404669
0.0417321
0.0428366
0.0437788
0.0445554
0.0451619
0.0455922
0.0458409
0.0459301
0.045792
0.045415
0.044811
0.0439695
0.042877
0.0415221
0.0399002
0.0380145
0.0358778
0.0335282
0.0309951
0.0283345
0.0256053
0.0228673
0.020174
0.0175673
0.015075
0.0127122
0.0104876
0.00841108
0.00649703
0.0047629
0.00322677
0.00189897
0.000794574
-0.000106703
-0.00080269
-0.00131099
-0.00166112
-0.00189632
-0.00206345
-0.00219902
-0.00231769
-0.00240993
-0.00245201
-0.00242361
-0.00231991
-0.00214997
-0.00192787
-0.00166695
-0.00137793
-0.00106784
-0.000739579
-0.000392375
-2.2424e-05
0.000376582
0.000813155
0.00129742
0.00184213
0.00245835
0.00317217
0.00396855
0.00503433
2.68646e-06
2.69972e-06
2.73111e-06
2.7808e-06
2.8477e-06
2.93154e-06
3.03296e-06
3.15282e-06
3.29187e-06
3.45094e-06
3.63095e-06
3.83302e-06
4.05837e-06
4.30839e-06
4.58459e-06
4.88869e-06
5.22254e-06
5.58821e-06
5.98793e-06
6.42416e-06
6.89958e-06
7.41709e-06
7.97989e-06
8.59139e-06
9.25533e-06
9.97573e-06
1.0757e-05
1.16037e-05
1.25211e-05
1.35147e-05
1.45905e-05
1.57548e-05
1.70147e-05
1.83778e-05
1.98522e-05
2.14468e-05
2.31712e-05
2.50356e-05
2.70512e-05
2.92302e-05
3.15854e-05
3.41311e-05
3.68823e-05
3.98556e-05
4.30687e-05
4.65407e-05
5.02923e-05
5.43457e-05
5.87249e-05
6.34557e-05
6.85661e-05
7.4086e-05
8.00477e-05
8.64858e-05
9.34378e-05
0.000100944
0.000109047
0.000117794
0.000127233
0.00013742
0.000148409
0.000160263
0.000173047
0.000186831
0.000201688
0.000217698
0.000234946
0.00025352
0.000273517
0.000295035
0.000318182
0.00034306
0.000369784
0.000398491
0.000429313
0.000462375
0.000497814
0.000535771
0.000576392
0.000619823
0.00066621
0.0007157
0.000768437
0.00082456
0.000884189
0.000947422
0.00101434
0.001085
0.00115944
0.00123767
0.0013196
0.0014052
0.00149455
0.00158772
0.001682
0.00175964
0.00184621
0.001944
0.0020485
0.00215224
0.00225213
0.00234785
0.00244012
0.00252998
0.00261871
0.0027081
0.00280141
0.00290431
0.00302573
0.00317798
0.00337566
0.00363259
0.00395638
0.00434203
0.00476983
0.00521447
0.00566314
0.00612835
0.00664503
0.00725685
0.00800372
0.0089145
0.010007
0.0112924
0.0127776
0.0144621
0.0163354
0.018377
0.0205553
0.0228261
0.0251373
0.0274368
0.029678
0.0318265
0.0338478
0.0357363
0.037475
0.0390577
0.0404819
0.0417466
0.0428507
0.0437922
0.0445678
0.0451724
0.0455992
0.0458383
0.0458655
0.0457011
0.0453391
0.0447513
0.0439204
0.0428349
0.0414867
0.039872
0.0379947
0.0358662
0.0335266
0.031004
0.0283545
0.025637
0.0229106
0.020228
0.0176302
0.0151436
0.0127825
0.0105552
0.0084716
0.0065474
0.0048017
0.00325139
0.0019107
0.000783989
-0.000120229
-0.000816336
-0.00132295
-0.00167032
-0.00190201
-0.0020663
-0.00220076
-0.00232018
-0.00241426
-0.00245794
-0.00242999
-0.00232566
-0.00215461
-0.00193138
-0.00166953
-0.0013799
-0.00106954
-0.000741338
-0.000394465
-2.50756e-05
0.000373175
0.000808822
0.001292
0.00183549
0.00245034
0.00316265
0.0039574
0.00502136
2.68355e-06
2.69724e-06
2.72889e-06
2.77875e-06
2.84579e-06
2.92972e-06
3.03119e-06
3.15107e-06
3.29014e-06
3.44921e-06
3.62923e-06
3.83132e-06
4.05671e-06
4.30679e-06
4.5831e-06
4.88733e-06
5.22136e-06
5.58724e-06
5.98722e-06
6.42374e-06
6.89945e-06
7.41726e-06
7.98031e-06
8.59202e-06
9.25607e-06
9.97645e-06
1.07575e-05
1.16038e-05
1.25206e-05
1.35133e-05
1.45878e-05
1.57506e-05
1.70087e-05
1.83696e-05
1.98416e-05
2.14336e-05
2.31551e-05
2.50165e-05
2.70291e-05
2.92048e-05
3.15568e-05
3.40992e-05
3.68471e-05
3.98169e-05
4.30264e-05
4.64946e-05
5.02421e-05
5.42912e-05
5.86658e-05
6.33916e-05
6.84966e-05
7.40105e-05
7.99658e-05
8.63969e-05
9.33413e-05
0.000100839
0.000108933
0.00011767
0.000127098
0.000137272
0.000148249
0.000160088
0.000172856
0.000186622
0.000201461
0.000217451
0.000234678
0.00025323
0.000273204
0.0002947
0.000317826
0.00034269
0.000369407
0.000398105
0.000428908
0.000461947
0.000497361
0.000535292
0.000575887
0.000619291
0.000665652
0.000715116
0.00076783
0.000823931
0.000883543
0.000946762
0.00101366
0.00108431
0.00115876
0.00123703
0.00131909
0.00140469
0.00149324
0.00158406
0.00167823
0.00177543
0.00188324
0.00198833
0.00208922
0.00218593
0.00227944
0.00237066
0.00246002
0.00254792
0.00263497
0.00272251
0.00281337
0.00291303
0.00303045
0.00317839
0.00337236
0.00362756
0.00395294
0.00434365
0.00477774
0.00522593
0.00567232
0.00612939
0.00663397
0.00723306
0.00796852
0.00887005
0.00995505
0.0112345
0.0127155
0.014398
0.0162716
0.0183164
0.0205012
0.0227813
0.0251033
0.0274138
0.0296666
0.0318267
0.0338612
0.0357566
0.0374988
0.0390836
0.0405091
0.041775
0.0428807
0.0438246
0.0446035
0.0452132
0.045648
0.045902
0.0459599
0.0458181
0.0454564
0.0448628
0.0440268
0.0429368
0.0415831
0.0399605
0.0380723
0.0359395
0.0335705
0.0310272
0.0283547
0.0256139
0.022866
0.0201655
0.0175545
0.0150596
0.0126945
0.0104659
0.00838306
0.00646131
0.00471997
0.00317649
0.00184523
0.000730445
-0.000165669
-0.000854938
-0.00135389
-0.00169292
-0.00191606
-0.00207371
-0.00220531
-0.0023259
-0.00242348
-0.00247025
-0.00244307
-0.00233737
-0.00216401
-0.00193846
-0.00167472
-0.00138384
-0.00107295
-0.000744864
-0.000398654
-3.03861e-05
0.000366354
0.000800153
0.00128118
0.00182221
0.00243433
0.0031436
0.0039351
0.00499543
2.67919e-06
2.69279e-06
2.72429e-06
2.77393e-06
2.84073e-06
2.92439e-06
3.02558e-06
3.14514e-06
3.28386e-06
3.44256e-06
3.62216e-06
3.82377e-06
4.04863e-06
4.29812e-06
4.57375e-06
4.87723e-06
5.21041e-06
5.57535e-06
5.97427e-06
6.40961e-06
6.88404e-06
7.40045e-06
7.96199e-06
8.57208e-06
9.23442e-06
9.953e-06
1.07322e-05
1.15766e-05
1.24914e-05
1.34821e-05
1.45547e-05
1.57155e-05
1.69716e-05
1.83305e-05
1.98004e-05
2.13903e-05
2.31095e-05
2.49686e-05
2.69786e-05
2.91516e-05
3.15005e-05
3.40394e-05
3.67834e-05
3.9749e-05
4.29538e-05
4.64168e-05
5.01587e-05
5.42017e-05
5.85695e-05
6.32881e-05
6.83853e-05
7.38908e-05
7.9837e-05
8.62584e-05
9.31924e-05
0.000100679
0.000108761
0.000117485
0.0001269
0.00013706
0.000148021
0.000159844
0.000172595
0.000186343
0.000201162
0.000217132
0.000234336
0.000252864
0.000272812
0.00029428
0.000317373
0.000342202
0.000368883
0.000397542
0.000428306
0.000461307
0.000496681
0.000534573
0.000575129
0.000618494
0.000664815
0.000714241
0.000766918
0.000822987
0.000882572
0.00094577
0.00101266
0.0010833
0.00115775
0.001236
0.00131797
0.00140355
0.00149272
0.00158539
0.00168057
0.00177381
0.00186865
0.00196388
0.0020611
0.00215897
0.00225551
0.00234971
0.00244136
0.00253082
0.00261881
0.00270668
0.0027972
0.0028957
0.00301114
0.00315647
0.00334785
0.00360164
0.00392817
0.00432294
0.00476201
0.00521245
0.00565612
0.00610625
0.00660303
0.00719568
0.00792789
0.00882903
0.00991527
0.0111971
0.0126823
0.014371
0.0162531
0.0183089
0.0205067
0.0228009
0.0251357
0.0274561
0.0297151
0.0318768
0.0339115
0.035805
0.0375458
0.0391293
0.0405538
0.0418187
0.0429234
0.0438661
0.0446433
0.0452501
0.0456799
0.045925
0.0459731
0.0458216
0.0454591
0.0448715
0.0440436
0.0429615
0.0416145
0.0399971
0.0381119
0.0359713
0.0336092
0.0310612
0.0283828
0.0256361
0.0228833
0.02018
0.0175683
0.0150738
0.0127082
0.0104765
0.00838702
0.00645598
0.00470414
0.00315033
0.0018094
0.00068808
-0.000211526
-0.000899313
-0.00139239
-0.00172129
-0.00193306
-0.00208187
-0.00221002
-0.00233308
-0.00243658
-0.00248841
-0.00246256
-0.0023548
-0.00217796
-0.00194893
-0.00168235
-0.0013896
-0.00107793
-0.000750038
-0.000404838
-3.82654e-05
0.000356199
0.000787217
0.001265
0.00180234
0.00241035
0.00311508
0.00390168
0.00495656
2.67333e-06
2.68684e-06
2.71828e-06
2.76785e-06
2.83455e-06
2.9181e-06
3.01913e-06
3.1385e-06
3.27699e-06
3.43541e-06
3.6147e-06
3.81595e-06
4.04041e-06
4.28945e-06
4.56459e-06
4.86754e-06
5.20015e-06
5.56448e-06
5.96275e-06
6.39739e-06
6.87107e-06
7.38667e-06
7.94734e-06
8.55648e-06
9.21778e-06
9.93521e-06
1.07131e-05
1.15561e-05
1.24694e-05
1.34582e-05
1.45287e-05
1.56872e-05
1.69407e-05
1.82967e-05
1.97634e-05
2.13496e-05
2.30649e-05
2.49196e-05
2.69248e-05
2.90926e-05
3.14359e-05
3.39687e-05
3.67063e-05
3.9665e-05
4.28624e-05
4.63175e-05
5.0051e-05
5.40848e-05
5.8443e-05
6.31513e-05
6.82373e-05
7.37309e-05
7.96642e-05
8.60719e-05
9.2991e-05
0.000100462
0.000108527
0.000117232
0.000126628
0.000136766
0.000147705
0.000159504
0.000172229
0.000185949
0.000200739
0.000216677
0.000233849
0.000252343
0.000272254
0.000293684
0.000316738
0.000341527
0.000368166
0.000396782
0.0004275
0.000460451
0.000495775
0.000533615
0.000574118
0.000617431
0.0006637
0.000713073
0.000765701
0.000821728
0.000881278
0.000944449
0.00101131
0.00108194
0.00115638
0.00123468
0.00131681
0.00140259
0.00149157
0.00158316
0.001677
0.00177213
0.00187213
0.00197512
0.00207797
0.00217841
0.00227522
0.00236845
0.00245866
0.00254656
0.00263285
0.00271855
0.00280605
0.00290038
0.00301048
0.0031498
0.00333574
0.00358669
0.00391523
0.0043173
0.00476544
0.00522024
0.00565891
0.00609562
0.00657454
0.00714983
0.00786791
0.00875861
0.00983689
0.0111128
0.0125951
0.0142848
0.016172
0.0182376
0.0204504
0.0227631
0.0251174
0.0274557
0.0297305
0.031905
0.0339504
0.0358509
0.0375962
0.0391824
0.0406087
0.0418754
0.0429824
0.0439284
0.0447103
0.0453233
0.0457616
0.0460172
0.0460786
0.0459387
0.0455849
0.0450017
0.0441756
0.0430933
0.0417435
0.0401197
0.0382237
0.0360706
0.0336827
0.0311077
0.0284003
0.0256246
0.0228457
0.0201215
0.0174952
0.0149922
0.0126217
0.0103861
0.00829215
0.00635683
0.00460232
0.00304846
0.00171019
0.000594931
-0.000296699
-0.000974446
-0.00145409
-0.00176591
-0.00195997
-0.00209518
-0.00221766
-0.00234364
-0.00245506
-0.00251366
-0.00248937
-0.00237855
-0.0021968
-0.00196297
-0.00169251
-0.00139726
-0.00108454
-0.000756907
-0.000413061
-4.8756e-05
0.000342673
0.000769985
0.00124344
0.00177587
0.00237841
0.00307708
0.00385717
0.00490476
2.66598e-06
2.67943e-06
2.71081e-06
2.76026e-06
2.82677e-06
2.91008e-06
3.01081e-06
3.12983e-06
3.26791e-06
3.42586e-06
3.60461e-06
3.80527e-06
4.02906e-06
4.27736e-06
4.55169e-06
4.85374e-06
5.18536e-06
5.54859e-06
5.94566e-06
6.37898e-06
6.8512e-06
7.36521e-06
7.92413e-06
8.53135e-06
9.19057e-06
9.90574e-06
1.06812e-05
1.15216e-05
1.2432e-05
1.34179e-05
1.44852e-05
1.56403e-05
1.68901e-05
1.82423e-05
1.97048e-05
2.12867e-05
2.29974e-05
2.48471e-05
2.6847e-05
2.90092e-05
3.13464e-05
3.38728e-05
3.66034e-05
3.95545e-05
4.27437e-05
4.61901e-05
4.99139e-05
5.39375e-05
5.82844e-05
6.29806e-05
6.80535e-05
7.3533e-05
7.94511e-05
8.58424e-05
9.27439e-05
0.000100195
0.00010824
0.000116924
0.000126296
0.000136409
0.00014732
0.00015909
0.000171784
0.000185471
0.000200226
0.000216126
0.000233257
0.000251708
0.000271574
0.000292956
0.000315959
0.000340694
0.000367279
0.000395836
0.000426494
0.000459383
0.000494643
0.000532418
0.000572855
0.000616102
0.000662305
0.000711613
0.00076418
0.000820152
0.000879658
0.000942793
0.00100963
0.00108024
0.00115469
0.00123301
0.00131513
0.00140088
0.00149001
0.00158229
0.00167732
0.00177366
0.00187224
0.00197181
0.0020707
0.00216819
0.00226349
0.00235618
0.00244636
0.00253437
0.00262054
0.00270547
0.00279106
0.00288197
0.00298704
0.00312018
0.00330016
0.00354785
0.00387875
0.00428979
0.0047494
0.00521007
0.00564363
0.00606578
0.00652684
0.00708621
0.00779364
0.00867892
0.00975479
0.0110304
0.0125156
0.0142123
0.0161108
0.0181926
0.0204267
0.0227636
0.0251413
0.0274992
0.0297886
0.0319726
0.0340237
0.0359263
0.0376718
0.0392571
0.0406823
0.0419481
0.0430546
0.0440001
0.0447815
0.0453938
0.0458307
0.0460845
0.0461451
0.0460051
0.0456535
0.0450753
0.0442561
0.0431808
0.0418366
0.0402155
0.0383176
0.0361501
0.0337566
0.0311639
0.0284358
0.025639
0.0228418
0.0201042
0.0174703
0.0149642
0.0125919
0.010352
0.00824975
0.00630327
0.00453736
0.00297361
0.00162808
0.000509725
-0.000381027
-0.00105308
-0.00152091
-0.00181445
-0.001988
-0.00210725
-0.00222368
-0.00235458
-0.00247724
-0.00254521
-0.00252307
-0.0024082
-0.00222013
-0.00198018
-0.00170483
-0.00140643
-0.00109244
-0.000765178
-0.000423067
-6.16334e-05
0.00032597
0.000748625
0.00121666
0.00174294
0.00233862
0.00302969
0.00380162
0.00484008
2.65717e-06
2.67057e-06
2.70185e-06
2.75115e-06
2.81744e-06
2.90047e-06
3.00088e-06
3.11951e-06
3.25715e-06
3.41459e-06
3.59277e-06
3.79278e-06
4.01586e-06
4.26337e-06
4.53682e-06
4.83791e-06
5.16847e-06
5.53056e-06
5.92637e-06
6.35833e-06
6.82907e-06
7.34147e-06
7.89865e-06
8.504e-06
9.16117e-06
9.87414e-06
1.06472e-05
1.1485e-05
1.23927e-05
1.33755e-05
1.44395e-05
1.5591e-05
1.68369e-05
1.81848e-05
1.96427e-05
2.12195e-05
2.29247e-05
2.47684e-05
2.67617e-05
2.89167e-05
3.12463e-05
3.37642e-05
3.64857e-05
3.94271e-05
4.26057e-05
4.60406e-05
4.97521e-05
5.37624e-05
5.80952e-05
6.2776e-05
6.78325e-05
7.32943e-05
7.91934e-05
8.55642e-05
9.24438e-05
9.98718e-05
0.000107891
0.000116548
0.000125891
0.000135973
0.000146851
0.000158586
0.000171242
0.000184889
0.0001996
0.000215456
0.000232538
0.000250938
0.00027075
0.000292075
0.000315018
0.000339691
0.00036621
0.0003947
0.000425286
0.000458101
0.000493284
0.000530981
0.000571339
0.000614507
0.000660631
0.00070986
0.000762352
0.00081826
0.000877713
0.000940808
0.00100761
0.00107819
0.00115263
0.00123098
0.00131323
0.0013992
0.00148854
0.00158076
0.00167539
0.00177171
0.00187081
0.00197231
0.00207419
0.00217468
0.00227223
0.00236616
0.00245672
0.00254447
0.00262975
0.00271283
0.00279511
0.00288083
0.00297871
0.00310327
0.00327501
0.003518
0.00385173
0.00427454
0.00474933
0.00521762
0.00564384
0.00604552
0.00648033
0.00701549
0.00770492
0.00857833
0.00964564
0.0109151
0.0123984
0.0140989
0.0160068
0.0181049
0.0203629
0.0227289
0.0251357
0.0275193
0.0298296
0.0320295
0.034092
0.0360016
0.0377512
0.0393388
0.0407656
0.042033
0.0431418
0.0440908
0.0448769
0.0454953
0.0459397
0.0462022
0.0462729
0.046143
0.0458008
0.045231
0.0444183
0.0433472
0.0420035
0.0403779
0.0384691
0.0362929
0.0338615
0.0312353
0.0284696
0.0256351
0.0228043
0.0200406
0.0173898
0.0148748
0.0124977
0.0102522
0.00814123
0.00618462
0.00441014
0.00284101
0.00149417
0.000379461
-0.000503509
-0.00116351
-0.00161256
-0.00188021
-0.00202578
-0.00212344
-0.00223137
-0.00236821
-0.00250517
-0.00258489
-0.00256503
-0.00244465
-0.00224848
-0.00200091
-0.00171954
-0.00141733
-0.00110182
-0.000775032
-0.000435027
-7.70514e-05
0.000305961
0.000723036
0.00118459
0.00170349
0.00229095
0.00297293
0.00373506
0.00476254
2.6469e-06
2.66024e-06
2.69141e-06
2.74052e-06
2.80656e-06
2.88928e-06
2.9893e-06
3.10748e-06
3.24459e-06
3.40143e-06
3.57891e-06
3.77815e-06
4.00035e-06
4.2469e-06
4.51928e-06
4.81919e-06
5.14847e-06
5.50914e-06
5.9034e-06
6.33367e-06
6.80256e-06
7.31293e-06
7.8679e-06
8.47084e-06
9.12539e-06
9.83551e-06
1.06055e-05
1.144e-05
1.2344e-05
1.33229e-05
1.43827e-05
1.55296e-05
1.67706e-05
1.81131e-05
1.95653e-05
2.1136e-05
2.28345e-05
2.46711e-05
2.66568e-05
2.88035e-05
3.11242e-05
3.36327e-05
3.6344e-05
3.92743e-05
4.24411e-05
4.58632e-05
4.9561e-05
5.35565e-05
5.78733e-05
6.25369e-05
6.75749e-05
7.30167e-05
7.88943e-05
8.5242e-05
9.20966e-05
9.94979e-05
0.000107488
0.000116114
0.000125424
0.00013547
0.00014631
0.000158004
0.000170616
0.000184216
0.000198878
0.00021468
0.000231706
0.000250046
0.000269794
0.000291052
0.000313924
0.000338524
0.000364967
0.000393376
0.000423879
0.000456607
0.0004917
0.000529304
0.00056957
0.000612646
0.000658677
0.000707815
0.000760219
0.000816049
0.000875441
0.000938487
0.00100525
0.0010758
0.00115024
0.00122863
0.00131096
0.00139703
0.00148647
0.00157894
0.00167411
0.00177148
0.00187139
0.0019731
0.0020745
0.00217388
0.00227007
0.00236264
0.00245201
0.00253876
0.00262292
0.00270414
0.00278303
0.00286317
0.002953
0.00306759
0.00322942
0.00346643
0.00380335
0.0042409
0.00473533
0.00521411
0.00563229
0.00601049
0.00641623
0.00692541
0.00759746
0.0084616
0.00952338
0.0107896
0.0122747
0.013983
0.0159049
0.0180246
0.0203129
0.0227144
0.0251559
0.0275685
0.029901
0.0321166
0.0341888
0.0361032
0.0378542
0.0394416
0.0408676
0.0421345
0.0432434
0.0441931
0.0449805
0.0456005
0.0460468
0.0463118
0.0463861
0.0462608
0.0459246
0.0453622
0.0445578
0.0434945
0.0421563
0.0405314
0.0386167
0.0364215
0.0339717
0.0313149
0.0285139
0.0256438
0.0227816
0.0199949
0.017331
0.014811
0.012432
0.0101815
0.00805923
0.0060878
0.00429914
0.0027187
0.00136485
0.000248878
-0.000630099
-0.00128051
-0.00171124
-0.00195044
-0.00206386
-0.0021366
-0.00223543
-0.00238106
-0.00253706
-0.00263204
-0.00261487
-0.00248737
-0.00228119
-0.00202443
-0.00173589
-0.0014292
-0.001112
-0.000785851
-0.000448395
-9.45393e-05
0.000283046
0.000693556
0.00114749
0.00165776
0.0022356
0.00290692
0.00365759
0.0046722
2.63518e-06
2.64845e-06
2.67949e-06
2.7284e-06
2.79415e-06
2.87651e-06
2.97609e-06
3.09375e-06
3.23026e-06
3.3864e-06
3.56311e-06
3.76146e-06
3.98269e-06
4.22814e-06
4.49933e-06
4.79792e-06
5.12575e-06
5.48484e-06
5.87737e-06
6.30575e-06
6.77258e-06
7.28072e-06
7.83325e-06
8.43354e-06
9.08522e-06
9.79224e-06
1.05589e-05
1.13897e-05
1.22898e-05
1.32645e-05
1.43196e-05
1.54616e-05
1.66972e-05
1.8034e-05
1.94799e-05
2.10438e-05
2.27349e-05
2.45635e-05
2.65406e-05
2.86781e-05
3.09886e-05
3.34862e-05
3.61857e-05
3.91032e-05
4.22563e-05
4.56635e-05
4.93453e-05
5.33234e-05
5.76216e-05
6.22651e-05
6.72814e-05
7.26999e-05
7.85525e-05
8.48732e-05
9.16988e-05
9.9069e-05
0.000107026
0.000115616
0.000124887
0.000134893
0.000145689
0.000157335
0.000169898
0.000183444
0.000198049
0.00021379
0.000230752
0.000249024
0.0002687
0.000289881
0.000312674
0.000337189
0.000363544
0.000391863
0.000422271
0.000454899
0.000489889
0.000527389
0.000567549
0.000610519
0.000656444
0.000705475
0.000757777
0.00081352
0.000872842
0.000935833
0.00100255
0.00107307
0.00114748
0.00122591
0.00130836
0.00139464
0.00148436
0.00157709
0.00167246
0.00177011
0.00187033
0.00197264
0.00207515
0.00217595
0.00227347
0.00236703
0.00245698
0.00254395
0.00262773
0.00270735
0.00278263
0.00285639
0.00293672
0.0030393
0.00318886
0.00341808
0.00375852
0.00421445
0.00473392
0.00522609
0.00563394
0.00598231
0.00635096
0.00682688
0.00747627
0.00832735
0.00937979
0.0106388
0.0121224
0.0138369
0.0157721
0.0179144
0.0202366
0.0226793
0.0251613
0.0276083
0.0299676
0.0322027
0.0342879
0.0362096
0.0379641
0.039553
0.0409797
0.0422478
0.0433588
0.044312
0.0451041
0.0457302
0.0461838
0.0464572
0.0465413
0.0464266
0.0461012
0.0455498
0.0447556
0.0437002
0.0423657
0.0407382
0.0388119
0.0365952
0.0341117
0.0314119
0.0285624
0.0256433
0.0227379
0.0199187
0.0172353
0.0147072
0.012325
0.0100681
0.0079328
0.00594505
0.00414212
0.00255168
0.00119337
7.99269e-05
-0.000790735
-0.00142736
-0.00183407
-0.002037
-0.00210976
-0.00215103
-0.00223828
-0.00239495
-0.00257503
-0.00268891
-0.00267444
-0.00253761
-0.00231914
-0.00205145
-0.00175449
-0.00144265
-0.00112354
-0.000798179
-0.000463667
-0.000114527
0.000256874
0.000659913
0.00110518
0.00160563
0.00217251
0.00283168
0.00356925
0.00456912
2.622e-06
2.63521e-06
2.6661e-06
2.71478e-06
2.78021e-06
2.86216e-06
2.96126e-06
3.07833e-06
3.21416e-06
3.36953e-06
3.54535e-06
3.74272e-06
3.96284e-06
4.20707e-06
4.4769e-06
4.774e-06
5.1002e-06
5.4575e-06
5.84808e-06
6.27431e-06
6.73881e-06
7.2444e-06
7.79416e-06
8.39142e-06
9.03983e-06
9.74329e-06
1.05061e-05
1.13327e-05
1.22283e-05
1.31981e-05
1.4248e-05
1.53842e-05
1.66136e-05
1.79437e-05
1.93824e-05
2.09384e-05
2.26211e-05
2.44407e-05
2.64079e-05
2.85348e-05
3.08339e-05
3.33192e-05
3.60054e-05
3.89087e-05
4.20464e-05
4.54371e-05
4.9101e-05
5.30599e-05
5.73373e-05
6.19586e-05
6.69509e-05
7.23436e-05
7.81683e-05
8.44592e-05
9.12527e-05
9.85882e-05
0.000106508
0.000115058
0.000124287
0.000134246
0.000144993
0.000156587
0.000169093
0.00018258
0.00019712
0.000212793
0.000229683
0.000247877
0.000267472
0.000288567
0.000311269
0.000335689
0.000361947
0.000390162
0.000420463
0.000452979
0.000487853
0.000525234
0.000565276
0.000608127
0.000653931
0.000702841
0.000755028
0.00081067
0.000869913
0.000932844
0.000999509
0.00106998
0.00114437
0.00122285
0.00130544
0.00139192
0.00148186
0.00157482
0.00167051
0.0017688
0.00186992
0.00197323
0.00207667
0.00217793
0.00227529
0.0023681
0.00245703
0.00254295
0.00262545
0.00270279
0.00277372
0.00284005
0.00290929
0.0029976
0.00313213
0.0033512
0.00369519
0.00417381
0.00472521
0.00523509
0.0056312
0.00594432
0.00626992
0.00670858
0.00733441
0.00817386
0.00921831
0.0104709
0.0119548
0.0136781
0.0156296
0.0177989
0.0201614
0.0226529
0.0251821
0.0276679
0.0300565
0.0323123
0.0344103
0.0363381
0.0380946
0.0396834
0.0411094
0.0423772
0.043489
0.0444441
0.0452392
0.045869
0.0463272
0.046606
0.0466968
0.04659
0.046274
0.0457333
0.0449502
0.0439049
0.0425771
0.0409499
0.0390147
0.0367767
0.034261
0.0315174
0.0286171
0.0256468
0.0226966
0.0198448
0.017144
0.0146113
0.0122293
0.0099671
0.00781642
0.00580818
0.00398672
0.00238219
0.00101581
-9.76483e-05
-0.000961902
-0.0015863
-0.00196828
-0.00213036
-0.00215586
-0.00216045
-0.00223493
-0.00240665
-0.00261779
-0.00275533
-0.00274343
-0.00259446
-0.00236103
-0.00208047
-0.00177379
-0.00145614
-0.00113503
-0.00081074
-0.000479733
-0.000136074
0.000228218
0.000622733
0.00105816
0.00154747
0.00210196
0.00274738
0.00347016
0.00445335
2.60739e-06
2.62053e-06
2.65125e-06
2.69967e-06
2.76475e-06
2.84625e-06
2.9448e-06
3.06123e-06
3.19631e-06
3.35081e-06
3.52566e-06
3.72192e-06
3.94082e-06
4.18369e-06
4.45203e-06
4.74748e-06
5.07187e-06
5.42718e-06
5.81559e-06
6.23946e-06
6.70138e-06
7.20416e-06
7.75085e-06
8.34479e-06
8.98958e-06
9.68912e-06
1.04477e-05
1.12698e-05
1.21603e-05
1.31248e-05
1.41688e-05
1.52988e-05
1.65215e-05
1.78442e-05
1.9275e-05
2.08225e-05
2.2496e-05
2.43055e-05
2.6262e-05
2.83772e-05
3.06638e-05
3.31355e-05
3.58071e-05
3.86945e-05
4.18151e-05
4.51874e-05
4.88314e-05
5.27689e-05
5.70232e-05
6.16196e-05
6.6585e-05
7.19489e-05
7.77426e-05
8.39999e-05
9.07575e-05
9.80544e-05
0.000105933
0.000114438
0.000123619
0.000133528
0.00014422
0.000155755
0.000168198
0.000181618
0.000196088
0.000211685
0.000228494
0.000246603
0.000266107
0.000287107
0.000309708
0.000334024
0.000360172
0.000388274
0.000418455
0.000450847
0.000485591
0.000522839
0.000562749
0.000605469
0.000651139
0.000699913
0.000751968
0.000807497
0.000866654
0.000929519
0.000996125
0.00106653
0.0011409
0.00121942
0.00130216
0.00138889
0.00147915
0.00157242
0.00166845
0.00176725
0.00186904
0.00197321
0.00207766
0.00217989
0.00227788
0.00237094
0.00245992
0.0025459
0.00262816
0.00270399
0.00277088
0.00282942
0.00288634
0.00295812
0.00307456
0.00328057
0.00362793
0.0041344
0.00472625
0.00525877
0.00564043
0.00591048
0.00618409
0.00657815
0.00717661
0.00800308
0.0090375
0.0102806
0.0117629
0.0134944
0.0154622
0.0176603
0.0200682
0.0226156
0.0251988
0.0277284
0.03015
0.0324294
0.0345418
0.0364769
0.0382359
0.039825
0.0412508
0.0425191
0.0436328
0.0445914
0.0453914
0.0460277
0.0464935
0.0467812
0.0468824
0.0467874
0.0464843
0.0459575
0.045188
0.0441544
0.0428337
0.041206
0.0392589
0.0369952
0.0344388
0.0316412
0.0286789
0.0256457
0.0226403
0.0197483
0.0170258
0.0144877
0.0121068
0.0098388
0.00766982
0.00563772
0.00379589
0.00217678
0.000803077
-0.000307973
-0.00116296
-0.00177287
-0.00212557
-0.0022383
-0.00220631
-0.00216631
-0.00222549
-0.00241662
-0.00266729
-0.00283422
-0.0028245
-0.00265997
-0.00240862
-0.00211316
-0.00179538
-0.00147123
-0.00114797
-0.00082491
-0.000497797
-0.000160185
0.000196287
0.00058143
0.00100603
0.00148306
0.00202385
0.00265405
0.0033604
0.00432502
2.59134e-06
2.60441e-06
2.63495e-06
2.68309e-06
2.74778e-06
2.82878e-06
2.92673e-06
3.04245e-06
3.1767e-06
3.33026e-06
3.50404e-06
3.6991e-06
3.91665e-06
4.15803e-06
4.42472e-06
4.71836e-06
5.04076e-06
5.3939e-06
5.77993e-06
6.2012e-06
6.66028e-06
7.15996e-06
7.70329e-06
8.29356e-06
8.93437e-06
9.62961e-06
1.03835e-05
1.12005e-05
1.20857e-05
1.30442e-05
1.40818e-05
1.52049e-05
1.642e-05
1.77347e-05
1.91567e-05
2.06948e-05
2.2358e-05
2.41566e-05
2.61011e-05
2.82035e-05
3.04762e-05
3.29329e-05
3.55883e-05
3.84584e-05
4.15602e-05
4.49122e-05
4.85344e-05
5.24484e-05
5.66774e-05
6.12465e-05
6.61826e-05
7.15149e-05
7.72746e-05
8.34954e-05
9.02136e-05
9.74683e-05
0.000105301
0.000113758
0.000122887
0.000132739
0.000143371
0.000154842
0.000167217
0.000180563
0.000194955
0.000210469
0.000227189
0.000245204
0.000264609
0.000285503
0.000307994
0.000332194
0.000358221
0.000386198
0.000416249
0.000448503
0.000483104
0.000520206
0.000559971
0.000602545
0.000648068
0.000696689
0.000748596
0.000803999
0.000863062
0.000925857
0.000992396
0.00106273
0.00113705
0.00121561
0.00129853
0.00138555
0.00147613
0.0015697
0.00166604
0.00176536
0.00186804
0.00197344
0.00207928
0.0021826
0.002281
0.00237372
0.00246199
0.00254733
0.00262881
0.00270265
0.00276487
0.00281458
0.00285738
0.00290983
0.0030044
0.00319358
0.00354375
0.00408438
0.00472762
0.00528947
0.00565408
0.00587268
0.0060852
0.00642808
0.00699735
0.00781221
0.0088368
0.0100691
0.0115499
0.013291
0.0152765
0.0175066
0.0199668
0.0225792
0.0252242
0.0278027
0.0302604
0.0325649
0.0346923
0.036634
0.0383946
0.0399829
0.0414076
0.0426757
0.0437908
0.0447523
0.0455568
0.0461987
0.0466711
0.0469666
0.0470769
0.0469928
0.0467023
0.0461897
0.0454351
0.044415
0.0431038
0.0414776
0.03952
0.0372301
0.0346308
0.0317753
0.0287452
0.0256434
0.0225782
0.0196437
0.0169006
0.0143613
0.0119863
0.00971405
0.00752363
0.00546267
0.00359638
0.00195914
0.000575249
-0.000534511
-0.00138109
-0.00197839
-0.00230049
-0.00235678
-0.00225719
-0.00216452
-0.00220605
-0.00242228
-0.002723
-0.00292592
-0.00291698
-0.00273204
-0.002459
-0.00214627
-0.00181593
-0.00148472
-0.00115943
-0.000838119
-0.000515683
-0.000185082
0.000162487
0.000537076
0.000949568
0.00141295
0.00193854
0.00255188
0.00324006
0.00418409
2.57387e-06
2.58686e-06
2.6172e-06
2.66503e-06
2.7293e-06
2.80977e-06
2.90706e-06
3.02201e-06
3.15537e-06
3.30789e-06
3.4805e-06
3.67425e-06
3.89034e-06
4.13009e-06
4.39499e-06
4.68666e-06
5.0069e-06
5.35766e-06
5.7411e-06
6.15954e-06
6.61553e-06
7.11185e-06
7.65151e-06
8.2378e-06
8.87429e-06
9.56484e-06
1.03136e-05
1.11252e-05
1.20044e-05
1.29565e-05
1.39872e-05
1.51027e-05
1.63097e-05
1.76156e-05
1.90282e-05
2.05559e-05
2.22081e-05
2.39947e-05
2.59263e-05
2.80147e-05
3.02723e-05
3.27128e-05
3.53507e-05
3.82019e-05
4.12833e-05
4.46133e-05
4.82117e-05
5.21001e-05
5.63016e-05
6.08409e-05
6.5745e-05
7.10428e-05
7.67654e-05
8.29463e-05
8.96216e-05
9.68301e-05
0.000104614
0.000113017
0.000122089
0.00013188
0.000142446
0.000153847
0.000166147
0.000179414
0.00019372
0.000209143
0.000225767
0.000243679
0.000262976
0.000283756
0.000306126
0.0003302
0.000356095
0.000383935
0.000413843
0.000445948
0.000480392
0.000517334
0.000556939
0.000599356
0.000644717
0.000693169
0.000744912
0.000800175
0.000859137
0.00092186
0.000988326
0.00105858
0.00113283
0.00121143
0.00129454
0.0013819
0.00147286
0.00156677
0.00166343
0.00176327
0.00186687
0.00197361
0.00208096
0.00218552
0.00228449
0.00237704
0.00246493
0.00255024
0.00263174
0.00270433
0.00276224
0.00280275
0.0028299
0.00286002
0.00292813
0.00309533
0.00344673
0.00402871
0.00473683
0.00533602
0.00567974
0.0058363
0.00597653
0.00626002
0.00679792
0.0076029
0.00861723
0.00983599
0.0113144
0.0130657
0.0150692
0.0173333
0.0198526
0.0225398
0.0252549
0.0278873
0.030384
0.0327157
0.0348587
0.0368066
0.0385683
0.0401552
0.0415782
0.0428461
0.0439628
0.0449281
0.0457381
0.0463869
0.0468677
0.0471729
0.0472947
0.0472239
0.0469487
0.0464531
0.0457161
0.0447122
0.0434124
0.0417885
0.0398193
0.0374998
0.0348511
0.0319283
0.0288194
0.0256373
0.0225021
0.0195182
0.016752
0.0142135
0.0118482
0.00957246
0.00735644
0.00526143
0.00336795
0.00171122
0.000317012
-0.000789051
-0.00162483
-0.00220955
-0.0024977
-0.00248761
-0.00230737
-0.00215198
-0.00217314
-0.00242221
-0.0027872
-0.00303509
-0.00302551
-0.0028147
-0.00251614
-0.00218381
-0.00183937
-0.00150037
-0.00117287
-0.000853412
-0.000535943
-0.000212797
0.000125291