/*--------------------------------*- C++ -*----------------------------------*\
| =========                 |                                                 |
| \\      /  F ield         | OpenFOAM: The Open Source CFD Toolbox           |
|  \\    /   O peration     | Version:  v2006                                 |
|   \\  /    A nd           | Website:  www.openfoam.com                      |
|    \\/     M anipulation  |                                                 |
\*---------------------------------------------------------------------------*/
FoamFile
{
    version     2.0;
    format      ascii;
    class       volScalarField;
    location    "0";
    object      f;
}
// * * * * * * * * * * * * * * * * * * * * * * * * * * * * * * * * * * * * * //

dimensions      [0 0 0 0 0 0 0];


internalField   nonuniform List<scalar> 
2500
(
6.94212e-61
-3.45032e-48
1.538e-41
-1.27313e-38
8.41719e-35
9.92351e-34
-2.42215e-29
-7.97887e-28
4.60669e-27
2.42997e-25
1.15397e-24
1.13504e-24
5.16985e-23
4.3777e-22
1.77191e-21
2.17114e-21
-1.01114e-20
-4.9799e-20
-5.93286e-20
1.40584e-19
7.38818e-19
1.60815e-18
2.31966e-18
2.52185e-18
2.36476e-18
2.0072e-18
7.72151e-19
-1.94427e-18
-4.32234e-18
-3.92974e-18
-1.40434e-18
2.94865e-19
4.61586e-19
1.78631e-19
2.26218e-20
-6.68821e-21
-5.12867e-23
5.27382e-21
5.39754e-21
3.58706e-21
1.91666e-21
8.88162e-22
3.70269e-22
1.41771e-22
5.04908e-23
1.68657e-23
5.31436e-24
1.58613e-24
4.4977e-25
4.20543e-26
9.74466e-59
-1.19987e-46
2.9873e-40
-7.25985e-38
3.40969e-34
8.37315e-32
-1.38005e-28
-4.24227e-27
1.24854e-26
9.1205e-25
3.78414e-24
-2.3148e-24
5.48889e-23
6.74494e-22
3.30669e-21
5.36722e-21
-1.28376e-20
-8.10801e-20
-1.09363e-19
1.5909e-19
9.78326e-19
2.13831e-18
3.03788e-18
3.17811e-18
2.94484e-18
2.85379e-18
2.08832e-18
-8.55252e-19
-4.28919e-18
-4.66824e-18
-1.77518e-18
4.94966e-19
6.85044e-19
2.51726e-19
2.65877e-20
-1.20899e-20
-1.9611e-21
5.42302e-21
5.83516e-21
3.8313e-21
2.00131e-21
9.05241e-22
3.68779e-22
1.38235e-22
4.82895e-23
1.58472e-23
4.9115e-24
1.44278e-24
4.02716e-25
4.39602e-26
1.05414e-56
-3.4152e-45
4.77184e-39
1.42208e-36
-1.40863e-33
9.79541e-31
-6.69686e-28
-2.04822e-26
2.15335e-26
3.38245e-24
1.33281e-23
-1.67153e-23
-6.55412e-23
6.59487e-22
6.00592e-21
1.26511e-20
-1.73651e-20
-1.54786e-19
-2.21831e-19
2.53951e-19
1.74465e-18
3.85708e-18
5.50086e-18
5.60139e-18
5.05493e-18
5.25762e-18
4.95189e-18
3.72867e-19
-6.4334e-18
-8.42126e-18
-3.52498e-18
1.01783e-18
1.42282e-18
5.07297e-19
4.33025e-20
-2.96221e-20
-6.23632e-21
9.29434e-21
1.04269e-20
6.80714e-21
3.51219e-21
1.56842e-21
6.31511e-22
2.34315e-22
8.11354e-23
2.64225e-23
8.13258e-24
2.37337e-24
6.5811e-25
7.76129e-26
1.04224e-54
-9.438e-44
7.32756e-38
5.52625e-35
-4.43229e-32
7.90055e-30
-2.94242e-27
-9.58218e-26
-3.71224e-26
1.23848e-23
4.83855e-23
-5.66725e-23
-7.62731e-22
-1.5537e-21
7.44976e-21
2.44285e-20
-1.73053e-20
-2.76545e-19
-4.04663e-19
4.23145e-19
3.04988e-18
6.78285e-18
9.78762e-18
9.63708e-18
8.22399e-18
8.97741e-18
1.04665e-17
4.08586e-18
-8.79503e-18
-1.48777e-17
-7.07807e-18
1.9527e-18
2.88328e-18
9.94676e-19
5.9519e-20
-7.02988e-20
-1.63875e-20
1.58213e-20
1.84762e-20
1.19509e-20
6.07485e-21
2.67313e-21
1.06227e-21
3.8972e-22
1.33656e-22
4.31654e-23
1.31866e-23
3.82095e-24
1.05184e-24
1.32498e-25
9.67308e-53
-2.52219e-42
1.06829e-36
1.22027e-33
-6.02777e-31
5.00887e-29
-1.08273e-26
-4.3352e-25
-6.97515e-25
4.40617e-23
1.75362e-22
-1.16512e-22
-3.46661e-21
-1.27745e-20
-3.3089e-21
3.17507e-20
-8.32508e-21
-4.59246e-19
-6.50238e-19
7.6427e-19
5.2154e-18
1.15874e-17
1.71841e-17
1.63178e-17
1.26234e-17
1.39359e-17
2.02124e-17
1.29972e-17
-1.02223e-17
-2.56253e-17
-1.42884e-17
3.48745e-18
5.72192e-18
1.90242e-18
5.40123e-20
-1.61419e-19
-3.864e-20
2.69757e-20
3.25323e-20
2.07488e-20
1.03589e-20
4.48183e-21
1.75503e-21
6.35927e-22
2.15821e-22
6.90756e-23
2.09311e-23
6.01771e-24
1.64322e-24
2.19002e-25
8.54555e-51
-6.46413e-41
1.44264e-35
2.19369e-32
-6.5109e-30
2.27886e-28
-2.46665e-26
-1.88414e-24
-5.11831e-24
1.49963e-22
6.16766e-22
1.45537e-24
-1.21291e-20
-5.36299e-20
-6.38899e-20
-1.16527e-20
-6.03562e-21
-7.06963e-19
-8.80316e-19
1.48931e-18
8.67289e-18
1.9106e-17
2.9919e-17
2.75973e-17
1.82599e-17
1.87692e-17
3.58564e-17
3.18809e-17
-7.80145e-18
-4.27463e-17
-2.87862e-17
5.70963e-18
1.11598e-17
3.55817e-18
-3.51571e-20
-3.58876e-19
-8.43446e-20
4.65368e-20
5.7024e-20
3.56442e-20
1.74164e-20
7.39155e-21
2.84749e-21
1.01784e-21
3.41539e-22
1.08254e-22
3.25144e-23
9.26775e-24
2.50774e-24
3.50718e-25
7.23462e-49
-1.56151e-39
1.70751e-34
3.48467e-31
-6.16616e-29
1.83017e-28
7.01364e-26
-7.78015e-24
-2.90013e-23
4.8117e-22
2.05681e-21
1.36665e-21
-3.62545e-20
-1.78353e-19
-2.80012e-19
-2.63108e-19
-1.23727e-19
-1.02711e-18
-9.13577e-19
2.94778e-18
1.38574e-17
3.00592e-17
5.18308e-17
4.76298e-17
2.51655e-17
1.90895e-17
5.78829e-17
6.85084e-17
4.81932e-18
-6.83886e-17
-5.74567e-17
8.1914e-18
2.14653e-17
6.52551e-18
-3.65826e-19
-7.73536e-19
-1.72795e-19
8.20483e-20
9.96379e-20
6.0601e-20
2.88673e-20
1.19877e-20
4.53566e-21
1.59758e-21
5.29591e-22
1.66116e-22
4.94187e-23
1.39524e-23
3.73643e-24
5.44319e-25
5.8697e-47
-3.41635e-38
1.48865e-33
5.04099e-30
-5.25846e-28
-1.18136e-26
1.47307e-24
-3.00799e-23
-1.37617e-22
1.43817e-21
6.36379e-21
7.69451e-21
-9.56236e-20
-5.09379e-19
-9.0094e-19
-1.1514e-18
-8.05018e-19
-1.53186e-18
-5.9686e-19
5.36083e-18
2.08091e-17
4.42033e-17
8.90591e-17
8.57226e-17
3.4413e-17
4.9648e-18
8.23043e-17
1.34266e-16
4.03699e-17
-1.03338e-16
-1.12933e-16
8.82648e-18
4.08557e-17
1.17726e-17
-1.31037e-18
-1.61868e-18
-3.33947e-19
1.48883e-19
1.73635e-19
1.01936e-19
4.71421e-20
1.91075e-20
7.08945e-21
2.45817e-21
8.0447e-22
2.49561e-22
7.34811e-23
2.05272e-23
5.43197e-24
8.18622e-25
4.51927e-45
-6.02587e-37
-1.51061e-34
6.72431e-29
-4.03392e-27
-1.89895e-25
1.30732e-23
-1.07265e-22
-5.38737e-22
4.00124e-21
1.77882e-20
2.62082e-20
-2.27202e-19
-1.27039e-18
-2.39322e-18
-3.64083e-18
-3.40096e-18
-2.82151e-18
-5.01733e-19
7.42216e-18
2.81867e-17
5.84401e-17
1.49361e-16
1.62235e-16
5.08321e-17
-4.01465e-17
9.36333e-17
2.42524e-16
1.23224e-16
-1.4358e-16
-2.17671e-16
8.79493e-19
7.72158e-17
2.09868e-17
-3.70503e-18
-3.29231e-18
-6.08184e-19
2.78413e-19
3.01612e-19
1.69469e-19
7.57671e-20
2.99024e-20
1.08655e-20
3.70618e-21
1.19689e-21
3.67041e-22
1.06883e-22
2.95072e-23
7.70058e-24
1.19245e-24
3.20256e-43
-4.04766e-36
-4.33065e-31
8.30672e-28
-2.71067e-26
-2.12278e-24
8.9803e-23
-3.53046e-22
-1.54372e-21
1.08133e-20
4.30802e-20
4.27409e-20
-5.1351e-19
-2.72726e-18
-5.25168e-18
-9.43615e-18
-1.13165e-17
-7.0628e-18
-3.81959e-18
1.58554e-18
3.14203e-17
6.38606e-17
2.36083e-16
3.17826e-16
8.86434e-17
-1.27911e-16
5.1208e-17
3.98586e-16
3.00051e-16
-1.73857e-16
-4.10048e-16
-3.40302e-17
1.45481e-16
3.72366e-17
-9.36688e-18
-6.51412e-18
-1.0353e-18
5.33776e-19
5.21265e-19
2.77938e-19
1.19625e-19
4.58732e-20
1.63102e-20
5.47167e-21
1.74368e-21
5.28479e-22
1.52098e-22
4.14376e-23
1.06385e-23
1.68085e-24
1.90427e-41
3.43007e-34
-1.40733e-29
9.49869e-27
-1.46573e-25
-2.01281e-23
5.26433e-22
-1.16439e-21
-1.29959e-21
3.31389e-20
8.37011e-20
-1.73669e-19
-1.30011e-18
-4.79982e-18
-8.51295e-18
-2.03668e-17
-3.13789e-17
-2.02919e-17
-1.92795e-17
-3.94171e-17
2.02665e-17
4.3908e-17
3.32076e-16
6.41752e-16
1.86281e-16
-2.27152e-16
-1.54608e-16
5.70373e-16
6.69525e-16
-1.59598e-16
-7.50099e-16
-1.42304e-16
2.74602e-16
6.6587e-17
-2.21664e-17
-1.25407e-17
-1.61391e-18
1.03897e-18
8.93534e-19
4.48365e-19
1.85029e-19
6.88287e-20
2.39408e-20
7.90322e-21
2.48668e-21
7.45003e-22
2.11791e-22
5.68491e-23
1.43127e-23
2.28935e-24
5.89557e-40
2.54849e-32
-3.32155e-28
1.00143e-25
-4.2549e-25
-1.70752e-22
2.70459e-21
-5.05884e-21
2.07021e-20
1.41071e-19
1.15157e-19
-2.0243e-18
-4.56026e-18
-6.16649e-18
-4.23163e-18
-3.48063e-17
-7.18631e-17
-5.5241e-17
-5.90436e-17
-2.20086e-16
-2.26743e-17
-1.85925e-17
3.87661e-16
2.44488e-15
4.8846e-16
-2.06669e-15
-9.832e-16
6.82947e-16
1.54625e-15
-3.91658e-17
-1.35075e-15
-4.42741e-16
5.22641e-16
1.22513e-16
-5.0306e-17
-2.34759e-17
-2.18898e-18
2.02972e-18
1.51253e-18
7.08494e-19
2.79273e-19
1.00678e-19
3.42865e-20
1.11549e-20
3.4703e-21
1.02846e-21
2.88678e-22
7.61988e-23
1.87356e-23
3.00592e-24
-7.81234e-38
1.24858e-30
-6.68749e-27
9.66266e-25
3.33807e-24
-1.3152e-21
1.22291e-20
-3.42336e-20
1.7824e-19
7.69382e-19
2.03339e-19
-1.12267e-17
-2.06532e-17
-4.2691e-18
3.58745e-17
-3.64268e-17
-1.24525e-16
-1.35148e-16
-1.02003e-16
-2.16285e-15
-1.1381e-16
-1.00212e-16
6.60475e-16
1.75071e-14
1.4088e-15
-4.27144e-14
-4.4505e-15
4.78827e-15
4.68167e-15
2.74426e-16
-3.94486e-15
-1.29453e-15
1.02236e-15
2.38881e-16
-1.11481e-16
-4.26497e-17
-2.17916e-18
3.93671e-18
2.51411e-18
1.09041e-18
4.09098e-19
1.4293e-19
4.77669e-20
1.53624e-20
4.73758e-21
1.39076e-21
3.85351e-22
9.97968e-23
2.3834e-23
3.79041e-24
-2.23692e-35
5.21439e-29
-1.19946e-25
8.43626e-24
7.74296e-23
-9.1538e-21
4.87557e-20
-2.70933e-19
8.62065e-19
4.14029e-18
2.32427e-18
-4.19454e-17
-9.62263e-17
-2.52813e-18
2.88367e-16
4.67682e-17
-2.09903e-16
-1.31693e-15
1.14491e-17
-1.80836e-14
6.20437e-14
1.69765e-13
3.72125e-13
5.03016e-14
-5.11445e-13
-1.99197e-13
-9.58493e-15
9.21034e-14
1.56714e-14
6.90804e-16
-2.4216e-14
-3.6147e-15
2.48589e-15
5.10717e-16
-2.45993e-16
-7.48588e-17
3.3713e-20
7.5084e-18
4.07417e-18
1.62177e-18
5.77201e-19
1.95755e-19
6.44914e-20
2.0608e-20
6.32501e-21
1.8431e-21
5.04073e-22
1.27717e-22
2.94105e-23
4.56113e-24
-3.77758e-33
1.97507e-27
-1.93793e-24
6.55347e-23
8.77769e-22
-5.63617e-20
1.79489e-19
-1.9572e-18
2.25377e-18
1.80733e-17
2.64321e-17
-1.02768e-16
-4.29005e-16
-4.51775e-17
6.67537e-15
5.7278e-16
-2.3819e-14
-1.9567e-14
5.85638e-16
-5.01504e-14
1.23307e-12
2.9983e-12
2.10736e-12
-3.17162e-12
-5.60669e-12
-4.26752e-13
2.32615e-12
4.35408e-13
3.40492e-14
-1.05861e-13
-1.05145e-13
-6.57792e-15
1.10085e-14
1.18172e-15
-5.54785e-16
-1.25527e-16
8.38604e-18
1.39609e-17
6.37649e-18
2.30501e-18
7.75812e-19
2.56498e-19
8.39821e-20
2.68789e-20
8.25746e-21
2.39528e-21
6.46541e-22
1.59681e-22
3.5094e-23
5.17804e-24
-5.35538e-31
6.92331e-26
-2.80924e-23
4.42753e-22
6.28688e-21
-2.94787e-19
7.64637e-19
-1.15749e-17
-6.21635e-18
5.41806e-17
2.67582e-16
-3.02708e-15
-1.64608e-15
4.23825e-14
3.37134e-14
-4.62654e-13
-2.31656e-13
-6.18318e-14
6.93584e-13
4.87346e-12
4.46369e-12
1.18242e-11
4.72142e-12
-1.10698e-10
-2.13486e-11
3.30777e-11
1.53632e-11
1.08334e-12
5.40732e-14
-1.22077e-12
-2.94849e-13
5.33451e-14
4.68963e-14
2.22224e-15
-1.29424e-15
-1.94544e-16
3.16413e-17
2.50751e-17
9.51009e-18
3.07701e-18
9.76669e-19
3.17754e-19
1.04886e-19
3.40358e-20
1.05461e-20
3.05531e-21
8.1356e-22
1.94881e-22
4.02737e-23
5.42167e-24
-6.86009e-29
2.25665e-24
-3.5983e-22
2.57674e-21
9.80809e-22
-1.22506e-18
5.31524e-18
-4.78279e-17
-1.59907e-16
2.09023e-15
2.06098e-15
-9.03885e-14
7.80764e-13
7.93103e-13
-2.81428e-12
-5.20007e-12
-7.75938e-13
2.29158e-11
2.04738e-11
4.25899e-11
7.24222e-12
2.85066e-11
-1.15316e-09
-5.16553e-10
-1.09311e-11
4.74214e-10
4.78618e-11
1.43538e-12
-7.38117e-12
-5.04464e-12
-4.47406e-13
4.8552e-13
1.41366e-13
9.87737e-16
-3.17843e-15
-2.49918e-16
8.77506e-17
4.29717e-17
1.32282e-17
3.74287e-18
1.11829e-18
3.65591e-19
1.24836e-19
4.18235e-20
1.31932e-20
3.8294e-21
1.00449e-21
2.31707e-22
4.40061e-23
4.9673e-24
-8.1198e-27
6.81434e-23
-3.95958e-21
1.56281e-20
-9.76126e-19
-3.70439e-18
5.42647e-17
-3.32607e-16
-1.45907e-15
5.73247e-14
-4.03832e-13
-3.70192e-13
8.94913e-12
3.37787e-12
-9.37029e-11
-1.90135e-11
4.29754e-10
2.46261e-10
7.93799e-11
1.23603e-10
-4.67535e-09
-1.32933e-08
-1.1608e-08
-1.16748e-09
9.59638e-09
1.96076e-09
5.96247e-11
1.58766e-13
-4.75521e-11
-1.35326e-11
1.07886e-12
1.89865e-12
2.66904e-13
-2.04838e-14
-9.38744e-15
-1.6837e-16
2.09413e-16
6.88182e-17
1.6481e-17
3.88718e-18
1.095e-18
3.79298e-19
1.40762e-19
4.9972e-20
1.62092e-20
4.72222e-21
1.21628e-21
2.67306e-22
4.48902e-23
3.35527e-24
-8.92848e-25
1.88396e-21
-3.56586e-20
2.12074e-19
-2.29897e-17
-8.84471e-18
5.79089e-16
-2.34918e-14
9.1897e-14
2.63142e-13
-7.44368e-12
5.16117e-11
2.68633e-11
-3.77149e-10
-3.26853e-10
4.1615e-09
3.54686e-09
5.84625e-10
-5.42488e-09
-1.81965e-08
-5.99645e-08
-8.43092e-08
-3.97189e-08
7.59702e-08
5.28603e-08
3.78244e-09
6.76428e-11
-2.19702e-10
-1.65941e-10
-2.0206e-11
1.40082e-11
5.54423e-12
2.94245e-13
-9.84278e-14
-2.44067e-14
4.60794e-16
4.44928e-16
9.89499e-17
1.66871e-17
2.79289e-18
7.5858e-19
3.35121e-19
1.50065e-19
5.84342e-20
1.96427e-20
5.73616e-21
1.44162e-21
2.96943e-22
4.09169e-23
-3.72339e-26
-9.10289e-23
4.64881e-20
-2.40122e-19
5.60734e-18
-5.14039e-16
6.41384e-15
-4.3133e-14
-1.54316e-13
4.2264e-12
-2.63199e-11
-2.92711e-11
7.08191e-10
-4.47581e-09
-4.87527e-09
2.39311e-08
3.52828e-08
1.14329e-08
-2.8788e-07
-6.79741e-07
-3.18645e-07
-1.95794e-07
-2.5455e-07
-7.1883e-08
9.7307e-07
1.52172e-07
1.3244e-09
1.09022e-10
-1.16171e-09
-3.95014e-10
1.54808e-11
5.64634e-11
1.10521e-11
-3.88177e-13
-3.53161e-13
-4.36615e-14
2.42848e-15
8.86822e-16
1.18065e-16
8.94664e-18
-5.51677e-19
-4.86058e-20
2.17106e-19
1.52997e-19
6.77683e-20
2.36142e-20
6.86712e-21
1.66607e-21
3.13172e-22
2.93266e-23
-6.01075e-24
-8.55175e-21
9.66228e-19
-1.00749e-18
9.96012e-17
-5.64614e-15
1.40163e-13
-1.83164e-12
1.21595e-11
1.90872e-11
-4.01154e-10
2.51474e-09
2.23175e-09
-3.51561e-08
-1.83121e-08
3.65448e-07
1.12419e-07
-2.00739e-06
-5.25576e-06
-3.25536e-06
-1.11601e-06
-2.8668e-07
-5.60823e-07
1.57341e-05
4.03928e-06
1.72053e-07
5.2795e-11
-4.03429e-09
-4.29127e-09
-5.57167e-10
3.72513e-10
1.70273e-10
1.32202e-11
-2.53358e-12
-9.80883e-13
-5.08109e-14
5.90717e-15
1.56623e-15
8.85936e-17
-1.42104e-17
-7.20606e-18
-1.40421e-18
3.73476e-20
1.56148e-19
7.95601e-20
2.83279e-20
8.09237e-21
1.86367e-21
3.04975e-22
6.55248e-24
-1.55217e-23
-7.34618e-19
1.572e-17
-1.00764e-18
-1.68965e-16
5.18229e-15
4.33349e-13
-7.05003e-12
9.0835e-11
-7.12502e-10
-1.30681e-09
2.12943e-08
-1.09659e-07
-9.52875e-08
1.10796e-06
9.93124e-07
-6.98176e-06
-3.15502e-05
-2.57745e-05
-5.65003e-06
3.92669e-05
0.000439682
0.000459458
0.000152678
8.16546e-06
-4.62815e-08
-1.32038e-08
-3.98268e-08
-1.15949e-08
1.00625e-09
1.47352e-09
3.71263e-10
-1.93757e-12
-8.73268e-12
-1.9696e-12
-5.72569e-15
1.73272e-14
2.53508e-15
-6.28405e-17
-6.13812e-17
-1.75675e-17
-3.1446e-18
-1.36836e-19
1.75838e-19
9.65971e-20
3.40106e-20
9.34552e-21
1.99167e-21
2.57269e-22
-3.16214e-23
-2.95928e-23
-6.67138e-17
1.71334e-15
-1.80748e-14
4.92592e-14
1.53211e-12
-2.70217e-11
1.76507e-10
2.00217e-11
-5.98569e-09
4.41989e-08
5.71626e-08
-7.53279e-07
2.42115e-06
7.30681e-06
-8.56702e-06
-0.000111846
-0.000113058
-7.87101e-05
0.00221321
0.00571287
0.00568132
0.00283517
0.000543671
2.96769e-06
-1.50992e-07
-3.10672e-07
-1.6434e-07
-1.86155e-08
7.53838e-09
4.29115e-09
5.97078e-10
-4.5379e-11
-2.41274e-11
-2.98731e-12
1.03607e-13
4.6998e-14
3.1099e-15
-4.14583e-16
-1.37109e-16
-3.00061e-17
-4.66583e-18
-1.61508e-19
2.38595e-19
1.22312e-19
4.07203e-20
1.04769e-20
1.98591e-21
1.51422e-22
-8.95219e-23
-4.91214e-23
-2.60175e-15
2.57394e-14
-2.13249e-13
8.59179e-13
7.72605e-12
-1.90523e-10
2.23249e-09
-1.08984e-08
-1.58395e-08
2.99305e-07
-1.77431e-06
-1.9375e-06
1.88259e-05
2.05863e-05
-0.000249977
-0.000453794
-6.99141e-06
0.00995747
0.0244612
0.0288227
0.0206902
0.00844636
0.00127309
-1.83481e-06
-1.85259e-06
-1.40369e-06
-4.49665e-07
-7.49318e-09
2.30501e-08
9.45395e-09
6.80843e-10
-1.17207e-10
-4.9667e-11
-3.46398e-12
2.75489e-13
9.51006e-14
2.61704e-15
-9.23619e-16
-2.26244e-16
-3.937e-17
-4.82089e-18
1.73781e-19
3.7458e-19
1.58997e-19
4.80001e-20
1.12086e-20
1.76075e-21
-3.23057e-23
-1.7052e-22
-7.45687e-23
-9.21854e-15
6.46396e-14
-4.99255e-13
2.89867e-12
-2.63384e-11
-8.91341e-11
5.50601e-09
-4.48606e-08
3.23181e-07
6.66557e-07
-1.10713e-05
3.07378e-05
4.91165e-05
-0.000291835
-0.001064
-0.000762517
0.0195216
0.058555
0.0847537
0.079478
0.0497245
0.0184195
0.0023908
-6.09354e-06
-7.32895e-06
-4.25029e-06
-9.22332e-07
6.17686e-08
5.90449e-08
1.66928e-08
2.66655e-10
-2.67781e-10
-8.11013e-11
-1.67104e-12
7.14412e-13
1.49833e-13
-3.1734e-15
-1.95686e-15
-2.94603e-16
-3.70801e-17
-2.13998e-18
1.07382e-18
6.00889e-19
2.04758e-19
5.44615e-20
1.11108e-20
1.2192e-21
-3.09582e-22
-2.75409e-22
-1.05552e-22
1.28219e-12
-9.48507e-12
6.87013e-11
-2.54207e-10
-8.64035e-10
1.9359e-08
-1.01446e-07
3.70455e-10
1.89324e-06
-8.58861e-06
-2.61241e-05
0.0002199
-5.28142e-07
-0.00243431
-0.00240042
0.0197277
0.0892197
0.168186
0.196485
0.16375
0.0937836
0.0324753
0.00376442
-2.3316e-05
-2.17666e-05
-1.00582e-05
-1.44896e-06
1.9738e-07
1.25755e-07
2.48554e-08
-5.91061e-10
-5.14779e-10
-9.82952e-11
2.66766e-12
1.6081e-12
1.51081e-13
-1.49686e-14
-3.95899e-15
-2.70497e-16
-1.33891e-17
4.48554e-18
2.59448e-18
8.97084e-19
2.50255e-19
5.7555e-20
9.64778e-21
2.79406e-22
-6.8391e-22
-4.00462e-22
-1.4043e-22
1.567e-11
-7.82325e-11
4.88866e-10
-1.94104e-09
-1.84897e-09
8.27055e-08
-7.42705e-07
2.20576e-06
3.86923e-06
-4.70471e-05
3.54395e-05
0.000659291
-0.00215346
-0.00776265
0.00364627
0.0898193
0.231981
0.349049
0.359326
0.273571
0.146185
0.0477566
0.00492288
-6.11256e-05
-5.24028e-05
-1.96663e-05
-1.63554e-06
4.14316e-07
2.17276e-07
2.81027e-08
-1.60827e-09
-8.16574e-10
-9.39312e-11
8.72672e-12
2.86812e-12
3.24914e-14
-4.07785e-14
-5.83873e-15
-3.82645e-17
3.53913e-17
1.46542e-17
4.46966e-18
1.18539e-18
2.77758e-19
5.39352e-20
6.34183e-21
-1.08062e-21
-1.13699e-21
-5.35759e-22
-1.76051e-22
3.74536e-11
-1.55976e-10
9.54077e-10
-4.99257e-09
3.21206e-08
6.55945e-10
-1.48993e-06
8.47683e-06
-2.63604e-05
-0.000108398
0.000638858
0.000865714
-0.00820597
-0.0133528
0.0515642
0.227642
0.450624
0.578344
0.547036
0.3842
0.192046
0.0589429
0.00519796
-0.000141412
-0.000107615
-3.1647e-05
-7.46799e-07
7.86121e-07
3.12165e-07
1.99709e-08
-3.08072e-09
-1.03409e-09
-7.47174e-12
2.28977e-11
3.58072e-12
-2.65508e-13
-9.35856e-14
-4.7337e-15
2.94539e-16
9.75054e-17
2.53293e-17
6.03947e-18
1.33792e-18
2.65634e-19
4.07553e-20
1.06358e-21
-2.76929e-21
-1.6211e-21
-6.64749e-22
-2.07873e-22
-1.12996e-09
5.26601e-09
-2.635e-08
5.65111e-08
2.35293e-07
-2.7017e-06
9.18115e-06
1.17459e-05
-0.000141642
7.61866e-05
0.00200054
-0.00280266
-0.0196581
-0.00149275
0.144914
0.427981
0.711089
0.808835
0.700933
0.458396
0.214089
0.0607051
0.00397931
-0.000301402
-0.000189654
-4.02347e-05
1.27749e-06
1.32518e-06
3.36191e-07
-2.90392e-09
-6.07486e-09
-9.09932e-10
1.43143e-10
4.84334e-11
1.25851e-12
-5.86112e-13
-1.26904e-13
-3.80971e-16
5.92992e-16
1.48641e-16
3.18205e-17
6.49162e-18
1.2304e-18
1.99507e-19
1.77425e-20
-5.63871e-21
-4.54343e-21
-2.05899e-21
-7.66049e-22
-2.30631e-22
-1.14388e-08
3.8808e-08
-1.9389e-07
6.2371e-07
-5.25253e-07
-8.78667e-06
5.61842e-05
-0.000100788
-0.000316767
0.00123816
0.00284296
-0.0122492
-0.0294003
0.042829
0.287303
0.652675
0.941069
0.965564
0.772421
0.469622
0.202686
0.0488602
0.00121422
-0.00060823
-0.000273274
-3.37684e-05
3.86355e-06
1.91982e-06
2.28342e-07
-3.36163e-08
-1.05151e-08
1.86102e-10
3.34199e-10
5.64208e-11
-2.48287e-12
-1.0905e-12
-8.66042e-14
4.48567e-15
1.14002e-15
1.74453e-16
3.07698e-17
5.34465e-18
8.25858e-19
8.58771e-20
-1.09248e-20
-1.23723e-20
-6.02204e-21
-2.35663e-21
-8.18e-22
-2.39551e-22
-2.53607e-08
7.58194e-08
-4.25165e-07
2.01861e-06
-7.49389e-06
2.35763e-06
0.000104077
-0.000404188
-0.000120531
0.00367049
-0.00122298
-0.0278164
-0.0242494
0.117385
0.445709
0.836088
1.05057
1.00765
0.743719
0.402985
0.147504
0.0248463
-0.001779
-0.00111097
-0.000283066
-1.18468e-06
7.0201e-06
1.99596e-06
-6.26921e-08
-6.85462e-08
-9.56825e-09
1.77236e-09
6.15005e-10
2.65086e-11
-4.91001e-12
-1.27227e-12
-1.08507e-14
8.85874e-15
1.41854e-15
1.4006e-16
2.03411e-17
2.74625e-18
2.31869e-19
-4.11694e-20
-3.65062e-20
-1.71313e-20
-6.77942e-21
-2.42983e-21
-8.05265e-22
-2.31833e-22
8.29039e-08
-2.22814e-07
3.3727e-07
2.88025e-06
-2.37249e-05
9.19184e-05
-3.6265e-05
-0.000760685
0.0015631
0.00516916
-0.0127978
-0.0422929
-0.00038272
0.209774
0.574797
0.918828
1.04264
0.898023
0.583552
0.269721
0.0730533
0.000815962
-0.00317615
-0.00139913
-0.000169549
2.92156e-05
1.1595e-05
6.14218e-07
-3.80716e-07
-1.13317e-07
2.15204e-09
3.39586e-09
6.37946e-10
-1.55626e-11
-7.85367e-12
-7.12274e-13
6.24944e-14
1.75037e-14
9.89428e-16
4.42047e-17
4.28709e-18
-2.3368e-19
-2.98497e-19
-1.27771e-19
-4.84628e-20
-1.80172e-20
-6.5081e-21
-2.23772e-21
-7.25187e-22
-2.07836e-22
6.81889e-07
-1.3912e-06
6.06637e-06
-1.26831e-05
-1.88381e-05
0.000220876
-0.000618629
-0.000484374
0.00538167
0.00197918
-0.0311704
-0.0514719
0.035161
0.283841
0.62914
0.891499
0.870337
0.661846
0.364746
0.126242
0.0102779
-0.0101082
-0.00504676
-0.00103463
7.47296e-05
4.8254e-05
8.35141e-06
-1.38873e-06
-6.52786e-07
-6.13549e-08
1.42101e-08
5.27296e-09
2.95369e-10
-3.34605e-11
-8.80691e-12
-5.13342e-14
9.33252e-14
1.65651e-14
2.21563e-16
-2.06945e-17
-7.23302e-18
-1.91648e-18
-4.71839e-19
-1.25595e-19
-3.97407e-20
-1.42307e-20
-5.18641e-21
-1.80747e-21
-5.9059e-22
-1.71292e-22
1.76675e-06
-4.94515e-07
1.35369e-05
-5.78698e-05
0.000154525
0.000103907
-0.0016467
0.0017063
0.00978484
-0.00618927
-0.050052
-0.0531968
0.0607344
0.307333
0.59611
0.691211
0.609165
0.389707
0.15993
0.0186006
-0.0205261
-0.0116149
-0.00334445
-3.78082e-06
0.000213228
6.16994e-05
-2.14347e-06
-3.14699e-06
-7.41216e-07
2.33919e-08
2.21902e-08
4.02873e-09
-1.37918e-10
-5.76323e-11
-4.35623e-12
4.43392e-13
1.35748e-13
4.78932e-15
-2.54832e-16
-5.39026e-17
-9.08608e-18
-1.29707e-18
-1.56102e-19
-2.5694e-20
-1.20794e-20
-6.78682e-21
-3.14575e-21
-1.2323e-21
-4.2634e-22
-1.28204e-22
4.62036e-07
1.77338e-05
-2.28197e-05
-9.47217e-05
0.00053991
-0.000677757
-0.00267029
0.00582646
0.0128083
-0.015398
-0.0613371
-0.0531964
0.0611305
0.266187
0.434397
0.433952
0.32168
0.151023
0.0172356
-0.0328156
-0.0214284
-0.00768141
-0.000149364
0.000886391
0.000307383
1.12583e-05
-1.12271e-05
-4.29343e-06
-2.36044e-07
8.91335e-08
3.12178e-08
1.29879e-09
-2.65243e-10
-6.43489e-11
3.31433e-14
4.10015e-13
5.23754e-14
-2.97303e-15
-3.76352e-16
-3.02551e-17
4.80988e-19
1.34987e-18
4.9068e-19
1.24517e-19
2.28521e-20
1.69977e-21
-9.50255e-22
-6.34448e-22
-2.59827e-22
-8.46843e-23
5.43795e-06
4.72278e-05
-0.000178958
0.000114166
0.000980104
-0.00218935
-0.00313875
0.00991552
0.0140922
-0.0193711
-0.0608961
-0.0502266
0.0334151
0.155058
0.211996
0.188193
0.0935118
-0.00481064
-0.0486243
-0.0344034
-0.0119061
0.00138971
0.00297989
0.00118719
0.000147674
-2.99347e-05
-1.4611e-05
-2.29861e-06
2.51514e-07
1.21017e-07
1.81522e-08
-1.04163e-09
-3.25381e-10
-1.09164e-11
1.85074e-12
4.08074e-13
-3.45217e-14
-3.61446e-15
7.53789e-17
4.89603e-17
1.56627e-17
4.27202e-18
1.06171e-18
2.41665e-19
4.92829e-20
8.39113e-21
8.95916e-22
-1.06804e-22
-1.0964e-22
-4.47869e-23
3.07621e-05
-2.01398e-05
-0.000393838
0.000730482
0.001152
-0.00406699
-0.00326286
0.0125741
0.0151847
-0.0148066
-0.0451398
-0.042437
-0.00604072
0.0343104
0.0441532
0.0083669
-0.0442782
-0.0684128
-0.049363
-0.0156456
0.00501961
0.00756787
0.00368153
0.000801962
-3.11131e-05
-3.14969e-05
-1.0676e-05
-2.73301e-07
2.77892e-07
1.00461e-07
6.02608e-09
-3.97226e-10
-5.08337e-11
9.71356e-12
3.0182e-13
-5.98364e-13
-9.90877e-14
6.40759e-16
6.07543e-16
1.22094e-16
2.39526e-17
5.11736e-18
1.14903e-18
2.61071e-19
5.79287e-20
1.20838e-20
2.24739e-21
3.31494e-22
2.05406e-23
-9.64056e-24
9.18818e-05
-0.000165527
-0.000292789
0.0015363
0.000457207
-0.00618933
-0.00301937
0.0139716
0.0172043
0.000136059
-0.0192037
-0.029481
-0.0298004
-0.0322064
-0.0450943
-0.0665819
-0.0770727
-0.0565259
-0.0171502
0.00958025
0.0143402
0.00841288
0.00258392
0.00015037
-6.32328e-05
-2.85087e-05
-1.97479e-06
8.17729e-07
2.69008e-07
1.79362e-09
-2.68089e-09
-3.84818e-10
1.1797e-10
1.21736e-11
-4.73367e-12
-1.07513e-12
-1.20011e-14
7.95844e-15
1.1136e-15
9.38711e-17
1.29166e-17
2.53923e-18
6.63108e-19
1.91409e-19
5.39578e-20
1.414e-20
3.38082e-21
7.27661e-22
1.37565e-22
2.14126e-23
0.000517631
-7.39961e-05
-5.03986e-05
0.00121171
-0.00171304
-0.0074083
-0.000790812
0.0148441
0.0198128
0.0146776
0.00360348
-0.0108609
-0.0248448
-0.035554
-0.0489746
-0.0575602
-0.0432479
-0.0105827
0.0160016
0.0218791
0.014296
0.00522684
0.000724815
-0.000111535
-2.657e-05
5.34906e-06
2.08031e-06
8.29632e-08
-1.73176e-07
-3.18541e-08
3.61263e-09
1.81602e-09
1.86805e-10
-2.3503e-11
-7.9517e-12
-4.7932e-13
7.00289e-14
1.13756e-14
-4.40546e-17
-4.84843e-17
-1.11877e-17
-1.46228e-18
7.26939e-20
1.27788e-19
5.46492e-20
1.73732e-20
4.69933e-21
1.13015e-21
2.45737e-22
4.83801e-23
-0.00197908
-0.00258451
-0.00206616
-0.000992093
-0.00316185
-0.00344013
0.00505155
0.0154266
0.0185822
0.0173841
0.0120691
0.00406106
-0.00237831
-0.0094194
-0.016759
-0.0138728
0.00303214
0.0202687
0.0250013
0.0172021
0.00712859
0.00133785
-0.000131408
2.80556e-05
3.56587e-05
1.01912e-05
-7.13903e-07
-9.509e-07
-2.37075e-07
8.84765e-09
9.33539e-09
2.00614e-09
-4.04814e-11
-2.60996e-11
-3.00749e-12
5.68718e-13
9.01683e-14
-3.86586e-15
-7.90998e-16
-1.34405e-16
-2.22433e-17
-2.62926e-18
5.96117e-20
1.72746e-19
7.36264e-20
2.31751e-20
6.24563e-21
1.5111e-21
3.35017e-22
6.88497e-23
-0.00440691
-0.00389573
-0.00208106
0.00120918
0.0036296
0.00661479
0.0107033
0.00989424
0.00795485
0.00705439
0.00646072
0.0076013
0.0100282
0.00927538
0.00744947
0.0101366
0.0163775
0.0181868
0.0117911
0.00462435
0.000610069
-0.000271871
0.000140336
0.000128234
4.10817e-05
7.07512e-07
-3.37617e-06
-1.22327e-06
-7.83047e-08
3.81048e-08
1.16537e-08
4.03039e-10
-1.20225e-10
-2.19886e-11
4.07813e-12
7.70592e-13
-2.07768e-14
-6.58571e-15
-7.94518e-16
-9.38653e-17
-9.95326e-18
4.23114e-19
7.50451e-19
3.2119e-19
1.04382e-19
2.93695e-20
7.46889e-21
1.75076e-21
3.82306e-22
7.87199e-23
0.0069547
0.00770848
0.00932656
0.0114583
0.0119148
0.0110831
0.00666212
-9.7152e-05
-0.00385982
-0.0041576
-0.00246774
0.0022633
0.00728627
0.00783742
0.00628704
0.00490338
0.00285609
-0.000643831
-0.00280859
-0.00237067
-0.00078011
0.000372218
0.000377839
0.000155297
1.48501e-05
-9.6528e-06
-3.84475e-06
-2.81165e-07
1.38702e-07
4.05055e-08
-8.51484e-10
-9.02997e-10
-1.48185e-10
2.48997e-11
6.63764e-12
8.63132e-14
-5.17696e-14
-8.34884e-15
-2.00893e-17
3.82827e-17
1.50064e-17
4.9918e-18
1.5458e-18
4.49681e-19
1.22793e-19
3.14682e-20
7.57843e-21
1.7189e-21
3.68071e-22
7.53136e-23
0.0079105
0.0082041
0.00843696
0.00762826
0.00581199
0.00254321
-0.00179762
-0.00503341
-0.00502111
-0.00481887
-0.00415793
-0.00172489
0.000783849
0.000743225
-0.00238269
-0.00706726
-0.0100826
-0.00917889
-0.00525817
-0.00122476
0.000867603
0.000853154
0.000387015
5.0594e-05
-1.94389e-05
-6.80758e-06
-2.27349e-07
3.67422e-07
7.65655e-08
-1.47785e-08
-6.11214e-09
-9.08178e-10
7.29356e-11
2.0868e-11
-3.97096e-14
-4.39461e-13
-7.54762e-14
3.05304e-15
6.37704e-16
1.17031e-16
2.65697e-17
6.56012e-18
1.67868e-18
4.32138e-19
1.09303e-19
2.6721e-20
6.25277e-21
1.39384e-21
2.95463e-22
6.03748e-23
0.00194234
0.00180573
0.00114376
-0.000128541
-0.00150861
-0.00253194
-0.00275365
-0.00109027
0.000516344
9.10389e-05
-0.00128742
-0.00101955
0.000684032
0.000643441
-0.00297942
-0.00767634
-0.00804389
-0.00475235
-0.000522841
0.0016157
0.00139192
0.000642768
9.18279e-05
-3.75401e-05
-1.14977e-05
6.56739e-07
9.49429e-07
2.17443e-07
-2.94305e-08
-1.72109e-08
-3.34219e-09
2.26248e-10
3.07856e-11
-6.52487e-12
-3.13781e-12
-5.02967e-13
2.12804e-14
3.2897e-15
3.22488e-16
6.77593e-17
1.65153e-17
4.12659e-18
1.0522e-18
2.70627e-19
6.88233e-20
1.69861e-20
4.01828e-21
9.05194e-22
1.93693e-22
4.00615e-23
-0.00117878
-0.00134142
-0.00167821
-0.00199419
-0.00196311
-0.00131379
5.94887e-05
0.00186826
0.00247486
0.000905184
-0.00112698
-0.000437912
0.00292243
0.004268
0.00167566
-0.00133205
-0.00135769
0.000437842
0.00174244
0.00141436
0.000592479
4.63448e-05
-7.00917e-05
-2.04015e-05
1.05241e-06
1.8582e-06
4.60136e-07
-4.98179e-08
-2.78622e-08
-3.71725e-09
2.61182e-09
6.27817e-10
1.19905e-11
-1.17431e-11
-2.83719e-12
1.78558e-13
2.27403e-14
-3.98806e-16
-4.43216e-17
-1.31136e-18
1.12292e-18
5.90733e-19
2.33828e-19
8.13566e-20
2.54211e-20
7.20766e-21
1.87255e-21
4.4975e-22
1.00626e-22
2.1572e-23
-0.00036106
-0.000347183
-0.000248169
-4.0515e-06
0.000486315
0.000934093
0.00086098
0.000616352
0.000107435
-0.00208721
-0.00432927
-0.0026788
0.00222699
0.004632
0.00325027
0.000957677
0.000245078
0.000409208
0.000256718
1.96631e-06
-0.00015922
-0.000109994
-1.88407e-05
8.54934e-06
4.42831e-06
6.27796e-07
-3.8755e-07
-1.4458e-07
-5.55001e-09
1.11693e-08
3.27762e-09
6.45825e-11
-3.551e-11
-6.82076e-12
1.89945e-12
4.15945e-13
6.96175e-15
-4.12928e-16
-1.25917e-16
-3.08942e-17
-6.84135e-18
-1.35489e-18
-2.28285e-19
-2.78937e-20
-2.80518e-22
1.25386e-21
5.30342e-22
1.57912e-22
3.97606e-23
9.20744e-24
0.00027728
0.000361814
0.000411286
0.000468959
0.000902177
0.000228738
-0.00254213
-0.00402273
-0.00393293
-0.00555627
-0.00751892
-0.00544196
-0.00016018
0.0026526
0.00186629
-0.000112314
-0.00106771
-0.00104354
-0.000702674
-0.000359434
-0.000111396
1.18044e-05
2.64108e-05
1.10051e-05
8.77076e-07
-1.1259e-06
-4.23151e-07
-1.48399e-08
1.36305e-08
1.87472e-09
-1.67386e-09
-4.93868e-10
-1.92095e-11
8.34086e-12
2.14763e-12
-7.02156e-14
-1.1196e-14
-5.2541e-16
-8.87454e-17
-2.15874e-17
-5.13038e-18
-1.13836e-18
-2.28694e-19
-4.04117e-20
-5.90506e-21
-5.69129e-22
2.72379e-23
3.33674e-23
1.14402e-23
3.06893e-24
-0.000127878
-0.000165743
-0.000506232
-0.000297466
-0.000366129
-0.00590429
-0.0147164
-0.0168588
-0.0131553
-0.010906
-0.0104746
-0.00705339
-0.00128928
0.00166953
0.00113449
-0.00039491
-0.00102161
-0.000791011
-0.000323801
-1.74255e-05
7.64034e-05
4.64069e-05
1.23948e-05
-6.25556e-07
-1.44944e-06
-2.31307e-07
1.93802e-07
7.97156e-08
3.40188e-09
-3.90772e-09
-1.26296e-09
-2.37891e-11
1.47438e-11
1.80771e-12
-1.15013e-12
-2.86891e-13
-1.16263e-14
1.81736e-16
3.25887e-17
3.3747e-18
-1.52247e-19
-1.9359e-19
-6.31386e-20
-1.48193e-20
-2.78743e-21
-4.11331e-22
-3.76645e-23
2.62564e-24
2.43752e-24
8.22368e-25
-0.000273858
-0.0025333
-0.00661992
-0.00678296
-0.0107392
-0.0290896
-0.0476708
-0.0460407
-0.0309213
-0.0190648
-0.0134841
-0.00778788
-0.00144632
0.0014384
0.00110212
8.01216e-05
-0.000264905
-0.000140678