/*--------------------------------*- C++ -*----------------------------------*\
| =========                 |                                                 |
| \\      /  F ield         | OpenFOAM: The Open Source CFD Toolbox           |
|  \\    /   O peration     | Version:  v2006                                 |
|   \\  /    A nd           | Website:  www.openfoam.com                      |
|    \\/     M anipulation  |                                                 |
\*---------------------------------------------------------------------------*/
FoamFile
{
    version     2.0;
    format      ascii;
    class       volScalarField;
    location    "0";
    object      f;
}
// * * * * * * * * * * * * * * * * * * * * * * * * * * * * * * * * * * * * * //

dimensions      [0 0 0 0 0 0 0];


internalField   nonuniform List<scalar> 
2500
(
4.30821e-68
-1.20684e-54
-3.00605e-47
1.73298e-42
6.70715e-39
-3.31274e-37
7.53539e-34
1.21653e-31
4.46592e-30
6.91684e-29
7.35229e-28
5.92189e-27
3.32361e-26
1.17404e-25
2.37703e-25
1.06528e-25
3.27462e-25
8.40424e-24
4.35004e-23
1.20523e-22
2.21353e-22
2.93067e-22
2.78726e-22
1.54663e-22
-4.04251e-23
-2.13599e-22
-2.86523e-22
-2.5666e-22
-1.77677e-22
-1.01272e-22
-4.93657e-23
-2.11137e-23
-8.06499e-24
-2.78307e-24
-8.72175e-25
-2.47493e-25
-6.24766e-26
-1.3275e-26
-1.91144e-27
1.26236e-28
2.56509e-28
1.41148e-28
6.00899e-29
2.25907e-29
7.83413e-30
2.55311e-30
7.88924e-31
2.32216e-31
6.52804e-32
6.5523e-33
4.05349e-66
-3.58257e-53
-6.1251e-46
2.22162e-41
7.09884e-38
-8.58973e-36
3.47914e-33
6.08038e-31
2.08583e-29
2.88395e-28
2.72804e-27
2.02172e-26
1.07338e-25
3.46708e-25
5.7305e-25
-2.74978e-25
-1.01616e-24
1.65292e-23
9.69206e-23
2.70175e-22
4.87264e-22
6.29342e-22
5.85633e-22
3.2165e-22
-7.76917e-23
-4.24767e-22
-5.63586e-22
-4.95194e-22
-3.34268e-22
-1.85155e-22
-8.76708e-23
-3.65259e-23
-1.36797e-23
-4.67903e-24
-1.47745e-24
-4.32904e-25
-1.17443e-25
-2.90752e-26
-6.29894e-27
-1.04171e-27
-3.82527e-29
7.17587e-29
4.52782e-29
1.98996e-29
7.49957e-30
2.5697e-30
8.19924e-31
2.4648e-31
7.02598e-32
8.27436e-33
2.65465e-64
-7.94344e-52
-1.00442e-44
2.34291e-40
6.58591e-37
-1.04354e-34
1.05058e-32
2.68089e-30
9.08568e-29
1.15808e-27
9.98829e-27
7.00045e-26
3.64528e-25
1.11187e-24
1.52277e-24
-2.35878e-24
-8.11856e-24
3.50637e-23
2.50243e-22
7.15416e-22
1.28761e-21
1.64725e-21
1.52258e-21
8.44175e-22
-1.73944e-22
-1.06165e-21
-1.41531e-21
-1.23505e-21
-8.22187e-22
-4.47265e-22
-2.07692e-22
-8.49734e-23
-3.13814e-23
-1.06569e-23
-3.37176e-24
-1.00098e-24
-2.78797e-25
-7.21382e-26
-1.68862e-26
-3.33658e-27
-4.25538e-28
5.01457e-29
6.62396e-29
3.35316e-29
1.33759e-29
4.71341e-30
1.52664e-30
4.62751e-31
1.32517e-31
1.69853e-32
1.20299e-62
-1.56313e-50
-1.50548e-43
2.34282e-39
6.02216e-36
-9.93144e-34
-1.40377e-33
1.08715e-29
3.81462e-28
4.52646e-27
3.55525e-26
2.36587e-25
1.22964e-24
3.59008e-24
4.07874e-24
-1.13493e-23
-3.88235e-23
6.11352e-23
6.2225e-22
1.84558e-21
3.32739e-21
4.2242e-21
3.88685e-21
2.1907e-21
-3.44271e-22
-2.57459e-21
-3.4709e-21
-3.01446e-21
-1.97899e-21
-1.05573e-21
-4.79629e-22
-1.92154e-22
-6.9773e-23
-2.3457e-23
-7.41066e-24
-2.21619e-24
-6.26592e-25
-1.6567e-25
-3.99626e-26
-8.31648e-27
-1.24907e-27
1.17853e-29
1.13864e-28
6.30713e-29
2.57709e-29
9.13479e-30
2.95584e-30
8.92687e-31
2.54481e-31
3.49783e-32
-1.75325e-61
-2.74227e-49
-1.96043e-42
2.19708e-38
5.40398e-35
-8.28495e-33
-3.82676e-31
3.85206e-29
1.5352e-27
1.71878e-26
1.22566e-25
7.77805e-25
4.12294e-24
1.17344e-23
1.15043e-23
-4.44625e-23
-1.5424e-22
5.81966e-23
1.48137e-21
4.63036e-21
8.40005e-21
1.06041e-20
9.73317e-21
5.61108e-21
-5.45781e-22
-6.04675e-21
-8.30791e-21
-7.19928e-21
-4.66076e-21
-2.43401e-21
-1.07881e-21
-4.21836e-22
-1.50129e-22
-4.98316e-23
-1.56766e-23
-4.70158e-24
-1.3375e-24
-3.5525e-25
-8.55046e-26
-1.75031e-26
-2.47281e-27
1.0929e-28
2.6913e-28
1.40157e-28
5.53388e-29
1.90985e-29
6.04196e-30
1.78989e-30
5.02004e-31
7.28565e-32
-1.35747e-58
-5.34199e-48
-1.8998e-41
1.9003e-37
4.73755e-34
-6.29384e-32
-4.33154e-30
1.02157e-28
5.88016e-27
6.32925e-26
4.07039e-25
2.47394e-24
1.37219e-23
3.88656e-23
3.56849e-23
-1.53476e-22
-5.49824e-22
-1.57012e-22
3.34714e-21
1.1275e-20
2.06945e-20
2.60357e-20
2.38835e-20
1.41557e-20
-4.09886e-22
-1.3717e-20
-1.93942e-20
-1.68206e-20
-1.07382e-20
-5.47823e-21
-2.36069e-21
-8.97365e-22
-3.11904e-22
-1.01949e-22
-3.18674e-23
-9.54922e-24
-2.71092e-24
-7.11367e-25
-1.65282e-25
-3.08126e-26
-2.91172e-27
1.0126e-27
8.03948e-28
3.58635e-28
1.31246e-28
4.30013e-29
1.30629e-29
3.74338e-30
1.02141e-30
1.54162e-31
-2.24137e-56
-2.00682e-46
-2.19445e-41
1.47228e-36
4.03978e-33
-4.42242e-31
-3.63925e-29
3.45248e-29
2.12386e-26
2.2583e-25
1.29197e-24
7.54635e-24
4.51506e-23
1.29829e-22
1.22748e-22
-4.78354e-22
-1.81066e-21
-1.27831e-21
7.07728e-21
2.65815e-20
4.96962e-20
6.24659e-20
5.73652e-20
3.50964e-20
1.59195e-21
-2.99391e-20
-4.4112e-20
-3.84398e-20
-2.41992e-20
-1.20285e-20
-5.01767e-21
-1.84501e-21
-6.23625e-22
-2.00209e-22
-6.20829e-23
-1.85245e-23
-5.19954e-24
-1.3195e-24
-2.81334e-25
-4.00846e-26
2.57184e-27
4.94599e-27
2.52293e-27
9.77345e-28
3.29818e-28
1.01857e-28
2.94901e-29
8.11346e-30
2.13801e-30
3.31206e-31
-2.76096e-54
-1.18529e-44
5.34548e-39
9.5801e-36
3.33647e-32
-2.88867e-30
-2.68918e-28
-2.13551e-27
7.1518e-26
7.82043e-25
3.87441e-24
2.17605e-23
1.45893e-22
4.33156e-22
4.51312e-22
-1.34972e-21
-5.5792e-21
-5.58749e-21
1.36472e-20
6.0494e-20
1.16188e-19
1.46321e-19
1.34707e-19
8.53063e-20
1.05401e-20
-6.25139e-20
-9.76321e-20
-8.59068e-20
-5.33332e-20
-2.57436e-20
-1.03372e-20
-3.65269e-21
-1.19418e-21
-3.75591e-22
-1.15441e-22
-3.41779e-23
-9.36487e-24
-2.21955e-24
-3.87406e-25
-1.06081e-26
3.04866e-26
1.83066e-26
7.59779e-27
2.66434e-27
8.41021e-28
2.4629e-28
6.80994e-29
1.79791e-29
4.56533e-30
7.18906e-31
-2.89621e-52
-6.77904e-43
1.90273e-37
4.17024e-35
2.65803e-31
-1.74823e-29
-1.8549e-27
-2.08502e-26
2.21893e-25
2.64827e-24
1.07875e-23
5.78332e-23
4.58585e-22
1.42497e-21
1.68422e-21
-3.3949e-21
-1.61657e-20
-1.99002e-20
2.26651e-20
1.32408e-19
2.64141e-19
3.34328e-19
3.08869e-19
2.0275e-19
4.13476e-20
-1.23761e-19
-2.09914e-19
-1.87721e-19
-1.14945e-19
-5.36473e-20
-2.05789e-20
-6.92469e-21
-2.17394e-21
-6.68247e-22
-2.03665e-22
-5.95669e-23
-1.56028e-23
-3.21063e-24
-2.83422e-25
1.65777e-25
1.26715e-25
5.78185e-26
2.14794e-26
7.04463e-27
2.1147e-27
5.93234e-28
1.57689e-28
4.01107e-29
9.83267e-30
1.5645e-30
-2.67544e-50
-3.41221e-41
4.82348e-36
-1.00542e-34
2.03392e-30
-9.6503e-29
-1.23337e-26
-1.43947e-25
6.33432e-25
8.93849e-24
2.71236e-23
1.34398e-22
1.38478e-21
4.55788e-21
6.13085e-21
-7.26156e-21
-4.40489e-20
-6.30384e-20
2.69574e-20
2.77453e-19
5.83207e-19
7.44533e-19
6.90594e-19
4.69892e-19
1.34041e-19
-2.28807e-19
-4.37412e-19
-4.01047e-19
-2.4227e-19
-1.08706e-19
-3.94131e-20
-1.24612e-20
-3.71737e-21
-1.11481e-21
-3.37883e-22
-9.69816e-23
-2.33077e-23
-3.33975e-24
6.42034e-25
7.80303e-25
4.07303e-25
1.64137e-25
5.7037e-26
1.78642e-26
5.16614e-27
1.40139e-27
3.60725e-28
8.88988e-29
2.11225e-29
3.38535e-30
-2.16944e-48
-1.53431e-39
1.05474e-34
-5.89897e-33
1.4872e-29
-4.63689e-28
-8.0678e-26
-8.49071e-25
1.7538e-24
3.11986e-23
5.87585e-23
2.34184e-22
3.94842e-21
1.39688e-20
2.12556e-20
-1.13031e-20
-1.12387e-19
-1.83362e-19
-3.25784e-21
5.53441e-19
1.2494e-18
1.61482e-18
1.50353e-18
1.05874e-18
3.88315e-19
-3.83645e-19
-8.80434e-19
-8.37674e-19
-4.99517e-19
-2.138e-19
-7.2125e-20
-2.09686e-20
-5.84305e-21
-1.71015e-21
-5.19873e-22
-1.4466e-22
-2.88344e-23
2.90398e-25
3.99153e-24
2.54713e-24
1.14558e-24
4.30299e-25
1.43055e-25
4.33395e-26
1.21831e-26
3.21887e-27
8.07356e-28
1.93819e-28
4.48375e-29
7.22943e-30
-1.47837e-46
-6.30418e-38
2.11854e-33
-1.13135e-31
1.03039e-28
-1.63292e-27
-5.24545e-25
-4.54421e-24
5.75171e-24
1.18415e-22
1.01187e-22
6.03472e-23
1.0341e-20
4.03478e-20
6.91878e-20
-1.74836e-21
-2.65868e-19
-4.96368e-19
-1.6039e-19
1.04392e-18
2.59584e-18
3.40922e-18
3.18255e-18
2.31154e-18
1.03592e-18
-5.44161e-19
-1.70322e-18
-1.71078e-18
-1.00812e-18
-4.07139e-19
-1.24677e-19
-3.20431e-20
-8.06453e-21
-2.32182e-21
-7.24901e-22
-1.90143e-22
-2.11146e-23
1.5087e-23
1.35834e-23
7.0989e-24
2.94838e-24
1.05816e-24
3.4079e-25
1.00659e-25
2.76711e-26
7.15777e-27
1.75779e-27
4.12925e-28
9.33941e-29
1.51441e-29
-7.14275e-45
-2.40801e-36
4.04374e-32
-1.91557e-30
6.63681e-28
4.7172e-28
-3.3869e-24
-2.28529e-23
2.77665e-23
5.05698e-22
1.34612e-22
-2.01372e-21
2.34939e-20
1.07365e-19
2.09056e-19
7.95494e-20
-5.72003e-19
-1.25648e-18
-6.88181e-19
1.84992e-18
5.23373e-18
7.00367e-18
6.53832e-18
4.87225e-18
2.57974e-18
-5.03412e-19
-3.14114e-18
-3.41689e-18
-1.99396e-18
-7.4804e-19
-1.99289e-19
-4.14453e-20
-8.57238e-21
-2.53501e-21
-8.77276e-22
-1.99124e-22
2.69989e-23
5.81578e-23
3.78996e-23
1.79579e-23
7.09427e-24
2.4646e-24
7.74559e-25
2.24167e-25
6.0503e-26
1.53781e-26
3.71067e-27
8.5597e-28
1.89942e-28
3.09756e-29
1.70509e-44
-8.6564e-35
7.51536e-31
-3.22452e-29
3.75411e-27
9.02707e-26
-2.14611e-23
-1.118e-22
1.67543e-22
2.39253e-21
4.25093e-22
-1.28632e-20
3.85426e-20
2.52463e-19
5.78174e-19
4.22309e-19
-1.07481e-18
-2.9714e-18
-2.14979e-18
3.07448e-18
1.02641e-17
1.39973e-17
1.30102e-17
9.87184e-18
6.0335e-18
3.81332e-19
-5.44488e-18
-6.67518e-18
-3.87342e-18
-1.31895e-18
-2.81023e-19
-3.47245e-20
-2.64772e-21
-1.43612e-21
-8.34486e-22
-1.00299e-22
1.74807e-22
1.66303e-22
9.47424e-23
4.2344e-23
1.61494e-23
5.47084e-24
1.68522e-24
4.79405e-25
1.27378e-25
3.18921e-26
7.58047e-27
1.72172e-27
3.75871e-28
6.16537e-29
6.31387e-41
-2.95498e-33
1.38475e-29
-5.33051e-28
1.44594e-26
1.25678e-24
-1.30673e-22
-5.54755e-22
9.70967e-22
1.18712e-20
4.32344e-21
-5.80417e-20
-7.26096e-21
4.70034e-19
1.42751e-18
1.53817e-18
-1.58405e-18
-6.5235e-18
-5.67353e-18
4.87695e-18
1.96726e-17
2.72018e-17
2.50019e-17
1.9125e-17
1.3274e-17
3.79011e-18
-8.62794e-18
-1.27536e-17
-7.41697e-18
-2.21246e-18
-3.03147e-19
2.63787e-20
2.00141e-20
2.54136e-21
-4.33682e-22
2.29433e-22
5.42511e-22
4.14478e-22
2.19683e-22
9.43713e-23
3.5028e-23
1.16208e-23
3.51813e-24
9.8575e-25
2.58293e-25
6.38146e-26
1.49689e-26
3.3541e-27
7.21944e-28
1.19113e-28
1.07582e-38
-9.64443e-32
2.55358e-28
-8.28043e-27
-5.49249e-26
1.30176e-23
-7.41783e-22
-2.90346e-21
4.80096e-21
5.82517e-20
3.56847e-20
-2.24766e-19
-4.64156e-19
3.67962e-19
2.96951e-18
4.5517e-18
-1.03676e-18
-1.31109e-17
-1.30961e-17
7.92428e-18
3.71126e-17
5.13146e-17
4.61764e-17
3.51791e-17
2.74185e-17
1.36621e-17
-1.17042e-17
-2.38035e-17
-1.40831e-17
-3.47651e-18
-6.51278e-20
2.30748e-19
7.89783e-20
1.12695e-20
2.67254e-22
9.6968e-22
1.36207e-21
9.48768e-22
4.80695e-22
2.00396e-22
7.27109e-23
2.36816e-23
7.05788e-24
1.95029e-24
5.04562e-25
1.23158e-25
2.85471e-26
6.31989e-27
1.3434e-27
2.22931e-28
1.33187e-36
-3.02637e-30
4.70383e-27
-1.1557e-25
-2.48637e-24
1.1528e-22
-3.73807e-21
-1.62098e-20
1.8712e-20
2.69534e-19
2.27491e-19
-7.83925e-19
-2.88166e-18
-2.31915e-18
4.26644e-18
1.1255e-17
3.98122e-18
-2.34217e-17
-2.61812e-17
1.51825e-17
6.94588e-17
9.35298e-17
8.11798e-17
6.08075e-17
5.28762e-17
3.84948e-17
-1.07796e-17
-4.324e-17
-2.67633e-17
-4.95913e-18
9.51655e-19
7.66749e-19
2.06019e-19
2.4917e-20
2.88952e-22
2.34206e-21
3.06885e-21
2.04363e-21
1.00229e-21
4.07429e-22
1.44837e-22
4.63719e-23
1.36178e-23
3.71406e-24
9.49442e-25
2.29152e-25
5.25373e-26
1.15043e-26
2.41814e-27
4.03535e-28
1.41234e-34
-9.17613e-29
8.54591e-26
-1.36392e-24
-4.53065e-23
8.91325e-22
-1.48742e-20
-9.36065e-20
4.55457e-20
1.1277e-18
1.20654e-18
-2.43238e-18
-1.30584e-17
-1.72277e-17
-1.45747e-18
2.24328e-17
2.16196e-17
-3.45703e-17
-4.19619e-17
3.70241e-17
1.29755e-16
1.63113e-16
1.33069e-16
9.70943e-17
9.41883e-17
9.53338e-17
5.1605e-18
-7.57329e-17
-5.15936e-17
-5.93031e-18
3.98585e-18
2.00284e-18
4.40879e-19
3.56791e-20
-3.85918e-21
4.59834e-21
6.47321e-21
4.1986e-21
2.00321e-21
7.95429e-22
2.77275e-22
8.73132e-23
2.52765e-23
6.80725e-24
1.72036e-24
4.10807e-25
9.32255e-26
2.02086e-26
4.2045e-27
7.05411e-28
1.35358e-32
-2.70186e-27
1.50115e-24
-1.14685e-23
-6.64152e-22
5.88589e-21
-2.38518e-20
-5.25671e-19
-6.54808e-20
4.06729e-18
5.45381e-18
-6.14953e-18
-4.82364e-17
-7.98254e-17
-4.31215e-17
2.9958e-17
6.53809e-17
-3.17663e-17
-3.4489e-17
1.01508e-16
2.43254e-16
2.67918e-16
1.94351e-16
1.38634e-16
1.52067e-16
2.15848e-16
6.30271e-17
-1.25215e-16
-1.02692e-16
-4.23765e-18
1.18668e-17
4.60027e-18
8.01544e-19
1.2172e-20
-2.11348e-20
8.15527e-21
1.30936e-20
8.29689e-21
3.85143e-21
1.49355e-21
5.10446e-22
1.58091e-22
4.51214e-23
1.20019e-23
2.99962e-24
7.08985e-25
1.59337e-25
3.42146e-26
7.05157e-27
1.18906e-27
1.20524e-30
-7.76666e-26
2.48861e-23
3.10941e-24
-8.43962e-21
3.08001e-20
3.5335e-19
-2.63918e-18
-1.78997e-18
1.17774e-17
2.01507e-17
-8.76227e-18
-1.37792e-16
-3.16109e-16
-2.27235e-16
-8.38556e-18
1.41494e-16
3.32296e-17
1.20589e-16
2.58098e-16
4.68531e-16
4.08146e-16
2.2744e-16
1.63516e-16
2.15406e-16
4.5111e-16
2.24761e-16
-1.87124e-16
-2.15564e-16
5.46054e-18
3.09424e-17
9.61284e-18
1.18386e-18
-1.33894e-19
-7.02204e-20
1.4357e-20
2.58103e-20
1.58545e-20
7.13725e-21
2.69858e-21
9.03469e-22
2.75103e-22
7.74039e-23
2.03367e-23
5.02763e-24
1.17659e-24
2.61982e-25
5.57545e-26
1.13898e-26
1.92962e-27
1.01967e-28
-2.18958e-24
3.77913e-22
3.06664e-21
-9.15201e-20
9.39539e-20
5.50114e-18
-1.04194e-17
-1.61114e-17
2.37923e-17
5.39704e-17
2.53911e-17
-3.28684e-16
-1.33515e-15
-9.55933e-16
-2.49962e-16
2.14788e-16
3.33988e-16
1.30026e-15
6.42502e-16
1.09071e-15
5.88442e-16
-9.73408e-17
1.03843e-16
2.55252e-16
8.66359e-16
6.45834e-16
-2.33351e-16
-4.92462e-16
3.49322e-17
7.56154e-17
1.83654e-17
1.08996e-18
-6.08925e-19
-1.82713e-19
2.80955e-20
5.01148e-20
2.93854e-20
1.27562e-20
4.68988e-21
1.53605e-21
4.59553e-22
1.27439e-22
3.30734e-23
8.08909e-24
1.87485e-24
4.13737e-25
8.7302e-26
1.7686e-26
3.0091e-27
8.42945e-27
-6.0509e-23
5.01511e-21
9.4075e-20
-7.8695e-19
-3.91023e-19
5.46279e-17
-2.69933e-17
-1.29407e-16
2.48609e-17
1.98376e-15
3.35683e-16
-1.07244e-14
-6.52651e-15
-3.16266e-15
-1.05588e-15
1.24897e-15
2.04753e-15
7.69218e-15
9.64813e-15
5.07947e-15
9.16984e-16
-1.24226e-14
-2.99958e-16
2.48286e-16
2.75354e-15
1.8894e-15
-2.20597e-16
-1.42217e-15
1.06936e-16
1.80414e-16
3.13379e-17
-1.0199e-18
-1.82802e-18
-3.96383e-19
6.48838e-20
9.63388e-20
5.28741e-20
2.1974e-20
7.82915e-21
2.50441e-21
7.35634e-22
2.01009e-22
5.15298e-23
1.24706e-23
2.86326e-24
6.26398e-25
1.31092e-25
2.6345e-26
4.49928e-27
7.08678e-25
-1.61302e-21
5.16294e-20
2.11263e-18
-4.38649e-18
-1.03546e-17
5.36611e-16
-1.97771e-15
-9.68437e-16
1.88824e-14
4.34513e-14
-1.01749e-13
-2.18881e-13
-1.97174e-14
-5.2297e-15
6.23291e-14
1.30767e-13
8.85323e-15
1.59395e-14
1.0345e-13
2.03917e-14
-6.31493e-13
-5.7932e-14
9.19218e-14
5.09929e-14
2.401e-14
5.81154e-15
-8.27049e-15
-6.74845e-15
2.94913e-16
4.40372e-16
4.33258e-17
-9.11945e-18
-4.49104e-18
-7.15155e-19
1.66806e-19
1.83174e-19
9.22396e-20
3.64107e-20
1.2525e-20
3.90618e-21
1.12569e-21
3.03025e-22
7.67397e-23
1.83796e-23
4.18133e-24
9.07046e-25
1.88305e-25
3.75471e-26
6.43261e-27
6.3505e-23
-3.94223e-20
1.72507e-19
4.2665e-17
-2.83642e-17
-9.56867e-17
3.69067e-15
-7.12136e-14
7.22108e-14
3.24954e-13
1.66135e-13
-1.64442e-12
-8.25578e-13
7.27834e-12
2.84217e-11
1.2598e-11
1.68232e-12
-1.67603e-13
-1.36624e-14
4.53883e-13
-1.93056e-11
-5.63538e-12
3.49946e-12
4.20642e-12
4.47819e-13
1.10572e-13
1.15204e-14
-1.33913e-13
-2.59913e-14
2.15128e-15
1.18516e-15
2.48918e-17
-3.22016e-17
-9.44695e-18
-9.87097e-19
4.32564e-19
3.42097e-19
1.55432e-19
5.78307e-20
1.91357e-20
5.80892e-21
1.64147e-21
4.35304e-22
1.08923e-22
2.58244e-23
5.82235e-24
1.25253e-24
2.57951e-25
5.10278e-26
8.76207e-27
6.24046e-21
-7.79723e-19
-1.15559e-17
1.12241e-15
-2.00344e-14
1.89033e-13
-4.86996e-13
-3.93632e-13
6.9522e-12
1.39078e-12
-1.15995e-11
-8.41866e-11
4.00238e-10
3.88379e-10
2.30892e-10
5.57423e-11
5.84525e-12
-8.4177e-11
-3.558e-10
-9.32455e-10
-3.28733e-10
2.08688e-11
3.22608e-10
1.97854e-11
1.07933e-12
2.34692e-13
-1.15153e-12
-5.82937e-13
-4.42356e-14
1.80129e-14
3.32374e-15
-1.49876e-16
-8.74215e-17
-1.67282e-17
-6.26095e-19
1.06161e-18
6.20209e-19
2.51393e-19
8.75835e-20
2.77878e-20
8.20079e-21
2.27192e-21
5.93702e-22
1.46839e-22
3.44723e-23
7.70331e-24
1.64325e-24
3.35611e-25
6.58325e-26
1.13149e-26
6.64129e-19
-1.03277e-17
-2.00154e-16
7.35029e-15
-1.31435e-13
1.86751e-12
-2.2132e-11
7.39063e-11
3.93876e-11
-5.86598e-10
-1.91823e-09
-7.67749e-10
2.21817e-08
1.31672e-08
9.13439e-10
-3.74865e-08
-2.63292e-08
-2.24147e-09
-7.15433e-09
-9.12604e-09
-1.20247e-09
1.67795e-08
1.63298e-09
9.04714e-12
2.99122e-12
-1.43222e-12
-7.99203e-12
-1.35883e-12
1.38762e-13
8.749e-14
5.81079e-15
-7.93783e-16
-1.94032e-16
-2.23997e-17
1.85773e-18
2.39024e-18
1.07466e-18
3.8664e-19
1.25557e-19
3.81154e-20
1.09316e-20
2.97043e-21
7.65431e-22
1.87223e-22
4.35318e-23
9.64035e-24
2.03809e-24
4.12423e-25
8.01152e-26
1.37521e-26
9.15801e-17
-3.04266e-15
5.07024e-14
-6.22418e-13
5.02557e-12
-8.91032e-12
-9.6557e-11
1.1533e-09
-2.38332e-10
-1.52858e-08
-1.07959e-08
2.2099e-07
8.55444e-08
-8.31096e-09
-1.4718e-06
-1.091e-06
-2.15773e-07
-2.0953e-08
-2.45849e-08
-2.67627e-08
5.45653e-07
8.99121e-08
1.61084e-09
2.47976e-11
6.06796e-12
-9.48468e-11
-3.0124e-11
-1.17422e-12
1.307e-12
2.65739e-13
1.20713e-15
-2.31398e-15
-3.21367e-16
-1.24337e-17
9.24938e-18
4.84473e-18
1.74626e-18
5.58269e-19
1.68719e-19
4.89962e-20
1.367e-20
3.64845e-21
9.2812e-22
2.24641e-22
5.17265e-23
1.13432e-23
2.37318e-24
4.74781e-25
9.10736e-26
1.55502e-26
3.64891e-15
-6.28017e-14
1.04891e-12
-1.49882e-11
1.76201e-10
-1.54096e-09
5.385e-09
4.28739e-09
-3.48282e-08
-6.72094e-08
9.08939e-07
1.29721e-06
-5.68131e-06
-1.55454e-05
-9.00452e-06
-3.27172e-06
-4.38302e-07
-2.81351e-07
2.8573e-05
3.3482e-05
5.09962e-06
1.11879e-07
-1.59905e-09
2.92324e-12
-4.59794e-10
-4.74868e-10
-6.12709e-11
1.18044e-11
5.15897e-12
3.64877e-13
-2.31746e-14
-7.59642e-15
-3.18644e-16
4.00142e-17
2.49173e-17
8.66798e-18
2.59991e-18
7.43915e-19
2.09839e-19
5.84746e-20
1.59229e-20
4.18515e-21
1.05257e-21
2.52133e-22
5.74295e-23
1.24413e-23
2.56672e-24
5.05236e-25
9.51099e-26
1.60222e-26
1.20493e-14
-1.83855e-13
3.05502e-12
-4.58993e-11
6.11713e-10
-7.31436e-09
7.67805e-08
-1.91776e-07
-5.81057e-07
2.11615e-06
1.03288e-05
-1.54301e-06
-8.79887e-05
-6.92399e-05
-2.78226e-05
0.000684195
0.00308975
0.00392296
0.00235143
0.000572474
1.44102e-05
-5.72816e-08
-5.82729e-09
2.38724e-10
-4.49666e-09
-1.37794e-09
-3.439e-11
5.6218e-11
1.20939e-11
6.93797e-14
-1.1271e-13
-1.77648e-14
2.17417e-16
1.56103e-16
4.94454e-17
1.33284e-17
3.44236e-18
8.94191e-19
2.37822e-19
6.41627e-20
1.7169e-20
4.46147e-21
1.11039e-21
2.62803e-22
5.89803e-23
1.25458e-23
2.5309e-24
4.84752e-25
8.82634e-26
1.43919e-26
-5.26717e-12
4.62452e-11
-4.28329e-10
3.43614e-09
-1.87348e-08
3.70237e-08
2.27056e-07
-1.51195e-06
-2.20197e-06
2.42739e-05
3.33618e-05
-0.000346179
-0.000228513
0.000278845
0.0102723
0.0268498
0.0332274
0.0253192
0.0114043
0.00219621
7.0216e-06
-6.86752e-08
-3.25944e-09
-3.96384e-08
-1.92837e-08
-1.93305e-09
4.51897e-10
1.89678e-10
1.45688e-11
-9.84101e-13
-3.90801e-13
-2.17298e-14
1.07336e-15
3.37665e-16
7.549e-17
1.69155e-17
3.88577e-18
9.40331e-19
2.41657e-19
6.43702e-20
1.71239e-20
4.41624e-21
1.08522e-21
2.52e-22
5.51072e-23
1.13316e-23
2.18832e-24
3.96019e-25
6.68757e-26
9.91776e-27
-6.9011e-11
2.7486e-10
-2.54424e-09
2.52961e-08
-2.28648e-07
1.28973e-06
-3.44262e-06
-4.70272e-06
2.32843e-05
8.13542e-05
-0.000621495
-0.00158694
0.000906736
0.0317945
0.0818925
0.117853
0.112459
0.0737783
0.0302459
0.00531236
2.38871e-06
-4.8383e-08
-3.92618e-07
-2.73152e-07
-4.79024e-08
2.10031e-09
1.95352e-09
4.09961e-10
2.23146e-12
-3.89948e-12
-8.21018e-13
-7.06596e-15
2.76155e-15
5.33094e-16
8.52769e-17
1.63366e-17
3.47535e-18
8.31492e-19
2.18996e-19
5.98274e-20
1.60565e-20
4.10113e-21
9.82154e-22
2.19014e-22
4.5257e-23
8.60799e-24
1.48749e-24
2.26941e-25
2.83615e-26
2.0535e-27
-3.28072e-10
3.44867e-10
-2.53653e-09
2.53696e-08
-5.26421e-07
4.75515e-06
-2.85192e-05
2.55379e-05
0.00022194
-0.000108496
-0.00355056
-0.00315487
0.0422506
0.143714
0.252096
0.293839
0.250141
0.151207
0.0588835
0.00987063
-8.04635e-07
-3.26301e-06
-2.67043e-06
-8.98141e-07
-5.81669e-08
1.37037e-08
6.21475e-09
5.83697e-10
-2.73564e-11
-1.18821e-11
-9.61803e-13
2.54638e-14
7.95176e-15
5.57414e-16
5.31866e-17
8.85824e-18
2.04091e-18
6.00451e-19
1.86636e-19
5.50896e-20
1.49341e-20
3.6886e-21
8.26903e-22
1.66788e-22
2.95857e-23
4.33536e-24
4.1128e-25
-2.66808e-26
-2.80834e-26
-9.38436e-27
5.07562e-10
-9.5536e-09
9.26049e-08
-7.22326e-07
3.79068e-06
6.81724e-07
-7.27469e-05
0.000291087
0.000647926
-0.00406925
-0.0092367
0.0260915
0.157246
0.359305
0.522582
0.538842
0.423686
0.241953
0.0907354
0.0146387
-1.2936e-05
-1.52544e-05
-8.60249e-06
-1.83915e-06
2.73247e-08
4.68451e-08
1.29395e-08
3.21291e-10
-9.46686e-11
-2.28066e-11
-4.53773e-13
8.6132e-14
1.44728e-14
9.12664e-17
-2.69318e-17
-4.55787e-18
1.95335e-19
4.24344e-19
1.84547e-19
5.79321e-20
1.50977e-20
3.38466e-21
6.47527e-22
9.87291e-23
8.49449e-24
-1.42346e-24
-1.024e-24
-3.59757e-25
-1.00958e-25
-2.40712e-26
2.28096e-07
-1.41134e-07
4.01083e-07
-2.01402e-06
1.85925e-05
-9.88162e-05
-7.24283e-06
0.00110531
-0.00145511
-0.0137101
-0.00596571
0.108233
0.355308
0.650322
0.821165
0.787738
0.577976
0.313802
0.113075
0.0172975
-4.80953e-05
-4.54422e-05
-1.94185e-05
-2.38274e-06
2.16781e-07
1.22318e-07
1.85639e-08
-6.37129e-10
-2.6673e-10
-2.46417e-11
6.91251e-13
2.34335e-13
1.08668e-14
-7.14193e-16
-1.29869e-16
-1.58367e-17
-3.78555e-19
6.07237e-19
2.61505e-19
7.51417e-20
1.73094e-20
3.24264e-21
4.42004e-22
1.36523e-23
-1.80576e-23
-8.57911e-24
-2.77338e-24
-7.57302e-25
-1.86135e-25
-4.10778e-26
1.53753e-06
-1.81633e-06
6.49399e-07
1.0238e-05
-1.42704e-05
-0.000278678
0.00107072
0.00173918
-0.0106618
-0.0230895
0.0418909
0.253344
0.593954
0.922697
1.04873
0.935002
0.648084
0.334808
0.114925
0.0158423
-0.000133054
-0.000107699
-3.29795e-05
-1.22754e-06
5.94356e-07
2.15859e-07
1.20624e-08
-1.67534e-09
-4.41552e-10
-1.14983e-11
1.7766e-12
3.16155e-13
-7.97713e-15
-2.10413e-15
-1.75844e-16
-1.13559e-17
2.29609e-18
1.38972e-18
4.35431e-19
1.051e-19
2.04883e-20
2.96741e-21
1.51107e-22
-9.74343e-23
-5.08429e-23
-1.70246e-23
-4.75965e-24
-1.19344e-24
-2.76719e-25
-5.88475e-26
-2.00789e-06
-1.2902e-05
2.00958e-05
5.38253e-05
-0.000421146
0.000526434
0.00393475
-0.00519121
-0.0310072
-0.014964
0.125279
0.417402
0.786051
1.06932
1.11281
0.935632
0.608661
0.290544
0.0887028
0.00869609
-0.00033979
-0.000208165
-3.88633e-05
1.99346e-06
1.30845e-06
2.36171e-07
-8.62347e-09
-3.81222e-09
-3.86972e-10
1.54844e-11
4.27418e-12
3.25094e-14
-3.5271e-14
-3.85125e-15
-3.80353e-17
1.7324e-17
8.55693e-18
2.63031e-18
6.46341e-19
1.3172e-19
2.10996e-20
1.89092e-21
-3.32473e-22
-2.47882e-22
-9.05706e-23
-2.64922e-23
-6.85304e-24
-1.62954e-24
-3.63147e-25
-7.52867e-26
-4.93345e-05
-4.64281e-05
0.000214765
-0.00024128
-0.00128253
0.00385544
0.00632903
-0.0211897
-0.0516417
0.00546045
0.210646
0.529942
0.857353
1.04486
1.00994
0.77469
0.452805
0.187676
0.0434026
0.000342518
-0.000815739
-0.000296468
-1.82095e-05
4.92942e-06
1.79191e-06
1.11801e-07
-1.82798e-08
-4.49106e-09
-3.93765e-12
3.92504e-11
4.43539e-12
-5.06887e-13
-8.64141e-14
2.56548e-16
1.69238e-16
5.61535e-17
1.52437e-17
3.62872e-18
7.5039e-19
1.27622e-19
1.43822e-20
-7.17599e-22
-1.099e-21
-4.43397e-22
-1.35935e-22
-3.62815e-23
-8.84268e-24
-2.01348e-24
-4.33879e-25
-8.80185e-26
-5.80446e-05
0.000218544
0.00071858
-0.0015843
-0.00179658
0.00914065
0.00574079
-0.0393626
-0.0655294
0.0242319
0.249136
0.538862
0.782571
0.858073
0.755047
0.51645
0.256234
0.0781183
0.00371825
-0.00380909
-0.00159371
-0.000192487
2.11484e-05
8.51193e-06
1.04717e-06
-1.08958e-07
-3.18443e-08
-4.68941e-10
5.66576e-10
8.72046e-11
-4.68326e-12
-1.19813e-12
-3.2891e-14
1.12727e-15
3.05972e-16
7.28425e-17
1.67165e-17
3.45666e-18
5.99519e-19
7.09523e-20
-2.37885e-21
-5.05849e-21
-2.12207e-21
-6.6683e-22
-1.81587e-22
-4.50525e-23
-1.04305e-23
-2.28413e-24
-4.77142e-25
-9.48353e-26
0.000511921
0.00106841
0.000552002
-0.00452441
-0.0013827
0.01476
0.0043441
-0.0492466
-0.0675386
0.0230517
0.209291
0.420318
0.568597
0.571842
0.455034
0.25963
0.0888775
0.00228603
-0.0126498
-0.00591163
-0.0010903
6.2054e-05
3.03189e-05
4.59593e-06
-6.3343e-07
-1.78841e-07
-3.25773e-09
5.73896e-09
1.23204e-09
-8.30297e-12
-8.59778e-12
-1.1836e-12
1.07386e-14
2.01508e-15
2.80582e-16
5.71006e-17
1.14781e-17
1.91733e-18
1.85547e-19
-3.23537e-20
-2.64505e-20
-1.03107e-20
-3.19557e-21
-8.71899e-22
-2.17966e-22
-5.09629e-23
-1.12832e-23
-2.3848e-24
-4.8389e-25
-9.43022e-26
-0.00128637
-0.000891408
-0.00312556
-0.00804153
0.00202853
0.0215347
0.00742712
-0.0427441
-0.0573461
-0.00534228
0.0958077
0.215968
0.293045
0.279386
0.17937
0.0586514
-0.0141765
-0.0265121
-0.0131722
-0.00300233
0.000103172
0.000135142
3.48556e-05
-3.19514e-06
-1.78341e-06
-2.16044e-07
3.43816e-08
1.10248e-08
4.92109e-10
-5.51803e-11
-1.42475e-11
-4.61406e-13
8.67884e-15
1.06812e-15
1.24152e-16
2.06724e-17
2.36088e-18
-2.95872e-19
-3.26683e-19
-1.44593e-19
-4.95949e-20
-1.47645e-20
-3.98393e-21
-9.96536e-22
-2.34316e-22
-5.22852e-23
-1.11493e-23
-2.28393e-24
-4.51247e-25
-8.63207e-26
-0.00444628
-0.00333996
-0.00482208
-0.00408701
0.0118323
0.0287749
0.0163146
-0.0176746
-0.0369493
-0.0350362
-0.0106137
0.038323
0.0650305
0.0414181
-0.0130253
-0.0499945
-0.0445364
-0.0211756
-0.00420876
0.000967587
0.000638969
0.000168251
-1.34829e-05
-1.09198e-05
-2.33148e-06
7.84857e-08
4.88643e-08
6.79837e-09
-2.80335e-10
-9.02942e-11
-4.95194e-12
2.43693e-13
2.66239e-14
-2.36301e-16
-5.00404e-17
-1.54906e-17
-5.75174e-18
-2.0859e-18
-7.01507e-19
-2.17459e-19
-6.23972e-20
-1.66855e-20
-4.18795e-21
-9.93297e-22
-2.23978e-22
-4.82735e-23
-9.99108e-24
-1.99359e-24
-3.84768e-25
-7.23707e-26
0.00834911
0.00969224
0.00943965
0.0104598
0.0193094
0.0268096
0.019932
0.00644305
-0.0117006
-0.0347868
-0.0452859
-0.040981
-0.0489795
-0.0684619
-0.0773264
-0.0569744
-0.0227625
-0.000101974
0.00575455
0.00303645
0.000693085
-4.07255e-05
-3.876e-05
-1.23908e-05
-4.39132e-07
1.72433e-07
4.36025e-08
8.32534e-10
-2.42737e-10
-4.01058e-11
4.17636e-12
5.44564e-13
-6.59821e-15
-1.09292e-15
-1.4811e-16
-3.27683e-17
-8.98836e-18
-2.65208e-18
-7.81331e-19
-2.22019e-19
-5.99966e-20
-1.53547e-20
-3.72395e-21
-8.58315e-22
-1.88717e-22
-3.97431e-23
-8.0488e-24
-1.57331e-24
-2.97789e-25
-5.5202e-26
0.0110788
0.0116794
0.0105267
0.00804778
0.00724121
0.00676032
0.00848124
0.0119189
0.00605074
-0.00814698
-0.0194497
-0.0335262
-0.0495784
-0.0559907
-0.0380519
-0.00698055
0.0134725
0.0156151
0.00864649
0.0024691
2.83479e-05
-9.01357e-05
-4.126e-05
-3.5951e-06
1.02637e-06
2.92297e-07
9.64046e-09
-1.77702e-09
-3.90969e-10
3.8823e-11
9.61281e-12
1.84459e-13
-8.10686e-15
-1.06505e-15
-1.05487e-16
-2.19426e-17
-6.20633e-18
-1.90497e-18
-5.75926e-19
-1.65877e-19
-4.50637e-20
-1.15314e-20
-2.78532e-21
-6.37398e-22
-1.38796e-22
-2.88902e-23
-5.77374e-24
-1.11249e-24
-2.07429e-25
-3.80076e-26
0.00344039
0.00334758
0.00198662
-0.000715431
-0.00452176
-0.00699502
-0.00358133
0.00314753
0.00669396
0.00921486
0.00897844
0.000954432
-0.00737306
-0.000932857
0.017676
0.0298105
0.0264162
0.0153179
0.00519198
0.000547283
-0.000151079
-7.77935e-05
-9.32063e-06
3.83066e-06
1.18874e-06
9.69374e-09
-8.67543e-09
-1.83339e-09
2.95131e-10
8.06108e-11
3.74184e-12
-1.52837e-13
-1.85403e-14
5.15395e-16
7.23537e-17
6.78827e-18
-4.91863e-19
-6.09821e-19
-2.61962e-19
-8.82557e-20
-2.60522e-20
-6.98946e-21
-1.7347e-21
-4.02766e-22
-8.82248e-23
-1.83605e-23
-3.65238e-24
-6.98213e-25
-1.28865e-25
-2.34173e-26
-0.00199335
-0.00247254
-0.00285478
-0.00294429
-0.00384196
-0.00434677
-0.00366629
-0.00309897
-0.00059641
0.00554791
0.00908002
0.00701069
0.00746218
0.016248
0.0250272
0.0237843
0.0152311
0.00631623
0.00122795
-8.75212e-05
-1.02104e-05
1.79554e-05
8.16692e-06
1.3318e-06
-3.64113e-07
-1.01919e-07
-6.1837e-09
1.6167e-09
4.207e-10
-2.559e-12
-1.83861e-12
-2.60382e-13
1.14899e-14
1.54481e-15
1.26779e-16
1.74545e-17
2.26959e-18
1.55845e-19
-4.94467e-20
-3.11199e-20
-1.13605e-20
-3.38916e-21
-8.93609e-22
-2.15064e-22
-4.80986e-23
-1.01171e-23
-2.01966e-24
-3.85446e-25
-7.07527e-26
-1.27943e-26
-0.000832082
-0.000919082
-0.000589751
0.000344826
0.00148492
0.00217427
0.00116643
-0.00144745
-0.00208437
-3.24955e-05
-0.000403704
-0.00375552
-0.00482693
-0.000820051
0.0033583
0.00424041
0.00278916
0.00118894
0.000367847
0.000302317
0.000122809
2.21732e-05
-2.90875e-06
-1.63347e-06
-3.47819e-07
8.54616e-09
5.181e-09
8.39768e-10
-1.52865e-10
-3.92451e-11
-1.97473e-12
1.13788e-13
1.88201e-14
1.81998e-16
3.84871e-18
2.12861e-18
5.60322e-19
8.78038e-20
-2.88983e-21
-8.48835e-21
-4.00284e-21
-1.35697e-21
-3.86155e-22
-9.75083e-23
-2.24774e-23
-4.81462e-24
-9.70329e-25
-1.85768e-25
-3.40442e-26
-6.14368e-27
0.000643869
0.000757003
0.000848508
0.000829964
0.000867228
0.00118065
0.000843479
-0.000426267
5.51889e-05
0.00208798
0.000768242
-0.00584089
-0.0112525
-0.0108291
-0.00588239
-0.00103757
0.00107903
0.00139541
0.00102817
0.000378966
4.39438e-05
-1.56439e-05
-6.43841e-06
-6.79293e-07
1.81247e-07
5.96443e-08
4.75567e-09
-5.46708e-10
-1.44783e-10
3.65992e-13
6.46302e-13
1.11691e-13
-4.0089e-15
-5.60459e-16
-6.67423e-17
-9.70585e-18
-1.36428e-18
-1.79902e-19
-2.56244e-20
-5.38125e-21
-1.62381e-21
-5.13745e-22
-1.48511e-22
-3.8577e-23
-9.11105e-24
-1.98543e-24
-4.04342e-25
-7.77765e-26
-1.42542e-26
-2.57067e-27
-0.000308528
-0.000319945
-0.0004893
-0.00115541
-0.00155337
-0.000786955
-0.00115282
-0.00276187
-0.000596599
0.00517731
0.00570223
-0.000767801
-0.00672435
-0.00615355
-0.0016218
0.00199377
0.00252501
0.00177325
0.000739733
0.000138055
-1.67031e-05
-6.64987e-06
-6.5986e-07
2.65129e-07
5.68854e-08
-6.86993e-09
-1.93615e-09
-1.64508e-10
4.87472e-11
1.0924e-11
3.14166e-13
-4.39807e-14
-7.90483e-15
-3.60352e-16
-4.31077e-17
-7.63562e-18
-1.27674e-18
-1.98717e-19
-2.96496e-20
-4.6746e-21
-8.97188e-22
-2.13471e-22
-5.5194e-23
-1.38981e-23
-3.27188e-24
-7.15831e-25
-1.46345e-25
-2.81888e-26
-5.1578e-27
-9.28652e-28
6.85533e-06
-7.06589e-06
-0.000777697