/*--------------------------------*- C++ -*----------------------------------*\
| =========                 |                                                 |
| \\      /  F ield         | OpenFOAM: The Open Source CFD Toolbox           |
|  \\    /   O peration     | Version:  v2006                                 |
|   \\  /    A nd           | Website:  www.openfoam.com                      |
|    \\/     M anipulation  |                                                 |
\*---------------------------------------------------------------------------*/
FoamFile
{
    version     2.0;
    format      ascii;
    class       volScalarField;
    location    "0";
    object      shifted_f;
}
// * * * * * * * * * * * * * * * * * * * * * * * * * * * * * * * * * * * * * //

dimensions      [0 0 0 0 0 0 0];


internalField   nonuniform List<scalar> 
2500
(
-0.00110627
-0.00110625
-0.00110619
-0.00110606
-0.00110606
-0.00110602
-0.00110606
-0.00110586
-0.00110587
-0.00110597
-0.00110575
-0.00110586
-0.00110576
-0.00110575
-0.00110562
-0.00110568
-0.00110552
-0.00110548
-0.00110546
-0.00110539
-0.00110544
-0.00110534
-0.00110522
-0.00110526
-0.0011052
-0.00110515
-0.00110512
-0.00110507
-0.00110512
-0.00110504
-0.00110486
-0.001105
-0.00110498
-0.00110478
-0.00123236
-0.00123226
-0.0012322
-0.00123223
-0.00123219
-0.00123213
-0.0012321
-0.00123199
-0.00123203
-0.00123192
-0.00123193
-0.00123188
-0.00123188
-0.00123172
-0.00123172
-0.0012316
-0.00123162
-0.00123161
-0.00123161
-0.00123151
-0.00123156
-0.00123125
-0.00123148
-0.00123128
-0.0012313
-0.00123116
-0.00123109
-0.00123109
-0.00123102
-0.00123104
-0.00123085
-0.00123099
-0.00123089
-0.00123079
-0.00123077
-0.00123085
-0.0012308
-0.00123068
-0.00123062
-0.00123064
-0.00123056
-0.00123053
-0.00123051
-0.0012306
-0.00123059
-0.00123041
-0.00123024
-0.00123034
-0.00123023
-0.00123038
-0.00123021
-0.00123033
-0.0012302
-0.00123
-0.00123005
-0.00122998
-0.0012301
-0.00122998
-0.00122998
-0.00122984
-0.00122993
-0.00122993
-0.00122979
-0.00122985
-0.00122979
-0.00122967
-0.00122971
-0.00122968
-0.00122974
-0.00122967
-0.00122949
-0.00122948
-0.00122963
-0.00122941
-0.00122945
-0.00122949
-0.00122936
-0.00122936
-0.00122924
-0.00122934
-0.00122932
-0.00122929
-0.00122908
-0.00122912
-0.0012291
-0.0012292
-0.00122909
-0.00122908
-0.00122902
-0.001229
-0.00122897
-0.00122901
-0.00122897
-0.00122891
-0.00122884
-0.00122887
-0.00122881
-0.00122872
-0.00122868
-0.00122885
-0.00122877
-0.00069413
-0.000694089
-0.000693988
-0.000693992
-0.000693962
-0.0006941
-0.000693876
-0.000693772
-0.000693779
-0.000693876
-0.000693616
-0.000693616
-0.000693504
-0.000693422
-0.000693467
-0.000693467
-0.000693537
-0.000693422
-0.00069325
-0.000693325
-0.000693191
-0.00069328
-0.000693098
-0.000693213
-0.000693016
-0.000692986
-0.000692982
-0.00069309
-0.000692789
-0.0006929
-0.000692759
-0.000692744
-0.000692774
-0.000692785
-0.000692736
-0.000692673
-0.000692736
-0.000692505
-0.000692539
-0.000692472
-0.000692431
-0.00069252
-0.000692252
-0.000692476
-0.000692334
-0.000692274
-0.000692081
-0.000692286
-0.000692178
-0.000692081
-0.000692125
-0.000691995
-0.000692166
-0.000692043
-0.000692006
-0.000691876
-0.000691857
-0.00069179
-0.000691887
-0.000691999
-0.00069188
-0.000691798
-0.000691783
-0.000691708
-0.000691779
-0.000691593
-0.000691574
-0.0006916
-0.000691608
-0.000691567
-0.000691481
-0.000691395
-0.000691403
-0.000691336
-0.000691481
-0.000691373
-0.000691298
-0.000691433
-0.000691321
-0.000691213
-0.000691179
-0.000691239
-0.000691116
-0.000691123
-0.000690959
-0.000691071
-0.000691198
-0.000690907
-0.000691064
-0.000691041
-0.000690933
-0.000690911
-0.000690814
-0.000690889
-0.000690702
-0.000690952
-0.000690777
-0.000690822
-0.000690777
-0.000690755
-0.000690829
2.59839e-05
2.60212e-05
2.59914e-05
2.59168e-05
2.59764e-05
2.59914e-05
2.62745e-05
2.62968e-05
2.62819e-05
2.64831e-05
2.64384e-05
2.65576e-05
2.64421e-05
2.65725e-05
2.65874e-05
2.66694e-05
2.68333e-05
2.66321e-05
2.6796e-05
2.69972e-05
2.69786e-05
2.70456e-05
2.70419e-05
2.70568e-05
2.72132e-05
2.71164e-05
2.72766e-05
2.73176e-05
2.72542e-05
2.7366e-05
2.72878e-05
2.74666e-05
2.74777e-05
2.76007e-05
2.76379e-05
2.75783e-05
2.76789e-05
2.76677e-05
2.79173e-05
2.78242e-05
2.78093e-05
2.79173e-05
2.78316e-05
2.79509e-05
2.79807e-05
2.79285e-05
2.80887e-05
2.80924e-05
2.80403e-05
2.81706e-05
2.81297e-05
2.82265e-05
2.82191e-05
2.84128e-05
2.8301e-05
2.83755e-05
2.84612e-05
2.84612e-05
2.83569e-05
2.85394e-05
2.86251e-05
2.86438e-05
2.85991e-05
2.85693e-05
2.86065e-05
2.86847e-05
2.88598e-05
2.8763e-05
2.88971e-05
2.89008e-05
2.88151e-05
2.89641e-05
2.8912e-05
2.88337e-05
2.90163e-05
2.89269e-05
2.91727e-05
2.91057e-05
2.91504e-05
2.91727e-05
2.93218e-05
2.92696e-05
2.93478e-05
2.93143e-05
2.92212e-05
2.94298e-05
2.94484e-05
2.93143e-05
2.93814e-05
2.94484e-05
2.93218e-05
2.93516e-05
2.94484e-05
2.95602e-05
2.97241e-05
2.96086e-05
2.96868e-05
2.96943e-05
2.98321e-05
2.97762e-05
2.97017e-05
0.000645291
0.000645369
0.000645328
0.000645369
0.000645462
0.000645671
0.000645492
0.000645831
0.000645738
0.000645768
0.000645831
0.000646111
0.000646029
0.00064607
0.000645991
0.000646126
0.000646263
0.0006462
0.000646312
0.000646483
0.000646397
0.000646565
0.000646677
0.000646569
0.000646677
0.000646755
0.000646751
0.000646766
0.000646997
0.000646871
0.000646923
0.000647087
0.000647094
0.000647139
0.000647318
0.000647254
0.000647068
0.00064737
0.000647362
0.000647429
0.000647526
0.000647496
0.000647489
0.000647616
0.000647757
0.000647698
0.00064788
0.000647705
0.000647675
0.000647966
0.000647895
0.000647891
0.000648137
0.000648014
0.00064816
0.000648174
0.000648301
0.000648189
0.000648163
0.000648145
0.000648268
0.000648323
0.00064823
0.000648297
0.000648469
0.000648487
0.000648443
0.000648472
0.000648465
0.000648443
0.000648659
0.000648562
0.000648748
0.000648659
0.000648614
0.0006488
0.000648718
0.000648845
0.000648882
0.000648905
0.000648968
0.000649016
0.00064905
0.000649072
0.000649255
0.000649169
0.00064918
0.000649244
0.000649121
0.000649303
0.000649352
0.000649337
0.000649393
0.000649329
0.000649255
0.000649333
0.000649236
0.000649475
0.000649404
0.00064959
0.000649471
0.00104601
0.00104605
0.00104589
0.00104597
0.00104624
0.0010463
0.00104633
0.00104631
0.00104639
0.00104656
0.00104662
0.00104656
0.00104664
0.00104696
0.00104684
0.00104687
0.00104703
0.00104708
0.00104718
0.00104695
0.00104706
0.00104712
0.00104735
0.00104729
0.00104743
0.00104754
0.00104743
0.00104758
0.00104765
0.00104753
0.00104763
0.00104773
0.00104778
0.00104794
0.00104794
0.00104791
0.00104819
0.00104806
0.00104802
0.00104824
0.00104821
0.00104838
0.00104826
0.00104834
0.00104847
0.00104849
0.00104847
0.0010485
0.00104846
0.00104861
0.0010486
0.00104868
0.0010486
0.0010487
0.00104867
0.00104894
0.00104893
0.00104889
0.00104881
0.00104909
0.00104911
0.00104909
0.00104918
0.00104908
0.00104906
0.00104919
0.00104928
0.00104917
0.0010496
0.00104938
0.00104952
0.00104955
0.00104943
0.00104955
0.00104951
0.00104964
0.00104967
0.00104968
0.00104978
0.00104984
0.00104989
0.00104987
0.00104981
0.00104964
0.00104997
0.00105008
0.00104998
0.00105001
0.00105008
0.00105013
0.00105005
0.0010502
0.00105013
0.0010503
0.00105014
0.0010503
0.0010503
0.00105026
0.0010503
0.00105027
0.00105039
0.00121355
0.00121378
0.00121387
0.00121388
0.00121382
0.00121405
0.00121394
0.00121402
0.0012142
0.00121417
0.00121434
0.00121426
0.0012143
0.00121449
0.00121433
0.00121442
0.00121456
0.00121457
0.00121471
0.00121469
0.00121474
0.00121493
0.00121481
0.00121503
0.00121495
0.00121501
0.00121512
0.00121524
0.00121519
0.00121528
0.00121531
0.0012154
0.00121544
0.00121539
0.00121554
0.00121555
0.00121556
0.00121569
0.0012158
0.00121567
0.00121577
0.00121595
0.00121577
0.00121619
0.00121591
0.00121607
0.0012161
0.00121609
0.00121625
0.00121624
0.0012163
0.0012163
0.00121631
0.00121632
0.00121643
0.00121636
0.00121643
0.00121645
0.00121659
0.00121665
0.00121663
0.00121681
0.00121662
0.00121677
0.00121703
0.00121687
0.00121707
0.001217
0.00121696
0.00121711
0.0012172
0.00121696
0.00121707
0.0012172
0.00121713
0.00121715
0.00121718
0.00121735
0.00121729
0.00121716
0.0012173
0.00121737
0.00121737
0.00121747
0.0012175
0.00121765
0.00121777
0.00121746
0.00121769
0.0012178
0.00121766
0.00121773
0.00121786
0.00121786
0.001218
0.00121795
0.00121799
0.00121799
0.00121796
0.00121813
0.00121797
0.00118877
0.00118884
0.00118896
0.00118899
0.00118913
0.00118912
0.00118917
0.0011894
0.00118917
0.00118945
0.00118959
0.00118954
0.00118967
0.00118964
0.00118973
0.00118984
0.00118976
0.00118971
0.00118997
0.00118988
0.00118998
0.00119006
0.0011901
0.00118997
0.00119021
0.00119031
0.00119026
0.00119046
0.00119044
0.00119046
0.00119062
0.00119056
0.00119061
0.00119052
0.00119063
0.00119073
0.00119094
0.00119079
0.00119077
0.00119087
0.00119098
0.00119112
0.0011911
0.00119105
0.00119125
0.00119117
0.00119109
0.00119133
0.00119124
0.00119145
0.00119133
0.00119133
0.00119166
0.00119149
0.0011916
0.0011917
0.00119159
0.00119161
0.00119178
0.00119181
0.00119183
0.00119178
0.00119187
0.00119181
0.00119179
0.001192
0.001192
0.00119198
0.00119196
0.00119214
0.00119213
0.00119219
0.00119243
0.00119241
0.00119219
0.00119232
0.00119231
0.00119252
0.00119242
0.00119253
0.00119268
0.00119249
0.00119277
0.00119254
0.00119259
0.0011927
0.00119261
0.00119285
0.00119293
0.00119283
0.00119298
0.00119301
0.00119304
0.00119297
0.00119305
0.0011931
0.00119311
0.00119308
0.00119317
0.0011932
0.00119336
0.0010353
0.0010354
0.00103539
0.00103542
0.00103569
0.00103556
0.00103563
0.00103582
0.00103578
0.00103593
0.00103588
0.001036
0.00103594
0.00103588
0.00103604
0.00103623
0.00103625
0.00103626
0.00103623
0.00103625
0.00103638
0.00103645
0.0010365
0.00103655
0.00103667
0.00103649
0.00103668
0.00103684
0.00103672
0.00103674
0.0010367
0.00103695
0.00103689
0.00103697
0.00103707
0.00103696
0.00103719
0.00103714
0.00103726
0.00103715
0.00103733
0.00103742
0.00103741
0.00103727
0.0010374
0.00103739
0.0010375
0.0010374
0.0010379
0.00103768
0.00103793
0.00103778
0.00103782
0.00103777
0.00103768
0.00103777
0.00103794
0.00103793
0.00103781
0.00103823
0.00103805
0.0010382
0.00103823
0.00103817
0.00103807
0.0010383
0.00103837
0.00103822
0.00103864
0.00103841
0.00103837
0.00103852
0.00103843
0.00103854
0.00103869
0.00103867
0.00103892
0.00103888
0.0010387
0.00103896
0.0010388
0.00103888
0.00103884
0.00103894
0.00103911
0.00103902
0.00103899
0.001039
0.00103923
0.0010392
0.00103926
0.00103929
0.00103937
0.00103929
0.00103943
0.00103943
0.00103947
0.00103957
0.00103961
0.00103956
0.00103964
0.000820618
0.000820648
0.00082067
0.000820648
0.00082076
0.000820968
0.000821043
0.000820804
0.000820961
0.000821102
0.00082108
0.000821009
0.000821177
0.000821039
0.000821225
0.000821147
0.000821348
0.000821527
0.000821386
0.000821393
0.000821464
0.000821557
0.00082162
0.000821684
0.000821669
0.000821702
0.00082178
0.000821956
0.000821874
0.00082187
0.000821915
0.00082181
0.000822064
0.000822056
0.000821944
0.000822183
0.000822153
0.000822235
0.000822227
0.000822205
0.000822347
0.000822354
0.000822473
0.000822414
0.000822496
0.000822518
0.000822607
0.000822771
0.000822809
0.000822827
0.000822786
0.000822768
0.000822697
0.000822727
0.000822935
0.00082301
0.000822898
0.000823032
0.000823203
0.000822935
0.000823047
0.000823077
0.000823092
0.000823185
0.000823144
0.000823244
0.000823494
0.00082349
0.000823464
0.000823367
0.000823498
0.000823669
0.000823531
0.000823624
0.000823621
0.000823807
0.000823792
0.000823904
0.000824023
0.000823833
0.000823755
0.000823975
0.000823867
0.000824016
0.000823971
0.000824116
0.000824269
0.000824288
0.000824064
0.000824384
0.000824243
0.000824206
0.000824433
0.00082453
0.000824209
0.000824332
0.000824373
0.000824463
0.000824522
0.000824589
0.000824533
0.000604067
0.000604272
0.000604276
0.000604298
0.000604283
0.000604369
0.000604343
0.00060444
0.00060438
0.000604346
0.000604458
0.000604648
0.000604708
0.000604633
0.000604849
0.000604961
0.000604853
0.00060505
0.000605177
0.000604782
0.000604931
0.000604812
0.000604942
0.000605021
0.000605062
0.000605311
0.00060517
0.000605289
0.000605285
0.000605345
0.000605475
0.000605419
0.000605628
0.000605736
0.000605557
0.000605706
0.000605579
0.000605617
0.000605892
0.000605863
0.000605758
0.000605885
0.000605825
0.000605952
0.000605833
0.00060593
0.0006059
0.000606146
0.00060622
0.000606138
0.000606161
0.000606094
0.000606116
0.000605967
0.000606339
0.000606112
0.000606138
0.000606414
0.000606362
0.000606384
0.000606481
0.00060631
0.000606336
0.000606503
0.000606507
0.000606511
0.0006066
0.000606477
0.00060663
0.000606775
0.000606753
0.000606857
0.000607017
0.000606757
0.000606973
0.000607163
0.000606928
0.000607159
0.000607096
0.00060733
0.000607286
0.000607345
0.000607323
0.000607315
0.000607405
0.000607405
0.00060739
0.000607558
0.000607453
0.000607554
0.000607479
0.000607569
0.00060764
0.000607662
0.000607599
0.000607632
0.000607818
0.000607748
0.000607729
0.000607796
0.000607837
0.000432957
0.000432875
0.000432916
0.000433072
0.000433318
0.000433166
0.000433382
0.000433292
0.000433225
0.0004333
0.000433531
0.000433456
0.000433441
0.000433397
0.000433598
0.000433546
0.000433672
0.00043368
0.000433624
0.000433739
0.000433754
0.000434015
0.000433993
0.000433903
0.00043403
0.000434011
0.000433926
0.000434045
0.000434149
0.000434134
0.000434112
0.000434082
0.000434201
0.000434283
0.000434417
0.000434298
0.000434302
0.000434492
0.000434514
0.000434522
0.000434499
0.000434455
0.000434652
0.000434611
0.000434574
0.000434715
0.000434719
0.000434805
0.000434887
0.000434909
0.000434574
0.000434741
0.000434935
0.000435006
0.000435051
0.000435244
0.000435229
0.000435255
0.000435125
0.000435259
0.000435222
0.000435304
0.000435155
0.000435509
0.00043549
0.000435501
0.000435609
0.00043552
0.000435535
0.000435557
0.00043555
0.000435587
0.000435613
0.00043577
0.000435751
0.000435743
0.000435892
0.000435639
0.00043565
0.000435811
0.000435989
0.000436015
0.00043593
0.000436086
0.000435878
0.000436019
0.000436086
0.000436235
0.000436366
0.000436332
0.000436295
0.000436421
0.000436414
0.000436299
0.000436459
0.000436392
0.00043631
0.000436191
0.000436526
0.000436641
0.000436664
0.000338431
0.000338618
0.000338465
0.000338472
0.000338785
0.00033867
0.000338819
0.000338759
0.000338916
0.000338841
0.000338797
0.000339087
0.000339076
0.000339035
0.000338975
0.000338979
0.000339124
0.000339191
0.000339229
0.000339326
0.000339437
0.000339475
0.000339385
0.000339344
0.000339467
0.000339445
0.000339281
0.000339393
0.000339359
0.000339378
0.000339504
0.000339519
0.000339691
0.000339601
0.000339735
0.000339668
0.00033978
0.000339828
0.00033981
0.000339732
0.000339996
0.000339825
0.00034
0.000340175
0.0003401
0.000340048
0.000340182
0.000340108
0.000340346
0.000340294
0.000340216
0.000340242
0.000340294
0.000340309
0.000340406
0.000340398
0.000340436
0.000340525
0.000340577
0.000340708
0.000340637
0.000340626
0.000340607
0.000340514
0.000340562
0.000340346
0.000340719
0.000340864
0.000340909
0.000340756
0.000340823
0.000340741
0.000340872
0.000341002
0.00034092
0.000341158
0.000341039
0.000340983
0.000341069
0.000341188
0.000341054
0.000341225
0.000341188
0.000341207
0.000341203
0.000341367
0.000341218
0.000341315
0.000341222
0.000341255
0.000341486
0.000341397
0.000341292
0.00034136
0.000341628
0.000341658
0.000341613
0.000342023
0.000341825
0.000341576
0.000341956
0.000337791
0.000337917
0.000337861
0.000337653
0.000337865
0.000337947
0.000338037
0.00033778
0.000338249
0.000338297
0.000338119
0.000338092
0.000338305
0.000338376
0.000338282
0.000338454
0.000338551
0.000338312
0.000338297
0.000338588
0.000338461
0.000338625
0.000338752
0.00033858
0.000338744
0.000338551
0.000338707
0.000338666
0.00033867
0.000338923
0.000339072
0.000339177
0.000339027
0.000339035
0.000339042
0.000338968
0.00033902
0.000339143
0.000338998
0.000339236
0.000339363
0.00033937
0.00033934
0.000339258
0.00033937
0.000339229
0.000339501
0.000339489
0.000339534
0.000339508
0.000339705
0.000339765
0.000339624
0.000339594
0.000339568
0.00033981
0.000339936
0.000339996
0.000340033
0.000340093
0.000339903
0.000340026
0.000339832
0.000340033
0.000340011
0.00034013
0.000340059
0.000340261
0.000340383
0.000340287
0.000340115
0.000340313
0.000340421
0.000340272
0.000340469
0.000340339
0.000340458
0.000340562
0.000340465
0.000340521
0.000340518
0.000340465
0.000340443
0.000340734
0.000340682
0.000340685
0.000340831
0.000340831
0.000340711
0.000340801
0.000340622
0.000341065
0.000340853
0.000341028
0.00034086
0.000340834
0.000340968
0.00034095
0.000340853
0.000341032
0.000340909
0.000436123
0.000435945
0.000436176
0.000436213
0.000436258
0.000436466
0.000436436
0.000436481
0.000436485
0.000436645
0.000436701
0.000436604
0.000436656
0.000436816
0.000436816
0.000436906
0.000436764
0.000436954
0.000437055
0.000437189
0.000437245
0.000437126
0.000437364
0.000437301
0.000437271
0.000437394
0.000437234
0.000437502
0.000437383
0.000437599
0.000437669
0.000437591
0.000437539
0.000437565
0.000437733
0.000437737
0.000437897
0.000437859
0.000437904
0.000438049
0.000438143
0.000437826
0.000437997
0.000437986
0.000438165
0.000438232
0.000438187
0.00043828
0.000438407
0.000438396
0.000438292
0.000438403
0.000438467
0.000438411
0.000438299
0.000438411
0.000438441
0.000438649
0.000438679
0.000438567
0.000438612
0.000438806
0.000438843
0.000438858
0.000438761
0.000438709
0.000438754
0.000439037
0.000439007
0.000438992
0.000438966
0.000439163
0.000439081
0.000439275
0.000439171
0.000439223
0.000439227
0.000439126
0.000439383
0.000439402
0.000439405
0.000439689
0.000439558
0.000439569
0.000439711
0.000439648
0.000439655
0.000439811
0.000439815
0.000439666
0.000439573
0.000440065
0.000439767
0.000439994
0.000439841
0.000439946
0.000440095
0.000440035
0.000439845
0.000440124
0.000440221
0.000630584
0.000630621
0.000630584
0.000630755
0.000630885
0.000630949
0.000631008
0.000631023
0.000630993
0.000631273
0.000631217
0.000631329
0.000631403
0.000631463
0.00063153
0.000631664
0.000631612
0.000631731
0.00063185
0.000631955
0.000631947
0.000631969
0.000632126
0.00063213
0.000632297
0.000632305
0.000632335
0.000632409
0.000632461
0.000632495
0.000632588
0.000632513
0.000632577
0.000632767
0.000632871
0.000633057
0.0006327
0.000632908
0.000633027
0.000633039
0.000632931
0.000633139
0.000633433
0.000633296
0.000633303
0.000633448
0.000633385
0.000633623
0.000633497
0.000633426
0.000633363
0.000633679
0.000633825
0.000633869
0.000633933
0.000633795
0.000633884
0.000633869
0.000634089
0.000634007
0.000634059
0.000634249
0.000634175
0.000634227
0.000634376
0.000634272
0.000634257
0.000634581
0.000634361
0.000634551
0.00063451
0.000634525
0.000634518
0.000634659
0.000634726
0.000634622
0.000634979
0.000634626
0.000634979
0.000635002
0.000634998
0.000635061
0.000634965
0.000635017
0.000635065
0.000634965
0.000635367
0.000635389
0.000635367
0.000635378
0.000635352
0.000635415
0.000635307
0.000635374
0.000635456
0.000635479
0.000635419
0.000635546
0.000635676
0.000635739
0.000635695
0.00091223
0.000912342
0.000912447
0.00091261
0.000912637
0.000912648
0.000912879
0.00091283
0.000912771
0.000912882
0.000913147
0.000913098
0.000913221
0.00091346
0.000913478
0.000913467
0.000913531
0.000913844
0.000913691
0.000913922
0.000914123
0.00091416
0.000914264
0.000914317
0.000914454
0.000914406
0.00091451
0.000914752
0.00091498
0.000914995
0.000914801
0.00091492
0.000915255
0.000915144
0.000915006
0.000915289
0.000915397
0.00091533
0.000915587
0.000915445
0.000915613
0.000915702
0.000915747
0.000915725
0.000915844
0.000915907
0.000916261
0.000916097
0.000916228
0.000916217
0.000916317
0.00091625
0.000916451
0.000916675
0.000916593
0.000916813
0.000916678
0.000916775
0.00091682
0.000916984
0.000916846
0.000916984
0.000917051
0.000917118
0.000917178
0.000917234
0.000917304
0.000917517
0.000917628
0.00091755
0.000917662
0.000917707
0.000917837
0.000917841
0.000917781
0.000917908
0.000918102
0.00091802
0.000918221
0.000918288
0.000918292
0.000918251
0.000918496
0.000918459
0.000918571
0.00091866
0.000918664
0.000918496
0.000918645
0.000918612
0.000918843
0.000918746
0.000919003
0.000919018
0.000919007
0.000919037
0.000919249
0.000919115
0.00091913
0.000919204
0.000919353
0.000152174
0.000152182
0.000152178
0.000152104
0.000152171
0.000152104
0.000152092
0.000152085
0.000152089
0.000152018
0.000152025
0.000152044
0.000151988
0.000152025
0.000151925
0.000151958
0.000151932
0.000151925
0.000151955
0.000151869
0.000151891
0.000151906
0.00015185
0.000151869
0.000151809
0.000151802
0.000151806
0.000151854
0.000151753
0.000151783
0.000151776
0.000151735
0.000151705
0.000151705
0.000151724
0.000151671
0.000151683
0.000151642
0.000151567
0.000151575
0.00015159
0.000151623
0.000151582
0.000151511
0.000151556
0.000151526
0.000151467
0.000151515
0.000151455
0.000151444
0.00015137
0.000151388
0.000151332
0.000151329
0.000151318
0.000151303
0.000151288
0.000151303
0.000151291
0.000151262
0.000151247
0.000151206
0.000151232
0.000151176
0.000151191
0.000151176
0.000151183
0.00015115
0.000151046
0.000151109
0.000151079
0.00015109
0.000151046
0.00015102
0.000151008
0.000150956
0.000150941
0.00015093
0.00015093
0.00015093
0.000150897
0.0001509
0.000150885
0.000150826
0.000150852
0.000150822
0.000150852
0.000150803
0.000150703
0.000150748
0.000150729
0.000150718
0.000150729
0.000150654
0.000150669
0.00015061
0.000150621
0.000150625
0.000150636
0.000150606
0.000150513
0.000128318
0.000128299
0.000128318
0.000128325
0.000128265
0.000128295
0.00012828
0.000128258
0.000128247
0.000128284
0.000128243
0.000128251
0.000128251
0.000128224
0.00012828
0.000128236
0.000128254
0.000128217
0.000128217
0.000128191
0.000128228
0.000128221
0.000128172
0.000128139
0.00012815
0.000128172
0.000128191
0.000128176
0.000128139
0.000128124
0.000128116
0.000128079
0.000128105
0.000128139
0.000128157
0.000128143
0.000128102
0.000128146
0.000128064
0.000128038
0.000128038
0.000128042
0.00012809
0.000128079
0.000128061
0.000128064
0.000128053
0.000128027
0.000128023
0.000128038
0.000128027
0.000128016
0.000128038
0.000128008
0.000128038
0.000128012
0.000128023
0.000127982
0.000127971
0.000127982
0.000127986
0.000127971
0.00012793
0.000127912
0.000127882
0.0001279
0.000127953
0.000127859
0.000127923
0.000127863
0.000127919
0.000127822
0.000127893
0.000127912
0.000127882
0.000127852
0.000127893
0.000127841
0.000127867
0.000127897
0.000127807
0.000127822
0.000127826
0.000127841
0.000127811
0.000127841
0.000127766
0.000127859
0.0001278
0.0001278
0.000127766
0.000127766
0.000127755
0.0001278
0.000127736
0.000127766
0.000127748
0.000127703
0.000127688
0.000127684
0.000127655
0.000121452
0.0001214
0.000121467
0.000121426
0.000121482
0.000121471
0.000121463
0.000121437
0.000121459
0.000121478
0.000121441
0.000121493
0.000121389
0.000121474
0.000121463
0.000121452
0.0001215
0.000121489
0.000121452
0.000121515
0.000121478
0.000121448
0.000121426
0.000121504
0.000121433
0.000121467
0.000121441
0.000121493
0.000121478
0.000121441
0.0001215
0.000121489
0.000121467
0.000121471
0.000121426
0.000121504
0.000121448
0.000121493
0.000121467
0.000121485
0.000121478
0.000121497
0.000121418
0.000121497
0.000121471
0.00012143
0.00012143
0.000121493
0.000121497
0.000121485
0.000121489
0.000121519
0.000121478
0.000121485
0.00012153
0.000121441
0.000121515
0.000121534
0.00012143
0.000121489
0.000121482
0.000121467
0.000121456
0.000121459
0.000121474
0.000121459
0.000121508
0.000121463
0.000121478
0.000121497
0.000121482
0.000121485
0.000121504
0.000121474
0.000121526
0.000121478
0.000121444
0.000121512
0.000121512
0.000121515
0.000121485
0.000121471
0.000121519
0.0001215
0.000121519
0.000121489
0.000121482
0.000121508
0.000121493
0.000121482
0.000121512
0.000121471
0.000121512
0.000121478
0.000121497
0.000121489
0.000121489
0.000121489
0.000121485
0.000121489
0.000121504
0.00012935
0.000129394
0.000129364
0.000129383
0.000129376
0.000129402
0.000129439
0.000129387
0.000129409
0.000129379
0.000129409
0.000129428
0.000129391
0.000129394
0.00012942
0.000129379
0.00012942
0.000129435
0.000129413
0.000129446
0.000129469
0.000129487
0.000129391
0.000129454
0.000129394
0.000129431
0.000129409
0.000129443
0.000129428
0.00012945
0.000129428
0.000129461
0.00012942
0.000129394
0.00012951
0.000129435
0.000129472
0.000129443
0.000129491
0.000129495
0.000129424
0.000129472
0.00012945
0.00012942
0.000129528
0.000129506
0.000129465
0.000129499
0.000129506
0.000129506
0.000129495
0.000129495
0.000129439
0.000129502
0.00012951
0.00012948
0.000129465
0.000129532
0.000129491
0.000129525
0.000129472
0.000129502
0.000129476
0.000129491
0.000129513
0.000129502
0.000129521
0.000129521
0.000129465
0.00012948
0.000129513
0.000129521
0.00012954
0.000129603
0.000129513
0.000129521
0.000129521
0.00012948
0.000129502
0.000129517
0.000129532
0.000129502
0.00012951
0.000129554
0.000129502
0.000129566
0.000129554
0.000129584
0.000129543
0.000129577
0.000129595
0.000129554
0.000129569
0.000129558
0.000129562
0.000129592
0.000129566
0.000129599
0.000129495
0.000129562
0.000129566
0.000146542
0.000146523
0.000146538
0.000146531
0.000146557
0.000146568
0.000146482
0.000146568
0.000146549
0.000146568
0.00014656
0.000146531
0.000146519
0.000146497
0.000146564
0.000146527
0.000146538
0.000146534
0.000146542
0.00014656
0.000146549
0.000146557
0.000146464
0.000146516
0.000146508
0.000146542
0.000146564
0.000146542
0.000146486
0.000146482
0.000146497
0.00014649
0.000146564
0.000146579
0.000146557
0.00014656
0.000146572
0.000146545
0.000146504
0.000146531
0.000146549
0.000146523
0.000146534
0.000146445
0.000146531
0.000146475
0.000146508
0.000146545
0.000146508
0.000146516
0.000146553
0.000146482
0.000146512
0.000146504
0.000146512
0.000146445
0.000146464
0.00014649
0.000146508
0.000146497
0.00014649
0.000146478
0.000146437
0.000146464
0.000146449
0.00014649
0.00014643
0.00014643
0.00014643
0.000146497
0.000146501
0.000146464
0.000146486
0.000146482
0.000146441
0.000146486
0.000146467
0.00014646
0.000146475
0.000146516
0.00014643
0.000146423
0.000146456
0.000146467
0.000146452
0.000146445
0.000146423
0.000146493
0.000146452
0.000146437
0.000146434
0.000146423
0.000146449
0.000146437
0.000146385
0.000146493
0.000146441
0.000146419
0.000146423
0.000146445
0.000146378
0.000165116
0.000165071
0.000165056
0.000165101
0.000165068
0.00016506
0.000165075
0.000165042
0.000165097
0.000165019
0.000165094
0.000165042
0.000165012
0.000164974
0.000164956
0.00016503
0.000164982
0.000165008
0.000164911
0.000164907
0.000164948
0.000165038
0.000164971
0.000164893
0.000164907
0.00016493
0.000164863
0.000164911
0.0001649
0.000164926
0.000164848
0.000164852
0.000164878
0.000164814
0.000164837
0.000164852
0.000164829
0.000164844
0.000164811
0.000164799
0.000164825
0.000164792
0.000164829
0.000164755
0.000164777
0.000164803
0.000164755
0.000164751
0.00016471
0.000164784
0.000164706
0.000164755
0.000164784
0.000164676
0.000164714
0.000164688
0.000164676
0.00016465
0.000164662
0.000164706
0.000164624
0.000164606
0.000164602
0.000164621
0.000164621
0.000164602
0.00016458
0.000164561
0.000164539
0.000164598
0.00016458
0.000164542
0.000164542
0.000164539
0.00016458
0.000164513
0.000164524
0.000164464
0.00016452
0.000164453
0.000164453
0.000164464
0.000164457
0.000164408
0.000164483
0.000164453
0.000164449
0.000164401
0.000164401
0.000164438
0.000164423
0.000164356
0.000164382
0.000164334
0.000164393
0.000164315
0.00016433
0.000164278
0.000164326
0.000164296
0.000164334
0.000179172
0.000179131
0.00017909
0.000179052
0.000179071
0.000179131
0.000179078
0.000179045
0.000179108
0.000179037
0.000178996
0.000179011
0.000179015
0.000178985
0.000179004
0.000178993
0.000178963
0.000179041
0.000178967
0.000178978
0.000178937
0.000178877
0.000178885
0.000178885
0.000178866
0.000178851
0.000178874
0.000178855
0.000178829
0.000178799
0.000178833
0.000178769
0.000178747
0.000178747
0.000178758
0.000178751
0.000178732
0.000178676
0.000178691
0.000178665
0.00017868
0.000178725
0.000178665
0.000178605
0.000178654
0.000178609
0.000178613
0.000178628
0.000178616
0.000178602
0.000178538
0.000178531
0.000178605
0.000178579
0.000178516
0.00017852
0.000178508
0.000178508
0.000178482
0.000178456
0.000178397
0.000178434
0.000178389
0.000178419
0.000178378
0.000178367
0.000178367
0.000178322
0.00017833
0.000178289
0.000178341
0.000178296
0.000178285
0.000178263
0.000178277
0.000178281
0.00017827
0.000178222
0.000178222
0.000178166
0.000178155
0.000178158
0.000178143
0.000178121
0.000178128
0.000178158
0.000178024
0.000178121
0.000178065
0.000178076
0.000178091
0.000178006
0.000178002
0.000178009
0.000177957
0.000177979
0.000177953
0.000177976
0.000177924
0.000177886
0.000177912
0.000191893
0.000191908
0.000191819
0.000191841
0.000191852
0.000191849
0.000191845
0.000191778
0.000191797
0.000191797
0.000191737
0.0001918
0.000191789
0.000191782
0.000191744
0.000191789
0.000191715
0.000191748
0.000191703
0.000191715
0.000191741
0.000191692
0.0001917
0.000191659
0.000191718
0.000191696
0.000191677
0.000191659
0.000191618
0.000191629
0.00019167
0.000191618
0.00019161
0.000191618
0.000191573
0.000191569
0.000191588
0.000191554
0.000191536
0.000191558
0.00019151
0.000191517
0.000191469
0.00019151
0.000191513
0.000191499
0.000191465
0.000191409
0.000191469
0.000191405
0.000191431
0.00019135
0.000191435
0.000191435
0.000191368
0.000191394
0.000191405
0.000191331
0.000191316
0.000191372
0.00019132
0.00019135
0.000191301
0.000191361
0.000191331
0.000191282
0.00019129
0.000191282
0.000191286
0.000191219
0.00019123
0.000191215
0.000191204
0.000191264
0.00019123
0.000191219
0.000191189
0.000191186
0.000191171
0.000191133
0.000191137
0.000191122
0.000191122
0.000191137
0.00019113
0.000191044
0.000191089
0.000191092
0.000191066
0.000191059
0.000191029
0.000191011
0.000191096
0.000191089
0.000190992
0.000191025
0.000190999
0.000190992
0.000191014
0.000190943
0.000191014
0.000215489
0.000215456
0.000215434
0.00021546
0.000215448
0.000215463
0.000215434
0.000215452
0.000215411
0.000215445
0.000215407
0.000215486
0.000215426
0.000215448
0.0002154
0.000215445
0.000215452
0.000215456
0.000215471