/*--------------------------------*- C++ -*----------------------------------*\
| =========                 |                                                 |
| \\      /  F ield         | OpenFOAM: The Open Source CFD Toolbox           |
|  \\    /   O peration     | Version:  v2006                                 |
|   \\  /    A nd           | Website:  www.openfoam.com                      |
|    \\/     M anipulation  |                                                 |
\*---------------------------------------------------------------------------*/
FoamFile
{
    version     2.0;
    format      ascii;
    class       volScalarField;
    location    "0";
    object      f;
}
// * * * * * * * * * * * * * * * * * * * * * * * * * * * * * * * * * * * * * //

dimensions      [0 0 0 0 0 0 0];


internalField   nonuniform List<scalar> 
2500
(
2.73516e-16
8.17211e-16
9.70485e-16
-1.14472e-15
-2.02752e-15
3.86444e-15
4.86628e-15
-4.3884e-16
-2.39756e-15
-3.82136e-14
-4.26746e-14
-1.68269e-14
6.05266e-14
4.85991e-14
1.46924e-14
-6.64907e-15
-2.3444e-14
-1.35456e-14
-4.3278e-15
7.64992e-17
3.0081e-15
9.87589e-16
-2.28867e-16
-2.84974e-16
-1.38207e-16
-4.66231e-17
-6.20474e-18
7.52288e-18
9.57518e-18
7.5777e-18
4.9182e-18
2.79804e-18
1.42706e-18
6.56324e-19
2.70831e-19
9.83165e-20
2.97124e-20
6.10222e-21
-3.84237e-22
-1.35095e-21
-9.89702e-22
-5.44791e-22
-2.60115e-22
-1.13154e-22
-4.5909e-23
-1.76033e-23
-6.43299e-24
-2.2535e-24
-7.59891e-25
-3.02068e-25
1.50346e-16
2.55467e-16
9.42802e-16
-1.37668e-15
-8.40627e-15
7.20331e-15
4.93919e-14
3.08631e-14
-1.64369e-13
-4.32247e-13
-1.34769e-13
6.37387e-13
5.32006e-13
1.1878e-13
-1.56528e-13
-3.46549e-13
-1.71537e-13
-4.0023e-14
-4.0428e-15
4.14778e-14
1.60043e-14
1.89385e-15
-1.28517e-15
-5.89406e-16
-1.53766e-16
-2.30628e-17
1.32676e-17
1.91354e-17
1.56199e-17
1.04111e-17
6.09913e-18
3.20463e-18
1.51101e-18
6.31487e-19
2.26361e-19
6.32251e-20
8.16199e-21
-5.35476e-21
-5.88017e-21
-3.78187e-21
-1.99443e-21
-9.3638e-22
-4.04989e-22
-1.64289e-22
-6.31944e-23
-2.32168e-23
-8.18859e-24
-2.78325e-24
-9.14347e-25
-3.53734e-25
8.62734e-16
-9.77891e-15
-1.89926e-14
-2.55087e-15
-1.61609e-14
-1.28786e-14
1.34682e-13
1.30794e-13
-7.40988e-13
-1.11076e-12
3.04151e-12
4.27176e-12
1.31316e-12
-7.80056e-13
-3.14605e-12
-1.59043e-12
-3.55335e-13
2.54427e-14
5.73143e-13
2.47749e-13
3.6188e-14
-2.02634e-14
-9.86991e-15
-1.37407e-15
-1.29794e-16
2.99571e-17
5.37916e-17
4.631e-17
3.23032e-17
1.98611e-17
1.10249e-17
5.5236e-18
2.46069e-18
9.43691e-19
2.8685e-19
4.74359e-20
-1.81952e-20
-2.45132e-20
-1.67836e-20
-9.20348e-21
-4.45204e-21
-1.97439e-21
-8.18881e-22
-3.21448e-22
-1.20372e-22
-4.32387e-23
-1.49599e-23
-5.00093e-24
-1.6192e-24
-6.17024e-25
1.23202e-14
-5.18637e-14
-1.69382e-13
6.55507e-14
1.73883e-13
-6.9525e-14
9.44731e-14
3.23663e-13
-1.30464e-12
5.80445e-12
2.47808e-11
9.48526e-12
-5.7005e-12
-2.73999e-11
-1.47855e-11
-3.02921e-12
4.35466e-12
7.60488e-12
3.16026e-12
5.0907e-13
-3.15529e-13
-1.88108e-13
-3.18989e-14
-3.70521e-16
3.45267e-16
2.0821e-16
1.43614e-16
9.78205e-17
6.14896e-17
3.55508e-17
1.88768e-17
9.03708e-18
3.76225e-18
1.26743e-18
2.67822e-19
-4.30131e-20
-9.26411e-20
-6.95173e-20
-4.00442e-20
-2.00464e-20
-9.13233e-21
-3.87428e-21
-1.55157e-21
-5.91797e-22
-2.16311e-22
-7.61115e-23
-2.58679e-23
-8.51442e-24
-2.71976e-24
-1.02202e-24
8.81069e-14
-1.69879e-13
-3.61852e-13
3.46139e-13
4.5061e-12
2.56349e-12
-1.98437e-11
1.6173e-11
1.16386e-10
2.33534e-10
6.78315e-11
-9.07973e-11
-2.39182e-10
-1.37058e-10
-3.16606e-11
9.31281e-11
9.48043e-11
3.80262e-11
6.26622e-12
-4.48731e-12
-3.03396e-12
-6.1056e-13
-2.07569e-14
5.01221e-15
1.46703e-15
4.95318e-16
2.87196e-16
1.81185e-16
1.07429e-16
5.94467e-17
3.05253e-17
1.39932e-17
5.32734e-18
1.41426e-18
9.16125e-21
-3.08011e-19
-2.67086e-19
-1.64112e-19
-8.55228e-20
-4.01025e-20
-1.74037e-20
-7.10413e-21
-2.75594e-21
-1.02332e-21
-3.65563e-22
-1.26118e-22
-4.21414e-23
-1.36688e-23
-4.31122e-24
-1.59932e-24
3.23657e-13
-5.14746e-13
1.65119e-12
1.4504e-12
1.74413e-11
1.60295e-11
-1.0196e-10
9.58863e-11
9.05171e-10
9.99487e-10
-2.40205e-10
-1.60765e-09
-1.11654e-09
-2.83685e-10
9.9583e-10
8.44327e-10
3.69926e-10
7.16041e-11
-5.40758e-11
-4.32721e-11
-1.00532e-11
-5.83755e-13
7.66144e-14
2.14792e-14
2.05437e-15
6.00111e-16
4.56275e-16
3.01694e-16
1.72852e-16
9.24993e-17
4.66015e-17
2.05342e-17
6.8312e-18
9.4061e-19
-8.24718e-19
-9.38702e-19
-6.3233e-19
-3.46154e-19
-1.67485e-19
-7.43168e-20
-3.08599e-20
-1.21442e-20
-4.56768e-21
-1.65189e-21
-5.76944e-22
-1.95244e-22
-6.4178e-23
-2.05291e-23
-6.39946e-24
-2.34685e-24
8.02945e-14
1.0467e-12
2.53398e-11
6.14567e-12
3.05365e-11
3.20464e-11
-2.31574e-10
2.03266e-10
2.31112e-09
1.9371e-09
-6.72742e-09
-6.57222e-09
-2.36888e-09
8.45838e-09
6.87435e-09
2.78442e-09
6.20017e-10
-5.40929e-10
-5.77453e-10
-1.48134e-10
-1.08707e-11
9.77144e-13
3.01146e-13
2.51416e-14
-8.61443e-17
4.97478e-16
7.05767e-16
4.85942e-16
2.57787e-16
1.3278e-16
6.75206e-17
2.89741e-17
7.58427e-18
-1.09929e-18
-2.90145e-18
-2.27921e-18
-1.33331e-18
-6.68146e-19
-3.02627e-19
-1.27336e-19
-5.05891e-20
-1.91777e-20
-6.98751e-21
-2.45973e-21
-8.39739e-22
-2.7881e-22
-9.02135e-23
-2.84888e-23
-8.7896e-24
-3.19326e-24
-5.79097e-11
3.47727e-10
8.21332e-11
-1.76838e-11
-3.8568e-10
-4.04721e-10
-5.05016e-10
1.69635e-10
3.244e-09
-8.30396e-09
-3.19861e-08
-1.40602e-08
4.81718e-08
4.77943e-08
1.64069e-08
4.43423e-09
-9.61827e-09
-8.25655e-09
-2.11299e-09
-1.63599e-10
1.05191e-11
3.6482e-12
3.5501e-13
-9.06536e-15
-2.52975e-15
3.38942e-16
1.52364e-15
8.17225e-16
3.443e-16
1.69637e-16
9.46347e-17
4.13386e-17
6.40522e-18
-6.71543e-18
-7.53245e-18
-4.91376e-18
-2.57181e-18
-1.1849e-18
-5.01196e-19
-1.99157e-19
-7.539e-20
-2.74361e-20
-9.6593e-21
-3.30461e-21
-1.10214e-21
-3.59164e-22
-1.1454e-22
-3.57809e-23
-1.09548e-23
-3.9575e-24
-2.7876e-10
1.75506e-09
-1.06938e-09
-1.64396e-08
-2.9048e-08
-2.80631e-08
-4.75591e-08
-1.72224e-07
-2.307e-07
-2.81357e-07
-8.77257e-08
2.56588e-07
3.35192e-07
1.0437e-07
-3.9892e-08
-1.86785e-07
-1.21904e-07
-3.33129e-08
-2.60902e-09
8.62801e-11
3.24095e-11
5.04444e-12
-7.29516e-14
-2.81079e-14
-5.363e-15
1.32068e-14
6.53652e-15
1.3181e-15
3.27332e-16
1.70075e-16
1.3631e-16
6.73221e-17
1.32024e-18
-2.05339e-17
-1.73353e-17
-9.75352e-18
-4.55222e-18
-1.90568e-18
-7.43017e-19
-2.75526e-19
-9.84054e-20
-3.41241e-20
-1.15506e-20
-3.83033e-21
-1.24745e-21
-3.99609e-22
-1.26013e-22
-3.91227e-23
-1.1954e-23
-4.32735e-24
-6.00744e-10
3.84348e-09
-1.9459e-08
-8.8769e-08
-1.34602e-07
-1.25241e-07
-3.64624e-07
-1.0908e-06
-1.56136e-06
-1.29933e-06
6.67688e-07
2.19967e-06
1.07879e-06
-8.22408e-07
-1.98437e-06
-1.28593e-06
-4.30363e-07
-5.50781e-08
4.51476e-10
1.66201e-10
4.04358e-11
4.21756e-12
-1.08588e-13
-2.1565e-14
2.55239e-13
1.26298e-13
2.00847e-14
5.7753e-16
-1.45436e-16
6.31535e-17
2.33273e-16
1.45851e-16
-1.22446e-17
-5.47581e-17
-3.76389e-17
-1.79436e-17
-7.24112e-18
-2.66388e-18
-9.26653e-19
-3.11313e-19
-1.0234e-19
-3.31911e-20
-1.06733e-20
-3.41285e-21
-1.0865e-21
-3.44375e-22
-1.08557e-22
-3.39667e-23
-1.05226e-23
-3.89279e-24
-4.01666e-10
-1.98597e-09
-6.92706e-08
-2.29977e-07
-3.2403e-07
-3.03123e-07
-1.08056e-06
-2.90054e-06
-4.57516e-06
-3.40287e-06
4.84522e-06
7.27243e-06
2.02785e-06
-1.12818e-05
-8.76313e-06
-3.55249e-06
-7.93306e-07
-1.48385e-08
1.13141e-10
1.10861e-10
5.62607e-11
5.97165e-12
-1.9107e-13
2.29441e-12
1.67067e-12
3.78719e-13
1.69201e-14
-3.47584e-15
-1.74583e-15
-2.06582e-16
6.12473e-16
4.36336e-16
-5.11917e-17
-1.47135e-16
-7.89677e-17
-2.97565e-17
-9.60506e-18
-2.82998e-18
-7.85849e-19
-2.10797e-19
-5.59717e-20
-1.51034e-20
-4.24922e-21
-1.26877e-21
-4.0307e-22
-1.34476e-22
-4.61374e-23
-1.59475e-23
-5.46668e-24
-2.26416e-24
2.28597e-09
-3.40958e-08
-1.51318e-07
-3.85102e-07
-5.12011e-07
-5.05496e-07
-2.00052e-06
-4.73185e-06
-9.28563e-06
-5.24757e-06
1.7967e-05
1.31911e-05
-3.74571e-05
-4.13165e-05
-1.74155e-05
-5.08024e-06
-8.70648e-07
4.55413e-07
7.53931e-08
3.87393e-09
4.86013e-10
-1.00854e-13
-4.53003e-14
1.12068e-11
3.56706e-12
3.73401e-13
-4.29318e-14
-2.00656e-14
-5.88675e-15
-3.5966e-16
4.90312e-15
1.67309e-15
-2.17819e-16
-4.4497e-16
-1.57e-16
-3.92485e-17
-7.64752e-18
-8.33231e-19
1.87395e-19
1.72473e-19
7.94747e-20
2.96908e-20
9.92624e-21
3.08254e-21
9.03708e-22
2.51436e-22
6.62026e-23
1.63044e-23
3.65838e-24
7.52695e-25
1.62239e-08
-1.11334e-07
-1.96978e-07
-4.21943e-07
-5.46448e-07
-5.65907e-07
-2.31809e-06
-5.00093e-06
-1.00837e-05
8.41254e-05
4.51069e-05
-0.000185699
-0.00027391
-7.87645e-05
6.26459e-05
0.000353134
0.000498734
0.000428329
0.000251503
9.22489e-05
1.39453e-05
7.37821e-10
1.75392e-10
2.59658e-11
3.86483e-13
-4.06738e-13
-1.98819e-13
-6.51275e-14
-1.02927e-14
7.4281e-14
3.19709e-14
4.24459e-15
-4.104e-15
-1.71036e-15
-2.45161e-16
-1.47641e-17
9.32448e-18
6.14158e-18
2.62099e-18
9.53125e-19
3.17172e-19
9.96884e-20
3.0155e-20
8.89138e-21
2.57717e-21
7.37711e-22
2.08781e-22
5.83248e-23
1.60285e-23
5.08457e-24
1.06629e-06
-2.40968e-07
3.49428e-06
4.23864e-05
8.02547e-05
9.60994e-05
0.000191844
0.000488693
0.000893787
0.000772862
-0.000184665
-0.00141735
-0.00113009
0.00141848
0.00726094
0.0136524
0.0168945
0.0160921
0.012306
0.00747281
0.00344704
0.00104362
0.000102884
3.40675e-12
2.58826e-12
-6.37965e-13
-3.63319e-13
-1.3914e-13
8.54366e-13
4.37691e-13
7.22128e-14
-6.54981e-14
-3.58446e-14
-4.65443e-15
1.32342e-16
1.49886e-16
5.98417e-17
2.02827e-17
6.42493e-18
1.94471e-18
5.68975e-19
1.62789e-19
4.6162e-20
1.31519e-20
3.80402e-21
1.12119e-21
3.35502e-22
1.01025e-22
3.02932e-23
1.07573e-23
8.10834e-06
-2.15053e-07
6.32256e-05
0.000282627
0.000535353
0.000889489
0.00193481
0.0037258
0.00462083
0.00279913
-0.0016395
-0.00481887
-0.00227725
0.0115812
0.0351316
0.0594454
0.0722096
0.0698256
0.0554688
0.0356755
0.0179081
0.00632634
0.00103209
-7.13621e-12
3.42498e-10
2.26119e-11
1.70354e-12
8.59886e-12
4.8721e-12
9.44912e-13
-8.99988e-13
-6.38516e-13
-1.15419e-13
1.46959e-15
2.46627e-15
6.09465e-16
1.35335e-16
3.38168e-17
8.67147e-18
2.21227e-18
5.59221e-19
1.42358e-19
3.78003e-20
1.08899e-20
3.45135e-21
1.1735e-21
4.10197e-22
1.4236e-22
4.80808e-23
1.90863e-23
2.28559e-05
2.6683e-05
0.00023067
0.000830068
0.00156986
0.0028808
0.00633007
0.0112755
0.0125558
0.0063611
-0.00505297
-0.0112375
-0.000212787
0.0361413
0.0934991
0.151884
0.183423
0.178694
0.144332
0.0950022
0.0492042
0.0182791
0.0034443
1.00638e-05
2.06368e-08
5.62327e-10
9.96954e-11
5.03964e-11
1.0609e-11
-1.10255e-11
-9.82721e-12
-2.21306e-12
-8.13909e-14
4.29074e-14
1.13443e-14
8.87217e-16
9.54279e-17
1.61153e-17
2.21195e-18
6.44271e-20
-1.05556e-19
-4.90045e-20
-1.26611e-20
-8.59494e-22
1.2705e-21
9.88579e-22
5.03297e-22
2.13373e-22
8.08148e-23
3.47027e-23
4.8158e-05
7.84318e-05
0.000527264
0.00172963
0.00327956
0.00630489
0.0138545
0.0237465
0.0250161
0.0111138
-0.0113083
-0.0196895
0.00592627
0.0778162
0.186112
0.295572
0.356466
0.349373
0.285524
0.190799
0.100739
0.038516
0.0078062
6.84583e-05
6.82085e-08
1.37933e-09
4.08908e-10
1.03563e-10
-8.63242e-11
-1.36329e-10
-3.72243e-11
-2.52352e-12
6.01139e-13
1.91015e-13
1.47139e-14
-5.57772e-16
-1.9222e-16
-5.74253e-17
-1.72421e-17
-5.11492e-18
-1.45551e-18
-3.82816e-19
-8.74029e-20
-1.44852e-20
7.60588e-23
1.52616e-21
9.24336e-22
4.09676e-22
1.56977e-22
6.74008e-23
8.11198e-05
0.000152749
0.000918874
0.00287312
0.0054555
0.010732
0.0235444
0.0394327
0.0401105
0.0157134
-0.0199248
-0.0287525
0.0170601
0.133041
0.302637
0.474112
0.572756
0.564653
0.466133
0.315231
0.168837
0.0658709
0.0140037
0.000197659
-2.77136e-09
9.09603e-10
6.47376e-10
-3.84889e-10
-1.68921e-09
-5.38075e-10
-4.92527e-11
6.75208e-12
2.5875e-12
2.60018e-13
-7.26468e-15
-2.56157e-15
-5.30825e-16
-1.32687e-16
-3.61036e-17
-9.69455e-18
-2.46351e-18
-5.60059e-19
-9.86517e-20
-4.30644e-21
7.31117e-21
4.91598e-21
2.27364e-21
8.97723e-22
3.21916e-22
1.31474e-22
0.000112477
0.00022667
0.00129648
0.0039605
0.00749807
0.0148607
0.0325737
0.0537606
0.0534133
0.0184342
-0.0290451
-0.0366107
0.0300663
0.188539
0.416049
0.647409
0.785578
0.779108
0.649158
0.443442
0.240207
0.095139
0.0209156
0.00038833
2.31144e-09
2.04087e-09
-1.33879e-08
-2.27388e-08
-7.55594e-09
-7.54782e-10
6.78276e-11
3.02603e-11
4.40637e-12
-6.33639e-14
-3.1477e-14
-5.92023e-15
-5.60787e-16
-1.18057e-16
-2.98233e-17
-6.92341e-18
-1.27978e-18
-7.64231e-20
9.04271e-20
6.6581e-20
3.28496e-20
1.37732e-20
5.23551e-21
1.8541e-21
6.20499e-22
2.39986e-22
0.000129704
0.000265546
0.00150838
0.00458241
0.00860872
0.0169719
0.0371954
0.061047
0.0597132
0.0180492
-0.0361436
-0.0415327
0.0396191
0.225502
0.490914
0.764285
0.934199
0.932121
0.783251
0.539481
0.294738
0.117979
0.0265133
0.000578415
-1.69743e-07
-3.94467e-07
-3.17135e-07
-1.12708e-07
-1.19601e-08
5.91835e-10
3.22334e-10
6.99751e-11
2.03068e-12
-2.55404e-13
-9.58054e-14
-8.75634e-15
9.75664e-17
3.93564e-17
1.65865e-17
7.35452e-18
3.22904e-18
1.37029e-18
5.58225e-19
2.17882e-19
8.14688e-20
2.92067e-20
1.00532e-20
3.32805e-21
1.06146e-21
3.94071e-22
0.000124705
0.000245704
0.00146109
0.00449597
0.00831998
0.0159654
0.0349861
0.0578261
0.0559235
0.0142094
-0.0387802
-0.042798
0.0402545
0.229057
0.501002
0.786495
0.971887
0.976062
0.82631
0.572663
0.314565
0.126627
0.0287454
0.000670225
-3.61372e-06
-3.03067e-06
-1.3514e-06
-2.54712e-07
1.74882e-09
2.5364e-09
9.2982e-10
9.57342e-11
-2.11991e-12
-1.16949e-12
-1.76902e-13
2.03775e-15
8.25124e-16
2.58175e-16
8.35651e-17
2.81317e-17
9.71488e-18
3.40512e-18
1.19809e-18
4.18778e-19
1.44176e-19
4.85852e-20
1.59596e-20
5.09801e-21
1.58169e-21
5.72762e-22
8.78601e-05
0.000143227
0.00102507
0.00336065
0.00599973
0.0105657
0.0231953
0.0398322
0.0389896
0.00758209
-0.0351711
-0.0399989
0.0265847
0.186326
0.427307
0.690632
0.871332
0.883738
0.753936
0.524974
0.288993
0.116302
0.0262672
0.000579284
-1.46401e-05
-9.99954e-06
-3.21127e-06
-2.97357e-07
1.45864e-08
8.7999e-09
1.84238e-09
2.4833e-11
-8.79387e-12
-2.91908e-12
-1.65003e-13
5.82953e-15
1.90137e-15
4.27217e-16
1.27346e-16
4.21515e-17
1.43778e-17
4.95462e-18
1.70774e-18
5.84272e-19
1.9714e-19
6.52583e-20
2.11121e-20
6.65836e-21
2.04415e-21
7.32919e-22
3.58087e-05
1.01566e-05
0.000379767
0.00159506
0.00260094
0.00322415
0.00714577
0.0149106
0.016497
0.00138631
-0.0238473
-0.0331679
0.00151742
0.105595
0.281548
0.486729
0.63547
0.652396
0.558895
0.388498
0.212291
0.0840997
0.0182106
0.000261238
-4.27492e-05
-2.23641e-05
-4.75192e-06
-2.86431e-08
5.6049e-08
2.02287e-08
1.872e-09
-8.2045e-11
-3.4024e-11
-3.92009e-12
7.63514e-14
2.98412e-14
3.19452e-15
3.02139e-16
1.02094e-16
3.71994e-17
1.3585e-17
4.92832e-18
1.76448e-18
6.20448e-19
2.13438e-19
7.1617e-20
2.33907e-20
7.42741e-21
2.29189e-21
8.25636e-22
-6.87714e-06
-8.18719e-05
-0.000173556
-3.09154e-05
-0.00034041
-0.00253127
-0.00566417
-0.00562786
-0.00214733
-0.000998183
-0.00932643
-0.023449
-0.022227
0.0222059
0.123355
0.254712
0.35485
0.369911
0.315761
0.215918
0.114541
0.0429758
0.00801127
-0.000117031
-0.000102542
-3.31466e-05
-2.91535e-06
3.74584e-07
1.56029e-07
2.45894e-08
-7.05979e-10
-3.44631e-10
-6.59986e-11
-7.71554e-14
3.1416e-13
6.79349e-14
1.23465e-15
-4.74471e-17
5.11055e-18
1.06294e-17
6.41498e-18
3.01295e-18
1.26165e-18
4.91822e-19
1.8167e-19
6.4132e-20
2.17416e-20
7.10128e-21
2.24011e-21
8.23911e-22
-2.4268e-05
-9.30291e-05
-0.000412313
-0.000915236
-0.00169635
-0.00450024
-0.0102683
-0.0143383
-0.0103977
-0.000164355
0.00238179
-0.0122944
-0.0330692
-0.0321785
0.00574936
0.0676141
0.117262
0.125826
0.103962
0.0655242
0.029969
0.00799445
-0.000292638
-0.000399791
-0.000159953
-2.5216e-05
2.99934e-06
1.20284e-06
1.89776e-07
-3.89413e-09
-2.41623e-09
-7.05883e-10
-6.45214e-11
3.74942e-12
1.05134e-12
6.75879e-14
-2.0155e-15
-5.06994e-16
-1.04317e-16
-2.07662e-17
-2.88458e-18
2.76269e-19
4.67397e-19
2.65217e-19
1.18309e-19
4.68274e-20
1.71424e-20
5.9171e-21
1.94649e-21
7.44192e-22
-1.83606e-05
-3.75687e-05
-0.000336634
-0.000937266
-0.00153344
-0.00303402
-0.00726611
-0.0116176
-0.00910831
0.0015747
0.00809739
-0.00200904
-0.0268092
-0.0464873
-0.0475892
-0.0367158
-0.0262767
-0.0245274
-0.0258658
-0.0248363
-0.0191398
-0.011089
-0.00406182
-0.000880383
-5.91589e-05
1.863e-05
7.80534e-06
1.41677e-06
-1.69213e-09
-1.69477e-08
-6.75967e-09
-8.05777e-10
4.3829e-11
1.37045e-11
1.08375e-12
-3.45128e-14
-8.92959e-15
-8.07636e-16
-1.33286e-16
-3.21612e-17
-7.36835e-18
-1.37046e-18
-9.90853e-20
8.08677e-20
6.11071e-20
2.98247e-20
1.22918e-20
4.58905e-21
1.59819e-21
6.43301e-22
-2.54347e-06
2.79688e-05
-7.61947e-05
-0.000424893
-0.00051126
-0.00021672
-0.000923178
-0.0029293
-0.00283525
0.0021042
0.00756162
0.00480865
-0.00922909
-0.0295885
-0.0488097
-0.063951
-0.0741755
-0.0757809
-0.0680467
-0.0512791
-0.0311055
-0.01414
-0.00433878
-0.000488255
5.48375e-05
2.83975e-05
7.50025e-06
5.38381e-07
-7.76144e-08
-3.64597e-08
-6.30556e-09
2.78171e-10
1.03174e-10
1.2404e-11
-2.9832e-13
-1.09e-13
-1.10626e-14
-1.61082e-17
-1.69555e-17
-8.73703e-18
-2.97319e-18
-7.07863e-19
-6.43291e-20
5.18438e-20
4.36267e-20
2.28816e-20
9.96699e-21
3.89047e-21
1.40568e-21
5.86983e-22
4.86864e-06
4.90656e-05
0.00011934
8.64962e-05
0.00023092
0.00130385
0.00295486
0.00319741
0.00161582
0.000800529
0.00319663
0.00674198
0.00571142
-0.00444727
-0.0233151
-0.044673
-0.0591601
-0.0605156
-0.051648
-0.0358066
-0.019546
-0.00793621
-0.00188401
1.33531e-05
3.51243e-05
1.58493e-05
2.87689e-06
-3.09968e-07
-1.22412e-07
-1.9295e-08
1.62823e-09
4.66755e-10
6.8546e-11
-8.06561e-13
-5.88463e-13
-1.5847e-13
-6.40371e-15
3.01653e-16
9.46037e-17
2.42508e-17
5.93033e-18
1.53827e-18
4.72731e-19
1.74327e-19
7.03868e-20
2.85338e-20
1.11482e-20
4.14668e-21
1.46745e-21
6.08145e-22
1.05925e-06
2.20732e-05
0.000146183
0.00024956
0.000258577
0.000919007
0.00267612
0.00366335
0.00199847
-0.00101913
-0.000713374
0.00454469
0.00983679
0.00844272
-0.00022152
-0.0113612
-0.0172513
-0.0163811
-0.0114865
-0.00570117
-0.00167058
0.000134417
0.000498516
0.000124842
1.24662e-05
-1.79676e-06
-2.3157e-06
-6.84762e-07
-3.94662e-08
1.19364e-08
3.7311e-09
2.99155e-10
-6.54535e-12
-4.77593e-12
-1.50563e-12
-1.34719e-13
5.46199e-15
1.20589e-15
2.12498e-16
5.01835e-17
1.29485e-17
3.53396e-18
1.03859e-18
3.32175e-19
1.13753e-19
4.03316e-20
1.43446e-20
5.01281e-21
1.70262e-21
6.84017e-22
-7.13555e-06
-1.53327e-05
5.99552e-05
0.000116616
-0.000133407
-0.000370255
9.04015e-05
0.000685168
-4.3984e-05
-0.00175519
-0.00179534
0.000962302
0.0047295
0.00675347
0.00781812
0.0106465
0.0152678
0.0185384
0.0181915
0.014369
0.00881855
0.00403551
0.00116699
0.000130504
-2.8846e-05
-1.72226e-05
-4.86289e-06
-4.7854e-07
5.95145e-08
2.5315e-08
3.71743e-09
-1.25686e-10
-5.918e-11
-1.23139e-11
-7.31184e-13
8.65215e-14
2.1628e-14
1.43788e-15
1.32477e-16
3.83313e-17
1.13364e-17
3.48799e-18
1.13157e-18
3.8502e-19
1.34964e-19
4.77025e-20
1.66991e-20
5.72205e-21
1.90669e-21
7.50701e-22
-1.03593e-05
-2.57717e-05
-2.17553e-05
-7.02761e-05
-0.000406614
-0.00102225
-0.00152008
-0.0016667
-0.00152773
-0.00108177
-0.000640694
-0.000998586
-0.00209896
-0.00120241
0.00468174
0.0151913
0.0247825
0.0282915
0.02509
0.0174426
0.00933232
0.00351873
0.000679516
-6.44745e-05
-5.18137e-05
-2.04582e-05
-3.10997e-06
2.33517e-07
1.16163e-07
2.62678e-08
2.9825e-11
-3.54831e-10
-1.10819e-10
-7.30102e-12
8.21423e-13
2.39894e-13
1.66097e-14
-2.95826e-16
-6.56145e-17
-9.43684e-18
2.68183e-19
1.0131e-18
5.97653e-19
2.75102e-19
1.13723e-19
4.39333e-20
1.61026e-20
5.63978e-21
1.89552e-21
7.46796e-22
-6.57794e-06
-1.24172e-05
-3.177e-05
-0.000124204
-0.000358673
-0.000725723
-0.00124271
-0.00165291
-0.00142157
-0.000119532
0.000753417
-0.00077039
-0.0041971
-0.00529564
-0.000922872
0.00801042
0.0162723
0.0181417
0.0150621
0.00937128
0.00412879
0.000990558
-0.000132389
-8.86454e-05
-4.11294e-05
-9.73627e-06
7.57449e-08
1.9364e-07
8.27866e-08
8.79493e-09
-2.21117e-09
-8.38076e-10
-9.19311e-11
7.17306e-12
2.15385e-12
1.56722e-13
-5.65799e-15
-1.19264e-15
-2.04118e-16
-4.40721e-17
-9.28571e-18
-1.59574e-18
-9.76503e-20
9.28272e-20
6.61195e-20
3.13873e-20
1.27296e-20
4.70876e-21
1.63158e-21
6.54719e-22
-2.05477e-06
3.07744e-06
-1.88328e-06
-6.45444e-05
-0.000139005
-0.000136454
-0.000177688
-0.000409976
-0.000417269
0.000240637
0.000966534
0.000325769
-0.00189444
-0.00367685
-0.00305521
-0.000420809
0.00193607
0.00228562
0.00133615
3.96805e-05
-0.000692883
-0.000716543
-0.000320121
-0.000101186
-1.59433e-05
3.88867e-06
1.52856e-06
2.83107e-07
1.17883e-08
-1.37389e-08
-5.57315e-09
-6.50962e-10
6.02156e-11
1.87222e-11
1.437e-12
-6.50953e-14
-1.53274e-14
-1.11582e-15
-1.5178e-16
-4.0545e-17
-1.03262e-17
-2.34762e-18
-4.19391e-19
-2.47239e-20
2.62394e-20
1.83944e-20
8.5992e-21
3.4181e-21
1.23405e-21
5.08887e-22
-4.06594e-07
4.62921e-06
1.49536e-05
5.94053e-06
-5.43578e-06
8.20011e-05
0.000271695
0.000312554
0.000104392
-2.79016e-05
0.000232401
0.000701808
0.0007989
-5.20275e-06
-0.00166314
-0.00369192
-0.00528686
-0.00570503
-0.00504893
-0.00361639
-0.00202906
-0.000799696
-0.000216294
-1.85804e-05
1.85525e-05
8.7945e-06
1.77211e-06
2.70261e-09
-5.16991e-08
-2.36041e-08
-3.50999e-09
3.81184e-10
1.26286e-10
1.10842e-11
-5.86358e-13
-1.53534e-13
-9.21852e-15
6.35286e-17
-3.66549e-18
-7.78314e-18
-3.48039e-18
-1.06494e-18
-2.3239e-19
-1.94407e-20
1.48139e-20
1.16738e-20
5.76737e-21
2.37364e-21
8.76817e-22
3.67498e-22
-3.48034e-07
-1.81437e-06
6.98257e-06
2.02333e-05
5.65334e-06
-8.39382e-06
6.72482e-05
0.000178156
0.000101715
-0.00023176
-0.000358114
0.000217737
0.00122994
0.0015367
0.000343592
-0.00200567
-0.00403819
-0.00444215
-0.00362013
-0.00217468
-0.00089014
-0.000201058
3.22183e-05
4.29513e-05
1.9883e-05
4.10676e-06
-2.47784e-07
-1.46095e-07
-5.9311e-08
-1.05539e-08
1.61111e-09
6.26497e-10
6.72725e-11
-4.3207e-12
-1.20917e-12
-7.57095e-14
2.08176e-15
4.49563e-16
8.85448e-17
1.83249e-17
3.6709e-18
7.48e-19
1.86279e-19
6.53428e-20
2.79875e-20
1.21385e-20
4.95898e-21
1.88515e-21
6.69812e-22
2.73543e-22
-3.47907e-07
-3.7571e-06
-5.28864e-06
3.04025e-06
-4.54828e-06
-6.87629e-05
-0.000135787
-9.56733e-05
-1.87934e-05
-0.000105535
-0.000320021
-0.000281421
0.000197879
0.00078675
0.000940665
0.000631643
0.000244686
0.000157925
0.000277891
0.000407858
0.00037961
0.000247316
0.000108801
2.74775e-05
1.37968e-06
-2.3625e-06
-9.6915e-07
-1.73952e-07
-5.05832e-09
6.02683e-09
2.26622e-09
2.7013e-10
-2.38946e-11
-7.22185e-12
-5.2349e-13
2.14317e-14
4.71537e-15
5.35241e-16
1.11452e-16
2.78945e-17
7.07106e-18
1.8295e-18
4.98774e-19
1.47403e-19
4.72554e-20
1.59676e-20
5.47908e-21
1.85561e-21
6.10095e-22
2.33887e-22
3.13918e-07
-1.21872e-07
-5.72218e-06
-5.80684e-06
7.1363e-06
-1.78903e-06
-5.78298e-05
-8.61615e-05
-3.74693e-06
0.000101076
3.10384e-05
-0.000252263
-0.000462531
-0.000296286
0.000343196
0.00121105
0.00186153
0.00196835
0.00167158
0.00111793
0.000574431
0.000212704
3.92143e-05
-7.4275e-06
-5.91417e-06
-2.50377e-06
-4.87672e-07
3.90235e-08
2.03351e-08
4.6832e-09
2.80198e-10
-9.59612e-11
-2.85101e-11
-2.26935e-12
1.39526e-13
3.66559e-14
2.7785e-15
1.35529e-16
5.52389e-17
1.88109e-17
5.88341e-18
1.80022e-18
5.55956e-19
1.7583e-19
5.69396e-20
1.86754e-20
6.11205e-21
1.96928e-21
6.18491e-22
2.26224e-22
5.43449e-07
2.25008e-06
8.5128e-07
-1.69082e-06
1.4988e-05
5.41886e-05
7.09557e-05
4.5308e-05
3.71796e-05
0.000106555
0.000162052
4.11536e-05
-0.000258488
-0.000437938
-0.000249706
0.00024124
0.000694355
0.000795443
0.000621395
0.000331174
9.61663e-05
-1.20409e-05
-2.92642e-05
-1.40904e-05
-4.06588e-06
-5.55864e-07
2.41659e-07
1.03986e-07
1.57304e-08
-2.34163e-09
-8.8264e-10
-9.72814e-11
6.56533e-12
1.64691e-12
1.40599e-13
1.95719e-15
-3.48132e-16
-4.41258e-17
2.85631e-18
5.08976e-18
2.63284e-18
1.08714e-18
4.11433e-19
1.4922e-19
5.26229e-20
1.80839e-20
6.04158e-21
1.95581e-21
6.11803e-22
2.21479e-22
1.20815e-08
8.67234e-07
3.04271e-06
2.50901e-06
2.45851e-06
2.21744e-05
5.52115e-05
5.51014e-05
1.12202e-05
-1.08878e-05
5.02911e-05
0.000134457
0.000117739
-3.82313e-05
-0.000260843
-0.000438323
-0.0005233
-0.000520105
-0.000455507
-0.000338611
-0.000204447
-9.56675e-05
-3.12896e-05
-5.09368e-06
1.04163e-06
8.2328e-07
3.16057e-07
5.42878e-08
-8.06045e-09
-3.33478e-09
-4.54958e-10
4.69082e-11
1.52539e-11
1.39386e-12
-6.53156e-14
-1.63218e-14
-9.74185e-16
-8.0613e-17
-1.42302e-17
-1.37595e-18
5.04615e-19
4.51561e-19
2.33932e-19
1.01767e-19
4.02386e-20
1.48743e-20
5.20418e-21
1.73415e-21
5.52294e-22
2.02464e-22
-3.21563e-07
-8.52025e-07
5.94253e-07
9.10327e-07
-8.76283e-06
-2.32795e-05
-2.3267e-05
-1.22978e-05
-2.2618e-05
-5.5626e-05
-5.43426e-05
2.75991e-05
0.000141371
0.000157405
1.17675e-05
-0.00024527
-0.000457404
-0.000494835
-0.000406229
-0.000252583
-0.000114771
-3.2772e-05
-1.24314e-06
4.61369e-06
2.33008e-06
5.40524e-07
7.87957e-09
-3.09122e-08
-1.09978e-08
-1.38509e-09
2.09672e-10
7.39631e-11
7.44002e-12
-5.19258e-13
-1.4779e-13
-1.11621e-14
1.03027e-16
2.06582e-17
3.11543e-18
6.67138e-19
3.84159e-19
2.52528e-19
1.39498e-19
6.63899e-20
2.82865e-20
1.10624e-20
4.03347e-21
1.38498e-21
4.50915e-22
1.68497e-22
-1.12868e-07
-6.12483e-07
-1.2463e-06
-1.14503e-06
-4.59548e-06
-1.81629e-05
-3.1702e-05
-2.97084e-05
-1.3867e-05
-1.19774e-05
-3.66926e-05
-5.07002e-05
-1.40893e-05
5.78046e-05
0.000109918
0.000114307
9.46835e-05
7.98309e-05
7.50918e-05
6.71154e-05
5.03439e-05
2.94453e-05
1.24471e-05
3.05514e-06
1.67973e-07
-2.99404e-07
-1.45017e-07
-2.86391e-08
5.30999e-10
6.81392e-10
2.17121e-10
2.44568e-11
-2.68981e-12
-8.37979e-13
-7.23917e-14
2.20968e-15
4.70591e-16
9.33302e-17
2.01474e-17
4.44204e-18
1.07345e-18
3.21146e-19
1.19973e-19
4.95008e-20
2.03261e-20
7.95589e-21
2.93688e-21
1.02322e-21
3.37746e-22
1.28042e-22
1.35267e-07
2.12216e-07
-5.60046e-07
-5.66766e-07
3.1647e-06
6.92924e-06
3.63175e-06
3.19637e-07
8.73815e-06
2.16973e-05
1.34076e-05
-2.37862e-05
-5.76436e-05
-4.54412e-05
2.46215e-05
0.000122627
0.000193379
0.0002038
0.000170516
0.000112984
5.81594e-05
2.15891e-05
3.95695e-06
-9.67295e-07
-6.06417e-07
-2.19657e-07
-4.37176e-08
5.49187e-09
2.40495e-09
4.54939e-10
-2.58115e-11
-1.25159e-11
-2.73447e-12
-1.1616e-13
1.85601e-14
3.68382e-15
4.27418e-16
8.74566e-17
2.04572e-17
4.79548e-18
1.16471e-18
3.16789e-19
1.01875e-19
3.7421e-20
1.44515e-20
5.51586e-21
2.02193e-21
7.05231e-22
2.33825e-22
8.92675e-23
5.59438e-08
2.92941e-07
4.26539e-07
4.47462e-07
2.73454e-06
8.84988e-06
1.39969e-05
1.24222e-05
7.60043e-06
8.76677e-06
1.63299e-05
1.49169e-05
-4.45829e-06
-2.96172e-05
-3.70774e-05
-2.32201e-05
-2.67134e-06
5.9518e-06
3.20045e-06
-3.60998e-06
-7.53019e-06
-6.73487e-06
-3.67531e-06
-1.1197e-06
-1.31303e-07
6.61196e-08
3.55031e-08
8.40638e-09
7.24632e-10
-2.2555e-10
-8.57152e-11
-1.17685e-11
1.04158e-12
3.35224e-13
2.7161e-14
-3.56077e-16
-3.4081e-17
5.18125e-18
3.61964e-18
1.26353e-18
3.94848e-19
1.32262e-19
5.0117e-20
2.04566e-20
8.38579e-21
3.31075e-21
1.23883e-21
4.38015e-22
1.46642e-22
5.64679e-23
-3.48084e-08
-3.71709e-08
2.86585e-07
2.85773e-07
-8.87349e-07
-1.55938e-06
2.81243e-07
1.24019e-06
-2.54997e-06
-6.8639e-06
-2.47142e-06
1.13396e-05
2.0218e-05
1.14046e-05
-1.51729e-05
-4.7264e-05
-6.92068e-05
-7.1613e-05
-6.06434e-05
-4.15817e-05
-2.26102e-05
-9.19656e-06
-2.36038e-06
-9.6673e-08
1.94034e-07
1.07439e-07
2.67124e-08
6.29191e-11
-6.56875e-10
-2.2669e-10
-2.39787e-11
4.37642e-12
1.23692e-12
6.14185e-14
-7.25956e-15
-1.19682e-15
-1.54003e-16
-2.9438e-17
-6.39529e-18
-1.45205e-18
-3.23165e-19
-6.22455e-20
-5.93485e-21
3.08486e-21
2.69289e-21
1.39639e-21
5.96059e-22
2.26451e-22
7.90822e-23
3.13631e-23
-2.98278e-08
-1.14844e-07
-1.28805e-07
-1.54315e-07
-1.13555e-06
-3.42306e-06
-5.05432e-06
-4.36219e-06
-3.08023e-06
-4.02633e-06
-5.88154e-06
-3.95347e-06
3.54128e-06
1.12032e-05
1.11269e-05
3.52687e-06
-5.44262e-06
-8.90485e-06
-7.20145e-06
-3.36312e-06
-2.61143e-07
1.01385e-06
8.84243e-07
3.7602e-07
9.23634e-08
6.48932e-09
-8.61212e-09
-3.04095e-09
-5.29954e-10
5.14046e-11
2.4114e-11
4.56482e-12
-2.43097e-13
-1.05549e-13
-1.42541e-14
9.56062e-17
1.35003e-17
-1.44614e-18
-1.86362e-18
-8.84156e-19
-3.26697e-19
-1.03549e-19
-2.82173e-20
-6.20892e-21
-8.21513e-22
1.3798e-22
1.63611e-22
8.33214e-23
3.34317e-23
1.44593e-23
1.00767e-08
5.32961e-09
-1.06276e-07
-1.11744e-07
2.39503e-07
3.26041e-07
-3.58092e-07
-6.29509e-07
7.07262e-07
2.02207e-06
3.88046e-07
-3.93591e-06
-6.19533e-06
-2.86111e-06
5.76602e-06
1.55156e-05
2.18772e-05
2.23787e-05
1.89058e-05
1.31163e-05
7.3739e-06
3.20146e-06
9.50402e-07
1.06808e-07
-7.1227e-08
-4.07127e-08
-9.71716e-09
-9.0701e-11
2.99765e-10
9.7028e-11
8.18565e-12
-1.57221e-12
-4.42725e-13
-2.88101e-14
2.11791e-15
4.51812e-16
9.76343e-17
2.2257e-17
4.53001e-18
6.94653e-19
2.49924e-20
-3.57133e-20
-1.86782e-20
-6.35022e-21
-1.68244e-21
-3.37979e-22
-3.4603e-23
1.07484e-23
8.92929e-24
5.04321e-24
9.31807e-09
3.56457e-08
3.62137e-08
4.96333e-08
3.64632e-07
1.06647e-06
1.52368e-06
1.3218e-06
9.96436e-07
1.29867e-06
1.72818e-06
1.00856e-06
-1.21577e-06
-3.28689e-06
-3.07512e-06
-6.52163e-07
2.1337e-06
3.22328e-06
2.73465e-06
1.54232e-06
4.66168e-07
-9.51515e-08
-1.99948e-07
-1.00071e-07
-2.51744e-08
2.96675e-10
3.28126e-09
1.20364e-09
2.06359e-10
-2.04689e-11
-8.83435e-12
-1.38699e-12
8.51039e-14
2.2837e-14
2.11488e-15
3.61819e-16
1.16209e-16
3.29297e-17
8.27331e-18
1.83195e-18
3.42756e-19
4.6913e-20
1.11425e-21
-2.14221e-21
-9.7214e-22
-2.89153e-22
-6.54456e-23
-1.01303e-23
-2.53156e-26
1.08354e-24
-2.74772e-09
-1.79372e-09
2.64137e-08
2.71942e-08
-5.99916e-08
-7.73904e-08
9.95271e-08
1.60265e-07
-1.79214e-07
-5.10467e-07
-7.71874e-08
1.03484e-06
1.58269e-06
6.56499e-07
-1.59919e-06
-4.06748e-06
-5.62638e-06
-5.71241e-06
-4.83069e-06
-3.38248e-06
-1.91602e-06
-8.29521e-07
-2.35532e-07
-1.93653e-08
1.74355e-08
9.43352e-09
1.91269e-09
-1.7492e-10
-9.7284e-11
-2.17518e-11
-1.49469e-12
2.81294e-13
7.07941e-14
6.17041e-15
6.70258e-16
2.79986e-16
9.79794e-17
2.92641e-17
7.80981e-18
1.88114e-18
4.06215e-19
7.65123e-20
1.16175e-20
1.01244e-21
-1.51288e-22
-1.07626e-22
-3.45259e-23
-8.00358e-24
-1.28708e-24
1.95608e-26
-1.77785e-09
-7.34463e-09
-7.33392e-09
-1.20601e-08
-7.72953e-08
-2.22106e-07
-3.20581e-07
-2.797e-07
-2.16033e-07
-2.72912e-07
-3.59743e-07
-2.17445e-07
2.2993e-07
6.58928e-07
6.48766e-07
2.03529e-07
-3.45229e-07