/*--------------------------------*- C++ -*----------------------------------*\
| =========                 |                                                 |
| \\      /  F ield         | OpenFOAM: The Open Source CFD Toolbox           |
|  \\    /   O peration     | Version:  v2006                                 |
|   \\  /    A nd           | Website:  www.openfoam.com                      |
|    \\/     M anipulation  |                                                 |
\*---------------------------------------------------------------------------*/
FoamFile
{
    version     2.0;
    format      ascii;
    class       volScalarField;
    location    "9.3";
    object      p;
}
// * * * * * * * * * * * * * * * * * * * * * * * * * * * * * * * * * * * * * //

dimensions      [1 -1 -2 0 0 0 0];


internalField   nonuniform List<scalar> 
150000
(
19413.3
19414
19414.9
19416.3
19418
19420.3
19423
19426.2
19429.9
19434.1
19438.8
19443.9
19449.5
19455.6
19462.1
19469.1
19476.6
19484.4
19492.7
19501.4
19510.5
19520.1
19530
19540.3
19551
19562.1
19573.5
19585.2
19597.4
19609.8
19622.6
19635.7
19649.1
19662.9
19676.9
19691.2
19705.8
19720.6
19735.7
19751.1
19766.7
19782.5
19798.5
19814.8
19831.2
19847.8
19864.6
19881.5
19898.5
19915.7
19933.1
19950.5
19968
19985.7
20003.5
20021.3
20039.2
20057.2
20075.1
20093.1
20111.1
20129
20146.9
20164.7
20182.4
20200.1
20217.7
20235.1
20252.5
20269.7
20286.7
20303.6
20320.3
20336.8
20353.1
20369.1
20384.9
20400.5
20415.8
20430.8
20445.6
20460
20474.1
20487.9
20501.2
20514.2
20526.7
20538.8
20550.4
20561.5
20572
20582.1
20591.5
20600.4
20608.8
20616.7
20624.2
20631.1
20637.5
20643.2
20648.3
20652.6
20656.3
20659.2
20661.5
20663.1
20664
20664.1
20663.5
20662.3
20660.2
20657.5
20654
20649.8
20644.9
20639.2
20632.9
20625.8
20618
20609.4
20600.2
20590.2
20579.6
20568.4
20556.5
20544
20530.9
20517.2
20502.9
20488.1
20472.7
20456.8
20440.2
20423.1
20405.6
20387.7
20369.5
20350.9
20332.1
20313
20293.5
20273.7
20253.6
20233.3
20212.7
20192
20171.2
20150.3
20129.3
20108.3
20087.3
20066.4
20045.6
20024.8
20004.2
19983.8
19963.6
19943.7
19924
19904.6
19885.6
19867
19848.7
19830.9
19813.5
19796.7
19780.3
19764.6
19749.4
19734.8
19720.9
19707.6
19695
19683.1
19672
19661.7
19652.1
19643.3
19635.3
19628.2
19621.9
19616.4
19611.9
19608.2
19605.4
19603.5
19602.5
19602.4
19603.2
19605
19607.6
19611.1
19615.4
19620.7
19626.8
19633.7
19641.5
19650.1
19659.5
19669.7
19680.7
19692.4
19704.8
19718
19731.8
19746.3
19761.5
19777.2
19793.6
19810.6
19828.1
19846.2
19864.6
19883.6
19903.9
19924.1
19943.8
19963.6
19983.9
20005
20026.9
20049.2
20071.8
20094.4
20117.1
20140
20163.1
20186.4
20210
20233.6
20257.5
20281.6
20305.8
20330.1
20354.6
20379.1
20403.8
20428.4
20453.1
20477.8
20502.6
20527.4
20552.3
20577.3
20602.4
20627.5
20652.7
20678
20703.4
20728.9
20754.5
20780.1
20805.7
20831.3
20856.9
20882.6
20908.3
20934.1
20960
20986
21012.2
21038.5
21064.8
21091.2
21117.7
21144.2
21170.8
21197.5
21224.3
21251.2
21278.2
21305.2
21332.3
21359.4
21386.6
21413.8
21441
21468.3
21495.6
21523
21550.4
21577.9
21605.4
21632.9
21660.5
21688
21715.6
21743.2
21770.8
21798.5
21826.1
21853.7
21881.3
21908.9
21936.5
21964.1
21991.6
22019.2
22046.7
22074.2
22101.7
22129.1
22156.5
22183.9
22211.2
22238.4
22265.6
22292.6
22319.7
22346.6
22373.4
22400.2
22426.9
22453.4
22479.8
22506.1
22532.3
22558.3
22584.2
22609.9
22635.4
22660.8
22685.9
22710.8
22735.5
22760
22784.2
22808.2
22831.8
22855.2
22878.2
22900.9
22923.3
22945.3
22966.9
22988.1
23008.8
23029.1
23049
23068.3
23087.1
23105.4
23123.2
23140.3
23156.9
23172.8
23188.1
23202.7
23216.6
23229.8
23242.3
23254
23264.9
23275
23284.2
23292.7
23300.2
23306.8
23312.6
23317.3
23321.2
23324
23325.9
23326.7
23326.5
23325.2
23322.9
23319.4
23314.8
23309.1
23302.3
23294.2
23285
23274.6
23263
23250.2
23236.2
23220.9
23204.3
23186.5
23167.4
23147
23125.4
23102.5
23078.4
23052.8
23025.9
22997.7
22968.2
22937.3
22905.1
22871.6
22836.8
22800.6
22763.2
22724.4
22684.3
22642.9
22600.3
22556.3
22511.1
22464.7
22417
22368.1
22318
22266.8
22214.4
22160.9
22106.4
22050.8
21994.2
21936.6
21878
21818.5
21758.1
21696.9
21634.9
21572.1
21508.5
21444.3
21379.5
21314.1
21248.2
21181.8
21114.9
21047.6
20980.1
20912.2
20844.1
20775.8
20707.4
20639
20570.5
20502
20433.6
20365.4
20297.3
20229.4
20161.8
20094.6
20027.7
19961.3
19895.3
19829.9
19765
19700.8
19637.2
19574.3
19512.2
19450.8
19390.3
19330.6
19271.8
19214
19157.1
19101.1
19046.2
18992.4
18939.6
18887.9
18837.4
18787.9
18739.6
18692.5
18646.6
18601.9
18558.4
18516.1
18475
18435.2
18396.6
18359.3
18323.3
18288.5
18255
18222.7
18191.7
18162
18133.6
18106.5
18080.6
18056
18032.8
18010.8
17990.1
17970.7
17952.5
17935.7
17920.2
17906
17893
17881.4
17871.1
17862
17854.2
17847.7
17842.6
17838.7
17836.2
17834.9
19085.7
19086.4
19087.3
19088.6
19090.4
19092.6
19095.4
19098.6
19102.3
19106.5
19111.2
19116.3
19121.9
19128
19134.5
19141.5
19149
19156.9
19165.2
19173.9
19183
19192.5
19202.5
19212.8
19223.5
19234.6
19246
19257.8
19269.9
19282.4
19295.2
19308.3
19321.7
19335.4
19349.5
19363.8
19378.4
19393.2
19408.3
19423.7
19439.3
19455.1
19471.2
19487.4
19503.9
19520.5
19537.3
19554.2
19571.3
19588.5
19605.9
19623.3
19640.9
19658.5
19676.3
19694.1
19712
19730
19747.9
19765.9
19783.9
19801.8
19819.7
19837.6
19855.3
19873
19890.6
19908.1
19925.4
19942.7
19959.7
19976.6
19993.3
20009.9
20026.2
20042.2
20058.1
20073.7
20089
20104.1
20118.8
20133.2
20147.4
20161.1
20174.5
20187.4
20200
20212
20223.6
20234.7
20245.3
20255.3
20264.8
20273.8
20282.2
20290.2
20297.6
20304.6
20311
20316.7
20321.7
20326.1
20329.7
20332.7
20335
20336.6
20337.5
20337.6
20337.1
20335.8
20333.7
20331
20327.5
20323.3
20318.4
20312.7
20306.2
20299.1
20291.3
20282.8
20273.6
20263.7
20253.2
20242
20230.2
20217.5
20204.1
20190.2
20175.7
20160.7
20145.1
20129.2
20112.8
20095.9
20078.9
20061.3
20043.3
20024.9
20006.1
19986.8
19967.1
19947.2
19927
19906.6
19886
19865.3
19844.4
19823.5
19802.5
19781.4
19760.4
19739.5
19718.6
19697.8
19677.2
19656.8
19636.6
19616.6
19596.9
19577.4
19558.4
19539.7
19521.4
19503.5
19486.2
19469.3
19452.9
19437.1
19421.9
19407.3
19393.4
19380.1
19367.5
19355.6
19344.5
19334.1
19324.5
19315.7
19307.7
19300.6
19294.3
19288.8
19284.2
19280.5
19277.8
19275.8
19274.8
19274.8
19275.6
19277.3
19279.9
19283.4
19287.8
19293
19299.1
19306.1
19313.9
19322.5
19331.9
19342.1
19353.1
19364.8
19377.3
19390.5
19404.3
19418.8
19434
19449.8
19466.1
19483.1
19500.5
19518.4
19536.6
19554.8
19572.8
19592.6
19614
19635.8
19657.4
19679.2
19700.8
19722.7
19744.9
19767.4
19790.1
19813.1
19836.3
19859.7
19883.2
19906.9
19930.8
19954.9
19979
20003.4
20027.8
20052.3
20076.9
20101.5
20126.2
20150.9
20175.6
20200.5
20225.3
20250.3
20275.3
20300.4
20325.5
20350.7
20376
20401.3
20426.8
20452.3
20478
20503.7
20529.5
20555.4
20581.3
20607.3
20633.3
20659.4
20685.5
20711.7
20738
20764.3
20790.8
20817.3
20844
20870.7
20897.4
20924.3
20951.2
20978.2
21005.2
21032.3
21059.5
21086.7
21114
21141.3
21168.7
21196
21223.5
21250.9
21278.4
21306
21333.5
21361.1
21388.7
21416.3
21443.9
21471.5
21499.1
21526.7
21554.3
21581.9
21609.5
21637.1
21664.7
21692.3
21719.8
21747.3
21774.8
21802.2
21829.6
21857
21884.3
21911.5
21938.7
21965.8
21992.8
22019.7
22046.6
22073.3
22100
22126.5
22153
22179.3
22205.5
22231.5
22257.4
22283.1
22308.6
22334
22359.1
22384
22408.8
22433.2
22457.4
22481.4
22505.1
22528.4
22551.5
22574.2
22596.6
22618.6
22640.2
22661.3
22682.1
22702.4
22722.3
22741.6
22760.5
22778.8
22796.5
22813.7
22830.2
22846.2
22861.5
22876.1
22890
22903.2
22915.7
22927.4
22938.3
22948.5
22957.7
22966.2
22973.7
22980.4
22986.1
22990.9
22994.8
22997.6
22999.5
23000.3
23000.1
22998.9
22996.5
22993.1
22988.5
22982.8
22976
22968
22958.8
22948.4
22936.8
22924
22909.9
22894.6
22878.1
22860.3
22841.2
22820.8
22799.1
22776.1
22751.5
22726.1
22699.3
22671.2
22641.6
22610.8
22578.6
22545.1
22510.3
22474.2
22436.7
22397.9
22357.9
22316.5
22273.8
22229.9
22184.7
22138.2
22090.6
22041.7
21991.6
21940.4
21888
21834.5
21780
21724.3
21667.7
21610
21551.4
21491.9
21431.5
21370.2
21308.2
21245.3
21181.8
21117.6
21052.7
20987.3
20921.3
20854.9
20788
20720.7
20653.1
20585.2
20517.1
20448.8
20380.3
20311.8
20243.3
20174.8
20106.3
20038
19969.9
19902
19834.4
19767.2
19700.3
19633.8
19567.8
19502.4
19437.5
19373.2
19309.6
19246.7
19184.5
19123.2
19062.6
19002.9
18944.1
18886.2
18829.3
18773.4
18718.4
18664.6
18611.8
18560.1
18509.5
18460
18411.7
18364.6
18318.7
18274
18230.4
18188.2
18147.1
18107.3
18068.7
18031.4
17995.3
17960.6
17927
17894.8
17863.8
17834.1
17805.7
17778.5
17752.7
17728.1
17704.8
17682.8
17662.1
17642.7
17624.6
17607.8
17592.3
17578
17565.1
17553.5
17543.1
17534.1
17526.3
17519.8
17514.6
17510.8
17508.2
17507
18757.6
18758.3
18759.3
18760.6
18762.3
18764.6
18767.3
18770.5
18774.2
18778.4
18783.1
18788.3
18793.9
18800
18806.6
18813.6
18821
18828.9
18837.2
18845.9
18855.1
18864.6
18874.6
18884.9
18895.6
18906.7
18918.2
18930
18942.1
18954.6
18967.4
18980.6
18994
19007.8
19021.8
19036.1
19050.7
19065.6
19080.8
19096.1
19111.8
19127.6
19143.7
19159.9
19176.4
19193
19209.8
19226.8
19243.9
19261.1
19278.5
19296
19313.6
19331.3
19349.1
19366.9
19384.8
19402.8
19420.8
19438.8
19456.8
19474.8
19492.7
19510.5
19528.3
19546
19563.6
19581.1
19598.5
19615.7
19632.8
19649.7
19666.5
19683
19699.4
19715.5
19731.4
19747
19762.3
19777.4
19792.2
19806.6
19820.8
19834.5
19847.9
19860.9
19873.4
19885.5
19897.2
19908.3
19919
19929.1
19938.7
19947.8
19956.3
19964.4
19971.8
19978.8
19985.1
19990.7
19995.7
20000.1
20003.7
20006.7
20009
20010.6
20011.5
20011.6
20011.1
20009.8
20007.8
20005
20001.6
19997.3
19992.4
19986.7
19980.3
19973.2
19965.4
19956.8
19947.6
19937.7
19927.1
19915.8
19903.7
19891.2
19878
19864.2
19849.9
19835
19819.6
19803.6
19787.1
19770.3
19752.7
19734.7
19716.4
19697.8
19678.9
19659.6
19640
19620.1
19600
19579.5
19558.9
19538.2
19517.3
19496.3
19475.2
19454.2
19433.2
19412.2
19391.3
19370.5
19349.8
19329.4
19309.1
19289.1
19269.3
19249.9
19230.8
19212.1
19193.8
19175.9
19158.4
19141.5
19125.1
19109.3
19094
19079.4
19065.4
19052.1
19039.5
19027.6
19016.4
19006
18996.4
18987.6
18979.6
18972.4
18966.1
18960.6
18956
18952.3
18949.5
18947.6
18946.6
18946.5
18947.3
18949.1
18951.7
18955.2
18959.6
18964.8
18971
18977.9
18985.7
18994.4
19003.8
19014.1
19025.1
19036.8
19049.3
19062.5
19076.4
19090.9
19106.1
19121.9
19138.3
19155.3
19172.8
19190.9
19209.5
19228.6
19248.3
19268.5
19288.8
19309.3
19330
19351
19372.7
19394.7
19417.1
19439.7
19462.5
19485.6
19508.7
19532.1
19555.7
19579.4
19603.3
19627.3
19651.5
19675.9
19700.4
19724.9
19749.5
19774.2
19798.9
19823.6
19848.4
19873.3
19898.2
19923.1
19948.1
19973.3
19998.5
20023.7
20049.1
20074.6
20100.1
20125.6
20151.3
20176.9
20202.7
20228.4
20254.2
20280.1
20306
20332.1
20358.2
20384.4
20410.7
20437.1
20463.6
20490.1
20516.8
20543.5
20570.3
20597.1
20624.1
20651.1
20678.1
20705.2
20732.4
20759.6
20786.9
20814.2
20841.6
20869
20896.4
20923.9
20951.4
20978.9
21006.5
21034.1
21061.7
21089.3
21116.9
21144.5
21172.1
21199.8
21227.4
21255
21282.6
21310.2
21337.8
21365.3
21392.9
21420.4
21447.9
21475.3
21502.7
21530.1
21557.4
21584.6
21611.8
21638.9
21666
21692.9
21719.8
21746.6
21773.2
21799.8
21826.2
21852.5
21878.7
21904.8
21930.7
21956.4
21981.9
22007.3
22032.5
22057.4
22082.1
22106.6
22130.9
22154.8
22178.5
22201.9
22225
22247.7
22270.1
22292.1
22313.7
22334.9
22355.7
22376
22395.9
22415.3
22434.1
22452.5
22470.2
22487.4
22504
22520
22535.3
22549.9
22563.9
22577.1
22589.6
22601.4
22612.3
22622.5
22631.8
22640.2
22647.8
22654.5
22660.3
22665.1
22669
22671.9
22673.8
22674.6
22674.5
22673.2
22670.9
22667.5
22663
22657.3
22650.5
22642.5
22633.3
22622.9
22611.4
22598.6
22584.6
22569.3
22552.8
22535
22516
22495.6
22474
22451
22427
22401.2
22374.3
22346.1
22316.6
22285.7
22253.5
22220
22185.2
22149
22111.5
22072.7
22032.6
21991.2
21948.5
21904.5
21859.3
21812.8
21765.1
21716.1
21666
21614.7
21562.3
21508.7
21454.1
21398.4
21341.7
21284
21225.3
21165.7
21105.2
21043.9
20981.7
20918.8
20855.2
20790.9
20726
20660.4
20594.4
20527.8
20460.9
20393.5
20325.8
20257.8
20189.6
20121.2
20052.7
19984.1
19915.5
19846.9
19778.4
19710
19641.8
19573.9
19506.2
19438.9
19371.9
19305.4
19239.4
19173.9
19108.9
19044.6
18981
18918
18855.8
18794.4
18733.8
18674.1
18615.2
18557.3
18500.4
18444.4
18389.5
18335.6
18282.8
18231.1
18180.5
18131
18082.7
18035.6
17989.7
17944.9
17901.4
17859.1
17818.1
17778.3
17739.7
17702.4
17666.4
17631.6
17598.1
17565.8
17534.8
17505.1
17476.7
17449.6
17423.7
17399.2
17375.9
17353.9
17333.2
17313.8
17295.7
17278.9
17263.4
17249.1
17236.2
17224.6
17214.2
17205.2
17197.4
17190.9
17185.7
17181.9
17179.3
17178.2
18429
18429.8
18430.7
18432.1
18433.8
18436
18438.7
18442
18445.7
18449.9
18454.6
18459.8
18465.4
18471.5
18478.1
18485.1
18492.6
18500.5
18508.8
18517.5
18526.7
18536.3
18546.2
18556.6
18567.3
18578.4
18589.9
18601.7
18613.9
18626.4
18639.2
18652.4
18665.9
18679.7
18693.7
18708.1
18722.7
18737.6
18752.8
18768.2
18783.9
18799.7
18815.8
18832.1
18848.6
18865.3
18882.1
18899.1
18916.3
18933.6
18951
18968.5
18986.1
19003.8
19021.6
19039.5
19057.4
19075.4
19093.4
19111.4
19129.4
19147.4
19165.4
19183.3
19201.1
19218.8
19236.5
19254
19271.4
19288.7
19305.8
19322.8
19339.6
19356.2
19372.6
19388.8
19404.7
19420.4
19435.8
19450.9
19465.7
19480.2
19494.4
19508.2
19521.6
19534.6
19547.2
19559.3
19571
19582.2
19592.9
19603.1
19612.7
19621.8
19630.4
19638.5
19646
19652.9
19659.3
19665
19670
19674.4
19678.1
19681.1
19683.4
19685
19685.9
19686.1
19685.6
19684.3
19682.3
19679.6
19676.1
19671.9
19666.9
19661.2
19654.8
19647.7
19639.8
19631.3
19622
19612.1
19601.5
19590.2
19578.2
19565.5
19552.3
19538.4
19523.9
19508.9
19493.4
19477.4
19460.9
19444
19426.6
19408.9
19390.7
19372
19353
19333.6
19313.8
19293.8
19273.5
19253
19232.3
19211.5
19190.5
19169.5
19148.4
19127.3
19106.2
19085.1
19064.1
19043.3
19022.5
19002
18981.6
18961.5
18941.7
18922.2
18903
18884.2
18865.8
18847.9
18830.4
18813.4
18797
18781.1
18765.8
18751.1
18737
18723.7
18711
18699
18687.8
18677.4
18667.7
18658.8
18650.8
18643.6
18637.3
18631.8
18627.2
18623.5
18620.7
18618.7
18617.7
18617.6
18618.4
18620.2
18622.8
18626.3
18630.7
18636
18642.1
18649.1
18657
18665.7
18675.1
18685.4
18696.5
18708.3
18720.8
18734
18748
18762.6
18777.8
18793.7
18810.1
18827.1
18844.6
18862.6
18881
18899.8
18919
18939
18959.7
18980.9
19002.3
19023.9
19045.7
19067.7
19090
19112.6
19135.4
19158.4
19181.7
19205.1
19228.7
19252.5
19276.4
19300.4
19324.6
19348.9
19373.3
19397.8
19422.3
19447
19471.6
19496.4
19521.2
19546
19570.9
19595.9
19621
19646.1
19671.3
19696.5
19721.8
19747.2
19772.6
19798.2
19823.8
19849.5
19875.2
19901
19926.9
19952.9
19978.9
20005
20031.1
20057.3
20083.7
20110
20136.5
20163.1
20189.7
20216.4
20243.2
20270
20297
20323.9
20351
20378.1
20405.3
20432.5
20459.8
20487.1
20514.5
20541.9
20569.3
20596.8
20624.3
20651.8
20679.4
20707
20734.6
20762.2
20789.9
20817.5
20845.1
20872.8
20900.4
20928
20955.6
20983.2
21010.8
21038.4
21065.9
21093.5
21121
21148.4
21175.8
21203.2
21230.5
21257.8
21285
21312.1
21339.2
21366.1
21393
21419.8
21446.5
21473
21499.5
21525.8
21552
21578.1
21604
21629.8
21655.3
21680.7
21705.9
21730.9
21755.6
21780.1
21804.4
21828.4
21852.1
21875.5
21898.6
21921.4
21943.8
21965.8
21987.5
22008.7
22029.6
22049.9
22069.8
22089.2
22108.2
22126.5
22144.3
22161.6
22178.2
22194.2
22209.6
22224.3
22238.3
22251.6
22264.1
22275.9
22286.9
22297.1
22306.4
22315
22322.6
22329.3
22335.1
22340
22343.9
22346.9
22348.8
22349.7
22349.6
22348.4
22346.1
22342.7
22338.2
22332.6
22325.8
22317.8
22308.7
22298.4
22286.9
22274.1
22260.1
22244.9
22228.4
22210.6
22191.6
22171.2
22149.6
22126.7
22102.5
22076.9
22050
22021.8
21992.3
21961.4
21929.2
21895.7
21860.8
21824.7
21787.1
21748.3
21708.2
21666.7
21624
21580
21534.7
21488.2
21440.4
21391.4
21341.2
21289.8
21237.3
21183.7
21129
21073.2
21016.4
20958.6
20899.8
20840.1
20779.5
20718
20655.7
20592.7
20528.9
20464.5
20399.4
20333.8
20267.6
20200.9
20133.8
20066.3
19998.5
19930.4
19862
19793.5
19724.9
19656.2
19587.4
19518.7
19450.1
19381.6
19313.3
19245.2
19177.5
19110
19043
18976.4
18910.2
18844.7
18779.6
18715.3
18651.5
18588.5
18526.2
18464.8
18404.1
18344.3
18285.4
18227.5
18170.5
18114.5
18059.5
18005.6
17952.8
17901.1
17850.4
17801
17752.7
17705.5
17659.6
17614.9
17571.3
17529.1
17488
17448.2
17409.7
17372.4
17336.3
17301.5
17268
17235.8
17204.9
17175.2
17146.8
17119.6
17093.8
17069.2
17046
17024
17003.3
16983.9
16965.8
16949
16933.5
16919.2
16906.3
16894.7
16884.4
16875.3
16867.6
16861.1
16855.9
16852.1
16849.5
16848.3
18099.9
18100.7
18101.7
18103
18104.7
18106.9
18109.7
18112.9
18116.6
18120.9
18125.6
18130.7
18136.4
18142.5
18149.1
18156.1
18163.6
18171.5
18179.9
18188.6
18197.8
18207.4
18217.4
18227.8
18238.6
18249.7
18261.2
18273
18285.2
18297.8
18310.7
18323.9
18337.4
18351.2
18365.3
18379.7
18394.4
18409.3
18424.5
18440
18455.7
18471.6
18487.7
18504.1
18520.6
18537.3
18554.2
18571.2
18588.4
18605.8
18623.2
18640.8
18658.4
18676.2
18694
18711.9
18729.9
18747.9
18766
18784
18802.1
18820.1
18838.1
18856
18873.9
18891.7
18909.4
18927
18944.5
18961.8
18979
18996
19012.9
19029.5
19046
19062.2
19078.2
19093.9
19109.4
19124.6
19139.4
19154
19168.2
19182.1
19195.5
19208.6
19221.3
19233.5
19245.2
19256.5
19267.2
19277.5
19287.2
19296.4
19305.1
19313.2
19320.8
19327.7
19334.1
19339.8
19344.9
19349.3
19353
19356
19358.4
19360
19360.9
19361.1
19360.6
19359.3
19357.3
19354.6
19351.1
19346.9
19341.9
19336.2
19329.8
19322.7
19314.8
19306.2
19297
19287
19276.3
19265
19252.9
19240.2
19227.1
19213.3
19199
19184
19168.4
19152.3
19135.7
19118.5
19100.9
19082.9
19064.5
19045.7
19026.6
19007.1
18987.3
18967.3
18946.9
18926.4
18905.6
18884.7
18863.7
18842.5
18821.4
18800.2
18779
18757.9
18736.8
18715.8
18695
18674.4
18654
18633.8
18613.9
18594.3
18575
18556.1
18537.6
18519.6
18502
18485
18468.4
18452.5
18437.1
18422.3
18408.2
18394.7
18382
18370
18358.7
18348.2
18338.5
18329.6
18321.5
18314.3
18307.9
18302.4
18297.8
18294
18291.2
18289.3
18288.3
18288.2
18289
18290.7
18293.3
18296.9
18301.3
18306.6
18312.8
18319.8
18327.7
18336.4
18345.9
18356.3
18367.4
18379.2
18391.8
18405.1
18419.1
18433.8
18449.1
18465
18481.6
18498.7
18516.3
18534.5
18553.2
18572.4
18592.1
18612.3
18632.8
18653.5
18674.5
18695.9
18717.7
18739.7
18762.1
18784.8
18807.6
18830.7
18854
18877.4
18901.1
18924.9
18948.8
18972.9
18997.1
19021.4
19045.8
19070.4
19094.9
19119.6
19144.3
19169.1
19193.9
19218.8
19243.7
19268.7
19293.7
19318.9
19344.1
19369.3
19394.7
19420.1
19445.6
19471.1
19496.7
19522.4
19548.1
19573.9
19599.8
19625.7
19651.7
19677.8
19703.9
19730.1
19756.4
19782.8
19809.3
19835.8
19862.5
19889.2
19916
19942.8
19969.7
19996.7
20023.8
20050.9
20078.1
20105.3
20132.6
20160
20187.3
20214.7
20242.2
20269.7
20297.2
20324.8
20352.3
20379.9
20407.6
20435.2
20462.8
20490.5
20518.1
20545.8
20573.4
20601.1
20628.7
20656.3
20683.9
20711.5
20739.1
20766.6
20794.1
20821.6
20849
20876.4
20903.7
20931
20958.2
20985.3
21012.4
21039.4
21066.3
21093.1
21119.8
21146.4
21172.9
21199.2
21225.4
21251.5
21277.5
21303.2
21328.8
21354.2
21379.5
21404.5
21429.2
21453.8
21478.1
21502.1
21525.9
21549.3
21572.5
21595.3
21617.7
21639.8
21661.5
21682.8
21703.7
21724.1
21744
21763.5
21782.5
21800.9
21818.8
21836.1
21852.7
21868.8
21884.2
21899
21913.1
21926.4
21939
21950.9
21961.9
21972.2
21981.6
21990.2
21997.9
22004.7
22010.6
22015.5
22019.5
22022.5
22024.5
22025.4
22025.4
22024.2
22022
22018.7
22014.2
22008.6
22001.9
21994
21984.9
21974.6
21963.2
21950.4
21936.5
21921.3
21904.8
21887.1
21868.1
21847.8
21826.2
21803.3
21779.1
21753.5
21726.7
21698.5
21668.9
21638.1
21605.9
21572.3
21537.4
21501.2
21463.7
21424.8
21384.7
21343.2
21300.4
21256.3
21210.9
21164.3
21116.5
21067.4
21017.1
20965.7
20913.1
20859.3
20804.5
20748.6
20691.6
20633.6
20574.7
20514.8
20454.1
20392.5
20330
20266.8
20202.9
20138.3
20073.1
20007.3
19940.9
19874
19806.8
19739.1
19671.1
19602.8
19534.3
19465.6
19396.8
19327.9
19259
19190.1
19121.3
19052.7
18984.2
18916
18848.1
18780.6
18713.4
18646.6
18580.4
18514.7
18449.6
18385.1
18321.3
18258.2
18195.8
18134.2
18073.5
18013.7
17954.7
17896.7
17839.6
17783.6
17728.6
17674.6
17621.8
17570
17519.4
17469.9
17421.6
17374.4
17328.5
17283.7
17240.2
17197.9
17156.9
17117.1
17078.6
17041.3
17005.3
16970.5
16937
16904.8
16873.9
16844.2
16815.8
16788.7
16762.9
16738.3
16715.1
16693.1
16672.4
16653
16634.9
16618.1
16602.6
16588.4
16575.5
16563.9
16553.6
16544.5
16536.8
16530.3
16525.1
16521.3
16518.8
16517.6
17770.2
17771
17772
17773.3
17775.1
17777.3
17780
17783.3
17787
17791.2
17796
17801.2
17806.8
17813
17819.6
17826.6
17834.1
17842.1
17850.5
17859.3
17868.5
17878.1
17888.1
17898.5
17909.3
17920.5
17932
17943.9
17956.2
17968.8
17981.7
17994.9
18008.5
18022.3
18036.5
18050.9
18065.7
18080.7
18095.9
18111.4
18127.2
18143.1
18159.3
18175.7
18192.3
18209.1
18226
18243.1
18260.4
18277.8
18295.3
18312.9
18330.6
18348.4
18366.3
18384.3
18402.3
18420.3
18438.4
18456.5
18474.6
18492.7
18510.8
18528.7
18546.7
18564.5
18582.3
18600
18617.5
18634.9
18652.2
18669.3
18686.2
18702.9
18719.4
18735.7
18751.8
18767.6
18783.2
18798.4
18813.4
18828
18842.3
18856.2
18869.7
18882.9
18895.6
18907.9
18919.7
18931
18941.9
18952.2
18962
18971.3
18980
18988.2
18995.8
19002.8
19009.2
19015
19020.1
19024.5
19028.3
19031.4
19033.7
19035.4
19036.3
19036.6
19036.1
19034.8
19032.8
19030.1
19026.6
19022.4
19017.5
19011.8
19005.3
18998.2
18990.3
18981.7
18972.4
18962.3
18951.6
18940.3
18928.3
18915.7
18902.3
18888.4
18873.8
18858.6
18843
18826.8
18810.1
18793
18775.4
18757.3
18738.9
18720
18700.8
18681.2
18661.3
18641.1
18620.7
18600
18579.2
18558.2
18537
18515.8
18494.5
18473.2
18451.9
18430.6
18409.4
18388.4
18367.4
18346.7
18326.1
18305.8
18285.8
18266.1
18246.7
18227.7
18209.1
18191
18173.3
18156.1
18139.5
18123.4
18107.9
18093.1
18078.9
18065.3
18052.5
18040.4
18029.1
18018.5
18008.7
17999.7
17991.6
17984.3
17977.9
17972.3
17967.7
17963.9
17961.1
17959.1
17958.1
17958
17958.8
17960.6
17963.2
17966.8
17971.2
17976.6
17982.8
17989.9
17997.8
18006.6
18016.2
18026.5
18037.7
18049.6
18062.3
18075.7
18089.8
18104.5
18119.9
18136
18152.6
18169.7
18187.4
18205.6
18224.3
18243.4
18263
18283.1
18303.7
18324.7
18346.2
18367.9
18389.8
18412
18434.4
18457.1
18480.1
18503.2
18526.5
18550
18573.7
18597.5
18621.5
18645.6
18669.8
18694.1
18718.6
18743.1
18767.6
18792.3
18817
18841.8
18866.6
18891.5
18916.4
18941.4
18966.5
18991.6
19016.8
19042.1
19067.4
19092.8
19118.2
19143.7
19169.3
19195
19220.7
19246.5
19272.4
19298.3
19324.3
19350.4
19376.6
19402.8
19429.2
19455.6
19482
19508.6
19535.2
19561.9
19588.7
19615.6
19642.5
19669.5
19696.6
19723.7
19750.9
19778.2
19805.4
19832.8
19860.2
19887.6
19915.1
19942.6
19970.1
19997.7
20025.2
20052.8
20080.5
20108.1
20135.8
20163.4
20191.1
20218.8
20246.4
20274.1
20301.7
20329.4
20357
20384.6
20412.2
20439.7
20467.2
20494.7
20522.2
20549.6
20576.9
20604.2
20631.4
20658.6
20685.7
20712.7
20739.6
20766.4
20793.2
20819.8
20846.3
20872.7
20898.9
20925
20951
20976.8
21002.4
21027.9
21053.1
21078.2
21103
21127.6
21151.9
21176
21199.8
21223.3
21246.5
21269.4
21291.9
21314
21335.8
21357.1
21378.1
21398.6
21418.6
21438.1
21457.1
21475.6
21493.6
21510.9
21527.7
21543.9
21559.4
21574.2
21588.3
21601.8
21614.5
21626.4
21637.5
21647.9
21657.4
21666
21673.8
21680.7
21686.6
21691.7
21695.7
21698.8
21700.9
21701.9
21701.9
21700.8
21698.7
21695.4
21691
21685.5
21678.8
21671
21662
21651.8
21640.3
21627.7
21613.8
21598.6
21582.2
21564.5
21545.5
21525.3
21503.7
21480.8
21456.6
21431.1
21404.3
21376.1
21346.5
21315.7
21283.4
21249.9
21215
21178.8
21141.2
21102.3
21062
21020.5
20977.6
20933.5
20888
20841.3
20793.4
20744.2
20693.8
20642.2
20589.5
20535.6
20480.6
20424.5
20367.4
20309.3
20250.1
20190.1
20129.1
20067.3
20004.7
19941.3
19877.1
19812.3
19746.9
19680.8
19614.2
19547.2
19479.7
19411.8
19343.5
19275
19206.3
19137.4
19068.4
18999.3
18930.2
18861.1
18792.1
18723.3
18654.6
18586.3
18518.2
18450.4
18383.1
18316.2
18249.8
18184
18118.7
18054.1
17990.2
17926.9
17864.5
17802.8
17742
17682
17623
17564.9
17507.8
17451.7
17396.6
17342.6
17289.7
17237.9
17187.3
17137.7
17089.4
17042.3
16996.3
16951.6
16908.1
16865.8
16824.8
16785
16746.5
16709.2
16673.2
16638.5
16605
16572.8
16541.9
16512.3
16483.9
16456.8
16431
16406.5
16383.2
16361.2
16340.6
16321.2
16303.1
16286.3
16270.8
16256.6
16243.7
16232.1
16221.8
16212.8
16205.1
16198.6
16193.5
16189.6
16187.1
16185.9
17439.9
17440.8
17441.8
17443.1
17444.9
17447.1
17449.8
17453.1
17456.8
17461.1
17465.8
17471
17476.7
17482.9
17489.5
17496.6
17504.2
17512.1
17520.5
17529.4
17538.6
17548.3
17558.4
17568.8
17579.7
17590.9
17602.5
17614.4
17626.7
17639.3
17652.3
17665.6
17679.2
17693.1
17707.3
17721.9
17736.6
17751.7
17767
17782.6
17798.4
17814.4
17830.6
17847.1
17863.8
17880.6
17897.6
17914.8
17932.1
17949.5
17967.1
17984.8
18002.6
18020.5
18038.4
18056.5
18074.5
18092.7
18110.8
18129
18147.1
18165.3
18183.4
18201.5
18219.5
18237.4
18255.2
18273
18290.6
18308.1
18325.4
18342.6
18359.6
18376.4
18393
18409.4
18425.6
18441.5
18457.1
18472.4
18487.5
18502.2
18516.5
18530.5
18544.2
18557.4
18570.2
18582.6
18594.5
18605.9
18616.8
18627.3
18637.2
18646.6
18655.4
18663.6
18671.3
18678.4
18684.8
18690.7
18695.8
18700.3
18704.1
18707.2
18709.6
18711.3
18712.3
18712.6
18712.1
18710.8
18708.9
18706.1
18702.7
18698.5
18693.5
18687.8
18681.3
18674.1
18666.2
18657.6
18648.2
18638.2
18627.4
18616
18603.9
18591.2
18577.8
18563.8
18549.2
18534
18518.3
18502
18485.2
18468
18450.2
18432
18413.4
18394.5
18375.1
18355.4
18335.4
18315.1
18294.5
18273.7
18252.7
18231.6
18210.3
18189
18167.6
18146.1
18124.7
18103.3
18082
18060.8
18039.7
18018.8
17998.1
17977.7
17957.5
17937.7
17918.2
17899
17880.3
17862
17844.2
17826.9
17810.2
17794
17778.4
17763.4
17749.1
17735.4
17722.5
17710.3
17698.9
17688.2
17678.4
17669.3
17661.1
17653.8
17647.3
17641.7
17637
17633.2
17630.4
17628.4
17627.4
17627.3
17628.1
17629.8
17632.5
17636.1
17640.6
17646
17652.2
17659.4
17667.4
17676.2
17685.9
17696.3
17707.6
17719.6
17732.4
17745.8
17760
17774.9
17790.4
17806.5
17823.2
17840.5
17858.4
17876.8
17895.7
17915.1
17934.9
17955.2
17976
17996.9
18018.1
18039.7
18061.6
18083.9
18106.4
18129.1
18152.1
18175.3
18198.7
18222.2
18246
18269.8
18293.8
18318
18342.2
18366.6
18391
18415.6
18440.2
18464.8
18489.6
18514.4
18539.2
18564.1
18589.1
18614.1
18639.1
18664.3
18689.5
18714.7
18740.1
18765.5
18790.9
18816.5
18842.1
18867.7
18893.5
18919.3
18945.1
18971.1
18997.1
19023.1
19049.3
19075.5
19101.9
19128.3
19154.7
19181.3
19207.9
19234.7
19261.4
19288.3
19315.3
19342.3
19369.3
19396.5
19423.7
19450.9
19478.2
19505.6
19533
19560.4
19587.9
19615.4
19642.9
19670.5
19698.1
19725.8
19753.4
19781.1
19808.7
19836.4
19864.1
19891.8
19919.5
19947.1
19974.8
20002.5
20030.1
20057.7
20085.3
20112.9
20140.4
20167.9
20195.4
20222.8
20250.2
20277.5
20304.7
20331.9
20359
20386
20413
20439.8
20466.6
20493.2
20519.8
20546.2
20572.5
20598.6
20624.6
20650.5
20676.1
20701.6
20726.9
20752
20776.9
20801.5
20825.9
20850.1
20873.9
20897.5
20920.7
20943.7
20966.2
20988.4
21010.3
21031.7
21052.7
21073.3
21093.4
21113
21132.1
21150.7
21168.7
21186.2
21203
21219.3
21234.9
21249.8
21264
21277.6
21290.3
21302.4
21313.6
21324
21333.7
21342.4
21350.3
21357.3
21363.3
21368.4
21372.6
21375.7
21377.9
21379
21379.1
21378.1
21376
21372.9
21368.6
21363.1
21356.5
21348.8
21339.8
21329.7
21318.3
21305.7
21291.9
21276.8
21260.4
21242.8
21223.9
21203.7
21182.1
21159.3
21135.1
21109.6
21082.8
21054.6
21025
20994.2
20961.9
20928.4
20893.4
20857.2
20819.5
20780.6
20740.3
20698.7
20655.7
20611.5
20566
20519.1
20471.1
20421.7
20371.2
20319.5
20266.6
20212.5
20157.3
20101
20043.7
19985.4
19926.1
19865.8
19804.6
19742.5
19679.7
19616
19551.6
19486.5
19420.8
19354.5
19287.7
19220.3
19152.5
19084.4
19015.9
18947.1
18878.1
18809
18739.7
18670.3
18601
18531.7
18462.5
18393.4
18324.5
18255.9
18187.6
18119.7
18052.2
17985.1
17918.5
17852.5
17787.1
17722.3
17658.2
17594.9
17532.3
17470.5
17409.5
17349.5
17290.4
17232.2
17175
17118.8
17063.7
17009.6
16956.7
16904.8
16854.1
16804.6
16756.2
16709.1
16663.1
16618.4
16574.9
16532.6
16491.6
16451.8
16413.3
16376.1
16340.1
16305.4
16272
16239.8
16208.9
16179.3
16151
16123.9
16098.1
16073.6
16050.4
16028.4
16007.8
15988.4
15970.3
15953.5
15938
15923.9
15911
15899.4
15889.1
15880.1
15872.4
15866
15860.8
15857
15854.5
15853.3
17109.1
17110
17110.9
17112.3
17114
17116.3
17119
17122.3
17126.1
17130.3
17135.1
17140.4
17146.1
17152.3
17159
17166.1
17173.7
17181.7
17190.1
17199
17208.3
17218
17228.1
17238.7
17249.5
17260.8
17272.5
17284.5
17296.8
17309.5
17322.6
17335.9
17349.6
17363.6
17377.8
17392.4
17407.3
17422.4
17437.8
17453.4
17469.3
17485.4
17501.7
17518.2
17535
17551.9
17569
17586.2
17603.6
17621.1
17638.8
17656.6
17674.4
17692.4
17710.4
17728.5
17746.7
17764.9
17783.1
17801.3
17819.6
17837.8
17856
17874.1
17892.2
17910.2
17928.2
17946
17963.7
17981.3
17998.7
18016
18033.1
18050
18066.7
18083.2
18099.4
18115.4
18131.2
18146.6
18161.7
18176.6
18191
18205.1
18218.9
18232.2
18245.1
18257.6
18269.6
18281.1
18292.2
18302.7
18312.7
18322.2
18331.1
18339.4
18347.2
18354.3
18360.8
18366.7
18372
18376.5
18380.4
18383.5
18386
18387.7
18388.8
18389
18388.6
18387.4
18385.4
18382.7
18379.2
18375
18370
18364.3
18357.9
18350.6
18342.7
18334
18324.6
18314.5
18303.7
18292.2
18280.1
18267.3
18253.8
18239.7
18225
18209.7
18193.9
18177.5
18160.6
18143.2
18125.3
18107
18088.3
18069.2
18049.7
18029.8
18009.7
17989.2
17968.5
17947.6
17926.5
17905.2
17883.8
17862.3
17840.7
17819.1
17797.5
17775.9
17754.5
17733.1
17711.9
17690.8
17670
17649.4
17629
17609
17589.4
17570.1
17551.2
17532.8
17514.8
17497.4
17480.4
17464.1
17448.4
17433.3
17418.8
17405
17392
17379.7
17368.1
17357.4
17347.4
17338.3
17330
17322.6
17316.1
17310.4
17305.7
17301.9
17299
17297
17296
17295.9
17296.7
17298.4
17301.1
17304.8
17309.3
17314.7
17321
17328.2
17336.3
17345.2
17355
17365.5
17376.9
17389
17401.9
17415.5
17429.7
17444.7
17460.3
17476.6
17493.4
17510.9
17528.8
17547.3
17566.3
17585.6
17605.4
17625.6
17646.5
17667.8
17689.3
17711.2
17733.3
17755.6
17778.2
17801.1
17824.2
17847.4
17870.9
17894.5
17918.3
17942.2
17966.3
17990.5
18014.7
18039.1
18063.6
18088.1
18112.7
18137.4