/*--------------------------------*- C++ -*----------------------------------*\
| =========                 |                                                 |
| \\      /  F ield         | OpenFOAM: The Open Source CFD Toolbox           |
|  \\    /   O peration     | Version:  v2006                                 |
|   \\  /    A nd           | Website:  www.openfoam.com                      |
|    \\/     M anipulation  |                                                 |
\*---------------------------------------------------------------------------*/
FoamFile
{
    version     2.0;
    format      ascii;
    class       surfaceScalarField;
    location    "10";
    object      alphaPhi0.water;
}
// * * * * * * * * * * * * * * * * * * * * * * * * * * * * * * * * * * * * * //

dimensions      [0 3 -1 0 0 0 0];
oriented        oriented;


internalField   nonuniform List<scalar> 
299200
(
-0.000168639
0.000168639
3.05048e-05
-0.000199144
0.000258952
-0.000228447
0.000426227
-0.000167275
0.000532865
-0.000106638
0.000605679
-7.28148e-05
0.000660192
-5.45128e-05
0.000705959
-4.57667e-05
0.000748182
-4.22227e-05
0.000789564
-4.13828e-05
0.000831456
-4.18919e-05
0.000874467
-4.30107e-05
0.000919079
-4.46118e-05
0.00096575
-4.66712e-05
0.00101477
-4.90152e-05
0.00106668
-5.1916e-05
0.00112198
-5.52941e-05
0.00118103
-5.9059e-05
0.00124425
-6.32183e-05
0.00131201
-6.77569e-05
0.00138485
-7.28372e-05
0.00146291
-7.80613e-05
0.00154638
-8.34746e-05
0.00163547
-8.90869e-05
0.00173036
-9.48894e-05
0.00183122
-0.000100857
0.00193814
-0.000106927
0.00205131
-0.000113172
0.00217095
-0.000119635
0.00229699
-0.000126039
0.0024296
-0.000132614
0.00256897
-0.000139371
0.00271527
-0.000146299
0.00286859
-0.000153317
0.00302918
-0.000160587
0.00319706
-0.000167881
0.00337232
-0.000175265
0.00355536
-0.000183039
0.00374604
-0.000190677
0.0039446
-0.000198561
0.00415128
-0.000206678
0.00436647
-0.00021519
0.00459099
-0.000224527
0.00482507
-0.000234073
0.00506951
-0.000244445
0.00532499
-0.000255476
0.0055928
-0.000267813
0.00587308
-0.000280276
0.00616652
-0.00029344
0.0064735
-0.000306986
0.00679419
-0.000320689
0.0071282
-0.000334007
0.00747501
-0.00034681
0.00783376
-0.000358746
0.00820333
-0.000369572
0.00858252
-0.000379187
0.00897018
-0.000387669
0.00936551
-0.000395325
0.00976822
-0.000402711
0.0101788
-0.000410547
0.0105983
-0.000419533
0.0110285
-0.000430202
0.0114713
-0.000442812
0.0119286
-0.0004573
0.0124019
-0.000473308
0.0128922
-0.00049027
0.0133997
-0.000507524
0.0139241
-0.000524429
0.0144646
-0.000540458
0.0150199
-0.000555249
0.0155885
-0.000568621
0.016169
-0.000580554
0.0167602
-0.000591152
0.0173608
-0.000600595
0.0179699
-0.000609093
0.0185867
-0.000616844
0.0192107
-0.000624015
0.0198414
-0.000630721
0.0204785
-0.000637029
0.0211214
-0.000642967
0.02177
-0.000648529
0.0224237
-0.000653682
0.023082
-0.00065837
0.0237445
-0.000662512
0.0244105
-0.000665985
0.0250791
-0.000668616
0.0257493
-0.000670184
0.0264198
-0.000670444
0.0270889
-0.000669176
0.0277552
-0.000666262
0.028417
-0.000661784
0.0290731
-0.00065611
0.029723
-0.000649928
0.0303672
-0.000644209
0.0310073
-0.000640106
0.0316461
-0.000638795
0.0322873
-0.000641205
0.0329351
-0.000647804
0.0335936
-0.000658467
0.0342662
-0.000672564
0.0349555
-0.000689276
0.0356635
-0.000708024
0.0363922
-0.000728693
0.0371435
-0.000751347
0.0379189
-0.000775355
0.0387173
-0.000798392
0.0395333
-0.000816077
0.0403562
-0.000822885
0.0411705
-0.000814226
0.0419591
-0.00078864
0.0427081
-0.000748995
0.0434105
-0.000702443
0.0440683
-0.00065773
0.0446903
-0.000622037
0.0452891
-0.000598777
0.0458763
-0.000587256
0.0464604
-0.000584102
0.0470458
-0.000585345
0.0476338
-0.000587988
0.0482243
-0.000590531
0.0488169
-0.000592654
0.0494115
-0.000594584
0.0500081
-0.000596583
0.0506069
-0.00059874
0.0512078
-0.000600985
0.051811
-0.000603184
0.0524162
-0.000605214
0.0530232
-0.000606965
0.0536315
-0.000608304
0.0542405
-0.000609036
0.0548494
-0.000608886
0.055457
-0.000607524
0.0560616
-0.000604628
0.0566616
-0.000599974
0.0572551
-0.000593529
0.0578406
-0.000585518
0.0584171
-0.000576451
0.0589842
-0.000567093
0.0595425
-0.000558396
0.0600939
-0.000551385
0.0606408
-0.000546875
0.0611855
-0.000544685
0.0617278
-0.000542259
0.0622612
-0.000533412
0.0627701
-0.000508911
0.0632306
-0.000460549
0.0636182
-0.000387531
0.0639185
-0.00030033
0.0641358
-0.000217339
0.0642916
-0.000155811
0.0644153
-0.000123654
0.0645334
-0.000118125
0.0646641
-0.00013065
0.0648168
-0.000152749
0.0649949
-0.000178132
0.0651959
-0.000200994
0.0654116
-0.000215619
0.0656302
-0.000218617
0.0658394
-0.000209242
0.0660288
-0.000189364
0.066191
-0.000162183
0.0663213
-0.000130361
0.0664162
-9.48529e-05
0.0664723
-5.61112e-05
0.06649
-1.77317e-05
0.0664762
1.37806e-05
0.0664424
3.38739e-05
0.0663956
4.67511e-05
0.0663372
5.84545e-05
0.0662668
7.03744e-05
0.0661844
8.23488e-05
0.0660902
9.42172e-05
0.0659842
0.000105999
0.0658665
0.000117738
0.0657371
0.000129429
0.065596
0.000141024
0.0654436
0.000152457
0.0652799
0.00016365
0.0651054
0.000174524
0.0649204
0.000184998
0.0647254
0.000194997
0.064521
0.00020445
0.0643077
0.0002133
0.0640861
0.000221508
0.0638571
0.000229061
0.0636211
0.000235977
0.0633788
0.000242307
0.0631307
0.000248128
0.0628771
0.000253538
0.0626185
0.000258638
0.062355
0.000263511
0.0620868
0.000268203
0.0618141
0.000272701
0.0615372
0.00027692
0.0612565
0.000280705
0.0609726
0.000283849
0.0606865
0.000286139
0.060399
0.000287478
0.0601113
0.000287706
0.0598246
0.00028672
0.05954
0.00028453
0.0592588
0.00028123
0.0589818
0.000276986
0.0587098
0.000272007
0.0584433
0.000266511
0.0581826
0.000260705
0.0579278
0.000254762
0.057679
0.000248817
0.0574361
0.000242965
0.0571988
0.000237266
0.056967
0.000231767
0.0567405
0.000226518
0.0565189
0.000221604
0.0563017
0.000217185
0.0560882
0.000213546
0.055877
0.000211198
0.0556657
0.000211237
0.0554496
0.000216085
0.0552238
0.000225815
0.0549815
0.000242315
0.0547139
0.00026757
0.0544074
0.000306535
0.054036
0.000371417
0.0535553
0.000480744
0.0529064
0.000648885
0.052041
0.000865326
0.0509469
0.0010941
0.0496787
0.0012682
0.0483621
0.00131666
0.0471334
0.00122866
0.0461068
0.00102666
0.0453075
0.000799247
0.0446732
0.000634334
0.0441075
0.000565737
0.0435409
0.000566597
0.0429573
0.000583562
0.0423794
0.000577883
0.0418379
0.000541489
0.0413502
0.000487703
0.0409165
0.000433682
0.0405276
0.000388981
0.0401733
0.00035425
0.0398476
0.000325703
0.0395479
0.000299707
0.039273
0.000274872
0.0390211
0.000251962
0.0387882
0.000232883
0.0385686
0.000219611
0.0383552
0.000213385
0.0381408
0.000214414
0.0379186
0.000222167
0.0376826
0.000235983
0.0374295
0.000253139
0.0371554
0.000274103
0.0368556
0.000299791
0.0365243
0.000331238
0.0361552
0.000369107
0.0357423
0.000412893
0.035282
0.000460299
0.0347752
0.000506844
0.0342293
0.000545891
0.0336596
0.000569742
0.0330879
0.000571629
0.0325347
0.000553266
0.0320207
0.000513932
0.0315611
0.000459599
0.0311619
0.000399283
0.0308199
0.000341971
0.0305255
0.000294368
0.0302665
0.000259056
0.0300321
0.000234342
0.0298161
0.000215991
0.0296165
0.000199647
0.0294338
0.000182656
0.0292692
0.000164657
0.0291222
0.000147013
0.0289905
0.000131658
0.0288705
0.000120022
0.028758
0.000112495
0.0286497
0.000108334
0.0285436
0.000106089
0.0284394
0.000104154
0.0283382
0.000101185
0.028242
9.62161e-05
0.0281533
8.87098e-05
0.0280747
7.85931e-05
0.0280085
6.62306e-05
0.027956
5.24446e-05
0.0279179
3.81644e-05
0.0278936
2.42348e-05
0.0278823
1.13352e-05
0.027882
2.81194e-07
0.0278929
-1.09344e-05
0.0279138
-2.0887e-05
0.0279444
-3.06003e-05
0.027985
-4.06137e-05
0.0280363
-5.12067e-05
0.0280987
-6.24379e-05
0.0281729
-7.41788e-05
0.0282591
-8.61933e-05
0.0283573
-9.82327e-05
0.0284674
-0.000110104
0.0285891
-0.000121689
0.028722
-0.000132923
0.0288658
-0.000143796
0.0290202
-0.000154354
0.0291848
-0.000164654
0.0293596
-0.000174746
0.0295442
-0.000184664
0.0297387
-0.000194451
0.0299429
-0.000204186
0.0301568
-0.000213961
0.0303807
-0.000223832
0.0306144
-0.00023379
0.0308582
-0.000243767
0.0311119
-0.000253675
0.0313753
-0.000263432
0.0316483
-0.000272982
0.0319306
-0.000282294
0.0322219
-0.000291344
0.0325221
-0.000300114
0.0328306
-0.000308579
0.0331473
-0.00031671
0.0334718
-0.00032448
0.0338037
-0.000331867
0.0341425
-0.000338855
0.034488
-0.000345431
0.0348396
-0.000351589
0.0351969
-0.000357327
0.0355595
-0.000362646
0.0359271
-0.000367548
0.0362991
-0.000372037
0.0366752
-0.000376119
0.037055
-0.000379802
0.0374381
-0.000383092
0.0378241
-0.000386001
0.0382127
-0.000388539
0.0386034
-0.000390718
0.0389959
-0.000392552
0.03939
-0.000394053
0.0397852
-0.000395237
0.0401814
-0.000396117
0.0405781
-0.000396707
0.0409751
-0.000397021
0.0413722
-0.000397074
0.041769
-0.000396877
0.0421655
-0.000396443
0.0425613
-0.000395784
0.0429562
-0.000394912
0.04335
-0.000393836
0.0437426
-0.000392566
0.0441337
-0.000391112
0.0445232
-0.00038948
0.0449108
-0.000387679
0.0452966
-0.000385714
0.0456802
-0.000383591
0.0460615
-0.000381315
0.0464404
-0.000378889
0.0468167
-0.000376316
0.0471903
-0.000373597
0.047561
-0.000370733
0.0479287
-0.000367724
0.0482933
-0.000364573
0.0486546
-0.000361286
0.0490125
-0.000357874
0.0493668
-0.000354359
0.0497176
-0.000350775
0.0500648
-0.000347172
0.0504084
-0.000343613
0.0507485
-0.000340172
0.0510855
-0.00033693
0.0514194
-0.000333961
0.0517508
-0.000331319
0.0520798
-0.00032903
0.0524069
-0.000327071
0.0527322
-0.000325371
0.053056
-0.000323806
0.0533782
-0.000322211
0.0536986
-0.000320392
0.0540168
-0.000318153
0.0543321
-0.000315311
0.0546438
-0.00031172
0.0549511
-0.000307279
0.055253
-0.000301931
0.0555487
-0.000295662
0.0558372
-0.000288488
0.0561176
-0.000280446
0.0563892
-0.000271581
0.0566511
-0.000261938
0.0569027
-0.000251563
0.0571432
-0.000240495
0.057372
-0.000228769
0.0575884
-0.000216413
0.0577918
-0.00020345
0.0579817
-0.000189898
0.0581575
-0.000175778
0.0583186
-0.00016111
0.0584645
-0.000145919
0.0585948
-0.00013023
0.0587088
-0.00011406
0.0588062
-9.74127e-05
0.0588865
-8.02747e-05
0.0589491
-6.26124e-05
0.0589935
-4.43623e-05
0.0590189
-2.53932e-05
0.0590244
-5.48855e-06
0.0590088
1.55829e-05
0.0589701
3.86742e-05
0.0589072
6.29548e-05
0.0588183
8.88468e-05
0.0587029
0.0001154
0.0585597
0.000143188
0.0583875
0.000172241
0.0581853
0.000202167
0.0579524
0.000232878
0.0576891
0.000263329
0.0573988
0.000290323
0.057089
0.000309836
0.056769
0.000319932
0.0564468
0.000322217
0.0561262
0.000320639
0.0558071
0.000319103
0.0554872
0.000319904
0.0551635
0.000323617
0.0548337
0.000329853
0.0544957
0.000337967
0.0541484
0.000347304
0.0537913
0.000357145
0.0534245
0.000366754
0.0530489
0.000375594
0.0526654
0.000383531
0.0522746
0.000390832
0.0518766
0.000397949
0.0514713
0.000405281
0.0510583
0.000413052
0.050637
0.000421329
0.0502068
0.000430117
0.0497674
0.000439435
0.0493181
0.000449353
0.0488581
0.000459989
0.0483866
0.000471469
0.0479027
0.0004839
0.0474054
0.000497331
0.0468936
0.000511717
0.0463668
0.000526881
0.0458243
0.000542457
0.0452664
0.000557871
0.0446941
0.000572384
0.0441088
0.000585243
0.0435129
0.000595911
0.0429086
0.000604326
0.0422976
0.000611005
0.0416806
0.000616943
0.0410574
0.00062326
0.0404267
0.000630659
0.0397874
0.000639319
0.0391385
0.000648919
0.0384795
0.000658928
0.0378106
0.000668938
0.0371318
0.000678834
0.036443
0.000688758
0.0357441
0.000698945
0.0350345
0.000709581
0.0343137
0.000720737
0.0335814
0.000732384
0.0328369
0.000744441
0.0320801
0.000756814
0.0313107
0.000769427
0.0305285
0.000782229
0.0297333
0.000795191
0.028925
0.000808303
0.0281034
0.000821565
0.0272684
0.000834982
0.0264198
0.000848562
0.0255575
0.000862312
0.0246813
0.000876236
0.023791
0.000890332
0.0228864
0.00090459
0.0219674
0.000918994
0.0210339
0.00093352
0.0200857
0.000948137
0.0191229
0.000962801
0.0181455
0.000977432
0.0171536
0.000991906
0.0161475
0.00100604
0.0151279
0.00101961
0.0140956
0.00103236
0.0130515
0.00104405
0.011997
0.00105455
0.0109331
0.00106385
0.00986114
0.00107198
0.00878261
0.00107853
0.00770051
0.0010821
0.00661982
0.00108069
0.00554502
0.0010748
0.00447432
0.00107071
0.0033973
0.00107702
0.00230994
0.00108735
0.00119174
0.0011182
0.00119174
-0.000279908
0.000448547
-0.000210312
-0.00026874
-0.000144512
-0.000294247
-0.000168623
-0.000143163
-0.000258224
-1.70372e-05
-0.000382273
5.12339e-05
-0.000519112
8.23262e-05
-0.000659324
9.44456e-05
-0.000798549
9.70017e-05
-0.000934843
9.49119e-05
-0.00106722
9.04877e-05
-0.00119496
8.47219e-05
-0.00131748
7.79105e-05
-0.00143407
6.99203e-05
-0.00154366
6.05766e-05
-0.00164561
5.00363e-05
-0.00173941
3.84992e-05
-0.00182453
2.6069e-05
-0.00190082
1.30692e-05
-0.00196768
-8.96989e-07
-0.00202509
-1.54264e-05
-0.00207371
-2.94451e-05
-0.00211359
-4.35918e-05
-0.00214493
-5.77487e-05
-0.00216801
-7.18122e-05
-0.00218317
-8.56944e-05
-0.00219066
-9.94373e-05
-0.00219067
-0.000113156
-0.00218348
-0.000126825
-0.00216928
-0.000140247
-0.00214813
-0.000153763
-0.00212023
-0.00016727
-0.00208556
-0.000180968
-0.00204401
-0.00019487
-0.00199574
-0.00020885
-0.00194024
-0.000223388
-0.00187697
-0.000238534
-0.00180592
-0.000254086
-0.00172597
-0.000270627
-0.00163633
-0.000288201
-0.00153597
-0.000307038
-0.00142405
-0.000327111
-0.00130058
-0.000347997
-0.00116411
-0.000370543
-0.00101488
-0.000393675
-0.000853115
-0.000417242
-0.000680992
-0.000439936
-0.000498538
-0.00046273
-0.000307697
-0.000484281
-0.00011024
-0.000504443
9.21327e-05
-0.000523062
0.000298596
-0.000540471
0.00050859
-0.000556803
0.000722743
-0.0005729
0.000943239
-0.000590068
0.00117399
-0.000609935
0.00142039
-0.000634067
0.00168875
-0.000663693
0.00198557
-0.000699528
0.00231658
-0.000741554
0.00268579
-0.00078875
0.0030948
-0.000839204
0.00354245
-0.000890461
0.00402514
-0.000939989
0.00453746
-0.000985632
0.00507311
-0.00102592
0.00562579
-0.0010602
0.00618988
-0.00108853
0.00676096
-0.00111153
0.00733588
-0.00113017
0.00791272
-0.00114546
0.00849054
-0.00115838
0.00906905
-0.00116966
0.00964828
-0.00117982
0.0102283
-0.00118914
0.0108091
-0.00119767
0.0113905
-0.00120538
0.011972
-0.00121218
0.0125529
-0.001218
0.0131328
-0.00122287
0.0137112
-0.00122691
0.0142878
-0.00123027
0.0148626
-0.00123316
0.0154359
-0.00123578
0.0160081
-0.00123822
0.01658
-0.0012405
0.0171523
-0.00124251
0.0177259
-0.00124403
0.0183016
-0.00124484
0.0188801
-0.00124478
0.0194621
-0.00124384
0.0200483
-0.0012423
0.0206391
-0.0012407
0.0212348
-0.00123987
0.0218355
-0.00124081
0.0224412
-0.00124451
0.0230518
-0.0012518
0.0236671
-0.00126313
0.0242872
-0.0012786
0.0249128
-0.00129817
0.0255457
-0.00132215
0.026189
-0.0013513
0.0268469
-0.00138656
0.0275236
-0.00142804
0.0282219
-0.00147371
0.0289421
-0.00151862
0.0296816
-0.00155551
0.0304354
-0.00157674
0.0311982
-0.00157703
0.0319651
-0.00155553
0.0327325
-0.00151643
0.0334979
-0.00146781
0.0342592
-0.00141898
0.0350144
-0.00137732
0.0357623
-0.00134665
0.0365021
-0.00132707
0.0372342
-0.00131617
0.0379596
-0.00131071
0.0386795
-0.00130796
0.0393952
-0.00130623
0.0401074
-0.00130476
0.0408162
-0.00130338
0.0415216
-0.00130208
0.0422237
-0.00130084
0.0429224
-0.0012996
0.0436175
-0.00129829
0.0443091
-0.00129688
0.0449975
-0.00129536
0.0456829
-0.00129366
0.0463655
-0.00129161
0.0470454
-0.00128885
0.0477227
-0.0012848
0.0483968
-0.0012787
0.0490665
-0.00126972
0.0497301
-0.00125711
0.050385
-0.00124043
0.0510284
-0.00121982
0.0516575
-0.00119622
0.0522707
-0.0011716
0.0528684
-0.00114911
0.0534545
-0.0011329
0.0540371
-0.00112733
0.0546301
-0.00113527
0.0552522
-0.00115546
0.0559239
-0.0011806
0.0566614
-0.00119812
0.0574684
-0.00119448
0.0583288
-0.00116079
0.059207
-0.00109547
0.0600528
-0.00100169
0.060812
-0.000882792
0.0614343
-0.000740395
0.0618808
-0.000577163
0.0621293
-0.000401259
0.0621789
-0.000227745
0.0620531
-7.51832e-05
0.0617939
4.3583e-05
0.0614546
0.000120667
0.061086
0.000159302
0.0607279
0.000168824
0.0604064
0.000159312
0.0601348
0.000141204
0.0599181
0.000121814
0.0597558
0.000106238
0.0596409
9.72004e-05
0.0595594
9.51812e-05
0.0594926
0.00010072
0.0594286
0.00011075
0.059363
0.000124034
0.0592933
0.000140063
0.0592174
0.000158252
0.0591337
0.000177956
0.059041
0.000198738
0.0589384
0.000220314
0.0588253
0.000242494
0.0587012
0.000265148
0.0585655
0.000288178
0.0584176
0.0003115
0.0582571
0.000335028
0.0580834
0.000358664
0.0578961
0.000382297
0.0576948
0.000405801
0.0574791
0.000429038
0.0572487
0.000451867
0.0570036
0.00047415
0.0567438
0.000495761
0.0564695
0.000516601
0.0561811
0.000536606
0.0558788
0.000555755
0.0555634
0.000574067
0.0552353
0.000591585
0.0548952
0.000608349
0.0545435
0.000624361
0.0541809
0.000639544
0.0538079
0.000653709
0.0534252
0.000666543
0.0530337
0.000677639
0.0526346
0.000686564
0.0522296
0.000692776
0.0518204
0.000695891
0.0514091
0.000695796
0.0509977
0.000692626
0.0505879
0.000686776
0.0501811
0.000678846
0.0497781
0.000669538
0.0493792
0.000659542
0.0489846
0.000649426
0.0485938
0.000639559
0.0482067
0.000630082
0.0478231
0.000620917
0.047443
0.000611809
0.0470672
0.000602376
0.0466966
0.000592163
0.0463331
0.000580667
0.0459793
0.000567353
0.0456389
0.000551643
0.0453174
0.000532688
0.0450249
0.000508572
0.0447733
0.000477395
0.0445749
0.0004408
0.0444451
0.000397371
0.0444118
0.000339766
0.0445331
0.000250137
0.0448995
0.000114365
0.0456091
-6.07256e-05
0.0467042
-0.000229757
0.0480993
-0.000301071
0.0496085
-0.000240995
0.0509846
-5.94403e-05
0.0520358
0.000177523
0.0526625
0.000399944
0.0528892
0.000572523
0.0528211
0.000702406
0.0525837
0.000803186
0.0522706
0.000879661
0.0519241
0.000930044
0.0515484
0.000953664
0.0511341
0.000955791
0.0506748
0.000946969
0.0501696
0.000938888
0.049618
0.000940546
0.0490155
0.000956803
0.0483525
0.000988641
0.0476186
0.00103369
0.0468069
0.0010865
0.0459198
0.00113913
0.0449702
0.0011824
0.043982
0.00120781
0.0429862
0.0012092
0.0420171
0.00118352
0.0411076
0.00113173
0.0402854
0.00105811
0.039571
0.000967546
0.0389779
0.000867214
0.0385127
0.000764985
0.0381756
0.000668382
0.0379611
0.000583607
0.0378593
0.000514691
0.0378565
0.000463103
0.0379356
0.000427754
0.0380762
0.000405218
0.0382556
0.000390412
0.038449
0.000378183
0.0386379
0.000364436
0.0388092
0.000342578
0.0389547
0.00031412
0.039072
0.000281955
0.039164
0.000249984
0.0392365
0.000221881
0.039296
0.000199571
0.0393476
0.000182755
0.039394
0.000169592
0.0394357
0.000157876
0.0394723
0.000146049
0.0395033
0.000133676
0.039529
0.000121295
0.0395508
0.000109864
0.0395707
0.000100106
0.0395909
9.23144e-05
0.0396133
8.59414e-05
0.0396396
7.98431e-05
0.0396711
7.26194e-05
0.0397093
6.30048e-05
0.0397556
4.98839e-05
0.0398119
3.24261e-05
0.03988
1.04853e-05
0.0399618
-1.55359e-05
0.0400589
-4.47082e-05
0.0401735
-7.64125e-05
0.0403072
-0.000109517
0.0404613
-0.00014273
0.0406366
-0.000175002
0.0408317
-0.000206032
0.0410458
-0.00023501
0.0412774
-0.000262221
0.0415251
-0.000288324
0.041788
-0.000314079
0.0420656
-0.000340021
0.0423577
-0.000366249
0.0426639
-0.000392425
0.0429836
-0.000417921
0.0433155
-0.000442013
0.0436578
-0.000464027
0.0440083
-0.000483353
0.044364
-0.000499537
0.0447221
-0.000512441
0.0450796
-0.000522175
0.045434
-0.000529112
0.0457832
-0.000533879
0.0461261
-0.000537315
0.0464622
-0.000540362
0.0467922
-0.000543895
0.0471169
-0.000548546
0.0474377
-0.000554601
0.0477559
-0.000562002
0.0480727
-0.000570429
0.0483887
-0.000579442
0.0487043
-0.000588595
0.0490195
-0.000597526
0.0493342
-0.000605989
0.0496479
-0.000613839
0.0499603
-0.000621005
0.0502711
-0.000627462
0.0505798
-0.000633205
0.0508862
-0.000638238
0.0511899
-0.000642571
0.0514907
-0.000646219
0.0517883
-0.000649198
0.0520825
-0.000651532
0.0523731
-0.000653248
0.0526599
-0.000654376
0.0529428
-0.000654949
0.0532217
-0.000655001
0.0534965
-0.000654564
0.0537671
-0.000653673
0.0540334
-0.000652357
0.0542955
-0.00065065
0.0545534
-0.000648579
0.054807
-0.000646174
0.0550564
-0.000643462
0.0553017
-0.000640466
0.0555428
-0.000637211
0.0557798
-0.000633718
0.0560127
-0.000630005
0.0562418
-0.00062609
0.0564669
-0.00062199
0.0566881
-0.000617716
0.0569056
-0.000613282
0.0571194
-0.000608699
0.0573296
-0.000603975
0.0575361
-0.000599117
0.0577391
-0.000594133
0.0579387
-0.000589025
0.0581348
-0.0005838
0.0583276
-0.000578459
0.058517
-0.000573005
0.0587031
-0.000567441
0.058886
-0.000561766
0.0590656
-0.000555982
0.0592421
-0.000550089
0.0594155
-0.000544086
0.0595857
-0.000537974
0.0597529
-0.000531758
0.0599171
-0.000525446
0.0600783
-0.000519059
0.0602365
-0.000512628
0.060392
-0.000506204
0.0605446
-0.000499853
0.0606947
-0.000493654
0.0608422
-0.000487693
0.0609873
-0.000482046
0.0611301
-0.000476763
0.0612707
-0.000471847
0.0614089
-0.000467247
0.0615447
-0.000462852
0.0616778
-0.000458513
0.0618081
-0.000454076
0.0619353
-0.000449432
0.0620595
-0.000444565
0.0621809
-0.000439587
0.0623003
-0.000434727
0.0624189
-0.000430286
0.0625381
-0.00042654
0.0626598
-0.00042363
0.0627856
-0.000421454
0.0629168
-0.000419625
0.0630538
-0.000417499
0.0631965
-0.000414288
0.0633438
-0.000409211
0.0634939
-0.000401664
0.0636447
-0.000391341
0.0637943
-0.000378278
0.0639406
-0.000362809
0.0640827
-0.00034546
0.0642196
-0.000326803
0.0643511
-0.000307332
0.0644774
-0.000287384
0.0645986
-0.000267122
0.0647149
-0.000246578
0.0648266
-0.000225709
0.0649336
-0.000204469
0.0650362
-0.000182836
0.0651344
-0.000160823
0.0652285
-0.00013845
0.0653188
-0.000115731
0.0654061
-9.27251e-05
0.0654912
-6.95699e-05
0.0655759
-4.60119e-05
0.0656609
-2.20666e-05
0.0657457
4.09155e-06
0.0658322
2.88647e-05
0.0659213
5.41115e-05
0.0660133
8.02198e-05
0.0661092
0.000106292
0.06621
0.00013207
0.0663163
0.000157047
0.0664263
0.000180285
0.0665353
0.000200851
0.0666367
0.000218539
0.0667247
0.000234198
0.066796
0.000249318
0.0668499
0.000265229
0.0668872
0.000282588
0.0669095
0.000301399
0.0669179
0.000321399
0.0669136
0.00034232
0.066897
0.000363857
0.0668686
0.000385572
0.0668284
0.000406978
0.0667761
0.000427837
0.0667113
0.000448385
0.0666328
0.000469263
0.0665396
0.000491182
0.0664303
0.0005146
0.0663037
0.00053962
0.0661589
0.000566096
0.0659952
0.000593815
0.0658121
0.000622624
0.0656089
0.000652495
0.0653854
0.000683503
0.0651411
0.000715778
0.0648755
0.000749439
0.0645883
0.000784563
0.0642789
0.00082116
0.0639466
0.000859172
0.0635906
0.000898464
0.0632096
0.000938829
0.0628019
0.000980059
0.0623652
0.00102201
0.0618964
0.00106468
0.0613926
0.00110815
0.0608511
0.00115249
0.0602705
0.0011975
0.0596512
0.00124256
0.0589952
0.00128674
0.0583053
0.0013292
0.0575846
0.00136963
0.0568351
0.0014084
0.0560576
0.00144641
0.0552518
0.00148462
0.0544169
0.00152365
0.0535523
0.00156363
0.0526575
0.00160438
0.0517325
0.00164571
0.0507774
0.0016875
0.049792
0.00172981
0.0487761
0.00177269
0.0477294
0.00181616
0.0466515
0.00186014
0.0455422
0.00190448
0.0444015
0.00194903
0.0432294
0.00199364
0.0420262
0.00203819
0.0407921
0.00208262
0.0395276
0.00212688
0.0382329
0.00217094
0.0369084
0.00221477
0.0355547
0.00225836
0.034172
0.00230166
0.0327609
0.00234465
0.0313217
0.00238727
0.0298551
0.00242946
0.0283614
0.00247113
0.0268411
0.00251215
0.0252948
0.00255233
0.0237231
0.00259139
0.0221265
0.00262896
0.0205059
0.00266459
0.0188627
0.0026978
0.0171983
0.00272817
0.015515
0.00275528
0.013815
0.00277859
0.0120996
0.00279746
0.0103683
0.00281202
0.00861828
0.00282481
0.00685251
0.00283648
0.00509798
0.00283155
0.00340846
0.00277687
0.00177566
0.002751
0.00296741
-0.000310786
0.000759333
-0.000191321
-0.000388205
-5.4211e-05
-0.000431357
-3.13443e-05
-0.00016603
-9.78037e-05
4.94221e-05
-0.000215699
0.000169129
-0.000347618
0.000214246
-0.000475495
0.000222322
-0.000593417
0.000214923
-0.000700989
0.000202484
-0.000799029
0.000188528
-0.000887801
0.000173494
-0.000966988
0.000157098
-0.00103601
0.000138943
-0.00109415
0.000118716
-0.00114108
9.69649e-05
-0.00117664
7.4059e-05
-0.00120105
5.04758e-05
-0.00121404
2.6066e-05
-0.00121585
9.10974e-07
-0.00120963
-2.16429e-05
-0.0011937
-4.53787e-05
-0.00116876
-6.853e-05
-0.00113546
-9.10498e-05
-0.00109433
-0.000112945
-0.00104574
-0.000134283
-0.000989997
-0.00015518
-0.000927603
-0.00017555
-0.000858958
-0.000195471
-0.000783547
-0.000215658
-0.000701576
-0.000235734
-0.000612894
-0.000255951
-0.000517459
-0.000276403
-0.000414935
-0.000297395
-0.000304775
-0.00031901
-0.000186636
-0.000341526
-6.01366e-05
-0.000365033
7.53256e-05
-0.000389548
0.000220428
-0.000415729
0.000375472
-0.000443245
0.000540563
-0.000472129
0.000715635
-0.000502183
0.000900648
-0.000533011
0.00109462
-0.000564518
0.00129694
-0.000595988
0.00150662
-0.000626932
0.00172342
-0.000656733
0.00194624
-0.000685547
0.00217512
-0.000713163
0.0024106
-0.000739918
0.00265406
-0.000766528
0.00290765
-0.000794058
0.00317451
-0.000823668
0.00345852
-0.000856902
0.00376381
-0.000895361
0.00409432
-0.000940447
0.00445329
-0.000993035
0.00484279
-0.0010532
0.00526336
-0.00112009
0.00571399
-0.00119219
0.00619214
-0.0012669
0.00669399
-0.00134106
0.00721509
-0.00141155
0.00775082
-0.00147572
0.00829693
-0.00153174
0.00884979
-0.00157879
0.00940654
-0.00161694
0.00996502
-0.00164701
0.0105238
-0.00167026
0.0110818
-0.00168817
0.0116385
-0.00170217
0.0121936
-0.00171348
0.0127469
-0.00172303
0.0132985
-0.0017314
0.0138483
-0.00173887
0.014396
-0.00174546
0.0149417
-0.00175107
0.0154851
-0.00175557
0.016026
-0.00175888
0.0165642
-0.00176108
0.0170997
-0.00176237
0.0176325
-0.00176308
0.018163
-0.00176363
0.0186916
-0.00176445
0.0192193
-0.00176589
0.0197469
-0.00176815
0.0202757
-0.00177126
0.0208068
-0.00177511
0.0213414
-0.00177948
0.0218808
-0.00178413
0.0224259
-0.00178894
0.0229775
-0.00179393
0.0235362
-0.00179936
0.0241019
-0.00180565
0.0246745
-0.0018134
0.0252532
-0.00182322
0.025837
-0.00183559
0.0264247
-0.0018508
0.0270151
-0.00186896
0.027607
-0.00189015
0.0281995
-0.00191462
0.028791
-0.00194284
0.0293796
-0.00197507
0.0299622
-0.00201064
0.0305357
-0.0020472
0.0310976
-0.00208061
0.031648
-0.00210582
0.0321895
-0.00211833
0.0327284
-0.00211587
0.0332721
-0.00209925
0.033828
-0.00207231
0.0344009
-0.00204073
0.0349923
-0.00201034
0.0356003
-0.00198535
0.0362213
-0.00196766
0.0368512
-0.00195693
0.0374865
-0.00195148
0.038125
-0.00194927
0.0387657
-0.00194863
0.039408
-0.00194853
0.0400517
-0.00194847
0.0406965
-0.00194823
0.0413421
-0.00194766
0.0419879
-0.00194659
0.0426331
-0.00194483
0.043277
-0.0019422
0.0439187
-0.00193855
0.0445571
-0.0019338
0.0451914
-0.00192789
0.0458205
-0.00192072
0.0464437
-0.00191212
0.0470607
-0.00190178
0.0476713
-0.00188926
0.0482755
-0.00187399
0.0488738
-0.00185541
0.0494664
-0.00183304
0.0500534
-0.00180674
0.050634
-0.00177688
0.051207
-0.00174457
0.0517696
-0.00171176
0.0523179
-0.0016812
0.0528466
-0.00165598
0.0533497
-0.00163833
0.0538222
-0.00162804
0.0542626
-0.00162096
0.0546738
-0.00160931
0.0550633
-0.00158399
0.0554405
-0.00153805
0.0558134
-0.00146834
0.0561858
-0.00137402
0.0565575
-0.00125454
0.0569258
-0.00110873
0.0572855
-0.000936868
0.0576292
-0.000744867
0.0579479
-0.000546538
0.0582341
-0.000361326
0.0584855
-0.000207848
0.0587041
-9.79395e-05
0.0588967
-3.33155e-05
0.0590717
-6.14155e-06
0.0592352
-4.21743e-06
0.0593897
-1.32458e-05
0.0595339
-2.23791e-05
0.0596655
-2.53979e-05
0.0597817
-1.89465e-05
0.0598797
-2.82776e-06
0.0599543
2.61089e-05
0.0600059
5.91841e-05
0.0600345
9.5414e-05
0.0600405
0.000134032
0.0600242
0.000174592
0.0599857
0.000216441
0.0599253
0.000259067
0.0598436
0.000302051
0.059741
0.000345074
0.0596183
0.000387908
0.0594761
0.000430393
0.0593151
0.000472414
0.0591363
0.000513877
0.0589403
0.000554695
0.0587278
0.000594778
0.0584995
0.000634032
0.0582562
0.000672364
0.0579984
0.000709689
0.0577266
0.000745935
0.0574413
0.000781048
0.0571429
0.000814991
0.0568318
0.000847735
0.0565083
0.00087924
0.056173
0.000909424
0.0558264
0.000938129
0.0554697
0.000965083
0.0551042
0.000989889
0.0547317
0.00101203
0.0543545
0.0010309
0.0539751
0.00104588
0.0535963
0.00105646
0.0532206
0.00106231
0.0528499
0.00106342
0.0524857
0.00106014
0.0521282
0.00105327
0.051777
0.00104388
0.0514305
0.00103321
0.0510868
0.00102253
0.0507435
0.00101291
0.0503979
0.00100512
0.0500478
0.000999493
0.0496914
0.000995929
0.0493276
0.000993951
0.0489557
0.000992786
0.048576
0.000991494
0.0481893
0.000989074
0.0477969
0.000984559
0.0474005
0.000977065
0.0470021
0.00096581
0.0466036
0.00095012
0.0462069
0.000929384
0.0458121
0.000903343
0.0454163
0.000873267
0.0450167
0.000840398
0.0446083
0.00080572
0.044184
0.000764119
0.043737
0.000697069
0.0432676
0.000583821
0.0427774
0.000429411
0.042275
0.000272641
0.0418019
0.000172053
0.0414035
0.000157455
0.0411349
0.00020911
0.0409996
0.000312831
0.0409504
0.000449167
0.0409247
0.000598211
0.0408855
0.000741635
0.0408261
0.000862518
0.0407538
0.000951979
0.0406738
0.00101009
0.040585
0.00104244
0.0404847
0.00105609
0.0403737
0.00105797
0.0402572
0.00105539
0.0401409
0.00105682
0.0400262
0.00107157
0.0399069
0.00110793
0.0397701
0.00117047
0.0395993
0.00125724
0.0393798
0.0013587
0.0391032
0.00145894
0.0387717
0.00153934
0.0383981
0.00158283
0.0380036
0.00157802
0.0376119
0.00152334
0.0372445
0.00142552
0.0369152
0.00129689
0.0366297
0.00115269
0.0363869
0.00100776
0.0361815
0.000873871
0.0360067
0.000758371
0.0358572
0.000664166
0.0357297
0.000590571
0.0356229
0.000534576
0.0355361
0.000492005
0.0354683
0.000458226
0.0354177
0.000428769
0.0353816
0.000400608
0.0353535
0.000370638
0.0353286
0.000339042
0.0353031
0.000307419
0.0352769
0.000276231
0.0352519
0.000246854
0.0352313
0.00022017
0.0352179
0.00019619
0.0352132
0.000174242
0.0352177
0.000153355
0.0352311
0.000132688
0.035253
0.000111788
0.0352836
9.06322e-05
0.035324
6.95129e-05
0.0353755
4.86083e-05
0.0354394
2.84468e-05
0.0355166
8.69162e-06
0.0356076
-1.11612e-05
0.035712
-3.17401e-05
0.0358283
-5.3313e-05
0.0359552
-7.70689e-05
0.0360915
-0.00010383
0.0362363
-0.000134312
0.0363897
-0.000168921
0.0365524
-0.000207461
0.0367252
-0.000249188
0.0369087
-0.000293049
0.0371037
-0.000337656
0.0373104
-0.00038175
0.0375289
-0.000424478
0.0377589
-0.000465093
0.0380001
-0.00050335
0.0382511
-0.00053934
0.0385104
-0.000573397
0.0387763
-0.000605949
0.0390475
-0.000637364
0.0393228