/*--------------------------------*- C++ -*----------------------------------*\
| =========                 |                                                 |
| \\      /  F ield         | OpenFOAM: The Open Source CFD Toolbox           |
|  \\    /   O peration     | Version:  v2006                                 |
|   \\  /    A nd           | Website:  www.openfoam.com                      |
|    \\/     M anipulation  |                                                 |
\*---------------------------------------------------------------------------*/
FoamFile
{
    version     2.0;
    format      ascii;
    class       volScalarField;
    location    "0";
    object      p;
}
// * * * * * * * * * * * * * * * * * * * * * * * * * * * * * * * * * * * * * //

dimensions      [1 -1 -2 0 0 0 0];


internalField   nonuniform List<scalar> 
20000
(
-1.07426e-05
-1.12234e-05
-1.22028e-05
-1.36782e-05
-1.57434e-05
-1.84169e-05
-2.17708e-05
-2.5905e-05
-3.09343e-05
-3.69942e-05
-4.42467e-05
-5.28862e-05
-6.31439e-05
-7.5293e-05
-8.96545e-05
-0.000106606
-0.000126589
-0.000150121
-0.000177804
-0.00021034
-0.00024854
-0.000293344
-0.000345825
-0.000407205
-0.000478858
-0.000562302
-0.000659173
-0.000771166
-0.000899936
-0.00104693
-0.00121314
-0.00139869
-0.00160233
-0.00182081
-0.00204823
-0.00227549
-0.00249029
-0.00267802
-0.00282459
-0.00292155
-0.00297268
-0.00299678
-0.00301993
-0.00305253
-0.00308458
-0.00311753
-0.00310159
-0.00297593
-0.00272636
-0.00232786
-0.00177175
-0.00105396
-0.000175191
0.000856145
0.00202418
0.00330457
0.00466155
0.00604819
0.00741228
0.00870245
0.00987123
0.0108786
0.0116944
0.0122875
0.0126455
0.0127628
0.0126395
0.0122804
0.0116934
0.0108883
0.00987651
0.00867033
0.00728369
0.00573196
0.00403282
0.00220962
0.000308792
-0.0017061
-0.00377228
-0.00586221
-0.00794852
-0.00999938
-0.0119773
-0.0138432
-0.0155546
-0.017068
-0.0183367
-0.0193146
-0.0199608
-0.0202447
-0.0201508
-0.0196836
-0.0188693
-0.017755
-0.0164055
-0.0148989
-0.0133118
-0.0117104
-0.0101467
-0.00866062
-0.00727013
-0.00598792
-0.00482484
-0.00379659
-0.002922
-0.00221265
-0.00166184
-0.00124072
-0.000905326
-0.000613145
-0.000338116
-7.28508e-05
0.000179483
0.000412745
0.000621025
0.000800053
0.000947946
0.00106499
0.00115296
0.00121458
0.00125306
0.00127172
0.00127379
0.00126225
0.00123978
0.00120873
0.00117112
0.00112867
0.0010828
0.00103473
0.000985411
0.000935651
0.00088608
0.000837201
0.000789404
0.000742987
0.000698169
0.000655107
0.000613905
0.000574624
0.000537293
0.000501912
0.00046846
0.000436899
0.000407179
0.000379238
0.00035301
0.000328424
0.000305406
0.00028391
0.00026378
0.000244987
0.000227459
0.000211124
0.000195909
0.000181746
0.000168568
0.000156314
0.000144924
0.000134341
0.000124512
0.000115387
0.000106918
9.90609e-05
9.1773e-05
8.50152e-05
7.87507e-05
7.29448e-05
6.75654e-05
6.25823e-05
5.79674e-05
5.36946e-05
4.97395e-05
4.60794e-05
4.26933e-05
3.95615e-05
3.66658e-05
3.39891e-05
3.15157e-05
2.92312e-05
2.7122e-05
2.51758e-05
2.33811e-05
2.17272e-05
2.02043e-05
1.88035e-05
1.75163e-05
1.63351e-05
1.52529e-05
1.42631e-05
1.33598e-05
1.25376e-05
1.17915e-05
1.11171e-05
1.05102e-05
9.96713e-06
9.48496e-06
9.05966e-06
8.69148e-06
8.36878e-06
-1.07039e-05
-1.11756e-05
-1.21547e-05
-1.36272e-05
-1.56874e-05
-1.83543e-05
-2.17e-05
-2.5824e-05
-3.0841e-05
-3.68859e-05
-4.41208e-05
-5.27394e-05
-6.29724e-05
-7.50923e-05
-8.94197e-05
-0.000106331
-0.000126267
-0.000149744
-0.000177364
-0.000209826
-0.000247942
-0.000292649
-0.000345019
-0.000406276
-0.000477793
-0.000561092
-0.000657812
-0.00076966
-0.000898306
-0.00104523
-0.00121144
-0.00139712
-0.00160107
-0.0018201
-0.00204832
-0.00227666
-0.00249269
-0.00268159
-0.0028288
-0.00292535
-0.0029747
-0.00299632
-0.00301918
-0.00306721
-0.00313403
-0.00317221
-0.00315123
-0.00301579
-0.00275789
-0.00235336
-0.00179154
-0.00106726
-0.00018107
0.00085826
0.00203438
0.00332238
0.0046858
0.00607738
0.00744466
0.00873615
0.00990512
0.0109108
0.0117196
0.0123103
0.0126678
0.0127847
0.0126608
0.0123008
0.0117128
0.0109064
0.00989309
0.00868509
0.00729611
0.00574181
0.00403923
0.00220651
0.000255743
-0.00176127
-0.00383104
-0.00592432
-0.00801301
-0.0100614
-0.012034
-0.0138935
-0.0155966
-0.0170994
-0.0183558
-0.019321
-0.0199553
-0.0202289
-0.020127
-0.0196543
-0.0188369
-0.0177218
-0.0163743
-0.0148705
-0.013288
-0.0116933
-0.0101363
-0.00865054
-0.00725971
-0.00597681
-0.00481254
-0.00378288
-0.00290753
-0.00219888
-0.00165053
-0.00123303
-0.000901141
-0.000611212
-0.000336982
-7.16007e-05
0.000181195
0.000414953
0.000623599
0.000802798
0.000950679
0.00106757
0.00115531
0.00121666
0.00125484
0.00127322
0.00127502
0.00126324
0.00124056
0.00120933
0.00117156
0.00112898
0.00108301
0.00103484
0.000985455
0.000935636
0.00088602
0.000837106
0.000789282
0.000742844
0.000698012
0.00065494
0.000613732
0.000574449
0.000537118
0.000501739
0.000468291
0.000436734
0.000407019
0.000379084
0.000352861
0.000328279
0.000305261
0.000283719
0.000263611
0.00024484
0.000227332
0.000211012
0.000195808
0.000181654
0.000168485
0.000156238
0.000144855
0.000134278
0.000124455
0.000115335
0.00010687
9.90169e-05
9.17327e-05
8.49783e-05
7.87168e-05
7.29137e-05
6.75369e-05
6.25561e-05
5.79433e-05
5.36724e-05
4.9719e-05
4.60606e-05
4.2676e-05
3.95456e-05
3.66511e-05
3.39755e-05
3.15032e-05
2.92196e-05
2.71113e-05
2.51659e-05
2.33719e-05
2.17187e-05
2.01965e-05
1.87962e-05
1.75096e-05
1.63289e-05
1.52471e-05
1.42577e-05
1.33548e-05
1.2533e-05
1.17872e-05
1.11131e-05
1.05064e-05
9.96366e-06
9.48178e-06
9.05695e-06
8.69053e-06
8.36222e-06
-1.06164e-05
-1.10862e-05
-1.20609e-05
-1.35261e-05
-1.55759e-05
-1.82295e-05
-2.15586e-05
-2.56622e-05
-3.06545e-05
-3.66698e-05
-4.38694e-05
-5.24462e-05
-6.26297e-05
-7.46915e-05
-8.89506e-05
-0.000105782
-0.000125624
-0.000148992
-0.000176485
-0.000208801
-0.000246747
-0.00029126
-0.00034341
-0.00040442
-0.000475665
-0.000558671
-0.00065509
-0.000766647
-0.000895042
-0.0010418
-0.001208
-0.00139393
-0.00159848
-0.00181858
-0.00204844
-0.00227897
-0.00249753
-0.00268876
-0.00283725
-0.00293308
-0.00297974
-0.00299829
-0.00301857
-0.00305943
-0.00311664
-0.00315633
-0.00312649
-0.00302087
-0.00277003
-0.00237097
-0.00181392
-0.0010933
-0.00020975
0.000828217
0.00200485
0.00329602
0.00466552
0.00606534
0.00744187
0.00874296
0.00992172
0.0109369
0.0117538
0.01235
0.0127098
0.0128272
0.0127028
0.0123417
0.0117522
0.0109444
0.00992953
0.00872004
0.00732967
0.00577381
0.00407043
0.00224017
0.000298476
-0.00171747
-0.00379182
-0.00589288
-0.00798601
-0.0100451
-0.0120293
-0.0139007
-0.0156185
-0.0171376
-0.0184112
-0.0193931
-0.0200416
-0.0203252
-0.0202277
-0.019753
-0.0189272
-0.0177981
-0.0164327
-0.0149092
-0.0133074
-0.0116967
-0.0101284
-0.00863579
-0.00724132
-0.00595573
-0.00478845
-0.00375565
-0.00287858
-0.00217126
-0.00162784
-0.00121767
-0.000892874
-0.000607465
-0.000334795
-6.91382e-05
0.000184612
0.000419376
0.000628762
0.000808301
0.000956155
0.00107275
0.00116002
0.0012208
0.0012584
0.00127621
0.00127748
0.00126522
0.00124212
0.00121052
0.00117244
0.0011296
0.00108341
0.00103507
0.000985541
0.000935607
0.0008859
0.000836914
0.000789036
0.000742559
0.000697698
0.000654607
0.000613388
0.0005741
0.000536768
0.000501393
0.000467951
0.000436403
0.000406698
0.000378776
0.000352567
0.000328002
0.000305005
0.00028349
0.000263397
0.000244636
0.000227134
0.00021082
0.000195625
0.00018148
0.00016832
0.000156082
0.000144707
0.000134139
0.000124324
0.000115212
0.000106756
9.89096e-05
9.16324e-05
8.48846e-05
7.86293e-05
7.28321e-05
6.74607e-05
6.24851e-05
5.78772e-05
5.36109e-05
4.96618e-05
4.60073e-05
4.26264e-05
3.94995e-05
3.66082e-05
3.39356e-05
3.14661e-05
2.91851e-05
2.70793e-05
2.51361e-05
2.33442e-05
2.16929e-05
2.01724e-05
1.87738e-05
1.74886e-05
1.63093e-05
1.52288e-05
1.42406e-05
1.33387e-05
1.25178e-05
1.1773e-05
1.10996e-05
1.04937e-05
9.95153e-06
9.47021e-06
9.0459e-06
8.67916e-06
8.35189e-06
-1.04856e-05
-1.09531e-05
-1.19206e-05
-1.33746e-05
-1.54089e-05
-1.80426e-05
-2.13468e-05
-2.54199e-05
-3.03753e-05
-3.63462e-05
-4.34929e-05
-5.20071e-05
-6.21167e-05
-7.40914e-05
-8.82482e-05
-0.000104959
-0.000124662
-0.000147867
-0.00017517
-0.000207265
-0.000244958
-0.000289179
-0.000340999
-0.000401638
-0.000472474
-0.00055504
-0.000651005
-0.000762121
-0.000890135
-0.00103664
-0.00120284
-0.00138913
-0.0015946
-0.00181632
-0.00204863
-0.00228242
-0.0025048
-0.00269965
-0.00285022
-0.00294495
-0.0029865
-0.0029977
-0.00301353
-0.00305887
-0.00312893
-0.0031851
-0.00318652
-0.00306697
-0.0028194
-0.00242123
-0.00186346
-0.00114033
-0.000251997
0.000793012
0.00197908
0.00328241
0.00466627
0.00608105
0.00747155
0.00878482
0.00997331
0.0109953
0.0118168
0.012415
0.0127756
0.0128926
0.0127667
0.0124033
0.0118108
0.0109995
0.00998052
0.00876626
0.00737024
0.0058078
0.00409655
0.00225607
0.000305226
-0.00172276
-0.00380618
-0.00591575
-0.00802064
-0.0100841
-0.0120745
-0.0139539
-0.0156801
-0.0172073
-0.018488
-0.0194753
-0.0201267
-0.0204097
-0.0203076
-0.0198238
-0.0189848
-0.0178395
-0.016456
-0.0149152
-0.0132996
-0.0116793
-0.0101044
-0.00860815
-0.00721105
-0.00592287
-0.00475168
-0.00371434
-0.00283469
-0.0021294
-0.00159354
-0.00119465
-0.000880708
-0.000602129
-0.000331708
-6.55297e-05
0.000189723
0.000426037
0.000636548
0.000816596
0.0009644
0.00108054
0.00116709
0.00122703
0.00126374
0.00128069
0.00128116
0.00126818
0.00124444
0.0012123
0.00117376
0.00113053
0.00108402
0.00103541
0.000985666
0.000935561
0.000885717
0.000836626
0.000788667
0.00074213
0.000697226
0.000654107
0.000612871
0.000573574
0.000536243
0.000500873
0.000467441
0.000435907
0.000406219
0.000378314
0.000352124
0.000327576
0.000304595
0.000283098
0.000263021
0.00024428
0.000226802
0.000210511
0.000195337
0.000181211
0.000168069
0.000155849
0.00014449
0.000133937
0.000124136
0.000115037
0.000106593
9.87587e-05
9.14922e-05
8.47544e-05
7.85084e-05
7.27199e-05
6.73567e-05
6.23886e-05
5.77877e-05
5.35278e-05
4.95847e-05
4.59359e-05
4.25602e-05
3.9438e-05
3.65512e-05
3.38827e-05
3.1417e-05
2.91395e-05
2.70369e-05
2.50968e-05
2.33076e-05
2.16589e-05
2.01408e-05
1.87443e-05
1.74612e-05
1.62837e-05
1.52049e-05
1.42182e-05
1.33178e-05
1.24982e-05
1.17544e-05
1.10821e-05
1.04771e-05
9.93581e-06
9.45525e-06
9.03153e-06
8.66527e-06
8.33891e-06
-1.0312e-05
-1.07758e-05
-1.17339e-05
-1.31731e-05
-1.51868e-05
-1.77941e-05
-2.10653e-05
-2.50979e-05
-3.0004e-05
-3.5916e-05
-4.29925e-05
-5.14233e-05
-6.14346e-05
-7.32934e-05
-8.73141e-05
-0.000103866
-0.000123382
-0.000146369
-0.000173419
-0.000205222
-0.000242577
-0.000286411
-0.00033779
-0.000397934
-0.000468223
-0.000550201
-0.000645557
-0.000756078
-0.000883574
-0.00102973
-0.00119589
-0.00138263
-0.00158927
-0.00181313
-0.00204871
-0.00228694
-0.00251454
-0.00271439
-0.00286783
-0.00296106
-0.00299598
-0.0029984
-0.00300899
-0.00305632
-0.00313404
-0.00320082
-0.0032026
-0.003106
-0.00286644
-0.00247284
-0.00191793
-0.00119553
-0.000305209
0.000744372
0.00193814
0.00325334
0.00465296
0.0060856
0.0074941
0.00882425
0.0100277
0.0110622
0.0118933
0.0124977
0.0128613
0.0129786
0.0128511
0.012485
0.0118893
0.0110743
0.0100516
0.00883324
0.00743276
0.00586534
0.00414841
0.00230135
0.000344545
-0.00169243
-0.00378552
-0.00590588
-0.00802207
-0.0101009
-0.012108
-0.0140046
-0.0157488
-0.0172948
-0.0185942
-0.0195983
-0.020263
-0.0205536
-0.0204515
-0.0199595
-0.0191041
-0.0179349
-0.0165226
-0.0149526
-0.0133113
-0.0116706
-0.0100812
-0.00857558
-0.00717302
-0.00588037
-0.00470329
-0.00365929
-0.00277574
-0.00207298
-0.00154741
-0.00116401
-0.000864966
-0.000595573
-0.000327968
-6.0884e-05
0.000196508
0.000434964
0.000647005
0.000827728
0.000975449
0.00109096
0.00117655
0.00123534
0.00127086
0.00128665
0.00128605
0.00127211
0.00124753
0.00121466
0.0011755
0.00113175
0.00108482
0.00103586
0.000985827
0.000935493
0.000885469
0.000836237
0.000788171
0.000741555
0.000696595
0.000653438
0.000612179
0.000572873
0.000535541
0.000500179
0.000466761
0.000435245
0.000405578
0.000377697
0.000351534
0.000327014
0.000304062
0.000282597
0.000262548
0.000243835
0.000226381
0.000210113
0.000194962
0.000180859
0.000167739
0.000155539
0.0001442
0.000133665
0.000123882
0.0001148
0.000106372
9.85523e-05
9.12998e-05
8.45753e-05
7.83417e-05
7.25648e-05
6.72124e-05
6.22544e-05
5.76629e-05
5.34119e-05
4.94771e-05
4.58359e-05
4.24673e-05
3.93517e-05
3.6471e-05
3.38083e-05
3.13479e-05
2.90753e-05
2.69773e-05
2.50413e-05
2.32561e-05
2.16109e-05
2.00961e-05
1.87027e-05
1.74224e-05
1.62475e-05
1.5171e-05
1.41865e-05
1.32881e-05
1.24702e-05
1.17282e-05
1.10573e-05
1.04537e-05
9.91355e-06
9.43405e-06
9.01123e-06
8.64573e-06
8.32024e-06
-1.00959e-05
-1.05549e-05
-1.15015e-05
-1.29222e-05
-1.49102e-05
-1.74846e-05
-2.07147e-05
-2.46967e-05
-2.95417e-05
-3.53801e-05
-4.2369e-05
-5.06961e-05
-6.05848e-05
-7.22994e-05
-8.61506e-05
-0.000102504
-0.000121787
-0.000144504
-0.000171238
-0.000202675
-0.000239608
-0.000282959
-0.000333788
-0.000393312
-0.000462917
-0.000544155
-0.000638741
-0.000748509
-0.000875339
-0.00102104
-0.00118711
-0.0013744
-0.00158249
-0.00180901
-0.0020487
-0.00229253
-0.0025268
-0.00273316
-0.00289055
-0.00298207
-0.00300814
-0.00299799
-0.00300038
-0.00305057
-0.00314211
-0.00322926
-0.00325431
-0.0031686
-0.00293655
-0.002547
-0.00199405
-0.00127071
-0.000375833
0.000681733
0.00188754
0.00322007
0.00464182
0.00609873
0.00753083
0.00888225
0.0101039
0.0111528
0.0119942
0.0126046
0.0129705
0.0130874
0.0129576
0.0125878
0.0119875
0.0111673
0.0101386
0.0089135
0.00750524
0.00592891
0.00420179
0.00234328
0.000374888
-0.00167541
-0.00378208
-0.00591653
-0.00804739
-0.0101413
-0.0121642
-0.0140779
-0.0158406
-0.017406
-0.0187243
-0.0197453
-0.0204223
-0.0207185
-0.0206135
-0.0201091
-0.0192319
-0.018033
-0.0165864
-0.0149821
-0.0133117
-0.0116493
-0.0100451
-0.00853081
-0.0071234
-0.00582636
-0.00464228
-0.00358972
-0.00270095
-0.00200126
-0.00148896
-0.00112578
-0.000846065
-0.000588284
-0.000323889
-5.533e-05
0.000204954
0.000446207
0.000660205
0.000841764
0.000989351
0.00110405
0.00118839
0.00124574
0.00127976
0.00129409
0.00129215
0.001277
0.00125137
0.00121759
0.00117767
0.00113327
0.0010858
0.00103641
0.00098602
0.000935401
0.000885152
0.000835746
0.000787547
0.000740832
0.000695803
0.000652599
0.000611313
0.000571995
0.000534663
0.000499311
0.00046591
0.000434417
0.000404777
0.000376927
0.000350796
0.000326309
0.00030339
0.000281959
0.000261943
0.000243262
0.000225842
0.000209607
0.000194487
0.000180414
0.000167323
0.00015515
0.000143837
0.000133326
0.000123566
0.000114506
0.000106098
9.82971e-05
9.10624e-05
8.43545e-05
7.81365e-05
7.23741e-05
6.70352e-05
6.20898e-05
5.75101e-05
5.327e-05
4.93454e-05
4.57136e-05
4.23538e-05
3.92464e-05
3.63732e-05
3.37175e-05
3.12635e-05
2.8997e-05
2.69045e-05
2.49738e-05
2.31933e-05
2.15525e-05
2.00418e-05
1.86521e-05
1.73752e-05
1.62034e-05
1.51299e-05
1.4148e-05
1.32519e-05
1.24363e-05
1.16962e-05
1.10271e-05
1.04251e-05
9.88646e-06
9.40824e-06
8.98654e-06
8.62199e-06
8.29745e-06
-9.83786e-06
-1.0291e-05
-1.12239e-05
-1.26224e-05
-1.45799e-05
-1.71149e-05
-2.02959e-05
-2.42175e-05
-2.89892e-05
-3.47399e-05
-4.16242e-05
-4.98273e-05
-5.95695e-05
-7.11116e-05
-8.47601e-05
-0.000100876
-0.000119882
-0.000142273
-0.000168631
-0.000199631
-0.000236059
-0.000278829
-0.000328998
-0.000387779
-0.000456558
-0.000536904
-0.000630558
-0.000739407
-0.000865415
-0.00101053
-0.00117646
-0.00136434
-0.00157411
-0.00180376
-0.00204838
-0.00229903
-0.0025416
-0.00275622
-0.0029188
-0.00300832
-0.00302307
-0.00299681
-0.00298897
-0.00304297
-0.0031512
-0.00326129
-0.00330818
-0.00323813
-0.00301577
-0.00263156
-0.00208166
-0.00135806
-0.00045865
0.000607317
0.00182625
0.00317849
0.00462608
0.00611162
0.00757164
0.00894847
0.0101922
0.011259
0.0121134
0.0127316
0.0131009
0.0132177
0.0130851
0.0127109
0.0121052
0.0112791
0.010244
0.00901194
0.00759586
0.0060106
0.00427323
0.00240312
0.00042227
-0.00164248
-0.0037648
-0.00591597
-0.00806477
-0.0101785
-0.0122231
-0.0141601
-0.0159479
-0.0175392
-0.0188831
-0.0199269
-0.0206214
-0.0209267
-0.0208199
-0.0203016
-0.0193985
-0.0181632
-0.0166735
-0.0150259
-0.0133183
-0.011628
-0.0100048
-0.00847883
-0.00706514
-0.00576263
-0.00456958
-0.00350579
-0.00260987
-0.00191355
-0.00141774
-0.00108007
-0.000824606
-0.000580929
-0.000319888
-4.90337e-05
0.000215043
0.000459828
0.000676236
0.000858784
0.00100617
0.00111984
0.00120266
0.00125823
0.00129043
0.00130301
0.00129944
0.00128285
0.00125595
0.00122109
0.00118024
0.00113507
0.00108696
0.00103705
0.000986236
0.000935279
0.000884762
0.000835148
0.000786791
0.000739959
0.000694847
0.000651589
0.000610271
0.000570939
0.000533608
0.000498267
0.000464887
0.000433422
0.000403816
0.000376002
0.00034991
0.000325464
0.000302586
0.000281198
0.000261224
0.000242584
0.000225202
0.000209005
0.000193922
0.000179884
0.000166826
0.000154685
0.000143402
0.00013292
0.000123187
0.000114152
0.000105768
9.79898e-05
9.07764e-05
8.40883e-05
7.78888e-05
7.21438e-05
6.68211e-05
6.18909e-05
5.73253e-05
5.30984e-05
4.9186e-05
4.55657e-05
4.22164e-05
3.91188e-05
3.62547e-05
3.36074e-05
3.11614e-05
2.89021e-05
2.68164e-05
2.48918e-05
2.31171e-05
2.14816e-05
1.99758e-05
1.85907e-05
1.73179e-05
1.615e-05
1.50799e-05
1.41012e-05
1.32081e-05
1.23951e-05
1.16574e-05
1.09906e-05
1.03905e-05
9.85361e-06
9.37695e-06
8.95662e-06
8.59324e-06
8.26981e-06
-9.53847e-06
-9.98469e-06
-1.09018e-05
-1.22747e-05
-1.41966e-05
-1.66859e-05
-1.98098e-05
-2.36614e-05
-2.83481e-05
-3.39968e-05
-4.07597e-05
-4.88188e-05
-5.8391e-05
-6.97327e-05
-8.31459e-05
-9.89855e-05
-0.000117669
-0.000139684
-0.000165603
-0.000196094
-0.000231935
-0.00027403
-0.000323428
-0.00038134
-0.000449154
-0.00052845
-0.000621005
-0.000728759
-0.000853775
-0.000998155
-0.00116386
-0.00135236
-0.00156401
-0.00179727
-0.00204765
-0.00230641
-0.00255899
-0.00278383
-0.00295319
-0.00304063
-0.00304127
-0.0029943
-0.00297283
-0.00303098
-0.00316001
-0.00329908
-0.00337387
-0.00332315
-0.00311158
-0.00273323
-0.00218686
-0.00146284
-0.00055779
0.000518245
0.00175277
0.00312874
0.00460765
0.00612777
0.00762119
0.00902816
0.010298
0.0113857
0.0122549
0.0128818
0.0132546
0.0133707
0.0132345
0.012855
0.0122431
0.0114099
0.010367
0.00912618
0.00770016
0.00610348
0.00435303
0.00246828
0.00047157
-0.00161076
-0.00375176
-0.00592254
-0.0080921
-0.010228
-0.0122963
-0.0142591
-0.0160746
-0.017695
-0.0190677
-0.0201376
-0.0208519
-0.0211672
-0.0210578
-0.0205228
-0.0195889
-0.0183105
-0.0167696
-0.0150707
-0.0133199
-0.0115981
-0.00995383
-0.00841556
-0.006996
-0.00568817
-0.00448461
-0.00340675
-0.00250145
-0.00180871
-0.00133299
-0.00102693
-0.00080134
-0.000574335
-0.000316459
-4.21728e-05
0.000226774
0.000475916
0.000695218
0.000878892
0.00102597
0.00113838
0.00121936
0.00127282
0.00130286
0.00131337
0.00130791
0.00128963
0.00126125
0.00122512
0.00118321
0.00113714
0.0010883
0.00103777
0.00098647
0.000935119
0.000884293
0.000834438
0.000785899
0.000738933
0.000693726
0.000650405
0.00060905
0.000569703
0.000532373
0.000497047
0.000463692
0.000432261
0.000402693
0.000374922
0.000348876
0.000324477
0.000301648
0.000280309
0.000260382
0.000241789
0.000224453
0.000208301
0.000193261
0.000179264
0.000166245
0.000154141
0.000142894
0.000132446
0.000122745
0.00011374
0.000105384
9.76322e-05
9.04435e-05
8.37786e-05
7.76009e-05
7.18762e-05
6.65724e-05
6.16599e-05
5.71107e-05
5.28992e-05
4.9001e-05
4.53939e-05
4.2057e-05
3.89707e-05
3.61173e-05
3.34798e-05
3.10429e-05
2.87921e-05
2.67142e-05
2.47968e-05
2.30288e-05
2.13995e-05
1.98994e-05
1.85194e-05
1.72515e-05
1.6088e-05
1.5022e-05
1.4047e-05
1.31573e-05
1.23474e-05
1.16125e-05
1.09482e-05
1.03504e-05
9.81552e-06
9.34067e-06
8.92193e-06
8.55992e-06
8.23773e-06
-9.19848e-06
-9.63681e-06
-1.05359e-05
-1.18797e-05
-1.37612e-05
-1.61986e-05
-1.92577e-05
-2.30296e-05
-2.76199e-05
-3.31527e-05
-3.97775e-05
-4.7673e-05
-5.70519e-05
-6.8166e-05
-8.13117e-05
-9.68375e-05
-0.000115154
-0.00013674
-0.000162161
-0.000192073
-0.000227243
-0.000268568
-0.000317087
-0.000374005
-0.00044071
-0.000518799
-0.00061008
-0.000716557
-0.000840396
-0.000983877
-0.00114924
-0.00133834
-0.00155204
-0.00178933
-0.00204629
-0.00231448
-0.00257898
-0.00281635
-0.00299446
-0.00307989
-0.0030631
-0.00298976
-0.00295076
-0.00301393
-0.00316861
-0.00334261
-0.00345008
-0.00342154
-0.00322145
-0.00284933
-0.00230722
-0.00158294
-0.000671511
0.000415621
0.0016674
0.00307049
0.00458581
0.00614611
0.00767807
0.00911963
0.0104194
0.0115312
0.0124174
0.0130543
0.0134309
0.013546
0.0134056
0.0130199
0.0124005
0.0115593
0.0105077
0.00925729
0.00782041
0.00621129
0.0044466
0.00254578
0.000531369
-0.00157054
-0.00373258
-0.00592569
-0.00811904
-0.0102806
-0.0123766
-0.0143697
-0.0162179
-0.0178729
-0.01928
-0.0203811
-0.0211196
-0.0214477
-0.021336
-0.0207821
-0.0198126
-0.0184836
-0.0168823
-0.0151227
-0.0133214
-0.0115633
-0.00989482
-0.00834274
-0.00691734
-0.00560417
-0.00438804
-0.00329244
-0.00237478
-0.0016855
-0.00123388
-0.000966542
-0.000777271
-0.000569555
-0.000314196
-3.49455e-05
0.00024016
0.000494589
0.000717293
0.000902209
0.00104885
0.00115972
0.00123852
0.00128952
0.00131706
0.00132519
0.00131755
0.00129732
0.00126726
0.00122969
0.00118655
0.00113947
0.00108978
0.00103857
0.000986711
0.000934916
0.000883739
0.000833613
0.000784868
0.00073775
0.000692437
0.000649045
0.00060765
0.000568286
0.000530959
0.000495651
0.000462325
0.000430931
0.000401408
0.000373687
0.000347693
0.000323349
0.000300576
0.000279292
0.000259421
0.000240882
0.000223599
0.000207498
0.000192506
0.000178557
0.000165583
0.000153522
0.000142315
0.000131905
0.00012224
0.000113269
0.000104945
9.72238e-05
9.00633e-05
8.34249e-05
7.7272e-05
7.15703e-05
6.62882e-05
6.13958e-05
5.68654e-05
5.26714e-05
4.87895e-05
4.51975e-05
4.18746e-05
3.88015e-05
3.59601e-05
3.33339e-05
3.09073e-05
2.86662e-05
2.65972e-05
2.46882e-05
2.29277e-05
2.13055e-05
1.98119e-05
1.8438e-05
1.71756e-05
1.60171e-05
1.49557e-05
1.3985e-05
1.30991e-05
1.22928e-05
1.15611e-05
1.08997e-05
1.03045e-05
9.77196e-06
9.29918e-06
8.88227e-06
8.52182e-06
8.20103e-06
-8.81875e-06
-9.24824e-06
-1.01272e-05
-1.14385e-05
-1.32748e-05
-1.56542e-05
-1.86409e-05
-2.23238e-05
-2.68062e-05
-3.22095e-05
-3.868e-05
-4.63926e-05
-5.55555e-05
-6.64151e-05
-7.92616e-05
-9.44365e-05
-0.000112342
-0.000133449
-0.000158311
-0.000187574
-0.000221994
-0.000262455
-0.000309986
-0.000365783
-0.000431236
-0.000507954
-0.000597783
-0.000702788
-0.000825249
-0.000967638
-0.00113251
-0.00132216
-0.00153801
-0.00177974
-0.00204408
-0.00232308
-0.00260157
-0.00285415
-0.00304351
-0.00312727
-0.00308917
-0.00298253
-0.00292102
-0.00299003
-0.00317584
-0.00339171
-0.00353784
-0.00353485
-0.00334691
-0.00298131
-0.00244436
-0.00172004
-0.000801355
0.000297934
0.00156866
0.00300264
0.00456021
0.00616704
0.00774314
0.00922407
0.010558
0.0116972
0.0126025
0.0132502
0.0136307
0.0137443
0.0135988
0.0132058
0.0125781
0.0117278
0.0106664
0.00940517
0.00795597
0.00633264
0.00455162
0.00263235
0.000597559
-0.00152667
-0.0037126
-0.00593095
-0.00815103
-0.0103412
-0.012468
-0.0144948
-0.0163797
-0.0180736
-0.0195198
-0.0206567
-0.021423
-0.0217659
-0.0216521
-0.0210768
-0.0200665
-0.0186791
-0.0170075
-0.0151776
-0.0133186
-0.0115198
-0.00982497
-0.00825841
-0.00682827
-0.00551058
-0.00427985
-0.00316218
-0.00222847
-0.00154223
-0.00111925
-0.000899083
-0.000753662
-0.00056788
-0.000313779
-2.75468e-05
0.00025524
0.000516001
0.000742642
0.000928882
0.00107491
0.00118393
0.00126017
0.00130832
0.00133301
0.00133843
0.00132832
0.00130591
0.00127396
0.00123476
0.00119026
0.00114204
0.00109141
0.00103943
0.00098695
0.00093466
0.000883093
0.000832665
0.000783692
0.000736406
0.000690975
0.000647507
0.000606068
0.000566687
0.000529364
0.000494076
0.000460784
0.000429434
0.000399962
0.000372297
0.000346363
0.00032208
0.00029937
0.000278149
0.000258339
0.000239861
0.000222638
0.000206594
0.000191658
0.000177761
0.000164838
0.000152825
0.000141664
0.000131297
0.000121673
0.00011274
0.000104452
9.67648e-05
8.96362e-05
8.30276e-05
7.69024e-05
7.12269e-05
6.5969e-05
6.10992e-05
5.659e-05
5.24156e-05
4.85521e-05
4.49771e-05
4.167e-05
3.86114e-05
3.57836e-05
3.317e-05
3.07552e-05
2.85249e-05
2.6466e-05
2.45662e-05
2.28144e-05
2.12001e-05
1.97137e-05
1.83465e-05
1.70903e-05
1.59375e-05
1.48814e-05
1.39154e-05
1.30339e-05
1.22315e-05
1.15034e-05
1.08452e-05
1.0253e-05
9.72307e-06
9.25262e-06
8.83775e-06
8.47908e-06
8.15984e-06
-8.40023e-06
-8.81995e-06
-9.6768e-06
-1.09521e-05
-1.27388e-05
-1.50541e-05
-1.79609e-05
-2.15457e-05
-2.5909e-05
-3.11695e-05
-3.74698e-05
-4.49807e-05
-5.39052e-05
-6.44839e-05
-7.70003e-05
-9.17879e-05
-0.00010924
-0.000129817
-0.000154062
-0.000182609
-0.000216198
-0.0002557
-0.000302135
-0.000356687
-0.000420742
-0.000495924
-0.000584113
-0.000687444
-0.000808307
-0.000949382
-0.00111356
-0.00130365
-0.00152173
-0.00176823
-0.00204071
-0.00233194
-0.0026267
-0.00289764
-0.00310143
-0.00318429
-0.00312031
-0.00297166
-0.0028814
-0.0029573
-0.00318085
-0.00344672
-0.00363821
-0.00366403
-0.00348823
-0.00312905
-0.00259834
-0.00187427
-0.000947345
0.000164945
0.00145592
0.00292456
0.0045306
0.00619069
0.00781666
0.00934171
0.010714
0.0118839
0.0128104
0.0134699
0.0138542
0.0139657
0.0138141
0.0134128
0.0127756
0.0119153
0.0108431
0.0095699
0.00810719
0.00646828
0.0046693
0.00272967
0.000672301
-0.00147663
-0.00368901
-0.00593533
-0.00818501
-0.0104068
-0.0125679
-0.0146323
-0.0165585
-0.0182965
-0.0197873
-0.0209655
-0.0217644
-0.0221251
-0.0220096
-0.0214106
-0.0203544
-0.0189002
-0.0171474
-0.0152362
-0.0133115
-0.0114679
-0.00974424
-0.00816252
-0.00672927
-0.00540841
-0.00416066
-0.00301553
-0.00206103
-0.00137692
-0.000987745
-0.00082484
-0.000732151
-0.000570901
-0.000315983
-2.01625e-05
0.000272091
0.000540353
0.00077148
0.000959079
0.00110425
0.00121107
0.00128435
0.00132925
0.00135069
0.00135308
0.00134021
0.00131537
0.00128131
0.00124032
0.00119431
0.00114483
0.00109316
0.00104033
0.000987175
0.000934341
0.000882346
0.000831588
0.000782365
0.000734897
0.000689338
0.000645787
0.000604301
0.000564903
0.000527586
0.000492323
0.000459069
0.000427768
0.000398353
0.000370751
0.000344884
0.00032067
0.000298029
0.000276879
0.000257138
0.000238728
0.00022157
0.00020559
0.000190716
0.000176878
0.000164011
0.000152051
0.000140941
0.000130622
0.000121043
0.000112153
0.000103905
9.62556e-05
8.91622e-05
8.25866e-05
7.64924e-05
7.08457e-05
6.56148e-05
6.07702e-05
5.62844e-05
5.21318e-05
4.82885e-05
4.47324e-05
4.14428e-05
3.84005e-05
3.55879e-05
3.29882e-05
3.05864e-05
2.83682e-05
2.63204e-05
2.44309e-05
2.26886e-05
2.10831e-05
1.96048e-05
1.82451e-05
1.69957e-05
1.58493e-05
1.47989e-05
1.38382e-05
1.29615e-05
1.21635e-05
1.14394e-05
1.07848e-05
1.01958e-05
9.66883e-06
9.20096e-06
8.78837e-06
8.43165e-06
8.11414e-06
-7.94396e-06
-8.35302e-06
-9.18569e-06
-1.04219e-05
-1.21542e-05
-1.43998e-05
-1.72194e-05
-2.0697e-05
-2.49305e-05
-3.00352e-05
-3.61498e-05
-4.34405e-05
-5.21048e-05
-6.2377e-05
-7.45329e-05
-8.88976e-05
-0.000105854
-0.000125853
-0.000149424
-0.000177185
-0.000209864
-0.000248317
-0.000293548
-0.000346728
-0.000409239
-0.000482715
-0.000569074
-0.000670514
-0.000789541
-0.000929048
-0.0010923
-0.00128267
-0.00150297
-0.00175449
-0.00203585
-0.00234077
-0.0026543
-0.00294725
-0.00316948
-0.00325287
-0.0031576
-0.00295603
-0.00282919
-0.00291332
-0.00318255
-0.00350786
-0.00375242
-0.00381038
-0.00364601
-0.00329285
-0.00276986
-0.00204647
-0.00111016
1.57255e-05
0.00132783
0.00283503
0.00449649
0.00621725
0.00789911
0.00947316
0.0108881
0.0120923
0.0130421
0.0137141
0.0141022
0.0142107
0.0140518
0.013641
0.0129932
0.0121218
0.0110378
0.00975175
0.00827429
0.00661828
0.00479951
0.00283737
0.000754964
-0.0014213
-0.0036629
-0.00594003
-0.00822219
-0.0104786
-0.0126772
-0.014783
-0.0167548
-0.018542
-0.0200832
-0.0213083
-0.0221447
-0.0225263
-0.0224096
-0.0217847
-0.020677
-0.019147
-0.0173008
-0.0152961
-0.0132977
-0.0114054
-0.00965089
-0.00805376
-0.00662013
-0.00529845
-0.00403102
-0.00285179
-0.00187056
-0.00118704
-0.000837574
-0.000744186
-0.000714817
-0.000580554
-0.00032166
-1.29452e-05
0.000290845
0.0005679
0.000804064
0.000992993
0.00113701
0.00124121
0.00131108
0.00135229
0.00137011
0.0013691
0.00135319
0.00132567
0.00128929
0.00124634
0.00119867
0.00114782
0.00109502
0.00104128
0.000987375
0.000933949
0.000881491
0.000830374
0.000780882
0.000733217
0.000687521
0.000643882
0.000602347
0.000562932
0.000525623
0.000490388
0.000457179
0.000425933
0.000396582
0.000369049
0.000343256
0.000319118
0.000296555
0.000275482
0.000255818
0.000237482
0.000220397
0.000204487
0.000189681
0.000175907
0.000163102
0.000151202
0.000140147
0.000129881
0.000120352
0.000111508
0.000103305
9.56962e-05
8.86417e-05
8.21023e-05
7.60421e-05
7.04271e-05
6.52258e-05
6.04088e-05
5.59487e-05
5.18201e-05
4.79992e-05
4.44638e-05
4.11934e-05
3.8169e-05
3.53729e-05
3.27886e-05
3.04011e-05
2.8196e-05
2.61605e-05
2.42823e-05
2.25504e-05
2.09546e-05
1.94853e-05
1.81337e-05
1.68919e-05
1.57523e-05
1.47083e-05
1.37534e-05
1.2882e-05
1.20889e-05
1.13692e-05
1.07185e-05
1.01331e-05
9.60929e-06
9.14426e-06
8.73416e-06
8.37958e-06
8.06397e-06
-7.45109e-06
-7.84861e-06
-8.65514e-06
-9.84905e-06
-1.15227e-05
-1.36928e-05
-1.64181e-05
-1.978e-05
-2.38731e-05
-2.88093e-05
-3.47231e-05
-4.17756e-05
-5.01587e-05
-6.00992e-05
-7.18653e-05
-8.57723e-05
-0.000102192
-0.000121565
-0.000144405
-0.000171316
-0.000203008
-0.00024032
-0.000284239
-0.000335924
-0.000396742
-0.000468339
-0.000552669
-0.000651991
-0.000768923
-0.000906575
-0.00106862
-0.00125904
-0.00148146
-0.0017382
-0.00202907
-0.00234915
-0.00268415
-0.00300341
-0.00324929
-0.00333541
-0.00320251
-0.00293427
-0.002761
-0.00285518
-0.00317967
-0.00357552
-0.0038821
-0.00397551
-0.0038208
-0.00347282
-0.00295953
-0.00223737
-0.00129023
-0.00015048
0.00118301
0.00273285
0.0044575
0.00624705
0.00799106
0.00961901
0.0110813
0.0123234
0.0132985
0.0139837
0.0143751
0.0144796
0.0143121
0.0138904
0.013231
0.0123474
0.0112508
0.00995079
0.00845743
0.00678288
0.00494259
0.00295588
0.00084606
-0.0013601
-0.00363362