/*--------------------------------*- C++ -*----------------------------------*\
| =========                 |                                                 |
| \\      /  F ield         | OpenFOAM: The Open Source CFD Toolbox           |
|  \\    /   O peration     | Version:  v2006                                 |
|   \\  /    A nd           | Website:  www.openfoam.com                      |
|    \\/     M anipulation  |                                                 |
\*---------------------------------------------------------------------------*/
FoamFile
{
    version     2.0;
    format      ascii;
    class       volVectorField;
    location    "0";
    object      U;
}
// * * * * * * * * * * * * * * * * * * * * * * * * * * * * * * * * * * * * * //

dimensions      [0 1 -1 0 0 0 0];


internalField   nonuniform List<vector> 
20000
(
(1 -2.38907e-12 0)
(1 -3.59386e-11 0)
(1 -1.05414e-10 0)
(1 -2.02836e-10 0)
(1 -3.30424e-10 0)
(1 -5.00798e-10 0)
(1 -7.28716e-10 0)
(1 -1.03215e-09 0)
(1 -1.43192e-09 0)
(1 -1.95119e-09 0)
(1 -2.61583e-09 0)
(1 -3.45478e-09 0)
(1 -4.50308e-09 0)
(1 -5.81111e-09 0)
(1 -7.45577e-09 0)
(1 -9.54257e-09 0)
(1 -1.21904e-08 0)
(1 -1.55033e-08 0)
(1 -1.95448e-08 0)
(1 -2.43261e-08 0)
(1 -2.98147e-08 0)
(1 -3.59568e-08 0)
(1 -4.26988e-08 0)
(1 -4.99985e-08 0)
(1 -5.7815e-08 0)
(1 -6.60604e-08 0)
(1 -7.45287e-08 0)
(1 -8.28267e-08 0)
(1 -9.02811e-08 0)
(1 -9.58328e-08 0)
(1.00001 -9.8034e-08 0)
(1.00001 -9.52918e-08 0)
(1.00001 -8.63999e-08 0)
(1.00001 -7.12343e-08 0)
(1.00001 -5.14102e-08 0)
(1.00001 -3.07088e-08 0)
(1.00001 -1.47609e-08 0)
(1.00001 -9.79665e-09 0)
(1.00001 -2.14139e-08 0)
(1.00001 -5.42142e-08 0)
(1.00001 -1.08524e-07 0)
(1.00001 -1.63526e-07 0)
(1.00001 -1.54019e-07 0)
(1.00001 -4.20335e-09 0)
(1.00001 2.20501e-07 0)
(1.00001 4.05723e-07 0)
(1.00001 5.10383e-07 0)
(1.00001 5.44611e-07 0)
(1.00001 5.36999e-07 0)
(1 5.08069e-07 0)
(1 4.6338e-07 0)
(1 4.02894e-07 0)
(0.999999 3.26926e-07 0)
(0.999997 2.38546e-07 0)
(0.999995 1.43562e-07 0)
(0.999994 4.96336e-08 0)
(0.999993 -3.45173e-08 0)
(0.999992 -1.01343e-07 0)
(0.999991 -1.46708e-07 0)
(0.99999 -1.67434e-07 0)
(0.99999 -1.63375e-07 0)
(0.99999 -1.43942e-07 0)
(0.99999 -1.28993e-07 0)
(0.99999 -1.38118e-07 0)
(0.999991 -1.713e-07 0)
(0.999992 -2.19885e-07 0)
(0.999994 -2.73589e-07 0)
(0.999995 -3.21385e-07 0)
(0.999998 -3.51505e-07 0)
(1 -3.53325e-07 0)
(1 -3.19777e-07 0)
(1.00001 -2.46018e-07 0)
(1.00001 -1.31046e-07 0)
(1.00001 2.19282e-08 0)
(1.00001 2.17022e-07 0)
(1.00001 4.51683e-07 0)
(1.00001 6.80859e-07 0)
(1.00001 8.22472e-07 0)
(1.00001 9.00888e-07 0)
(1.00001 9.38385e-07 0)
(1.00001 9.41225e-07 0)
(1.00001 9.09963e-07 0)
(1.00001 8.50682e-07 0)
(1 7.66406e-07 0)
(0.999999 6.56365e-07 0)
(0.999995 5.20297e-07 0)
(0.999991 3.62514e-07 0)
(0.999987 1.92276e-07 0)
(0.999983 2.18176e-08 0)
(0.99998 -1.35856e-07 0)
(0.999977 -2.68817e-07 0)
(0.999974 -3.66993e-07 0)
(0.999972 -4.23863e-07 0)
(0.99997 -4.39516e-07 0)
(0.999969 -4.17626e-07 0)
(0.999968 -3.61818e-07 0)
(0.999968 -2.8895e-07 0)
(0.999968 -2.21218e-07 0)
(0.999968 -1.84021e-07 0)
(0.999968 -1.84045e-07 0)
(0.999969 -2.11838e-07 0)
(0.99997 -2.56657e-07 0)
(0.999972 -3.07043e-07 0)
(0.999974 -3.49325e-07 0)
(0.999977 -3.69909e-07 0)
(0.999979 -3.60392e-07 0)
(0.999981 -3.2188e-07 0)
(0.999983 -2.65236e-07 0)
(0.999985 -2.06323e-07 0)
(0.999986 -1.58674e-07 0)
(0.999987 -1.28493e-07 0)
(0.999988 -1.14815e-07 0)
(0.999989 -1.12875e-07 0)
(0.999989 -1.17193e-07 0)
(0.99999 -1.23175e-07 0)
(0.999991 -1.2772e-07 0)
(0.999992 -1.29241e-07 0)
(0.999993 -1.27319e-07 0)
(0.999994 -1.22275e-07 0)
(0.999994 -1.14797e-07 0)
(0.999995 -1.05688e-07 0)
(0.999996 -9.57014e-08 0)
(0.999996 -8.54585e-08 0)
(0.999997 -7.54282e-08 0)
(0.999997 -6.59317e-08 0)
(0.999998 -5.71656e-08 0)
(0.999998 -4.92292e-08 0)
(0.999998 -4.21518e-08 0)
(0.999999 -3.59148e-08 0)
(0.999999 -3.04695e-08 0)
(0.999999 -2.57508e-08 0)
(0.999999 -2.1686e-08 0)
(0.999999 -1.82016e-08 0)
(1 -1.52267e-08 0)
(1 -1.26951e-08 0)
(1 -1.0547e-08 0)
(1 -8.72895e-09 0)
(1 -7.19382e-09 0)
(1 -5.90025e-09 0)
(1 -4.81235e-09 0)
(1 -3.89936e-09 0)
(1 -3.13582e-09 0)
(1 -2.50187e-09 0)
(1 -1.97845e-09 0)
(1 -1.54005e-09 0)
(1 -1.15123e-09 0)
(1 -7.69811e-10 0)
(1 -3.64048e-10 0)
(1 5.9893e-11 0)
(1 4.22115e-10 0)
(1 5.9727e-10 0)
(1 6.2869e-10 0)
(1 5.87384e-10 0)
(1 5.22682e-10 0)
(1 4.57364e-10 0)
(1 3.98258e-10 0)
(1 3.46263e-10 0)
(1 3.00955e-10 0)
(1 2.6163e-10 0)
(1 2.27555e-10 0)
(1 1.98049e-10 0)
(1 1.72509e-10 0)
(1 1.50385e-10 0)
(1 1.31218e-10 0)
(1 1.14601e-10 0)
(1 1.00176e-10 0)
(1 8.7644e-11 0)
(1 7.67424e-11 0)
(1 6.72406e-11 0)
(1 5.89469e-11 0)
(1 5.16999e-11 0)
(1 4.53497e-11 0)
(1 3.97746e-11 0)
(1 3.48613e-11 0)
(1 3.05212e-11 0)
(1 2.66813e-11 0)
(1 2.32677e-11 0)
(1 2.0223e-11 0)
(1 1.74928e-11 0)
(1 1.5031e-11 0)
(1 1.28017e-11 0)
(1 1.07721e-11 0)
(1 8.90801e-12 0)
(1 7.18471e-12 0)
(1 5.58137e-12 0)
(1 4.07146e-12 0)
(1 2.63907e-12 0)
(1 1.27001e-12 0)
(1 -5.2638e-14 0)
(1 -1.3419e-12 0)
(1 -2.6142e-12 0)
(1 -3.88341e-12 0)
(1 -5.15982e-12 0)
(1 -6.45506e-12 0)
(1 -7.78783e-12 0)
(1 -9.15799e-12 0)
(1 -1.07642e-11 0)
(1 -1.19774e-11 0)
(1 -1.70492e-11 0)
(1 -1.30097e-11 0)
(1 -1.44289e-11 0)
(1 -1.08888e-10 0)
(1 -3.16098e-10 0)
(1 -6.09598e-10 0)
(1 -9.91349e-10 0)
(1 -1.50029e-09 0)
(1 -2.18199e-09 0)
(1 -3.09051e-09 0)
(1 -4.28835e-09 0)
(1 -5.84493e-09 0)
(1 -7.83758e-09 0)
(1 -1.03528e-08 0)
(1 -1.34955e-08 0)
(1 -1.74166e-08 0)
(1 -2.23467e-08 0)
(1 -2.86023e-08 0)
(1 -3.654e-08 0)
(1 -4.64725e-08 0)
(1 -5.85891e-08 0)
(1 -7.29227e-08 0)
(1 -8.93782e-08 0)
(1 -1.07799e-07 0)
(1 -1.28032e-07 0)
(1 -1.49948e-07 0)
(1 -1.73399e-07 0)
(1 -1.98098e-07 0)
(1 -2.23447e-07 0)
(1 -2.48316e-07 0)
(1 -2.70777e-07 0)
(1 -2.87859e-07 0)
(1.00001 -2.95527e-07 0)
(1.00001 -2.89148e-07 0)
(1.00001 -2.64721e-07 0)
(1.00001 -2.20893e-07 0)
(1.00001 -1.61383e-07 0)
(1.00001 -9.69783e-08 0)
(1.00001 -4.56062e-08 0)
(1.00001 -2.90625e-08 0)
(1.00001 -6.57985e-08 0)
(1.00001 -1.60989e-07 0)
(1.00001 -2.96774e-07 0)
(1.00001 -4.24677e-07 0)
(1.00001 -4.69014e-07 0)
(1.00001 -3.68025e-07 0)
(1.00001 -1.78392e-07 0)
(1.00002 1.28937e-08 0)
(1.00002 1.85135e-07 0)
(1.00002 3.55954e-07 0)
(1.00002 4.94325e-07 0)
(1.00002 6.07985e-07 5.64564e-41)
(1.00002 7.04885e-07 7.51368e-41)
(1.00002 7.85482e-07 0)
(1.00002 8.47306e-07 0)
(1.00001 8.85763e-07 0)
(1.00001 8.94745e-07 0)
(1.00001 8.6955e-07 0)
(1.00001 8.10491e-07 0)
(1 7.22085e-07 0)
(0.999999 6.09977e-07 0)
(0.999996 4.8108e-07 0)
(0.999994 3.40947e-07 0)
(0.999992 1.90056e-07 0)
(0.999991 2.34522e-08 0)
(0.999991 -1.63261e-07 0)
(0.999991 -3.61728e-07 0)
(0.999992 -5.62215e-07 0)
(0.999994 -7.56655e-07 0)
(0.999995 -9.37814e-07 0)
(0.999998 -1.0986e-06 0)
(1 -1.2324e-06 0)
(1 -1.3333e-06 0)
(1.00001 -1.39474e-06 0)
(1.00001 -1.41092e-06 0)
(1.00002 -1.37658e-06 0)
(1.00002 -1.27935e-06 0)
(1.00003 -1.11166e-06 0)
(1.00003 -8.95578e-07 0)
(1.00004 -6.86299e-07 0)
(1.00004 -4.59199e-07 0)
(1.00005 -1.97747e-07 0)
(1.00005 1.04622e-07 0)
(1.00006 4.5955e-07 0)
(1.00006 8.29292e-07 0)
(1.00006 1.19418e-06 0)
(1.00006 1.53937e-06 0)
(1.00005 1.84433e-06 0)
(1.00005 2.08804e-06 0)
(1.00004 2.25315e-06 0)
(1.00003 2.32796e-06 0)
(1.00002 2.3079e-06 0)
(1.00001 2.196e-06 0)
(1 2.00288e-06 0)
(0.999995 1.74502e-06 0)
(0.999988 1.4426e-06 0)
(0.999981 1.12134e-06 0)
(0.999976 8.09185e-07 0)
(0.999973 5.21216e-07 0)
(0.99997 2.59534e-07 0)
(0.999969 1.40206e-08 0)
(0.999969 -2.2156e-07 0)
(0.999969 -4.48552e-07 0)
(0.999971 -6.67182e-07 0)
(0.999972 -8.66467e-07 0)
(0.999974 -1.02032e-06 0)
(0.999977 -1.09673e-06 0)
(0.999979 -1.07552e-06 0)
(0.999982 -9.6299e-07 0)
(0.999983 -7.93762e-07 0)
(0.999985 -6.16888e-07 0)
(0.999986 -4.73849e-07 0)
(0.999987 -3.83535e-07 0)
(0.999988 -3.42957e-07 0)
(0.999989 -3.37649e-07 0)
(0.999989 -3.51054e-07 0)
(0.99999 -3.69334e-07 0)
(0.999991 -3.83176e-07 0)
(0.999992 -3.87838e-07 0)
(0.999993 -3.821e-07 0)
(0.999994 -3.66947e-07 0)
(0.999994 -3.44475e-07 0)
(0.999995 -3.17106e-07 0)
(0.999996 -2.87104e-07 0)
(0.999996 -2.56343e-07 0)
(0.999997 -2.2623e-07 0)
(0.999997 -1.97726e-07 0)
(0.999998 -1.7142e-07 0)
(0.999998 -1.4761e-07 0)
(0.999999 -1.2638e-07 0)
(0.999999 -1.07674e-07 0)
(0.999999 -9.13449e-08 0)
(0.999999 -7.7196e-08 0)
(0.999999 -6.50092e-08 0)
(0.999999 -5.4563e-08 0)
(1 -4.56443e-08 0)
(1 -3.8055e-08 0)
(1 -3.16153e-08 0)
(1 -2.61649e-08 0)
(1 -2.15624e-08 0)
(1 -1.76844e-08 0)
(1 -1.44237e-08 0)
(1 -1.16882e-08 0)
(1 -9.39865e-09 0)
(1 -7.48807e-09 0)
(1 -5.89731e-09 0)
(1 -4.57201e-09 0)
(1 -3.46109e-09 0)
(1 -2.5162e-09 0)
(1 -1.69857e-09 0)
(1 -9.88818e-10 0)
(1 -4.11847e-10 0)
(1 -2.46814e-11 0)
(1 2.3435e-10 0)
(1 4.19237e-10 0)
(1 5.56011e-10 0)
(1 6.55938e-10 0)
(1 7.27589e-10 0)
(1 7.76483e-10 0)
(1 8.06754e-10 0)
(1 8.21882e-10 0)
(1 8.24814e-10 0)
(1 8.18041e-10 0)
(1 8.0367e-10 0)
(1 7.83428e-10 0)
(1 7.5877e-10 0)
(1 7.30894e-10 0)
(1 7.00765e-10 0)
(1 6.69186e-10 0)
(1 6.36807e-10 0)
(1 6.0414e-10 0)
(1 5.71598e-10 0)
(1 5.39511e-10 0)
(1 5.08116e-10 0)
(1 4.77605e-10 0)
(1 4.4811e-10 0)
(1 4.19732e-10 0)
(1 3.92548e-10 0)
(1 3.66583e-10 0)
(1 3.41853e-10 0)
(1 3.18349e-10 0)
(1 2.96048e-10 0)
(1 2.74928e-10 0)
(1 2.54955e-10 0)
(1 2.3608e-10 0)
(1 2.18256e-10 0)
(1 2.01436e-10 0)
(1 1.85556e-10 0)
(1 1.70566e-10 0)
(1 1.56415e-10 0)
(1 1.4304e-10 0)
(1 1.30389e-10 0)
(1 1.18401e-10 0)
(1 1.07023e-10 0)
(1 9.62047e-11 0)
(1 8.58928e-11 0)
(1 7.60334e-11 0)
(1 6.65632e-11 0)
(1 5.73569e-11 0)
(1 4.84742e-11 0)
(1 3.81043e-11 0)
(1 3.2267e-11 0)
(1 -2.98401e-11 0)
(1 -1.81065e-10 0)
(1 -5.24393e-10 0)
(1 -1.01307e-09 0)
(1 -1.64729e-09 0)
(1 -2.4928e-09 0)
(1 -3.62608e-09 0)
(1 -5.13705e-09 0)
(1 -7.12963e-09 0)
(1 -9.71932e-09 0)
(1 -1.30347e-08 0)
(1 -1.72195e-08 0)
(1 -2.24485e-08 0)
(1 -2.89729e-08 0)
(1 -3.71766e-08 0)
(1 -4.75865e-08 0)
(1 -6.07965e-08 0)
(1 -7.73277e-08 0)
(1 -9.74956e-08 0)
(1 -1.21356e-07 0)
(1 -1.48754e-07 0)
(1 -1.79433e-07 0)
(1 -2.13143e-07 0)
(1 -2.49674e-07 0)
(1 -2.88783e-07 0)
(1 -3.30004e-07 0)
(1 -3.7237e-07 0)
(1 -4.14029e-07 0)
(1 -4.51807e-07 0)
(1 -4.80819e-07 0)
(1.00001 -4.94378e-07 0)
(1.00001 -4.84661e-07 0)
(1.00001 -4.44656e-07 0)
(1.00001 -3.71559e-07 0)
(1.00001 -2.7112e-07 0)
(1.00001 -1.61305e-07 0)
(1.00001 -7.28264e-08 0)
(1.00001 -4.36236e-08 0)
(1.00001 -1.05263e-07 0)
(1.00001 -2.63252e-07 0)
(1.00001 -4.81784e-07 0)
(1.00001 -6.91539e-07 0)
(1.00001 -8.26505e-07 0)
(1.00001 -8.54179e-07 0)
(1.00001 -7.54247e-07 0)
(1.00001 -5.34382e-07 0)
(1.00001 -2.3571e-07 0)
(1.00001 8.62999e-08 0)
(1.00001 3.94985e-07 0)
(1.00001 6.83311e-07 0)
(1.00001 9.55014e-07 0)
(1.00001 1.21029e-06 0)
(1.00001 1.44222e-06 0)
(1.00001 1.63581e-06 0)
(1 1.76989e-06 0)
(1 1.82472e-06 0)
(0.999999 1.79081e-06 0)
(0.999997 1.6708e-06 0)
(0.999995 1.47485e-06 0)
(0.999993 1.21438e-06 0)
(0.999992 9.01002e-07 0)
(0.999991 5.49718e-07 0)
(0.99999 1.79098e-07 0)
(0.99999 -1.93784e-07 0)
(0.999991 -5.59232e-07 0)
(0.999992 -9.12192e-07 0)
(0.999993 -1.24911e-06 0)
(0.999995 -1.56683e-06 0)
(0.999998 -1.86207e-06 0)
(1 -2.1304e-06 0)
(1 -2.36538e-06 0)
(1.00001 -2.55938e-06 0)
(1.00001 -2.70346e-06 0)
(1.00001 -2.7873e-06 0)
(1.00002 -2.80296e-06 0)
(1.00002 -2.74179e-06 0)
(1.00002 -2.58518e-06 0)
(1.00003 -2.30793e-06 0)
(1.00003 -1.91131e-06 0)
(1.00003 -1.40108e-06 0)
(1.00003 -7.82733e-07 0)
(1.00003 -5.92242e-08 0)
(1.00003 7.34345e-07 0)
(1.00003 1.56617e-06 0)
(1.00003 2.39997e-06 0)
(1.00002 3.18915e-06 0)
(1.00002 3.88221e-06 0)
(1.00001 4.42913e-06 0)
(1.00001 4.78843e-06 0)
(1 4.93318e-06 0)
(0.999995 4.85433e-06 0)
(0.999989 4.56152e-06 0)
(0.999983 4.0823e-06 0)
(0.999979 3.46183e-06 0)
(0.999975 2.75874e-06 0)
(0.999972 2.0344e-06 0)
(0.99997 1.34387e-06 0)
(0.999969 7.23075e-07 0)
(0.999968 1.84617e-07 0)
(0.999968 -2.82961e-07 0)
(0.999969 -7.02887e-07 0)
(0.99997 -1.09069e-06 0)
(0.999972 -1.43685e-06 0)
(0.999974 -1.70202e-06 0)
(0.999977 -1.83406e-06 0)
(0.999979 -1.79952e-06 0)
(0.999982 -1.60956e-06 0)
(0.999984 -1.32347e-06 0)
(0.999985 -1.02507e-06 0)
(0.999986 -7.84886e-07 0)
(0.999987 -6.34467e-07 0)
(0.999988 -5.68055e-07 0)
(0.999989 -5.60734e-07 0)
(0.999989 -5.84416e-07 0)
(0.99999 -6.15821e-07 0)
(0.999991 -6.39403e-07 0)
(0.999992 -6.4734e-07 0)
(0.999993 -6.37718e-07 0)
(0.999994 -6.12284e-07 0)
(0.999994 -5.74607e-07 0)
(0.999995 -5.28776e-07 0)
(0.999996 -4.78591e-07 0)
(0.999996 -4.27183e-07 0)
(0.999997 -3.76897e-07 0)
(0.999997 -3.2933e-07 0)
(0.999998 -2.85456e-07 0)
(0.999998 -2.45762e-07 0)
(0.999999 -2.10384e-07 0)
(0.999999 -1.79221e-07 0)
(0.999999 -1.52025e-07 0)
(0.999999 -1.28465e-07 0)
(0.999999 -1.08175e-07 0)
(0.999999 -9.07863e-08 0)
(1 -7.59415e-08 0)
(1 -6.33105e-08 0)
(1 -5.25937e-08 0)
(1 -4.35237e-08 0)
(1 -3.58651e-08 0)
(1 -2.94124e-08 0)
(1 -2.39873e-08 0)
(1 -1.94361e-08 0)
(1 -1.56263e-08 0)
(1 -1.24439e-08 0)
(1 -9.79201e-09 0)
(1 -7.59109e-09 0)
(1 -5.77738e-09 0)
(1 -4.29995e-09 0)
(1 -3.11414e-09 0)
(1 -2.1712e-09 0)
(1 -1.40869e-09 0)
(1 -7.61432e-10 0)
(1 -2.12102e-10 0)
(1 2.41201e-10 0)
(1 6.02561e-10 0)
(1 8.81808e-10 0)
(1 1.09236e-09 0)
(1 1.24633e-09 0)
(1 1.35398e-09 0)
(1 1.42391e-09 0)
(1 1.46332e-09 0)
(1 1.47823e-09 0)
(1 1.47364e-09 0)
(1 1.4537e-09 0)
(1 1.42186e-09 0)
(1 1.38097e-09 0)
(1 1.33339e-09 0)
(1 1.28102e-09 0)
(1 1.22546e-09 0)
(1 1.16797e-09 0)
(1 1.10959e-09 0)
(1 1.05112e-09 0)
(1 9.93217e-10 0)
(1 9.36373e-10 0)
(1 8.80981e-10 0)
(1 8.27327e-10 0)
(1 7.7563e-10 0)
(1 7.26017e-10 0)
(1 6.78567e-10 0)
(1 6.33323e-10 0)
(1 5.90283e-10 0)
(1 5.49432e-10 0)
(1 5.10736e-10 0)
(1 4.74131e-10 0)
(1 4.39542e-10 0)
(1 4.06893e-10 0)
(1 3.76086e-10 0)
(1 3.47028e-10 0)
(1 3.19628e-10 0)
(1 2.93781e-10 0)
(1 2.69388e-10 0)
(1 2.46351e-10 0)
(1 2.24572e-10 0)
(1 2.0396e-10 0)
(1 1.84419e-10 0)
(1 1.65861e-10 0)
(1 1.48166e-10 0)
(1 1.31403e-10 0)
(1 1.14721e-10 0)
(1 1.02113e-10 0)
(1 7.91601e-11 0)
(1 -4.09996e-11 0)
(1 -2.50799e-10 0)
(1 -7.29071e-10 0)
(1 -1.41031e-09 0)
(1 -2.29516e-09 0)
(1 -3.47526e-09 0)
(1 -5.05705e-09 0)
(1 -7.1661e-09 0)
(1 -9.94759e-09 0)
(1 -1.35629e-08 0)
(1 -1.81916e-08 0)
(1 -2.40348e-08 0)
(1 -3.13363e-08 0)
(1 -4.04474e-08 0)
(1 -5.19048e-08 0)
(1 -6.64449e-08 0)
(1 -8.4898e-08 0)
(1 -1.07993e-07 0)
(1 -1.36173e-07 0)
(1 -1.69519e-07 0)
(1 -2.07817e-07 0)
(1 -2.50716e-07 0)
(1 -2.97878e-07 0)
(1 -3.49026e-07 0)
(1 -4.03847e-07 0)
(1 -4.61723e-07 0)
(1 -5.2133e-07 0)
(1 -5.80108e-07 0)
(1 -6.33636e-07 0)
(1 -6.75024e-07 0)
(1.00001 -6.94736e-07 0)
(1.00001 -6.8154e-07 0)
(1.00001 -6.25292e-07 0)
(1.00001 -5.21795e-07 0)
(1.00001 -3.78953e-07 0)
(1.00001 -2.22034e-07 0)
(1.00001 -9.44974e-08 0)
(1.00001 -5.03301e-08 0)
(1.00001 -1.3563e-07 0)
(1.00001 -3.6205e-07 0)
(1.00001 -6.8379e-07 0)
(1.00001 -9.98185e-07 0)
(1.00001 -1.18212e-06 0)
(1.00001 -1.15154e-06 0)
(1.00001 -8.99247e-07 0)
(1.00001 -4.93698e-07 0)
(1.00001 -3.61677e-08 0)
(1.00001 3.96009e-07 0)
(1.00001 7.92352e-07 0)
(1.00001 1.15357e-06 0)
(1.00001 1.48602e-06 0)
(1.00001 1.78995e-06 0)
(1.00001 2.05602e-06 0)
(1.00001 2.26573e-06 0)
(1 2.39364e-06 0)
(1 2.4171e-06 0)
(0.999999 2.32817e-06 0)
(0.999997 2.13541e-06 0)
(0.999995 1.85508e-06 0)
(0.999993 1.50305e-06 0)
(0.999992 1.09434e-06 0)
(0.999991 6.44427e-07 0)
(0.99999 1.68149e-07 0)
(0.99999 -3.21503e-07 0)
(0.999991 -8.13744e-07 0)
(0.999992 -1.2977e-06 0)
(0.999993 -1.76304e-06 0)
(0.999995 -2.19986e-06 0)
(0.999998 -2.59797e-06 0)
(1 -2.94644e-06 0)
(1 -3.23388e-06 0)
(1.00001 -3.44859e-06 0)
(1.00001 -3.57875e-06 0)
(1.00001 -3.61321e-06 0)
(1.00002 -3.54245e-06 0)
(1.00002 -3.3584e-06 0)
(1.00002 -3.05541e-06 0)
(1.00003 -2.625e-06 0)
(1.00003 -2.06607e-06 0)
(1.00003 -1.37775e-06 0)
(1.00003 -5.67229e-07 0)
(1.00003 3.43234e-07 0)
(1.00003 1.34207e-06 0)
(1.00003 2.39173e-06 0)
(1.00003 3.43687e-06 0)
(1.00002 4.41306e-06 0)
(1.00002 5.25279e-06 0)
(1.00001 5.89332e-06 0)
(1.00001 6.28526e-06 0)
(1 6.39929e-06 0)
(0.999995 6.22963e-06 0)
(0.999989 5.79445e-06 0)
(0.999983 5.13439e-06 0)
(0.999978 4.30975e-06 0)
(0.999975 3.39513e-06 0)
(0.999972 2.46989e-06 0)
(0.99997 1.60061e-06 0)
(0.999969 8.2413e-07 0)
(0.999968 1.43502e-07 0)
(0.999968 -4.62138e-07 0)
(0.999969 -1.02139e-06 0)
(0.99997 -1.55041e-06 0)
(0.999972 -2.03119e-06 0)
(0.999974 -2.40364e-06 0)
(0.999977 -2.5896e-06 0)
(0.999979 -2.53854e-06 0)
(0.999982 -2.26524e-06 0)
(0.999984 -1.85503e-06 0)
(0.999985 -1.42911e-06 0)
(0.999986 -1.08889e-06 0)
(0.999987 -8.78489e-07 0)
(0.999988 -7.88091e-07 0)
(0.999989 -7.81056e-07 0)
(0.999989 -8.17013e-07 0)
(0.99999 -8.62918e-07 0)
(0.999991 -8.9696e-07 0)
(0.999992 -9.0838e-07 0)
(0.999993 -8.94746e-07 0)
(0.999994 -8.5873e-07 0)
(0.999994 -8.05494e-07 0)
(0.999995 -7.40862e-07 0)
(0.999996 -6.70212e-07 0)
(0.999996 -5.97944e-07 0)
(0.999997 -5.27337e-07 0)
(0.999997 -4.60615e-07 0)
(0.999998 -3.99125e-07 0)
(0.999998 -3.43532e-07 0)
(0.999999 -2.94012e-07 0)
(0.999999 -2.50412e-07 0)
(0.999999 -2.12377e-07 0)
(0.999999 -1.79438e-07 0)
(0.999999 -1.51079e-07 0)
(0.999999 -1.26779e-07 0)
(1 -1.06037e-07 0)
(1 -8.83916e-08 0)
(1 -7.34218e-08 0)
(1 -6.07537e-08 0)
(1 -5.00578e-08 0)
(1 -4.10466e-08 0)
(1 -3.34709e-08 0)
(1 -2.71157e-08 0)
(1 -2.17968e-08 0)
(1 -1.73564e-08 0)
(1 -1.36597e-08 0)
(1 -1.05902e-08 0)
(1 -8.04643e-09 0)
(1 -5.94101e-09 0)
(1 -4.20071e-09 0)
(1 -2.7692e-09 0)
(1 -1.6045e-09 0)
(1 -6.70753e-10 0)
(1 5.99436e-11 0)
(1 6.23587e-10 0)
(1 1.05523e-09 0)
(1 1.38251e-09 0)
(1 1.62489e-09 0)
(1 1.79793e-09 0)
(1 1.9145e-09 0)
(1 1.98528e-09 0)
(1 2.01918e-09 0)
(1 2.0236e-09 0)
(1 2.0047e-09 0)
(1 1.96758e-09 0)
(1 1.91648e-09 0)
(1 1.85491e-09 0)
(1 1.78572e-09 0)
(1 1.71127e-09 0)
(1 1.63349e-09 0)
(1 1.5539e-09 0)
(1 1.47376e-09 0)
(1 1.39403e-09 0)
(1 1.31547e-09 0)
(1 1.2387e-09 0)
(1 1.16415e-09 0)
(1 1.09215e-09 0)
(1 1.02295e-09 0)
(1 9.5668e-10 0)
(1 8.93402e-10 0)
(1 8.3315e-10 0)
(1 7.75909e-10 0)
(1 7.21634e-10 0)
(1 6.70262e-10 0)
(1 6.217e-10 0)
(1 5.75834e-10 0)
(1 5.32549e-10 0)
(1 4.91713e-10 0)
(1 4.53195e-10 0)
(1 4.16865e-10 0)
(1 3.82582e-10 0)
(1 3.50209e-10 0)
(1 3.19611e-10 0)
(1 2.90658e-10 0)
(1 2.63222e-10 0)
(1 2.37169e-10 0)
(1 2.12381e-10 0)
(1 1.8871e-10 0)
(1 1.66178e-10 0)
(1 1.44043e-10 0)
(1 1.25801e-10 0)
(1 9.43896e-11 0)
(1 -5.15006e-11 0)
(1 -3.18767e-10 0)
(1 -9.29954e-10 0)
(1 -1.80145e-09 0)
(1 -2.93359e-09 0)
(1 -4.44363e-09 0)
(1 -6.46821e-09 0)
(1 -9.16841e-09 0)
(1 -1.27305e-08 0)
(1 -1.73612e-08 0)
(1 -2.32909e-08 0)
(1 -3.07771e-08 0)
(1 -4.01325e-08 0)
(1 -5.18075e-08 0)
(1 -6.64909e-08 0)
(1 -8.51274e-08 0)
(1 -1.08783e-07 0)
(1 -1.38393e-07 0)
(1 -1.74529e-07 0)
(1 -2.17299e-07 0)
(1 -2.66439e-07 0)
(1 -3.21508e-07 0)
(1 -3.82093e-07 0)
(1 -4.47866e-07 0)
(1 -5.18454e-07 0)
(1 -5.93112e-07 0)
(1 -6.70203e-07 0)
(1 -7.46526e-07 0)
(1 -8.16471e-07 0)
(1 -8.71191e-07 0)
(1.00001 -8.98288e-07 0)
(1.00001 -8.82913e-07 0)
(1.00001 -8.11283e-07 0)
(1.00001 -6.7704e-07 0)
(1.00001 -4.89541e-07 0)
(1.00001 -2.81221e-07 0)
(1.00001 -1.0932e-07 0)
(1.00001 -4.63751e-08 0)
(1.00001 -1.55599e-07 0)
(1.00001 -4.53805e-07 0)
(1.00001 -8.79013e-07 0)
(1.00001 -1.29321e-06 0)
(1.00001 -1.53847e-06 0)
(1.00001 -1.51724e-06 0)
(1.00001 -1.22886e-06 0)
(1.00001 -7.52024e-07 0)
(1.00001 -1.92924e-07 0)
(1.00001 3.75211e-07 0)
(1.00001 9.00615e-07 0)
(1.00001 1.38102e-06 0)
(1.00001 1.82821e-06 0)
(1.00001 2.24363e-06 0)
(1.00001 2.61533e-06 0)
(1.00001 2.91821e-06 0)
(1 3.11616e-06 0)
(1 3.17595e-06 0)
(0.999999 3.08446e-06 0)
(0.999997 2.85106e-06 0)
(0.999995 2.49561e-06 0)
(0.999993 2.0384e-06 0)
(0.999991 1.49975e-06 0)
(0.999991 9.01853e-07 0)
(0.99999 2.67758e-07 0)
(0.99999 -3.81161e-07 0)
(0.999991 -1.02754e-06 0)
(0.999992 -1.65785e-06 0)
(0.999993 -2.26145e-06 0)
(0.999995 -2.82907e-06 0)
(0.999997 -3.35128e-06 0)
(1 -3.81734e-06 0)
(1 -4.21446e-06 0)
(1.00001 -4.52782e-06 0)
(1.00001 -4.74112e-06 0)
(1.00001 -4.83733e-06 0)
(1.00002 -4.80006e-06 0)
(1.00002 -4.61396e-06 0)
(1.00002 -4.26363e-06 0)
(1.00003 -3.73406e-06 0)
(1.00003 -3.02069e-06 0)
(1.00003 -2.12253e-06 0)
(1.00003 -1.04541e-06 0)
(1.00003 1.90925e-07 0)
(1.00003 1.55e-06 0)
(1.00003 2.97628e-06 0)
(1.00003 4.39879e-06 0)
(1.00002 5.73386e-06 0)
(1.00002 6.89142e-06 0)
(1.00001 7.78634e-06 0)
(1.00001 8.35045e-06 0)
(1 8.54193e-06 0)
(0.999995 8.35034e-06 0)
(0.999989 7.79737e-06 0)
(0.999983 6.93479e-06 0)
(0.999978 5.84134e-06 0)
(0.999974 4.61775e-06 0)
(0.999971 3.37356e-06 0)
(0.999969 2.20239e-06 0)
(0.999968 1.15671e-06 0)
(0.999968 2.44431e-07 0)
(0.999968 -5.59622e-07 0)
(0.999969 -1.29523e-06 0)
(0.99997 -1.98919e-06 0)
(0.999972 -2.62179e-06 0)
(0.999974 -3.11423e-06 0)
(0.999977 -3.36136e-06 0)
(0.999979 -3.29415e-06 0)
(0.999982 -2.93147e-06 0)
(0.999984 -2.38783e-06 0)
(0.999985 -1.82633e-06 0)
(0.999986 -1.38224e-06 0)
(0.999987 -1.11227e-06 0)
(0.999988 -1.00067e-06 0)
(0.999989 -9.97269e-07 0)
(0.999989 -1.04838e-06 0)
(0.99999 -1.11076e-06 0)
(0.999991 -1.1563e-06 0)
(0.999992 -1.17151e-06 0)
(0.999993 -1.15369e-06 0)
(0.999994 -1.10669e-06 0)
(0.999994 -1.0374e-06 0)
(0.999995 -9.53503e-07 0)
(0.999996 -8.61999e-07 0)
(0.999996 -7.68576e-07 0)
(0.999997 -6.77445e-07 0)
(0.999997 -5.91445e-07 0)
(0.999998 -5.12275e-07 0)
(0.999998 -4.40763e-07 0)
(0.999999 -3.77112e-07 0)
(0.999999 -3.21106e-07 0)
(0.999999 -2.72273e-07 0)
(0.999999 -2.3e-07 0)
(0.999999 -1.93618e-07 0)
(0.999999 -1.62451e-07 0)
(1 -1.35855e-07 0)
(1 -1.13232e-07 0)
(1 -9.40428e-08 0)
(1 -7.78061e-08 0)
(1 -6.40987e-08 0)
(1 -5.25514e-08 0)
(1 -4.28446e-08 0)
(1 -3.47025e-08 0)
(1 -2.78884e-08 0)
(1 -2.2199e-08 0)
(1 -1.74606e-08 0)
(1 -1.35261e-08 0)
(1 -1.02716e-08 0)
(1 -7.59334e-09 0)
(1 -5.40336e-09 0)
(1 -3.6244e-09 0)
(1 -2.1861e-09 0)
(1 -1.0223e-09 0)
(1 -8.48573e-11 0)
(1 6.63009e-10 0)
(1 1.24979e-09 0)
(1 1.70051e-09 0)
(1 2.03786e-09 0)
(1 2.28182e-09 0)
(1 2.44924e-09 0)
(1 2.55437e-09 0)
(1 2.60914e-09 0)
(1 2.62353e-09 0)
(1 2.60587e-09 0)
(1 2.5631e-09 0)
(1 2.50095e-09 0)
(1 2.42417e-09 0)
(1 2.33668e-09 0)
(1 2.24167e-09 0)
(1 2.14177e-09 0)
(1 2.03908e-09 0)
(1 1.93529e-09 0)
(1 1.83175e-09 0)
(1 1.72952e-09 0)
(1 1.62941e-09 0)
(1 1.53206e-09 0)
(1 1.43794e-09 0)
(1 1.34736e-09 0)
(1 1.26053e-09 0)
(1 1.17757e-09 0)
(1 1.09853e-09 0)
(1 1.02339e-09 0)
(1 9.52123e-10 0)
(1 8.8464e-10 0)
(1 8.20827e-10 0)
(1 7.60544e-10 0)
(1 7.03643e-10 0)
(1 6.4996e-10 0)
(1 5.99324e-10 0)
(1 5.51565e-10 0)
(1 5.06502e-10 0)
(1 4.63958e-10 0)
(1 4.23759e-10 0)
(1 3.85734e-10 0)
(1 3.49715e-10 0)
(1 3.15532e-10 0)
(1 2.83029e-10 0)
(1 2.52013e-10 0)
(1 2.22534e-10 0)
(1 1.93557e-10 0)
(1 1.69354e-10 0)
(1 1.28876e-10 0)
(1 -6.1332e-11 0)
(1 -3.83995e-10 0)
(1 -1.12525e-09 0)
(1 -2.1833e-09 0)
(1 -3.55826e-09 0)
(1 -5.39298e-09 0)
(1 -7.85388e-09 0)
(1 -1.11371e-08 0)
(1 -1.54694e-08 0)
(1 -2.11027e-08 0)
(1 -2.83172e-08 0)
(1 -3.74265e-08 0)
(1 -4.88114e-08 0)
(1 -6.30211e-08 0)
(1 -8.08947e-08 0)
(1 -1.03584e-07 0)
(1 -1.32389e-07 0)
(1 -1.68453e-07 0)
(1 -2.12473e-07 0)
(1 -2.64591e-07 0)
(1 -3.24494e-07 0)
(1 -3.91666e-07 0)
(1 -4.65628e-07 0)
(1 -5.46022e-07 0)
(1 -6.32454e-07 0)
(1 -7.24091e-07 0)
(1 -8.19039e-07 0)
(1 -9.13497e-07 0)
(1 -1.00071e-06 0)
(1 -1.06984e-06 0)
(1.00001 -1.10545e-06 0)
(1.00001 -1.08871e-06 0)
(1.00001 -1.00168e-06 0)
(1.00001 -8.35312e-07 0)
(1.00001 -6.00091e-07 0)
(1.00001 -3.3574e-07 0)
(1.00001 -1.14108e-07 0)
(1.00001 -2.7845e-08 0)
(1.00001 -1.59614e-07 0)
(1.00001 -5.34717e-07 0)
(1.00001 -1.07781e-06 0)
(1.00001 -1.61297e-06 0)
(1.00001 -1.93329e-06 0)
(1.00001 -1.90453e-06 0)
(1.00001 -1.52322e-06 0)
(1.00001 -8.97161e-07 0)
(1.00001 -1.73512e-07 0)
(1.00001 5.28523e-07 0)
(1.00001 1.16728e-06 0)
(1.00001 1.74844e-06 0)
(1.00001 2.28828e-06 0)
(1.00001 2.78915e-06 0)
(1.00001 3.23653e-06 0)
(1.00001 3.59941e-06 0)
(1 3.83225e-06 0)
(1 3.8933e-06 0)
(0.999999 3.76755e-06 0)
(0.999996 3.46917e-06 0)
(0.999994 3.02499e-06 0)
(0.999993 2.46105e-06 0)
(0.999991 1.80191e-06 0)
(0.99999 1.07393e-06 0)
(0.99999 3.04033e-07 0)
(0.99999 -4.83796e-07 0)
(0.99999 -1.27026e-06 0)
(0.999991 -2.03945e-06 0)
(0.999993 -2.77764e-06 0)
(0.999995 -3.47193e-06 0)
(0.999997 -4.1087e-06 0)
(1 -4.67272e-06 0)
(1 -5.14689e-06 0)
(1.00001 -5.51273e-06 0)
(1.00001 -5.75102e-06 0)
(1.00001 -5.84276e-06 0)
(1.00002 -5.77018e-06 0)
(1.00002 -5.51685e-06 0)
(1.00002 -5.06759e-06 0)
(1.00003 -4.40886e-06 0)
(1.00003 -3.53378e-06 0)
(1.00003 -2.44094e-06 0)
(1.00003 -1.13902e-06 0)
(1.00003 3.48043e-07 0)
(1.00003 1.98122e-06 0)
(1.00003 3.69773e-06 0)
(1.00003 5.41179e-06 0)
(1.00002 7.02036e-06 0)
(1.00002 8.41275e-06 0)
(1.00001 9.48459e-06 0)
(1.00001 1.01526e-05 0)
(1 1.03663e-05 0)
(0.999994 1.01137e-05 0)
(0.999988 9.42231e-06 0)
(0.999983 8.35611e-06 0)
(0.999978 7.01204e-06 0)
(0.999974 5.515e-06 0)
(0.999971 4.00096e-06 0)
(0.999969 2.5844e-06 0)
(0.999968 1.32801e-06 0)
(0.999968 2.37309e-07 0)
(0.999968 -7.23753e-07 0)
(0.999969 -1.60882e-06 0)
(0.99997 -2.45444e-06 0)
(0.999972 -3.23637e-06 0)
(0.999974 -3.85197e-06 0)
(0.999977 -4.16259e-06 0)
(0.999979 -4.07586e-06 0)
(0.999982 -3.61367e-06 0)
(0.999984 -2.9231e-06 0)
(0.999986 -2.21481e-06 0)
(0.999987 -1.66172e-06 0)
(0.999987 -1.33282e-06 0)
(0.999988 -1.20377e-06 0)
(0.999989 -1.20844e-06 0)
(0.999989 -1.27846e-06 0)
(0.99999 -1.35983e-06 0)
(0.999991 -1.41815e-06 0)
(0.999992 -1.43747e-06 0)
(0.999993 -1.41522e-06 0)
(0.999994 -1.35664e-06 0)
(0.999994 -1.27064e-06 0)
(0.999995 -1.16687e-06 0)
(0.999996 -1.054e-06 0)
(0.999997 -9.39038e-07 0)
(0.999997 -8.27121e-07 0)
(0.999998 -7.21681e-07 0)
(0.999998 -6.24751e-07 0)
(0.999998 -5.37297e-07 0)
(0.999999 -4.5953e-07 0)
(0.999999 -3.91158e-07 0)
(0.999999 -3.3158e-07 0)
(0.999999 -2.80032e-07 0)
(0.999999 -2.35686e-07 0)
(0.999999 -1.9771e-07 0)
(1 -1.65312e-07 0)
(1 -1.37761e-07 0)
(1 -1.14396e-07 0)
(1 -9.46289e-08 0)
(1 -7.79434e-08 0)
(1 -6.38891e-08 0)
(1 -5.2076e-08 0)
(1 -4.21682e-08 0)
(1 -3.38771e-08 0)
(1 -2.69559e-08 0)
(1 -2.1194e-08 0)
(1 -1.64115e-08 0)
(1 -1.24548e-08 0)
(1 -9.19305e-09 0)
(1 -6.51488e-09 0)
(1 -4.32635e-09 0)
(1 -2.54825e-09 0)
(1 -1.11385e-09 0)
(1 2.91314e-11 0)
(1 9.27493e-10 0)
(1 1.62359e-09 0)
(1 2.15371e-09 0)
(1 2.54761e-09 0)
(1 2.82996e-09 0)
(1 3.02132e-09 0)
(1 3.13885e-09 0)
(1 3.19686e-09 0)
(1 3.20726e-09 0)
(1 3.17996e-09 0)
(1 3.12321e-09 0)
(1 3.04381e-09 0)
(1 2.9474e-09 0)
(1 2.8386e-09 0)
(1 2.7212e-09 0)
(1 2.59829e-09 0)
(1 2.47235e-09 0)
(1 2.34538e-09 0)
(1 2.21895e-09 0)
(1 2.09431e-09 0)
(1 1.97242e-09 0)
(1 1.85402e-09 0)
(1 1.73963e-09 0)
(1 1.62964e-09 0)
(1 1.52427e-09 0)
(1 1.42364e-09 0)
(1 1.3278e-09 0)
(1 1.23675e-09 0)
(1 1.15041e-09 0)
(1 1.06868e-09 0)
(1 9.9141e-10 0)
(1 9.18432e-10 0)
(1 8.49558e-10 0)
(1 7.84589e-10 0)
(1 7.23314e-10 0)
(1 6.65522e-10 0)
(1 6.10994e-10 0)
(1 5.59513e-10 0)
(1 5.10869e-10 0)
(1 4.64852e-10 0)
(1 4.21258e-10 0)
(1 3.79878e-10 0)
(1 3.40524e-10 0)
(1 3.02963e-10 0)
(1 2.67249e-10 0)
(1 2.32109e-10 0)
(1 2.02655e-10 0)
(1 1.53662e-10 0)
(1 -7.03263e-11 0)
(1 -4.4578e-10 0)
(1 -1.31367e-09 0)
(1 -2.55411e-09 0)
(1 -4.16686e-09 0)
(1 -6.31989e-09 0)
(1 -9.20898e-09 0)
(1 -1.3065e-08 0)
(1 -1.81547e-08 0)
(1 -2.47746e-08 0)
(1 -3.32542e-08 0)
(1 -4.39624e-08 0)
(1 -5.73475e-08 0)
(1 -7.40559e-08 0)
(1 -9.50764e-08 0)
(1 -1.21766e-07 0)
(1 -1.55657e-07 0)
(1 -1.98096e-07 0)
(1 -2.49913e-07 0)
(1 -3.11282e-07 0)
(1 -3.81852e-07 0)
(1 -4.61043e-07 0)
(1 -5.48328e-07 0)
(1 -6.43344e-07 0)
(1 -7.45705e-07 0)
(1 -8.54532e-07 0)
(1 -9.67725e-07 0)
(1 -1.08098e-06 0)
(1 -1.18647e-06 0)
(1 -1.27142e-06 0)
(1.00001 -1.31725e-06 0)
(1.00001 -1.30076e-06 0)
(1.00001 -1.19916e-06 0)
(1.00001 -9.99802e-07 0)
(1.00001 -7.13402e-07 0)
(1.00001 -3.86765e-07 0)
(1.00001 -1.07436e-07 0)
(1.00001 8.91027e-09 0)
(1.00001 -1.44137e-07 0)
(1.00001 -6.03423e-07 0)
(1.00001 -1.27824e-06 0)
(1.00001 -1.94728e-06 0)
(1.00001 -2.34792e-06 0)
(1.00001 -2.31308e-06 0)
(1.00001 -1.8468e-06 0)
(1.00001 -1.09016e-06 0)
(1.00001 -2.25506e-07 0)
(1.00001 6.10215e-07 0)
(1.00001 1.36571e-06 0)
(1.00001 2.05156e-06 -2.72863e-41)
(1.00001 2.69133e-06 -3.72002e-41)
(1.00001 3.2891e-06 0)
(1.00001 3.82803e-06 0)
(1.00001 4.27048e-06 0)
(1 4.55904e-06 0)
(1 4.64034e-06 0)
(0.999999 4.49563e-06 0)
(0.999996 4.14341e-06 0)
(0.999994 3.61701e-06 0)
(0.999992 2.94724e-06 0)
(0.999991 2.16269e-06 0)
(0.99999 1.29498e-06 0)
(0.99999 3.76991e-07 0)
(0.99999 -5.61975e-07 0)
(0.99999 -1.49804e-06 0)
(0.999991 -2.41192e-06 0)
(0.999993 -3.28778e-06 0)
(0.999995 -4.11142e-06 0)
(0.999997 -4.86826e-06 0)
(1 -5.54174e-06 0)
(1 -6.11266e-06 0)
(1.00001 -6.55939e-06 0)
(1.00001 -6.85868e-06 0)
(1.00001 -6.9868e-06 0)
(1.00002 -6.9208e-06 0)
(1.00002 -6.63934e-06 0)
(1.00002 -6.12281e-06 0)
(1.00003 -5.35414e-06 0)
(1.00003 -4.32321e-06 0)
(1.00003 -3.02746e-06 0)
(1.00003 -1.47576e-06 0)
(1.00003 3.05548e-07 0)
(1.00003 2.26799e-06 0)
(1.00003 4.33523e-06 0)
(1.00003 6.40366e-06 0)
(1.00002 8.34853e-06 0)
(1.00002 1.00354e-05 0)
(1.00001 1.1337e-05 0)
(1.00001 1.21519e-05 0)
(1 1.24183e-05 0)
(0.999994 1.21214e-05 0)
(0.999988 1.12942e-05 0)
(0.999982 1.00132e-05 0)
(0.999977 8.39502e-06 0)
(0.999973 6.59154e-06 0)
(0.999971 4.77e-06 0)
(0.999969 3.07184e-06 0)
(0.999968 1.57353e-06 0)
(0.999967 2.79711e-07 0)
(0.999968 -8.56165e-07 0)
(0.999968 -1.9036e-06 0)
(0.99997 -2.91323e-06 0)
(0.999971 -3.85888e-06 0)
(0.999974 -4.61189e-06 0)
(0.999977 -4.99483e-06 0)
(0.999979 -4.88744e-06 0)
(0.999982 -4.31432e-06 0)
(0.999984 -3.46025e-06 0)
(0.999986 -2.59125e-06 0)
(0.999987 -1.92303e-06 0)
(0.999987 -1.53642e-06 0)
(0.999988 -1.39494e-06 0)
(0.999989 -1.41339e-06 0)
(0.999989 -1.50703e-06 0)
(0.99999 -1.6105e-06 0)
(0.999991 -1.68315e-06 0)
(0.999992 -1.70696e-06 0)
(0.999993 -1.67989e-06 0)
(0.999994 -1.60902e-06 0)
(0.999995 -1.5055e-06 0)
(0.999995 -1.38108e-06 0)
(0.999996 -1.24622e-06 0)
(0.999997 -1.10926e-06 0)
(0.999997 -9.76246e-07 0)
(0.999998 -8.51177e-07 0)
(0.999998 -7.36392e-07 0)
(0.999998 -6.32971e-07 0)
(0.999999 -5.41111e-07 0)
(0.999999 -4.60422e-07 0)
(0.999999 -3.90165e-07 0)
(0.999999 -3.29416e-07 0)