/*--------------------------------*- C++ -*----------------------------------*\
| =========                 |                                                 |
| \\      /  F ield         | OpenFOAM: The Open Source CFD Toolbox           |
|  \\    /   O peration     | Version:  v2006                                 |
|   \\  /    A nd           | Website:  www.openfoam.com                      |
|    \\/     M anipulation  |                                                 |
\*---------------------------------------------------------------------------*/
FoamFile
{
    version     2.0;
    format      ascii;
    class       surfaceScalarField;
    location    "18";
    object      alphaPhi0.water;
}
// * * * * * * * * * * * * * * * * * * * * * * * * * * * * * * * * * * * * * //

dimensions      [0 3 -1 0 0 0 0];
oriented        oriented;


internalField   nonuniform List<scalar> 
104500
(
-9.68929e-06
9.68929e-06
-1.32946e-05
3.6053e-06
-1.79763e-05
4.68171e-06
-2.36293e-05
5.65301e-06
-2.9605e-05
5.97571e-06
-3.57577e-05
6.15265e-06
-4.20168e-05
6.25917e-06
-4.83909e-05
6.37411e-06
-5.49235e-05
6.53251e-06
-6.16611e-05
6.73769e-06
-6.86405e-05
6.97937e-06
-7.58875e-05
7.24703e-06
-8.34213e-05
7.53379e-06
-9.12571e-05
7.83581e-06
-9.94088e-05
8.15164e-06
-0.00010789
8.48079e-06
-0.000116713
8.823e-06
-0.000125891
9.17815e-06
-0.000135437
9.54624e-06
-0.000145365
9.92762e-06
-0.000155687
1.03227e-05
-0.000166418
1.07312e-05
-0.000177571
1.11525e-05
-0.000189157
1.15856e-05
-0.000201187
1.20306e-05
-0.000213676
1.24888e-05
-0.000226639
1.29634e-05
-0.000240096
1.34569e-05
-0.000254067
1.39708e-05
-0.000268572
1.45054e-05
-0.000283632
1.50599e-05
-0.000299265
1.56325e-05
-0.000315488
1.62229e-05
-0.000332322
1.68339e-05
-0.000349793
1.74713e-05
-0.000367936
1.81427e-05
-0.000386791
1.88551e-05
-0.000406404
1.96131e-05
-0.000426822
2.04182e-05
-0.000448093
2.12712e-05
-0.00047027
2.21764e-05
-0.000493415
2.31454e-05
-0.000517612
2.41973e-05
-0.000542965
2.53524e-05
-0.000569586
2.66215e-05
-0.000597579
2.79928e-05
-0.000627004
2.94253e-05
-0.000657857
3.08531e-05
-0.000690056
3.21991e-05
-0.000723454
3.33979e-05
-0.000757867
3.44126e-05
-0.000793107
3.52399e-05
-0.00082901
3.59029e-05
-0.000865446
3.64363e-05
-0.00090232
3.68745e-05
-0.000939566
3.72456e-05
-0.000977135
3.75688e-05
-0.00101499
3.78545e-05
-0.00105309
3.81047e-05
-0.00109141
3.83157e-05
-0.00112989
3.84816e-05
-0.00116849
3.85978e-05
-0.00120715
3.86635e-05
-0.00124583
3.86819e-05
-0.00128449
3.8659e-05
-0.0013231
3.86017e-05
-0.00136161
3.8516e-05
-0.00140002
3.8406e-05
-0.00143829
3.82739e-05
-0.00147641
3.81206e-05
-0.00151436
3.79461e-05
-0.00155211
3.77509e-05
-0.00158965
3.75366e-05
-0.00162695
3.73058e-05
-0.00166401
3.70623e-05
-0.00170082
3.68105e-05
-0.00173738
3.65551e-05
-0.00177368
3.63001e-05
-0.00180973
3.60491e-05
-0.00184553
3.58046e-05
-0.0018811
3.55683e-05
-0.00191644
3.53405e-05
-0.00195156
3.51213e-05
-0.00198647
3.49099e-05
-0.00202118
3.47051e-05
-0.00205568
3.45047e-05
-0.00208999
3.43059e-05
-0.00212409
3.41049e-05
-0.00215799
3.38983e-05
-0.00219167
3.36827e-05
-0.00222513
3.34554e-05
-0.00225834
3.32139e-05
-0.0022913
3.29575e-05
-0.00232399
3.26881e-05
-0.0023564
3.24114e-05
-0.00238854
3.21354e-05
-0.0024204
3.18679e-05
-0.00245202
3.16134e-05
-0.00248339
3.13719e-05
-0.00251453
3.11395e-05
-0.00254544
3.09097e-05
-0.00257611
3.06757e-05
-0.00260655
3.04314e-05
-0.00263672
3.01723e-05
-0.00266661
2.98953e-05
-0.00269621
2.95985e-05
-0.00272549
2.92808e-05
-0.00275443
2.89418e-05
-0.00278302
2.85812e-05
-0.00281122
2.81992e-05
-0.00283901
2.77963e-05
-0.00286638
2.73733e-05
-0.00289332
2.69304e-05
-0.00291978
2.64687e-05
-0.00294577
2.5989e-05
-0.00297127
2.54924e-05
-0.00299625
2.49801e-05
-0.0030207
2.4453e-05
-0.00304461
2.39123e-05
-0.00306797
2.33591e-05
-0.00309076
2.27943e-05
-0.00311298
2.22192e-05
-0.00313462
2.16349e-05
-0.00315566
2.1042e-05
-0.0031761
2.04412e-05
-0.00319593
1.98316e-05
-0.00321514
1.92115e-05
-0.00323372
1.85774e-05
-0.00325165
1.7924e-05
-0.00326889
1.72454e-05
-0.00328543
1.65356e-05
-0.00330122
1.57902e-05
-0.00331622
1.50073e-05
-0.00333041
1.41893e-05
-0.00334376
1.33431e-05
-0.00335624
1.24794e-05
-0.00336785
1.16116e-05
-0.0033786
1.07539e-05
-0.00338852
9.91904e-06
-0.00339764
9.11632e-06
-0.00340599
8.35069e-06
-0.00341361
7.62236e-06
-0.00342054
6.92776e-06
-0.0034268
6.26201e-06
-0.00343242
5.62273e-06
-0.00343744
5.0149e-06
-0.00344189
4.45187e-06
-0.00344584
3.95429e-06
-0.0034494
3.55778e-06
-0.00345269
3.28889e-06
-0.00345585
3.15671e-06
-0.00345902
3.17735e-06
-0.00346238
3.35096e-06
-0.00346601
3.63118e-06
-0.00346997
3.96606e-06
-0.00347427
4.29816e-06
-0.00347884
4.57348e-06
-0.00348358
4.73361e-06
-0.00348826
4.68234e-06
-0.00349262
4.36039e-06
-0.00349633
3.71266e-06
-0.00349899
2.65289e-06
-0.0035
1.0144e-06
-0.00349879
-1.20581e-06
-0.00349502
-3.77821e-06
-0.0034885
-6.52123e-06
-0.00347929
-9.20302e-06
-0.00346759
-1.16986e-05
-0.00345364
-1.39535e-05
-0.00343768
-1.59638e-05
-0.00341992
-1.77563e-05
-0.00340055
-1.93736e-05
-0.00337969
-2.08609e-05
-0.00335743
-2.22604e-05
-0.00333382
-2.36072e-05
-0.00330889
-2.49274e-05
-0.00328265
-2.62381e-05
-0.0032551
-2.75492e-05
-0.00322624
-2.88636e-05
-0.00319606
-3.01795e-05
-0.00316457
-3.14904e-05
-0.00313178
-3.27869e-05
-0.00309773
-3.40568e-05
-0.00306244
-3.5287e-05
-0.00302598
-3.64637e-05
-0.0029884
-3.75743e-05
-0.00294979
-3.86084e-05
-0.00291023
-3.95582e-05
-0.00286981
-4.04195e-05
-0.00282862
-4.11911e-05
-0.00278675
-4.18751e-05
-0.00274427
-4.2476e-05
-0.00270127
-4.30002e-05
-0.00265782
-4.34553e-05
-0.00261397
-4.38499e-05
-0.00256977
-4.41931e-05
-0.00252528
-4.4494e-05
-0.00248052
-4.47618e-05
-0.00243551
-4.50054e-05
-0.00239028
-4.52324e-05
-0.00234483
-4.54493e-05
-0.00229917
-4.56605e-05
-0.0022533
-4.58677e-05
-0.00220723
-4.60704e-05
-0.00216097
-4.62658e-05
-0.00211452
-4.64494e-05
-0.0020679
-4.66158e-05
-0.00202114
-4.67594e-05
-0.00197427
-4.68753e-05
-0.00192731
-4.69594e-05
-0.0018803
-4.70089e-05
-0.00183328
-4.70222e-05
-0.00178628
-4.69986e-05
-0.00173934
-4.69382e-05
-0.0016925
-4.68416e-05
-0.00164579
-4.67096e-05
-0.00159925
-4.6543e-05
-0.0015529
-4.63429e-05
-0.00150679
-4.611e-05
-0.00146095
-4.58452e-05
-0.0014154
-4.55495e-05
-0.00137017
-4.52237e-05
-0.00132531
-4.4869e-05
-0.00128082
-4.44866e-05
-0.00123674
-4.40778e-05
-0.0011931
-4.3644e-05
-0.00114991
-4.31866e-05
-0.0011072
-4.27071e-05
-0.001065
-4.22067e-05
-0.00102331
-4.16869e-05
-0.000982161
-4.11487e-05
-0.000941567
-4.05935e-05
-0.000901545
-4.00221e-05
-0.00086211
-3.94356e-05
-0.000823275
-3.88348e-05
-0.000785055
-3.82201e-05
-0.000747463
-3.7592e-05
-0.000710512
-3.69508e-05
-0.000674216
-3.62961e-05
-0.000638588
-3.56278e-05
-0.000603643
-3.4945e-05
-0.000569397
-3.42464e-05
-0.000535867
-3.35299e-05
-0.000503074
-3.27927e-05
-0.000471043
-3.2031e-05
-0.000439803
-3.12401e-05
-0.00040939
-3.04135e-05
-0.000379847
-2.95425e-05
-0.000351233
-2.86143e-05
-0.000323621
-2.7612e-05
-0.000297104
-2.65164e-05
-0.000271793
-2.53115e-05
-0.000247805
-2.39882e-05
-0.000225243
-2.25613e-05
-0.000204175
-2.10683e-05
-0.000184615
-1.95596e-05
-0.000166535
-1.80806e-05
-0.000149884
-1.66508e-05
-0.000134618
-1.52664e-05
-0.000120716
-1.39017e-05
-0.000108192
-1.25236e-05
-9.70905e-05
-1.11019e-05
-8.74733e-05
-9.61715e-06
-7.94181e-05
-8.05524e-06
-7.30031e-05
-6.41496e-06
-6.83089e-05
-4.69424e-06
-6.54064e-05
-2.90248e-06
-6.43593e-05
-1.04709e-06
-6.52162e-05
8.5689e-07
-6.7885e-05
2.6688e-06
-7.23092e-05
4.42414e-06
-7.83616e-05
6.05245e-06
-8.58606e-05
7.49901e-06
-9.4637e-05
8.77635e-06
-0.000104598
9.96139e-06
-0.000115765
1.11671e-05
-0.000128221
1.24554e-05
-0.000142039
1.3818e-05
-0.000157061
1.50217e-05
-0.000172071
1.50106e-05
-0.000184446
1.23752e-05
-0.000191146
6.69973e-06
-0.000190535
-6.10594e-07
-0.000183437
-7.0984e-06
-0.000171059
-1.23783e-05
-0.000155
-1.6059e-05
-0.000136746
-1.82536e-05
-0.000117475
-1.92715e-05
-9.80327e-05
-1.9442e-05
-7.90128e-05
-1.90199e-05
-6.07943e-05
-1.82186e-05
-4.35778e-05
-1.72164e-05
-2.74631e-05
-1.61147e-05
-1.24618e-05
-1.50013e-05
1.48072e-06
-1.39426e-05
1.44366e-05
-1.29559e-05
2.64994e-05
-1.20628e-05
3.77739e-05
-1.12746e-05
4.83618e-05
-1.05878e-05
5.83588e-05
-9.99704e-06
6.78228e-05
-9.46397e-06
7.68049e-05
-8.98217e-06
8.53502e-05
-8.54525e-06
9.34582e-05
-8.10803e-06
0.000101116
-7.6575e-06
0.000108302
-7.18634e-06
0.000114982
-6.67945e-06
0.000121124
-6.1425e-06
0.000126716
-5.59246e-06
0.000131747
-5.0305e-06
0.000136221
-4.47405e-06
0.000140153
-3.93241e-06
0.000143566
-3.41272e-06
0.000146477
-2.91041e-06
0.000148889
-2.41291e-06
0.000150823
-1.93367e-06
0.000152269
-1.44559e-06
0.000153228
-9.59257e-07
0.000153705
-4.76624e-07
0.000153697
8.0517e-09
0.000153185
5.11472e-07
0.000152177
1.00824e-06
0.00015067
1.50705e-06
0.000148663
2.00637e-06
0.000146159
2.50448e-06
0.00014316
2.99933e-06
0.000139673
3.48666e-06
0.000135705
3.96823e-06
0.000131266
4.43899e-06
0.00012637
4.8959e-06
0.000121037
5.33334e-06
0.00011529
5.74698e-06
0.000109162
6.12794e-06
0.000102695
6.46688e-06
9.594e-05
6.75473e-06
8.89589e-05
6.98104e-06
8.1817e-05
7.14189e-06
7.45758e-05
7.24122e-06
6.73053e-05
7.27048e-06
6.00729e-05
7.23247e-06
5.29421e-05
7.1308e-06
4.59802e-05
6.96189e-06
3.92702e-05
6.70997e-06
3.2918e-05
6.35224e-06
2.70503e-05
5.86764e-06
2.17964e-05
5.25396e-06
1.72279e-05
4.56851e-06
1.379e-05
3.43786e-06
1.11175e-05
2.67246e-06
1.11175e-05
-3.05904e-05
4.02797e-05
-6.10317e-05
3.40466e-05
-9.34903e-05
3.71403e-05
-0.000125755
3.79175e-05
-0.000157686
3.79065e-05
-0.00018958
3.80469e-05
-0.000221535
3.82141e-05
-0.000253529
3.83684e-05
-0.00028551
3.85135e-05
-0.000317426
3.86535e-05
-0.000349234
3.87873e-05
-0.000380898
3.89113e-05
-0.000412385
3.90209e-05
-0.00044366
3.91112e-05
-0.000474688
3.91794e-05
-0.000505433
3.92253e-05
-0.000535861
3.9251e-05
-0.000565943
3.92601e-05
-0.000595655
3.92583e-05
-0.00062498
3.92529e-05
-0.00065391
3.92531e-05
-0.000682448
3.9269e-05
-0.000710607
3.93117e-05
-0.000738414
3.93925e-05
-0.000765905
3.95216e-05
-0.000793123
3.97069e-05
-0.000820114
3.99542e-05
-0.000846924
4.0267e-05
-0.0008736
4.06469e-05
-0.000900188
4.10935e-05
-0.000926732
4.16037e-05
-0.000953271
4.21716e-05
-0.000979838
4.27897e-05
-0.00100645
4.34507e-05
-0.00103314
4.41519e-05
-0.00105989
4.48971e-05
-0.00108673
4.5698e-05
-0.00111369
4.65718e-05
-0.00114081
4.75378e-05
-0.00116815
4.86137e-05
-0.00119579
4.98148e-05
-0.0012238
5.11523e-05
-0.00125223
5.26324e-05
-0.00128113
5.42527e-05
-0.00131051
5.59962e-05
-0.00134034
5.78265e-05
-0.00137061
5.96879e-05
-0.00140126
6.15121e-05
-0.00143228
6.32189e-05
-0.00146363
6.47484e-05
-0.00149529
6.60701e-05
-0.00152723
6.71815e-05
-0.00155943
6.81026e-05
-0.00159186
6.88657e-05
-0.00162449
6.9506e-05
-0.0016573
7.00543e-05
-0.00169027
7.05331e-05
-0.00172337
7.09555e-05
-0.00175659
7.13262e-05
-0.00178992
7.16449e-05
-0.00182335
7.19094e-05
-0.00185687
7.21188e-05
-0.00189048
7.22751e-05
-0.00192418
7.23836e-05
-0.00195797
7.24517e-05
-0.00199186
7.24873e-05
-0.00202584
7.24972e-05
-0.00205992
7.24864e-05
-0.0020941
7.24574e-05
-0.00212839
7.24109e-05
-0.0021628
7.23466e-05
-0.00219731
7.22638e-05
-0.00223193
7.21624e-05
-0.00226667
7.20428e-05
-0.00230151
7.19063e-05
-0.00233646
7.17547e-05
-0.00237149
7.15896e-05
-0.00240661
7.14128e-05
-0.00244178
7.1225e-05
-0.002477
7.10264e-05
-0.00251225
7.08156e-05
-0.0025475
7.05901e-05
-0.00258273
7.03464e-05
-0.0026179
7.00798e-05
-0.00265298
6.9785e-05
-0.00268793
6.94567e-05
-0.00272271
6.909e-05
-0.00275729
6.86824e-05
-0.00279162
6.82339e-05
-0.00282569
6.7748e-05
-0.00285947
6.72303e-05
-0.00289294
6.66875e-05
-0.00292611
6.61262e-05
-0.00295897
6.55526e-05
-0.00299153
6.49723e-05
-0.00302379
6.43893e-05
-0.00305572
6.38051e-05
-0.00308733
6.32184e-05
-0.00311858
6.2625e-05
-0.00314946
6.20187e-05
-0.00317994
6.13928e-05
-0.00321001
6.07408e-05
-0.00323964
6.00577e-05
-0.0032688
5.93394e-05
-0.00329749
5.85832e-05
-0.00332568
5.77875e-05
-0.00335335
5.6951e-05
-0.00338048
5.60732e-05
-0.00340705
5.51539e-05
-0.00343305
5.41932e-05
-0.00345844
5.31913e-05
-0.00348322
5.21488e-05
-0.00350735
5.10663e-05
-0.00353083
4.99443e-05
-0.00355362
4.87836e-05
-0.00357572
4.75847e-05
-0.00359708
4.6348e-05
-0.00361771
4.50738e-05
-0.00363756
4.37621e-05
-0.00365661
4.2413e-05
-0.00367484
4.10263e-05
-0.00369222
3.96022e-05
-0.00370873
3.81413e-05
-0.00372433
3.66442e-05
-0.003739
3.51119e-05
-0.00375272
3.35456e-05
-0.00376545
3.19462e-05
-0.00377719
3.0315e-05
-0.00378792
2.86534e-05
-0.00379764
2.69635e-05
-0.00380635
2.52484e-05
-0.00381407
2.35125e-05
-0.00382083
2.17617e-05
-0.00382664
2.00033e-05
-0.00383154
1.82453e-05
-0.00383556
1.64957e-05
-0.00383871
1.47619e-05
-0.00384101
1.30494e-05
-0.00384245
1.1362e-05
-0.00384303
9.70203e-06
-0.00384275
8.07098e-06
-0.0038416
6.47086e-06
-0.00383958
4.90555e-06
-0.0038367
3.38215e-06
-0.00383299
1.91201e-06
-0.00382849
5.13807e-07
-0.00382324
-8.00202e-07
-0.00381721
-2.07279e-06
-0.00381043
-3.22106e-06
-0.00380286
-4.28366e-06
-0.00379441
-5.28701e-06
-0.00378497
-6.27093e-06
-0.00377432
-7.29135e-06
-0.00376229
-8.40759e-06
-0.00374864
-9.68112e-06
-0.00373317
-1.11692e-05
-0.00371568
-1.29173e-05
-0.00369601
-1.49358e-05
-0.00367412
-1.72106e-05
-0.00365004
-1.97154e-05
-0.00362392
-2.24098e-05
-0.00359603
-2.52365e-05
-0.0035669
-2.81171e-05
-0.00353714
-3.09591e-05
-0.00350719
-3.37283e-05
-0.0034773
-3.64196e-05
-0.00344749
-3.90069e-05
-0.00341771
-4.14782e-05
-0.00338783
-4.38381e-05
-0.00335769
-4.61011e-05
-0.00332716
-4.82868e-05
-0.00329612
-5.04151e-05
-0.00326448
-5.2503e-05
-0.00323217
-5.45632e-05
-0.00319918
-5.66034e-05
-0.00316548
-5.86267e-05
-0.00313108
-6.06323e-05
-0.00309602
-6.26161e-05
-0.00306031
-6.4572e-05
-0.003024
-6.64919e-05
-0.00298712
-6.83667e-05
-0.00294972
-7.01865e-05
-0.00291184
-7.19417e-05
-0.0028735
-7.36228e-05
-0.00283474
-7.52223e-05
-0.00279558
-7.67346e-05
-0.00275603
-7.81569e-05
-0.0027161
-7.94898e-05
-0.00267578
-8.07368e-05
-0.00263507
-8.19042e-05
-0.00259395
-8.29999e-05
-0.00255239
-8.40327e-05
-0.00251038
-8.50107e-05
-0.00246789
-8.59409e-05
-0.00242491
-8.6828e-05
-0.00238143
-8.76741e-05
-0.00233745
-8.84793e-05
-0.00229297
-8.92418e-05
-0.00224802
-8.99581e-05
-0.00220262
-9.06244e-05
-0.00215684
-9.12365e-05
-0.00211071
-9.17903e-05
-0.00206429
-9.22822e-05
-0.00201765
-9.27093e-05
-0.00197085
-9.30699e-05
-0.00192394
-9.33627e-05
-0.00187696
-9.3588e-05
-0.00182998
-9.37464e-05
-0.00178301
-9.38397e-05
-0.0017361
-9.38695e-05
-0.00168927
-9.38378e-05
-0.00164255
-9.37461e-05
-0.00159595
-9.35953e-05
-0.0015495
-9.33859e-05
-0.00150323
-9.31178e-05
-0.00145715
-9.27904e-05
-0.00141129
-9.24031e-05
-0.00136568
-9.19553e-05
-0.00132034
-9.14468e-05
-0.00127531
-9.08776e-05
-0.00123061
-9.02486e-05
-0.00118627
-8.95609e-05
-0.00114232
-8.88163e-05
-0.00109879
-8.80169e-05
-0.00105571
-8.71649e-05
-0.00101309
-8.6263e-05
-0.000970959
-8.53136e-05
-0.000929347
-8.43193e-05
-0.000888271
-8.32828e-05
-0.000847751
-8.22065e-05
-0.000807807
-8.1093e-05
-0.000768456
-7.99448e-05
-0.000729713
-7.87644e-05
-0.000691595
-7.7554e-05
-0.000654114
-7.63159e-05
-0.000617282
-7.50521e-05
-0.00058111
-7.37643e-05
-0.000545606
-7.2454e-05
-0.00051078
-7.11226e-05
-0.000476637
-6.97709e-05
-0.000443182
-6.83996e-05
-0.00041042
-6.70086e-05
-0.000378352
-6.55976e-05
-0.000346979
-6.41656e-05
-0.000316299
-6.27111e-05
-0.000286307
-6.1232e-05
-0.000256995
-5.97258e-05
-0.000228348
-5.81893e-05
-0.000200343
-5.66196e-05
-0.00017294
-5.5015e-05
-0.000146081
-5.33755e-05
-0.000119688
-5.17048e-05
-9.36664e-05
-5.00095e-05
-6.79289e-05
-4.82988e-05
-4.24166e-05
-4.65805e-05
-1.7119e-05
-4.48571e-05
7.92273e-06
-4.31224e-05
3.26375e-05
-4.13656e-05
5.69303e-05
-3.95592e-05
8.07174e-05
-3.76888e-05
0.000103925
-3.57307e-05
0.000126493
-3.36706e-05
0.000148371
-3.14953e-05
0.000169502
-2.91855e-05
0.000189832
-2.67457e-05
0.000209308
-2.41698e-05
0.000227862
-2.14566e-05
0.000245442
-1.86274e-05
0.000262005
-1.57058e-05
0.000277424
-1.27498e-05
0.000291659
-9.81086e-06
0.000304679
-6.96807e-06
0.000316477
-4.29899e-06
0.000327161
-1.90735e-06
0.000337068
5.37703e-08
0.000346532
1.70402e-06
0.000356239
2.7482e-06
0.000367066
2.99067e-06
0.000379814
2.27361e-06
0.000394397
4.27777e-07
0.00041005
-3.27733e-06
0.000424902
-8.15253e-06
0.000437744
-1.34527e-05
0.000449123
-1.84774e-05
0.000459576
-2.28318e-05
0.000469838
-2.63205e-05
0.000480554
-2.89702e-05
0.000492219
-3.09358e-05
0.000505102
-3.2325e-05
0.000519216
-3.31341e-05
0.000534304
-3.33065e-05
0.000549933
-3.28453e-05
0.00056556
-3.1742e-05
0.000580627
-3.00687e-05
0.000594698
-2.80135e-05
0.00060751
-2.57672e-05
0.000618932
-2.34855e-05
0.000628896
-2.12378e-05
0.00063741
-1.91019e-05
0.000644536
-1.71235e-05
0.000650393
-1.53213e-05
0.000655115
-1.37036e-05
0.000658846
-1.22769e-05
0.00066175
-1.10114e-05
0.000663956
-9.86412e-06
0.000665549
-8.77902e-06
0.000666574
-7.70407e-06
0.000667025
-6.59354e-06
0.000666862
-5.42942e-06
0.000666039
-4.208e-06
0.000664509
-2.94336e-06
0.00066223
-1.65391e-06
0.000659177
-3.60067e-07
0.000655401
8.65586e-07
0.000650929
2.05972e-06
0.000645785
3.20971e-06
0.000640016
4.32415e-06
0.000633642
5.41483e-06
0.000626676
6.48864e-06
0.000619124
7.55993e-06
0.000610992
8.64363e-06
0.000602263
9.73778e-06
0.000592921
1.0849e-05
0.000582943
1.19845e-05
0.000572295
1.31523e-05
0.000560945
1.43491e-05
0.000548853
1.55784e-05
0.000535967
1.68542e-05
0.00052223
1.81764e-05
0.000507577
1.95486e-05
0.00049194
2.09709e-05
0.000475233
2.24533e-05
0.000457382
2.39795e-05
0.000438309
2.55399e-05
0.000417956
2.71073e-05
0.000396279
2.86585e-05
0.000373262
3.0159e-05
0.000348936
3.15667e-05
0.00032336
3.2847e-05
0.000296639
3.39531e-05
0.000268919
3.48506e-05
0.000240362
3.55194e-05
0.000211135
3.59362e-05
0.000181398
3.60896e-05
0.000151264
3.6002e-05
0.000120739
3.57783e-05
8.9703e-05
3.56049e-05
5.83077e-05
3.48332e-05
2.89e-05
3.20801e-05
4.00175e-05
-3.73919e-05
7.76716e-05
-7.31592e-05
6.98139e-05
-0.000111445
7.54262e-05
-0.000150159
7.6631e-05
-0.000188633
7.63811e-05
-0.000226851
7.62646e-05
-0.000264792
7.61556e-05
-0.000302381
7.59566e-05
-0.000339542
7.56746e-05
-0.00037621
7.53222e-05
-0.000412326
7.49027e-05
-0.000447832
7.44178e-05
-0.000482681
7.38693e-05
-0.00051683
7.32604e-05
-0.000550247
7.25964e-05
-0.000582908
7.18864e-05
-0.0006148
7.11431e-05
-0.000645923
7.03826e-05
-0.000676288
6.96237e-05
-0.000705923
6.88874e-05
-0.000734866
6.81966e-05
-0.000763173
6.75754e-05
-0.000790907
6.70461e-05
-0.000818141
6.66264e-05
-0.000844946
6.63268e-05
-0.00087139
6.61506e-05
-0.000897531
6.60953e-05
-0.00092342
6.61558e-05
-0.000949099
6.63262e-05
-0.000974607
6.66019e-05
-0.000999982
6.69784e-05
-0.00102526
6.74499e-05
-0.00105048
6.80082e-05
-0.00107567
6.86432e-05
-0.00110086
6.93451e-05
-0.00112608
7.01077e-05
-0.00115131
7.09318e-05
-0.00117656
7.18257e-05
-0.00120183
7.28044e-05
-0.0012271
7.38858e-05
-0.00125237
7.50873e-05
-0.00127764
7.64214e-05
-0.0013029
7.78911e-05
-0.00132814
7.94865e-05
-0.00135332
8.11818e-05
-0.00137843
8.29356e-05
-0.00140344
8.46955e-05
-0.00142833
8.6406e-05
-0.00145313
8.80176e-05
-0.00147788
8.94979e-05
-0.00150264
9.08328e-05
-0.00152749
9.20258e-05
-0.00155248
9.30936e-05
-0.00157767
9.40594e-05
-0.00160311
9.49463e-05
-0.00162883
9.57721e-05
-0.00165484
9.65472e-05
-0.00168116
9.72747e-05
-0.00170779
9.79531e-05
-0.00173472
9.85795e-05
-0.00176197
9.91524e-05
-0.00178952
9.96733e-05
-0.00181739
0.000100147
-0.00184559
0.000100579
-0.00187412
0.000100978
-0.00190298
0.00010135
-0.00193218
0.000101698
-0.00196172
0.000102024
-0.00199159
0.000102327
-0.00202178
0.000102606
-0.00205229
0.000102857
-0.00208311
0.000103078
-0.00211421
0.000103266
-0.00214559
0.000103419
-0.00217722
0.000103537
-0.00220908
0.00010362
-0.00224116
0.000103668
-0.00227343
0.00010368
-0.00230586
0.000103656
-0.00233843
0.000103594
-0.0023711
0.000103493
-0.00240386
0.000103349
-0.00243668
0.000103161
-0.00246952
0.000102925
-0.00250238
0.000102638
-0.00253522
0.000102296
-0.00256802
0.000101899
-0.00260079
0.000101445
-0.00263349
0.000100937
-0.00266612
0.000100378
-0.00269866
9.97742e-05
-0.00273111
9.91308e-05
-0.00276343
9.84519e-05
-0.00279562
9.77406e-05
-0.00282765
9.69983e-05
-0.00285948
9.62249e-05
-0.0028911
9.54183e-05
-0.00292245
9.45755e-05
-0.00295352
9.36919e-05
-0.00298426
9.27632e-05
-0.00301466
9.17852e-05
-0.00304467
9.07546e-05
-0.00307428
8.96688e-05
-0.00310347
8.8526e-05
-0.00313221
8.73249e-05
-0.00316049
8.60649e-05
-0.00318828
8.47454e-05
-0.00321558
8.33664e-05
-0.00324235
8.19278e-05
-0.00326859
8.04299e-05
-0.00329427
7.88731e-05
-0.00331938
7.72579e-05
-0.0033439
7.55847e-05
-0.00336781
7.38542e-05
-0.00339109
7.20667e-05
-0.00341373
7.02228e-05
-0.0034357
6.83232e-05
-0.003457
6.63685e-05
-0.00347759
6.43597e-05
-0.00349748
6.22982e-05
-0.00351664
6.01858e-05
-0.00353506
5.80251e-05
-0.00355274
5.58192e-05
-0.00356967
5.35717e-05
-0.00358584
5.12864e-05
-0.00360126
4.89669e-05
-0.00361593
4.66161e-05
-0.00362985
4.42366e-05
-0.00364303
4.18299e-05
-0.00365546
3.93975e-05
-0.00366716
3.69405e-05
-0.0036781
3.44604e-05
-0.0036883
3.19594e-05
-0.00369774
2.94402e-05
-0.0037064
2.69061e-05
-0.00371427
2.4361e-05
-0.00372131
2.18088e-05
-0.00372752
1.92526e-05
-0.00373285
1.66955e-05
-0.00373729
1.41395e-05
-0.0037408
1.15868e-05
-0.00374337
9.04009e-06
-0.00374497
6.50312e-06
-0.00374557
3.98155e-06
-0.00374514
1.48307e-06
-0.00374366
-9.63762e-07
-0.00374108
-3.37904e-06
-0.00373742
-5.74024e-06
-0.00373257
-8.06672e-06
-0.0037265
-1.03575e-05
-0.00371915
-1.26359e-05
-0.00371049
-1.49324e-05
-0.0037005
-1.7281e-05
-0.00368918
-1.97194e-05
-0.00367659
-2.22792e-05
-0.00366277
-2.49832e-05
-0.00364784
-2.78465e-05
-0.0036319
-3.08795e-05
-0.00361503
-3.40806e-05
-0.00359731
-3.74321e-05
-0.00357882
-4.09008e-05
-0.00355962
-4.44356e-05
-0.00353978
-4.79646e-05
-0.00351931
-5.1423e-05
-0.00349824
-5.48005e-05
-0.00347654
-5.81195e-05
-0.00345415
-6.13934e-05
-0.003431
-6.46263e-05
-0.00340702
-6.78199e-05
-0.00338215
-7.09749e-05
-0.00335634
-7.40921e-05
-0.00332959
-7.71719e-05
-0.00330188
-8.02144e-05
-0.00327322
-8.32186e-05
-0.00324364
-8.61831e-05
-0.00321316
-8.91055e-05
-0.00318181
-9.19825e-05
-0.00314962
-9.48099e-05
-0.00311661
-9.75826e-05
-0.0030828
-0.000100295
-0.00304823
-0.00010294
-0.00301291
-0.000105511
-0.00297685
-0.000108001
-0.00294007
-0.000110403
-0.00290258
-0.000112712
-0.00286439
-0.000114922
-0.00282551
-0.000117033
-0.00278596
-0.000119042
-0.00274574
-0.000120954
-0.00270488
-0.000122771
-0.00266338
-0.0001245
-0.00262126
-0.000126147
-0.00257856
-0.000127716
-0.00253528
-0.000129214
-0.00249147
-0.000130641
-0.00244715
-0.000131999
-0.00240234
-0.000133286
-0.00235708
-0.000134497
-0.00231142
-0.000135628
-0.00226537
-0.000136673
-0.00221898
-0.000137626
-0.00217229
-0.000138481
-0.00212533
-0.000139235
-0.00207816
-0.000139883
-0.00203081
-0.000140424
-0.00198331
-0.000140858
-0.00193571
-0.000141185
-0.00188805
-0.000141408
-0.00184036
-0.000141529
-0.00179268
-0.000141551
-0.00174504
-0.000141478
-0.00169748
-0.000141312
-0.00165002
-0.000141055
-0.0016027
-0.000140706
-0.00155555
-0.000140267
-0.0015086
-0.000139738
-0.00146189
-0.000139117
-0.00141543
-0.000138406
-0.00136928
-0.000137603
-0.00132344
-0.000136711
-0.00127796
-0.000135731
-0.00123286
-0.000134664
-0.00118816
-0.000133513
-0.0011439
-0.000132281
-0.00110009
-0.000130972
-0.00105677
-0.000129589
-0.00101394
-0.000128136
-0.000971647
-0.000126616
-0.000929896
-0.000125034
-0.00088871
-0.000123392
-0.000848108
-0.000121696
-0.000808105
-0.000119948
-0.000768717
-0.000118152
-0.000729959
-0.000116312
-0.000691843
-0.000114432
-0.000654381
-0.000112514
-0.000617585
-0.000110561
-0.000581462
-0.000108576
-0.000546022
-0.000106563
-0.00051127
-0.000104523
-0.000477213
-0.000102457
-0.000443852
-0.000100369
-0.000411191
-9.82591e-05
-0.000379228
-9.61282e-05
-0.000347962
-9.39775e-05
-0.000317386
-9.18073e-05
-0.000287494
-8.96183e-05
-0.000258272
-8.74109e-05
-0.000229705
-8.51866e-05
-0.000201771
-8.29489e-05
-0.000174442
-8.07044e-05
-0.000147683
-7.8464e-05
-0.000121452
-7.62404e-05
-9.57065e-05
-7.40447e-05
-7.04064e-05
-7.18806e-05
-4.55228e-05
-6.97408e-05
-2.10374e-05
-6.76078e-05
3.05697e-06
-6.54599e-05
2.67815e-05
-6.32837e-05
5.0152e-05
-6.10593e-05
7.32034e-05
-5.87821e-05
9.59847e-05
-5.64518e-05
0.000118554
-5.40645e-05
0.000140991
-5.1623e-05
0.000163348
-4.91021e-05
0.000185687
-4.65092e-05
0.000208071
-4.38401e-05
0.000230542
-4.10984e-05
0.000253132
-3.82958e-05
0.000275841
-3.5459e-05
0.000298645
-3.26151e-05
0.000321491
-2.98142e-05
0.000344277
-2.70852e-05
0.00036688
-2.45103e-05
0.000389081
-2.21466e-05
0.000410829
-2.0044e-05
0.00043187
-1.82928e-05
0.000451866
-1.70057e-05
0.000470737
-1.65972e-05
0.000488464
-1.72989e-05
0.000504426
-1.92399e-05
0.000518175
-2.19011e-05
0.000529417
-2.46952e-05
0.000538264
-2.73236e-05
0.000545086
-2.96539e-05
0.000550398
-3.16327e-05
0.000554708
-3.32799e-05
0.000558424
-3.46523e-05
0.000561826
-3.57266e-05
0.000565091
-3.63989e-05
0.00056833
-3.65462e-05
0.00057158
-3.60949e-05
0.000574893
-3.50547e-05
0.000578341
-3.35172e-05
0.000581947
-3.16196e-05
0.000585679
-2.9499e-05
0.000589442
-2.72486e-05
0.000593124
-2.49195e-05
0.000596581
-2.25585e-05
0.000599666
-2.02091e-05
0.00060226
-1.79146e-05
0.000604294
-1.57379e-05
0.000605739
-1.37224e-05
0.000606609
-1.18814e-05
0.000606941
-1.01961e-05
0.000606772
-8.60923e-06
0.000606138
-7.07012e-06
0.000605056
-5.51183e-06
0.00060352
-3.89309e-06
0.000601521
-2.20935e-06
0.000599056
-4.78051e-07
0.000596051
1.35073e-06
0.000592518
3.17248e-06
0.000588431
4.95262e-06
0.000583815
6.67569e-06
0.000578689
8.33651e-06
0.000573086
9.92714e-06
0.000567037
1.14638e-05
0.000560565
1.29602e-05
0.000553697
1.44279e-05
0.000546447
1.5894e-05
0.000538826
1.73587e-05
0.000530836
1.88387e-05
0.000522475
2.03454e-05
0.000513739
2.18887e-05
0.00050461
2.34779e-05
0.000495064
2.51246e-05
0.000485065
2.68523e-05
0.000474568
2.8674e-05
0.000463512
3.06042e-05
0.000451821
3.26622e-05
0.00043941
3.48644e-05
0.000426162
3.72274e-05
0.00041196
3.97418e-05
0.000396659
4.24088e-05
0.000380115
4.52022e-05
0.000362185
4.80892e-05
0.000342735
5.10163e-05
0.000321663
5.39192e-05
0.000298886
5.673e-05
0.000274363
5.93739e-05
0.000248118
6.17638e-05
0.00022022
6.3835e-05
0.000190798
6.5511e-05
0.000160042
6.67586e-05
0.000128207
6.7613e-05
9.58419e-05
6.79699e-05
6.40768e-05
6.65982e-05
3.41038e-05
6.20532e-05
7.41213e-05
-3.48037e-05
0.000112475
-6.5617e-05
0.000100627
-9.95865e-05
0.000109396
-0.000134855
0.000111899
-0.000169819
0.000111345
-0.000204245
0.000110691
-0.000238203
0.000110113
-0.000271654
0.000109408
-0.000304527
0.000108547
-0.00033676
0.000107555
-0.000368308
0.000106451
-0.000399136
0.000105246
-0.000429219
0.000103953
-0.000458545
0.000102587
-0.000487117
0.000101169
-0.000514952
9.97208e-05
-0.000542078
9.82691e-05
-0.000568537
9.68423e-05
-0.000594383
9.54694e-05
-0.000619675
9.41792e-05
-0.00064448
9.30016e-05
-0.000668869
9.19647e-05
-0.000692915
9.10916e-05
-0.000716686
9.03978e-05
-0.000740249
8.98897e-05
-0.000763663
8.95644e-05
-0.000786979
8.94118e-05
-0.000810242
8.94183e-05
-0.000833486
8.95703e-05
-0.00085674
8.98562e-05
-0.000880029
9.02674e-05
-0.000903376
9.0797e-05
-0.000926807
9.14384e-05
-0.000950348
9.21847e-05
-0.000974031
9.30281e-05
-0.000997885
9.39612e-05
-0.00102193
9.49779e-05
-0.00104618
9.6075e-05
-0.00107063
9.7252e-05
-0.00109525
9.85116e-05
-0.00112002
9.98569e-05
-0.00114489
0.00010129
-0.00116981
0.000102808
-0.00119472
0.000104402
-0.0012196
0.000106055
-0.0012444
0.000107743
-0.00126915
0.000109437
-0.00129385
0.000111109
-0.00131857
0.000112733
-0.00134336
0.000114292
-0.0013683
0.000115776
-0.00139346
0.000117183
-0.00141889
0.00011852
-0.00144462
0.000119794
-0.00147069
0.000121012
-0.0014971
0.00012218
-0.00152385
0.000123301
-0.00155095
0.000124374
-0.00157839
0.000125397
-0.00160618
0.000126368
-0.00163432
0.000127288
-0.0016628
0.000128159
-0.00169164
0.000128984
-0.00172083
0.000129767
-0.00175036
0.000130512
-0.00178023
0.000131221
-0.00181043
0.000131896
-0.00184094
0.000132537
-0.00187176
0.00013314
-0.00190285
0.000133704
-0.00193422
0.000134225
-0.00196584
0.0001347
-0.00199771
0.000135126
-0.00202979
0.0001355
-0.00206207
0.000135822
-0.00209454
0.00013609
-0.00212718
0.000136303
-0.00215996
0.000136461
-0.00219286
0.000136562
-0.00222587
0.000136604
-0.00225897
0.000136586
-0.00229212
0.000136507
-0.00232533
0.000136363
-0.00235856
0.000136154
-0.0023918
0.000135879
-0.00242504
0.000135537
-0.00245827
0.000135128
-0.00249148
0.000134654
-0.00252466
0.000134117
-0.0025578
0.000133518
-0.00259088
0.000132858
-0.00262389
0.00013214
-0.0026568
0.000131362
-0.00268958
0.000130525
-0.00272221
0.000129628
-0.00275466
0.00012867
-0.00278689
0.000127648
-0.00281887
0.000126562
-0.00285059
0.000125408
-0.00288201
0.000124184
-0.00291311
0.000122889
-0.00294388
0.000121521
-0.00297429
0.000120078
-0.00300432
0.00011856
-0.00303397
0.000116966
-0.0030632
0.000115296
-0.003092
0.00011355
-0.00312036
0.000111727
-0.00314826
0.000109828
-0.00317569
0.000107854
-0.00320262
0.000105804
-0.00322904
0.000103679
-0.00325493
0.00010148
-0.00328029
9.92076e-05
-0.00330508
9.68625e-05
-0.00332931
9.44457e-05
-0.00335294
9.19581e-05
-0.00337597
8.94011e-05
-0.00339839
8.67761e-05
-0.00342018
8.40851e-05
-0.00344132
8.13305e-05
-0.00346181
7.85155e-05
-0.00348164
7.56433e-05
-0.00350078
7.27176e-05
-0.00351924
6.9742e-05
-0.00353699
6.67199e-05
-0.00355403
6.36541e-05
-0.00357034
6.05464e-05
-0.00358591
5.73981e-05
-0.00360072
5.42097e-05
-0.00361476
5.09816e-05
-0.00362801
4.7714e-05
-0.00364046
4.44076e-05
-0.00365208
4.10637e-05
-0.00366286
3.76844e-05
-0.00367277
3.42725e-05
-0.0036818
3.08318e-05
-0.00368991
2.73659e-05
-0.00369709
2.38792e-05
-0.00370333
2.0376e-05
-0.0037086
1.68606e-05
-0.0037129
1.33378e-05
-0.00371621
9.81237e-06
-0.00371852