/*--------------------------------*- C++ -*----------------------------------*\
| =========                 |                                                 |
| \\      /  F ield         | OpenFOAM: The Open Source CFD Toolbox           |
|  \\    /   O peration     | Version:  v2006                                 |
|   \\  /    A nd           | Website:  www.openfoam.com                      |
|    \\/     M anipulation  |                                                 |
\*---------------------------------------------------------------------------*/
FoamFile
{
    version     2.0;
    format      ascii;
    class       volScalarField;
    location    "18";
    object      p;
}
// * * * * * * * * * * * * * * * * * * * * * * * * * * * * * * * * * * * * * //

dimensions      [1 -1 -2 0 0 0 0];


internalField   nonuniform List<scalar> 
52500
(
31802.8
31802.8
31802.6
31802.5
31802.3
31802
31801.7
31801.3
31800.8
31800.4
31799.8
31799.2
31798.6
31797.8
31797.1
31796.3
31795.4
31794.5
31793.5
31792.5
31791.4
31790.3
31789.1
31787.9
31786.6
31785.3
31783.9
31782.5
31781
31779.5
31777.9
31776.2
31774.5
31772.8
31771
31769.1
31767.2
31765.3
31763.3
31761.2
31759.1
31756.9
31754.6
31752.4
31750
31747.6
31745.1
31742.6
31740.1
31737.4
31734.7
31732
31729.1
31726.2
31723.3
31720.2
31717.1
31714
31710.7
31707.4
31704
31700.5
31696.9
31693.3
31689.6
31685.7
31681.9
31677.9
31673.8
31669.6
31665.4
31661
31656.6
31652.1
31647.4
31642.7
31637.9
31632.9
31627.9
31622.7
31617.5
31612.1
31606.6
31601
31595.3
31589.5
31583.5
31577.5
31571.3
31565
31558.6
31552
31545.3
31538.5
31531.6
31524.5
31517.3
31509.9
31502.5
31494.8
31487.1
31479.2
31471.2
31463
31454.7
31446.3
31437.7
31428.9
31420.1
31411
31401.9
31392.6
31383.1
31373.5
31363.8
31353.9
31343.9
31333.7
31323.4
31313
31302.4
31291.6
31280.7
31269.7
31258.6
31247.3
31235.9
31224.3
31212.6
31200.8
31188.8
31176.7
31164.5
31152.2
31139.7
31127.1
31114.4
31101.6
31088.6
31075.6
31062.4
31049.1
31035.7
31022.2
31008.7
30995
30981.2
30967.3
30953.3
30939.3
30925.1
30910.9
30896.6
30882.3
30867.8
30853.3
30838.8
30824.2
30809.5
30794.8
30780.1
30765.3
30750.4
30735.5
30720.5
30705.5
30690.5
30675.5
30660.5
30645.4
30630.4
30615.3
30600.3
30585.2
30570.2
30555.1
30540.1
30525.1
30510.1
30495.2
30480.2
30465.4
30450.5
30435.7
30421
30406.3
30391.6
30377.1
30362.5
30348.1
30333.7
30319.4
30305.2
30291.1
30277
30263.1
30249.2
30235.4
30221.8
30208.2
30194.8
30181.5
30168.3
30155.2
30142.2
30129.4
30116.7
30104.1
30091.7
30079.4
30067.2
30055.3
30043.4
30031.7
30020.2
30008.9
29997.7
29986.7
29975.8
29965.2
29954.7
29944.4
29934.3
29924.3
29914.6
29905.1
29895.7
29886.6
29877.7
29869
29860.4
29852.1
29844.1
29836.2
29828.5
29821.1
29813.8
29806.8
29800.1
29793.5
29787.1
29781
29775.1
29769.4
29764
29758.7
29753.7
29748.9
29744.3
29739.9
29735.8
29731.8
29728.1
29724.5
29721.2
29718.1
29715.1
29712.4
29709.9
29707.5
29705.4
29703.4
29701.6
29700
29698.6
29697.3
29696.2
29695.3
29694.5
29693.9
29693.4
29693.1
29692.9
29692.8
29692.9
29693.1
29693.4
29693.8
29694.4
29695
29695.8
29696.7
29697.7
29698.8
29700
29701.4
29702.8
29704.4
29706
29707.7
29709.4
29711.2
29713
29714.9
29716.9
29718.8
29720.9
29722.9
29725
29727.1
29729.2
29731.4
29733.6
29735.8
29738
29740.2
29742.5
29744.7
29746.9
29749.1
29751.3
29753.5
29755.7
29757.9
29760
29762.2
29764.3
29766.3
29768.4
29770.4
29772.3
29774.2
29776.1
29777.9
29779.7
29781.5
29783.1
29784.8
29786.3
29787.9
29789.3
29790.7
29792.1
29793.3
29794.5
29795.7
29796.8
29797.8
29798.7
29799.6
29800.3
29801.1
29801.7
29802.3
29802.7
29803.1
29803.5
29803.7
29803.9
29804
31345.2
31345.1
31345
31344.8
31344.6
31344.4
31344
31343.6
31343.2
31342.7
31342.2
31341.6
31340.9
31340.2
31339.4
31338.6
31337.8
31336.8
31335.9
31334.9
31333.8
31332.7
31331.5
31330.3
31329
31327.6
31326.3
31324.8
31323.3
31321.8
31320.2
31318.6
31316.9
31315.1
31313.3
31311.5
31309.6
31307.6
31305.6
31303.5
31301.4
31299.2
31297
31294.7
31292.4
31290
31287.5
31285
31282.4
31279.8
31277.1
31274.3
31271.5
31268.6
31265.7
31262.6
31259.5
31256.3
31253.1
31249.8
31246.4
31242.9
31239.3
31235.7
31231.9
31228.1
31224.2
31220.3
31216.2
31212
31207.8
31203.5
31199
31194.5
31189.9
31185.1
31180.3
31175.4
31170.3
31165.2
31159.9
31154.5
31149.1
31143.5
31137.8
31132
31126
31120
31113.8
31107.5
31101
31094.5
31087.8
31081
31074.1
31067
31059.8
31052.4
31045
31037.4
31029.6
31021.7
31013.7
31005.5
30997.2
30988.8
30980.2
30971.5
30962.6
30953.6
30944.4
30935.1
30925.6
30916.1
30906.3
30896.4
30886.4
30876.2
30865.9
30855.5
30844.9
30834.1
30823.2
30812.2
30801.1
30789.8
30778.3
30766.8
30755.1
30743.2
30731.3
30719.2
30706.9
30694.6
30682.1
30669.5
30656.8
30644
30631
30618
30604.8
30591.5
30578.1
30564.6
30551
30537.3
30523.6
30509.7
30495.7
30481.7
30467.5
30453.3
30439
30424.7
30410.2
30395.7
30381.1
30366.5
30351.8
30337.1
30322.3
30307.4
30292.6
30277.7
30262.7
30247.8
30232.8
30217.7
30202.7
30187.6
30172.6
30157.5
30142.4
30127.4
30112.3
30097.2
30082.2
30067.2
30052.2
30037.2
30022.3
30007.4
29992.5
29977.7
29963
29948.3
29933.6
29919
29904.5
29890
29875.6
29861.3
29847.1
29832.9
29818.9
29804.9
29791
29777.3
29763.6
29750
29736.6
29723.2
29710
29696.9
29683.9
29671.1
29658.4
29645.8
29633.4
29621.1
29608.9
29596.9
29585.1
29573.4
29561.8
29550.5
29539.3
29528.3
29517.4
29506.7
29496.3
29485.9
29475.8
29465.9
29456.2
29446.6
29437.3
29428.2
29419.2
29410.5
29402
29393.7
29385.6
29377.7
29370
29362.6
29355.4
29348.4
29341.6
29335
29328.7
29322.5
29316.6
29311
29305.5
29300.3
29295.3
29290.5
29285.9
29281.5
29277.3
29273.4
29269.7
29266.1
29262.8
29259.7
29256.8
29254.1
29251.5
29249.2
29247.1
29245.1
29243.3
29241.7
29240.3
29239.1
29238
29237
29236.3
29235.7
29235.2
29234.9
29234.7
29234.7
29234.8
29235
29235.3
29235.7
29236.3
29236.9
29237.6
29238.5
29239.5
29240.7
29242
29243.4
29244.8
29246.4
29248
29249.7
29251.4
29253.2
29255.1
29257
29258.9
29260.9
29262.9
29265
29267.1
29269.2
29271.3
29273.5
29275.7
29277.9
29280.1
29282.4
29284.6
29286.9
29289.1
29291.3
29293.5
29295.8
29297.9
29300.1
29302.3
29304.4
29306.5
29308.6
29310.6
29312.6
29314.6
29316.5
29318.4
29320.3
29322
29323.8
29325.5
29327.1
29328.7
29330.2
29331.7
29333.1
29334.4
29335.7
29336.9
29338
29339.1
29340.1
29341.1
29341.9
29342.7
29343.5
29344.1
29344.7
29345.1
29345.6
29345.9
29346.1
29346.3
29346.4
30887.6
30887.6
30887.4
30887.3
30887.1
30886.8
30886.5
30886.1
30885.6
30885.1
30884.6
30884
30883.3
30882.6
30881.9
30881.1
30880.2
30879.3
30878.3
30877.3
30876.2
30875.1
30873.9
30872.7
30871.4
30870.1
30868.7
30867.3
30865.8
30864.3
30862.7
30861
30859.3
30857.6
30855.8
30854
30852.1
30850.1
30848.1
30846
30843.9
30841.7
30839.5
30837.2
30834.9
30832.5
30830
30827.5
30824.9
30822.2
30819.5
30816.8
30813.9
30811
30808.1
30805
30801.9
30798.8
30795.5
30792.2
30788.8
30785.3
30781.8
30778.1
30774.4
30770.6
30766.7
30762.7
30758.7
30754.5
30750.3
30746
30741.5
30737
30732.4
30727.7
30722.9
30717.9
30712.9
30707.8
30702.5
30697.2
30691.7
30686.1
30680.4
30674.6
30668.7
30662.6
30656.5
30650.2
30643.8
30637.2
30630.5
30623.7
30616.8
30609.7
30602.5
30595.2
30587.8
30580.1
30572.4
30564.5
30556.5
30548.4
30540.1
30531.6
30523
30514.3
30505.4
30496.4
30487.3
30478
30468.5
30458.9
30449.2
30439.3
30429.3
30419.1
30408.8
30398.3
30387.7
30377
30366.1
30355.1
30343.9
30332.6
30321.2
30309.6
30297.9
30286.1
30274.1
30262
30249.8
30237.4
30225
30212.4
30199.6
30186.8
30173.8
30160.8
30147.6
30134.3
30120.9
30107.4
30093.8
30080.1
30066.3
30052.4
30038.4
30024.3
30010.1
29995.9
29981.6
29967.2
29952.8
29938.2
29923.7
29909
29894.3
29879.6
29864.8
29849.9
29835
29820.1
29805.1
29790.1
29775.1
29760
29744.9
29729.8
29714.7
29699.6
29684.5
29669.4
29654.4
29639.3
29624.2
29609.2
29594.1
29579.1
29564.2
29549.2
29534.4
29519.5
29504.7
29490
29475.3
29460.7
29446.1
29431.6
29417.2
29402.9
29388.6
29374.4
29360.4
29346.4
29332.5
29318.7
29305
29291.4
29277.9
29264.5
29251.3
29238.2
29225.2
29212.3
29199.6
29187
29174.5
29162.2
29150
29138
29126.2
29114.5
29102.9
29091.5
29080.3
29069.3
29058.4
29047.7
29037.2
29026.9
29016.8
29006.8
28997.1
28987.5
28978.2
28969
28960.1
28951.4
28942.8
28934.5
28926.4
28918.6
28910.9
28903.5
28896.2
28889.2
28882.4
28875.9
28869.5
28863.4
28857.5
28851.9
28846.4
28841.2
28836.2
28831.4
28826.8
28822.5
28818.3
28814.4
28810.7
28807.2
28803.9
28800.8
28797.9
28795.2
28792.7
28790.3
28788.2
28786.3
28784.5
28782.9
28781.5
28780.3
28779.2
28778.3
28777.6
28777
28776.6
28776.3
28776.1
28776.1
28776.2
28776.4
28776.8
28777.3
28777.9
28778.6
28779.5
28780.4
28781.5
28782.6
28783.9
28785.2
28786.7
28788.2
28789.8
28791.5
28793.3
28795.1
28796.9
28798.8
28800.8
28802.8
28804.9
28806.9
28809.1
28811.2
28813.4
28815.6
28817.8
28820
28822.3
28824.5
28826.8
28829.1
28831.3
28833.6
28835.8
28838
28840.2
28842.4
28844.6
28846.7
28848.9
28850.9
28853
28855
28857
28858.9
28860.8
28862.7
28864.5
28866.2
28867.9
28869.6
28871.2
28872.7
28874.2
28875.6
28876.9
28878.2
28879.4
28880.6
28881.7
28882.7
28883.6
28884.5
28885.3
28886
28886.7
28887.2
28887.7
28888.1
28888.5
28888.7
28888.9
28889
30430.1
30430
30429.9
30429.8
30429.6
30429.3
30428.9
30428.6
30428.1
30427.6
30427.1
30426.5
30425.8
30425.1
30424.4
30423.6
30422.7
30421.8
30420.8
30419.8
30418.7
30417.6
30416.4
30415.2
30413.9
30412.6
30411.2
30409.8
30408.3
30406.8
30405.2
30403.6
30401.9
30400.2
30398.4
30396.5
30394.6
30392.7
30390.6
30388.6
30386.5
30384.3
30382.1
30379.8
30377.4
30375
30372.6
30370.1
30367.5
30364.8
30362.1
30359.4
30356.5
30353.6
30350.7
30347.6
30344.5
30341.4
30338.1
30334.8
30331.4
30327.9
30324.4
30320.8
30317.1
30313.3
30309.4
30305.4
30301.4
30297.3
30293
30288.7
30284.3
30279.8
30275.2
30270.5
30265.7
30260.7
30255.7
30250.6
30245.4
30240
30234.6
30229
30223.3
30217.5
30211.6
30205.6
30199.4
30193.2
30186.8
30180.2
30173.6
30166.8
30159.9
30152.8
30145.6
30138.3
30130.9
30123.3
30115.6
30107.7
30099.7
30091.5
30083.2
30074.8
30066.2
30057.5
30048.7
30039.6
30030.5
30021.2
30011.8
30002.2
29992.4
29982.6
29972.5
29962.4
29952.1
29941.6
29931
29920.3
29909.4
29898.4
29887.2
29875.9
29864.4
29852.9
29841.2
29829.3
29817.3
29805.2
29793
29780.6
29768.1
29755.5
29742.8
29729.9
29716.9
29703.8
29690.6
29677.3
29663.9
29650.4
29636.7
29623
29609.2
29595.3
29581.3
29567.2
29553
29538.7
29524.4
29510
29495.5
29480.9
29466.3
29451.6
29436.9
29422.1
29407.2
29392.3
29377.4
29362.4
29347.4
29332.4
29317.3
29302.2
29287.1
29272
29256.9
29241.7
29226.6
29211.4
29196.3
29181.2
29166.1
29151
29135.9
29120.9
29105.9
29090.9
29076
29061.1
29046.2
29031.5
29016.7
29002.1
28987.5
28972.9
28958.5
28944.1
28929.8
28915.6
28901.5
28887.4
28873.5
28859.7
28845.9
28832.3
28818.8
28805.4
28792.1
28779
28766
28753.1
28740.3
28727.7
28715.2
28702.8
28690.6
28678.6
28666.7
28655
28643.4
28632
28620.7
28609.7
28598.8
28588.1
28577.6
28567.2
28557.1
28547.1
28537.4
28527.8
28518.4
28509.3
28500.3
28491.6
28483.1
28474.7
28466.6
28458.8
28451.1
28443.6
28436.4
28429.4
28422.6
28416.1
28409.8
28403.6
28397.8
28392.1
28386.7
28381.5
28376.5
28371.7
28367.1
28362.8
28358.7
28354.8
28351.1
28347.6
28344.3
28341.3
28338.4
28335.7
28333.2
28330.9
28328.9
28326.9
28325.2
28323.7
28322.3
28321.1
28320.1
28319.2
28318.5
28317.9
28317.5
28317.3
28317.2
28317.2
28317.3
28317.6
28318
28318.5
28319.2
28319.9
28320.8
28321.8
28322.8
28324
28325.3
28326.7
28328.2
28329.8
28331.4
28333.1
28334.9
28336.8
28338.7
28340.6
28342.6
28344.6
28346.7
28348.8
28351
28353.2
28355.4
28357.6
28359.9
28362.1
28364.4
28366.7
28369
28371.3
28373.5
28375.8
28378.1
28380.3
28382.6
28384.8
28387
28389.1
28391.3
28393.4
28395.5
28397.5
28399.5
28401.5
28403.4
28405.3
28407.1
28408.8
28410.5
28412.2
28413.8
28415.3
28416.8
28418.2
28419.6
28420.9
28422.1
28423.3
28424.4
28425.4
28426.3
28427.2
28428
28428.7
28429.4
28430
28430.5
28430.9
28431.2
28431.4
28431.6
28431.7
29972.6
29972.6
29972.5
29972.3
29972.1
29971.8
29971.5
29971.1
29970.7
29970.2
29969.7
29969.1
29968.4
29967.7
29967
29966.1
29965.3
29964.4
29963.4
29962.4
29961.3
29960.2
29959.1
29957.8
29956.6
29955.3
29953.9
29952.5
29951
29949.4
29947.9
29946.2
29944.5
29942.8
29941
29939.2
29937.3
29935.3
29933.3
29931.3
29929.1
29927
29924.7
29922.5
29920.1
29917.7
29915.3
29912.7
29910.2
29907.5
29904.8
29902.1
29899.2
29896.3
29893.4
29890.4
29887.3
29884.1
29880.9
29877.6
29874.2
29870.7
29867.2
29863.6
29859.9
29856.1
29852.2
29848.3
29844.3
29840.1
29835.9
29831.6
29827.2
29822.7
29818.1
29813.5
29808.7
29803.8
29798.8
29793.7
29788.5
29783.1
29777.7
29772.2
29766.5
29760.7
29754.8
29748.8
29742.7
29736.4
29730
29723.5
29716.9
29710.1
29703.2
29696.2
29689
29681.7
29674.3
29666.7
29659
29651.2
29643.2
29635
29626.8
29618.3
29609.8
29601.1
29592.2
29583.2
29574.1
29564.8
29555.3
29545.8
29536
29526.2
29516.1
29506
29495.7
29485.2
29474.6
29463.9
29453
29442
29430.8
29419.5
29408
29396.4
29384.7
29372.9
29360.9
29348.7
29336.5
29324.1
29311.6
29299
29286.2
29273.3
29260.3
29247.2
29234
29220.7
29207.2
29193.7
29180
29166.2
29152.4
29138.4
29124.4
29110.2
29096
29081.7
29067.4
29052.9
29038.4
29023.8
29009.1
28994.4
28979.6
28964.8
28949.9
28934.9
28920
28904.9
28889.9
28874.8
28859.7
28844.5
28829.3
28814.2
28799
28783.8
28768.6
28753.4
28738.2
28723
28707.8
28692.7
28677.6
28662.5
28647.4
28632.4
28617.4
28602.4
28587.5
28572.7
28557.9
28543.2
28528.5
28514
28499.4
28485
28470.7
28456.4
28442.2
28428.1
28414.2
28400.3
28386.5
28372.8
28359.3
28345.8
28332.5
28319.3
28306.2
28293.3
28280.5
28267.8
28255.3
28242.9
28230.7
28218.6
28206.7
28194.9
28183.3
28171.9
28160.6
28149.5
28138.6
28127.8
28117.3
28106.9
28096.8
28086.8
28077
28067.4
28058
28048.9
28039.9
28031.1
28022.6
28014.3
28006.2
27998.3
27990.6
27983.2
27975.9
27968.9
27962.2
27955.6
27949.3
27943.2
27937.3
27931.7
27926.3
27921.1
27916.1
27911.4
27906.8
27902.5
27898.4
27894.6
27890.9
27887.4
27884.2
27881.2
27878.3
27875.7
27873.3
27871
27869
27867.1
27865.4
27863.9
27862.6
27861.4
27860.4
27859.6
27858.9
27858.4
27858.1
27857.9
27857.8
27857.9
27858.1
27858.4
27858.9
27859.5
27860.2
27861
27861.9
27862.9
27864.1
27865.3
27866.7
27868.1
27869.6
27871.2
27872.9
27874.6
27876.5
27878.3
27880.3
27882.3
27884.3
27886.4
27888.5
27890.7
27892.9
27895.1
27897.3
27899.6
27901.9
27904.2
27906.5
27908.8
27911.2
27913.5
27915.8
27918.1
27920.4
27922.7
27925
27927.2
27929.4
27931.6
27933.8
27936
27938.1
27940.1
27942.1
27944.1
27946.1
27948
27949.8
27951.6
27953.3
27955
27956.6
27958.2
27959.7
27961.1
27962.5
27963.8
27965
27966.2
27967.3
27968.3
27969.2
27970.1
27970.9
27971.7
27972.3
27972.9
27973.4
27973.8
27974.1
27974.4
27974.5
27974.6
29515.3
29515.2
29515.1
29515
29514.8
29514.5
29514.2
29513.8
29513.4
29512.9
29512.3
29511.7
29511.1
29510.4
29509.7
29508.9
29508
29507.1
29506.1
29505.1
29504.1
29503
29501.8
29500.6
29499.3
29498
29496.6
29495.2
29493.7
29492.2
29490.6
29489
29487.3
29485.6
29483.8
29481.9
29480
29478.1
29476.1
29474
29471.9
29469.7
29467.5
29465.2
29462.9
29460.5
29458
29455.5
29453
29450.3
29447.6
29444.9
29442.1
29439.2
29436.2
29433.2
29430.1
29427
29423.8
29420.5
29417.1
29413.7
29410.1
29406.5
29402.9
29399.1
29395.3
29391.3
29387.3
29383.2
29379
29374.7
29370.4
29365.9
29361.3
29356.6
29351.9
29347
29342
29336.9
29331.8
29326.5
29321.1
29315.5
29309.9
29304.1
29298.3
29292.3
29286.2
29279.9
29273.6
29267.1
29260.5
29253.7
29246.9
29239.9
29232.7
29225.4
29218
29210.5
29202.8
29194.9
29187
29178.8
29170.6
29162.2
29153.6
29144.9
29136.1
29127.1
29118
29108.7
29099.3
29089.7
29080
29070.1
29060.1
29049.9
29039.6
29029.2
29018.6
29007.8
28996.9
28985.9
28974.7
28963.4
28952
28940.4
28928.6
28916.8
28904.8
28892.6
28880.3
28867.9
28855.4
28842.8
28830
28817.1
28804
28790.9
28777.6
28764.3
28750.8
28737.2
28723.5
28709.7
28695.8
28681.8
28667.7
28653.6
28639.3
28625
28610.5
28596
28581.4
28566.8
28552.1
28537.3
28522.4
28507.5
28492.6
28477.6
28462.5
28447.5
28432.3
28417.2
28402
28386.8
28371.5
28356.3
28341
28325.8
28310.5
28295.2
28280
28264.7
28249.5
28234.3
28219.1
28203.9
28188.7
28173.6
28158.6
28143.6
28128.6
28113.7
28098.8
28084.1
28069.3
28054.7
28040.1
28025.6
28011.2
27996.8
27982.6
27968.5
27954.4
27940.5
27926.6
27912.9
27899.3
27885.8
27872.4
27859.2
27846
27833.1
27820.2
27807.5
27794.9
27782.5
27770.2
27758.1
27746.1
27734.3
27722.6
27711.1
27699.8
27688.7
27677.8
27667
27656.4
27646
27635.8
27625.8
27616
27606.4
27597
27587.8
27578.8
27570
27561.5
27553.1
27545
27537.1
27529.4
27522
27514.8
27507.8
27501
27494.5
27488.2
27482.1
27476.2
27470.6
27465.2
27460
27455.1
27450.4
27445.9
27441.6
27437.6
27433.7
27430.1
27426.7
27423.5
27420.5
27417.7
27415.1
27412.7
27410.5
27408.5
27406.7
27405.1
27403.6
27402.4
27401.3
27400.3
27399.6
27399
27398.5
27398.2
27398.1
27398.1
27398.2
27398.5
27398.9
27399.4
27400
27400.8
27401.7
27402.7
27403.8
27405
27406.3
27407.7
27409.1
27410.7
27412.4
27414.1
27415.9
27417.8
27419.7
27421.7
27423.8
27425.9
27428
27430.2
27432.4
27434.7
27436.9
27439.2
27441.6
27443.9
27446.2
27448.6
27451
27453.4
27455.7
27458.1
27460.4
27462.8
27465.1
27467.4
27469.7
27472
27474.2
27476.4
27478.6
27480.7
27482.8
27484.9
27486.9
27488.9
27490.8
27492.7
27494.5
27496.2
27497.9
27499.6
27501.2
27502.7
27504.1
27505.5
27506.8
27508.1
27509.2
27510.4
27511.4
27512.3
27513.2
27514
27514.8
27515.4
27516
27516.5
27516.9
27517.2
27517.5
27517.7
27517.7
29058.1
29058
29057.9
29057.7
29057.5
29057.3
29057
29056.6
29056.1
29055.7
29055.1
29054.5
29053.9
29053.2
29052.5
29051.7
29050.8
29049.9
29049
29048
29046.9
29045.8
29044.6
29043.4
29042.2
29040.8
29039.5
29038
29036.6
29035
29033.5
29031.8
29030.2
29028.4
29026.6
29024.8
29022.9
29020.9
29018.9
29016.9
29014.8
29012.6
29010.4
29008.1
29005.8
29003.4
29001
28998.4
28995.9
28993.3
28990.6
28987.8
28985
28982.2
28979.2
28976.2
28973.1
28970
28966.8
28963.5
28960.2
28956.7
28953.2
28949.7
28946
28942.3
28938.4
28934.5
28930.5
28926.5
28922.3
28918
28913.7
28909.2
28904.7
28900
28895.3
28890.4
28885.5
28880.4
28875.3
28870
28864.6
28859.1
28853.5
28847.8
28842
28836
28829.9
28823.7
28817.4
28810.9
28804.3
28797.6
28790.8
28783.8
28776.7
28769.4
28762
28754.5
28746.8
28739
28731.1
28723
28714.8
28706.4
28697.8
28689.2
28680.3
28671.4
28662.2
28653
28643.6
28634
28624.3
28614.4
28604.4
28594.3
28584
28573.5
28562.9
28552.2
28541.3
28530.2
28519
28507.7
28496.2
28484.6
28472.9
28461
28449
28436.8
28424.5
28412.1
28399.5
28386.9
28374
28361.1
28348.1
28334.9
28321.6
28308.2
28294.7
28281
28267.3
28253.4
28239.5
28225.5
28211.3
28197.1
28182.8
28168.4
28153.9
28139.3
28124.7
28110
28095.2
28080.3
28065.4
28050.5
28035.4
28020.4
28005.2
27990.1
27974.9
27959.6
27944.4
27929.1
27913.8
27898.4
27883.1
27867.7
27852.4
27837
27821.7
27806.3
27791
27775.7
27760.4
27745.2
27729.9
27714.7
27699.6
27684.5
27669.4
27654.4
27639.5
27624.6
27609.8
27595.1
27580.4
27565.8
27551.3
27536.9
27522.6
27508.4
27494.3
27480.3
27466.4
27452.6
27438.9
27425.3
27411.9
27398.5
27385.4
27372.3
27359.4
27346.6
27334
27321.5
27309.1
27297
27284.9
27273.1
27261.4
27249.8
27238.5
27227.3
27216.3
27205.5
27194.9
27184.4
27174.2
27164.1
27154.3
27144.7
27135.2
27126
27117
27108.2
27099.6
27091.3
27083.2
27075.3
27067.6
27060.1
27052.9
27045.9
27039.2
27032.6
27026.4
27020.3
27014.5
27008.9
27003.5
26998.4
26993.4
26988.8
26984.3
26980.1
26976.1
26972.3
26968.7
26965.3
26962.2
26959.2
26956.5
26954
26951.6
26949.5
26947.6
26945.8
26944.3
26942.9
26941.7
26940.6
26939.8
26939.1
26938.5
26938.2
26937.9
26937.9
26937.9
26938.1
26938.5
26939
26939.6
26940.3
26941.1
26942.1
26943.1
26944.3
26945.6
26947
26948.4
26950
26951.6
26953.4
26955.2
26957
26959
26961
26963
26965.2
26967.3
26969.5
26971.8
26974.1
26976.4
26978.7
26981.1
26983.5
26985.9
26988.3
26990.7
26993.1
26995.5
26998
27000.4
27002.8
27005.2
27007.6
27009.9
27012.3
27014.6
27016.9
27019.1
27021.3
27023.5
27025.6
27027.7
27029.8
27031.8
27033.8
27035.7
27037.5
27039.3
27041
27042.7
27044.3
27045.8
27047.3
27048.7
27050.1
27051.3
27052.5
27053.6
27054.7
27055.7
27056.5
27057.4
27058.1
27058.8
27059.3
27059.8
27060.2
27060.6
27060.8
27061
27061.1
28601
28600.9
28600.8
28600.6
28600.4
28600.2
28599.8
28599.5
28599
28598.6
28598
28597.5
28596.8
28596.1
28595.4
28594.6
28593.7
28592.8
28591.9
28590.9
28589.8
28588.7
28587.6
28586.4
28585.1
28583.8
28582.4
28581
28579.5
28578
28576.4
28574.8
28573.1
28571.4
28569.6
28567.7
28565.8
28563.9
28561.9
28559.9
28557.7
28555.6
28553.4
28551.1
28548.8
28546.4
28544
28541.5
28538.9
28536.3
28533.6
28530.9
28528.1
28525.2
28522.3
28519.3
28516.3
28513.2
28510
28506.7
28503.4
28500
28496.5
28492.9
28489.3
28485.6
28481.8
28477.9
28473.9
28469.9
28465.7
28461.5
28457.2
28452.7
28448.2
28443.6
28438.9
28434.1
28429.2
28424.2
28419
28413.8
28408.4
28403
28397.4
28391.7
28385.9
28380
28373.9
28367.8
28361.5
28355
28348.5
28341.8
28335
28328
28321
28313.7
28306.4
28298.9
28291.2
28283.5
28275.5
28267.5
28259.2
28250.9
28242.4
28233.7
28224.9
28216
28206.9
28197.6
28188.2
28178.6
28168.9
28159.1
28149.1
28138.9
28128.6
28118.2
28107.6
28096.8
28085.9
28074.9
28063.7
28052.4
28040.9
28029.3
28017.5
28005.6
27993.5
27981.4
27969
27956.6
27944
27931.3
27918.4
27905.5
27892.4
27879.2
27865.8
27852.4
27838.8
27825.1
27811.3
27797.4
27783.4
27769.3
27755.1
27740.9
27726.5
27712
27697.5
27682.8
27668.1
27653.3
27638.5
27623.5
27608.5
27593.5
27578.4
27563.2
27548
27532.8
27517.5
27502.1
27486.8
27471.4
27456
27440.6
27425.1
27409.7
27394.2
27378.8
27363.3
27347.9
27332.4
27317
27301.6
27286.3
27270.9
27255.6
27240.4
27225.2
27210
27194.9
27179.9
27164.9
27150
27135.2
27120.4
27105.8
27091.2
27076.7
27062.3
27048
27033.7
27019.6
27005.6
26991.8
26978
26964.4
26950.8
26937.4
26924.2
26911
26898.1
26885.2
26872.5
26859.9
26847.5
26835.3
26823.2
26811.3
26799.5
26787.9
26776.5
26765.3
26754.2
26743.4
26732.7
26722.2
26711.9
26701.8
26691.9
26682.3
26672.8
26663.6
26654.5
26645.7
26637.1
26628.8
26620.6
26612.7
26605
26597.6
26590.4
26583.4
26576.6
26570.1
26563.8
26557.8
26552
26546.4
26541.1
26536
26531.1
26526.5
26522.1
26517.9
26513.9
26510.2
26506.7
26503.4
26500.3
26497.4
26494.7
26492.3
26490
26487.9
26486.1
26484.4
26482.9
26481.6
26480.5
26479.5
26478.8
26478.1
26477.7
26477.4
26477.3
26477.3
26477.4
26477.7
26478.1
26478.7
26479.4
26480.2
26481.1
26482.2
26483.3
26484.6
26485.9
26487.4
26489
26490.6
26492.3
26494.1
26496
26498
26500
26502.1
26504.2
26506.4
26508.6
26510.9
26513.3
26515.6
26518
26520.4
26522.8
26525.3
26527.8
26530.3
26532.7
26535.2
26537.7
26540.2
26542.7
26545.2
26547.6
26550.1
26552.5
26554.9
26557.2
26559.6
26561.9
26564.2
26566.4
26568.6
26570.7
26572.8
26574.9
26576.8
26578.8
26580.7
26582.5
26584.3
26586
26587.6
26589.2
26590.7
26592.1
26593.5
26594.7
26596
26597.1
26598.2
26599.1
26600
26600.9
26601.6
26602.3
26602.9
26603.4
26603.8
26604.1
26604.4
26604.5
26604.6
28143.9
28143.9
28143.8
28143.6
28143.4
28143.2
28142.8
28142.5
28142.1
28141.6
28141.1
28140.5
28139.8
28139.1
28138.4
28137.6
28136.8
28135.9
28134.9
28133.9
28132.9
28131.8
28130.6
28129.4
28128.1
28126.8
28125.4
28124
28122.5
28121
28119.4
28117.8
28116.1
28114.4
28112.6
28110.8
28108.9
28107
28105
28102.9
28100.8
28098.7
28096.5
28094.2
28091.9
28089.5
28087.1
28084.6
28082.1
28079.5
28076.8
28074.1
28071.3
28068.5
28065.5
28062.6
28059.5
28056.4
28053.3
28050
28046.7
28043.3
28039.9
28036.3
28032.7
28029
28025.3
28021.4
28017.5
28013.4
28009.3
28005.1
28000.8
27996.5
27992
27987.4
27982.7
27977.9
27973.1
27968.1
27963
27957.8
27952.5
27947.1
27941.5
27935.9
27930.1
27924.2
27918.2
27912.1
27905.8
27899.4
27892.9
27886.3
27879.5
27872.6
27865.5
27858.3
27851
27843.5
27835.9
27828.2
27820.3
27812.2
27804.1
27795.7
27787.2
27778.6
27769.8
27760.9
27751.8
27742.6
27733.2
27723.6
27714
27704.1
27694.1
27684
27673.7
27663.2
27652.6
27641.9
27631
27619.9
27608.7
27597.4
27585.9
27574.2
27562.4
27550.5
27538.4
27526.2
27513.9
27501.4
27488.8
27476
27463.2
27450.1
27437
27423.8
27410.4
27396.9
27383.2
27369.5
27355.7
27341.7
27327.6
27313.5
27299.2
27284.9
27270.4
27255.9
27241.2
27226.5
27211.7
27196.8
27181.9
27166.9
27151.8
27136.6
27121.4
27106.2
27090.9
27075.5
27060.1
27044.7
27029.2
27013.7
26998.2
26982.7
26967.1
26951.6
26936
26920.4
26904.8
26889.3
26873.7
26858.2
26842.7
26827.2
26811.8
26796.4
26781
26765.7
26750.4
26735.2
26720
26704.9
26689.9
26675
26660.1
26645.3
26630.6
26616
26601.5
26587.1
26572.8
26558.6
26544.5
26530.5
26516.7
26502.9
26489.3
26475.8
26462.5
26449.3
26436.2
26423.3
26410.5
26397.8
26385.4
26373
26360.9
26348.9
26337.1
26325.4
26313.9
26302.6
26291.5
26280.6
26269.9
26259.3
26249
26238.8
26228.9
26219.2
26209.7
26200.4
26191.4
26182.5
26173.9
26165.5
26157.4
26149.4
26141.8
26134.3
26127.1
26120.1
26113.4
26106.9
26100.6
26094.6
26088.8
26083.3
26078
26072.9
26068.1
26063.5
26059.1
26055
26051.1
26047.4
26044
26040.8
26037.7
26034.9
26032.4
26030
26027.8
26025.8
26024
26022.4
26021
26019.8
26018.8
26017.9
26017.3
26016.7
26016.4
26016.2
26016.1
26016.2
26016.5
26016.9
26017.4
26018.1
26018.9
26019.8
26020.8
26022
26023.2
26024.6
26026
26027.6
26029.2
26031
26032.8
26034.7
26036.7
26038.7
26040.8
26043
26045.3
26047.5
26049.9
26052.2
26054.6
26057.1
26059.6
26062.1
26064.6
26067.1
26069.7
26072.2
26074.8
26077.4
26079.9
26082.5
26085
26087.6
26090.1
26092.6
26095.1
26097.6
26100
26102.4
26104.7
26107.1
26109.4
26111.6
26113.8
26115.9
26118
26120.1
26122.1
26124
26125.8
26127.6
26129.4
26131.1
26132.7
26134.2
26135.6
26137
26138.3
26139.6
26140.7
26141.8
26142.8
26143.7
26144.6
26145.3
26146
26146.6
26147.1
26147.5
26147.9
26148.1
26148.3
26148.4
27687.1
27687
27686.9
27686.7
27686.5
27686.3
27686
27685.6
27685.2
27684.7
27684.2
27683.6
27683
27682.3
27681.5
27680.7
27679.9
27679
27678.1
27677
27676
27674.9
27673.7
27672.5
27671.2
27669.9
27668.6
27667.1
27665.7
27664.2
27662.6
27660.9
27659.3
27657.5
27655.8
27653.9
27652
27650.1
27648.1
27646.1
27644
27641.8
27639.6
27637.4
27635.1
27632.7
27630.3
27627.8
27625.3
27622.7
27620.1
27617.4
27614.6
27611.8
27608.9
27605.9
27602.9
27599.8
27596.7
27593.5
27590.2
27586.8
27583.4
27579.9
27576.3
27572.7
27568.9
27565.1
27561.2
27557.2
27553.1
27549
27544.7
27540.3
27535.9
27531.4
27526.7
27522
27517.2
27512.2
27507.2
27502
27496.7
27491.4
27485.9
27480.3
27474.5
27468.7
27462.7
27456.6
27450.4
27444.1
27437.6
27431
27424.3
27417.4
27410.4
27403.2
27396
27388.5
27381
27373.2
27365.4
27357.4
27349.2
27340.9
27332.4
27323.8
27315.1
27306.2
27297.1
27287.9
27278.5
27269
27259.3
27249.5
27239.5
27229.4
27219.1
27208.6
27198
27187.3
27176.4
27165.3
27154.1
27142.7
27131.2
27119.6
27107.8
27095.8
27083.7
27071.5
27059.1
27046.6
27033.9
27021.1
27008.2
26995.2
26982
26968.7
26955.2
26941.7
26928
26914.2
26900.3
26886.2
26872.1
26857.9
26843.5
26829.1
26814.6
26799.9
26785.2
26770.4
26755.5
26740.5
26725.5
26710.4
26695.2
26679.9
26664.6
26649.2
26633.8
26618.4
26602.8
26587.3
26571.7
26556.1
26540.4
26524.8
26509.1
26493.4
26477.7
26462
26446.3
26430.6
26414.9
26399.2
26383.6
26368
26352.4
26336.9
26321.4
26305.9
26290.5
26275.2
26259.9
26244.7
26229.5
26214.4
26199.4
26184.5
26169.7
26155
26140.4
26125.8
26111.4
26097.1
26082.9
26068.8
26054.9
26041
26027.3
26013.7
26000.3
25987
25973.8
25960.8
25947.9
25935.2
25922.6
25910.2
25898
25885.9
25874
25862.3
25850.7
25839.3
25828.1
25817.2
25806.4
25795.8
25785.4
25775.2
25765.2
25755.4
25745.9
25736.6
25727.5
25718.6
25710
25701.6
25693.4
25685.5
25677.8
25670.3
25663.1
25656.1
25649.4
25642.9
25636.7
25630.7
25625
25619.5
25614.2
25609.2
25604.4
25599.9
25595.6
25591.5
25587.7
25584.1
25580.7
25577.5
25574.6
25571.9
25569.4
25567.1
25565
25563.1
25561.4
25560
25558.7
25557.5
25556.6
25555.9
25555.3
25554.9
25554.6
25554.5
25554.6
25554.8
25555.2
25555.7
25556.3
25557.1
25558
25559
25560.2
25561.4
25562.8
25564.3
25565.9
25567.5
25569.3
25571.1
25573.1
25575.1
25577.2
25579.3
25581.5
25583.8
25586.1
25588.5
25591
25593.4
25595.9
25598.5
25601
25603.6
25606.2
25608.9
25611.5
25614.2
25616.8
25619.5
25622.1
25624.8
25627.4
25630
25632.6
25635.2
25637.8
25640.3
25642.8
25645.3
25647.7
25650.1
25652.4
25654.7
25657
25659.2
25661.3
25663.4
25665.5
25667.4
25669.3
25671.2
25673
25674.7
25676.3
25677.9
25679.4
25680.8
25682.1
25683.4
25684.6
25685.7
25686.7
25687.7
25688.5
25689.3
25690
25690.6
25691.1
25691.5
25691.9
25692.1
25692.3
25692.4
27230.3
27230.2
27230.1
27230
27229.8
27229.5
27229.2
27228.8
27228.4
27227.9
27227.4
27226.8
27226.2
27225.5
27224.8
27224
27223.1
27222.2
27221.3
27220.3
27219.2
27218.1
27217
27215.7
27214.5
27213.2
27211.8
27210.4
27208.9
27207.4
27205.8
27204.2
27202.5
27200.8
27199
27197.2
27195.3
27193.4
27191.4
27189.3
27187.3
27185.1
27182.9
27180.7
27178.4
27176
27173.6
27171.2
27168.7
27166.1
27163.5
27160.8
27158
27155.2
27152.4
27149.4
27146.4
27143.4
27140.3
27137.1
27133.8
27130.5
27127.1
27123.6
27120.1
27116.4
27112.7
27108.9
27105.1
27101.1
27097.1
27092.9
27088.7
27084.4
27080
27075.5
27070.9
27066.2
27061.4
27056.6
27051.6
27046.4
27041.2
27035.9
27030.5
27024.9
27019.2
27013.4
27007.5
27001.5
26995.3
26989
26982.6
26976
26969.3
26962.5
26955.6
26948.4
26941.2
26933.8
26926.3
26918.6
26910.8
26902.8
26894.7
26886.4
26878
26869.4
26860.7
26851.8
26842.8
26833.6
26824.2
26814.7
26805.1
26795.2
26785.3
26775.1
26764.8
26754.4
26743.8
26733
26722.1
26711
26699.8
26688.5
26676.9
26665.2
26653.4
26641.4
26629.3
26617.1
26604.6
26592.1
26579.4
26566.6
26553.6
26540.5
26527.2
26513.9
26500.4
26486.8
26473
26459.1
26445.2
26431.1
26416.8
26402.5
26388.1
26373.6
26358.9
26344.2
26329.4
26314.5
26299.5
26284.4
26269.2
26254
26238.7
26223.3
26207.9
26192.4
26176.9
26161.3
26145.6
26129.9
26114.2
26098.5
26082.7
26066.9
26051
26035.2
26019.3
26003.5
25987.6
25971.8
25956
25940.2
25924.4
25908.6
25892.9
25877.2
25861.5
25845.9
25830.4
25814.9
25799.4
25784.1
25768.8
25753.6
25738.4
25723.4
25708.4
25693.6
25678.8
25664.2
25649.6
25635.2
25620.9
25606.7
25592.6
25578.6
25564.8
25551.1
25537.6
25524.1
25510.9
25497.8
25484.8
25472
25459.3
25446.8
25434.5
25422.3
25410.3
25398.5
25386.8
25375.4
25364.1
25353.1
25342.2
25331.5
25321.1
25310.8
25300.8
25291
25281.4
25272
25262.9
25254
25245.3
25236.9
25228.7
25220.7
25213
25205.6