/*--------------------------------*- C++ -*----------------------------------*\
| =========                 |                                                 |
| \\      /  F ield         | OpenFOAM: The Open Source CFD Toolbox           |
|  \\    /   O peration     | Version:  v2006                                 |
|   \\  /    A nd           | Website:  www.openfoam.com                      |
|    \\/     M anipulation  |                                                 |
\*---------------------------------------------------------------------------*/
FoamFile
{
    version     2.0;
    format      ascii;
    class       volScalarField;
    location    "18";
    object      p_rgh;
}
// * * * * * * * * * * * * * * * * * * * * * * * * * * * * * * * * * * * * * //

dimensions      [1 -1 -2 0 0 0 0];


internalField   nonuniform List<scalar> 
52500
(
2601.72
2601.66
2601.55
2601.39
2601.17
2600.89
2600.57
2600.18
2599.75
2599.25
2598.71
2598.11
2597.45
2596.75
2595.99
2595.18
2594.31
2593.39
2592.42
2591.4
2590.33
2589.21
2588.03
2586.81
2585.53
2584.2
2582.82
2581.39
2579.9
2578.37
2576.78
2575.14
2573.44
2571.7
2569.9
2568.04
2566.14
2564.18
2562.16
2560.09
2557.97
2555.79
2553.55
2551.26
2548.91
2546.51
2544.05
2541.53
2538.96
2536.32
2533.63
2530.87
2528.04
2525.15
2522.18
2519.15
2516.04
2512.86
2509.61
2506.28
2502.87
2499.39
2495.83
2492.18
2488.46
2484.65
2480.75
2476.77
2472.7
2468.54
2464.29
2459.94
2455.5
2450.97
2446.33
2441.6
2436.76
2431.82
2426.78
2421.62
2416.36
2410.99
2405.51
2399.92
2394.21
2388.38
2382.44
2376.38
2370.19
2363.89
2357.46
2350.9
2344.21
2337.4
2330.46
2323.38
2316.17
2308.83
2301.35
2293.74
2285.99
2278.1
2270.08
2261.91
2253.61
2245.16
2236.57
2227.84
2218.96
2209.95
2200.78
2191.48
2182.03
2172.44
2162.7
2152.82
2142.79
2132.62
2122.31
2111.86
2101.26
2090.53
2079.65
2068.63
2057.48
2046.19
2034.76
2023.2
2011.5
1999.68
1987.72
1975.63
1963.42
1951.08
1938.61
1926.02
1913.31
1900.48
1887.54
1874.48
1861.31
1848.03
1834.64
1821.15
1807.56
1793.87
1780.08
1766.2
1752.23
1738.17
1724.03
1709.81
1695.52
1681.16
1666.73
1652.24
1637.69
1623.09
1608.44
1593.73
1578.97
1564.16
1549.3
1534.37
1519.42
1504.44
1489.44
1474.42
1459.38
1444.34
1429.28
1414.22
1399.16
1384.1
1369.05
1354.01
1338.99
1323.99
1309.01
1294.06
1279.14
1264.26
1249.42
1234.62
1219.87
1205.18
1190.54
1175.96
1161.44
1147
1132.62
1118.33
1104.11
1089.97
1075.93
1061.97
1048.11
1034.35
1020.69
1007.14
993.696
980.368
967.158
954.068
941.104
928.268
915.565
902.997
890.568
878.282
866.143
854.154
842.318
830.639
819.12
807.766
796.579
785.563
774.721
764.057
753.573
743.274
733.162
723.24
713.511
703.978
694.645
685.512
676.584
667.862
659.348
651.045
642.954
635.078
627.417
619.973
612.747
605.74
598.953
592.387
586.041
579.916
574.012
568.329
562.866
557.622
552.597
547.79
543.199
538.822
534.66
530.708
526.966
523.431
520.101
516.974
514.046
511.316
508.781
506.437
504.282
502.312
500.524
498.914
497.478
496.213
495.113
494.176
493.399
492.774
492.297
491.964
491.771
491.712
491.783
491.979
492.297
492.731
493.278
493.934
494.696
495.568
496.562
497.678
498.922
500.279
501.733
503.272
504.885
506.564
508.303
510.096
511.941
513.833
515.768
517.744
519.758
521.807
523.89
526.002
528.142
530.305
532.488
534.688
536.901
539.123
541.351
543.58
545.806
548.028
550.24
552.441
554.626
556.793
558.939
561.061
563.156
565.222
567.256
569.256
571.213
573.131
575.008
576.839
578.624
580.359
582.042
583.672
585.247
586.765
588.224
589.622
590.958
592.231
593.438
594.58
595.653
596.657
597.591
598.452
599.241
599.955
600.593
601.154
601.638
602.042
602.368
602.611
602.778
602.861
2601.88
2601.82
2601.71
2601.55
2601.33
2601.05
2600.73
2600.34
2599.91
2599.41
2598.87
2598.27
2597.61
2596.9
2596.14
2595.33
2594.46
2593.54
2592.57
2591.55
2590.48
2589.35
2588.18
2586.95
2585.67
2584.34
2582.96
2581.53
2580.05
2578.51
2576.92
2575.28
2573.59
2571.84
2570.04
2568.19
2566.29
2564.33
2562.31
2560.25
2558.12
2555.94
2553.71
2551.42
2549.07
2546.67
2544.21
2541.7
2539.13
2536.49
2533.8
2531.04
2528.21
2525.32
2522.35
2519.32
2516.22
2513.04
2509.78
2506.46
2503.05
2499.57
2496.01
2492.37
2488.65
2484.84
2480.95
2476.97
2472.9
2468.74
2464.5
2460.15
2455.72
2451.18
2446.55
2441.82
2436.99
2432.05
2427.01
2421.87
2416.61
2411.25
2405.77
2400.18
2394.48
2388.65
2382.72
2376.66
2370.48
2364.17
2357.74
2351.19
2344.51
2337.7
2330.76
2323.69
2316.48
2309.15
2301.67
2294.06
2286.32
2278.43
2270.4
2262.24
2253.93
2245.49
2236.9
2228.16
2219.29
2210.27
2201.11
2191.8
2182.35
2172.75
2163.01
2153.13
2143.1
2132.93
2122.61
2112.16
2101.56
2090.82
2079.94
2068.92
2057.76
2046.46
2035.03
2023.46
2011.76
1999.92
1987.96
1975.86
1963.64
1951.29
1938.81
1926.22
1913.5
1900.67
1887.72
1874.66
1861.49
1848.2
1834.82
1821.32
1807.73
1794.04
1780.26
1766.38
1752.42
1738.37
1724.24
1710.02
1695.73
1681.36
1666.92
1652.41
1637.84
1623.21
1608.51
1593.76
1578.97
1564.13
1549.26
1534.37
1519.44
1504.47
1489.47
1474.44
1459.4
1444.34
1429.28
1414.21
1399.13
1384.06
1369
1353.95
1338.91
1323.89
1308.9
1293.93
1279
1264.1
1249.24
1234.43
1219.66
1204.95
1190.3
1175.7
1161.17
1146.71
1132.32
1118.01
1103.78
1089.63
1075.57
1061.6
1047.73
1033.96
1020.29
1006.72
993.27
979.931
966.709
953.608
940.633
927.786
915.071
902.493
890.053
877.757
865.607
853.608
841.762
830.074
818.546
807.183
795.988
784.963
774.114
763.442
752.951
742.645
732.526
722.598
712.864
703.326
693.987
684.85
675.918
667.193
658.676
650.371
642.278
634.4
626.739
619.294
612.069
605.063
598.278
591.713
585.37
579.248
573.348
567.669
562.211
556.972
551.953
547.152
542.568
538.2
534.045
530.102
526.37
522.845
519.525
516.409
513.492
510.772
508.248
505.915
503.77
501.811
500.033
498.434
497.009
495.755
494.668
493.744
492.977
492.364
491.902
491.585
491.41
491.371
491.461
491.665
491.994
492.436
492.981
493.619
494.348
495.214
496.232
497.4
498.682
500.064
501.535
503.083
504.7
506.381
508.12
509.915
511.761
513.655
515.595
517.579
519.602
521.663
523.758
525.884
528.037
530.213
532.409
534.621
536.845
539.077
541.314
543.552
545.788
548.018
550.24
552.45
554.647
556.824
558.981
561.112
563.216
565.29
567.33
569.333
571.304
573.231
575.115
576.953
578.743
580.484
582.173
583.808
585.387
586.909
588.372
589.775
591.115
592.392
593.604
594.75
595.828
596.837
597.776
598.643
599.436
600.155
600.797
601.362
601.849
602.257
602.584
602.83
602.995
603.079
2602.11
2602.05
2601.95
2601.79
2601.57
2601.29
2600.96
2600.58
2600.14
2599.65
2599.1
2598.5
2597.84
2597.13
2596.37
2595.56
2594.69
2593.78
2592.81
2591.79
2590.71
2589.59
2588.42
2587.19
2585.92
2584.59
2583.21
2581.78
2580.3
2578.76
2577.18
2575.54
2573.85
2572.11
2570.31
2568.46
2566.56
2564.6
2562.59
2560.52
2558.4
2556.22
2553.99
2551.7
2549.36
2546.95
2544.49
2541.97
2539.39
2536.75
2534.04
2531.28
2528.44
2525.54
2522.58
2519.54
2516.44
2513.26
2510.01
2506.69
2503.29
2499.81
2496.25
2492.62
2488.9
2485.1
2481.22
2477.24
2473.19
2469.04
2464.8
2460.47
2456.04
2451.52
2446.89
2442.17
2437.35
2432.43
2427.4
2422.26
2417.02
2411.66
2406.2
2400.62
2394.92
2389.11
2383.18
2377.13
2370.96
2364.67
2358.25
2351.71
2345.04
2338.24
2331.31
2324.24
2317.05
2309.72
2302.25
2294.65
2286.91
2279.03
2271.01
2262.86
2254.56
2246.12
2237.53
2228.8
2219.93
2210.92
2201.76
2192.46
2183.01
2173.42
2163.68
2153.8
2143.77
2133.61
2123.29
2112.84
2102.24
2091.5
2080.62
2069.6
2058.44
2047.14
2035.7
2024.13
2012.43
2000.59
1988.62
1976.52
1964.3
1951.94
1939.46
1926.86
1914.14
1901.3
1888.34
1875.26
1862.08
1848.78
1835.38
1821.88
1808.27
1794.56
1780.76
1766.86
1752.87
1738.8
1724.65
1710.41
1696.1
1681.72
1667.26
1652.74
1638.16
1623.52
1608.82
1594.07
1579.27
1564.42
1549.52
1534.59
1519.61
1504.6
1489.57
1474.51
1459.44
1444.35
1429.25
1414.15
1399.04
1383.94
1368.85
1353.77
1338.7
1323.65
1308.63
1293.64
1278.67
1263.74
1248.86
1234.02
1219.22
1204.48
1189.8
1175.17
1160.62
1146.13
1131.71
1117.37
1103.11
1088.94
1074.85
1060.86
1046.96
1033.17
1019.47
1005.88
992.408
979.046
965.802
952.68
939.684
926.816
914.081
901.482
889.023
876.707
864.539
852.521
840.657
828.951
817.406
806.025
794.813
783.773
772.908
762.222
751.717
741.398
731.266
721.327
711.581
702.033
692.685
683.54
674.6
665.868
657.346
649.036
640.94
633.06
625.397
617.952
610.727
603.723
596.941
590.38
584.042
577.926
572.033
566.361
560.912
555.683
550.675
545.886
541.314
536.959
532.818
528.89
525.173
521.665
518.362
515.263
512.364
509.664
507.158
504.844
502.719
500.78
499.023
497.444
496.039
494.805
493.738
492.833
492.087
491.494
491.051
490.753
490.595
490.574
490.687
490.941
491.315
491.806
492.415
493.139
493.983
494.926
495.974
497.128
498.385
499.741
501.188
502.72
504.33
506.012
507.759
509.566
511.429
513.345
515.308
517.315
519.364
521.449
523.569
525.718
527.893
530.091
532.309
534.541
536.785
539.038
541.294
543.552
545.807
548.056
550.295
552.521
554.731
556.923
559.093
561.239
563.358
565.447
567.501
569.52
571.501
573.44
575.336
577.186
578.987
580.738
582.436
584.081
585.669
587.199
588.669
590.079
591.426
592.709
593.927
595.079
596.162
597.177
598.122
598.995
599.794
600.519
601.168
601.739
602.232
602.643
602.973
603.219
603.384
603.467
2602.39
2602.34
2602.23
2602.07
2601.85
2601.58
2601.25
2600.87
2600.43
2599.93
2599.39
2598.79
2598.13
2597.42
2596.67
2595.85
2594.99
2594.07
2593.11
2592.09
2591.02
2589.9
2588.73
2587.51
2586.24
2584.91
2583.54
2582.11
2580.63
2579.1
2577.52
2575.88
2574.19
2572.45
2570.66
2568.81
2566.91
2564.96
2562.95
2560.88
2558.77
2556.59
2554.36
2552.08
2549.73
2547.33
2544.87
2542.35
2539.77
2537.13
2534.43
2531.66
2528.83
2525.94
2522.97
2519.94
2516.84
2513.67
2510.43
2507.11
2503.72
2500.25
2496.7
2493.07
2489.37
2485.57
2481.7
2477.74
2473.69
2469.55
2465.33
2461.01
2456.59
2452.08
2447.47
2442.77
2437.96
2433.05
2428.03
2422.91
2417.68
2412.34
2406.89
2401.32
2395.64
2389.85
2383.93
2377.9
2371.74
2365.46
2359.06
2352.53
2345.87
2339.09
2332.17
2325.12
2317.94
2310.62
2303.17
2295.58
2287.85
2279.99
2271.98
2263.83
2255.54
2247.11
2238.54
2229.82
2220.95
2211.95
2202.8
2193.5
2184.06
2174.47
2164.74
2154.86
2144.83
2134.67
2124.35
2113.9
2103.3
2092.56
2081.68
2070.65
2059.49
2048.18
2036.74
2025.17
2013.45
2001.61
1989.63
1977.52
1965.28
1952.91
1940.42
1927.8
1915.06
1902.2
1889.23
1876.14
1862.94
1849.62
1836.2
1822.68
1809.05
1795.32
1781.5
1767.58
1753.57
1739.47
1725.29
1711.03
1696.69
1682.27
1667.78
1653.22
1638.6
1623.91
1609.17
1594.37
1579.52
1564.63
1549.69
1534.72
1519.71
1504.68
1489.61
1474.52
1459.41
1444.29
1429.16
1414.02
1398.87
1383.73
1368.6
1353.47
1338.36
1323.27
1308.21
1293.17
1278.16
1263.19
1248.26
1233.38
1218.54
1203.76
1189.03
1174.37
1159.77
1145.24
1130.78
1116.4
1102.11
1087.89
1073.77
1059.74
1045.81
1031.97
1018.24
1004.62
991.108
977.713
964.436
951.281
938.252
925.353
912.588
899.959
887.47
875.126
862.929
850.884
838.993
827.261
815.69
804.285
793.049
781.986
771.099
760.391
749.866
739.527
729.377
719.42
709.659
700.096
690.735
681.577
672.627
663.885
655.355
647.039
638.938
631.054
623.388
615.943
608.72
601.718
594.94
588.385
582.054
575.948
570.065
564.405
558.969
553.756
548.764
543.992
539.439
535.104
530.985
527.079
523.385
519.901
516.624
513.551
510.68
508.007
505.531
503.246
501.152
499.244
497.519
495.972
494.601
493.401
492.368
491.498
490.788
490.232
489.827
489.568
489.451
489.471
489.625
489.908
490.314
490.838
491.475
492.224
493.087
494.061
495.148
496.344
497.643
499.039
500.524
502.092
503.736
505.45
507.229
509.068
510.963
512.911
514.907
516.947
519.028
521.146
523.298
525.48
527.687
529.917
532.166
534.429
536.703
538.984
541.268
543.553
545.834
548.11
550.375
552.628
554.864
557.082
559.277
561.446
563.588
565.698
567.774
569.813
571.813
573.771
575.684
577.551
579.368
581.135
582.848
584.505
586.106
587.647
589.128
590.547
591.902
593.192
594.416
595.573
596.662
597.68
598.628
599.504
600.307
601.035
601.686
602.26
602.755
603.169
603.5
603.749
603.916
604.002
2602.75
2602.69
2602.59
2602.43
2602.21
2601.94
2601.61
2601.23
2600.79
2600.3
2599.76
2599.16
2598.51
2597.81
2597.06
2596.25
2595.39
2594.48
2593.52
2592.51
2591.44
2590.33
2589.16
2587.94
2586.67
2585.35
2583.98
2582.55
2581.08
2579.55
2577.97
2576.33
2574.65
2572.91
2571.12
2569.27
2567.37
2565.42
2563.41
2561.35
2559.24
2557.06
2554.84
2552.55
2550.21
2547.81
2545.35
2542.84
2540.26
2537.62
2534.93
2532.16
2529.34
2526.45
2523.49
2520.47
2517.38
2514.21
2510.98
2507.67
2504.29
2500.83
2497.29
2493.68
2489.98
2486.2
2482.34
2478.4
2474.36
2470.24
2466.03
2461.73
2457.33
2452.83
2448.24
2443.55
2438.76
2433.87
2428.87
2423.77
2418.56
2413.24
2407.8
2402.26
2396.6
2390.82
2384.93
2378.92
2372.78
2366.52
2360.14
2353.63
2346.99
2340.22
2333.32
2326.29
2319.13
2311.83
2304.39
2296.82
2289.11
2281.26
2273.26
2265.13
2256.85
2248.44
2239.87
2231.17
2222.31
2213.32
2204.17
2194.88
2185.45
2175.87
2166.14
2156.27
2146.25
2136.08
2125.77
2115.32
2104.72
2093.97
2083.09
2072.06
2060.89
2049.58
2038.13
2026.54
2014.82
2002.96
1990.97
1978.85
1966.6
1954.21
1941.7
1929.07
1916.31
1903.43
1890.43
1877.32
1864.09
1850.75
1837.31
1823.75
1810.09
1796.33
1782.48
1768.52
1754.48
1740.35
1726.13
1711.83
1697.45
1683
1668.47
1653.87
1639.21
1624.49
1609.71
1594.87
1579.98
1565.04
1550.06
1535.03
1519.97
1504.88
1489.76
1474.61
1459.45
1444.26
1429.07
1413.87
1398.67
1383.47
1368.28
1353.1
1337.93
1322.78
1307.66
1292.56
1277.5
1262.47
1247.48
1232.53
1217.64
1202.8
1188.02
1173.3
1158.64
1144.06
1129.55
1115.11
1100.76
1086.5
1072.32
1058.24
1044.26
1030.37
1016.6
1002.93
989.37
975.93
962.608
949.41
936.339
923.399
910.592
897.923
885.395
873.013
860.778
848.696
836.769
825.002
813.397
801.96
790.692
779.598
768.681
757.944
747.392
737.027
726.853
716.873
707.091
697.508
688.129
678.955
669.99
661.236
652.695
644.37
636.262
628.373
620.705
613.26
606.038
599.04
592.267
585.72
579.399
573.304
567.435
561.792
556.374
551.18
546.209
541.461
536.933
532.625
528.534
524.658
520.996
517.545
514.301
511.264
508.43
505.795
503.357
501.113
499.06
497.193
495.51
494.006
492.679
491.523
490.535
489.711
489.046
488.537
488.179
487.968
487.899
487.97
488.174
488.509
488.969
489.551
490.252
491.069
491.998
493.036
494.178
495.42
496.759
498.19
499.708
501.309
502.987
504.737
506.554
508.434
510.371
512.362
514.402
516.487
518.612
520.774
522.969
525.194
527.443
529.714
532.003
534.306
536.619
538.939
541.262
543.584
545.902
548.213
550.513
552.799
555.069
557.318
559.543
561.743
563.913
566.052
568.155
570.221
572.247
574.229
576.167
578.056
579.896
581.683
583.416
585.093
586.711
588.269
589.766
591.198
592.566
593.868
595.102
596.267
597.362
598.386
599.338
600.217
601.021
601.75
602.403
602.977
603.472
603.886
604.218
604.467
604.635
604.721
2603.2
2603.15
2603.04
2602.88
2602.67
2602.4
2602.07
2601.7
2601.27
2600.78
2600.24
2599.65
2599
2598.31
2597.56
2596.75
2595.9
2595
2594.04
2593.03
2591.97
2590.86
2589.69
2588.48
2587.21
2585.89
2584.52
2583.1
2581.62
2580.1
2578.52
2576.89
2575.2
2573.46
2571.67
2569.83
2567.93
2565.98
2563.98
2561.92
2559.81
2557.64
2555.41
2553.13
2550.8
2548.4
2545.95
2543.44
2540.87
2538.24
2535.55
2532.79
2529.97
2527.09
2524.14
2521.13
2518.05
2514.89
2511.67
2508.38
2505.01
2501.56
2498.04
2494.44
2490.76
2487
2483.16
2479.23
2475.21
2471.11
2466.92
2462.63
2458.25
2453.78
2449.21
2444.54
2439.77
2434.9
2429.93
2424.85
2419.66
2414.36
2408.96
2403.44
2397.8
2392.05
2386.18
2380.19
2374.08
2367.84
2361.48
2354.99
2348.38
2341.63
2334.76
2327.75
2320.61
2313.33
2305.91
2298.36
2290.67
2282.84
2274.86
2266.75
2258.49
2250.08
2241.54
2232.84
2224.01
2215.02
2205.89
2196.61
2187.18
2177.61
2167.89
2158.02
2148.01
2137.84
2127.54
2117.08
2106.48
2095.74
2084.85
2073.81
2062.64
2051.32
2039.86
2028.27
2016.53
2004.66
1992.65
1980.51
1968.24
1955.84
1943.31
1930.65
1917.87
1904.96
1891.94
1878.8
1865.54
1852.17
1838.69
1825.1
1811.41
1797.61
1783.71
1769.72
1755.64
1741.46
1727.2
1712.85
1698.42
1683.92
1669.33
1654.68
1639.96
1625.18
1610.34
1595.44
1580.49
1565.49
1550.44
1535.35
1520.23
1505.07
1489.89
1474.68
1459.45
1444.2
1428.94
1413.67
1398.4
1383.13
1367.87
1352.62
1337.38
1322.15
1306.96
1291.79
1276.65
1261.55
1246.49
1231.47
1216.51
1201.6
1186.74
1171.95
1157.23
1142.57
1128
1113.5
1099.08
1084.75
1070.51
1056.37
1042.32
1028.38
1014.54
1000.81
987.196
973.698
960.321
947.069
933.944
920.951
908.093
895.373
882.796
870.365
858.083
845.955
833.983
822.172
810.525
799.046
787.738
776.605
765.65
754.878
744.292
733.894
723.69
713.681
703.871
694.264
684.861
675.667
666.683
657.913
649.359
641.022
632.906
625.011
617.34
609.893
602.673
595.679
588.914
582.376
576.067
569.987
564.136
558.512
553.116
547.947
543.004
538.285
533.789
529.514
525.459
521.621
517.998
514.588
511.388
508.395
505.607
503.02
500.631
498.438
496.436
494.622
492.993
491.544
490.271
489.172
488.241
487.475
486.869
486.419
486.121
485.97
485.963
486.095
486.361
486.759
487.282
487.927
488.691
489.569
490.559
491.656
492.857
494.159
495.558
497.049
498.626
500.285
502.02
503.827
505.701
507.637
509.63
511.676
513.771
515.91
518.09
520.306
522.555
524.832
527.134
529.457
531.797
534.149
536.511
538.879
541.25
543.619
545.983
548.338
550.682
553.011
555.322
557.611
559.877
562.114
564.322
566.496
568.634
570.734
572.792
574.806
576.774
578.692
580.56
582.374
584.132
585.833
587.474
589.054
590.57
592.022
593.407
594.724
595.972
597.15
598.256
599.289
600.248
601.132
601.94
602.672
603.325
603.9
604.394
604.808
605.14
605.389
605.557
605.645
2603.77
2603.71
2603.61
2603.45
2603.24
2602.97
2602.65
2602.28
2601.85
2601.37
2600.83
2600.25
2599.61
2598.91
2598.17
2597.37
2596.52
2595.62
2594.67
2593.66
2592.6
2591.49
2590.33
2589.12
2587.85
2586.54
2585.17
2583.74
2582.27
2580.74
2579.17
2577.53
2575.85
2574.12
2572.33
2570.49
2568.59
2566.64
2564.64
2562.59
2560.48
2558.31
2556.09
2553.82
2551.49
2549.1
2546.65
2544.15
2541.59
2538.96
2536.28
2533.54
2530.73
2527.86
2524.92
2521.92
2518.85
2515.71
2512.5
2509.22
2505.87
2502.44
2498.94
2495.36
2491.7
2487.96
2484.13
2480.22
2476.23
2472.15
2467.98
2463.72
2459.37
2454.92
2450.37
2445.73
2440.99
2436.15
2431.2
2426.15
2420.99
2415.72
2410.34
2404.85
2399.24
2393.52
2387.67
2381.71
2375.63
2369.42
2363.09
2356.63
2350.05
2343.33
2336.48
2329.5
2322.38
2315.13
2307.74
2300.21
2292.55
2284.74
2276.78
2268.69
2260.45
2252.07
2243.54
2234.86
2226.04
2217.07
2207.95
2198.68
2189.27
2179.7
2169.99
2160.13
2150.12
2139.96
2129.65
2119.2
2108.6
2097.85
2086.96
2075.92
2064.74
2053.41
2041.94
2030.33
2018.58
2006.7
1994.67
1982.51
1970.22
1957.79
1945.24
1932.55
1919.74
1906.81
1893.75
1880.58
1867.28
1853.88
1840.35
1826.72
1812.99
1799.15
1785.2
1771.16
1757.02
1742.79
1728.48
1714.07
1699.59
1685.02
1670.38
1655.67
1640.88
1626.04
1611.13
1596.16
1581.13
1566.06
1550.94
1535.78
1520.58
1505.34
1490.08
1474.78
1459.47
1444.14
1428.8
1413.44
1398.09
1382.73
1367.38
1352.04
1336.71
1321.41
1306.12
1290.86
1275.64
1260.45
1245.3
1230.2
1215.14
1200.15
1185.21
1170.33
1155.52
1140.79
1126.13
1111.55
1097.05
1082.64
1068.32
1054.1
1039.98
1025.97
1012.06
998.258
984.574
971.009
957.565
944.247
931.058
918.002
905.082
892.302
879.665
867.176
854.838
842.654
830.628
818.764
807.065
795.536
784.179
773
762
751.185
740.557
730.12
719.878
709.835
699.992
690.354
680.924
671.705
662.699
653.91
645.339
636.988
628.861
620.959
613.283
605.835
598.617
591.629
584.871
578.345
572.051
565.989
560.158
554.559
549.19
544.05
539.14
534.456
529.998
525.764
521.752
517.96
514.385
511.025
507.877
504.939
502.207
499.678
497.348
495.216
493.277
491.526
489.962
488.579
487.374
486.343
485.481
484.784
484.249
483.871
483.645
483.567
483.634
483.84
484.181
484.654
485.253
485.976
486.816
487.772
488.839
490.013
491.29
492.666
494.136
495.697
497.343
499.069
500.872
502.746
504.686
506.688
508.748
510.86
513.021
515.226
517.471
519.752
522.065
524.406
526.77
529.154
531.554
533.967
536.388
538.814
541.24
543.664
546.083
548.491
550.887
553.267
555.627
557.965
560.277
562.561
564.812
567.03
569.209
571.349
573.446
575.498
577.502
579.455
581.356
583.202
584.991
586.721
588.39
589.995
591.537
593.011
594.418
595.755
597.021
598.215
599.335
600.38
601.35
602.243
603.059
603.796
604.453
605.03
605.526
605.94
606.271
606.521
606.692
606.78
2604.45
2604.39
2604.29
2604.13
2603.92
2603.66
2603.34
2602.97
2602.54
2602.07
2601.54
2600.95
2600.32
2599.63
2598.89
2598.09
2597.24
2596.35
2595.39
2594.39
2593.34
2592.23
2591.07
2589.85
2588.59
2587.27
2585.9
2584.48
2583.01
2581.49
2579.91
2578.28
2576.6
2574.86
2573.08
2571.24
2569.35
2567.4
2565.4
2563.35
2561.25
2559.09
2556.88
2554.61
2552.28
2549.9
2547.46
2544.97
2542.42
2539.8
2537.13
2534.4
2531.6
2528.75
2525.82
2522.84
2519.78
2516.66
2513.47
2510.21
2506.87
2503.47
2499.98
2496.42
2492.79
2489.07
2485.27
2481.39
2477.42
2473.36
2469.22
2464.99
2460.66
2456.24
2451.73
2447.12
2442.41
2437.59
2432.68
2427.66
2422.53
2417.29
2411.95
2406.49
2400.91
2395.23
2389.42
2383.49
2377.44
2371.27
2364.97
2358.55
2351.99
2345.31
2338.49
2331.54
2324.46
2317.23
2309.87
2302.37
2294.73
2286.95
2279.02
2270.95
2262.74
2254.38
2245.87
2237.21
2228.41
2219.46
2210.35
2201.1
2191.7
2182.15
2172.44
2162.59
2152.59
2142.43
2132.13
2121.68
2111.08
2100.33
2089.43
2078.38
2067.19
2055.85
2044.37
2032.75
2020.99
2009.08
1997.04
1984.85
1972.54
1960.08
1947.5
1934.78
1921.94
1908.97
1895.88
1882.66
1869.32
1855.87
1842.3
1828.62
1814.84
1800.94
1786.94
1772.84
1758.65
1744.36
1729.98
1715.51
1700.95
1686.31
1671.6
1656.81
1641.95
1627.02
1612.03
1596.98
1581.88
1566.72
1551.51
1536.26
1520.97
1505.64
1490.28
1474.89
1459.49
1444.06
1428.62
1413.17
1397.71
1382.25
1366.8
1351.36
1335.93
1320.52
1305.13
1289.77
1274.44
1259.15
1243.9
1228.69
1213.54
1198.44
1183.4
1168.43
1153.52
1138.69
1123.93
1109.26
1094.67
1080.17
1065.76
1051.45
1037.24
1023.14
1009.15
995.267
981.502
967.856
954.334
940.94
927.676
914.546
901.554
888.703
875.997
863.44
851.035
838.786
826.697
814.77
803.012
791.424
780.01
768.776
757.723
746.857
736.18
725.697
715.411
705.326
695.445
685.772
676.309
667.06
658.028
649.215
640.624
632.258
624.118
616.207
608.526
601.077
593.861
586.878
580.131
573.618
567.341
561.3
555.494
549.923
544.586
539.481
534.609
529.968
525.555
521.369
517.408
513.669
510.151
506.85
503.764
500.89
498.224
495.763
493.504
491.443
489.578
487.903
486.415
485.11
483.984
483.033
482.253
481.639
481.187
480.893
480.752
480.76
480.913
481.206
481.635
482.195
482.882
483.693
484.622
485.666
486.821
488.082
489.445
490.906
492.461
494.105
495.834
497.642
499.526
501.48
503.5
505.582
507.72
509.911
512.149
514.431
516.753
519.109
521.497
523.911
526.348
528.804
531.275
533.757
536.246
538.739
541.232
543.721
546.202
548.673
551.129
553.568
555.986
558.38
560.747
563.083
565.387
567.654
569.882
572.069
574.211
576.306
578.352
580.346
582.286
584.169
585.993
587.757
589.458
591.094
592.664
594.166
595.598
596.958
598.246
599.459
600.597
601.659
602.643
603.548
604.374
605.12
605.785
606.367
606.867
607.283
607.617
607.869
608.042
608.131
2605.25
2605.19
2605.09
2604.93
2604.72
2604.46
2604.14
2603.78
2603.35
2602.88
2602.35
2601.77
2601.14
2600.45
2599.71
2598.92
2598.07
2597.17
2596.22
2595.22
2594.17
2593.06
2591.9
2590.69
2589.42
2588.11
2586.74
2585.32
2583.84
2582.32
2580.74
2579.12
2577.44
2575.71
2573.92
2572.09
2570.2
2568.26
2566.26
2564.22
2562.12
2559.97
2557.76
2555.5
2553.18
2550.81
2548.38
2545.9
2543.36
2540.76
2538.1
2535.38
2532.6
2529.75
2526.85
2523.88
2520.84
2517.74
2514.57
2511.33
2508.02
2504.63
2501.17
2497.64
2494.03
2490.34
2486.56
2482.71
2478.77
2474.75
2470.64
2466.43
2462.14
2457.76
2453.27
2448.7
2444.02
2439.24
2434.36
2429.38
2424.29
2419.09
2413.78
2408.36
2402.83
2397.18
2391.41
2385.52
2379.51
2373.38
2367.12
2360.73
2354.21
2347.57
2340.79
2333.87
2326.82
2319.64
2312.31
2304.84
2297.24
2289.48
2281.59
2273.55
2265.36
2257.02
2248.54
2239.91
2231.12
2222.19
2213.11
2203.87
2194.48
2184.95
2175.25
2165.41
2155.41
2145.27
2134.97
2124.52
2113.91
2103.16
2092.26
2081.21
2070.01
2058.66
2047.16
2035.52
2023.74
2011.81
1999.75
1987.54
1975.19
1962.71
1950.09
1937.34
1924.46
1911.45
1898.31
1885.05
1871.67
1858.17
1844.54
1830.81
1816.96
1803.01
1788.95
1774.78
1760.52
1746.16
1731.7
1717.16
1702.52
1687.81
1673.01
1658.13
1643.19
1628.17
1613.09
1597.94
1582.74
1567.48
1552.17
1536.82
1521.43
1505.99
1490.53
1475.03
1459.51
1443.97
1428.42
1412.85
1397.28
1381.71
1366.14
1350.58
1335.03
1319.5
1304
1288.52
1273.07
1257.66
1242.29
1226.97
1211.7
1196.48
1181.33
1166.24
1151.22
1136.28
1121.41
1106.63
1091.93
1077.32
1062.81
1048.4
1034.09
1019.89
1005.8
991.826
977.968
964.232
950.621
937.139
923.789
910.574
897.5
884.568
871.783
859.148
846.667
834.343
822.181
810.183
798.355
786.7
775.221
763.923
752.809
741.884
731.151
720.615
710.278
700.145
690.22
680.505
671.004
661.721
652.658
643.819
635.205
626.82
618.666
610.744
603.057
595.606
588.392
581.417
574.681
568.184
561.927
555.91
550.133
544.594
539.294
534.231
529.403
524.81
520.45
516.319
512.418
508.742
505.289
502.057
499.042
496.241
493.652
491.27
489.093
487.116
485.335
483.747
482.348
481.134
480.1
479.241
478.555
478.036
477.681
477.483
477.44
477.547
477.799
478.191
478.72
479.381
480.169
481.081
482.111
483.256
484.511
485.871
487.334
488.893
490.545
492.286
494.11
496.013
497.99
500.037
502.15
504.323
506.552
508.832
511.16
513.53
515.939
518.382
520.855
523.353
525.874
528.412
530.963
533.525
536.092
538.662
541.229
543.792
546.346
548.887
551.413
553.919
556.403
558.861
561.29
563.687
566.05
568.374
570.657
572.897
575.091
577.236
579.33
581.369
583.353
585.278
587.143
588.945
590.683
592.354
593.956
595.489
596.95
598.337
599.65
600.887
602.046
603.127
604.128
605.049
605.889
606.646
607.321
607.912
608.418
608.84
609.179
609.434
609.609
609.699
2606.16
2606.1
2606
2605.85
2605.64
2605.38
2605.06
2604.7
2604.27
2603.8
2603.27
2602.69
2602.06
2601.37
2600.64
2599.84
2599
2598.1
2597.15
2596.15
2595.09
2593.99
2592.83
2591.61
2590.35
2589.03
2587.67
2586.25
2584.77
2583.25
2581.68
2580.05
2578.37
2576.64
2574.86
2573.03
2571.14
2569.21
2567.22
2565.18
2563.09
2560.94
2558.74
2556.49
2554.18
2551.82
2549.4
2546.93
2544.4
2541.82
2539.17
2536.47
2533.7
2530.88
2527.99
2525.04
2522.03
2518.95
2515.8
2512.58
2509.3
2505.94
2502.51
2499
2495.42
2491.76
2488.01
2484.19
2480.29
2476.3
2472.22
2468.05
2463.8
2459.45
2455.01
2450.47
2445.83
2441.09
2436.26
2431.31
2426.27
2421.11
2415.84
2410.47
2404.97
2399.37
2393.64
2387.8
2381.83
2375.74
2369.53
2363.18
2356.71
2350.11
2343.37
2336.5
2329.49
2322.34
2315.05
2307.62
2300.05
2292.34
2284.48
2276.47
2268.31
2260
2251.55
2242.94
2234.19
2225.28
2216.21
2207
2197.63
2188.1
2178.42
2168.59
2158.6
2148.46
2138.17
2127.72
2117.11
2106.36
2095.45
2084.39
2073.18
2061.82
2050.31
2038.65
2026.85
2014.9
2002.81
1990.57
1978.19
1965.68
1953.02
1940.23
1927.31
1914.25
1901.07
1887.75
1874.32
1860.76
1847.08
1833.28
1819.37
1805.34
1791.21
1776.97
1762.63
1748.19
1733.65
1719.02
1704.3
1689.49
1674.6
1659.63
1644.58
1629.46
1614.28
1599.02
1583.71
1568.34
1552.92
1537.45
1521.94
1506.39
1490.8
1475.18
1459.54
1443.87
1428.19
1412.49
1396.79
1381.09
1365.39
1349.69
1334.01
1318.35
1302.71
1287.09
1271.51
1255.97
1240.46
1225.01
1209.6
1194.26
1178.97
1163.76
1148.61
1133.54
1118.55
1103.64
1088.82
1074.1
1059.47
1044.94
1030.52
1016.21
1002.01
987.929
973.966
960.127
946.416
932.835
919.388
906.079
892.911
879.888
867.014
854.291
841.724
829.316
817.071
804.993
793.086
781.355
769.801
758.431
747.248
736.256
725.459
714.862
704.467
694.28
684.303
674.541
664.997
655.675
646.577
637.707
629.067
620.661
612.49
604.557
596.863
589.41
582.199
575.232
568.508
562.03
555.796
549.807
544.062
538.561
533.303
528.287
523.511
518.973
514.672
510.606
506.772
503.168
499.79
496.636
493.703
490.987
488.485
486.194
484.109
482.227
480.544
479.055
477.757
476.645
475.716
474.963
474.384
473.973
473.727
473.64
473.708
473.926
474.29
474.795
475.437
476.211
477.113
478.138
479.282
480.54
481.908
483.381
484.955
486.625
488.387
490.237
492.169
494.18
496.264
498.416
500.633
502.91
505.242
507.624
510.053
512.523
515.031
517.571
520.141
522.734
525.349
527.979
530.622
533.273
535.929
538.585
541.237
543.883
546.518
549.139
551.743
554.325
556.883
559.413
561.912
564.377
566.806
569.194
571.539
573.839
576.091
578.292
580.439
582.53
584.564
586.536
588.446
590.291
592.07
593.78
595.419
596.986
598.48
599.898
601.239
602.502
603.686
604.789
605.811
606.75
607.606
608.378
609.066
609.668
610.184
610.613
610.957
611.216
611.395
611.487
2607.19
2607.13
2607.03
2606.87
2606.67
2606.41
2606.09
2605.72
2605.3
2604.83
2604.3
2603.72
2603.09
2602.41
2601.67
2600.87
2600.03
2599.13
2598.18
2597.18
2596.12
2595.01
2593.85
2592.64
2591.38
2590.06
2588.69
2587.27
2585.8
2584.28
2582.7
2581.08
2579.4
2577.68
2575.9
2574.07
2572.19
2570.26
2568.27
2566.24
2564.15
2562.01
2559.82
2557.58
2555.28
2552.93
2550.53
2548.07
2545.55
2542.98
2540.36
2537.67
2534.92
2532.12
2529.25
2526.33
2523.33
2520.28
2517.15
2513.96
2510.71
2507.38
2503.98
2500.5
2496.95
2493.32
2489.62
2485.83
2481.96
2478.01
2473.97
2469.85
2465.63
2461.32
2456.92
2452.43
2447.83
2443.14
2438.35
2433.45
2428.45
2423.34
2418.13
2412.8
2407.35
2401.8
2396.12
2390.33
2384.41
2378.37
2372.2
2365.91
2359.49
2352.93
2346.24
2339.41
2332.45
2325.35
2318.1
2310.72
2303.19
2295.51
2287.69
2279.72
2271.6
2263.32
2254.9
2246.32
2237.59
2228.71
2219.67
2210.48
2201.13
2191.62
2181.96
2172.14
2162.16
2152.02
2141.73
2131.29
2120.69
2109.93
2099.01
2087.95
2076.73
2065.35
2053.83
2042.15
2030.32
2018.35
2006.22
1993.96
1981.54
1968.99
1956.3
1943.46
1930.49
1917.38
1904.15
1890.78
1877.28
1863.66
1849.91
1836.04
1822.06
1807.96
1793.75
1779.42
1765
1750.47
1735.84
1721.11
1706.29
1691.38
1676.38
1661.31
1646.15
1630.92
1615.61
1600.24
1584.81
1569.31
1553.77
1538.17
1522.52
1506.83
1491.11
1475.35
1459.57
1443.76
1427.94
1412.1
1396.25
1380.4
1364.55
1348.7
1332.87
1317.05
1301.26
1285.5
1269.76
1254.07
1238.41
1222.81
1207.26
1191.76
1176.33
1160.97
1145.68
1130.47
1115.34
1100.29
1085.34