/*--------------------------------*- C++ -*----------------------------------*\
| =========                 |                                                 |
| \\      /  F ield         | OpenFOAM: The Open Source CFD Toolbox           |
|  \\    /   O peration     | Version:  v2006                                 |
|   \\  /    A nd           | Website:  www.openfoam.com                      |
|    \\/     M anipulation  |                                                 |
\*---------------------------------------------------------------------------*/
FoamFile
{
    version     2.0;
    format      ascii;
    class       surfaceScalarField;
    location    "18";
    object      phi;
}
// * * * * * * * * * * * * * * * * * * * * * * * * * * * * * * * * * * * * * //

dimensions      [0 3 -1 0 0 0 0];
oriented        oriented;


internalField   nonuniform List<scalar> 
104500
(
-9.65359e-06
9.65359e-06
-1.3225e-05
3.57137e-06
-1.78722e-05
4.64722e-06
-2.34903e-05
5.61807e-06
-2.94309e-05
5.9407e-06
-3.55486e-05
6.11766e-06
-4.17728e-05
6.22424e-06
-4.81121e-05
6.33928e-06
-5.461e-05
6.49782e-06
-6.13131e-05
6.70317e-06
-6.82582e-05
6.94503e-06
-7.5471e-05
7.21287e-06
-8.29708e-05
7.49982e-06
-9.07729e-05
7.80203e-06
-9.88909e-05
8.11803e-06
-0.000107338
8.44736e-06
-0.000116128
8.78974e-06
-0.000125273
9.14505e-06
-0.000134786
9.51327e-06
-0.000144681
9.89477e-06
-0.000154971
1.02899e-05
-0.000165669
1.06985e-05
-0.000176789
1.11198e-05
-0.000188342
1.1553e-05
-0.00020034
1.19979e-05
-0.000212796
1.24562e-05
-0.000225727
1.29307e-05
-0.000239151
1.34242e-05
-0.000253089
1.39381e-05
-0.000267562
1.44727e-05
-0.000282589
1.50271e-05
-0.000298189
1.55996e-05
-0.000314379
1.61899e-05
-0.00033118
1.68008e-05
-0.000348618
1.74381e-05
-0.000366727
1.81094e-05
-0.000385549
1.88218e-05
-0.000405129
1.95798e-05
-0.000425514
2.0385e-05
-0.000446752
2.1238e-05
-0.000468895
2.21432e-05
-0.000492007
2.31123e-05
-0.000516172
2.41644e-05
-0.000541492
2.53199e-05
-0.000568081
2.65894e-05
-0.000596042
2.7961e-05
-0.000625435
2.93935e-05
-0.000656256
3.08209e-05
-0.000688423
3.21662e-05
-0.000721787
3.3364e-05
-0.000756164
3.43775e-05
-0.000791368
3.52036e-05
-0.000827233
3.58656e-05
-0.000863632
3.63981e-05
-0.000900467
3.68356e-05
-0.000937673
3.7206e-05
-0.000975202
3.75286e-05
-0.00101302
3.78137e-05
-0.00105108
3.80631e-05
-0.00108935
3.82733e-05
-0.00112779
3.84382e-05
-0.00116634
3.85534e-05
-0.00120496
3.8618e-05
-0.0012436
3.86353e-05
-0.00128221
3.86113e-05
-0.00132076
3.85529e-05
-0.00135923
3.84661e-05
-0.00139758
3.8355e-05
-0.0014358
3.82218e-05
-0.00147387
3.80672e-05
-0.00151176
3.78915e-05
-0.00154946
3.76951e-05
-0.00158694
3.74795e-05
-0.00162418
3.72474e-05
-0.00166119
3.70027e-05
-0.00169794
3.67497e-05
-0.00173443
3.6493e-05
-0.00177067
3.62369e-05
-0.00180665
3.59848e-05
-0.00184239
3.57392e-05
-0.00187789
3.55017e-05
-0.00191317
3.52729e-05
-0.00194822
3.50526e-05
-0.00198306
3.48402e-05
-0.00201769
3.46343e-05
-0.00205213
3.44329e-05
-0.00208636
3.42329e-05
-0.00212039
3.40309e-05
-0.00215421
3.38231e-05
-0.00218782
3.36064e-05
-0.0022212
3.33778e-05
-0.00225433
3.31352e-05
-0.00228721
3.28776e-05
-0.00231982
3.26072e-05
-0.00235215
3.23296e-05
-0.0023842
3.20527e-05
-0.00241598
3.17845e-05
-0.00244751
3.15294e-05
-0.0024788
3.12874e-05
-0.00250985
3.10544e-05
-0.00254068
3.08239e-05
-0.00257127
3.05892e-05
-0.00260161
3.03442e-05
-0.0026317
3.00843e-05
-0.0026615
2.98065e-05
-0.00269101
2.9509e-05
-0.0027202
2.91907e-05
-0.00274905
2.88511e-05
-0.00277754
2.84899e-05
-0.00280565
2.81074e-05
-0.00283336
2.77041e-05
-0.00286064
2.72806e-05
-0.00288747
2.68375e-05
-0.00291385
2.63755e-05
-0.00293974
2.58956e-05
-0.00296514
2.53989e-05
-0.00299003
2.48865e-05
-0.00301439
2.43594e-05
-0.00303821
2.38188e-05
-0.00306147
2.32656e-05
-0.00308417
2.27011e-05
-0.0031063
2.21263e-05
-0.00312784
2.15423e-05
-0.00314879
2.09499e-05
-0.00316914
2.03495e-05
-0.00318888
1.97405e-05
-0.003208
1.9121e-05
-0.00322649
1.84873e-05
-0.00324433
1.78345e-05
-0.00326148
1.71563e-05
-0.00327793
1.64469e-05
-0.00329363
1.57017e-05
-0.00330855
1.49192e-05
-0.00332265
1.41017e-05
-0.00333591
1.32562e-05
-0.0033483
1.23934e-05
-0.00335983
1.15269e-05
-0.0033705
1.06708e-05
-0.00338034
9.83768e-06
-0.00338937
9.0369e-06
-0.00339765
8.27328e-06
-0.00340519
7.54694e-06
-0.00341205
6.85425e-06
-0.00341824
6.19032e-06
-0.00342379
5.55293e-06
-0.00342874
4.94729e-06
-0.00343312
4.386e-06
-0.00343702
3.89163e-06
-0.00344052
3.49892e-06
-0.00344375
3.23443e-06
-0.00344686
3.10693e-06
-0.00344999
3.13224e-06
-0.0034533
3.31016e-06
-0.00345689
3.59394e-06
-0.00346082
3.93146e-06
-0.00346509
4.26521e-06
-0.00346963
4.54153e-06
-0.00347433
4.70099e-06
-0.00347898
4.64756e-06
-0.0034833
4.32252e-06
-0.00348697
3.67015e-06
-0.00348957
2.60146e-06
-0.00349052
9.46166e-07
-0.00348924
-1.28181e-06
-0.00348537
-3.8634e-06
-0.00347877
-6.60585e-06
-0.00346949
-9.28201e-06
-0.00345772
-1.17694e-05
-0.0034437
-1.40152e-05
-0.00342769
-1.60166e-05
-0.00340988
-1.78012e-05
-0.00339047
-1.94116e-05
-0.00336958
-2.08931e-05
-0.00334729
-2.22878e-05
-0.00332366
-2.36304e-05
-0.00329871
-2.49469e-05
-0.00327246
-2.62543e-05
-0.0032449
-2.7562e-05
-0.00321603
-2.88731e-05
-0.00318584
-3.01854e-05
-0.00315435
-3.14926e-05
-0.00312156
-3.2785e-05
-0.00308751
-3.40506e-05
-0.00305224
-3.5276e-05
-0.00301579
-3.64478e-05
-0.00297823
-3.75532e-05
-0.00293965
-3.8582e-05
-0.00290013
-3.95264e-05
-0.00285974
-4.03823e-05
-0.0028186
-4.11486e-05
-0.00277677
-4.18276e-05
-0.00273434
-4.24238e-05
-0.0026914
-4.29434e-05
-0.00264801
-4.33944e-05
-0.00260422
-4.3785e-05
-0.0025601
-4.41245e-05
-0.00251567
-4.4422e-05
-0.00247099
-4.46867e-05
-0.00242606
-4.49273e-05
-0.00238091
-4.51516e-05
-0.00233554
-4.53659e-05
-0.00228997
-4.55744e-05
-0.00224419
-4.57791e-05
-0.00219821
-4.59792e-05
-0.00215204
-4.61719e-05
-0.00210569
-4.63528e-05
-0.00205917
-4.65164e-05
-0.00201251
-4.66571e-05
-0.00196574
-4.67701e-05
-0.00191889
-4.68513e-05
-0.00187199
-4.68979e-05
-0.00182508
-4.69084e-05
-0.0017782
-4.6882e-05
-0.00173138
-4.68189e-05
-0.00168466
-4.67197e-05
-0.00163808
-4.65851e-05
-0.00159166
-4.64162e-05
-0.00154545
-4.62136e-05
-0.00149947
-4.59785e-05
-0.00145376
-4.57115e-05
-0.00140834
-4.54137e-05
-0.00136326
-4.50859e-05
-0.00131853
-4.47293e-05
-0.00127418
-4.43451e-05
-0.00123025
-4.39346e-05
-0.00118675
-4.34992e-05
-0.00114371
-4.30404e-05
-0.00110115
-4.25595e-05
-0.00105909
-4.2058e-05
-0.00101756
-4.1537e-05
-0.000976558
-4.09979e-05
-0.000936116
-4.04418e-05
-0.000896246
-3.98698e-05
-0.000856964
-3.92827e-05
-0.000818282
-3.86814e-05
-0.000780216
-3.80665e-05
-0.000742778
-3.74382e-05
-0.000705981
-3.67969e-05
-0.000669838
-3.61424e-05
-0.000634364
-3.54743e-05
-0.000599572
-3.47919e-05
-0.000565478
-3.40937e-05
-0.000532101
-3.33778e-05
-0.000499459
-3.26414e-05
-0.000467579
-3.18806e-05
-0.000436488
-3.10906e-05
-0.000406223
-3.02651e-05
-0.000376828
-2.93953e-05
-0.000348359
-2.84684e-05
-0.000320892
-2.74676e-05
-0.000294518
-2.63736e-05
-0.000269348
-2.51704e-05
-0.000245499
-2.3849e-05
-0.000223075
-2.24241e-05
-0.000202141
-2.09333e-05
-0.000182714
-1.9427e-05
-0.000164764
-1.79504e-05
-0.000148241
-1.6523e-05
-0.0001331
-1.51409e-05
-0.000119321
-1.37785e-05
-0.000106919
-1.24028e-05
-9.59352e-05
-1.09834e-05
-8.64341e-05
-9.50107e-06
-7.84926e-05
-7.94155e-06
-7.21889e-05
-6.3037e-06
-6.76034e-05
-4.58544e-06
-6.48074e-05
-2.79604e-06
-6.38653e-05
-9.42077e-07
-6.48204e-05
9.55149e-07
-6.75852e-05
2.76476e-06
-7.21026e-05
4.51741e-06
-7.82454e-05
6.14281e-06
-8.58317e-05
7.58629e-06
-9.46921e-05
8.86039e-06
-0.000104735
1.00425e-05
-0.000115981
1.12468e-05
-0.000128514
1.25325e-05
-0.000142406
1.38923e-05
-0.0001575
1.50942e-05
-0.000172578
1.50774e-05
-0.000185019
1.24406e-05
-0.000191781
6.76294e-06
-0.000191224
-5.57546e-07
-0.000184179
-7.0445e-06
-0.000171853
-1.2326e-05
-0.000155846
-1.60078e-05
-0.000137642
-1.82037e-05
-0.000118418
-1.92235e-05
-9.9022e-05
-1.93964e-05
-8.00453e-05
-1.89767e-05
-6.18675e-05
-1.81778e-05
-4.46891e-05
-1.71784e-05
-2.86095e-05
-1.60795e-05
-1.36409e-05
-1.49687e-05
2.71258e-07
-1.39121e-05
1.31989e-05
-1.29276e-05
2.52355e-05
-1.20366e-05
3.64861e-05
-1.12506e-05
4.70522e-05
-1.05661e-05
5.70296e-05
-9.97744e-06
6.64763e-05
-9.4467e-06
7.54436e-05
-8.96728e-06
8.39763e-05
-8.53272e-06
9.20743e-05
-8.09798e-06
9.97243e-05
-7.64995e-06
0.000106905
-7.18123e-06
0.000113582
-6.67676e-06
0.000119724
-6.14215e-06
0.000125319
-5.59433e-06
0.000130353
-5.03456e-06
0.000134834
-4.48025e-06
0.000138774
-3.94071e-06
0.000142197
-3.42307e-06
0.00014512
-2.92266e-06
0.000147547
-2.42709e-06
0.000149497
-1.94968e-06
0.00015096
-1.46338e-06
0.000151939
-9.78599e-07
0.000152436
-4.97067e-07
0.000152455
-1.91945e-08
0.000151968
4.87107e-07
0.000150986
9.8178e-07
0.000149507
1.47883e-06
0.000147531
1.97659e-06
0.000145057
2.47327e-06
0.000142091
2.96677e-06
0.000138638
3.45285e-06
0.000134705
3.93321e-06
0.000130302
4.40283e-06
0.000125443
4.85865e-06
0.000120148
5.29506e-06
0.00011444
5.7077e-06
0.000108353
6.0877e-06
0.000101927
6.42568e-06
9.52144e-05
6.7126e-06
8.82764e-05
6.93801e-06
8.11784e-05
7.09798e-06
7.3982e-05
7.19642e-06
6.67571e-05
7.22483e-06
5.95712e-05
7.18596e-06
5.24877e-05
7.08345e-06
4.5574e-05
6.9137e-06
3.8913e-05
6.66103e-06
3.26104e-05
6.3026e-06
2.6793e-05
5.81738e-06
2.15898e-05
5.20317e-06
1.70724e-05
4.51745e-06
1.36855e-05
3.38691e-06
1.10637e-05
2.62183e-06
1.10637e-05
-3.05592e-05
4.02128e-05
-6.09719e-05
3.39841e-05
-9.34005e-05
3.70759e-05
-0.000125634
3.78518e-05
-0.000157534
3.78407e-05
-0.000189398
3.79813e-05
-0.000221322
3.81486e-05
-0.000253286
3.83031e-05
-0.000285237
3.84483e-05
-0.000317122
3.85886e-05
-0.0003489
3.87225e-05
-0.000380533
3.88468e-05
-0.00041199
3.89565e-05
-0.000443235
3.90469e-05
-0.000474232
3.91153e-05
-0.000504946
3.91613e-05
-0.000535344
3.9187e-05
-0.000565395
3.91962e-05
-0.000595076
3.91943e-05
-0.00062437
3.9189e-05
-0.000653269
3.91891e-05
-0.000681776
3.92049e-05
-0.000709903
3.92476e-05
-0.000737679
3.93284e-05
-0.000765138
3.94575e-05
-0.000792325
3.96428e-05
-0.000819284
3.98901e-05
-0.000846063
4.02029e-05
-0.000872708
4.05829e-05
-0.000899265
4.10295e-05
-0.000925777
4.15397e-05
-0.000952285
4.21077e-05
-0.000978821
4.27256e-05
-0.00100541
4.33865e-05
-0.00103206
4.40875e-05
-0.00105878
4.48326e-05
-0.00108559
4.56336e-05
-0.00111252
4.65075e-05
-0.00113961
4.74737e-05
-0.00116692
4.85502e-05
-0.00119453
4.97519e-05
-0.00122251
5.10901e-05
-0.00125091
5.25711e-05
-0.00127979
5.41922e-05
-0.00130913
5.59365e-05
-0.00133894
5.77673e-05
-0.00136917
5.96289e-05
-0.00139981
6.14529e-05
-0.0014308
6.31589e-05
-0.00146212
6.46874e-05
-0.00149375
6.60077e-05
-0.00152567
6.71177e-05
-0.00155784
6.80374e-05
-0.00159024
6.87993e-05
-0.00162284
6.94384e-05
-0.00165562
6.99856e-05
-0.00168856
7.04633e-05
-0.00172163
7.08844e-05
-0.00175482
7.12538e-05
-0.00178812
7.15709e-05
-0.00182151
7.18337e-05
-0.001855
7.20412e-05
-0.00188858
7.21956e-05
-0.00192224
7.23021e-05
-0.001956
7.23682e-05
-0.00198985
7.24017e-05
-0.00202379
7.24096e-05
-0.00205783
7.23966e-05
-0.00209198
7.23654e-05
-0.00212623
7.23166e-05
-0.00216059
7.22499e-05
-0.00219506
7.21647e-05
-0.00222964
7.20608e-05
-0.00226433
7.19387e-05
-0.00229912
7.17996e-05
-0.00233402
7.16453e-05
-0.002369
7.14777e-05
-0.00240407
7.12982e-05
-0.00243919
7.11078e-05
-0.00247436
7.09065e-05
-0.00250955
7.06931e-05
-0.00254474
7.04649e-05
-0.00257991
7.02183e-05
-0.00261501
6.99488e-05
-0.00265003
6.96511e-05
-0.00268492
6.93198e-05
-0.00271964
6.895e-05
-0.00275414
6.85393e-05
-0.00278841
6.80878e-05
-0.0028224
6.7599e-05
-0.0028561
6.70785e-05
-0.0028895
6.65331e-05
-0.00292259
6.59694e-05
-0.00295538
6.53935e-05
-0.00298786
6.48111e-05
-0.00302003
6.4226e-05
-0.00305189
6.36398e-05
-0.00308341
6.30511e-05
-0.00311458
6.24557e-05
-0.00314537
6.18474e-05
-0.00317577
6.12193e-05
-0.00320574
6.05653e-05
-0.00323528
5.988e-05
-0.00326435
5.91596e-05
-0.00329295
5.84013e-05
-0.00332104
5.76035e-05
-0.00334862
5.67651e-05
-0.00337565
5.58855e-05
-0.00340213
5.49644e-05
-0.00342802
5.40019e-05
-0.00345331
5.29984e-05
-0.00347799
5.19544e-05
-0.00350202
5.08704e-05
-0.00352539
4.97472e-05
-0.00354808
4.85853e-05
-0.00357007
4.73852e-05
-0.00359133
4.61476e-05
-0.00361184
4.48724e-05
-0.00363158
4.356e-05
-0.00365053
4.22101e-05
-0.00366865
4.08228e-05
-0.00368592
3.93983e-05
-0.00370232
3.7937e-05
-0.00371781
3.64397e-05
-0.00373236
3.49074e-05
-0.00374597
3.33411e-05
-0.00375859
3.1742e-05
-0.00377021
3.01112e-05
-0.00378083
2.84502e-05
-0.00379043
2.67611e-05
-0.00379903
2.50469e-05
-0.00380664
2.33123e-05
-0.00381328
2.1563e-05
-0.00381899
1.98065e-05
-0.00382378
1.80506e-05
-0.00382769
1.63036e-05
-0.00383074
1.45725e-05
-0.00383293
1.2863e-05
-0.00383427
1.11788e-05
-0.00383476
9.52213e-06
-0.00383438
7.89456e-06
-0.00383313
6.29812e-06
-0.00383101
4.73677e-06
-0.00382804
3.21773e-06
-0.00382424
1.75262e-06
-0.00381966
3.62429e-07
-0.00381432
-9.52427e-07
-0.00380821
-2.21738e-06
-0.00380135
-3.35926e-06
-0.0037937
-4.41559e-06
-0.00378518
-5.41376e-06
-0.00377565
-6.39391e-06
-0.00376493
-7.41198e-06
-0.00375281
-8.52736e-06
-0.00373908
-9.80143e-06
-0.00372352
-1.12912e-05
-0.00370594
-1.30415e-05
-0.00368617
-1.50617e-05
-0.00366419
-1.73374e-05
-0.00364003
-1.98421e-05
-0.00361382
-2.25349e-05
-0.00358586
-2.53583e-05
-0.00355668
-2.8233e-05
-0.0035269
-3.10671e-05
-0.00349693
-3.38291e-05
-0.00346702
-3.65127e-05
-0.00343721
-3.90915e-05
-0.00340743
-4.15543e-05
-0.00337754
-4.39057e-05
-0.00334739
-4.61606e-05
-0.00331686
-4.83386e-05
-0.00328581
-5.04595e-05
-0.00325416
-5.25404e-05
-0.00322186
-5.45937e-05
-0.00318886
-5.66271e-05
-0.00315516
-5.86436e-05
-0.00312078
-6.06422e-05
-0.00308572
-6.2619e-05
-0.00305002
-6.45675e-05
-0.00301373
-6.64799e-05
-0.00297687
-6.83469e-05
-0.0029395
-7.01589e-05
-0.00290165
-7.19059e-05
-0.00286334
-7.35788e-05
-0.00282462
-7.51699e-05
-0.0027855
-7.66738e-05
-0.00274599
-7.80878e-05
-0.00270611
-7.94125e-05
-0.00266584
-8.06516e-05
-0.00262518
-8.18113e-05
-0.0025841
-8.28996e-05
-0.0025426
-8.39253e-05
-0.00250065
-8.48965e-05
-0.00245822
-8.582e-05
-0.00241531
-8.67005e-05
-0.00237189
-8.75403e-05
-0.00232798
-8.83393e-05
-0.00228357
-8.90955e-05
-0.00223869
-8.98056e-05
-0.00219337
-9.04658e-05
-0.00214767
-9.10717e-05
-0.00210162
-9.16193e-05
-0.0020553
-9.21051e-05
-0.00200875
-9.25263e-05
-0.00196204
-9.28808e-05
-0.00191523
-9.31678e-05
-0.00186836
-9.33872e-05
-0.00182147
-9.354e-05
-0.00177462
-9.36276e-05
-0.00172781
-9.3652e-05
-0.0016811
-9.3615e-05
-0.00163449
-9.3518e-05
-0.00158801
-9.3362e-05
-0.00154168
-9.31476e-05
-0.00149552
-9.28746e-05
-0.00144957
-9.25424e-05
-0.00140383
-9.21504e-05
-0.00135835
-9.16981e-05
-0.00131314
-9.11851e-05
-0.00126824
-9.06117e-05
-0.00122368
-8.99785e-05
-0.00117948
-8.92869e-05
-0.00113567
-8.85386e-05
-0.00109228
-8.77356e-05
-0.00104933
-8.68804e-05
-0.00100685
-8.59754e-05
-0.000964872
-8.50231e-05
-0.000923405
-8.40262e-05
-0.000882476
-8.29873e-05
-0.000842104
-8.19089e-05
-0.000802308
-8.07935e-05
-0.000763106
-7.96437e-05
-0.000724514
-7.84619e-05
-0.000686547
-7.72504e-05
-0.000649216
-7.60115e-05
-0.000612536
-7.47471e-05
-0.000576515
-7.34589e-05
-0.000541163
-7.21486e-05
-0.000506488
-7.08174e-05
-0.000472496
-6.94663e-05
-0.000439193
-6.80956e-05
-0.000406581
-6.67057e-05
-0.000374663
-6.52959e-05
-0.000343439
-6.38654e-05
-0.000312907
-6.24127e-05
-0.000283062
-6.09356e-05
-0.000253895
-5.94315e-05
-0.000225393
-5.78975e-05
-0.000197531
-5.63305e-05
-0.00017027
-5.47287e-05
-0.000143551
-5.30923e-05
-0.000117296
-5.1425e-05
-9.14122e-05
-4.97333e-05
-6.581e-05
-4.80263e-05
-4.04313e-05
-4.6312e-05
-1.52655e-05
-4.45928e-05
9.64634e-06
-4.28623e-05
3.42334e-05
-4.111e-05
5.84004e-05
-3.9308e-05
8.20642e-05
-3.74423e-05
0.00010515
-3.54889e-05
0.000127601
-3.34337e-05
0.000149363
-3.12635e-05
0.00017038
-2.89588e-05
0.000190601
-2.65242e-05
0.000209969
-2.39535e-05
0.000228419
-2.12457e-05
0.000245898
-1.84218e-05
0.00026236
-1.55062e-05
0.00027768
-1.25557e-05
0.00029182
-9.62228e-06
0.000304748
-6.78516e-06
0.000316456
-4.12208e-06
0.000327055
-1.73797e-06
0.000336885
2.12295e-07
0.000346262
1.86966e-06
0.000355888
2.90626e-06
0.000366639
3.14115e-06
0.000379317
2.4164e-06
0.000393838
5.56866e-07
0.000409416
-3.13811e-06
0.000424204
-8.02483e-06
0.000436981
-1.33338e-05
0.000448301
-1.83647e-05
0.000458699
-2.27239e-05
0.000468907
-2.62166e-05
0.000479573
-2.88696e-05
0.000491188
-3.08382e-05
0.000504023
-3.22311e-05
0.00051809
-3.30445e-05
0.000533135
-3.32223e-05
0.000548724
-3.27679e-05
0.000564316
-3.16715e-05
0.000579353
-3.0005e-05
0.000593397
-2.79561e-05
0.000606185
-2.57158e-05
0.000617588
-2.34393e-05
0.000627534
-2.11966e-05
0.000636033
-1.90655e-05
0.000643147
-1.70917e-05
0.000648995
-1.52939e-05
0.000653708
-1.36805e-05
0.000657433
-1.22581e-05
0.000660332
-1.09968e-05
0.000662536
-9.85389e-06
0.000664128
-8.77328e-06
0.000665154
-7.70292e-06
0.000665609
-6.59703e-06
0.000665452
-5.43744e-06
0.000664638
-4.22037e-06
0.000663118
-2.95984e-06
0.000660851
-1.67455e-06
0.000657813
-3.85042e-07
0.000654053
8.37468e-07
0.000649598
2.02811e-06
0.000644474
3.17467e-06
0.000638725
4.2857e-06
0.000632373
5.37295e-06
0.000625433
6.44332e-06
0.000617903
7.51082e-06
0.000609798
8.59184e-06
0.000601097
9.68303e-06
0.000591784
1.07913e-05
0.000581837
1.19239e-05
0.000571221
1.30888e-05
0.000559905
1.4283e-05
0.000547848
1.55098e-05
0.000534998
1.67832e-05
0.000521298
1.81031e-05
0.000506683
1.94731e-05
0.000491085
2.08934e-05
0.000474419
2.23738e-05
0.000456609
2.38981e-05
0.000437578
2.54568e-05
0.000417268
2.70225e-05
0.000395633
2.85722e-05
0.00037266
3.00713e-05
0.000348379
3.14777e-05
0.000322847
3.27567e-05
0.000296171
3.38616e-05
0.000268497
3.47579e-05
0.000239985
3.54255e-05
0.000210805
3.58412e-05
0.000181114
3.59935e-05
0.000151026
3.59049e-05
0.000120549
3.56803e-05
8.95606e-05
3.55063e-05
5.82125e-05
3.4735e-05
2.88514e-05
3.19829e-05
3.9915e-05
-3.73666e-05
7.75794e-05
-7.31119e-05
6.97294e-05
-0.000111374
7.53382e-05
-0.000150063
7.65405e-05
-0.000188513
7.62906e-05
-0.000226706
7.61744e-05
-0.000264623
7.60654e-05
-0.000302186
7.58663e-05
-0.000339322
7.55844e-05
-0.000375965
7.5232e-05
-0.000412055
7.48125e-05
-0.000447536
7.43276e-05
-0.000482359
7.37789e-05
-0.000516481
7.31698e-05
-0.000549872
7.25057e-05
-0.000582506
7.17955e-05
-0.000614371
7.1052e-05
-0.000645466
7.02912e-05
-0.000675804
6.95321e-05
-0.00070541
6.87955e-05
-0.000734326
6.81046e-05
-0.000762604
6.74833e-05
-0.000790311
6.6954e-05
-0.000817517
6.65343e-05
-0.000844294
6.62349e-05
-0.00087071
6.60588e-05
-0.000896824
6.60037e-05
-0.000922685
6.60642e-05
-0.000948337
6.62347e-05
-0.000973818
6.65106e-05
-0.000999165
6.68872e-05
-0.00102442
6.73588e-05
-0.00104961
6.79171e-05
-0.00107477
6.8552e-05
-0.00109994
6.92538e-05
-0.00112512
7.00163e-05
-0.00115033
7.08402e-05
-0.00117556
7.17342e-05
-0.0012008
7.2713e-05
-0.00122604
7.37947e-05
-0.00125129
7.49968e-05
-0.00127653
7.63316e-05
-0.00130176
7.7802e-05
-0.00132696
7.93981e-05
-0.00135212
8.10939e-05
-0.0013772
8.28479e-05
-0.00140218
8.46075e-05
-0.00142704
8.63174e-05
-0.00145181
8.79279e-05
-0.00147653
8.94069e-05
-0.00150127
9.07403e-05
-0.00152608
9.19317e-05
-0.00155104
9.29978e-05
-0.0015762
9.3962e-05
-0.00160161
9.48472e-05
-0.0016273
9.56713e-05
-0.00165328
9.64445e-05
-0.00167956
9.717e-05
-0.00170616
9.78462e-05
-0.00173306
9.84701e-05
-0.00176026
9.90404e-05
-0.00178778
9.95586e-05
-0.00181561
0.000100029
-0.00184377
0.000100459
-0.00187226
0.000100855
-0.00190108
0.000101223
-0.00193024
0.000101568
-0.00195973
0.000101891
-0.00198956
0.000102192
-0.00201971
0.000102467
-0.00205017
0.000102715
-0.00208094
0.000102932
-0.002112
0.000103116
-0.00214332
0.000103265
-0.0021749
0.00010338
-0.00220672
0.000103459
-0.00223874
0.000103502
-0.00227095
0.000103511
-0.00230333
0.000103482
-0.00233584
0.000103416
-0.00236845
0.000103311
-0.00240115
0.000103163
-0.0024339
0.00010297
-0.00246669
0.00010273
-0.00249947
0.000102438
-0.00253225
0.000102092
-0.00256499
0.00010169
-0.00259768
0.000101232
-0.00263031
0.000100719
-0.00266287
0.000100156
-0.00269533
9.95476e-05
-0.0027277
9.89e-05
-0.00275995
9.82172e-05
-0.00279206
9.7502e-05
-0.002824
9.67559e-05
-0.00285576
9.59787e-05
-0.00288728
9.51685e-05
-0.00291856
9.43219e-05
-0.00294953
9.34347e-05
-0.00298019
9.25022e-05
-0.00301049
9.15206e-05
-0.00304041
9.04863e-05
-0.00306993
8.93969e-05
-0.00309902
8.82506e-05
-0.00312766
8.70462e-05
-0.00315584
8.57829e-05
-0.00318354
8.44602e-05
-0.00321073
8.30781e-05
-0.0032374
8.16366e-05
-0.00326354
8.01359e-05
-0.00328912
7.85765e-05
-0.00331412
7.69588e-05
-0.00333853
7.52833e-05
-0.00336234
7.35505e-05
-0.00338551
7.1761e-05
-0.00340804
6.99153e-05
-0.00342991
6.8014e-05
-0.00345109
6.60579e-05
-0.00347158
6.40478e-05
-0.00349136
6.19852e-05
-0.00351041
5.9872e-05
-0.00352872
5.77107e-05
-0.00354629
5.55044e-05
-0.0035631
5.32569e-05
-0.00357917
5.09718e-05
-0.00359448
4.86528e-05
-0.00360904
4.63028e-05
-0.00362285
4.39243e-05
-0.00363592
4.1519e-05
-0.00364825
3.9088e-05
-0.00365983
3.66328e-05
-0.00367068
3.41548e-05
-0.00368077
3.16561e-05
-0.0036901
2.91394e-05
-0.00369866
2.66083e-05
-0.00370642
2.40664e-05
-0.00371337
2.15176e-05
-0.00371947
1.89653e-05
-0.0037247
1.64122e-05
-0.00372904
1.38605e-05
-0.00373246
1.13123e-05
-0.00373493
8.77043e-06
-0.00373643
6.23865e-06
-0.00373694
3.72278e-06
-0.00373642
1.23061e-06
-0.00373485
-1.20975e-06
-0.00373218
-3.61873e-06
-0.00372842
-5.97311e-06
-0.00372349
-8.2924e-06
-0.00371733
-1.05763e-05
-0.00370989
-1.28484e-05
-0.00370115
-1.51392e-05
-0.00369108
-1.7483e-05
-0.00367969
-1.99174e-05
-0.00366702
-2.24737e-05
-0.00365313
-2.51745e-05
-0.00363814
-2.80347e-05
-0.00362214
-3.10646e-05
-0.00360521
-3.42623e-05
-0.00358744
-3.76095e-05
-0.00356891
-4.10726e-05
-0.00354967
-4.46e-05
-0.00352978
-4.8119e-05
-0.00350928
-5.1566e-05
-0.00348818
-5.49327e-05
-0.00346645
-5.82416e-05
-0.00344403
-6.15056e-05
-0.00342086
-6.47287e-05
-0.00339685
-6.79124e-05
-0.00337196
-7.10574e-05
-0.00334613
-7.41645e-05
-0.00331936
-7.72341e-05
-0.00329163
-8.02661e-05
-0.00326296
-8.32599e-05
-0.00323338
-8.62138e-05
-0.00320289
-8.91254e-05
-0.00317155
-9.19916e-05
-0.00313936
-9.4808e-05
-0.00310635
-9.75696e-05
-0.00307256
-0.00010027
-0.00303801
-0.000102904
-0.0030027
-0.000105464
-0.00296667
-0.000107942
-0.00292991
-0.000110332
-0.00289245
-0.000112629
-0.0028543
-0.000114828
-0.00281546
-0.000116927
-0.00277595
-0.000118925
-0.00273577
-0.000120826
-0.00269495
-0.000122632
-0.0026535
-0.00012435
-0.00261144
-0.000125986
-0.00256879
-0.000127545
-0.00252558
-0.000129033
-0.00248183
-0.00013045
-0.00243757
-0.000131799
-0.00239283
-0.000133075
-0.00234765
-0.000134277
-0.00230206
-0.000135398
-0.00225609
-0.000136434
-0.00220979
-0.000137377
-0.00216318
-0.000138223
-0.00211632
-0.000138968
-0.00206924
-0.000139607
-0.00202198
-0.000140139
-0.00197459
-0.000140564
-0.00192709
-0.000140882
-0.00187953
-0.000141096
-0.00183195
-0.000141209
-0.00178438
-0.000141224
-0.00173685
-0.000141143
-0.0016894
-0.000140969
-0.00164206
-0.000140704
-0.00159486
-0.000140348
-0.00154783
-0.000139901
-0.00150101
-0.000139365
-0.00145443
-0.000138737
-0.0014081
-0.000138019
-0.00136208
-0.00013721
-0.00131638
-0.000136312
-0.00127103
-0.000135325
-0.00122607
-0.000134252
-0.00118151
-0.000133096
-0.00113739
-0.000131859
-0.00109372
-0.000130545
-0.00105054
-0.000129157
-0.00100786
-0.0001277
-0.000965714
-0.000126176
-0.000924111
-0.00012459
-0.000883074
-0.000122946
-0.000842621
-0.000121247
-0.000802768
-0.000119496
-0.000763531
-0.000117699
-0.000724925
-0.000115857
-0.000686961
-0.000113975
-0.000649652
-0.000112056
-0.000613007
-0.000110103
-0.000577037
-0.000108119
-0.000541749
-0.000106106
-0.000507149
-0.000104066
-0.000473242
-0.000102002
-0.000440032
-9.99155e-05
-0.000407521
-9.78073e-05
-0.000375708
-9.56788e-05
-0.00034459
-9.35307e-05
-0.000314162
-9.13636e-05
-0.000284415
-8.91779e-05
-0.000255338
-8.69742e-05
-0.000226915
-8.4754e-05
-0.000199123
-8.25206e-05
-0.000171934
-8.02809e-05
-0.000145314
-7.80454e-05
-0.00011922
-7.5827e-05
-9.36097e-05
-7.36368e-05
-6.84432e-05
-7.14785e-05
-4.36914e-05
-6.93446e-05
-1.93359e-05
-6.72178e-05
4.63049e-06
-6.50764e-05
2.82294e-05
-6.29069e-05
5.14763e-05
-6.06892e-05
7.44064e-05
-5.84191e-05
9.70687e-05
-5.6096e-05
0.000119521
-5.37161e-05
0.000141845
-5.12822e-05
0.000164089
-4.8769e-05
0.00018632
-4.61839e-05
0.000208597
-4.35229e-05
0.000230964
-4.07893e-05
0.000253453
-3.79951e-05
0.000276064
-3.51668e-05
0.000298774
-3.23314e-05
0.000321528
-2.95392e-05
0.000344225
-2.68191e-05
0.00036674
-2.42531e-05
0.00038885
-2.18979e-05
0.000410522
-1.98023e-05
0.000431488
-1.806e-05
0.000451411
-1.67813e-05
0.00047021
-1.63825e-05
0.000487861
-1.70947e-05
0.000503766
-1.90428e-05
0.000517455
-2.17137e-05
0.000528638
-2.45173e-05
0.000537427
-2.71533e-05
0.000544193
-2.94904e-05
0.000549452
-3.14753e-05
0.000553711
-3.31282e-05
0.000557379
-3.45064e-05
0.000560735
-3.55871e-05
0.000563957
-3.62669e-05
0.000567157
-3.64226e-05
0.00057037
-3.59804e-05
0.000573648
-3.49498e-05
0.000577065
-3.34217e-05
0.000580642
-3.15331e-05
0.000584347
-2.94212e-05
0.000588087
-2.71792e-05
0.000591749
-2.48583e-05
0.000595189
-2.25053e-05
0.00059826
-2.01635e-05
0.000600843
-1.78763e-05
0.000602869
-1.57065e-05
0.000604308
-1.36975e-05
0.000605174
-1.1863e-05
0.000605504
-1.0184e-05
0.000605335
-8.6038e-06
0.000604703
-7.07138e-06
0.000603626
-5.51995e-06
0.000602097
-3.9082e-06
0.000600108
-2.2312e-06
0.000597654
-5.05848e-07
0.000594663
1.31633e-06
0.000591146
3.13227e-06
0.000587076
4.90686e-06
0.00058248
6.62455e-06
0.000577374
8.28015e-06
0.000571794
9.86573e-06
0.00056577
1.13975e-05
0.000559324
1.28889e-05
0.000552483
1.43519e-05
0.000545262
1.58133e-05
0.000537671
1.72736e-05
0.000529713
1.87492e-05
0.000521385
2.02517e-05
0.000512683
2.1791e-05
0.00050359
2.33764e-05
0.00049408
2.50194e-05
0.00048412
2.67436e-05
0.000473661
2.85618e-05
0.000462645
3.04889e-05
0.000450995
3.25438e-05
0.000438626
3.47432e-05
0.00042542
3.71036e-05
0.000411261
3.96156e-05
0.000396003
4.22804e-05
0.000379504
4.5072e-05
0.000361618
4.79572e-05
0.000342213
5.08828e-05
0.000321185
5.37845e-05
0.000298452
5.6594e-05
0.000273973
5.92369e-05
0.000247773
6.16259e-05
0.000219918
6.36961e-05
0.00019054
6.53712e-05
0.000159827
6.66179e-05
0.000128036
6.74715e-05
9.57138e-05
6.78285e-05
6.39899e-05
6.64588e-05
3.40579e-05
6.1915e-05
7.39729e-05
-3.47798e-05
0.000112359
-6.55738e-05
0.000100523
-9.95231e-05
0.000109288
-0.000134769
0.000111787
-0.00016971
0.000111231
-0.000204114
0.000110578
-0.000238048
0.00011
-0.000271476
0.000109294
-0.000304325
0.000108433
-0.000336534
0.000107441
-0.000368057
0.000106336
-0.00039886
0.00010513
-0.000428918
0.000103837
-0.000458218
0.00010247
-0.000486764
0.000101051
-0.000514571
9.96029e-05
-0.00054167
9.81506e-05
-0.000568102
9.67232e-05
-0.000593919
9.53499e-05
-0.000619183
9.40593e-05
-0.00064396
9.28814e-05
-0.000668321
9.18444e-05
-0.000692338
9.09713e-05
-0.000716081
9.02776e-05
-0.000739616
8.97697e-05
-0.000763002
8.94446e-05
-0.000786291
8.92923e-05
-0.000809526
8.92989e-05
-0.000832742
8.94511e-05
-0.000855968
8.97372e-05
-0.00087923
9.01485e-05
-0.000902549
9.06783e-05
-0.000925952
9.13198e-05
-0.000949466
9.20661e-05
-0.000973122
9.29096e-05
-0.000996948
9.38426e-05
-0.00102097
9.48593e-05
-0.00104519
9.59562e-05
-0.00106961
9.71331e-05
-0.00109421
9.83926e-05
-0.00111895
9.97379e-05
-0.00114379
0.000101171
-0.00116867
0.000102689
-0.00119356
0.000104283
-0.0012184
0.000105936
-0.00124318
0.000107623
-0.00126789
0.000109317
-0.00129256
0.000110988
-0.00131724
0.00011261
-0.001342
0.000114167
-0.00136691
0.000115649
-0.00139203
0.000117055
-0.00141742
0.00011839
-0.00144312
0.000119661
-0.00146915
0.000120877
-0.00149552
0.000122043
-0.00152224
0.000123161
-0.0015493
0.000124231
-0.00157671
0.000125251
-0.00160445
0.000126219
-0.00163255
0.000127136
-0.001661
0.000128004
-0.00168979
0.000128825
-0.00171894
0.000129604
-0.00174843
0.000130345
-0.00177825
0.00013105
-0.00180841
0.000131722
-0.00183887
0.000132358
-0.00186964
0.000132957
-0.00190069
0.000133517
-0.00193201
0.000134034
-0.00196358
0.000134504
-0.00199539
0.000134924
-0.00202742
0.000135294
-0.00205965
0.000135611
-0.00209206
0.000135874
-0.00212464
0.000136082
-0.00215736
0.000136234
-0.00219021
0.000136329
-0.00222316
0.000136366
-0.00225619
0.000136343
-0.00228929
0.000136257
-0.00232243
0.000136108
-0.00235559
0.000135894
-0.00238876
0.000135613
-0.00242194
0.000135265
-0.0024551
0.00013485
-0.00248823
0.00013437
-0.00252134
0.000133827
-0.00255441
0.000133222
-0.00258742
0.000132557
-0.00262035
0.000131833
-0.00265318
0.00013105
-0.00268589
0.000130208
-0.00271844
0.000129305
-0.0027508
0.000128342
-0.00278295
0.000127315
-0.00281485
0.000126223
-0.00284648
0.000125064
-0.00287781
0.000123835
-0.00290883
0.000122535
-0.0029395
0.000121162
-0.00296982
0.000119714
-0.00299976
0.000118192
-0.00302931
0.000116593
-0.00305844
0.000114919
-0.00308715
0.000113169
-0.00311542
0.000111342
-0.00314322
0.000109439
-0.00317054
0.000107461
-0.00319737
0.000105407
-0.00322369
0.000103279
-0.00324949
0.000101077
-0.00327474
9.88017e-05
-0.00329943
9.64541e-05
-0.00332355
9.40348e-05
-0.00334708
9.15451e-05
-0.00337001
8.89862e-05
-0.00339232
8.63596e-05
-0.003414
8.36672e-05
-0.00343504
8.09117e-05
-0.00345543
7.80959e-05
-0.00347515
7.52234e-05
-0.00349419
7.22977e-05
-0.00351254
6.93225e-05
-0.00353019
6.63011e-05
-0.00354712
6.32363e-05
-0.00356333
6.013e-05
-0.00357879
5.69833e-05
-0.0035935
5.37969e-05
-0.00360744
5.0571e-05
-0.00362059
4.73059e-05
-0.00363294
4.40022e-05
-0.00364446
4.06614e-05
-0.00365513
3.72855e-05
-0.00366495
3.38775e-05
-0.00367387
3.04409e-05
-0.00368188
2.69796e-05
-0.00368897
2.34978e-05
-0.00369511
1.99998e-05
-0.00370029
1.64901e-05
-0.00370449
1.29733e-05
-0.0037077
9.45434e-06
-0.00370992
5.93842e-06