/*--------------------------------*- C++ -*----------------------------------*\
| =========                 |                                                 |
| \\      /  F ield         | OpenFOAM: The Open Source CFD Toolbox           |
|  \\    /   O peration     | Version:  v2006                                 |
|   \\  /    A nd           | Website:  www.openfoam.com                      |
|    \\/     M anipulation  |                                                 |
\*---------------------------------------------------------------------------*/
FoamFile
{
    version     2.0;
    format      ascii;
    class       volVectorField;
    location    "18";
    object      U;
}
// * * * * * * * * * * * * * * * * * * * * * * * * * * * * * * * * * * * * * //

dimensions      [0 1 -1 0 0 0 0];


internalField   nonuniform List<vector> 
52500
(
(-0.000858647 -0.000378904 0)
(-0.00123417 -0.00151998 0)
(-0.00159851 -0.0015118 0)
(-0.002209 -0.00130069 0)
(-0.00282699 -0.00118981 0)
(-0.00347952 -0.00115196 0)
(-0.00414168 -0.0011493 0)
(-0.00481448 -0.00114993 0)
(-0.00550147 -0.00114035 0)
(-0.00620789 -0.00111903 0)
(-0.00693846 -0.00108888 0)
(-0.00769651 -0.00105298 0)
(-0.00848441 -0.00101298 0)
(-0.00930395 -0.000969397 0)
(-0.0101566 -0.000922141 0)
(-0.0110438 -0.000871108 0)
(-0.0119669 -0.000816201 0)
(-0.0129274 -0.000757185 0)
(-0.0139267 -0.000693805 0)
(-0.0149661 -0.000625716 0)
(-0.016047 -0.000552558 0)
(-0.0171709 -0.000474238 0)
(-0.0183393 -0.000391176 0)
(-0.0195535 -0.000304523 0)
(-0.0208149 -0.000215832 0)
(-0.0221245 -0.000126373 0)
(-0.0234841 -3.69006e-05 0)
(-0.0248955 5.21236e-05 0)
(-0.0263609 0.000140419 0)
(-0.0278823 0.000228033 0)
(-0.029462 0.000315247 0)
(-0.0311022 0.00040242 0)
(-0.0328046 0.000490308 0)
(-0.0345714 0.000580195 0)
(-0.0364048 0.0006734 0)
(-0.0383082 0.000770708 0)
(-0.0402856 0.000871924 0)
(-0.0423417 0.000975808 0)
(-0.0444814 0.00108059 0)
(-0.0467098 0.00118508 0)
(-0.0490323 0.00128999 0)
(-0.0514549 0.00139906 0)
(-0.0539852 0.001519 0)
(-0.0566333 0.0016581 0)
(-0.0594111 0.00182323 0)
(-0.0623305 0.00201641 0)
(-0.065401 0.00223215 0)
(-0.0686266 0.00245757 0)
(-0.0720028 0.00267563 0)
(-0.075517 0.00287067 0)
(-0.0791508 0.00303323 0)
(-0.0828835 0.00316193 0)
(-0.0866953 0.00326181 0)
(-0.0905701 0.00334062 0)
(-0.094496 0.00340573 0)
(-0.0984642 0.00346267 0)
(-0.102469 0.00351481 0)
(-0.106506 0.00356338 0)
(-0.110572 0.00360785 0)
(-0.114662 0.00364658 0)
(-0.118772 0.00367763 0)
(-0.122898 0.00369963 0)
(-0.127033 0.00371225 0)
(-0.131173 0.00371614 0)
(-0.135312 0.00371255 0)
(-0.139447 0.00370283 0)
(-0.143574 0.00368798 0)
(-0.147689 0.00366854 0)
(-0.151792 0.0036446 0)
(-0.15588 0.003616 0)
(-0.159949 0.00358256 0)
(-0.163999 0.00354436 0)
(-0.168027 0.00350183 0)
(-0.17203 0.00345576 0)
(-0.176008 0.00340726 0)
(-0.179959 0.00335753 0)
(-0.183883 0.0033078 0)
(-0.187779 0.00325911 0)
(-0.191648 0.00321231 0)
(-0.19549 0.00316805 0)
(-0.199306 0.0031268 0)
(-0.203097 0.00308897 0)
(-0.206865 0.00305498 0)
(-0.210609 0.00302525 0)
(-0.21433 0.00300015 0)
(-0.21803 0.00297971 0)
(-0.221709 0.00296356 0)
(-0.225366 0.00295082 0)
(-0.229001 0.00294035 0)
(-0.232614 0.00293082 0)
(-0.236202 0.0029209 0)
(-0.239766 0.00290931 0)
(-0.243303 0.00289525 0)
(-0.246811 0.00287873 0)
(-0.25029 0.00286088 0)
(-0.253739 0.00284356 0)
(-0.257159 0.00282855 0)
(-0.26055 0.00281686 0)
(-0.263915 0.00280833 0)
(-0.267255 0.00280192 0)
(-0.270569 0.0027962 0)
(-0.27386 0.00278982 0)
(-0.277124 0.00278177 0)
(-0.280362 0.00277142 0)
(-0.283571 0.00275854 0)
(-0.286749 0.00274306 0)
(-0.289894 0.00272506 0)
(-0.293004 0.00270462 0)
(-0.296077 0.00268185 0)
(-0.29911 0.00265688 0)
(-0.3021 0.00262989 0)
(-0.305046 0.0026011 0)
(-0.307946 0.00257074 0)
(-0.310797 0.00253906 0)
(-0.313598 0.00250629 0)
(-0.316346 0.00247266 0)
(-0.319041 0.00243849 0)
(-0.321679 0.00240415 0)
(-0.324261 0.00237005 0)
(-0.326783 0.00233672 0)
(-0.329246 0.00230471 0)
(-0.331648 0.00227463 0)
(-0.333988 0.00224699 0)
(-0.336264 0.00222219 0)
(-0.338477 0.00220031 0)
(-0.340625 0.00218102 0)
(-0.342707 0.00216342 0)
(-0.344722 0.00214602 0)
(-0.346669 0.00212681 0)
(-0.348544 0.00210346 0)
(-0.350345 0.00207371 0)
(-0.352068 0.00203577 0)
(-0.35371 0.00198869 0)
(-0.355266 0.00193272 0)
(-0.356732 0.00186937 0)
(-0.358106 0.00180122 0)
(-0.359388 0.0017316 0)
(-0.360577 0.00166394 0)
(-0.361675 0.00160119 0)
(-0.362685 0.00154524 0)
(-0.363611 0.00149658 0)
(-0.364458 0.0014542 0)
(-0.365228 0.00141586 0)
(-0.365926 0.00137883 0)
(-0.366555 0.00134102 0)
(-0.367116 0.00130236 0)
(-0.367615 0.00126543 0)
(-0.368056 0.00123613 0)
(-0.36845 0.00122383 0)
(-0.368807 0.00123798 0)
(-0.369143 0.00128623 0)
(-0.369473 0.00137248 0)
(-0.369814 0.00149697 0)
(-0.370182 0.00165587 0)
(-0.370584 0.00184089 0)
(-0.371024 0.0020403 0)
(-0.371498 0.00224056 0)
(-0.371997 0.00242906 0)
(-0.372504 0.00259297 0)
(-0.372992 0.00271655 0)
(-0.373429 0.0027821 0)
(-0.373775 0.00276492 0)
(-0.373984 0.00262635 0)
(-0.373992 0.00233887 0)
(-0.373718 0.00193777 0)
(-0.373155 0.00149233 0)
(-0.372299 0.00105151 0)
(-0.371165 0.000643869 0)
(-0.369777 0.000282901 0)
(-0.368162 -2.90494e-05 0)
(-0.366345 -0.00029675 0)
(-0.364347 -0.000528677 0)
(-0.362185 -0.000734476 0)
(-0.35987 -0.000923267 0)
(-0.35741 -0.00110275 0)
(-0.354807 -0.00127891 0)
(-0.352064 -0.001456 0)
(-0.349181 -0.00163673 0)
(-0.346158 -0.00182244 0)
(-0.342994 -0.00201328 0)
(-0.33969 -0.00220835 0)
(-0.336246 -0.00240584 0)
(-0.332664 -0.00260317 0)
(-0.328949 -0.00279721 0)
(-0.325105 -0.0029845 0)
(-0.321139 -0.00316158 0)
(-0.317058 -0.00332521 0)
(-0.312871 -0.0034727 0)
(-0.308588 -0.00360206 0)
(-0.304218 -0.00371209 0)
(-0.29977 -0.00380241 0)
(-0.295255 -0.00387341 0)
(-0.29068 -0.00392622 0)
(-0.286053 -0.00396259 0)
(-0.281381 -0.00398485 0)
(-0.27667 -0.00399576 0)
(-0.271926 -0.00399844 0)
(-0.267151 -0.00399615 0)
(-0.26235 -0.00399212 0)
(-0.257524 -0.00398931 0)
(-0.252675 -0.00399016 0)
(-0.247803 -0.00399634 0)
(-0.242909 -0.00400866 0)
(-0.237993 -0.00402698 0)
(-0.233056 -0.00405037 0)
(-0.228099 -0.00407726 0)
(-0.223124 -0.00410575 0)
(-0.218132 -0.00413386 0)
(-0.213126 -0.00415983 0)
(-0.20811 -0.00418221 0)
(-0.203086 -0.00420002 0)
(-0.19806 -0.00421271 0)
(-0.193035 -0.00422012 0)
(-0.188014 -0.00422237 0)
(-0.183002 -0.00421979 0)
(-0.178003 -0.00421281 0)
(-0.17302 -0.00420185 0)
(-0.168057 -0.00418731 0)
(-0.163117 -0.0041695 0)
(-0.158205 -0.00414867 0)
(-0.153322 -0.00412503 0)
(-0.148473 -0.0040987 0)
(-0.143661 -0.00406983 0)
(-0.138889 -0.00403855 0)
(-0.134159 -0.00400497 0)
(-0.129474 -0.00396924 0)
(-0.124838 -0.00393148 0)
(-0.120251 -0.00389183 0)
(-0.115718 -0.00385039 0)
(-0.111239 -0.00380727 0)
(-0.106817 -0.00376254 0)
(-0.102454 -0.00371626 0)
(-0.0981512 -0.00366847 0)
(-0.0939106 -0.0036192 0)
(-0.0897336 -0.0035684 0)
(-0.0856217 -0.00351604 0)
(-0.0815765 -0.00346201 0)
(-0.0775993 -0.00340617 0)
(-0.0736915 -0.00334836 0)
(-0.0698545 -0.00328834 0)
(-0.0660899 -0.00322579 0)
(-0.0623992 -0.00316029 0)
(-0.0587841 -0.00309125 0)
(-0.0552468 -0.0030179 0)
(-0.0517896 -0.00293924 0)
(-0.0484153 -0.00285401 0)
(-0.0451274 -0.00276052 0)
(-0.04193 -0.00265628 0)
(-0.0388285 -0.00253767 0)
(-0.0358297 -0.00239978 0)
(-0.0329426 -0.00223718 0)
(-0.0301781 -0.00204597 0)
(-0.0275491 -0.00182657 0)
(-0.025068 -0.00158559 0)
(-0.0227444 -0.00133543 0)
(-0.0205827 -0.0010908 0)
(-0.0185818 -0.0008635 0)
(-0.0167365 -0.000658309 0)
(-0.0150412 -0.000473327 0)
(-0.0134918 -0.000302431 0)
(-0.0120883 -0.000139048 0)
(-0.0108338 2.18632e-05 0)
(-0.00973444 0.000183059 0)
(-0.00879776 0.000345998 0)
(-0.00803222 0.000511091 0)
(-0.00744655 0.000678346 0)
(-0.00704897 0.000845777 0)
(-0.00684721 0.00101171 0)
(-0.00684834 0.0011721 0)
(-0.00704881 0.00132436 0)
(-0.00744105 0.00145961 0)
(-0.00801696 0.00156869 0)
(-0.00876222 0.00164983 0)
(-0.00964844 0.0017226 0)
(-0.0106553 0.00182549 0)
(-0.011794 0.00200679 0)
(-0.0130659 0.00230674 0)
(-0.0144837 0.00272513 0)
(-0.0160507 0.00313789 0)
(-0.0177103 0.00325941 0)
(-0.0192956 0.00275657 0)
(-0.0204604 0.00155692 0)
(-0.0207427 9.56656e-05 0)
(-0.0202582 -0.00114636 0)
(-0.0191641 -0.00195203 0)
(-0.0176017 -0.00231714 0)
(-0.0157394 -0.00233291 0)
(-0.0137163 -0.00212395 0)
(-0.011637 -0.00180872 0)
(-0.00957553 -0.00147965 0)
(-0.007582 -0.00119653 0)
(-0.00568645 -0.000989238 0)
(-0.00390547 -0.000864736 0)
(-0.00223797 -0.000820163 0)
(-0.00068759 -0.000838536 0)
(0.000745015 -0.000896419 0)
(0.00207455 -0.00097149 0)
(0.00331856 -0.00104865 0)
(0.00449013 -0.00111623 0)
(0.00558789 -0.00116869 0)
(0.00662157 -0.00119944 0)
(0.00761146 -0.00121299 0)
(0.00854966 -0.0012142 0)
(0.00943669 -0.00120191 0)
(0.0102829 -0.00118193 0)
(0.0110792 -0.00115839 0)
(0.0118201 -0.00113138 0)
(0.0125092 -0.00110392 0)
(0.0131383 -0.00107764 0)
(0.0137042 -0.00104976 0)
(0.0142134 -0.00102104 0)
(0.0146642 -0.000991025 0)
(0.0150584 -0.00096095 0)
(0.0153978 -0.000930673 0)
(0.0156882 -0.000898605 0)
(0.0159237 -0.000868963 0)
(0.0161019 -0.000836478 0)
(0.0162326 -0.000805358 0)
(0.0163119 -0.000776258 0)
(0.0163398 -0.000749965 0)
(0.016316 -0.000727056 0)
(0.0162374 -0.000706513 0)
(0.0161049 -0.00068811 0)
(0.0159192 -0.000672708 0)
(0.0156806 -0.000660536 0)
(0.0153896 -0.000652336 0)
(0.0150457 -0.000649307 0)
(0.0146493 -0.000651263 0)
(0.0142026 -0.00065934 0)
(0.0137063 -0.000674577 0)
(0.0131617 -0.000698094 0)
(0.0125715 -0.000729387 0)
(0.0119407 -0.00076852 0)
(0.0112708 -0.000816208 0)
(0.0105655 -0.000869592 0)
(0.00983296 -0.000928742 0)
(0.00907831 -0.000990277 0)
(0.00830984 -0.0010506 0)
(0.00753623 -0.0011068 0)
(0.00676318 -0.0011571 0)
(0.00599777 -0.00119963 0)
(0.00524706 -0.00123634 0)
(0.00451811 -0.00127367 0)
(0.003821 -0.00132364 0)
(0.00317127 -0.00140102 0)
(0.00257139 -0.00152317 0)
(0.00207779 -0.00169575 0)
(0.00155204 -0.00192123 0)
(0.00141203 -0.00181077 0)
(0.00094008 -0.000110249 0)
(-0.00184281 0.00384294 0)
(-0.0047583 0.0028201 0)
(-0.00826018 0.00319521 0)
(-0.0117357 0.0033289 0)
(-0.0151782 0.00333293 0)
(-0.0185839 0.00335829 0)
(-0.0220033 0.0033937 0)
(-0.0254279 0.00343517 0)
(-0.0288538 0.00348164 0)
(-0.0322749 0.0035328 0)
(-0.0356863 0.00358796 0)
(-0.0390843 0.00364645 0)
(-0.0424651 0.00370745 0)
(-0.045825 0.00377009 0)
(-0.0491604 0.00383373 0)
(-0.0524673 0.00389808 0)
(-0.0557419 0.0039629 0)
(-0.0589809 0.0040279 0)
(-0.0621813 0.0040928 0)
(-0.065341 0.00415738 0)
(-0.0684585 0.00422143 0)
(-0.0715335 0.00428481 0)
(-0.0745668 0.00434779 0)
(-0.0775606 0.00441131 0)
(-0.0805184 0.00447695 0)
(-0.0834446 0.0045466 0)
(-0.086344 0.00462207 0)
(-0.0892215 0.0047048 0)
(-0.0920822 0.00479554 0)
(-0.094931 0.00489435 0)
(-0.0977728 0.00500059 0)
(-0.100612 0.00511331 0)
(-0.103453 0.00523159 0)
(-0.106298 0.00535516 0)
(-0.10915 0.00548481 0)
(-0.112009 0.0056225 0)
(-0.114876 0.00577102 0)
(-0.117754 0.00593324 0)
(-0.120646 0.00611138 0)
(-0.123559 0.00630678 0)
(-0.126499 0.00652007 0)
(-0.129475 0.00675156 0)
(-0.132495 0.00700135 0)
(-0.135563 0.00726879 0)
(-0.138682 0.00755138 0)
(-0.141851 0.00784358 0)
(-0.145067 0.00813661 0)
(-0.148328 0.00841969 0)
(-0.15163 0.00868223 0)
(-0.154968 0.00891598 0)
(-0.158342 0.00911653 0)
(-0.161747 0.00928358 0)
(-0.165181 0.00942004 0)
(-0.168641 0.00953052 0)
(-0.172125 0.0096201 0)
(-0.175628 0.00969344 0)
(-0.179149 0.0097543 0)
(-0.182685 0.0098052 0)
(-0.186235 0.00984747 0)
(-0.189797 0.00988142 0)
(-0.19337 0.00990683 0)
(-0.196953 0.00992341 0)
(-0.200546 0.00993122 0)
(-0.204148 0.00993078 0)
(-0.20776 0.00992308 0)
(-0.211382 0.00990931 0)
(-0.215013 0.00989063 0)
(-0.218655 0.00986805 0)
(-0.222308 0.00984225 0)
(-0.225972 0.00981367 0)
(-0.229647 0.00978252 0)
(-0.233334 0.00974892 0)
(-0.237033 0.00971302 0)
(-0.240744 0.00967503 0)
(-0.244467 0.00963525 0)
(-0.248201 0.00959407 0)
(-0.251945 0.00955193 0)
(-0.255697 0.00950926 0)
(-0.259458 0.00946639 0)
(-0.263224 0.00942354 0)
(-0.266994 0.00938066 0)
(-0.270765 0.00933745 0)
(-0.274535 0.00929336 0)
(-0.2783 0.00924762 0)
(-0.282058 0.00919936 0)
(-0.285804 0.00914771 0)
(-0.289534 0.00909199 0)
(-0.293243 0.00903178 0)
(-0.296928 0.00896701 0)
(-0.300586 0.00889793 0)
(-0.304212 0.00882499 0)
(-0.307807 0.00874874 0)
(-0.311369 0.0086699 0)
(-0.314898 0.00858933 0)
(-0.318395 0.00850806 0)
(-0.321859 0.00842714 0)
(-0.325289 0.0083474 0)
(-0.328685 0.00826922 0)
(-0.332044 0.00819241 0)
(-0.335364 0.00811627 0)
(-0.338642 0.00803972 0)
(-0.341877 0.0079616 0)
(-0.345066 0.00788078 0)
(-0.348206 0.00779634 0)
(-0.351296 0.00770757 0)
(-0.354334 0.00761398 0)
(-0.357317 0.00751524 0)
(-0.360243 0.00741115 0)
(-0.36311 0.00730158 0)
(-0.365916 0.00718653 0)
(-0.368659 0.00706603 0)
(-0.371336 0.0069402 0)
(-0.373946 0.00680918 0)
(-0.376486 0.00667315 0)
(-0.378954 0.00653223 0)
(-0.381348 0.00638656 0)
(-0.383666 0.0062362 0)
(-0.385904 0.00608115 0)
(-0.388062 0.00592134 0)
(-0.390135 0.00575662 0)
(-0.392121 0.00558679 0)
(-0.394018 0.00541161 0)
(-0.395822 0.00523089 0)
(-0.397531 0.0050445 0)
(-0.399142 0.00485242 0)
(-0.400651 0.00465469 0)
(-0.402056 0.00445146 0)
(-0.403355 0.00424291 0)
(-0.404547 0.00402929 0)
(-0.40563 0.00381087 0)
(-0.406605 0.00358798 0)
(-0.407473 0.0033611 0)
(-0.408236 0.00313087 0)
(-0.408897 0.00289821 0)
(-0.409459 0.00266424 0)
(-0.409925 0.00243033 0)
(-0.410297 0.00219789 0)
(-0.410577 0.00196835 0)
(-0.410767 0.00174298 0)
(-0.410865 0.00152291 0)
(-0.410871 0.00130909 0)
(-0.410784 0.0011024 0)
(-0.410603 0.000903703 0)
(-0.41033 0.000714046 0)
(-0.409966 0.0005349 0)
(-0.409516 0.000368333 0)
(-0.408984 0.000216972 0)
(-0.40837 8.37055e-05 0)
(-0.407676 -3.02583e-05 0)
(-0.4069 -0.000124146 0)
(-0.406037 -0.000199614 0)
(-0.405075 -0.000261018 0)
(-0.403995 -0.000315328 0)
(-0.402777 -0.000371583 0)
(-0.401398 -0.000440084 0)
(-0.399835 -0.000531119 0)
(-0.398065 -0.000653872 0)
(-0.396067 -0.000815577 0)
(-0.393831 -0.00102129 0)
(-0.391357 -0.00127432 0)
(-0.388653 -0.00157617 0)
(-0.385744 -0.00193001 0)
(-0.382665 -0.00234501 0)
(-0.37948 -0.00282374 0)
(-0.376275 -0.00333862 0)
(-0.373067 -0.0038521 0)
(-0.36987 -0.00434119 0)
(-0.36668 -0.0047947 0)
(-0.363487 -0.00520938 0)
(-0.360275 -0.00558753 0)
(-0.357028 -0.00593462 0)
(-0.353731 -0.00625745 0)
(-0.350374 -0.00656273 0)
(-0.34695 -0.00685617 0)
(-0.343452 -0.00714211 0)
(-0.339879 -0.00742342 0)
(-0.336231 -0.00770166 0)
(-0.33251 -0.0079773 0)
(-0.328719 -0.00824998 0)
(-0.324861 -0.00851873 0)
(-0.320941 -0.00878214 0)
(-0.316964 -0.00903859 0)
(-0.312933 -0.00928634 0)
(-0.308852 -0.00952375 0)
(-0.304725 -0.00974942 0)
(-0.300554 -0.00996229 0)
(-0.296342 -0.0101617 0)
(-0.292089 -0.0103477 0)
(-0.287795 -0.0105205 0)
(-0.28346 -0.0106808 0)
(-0.279082 -0.0108298 0)
(-0.274659 -0.0109685 0)
(-0.270189 -0.011098 0)
(-0.265669 -0.0112194 0)
(-0.261097 -0.0113334 0)
(-0.256473 -0.0114404 0)
(-0.251794 -0.0115407 0)
(-0.247062 -0.0116344 0)
(-0.242278 -0.0117215 0)
(-0.237445 -0.0118018 0)
(-0.232568 -0.0118753 0)
(-0.227651 -0.0119418 0)
(-0.222701 -0.0120012 0)
(-0.217724 -0.0120534 0)
(-0.212727 -0.0120985 0)
(-0.207715 -0.0121363 0)
(-0.202695 -0.0121667 0)
(-0.197672 -0.0121897 0)
(-0.192649 -0.0122053 0)
(-0.187631 -0.0122133 0)
(-0.182621 -0.0122138 0)
(-0.17762 -0.0122067 0)
(-0.172633 -0.0121919 0)
(-0.167661 -0.0121692 0)
(-0.162706 -0.0121386 0)
(-0.157771 -0.0120999 0)
(-0.152858 -0.0120531 0)
(-0.147971 -0.0119981 0)
(-0.143111 -0.0119348 0)
(-0.138284 -0.0118634 0)
(-0.13349 -0.011784 0)
(-0.128734 -0.0116968 0)
(-0.124019 -0.011602 0)
(-0.119347 -0.0115 0)
(-0.114721 -0.011391 0)
(-0.110144 -0.0112755 0)
(-0.105619 -0.0111538 0)
(-0.101148 -0.0110262 0)
(-0.0967336 -0.0108932 0)
(-0.0923777 -0.0107551 0)
(-0.0880826 -0.0106122 0)
(-0.0838502 -0.0104649 0)
(-0.0796823 -0.0103135 0)
(-0.0755806 -0.0101583 0)
(-0.0715465 -0.00999953 0)
(-0.0675814 -0.00983753 0)
(-0.0636865 -0.00967247 0)
(-0.0598628 -0.00950454 0)
(-0.0561112 -0.00933385 0)
(-0.0524325 -0.00916047 0)
(-0.0488273 -0.0089844 0)
(-0.045296 -0.00880556 0)
(-0.0418391 -0.00862377 0)
(-0.0384565 -0.00843874 0)
(-0.0351483 -0.00825005 0)
(-0.0319141 -0.00805718 0)
(-0.0287531 -0.00785943 0)
(-0.0256643 -0.00765596 0)
(-0.0226456 -0.0074457 0)
(-0.0196939 -0.00722724 0)
(-0.016804 -0.00699874 0)
(-0.0139686 -0.00675816 0)
(-0.011178 -0.00650389 0)
(-0.00842202 -0.00623551 0)
(-0.00569215 -0.00595455 0)
(-0.00298425 -0.00566443 0)
(-0.000299373 -0.00536925 0)
(0.00235552 -0.00507181 0)
(0.00497009 -0.00477137 0)
(0.0075344 -0.00446523 0)
(0.0100403 -0.00414775 0)
(0.0124811 -0.00381347 0)
(0.0148507 -0.00345819 0)
(0.0171437 -0.00307805 0)
(0.0193548 -0.00267342 0)
(0.0214772 -0.00224358 0)
(0.0235049 -0.00179 0)
(0.0254313 -0.00131656 0)
(0.0272513 -0.000828731 0)
(0.0289554 -0.000333696 0)
(0.030535 0.000156864 0)
(0.031985 0.000628629 0)
(0.0333065 0.00106478 0)
(0.0345032 0.00145063 0)
(0.0355832 0.00177407 0)
(0.0365979 0.00201608 0)
(0.037601 0.00216137 0)
(0.0386723 0.00219733 0)
(0.0398925 0.0021131 0)
(0.0413298 0.00188376 0)
(0.0429297 0.0014337 0)
(0.0447013 0.000675266 0)
(0.0462161 -0.00033522 0)
(0.0474698 -0.00143903 0)
(0.0486263 -0.00248621 0)
(0.0497142 -0.00338861 0)
(0.0508084 -0.00410625 0)
(0.0519823 -0.00463311 0)
(0.0532816 -0.00497967 0)
(0.0547219 -0.00515953 0)
(0.0562878 -0.00518397 0)
(0.0579435 -0.00506481 0)
(0.0596282 -0.00482363 0)
(0.0612779 -0.00449156 0)
(0.0628446 -0.00410881 0)
(0.0642908 -0.00370934 0)
(0.0655913 -0.00332277 0)
(0.0667341 -0.00296875 0)
(0.0677205 -0.00265843 0)
(0.068556 -0.00239592 0)
(0.069248 -0.00217524 0)
(0.0698096 -0.00198973 0)
(0.0702577 -0.00183265 0)
(0.0706089 -0.00168987 0)
(0.070879 -0.00155074 0)
(0.0710811 -0.00140845 0)
(0.071221 -0.00125735 0)
(0.0713002 -0.00109609 0)
(0.0713173 -0.000928969 0)
(0.0712666 -0.00075907 0)
(0.071143 -0.000591251 0)
(0.0709412 -0.000428561 0)
(0.0706575 -0.000272159 0)
(0.0702926 -0.0001214 0)
(0.0698514 2.50721e-05 0)
(0.0693373 0.00016688 0)
(0.068754 0.000308842 0)
(0.0681045 0.000451849 0)
(0.0673923 0.00059608 0)
(0.0666175 0.000742374 0)
(0.0657797 0.000890957 0)
(0.06488 0.00104252 0)
(0.0639157 0.00119734 0)
(0.0628843 0.00135567 0)
(0.0617837 0.00151691 0)
(0.06061 0.00168113 0)
(0.0593591 0.00184825 0)
(0.058026 0.00201838 0)
(0.0566055 0.00219126 0)
(0.0550909 0.00236668 0)
(0.0534741 0.00254386 0)
(0.0517477 0.00272116 0)
(0.0499029 0.00289593 0)
(0.0479318 0.00306531 0)
(0.0458265 0.00322399 0)
(0.0435801 0.00336732 0)
(0.0411904 0.00349101 0)
(0.0386587 0.00359105 0)
(0.0359891 0.00366278 0)
(0.0331895 0.00370382 0)
(0.0302738 0.00371406 0)
(0.0272597 0.00369347 0)
(0.0241654 0.00364397 0)
(0.0210081 0.00356907 0)
(0.017804 0.00347632 0)
(0.0145617 0.00338294 0)
(0.0112756 0.00331399 0)
(0.00789793 0.00314219 0)
(0.00459738 0.00275953 0)
(0.00159668 0.00403468 0)
(-0.00229959 0.010302 0)
(-0.00575144 0.00915823 0)
(-0.00985733 0.00987417 0)
(-0.0140031 0.0100133 0)
(-0.0181547 0.010001 0)
(-0.0222506 0.0100192 0)
(-0.026332 0.0100367 0)
(-0.0303777 0.0100443 0)
(-0.0343816 0.0100441 0)
(-0.0383359 0.0100375 0)
(-0.0422341 0.0100245 0)
(-0.0460697 0.0100045 0)
(-0.0498371 0.00997685 0)
(-0.0535316 0.00994095 0)
(-0.0571491 0.00989659 0)
(-0.0606866 0.0098442 0)
(-0.064142 0.00978491 0)
(-0.0675146 0.00972046 0)
(-0.0708051 0.00965321 0)
(-0.0740154 0.00958601 0)
(-0.0771491 0.00952214 0)
(-0.0802113 0.0094651 0)
(-0.0832085 0.0094183 0)
(-0.0861482 0.0093845 0)
(-0.0890382 0.00936554 0)
(-0.0918861 0.00936227 0)
(-0.0946987 0.00937484 0)
(-0.0974818 0.00940304 0)
(-0.10024 0.00944668 0)
(-0.102979 0.00950555 0)
(-0.1057 0.00957918 0)
(-0.10841 0.00966655 0)
(-0.111111 0.00976589 0)
(-0.113808 0.00987503 0)
(-0.116504 0.00999209 0)
(-0.119201 0.0101164 0)
(-0.1219 0.0102492 0)
(-0.124602 0.0103936 0)
(-0.127306 0.0105542 0)
(-0.130011 0.0107359 0)
(-0.132715 0.0109436 0)
(-0.13542 0.0111807 0)
(-0.138124 0.0114488 0)
(-0.140827 0.0117465 0)
(-0.143525 0.0120686 0)
(-0.146217 0.0124061 0)
(-0.148899 0.0127466 0)
(-0.151569 0.0130764 0)
(-0.154227 0.0133833 0)
(-0.156877 0.0136581 0)
(-0.159524 0.0138965 0)
(-0.162176 0.014099 0)
(-0.164841 0.01427 0)
(-0.167525 0.0144157 0)
(-0.170233 0.0145425 0)
(-0.17297 0.0146558 0)
(-0.175737 0.0147589 0)
(-0.178537 0.0148532 0)
(-0.18137 0.0149388 0)
(-0.184235 0.0150151 0)
(-0.187134 0.0150815 0)
(-0.190065 0.015138 0)
(-0.19303 0.0151855 0)
(-0.196029 0.0152252 0)
(-0.199064 0.0152588 0)
(-0.202134 0.0152875 0)
(-0.20524 0.0153125 0)
(-0.208382 0.0153344 0)
(-0.21156 0.0153534 0)
(-0.214773 0.0153691 0)
(-0.21802 0.0153811 0)
(-0.221301 0.0153892 0)
(-0.224613 0.0153931 0)
(-0.227956 0.0153926 0)
(-0.231326 0.0153878 0)
(-0.234723 0.0153789 0)
(-0.238143 0.0153659 0)
(-0.241585 0.0153491 0)
(-0.245046 0.0153282 0)
(-0.248522 0.0153032 0)
(-0.252012 0.0152736 0)
(-0.255512 0.015239 0)
(-0.259019 0.0151986 0)
(-0.26253 0.0151518 0)
(-0.266043 0.0150975 0)
(-0.269556 0.0150349 0)
(-0.273066 0.014963 0)
(-0.276572 0.0148814 0)
(-0.280071 0.0147903 0)
(-0.283564 0.0146906 0)
(-0.287048 0.0145837 0)
(-0.290522 0.0144715 0)
(-0.293984 0.0143553 0)
(-0.297432 0.0142364 0)
(-0.300864 0.0141154 0)
(-0.304277 0.0139926 0)
(-0.307668 0.0138678 0)
(-0.311034 0.0137402 0)
(-0.314369 0.0136087 0)
(-0.317672 0.0134722 0)
(-0.320938 0.0133295 0)
(-0.324165 0.0131797 0)
(-0.32735 0.0130221 0)
(-0.33049 0.0128563 0)
(-0.333584 0.0126819 0)
(-0.336628 0.0124988 0)
(-0.339622 0.0123068 0)
(-0.342563 0.0121059 0)
(-0.345449 0.011896 0)
(-0.348279 0.0116773 0)
(-0.35105 0.0114497 0)
(-0.35376 0.0112132 0)
(-0.356408 0.010968 0)
(-0.358991 0.0107142 0)
(-0.361509 0.0104517 0)
(-0.363958 0.0101807 0)
(-0.366337 0.00990128 0)
(-0.368643 0.00961345 0)
(-0.370876 0.00931735 0)
(-0.373034 0.00901314 0)
(-0.375114 0.00870103 0)
(-0.377116 0.00838134 0)
(-0.379038 0.00805444 0)
(-0.38088 0.0077208 0)
(-0.382642 0.00738087 0)
(-0.384323 0.00703506 0)
(-0.385923 0.00668372 0)
(-0.387443 0.00632713 0)
(-0.388883 0.00596558 0)
(-0.390243 0.00559941 0)
(-0.391525 0.00522917 0)
(-0.392726 0.0048556 0)
(-0.393848 0.00447975 0)
(-0.394889 0.00410284 0)
(-0.395848 0.00372618 0)
(-0.396723 0.003351 0)
(-0.397512 0.00297825 0)
(-0.398211 0.00260853 0)
(-0.398819 0.00224204 0)
(-0.399333 0.00187865 0)
(-0.399749 0.00151817 0)
(-0.400065 0.0011606 0)
(-0.400279 0.000806506 0)
(-0.400387 0.000457188 0)
(-0.400387 0.000114662 0)
(-0.400276 -0.00021879 0)
(-0.40005 -0.000539697 0)
(-0.399707 -0.000846465 0)
(-0.399243 -0.00114036 0)
(-0.39865 -0.00142531 0)
(-0.397923 -0.00170827 0)
(-0.397057 -0.00199815 0)
(-0.396049 -0.00230538 0)
(-0.394899 -0.00264075 0)
(-0.393608 -0.00301352 0)
(-0.392183 -0.0034303 0)
(-0.390633 -0.0038944 0)
(-0.38897 -0.00440604 0)
(-0.387204 -0.00496117 0)
(-0.385343 -0.0055501 0)
(-0.383396 -0.00615847 0)
(-0.381371 -0.00676584 0)
(-0.379274 -0.00734381 0)
(-0.37711 -0.00786874 0)
(-0.374882 -0.00834558 0)
(-0.372589 -0.00879457 0)
(-0.370226 -0.00922873 0)
(-0.367786 -0.00965576 0)
(-0.36526 -0.0100806 0)
(-0.362641 -0.0105063 0)
(-0.359924 -0.0109341 0)
(-0.357107 -0.0113644 0)
(-0.354187 -0.0117966 0)
(-0.351166 -0.0122292 0)
(-0.348044 -0.0126609 0)
(-0.344826 -0.0130898 0)
(-0.341512 -0.0135143 0)
(-0.338108 -0.0139326 0)
(-0.334615 -0.014343 0)
(-0.331036 -0.0147439 0)
(-0.327374 -0.0151337 0)
(-0.323631 -0.0155108 0)
(-0.319809 -0.0158735 0)
(-0.315909 -0.0162205 0)
(-0.311933 -0.0165506 0)
(-0.307882 -0.0168631 0)
(-0.303757 -0.0171578 0)
(-0.299559 -0.017435 0)
(-0.29529 -0.0176957 0)
(-0.290951 -0.0179415 0)
(-0.286543 -0.018174 0)
(-0.282068 -0.0183953 0)
(-0.27753 -0.0186069 0)
(-0.272929 -0.0188101 0)
(-0.26827 -0.0190059 0)
(-0.263554 -0.0191943 0)
(-0.258786 -0.019375 0)
(-0.253968 -0.0195471 0)
(-0.249104 -0.0197095 0)
(-0.244198 -0.0198608 0)
(-0.239254 -0.0199997 0)
(-0.234276 -0.0201248 0)
(-0.229268 -0.0202349 0)
(-0.224234 -0.0203292 0)
(-0.219179 -0.0204072 0)
(-0.214107 -0.0204687 0)
(-0.209023 -0.0205139 0)
(-0.20393 -0.0205432 0)
(-0.198832 -0.0205573 0)
(-0.193734 -0.0205569 0)
(-0.188639 -0.0205428 0)
(-0.18355 -0.0205155 0)
(-0.178471 -0.0204756 0)
(-0.173405 -0.0204231 0)
(-0.168357 -0.0203582 0)
(-0.163328 -0.0202808 0)
(-0.158324 -0.0201907 0)
(-0.153346 -0.0200877 0)
(-0.148398 -0.0199718 0)
(-0.143483 -0.0198428 0)
(-0.138605 -0.019701 0)
(-0.133767 -0.0195466 0)
(-0.12897 -0.0193798 0)
(-0.124219 -0.0192012 0)
(-0.119515 -0.0190112 0)
(-0.114862 -0.0188103 0)
(-0.110262 -0.0185991 0)
(-0.105717 -0.0183781 0)
(-0.10123 -0.0181478 0)
(-0.0968026 -0.0179088 0)
(-0.0924366 -0.0176616 0)
(-0.0881342 -0.0174068 0)
(-0.0838969 -0.017145 0)
(-0.0797264 -0.0168765 0)
(-0.0756241 -0.016602 0)
(-0.0715913 -0.0163219 0)
(-0.0676293 -0.0160366 0)
(-0.063739 -0.0157465 0)
(-0.0599215 -0.0154519 0)
(-0.0561773 -0.0151532 0)
(-0.0525072 -0.0148505 0)
(-0.0489117 -0.0145439 0)
(-0.0453909 -0.0142336 0)
(-0.041945 -0.0139196 0)
(-0.0385738 -0.0136019 0)
(-0.0352769 -0.0132802 0)
(-0.0320536 -0.0129544 0)
(-0.0289028 -0.0126245 0)
(-0.025823 -0.0122904 0)
(-0.0228121 -0.011953 0)
(-0.0198677 -0.0116141 0)
(-0.0169861 -0.0112768 0)
(-0.0141634 -0.0109449 0)
(-0.0113947 -0.0106216 0)
(-0.0086756 -0.0103077 0)
(-0.0060022 -0.0100004 0)
(-0.00337195 -0.00969318 0)
(-0.000782573 -0.00937877 0)
(0.00176573 -0.00905043 0)
(0.00427412 -0.00870431 0)
(0.00674666 -0.00833892 0)
(0.00918726 -0.00795461 0)
(0.0116039 -0.00755105 0)
(0.0140009 -0.00712702 0)
(0.0163849 -0.0066808 0)
(0.018766 -0.00621235 0)
(0.0211488 -0.00572077 0)
(0.0235393 -0.00520871 0)
(0.0259417 -0.00467935 0)
(0.0283577 -0.0041415 0)
(0.0307864 -0.00360357 0)
(0.0332238 -0.0030786 0)
(0.0356611 -0.00257519 0)
(0.0380864 -0.00211241 0)
(0.0404817 -0.00170765 0)
(0.042834 -0.00138364 0)
(0.0451243 -0.00116343 0)
(0.0473178 -0.0010909 0)
(0.0493945 -0.00123386 0)
(0.0513512 -0.00166773 0)
(0.0531576 -0.0024121 0)
(0.0547533 -0.00328425 0)
(0.0560929 -0.00408291 0)
(0.0571628 -0.00473013 0)
(0.0579891 -0.00522098 0)
(0.0586225 -0.0055708 0)
(0.0591209 -0.00582359 0)
(0.0595358 -0.00603379 0)
(0.0599051 -0.00622586 0)
(0.0602526 -0.00638573 0)
(0.0605927 -0.00647529 0)
(0.0609325 -0.0064557 0)
(0.0612768 -0.00631162 0)
(0.0616331 -0.00604942 0)
(0.062008 -0.00569756 0)
(0.0624 -0.00529029 0)
(0.0628013 -0.00485726 0)
(0.0632016 -0.00441503 0)
(0.0635866 -0.00397533 0)
(0.0639393 -0.00354743 0)
(0.0642448 -0.00314032 0)
(0.0644932 -0.00276397 0)
(0.0646797 -0.00242628 0)
(0.064803 -0.00212929 0)
(0.0648655 -0.00186888 0)
(0.0648726 -0.00163244 0)
(0.0648287 -0.00140814 0)
(0.0647369 -0.00118167 0)
(0.0645983 -0.00094258 0)
(0.0644108 -0.000687615 0)
(0.0641731 -0.000418072 0)
(0.063882 -0.000139151 0)
(0.0635326 0.000142906 0)
(0.0631266 0.000422509 0)
(0.0626625 0.000693419 0)
(0.0621434 0.000952896 0)
(0.0615706 0.00120019 0)
(0.0609467 0.00143717 0)
(0.0602774 0.00166698 0)
(0.0595655 0.00189301 0)
(0.0588121 0.00212032 0)
(0.0580183 0.00234916 0)
(0.0571854 0.00258142 0)
(0.0563132 0.00281965 0)
(0.055401 0.00306492 0)
(0.0544483 0.00331824 0)
(0.0534524 0.00358111 0)
(0.0524104 0.00385623 0)
(0.051318 0.00414526 0)
(0.0501696 0.00444974 0)
(0.0489574 0.00477157 0)
(0.0476728 0.0051126 0)
(0.0463077 0.00547293 0)
(0.0448466 0.0058514 0)
(0.043273 0.0062444 0)
(0.0415754 0.00664751 0)
(0.0397381 0.00705352 0)
(0.0377445 0.00745292 0)
(0.0355815 0.00783489 0)
(0.0332395 0.00818846 0)
(0.0307117 0.00850146 0)
(0.0279965 0.00876534 0)
(0.0250989 0.00896989 0)
(0.0220294 0.00910763 0)
(0.0188052 0.0091775 0)
(0.0154497 0.00919737 0)
(0.0119931 0.00920972 0)
(0.00851199 0.0091048 0)
(0.00521444 0.00852282 0)
(0.00207331 0.0100257 0)
(-0.00229353 0.016744 0)
(-0.00520809 0.0151356 0)
(-0.00878266 0.0163762 0)
(-0.0125398 0.0166586 0)
(-0.0163371 0.0165871 0)
(-0.0200393 0.0165315 0)
(-0.0237027 0.0164778 0)
(-0.0273133 0.0164012 0)
(-0.0308659 0.0163028 0)
(-0.0343525 0.0161861 0)
(-0.0377679 0.0160524 0)
(-0.0411077 0.015903 0)
(-0.0443686 0.015739 0)
(-0.0475486 0.0155622 0)
(-0.0506472 0.0153749 0)
(-0.0536654 0.0151797 0)
(-0.0566058 0.0149801 0)
(-0.0594721 0.0147801 0)
(-0.0622696 0.0145839 0)
(-0.0650042 0.0143961 0)
(-0.067683 0.0142213 0)
(-0.0703133 0.0140644 0)
(-0.072903 0.0139299 0)
(-0.0754597 0.013821 0)
(-0.0779907 0.0137394 0)
(-0.0805028 0.0136852 0)
(-0.083002 0.0136575 0)
(-0.0854933 0.0136543 0)
(-0.0879809 0.0136739 0)
(-0.0904682 0.0137148 0)
(-0.092958 0.013776 0)
(-0.0954527 0.0138563 0)
(-0.097955 0.0139547 0)
(-0.100468 0.0140698 0)
(-0.102994 0.0142002 0)
(-0.105537 0.0143443 0)
(-0.108099 0.0145013 0)
(-0.110683 0.0146712 0)
(-0.11329 0.0148545 0)
(-0.115916 0.0150525 0)
(-0.11856 0.0152666 0)
(-0.121218 0.0154978 0)
(-0.123883 0.0157459 0)
(-0.12655 0.0160094 0)
(-0.129215 0.0162852 0)
(-0.131874 0.0165685 0)
(-0.134524 0.0168536 0)
(-0.137168 0.0171346 0)
(-0.13981 0.0174057 0)
(-0.142457 0.0176631 0)
(-0.145116 0.0179045 0)
(-0.147794 0.0181299 0)
(-0.150499 0.0183405 0)
(-0.153235 0.0185382 0)
(-0.156006 0.0187252 0)
(-0.158813 0.0189029 0)
(-0.161657 0.019072 0)
(-0.164538 0.0192324 0)
(-0.167456 0.019384 0)
(-0.17041 0.0195264 0)
(-0.173402 0.0196596 0)
(-0.17643 0.0197841 0)
(-0.179497 0.0199007 0)
(-0.182601 0.0200102 0)
(-0.185742 0.0201138 0)
(-0.18892 0.0202121 0)
(-0.192133 0.0203056 0)
(-0.195381 0.0203943 0)
(-0.198662 0.020478 0)
(-0.201974 0.020556 0)
(-0.205315 0.0206279 0)
(-0.208685 0.020693 0)
(-0.212081 0.0207508 0)
(-0.215501 0.0208009 0)
(-0.218944 0.0208431 0)
(-0.222407 0.0208772 0)
(-0.22589 0.0209031 0)
(-0.229389 0.0209206 0)
(-0.232902 0.0209297 0)
(-0.236427 0.0209299 0)
(-0.239962 0.0209211 0)
(-0.243505 0.0209028 0)
(-0.247054 0.0208747 0)
(-0.250606 0.0208365 0)
(-0.254161 0.0207879 0)
(-0.257715 0.020729 0)
(-0.261269 0.0206597 0)
(-0.264821 0.0205804 0)
(-0.26837 0.0204915 0)
(-0.271915 0.0203936 0)
(-0.275456 0.0202869 0)
(-0.278989 0.0201718 0)
(-0.282513 0.0200483 0)
(-0.286025 0.0199164 0)
(-0.289521 0.0197758 0)
(-0.292999 0.0196263 0)
(-0.296456 0.0194675 0)
(-0.299888 0.0192988 0)
(-0.303292 0.01912 0)
(-0.306666 0.0189304 0)