/*--------------------------------*- C++ -*----------------------------------*\
| =========                 |                                                 |
| \\      /  F ield         | OpenFOAM: The Open Source CFD Toolbox           |
|  \\    /   O peration     | Version:  v2006                                 |
|   \\  /    A nd           | Website:  www.openfoam.com                      |
|    \\/     M anipulation  |                                                 |
\*---------------------------------------------------------------------------*/
FoamFile
{
    version     2.0;
    format      ascii;
    class       volScalarField;
    location    "10";
    object      p;
}
// * * * * * * * * * * * * * * * * * * * * * * * * * * * * * * * * * * * * * //

dimensions      [1 -1 -2 0 0 0 0];


internalField   nonuniform List<scalar> 
52500
(
31255.3
31255.3
31255.3
31255.4
31255.5
31255.6
31255.7
31255.9
31256
31256.2
31256.4
31256.6
31256.9
31257.1
31257.4
31257.7
31258
31258.3
31258.6
31259
31259.3
31259.7
31260.1
31260.5
31260.9
31261.3
31261.7
31262.1
31262.5
31262.8
31263.2
31263.6
31263.9
31264.2
31264.5
31264.8
31265
31265.2
31265.3
31265.4
31265.4
31265.4
31265.3
31265.2
31265
31264.7
31264.3
31263.8
31263.3
31262.7
31261.9
31261.1
31260.1
31259.1
31257.9
31256.6
31255.2
31253.6
31251.9
31250.1
31248.1
31246
31243.7
31241.2
31238.6
31235.9
31232.9
31229.8
31226.5
31223
31219.4
31215.5
31211.5
31207.2
31202.8
31198.1
31193.3
31188.2
31182.9
31177.4
31171.6
31165.7
31159.5
31153
31146.4
31139.5
31132.3
31124.9
31117.3
31109.4
31101.2
31092.8
31084.2
31075.3
31066.2
31056.7
31047.1
31037.2
31027
31016.5
31005.8
30994.9
30983.6
30972.2
30960.4
30948.4
30936.2
30923.7
30910.9
30897.9
30884.7
30871.2
30857.4
30843.4
30829.2
30814.7
30800
30785.1
30769.9
30754.6
30739
30723.2
30707.1
30690.9
30674.5
30657.9
30641.1
30624.1
30606.9
30589.5
30572
30554.4
30536.5
30518.5
30500.4
30482.1
30463.7
30445.2
30426.6
30407.8
30389
30370
30351
30331.9
30312.7
30293.5
30274.1
30254.8
30235.4
30215.9
30196.5
30177
30157.5
30138
30118.4
30098.9
30079.5
30060
30040.6
30021.2
30001.9
29982.6
29963.4
29944.2
29925.1
29906.2
29887.3
29868.5
29849.8
29831.2
29812.7
29794.4
29776.2
29758.1
29740.2
29722.4
29704.8
29687.4
29670.1
29653
29636.1
29619.4
29602.8
29586.5
29570.4
29554.4
29538.7
29523.2
29507.9
29492.9
29478
29463.4
29449
29434.9
29421
29407.4
29394
29380.8
29367.9
29355.2
29342.8
29330.6
29318.7
29307.1
29295.7
29284.6
29273.7
29263.1
29252.7
29242.6
29232.7
29223.2
29213.8
29204.7
29195.9
29187.4
29179
29171
29163.2
29155.6
29148.3
29141.2
29134.3
29127.7
29121.4
29115.3
29109.4
29103.7
29098.2
29093
29088
29083.2
29078.6
29074.3
29070.1
29066.1
29062.4
29058.8
29055.4
29052.2
29049.2
29046.4
29043.7
29041.3
29039
29036.8
29034.8
29033
29031.3
29029.7
29028.4
29027.1
29026
29025
29024.1
29023.4
29022.8
29022.3
29021.9
29021.6
29021.4
29021.3
29021.4
29021.5
29021.7
29022
29022.3
29022.8
29023.3
29023.9
29024.6
29025.3
29026.1
29027
29027.9
29028.8
29029.8
29030.9
29032
29033.1
29034.3
29035.5
29036.8
29038
29039.3
29040.6
29042
29043.3
29044.7
29046.1
29047.5
29048.9
29050.4
29051.8
29053.3
29054.8
29056.3
29057.8
29059.3
29060.8
29062.3
29063.8
29065.3
29066.7
29068.2
29069.6
29071.1
29072.5
29073.9
29075.3
29076.7
29078
29079.4
29080.7
29082
29083.2
29084.5
29085.7
29086.9
29088.1
29089.2
29090.3
29091.4
29092.5
29093.5
29094.5
29095.4
29096.3
29097.2
29098.1
29098.9
29099.7
29100.4
29101.1
29101.8
29102.4
29103
29103.5
29104.1
29104.5
29104.9
29105.3
29105.7
29106
29106.2
29106.5
29106.6
29106.8
29106.9
29106.9
30797.4
30797.4
30797.5
30797.5
30797.6
30797.7
30797.8
30798
30798.1
30798.3
30798.5
30798.7
30799
30799.2
30799.5
30799.8
30800.1
30800.4
30800.8
30801.1
30801.5
30801.9
30802.2
30802.6
30803
30803.4
30803.9
30804.3
30804.7
30805.1
30805.4
30805.8
30806.1
30806.5
30806.8
30807
30807.3
30807.5
30807.6
30807.7
30807.8
30807.8
30807.7
30807.6
30807.4
30807.1
30806.7
30806.3
30805.7
30805.1
30804.4
30803.5
30802.6
30801.6
30800.4
30799.1
30797.7
30796.1
30794.4
30792.6
30790.6
30788.5
30786.3
30783.8
30781.2
30778.5
30775.6
30772.5
30769.2
30765.7
30762.1
30758.2
30754.2
30750
30745.5
30740.9
30736
30731
30725.7
30720.2
30714.4
30708.5
30702.3
30695.9
30689.2
30682.3
30675.2
30667.8
30660.1
30652.2
30644.1
30635.7
30627.1
30618.2
30609
30599.6
30590
30580
30569.9
30559.4
30548.7
30537.8
30526.5
30515.1
30503.3
30491.3
30479.1
30466.6
30453.8
30440.8
30427.5
30414
30400.3
30386.3
30372
30357.5
30342.8
30327.9
30312.7
30297.3
30281.7
30265.9
30249.9
30233.7
30217.2
30200.6
30183.8
30166.8
30149.6
30132.2
30114.7
30097
30079.1
30061.1
30043
30024.7
30006.3
29987.7
29969.1
29950.3
29931.5
29912.5
29893.4
29874.3
29855.1
29835.8
29816.5
29797.1
29777.7
29758.2
29738.7
29719.2
29699.7
29680.1
29660.6
29641.1
29621.6
29602.1
29582.7
29563.3
29543.9
29524.6
29505.4
29486.2
29467.1
29448.1
29429.1
29410.3
29391.6
29373
29354.5
29336.1
29317.9
29299.9
29281.9
29264.2
29246.6
29229.1
29211.8
29194.7
29177.8
29161.1
29144.5
29128.2
29112
29096.1
29080.4
29064.8
29049.5
29034.5
29019.6
29005
28990.6
28976.5
28962.6
28948.9
28935.5
28922.3
28909.4
28896.7
28884.3
28872.2
28860.3
28848.6
28837.2
28826.1
28815.2
28804.6
28794.2
28784.1
28774.3
28764.7
28755.3
28746.3
28737.4
28728.9
28720.6
28712.5
28704.7
28697.1
28689.8
28682.7
28675.9
28669.3
28662.9
28656.8
28650.9
28645.3
28639.8
28634.6
28629.6
28624.8
28620.2
28615.9
28611.7
28607.8
28604
28600.5
28597.1
28593.9
28590.9
28588.1
28585.5
28583
28580.7
28578.5
28576.6
28574.7
28573.1
28571.5
28570.1
28568.9
28567.8
28566.8
28566
28565.2
28564.6
28564.1
28563.8
28563.5
28563.3
28563.3
28563.3
28563.4
28563.6
28563.9
28564.3
28564.8
28565.3
28565.9
28566.6
28567.3
28568.1
28569
28569.9
28570.9
28571.9
28573
28574.1
28575.2
28576.4
28577.6
28578.9
28580.2
28581.5
28582.8
28584.1
28585.5
28586.9
28588.2
28589.6
28591.1
28592.5
28594
28595.5
28597
28598.5
28600
28601.5
28603
28604.5
28606
28607.5
28608.9
28610.4
28611.9
28613.3
28614.7
28616.1
28617.5
28618.9
28620.3
28621.6
28622.9
28624.2
28625.5
28626.8
28628
28629.2
28630.3
28631.5
28632.6
28633.7
28634.7
28635.8
28636.7
28637.7
28638.6
28639.5
28640.4
28641.2
28642
28642.7
28643.4
28644.1
28644.7
28645.3
28645.8
28646.3
28646.8
28647.2
28647.6
28648
28648.3
28648.5
28648.8
28648.9
28649.1
28649.2
28649.2
30339.3
30339.3
30339.3
30339.4
30339.5
30339.6
30339.7
30339.9
30340
30340.2
30340.4
30340.6
30340.9
30341.1
30341.4
30341.7
30342
30342.4
30342.7
30343.1
30343.5
30343.8
30344.3
30344.7
30345.1
30345.5
30345.9
30346.4
30346.8
30347.2
30347.6
30348
30348.4
30348.7
30349
30349.3
30349.6
30349.8
30350
30350.1
30350.2
30350.2
30350.2
30350.1
30349.9
30349.6
30349.3
30348.9
30348.4
30347.8
30347.1
30346.3
30345.3
30344.3
30343.2
30341.9
30340.5
30339
30337.3
30335.5
30333.6
30331.5
30329.3
30326.9
30324.3
30321.6
30318.7
30315.6
30312.3
30308.9
30305.3
30301.4
30297.4
30293.2
30288.8
30284.2
30279.3
30274.3
30269
30263.5
30257.8
30251.9
30245.7
30239.3
30232.6
30225.7
30218.5
30211.2
30203.6
30195.7
30187.6
30179.3
30170.6
30161.7
30152.6
30143.2
30133.5
30123.6
30113.4
30103
30092.3
30081.3
30070.1
30058.6
30046.9
30034.9
30022.6
30010.1
29997.3
29984.3
29971
29957.5
29943.7
29929.7
29915.5
29901
29886.3
29871.3
29856.1
29840.7
29825.1
29809.2
29793.2
29776.9
29760.5
29743.8
29727
29709.9
29692.7
29675.3
29657.7
29640
29622.1
29604.1
29585.9
29567.6
29549.2
29530.6
29511.9
29493.1
29474.2
29455.2
29436.1
29416.9
29397.7
29378.4
29359
29339.6
29320.1
29300.6
29281
29261.5
29241.9
29222.4
29202.8
29183.2
29163.7
29144.2
29124.7
29105.2
29085.8
29066.5
29047.2
29028
29008.9
28989.8
28970.9
28952
28933.3
28914.6
28896.1
28877.7
28859.4
28841.3
28823.3
28805.5
28787.9
28770.4
28753.1
28735.9
28719
28702.2
28685.7
28669.3
28653.1
28637.2
28621.4
28605.9
28590.6
28575.5
28560.6
28546
28531.6
28517.4
28503.5
28489.8
28476.4
28463.2
28450.3
28437.6
28425.2
28413
28401.1
28389.4
28378
28366.9
28356
28345.4
28335
28324.9
28315.1
28305.5
28296.2
28287.1
28278.3
28269.7
28261.4
28253.3
28245.5
28238
28230.7
28223.6
28216.8
28210.2
28203.9
28197.7
28191.9
28186.2
28180.8
28175.6
28170.6
28165.8
28161.3
28156.9
28152.8
28148.9
28145.1
28141.6
28138.3
28135.1
28132.1
28129.3
28126.7
28124.2
28122
28119.8
28117.9
28116.1
28114.4
28112.9
28111.5
28110.3
28109.2
28108.3
28107.5
28106.8
28106.2
28105.7
28105.3
28105.1
28104.9
28104.9
28104.9
28105.1
28105.3
28105.6
28106
28106.5
28107.1
28107.7
28108.4
28109.1
28110
28110.8
28111.8
28112.8
28113.8
28114.9
28116
28117.2
28118.4
28119.6
28120.9
28122.2
28123.5
28124.8
28126.2
28127.6
28129
28130.4
28131.9
28133.3
28134.8
28136.2
28137.7
28139.2
28140.7
28142.2
28143.7
28145.2
28146.7
28148.2
28149.7
28151.2
28152.7
28154.1
28155.6
28157
28158.4
28159.8
28161.2
28162.6
28163.9
28165.3
28166.6
28167.8
28169.1
28170.3
28171.5
28172.7
28173.9
28175
28176.1
28177.1
28178.1
28179.1
28180.1
28181
28181.9
28182.7
28183.6
28184.3
28185.1
28185.8
28186.5
28187.1
28187.7
28188.2
28188.8
28189.2
28189.7
28190
28190.4
28190.7
28191
28191.2
28191.4
28191.5
28191.6
28191.6
29881
29881
29881.1
29881.1
29881.2
29881.3
29881.5
29881.6
29881.8
29882
29882.2
29882.4
29882.6
29882.9
29883.2
29883.5
29883.8
29884.2
29884.6
29884.9
29885.3
29885.8
29886.2
29886.6
29887.1
29887.5
29888
29888.4
29888.9
29889.3
29889.8
29890.2
29890.6
29891
29891.4
29891.7
29892
29892.3
29892.5
29892.6
29892.7
29892.8
29892.8
29892.7
29892.6
29892.4
29892.1
29891.7
29891.2
29890.7
29890
29889.3
29888.4
29887.4
29886.3
29885.1
29883.7
29882.2
29880.6
29878.9
29877
29874.9
29872.7
29870.3
29867.8
29865.1
29862.2
29859.2
29856
29852.6
29849
29845.2
29841.2
29837
29832.7
29828.1
29823.3
29818.2
29813
29807.5
29801.8
29795.9
29789.8
29783.4
29776.8
29769.9
29762.8
29755.4
29747.8
29740
29731.9
29723.5
29714.9
29706
29696.9
29687.5
29677.8
29667.9
29657.7
29647.3
29636.6
29625.6
29614.4
29602.9
29591.1
29579.1
29566.9
29554.3
29541.5
29528.5
29515.2
29501.7
29487.9
29473.9
29459.6
29445.1
29430.3
29415.3
29400.1
29384.7
29369
29353.1
29337
29320.7
29304.2
29287.5
29270.6
29253.6
29236.3
29218.9
29201.3
29183.5
29165.5
29147.5
29129.2
29110.9
29092.4
29073.7
29055
29036.1
29017.2
28998.1
28978.9
28959.7
28940.4
28921
28901.6
28882.1
28862.6
28843
28823.4
28803.8
28784.1
28764.5
28744.9
28725.2
28705.6
28686
28666.4
28646.9
28627.5
28608
28588.7
28569.4
28550.2
28531.1
28512.1
28493.2
28474.4
28455.8
28437.2
28418.8
28400.5
28382.3
28364.3
28346.5
28328.8
28311.2
28293.9
28276.7
28259.7
28242.9
28226.3
28209.9
28193.7
28177.7
28161.9
28146.3
28131
28115.8
28100.9
28086.3
28071.9
28057.7
28043.7
28030
28016.6
28003.4
27990.5
27977.8
27965.3
27953.1
27941.2
27929.5
27918.1
27907
27896.1
27885.5
27875.1
27865
27855.2
27845.6
27836.3
27827.2
27818.4
27809.8
27801.5
27793.5
27785.7
27778.2
27770.9
27763.8
27757
27750.5
27744.1
27738
27732.2
27726.6
27721.2
27716
27711
27706.3
27701.8
27697.4
27693.3
27689.4
27685.7
27682.2
27678.9
27675.7
27672.8
27670
27667.4
27665
27662.8
27660.7
27658.8
27657
27655.4
27653.9
27652.6
27651.4
27650.3
27649.4
27648.6
27647.9
27647.4
27646.9
27646.6
27646.4
27646.3
27646.3
27646.3
27646.5
27646.8
27647.1
27647.5
27648.1
27648.6
27649.3
27650
27650.8
27651.6
27652.5
27653.5
27654.5
27655.6
27656.7
27657.8
27659
27660.2
27661.5
27662.8
27664.1
27665.4
27666.8
27668.2
27669.6
27671
27672.5
27673.9
27675.4
27676.9
27678.4
27679.9
27681.4
27682.9
27684.4
27685.9
27687.5
27689
27690.5
27692
27693.5
27695
27696.4
27697.9
27699.3
27700.8
27702.2
27703.6
27705
27706.3
27707.6
27709
27710.2
27711.5
27712.7
27714
27715.1
27716.3
27717.4
27718.5
27719.6
27720.6
27721.6
27722.5
27723.5
27724.4
27725.2
27726
27726.8
27727.6
27728.3
27729
27729.6
27730.2
27730.7
27731.3
27731.7
27732.2
27732.6
27732.9
27733.2
27733.5
27733.7
27733.9
27734
27734.1
27734.1
29422.5
29422.5
29422.6
29422.7
29422.8
29422.9
29423
29423.2
29423.3
29423.5
29423.7
29424
29424.2
29424.5
29424.8
29425.2
29425.5
29425.9
29426.3
29426.7
29427.1
29427.6
29428
29428.5
29429
29429.5
29430
29430.5
29431
29431.5
29431.9
29432.4
29432.9
29433.3
29433.7
29434.1
29434.5
29434.8
29435
29435.3
29435.4
29435.5
29435.6
29435.6
29435.5
29435.3
29435.1
29434.8
29434.4
29433.8
29433.2
29432.5
29431.7
29430.8
29429.7
29428.5
29427.2
29425.8
29424.3
29422.5
29420.7
29418.7
29416.5
29414.2
29411.7
29409.1
29406.3
29403.3
29400.1
29396.8
29393.2
29389.5
29385.5
29381.4
29377.1
29372.5
29367.7
29362.8
29357.5
29352.1
29346.5
29340.6
29334.5
29328.1
29321.5
29314.7
29307.6
29300.2
29292.7
29284.8
29276.7
29268.4
29259.8
29250.9
29241.8
29232.4
29222.8
29212.9
29202.7
29192.3
29181.5
29170.6
29159.3
29147.9
29136.1
29124.1
29111.8
29099.2
29086.4
29073.4
29060.1
29046.5
29032.7
29018.6
29004.3
28989.8
28975
28959.9
28944.7
28929.2
28913.5
28897.6
28881.4
28865.1
28848.5
28831.8
28814.8
28797.7
28780.4
28762.9
28745.2
28727.4
28709.4
28691.2
28672.9
28654.5
28635.9
28617.2
28598.4
28579.4
28560.4
28541.3
28522
28502.7
28483.3
28463.9
28444.4
28424.8
28405.2
28385.5
28365.8
28346.1
28326.4
28306.7
28287
28267.3
28247.6
28227.9
28208.3
28188.7
28169.2
28149.7
28130.3
28110.9
28091.6
28072.5
28053.4
28034.4
28015.5
27996.7
27978.1
27959.6
27941.2
27923
27904.9
27887
27869.2
27851.6
27834.2
27816.9
27799.9
27783
27766.4
27749.9
27733.6
27717.6
27701.8
27686.2
27670.8
27655.6
27640.7
27626
27611.5
27597.3
27583.3
27569.6
27556.1
27542.9
27530
27517.2
27504.8
27492.6
27480.6
27469
27457.6
27446.4
27435.5
27424.9
27414.5
27404.4
27394.6
27385
27375.7
27366.6
27357.8
27349.3
27341
27333
27325.2
27317.7
27310.4
27303.4
27296.6
27290.1
27283.8
27277.7
27271.9
27266.3
27260.9
27255.8
27250.8
27246.1
27241.6
27237.3
27233.3
27229.4
27225.7
27222.3
27219
27215.9
27213
27210.3
27207.7
27205.3
27203.1
27201.1
27199.2
27197.5
27195.9
27194.5
27193.2
27192
27191
27190.1
27189.4
27188.7
27188.2
27187.8
27187.6
27187.4
27187.3
27187.3
27187.5
27187.7
27188
27188.4
27188.8
27189.4
27190
27190.7
27191.4
27192.3
27193.1
27194.1
27195.1
27196.1
27197.2
27198.3
27199.5
27200.7
27202
27203.3
27204.6
27205.9
27207.3
27208.7
27210.1
27211.6
27213
27214.5
27216
27217.5
27219
27220.5
27222
27223.6
27225.1
27226.6
27228.2
27229.7
27231.2
27232.8
27234.3
27235.8
27237.3
27238.8
27240.2
27241.7
27243.2
27244.6
27246
27247.4
27248.7
27250.1
27251.4
27252.7
27254
27255.2
27256.5
27257.6
27258.8
27259.9
27261
27262.1
27263.2
27264.2
27265.1
27266.1
27267
27267.8
27268.6
27269.4
27270.2
27270.9
27271.6
27272.2
27272.8
27273.4
27273.9
27274.4
27274.8
27275.2
27275.5
27275.8
27276.1
27276.3
27276.5
27276.6
27276.7
27276.8
28963.9
28963.9
28964
28964
28964.1
28964.2
28964.4
28964.5
28964.7
28964.9
28965.2
28965.4
28965.7
28966
28966.3
28966.7
28967
28967.4
28967.8
28968.3
28968.8
28969.2
28969.7
28970.3
28970.8
28971.3
28971.9
28972.4
28973
28973.5
28974.1
28974.6
28975.2
28975.7
28976.1
28976.6
28977
28977.4
28977.7
28978
28978.2
28978.4
28978.5
28978.6
28978.6
28978.5
28978.3
28978
28977.7
28977.2
28976.7
28976.1
28975.3
28974.4
28973.5
28972.3
28971.1
28969.7
28968.2
28966.6
28964.8
28962.9
28960.8
28958.5
28956.1
28953.5
28950.8
28947.9
28944.7
28941.4
28938
28934.3
28930.4
28926.3
28922
28917.5
28912.8
28907.9
28902.7
28897.3
28891.7
28885.9
28879.8
28873.5
28866.9
28860.1
28853.1
28845.8
28838.2
28830.4
28822.3
28814
28805.4
28796.6
28787.5
28778.1
28768.5
28758.5
28748.4
28737.9
28727.2
28716.3
28705
28693.5
28681.7
28669.7
28657.4
28644.8
28632
28618.9
28605.6
28592
28578.1
28564
28549.7
28535.1
28520.3
28505.2
28489.9
28474.3
28458.6
28442.6
28426.4
28410
28393.4
28376.5
28359.5
28342.3
28324.9
28307.3
28289.6
28271.7
28253.6
28235.3
28217
28198.4
28179.8
28161
28142.1
28123
28103.9
28084.7
28065.3
28045.9
28026.4
28006.9
27987.2
27967.6
27947.9
27928.1
27908.3
27888.5
27868.7
27848.8
27829
27809.2
27789.4
27769.6
27749.9
27730.2
27710.5
27691
27671.4
27652
27632.6
27613.3
27594.2
27575.1
27556.1
27537.3
27518.5
27499.9
27481.5
27463.2
27445
27427
27409.2
27391.5
27374
27356.7
27339.6
27322.6
27305.9
27289.4
27273.1
27257
27241.1
27225.4
27210
27194.8
27179.8
27165
27150.5
27136.3
27122.3
27108.5
27095
27081.8
27068.8
27056
27043.6
27031.3
27019.4
27007.7
26996.3
26985.1
26974.2
26963.6
26953.2
26943.1
26933.3
26923.7
26914.4
26905.4
26896.6
26888
26879.8
26871.8
26864
26856.5
26849.3
26842.3
26835.5
26829
26822.7
26816.7
26810.9
26805.4
26800
26794.9
26790
26785.4
26780.9
26776.7
26772.7
26768.8
26765.2
26761.8
26758.6
26755.5
26752.7
26750
26747.5
26745.2
26743
26741
26739.2
26737.5
26736
26734.6
26733.4
26732.3
26731.3
26730.5
26729.8
26729.2
26728.8
26728.4
26728.2
26728.1
26728.1
26728.1
26728.3
26728.6
26728.9
26729.4
26729.9
26730.5
26731.1
26731.9
26732.7
26733.5
26734.5
26735.5
26736.5
26737.6
26738.7
26739.9
26741.1
26742.4
26743.6
26745
26746.3
26747.7
26749.1
26750.6
26752
26753.5
26755
26756.5
26758
26759.5
26761
26762.6
26764.1
26765.7
26767.3
26768.8
26770.4
26772
26773.5
26775.1
26776.6
26778.1
26779.6
26781.1
26782.6
26784.1
26785.6
26787
26788.5
26789.9
26791.2
26792.6
26793.9
26795.3
26796.5
26797.8
26799
26800.2
26801.4
26802.6
26803.7
26804.7
26805.8
26806.8
26807.8
26808.7
26809.6
26810.5
26811.3
26812.1
26812.9
26813.6
26814.3
26814.9
26815.5
26816.1
26816.6
26817.1
26817.5
26817.9
26818.3
26818.6
26818.8
26819.1
26819.2
26819.4
26819.5
26819.5
28505.1
28505.1
28505.1
28505.2
28505.3
28505.5
28505.6
28505.8
28506
28506.2
28506.4
28506.7
28507
28507.3
28507.6
28508
28508.4
28508.8
28509.3
28509.8
28510.3
28510.8
28511.4
28511.9
28512.5
28513.1
28513.7
28514.3
28515
28515.6
28516.2
28516.8
28517.4
28518
28518.6
28519.1
28519.6
28520
28520.5
28520.8
28521.2
28521.4
28521.6
28521.7
28521.8
28521.8
28521.7
28521.5
28521.3
28520.9
28520.4
28519.9
28519.2
28518.4
28517.5
28516.5
28515.3
28514
28512.6
28511
28509.3
28507.5
28505.5
28503.3
28500.9
28498.4
28495.8
28492.9
28489.9
28486.6
28483.2
28479.6
28475.8
28471.8
28467.5
28463.1
28458.4
28453.6
28448.5
28443.1
28437.6
28431.8
28425.7
28419.5
28413
28406.2
28399.2
28391.9
28384.4
28376.6
28368.6
28360.3
28351.7
28342.9
28333.8
28324.5
28314.8
28304.9
28294.8
28284.3
28273.6
28262.6
28251.4
28239.9
28228.1
28216
28203.7
28191.1
28178.3
28165.2
28151.8
28138.1
28124.3
28110.1
28095.7
28081.1
28066.2
28051
28035.7
28020.1
28004.3
27988.2
27971.9
27955.4
27938.7
27921.8
27904.7
27887.4
27869.9
27852.3
27834.4
27816.4
27798.2
27779.9
27761.4
27742.7
27724
27705.1
27686
27666.9
27647.6
27628.3
27608.9
27589.3
27569.7
27550
27530.3
27510.5
27490.7
27470.8
27450.9
27430.9
27411
27391
27371.1
27351.1
27331.2
27311.3
27291.5
27271.7
27251.9
27232.2
27212.5
27193
27173.5
27154.1
27134.8
27115.6
27096.5
27077.5
27058.7
27040
27021.4
27003
26984.7
26966.6
26948.7
26930.9
26913.4
26896
26878.7
26861.7
26844.9
26828.3
26811.9
26795.7
26779.8
26764.1
26748.5
26733.3
26718.2
26703.5
26688.9
26674.6
26660.5
26646.7
26633.2
26619.9
26606.9
26594.1
26581.6
26569.4
26557.4
26545.7
26534.3
26523.1
26512.2
26501.6
26491.2
26481.1
26471.3
26461.7
26452.4
26443.4
26434.6
26426.1
26417.9
26409.9
26402.1
26394.7
26387.5
26380.5
26373.8
26367.3
26361.1
26355.1
26349.3
26343.8
26338.5
26333.5
26328.6
26324
26319.6
26315.4
26311.5
26307.7
26304.1
26300.8
26297.6
26294.6
26291.8
26289.2
26286.8
26284.5
26282.4
26280.5
26278.7
26277.1
26275.7
26274.4
26273.2
26272.2
26271.3
26270.5
26269.9
26269.4
26269
26268.7
26268.5
26268.5
26268.5
26268.7
26268.9
26269.2
26269.6
26270.1
26270.7
26271.3
26272.1
26272.9
26273.7
26274.6
26275.6
26276.7
26277.7
26278.9
26280.1
26281.3
26282.6
26283.9
26285.2
26286.6
26288
26289.4
26290.9
26292.3
26293.8
26295.3
26296.9
26298.4
26300
26301.5
26303.1
26304.7
26306.3
26307.9
26309.4
26311
26312.6
26314.2
26315.8
26317.4
26318.9
26320.5
26322
26323.6
26325.1
26326.6
26328.1
26329.5
26331
26332.4
26333.8
26335.2
26336.5
26337.9
26339.2
26340.4
26341.7
26342.9
26344.1
26345.3
26346.4
26347.5
26348.5
26349.6
26350.5
26351.5
26352.4
26353.3
26354.1
26354.9
26355.7
26356.4
26357.1
26357.8
26358.4
26358.9
26359.5
26359.9
26360.4
26360.8
26361.1
26361.4
26361.7
26361.9
26362.1
26362.2
26362.3
26362.4
28046.1
28046.1
28046.2
28046.2
28046.4
28046.5
28046.6
28046.8
28047
28047.2
28047.5
28047.8
28048.1
28048.4
28048.8
28049.2
28049.6
28050.1
28050.6
28051.1
28051.6
28052.2
28052.8
28053.5
28054.1
28054.8
28055.5
28056.2
28056.9
28057.6
28058.3
28059
28059.7
28060.4
28061
28061.6
28062.2
28062.8
28063.3
28063.8
28064.2
28064.5
28064.8
28065.1
28065.2
28065.3
28065.3
28065.2
28065
28064.8
28064.4
28063.9
28063.4
28062.7
28061.9
28060.9
28059.9
28058.7
28057.3
28055.9
28054.2
28052.5
28050.5
28048.5
28046.2
28043.8
28041.2
28038.4
28035.5
28032.3
28029
28025.4
28021.7
28017.8
28013.6
28009.2
28004.7
27999.8
27994.8
27989.6
27984.1
27978.3
27972.4
27966.1
27959.7
27953
27946
27938.8
27931.3
27923.6
27915.6
27907.3
27898.8
27890
27880.9
27871.5
27861.9
27852
27841.9
27831.4
27820.7
27809.8
27798.5
27787
27775.2
27763.1
27750.7
27738.1
27725.2
27712.1
27698.7
27685
27671
27656.8
27642.4
27627.7
27612.7
27597.5
27582.1
27566.4
27550.5
27534.4
27518
27501.4
27484.7
27467.6
27450.4
27433
27415.4
27397.7
27379.7
27361.6
27343.3
27324.8
27306.2
27287.4
27268.5
27249.5
27230.3
27211.1
27191.7
27172.2
27152.6
27132.9
27113.2
27093.4
27073.5
27053.5
27033.5
27013.5
26993.5
26973.4
26953.3
26933.2
26913.1
26893
26872.9
26852.9
26832.9
26812.9
26793
26773.1
26753.4
26733.7
26714
26694.5
26675.1
26655.7
26636.5
26617.4
26598.5
26579.6
26560.9
26542.4
26524
26505.8
26487.8
26469.9
26452.2
26434.7
26417.4
26400.3
26383.4
26366.7
26350.2
26333.9
26317.9
26302.1
26286.5
26271.2
26256.1
26241.2
26226.6
26212.2
26198.1
26184.3
26170.7
26157.4
26144.3
26131.5
26119
26106.7
26094.7
26083
26071.5
26060.4
26049.4
26038.8
26028.4
26018.3
26008.5
25999
25989.7
25980.7
25971.9
25963.4
25955.2
25947.3
25939.6
25932.1
25924.9
25918
25911.3
25904.9
25898.7
25892.8
25887.1
25881.6
25876.4
25871.4
25866.6
25862.1
25857.7
25853.6
25849.7
25846
25842.5
25839.2
25836.1
25833.2
25830.5
25827.9
25825.6
25823.4
25821.4
25819.5
25817.8
25816.3
25814.9
25813.7
25812.6
25811.6
25810.8
25810.1
25809.6
25809.2
25808.8
25808.6
25808.5
25808.6
25808.7
25808.9
25809.2
25809.6
25810.1
25810.6
25811.3
25812
25812.8
25813.7
25814.6
25815.6
25816.6
25817.7
25818.9
25820.1
25821.3
25822.6
25823.9
25825.3
25826.7
25828.1
25829.5
25831
25832.5
25834
25835.6
25837.1
25838.7
25840.3
25841.9
25843.5
25845.1
25846.7
25848.4
25850
25851.6
25853.2
25854.9
25856.5
25858.1
25859.7
25861.3
25862.9
25864.4
25866
25867.5
25869.1
25870.6
25872.1
25873.5
25875
25876.4
25877.8
25879.2
25880.5
25881.9
25883.2
25884.4
25885.7
25886.9
25888
25889.2
25890.3
25891.4
25892.4
25893.4
25894.4
25895.3
25896.2
25897
25897.9
25898.6
25899.4
25900.1
25900.7
25901.3
25901.9
25902.4
25902.9
25903.3
25903.7
25904.1
25904.4
25904.7
25904.9
25905.1
25905.2
25905.3
25905.4
27586.9
27586.9
27587
27587.1
27587.2
27587.3
27587.5
27587.7
27587.9
27588.1
27588.4
27588.7
27589
27589.4
27589.8
27590.2
27590.6
27591.1
27591.7
27592.3
27592.9
27593.5
27594.2
27594.9
27595.6
27596.4
27597.2
27598
27598.8
27599.6
27600.4
27601.2
27602
27602.8
27603.5
27604.2
27604.9
27605.6
27606.2
27606.8
27607.3
27607.8
27608.2
27608.5
27608.8
27609
27609.1
27609.1
27609.1
27608.9
27608.6
27608.3
27607.8
27607.2
27606.5
27605.7
27604.7
27603.6
27602.4
27601
27599.5
27597.9
27596
27594.1
27591.9
27589.6
27587.1
27584.4
27581.6
27578.5
27575.3
27571.8
27568.2
27564.3
27560.2
27556
27551.5
27546.7
27541.8
27536.6
27531.2
27525.5
27519.6
27513.5
27507
27500.4
27493.5
27486.3
27478.9
27471.2
27463.2
27455
27446.5
27437.7
27428.7
27419.3
27409.7
27399.9
27389.7
27379.3
27368.6
27357.6
27346.3
27334.8
27323
27310.9
27298.5
27285.8
27272.9
27259.7
27246.3
27232.5
27218.5
27204.3
27189.7
27175
27159.9
27144.7
27129.2
27113.4
27097.4
27081.2
27064.7
27048
27031.1
27014
26996.7
26979.2
26961.5
26943.5
26925.5
26907.2
26888.8
26870.2
26851.4
26832.5
26813.4
26794.3
26775
26755.5
26736
26716.3
26696.6
26676.8
26656.8
26636.9
26616.8
26596.7
26576.5
26556.3
26536.1
26515.9
26495.6
26475.3
26455.1
26434.8
26414.6
26394.4
26374.2
26354.1
26334
26314
26294
26274.2
26254.4
26234.7
26215.1
26195.6
26176.2
26157
26137.9
26118.9
26100.1
26081.4
26062.9
26044.5
26026.4
26008.4
25990.6
25972.9
25955.5
25938.3
25921.3
25904.5
25887.9
25871.5
25855.4
25839.5
25823.8
25808.4
25793.2
25778.3
25763.6
25749.2
25735
25721.1
25707.5
25694.1
25681
25668.2
25655.6
25643.3
25631.3
25619.6
25608.1
25596.9
25586
25575.3
25565
25554.9
25545
25535.5
25526.2
25517.2
25508.5
25500.1
25491.9
25483.9
25476.3
25468.9
25461.7
25454.9
25448.2
25441.9
25435.7
25429.8
25424.2
25418.8
25413.6
25408.7
25404
25399.5
25395.2
25391.2
25387.4
25383.7
25380.3
25377.1
25374.1
25371.3
25368.6
25366.2
25363.9
25361.8
25359.9
25358.1
25356.5
25355
25353.7
25352.6
25351.6
25350.7
25350
25349.4
25348.9
25348.6
25348.4
25348.3
25348.3
25348.4
25348.6
25348.9
25349.2
25349.7
25350.3
25350.9
25351.7
25352.5
25353.3
25354.3
25355.3
25356.3
25357.4
25358.6
25359.8
25361.1
25362.4
25363.7
25365.1
25366.6
25368
25369.5
25371
25372.5
25374.1
25375.7
25377.3
25378.9
25380.5
25382.1
25383.8
25385.4
25387.1
25388.8
25390.4
25392.1
25393.8
25395.4
25397.1
25398.8
25400.4
25402.1
25403.7
25405.3
25406.9
25408.5
25410.1
25411.6
25413.2
25414.7
25416.2
25417.6
25419.1
25420.5
25421.9
25423.3
25424.6
25426
25427.2
25428.5
25429.7
25430.9
25432.1
25433.2
25434.3
25435.3
25436.3
25437.3
25438.3
25439.2
25440
25440.9
25441.6
25442.4
25443.1
25443.8
25444.4
25445
25445.5
25446
25446.4
25446.8
25447.2
25447.5
25447.8
25448
25448.2
25448.3
25448.4
25448.5
27127.6
27127.6
27127.6
27127.7
27127.8
27128
27128.1
27128.3
27128.5
27128.8
27129.1
27129.4
27129.7
27130.1
27130.5
27131
27131.5
27132
27132.6
27133.2
27133.9
27134.6
27135.4
27136.2
27137
27137.9
27138.7
27139.6
27140.6
27141.5
27142.4
27143.3
27144.2
27145.1
27146
27146.9
27147.7
27148.5
27149.2
27149.9
27150.6
27151.2
27151.7
27152.2
27152.6
27152.9
27153.1
27153.3
27153.3
27153.3
27153.1
27152.9
27152.5
27152.1
27151.5
27150.8
27149.9
27149
27147.9
27146.6
27145.2
27143.7
27142
27140.1
27138.1
27135.8
27133.5
27130.9
27128.1
27125.2
27122.1
27118.7
27115.2
27111.4
27107.5
27103.3
27098.9
27094.2
27089.4
27084.3
27078.9
27073.3
27067.5
27061.4
27055.1
27048.5
27041.7
27034.5
27027.2
27019.5
27011.6
27003.4
26994.9
26986.2
26977.2
26967.9
26958.3
26948.4
26938.3
26927.9
26917.2
26906.2
26894.9
26883.3
26871.5
26859.4
26847
26834.3
26821.3
26808.1
26794.5
26780.8
26766.7
26752.4
26737.8
26722.9
26707.8
26692.5
26676.8
26661
26644.9
26628.5
26612
26595.2
26578.2
26560.9
26543.5
26525.8
26508
26489.9
26471.7
26453.3
26434.7
26415.9
26397
26377.9
26358.7
26339.4
26319.9
26300.3
26280.6
26260.7
26240.8
26220.8
26200.7
26180.5
26160.3
26140
26119.6
26099.3
26078.8
26058.4
26037.9
26017.5
25997
25976.6
25956.1
25935.7
25915.4
25895.1
25874.8
25854.6
25834.5
25814.4
25794.4
25774.6
25754.8
25735.2
25715.6
25696.2
25676.9
25657.8
25638.8
25620
25601.3
25582.8
25564.5
25546.3
25528.4
25510.6
25493.1
25475.7
25458.6
25441.7
25425
25408.5
25392.3
25376.3
25360.5
25345
25329.7
25314.7
25300
25285.5
25271.3
25257.3
25243.6
25230.2
25217
25204.1
25191.5
25179.2
25167.1
25155.4
25143.9
25132.7
25121.7
25111.1
25100.7
25090.6
25080.8
25071.3
25062.1
25053.1
25044.4
25035.9
25027.8
25019.9
25012.3
25004.9
24997.8
24991
24984.4
24978.1
24972.1
24966.2
24960.7
24955.3
24950.2
24945.4
24940.7
24936.3
24932.2
24928.2
24924.4
24920.9
24917.6
24914.5
24911.5
24908.8
24906.2
24903.9
24901.7
24899.7
24897.9
24896.2
24894.7
24893.3
24892.1
24891.1
24890.2
24889.4
24888.8
24888.3
24887.9
24887.7
24887.6
24887.6
24887.6
24887.8
24888.1
24888.5
24889
24889.6
24890.3
24891
24891.8
24892.7
24893.7
24894.7
24895.8
24896.9
24898.1
24899.4
24900.6
24902
24903.4
24904.8
24906.3
24907.8
24909.3
24910.8
24912.4
24914
24915.6
24917.3
24918.9
24920.6
24922.3
24924
24925.7
24927.4
24929.1
24930.8
24932.5
24934.2
24936
24937.7
24939.4
24941.1
24942.8
24944.4
24946.1
24947.8
24949.4
24951
24952.6
24954.2
24955.8
24957.3
24958.9
24960.4
24961.8
24963.3
24964.7
24966.1
24967.5
24968.8
24970.1
24971.4
24972.7
24973.9
24975
24976.2
24977.3
24978.4
24979.4
24980.4
24981.3
24982.3
24983.1
24984
24984.8
24985.5
24986.2
24986.9
24987.5
24988.1
24988.7
24989.2
24989.6
24990
24990.4
24990.7
24991
24991.2
24991.4
24991.5
24991.6
24991.7
26668
26668
26668
26668.1
26668.3
26668.4
26668.6
26668.8
26669
26669.3
26669.5
26669.9
26670.2
26670.6
26671.1
26671.6
26672.1
26672.7
26673.3
26674
26674.8
26675.6
26676.4
26677.3
26678.2
26679.2
26680.2
26681.2
26682.3
26683.3
26684.4
26685.4
26686.5
26687.5
26688.6
26689.6
26690.5
26691.5
26692.3
26693.2
26694
26694.7
26695.4
26696
26696.5
26696.9
26697.3
26697.6
26697.8
26697.9
26697.9
26697.8
26697.5
26697.2
26696.8
26696.2
26695.5
26694.6
26693.7
26692.6
26691.3
26689.9
26688.3
26686.6
26684.7
26682.6
26680.3
26677.9
26675.2
26672.4
26669.4
26666.2
26662.8
26659.1
26655.3
26651.2
26646.9
26642.3
26637.6
26632.6
26627.3
26621.8
26616.1
26610.1
26603.8
26597.3
26590.5
26583.5
26576.2
26568.6
26560.7
26552.6
26544.1
26535.4
26526.4
26517.2
26507.6
26497.8
26487.6
26477.2
26466.5
26455.5
26444.2
26432.6
26420.8
26408.6
26396.2
26383.4
26370.4
26357.1
26343.6
26329.7
26315.6
26301.2
26286.5
26271.6
26256.4
26240.9
26225.2
26209.2
26193
26176.6
26159.9
26142.9
26125.8
26108.4
26090.8
26073
26055
26036.8
26018.4
25999.8
25981
25962.1
25943
25923.8
25904.4
25884.8
25865.1
25845.3
25825.4
25805.4
25785.3
25765.1
25744.7
25724.4
25703.9
25683.4
25662.9
25642.3
25621.6
25601
25580.3
25559.6
25539
25518.3
25497.6
25477
25456.5
25435.9
25415.5
25395
25374.7
25354.4
25334.3
25314.2
25294.2
25274.4
25254.7
25235.1
25215.6
25196.3
25177.1
25158.1
25139.3
25120.6
25102.1
25083.8
25065.7
25047.8
25030.1
25012.6
24995.3
24978.3
24961.5
24944.9
24928.5
24912.4
24896.5
24880.9
24865.6
24850.5
24835.6
24821
24806.7
24792.7
24778.9
24765.5
24752.3
24739.3
24726.7
24714.3
24702.2
24690.4
24678.9
24667.7
24656.8
24646.1
24635.7
24625.7
24615.9
24606.4
24597.1
24588.2
24579.5
24571.1
24563
24555.1
24547.6
24540.3
24533.2
24526.5
24519.9
24513.7
24507.7
24501.9
24496.4
24491.2
24486.2
24481.4
24476.9
24472.5
24468.5
24464.6
24460.9