/*--------------------------------*- C++ -*----------------------------------*\
| =========                 |                                                 |
| \\      /  F ield         | OpenFOAM: The Open Source CFD Toolbox           |
|  \\    /   O peration     | Version:  v2006                                 |
|   \\  /    A nd           | Website:  www.openfoam.com                      |
|    \\/     M anipulation  |                                                 |
\*---------------------------------------------------------------------------*/
FoamFile
{
    version     2.0;
    format      ascii;
    class       volVectorField;
    location    "10";
    object      U;
}
// * * * * * * * * * * * * * * * * * * * * * * * * * * * * * * * * * * * * * //

dimensions      [0 1 -1 0 0 0 0];


internalField   nonuniform List<vector> 
52500
(
(-0.00278857 0.00271758 0)
(-0.00565236 0.00152287 0)
(-0.00856103 0.00163223 0)
(-0.0120353 0.00191002 0)
(-0.0155777 0.00202812 0)
(-0.0191974 0.00204995 0)
(-0.0227547 0.00203426 0)
(-0.0262936 0.00201719 0)
(-0.029808 0.00200525 0)
(-0.0333011 0.00199537 0)
(-0.0367688 0.00198446 0)
(-0.0402073 0.00197146 0)
(-0.0436131 0.00195647 0)
(-0.0469831 0.00193982 0)
(-0.0503145 0.00192183 0)
(-0.053605 0.00190287 0)
(-0.0568529 0.00188349 0)
(-0.0600566 0.00186425 0)
(-0.063215 0.00184569 0)
(-0.0663282 0.00182848 0)
(-0.0693963 0.00181333 0)
(-0.0724204 0.00180088 0)
(-0.0754017 0.00179169 0)
(-0.0783422 0.00178618 0)
(-0.0812442 0.0017847 0)
(-0.0841103 0.00178764 0)
(-0.0869434 0.00179531 0)
(-0.0897467 0.00180784 0)
(-0.0925233 0.00182518 0)
(-0.0952764 0.00184718 0)
(-0.098009 0.0018736 0)
(-0.100724 0.00190404 0)
(-0.103424 0.00193815 0)
(-0.106111 0.00197592 0)
(-0.108789 0.00201799 0)
(-0.11146 0.00206548 0)
(-0.114128 0.00211924 0)
(-0.116798 0.0021788 0)
(-0.119472 0.00224197 0)
(-0.122151 0.00230532 0)
(-0.124836 0.00236533 0)
(-0.127525 0.00241936 0)
(-0.130213 0.00246602 0)
(-0.132897 0.00250512 0)
(-0.135573 0.00253769 0)
(-0.138238 0.00256607 0)
(-0.140891 0.00259347 0)
(-0.143529 0.00262249 0)
(-0.146154 0.00265232 0)
(-0.148762 0.00267628 0)
(-0.151346 0.0026815 0)
(-0.15389 0.00265213 0)
(-0.156374 0.00257512 0)
(-0.158774 0.00244624 0)
(-0.161066 0.0022728 0)
(-0.163231 0.00207071 0)
(-0.165257 0.00185843 0)
(-0.167141 0.00165145 0)
(-0.168889 0.00145917 0)
(-0.170507 0.00128504 0)
(-0.172004 0.00112848 0)
(-0.173387 0.000987219 0)
(-0.174664 0.000858748 0)
(-0.175842 0.000740883 0)
(-0.176925 0.000631819 0)
(-0.177918 0.000530008 0)
(-0.178825 0.000434103 0)
(-0.17965 0.000343036 0)
(-0.180394 0.000256187 0)
(-0.181062 0.000173478 0)
(-0.181655 9.52528e-05 0)
(-0.182176 2.19125e-05 0)
(-0.182628 -4.65194e-05 0)
(-0.183013 -0.000110654 0)
(-0.183335 -0.000171676 0)
(-0.183593 -0.000231015 0)
(-0.183789 -0.000289913 0)
(-0.183922 -0.000349068 0)
(-0.183994 -0.000408424 0)
(-0.184003 -0.000467197 0)
(-0.183952 -0.000523756 0)
(-0.183842 -0.000575752 0)
(-0.183676 -0.000621624 0)
(-0.183459 -0.00066048 0)
(-0.183196 -0.000692605 0)
(-0.182891 -0.000719202 0)
(-0.182549 -0.000740363 0)
(-0.182175 -0.000759134 0)
(-0.18177 -0.000776848 0)
(-0.181338 -0.000794548 0)
(-0.180879 -0.000812894 0)
(-0.180393 -0.000831769 0)
(-0.179883 -0.000850957 0)
(-0.179348 -0.000870095 0)
(-0.17879 -0.000888822 0)
(-0.17821 -0.000906823 0)
(-0.177609 -0.000923707 0)
(-0.176989 -0.000939073 0)
(-0.176351 -0.000952619 0)
(-0.175696 -0.000964094 0)
(-0.175028 -0.000973264 0)
(-0.174347 -0.000979995 0)
(-0.173656 -0.000984245 0)
(-0.172958 -0.000985828 0)
(-0.172253 -0.000984673 0)
(-0.171544 -0.000980796 0)
(-0.170833 -0.000974173 0)
(-0.170122 -0.000964732 0)
(-0.169414 -0.00095252 0)
(-0.16871 -0.000937629 0)
(-0.168012 -0.000920021 0)
(-0.167322 -0.000899719 0)
(-0.166643 -0.000876719 0)
(-0.165975 -0.000850934 0)
(-0.165322 -0.000822468 0)
(-0.164684 -0.000791307 0)
(-0.164064 -0.000757519 0)
(-0.163463 -0.000720922 0)
(-0.162884 -0.000681605 0)
(-0.162327 -0.000639766 0)
(-0.161795 -0.000595318 0)
(-0.161289 -0.000548226 0)
(-0.16081 -0.000498649 0)
(-0.16036 -0.000446459 0)
(-0.159939 -0.000391438 0)
(-0.15955 -0.000333337 0)
(-0.159192 -0.000271778 0)
(-0.158868 -0.000206142 0)
(-0.158578 -0.000135989 0)
(-0.158323 -6.11488e-05 0)
(-0.158104 1.72912e-05 0)
(-0.157921 9.67569e-05 0)
(-0.157771 0.000173417 0)
(-0.157651 0.000243868 0)
(-0.157559 0.00030735 0)
(-0.157491 0.000367551 0)
(-0.157448 0.000432554 0)
(-0.157435 0.000512335 0)
(-0.157463 0.000615807 0)
(-0.157543 0.000745468 0)
(-0.157687 0.000896666 0)
(-0.157905 0.00105962 0)
(-0.158203 0.00122313 0)
(-0.15858 0.00137813 0)
(-0.159034 0.00151971 0)
(-0.159558 0.00164707 0)
(-0.160146 0.00176192 0)
(-0.160792 0.00186632 0)
(-0.161489 0.00196175 0)
(-0.162233 0.00204942 0)
(-0.163019 0.00213082 0)
(-0.163845 0.00220738 0)
(-0.164708 0.00228044 0)
(-0.165607 0.00235177 0)
(-0.166541 0.00242279 0)
(-0.167512 0.00249384 0)
(-0.168517 0.00256404 0)
(-0.169557 0.00263169 0)
(-0.17063 0.00269485 0)
(-0.171733 0.00275185 0)
(-0.172862 0.0028019 0)
(-0.174016 0.00284543 0)
(-0.17519 0.00288283 0)
(-0.176382 0.00291063 0)
(-0.177585 0.00291606 0)
(-0.178786 0.00287636 0)
(-0.179959 0.00276914 0)
(-0.18107 0.00258944 0)
(-0.18209 0.0023556 0)
(-0.182996 0.00209646 0)
(-0.18378 0.00183851 0)
(-0.184448 0.0015994 0)
(-0.185008 0.00138935 0)
(-0.185474 0.00121241 0)
(-0.18586 0.00106784 0)
(-0.18618 0.000952369 0)
(-0.186444 0.000861333 0)
(-0.186662 0.000789496 0)
(-0.186843 0.00073189 0)
(-0.18699 0.000684074 0)
(-0.187108 0.000642567 0)
(-0.187197 0.000604903 0)
(-0.187259 0.000569111 0)
(-0.187292 0.000534061 0)
(-0.187294 0.000498671 0)
(-0.187265 0.000461277 0)
(-0.187202 0.000420755 0)
(-0.187102 0.000375784 0)
(-0.186962 0.000324472 0)
(-0.186777 0.000264204 0)
(-0.186541 0.000191741 0)
(-0.186246 0.00010368 0)
(-0.185885 -2.69918e-06 0)
(-0.185447 -0.000128375 0)
(-0.184924 -0.000271612 0)
(-0.184308 -0.000427459 0)
(-0.183597 -0.000587974 0)
(-0.18279 -0.000743254 0)
(-0.181892 -0.000883073 0)
(-0.180913 -0.000998732 0)
(-0.179864 -0.00108465 0)
(-0.178761 -0.00113934 0)
(-0.177616 -0.00116551 0)
(-0.176443 -0.00116936 0)
(-0.17525 -0.00115925 0)
(-0.174042 -0.00114405 0)
(-0.17282 -0.00113151 0)
(-0.171582 -0.00112716 0)
(-0.170323 -0.00113381 0)
(-0.169037 -0.00115171 0)
(-0.167719 -0.00117927 0)
(-0.166364 -0.00121398 0)
(-0.164968 -0.00125329 0)
(-0.163528 -0.00129521 0)
(-0.162045 -0.00133849 0)
(-0.160515 -0.00138263 0)
(-0.158941 -0.00142758 0)
(-0.15732 -0.00147344 0)
(-0.155654 -0.00152031 0)
(-0.153942 -0.00156808 0)
(-0.152185 -0.00161651 0)
(-0.150383 -0.00166522 0)
(-0.148537 -0.0017138 0)
(-0.146647 -0.00176188 0)
(-0.144715 -0.00180915 0)
(-0.142742 -0.0018554 0)
(-0.140729 -0.00190048 0)
(-0.138678 -0.00194428 0)
(-0.136589 -0.00198669 0)
(-0.134465 -0.00202762 0)
(-0.132307 -0.00206693 0)
(-0.130117 -0.00210451 0)
(-0.127896 -0.00214021 0)
(-0.125646 -0.00217389 0)
(-0.123368 -0.0022054 0)
(-0.121066 -0.00223454 0)
(-0.118739 -0.00226113 0)
(-0.116391 -0.00228495 0)
(-0.114023 -0.0023058 0)
(-0.111638 -0.00232345 0)
(-0.109237 -0.00233768 0)
(-0.106823 -0.00234823 0)
(-0.104398 -0.00235484 0)
(-0.101964 -0.00235719 0)
(-0.0995244 -0.00235489 0)
(-0.0970813 -0.00234747 0)
(-0.0946375 -0.00233432 0)
(-0.0921961 -0.00231476 0)
(-0.0897604 -0.00228804 0)
(-0.0873338 -0.00225335 0)
(-0.0849202 -0.00220993 0)
(-0.0825238 -0.00215697 0)
(-0.0801489 -0.00209366 0)
(-0.0778005 -0.0020192 0)
(-0.0754835 -0.00193299 0)
(-0.0732033 -0.00183499 0)
(-0.0709654 -0.0017262 0)
(-0.0687745 -0.00160907 0)
(-0.0666344 -0.00148746 0)
(-0.0645476 -0.00136596 0)
(-0.0625148 -0.00124869 0)
(-0.0605354 -0.00113796 0)
(-0.0586092 -0.00103331 0)
(-0.0567368 -0.000931289 0)
(-0.0549208 -0.000826649 0)
(-0.0531662 -0.000713901 0)
(-0.0514804 -0.000588672 0)
(-0.0498722 -0.000448271 0)
(-0.048352 -0.000291474 0)
(-0.0469304 -0.000117881 0)
(-0.045619 7.26675e-05 0)
(-0.0444297 0.000280292 0)
(-0.0433751 0.000504871 0)
(-0.0424683 0.000745555 0)
(-0.0417225 0.00100017 0)
(-0.0411502 0.00126459 0)
(-0.0407614 0.00153194 0)
(-0.0405661 0.00179095 0)
(-0.0405725 0.00202806 0)
(-0.0407571 0.00223777 0)
(-0.0411206 0.00242404 0)
(-0.0416671 0.00258851 0)
(-0.0423892 0.0027282 0)
(-0.0432771 0.00283911 0)
(-0.0443155 0.00291599 0)
(-0.0454827 0.00295297 0)
(-0.0467526 0.00294248 0)
(-0.0480967 0.00287445 0)
(-0.0494678 0.0027298 0)
(-0.0507943 0.00247055 0)
(-0.0519922 0.00206535 0)
(-0.0529702 0.00151256 0)
(-0.0536507 0.000854083 0)
(-0.053986 0.000179162 0)
(-0.0539439 -0.000388559 0)
(-0.0536214 -0.000749365 0)
(-0.0531389 -0.000890468 0)
(-0.0525566 -0.000857479 0)
(-0.0519423 -0.00071663 0)
(-0.0513409 -0.000541816 0)
(-0.0507746 -0.000394908 0)
(-0.0502469 -0.000315417 0)
(-0.0497484 -0.000315809 0)
(-0.0492613 -0.000387245 0)
(-0.0487671 -0.000509302 0)
(-0.0482502 -0.000657833 0)
(-0.0476978 -0.000811894 0)
(-0.0471015 -0.000957988 0)
(-0.0464568 -0.00108973 0)
(-0.0457632 -0.00120583 0)
(-0.0450225 -0.00130821 0)
(-0.0442376 -0.00139955 0)
(-0.0434116 -0.00148209 0)
(-0.0425472 -0.00155732 0)
(-0.0416473 -0.00162668 0)
(-0.0407148 -0.00169154 0)
(-0.039753 -0.00175331 0)
(-0.0387653 -0.00181326 0)
(-0.0377552 -0.00187242 0)
(-0.0367255 -0.00193141 0)
(-0.0356784 -0.0019904 0)
(-0.0346154 -0.00204941 0)
(-0.0335376 -0.00210843 0)
(-0.032446 -0.00216737 0)
(-0.0313419 -0.00222613 0)
(-0.0302265 -0.00228478 0)
(-0.0291011 -0.00234354 0)
(-0.0279667 -0.00240249 0)
(-0.0268242 -0.00246168 0)
(-0.0256743 -0.00252122 0)
(-0.0245176 -0.00258116 0)
(-0.0233542 -0.00264122 0)
(-0.0221841 -0.00270101 0)
(-0.0210066 -0.00276025 0)
(-0.019821 -0.00281873 0)
(-0.0186265 -0.00287577 0)
(-0.0174222 -0.00293061 0)
(-0.0162076 -0.00298299 0)
(-0.0149817 -0.0030329 0)
(-0.0137436 -0.0030794 0)
(-0.0124926 -0.00312056 0)
(-0.0112295 -0.00315302 0)
(-0.00995692 -0.00317381 0)
(-0.0086769 -0.00318564 0)
(-0.00738707 -0.00320734 0)
(-0.00607892 -0.00328312 0)
(-0.00474664 -0.00346447 0)
(-0.0033431 -0.00376299 0)
(-0.00164603 -0.00377299 0)
(-0.000105184 -0.00228041 0)
(-0.00367785 0.0111308 0)
(-0.00759477 0.00819957 0)
(-0.0121821 0.00897413 0)
(-0.0172135 0.0096695 0)
(-0.0223781 0.00983088 0)
(-0.0275392 0.00978925 0)
(-0.0326183 0.00971869 0)
(-0.0376636 0.00965708 0)
(-0.0426702 0.00959434 0)
(-0.0476351 0.00952256 0)
(-0.0525504 0.00944039 0)
(-0.0574106 0.00934862 0)
(-0.0622112 0.00924812 0)
(-0.066948 0.00913967 0)
(-0.0716173 0.00902413 0)
(-0.0762156 0.00890247 0)
(-0.0807397 0.0087758 0)
(-0.0851866 0.00864532 0)
(-0.0895538 0.00851231 0)
(-0.0938393 0.00837809 0)
(-0.0980413 0.00824397 0)
(-0.102158 0.00811117 0)
(-0.106189 0.00798075 0)
(-0.110132 0.00785361 0)
(-0.113988 0.00773061 0)
(-0.117755 0.00761253 0)
(-0.121435 0.00749994 0)
(-0.125027 0.00739311 0)
(-0.128531 0.00729201 0)
(-0.131948 0.00719645 0)
(-0.135279 0.00710618 0)
(-0.138524 0.00702102 0)
(-0.141684 0.00694097 0)
(-0.144761 0.00686626 0)
(-0.147754 0.00679737 0)
(-0.150666 0.00673475 0)
(-0.153497 0.00667843 0)
(-0.156248 0.00662765 0)
(-0.158919 0.00658071 0)
(-0.161511 0.00653522 0)
(-0.164026 0.00648854 0)
(-0.166466 0.00643835 0)
(-0.168831 0.00638309 0)
(-0.171124 0.00632226 0)
(-0.173346 0.00625638 0)
(-0.175497 0.00618649 0)
(-0.177577 0.00611332 0)
(-0.179584 0.00603601 0)
(-0.181515 0.00595121 0)
(-0.18337 0.00585288 0)
(-0.185147 0.00573349 0)
(-0.186851 0.0055862 0)
(-0.188492 0.00540751 0)
(-0.190081 0.005199 0)
(-0.191633 0.00496736 0)
(-0.193158 0.00472189 0)
(-0.194666 0.00447182 0)
(-0.196161 0.00422444 0)
(-0.19764 0.0039844 0)
(-0.199101 0.00375397 0)
(-0.200539 0.0035337 0)
(-0.201949 0.0033232 0)
(-0.203328 0.00312158 0)
(-0.204671 0.00292782 0)
(-0.205975 0.00274087 0)
(-0.207239 0.00255975 0)
(-0.208459 0.00238363 0)
(-0.209634 0.00221192 0)
(-0.210763 0.00204429 0)
(-0.211846 0.00188066 0)
(-0.212881 0.00172108 0)
(-0.213868 0.00156551 0)
(-0.214806 0.00141367 0)
(-0.215693 0.00126493 0)
(-0.21653 0.00111844 0)
(-0.217315 0.000973293 0)
(-0.218049 0.000828808 0)
(-0.218732 0.000684741 0)
(-0.219364 0.000541425 0)
(-0.219948 0.000399778 0)
(-0.220484 0.000261389 0)
(-0.220974 0.000128428 0)
(-0.221419 2.78588e-06 0)
(-0.221821 -0.00011391 0)
(-0.22218 -0.000220605 0)
(-0.222494 -0.00031692 0)
(-0.222766 -0.000405518 0)
(-0.223001 -0.00048727 0)
(-0.223198 -0.00056421 0)
(-0.223359 -0.000636715 0)
(-0.223486 -0.000705302 0)
(-0.22358 -0.000770415 0)
(-0.223644 -0.000832408 0)
(-0.223678 -0.000891442 0)
(-0.223685 -0.000947475 0)
(-0.223664 -0.00100032 0)
(-0.223619 -0.00104987 0)
(-0.223549 -0.00109593 0)
(-0.223456 -0.00113832 0)
(-0.223341 -0.00117687 0)
(-0.223205 -0.00121145 0)
(-0.223049 -0.00124199 0)
(-0.222874 -0.00126828 0)
(-0.22268 -0.00129049 0)
(-0.222469 -0.00130869 0)
(-0.22224 -0.00132286 0)
(-0.221996 -0.001333 0)
(-0.221736 -0.00133918 0)
(-0.221461 -0.00134145 0)
(-0.221172 -0.00133984 0)
(-0.220869 -0.00133451 0)
(-0.220553 -0.00132567 0)
(-0.220224 -0.00131341 0)
(-0.219883 -0.00129771 0)
(-0.219531 -0.00127858 0)
(-0.219167 -0.00125627 0)
(-0.218792 -0.00123071 0)
(-0.218407 -0.00120218 0)
(-0.218011 -0.00117089 0)
(-0.217606 -0.00113682 0)
(-0.21719 -0.00110034 0)
(-0.216765 -0.00106166 0)
(-0.216331 -0.00102113 0)
(-0.215887 -0.00097879 0)
(-0.215433 -0.000935102 0)
(-0.21497 -0.0008905 0)
(-0.214496 -0.000845529 0)
(-0.214011 -0.000800807 0)
(-0.213514 -0.000757227 0)
(-0.213002 -0.000715963 0)
(-0.212475 -0.000678189 0)
(-0.211931 -0.000644956 0)
(-0.211368 -0.000616919 0)
(-0.210788 -0.00059358 0)
(-0.210193 -0.000573118 0)
(-0.209587 -0.000552182 0)
(-0.208974 -0.000526112 0)
(-0.208357 -0.000489933 0)
(-0.207734 -0.000439146 0)
(-0.207105 -0.000372056 0)
(-0.206462 -0.000290148 0)
(-0.205803 -0.000197481 0)
(-0.205121 -9.9715e-05 0)
(-0.204415 -2.63869e-06 0)
(-0.203685 8.9327e-05 0)
(-0.202934 0.000173775 0)
(-0.202164 0.000250033 0)
(-0.201378 0.000318408 0)
(-0.200578 0.00037968 0)
(-0.199766 0.000434701 0)
(-0.198943 0.000484415 0)
(-0.198111 0.000530406 0)
(-0.197266 0.000574504 0)
(-0.196409 0.000617669 0)
(-0.195538 0.00066026 0)
(-0.194651 0.000702105 0)
(-0.193748 0.000742608 0)
(-0.192826 0.000780925 0)
(-0.191884 0.000816177 0)
(-0.190922 0.000847672 0)
(-0.18994 0.00087513 0)
(-0.188939 0.000898719 0)
(-0.187915 0.000918368 0)
(-0.186869 0.000932064 0)
(-0.185801 0.000933905 0)
(-0.184721 0.000914271 0)
(-0.183648 0.000864375 0)
(-0.18261 0.000783103 0)
(-0.181633 0.000679083 0)
(-0.180734 0.000565404 0)
(-0.179913 0.000450549 0)
(-0.179168 0.000339881 0)
(-0.178488 0.000237069 0)
(-0.177863 0.0001439 0)
(-0.177278 6.05669e-05 0)
(-0.176721 -1.35677e-05 0)
(-0.176182 -7.97466e-05 0)
(-0.17565 -0.000139683 0)
(-0.175117 -0.000195276 0)
(-0.174577 -0.000248578 0)
(-0.174025 -0.00030137 0)
(-0.173458 -0.000354991 0)
(-0.172873 -0.00041059 0)
(-0.172268 -0.000468923 0)
(-0.171643 -0.000530827 0)
(-0.170996 -0.000597562 0)
(-0.170326 -0.000670083 0)
(-0.16963 -0.000749345 0)
(-0.168909 -0.0008364 0)
(-0.168162 -0.000932362 0)
(-0.167389 -0.00103829 0)
(-0.166592 -0.001155 0)
(-0.165771 -0.00128274 0)
(-0.164931 -0.0014209 0)
(-0.164075 -0.00156781 0)
(-0.163207 -0.00172056 0)
(-0.16233 -0.00187521 0)
(-0.161446 -0.00202716 0)
(-0.160554 -0.00217179 0)
(-0.159653 -0.00230506 0)
(-0.158739 -0.00242418 0)
(-0.157806 -0.00252794 0)
(-0.156851 -0.00261688 0)
(-0.155866 -0.00269319 0)
(-0.154847 -0.0027603 0)
(-0.153791 -0.00282238 0)
(-0.152696 -0.00288371 0)
(-0.151559 -0.00294806 0)
(-0.150381 -0.00301826 0)
(-0.149162 -0.0030959 0)
(-0.147904 -0.00318132 0)
(-0.146606 -0.00327385 0)
(-0.145269 -0.0033721 0)
(-0.143894 -0.0034744 0)
(-0.142482 -0.00357909 0)
(-0.141033 -0.00368478 0)
(-0.139547 -0.00379042 0)
(-0.138026 -0.00389531 0)
(-0.136471 -0.00399901 0)
(-0.134883 -0.00410123 0)
(-0.133262 -0.00420173 0)
(-0.131612 -0.00430027 0)
(-0.129932 -0.00439659 0)
(-0.128224 -0.00449039 0)
(-0.12649 -0.0045814 0)
(-0.12473 -0.00466936 0)
(-0.122947 -0.0047541 0)
(-0.121141 -0.00483548 0)
(-0.119313 -0.0049134 0)
(-0.117466 -0.0049878 0)
(-0.1156 -0.00505863 0)
(-0.113716 -0.00512587 0)
(-0.111816 -0.00518948 0)
(-0.1099 -0.00524943 0)
(-0.107971 -0.00530571 0)
(-0.106029 -0.00535828 0)
(-0.104075 -0.00540711 0)
(-0.102111 -0.00545216 0)
(-0.100137 -0.00549342 0)
(-0.0981534 -0.00553088 0)
(-0.0961621 -0.00556453 0)
(-0.0941633 -0.00559436 0)
(-0.0921577 -0.00562035 0)
(-0.0901458 -0.00564248 0)
(-0.0881281 -0.00566074 0)
(-0.0861046 -0.00567507 0)
(-0.0840757 -0.00568541 0)
(-0.082041 -0.00569167 0)
(-0.0800003 -0.00569369 0)
(-0.0779528 -0.0056913 0)
(-0.0758976 -0.00568429 0)
(-0.0738335 -0.00567244 0)
(-0.0717588 -0.00565546 0)
(-0.0696717 -0.00563301 0)
(-0.0675702 -0.00560473 0)
(-0.0654517 -0.00557028 0)
(-0.0633141 -0.00552937 0)
(-0.0611554 -0.00548198 0)
(-0.058975 -0.00542833 0)
(-0.0567736 -0.00536886 0)
(-0.0545542 -0.00530405 0)
(-0.0523213 -0.00523411 0)
(-0.0500796 -0.00515863 0)
(-0.0478336 -0.00507632 0)
(-0.0455864 -0.00498512 0)
(-0.0433392 -0.00488261 0)
(-0.0410919 -0.00476638 0)
(-0.0388428 -0.00463431 0)
(-0.0365901 -0.00448465 0)
(-0.0343318 -0.00431582 0)
(-0.0320662 -0.00412622 0)
(-0.0297918 -0.00391407 0)
(-0.0275075 -0.0036775 0)
(-0.0252125 -0.00341476 0)
(-0.022907 -0.00312456 0)
(-0.0205925 -0.00280654 0)
(-0.018273 -0.00246177 0)
(-0.0159545 -0.00209385 0)
(-0.0136431 -0.00170825 0)
(-0.0113716 -0.00130601 0)
(-0.00915169 -0.000888736 0)
(-0.00698374 -0.000463259 0)
(-0.00487465 -4.03202e-05 0)
(-0.00282896 0.000367212 0)
(-0.000847512 0.000744793 0)
(0.00107352 0.00107669 0)
(0.00294614 0.00134373 0)
(0.00478429 0.00152231 0)
(0.00659477 0.00159515 0)
(0.00836837 0.00154925 0)
(0.0100819 0.0013768 0)
(0.0116985 0.00108646 0)
(0.0131759 0.000701643 0)
(0.0144951 0.000262351 0)
(0.0155736 -0.000180472 0)
(0.0164728 -0.000572992 0)
(0.0173065 -0.000888331 0)
(0.0180968 -0.00112283 0)
(0.0188763 -0.00128011 0)
(0.0196706 -0.00136821 0)
(0.0204887 -0.00139574 0)
(0.0213232 -0.00137352 0)
(0.0221555 -0.00131593 0)
(0.0229608 -0.001241 0)
(0.0237139 -0.0011682 0)
(0.024397 -0.00111414 0)
(0.025001 -0.0010888 0)
(0.0255235 -0.00109349 0)
(0.0259694 -0.00112203 0)
(0.0263485 -0.00116502 0)
(0.0266714 -0.0012137 0)
(0.0269478 -0.00126315 0)
(0.027186 -0.00131109 0)
(0.0273922 -0.00135663 0)
(0.0275691 -0.00139908 0)
(0.0277176 -0.00143677 0)
(0.0278368 -0.00146695 0)
(0.0279249 -0.001488 0)
(0.0279796 -0.00149953 0)
(0.0279978 -0.00150206 0)
(0.0279768 -0.0014982 0)
(0.0279142 -0.00148993 0)
(0.0278074 -0.00147825 0)
(0.0276534 -0.0014631 0)
(0.0274492 -0.00144423 0)
(0.0271915 -0.00142134 0)
(0.0268759 -0.0013941 0)
(0.0264987 -0.00136301 0)
(0.026057 -0.00132907 0)
(0.0255464 -0.00129287 0)
(0.0249625 -0.00125486 0)
(0.024303 -0.00121613 0)
(0.0235652 -0.00117723 0)
(0.0227467 -0.00114071 0)
(0.0218469 -0.00110803 0)
(0.0208641 -0.00107996 0)
(0.0198003 -0.00105721 0)
(0.0186572 -0.00103966 0)
(0.0174389 -0.00102679 0)
(0.01615 -0.00101945 0)
(0.0147938 -0.00101745 0)
(0.0133768 -0.0010212 0)
(0.0119068 -0.00103058 0)
(0.0103933 -0.00104542 0)
(0.00883971 -0.0010641 0)
(0.00727786 -0.00108342 0)
(0.00560255 -0.0010771 0)
(0.00393563 -0.001242 0)
(0.00214941 -0.00165003 0)
(0.000979663 -0.000573372 0)
(-0.00369422 0.0206122 0)
(-0.00744027 0.0154849 0)
(-0.0117874 0.0169926 0)
(-0.0166364 0.0182765 0)
(-0.0216808 0.0185761 0)
(-0.0267229 0.0184603 0)
(-0.0316717 0.0182955 0)
(-0.0365726 0.0181558 0)
(-0.0414276 0.0180176 0)
(-0.0462369 0.0178618 0)
(-0.0509933 0.0176855 0)
(-0.0556919 0.0174913 0)
(-0.0603285 0.0172812 0)
(-0.0648992 0.0170566 0)
(-0.0694006 0.0168188 0)
(-0.0738296 0.0165691 0)
(-0.0781833 0.0163091 0)
(-0.0824588 0.0160403 0)
(-0.086654 0.0157644 0)
(-0.0907668 0.0154832 0)
(-0.0947955 0.0151984 0)
(-0.0987385 0.0149115 0)
(-0.102595 0.0146242 0)
(-0.106363 0.0143378 0)
(-0.110043 0.0140536 0)
(-0.113634 0.0137729 0)
(-0.117137 0.0134966 0)
(-0.120551 0.0132255 0)
(-0.123876 0.0129601 0)
(-0.127114 0.0127009 0)
(-0.130264 0.0124479 0)
(-0.133329 0.0122011 0)
(-0.136309 0.0119605 0)
(-0.139206 0.0117266 0)
(-0.142019 0.0114997 0)
(-0.144752 0.0112807 0)
(-0.147404 0.0110699 0)
(-0.149976 0.0108669 0)
(-0.15247 0.0106705 0)
(-0.154887 0.0104786 0)
(-0.15723 0.0102891 0)
(-0.159499 0.0100998 0)
(-0.161697 0.00990908 0)
(-0.163827 0.00971597 0)
(-0.165891 0.00951978 0)
(-0.167889 0.0093202 0)
(-0.169824 0.00911712 0)
(-0.171696 0.00891044 0)
(-0.173507 0.00869984 0)
(-0.17526 0.00848466 0)
(-0.176961 0.00826402 0)
(-0.178617 0.00803726 0)
(-0.180238 0.00780435 0)
(-0.181831 0.00756588 0)
(-0.183403 0.00732275 0)
(-0.184956 0.00707605 0)
(-0.186488 0.00682693 0)
(-0.187994 0.00657633 0)
(-0.189469 0.006325 0)
(-0.190908 0.00607344 0)
(-0.192305 0.00582201 0)
(-0.193658 0.00557102 0)
(-0.194964 0.0053207 0)
(-0.19622 0.00507131 0)
(-0.197426 0.00482312 0)
(-0.198581 0.00457637 0)
(-0.199683 0.00433127 0)
(-0.200732 0.00408797 0)
(-0.201728 0.00384658 0)
(-0.202671 0.00360719 0)
(-0.203561 0.00336991 0)
(-0.204397 0.00313487 0)
(-0.205179 0.00290212 0)
(-0.205908 0.00267158 0)
(-0.206585 0.00244299 0)
(-0.207209 0.00221597 0)
(-0.207782 0.0019903 0)
(-0.208306 0.00176615 0)
(-0.20878 0.00154435 0)
(-0.209207 0.00132648 0)
(-0.209586 0.00111456 0)
(-0.209918 0.000910533 0)
(-0.210205 0.000716261 0)
(-0.210446 0.000532813 0)
(-0.210642 0.000360375 0)
(-0.210796 0.000198046 0)
(-0.21091 4.19804e-05 0)
(-0.210985 -0.000106331 0)
(-0.211019 -0.00024602 0)
(-0.211014 -0.000378832 0)
(-0.210971 -0.000505885 0)
(-0.210892 -0.000627414 0)
(-0.210779 -0.000744004 0)
(-0.210635 -0.000855771 0)
(-0.21046 -0.00096262 0)
(-0.210256 -0.00106451 0)
(-0.210025 -0.00116126 0)
(-0.209768 -0.00125253 0)
(-0.209488 -0.00133837 0)
(-0.209184 -0.0014189 0)
(-0.208859 -0.00149394 0)
(-0.208513 -0.00156363 0)
(-0.208148 -0.00162788 0)
(-0.207766 -0.00168703 0)
(-0.207367 -0.00174101 0)
(-0.206953 -0.00178972 0)
(-0.206524 -0.00183339 0)
(-0.206081 -0.0018721 0)
(-0.205626 -0.00190592 0)
(-0.20516 -0.00193497 0)
(-0.204684 -0.00195955 0)
(-0.204199 -0.00197961 0)
(-0.203706 -0.00199505 0)
(-0.203205 -0.00200605 0)
(-0.202698 -0.00201295 0)
(-0.202185 -0.00201566 0)
(-0.201668 -0.00201432 0)
(-0.201148 -0.00200924 0)
(-0.200625 -0.00200042 0)
(-0.2001 -0.00198805 0)
(-0.199574 -0.00197231 0)
(-0.199048 -0.00195359 0)
(-0.198523 -0.0019321 0)
(-0.197999 -0.00190827 0)
(-0.197478 -0.00188256 0)
(-0.196961 -0.00185544 0)
(-0.196447 -0.00182735 0)
(-0.195938 -0.00179881 0)
(-0.195434 -0.00177038 0)
(-0.194937 -0.00174309 0)
(-0.194448 -0.00171807 0)
(-0.193969 -0.00169608 0)
(-0.193502 -0.00167686 0)
(-0.193049 -0.00165848 0)
(-0.192612 -0.00163706 0)
(-0.192194 -0.00160721 0)
(-0.191796 -0.00156369 0)
(-0.191417 -0.00150355 0)
(-0.191055 -0.00142754 0)
(-0.190709 -0.0013398 0)
(-0.190374 -0.00124643 0)
(-0.190049 -0.00115347 0)
(-0.189732 -0.00106529 0)
(-0.189422 -0.000983752 0)
(-0.189121 -0.000908654 0)
(-0.188829 -0.000838892 0)
(-0.188546 -0.000773438 0)
(-0.188274 -0.000711669 0)
(-0.188013 -0.000653585 0)
(-0.187764 -0.000599809 0)
(-0.187528 -0.000550998 0)
(-0.187303 -0.000507104 0)
(-0.187091 -0.000467716 0)
(-0.18689 -0.000433055 0)
(-0.186697 -0.000403553 0)
(-0.186509 -0.000379599 0)
(-0.186326 -0.000361484 0)
(-0.186144 -0.000349452 0)
(-0.185962 -0.000343771 0)
(-0.185776 -0.000344879 0)
(-0.185587 -0.000353631 0)
(-0.185391 -0.000371387 0)
(-0.185186 -0.000399423 0)
(-0.18497 -0.000437296 0)
(-0.184742 -0.000480786 0)
(-0.184502 -0.000521662 0)
(-0.184254 -0.000551504 0)
(-0.184003 -0.000567677 0)
(-0.183751 -0.000575044 0)
(-0.183501 -0.000580841 0)
(-0.183254 -0.00059224 0)
(-0.183005 -0.000613073 0)
(-0.182747 -0.000644774 0)
(-0.182477 -0.000687358 0)
(-0.18219 -0.000739906 0)
(-0.181882 -0.000801228 0)
(-0.181552 -0.000870031 0)
(-0.181196 -0.000945083 0)
(-0.180815 -0.00102544 0)
(-0.180407 -0.00111048 0)
(-0.17997 -0.00119989 0)
(-0.179505 -0.00129369 0)
(-0.17901 -0.00139199 0)
(-0.178485 -0.00149518 0)
(-0.177929 -0.00160372 0)
(-0.177344 -0.00171784 0)
(-0.176728 -0.0018382 0)
(-0.176081 -0.00196562 0)
(-0.175405 -0.00210098 0)
(-0.174699 -0.00224515 0)
(-0.173966 -0.00239879 0)
(-0.173205 -0.00256211 0)
(-0.172419 -0.00273456 0)
(-0.17161 -0.00291456 0)
(-0.170778 -0.00309941 0)
(-0.169926 -0.0032853 0)
(-0.169053 -0.0034678 0)
(-0.16816 -0.00364241 0)
(-0.167246 -0.00380533 0)
(-0.16631 -0.00395418 0)
(-0.165348 -0.00408854 0)
(-0.164359 -0.00421006 0)
(-0.16334 -0.00432222 0)
(-0.162287 -0.00442974 0)
(-0.161198 -0.00453771 0)
(-0.160071 -0.00465067 0)
(-0.158904 -0.00477195 0)
(-0.157697 -0.00490322 0)
(-0.156449 -0.00504451 0)
(-0.155162 -0.00519457 0)
(-0.153837 -0.00535134 0)
(-0.152474 -0.00551252 0)
(-0.151075 -0.00567599 0)
(-0.149641 -0.00584005 0)
(-0.148174 -0.00600347 0)
(-0.146674 -0.00616547 0)
(-0.145142 -0.0063255 0)
(-0.143578 -0.00648316 0)
(-0.141983 -0.00663803 0)
(-0.140358 -0.00678971 0)
(-0.138703 -0.00693774 0)
(-0.13702 -0.00708168 0)
(-0.135309 -0.00722113 0)
(-0.133572 -0.00735578 0)
(-0.131808 -0.00748535 0)
(-0.13002 -0.00760966 0)
(-0.128209 -0.00772858 0)
(-0.126374 -0.007842 0)
(-0.124518 -0.00794985 0)
(-0.122641 -0.00805206 0)
(-0.120744 -0.00814859 0)
(-0.118829 -0.00823939 0)
(-0.116897 -0.00832441 0)
(-0.114949 -0.00840362 0)
(-0.112987 -0.008477 0)
(-0.11101 -0.00854452 0)
(-0.109022 -0.00860621 0)
(-0.107023 -0.00866207 0)
(-0.105014 -0.00871215 0)
(-0.102997 -0.00875649 0)
(-0.100972 -0.00879515 0)
(-0.0989422 -0.00882819 0)
(-0.0969076 -0.00885567 0)
(-0.0948697 -0.00887765 0)
(-0.0928299 -0.00889419 0)
(-0.0907893 -0.00890539 0)
(-0.0887492 -0.00891134 0)
(-0.0867105 -0.00891221 0)
(-0.0846746 -0.00890819 0)
(-0.0826423 -0.00889949 0)
(-0.0806146 -0.00888633 0)
(-0.0785924 -0.00886893 0)
(-0.0765765 -0.00884752 0)
(-0.0745674 -0.00882238 0)
(-0.0725658 -0.00879381 0)
(-0.0705722 -0.00876207 0)
(-0.0685867 -0.00872722 0)
(-0.0666099 -0.00868893 0)
(-0.0646422 -0.00864628 0)
(-0.0626841 -0.00859783 0)
(-0.0607368 -0.00854181 0)
(-0.0588011 -0.00847652 0)
(-0.0568782 -0.00840077 0)
(-0.0549688 -0.00831415 0)
(-0.0530735 -0.00821693 0)
(-0.0511917 -0.00810968 0)
(-0.0493227 -0.00799278 0)
(-0.0474649 -0.0078662 0)
(-0.0456163 -0.00772936 0)
(-0.0437746 -0.0075813 0)
(-0.0419368 -0.00742088 0)
(-0.0400997 -0.00724687 0)
(-0.0382592 -0.00705809 0)
(-0.0364107 -0.00685341 0)
(-0.0345488 -0.00663168 0)
(-0.0326676 -0.00639172 0)
(-0.0307607 -0.00613215 0)
(-0.0288214 -0.00585093 0)
(-0.0268435 -0.00554609 0)
(-0.0248223 -0.00522033 0)
(-0.0227552 -0.00488072 0)
(-0.0206419 -0.00453545 0)
(-0.0184841 -0.0041939 0)
(-0.0162869 -0.00386856 0)
(-0.014059 -0.00357422 0)
(-0.0118164 -0.00332727 0)
(-0.00958453 -0.00314247 0)
(-0.00738365 -0.00303374 0)
(-0.005228 -0.00301036 0)
(-0.00314665 -0.00306565 0)
(-0.00117021 -0.00317629 0)
(0.000675748 -0.00330783 0)
(0.00237252 -0.00342048 0)
(0.00391003 -0.00348061 0)
(0.00528898 -0.00348645 0)
(0.00652684 -0.00345976 0)
(0.00765116 -0.00341042 0)
(0.00869049 -0.00333903 0)
(0.00966824 -0.003255 0)
(0.0106056 -0.00316944 0)
(0.0115182 -0.00309028 0)
(0.0124153 -0.003018 0)
(0.0132997 -0.00294737 0)
(0.0141685 -0.00287076 0)
(0.0150147 -0.00278267 0)
(0.0158279 -0.00268146 0)
(0.0165972 -0.00257164 0)
(0.0173134 -0.00246172 0)
(0.0179716 -0.00236085 0)
(0.0185727 -0.00227648 0)
(0.0191199 -0.0022125 0)
(0.0196184 -0.00216717 0)
(0.0200739 -0.00213504 0)
(0.0204889 -0.00210903 0)
(0.0208649 -0.00208322 0)
(0.0212032 -0.00205271 0)
(0.0215041 -0.00201451 0)
(0.0217683 -0.0019674 0)
(0.0219992 -0.00191119 0)
(0.0221962 -0.00184611 0)
(0.022359 -0.00177231 0)
(0.0224879 -0.00169043 0)
(0.0225812 -0.00159983 0)
(0.0226365 -0.00149944 0)
(0.0226515 -0.00138841 0)
(0.0226235 -0.00126613 0)
(0.0225494 -0.00113213 0)
(0.0224264 -0.000985741 0)
(0.0222517 -0.000826908 0)
(0.0220208 -0.000656369 0)
(0.0217274 -0.000474876 0)
(0.0213676 -0.000284801 0)
(0.0209344 -8.93692e-05 0)
(0.0204211 0.000110446 0)
(0.0198248 0.000313696 0)
(0.0191427 0.000517512 0)
(0.0183694 0.000719305 0)
(0.017502 0.000916934 0)
(0.0165382 0.00110847 0)
(0.0154761 0.00129069 0)
(0.0143163 0.00146085 0)
(0.0130618 0.00161609 0)
(0.0117169 0.00175414 0)
(0.010288 0.0018704 0)
(0.00877617 0.00195881 0)
(0.00721447 0.00202947 0)
(0.00550503 0.00210134 0)
(0.00391418 0.00192038 0)
(0.00238863 0.00114203 0)
(0.00138779 0.00286442 0)
(-0.00356723 0.0293595 0)
(-0.00711483 0.0218546 0)
(-0.0111217 0.024022 0)
(-0.0156401 0.0259541 0)
(-0.0203695 0.0264336 0)
(-0.0251239 0.0262495 0)
(-0.02979 0.0259793 0)
(-0.0344099 0.0257551 0)
(-0.0389865 0.0255432 0)
(-0.0435223 0.0253097 0)
(-0.0480107 0.0250471 0)
(-0.0524469 0.0247589 0)
(-0.0568265 0.0244485 0)
(-0.0611459 0.024118 0)
(-0.0654015 0.0237693 0)
(-0.0695905 0.0234042 0)
(-0.0737101 0.0230247 0)
(-0.0777579 0.022633 0)
(-0.0817322 0.0222315 0)
(-0.0856314 0.0218223 0)
(-0.0894545 0.0214078 0)
(-0.0932009 0.0209901 0)
(-0.0968702 0.0205714 0)
(-0.100463 0.0201536 0)
(-0.103979 0.0197384 0)
(-0.107419 0.0193275 0)
(-0.110785 0.0189222 0)
(-0.114078 0.0185238 0)
(-0.117298 0.018133 0)
(-0.120448 0.0177506 0)
(-0.12353 0.017377 0)
(-0.126544 0.0170124 0)
(-0.129493 0.016657 0)
(-0.132379 0.0163111 0)
(-0.135203 0.0159748 0)
(-0.137967 0.0156486 0)
(-0.14067 0.0153322 0)
(-0.143315 0.0150253 0)
(-0.1459 0.0147265 0)
(-0.148428 0.0144343 0)
(-0.150897 0.0141468 0)
(-0.153308 0.0138625 0)
(-0.155664 0.01358 0)
(-0.157963 0.0132983 0)
(-0.160208 0.0130166 0)
(-0.162398 0.0127344 0)
(-0.164535 0.0124512 0)
(-0.166618 0.012167 0)
(-0.168649 0.0118817 0)
(-0.170627 0.0115949 0)
(-0.172552 0.0113055 0)
(-0.174425 0.0110119 0)
(-0.176245 0.010712 0)
(-0.178014 0.010404 0)
(-0.179729 0.0100866 0)
(-0.181391 0.00975962 0)
(-0.183 0.00942417 0)
(-0.184554 0.00908206 0)
(-0.186053 0.00873535 0)
(-0.187496 0.00838592 0)
(-0.188882 0.0080352 0)
(-0.19021 0.00768423 0)
(-0.191481 0.00733373 0)
(-0.192693 0.00698428 0)
(-0.193846 0.00663632 0)
(-0.19494 0.00629027 0)
(-0.195975 0.00594645 0)
(-0.19695 0.00560516 0)
(-0.197867 0.00526663 0)
(-0.198725 0.00493108 0)
(-0.199524 0.00459876 0)
(-0.200266 0.00426992 0)
(-0.200952 0.00394481 0)
(-0.201581 0.0036236 0)
(-0.202154 0.00330633 0)
(-0.202674 0.00299296 0)