/*--------------------------------*- C++ -*----------------------------------*\
| =========                 |                                                 |
| \\      /  F ield         | OpenFOAM: The Open Source CFD Toolbox           |
|  \\    /   O peration     | Version:  v2006                                 |
|   \\  /    A nd           | Website:  www.openfoam.com                      |
|    \\/     M anipulation  |                                                 |
\*---------------------------------------------------------------------------*/
FoamFile
{
    version     2.0;
    format      ascii;
    class       volScalarField;
    location    "6";
    object      r;
}
// * * * * * * * * * * * * * * * * * * * * * * * * * * * * * * * * * * * * * //

dimensions      [1 2 0 0 0 0 0];


internalField   nonuniform List<scalar> 
350
(
-3.49637e-74
8.98376e-73
-2.07273e-71
4.55092e-70
-9.52197e-69
1.90028e-67
-3.62017e-66
6.58842e-65
-1.1462e-63
1.90734e-62
-3.03743e-61
4.63122e-60
-6.76347e-59
9.46401e-58
-1.26921e-56
1.63172e-55
-2.01132e-54
2.37735e-53
-2.69466e-52
2.92897e-51
-3.05281e-50
3.05074e-49
-2.92247e-48
2.68301e-47
-2.35981e-46
1.98761e-45
-1.60238e-44
1.23569e-43
-9.1085e-43
6.4121e-42
-4.30646e-41
2.75598e-40
-1.67817e-39
9.70608e-39
-5.32087e-38
2.7576e-37
-1.34678e-36
6.17314e-36
-2.64141e-35
1.04744e-34
-3.8095e-34
1.25051e-33
-3.60417e-33
8.61842e-33
-1.45109e-32
2.51606e-33
1.00931e-31
-4.75604e-31
1.31247e-30
-1.97965e-30
-1.61727e-30
2.07318e-29
-6.68925e-29
9.78009e-29
1.20824e-28
-1.07636e-27
2.68483e-27
-1.26099e-27
-1.36976e-26
4.74714e-26
-4.45713e-26
-1.76534e-25
7.17547e-25
-6.73212e-25
-2.68098e-24
9.79103e-24
-5.1658e-24
-4.46812e-23
1.12701e-22
4.14756e-23
-6.71809e-22
8.50334e-22
2.2005e-21
-7.41099e-21
-1.28972e-21
3.80673e-20
-3.6927e-20
-1.42875e-19
3.10955e-19
3.86949e-19
-1.72384e-18
-4.98563e-19
7.92729e-18
-2.2689e-18
-3.28617e-17
2.29753e-17
1.29017e-16
-1.27832e-16
-4.97184e-16
5.68259e-16
1.92512e-15
-2.16494e-15
-7.54244e-15
7.01235e-15
2.95725e-14
-1.74137e-14
-1.13089e-13
1.62823e-14
4.06638e-13
1.57891e-13
-1.30602e-12
-1.37947e-12
3.41176e-12
7.16475e-12
-5.3246e-12
-2.78191e-11
-8.72872e-12
7.9361e-11
1.09209e-10
-1.26622e-10
-4.77429e-10
-1.84566e-10
1.19782e-09
2.08811e-09
-7.11171e-10
-7.02921e-09
-8.04092e-09
8.02741e-09
3.48555e-08
3.25596e-08
-4.32969e-08
-1.61082e-07
-1.58484e-07
1.54005e-07
6.99052e-07
8.82516e-07
-1.65358e-07
-2.61317e-06
-4.72832e-06
-2.83082e-06
6.21235e-06
2.01905e-05
2.75697e-05
9.63842e-06
-4.7106e-05
-0.000130253
-0.000183588
-0.000110388
0.000185099
0.00071509
0.00130689
0.00153236
0.000734688
-0.00178734
-0.00641025
-0.0126599
-0.0186171
-0.0203909
-0.0118099
0.0155413
0.0718743
0.168356
0.315971
0.524261
0.800123
1.14686
1.5636
2.04524
2.58276
3.16396
3.77451
4.39905
5.02235
5.63025
6.21052
6.75331
7.25143
7.70036
8.09809
8.44476
8.74227
8.99384
9.20356
9.37605
9.51608
9.62835
9.71729
9.78693
9.84086
9.88218
9.91354
9.93713
9.95471
9.96766
9.977
9.98351
9.98787
9.99076
9.99299
9.99551
9.99923
10.0047
10.0115
10.0178
10.0199
10.0115
9.98424
9.92798
9.83155
9.68397
9.4757
9.19985
8.85313
8.43639
7.95475
7.41724
6.83604
6.22549
5.60095
4.97765
4.36975
3.78948
3.24669
2.74857
2.29964
1.90191
1.55524
1.25773
1.00616
0.796438
0.623951
0.483922
0.371653
0.282714
0.213064
0.159122
0.117792
0.0864494
0.0629169
0.0454178
0.032526
0.0231137
0.0163015
0.0114127
0.00793295
0.00547571
0.00375389
0.00255642
0.00172966
0.00116288
0.000777001
0.000516039
0.000340705
0.00022365
0.000145986
9.47676e-05
6.11883e-05
3.92994e-05
2.51112e-05
1.59645e-05
1.00995e-05
6.35834e-06
3.9841e-06
2.48491e-06
1.54276e-06
9.53646e-07
5.86858e-07
3.59644e-07
2.1946e-07
1.33363e-07
8.07374e-08
4.8655e-08
2.92381e-08
1.74774e-08
1.04251e-08
6.1884e-09
3.65896e-09
2.163e-09
1.26382e-09
7.46663e-10
4.30461e-10
2.53653e-10
1.45743e-10
8.38696e-11
4.97861e-11
2.65668e-11
1.72789e-11
8.11117e-12
5.84666e-12
2.66187e-12
1.64645e-12
1.17524e-12
1.83787e-13
6.63999e-13
-1.55276e-13
3.29615e-13
-8.70865e-14
7.6119e-14
3.98641e-14
-6.10226e-14
9.50518e-14
-8.69994e-14
7.61084e-14
-5.13502e-14
2.86237e-14
-6.94898e-15
-8.19871e-15
1.76035e-14
-2.08949e-14
1.98566e-14
-1.58773e-14
1.06809e-14
-5.47211e-15
1.14227e-15
1.90763e-15
-3.60354e-15
4.13689e-15
-3.82147e-15
3.00863e-15
-2.00714e-15
1.04947e-15
-2.76122e-16
-2.53707e-16
5.43831e-16
-6.36912e-16
5.92685e-16
-4.71612e-16
3.23683e-16
-1.84285e-16
7.32884e-17
2.08284e-18
-4.36352e-17
5.83546e-17
-5.49563e-17
4.18773e-17
-2.56853e-17
1.08705e-17
2.10279e-19
-6.83482e-18
9.33981e-18
-8.71465e-18
6.0528e-18
-2.44132e-18
-1.30978e-18
4.62864e-18
-7.19049e-18
8.89106e-18
-9.72493e-18
9.81365e-18
-9.27848e-18
8.28156e-18
-6.96581e-18
5.46388e-18
-3.90654e-18
2.36335e-18
-8.17275e-19
-8.07642e-19
2.15446e-18
-2.64748e-18
2.9823e-18
)
;

boundaryField
{
    right
    {
        type            zeroGradient;
    }
    left
    {
        type            inletOutlet;
        inletValue      uniform 0;
        value           uniform 0;
    }
    top
    {
        type            zeroGradient;
    }
    bottom
    {
        type            zeroGradient;
    }
    empty
    {
        type            empty;
    }
}


// ************************************************************************* //
