/*--------------------------------*- C++ -*----------------------------------*\
| =========                 |                                                 |
| \\      /  F ield         | OpenFOAM: The Open Source CFD Toolbox           |
|  \\    /   O peration     | Version:  v2006                                 |
|   \\  /    A nd           | Website:  www.openfoam.com                      |
|    \\/     M anipulation  |                                                 |
\*---------------------------------------------------------------------------*/
FoamFile
{
    version     2.0;
    format      ascii;
    class       volScalarField;
    location    "0.5";
    object      r;
}
// * * * * * * * * * * * * * * * * * * * * * * * * * * * * * * * * * * * * * //

dimensions      [1 2 0 0 0 0 0];


internalField   nonuniform List<scalar> 
350
(
-1.99578e-166
2.03809e-164
-1.49461e-162
1.09627e-160
-8.03021e-159
5.87421e-157
-4.29119e-155
3.13044e-153
-2.28045e-151
1.6589e-149
-1.20501e-147
8.74021e-146
-6.33005e-144
4.57758e-142
-3.3052e-140
2.38276e-138
-1.71504e-136
1.23244e-134
-8.84187e-133
6.33282e-131
-4.52804e-129
3.232e-127
-2.30284e-125
1.63786e-123
-1.16276e-121
8.23931e-120
-5.82721e-118
4.11322e-116
-2.89759e-114
2.03706e-112
-1.42911e-110
1.00046e-108
-6.98848e-107
4.8707e-105
-3.38688e-103
2.34954e-101
-1.62597e-99
1.12243e-97
-7.72841e-96
5.30732e-94
-3.63477e-92
2.48234e-90
-1.69038e-88
1.14765e-86
-7.76763e-85
5.24054e-83
-3.52389e-81
2.36141e-79
-1.57677e-77
1.04895e-75
-6.95124e-74
4.588e-72
-3.01554e-70
1.97337e-68
-1.2855e-66
8.33415e-65
-5.37631e-63
3.45013e-61
-2.20193e-59
1.39724e-57
-8.8127e-56
5.523e-54
-3.4381e-52
2.12507e-50
-1.30365e-48
7.93387e-47
-4.78771e-45
2.8632e-43
-1.69588e-41
9.94187e-40
-5.76432e-38
3.30275e-36
-1.86831e-34
1.04236e-32
-5.72888e-31
3.09763e-29
-1.64527e-27
8.56903e-26
-4.36756e-24
2.17338e-22
-1.05297e-20
4.95052e-19
-2.24967e-17
9.83381e-16
-4.11019e-14
1.63029e-12
-6.07713e-11
2.10162e-09
-6.62389e-08
1.85448e-06
-4.43248e-05
0.000844814
-0.0111435
0.0634501
0.411112
1.15888
2.28514
3.64363
5.04538
6.33162
7.40804
8.24414
8.85468
9.27786
9.55837
9.73726
9.84753
9.9135
9.95192
9.97378
9.98594
9.99258
9.99614
9.99802
9.999
9.9995
9.99975
9.99988
9.99994
9.99997
9.99999
9.99999
10
10
10
10
10
10
10
10
10
10
10
10
10
10
10
10
9.99916
10.0111
9.93655
9.58889
8.84112
7.71486
6.35637
4.95462
3.66838
2.59196
1.75586
1.14532
0.722138
0.441627
0.262745
0.152474
0.0865034
0.0480755
0.0262201
0.0140553
0.00741559
0.00385548
0.0019775
0.00100157
0.000501371
0.000248249
0.000121669
5.90632e-05
2.84153e-05
1.35555e-05
6.41538e-06
3.01344e-06
1.40545e-06
6.51093e-07
2.99706e-07
1.37123e-07
6.23763e-08
2.82187e-08
1.26992e-08
5.68643e-09
2.53409e-09
1.12412e-09
4.96477e-10
2.18351e-10
9.56435e-11
4.1732e-11
1.8141e-11
7.85767e-12
3.39173e-12
1.45915e-12
6.25715e-13
2.67486e-13
1.14004e-13
4.84473e-14
2.05303e-14
8.67623e-15
3.6569e-15
1.53736e-15
6.44686e-16
2.69688e-16
1.1255e-16
4.68621e-17
1.94679e-17
8.06979e-18
3.33789e-18
1.37775e-18
5.67518e-19
2.33301e-19
9.57198e-20
3.9197e-20
1.60209e-20
6.5361e-21
2.66174e-21
1.08204e-21
4.391e-22
1.77886e-22
7.19435e-23
2.90486e-23
1.17099e-23
4.71293e-24
1.89386e-24
7.59861e-25
3.04412e-25
1.2177e-25
4.86381e-26
1.93993e-26
7.72631e-27
3.07289e-27
1.22044e-27
4.84054e-28
1.91726e-28
7.58384e-29
2.99588e-29
1.18193e-29
4.65697e-30
1.83258e-30
7.20236e-31
2.82714e-31
1.10838e-31
4.3401e-32
1.69742e-32
6.63076e-33
2.58718e-33
1.00828e-33
3.92498e-34
1.52615e-34
5.9274e-35
2.29956e-35
8.91134e-36
3.44955e-36
1.33385e-36
5.15209e-37
1.98789e-37
7.66195e-38
2.95004e-38
1.13465e-38
4.35956e-39
1.67331e-39
6.41599e-40
2.4576e-40
9.40412e-41
3.59493e-41
1.37287e-41
5.23768e-42
1.99628e-42
7.60115e-43
2.89145e-43
1.09883e-43
4.17187e-44
1.5824e-44
5.99635e-45
2.27012e-45
8.58624e-46
3.24452e-46
1.22488e-46
4.61995e-47
1.74092e-47
6.55424e-48
2.4653e-48
9.2645e-49
3.47841e-49
1.30482e-49
4.8902e-50
1.83112e-50
6.85044e-51
2.56056e-51
9.56243e-52
3.56794e-52
1.3301e-52
4.95419e-53
1.84366e-53
6.85504e-54
2.54661e-54
9.45233e-55
3.50542e-55
1.29887e-55
4.8086e-56
1.77869e-56
6.57367e-57
2.42742e-57
8.95596e-58
3.30148e-58
1.21601e-58
4.47504e-59
1.64546e-59
6.04522e-60
2.21906e-60
8.13878e-61
2.98252e-61
1.09205e-61
3.99516e-62
1.46036e-62
5.33363e-63
1.94634e-63
7.09663e-64
2.58535e-64
9.41071e-65
3.42264e-65
1.24375e-65
4.5159e-66
1.63828e-66
5.93838e-67
2.15071e-67
7.78274e-68
2.81395e-68
1.01656e-68
3.66933e-69
1.32335e-69
4.76862e-70
1.7169e-70
6.17631e-71
2.21996e-71
7.97247e-72
2.86069e-72
1.0256e-72
3.67381e-73
1.31487e-73
4.70194e-74
1.67996e-74
5.99717e-75
2.13904e-75
7.62284e-76
2.71417e-76
9.65563e-77
3.43199e-77
1.21879e-77
4.32449e-78
1.53305e-78
5.42994e-79
1.92154e-79
6.79408e-80
2.38124e-80
)
;

boundaryField
{
    right
    {
        type            zeroGradient;
    }
    left
    {
        type            inletOutlet;
        inletValue      uniform 0;
        value           uniform 0;
    }
    top
    {
        type            zeroGradient;
    }
    bottom
    {
        type            zeroGradient;
    }
    empty
    {
        type            empty;
    }
}


// ************************************************************************* //
