/*--------------------------------*- C++ -*----------------------------------*\
| =========                 |                                                 |
| \\      /  F ield         | OpenFOAM: The Open Source CFD Toolbox           |
|  \\    /   O peration     | Version:  v2006                                 |
|   \\  /    A nd           | Website:  www.openfoam.com                      |
|    \\/     M anipulation  |                                                 |
\*---------------------------------------------------------------------------*/
FoamFile
{
    version     2.0;
    format      ascii;
    class       volVectorField;
    location    "5.1";
    object      U;
}
// * * * * * * * * * * * * * * * * * * * * * * * * * * * * * * * * * * * * * //

dimensions      [0 1 -1 0 0 0 0];


internalField   nonuniform List<vector> 
150000
(
(-0.00694588 0.0034263 0)
(-0.0162344 0.0023439 0)
(-0.0253267 0.00224076 0)
(-0.0355196 0.00235485 0)
(-0.0453354 0.00243432 0)
(-0.0555131 0.00245504 0)
(-0.0655201 0.00246132 0)
(-0.075624 0.00246452 0)
(-0.0857208 0.00247866 0)
(-0.0958793 0.00250413 0)
(-0.106096 0.00254056 0)
(-0.116392 0.00258618 0)
(-0.126779 0.00264106 0)
(-0.137272 0.00270488 0)
(-0.147881 0.00277707 0)
(-0.15862 0.002857 0)
(-0.169496 0.00294417 0)
(-0.180521 0.003038 0)
(-0.191702 0.00313759 0)
(-0.203044 0.00324192 0)
(-0.214555 0.00335007 0)
(-0.226237 0.00346119 0)
(-0.238093 0.00357454 0)
(-0.250126 0.00368962 0)
(-0.262336 0.0038061 0)
(-0.274725 0.00392364 0)
(-0.287291 0.00404171 0)
(-0.300035 0.00415978 0)
(-0.312954 0.00427782 0)
(-0.326047 0.00439684 0)
(-0.339313 0.00451849 0)
(-0.352751 0.00464313 0)
(-0.366357 0.00476731 0)
(-0.380121 0.00488361 0)
(-0.394033 0.00498562 0)
(-0.408081 0.00507591 0)
(-0.422269 0.00517037 0)
(-0.436618 0.0052918 0)
(-0.451164 0.005454 0)
(-0.465934 0.00564761 0)
(-0.480933 0.00584117 0)
(-0.496125 0.00599933 0)
(-0.511444 0.00610316 0)
(-0.526812 0.00615268 0)
(-0.54215 0.006147 0)
(-0.557374 0.00606181 0)
(-0.572374 0.00585235 0)
(-0.587018 0.00548964 0)
(-0.601186 0.00500471 0)
(-0.614832 0.00450206 0)
(-0.628031 0.004125 0)
(-0.640992 0.00399262 0)
(-0.653998 0.00414847 0)
(-0.667327 0.00455032 0)
(-0.681179 0.00510085 0)
(-0.695643 0.00569363 0)
(-0.710707 0.0062462 0)
(-0.726289 0.00671016 0)
(-0.742271 0.00706549 0)
(-0.758523 0.00731081 0)
(-0.77492 0.00745571 0)
(-0.791353 0.00751559 0)
(-0.807731 0.00750818 0)
(-0.823982 0.00745089 0)
(-0.840054 0.00735928 0)
(-0.855913 0.0072463 0)
(-0.871537 0.00712213 0)
(-0.886914 0.00699441 0)
(-0.902043 0.00686851 0)
(-0.916926 0.006748 0)
(-0.931571 0.00663506 0)
(-0.945986 0.00653084 0)
(-0.96018 0.00643578 0)
(-0.974165 0.00634983 0)
(-0.98795 0.0062726 0)
(-1.00154 0.00620357 0)
(-1.01495 0.00614209 0)
(-1.02819 0.00608754 0)
(-1.04125 0.00603934 0)
(-1.05415 0.00599698 0)
(-1.06688 0.00596007 0)
(-1.07947 0.00592831 0)
(-1.0919 0.00590155 0)
(-1.10417 0.0058797 0)
(-1.11631 0.0058628 0)
(-1.1283 0.00585096 0)
(-1.14014 0.00584431 0)
(-1.15186 0.00584301 0)
(-1.16343 0.0058472 0)
(-1.17488 0.00585702 0)
(-1.1862 0.00587253 0)
(-1.1974 0.00589377 0)
(-1.20848 0.00592072 0)
(-1.21945 0.00595319 0)
(-1.23031 0.0059908 0)
(-1.24107 0.0060329 0)
(-1.25172 0.00607875 0)
(-1.26227 0.0061279 0)
(-1.27273 0.00618077 0)
(-1.2831 0.00623885 0)
(-1.29338 0.00630403 0)
(-1.30358 0.00637679 0)
(-1.3137 0.00645403 0)
(-1.32374 0.00652867 0)
(-1.33369 0.0065929 0)
(-1.34352 0.00664535 0)
(-1.35323 0.00669886 0)
(-1.36279 0.00678252 0)
(-1.37224 0.00693228 0)
(-1.38164 0.00717017 0)
(-1.39108 0.00748075 0)
(-1.40065 0.00779979 0)
(-1.41037 0.00802526 0)
(-1.42018 0.00804616 0)
(-1.42991 0.00777591 0)
(-1.43927 0.00717999 0)
(-1.44798 0.0062894 0)
(-1.45576 0.00519272 0)
(-1.46243 0.00400889 0)
(-1.46793 0.00285418 0)
(-1.47228 0.00181725 0)
(-1.47559 0.000948398 0)
(-1.478 0.0002613 0)
(-1.47965 -0.000257118 0)
(-1.48069 -0.000632496 0)
(-1.48123 -0.000894081 0)
(-1.48136 -0.0010772 0)
(-1.48118 -0.00121927 0)
(-1.48074 -0.00133543 0)
(-1.48006 -0.00144488 0)
(-1.47913 -0.00155225 0)
(-1.47795 -0.0016585 0)
(-1.47654 -0.00176381 0)
(-1.47488 -0.00186817 0)
(-1.47298 -0.00197155 0)
(-1.47084 -0.00207389 0)
(-1.46845 -0.00217521 0)
(-1.46583 -0.00227564 0)
(-1.46296 -0.00237534 0)
(-1.45984 -0.00247443 0)
(-1.45649 -0.00257291 0)
(-1.45289 -0.00267051 0)
(-1.44905 -0.00276663 0)
(-1.44497 -0.00286033 0)
(-1.44064 -0.00295048 0)
(-1.43608 -0.00303592 0)
(-1.43129 -0.00311578 0)
(-1.42627 -0.00318967 0)
(-1.42102 -0.00325784 0)
(-1.41555 -0.0033212 0)
(-1.40986 -0.00338114 0)
(-1.40395 -0.00343929 0)
(-1.39784 -0.00349718 0)
(-1.39151 -0.00355605 0)
(-1.38497 -0.00361662 0)
(-1.37822 -0.00367913 0)
(-1.37127 -0.00374336 0)
(-1.36411 -0.00380881 0)
(-1.35675 -0.00387483 0)
(-1.34919 -0.00394077 0)
(-1.34144 -0.00400603 0)
(-1.33349 -0.00407013 0)
(-1.32537 -0.00413268 0)
(-1.31706 -0.00419334 0)
(-1.30858 -0.00425187 0)
(-1.29993 -0.00430802 0)
(-1.29112 -0.00436161 0)
(-1.28216 -0.00441247 0)
(-1.27305 -0.00446047 0)
(-1.26381 -0.00450551 0)
(-1.25444 -0.00454753 0)
(-1.24494 -0.00458654 0)
(-1.23533 -0.00462257 0)
(-1.22562 -0.00465573 0)
(-1.21581 -0.0046862 0)
(-1.20591 -0.00471422 0)
(-1.19593 -0.00474015 0)
(-1.18589 -0.00476449 0)
(-1.17579 -0.004788 0)
(-1.16565 -0.00481169 0)
(-1.15549 -0.0048369 0)
(-1.14532 -0.00486517 0)
(-1.13515 -0.00489805 0)
(-1.12499 -0.00493668 0)
(-1.11486 -0.00498128 0)
(-1.10475 -0.00503061 0)
(-1.09465 -0.00508161 0)
(-1.08457 -0.00512923 0)
(-1.0745 -0.00516674 0)
(-1.06444 -0.00518629 0)
(-1.0544 -0.00517975 0)
(-1.04439 -0.00513968 0)
(-1.03444 -0.00506018 0)
(-1.02459 -0.00493762 0)
(-1.01488 -0.00477109 0)
(-1.00534 -0.00456249 0)
(-0.996021 -0.00431643 0)
(-0.986967 -0.00403982 0)
(-0.978209 -0.00374116 0)
(-0.969775 -0.0034295 0)
(-0.961686 -0.00311362 0)
(-0.953951 -0.00280139 0)
(-0.946578 -0.00249929 0)
(-0.939563 -0.0022123 0)
(-0.932901 -0.00194383 0)
(-0.926582 -0.00169588 0)
(-0.920594 -0.00146926 0)
(-0.914924 -0.00126375 0)
(-0.909559 -0.00107829 0)
(-0.904485 -0.000911192 0)
(-0.89969 -0.000760326 0)
(-0.895165 -0.000623361 0)
(-0.890901 -0.000497961 0)
(-0.886891 -0.000381932 0)
(-0.88313 -0.000273312 0)
(-0.879615 -0.000170402 0)
(-0.876343 -7.17762e-05 0)
(-0.873313 2.37185e-05 0)
(-0.870523 0.000117025 0)
(-0.867974 0.000209063 0)
(-0.865665 0.000300975 0)
(-0.863598 0.000393864 0)
(-0.861775 0.000486998 0)
(-0.860196 0.000574284 0)
(-0.858851 0.000641739 0)
(-0.857718 0.000671019 0)
(-0.856754 0.000650677 0)
(-0.855915 0.000587579 0)
(-0.855168 0.000506407 0)
(-0.854507 0.000435356 0)
(-0.853945 0.000391001 0)
(-0.853495 0.000374967 0)
(-0.853171 0.000381323 0)
(-0.852983 0.000406061 0)
(-0.852937 0.000449381 0)
(-0.853047 0.000514089 0)
(-0.853316 0.000590483 0)
(-0.853753 0.000669588 0)
(-0.85436 0.000744053 0)
(-0.855137 0.000815312 0)
(-0.856082 0.000884696 0)
(-0.85719 0.000952627 0)
(-0.858459 0.00101916 0)
(-0.859885 0.00108422 0)
(-0.861463 0.00114774 0)
(-0.863189 0.00120974 0)
(-0.865057 0.00127031 0)
(-0.867063 0.00132963 0)
(-0.869202 0.00138798 0)
(-0.871467 0.00144569 0)
(-0.873853 0.00150334 0)
(-0.876353 0.0015618 0)
(-0.878962 0.00162248 0)
(-0.881674 0.00168713 0)
(-0.884484 0.00175743 0)
(-0.887386 0.00183393 0)
(-0.890376 0.001915 0)
(-0.893445 0.00199635 0)
(-0.896582 0.00207245 0)
(-0.899776 0.00213978 0)
(-0.903016 0.00220058 0)
(-0.9063 0.00226456 0)
(-0.909627 0.00234692 0)
(-0.913 0.0024644 0)
(-0.916409 0.0026336 0)
(-0.919826 0.00287358 0)
(-0.923222 0.00320765 0)
(-0.926585 0.00365491 0)
(-0.929948 0.00420937 0)
(-0.933395 0.0048199 0)
(-0.937026 0.00539507 0)
(-0.940913 0.00582509 0)
(-0.945062 0.00598825 0)
(-0.949393 0.00584544 0)
(-0.953737 0.0054334 0)
(-0.957854 0.00479291 0)
(-0.961511 0.00399305 0)
(-0.964536 0.00312695 0)
(-0.96685 0.0022776 0)
(-0.968454 0.00150152 0)
(-0.969399 0.000825736 0)
(-0.969749 0.000239418 0)
(-0.969558 -0.00030127 0)
(-0.9689 -0.000750544 0)
(-0.967883 -0.00108529 0)
(-0.966577 -0.00132763 0)
(-0.96504 -0.00150663 0)
(-0.96331 -0.00164624 0)
(-0.96141 -0.001763 0)
(-0.959354 -0.00186712 0)
(-0.957149 -0.00196426 0)
(-0.954803 -0.00205739 0)
(-0.952317 -0.00214787 0)
(-0.949696 -0.00223607 0)
(-0.946943 -0.00232163 0)
(-0.944063 -0.00240397 0)
(-0.94106 -0.0024824 0)
(-0.937939 -0.00255613 0)
(-0.934707 -0.00262437 0)
(-0.93137 -0.00268646 0)
(-0.927936 -0.00274189 0)
(-0.924413 -0.00279016 0)
(-0.920807 -0.00283083 0)
(-0.917129 -0.00286377 0)
(-0.913387 -0.00288894 0)
(-0.909588 -0.00290629 0)
(-0.905743 -0.00291567 0)
(-0.901859 -0.00291703 0)
(-0.897945 -0.0029105 0)
(-0.894009 -0.00289631 0)
(-0.89006 -0.00287476 0)
(-0.886105 -0.00284603 0)
(-0.882153 -0.00281034 0)
(-0.878212 -0.00276791 0)
(-0.874288 -0.00271901 0)
(-0.870388 -0.00266385 0)
(-0.866521 -0.00260269 0)
(-0.862692 -0.00253577 0)
(-0.858907 -0.00246337 0)
(-0.855173 -0.0023858 0)
(-0.851495 -0.00230332 0)
(-0.84788 -0.0022162 0)
(-0.844332 -0.0021247 0)
(-0.840855 -0.00202912 0)
(-0.837456 -0.00192972 0)
(-0.834136 -0.00182677 0)
(-0.830901 -0.00172053 0)
(-0.827753 -0.00161121 0)
(-0.824696 -0.00149897 0)
(-0.821733 -0.00138394 0)
(-0.818866 -0.00126621 0)
(-0.816098 -0.00114586 0)
(-0.813429 -0.00102301 0)
(-0.810863 -0.000897852 0)
(-0.808401 -0.000770559 0)
(-0.806042 -0.00064132 0)
(-0.803789 -0.000510292 0)
(-0.801642 -0.000377577 0)
(-0.799601 -0.000243204 0)
(-0.797667 -0.000107146 0)
(-0.79584 3.06563e-05 0)
(-0.79412 0.000170251 0)
(-0.792507 0.000311558 0)
(-0.791001 0.000454193 0)
(-0.789602 0.000597324 0)
(-0.788309 0.0007397 0)
(-0.787118 0.000879917 0)
(-0.786027 0.00101694 0)
(-0.785031 0.00115073 0)
(-0.784129 0.00128272 0)
(-0.78332 0.00141553 0)
(-0.782607 0.00155196 0)
(-0.781996 0.0016931 0)
(-0.781497 0.00183608 0)
(-0.781116 0.00197225 0)
(-0.780852 0.00208608 0)
(-0.780692 0.00215763 0)
(-0.780609 0.00216947 0)
(-0.780554 0.00210215 0)
(-0.78046 0.00193415 0)
(-0.780244 0.00166035 0)
(-0.779822 0.00129717 0)
(-0.779132 0.000882439 0)
(-0.778151 0.000465932 0)
(-0.776896 9.17943e-05 0)
(-0.775414 -0.000214287 0)
(-0.773764 -0.000448399 0)
(-0.771996 -0.000624215 0)
(-0.770147 -0.000764698 0)
(-0.768232 -0.000891179 0)
(-0.766252 -0.00101278 0)
(-0.76421 -0.00112258 0)
(-0.762117 -0.00120494 0)
(-0.759999 -0.0012495 0)
(-0.757887 -0.00125988 0)
(-0.7558 -0.00124996 0)
(-0.753746 -0.00123315 0)
(-0.751723 -0.00121576 0)
(-0.749728 -0.00119857 0)
(-0.747757 -0.00118127 0)
(-0.745809 -0.00116433 0)
(-0.743881 -0.00114835 0)
(-0.74197 -0.00113359 0)
(-0.740074 -0.00112006 0)
(-0.73819 -0.0011078 0)
(-0.736315 -0.00109687 0)
(-0.734445 -0.00108736 0)
(-0.732579 -0.00107933 0)
(-0.730713 -0.00107288 0)
(-0.728842 -0.00106809 0)
(-0.726965 -0.00106508 0)
(-0.725076 -0.00106394 0)
(-0.723173 -0.00106478 0)
(-0.721251 -0.00106769 0)
(-0.719306 -0.00107274 0)
(-0.717335 -0.00107996 0)
(-0.715332 -0.00108936 0)
(-0.713295 -0.00110092 0)
(-0.711218 -0.00111459 0)
(-0.709098 -0.00113031 0)
(-0.706931 -0.00114801 0)
(-0.704713 -0.00116762 0)
(-0.70244 -0.00118906 0)
(-0.700109 -0.00121227 0)
(-0.697715 -0.00123718 0)
(-0.695256 -0.00126375 0)
(-0.692728 -0.00129191 0)
(-0.690127 -0.0013216 0)
(-0.68745 -0.0013528 0)
(-0.684694 -0.00138545 0)
(-0.681856 -0.00141952 0)
(-0.678932 -0.00145499 0)
(-0.67592 -0.00149181 0)
(-0.672817 -0.00152997 0)
(-0.669621 -0.00156942 0)
(-0.666328 -0.00161011 0)
(-0.662936 -0.00165199 0)
(-0.659443 -0.00169502 0)
(-0.655847 -0.00173913 0)
(-0.652145 -0.00178429 0)
(-0.648336 -0.00183045 0)
(-0.644418 -0.00187756 0)
(-0.640388 -0.00192557 0)
(-0.636245 -0.00197446 0)
(-0.631988 -0.00202418 0)
(-0.627616 -0.00207467 0)
(-0.623126 -0.0021259 0)
(-0.618517 -0.0021778 0)
(-0.61379 -0.00223034 0)
(-0.608941 -0.00228348 0)
(-0.603972 -0.00233722 0)
(-0.59888 -0.00239155 0)
(-0.593664 -0.00244653 0)
(-0.588325 -0.00250219 0)
(-0.582861 -0.00255857 0)
(-0.577272 -0.00261567 0)
(-0.571556 -0.00267344 0)
(-0.565714 -0.00273174 0)
(-0.559745 -0.00279039 0)
(-0.553649 -0.00284914 0)
(-0.547427 -0.00290775 0)
(-0.541079 -0.00296604 0)
(-0.534607 -0.00302388 0)
(-0.528011 -0.00308124 0)
(-0.521293 -0.00313817 0)
(-0.514454 -0.00319481 0)
(-0.507496 -0.00325126 0)
(-0.500419 -0.00330763 0)
(-0.493226 -0.00336398 0)
(-0.485917 -0.00342029 0)
(-0.478493 -0.0034765 0)
(-0.470956 -0.00353253 0)
(-0.463307 -0.00358828 0)
(-0.455547 -0.00364368 0)
(-0.447678 -0.00369868 0)
(-0.439701 -0.00375325 0)
(-0.431617 -0.00380738 0)
(-0.423428 -0.00386106 0)
(-0.415136 -0.00391426 0)
(-0.406742 -0.00396698 0)
(-0.398248 -0.00401919 0)
(-0.389654 -0.00407086 0)
(-0.380964 -0.00412197 0)
(-0.372179 -0.00417253 0)
(-0.363299 -0.00422253 0)
(-0.354328 -0.00427198 0)
(-0.345266 -0.00432091 0)
(-0.336116 -0.00436935 0)
(-0.326879 -0.0044173 0)
(-0.317557 -0.0044648 0)
(-0.308151 -0.00451184 0)
(-0.298662 -0.00455846 0)
(-0.289093 -0.00460475 0)
(-0.279445 -0.00465084 0)
(-0.269718 -0.00469687 0)
(-0.259915 -0.00474295 0)
(-0.250035 -0.00478907 0)
(-0.240081 -0.00483502 0)
(-0.230053 -0.00488036 0)
(-0.219954 -0.00492441 0)
(-0.209785 -0.00496628 0)
(-0.19955 -0.0050049 0)
(-0.189252 -0.0050392 0)
(-0.178895 -0.00506845 0)
(-0.168482 -0.00509277 0)
(-0.158016 -0.0051138 0)
(-0.147498 -0.00513489 0)
(-0.136927 -0.00515987 0)
(-0.126294 -0.005191 0)
(-0.115591 -0.00522922 0)
(-0.104832 -0.00528014 0)
(-0.0940394 -0.00536835 0)
(-0.0831616 -0.0055542 0)
(-0.0721111 -0.00590017 0)
(-0.0609644 -0.00631736 0)
(-0.0497284 -0.00646992 0)
(-0.037815 -0.00613313 0)
(-0.0249509 -0.00564528 0)
(-0.0135513 -0.00520937 0)
(0.000207498 -0.00339669 0)
(-0.0105457 0.0161826 0)
(-0.0252366 0.013787 0)
(-0.0416073 0.0142723 0)
(-0.0591707 0.0146348 0)
(-0.0763844 0.0147298 0)
(-0.0937762 0.0147573 0)
(-0.111044 0.0147821 0)
(-0.128387 0.0148138 0)
(-0.145722 0.0148622 0)
(-0.163081 0.0149268 0)
(-0.180447 0.0150074 0)
(-0.197828 0.0151028 0)
(-0.21522 0.0152119 0)
(-0.232625 0.0153338 0)
(-0.250042 0.0154672 0)
(-0.267472 0.015611 0)
(-0.284916 0.015764 0)
(-0.302373 0.0159249 0)
(-0.319846 0.0160923 0)
(-0.337333 0.0162651 0)
(-0.354838 0.0164419 0)
(-0.372362 0.0166217 0)
(-0.389906 0.0168036 0)
(-0.407472 0.0169867 0)
(-0.425063 0.01717 0)
(-0.442679 0.0173526 0)
(-0.460321 0.0175338 0)
(-0.47799 0.0177131 0)
(-0.495686 0.0178901 0)
(-0.513407 0.0180641 0)
(-0.531152 0.0182333 0)
(-0.548913 0.0183947 0)
(-0.566687 0.0185457 0)
(-0.584468 0.0186867 0)
(-0.602255 0.0188233 0)
(-0.620049 0.0189662 0)
(-0.637844 0.0191261 0)
(-0.655623 0.0193065 0)
(-0.673354 0.0194982 0)
(-0.691003 0.0196798 0)
(-0.708543 0.0198247 0)
(-0.725965 0.0199107 0)
(-0.743276 0.0199246 0)
(-0.760492 0.0198609 0)
(-0.777639 0.0197169 0)
(-0.794758 0.0194915 0)
(-0.811913 0.019192 0)
(-0.829195 0.0188446 0)
(-0.84669 0.0185002 0)
(-0.86444 0.0182274 0)
(-0.88241 0.018092 0)
(-0.900479 0.0181333 0)
(-0.918478 0.0183491 0)
(-0.936239 0.0186965 0)
(-0.953633 0.0191084 0)
(-0.970586 0.0195148 0)
(-0.98707 0.0198608 0)
(-1.00309 0.0201128 0)
(-1.01868 0.0202573 0)
(-1.03385 0.0202956 0)
(-1.04866 0.0202384 0)
(-1.06314 0.0201014 0)
(-1.07731 0.0199017 0)
(-1.0912 0.0196563 0)
(-1.10485 0.01938 0)
(-1.11826 0.0190851 0)
(-1.13145 0.0187813 0)
(-1.14443 0.0184756 0)
(-1.15721 0.018173 0)
(-1.16979 0.0178766 0)
(-1.18218 0.0175881 0)
(-1.19436 0.0173082 0)
(-1.20635 0.0170367 0)
(-1.21814 0.0167731 0)
(-1.22972 0.0165166 0)
(-1.24109 0.0162662 0)
(-1.25226 0.0160208 0)
(-1.2632 0.0157795 0)
(-1.27392 0.0155415 0)
(-1.28441 0.015306 0)
(-1.29467 0.0150723 0)
(-1.30469 0.0148399 0)
(-1.31447 0.0146085 0)
(-1.324 0.0143778 0)
(-1.33328 0.0141478 0)
(-1.34231 0.0139183 0)
(-1.35107 0.0136895 0)
(-1.35956 0.0134615 0)
(-1.36779 0.0132344 0)
(-1.37573 0.0130085 0)
(-1.3834 0.0127838 0)
(-1.39079 0.0125606 0)
(-1.39789 0.012339 0)
(-1.4047 0.0121189 0)
(-1.41121 0.0119006 0)
(-1.41743 0.011684 0)
(-1.42334 0.0114691 0)
(-1.42895 0.0112559 0)
(-1.43425 0.0110445 0)
(-1.43924 0.0108347 0)
(-1.44391 0.0106256 0)
(-1.44826 0.010415 0)
(-1.45228 0.0101985 0)
(-1.45595 0.00996981 0)
(-1.45927 0.00972267 0)
(-1.46224 0.00945471 0)
(-1.46488 0.00917184 0)
(-1.46717 0.00889041 0)
(-1.4691 0.00863432 0)
(-1.4706 0.00842584 0)
(-1.47159 0.00827283 0)
(-1.47196 0.0081584 0)
(-1.47167 0.00804077 0)
(-1.47076 0.0078656 0)
(-1.46937 0.00758507 0)
(-1.46777 0.00717433 0)
(-1.46625 0.00663828 0)
(-1.46511 0.00600684 0)
(-1.46456 0.00532255 0)
(-1.46468 0.00462769 0)
(-1.4655 0.00395582 0)
(-1.4669 0.00332855 0)
(-1.46878 0.00275607 0)
(-1.47096 0.00224033 0)
(-1.47332 0.00178052 0)
(-1.47573 0.00137554 0)
(-1.47809 0.00101765 0)
(-1.4803 0.000690273 0)
(-1.48228 0.000384327 0)
(-1.48404 8.4589e-05 0)
(-1.48555 -0.000213915 0)
(-1.48682 -0.000512513 0)
(-1.48784 -0.000812227 0)
(-1.4886 -0.00111327 0)
(-1.48912 -0.00141571 0)
(-1.48937 -0.00171953 0)
(-1.48936 -0.00202466 0)
(-1.48908 -0.00233097 0)
(-1.48854 -0.00263829 0)
(-1.48772 -0.00294639 0)
(-1.48663 -0.00325503 0)
(-1.48526 -0.00356399 0)
(-1.48362 -0.00387307 0)
(-1.48168 -0.00418217 0)
(-1.47947 -0.00449117 0)
(-1.47696 -0.00479998 0)
(-1.47417 -0.00510839 0)
(-1.47107 -0.0054161 0)
(-1.46769 -0.00572264 0)
(-1.46401 -0.00602744 0)
(-1.46004 -0.00632991 0)
(-1.45578 -0.00662944 0)
(-1.45124 -0.00692551 0)
(-1.44642 -0.00721772 0)
(-1.44134 -0.00750571 0)
(-1.43599 -0.0077892 0)
(-1.43039 -0.00806787 0)
(-1.42455 -0.00834138 0)
(-1.41846 -0.00860933 0)
(-1.41215 -0.00887127 0)
(-1.40561 -0.00912672 0)
(-1.39885 -0.0093752 0)
(-1.39188 -0.00961621 0)
(-1.3847 -0.00984928 0)
(-1.37733 -0.0100739 0)
(-1.36977 -0.0102898 0)
(-1.36204 -0.0104963 0)
(-1.35413 -0.0106932 0)
(-1.34606 -0.0108802 0)
(-1.33784 -0.011057 0)
(-1.32948 -0.0112235 0)
(-1.32098 -0.0113796 0)
(-1.31235 -0.0115252 0)
(-1.30361 -0.0116597 0)
(-1.29477 -0.0117823 0)
(-1.28583 -0.0118912 0)
(-1.27683 -0.011984 0)
(-1.26777 -0.0120579 0)
(-1.25867 -0.0121094 0)
(-1.24956 -0.0121358 0)
(-1.24046 -0.0121353 0)
(-1.2314 -0.0121085 0)
(-1.22238 -0.0120581 0)
(-1.21342 -0.0119897 0)
(-1.20453 -0.0119108 0)
(-1.1957 -0.0118298 0)
(-1.18692 -0.0117545 0)
(-1.17817 -0.0116904 0)
(-1.16945 -0.0116393 0)
(-1.16072 -0.0115993 0)
(-1.15197 -0.0115643 0)
(-1.14321 -0.011526 0)
(-1.13441 -0.0114749 0)
(-1.12559 -0.0114019 0)
(-1.11674 -0.0113 0)
(-1.10788 -0.0111649 0)
(-1.09902 -0.010995 0)
(-1.09016 -0.0107915 0)
(-1.08133 -0.0105577 0)
(-1.07253 -0.0102979 0)
(-1.06378 -0.0100172 0)
(-1.0551 -0.00972072 0)
(-1.0465 -0.00941319 0)
(-1.038 -0.00909874 0)
(-1.02961 -0.00878082 0)
(-1.02136 -0.00846214 0)
(-1.01326 -0.00814471 0)
(-1.00532 -0.0078298 0)
(-0.997551 -0.00751803 0)
(-0.989977 -0.00720946 0)
(-0.982605 -0.00690373 0)
(-0.975446 -0.00660022 0)
(-0.968507 -0.00629818 0)
(-0.961797 -0.00599691 0)
(-0.955322 -0.00569576 0)
(-0.949087 -0.00539425 0)
(-0.943096 -0.00509204 0)
(-0.937354 -0.00478895 0)
(-0.931862 -0.00448493 0)
(-0.926623 -0.0041799 0)
(-0.921637 -0.00387363 0)
(-0.916904 -0.00356577 0)
(-0.912421 -0.00325663 0)
(-0.908191 -0.00294883 0)
(-0.904222 -0.00264846 0)
(-0.900538 -0.00236372 0)
(-0.897176 -0.00210047 0)
(-0.894176 -0.00185784 0)
(-0.891558 -0.00162884 0)
(-0.889314 -0.00140649 0)
(-0.887418 -0.00118921 0)
(-0.885839 -0.000979022 0)
(-0.884548 -0.000775176 0)
(-0.883526 -0.000570174 0)
(-0.882761 -0.000354982 0)
(-0.882236 -0.000128345 0)
(-0.881946 9.88547e-05 0)
(-0.881888 0.000311921 0)
(-0.882045 0.000528179 0)
(-0.882404 0.000743852 0)
(-0.882956 0.000956116 0)
(-0.883693 0.00116359 0)
(-0.884607 0.00136552 0)
(-0.885689 0.00156141 0)
(-0.886933 0.00175084 0)
(-0.888328 0.00193341 0)
(-0.889867 0.00210866 0)
(-0.891541 0.00227598 0)
(-0.893341 0.00243467 0)
(-0.895256 0.00258388 0)
(-0.897277 0.0027227 0)
(-0.89939 0.00285024 0)
(-0.901583 0.00296558 0)
(-0.90384 0.00306775 0)
(-0.906145 0.00315556 0)
(-0.908477 0.00322761 0)
(-0.910815 0.00328268 0)
(-0.913139 0.0033208 0)
(-0.91543 0.00334453 0)
(-0.91767 0.00335926 0)
(-0.919847 0.00337081 0)
(-0.921953 0.00337932 0)
(-0.92398 0.00337163 0)
(-0.925912 0.00331755 0)
(-0.927703 0.00317638 0)
(-0.929253 0.00291549 0)
(-0.930373 0.0025341 0)
(-0.930781 0.00207767 0)
(-0.930136 0.00163089 0)
(-0.928134 0.00128997 0)
(-0.924628 0.00110733 0)
(-0.919774 0.00105201 0)
(-0.913964 0.0011253 0)
(-0.907692 0.00122638 0)
(-0.90147 0.00128238 0)
(-0.895711 0.00124154 0)
(-0.890662 0.0010882 0)
(-0.886408 0.000849634 0)
(-0.882927 0.00057142 0)
(-0.88014 0.000291984 0)
(-0.877954 3.06054e-05 0)
(-0.876284 -0.000217569 0)
(-0.875069 -0.000476843 0)
(-0.874224 -0.000716902 0)
(-0.873614 -0.000923885 0)
(-0.873144 -0.0011058 0)
(-0.872744 -0.00127138 0)
(-0.872366 -0.00142695 0)
(-0.871978 -0.0015762 0)
(-0.871565 -0.0017212 0)
(-0.871116 -0.00186327 0)
(-0.87063 -0.00200264 0)
(-0.870104 -0.00213916 0)
(-0.869541 -0.0022724 0)
(-0.868942 -0.00240186 0)
(-0.868309 -0.00252718 0)
(-0.867644 -0.00264794 0)
(-0.866947 -0.00276373 0)
(-0.866221 -0.00287427 0)
(-0.865464 -0.0029793 0)
(-0.864676 -0.00307847 0)
(-0.863856 -0.00317153 0)
(-0.863004 -0.0032584 0)
(-0.862116 -0.00333897 0)
(-0.86119 -0.00341305 0)
(-0.860225 -0.00348052 0)
(-0.859216 -0.00354145 0)
(-0.858162 -0.00359601 0)
(-0.85706 -0.00364433 0)
(-0.855908 -0.00368648 0)
(-0.854701 -0.00372246 0)
(-0.853439 -0.00375235 0)
(-0.852118 -0.00377628 0)
(-0.850736 -0.00379443 0)
(-0.849291 -0.00380696 0)
(-0.847781 -0.00381401 0)
(-0.846205 -0.0038158 0)
(-0.84456 -0.00381248 0)
(-0.842847 -0.00380426 0)
(-0.841063 -0.00379132 0)
(-0.839207 -0.00377387 0)
(-0.83728 -0.00375218 0)
(-0.835281 -0.00372652 0)
(-0.833208 -0.00369722 0)
(-0.831063 -0.00366462 0)
(-0.828845 -0.00362906 0)
(-0.826555 -0.00359086 0)
(-0.824193 -0.0035503 0)
(-0.82176 -0.00350769 0)
(-0.819255 -0.00346337 0)
(-0.816681 -0.00341773 0)
(-0.814036 -0.00337114 0)
(-0.811322 -0.00332399 0)
(-0.80854 -0.0032766 0)
(-0.80569 -0.00322927 0)
(-0.802773 -0.00318227 0)
(-0.79979 -0.00313586 0)
(-0.79674 -0.00309029 0)
(-0.793624 -0.0030458 0)
(-0.790442 -0.0030026 0)
(-0.787193 -0.00296088 0)
(-0.783877 -0.0029208 0)
(-0.780491 -0.00288257 0)
(-0.777033 -0.00284647 0)
(-0.773503 -0.00281277 0)
(-0.769898 -0.00278174 0)
(-0.766216 -0.00275354 0)
(-0.762456 -0.00272803 0)
(-0.758617 -0.00270456 0)
(-0.754698 -0.00268177 0)
(-0.750695 -0.00265757 0)
(-0.746602 -0.00262931 0)
(-0.742412 -0.0025942 0)
(-0.738115 -0.00254975 0)
(-0.733703 -0.00249432 0)
(-0.729176 -0.00242884 0)
(-0.724543 -0.00235867 0)
(-0.719832 -0.00229185 0)
(-0.715097 -0.00223962 0)
(-0.710421 -0.0022163 0)
(-0.705907 -0.00222748 0)
(-0.701661 -0.00226814 0)
(-0.697768 -0.00232486 0)
(-0.694268 -0.00238058 0)
(-0.691157 -0.00242152 0)
(-0.688396 -0.00244121 0)
(-0.685925 -0.00244062 0)
(-0.683685 -0.00242569 0)
(-0.68163 -0.00240432 0)
(-0.679732 -0.00238325 0)
(-0.677981 -0.00236512 0)
(-0.676376 -0.00234742 0)
(-0.674908 -0.00232468 0)
(-0.673552 -0.00229308 0)
(-0.672276 -0.00225377 0)
(-0.671051 -0.00221192 0)
(-0.669859 -0.00217291 0)
(-0.668689 -0.00213937 0)
(-0.667539 -0.00211138 0)
(-0.666402 -0.00208807 0)
(-0.665274 -0.00206872 0)
(-0.66415 -0.00205292 0)
(-0.663029 -0.0020405 0)
(-0.661908 -0.00203146 0)
(-0.660783 -0.00202591 0)
(-0.659652 -0.00202395 0)
(-0.658513 -0.00202569 0)
(-0.657362 -0.00203127 0)
(-0.656196 -0.00204081 0)
(-0.655013 -0.00205445 0)
(-0.653809 -0.00207232 0)
(-0.65258 -0.00209455 0)
(-0.651325 -0.00212126 0)
(-0.650038 -0.00215254 0)
(-0.648718 -0.00218847 0)
(-0.647361 -0.00222909 0)
(-0.645962 -0.00227441 0)
(-0.64452 -0.00232443 0)
(-0.64303 -0.00237912 0)
(-0.64149 -0.00243842 0)
(-0.639895 -0.00250227 0)
(-0.638243 -0.00257061 0)
(-0.63653 -0.00264338 0)
(-0.634754 -0.00272052 0)
(-0.632911 -0.00280197 0)
(-0.630997 -0.00288765 0)
(-0.629011 -0.0029775 0)
(-0.62695 -0.00307142 0)
(-0.624809 -0.00316932 0)
(-0.622586 -0.00327106 0)
(-0.620279 -0.00337653 0)
(-0.617885 -0.00348559 0)
(-0.6154 -0.00359808 0)
(-0.612824 -0.00371386 0)
(-0.610152 -0.00383278 0)
(-0.607384 -0.00395471 0)
(-0.604516 -0.0040795 0)
(-0.601547 -0.00420699 0)
(-0.598475 -0.00433705 0)
(-0.595298 -0.00446953 0)
(-0.592014 -0.00460428 0)
(-0.588621 -0.00474114 0)
(-0.585119 -0.00487999 0)
(-0.581505 -0.00502068 0)
(-0.577779 -0.00516306 0)
(-0.573939 -0.00530701 0)
(-0.569984 -0.0054524 0)
(-0.565913 -0.0055991 0)
(-0.561726 -0.00574699 0)
(-0.557421 -0.00589596 0)
(-0.552998 -0.0060459 0)
(-0.548457 -0.00619672 0)
(-0.543796 -0.00634833 0)
(-0.539016 -0.00650064 0)
(-0.534115 -0.00665353 0)
(-0.529095 -0.00680687 0)
(-0.523955 -0.00696052 0)
(-0.518696 -0.00711426 0)
(-0.513316 -0.00726787 0)
(-0.507817 -0.00742109 0)
(-0.502199 -0.00757361 0)
(-0.496462 -0.00772515 0)
(-0.490606 -0.00787539 0)
(-0.484632 -0.00802408 0)
(-0.47854 -0.00817098 0)
(-0.472332 -0.00831597 0)
(-0.466007 -0.00845897 0)
(-0.459569 -0.00859998 0)
(-0.453017 -0.00873906 0)
(-0.446354 -0.00887629 0)
(-0.43958 -0.00901174 0)
(-0.432698 -0.00914542 0)
(-0.425708 -0.00927733 0)
(-0.418611 -0.0094074 0)
(-0.41141 -0.00953558 0)
(-0.404105 -0.00966181 0)
(-0.396698 -0.00978606 0)
(-0.38919 -0.0099083 0)
(-0.381584 -0.0100285 0)
(-0.37388 -0.0101468 0)
(-0.36608 -0.0102629 0)
(-0.358187 -0.010377 0)
(-0.350201 -0.0104889 0)
(-0.342125 -0.0105987 0)
(-0.333961 -0.0107062 0)
(-0.325709 -0.0108115 0)
(-0.317373 -0.0109145 0)
(-0.308953 -0.0110154 0)
(-0.300452 -0.0111141 0)
(-0.291871 -0.0112108 0)
(-0.283213 -0.0113054 0)
(-0.274478 -0.0113979 0)
(-0.265669 -0.0114886 0)
(-0.256787 -0.0115774 0)
(-0.247834 -0.0116645 0)
(-0.238812 -0.0117498 0)
(-0.229721 -0.0118333 0)
(-0.220564 -0.0119151 0)
(-0.211342 -0.011995 0)
(-0.202056 -0.0120728 0)
(-0.192708 -0.0121484 0)
(-0.183299 -0.0122219 0)
(-0.17383 -0.0122933 0)
(-0.164301 -0.0123632 0)
(-0.154713 -0.0124325 0)
(-0.145064 -0.0125023 0)
(-0.135356 -0.012574 0)
(-0.125587 -0.0126485 0)
(-0.115756 -0.0127254 0)
(-0.105857 -0.0128004 0)
(-0.0959036 -0.0128603 0)
(-0.0859278 -0.01288 0)
(-0.0759508 -0.0128432 0)
(-0.0660545 -0.0127833 0)
(-0.0565325 -0.012792 0)
(-0.047392 -0.0130674 0)
(-0.0373084 -0.0140389 0)
(-0.0248047 -0.0157436 0)
(-0.012647 -0.0156479 0)
(0.00163166 -0.00764007 0)
(-0.0108044 0.0319951 0)
(-0.0257195 0.0281014 0)
(-0.0428882 0.029671 0)
(-0.0614291 0.0304527 0)
(-0.079609 0.0305562 0)
(-0.0978561 0.0305609 0)
(-0.115968 0.0305884 0)
(-0.134125 0.0306263 0)
(-0.152247 0.0306705 0)
(-0.170343 0.0307213 0)
(-0.188389 0.03078 0)
(-0.206379 0.0308467 0)
(-0.224301 0.0309212 0)
(-0.242146 0.0310033 0)
(-0.259907 0.0310926 0)
(-0.277579 0.0311889 0)
(-0.295156 0.0312921 0)
(-0.312637 0.0314018 0)
(-0.330019 0.0315178 0)
(-0.347303 0.0316397 0)
(-0.36449 0.0317672 0)
(-0.381582 0.0318999 0)
(-0.398582 0.0320373 0)
(-0.415493 0.0321786 0)
(-0.43232 0.0323233 0)
(-0.449066 0.0324704 0)
(-0.465734 0.0326191 0)
(-0.482329 0.032768 0)
(-0.498852 0.032916 0)
(-0.515307 0.0330615 0)
(-0.531694 0.0332032 0)
(-0.548017 0.0333389 0)
(-0.564277 0.0334655 0)
(-0.580474 0.0335795 0)
(-0.596605 0.0336779 0)
(-0.612659 0.0337608 0)
(-0.628622 0.0338314 0)
(-0.644479 0.0338938 0)
(-0.660222 0.0339489 0)
(-0.675854 0.0339919 0)
(-0.691396 0.0340143 0)
(-0.70688 0.0340106 0)
(-0.722352 0.0339846 0)
(-0.737865 0.0339482 0)
(-0.753472 0.0339134 0)
(-0.769215 0.0338814 0)
(-0.78511 0.0338379 0)
(-0.801132 0.0337599 0)
(-0.817208 0.0336308 0)
(-0.833227 0.033452 0)
(-0.849059 0.0332449 0)
(-0.864582 0.0330382 0)
(-0.879699 0.0328535 0)
(-0.894348 0.0326947 0)
(-0.908508 0.0325497 0)
(-0.922198 0.0323984 0)
(-0.935459 0.0322217 0)
(-0.948351 0.0320067 0)
(-0.960937 0.0317474 0)
(-0.973277 0.0314443 0)
(-0.985423 0.0311019 0)
(-0.997417 0.0307273 0)
(-1.00929 0.0303283 0)
(-1.02107 0.0299126 0)
(-1.03277 0.0294869 0)
(-1.04439 0.0290567 0)
(-1.05595 0.0286259 0)
(-1.06744 0.0281974 0)
(-1.07885 0.0277731 0)
(-1.0902 0.0273537 0)
(-1.10146 0.0269392 0)
(-1.11263 0.0265293 0)
(-1.12371 0.0261232 0)
(-1.13469 0.0257197 0)
(-1.14556 0.0253179 0)
(-1.15632 0.0249166 0)
(-1.16695 0.0245148 0)
(-1.17746 0.0241115 0)
(-1.18783 0.0237059 0)
(-1.19806 0.0232974 0)
(-1.20814 0.0228852 0)
(-1.21806 0.0224693 0)
(-1.22782 0.0220492 0)
(-1.23741 0.0216251 0)
(-1.24682 0.021197 0)
(-1.25606 0.0207652 0)
(-1.26511 0.02033 0)
(-1.27398 0.0198917 0)
(-1.28265 0.0194509 0)
(-1.29112 0.0190078 0)
(-1.2994 0.018563 0)
(-1.30747 0.0181167 0)
(-1.31534 0.0176694 0)
(-1.32301 0.0172211 0)
(-1.33046 0.016772 0)
(-1.33772 0.0163223 0)
(-1.34476 0.0158719 0)
(-1.35159 0.0154207 0)
(-1.35822 0.0149683 0)
(-1.36463 0.0145136 0)
(-1.37083 0.0140552 0)
(-1.37681 0.0135916 0)
(-1.38259 0.0131214 0)
(-1.38817 0.0126437 0)
(-1.39356 0.0121579 0)
(-1.39877 0.0116628 0)
(-1.4038 0.0111545 0)
(-1.40867 0.0106257 0)
(-1.41337 0.010067 0)
(-1.41788 0.00947185 0)
(-1.42221 0.0088426 0)
(-1.42637 0.008195 0)
(-1.43037 0.007556 0)
(-1.43425 0.00695792 0)
(-1.43804 0.0064321 0)
(-1.44175 0.00600175 0)
(-1.4454 0.00567391 0)
(-1.44897 0.0054352 0)
(-1.45244 0.00525519 0)
(-1.45577 0.0050957 0)
(-1.45893 0.00492116 0)
(-1.46189 0.00470544 0)
(-1.46464 0.00443389 0)
(-1.46715 0.00410158 0)
(-1.46942 0.0037105 0)
(-1.47145 0.00326894 0)
(-1.47324 0.0027927 0)
(-1.47479 0.00230025 0)
(-1.4761 0.00179835 0)
(-1.47718 0.00129287 0)
(-1.47801 0.00078379 0)
(-1.4786 0.000270503 0)
(-1.47893 -0.00024773 0)
(-1.47901 -0.000771161 0)
(-1.47883 -0.00129976 0)
(-1.47838 -0.00183342 0)
(-1.47767 -0.00237196 0)
(-1.47668 -0.0029151 0)
(-1.47542 -0.00346252 0)
(-1.47388 -0.00401391 0)
(-1.47206 -0.00456898 0)
(-1.46996 -0.00512745 0)
(-1.46757 -0.00568895 0)
(-1.4649 -0.00625295 0)
(-1.46193 -0.0068186 0)
(-1.45869 -0.00738462 0)
(-1.45515 -0.00794938 0)
(-1.45133 -0.00851096 0)
(-1.44723 -0.00906735 0)
(-1.44286 -0.00961671 0)
(-1.43821 -0.0101576 0)
(-1.4333 -0.0106889 0)
(-1.42813 -0.0112102 0)
(-1.4227 -0.0117214 0)
(-1.41703 -0.0122223 0)
(-1.41111 -0.0127132 0)
(-1.40495 -0.0131938 0)
(-1.39856 -0.0136638 0)
(-1.39195 -0.0141229 0)
(-1.38511 -0.0145703 0)
(-1.37806 -0.0150053 0)
(-1.37081 -0.0154272 0)
(-1.36335 -0.0158352 0)
(-1.3557 -0.0162287 0)
(-1.34787 -0.0166069 0)
(-1.33986 -0.0169692 0)
(-1.33168 -0.0173151 0)
(-1.32335 -0.0176439 0)
(-1.31486 -0.0179555 0)
(-1.30622 -0.0182493 0)
(-1.29746 -0.0185251 0)
(-1.28857 -0.0187823 0)
(-1.27956 -0.01902 0)