/*--------------------------------*- C++ -*----------------------------------*\
| =========                 |                                                 |
| \\      /  F ield         | OpenFOAM: The Open Source CFD Toolbox           |
|  \\    /   O peration     | Version:  v2006                                 |
|   \\  /    A nd           | Website:  www.openfoam.com                      |
|    \\/     M anipulation  |                                                 |
\*---------------------------------------------------------------------------*/
FoamFile
{
    version     2.0;
    format      ascii;
    class       volScalarField;
    location    "2.25";
    object      r;
}
// * * * * * * * * * * * * * * * * * * * * * * * * * * * * * * * * * * * * * //

dimensions      [1 2 0 0 0 0 0];


internalField   nonuniform List<scalar> 
500
(
6.9404e-70
4.38275e-69
2.15054e-68
1.02724e-67
4.87432e-67
2.30245e-66
1.08288e-65
5.07089e-65
2.3642e-64
1.0974e-63
5.07118e-63
2.33293e-62
1.06838e-61
4.87037e-61
2.21002e-60
9.98181e-60
4.48728e-59
2.00771e-58
8.9401e-58
3.96178e-57
1.74714e-56
7.66709e-56
3.34799e-55
1.45468e-54
6.28866e-54
2.70483e-53
1.15741e-52
4.92705e-52
2.08647e-51
8.78903e-51
3.6826e-50
1.53472e-49
6.36128e-49
2.62226e-48
1.07498e-47
4.38224e-47
1.77639e-46
7.15985e-46
2.86925e-45
1.14315e-44
4.52784e-44
1.78279e-43
6.97763e-43
2.71448e-42
1.04957e-41
4.03323e-41
1.54023e-40
5.84498e-40
2.20402e-39
8.2576e-39
3.07377e-38
1.13668e-37
4.17564e-37
1.5237e-36
5.52246e-36
1.9879e-35
7.10649e-35
2.52279e-34
8.89281e-34
3.11242e-33
1.0815e-32
3.73068e-32
1.27747e-31
4.34192e-31
1.46468e-30
4.90347e-30
1.62901e-29
5.36997e-29
1.75634e-28
5.69901e-28
1.83445e-27
5.8572e-27
1.85488e-26
5.82562e-26
1.8144e-25
5.60336e-25
1.71573e-24
5.20829e-24
1.56728e-23
4.67478e-23
1.38198e-22
4.04877e-22
1.1754e-21
3.38103e-21
9.63539e-21
2.72023e-20
7.60701e-20
2.10694e-19
5.77935e-19
1.56982e-18
4.22204e-18
1.12423e-17
2.96347e-17
7.73247e-17
1.99694e-16
5.10385e-16
1.29084e-15
3.23034e-15
7.998e-15
1.95897e-14
4.74623e-14
1.13737e-13
2.69551e-13
6.3173e-13
1.46396e-12
3.35427e-12
7.59792e-12
1.70131e-11
3.76552e-11
8.23729e-11
1.78084e-10
3.80463e-10
8.0318e-10
1.67531e-09
3.45242e-09
7.02868e-09
1.41356e-08
2.80814e-08
5.51012e-08
1.06787e-07
2.04394e-07
3.86357e-07
7.21214e-07
1.32946e-06
2.41997e-06
4.34966e-06
7.71967e-06
1.3528e-05
2.34075e-05
3.99907e-05
6.74595e-05
0.000112359
0.000184783
0.000300058
0.000481117
0.000761742
0.00119094
0.00183872
0.00280352
0.00422157
0.00627847
0.00922293
0.0133829
0.0191836
0.0271672
0.0380131
0.0525576
0.071812
0.0969762
0.129446
0.170814
0.222855
0.287507
0.366826
0.462941
0.57798
0.713994
0.872863
1.0562
1.26526
1.50083
1.76316
2.0519
2.36604
2.70391
3.06318
3.44093
3.83367
4.23751
4.64821
5.06138
5.47258
5.87747
6.27195
6.65229
7.01523
7.35802
7.67852
7.97517
8.24705
8.49376
8.71549
8.91284
9.08684
9.2388
9.37028
9.483
9.57876
9.65937
9.72664
9.78227
9.82787
9.86494
9.89481
9.91867
9.93758
9.95243
9.96399
9.9729
9.9797
9.98481
9.98858
9.99125
9.99302
9.994
9.99422
9.99367
9.99223
9.98973
9.98589
9.98031
9.97249
9.96175
9.94728
9.92808
9.90295
9.87051
9.82915
9.77712
9.71248
9.63317
9.53705
9.42202
9.286
9.12714
8.9438
8.73474
8.49917
8.23684
7.9481
7.63396
7.29609
6.93682
6.55907
6.16633
5.76249
5.35179
4.93862
4.52742
4.12253
3.72805
3.34771
2.98477
2.64198
2.32148
2.02483
1.75295
1.50624
1.28451
1.08716
0.913164
0.761204
0.629721
0.517001
0.421243
0.340628
0.273364
0.217733
0.172126
0.135056
0.105184
0.0813135
0.0623986
0.0475339
0.0359475
0.0269891
0.0201181
0.0148896
0.010942
0.00798468
0.00578605
0.00416385
0.00297592
0.00211243
0.00148937
0.00104306
0.000725642
0.000501496
0.000344325
0.000234882
0.000159198
0.000107214
7.17496e-05
4.7716e-05
3.15362e-05
2.07147e-05
1.35238e-05
8.7758e-06
5.66071e-06
3.62972e-06
2.31375e-06
1.4663e-06
9.23884e-07
5.78789e-07
3.6054e-07
2.23327e-07
1.37563e-07
8.42675e-08
5.13376e-08
3.11065e-08
1.87467e-08
1.12378e-08
6.70096e-09
3.9748e-09
2.34549e-09
1.37694e-09
8.04221e-10
4.67344e-10
2.70219e-10
1.55466e-10
8.90041e-11
5.07061e-11
2.87478e-11
1.62203e-11
9.10843e-12
5.09067e-12
2.83185e-12
1.568e-12
8.64215e-13
4.74146e-13
2.5896e-13
1.408e-13
7.62141e-14
4.10722e-14
2.20372e-14
1.17727e-14
6.26213e-15
3.31672e-15
1.74925e-15
9.18687e-16
4.80472e-16
2.50247e-16
1.29802e-16
6.70542e-17
3.44994e-17
1.76788e-17
9.02323e-18
4.58728e-18
2.32297e-18
1.17177e-18
5.88789e-19
2.94722e-19
1.46964e-19
7.30081e-20
3.61328e-20
1.78162e-20
8.75233e-21
4.2839e-21
2.08917e-21
1.01517e-21
4.91524e-22
2.37139e-22
1.14005e-22
5.46163e-23
2.60738e-23
1.24046e-23
5.88122e-24
2.77887e-24
1.30857e-24
6.14134e-25
2.87261e-25
1.3392e-25
6.22277e-26
2.88202e-26
1.33045e-26
6.122e-27
2.80798e-27
1.28383e-27
5.85122e-28
2.65838e-28
1.204e-28
5.43612e-29
2.44686e-29
1.09798e-29
4.912e-30
2.19081e-30
9.7419e-31
4.319e-31
1.90911e-31
8.41387e-32
3.6973e-32
1.61997e-32
7.0773e-33
3.08302e-33
1.33919e-33
5.80054e-34
2.50534e-34
1.07905e-34
4.63447e-35
1.98496e-35
8.47816e-36
3.61125e-36
1.534e-36
6.49853e-37
2.74555e-37
1.15685e-37
4.86145e-38
2.03751e-38
8.51698e-39
3.55084e-39
1.47653e-39
6.12386e-40
2.5333e-40
1.04528e-40
4.30195e-41
1.76603e-41
7.23153e-42
2.95373e-42
1.20344e-42
4.89103e-43
1.98289e-43
8.01918e-44
3.23517e-44
1.30198e-44
5.22711e-45
2.09349e-45
8.36446e-46
3.33402e-46
1.32577e-46
5.25946e-47
2.08158e-47
8.21921e-48
3.23785e-48
1.27255e-48
4.98994e-49
1.95217e-49
7.61991e-50
2.96753e-50
1.15308e-50
4.4704e-51
1.72926e-51
6.67433e-52
2.57035e-52
9.87682e-53
3.78694e-53
1.4488e-53
5.53077e-54
2.10679e-54
8.00792e-55
3.03729e-55
1.14954e-55
4.34148e-56
1.63619e-56
6.15334e-57
2.30929e-57
8.64843e-58
3.23216e-58
1.20545e-58
4.48651e-59
1.66639e-59
6.17671e-60
2.28483e-60
8.43469e-61
3.10748e-61
1.14255e-61
4.19247e-62
1.53533e-62
5.61138e-63
2.04682e-63
7.45135e-64
2.70731e-64
9.81735e-65
3.55308e-65
1.28344e-65
4.62709e-66
1.66497e-66
5.9796e-67
2.14344e-67
7.66877e-68
2.73854e-68
9.76099e-69
3.4726e-69
1.23311e-69
4.37062e-70
1.54624e-70
5.46021e-71
1.92461e-71
6.7714e-72
2.37805e-72
8.33632e-73
2.91702e-73
1.01887e-73
3.55238e-74
1.23634e-74
4.29521e-75
1.48955e-75
5.15652e-76
1.78193e-76
6.14694e-77
2.11673e-77
7.27635e-78
2.49692e-78
8.55345e-79
2.92501e-79
9.98536e-80
3.40294e-80
1.15773e-80
3.9328e-81
1.33945e-81
4.97965e-82
)
;

boundaryField
{
    right
    {
        type            zeroGradient;
    }
    left
    {
        type            inletOutlet;
        inletValue      uniform 0;
        value           uniform 0;
    }
    top
    {
        type            zeroGradient;
    }
    bottom
    {
        type            zeroGradient;
    }
    empty
    {
        type            empty;
    }
}


// ************************************************************************* //
