/*--------------------------------*- C++ -*----------------------------------*\
| =========                 |                                                 |
| \\      /  F ield         | OpenFOAM: The Open Source CFD Toolbox           |
|  \\    /   O peration     | Version:  v2006                                 |
|   \\  /    A nd           | Website:  www.openfoam.com                      |
|    \\/     M anipulation  |                                                 |
\*---------------------------------------------------------------------------*/
FoamFile
{
    version     2.0;
    format      ascii;
    class       volScalarField;
    location    "7";
    object      r;
}
// * * * * * * * * * * * * * * * * * * * * * * * * * * * * * * * * * * * * * //

dimensions      [1 2 0 0 0 0 0];


internalField   nonuniform List<scalar> 
350
(
-5.652e-67
8.26098e-66
-1.06024e-64
1.31268e-63
-1.56791e-62
1.80663e-61
-2.00819e-60
2.15339e-59
-2.22739e-58
2.22222e-57
-2.13812e-56
1.9836e-55
-1.77401e-54
1.52903e-53
-1.26966e-52
1.01532e-51
-7.81567e-51
5.78815e-50
-4.12153e-49
2.81977e-48
-1.85203e-47
1.16667e-46
-7.04095e-46
4.06577e-45
-2.24298e-44
1.18005e-43
-5.90793e-43
2.80739e-42
-1.26213e-41
5.34652e-41
-2.12279e-40
7.84335e-40
-2.66955e-39
8.24061e-39
-2.24696e-38
5.13149e-38
-8.46642e-38
2.97667e-38
4.52234e-37
-2.12841e-36
5.65717e-36
-7.88429e-36
-8.93221e-36
9.04576e-35
-2.77417e-34
3.81206e-34
5.71636e-34
-4.58289e-33
1.13697e-32
-5.7753e-33
-5.78629e-32
2.13027e-31
-2.44456e-31
-6.86165e-31
3.43312e-30
-4.70428e-30
-9.47765e-30
5.21792e-29
-6.51965e-29
-1.65997e-28
7.48571e-28
-5.92451e-28
-3.14276e-27
9.42329e-27
3.82208e-28
-5.30817e-26
8.69415e-26
1.48451e-25
-6.90131e-25
2.14049e-25
3.29451e-24
-5.35869e-24
-1.01234e-23
3.83428e-23
8.54534e-24
-1.946e-22
1.4121e-22
7.95703e-22
-1.293e-21
-2.70411e-21
7.65254e-21
7.46741e-21
-3.76855e-20
-1.45861e-20
1.67306e-19
3.36124e-21
-6.97737e-19
1.43855e-19
2.80387e-18
-8.74423e-19
-1.10195e-17
3.29579e-18
4.25562e-17
-7.22962e-18
-1.60587e-16
-1.10579e-17
5.82705e-16
2.40421e-16
-1.97799e-15
-1.73692e-15
5.99563e-15
9.2895e-15
-1.47035e-14
-4.08097e-14
1.98776e-14
1.48824e-13
5.54981e-14
-4.29902e-13
-5.64066e-13
8.14264e-13
2.56487e-12
1.69866e-13
-7.62956e-12
-9.16658e-12
1.19938e-11
4.18144e-11
1.78026e-11
-9.82436e-11
-1.84278e-10
2.34637e-11
5.55807e-10
7.56304e-10
-3.99088e-10
-2.71401e-09
-3.25087e-09
2.05432e-09
1.22371e-08
1.55287e-08
-5.29866e-09
-5.05981e-08
-7.88755e-08
-1.55311e-08
1.74952e-07
3.80403e-07
3.05637e-07
-3.52298e-07
-1.49785e-06
-2.24206e-06
-1.00949e-06
3.41104e-06
9.9899e-06
1.38374e-05
6.74123e-06
-1.84065e-05
-5.93321e-05
-9.54974e-05
-8.51909e-05
2.3511e-05
0.000262835
0.000599178
0.000884932
0.000833885
5.23464e-05
-0.00184479
-0.0050182
-0.00909803
-0.0128256
-0.0137067
-0.00775458
0.0106009
0.0483827
0.113693
0.215115
0.36096
0.55844
0.812881
1.12709
1.50092
1.93115
2.41163
2.93367
3.48665
4.05877
4.6378
5.21186
5.77002
6.30284
6.80268
7.26387
7.68274
8.05748
8.38793
8.67535
8.92204
9.13111
9.30612
9.45091
9.56935
9.66517
9.7419
9.80272
9.85045
9.88756
9.91609
9.93776
9.95399
9.96601
9.97491
9.98175
9.98749
9.993
9.99878
10.0047
10.0098
10.0116
10.0063
9.9884
9.95094
9.88585
9.78458
9.63883
9.44142
9.18703
8.87285
8.49904
8.06882
7.58835
7.06632
6.51334
5.94123
5.3622
4.78814
4.22997
3.69715
3.19732
2.73613
2.31726
1.94252
1.61207
1.32465
1.07796
0.868896
0.693881
0.549085
0.430642
0.334812
0.258095
0.197303
0.149605
0.112538
0.0839981
0.0622209
0.0457482
0.0333931
0.0242022
0.0174196
0.012453
0.00884363
0.00623978
0.00437473
0.00304817
0.002111
0.00145331
0.000994721
0.000676975
0.000458166
0.000308389
0.000206473
0.000137509
9.11182e-05
6.00668e-05
3.94112e-05
2.57245e-05
1.67209e-05
1.08088e-05
6.96417e-06
4.45865e-06
2.84965e-06
1.80666e-06
1.14642e-06
7.19537e-07
4.53698e-07
2.81911e-07
1.76621e-07
1.08854e-07
6.75206e-08
4.16018e-08
2.52078e-08
1.58879e-08
9.06236e-09
6.17402e-09
3.03754e-09
2.50496e-09
8.7912e-10
1.081e-09
1.72629e-10
4.8736e-10
-9.13879e-12
2.11579e-10
-2.01048e-11
7.16384e-11
8.00505e-12
9.37191e-13
3.09115e-11
-2.92453e-11
3.88664e-11
-3.54573e-11
3.47805e-11
-2.93036e-11
2.47317e-11
-1.89125e-11
1.39389e-11
-9.21904e-12
5.4608e-12
-2.43551e-12
2.9103e-13
1.15046e-12
-1.95484e-12
2.288e-12
-2.26806e-12
2.02739e-12
-1.66401e-12
1.26129e-12
-8.74755e-13
5.41257e-13
-2.78299e-13
9.03041e-14
2.84696e-14
-8.94459e-14
1.06897e-13
-9.52706e-14
6.75935e-14
-3.43982e-14
3.33444e-15
2.08229e-14
-3.58272e-14
4.14509e-14
-3.88969e-14
3.02273e-14
-1.78593e-14
4.16418e-15
8.81791e-15
-1.95503e-14
2.70707e-14
-3.09807e-14
3.13741e-14
-2.87274e-14
2.37725e-14
-1.7367e-14
1.03783e-14
-3.58842e-15
-2.37372e-15
7.07116e-15
-1.02707e-14
1.1931e-14
-1.21727e-14
1.12366e-14
-9.43076e-15
7.09582e-15
-5.34354e-15
)
;

boundaryField
{
    right
    {
        type            zeroGradient;
    }
    left
    {
        type            inletOutlet;
        inletValue      uniform 0;
        value           uniform 0;
    }
    top
    {
        type            zeroGradient;
    }
    bottom
    {
        type            zeroGradient;
    }
    empty
    {
        type            empty;
    }
}


// ************************************************************************* //
