/*--------------------------------*- C++ -*----------------------------------*\
| =========                 |                                                 |
| \\      /  F ield         | OpenFOAM: The Open Source CFD Toolbox           |
|  \\    /   O peration     | Version:  v2006                                 |
|   \\  /    A nd           | Website:  www.openfoam.com                      |
|    \\/     M anipulation  |                                                 |
\*---------------------------------------------------------------------------*/
FoamFile
{
    version     2.0;
    format      ascii;
    class       volScalarField;
    location    "3";
    object      r;
}
// * * * * * * * * * * * * * * * * * * * * * * * * * * * * * * * * * * * * * //

dimensions      [1 2 0 0 0 0 0];


internalField   nonuniform List<scalar> 
350
(
3.42452e-161
7.11548e-158
1.44941e-154
2.8911e-151
5.64173e-148
1.07596e-144
2.00326e-141
3.6368e-138
6.42961e-135
1.10541e-131
1.84533e-128
2.98614e-125
4.67555e-122
7.06903e-119
1.02971e-115
1.44148e-112
1.93384e-109
2.47837e-106
3.0233e-103
3.49593e-100
3.81351e-97
3.9023e-94
3.72085e-91
3.27921e-88
2.64457e-85
1.927e-82
1.24765e-79
7.01402e-77
3.30864e-74
1.23723e-71
3.26544e-69
4.11103e-67
-6.2579e-65
-2.5624e-62
2.40377e-60
9.5052e-58
-2.86221e-55
4.18369e-53
-4.19716e-51
3.2262e-49
-2.00754e-47
1.0456e-45
-4.66181e-44
1.80832e-42
-6.17769e-41
1.87642e-39
-5.10578e-38
1.25217e-36
-2.78153e-35
5.61935e-34
-1.03588e-32
1.74711e-31
-2.70178e-30
3.83726e-29
-5.01141e-28
6.02295e-27
-6.66387e-26
6.7871e-25
-6.35996e-24
5.47753e-23
-4.32878e-22
3.13165e-21
-2.0672e-20
1.23945e-19
-6.70802e-19
3.24786e-18
-1.38824e-17
5.12761e-17
-1.57435e-16
3.67983e-16
-4.69858e-16
-7.78608e-16
6.63299e-15
-1.93248e-14
2.12863e-14
6.07813e-14
-3.16855e-13
4.79102e-13
7.26263e-13
-4.43455e-12
4.93448e-12
1.524e-11
-5.11247e-11
-4.43908e-12
2.60715e-10
-2.62457e-10
-9.83811e-10
1.94282e-09
3.19665e-09
-9.80565e-09
-1.0438e-08
4.16339e-08
4.04676e-08
-1.56275e-07
-1.89611e-07
5.03399e-07
9.21914e-07
-1.19612e-06
-3.99311e-06
6.50098e-07
1.35512e-05
1.21156e-05
-2.80532e-05
-7.18207e-05
-1.36023e-05
0.000189417
0.000330632
8.63205e-06
-0.000896566
-0.00164818
-0.000735341
0.0028817
0.00787316
0.00953098
0.00125482
-0.0211118
-0.0536019
-0.0798464
-0.070701
0.0113296
0.204052
0.536562
1.02212
1.65488
2.41104
3.25348
4.13834
5.02174
5.86528
6.63946
7.32515
7.9132
8.40292
8.79992
9.11385
9.35646
9.54001
9.67613
9.77523
9.84613
9.89603
9.93062
9.95425
9.97017
9.98077
9.98773
9.99224
9.99513
9.99698
9.99818
9.99894
9.99933
9.9994
9.99943
9.99985
10.0008
10.0016
10.0007
9.9971
9.99212
9.99046
9.99874
10.0211
10.0536
10.0798
10.0707
9.98867
9.79595
9.46344
8.97788
8.34512
7.58896
6.74652
5.86166
4.97826
4.13472
3.36054
2.67485
2.0868
1.59708
1.20008
0.886152
0.643538
0.459995
0.323871
0.224773
0.153872
0.103968
0.0693775
0.0457474
0.0298245
0.0192332
0.0122746
0.00775591
0.00485405
0.00301018
0.00185035
0.00112783
0.000681859
0.000409022
0.000243513
0.000143927
8.44724e-05
4.92437e-05
2.85199e-05
1.64136e-05
9.3887e-06
5.33878e-06
3.01852e-06
1.69722e-06
9.49183e-07
5.2808e-07
2.92316e-07
1.61018e-07
8.82722e-08
4.81686e-08
2.61663e-08
1.41523e-08
7.62155e-09
4.08768e-09
2.18337e-09
1.16171e-09
6.15688e-10
3.25124e-10
1.71026e-10
8.96776e-11
4.6828e-11
2.43966e-11
1.2647e-11
6.54921e-12
3.37233e-12
1.73496e-12
8.88814e-13
4.53725e-13
2.31524e-13
1.17385e-13
5.95126e-14
3.00704e-14
1.51914e-14
7.47771e-15
4.02589e-15
1.64393e-15
1.22845e-15
2.11177e-16
4.61204e-16
-6.73475e-17
1.99744e-16
-7.97427e-17
9.61943e-17
-5.73667e-17
5.50884e-17
-4.11554e-17
3.64651e-17
-2.90257e-17
2.38321e-17
-1.8268e-17
1.37537e-17
-9.81416e-18
6.79729e-18
-4.5085e-18
2.89509e-18
-1.77363e-18
1.01785e-18
-5.06368e-19
1.62881e-19
6.56365e-20
-2.10174e-19
2.92224e-19
-3.27776e-19
3.30814e-19
-3.13324e-19
2.84975e-19
-2.5257e-19
2.20165e-19
-1.89624e-19
1.61465e-19
-1.35625e-19
1.1199e-19
-9.06092e-20
7.16867e-20
-5.54481e-20
4.20061e-20
-3.12838e-20
2.30168e-20
-1.68119e-20
1.22299e-20
-8.85928e-21
6.3625e-21
-4.49175e-21
3.08007e-21
-2.01994e-21
1.24004e-21
-6.86978e-22
3.14704e-22
-8.0671e-23
-5.3779e-23
1.21502e-22
-1.48033e-22
1.5132e-22
-1.42691e-22
1.28531e-22
-1.12092e-22
9.49782e-23
-7.81052e-23
6.21746e-23
-4.77951e-23
3.54345e-23
-2.53418e-23
1.75159e-23
-1.17389e-23
7.65508e-24
-4.8614e-24
2.98323e-24
-1.71948e-24
8.56592e-25
-2.59204e-25
-1.5105e-25
4.18458e-25
-5.71414e-25
6.3343e-25
-6.27593e-25
5.76642e-25
-5.01126e-25
4.17489e-25
-3.37072e-25
2.66254e-25
-2.07415e-25
1.60281e-25
-1.23209e-25
9.41608e-26
-7.12888e-26
5.31673e-26
-3.87973e-26
2.74959e-26
-1.87655e-26
1.21937e-26
-7.39983e-27
4.02171e-27
-1.72472e-27
2.18073e-28
7.33704e-28
-1.30807e-27
1.63012e-27
-1.78335e-27
1.82183e-27
-1.78095e-27
1.68541e-27
-1.55465e-27
1.41171e-27
-1.32633e-27
)
;

boundaryField
{
    right
    {
        type            zeroGradient;
    }
    left
    {
        type            inletOutlet;
        inletValue      uniform 0;
        value           uniform 0;
    }
    top
    {
        type            zeroGradient;
    }
    bottom
    {
        type            zeroGradient;
    }
    empty
    {
        type            empty;
    }
}


// ************************************************************************* //
