/*--------------------------------*- C++ -*----------------------------------*\
| =========                 |                                                 |
| \\      /  F ield         | OpenFOAM: The Open Source CFD Toolbox           |
|  \\    /   O peration     | Version:  v2006                                 |
|   \\  /    A nd           | Website:  www.openfoam.com                      |
|    \\/     M anipulation  |                                                 |
\*---------------------------------------------------------------------------*/
FoamFile
{
    version     2.0;
    format      ascii;
    class       surfaceScalarField;
    location    "19.2";
    object      alphaPhi0.water;
}
// * * * * * * * * * * * * * * * * * * * * * * * * * * * * * * * * * * * * * //

dimensions      [0 3 -1 0 0 0 0];
oriented        oriented;


internalField   nonuniform List<scalar> 
99450
(
3.21497e-06
-3.21497e-06
2.55687e-05
-2.23537e-05
5.18613e-05
-2.62926e-05
7.54599e-05
-2.35986e-05
9.51909e-05
-1.9731e-05
0.000112158
-1.69671e-05
0.000127724
-1.5566e-05
0.000142769
-1.50449e-05
0.000157666
-1.48974e-05
0.00017246
-1.47941e-05
0.00018704
-1.458e-05
0.000201248
-1.42077e-05
0.000214927
-1.36785e-05
0.000227938
-1.30114e-05
0.00024017
-1.22323e-05
0.000251539
-1.13689e-05
0.000261989
-1.045e-05
0.000271498
-9.50874e-06
0.000280069
-8.57148e-06
0.00028773
-7.66007e-06
0.000294523
-6.79355e-06
0.000300506
-5.98279e-06
0.000305736
-5.22995e-06
0.000310279
-4.5433e-06
0.000314211
-3.93159e-06
0.000317594
-3.38299e-06
0.000320486
-2.89265e-06
0.00032294
-2.45329e-06
0.000324996
-2.05622e-06
0.00032669
-1.69373e-06
0.000328048
-1.35831e-06
0.000329079
-1.03093e-06
0.000329761
-6.81719e-07
0.000330067
-3.06746e-07
0.000329921
1.45914e-07
0.00032914
7.81619e-07
0.000327569
1.57074e-06
0.000325009
2.55977e-06
0.000321202
3.80764e-06
0.000315942
5.25913e-06
0.000309159
6.78299e-06
0.000300981
8.17845e-06
0.000291669
9.31156e-06
0.000281524
1.01454e-05
0.000270826
1.06981e-05
0.000259833
1.09929e-05
0.000248804
1.1029e-05
0.000238012
1.07924e-05
0.000227721
1.02904e-05
0.000218209
9.51245e-06
0.00020977
8.43895e-06
0.000202679
7.0909e-06
0.000197111
5.56796e-06
0.000193072
4.03865e-06
0.0001904
2.67223e-06
0.000188857
1.54291e-06
0.0001882
6.57446e-07
0.000188298
-9.79127e-08
0.000189026
-7.28336e-07
0.000190315
-1.28849e-06
0.000192113
-1.79872e-06
0.000194378
-2.26513e-06
0.000197063
-2.68448e-06
0.000200126
-3.06346e-06
0.000203529
-3.40302e-06
0.000207232
-3.70226e-06
0.000211199
-3.96741e-06
0.000215397
-4.19805e-06
0.000219795
-4.39832e-06
0.000224364
-4.56897e-06
0.000229076
-4.71208e-06
0.000233906
-4.82975e-06
0.000238829
-4.92245e-06
0.000243819
-4.99046e-06
0.000248854
-5.03516e-06
0.000253913
-5.05918e-06
0.000258977
-5.06335e-06
0.000264023
-5.04656e-06
0.000269034
-5.01021e-06
0.000273987
-4.95395e-06
0.000278863
-4.87564e-06
0.000283634
-4.77128e-06
0.000288275
-4.64088e-06
0.000292757
-4.48136e-06
0.000297045
-4.2879e-06
0.000301106
-4.06113e-06
0.000304899
-3.79378e-06
0.000308382
-3.4822e-06
0.000311506
-3.1246e-06
0.000314216
-2.70945e-06
0.000316441
-2.22524e-06
0.000318094
-1.65326e-06
0.000319058
-9.63682e-07
0.000319173
-1.15453e-07
0.000318269
9.0432e-07
0.000316004
2.26486e-06
0.000311956
4.04855e-06
0.000305575
6.381e-06
0.00029641
9.16411e-06
0.000284298
1.21129e-05
0.00026937
1.4928e-05
0.000252035
1.73351e-05
0.000232916
1.9119e-05
0.000212698
2.02177e-05
0.000191983
2.07148e-05
0.000171254
2.07293e-05
0.000150931
2.03229e-05
0.000131471
1.94602e-05
0.000113429
1.80414e-05
9.75067e-05
1.59226e-05
8.44636e-05
1.3043e-05
7.48619e-05
9.60178e-06
6.87452e-05
6.11663e-06
6.55228e-05
3.2224e-06
6.41862e-05
1.33666e-06
6.37901e-05
3.96051e-07
6.36701e-05
1.1999e-07
6.34404e-05
2.29711e-07
6.29439e-05
4.96467e-07
6.21506e-05
7.93337e-07
6.10771e-05
1.07354e-06
5.97391e-05
1.33794e-06
5.81481e-05
1.59102e-06
5.63158e-05
1.83234e-06
5.42577e-05
2.05809e-06
5.1993e-05
2.26466e-06
4.95399e-05
2.45313e-06
4.69171e-05
2.62277e-06
4.41456e-05
2.7715e-06
4.12473e-05
2.89829e-06
3.82409e-05
3.0064e-06
3.51374e-05
3.10351e-06
3.19547e-05
3.18276e-06
2.87161e-05
3.2385e-06
2.54546e-05
3.26151e-06
2.22146e-05
3.24002e-06
1.90477e-05
3.16691e-06
1.60083e-05
3.03937e-06
1.31525e-05
2.85583e-06
1.05346e-05
2.61787e-06
8.20419e-06
2.33045e-06
6.20806e-06
1.99613e-06
4.59497e-06
1.61309e-06
3.43003e-06
1.16494e-06
2.75941e-06
6.70619e-07
2.58884e-06
1.70575e-07
2.73696e-06
-1.48126e-07
3.20569e-06
-4.68729e-07
3.42279e-06
-2.17095e-07
3.42279e-06
1.16206e-06
-4.37703e-06
2.09016e-05
-4.20933e-05
4.46842e-05
-5.00753e-05
6.52591e-05
-4.41735e-05
8.09947e-05
-3.54665e-05
9.30897e-05
-2.90621e-05
0.000103395
-2.58718e-05
0.000113176
-2.48256e-05
0.000122874
-2.45955e-05
0.000132407
-2.43263e-05
0.000141495
-2.36687e-05
0.000149862
-2.25745e-05
0.000157291
-2.11074e-05
0.000163628
-1.93488e-05
0.000168773
-1.73766e-05
0.00017268
-1.52763e-05
0.000175351
-1.31213e-05
0.000176823
-1.09806e-05
0.000177171
-8.9196e-06
0.000176491
-6.97944e-06
0.000174906
-5.20891e-06
0.000172553
-3.62986e-06
0.000169576
-2.25275e-06
0.000166131
-1.09894e-06
0.000162363
-1.6286e-07
0.000158443
5.36879e-07
0.000154474
1.07652e-06
0.000150578
1.44197e-06
0.000146902
1.62019e-06
0.000143562
1.64667e-06
0.000140675
1.52824e-06
0.000138373
1.27087e-06
0.00013677
9.2206e-07
0.000135947
5.15471e-07
0.000135967
1.25731e-07
0.000137048
-2.9887e-07
0.000139166
-5.4686e-07
0.000142325
-5.99154e-07
0.000146487
-3.54741e-07
0.000151471
2.74879e-07
0.000157213
1.04134e-06
0.000163355
2.03628e-06
0.000169513
3.15309e-06
0.000175401
4.25782e-06
0.000180838
5.26119e-06
0.000185717
6.11412e-06
0.000189976
6.76939e-06
0.000193661
7.10791e-06
0.000196804
7.14721e-06
0.000199449
6.86767e-06
0.00020166
6.22731e-06
0.000203456
5.29497e-06
0.000204876
4.14791e-06
0.00020601
2.90497e-06
0.000207016
1.66655e-06
0.000208037
5.22093e-07
0.000209124
-4.29526e-07
0.000210337
-1.31159e-06
0.000211693
-2.08427e-06
0.000213165
-2.76026e-06
0.000214724
-3.3575e-06
0.000216348
-3.88934e-06
0.000218026
-4.36287e-06
0.000219745
-4.78255e-06
0.000221494
-5.15147e-06
0.000223268
-5.47644e-06
0.000225062
-5.76088e-06
0.000226872
-6.00855e-06
0.000228694
-6.22079e-06
0.000230526
-6.40022e-06
0.000232362
-6.54838e-06
0.0002342
-6.66757e-06
0.000236039
-6.76125e-06
0.00023788
-6.83151e-06
0.000239721
-6.87607e-06
0.000241561
-6.89985e-06
0.000243405
-6.90711e-06
0.000245255
-6.89665e-06
0.000247112
-6.86662e-06
0.000248981
-6.82354e-06
0.00025087
-6.76424e-06
0.000252778
-6.68003e-06
0.000254714
-6.57645e-06
0.000256671
-6.43788e-06
0.000258649
-6.26612e-06
0.000260642
-6.05393e-06
0.00026264
-5.79209e-06
0.000264631
-5.47323e-06
0.000266598
-5.09164e-06
0.000268522
-4.63361e-06
0.000270386
-4.08908e-06
0.000272171
-3.4385e-06
0.000273874
-2.66636e-06
0.000275513
-1.75442e-06
0.000277071
-6.53588e-07
0.000278551
7.84879e-07
0.000280171
2.42813e-06
0.000282073
4.47889e-06
0.000284229
7.00869e-06
0.000286373
9.96827e-06
0.000288126
1.31749e-05
0.000289167
1.62947e-05
0.000289351
1.89349e-05
0.000288822
2.07468e-05
0.000288038
2.14985e-05
0.000287641
2.11268e-05
0.000288277
1.96869e-05
0.000290439
1.72982e-05
0.000294387
1.40932e-05
0.000300086
1.02228e-05
0.000307195
5.93469e-06
0.000315124
1.67268e-06
0.000323261
-2.02021e-06
0.000331259
-4.77595e-06
0.000338883
-6.28772e-06
0.000345949
-6.66953e-06
0.000352274
-6.20497e-06
0.000357711
-5.2075e-06
0.000362182
-3.97407e-06
0.00036563
-2.65531e-06
0.00036807
-1.36603e-06
0.000369512
-1.03752e-07
0.000369973
1.1293e-06
0.000369464
2.34198e-06
0.000367974
3.5478e-06
0.000365479
4.75983e-06
0.000361948
5.98398e-06
0.000357352
7.21924e-06
0.000351662
8.46108e-06
0.000344855
9.70524e-06
0.000336909
1.09526e-05
0.000327803
1.22089e-05
0.000317511
1.3475e-05
0.000306007
1.47429e-05
0.000293274
1.59939e-05
0.00027931
1.72042e-05
0.000264132
1.83453e-05
0.000247786
1.93854e-05
0.000230347
2.02946e-05
0.000211906
2.10584e-05
0.000192587
2.16504e-05
0.000172515
2.20677e-05
0.000151816
2.23125e-05
0.000130581
2.23996e-05
0.000108875
2.2376e-05
8.67706e-05
2.22754e-05
6.43258e-05
2.22967e-05
4.19102e-05
2.19469e-05
2.10352e-05
2.06579e-05
2.44579e-05
-1.18731e-08
-4.36516e-06
2.04187e-05
-6.25238e-05
4.69154e-05
-7.6572e-05
7.13896e-05
-6.86477e-05
9.09643e-05
-5.50412e-05
0.000106062
-4.41596e-05
0.00011849
-3.83004e-05
0.000129971
-3.63058e-05
0.000141418
-3.6043e-05
0.000152946
-3.5854e-05
0.000164227
-3.49504e-05
0.000174819
-3.31661e-05
0.000184345
-3.0634e-05
0.000192554
-2.75572e-05
0.000199298
-2.41206e-05
0.000204493
-2.04715e-05
0.000208116
-1.67444e-05
0.000210224
-1.3088e-05
0.000210933
-9.62911e-06
0.000210383
-6.42962e-06
0.00020875
-3.57597e-06
0.000206242
-1.12123e-06
0.000202973
1.01631e-06
0.00019917
2.70402e-06
0.000194968
4.03892e-06
0.0001905
5.00454e-06
0.000185916
5.66123e-06
0.000181321
6.03644e-06
0.000176781
6.16012e-06
0.000172367
6.06084e-06
0.000168118
5.77676e-06
0.000164068
5.32132e-06
0.00016024
4.75056e-06
0.00015665
4.10459e-06
0.000153351
3.42479e-06
0.000150283
2.76925e-06
0.000147538
2.1987e-06
0.000145168
1.77033e-06
0.000143326
1.48727e-06
0.000142202
1.39921e-06
0.000141746
1.49689e-06
0.000141983
1.79936e-06
0.000142895
2.24119e-06
0.000144441
2.71201e-06
0.000146561
3.1412e-06
0.000149181
3.49371e-06
0.000152253
3.69782e-06
0.000155623
3.73807e-06
0.000159173
3.59644e-06
0.00016273
3.31107e-06
0.000166132
2.82553e-06
0.000169283
2.14401e-06
0.000172085
1.34615e-06
0.000174639
3.50407e-07
0.00017698
-6.73946e-07
0.000179187
-1.68539e-06
0.000181398
-2.64053e-06
0.00018361
-3.5239e-06
0.000185844
-4.3178e-06
0.000188119
-5.03521e-06
0.000190438
-5.67674e-06
0.000192796
-6.2474e-06
0.000195194
-6.76077e-06
0.000197629
-7.21726e-06
0.000200103
-7.62536e-06
0.000202612
-7.98561e-06
0.000205155
-8.30371e-06
0.000207727
-8.58038e-06
0.000210321
-8.81482e-06
0.000212942
-9.02186e-06
0.000215587
-9.19306e-06
0.000218255
-9.33536e-06
0.00022094
-9.44686e-06
0.000223641
-9.53241e-06
0.000226356
-9.59077e-06
0.000229082
-9.62587e-06
0.000231817
-9.64206e-06
0.000234558
-9.63725e-06
0.000237305
-9.61453e-06
0.000240056
-9.57446e-06
0.000242808
-9.5164e-06
0.000245564
-9.4356e-06
0.000248316
-9.3286e-06
0.000251067
-9.1891e-06
0.000253813
-9.01134e-06
0.000256545
-8.78649e-06
0.000259262
-8.50882e-06
0.000261957
-8.16856e-06
0.000264624
-7.75806e-06
0.000267259
-7.26916e-06
0.000269857
-6.6871e-06
0.000272417
-5.99811e-06
0.000274935
-5.18496e-06
0.000277405
-4.22412e-06
0.000279831
-3.07982e-06
0.000282338
-1.72136e-06
0.000284995
-2.29332e-07
0.000288039
1.43472e-06
0.000291603
3.44515e-06
0.000295849
5.72223e-06
0.000300868
8.15542e-06
0.000306651
1.05118e-05
0.000313109
1.24775e-05
0.000320045
1.381e-05
0.0003272
1.43437e-05
0.00033431
1.40165e-05
0.000341143
1.28539e-05
0.000347459
1.09828e-05
0.000352973
8.57865e-06
0.000357352
5.84372e-06
0.000360271
3.01602e-06
0.000361587
3.56638e-07
0.000361335
-1.76833e-06
0.00035964
-3.0808e-06
0.000356967
-3.61457e-06
0.000353767
-3.46982e-06
0.000350413
-2.85043e-06
0.000347146
-1.94122e-06
0.000344074
-9.01658e-07
0.000341189
2.29426e-07
0.000338533
1.29057e-06
0.00033608
2.3494e-06
0.000333783
3.42617e-06
0.000331582
4.5424e-06
0.000329402
5.7286e-06
0.000327152
7.00884e-06
0.000324726
8.41058e-06
0.000322013
9.93232e-06
0.000318895
1.15792e-05
0.000315262
1.33375e-05
0.000311005
1.52103e-05
0.000306009
1.72042e-05
0.000300159
1.93259e-05
0.000293328
2.15732e-05
0.000285379
2.39431e-05
0.000276175
2.64085e-05
0.000265581
2.89395e-05
0.000253477
3.14894e-05
0.000239767
3.40045e-05
0.000224394
3.64312e-05
0.00020733
3.87145e-05
0.000188595
4.08023e-05
0.000168259
4.2649e-05
0.00014643
4.4228e-05
0.000123253
4.55535e-05
9.88554e-05
4.6673e-05
7.35013e-05
4.76508e-05
4.83308e-05
4.71174e-05
2.53846e-05
4.36041e-05
4.98425e-05
-1.44125e-06
-2.92391e-06
1.85505e-05
-8.25156e-05
4.56875e-05
-0.000103709
7.18801e-05
-9.48403e-05
9.37832e-05
-7.69442e-05
0.000111305
-6.16818e-05
0.00012597
-5.29649e-05
0.000139521
-4.98567e-05
0.000153081
-4.96027e-05
0.000166965
-4.97383e-05
0.000180902
-4.8888e-05
0.000194372
-4.66352e-05
0.000206852
-4.31142e-05
0.000217942
-3.86476e-05
0.000227354
-3.35319e-05
0.000234991
-2.81091e-05
0.000240842
-2.25951e-05
0.000244959
-1.72046e-05
0.000247416
-1.20863e-05
0.000248413
-7.42658e-06
0.000248092
-3.25495e-06
0.000246664
3.06237e-07
0.000244371
3.30926e-06
0.000241341
5.73398e-06
0.000237763
7.61713e-06
0.000233773
8.99445e-06
0.000229512
9.92199e-06
0.000225094
1.04551e-05
0.000220604
1.06502e-05
0.000216105
1.05597e-05
0.000211637
1.02444e-05
0.000207202
9.75667e-06
0.000202812
9.14038e-06
0.00019847
8.44635e-06
0.000194172
7.72262e-06
0.000189935
7.00624e-06
0.000185792
6.34233e-06
0.000181785
5.77721e-06
0.000177984
5.28787e-06
0.00017447
4.91357e-06
0.000171339
4.62768e-06
0.000168721
4.41786e-06
0.000166712
4.24995e-06
0.000165324
4.09997e-06
0.000164527
3.93851e-06
0.000164304
3.71605e-06
0.000164595
3.40749e-06
0.000165356
2.97691e-06
0.000166483
2.46899e-06
0.000167929
1.86517e-06
0.000169606
1.14891e-06
0.000171418
3.31502e-07
0.000173339
-5.75031e-07
0.00017526
-1.57009e-06
0.000177177
-2.5912e-06
0.000179102
-3.61041e-06
0.000181061
-4.59947e-06
0.000183078
-5.54095e-06
0.000185183
-6.42276e-06
0.000187384
-7.23625e-06
0.000189689
-7.98179e-06
0.000192109
-8.66698e-06
0.000194638
-9.28965e-06
0.000197276
-9.85594e-06
0.000200017
-1.0366e-05
0.000202853
-1.08216e-05
0.000205778
-1.12282e-05
0.000208785
-1.15876e-05
0.000211876
-1.19062e-05
0.000215029
-1.21749e-05
0.000218242
-1.24062e-05
0.000221505
-1.25976e-05
0.000224813
-1.27552e-05
0.00022815
-1.28697e-05
0.000231513
-1.29534e-05
0.000234891
-1.3004e-05
0.000238276
-1.3027e-05
0.000241652
-1.3013e-05
0.00024501
-1.29729e-05
0.000248339
-1.29034e-05
0.000251628
-1.28058e-05
0.000254865
-1.26717e-05
0.000258039
-1.2503e-05
0.000261144
-1.22939e-05
0.00026417
-1.20373e-05
0.000267116
-1.17329e-05
0.000269973
-1.13657e-05
0.000272742
-1.09373e-05
0.000275421
-1.04374e-05
0.000278011
-9.859e-06
0.000280517
-9.19354e-06
0.000282951
-8.43209e-06
0.000285329
-7.56232e-06
0.000287676
-6.57106e-06
0.000290042
-5.44665e-06
0.000292507
-4.18542e-06
0.000295077
-2.79952e-06
0.000297781
-1.26963e-06
0.000300727
4.99439e-07
0.000304198
2.25113e-06
0.000308314
4.03923e-06
0.000313105
5.72055e-06
0.000318419
7.16385e-06
0.000324003
8.2255e-06
0.000329524
8.82277e-06
0.000334637
8.90392e-06
0.000338967
8.52442e-06
0.000342179
7.76998e-06
0.000343999
6.75945e-06
0.000344221
5.62124e-06
0.000342754
4.48297e-06
0.000339642
3.46899e-06
0.000335171
2.70245e-06
0.000329836
2.25421e-06
0.000324068
2.15376e-06
0.000318206
2.39183e-06
0.000312428
2.92753e-06
0.000306784
3.70321e-06
0.000301228
4.65374e-06
0.000295738
5.71993e-06
0.000290197
6.83087e-06
0.000284586
7.96076e-06
0.000278908
9.10434e-06
0.000273178
1.02726e-05
0.000267422
1.14846e-05
0.000261662
1.2769e-05
0.000255924
1.41479e-05
0.000250213
1.56431e-05
0.000244525
1.72679e-05
0.000238831
1.90314e-05
0.000233097
2.09445e-05
0.000227273
2.30275e-05
0.000221298
2.53012e-05
0.000215084
2.77875e-05
0.00020853
3.04971e-05
0.000201508
3.34303e-05
0.000193869
3.65786e-05
0.000185458
3.99001e-05
0.000176113
4.33495e-05
0.000165673
4.68714e-05
0.000154002
5.03854e-05
0.000141
5.38042e-05
0.00012661
5.70387e-05
0.000110784
6.00546e-05
9.34334e-05
6.29039e-05
7.45466e-05
6.55598e-05
5.48887e-05
6.73086e-05
3.67901e-05
6.5216e-05
2.13876e-05
5.90067e-05
7.12301e-05
-3.38691e-06
4.63002e-07
1.49775e-05
-0.00010088
4.16871e-05
-0.000130418
6.84782e-05
-0.000121631
9.15212e-05
-9.99873e-05
0.000110289
-8.04493e-05
0.000126148
-6.88243e-05
0.000140884
-6.45931e-05
0.000155795
-6.45135e-05
0.000171329
-6.5272e-05
0.000187191
-6.475e-05
0.000202719
-6.21634e-05
0.000217205
-5.75998e-05
0.000230085
-5.15284e-05
0.000241039
-4.4485e-05
0.000249883
-3.69539e-05
0.000256609
-2.93212e-05
0.000261314
-2.19088e-05
0.000264166
-1.49385e-05
0.000265349
-8.60989e-06
0.000265106
-3.01171e-06
0.000263612
1.80042e-06
0.000261113
5.80789e-06
0.000257797
9.04972e-06
0.00025384
1.15748e-05
0.000249387
1.34467e-05
0.000244573
1.47368e-05
0.000239505
1.55225e-05
0.000234282
1.58734e-05
0.000228988
1.58541e-05
0.000223682
1.55501e-05
0.000218442
1.49966e-05
0.000213297
1.42858e-05
0.000208279
1.3464e-05
0.000203445
1.25565e-05
0.000198843
1.16081e-05
0.000194513
1.06732e-05
0.000190511
9.77893e-06
0.000186877
8.9221e-06
0.00018365
8.14006e-06
0.00018086
7.41794e-06
0.000178522
6.75617e-06
0.000176635
6.13607e-06
0.000175216
5.5195e-06
0.000174222
4.93235e-06
0.000173627
4.31091e-06
0.00017342
3.61449e-06
0.000173546
2.85124e-06
0.000174003
2.01231e-06
0.000174756
1.11169e-06
0.000175772
1.33162e-07
0.000177013
-9.09784e-07
0.000178443
-2.00483e-06
0.000180008
-3.13534e-06
0.000181692
-4.27501e-06
0.000183486
-5.40423e-06
0.000185392
-6.50567e-06
0.000187412
-7.56112e-06
0.000189547
-8.55784e-06
0.000191805
-9.49451e-06
0.000194195
-1.03708e-05
0.000196711
-1.11837e-05
0.000199355
-1.19329e-05
0.000202117
-1.26186e-05
0.000204993
-1.32415e-05
0.000207979
-1.3808e-05
0.000211064
-1.43126e-05
0.00021424
-1.47636e-05
0.000217492
-1.51583e-05
0.000220815
-1.54983e-05
0.000224197
-1.57887e-05
0.000227628
-1.6028e-05
0.000231091
-1.62187e-05
0.000234581
-1.6359e-05
0.000238081
-1.64543e-05
0.000241583
-1.65051e-05
0.000245068
-1.65121e-05
0.000248529
-1.64741e-05
0.00025195
-1.63938e-05
0.000255318
-1.62715e-05
0.000258617
-1.61054e-05
0.000261841
-1.58955e-05
0.000264978
-1.56393e-05
0.000268017
-1.53332e-05
0.000270955
-1.49749e-05
0.000273783
-1.45616e-05
0.000276505
-1.40871e-05
0.000279118
-1.35507e-05
0.000281627
-1.2946e-05
0.000284037
-1.22691e-05
0.000286356
-1.15126e-05
0.000288595
-1.06711e-05
0.000290773
-9.74076e-06
0.000292916
-8.71385e-06
0.000295056
-7.58698e-06
0.000297229
-6.35811e-06
0.000299461
-5.03098e-06
0.0003018
-3.60934e-06
0.000304398
-2.09839e-06
0.00030721
-5.60676e-07
0.000310282
9.66899e-07
0.000313581
2.42173e-06
0.000317021
3.72425e-06
0.000320457
4.78874e-06
0.000323697
5.58324e-06
0.000326518
6.08252e-06
0.000328721
6.32152e-06
0.000330172
6.31938e-06
0.000330794
6.13734e-06
0.000330565
5.85051e-06
0.000329498
5.54977e-06
0.00032763
5.3364e-06
0.000325023
5.30969e-06
0.000321733
5.54484e-06
0.000317812
6.0746e-06
0.000313312
6.89133e-06
0.000308281
7.95861e-06
0.000302758
9.22621e-06
0.000296771
1.06411e-05
0.000290338
1.21528e-05
0.000283452
1.37165e-05
0.000276107
1.53059e-05
0.000268313
1.68985e-05
0.0002601
1.8486e-05
0.000251512
2.00718e-05
0.000242614
2.16677e-05
0.000233472
2.32892e-05
0.000224159
2.49562e-05
0.000214745
2.66822e-05
0.000205289
2.84876e-05
0.000195842
3.03915e-05
0.000186448
3.24216e-05
0.000177139
3.46099e-05
0.000167939
3.69881e-05
0.000158849
3.95867e-05
0.000149852
4.24272e-05
0.000140914
4.55163e-05
0.000131967
4.88475e-05
0.000122918
5.23988e-05
0.000113664
5.61253e-05
0.000104096
5.99533e-05
9.41139e-05
6.37862e-05
8.36059e-05
6.75467e-05
7.23784e-05
7.12821e-05
6.01442e-05
7.51381e-05
4.69038e-05
7.88002e-05
3.40899e-05
8.01225e-05
2.42493e-05
7.50566e-05
1.65623e-05
6.66936e-05
8.77925e-05
-6.08971e-06
6.55271e-06
9.78526e-06
-0.000116755
3.50604e-05
-0.000155694
6.19299e-05
-0.000148501
8.60909e-05
-0.000124148
0.000106261
-0.000100619
0.00012351
-8.60739e-05
0.000139726
-8.08085e-05
0.000156407
-8.11947e-05
0.000174077
-8.29422e-05
0.000192342
-8.30147e-05
0.000210285
-8.0107e-05
0.000226898
-7.42126e-05
0.000241387
-6.60171e-05
0.000253268
-5.63657e-05
0.000262365
-4.60511e-05
0.000268793
-3.57488e-05
0.00027277
-2.58866e-05
0.000274596
-1.67643e-05
0.000274561
-8.57471e-06
0.000272989
-1.44014e-06
0.000270198
4.59167e-06
0.000266415
9.59063e-06
0.000261872
1.35929e-05
0.000256771
1.66764e-05
0.000251281
1.89363e-05
0.000245547
2.04709e-05
0.000239685
2.13843e-05
0.000233786
2.17727e-05
0.000227946
2.16939e-05
0.000222211
2.12847e-05
0.000216601
2.06071e-05
0.000211178
1.97086e-05
0.000205975
1.8667e-05
0.000201016
1.75152e-05
0.000196335
1.6289e-05
0.00019197
1.50384e-05
0.000187969
1.37797e-05
0.00018434
1.25516e-05
0.000181118
1.13619e-05
0.000178315
1.02213e-05
0.000175963
9.10795e-06
0.000174105
7.99436e-06
0.00017272
6.90425e-06
0.000171821
5.83127e-06
0.000171334
4.79764e-06
0.000171284
3.66524e-06
0.000171592
2.54294e-06
0.000172212
1.39255e-06
0.000173124
1.99e-07
0.000174281
-1.02311e-06
0.000175647
-2.27652e-06
0.000177195
-3.55263e-06
0.000178895
-4.83547e-06
0.000180739
-6.11874e-06
0.000182707
-7.37178e-06
0.000184795
-8.59388e-06
0.000187004
-9.77056e-06
0.000189339
-1.0893e-05
0.000191798
-1.19527e-05
0.000194379
-1.29519e-05
0.000197079
-1.38838e-05
0.000199893
-1.47468e-05
0.000202816
-1.55417e-05
0.000205844
-1.62695e-05
0.000208969
-1.69328e-05
0.000212179
-1.75233e-05
0.000215466
-1.80509e-05
0.000218821
-1.85125e-05
0.000222236
-1.89139e-05
0.000225693
-1.92451e-05
0.000229183
-1.95183e-05
0.000232695
-1.97304e-05
0.00023622
-1.98844e-05
0.000239744
-1.99779e-05
0.000243253
-2.00149e-05
0.00024674
-1.99985e-05
0.00025019
-1.9924e-05
0.000253592
-1.97956e-05
0.000256935
-1.96146e-05
0.000260208
-1.93792e-05
0.000263402
-1.90892e-05
0.000266513
-1.87498e-05
0.000269529
-1.83494e-05
0.00027245
-1.78963e-05
0.000275274
-1.73856e-05
0.000278003
-1.68163e-05
0.000280638
-1.61855e-05
0.000283184
-1.5492e-05
0.000285649
-1.47345e-05
0.000288045
-1.3908e-05
0.000290382
-1.30086e-05
0.000292678
-1.2037e-05
0.000294954
-1.09897e-05
0.000297234
-9.86686e-06
0.000299541
-8.66516e-06
0.000301907
-7.39708e-06
0.000304359
-6.06101e-06
0.000306939
-4.67805e-06
0.000309654
-3.27621e-06
0.000312508
-1.88708e-06
0.000315484
-5.53649e-07
0.000318501
7.06313e-07
0.000321488
1.80195e-06
0.000324325
2.74655e-06
0.000326874
3.53371e-06
0.000329031
4.16392e-06
0.000330672
4.67924e-06
0.00033168
5.12886e-06
0.000331963
5.56781e-06
0.000331455
6.05718e-06
0.000330136
6.65543e-06
0.000328031
7.41473e-06
0.000325202
8.37401e-06
0.000321723
9.55399e-06
0.000317657
1.09566e-05
0.000313049
1.25667e-05
0.000307919
1.43562e-05
0.000302268
1.6292e-05
0.000296083
1.83386e-05
0.000289343
2.04566e-05
0.000282028
2.262e-05
0.000274124
2.48028e-05
0.000265621
2.6989e-05
0.00025653
2.91625e-05
0.00024688
3.13181e-05
0.000236716
3.3453e-05
0.000226097
3.55752e-05
0.000215087
3.76925e-05
0.00020376
3.9815e-05
0.00019219
4.19609e-05
0.00018046
4.41513e-05
0.000168657
4.64137e-05
0.000156864
4.87808e-05
0.000145167
5.12834e-05
0.000133644
5.39507e-05
0.000122356
5.68037e-05
0.00011135
5.98538e-05
0.000100649
6.30996e-05
9.02572e-05
6.6517e-05
8.01627e-05
7.00479e-05
7.03383e-05
7.36105e-05
6.07039e-05
7.71811e-05
5.10673e-05
8.09187e-05
4.11572e-05
8.50482e-05
3.11569e-05
8.88005e-05
2.26198e-05
8.86596e-05
1.73984e-05
8.02781e-05
1.34822e-05
7.06098e-05
0.000101275
-9.63141e-06
1.61841e-05
1.73123e-06
-0.000128118
2.32713e-05
-0.000177234
4.92082e-05
-0.000174438
7.4413e-05
-0.000149353
9.66324e-05
-0.000122839
0.000116461
-0.000105903
0.000135693
-0.00010004
0.000155851
-0.000101353
0.000177386
-0.000104478
0.000199702
-0.00010533
0.000221497
-0.000101902
0.000241317
-9.40322e-05
0.000258029
-8.27299e-05
0.000271007
-6.93437e-05
0.000280138
-5.51821e-05
0.000285727
-4.13378e-05
0.000288232
-2.83908e-05
0.000288157
-1.66898e-05
0.000286006
-6.42345e-06
0.00028231
2.25561e-06
0.000277384
9.51752e-06
0.000271588
1.53866e-05
0.000265213
1.99685e-05
0.000258477
2.34119e-05
0.000251555
2.58584e-05
0.000244586
2.74402e-05
0.000237689
2.82814e-05
0.000230966
2.8495e-05
0.000224415
2.82453e-05
0.000218089
2.76109e-05
0.000212055
2.66411e-05
0.000206342
2.54214e-05
0.000200983
2.40265e-05
0.000195999
2.24987e-05
0.000191377
2.09113e-05
0.000187139
1.92765e-05
0.000183332
1.75861e-05
0.000179922
1.59624e-05
0.000176952
1.4331e-05
0.000174448
1.27253e-05
0.000172353
1.12036e-05
0.000170678
9.66928e-06
0.000169403
8.17875e-06
0.000168548
6.68709e-06
0.00016813
5.21555e-06
0.000168052
3.74309e-06
0.000168314
2.28043e-06
0.000168899
8.07705e-07
0.000169768
-6.69393e-07
0.000170896
-2.15107e-06
0.000172253
-3.63451e-06
0.000173816
-5.11493e-06
0.000175563
-6.58276e-06
0.00017747
-8.02571e-06
0.000179533
-9.43466e-06
0.00018174
-1.08011e-05
0.000184086
-1.21163e-05
0.000186562
-1.33695e-05
0.000189171
-1.4561e-05
0.000191901
-1.56822e-05
0.000194749
-1.67325e-05
0.00019771
-1.77072e-05
0.000200777
-1.86085e-05
0.000203942
-1.94351e-05
0.000207195
-2.01853e-05
0.00021053
-2.08584e-05
0.000213935
-2.14559e-05
0.000217402
-2.19791e-05
0.000220916
-2.24284e-05
0.000224472
-2.28006e-05
0.000228055
-2.31016e-05
0.000231655
-2.33306e-05
0.000235261
-2.34901e-05
0.000238861
-2.35786e-05
0.000242445
-2.35989e-05
0.000246005
-2.35581e-05
0.000249525
-2.34437e-05
0.000252998
-2.32686e-05
0.000256416
-2.30323e-05
0.000259767
-2.27303e-05
0.000263047
-2.23693e-05
0.000266248
-2.19513e-05
0.000269368
-2.14695e-05
0.000272404
-2.09321e-05
0.000275354
-2.03358e-05
0.000278221
-1.96825e-05
0.000281006
-1.89709e-05
0.00028372
-1.82062e-05
0.000286363
-1.73771e-05
0.000288947
-1.64923e-05
0.000291487
-1.55481e-05
0.000293994
-1.45449e-05
0.000296488
-1.34834e-05
0.000298984
-1.2363e-05
0.000301506
-1.11868e-05
0.000304068
-9.95878e-06
0.000306692
-8.68531e-06
0.000309393
-7.37876e-06
0.000312171
-6.05485e-06
0.000315016
-4.73138e-06
0.000317892
-3.43021e-06
0.00032077
-2.17124e-06
0.000323552
-9.80475e-07
0.000326156
1.42507e-07
0.000328494
1.19614e-06
0.000330466
2.19195e-06
0.000331979
3.16565e-06
0.000332968
4.13983e-06
0.000333378
5.15834e-06
0.000333171
6.26406e-06
0.000332326
7.50004e-06
0.000330838
8.90326e-06
0.00032871
1.05018e-05
0.000325955
1.23088e-05
0.000322588
1.43237e-05
0.000318624
1.65302e-05
0.000314071
1.89095e-05
0.000308933
2.14304e-05
0.00030321
2.40612e-05
0.00029689
2.67762e-05
0.000289968
2.95428e-05
0.000282433
3.23378e-05
0.000274283
3.51392e-05
0.000265518
3.79269e-05
0.000256145
4.0691e-05
0.000246179
4.3419e-05
0.000235648
4.61062e-05
0.000224591
4.87494e-05
0.000213056
5.13503e-05
0.000201101
5.39155e-05
0.000188796
5.6457e-05
0.000176218
5.89912e-05
0.00016346
6.15392e-05
0.00015062
6.41231e-05
0.000137804
6.67663e-05
0.000125117
6.94911e-05
0.000112659
7.23119e-05
0.000100522
7.52366e-05
8.87824e-05
7.82566e-05
7.75028e-05
8.13276e-05
6.67261e-05
8.43871e-05
5.64492e-05
8.7458e-05
4.65851e-05
9.07829e-05
3.70117e-05
9.46216e-05
2.794e-05
9.78722e-05
2.04222e-05
9.61774e-05
1.5697e-05
8.50033e-05
1.20771e-05
7.42296e-05
0.000113352
-1.45034e-05
3.06876e-05
-1.05359e-05
-0.000132085
5.37715e-06
-0.000193147
2.93112e-05
-0.000198372
5.38615e-05
-0.000173903
7.72595e-05
-0.000146237
0.000100452
-0.000129096
0.000125059
-0.000124646
0.000151773
-0.000128067
0.000180316
-0.000133021
0.000209496
-0.00013451
0.000237451
-0.000129857
0.000262189
-0.000118771
0.000282112
-0.000102653
0.000296466
-8.36975e-05
0.000305389
-6.41055e-05
0.00030951
-4.5458e-05
0.000309741
-2.86226e-05
0.000306945
-1.38936e-05
0.000301947
-1.42477e-06
0.000295344
8.85842e-06
0.000287683
1.71786e-05
0.000279377
2.36925e-05
0.00027074
2.86055e-05
0.000262033
3.2119e-05
0.000253431
3.44602e-05
0.000245051
3.58201e-05
0.00023702
3.63125e-05
0.000229319
3.6196e-05
0.000222022
3.55416e-05
0.000215177
3.44564e-05
0.000208755
3.30625e-05
0.000202795
3.13819e-05
0.00019727
2.95516e-05
0.000192183
2.75854e-05
0.000187547
2.55475e-05
0.000183361
2.34629e-05
0.000179565
2.13814e-05
0.000176251
1.92768e-05
0.000173341
1.72409e-05
0.00017087
1.51965e-05
0.000168828
1.32453e-05
0.000167199
1.12981e-05
0.000166002
9.37556e-06
0.000165179
7.51047e-06
0.000164739
5.6559e-06
0.000164658
3.8237e-06
0.000164925
2.01364e-06
0.000165503
2.29505e-07
0.000166364
-1.53065e-06
0.000167486
-3.27312e-06
0.000168849
-4.99761e-06
0.000170431
-6.69645e-06
0.000172206
-8.35767e-06
0.000174165
-9.98436e-06
0.000176295
-1.15646e-05
0.000178581
-1.30874e-05
0.000181018
-1.45535e-05
0.000183603
-1.5954e-05
0.000186322
-1.728e-05
0.000189171
-1.85314e-05
0.000192144
-1.97053e-05
0.000195235
-2.07985e-05
0.000198432
-2.18059e-05
0.000201728
-2.27304e-05
0.000205113
-2.3571e-05
0.000208581
-2.43257e-05
0.000212118
-2.49932e-05
0.000215715
-2.55761e-05
0.000219362
-2.6076e-05
0.00022305
-2.6488e-05
0.000226764
-2.68152e-05
0.000230494
-2.7061e-05
0.00023423
-2.72263e-05
0.00023796
-2.73087e-05
0.000241675
-2.73134e-05
0.000245364
-2.72477e-05
0.000249015
-2.70941e-05
0.000252619
-2.68723e-05
0.00025617
-2.65842e-05
0.000259656
-2.6216e-05
0.000263072
-2.57856e-05
0.000266412
-2.52911e-05
0.000269674
-2.47312e-05
0.000272854
-2.41123e-05
0.000275953
-2.34344e-05
0.00027897
-2.27001e-05
0.00028191
-2.19103e-05
0.000284772
-2.10688e-05
0.00028757
-2.0175e-05
0.000290311
-1.92332e-05
0.00029301
-1.82471e-05
0.000295678
-1.72127e-05
0.000298325
-1.61308e-05
0.000300969
-1.5007e-05
0.000303626
-1.38439e-05
0.000306312
-1.26442e-05
0.000309035
-1.14082e-05
0.000311803
-1.01474e-05
0.000314612
-8.86374e-06
0.000317451
-7.56977e-06
0.00032029
-6.26911e-06
0.000323092
-4.97375e-06
0.000325796
-3.68435e-06
0.000328337
-2.39817e-06
0.000330636
-1.10322e-06
0.000332583
2.45323e-07
0.000334161
1.58743e-06
0.000335281
3.01941e-06
0.000335879
4.56103e-06
0.000335905
6.23806e-06
0.000335327
8.0778e-06
0.000334128
1.01018e-05
0.000332308
1.23223e-05
0.00032987
1.47461e-05
0.000326827
1.73673e-05
0.000323182
2.01751e-05
0.000318947
2.31445e-05
0.000314123
2.62546e-05
0.000308706
2.94781e-05
0.000302702
3.27798e-05
0.000296105
3.61396e-05
0.000288914
3.95294e-05
0.000281131
4.29218e-05
0.000272756
4.63018e-05
0.000263795
4.96521e-05
0.000254264
5.29503e-05
0.000244178
5.61924e-05
0.00023356
5.93671e-05
0.00022244
6.24702e-05
0.000210855
6.55001e-05
0.000198854
6.84589e-05
0.000186492
7.13529e-05
0.00017384
7.41913e-05
0.000160977
7.6986e-05
0.000147993
7.97505e-05
0.000134987
8.24971e-05
0.00012206
8.52383e-05
0.000109316
8.79812e-05
9.68512e-05
9.07212e-05
8.47525e-05
9.34263e-05
7.30937e-05
9.6046e-05
6.19354e-05
9.86163e-05
5.12949e-05
0.000101423
4.11454e-05
0.000104771
3.15508e-05
0.000107467
2.30256e-05
0.000104703
1.66291e-05
9.13998e-05
1.17716e-05
7.90871e-05
0.000125123
-2.07693e-05
5.14568e-05
-2.38442e-05
-0.00012901