/*--------------------------------*- C++ -*----------------------------------*\
| =========                 |                                                 |
| \\      /  F ield         | OpenFOAM: The Open Source CFD Toolbox           |
|  \\    /   O peration     | Version:  v2006                                 |
|   \\  /    A nd           | Website:  www.openfoam.com                      |
|    \\/     M anipulation  |                                                 |
\*---------------------------------------------------------------------------*/
FoamFile
{
    version     2.0;
    format      ascii;
    class       surfaceScalarField;
    location    "19.2";
    object      phi;
}
// * * * * * * * * * * * * * * * * * * * * * * * * * * * * * * * * * * * * * //

dimensions      [0 3 -1 0 0 0 0];
oriented        oriented;


internalField   nonuniform List<scalar> 
99450
(
3.39228e-06
-3.39228e-06
2.59295e-05
-2.25373e-05
5.24107e-05
-2.64811e-05
7.61991e-05
-2.37884e-05
9.6118e-05
-1.9919e-05
0.00011327
-1.71522e-05
0.000129019
-1.57486e-05
0.000144244
-1.52256e-05
0.000159321
-1.50765e-05
0.000174293
-1.49716e-05
0.000189048
-1.47551e-05
0.000203427
-1.43795e-05
0.000217273
-1.38461e-05
0.000230447
-1.31737e-05
0.000242835
-1.23884e-05
0.000254353
-1.15179e-05
0.000264945
-1.05913e-05
0.000274586
-9.64157e-06
0.000283281
-8.69537e-06
0.000291056
-7.77462e-06
0.000297954
-6.89841e-06
0.000304032
-6.07775e-06
0.000309347
-5.31494e-06
0.000313965
-4.61795e-06
0.000317961
-3.99564e-06
0.000321397
-3.43618e-06
0.000324332
-2.93541e-06
0.000326818
-2.48549e-06
0.000328896
-2.07778e-06
0.0003306
-1.70461e-06
0.000331959
-1.35852e-06
0.000332979
-1.02066e-06
0.000333641
-6.61528e-07
0.000333919
-2.78311e-07
0.000333731
1.88468e-07
0.000332894
8.36276e-07
0.000331258
1.63631e-06
0.000328622
2.63655e-06
0.000324726
3.89536e-06
0.000319376
5.35014e-06
0.000312491
6.8855e-06
0.000304198
8.29302e-06
0.00029476
9.43722e-06
0.000284479
1.02812e-05
0.000273636
1.08436e-05
0.000262488
1.11478e-05
0.000251294
1.11933e-05
0.000240329
1.09659e-05
0.000229856
1.04726e-05
0.000220153
9.70317e-06
0.000211515
8.63792e-06
0.000204217
7.29777e-06
0.000198435
5.78221e-06
0.000194175
4.25957e-06
0.000191277
2.89855e-06
0.000189504
1.77306e-06
0.000188616
8.87348e-07
0.000188452
1.64166e-07
0.000188936
-4.8374e-07
0.000189974
-1.03802e-06
0.000191517
-1.54326e-06
0.000193523
-2.00557e-06
0.000195944
-2.42152e-06
0.000198742
-2.79762e-06
0.000201877
-3.13481e-06
0.000205309
-3.43214e-06
0.000209005
-3.69582e-06
0.00021293
-3.92545e-06
0.000217055
-4.12516e-06
0.000221351
-4.29571e-06
0.00022579
-4.43919e-06
0.000230348
-4.55767e-06
0.000235
-4.65164e-06
0.000239721
-4.72137e-06
0.000244489
-4.76825e-06
0.000249284
-4.79488e-06
0.000254086
-4.8021e-06
0.000258875
-4.78881e-06
0.000263631
-4.7564e-06
0.000268336
-4.7045e-06
0.000272967
-4.63099e-06
0.000277499
-4.53185e-06
0.000281906
-4.4071e-06
0.000286159
-4.25364e-06
0.000290226
-4.06665e-06
0.000294073
-3.84673e-06
0.000297659
-3.58664e-06
0.000300942
-3.28269e-06
0.000303875
-2.93306e-06
0.000306401
-2.52621e-06
0.000308452
-2.05057e-06
0.000309939
-1.48726e-06
0.000310745
-8.05989e-07
0.000310717
2.78247e-08
0.000309672
1.04526e-06
0.000307281
2.39155e-06
0.000303118
4.16286e-06
0.000296633
6.48435e-06
0.000287377
9.25648e-06
0.000275182
1.21944e-05
0.000260183
1.49991e-05
0.000242787
1.73964e-05
0.000223616
1.91706e-05
0.000203357
2.02593e-05
0.000182611
2.07458e-05
0.000161862
2.07493e-05
0.00014153
2.03316e-05
0.000122073
1.94577e-05
0.000104044
1.80281e-05
8.81458e-05
1.58987e-05
7.51377e-05
1.30081e-05
6.55826e-05
9.55507e-06
5.95261e-05
6.0565e-06
5.63778e-05
3.14838e-06
5.51289e-05
1.24887e-06
5.4835e-05
2.9392e-07
5.48352e-05
-1.93771e-10
5.47359e-05
9.92655e-08
5.438e-05
3.55925e-07
5.37382e-05
6.41731e-07
5.28269e-05
9.113e-07
5.16623e-05
1.16465e-06
5.02551e-05
1.40719e-06
4.8617e-05
1.63806e-06
4.67635e-05
1.85356e-06
4.47133e-05
2.05014e-06
4.24844e-05
2.22889e-06
4.00953e-05
2.38912e-06
3.75666e-05
2.52873e-06
3.49201e-05
2.64651e-06
3.21741e-05
2.74595e-06
2.93392e-05
2.83494e-06
2.64328e-05
2.90641e-06
2.3478e-05
2.95473e-06
2.05074e-05
2.97067e-06
1.75649e-05
2.94245e-06
1.4702e-05
2.86295e-06
1.19726e-05
2.72933e-06
9.43264e-06
2.53999e-06
7.13614e-06
2.2965e-06
5.13241e-06
2.00373e-06
3.46827e-06
1.66414e-06
2.19262e-06
1.27565e-06
1.37059e-06
8.22038e-07
1.04542e-06
3.25171e-07
1.16663e-06
-1.21211e-07
1.67137e-06
-5.04747e-07
2.50262e-06
-8.3125e-07
3.0771e-06
-5.74477e-07
3.0771e-06
1.33602e-06
-4.7283e-06
2.12657e-05
-4.24669e-05
4.52405e-05
-5.04559e-05
6.60092e-05
-4.45571e-05
8.19369e-05
-3.58467e-05
9.42207e-05
-2.9436e-05
0.000104712
-2.624e-05
0.000114677
-2.51901e-05
0.000124558
-2.49575e-05
0.000134272
-2.46855e-05
0.00014354
-2.40236e-05
0.000152084
-2.29229e-05
0.000159685
-2.14471e-05
0.000166188
-1.96773e-05
0.000171492
-1.7692e-05
0.000175551
-1.55768e-05
0.000178365
-1.34055e-05
0.000179971
-1.12472e-05
0.000180443
-9.16747e-06
0.000179876
-7.20798e-06
0.000178395
-5.41746e-06
0.000176135
-3.81801e-06
0.000173242
-2.42129e-06
0.00016987
-1.24652e-06
0.000166164
-2.89031e-07
0.000162294
4.33509e-07
0.000158366
9.92962e-07
0.0001545
1.37957e-06
0.000150843
1.57932e-06
0.000147512
1.62726e-06
0.000144623
1.53019e-06
0.000142308
1.29395e-06
0.000140681
9.65746e-07
0.000139824
5.78954e-07
0.000139808
2.04061e-07
0.000140827
-1.8294e-07
0.000142879
-4.14986e-07
0.000145959
-4.44076e-07
0.000150017
-1.62495e-07
0.000154918
4.4923e-07
0.000160556
1.24729e-06
0.000166583
2.26657e-06
0.000172616
3.40398e-06
0.000178369
4.52847e-06
0.00018366
5.5518e-06
0.000188384
6.42403e-06
0.000192479
7.09817e-06
0.00019599
7.45549e-06
0.00019895
7.5125e-06
0.000201403
7.2497e-06
0.000203416
6.62564e-06
0.000205005
5.70861e-06
0.000206211
4.57598e-06
0.000207122
3.3481e-06
0.000207899
2.12244e-06
0.000208682
9.89568e-07
0.000209531
3.81052e-08
0.000210516
-8.20445e-07
0.000211619
-1.58647e-06
0.000212836
-2.25494e-06
0.000214137
-2.84457e-06
0.000215501
-3.36929e-06
0.000216915
-3.83644e-06
0.000218368
-4.25061e-06
0.000219849
-4.61487e-06
0.000221352
-4.93606e-06
0.000222874
-5.21761e-06
0.000224412
-5.46326e-06
0.000225961
-5.6744e-06
0.000227519
-5.85363e-06
0.000229083
-6.00249e-06
0.000230648
-6.12329e-06
0.000232216
-6.21947e-06
0.000233788
-6.29312e-06
0.000235361
-6.34198e-06
0.000236938
-6.37094e-06
0.00023852
-6.38424e-06
0.000240112
-6.38069e-06
0.000241714
-6.35846e-06
0.000243333
-6.32401e-06
0.000244976
-6.2742e-06
0.000246645
-6.20032e-06
0.000248346
-6.10788e-06
0.000250073
-5.9813e-06
0.000251829
-5.82231e-06
0.000253606
-5.62366e-06
0.000255395
-5.37614e-06
0.000257185
-5.07236e-06
0.000258959
-4.70657e-06
0.000260697
-4.26507e-06
0.000262385
-3.73778e-06
0.000264003
-3.10528e-06
0.000265549
-2.35223e-06
0.000267037
-1.46018e-06
0.000268452
-3.69652e-07
0.000269809
1.03474e-06
0.000271317
2.65464e-06
0.000273111
4.68966e-06
0.000275169
7.1985e-06
0.000277228
1.01361e-05
0.000278906
1.33212e-05
0.000279882
1.64203e-05
0.000280012
1.90404e-05
0.000279439
2.08327e-05
0.000278619
2.15651e-05
0.000278195
2.11734e-05
0.000278814
1.97125e-05
0.000280971
1.73014e-05
0.000284926
1.40728e-05
0.000290648
1.0177e-05
0.000297794
5.86225e-06
0.000305774
1.57461e-06
0.000313978
-2.14764e-06
0.000322057
-4.93079e-06
0.000329777
-6.47035e-06
0.00033695
-6.87939e-06
0.000343391
-6.44117e-06
0.000348958
-5.468e-06
0.000353572
-4.25779e-06
0.000357178
-2.96418e-06
0.000359783
-1.69447e-06
0.000361403
-4.55368e-07
0.000362052
7.58285e-07
0.000361741
1.94993e-06
0.000360459
3.13505e-06
0.000358182
4.3269e-06
0.00035488
5.53147e-06
0.000350521
6.7478e-06
0.000345078
7.97137e-06
0.000338527
9.19794e-06
0.000330844
1.04284e-05
0.000322011
1.16686e-05
0.000311998
1.29193e-05
0.00030078
1.41725e-05
0.000288341
1.54097e-05
0.000274677
1.66068e-05
0.000259804
1.77357e-05
0.000243769
1.87643e-05
0.000226646
1.96627e-05
0.000208526
2.04165e-05
0.000189531
2.09991e-05
0.000169787
2.14079e-05
0.000149418
2.16449e-05
0.000128514
2.17258e-05
0.00010714
2.16994e-05
8.54176e-05
2.16012e-05
6.33047e-05
2.16082e-05
4.12213e-05
2.12521e-05
2.06839e-05
1.9963e-05
2.3761e-05
1.84265e-07
-4.91257e-06
2.07872e-05
-6.30699e-05
4.7469e-05
-7.71377e-05
7.21342e-05
-6.92224e-05
9.19014e-05
-5.56138e-05
0.00010719
-4.47243e-05
0.000119807
-3.88569e-05
0.000131473
-3.68565e-05
0.000143106
-3.65902e-05
0.000154818
-3.6398e-05
0.000166283
-3.54889e-05
0.000177056
-3.36955e-05
0.000186759
-3.11503e-05
0.000195138
-2.80565e-05
0.000202046
-2.45994e-05
0.000207396
-2.09271e-05
0.000211165
-1.71744e-05
0.000213408
-1.34907e-05
0.000214244
-1.00028e-05
0.000213809
-6.77345e-06
0.000212281
-3.88898e-06
0.000209864
-1.40147e-06
0.000206681
7.62331e-07
0.00020295
2.48451e-06
0.000198809
3.85128e-06
0.000194394
4.84922e-06
0.000189849
5.53763e-06
0.000185284
5.94474e-06
0.000180763
6.10034e-06
0.000176357
6.03309e-06
0.000172106
5.78102e-06
0.000168042
5.35762e-06
0.000164189
4.81867e-06
0.000160564
4.20421e-06
0.000157213
3.55565e-06
0.000154094
2.93545e-06
0.000151282
2.39744e-06
0.000148836
2.00127e-06
0.000146924
1.74998e-06
0.000145688
1.68564e-06
0.000145119
1.81585e-06
0.000145236
2.14989e-06
0.000146018
2.62117e-06
0.000147426
3.12119e-06
0.000149398
3.57943e-06
0.000151862
3.95966e-06
0.000154769
4.19189e-06
0.000157965
4.25973e-06
0.000161333
4.14414e-06
0.000164699
3.88351e-06
0.000167903
3.4217e-06
0.000170849
2.76286e-06
0.000173441
1.98376e-06
0.00017577
1.01904e-06
0.000177882
1.06986e-08
0.000179859
-9.87231e-07
0.000181824
-1.92722e-06
0.000183796
-2.79274e-06
0.000185782
-3.57197e-06
0.000187803
-4.27614e-06
0.000189864
-4.90568e-06
0.00019196
-5.46557e-06
0.000194093
-5.96938e-06
0.00019626
-6.41762e-06
0.000198464
-6.8187e-06
0.000200701
-7.17326e-06
0.000202971
-7.487e-06
0.000205268
-7.76067e-06
0.000207587
-7.99351e-06
0.000209934
-8.2002e-06
0.000212304
-8.37245e-06
0.000214698
-8.51714e-06
0.00021711
-8.63239e-06
0.00021954
-8.72302e-06
0.000221986
-8.78781e-06
0.000224446
-8.83067e-06
0.000226918
-8.85592e-06
0.000229398
-8.86148e-06
0.00023189
-8.85043e-06
0.00023439
-8.8233e-06
0.000236895
-8.77944e-06
0.000239409
-8.71409e-06
0.000241925
-8.62378e-06
0.000244445
-8.50218e-06
0.000246967
-8.34351e-06
0.000249482
-8.13892e-06
0.000251988
-7.88263e-06
0.000254481
-7.56488e-06
0.000256952
-7.17796e-06
0.000259401
-6.71367e-06
0.00026182
-6.15723e-06
0.00026421
-5.49478e-06
0.000266567
-4.70893e-06
0.000268882
-3.77559e-06
0.00027117
-2.65773e-06
0.000273536
-1.33146e-06
0.000276091
1.00139e-07
0.000279014
1.76616e-06
0.000282473
3.73936e-06
0.000286628
5.98189e-06
0.000291567
8.38157e-06
0.000297282
1.07052e-05
0.000303683
1.26392e-05
0.000310576
1.39398e-05
0.0003177
1.44412e-05
0.000324793
1.40808e-05
0.000331621
1.28839e-05
0.000337946
1.09774e-05
0.000343482
8.53662e-06
0.000347894
5.76421e-06
0.000350859
2.8979e-06
0.000352244
1.89776e-07
0.000352059
-1.96303e-06
0.000350445
-3.31711e-06
0.000347865
-3.89024e-06
0.00034477
-3.78386e-06
0.00034153
-3.20132e-06
0.000338389
-2.32745e-06
0.000335453
-1.3211e-06
0.00033273
-2.41547e-07
0.000330234
8.01369e-07
0.000327953
1.82562e-06
0.000325842
2.86902e-06
0.00032384
3.9528e-06
0.000321867
5.10739e-06
0.000319837
6.35688e-06
0.00031764
7.72878e-06
0.000315166
9.22172e-06
0.000312297
1.08408e-05
0.000308922
1.25725e-05
0.000304931
1.44198e-05
0.00030021
1.63894e-05
0.000294641
1.84878e-05
0.000288101
2.07133e-05
0.000280448
2.30625e-05
0.000271546
2.55085e-05
0.00026126
2.80214e-05
0.00024947
3.05546e-05
0.000236079
3.30542e-05
0.000221028
3.54667e-05
0.00020429
3.77372e-05
0.000185885
3.98134e-05
0.00016588
4.16498e-05
0.000144386
4.32201e-05
0.000121546
4.45384e-05
9.7496e-05
4.56517e-05
7.24822e-05
4.6622e-05
4.76489e-05
4.60853e-05
2.504e-05
4.25719e-05
4.8801e-05
-1.26811e-06
-3.64445e-06
1.89095e-05
-8.32475e-05
4.62336e-05
-0.000104462
7.26162e-05
-9.5605e-05
9.47108e-05
-7.77084e-05
0.000112424
-6.24378e-05
0.000127279
-5.37115e-05
0.000141019
-5.05965e-05
0.000154767
-5.03388e-05
0.000168841
-5.04712e-05
0.000182967
-4.9615e-05
0.000196623
-4.73512e-05
0.000209285
-4.38131e-05
0.000220552
-3.93235e-05
0.000230133
-3.41798e-05
0.00023793
-2.87248e-05
0.000243931
-2.31754e-05
0.000248188
-1.77471e-05
0.000250774
-1.25894e-05
0.00025189
-7.88887e-06
0.000251677
-3.67637e-06
0.000250343
-6.7102e-08
0.000248133
2.97207e-06
0.000245177
5.44011e-06
0.000241662
7.36635e-06
0.000237725
8.7866e-06
0.000233506
9.75693e-06
0.000229118
1.03328e-05
0.000224647
1.05708e-05
0.000220157
1.0523e-05
0.000215688
1.02506e-05
0.000211239
9.80567e-06
0.000206826
9.23216e-06
0.000202449
8.58094e-06
0.000198105
7.90021e-06
0.000193813
7.22745e-06
0.000189604
6.60663e-06
0.000185521
6.08421e-06
0.000181634
5.63681e-06
0.000178016
5.30303e-06
0.000174774
5.05799e-06
0.000172035
4.88887e-06
0.000169896
4.76053e-06
0.000168367
4.64963e-06
0.000167421
4.52609e-06
0.00016704
4.34075e-06
0.000167163
4.06896e-06
0.000167747
3.6749e-06
0.00016869
3.20154e-06
0.000169943
2.6308e-06
0.000171418
1.94638e-06
0.000173022
1.15862e-06
0.000174726
2.80447e-07
0.000176429
-6.84217e-07
0.000178119
-1.67986e-06
0.000179808
-2.67595e-06
0.000181524
-3.64294e-06
0.000183294
-4.56311e-06
0.000185148
-5.42531e-06
0.000187092
-6.22089e-06
0.000189137
-6.95022e-06
0.000191292
-7.62088e-06
0.000193554
-8.23072e-06
0.000195922
-8.78591e-06
0.00019839
-9.28662e-06
0.000200951
-9.7346e-06
0.000203599
-1.01353e-05
0.00020633
-1.04908e-05
0.000209143
-1.08071e-05
0.000212018
-1.10755e-05
0.000214954
-1.13082e-05
0.00021794
-1.15028e-05
0.000220973
-1.16653e-05
0.000224036
-1.17867e-05
0.000227127
-1.18789e-05
0.000230237
-1.19399e-05
0.000233356
-1.1975e-05
0.000236469
-1.19749e-05
0.000239569
-1.19504e-05
0.000242644
-1.18982e-05
0.000245684
-1.18196e-05
0.000248676
-1.17062e-05
0.000251612
-1.15597e-05
0.000254485
-1.13746e-05
0.000257285
-1.11434e-05
0.000260012
-1.08661e-05
0.000262657
-1.05275e-05
0.000265221
-1.0129e-05
0.000267703
-9.66056e-06
0.000270105
-9.11492e-06
0.000272431
-8.48358e-06
0.000274694
-7.75753e-06
0.000276909
-6.92436e-06
0.000279104
-5.97092e-06
0.000281333
-4.88586e-06
0.000283668
-3.66701e-06
0.000286095
-2.32636e-06
0.00028869
-8.28976e-07
0.000291537
8.92563e-07
0.000294917
2.60186e-06
0.000298952
4.34578e-06
0.000303675
5.98267e-06
0.000308933
7.38119e-06
0.000314475
8.39769e-06
0.000319967
8.94917e-06
0.000325064
8.98375e-06
0.000329391
8.55668e-06
0.000332615
7.75359e-06
0.000334458
6.69339e-06
0.000334718
5.50464e-06
0.000333301
4.31519e-06
0.00033024
3.2499e-06
0.000325842
2.43512e-06
0.000320588
1.93714e-06
0.000314911
1.78702e-06
0.000309152
1.97535e-06
0.000303489
2.46154e-06
0.000297973
3.18823e-06
0.000292562
4.09005e-06
0.000287214
5.10633e-06
0.000281842
6.17366e-06
0.000276408
7.25942e-06
0.000270918
8.35926e-06
0.000265386
9.48448e-06
0.000259839
1.06544e-05
0.000254298
1.18977e-05
0.00024879
1.32367e-05
0.000243319
1.46931e-05
0.000237879
1.62806e-05
0.000232444
1.80082e-05
0.000226976
1.98869e-05
0.000221429
2.1937e-05
0.000215737
2.41794e-05
0.000209814
2.66362e-05
0.000203559
2.93179e-05
0.000196842
3.2225e-05
0.000189515
3.53491e-05
0.000181421
3.86482e-05
0.000172398
4.20773e-05
0.000162284
4.55807e-05
0.000150943
4.90781e-05
0.000138274
5.24823e-05
0.00012422
5.57038e-05
0.000108732
5.87085e-05
9.17223e-05
6.15478e-05
7.31789e-05
6.41951e-05
5.3863e-05
6.5938e-05
3.61035e-05
6.38448e-05
2.1041e-05
5.76344e-05
6.9842e-05
-3.213e-06
-4.31456e-07
1.53341e-05
-0.000101795
4.22278e-05
-0.000131355
6.92061e-05
-0.000122583
9.24391e-05
-0.000100941
0.000111398
-8.13969e-05
0.00012745
-6.97634e-05
0.00014238
-6.55264e-05
0.000157486
-6.54447e-05
0.000173216
-6.62015e-05
0.000189275
-6.56741e-05
0.000204999
-6.3075e-05
0.000219676
-5.84902e-05
0.000232742
-5.23892e-05
0.000243871
-4.5309e-05
0.000252882
-3.77356e-05
0.000259763
-3.00566e-05
0.000264611
-2.25949e-05
0.000267595
-1.55735e-05
0.000268899
-9.19232e-06
0.000268763
-3.5407e-06
0.00026737
1.32565e-06
0.000264956
5.3858e-06
0.000261715
8.6811e-06
0.000257822
1.12598e-05
0.000253423
1.31855e-05
0.000248651
1.45293e-05
0.000243615
1.53688e-05
0.000238412
1.57735e-05
0.000233127
1.58081e-05
0.00022782
1.55579e-05
0.000222567
1.50586e-05
0.000217397
1.44019e-05
0.000212344
1.3634e-05
0.000207463
1.27807e-05
0.000202805
1.18864e-05
0.000198406
1.10053e-05
0.000194326
1.01643e-05
0.000190603
9.36013e-06
0.000187276
8.62995e-06
0.000184374
7.9592e-06
0.000181915
7.34813e-06
0.000179898
6.77802e-06
0.000178336
6.21085e-06
0.000177191
5.67123e-06
0.000176436
5.09625e-06
0.000176059
4.44608e-06
0.000176006
3.72772e-06
0.000176275
2.93221e-06
0.000176832
2.07381e-06
0.000177644
1.1343e-06
0.000178674
1.28812e-07
0.000179884
-9.29932e-07
0.000181226
-2.02543e-06
0.000182678
-3.13253e-06
0.000184234
-4.23141e-06
0.000185895
-5.30443e-06
0.000187665
-6.3333e-06
0.000189546
-7.30545e-06
0.000191544
-8.21959e-06
0.00019367
-9.07549e-06
0.000195919
-9.87007e-06
0.000198291
-1.06031e-05
0.00020078
-1.12749e-05
0.000203379
-1.1886e-05
0.000206088
-1.24429e-05
0.000208893
-1.29402e-05
0.000211788
-1.33862e-05
0.000214759
-1.3778e-05
0.000217801
-1.41175e-05
0.000220902
-1.44096e-05
0.000224053
-1.4653e-05
0.000227237
-1.485e-05
0.000230449
-1.49988e-05
0.000233675
-1.51049e-05
0.000236904
-1.51688e-05
0.00024012
-1.51909e-05
0.000243316
-1.51704e-05
0.000246475
-1.51097e-05
0.000249586
-1.50092e-05
0.000252633
-1.48669e-05
0.00025561
-1.4683e-05
0.000258505
-1.44548e-05
0.000261309
-1.41787e-05
0.000264018
-1.38522e-05
0.000266625
-1.34729e-05
0.000269131
-1.30341e-05
0.000271538
-1.25353e-05
0.000273847
-1.19699e-05
0.000276066
-1.13341e-05
0.000278203
-1.06203e-05
0.000280268
-9.82324e-06
0.000282283
-8.9388e-06
0.000284271
-7.95942e-06
0.000286267
-6.88171e-06
0.000288304
-5.70369e-06
0.000290406
-4.42847e-06
0.000292635
-3.05807e-06
0.000295129
-1.6012e-06
0.000297849
-1.18088e-07
0.000300841
1.35411e-06
0.000304071
2.75265e-06
0.000307454
3.99776e-06
0.000310847
5.0044e-06
0.000314056
5.74024e-06
0.00031686
6.18008e-06
0.000319058
6.35879e-06
0.000320516
6.29558e-06
0.000321157
6.0517e-06
0.00032096
5.70236e-06
0.000319936
5.33858e-06
0.000318124
5.06184e-06
0.000315587
4.97212e-06
0.00031238
5.14443e-06
0.000308555
5.61179e-06
0.000304164
6.36665e-06
0.000299253
7.37263e-06
0.000293862
8.57955e-06
0.000288017
9.93435e-06
0.000281737
1.13868e-05
0.000275017
1.28933e-05
0.00026785
1.44265e-05
0.000260245
1.59642e-05
0.000252232
1.74978e-05
0.000243855
1.9031e-05
0.000235177
2.05755e-05
0.000226267
2.21471e-05
0.000217194
2.37657e-05
0.00020803
2.54449e-05
0.000198833
2.72052e-05
0.000189654
2.90659e-05
0.000180536
3.10546e-05
0.000171512
3.32034e-05
0.000162604
3.55442e-05
0.000153815
3.81076e-05
0.000145125
4.0915e-05
0.0001365
4.39734e-05
0.000127872
4.72764e-05
0.000119148
5.08018e-05
0.000110223
5.45049e-05
0.000100989
5.83122e-05
9.13449e-05
6.21267e-05
8.11776e-05
6.58711e-05
7.02937e-05
6.95924e-05
5.84054e-05
7.34361e-05
4.55122e-05
7.70883e-05
3.30442e-05
7.84059e-05
2.35488e-05
7.33402e-05
1.62098e-05
6.49735e-05
8.60518e-05
-5.90907e-06
5.47761e-06
1.01415e-05
-0.000117845
3.55918e-05
-0.000156806
6.26416e-05
-0.000149633
8.69893e-05
-0.000125289
0.000107351
-0.000101759
0.000124798
-8.72097e-05
0.000141214
-8.1943e-05
0.000158101
-8.23315e-05
0.00017598
-8.40807e-05
0.000194456
-8.41495e-05
0.000212609
-8.12282e-05
0.000229427
-7.5308e-05
0.000244112
-6.70748e-05
0.000256179
-5.73759e-05
0.00026545
-4.70067e-05
0.000272039
-3.6645e-05
0.000276164
-2.67202e-05
0.000278124
-1.75338e-05
0.000278211
-9.27926e-06
0.000276749
-2.07861e-06
0.000274056
4.01824e-06
0.000270361
9.0816e-06
0.000265893
1.31485e-05
0.000260856
1.62967e-05
0.000255421
1.86213e-05
0.000249729
2.02207e-05
0.000243899
2.11988e-05
0.00023802
2.16522e-05
0.00023219
2.16385e-05
0.000226453
2.12945e-05
0.00022083
2.06821e-05
0.000215383
1.98489e-05
0.000210144
1.88725e-05
0.000205139
1.7786e-05
0.000200401
1.66249e-05
0.000195967
1.54391e-05
0.000191886
1.42448e-05
0.000188166
1.30804e-05
0.000184842
1.19536e-05
0.000181927
1.0875e-05
0.000179452
9.82279e-06
0.00017746
8.76999e-06
0.000175932
7.73911e-06
0.000174879
6.72403e-06
0.000174229
5.74587e-06
0.000174006
4.66945e-06
0.000174133
3.6005e-06
0.000174564
2.50139e-06
0.000175273
1.36472e-06
0.000176224
1.83345e-07
0.000177377
-1.02398e-06
0.000178703
-2.25596e-06
0.000180174
-3.49696e-06
0.000181783
-4.74078e-06
0.000183508
-5.9569e-06
0.000185348
-7.14445e-06
0.000187304
-8.28897e-06
0.00018938
-9.38172e-06
0.000191575
-1.04142e-05
0.000193888
-1.13887e-05
0.000196316
-1.22985e-05
0.000198855
-1.31419e-05
0.0002015
-1.392e-05
0.000204248
-1.46335e-05
0.00020709
-1.52853e-05
0.000210017
-1.58669e-05
0.000213019
-1.63884e-05
0.000216088
-1.68467e-05
0.000219218
-1.72474e-05
0.000222389
-1.75808e-05
0.000225595
-1.78588e-05
0.000228823
-1.80785e-05
0.000232067
-1.82428e-05
0.000235312
-1.83493e-05
0.000238545
-1.84021e-05
0.000241758
-1.84041e-05
0.000244939
-1.83506e-05
0.000248075
-1.82459e-05
0.000251157
-1.80911e-05
0.000254174
-1.78845e-05
0.000257117
-1.76258e-05
0.000259982
-1.73201e-05
0.00026276
-1.69558e-05
0.000265449
-1.65413e-05
0.000268047
-1.60714e-05
0.000270558
-1.55451e-05
0.000272983
-1.49596e-05
0.000275326
-1.43134e-05
0.000277597
-1.36054e-05
0.000279807
-1.28304e-05
0.000281968
-1.19843e-05
0.000284098
-1.1068e-05
0.000286216
-1.00778e-05
0.000288348
-9.01393e-06
0.000290517
-7.87282e-06
0.000292756
-6.66673e-06
0.000295091
-5.39386e-06
0.000297566
-4.07561e-06
0.000300188
-2.73976e-06
0.000302959
-1.4178e-06
0.000305864
-1.51606e-07
0.000308824
1.03745e-06
0.000311765
2.063e-06
0.000314569
2.93635e-06
0.000317098
3.65103e-06
0.000319249
4.20804e-06
0.000320895
4.64933e-06
0.000321923
5.02417e-06
0.000322238
5.38777e-06
0.000321775
5.80142e-06
0.000320513
6.32379e-06
0.000318478
7.00733e-06
0.000315731
7.89105e-06
0.000312347
8.99586e-06
0.00030839
1.03238e-05
0.000303902
1.186e-05
0.000298905
1.35765e-05
0.000293399
1.54403e-05
0.00028737
1.74161e-05
0.000280799
1.94649e-05
0.000273665
2.15604e-05
0.000265952
2.36768e-05
0.000257652
2.57981e-05
0.000248774
2.79083e-05
0.000239348
3.00023e-05
0.000229417
3.20773e-05
0.000219042
3.41415e-05
0.000208284
3.62027e-05
0.000197218
3.82711e-05
0.000185919
4.0365e-05
0.000174468
4.25056e-05
0.000162951
4.47205e-05
0.000151452
4.70425e-05
0.000140058
4.95024e-05
0.000128843
5.21297e-05
0.000117871
5.49454e-05
0.000107186
5.7961e-05
9.6813e-05
6.11752e-05
8.6754e-05
6.45639e-05
7.69971e-05
6.80692e-05
6.75146e-05
7.16091e-05
5.8226e-05
7.51598e-05
4.89383e-05
7.888e-05
3.93798e-05
8.29946e-05
2.97324e-05
8.67358e-05
2.15485e-05
8.65898e-05
1.66817e-05
7.82069e-05
1.31229e-05
6.85323e-05
9.91747e-05
-9.45126e-06
1.49289e-05
2.08017e-06
-0.000129377
2.37839e-05
-0.00017851
4.98924e-05
-0.000175741
7.52762e-05
-0.000150673
9.76843e-05
-0.000124167
0.000117714
-0.000107239
0.000137157
-0.000101386
0.000157537
-0.000102712
0.000179301
-0.000105845
0.000201848
-0.000106697
0.000223874
-0.000103254
0.000243918
-9.53522e-05
0.000260845
-8.40011e-05
0.000274022
-7.05532e-05
0.000283336
-5.63211e-05
0.000289092
-4.24008e-05
0.000291747
-2.93755e-05
0.000291809
-1.75956e-05
0.000289781
-7.25069e-06
0.000286194
1.50844e-06
0.000281366
8.84548e-06
0.000275657
1.47907e-05
0.000269357
1.94486e-05
0.000262686
2.29676e-05
0.000255818
2.54897e-05
0.000248891
2.71472e-05
0.000242026
2.80642e-05
0.000235324
2.83538e-05
0.000228782
2.81803e-05
0.000222455
2.76222e-05
0.000216408
2.6729e-05
0.000210671
2.55859e-05
0.000205276
2.42677e-05
0.000200245
2.28165e-05
0.000195564
2.13055e-05
0.000191257
1.97467e-05
0.00018737
1.81321e-05
0.000183867
1.65831e-05
0.000180795
1.50259e-05
0.000178176
1.34935e-05
0.000175955
1.20435e-05
0.000174145
1.05803e-05
0.000172725
9.15923e-06
0.000171713
7.7357e-06
0.000171129
6.33041e-06
0.000170875
4.92286e-06
0.000170953
3.52326e-06
0.000171342
2.11223e-06
0.000172013
6.93959e-07
0.000172929
-7.32752e-07
0.000174067
-2.16276e-06
0.000175403
-3.59186e-06
0.000176917
-5.01085e-06
0.000178584
-6.4076e-06
0.0001804
-7.77311e-06
0.000182355
-9.09888e-06
0.000184442
-1.03762e-05
0.000186655
-1.15945e-05
0.000188995
-1.2754e-05
0.000191452
-1.38462e-05
0.000194024
-1.48705e-05
0.000196704
-1.58223e-05
0.000199488
-1.67038e-05
0.000202368
-1.75136e-05
0.000205333
-1.82503e-05
0.000208379
-1.8913e-05
0.000211494
-1.95033e-05
0.00021467
-2.00226e-05
0.000217894
-2.04712e-05
0.000221159
-2.08458e-05
0.000224452
-2.11525e-05
0.000227764
-2.13904e-05
0.000231083
-2.1562e-05
0.0002344
-2.16658e-05
0.000237702
-2.17045e-05
0.000240984
-2.16854e-05
0.000244229
-2.15957e-05
0.000247431
-2.14483e-05
0.000250583
-2.12428e-05
0.000253673
-2.09746e-05
0.000256697
-2.06503e-05
0.000259649
-2.02719e-05
0.000262526
-1.98325e-05
0.000265325
-1.93403e-05
0.000268045
-1.87919e-05
0.000270689
-1.8189e-05
0.00027326
-1.75304e-05
0.000275768
-1.68212e-05
0.000278212
-1.60501e-05
0.000280608
-1.52256e-05
0.000282967
-1.43439e-05
0.000285305
-1.34054e-05
0.000287638
-1.24107e-05
0.000289983
-1.13592e-05
0.000292364
-1.02538e-05
0.000294795
-9.09836e-06
0.000297301
-7.89917e-06
0.000299894
-6.66855e-06
0.000302576
-5.42212e-06
0.000305336
-4.17761e-06
0.000308141
-2.95674e-06
0.000310958
-1.77982e-06
0.000313693
-6.72017e-07
0.000316262
3.67208e-07
0.000318578
1.33501e-06
0.000320542
2.24453e-06
0.00032206
3.13107e-06
0.000323067
4.01735e-06
0.000323507
4.94732e-06
0.000323345
5.96411e-06
0.000322557
7.11102e-06
0.000321139
8.42528e-06
0.000319095
9.93516e-06
0.000316437
1.1654e-05
0.00031318
1.35814e-05
0.000309338
1.57013e-05
0.00030492
1.7995e-05
0.000299929
2.04316e-05
0.000294365
2.29795e-05
0.000288217
2.56131e-05
0.000281477
2.83001e-05
0.000274137
3.10172e-05
0.000266192
3.37425e-05
0.000257644
3.64562e-05
0.000248499
3.91481e-05
0.00023877
4.18062e-05
0.000228486
4.44256e-05
0.000217685
4.70033e-05
0.000206415
4.95411e-05
0.000194734
5.20456e-05
0.000182711
5.4529e-05
0.000170424
5.70077e-05
0.000157964
5.95028e-05
0.000145429
6.20369e-05
0.000132926
6.46331e-05
0.000120557
6.73138e-05
0.000108424
7.00938e-05
9.66185e-05
7.2981e-05
8.52156e-05
7.59669e-05
7.42777e-05
7.9007e-05
6.38476e-05
8.20393e-05
5.39214e-05
8.5086e-05
4.44117e-05
8.83897e-05
3.51957e-05
9.22106e-05
2.64835e-05
9.54479e-05
1.93274e-05
9.37459e-05
1.49658e-05
8.25685e-05
1.17112e-05
7.17869e-05
0.000110886
-1.43239e-05
2.92528e-05
-1.01958e-05
-0.000133505
5.88318e-06
-0.000194589
2.99771e-05
-0.000199835
5.46832e-05
-0.000175379
7.82526e-05
-0.000147736
0.000101643
-0.000130629
0.000126474
-0.000126217
0.000153433
-0.000129671
0.000182235
-0.000134646
0.000211677
-0.000136139
0.000239893
-0.00013147
0.000264883
-0.000120343
0.000285043
-0.000104161
0.000299612
-8.51229e-05
0.000308729
-6.54381e-05
0.000313022
-4.66933e-05
0.000313407
-2.97602e-05
0.000310747
-1.4936e-05
0.000305868
-2.37117e-06
0.000299375
8.00131e-06
0.00029181
1.64097e-05
0.00028359
2.30109e-05
0.000275028
2.80106e-05
0.000266385
3.16106e-05
0.000257837
3.40381e-05
0.0002495
3.54842e-05
0.000241501
3.60634e-05
0.000233821
3.60338e-05
0.000226534
3.54666e-05
0.000219688
3.4469e-05
0.000213254
3.3163e-05
0.000207269
3.15706e-05
0.000201708
2.98285e-05
0.000196574
2.79506e-05
0.000191879
2.60006e-05
0.000187622
2.40037e-05
0.000183745
2.20093e-05
0.000180337
1.99912e-05
0.000177322
1.80406e-05
0.000174735
1.60808e-05
0.000172566
1.42125e-05
0.000170799
1.23471e-05
0.000169453
1.05049e-05
0.000168471
8.71815e-06
0.000167861
6.94012e-06
0.000167602
5.18234e-06
0.00016768
3.44439e-06
0.000168058
1.73507e-06
0.000168714
3.7642e-08
0.000169621
-1.64013e-06
0.000170761
-3.30262e-06
0.000172112
-4.94231e-06
0.000173648
-6.54736e-06
0.000175361
-8.12087e-06
0.000177239
-9.65107e-06
0.000179267
-1.11271e-05
0.000181441
-1.25495e-05
0.000183756
-1.39098e-05
0.000186201
-1.51989e-05
0.000188772
-1.64168e-05
0.000191462
-1.75608e-05
0.000194267
-1.86276e-05
0.000197176
-1.96121e-05
0.000200179
-2.05174e-05
0.000203271
-2.13424e-05
0.000206444
-2.20852e-05
0.000209685
-2.27444e-05
0.000212985
-2.33227e-05
0.000216335
-2.38217e-05
0.000219726
-2.42366e-05
0.000223144
-2.45703e-05
0.00022658
-2.48264e-05
0.000230024
-2.50056e-05
0.000233464
-2.51056e-05
0.000236891
-2.51316e-05
0.000240296
-2.50907e-05
0.000243666
-2.49655e-05
0.000246993
-2.47757e-05
0.000250273
-2.4523e-05
0.000253493
-2.41937e-05
0.000256648
-2.38055e-05
0.000259732
-2.33566e-05
0.000262745
-2.28454e-05
0.000265684
-2.22785e-05
0.000268548
-2.16557e-05
0.000271338
-2.09794e-05
0.000274058
-2.02505e-05
0.00027671
-1.94728e-05
0.000279305
-1.86456e-05
0.000281853
-1.7773e-05
0.000284367
-1.68587e-05
0.000286861
-1.58986e-05
0.000289343
-1.48934e-05
0.000291833
-1.38487e-05
0.000294346
-1.27668e-05
0.000296898
-1.16505e-05
0.000299499
-1.04999e-05
0.000302157
-9.32639e-06
0.000304866
-8.13196e-06
0.000307618
-6.92895e-06
0.000310382
-5.72099e-06
0.000313122
-4.51995e-06
0.000315776
-3.32634e-06
0.000318281
-2.13722e-06
0.000320556
-9.40264e-07
0.000322493
3.07546e-07
0.000324075
1.54958e-06
0.000325212
2.88018e-06
0.000325839
4.31963e-06
0.000325909
5.89415e-06
0.000325389
7.63126e-06
0.000324262
9.55279e-06
0.000322526
1.16711e-05
0.000320186
1.39934e-05
0.000317254
1.65138e-05
0.000313733
1.9222e-05
0.000309635
2.20929e-05
0.000304961
2.5106e-05
0.000299706
2.82342e-05
0.000293877
3.14423e-05
0.000287467
3.47105e-05
0.000280473
3.80107e-05
0.0002729
4.13157e-05
0.000264746
4.46105e-05
0.000256016
4.78781e-05
0.000246726
5.10961e-05
0.000236891
5.42604e-05
0.000226534
5.73601e-05
0.000215685
6.03908e-05
0.000204379
6.33513e-05
0.000192664
6.62434e-05
0.000180598
6.90739e-05
0.000168249
7.18519e-05
0.000155697
7.45893e-05
0.00014303
7.72998e-05
0.000130348
7.99958e-05
0.000117752
8.269e-05
0.000105344
8.53894e-05
9.32209e-05
8.80896e-05
8.14693e-05
9.07587e-05
7.01624e-05
9.33462e-05
5.93604e-05
9.58879e-05
4.90802e-05
9.867e-05
3.92944e-05
0.000101996
3.00665e-05
0.000104676
2.19104e-05
0.000101902
1.58847e-05
8.85943e-05
1.13986e-05
7.62729e-05
0.000122285
-2.05868e-05
4.98396e-05
-2.34839e-05
-0.000130608
-1.04239e-05
-0.000207649