/*--------------------------------*- C++ -*----------------------------------*\
| =========                 |                                                 |
| \\      /  F ield         | OpenFOAM: The Open Source CFD Toolbox           |
|  \\    /   O peration     | Version:  v2006                                 |
|   \\  /    A nd           | Website:  www.openfoam.com                      |
|    \\/     M anipulation  |                                                 |
\*---------------------------------------------------------------------------*/
FoamFile
{
    version     2.0;
    format      ascii;
    class       volVectorField;
    location    "18.1";
    object      U;
}
// * * * * * * * * * * * * * * * * * * * * * * * * * * * * * * * * * * * * * //

dimensions      [0 1 -1 0 0 0 0];


internalField   nonuniform List<vector> 
150000
(
(0.000294385 -0.00282426 0)
(0.00763726 -0.00468762 0)
(0.0158061 -0.00507618 0)
(0.023445 -0.00493977 0)
(0.0312669 -0.00503198 0)
(0.0389687 -0.00515345 0)
(0.0465992 -0.00525083 0)
(0.0538486 -0.00526643 0)
(0.0606014 -0.00518436 0)
(0.0667676 -0.00503 0)
(0.072333 -0.00480042 0)
(0.0773367 -0.00452626 0)
(0.0818554 -0.00422307 0)
(0.0859811 -0.00392183 0)
(0.0898187 -0.00363922 0)
(0.0934717 -0.00339487 0)
(0.0970117 -0.00319817 0)
(0.100493 -0.00304473 0)
(0.103936 -0.00293101 0)
(0.107329 -0.00283939 0)
(0.11066 -0.00274926 0)
(0.113906 -0.00264804 0)
(0.117026 -0.00252679 0)
(0.120003 -0.00237446 0)
(0.122813 -0.0022014 0)
(0.125452 -0.00200915 0)
(0.127939 -0.00181789 0)
(0.130296 -0.00165102 0)
(0.132542 -0.00153239 0)
(0.134701 -0.00147855 0)
(0.136787 -0.00149812 0)
(0.138793 -0.00158736 0)
(0.140685 -0.00171933 0)
(0.1424 -0.00183933 0)
(0.143877 -0.00189249 0)
(0.145049 -0.00183263 0)
(0.145852 -0.00163507 0)
(0.146262 -0.0013092 0)
(0.146272 -0.000917873 0)
(0.145919 -0.000514263 0)
(0.145255 -0.000143377 0)
(0.144346 0.00015926 0)
(0.14326 0.000373584 0)
(0.142053 0.000499464 0)
(0.140761 0.000558832 0)
(0.139404 0.000578409 0)
(0.137984 0.00058946 0)
(0.136485 0.000612316 0)
(0.134888 0.000664079 0)
(0.133179 0.000747263 0)
(0.131355 0.000857192 0)
(0.129398 0.000980581 0)
(0.127313 0.00111419 0)
(0.125123 0.00124369 0)
(0.122842 0.00136117 0)
(0.120485 0.00146122 0)
(0.118061 0.00154461 0)
(0.11558 0.00161401 0)
(0.113052 0.00166808 0)
(0.110474 0.00170904 0)
(0.107842 0.00173948 0)
(0.105147 0.00175983 0)
(0.102375 0.00177371 0)
(0.0995222 0.00178399 0)
(0.0965853 0.0017913 0)
(0.0935588 0.00179606 0)
(0.0904436 0.0018021 0)
(0.0872497 0.0018087 0)
(0.083989 0.00181331 0)
(0.0806736 0.00181123 0)
(0.0773226 0.00180104 0)
(0.0739631 0.00177789 0)
(0.0706149 0.00173824 0)
(0.0673013 0.00168634 0)
(0.0640423 0.00162277 0)
(0.0608508 0.00155621 0)
(0.0577388 0.00149185 0)
(0.0547111 0.00143406 0)
(0.0517627 0.00138368 0)
(0.0488902 0.00134523 0)
(0.0460988 0.00131671 0)
(0.0433876 0.00129358 0)
(0.0407555 0.00127326 0)
(0.0382027 0.00125311 0)
(0.0357297 0.00123244 0)
(0.0333415 0.0012115 0)
(0.0310381 0.00118847 0)
(0.0288218 0.00116711 0)
(0.0267032 0.00114679 0)
(0.024677 0.00112456 0)
(0.0227482 0.0011075 0)
(0.0209294 0.00109151 0)
(0.0192223 0.00107694 0)
(0.0176342 0.00106365 0)
(0.0161735 0.00105148 0)
(0.0148584 0.00104022 0)
(0.0136885 0.0010208 0)
(0.0126814 0.00100172 0)
(0.0118696 0.000970425 0)
(0.0112686 0.000922319 0)
(0.0108996 0.000852961 0)
(0.0107749 0.00076497 0)
(0.0109066 0.000669207 0)
(0.0112856 0.000565325 0)
(0.0118712 0.000459903 0)
(0.0126097 0.000364262 0)
(0.0134338 0.000283265 0)
(0.0142631 0.000214872 0)
(0.0150244 0.000152519 0)
(0.0156639 8.26089e-05 0)
(0.0161467 -8.33389e-06 0)
(0.0164786 -0.000124183 0)
(0.0166939 -0.000262933 0)
(0.0168454 -0.000422528 0)
(0.0170117 -0.000591435 0)
(0.0172701 -0.000777439 0)
(0.0176902 -0.000977855 0)
(0.0183217 -0.00116325 0)
(0.019229 -0.0013213 0)
(0.0204501 -0.00144483 0)
(0.0220108 -0.00153269 0)
(0.0239267 -0.00158803 0)
(0.0262177 -0.0016151 0)
(0.0288863 -0.00163149 0)
(0.0319681 -0.00163741 0)
(0.0354768 -0.00166898 0)
(0.0394056 -0.0017255 0)
(0.0437184 -0.00180257 0)
(0.0483335 -0.00186 0)
(0.0530919 -0.00185626 0)
(0.0577621 -0.00172415 0)
(0.0621577 -0.0013891 0)
(0.0661333 -0.000872343 0)
(0.0696849 -0.000273081 0)
(0.0731378 0.00014785 0)
(0.0773504 2.7997e-05 0)
(0.0835685 -0.000875611 0)
(0.0931584 -0.00253548 0)
(0.106995 -0.0045294 0)
(0.125028 -0.0061163 0)
(0.14555 -0.0058716 0)
(0.16496 -0.00133177 0)
(0.178776 0.00990458 0)
(0.176669 0.022638 0)
(0.162305 0.0274107 0)
(0.14842 0.0220419 0)
(0.141208 0.0108845 0)
(0.139938 -0.000807667 0)
(0.142808 -0.0101182 0)
(0.148225 -0.0161586 0)
(0.155043 -0.0186931 0)
(0.162878 -0.0183477 0)
(0.171548 -0.0164518 0)
(0.181105 -0.014015 0)
(0.191709 -0.0117885 0)
(0.203343 -0.0100598 0)
(0.215876 -0.00877016 0)
(0.22909 -0.00773501 0)
(0.242683 -0.00677099 0)
(0.256286 -0.00574761 0)
(0.2695 -0.00460784 0)
(0.281973 -0.0033773 0)
(0.29345 -0.00219509 0)
(0.3038 -0.00126057 0)
(0.313081 -0.000734364 0)
(0.321546 -0.00068958 0)
(0.329555 -0.00108916 0)
(0.337478 -0.00180113 0)
(0.345619 -0.00265047 0)
(0.354176 -0.00347661 0)
(0.363242 -0.00416798 0)
(0.372828 -0.00466549 0)
(0.382894 -0.00495122 0)
(0.393371 -0.00504407 0)
(0.404168 -0.00498394 0)
(0.415185 -0.00481383 0)
(0.426316 -0.00457361 0)
(0.437466 -0.00429986 0)
(0.448554 -0.00402717 0)
(0.459518 -0.00378767 0)
(0.470318 -0.00360764 0)
(0.48094 -0.00350546 0)
(0.491393 -0.00349034 0)
(0.501703 -0.00356168 0)
(0.511904 -0.00370986 0)
(0.522036 -0.00391833 0)
(0.532136 -0.00416653 0)
(0.542238 -0.00443289 0)
(0.552369 -0.00469739 0)
(0.562547 -0.00494368 0)
(0.572787 -0.00516023 0)
(0.583097 -0.00534013 0)
(0.593481 -0.00548042 0)
(0.603939 -0.00558118 0)
(0.614472 -0.00564466 0)
(0.625077 -0.00567431 0)
(0.635752 -0.00567414 0)
(0.646498 -0.00564827 0)
(0.657314 -0.00560071 0)
(0.6682 -0.00553532 0)
(0.67916 -0.00545596 0)
(0.690195 -0.00536653 0)
(0.701306 -0.00527102 0)
(0.712495 -0.00517349 0)
(0.723758 -0.0050779 0)
(0.735087 -0.00498796 0)
(0.74647 -0.00490695 0)
(0.757889 -0.00483768 0)
(0.769319 -0.00478254 0)
(0.780732 -0.00474349 0)
(0.792099 -0.00472203 0)
(0.803391 -0.00471875 0)
(0.814591 -0.0047327 0)
(0.82569 -0.00476105 0)
(0.836702 -0.00479962 0)
(0.847655 -0.00484403 0)
(0.858599 -0.00489126 0)
(0.869592 -0.00494071 0)
(0.880695 -0.00499399 0)
(0.891952 -0.00505294 0)
(0.903382 -0.00511678 0)
(0.914966 -0.00517991 0)
(0.926646 -0.00523175 0)
(0.938329 -0.00525894 0)
(0.949908 -0.0052492 0)
(0.96128 -0.00519547 0)
(0.972368 -0.00509888 0)
(0.983134 -0.00496911 0)
(0.993579 -0.00482143 0)
(1.00373 -0.0046703 0)
(1.01363 -0.004522 0)
(1.02329 -0.00437031 0)
(1.03274 -0.00420023 0)
(1.04202 -0.00399999 0)
(1.05122 -0.00377488 0)
(1.06048 -0.00355175 0)
(1.06995 -0.00336932 0)
(1.07975 -0.00326431 0)
(1.08982 -0.00327043 0)
(1.09999 -0.00343762 0)
(1.11006 -0.00384377 0)
(1.11996 -0.00454053 0)
(1.12987 -0.00545062 0)
(1.14024 -0.00622978 0)
(1.15129 -0.00612147 0)
(1.16246 -0.00408817 0)
(1.172 0.000447861 0)
(1.17764 0.00652189 0)
(1.17825 0.0113993 0)
(1.17601 0.0130274 0)
(1.1733 0.0122303 0)
(1.17052 0.0109665 0)
(1.16698 0.0103991 0)
(1.1619 0.010655 0)
(1.15492 0.0114051 0)
(1.14611 0.012317 0)
(1.13577 0.0131696 0)
(1.12429 0.0138031 0)
(1.11219 0.0140944 0)
(1.10004 0.0138561 0)
(1.0885 0.0128737 0)
(1.07829 0.0110524 0)
(1.07009 0.00848958 0)
(1.06444 0.00540628 0)
(1.06164 0.00221595 0)
(1.06128 -0.000534019 0)
(1.06283 -0.00265423 0)
(1.06598 -0.00440396 0)
(1.07033 -0.00593977 0)
(1.07553 -0.0073037 0)
(1.08137 -0.00852684 0)
(1.08767 -0.00965049 0)
(1.09428 -0.0106968 0)
(1.1011 -0.0116495 0)
(1.10802 -0.0124505 0)
(1.11497 -0.0130066 0)
(1.12186 -0.0132042 0)
(1.12858 -0.0129401 0)
(1.13501 -0.0121858 0)
(1.14109 -0.0109634 0)
(1.14676 -0.00935578 0)
(1.15208 -0.00753012 0)
(1.15715 -0.00569587 0)
(1.16212 -0.00405 0)
(1.16715 -0.0027278 0)
(1.17232 -0.00177939 0)
(1.17766 -0.00117947 0)
(1.18313 -0.000858418 0)
(1.18865 -0.0007351 0)
(1.19417 -0.000738081 0)
(1.19963 -0.000813346 0)
(1.20501 -0.000923493 0)
(1.21031 -0.00104403 0)
(1.21554 -0.00115996 0)
(1.22072 -0.00126342 0)
(1.22585 -0.00135195 0)
(1.23095 -0.00142677 0)
(1.23602 -0.00149115 0)
(1.24106 -0.00154887 0)
(1.24606 -0.00160321 0)
(1.25103 -0.00165639 0)
(1.25595 -0.00170959 0)
(1.26084 -0.00176307 0)
(1.26568 -0.00181654 0)
(1.27047 -0.00186942 0)
(1.27521 -0.00192104 0)
(1.27989 -0.0019708 0)
(1.28451 -0.00201818 0)
(1.28907 -0.00206282 0)
(1.29355 -0.00210448 0)
(1.29796 -0.00214299 0)
(1.30229 -0.00217826 0)
(1.30654 -0.00221018 0)
(1.3107 -0.00223857 0)
(1.31477 -0.0022632 0)
(1.31876 -0.00228374 0)
(1.32265 -0.00229975 0)
(1.32645 -0.00231077 0)
(1.33016 -0.00231625 0)
(1.33377 -0.00231565 0)
(1.33727 -0.00230843 0)
(1.34067 -0.002294 0)
(1.34396 -0.00227176 0)
(1.34714 -0.00224102 0)
(1.35019 -0.002201 0)
(1.35311 -0.00215067 0)
(1.35589 -0.00208872 0)
(1.35851 -0.00201295 0)
(1.36097 -0.0019194 0)
(1.36324 -0.00180272 0)
(1.36527 -0.00165138 0)
(1.36702 -0.00137273 0)
(1.36837 -0.000655963 0)
(1.36863 0.000656238 0)
(1.36741 0.00208279 0)
(1.36511 0.00309525 0)
(1.36224 0.00356785 0)
(1.35918 0.00368808 0)
(1.35604 0.00370358 0)
(1.35274 0.00375661 0)
(1.3492 0.00387319 0)
(1.34536 0.00401843 0)
(1.34121 0.00415459 0)
(1.33677 0.00426662 0)
(1.33205 0.0043575 0)
(1.32707 0.00443512 0)
(1.32184 0.00450461 0)
(1.31635 0.00456723 0)
(1.31062 0.00462248 0)
(1.30464 0.00466997 0)
(1.29842 0.00471009 0)
(1.29198 0.00474388 0)
(1.28531 0.00477261 0)
(1.27841 0.00479753 0)
(1.27129 0.00481979 0)
(1.26397 0.00484033 0)
(1.25643 0.00485982 0)
(1.24868 0.0048785 0)
(1.24074 0.00489614 0)
(1.23261 0.00491193 0)
(1.22429 0.0049245 0)
(1.21579 0.00493198 0)
(1.20714 0.00493219 0)
(1.19833 0.00492292 0)
(1.1894 0.00490234 0)
(1.18034 0.0048695 0)
(1.17119 0.0048248 0)
(1.16194 0.00477052 0)
(1.1526 0.00471103 0)
(1.14318 0.00465273 0)
(1.13366 0.00460341 0)
(1.12402 0.00457112 0)
(1.11426 0.00456223 0)
(1.10435 0.00457942 0)
(1.09428 0.00462039 0)
(1.08404 0.00467833 0)
(1.07364 0.00474449 0)
(1.0631 0.00481224 0)
(1.05243 0.00488099 0)
(1.04162 0.00495826 0)
(1.03067 0.00505801 0)
(1.01952 0.00519476 0)
(1.00813 0.00537553 0)
(0.996452 0.00559345 0)
(0.984442 0.00582683 0)
(0.972094 0.00604476 0)
(0.959425 0.00621723 0)
(0.946468 0.00632524 0)
(0.933252 0.00636595 0)
(0.9198 0.00634902 0)
(0.906137 0.00628643 0)
(0.892301 0.00617681 0)
(0.878371 0.00599097 0)
(0.864487 0.00567434 0)
(0.850856 0.0051657 0)
(0.837737 0.00443102 0)
(0.825385 0.00350435 0)
(0.813971 0.00251497 0)
(0.803508 0.00167347 0)
(0.793815 0.00120409 0)
(0.78456 0.00124537 0)
(0.775377 0.00177212 0)
(0.766013 0.00258749 0)
(0.75643 0.00339367 0)
(0.746809 0.00390395 0)
(0.737469 0.00394119 0)
(0.728744 0.00348259 0)
(0.720869 0.00264473 0)
(0.713929 0.00163091 0)
(0.707869 0.000668448 0)
(0.702531 -4.49156e-05 0)
(0.697702 -0.000377612 0)
(0.693144 -0.000282924 0)
(0.688618 0.000198181 0)
(0.68391 0.000949184 0)
(0.678865 0.00180759 0)
(0.673422 0.0026064 0)
(0.667622 0.00320662 0)
(0.661577 0.00352042 0)
(0.655426 0.00353362 0)
(0.649285 0.00330879 0)
(0.643223 0.00295622 0)
(0.637261 0.00258664 0)
(0.631385 0.00227302 0)
(0.625575 0.00204004 0)
(0.619809 0.00187955 0)
(0.614072 0.00177557 0)
(0.608342 0.00172089 0)
(0.602589 0.00171821 0)
(0.596776 0.00177134 0)
(0.590866 0.00187634 0)
(0.584827 0.00201937 0)
(0.578635 0.00218114 0)
(0.572273 0.00234376 0)
(0.565731 0.00249548 0)
(0.559003 0.00263169 0)
(0.552084 0.00275277 0)
(0.544971 0.00286088 0)
(0.537665 0.00295714 0)
(0.530168 0.00304018 0)
(0.52249 0.00310626 0)
(0.514645 0.00315098 0)
(0.50665 0.00317237 0)
(0.498521 0.00317357 0)
(0.490265 0.00316203 0)
(0.481878 0.00314347 0)
(0.47335 0.00311342 0)
(0.464674 0.00305368 0)
(0.455865 0.00293935 0)
(0.446964 0.00275362 0)
(0.43803 0.00249984 0)
(0.429124 0.00220188 0)
(0.420294 0.00189345 0)
(0.411564 0.00160502 0)
(0.402937 0.0013564 0)
(0.394402 0.00115697 0)
(0.385931 0.00101041 0)
(0.377484 0.000919784 0)
(0.369009 0.000889997 0)
(0.360444 0.000926655 0)
(0.351725 0.00103269 0)
(0.342799 0.0012054 0)
(0.333638 0.00143578 0)
(0.324246 0.00171087 0)
(0.314665 0.00201866 0)
(0.304958 0.00234833 0)
(0.29521 0.00269324 0)
(0.285487 0.00311248 0)
(0.275691 0.00378023 0)
(0.265498 0.00485456 0)
(0.25456 0.00622427 0)
(0.242804 0.00747298 0)
(0.230491 0.00822687 0)
(0.218005 0.00841571 0)
(0.205598 0.0082189 0)
(0.193321 0.00786631 0)
(0.181098 0.00750441 0)
(0.168831 0.00718412 0)
(0.156459 0.00690224 0)
(0.143962 0.00663497 0)
(0.131353 0.00635445 0)
(0.118679 0.00603328 0)
(0.106019 0.0056467 0)
(0.0934867 0.00517664 0)
(0.0812122 0.00461405 0)
(0.0693354 0.0039581 0)
(0.0579942 0.00321417 0)
(0.0473253 0.00239209 0)
(0.0374678 0.00150173 0)
(0.0285597 0.000570187 0)
(0.0207668 -0.000385151 0)
(0.0142736 -0.00137396 0)
(0.00928078 -0.00240224 0)
(0.00607601 -0.00342866 0)
(0.00473641 -0.00412984 0)
(0.0048065 -0.00419465 0)
(0.00551039 -0.00380073 0)
(0.0061807 -0.00293265 0)
(0.00492754 -0.00190571 0)
(0.00227668 -0.00111708 0)
(-0.00203153 -0.00378033 0)
(0.00217029 -0.00822473 0)
(0.0050709 -0.0083 0)
(0.0072867 -0.00798828 0)
(0.00910021 -0.00802033 0)
(0.0102651 -0.0077682 0)
(0.0106846 -0.00723947 0)
(0.0101742 -0.00648497 0)
(0.00886418 -0.00562478 0)
(0.00693658 -0.00476829 0)
(0.0046631 -0.0039963 0)
(0.0023136 -0.0033757 0)
(0.000138173 -0.00293772 0)
(-0.00170128 -0.00268145 0)
(-0.00311406 -0.00257138 0)
(-0.00409058 -0.00257002 0)
(-0.0046722 -0.00262565 0)
(-0.00492982 -0.00269334 0)
(-0.00494539 -0.00274413 0)
(-0.00478504 -0.00275104 0)
(-0.00449369 -0.00271017 0)
(-0.00409585 -0.00263344 0)
(-0.0035959 -0.00253342 0)
(-0.00298687 -0.00242854 0)
(-0.00227089 -0.00233958 0)
(-0.00145326 -0.00226719 0)
(-0.000572293 -0.00222117 0)
(0.000307753 -0.00218768 0)
(0.00109358 -0.0021433 0)
(0.00168239 -0.00205277 0)
(0.00197016 -0.00188458 0)
(0.00188242 -0.00161984 0)
(0.00141138 -0.00125159 0)
(0.000610483 -0.000796446 0)
(-0.000385249 -0.000299727 0)
(-0.00139203 0.000177709 0)
(-0.00222746 0.000598063 0)
(-0.00276789 0.000922635 0)
(-0.00296472 0.00114228 0)
(-0.00286221 0.00127647 0)
(-0.00256688 0.00136 0)
(-0.00221566 0.00141911 0)
(-0.00193631 0.00147141 0)
(-0.00182644 0.00153071 0)
(-0.00194298 0.00161701 0)
(-0.00229627 0.00171338 0)
(-0.00286224 0.00183201 0)
(-0.0036018 0.00194943 0)
(-0.00446052 0.00206832 0)
(-0.00539588 0.00217756 0)
(-0.00637522 0.0022696 0)
(-0.00739173 0.00234876 0)
(-0.00843138 0.00240888 0)
(-0.00949959 0.00245342 0)
(-0.0106093 0.00248258 0)
(-0.0117769 0.00250156 0)
(-0.0130194 0.00252095 0)
(-0.0143529 0.00254942 0)
(-0.0157925 0.00258743 0)
(-0.0173494 0.00264405 0)
(-0.019034 0.00272368 0)
(-0.0208522 0.00282276 0)
(-0.0228027 0.00294271 0)
(-0.0248797 0.00307873 0)
(-0.027074 0.00322136 0)
(-0.0293742 0.00336178 0)
(-0.0317641 0.00349448 0)
(-0.0342275 0.00361182 0)
(-0.0367492 0.00370779 0)
(-0.0393166 0.00377824 0)
(-0.0419161 0.00382504 0)
(-0.0445349 0.00384589 0)
(-0.0471606 0.00384169 0)
(-0.0497779 0.00381995 0)
(-0.0523699 0.0037764 0)
(-0.0549145 0.00371857 0)
(-0.0573918 0.00364775 0)
(-0.0597846 0.00356429 0)
(-0.0620823 0.00346849 0)
(-0.0642782 0.00336716 0)
(-0.0663713 0.00326158 0)
(-0.0683687 0.00315141 0)
(-0.0702822 0.0030382 0)
(-0.0721256 0.00292247 0)
(-0.0739115 0.00280531 0)
(-0.0756495 0.00268657 0)
(-0.0773473 0.00256251 0)
(-0.0790083 0.00243502 0)
(-0.0806321 0.00230064 0)
(-0.0822207 0.00215408 0)
(-0.083771 0.00200185 0)
(-0.0852785 0.00183794 0)
(-0.0867388 0.0016614 0)
(-0.0881446 0.00147074 0)
(-0.0894845 0.00126408 0)
(-0.090742 0.00103911 0)
(-0.0919029 0.000784979 0)
(-0.0929461 0.000513936 0)
(-0.09385 0.000216892 0)
(-0.0946008 -0.000100681 0)
(-0.0951889 -0.00042999 0)
(-0.0956111 -0.000755005 0)
(-0.0958851 -0.00105513 0)
(-0.0960433 -0.00131227 0)
(-0.096113 -0.00149846 0)
(-0.0961276 -0.00159057 0)
(-0.0961276 -0.00157505 0)
(-0.0961553 -0.00144905 0)
(-0.096245 -0.00122292 0)
(-0.0964185 -0.000920466 0)
(-0.0966823 -0.00057651 0)
(-0.0970128 -0.000237781 0)
(-0.0973707 3.9531e-05 0)
(-0.0976928 0.000227481 0)
(-0.0978962 0.000299375 0)
(-0.0978875 0.00025275 0)
(-0.0975567 9.41518e-05 0)
(-0.0968179 -0.000164339 0)
(-0.0956043 -0.00051745 0)
(-0.0938777 -0.00095736 0)
(-0.091629 -0.00146785 0)
(-0.0888646 -0.00203558 0)
(-0.0856097 -0.00264936 0)
(-0.0819095 -0.00330728 0)
(-0.077829 -0.00398767 0)
(-0.0734666 -0.00466958 0)
(-0.0689652 -0.00529544 0)
(-0.0645208 -0.00579282 0)
(-0.060373 -0.00608692 0)
(-0.0567739 -0.006139 0)
(-0.0539209 -0.00596087 0)
(-0.0518706 -0.00564494 0)
(-0.0504732 -0.00537935 0)
(-0.0493381 -0.0054424 0)
(-0.0478356 -0.00626667 0)
(-0.045183 -0.00831768 0)
(-0.0406166 -0.0118269 0)
(-0.0335424 -0.0166547 0)
(-0.0236604 -0.0220387 0)
(-0.0107199 -0.0265806 0)
(0.00534639 -0.0284711 0)
(0.0243526 -0.0262015 0)
(0.0454743 -0.0193434 0)
(0.0721573 -0.0102445 0)
(0.0941077 -0.00492996 0)
(0.107938 -0.00386247 0)
(0.113831 -0.00308342 0)
(0.111851 -0.00019509 0)
(0.102985 0.0037242 0)
(0.0907021 0.00656316 0)
(0.0790975 0.00700081 0)
(0.0710935 0.00475409 0)
(0.0681879 0.000891623 0)
(0.0700154 -0.00340013 0)
(0.075349 -0.0073782 0)
(0.0831387 -0.010692 0)
(0.0925452 -0.0132542 0)
(0.102988 -0.0151023 0)
(0.114118 -0.0163006 0)
(0.125732 -0.0169061 0)
(0.137686 -0.0169776 0)
(0.14983 -0.0165929 0)
(0.162002 -0.0158585 0)
(0.174054 -0.0148852 0)
(0.18585 -0.0138081 0)
(0.19726 -0.0127795 0)
(0.208208 -0.0119303 0)
(0.218707 -0.0113449 0)
(0.228857 -0.0110559 0)
(0.238828 -0.0110511 0)
(0.248808 -0.0112863 0)
(0.258966 -0.0116977 0)
(0.269412 -0.0122107 0)
(0.280204 -0.0127547 0)
(0.291355 -0.0132695 0)
(0.302848 -0.0137082 0)
(0.314641 -0.0140394 0)
(0.326672 -0.0142483 0)
(0.338873 -0.0143345 0)
(0.351169 -0.0143082 0)
(0.363488 -0.0141861 0)
(0.375755 -0.0139888 0)
(0.387908 -0.0137393 0)
(0.39989 -0.0134604 0)
(0.41166 -0.0131729 0)
(0.423193 -0.0128942 0)
(0.434481 -0.0126385 0)
(0.445532 -0.0124159 0)
(0.456368 -0.0122334 0)
(0.467024 -0.0120948 0)
(0.477544 -0.0120015 0)
(0.487976 -0.0119523 0)
(0.498372 -0.0119446 0)
(0.508783 -0.0119747 0)
(0.519255 -0.0120385 0)
(0.529831 -0.0121322 0)
(0.540544 -0.0122525 0)
(0.551417 -0.0123969 0)
(0.562463 -0.0125632 0)
(0.573682 -0.0127491 0)
(0.585064 -0.0129517 0)
(0.596583 -0.0131666 0)
(0.608203 -0.0133877 0)
(0.61988 -0.013607 0)
(0.63156 -0.0138145 0)
(0.643187 -0.0139984 0)
(0.654704 -0.0141463 0)
(0.666058 -0.0142458 0)
(0.677207 -0.0142862 0)
(0.688121 -0.0142612 0)
(0.698794 -0.0141709 0)
(0.709243 -0.0140249 0)
(0.719516 -0.0138432 0)
(0.729687 -0.0136555 0)
(0.73985 -0.0134974 0)
(0.750107 -0.0134035 0)
(0.760548 -0.0133991 0)
(0.771237 -0.0134918 0)
(0.782199 -0.0136665 0)
(0.793413 -0.0138856 0)
(0.804816 -0.0140954 0)
(0.816318 -0.0142374 0)
(0.827817 -0.0142631 0)
(0.839222 -0.0141461 0)
(0.850472 -0.0138909 0)
(0.861545 -0.0135316 0)
(0.872463 -0.0131224 0)
(0.883266 -0.0127193 0)
(0.893986 -0.0123617 0)
(0.904596 -0.012062 0)
(0.914982 -0.0118126 0)
(0.924944 -0.0116101 0)
(0.934234 -0.0114824 0)
(0.942643 -0.0114972 0)
(0.950065 -0.0117331 0)
(0.956516 -0.0122178 0)
(0.962075 -0.0128646 0)
(0.966787 -0.0134564 0)
(0.970609 -0.0137129 0)
(0.97349 -0.0134343 0)
(0.975576 -0.0126625 0)
(0.977417 -0.0117505 0)
(0.980023 -0.0112386 0)
(0.984726 -0.0115243 0)
(0.992887 -0.0124892 0)
(1.00557 -0.0134001 0)
(1.02325 -0.0133721 0)
(1.04549 -0.0121619 0)
(1.07048 -0.0105288 0)
(1.09436 -0.00923218 0)
(1.11472 -0.00796344 0)
(1.13185 -0.00619393 0)
(1.1471 -0.00390478 0)
(1.16161 -0.00144201 0)
(1.17591 0.000839976 0)
(1.19007 0.00274707 0)
(1.20396 0.00423304 0)
(1.21739 0.00531265 0)
(1.23016 0.00600142 0)
(1.2421 0.00624732 0)
(1.25303 0.00595914 0)
(1.26275 0.00516491 0)
(1.27105 0.00393498 0)
(1.27773 0.00243273 0)
(1.28269 0.000919845 0)
(1.28633 -0.000300306 0)
(1.28916 -0.00111153 0)
(1.29131 -0.00162851 0)
(1.29289 -0.00190163 0)
(1.29386 -0.00191996 0)
(1.29413 -0.00169044 0)
(1.29354 -0.00124667 0)
(1.29194 -0.000633498 0)
(1.28917 9.00545e-05 0)
(1.28512 0.000841202 0)
(1.27982 0.00151236 0)
(1.27347 0.00198159 0)
(1.26651 0.00213625 0)
(1.25956 0.00193825 0)
(1.25334 0.00135716 0)
(1.24853 0.000372493 0)
(1.24572 -0.000962788 0)
(1.2453 -0.00253057 0)
(1.2473 -0.00416065 0)
(1.25143 -0.00566556 0)
(1.25723 -0.00689121 0)
(1.26414 -0.00775324 0)
(1.27166 -0.00824537 0)
(1.27938 -0.00842339 0)
(1.28703 -0.00837631 0)
(1.29445 -0.00819727 0)
(1.30156 -0.00796318 0)
(1.30837 -0.00772578 0)
(1.31489 -0.00751221 0)
(1.32116 -0.00733091 0)
(1.32722 -0.00717905 0)
(1.33311 -0.00704888 0)
(1.33885 -0.00693184 0)
(1.34447 -0.00682073 0)
(1.34997 -0.00671032 0)
(1.35536 -0.00659721 0)
(1.36063 -0.00647944 0)
(1.36579 -0.00635599 0)
(1.37082 -0.00622643 0)
(1.37572 -0.00609068 0)
(1.3805 -0.00594887 0)
(1.38514 -0.00580122 0)
(1.38963 -0.00564809 0)
(1.39399 -0.00548994 0)
(1.39818 -0.00532739 0)
(1.40222 -0.00516118 0)
(1.40609 -0.00499215 0)
(1.40979 -0.00482122 0)
(1.4133 -0.00464929 0)
(1.41662 -0.00447718 0)
(1.41975 -0.00430557 0)
(1.42268 -0.00413491 0)
(1.42541 -0.00396544 0)
(1.42794 -0.00379715 0)
(1.43027 -0.0036298 0)
(1.43241 -0.00346295 0)
(1.43435 -0.00329598 0)
(1.4361 -0.0031281 0)
(1.43767 -0.00295838 0)
(1.43906 -0.00278569 0)
(1.44028 -0.00260862 0)
(1.44133 -0.00242527 0)
(1.44221 -0.00223279 0)
(1.44293 -0.00202637 0)
(1.44351 -0.00179931 0)
(1.44395 -0.00154626 0)
(1.44429 -0.0012428 0)
(1.44461 -0.000783125 0)
(1.44557 -0.000129892 0)
(1.44758 0.000495146 0)
(1.45027 0.00090968 0)
(1.45318 0.00113073 0)
(1.45598 0.00128228 0)
(1.45857 0.00146843 0)
(1.46096 0.00172424 0)
(1.4632 0.00204379 0)
(1.4653 0.00239854 0)
(1.46724 0.00276264 0)
(1.46899 0.00312459 0)
(1.47052 0.00348314 0)
(1.47179 0.0038403 0)
(1.47281 0.00419767 0)
(1.47354 0.00455558 0)
(1.47397 0.00491352 0)
(1.4741 0.00527082 0)
(1.47391 0.00562684 0)
(1.47339 0.00598101 0)
(1.47253 0.00633266 0)
(1.47133 0.00668105 0)
(1.46977 0.0070253 0)
(1.46786 0.00736446 0)
(1.4656 0.00769749 0)
(1.46299 0.00802329 0)
(1.46003 0.00834066 0)
(1.45673 0.00864839 0)
(1.45308 0.00894527 0)
(1.44909 0.00923016 0)
(1.44477 0.00950215 0)
(1.4401 0.00976069 0)
(1.4351 0.0100059 0)
(1.42976 0.0102388 0)
(1.42408 0.0104615 0)
(1.41806 0.0106772 0)
(1.4117 0.01089 0)
(1.405 0.0111043 0)
(1.39798 0.0113243 0)
(1.39064 0.0115525 0)
(1.383 0.0117884 0)
(1.37509 0.0120279 0)
(1.36691 0.0122632 0)
(1.35849 0.0124846 0)
(1.34984 0.0126839 0)
(1.34099 0.012858 0)
(1.33195 0.0130125 0)
(1.32277 0.0131618 0)
(1.31348 0.0133257 0)
(1.30411 0.013523 0)
(1.2947 0.0137644 0)
(1.28525 0.0140487 0)
(1.27577 0.0143647 0)
(1.26623 0.0146987 0)
(1.2566 0.0150428 0)
(1.24684 0.0154 0)
(1.23689 0.01578 0)
(1.22668 0.0161877 0)
(1.21612 0.0166107 0)
(1.20509 0.0170116 0)
(1.1935 0.0173309 0)
(1.18122 0.0175026 0)
(1.16818 0.017475 0)
(1.1543 0.0172285 0)
(1.13956 0.016786 0)
(1.12396 0.0162111 0)
(1.10762 0.0155894 0)
(1.09078 0.014997 0)
(1.07383 0.0144696 0)
(1.05723 0.0139878 0)
(1.04146 0.0134906 0)
(1.02689 0.0129124 0)
(1.01371 0.0122241 0)
(1.0019 0.0114587 0)
(0.991244 0.0106998 0)
(0.981358 0.0100382 0)
(0.971752 0.00952189 0)
(0.961956 0.00913194 0)
(0.951655 0.00880144 0)
(0.940788 0.00846118 0)
(0.929579 0.00808004 0)
(0.918463 0.00767544 0)
(0.907943 0.00729336 0)
(0.898435 0.0069791 0)
(0.890143 0.00676163 0)
(0.883019 0.00665286 0)
(0.876797 0.00665228 0)
(0.871082 0.00675068 0)
(0.865452 0.00692886 0)
(0.859542 0.0071546 0)
(0.85311 0.00738685 0)
(0.846055 0.00758863 0)
(0.838402 0.00774031 0)
(0.830254 0.00784426 0)
(0.82174 0.00791794 0)
(0.812974 0.00798106 0)
(0.804046 0.00804609 0)
(0.795024 0.00811694 0)
(0.785966 0.00819407 0)
(0.77692 0.00828 0)
(0.767923 0.00838079 0)
(0.758985 0.00850351 0)
(0.750094 0.00865275 0)
(0.74122 0.00882865 0)
(0.732325 0.00902743 0)
(0.723373 0.00924315 0)
(0.714333 0.00946942 0)
(0.705186 0.00970036 0)
(0.695912 0.00993098 0)
(0.686494 0.0101578 0)
(0.676914 0.0103798 0)
(0.667151 0.0106005 0)
(0.657182 0.0108286 0)
(0.646983 0.0110757 0)
(0.636514 0.011352 0)
(0.625715 0.0116579 0)
(0.614493 0.0119807 0)
(0.602733 0.0122964 0)
(0.590323 0.0125795 0)
(0.57718 0.0128128 0)
(0.563266 0.0129917 0)
(0.548595 0.0131225 0)
(0.533216 0.0132172 0)
(0.517205 0.0132917 0)
(0.500645 0.0133645 0)
(0.48362 0.0134549 0)
(0.466217 0.0135777 0)
(0.448532 0.013738 0)
(0.430684 0.0139268 0)
(0.412821 0.0141199 0)
(0.395128 0.014279 0)
(0.377816 0.0143583 0)
(0.361116 0.0143169 0)
(0.345264 0.0141299 0)
(0.330476 0.013799 0)
(0.31694 0.0133753 0)
(0.304899 0.0129695 0)
(0.294675 0.0127008 0)
(0.286489 0.0125972 0)
(0.280242 0.0125584 0)
(0.275535 0.0124885 0)
(0.271867 0.0124078 0)
(0.268778 0.0124198 0)
(0.265876 0.0126087 0)
(0.262845 0.012969 0)
(0.259434 0.0134319 0)
(0.255436 0.0139287 0)
(0.250683 0.014416 0)
(0.245049 0.0148635 0)
(0.238466 0.0152403 0)
(0.23091 0.015515 0)
(0.222394 0.0156629 0)
(0.212943 0.0156718 0)
(0.202585 0.0155406 0)
(0.191334 0.0152681 0)
(0.17919 0.0148463 0)
(0.16617 0.0142573 0)
(0.152301 0.0134488 0)
(0.137653 0.0123622 0)
(0.122379 0.0109583 0)
(0.106722 0.00924308 0)
(0.0909459 0.00726957 0)
(0.0751923 0.00523989 0)
(0.0600641 0.00360002 0)
(0.0461106 0.00274346 0)
(0.0334168 0.00336097 0)
(0.0204077 0.00534571 0)
(0.00764446 0.00730287 0)
(-0.00248501 -0.00301202 0)
(0.00131282 -0.0104493 0)
(0.00337623 -0.00933444 0)
(0.00351585 -0.00808719 0)
(0.00235234 -0.0073775 0)
(0.000256453 -0.0063461 0)
(-0.00262113 -0.00501123 0)
(-0.00613786 -0.00360187 0)
(-0.00988344 -0.00235922 0)
(-0.0134669 -0.00143063 0)
(-0.0165384 -0.000895033 0)
(-0.0188683 -0.000733198 0)
(-0.0203512 -0.000876925 0)
(-0.0210037 -0.00122645 0)
(-0.0209351 -0.00167746 0)
(-0.0202975 -0.0021376 0)
(-0.0192486 -0.00254528 0)
(-0.0179261 -0.00286868 0)
(-0.0164319 -0.00310315 0)
(-0.0148298 -0.00325932 0)
(-0.0131502 -0.00336005 0)
(-0.0114052 -0.00342288 0)
(-0.00960602 -0.00346172 0)
(-0.00777157 -0.00347973 0)
(-0.0059412 -0.00346442 0)
(-0.0041772 -0.003398 0)
(-0.00255538 -0.00325597 0)
(-0.00115834 -0.00301657 0)
(-5.60298e-05 -0.00267069 0)
(0.000720671 -0.00222211 0)
(0.00119051 -0.00170583 0)
(0.00143812 -0.00117778 0)
(0.00161224 -0.00071232 0)
(0.00188594 -0.000389905 0)
(0.00243713 -0.000235133 0)
(0.00340165 -0.000257539 0)
(0.00481136 -0.000395728 0)
(0.00660904 -0.000571539 0)
(0.00866267 -0.000683508 0)
(0.0107914 -0.000666253 0)
(0.0128154 -0.000500946 0)
(0.0145844 -0.00020578 0)
(0.0159992 0.000179405 0)
(0.0170253 0.000599964 0)
(0.0176495 0.00101437 0)
(0.0179168 0.00138862 0)
(0.0178837 0.00170816 0)
(0.0175993 0.00198374 0)
(0.0171279 0.00220524 0)
(0.0164999 0.00240073 0)
(0.0157479 0.00257701 0)
(0.0148632 0.00274491 0)
(0.0138455 0.00291605 0)
(0.0127007 0.00310019 0)
(0.0114127 0.00328652 0)
(0.00998037 0.00348365 0)
(0.00839851 0.00369678 0)
(0.0066665 0.00391613 0)
(0.00479714 0.00414396 0)
(0.00281024 0.00437733 0)
(0.000719906 0.00461421 0)
(-0.00145035 0.00484369 0)
(-0.00367425 0.00506425 0)
(-0.00593124 0.00526995 0)
(-0.00820218 0.0054548 0)
(-0.0104744 0.00561718 0)
(-0.0127406 0.00575472 0)
(-0.0149979 0.00586836 0)
(-0.0172471 0.0059564 0)
(-0.0194899 0.0060159 0)
(-0.0217271 0.00604637 0)
(-0.0239555 0.0060402 0)
(-0.0261665 0.00599406 0)
(-0.028355 0.00591638 0)
(-0.030509 0.00579148 0)
(-0.0326126 0.00563432 0)
(-0.0346592 0.00545274 0)
(-0.0366458 0.00525358 0)
(-0.0385764 0.00504897 0)
(-0.0404624 0.00485106 0)
(-0.0423201 0.00466868 0)
(-0.0441709 0.00450666 0)
(-0.0460371 0.00436653 0)
(-0.0479399 0.00424655 0)
(-0.0498969 0.00414325 0)
(-0.0519204 0.0040521 0)
(-0.0540178 0.0039677 0)
(-0.0561914 0.00388681 0)
(-0.058439 0.00380596 0)
(-0.0607556 0.00372206 0)
(-0.0631323 0.00363537 0)
(-0.0655574 0.00354277 0)
(-0.0680184 0.00344068 0)
(-0.0705008 0.00332395 0)
(-0.0729895 0.00318632 0)
(-0.0754688 0.00302083 0)
(-0.077925 0.00281957 0)
(-0.0803432 0.00258187 0)
(-0.0827086 0.00230473 0)
(-0.0850079 0.0019923 0)
(-0.0872264 0.00165317 0)
(-0.0893489 0.00130088 0)
(-0.0913556 0.000951085 0)
(-0.0932174 0.000631088 0)
(-0.0949077 0.000368826 0)
(-0.0964017 0.000184184 0)
(-0.0976679 8.81826e-05 0)
(-0.0986742 7.89625e-05 0)
(-0.0993822 0.000142544 0)
(-0.099753 0.00024218 0)
(-0.0997694 0.00032752 0)
(-0.099426 0.000331562 0)
(-0.0987048 0.000202457 0)
(-0.0976026 -8.53607e-05 0)
(-0.0961289 -0.000548867 0)
(-0.0942972 -0.00116941 0)
(-0.0921397 -0.00191898 0)
(-0.0896995 -0.00276474 0)
(-0.0870278 -0.00366479 0)
(-0.0841732 -0.00458504 0)
(-0.081192 -0.00548853 0)
(-0.0781568 -0.00634374 0)
(-0.0751451 -0.00712526 0)
(-0.0722359 -0.00781211 0)
(-0.0695053 -0.00837823 0)
(-0.0670271 -0.00878348 0)
(-0.06488 -0.00895561 0)
(-0.0631587 -0.00879377 0)
(-0.0619917 -0.00819592 0)
(-0.0615558 -0.00712307 0)
(-0.0620521 -0.005674 0)
(-0.0635891 -0.00412914 0)
(-0.0660146 -0.00292311 0)
(-0.0688229 -0.00259023 0)
(-0.0712674 -0.00369966 0)
(-0.0726501 -0.00671481 0)
(-0.0726431 -0.0117297 0)
(-0.0714247 -0.0183 0)
(-0.0694829 -0.025368 0)
(-0.0672415 -0.0313347 0)
(-0.0649175 -0.0343751 0)
(-0.0620035 -0.0328892 0)
(-0.0572698 -0.0258401 0)
(-0.0499587 -0.0143334 0)
(-0.0411976 -0.00303316 0)
(-0.0333161 0.00395261 0)
(-0.0261901 0.00697683 0)
(-0.0179319 0.0075196 0)
(-0.00731315 0.0059345 0)
(0.00580983 0.0021527 0)
(0.0205314 -0.00333547 0)
(0.0353401 -0.0093431 0)
(0.0490561 -0.014597 0)
(0.0612401 -0.0186384 0)
(0.0720063 -0.0213984 0)
(0.0815975 -0.0231395 0)
(0.0903156 -0.0241812 0)
(0.098458 -0.0247388 0)
(0.106288 -0.0249134 0)
(0.114038 -0.0247389 0)
(0.12192 -0.0242397 0)
(0.130122 -0.0234716 0)
(0.138792 -0.0225171 0)
(0.148011 -0.0214976 0)
(0.157799 -0.0205756 0)
(0.168131 -0.0198976 0)
(0.178939 -0.0195528 0)
(0.190121 -0.0195613 0)
(0.201559 -0.0198823 0)
(0.213138 -0.0204334 0)
(0.224759 -0.021117 0)
(0.236356 -0.021844 0)
(0.247892 -0.0225446 0)
(0.259353 -0.023165 0)
(0.270745 -0.0236697 0)
(0.282085 -0.0240416 0)
(0.293404 -0.024278 0)
(0.304738 -0.0243863 0)
(0.316121 -0.0243807 0)
(0.327584 -0.0242805 0)
(0.339149 -0.0241081 0)
(0.350831 -0.0238871 0)
(0.362633 -0.0236401 0)
(0.374554 -0.023387 0)
(0.386585 -0.0231447 0)
(0.398715 -0.0229263 0)
(0.410929 -0.022742 0)
(0.423217 -0.0225993 0)