/*--------------------------------*- C++ -*----------------------------------*\
| =========                 |                                                 |
| \\      /  F ield         | OpenFOAM: The Open Source CFD Toolbox           |
|  \\    /   O peration     | Version:  v2006                                 |
|   \\  /    A nd           | Website:  www.openfoam.com                      |
|    \\/     M anipulation  |                                                 |
\*---------------------------------------------------------------------------*/
FoamFile
{
    version     2.0;
    format      ascii;
    class       volScalarField;
    location    "17.4";
    object      p_rgh;
}
// * * * * * * * * * * * * * * * * * * * * * * * * * * * * * * * * * * * * * //

dimensions      [1 -1 -2 0 0 0 0];


internalField   nonuniform List<scalar> 
150000
(
2108.07
2107.43
2106.43
2105.02
2103.12
2100.71
2097.74
2094.22
2090.14
2085.51
2080.34
2074.65
2068.46
2061.78
2054.65
2047.07
2039.07
2030.65
2021.83
2012.64
2003.08
1993.17
1982.94
1972.41
1961.58
1950.5
1939.17
1927.62
1915.87
1903.93
1891.84
1879.61
1867.26
1854.82
1842.3
1829.74
1817.18
1804.63
1792.14
1779.74
1767.46
1755.32
1743.34
1731.55
1719.96
1708.59
1697.46
1686.59
1676.01
1665.74
1655.81
1646.25
1637.08
1628.32
1620.01
1612.17
1604.81
1597.96
1591.63
1585.86
1580.65
1576.03
1572.02
1568.63
1565.88
1563.81
1562.41
1561.72
1561.73
1562.46
1563.93
1566.16
1569.14
1572.89
1577.41
1582.72
1588.83
1595.73
1603.42
1611.93
1621.23
1631.34
1642.26
1653.98
1666.5
1679.82
1693.92
1708.8
1724.46
1740.87
1758.03
1775.93
1794.55
1813.88
1833.9
1854.6
1875.95
1897.95
1920.56
1943.77
1967.55
1991.89
2016.75
2042.1
2067.92
2094.16
2120.82
2147.84
2175.22
2202.92
2230.94
2259.25
2287.83
2316.65
2345.69
2374.91
2404.27
2433.74
2463.29
2492.88
2522.47
2552.03
2581.53
2610.94
2640.21
2669.32
2698.22
2726.88
2755.28
2783.42
2811.33
2839.04
2866.53
2893.66
2920.12
2945.49
2969.46
2992.3
3015.16
3038.93
3062.35
3085.8
3109.44
3132.9
3155.68
3177.52
3198.28
3217.99
3236.68
3254.41
3271.15
3287.01
3302.14
3316.69
3330.72
3344.23
3357.14
3369.36
3380.86
3391.58
3401.51
3410.64
3418.98
3426.55
3433.35
3439.43
3444.79
3449.47
3453.47
3456.81
3459.5
3461.54
3462.94
3463.71
3463.86
3463.41
3462.36
3460.74
3458.56
3455.84
3452.59
3448.83
3444.59
3439.87
3434.7
3429.09
3423.05
3416.59
3409.74
3402.5
3394.89
3386.93
3378.64
3370.05
3361.18
3352.05
3342.69
3333.11
3323.32
3313.33
3303.13
3292.73
3282.13
3271.35
3260.41
3249.34
3238.19
3226.97
3215.7
3204.37
3192.98
3181.52
3170
3158.43
3146.84
3135.25
3123.66
3112.03
3100.31
3088.51
3076.65
3064.8
3053.01
3041.27
3029.56
3017.96
3006.93
2996.36
2985.1
2973.78
2962.71
2951.89
2941.26
2930.7
2920.17
2909.67
2899.21
2888.8
2878.43
2868.1
2857.8
2847.5
2837.17
2826.76
2816.2
2805.43
2794.39
2783.09
2771.55
2759.84
2748.11
2736.5
2725.1
2713.96
2703.03
2692.22
2681.28
2669.91
2658.08
2645.96
2633.6
2621.01
2608.2
2595.16
2581.88
2568.33
2554.49
2540.35
2525.88
2511.09
2495.96
2480.49
2464.66
2448.48
2431.93
2415.01
2397.7
2380
2361.91
2343.42
2324.52
2305.21
2285.49
2265.36
2244.82
2223.86
2202.49
2180.71
2158.52
2135.92
2112.92
2089.53
2065.75
2041.59
2017.05
1992.15
1966.88
1941.27
1915.31
1889.03
1862.42
1835.51
1808.3
1780.81
1753.04
1725.01
1696.73
1668.22
1639.48
1610.54
1581.41
1552.15
1522.63
1492.96
1463.14
1433.19
1403.12
1372.93
1342.65
1312.27
1281.82
1251.3
1220.72
1190.1
1159.43
1128.74
1098.02
1067.28
1036.54
1005.8
975.07
944.351
913.652
882.979
852.338
821.735
791.176
760.666
730.212
699.817
669.489
639.234
609.056
578.963
548.96
519.054
489.251
459.558
429.983
400.531
371.212
342.033
313.004
284.134
255.434
226.915
198.59
170.465
142.547
114.84
87.3443
60.0651
33.0099
6.19135
-20.3741
-46.6689
-72.6786
-98.3952
-123.817
-148.945
-173.784
-198.329
-222.573
-246.504
-270.108
-293.377
-316.304
-338.892
-361.146
-383.082
-404.718
-426.08
-447.183
-468.022
-488.579
-508.808
-528.649
-548.061
-567.034
-585.585
-603.756
-621.589
-639.116
-656.359
-673.323
-689.992
-706.351
-722.378
-738.059
-753.381
-768.336
-782.913
-797.106
-810.913
-824.343
-837.416
-850.153
-862.564
-874.654
-886.41
-897.81
-908.836
-919.472
-929.71
-939.548
-948.98
-958.001
-966.603
-974.777
-982.517
-989.817
-996.674
-1003.09
-1009.05
-1014.56
-1019.62
-1024.23
-1028.39
-1032.09
-1035.35
-1038.16
-1040.53
-1042.46
-1043.96
-1045.03
-1045.69
-1045.94
-1045.79
-1045.24
-1044.31
-1043
-1041.33
-1039.3
-1036.94
-1034.26
-1031.26
-1027.95
-1024.35
-1020.47
-1016.32
-1011.92
-1007.26
-1002.36
-997.225
-991.844
-986.214
-980.323
-974.154
-967.686
-960.894
-953.753
-946.242
-938.346
-930.058
-921.384
-912.342
-902.962
-893.337
-883.513
-873.578
-863.591
-853.61
-843.692
-833.897
-824.269
-814.844
-805.656
-796.736
-788.108
-779.792
-771.803
-764.151
-756.844
-749.886
-743.278
-737.022
-731.115
-725.555
-720.341
-715.473
-710.954
-706.788
-702.987
-699.568
-696.55
-693.999
-691.965
-690.487
-689.519
-689.007
2108.37
2107.69
2106.71
2105.33
2103.47
2101.08
2098.13
2094.62
2090.53
2085.88
2080.69
2074.97
2068.75
2062.05
2054.89
2047.29
2039.26
2030.83
2022
2012.79
2003.23
1993.31
1983.07
1972.52
1961.68
1950.57
1939.23
1927.66
1915.89
1903.94
1891.83
1879.58
1867.22
1854.77
1842.25
1829.68
1817.11
1804.55
1792.03
1779.6
1767.29
1755.11
1743.1
1731.28
1719.66
1708.26
1697.11
1686.23
1675.64
1665.35
1655.41
1645.84
1636.65
1627.89
1619.56
1611.7
1604.32
1597.46
1591.12
1585.34
1580.12
1575.49
1571.47
1568.09
1565.35
1563.28
1561.88
1561.18
1561.18
1561.91
1563.37
1565.58
1568.55
1572.29
1576.81
1582.11
1588.2
1595.08
1602.77
1611.27
1620.56
1630.67
1641.58
1653.3
1665.81
1679.12
1693.22
1708.11
1723.76
1740.17
1757.33
1775.23
1793.85
1813.18
1833.2
1853.9
1875.25
1897.25
1919.86
1943.08
1966.86
1991.2
2016.07
2041.43
2067.26
2093.52
2120.2
2147.25
2174.66
2202.4
2230.45
2258.79
2287.4
2316.24
2345.29
2374.52
2403.88
2433.36
2462.9
2492.48
2522.07
2551.62
2581.12
2610.54
2639.8
2668.91
2697.8
2726.46
2754.86
2782.98
2810.87
2838.52
2865.95
2893.03
2919.51
2945
2969.16
2992.08
3014.59
3037.66
3062.02
3086.38
3110.11
3133.46
3156.38
3178.32
3198.94
3218.26
3236.57
3253.94
3270.55
3286.49
3301.82
3316.59
3330.83
3344.5
3357.51
3369.81
3381.32
3392.02
3401.91
3410.99
3419.28
3426.81
3433.59
3439.66
3445.03
3449.73
3453.75
3457.11
3459.8
3461.85
3463.25
3464.01
3464.16
3463.69
3462.64
3461
3458.81
3456.08
3452.82
3449.05
3444.8
3440.07
3434.89
3429.26
3423.2
3416.73
3409.85
3402.59
3394.97
3387.01
3378.72
3370.13
3361.27
3352.15
3342.8
3333.22
3323.42
3313.41
3303.2
3292.78
3282.16
3271.38
3260.44
3249.39
3238.24
3227.03
3215.76
3204.42
3193.01
3181.52
3169.96
3158.36
3146.73
3135.11
3123.49
3111.84
3100.14
3088.37
3076.56
3064.8
3053.1
3041.38
3029.55
3017.51
3005.29
2993.68
2983.42
2973.36
2963
2952.34
2941.56
2930.75
2919.99
2909.25
2898.53
2887.84
2877.18
2866.56
2855.99
2845.5
2835.08
2824.71
2814.36
2803.96
2793.46
2782.79
2771.99
2761.1
2750.11
2739.02
2727.89
2716.71
2705.44
2693.99
2682.33
2670.55
2658.64
2646.46
2634.02
2621.38
2608.54
2595.46
2582.16
2568.6
2554.74
2540.58
2526.11
2511.31
2496.18
2480.72
2464.9
2448.73
2432.19
2415.27
2397.96
2380.27
2362.18
2343.69
2324.79
2305.48
2285.76
2265.63
2245.09
2224.13
2202.75
2180.97
2158.77
2136.18
2113.18
2089.78
2066
2041.83
2017.29
1992.38
1967.11
1941.49
1915.53
1889.24
1862.62
1835.7
1808.49
1780.98
1753.2
1725.17
1696.88
1668.35
1639.6
1610.64
1581.46
1552.05
1522.54
1492.86
1463.03
1433.07
1402.98
1372.79
1342.49
1312.11
1281.65
1251.12
1220.54
1189.91
1159.24
1128.54
1097.82
1067.08
1036.34
1005.61
974.876
944.159
913.464
882.795
852.158
821.559
791.005
760.499
730.048
699.657
669.331
639.078
608.902
578.809
548.807
518.901
489.098
459.406
429.831
400.383
371.068
341.897
312.876
284.016
255.324
226.807
198.474
170.331
142.386
114.647
87.1249
59.8292
32.7716
5.96182
-20.5919
-46.8836
-72.908
-98.6595
-124.132
-149.317
-174.202
-198.779
-223.038
-246.974
-270.583
-293.866
-316.824
-339.458
-361.772
-383.765
-405.439
-426.789
-447.814
-468.511
-488.872
-508.899
-528.599
-547.968
-566.996
-585.671
-603.986
-621.941
-639.548
-656.812
-673.741
-690.339
-706.605
-722.541
-738.146
-753.414
-768.34
-782.917
-797.14
-811.007
-824.518
-837.677
-850.486
-862.948
-875.057
-886.807
-898.188
-909.191
-919.81
-930.037
-939.867
-949.293
-958.307
-966.902
-975.071
-982.81
-990.112
-996.974
-1003.39
-1009.36
-1014.88
-1019.95
-1024.56
-1028.72
-1032.43
-1035.69
-1038.5
-1040.87
-1042.79
-1044.29
-1045.36
-1046.02
-1046.26
-1046.1
-1045.54
-1044.6
-1043.29
-1041.62
-1039.59
-1037.23
-1034.53
-1031.51
-1028.19
-1024.57
-1020.68
-1016.52
-1012.1
-1007.43
-1002.52
-997.376
-991.989
-986.357
-980.466
-974.3
-967.837
-961.051
-953.917
-946.413
-938.522
-930.24
-921.574
-912.549
-903.204
-893.572
-883.735
-873.757
-863.721
-853.701
-843.747
-833.917
-824.262
-814.809
-805.599
-796.66
-788.012
-779.673
-771.658
-763.982
-756.652
-749.674
-743.049
-736.776
-730.852
-725.275
-720.043
-715.156
-710.614
-706.425
-702.6
-699.165
-696.163
-693.612
-691.565
-690.035
-689.102
-688.602
2108.71
2108.05
2107.09
2105.75
2103.91
2101.54
2098.59
2095.05
2090.93
2086.24
2081.01
2075.25
2068.99
2062.27
2055.09
2047.47
2039.44
2031
2022.16
2012.95
2003.37
1993.44
1983.19
1972.62
1961.76
1950.64
1939.27
1927.68
1915.88
1903.91
1891.78
1879.51
1867.12
1854.64
1842.08
1829.49
1816.87
1804.28
1791.74
1779.28
1766.94
1754.74
1742.7
1730.85
1719.21
1707.79
1696.62
1685.71
1675.09
1664.78
1654.81
1645.2
1635.99
1627.2
1618.84
1610.95
1603.55
1596.66
1590.29
1584.48
1579.24
1574.6
1570.56
1567.14
1564.38
1562.28
1560.85
1560.13
1560.11
1560.81
1562.26
1564.45
1567.4
1571.12
1575.62
1580.9
1586.98
1593.85
1601.53
1610.01
1619.3
1629.4
1640.3
1652.01
1664.52
1677.83
1691.93
1706.81
1722.46
1738.87
1756.03
1773.93
1792.55
1811.88
1831.91
1852.61
1873.97
1895.96
1918.58
1941.79
1965.58
1989.93
2014.79
2040.16
2066
2092.28
2118.98
2146.08
2173.53
2201.33
2229.43
2257.83
2286.48
2315.37
2344.46
2373.71
2403.1
2432.6
2462.16
2491.76
2521.36
2550.93
2580.44
2609.85
2639.13
2668.24
2697.15
2725.82
2754.24
2782.37
2810.22
2837.77
2864.99
2891.81
2918.08
2943.62
2968.25
2992.06
3015.49
3039.08
3063.14
3087.13
3110.76
3133.78
3156.03
3177.43
3197.98
3217.6
3236.26
3254.06
3271.03
3287.22
3302.69
3317.52
3331.71
3345.27
3358.15
3370.33
3381.75
3392.42
3402.31
3411.42
3419.76
3427.34
3434.19
3440.3
3445.71
3450.42
3454.44
3457.79
3460.48
3462.5
3463.89
3464.63
3464.76
3464.28
3463.2
3461.55
3459.34
3456.58
3453.3
3449.52
3445.24
3440.49
3435.29
3429.64
3423.57
3417.08
3410.19
3402.92
3395.28
3387.3
3378.99
3370.38
3361.49
3352.34
3342.95
3333.34
3323.51
3313.48
3303.26
3292.85
3282.25
3271.48
3260.57
3249.52
3238.37
3227.15
3215.85
3204.48
3193.05
3181.55
3169.98
3158.37
3146.76
3135.17
3123.6
3111.97
3100.28
3088.46
3076.53
3064.61
3052.81
3041.06
3029.55
3018.27
3007.21
2996.19
2985.21
2974.15
2963.07
2952.04
2941.26
2930.56
2919.92
2909.34
2898.81
2888.34
2877.91
2867.52
2857.15
2846.78
2836.39
2825.93
2815.37
2804.69
2793.88
2782.94
2771.89
2760.7
2749.44
2738.18
2726.93
2715.71
2704.5
2693.24
2681.88
2670.33
2658.52
2646.41
2634.01
2621.53
2608.75
2595.73
2582.46
2568.92
2555.11
2540.99
2526.54
2511.78
2496.67
2481.22
2465.42
2449.26
2432.73
2415.81
2398.52
2380.83
2362.75
2344.26
2325.36
2306.06
2286.34
2266.21
2245.66
2224.7
2203.32
2181.53
2159.33
2136.72
2113.72
2090.31
2066.52
2042.34
2017.78
1992.86
1967.57
1941.94
1915.96
1889.66
1863.03
1836.09
1808.86
1781.34
1753.54
1725.49
1697.18
1668.64
1639.87
1610.9
1581.72
1552.35
1522.83
1493.13
1463.29
1433.31
1403.21
1373
1342.69
1312.3
1281.82
1251.28
1220.68
1190.03
1159.35
1128.63
1097.9
1067.15
1036.39
1005.64
974.895
944.164
913.454
882.77
852.118
821.505
790.935
760.415
729.949
699.544
669.205
638.937
608.746
578.64
548.623
518.702
488.885
459.179
429.589
400.126
370.795
341.605
312.565
283.683
254.968
226.43
198.077
169.919
141.964
114.22
86.6945
59.3934
32.3244
5.4958
-21.0827
-47.4005
-73.4471
-99.2137
-124.693
-149.881
-174.77
-199.357
-223.635
-247.598
-271.238
-294.55
-317.531
-340.18
-362.498
-384.487
-406.154
-427.505
-448.547
-469.282
-489.708
-509.815
-529.578
-548.973
-567.983
-586.606
-604.855
-622.749
-640.31
-657.55
-674.478
-691.091
-707.38
-723.336
-738.952
-754.221
-769.139
-783.701
-797.905
-811.751
-825.244
-838.389
-851.193
-863.657
-875.777
-887.543
-898.942
-909.963
-920.595
-930.834
-940.672
-950.104
-959.123
-967.722
-975.895
-983.634
-990.936
-997.796
-1004.21
-1010.18
-1015.69
-1020.76
-1025.36
-1029.52
-1033.22
-1036.47
-1039.27
-1041.63
-1043.55
-1045.03
-1046.09
-1046.73
-1046.96
-1046.78
-1046.21
-1045.26
-1043.94
-1042.26
-1040.22
-1037.85
-1035.14
-1032.12
-1028.78
-1025.16
-1021.26
-1017.08
-1012.66
-1007.99
-1003.08
-997.93
-992.548
-986.921
-981.04
-974.884
-968.432
-961.654
-954.524
-947.016
-939.111
-930.801
-922.092
-912.999
-903.574
-893.847
-883.904
-873.834
-863.718
-853.629
-843.635
-833.786
-824.142
-814.67
-805.456
-796.514
-787.863
-779.519
-771.497
-763.808
-756.461
-749.461
-742.812
-736.514
-730.566
-724.963
-719.701
-714.779
-710.2
-705.972
-702.109
-698.638
-695.602
-693.045
-691.019
-689.55
-688.654
-688.173
2109.17
2108.49
2107.54
2106.22
2104.41
2102.04
2099.08
2095.5
2091.34
2086.6
2081.32
2075.53
2069.26
2062.53
2055.35
2047.74
2039.7
2031.27
2022.43
2013.21
2003.62
1993.67
1983.4
1972.81
1961.92
1950.77
1939.37
1927.75
1915.92
1903.91
1891.74
1879.43
1867
1854.47
1841.87
1829.23
1816.58
1803.95
1791.37
1778.88
1766.5
1754.27
1742.2
1730.31
1718.63
1707.17
1695.95
1684.99
1674.33
1663.98
1653.97
1644.32
1635.07
1626.23
1617.84
1609.91
1602.46
1595.53
1589.13
1583.28
1578
1573.32
1569.25
1565.8
1563
1560.87
1559.41
1558.65
1558.6
1559.28
1560.69
1562.85
1565.77
1569.47
1573.94
1579.2
1585.25
1592.1
1599.76
1608.22
1617.49
1627.58
1638.47
1650.17
1662.67
1675.97
1690.06
1704.94
1720.58
1737
1754.16
1772.06
1790.69
1810.03
1830.06
1850.77
1872.15
1894.16
1916.79
1940.02
1963.83
1988.19
2013.08
2038.47
2064.34
2090.65
2117.39
2144.53
2172.03
2199.88
2228.04
2256.49
2285.2
2314.14
2343.27
2372.56
2401.99
2431.51
2461.09
2490.71
2520.34
2549.93
2579.46
2608.88
2638.18
2667.31
2696.25
2724.96
2753.43
2781.62
2809.51
2837.05
2864.19
2890.85
2916.95
2942.47
2967.43
2991.98
3016.35
3040.75
3065.19
3089.32
3112.8
3135.49
3157.32
3178.24
3198.3
3217.57
3236.07
3253.85
3270.93
3287.32
3303.03
3318.07
3332.43
3346.09
3359.03
3371.2
3382.6
3393.21
3403.05
3412.12
3420.44
3428.01
3434.86
3441
3446.44
3451.18
3455.23
3458.6
3461.3
3463.34
3464.73
3465.47
3465.58
3465.08
3463.98
3462.3
3460.06
3457.27
3453.95
3450.13
3445.82
3441.03
3435.79
3430.1
3423.99
3417.47
3410.55
3403.26
3395.61
3387.63
3379.32
3370.71
3361.82
3352.66
3343.25
3333.61
3323.75
3313.68
3303.41
3292.96
3282.34
3271.56
3260.63
3249.59
3238.44
3227.21
3215.9
3204.51
3193.06
3181.53
3169.94
3158.3
3146.65
3135.03
3123.4
3111.81
3100.08
3088.2
3076.21
3064.21
3052.28
3040.68
3029.18
3017.79
3006.54
2995.5
2984.73
2974.02
2963.27
2952.54
2941.71
2930.93
2920.18
2909.46
2898.77
2888.09
2877.44
2866.82
2856.25
2845.72
2835.24
2824.78
2814.32
2803.82
2793.26
2782.59
2771.82
2760.98
2750.11
2739.18
2728.18
2717.1
2705.91
2694.57
2683.04
2671.33
2659.41
2647.28
2634.91
2622.26
2609.47
2596.44
2583.16
2569.6
2555.76
2541.63
2527.19
2512.43
2497.35
2481.92
2466.14
2449.99
2433.48
2416.58
2399.3
2381.63
2363.56
2345.08
2326.19
2306.89
2287.18
2267.05
2246.5
2225.54
2204.16
2182.36
2160.16
2137.54
2114.52
2091.11
2067.3
2043.11
2018.54
1993.6
1968.29
1942.64
1916.64
1890.31
1863.66
1836.7
1809.44
1781.89
1754.07
1725.99
1697.65
1669.08
1640.28
1611.27
1582.06
1552.66
1523.1
1493.37
1463.5
1433.49
1403.37
1373.13
1342.79
1312.37
1281.87
1251.31
1220.68
1190.02
1159.31
1128.58
1097.82
1067.06
1036.29
1005.52
974.756
944.011
913.287
882.591
851.927
821.303
790.722
760.19
729.713
699.297
668.946
638.666
608.464
578.345
548.315
518.381
488.55
458.828
429.224
399.744
370.397
341.192
312.136
283.239
254.51
225.957
197.589
169.414
141.438
113.67
86.1166
58.7878
31.6928
4.84172
-21.7555
-48.09
-74.1547
-99.9437
-125.452
-150.673
-175.602
-200.229
-224.545
-248.543
-272.216
-295.56
-318.574
-341.259
-363.615
-385.645
-407.349
-428.727
-449.776
-470.494
-490.871
-510.898
-530.569
-549.885
-568.849
-587.469
-605.753
-623.707
-641.335
-658.636
-675.604
-692.232
-708.512
-724.444
-740.027
-755.263
-770.153
-784.7
-798.903
-812.763
-826.283
-839.463
-852.302
-864.798
-876.942
-888.725
-900.136
-911.166
-921.807
-932.053
-941.899
-951.339
-960.364
-968.969
-977.145
-984.888
-992.193
-999.054
-1005.47
-1011.43
-1016.95
-1022.01
-1026.61
-1030.76
-1034.45
-1037.68
-1040.47
-1042.81
-1044.71
-1046.18
-1047.22
-1047.83
-1048.04
-1047.84
-1047.25
-1046.27
-1044.93
-1043.22
-1041.17
-1038.77
-1036.05
-1033.01
-1029.67
-1026.04
-1022.14
-1017.97
-1013.54
-1008.88
-1003.97
-998.84
-993.47
-987.859
-981.992
-975.851
-969.41
-962.639
-955.507
-947.986
-940.054
-931.701
-922.929
-913.766
-904.227
-894.387
-884.315
-874.095
-863.817
-853.569
-843.424
-833.438
-823.637
-814.122
-804.868
-795.901
-787.237
-778.889
-770.868
-763.181
-755.838
-748.844
-742.203
-735.917
-729.985
-724.405
-719.171
-714.278
-709.721
-705.503
-701.636
-698.149
-695.087
-692.508
-690.476
-689.028
-688.164
-687.694
2109.77
2109.06
2108.09
2106.76
2104.96
2102.59
2099.61
2096.01
2091.81
2087.06
2081.77
2075.99
2069.72
2063
2055.83
2048.23
2040.2
2031.75
2022.9
2013.66
2004.05
1994.08
1983.77
1973.14
1962.22
1951.02
1939.58
1927.9
1916.02
1903.96
1891.73
1879.36
1866.87
1854.29
1841.64
1828.95
1816.26
1803.59
1790.97
1778.44
1766.01
1753.73
1741.6
1729.65
1717.91
1706.38
1695.09
1684.08
1673.35
1662.95
1652.88
1643.18
1633.88
1624.99
1616.54
1608.55
1601.06
1594.07
1587.62
1581.71
1576.38
1571.64
1567.52
1564.03
1561.18
1558.99
1557.49
1556.69
1556.59
1557.23
1558.6
1560.72
1563.61
1567.26
1571.7
1576.93
1582.96
1589.79
1597.42
1605.86
1615.12
1625.18
1636.06
1647.75
1660.24
1673.53
1687.61
1702.49
1718.13
1734.55
1751.72
1769.63
1788.27
1807.62
1827.68
1848.41
1869.8
1891.84
1914.5
1937.76
1961.6
1985.99
2010.91
2036.34
2062.24
2088.59
2115.37
2142.55
2170.1
2198
2226.22
2254.72
2283.49
2312.48
2341.67
2371.02
2400.49
2430.07
2459.7
2489.37
2519.03
2548.68
2578.25
2607.72
2637.07
2666.26
2695.27
2724.06
2752.62
2780.9
2808.88
2836.5
2863.68
2890.35
2916.46
2942.04
2967.22
2992.17
3017.02
3041.8
3066.38
3090.45
3113.79
3136.28
3157.9
3178.67
3198.69
3217.98
3236.55
3254.4
3271.54
3287.99
3303.74
3318.81
3333.18
3346.85
3359.78
3371.96
3383.37
3394
3403.86
3412.96
3421.3
3428.89
3435.76
3441.9
3447.33
3452.07
3456.11
3459.46
3462.15
3464.17
3465.54
3466.26
3466.36
3465.84
3464.72
3463.03
3460.76
3457.95
3454.62
3450.77
3446.43
3441.62
3436.35
3430.64
3424.5
3417.96
3411.03
3403.73
3396.06
3388.06
3379.74
3371.11
3362.19
3353
3343.57
3333.9
3324.01
3313.91
3303.62
3293.15
3282.52
3271.72
3260.78
3249.72
3238.55
3227.29
3215.95
3204.53
3193.06
3181.52
3169.94
3158.31
3146.68
3135.05
3123.44
3111.79
3100.05
3088.16
3076.17
3064.21
3052.42
3040.86
3029.5
3018.28
3007.17
2996.14
2985.14
2974.15
2963.17
2952.26
2941.39
2930.63
2919.9
2909.23
2898.62
2888.06
2877.56
2867.11
2856.69
2846.29
2835.89
2825.45
2814.96
2804.39
2793.73
2782.99
2772.16
2761.26
2750.26
2739.16
2728
2716.79
2705.52
2694.16
2682.69
2671.05
2659.27
2647.32
2635.2
2622.71
2609.98
2597.02
2583.8
2570.32
2556.55
2542.48
2528.09
2513.37
2498.32
2482.92
2467.16
2451.04
2434.54
2417.67
2400.4
2382.74
2364.68
2346.21
2327.33
2308.04
2288.33
2268.2
2247.66
2226.69
2205.3
2183.5
2161.29
2138.66
2115.63
2092.2
2068.38
2044.16
2019.57
1994.61
1969.28
1943.6
1917.57
1891.21
1864.53
1837.53
1810.24
1782.66
1754.8
1726.68
1698.31
1669.7
1640.87
1611.82
1582.58
1553.15
1523.55
1493.79
1463.88
1433.84
1403.68
1373.41
1343.04
1312.59
1282.06
1251.47
1220.82
1190.12
1159.39
1128.63
1097.85
1067.06
1036.26
1005.47
974.688
943.921
913.175
882.458
851.773
821.128
790.526
759.974
729.477
699.039
668.668
638.367
608.143
578.003
547.951
517.994
488.14
458.395
428.767
399.263
369.891
340.66
311.578
282.653
253.894
225.31
196.91
168.701
140.694
112.896
85.3157
57.9618
30.8427
3.96681
-22.6574
-49.0216
-75.1174
-100.937
-126.474
-151.721
-176.672
-201.321
-225.662
-249.689
-273.396
-296.779
-319.834
-342.56
-364.954
-387.018
-408.75
-430.148
-451.212
-471.938
-492.323
-512.365
-532.059
-551.4
-570.387
-589.018
-607.298
-625.237
-642.841
-660.117
-677.066
-693.685
-709.97
-725.915
-741.517
-756.773
-771.682
-786.244
-800.46
-814.332
-827.86
-841.047
-853.893
-866.394
-878.545
-890.338
-901.763
-912.81
-923.47
-933.734
-943.596
-953.049
-962.086
-970.7
-978.885
-986.633
-993.941
-1000.8
-1007.22
-1013.18
-1018.68
-1023.73
-1028.32
-1032.45
-1036.13
-1039.34
-1042.11
-1044.43
-1046.3
-1047.74
-1048.74
-1049.33
-1049.5
-1049.27
-1048.64
-1047.63
-1046.25
-1044.51
-1042.43
-1040
-1037.26
-1034.2
-1030.84
-1027.2
-1023.29
-1019.12
-1014.7
-1010.03
-1005.14
-1000.02
-994.659
-989.063
-983.213
-977.088
-970.66
-963.896
-956.764
-949.229
-941.268
-932.863
-924.013
-914.721
-905.036
-895.014
-884.74
-874.312
-863.836
-853.403
-843.094
-832.967
-823.066
-813.449
-804.123
-795.103
-786.402
-778.028
-769.988
-762.287
-754.934
-747.932
-741.289
-735.009
-729.092
-723.538
-718.343
-713.501
-709.005
-704.854
-701.05
-697.612
-694.576
-692
-689.963
-688.512
-687.652
-687.179
2110.53
2109.78
2108.78
2107.42
2105.6
2103.23
2100.24
2096.65
2092.46
2087.71
2082.44
2076.68
2070.43
2063.72
2056.56
2048.95
2040.91
2032.44
2023.57
2014.29
2004.64
1994.62
1984.26
1973.59
1962.61
1951.36
1939.85
1928.11
1916.16
1904.02
1891.72
1879.28
1866.72
1854.08
1841.36
1828.62
1815.86
1803.14
1790.46
1777.86
1765.38
1753.02
1740.82
1728.79
1716.96
1705.36
1694
1682.9
1672.11
1661.63
1651.49
1641.73
1632.35
1623.4
1614.88
1606.83
1599.27
1592.22
1585.7
1579.73
1574.34
1569.54
1565.35
1561.8
1558.89
1556.65
1555.09
1554.23
1554.08
1554.66
1555.98
1558.06
1560.9
1564.51
1568.91
1574.1
1580.09
1586.89
1594.49
1602.91
1612.14
1622.18
1633.04
1644.71
1657.19
1670.47
1684.55
1699.42
1715.07
1731.49
1748.67
1766.59
1785.25
1804.62
1824.7
1845.46
1866.88
1888.95
1911.65
1934.94
1958.82
1983.25
2008.22
2033.69
2059.64
2086.05
2112.88
2140.12
2167.73
2195.69
2223.98
2252.55
2281.38
2310.44
2339.69
2369.11
2398.65
2428.28
2457.98
2487.71
2517.45
2547.16
2576.8
2606.35
2635.79
2665.07
2694.17
2723.06
2751.73
2780.12
2808.21
2835.92
2863.2
2889.99
2916.24
2942
2967.38
2992.53
3017.52
3042.36
3066.89
3090.89
3114.17
3136.61
3158.22
3179.01
3199.05
3218.35
3236.95
3254.86
3272.08
3288.62
3304.47
3319.62
3334.06
3347.77
3360.73
3372.93
3384.35
3395
3404.87
3413.98
3422.33
3429.94
3436.81
3442.96
3448.4
3453.14
3457.18
3460.54
3463.22
3465.23
3466.59
3467.3
3467.38
3466.84
3465.71
3463.99
3461.7
3458.87
3455.51
3451.63
3447.26
3442.42
3437.12
3431.37
3425.21
3418.64
3411.68
3404.35
3396.67
3388.65
3380.3
3371.66
3362.72
3353.51
3344.04
3334.34
3324.41
3314.27
3303.94
3293.43
3282.76
3271.94
3260.98
3249.9
3238.71
3227.43
3216.06
3204.62
3193.11
3181.54
3169.94
3158.29
3146.63
3134.97
3123.31
3111.64
3099.91
3088.09
3076.2
3064.33
3052.56
3040.95
3029.49
3018.13
3006.89
2995.76
2984.75
2973.83
2962.97
2952.17
2941.38
2930.6
2919.85
2909.19
2898.56
2887.97
2877.41
2866.87
2856.36
2845.87
2835.4
2824.93
2814.45
2803.95
2793.4
2782.79
2772.1
2761.34
2750.52
2739.65
2728.73
2717.75
2706.66
2695.45
2684.07
2672.45
2660.54
2648.45
2636.17
2623.69
2610.99
2598.05
2584.85
2571.37
2557.61
2543.55
2529.18
2514.49
2499.47
2484.1
2468.37
2452.28
2435.82
2418.97
2401.73
2384.09
2366.05
2347.6
2328.73
2309.45
2289.75
2269.62
2249.08
2228.11
2206.72
2184.91
2162.69
2140.05
2117.01
2093.56
2069.71
2045.47
2020.86
1995.86
1970.5
1944.79
1918.73
1892.33
1865.61
1838.58
1811.24
1783.62
1755.72
1727.55
1699.14
1670.48
1641.6
1612.51
1583.22
1553.75
1524.1
1494.3
1464.35
1434.26
1404.06
1373.75
1343.34
1312.84
1282.27
1251.64
1220.95
1190.22
1159.45
1128.66
1097.85
1067.03
1036.2
1005.38
974.568
943.774
913.002
882.259
851.55
820.88
790.255
759.679
729.158
698.697
668.302
637.977
607.729
577.563
547.486
517.503
487.622
457.85
428.193
398.66
369.258
339.996
310.881
281.924
253.132
224.515
196.081
167.839
139.798
111.965
84.3489
56.9589
29.8033
2.89103
-23.7689
-50.168
-76.2982
-102.152
-127.723
-153.006
-177.993
-202.678
-227.055
-251.118
-274.861
-298.279
-321.371
-344.132
-366.562
-388.658
-410.42
-431.846
-452.934
-473.68
-494.08
-514.131
-533.826
-553.166
-572.152
-590.789
-609.085
-627.044
-644.673
-661.972
-678.938
-695.57
-711.864
-727.815
-743.423
-758.686
-773.606
-788.182
-802.415
-816.308
-829.86
-843.071
-855.939
-868.46
-880.628
-892.436
-903.874
-914.934
-925.606
-935.883
-945.757
-955.22
-964.267
-972.889
-981.08
-988.833
-996.144
-1003.01
-1009.42
-1015.37
-1020.87
-1025.91
-1030.48
-1034.59
-1038.25
-1041.44
-1044.18
-1046.46
-1048.3
-1049.71
-1050.67
-1051.22
-1051.35
-1051.08
-1050.41
-1049.36
-1047.93
-1046.15
-1044.03
-1041.57
-1038.79
-1035.7
-1032.32
-1028.66
-1024.73
-1020.54
-1016.11
-1011.45
-1006.56
-1001.44
-996.1
-990.523
-984.697
-978.6
-972.2
-965.462
-958.344
-950.809
-942.823
-934.365
-925.429
-915.997
-906.123
-895.872
-885.337
-874.633
-863.883
-853.198
-842.669
-832.365
-822.335
-812.606
-803.199
-794.121
-785.379
-776.974
-768.909
-761.188
-753.816
-746.797
-740.139
-733.848
-727.928
-722.383
-717.212
-712.413
-707.979
-703.905
-700.19
-696.843
-693.886
-691.365
-689.355
-687.907
-687.039
-686.555
2111.47
2110.69
2109.65
2108.25
2106.4
2104.02
2101.05
2097.48
2093.32
2088.6
2083.36
2077.62
2071.39
2064.68
2057.51
2049.89
2041.82
2033.31
2024.39
2015.07
2005.36
1995.28
1984.86
1974.12
1963.08
1951.75
1940.17
1928.35
1916.32
1904.09
1891.71
1879.18
1866.54
1853.81
1841.02
1828.2
1815.37
1802.56
1789.81
1777.13
1764.56
1752.12
1739.83
1727.71
1715.79
1704.1
1692.65
1681.47
1670.59
1660.03
1649.81
1639.96
1630.51
1621.48
1612.88
1604.75
1597.11
1589.98
1583.39
1577.34
1571.87
1566.99
1562.73
1559.1
1556.12
1553.81
1552.18
1551.25
1551.04
1551.55
1552.81
1554.83
1557.61
1561.18
1565.53
1570.68
1576.63
1583.38
1590.95
1599.34
1608.54
1618.57
1629.41
1641.06
1653.53
1666.8
1680.88
1695.74
1711.4
1727.82
1745.01
1762.95
1781.63
1801.03
1821.13
1841.92
1863.38
1885.49
1908.22
1931.57
1955.49
1979.97
2004.99
2030.52
2056.53
2083
2109.9
2137.21
2164.89
2192.93
2221.28
2249.93
2278.84
2307.98
2337.31
2366.81
2396.43
2426.15
2455.93
2485.75
2515.57
2545.37
2575.11
2604.76
2634.3
2663.7
2692.93
2721.95
2750.75
2779.27
2807.48
2835.33
2862.74
2889.67
2916.1
2942.05
2967.62
2992.9
3017.94
3042.74
3067.17
3091.08
3114.31
3136.78
3158.46
3179.35
3199.48
3218.88
3237.58
3255.58
3272.89
3289.49
3305.4
3320.6
3335.07
3348.81
3361.8
3374.03
3385.48
3396.16
3406.07
3415.2
3423.58
3431.21
3438.09
3444.25
3449.7
3454.43
3458.46
3461.8
3464.47
3466.46
3467.8
3468.5
3468.56
3468
3466.85
3465.11
3462.8
3459.94
3456.55
3452.65
3448.25
3443.37
3438.04
3432.27
3426.07
3419.47
3412.49
3405.13
3397.41
3389.36
3380.98
3372.3
3363.32
3354.08
3344.57
3334.83
3324.87
3314.69
3304.33
3293.79
3283.09
3272.23
3261.24
3250.13
3238.9
3227.58
3216.17
3204.7
3193.16
3181.57
3169.94
3158.28
3146.61
3134.93
3123.25
3111.55
3099.81
3088.02
3076.2
3064.4
3052.69
3041.09
3029.61
3018.26
3007.01
2995.86
2984.79
2973.78
2962.83
2951.92
2941.08
2930.28
2919.56
2908.94
2898.34
2887.78
2877.27
2866.82
2856.4
2846
2835.61
2825.21
2814.79
2804.32
2793.79
2783.2
2772.54
2761.82
2751.02
2740.14
2729.16
2718.05
2706.81
2695.46
2684.11
2672.59
2660.93
2649.02
2636.87
2624.5
2611.89
2599.03
2585.9
2572.51
2558.82
2544.83
2530.53
2515.89
2500.92
2485.59
2469.9
2453.85
2437.41
2420.59
2403.37
2385.76
2367.73
2349.3
2330.45
2311.17
2291.48
2271.36
2250.81
2229.84
2208.45
2186.63
2164.39
2141.73
2118.67
2095.2
2071.32
2047.06
2022.41
1997.38
1971.98
1946.23
1920.12
1893.68
1866.91
1839.83
1812.45
1784.77
1756.82
1728.6
1700.13
1671.42
1642.49
1613.34
1584
1554.47
1524.77
1494.91
1464.9
1434.77
1404.51
1374.15
1343.69
1313.15
1282.53
1251.85
1221.12
1190.35
1159.54
1128.71
1097.86
1067
1036.14
1005.28
974.44
943.614
912.811
882.038
851.299
820.6
789.946
759.341
728.792
698.302
667.878
637.524
607.246
577.049
546.941
516.926
487.012
457.206
427.515
397.947
368.509
339.209
310.057
281.061
252.229
223.571
195.095
166.811
138.726
110.85
83.1916
55.7594
28.5624
1.60929
-25.0915
-51.5316
-77.7031
-103.599
-129.211
-154.535
-179.562
-204.287
-228.704
-252.808
-276.593
-300.054
-323.188
-345.992
-368.462
-390.598
-412.397
-433.857
-454.976
-475.749
-496.173
-516.245
-535.963
-555.327
-574.337
-592.997
-611.31
-629.283
-646.919
-664.222
-681.193
-697.83
-714.133
-730.097
-745.721
-761.004
-775.945
-790.544
-804.801
-818.717
-832.291
-845.523
-858.412
-870.952
-883.139
-894.965
-906.422
-917.5
-928.19
-938.485
-948.375
-957.853
-966.912
-975.544
-983.742
-991.5
-998.812
-1005.67
-1012.08
-1018.02
-1023.51
-1028.53
-1033.08
-1037.17
-1040.8
-1043.96
-1046.67
-1048.92
-1050.72
-1052.07
-1053
-1053.49
-1053.57
-1053.25
-1052.53
-1051.43
-1049.95
-1048.12
-1045.95
-1043.44
-1040.62
-1037.5
-1034.08
-1030.39
-1026.43
-1022.23
-1017.79
-1013.12
-1008.23
-1003.13
-997.805
-992.257
-986.47
-980.417
-974.065
-967.37
-960.283
-952.757
-944.75
-936.235
-927.212
-917.593
-907.484
-896.935
-886.055
-874.988
-863.887
-852.888
-842.097
-831.587
-821.401
-811.562
-802.078
-792.95
-784.173
-775.744
-767.66
-759.922
-752.531
-745.493
-738.815
-732.504
-726.568
-721.015
-715.848
-711.07
-706.677
-702.667
-699.036
-695.786
-692.928
-690.493
-688.542
-687.115
-686.241
-685.745
2112.61
2111.8
2110.73
2109.29
2107.41
2105.03
2102.08
2098.55
2094.42
2089.74
2084.52
2078.79
2072.57
2065.85
2058.66
2051
2042.88
2034.33
2025.35
2015.96
2006.19
1996.04
1985.55
1974.72
1963.6
1952.18
1940.51
1928.6
1916.47
1904.15
1891.67
1879.04
1866.3
1853.48
1840.59
1827.67
1814.75
1801.85
1789
1776.23
1763.56
1751.01
1738.62
1726.4
1714.38
1702.59
1691.04
1679.76
1668.78
1658.13
1647.82
1637.88
1628.33
1619.21
1610.52
1602.31
1594.58
1587.36
1580.67
1574.54
1568.98
1564.01
1559.66
1555.95
1552.88
1550.48
1548.77
1547.76
1547.47
1547.91
1549.1
1551.05
1553.77
1557.27
1561.57
1566.66
1572.56
1579.28