/*--------------------------------*- C++ -*----------------------------------*\
| =========                 |                                                 |
| \\      /  F ield         | OpenFOAM: The Open Source CFD Toolbox           |
|  \\    /   O peration     | Version:  v2006                                 |
|   \\  /    A nd           | Website:  www.openfoam.com                      |
|    \\/     M anipulation  |                                                 |
\*---------------------------------------------------------------------------*/
FoamFile
{
    version     2.0;
    format      ascii;
    class       volScalarField;
    location    "0";
    object      p;
}
// * * * * * * * * * * * * * * * * * * * * * * * * * * * * * * * * * * * * * //

dimensions      [1 -1 -2 0 0 0 0];


internalField   nonuniform List<scalar> 
20000
(
6.29374e-05
6.31642e-05
6.36349e-05
6.43215e-05
6.52341e-05
6.6352e-05
6.76644e-05
6.91536e-05
7.07955e-05
7.25613e-05
7.44152e-05
7.6313e-05
7.82004e-05
8.00111e-05
8.16645e-05
8.30631e-05
8.40889e-05
8.45996e-05
8.44241e-05
8.33571e-05
8.11534e-05
7.75201e-05
7.21086e-05
6.45043e-05
5.42167e-05
4.06663e-05
2.31714e-05
9.33279e-07
-2.6979e-05
-6.16433e-05
-0.000104299
-0.000156353
-0.000219374
-0.000295065
-0.000385216
-0.00049161
-0.000615866
-0.000759169
-0.000921892
-0.00110311
-0.00130008
-0.00150762
-0.00171777
-0.00191975
-0.0021011
-0.00225057
-0.00236341
-0.00244769
-0.00252174
-0.00259212
-0.00274522
-0.00293622
-0.00313851
-0.00331777
-0.00342888
-0.00345395
-0.00337518
-0.00318551
-0.00287913
-0.00245388
-0.00191294
-0.00126423
-0.000521453
0.000293233
0.00115009
0.00201743
0.00286678
0.00367435
0.004418
0.00509128
0.00566884
0.0061498
0.00653008
0.00680765
0.00698224
0.00705495
0.0070282
0.00690572
0.00669252
0.00639482
0.00601961
0.00557382
0.00507095
0.00453384
0.00389982
0.00319997
0.00242994
0.00158121
0.00064289
-0.00038277
-0.0014963
-0.00267832
-0.00389969
-0.00511544
-0.00626958
-0.00730139
-0.00815325
-0.008779
-0.00915059
-0.00926171
-0.00912745
-0.00878068
-0.00826656
-0.00763227
-0.00691786
-0.00616401
-0.00539747
-0.00463317
-0.00388714
-0.00317786
-0.00253102
-0.00197554
-0.00153155
-0.00119923
-0.000955443
-0.000761977
-0.000582682
-0.000397783
-0.000204832
-1.03416e-05
0.000177172
0.000349943
0.000502243
0.000630991
0.000735403
0.000816295
0.000875503
0.00091543
0.000938686
0.000947861
0.000945389
0.000933477
0.000914068
0.000888849
0.000859252
0.000826486
0.000791554
0.000755283
0.000718347
0.000681287
0.000644536
0.000608433
0.000573237
0.000539146
0.000506302
0.000474804
0.000444717
0.000416073
0.000388885
0.000363146
0.000338833
0.000315914
0.000294347
0.000274086
0.000255078
0.00023727
0.00022062
0.00020505
0.000190485
0.000176893
0.000164221
0.000152415
0.000141422
0.000131191
0.000121674
0.000112826
0.000104604
9.69668e-05
8.98754e-05
8.32932e-05
7.71857e-05
7.15204e-05
6.6267e-05
6.13971e-05
5.68841e-05
5.27031e-05
4.88306e-05
4.52449e-05
4.19256e-05
3.88537e-05
3.60117e-05
3.33832e-05
3.09531e-05
2.87074e-05
2.66333e-05
2.47186e-05
2.29523e-05
2.13239e-05
1.98238e-05
1.84431e-05
1.71737e-05
1.60081e-05
1.49394e-05
1.39615e-05
1.30686e-05
1.22553e-05
1.15174e-05
1.08486e-05
1.02508e-05
9.69847e-06
6.29117e-05
6.31415e-05
6.36149e-05
6.43031e-05
6.52164e-05
6.63353e-05
6.76491e-05
6.91401e-05
7.07846e-05
7.25536e-05
7.44116e-05
7.63143e-05
7.82077e-05
8.00257e-05
8.1688e-05
8.30974e-05
8.41361e-05
8.46623e-05
8.45054e-05
8.34607e-05
8.12835e-05
7.76819e-05
7.2308e-05
6.47482e-05
5.45131e-05
4.10243e-05
2.36017e-05
1.44781e-06
-2.63671e-05
-6.09197e-05
-0.000103449
-0.000155363
-0.000218231
-0.000293764
-0.000383759
-0.000490015
-0.000614175
-0.000757458
-0.000920279
-0.00110176
-0.0012992
-0.00150746
-0.00171856
-0.0019216
-0.00210381
-0.00225338
-0.00236502
-0.00244737
-0.00252872
-0.00265201
-0.00280391
-0.00299093
-0.00318459
-0.00335436
-0.0034549
-0.00347212
-0.00338706
-0.00319101
-0.00287813
-0.00244636
-0.00189916
-0.00124476
-0.000497299
0.000320658
0.00117929
0.002047
0.00289532
0.00369998
0.00444227
0.00510362
0.00567938
0.00615967
0.00653966
0.00681703
0.00699134
0.00706362
0.00703626
0.00691302
0.00669894
0.00640016
0.00602329
0.00557359
0.00505173
0.00445656
0.00381912
0.00312216
0.00235788
0.00151631
0.000589692
-0.000420723
-0.00151968
-0.00268744
-0.00389423
-0.00509678
-0.00624017
-0.00726405
-0.00811079
-0.008734
-0.00910539
-0.00921821
-0.00908694
-0.00874435
-0.00823532
-0.00760831
-0.00690693
-0.0061608
-0.00539526
-0.00463055
-0.00388328
-0.00317198
-0.00252289
-0.00196589
-0.00152198
-0.00119159
-0.000950903
-0.000760384
-0.000582805
-0.000398274
-0.000204898
-9.7226e-06
0.000178455
0.000351726
0.000504306
0.000633137
0.000737491
0.000818229
0.00087723
0.000916928
0.000939955
0.000948914
0.000946245
0.000934158
0.000914598
0.000889248
0.000859543
0.000826686
0.000791679
0.000755347
0.000718361
0.000681262
0.00064448
0.000608353
0.000573139
0.000539035
0.000506182
0.000474678
0.000444587
0.000415943
0.000388756
0.000363018
0.000338708
0.000315792
0.000294229
0.000273972
0.000254967
0.000237159
0.000220485
0.000204901
0.000190357
0.000176786
0.000164129
0.000152334
0.00014135
0.000131126
0.000121616
0.000112774
0.000104557
9.6924e-05
8.98367e-05
8.32581e-05
7.71538e-05
7.14915e-05
6.62407e-05
6.13732e-05
5.68624e-05
5.26833e-05
4.88126e-05
4.52284e-05
4.19105e-05
3.884e-05
3.59991e-05
3.33717e-05
3.09426e-05
2.86978e-05
2.66245e-05
2.47106e-05
2.2945e-05
2.13172e-05
1.98177e-05
1.84376e-05
1.71686e-05
1.60035e-05
1.49353e-05
1.39578e-05
1.30653e-05
1.22525e-05
1.15151e-05
1.08466e-05
1.02507e-05
9.68741e-06
6.28701e-05
6.3102e-05
6.35754e-05
6.42634e-05
6.51782e-05
6.62999e-05
6.76173e-05
6.91127e-05
7.07625e-05
7.25382e-05
7.44042e-05
7.63167e-05
7.82222e-05
8.00548e-05
8.17348e-05
8.31656e-05
8.42302e-05
8.47874e-05
8.46676e-05
8.36674e-05
8.15434e-05
7.8005e-05
7.27062e-05
6.52353e-05
5.5105e-05
4.17396e-05
2.44614e-05
2.47572e-06
-2.51445e-05
-5.94738e-05
-0.00010175
-0.000153383
-0.000215947
-0.000291162
-0.000380842
-0.000486817
-0.000610777
-0.000754009
-0.000917015
-0.00109902
-0.0012974
-0.00150709
-0.00172006
-0.0019252
-0.00210928
-0.00225986
-0.00237109
-0.00245061
-0.00252185
-0.00262292
-0.00276377
-0.0029538
-0.00316029
-0.00333579
-0.00345518
-0.00347934
-0.00340074
-0.00321074
-0.00290316
-0.00247559
-0.00193127
-0.00127795
-0.00052909
0.000292759
0.00115693
0.00203078
0.00288529
0.00369643
0.00444542
0.00511392
0.00569392
0.00617626
0.00655732
0.00683519
0.00700965
0.00708188
0.00705432
0.00693071
0.00671609
0.00641669
0.00603955
0.00559309
0.00508488
0.00451134
0.00388312
0.00318819
0.0024221
0.00157923
0.000650721
-0.00037437
-0.00148402
-0.00266766
-0.00389465
-0.00511974
-0.00628565
-0.00732961
-0.00819185
-0.00882439
-0.00919822
-0.00930673
-0.00916564
-0.0088096
-0.00828551
-0.00764346
-0.00692781
-0.00617125
-0.00539799
-0.00462873
-0.00387724
-0.00316105
-0.00250698
-0.00194667
-0.00150281
-0.00117627
-0.000941863
-0.000757307
-0.000583165
-0.000399328
-0.000205062
-8.48814e-06
0.000181035
0.000355308
0.000508446
0.000637443
0.000741675
0.000822102
0.000880687
0.000919926
0.000942494
0.000951018
0.000947955
0.000935518
0.000915655
0.000890046
0.000860122
0.000827083
0.000791927
0.000755473
0.000718388
0.000681211
0.000644368
0.000608193
0.000572943
0.000538813
0.000505941
0.000474426
0.000444329
0.000415682
0.000388496
0.000362762
0.000338458
0.00031555
0.000293996
0.000273749
0.000254757
0.000236965
0.000220314
0.000204747
0.000190208
0.00017664
0.000163986
0.000152195
0.000141216
0.000130999
0.000121495
0.000112659
0.000104448
9.68215e-05
8.97401e-05
8.31672e-05
7.70685e-05
7.14114e-05
6.61657e-05
6.1303e-05
5.67968e-05
5.2622e-05
4.87553e-05
4.5175e-05
4.18607e-05
3.87935e-05
3.59558e-05
3.33313e-05
3.0905e-05
2.86627e-05
2.65918e-05
2.46802e-05
2.29166e-05
2.12907e-05
1.9793e-05
1.84144e-05
1.7147e-05
1.59832e-05
1.49163e-05
1.394e-05
1.30485e-05
1.22366e-05
1.15001e-05
1.08324e-05
1.02357e-05
9.67448e-06
6.28077e-05
6.30395e-05
6.35137e-05
6.4204e-05
6.51222e-05
6.6248e-05
6.75703e-05
6.9072e-05
7.07296e-05
7.25149e-05
7.43929e-05
7.63202e-05
7.82437e-05
8.00982e-05
8.18047e-05
8.32675e-05
8.43707e-05
8.49743e-05
8.49102e-05
8.39765e-05
8.1932e-05
7.84884e-05
7.33019e-05
6.5964e-05
5.59907e-05
4.281e-05
2.57482e-05
4.01457e-06
-2.33139e-05
-5.73083e-05
-9.92048e-05
-0.000150415
-0.000212521
-0.000287257
-0.000376462
-0.000482013
-0.000605672
-0.000748829
-0.000912111
-0.00109488
-0.00129467
-0.00150651
-0.00172236
-0.0019308
-0.00211771
-0.00226906
-0.00237714
-0.0024498
-0.00251608
-0.00261788
-0.00277036
-0.00297173
-0.00318781
-0.00337349
-0.00349094
-0.00351653
-0.00343746
-0.00324591
-0.00293544
-0.00250354
-0.00195372
-0.00129362
-0.00053642
0.000294715
0.00116767
0.00204867
0.00290843
0.00372308
0.00447338
0.00514268
0.00572224
0.00620462
0.00658565
0.00686325
0.00703711
0.0071083
0.0070792
0.00695355
0.0067365
0.00643436
0.00605416
0.0056031
0.00508659
0.00450546
0.00386995
0.00317384
0.0024108
0.00157012
0.000644685
-0.000373342
-0.00148214
-0.00266759
-0.00389908
-0.005131
-0.00630525
-0.00735764
-0.0082267
-0.00886306
-0.00923696
-0.00934197
-0.00919453
-0.00883038
-0.0082982
-0.00764986
-0.00692982
-0.00616968
-0.00539456
-0.00462218
-0.00386625
-0.00314361
-0.00248238
-0.00191721
-0.00147353
-0.00115298
-0.000928291
-0.000752908
-0.000583961
-0.000401076
-0.000205374
-6.63738e-06
0.000184938
0.000360729
0.0005147
0.000643935
0.000747972
0.000827923
0.000885876
0.000924423
0.000946299
0.000954171
0.000950514
0.000937553
0.000917235
0.000891239
0.000860988
0.000827677
0.000792296
0.000755659
0.000718427
0.000681133
0.000644197
0.000607951
0.000572648
0.000538479
0.00050558
0.000474048
0.000443941
0.000415291
0.000388106
0.000362378
0.000338082
0.000315185
0.000293643
0.000273409
0.000254429
0.000236647
0.000220007
0.000204452
0.000189929
0.000176378
0.000163743
0.00015197
0.000141007
0.000130804
0.000121314
0.000112491
0.000104292
9.66768e-05
8.96057e-05
8.30426e-05
7.69528e-05
7.13041e-05
6.60662e-05
6.12107e-05
5.67112e-05
5.25426e-05
4.86817e-05
4.51067e-05
4.17973e-05
3.87348e-05
3.59013e-05
3.32808e-05
3.08581e-05
2.86193e-05
2.65515e-05
2.46427e-05
2.28818e-05
2.12584e-05
1.97629e-05
1.83864e-05
1.71209e-05
1.59589e-05
1.48936e-05
1.39187e-05
1.30286e-05
1.22179e-05
1.14825e-05
1.08156e-05
1.02198e-05
9.66001e-06
6.27241e-05
6.29561e-05
6.34321e-05
6.41255e-05
6.50475e-05
6.61783e-05
6.75072e-05
6.90171e-05
7.06852e-05
7.24835e-05
7.43775e-05
7.63244e-05
7.82717e-05
8.01553e-05
8.18971e-05
8.34025e-05
8.45569e-05
8.52222e-05
8.5232e-05
8.43869e-05
8.24481e-05
7.91303e-05
7.40933e-05
6.69323e-05
5.71678e-05
4.42329e-05
2.74591e-05
6.06093e-06
-2.08791e-05
-5.44271e-05
-9.58171e-05
-0.000146463
-0.000207957
-0.00028205
-0.000370615
-0.000475588
-0.000598825
-0.000741853
-0.000905474
-0.00108925
-0.0012909
-0.00150563
-0.00172534
-0.00193818
-0.00212899
-0.002282
-0.00238757
-0.0024528
-0.00250881
-0.00260057
-0.00275135
-0.00295828
-0.00318484
-0.00338226
-0.00351269
-0.00354575
-0.00347158
-0.003284
-0.00297613
-0.00254505
-0.0019943
-0.00133093
-0.000567185
0.000273347
0.00115681
0.00204788
0.00291667
0.00373929
0.00449616
0.00517101
0.00575445
0.00623928
0.00662164
0.0068998
0.00707364
0.00714437
0.00711442
0.00698757
0.00676899
0.00646512
0.00608338
0.00563167
0.00511623
0.00453986
0.00390875
0.00321718
0.00245806
0.00162104
0.000695162
-0.000328153
-0.00144588
-0.0026455
-0.003897
-0.00515348
-0.00635429
-0.00743185
-0.00832126
-0.00897044
-0.00934825
-0.00944831
-0.00928826
-0.00890623
-0.00835441
-0.00768797
-0.00695278
-0.00618123
-0.00539674
-0.00461726
-0.0038538
-0.00312147
-0.00244984
-0.00187761
-0.00143394
-0.00112157
-0.000910295
-0.000747524
-0.000585548
-0.000403738
-0.000205922
-4.17605e-06
0.000190205
0.00036804
0.000523116
0.00065265
0.000756408
0.000835708
0.000892806
0.00093042
0.000951368
0.000958367
0.000953918
0.000940257
0.000919333
0.00089282
0.000862134
0.000828461
0.000792782
0.000755902
0.000718475
0.000681024
0.000643967
0.000607626
0.000572253
0.000538031
0.000505097
0.000473542
0.000443422
0.000414768
0.000387586
0.000361865
0.000337581
0.000314699
0.000293174
0.000272959
0.000254001
0.000236242
0.000219625
0.000204094
0.000189591
0.000176058
0.00016344
0.000151683
0.000140736
0.000130549
0.000121074
0.000112266
0.000104081
9.64791e-05
8.94207e-05
8.28697e-05
7.67913e-05
7.11535e-05
6.59258e-05
6.10799e-05
5.65893e-05
5.24291e-05
4.8576e-05
4.50084e-05
4.17059e-05
3.86497e-05
3.58223e-05
3.32073e-05
3.07897e-05
2.85557e-05
2.64924e-05
2.45877e-05
2.28307e-05
2.12108e-05
1.97185e-05
1.8345e-05
1.70823e-05
1.59228e-05
1.48598e-05
1.38871e-05
1.2999e-05
1.21901e-05
1.14562e-05
1.07907e-05
1.01961e-05
9.63776e-06
6.26194e-05
6.2852e-05
6.333e-05
6.40269e-05
6.49538e-05
6.60909e-05
6.74279e-05
6.89483e-05
7.06294e-05
7.24438e-05
7.43577e-05
7.63289e-05
7.83059e-05
8.02257e-05
8.20113e-05
8.35697e-05
8.47879e-05
8.553e-05
8.56319e-05
8.4897e-05
8.30898e-05
7.99287e-05
7.50778e-05
6.81372e-05
5.86329e-05
4.60043e-05
2.95896e-05
8.60989e-06
-1.78452e-05
-5.08356e-05
-9.15916e-05
-0.00014153
-0.000202255
-0.000275537
-0.000363293
-0.000467527
-0.000590219
-0.000733068
-0.000897091
-0.0010821
-0.00128607
-0.0015044
-0.00172903
-0.00194764
-0.00214371
-0.00229892
-0.00240043
-0.0024544
-0.00249649
-0.00257976
-0.00273559
-0.00295774
-0.00320371
-0.00341889
-0.00355881
-0.00359725
-0.003526
-0.00334014
-0.00303198
-0.0025981
-0.00204239
-0.00137132
-0.000596117
0.000258849
0.00115716
0.00206126
0.00294064
0.00377154
0.00453438
0.00521343
0.00579925
0.00628545
0.00666841
0.00694653
0.00711972
0.00718913
0.00715712
0.00702745
0.00680537
0.00649755
0.00611174
0.00565604
0.00513707
0.00455906
0.00392709
0.00323689
0.00248048
0.00164683
0.000724309
-0.000297694
-0.00142004
-0.0026309
-0.00390015
-0.00517945
-0.00640542
-0.00750689
-0.00841527
-0.00907554
-0.00945514
-0.00954793
-0.00937309
-0.00897154
-0.00839946
-0.0077156
-0.00696701
-0.00618523
-0.00539371
-0.00460802
-0.0038367
-0.0030928
-0.00240807
-0.00182675
-0.0013831
-0.00108147
-0.000887854
-0.000741536
-0.000588362
-0.000407583
-0.000206801
-1.09578e-06
0.000196897
0.000377324
0.000533765
0.000663641
0.000767018
0.000845475
0.000901483
0.000937917
0.000957697
0.000963599
0.000958158
0.000943621
0.00092194
0.000894783
0.000863555
0.000829431
0.000793381
0.000756199
0.000718528
0.000680884
0.000643674
0.000607217
0.000571755
0.00053747
0.000504491
0.000472907
0.000442772
0.000414113
0.000386934
0.000361224
0.000336955
0.000314091
0.000292587
0.000272395
0.00025346
0.000235725
0.000219133
0.000203626
0.000189147
0.00017564
0.000163047
0.000151314
0.000140391
0.000130226
0.000120773
0.000111985
0.000103819
9.62345e-05
8.91928e-05
8.26574e-05
7.65938e-05
7.09697e-05
6.57549e-05
6.09211e-05
5.64417e-05
5.22919e-05
4.84486e-05
4.489e-05
4.15959e-05
3.85476e-05
3.57275e-05
3.31192e-05
3.0708e-05
2.84798e-05
2.64218e-05
2.45222e-05
2.27697e-05
2.1154e-05
1.96657e-05
1.82958e-05
1.70364e-05
1.588e-05
1.48198e-05
1.38497e-05
1.29638e-05
1.2157e-05
1.1425e-05
1.07612e-05
1.0168e-05
9.61129e-06
6.24936e-05
6.27268e-05
6.32073e-05
6.39083e-05
6.48409e-05
6.59857e-05
6.73325e-05
6.88652e-05
7.05617e-05
7.23954e-05
7.43329e-05
7.63332e-05
7.83457e-05
8.03086e-05
8.21465e-05
8.37681e-05
8.50626e-05
8.58962e-05
8.61081e-05
8.55048e-05
8.38548e-05
8.0881e-05
7.62525e-05
6.95751e-05
6.03819e-05
4.81196e-05
3.21344e-05
1.16556e-05
-1.42187e-05
-4.65402e-05
-8.65348e-05
-0.000135623
-0.00019542
-0.000267722
-0.00035449
-0.000457814
-0.000579815
-0.0007224
-0.000886851
-0.00107328
-0.00128
-0.00150269
-0.00173335
-0.0019591
-0.00216181
-0.00232009
-0.00241716
-0.00245768
-0.00248234
-0.00255415
-0.00271283
-0.00294975
-0.00321559
-0.00344967
-0.00360353
-0.00365006
-0.00358381
-0.00340176
-0.00309517
-0.00265996
-0.00210058
-0.00142255
-0.000635436
0.000235594
0.00115088
0.00207018
0.0029623
0.00380377
0.00457493
0.00526018
0.00585014
0.00633896
0.00672333
0.00700187
0.00717471
0.00724305
0.00720926
0.00707715
0.00685207
0.00654087
0.00615165
0.005693
0.00517232
0.004595
0.00396521
0.0032791
0.00252814
0.00169997
0.000780037
-0.000244324
-0.00137583
-0.0026039
-0.00389873
-0.00521031
-0.00647174
-0.00760709
-0.00854277
-0.00921979
-0.00960361
-0.00968828
-0.00949489
-0.00906781
-0.00846841
-0.00776042
-0.0069928
-0.00619659
-0.00539404
-0.0045997
-0.00381816
-0.00305935
-0.00235764
-0.0017644
-0.00132043
-0.0010323
-0.000861134
-0.00073556
-0.000593035
-0.000412979
-0.000208144
2.60989e-06
0.000205095
0.000388678
0.000546733
0.000676971
0.000779843
0.000857248
0.000911918
0.000946915
0.00096528
0.000969858
0.000963223
0.000947636
0.000925048
0.000897118
0.000865241
0.000830578
0.000794085
0.000756542
0.000718581
0.000680706
0.000643315
0.000606719
0.000571153
0.000536792
0.000503761
0.000472144
0.000441991
0.000413326
0.000386151
0.000360453
0.000336201
0.00031336
0.000291883
0.000271719
0.000252814
0.00023511
0.00021855
0.000203075
0.000188627
0.000175149
0.000162584
0.000150879
0.000139982
0.000129842
0.000120413
0.000111648
0.000103504
9.59401e-05
8.89179e-05
8.24009e-05
7.63547e-05
7.07469e-05
6.55475e-05
6.0728e-05
5.6262e-05
5.21248e-05
4.82932e-05
4.47455e-05
4.14616e-05
3.84228e-05
3.56115e-05
3.30114e-05
3.06078e-05
2.83867e-05
2.63353e-05
2.44417e-05
2.26949e-05
2.10844e-05
1.96008e-05
1.82353e-05
1.698e-05
1.58273e-05
1.47706e-05
1.38036e-05
1.29206e-05
1.21164e-05
1.13867e-05
1.0725e-05
1.01336e-05
9.57871e-06
6.23464e-05
6.25806e-05
6.30637e-05
6.37696e-05
6.47089e-05
6.58624e-05
6.72204e-05
6.87674e-05
7.04819e-05
7.23379e-05
7.43028e-05
7.63367e-05
7.83903e-05
8.04032e-05
8.23018e-05
8.39966e-05
8.53794e-05
8.63193e-05
8.66587e-05
8.62081e-05
8.47404e-05
8.19838e-05
7.76134e-05
7.12418e-05
6.24097e-05
5.05731e-05
3.50872e-05
1.51909e-05
-1.00075e-05
-4.15493e-05
-8.06546e-05
-0.000128747
-0.000187454
-0.000258601
-0.000344195
-0.000446424
-0.000567575
-0.000709798
-0.000874688
-0.00106272
-0.0012726
-0.00150039
-0.00173822
-0.00197269
-0.00218384
-0.00234642
-0.00243831
-0.00246165
-0.00246353
-0.00252083
-0.00268384
-0.00294115
-0.00323413
-0.00349308
-0.00366317
-0.00371794
-0.00365649
-0.0034782
-0.00317262
-0.00273484
-0.00217022
-0.00148308
-0.000680698
0.000210677
0.00114708
0.00208482
0.002992
0.00384564
0.00462607
0.0053178
0.00591183
0.00640306
0.00678859
0.00706732
0.00723949
0.00730628
0.00726999
0.00713439
0.00690491
0.00658867
0.00619423
0.00573083
0.00520676
0.00462841
0.00399971
0.00331739
0.00257235
0.00175041
0.000834755
-0.000189798
-0.00132935
-0.0025753
-0.00389813
-0.0052458
-0.00654721
-0.00772076
-0.00868693
-0.0093821
-0.00976951
-0.00984362
-0.00962778
-0.00917045
-0.00853928
-0.00780419
-0.0070161
-0.00620449
-0.00539112
-0.00458844
-0.0037961
-0.0030198
-0.00229729
-0.00168915
-0.00124458
-0.00097322
-0.000830189
-0.000730311
-0.000600318
-0.000420346
-0.000210079
6.97216e-06
0.000214907
0.000402231
0.00056213
0.000692722
0.000794936
0.000871055
0.00092412
0.000957413
0.000974109
0.000977135
0.000969102
0.000952288
0.000928642
0.000899814
0.000867184
0.000831896
0.000794888
0.000756927
0.00071863
0.000680488
0.000642888
0.000606131
0.000570444
0.000535996
0.000502904
0.000471249
0.000441076
0.000412405
0.000385236
0.000359552
0.000335322
0.000312507
0.00029106
0.000270929
0.000252059
0.00023439
0.000217866
0.000202426
0.000188013
0.00017457
0.000162039
0.000150367
0.000139502
0.000129393
0.000119992
0.000111254
0.000103136
9.55972e-05
8.85982e-05
8.21029e-05
7.60771e-05
7.04886e-05
6.53071e-05
6.05044e-05
5.60541e-05
5.19315e-05
4.81135e-05
4.45785e-05
4.13065e-05
3.82787e-05
3.54776e-05
3.28871e-05
3.04923e-05
2.82794e-05
2.62356e-05
2.43491e-05
2.26087e-05
2.10041e-05
1.95261e-05
1.81657e-05
1.6915e-05
1.57667e-05
1.47139e-05
1.37505e-05
1.28709e-05
1.20697e-05
1.13426e-05
1.06833e-05
1.0094e-05
9.54117e-06
6.21777e-05
6.24131e-05
6.28992e-05
6.36105e-05
6.45574e-05
6.57208e-05
6.70916e-05
6.86548e-05
7.03896e-05
7.22708e-05
7.42668e-05
7.63388e-05
7.8439e-05
8.05086e-05
8.24758e-05
8.42538e-05
8.57368e-05
8.67974e-05
8.72815e-05
8.70041e-05
8.57434e-05
8.32336e-05
7.91564e-05
7.31322e-05
6.47107e-05
5.33581e-05
3.84404e-05
1.92073e-05
-5.22073e-06
-3.58724e-05
-7.39601e-05
-0.00012091
-0.000178365
-0.000248175
-0.000332402
-0.000433337
-0.000553453
-0.000695183
-0.000860484
-0.00105026
-0.00126368
-0.00149731
-0.00174353
-0.00198847
-0.00221009
-0.00237849
-0.00246468
-0.00246703
-0.0024405
-0.00247981
-0.00264787
-0.00292948
-0.00325419
-0.00354159
-0.00372999
-0.00379356
-0.00373745
-0.00356398
-0.00326004
-0.00281971
-0.00224988
-0.0015532
-0.000733661
0.000181202
0.00114194
0.00210062
0.0030248
0.0038923
0.00468342
0.00538265
0.00598155
0.00647576
0.00686279
0.00714186
0.00731338
0.00737856
0.00733964
0.00720038
0.00696631
0.00664483
0.00624501
0.00577681
0.00524951
0.0046705
0.00404391
0.00336676
0.0026292
0.0018151
0.000904779
-0.000120307
-0.00126985
-0.0025375
-0.00389411
-0.00528533
-0.00663508
-0.00785491
-0.00885816
-0.00957557
-0.00996774
-0.0100296
-0.00978726
-0.00929373
-0.00862446
-0.00785721
-0.00704508
-0.00621577
-0.0053892
-0.00457731
-0.00377278
-0.0029754
-0.00222713
-0.00160022
-0.00115439
-0.000903474
-0.000795263
-0.000726802
-0.000611197
-0.000430203
-0.000212754
1.20349e-05
0.000226473
0.000418138
0.000580084
0.000710983
0.000812352
0.000886925
0.0009381
0.000969408
0.000984175
0.000985414
0.00097578
0.000957563
0.000932711
0.00090286
0.000869372
0.000833372
0.000795781
0.000757346
0.000718668
0.000680223
0.000642386
0.000605448
0.000569625
0.000535078
0.000501919
0.000470222
0.000440026
0.00041135
0.000384188
0.00035852
0.000334315
0.000311531
0.000290119
0.000270026
0.000251195
0.000233569
0.000217086
0.000201688
0.000187316
0.000173912
0.00016142
0.000149785
0.000138955
0.00012888
0.000119512
0.000110806
0.000102717
9.52057e-05
8.82329e-05
8.17623e-05
7.57597e-05
7.0193e-05
6.50319e-05
6.02484e-05
5.5816e-05
5.171e-05
4.79076e-05
4.43872e-05
4.11287e-05
3.81134e-05
3.53241e-05
3.27444e-05
3.03598e-05
2.81563e-05
2.61212e-05
2.42427e-05
2.25097e-05
2.0912e-05
1.94403e-05
1.80857e-05
1.68405e-05
1.56971e-05
1.46489e-05
1.36896e-05
1.28138e-05
1.2016e-05
1.1292e-05
1.06354e-05
1.00486e-05
9.49807e-06
6.19875e-05
6.22242e-05
6.27136e-05
6.34309e-05
6.43862e-05
6.55607e-05
6.69456e-05
6.85268e-05
7.02843e-05
7.21936e-05
7.42242e-05
7.63388e-05
7.84908e-05
8.06235e-05
8.26675e-05
8.45381e-05
8.6133e-05
8.73281e-05
8.79738e-05
8.78898e-05
8.68603e-05
8.46261e-05
8.08766e-05
7.52405e-05
6.7278e-05
5.6467e-05
4.21854e-05
2.36952e-05
1.30886e-07
-2.95209e-05
-6.64624e-05
-0.000112122
-0.000168158
-0.000236447
-0.000319102
-0.000418524
-0.000537397
-0.000678473
-0.000844124
-0.00103573
-0.00125305
-0.00149325
-0.00174915
-0.00200648
-0.00224102
-0.00241737
-0.00249755
-0.00247429
-0.00241199
-0.00242852
-0.00260268
-0.00291414
-0.0032775
-0.00359908
-0.00380854
-0.00388112
-0.00383047
-0.00366263
-0.00336054
-0.00291706
-0.00234151
-0.00163428
-0.000794735
0.00014797
0.00113729
0.00212004
0.00306345
0.00394658
0.00474967
0.0054571
0.00606118
0.00655846
0.00694699
0.00722633
0.00739708
0.0074604
0.00741841
0.00727483
0.00703524
0.00670735
0.00630083
0.00582651
0.00529485
0.0047144
0.00408979
0.00341834
0.00268939
0.00188484
0.000981721
-4.26069e-05
-0.00120212
-0.00249342
-0.00388795
-0.00532879
-0.00673399
-0.00800706
-0.00905289
-0.00979551
-0.0101925
-0.0102397
-0.00996606
-0.00943
-0.00871637
-0.0079126
-0.00707405
-0.00622513
-0.00538515
-0.00456465
-0.00374757
-0.00292563
-0.00214607
-0.00149589
-0.00104796
-0.000821871
-0.000756564
-0.000726266
-0.000626851
-0.000443124
-0.0002163
1.78804e-05
0.000239972
0.000436591
0.000600747
0.000731861
0.000832158
0.000904892
0.000953871
0.000982899
0.000995467
0.00099468
0.000983238
0.000963443
0.000937236
0.000906238
0.000871791
0.000834997
0.000796754
0.00075779
0.000718687
0.000679906
0.000641806
0.000604666
0.000568693
0.000534037
0.000500804
0.00046906
0.000438841
0.000410159
0.000383005
0.000357358
0.000333181
0.000310432
0.00028906
0.00026901
0.000250224
0.000232644
0.000216207
0.000200856
0.00018653
0.000173171
0.000160722
0.000149129
0.00013834
0.000128304
0.000118973
0.000110301
0.000102246
9.47656e-05
8.78224e-05
8.13796e-05
7.54032e-05
6.98611e-05
6.47231e-05
5.99611e-05
5.55488e-05
5.14616e-05
4.76767e-05
4.41726e-05
4.09293e-05
3.79282e-05
3.51519e-05
3.25846e-05
3.02112e-05
2.80183e-05
2.5993e-05
2.41235e-05
2.23988e-05
2.08089e-05
1.93442e-05
1.79962e-05
1.67569e-05
1.56191e-05
1.4576e-05
1.36215e-05
1.27498e-05
1.19558e-05
1.12353e-05
1.05818e-05
9.99776e-06
9.44977e-06
6.17755e-05
6.20136e-05
6.25068e-05
6.32306e-05
6.41951e-05
6.53817e-05
6.67822e-05
6.83832e-05
7.01655e-05
7.21056e-05
7.41744e-05
7.63356e-05
7.85448e-05
8.0747e-05
8.28752e-05
8.48478e-05
8.65658e-05
8.79091e-05
8.87327e-05
8.88618e-05
8.80869e-05
8.61566e-05
8.27684e-05
7.75605e-05
7.01044e-05
5.98914e-05
4.63127e-05
2.86436e-05
6.03519e-06
-2.25076e-05
-5.8174e-05
-0.000102394
-0.000156842
-0.000223419
-0.000304286
-0.000401961
-0.000519354
-0.000659578
-0.000825472
-0.00101897
-0.00124047
-0.00148794
-0.00175485
-0.00202674
-0.00227714
-0.00246418
-0.00253834
-0.00248403
-0.00237701
-0.00236505
-0.00254683
-0.00289462
-0.00330411
-0.00366561
-0.00389833
-0.00397929
-0.00393392
-0.00377286
-0.00347302
-0.0030259
-0.00244458
-0.00172639
-0.000864213
0.000110803
0.00113296
0.00214265
0.00310722
0.00400765
0.00482398
0.00554031
0.00614997
0.00665059
0.00704074
0.00732039
0.00749029
0.00755157
0.00750622
0.00735786
0.00711216
0.00677714
0.00636316
0.00588202
0.0053455
0.00476343
0.00414126
0.00347662
0.00275805
0.00196519
0.00107121
4.86381e-05
-0.00112148
-0.00243934
-0.00387725
-0.00537534
-0.00684486
-0.00817983
-0.00927512
-0.0100469
-0.0104494
-0.0104795
-0.0101694
-0.00958361
-0.00881831
-0.00797303
-0.00710531
-0.00623479
-0.00538042
-0.00455203
-0.00372216
-0.0028714
-0.00205373
-0.00137464
-0.000923299
-0.000727104
-0.000714495
-0.000730345
-0.000648752
-0.000459767
-0.000220835
2.46282e-05
0.000255631
0.000457816
0.000624293
0.000755475
0.000854425
0.000924992
0.000971441
0.000997879
0.00100797
0.00100492
0.000991457
0.000969908
0.0009422
0.000909934
0.000874427
0.000836757
0.000797796
0.000758251
0.000718681
0.000679529
0.000641142
0.000603781
0.000567643
0.00053287
0.000499556
0.000467762
0.000437518
0.000408831
0.000381688
0.000356063
0.000331919
0.000309209
0.000287882
0.00026788
0.000249145
0.000231616
0.000215232
0.000199932
0.000185657
0.000172348
0.000159948
0.000148402
0.000137657
0.000127664
0.000118374
0.000109741
0.000101723
9.42773e-05
8.73668e-05
8.0955e-05
7.50076e-05
6.94927e-05
6.43803e-05
5.96421e-05
5.52521e-05
5.11858e-05
4.74203e-05
4.39343e-05
4.07079e-05
3.77225e-05
3.49608e-05
3.2407e-05
3.00463e-05
2.7865e-05
2.58506e-05
2.39911e-05
2.22757e-05
2.06942e-05
1.92375e-05
1.78967e-05
1.66642e-05
1.55325e-05
1.44951e-05
1.35457e-05
1.26788e-05
1.18891e-05
1.11723e-05
1.05223e-05
9.94128e-06
9.39612e-06
6.15416e-05
6.17812e-05
6.22784e-05
6.30093e-05
6.39838e-05
6.51836e-05
6.6601e-05
6.82234e-05
7.00327e-05
7.20064e-05
7.41165e-05
7.63285e-05
7.85997e-05
8.08774e-05
8.30974e-05
8.5181e-05
8.7033e-05
8.85378e-05
8.95552e-05
8.99163e-05
8.94189e-05
8.78198e-05
8.48257e-05
8.00849e-05
7.31815e-05
6.36217e-05
5.08114e-05
3.40406e-05
1.24786e-05
-1.4847e-05
-4.91094e-05
-9.17399e-05
-0.000144428
-0.000209096
-0.000287949
-0.000383618
-0.000499262
-0.000638394
-0.000804376
-0.000999749
-0.00122567
-0.00148108
-0.00176039
-0.00204925
-0.00231898
-0.00252034
-0.00258897
-0.00249721
-0.00233425
-0.00228659
-0.00247789
-0.00286981
-0.00333435
-0.00374264
-0.00400094
-0.00408906
-0.00404861
-0.00389582
-0.00359867
-0.00314716
-0.00256023
-0.0018309
-0.000943079
6.95608e-05
0.00112948
0.00216919
0.00315691
0.00407637
0.00490722
0.00563307
0.00624859
0.00675266
0.00714446
0.00742437
0.00759336
0.00765242
0.00760337
0.0074497
0.0071971
0.00685393
0.00643128
0.00594212
0.0053997
0.00481538
0.0041957
0.00353877
0.00283234
0.00205349
0.00117108
0.000152007
-0.00102858
-0.00237532
-0.00386175
-0.00542475
-0.0069677
-0.00837354
-0.00952538
-0.0103302
-0.0107383
-0.0107483
-0.0103962
-0.00975254
-0.00892745
-0.00803569
-0.00713658
-0.00624278
-0.00537351
-0.00453915
-0.00369716
-0.00281294
-0.00194906
-0.00123425
-0.000777674
-0.000617406
-0.000669535
-0.000741099
-0.00067867
-0.00048084
-0.000226437
3.24557e-05
0.000273732
0.000482083
0.000650923
0.000781958
0.000879232
0.000947261
0.000990821
0.00101434
0.00102167
0.0010161
0.00100041
0.000976937
0.000947582
0.000913928
0.000877263
0.000838637
0.000798895
0.000758716
0.000718639
0.000679087
0.000640387
0.000602788
0.000566473
0.000531572
0.000498172
0.000466325
0.000436056
0.000407364
0.000380234
0.000354636
0.000330528
0.000307862
0.000286584
0.000266636
0.000247957
0.000230485
0.000214158
0.000198916
0.000184697
0.000171443
0.000159096
0.000147602
0.000136907
0.000126961
0.000117716
0.000109126
0.000101148
9.37407e-05
8.68664e-05
8.04885e-05
7.45731e-05
6.90882e-05
6.40038e-05
5.92919e-05
5.49264e-05
5.0883e-05
4.71388e-05
4.36727e-05
4.04648e-05
3.74966e-05
3.4751e-05
3.22121e-05
2.98653e-05
2.76969e-05
2.56943e-05
2.38458e-05
2.21406e-05
2.05685e-05
1.91204e-05
1.77876e-05
1.65624e-05
1.54375e-05
1.44063e-05
1.34626e-05
1.26009e-05
1.18158e-05
1.11033e-05
1.04569e-05
9.87931e-06
9.33726e-06
6.12856e-05
6.15268e-05
6.20282e-05
6.27668e-05
6.37521e-05
6.49659e-05
6.64014e-05
6.8047e-05
6.98853e-05
7.1895e-05
7.40497e-05
7.63164e-05
7.86544e-05
8.10135e-05
8.33323e-05
8.55357e-05
8.75322e-05
8.92111e-05
9.04376e-05
9.10492e-05
9.08514e-05
8.96102e-05
8.7042e-05
8.2806e-05
7.65003e-05
6.76477e-05
5.567e-05
3.98725e-05
1.94458e-05
-6.55562e-06
-3.92847e-05
-8.01738e-05
-0.000130928
-0.000193487
-0.000270086
-0.00036347
-0.000477061
-0.000614816
-0.000780674
-0.000977846
-0.00120834
-0.00147229
-0.00176541
-0.00207388
-0.0023671
-0.00258753
-0.00265184
-0.00251501
-0.00228202
-0.00218972
-0.00239316
-0.00283875
-0.00336885
-0.00383181
-0.00411772
-0.00421056
-0.00417423