/*--------------------------------*- C++ -*----------------------------------*\
| =========                 |                                                 |
| \\      /  F ield         | OpenFOAM: The Open Source CFD Toolbox           |
|  \\    /   O peration     | Version:  v2006                                 |
|   \\  /    A nd           | Website:  www.openfoam.com                      |
|    \\/     M anipulation  |                                                 |
\*---------------------------------------------------------------------------*/
FoamFile
{
    version     2.0;
    format      ascii;
    class       surfaceScalarField;
    location    "6.7";
    object      alphaPhi0.water;
}
// * * * * * * * * * * * * * * * * * * * * * * * * * * * * * * * * * * * * * //

dimensions      [0 3 -1 0 0 0 0];
oriented        oriented;


internalField   nonuniform List<scalar> 
299200
(
0.000769979
-0.000769979
0.00165365
-0.000883674
0.00253185
-0.0008782
0.00339615
-0.000864296
0.00425717
-0.000861019
0.0051152
-0.000858031
0.00596998
-0.000854778
0.00682148
-0.000851504
0.00766891
-0.000847424
0.00851135
-0.000842447
0.0093479
-0.000836545
0.0101778
-0.00082993
0.0110004
-0.000822586
0.0118151
-0.000814712
0.0126213
-0.000806138
0.0134183
-0.000797067
0.0142058
-0.000787468
0.0149832
-0.000777434
0.01575
-0.00076677
0.0165056
-0.000755597
0.0172495
-0.000743922
0.0179813
-0.000731762
0.0187004
-0.000719126
0.0194064
-0.000705981
0.0200988
-0.000692421
0.0207771
-0.000678333
0.0214408
-0.000663664
0.0220891
-0.000648278
0.0227214
-0.000632264
0.0233371
-0.000615705
0.0239358
-0.00059874
0.0245175
-0.000581718
0.0250827
-0.000565164
0.0256324
-0.000549723
0.0261682
-0.000535813
0.0266917
-0.000523494
0.0272039
-0.000512151
0.0277038
-0.000499968
0.028188
-0.000484219
0.0286503
-0.000462269
0.0290839
-0.00043357
0.0294813
-0.000397452
0.0298359
-0.0003546
0.0301439
-0.000307934
0.0304067
-0.000262809
0.030632
-0.000225339
0.0308336
-0.000201587
0.0310254
-0.00019181
0.0312223
-0.000196857
0.0314344
-0.000212106
0.0316706
-0.000236224
0.0319368
-0.000266232
0.0322325
-0.00029568
0.0325428
-0.000310325
0.0328279
-0.000285042
0.0330228
-0.00019488
0.0330783
-5.55126e-05
0.0330035
7.47995e-05
0.0328617
0.000141762
0.0326913
0.000170455
0.0325017
0.000189607
0.0322929
0.000208788
0.0320666
0.000226218
0.0318262
0.000240415
0.0315745
0.000251753
0.0313133
0.000261144
0.0310441
0.00026925
0.0307676
0.000276469
0.0304844
0.000283212
0.0301945
0.000289907
0.0298977
0.00029678
0.0295938
0.000303937
0.0292824
0.000311416
0.0289631
0.00031923
0.0286356
0.000327486
0.0282993
0.00033633
0.0279536
0.000345699
0.0275981
0.000355534
0.0272322
0.000365897
0.0268554
0.000376805
0.026467
0.000388353
0.0260665
0.000400483
0.0256535
0.000413037
0.0252276
0.000425914
0.0247885
0.000439079
0.0243351
0.000453378
0.0238658
0.000469331
0.0233787
0.000487126
0.0228727
0.000505966
0.0223483
0.000524458
0.0218081
0.000540197
0.0212561
0.000551962
0.0206955
0.000560614
0.020125
0.000570516
0.0195379
0.000587041
0.0189239
0.000614064
0.0182687
0.000655116
0.0175592
0.000709516
0.0167897
0.000769509
0.0159673
0.000822396
0.0151132
0.000854162
0.0142539
0.000859247
0.0134217
0.000832248
0.0126445
0.000777125
0.0119443
0.00070026
0.0113332
0.000611084
0.0108144
0.000518794
0.010384
0.000430393
0.0100338
0.000350219
0.00975342
0.000280371
0.00953207
0.000221356
0.00935946
0.000172603
0.00922641
0.000133057
0.00912494
0.000101463
0.00904839
7.65515e-05
0.00899124
5.71503e-05
0.0089491
4.21404e-05
0.0089184
3.06995e-05
0.00889623
2.21768e-05
0.00888016
1.60639e-05
0.00886815
1.201e-05
0.00885836
9.78738e-06
0.00884909
9.27555e-06
0.00883868
1.0411e-05
0.00882552
1.31565e-05
0.00880801
1.75076e-05
0.00878459
2.34209e-05
0.00875377
3.08253e-05
0.00871414
3.96321e-05
0.00866439
4.97411e-05
0.00860335
6.10448e-05
0.00852992
7.3426e-05
0.00844316
8.67592e-05
0.00834224
0.000100921
0.00822642
0.000115819
0.008095
0.000131427
0.00794717
0.000147828
0.00778199
0.000165178
0.0075983
0.000183693
0.00739471
0.000203588
0.00716976
0.000224955
0.00692204
0.000247716
0.00665032
0.000271722
0.0063537
0.000296614
0.00603152
0.000322184
0.00568322
0.000348303
0.00530821
0.000375004
0.00490543
0.00040278
0.00447349
0.00043194
0.00401065
0.00046284
0.00351503
0.000495623
0.00298492
0.000530109
0.00241913
0.000565787
0.00181728
0.000601858
0.00117984
0.000637434
0.000508133
0.00067171
-0.000195739
0.000703872
-0.000929491
0.000733751
-0.00169075
0.00076126
-0.00247755
0.000786796
-0.00328855
0.000811
-0.00412319
0.000834647
-0.00498171
0.000858513
-0.00586499
0.000883281
-0.00677444
0.000909452
-0.00771174
0.000937301
-0.00867859
0.000966854
-0.00967648
0.000997887
-0.0107065
0.00102997
-0.011769
0.00106253
-0.012864
0.00109497
-0.0139907
0.00112677
-0.0151483
0.0011576
-0.0163357
0.00118739
-0.0175519
0.00121624
-0.0187961
0.00124414
-0.0200666
0.00127051
-0.0213602
0.00129364
-0.0226708
0.00131057
-0.0239881
0.00131725
-0.0252973
0.00130922
-0.0265814
0.00128415
-0.027824
0.00124256
-0.029012
0.00118802
-0.0301382
0.00112619
-0.0312014
0.00106319
-0.0322054
0.00100405
-0.0331574
0.000951959
-0.0340656
0.000908216
-0.0349383
0.000872717
-0.0357829
0.000844516
-0.0366052
0.000822317
-0.03741
0.00080479
-0.0382007
0.000790744
-0.0389799
0.000779179
-0.0397492
0.0007693
-0.0405097
0.000760493
-0.041262
0.000752295
-0.0420063
0.000744357
-0.0427427
0.000736417
-0.043471
0.000728276
-0.0441908
0.000719781
-0.0449016
0.000710816
-0.0456029
0.000701286
-0.046294
0.000691111
-0.0469742
0.000680228
-0.0476428
0.000668589
-0.048299
0.000656161
-0.0489419
0.000642915
-0.0495707
0.000628831
-0.0501846
0.000613886
-0.0507827
0.000598055
-0.051364
0.000581301
-0.0519276
0.000563583
-0.0524724
0.000544872
-0.0529976
0.000525173
-0.0535022
0.000504543
-0.0539853
0.000483097
-0.0544462
0.000460993
-0.0548846
0.000438394
-0.0553
0.000415395
-0.055692
0.00039194
-0.0560597
0.000367741
-0.056402
0.000342273
-0.0567168
0.000314844
-0.0570016
0.000284771
-0.0572533
0.000251664
-0.057469
0.000215711
-0.0576469
0.000177927
-0.0577869
0.000140012
-0.0578907
0.000103817
-0.0579609
7.01355e-05
-0.0580014
4.05194e-05
-0.0580154
1.40156e-05
-0.0580049
-1.04721e-05
-0.0579701
-3.48143e-05
-0.0579088
-6.13621e-05
-0.0578173
-9.14364e-05
-0.0576922
-0.000125121
-0.0575307
-0.000161524
-0.0573316
-0.000199103
-0.0570955
-0.000236093
-0.0568245
-0.000270935
-0.056522
-0.000302583
-0.0561913
-0.000330624
-0.0558361
-0.000355211
-0.0554592
-0.000376887
-0.0550629
-0.000396369
-0.0546485
-0.000414357
-0.0542171
-0.000431412
-0.0537692
-0.000447909
-0.0533051
-0.000464044
-0.0528253
-0.00047988
-0.0523299
-0.000495399
-0.0518193
-0.000510546
-0.0512941
-0.000525258
-0.0507546
-0.000539481
-0.0502014
-0.000553172
-0.0496351
-0.000566302
-0.0490563
-0.000578847
-0.0484655
-0.00059079
-0.0478634
-0.00060212
-0.0472505
-0.000612828
-0.0466276
-0.000622908
-0.0459953
-0.000632357
-0.0453541
-0.000641174
-0.0447047
-0.000649362
-0.0440478
-0.000656924
-0.0433839
-0.000663866
-0.0427137
-0.000670198
-0.0420378
-0.00067593
-0.0413567
-0.000681073
-0.0406711
-0.000685642
-0.0399814
-0.000689651
-0.0392883
-0.000693117
-0.0385923
-0.000696057
-0.0378938
-0.000698488
-0.0371933
-0.000700431
-0.0364914
-0.000701903
-0.0357885
-0.000702924
-0.035085
-0.000703513
-0.0343813
-0.000703691
-0.0336778
-0.000703477
-0.0329749
-0.000702891
-0.032273
-0.00070195
-0.0315723
-0.000700676
-0.0308732
-0.000699086
-0.030176
-0.000697198
-0.029481
-0.00069503
-0.0287884
-0.000692599
-0.0280985
-0.000689921
-0.0274115
-0.000687014
-0.0267276
-0.000683891
-0.026047
-0.000680567
-0.02537
-0.000677057
-0.0246966
-0.000673374
-0.0240271
-0.00066953
-0.0233615
-0.000665538
-0.0227001
-0.000661409
-0.022043
-0.000657155
-0.0213902
-0.000652785
-0.0207419
-0.00064831
-0.0200981
-0.00064374
-0.019459
-0.000639082
-0.0188247
-0.000634344
-0.0181952
-0.000629535
-0.0175705
-0.000624659
-0.0169508
-0.000619724
-0.016336
-0.000614734
-0.0157263
-0.000609693
-0.0151217
-0.000604606
-0.0145223
-0.000599477
-0.013928
-0.000594309
-0.0133388
-0.000589107
-0.012755
-0.000583868
-0.0121764
-0.000578592
-0.0116031
-0.000573279
-0.0110352
-0.000567929
-0.0104726
-0.000562541
-0.00991553
-0.000557111
-0.00936389
-0.000551636
-0.00881778
-0.000546109
-0.00827726
-0.000540526
-0.00774238
-0.000534878
-0.00721322
-0.000529159
-0.00668986
-0.000523364
-0.00617237
-0.00051749
-0.00566083
-0.000511541
-0.0051553
-0.000505522
-0.00465586
-0.000499444
-0.00416254
-0.000493318
-0.00367539
-0.000487152
-0.00319444
-0.000480945
-0.00271977
-0.000474679
-0.00225144
-0.000468323
-0.00178961
-0.000461834
-0.00133443
-0.000455177
-0.000886242
-0.00044819
-0.000445444
-0.000440798
-1.22138e-05
-0.00043323
0.00041319
-0.000425404
0.000830944
-0.000417754
0.00124125
-0.000410304
0.00164463
-0.000403378
0.00204226
-0.000397631
0.00243546
-0.0003932
0.00282588
-0.000390419
0.00321512
-0.000389242
0.00360459
-0.000389471
0.00399509
-0.000390498
0.00438673
-0.00039164
0.00477885
-0.00039212
0.0051703
-0.000391453
0.00555949
-0.000389187
0.00594477
-0.000385278
0.00632491
-0.000380142
0.00669878
-0.000373875
0.00706599
-0.000367204
0.00742642
-0.000360432
0.00778013
-0.00035371
0.00812723
-0.0003471
0.00846777
-0.000340541
0.00880166
-0.000333889
0.00912866
-0.000327
0.00944844
-0.000319785
0.00976073
-0.000312291
0.0100654
-0.000304633
0.0103623
-0.000296976
0.0106518
-0.000289493
0.0109341
-0.000282283
0.0112095
-0.000275389
0.0114783
-0.000268797
0.0117408
-0.000262452
0.0119971
-0.000256306
0.0122474
-0.000250335
0.0124919
-0.000244533
0.0127308
-0.000238898
0.0129643
-0.000233429
0.0131924
-0.000228127
0.0134154
-0.00022299
0.0136334
-0.000218017
0.0138466
-0.000213206
0.0140551
-0.000208553
0.0142592
-0.000204057
0.0144589
-0.000199715
0.0146544
-0.000195522
0.0148459
-0.000191475
0.0150335
-0.000187571
0.0152173
-0.000183803
0.0153975
-0.000180168
0.0155741
-0.00017666
0.0157474
-0.00017327
0.0159174
-0.000169991
0.0160842
-0.000166817
0.0162479
-0.000163741
0.0164087
-0.000160751
0.0165665
-0.000157836
0.0167215
-0.000154983
0.0168737
-0.000152183
0.0170231
-0.000149425
0.0171698
-0.0001467
0.0173138
-0.000143998
0.0174551
-0.000141305
0.0175937
-0.00013861
0.0177296
-0.000135903
0.0178628
-0.000133173
0.0179932
-0.000130412
0.0181208
-0.000127609
0.0182456
-0.000124754
0.0183674
-0.000121835
0.0184863
-0.000118841
0.018602
-0.000115762
0.0187146
-0.000112588
0.0188239
-0.000109308
0.0189298
-0.00010591
0.0190322
-0.000102386
0.0191309
-9.8725e-05
0.0192259
-9.49151e-05
0.0193168
-9.09456e-05
0.0194036
-8.68078e-05
0.0194861
-8.24933e-05
0.0195641
-7.79927e-05
0.0196374
-7.32968e-05
0.0197058
-6.83974e-05
0.0197691
-6.32893e-05
0.019827
-5.79674e-05
0.0198795
-5.24242e-05
0.0199261
-4.66495e-05
0.0199667
-4.06354e-05
0.0200011
-3.43769e-05
0.020029
-2.78687e-05
0.0200501
-2.10972e-05
0.0200641
-1.4028e-05
0.0200707
-6.58494e-06
0.0200698
9.18455e-07
0.0200601
9.72942e-06
0.0200408
1.92837e-05
0.0200107
3.00642e-05
0.0199672
4.3469e-05
0.0199065
6.07483e-05
0.0198263
8.01794e-05
0.0197286
9.77086e-05
0.0196176
0.000111042
0.0194965
0.0001211
0.0193665
0.000130005
0.0192273
0.00013916
0.0190784
0.000148906
0.0189194
0.000159035
0.0187501
0.000169288
0.0185705
0.000179547
0.0183807
0.000189786
0.0181807
0.000199998
0.0179706
0.000210176
0.0177503
0.000220309
0.0175199
0.000230385
0.0172795
0.000240388
0.0170292
0.000250299
0.0167691
0.0002601
0.0164993
0.000269778
0.01622
0.000279319
0.0159313
0.000288704
0.0156334
0.000297916
0.0153264
0.000306939
0.0150107
0.000315763
0.0146863
0.000324372
0.0143535
0.000332751
0.0140127
0.000340882
0.0136639
0.000348738
0.0133076
0.000356305
0.012944
0.000363653
0.0125732
0.000370747
0.0121956
0.000377563
0.0118116
0.000384091
0.0114212
0.000390325
0.011025
0.000396265
0.0106231
0.000401915
0.0102158
0.000407284
0.00980338
0.000412387
0.00938613
0.00041725
0.00896423
0.000421903
0.00853785
0.000426385
0.00810711
0.000430739
0.00767211
0.000434999
0.00723294
0.000439171
0.00678971
0.000443224
0.00634264
0.000447078
0.00589204
0.000450599
0.0054384
0.00045364
0.00498226
0.000456139
0.00452405
0.000458204
0.00406409
0.00045996
0.00360309
0.000461007
0.0031434
0.00045969
0.00268976
0.000453631
0.00224671
0.000443057
0.00181456
0.000432148
0.00139606
0.000418496
0.00101026
0.000385803
0.000609933
0.000400327
0.000609933
0.000346837
-0.00111682
0.000739862
-0.0012767
0.00110157
-0.00123991
0.001455
-0.00121772
0.00180849
-0.00121452
0.00215939
-0.00120893
0.00250753
-0.00120292
0.00285232
-0.0011963
0.00319316
-0.00118827
0.00353004
-0.00117932
0.00386261
-0.00116912
0.00419081
-0.00115813
0.00451418
-0.00114595
0.00483282
-0.00113335
0.00514597
-0.00111929
0.00545351
-0.00110461
0.00575506
-0.00108902
0.00604988
-0.00107225
0.00633716
-0.00105405
0.00661636
-0.0010348
0.00688655
-0.00101412
0.00714691
-0.000992124
0.00739669
-0.000968897
0.00763496
-0.000944257
0.00786111
-0.000918566
0.00807402
-0.000891245
0.0082729
-0.000862544
0.00845702
-0.000832397
0.00862639
-0.000801634
0.00878185
-0.00077117
0.00892542
-0.000742312
0.0090605
-0.000716796
0.00919069
-0.000695355
0.00931898
-0.000678008
0.00944564
-0.000662474
0.00956757
-0.000645423
0.00967748
-0.000622059
0.00976464
-0.000587136
0.00981614
-0.000535712
0.00981914
-0.000465275
0.00976471
-0.000379138
0.0096538
-0.000286545
0.00949769
-0.000198487
0.00931514
-0.000125382
0.00912896
-7.66306e-05
0.00895973
-5.61071e-05
0.00882758
-6.94345e-05
0.00875275
-0.000116982
0.00873968
-0.000183789
0.00877989
-0.000252319
0.00886544
-0.000321773
0.00899084
-0.000391629
0.00915236
-0.000457198
0.00934538
-0.000503345
0.00956839
-0.000508056
0.00982345
-0.000449939
0.0100995
-0.000331596
0.01036
-0.000185696
0.0105508
-4.89806e-05
0.0106672
5.40233e-05
0.0107195
0.000137292
0.0107206
0.000207692
0.0106812
0.000265639
0.0106098
0.000311787
0.010514
0.000347533
0.0104003
0.000374842
0.0102741
0.0003955
0.0101397
0.000410904
0.0100005
0.000422331
0.00985918
0.000431269
0.00971683
0.000439129
0.00957388
0.000446886
0.00943029
0.000455009
0.00928588
0.000463638
0.00914044
0.000472927
0.00899344
0.000483323
0.00884409
0.000495058
0.00869154
0.000508082
0.00853498
0.000522457
0.00837352
0.000538258
0.0082061
0.000555781
0.00803168
0.000574897
0.00784968
0.000595039
0.00766028
0.000615318
0.00746485
0.000634508
0.00726465
0.00065357
0.00705949
0.000674496
0.00684625
0.00070037
0.00662041
0.000731805
0.00637673
0.000768133
0.00611326
0.000803665
0.00583314
0.00083208
0.00554626
0.000847498
0.00526671
0.000850064
0.00500302
0.000850732
0.00474997
0.000867112
0.00449254
0.000912544
0.0042106
0.000991457
0.00388398
0.00109613
0.00349437
0.00121201
0.00303347
0.00131505
0.00251253
0.00138019
0.00194745
0.00139734
0.00135393
0.00137064
0.000744331
0.00130986
0.000128125
0.00122729
-0.000488145
0.00113506
-0.00110035
0.0010426
-0.00170601
0.000955877
-0.00230373
0.000878099
-0.00289302
0.000810643
-0.0034738
0.00075338
-0.00404624
0.000705494
-0.00461059
0.000665822
-0.00516719
0.000633143
-0.00571634
0.000606309
-0.0062585
0.000584291
-0.00679409
0.000566295
-0.00732361
0.000551697
-0.00784755
0.000539999
-0.00836634
0.000530806
-0.00888036
0.000523806
-0.00938986
0.000518779
-0.00989504
0.000515584
-0.010396
0.000514149
-0.010893
0.000514464
-0.0113861
0.000516531
-0.0118756
0.000520339
-0.0123618
0.000525836
-0.012845
0.000532917
-0.0133254
0.000541418
-0.0138031
0.00055114
-0.0142782
0.000561896
-0.0147509
0.0005736
-0.0152214
0.000586359
-0.0156905
0.00060054
-0.0161595
0.000616739
-0.0166299
0.000635614
-0.0171038
0.000657638
-0.0175831
0.000682817
-0.0180686
0.000710469
-0.0185601
0.000739248
-0.0190558
0.000767384
-0.0195523
0.000793103
-0.0200453
0.000815202
-0.0205304
0.000833388
-0.0210038
0.000848448
-0.0214632
0.000862122
-0.0219078
0.000876576
-0.0223389
0.000893961
-0.0227592
0.00091591
-0.0231723
0.000943212
-0.0235822
0.000975708
-0.0239928
0.00101241
-0.0244071
0.00105179
-0.0248275
0.0010921
-0.0252552
0.00113159
-0.0256905
0.00116899
-0.0261327
0.00120349
-0.0265808
0.0012349
-0.0270333
0.0012635
-0.0274886
0.00128993
-0.0279451
0.001315
-0.0284014
0.00133956
-0.0288562
0.0013643
-0.0293086
0.00138974
-0.0297579
0.00141609
-0.0302033
0.0014433
-0.0306443
0.00147102
-0.0310806
0.00149877
-0.0315116
0.00152596
-0.0319369
0.00155208
-0.032356
0.00157674
-0.0327684
0.00159973
-0.0331731
0.00162092
-0.033569
0.00164007
-0.0339549
0.00165647
-0.0343301
0.00166884
-0.0346949
0.00167531
-0.0350515
0.00167392
-0.0354056
0.00166323
-0.0357653
0.00164386
-0.0361407
0.00161797
-0.0365414
0.00158876
-0.0369748
0.00155958
-0.0374447
0.00153303
-0.0379511
0.00151053
-0.0384916
0.00149239
-0.0390615
0.00147816
-0.0396558
0.00146703
-0.0402694
0.00145809
-0.0408976
0.0014505
-0.0415364
0.00144357
-0.0421824
0.00143674
-0.0428327
0.00142957
-0.0434852
0.00142171
-0.0441376
0.00141289
-0.0447881
0.00140289
-0.0454353
0.00139154
-0.0460776
0.00137868
-0.0467135
0.00136421
-0.0473418
0.00134802
-0.047961
0.00133003
-0.0485699
0.00131017
-0.0491671
0.00128838
-0.0497515
0.00126461
-0.0503217
0.00123882
-0.0508765
0.00121096
-0.0514146
0.00118103
-0.0519348
0.00114899
-0.0524358
0.00111487
-0.0529164
0.00107868
-0.0533756
0.00104051
-0.0538125
0.00100048
-0.0542264
0.000958744
-0.0546167
0.000915481
-0.054983
0.000870824
-0.0553247
0.00082481
-0.055641
0.000777305
-0.0559306
0.000727962
-0.0561914
0.000676224
-0.0564209
0.000621392
-0.0566159
0.000562768
-0.0567735
0.000499844
-0.0568911
0.000432509
-0.0569675
0.000361195
-0.0570028
0.000286943
-0.0569984
0.000211309
-0.0569566
0.00013615
-0.0568804
6.37345e-05
-0.0567711
-5.404e-06
-0.0566295
-7.15621e-05
-0.0564579
-0.000131006
-0.056257
-0.000186897
-0.0560273
-0.000240184
-0.0557702
-0.000291928
-0.0554886
-0.000342923
-0.0551863
-0.000393812
-0.0548667
-0.000444682
-0.0545332
-0.000495008
-0.0541885
-0.000543856
-0.0538344
-0.000590189
-0.0534721
-0.000633182
-0.0531023
-0.000672436
-0.0527248
-0.000708039
-0.0523396
-0.000740503
-0.0519458
-0.000770597
-0.0515431
-0.000799155
-0.0511305
-0.00082692
-0.0507075
-0.000854434
-0.0502734
-0.000882001
-0.0498277
-0.000909712
-0.0493701
-0.000937493
-0.0489003
-0.000965174
-0.0484183
-0.000992545
-0.0479242
-0.0010194
-0.0474181
-0.00104554
-0.0469005
-0.00107083
-0.0463716
-0.00109514
-0.0458321
-0.00111839
-0.0452824
-0.0011405
-0.0447231
-0.00116144
-0.0441547
-0.00118116
-0.043578
-0.00119965
-0.0429934
-0.00121691
-0.0424017
-0.00123293
-0.0418033
-0.00124771
-0.041199
-0.00126128
-0.0405892
-0.00127366
-0.0399745
-0.00128486
-0.0393555
-0.00129493
-0.0387327
-0.00130389
-0.0381065
-0.00131178
-0.0374775
-0.00131865
-0.0368461
-0.00132453
-0.0362127
-0.00132946
-0.0355777
-0.0013335
-0.0349415
-0.00133669
-0.0343043
-0.00133906
-0.0336666
-0.00134067
-0.0330285
-0.00134156
-0.0323904
-0.00134178
-0.0317525
-0.00134136
-0.0311151
-0.00134035
-0.0304782
-0.00133879
-0.0298422
-0.00133672
-0.0292071
-0.00133416
-0.0285731
-0.00133117
-0.0279404
-0.00132778
-0.027309
-0.00132401
-0.026679
-0.00131989
-0.0260506
-0.00131546
-0.0254237
-0.00131074
-0.0247985
-0.00130577
-0.024175
-0.00130055
-0.0235533
-0.00129512
-0.0229333
-0.00128949
-0.0223152
-0.00128369
-0.0216988
-0.00127773
-0.0210844
-0.00127164
-0.0204717
-0.00126541
-0.019861
-0.00125908
-0.0192521
-0.00125265
-0.018645
-0.00124613
-0.0180398
-0.00123953
-0.0174365
-0.00123287
-0.016835
-0.00122614
-0.0162354
-0.00121937
-0.0156375
-0.00121255
-0.0150415
-0.00120569
-0.0144474
-0.0011988
-0.013855
-0.00119187
-0.0132644
-0.00118491
-0.0126756
-0.00117792
-0.0120885
-0.00117089
-0.0115033
-0.00116383
-0.0109198
-0.00115673
-0.0103382
-0.00114959
-0.00975833
-0.00114239
-0.00918031
-0.00113514
-0.00860413
-0.00112781
-0.00802983
-0.00112042
-0.00745742
-0.00111293
-0.00688695
-0.00110535
-0.00631845
-0.00109766
-0.00575195
-0.00108986
-0.0051875
-0.00108194
-0.00462516
-0.00107389
-0.00406497
-0.00106571
-0.00350701
-0.0010574
-0.00295137
-0.00104896
-0.00239815
-0.00104038
-0.00184746
-0.00103164
-0.00129941
-0.00102272
-0.00075414
-0.0010136
-0.000211737
-0.00100424
0.00032769
-0.000994604
0.000864209
-0.000984709
0.00139814
-0.000974729
0.00192925
-0.000964341
0.00245758
-0.000953735
0.00298339
-0.00094356
0.00350651
-0.000933427
0.00402707
-0.000923941
0.00454439
-0.000914946
0.00505786
-0.000906671
0.00556651
-0.000899069
0.00606931
-0.000892046
0.00656472
-0.000884875
0.00705129
-0.000877069
0.00752781
-0.000868164
0.0079931
-0.00085741
0.00844624
-0.000844587
0.00888666
-0.000829609
0.00931405
-0.000812667
0.00972827
-0.000794359
0.0101295
-0.000775153
0.0105181
-0.000755726
0.0108942
-0.000736601
0.0112585
-0.000718017
0.0116115
-0.000700037
0.0119535
-0.000682569
0.012285
-0.000665417
0.0126064
-0.000648381
0.012918
-0.000631346
0.01322
-0.000614347
0.013513
-0.000597554
0.0137972
-0.000581201
0.0140732
-0.000565481
0.0143414
-0.000550532
0.0146024
-0.000536379
0.0148566
-0.000522954
0.0151043
-0.000510146
0.0153458
-0.000497853
0.0155815
-0.000486007
0.0158115
-0.000474575
0.0160362
-0.000463541
0.0162556
-0.000452893
0.0164701
-0.000442618
0.0166798
-0.000432705
0.016885
-0.000423143
0.0170857
-0.00041392
0.0172821
-0.000405028
0.0174745
-0.000396458
0.017663
-0.000388202
0.0178478
-0.000380249
0.0180289
-0.000372589
0.0182065
-0.000365212
0.0183808
-0.000358105
0.0185519
-0.000351257
0.0187199
-0.000344654
0.0188849
-0.00033828
0.019047
-0.00033212
0.0192064
-0.000326157
0.019363
-0.000320376
0.019517
-0.000314758
0.0196685
-0.00030928
0.0198174
-0.000303923
0.0199639
-0.000298662
0.0201079
-0.000293478
0.0202496
-0.000288349
0.0203888
-0.00028325
0.0205257
-0.000278156
0.0206601
-0.000273046
0.0207921
-0.000267898
0.0209216
-0.000262692
0.0210486
-0.000257405
0.021173
-0.000252013
0.0212948
-0.000246497
0.0214138
-0.000240834
0.0215299
-0.000235004
0.0216432
-0.000228988
0.0217533
-0.000222764
0.0218603
-0.000216307
0.021964
-0.000209597
0.0220643
-0.000202616
0.0221609
-0.000195341
0.0222537
-0.000187751
0.0223426
-0.000179823
0.0224273
-0.00017154
0.0225077
-0.000162883
0.0225836
-0.000153833
0.0226546
-0.000144375
0.0227207
-0.000134489
0.0227816
-0.000124163
0.022837
-0.000113382
0.0228867
-0.000102131
0.0229305
-9.03969e-05
0.022968
-7.81667e-05
0.022999
-6.54297e-05
0.0230234
-5.21742e-05
0.0230406
-3.83872e-05
0.0230507
-2.40559e-05
0.0230533
-9.17408e-06
0.0230477
6.52513e-06
0.0230346
2.27535e-05
0.0230142
3.97415e-05
0.0229867
5.75645e-05
0.0229537
7.64455e-05
0.0229179
9.65795e-05
0.0228805
0.000117548
0.0228398
0.000138432
0.0227922
0.000158654
0.0227348
0.000178433
0.0226665
0.000198331
0.0225869
0.000218735
0.0224961
0.000239748
0.0223938
0.000261306
0.0222798
0.000283307
0.0221537
0.000305681
0.0220151
0.000328392
0.0218636
0.00035141
0.0216991
0.000374701
0.0215212
0.000398228
0.0213296
0.000421953
0.0211242
0.000445831
0.0209047
0.000469817
0.0206709
0.000493866
0.0204227
0.000517938
0.0201601
0.000541995
0.0198828
0.000565995
0.0195908
0.000589896
0.0192841
0.000613652
0.0189626
0.000637222
0.0186264
0.000660557
0.0182756
0.00068361
0.0179101
0.000706336
0.0175302
0.000728691
0.0171358
0.00075064
0.0167273
0.000772169
0.0163048
0.000793234
0.0158686
0.000813787
0.0154189
0.00083379
0.014956
0.000853208
0.0144803
0.000872007
0.013992
0.000890162
0.0134917
0.000907647
0.0129796
0.000924446
0.0124563
0.000940552
0.0119222
0.000955969
0.0113779
0.000970712
0.0108238
0.000984812
0.0102606
0.000998291
0.00968858
0.00101115
0.00910847
0.00102334
0.00852082
0.00103473
0.00792629
0.00104513
0.00732566
0.00105427
0.00671987
0.00106193
0.00611001
0.00106806
0.00549697
0.00107299
0.00488037
0.00107761
0.00425662
0.00108344
0.00361825
0.001092
0.00295992
0.00110139
0.0022991
0.00109296
0.00169406
0.00102354
0.00120762
0.00087224
0.000773074
0.000834877
0.00138301
0.000228298
-0.00134511
0.00049896
-0.00154736
0.000712043
-0.00145299
0.00091594
-0.00142162
0.00111904
-0.00141762
0.00132444
-0.00141433
0.00153127
-0.00140974
0.0017402
-0.00140523
0.00195246
-0.00140052
0.00216878
-0.00139564
0.00238958
-0.00138992
0.00261532
-0.00138387
0.00284654
-0.00137718
0.00308244
-0.00136924
0.00332303
-0.00135988
0.00356729
-0.00134887
0.00381394
-0.00133568
0.00406194
-0.00132025
0.00431027
-0.00130238
0.00455721
-0.00128174
0.00480129
-0.00125819
0.00504128
-0.00123211
0.00527582
-0.00120344
0.00550369
-0.00117212
0.00572381
-0.00113869
0.00593596
-0.0011034
0.00613956
-0.00106614
0.00633503
-0.00102787
0.00652278
-0.00098938
0.00670326
-0.000951648
0.00687599
-0.000915041
0.00703934
-0.000880147
0.00718995
-0.000845968
0.0073226
-0.000810651
0.00743146
-0.000771342
0.00751202
-0.000725975
0.00756256
-0.000672603
0.00758519
-0.000609762
0.00758692
-0.000537449
0.00757952
-0.000457871
0.00757668
-0.000376294
0.00759214
-0.00030201
0.00763912
-0.00024547
0.00772693
-0.000213184
0.00785656
-0.00020627
0.00802098
-0.000220524
0.00820206
-0.000250511
0.00837105
-0.000285972
0.0085103
-0.000323042
0.00861581
-0.00035783
0.00868323
-0.000389192
0.0087086
-0.000416996
0.00868983
-0.000438431
0.00863022
-0.000443736
0.00854221
-0.000420044
0.00844717
-0.000354903
0.00836472
-0.000249141
0.00830119
-0.000122166
0.00825833
-6.12614e-06
0.00820755
0.000104811
0.00815476
0.000190079
0.00809941
0.000263042
0.00803974
0.000325312
0.00797341
0.00037811
0.0078981
0.000422842
0.00781226
0.000460683
0.00771512
0.000492645
0.00760629
0.000519731
0.00748555
0.000543076
0.00735292
0.000563898
0.00720896
0.000583088
0.00705439
0.00060146
0.00688989
0.0006195
0.0067161
0.000637431
0.00653359
0.000655443
0.00634305
0.000673855
0.00614516
0.000692955
0.00594047
0.000712772
0.00572967
0.000733257
0.00551338
0.000754545
0.00529265
0.000776508
0.00506866
0.00079889
0.00484251
0.000821189
0.00461512
0.000842708
0.0043859
0.000863726
0.00415531
0.000884165
0.00392323
0.000906571
0.00369066
0.000932946
0.00345767
0.00096479
0.0032273
0.000998505
0.0029997
0.00103127
0.00277419
0.00105759
0.00254649
0.0010752
0.00231179
0.00108477
0.00206611
0.00109641
0.00181175
0.00112147
0.00155446
0.00116983
0.00130191
0.00124401
0.00105964
0.0013384
0.000828195
0.00144346
0.000604749
0.0015385
0.000375414
0.00160952
0.000123787
0.00164896
-0.00015989
0.00165432
-0.00048423
0.0016342
-0.000852902
0.00159596
-0.00126522
0.00154739
-0.00171751
0.00149488
-0.00220418
0.00144255
-0.00271871
0.00139263
-0.00325486
0.0013468
-0.00380673
0.00130525
-0.00436921
0.00126797
-0.00493806
0.00123467
-0.00550991
0.00120499
-0.00608221
0.00117861
-0.00665316
0.00115524
-0.0072215
0.00113464
-0.00778636
0.00111656
-0.00834706
0.0011007
-0.00890303
0.00108677
-0.00945372
0.00107449
-0.00999858
0.00106364
-0.0105371
0.00105411
-0.0110688
0.00104587
-0.0115933
0.00103894
-0.0121101
0.00103336
-0.012619
0.00102917
-0.0131194
0.00102632
-0.0136113
0.00102473
-0.0140942
0.00102433
-0.0145681
0.00102508
-0.0150333
0.00102711
-0.0154905
0.00103075
-0.0159407
0.00103655
-0.0163853
0.00104516
-0.0168256
0.00105704
-0.0172622
0.00107218
-0.0176944
0.00108982
-0.0181199
0.0011084
-0.0185352
0.00112573
-0.0189355
0.00113954
-0.0193161
0.00114803
-0.0196735
0.00115049
-0.0200059
0.00114761
-0.0203139
0.0011414
-0.0206003
0.00113481
-0.0208692
0.00113106
-0.0211256
0.00113294
-0.021374
0.00114234
-0.0216181
0.00116004
-0.0218606
0.00118565
-0.0221028
0.00121797
-0.0223456
0.0012552
-0.0225892
0.00129537
-0.0228337
0.00133663
-0.0230795
0.00137741
-0.0233272
0.00141664
-0.0235775
0.00145377
-0.0238313
0.00148875
-0.0240897
0.00152192
-0.0243537
0.0015539
-0.0246241
0.00158539
-0.0249017
0.00161713
-0.0251871
0.0016497
-0.0254809
0.00168352
-0.0257835
0.00171876
-0.0260956
0.00175539
-0.0264178
0.00179317
-0.0267507
0.0018317
-0.0270953
0.00187054
-0.0274523
0.00190916
-0.0278227
0.00194706
-0.0282067
0.00198371
-0.0286043
0.0020186
-0.0290154
0.00205113
-0.0294396
0.00208064
-0.0298771
0.00210634
-0.0303292
0.00212748
-0.0307988
0.00214346
-0.0312896
0.00215409
-0.0318057
0.00215991
-0.0323496
0.00216194
-0.0329223
0.0021614
-0.0335221
0.00215941
-0.0341459
0.0021568
-0.0347894
0.00215402
-0.0354482
0.00215125
-0.0361185
0.00214844
-0.0367969
0.00214541
-0.0374807
0.00214191
-0.0381678
0.00213761
-0.0388564
0.0021322
-0.0395451
0.00212536
-0.0402323
0.00211684
-0.040917
0.00210638
-0.0415979
0.00209379
-0.0422739
0.0020789
-0.0429439
0.00206155
-0.0436069
0.00204162
-0.0442617
0.002019
-0.0449072
0.0019936
-0.0455426
0.00196535
-0.0461666
0.00193418
-0.0467782
0.00190004
-0.0473765
0.0018629
-0.0479605
0.00182275
-0.0485291
0.00177958
-0.0490814
0.00173339
-0.0496167
0.00168421
-0.0501338
0.00163206
-0.0506322
0.001577
-0.0511108
0.00151913
-0.0515688
0.00145854
-0.0520055
0.00139539
-0.0524198
0.00132982
-0.052811
0.00126195
-0.053178
0.00119184
-0.0535202
0.00111947
-0.0538369
0.00104469
-0.0541279
0.000967219
-0.0543932
0.000886745
-0.0546334
0.000802965
-0.0548493
0.000715719
-0.0550419
0.000625107
-0.0552122
0.000531524
-0.055361
0.000435708
-0.0554883
0.000338641
-0.0555936
0.000241458
-0.0556753
0.000145407
-0.0557318
5.10899e-05
-0.0557615
-4.1883e-05
-0.0557615
-0.000130959
-0.0557314
-0.000217056
-0.055671
-0.000300521
-0.0555813
-0.000381708
-0.0554633
-0.000460916
-0.0553187
-0.000538351
-0.0551494
-0.000613998
-0.0549568
-0.000687587
-0.054742
-0.000758666
-0.0545055
-0.000826747
-0.0542472
-0.00089146
-0.053967
-0.00095265
-0.0536646
-0.00101043
-0.05334
-0.00106513
-0.0529933
-0.00111723
-0.0526252
-0.00116726
-0.0522364
-0.00121572
-0.0518279
-0.00126298
-0.0514006
-0.00130928
-0.0509556
-0.00135475
-0.0504937
-0.00139936
-0.0500158
-0.00144305
-0.0495227
-0.00148567
-0.049015
-0.00152709
-0.0484934
-0.00156717
-0.0479584
-0.00160579
-0.0474107
-0.00164284
-0.0468508
-0.00167824
-0.0462794
-0.00171191
-0.0456971
-0.00174381
-0.0451043
-0.0017739
-0.0445018
-0.00180215
-0.0438902
-0.00182855
-0.04327
-0.00185309
-0.0426419
-0.0018758
-0.0420066
-0.00189667
-0.0413645
-0.00191574
-0.0407163
-0.00193304
-0.0400626
-0.0019486
-0.039404
-0.00196248
-0.0387411
-0.00197471
-0.0380744
-0.00198537
-0.0374044
-0.00199449
-0.0367317
-0.00200215
-0.0360568
-0.00200841
-0.0353802
-0.00201333
-0.0347023
-0.00201698