/*--------------------------------*- C++ -*----------------------------------*\
| =========                 |                                                 |
| \\      /  F ield         | OpenFOAM: The Open Source CFD Toolbox           |
|  \\    /   O peration     | Version:  v2006                                 |
|   \\  /    A nd           | Website:  www.openfoam.com                      |
|    \\/     M anipulation  |                                                 |
\*---------------------------------------------------------------------------*/
FoamFile
{
    version     2.0;
    format      ascii;
    class       volScalarField;
    location    "6.7";
    object      p_rgh;
}
// * * * * * * * * * * * * * * * * * * * * * * * * * * * * * * * * * * * * * //

dimensions      [1 -1 -2 0 0 0 0];


internalField   nonuniform List<scalar> 
150000
(
7129.8
7129.96
7130.15
7130.41
7130.77
7131.22
7131.76
7132.39
7133.1
7133.9
7134.78
7135.73
7136.76
7137.86
7139.03
7140.25
7141.53
7142.86
7144.23
7145.64
7147.08
7148.54
7150.02
7151.51
7153
7154.49
7155.96
7157.42
7158.85
7160.24
7161.6
7162.92
7164.18
7165.37
7166.49
7167.5
7168.4
7169.16
7169.78
7170.25
7170.6
7170.85
7171
7171.07
7171.09
7171.04
7170.89
7170.59
7170.07
7169.28
7168.2
7166.78
7164.98
7162.76
7160.16
7157.37
7154.69
7152.17
7149.37
7146.2
7142.72
7138.91
7134.75
7130.23
7125.36
7120.11
7114.49
7108.47
7102.06
7095.24
7088.01
7080.36
7072.27
7063.73
7054.75
7045.29
7035.37
7024.96
7014.05
7002.63
6990.69
6978.23
6965.22
6951.66
6937.53
6922.82
6907.52
6891.62
6875.12
6857.99
6840.22
6821.8
6802.7
6782.9
6762.39
6741.18
6719.28
6696.69
6673.42
6649.46
6624.77
6599.29
6572.96
6545.74
6517.62
6488.58
6458.6
6427.7
6395.88
6363.14
6329.49
6294.91
6259.42
6223
6185.65
6147.37
6108.14
6067.97
6026.85
5984.77
5941.74
5897.74
5852.78
5806.85
5759.96
5712.11
5663.27
5613.47
5562.71
5510.98
5458.29
5404.65
5350.06
5294.53
5238.07
5180.68
5122.37
5063.15
5003.02
4942.01
4880.14
4817.41
4753.84
4689.47
4624.3
4558.36
4491.66
4424.23
4356.07
4287.22
4217.69
4147.52
4076.72
4005.33
3933.36
3860.84
3787.78
3714.21
3640.16
3565.64
3490.68
3415.31
3339.56
3263.47
3187.06
3110.39
3033.47
2956.35
2879.07
2801.64
2724.12
2646.52
2568.87
2491.22
2413.58
2336
2258.51
2181.14
2103.92
2026.88
1950.03
1873.4
1797
1720.86
1645.01
1569.49
1494.35
1419.64
1345.41
1271.68
1198.5
1125.9
1053.9
982.543
911.84
841.821
772.51
703.93
636.104
569.055
502.804
437.371
372.779
309.044
246.188
184.225
123.175
63.0521
3.87156
-54.3528
-111.608
-167.882
-223.165
-277.446
-330.717
-382.972
-434.204
-484.408
-533.581
-581.72
-628.822
-674.887
-719.913
-763.903
-806.859
-848.787
-889.694
-929.592
-968.492
-1006.41
-1043.36
-1079.3
-1114.29
-1148.34
-1181.46
-1213.65
-1244.92
-1275.29
-1304.8
-1333.45
-1361.26
-1388.25
-1414.44
-1439.86
-1464.51
-1488.43
-1511.64
-1534.15
-1555.99
-1577.18
-1597.73
-1617.68
-1637.03
-1655.81
-1674.04
-1691.74
-1708.93
-1725.62
-1741.84
-1757.61
-1772.94
-1787.85
-1802.36
-1816.49
-1830.24
-1843.64
-1856.7
-1869.43
-1881.85
-1893.98
-1905.81
-1917.36
-1928.65
-1939.69
-1950.48
-1961.03
-1971.35
-1981.46
-1991.35
-2001.03
-2010.52
-2019.81
-2028.92
-2037.84
-2046.59
-2055.17
-2063.57
-2071.82
-2079.9
-2087.83
-2095.61
-2103.24
-2110.72
-2118.06
-2125.27
-2132.34
-2139.28
-2146.09
-2152.77
-2159.34
-2165.78
-2172.11
-2178.33
-2184.45
-2190.46
-2196.36
-2202.18
-2207.9
-2213.53
-2219.07
-2224.54
-2229.93
-2235.24
-2240.49
-2245.68
-2250.8
-2255.87
-2260.9
-2265.87
-2270.81
-2275.71
-2280.58
-2285.42
-2290.25
-2295.05
-2299.85
-2304.64
-2309.42
-2314.21
-2319.01
-2323.81
-2328.63
-2333.47
-2338.33
-2343.22
-2348.13
-2353.08
-2358.05
-2363.07
-2368.12
-2373.21
-2378.34
-2383.5
-2388.71
-2393.95
-2399.23
-2404.54
-2409.88
-2415.26
-2420.66
-2426.08
-2431.51
-2436.97
-2442.42
-2447.89
-2453.35
-2458.8
-2464.23
-2469.64
-2475.02
-2480.35
-2485.64
-2490.87
-2496.04
-2501.12
-2506.12
-2511.03
-2515.83
-2520.51
-2525.07
-2529.49
-2533.76
-2537.87
-2541.81
-2545.56
-2549.12
-2552.48
-2555.61
-2558.52
-2561.19
-2563.61
-2565.76
-2567.64
-2569.23
-2570.52
-2571.51
-2572.17
-2572.5
-2572.5
-2572.14
-2571.42
-2570.33
-2568.87
-2567.01
-2564.75
-2562.1
-2559.02
-2555.53
-2551.61
-2547.26
-2542.47
-2537.24
-2531.56
-2525.42
-2518.83
-2511.78
-2504.27
-2496.29
-2487.85
-2478.94
-2469.57
-2459.74
-2449.44
-2438.68
-2427.46
-2415.79
-2403.67
-2391.1
-2378.09
-2364.64
-2350.76
-2336.46
-2321.75
-2306.63
-2291.11
-2275.2
-2258.91
-2242.25
-2225.23
-2207.86
-2190.16
-2172.13
-2153.79
-2135.15
-2116.22
-2097.02
-2077.56
-2057.86
-2037.92
-2017.78
-1997.44
-1976.93
-1956.26
-1935.44
-1914.48
-1893.41
-1872.24
-1850.99
-1829.69
-1808.35
-1786.98
-1765.62
-1744.27
-1722.96
-1701.71
-1680.54
-1659.47
-1638.51
-1617.7
-1597.05
-1576.58
-1556.32
-1536.27
-1516.47
-1496.93
-1477.68
-1458.73
-1440.1
-1421.82
-1403.9
-1386.36
-1369.22
-1352.5
-1336.21
-1320.37
-1305.01
-1290.13
-1275.75
-1261.88
-1248.55
-1235.76
-1223.53
-1211.87
-1200.8
-1190.32
-1180.45
-1171.19
-1162.56
-1154.57
-1147.21
-1140.51
-1134.47
-1129.09
-1124.37
-1120.34
-1116.97
-1114.29
-1112.26
-1110.89
-1110.08
7129.51
7129.62
7129.81
7130.07
7130.44
7130.89
7131.43
7132.06
7132.78
7133.59
7134.47
7135.43
7136.47
7137.58
7138.76
7139.99
7141.29
7142.63
7144.01
7145.44
7146.89
7148.36
7149.86
7151.36
7152.86
7154.37
7155.86
7157.33
7158.77
7160.19
7161.56
7162.89
7164.16
7165.37
7166.48
7167.5
7168.41
7169.19
7169.84
7170.36
7170.77
7171.07
7171.27
7171.38
7171.4
7171.31
7171.09
7170.69
7170.08
7169.24
7168.14
7166.74
7164.98
7162.84
7160.33
7157.56
7154.73
7151.97
7149.27
7146.22
7142.8
7139
7134.86
7130.38
7125.52
7120.29
7114.68
7108.68
7102.27
7095.46
7088.23
7080.57
7072.48
7063.95
7054.97
7045.52
7035.6
7025.19
7014.29
7002.88
6990.95
6978.49
6965.49
6951.94
6937.81
6923.11
6907.81
6891.92
6875.42
6858.31
6840.58
6822.19
6803.11
6783.32
6762.8
6741.55
6719.59
6696.97
6673.72
6649.81
6625.19
6599.8
6573.59
6546.47
6518.41
6489.39
6459.43
6428.53
6396.7
6363.94
6330.28
6295.69
6260.19
6223.77
6186.42
6148.13
6108.92
6068.75
6027.64
5985.58
5942.55
5898.56
5853.6
5807.67
5760.76
5712.88
5664.04
5614.22
5563.45
5511.71
5459.01
5405.36
5350.77
5295.23
5238.76
5181.37
5123.05
5063.82
5003.7
4942.68
4880.8
4818.06
4754.49
4690.1
4624.92
4558.95
4492.23
4424.77
4356.59
4287.72
4218.17
4147.98
4077.17
4005.76
3933.77
3861.23
3788.15
3714.56
3640.48
3565.93
3490.94
3415.54
3339.77
3263.65
3187.22
3110.51
3033.57
2956.43
2879.12
2801.67
2724.11
2646.48
2568.8
2491.12
2413.45
2335.83
2258.29
2180.86
2103.57
2026.45
1949.51
1872.79
1796.3
1720.09
1644.2
1568.66
1493.54
1418.86
1344.65
1270.95
1197.8
1125.22
1053.23
981.87
911.165
841.139
771.817
703.225
635.385
568.321
502.054
436.606
371.997
308.246
245.373
183.395
122.329
62.1907
2.99547
-55.243
-112.512
-168.799
-224.094
-278.387
-331.67
-383.934
-435.174
-485.385
-534.562
-582.703
-629.808
-675.876
-720.908
-764.908
-807.877
-849.818
-890.734
-930.631
-969.516
-1007.4
-1044.33
-1080.17
-1115.08
-1149.05
-1182.09
-1214.23
-1245.48
-1275.85
-1305.34
-1333.98
-1361.79
-1388.78
-1414.97
-1440.38
-1465.03
-1488.95
-1512.15
-1534.65
-1556.49
-1577.67
-1598.21
-1618.15
-1637.49
-1656.26
-1674.48
-1692.17
-1709.35
-1726.04
-1742.26
-1758.02
-1773.34
-1788.25
-1802.75
-1816.87
-1830.62
-1844.01
-1857.07
-1869.79
-1882.21
-1894.33
-1906.15
-1917.7
-1928.99
-1940.02
-1950.81
-1961.35
-1971.67
-1981.77
-1991.66
-2001.34
-2010.82
-2020.11
-2029.22
-2038.14
-2046.88
-2055.45
-2063.85
-2072.09
-2080.17
-2088.1
-2095.87
-2103.5
-2110.98
-2118.32
-2125.52
-2132.58
-2139.52
-2146.32
-2153
-2159.56
-2166
-2172.33
-2178.54
-2184.65
-2190.66
-2196.56
-2202.37
-2208.08
-2213.7
-2219.25
-2224.71
-2230.09
-2235.4
-2240.64
-2245.82
-2250.94
-2256.01
-2261.03
-2266
-2270.93
-2275.82
-2280.69
-2285.53
-2290.34
-2295.15
-2299.94
-2304.72
-2309.5
-2314.28
-2319.07
-2323.87
-2328.69
-2333.52
-2338.38
-2343.26
-2348.17
-2353.11
-2358.08
-2363.09
-2368.14
-2373.23
-2378.35
-2383.52
-2388.72
-2393.96
-2399.24
-2404.55
-2409.9
-2415.28
-2420.68
-2426.1
-2431.55
-2437.01
-2442.47
-2447.94
-2453.41
-2458.86
-2464.3
-2469.71
-2475.1
-2480.44
-2485.73
-2490.97
-2496.14
-2501.23
-2506.24
-2511.15
-2515.95
-2520.64
-2525.2
-2529.63
-2533.9
-2538.02
-2541.96
-2545.73
-2549.29
-2552.66
-2555.8
-2558.72
-2561.39
-2563.81
-2565.97
-2567.86
-2569.46
-2570.76
-2571.75
-2572.42
-2572.76
-2572.76
-2572.41
-2571.69
-2570.61
-2569.15
-2567.3
-2565.05
-2562.4
-2559.33
-2555.84
-2551.93
-2547.58
-2542.79
-2537.56
-2531.88
-2525.75
-2519.16
-2512.11
-2504.6
-2496.62
-2488.18
-2479.28
-2469.91
-2460.07
-2449.77
-2439.01
-2427.79
-2416.11
-2403.99
-2391.41
-2378.4
-2364.95
-2351.06
-2336.76
-2322.04
-2306.91
-2291.39
-2275.47
-2259.17
-2242.51
-2225.48
-2208.11
-2190.4
-2172.36
-2154.02
-2135.37
-2116.43
-2097.23
-2077.76
-2058.06
-2038.12
-2017.98
-1997.63
-1977.11
-1956.42
-1935.58
-1914.61
-1893.52
-1872.35
-1851.09
-1829.77
-1808.41
-1787.04
-1765.66
-1744.3
-1722.97
-1701.71
-1680.52
-1659.44
-1638.47
-1617.64
-1596.98
-1576.49
-1556.21
-1536.15
-1516.34
-1496.79
-1477.52
-1458.55
-1439.91
-1421.61
-1403.68
-1386.13
-1368.97
-1352.23
-1335.93
-1320.08
-1304.7
-1289.81
-1275.42
-1261.54
-1248.2
-1235.4
-1223.16
-1211.49
-1200.41
-1189.92
-1180.04
-1170.78
-1162.14
-1154.14
-1146.78
-1140.07
-1134.02
-1128.64
-1123.92
-1119.88
-1116.52
-1113.84
-1111.82
-1110.46
-1109.61
7129.12
7129.23
7129.42
7129.69
7130.05
7130.51
7131.05
7131.69
7132.42
7133.23
7134.13
7135.11
7136.16
7137.28
7138.48
7139.73
7141.04
7142.4
7143.81
7145.25
7146.72
7148.22
7149.74
7151.26
7152.79
7154.32
7155.83
7157.32
7158.79
7160.23
7161.63
7162.97
7164.27
7165.49
7166.64
7167.69
7168.64
7169.46
7170.16
7170.72
7171.16
7171.48
7171.68
7171.78
7171.77
7171.64
7171.38
7170.95
7170.34
7169.5
7168.42
7167.06
7165.41
7163.48
7161.28
7158.86
7156.28
7153.55
7150.59
7147.43
7143.85
7139.94
7135.71
7131.15
7126.24
7120.98
7115.35
7109.33
7102.93
7096.12
7088.91
7081.27
7073.2
7064.69
7055.73
7046.3
7036.4
7026.02
7015.13
7003.74
6991.82
6979.38
6966.39
6952.85
6938.74
6924.05
6908.77
6892.9
6876.41
6859.29
6841.53
6823.11
6804.03
6784.25
6763.79
6742.62
6720.74
6698.16
6674.87
6650.86
6626.1
6600.55
6574.17
6546.93
6518.8
6489.78
6459.85
6429.01
6397.26
6364.59
6331.01
6296.5
6261.07
6224.71
6187.42
6149.18
6110
6069.87
6028.79
5986.75
5943.75
5899.78
5854.83
5808.92
5762.03
5714.17
5665.34
5615.54
5564.77
5513.04
5460.35
5406.71
5352.12
5296.58
5240.11
5182.71
5124.4
5065.17
5005.03
4944.01
4882.11
4819.35
4755.76
4691.34
4626.13
4560.14
4493.4
4425.92
4357.73
4288.84
4219.27
4149.05
4078.2
4006.74
3934.69
3862.08
3788.92
3715.25
3641.09
3566.47
3491.41
3415.95
3340.11
3263.93
3187.44
3110.68
3033.68
2956.46
2879.08
2801.55
2723.92
2646.21
2568.45
2490.68
2412.93
2335.23
2257.62
2180.12
2102.76
2025.58
1948.59
1871.83
1795.33
1719.11
1643.21
1567.67
1492.53
1417.82
1343.59
1269.86
1196.67
1124.05
1052.03
980.641
909.905
839.85
770.5
701.882
634.017
566.929
500.641
435.173
370.547
306.781
243.895
181.906
120.831
60.6857
1.48573
-56.7553
-114.025
-170.31
-225.601
-279.889
-333.164
-385.419
-436.649
-486.849
-536.015
-584.143
-631.233
-677.285
-722.298
-766.275
-809.219
-851.136
-892.03
-931.908
-970.779
-1008.64
-1045.49
-1081.44
-1116.38
-1150.36
-1183.4
-1215.52
-1246.75
-1277.09
-1306.56
-1335.18
-1362.96
-1389.92
-1416.09
-1441.48
-1466.11
-1490
-1513.18
-1535.67
-1557.48
-1578.63
-1599.16
-1619.07
-1638.4
-1657.15
-1675.35
-1693.02
-1710.18
-1726.85
-1743.05
-1758.8
-1774.11
-1789
-1803.48
-1817.59
-1831.32
-1844.7
-1857.74
-1870.46
-1882.86
-1894.97
-1906.78
-1918.32
-1929.6
-1940.62
-1951.39
-1961.93
-1972.24
-1982.33
-1992.21
-2001.89
-2011.36
-2020.64
-2029.74
-2038.65
-2047.39
-2055.95
-2064.35
-2072.58
-2080.66
-2088.58
-2096.34
-2103.96
-2111.44
-2118.77
-2125.96
-2133.02
-2139.95
-2146.75
-2153.42
-2159.98
-2166.41
-2172.73
-2178.94
-2185.04
-2191.04
-2196.93
-2202.73
-2208.44
-2214.05
-2219.59
-2225.04
-2230.41
-2235.72
-2240.95
-2246.12
-2251.23
-2256.29
-2261.3
-2266.26
-2271.18
-2276.07
-2280.93
-2285.76
-2290.56
-2295.36
-2300.14
-2304.91
-2309.68
-2314.46
-2319.24
-2324.03
-2328.84
-2333.67
-2338.52
-2343.39
-2348.29
-2353.23
-2358.2
-2363.21
-2368.25
-2373.33
-2378.46
-2383.62
-2388.82
-2394.06
-2399.34
-2404.65
-2410
-2415.37
-2420.78
-2426.21
-2431.65
-2437.11
-2442.58
-2448.05
-2453.52
-2458.98
-2464.43
-2469.85
-2475.23
-2480.58
-2485.88
-2491.13
-2496.31
-2501.41
-2506.43
-2511.35
-2516.17
-2520.87
-2525.44
-2529.88
-2534.17
-2538.3
-2542.26
-2546.03
-2549.61
-2552.99
-2556.15
-2559.08
-2561.77
-2564.21
-2566.38
-2568.28
-2569.89
-2571.21
-2572.21
-2572.9
-2573.25
-2573.27
-2572.93
-2572.23
-2571.16
-2569.71
-2567.87
-2565.63
-2562.98
-2559.93
-2556.45
-2552.54
-2548.2
-2543.42
-2538.2
-2532.52
-2526.39
-2519.81
-2512.76
-2505.25
-2497.28
-2488.84
-2479.93
-2470.56
-2460.72
-2450.42
-2439.65
-2428.43
-2416.75
-2404.61
-2392.03
-2379.01
-2365.55
-2351.66
-2337.34
-2322.61
-2307.47
-2291.93
-2276
-2259.69
-2243.01
-2225.97
-2208.58
-2190.85
-2172.8
-2154.43
-2135.77
-2116.81
-2097.59
-2078.11
-2058.38
-2038.42
-2018.25
-1997.88
-1977.33
-1956.62
-1935.76
-1914.76
-1893.66
-1872.45
-1851.17
-1829.83
-1808.45
-1787.05
-1765.65
-1744.26
-1722.92
-1701.63
-1680.42
-1659.31
-1638.32
-1617.47
-1596.78
-1576.27
-1555.96
-1535.88
-1516.04
-1496.47
-1477.18
-1458.19
-1439.53
-1421.21
-1403.26
-1385.68
-1368.51
-1351.75
-1335.43
-1319.57
-1304.17
-1289.26
-1274.85
-1260.96
-1247.6
-1234.79
-1222.54
-1210.86
-1199.76
-1189.26
-1179.37
-1170.09
-1161.45
-1153.44
-1146.07
-1139.36
-1133.3
-1127.91
-1123.18
-1119.13
-1115.77
-1113.09
-1111.07
-1109.72
-1108.87
7128.63
7128.76
7128.96
7129.21
7129.58
7130.04
7130.59
7131.24
7131.98
7132.8
7133.71
7134.7
7135.77
7136.91
7138.12
7139.4
7140.73
7142.11
7143.54
7145.01
7146.51
7148.03
7149.58
7151.13
7152.68
7154.24
7155.78
7157.3
7158.8
7160.26
7161.68
7163.05
7164.37
7165.62
7166.79
7167.88
7168.86
7169.72
7170.46
7171.08
7171.56
7171.92
7172.15
7172.26
7172.25
7172.11
7171.83
7171.38
7170.74
7169.88
7168.79
7167.45
7165.84
7163.97
7161.85
7159.51
7156.98
7154.27
7151.28
7148.06
7144.54
7140.69
7136.49
7131.95
7127.06
7121.8
7116.17
7110.17
7103.78
7096.98
7089.78
7082.16
7074.11
7065.62
7056.68
7047.27
7037.39
7027.03
7016.17
7004.8
6992.91
6980.49
6967.53
6954.01
6939.93
6925.27
6910.02
6894.17
6877.7
6860.61
6842.86
6824.46
6805.39
6785.65
6765.21
6744.08
6722.24
6699.69
6676.4
6652.37
6627.57
6601.98
6575.56
6548.29
6520.16
6491.15
6461.24
6430.42
6398.7
6366.07
6332.53
6298.06
6262.67
6226.34
6189.08
6150.88
6111.73
6071.63
6030.57
5988.56
5945.57
5901.62
5856.69
5810.8
5763.92
5716.07
5667.25
5617.46
5566.7
5514.97
5462.28
5408.64
5354.04
5298.5
5242.03
5184.62
5126.29
5067.04
5006.89
4945.85
4883.93
4821.14
4757.51
4693.07
4627.82
4561.8
4495.02
4427.51
4359.28
4290.34
4220.73
4150.46
4079.54
4008.01
3935.89
3863.2
3789.97
3716.21
3641.97
3567.26
3492.12
3416.57
3340.65
3264.39
3187.82
3110.97
3033.88
2956.58
2879.1
2801.48
2723.74
2645.93
2568.07
2490.2
2412.35
2334.54
2256.82
2179.22
2101.76
2024.48
1947.39
1870.55
1793.96
1717.68
1641.72
1566.14
1490.96
1416.21
1341.94
1268.17
1194.94
1122.28
1050.21
978.779
907.999
837.901
768.511
699.852
631.95
564.827
498.506
433.008
368.354
304.563
241.655
179.646
118.555
58.3958
-0.815271
-59.0647
-116.34
-172.629
-227.921
-282.207
-335.478
-387.728
-438.949
-489.138
-538.29
-586.403
-633.476
-679.508
-724.501
-768.456
-811.377
-853.27
-894.138
-933.99
-972.832
-1010.67
-1047.51
-1083.41
-1118.32
-1152.27
-1185.29
-1217.4
-1248.6
-1278.91
-1308.36
-1336.95
-1364.7
-1391.64
-1417.78
-1443.14
-1467.75
-1491.61
-1514.76
-1537.22
-1559
-1580.13
-1600.62
-1620.51
-1639.8
-1658.53
-1676.7
-1694.34
-1711.48
-1728.12
-1744.29
-1760.01
-1775.3
-1790.16
-1804.63
-1818.71
-1832.42
-1845.78
-1858.8
-1871.49
-1883.88
-1895.96
-1907.76
-1919.29
-1930.54
-1941.55
-1952.31
-1962.83
-1973.13
-1983.21
-1993.07
-2002.73
-2012.19
-2021.46
-2030.55
-2039.45
-2048.18
-2056.73
-2065.12
-2073.34
-2081.4
-2089.31
-2097.07
-2104.68
-2112.14
-2119.46
-2126.64
-2133.69
-2140.61
-2147.4
-2154.06
-2160.6
-2167.03
-2173.34
-2179.53
-2185.62
-2191.61
-2197.49
-2203.28
-2208.97
-2214.58
-2220.1
-2225.53
-2230.9
-2236.19
-2241.41
-2246.57
-2251.66
-2256.71
-2261.7
-2266.65
-2271.56
-2276.43
-2281.27
-2286.09
-2290.88
-2295.66
-2300.43
-2305.19
-2309.95
-2314.71
-2319.48
-2324.26
-2329.05
-2333.87
-2338.71
-2343.57
-2348.47
-2353.39
-2358.35
-2363.35
-2368.39
-2373.47
-2378.58
-2383.74
-2388.94
-2394.17
-2399.45
-2404.76
-2410.11
-2415.49
-2420.9
-2426.33
-2431.78
-2437.25
-2442.72
-2448.2
-2453.68
-2459.15
-2464.6
-2470.03
-2475.43
-2480.79
-2486.11
-2491.37
-2496.56
-2501.68
-2506.71
-2511.65
-2516.49
-2521.21
-2525.8
-2530.26
-2534.56
-2538.71
-2542.69
-2546.49
-2550.09
-2553.49
-2556.67
-2559.63
-2562.34
-2564.8
-2567
-2568.92
-2570.55
-2571.89
-2572.91
-2573.62
-2573.99
-2574.03
-2573.71
-2573.03
-2571.98
-2570.54
-2568.72
-2566.5
-2563.87
-2560.82
-2557.36
-2553.47
-2549.14
-2544.37
-2539.15
-2533.48
-2527.36
-2520.78
-2513.74
-2506.23
-2498.26
-2489.82
-2480.91
-2471.54
-2461.7
-2451.39
-2440.62
-2429.39
-2417.7
-2405.55
-2392.96
-2379.93
-2366.45
-2352.54
-2338.21
-2323.46
-2308.3
-2292.74
-2276.79
-2260.46
-2243.76
-2226.69
-2209.28
-2191.53
-2173.45
-2155.06
-2136.36
-2117.38
-2098.13
-2078.62
-2058.86
-2038.87
-2018.67
-1998.27
-1977.69
-1956.94
-1936.05
-1915.02
-1893.87
-1872.63
-1851.32
-1829.94
-1808.52
-1787.08
-1765.64
-1744.22
-1722.83
-1701.5
-1680.26
-1659.11
-1638.08
-1617.19
-1596.46
-1575.92
-1555.57
-1535.46
-1515.58
-1495.97
-1476.65
-1457.63
-1438.93
-1420.58
-1402.6
-1384.99
-1367.79
-1351
-1334.66
-1318.76
-1303.34
-1288.41
-1273.98
-1260.06
-1246.69
-1233.85
-1221.58
-1209.88
-1198.77
-1188.26
-1178.35
-1169.06
-1160.4
-1152.38
-1145
-1138.27
-1132.21
-1126.81
-1122.08
-1118.03
-1114.66
-1111.98
-1109.95
-1108.59
-1107.75
7128.05
7128.2
7128.4
7128.65
7129.01
7129.48
7130.04
7130.7
7131.45
7132.28
7133.21
7134.21
7135.3
7136.46
7137.69
7138.98
7140.34
7141.74
7143.2
7144.69
7146.22
7147.77
7149.34
7150.92
7152.51
7154.09
7155.66
7157.22
7158.75
7160.24
7161.7
7163.1
7164.46
7165.74
7166.95
7168.06
7169.08
7169.98
7170.75
7171.41
7171.93
7172.32
7172.6
7172.75
7172.77
7172.66
7172.4
7171.97
7171.35
7170.53
7169.47
7168.17
7166.63
7164.83
7162.79
7160.53
7158.06
7155.43
7152.43
7149.1
7145.51
7141.63
7137.43
7132.89
7128.02
7122.78
7117.18
7111.2
7104.83
7098.07
7090.89
7083.3
7075.28
7066.82
7057.9
7048.53
7038.68
7028.35
7017.52
7006.18
6994.32
6981.93
6969
6955.52
6941.46
6926.84
6911.62
6895.8
6879.36
6862.29
6844.58
6826.21
6807.18
6787.47
6767.06
6745.96
6724.14
6701.6
6678.32
6654.29
6629.48
6603.88
6577.46
6550.19
6522.07
6493.08
6463.2
6432.42
6400.74
6368.15
6334.64
6300.22
6264.86
6228.58
6191.35
6153.18
6114.07
6074
6032.97
5990.97
5948.01
5904.08
5859.17
5813.29
5766.43
5718.59
5669.78
5619.99
5569.24
5517.51
5464.82
5411.17
5356.56
5301.01
5244.52
5187.09
5128.74
5069.47
5009.29
4948.22
4886.27
4823.46
4759.8
4695.32
4630.04
4563.97
4497.14
4429.57
4361.27
4292.27
4222.58
4152.22
4081.22
4009.6
3937.38
3864.59
3791.26
3717.4
3643.06
3568.25
3493
3417.35
3341.32
3264.95
3188.27
3111.32
3034.11
2956.7
2879.11
2801.37
2723.52
2645.59
2567.62
2489.63
2411.66
2333.74
2255.9
2178.18
2100.61
2023.21
1946.02
1869.07
1792.39
1716
1639.96
1564.28
1489.01
1414.18
1339.83
1265.99
1192.68
1119.95
1047.82
976.32
905.476
835.317
765.868
697.154
629.2
562.028
495.661
430.121
365.429
301.603
238.664
176.628
115.513
55.3345
-3.89256
-62.1544
-119.438
-175.733
-231.027
-285.311
-338.578
-390.82
-442.031
-492.207
-541.343
-589.438
-636.49
-682.5
-727.468
-771.397
-814.29
-856.152
-896.99
-936.809
-975.618
-1013.43
-1050.26
-1086.18
-1120.98
-1154.89
-1187.87
-1219.94
-1251.1
-1281.37
-1310.77
-1339.32
-1367.04
-1393.93
-1420.03
-1445.35
-1469.91
-1493.74
-1516.85
-1539.27
-1561.01
-1582.1
-1602.55
-1622.4
-1641.65
-1660.34
-1678.47
-1696.08
-1713.18
-1729.79
-1745.93
-1761.61
-1776.86
-1791.7
-1806.13
-1820.18
-1833.87
-1847.2
-1860.19
-1872.86
-1885.22
-1897.28
-1909.06
-1920.56
-1931.79
-1942.78
-1953.52
-1964.02
-1974.3
-1984.36
-1994.21
-2003.85
-2013.3
-2022.55
-2031.62
-2040.51
-2049.22
-2057.76
-2066.13
-2074.34
-2082.39
-2090.29
-2098.03
-2105.62
-2113.07
-2120.38
-2127.55
-2134.59
-2141.49
-2148.26
-2154.91
-2161.44
-2167.85
-2174.14
-2180.32
-2186.4
-2192.36
-2198.23
-2204
-2209.68
-2215.27
-2220.77
-2226.19
-2231.54
-2236.81
-2242.02
-2247.16
-2252.24
-2257.26
-2262.24
-2267.17
-2272.06
-2276.91
-2281.74
-2286.53
-2291.31
-2296.07
-2300.82
-2305.56
-2310.3
-2315.05
-2319.8
-2324.56
-2329.34
-2334.14
-2338.96
-2343.81
-2348.7
-2353.61
-2358.56
-2363.55
-2368.58
-2373.64
-2378.75
-2383.9
-2389.1
-2394.33
-2399.61
-2404.92
-2410.27
-2415.65
-2421.06
-2426.49
-2431.95
-2437.42
-2442.91
-2448.4
-2453.88
-2459.37
-2464.83
-2470.28
-2475.69
-2481.07
-2486.4
-2491.68
-2496.89
-2502.03
-2507.09
-2512.05
-2516.91
-2521.66
-2526.27
-2530.76
-2535.09
-2539.27
-2543.28
-2547.1
-2550.74
-2554.16
-2557.37
-2560.36
-2563.1
-2565.59
-2567.81
-2569.76
-2571.43
-2572.79
-2573.85
-2574.58
-2574.98
-2575.04
-2574.75
-2574.09
-2573.07
-2571.66
-2569.86
-2567.66
-2565.05
-2562.02
-2558.58
-2554.7
-2550.38
-2545.63
-2540.42
-2534.77
-2528.66
-2522.08
-2515.05
-2507.54
-2499.57
-2491.14
-2482.23
-2472.85
-2463
-2452.69
-2441.91
-2430.67
-2418.97
-2406.81
-2394.2
-2381.15
-2367.65
-2353.73
-2339.37
-2324.6
-2309.42
-2293.83
-2277.85
-2261.49
-2244.76
-2227.66
-2210.22
-2192.43
-2174.32
-2155.89
-2137.16
-2118.14
-2098.85
-2079.29
-2059.49
-2039.46
-2019.22
-1998.78
-1978.15
-1957.36
-1936.41
-1915.34
-1894.15
-1872.86
-1851.49
-1830.07
-1808.6
-1787.11
-1765.62
-1744.14
-1722.71
-1701.33
-1680.03
-1658.83
-1637.75
-1616.81
-1596.03
-1575.44
-1555.05
-1534.88
-1514.96
-1495.31
-1475.93
-1456.87
-1438.13
-1419.74
-1401.71
-1384.07
-1366.82
-1350
-1333.62
-1317.69
-1302.23
-1287.27
-1272.81
-1258.86
-1245.45
-1232.6
-1220.3
-1208.58
-1197.44
-1186.9
-1176.98
-1167.67
-1158.99
-1150.95
-1143.56
-1136.82
-1130.74
-1125.33
-1120.6
-1116.54
-1113.17
-1110.48
-1108.45
-1107.07
-1106.23
7127.35
7127.52
7127.72
7127.97
7128.34
7128.81
7129.38
7130.05
7130.81
7131.66
7132.6
7133.62
7134.72
7135.9
7137.15
7138.47
7139.85
7141.28
7142.76
7144.28
7145.84
7147.42
7149.03
7150.64
7152.27
7153.89
7155.5
7157.09
7158.66
7160.19
7161.69
7163.13
7164.52
7165.85
7167.09
7168.25
7169.31
7170.25
7171.08
7171.79
7172.38
7172.83
7173.16
7173.35
7173.41
7173.33
7173.08
7172.66
7172.06
7171.24
7170.21
7168.94
7167.44
7165.69
7163.69
7161.46
7158.98
7156.15
7153.31
7150.11
7146.59
7142.75
7138.58
7134.07
7129.22
7124.01
7118.44
7112.49
7106.15
7099.42
7092.28
7084.72
7076.73
7068.3
7059.42
7050.08
7040.27
7029.97
7019.18
7007.88
6996.06
6983.72
6970.82
6957.38
6943.37
6928.78
6913.6
6897.81
6881.41
6864.38
6846.71
6828.38
6809.38
6789.71
6769.34
6748.27
6726.48
6703.96
6680.7
6656.68
6631.88
6606.29
6579.88
6552.64
6524.54
6495.58
6465.73
6434.99
6403.36
6370.81
6337.35
6302.97
6267.66
6231.42
6194.24
6156.11
6117.03
6076.99
6035.99
5994.02
5951.09
5907.17
5862.29
5816.42
5769.58
5721.75
5672.95
5623.17
5572.41
5520.68
5467.98
5414.32
5359.71
5304.14
5247.62
5190.17
5131.78
5072.48
5012.27
4951.17
4889.18
4826.32
4762.62
4698.1
4632.76
4566.63
4499.74
4432.09
4363.7
4294.61
4224.82
4154.37
4083.26
4011.53
3939.2
3866.3
3792.84
3718.87
3644.4
3569.46
3494.09
3418.31
3342.15
3265.65
3188.84
3111.74
3034.4
2956.84
2879.11
2801.22
2723.22
2645.15
2567.02
2488.88
2410.76
2332.69
2254.71
2176.84
2099.12
2021.59
1944.26
1867.18
1790.38
1713.88
1637.73
1561.95
1486.58
1411.65
1337.2
1263.26
1189.87
1117.05
1044.83
973.248
902.324
832.087
762.565
693.782
625.762
558.529
492.105
426.513
361.773
297.905
234.927
172.858
111.715
51.5123
-7.73398
-66.0105
-123.305
-179.605
-234.9
-289.182
-342.443
-394.674
-445.871
-496.029
-545.145
-593.216
-640.241
-686.221
-731.156
-775.05
-817.906
-859.73
-900.527
-940.304
-979.069
-1016.83
-1053.59
-1089.33
-1124.23
-1158.12
-1191.07
-1223.09
-1254.2
-1284.43
-1313.79
-1342.29
-1369.95
-1396.8
-1422.85
-1448.12
-1472.63
-1496.41
-1519.47
-1541.83
-1563.52
-1584.56
-1604.97
-1624.76
-1643.97
-1662.61
-1680.7
-1698.26
-1715.31
-1731.87
-1747.97
-1763.61
-1778.82
-1793.62
-1808.01
-1822.03
-1835.68
-1848.97
-1861.93
-1874.57
-1886.9
-1898.93
-1910.67
-1922.15
-1933.36
-1944.32
-1955.03
-1965.51
-1975.77
-1985.8
-1995.63
-2005.25
-2014.68
-2023.92
-2032.97
-2041.83
-2050.53
-2059.05
-2067.4
-2075.6
-2083.63
-2091.51
-2099.23
-2106.81
-2114.24
-2121.53
-2128.69
-2135.7
-2142.59
-2149.35
-2155.98
-2162.49
-2168.88
-2175.15
-2181.31
-2187.37
-2193.32
-2199.16
-2204.92
-2210.57
-2216.14
-2221.62
-2227.02
-2232.35
-2237.6
-2242.78
-2247.9
-2252.96
-2257.96
-2262.91
-2267.82
-2272.69
-2277.52
-2282.32
-2287.1
-2291.85
-2296.59
-2301.31
-2306.03
-2310.75
-2315.47
-2320.2
-2324.94
-2329.7
-2334.48
-2339.29
-2344.12
-2348.98
-2353.88
-2358.82
-2363.79
-2368.81
-2373.87
-2378.97
-2384.11
-2389.3
-2394.53
-2399.8
-2405.11
-2410.46
-2415.84
-2421.26
-2426.7
-2432.16
-2437.65
-2443.14
-2448.64
-2454.14
-2459.64
-2465.12
-2470.59
-2476.02
-2481.42
-2486.78
-2492.08
-2497.31
-2502.48
-2507.56
-2512.56
-2517.44
-2522.22
-2526.87
-2531.39
-2535.76
-2539.97
-2544.01
-2547.87
-2551.54
-2555
-2558.25
-2561.27
-2564.05
-2566.57
-2568.84
-2570.82
-2572.52
-2573.92
-2575.02
-2575.78
-2576.22
-2576.31
-2576.05
-2575.43
-2574.43
-2573.05
-2571.28
-2569.11
-2566.52
-2563.52
-2560.1
-2556.24
-2551.95
-2547.21
-2542.02
-2536.38
-2530.27
-2523.71
-2516.68
-2509.18
-2501.22
-2492.78
-2483.87
-2474.49
-2464.64
-2454.31
-2443.52
-2432.27
-2420.55
-2408.38
-2395.75
-2382.68
-2369.16
-2355.21
-2340.83
-2326.03
-2310.81
-2295.2
-2279.18
-2262.79
-2246.01
-2228.88
-2211.39
-2193.56
-2175.4
-2156.93
-2138.15
-2119.09
-2099.75
-2080.14
-2060.29
-2040.21
-2019.92
-1999.42
-1978.74
-1957.89
-1936.89
-1915.75
-1894.5
-1873.15
-1851.73
-1830.24
-1808.71
-1787.15
-1765.6
-1744.06
-1722.56
-1701.12
-1679.76
-1658.49
-1637.35
-1616.35
-1595.51
-1574.85
-1554.4
-1534.17
-1514.19
-1494.48
-1475.05
-1455.93
-1437.14
-1418.69
-1400.61
-1382.91
-1365.62
-1348.75
-1332.32
-1316.35
-1300.85
-1285.84
-1271.34
-1257.36
-1243.92
-1231.02
-1218.69
-1206.94
-1195.78
-1185.21
-1175.26
-1165.93
-1157.23
-1149.17
-1141.76
-1135
-1128.91
-1123.48
-1118.73
-1114.67
-1111.29
-1108.6
-1106.56
-1105.18
-1104.33
7126.52
7126.69
7126.89
7127.15
7127.52
7128.01
7128.59
7129.26
7130.04
7130.9
7131.86
7132.9
7134.02
7135.22
7136.5
7137.84
7139.25
7140.71
7142.23
7143.78
7145.38
7147
7148.64
7150.3
7151.97
7153.63
7155.29
7156.92
7158.54
7160.12
7161.66
7163.16
7164.6
7165.97
7167.26
7168.47
7169.58
7170.58
7171.47
7172.23
7172.87
7173.38
7173.76
7174.01
7174.12
7174.07
7173.87
7173.49
7172.92
7172.15
7171.17
7169.95
7168.5
7166.81
7164.88
7162.7
7160.29
7157.61
7154.67
7151.45
7147.94
7144.12
7139.97
7135.5
7130.68
7125.5
7119.96
7114.05
7107.75
7101.05
7093.95
7086.42
7078.48
7070.09
7061.25
7051.95
7042.18
7031.93
7021.18
7009.93
6998.15
6985.85
6973.01
6959.61
6945.64
6931.1
6915.97
6900.23
6883.87
6866.89
6849.26
6830.98
6812.03
6792.4
6772.07
6751.04
6729.29
6706.8
6683.57
6659.58
6634.81
6609.24
6582.86
6555.64
6527.58
6498.65
6468.85
6438.16
6406.57
6374.07
6340.67
6306.33
6271.07
6234.88
6197.74
6159.65
6120.61
6080.61
6039.64
5997.71
5954.8
5910.91
5866.04
5820.2
5773.36
5725.55
5676.75
5626.97
5576.22
5524.48
5471.78
5418.1
5363.46
5307.87
5251.33
5193.84
5135.42
5076.08
5015.83
4954.67
4892.64
4829.73
4765.97
4701.38
4635.97
4569.77
4502.79
4435.04
4366.56
4297.36
4227.47
4156.89
4085.66
4013.81
3941.35
3868.31
3794.72
3720.6
3645.99
3570.9
3495.38
3419.45
3343.14
3266.48
3189.5
3112.25
3034.74
2957.02
2879.12
2801.06
2722.9
2644.65
2566.35
2488.04
2409.74
2331.5
2253.35
2175.31
2097.43
2019.72
1942.24
1865
1788.04
1711.4
1635.1
1559.19
1483.69
1408.64
1334.07
1260.01
1186.5
1113.57
1041.25
969.561
898.539
828.209
758.597
689.729
621.63
554.323
487.831
422.176
357.378
293.458
230.435
168.325
107.147
46.9158
-12.3539
-70.6483
-127.955
-184.262
-239.56
-293.84
-347.093
-399.312
-450.493
-500.631
-549.723
-597.766
-644.76
-690.706
-735.604
-779.459
-822.273
-864.052
-904.803
-944.531
-983.247
-1020.96
-1057.67
-1093.4
-1128.19
-1162.03
-1194.92
-1226.88
-1257.94
-1288.11
-1317.4
-1345.84
-1373.44
-1400.23
-1426.22
-1451.43
-1475.88
-1499.59
-1522.59
-1544.9
-1566.53
-1587.51
-1607.85
-1627.59
-1646.74
-1665.32
-1683.35
-1700.86
-1717.86
-1734.37
-1750.41
-1766.01
-1781.17
-1795.92
-1810.27
-1824.24
-1837.84
-1851.1
-1864.02
-1876.61
-1888.91
-1900.9
-1912.61
-1924.05
-1935.23
-1946.16
-1956.84
-1967.3
-1977.53
-1987.54
-1997.34
-2006.94
-2016.34
-2025.55
-2034.58
-2043.43
-2052.1
-2060.6
-2068.93
-2077.1
-2085.12
-2092.97
-2100.68
-2108.24
-2115.65
-2122.92
-2130.05
-2137.05
-2143.91
-2150.65
-2157.26
-2163.74
-2170.11
-2176.36
-2182.5
-2188.53
-2194.46
-2200.28
-2206.01
-2211.64
-2217.19
-2222.64
-2228.02
-2233.32
-2238.54
-2243.7
-2248.79
-2253.82
-2258.8
-2263.73
-2268.61
-2273.45
-2278.25
-2283.02
-2287.77
-2292.49
-2297.2
-2301.9
-2306.6
-2311.29
-2315.98
-2320.69
-2325.4
-2330.14
-2334.89
-2339.68
-2344.49
-2349.33
-2354.21
-2359.13
-2364.09
-2369.09
-2374.13
-2379.22
-2384.36
-2389.54
-2394.76
-2400.03
-2405.34
-2410.69
-2416.08
-2421.49
-2426.94
-2432.41
-2437.91
-2443.41
-2448.93
-2454.45
-2459.96
-2465.47
-2470.95
-2476.41
-2481.84
-2487.22
-2492.55
-2497.82
-2503.01
-2508.13
-2513.16
-2518.08
-2522.89
-2527.58
-2532.14
-2536.55
-2540.8
-2544.89
-2548.79
-2552.5
-2556.01
-2559.3
-2562.36
-2565.19
-2567.76
-2570.07
-2572.1
-2573.84
-2575.29
-2576.42
-2577.23
-2577.71
-2577.84
-2577.62
-2577.04
-2576.07
-2574.73
-2572.99
-2570.85
-2568.3
-2565.32
-2561.93
-2558.09
-2553.82
-2549.1
-2543.93
-2538.31
-2532.22
-2525.67
-2518.65
-2511.16
-2503.19
-2494.76
-2485.84
-2476.46
-2466.6
-2456.27
-2445.47
-2434.2
-2422.46
-2410.27
-2397.62
-2384.52
-2370.97
-2356.99
-2342.58
-2327.74
-2312.49
-2296.83
-2280.78
-2264.34
-2247.52
-2230.34
-2212.8
-2194.92
-2176.71
-2158.18
-2139.35
-2120.23
-2100.83
-2081.17
-2061.26
-2041.11
-2020.75
-2000.19
-1979.44
-1958.52