/*--------------------------------*- C++ -*----------------------------------*\
| =========                 |                                                 |
| \\      /  F ield         | OpenFOAM: The Open Source CFD Toolbox           |
|  \\    /   O peration     | Version:  v2006                                 |
|   \\  /    A nd           | Website:  www.openfoam.com                      |
|    \\/     M anipulation  |                                                 |
\*---------------------------------------------------------------------------*/
FoamFile
{
    version     2.0;
    format      ascii;
    class       volScalarField;
    location    "0";
    object      f;
}
// * * * * * * * * * * * * * * * * * * * * * * * * * * * * * * * * * * * * * //

dimensions      [0 0 0 0 0 0 0];


internalField   nonuniform List<scalar> 
2500
(
-1.52268e-17
-1.52264e-17
-1.52341e-17
-1.52882e-17
-1.55287e-17
-1.62086e-17
-1.69948e-17
-1.70113e-17
-1.93424e-17
-2.53623e-17
-3.29489e-17
-3.10154e-17
-6.57453e-18
3.75354e-17
8.60154e-17
1.19628e-16
1.20332e-16
7.80339e-17
5.15094e-18
-5.32495e-17
-6.16042e-17
-3.31702e-17
1.76988e-17
6.18631e-17
6.42444e-17
3.0559e-17
-4.88421e-18
-1.76319e-17
-1.03943e-17
1.40227e-18
7.03638e-18
6.66273e-18
4.16938e-18
1.98341e-18
6.99179e-19
1.1975e-19
-7.16586e-20
-9.67079e-20
-7.0489e-20
-4.00391e-20
-1.87878e-20
-7.03865e-21
-1.66153e-21
2.856e-22
7.03838e-22
5.89486e-22
3.74247e-22
2.01906e-22
9.52787e-23
3.89621e-23
-2.33354e-17
-2.33349e-17
-2.33482e-17
-2.34688e-17
-2.40308e-17
-2.59133e-17
-2.76602e-17
-2.63158e-17
-3.13272e-17
-4.2855e-17
-6.2023e-17
-6.73405e-17
-2.00615e-17
8.26796e-17
1.99921e-16
2.91837e-16
3.10008e-16
2.14027e-16
2.13839e-17
-1.546e-16
-1.73463e-16
-9.38277e-17
3.88523e-17
1.8241e-16
1.95897e-16
9.10987e-17
-1.67365e-17
-5.31616e-17
-2.9664e-17
6.14902e-18
2.07468e-17
1.74266e-17
9.7344e-18
4.15438e-18
1.31476e-18
1.90083e-19
-1.29159e-19
-1.4993e-19
-9.58133e-20
-4.48828e-20
-1.40012e-20
2.01246e-22
4.6823e-21
4.77253e-21
3.48054e-21
2.13976e-21
1.1644e-21
5.69638e-22
2.49593e-22
9.52128e-23
-3.38059e-17
-3.38072e-17
-3.38243e-17
-3.40677e-17
-3.52522e-17
-4.11147e-17
-4.47575e-17
-3.86237e-17
-5.10007e-17
-7.0197e-17
-1.12289e-16
-1.54372e-16
-7.42678e-17
1.82144e-16
4.7569e-16
7.16582e-16
8.14618e-16
6.08238e-16
8.84158e-17
-4.86491e-16
-4.98566e-16
-2.47951e-16
6.81196e-17
6.26181e-16
6.49261e-16
2.64625e-16
-6.70835e-17
-1.70833e-16
-9.12953e-17
2.11457e-17
6.01285e-17
4.37638e-17
2.07555e-17
7.45798e-18
1.92287e-18
1.39952e-19
-2.27924e-19
-1.83408e-19
-7.88919e-20
-7.67892e-21
2.38617e-20
3.02595e-20
2.53486e-20
1.75656e-20
1.07352e-20
5.93543e-21
2.99656e-21
1.3789e-21
5.69369e-22
2.01645e-22
-4.60125e-17
-4.60291e-17
-4.60343e-17
-4.6466e-17
-4.85534e-17
-7.06443e-17
-7.64545e-17
-5.52453e-17
-8.39877e-17
-1.19789e-16
-1.81044e-16
-3.84837e-16
-2.91968e-16
4.4239e-16
1.52542e-15
1.93979e-15
2.14111e-15
1.90156e-15
2.99565e-16
-2.27773e-15
-1.24533e-15
-5.69203e-16
2.66175e-15
4.11989e-15
2.43876e-15
6.69311e-16
-3.48207e-16
-6.36009e-16
-3.00551e-16
6.6944e-17
1.80133e-16
1.06737e-16
3.85617e-17
9.97068e-18
1.45254e-18
-2.76778e-19
-2.80633e-19
-4.28029e-20
1.11056e-19
1.6262e-19
1.52447e-19
1.1736e-19
7.9534e-20
4.88241e-20
2.75131e-20
1.43057e-20
6.85368e-21
2.99553e-21
1.16337e-21
3.73491e-22
-5.83375e-17
-5.84202e-17
-5.83636e-17
-5.90083e-17
-6.11861e-17
-1.57473e-16
-1.56988e-16
-8.39006e-17
-1.21961e-16
-3.91389e-16
-4.04304e-16
-1.1938e-15
-9.55529e-16
2.42685e-15
6.83215e-15
5.75448e-15
3.89594e-15
4.77485e-15
-3.44728e-14
-1.42093e-14
2.04533e-15
4.38592e-14
4.16062e-14
2.18337e-14
5.7272e-15
8.36433e-16
-5.11734e-15
-3.15572e-15
-9.99613e-16
2.61394e-16
6.42934e-16
2.53754e-16
5.18222e-17
3.05397e-18
-2.46511e-18
-9.30848e-19
3.35968e-19
7.96934e-19
8.21303e-19
6.76917e-19
4.94561e-19
3.30536e-19
2.04432e-19
1.17538e-19
6.28858e-20
3.12382e-20
1.4302e-20
5.93156e-21
2.13686e-21
5.87609e-22
-6.8164e-17
-6.84268e-17
-6.82194e-17
-6.90025e-17
-6.57743e-17
-4.7272e-16
-4.2855e-16
-1.58622e-16
1.60702e-15
-5.76085e-15
-1.71562e-14
-6.58461e-15
3.71873e-15
2.73285e-14
1.621e-14
1.24397e-14
-5.9574e-14
-3.32707e-13
-2.81157e-13
-4.09134e-14
3.50026e-13
3.28116e-13
1.60716e-13
4.49412e-14
-2.4091e-14
-6.53769e-14
-3.54971e-14
-9.84748e-15
-2.24444e-15
6.42016e-15
3.23382e-15
5.02239e-16
-2.04545e-17
-3.75655e-17
-1.05841e-17
1.38573e-18
4.09663e-18
3.7696e-18
2.82868e-18
1.95542e-18
1.2797e-18
7.94236e-19
4.65363e-19
2.56114e-19
1.31724e-19
6.2873e-20
2.74995e-20
1.07247e-20
3.47355e-21
6.99614e-22
-7.28839e-17
-7.33886e-17
-7.30047e-17
-7.39264e-17
1.08036e-17
-1.12679e-15
-7.40776e-16
1.82758e-14
3.83037e-14
-2.86794e-14
-1.08254e-13
-2.79945e-14
2.93738e-13
2.52506e-13
-1.55786e-13
-1.19545e-12
-2.11733e-12
-1.95134e-12
-7.51024e-13
1.81484e-12
1.72062e-12
7.07859e-13
1.49494e-13
-1.24862e-12
-9.14032e-13
-3.80923e-13
-7.73278e-14
-2.3011e-15
9.33081e-14
5.08264e-14
9.06504e-15
-5.22638e-16
-5.69812e-16
-1.41891e-16
-3.80401e-19
2.1862e-17
1.80254e-17
1.19244e-17
7.51864e-18
4.68504e-18
2.87339e-18
1.70655e-18
9.65987e-19
5.14944e-19
2.56074e-19
1.17493e-19
4.87884e-20
1.75412e-20
4.75734e-21
2.76795e-22
1.79642e-13
1.68428e-13
1.99902e-13
2.43587e-13
1.71179e-13
5.69577e-14
2.78543e-13
3.0089e-13
1.72256e-13
-6.44731e-14
-3.33944e-13
1.90401e-13
1.16285e-12
8.36581e-13
-4.30524e-12
-8.58877e-12
-9.44486e-12
-4.60815e-12
1.13272e-11
1.03777e-11
3.66111e-12
-4.77966e-12
-1.52382e-11
-1.04619e-11
-3.81715e-12
-7.68389e-13
5.48959e-13
1.2214e-12
6.27781e-13
1.22988e-13
-1.59521e-14
-1.18131e-14
-2.524e-15
-8.23306e-17
1.68552e-16
1.0569e-16
5.53198e-17
2.94224e-17
1.65027e-17
9.66988e-18
5.74405e-18
3.34309e-18
1.85601e-18
9.65865e-19
4.65225e-19
2.04318e-19
7.9454e-20
2.52974e-20
4.65177e-21
-1.67871e-21
1.41854e-12
1.42165e-12
1.4625e-12
1.46449e-12
1.2656e-12
1.23156e-12
1.51812e-12
1.14226e-12
2.77372e-13
-8.5291e-14
-5.03812e-13
2.11267e-12
9.26413e-13
-1.47317e-11
-1.86252e-11
-1.81303e-11
-2.05684e-11
7.9332e-11
7.64467e-11
2.64031e-11
-5.07211e-11
-1.26491e-10
-7.99953e-11
-2.29532e-11
-5.91863e-12
9.31611e-12
1.27065e-11
6.38275e-12
1.36505e-12
-2.32697e-13
-1.84125e-13
-4.76518e-14
-2.82833e-15
2.75661e-15
1.02149e-15
3.08985e-16
1.19462e-16
5.56291e-17
2.96736e-17
1.72526e-17
1.03352e-17
6.05281e-18
3.34276e-18
1.70615e-18
7.93901e-19
3.30291e-19
1.17199e-19
3.01605e-20
1.43913e-22
-7.07022e-21
4.26698e-12
4.37953e-12
4.29807e-12
3.91231e-12
3.82151e-12
4.81948e-12
3.52623e-12
2.75167e-12
-3.68813e-13
7.58029e-12
2.44208e-11
1.4012e-11
-7.24231e-11
-1.13054e-10
-4.09435e-11
1.11835e-10
4.95431e-10
6.63765e-10
1.84926e-10
-4.80369e-10
-8.70442e-10
-4.91575e-10
-1.54228e-10
9.55738e-11
1.73645e-10
1.24344e-10
5.47327e-11
1.24099e-11
-2.78154e-12
-2.22319e-12
-6.14995e-13
-5.18727e-14
4.17571e-14
1.67752e-14
2.2881e-15
3.79412e-16
1.44733e-16
7.24794e-17
4.21537e-17
2.65925e-17
1.7006e-17
1.03343e-17
5.743e-18
2.87246e-18
1.279e-18
4.94088e-19
1.52147e-19
2.36832e-20
-1.41023e-20
-1.88426e-20
8.48765e-12
8.87885e-12
8.42845e-12
6.91098e-12
7.91094e-12
1.21784e-11
4.17019e-12
5.7592e-12
-1.13607e-12
6.40688e-11
1.37139e-10
3.30274e-11
-2.90364e-10
-3.22314e-10
1.45165e-09
4.41472e-09
5.40375e-09
1.97754e-09
-3.39457e-09
-5.75622e-09
-3.73606e-09
-6.25785e-10
2.0878e-09
2.12579e-09
1.1697e-09
4.50217e-10
9.91974e-11
-3.67808e-11
-2.73094e-11
-7.0918e-12
-5.97208e-13
4.40538e-13
2.02009e-13
3.04752e-14
-3.2015e-16
-6.3825e-17
4.0357e-17
5.53855e-17
4.66571e-17
3.63234e-17
2.65906e-17
1.725e-17
9.66753e-18
4.68321e-18
1.95414e-18
6.76076e-19
1.62104e-19
-7.98017e-21
-4.50506e-20
-4.01287e-20
1.2672e-11
1.34815e-11
1.24715e-11
8.97362e-12
1.27441e-11
2.34103e-11
-1.16861e-12
7.59278e-12
5.01482e-11
1.92468e-10
3.35619e-10
1.15509e-11
-3.67725e-10
1.93932e-09
9.10578e-09
1.76066e-08
1.70199e-08
-1.71349e-09
-1.73453e-08
-2.00106e-08
-7.6323e-09
1.81241e-08
1.55568e-08
7.83191e-09
2.98464e-09
7.46222e-10
-5.1429e-10
-3.72185e-10
-8.88438e-11
-6.08878e-12
3.83264e-12
1.90158e-12
3.51433e-13
-1.71355e-15
-2.09713e-15
-6.21791e-16
-8.65912e-17
2.59733e-17
4.33271e-17
4.66533e-17
4.21483e-17
2.96681e-17
1.64982e-17
7.5154e-18
2.8265e-18
8.19922e-19
1.10225e-19
-7.93687e-20
-9.60756e-20
-7.06277e-20
1.4209e-11
1.52261e-11
1.39772e-11
9.26743e-12
1.5124e-11
3.06352e-11
-1.70095e-11
4.73919e-12
1.52235e-10
2.75981e-10
4.76295e-10
-9.28796e-10
2.887e-09
1.57899e-08
2.51572e-08
2.8815e-08
2.32922e-08
-5.05772e-08
-3.18118e-08
-3.60767e-08
9.34211e-08
9.13646e-08
3.78719e-08
1.18425e-08
3.78021e-09
-8.23507e-09
-5.50342e-09
-1.25146e-09
-7.06314e-11
2.85105e-11
1.50964e-11
3.30754e-12
1.0335e-13
-9.05606e-15
-4.07109e-15
-6.66802e-16
1.17862e-17
3.09149e-17
2.59675e-17
5.5376e-17
7.24685e-17
5.56192e-17
2.94149e-17
1.19192e-17
3.7662e-18
7.94828e-19
-4.40506e-20
-1.84116e-19
-1.50316e-19
-9.69107e-20
-1.8402e-08
-1.85286e-08
-1.82299e-08
-1.75452e-08
-1.88937e-08
-2.06791e-08
-1.81367e-08
-1.16785e-08
-8.72243e-09
-3.99467e-08
-6.98963e-08
-3.23013e-08
6.14687e-09
3.76989e-08
4.32727e-08
-1.40082e-07
-5.96132e-07
-2.46452e-07
2.09831e-07
7.80726e-07
6.35204e-07
1.94469e-07
-1.24879e-08
-1.79381e-07
-1.74222e-07
-8.43579e-08
-1.90404e-08
-1.01972e-09
1.88577e-10
1.03605e-10
2.60907e-11
1.72229e-12
-5.88753e-14
-2.30844e-14
-2.69472e-15
1.6779e-15
6.7461e-16
1.17778e-17
-8.66043e-17
4.03407e-17
1.44715e-16
1.19446e-16
5.53079e-17
1.80177e-17
4.09175e-18
3.32991e-19
-2.82383e-19
-2.28912e-19
-1.29694e-19
-7.19381e-20
-6.13407e-07
-6.13884e-07
-6.12794e-07
-6.10261e-07
-6.16837e-07
-6.23182e-07
-6.05086e-07
-5.86484e-07
-6.13733e-07
-7.09143e-07
-6.96212e-07
-3.86981e-07
-3.45342e-08
-4.3583e-08
-1.45576e-06
-3.61193e-06
-3.41654e-06
-4.82985e-07
3.96172e-06
5.46093e-06
2.33347e-06
-8.67449e-07
-2.56508e-06
-2.07634e-06
-9.98492e-07
-2.77634e-07
-2.37913e-08
1.03667e-09
6.03769e-10
1.82029e-10
1.90758e-11
-5.09351e-13
-1.87192e-13
-2.66784e-14
2.15564e-14
1.1588e-14
1.67788e-15
-6.66825e-16
-6.21813e-16
-6.38467e-17
3.79382e-16
3.08956e-16
1.05673e-16
2.18516e-17
1.37935e-18
-9.34733e-19
-2.79069e-19
1.38658e-19
1.89383e-19
1.19386e-19
-2.57395e-06
-2.57324e-06
-2.57511e-06
-2.57941e-06
-2.57903e-06
-2.56743e-06
-2.54025e-06
-2.62973e-06
-2.80789e-06
-2.67581e-06
-2.12223e-06
-1.3354e-06
-7.98464e-07
-3.59035e-06
-1.00012e-05
-1.39499e-05
-9.84189e-06
3.59152e-06
1.52996e-05
1.6301e-05
4.54436e-06
-1.2721e-05
-1.17889e-05
-6.62322e-06
-2.47082e-06
-4.84148e-07
-3.94316e-10
2.09984e-09
9.45415e-10
2.09895e-10
2.5494e-12
-7.24918e-13
-1.33535e-13
2.08677e-13
1.05333e-13
2.15564e-14
-2.69477e-15
-4.07115e-15
-2.09718e-15
-3.20172e-16
2.28797e-15
1.02141e-15
1.68528e-16
-3.92157e-19
-1.05915e-17
-2.46977e-18
1.44973e-18
1.92127e-18
1.3139e-18
6.98732e-19
-5.72691e-06
-5.7225e-06
-5.73381e-06
-5.7594e-06
-5.7286e-06
-5.65497e-06
-5.65528e-06
-6.03026e-06
-6.49954e-06
-5.73888e-06
-3.71066e-06
-2.56888e-06
-4.87562e-06
-1.37553e-05
-2.76635e-05
-3.016e-05
-1.50233e-05
1.43908e-05
3.06052e-05
2.76424e-05
-4.65374e-05
-5.14091e-05
-2.72758e-05
-1.13299e-05
-3.56822e-06
-5.13843e-07
2.26652e-09
2.02335e-09
1.0446e-09
2.4075e-10
3.93442e-12
6.75787e-13
2.8927e-12
1.4069e-12
2.08679e-13
-2.66778e-14
-2.30843e-14
-9.05615e-15
-1.71375e-15
3.04739e-14
1.67744e-14
2.75644e-15
-8.2344e-17
-1.41898e-16
-3.75725e-17
3.04871e-18
9.96733e-18
7.45606e-18
4.15336e-18
1.98289e-18
-7.46999e-06
-7.46177e-06
-7.48332e-06
-7.53239e-06
-7.46417e-06
-7.31816e-06
-7.36696e-06
-8.05214e-06
-8.77953e-06
-7.34088e-06
-4.08479e-06
-2.96037e-06
-1.18195e-05
-2.82136e-05
-4.06555e-05
-3.59087e-05
6.25619e-05
3.19455e-05
1.40927e-05
-0.000180009
-0.000296879
-0.000104598
-3.18451e-05
-5.5228e-06
-1.13618e-06
-3.83623e-07
2.33403e-09
1.99477e-09
1.21334e-09
5.66585e-10
9.93669e-11
2.17322e-11
1.14569e-11
2.89273e-12
-1.33525e-13
-1.87188e-13
-5.88744e-14
1.03345e-13
3.51421e-13
2.02002e-13
4.17554e-14
-2.82815e-15
-2.52388e-15
-5.69799e-16
-2.04617e-17
5.18154e-17
3.85575e-17
2.07532e-17
9.73325e-18
4.16882e-18
1.98835e-05
1.99423e-05
1.9736e-05
1.93082e-05
2.01614e-05
2.18732e-05
2.01927e-05
1.44437e-05
1.30431e-05
2.84362e-05
4.80127e-05
3.16141e-05
-1.38514e-05
-3.6854e-05
1.4757e-05
0.000389084
0.0005014
-1.93024e-05
-0.00134896
-0.00208955
-0.000970714
0.00192854
0.00637371
0.0102221
0.0115358
0.010533
0.00791793
0.00484219
0.00232064
0.000778827
0.000114369
1.15716e-10
2.17325e-11
6.75846e-13
-7.24925e-13
-5.09343e-13
1.72224e-12
3.30744e-12
1.90151e-12
4.40522e-13
-5.1869e-14
-4.76493e-14
-1.18126e-14
-5.2263e-16
5.02211e-16
2.53741e-16
1.06731e-16
4.37612e-17
1.74254e-17
6.6622e-18
0.000438948
0.000439255
0.000437312
0.000435082
0.000443328
0.000453095
0.000432009
0.00039476
0.000422503
0.000536515
0.000566923
0.000350165
4.14016e-05
0.000105124
0.00108553
0.00210514
0.00166297
-0.00157686
-0.00620614
-0.0076262
-0.00150301
0.0150578
0.0379969
0.0582906
0.0668919
0.0636439
0.051175
0.0344422
0.0189217
0.00795305
0.00208385
0.000114369
9.93685e-11
3.93375e-12
2.54901e-12
1.90752e-11
2.60899e-11
1.50959e-11
3.83251e-12
-5.97164e-13
-6.14964e-13
-1.84117e-13
-1.59515e-14
9.06469e-15
3.23369e-15
6.42911e-16
1.80127e-16
6.01262e-17
2.07459e-17
7.03601e-18
0.00163372
0.00163441
0.00162815
0.00162328
0.00164987
0.00167278
0.00159889
0.0015025
0.0016384
0.00196224
0.00191524
0.00112795
0.000367254
0.00126644
0.0040426
0.00605075
0.00345077
-0.00552744
-0.016293
-0.0177955
0.00111525
0.0461869
0.107439
0.16244
0.18766
0.181129
0.148943
0.10336
0.0592004
0.0265231
0.00795305
0.000778828
5.66596e-10
2.40748e-10
2.09891e-10
1.82024e-10
1.03602e-10
2.85096e-11
-6.08835e-12
-7.09151e-12
-2.22311e-12
-2.32688e-13
1.22984e-13
5.08246e-14
6.41991e-15
2.61398e-16
6.69451e-17
2.11458e-17
6.14899e-18
1.40226e-18
0.00370013
0.0037013
0.00368793
0.00367991
0.00373716
0.00377633
0.0036111
0.00343251
0.00377053
0.00443146
0.00414805
0.00233335
0.00121082
0.00365521
0.0093485
0.0122661
0.00558711
-0.0125877
-0.031795
-0.0315011
0.00856954
0.0977107
0.217628
0.326765
0.379672
0.369813
0.308401
0.217912
0.127763
0.0592004
0.0189217
0.00232064
1.21337e-09
1.04461e-09
9.45403e-10
6.03755e-10
1.88572e-10
-7.06275e-11
-8.88412e-11
-2.73087e-11
-2.78146e-12
1.36501e-12
6.27761e-13
9.33046e-14
-2.24437e-15
-9.99572e-16
-3.00539e-16
-9.1292e-17
-2.96629e-17
-1.03939e-17
0.00620002
0.0062017
0.00617965
0.0061685
0.0062636
0.00631914
0.00603803
0.00576904
0.00637928
0.00743902
0.0067706
0.00370394
0.00220953
0.00685291
0.0161484
0.0196256
0.00720568
-0.0221664
-0.0499252
-0.0461235
0.0201719
0.161724
0.351513
0.526708
0.61601
0.604613
0.510014
0.365376
0.217912
0.10336
0.0344422
0.0048422
1.99485e-09
2.0234e-09
2.09985e-09
1.03664e-09
-1.01965e-09
-1.25142e-09
-3.72176e-10
-3.67802e-11
1.24096e-11
6.38256e-12
1.22135e-12
-2.30195e-15
-9.84713e-15
-3.15558e-15
-6.35991e-16
-1.70829e-16
-5.31605e-17
-1.76314e-17
0.00810012
0.00810231
0.00807275
0.00805853
0.00818699
0.00825723
0.00787139
0.00752313
0.00838857
0.00979611
0.00877039
0.00452822
0.00278048
0.0095712
0.0220991
0.025657
0.00761555
-0.0313938
-0.065708
-0.0577491
0.0317916
0.21903
0.471004
0.707711
0.83475
0.825346
0.703584
0.510014
0.308401
0.148943
0.051175
0.00791793
2.33418e-09
2.26654e-09
-3.9371e-10
-2.37904e-08
-1.90399e-08
-5.50328e-09
-5.14282e-10
9.91951e-11
5.47313e-11
1.27062e-11
5.48929e-13
-7.73238e-14
-3.54951e-14
-5.11707e-15
-3.48214e-16
-6.70867e-17
-1.67373e-17
-4.88417e-18
0.00832657
0.00832919
0.00829684
0.00828012
0.00842138
0.00850164
0.00807455
0.00768525
0.00864946
0.0102333
0.0090526
0.00429605
0.00238021
0.0101894
0.0243114
0.0277788
0.00689852
-0.036465
-0.0736117
-0.0636693
0.036866
0.246701
0.532103
0.806036
0.961507
0.958086
0.825346
0.604613
0.369813
0.181129
0.0636438
0.010533
-3.83607e-07
-5.13824e-07
-4.84134e-07
-2.77628e-07
-8.43559e-08
-8.23491e-09
7.4621e-10
4.50209e-10
1.24341e-10
9.31575e-12
-7.68349e-13
-3.80902e-13
-6.5373e-14
8.36397e-16
6.69273e-16
2.64611e-16
9.10952e-17
3.05584e-17
0.00606768
0.00607095
0.00604162
0.00602063
0.00614946
0.00624255
0.00585415
0.00544384
0.0063067
0.00787015
0.0069033
0.00237329
0.000308119
0.00741333
0.0208182
0.0245937
0.00586777
-0.0350654
-0.0713995
-0.0640104
0.0295126
0.232218
0.515212
0.793595
0.95897
0.961507
0.83475
0.61601
0.379672
0.18766
0.0668919
0.0115358
-1.13616e-06
-3.56815e-06
-2.47078e-06
-9.98473e-07
-1.74218e-07
3.78019e-09
2.98461e-09
1.16968e-09
1.73641e-10
-5.91838e-12
-3.81698e-12
-9.13981e-13
-2.40882e-14
5.72701e-15
2.43866e-15
6.4924e-16
1.95894e-16
6.42443e-17
0.00182123
0.00182486
0.00180606
0.00178241
0.00186488
0.0019602
0.00172004
0.00136072
0.00184421
0.0030408
0.00272642
-0.000311713
-0.00245647
0.0015067
0.0110279
0.0159917
0.00516342
-0.024154
-0.056405
-0.0584835
0.00548945
0.16313
0.397203
0.638724
0.793595
0.806036
0.707711
0.526708
0.326765
0.16244
0.0582906
0.0102221
-5.52274e-06
-1.13298e-05
-6.62312e-06
-2.07631e-06
-1.79377e-07
1.18424e-08
7.83184e-09
2.12576e-09
9.5571e-11
-2.29524e-11
-1.04614e-11
-1.24854e-12
4.49401e-14
2.18328e-14
4.11969e-15
6.26169e-16
1.82412e-16
6.18652e-17
-0.00194626
-0.00194301
-0.00194848
-0.00197003
-0.00194683
-0.00186777
-0.0019199
-0.00216374
-0.00214499
-0.00153061
-0.00109659
-0.002099
-0.00408187
-0.00410269
7.05453e-05
0.00593561
0.00574842
-0.00799326
-0.0332156
-0.0487373
-0.0235302
0.0693242
0.22538
0.397203
0.515212
0.532103
0.471004
0.351513
0.217628
0.107439
0.0379969
0.0063737
-3.18448e-05
-2.72756e-05
-1.17887e-05
-2.56504e-06
-1.24857e-08
3.78717e-08
1.55566e-08
2.08776e-09
-1.54224e-10
-7.99928e-11
-1.52376e-11
1.49521e-13
1.60716e-13
4.16042e-14
2.66145e-15
6.81331e-17
3.88611e-17
1.77042e-17
-0.00324073
-0.00323863
-0.003234
-0.00324802
-0.00326994
-0.00322379
-0.0031375
-0.00323547
-0.00353629
-0.00346984
-0.00264113
-0.00215403
-0.00352317
-0.00627934
-0.00651512
-0.000977577
0.00668518
0.00574499
-0.0110476
-0.03509
-0.0406754
-0.00734362
0.0693242
0.16313
0.232218
0.246701
0.21903
0.161724
0.0977107
0.0461869
0.0150578
0.00192854
-0.000104597
-5.14087e-05
-1.27209e-05
-8.67422e-07
1.94467e-07
9.13635e-08
1.81238e-08
-6.25779e-10
-4.91566e-10
-1.26487e-10
-4.77914e-12
7.07862e-13
3.28111e-13
4.38559e-14
-5.69175e-16
-2.47933e-16
-9.38155e-17
-3.31628e-17
-0.00202707
-0.00202665
-0.00201797
-0.00202079
-0.00206078
-0.00205678
-0.00192283
-0.00188808
-0.00224132
-0.00253265
-0.00190123
-0.000609036
-0.0010471
-0.00436611
-0.00677431
-0.00313925
0.0061779
0.0114316
0.0034206
-0.0178513
-0.0382068
-0.0406754
-0.0235303
0.00548944
0.0295126
0.036866
0.0317916
0.0201719
0.00856955
0.00111527
-0.001503
-0.00097071
-0.000296878
-4.65371e-05
4.54436e-06
2.33347e-06
6.35198e-07
9.34195e-08
-7.63222e-09
-3.73601e-09
-8.70425e-10
-5.07184e-11
3.66102e-12
1.72059e-12
3.50019e-13
2.04438e-15
-1.24537e-15
-4.98554e-16
-1.73451e-16
-6.15966e-17
0.000110654
0.000109648
0.00011603
0.000122579
9.45306e-05
6.68942e-05
0.000150189
0.000260627
8.89829e-05
-0.000296907
-0.000105528
0.000867631
0.00122807
-0.000459766
-0.00281668
-0.0021233
0.0032265
0.00898434
0.00842369
-0.00135601
-0.0178513
-0.03509
-0.0487373
-0.0584835
-0.0640104
-0.0636693
-0.0577491
-0.0461235
-0.0315011
-0.0177955
-0.00762619
-0.00208954
-0.000180008
2.76421e-05
1.63008e-05
5.46088e-06
7.8072e-07
-3.6076e-08
-2.00102e-08
-5.75611e-09
-4.80357e-10
2.64022e-11
1.03774e-11
1.81479e-12
-4.09101e-14
-1.42087e-14
-2.27773e-15
-4.86484e-16
-1.54591e-16
-5.32433e-17
0.00102353
0.00102219
0.00102323
0.00103213
0.00102831
0.000995333
0.000998598
0.00109597
0.00113083
0.000927057
0.000693293
0.000935741
0.00160917
0.00182087
0.000867967
-0.000596223
-0.000553734
0.00226266
0.00660224
0.00842369
0.0034206
-0.0110476
-0.0332156
-0.056405
-0.0713995
-0.0736117
-0.065708
-0.0499252
-0.031795
-0.016293
-0.00620614
-0.00134896
1.40925e-05
3.06048e-05
1.52994e-05
3.96168e-06
2.09831e-07
-3.1811e-08
-1.73448e-08
-3.3945e-09
1.8492e-10
7.64443e-11
1.13269e-11
-7.51003e-13
-2.81148e-13
-3.44714e-14
2.99555e-16
8.84172e-17
2.13884e-17
5.15489e-18
0.00028719
0.000286431
0.000283246
0.000288577
0.000302612
0.000285839
0.000236409
0.000264727
0.000417195
0.000429881
8.24994e-05
-0.000235885
0.000229325
0.00134518
0.00150598
-0.000258565
-0.00265103
-0.00244759
0.00226266
0.00898434
0.0114316
0.00574499
-0.00799325
-0.024154
-0.0350654
-0.036465
-0.0313938
-0.0221665
-0.0125877
-0.00552745
-0.00157687
-1.93071e-05
3.19446e-05
1.43904e-05
3.59143e-06
-4.82987e-07
-2.46449e-07
-5.05759e-08
-1.71329e-09
1.97751e-09
6.63751e-10
7.93297e-11
-4.60804e-12
-1.9513e-12
-3.32698e-13
4.77487e-15
1.90156e-15
6.08242e-16
2.14031e-16
7.80367e-17
-0.00103145
-0.00103161
-0.00103541
-0.00103453
-0.00101751
-0.0010181
-0.00107079
-0.00108762
-0.000964236
-0.000848471
-0.00105075
-0.00142735
-0.00134799
-0.000605835
-0.000112471
-0.000834767
-0.00236623
-0.00265103
-0.00055373
0.00322649
0.00617789
0.00668517
0.00574843
0.00516345
0.0058678
0.00689853
0.00761555
0.00720566
0.00558708
0.00345074
0.00166296
0.000501393
6.25599e-05
-1.50234e-05
-9.84195e-06
-3.41654e-06
-5.96126e-07
2.32934e-08
1.70199e-08
5.40366e-09
4.95411e-10
-2.05681e-11
-9.44469e-12
-2.11728e-12
-5.95708e-14
3.89604e-15
2.14115e-15
8.14627e-16
3.10012e-16
1.20335e-16
-0.00161377
-0.00161387
-0.00161632
-0.00161606
-0.0016056
-0.00160549
-0.0016341
-0.00164608
-0.00158797
-0.00152937
-0.00158376
-0.0017215
-0.00178209
-0.00175055
-0.00169639
-0.00146361
-0.000834764
-0.000258559
-0.000596219
-0.00212331
-0.00313926
-0.000977586
0.00593563
0.0159917
0.0245938
0.0277788
0.025657
0.0196256
0.012266
0.00605073
0.00210512
0.000389078
-3.591e-05
-3.01606e-05
-1.39501e-05
-3.61195e-06
-1.40077e-07
2.88151e-08
1.76066e-08
4.41463e-09
1.1182e-10
-1.81308e-11
-8.58877e-12
-1.1954e-12
1.244e-14
5.75463e-15
1.93982e-15
7.16591e-16
2.91844e-16
1.19632e-16
-0.00145882
-0.00145926
-0.00146064
-0.00145806
-0.00145231
-0.00146083
-0.00147722
-0.00145832
-0.00142237
-0.00144492
-0.00150317
-0.00146885
-0.00140735
-0.00161884
-0.0019996
-0.0016964
-0.000112469
0.00150599
0.000867971
-0.00281669
-0.00677433
-0.00651513
7.05562e-05
0.0110279
0.0208182
0.0243114
0.0220991
0.0161483
0.00934846
0.00404257
0.00108552
1.47523e-05
-4.06575e-05
-2.76645e-05
-1.00014e-05
-1.45578e-06
4.32722e-08
2.51572e-08
9.10584e-09
1.45164e-09
-4.09426e-11
-1.86254e-11
-4.30533e-12
-1.55777e-13
1.62113e-14
6.83256e-15
1.52543e-15
4.75697e-16
1.99929e-16
8.60218e-17
-0.00128793
-0.00128865
-0.00129044
-0.00128587
-0.00127832
-0.00129337
-0.00131716
-0.00128454
-0.00121677
-0.00125916
-0.00140454
-0.00139697
-0.00118671
-0.00118903
-0.00161884
-0.00175055
-0.000605834
0.00134519
0.00182087
-0.000459771
-0.00436613
-0.00627934
-0.00410268
0.00150673
0.00741337
0.0101894
0.00957119
0.00685288
0.00365518
0.00126641
0.00010511
-3.68572e-05
-2.82164e-05
-1.37567e-05
-3.59069e-06
-4.35961e-08
3.76986e-08
1.57901e-08
1.93946e-09
-3.22302e-10
-1.1305e-10
-1.47316e-11
8.36531e-13
2.52489e-13
2.73288e-14
2.42721e-15
4.42442e-16
1.82164e-16
8.26933e-17
3.75446e-17
-0.00140315
-0.00140381
-0.00140662
-0.00140221
-0.00139085
-0.00140395
-0.0014401
-0.00141671
-0.00132038
-0.00132556
-0.00151574
-0.00161485
-0.00140494
-0.0011867
-0.00140735
-0.00178209
-0.00134798
0.000229331
0.00160917
0.00122806
-0.00104711
-0.00352318
-0.00408186
-0.00245644
0.000308151
0.00238022
0.00278046
0.0022095
0.00121078
0.000367219
4.13878e-05
-1.38557e-05
-1.18221e-05
-4.87679e-06
-7.98791e-07
-3.45388e-08
6.14748e-09
2.88723e-09
-3.67651e-10
-2.90338e-10
-7.24209e-11
9.25852e-13
1.16274e-12
2.93742e-13
3.72153e-15
-9.55357e-16
-2.91896e-16
-7.42319e-17
-2.00409e-17
-6.5622e-18
-0.00152884
-0.00152935
-0.00153236
-0.00152911
-0.0015166
-0.0015257
-0.00156338
-0.00155277
-0.00145834
-0.00143573
-0.0015961
-0.00173762
-0.00161485
-0.00139697
-0.00146885
-0.0017215
-0.00142735
-0.000235878
0.000935744
0.000867626
-0.000609048
-0.00215404
-0.00209899
-0.000311686
0.00237332
0.00429606
0.00452821
0.00370391
0.00233331
0.00112792
0.000350146
3.16081e-05
-2.96169e-06
-2.5698e-06
-1.33573e-06
-3.8703e-07
-3.22942e-08
-9.28801e-10
1.15609e-11
3.30251e-11
1.40104e-11
2.112e-12
1.90322e-13
-2.7977e-14
-6.58209e-15
-1.19379e-15
-3.84779e-16
-1.54332e-16
-6.73166e-17
-3.1001e-17
-0.00144542
-0.00144585
-0.00144836
-0.00144561
-0.0014352
-0.00144288
-0.001474
-0.00146473
-0.00138868
-0.001372
-0.00149468
-0.0015961
-0.00151574
-0.00140454
-0.00150317
-0.00158376
-0.00105074
8.25066e-05
0.000693297
-0.000105533
-0.00190124
-0.00264114
-0.00109658
0.00272645
0.00690333
0.00905261
0.00877038
0.00677057
0.00414801
0.0019152
0.000566904
4.80073e-05
-4.08551e-06
-3.71129e-06
-2.12254e-06
-6.96289e-07
-6.98951e-08
4.76255e-10
3.35584e-10
1.37125e-10
2.44196e-11
-5.0367e-13
-3.33913e-13
-1.08257e-13
-1.71577e-14
-4.04304e-16
-1.80996e-16
-1.12254e-16
-6.2e-17
-3.29342e-17
-0.00130749
-0.00130796
-0.00131014
-0.00130705
-0.00129808
-0.00130726
-0.00133457
-0.00131953
-0.00125019
-0.00124976
-0.001372
-0.00143572
-0.00132556
-0.00125916
-0.00144492
-0.00152936
-0.000848467
0.000429887
0.000927062
-0.000296912
-0.00253266
-0.00346985
-0.0015306
0.00304083
0.00787018
0.0102333
0.0097961
0.00743899
0.00443142
0.00196221
0.000536498
2.84317e-05
-7.34182e-06
-5.73954e-06
-2.6761e-06
-7.09212e-07
-3.9949e-08
2.75979e-10
1.92468e-10
6.40704e-11
7.58134e-12
-8.52791e-14
-6.44728e-14
-2.86831e-14
-5.76219e-15
-3.91418e-16
-1.19751e-16
-7.01646e-17
-4.28323e-17
-2.53475e-17
-0.00131046
-0.001311
-0.00131331
-0.00130981
-0.00130034
-0.00131082
-0.00133998
-0.00132174
-0.00124696
-0.00125019
-0.00138868
-0.00145834
-0.00132037
-0.00121677
-0.00142236
-0.00158797
-0.000964232
0.000417202
0.00113083
8.89773e-05
-0.00224134
-0.0035363
-0.00214498
0.00184424
0.00630673
0.00864947
0.00838856
0.00637925
0.00377049
0.00163837
0.000422486
1.30388e-05
-8.7809e-06
-6.50042e-06
-2.80822e-06
-6.13791e-07
-8.72132e-09
1.5224e-10
5.01472e-11
-1.13526e-12
-3.68391e-13
2.77459e-13
1.72286e-13
3.83068e-14
1.60667e-15
-1.21925e-16
-8.39504e-17
-5.09697e-17
-3.13049e-17
-1.93277e-17
-0.00138827
-0.00138881
-0.00139131
-0.00138782
-0.00137745
-0.00138781
-0.00141956
-0.0014027
-0.00132174
-0.00131953
-0.00146473
-0.00155277
-0.00141671
-0.00128454
-0.00145832
-0.00164608
-0.00108761
0.000264734
0.00109597
0.000260621
-0.00188809
-0.00323548
-0.00216374
0.00136075
0.00544387
0.00768526
0.00752312
0.00576901
0.00343248
0.00150247
0.000394743
1.4439e-05
-8.05367e-06
-6.03127e-06
-2.63011e-06
-5.86543e-07
-1.1676e-08
4.72948e-12
7.58583e-12
5.75701e-12
2.75135e-12
1.1423e-12
3.00935e-13
1.82845e-14
-1.58578e-16
-8.38488e-17
-5.52013e-17
-3.8591e-17
-2.62931e-17
-1.69964e-17
-0.00140396
-0.00140446
-0.00140696
-0.00140369
-0.00139336
-0.00140297
-0.00143439
-0.00141956
-0.00133998
-0.00133457
-0.001474
-0.00156338
-0.0014401
-0.00131716
-0.00147722
-0.0016341
-0.00107078
0.000236416
0.000998602
0.000150184
-0.00192285
-0.00313751
-0.00191989
0.00172007
0.00585418
0.00807456
0.00787138
0.006038
0.00361107
0.00159886
0.000431992
2.01879e-05
-7.36847e-06
-5.6563e-06
-2.54065e-06
-6.05153e-07
-1.81339e-08
-1.70044e-11
-1.16657e-12
4.17052e-12
3.52631e-12
1.5181e-12
2.78538e-13
-7.41619e-16
-4.28737e-16
-1.56962e-16
-7.64113e-17
-4.4724e-17
-2.7637e-17
-1.69797e-17
-0.00137333
-0.00137384
-0.00137626
-0.00137301
-0.00136303
-0.0013726
-0.00140297
-0.00138781
-0.00131082
-0.00130726
-0.00144288
-0.0015257
-0.00140394
-0.00129336
-0.00146083
-0.00160549
-0.0010181
0.000285846
0.000995337
6.68888e-05
-0.00205679
-0.0032238
-0.00186776
0.00196023
0.00624258
0.00850165
0.00825722
0.0063191
0.00377629
0.00167275
0.000453078
2.18686e-05
-7.31952e-06
-5.65591e-06
-2.56779e-06
-6.23247e-07
-2.0677e-08
3.06457e-11
2.34168e-11
1.21807e-11
4.81995e-12
1.23151e-12
5.69039e-14
-1.12849e-15
-4.73139e-16
-1.5748e-16
-7.06076e-17
-4.10828e-17
-2.58904e-17
-1.61935e-17
-0.00136353
-0.00136404
-0.00136645
-0.00136313
-0.00135318
-0.00136303
-0.00139336
-0.00137745
-0.00130034
-0.00129808
-0.0014352
-0.0015166
-0.00139084
-0.00127832
-0.00145231
-0.0016056
-0.00101751
0.000302619
0.00102831
9.45252e-05
-0.00206079
-0.00326995
-0.00194682
0.00186491
0.00614949
0.00842139
0.00818698
0.00626357
0.00373713
0.00164984
0.000443311
2.0157e-05
-7.46534e-06
-5.72939e-06
-2.57935e-06
-6.16898e-07
-1.88929e-08
1.51294e-11
1.27475e-11
7.91224e-12
3.82186e-12
1.26561e-12
1.7115e-13
1.10556e-17
-6.57118e-17
-6.1135e-17
-4.85112e-17
-3.52198e-17
-2.40078e-17
-1.55135e-17
-0.00137358
-0.00137409
-0.00137653
-0.00137319
-0.00136313
-0.00137301
-0.00140369
-0.00138782
-0.00130981
-0.00130705
-0.00144561
-0.00152911
-0.0014022
-0.00128587
-0.00145806
-0.00161606
-0.00103453
0.000288584
0.00103214
0.000122574
-0.0020208
-0.00324803
-0.00197002
0.00178244
0.00602066
0.00828013
0.00805852
0.00616847
0.00367987
0.00162325
0.000435065
1.93038e-05
-7.53348e-06
-5.76013e-06
-2.57971e-06
-6.1032e-07
-1.75452e-08
9.26707e-12
8.97352e-12
6.91121e-12
3.91256e-12
1.46459e-12
2.43599e-13
-7.38636e-17
-6.89411e-17
-5.89536e-17
-4.64214e-17
-3.40344e-17
-2.34455e-17
-1.52729e-17
-0.00137689
-0.00137741
-0.00137985
-0.00137653
-0.00136645
-0.00137626
-0.00140696
-0.00139131
-0.00131331
-0.00131014
-0.00144836
-0.00153236
-0.00140662
-0.00129044
-0.00146064
-0.00161632
-0.00103541
0.000283252
0.00102324
0.000116025
-0.00201798
-0.00323401
-0.00194847
0.00180609
0.00604165
0.00829685
0.00807274
0.00617962
0.00368789
0.00162812
0.000437295
1.97316e-05
-7.48442e-06
-5.73456e-06
-2.57541e-06
-6.12855e-07
-1.82298e-08
1.39788e-11
1.24724e-11
8.4291e-12
4.29843e-12
1.46262e-12
1.99907e-13
-7.29403e-17
-6.8157e-17
-5.8308e-17
-4.59893e-17
-3.37907e-17
-2.33248e-17
-1.52188e-17
-0.00137446
-0.00137497
-0.00137741
-0.00137409
-0.00136404
-0.00137384
-0.00140446
-0.00138881
-0.001311
-0.00130796
-0.00144585
-0.00152935
-0.00140381
-0.00128865
-0.00145925
-0.00161387
-0.0010316
0.000286438
0.0010222
0.000109642
-0.00202667
-0.00323864
-0.001943
0.00182489
0.00607098
0.0083292
0.0081023
0.00620167
0.00370126
0.00163438
0.000439237
1.99379e-05
-7.46291e-06
-5.72327e-06
-2.57355e-06
-6.13945e-07
-1.85283e-08
1.52295e-11
1.34838e-11
8.87984e-12
4.37988e-12
1.42171e-12
1.68415e-13
-7.33259e-17
-6.83651e-17
-5.83648e-17