/*--------------------------------*- C++ -*----------------------------------*\
| =========                 |                                                 |
| \\      /  F ield         | OpenFOAM: The Open Source CFD Toolbox           |
|  \\    /   O peration     | Version:  v2006                                 |
|   \\  /    A nd           | Website:  www.openfoam.com                      |
|    \\/     M anipulation  |                                                 |
\*---------------------------------------------------------------------------*/
FoamFile
{
    version     2.0;
    format      ascii;
    class       surfaceScalarField;
    location    "8.2";
    object      alphaPhi0.water;
}
// * * * * * * * * * * * * * * * * * * * * * * * * * * * * * * * * * * * * * //

dimensions      [0 3 -1 0 0 0 0];
oriented        oriented;


internalField   nonuniform List<scalar> 
299200
(
0.000375735
-0.000375735
0.000852511
-0.000476777
0.00133538
-0.000482871
0.0018057
-0.000470317
0.00227206
-0.000466358
0.00273474
-0.000462678
0.00319461
-0.000459871
0.00365149
-0.000456884
0.00410504
-0.000453549
0.00455516
-0.000450116
0.00500161
-0.000446456
0.00544436
-0.000442743
0.00588357
-0.000439212
0.00631921
-0.000435642
0.00675177
-0.000432562
0.00718165
-0.000429878
0.00760905
-0.000427395
0.00803443
-0.000425385
0.00845754
-0.000423112
0.00887901
-0.000421467
0.00929886
-0.000419847
0.00971717
-0.000418316
0.0101339
-0.000416686
0.0105489
-0.000415049
0.0109621
-0.000413154
0.0113732
-0.000411161
0.0117819
-0.00040867
0.0121879
-0.000405972
0.0125908
-0.000402918
0.0129908
-0.000399981
0.0133878
-0.000397048
0.0137828
-0.00039498
0.0141764
-0.000393563
0.014569
-0.000392624
0.0149622
-0.000393228
0.0153571
-0.000394905
0.015754
-0.00039685
0.0161511
-0.000397118
0.0165473
-0.000396244
0.0169403
-0.000393014
0.0173255
-0.000385113
0.0177022
-0.000376777
0.0180707
-0.000368432
0.0184327
-0.000362014
0.0187913
-0.000358577
0.0191472
-0.000355915
0.0195051
-0.000357904
0.0198672
-0.00036212
0.0202348
-0.000367576
0.0206077
-0.000372927
0.0209847
-0.000376994
0.0213637
-0.000378971
0.0217422
-0.000378495
0.0221177
-0.000375516
0.0224882
-0.000370498
0.0228528
-0.000364618
0.0232117
-0.000358884
0.0235657
-0.000353994
0.0239176
-0.00035197
0.0242747
-0.000357103
0.0246467
-0.000371954
0.0250451
-0.000398407
0.0254816
-0.000436515
0.0259634
-0.000481791
0.0264914
-0.000528005
0.0270595
-0.000568105
0.0276546
-0.000595133
0.0282578
-0.000603187
0.0288491
-0.000591289
0.0294123
-0.000563176
0.0299385
-0.000526234
0.0304273
-0.000488731
0.0308843
-0.000457028
0.0313181
-0.000433841
0.0317367
-0.000418536
0.0321455
-0.000408825
0.0325481
-0.000402571
0.0329467
-0.000398661
0.0333436
-0.000396829
0.0337407
-0.000397133
0.0341402
-0.00039952
0.0345439
-0.000403695
0.0349531
-0.000409215
0.0353688
-0.000415646
0.0357914
-0.000422653
0.0362214
-0.000429998
0.0366589
-0.000437495
0.0371039
-0.000444961
0.0375561
-0.000452197
0.0380151
-0.000459002
0.0384803
-0.000465205
0.038951
-0.000470725
0.0394266
-0.000475605
0.0399066
-0.000480028
0.0403909
-0.000484257
0.0408794
-0.000488527
0.0413723
-0.000492876
0.0418693
-0.000496994
0.0423694
-0.000500166
0.0428708
-0.000501386
0.0433705
-0.000499648
0.0438649
-0.000494382
0.0443507
-0.00048586
0.0448262
-0.000475446
0.0452917
-0.000465527
0.0457508
-0.00045906
0.0462095
-0.000458725
0.0466752
-0.000465767
0.047154
-0.000478788
0.047647
-0.000492988
0.0481476
-0.000500526
0.04864
-0.000492462
0.049102
-0.000462023
0.04951
-0.000407988
0.0498464
-0.000336409
0.0501058
-0.000259381
0.0502968
-0.000191029
0.0504394
-0.000142537
0.050558
-0.000118632
0.0506754
-0.000117342
0.0508078
-0.000132407
0.0509645
-0.000156778
0.0511499
-0.000185326
0.051365
-0.000215135
0.0516096
-0.000244602
0.0518827
-0.000273114
0.0521831
-0.000300382
0.0525093
-0.000326177
0.0528595
-0.000350272
0.053232
-0.00037247
0.0536247
-0.000392647
0.0540354
-0.000410758
0.0544623
-0.000426832
0.0549032
-0.000440949
0.0553564
-0.000453221
0.0558202
-0.000463782
0.056293
-0.000472776
0.0567733
-0.000480357
0.05726
-0.000486685
0.0577519
-0.000491924
0.0582482
-0.000496237
0.058748
-0.000499785
0.0592507
-0.000502716
0.0597559
-0.000505165
0.0602631
-0.000507249
0.0607722
-0.000509064
0.0612829
-0.000510692
0.0617951
-0.000512199
0.0623087
-0.000513651
0.0628238
-0.000515113
0.0633405
-0.000516652
0.0638588
-0.00051834
0.0643791
-0.000520237
0.0649014
-0.000522381
0.0654262
-0.000524772
0.0659536
-0.000527362
0.0664836
-0.000530052
0.0670163
-0.000532711
0.0675515
-0.000535197
0.0680889
-0.000537399
0.0686282
-0.000539277
0.0691691
-0.000540887
0.0697115
-0.000542396
0.0702555
-0.000544054
0.0708017
-0.000546152
0.0713506
-0.000548954
0.0719033
-0.000552645
0.0724606
-0.00055729
0.0730234
-0.000562834
0.0735926
-0.000569137
0.0741686
-0.000576027
0.0747519
-0.000583371
0.0753431
-0.000591141
0.0759425
-0.000599452
0.0765511
-0.000608558
0.0771699
-0.000618786
0.0778003
-0.000630411
0.0784438
-0.000643472
0.0791013
-0.000657579
0.0797731
-0.000671705
0.080457
-0.000683908
0.0811476
-0.000690628
0.0818325
-0.000684884
0.0824855
-0.000653004
0.0830574
-0.000571936
0.083472
-0.000414614
0.0836529
-0.000180895
0.0835945
5.8462e-05
0.0833844
0.000210089
0.0831219
0.000262428
0.0828393
0.000282604
0.0825384
0.000300969
0.0822215
0.000316853
0.0819004
0.000321134
0.08159
0.000310421
0.0813079
0.000282068
0.0810705
0.000237392
0.0808908
0.00017971
0.0807769
0.000113912
0.0807271
4.98046e-05
0.0807262
8.61298e-07
0.0807679
-4.1701e-05
0.0808445
-7.65884e-05
0.0809585
-0.000114017
0.0811109
-0.000152375
0.081301
-0.00019007
0.0815262
-0.000225188
0.0817821
-0.000255931
0.0820636
-0.00028147
0.0823655
-0.000301987
0.0826838
-0.000318255
0.083015
-0.000331169
0.0833564
-0.000341411
0.0837057
-0.000349322
0.0840607
-0.000354955
0.0844189
-0.000358202
0.0847778
-0.000358904
0.0851347
-0.000356921
0.0854868
-0.000352156
0.0858314
-0.000344553
0.0861655
-0.000334089
0.0864862
-0.000320754
0.0867908
-0.000304538
0.0870762
-0.000285405
0.0873395
-0.000263293
0.0875776
-0.00023809
0.0877872
-0.000209607
0.0879646
-0.000177485
0.0881057
-0.000141002
0.0882043
-9.86037e-05
0.0882525
-4.82626e-05
0.0882487
3.76785e-06
0.0882006
4.81544e-05
0.0881278
7.28122e-05
0.0880403
8.74756e-05
0.0879423
9.80505e-05
0.0878364
0.000105854
0.0877257
0.000110683
0.087613
0.000112696
0.0875003
0.000112714
0.0873885
0.000111813
0.0872777
0.000110805
0.0871678
0.000109856
0.0870594
0.000108428
0.0869536
0.000105775
0.0868527
0.000100967
0.0867592
9.34629e-05
0.0866755
8.37143e-05
0.0866021
7.33429e-05
0.0865372
6.49101e-05
0.086476
6.12468e-05
0.0864125
6.34544e-05
0.0863404
7.21046e-05
0.0862538
8.65938e-05
0.0861489
0.000104921
0.086024
0.000124896
0.0858791
0.00014496
0.0857163
0.000162798
0.0855364
0.00017985
0.0853406
0.000195766
0.0851295
0.000211194
0.0849027
0.000226754
0.0846599
0.000242818
0.0844003
0.000259548
0.0841234
0.000276956
0.0838284
0.000294976
0.0835149
0.00031353
0.0831823
0.000332558
0.0828303
0.00035202
0.0824584
0.000371892
0.0820662
0.000392158
0.0816534
0.0004128
0.0812196
0.0004338
0.0807645
0.000455137
0.0802877
0.000476792
0.079789
0.000498745
0.079268
0.000520978
0.0787245
0.000543469
0.0781583
0.000566196
0.0775692
0.000589132
0.0769569
0.000612249
0.0763214
0.00063552
0.0756625
0.000658915
0.0749801
0.000682406
0.0742741
0.000705965
0.0735446
0.000729563
0.0727914
0.000753169
0.0720147
0.000776755
0.0712144
0.000800285
0.0703906
0.000823722
0.0695436
0.000847028
0.0686734
0.000870165
0.0677804
0.000893098
0.0668646
0.000915794
0.0659263
0.000938218
0.064966
0.000960328
0.0639839
0.000982084
0.0629805
0.00100345
0.0619561
0.00102438
0.0609113
0.00104484
0.0598465
0.0010648
0.0587622
0.00108422
0.0576592
0.00110306
0.0565379
0.00112129
0.055399
0.00113887
0.0542432
0.00115578
0.0530713
0.00117198
0.0518838
0.00118746
0.0506816
0.00120218
0.0494655
0.00121613
0.0482362
0.00122927
0.0469946
0.00124159
0.0457415
0.00125308
0.0444778
0.00126373
0.0432043
0.00127351
0.0419219
0.0012824
0.0406315
0.00129041
0.0393339
0.00129754
0.0380302
0.00130378
0.036721
0.00130914
0.0354074
0.0013136
0.0340902
0.00131718
0.0327704
0.00131988
0.0314487
0.00132163
0.0301262
0.00132254
0.0288035
0.00132266
0.0274816
0.00132189
0.0261614
0.00132021
0.0248438
0.00131765
0.0235295
0.00131426
0.0222195
0.00131
0.0209146
0.0013049
0.0196157
0.00129895
0.0183235
0.00129223
0.0170387
0.00128473
0.0157621
0.00127663
0.0144941
0.00126796
0.0132354
0.00125872
0.0119864
0.00124902
0.0107478
0.0012386
0.00952023
0.00122756
0.0083047
0.00121553
0.00710249
0.0012022
0.0059148
0.0011877
0.00474367
0.00117112
0.0035914
0.00115228
0.00245885
0.00113255
0.00134896
0.00110988
0.000262804
0.00108616
-0.000800397
0.0010632
-0.00183961
0.00103921
-0.00285595
0.00101634
-0.00385057
0.000994617
-0.00482462
0.000974055
-0.00577908
0.00095446
-0.00671457
0.000935489
-0.0076314
0.000916831
-0.0085296
0.000898195
-0.00940895
0.000879354
-0.0102692
0.000860235
-0.0111101
0.000840898
-0.0119316
0.000821486
-0.0127337
0.00080216
-0.0135168
0.000783039
-0.0142809
0.00076415
-0.0150264
0.000745444
-0.0157532
0.00072683
-0.0164614
0.000708182
-0.0171508
0.000689379
-0.0178211
0.00067036
-0.0184723
0.00065114
-0.019104
0.00063176
-0.0197163
0.000612257
-0.0203089
0.000592664
-0.020882
0.000573019
-0.0214353
0.000553339
-0.0219689
0.000533628
-0.0224828
0.000513877
-0.0229769
0.000494081
-0.0234511
0.000474244
-0.0239055
0.00045438
-0.02434
0.00043451
-0.0247547
0.000414661
-0.0251495
0.000394873
-0.0255247
0.000375193
-0.0258804
0.000355638
-0.0262166
0.000336188
-0.0265334
0.000316799
-0.0268308
0.00029743
-0.0271088
0.000278055
-0.0273675
0.000258653
-0.0276067
0.000239214
-0.0278265
0.000219739
-0.0280267
0.000200242
-0.0282074
0.000180743
-0.0283687
0.000161268
-0.0285105
0.000141841
-0.028633
0.000122487
-0.0287363
0.000103223
-0.0288203
8.40785e-05
-0.0288853
6.49856e-05
-0.0289306
4.52385e-05
-0.0289536
2.30007e-05
-0.0289513
-2.22834e-06
-0.0289265
-2.48105e-05
-0.0288813
-4.52264e-05
-0.0288172
-6.40631e-05
-0.0287354
-8.18415e-05
-0.0286365
-9.89052e-05
-0.0285211
-0.000115387
-0.0283898
-0.000131342
-0.028243
-0.000146775
-0.0280813
-0.000161697
-0.0279052
-0.0001761
-0.0277152
-0.000189981
-0.0275119
-0.000203332
-0.0272957
-0.000216142
-0.0270673
-0.000228401
-0.0268272
-0.000240102
-0.026576
-0.000251237
-0.0263142
-0.000261802
-0.0260424
-0.000271787
-0.0257612
-0.000281186
-0.0254712
-0.00028999
-0.025173
-0.000298191
-0.0248673
-0.000305776
-0.0245545
-0.000312729
-0.0242355
-0.00031904
-0.0239108
-0.000324704
-0.0235811
-0.000329701
-0.0232471
-0.00033395
-0.0229099
-0.000337217
-0.0225709
-0.000339041
-0.022232
-0.000338826
-0.0218959
-0.000336193
-0.0215644
-0.00033144
-0.0212387
-0.000325721
-0.020918
-0.000320669
-0.0206004
-0.000317614
-0.0202835
-0.000316924
-0.0199655
-0.000317975
-0.0196458
-0.000319702
-0.0193245
-0.000321266
-0.0190022
-0.000322376
-0.018679
-0.000323154
-0.0183552
-0.000323836
-0.0180306
-0.000324575
-0.0177052
-0.00032543
-0.0173788
-0.000326403
-0.0170513
-0.000327468
-0.0167227
-0.000328599
-0.0163929
-0.000329756
-0.0160621
-0.000330878
-0.0157302
-0.000331902
-0.0153974
-0.00033277
-0.015064
-0.000333436
-0.0147301
-0.000333878
-0.014396
-0.000334096
-0.0140619
-0.000334109
-0.0137279
-0.000333943
-0.0133943
-0.000333631
-0.0130611
-0.000333195
-0.0127285
-0.000332644
-0.0123965
-0.000331998
-0.0120652
-0.000331281
-0.0117347
-0.000330508
-0.011405
-0.000329699
-0.0110761
-0.000328881
-0.010748
-0.000328079
-0.0104207
-0.000327298
-0.0100942
-0.000326537
-0.00976837
-0.000325811
-0.00944321
-0.000325158
-0.0091186
-0.000324615
-0.0087944
-0.0003242
-0.00847052
-0.000323882
-0.00814684
-0.00032368
-0.00782322
-0.000323617
-0.00749952
-0.0003237
-0.00717558
-0.000323943
-0.00685123
-0.000324345
-0.00652628
-0.000324955
-0.00620045
-0.000325825
-0.00587345
-0.000327
-0.00554491
-0.000328544
-0.00521439
-0.000330517
-0.00488151
-0.00033288
-0.00454602
-0.000335489
-0.00420774
-0.000338284
-0.00386647
-0.000341271
-0.00352164
-0.00034483
-0.00317211
-0.000349529
-0.00281627
-0.000355832
-0.00245153
-0.000364743
-0.00207122
-0.000380317
-0.00165971
-0.000411509
-0.00119316
-0.000466543
-0.000668749
-0.000524414
-0.000197796
-0.000470953
-0.000197796
9.36745e-06
-0.000385102
4.80528e-05
-0.000515462
5.75634e-05
-0.000492382
6.70973e-05
-0.000479851
7.71691e-05
-0.00047643
8.64537e-05
-0.000471963
9.37354e-05
-0.000467153
9.91623e-05
-0.000462311
0.000103348
-0.000457735
0.000106749
-0.000453517
0.000110317
-0.000450023
0.00011506
-0.000447486
0.000121969
-0.000446122
0.000132533
-0.000446206
0.000147117
-0.000447146
0.000166171
-0.000448932
0.00019023
-0.000451454
0.000219171
-0.000454326
0.00025389
-0.00045783
0.000293142
-0.000460719
0.000336801
-0.000463506
0.000384367
-0.000465882
0.000435355
-0.000467674
0.000488799
-0.000468492
0.000543999
-0.000468354
0.000600006
-0.000467168
0.000657144
-0.000465808
0.000716213
-0.000465041
0.00078033
-0.000467036
0.000853644
-0.000473295
0.000941637
-0.000485041
0.00104766
-0.000500998
0.00117224
-0.000518145
0.00131255
-0.000532935
0.00146216
-0.000542838
0.00161116
-0.000543909
0.00174731
-0.000532996
0.00185644
-0.00050625
0.00193069
-0.000470498
0.00196958
-0.000431897
0.00198527
-0.000400805
0.0019963
-0.000387804
0.00202646
-0.000398595
0.00209945
-0.000435008
0.00223353
-0.000492655
0.00243789
-0.00056027
0.00271079
-0.000630807
0.00303868
-0.000690009
0.00341039
-0.00073929
0.00381668
-0.000779209
0.00425068
-0.000810998
0.00470826
-0.000836547
0.00518655
-0.000856784
0.00568317
-0.000872142
0.00619551
-0.00088284
0.00672005
-0.000889156
0.00724944
-0.000888275
0.00778065
-0.000885201
0.00831132
-0.000882637
0.00883786
-0.000883643
0.00935764
-0.000891741
0.00986866
-0.000909421
0.010369
-0.000936873
0.0108583
-0.000971107
0.0113378
-0.00100746
0.0118109
-0.00104124
0.0122808
-0.00106504
0.0127505
-0.00107289
0.013224
-0.00106479
0.0137046
-0.00104377
0.0141936
-0.00101519
0.0146906
-0.00098571
0.0151945
-0.000960999
0.0157042
-0.000943533
0.0162189
-0.000933244
0.0167388
-0.000928669
0.0172644
-0.000928221
0.0177965
-0.000930763
0.0183354
-0.000935693
0.018881
-0.000942718
0.019433
-0.000951567
0.0199912
-0.000961889
0.0205553
-0.000973285
0.021125
-0.000985373
0.0217002
-0.000997824
0.0222805
-0.00101036
0.0228658
-0.00102273
0.0234555
-0.00103468
0.0240493
-0.00104604
0.024647
-0.00105671
0.0252486
-0.00106674
0.0258542
-0.00107631
0.0264642
-0.00108568
0.0270792
-0.00109501
0.0276992
-0.00110426
0.0283237
-0.001113
0.0289513
-0.00112044
0.0295798
-0.00112549
0.0302066
-0.001127
0.0308294
-0.00112419
0.0314468
-0.00111704
0.0320591
-0.00110666
0.0326685
-0.00109533
0.0332793
-0.00108619
0.0338964
-0.00108265
0.0345248
-0.0010875
0.0351681
-0.00110194
0.0358269
-0.00112463
0.0364989
-0.0011508
0.037178
-0.00117202
0.0378543
-0.00117687
0.0385151
-0.00115327
0.0391451
-0.00109199
0.0397276
-0.000990517
0.0402467
-0.000855542
0.0406899
-0.000702561
0.0410514
-0.000552502
0.0413348
-0.000425946
0.041553
-0.000336855
0.0417259
-0.000290263
0.0418763
-0.000282786
0.0420249
-0.000305386
0.0421865
-0.000346885
0.0423683
-0.000396944
0.0425715
-0.000447821
0.0427933
-0.000494913
0.0430291
-0.000536182
0.0432742
-0.000571279
0.0435247
-0.000600747
0.0437777
-0.000625447
0.0440312
-0.000646229
0.0442843
-0.000663793
0.0445361
-0.000678656
0.0447864
-0.000691196
0.0450348
-0.000701694
0.0452814
-0.000710391
0.0455262
-0.000717513
0.0457691
-0.000723294
0.0460104
-0.000727974
0.0462503
-0.000731791
0.046489
-0.000734968
0.0467269
-0.000737706
0.0469644
-0.00074018
0.0472018
-0.000742539
0.0474394
-0.000744916
0.0476778
-0.000747437
0.0479173
-0.000750227
0.0481585
-0.000753413
0.048402
-0.000757107
0.0486483
-0.000761392
0.0488979
-0.000766298
0.0491514
-0.000771777
0.0494088
-0.000777702
0.0496703
-0.00078388
0.0499357
-0.0007901
0.0502045
-0.0007962
0.0504766
-0.000802149
0.050752
-0.000808126
0.0510314
-0.000814564
0.0513161
-0.000822145
0.0516086
-0.000831718
0.0519118
-0.000844164
0.0522296
-0.000860212
0.0525659
-0.000880274
0.0529241
-0.000904336
0.053307
-0.000931944
0.0537167
-0.000962283
0.0541537
-0.000994336
0.054618
-0.00102707
0.0551085
-0.00105963
0.0556239
-0.00109143
0.0561627
-0.00112226
0.0567239
-0.00115226
0.0573063
-0.00118186
0.0579094
-0.00121173
0.0585332
-0.00124258
0.059178
-0.00127513
0.0598444
-0.00130989
0.0605339
-0.00134715
0.0612491
-0.00138685
0.0619936
-0.00142848
0.0627735
-0.00147051
0.0635978
-0.00150914
0.0644808
-0.00153605
0.0654458
-0.00153691
0.0665259
-0.00149475
0.067747
-0.00140192
0.0690728
-0.00126731
0.070404
-0.00112118
0.0716715
-0.0010051
0.0728787
-0.000924566
0.0740412
-0.000861501
0.0751591
-0.000801017
0.0762182
-0.000737967
0.0772005
-0.000671941
0.07809
-0.000607406
0.0788722
-0.000544806
0.0795353
-0.000483414
0.0800713
-0.000422055
0.0804812
-0.000360072
0.0807796
-0.000297551
0.0809746
-0.000236704
0.081076
-0.000178042
0.0810921
-0.000130115
0.08104
-0.0001002
0.0809435
-9.36229e-05
0.0808316
-0.00011331
0.0807347
-0.000158979
0.08068
-0.000226797
0.0806878
-0.000309813
0.0807689
-0.000399331
0.0809245
-0.000486795
0.0811485
-0.000565422
0.0814303
-0.000631063
0.0817575
-0.000682207
0.0821187
-0.000719373
0.0825041
-0.000744276
0.0829062
-0.000759063
0.0833199
-0.000765786
0.0837414
-0.000766136
0.0841687
-0.00076138
0.0846004
-0.000752406
0.0850357
-0.000739818
0.0854743
-0.000724024
0.0859163
-0.000705303
0.0863621
-0.000683859
0.0868123
-0.00065986
0.0872683
-0.000633486
0.0877323
-0.000604994
0.0882086
-0.00057486
0.0887044
-0.000544094
0.0892211
-0.000512915
0.0897481
-0.000478831
0.0902647
-0.000443819
0.090761
-0.00040879
0.091233
-0.000374006
0.0916786
-0.000339755
0.092096
-0.000306675
0.0924844
-0.000275694
0.092845
-0.0002479
0.0931812
-0.000224381
0.093498
-0.000206019
0.0938011
-0.000193222
0.0940951
-0.000185635
0.0943829
-0.000182016
0.0946646
-0.000180681
0.0949376
-0.00017953
0.0951978
-0.000176509
0.0954413
-0.000170156
0.0956661
-0.000159918
0.0958735
-0.000146139
0.096067
-0.00013005
0.096251
-0.000111841
0.0964288
-9.12607e-05
0.0966011
-6.74051e-05
0.0967646
-3.85372e-05
0.096912
-2.4475e-06
0.0970388
3.60231e-05
0.0971345
8.40821e-05
0.0971931
0.000137215
0.0972105
0.000193732
0.0971857
0.000251621
0.0971191
0.00030934
0.0970127
0.000366026
0.0968682
0.000421453
0.0966873
0.000475848
0.0964712
0.000529652
0.0962204
0.000583322
0.0959352
0.000637221
0.0956155
0.000691586
0.0952611
0.000746538
0.0948718
0.000802124
0.0944473
0.000858338
0.0939873
0.000915151
0.0934915
0.000972517
0.0929599
0.00103038
0.0923922
0.00108867
0.0917884
0.00114731
0.0911483
0.00120622
0.0904722
0.00126533
0.0897599
0.00132453
0.0890117
0.00138374
0.0882277
0.00144287
0.0874083
0.00150181
0.0865538
0.00156048
0.0856645
0.00161879
0.0847411
0.00167664
0.0837839
0.00173393
0.0827936
0.00179058
0.0817708
0.00184649
0.0807163
0.00190158
0.0796307
0.00195576
0.0785148
0.00200894
0.0773696
0.00206102
0.0761959
0.00211194
0.0749946
0.00216159
0.0737668
0.00220992
0.0725134
0.00225683
0.0712356
0.00230225
0.0699343
0.00234611
0.0686108
0.00238834
0.0672661
0.00242887
0.0659015
0.00246763
0.0645182
0.00250459
0.0631174
0.00253967
0.0617004
0.00257283
0.0602684
0.00260403
0.0588226
0.00263322
0.0573644
0.00266039
0.055895
0.00268549
0.0544158
0.0027085
0.052928
0.00272942
0.0514328
0.00274821
0.0499317
0.00276489
0.0484257
0.00277945
0.0469162
0.00279189
0.0454044
0.00280222
0.0438915
0.00281045
0.0423787
0.00281661
0.0408671
0.00282071
0.0393579
0.00282278
0.0378523
0.00282284
0.0363512
0.00282094
0.0348557
0.00281713
0.0333669
0.00281136
0.0318858
0.00280375
0.0304134
0.0027943
0.0289506
0.00278302
0.0274983
0.00276993
0.0260575
0.00275509
0.0246291
0.00273843
0.0232137
0.00272021
0.0218125
0.00270019
0.020426
0.00267872
0.0190551
0.00265561
0.0177006
0.00263121
0.0163631
0.00260544
0.0150435
0.00257831
0.0137426
0.00254988
0.0124615
0.00251974
0.011201
0.00248803
0.00996184
0.00245471
0.00874568
0.00241835
0.00755324
0.00238014
0.00638519
0.00233918
0.00524179
0.00229567
0.00412373
0.00225061
0.00302953
0.00220408
0.00195822
0.00215747
0.000909345
0.00211208
-0.000119423
0.00206798
-0.00112905
0.00202598
-0.00212045
0.00198602
-0.00309411
0.00194771
-0.00405012
0.00191047
-0.00498826
0.00187363
-0.00590814
0.00183671
-0.00680929
0.00179935
-0.00769134
0.0017614
-0.00855401
0.00172291
-0.00939718
0.00168407
-0.0102208
0.00164513
-0.0110249
0.00160626
-0.0118094
0.00156753
-0.0125742
0.00152891
-0.013319
0.00149022
-0.0140434
0.00145128
-0.0147472
0.00141192
-0.0154299
0.00137208
-0.0160912
0.00133175
-0.0167311
0.00129104
-0.0173494
0.00125006
-0.0179461
0.00120892
-0.0185211
0.0011677
-0.0190746
0.00112643
-0.0196064
0.00108516
-0.0201166
0.00104389
-0.0206054
0.00100266
-0.0210728
0.000961474
-0.021519
0.000920383
-0.021944
0.00087942
-0.0223481
0.000838612
-0.0227314
0.000797973
-0.023094
0.00075749
-0.023436
0.000717123
-0.0237571
0.000676811
-0.0240574
0.000636498
-0.0243368
0.000596166
-0.0245952
0.000555833
-0.0248327
0.000515535
-0.0250493
0.000475308
-0.0252453
0.000435188
-0.0254208
0.000395215
-0.025576
0.00035543
-0.0257111
0.000315874
-0.0258264
0.00027658
-0.0259222
0.000237575
-0.0259986
0.000198884
-0.0260559
0.000160534
-0.0260944
0.000122605
-0.0261146
8.52042e-05
-0.0261178
4.84178e-05
-0.0261079
1.31539e-05
-0.0260875
-2.26422e-05
-0.0260549
-5.74638e-05
-0.0260084
-9.16619e-05
-0.0259471
-0.000125401
-0.0258704
-0.000158566
-0.0257782
-0.000191049
-0.0256708
-0.000222802
-0.0255484
-0.000253785
-0.0254112
-0.000283967
-0.0252596
-0.000313306
-0.0250939
-0.000341773
-0.0249146
-0.000369329
-0.0247219
-0.00039595
-0.0245165
-0.000421607
-0.0242986
-0.000446285
-0.0240687
-0.000469952
-0.0238274
-0.000492583
-0.023575
-0.00051416
-0.0233122
-0.000534664
-0.0230393
-0.000554076
-0.0227569
-0.000572368
-0.0224656
-0.00058952
-0.0221658
-0.000605512
-0.0218582
-0.000620316
-0.0215434
-0.000633901
-0.0212219
-0.000646222
-0.0208944
-0.000657198
-0.0205616
-0.000666669
-0.0202245
-0.000674404
-0.0198834
-0.000680144
-0.0195384
-0.000683803
-0.0191888
-0.000685768
-0.0188332
-0.000687012
-0.0184701
-0.000688804
-0.0180988
-0.000692065
-0.0177196
-0.000696794
-0.0173344
-0.000702089
-0.0169456
-0.000706737
-0.0165554
-0.000709903
-0.0161653
-0.000711438
-0.015776
-0.000711667
-0.0153881
-0.000711013
-0.0150022
-0.000709755
-0.0146188
-0.000707992
-0.0142385
-0.000705738
-0.0138619
-0.000703003
-0.0134896
-0.000699793
-0.013122
-0.000696111
-0.0127598
-0.000691972
-0.0124033
-0.000687413
-0.0120527
-0.000682461
-0.0117084
-0.000677141
-0.0113703
-0.000671489
-0.0110386
-0.000665568
-0.0107133
-0.000659451
-0.0103942
-0.000653192
-0.0100813
-0.00064681
-0.00977462
-0.000640329
-0.00947402
-0.000633792
-0.00917944
-0.000627228
-0.00889078
-0.000620654
-0.00860797
-0.000614095
-0.00833089
-0.000607585
-0.00805944
-0.000601151
-0.00779348
-0.000594834
-0.00753291
-0.000588651
-0.00727758
-0.00058263
-0.00702731
-0.00057681
-0.00678187
-0.000571246
-0.00654105
-0.000565976
-0.00630461
-0.000561057
-0.00607227
-0.000556542
-0.00584365
-0.000552497
-0.0056184
-0.000548931
-0.0053961
-0.000545916
-0.00517631
-0.000543498
-0.00495854
-0.000541713
-0.00474229
-0.000540595
-0.00452708
-0.000540164
-0.00431242
-0.000540484
-0.00409783
-0.00054159
-0.0038828
-0.000543572
-0.00366675
-0.000546562
-0.00344897
-0.000550665
-0.00322855
-0.000555907
-0.00300456
-0.000562278
-0.0027766
-0.000569227
-0.00254604
-0.000575394
-0.00231708
-0.000578487
-0.00209593
-0.000576982
-0.00188469
-0.000575989
-0.00166849
-0.000596512
-0.00140377
-0.000676227
-0.00103128
-0.000839036
-0.000543636
-0.00101206
-7.59938e-05
-0.000938595
-0.00027379
-0.000124293
-0.000260809
-0.000216205
-0.000423549
-0.000352904
-0.000355684
-0.000497341
-0.000335414
-0.000638897
-0.000334873
-0.000775303
-0.000335557
-0.000904027
-0.000338428
-0.00102289
-0.000343452
-0.00112959
-0.000351029
-0.00122189
-0.000361218
-0.001298
-0.000373911
-0.00135658
-0.000388906
-0.00139678
-0.000405929
-0.00141845
-0.000424532
-0.00142159
-0.000444006
-0.00140687
-0.000463657
-0.00137522
-0.000483096
-0.00132795
-0.000501602
-0.0012667
-0.000519078
-0.00119236
-0.000535059
-0.00110648
-0.000549384
-0.00101011
-0.000562254
-0.0009041
-0.000573684
-0.000788825
-0.000583768
-0.000664615
-0.000592564
-0.000530447
-0.000601337
-0.000385722
-0.000610533
-0.000229524
-0.000621239
-6.21248e-05
-0.000634435
0.000114615
-0.000650034
0.000296865
-0.000667291
0.000479939
-0.000684073
0.000659271
-0.000697477
0.00083191
-0.000705574
0.0009946
-0.000705527
0.0011493
-0.000698606
0.00130328
-0.000686974
0.00147265
-0.000675625
0.00166971
-0.000667563
0.00190954
-0.000671722
0.00220653
-0.000697795
0.0025658
-0.000747071
0.00298747
-0.000820271
0.0034616
-0.000909137
0.00397127
-0.00100232
0.00449655
-0.00108556
0.00502182
-0.00115607
0.00554085
-0.00120904
0.00604711
-0.00124555
0.00653743
-0.00126954
0.00701127
-0.00128483
0.00746954
-0.00129482
0.00791331
-0.00130056
0.00834321
-0.00130205
0.00875959
-0.00129922
0.00916328
-0.00129285
0.00955914
-0.00128413
0.00994953
-0.00127559
0.0103372
-0.0012703
0.010725
-0.0012714
0.0111146
-0.00128134
0.0115061
-0.00130101
0.0118979
-0.00132867
0.0122887
-0.00136183
0.012677
-0.00139583
0.0130634
-0.00142761
0.0134512
-0.00145279
0.0138462
-0.0014679
0.0142539
-0.00147251
0.0146787
-0.00146854
0.0151227
-0.00145925
0.0155853
-0.00144832
0.0160635
-0.00143919
0.0165539
-0.00143389
0.0170534
-0.00143276
0.0175599
-0.00143522
0.0180721
-0.00144041
0.018589
-0.00144769
0.0191101
-0.00145672
0.0196346
-0.00146729
0.0201622
-0.00147916
0.0206924
-0.00149205
0.0212248
-0.0015057
0.0217593
-0.00151984
0.0222957
-0.00153425
0.0228341
-0.00154875
0.0233746
-0.00156318
0.0239173
-0.00157741
0.0244626
-0.00159133
0.0250107
-0.00160484
0.0255618
-0.00161788
0.0261159
-0.00163036
0.0266724
-0.00164219
0.0272305
-0.00165317
0.0277893
-0.00166301
0.0283476
-0.00167133
0.0289049
-0.00167771
0.0294611
-0.00168169
0.030017
-0.00168288
0.0305739
-0.00168113
0.0311335
-0.00167663
0.031697
-0.0016701
0.0322644
-0.00166278
0.0328344
-0.00165623
0.0334038
-0.00165202
0.0339676
-0.00165127
0.0345198
-0.00165419
0.0350547
-0.00165953
0.0355681
-0.00166413
0.0360586
-0.00166257
0.0365292
-0.00164748
0.0369868
-0.00161081
0.0374409
-0.00154616
0.037902
-0.00145153
0.0383778
-0.00133142
0.0388726
-0.0011973
0.0393853
-0.00106518
0.0399106
-0.000951251
0.0404409
-0.000867205
0.0409682
-0.000817537
0.041485
-0.000799584
0.0419854
-0.000805829
0.0424656
-0.000827082
0.0429238
-0.000855086
0.0433598
-0.000883885
0.043775
-0.000910102
0.0441713
-0.00093242
0.0445508
-0.000950797
0.0449158
-0.000965771
0.0452683
-0.000977992
0.0456101
-0.000987994
0.0459425
-0.000996131
0.0462664
-0.00100262
0.0465828
-0.00100758
0.0468923
-0.00101116
0.0471954
-0.00101349
0.0474926
-0.00101479
0.0477846
-0.0010153
0.0480719
-0.00101528
0.0483551
-0.00101498
0.0486348
-0.00101464
0.0489115
-0.00101444
0.0491859
-0.00101454
0.0494584
-0.00101505
0.0497296
-0.00101609
0.0499999
-0.00101775
0.0502698
-0.00102015
0.0505398
-0.00102335
0.05081
-0.00102738
0.0510809
-0.00103222
0.0513523
-0.00103777
0.0516244
-0.00104384
0.051897
-0.00105026
0.0521699
-0.00105686
0.0524435
-0.00106368
0.0527183
-0.00107101
0.0529956
-0.00107944
0.0532774
-0.00108994
0.0535665
-0.00110365
0.0538662
-0.00112181
0.0541799
-0.0011454
0.0545107
-0.00117496
0.0548608
-0.00121037
0.0552313
-0.00125076
0.0556216
-0.00129462
0.0560296
-0.00134
0.0564522
-0.00138484
0.0568852
-0.00142731
0.0573242
-0.00146611
0.0577652
-0.00150059
0.0582046
-0.00153082
0.0586398
-0.0015575
0.0590693
-0.00158177
0.0594924
-0.00160498
0.0599092
-0.0016285
0.0603202
-0.00165354
0.060726
-0.00168099
0.0611275
-0.00171132
0.0615248
-0.00174453
0.0619181
-0.00178006
0.0623063
-0.00181675
0.0626884
-0.00185259
0.0630634
-0.00188413
0.063433
-0.00190564
0.0638049
-0.0019088
0.0641946
-0.00188448
0.0646199
-0.00182723
0.0650916
-0.00173902
0.0656074
-0.00163697
0.0661509
-0.0015486
0.0667103
-0.001484
0.0672834
-0.00143462
0.0678722
-0.00138978
0.0684792
-0.00134499
0.0691076
-0.00130032
0.0697575
-0.00125731
0.0704268
-0.00121406
0.0711119
-0.00116852
0.0718081
-0.00111827
0.07251
-0.00106198
0.0732131
-0.00100061
0.0739125
-0.000936186
0.0746049
-0.000870415
0.0752841
-0.000809269
0.0759451
-0.000761176
0.0765854
-0.000733999
0.077205
-0.000732915
0.0778047
-0.000758684
0.0783852
-0.000807275
0.0789465
-0.000871051
0.079488
-0.000940859
0.0800094
-0.0010082
0.0805107
-0.00106678
0.0809928
-0.00111316
0.0814571
-0.00114644
0.0819053
-0.00116756
0.0823393
-0.00117833
0.0827611
-0.0011808
0.083172
-0.00117674
0.0835734
-0.00116754
0.0839662
-0.00115419
0.0843512
-0.00113738
0.0847289
-0.00111757
0.0851
-0.00109508
0.0854649
-0.00107016
0.085824
-0.00104303
0.086178
-0.00101386
0.0865274
-0.000982835
0.0868726
-0.000950232
0.0872143
-0.000916579
0.087553
-0.0008828
0.0878891
-0.000848943
0.0882235
-0.00081326
0.0885555
-0.000775824
0.0888846
-0.000737892
0.0892111
-0.000700498
0.0895356
-0.0006643
0.0898589
-0.000629899
0.0901812
-0.000598028
0.0905028
-0.000569509
0.0908235
-0.000545051
0.0911425
-0.000525029
0.0914585
-0.000509289
0.09177
-0.000497039
0.0920748
-0.000486823
0.0923708
-0.000476687
0.0926557
-0.000464435
0.0929273
-0.000448139
0.0931837
-0.000426585
0.0934233
-0.000399466
0.0936444
-0.000367242
0.0938452
-0.000330876
0.0940243
-0.000290935
0.0941805
-0.000247432
0.094313
-0.000199933
0.0944215
-0.000146993
0.0945061
-8.70643e-05
0.0945633
-2.1173e-05
0.0945921
5.52946e-05
0.0945923
0.00013701
0.0945624
0.000223644
0.094501
0.000313016
0.094407
0.000403268
0.09428
0.000493087
0.0941196
0.000581846
0.0939259
0.000669492
0.0936992
0.000756338
0.0934397
0.000842843
0.0931475
0.000929448
0.0928226
0.0010165
0.0924649
0.00110422
0.0920743
0.00119273
0.0916506
0.00128208
0.0911934
0.00137225
0.0907028
0.0014632
0.0901783
0.00155485
0.0896199
0.0016471
0.0890273
0.00173983
0.0884007
0.00183291
0.0877398
0.0019262
0.0870448
0.00201954
0.0863157
0.00211278
0.0855528
0.00220577
0.0847563