/*--------------------------------*- C++ -*----------------------------------*\
| =========                 |                                                 |
| \\      /  F ield         | OpenFOAM: The Open Source CFD Toolbox           |
|  \\    /   O peration     | Version:  v2006                                 |
|   \\  /    A nd           | Website:  www.openfoam.com                      |
|    \\/     M anipulation  |                                                 |
\*---------------------------------------------------------------------------*/
FoamFile
{
    version     2.0;
    format      ascii;
    class       surfaceScalarField;
    location    "8.2";
    object      phi;
}
// * * * * * * * * * * * * * * * * * * * * * * * * * * * * * * * * * * * * * //

dimensions      [0 3 -1 0 0 0 0];
oriented        oriented;


internalField   nonuniform List<scalar> 
299200
(
0.000378776
-0.000378776
0.00085859
-0.000479814
0.0013445
-0.000485906
0.00181784
-0.000473348
0.00228721
-0.000469371
0.00275289
-0.000465675
0.00321574
-0.000462851
0.00367559
-0.000459846
0.00413208
-0.000456493
0.00458512
-0.000453037
0.00503447
-0.000449353
0.00548008
-0.000445614
0.00592214
-0.000442057
0.0063606
-0.000438459
0.00679595
-0.000435347
0.00722858
-0.000432628
0.00765868
-0.000430109
0.00808674
-0.000428059
0.00851249
-0.000425748
0.00893655
-0.000424059
0.00935894
-0.000422394
0.00977976
-0.000420815
0.0101989
-0.000419135
0.0106163
-0.000417444
0.0110318
-0.000415495
0.0114453
-0.000413443
0.0118562
-0.000410893
0.0122643
-0.000408132
0.0126693
-0.000405013
0.0130713
-0.000402002
0.0134703
-0.000399005
0.0138672
-0.000396869
0.0142626
-0.000395379
0.0146569
-0.000394363
0.0150518
-0.00039488
0.0154483
-0.000396465
0.0158466
-0.00039832
0.0162451
-0.000398499
0.0166426
-0.000397539
0.0170369
-0.000394214
0.0174231
-0.000386229
0.0178009
-0.000377787
0.0181702
-0.00036933
0.018533
-0.000362799
0.0188922
-0.000359245
0.0192487
-0.00035648
0.0196071
-0.000358366
0.0199696
-0.000362477
0.0203374
-0.000367844
0.0207105
-0.000373117
0.0210876
-0.00037712
0.0214667
-0.000379046
0.0218452
-0.000378527
0.0222207
-0.000375502
0.0225911
-0.000370424
0.0229556
-0.000364459
0.0233142
-0.000358617
0.0236678
-0.000353573
0.0240191
-0.000351328
0.0243753
-0.000356166
0.0247459
-0.000370638
0.0251426
-0.00039669
0.0255771
-0.000434446
0.0260566
-0.000479497
0.0265822
-0.000525638
0.027148
-0.000565834
0.0277412
-0.000593149
0.0283428
-0.000601618
0.0289329
-0.000590142
0.0294953
-0.000562342
0.0300208
-0.00052552
0.0305087
-0.000487937
0.0309648
-0.000456017
0.0313973
-0.000432569
0.0318144
-0.000417033
0.0322215
-0.000407147
0.0326223
-0.000400764
0.033019
-0.000396742
0.0334138
-0.000394802
0.0338088
-0.000394997
0.0342061
-0.000397281
0.0346075
-0.000401366
0.0350143
-0.000406812
0.0354274
-0.000413183
0.0358476
-0.000420142
0.036275
-0.00042745
0.03671
-0.000434918
0.0371523
-0.000442364
0.0376019
-0.00044959
0.0380583
-0.000456393
0.0385209
-0.000462604
0.038989
-0.000468136
0.0394621
-0.00047303
0.0399395
-0.000477464
0.0404212
-0.000481702
0.0409072
-0.000485977
0.0413976
-0.000490337
0.041892
-0.000494484
0.0423898
-0.000497716
0.0428888
-0.000499031
0.0433862
-0.000497424
0.0438785
-0.000492301
0.0443624
-0.000483906
0.044836
-0.000473562
0.0452996
-0.000463624
0.0457566
-0.000457037
0.0462131
-0.000456503
0.0466765
-0.000463338
0.0471527
-0.000476254
0.0476433
-0.000490579
0.0481419
-0.000498567
0.0486332
-0.000491278
0.049095
-0.000461805
0.0495036
-0.000408677
0.0498413
-0.000337664
0.050102
-0.000260671
0.0502938
-0.000191816
0.0504363
-0.000142468
0.0505539
-0.000117628
0.0506695
-0.000115565
0.0507996
-0.000130135
0.0509539
-0.000154262
0.0511366
-0.000182727
0.0513491
-0.000212548
0.0515912
-0.00024207
0.0518619
-0.000270657
0.0521599
-0.000298013
0.0524838
-0.000323907
0.0528319
-0.000348112
0.0532023
-0.00037043
0.053593
-0.000390733
0.054002
-0.000408973
0.0544272
-0.000425175
0.0548666
-0.000439418
0.0553184
-0.000451812
0.0557809
-0.000462491
0.0562525
-0.000471597
0.0567318
-0.000479285
0.0572175
-0.000485712
0.0577086
-0.000491043
0.058204
-0.000495442
0.0587031
-0.000499067
0.0592051
-0.000502069
0.0597097
-0.000504583
0.0602164
-0.000506725
0.060725
-0.000508594
0.0612353
-0.000510269
0.0617471
-0.000511821
0.0622604
-0.000513312
0.0627752
-0.000514809
0.0632916
-0.000516379
0.0638097
-0.000518093
0.0643297
-0.000520012
0.0648519
-0.000522176
0.0653765
-0.000524585
0.0659037
-0.000527195
0.0664336
-0.000529908
0.0669662
-0.000532594
0.0675013
-0.000535112
0.0680386
-0.000537347
0.0685779
-0.000539257
0.0691188
-0.000540893
0.0696612
-0.000542418
0.0702053
-0.00054408
0.0707515
-0.000546167
0.0713004
-0.000548949
0.071853
-0.000552612
0.0724103
-0.000557229
0.072973
-0.000562749
0.073542
-0.000569035
0.074118
-0.000575913
0.0747012
-0.000583247
0.0752922
-0.000591001
0.0758915
-0.000599283
0.0764998
-0.000608339
0.0771183
-0.000618497
0.0777484
-0.00063004
0.0783914
-0.000643034
0.0790485
-0.000657123
0.0797199
-0.000671338
0.0804037
-0.000683821
0.0810948
-0.000691161
0.0817815
-0.000686668
0.0824387
-0.000657152
0.0830187
-0.000580034
0.0834465
-0.000427832
0.0836433
-0.000196743
0.0835985
4.47464e-05
0.0833935
0.000204993
0.0831324
0.00026117
0.0828506
0.000281713
0.082551
0.000299674
0.0822354
0.00031561
0.081915
0.000320402
0.0816046
0.000310363
0.0813219
0.000282729
0.0810832
0.000238673
0.0809017
0.000181492
0.0807857
0.000115988
0.080734
5.17558e-05
0.0807313
2.64089e-06
0.0807714
-4.01313e-05
0.0808462
-7.47963e-05
0.0809583
-0.000112014
0.0811085
-0.000150267
0.0812965
-0.000187986
0.0815198
-0.000223263
0.081774
-0.000254254
0.0820541
-0.000280063
0.0823549
-0.000300824
0.0826722
-0.000317288
0.0830026
-0.000330355
0.0833433
-0.000340726
0.083692
-0.000348762
0.0840466
-0.000354529
0.0844045
-0.000357923
0.0847633
-0.000358787
0.0851203
-0.000356977
0.0854727
-0.000352393
0.0858176
-0.000344979
0.0861523
-0.000334708
0.0864739
-0.000321571
0.0867795
-0.000305557
0.0870661
-0.000286634
0.0873308
-0.000264739
0.0875706
-0.000239764
0.0877821
-0.000211526
0.0879618
-0.000179675
0.0881053
-0.00014351
0.0882068
-0.000101506
0.0882582
-5.13986e-05
0.0882578
3.84435e-07
0.0882112
4.66626e-05
0.088139
7.21385e-05
0.088052
8.70458e-05
0.0879544
9.76365e-05
0.0878489
0.000105466
0.0877385
0.000110359
0.0876261
0.000112426
0.0875137
0.00011245
0.0874021
0.000111502
0.0872917
0.000110412
0.0871824
0.000109382
0.0870745
0.000107902
0.0869692
0.00010524
0.0868687
0.000100471
0.0867757
9.30247e-05
0.0866924
8.33024e-05
0.0866195
7.28703e-05
0.0865553
6.42528e-05
0.086495
6.02864e-05
0.0864328
6.21748e-05
0.0863624
7.04776e-05
0.0862777
8.46821e-05
0.0861748
0.000102824
0.0860521
0.000122698
0.0859094
0.00014273
0.0857488
0.000160623
0.0855712
0.00017764
0.0853776
0.000193522
0.0851688
0.000208875
0.0849444
0.000224341
0.0847041
0.000240298
0.0844472
0.00025692
0.084173
0.000274221
0.0838808
0.000292141
0.0835702
0.0003106
0.0832407
0.000329537
0.0828918
0.000348911
0.0825231
0.000368699
0.0821342
0.000388883
0.0817248
0.000409446
0.0812944
0.000430371
0.0808428
0.000451636
0.0803695
0.000473224
0.0798744
0.000495114
0.0793571
0.000517287
0.0788174
0.000539724
0.078255
0.000562401
0.0776697
0.000585293
0.0770613
0.000608372
0.0764297
0.000631611
0.0757747
0.00065498
0.0750963
0.000678452
0.0743943
0.000701998
0.0736687
0.00072559
0.0729195
0.000749199
0.0721467
0.000772794
0.0713504
0.000796341
0.0705306
0.000819804
0.0696874
0.000843144
0.0688211
0.000866324
0.0679318
0.000889309
0.0670197
0.000912065
0.0660852
0.000934557
0.0651284
0.000956746
0.0641498
0.000978589
0.0631498
0.00100005
0.0621287
0.00102109
0.061087
0.00104166
0.0600253
0.00106174
0.058944
0.00108129
0.0578437
0.00110026
0.0567251
0.00111864
0.0555887
0.00113638
0.0544353
0.00115345
0.0532655
0.00116981
0.05208
0.00118546
0.0508796
0.00120036
0.0496652
0.00121449
0.0484373
0.00122782
0.047197
0.00124033
0.045945
0.00125201
0.0446821
0.00126286
0.0434093
0.00127284
0.0421274
0.00128193
0.0408373
0.00129013
0.0395398
0.00129746
0.0382359
0.0013039
0.0369264
0.00130945
0.0356123
0.00131411
0.0342944
0.00131789
0.0329737
0.00132077
0.0316509
0.00132272
0.0303271
0.00132381
0.029003
0.0013241
0.0276795
0.0013235
0.0263576
0.00132199
0.025038
0.00131959
0.0237216
0.00131635
0.0224094
0.00131224
0.0211021
0.00130728
0.0198006
0.00130147
0.0185057
0.00129487
0.0172182
0.0012875
0.0159387
0.00127951
0.0146678
0.00127094
0.013406
0.00126179
0.0121538
0.00125218
0.010912
0.00124184
0.0096811
0.00123088
0.00846219
0.00121891
0.00725654
0.00120565
0.00606535
0.00119119
0.00489068
0.00117467
0.00373482
0.00115586
0.00259868
0.00113615
0.00148518
0.0011135
0.000395391
0.00108979
-0.000671429
0.00106682
-0.00171425
0.00104283
-0.00273419
0.00101994
-0.0037324
0.000998202
-0.00471002
0.000977622
-0.00566802
0.000958003
-0.00660703
0.000939004
-0.00752734
0.000920313
-0.00842898
0.000901638
-0.00931173
0.000882755
-0.0101753
0.00086359
-0.0110195
0.000844204
-0.0118443
0.00082474
-0.0126496
0.00080536
-0.0134358
0.000786184
-0.014203
0.000767236
-0.0149515
0.00074847
-0.0156813
0.000729792
-0.0163924
0.000711079
-0.0170846
0.000692207
-0.0177577
0.000673117
-0.0184115
0.000653826
-0.0190459
0.000634374
-0.0196607
0.000614798
-0.0202558
0.000595131
-0.0208313
0.000575412
-0.0213869
0.000555657
-0.0219228
0.00053587
-0.0224388
0.000516043
-0.022935
0.00049617
-0.0234112
0.000476256
-0.0238676
0.000456316
-0.0243039
0.00043637
-0.0247204
0.000416444
-0.025117
0.000396581
-0.0254938
0.000376826
-0.025851
0.000357197
-0.0261887
0.000337672
-0.0265069
0.000318208
-0.0268056
0.000298765
-0.0270849
0.000279314
-0.0273448
0.000259838
-0.0275851
0.000240325
-0.0278059
0.000220776
-0.0280071
0.000201206
-0.0281887
0.000181636
-0.0283508
0.00016209
-0.0284934
0.000142593
-0.0286166
0.000123169
-0.0287204
0.000103838
-0.028805
8.46271e-05
-0.0288705
6.54646e-05
-0.0289161
4.56146e-05
-0.0289393
2.3217e-05
-0.0289372
-2.1706e-06
-0.0289123
-2.48291e-05
-0.028867
-4.52932e-05
-0.0288029
-6.4176e-05
-0.0287209
-8.19977e-05
-0.0286218
-9.91053e-05
-0.0285061
-0.000115631
-0.0283745
-0.000131628
-0.0282274
-0.000147103
-0.0280653
-0.000162065
-0.0278888
-0.000176507
-0.0276984
-0.000190425
-0.0274946
-0.000203811
-0.0272779
-0.000216654
-0.027049
-0.000228945
-0.0268083
-0.000240676
-0.0265565
-0.00025184
-0.026294
-0.000262431
-0.0260216
-0.00027244
-0.0257397
-0.000281861
-0.0254491
-0.000290685
-0.0251502
-0.000298903
-0.0248437
-0.000306504
-0.0245302
-0.00031347
-0.0242104
-0.00031979
-0.0238849
-0.000325462
-0.0235545
-0.000330464
-0.0232198
-0.000334712
-0.0228818
-0.000337969
-0.022542
-0.000339771
-0.0222025
-0.000339522
-0.0218656
-0.000336853
-0.0215336
-0.000332078
-0.0212072
-0.000326363
-0.0208859
-0.000321339
-0.0205675
-0.00031832
-0.0202499
-0.000317655
-0.0199312
-0.00031871
-0.0196108
-0.000320419
-0.0192888
-0.000321955
-0.0189658
-0.000323033
-0.018642
-0.000323779
-0.0183176
-0.000324429
-0.0179924
-0.000325135
-0.0176665
-0.000325954
-0.0173396
-0.000326887
-0.0170117
-0.000327912
-0.0166827
-0.000328998
-0.0163526
-0.000330107
-0.0160214
-0.00033118
-0.0156892
-0.000332151
-0.0153563
-0.000332964
-0.0150227
-0.000333573
-0.0146887
-0.000333958
-0.0143546
-0.000334119
-0.0140205
-0.000334074
-0.0136867
-0.00033385
-0.0133532
-0.000333479
-0.0130202
-0.000332985
-0.0126879
-0.000332377
-0.0123562
-0.000331673
-0.0120253
-0.000330899
-0.0116952
-0.00033007
-0.011366
-0.000329206
-0.0110377
-0.000328333
-0.0107102
-0.000327478
-0.0103836
-0.000326643
-0.0100577
-0.000325831
-0.00973267
-0.000325054
-0.00940832
-0.000324353
-0.00908456
-0.000323761
-0.00876126
-0.0003233
-0.00843832
-0.000322938
-0.00811563
-0.000322691
-0.00779304
-0.000322586
-0.00747041
-0.000322629
-0.00714758
-0.000322833
-0.00682438
-0.000323197
-0.00650061
-0.000323771
-0.006176
-0.000324607
-0.00585025
-0.000325749
-0.00552299
-0.000327261
-0.00519379
-0.000329203
-0.00486225
-0.000331535
-0.00452814
-0.000334114
-0.00419126
-0.00033688
-0.00385142
-0.000339838
-0.00350805
-0.00034337
-0.00316001
-0.000348042
-0.00280569
-0.000354319
-0.00244248
-0.00036321
-0.00206369
-0.000378788
-0.00165367
-0.000410023
-0.00118855
-0.000465122
-0.000665546
-0.000523002
-0.00019613
-0.000469415
-0.00019613
1.26006e-05
-0.000391377
5.44892e-05
-0.000521702
6.72184e-05
-0.000498636
7.99476e-05
-0.000486077
9.32024e-05
-0.000482626
0.000105657
-0.00047813
0.000116094
-0.000473288
0.00012466
-0.000468412
0.000131962
-0.000463795
0.00013846
-0.000459534
0.000145102
-0.000455995
0.000152895
-0.000453408
0.000162829
-0.00045199
0.000176386
-0.000452016
0.000193932
-0.000452893
0.000215918
-0.000454615
0.000242874
-0.000457066
0.000274678
-0.000459863
0.000312215
-0.000463285
0.000354246
-0.00046609
0.000400639
-0.000468787
0.000450891
-0.000471068
0.000504515
-0.000472759
0.000560543
-0.000473471
0.000618269
-0.000473221
0.000676744
-0.000471918
0.000736286
-0.000470434
0.000797692
-0.000469539
0.000864079
-0.0004714
0.000939575
-0.000477498
0.00102966
-0.000489094
0.0011377
-0.000504901
0.00126421
-0.000521893
0.00140637
-0.000536526
0.00155776
-0.000546268
0.00170848
-0.000547185
0.00184628
-0.000536124
0.00195702
-0.000509231
0.0020328
-0.000473321
0.00207312
-0.000434541
0.00209015
-0.000403253
0.00210238
-0.000390015
0.0021336
-0.000400554
0.00220751
-0.000436707
0.00234237
-0.000494109
0.00254741
-0.000561518
0.0028209
-0.000631852
0.00314926
-0.000690844
0.00352135
-0.000739929
0.00392788
-0.000779651
0.00436201
-0.000811245
0.00481956
-0.000836599
0.00529768
-0.000856645
0.00579399
-0.000871814
0.00630588
-0.000882318
0.00682985
-0.000888431
0.00735861
-0.000887375
0.00788907
-0.000884029
0.0084189
-0.000881157
0.00894453
-0.0008818
0.00946338
-0.000889483
0.00997342
-0.000906736
0.0104728
-0.000933806
0.010961
-0.000967752
0.0114393
-0.00100394
0.0119112
-0.00103766
0.0123796
-0.00106163
0.0128478
-0.00106975
0.0133196
-0.00106192
0.0137983
-0.0010411
0.0142854
-0.00101258
0.0147804
-0.00098299
0.0152825
-0.000958044
0.0157902
-0.000940293
0.0163029
-0.000929727
0.0168206
-0.000924911
0.0173441
-0.000924259
0.017874
-0.00092662
0.0184106
-0.000931382
0.0189538
-0.000938248
0.0195035
-0.000946951
0.0200593
-0.000957142
0.0206209
-0.000968424
0.0211881
-0.000980415
0.0217608
-0.000992786
0.0223386
-0.00100526
0.0229212
-0.00101757
0.0235084
-0.00102949
0.0240996
-0.00104082
0.0246947
-0.00105148
0.0252936
-0.0010615
0.0258965
-0.00107106
0.0265039
-0.00108042
0.0271162
-0.00108976
0.0277335
-0.00109901
0.0283553
-0.00110778
0.0289802
-0.00111527
0.0296061
-0.00112041
0.0302305
-0.00112206
0.0308509
-0.00111942
0.0314659
-0.00111245
0.0320758
-0.00110221
0.0326829
-0.00109095
0.0332911
-0.00108179
0.0339056
-0.00107811
0.0345313
-0.00108272
0.0351717
-0.00109691
0.0358277
-0.00111941
0.0364971
-0.00114562
0.0371737
-0.00116721
0.037848
-0.00117289
0.0385073
-0.00115055
0.0391363
-0.00109082
0.0397185
-0.0009909
0.040238
-0.000857111
0.040682
-0.000704649
0.0410445
-0.000554303
0.0413288
-0.00042677
0.0415474
-0.000336307
0.0417202
-0.000288283
0.0418696
-0.000279595
0.0420167
-0.000301359
0.0421764
-0.000342423
0.0423562
-0.000392386
0.0425576
-0.000443395
0.0427777
-0.000490741
0.043012
-0.00053231
0.0432558
-0.000567706
0.0435051
-0.000597452
0.0437571
-0.000622403
0.0440097
-0.000643415
0.044262
-0.000661189
0.044513
-0.00067625
0.0447626
-0.000688978
0.0450104
-0.000699657
0.0452565
-0.000708526
0.0455007
-0.000715812
0.0457432
-0.000721748
0.045984
-0.000726572
0.0462235
-0.000730522
0.0464619
-0.000733823
0.0466995
-0.000736676
0.0469367
-0.000739255
0.0471738
-0.000741711
0.0474112
-0.000744176
0.0476494
-0.000746778
0.0478888
-0.000749641
0.0481299
-0.000752891
0.0483732
-0.000756642
0.0486194
-0.000760978
0.0488689
-0.00076593
0.0491223
-0.000771455
0.0493797
-0.000777429
0.0496412
-0.00078366
0.0499065
-0.000789939
0.0501754
-0.0007961
0.0504476
-0.000802105
0.0507232
-0.000808125
0.0510026
-0.000814581
0.0512874
-0.000822147
0.0515798
-0.000831666
0.051883
-0.000844019
0.0522005
-0.000859944
0.0525363
-0.000879868
0.0528939
-0.000903794
0.0532763
-0.000931286
0.0536852
-0.00096154
0.0541215
-0.000993545
0.054585
-0.00102627
0.0550748
-0.00105884
0.0555896
-0.00109066
0.0561278
-0.00112151
0.0566883
-0.0011515
0.0572701
-0.00118108
0.0578727
-0.00121087
0.0584958
-0.00124161
0.0591397
-0.00127401
0.0598053
-0.00130862
0.0604939
-0.00134574
0.061208
-0.00138536
0.0619512
-0.00142701
0.0627293
-0.00146928
0.0635512
-0.00150855
0.0644308
-0.00153683
0.0653909
-0.00154006
0.0664641
-0.00150104
0.0676784
-0.00141109
0.0690014
-0.00127828
0.0703372
-0.00113074
0.0716101
-0.00101176
0.072821
-0.000929176
0.0739861
-0.000865419
0.0751066
-0.00080494
0.0761691
-0.000742059
0.0771556
-0.000676115
0.0780498
-0.000611559
0.0788375
-0.000548995
0.0795067
-0.000487712
0.0800492
-0.000426526
0.0804657
-0.00036469
0.0807706
-0.000302278
0.0809718
-0.000241379
0.0810793
-0.000182266
0.0811007
-0.000133388
0.0810525
-0.000102104
0.0809584
-9.3868e-05
0.0808469
-0.000111793
0.0807485
-0.000155813
0.0806907
-0.000222315
0.0806944
-0.000304515
0.0807709
-0.00039378
0.0809221
-0.000481498
0.0811421
-0.000560743
0.0814205
-0.000627196
0.0817452
-0.000679192
0.0821044
-0.000717147
0.0824883
-0.000742721
0.0828894
-0.000758052
0.0833022
-0.000765207
0.0837232
-0.000765905
0.0841499
-0.000761436
0.084581
-0.00075271
0.0850158
-0.000740348
0.085454
-0.000724764
0.0858955
-0.000706246
0.0863407
-0.000684999
0.0867904
-0.00066119
0.0872457
-0.000634994
0.0877088
-0.00060666
0.088184
-0.00057664
0.0886785
-0.000545934
0.089194
-0.000515076
0.0897217
-0.000481037
0.0902399
-0.000446118
0.0907381
-0.000411176
0.0912122
-0.00037648
0.09166
-0.000342298
0.0920796
-0.000309238
0.0924702
-0.000278211
0.092833
-0.000250293
0.0931711
-0.000226577
0.0934894
-0.000207966
0.0937937
-0.000194908
0.0940887
-0.00018711
0.0943774
-0.00018339
0.0946599
-0.0001821
0.0949341
-0.000181159
0.0951959
-0.000178487
0.0954413
-0.000172559
0.0956683
-0.000162746
0.095878
-0.000149334
0.0960737
-0.000133521
0.0962597
-0.000115579
0.0964397
-9.53003e-05
0.0966144
-7.18692e-05
0.0967807
-4.36227e-05
0.0969314
-7.9684e-06
0.097062
3.00489e-05
0.0971623
7.73225e-05
0.0972259
0.000129943
0.0972486
0.000186122
0.0972292
0.000243817
0.097168
0.000301437
0.0970669
0.000358068
0.0969277
0.000413444
0.096752
0.000467765
0.0965412
0.000521464
0.0962957
0.000575003
0.0960159
0.000628754
0.0957016
0.000682964
0.0953527
0.000737763
0.094969
0.0007932
0.0945501
0.000849276
0.0940957
0.000905962
0.0936057
0.000963213
0.0930799
0.00102097
0.092518
0.00107917
0.09192
0.00113775
0.0912858
0.00119661
0.0906154
0.00125567
0.0899089
0.00131486
0.0891664
0.00137407
0.0883882
0.00143321
0.0875745
0.00149219
0.0867256
0.00155092
0.0858419
0.0016093
0.0849238
0.00166724
0.083972
0.00172465
0.0829869
0.00178143
0.0819692
0.0018375
0.0809196
0.00189277
0.0798387
0.00194714
0.0787275
0.00200053
0.0775867
0.00205285
0.0764173
0.00210402
0.0752201
0.00215395
0.0739961
0.00220256
0.0727464
0.00224978
0.0714719
0.00229553
0.0701739
0.00233973
0.0688533
0.00238232
0.0675114
0.00242322
0.0661493
0.00246238
0.0647682
0.00249973
0.0633693
0.00253522
0.061954
0.00256881
0.0605233
0.00260044
0.0590787
0.00263008
0.0576214
0.00265769
0.0561526
0.00268324
0.0546737
0.00270671
0.053186
0.00272809
0.0516906
0.00274735
0.050189
0.00276449
0.0486823
0.00277951
0.0471719
0.0027924
0.0456588
0.00280318
0.0441444
0.00281186
0.0426299
0.00281845
0.0411163
0.00282299
0.039605
0.00282548
0.0380969
0.00282596
0.0365932
0.00282445
0.0350949
0.00282102
0.0336031
0.00281564
0.0321188
0.00280838
0.030643
0.00279928
0.0291767
0.00278833
0.0277207
0.00277555
0.0262761
0.00276101
0.0248437
0.00274463
0.0234243
0.00272667
0.0220189
0.0027069
0.0206281
0.00268565
0.0192528
0.00266275
0.0178938
0.00263854
0.0165518
0.00261294
0.0152276
0.00258596
0.0139221
0.00255766
0.0126363
0.00252765
0.0113712
0.00249605
0.0101273
0.00246281
0.00890639
0.00242653
0.00770923
0.00238836
0.00653647
0.00234742
0.0053884
0.00230393
0.0042657
0.00225885
0.00316691
0.00221228
0.00209108
0.00216562
0.00103773
0.00212017
4.5564e-06
0.002076
-0.00100944
0.00203393
-0.00200513
0.0019939
-0.00298302
0.00195551
-0.00394319
0.00191818
-0.00488544
0.00188125
-0.00580934
0.00184422
-0.00671445
0.00180675
-0.00760036
0.00176867
-0.00846681
0.00173004
-0.00931369
0.00169108
-0.0101409
0.00165199
-0.0109486
0.00161297
-0.0117365
0.0015741
-0.0125046
0.00153533
-0.0132526
0.00149648
-0.0139802
0.00145738
-0.0146869
0.00141785
-0.0153725
0.00137783
-0.0160368
0.00133733
-0.0166794
0.00129644
-0.0173003
0.00125528
-0.0178995
0.00121397
-0.0184769
0.00117257
-0.0190326
0.00113113
-0.0195666
0.00108968
-0.020079
0.00104823
-0.0205698
0.00100682
-0.0210391
0.000965464
-0.021487
0.0009242
-0.0219137
0.000883064
-0.0223195
0.000842086
-0.0227043
0.000801277
-0.0230683
0.000760626
-0.0234116
0.000720091
-0.023734
0.000679611
-0.0240355
0.000639131
-0.0243159
0.000598633
-0.0245753
0.000558138
-0.0248136
0.000517679
-0.0250311
0.000477293
-0.0252278
0.000437018
-0.0254039
0.000396892
-0.0255597
0.000356958
-0.0256953
0.000317255
-0.025811
0.000277816
-0.0259071
0.000238671
-0.0259838
0.000199841
-0.0260413
0.000161356
-0.0260799
0.000123297
-0.0261002
8.5769e-05
-0.0261035
4.88608e-05
-0.0260938
1.34802e-05
-0.0260735
-2.24194e-05
-0.026041
-5.73528e-05
-0.0259946
-9.16583e-05
-0.0259333
-0.000125503
-0.0258565
-0.000158772
-0.0257643
-0.000191356
-0.0256567
-0.000223205
-0.025534
-0.000254282
-0.0253966
-0.000284554
-0.0252447
-0.000313979
-0.0250787
-0.000342529
-0.0248989
-0.000370165
-0.0247059
-0.000396861
-0.0244999
-0.00042259
-0.0242815
-0.000447336
-0.0240511
-0.000471067
-0.0238092
-0.000493759
-0.0235563
-0.000515392
-0.0232928
-0.000535948
-0.0230192
-0.000555408
-0.0227362
-0.000573742
-0.0224441
-0.000590933
-0.0221437
-0.000606958
-0.0218353
-0.000621791
-0.0215197
-0.000635398
-0.0211975
-0.000647737
-0.0208692
-0.000658722
-0.0205357
-0.000668194
-0.0201978
-0.00067592
-0.0198559
-0.000681641
-0.0195101
-0.000685279
-0.0191598
-0.00068723
-0.0188034
-0.000688475
-0.0184395
-0.000690281
-0.0180672
-0.000693557
-0.0176873
-0.000698286
-0.0173014
-0.000703555
-0.0169119
-0.000708155
-0.0165211
-0.00071126
-0.0161303
-0.000712731
-0.0157404
-0.000712895
-0.015352
-0.000712178
-0.0149656
-0.000710852
-0.0145817
-0.000709018
-0.014201
-0.000706688
-0.013824
-0.000703873
-0.0134514
-0.000700579
-0.0130835
-0.000696808
-0.0127211
-0.000692578
-0.0123643
-0.000687923
-0.0120136
-0.000682874
-0.0116691
-0.000677454
-0.011331
-0.0006717
-0.0109993
-0.000665674
-0.0106739
-0.000659452
-0.0103549
-0.000653086
-0.0100422
-0.000646597
-0.00973565
-0.000640008
-0.00943527
-0.000633363
-0.00914096
-0.00062669
-0.00885263
-0.000620007
-0.00857018
-0.000613341
-0.00829353
-0.000606723
-0.00802255
-0.000600184
-0.00775712
-0.000593762
-0.00749713
-0.000587475
-0.00724242
-0.000581352
-0.00699282
-0.000575432
-0.0067481
-0.000569771
-0.00650805
-0.000564406
-0.00627241
-0.000559395
-0.00604092
-0.00055479
-0.0058132
-0.000550657
-0.00558889
-0.000547007
-0.00536756
-0.000543911
-0.00514878
-0.000541414
-0.00493206
-0.000539554
-0.00471689
-0.000538363
-0.0045028
-0.000537861
-0.00428929
-0.000538114
-0.00407589
-0.000539155
-0.00386207
-0.000541074
-0.00364727
-0.000544003
-0.00343076
-0.000548046
-0.00321165
-0.000553232
-0.00298898
-0.000559545
-0.00276238
-0.000566437
-0.00253321
-0.000572543
-0.00230568
-0.00057557
-0.002086
-0.000574002
-0.00187623
-0.000572979
-0.00166147
-0.000593549
-0.00139809
-0.0006734
-0.00102687
-0.000836346
-0.000540541
-0.00100933
-7.43781e-05
-0.000935579
-0.000270508
-0.000121007
-0.00027037
-0.000209606
-0.000433103
-0.000343005
-0.000365237
-0.000484166
-0.000344916
-0.000622457
-0.000344335
-0.000755608
-0.000344978
-0.000881092
-0.000347804
-0.000996724
-0.00035278
-0.00110022
-0.0003603
-0.00118932
-0.000370429
-0.00126226
-0.000383055
-0.00131769
-0.00039798
-0.00135476
-0.000414925
-0.00137333
-0.000433445
-0.00137339
-0.000452827
-0.00135563
-0.000472382
-0.00132098
-0.000491711
-0.00127074
-0.000510102
-0.00120657
-0.000527456
-0.00112936
-0.000543305
-0.00104065
-0.000557493
-0.000941503
-0.000570214
-0.000832774
-0.000581487
-0.00071484
-0.000591406
-0.000588031
-0.00060003
-0.000451329
-0.00060862
-0.000304138
-0.000617625
-0.000145548
-0.000628129
2.41615e-05
-0.00064111
0.000203172
-0.000656508
0.000387618
-0.00067354
0.000572806
-0.000690088
0.000754171
-0.000703258
0.000928758
-0.000711114
0.00109332
-0.000710826
0.00124979
-0.000703657
0.00140544
-0.000691774
0.00157636
-0.000680154
0.00177485
-0.000671811
0.00201598
-0.000675666
0.00231411
-0.000701391
0.00267442
-0.000750321
0.00309704
-0.000823168
0.00357203
-0.000911702
0.0040825
-0.00100458
0.00460851
-0.00108753
0.00513444
-0.00115778
0.00565406
-0.00121047
0.00616082
-0.00124668
0.00665153
-0.00127037
0.00712563
-0.00128535
0.00758405
-0.00129501
0.00802785
-0.00130044
0.00845767
-0.00130163
0.00887385
-0.00129851
0.00927724
-0.00129182
0.00967264
-0.00128278
0.0100625
-0.00127387
0.0104495
-0.00126817
0.0108365
-0.00126882
0.0112253
-0.00127827
0.0116161
-0.00129748
0.012007
-0.00132473
0.0123968
-0.00135756
0.0127842
-0.00139132
0.0131694
-0.00142293
0.0135559
-0.00144808
0.0139494
-0.00146323
0.0143553
-0.00146788
0.0147781
-0.00146392
0.0152201
-0.00145455
0.0156806
-0.00144345
0.0161566
-0.00143407
0.0166448
-0.0014285
0.0171422
-0.00142709
0.0176465
-0.0014293
0.0181565
-0.00143425
0.0186712
-0.00144131
0.01919
-0.00145014
0.0197123
-0.00146052
0.0202375
-0.00147221
0.0207653
-0.00148495
0.0212953
-0.00149845
0.0218274
-0.00151247
0.0223614
-0.00152678
0.0228973
-0.00154118
0.0234353
-0.00155553
0.0239755
-0.00156969
0.0245182
-0.00158356
0.0250638
-0.00159704
0.0256123
-0.00161005
0.0261638
-0.00162253
0.0267177
-0.00163435
0.0272733
-0.00164534
0.0278295
-0.00165521
0.0283853
-0.00166359
0.0289401
-0.00167003
0.0294938
-0.00167411
0.0300471
-0.00167542
0.0306015
-0.00167381
0.0311585
-0.00166945
0.0317194
-0.00166306
0.0322843
-0.00165583
0.0328518
-0.00164933
0.0334188
-0.00164512
0.0339804
-0.00164434
0.0345308
-0.00164722
0.0350639
-0.00165259
0.0355757
-0.00165737
0.0360647
-0.00165622
0.0365337
-0.00164184
0.0369893
-0.00160618
0.0374412
-0.00154276
0.0378997
-0.00144937
0.0383729
-0.00133027
0.0388649
-0.00119666
0.039375
-0.00106443
0.0398981
-0.000949849
0.0404266
-0.000864814
0.0409524
-0.000814097
0.0414681
-0.000795268
0.0419677
-0.000800943
0.0424472
-0.000821947
0.0429048
-0.000849963
0.0433403
-0.000878945
0.043755
-0.000905431
0.0441507
-0.000928044
0.0445297
-0.000946708
0.0448942
-0.00096195
0.0452463
-0.000974422
0.0455875
-0.00098466
0.0459193
-0.000993027
0.0462428
-0.000999737
0.0465588
-0.00100492
0.0468678
-0.00100871
0.0471706
-0.00101126
0.0474675
-0.00101276
0.0477592
-0.00101345
0.0480463
-0.00101361
0.0483292
-0.00101348
0.0486087
-0.00101329
0.0488852
-0.00101323
0.0491594
-0.00101346
0.0494318
-0.00101409
0.0497029
-0.00101525
0.0499731
-0.00101703
0.050243
-0.00101952
0.0505129
-0.00102281
0.0507832
-0.00102693
0.0510541
-0.00103186
0.0513257
-0.00103748
0.0515978
-0.00104365
0.0518706
-0.00105015
0.0521437
-0.00105684
0.0524176
-0.00106375
0.0526926
-0.00107113
0.0529701
-0.00107959
0.053252
-0.00109006
0.0535411
-0.00110369
0.0538407
-0.00112171
0.0541541
-0.00114513
0.0544846
-0.0011745
0.0548344
-0.00120973
0.0552045
-0.00124998
0.0555945
-0.00129375
0.0560023
-0.00133913
0.0564248
-0.00138405
0.056858
-0.00142667
0.0572974
-0.00146565
0.0577388
-0.00150032
0.0581789
-0.00153073
0.0586149
-0.00155754
0.0590453
-0.00158187
0.0594693
-0.00160507
0.059887
-0.00162852
0.0602988
-0.00165344
0.0607055
-0.00168074
0.0611078
-0.00171092
0.0615061
-0.00174399
0.0619002
-0.00177946
0.0622894
-0.00181622
0.0626724
-0.00185231
0.0630482
-0.00188439
0.0634183
-0.0019069
0.0637899
-0.00191159
0.064178
-0.00188922
0.0646009
-0.00183394
0.0650697
-0.0017471
0.0655836
-0.00164461
0.0661263
-0.00155444
0.0666853
-0.00148822
0.067258
-0.0014381
0.0678461
-0.00139309
0.0684524
-0.00134829
0.0690798
-0.00130357
0.0697288
-0.0012605
0.0703971
-0.00121733
0.0710814
-0.001172
0.071777
-0.00112209
0.0724785
-0.00106619
0.0731813
-0.00100516
0.0738809
-0.000940938
0.0745737
-0.000875093
0.0752537
-0.000813382
0.0759158
-0.000764187
0.0765574
-0.000735462
0.0771782
-0.000732607
0.0777791
-0.000756681
0.0783607
-0.000803932
0.0789231
-0.000866902
0.0794658
-0.000936476
0.0799884
-0.00100407
0.0804908
-0.00106323
0.080974
-0.00111033
0.0814391
-0.00114435
0.0818881
-0.00116612
0.0823228
-0.00117743
0.0827451
-0.00118031
0.0831564
-0.00117659
0.0835582
-0.00116766
0.0839513
-0.00115454
0.0843365
-0.00113793
0.0847145
-0.0011183
0.0850857
-0.00109599
0.0854507
-0.00107125
0.08581
-0.00104429
0.0861641
-0.00101528
0.0865135
-0.000984412
0.0868588
-0.000951948
0.0872005
-0.000918395
0.0875393
-0.000884691
0.0878753
-0.000851032
0.0882098
-0.000815561
0.088542
-0.000778307
0.0888713
-0.000740493
0.089198
-0.000703176
0.0895227
-0.000667032
0.0898461
-0.000632653
0.0901687
-0.000600757
0.0904906
-0.000572162
0.0908116
-0.000547589
0.091131
-0.000527442
0.0914477
-0.000511612
0.09176
-0.000499353
0.0920659
-0.000489255
0.0923631
-0.000479397
0.0926496
-0.000467582
0.0929229
-0.000451852
0.0931813
-0.000430929
0.093423
-0.000404441
0.0936465
-0.000372798
0.0938499
-0.00033694
0.0940318
-0.000297477
0.094191
-0.000254474
0.0943266
-0.000207556
0.0944383
-0.000155325
0.0945266
-9.61768e-05
0.0945876
-3.10105e-05
0.0946205
4.44743e-05
0.0946249
0.000125528
0.0945994
0.000211622
0.0945426
0.000300608
0.0944534
0.000390606
0.0943312
0.000480258
0.0941758
0.000568883
0.0939872
0.000656393
0.0937655
0.000743081
0.0935111
0.0008294
0.0932241
0.000915799
0.0929044
0.00100263
0.0925521
0.00109014
0.0921668
0.00117844
0.0917485
0.00126759
0.0912969
0.00135758
0.0908117
0.00144837
0.0902928
0.00153988
0.08974
0.00163202
0.0891531
0.00172466
0.088532
0.00181768
0.0878767
0.00191094
0.0871873
0.00200428
0.0864638
0.00209756
0.0857064
0.00219061
0.0849153