/*--------------------------------*- C++ -*----------------------------------*\
| =========                 |                                                 |
| \\      /  F ield         | OpenFOAM: The Open Source CFD Toolbox           |
|  \\    /   O peration     | Version:  v2006                                 |
|   \\  /    A nd           | Website:  www.openfoam.com                      |
|    \\/     M anipulation  |                                                 |
\*---------------------------------------------------------------------------*/
FoamFile
{
    version     2.0;
    format      ascii;
    class       volVectorField;
    location    "1";
    object      U;
}
// * * * * * * * * * * * * * * * * * * * * * * * * * * * * * * * * * * * * * //

dimensions      [0 1 -1 0 0 0 0];


internalField   nonuniform List<vector> 
50000
(
(0.0166872 0.00408622 0)
(-0.0280032 0.00326326 0)
(0.00313358 0.0038576 0)
(-0.0354969 0.00355131 0)
(-0.0132556 0.00378656 0)
(-0.0417555 0.00367145 0)
(-0.0298966 0.00374999 0)
(-0.0486174 0.00373992 0)
(-0.0452874 0.00376725 0)
(-0.0570791 0.00377521 0)
(-0.0589701 0.00379849 0)
(-0.0670334 0.00380639 0)
(-0.0714215 0.00382595 0)
(-0.0777727 0.00383139 0)
(-0.083195 0.00384476 0)
(-0.088927 0.003849 0)
(-0.0945309 0.00385192 0)
(-0.100131 0.00384976 0)
(-0.105688 0.00384343 0)
(-0.111207 0.00383281 0)
(-0.116681 0.00381797 0)
(-0.122107 0.00379938 0)
(-0.127477 0.0037783 0)
(-0.132782 0.00375361 0)
(-0.13802 0.0037238 0)
(-0.143186 0.00368954 0)
(-0.14827 0.00365061 0)
(-0.153267 0.00360522 0)
(-0.158173 0.00355297 0)
(-0.162979 0.00349351 0)
(-0.167679 0.00342659 0)
(-0.172266 0.00335217 0)
(-0.176735 0.00326977 0)
(-0.181079 0.00317932 0)
(-0.185291 0.00308106 0)
(-0.189365 0.00297538 0)
(-0.193296 0.00286305 0)
(-0.197079 0.00274513 0)
(-0.20071 0.00262294 0)
(-0.204186 0.00249803 0)
(-0.207504 0.00237195 0)
(-0.210664 0.00224566 0)
(-0.213664 0.00211954 0)
(-0.216504 0.00199409 0)
(-0.219184 0.0018702 0)
(-0.221705 0.00174842 0)
(-0.224068 0.00162892 0)
(-0.226274 0.00151184 0)
(-0.228324 0.00139718 0)
(-0.23022 0.0012848 0)
(-0.231964 0.00117445 0)
(-0.233556 0.0010662 0)
(-0.234999 0.000960118 0)
(-0.236294 0.000855876 0)
(-0.237443 0.000753335 0)
(-0.238448 0.000652552 0)
(-0.23931 0.000553438 0)
(-0.240032 0.000456013 0)
(-0.240615 0.000360271 0)
(-0.241061 0.000266216 0)
(-0.241372 0.000173873 0)
(-0.241551 8.3061e-05 0)
(-0.241599 -5.51744e-06 0)
(-0.241521 -9.18495e-05 0)
(-0.241319 -0.000176345 0)
(-0.240996 -0.000259233 0)
(-0.240554 -0.000340547 0)
(-0.239995 -0.000420294 0)
(-0.239321 -0.000498509 0)
(-0.238535 -0.000575143 0)
(-0.23764 -0.000650017 0)
(-0.236637 -0.000723195 0)
(-0.235528 -0.00079486 0)
(-0.234319 -0.000864539 0)
(-0.233009 -0.000931884 0)
(-0.2316 -0.000997262 0)
(-0.230098 -0.00105964 0)
(-0.228505 -0.00111671 0)
(-0.226826 -0.00116631 0)
(-0.225067 -0.00120591 0)
(-0.223233 -0.00123441 0)
(-0.221331 -0.00125246 0)
(-0.219367 -0.00126207 0)
(-0.217346 -0.00126546 0)
(-0.215271 -0.00126426 0)
(-0.213147 -0.00125921 0)
(-0.210978 -0.00125071 0)
(-0.208767 -0.00123807 0)
(-0.206515 -0.00122241 0)
(-0.204228 -0.00120524 0)
(-0.20191 -0.00118576 0)
(-0.199562 -0.00116477 0)
(-0.197188 -0.00114245 0)
(-0.194789 -0.00111869 0)
(-0.19237 -0.00109379 0)
(-0.189933 -0.00106899 0)
(-0.187479 -0.00104424 0)
(-0.185011 -0.00101856 0)
(-0.182531 -0.000994065 0)
(-0.180041 -0.000970469 0)
(-0.177541 -0.000948566 0)
(-0.175031 -0.000929114 0)
(-0.172511 -0.000913809 0)
(-0.169984 -0.000902354 0)
(-0.167449 -0.000896167 0)
(-0.164907 -0.000894759 0)
(-0.162346 -0.000898979 0)
(-0.159771 -0.000912107 0)
(-0.157185 -0.000933533 0)
(-0.154582 -0.000961603 0)
(-0.151951 -0.000997626 0)
(-0.149294 -0.00104505 0)
(-0.146611 -0.00110061 0)
(-0.143892 -0.00116591 0)
(-0.141136 -0.00123865 0)
(-0.138339 -0.00131944 0)
(-0.135495 -0.00140678 0)
(-0.132605 -0.00150115 0)
(-0.129664 -0.00160095 0)
(-0.126659 -0.00170135 0)
(-0.123591 -0.00181112 0)
(-0.120467 -0.00192362 0)
(-0.117272 -0.00204052 0)
(-0.114005 -0.00216153 0)
(-0.110666 -0.00228677 0)
(-0.10725 -0.002415 0)
(-0.103756 -0.0025485 0)
(-0.100186 -0.00268604 0)
(-0.0965341 -0.00282173 0)
(-0.0927956 -0.00295974 0)
(-0.0889734 -0.00309967 0)
(-0.0850685 -0.00323816 0)
(-0.0810833 -0.0033757 0)
(-0.077019 -0.00351039 0)
(-0.0728033 -0.00365782 0)
(-0.0686127 -0.00382432 0)
(-0.0646639 -0.00377422 0)
(-0.0588142 -0.0043872 0)
(-0.057746 -0.00366971 0)
(-0.0470691 -0.00488612 0)
(-0.0520587 -0.00372174 0)
(-0.0337353 -0.00505584 0)
(-0.047232 -0.00397666 0)
(-0.0194167 -0.00521908 0)
(-0.0424072 -0.00407404 0)
(-0.00519404 -0.00580791 0)
(-0.0361725 -0.00372223 0)
(0.00751013 -0.00660942 0)
(-0.027361 -0.00316451 0)
(0.0174371 -0.00542646 0)
(0.0188318 0.0132372 0)
(-0.0316166 0.0117606 0)
(0.00214199 0.0125994 0)
(-0.0402943 0.0123808 0)
(-0.0172522 0.0125105 0)
(-0.0479195 0.0124122 0)
(-0.0363553 0.0124117 0)
(-0.0563363 0.0123798 0)
(-0.053701 0.0123368 0)
(-0.0663561 0.0122934 0)
(-0.0689544 0.0122446 0)
(-0.0776974 0.0121803 0)
(-0.0826639 0.0121185 0)
(-0.089554 0.0120369 0)
(-0.095407 0.0119574 0)
(-0.101516 0.0118623 0)
(-0.107407 0.0117603 0)
(-0.113219 0.0116476 0)
(-0.118907 0.0115251 0)
(-0.124478 0.0113925 0)
(-0.129925 0.0112493 0)
(-0.135247 0.0110957 0)
(-0.140441 0.0109332 0)
(-0.145505 0.0107613 0)
(-0.150437 0.0105786 0)
(-0.155237 0.0103866 0)
(-0.159901 0.0101853 0)
(-0.164429 0.00997322 0)
(-0.168823 0.00975088 0)
(-0.173081 0.00951911 0)
(-0.177203 0.00927814 0)
(-0.181191 0.00902806 0)
(-0.185046 0.00876893 0)
(-0.18877 0.00850122 0)
(-0.192364 0.0082255 0)
(-0.195831 0.00794241 0)
(-0.199172 0.0076527 0)
(-0.202389 0.00735731 0)
(-0.205484 0.00705719 0)
(-0.208456 0.00675325 0)
(-0.211306 0.00644653 0)
(-0.214035 0.006138 0)
(-0.216641 0.00582823 0)
(-0.219122 0.00551761 0)
(-0.221479 0.00520678 0)
(-0.22371 0.0048964 0)
(-0.225814 0.00458699 0)
(-0.22779 0.00427902 0)
(-0.229637 0.00397268 0)
(-0.231353 0.00366802 0)
(-0.232939 0.00336543 0)
(-0.234392 0.0030653 0)
(-0.235715 0.00276774 0)
(-0.236906 0.00247269 0)
(-0.237966 0.00218043 0)
(-0.238894 0.00189142 0)
(-0.239692 0.0016056 0)
(-0.240361 0.00132316 0)
(-0.240901 0.00104432 0)
(-0.241313 0.000769064 0)
(-0.241599 0.000497639 0)
(-0.241761 0.000230872 0)
(-0.241798 -3.13844e-05 0)
(-0.24171 -0.000289105 0)
(-0.2415 -0.000542258 0)
(-0.241169 -0.0007908 0)
(-0.240719 -0.00103478 0)
(-0.240152 -0.00127412 0)
(-0.239471 -0.00150878 0)
(-0.238677 -0.00173869 0)
(-0.237774 -0.00196355 0)
(-0.236762 -0.00218337 0)
(-0.235645 -0.00239844 0)
(-0.234426 -0.00260826 0)
(-0.233107 -0.00281236 0)
(-0.231689 -0.00301132 0)
(-0.230175 -0.003205 0)
(-0.228566 -0.00339257 0)
(-0.226863 -0.0035739 0)
(-0.225065 -0.00374835 0)
(-0.223171 -0.00391561 0)
(-0.221179 -0.00407584 0)
(-0.219089 -0.00422939 0)
(-0.2169 -0.00437652 0)
(-0.214613 -0.00451778 0)
(-0.212231 -0.00465316 0)
(-0.209755 -0.00478252 0)
(-0.207186 -0.00490492 0)
(-0.204526 -0.00502099 0)
(-0.201776 -0.0051317 0)
(-0.198939 -0.00523597 0)
(-0.196017 -0.00533443 0)
(-0.193011 -0.00542689 0)
(-0.189924 -0.00551325 0)
(-0.18676 -0.00559402 0)
(-0.18352 -0.00566892 0)
(-0.180203 -0.00573811 0)
(-0.176814 -0.0058025 0)
(-0.173357 -0.00586167 0)
(-0.169834 -0.00591581 0)
(-0.166248 -0.00596498 0)
(-0.162603 -0.00600954 0)
(-0.158903 -0.00605148 0)
(-0.15515 -0.00608986 0)
(-0.151353 -0.00612607 0)
(-0.147515 -0.0061591 0)
(-0.143637 -0.00618794 0)
(-0.139728 -0.00621865 0)
(-0.135795 -0.00624849 0)
(-0.131842 -0.00627763 0)
(-0.127876 -0.00630458 0)
(-0.123901 -0.00633538 0)
(-0.119928 -0.00636675 0)
(-0.115958 -0.00640174 0)
(-0.111999 -0.00643778 0)
(-0.108057 -0.00647789 0)
(-0.104137 -0.00652122 0)
(-0.100249 -0.0065702 0)
(-0.0963887 -0.00662415 0)
(-0.092562 -0.00667816 0)
(-0.0887775 -0.0067418 0)
(-0.085038 -0.00680996 0)
(-0.081346 -0.00687922 0)
(-0.0777044 -0.00695308 0)
(-0.0741139 -0.00702828 0)
(-0.0705757 -0.007106 0)
(-0.0670975 -0.00718784 0)
(-0.0636699 -0.0072711 0)
(-0.0602976 -0.00735622 0)
(-0.0569879 -0.00744587 0)
(-0.0537337 -0.00753468 0)
(-0.0505373 -0.00762629 0)
(-0.0474007 -0.00771964 0)
(-0.0443452 -0.00780632 0)
(-0.0413749 -0.00790798 0)
(-0.0379631 -0.00805379 0)
(-0.0365829 -0.00782663 0)
(-0.0303539 -0.00865115 0)
(-0.0334099 -0.00746547 0)
(-0.0216573 -0.00923606 0)
(-0.0313975 -0.00729535 0)
(-0.0124983 -0.00949601 0)
(-0.0298385 -0.00740197 0)
(-0.00343645 -0.00962209 0)
(-0.0283655 -0.00756683 0)
(0.00528139 -0.00988164 0)
(-0.0270108 -0.00759112 0)
(0.0136347 -0.0101847 0)
(-0.0255414 -0.00750699 0)
(0.0214631 -0.00932165 0)
(0.0179815 0.0228353 0)
(-0.030287 0.0210797 0)
(0.0023701 0.0218321 0)
(-0.0385946 0.0219576 0)
(-0.015995 0.0217644 0)
(-0.0457668 0.0217737 0)
(-0.0342427 0.021597 0)
(-0.0536602 0.0215433 0)
(-0.050877 0.0213726 0)
(-0.0631436 0.0212508 0)
(-0.06553 0.0210757 0)
(-0.0739818 0.0209029 0)
(-0.0787375 0.0207083 0)
(-0.0854021 0.0204982 0)
(-0.0910692 0.0202757 0)
(-0.097011 0.0200362 0)
(-0.102761 0.0197836 0)
(-0.108459 0.0195166 0)
(-0.114062 0.0192358 0)
(-0.119577 0.0189409 0)
(-0.124998 0.0186318 0)
(-0.130325 0.0183089 0)
(-0.135551 0.0179722 0)
(-0.140677 0.0176222 0)
(-0.145699 0.0172596 0)
(-0.150615 0.0168852 0)
(-0.155422 0.016499 0)
(-0.160119 0.0161022 0)
(-0.164703 0.0156963 0)
(-0.169171 0.0152817 0)
(-0.173522 0.0148589 0)
(-0.177754 0.0144285 0)
(-0.181865 0.0139912 0)
(-0.185852 0.0135482 0)
(-0.189714 0.0131003 0)
(-0.193449 0.0126477 0)
(-0.197055 0.0121909 0)
(-0.200529 0.0117301 0)
(-0.203871 0.0112656 0)
(-0.207079 0.0107975 0)
(-0.21015 0.0103258 0)
(-0.213083 0.00985072 0)
(-0.215878 0.00937285 0)
(-0.218532 0.00889245 0)
(-0.221044 0.0084098 0)
(-0.223415 0.00792539 0)
(-0.225644 0.0074396 0)
(-0.22773 0.00695283 0)
(-0.229674 0.00646591 0)
(-0.231475 0.00597947 0)
(-0.233134 0.00549406 0)
(-0.234651 0.00501025 0)
(-0.236027 0.00452826 0)
(-0.237264 0.00404912 0)
(-0.238361 0.00357343 0)
(-0.239319 0.00310118 0)
(-0.240141 0.00263291 0)
(-0.240827 0.00216927 0)
(-0.241379 0.00171076 0)
(-0.241799 0.00125763 0)
(-0.242087 0.000809974 0)
(-0.242246 0.000368861 0)
(-0.242277 -6.6065e-05 0)
(-0.242183 -0.000494539 0)
(-0.241965 -0.000916121 0)
(-0.241626 -0.00133039 0)
(-0.241168 -0.00173719 0)
(-0.240592 -0.0021363 0)
(-0.239902 -0.00252758 0)
(-0.2391 -0.00291086 0)
(-0.238187 -0.00328594 0)
(-0.237167 -0.00365272 0)
(-0.236041 -0.00401118 0)
(-0.234812 -0.00436115 0)
(-0.233484 -0.00470244 0)
(-0.232058 -0.00503509 0)
(-0.230536 -0.00535928 0)
(-0.228923 -0.00567549 0)
(-0.227221 -0.00598438 0)
(-0.225431 -0.0062865 0)
(-0.223557 -0.00658222 0)
(-0.221601 -0.00687138 0)
(-0.219565 -0.00715319 0)
(-0.217451 -0.00742706 0)
(-0.215263 -0.00769294 0)
(-0.213002 -0.00795068 0)
(-0.210671 -0.00819979 0)
(-0.208272 -0.00844081 0)
(-0.205808 -0.0086738 0)
(-0.203279 -0.00889881 0)
(-0.200689 -0.00911575 0)
(-0.19804 -0.0093248 0)
(-0.195332 -0.00952596 0)
(-0.192568 -0.00971979 0)
(-0.189751 -0.00990608 0)
(-0.18688 -0.010084 0)
(-0.183958 -0.0102541 0)
(-0.180987 -0.0104187 0)
(-0.177966 -0.0105753 0)
(-0.174897 -0.0107243 0)
(-0.171782 -0.0108658 0)
(-0.168622 -0.011001 0)
(-0.165417 -0.0111298 0)
(-0.162169 -0.0112494 0)
(-0.158879 -0.0113626 0)
(-0.155547 -0.011468 0)
(-0.152174 -0.0115654 0)
(-0.148761 -0.0116559 0)
(-0.145311 -0.0117384 0)
(-0.141824 -0.0118141 0)
(-0.138299 -0.0118808 0)
(-0.13474 -0.011942 0)
(-0.131151 -0.0119932 0)
(-0.127529 -0.0120376 0)
(-0.123877 -0.0120754 0)
(-0.120202 -0.012106 0)
(-0.116503 -0.0121302 0)
(-0.112787 -0.0121491 0)
(-0.109052 -0.012162 0)
(-0.1053 -0.0121693 0)
(-0.10154 -0.0121757 0)
(-0.0977699 -0.0121789 0)
(-0.0939972 -0.0121787 0)
(-0.0902283 -0.0121754 0)
(-0.0864658 -0.012167 0)
(-0.0827153 -0.0121581 0)
(-0.0789764 -0.0121505 0)
(-0.0752554 -0.0121337 0)
(-0.0715614 -0.0121205 0)
(-0.0678861 -0.012106 0)
(-0.0642373 -0.012089 0)
(-0.060625 -0.012077 0)
(-0.0570376 -0.0120595 0)
(-0.0535234 -0.0120426 0)
(-0.0500177 -0.0120329 0)
(-0.0461116 -0.0119844 0)
(-0.0441915 -0.0119764 0)
(-0.037491 -0.0120143 0)
(-0.0398891 -0.0118906 0)
(-0.0278351 -0.0120832 0)
(-0.03671 -0.0118392 0)
(-0.0176223 -0.0121111 0)
(-0.0340907 -0.0118505 0)
(-0.00736052 -0.0120175 0)
(-0.0315522 -0.0119106 0)
(0.00252654 -0.0117828 0)
(-0.0288127 -0.0119996 0)
(0.0117715 -0.0115329 0)
(-0.0255367 -0.0121743 0)
(0.0201442 -0.0118242 0)
(0.0176111 0.0320525 0)
(-0.0298446 0.0294782 0)
(0.00233024 0.0306155 0)
(-0.038084 0.0307459 0)
(-0.0157458 0.0304916 0)
(-0.0451761 0.0305063 0)
(-0.0337744 0.0302405 0)
(-0.0529861 0.0301808 0)
(-0.050257 0.0299228 0)
(-0.0624065 0.0297634 0)
(-0.0648125 0.029509 0)
(-0.0732081 0.029273 0)
(-0.0779746 0.0289958 0)
(-0.08463 0.0287045 0)
(-0.0903117 0.0283931 0)
(-0.0962757 0.02806 0)
(-0.102058 0.0277079 0)
(-0.107797 0.0273361 0)
(-0.113451 0.0269452 0)
(-0.119024 0.0265358 0)
(-0.124511 0.0261084 0)
(-0.129908 0.0256639 0)
(-0.13521 0.0252022 0)
(-0.140415 0.0247237 0)
(-0.145519 0.024229 0)
(-0.150519 0.0237188 0)
(-0.15541 0.0231931 0)
(-0.160189 0.0226528 0)
(-0.164853 0.0220985 0)
(-0.1694 0.0215304 0)
(-0.173826 0.0209492 0)
(-0.178129 0.0203557 0)
(-0.182305 0.0197502 0)
(-0.186352 0.0191333 0)
(-0.190268 0.0185057 0)
(-0.194051 0.0178683 0)
(-0.197699 0.0172218 0)
(-0.20121 0.016567 0)
(-0.204582 0.0159047 0)
(-0.207814 0.015236 0)
(-0.210905 0.0145615 0)
(-0.213855 0.013882 0)
(-0.216662 0.0131988 0)
(-0.219326 0.012513 0)
(-0.221845 0.0118251 0)
(-0.224221 0.0111358 0)
(-0.226453 0.0104459 0)
(-0.22854 0.00975606 0)
(-0.230484 0.00906719 0)
(-0.232284 0.00838026 0)
(-0.23394 0.00769556 0)
(-0.235454 0.00701347 0)
(-0.236826 0.00633515 0)
(-0.238057 0.00566128 0)
(-0.239148 0.00499241 0)
(-0.240101 0.00432923 0)
(-0.240915 0.00367245 0)
(-0.241593 0.00302237 0)
(-0.242136 0.00237947 0)
(-0.242546 0.00174401 0)
(-0.242825 0.00111623 0)
(-0.242973 0.000497146 0)
(-0.242994 -0.000113041 0)
(-0.242888 -0.000713494 0)
(-0.242658 -0.0013041 0)
(-0.242307 -0.00188446 0)
(-0.241836 -0.0024544 0)
(-0.241248 -0.00301363 0)
(-0.240545 -0.00356193 0)
(-0.239729 -0.00409892 0)
(-0.238802 -0.00462441 0)
(-0.237768 -0.00513827 0)
(-0.236628 -0.00564032 0)
(-0.235386 -0.00613038 0)
(-0.234042 -0.00660831 0)
(-0.232601 -0.00707397 0)
(-0.231063 -0.00752715 0)
(-0.229433 -0.0079677 0)
(-0.227711 -0.00839532 0)
(-0.225902 -0.00880978 0)
(-0.224006 -0.00921106 0)
(-0.222029 -0.00959921 0)
(-0.219971 -0.00997434 0)
(-0.217837 -0.0103367 0)
(-0.215627 -0.0106865 0)
(-0.213345 -0.011024 0)
(-0.210993 -0.0113491 0)
(-0.208574 -0.0116622 0)
(-0.206089 -0.0119639 0)
(-0.203542 -0.0122539 0)
(-0.200935 -0.0125325 0)
(-0.198269 -0.0128001 0)
(-0.195548 -0.0130564 0)
(-0.192774 -0.0133026 0)
(-0.189948 -0.0135386 0)
(-0.187074 -0.0137646 0)
(-0.184154 -0.013981 0)
(-0.181189 -0.0141884 0)
(-0.178181 -0.014387 0)
(-0.175132 -0.0145766 0)
(-0.172048 -0.0147585 0)
(-0.168929 -0.0149328 0)
(-0.165772 -0.0150997 0)
(-0.162583 -0.01526 0)
(-0.159367 -0.0154136 0)
(-0.156122 -0.0155607 0)
(-0.15285 -0.0157026 0)
(-0.149552 -0.0158394 0)
(-0.146234 -0.0159709 0)
(-0.142892 -0.0160971 0)
(-0.139531 -0.0162182 0)
(-0.136148 -0.0163354 0)
(-0.132747 -0.0164472 0)
(-0.12933 -0.0165532 0)
(-0.125895 -0.0166552 0)
(-0.122443 -0.0167509 0)
(-0.118978 -0.016841 0)
(-0.1155 -0.0169248 0)
(-0.112004 -0.0170002 0)
(-0.108498 -0.0170696 0)
(-0.104984 -0.017134 0)
(-0.101456 -0.0171872 0)
(-0.0979169 -0.0172397 0)
(-0.0943665 -0.0172836 0)
(-0.0908098 -0.0173203 0)
(-0.0872519 -0.0173513 0)
(-0.083679 -0.0173795 0)
(-0.0800973 -0.0173994 0)
(-0.076519 -0.017414 0)
(-0.0729323 -0.0174206 0)
(-0.0693476 -0.0174249 0)
(-0.0657564 -0.0174236 0)
(-0.0621614 -0.0174188 0)
(-0.0586095 -0.0174093 0)
(-0.0549937 -0.0174 0)
(-0.051099 -0.0173763 0)
(-0.0488687 -0.0173894 0)
(-0.0422802 -0.0173548 0)
(-0.0440491 -0.0173548 0)
(-0.032229 -0.0173267 0)
(-0.0403376 -0.0172988 0)
(-0.0212828 -0.017302 0)
(-0.0372805 -0.0172392 0)
(-0.0100397 -0.0172494 0)
(-0.0342532 -0.0172082 0)
(0.00087197 -0.0171422 0)
(-0.0305848 -0.017216 0)
(0.0108273 -0.0169817 0)
(-0.0256459 -0.0173296 0)
(0.0191409 -0.017055 0)
(0.0174769 0.0412645 0)
(-0.0297686 0.0378741 0)
(0.00211744 0.0393962 0)
(-0.0380763 0.0395313 0)
(-0.0160224 0.0392239 0)
(-0.0452543 0.0392465 0)
(-0.034099 0.0389014 0)
(-0.0531651 0.0388377 0)
(-0.050619 0.0385011 0)
(-0.0626934 0.0383082 0)
(-0.065215 0.0379803 0)
(-0.0735995 0.0376851 0)
(-0.0784354 0.0373306 0)
(-0.085115 0.0369626 0)
(-0.0908385 0.0365655 0)
(-0.0968408 0.0361409 0)
(-0.102661 0.0356911 0)
(-0.108438 0.0352154 0)
(-0.114127 0.034715 0)
(-0.119734 0.0341903 0)
(-0.125254 0.0336418 0)
(-0.130682 0.0330698 0)
(-0.136014 0.0324749 0)
(-0.141248 0.0318576 0)
(-0.146378 0.0312186 0)
(-0.151402 0.0305589 0)
(-0.156316 0.0298793 0)
(-0.161116 0.0291801 0)
(-0.165801 0.028462 0)
(-0.170365 0.027726 0)
(-0.174806 0.0269731 0)
(-0.179122 0.0262043 0)
(-0.183312 0.0254205 0)
(-0.187371 0.0246226 0)
(-0.191298 0.0238115 0)
(-0.195091 0.0229885 0)
(-0.198748 0.0221543 0)
(-0.202267 0.0213098 0)
(-0.205646 0.0204564 0)
(-0.208885 0.0195952 0)
(-0.211983 0.018727 0)
(-0.214938 0.0178528 0)
(-0.217748 0.0169735 0)
(-0.220414 0.0160902 0)
(-0.222936 0.0152041 0)
(-0.225313 0.0143159 0)
(-0.227545 0.013427 0)
(-0.229631 0.0125385 0)
(-0.231573 0.0116511 0)
(-0.233369 0.0107653 0)
(-0.235021 0.00988268 0)
(-0.23653 0.00900406 0)
(-0.237895 0.00813013 0)
(-0.239119 0.00726169 0)
(-0.240201 0.00639961 0)
(-0.241143 0.00554461 0)
(-0.241947 0.00469771 0)
(-0.242614 0.00385935 0)
(-0.243146 0.00303026 0)
(-0.243545 0.0022116 0)
(-0.24381 0.00140419 0)
(-0.243945 0.000607207 0)
(-0.24395 -0.000177904 0)
(-0.243829 -0.000950904 0)
(-0.243584 -0.00171115 0)
(-0.243216 -0.0024583 0)
(-0.242729 -0.00319203 0)
(-0.242123 -0.003912 0)
(-0.241402 -0.00461769 0)
(-0.240568 -0.00530873 0)
(-0.239624 -0.00598496 0)
(-0.238571 -0.00664619 0)
(-0.237413 -0.00729226 0)
(-0.236151 -0.00792294 0)
(-0.234789 -0.008538 0)
(-0.233329 -0.00913747 0)
(-0.231773 -0.00972149 0)
(-0.230124 -0.01029 0)
(-0.228385 -0.0108431 0)
(-0.226559 -0.011381 0)
(-0.224647 -0.0119037 0)
(-0.222653 -0.0124112 0)
(-0.220579 -0.0129037 0)
(-0.218427 -0.0133809 0)
(-0.2162 -0.0138427 0)
(-0.2139 -0.0142893 0)
(-0.21153 -0.0147211 0)
(-0.209092 -0.0151377 0)
(-0.20659 -0.0155393 0)
(-0.204024 -0.0159262 0)
(-0.201397 -0.0162989 0)
(-0.198712 -0.0166572 0)
(-0.195971 -0.0170007 0)
(-0.193177 -0.0173304 0)
(-0.190332 -0.017647 0)
(-0.187437 -0.0179506 0)
(-0.184496 -0.0182399 0)
(-0.18151 -0.0185163 0)
(-0.178479 -0.01878 0)
(-0.175408 -0.0190315 0)
(-0.1723 -0.0192711 0)
(-0.169154 -0.0194978 0)
(-0.165974 -0.0197119 0)
(-0.162761 -0.0199167 0)
(-0.159517 -0.0201097 0)
(-0.156246 -0.0202914 0)
(-0.152948 -0.0204623 0)
(-0.149624 -0.0206238 0)
(-0.146278 -0.0207745 0)
(-0.142911 -0.0209155 0)
(-0.139524 -0.0210475 0)
(-0.13612 -0.0211687 0)
(-0.1327 -0.0212832 0)
(-0.129266 -0.0213881 0)
(-0.125819 -0.0214858 0)
(-0.122361 -0.0215765 0)
(-0.118893 -0.0216601 0)
(-0.115416 -0.0217365 0)
(-0.11193 -0.0218063 0)
(-0.10844 -0.021871 0)
(-0.104937 -0.0219269 0)
(-0.101432 -0.0219777 0)
(-0.0979237 -0.0220239 0)
(-0.0944024 -0.0220625 0)
(-0.0908808 -0.0220932 0)
(-0.0873625 -0.0221171 0)
(-0.0838344 -0.0221323 0)
(-0.0802987 -0.022149 0)
(-0.0767644 -0.0221545 0)
(-0.0732241 -0.0221551 0)
(-0.069682 -0.022152 0)
(-0.066139 -0.0221404 0)
(-0.0625856 -0.0221298 0)
(-0.0590709 -0.0221098 0)
(-0.0554944 -0.0220926 0)
(-0.0515961 -0.0220754 0)
(-0.0494103 -0.0220152 0)
(-0.0427536 -0.0220378 0)
(-0.0446111 -0.0219122 0)
(-0.0327113 -0.021991 0)
(-0.0408458 -0.0218336 0)
(-0.0218385 -0.0219042 0)
(-0.0376656 -0.0218232 0)
(-0.0106386 -0.0217876 0)
(-0.0345095 -0.0218412 0)
(0.000302948 -0.0216914 0)
(-0.0307222 -0.0218531 0)
(0.0103838 -0.0216663 0)
(-0.025669 -0.0219022 0)
(0.018928 -0.0217403 0)
(0.0173286 0.0505427 0)
(-0.0297066 0.0463821 0)
(0.00184904 0.0482563 0)
(-0.0381085 0.0484177 0)
(-0.0163938 0.048043 0)
(-0.0453954 0.0480767 0)
(-0.0345491 0.0476516 0)
(-0.0534377 0.0475815 0)
(-0.0511215 0.0471659 0)
(-0.0631038 0.0469342 0)
(-0.0657694 0.0465285 0)
(-0.0741335 0.0461706 0)
(-0.0790505 0.0457348 0)
(-0.085754 0.0452855 0)
(-0.0915247 0.0447981 0)
(-0.0975664 0.0442788 0)
(-0.103424 0.0437279 0)
(-0.109238 0.0431453 0)
(-0.114963 0.0425321 0)
(-0.120605 0.0418885 0)
(-0.126159 0.0412151 0)
(-0.131619 0.0405128 0)
(-0.136984 0.0397825 0)
(-0.142248 0.0390249 0)
(-0.147407 0.0382406 0)
(-0.152459 0.0374306 0)
(-0.157399 0.0365958 0)
(-0.162226 0.0357371 0)
(-0.166935 0.0348557 0)
(-0.171523 0.0339528 0)
(-0.175988 0.0330291 0)
(-0.180327 0.0320856 0)
(-0.184537 0.0311236 0)
(-0.188615 0.0301445 0)
(-0.19256 0.0291493 0)
(-0.196369 0.0281393 0)
(-0.200042 0.0271155 0)
(-0.203575 0.0260795 0)
(-0.206967 0.0250324 0)
(-0.210217 0.0239755 0)
(-0.213324 0.02291 0)
(-0.216287 0.0218372 0)
(-0.219104 0.0207584 0)
(-0.221776 0.0196748 0)
(-0.224302 0.0185879 0)
(-0.22668 0.0174991 0)
(-0.228912 0.0164091 0)
(-0.230997 0.0153189 0)
(-0.232936 0.0142301 0)
(-0.234729 0.0131441 0)
(-0.236376 0.0120618 0)
(-0.237877 0.0109845 0)
(-0.239235 0.00991346 0)
(-0.240449 0.00884939 0)
(-0.241522 0.00779281 0)
(-0.242453 0.00674545 0)
(-0.243245 0.00570773 0)
(-0.243898 0.00468056 0)
(-0.244414 0.00366445 0)
(-0.244794 0.00266129 0)
(-0.245043 0.00167178 0)
(-0.24516 0.000695441 0)
(-0.245148 -0.000265837 0)
(-0.245008 -0.00121232 0)
(-0.244743 -0.00214328 0)
(-0.244355 -0.00305818 0)
(-0.243846 -0.00395631 0)
(-0.243219 -0.00483728 0)
(-0.242476 -0.0057008 0)
(-0.241619 -0.00654655 0)
(-0.240652 -0.00737402 0)
(-0.239576 -0.00818303 0)
(-0.238394 -0.00897341 0)
(-0.237109 -0.00974471 0)
(-0.235722 -0.0104968 0)
(-0.234238 -0.01123 0)
(-0.232658 -0.0119441 0)
(-0.230985 -0.0126386 0)
(-0.229221 -0.0133133 0)
(-0.22737 -0.0139688 0)
(-0.225433 -0.0146047 0)
(-0.223414 -0.0152212 0)
(-0.221315 -0.0158182 0)
(-0.219138 -0.0163961 0)
(-0.216887 -0.0169548 0)
(-0.214564 -0.0174946 0)
(-0.21217 -0.0180157 0)
(-0.209709 -0.0185183 0)
(-0.207184 -0.0190023 0)
(-0.204596 -0.0194683 0)
(-0.201949 -0.0199167 0)
(-0.199243 -0.0203475 0)
(-0.19648 -0.0207617 0)
(-0.193667 -0.0211587 0)
(-0.190803 -0.021539 0)
(-0.187888 -0.0219038 0)
(-0.184927 -0.0222536 0)
(-0.181922 -0.0225865 0)
(-0.178874 -0.0229044 0)
(-0.175785 -0.0232082 0)
(-0.172659 -0.0234974 0)
(-0.169496 -0.0237726 0)
(-0.166299 -0.0240345 0)
(-0.163069 -0.024283 0)
(-0.159809 -0.0245198 0)
(-0.15652 -0.0247429 0)
(-0.153204 -0.0249534 0)
(-0.149863 -0.0251521 0)
(-0.146499 -0.02534 0)
(-0.143113 -0.0255173 0)
(-0.139706 -0.0256821 0)
(-0.136281 -0.0258371 0)
(-0.132839 -0.0259818 0)
(-0.129382 -0.0261154 0)
(-0.125912 -0.0262398 0)
(-0.122429 -0.026357 0)
(-0.118933 -0.0264612 0)
(-0.11543 -0.0265566 0)
(-0.111915 -0.0266438 0)
(-0.108393 -0.0267203 0)
(-0.104868 -0.0267869 0)
(-0.10134 -0.0268521 0)
(-0.0978043 -0.0269045 0)
(-0.0942578 -0.0269532 0)
(-0.0907117 -0.0269931 0)
(-0.0871687 -0.0270268 0)
(-0.0836268 -0.0270509 0)
(-0.0800768 -0.027074 0)
(-0.0765245 -0.0270909 0)
(-0.0729763 -0.0271007 0)
(-0.0694265 -0.0271077 0)
(-0.0658764 -0.0271093 0)
(-0.0623202 -0.0271079 0)
(-0.0588072 -0.0271012 0)
(-0.0552397 -0.0270915 0)
(-0.0513235 -0.0270841 0)
(-0.0491844 -0.0270661 0)
(-0.0425276 -0.0270453 0)
(-0.0443974 -0.0270723 0)
(-0.0325416 -0.0269575 0)
(-0.0406189 -0.027129 0)
(-0.0217322 -0.0268254 0)
(-0.0373997 -0.0271945 0)
(-0.0106081 -0.0267182 0)
(-0.0342 -0.0271833 0)
(0.000242482 -0.0267045 0)
(-0.0304099 -0.0270617 0)
(0.0102223 -0.0268017 0)
(-0.0254437 -0.0269591 0)
(0.0187648 -0.0268833 0)
(0.017135 0.0598858 0)
(-0.0296157 0.0549671 0)
(0.00153796 0.0571887 0)
(-0.0381258 0.0573784 0)
(-0.0168124 0.0569354 0)
(-0.0455371 0.0569753 0)
(-0.0350492 0.0564712 0)
(-0.0537262 0.0563897 0)
(-0.0516806 0.0558941 0)
(-0.0635527 0.0556223 0)
(-0.0663849 0.0551407 0)
(-0.0747237 0.0547184 0)
(-0.0797375 0.0542007 0)
(-0.0864682 0.0536696 0)
(-0.092294 0.0530909 0)
(-0.0983821 0.0524755 0)
(-0.104287 0.0518222 0)
(-0.110148 0.0511314 0)
(-0.115919 0.0504038 0)
(-0.121606 0.0496398 0)
(-0.127203 0.048841 0)
(-0.132706 0.0480079 0)
(-0.138111 0.0471413 0)
(-0.143415 0.0462422 0)
(-0.148614 0.0453111 0)
(-0.153704 0.0443494 0)
(-0.158681 0.0433587 0)
(-0.163543 0.0423395 0)
(-0.168285 0.0412929 0)
(-0.172905 0.0402206 0)
(-0.1774 0.0391237 0)
(-0.181767 0.0380034 0)
(-0.186004 0.0368613 0)
(-0.190108 0.0356987 0)
(-0.194077 0.0345168 0)
(-0.197908 0.0333173 0)
(-0.201599 0.0321018 0)
(-0.20515 0.0308718 0)
(-0.208558 0.0296286 0)
(-0.211822 0.0283734 0)
(-0.214942 0.027108 0)
(-0.217914 0.0258341 0)
(-0.22074 0.0245532 0)
(-0.223417 0.0232669 0)
(-0.225946 0.0219767 0)
(-0.228327 0.0206837 0)
(-0.23056 0.0193896 0)
(-0.232645 0.018096 0)
(-0.23458 0.0168044 0)
(-0.236367 0.0155164 0)
(-0.238008 0.0142326 0)
(-0.239501 0.0129543 0)
(-0.240848 0.0116833 0)
(-0.242052 0.010421 0)
(-0.243111 0.00916869 0)
(-0.244026 0.00792726 0)
(-0.244802 0.00669699 0)
(-0.245439 0.00547983 0)
(-0.245938 0.00427721 0)
(-0.2463 0.0030886 0)
(-0.246528 0.00191405 0)
(-0.246624 0.000757446 0)
(-0.246588 -0.000382072 0)
(-0.246425 -0.00150347 0)
(-0.246136 -0.00260626 0)
(-0.245723 -0.00368966 0)
(-0.245189 -0.00475309 0)
(-0.244536 -0.005796 0)
(-0.243766 -0.00681804 0)
(-0.242883 -0.00781895 0)
(-0.241887 -0.00879821 0)
(-0.240784 -0.00975546 0)
(-0.239573 -0.0106904 0)
(-0.238259 -0.0116028 0)
(-0.236844 -0.0124926 0)
(-0.235331 -0.0133599 0)
(-0.233722 -0.014204 0)
(-0.232019 -0.0150251 0)
(-0.230227 -0.0158234 0)
(-0.228347 -0.0165988 0)
(-0.226381 -0.0173513 0)
(-0.224333 -0.018081 0)
(-0.222206 -0.018788 0)
(-0.220001 -0.0194726 0)
(-0.217722 -0.0201347 0)
(-0.21537 -0.0207744 0)
(-0.212949 -0.0213921 0)
(-0.210461 -0.0219879 0)
(-0.207908 -0.0225621 0)
(-0.205293 -0.023115 0)
(-0.202619 -0.0236464 0)
(-0.199887 -0.0241571 0)
(-0.197099 -0.024648 0)
(-0.194259 -0.0251186 0)
(-0.191369 -0.025569 0)
(-0.188432 -0.0259998 0)
(-0.185447 -0.0264128 0)
(-0.182417 -0.0268066 0)
(-0.179346 -0.0271824 0)
(-0.176235 -0.0275402 0)
(-0.173087 -0.0278805 0)
(-0.169903 -0.0282044 0)
(-0.166686 -0.0285129 0)
(-0.163437 -0.0288031 0)
(-0.160156 -0.0290783 0)
(-0.156847 -0.0293383 0)
(-0.153512 -0.0295833 0)
(-0.150154 -0.0298139 0)
(-0.146774 -0.0300311 0)
(-0.14337 -0.0302339 0)
(-0.139945 -0.0304231 0)
(-0.136506 -0.0305998 0)
(-0.133048 -0.0307643 0)
(-0.129574 -0.0309183 0)
(-0.126092 -0.0310578 0)
(-0.122592 -0.0311875 0)
(-0.119078 -0.0313068 0)
(-0.11556 -0.0314146 0)
(-0.112029 -0.0315109 0)
(-0.108491 -0.0315984 0)
(-0.104951 -0.0316762 0)
(-0.101405 -0.0317443 0)
(-0.0978516 -0.0318013 0)
(-0.0942913 -0.0318525 0)
(-0.0907272 -0.0318965 0)
(-0.0871666 -0.0319326 0)
(-0.0836048 -0.0319616 0)
(-0.0800418 -0.031983 0)
(-0.0764739 -0.0319981 0)
(-0.0729073 -0.0320071 0)
(-0.0693439 -0.032011 0)
(-0.0657821 -0.0320102 0)
(-0.0622135 -0.0320035 0)
(-0.058687 -0.0319947 0)
(-0.0551154 -0.0319777 0)
(-0.0512004 -0.0319562 0)
(-0.0490327 -0.0319787 0)
(-0.042403 -0.0318606 0)
(-0.0442186 -0.0320122 0)
(-0.0324456 -0.0317084 0)
(-0.0404191 -0.0320953 0)
(-0.0216972 -0.031518 0)
(-0.0371617 -0.0321861 0)
(-0.0106613 -0.0313977 0)
(-0.0339208 -0.0321836 0)
(0.000107329 -0.0314183 0)
(-0.0301222 -0.0320392 0)
(0.010037 -0.0315947 0)
(-0.0252133 -0.0318763 0)
(0.0185795 -0.0317647 0)
(0.0169014 0.0693083 0)
(-0.0295052 0.0636336 0)
(0.00117788 0.0662014 0)
(-0.0381422 0.0664199 0)
(-0.0172943 0.0659036 0)
(-0.0456989 0.0659523 0)
(-0.0356214 0.0653698 0)
(-0.0540593 0.0652732 0)
(-0.0523205 0.0647007 0)
(-0.0640651 0.0643864 0)
(-0.0670903 0.0638299 0)
(-0.0754031 0.0633407 0)
(-0.080528 0.0627406 0)
(-0.087292 0.0621273 0)
(-0.0931853 0.0614569 0)
(-0.0993291 0.0607441 0)
(-0.105291 0.0599872 0)
(-0.111207 0.059187 0)
(-0.117032 0.0583437 0)
(-0.122772 0.0574584 0)
(-0.128421 0.0565325 0)
(-0.133975 0.0555667 0)
(-0.13943 0.0545619 0)
(-0.144783 0.0535194 0)
(-0.150028 0.0524398 0)
(-0.155162 0.0513243 0)
(-0.160183 0.050175 0)
(-0.165086 0.0489929 0)
(-0.169868 0.0477793 0)
(-0.174526 0.0465353 0)
(-0.179057 0.0452625 0)
(-0.183458 0.0439626 0)
(-0.187726 0.0426374 0)
(-0.19186 0.0412884 0)
(-0.195855 0.0399174 0)
(-0.199712 0.0385259 0)
(-0.203426 0.0371153 0)
(-0.206998 0.0356877 0)
(-0.210425 0.0342449 0)
(-0.213705 0.0327888 0)
(-0.216837 0.0313211 0)
(-0.219821 0.0298438 0)
(-0.222656 0.0283584 0)
(-0.225341 0.0268666 0)
(-0.227875 0.0253703 0)
(-0.230259 0.023871 0)
(-0.232491 0.0223707 0)
(-0.234573 0.0208713 0)
(-0.236504 0.0193743 0)
(-0.238286 0.0178808 0)
(-0.239919 0.016393 0)
(-0.241403 0.0149122 0)
(-0.242739 0.0134391 0)
(-0.243927 0.0119764 0)
(-0.24497 0.0105253 0)
(-0.245871 0.00908573 0)
(-0.246629 0.00766099 0)
(-0.247244 0.0062515 0)
(-0.247721 0.00485729 0)
(-0.248062 0.00348061 0)
(-0.248266 0.00212357 0)
(-0.248335 0.000785658 0)
(-0.248274 -0.000532929 0)
(-0.248084 -0.00183027 0)
(-0.247766 -0.00310571 0)
(-0.247323 -0.00435864 0)
(-0.246759 -0.00558841 0)
(-0.246075 -0.00679436 0)
(-0.245274 -0.00797595 0)
(-0.244358 -0.00913271 0)
(-0.243331 -0.0102643 0)
(-0.242194 -0.0113701 0)
(-0.24095 -0.0124502 0)
(-0.239602 -0.0135042 0)
(-0.238154 -0.014532 0)
(-0.236606 -0.015533 0)
(-0.234963 -0.0165072 0)
(-0.233226 -0.0174549 0)
(-0.2314 -0.018376 0)
(-0.229485 -0.0192704 0)
(-0.227485 -0.0201381 0)
(-0.225403 -0.0209791 0)
(-0.223242 -0.0217939 0)
(-0.221004 -0.0225826 0)
(-0.218691 -0.0233452 0)
(-0.216306 -0.0240816 0)
(-0.213853 -0.0247925 0)
(-0.211332 -0.0254781 0)
(-0.208748 -0.0261386 0)
(-0.206102 -0.0267745 0)
(-0.203396 -0.0273861 0)
(-0.200634 -0.0279736 0)
(-0.197817 -0.0285375 0)
(-0.194947 -0.0290786 0)
(-0.192028 -0.0295971 0)
(-0.189062 -0.0300929 0)
(-0.18605 -0.0305665 0)
(-0.182994 -0.0310193 0)
(-0.179896 -0.0314512 0)
(-0.176759 -0.0318625 0)
(-0.173586 -0.0322535 0)
(-0.170379 -0.0326255 0)
(-0.167136 -0.0329788 0)
(-0.163861 -0.0333125 0)
(-0.160559 -0.0336275 0)
(-0.157228 -0.0339258 0)
(-0.153872 -0.0342066 0)
(-0.150493 -0.0344711 0)
(-0.14709 -0.0347191 0)
(-0.143666 -0.0349497 0)
(-0.140223 -0.0351671 0)
(-0.136765 -0.0353675 0)
(-0.133292 -0.0355539 0)
(-0.129799 -0.0357291 0)