/*--------------------------------*- C++ -*----------------------------------*\
| =========                 |                                                 |
| \\      /  F ield         | OpenFOAM: The Open Source CFD Toolbox           |
|  \\    /   O peration     | Version:  v2006                                 |
|   \\  /    A nd           | Website:  www.openfoam.com                      |
|    \\/     M anipulation  |                                                 |
\*---------------------------------------------------------------------------*/
FoamFile
{
    version     2.0;
    format      ascii;
    class       volVectorField;
    location    "6.8";
    object      U;
}
// * * * * * * * * * * * * * * * * * * * * * * * * * * * * * * * * * * * * * //

dimensions      [0 1 -1 0 0 0 0];


internalField   nonuniform List<vector> 
50000
(
(-1.41132e-05 -0.000886909 0)
(0.000716039 -0.00221005 0)
(0.00312818 -0.00183882 0)
(0.00329375 -0.00167005 0)
(0.00503781 -0.00165219 0)
(0.00550324 -0.00157227 0)
(0.00680715 -0.00155584 0)
(0.00752294 -0.00147859 0)
(0.00846886 -0.00142085 0)
(0.00924381 -0.00134957 0)
(0.00998638 -0.00127322 0)
(0.0106594 -0.00119105 0)
(0.0112615 -0.00110192 0)
(0.0117828 -0.00100456 0)
(0.0122163 -0.000900785 0)
(0.012559 -0.00079078 0)
(0.0128065 -0.00067398 0)
(0.0129499 -0.000550535 0)
(0.0129845 -0.000420884 0)
(0.0129094 -0.000286723 0)
(0.0127279 -0.000148072 0)
(0.0124202 -1.23366e-05 0)
(0.0119817 0.000129539 0)
(0.011426 0.000270319 0)
(0.0107437 0.000411111 0)
(0.00993385 0.00055202 0)
(0.00898836 0.000692073 0)
(0.00792167 0.000833832 0)
(0.00671753 0.000966808 0)
(0.00537461 0.00110533 0)
(0.00391528 0.00124107 0)
(0.00232701 0.00137293 0)
(0.000609826 0.00149987 0)
(-0.0012266 0.00162376 0)
(-0.00317477 0.00174254 0)
(-0.00523447 0.00185528 0)
(-0.00739925 0.001962 0)
(-0.00966182 0.00206384 0)
(-0.0120188 0.00216288 0)
(-0.0144686 0.00226416 0)
(-0.0170103 0.00237289 0)
(-0.0196475 0.00249102 0)
(-0.0223853 0.00261413 0)
(-0.025222 0.00272788 0)
(-0.0281452 0.00281145 0)
(-0.0311345 0.00284696 0)
(-0.0341632 0.00282984 0)
(-0.0372027 0.00277149 0)
(-0.0402335 0.00269269 0)
(-0.0432507 0.00261406 0)
(-0.0462576 0.00254769 0)
(-0.0492594 0.00249462 0)
(-0.0522614 0.00244998 0)
(-0.0552642 0.00240958 0)
(-0.0582653 0.00237073 0)
(-0.0612637 0.00233176 0)
(-0.0642575 0.00229245 0)
(-0.0672434 0.00225312 0)
(-0.0702182 0.00221341 0)
(-0.0731794 0.00217327 0)
(-0.076124 0.00213272 0)
(-0.0790485 0.00209176 0)
(-0.0819498 0.0020504 0)
(-0.0848249 0.00200877 0)
(-0.0876703 0.00196675 0)
(-0.0904829 0.00192432 0)
(-0.0932595 0.00188176 0)
(-0.0959968 0.00183922 0)
(-0.0986919 0.00179649 0)
(-0.101342 0.00175355 0)
(-0.103943 0.00171057 0)
(-0.106492 0.0016674 0)
(-0.108987 0.00162423 0)
(-0.111423 0.00158134 0)
(-0.113798 0.00153924 0)
(-0.116111 0.00149922 0)
(-0.11836 0.00146232 0)
(-0.120543 0.00142963 0)
(-0.122661 0.00140179 0)
(-0.124713 0.00137917 0)
(-0.126701 0.00136173 0)
(-0.128624 0.001349 0)
(-0.130484 0.0013405 0)
(-0.13228 0.00133594 0)
(-0.134014 0.0013354 0)
(-0.135687 0.00133926 0)
(-0.137298 0.00134744 0)
(-0.138851 0.00135995 0)
(-0.140345 0.00137736 0)
(-0.141783 0.00139996 0)
(-0.143168 0.0014279 0)
(-0.1445 0.00146148 0)
(-0.145784 0.00150084 0)
(-0.14702 0.00154706 0)
(-0.148214 0.00160204 0)
(-0.149369 0.00166859 0)
(-0.15049 0.00174759 0)
(-0.151582 0.0018319 0)
(-0.152644 0.00190374 0)
(-0.153664 0.00193985 0)
(-0.154612 0.00192152 0)
(-0.155452 0.00184401 0)
(-0.156146 0.00171903 0)
(-0.156666 0.00156503 0)
(-0.156997 0.00139833 0)
(-0.157131 0.00122868 0)
(-0.157066 0.00106226 0)
(-0.156809 0.000896619 0)
(-0.15636 0.000727812 0)
(-0.155721 0.000552602 0)
(-0.154888 0.000368492 0)
(-0.153858 0.000173205 0)
(-0.152629 -3.50105e-05 0)
(-0.151196 -0.00025643 0)
(-0.149556 -0.000490495 0)
(-0.147707 -0.000736066 0)
(-0.145649 -0.00098993 0)
(-0.143387 -0.00124706 0)
(-0.140923 -0.00150243 0)
(-0.138264 -0.0017518 0)
(-0.135419 -0.00199138 0)
(-0.132399 -0.00221917 0)
(-0.129212 -0.00243548 0)
(-0.125868 -0.00264227 0)
(-0.122372 -0.00284016 0)
(-0.118732 -0.00302908 0)
(-0.114956 -0.00320975 0)
(-0.111049 -0.00338206 0)
(-0.107017 -0.00354674 0)
(-0.102867 -0.00370378 0)
(-0.0986025 -0.00385221 0)
(-0.0942299 -0.00399205 0)
(-0.0897539 -0.00412477 0)
(-0.0851795 -0.00424987 0)
(-0.080512 -0.00436651 0)
(-0.0757559 -0.00447497 0)
(-0.0709186 -0.0045741 0)
(-0.0660061 -0.00466606 0)
(-0.0610181 -0.00475046 0)
(-0.0559664 -0.00483352 0)
(-0.0508679 -0.00490816 0)
(-0.045654 -0.00499709 0)
(-0.0404993 -0.00507321 0)
(-0.0350576 -0.00515842 0)
(-0.029959 -0.00522673 0)
(-0.0241821 -0.00537019 0)
(-0.0192548 -0.00550563 0)
(-0.0129474 -0.00555662 0)
(-0.00815652 -0.0050585 0)
(-0.00182013 -0.00472542 0)
(-1.43459e-05 -4.34591e-05 0)
(-0.00140455 -0.00220739 0)
(-0.000262179 -0.00144385 0)
(-0.00180092 -0.00117054 0)
(-0.00144332 -0.00110912 0)
(-0.00246547 -0.00105078 0)
(-0.00257653 -0.00100415 0)
(-0.00322088 -0.000914884 0)
(-0.00361542 -0.000835045 0)
(-0.00412125 -0.00074139 0)
(-0.00460867 -0.000639295 0)
(-0.00511484 -0.000528979 0)
(-0.00563333 -0.000411065 0)
(-0.00617136 -0.000286741 0)
(-0.00673272 -0.000152083 0)
(-0.00731237 -7.06327e-06 0)
(-0.0079126 0.000148252 0)
(-0.00853682 0.000313432 0)
(-0.00918689 0.000489485 0)
(-0.00986655 0.000674259 0)
(-0.0105779 0.000866383 0)
(-0.0113243 0.00105955 0)
(-0.0121082 0.00126367 0)
(-0.0129296 0.00147146 0)
(-0.013791 0.00168272 0)
(-0.0146959 0.00189594 0)
(-0.0156467 0.0021105 0)
(-0.0166429 0.00232897 0)
(-0.0176877 0.00253986 0)
(-0.0187828 0.00275684 0)
(-0.0199271 0.00296994 0)
(-0.0211233 0.00317899 0)
(-0.0223717 0.0033829 0)
(-0.0236716 0.00358234 0)
(-0.0250242 0.00377384 0)
(-0.0264316 0.00395621 0)
(-0.0278938 0.00412959 0)
(-0.0294105 0.00429454 0)
(-0.0309813 0.00445212 0)
(-0.0326043 0.00460534 0)
(-0.0342743 0.00475753 0)
(-0.0359835 0.00490976 0)
(-0.037726 0.00506025 0)
(-0.0394996 0.00520317 0)
(-0.0413094 0.00532967 0)
(-0.0431705 0.00543255 0)
(-0.0451034 0.00551099 0)
(-0.0471257 0.00557076 0)
(-0.0492461 0.00562092 0)
(-0.0514633 0.00566896 0)
(-0.053768 0.00571792 0)
(-0.0561492 0.00576697 0)
(-0.0585969 0.00581371 0)
(-0.0611027 0.00585605 0)
(-0.0636612 0.00589245 0)
(-0.0662677 0.00592196 0)
(-0.0689169 0.00594424 0)
(-0.0716032 0.00595915 0)
(-0.0743214 0.0059661 0)
(-0.0770658 0.00596468 0)
(-0.0798313 0.00595497 0)
(-0.082612 0.00593705 0)
(-0.085402 0.00591049 0)
(-0.088196 0.005875 0)
(-0.0909882 0.00583071 0)
(-0.093773 0.005778 0)
(-0.096544 0.00571672 0)
(-0.0992956 0.00564656 0)
(-0.102023 0.00556774 0)
(-0.104719 0.00548058 0)
(-0.107379 0.00538511 0)
(-0.109997 0.00528119 0)
(-0.112568 0.00516891 0)
(-0.115085 0.00504841 0)
(-0.117544 0.00492022 0)
(-0.119937 0.00478503 0)
(-0.122258 0.00464352 0)
(-0.124501 0.00449666 0)
(-0.12666 0.00434484 0)
(-0.128728 0.00418888 0)
(-0.130698 0.00402953 0)
(-0.132567 0.00386721 0)
(-0.134328 0.00370214 0)
(-0.135977 0.00353445 0)
(-0.137511 0.00336477 0)
(-0.138924 0.00319352 0)
(-0.140214 0.0030209 0)
(-0.141376 0.00284808 0)
(-0.142407 0.0026754 0)
(-0.143302 0.00250273 0)
(-0.14406 0.0023308 0)
(-0.144675 0.00216001 0)
(-0.145145 0.00199043 0)
(-0.145466 0.00182259 0)
(-0.145633 0.00165664 0)
(-0.14564 0.00149331 0)
(-0.14548 0.00133206 0)
(-0.145143 0.00116829 0)
(-0.144621 0.000991066 0)
(-0.143911 0.0007881 0)
(-0.143019 0.000548079 0)
(-0.141955 0.000265976 0)
(-0.140733 -5.40906e-05 0)
(-0.139364 -0.000400954 0)
(-0.137857 -0.0007614 0)
(-0.136217 -0.00112498 0)
(-0.134446 -0.00148484 0)
(-0.132535 -0.00184093 0)
(-0.130487 -0.00219462 0)
(-0.128301 -0.00254726 0)
(-0.125983 -0.00289935 0)
(-0.123539 -0.00325048 0)
(-0.120974 -0.00360026 0)
(-0.118296 -0.00394707 0)
(-0.115515 -0.0042887 0)
(-0.112641 -0.00462262 0)
(-0.109684 -0.00494665 0)
(-0.106656 -0.00525876 0)
(-0.10357 -0.00555631 0)
(-0.100434 -0.00583838 0)
(-0.0972565 -0.00610442 0)
(-0.0940428 -0.00635473 0)
(-0.0907997 -0.00659104 0)
(-0.0875326 -0.00681531 0)
(-0.0842422 -0.00702856 0)
(-0.0809339 -0.00723106 0)
(-0.0776131 -0.00742323 0)
(-0.0742833 -0.00760553 0)
(-0.070948 -0.00777789 0)
(-0.0676076 -0.00794284 0)
(-0.0642637 -0.0081026 0)
(-0.0609205 -0.00825824 0)
(-0.0575802 -0.00840629 0)
(-0.0542433 -0.00854884 0)
(-0.0509133 -0.0086851 0)
(-0.0475863 -0.00881364 0)
(-0.0442646 -0.00893566 0)
(-0.0409481 -0.00905223 0)
(-0.0376507 -0.00915794 0)
(-0.0343244 -0.00926376 0)
(-0.0310838 -0.00935424 0)
(-0.027704 -0.00944978 0)
(-0.0245902 -0.00952188 0)
(-0.021069 -0.00961989 0)
(-0.0182237 -0.00966187 0)
(-0.0144483 -0.0097527 0)
(-0.0120814 -0.00978031 0)
(-0.00797936 -0.0101135 0)
(-0.00576678 -0.0102525 0)
(-0.000117217 -0.00911955 0)
(3.53753e-05 0.00105295 0)
(-0.000966975 -0.00217481 0)
(0.000531922 -0.00102564 0)
(-0.000686857 -0.00052486 0)
(-4.73423e-05 -0.000385462 0)
(-0.000797285 -0.00043627 0)
(-0.00060875 -0.000334671 0)
(-0.000969531 -0.000282027 0)
(-0.00107454 -0.000175849 0)
(-0.00129717 -7.65117e-05 0)
(-0.00150726 3.97143e-05 0)
(-0.00174141 0.000162946 0)
(-0.00199978 0.000296615 0)
(-0.0022806 0.000439729 0)
(-0.00258542 0.000594194 0)
(-0.00291989 0.000762023 0)
(-0.00328564 0.000941868 0)
(-0.00368689 0.0011338 0)
(-0.00412727 0.00133821 0)
(-0.00460798 0.00155502 0)
(-0.00513191 0.0017814 0)
(-0.00570346 0.00201798 0)
(-0.00632414 0.00226501 0)
(-0.0069955 0.00252086 0)
(-0.00772135 0.00278379 0)
(-0.00850439 0.00305191 0)
(-0.0093477 0.00332498 0)
(-0.0102538 0.00360308 0)
(-0.011225 0.00388356 0)
(-0.0122633 0.00416634 0)
(-0.013371 0.00444959 0)
(-0.0145513 0.00473242 0)
(-0.0158071 0.00501426 0)
(-0.0171406 0.00529408 0)
(-0.0185544 0.00556995 0)
(-0.0200497 0.00584086 0)
(-0.0216278 0.00610569 0)
(-0.0232915 0.00636313 0)
(-0.0250417 0.00661219 0)
(-0.0268773 0.0068517 0)
(-0.0287964 0.00708097 0)
(-0.0307952 0.00730046 0)
(-0.0328692 0.0075128 0)
(-0.0350156 0.00772262 0)
(-0.0372335 0.00793398 0)
(-0.0395246 0.00814793 0)
(-0.0418918 0.00836127 0)
(-0.0443345 0.00856726 0)
(-0.0468484 0.00875899 0)
(-0.049428 0.00893234 0)
(-0.0520654 0.00908673 0)
(-0.0547523 0.00922438 0)
(-0.0574829 0.00934781 0)
(-0.0602521 0.00945779 0)
(-0.0630546 0.00955422 0)
(-0.0658858 0.00963705 0)
(-0.0687411 0.00970554 0)
(-0.0716158 0.00975928 0)
(-0.0745053 0.00979822 0)
(-0.0774045 0.00982172 0)
(-0.0803079 0.00982992 0)
(-0.083211 0.0098228 0)
(-0.0861096 0.00979952 0)
(-0.0889982 0.00975973 0)
(-0.0918709 0.00970408 0)
(-0.0947231 0.00963258 0)
(-0.0975504 0.00954464 0)
(-0.100347 0.00944008 0)
(-0.103108 0.00931975 0)
(-0.105828 0.00918371 0)
(-0.108502 0.00903171 0)
(-0.111127 0.00886395 0)
(-0.113696 0.00868027 0)
(-0.116206 0.00848053 0)
(-0.118651 0.00826507 0)
(-0.121027 0.00803419 0)
(-0.123329 0.00778826 0)
(-0.125553 0.00752827 0)
(-0.127693 0.00725562 0)
(-0.129744 0.00697132 0)
(-0.131702 0.00667622 0)
(-0.133561 0.0063713 0)
(-0.135319 0.00605759 0)
(-0.136971 0.00573599 0)
(-0.138513 0.00540685 0)
(-0.139941 0.00507065 0)
(-0.141251 0.00472842 0)
(-0.14244 0.00438034 0)
(-0.143506 0.00402689 0)
(-0.144444 0.00366856 0)
(-0.145251 0.00330566 0)
(-0.145925 0.00293848 0)
(-0.146461 0.00256714 0)
(-0.146858 0.00219131 0)
(-0.147111 0.00181052 0)
(-0.147217 0.00142222 0)
(-0.147171 0.00102309 0)
(-0.146971 0.000608352 0)
(-0.146614 0.00017179 0)
(-0.1461 -0.000293856 0)
(-0.145435 -0.000790194 0)
(-0.14463 -0.00131216 0)
(-0.143698 -0.00185167 0)
(-0.142643 -0.00240032 0)
(-0.141469 -0.00295199 0)
(-0.140174 -0.00350338 0)
(-0.138758 -0.00405439 0)
(-0.13722 -0.00460313 0)
(-0.135561 -0.00514856 0)
(-0.133781 -0.00569039 0)
(-0.131881 -0.00622813 0)
(-0.129861 -0.00676022 0)
(-0.127723 -0.00728465 0)
(-0.125469 -0.00779834 0)
(-0.123101 -0.00829746 0)
(-0.120621 -0.00877725 0)
(-0.11803 -0.00923314 0)
(-0.115332 -0.00966162 0)
(-0.112526 -0.0100604 0)
(-0.109617 -0.0104293 0)
(-0.106606 -0.0107697 0)
(-0.103498 -0.0110845 0)
(-0.100297 -0.0113773 0)
(-0.0970083 -0.0116496 0)
(-0.0936375 -0.0119031 0)
(-0.0901924 -0.0121387 0)
(-0.0866802 -0.0123557 0)
(-0.0831055 -0.012554 0)
(-0.0794764 -0.0127343 0)
(-0.0758036 -0.0128989 0)
(-0.0720955 -0.01305 0)
(-0.0683564 -0.0131892 0)
(-0.064598 -0.013316 0)
(-0.0608311 -0.0134302 0)
(-0.0570574 -0.0135319 0)
(-0.0532836 -0.0136214 0)
(-0.0495172 -0.0137034 0)
(-0.0457572 -0.0137757 0)
(-0.0420196 -0.0138428 0)
(-0.0382734 -0.0139015 0)
(-0.0346096 -0.0139576 0)
(-0.0308399 -0.0140054 0)
(-0.0273243 -0.0140449 0)
(-0.0234358 -0.0140737 0)
(-0.0202093 -0.014079 0)
(-0.0160947 -0.0140391 0)
(-0.0133543 -0.0140475 0)
(-0.00880762 -0.0145168 0)
(-0.00609681 -0.015672 0)
(-4.4354e-05 -0.0128744 0)
(-2.74239e-05 0.00145212 0)
(-0.000475323 -0.00308747 0)
(0.00129457 -0.00152205 0)
(0.000518792 -0.000685585 0)
(0.00147431 -0.000551081 0)
(0.00106291 -0.000585179 0)
(0.00159906 -0.000490562 0)
(0.00151711 -0.000406499 0)
(0.00172125 -0.000272389 0)
(0.00175917 -0.000138454 0)
(0.00180396 1.28518e-05 0)
(0.00179924 0.000182263 0)
(0.00175864 0.000368828 0)
(0.00167013 0.000571796 0)
(0.0015335 0.000789764 0)
(0.00134774 0.00102386 0)
(0.001107 0.00127419 0)
(0.000808736 0.0015395 0)
(0.000450435 0.00182131 0)
(2.65468e-05 0.00212378 0)
(-0.000463614 0.0024352 0)
(-0.00101902 0.00276151 0)
(-0.00164474 0.00310212 0)
(-0.002342 0.00345375 0)
(-0.00311285 0.00381577 0)
(-0.00395885 0.00418811 0)
(-0.00488016 0.00456943 0)
(-0.0058792 0.00495822 0)
(-0.00695822 0.00535354 0)
(-0.00811718 0.00575435 0)
(-0.00935664 0.00615883 0)
(-0.0106776 0.0065654 0)
(-0.0120799 0.00697301 0)
(-0.0135635 0.00738034 0)
(-0.015129 0.00778594 0)
(-0.0167768 0.0081886 0)
(-0.0185059 0.00858728 0)
(-0.0203147 0.00898098 0)
(-0.0222022 0.00936864 0)
(-0.0241685 0.00974922 0)
(-0.0262133 0.010122 0)
(-0.028336 0.0104858 0)
(-0.0305353 0.0108385 0)
(-0.0328088 0.0111773 0)
(-0.0351517 0.0114994 0)
(-0.0375583 0.0118018 0)
(-0.0400233 0.0120835 0)
(-0.0425416 0.0123445 0)
(-0.04511 0.0125849 0)
(-0.0477274 0.0128055 0)
(-0.0503922 0.0130071 0)
(-0.0531018 0.01319 0)
(-0.0558534 0.013354 0)
(-0.0586425 0.0134991 0)
(-0.0614633 0.0136246 0)
(-0.0643122 0.0137299 0)
(-0.0671846 0.0138147 0)
(-0.070075 0.0138785 0)
(-0.0729791 0.0139209 0)
(-0.0758921 0.0139416 0)
(-0.0788085 0.0139402 0)
(-0.0817247 0.0139163 0)
(-0.0846365 0.01387 0)
(-0.0875369 0.0138016 0)
(-0.0904207 0.0137106 0)
(-0.0932851 0.0135971 0)
(-0.0961252 0.013461 0)
(-0.0989346 0.0133025 0)
(-0.101709 0.0131217 0)
(-0.104444 0.0129186 0)
(-0.107135 0.0126935 0)
(-0.109777 0.0124468 0)
(-0.112366 0.0121787 0)
(-0.114898 0.0118896 0)
(-0.117367 0.0115797 0)
(-0.11977 0.0112493 0)
(-0.122104 0.0108988 0)
(-0.124363 0.0105292 0)
(-0.126544 0.0101418 0)
(-0.128645 0.00973734 0)
(-0.13066 0.00931614 0)
(-0.132585 0.0088792 0)
(-0.134416 0.00842815 0)
(-0.13615 0.00796409 0)
(-0.137783 0.00748757 0)
(-0.13931 0.0069995 0)
(-0.140729 0.00650073 0)
(-0.142037 0.00599155 0)
(-0.143229 0.00547294 0)
(-0.144301 0.00494619 0)
(-0.145252 0.0044114 0)
(-0.146078 0.00386829 0)
(-0.146775 0.00331746 0)
(-0.14734 0.00275938 0)
(-0.147772 0.00219391 0)
(-0.148067 0.00161922 0)
(-0.148221 0.00103451 0)
(-0.148234 0.000436978 0)
(-0.148109 -0.000174074 0)
(-0.147852 -0.000799896 0)
(-0.147462 -0.0014423 0)
(-0.146943 -0.00210177 0)
(-0.146299 -0.00277646 0)
(-0.145529 -0.00346383 0)
(-0.144633 -0.00416048 0)
(-0.143611 -0.00486272 0)
(-0.142462 -0.0055675 0)
(-0.141185 -0.0062722 0)
(-0.139783 -0.0069745 0)
(-0.138256 -0.00767284 0)
(-0.136606 -0.00836616 0)
(-0.134834 -0.00905336 0)
(-0.132944 -0.00973321 0)
(-0.130936 -0.0104039 0)
(-0.128813 -0.0110634 0)
(-0.126575 -0.0117091 0)
(-0.124224 -0.0123385 0)
(-0.121759 -0.0129486 0)
(-0.119179 -0.0135365 0)
(-0.116485 -0.0140994 0)
(-0.113676 -0.0146346 0)
(-0.110756 -0.0151414 0)
(-0.107727 -0.0156183 0)
(-0.104593 -0.0160649 0)
(-0.101357 -0.0164818 0)
(-0.0980253 -0.0168694 0)
(-0.0946014 -0.017228 0)
(-0.0910893 -0.0175577 0)
(-0.0874941 -0.0178591 0)
(-0.0838206 -0.0181307 0)
(-0.0800743 -0.0183727 0)
(-0.076262 -0.0185864 0)
(-0.0723895 -0.0187759 0)
(-0.0684629 -0.0189403 0)
(-0.0644895 -0.0190808 0)
(-0.0604756 -0.0192002 0)
(-0.0564248 -0.0192996 0)
(-0.0523444 -0.019381 0)
(-0.0482411 -0.0194503 0)
(-0.0441024 -0.0195033 0)
(-0.0399949 -0.0195495 0)
(-0.0357722 -0.0195796 0)
(-0.0317378 -0.0196057 0)
(-0.027354 -0.0196046 0)
(-0.0235302 -0.0195771 0)
(-0.0188724 -0.0194558 0)
(-0.015454 -0.0195365 0)
(-0.0102424 -0.0203958 0)
(-0.00671036 -0.0221863 0)
(-0.000476712 -0.0175877 0)
(-6.32929e-05 0.00177993 0)
(-0.000275951 -0.00421407 0)
(0.00155405 -0.00221006 0)
(0.000940666 -0.0010463 0)
(0.00199746 -0.000905619 0)
(0.00171706 -0.000873931 0)
(0.00234951 -0.000786785 0)
(0.00237159 -0.000637866 0)
(0.00266096 -0.000466727 0)
(0.00277533 -0.000274954 0)
(0.00289402 -6.67858e-05 0)
(0.00296067 0.000165679 0)
(0.00297154 0.000422579 0)
(0.00292589 0.000696908 0)
(0.00282491 0.000993697 0)
(0.0026649 0.00131017 0)
(0.00244092 0.00164642 0)
(0.00215145 0.00200173 0)
(0.00180115 0.0023763 0)
(0.00137216 0.00277283 0)
(0.000865437 0.00318336 0)
(0.000293199 0.00360933 0)
(-0.000357234 0.00405661 0)
(-0.00108528 0.00451261 0)
(-0.00188888 0.00498033 0)
(-0.00277012 0.00545967 0)
(-0.00373176 0.00594908 0)
(-0.00477387 0.00644623 0)
(-0.00589623 0.0069496 0)
(-0.0070997 0.00745782 0)
(-0.00838504 0.00796932 0)
(-0.00975203 0.0084826 0)
(-0.0112003 0.0089955 0)
(-0.0127301 0.00950595 0)
(-0.0143413 0.0100125 0)
(-0.0160322 0.0105138 0)
(-0.0178011 0.0110081 0)
(-0.0196484 0.0114938 0)
(-0.0215737 0.0119691 0)
(-0.0235743 0.0124329 0)
(-0.0256477 0.0128841 0)
(-0.0277922 0.0133221 0)
(-0.0300052 0.0137467 0)
(-0.032284 0.0141585 0)
(-0.0346266 0.014557 0)
(-0.0370307 0.0149411 0)
(-0.0394941 0.0153087 0)
(-0.0420151 0.0156575 0)
(-0.0445918 0.0159851 0)
(-0.0472213 0.0162894 0)
(-0.0499007 0.0165691 0)
(-0.0526257 0.0168238 0)
(-0.0553922 0.0170532 0)
(-0.0581964 0.017257 0)
(-0.0610337 0.0174347 0)
(-0.0638996 0.0175857 0)
(-0.0667897 0.0177097 0)
(-0.0696994 0.0178061 0)
(-0.0726242 0.0178739 0)
(-0.0755591 0.0179131 0)
(-0.0784992 0.0179234 0)
(-0.0814395 0.017904 0)
(-0.0843753 0.0178556 0)
(-0.0873021 0.017778 0)
(-0.0902146 0.0176704 0)
(-0.0931081 0.0175326 0)
(-0.0959779 0.0173654 0)
(-0.0988193 0.0171691 0)
(-0.101627 0.0169431 0)
(-0.104397 0.0166881 0)
(-0.107124 0.0164045 0)
(-0.109803 0.0160923 0)
(-0.11243 0.0157524 0)
(-0.115 0.0153852 0)
(-0.11751 0.014991 0)
(-0.119954 0.0145705 0)
(-0.122329 0.0141248 0)
(-0.12463 0.0136542 0)
(-0.126853 0.0131596 0)
(-0.128995 0.0126422 0)
(-0.131053 0.0121035 0)
(-0.13302 0.0115441 0)
(-0.134893 0.010965 0)
(-0.136668 0.0103671 0)
(-0.138343 0.00975151 0)
(-0.139912 0.00911897 0)
(-0.141372 0.00847019 0)
(-0.142719 0.00780639 0)
(-0.14395 0.0071281 0)
(-0.145061 0.00643573 0)
(-0.146049 0.00572983 0)
(-0.146912 0.00501106 0)
(-0.147645 0.00428001 0)
(-0.148244 0.00353623 0)
(-0.148711 0.00277937 0)
(-0.149039 0.00201037 0)
(-0.149229 0.0012275 0)
(-0.14928 0.000428582 0)
(-0.149189 -0.000387093 0)
(-0.148959 -0.0012186 0)
(-0.148591 -0.00206516 0)
(-0.148089 -0.00292599 0)
(-0.147454 -0.00379878 0)
(-0.146687 -0.00468036 0)
(-0.145791 -0.00556763 0)
(-0.144768 -0.00645775 0)
(-0.143617 -0.00734804 0)
(-0.14234 -0.00823635 0)
(-0.140938 -0.00912072 0)
(-0.139412 -0.00999932 0)
(-0.137763 -0.0108701 0)
(-0.135992 -0.0117308 0)
(-0.134103 -0.0125792 0)
(-0.132097 -0.0134127 0)
(-0.129977 -0.0142286 0)
(-0.127746 -0.015024 0)
(-0.125406 -0.0157962 0)
(-0.122959 -0.0165427 0)
(-0.120408 -0.0172615 0)
(-0.117754 -0.0179509 0)
(-0.114998 -0.0186101 0)
(-0.112143 -0.0192386 0)
(-0.109188 -0.0198365 0)
(-0.106136 -0.0204038 0)
(-0.102989 -0.02094 0)
(-0.0997494 -0.0214455 0)
(-0.0964197 -0.0219197 0)
(-0.0930025 -0.0223628 0)
(-0.0895009 -0.0227742 0)
(-0.0859178 -0.0231529 0)
(-0.0822558 -0.0234995 0)
(-0.078518 -0.0238145 0)
(-0.0747079 -0.0240985 0)
(-0.0708282 -0.0243532 0)
(-0.0668822 -0.0245791 0)
(-0.0628741 -0.0247775 0)
(-0.058808 -0.0249502 0)
(-0.0546908 -0.0250981 0)
(-0.0505242 -0.025225 0)
(-0.0463019 -0.0253301 0)
(-0.0420766 -0.0254214 0)
(-0.0377272 -0.0254921 0)
(-0.0335185 -0.0255577 0)
(-0.0289699 -0.0255864 0)
(-0.024899 -0.025576 0)
(-0.0200485 -0.0254519 0)
(-0.0162942 -0.0256749 0)
(-0.0108544 -0.0269064 0)
(-0.00699719 -0.0290287 0)
(-0.000775195 -0.0228191 0)
(-7.33325e-05 0.00202687 0)
(-0.000211269 -0.00545391 0)
(0.00160101 -0.00298801 0)
(0.00105401 -0.00153645 0)
(0.00210867 -0.00134893 0)
(0.0018721 -0.00128742 0)
(0.00252084 -0.00116839 0)
(0.00256991 -0.000968317 0)
(0.00288138 -0.000742489 0)
(0.00302017 -0.000490826 0)
(0.00315623 -0.00021288 0)
(0.0032426 8.86924e-05 0)
(0.00327377 0.000419415 0)
(0.00324427 0.000774166 0)
(0.00316097 0.00115351 0)
(0.0030172 0.00155721 0)
(0.00280986 0.00198435 0)
(0.00253755 0.00243413 0)
(0.00220326 0.0029054 0)
(0.00179106 0.00339294 0)
(0.00129946 0.00391035 0)
(0.00074907 0.00443946 0)
(0.000116597 0.00498651 0)
(-0.000602454 0.00555701 0)
(-0.00139204 0.00613353 0)
(-0.00225928 0.00672273 0)
(-0.00320664 0.00732346 0)
(-0.00423551 0.00793411 0)
(-0.0053462 0.00855223 0)
(-0.00653847 0.00917567 0)
(-0.00781255 0.00980254 0)
(-0.00916965 0.0104316 0)
(-0.0106101 0.011061 0)
(-0.0121327 0.0116888 0)
(-0.0137369 0.0123132 0)
(-0.0154233 0.012933 0)
(-0.0171916 0.0135459 0)
(-0.0190404 0.0141498 0)
(-0.0209685 0.0147433 0)
(-0.0229752 0.0153252 0)
(-0.0250597 0.0158934 0)
(-0.0272203 0.016446 0)
(-0.0294544 0.0169812 0)
(-0.03176 0.0174967 0)
(-0.0341346 0.0179904 0)
(-0.036575 0.0184607 0)
(-0.0390777 0.0189063 0)
(-0.0416385 0.0193256 0)
(-0.0442545 0.0197177 0)
(-0.0469235 0.0200819 0)
(-0.0496418 0.0204174 0)
(-0.0524053 0.0207239 0)
(-0.0552111 0.0210001 0)
(-0.0580553 0.0212451 0)
(-0.060933 0.0214584 0)
(-0.06384 0.0216392 0)
(-0.0667719 0.0217867 0)
(-0.0697245 0.0219004 0)
(-0.0726925 0.0219802 0)
(-0.0756707 0.0220255 0)
(-0.0786547 0.0220356 0)
(-0.0816398 0.02201 0)
(-0.0846207 0.0219486 0)
(-0.0875931 0.0218511 0)
(-0.0905515 0.0217173 0)
(-0.0934909 0.0215473 0)
(-0.0964062 0.0213413 0)
(-0.0992926 0.0210994 0)
(-0.102145 0.0208218 0)
(-0.104959 0.0205089 0)
(-0.10773 0.0201611 0)
(-0.110452 0.0197786 0)
(-0.113122 0.0193622 0)
(-0.115734 0.0189123 0)
(-0.118284 0.0184294 0)
(-0.120767 0.0179143 0)
(-0.123179 0.0173683 0)
(-0.125516 0.0167916 0)
(-0.127774 0.0161853 0)
(-0.129947 0.0155505 0)
(-0.132033 0.0148887 0)
(-0.134028 0.0142011 0)
(-0.135926 0.0134879 0)
(-0.137724 0.0127504 0)
(-0.139419 0.0119898 0)
(-0.141006 0.0112071 0)
(-0.142481 0.0104035 0)
(-0.143842 0.00957975 0)
(-0.145084 0.00873682 0)
(-0.146205 0.00787539 0)
(-0.147201 0.00699627 0)
(-0.148068 0.00610097 0)
(-0.148805 0.00518995 0)
(-0.14941 0.00426305 0)
(-0.149879 0.00332118 0)
(-0.15021 0.00236495 0)
(-0.150404 0.0013937 0)
(-0.150458 0.000409308 0)
(-0.150371 -0.000589365 0)
(-0.150145 -0.00160263 0)
(-0.149781 -0.00262913 0)
(-0.149279 -0.00366731 0)
(-0.148642 -0.0047151 0)
(-0.14787 -0.00577011 0)
(-0.146965 -0.00682987 0)
(-0.145927 -0.00789172 0)
(-0.144757 -0.00895287 0)
(-0.143456 -0.0100107 0)
(-0.142027 -0.0110629 0)
(-0.140469 -0.0121073 0)
(-0.138785 -0.0131413 0)
(-0.136978 -0.0141628 0)
(-0.13505 -0.0151695 0)
(-0.133003 -0.0161594 0)
(-0.130841 -0.0171301 0)
(-0.128564 -0.0180795 0)
(-0.126176 -0.0190051 0)
(-0.123679 -0.0199048 0)
(-0.121075 -0.0207766 0)
(-0.118366 -0.0216182 0)
(-0.115555 -0.0224284 0)
(-0.112644 -0.0232051 0)
(-0.109637 -0.0239479 0)
(-0.106535 -0.0246557 0)
(-0.103342 -0.0253274 0)
(-0.100061 -0.0259639 0)
(-0.0966955 -0.0265628 0)
(-0.0932488 -0.0271261 0)
(-0.0897234 -0.0276534 0)
(-0.0861224 -0.0281433 0)
(-0.0824486 -0.0285974 0)
(-0.078704 -0.0290158 0)
(-0.0748919 -0.0293996 0)
(-0.071014 -0.0297496 0)
(-0.0670733 -0.0300653 0)
(-0.0630737 -0.0303498 0)
(-0.0590147 -0.0306046 0)
(-0.0549036 -0.0308301 0)
(-0.0507416 -0.0310283 0)
(-0.0465232 -0.0312005 0)
(-0.0422955 -0.0313522 0)
(-0.0379419 -0.0314781 0)
(-0.0337168 -0.0315981 0)
(-0.0291624 -0.0316713 0)
(-0.0250523 -0.0316979 0)
(-0.0202001 -0.0316017 0)
(-0.0163718 -0.0319354 0)
(-0.0109915 -0.0335163 0)
(-0.00708131 -0.0359675 0)
(-0.000892163 -0.0283213 0)
(-7.44039e-05 0.00222971 0)
(-0.000144814 -0.00670068 0)
(0.00166403 -0.00376759 0)
(0.00117161 -0.00202192 0)
(0.00222382 -0.00179566 0)
(0.00203132 -0.00170147 0)
(0.00269022 -0.00155836 0)
(0.00277587 -0.00130373 0)
(0.00310939 -0.00102763 0)
(0.00327985 -0.000717083 0)
(0.00344729 -0.000377157 0)
(0.00356492 -6.81878e-06 0)
(0.00362833 0.00039287 0)
(0.00363024 0.000829121 0)
(0.00357897 0.00129002 0)
(0.00346881 0.00177888 0)
(0.00329446 0.00229505 0)
(0.00305425 0.00283701 0)
(0.00274675 0.00340369 0)
(0.00237462 0.00399074 0)
(0.00192089 0.0046078 0)
(0.00138742 0.00524187 0)
(0.000794516 0.00588916 0)
(0.000109952 0.00656707 0)
(-0.000662923 0.00725453 0)
(-0.00150388 0.00795559 0)
(-0.00242702 0.00866884 0)
(-0.00343431 0.00939237 0)
(-0.00452649 0.0101242 0)
(-0.00570394 0.0108626 0)
(-0.00696647 0.011605 0)
(-0.00831426 0.0123492 0)
(-0.00974814 0.0130933 0)
(-0.0112684 0.0138352 0)
(-0.0128744 0.0145726 0)
(-0.0145656 0.0153032 0)
(-0.0163417 0.0160252 0)
(-0.0182021 0.0167364 0)
(-0.0201451 0.0174348 0)
(-0.0221693 0.0181187 0)
(-0.0242734 0.0187859 0)
(-0.0264552 0.019435 0)
(-0.0287125 0.0200643 0)
(-0.0310433 0.0206721 0)
(-0.0334445 0.0212571 0)
(-0.0359134 0.0218173 0)
(-0.0384475 0.0223509 0)
(-0.0410444 0.0228564 0)
(-0.0437006 0.0233313 0)
(-0.0464125 0.0237742 0)
(-0.0491762 0.0241837 0)
(-0.0519879 0.0245582 0)
(-0.0548439 0.0248964 0)
(-0.0577395 0.0251974 0)
(-0.0606701 0.0254601 0)
(-0.0636312 0.0256834 0)
(-0.0666181 0.0258666 0)
(-0.0696256 0.026009 0)
(-0.072649 0.0261106 0)
(-0.0756841 0.0261703 0)
(-0.0787257 0.0261871 0)
(-0.0817681 0.0261611 0)
(-0.0848065 0.026092 0)
(-0.0878363 0.0259796 0)
(-0.0908518 0.0258242 0)
(-0.0938474 0.0256257 0)
(-0.0968187 0.025384 0)
(-0.0997609 0.0250993 0)
(-0.102668 0.024772 0)
(-0.105536 0.0244023 0)
(-0.10836 0.0239908 0)
(-0.111134 0.0235382 0)
(-0.113854 0.023045 0)
(-0.116516 0.0225117 0)
(-0.119114 0.0219393 0)
(-0.121644 0.0213285 0)
(-0.124101 0.0206802 0)
(-0.126481 0.0199956 0)
(-0.128781 0.0192756 0)
(-0.130994 0.0185212 0)
(-0.133118 0.0177338 0)
(-0.135148 0.0169148 0)
(-0.137081 0.0160647 0)
(-0.138911 0.0151852 0)
(-0.140636 0.0142773 0)
(-0.142252 0.0133422 0)
(-0.143755 0.012381 0)
(-0.145141 0.0113949 0)
(-0.146408 0.0103851 0)
(-0.147552 0.00935259 0)
(-0.14857 0.00829859 0)
(-0.14946 0.00722376 0)
(-0.150218 0.00612874 0)
(-0.150842 0.00501481 0)
(-0.151331 0.00388291 0)
(-0.151682 0.00273289 0)
(-0.151893 0.00156616 0)
(-0.151964 0.000384136 0)
(-0.151895 -0.000813058 0)
(-0.151685 -0.00202389 0)
(-0.151335 -0.00324701 0)
(-0.150844 -0.00448064 0)
(-0.150214 -0.00572243 0)
(-0.149446 -0.00696985 0)
(-0.148541 -0.0082203 0)
(-0.147498 -0.00947104 0)
(-0.14632 -0.0107194 0)
(-0.145008 -0.0119628 0)
(-0.143563 -0.0131986 0)
(-0.141987 -0.0144241 0)
(-0.14028 -0.0156366 0)
(-0.138445 -0.0168336 0)
(-0.136484 -0.0180123 0)
(-0.134399 -0.0191697 0)
(-0.132192 -0.020303 0)
(-0.129866 -0.0214102 0)
(-0.127424 -0.0224885 0)
(-0.12487 -0.0235349 0)
(-0.122204 -0.024548 0)
(-0.119431 -0.0255263 0)
(-0.116553 -0.0264683 0)
(-0.113574 -0.027373 0)
(-0.110497 -0.0282396 0)
(-0.107323 -0.0290668 0)
(-0.104059 -0.0298552 0)
(-0.100706 -0.0306045 0)
(-0.0972681 -0.0313125 0)
(-0.0937518 -0.0319809 0)
(-0.0901559 -0.0326092 0)
(-0.0864861 -0.0331976 0)
(-0.0827476 -0.0337462 0)
(-0.0789426 -0.0342558 0)
(-0.0750753 -0.0347269 0)
(-0.0711455 -0.0351602 0)
(-0.067158 -0.0355569 0)
(-0.0631186 -0.035918 0)
(-0.0590264 -0.0362456 0)
(-0.0548871 -0.0365404 0)
(-0.0507029 -0.0368034 0)
(-0.0464685 -0.0370378 0)
(-0.0422259 -0.037246 0)
(-0.0378699 -0.0374251 0)
(-0.0336351 -0.037597 0)
(-0.0290902 -0.0377118 0)
(-0.0249737 -0.0377777 0)
(-0.0201515 -0.0376934 0)
(-0.0163147 -0.038114 0)
(-0.0110275 -0.0400103 0)
(-0.00710203 -0.0428737 0)
(-0.000920713 -0.0338571 0)
(-8.1859e-05 0.00238169 0)
(-5.75781e-05 -0.00800915 0)
(0.00177771 -0.00460118 0)
(0.00136032 -0.00255659 0)
(0.00242774 -0.0022854 0)
(0.00229926 -0.00216939 0)
(0.00298597 -0.00199677 0)
(0.00312743 -0.00169421 0)
(0.00349616 -0.00136559 0)
(0.00371655 -0.000995036 0)
(0.0039262 -0.000592608 0)
(0.00408586 -0.000154322 0)
(0.00420036 0.000316966 0)
(0.00424961 0.000828301 0)
(0.00423587 0.00137051 0)
(0.00416755 0.00194501 0)
(0.00403443 0.00255053 0)
(0.00383462 0.00318589 0)
(0.00356692 0.0038494 0)
(0.00323023 0.00453938 0)
(0.002811 0.00525184 0)
(0.00231084 0.00599433 0)
(0.00174803 0.00675645 0)
(0.00109444 0.00753353 0)
(0.000347752 0.00833625 0)
(-0.000472489 0.00915431 0)
(-0.0013774 0.00998576 0)
(-0.00236912 0.0108275 0)
(-0.0034478 0.0116784 0)
(-0.00461435 0.0125368 0)
(-0.0058698 0.0134004 0)
(-0.00721444 0.0142664 0)
(-0.00864837 0.0151324 0)
(-0.0101714 0.0159962 0)
(-0.0117834 0.0168557 0)
(-0.013484 0.0177083 0)
(-0.0152729 0.0185516 0)
(-0.0171487 0.0193832 0)
(-0.01911 0.0202009 0)
(-0.0211558 0.0210024 0)
(-0.023285 0.0217852 0)
(-0.0254954 0.022547 0)
(-0.0277847 0.0232854 0)
(-0.0301501 0.0239982 0)
(-0.0325897 0.0246832 0)
(-0.0351007 0.0253379 0)
(-0.0376792 0.0259601 0)
(-0.040322 0.0265485 0)
(-0.0430258 0.0271011 0)
(-0.0457868 0.0276162 0)
(-0.0486015 0.0280923 0)
(-0.051466 0.0285278 0)
(-0.054376 0.0289213 0)
(-0.0573272 0.029272 0)
(-0.0603151 0.0295787 0)
(-0.0633349 0.0298397 0)
(-0.0663818 0.0300542 0)
(-0.0694502 0.0302218 0)
(-0.0725356 0.0303408 0)
(-0.0756339 0.030411 0)
(-0.0787392 0.0304324 0)
(-0.0818456 0.0304042 0)
(-0.0849483 0.0303253 0)
(-0.0880421 0.0301966 0)
(-0.0911217 0.0300183 0)
(-0.0941822 0.0297893 0)
(-0.097218 0.0295095 0)
(-0.100224 0.02918 0)
(-0.103195 0.0288011 0)
(-0.106125 0.028373 0)
(-0.109011 0.0278961 0)
(-0.111846 0.0273713 0)
(-0.114627 0.0267992 0)
(-0.117347 0.0261807 0)
(-0.120002 0.0255165 0)
(-0.122588 0.0248077 0)
(-0.125101 0.0240553 0)
(-0.127534 0.0232603 0)
(-0.129885 0.0224241 0)
(-0.132149 0.0215478 0)
(-0.134321 0.0206326 0)
(-0.136398 0.0196798 0)
(-0.138376 0.0186911 0)
(-0.14025 0.0176676 0)
(-0.142017 0.0166105 0)
(-0.143672 0.0155211 0)
(-0.145214 0.014401 0)