/*--------------------------------*- C++ -*----------------------------------*\
| =========                 |                                                 |
| \\      /  F ield         | OpenFOAM: The Open Source CFD Toolbox           |
|  \\    /   O peration     | Version:  v2006                                 |
|   \\  /    A nd           | Website:  www.openfoam.com                      |
|    \\/     M anipulation  |                                                 |
\*---------------------------------------------------------------------------*/
FoamFile
{
    version     2.0;
    format      ascii;
    class       volScalarField;
    location    "0";
    object      alpha.water;
}
// * * * * * * * * * * * * * * * * * * * * * * * * * * * * * * * * * * * * * //

dimensions      [0 0 0 0 0 0 0];


internalField   nonuniform List<scalar> 
67500
(
-0.0294494
-0.013078
-0.00559772
0.0158668
-0.0340282
-0.0612199
-0.113848
-0.0796449
0.150213
0.24065
0.253888
0.181684
0.0454723
-0.120564
-0.192375
-0.138806
0.0570804
0.18607
0.0984904
-0.120068
-0.185843
-0.063807
0.0114947
0.0200309
0.0163587
-0.00231015
-0.0155598
-0.00982467
0.00197733
0.0073877
0.00789996
0.00789996
0.00789996
0.00789996
0.00789996
0.00789996
0.00789996
0.00789996
0.00789996
0.00789996
0.00789996
0.00789996
0.00789996
0.00789996
0.00789996
0.00789996
0.00789996
0.00789996
0.00789996
0.00789996
0.00789996
0.00789996
0.00789996
0.00789996
0.00789996
0.00789996
0.00789996
0.00789996
0.00789996
0.00789996
0.00789996
0.00789996
0.00789996
0.00789996
0.00789996
0.00789996
0.00789996
0.00789996
0.00789996
0.00789996
0.00789996
0.00789996
0.00789996
0.00789996
0.00789996
0.00789996
0.00789996
0.00789996
0.00789996
0.00789996
0.00789996
0.00789996
0.00789996
0.00789996
0.00789996
0.00789996
0.00789996
0.00789996
0.00789996
0.00789996
0.00789996
0.00789996
0.00789996
0.00789996
0.00789996
0.00789996
0.00789996
0.00789996
0.00789996
0.00789996
0.00789996
0.00789996
0.00789996
0.00789996
0.00789996
0.00789996
0.00789996
0.00789996
0.00789996
0.00789996
0.00789996
0.00789996
0.00789996
0.00789996
0.00789996
0.00789996
0.00789996
0.00789996
0.00789996
0.00789996
0.00789996
0.00789996
0.00789996
0.00789996
0.00789996
0.00789996
0.00789996
0.00789996
0.00789996
0.00789996
0.00789996
0.00789996
0.00789996
0.00789996
0.00789996
0.00789996
0.00789996
0.00789996
0.00789996
0.00789996
0.00789996
0.00789996
0.00789996
0.00789996
0.00789996
0.00789996
0.00789996
0.00789996
0.00789996
0.00789996
0.00789996
0.00789996
0.00789996
0.00789996
0.00789996
0.00789996
0.00789996
0.00789996
0.00789996
0.00789996
0.00789996
0.00789996
0.00789996
0.00789996
0.00789996
0.00789996
0.00789996
0.00789996
0.00789996
0.00789996
0.00789996
0.00789996
0.00789996
0.00789996
0.00789996
0.00789996
0.00789996
0.00789996
0.00789996
0.00789996
0.00789996
0.00789996
0.00789996
0.00789996
0.00789996
0.00789996
0.00789996
0.00789996
0.00789996
0.00789996
0.00789996
0.00789996
0.00789996
0.00789996
0.00789996
0.00789996
0.00789996
0.00789996
0.00789996
0.00789996
0.00789996
0.00789996
0.00789996
0.00789996
0.00789996
0.00789996
0.00789996
0.00789996
0.00789996
0.00789996
0.00789996
0.00789996
0.00789996
0.00789996
0.00789996
0.00789996
0.00789996
0.00789996
0.00789996
0.00789996
0.00789996
0.00789996
0.00789996
0.00789996
0.00789996
0.00789996
0.00789996
0.00789996
0.00789996
0.00789996
0.00789996
0.00789996
0.00789996
0.00789996
0.00789996
0.00789996
0.00789996
0.00789996
0.00789996
0.00789996
0.00789996
0.00789996
0.00789996
0.00789996
0.00789996
0.00789996
0.00789996
0.00789996
0.00789996
0.00789996
0.00789996
0.00789996
0.00789996
0.00789996
0.00789996
0.00789996
0.00789996
0.00789996
0.00789996
0.00789996
0.00789996
0.00789996
0.00789996
0.00789996
0.00789996
0.00789996
0.00789996
0.00789996
0.00789996
0.00789996
0.00789996
0.00789996
0.00789996
0.00789996
0.00789996
0.00789996
0.00789996
0.00789996
0.00789996
0.00789996
0.00789996
0.00789996
0.00789996
0.00789996
0.00789996
0.00789996
0.00789996
0.00789996
0.00789996
0.00789996
0.00789996
0.00789996
0.00789996
0.00789996
0.00789996
0.00789996
0.00789996
0.00789996
0.00789996
0.00789996
0.00789996
0.00789996
0.00789996
0.00789996
0.00789996
0.00789996
0.00789996
0.00789996
0.00789996
0.00789996
0.00789996
0.00789996
0.00789996
0.00789996
0.00789996
0.00789996
0.00789996
0.00789996
0.00789996
0.00789996
0.00789996
0.00789996
0.00789996
0.00789996
0.00789996
0.00789996
0.00789996
0.00789996
0.00789996
0.00789996
0.00789996
0.00789996
0.00789996
0.00789996
0.00789996
0.00789996
0.00789996
0.00789996
0.00789996
0.00789996
0.00789996
0.00789996
0.00789996
0.00789996
0.00789996
0.00789996
0.00789996
0.00789996
0.00789996
0.00789996
0.00789996
0.00789996
0.00789996
0.00789996
0.00789996
0.00789996
0.00789996
0.00789996
0.00789996
0.00789996
0.00789996
0.00789996
0.00789996
0.00789996
0.00789996
0.00789996
0.00789996
0.00789996
0.00789996
0.00789996
0.00789996
0.00789996
0.00789996
0.00789996
0.00789996
0.00789996
0.00789996
0.00789996
0.00789996
0.00789996
0.00789996
0.00789996
0.00789996
0.00789996
0.00789996
0.00789996
0.00789996
0.00789996
0.00789996
0.00789996
0.00789996
0.00789996
0.00789996
0.00789996
0.00789996
0.00789996
0.00789996
0.00789996
0.00789996
0.00789996
0.00789996
0.00789996
0.00789996
0.00789996
0.00789996
0.00789996
0.00789996
0.00789996
0.00789996
0.00789996
0.00789996
0.00789996
0.00789996
0.00789996
0.00789996
0.00789996
0.00789996
0.00789996
0.00789996
0.00789996
0.00789996
0.00789996
0.00789996
0.00789996
0.00789996
0.00789996
0.00789996
0.00789996
0.00789996
0.00789996
0.00789996
0.00789996
0.00789996
0.00789996
0.00789996
0.00789996
0.00789996
0.00789996
0.00789996
0.00789996
0.00789996
0.00789996
0.00789996
0.00789996
0.00789996
0.00789996
0.00789996
0.00789996
0.00789996
0.00789996
0.00521517
0.00602849
0.000155142
-0.00631863
-0.105586
-0.368834
-0.494012
-0.159169
0.355576
0.510328
0.345591
0.0616654
-0.0753268
-0.00792198
-0.0942277
-0.232872
-0.285476
-0.235854
-0.122835
-0.0255826
0.0345163
0.103659
0.180169
0.222872
0.100877
-0.103499
-0.194858
-0.182333
-0.0905374
-0.000911643
0.00789996
0.00789996
0.00789996
0.00789996
0.00789996
0.00789996
0.00789996
0.00789604
0.0078797
0.00788574
0.00786141
0.00767618
0.00748642
0.00744788
0.00753645
0.00766878
0.00764016
0.00726194
0.00653029
0.00565616
0.00491483
0.00451093
0.00450082
0.00477895
0.0052369
0.00575996
0.00625961
0.00668196
0.00700496
0.00723332
0.00738433
0.0074741
0.00751553
0.00752595
0.00754649
0.00759647
0.00767497
0.00775987
0.00782909
0.00787368
0.00789364
0.00789983
0.00789996
0.00789996
0.00789996
0.00789996
0.00789996
0.00789996
0.00789996
0.00789996
0.00789996
0.00789996
0.00789996
0.00789996
0.00789996
0.00789996
0.00789996
0.00789996
0.00789996
0.00789996
0.00789996
0.00789996
0.00789996
0.00789996
0.00789996
0.00789996
0.00789996
0.00789996
0.00789996
0.00789996
0.00789996
0.00789996
0.00789996
0.00789996
0.00789996
0.00789996
0.00789996
0.00789996
0.00789996
0.00789996
0.00789996
0.00789996
0.00789996
0.00789996
0.00789996
0.00789996
0.00789996
0.00789996
0.00789996
0.00789996
0.00789996
0.00789996
0.00789996
0.00789996
0.00789996
0.00789996
0.00789996
0.00789996
0.00789996
0.00789996
0.00789996
0.00789996
0.00789996
0.00789996
0.00789996
0.00789996
0.00789996
0.00789996
0.00789996
0.00789996
0.00789996
0.00789996
0.00789996
0.00789996
0.00789996
0.00789996
0.00789996
0.00789996
0.00789996
0.00789996
0.00789996
0.00789996
0.00789996
0.00789996
0.00789996
0.00789996
0.00789996
0.00789996
0.00789996
0.00789996
0.00789996
0.00789996
0.00789996
0.00789996
0.00789996
0.00789996
0.00789996
0.00789996
0.00789996
0.00789996
0.00789996
0.00789996
0.00789996
0.00789996
0.00789996
0.00789996
0.00789996
0.00789996
0.00789996
0.00789996
0.00789996
0.00789996
0.00789996
0.00789996
0.00789996
0.00789996
0.00789996
0.00789996
0.00789996
0.00789996
0.00789996
0.00789996
0.00789996
0.00789996
0.00789996
0.00789996
0.00789996
0.00789996
0.00789996
0.00789996
0.00789996
0.00789996
0.00789996
0.00789996
0.00789996
0.00789996
0.00789996
0.00789996
0.00789996
0.00789996
0.00789996
0.00789996
0.00789996
0.00789996
0.00789996
0.00789996
0.00789996
0.00789996
0.00789996
0.00789996
0.00789996
0.00789996
0.00789996
0.00789996
0.00789996
0.00789996
0.00789996
0.00789996
0.00789996
0.00789996
0.00789996
0.00789996
0.00789996
0.00789996
0.00789996
0.00789996
0.00789996
0.00789996
0.00789996
0.00789996
0.00789996
0.00789996
0.00789996
0.00789996
0.00789996
0.00789996
0.00789996
0.00789996
0.00789996
0.00789996
0.00789996
0.00789996
0.00789996
0.00789996
0.00789996
0.00789996
0.00789996
0.00789996
0.00789996
0.00789996
0.00789996
0.00789996
0.00789996
0.00789996
0.00789996
0.00789996
0.00789996
0.00789996
0.00789996
0.00789996
0.00789996
0.00789996
0.00789996
0.00789996
0.00789996
0.00789996
0.00789996
0.00789996
0.00789996
0.00789996
0.00789996
0.00789996
0.00789996
0.00789996
0.00789996
0.00789996
0.00789996
0.00789996
0.00789996
0.00789996
0.00789996
0.00789996
0.00789996
0.00789996
0.00789996
0.00789996
0.00789996
0.00789996
0.00789996
0.00789996
0.00789996
0.00789996
0.00789996
0.00789996
0.00789996
0.00789996
0.00789996
0.00789996
0.00789996
0.00789996
0.00789996
0.00789996
0.00789996
0.00789996
0.00789996
0.00789996
0.00789996
0.00789996
0.00789996
0.00789996
0.00789996
0.00789996
0.00789996
0.00789996
0.00789996
0.00789996
0.00789996
0.00789996
0.00789996
0.00789996
0.00789996
0.00789996
0.00789996
0.00789996
0.00789996
0.00789996
0.00789996
0.00789996
0.00789996
0.00789996
0.00789996
0.00789996
0.00789996
0.00789996
0.00789996
0.00789996
0.00789996
0.00789996
0.00789996
0.00789996
0.00789996
0.00789996
0.00789996
0.00789996
0.00789996
0.00789996
0.00789996
0.00789996
0.00789996
0.00789996
0.00789996
0.00789996
0.00789996
0.00789996
0.00789996
0.00789996
0.00789996
0.00789996
0.00789996
0.00789996
0.00789996
0.00789996
0.00789996
0.00789996
0.00789996
0.00789996
0.00789996
0.00789996
0.00789996
0.00789996
0.00789996
0.00789996
0.00789996
0.00789996
0.00789996
0.00789996
0.00789996
0.00789996
0.00789996
0.00789996
0.00789996
0.00789996
0.00789996
0.00789996
0.00789996
0.00789996
0.00789996
0.00789996
0.00789996
0.00789996
0.00789996
0.00789996
0.00789996
0.00789996
0.00789996
0.00789996
0.00789996
0.00789996
0.00789996
0.00789996
0.00789996
0.00789996
0.00789996
0.00789996
0.00789996
0.00789996
0.00789996
0.00789996
0.00789996
0.00789996
0.00789996
0.00789996
0.00789996
0.00789996
0.00789996
0.00789996
0.00789996
0.00789996
0.00789996
0.00789996
0.00789996
0.00789996
0.00789996
0.00789996
0.00789996
0.00789996
0.00789996
0.00789996
0.00789996
0.00789996
0.00789996
0.00789996
0.00789996
0.00789996
0.00789996
0.00789996
0.00789996
0.00789996
0.00789996
0.00789996
0.00407706
0.0170285
-0.00211647
-0.36458
-0.372454
-0.234098
-0.108275
-0.0110238
0.312041
0.477478
0.454812
0.298491
0.0661966
-0.139717
-0.222268
-0.180114
-0.109354
-0.0502494
0.0507977
0.188367
0.231128
0.113146
-0.0446251
-0.162369
-0.206829
-0.160506
-0.0506154
0.004263
0.00789996
0.00789996
0.00966333
0.015583
0.0106652
0.00246676
0.00257054
0.00261551
-0.0182004
-0.0324982
-0.0283174
-0.0222389
-0.0227766
-0.0253821
-0.0208491
-0.00832478
0.00748355
0.0182286
0.015733
-0.000176449
-0.0221361
-0.0416015
-0.0546978
-0.0613954
-0.0631445
-0.0610783
-0.0560357
-0.0495049
-0.0429511
-0.0376799
-0.0348614
-0.034655
-0.0368447
-0.0408874
-0.0461162
-0.0510211
-0.0541208
-0.0544965
-0.052307
-0.0486751
-0.0446651
-0.0411846
-0.0387536
-0.0375478
-0.0371634
-0.0375953
-0.0380828
-0.0385376
-0.0382279
-0.0369263
-0.0341625
-0.0301767
-0.0254809
-0.0206059
-0.0159316
-0.0116474
-0.0078118
-0.00443046
-0.00149615
0.000994366
0.00304353
0.00466925
0.00590044
0.00677755
0.00734703
0.00767678
0.00783924
0.00789388
0.00789996
0.00789996
0.00789996
0.00789996
0.00789996
0.00789996
0.00789996
0.00789996
0.00789996
0.00789996
0.00789996
0.00789996
0.00789996
0.00789996
0.00789996
0.00789996
0.00789996
0.00789996
0.00789996
0.00789996
0.00789996
0.00789996
0.00789996
0.00789996
0.00789996
0.00789996
0.00789996
0.00789996
0.00789996
0.00789996
0.00789996
0.00789996
0.00789996
0.00789996
0.00789996
0.00789996
0.00789996
0.00789996
0.00789996
0.00789996
0.00789996
0.00789996
0.00789996
0.00789996
0.00789996
0.00789996
0.00789996
0.00789996
0.00789996
0.00789996
0.00789996
0.00789996
0.00789996
0.00789996
0.00789996
0.00789996
0.00789996
0.00789996
0.00789996
0.00789996
0.00789996
0.00789996
0.00789996
0.00789996
0.00789996
0.00789996
0.00789996
0.00789996
0.00789996
0.00789996
0.00789996
0.00789996
0.00789996
0.00789996
0.00789996
0.00789996
0.00789996
0.00789996
0.00789996
0.00789996
0.00789996
0.00789996
0.00789996
0.00789996
0.00789996
0.00789996
0.00789996
0.00789996
0.00789996
0.00789996
0.00789996
0.00789996
0.00789996
0.00789996
0.00789996
0.00789996
0.00789996
0.00789996
0.00789996
0.00789996
0.00789996
0.00789996
0.00789996
0.00789996
0.00789996
0.00789996
0.00789996
0.00789996
0.00789996
0.00789996
0.00789996
0.00789996
0.00789996
0.00789996
0.00789996
0.00789996
0.00789996
0.00789996
0.00789996
0.00789996
0.00789996
0.00789996
0.00789996
0.00789996
0.00789996
0.00789996
0.00789996
0.00789996
0.00789996
0.00789996
0.00789996
0.00789996
0.00789996
0.00789996
0.00789996
0.00789996
0.00789996
0.00789996
0.00789996
0.00789996
0.00789996
0.00789996
0.00789996
0.00789996
0.00789996
0.00789996
0.00789996
0.00789996
0.00789996
0.00789996
0.00789996
0.00789996
0.00789996
0.00789996
0.00789996
0.00789996
0.00789996
0.00789996
0.00789996
0.00789996
0.00789996
0.00789996
0.00789996
0.00789996
0.00789996
0.00789996
0.00789996
0.00789996
0.00789996
0.00789996
0.00789996
0.00789996
0.00789996
0.00789996
0.00789996
0.00789996
0.00789996
0.00789996
0.00789996
0.00789996
0.00789996
0.00789996
0.00789996
0.00789996
0.00789996
0.00789996
0.00789996
0.00789996
0.00789996
0.00789996
0.00789996
0.00789996
0.00789996
0.00789996
0.00789996
0.00789996
0.00789996
0.00789996
0.00789996
0.00789996
0.00789996
0.00789996
0.00789996
0.00789996
0.00789996
0.00789996
0.00789996
0.00789996
0.00789996
0.00789996
0.00789996
0.00789996
0.00789996
0.00789996
0.00789996
0.00789996
0.00789996
0.00789996
0.00789996
0.00789996
0.00789996
0.00789996
0.00789996
0.00789996
0.00789996
0.00789996
0.00789996
0.00789996
0.00789996
0.00789996
0.00789996
0.00789996
0.00789996
0.00789996
0.00789996
0.00789996
0.00789996
0.00789996
0.00789996
0.00789996
0.00789996
0.00789996
0.00789996
0.00789996
0.00789996
0.00789996
0.00789996
0.00789996
0.00789996
0.00789996
0.00789996
0.00789996
0.00789996
0.00789996
0.00789996
0.00789996
0.00789996
0.00789996
0.00789996
0.00789996
0.00789996
0.00789996
0.00789996
0.00789996
0.00789996
0.00789996
0.00789996
0.00789996
0.00789996
0.00789996
0.00789996
0.00789996
0.00789996
0.00789996
0.00789996
0.00789996
0.00789996
0.00789996
0.00789996
0.00789996
0.00789996
0.00789996
0.00789996
0.00789996
0.00789996
0.00789996
0.00789996
0.00789996
0.00789996
0.00789996
0.00789996
0.00789996
0.00789996
0.00789996
0.00789996
0.00789996
0.00789996
0.00789996
0.00789996
0.00789996
0.00789996
0.00789996
0.00789996
0.00789996
0.00789996
0.00789996
0.00789996
0.00789996
0.00789996
0.00789996
0.00789996
0.00789996
0.00789996
0.00789996
0.00789996
0.00789996
0.00789996
0.00789996
0.00789996
0.00789996
0.00789996
0.00789996
0.00789996
0.00789996
0.00789996
0.00789996
0.00789996
0.00789996
0.00789996
0.00789996
0.00789996
0.00789996
0.00789996
0.00789996
0.00789996
0.00789996
0.00789996
0.00789996
0.00789996
0.00789996
0.00789996
0.00789996
0.00789996
0.00789996
0.00789996
0.00789996
0.00789996
0.00789996
0.00789996
0.00789996
0.00789996
0.00789996
0.00789996
0.00789996
0.0071419
-0.0519118
-0.267003
-0.195722
-0.109626
-0.114948
0.118447
-0.139805
-0.207562
-0.135858
-0.0716584
-0.0151269
0.0338321
0.0881223
0.153522
0.190384
0.138562
-0.0341375
-0.173753
-0.140381
0.0159245
0.0109552
-0.0213538
-0.0426725
-0.0357171
-0.0373521
-0.0333099
-0.0230317
-0.061072
-0.0614256
0.110953
-0.014852
-0.143654
-0.0966685
-0.0123142
-0.00126168
-0.0284176
-0.0471348
-0.0535328
-0.0544041
-0.0509951
-0.0445079
-0.0366435
-0.0290935
-0.0239298
-0.021955
-0.0220246
-0.0209417
-0.0160804
-0.00672665
0.00538113
0.0187194
0.0316566
0.0428991
0.0520133
0.0584256
0.0618896
0.062533
0.0610427
0.058691
0.0568614
0.0571923
0.0605557
0.0663897
0.0734408
0.0793501
0.0821788
0.0811657
0.0758127
0.0661732
0.0527314
0.0363321
0.0174013
-0.00272335
-0.0237936
-0.0446204
-0.0648553
-0.0832266
-0.0995699
-0.113984
-0.126131
-0.135422
-0.141584
-0.144921
-0.145308
-0.142702
-0.137446
-0.130077
-0.120923
-0.110451
-0.0991231
-0.087392
-0.0761434
-0.0656304
-0.0562169
-0.0483433
-0.0414413
-0.0358691
-0.031217
-0.0271894
-0.023185
-0.0192227
-0.0154262
-0.0118996
-0.00864987
-0.00559654
-0.00268328
4.43789e-05
0.00245596
0.00441381
0.0058699
0.00685977
0.00746753
0.00778249
0.00789228
0.00789996
0.00789996
0.00789996
0.00789996
0.00789996
0.00789996
0.00789996
0.00789996
0.00789996
0.00789996
0.00789996
0.00789996
0.00789996
0.00789996
0.00789996
0.00789996
0.00789996
0.00789996
0.00789996
0.00789996
0.00789996
0.00789996
0.00789996
0.00789996
0.00789996
0.00789996
0.00789996
0.00789996
0.00789996
0.00789996
0.00789996
0.00789996
0.00789996
0.00789996
0.00789996
0.00789996
0.00789996
0.00789996
0.00789996
0.00789996
0.00789996
0.00789996
0.00789996
0.00789996
0.00789996
0.00789996
0.00789996
0.00789996
0.00789996
0.00789996
0.00789996
0.00789996
0.00789996
0.00789996
0.00789996
0.00789996
0.00789996
0.00789996
0.00789996
0.00789996
0.00789996
0.00789996
0.00789996
0.00789996
0.00789996
0.00789996
0.00789996
0.00789996
0.00789996
0.00789996
0.00789996
0.00789996
0.00789996
0.00789996
0.00789996
0.00789996
0.00789996
0.00789996
0.00789996
0.00789996
0.00789996
0.00789996
0.00789996
0.00789996
0.00789996
0.00789996
0.00789996
0.00789996
0.00789996
0.00789996
0.00789996
0.00789996
0.00789996
0.00789996
0.00789996
0.00789996
0.00789996
0.00789996
0.00789996
0.00789996
0.00789996
0.00789996
0.00789996
0.00789996
0.00789996
0.00789996
0.00789996
0.00789996
0.00789996
0.00789996
0.00789996
0.00789996
0.00789996
0.00789996
0.00789996
0.00789996
0.00789996
0.00789996
0.00789996
0.00789996
0.00789996
0.00789996
0.00789996
0.00789996
0.00789996
0.00789996
0.00789996
0.00789996
0.00789996
0.00789996
0.00789996
0.00789996
0.00789996
0.00789996
0.00789996
0.00789996
0.00789996
0.00789996
0.00789996
0.00789996
0.00789996
0.00789996
0.00789996
0.00789996
0.00789996
0.00789996
0.00789996
0.00789996
0.00789996
0.00789996
0.00789996
0.00789996
0.00789996
0.00789996
0.00789996
0.00789996
0.00789996
0.00789996
0.00789996
0.00789996
0.00789996
0.00789996
0.00789996
0.00789996
0.00789996
0.00789996
0.00789996
0.00789996
0.00789996
0.00789996
0.00789996
0.00789996
0.00789996
0.00789996
0.00789996
0.00789996
0.00789996
0.00789996
0.00789996
0.00789996
0.00789996
0.00789996
0.00789996
0.00789996
0.00789996
0.00789996
0.00789996
0.00789996
0.00789996
0.00789996
0.00789996
0.00789996
0.00789996
0.00789996
0.00789996
0.00789996
0.00789996
0.00789996
0.00789996
0.00789996
0.00789996
0.00789996
0.00789996
0.00789996
0.00789996
0.00789996
0.00789996
0.00789996
0.00789996
0.00789996
0.00789996
0.00789996
0.00789996
0.00789996
0.00789996
0.00789996
0.00789996
0.00789996
0.00789996
0.00789996
0.00789996
0.00789996
0.00789996
0.00789996
0.00789996
0.00789996
0.00789996
0.00789996
0.00789996
0.00789996
0.00789996
0.00789996
0.00789996
0.00789996
0.00789996
0.00789996
0.00789996
0.00789996
0.00789996
0.00789996
0.00789996
0.00789996
0.00789996
0.00789996
0.00789996
0.00789996
0.00789996
0.00789996
0.00789996
0.00789996
0.00789996
0.00789996
0.00789996
0.00789996
0.00789996
0.00789996
0.00789996
0.00789996
0.00789996
0.00789996
0.00789996
0.00789996
0.00789996
0.00789996
0.00789996
0.00789996
0.00789996
0.00789996
0.00789996
0.00789996
0.00789996
0.00789996
0.00789996
0.00789996
0.00789996
0.00789996
0.00789996
0.00789996
0.00789996
0.00789996
0.00789996
0.00789996
0.00789996
0.00789996
0.00789996
0.00789996
0.00789996
0.00789996
0.00789996
0.00789996
0.00789996
0.00789996
0.00789996
0.00789996
0.00789996
0.00789996
0.00789996
0.00789996
0.00789996
0.00789996
0.00789996
0.00789996
0.00789996
0.00789996
0.00789996
0.00789996
0.00789996
0.00789996
0.00789996
0.00789996
0.00789996
0.00789996
0.00789996
0.00789996
0.00789996
0.00789996
0.00789996
0.00789996
0.00789996
0.00789996
0.00789996
0.00789996
0.00789996
0.00789996
0.00789996
0.00789996
0.00789996
0.00789996
0.00789996
0.00789996
0.00789996
0.00789996
0.00789996
0.00789996
0.00789996
-0.0771408
-0.0554044
-0.14298
0.00550865
0.0076827
-0.085481
0.119007
0.0450502
-0.220585
-0.187475
-0.12536
-0.114564
-0.164226
-0.191845
-0.164983
-0.108699
-0.0303172
0.142634
0.0888275
-0.146184
-0.0452478
0.0451254
0.280293
-0.0233717
-0.112936
-0.151846
-0.16796
-0.0783172
0.117136
0.21486
0.114029
0.0708331
0.0685965
0.0701114
0.0747101
0.0702799
0.0643249
0.0582179
0.0509173
0.0411854
0.029422
0.0156315
0.000374786
-0.0155874
-0.0316336
-0.0465853
-0.0601989
-0.0731296
-0.0864143
-0.101227
-0.117469
-0.134446
-0.152271
-0.168494
-0.183141
-0.194712
-0.202157
-0.205665
-0.204477
-0.1984
-0.187308
-0.171356
-0.150974
-0.126478
-0.0988406
-0.0685378
-0.0363435
-0.0039103
0.0283106
0.0597093
0.0887488
0.114516
0.13662
0.154218
0.166795
0.174874
0.178313
0.176766
0.171043
0.16186
0.149867
0.13508
0.118092
0.0996482
0.0803281
0.060194
0.0397724
0.019373
-0.00104818
-0.0209628
-0.0409485
-0.0603604
-0.0796345
-0.0981733
-0.115478
-0.131434
-0.145565
-0.157775
-0.167199
-0.174131
-0.179174
-0.182135
-0.183354
-0.182252
-0.178237
-0.170871
-0.160002
-0.146214
-0.130523
-0.114069
-0.0973296
-0.0805693
-0.0643999
-0.0492098
-0.0354751
-0.0238118
-0.01444
-0.00755621
-0.00217569
0.00186774
0.00464638
0.00639715
0.00738326
0.00780293
0.00789996
0.00789996
0.00789996
0.00789996
0.00789996
0.00789996
0.00789996
0.00789996
0.00789996
0.00789996
0.00789996
0.00789996
0.00789996
0.00789996
0.00789996
0.00789996
0.00789996
0.00789996
0.00789996
0.00789996
0.00789996
0.00789996
0.00789996
0.00789996
0.00789996
0.00789996
0.00789996
0.00789996
0.00789996
0.00789996
0.00789996
0.00789996
0.00789996
0.00789996
0.00789996
0.00789996
0.00789996
0.00789996
0.00789996
0.00789996
0.00789996
0.00789996
0.00789996
0.00789996
0.00789996
0.00789996
0.00789996
0.00789996
0.00789996
0.00789996
0.00789996
0.00789996
0.00789996
0.00789996
0.00789996
0.00789996
0.00789996
0.00789996
0.00789996
0.00789996
0.00789996
0.00789996
0.00789996
0.00789996
0.00789996
0.00789996
0.00789996
0.00789996
0.00789996
0.00789996
0.00789996
0.00789996
0.00789996
0.00789996
0.00789996
0.00789996
0.00789996
0.00789996
0.00789996
0.00789996
0.00789996
0.00789996
0.00789996
0.00789996
0.00789996
0.00789996
0.00789996
0.00789996
0.00789996
0.00789996
0.00789996
0.00789996
0.00789996
0.00789996
0.00789996
0.00789996
0.00789996
0.00789996
0.00789996
0.00789996
0.00789996
0.00789996
0.00789996
0.00789996
0.00789996
0.00789996
0.00789996
0.00789996
0.00789996
0.00789996
0.00789996
0.00789996
0.00789996
0.00789996
0.00789996
0.00789996
0.00789996
0.00789996
0.00789996
0.00789996
0.00789996
0.00789996
0.00789996
0.00789996
0.00789996
0.00789996
0.00789996
0.00789996
0.00789996
0.00789996
0.00789996
0.00789996
0.00789996
0.00789996
0.00789996
0.00789996
0.00789996
0.00789996
0.00789996
0.00789996
0.00789996
0.00789996
0.00789996
0.00789996
0.00789996
0.00789996
0.00789996
0.00789996
0.00789996
0.00789996
0.00789996
0.00789996
0.00789996
0.00789996
0.00789996
0.00789996
0.00789996
0.00789996
0.00789996
0.00789996
0.00789996
0.00789996
0.00789996
0.00789996
0.00789996
0.00789996
0.00789996
0.00789996
0.00789996
0.00789996
0.00789996
0.00789996
0.00789996
0.00789996
0.00789996
0.00789996
0.00789996
0.00789996
0.00789996
0.00789996
0.00789996
0.00789996
0.00789996
0.00789996
0.00789996
0.00789996
0.00789996
0.00789996
0.00789996
0.00789996
0.00789996
0.00789996
0.00789996
0.00789996
0.00789996
0.00789996
0.00789996
0.00789996
0.00789996
0.00789996
0.00789996
0.00789996
0.00789996
0.00789996
0.00789996
0.00789996
0.00789996
0.00789996
0.00789996
0.00789996
0.00789996
0.00789996
0.00789996
0.00789996
0.00789996
0.00789996
0.00789996
0.00789996
0.00789996
0.00789996
0.00789996
0.00789996
0.00789996
0.00789996
0.00789996
0.00789996
0.00789996
0.00789996
0.00789996
0.00789996
0.00789996
0.00789996
0.00789996
0.00789996
0.00789996
0.00789996
0.00789996
0.00789996
0.00789996
0.00789996
0.00789996
0.00789996
0.00789996
0.00789996
0.00789996
0.00789996
0.00789996
0.00789996
0.00789996
0.00789996
0.00789996
0.00789996
0.00789996
0.00789996
0.00789996
0.00789996
0.00789996
0.00789996
0.00789996
0.00789996
0.00789996
0.00789996
0.00789996
0.00789996
0.00789996
0.00789996
0.00789996
0.00789996
0.00789996
0.00789996
0.00789996
0.00789996
0.00789996
0.00789996
0.00789996
0.00789996
0.00789996
0.00789996
0.00789996
0.00789996
0.00789996
0.00789996
0.00789996
0.00789996
0.00789996
0.00789996
0.00789996
0.00789996
0.00789996
0.00789996
0.00789996
0.00789996
0.00789996
0.00789996
0.00789996
0.00789996
0.00789996
0.00789996
0.00789996
0.00789996
0.00789996
0.00789996
0.00789996
0.00789996
0.00789996
0.00789996
0.00789996
0.00789996
0.00789996
0.00789996
0.00789996
0.00789996
0.00789996
0.00789996
0.00789996
0.00789996
0.00789996
0.00789996
0.00789996
0.00789996
0.00789996
0.00789996
0.00789996
0.00789996
0.00789996
0.00789996
-0.156706
-0.0607392
-0.00689452
0.128753
0.0665184
-0.0849496
-0.142677
0.0166315
0.0058374
-0.0986919
0.0193373
0.0805822
0.0799613
0.0159539
0.0271284
0.0944925
0.0270648
-0.163006
-0.0811257
0.135341
0.28892
0.255787
0.193235
0.120377
0.0707491
0.0410861
0.0291897
0.0518862
0.172711
0.106878
0.0381967
0.0453102
0.0532088
0.0627707
0.0746241
0.0878417
0.102189
0.117037
0.13115
0.145911
0.15947
0.173439
0.186108
0.196905
0.2054
0.209896
0.209927
0.204955
0.195104
0.180123
0.160708
0.136495
0.109207
0.077656
0.0445412
0.00995025
-0.0258486
-0.060775
-0.0938976
-0.125048
-0.152977
-0.177645
-0.198426
-0.213997
-0.225016
-0.231407
-0.232923
-0.229766
-0.22243
-0.212027
-0.198013
-0.181139
-0.161815
-0.140487
-0.117019
-0.0921532
-0.0664221
-0.0392369
-0.012121
0.01535
0.0426487
0.0696964
0.0961389
0.120652
0.143531
0.164074
0.181233
0.195203
0.205194
0.210986
0.213096
0.21046
0.204179
0.193504
0.178483
0.159737
0.136971
0.111865
0.0836058
0.0533195
0.0221194
-0.0102285
-0.0420826
-0.073554
-0.10372
-0.131613
-0.157226
-0.180013
-0.198934
-0.213722
-0.224499
-0.230717
-0.232327
-0.229169
-0.221204
-0.208713
-0.191854
-0.170892
-0.14788
-0.123937
-0.100104
-0.0770517
-0.0561481
-0.0379532
-0.0225587
-0.0109546
-0.00295239
0.00196778
0.00509967
0.00688919
0.00768064
0.00789738
0.00789996
0.00789996
0.00789996
0.00789996
0.00789996
0.00789996
0.00789996
0.00789996
0.00789996
0.00789996
0.00789996
0.00789996
0.00789996
0.00789996
0.00789996
0.00789996
0.00789996
0.00789996
0.00789996
0.00789996
0.00789996
0.00789996
0.00789996
0.00789996
0.00789996
0.00789996
0.00789996
0.00789996
0.00789996
0.00789996
0.00789996
0.00789996
0.00789996
0.00789996
0.00789996
0.00789996
0.00789996
0.00789996
0.00789996
0.00789996
0.00789996
0.00789996
0.00789996
0.00789996
0.00789996
0.00789996
0.00789996
0.00789996
0.00789996
0.00789996
0.00789996
0.00789996
0.00789996
0.00789996
0.00789996
0.00789996
0.00789996
0.00789996
0.00789996
0.00789996
0.00789996
0.00789996
0.00789996
0.00789996
0.00789996
0.00789996
0.00789996
0.00789996
0.00789996
0.00789996
0.00789996
0.00789996
0.00789996
0.00789996
0.00789996
0.00789996
0.00789996
0.00789996
0.00789996
0.00789996
0.00789996
0.00789996
0.00789996
0.00789996
0.00789996
0.00789996
0.00789996
0.00789996
0.00789996
0.00789996
0.00789996
0.00789996
0.00789996
0.00789996
0.00789996
0.00789996
0.00789996
0.00789996
0.00789996
0.00789996
0.00789996
0.00789996
0.00789996
0.00789996
0.00789996
0.00789996
0.00789996
0.00789996
0.00789996
0.00789996
0.00789996
0.00789996
0.00789996
0.00789996
0.00789996
0.00789996
0.00789996
0.00789996
0.00789996
0.00789996
0.00789996
0.00789996
0.00789996
0.00789996
0.00789996
0.00789996
0.00789996
0.00789996
0.00789996
0.00789996
0.00789996
0.00789996
0.00789996
0.00789996
0.00789996
0.00789996
0.00789996
0.00789996
0.00789996
0.00789996
0.00789996
0.00789996
0.00789996
0.00789996
0.00789996
0.00789996
0.00789996
0.00789996
0.00789996
0.00789996
0.00789996
0.00789996
0.00789996
0.00789996
0.00789996
0.00789996
0.00789996
0.00789996
0.00789996
0.00789996
0.00789996
0.00789996
0.00789996
0.00789996
0.00789996
0.00789996
0.00789996
0.00789996
0.00789996
0.00789996
0.00789996
0.00789996
0.00789996
0.00789996
0.00789996
0.00789996
0.00789996
0.00789996
0.00789996
0.00789996
0.00789996
0.00789996
0.00789996
0.00789996
0.00789996
0.00789996
0.00789996
0.00789996
0.00789996
0.00789996
0.00789996
0.00789996
0.00789996
0.00789996
0.00789996
0.00789996
0.00789996
0.00789996
0.00789996
0.00789996
0.00789996
0.00789996
0.00789996
0.00789996
0.00789996
0.00789996
0.00789996
0.00789996
0.00789996
0.00789996
0.00789996
0.00789996
0.00789996
0.00789996
0.00789996
0.00789996
0.00789996
0.00789996
0.00789996
0.00789996
0.00789996
0.00789996
0.00789996
0.00789996
0.00789996
0.00789996
0.00789996
0.00789996
0.00789996
0.00789996
0.00789996
0.00789996
0.00789996
0.00789996
0.00789996
0.00789996
0.00789996
0.00789996
0.00789996
0.00789996
0.00789996
0.00789996
0.00789996
0.00789996
0.00789996
0.00789996
0.00789996
0.00789996
0.00789996
0.00789996
0.00789996
0.00789996
0.00789996
0.00789996
0.00789996
0.00789996
0.00789996
0.00789996
0.00789996
0.00789996
0.00789996
0.00789996
0.00789996
0.00789996
0.00789996
0.00789996
0.00789996
0.00789996
0.00789996
0.00789996
0.00789996
0.00789996
0.00789996
0.00789996
0.00789996
0.00789996
0.00789996
0.00789996
0.00789996
0.00789996
0.00789996
0.00789996
0.00789996
0.00789996
0.00789996
0.00789996
0.00789996
0.00789996
0.00789996
0.00789996
0.00789996
0.00789996
0.00789996
0.00789996
0.00789996
0.00789996
0.00789996
0.00789996
0.00789996
0.00789996
0.00789996
0.00789996
0.00789996
0.00789996