/*--------------------------------*- C++ -*----------------------------------*\
| =========                 |                                                 |
| \\      /  F ield         | OpenFOAM: The Open Source CFD Toolbox           |
|  \\    /   O peration     | Version:  v2006                                 |
|   \\  /    A nd           | Website:  www.openfoam.com                      |
|    \\/     M anipulation  |                                                 |
\*---------------------------------------------------------------------------*/
FoamFile
{
    version     2.0;
    format      ascii;
    class       volVectorField;
    location    "10.9";
    object      U;
}
// * * * * * * * * * * * * * * * * * * * * * * * * * * * * * * * * * * * * * //

dimensions      [0 1 -1 0 0 0 0];


internalField   nonuniform List<vector> 
50000
(
(0.00132159 -0.00288381 0)
(0.00580631 -0.00440158 0)
(0.0111594 -0.00431999 0)
(0.0156013 -0.00403912 0)
(0.0201081 -0.00386833 0)
(0.0243845 -0.00380281 0)
(0.028682 -0.00376349 0)
(0.032933 -0.00372747 0)
(0.0371272 -0.00368002 0)
(0.0412704 -0.00362391 0)
(0.0453484 -0.00356327 0)
(0.0493585 -0.00349822 0)
(0.0532979 -0.0034293 0)
(0.0571613 -0.00335631 0)
(0.0609446 -0.00327914 0)
(0.0646442 -0.00319717 0)
(0.0682557 -0.00311039 0)
(0.0717749 -0.00301891 0)
(0.075198 -0.00292244 0)
(0.0785206 -0.00282089 0)
(0.0817384 -0.00271418 0)
(0.0848474 -0.00260254 0)
(0.0878438 -0.0024862 0)
(0.0907234 -0.00236481 0)
(0.0934815 -0.00223812 0)
(0.0961137 -0.00210678 0)
(0.0986157 -0.0019707 0)
(0.100983 -0.00182941 0)
(0.103212 -0.00168193 0)
(0.105298 -0.00152738 0)
(0.107235 -0.00136449 0)
(0.109017 -0.00119215 0)
(0.110638 -0.00100971 0)
(0.112091 -0.000816678 0)
(0.11337 -0.000614065 0)
(0.114469 -0.000405136 0)
(0.115383 -0.000194586 0)
(0.116113 1.31185e-05 0)
(0.116657 0.000216928 0)
(0.117019 0.000424645 0)
(0.117201 0.000643939 0)
(0.117176 0.000850515 0)
(0.116982 0.00101273 0)
(0.116647 0.00113844 0)
(0.116176 0.00124695 0)
(0.115577 0.00134035 0)
(0.114859 0.00140741 0)
(0.114042 0.00144262 0)
(0.11315 0.00144033 0)
(0.11221 0.00140039 0)
(0.111246 0.00133187 0)
(0.110268 0.00125069 0)
(0.109279 0.00117358 0)
(0.108272 0.00111209 0)
(0.107235 0.00106953 0)
(0.106163 0.001042 0)
(0.105051 0.0010231 0)
(0.103898 0.00100801 0)
(0.102703 0.000994641 0)
(0.101469 0.000982745 0)
(0.100195 0.00097266 0)
(0.0988824 0.000964615 0)
(0.097532 0.000958683 0)
(0.0961443 0.000954766 0)
(0.0947202 0.000952708 0)
(0.0932605 0.000952375 0)
(0.0917661 0.000953696 0)
(0.090238 0.000956689 0)
(0.0886772 0.000961314 0)
(0.0870847 0.000967514 0)
(0.0854614 0.000975272 0)
(0.0838086 0.000984518 0)
(0.0821276 0.000995212 0)
(0.0804195 0.00100725 0)
(0.0786857 0.00102064 0)
(0.0769275 0.00103557 0)
(0.0751462 0.00105251 0)
(0.0733428 0.00107177 0)
(0.0715167 0.00109414 0)
(0.0696686 0.0011207 0)
(0.067798 0.00115196 0)
(0.065903 0.0011882 0)
(0.0639816 0.00122974 0)
(0.0620325 0.0012765 0)
(0.0600542 0.00132844 0)
(0.0580444 0.00138488 0)
(0.0559983 0.00144655 0)
(0.0539139 0.0015146 0)
(0.0517897 0.0015893 0)
(0.0496204 0.00167068 0)
(0.0474001 0.00176098 0)
(0.0451235 0.00186116 0)
(0.0427844 0.00197176 0)
(0.0403733 0.00209544 0)
(0.0378783 0.00223805 0)
(0.0352888 0.00240917 0)
(0.0325843 0.00261866 0)
(0.0297376 0.00287102 0)
(0.0267304 0.00314025 0)
(0.0235662 0.00338232 0)
(0.0202804 0.00355467 0)
(0.0169403 0.00364778 0)
(0.013612 0.00366865 0)
(0.0103351 0.00363677 0)
(0.00715106 0.00356939 0)
(0.00408881 0.00347596 0)
(0.00116805 0.0033626 0)
(-0.00159799 0.00322804 0)
(-0.00419618 0.00306853 0)
(-0.00661135 0.00287928 0)
(-0.00882685 0.00264107 0)
(-0.0108221 0.00235273 0)
(-0.0125791 0.00204086 0)
(-0.0140992 0.00174038 0)
(-0.0154012 0.00146813 0)
(-0.0165074 0.00122414 0)
(-0.0174445 0.00100146 0)
(-0.018232 0.000799546 0)
(-0.0188875 0.000611713 0)
(-0.0194248 0.000432542 0)
(-0.0198505 0.000252277 0)
(-0.020168 7.42385e-05 0)
(-0.0203803 -9.33746e-05 0)
(-0.020499 -0.000249241 0)
(-0.0205307 -0.000396376 0)
(-0.0204831 -0.000536033 0)
(-0.0203563 -0.000666773 0)
(-0.0201525 -0.00079324 0)
(-0.0198767 -0.000915801 0)
(-0.0195308 -0.00103391 0)
(-0.0191141 -0.00114829 0)
(-0.0186297 -0.00125933 0)
(-0.0180786 -0.00136464 0)
(-0.017462 -0.00146357 0)
(-0.0167834 -0.00155722 0)
(-0.0160441 -0.00164484 0)
(-0.0152456 -0.0017276 0)
(-0.0143922 -0.00180453 0)
(-0.0134843 -0.00187897 0)
(-0.0125232 -0.0019506 0)
(-0.0115105 -0.00202109 0)
(-0.010448 -0.00208771 0)
(-0.00933528 -0.00215051 0)
(-0.00817674 -0.0022221 0)
(-0.0069919 -0.0023037 0)
(-0.00567328 -0.00243049 0)
(-0.00445512 -0.0025083 0)
(-0.00291222 -0.00254816 0)
(-0.00163325 -0.00227011 0)
(-7.00413e-05 -0.00169704 0)
(0.00128212 -0.00684613 0)
(0.00469489 -0.00964117 0)
(0.00911936 -0.00912549 0)
(0.0124281 -0.0085166 0)
(0.0159916 -0.00825992 0)
(0.0192358 -0.00817896 0)
(0.0226003 -0.00810961 0)
(0.0258902 -0.00802134 0)
(0.0291532 -0.00791448 0)
(0.0323744 -0.00779741 0)
(0.0355416 -0.00767303 0)
(0.0386599 -0.00754065 0)
(0.0417247 -0.00740079 0)
(0.0447316 -0.00725372 0)
(0.0476803 -0.00709945 0)
(0.0505679 -0.00693803 0)
(0.0533909 -0.00677023 0)
(0.0561495 -0.00659605 0)
(0.0588427 -0.00641513 0)
(0.0614685 -0.00622744 0)
(0.0640254 -0.00603371 0)
(0.0665112 -0.00583346 0)
(0.068925 -0.00562673 0)
(0.0712668 -0.00541343 0)
(0.073535 -0.00519346 0)
(0.0757296 -0.00496658 0)
(0.0778498 -0.00473376 0)
(0.0798942 -0.00449556 0)
(0.0818636 -0.00425117 0)
(0.0837605 -0.00400022 0)
(0.0855855 -0.00374295 0)
(0.0873377 -0.00347866 0)
(0.0890203 -0.00320691 0)
(0.0906371 -0.00292735 0)
(0.0921882 -0.00264133 0)
(0.0936742 -0.00235051 0)
(0.095096 -0.00205702 0)
(0.0964529 -0.0017637 0)
(0.0977452 -0.00147177 0)
(0.0989719 -0.00117885 0)
(0.10014 -0.000882502 0)
(0.101282 -0.000595107 0)
(0.102355 -0.000331076 0)
(0.103338 -8.40434e-05 0)
(0.104225 0.000157302 0)
(0.105004 0.000396121 0)
(0.105671 0.00062966 0)
(0.106218 0.000843713 0)
(0.106617 0.00102708 0)
(0.106854 0.00118099 0)
(0.106922 0.00131313 0)
(0.106825 0.00143468 0)
(0.106574 0.00155544 0)
(0.106187 0.00168055 0)
(0.105676 0.00181061 0)
(0.10505 0.00194333 0)
(0.104315 0.00207596 0)
(0.103475 0.00220655 0)
(0.102531 0.00233419 0)
(0.101485 0.00245864 0)
(0.100343 0.00257999 0)
(0.0991057 0.0026979 0)
(0.0977786 0.00281197 0)
(0.0963655 0.00292207 0)
(0.0948705 0.00302804 0)
(0.0932979 0.00312968 0)
(0.0916522 0.00322687 0)
(0.0899377 0.00331952 0)
(0.0881593 0.00340759 0)
(0.0863217 0.003491 0)
(0.0844295 0.00356957 0)
(0.0824875 0.00364322 0)
(0.0805006 0.00371188 0)
(0.0784736 0.00377536 0)
(0.0764112 0.00383356 0)
(0.0743186 0.00388651 0)
(0.0722011 0.00393459 0)
(0.0700638 0.00397809 0)
(0.067913 0.00401789 0)
(0.0657545 0.00405478 0)
(0.063593 0.00408922 0)
(0.0614339 0.00412244 0)
(0.0592824 0.00415521 0)
(0.0571427 0.00418829 0)
(0.0550188 0.00422218 0)
(0.0529141 0.00425657 0)
(0.0508318 0.00429304 0)
(0.0487748 0.00433319 0)
(0.0467455 0.00437731 0)
(0.0447483 0.0044262 0)
(0.0427853 0.00448224 0)
(0.040856 0.00454656 0)
(0.038966 0.00461988 0)
(0.0371196 0.00470462 0)
(0.0353194 0.00480471 0)
(0.0335725 0.00492499 0)
(0.0318914 0.0050683 0)
(0.0302909 0.00523463 0)
(0.0287887 0.00540441 0)
(0.027393 0.00554393 0)
(0.0260992 0.00561667 0)
(0.0249079 0.00560502 0)
(0.0238229 0.00550041 0)
(0.0228478 0.00531646 0)
(0.0219907 0.00506957 0)
(0.0212596 0.00477821 0)
(0.0206573 0.00446148 0)
(0.0201749 0.00412727 0)
(0.0198092 0.00378231 0)
(0.019549 0.00343244 0)
(0.0193719 0.00308156 0)
(0.0192532 0.0027289 0)
(0.0191633 0.00238159 0)
(0.0190758 0.0020567 0)
(0.0189793 0.00176783 0)
(0.0188743 0.0015206 0)
(0.0187643 0.00130833 0)
(0.0186472 0.00112905 0)
(0.0185228 0.000980713 0)
(0.0183858 0.00085084 0)
(0.0182285 0.000738399 0)
(0.0180475 0.0006348 0)
(0.0178296 0.000538387 0)
(0.0175814 0.000451299 0)
(0.0173031 0.000367396 0)
(0.0170021 0.000287679 0)
(0.0166757 0.000210982 0)
(0.0163176 0.00013426 0)
(0.0159301 6.08134e-05 0)
(0.0155099 -1.41118e-05 0)
(0.0150553 -8.74891e-05 0)
(0.0145652 -0.000161947 0)
(0.0140384 -0.000238062 0)
(0.0134729 -0.000314774 0)
(0.0128707 -0.000394428 0)
(0.0122301 -0.000472113 0)
(0.0115521 -0.00055069 0)
(0.0108395 -0.000627999 0)
(0.0100931 -0.000706744 0)
(0.00931461 -0.00078304 0)
(0.00850358 -0.000858431 0)
(0.00767005 -0.000933331 0)
(0.00679277 -0.0009995 0)
(0.00593523 -0.00107862 0)
(0.00493971 -0.00112024 0)
(0.00411458 -0.00120435 0)
(0.00287168 -0.00122289 0)
(0.00210319 -0.00148081 0)
(0.000990655 -0.00162635 0)
(0.00113138 -0.000681522 0)
(0.00126719 -0.0108717 0)
(0.00499792 -0.0154029 0)
(0.00986039 -0.0146499 0)
(0.0136092 -0.0134996 0)
(0.0174567 -0.0130012 0)
(0.0209845 -0.0128676 0)
(0.0246081 -0.0127955 0)
(0.0281838 -0.0126745 0)
(0.0317243 -0.0125144 0)
(0.0352192 -0.0123328 0)
(0.0386527 -0.0121382 0)
(0.0420276 -0.0119328 0)
(0.0453402 -0.0117163 0)
(0.0485856 -0.0114887 0)
(0.051762 -0.0112507 0)
(0.0548661 -0.0110034 0)
(0.0578944 -0.0107465 0)
(0.0608455 -0.0104801 0)
(0.0637174 -0.0102048 0)
(0.0665075 -0.0099207 0)
(0.0692144 -0.00962799 0)
(0.0718361 -0.00932689 0)
(0.0743695 -0.00901768 0)
(0.0768139 -0.00870054 0)
(0.0791697 -0.00837555 0)
(0.0814346 -0.00804278 0)
(0.083606 -0.00770382 0)
(0.0856831 -0.00735901 0)
(0.0876658 -0.0070084 0)
(0.0895521 -0.00665232 0)
(0.091341 -0.00629162 0)
(0.0930319 -0.00592639 0)
(0.0946253 -0.00555554 0)
(0.0961209 -0.00517894 0)
(0.0975182 -0.00479614 0)
(0.0988179 -0.0044061 0)
(0.100019 -0.00400922 0)
(0.101121 -0.00360812 0)
(0.102122 -0.00320781 0)
(0.103018 -0.0028171 0)
(0.10381 -0.00244284 0)
(0.104496 -0.00207534 0)
(0.105079 -0.00170039 0)
(0.105561 -0.0013194 0)
(0.105949 -0.000935046 0)
(0.106249 -0.00054351 0)
(0.106452 -0.000139854 0)
(0.106544 0.000269128 0)
(0.10653 0.000676545 0)
(0.106413 0.00106927 0)
(0.106189 0.00143764 0)
(0.105855 0.0017786 0)
(0.105409 0.00209527 0)
(0.104855 0.00239391 0)
(0.104197 0.00268093 0)
(0.103441 0.002961 0)
(0.102591 0.00323613 0)
(0.10165 0.00350615 0)
(0.100621 0.00376995 0)
(0.0995062 0.00402638 0)
(0.0983092 0.00427469 0)
(0.0970322 0.00451441 0)
(0.0956788 0.00474508 0)
(0.0942524 0.00496637 0)
(0.0927562 0.00517792 0)
(0.0911938 0.00537933 0)
(0.0895687 0.00557027 0)
(0.087885 0.00575042 0)
(0.0861466 0.00591964 0)
(0.0843575 0.00607764 0)
(0.0825218 0.00622424 0)
(0.0806438 0.00635944 0)
(0.0787278 0.00648294 0)
(0.0767778 0.00659445 0)
(0.0747982 0.00669388 0)
(0.0727933 0.00678107 0)
(0.0707677 0.00685578 0)
(0.0687256 0.00691809 0)
(0.0666714 0.0069687 0)
(0.0646099 0.00700839 0)
(0.0625464 0.00703824 0)
(0.0604853 0.00705953 0)
(0.0584312 0.00707362 0)
(0.0563888 0.00708162 0)
(0.0543616 0.00708451 0)
(0.0523538 0.00708363 0)
(0.0503695 0.00707946 0)
(0.0484124 0.00707326 0)
(0.0464863 0.00706592 0)
(0.0445958 0.00705889 0)
(0.0427445 0.00705182 0)
(0.0409346 0.00704684 0)
(0.0391724 0.00704572 0)
(0.0374634 0.00704747 0)
(0.0358116 0.0070526 0)
(0.034225 0.00705953 0)
(0.0327149 0.00706385 0)
(0.0312943 0.00705649 0)
(0.0299754 0.00702593 0)
(0.0287618 0.00695704 0)
(0.0276443 0.00683523 0)
(0.0266037 0.00664877 0)
(0.0256188 0.00639282 0)
(0.0246676 0.00607581 0)
(0.0237321 0.00571375 0)
(0.0228047 0.00531936 0)
(0.0218789 0.00491254 0)
(0.0209532 0.00449553 0)
(0.0200333 0.00407923 0)
(0.0191207 0.00366224 0)
(0.0182152 0.00325227 0)
(0.0173183 0.00286413 0)
(0.0164379 0.00251601 0)
(0.015579 0.0022112 0)
(0.0147491 0.0019427 0)
(0.0139615 0.00170017 0)
(0.0132275 0.00147752 0)
(0.0125627 0.0012764 0)
(0.0119633 0.00109415 0)
(0.0114365 0.000935864 0)
(0.0109887 0.000804522 0)
(0.0106037 0.000692096 0)
(0.0102831 0.000594258 0)
(0.0100169 0.000507103 0)
(0.00979964 0.000428526 0)
(0.00962551 0.000358043 0)
(0.00947851 0.000297475 0)
(0.0093583 0.000246631 0)
(0.00925523 0.000205624 0)
(0.00915969 0.000175582 0)
(0.00906618 0.000157145 0)
(0.00896295 0.000148767 0)
(0.00884345 0.000147049 0)
(0.00869655 0.000150792 0)
(0.00851961 0.000161941 0)
(0.00830498 0.000177552 0)
(0.00804345 0.000197328 0)
(0.00773222 0.000218624 0)
(0.00736907 0.000239101 0)
(0.00695027 0.000258937 0)
(0.00646908 0.000276096 0)
(0.00593899 0.000290453 0)
(0.00532627 0.000303249 0)
(0.00472119 0.000313003 0)
(0.00392749 0.00034371 0)
(0.00328114 0.000383245 0)
(0.00220237 0.000410097 0)
(0.00166801 2.18318e-05 0)
(0.000892314 -0.000827366 0)
(0.00137082 0.00121895 0)
(0.00125097 -0.0152817 0)
(0.00530754 -0.0218272 0)
(0.0104426 -0.0208564 0)
(0.0145458 -0.0191345 0)
(0.018676 -0.0183285 0)
(0.0224948 -0.0181106 0)
(0.0263666 -0.0180183 0)
(0.0301923 -0.0178597 0)
(0.0339698 -0.0176325 0)
(0.0376929 -0.0173671 0)
(0.0413438 -0.0170811 0)
(0.0449229 -0.0167798 0)
(0.0484273 -0.0164625 0)
(0.0518516 -0.0161292 0)
(0.0551925 -0.0157807 0)
(0.0584474 -0.0154182 0)
(0.0616131 -0.015042 0)
(0.0646872 -0.0146526 0)
(0.0676672 -0.0142508 0)
(0.0705513 -0.0138372 0)
(0.0733379 -0.0134116 0)
(0.0760248 -0.012975 0)
(0.0786109 -0.012528 0)
(0.0810955 -0.0120703 0)
(0.0834776 -0.0116026 0)
(0.0857562 -0.0111258 0)
(0.0879307 -0.0106399 0)
(0.0900005 -0.0101446 0)
(0.0919649 -0.0096403 0)
(0.0938231 -0.00912709 0)
(0.0955747 -0.00860483 0)
(0.0972192 -0.00807381 0)
(0.098756 -0.00753431 0)
(0.100184 -0.00698729 0)
(0.101504 -0.00643372 0)
(0.102717 -0.00587468 0)
(0.103824 -0.00531201 0)
(0.104826 -0.00474778 0)
(0.105725 -0.00418375 0)
(0.106521 -0.00362089 0)
(0.107211 -0.00306054 0)
(0.107793 -0.00250441 0)
(0.108265 -0.0019544 0)
(0.108626 -0.0014123 0)
(0.108873 -0.000880431 0)
(0.109005 -0.000361344 0)
(0.109034 0.000141777 0)
(0.108977 0.000631494 0)
(0.108831 0.0011118 0)
(0.10859 0.00158282 0)
(0.108253 0.00204291 0)
(0.107818 0.00249028 0)
(0.107284 0.00292419 0)
(0.106652 0.00334548 0)
(0.105923 0.00375556 0)
(0.1051 0.00415553 0)
(0.104187 0.00454574 0)
(0.103188 0.00492621 0)
(0.102105 0.00529659 0)
(0.100943 0.0056562 0)
(0.0997053 0.00600412 0)
(0.0983938 0.00633978 0)
(0.0970121 0.0066627 0)
(0.0955636 0.00697221 0)
(0.0940514 0.00726777 0)
(0.0924788 0.00754892 0)
(0.0908493 0.00781515 0)
(0.0891662 0.00806608 0)
(0.087433 0.00830125 0)
(0.085653 0.00852033 0)
(0.0838301 0.00872315 0)
(0.0819677 0.00890945 0)
(0.0800694 0.00907903 0)
(0.0781387 0.00923171 0)
(0.0761795 0.00936736 0)
(0.0741948 0.00948594 0)
(0.0721876 0.00958735 0)
(0.0701615 0.00967149 0)
(0.0681203 0.00973878 0)
(0.066067 0.00979021 0)
(0.0640044 0.00982658 0)
(0.0619364 0.00984853 0)
(0.0598666 0.00985771 0)
(0.0577987 0.00985526 0)
(0.0557364 0.00984219 0)
(0.0536837 0.00982017 0)
(0.0516437 0.00978962 0)
(0.0496204 0.00975204 0)
(0.0476178 0.00970859 0)
(0.0456393 0.00965937 0)
(0.0436894 0.00960487 0)
(0.0417725 0.00954711 0)
(0.0398922 0.00948707 0)
(0.0380537 0.00942376 0)
(0.0362628 0.00935703 0)
(0.0345247 0.00928635 0)
(0.0328451 0.00920882 0)
(0.0312266 0.00911927 0)
(0.0296722 0.00901123 0)
(0.0281812 0.00887674 0)
(0.0267463 0.00870917 0)
(0.0253565 0.00850364 0)
(0.024001 0.00825857 0)
(0.0226681 0.00797544 0)
(0.0213433 0.00765683 0)
(0.020034 0.00731262 0)
(0.0187407 0.00694953 0)
(0.0174582 0.00656963 0)
(0.0161957 0.00617894 0)
(0.0149529 0.00577956 0)
(0.0137356 0.00537545 0)
(0.012546 0.00497085 0)
(0.011388 0.00456958 0)
(0.0102713 0.00417365 0)
(0.00920688 0.00379133 0)
(0.008196 0.00342267 0)
(0.00724182 0.00306692 0)
(0.00634287 0.00272796 0)
(0.00550401 0.00240071 0)
(0.00472941 0.00209575 0)
(0.00400986 0.00180538 0)
(0.0033606 0.00153756 0)
(0.00278443 0.00129387 0)
(0.00227249 0.00107392 0)
(0.00182383 0.000879208 0)
(0.00144462 0.000705656 0)
(0.00112578 0.000554243 0)
(0.000858491 0.000425732 0)
(0.000648223 0.000317548 0)
(0.000490895 0.000231346 0)
(0.000379272 0.000168398 0)
(0.000304643 0.000128845 0)
(0.00026318 0.000108784 0)
(0.000254245 0.000111417 0)
(0.000268369 0.000133593 0)
(0.000294983 0.000170472 0)
(0.000330395 0.000223317 0)
(0.000366795 0.000288465 0)
(0.0004009 0.000362496 0)
(0.000426083 0.000441782 0)
(0.000432899 0.000524816 0)
(0.000423983 0.000608492 0)
(0.00038206 0.000688768 0)
(0.000358343 0.000786262 0)
(0.000191453 0.000901843 0)
(0.000151183 0.00108877 0)
(-0.000245187 0.00104863 0)
(2.67805e-05 0.000250394 0)
(0.000128968 -0.00119142 0)
(0.00115419 0.00241539 0)
(0.00124407 -0.0197624 0)
(0.00543199 -0.0284438 0)
(0.0106483 -0.0272634 0)
(0.0148771 -0.0249953 0)
(0.0191116 -0.0238776 0)
(0.0230426 -0.0235506 0)
(0.027003 -0.0234117 0)
(0.0309104 -0.0231956 0)
(0.0347616 -0.0228861 0)
(0.0385539 -0.0225236 0)
(0.0422685 -0.0221327 0)
(0.0459048 -0.0217213 0)
(0.0494604 -0.0212892 0)
(0.05293 -0.0208364 0)
(0.0563106 -0.0203637 0)
(0.0595995 -0.0198725 0)
(0.0627937 -0.0193641 0)
(0.065891 -0.0188398 0)
(0.068889 -0.0183006 0)
(0.0717869 -0.0177473 0)
(0.0745829 -0.017181 0)
(0.0772753 -0.0166024 0)
(0.0798634 -0.0160118 0)
(0.082347 -0.01541 0)
(0.0847249 -0.014798 0)
(0.0869963 -0.0141764 0)
(0.0891608 -0.0135457 0)
(0.0912179 -0.0129063 0)
(0.0931671 -0.012259 0)
(0.0950085 -0.0116042 0)
(0.0967418 -0.0109426 0)
(0.0983673 -0.0102746 0)
(0.0998853 -0.00960094 0)
(0.101297 -0.00892187 0)
(0.102602 -0.0082377 0)
(0.103803 -0.00754946 0)
(0.104899 -0.00685848 0)
(0.105891 -0.00616568 0)
(0.106779 -0.00547264 0)
(0.107563 -0.00478189 0)
(0.108242 -0.00409509 0)
(0.108815 -0.00341234 0)
(0.109284 -0.00273297 0)
(0.10965 -0.00205645 0)
(0.10992 -0.00138253 0)
(0.110095 -0.000710997 0)
(0.110166 -4.22063e-05 0)
(0.110126 0.00062058 0)
(0.109984 0.00126971 0)
(0.109745 0.00190295 0)
(0.109408 0.00251894 0)
(0.108973 0.00311706 0)
(0.108441 0.00369752 0)
(0.107812 0.00426101 0)
(0.107087 0.00480838 0)
(0.10627 0.00534041 0)
(0.105362 0.00585743 0)
(0.104366 0.0063594 0)
(0.103286 0.00684605 0)
(0.102125 0.00731682 0)
(0.100885 0.00777118 0)
(0.0995707 0.00820849 0)
(0.0981845 0.00862815 0)
(0.0967299 0.0090296 0)
(0.0952102 0.00941232 0)
(0.0936286 0.00977584 0)
(0.0919885 0.0101197 0)
(0.0902932 0.0104434 0)
(0.0885463 0.0107465 0)
(0.0867511 0.0110287 0)
(0.0849109 0.0112899 0)
(0.0830293 0.0115297 0)
(0.0811098 0.0117481 0)
(0.0791556 0.0119449 0)
(0.0771704 0.0121199 0)
(0.0751577 0.0122732 0)
(0.0731202 0.0124049 0)
(0.0710613 0.0125155 0)
(0.0689845 0.0126051 0)
(0.0668931 0.0126744 0)
(0.0647895 0.0127242 0)
(0.0626773 0.0127555 0)
(0.0605607 0.0127692 0)
(0.0584429 0.0127666 0)
(0.0563277 0.0127488 0)
(0.0542186 0.0127164 0)
(0.0521197 0.0126706 0)
(0.0500356 0.0126123 0)
(0.0479686 0.0125421 0)
(0.0459229 0.012461 0)
(0.0439048 0.0123699 0)
(0.0419179 0.0122684 0)
(0.0399645 0.0121573 0)
(0.0380492 0.0120368 0)
(0.0361776 0.0119047 0)
(0.0343542 0.0117611 0)
(0.0325821 0.0116022 0)
(0.0308635 0.0114242 0)
(0.0291997 0.0112241 0)
(0.0275906 0.0109973 0)
(0.026035 0.0107394 0)
(0.0245284 0.0104481 0)
(0.0230669 0.0101224 0)
(0.0216416 0.00976257 0)
(0.0202537 0.00936992 0)
(0.0189095 0.00895683 0)
(0.0175962 0.00852198 0)
(0.0163133 0.0080724 0)
(0.0150657 0.00761653 0)
(0.0138489 0.0071563 0)
(0.012662 0.00669807 0)
(0.0115026 0.00624499 0)
(0.0103711 0.00580229 0)
(0.0092747 0.00537228 0)
(0.00821402 0.00495859 0)
(0.0071829 0.0045567 0)
(0.00619212 0.00416943 0)
(0.0052422 0.00379202 0)
(0.004335 0.00343195 0)
(0.00347244 0.00308399 0)
(0.00265152 0.00275088 0)
(0.00187886 0.00243809 0)
(0.00115527 0.00213984 0)
(0.000481683 0.00185885 0)
(-0.000141159 0.00159703 0)
(-0.000709797 0.00135141 0)
(-0.00122462 0.00112387 0)
(-0.00168456 0.000917022 0)
(-0.00209156 0.000731891 0)
(-0.00244122 0.000569273 0)
(-0.00273214 0.000426655 0)
(-0.00297178 0.000311476 0)
(-0.00315451 0.000222203 0)
(-0.00328105 0.000158981 0)
(-0.00335822 0.000118845 0)
(-0.00338542 0.000102011 0)
(-0.00336571 0.000107154 0)
(-0.00330431 0.000131469 0)
(-0.00320316 0.000173966 0)
(-0.00306611 0.000228873 0)
(-0.00290039 0.000293166 0)
(-0.00270685 0.000363846 0)
(-0.00249347 0.000437613 0)
(-0.00224473 0.000542845 0)
(-0.00205436 0.000701164 0)
(-0.00174046 0.000918863 0)
(-0.00165432 0.000706017 0)
(-0.00091943 -0.000575106 0)
(-0.00034999 -0.00231434 0)
(0.000892603 0.00297309 0)
(0.00125342 -0.0243105 0)
(0.00551966 -0.0351487 0)
(0.0107922 -0.0337415 0)
(0.0150928 -0.0309241 0)
(0.0193708 -0.029495 0)
(0.023349 -0.0290551 0)
(0.0273478 -0.0288623 0)
(0.0312922 -0.0285821 0)
(0.0351762 -0.0281862 0)
(0.0389981 -0.0277236 0)
(0.0427399 -0.0272255 0)
(0.0464003 -0.0267012 0)
(0.0499773 -0.0261516 0)
(0.0534665 -0.0255767 0)
(0.0568648 -0.0249777 0)
(0.0601696 -0.0243565 0)
(0.0633786 -0.0237149 0)
(0.0664898 -0.0230548 0)
(0.0695014 -0.0223775 0)
(0.0724121 -0.0216838 0)
(0.0752204 -0.0209754 0)
(0.0779257 -0.0202533 0)
(0.0805271 -0.0195179 0)
(0.0830237 -0.0187703 0)
(0.0854146 -0.0180112 0)
(0.0876996 -0.0172413 0)
(0.0898784 -0.0164612 0)
(0.0919504 -0.0156714 0)
(0.0939152 -0.0148724 0)
(0.0957726 -0.0140648 0)
(0.0975226 -0.0132491 0)
(0.0991649 -0.012426 0)
(0.1007 -0.0115961 0)
(0.102128 -0.0107604 0)
(0.103448 -0.00991997 0)
(0.10466 -0.00907607 0)
(0.105765 -0.00822992 0)
(0.106765 -0.00738285 0)
(0.107658 -0.00653656 0)
(0.108444 -0.00569253 0)
(0.109124 -0.00485182 0)
(0.1097 -0.00401532 0)
(0.110169 -0.00318405 0)
(0.110533 -0.00235937 0)
(0.110788 -0.00154324 0)
(0.110934 -0.000738381 0)
(0.110982 5.27264e-05 0)
(0.110934 0.000831276 0)
(0.110788 0.00159848 0)
(0.110542 0.00235241 0)
(0.110197 0.00309157 0)
(0.109753 0.0038149 0)
(0.109211 0.0045218 0)
(0.108572 0.00521191 0)
(0.107838 0.00588487 0)
(0.107011 0.00654025 0)
(0.106093 0.00717765 0)
(0.105087 0.00779659 0)
(0.103996 0.0083965 0)
(0.102822 0.00897669 0)
(0.10157 0.00953647 0)
(0.10024 0.0100751 0)
(0.0988372 0.0105919 0)
(0.0973643 0.0110864 0)
(0.0958245 0.0115577 0)
(0.0942211 0.0120054 0)
(0.0925574 0.0124289 0)
(0.0908367 0.0128277 0)
(0.0890626 0.0132013 0)
(0.0872385 0.0135494 0)
(0.0853679 0.0138716 0)
(0.0834544 0.0141678 0)
(0.0815012 0.0144375 0)
(0.0795121 0.0146809 0)
(0.0774908 0.0148979 0)
(0.0754408 0.0150886 0)
(0.0733655 0.0152529 0)
(0.0712684 0.0153914 0)
(0.0691534 0.0155045 0)
(0.067024 0.0155927 0)
(0.064883 0.0156565 0)
(0.0627345 0.0156969 0)
(0.0605828 0.0157147 0)
(0.0584314 0.0157106 0)
(0.056284 0.0156858 0)
(0.0541447 0.0156407 0)
(0.0520176 0.0155769 0)
(0.0499066 0.0154951 0)
(0.0478159 0.0153949 0)
(0.0457501 0.0152791 0)
(0.043712 0.0151475 0)
(0.0417067 0.0149995 0)
(0.0397386 0.0148363 0)
(0.0378096 0.0146583 0)
(0.0359251 0.0144639 0)
(0.0340888 0.0142543 0)
(0.0323012 0.0140267 0)
(0.0305668 0.0137789 0)
(0.028888 0.01351 0)
(0.0272637 0.0132173 0)
(0.0256925 0.0129 0)
(0.0241717 0.0125555 0)
(0.0226983 0.0121851 0)
(0.0212664 0.0117847 0)
(0.0198776 0.0113666 0)
(0.0185328 0.010929 0)
(0.0172186 0.0104721 0)
(0.0159396 0.0100031 0)
(0.0146957 0.00952346 0)
(0.013482 0.00903427 0)
(0.0123034 0.00854135 0)
(0.0111584 0.00804536 0)
(0.0100478 0.00755271 0)
(0.00897648 0.00706488 0)
(0.00794453 0.00658567 0)
(0.0069514 0.00611309 0)
(0.00599836 0.00565526 0)
(0.00508725 0.00520939 0)
(0.00421975 0.00477784 0)
(0.00338996 0.00435981 0)
(0.00260146 0.00395433 0)
(0.00185472 0.00356835 0)
(0.00114829 0.00319661 0)
(0.000485658 0.00284166 0)
(-0.000138714 0.00250282 0)
(-0.000716425 0.00218505 0)
(-0.00124697 0.00188539 0)
(-0.00173649 0.00160525 0)
(-0.00217881 0.00134527 0)
(-0.00257955 0.00110884 0)
(-0.00293072 0.000891203 0)
(-0.00323082 0.000697727 0)
(-0.00348454 0.000531426 0)
(-0.00368581 0.000387733 0)
(-0.0038352 0.000268369 0)
(-0.00393241 0.000173355 0)
(-0.00397728 0.000101181 0)
(-0.00396983 5.16429e-05 0)
(-0.0039108 2.30924e-05 0)
(-0.00380296 1.27906e-05 0)
(-0.00364686 1.63541e-05 0)
(-0.00344544 2.87544e-05 0)
(-0.00320341 5.1089e-05 0)
(-0.0029108 0.000115816 0)
(-0.00263575 0.000263285 0)
(-0.0022267 0.00043181 0)
(-0.00199005 3.55315e-05 0)
(-0.00119958 -0.00168885 0)
(-0.000549609 -0.00363642 0)
(0.00071838 0.00315241 0)
(0.00126168 -0.0289189 0)
(0.00562029 -0.0419506 0)
(0.0109915 -0.0403243 0)
(0.0154033 -0.0369325 0)
(0.0197446 -0.0351696 0)
(0.0237818 -0.0346046 0)
(0.0278285 -0.0343553 0)
(0.0318219 -0.0340099 0)
(0.0357525 -0.0335251 0)
(0.0396178 -0.0329588 0)
(0.0434002 -0.0323494 0)
(0.0470977 -0.0317091 0)
(0.0507086 -0.0310391 0)
(0.0542289 -0.0303398 0)
(0.0576563 -0.0296124 0)
(0.0609882 -0.0288597 0)
(0.0642224 -0.0280839 0)
(0.0673572 -0.0272873 0)
(0.0703918 -0.0264711 0)
(0.0733244 -0.0256373 0)
(0.0761536 -0.0247874 0)
(0.0788789 -0.0239225 0)
(0.0814998 -0.0230434 0)
(0.0840154 -0.0221513 0)
(0.0864251 -0.021247 0)
(0.0887281 -0.0203313 0)
(0.0909242 -0.019405 0)
(0.0930132 -0.018469 0)
(0.0949944 -0.0175239 0)
(0.0968674 -0.0165704 0)
(0.0986318 -0.0156093 0)
(0.100288 -0.0146416 0)
(0.101835 -0.0136675 0)
(0.103273 -0.0126883 0)
(0.104602 -0.0117053 0)
(0.105823 -0.0107191 0)
(0.106936 -0.00973068 0)
(0.10794 -0.00874152 0)
(0.108836 -0.00775291 0)
(0.109623 -0.00676595 0)
(0.110301 -0.00578202 0)
(0.110871 -0.00480252 0)
(0.111332 -0.00382866 0)
(0.111685 -0.00286166 0)
(0.111935 -0.00190218 0)
(0.112082 -0.00095 0)
(0.112122 -6.3463e-06 0)
(0.112054 0.000925797 0)
(0.111882 0.0018431 0)
(0.111609 0.00274416 0)
(0.111235 0.00362779 0)
(0.110761 0.00449297 0)
(0.110188 0.00533873 0)
(0.109519 0.00616447 0)
(0.108753 0.00696976 0)
(0.107895 0.00775406 0)
(0.106945 0.0085167 0)
(0.105907 0.00925697 0)
(0.104783 0.00997409 0)
(0.103576 0.0106674 0)
(0.102289 0.0113359 0)
(0.100925 0.0119791 0)
(0.0994862 0.012596 0)
(0.0979769 0.013186 0)
(0.0964001 0.0137485 0)
(0.094759 0.0142827 0)
(0.0930569 0.0147879 0)
(0.0912972 0.0152636 0)
(0.0894834 0.0157094 0)
(0.0876192 0.0161248 0)
(0.0857083 0.0165092 0)
(0.0837539 0.0168626 0)
(0.0817599 0.0171845 0)
(0.0797301 0.0174753 0)
(0.0776682 0.0177346 0)
(0.0755778 0.0179624 0)
(0.0734628 0.0181588 0)
(0.071327 0.0183243 0)
(0.0691743 0.0184593 0)
(0.0670083 0.0185641 0)
(0.0648325 0.0186393 0)
(0.0626511 0.018686 0)
(0.0604686 0.0187045 0)
(0.0582883 0.0186959 0)
(0.0561139 0.0186609 0)
(0.0539504 0.0186006 0)
(0.0518019 0.0185158 0)
(0.0496699 0.0184072 0)
(0.0475606 0.0182755 0)
(0.0454784 0.018122 0)
(0.0434244 0.017947 0)
(0.0414043 0.0177513 0)
(0.0394221 0.0175348 0)
(0.0374784 0.0172981 0)
(0.0355795 0.0170407 0)
(0.0337279 0.0167626 0)
(0.0319224 0.0164634 0)
(0.0301675 0.0161421 0)
(0.0284642 0.0157974 0)
(0.026813 0.0154271 0)
(0.0252128 0.0150319 0)
(0.0236616 0.0146104 0)
(0.0221528 0.0141632 0)
(0.0206918 0.0136898 0)
(0.0192829 0.0132005 0)
(0.0179149 0.0126908 0)
(0.0165881 0.0121658 0)
(0.0153039 0.0116302 0)
(0.0140585 0.0110865 0)
(0.0128538 0.0105369 0)
(0.0116886 0.00998656 0)
(0.0105618 0.00943894 0)
(0.00947492 0.00889696 0)
(0.00843169 0.00836105 0)
(0.00742789 0.00783534 0)
(0.00646388 0.00731779 0)
(0.00554826 0.00681312 0)
(0.00467374 0.00632084 0)
(0.00384388 0.00584063 0)
(0.00305477 0.00537396 0)
(0.00231289 0.00492073 0)
(0.00161802 0.00448419 0)
(0.000964164 0.00406345 0)
(0.000353939 0.00365968 0)
(-0.000210803 0.00327147 0)
(-0.000730741 0.00290353 0)
(-0.00121275 0.00255034 0)
(-0.00165251 0.00221724 0)
(-0.00204992 0.00190375 0)
(-0.0024085 0.00160906 0)
(-0.00272449 0.0013372 0)
(-0.00299345 0.00108457 0)
(-0.00322101 0.000854222 0)
(-0.00340683 0.000644537 0)
(-0.00354771 0.000459248 0)
(-0.00364353 0.000296367 0)
(-0.00369284 0.000155668 0)
(-0.00369575 3.56799e-05 0)
(-0.00365246 -6.23893e-05 0)
(-0.00356346 -0.000141243 0)
(-0.00343089 -0.000204372 0)
(-0.0032534 -0.000257244 0)
(-0.00303317 -0.000297553 0)
(-0.00276438 -0.000289737 0)
(-0.00250325 -0.000182755 0)
(-0.00211362 -6.4726e-05 0)
(-0.00188921 -0.000600418 0)
(-0.00119925 -0.00269232 0)
(-0.000605779 -0.00491006 0)
(0.000642443 0.00319331 0)
(0.00125987 -0.0336031 0)
(0.00573757 -0.048915 0)
(0.0112487 -0.0470933 0)
(0.0158165 -0.0430943 0)
(0.0202549 -0.0409543 0)
(0.0243769 -0.0402428 0)
(0.0284882 -0.0399326 0)
(0.0325484 -0.0395212 0)
(0.0365437 -0.0389447 0)
(0.0404691 -0.0382695 0)
(0.0443073 -0.0375431 0)
(0.0480553 -0.0367816 0)
(0.0517121 -0.0359867 0)
(0.0552748 -0.0351587 0)
(0.0587406 -0.0342995 0)
(0.0621075 -0.033412 0)
(0.0653738 -0.0324992 0)
(0.0685387 -0.0315632 0)
(0.0716008 -0.0306062 0)
(0.0745581 -0.0296304 0)
(0.0774105 -0.0286371 0)
(0.0801581 -0.0276275 0)
(0.0827998 -0.0266027 0)
(0.0853347 -0.0255639 0)
(0.0877625 -0.0245125 0)
(0.0900827 -0.0234491 0)
(0.0922948 -0.0223741 0)
(0.0943987 -0.0212886 0)
(0.0963939 -0.0201932 0)
(0.09828 -0.0190886 0)
(0.100057 -0.0179756 0)
(0.101724 -0.016855 0)
(0.103281 -0.0157278 0)
(0.104728 -0.0145948 0)
(0.106064 -0.0134571 0)
(0.10729 -0.0123157 0)
(0.108405 -0.0111722 0)
(0.10941 -0.010028 0)
(0.110304 -0.00888426 0)
(0.111087 -0.00774269 0)
(0.11176 -0.00660477 0)
(0.112323 -0.00547173 0)
(0.112777 -0.00434493 0)
(0.113121 -0.00322557 0)
(0.113354 -0.00211549 0)
(0.113476 -0.00101786 0)
(0.113492 6.5692e-05 0)
(0.113405 0.00113538 0)
(0.113213 0.00219007 0)
(0.112916 0.0032279 0)
(0.112516 0.0042476 0)
(0.112014 0.00524796 0)
(0.111411 0.00622759 0)
(0.110709 0.0071852 0)
(0.109911 0.00811975 0)
(0.109018 0.0090305 0)
(0.108033 0.00991661 0)
(0.106958 0.010777 0)
(0.105795 0.0116106 0)
(0.104549 0.0124167 0)
(0.103221 0.0131941 0)
(0.101815 0.0139418 0)
(0.100334 0.014659 0)
(0.098781 0.0153449 0)
(0.0971596 0.0159987 0)
(0.095473 0.0166196 0)
(0.0937248 0.0172067 0)
(0.0919186 0.0177595 0)
(0.0900578 0.0182776 0)
(0.0881462 0.0187603 0)
(0.0861876 0.019207 0)
(0.0841858 0.0196174 0)
(0.0821445 0.0199914 0)
(0.0800675 0.0203288 0)
(0.0779587 0.0206294 0)
(0.0758219 0.0208934 0)
(0.0736611 0.0211208 0)
(0.0714805 0.0213118 0)
(0.0692839 0.0214669 0)
(0.067075 0.0215864 0)
(0.0648578 0.0216709 0)
(0.0626366 0.0217213 0)
(0.0604155 0.0217381 0)
(0.0581982 0.0217226 0)
(0.0559885 0.0216751 0)
(0.0537911 0.0215968 0)
(0.0516092 0.0214886 0)
(0.0494458 0.0213512 0)
(0.0473064 0.0211859 0)
(0.0451948 0.0209928 0)
(0.0431128 0.0207738 0)
(0.0410649 0.0205296 0)
(0.0390548 0.02026 0)
(0.0370842 0.0199655 0)
(0.035157 0.019648 0)
(0.0332767 0.0193054 0)
(0.0314427 0.0189389 0)
(0.0296577 0.0185491 0)
(0.0279224 0.0181354 0)
(0.0262388 0.0176981 0)
(0.0246063 0.0172365 0)
(0.0230217 0.0167518 0)
(0.0214831 0.0162409 0)
(0.0199977 0.0157166 0)
(0.0185626 0.0151721 0)
(0.0171713 0.0146106 0)
(0.0158239 0.0140352 0)
(0.014522 0.0134491 0)
(0.0132627 0.0128533 0)