/*--------------------------------*- C++ -*----------------------------------*\
| =========                 |                                                 |
| \\      /  F ield         | OpenFOAM: The Open Source CFD Toolbox           |
|  \\    /   O peration     | Version:  v2006                                 |
|   \\  /    A nd           | Website:  www.openfoam.com                      |
|    \\/     M anipulation  |                                                 |
\*---------------------------------------------------------------------------*/
FoamFile
{
    version     2.0;
    format      ascii;
    class       volScalarField;
    location    "6.5";
    object      r;
}
// * * * * * * * * * * * * * * * * * * * * * * * * * * * * * * * * * * * * * //

dimensions      [1 2 0 0 0 0 0];


internalField   nonuniform List<scalar> 
350
(
-1.01819e-179
-2.47186e-176
-5.9279e-173
-1.40488e-169
-3.28916e-166
-7.60452e-163
-1.73551e-159
-3.90812e-156
-8.67967e-153
-1.90032e-149
-4.09947e-146
-8.70911e-143
-1.82107e-139
-3.74565e-136
-7.57363e-133
-1.50441e-129
-2.93361e-126
-5.61153e-123
-1.05208e-119
-1.93161e-116
-3.46965e-113
-6.09122e-110
-1.04399e-106
-1.74479e-103
-2.83976e-100
-4.49465e-97
-6.90743e-94
-1.02898e-90
-1.48303e-87
-2.06374e-84
-2.76642e-81
-3.5631e-78
-4.39674e-75
-5.18098e-72
-5.80845e-69
-6.16918e-66
-6.17692e-63
-5.79683e-60
-5.06426e-57
-4.0849e-54
-3.01178e-51
-2.00442e-48
-1.18486e-45
-6.0886e-43
-2.63895e-40
-9.21706e-38
-2.39946e-35
-3.93293e-33
-1.96649e-31
3.99848e-29
3.46026e-28
1.36242e-27
-3.59447e-29
-2.91385e-26
-2.28139e-25
-1.17896e-24
-4.71871e-24
-1.65694e-23
-4.57798e-23
-7.30936e-23
7.35018e-23
9.40822e-22
3.60595e-21
9.38263e-21
1.88071e-20
3.02723e-20
3.94955e-20
2.47352e-20
-1.94817e-20
-7.15495e-20
-1.95288e-19
7.42932e-19
2.07946e-18
1.82575e-18
-2.87184e-18
-6.49822e-18
-1.01249e-17
-1.21994e-17
2.63422e-17
4.72405e-17
6.86903e-17
1.35186e-16
-2.14562e-16
1.56099e-15
-7.93022e-16
5.43142e-16
-1.17543e-15
7.36868e-15
-8.60511e-15
7.69017e-15
-1.11078e-14
2.3919e-14
-2.78137e-14
-1.6376e-15
-4.28337e-14
2.69739e-14
-2.44919e-13
-4.39641e-14
-1.6208e-13
3.28851e-13
-2.16448e-13
7.39766e-13
-1.49553e-12
2.37335e-12
-9.01214e-14
4.90697e-12
-2.48749e-12
-9.41466e-12
2.94894e-11
-4.7166e-11
3.77292e-11
-2.63344e-11
3.82268e-11
8.7097e-11
-1.46793e-10
2.34482e-10
3.72095e-10
-4.10274e-10
7.33997e-10
-1.43359e-09
-1.29261e-09
-2.27568e-09
-6.1864e-09
-5.39494e-10
-2.12639e-08
-2.35101e-08
-8.39068e-09
-5.21427e-08
-1.71181e-08
-1.31948e-07
-1.45702e-07
-2.13987e-07
-1.36536e-07
-1.43496e-08
-9.91986e-08
-1.67718e-07
2.62534e-07
-5.25228e-07
5.81403e-07
-3.28706e-06
-6.16658e-06
-1.29348e-05
-1.27322e-05
3.55749e-06
1.70942e-06
-1.28809e-05
-0.000139325
-0.000146866
0.000123405
0.00115924
0.00389515
0.00992155
0.0217116
0.0428231
0.0780275
0.13331
0.215702
0.332914
0.492789
0.7026
0.968284
1.29369
1.67993
2.12503
2.62373
3.1677
3.74604
4.34598
4.95375
5.55554
6.13838
6.69091
7.20393
7.67072
8.08715
8.45159
8.76457
9.02847
9.247
9.42479
9.56694
9.67866
9.765
9.83062
9.87968
9.91577
9.94189
9.9605
9.97354
9.98254
9.98866
9.99272
9.99545
9.99697
9.99869
9.99895
9.99831
9.99585
9.99003
9.97843
9.95751
9.92253
9.86749
9.78535
9.66838
9.50872
9.29906
9.03344
8.708
8.32158
7.87619
7.3771
6.83265
6.2538
5.65336
5.04514
4.44297
3.85986
3.30719
2.79415
2.32745
1.91119
1.547
1.23429
0.97067
0.752404
0.574851
0.432898
0.321327
0.235095
0.169541
0.120515
0.084438
0.0583105
0.039687
0.0266201
0.0175947
0.0114579
0.00735006
0.00464339
0.00288798
0.00176762
0.0010641
0.000629618
0.000365828
0.00020848
0.000116351
6.34518e-05
3.37257e-05
1.73574e-05
8.62974e-06
3.98772e-06
1.81239e-06
5.65812e-07
2.06379e-07
5.11112e-10
2.61341e-10
7.29316e-11
5.79039e-11
3.99968e-11
2.49281e-11
1.42417e-11
7.54315e-12
3.54505e-12
1.49183e-12
-1.2819e-14
-7.37659e-14
-8.39846e-14
-8.7208e-14
-8.55467e-14
-8.01419e-14
-7.21412e-14
-6.26645e-14
-5.27829e-14
-4.33854e-14
-3.50858e-14
-2.82921e-14
-2.31139e-14
-1.94204e-14
-1.69151e-14
-1.5265e-14
-1.41876e-14
-1.34706e-14
-1.29574e-14
-1.25251e-14
-1.20663e-14
-1.14769e-14
-1.06537e-14
-9.50475e-15
-7.97103e-15
-6.04844e-15
-3.80074e-15
-1.35494e-15
1.121e-15
3.45337e-15
5.49923e-15
7.17177e-15
8.44489e-15
9.34071e-15
9.90725e-15
1.02021e-14
1.02787e-14
1.01748e-14
9.90888e-15
9.51556e-15
9.01969e-15
8.44905e-15
7.81636e-15
7.12802e-15
6.38244e-15
5.573e-15
4.69461e-15
3.74572e-15
2.73414e-15
1.67757e-15
6.03825e-16
-4.52998e-16
-1.45723e-15
-2.37697e-15
-3.18787e-15
-3.87511e-15
-4.4331e-15
-4.86403e-15
-5.17569e-15
-5.37919e-15
-5.48743e-15
-5.51345e-15
-5.46817e-15
-5.35943e-15
-5.19827e-15
-4.99336e-15
-4.75479e-15
-4.49021e-15
-4.20581e-15
-3.90747e-15
-3.59836e-15
-3.28271e-15
-2.96291e-15
-2.64268e-15
-2.32489e-15
-2.01383e-15
-1.71294e-15
-1.42684e-15
-1.15903e-15
-9.13234e-16
-6.92197e-16
-4.97787e-16
-3.31231e-16
-1.92427e-16
-7.97999e-17
)
;

boundaryField
{
    right
    {
        type            zeroGradient;
    }
    left
    {
        type            inletOutlet;
        inletValue      uniform 0;
        value           uniform 0;
    }
    top
    {
        type            zeroGradient;
    }
    bottom
    {
        type            zeroGradient;
    }
    empty
    {
        type            empty;
    }
}


// ************************************************************************* //
