/*--------------------------------*- C++ -*----------------------------------*\
| =========                 |                                                 |
| \\      /  F ield         | OpenFOAM: The Open Source CFD Toolbox           |
|  \\    /   O peration     | Version:  v2006                                 |
|   \\  /    A nd           | Website:  www.openfoam.com                      |
|    \\/     M anipulation  |                                                 |
\*---------------------------------------------------------------------------*/
FoamFile
{
    version     2.0;
    format      ascii;
    class       volScalarField;
    location    "0";
    object      p;
}
// * * * * * * * * * * * * * * * * * * * * * * * * * * * * * * * * * * * * * //

dimensions      [1 -1 -2 0 0 0 0];


internalField   nonuniform List<scalar> 
67500
(
20.6397
18.8779
19.0224
18.598
17.924
16.2279
13.4349
12.417
9.69472
8.79813
6.55391
5.6369
4.77742
4.20754
4.32003
4.00499
3.54579
3.2265
3.04596
2.97241
3.01299
3.16338
3.39411
3.67876
3.99532
4.31348
4.59666
4.81436
4.95434
5.02698
5.05957
5.08602
5.13796
5.23895
5.40328
5.63876
5.9492
6.33149
6.76735
7.21277
7.58802
7.78498
7.74962
7.59171
7.45592
7.39695
7.40905
7.46055
7.51898
7.59522
7.73504
7.94745
8.20076
8.46143
8.71332
8.96312
9.22051
9.47916
9.72489
9.94893
10.1512
10.3329
10.4908
10.6205
10.7207
10.7911
10.831
10.8408
10.8229
10.7799
10.714
10.6274
10.522
10.3992
10.2604
10.1068
9.93962
9.76007
9.56942
9.36895
9.15993
8.9436
8.72121
8.49394
8.2629
8.02912
7.79353
7.55695
7.32013
7.08376
6.84846
6.61478
6.38325
6.15434
5.92847
5.70603
5.48736
5.27274
5.06242
4.85665
4.65561
4.45948
4.26842
4.08256
3.90203
3.72693
3.55736
3.39338
3.23506
3.08245
2.93555
2.79437
2.65889
2.52909
2.4049
2.28624
2.17304
2.06517
1.96253
1.86497
1.77236
1.68454
1.60135
1.52263
1.4482
1.3779
1.31156
1.24899
1.19005
1.13455
1.08233
1.03324
0.987123
0.943827
0.903209
0.865129
0.829454
0.796056
0.764811
0.735602
0.708316
0.682848
0.659093
0.636955
0.616343
0.597167
0.579344
0.562795
0.547445
0.533222
0.520057
0.507885
0.496644
0.486274
0.476717
0.467919
0.459825
0.452385
0.445549
0.439267
0.433494
0.428183
0.42329
0.418771
0.414584
0.410689
0.407045
0.403614
0.400358
0.397241
0.394228
0.391285
0.388379
0.38548
0.382557
0.379583
0.376531
0.373377
0.370098
0.366673
0.363085
0.359317
0.355356
0.351191
0.346815
0.342221
0.337407
0.332372
0.32712
0.321654
0.315983
0.310115
0.304062
0.297836
0.291453
0.284927
0.278276
0.271517
0.264668
0.257747
0.250772
0.243761
0.236732
0.229702
0.222688
0.215704
0.208767
0.201888
0.195082
0.188359
0.18173
0.175205
0.168791
0.162496
0.156326
0.150286
0.14438
0.138612
0.132983
0.127496
0.122151
0.116949
0.111889
0.10697
0.102191
0.0975494
0.0930439
0.0886716
0.0844298
0.0803153
0.0763252
0.072456
0.0687044
0.0650668
0.0615399
0.0581201
0.0548039
0.0515879
0.0484687
0.045443
0.0425077
0.0396596
0.0368957
0.0342133
0.0316097
0.0290822
0.0266284
0.0242461
0.0219331
0.0196876
0.0175075
0.0153914
0.0133377
0.0113449
0.00941191
0.00753755
0.00572085
0.00396097
0.00225715
0.000608756
-0.000984752
-0.00252383
-0.00400888
-0.0054402
-0.00681808
-0.00814275
-0.00941442
-0.0106333
-0.0117995
-0.0129133
-0.0139749
-0.0149845
-0.0159425
-0.0168492
-0.0177049
-0.0185101
-0.0192654
-0.0199712
-0.0206283
-0.0212374
-0.0217992
-0.0223145
-0.0227842
-0.0232094
-0.023591
-0.02393
-0.0242276
-0.0244851
-0.0247035
-0.0248842
-0.0250287
-0.0251382
-0.0252143
-0.0252586
-0.0252725
-0.0252577
-0.0252157
-0.0251481
-0.0250564
-0.0249421
-0.0248066
-0.0246513
-0.0244772
-0.0242856
-0.0240775
-0.0238539
-0.0236156
-0.0233638
-0.0230991
-0.0228227
-0.0225354
-0.0222384
-0.0219326
-0.0216192
-0.0212993
-0.0209741
-0.0206448
-0.0203126
-0.0199785
-0.0196436
-0.019309
-0.0189757
-0.0186445
-0.0183162
-0.0179914
-0.0176709
-0.0173551
-0.0170444
-0.0167392
-0.0164399
-0.0161465
-0.0158593
-0.0155783
-0.0153036
-0.0150351
-0.0147729
-0.0145168
-0.0142667
-0.0140226
-0.0137843
-0.0135516
-0.0133244
-0.0131025
-0.0128857
-0.0126739
-0.0124669
-0.0122644
-0.0120663
-0.0118725
-0.0116828
-0.0114969
-0.0113148
-0.0111362
-0.0109611
-0.0107892
-0.0106205
-0.0104548
-0.0102919
-0.0101318
-0.00997425
-0.00981924
-0.00966663
-0.00951632
-0.0093682
-0.00922218
-0.00907817
-0.00893609
-0.00879585
-0.00865738
-0.0085206
-0.00838545
-0.00825185
-0.00811975
-0.00798908
-0.0078598
-0.00773184
-0.00760517
-0.00747971
-0.00735544
-0.00723231
-0.00711027
-0.00698929
-0.00686933
-0.00675035
-0.00663232
-0.00651521
-0.00639899
-0.00628362
-0.00616907
-0.00605533
-0.00594237
-0.00583015
-0.00571866
-0.00560787
-0.00549777
-0.00538833
-0.00527953
-0.00517135
-0.00506377
-0.00495677
-0.00485034
-0.00474446
-0.0046391
-0.00453427
-0.00442994
-0.00432609
-0.00422272
-0.0041198
-0.00401733
-0.00391529
-0.00381366
-0.00371244
-0.00361161
-0.00351117
-0.00341109
-0.00331137
-0.003212
-0.00311296
-0.00301424
-0.00291583
-0.00281773
-0.00271991
-0.00262237
-0.0025251
-0.00242809
-0.00233133
-0.00223481
-0.00213851
-0.00204243
-0.00194656
-0.00185088
-0.00175539
-0.00166009
-0.00156495
-0.00146997
-0.00137514
-0.00128046
-0.0011859
-0.00109147
-0.00099714
-0.000902911
-0.000808773
-0.000714717
-0.000620726
-0.000526826
-0.00043288
-0.000339293
-0.000244483
-0.000152886
-4.38644e-05
19.6198
17.3843
17.6304
17.1917
16.011
14.9402
14.2338
13.6066
12.4054
2.71545
-0.914188
5.47038
8.29589
6.8681
5.08142
4.23328
3.67643
3.23025
2.97144
2.85922
2.88308
3.02854
3.25614
3.5397
3.86001
4.18153
4.45772
4.65056
4.74812
4.76942
4.75084
4.73181
4.74623
4.81717
4.95687
5.17349
5.47634
5.87026
6.34458
6.86136
7.33155
7.58028
7.46878
7.21186
7.03857
6.99016
7.04192
7.13925
7.21189
7.27216
7.41402
7.65255
7.9349
8.21177
8.46092
8.70475
8.9674
9.23868
9.49587
9.72655
9.93486
10.1265
10.2958
10.4356
10.5456
10.6259
10.6743
10.6915
10.6806
10.6446
10.5855
10.5059
10.4075
10.2916
10.1594
10.0121
9.85091
9.67701
9.49169
9.29621
9.09186
8.87991
8.66162
8.43821
8.21082
7.98049
7.74814
7.51462
7.28067
7.04697
6.81414
6.58276
6.35336
6.12643
5.9024
5.68166
5.46455
5.25139
5.04242
4.83788
4.63798
4.44289
4.25278
4.06779
3.88805
3.71368
3.54478
3.38142
3.22368
3.07159
2.92519
2.78448
2.64946
2.52008
2.39629
2.27803
2.1652
2.0577
1.95541
1.8582
1.76592
1.67842
1.59554
1.51712
1.44298
1.37296
1.30688
1.24458
1.18588
1.13061
1.07862
1.02974
0.983825
0.940721
0.900285
0.862377
0.826866
0.793622
0.762523
0.733452
0.706297
0.68095
0.657311
0.635283
0.614772
0.595693
0.577962
0.561499
0.54623
0.532084
0.518992
0.506889
0.495714
0.485407
0.475911
0.46717
0.459132
0.451746
0.444961
0.438729
0.433004
0.42774
0.422892
0.418418
0.414274
0.41042
0.406816
0.403424
0.400205
0.397125
0.394147
0.391237
0.388363
0.385494
0.382601
0.379654
0.376627
0.373496
0.370237
0.366831
0.363259
0.359505
0.355556
0.351399
0.347029
0.342438
0.337624
0.332588
0.327331
0.321858
0.316178
0.310299
0.304233
0.297993
0.291594
0.285051
0.278383
0.271606
0.264739
0.2578
0.250807
0.243779
0.236733
0.229687
0.222657
0.215659
0.208707
0.201816
0.194998
0.188265
0.181627
0.175093
0.168672
0.162371
0.156196
0.150152
0.144243
0.138472
0.132842
0.127354
0.122009
0.116807
0.111748
0.10683
0.102053
0.0974137
0.0929107
0.0885411
0.0843023
0.080191
0.0762042
0.0723384
0.0685902
0.0649562
0.0614327
0.0580164
0.0547036
0.051491
0.0483751
0.0453526
0.0424204
0.0395752
0.0368142
0.0341345
0.0315334
0.0290083
0.0265568
0.0241767
0.0218657
0.0196219
0.0174436
0.015329
0.0132766
0.0112851
0.0093532
0.00747982
0.00566399
0.00390485
0.00220168
0.000553832
-0.00103921
-0.0025779
-0.00406262
-0.00549366
-0.00687131
-0.00819577
-0.00946724
-0.0106859
-0.0118519
-0.0129655
-0.0140268
-0.0150362
-0.0159938
-0.0169001
-0.0177553
-0.0185601
-0.0193147
-0.02002
-0.0206763
-0.0212846
-0.0218456
-0.02236
-0.0228288
-0.023253
-0.0236335
-0.0239714
-0.0242678
-0.024524
-0.0247411
-0.0249205
-0.0250636
-0.0251716
-0.0252462
-0.0252889
-0.0253013
-0.0252848
-0.0252413
-0.0251721
-0.025079
-0.0249633
-0.0248265
-0.0246699
-0.0244948
-0.0243021
-0.024093
-0.0238685
-0.0236293
-0.0233766
-0.023111
-0.0228336
-0.0225453
-0.0222472
-0.0219403
-0.0216258
-0.0213047
-0.0209784
-0.0206479
-0.0203145
-0.0199793
-0.0196434
-0.0193079
-0.0189737
-0.0186416
-0.0183126
-0.0179873
-0.0176662
-0.0173499
-0.0170389
-0.0167335
-0.0164339
-0.0161404
-0.0158531
-0.015572
-0.0152973
-0.0150289
-0.0147667
-0.0145107
-0.0142608
-0.0140168
-0.0137787
-0.0135461
-0.0133191
-0.0130974
-0.0128808
-0.0126691
-0.0124623
-0.01226
-0.0120621
-0.0118684
-0.0116788
-0.0114932
-0.0113112
-0.0111328
-0.0109578
-0.0107861
-0.0106175
-0.0104519
-0.0102891
-0.0101291
-0.00997174
-0.00981684
-0.00966434
-0.00951412
-0.00936609
-0.00922016
-0.00907624
-0.00893424
-0.00879408
-0.00865568
-0.00851897
-0.00838388
-0.00825035
-0.00811831
-0.0079877
-0.00785847
-0.00773056
-0.00760393
-0.00747853
-0.0073543
-0.00723121
-0.00710921
-0.00698827
-0.00686834
-0.0067494
-0.0066314
-0.00651432
-0.00639813
-0.00628279
-0.00616827
-0.00605456
-0.00594162
-0.00582942
-0.00571795
-0.00560719
-0.00549711
-0.00538769
-0.00527891
-0.00517075
-0.00506319
-0.0049562
-0.00484979
-0.00474392
-0.00463858
-0.00453376
-0.00442945
-0.00432562
-0.00422226
-0.00411936
-0.0040169
-0.00391487
-0.00381325
-0.00371205
-0.00361123
-0.0035108
-0.00341073
-0.00331103
-0.00321166
-0.00311264
-0.00301393
-0.00291553
-0.00281744
-0.00271963
-0.0026221
-0.00252484
-0.00242784
-0.00233109
-0.00223458
-0.00213829
-0.00204222
-0.00194636
-0.00185069
-0.00175522
-0.00165992
-0.00156479
-0.00146982
-0.00137501
-0.00128033
-0.00118578
-0.00109136
-0.000997037
-0.000902819
-0.000808689
-0.000714643
-0.000620661
-0.000526771
-0.000432836
-0.000339258
-0.000244458
-0.00015287
-4.38595e-05
18.3345
16.9193
16.5843
16.8984
16.394
15.4115
14.6027
11.781
-4.56521
-16.275
-9.8374
2.07381
6.94986
5.85666
4.32424
3.58164
3.12702
2.83303
2.62034
2.54122
2.61124
2.78838
3.00941
3.25107
3.5194
3.80089
4.05233
4.21993
4.26911
4.21284
4.09615
3.9758
3.90098
3.90123
3.98656
4.161
4.43798
4.83863
5.3798
6.06011
6.80743
7.26567
6.91664
6.38735
6.14211
6.13365
6.28333
6.49254
6.58932
6.59024
6.7327
7.035
7.39413
7.71933
7.95889
8.18364
8.45986
8.76237
9.04431
9.28354
9.49973
9.71176
9.9055
10.0658
10.1955
10.2963
10.3621
10.3933
10.3963
10.3741
10.3286
10.263
10.1788
10.0767
9.95791
9.82336
9.67414
9.51154
9.33686
9.15135
8.95632
8.75309
8.54297
8.32725
8.10713
7.88368
7.65783
7.43041
7.20217
6.97379
6.7459
6.51909
6.29393
6.07092
5.85054
5.63317
5.4192
5.20892
5.00262
4.80054
4.6029
4.40988
4.22166
4.03839
3.86024
3.68732
3.51974
3.35761
3.20099
3.04996
2.90455
2.76478
2.63064
2.5021
2.37913
2.26164
2.14957
2.0428
1.94121
1.84468
1.75307
1.66621
1.58395
1.50613
1.43257
1.3631
1.29756
1.23577
1.17755
1.12275
1.07121
1.02276
0.977244
0.934523
0.89445
0.856887
0.821701
0.788765
0.757958
0.729162
0.702266
0.677164
0.653756
0.631945
0.61164
0.592753
0.575204
0.558913
0.543807
0.529814
0.516867
0.504903
0.493859
0.483677
0.474301
0.465675
0.457748
0.450469
0.443787
0.437655
0.432027
0.426857
0.4221
0.417713
0.413654
0.409883
0.40636
0.403045
0.399902
0.396894
0.393985
0.391143
0.388333
0.385525
0.382689
0.379796
0.37682
0.373735
0.370519
0.367151
0.363611
0.359885
0.355957
0.351818
0.347459
0.342875
0.338062
0.333021
0.327754
0.322268
0.316569
0.310668
0.304576
0.298307
0.291876
0.285301
0.278598
0.271785
0.264881
0.257906
0.250877
0.243813
0.236733
0.229655
0.222593
0.215566
0.208587
0.201671
0.19483
0.188075
0.181419
0.174868
0.168433
0.16212
0.155935
0.149882
0.143967
0.138191
0.132558
0.127068
0.121723
0.116522
0.111465
0.10655
0.101776
0.0971418
0.0926439
0.0882799
0.0840471
0.0799422
0.075962
0.0721031
0.0683619
0.0647348
0.0612184
0.0578091
0.0545032
0.0512973
0.048188
0.0451719
0.0422458
0.0394067
0.0366514
0.0339771
0.0313811
0.0288609
0.0264139
0.024038
0.0217309
0.0194908
0.0173158
0.0152043
0.0131547
0.0111656
0.00923592
0.0073645
0.00555038
0.00379272
0.00209083
0.00044407
-0.00114805
-0.00268598
-0.00417005
-0.00560055
-0.00697773
-0.00830178
-0.00957287
-0.0107911
-0.0119568
-0.0130699
-0.0141307
-0.0151395
-0.0160965
-0.017002
-0.0178563
-0.01866
-0.0194135
-0.0201175
-0.0207724
-0.0213792
-0.0219385
-0.0224511
-0.022918
-0.0233402
-0.0237186
-0.0240542
-0.0243483
-0.024602
-0.0248165
-0.0249932
-0.0251333
-0.0252385
-0.02531
-0.0253496
-0.0253588
-0.0253392
-0.0252925
-0.0252204
-0.0251243
-0.0250059
-0.0248665
-0.0247074
-0.02453
-0.0243352
-0.0241241
-0.0238976
-0.0236566
-0.0234019
-0.0231344
-0.022855
-0.0225646
-0.0222643
-0.0219552
-0.0216383
-0.021315
-0.0209863
-0.0206535
-0.0203179
-0.0199806
-0.0196427
-0.0193053
-0.0189693
-0.0186357
-0.0183053
-0.0179788
-0.0176567
-0.0173396
-0.0170279
-0.0167219
-0.0164219
-0.0161281
-0.0158406
-0.0155595
-0.0152848
-0.0150164
-0.0147544
-0.0144986
-0.014249
-0.0140053
-0.0137674
-0.0135352
-0.0133085
-0.0130871
-0.0128709
-0.0126596
-0.0124531
-0.0122512
-0.0120536
-0.0118603
-0.0116711
-0.0114857
-0.0113041
-0.011126
-0.0109513
-0.0107798
-0.0106115
-0.0104462
-0.0102837
-0.0101239
-0.00996674
-0.00981206
-0.00965976
-0.00950974
-0.0093619
-0.00921615
-0.0090724
-0.00893056
-0.00879055
-0.0086523
-0.00851573
-0.00838077
-0.00824736
-0.00811544
-0.00798494
-0.00785582
-0.00772802
-0.00760149
-0.00747617
-0.00735203
-0.00722903
-0.00710711
-0.00698624
-0.00686639
-0.00674751
-0.00662958
-0.00651256
-0.00639642
-0.00628114
-0.00616668
-0.00605302
-0.00594013
-0.00582798
-0.00571656
-0.00560583
-0.00549579
-0.00538641
-0.00527767
-0.00516955
-0.00506202
-0.00495508
-0.00484869
-0.00474286
-0.00463755
-0.00453277
-0.00442848
-0.00432468
-0.00422135
-0.00411847
-0.00401604
-0.00391404
-0.00381245
-0.00371126
-0.00361047
-0.00351006
-0.00341002
-0.00331034
-0.003211
-0.00311199
-0.00301331
-0.00291494
-0.00281686
-0.00271908
-0.00262157
-0.00252433
-0.00242735
-0.00233062
-0.00223413
-0.00213786
-0.00204181
-0.00194597
-0.00185032
-0.00175486
-0.00165959
-0.00156448
-0.00146953
-0.00137473
-0.00128007
-0.00118555
-0.00109114
-0.000996837
-0.000902637
-0.000808526
-0.000714499
-0.000620537
-0.000526666
-0.00043275
-0.000339191
-0.00024441
-0.000152839
-4.38524e-05
18.1931
16.0499
16.9272
17.0535
16.7295
14.0995
2.46063
-6.54089
-12.2884
-18.6587
-11.778
0.0250897
5.21122
4.78854
3.40425
3.14305
3.03236
2.65632
2.16032
1.76381
1.65897
1.81397
2.08497
2.44211
2.86404
3.25454
3.5216
3.61114
3.54106
3.38446
3.1963
3.02475
2.90348
2.84306
2.84756
2.93918
3.1478
3.48909
3.9862
4.72419
5.87055
6.96965
6.03766
5.0334
4.70265
4.786
5.16118
5.67145
5.80973
5.5779
5.69141
6.11643
6.61352
7.01658
7.19035
7.3491
7.65144
8.02462
8.36511
8.61457
8.83607
9.08534
9.32217
9.51167
9.67037
9.80456
9.89586
9.94585
9.96892
9.96731
9.94194
9.89762
9.83525
9.75432
9.65578
9.54042
9.4092
9.26359
9.1049
8.93436
8.75331
8.56311
8.3652
8.16099
7.95177
7.73865
7.52257
7.30435
7.08469
6.86429
6.6438
6.42384
6.20502
5.98789
5.77295
5.56065
5.35136
5.14542
4.94312
4.74472
4.55045
4.36052
4.17512
3.99444
3.81864
3.64787
3.48228
3.32196
3.16704
3.01758
2.87365
2.73526
2.60244
2.47517
2.3534
2.23709
2.12614
2.02046
1.91993
1.82443
1.7338
1.64791
1.56658
1.48966
1.41697
1.34834
1.2836
1.22257
1.16509
1.111
1.06012
1.0123
0.967395
0.925248
0.88572
0.848673
0.813975
0.781501
0.75113
0.722746
0.696238
0.671503
0.64844
0.626954
0.606955
0.588357
0.571079
0.555045
0.540181
0.526417
0.513688
0.50193
0.491082
0.481088
0.471891
0.463438
0.455677
0.448558
0.44203
0.436048
0.430565
0.425535
0.420914
0.416659
0.412729
0.409082
0.405679
0.402481
0.39945
0.39655
0.393747
0.391005
0.388291
0.385575
0.382826
0.380015
0.377114
0.3741
0.370947
0.367635
0.364145
0.36046
0.356567
0.352454
0.348112
0.343536
0.338725
0.333677
0.328396
0.322888
0.317161
0.311225
0.305094
0.298781
0.292303
0.285677
0.278921
0.272054
0.265095
0.258064
0.250981
0.243864
0.236733
0.229604
0.222496
0.215424
0.208404
0.20145
0.194574
0.187788
0.181104
0.174529
0.168072
0.161741
0.155541
0.149476
0.143551
0.137769
0.132131
0.126639
0.121293
0.116093
0.111039
0.106129
0.101361
0.0967332
0.092243
0.0878876
0.083664
0.0795687
0.0755986
0.07175
0.0680193
0.0644028
0.060897
0.0574982
0.0542026
0.0510069
0.0479076
0.0449011
0.0419844
0.0391541
0.0364074
0.0337413
0.031153
0.02864
0.0261999
0.0238303
0.0215292
0.0192945
0.0171245
0.0150175
0.012972
0.0109867
0.00906032
0.00719181
0.00538024
0.00362479
0.00192479
0.00027964
-0.00131114
-0.00284793
-0.00433107
-0.00576079
-0.00713731
-0.00846077
-0.00973131
-0.010949
-0.0121141
-0.0132266
-0.0142867
-0.0152946
-0.0162506
-0.0171549
-0.0180079
-0.0188101
-0.0195619
-0.0202639
-0.0209168
-0.0215212
-0.022078
-0.0225879
-0.023052
-0.0234711
-0.0238463
-0.0241786
-0.0244692
-0.0247191
-0.0249297
-0.0251023
-0.0252382
-0.0253389
-0.0254058
-0.0254406
-0.025445
-0.0254206
-0.0253691
-0.0252923
-0.0251918
-0.0250691
-0.0249258
-0.0247631
-0.0245824
-0.0243846
-0.0241707
-0.0239415
-0.0236979
-0.0234406
-0.0231704
-0.0228881
-0.0225948
-0.0222913
-0.0219788
-0.0216584
-0.0213314
-0.0209991
-0.0206628
-0.0203236
-0.0199829
-0.0196419
-0.0193015
-0.0189629
-0.0186269
-0.0182944
-0.017966
-0.0176423
-0.0173239
-0.0170111
-0.0167043
-0.0164037
-0.0161095
-0.0158218
-0.0155405
-0.0152659
-0.0149976
-0.0147359
-0.0144804
-0.0142311
-0.0139878
-0.0137504
-0.0135187
-0.0132926
-0.0130717
-0.012856
-0.0126453
-0.0124393
-0.0122379
-0.0120409
-0.0118481
-0.0116594
-0.0114745
-0.0112933
-0.0111157
-0.0109414
-0.0107704
-0.0106025
-0.0104376
-0.0102755
-0.010116
-0.00995922
-0.00980487
-0.00965288
-0.00950316
-0.0093556
-0.00921012
-0.00906662
-0.00892502
-0.00878525
-0.00864721
-0.00851085
-0.00837609
-0.00824286
-0.00811112
-0.00798079
-0.00785183
-0.00772418
-0.0075978
-0.00747262
-0.00734861
-0.00722573
-0.00710393
-0.00698318
-0.00686343
-0.00674466
-0.00662682
-0.0065099
-0.00639385
-0.00627865
-0.00616428
-0.00605069
-0.00593787
-0.0058258
-0.00571444
-0.00560379
-0.00549381
-0.00538449
-0.0052758
-0.00516774
-0.00506026
-0.00495337
-0.00484704
-0.00474125
-0.00463599
-0.00453125
-0.00442701
-0.00432325
-0.00421997
-0.00411713
-0.00401474
-0.00391277
-0.00381122
-0.00371008
-0.00360933
-0.00350895
-0.00340895
-0.0033093
-0.00320999
-0.00311102
-0.00301237
-0.00291403
-0.00281598
-0.00271823
-0.00262076
-0.00252355
-0.0024266
-0.0023299
-0.00223344
-0.0021372
-0.00204119
-0.00194537
-0.00184976
-0.00175433
-0.00165908
-0.001564
-0.00146908
-0.00137431
-0.00127968
-0.00118518
-0.0010908
-0.000996527
-0.000902356
-0.000808274
-0.000714276
-0.000620342
-0.000526501
-0.000432613
-0.000339082
-0.000244329
-0.000152786
-4.38363e-05
20.6852
18.1188
17.2683
17.0658
16.5218
2.6246
-1.53324
-12.5331
-13.6529
-16.7909
-7.15492
-0.832148
0.995133
1.23437
1.25249
1.35803
1.75722
2.12498
2.25152
2.55223
3.17576
3.68987
4.04811
4.37984
4.55651
4.35355
3.81359
3.06521
2.26705
1.55648
1.04278
0.770232
0.703647
0.731477
0.769513
0.877966
1.20445
1.89149
3.04199
4.72602
7.54136
10.1296
5.79469
3.86614
3.40385
3.25511
3.47493
4.33818
4.64233
3.94356
4.01931
4.72767
5.61565
6.27414
6.20832
6.17238
6.53377
7.03731
7.46904
7.68681
7.89039
8.21422
8.53496
8.76541
8.96524
9.15429
9.27913
9.34867
9.39868
9.42453
9.42462
9.40933
9.37708
9.32482
9.25383
9.1642
9.0569
8.93397
8.79667
8.64613
8.48367
8.31073
8.12898
7.94002
7.74531
7.54599
7.34299
7.13706
6.92888
6.71912
6.50845
6.29757
6.08715
5.87781
5.6701
5.46451
5.26144
5.06126
4.86428
4.67076
4.48097
4.29513
4.11347
3.9362
3.7635
3.59558
3.43258
3.27467
3.12196
2.97458
2.83258
2.69604
2.56496
2.43935
2.31919
2.20442
2.09497
1.99073
1.89161
1.79747
1.70818
1.62357
1.54348
1.46776
1.39623
1.32871
1.26504
1.20503
1.14854
1.09537
1.04538
0.998415
0.954311
0.912928
0.874124
0.837763
0.803715
0.771855
0.742064
0.714227
0.688237
0.663988
0.641384
0.62033
0.600737
0.582523
0.565606
0.549912
0.535369
0.521909
0.509468
0.497983
0.487396
0.477651
0.468692
0.460467
0.452926
0.446019
0.439697
0.433913
0.428622
0.423779
0.41934
0.415261
0.411501
0.40802
0.404777
0.401734
0.398854
0.396099
0.393435
0.390827
0.388243
0.385649
0.383016
0.380315
0.377516
0.374596
0.371528
0.368293
0.364869
0.36124
0.357392
0.353313
0.348995
0.344431
0.339621
0.334563
0.329262
0.323725
0.317959
0.311977
0.305792
0.29942
0.292877
0.286182
0.279354
0.272413
0.26538
0.258275
0.251118
0.24393
0.236728
0.229533
0.222362
0.215231
0.208156
0.20115
0.194228
0.187401
0.180679
0.174071
0.167586
0.161231
0.155011
0.14893
0.142993
0.137201
0.131558
0.126063
0.120717
0.115519
0.11047
0.105566
0.100805
0.096187
0.0917074
0.0873635
0.0831523
0.0790701
0.0751136
0.0712789
0.0675623
0.0639601
0.0604686
0.0570838
0.0538023
0.0506202
0.0475341
0.0445406
0.0416363
0.038818
0.0360827
0.0334275
0.0308495
0.0283463
0.0259152
0.0235542
0.0212609
0.0190335
0.0168702
0.0147692
0.0127292
0.0107488
0.00882679
0.00696213
0.00515392
0.00340138
0.00170385
6.07953e-05
-0.00152823
-0.00306358
-0.00454552
-0.00597426
-0.00734995
-0.00867268
-0.00994255
-0.0111596
-0.012324
-0.0134357
-0.0144949
-0.0155017
-0.0164563
-0.0173591
-0.0182104
-0.0190105
-0.01976
-0.0204594
-0.0211095
-0.0217108
-0.0222643
-0.0227707
-0.0232309
-0.023646
-0.0240169
-0.0243447
-0.0246305
-0.0248755
-0.0250809
-0.025248
-0.0253782
-0.025473
-0.0255338
-0.0255623
-0.0255603
-0.0255295
-0.0254716
-0.0253886
-0.025282
-0.0251537
-0.025005
-0.0248374
-0.0246521
-0.02445
-0.0242322
-0.0239992
-0.0237518
-0.0234908
-0.0232167
-0.0229305
-0.0226329
-0.0223251
-0.0220081
-0.0216831
-0.0213514
-0.0210144
-0.0206734
-0.0203297
-0.0199847
-0.0196396
-0.0192955
-0.0189534
-0.0186143
-0.0182791
-0.0179483
-0.0176227
-0.0173026
-0.0169885
-0.0166806
-0.0163793
-0.0160845
-0.0157965
-0.0155152
-0.0152406
-0.0149726
-0.0147111
-0.0144561
-0.0142073
-0.0139646
-0.0137279
-0.0134968
-0.0132714
-0.0130512
-0.0128363
-0.0126263
-0.012421
-0.0122204
-0.0120241
-0.011832
-0.0116439
-0.0114597
-0.0112791
-0.0111021
-0.0109285
-0.010758
-0.0105906
-0.0104262
-0.0102646
-0.0101057
-0.00994929
-0.00979537
-0.00964379
-0.00949446
-0.00934728
-0.00920215
-0.00905899
-0.00891771
-0.00877824
-0.0086405
-0.00850441
-0.00836991
-0.00823693
-0.00810542
-0.00797532
-0.00784657
-0.00771913
-0.00759293
-0.00746794
-0.00734411
-0.00722139
-0.00709975
-0.00697914
-0.00685954
-0.0067409
-0.0066232
-0.0065064
-0.00639047
-0.00627538
-0.00616111
-0.00604763
-0.00593491
-0.00582293
-0.00571167
-0.0056011
-0.0054912
-0.00538196
-0.00527335
-0.00516535
-0.00505795
-0.00495113
-0.00484486
-0.00473914
-0.00463395
-0.00452927
-0.00442509
-0.00432139
-0.00421815
-0.00411537
-0.00401303
-0.00391112
-0.00380962
-0.00370853
-0.00360782
-0.0035075
-0.00340754
-0.00330793
-0.00320867
-0.00310975
-0.00301114
-0.00291284
-0.00281484
-0.00271713
-0.00261969
-0.00252253
-0.00242562
-0.00232896
-0.00223254
-0.00213635
-0.00204037
-0.0019446
-0.00184902
-0.00175363
-0.00165842
-0.00156338
-0.0014685
-0.00137376
-0.00127917
-0.00118471
-0.00109036
-0.000996131
-0.000901998
-0.000807954
-0.000713995
-0.000620099
-0.000526296
-0.000432446
-0.000338952
-0.000244236
-0.000152729
-4.3825e-05
24.9807
39.0247
18.0158
14.096
2.17184
1.18603
0.509084
-0.523565
-2.96666
-19.416
-17.0325
0.309548
0.119813
-0.0688544
-0.272557
-0.43822
-0.279771
-0.0200325
0.143911
0.326657
0.434417
0.415121
0.606069
0.77782
0.766668
0.676506
0.60675
0.556057
0.519222
0.486822
0.462108
0.454841
0.462993
0.472631
0.477664
0.486941
0.509857
0.59541
0.826444
1.59111
4.63153
11.5988
1.24757
-0.933467
-0.181144
1.14006
3.09022
5.9759
5.63678
3.17828
3.12515
3.50139
4.398
5.52572
4.79142
4.38554
4.92709
5.80186
6.52025
6.54637
6.6216
7.08872
7.5513
7.80303
8.05614
8.34569
8.50986
8.59087
8.67953
8.74192
8.77248
8.79715
8.80503
8.78901
8.753
8.69532
8.61758
8.52315
8.4128
8.28732
8.14799
7.9964
7.83459
7.66456
7.48796
7.30599
7.11947
6.92903
6.73525
6.53876
6.34033
6.14072
5.94072
5.74104
5.54232
5.34508
5.14977
4.95677
4.7664
4.57897
4.39474
4.21399
4.03695
3.86389
3.69503
3.5306
3.37081
3.21585
3.06588
2.92104
2.78144
2.64716
2.51824
2.3947
2.27653
2.16368
2.05608
1.95366
1.85629
1.76386
1.67621
1.59321
1.51468
1.44046
1.37038
1.30425
1.24192
1.18319
1.12792
1.07592
1.02704
0.981132
0.938033
0.897603
0.859703
0.824197
0.790959
0.759864
0.730795
0.70364
0.678291
0.654648
0.632613
0.612096
0.593008
0.575269
0.5588
0.543529
0.529385
0.516302
0.504218
0.493072
0.482809
0.473372
0.464709
0.456769
0.449501
0.442858
0.436792
0.431256
0.426205
0.421595
0.417382
0.413523
0.409976
0.406701
0.403659
0.40081
0.398118
0.395545
0.393056
0.390617
0.388194
0.385754
0.383267
0.380703
0.378034
0.375232
0.372272
0.369133
0.365793
0.362235
0.358444
0.354408
0.350119
0.34557
0.34076
0.33569
0.330363
0.324787
0.318972
0.31293
0.306676
0.300227
0.293601
0.286818
0.279899
0.272865
0.265737
0.258537
0.251287
0.244007
0.236718
0.229438
0.222187
0.214982
0.207837
0.200768
0.193787
0.186908
0.180139
0.173491
0.166971
0.160586
0.154341
0.148241
0.142288
0.136486
0.130836
0.125338
0.119992
0.114798
0.109754
0.104858
0.100108
0.0955019
0.0910358
0.0867068
0.0825114
0.0784459
0.0745066
0.0706896
0.0669909
0.0634068
0.0599332
0.0565663
0.0533023
0.0501374
0.0470681
0.0440908
0.0412022
0.0383989
0.035678
0.0330364
0.0304713
0.0279802
0.0255606
0.0232101
0.0209267
0.0187083
0.0165533
0.0144599
0.0124267
0.0104524
0.00853583
0.00667594
0.00487187
0.0031229
0.0014284
-0.00021212
-0.00179904
-0.00333267
-0.00481322
-0.00624082
-0.00761556
-0.00893748
-0.0102066
-0.0114229
-0.0125865
-0.0136972
-0.0147553
-0.0157608
-0.0167139
-0.0176149
-0.0184639
-0.0192615
-0.0200081
-0.0207043
-0.0213508
-0.0219483
-0.0224975
-0.0229995
-0.023455
-0.023865
-0.0242306
-0.0245529
-0.0248328
-0.0250716
-0.0252705
-0.0254308
-0.0255537
-0.0256408
-0.0256937
-0.025714
-0.0257036
-0.0256644
-0.0255982
-0.0255071
-0.0253929
-0.0252575
-0.0251024
-0.024929
-0.0247385
-0.0245319
-0.0243099
-0.0240731
-0.0238219
-0.023557
-0.0232788
-0.022988
-0.0226854
-0.0223721
-0.0220492
-0.0217181
-0.02138
-0.0210366
-0.0206892
-0.0203393
-0.0199884
-0.0196377
-0.0192884
-0.0189417
-0.0185985
-0.0182597
-0.0179258
-0.0175975
-0.0172753
-0.0169595
-0.0166503
-0.016348
-0.0160527
-0.0157643
-0.0154829
-0.0152084
-0.0149408
-0.0146798
-0.0144253
-0.0141772
-0.0139353
-0.0136994
-0.0134692
-0.0132447
-0.0130255
-0.0128114
-0.0126023
-0.012398
-0.0121983
-0.0120029
-0.0118116
-0.0116244
-0.011441
-0.0112613
-0.011085
-0.0109121
-0.0107424
-0.0105757
-0.0104119
-0.0102509
-0.0100926
-0.00993679
-0.00978341
-0.00963236
-0.00948352
-0.0093368
-0.00919212
-0.00904938
-0.0089085
-0.00876941
-0.00863203
-0.00849629
-0.00836211
-0.00822945
-0.00809823
-0.00796841
-0.00783993
-0.00771274
-0.00758678
-0.00746202
-0.00733841
-0.0072159
-0.00709445
-0.00697404
-0.00685461
-0.00673614
-0.0066186
-0.00650196
-0.00638618
-0.00627123
-0.0061571
-0.00604374
-0.00593115
-0.00581928
-0.00570814
-0.00559767
-0.00548788
-0.00537874
-0.00527023
-0.00516232
-0.00505501
-0.00494827
-0.00484209
-0.00473645
-0.00463134
-0.00452673
-0.00442263
-0.004319
-0.00421584
-0.00411313
-0.00401086
-0.00390901
-0.00380757
-0.00370654
-0.0036059
-0.00350563
-0.00340573
-0.00330618
-0.00320698
-0.00310811
-0.00300956
-0.00291131
-0.00281337
-0.00271571
-0.00261833
-0.00252122
-0.00242436
-0.00232776
-0.00223138
-0.00213524
-0.00203931
-0.00194359
-0.00184807
-0.00175273
-0.00165756
-0.00156257
-0.00146773
-0.00137305
-0.0012785
-0.00118409
-0.00108979
-0.000995606
-0.00090152
-0.000807525
-0.000713613
-0.000619766
-0.00052601
-0.000432208
-0.00033876
-0.000244093
-0.000152632
-4.37924e-05
20.3974
14.6767
3.59088
0.507842
0.174254
0.446941
0.413425
0.244592
-0.0124018
-0.71093
-0.69842
0.263416
0.26079
0.147101
-0.0332897
-0.175918
-0.180211
-0.0266827
0.152329
0.277383
0.329125
0.335198
0.473935
0.610308
0.590939
0.557006
0.53478
0.515284
0.49999
0.48943
0.483806
0.484556
0.49233
0.505654
0.522193
0.541471
0.569441
0.633664
0.81727
1.19896
1.4809
0.167114
-1.33961
-0.367381
0.0403854
0.482638
1.15991
5.40681
5.23772
-2.38349
-0.496116
2.57372
5.96048
8.55774
4.337
3.17862
3.5026
4.34144
5.59929
5.07994
4.88872
5.69195
6.50107
6.65483
6.92971
7.41215
7.59103
7.64872
7.80641
7.91318
7.9714
8.05402
8.1173
8.14781
8.1564
8.13576
8.09204
8.0321
7.95454
7.85939
7.74763
7.62108
7.48266
7.33506
7.18022
7.0193
6.85284
6.68118
6.50475
6.32417
6.14028
5.95405
5.76641
5.57822
5.3902
5.20293
5.01689
4.83248
4.65002
4.46985
4.29225
4.11753
3.94599
3.7779
3.61357
3.45326
3.29724
3.14574
2.99898
2.85714
2.72036
2.58875
2.46239
2.3413
2.22549
2.11493
2.00955
1.90929
1.81402
1.72363
1.63798
1.5569
1.48024
1.40782
1.33948
1.27503
1.21429
1.15711
1.10329
1.0527
1.00515
0.960502
0.918604
0.879314
0.842494
0.808012
0.775742
0.745562
0.717358
0.691018
0.666438
0.643519
0.622166
0.602289
0.583805
0.566633
0.550698
0.535928
0.522258
0.509623
0.497963
0.487221
0.477341
0.468271
0.459959
0.452356
0.445415
0.439086
0.433325
0.428085
0.423321
0.41899
0.415048
0.411452
0.408161
0.405134
0.402332
0.399716
0.397249
0.394894
0.392616
0.390379
0.388151
0.385898
0.383588
0.381191
0.378677
0.376019
0.37319
0.370168
0.36693
0.363458
0.359737
0.355754
0.351499
0.346968
0.342158
0.337071
0.331711
0.326087
0.32021
0.314093
0.307754
0.30121
0.294482
0.28759
0.280558
0.273408
0.266164
0.258849
0.251484
0.244093
0.236697
0.229315
0.221967
0.214671
0.207442
0.200296
0.193246
0.186303
0.179479
0.172783
0.166221
0.159801
0.153527
0.147404
0.141434
0.13562
0.129962
0.124461
0.119116
0.113926
0.10889
0.104005
0.0992678
0.0946764
0.0902272
0.0859165
0.0817406
0.0776955
0.0737773
0.0699818
0.066305
0.0627428
0.059291
0.0559458
0.052703
0.049559
0.0465099
0.0435523
0.0406825
0.0378974
0.0351937
0.0325686
0.0300191
0.0275426
0.0251366
0.0227989
0.0205273
0.0183198
0.0161747
0.0140904
0.0120653
0.0100983
0.00818811
0.00633386
0.00453468
0.00278988
0.00109891
-0.000538672
-0.00212319
-0.00365488
-0.00513388
-0.00656025
-0.007934
-0.00925509
-0.0105234
-0.011739
-0.0129017
-0.0140115
-0.0150684
-0.0160724
-0.0170237
-0.0179224
-0.0187688
-0.0195634
-0.0203066
-0.020999
-0.0216412
-0.022234
-0.0227782
-0.0232747
-0.0237244
-0.0241284
-0.0244876
-0.0248031
-0.025076
-0.0253074
-0.0254986
-0.0256507
-0.0257652
-0.0258434
-0.025887
-0.0258978
-0.0258775