/*--------------------------------*- C++ -*----------------------------------*\
| =========                 |                                                 |
| \\      /  F ield         | OpenFOAM: The Open Source CFD Toolbox           |
|  \\    /   O peration     | Version:  v2006                                 |
|   \\  /    A nd           | Website:  www.openfoam.com                      |
|    \\/     M anipulation  |                                                 |
\*---------------------------------------------------------------------------*/
FoamFile
{
    version     2.0;
    format      ascii;
    class       volScalarField;
    location    "19";
    object      p_rgh;
}
// * * * * * * * * * * * * * * * * * * * * * * * * * * * * * * * * * * * * * //

dimensions      [1 -1 -2 0 0 0 0];


internalField   nonuniform List<scalar> 
52500
(
3058.24
3058.03
3057.59
3056.93
3056.05
3054.95
3053.64
3052.1
3050.35
3048.38
3046.19
3043.78
3041.16
3038.32
3035.26
3032
3028.51
3024.81
3020.9
3016.77
3012.44
3007.88
3003.12
2998.15
2992.96
2987.56
2981.96
2976.14
2970.12
2963.89
2957.46
2950.82
2943.98
2936.93
2929.69
2922.24
2914.6
2906.76
2898.73
2890.51
2882.09
2873.49
2864.7
2855.73
2846.57
2837.24
2827.74
2818.07
2808.23
2798.22
2788.06
2777.73
2767.23
2756.59
2745.78
2734.83
2723.72
2712.47
2701.07
2689.54
2677.87
2666.06
2654.13
2642.07
2629.89
2617.59
2605.17
2592.64
2580.01
2567.27
2554.43
2541.49
2528.47
2515.35
2502.15
2488.87
2475.51
2462.08
2448.58
2435.01
2421.39
2407.71
2393.98
2380.19
2366.37
2352.5
2338.6
2324.66
2310.7
2296.71
2282.7
2268.68
2254.64
2240.59
2226.54
2212.48
2198.43
2184.39
2170.35
2156.33
2142.33
2128.35
2114.39
2100.47
2086.57
2072.72
2058.9
2045.13
2031.41
2017.73
2004.11
1990.55
1977.06
1963.62
1950.26
1936.96
1923.74
1910.6
1897.54
1884.57
1871.68
1858.88
1846.18
1833.57
1821.06
1808.65
1796.35
1784.16
1772.07
1760.1
1748.24
1736.5
1724.88
1713.38
1702
1690.75
1679.62
1668.62
1657.76
1647.02
1636.43
1625.96
1615.63
1605.43
1595.37
1585.45
1575.68
1566.04
1556.54
1547.19
1537.97
1528.89
1519.95
1511.15
1502.49
1493.96
1485.57
1477.31
1469.18
1461.18
1453.32
1445.58
1437.98
1430.51
1423.18
1415.98
1408.91
1401.97
1395.15
1388.44
1381.86
1375.38
1369.02
1362.77
1356.62
1350.58
1344.64
1338.8
1333.06
1327.41
1321.85
1316.38
1310.99
1305.68
1300.46
1295.31
1290.23
1285.22
1280.27
1275.39
1270.56
1265.79
1261.07
1256.4
1251.78
1247.2
1242.65
1238.14
1233.66
1229.22
1224.79
1220.4
1216.02
1211.66
1207.31
1202.97
1198.64
1194.32
1190
1185.67
1181.35
1177.02
1172.67
1168.32
1163.95
1159.56
1155.15
1150.72
1146.26
1141.77
1137.25
1132.7
1128.11
1123.48
1118.81
1114.1
1109.35
1104.54
1099.69
1094.78
1089.83
1084.82
1079.75
1074.63
1069.44
1064.2
1058.9
1053.54
1048.11
1042.62
1037.07
1031.46
1025.79
1020.05
1014.25
1008.39
1002.46
996.48
990.436
984.333
978.172
971.954
965.681
959.354
952.975
946.544
940.065
933.539
926.968
920.354
913.701
907.011
900.283
893.522
886.73
879.909
873.063
866.19
859.294
852.376
845.44
838.486
831.519
824.539
817.552
810.56
803.571
796.589
789.621
782.674
775.757
768.88
762.05
755.27
748.541
741.861
735.23
728.647
722.115
715.626
709.189
702.805
696.477
690.207
683.999
677.856
671.781
665.778
659.851
654.002
648.235
642.552
636.954
631.446
626.027
620.7
615.467
610.329
605.289
600.348
595.508
590.772
586.141
581.616
577.2
572.893
568.697
564.614
560.643
556.788
553.047
549.424
545.917
542.529
539.26
536.111
533.083
530.176
527.391
524.729
522.19
519.775
517.485
515.32
513.281
511.368
509.583
507.925
506.396
504.994
503.722
502.578
501.563
500.677
499.92
499.29
498.786
498.409
498.157
498.023
3058.76
3058.54
3058.1
3057.44
3056.56
3055.46
3054.15
3052.61
3050.86
3048.88
3046.7
3044.29
3041.67
3038.83
3035.77
3032.5
3029.02
3025.32
3021.41
3017.28
3012.94
3008.39
3003.62
2998.64
2993.46
2988.06
2982.45
2976.64
2970.61
2964.38
2957.95
2951.3
2944.46
2937.42
2930.17
2922.72
2915.08
2907.24
2899.2
2890.98
2882.56
2873.96
2865.17
2856.19
2847.04
2837.71
2828.2
2818.52
2808.68
2798.67
2788.49
2778.15
2767.65
2757
2746.18
2735.22
2724.1
2712.84
2701.44
2689.89
2678.21
2666.39
2654.45
2642.38
2630.19
2617.88
2605.45
2592.91
2580.26
2567.51
2554.66
2541.72
2528.68
2515.55
2502.34
2489.04
2475.67
2462.23
2448.72
2435.15
2421.51
2407.82
2394.08
2380.28
2366.45
2352.57
2338.66
2324.71
2310.74
2296.74
2282.72
2268.69
2254.64
2240.58
2226.52
2212.46
2198.4
2184.34
2170.3
2156.27
2142.26
2128.27
2114.3
2100.37
2086.47
2072.61
2058.78
2045
2031.27
2017.59
2003.96
1990.39
1976.89
1963.44
1950.07
1936.77
1923.54
1910.39
1897.32
1884.34
1871.45
1858.64
1845.93
1833.32
1820.8
1808.39
1796.08
1783.88
1771.79
1759.81
1747.95
1736.2
1724.58
1713.07
1701.69
1690.43
1679.3
1668.3
1657.42
1646.68
1636.06
1625.58
1615.24
1605.03
1594.96
1585.02
1575.22
1565.57
1556.06
1546.68
1537.45
1528.36
1519.42
1510.62
1501.96
1493.45
1485.08
1476.84
1468.75
1460.79
1452.96
1445.27
1437.7
1430.26
1422.93
1415.73
1408.65
1401.7
1394.87
1388.16
1381.57
1375.09
1368.73
1362.48
1356.34
1350.31
1344.37
1338.54
1332.8
1327.16
1321.61
1316.14
1310.76
1305.46
1300.24
1295.1
1290.02
1285.02
1280.07
1275.2
1270.38
1265.61
1260.9
1256.24
1251.62
1247.04
1242.5
1238
1233.54
1229.1
1224.68
1220.29
1215.92
1211.57
1207.23
1202.9
1198.58
1194.27
1189.95
1185.64
1181.32
1176.99
1172.66
1168.31
1163.94
1159.56
1155.16
1150.73
1146.28
1141.8
1137.29
1132.74
1128.16
1123.54
1118.88
1114.17
1109.42
1104.62
1099.77
1094.87
1089.92
1084.91
1079.85
1074.73
1069.55
1064.31
1059.01
1053.65
1048.23
1042.74
1037.2
1031.58
1025.91
1020.17
1014.37
1008.51
1002.58
996.595
990.548
984.442
978.278
972.056
965.779
959.448
953.063
946.627
940.141
933.609
927.031
920.411
913.75
907.052
900.317
893.549
886.749
879.918
873.073
866.19
859.283
852.355
845.407
838.444
831.469
824.482
817.482
810.463
803.419
796.347
789.274
782.239
775.279
768.409
761.623
754.906
748.241
741.616
735.024
728.465
721.938
715.455
709.011
702.625
696.292
690.017
683.804
677.656
671.579
665.575
659.647
653.796
648.026
642.338
636.735
631.22
625.794
620.46
615.219
610.074
605.027
600.08
595.234
590.492
585.855
581.325
576.903
572.591
568.39
564.301
560.326
556.465
552.72
549.091
545.58
542.187
538.914
535.761
532.729
529.818
527.029
524.363
521.821
519.403
517.11
514.942
512.901
510.986
509.198
507.539
506.007
504.604
503.329
502.183
501.166
500.277
499.517
498.884
498.38
498.002
497.751
497.623
3059.86
3059.64
3059.2
3058.54
3057.66
3056.56
3055.24
3053.7
3051.95
3049.97
3047.78
3045.37
3042.75
3039.91
3036.85
3033.58
3030.09
3026.39
3022.47
3018.34
3014
3009.44
3004.68
2999.7
2994.5
2989.1
2983.49
2977.67
2971.64
2965.41
2958.97
2952.32
2945.47
2938.42
2931.17
2923.71
2916.06
2908.22
2900.18
2891.95
2883.53
2874.92
2866.12
2857.14
2847.98
2838.64
2829.12
2819.44
2809.58
2799.55
2789.36
2779
2768.48
2757.8
2746.97
2735.98
2724.85
2713.57
2702.14
2690.58
2678.88
2667.04
2655.08
2642.98
2630.77
2618.44
2605.99
2593.43
2580.76
2567.99
2555.11
2542.15
2529.09
2515.94
2502.7
2489.39
2476
2462.53
2449
2435.41
2421.75
2408.04
2394.27
2380.46
2366.6
2352.71
2338.77
2324.81
2310.81
2296.8
2282.76
2268.7
2254.63
2240.56
2226.48
2212.39
2198.31
2184.24
2170.18
2156.13
2142.1
2128.09
2114.11
2100.16
2086.24
2072.36
2058.52
2044.72
2030.97
2017.27
2003.63
1990.04
1976.52
1963.06
1949.67
1936.35
1923.11
1909.95
1896.86
1883.87
1870.96
1858.14
1845.41
1832.79
1820.26
1807.83
1795.51
1783.3
1771.2
1759.21
1747.33
1735.57
1723.94
1712.42
1701.03
1689.76
1678.62
1667.61
1656.73
1645.98
1635.36
1624.88
1614.53
1604.33
1594.26
1584.34
1574.57
1564.91
1555.39
1546.02
1536.8
1527.71
1518.77
1509.97
1501.31
1492.79
1484.41
1476.16
1468.05
1460.08
1452.24
1444.54
1436.96
1429.52
1422.2
1415.01
1407.95
1401.02
1394.2
1387.51
1380.93
1374.47
1368.13
1361.89
1355.77
1349.75
1343.83
1338.01
1332.29
1326.66
1321.12
1315.67
1310.31
1305.03
1299.82
1294.69
1289.64
1284.65
1279.72
1274.86
1270.06
1265.31
1260.61
1255.96
1251.36
1246.8
1242.28
1237.79
1233.34
1228.91
1224.51
1220.14
1215.78
1211.44
1207.11
1202.8
1198.49
1194.19
1189.89
1185.58
1181.28
1176.96
1172.64
1168.3
1163.95
1159.58
1155.19
1150.77
1146.33
1141.86
1137.35
1132.82
1128.24
1123.63
1118.97
1114.27
1109.53
1104.74
1099.9
1095
1090.05
1085.05
1079.99
1074.87
1069.7
1064.46
1059.16
1053.8
1048.38
1042.89
1037.34
1031.73
1026.05
1020.31
1014.51
1008.64
1002.71
996.712
990.658
984.543
978.368
972.136
965.847
959.503
953.106
946.657
940.158
933.612
927.02
920.385
913.709
906.994
900.243
893.458
886.641
879.795
872.924
866.028
859.11
852.172
845.217
838.249
831.27
824.282
817.29
810.297
803.308
796.336
789.388
782.469
775.582
768.726
761.903
755.115
748.364
741.653
734.986
728.365
721.793
715.274
708.811
702.396
696.039
689.743
683.512
677.348
671.255
665.238
659.289
653.417
647.627
641.922
636.302
630.771
625.33
619.982
614.727
609.569
604.509
599.549
594.691
589.937
585.289
580.748
576.315
571.993
567.782
563.684
559.7
555.83
552.077
548.441
544.923
541.523
538.244
535.085
532.047
529.131
526.337
523.667
521.121
518.699
516.403
514.232
512.187
510.27
508.48
506.818
505.284
503.88
502.604
501.457
500.439
499.551
498.791
498.16
497.656
497.278
497.023
496.892
3061.54
3061.32
3060.88
3060.21
3059.33
3058.23
3056.91
3055.37
3053.61
3051.64
3049.44
3047.03
3044.4
3041.56
3038.5
3035.22
3031.73
3028.02
3024.1
3019.97
3015.62
3011.05
3006.28
3001.29
2996.09
2990.68
2985.07
2979.24
2973.2
2966.96
2960.51
2953.85
2946.99
2939.93
2932.66
2925.2
2917.54
2909.68
2901.63
2893.39
2884.95
2876.33
2867.52
2858.53
2849.35
2839.99
2830.46
2820.75
2810.88
2800.83
2790.61
2780.23
2769.69
2758.99
2748.13
2737.12
2725.96
2714.65
2703.2
2691.6
2679.87
2668.01
2656.01
2643.89
2631.65
2619.29
2606.81
2594.22
2581.52
2568.71
2555.81
2542.81
2529.72
2516.53
2503.27
2489.92
2476.5
2463
2449.44
2435.81
2422.13
2408.38
2394.58
2380.74
2366.85
2352.92
2338.96
2324.96
2310.93
2296.88
2282.82
2268.73
2254.63
2240.52
2226.41
2212.3
2198.19
2184.09
2170
2155.92
2141.86
2127.82
2113.81
2099.83
2085.89
2071.98
2058.11
2044.28
2030.51
2016.78
2003.11
1989.5
1975.95
1962.47
1949.05
1935.71
1922.44
1909.25
1896.15
1883.13
1870.2
1857.36
1844.61
1831.96
1819.41
1806.96
1794.62
1782.39
1770.27
1758.26
1746.37
1734.6
1722.95
1711.41
1700.01
1688.73
1677.57
1666.55
1655.66
1644.9
1634.28
1623.79
1613.44
1603.22
1593.15
1583.21
1573.41
1563.75
1554.25
1544.88
1535.65
1526.57
1517.62
1508.82
1500.16
1491.64
1483.26
1475.03
1466.93
1458.96
1451.14
1443.44
1435.88
1428.46
1421.16
1413.99
1406.94
1400.02
1393.23
1386.55
1379.99
1373.55
1367.23
1361.01
1354.91
1348.91
1343.01
1337.22
1331.52
1325.91
1320.4
1314.98
1309.64
1304.38
1299.2
1294.09
1289.06
1284.09
1279.19
1274.36
1269.58
1264.85
1260.18
1255.55
1250.97
1246.44
1241.94
1237.47
1233.04
1228.64
1224.26
1219.91
1215.57
1211.25
1206.95
1202.65
1198.37
1194.08
1189.8
1185.52
1181.23
1176.93
1172.63
1168.31
1163.97
1159.62
1155.24
1150.84
1146.41
1141.96
1137.47
1132.94
1128.38
1123.78
1119.14
1114.45
1109.72
1104.94
1100.1
1095.22
1090.28
1085.28
1080.23
1075.11
1069.94
1064.71
1059.41
1054.05
1048.63
1043.14
1037.59
1031.97
1026.29
1020.54
1014.73
1008.85
1002.91
996.912
990.848
984.722
978.537
972.293
965.992
959.635
953.225
946.762
940.249
933.687
927.079
920.428
913.735
907.002
900.233
893.429
886.594
879.73
872.84
865.926
858.991
852.038
845.07
838.09
831.102
824.108
817.113
810.12
803.131
796.153
789.186
782.237
775.316
768.429
761.582
754.779
748.019
741.301
734.625
727.992
721.403
714.862
708.371
701.934
695.553
689.233
682.978
676.789
670.669
664.617
658.647
652.754
646.951
641.232
635.596
630.048
624.589
619.223
613.95
608.774
603.697
598.72
593.846
589.077
584.413
579.857
575.41
571.074
566.85
562.739
558.742
554.861
551.097
547.45
543.922
540.513
537.225
534.058
531.013
528.09
525.291
522.616
520.065
517.639
515.338
513.165
511.118
509.198
507.406
505.743
504.208
502.803
501.527
500.38
499.362
498.474
497.716
497.087
496.586
496.21
495.952
495.815
3063.8
3063.58
3063.14
3062.48
3061.59
3060.49
3059.17
3057.62
3055.86
3053.88
3051.69
3049.27
3046.64
3043.79
3040.72
3037.44
3033.94
3030.22
3026.3
3022.15
3017.79
3013.22
3008.44
3003.44
2998.23
2992.81
2987.18
2981.34
2975.29
2969.03
2962.57
2955.9
2949.03
2941.95
2934.67
2927.19
2919.51
2911.64
2903.57
2895.31
2886.85
2878.21
2869.38
2860.36
2851.16
2841.78
2832.23
2822.49
2812.58
2802.51
2792.26
2781.85
2771.27
2760.54
2749.65
2738.6
2727.4
2716.06
2704.57
2692.94
2681.17
2669.27
2657.24
2645.08
2632.79
2620.39
2607.87
2595.24
2582.49
2569.65
2556.7
2543.66
2530.53
2517.31
2504
2490.61
2477.14
2463.61
2450
2436.33
2422.6
2408.82
2394.98
2381.09
2367.16
2353.19
2339.18
2325.14
2311.08
2296.99
2282.88
2268.75
2254.61
2240.46
2226.31
2212.16
2198.01
2183.87
2169.74
2155.62
2141.53
2127.45
2113.41
2099.39
2085.4
2071.46
2057.55
2043.69
2029.88
2016.12
2002.41
1988.77
1975.18
1961.67
1948.22
1934.85
1921.55
1908.33
1895.19
1882.14
1869.18
1856.31
1843.54
1830.86
1818.28
1805.81
1793.45
1781.19
1769.05
1757.02
1745.1
1733.31
1721.64
1710.09
1698.66
1687.36
1676.19
1665.16
1654.25
1643.48
1632.84
1622.34
1611.98
1601.76
1591.67
1581.73
1571.93
1562.27
1552.76
1543.39
1534.16
1525.08
1516.13
1507.34
1498.68
1490.17
1481.8
1473.57
1465.47
1457.52
1449.71
1442.02
1434.48
1427.06
1419.78
1412.63
1405.61
1398.71
1391.93
1385.28
1378.75
1372.33
1366.03
1359.85
1353.77
1347.8
1341.93
1336.16
1330.49
1324.92
1319.44
1314.05
1308.74
1303.51
1298.36
1293.29
1288.29
1283.36
1278.49
1273.68
1268.94
1264.24
1259.6
1255.01
1250.46
1245.95
1241.49
1237.05
1232.65
1228.28
1223.93
1219.6
1215.3
1211.01
1206.73
1202.46
1198.2
1193.94
1189.69
1185.43
1181.16
1176.89
1172.61
1168.32
1164
1159.67
1155.32
1150.94
1146.53
1142.1
1137.63
1133.12
1128.58
1123.99
1119.37
1114.69
1109.97
1105.2
1100.38
1095.51
1090.58
1085.59
1080.54
1075.44
1070.27
1065.04
1059.74
1054.38
1048.96
1043.47
1037.91
1032.29
1026.61
1020.85
1015.03
1009.15
1003.2
997.186
991.11
984.972
978.773
972.514
966.197
959.824
953.396
946.916
940.384
933.803
927.176
920.504
913.79
907.037
900.246
893.42
886.563
879.679
872.766
865.83
858.873
851.899
844.911
837.912
830.906
823.896
816.886
809.88
802.881
795.894
788.923
781.973
775.048
768.149
761.281
754.445
747.646
740.887
734.17
727.497
720.872
714.296
707.773
701.305
694.895
688.547
682.263
676.046
669.9
663.827
657.832
651.92
646.081
640.327
634.66
629.083
623.598
618.206
612.908
607.709
602.608
597.609
592.713
587.922
583.238
578.662
574.196
569.841
565.599
561.471
557.458
553.561
549.782
546.121
542.58
539.159
535.86
532.682
529.627
526.696
523.889
521.207
518.65
516.219
513.915
511.738
509.689
507.767
505.975
504.311
502.776
501.371
500.095
498.948
497.932
497.045
496.29
495.665
495.168
494.793
494.532
494.388
3066.65
3066.43
3065.99
3065.32
3064.43
3063.33
3062
3060.46
3058.69
3056.71
3054.5
3052.08
3049.44
3046.59
3043.51
3040.22
3036.72
3032.99
3029.05
3024.9
3020.53
3015.95
3011.15
3006.14
3000.92
2995.48
2989.84
2983.98
2977.91
2971.64
2965.16
2958.47
2951.58
2944.48
2937.18
2929.68
2921.98
2914.09
2905.99
2897.71
2889.23
2880.56
2871.7
2862.65
2853.42
2844.01
2834.42
2824.66
2814.72
2804.6
2794.32
2783.87
2773.25
2762.48
2751.55
2740.46
2729.22
2717.83
2706.3
2694.62
2682.8
2670.85
2658.77
2646.56
2634.23
2621.78
2609.21
2596.52
2583.73
2570.84
2557.84
2544.74
2531.56
2518.28
2504.92
2491.48
2477.96
2464.37
2450.71
2436.99
2423.21
2409.37
2395.48
2381.54
2367.56
2353.53
2339.47
2325.38
2311.26
2297.12
2282.96
2268.78
2254.59
2240.4
2226.19
2211.99
2197.79
2183.6
2169.42
2155.26
2141.12
2126.99
2112.9
2098.83
2084.8
2070.81
2056.86
2042.95
2029.1
2015.29
2001.54
1987.86
1974.23
1960.67
1947.18
1933.77
1920.43
1907.17
1893.99
1880.91
1867.91
1855
1842.19
1829.48
1816.87
1804.37
1791.97
1779.68
1767.51
1755.45
1743.51
1731.69
1719.99
1708.41
1696.97
1685.65
1674.46
1663.4
1652.47
1641.68
1631.03
1620.52
1610.14
1599.91
1589.82
1579.87
1570.06
1560.4
1550.88
1541.5
1532.27
1523.19
1514.25
1505.45
1496.8
1488.29
1479.93
1471.71
1463.63
1455.68
1447.88
1440.22
1432.69
1425.3
1418.04
1410.91
1403.91
1397.04
1390.29
1383.67
1377.17
1370.79
1364.52
1358.37
1352.33
1346.39
1340.56
1334.83
1329.2
1323.67
1318.23
1312.87
1307.6
1302.42
1297.31
1292.28
1287.32
1282.43
1277.6
1272.84
1268.13
1263.48
1258.88
1254.32
1249.82
1245.35
1240.92
1236.52
1232.16
1227.82
1223.51
1219.22
1214.95
1210.7
1206.45
1202.22
1197.99
1193.77
1189.54
1185.32
1181.08
1176.84
1172.59
1168.33
1164.04
1159.74
1155.41
1151.06
1146.68
1142.27
1137.82
1133.34
1128.82
1124.26
1119.65
1115
1110.29
1105.54
1100.73
1095.87
1090.95
1085.98
1080.94
1075.84
1070.68
1065.45
1060.16
1054.8
1049.38
1043.89
1038.33
1032.7
1027.01
1021.25
1015.42
1009.52
1003.56
997.536
991.445
985.291
979.075
972.798
966.462
960.069
953.62
947.118
940.564
933.96
927.309
920.613
913.874
907.095
900.278
893.427
886.542
879.634
872.694
865.731
858.748
851.748
844.734
837.71
830.679
823.645
816.611
809.58
802.557
795.545
788.549
781.57
774.614
767.685
760.785
753.917
747.086
740.292
733.54
726.832
720.17
713.558
706.999
700.495
694.05
687.666
681.347
675.095
668.915
662.808
656.778
650.828
644.957
639.167
633.473
627.867
622.351
616.928
611.601
606.372
601.243
596.216
591.293
586.476
581.766
577.165
572.675
568.297
564.033
559.883
555.85
551.934
548.136
544.458
540.9
537.464
534.15
530.959
527.891
524.949
522.132
519.44
516.875
514.438
512.128
509.946
507.892
505.968
504.173
502.508
500.972
499.566
498.29
497.144
496.128
495.243
494.489
493.865
493.369
492.994
492.733
492.584
3070.07
3069.85
3069.41
3068.74
3067.85
3066.74
3065.41
3063.86
3062.09
3060.1
3057.89
3055.47
3052.82
3049.96
3046.87
3043.57
3040.05
3036.32
3032.37
3028.2
3023.82
3019.22
3014.41
3009.39
3004.15
2998.69
2993.03
2987.16
2981.07
2974.78
2968.28
2961.57
2954.65
2947.53
2940.21
2932.68
2924.96
2917.03
2908.91
2900.59
2892.08
2883.38
2874.49
2865.41
2856.14
2846.69
2837.07
2827.26
2817.27
2807.12
2796.79
2786.29
2775.63
2764.81
2753.83
2742.69
2731.39
2719.95
2708.36
2696.63
2684.76
2672.75
2660.61
2648.35
2635.95
2623.44
2610.81
2598.07
2585.21
2572.25
2559.19
2546.04
2532.79
2519.45
2506.02
2492.52
2478.94
2465.28
2451.56
2437.78
2423.93
2410.03
2396.07
2382.07
2368.02
2353.94
2339.82
2325.66
2311.48
2297.28
2283.06
2268.82
2254.57
2240.31
2226.05
2211.79
2197.53
2183.28
2169.04
2154.82
2140.62
2126.44
2112.29
2098.17
2084.08
2070.03
2056.03
2042.07
2028.15
2014.3
2000.5
1986.76
1973.08
1959.47
1945.93
1932.47
1919.08
1905.78
1892.55
1879.42
1866.38
1853.43
1840.58
1827.82
1815.17
1802.63
1790.19
1777.87
1765.66
1753.57
1741.59
1729.74
1718.01
1706.4
1694.93
1683.58
1672.37
1661.28
1650.34
1639.53
1628.86
1618.33
1607.94
1597.69
1587.58
1577.62
1567.81
1558.14
1548.61
1539.24
1530.01
1520.92
1511.98
1503.19
1494.55
1486.05
1477.7
1469.49
1461.42
1453.5
1445.71
1438.07
1430.56
1423.2
1415.96
1408.86
1401.89
1395.05
1388.34
1381.75
1375.29
1368.94
1362.72
1356.6
1350.6
1344.71
1338.92
1333.24
1327.66
1322.17
1316.77
1311.47
1306.25
1301.11
1296.05
1291.07
1286.16
1281.32
1276.54
1271.83
1267.17
1262.56
1258.01
1253.51
1249.04
1244.62
1240.24
1235.89
1231.57
1227.28
1223.01
1218.77
1214.54
1210.32
1206.12
1201.93
1197.74
1193.56
1189.37
1185.18
1180.99
1176.79
1172.57
1168.34
1164.09
1159.82
1155.53
1151.21
1146.86
1142.48
1138.06
1133.61
1129.11
1124.57
1119.99
1115.36
1110.68
1105.94
1101.16
1096.31
1091.41
1086.44
1081.42
1076.33
1071.17
1065.95
1060.66
1055.31
1049.88
1044.39
1038.83
1033.2
1027.5
1021.73
1015.89
1009.98
1004
997.963
991.855
985.683
979.447
973.149
966.791
960.375
953.901
947.374
940.793
934.162
927.483
920.758
913.99
907.182
900.335
893.453
886.538
879.595
872.625
865.631
858.616
851.585
844.54
837.485
830.422
823.356
816.291
809.229
802.174
795.13
788.1
781.088
774.097
767.131
760.193
753.286
746.413
739.577
732.782
726.031
719.326
712.671
706.069
699.522
693.034
686.609
680.248
673.955
667.734
661.587
655.517
649.526
643.619
637.798
632.058
626.41
620.856
615.396
610.033
604.768
599.605
594.545
589.59
584.741
580.001
575.371
570.852
566.447
562.156
557.981
553.923
549.984
546.164
542.464
538.887
535.431
532.1
528.892
525.809
522.853
520.022
517.319
514.743
512.296
509.978
507.789
505.729
503.799
502
500.331
498.793
497.385
496.108
494.961
493.944
493.058
492.303
491.677
491.18
490.805
490.545
490.396
3074.06
3073.84
3073.39
3072.72
3071.83
3070.72
3069.39
3067.83
3066.06
3064.07
3061.85
3059.42
3056.76
3053.89
3050.8
3047.48
3043.96
3040.21
3036.24
3032.06
3027.67
3023.05
3018.23
3013.18
3007.93
3002.45
2996.77
2990.88
2984.77
2978.45
2971.93
2965.19
2958.25
2951.1
2943.75
2936.2
2928.44
2920.48
2912.33
2903.97
2895.42
2886.68
2877.75
2868.63
2859.32
2849.83
2840.15
2830.3
2820.27
2810.06
2799.68
2789.13
2778.41
2767.53
2756.49
2745.29
2733.94
2722.43
2710.78
2698.98
2687.05
2674.97
2662.77
2650.43
2637.97
2625.38
2612.68
2599.87
2586.94
2573.91
2560.78
2547.55
2534.22
2520.81
2507.31
2493.73
2480.08
2466.35
2452.55
2438.69
2424.77
2410.79
2396.77
2382.69
2368.57
2354.41
2340.22
2325.99
2311.74
2297.46
2283.17
2268.86
2254.54
2240.21
2225.87
2211.54
2197.22
2182.9
2168.59
2154.3
2140.03
2125.79
2111.57
2097.38
2083.23
2069.12
2055.05
2041.02
2027.05
2013.13
1999.27
1985.47
1971.73
1958.06
1944.47
1930.95
1917.5
1904.14
1890.87
1877.68
1864.58
1851.58
1838.68
1825.88
1813.18
1800.59
1788.11
1775.75
1763.49
1751.36
1739.34
1727.45
1715.69
1704.05
1692.54
1681.16
1669.91
1658.8
1647.83
1637
1626.31
1615.76
1605.35
1595.08
1584.96
1574.99
1565.17
1555.49
1545.96
1536.58
1527.34
1518.26
1509.32
1500.54
1491.9
1483.41
1475.07
1466.87
1458.82
1450.92
1443.15
1435.53
1428.05
1420.71
1413.51
1406.44
1399.51
1392.71
1386.04
1379.49
1373.07
1366.77
1360.59
1354.53
1348.58
1342.73
1337
1331.37
1325.84
1320.41
1315.07
1309.82
1304.66
1299.58
1294.58
1289.66
1284.8
1280.02
1275.3
1270.64
1266.04
1261.5
1257
1252.55
1248.15
1243.78
1239.45
1235.16
1230.89
1226.65
1222.43
1218.24
1214.06
1209.9
1205.74
1201.6
1197.46
1193.32
1189.18
1185.03
1180.88
1176.72
1172.55
1168.36
1164.15
1159.92
1155.67
1151.38
1147.07
1142.72
1138.34
1133.92
1129.46
1124.95
1120.39
1115.79
1111.13
1106.42
1101.65
1096.83
1091.94
1086.99
1081.98
1076.9
1071.75
1066.54
1061.26
1055.9
1050.48
1044.99
1039.42
1033.78
1028.07
1022.29
1016.44
1010.52
1004.53
998.468
992.341
986.148
979.889
973.568
967.184
960.741
954.24
947.683
941.072
934.41
927.698
920.94
914.138
907.295
900.413
893.495
886.545
879.564
872.557
865.526
858.474
851.405
844.322
837.228
830.128
823.023
815.918
808.816
801.721
794.636
787.564
780.509
773.475
766.464
759.48
752.526
745.606
738.722
731.879
725.079
718.325
711.621
704.97
698.374
691.838
685.363
678.954
672.614
666.345
660.15
654.033
647.996
642.042
636.174
630.392
624.702
619.104
613.602
608.197
602.893
597.69
592.592
587.599
582.714
577.938
573.274
568.722
564.285
559.964
555.759
551.673
547.707
543.861
540.137
536.536
533.059
529.706
526.479
523.379
520.405
517.559
514.841
512.253
509.793
507.464
505.265
503.197
501.259
499.453
497.779
496.235
494.823
493.543
492.393
491.374
490.486
489.727
489.099
488.6
488.224
487.966
487.818
3078.61
3078.39
3077.95
3077.28
3076.38
3075.27
3073.93
3072.37
3070.6
3068.59
3066.37
3063.93
3061.27
3058.38
3055.28
3051.96
3048.42
3044.66
3040.68
3036.49
3032.07
3027.44
3022.6
3017.53
3012.26
3006.76
3001.06
2995.14
2989.01
2982.67
2976.11
2969.35
2962.38
2955.2
2947.81
2940.22
2932.43
2924.44
2916.24
2907.85
2899.26
2890.47
2881.49
2872.32
2862.97
2853.42
2843.69
2833.78
2823.69
2813.43
2802.99
2792.37
2781.59
2770.65
2759.54
2748.27
2736.85
2725.27
2713.55
2701.68
2689.67
2677.52
2665.23
2652.82
2640.27
2627.61
2614.83
2601.93
2588.92
2575.81
2562.59
2549.27
2535.87
2522.37
2508.78
2495.12
2481.38
2467.57
2453.68
2439.74
2425.73
2411.67
2397.56
2383.39
2369.19
2354.95
2340.67
2326.36
2312.02
2297.67
2283.29
2268.9
2254.49
2240.08
2225.67
2211.26
2196.85
2182.46
2168.07
2153.71
2139.36
2125.04
2110.74
2096.48
2082.25
2068.07
2053.92
2039.83
2025.78
2011.79
1997.86
1983.99
1970.18
1956.45
1942.79
1929.2
1915.69
1902.27
1888.93
1875.68
1862.53
1849.47
1836.51
1823.65
1810.9
1798.25
1785.72
1773.3
1761
1748.82
1736.76
1724.83
1713.02
1701.34
1689.79
1678.38
1667.1
1655.96
1644.95
1634.09
1623.37
1612.8
1602.37
1592.09
1581.95
1571.96
1562.13
1552.44
1542.9
1533.52
1524.28
1515.2
1506.27
1497.49
1488.86
1480.38
1472.05
1463.87
1455.84
1447.96
1440.22
1432.63
1425.18
1417.87
1410.71
1403.68
1396.79
1390.03
1383.4
1376.9
1370.53
1364.28
1358.15
1352.15
1346.25
1340.47
1334.8
1329.23
1323.76
1318.39
1313.12
1307.94
1302.84
1297.83
1292.9
1288.04
1283.25
1278.54
1273.89
1269.3
1264.76
1260.28
1255.85
1251.47
1247.12
1242.82
1238.56
1234.32
1230.12
1225.94
1221.78
1217.64
1213.52
1209.41
1205.31
1201.22
1197.13
1193.05
1188.96
1184.87
1180.76
1176.65
1172.53
1168.39
1164.22
1160.04
1155.83
1151.59
1147.32
1143.01
1138.67
1134.29
1129.86
1125.38
1120.86
1116.29
1111.66
1106.98
1102.23
1097.43
1092.56
1087.63
1082.63
1077.57
1072.43
1067.22
1061.94
1056.59
1051.17
1045.67
1040.1
1034.46
1028.74
1022.95
1017.08
1011.14
1005.13
999.054
992.905
986.687
980.403
974.054
967.642
961.168
954.635
948.044
941.399
934.701
927.953
921.157
914.317
907.434
900.511
893.552
886.56
879.538
872.487
865.413
858.317
851.204
844.076
836.937
829.791
822.64
815.489
808.339
801.196
794.062
786.941
779.836
772.751
765.688
758.651
751.644
744.67
737.732
730.834
723.979
717.169
710.41
703.702
697.051
690.459
683.93
677.466
671.071
664.747
658.499
652.328
646.238
640.232
634.311
628.48
622.739
617.093
611.542
606.091
600.74
595.493
590.35
585.315
580.388
575.573
570.87
566.28
561.807
557.451
553.213
549.095
545.098
541.223
537.471
533.844
530.341
526.965
523.716
520.595
517.602
514.737
512.003
509.399
506.925
504.583
502.372
500.293
498.346
496.531
494.849
493.299
491.881
490.595
489.44
488.417
487.525
486.764
486.133
485.632
485.255
484.999
484.852
3083.74
3083.52
3083.07
3082.4
3081.51
3080.39
3079.05
3077.48
3075.7
3073.69
3071.46
3069.01
3066.34
3063.45
3060.34
3057
3053.45
3049.67
3045.68
3041.47
3037.04
3032.39
3027.53
3022.44
3017.14
3011.63
3005.9
2999.95
2993.79
2987.42
2980.84
2974.04
2967.04
2959.82
2952.4
2944.77
2936.94
2928.9
2920.66
2912.22
2903.58
2894.75
2885.72
2876.49
2867.08
2857.48
2847.69
2837.72
2827.56
2817.23
2806.72
2796.04
2785.19
2774.17
2762.98
2751.64
2740.14
2728.48
2716.67
2704.72
2692.62
2680.38
2668.01
2655.51
2642.88
2630.12
2617.24
2604.25
2591.15
2577.94
2564.63
2551.22
2537.72
2524.12
2510.44
2496.68
2482.84
2468.93
2454.95
2440.91
2426.81
2412.65
2398.44
2384.19
2369.89
2355.55
2341.18
2326.77
2312.34
2297.89
2283.42
2268.94
2254.44
2239.94
2225.44
2210.94
2196.44
2181.95
2167.48
2153.03
2138.59
2124.18
2109.8
2095.46
2081.15
2066.88
2052.65
2038.47
2024.35
2010.28
1996.26
1982.32
1968.43
1954.62
1940.88
1927.22
1913.64
1900.15
1886.74
1873.42
1860.2
1847.07
1834.05
1821.12
1808.31
1795.61
1783.02
1770.54
1758.18
1745.95
1733.84
1721.85
1710
1698.27
1686.68
1675.23
1663.91
1652.73
1641.7
1630.8
1620.05
1609.45
1599
1588.69
1578.54
1568.54
1558.69
1548.99
1539.44
1530.05
1520.81
1511.73
1502.8
1494.03
1485.41
1476.95
1468.63
1460.47
1452.46
1444.61
1436.9
1429.34
1421.92
1414.65
1407.53
1400.54
1393.69
1386.98
1380.41
1373.96
1367.65
1361.46
1355.4
1349.45
1343.62
1337.91
1332.31
1326.81
1321.41
1316.12
1310.92
1305.81
1300.79
1295.85
1291
1286.22
1281.51
1276.87
1272.29
1267.78
1263.32
1258.92
1254.56
1250.25
1245.98
1241.75
1237.55
1233.39
1229.25
1225.14
1221.05
1216.97
1212.92
1208.87
1204.83
1200.8
1196.78
1192.75
1188.72
1184.68
1180.64
1176.58
1172.51
1168.42
1164.31
1160.18
1156.02
1151.83
1147.61
1143.35
1139.05
1134.71
1130.32
1125.89
1121.4
1116.86
1112.27
1107.61
1102.9
1098.12
1093.27
1088.36
1083.38
1078.32
1073.2
1068
1062.73
1057.38
1051.96
1046.46
1040.88
1035.23
1029.5
1023.69
1017.81
1011.85
1005.82
999.722
993.547
987.302
980.989
974.609
968.163
961.655
955.086
948.458
941.773
935.035
928.246
921.407
914.523
907.595
900.627
893.621
886.582
879.511
872.412
865.288
858.142
850.978
843.799
836.608
829.409
822.205
814.999
807.796
800.597
793.407
786.229
779.066
771.923
764.801
757.705
750.637
743.602
736.603
729.643
722.726
715.854
709.032
702.262
695.549
688.894
682.303
675.777
669.32
662.936
656.627
650.396
644.246
638.181
632.203
626.314
620.517
614.816
609.211
603.707
598.305
593.007
587.815
582.732
577.759
572.898
568.151
563.52
559.006
554.61
550.335
546.181
542.15
538.242
534.459
530.802
527.272
523.87
520.596
517.451
514.436
511.551
508.798
506.176
503.687
501.329
499.105
497.013
495.055
493.23
491.538
489.979
488.554
487.261
486.101
485.073
484.177
483.412
482.779
482.276
481.899
481.642
481.496
3089.45
3089.22
3088.77
3088.1
3087.2
3086.08
3084.74
3083.17
3081.38
3079.36
3077.13
3074.67
3071.99
3069.08
3065.96
3062.61
3059.05
3055.26
3051.25
3047.02
3042.57
3037.9
3033.02
3027.91
3022.59
3017.05
3011.29
3005.31
2999.13
2992.72
2986.1
2979.27
2972.23
2964.98
2957.51
2949.84
2941.96
2933.88
2925.59
2917.1
2908.4
2899.51
2890.42
2881.14
2871.67
2862
2852.14
2842.1
2831.87
2821.47
2810.88
2800.12
2789.19
2778.09
2766.82
2755.39
2743.8
2732.05
2720.15
2708.11
2695.91
2683.58
2671.11
2658.51
2645.77
2632.92
2619.94
2606.84
2593.63
2580.32
2566.9
2553.39
2539.77
2526.07
2512.28
2498.42
2484.47
2470.45
2456.36
2442.21
2428
2413.74
2399.42
2385.06
2370.65
2356.21
2341.73
2327.22
2312.69
2298.13
2283.56
2268.97
2254.38
2239.78
2225.17
2210.57
2195.97
2181.39
2166.82
2152.26
2137.73
2123.23
2108.75
2094.31
2079.91
2065.54
2051.22
2036.95
2022.74
2008.58
1994.48
1980.44
1966.47
1952.58
1938.75
1925.01
1911.35
1897.77
1884.29
1870.89
1857.59
1844.39
1831.29
1818.3
1805.42
1792.65
1779.99
1767.45
1755.03
1742.74
1730.57
1718.53
1706.62
1694.84
1683.21
1671.7
1660.34
1649.12
1638.05
1627.12
1616.34
1605.71
1595.23
1584.9
1574.72
1564.7
1554.83
1545.12
1535.57
1526.17
1516.93
1507.85
1498.93
1490.16
1481.55
1473.1
1464.81
1456.67
1448.69
1440.86
1433.18
1425.65
1418.28
1411.05
1403.97
1397.03
1390.24
1383.58
1377.06
1370.68
1364.43
1358.31
1352.31
1346.44
1340.69
1335.05
1329.52
1324.1
1318.79
1313.58
1308.46
1303.44
1298.51
1293.66
1288.89
1284.19
1279.57
1275.02
1270.53
1266.1
1261.73
1257.4
1253.13
1248.9