/*--------------------------------*- C++ -*----------------------------------*\
| =========                 |                                                 |
| \\      /  F ield         | OpenFOAM: The Open Source CFD Toolbox           |
|  \\    /   O peration     | Version:  v2006                                 |
|   \\  /    A nd           | Website:  www.openfoam.com                      |
|    \\/     M anipulation  |                                                 |
\*---------------------------------------------------------------------------*/
FoamFile
{
    version     2.0;
    format      ascii;
    class       surfaceScalarField;
    location    "19";
    object      phi;
}
// * * * * * * * * * * * * * * * * * * * * * * * * * * * * * * * * * * * * * //

dimensions      [0 3 -1 0 0 0 0];
oriented        oriented;


internalField   nonuniform List<scalar> 
104500
(
3.07861e-05
-3.07861e-05
6.73489e-05
-3.65628e-05
0.000103112
-3.57632e-05
0.000138009
-3.48964e-05
0.000172605
-3.45964e-05
0.000207042
-3.44368e-05
0.000241406
-3.4364e-05
0.000275709
-3.4303e-05
0.000309922
-3.42135e-05
0.00034401
-3.40873e-05
0.000377943
-3.39338e-05
0.000411708
-3.37645e-05
0.000445296
-3.35886e-05
0.000478708
-3.34119e-05
0.000511945
-3.3237e-05
0.00054501
-3.30648e-05
0.000577908
-3.28977e-05
0.000610642
-3.27341e-05
0.000643218
-3.25764e-05
0.000675643
-3.24245e-05
0.000707921
-3.22781e-05
0.000740057
-3.21359e-05
0.000772053
-3.19958e-05
0.000803907
-3.18543e-05
0.000835616
-3.17095e-05
0.000867174
-3.15579e-05
0.000898571
-3.13962e-05
0.000929793
-3.12227e-05
0.00096083
-3.10362e-05
0.000991667
-3.08379e-05
0.0010223
-3.06292e-05
0.00105271
-3.04134e-05
0.0010829
-3.01888e-05
0.00111285
-2.99524e-05
0.00114255
-2.9696e-05
0.00117196
-2.94094e-05
0.00120104
-2.90821e-05
0.00122975
-2.87092e-05
0.00125803
-2.82857e-05
0.00128584
-2.78104e-05
0.00131312
-2.72777e-05
0.0013398
-2.66749e-05
0.00136578
-2.59822e-05
0.00139096
-2.51779e-05
0.0014152
-2.42481e-05
0.0014384
-2.31985e-05
0.00146046
-2.206e-05
0.00148135
-2.0889e-05
0.00150111
-1.97603e-05
0.00151985
-1.87352e-05
0.00153771
-1.78658e-05
0.00155488
-1.71658e-05
0.00157151
-1.66287e-05
0.00158773
-1.62248e-05
0.00160365
-1.59205e-05
0.00161934
-1.5686e-05
0.00163484
-1.54976e-05
0.00165019
-1.53506e-05
0.00166543
-1.52409e-05
0.0016806
-1.517e-05
0.00169574
-1.51446e-05
0.00171091
-1.51684e-05
0.00172615
-1.52403e-05
0.00174151
-1.53556e-05
0.00175701
-1.55071e-05
0.0017727
-1.56871e-05
0.00178859
-1.58894e-05
0.0018047
-1.61089e-05
0.00182104
-1.63434e-05
0.00183764
-1.65931e-05
0.00185449
-1.68558e-05
0.00187162
-1.71301e-05
0.00188904
-1.7414e-05
0.00190674
-1.77036e-05
0.00192473
-1.79938e-05
0.00194301
-1.8279e-05
0.00196157
-1.85538e-05
0.00198038
-1.88132e-05
0.00199943
-1.90534e-05
0.0020187
-1.92713e-05
0.00203817
-1.94649e-05
0.0020578
-1.96333e-05
0.00207758
-1.97757e-05
0.00209747
-1.98919e-05
0.00211745
-1.99829e-05
0.0021375
-2.00497e-05
0.0021576
-2.00947e-05
0.00217772
-2.01203e-05
0.00219785
-2.01302e-05
0.00221798
-2.01279e-05
0.00223809
-2.01159e-05
0.00225819
-2.00954e-05
0.00227825
-2.0065e-05
0.00229827
-2.00201e-05
0.00231823
-1.99537e-05
0.00233808
-1.98581e-05
0.00235781
-1.97263e-05
0.00237737
-1.9557e-05
0.00239672
-1.93503e-05
0.00241583
-1.91086e-05
0.00243466
-1.88371e-05
0.0024532
-1.85413e-05
0.00247143
-1.82261e-05
0.00248933
-1.78943e-05
0.00250687
-1.75484e-05
0.00252406
-1.71903e-05
0.00254089
-1.68213e-05
0.00255733
-1.64429e-05
0.00257338
-1.6055e-05
0.00258904
-1.56582e-05
0.00260429
-1.52524e-05
0.00261913
-1.48375e-05
0.00263354
-1.44126e-05
0.00264752
-1.3978e-05
0.00266106
-1.35361e-05
0.00267414
-1.30836e-05
0.00268676
-1.26187e-05
0.0026989
-1.21435e-05
0.00271056
-1.16583e-05
0.00272172
-1.11613e-05
0.00273238
-1.06519e-05
0.00274251
-1.01299e-05
0.0027521
-9.59412e-06
0.00276114
-9.04339e-06
0.00276962
-8.47711e-06
0.00277752
-7.89618e-06
0.00278482
-7.30277e-06
0.00279152
-6.70245e-06
0.00279762
-6.10024e-06
0.00280312
-5.50231e-06
0.00280804
-4.91706e-06
0.00281239
-4.3519e-06
0.0028162
-3.81018e-06
0.00281949
-3.29135e-06
0.00282229
-2.79119e-06
0.00282459
-2.30175e-06
0.0028264
-1.81183e-06
0.00282771
-1.30814e-06
0.00282848
-7.76396e-07
0.00282868
-1.99724e-07
0.00282825
4.34405e-07
0.00282714
1.10441e-06
0.00282532
1.82528e-06
0.00282273
2.58978e-06
0.00281933
3.40346e-06
0.00281505
4.27961e-06
0.00280981
5.24078e-06
0.00280351
6.29818e-06
0.00279601
7.49292e-06
0.00278716
8.85456e-06
0.00277678
1.03846e-05
0.00276472
1.20578e-05
0.00275089
1.38233e-05
0.00273528
1.56113e-05
0.00271793
1.73543e-05
0.00269893
1.90003e-05
0.00267842
2.05056e-05
0.00265661
2.18163e-05
0.00263376
2.28437e-05
0.00261032
2.3441e-05
0.00258683
2.34876e-05
0.00256393
2.29073e-05
0.00254223
2.17017e-05
0.00252211
2.01139e-05
0.00250363
1.84828e-05
0.00248657
1.70588e-05
0.00247063
1.59394e-05
0.00245551
1.51181e-05
0.00244096
1.45494e-05
0.00242678
1.41793e-05
0.00241283
1.39554e-05
0.002399
1.38289e-05
0.00238524
1.376e-05
0.00237152
1.37171e-05
0.00235784
1.36793e-05
0.00234421
1.36355e-05
0.00233063
1.35806e-05
0.00231711
1.35131e-05
0.00230368
1.34362e-05
0.00229032
1.33574e-05
0.00227703
1.32861e-05
0.0022638
1.32309e-05
0.0022506
1.32013e-05
0.00223739
1.32077e-05
0.00222413
1.32602e-05
0.00221077
1.33657e-05
0.00219724
1.35289e-05
0.00218349
1.37519e-05
0.00216945
1.40349e-05
0.00215508
1.43755e-05
0.00214031
1.47689e-05
0.0021251
1.52089e-05
0.00210941
1.56882e-05
0.00209321
1.61996e-05
0.00207648
1.67359e-05
0.00205919
1.72891e-05
0.00204133
1.78511e-05
0.00202292
1.84148e-05
0.00200395
1.89749e-05
0.00198442
1.95249e-05
0.00196436
2.00602e-05
0.00194378
2.05793e-05
0.0019227
2.10808e-05
0.00190114
2.1564e-05
0.00187911
2.20309e-05
0.00185662
2.24853e-05
0.00183369
2.2932e-05
0.00181031
2.33745e-05
0.0017865
2.38165e-05
0.00176224
2.42605e-05
0.00173753
2.47083e-05
0.00171237
2.51605e-05
0.00168675
2.5618e-05
0.00166067
2.60795e-05
0.00163413
2.65449e-05
0.00160711
2.70121e-05
0.00157963
2.74806e-05
0.00155168
2.79486e-05
0.00152327
2.84162e-05
0.00149439
2.88803e-05
0.00146505
2.93419e-05
0.00143525
2.97983e-05
0.001405
3.02501e-05
0.0013743
3.06961e-05
0.00134317
3.11326e-05
0.00131161
3.15609e-05
0.00127963
3.19796e-05
0.00124724
3.23865e-05
0.00121446
3.278e-05
0.0011813
3.31603e-05
0.00114778
3.35261e-05
0.0011139
3.38774e-05
0.00107969
3.42121e-05
0.00104516
3.45301e-05
0.00101032
3.48314e-05
0.000975208
3.51158e-05
0.000939825
3.53833e-05
0.000904191
3.56344e-05
0.00086832
3.58704e-05
0.000832228
3.6092e-05
0.000795929
3.62996e-05
0.000759433
3.64953e-05
0.00072275
3.66832e-05
0.000685884
3.68664e-05
0.000648836
3.70477e-05
0.000611602
3.72338e-05
0.00057417
3.74318e-05
0.000536517
3.76534e-05
0.0004986
3.79168e-05
0.000460367
3.82334e-05
0.000421737
3.86294e-05
0.000382606
3.91314e-05
0.000342863
3.97427e-05
0.000302418
4.04453e-05
0.000261227
4.11906e-05
0.000219299
4.19287e-05
0.000176693
4.26061e-05
0.000133482
4.32105e-05
8.97363e-05
4.37458e-05
4.54964e-05
4.42399e-05
7.53702e-07
4.47427e-05
-4.45052e-05
4.52589e-05
-9.03327e-05
4.58275e-05
-0.000136777
4.64442e-05
-0.000183886
4.71095e-05
-0.000231693
4.7807e-05
-0.000280228
4.85345e-05
-0.000329483
4.92548e-05
-0.000379395
4.99124e-05
-0.000429823
5.04281e-05
-0.000480546
5.07228e-05
-0.000531326
5.07802e-05
-0.000582051
5.0725e-05
-0.000632892
5.08408e-05
-0.000684329
5.14365e-05
-0.000736917
5.25881e-05
-0.00079055
5.36334e-05
-0.000843416
5.28661e-05
-0.000892533
4.91167e-05
-0.00093491
4.23771e-05
-0.000968753
3.38429e-05
-0.000993849
2.50957e-05
-0.00101118
1.7334e-05
-0.00102235
1.11653e-05
-0.00102906
6.71635e-06
-0.00103281
3.74958e-06
-0.00103468
1.86778e-06
-0.00103537
6.92132e-07
-0.00103532
-5.42242e-08
-0.00103483
-4.85374e-07
-0.00103401
-8.21209e-07
-0.0010329
-1.11076e-06
-0.00103151
-1.39419e-06
-0.00102978
-1.72414e-06
-0.00102765
-2.13879e-06
-0.00102499
-2.65319e-06
-0.00102173
-3.26519e-06
-0.00101776
-3.96723e-06
-0.00101301
-4.74949e-06
-0.00100742
-5.58966e-06
-0.00100096
-6.46184e-06
-0.000993615
-7.34352e-06
-0.000985405
-8.21027e-06
-0.000976366
-9.03909e-06
-0.000966544
-9.82127e-06
-0.000955989
-1.05551e-05
-0.000944745
-1.12446e-05
-0.000932841
-1.19036e-05
-0.000920294
-1.25474e-05
-0.000907108
-1.31851e-05
-0.000893284
-1.38239e-05
-0.000878817
-1.4467e-05
-0.000863711
-1.51066e-05
-0.000847974
-1.57365e-05
-0.000831619
-1.63557e-05
-0.000814656
-1.69622e-05
-0.000797108
-1.75481e-05
-0.000778999
-1.81097e-05
-0.000760354
-1.8645e-05
-0.000741201
-1.9153e-05
-0.000721568
-1.96322e-05
-0.000701484
-2.00842e-05
-0.000680975
-2.05089e-05
-0.000660069
-2.09066e-05
-0.00063879
-2.12784e-05
-0.000617165
-2.16256e-05
-0.000595216
-2.19489e-05
-0.000572966
-2.22502e-05
-0.000550435
-2.25305e-05
-0.000527641
-2.27939e-05
-0.000504599
-2.30427e-05
-0.000481317
-2.32814e-05
-0.000457799
-2.3518e-05
-0.000434037
-2.37618e-05
-0.000410014
-2.40233e-05
-0.000385705
-2.43095e-05
-0.000361079
-2.46253e-05
-0.000336105
-2.49742e-05
-0.000310744
-2.53613e-05
-0.000284957
-2.57873e-05
-0.000258705
-2.62517e-05
-0.000231939
-2.67658e-05
-0.0002046
-2.73394e-05
-0.000176606
-2.79936e-05
-0.000147864
-2.87417e-05
-0.000118301
-2.95632e-05
-8.78747e-05
-3.04265e-05
-5.62437e-05
-3.16309e-05
-2.3958e-05
-3.22857e-05
-2.3958e-05
1.03566e-05
-4.11427e-05
2.00826e-05
-4.62888e-05
2.81075e-05
-4.37882e-05
3.65004e-05
-4.32893e-05
4.5281e-05
-4.3377e-05
5.41377e-05
-4.32936e-05
6.29917e-05
-4.32181e-05
7.1862e-05
-4.31732e-05
8.08068e-05
-4.31582e-05
8.98935e-05
-4.31739e-05
9.91835e-05
-4.32239e-05
0.000108734
-4.33154e-05
0.000118601
-4.34555e-05
0.000128841
-4.36512e-05
0.000139509
-4.39053e-05
0.000150662
-4.42184e-05
0.000162354
-4.45897e-05
0.000174631
-4.50103e-05
0.000187529
-4.54751e-05
0.000201076
-4.59711e-05
0.000215285
-4.64872e-05
0.000230156
-4.7007e-05
0.000245675
-4.75146e-05
0.000261817
-4.79966e-05
0.000278549
-4.84414e-05
0.000295828
-4.88364e-05
0.000313609
-4.91778e-05
0.000331846
-4.94596e-05
0.000350494
-4.96841e-05
0.000369509
-4.98532e-05
0.000388855
-4.99754e-05
0.000408502
-5.00604e-05
0.000428433
-5.01195e-05
0.000448635
-5.01545e-05
0.000469095
-5.01554e-05
0.000489794
-5.01091e-05
0.000510704
-4.99912e-05
0.000531772
-4.97775e-05
0.000552938
-4.94518e-05
0.00057412
-4.8993e-05
0.000595231
-4.83878e-05
0.00061618
-4.76244e-05
0.000636895
-4.66975e-05
0.000657331
-4.56132e-05
0.000677476
-4.43932e-05
0.000697353
-4.30759e-05
0.000717009
-4.17156e-05
0.000736494
-4.03738e-05
0.000755846
-3.91123e-05
0.000775085
-3.79746e-05
0.000794205
-3.69855e-05
0.000813212
-3.61736e-05
0.000832115
-3.55311e-05
0.000850922
-3.50323e-05
0.000869657
-3.46548e-05
0.000888348
-3.43768e-05
0.00090703
-3.41799e-05
0.000925735
-3.40555e-05
0.000944491
-3.39968e-05
0.000963322
-3.40012e-05
0.000982243
-3.40654e-05
0.00100126
-3.4185e-05
0.00102037
-3.43535e-05
0.00103958
-3.45623e-05
0.00105887
-3.48026e-05
0.00107825
-3.50654e-05
0.00109771
-3.53435e-05
0.00111723
-3.56334e-05
0.00113682
-3.59313e-05
0.00115646
-3.62365e-05
0.00117615
-3.65449e-05
0.00119588
-3.68563e-05
0.00121563
-3.71689e-05
0.00123541
-3.74793e-05
0.0012552
-3.77836e-05
0.001275
-3.80782e-05
0.0012948
-3.83596e-05
0.00131462
-3.86252e-05
0.00133444
-3.88732e-05
0.00135427
-3.91035e-05
0.00137412
-3.93172e-05
0.001394
-3.95163e-05
0.00141393
-3.97039e-05
0.00143392
-3.98826e-05
0.00145399
-4.00534e-05
0.00147416
-4.02154e-05
0.00149443
-4.03654e-05
0.00151481
-4.04985e-05
0.00153529
-4.06083e-05
0.00155585
-4.06894e-05
0.00157647
-4.0737e-05
0.00159712
-4.07471e-05
0.00161777
-4.07168e-05
0.00163839
-4.06438e-05
0.00165897
-4.05268e-05
0.00167948
-4.03652e-05
0.00169991
-4.01594e-05
0.00172026
-3.99099e-05
0.00174053
-3.96207e-05
0.00176072
-3.92946e-05
0.00178081
-3.89343e-05
0.00180082
-3.85436e-05
0.00182072
-3.81259e-05
0.00184051
-3.76834e-05
0.00186018
-3.72184e-05
0.00187972
-3.67324e-05
0.00189912
-3.62263e-05
0.00191838
-3.57006e-05
0.00193748
-3.51554e-05
0.00195641
-3.45924e-05
0.00197517
-3.40117e-05
0.00199375
-3.34115e-05
0.00201213
-3.2794e-05
0.00203031
-3.21605e-05
0.00204828
-3.1507e-05
0.00206604
-3.08363e-05
0.00208357
-3.01531e-05
0.00210088
-2.94561e-05
0.00211797
-2.87447e-05
0.00213483
-2.80198e-05
0.00215146
-2.72818e-05
0.00216786
-2.65295e-05
0.00218402
-2.57619e-05
0.00219996
-2.49781e-05
0.00221566
-2.41761e-05
0.00223112
-2.33549e-05
0.00224633
-2.25134e-05
0.00226128
-2.16512e-05
0.00227594
-2.07682e-05
0.00229031
-1.9865e-05
0.00230433
-1.89413e-05
0.00231798
-1.79973e-05
0.0023312
-1.70332e-05
0.00234396
-1.60487e-05
0.00235621
-1.50426e-05
0.00236792
-1.40126e-05
0.00237906
-1.29564e-05
0.00238963
-1.18714e-05
0.00239961
-1.0755e-05
0.00240901
-9.6045e-06
0.00241786
-8.41976e-06
0.00242617
-7.19874e-06
0.00243393
-5.9321e-06
0.00244113
-4.61439e-06
0.00244777
-3.23657e-06
0.00245383
-1.7816e-06
0.00245926
-1.85128e-07
0.00246414
1.41727e-06
0.00246859
3.03828e-06
0.00247272
4.72885e-06
0.00247666
6.4459e-06
0.00248056
8.15663e-06
0.00248456
9.82547e-06
0.00248875
1.14133e-05
0.00249323
1.28807e-05
0.00249804
1.41905e-05
0.00250323
1.53155e-05
0.0025088
1.62421e-05
0.00251468
1.69663e-05
0.00252063
1.74876e-05
0.00252629
1.78265e-05
0.00253123
1.79692e-05
0.00253503
1.78991e-05
0.00253744
1.77095e-05
0.00253843
1.74926e-05
0.00253816
1.73277e-05
0.00253684
1.72619e-05
0.00253464
1.73122e-05
0.00253172
1.7473e-05
0.00252817
1.77286e-05
0.00252407
1.80561e-05
0.00251947
1.84319e-05
0.00251439
1.88357e-05
0.00250885
1.92534e-05
0.00250286
1.96745e-05
0.0024964
2.00922e-05
0.00248948
2.05063e-05
0.00248207
2.09222e-05
0.00247416
2.13434e-05
0.00246574
2.17779e-05
0.0024568
2.22309e-05
0.00244731
2.27114e-05
0.00243729
2.32308e-05
0.0024267
2.37938e-05
0.00241555
2.44069e-05
0.00240384
2.50738e-05
0.00239158
2.57964e-05
0.00237876
2.65729e-05
0.00236539
2.73989e-05
0.0023515
2.8268e-05
0.0023371
2.91724e-05
0.0023222
3.01028e-05
0.00230684
3.10503e-05
0.00229103
3.2006e-05
0.00227481
3.29641e-05
0.00225818
3.39196e-05
0.00224116
3.48703e-05
0.00222376
3.58153e-05
0.00220597
3.67555e-05
0.00218781
3.76941e-05
0.00216923
3.86331e-05
0.00215024
3.95761e-05
0.00213079
4.05265e-05
0.00211087
4.14881e-05
0.00209044
4.24619e-05
0.00206947
4.34492e-05
0.00204795
4.44512e-05
0.00202586
4.54676e-05
0.00200318
4.64968e-05
0.0019799
4.75375e-05
0.00195603
4.85844e-05
0.00193155
4.96372e-05
0.00190647
5.0694e-05
0.0018808
5.17492e-05
0.00185454
5.28041e-05
0.0018277
5.38582e-05
0.00180027
5.4908e-05
0.00177226
5.59572e-05
0.00174368
5.70011e-05
0.00171451
5.80443e-05
0.00168477
5.90813e-05
0.00165446
6.01148e-05
0.00162357
6.11409e-05
0.0015921
6.21589e-05
0.00156007
6.31676e-05
0.00152747
6.41601e-05
0.00149431
6.51377e-05
0.0014606
6.60969e-05
0.00142635
6.70315e-05
0.00139157
6.79431e-05
0.00135626
6.88288e-05
0.00132046
6.96839e-05
0.00128416
7.05059e-05
0.0012474
7.12947e-05
0.00121018
7.20479e-05
0.00117253
7.27635e-05
0.00113448
7.34401e-05
0.00109604
7.40768e-05
0.00105723
7.46733e-05
0.0010181
7.52287e-05
0.000978653
7.57425e-05
0.00093893
7.62184e-05
0.000898955
7.66576e-05
0.000858759
7.70624e-05
0.000818371
7.74354e-05
0.000777823
7.77822e-05
0.000737147
7.81082e-05
0.000696379
7.84213e-05
0.000655568
7.87272e-05
0.000614767
7.90352e-05
0.000574051
7.93453e-05
0.000533524
7.96585e-05
0.000493296
7.99705e-05
0.000453475
8.02661e-05
0.000414127
8.05383e-05
0.00037529
8.07657e-05
0.000336946
8.09507e-05
0.000299038
8.11182e-05
0.000261495
8.12884e-05
0.000224231
8.15044e-05
0.000187201
8.17728e-05
0.000150315
8.21445e-05
0.000113536
8.26067e-05
7.68089e-05
8.31712e-05
4.00813e-05
8.38372e-05
3.29612e-06
8.45922e-05
-3.35546e-05
8.53853e-05
-7.04663e-05
8.61664e-05
-0.000107421
8.68667e-05
-0.000144382
8.739e-05
-0.000181288
8.76287e-05
-0.000218008
8.74996e-05
-0.000254223
8.69401e-05
-0.000289253
8.58711e-05
-0.000321941
8.41241e-05
-0.000350716
8.13636e-05
-0.000373864
7.67806e-05
-0.000391314
7.03161e-05
-0.000404015
6.18184e-05
-0.000413178
5.154e-05
-0.000420129
4.07939e-05
-0.000426248
3.12142e-05
-0.000432598
2.36849e-05
-0.000439562
1.81288e-05
-0.000446864
1.40182e-05
-0.000453923
1.08088e-05
-0.000460148
8.09275e-06
-0.000465082
5.6266e-06
-0.000468504
3.36716e-06
-0.000470397
1.40834e-06
-0.000471048
-1.7072e-07
-0.000470732
-1.42632e-06
-0.000469879
-2.24777e-06
-0.00046879
-2.813e-06
-0.000467651
-3.27783e-06
-0.000466543
-3.7612e-06
-0.000465473
-4.33461e-06
-0.000464418
-5.02258e-06
-0.00046332
-5.84771e-06
-0.00046209
-6.81949e-06
-0.000460616
-7.93625e-06
-0.000458763
-9.19578e-06
-0.000456396
-1.05774e-05
-0.000453395
-1.20399e-05
-0.000449682
-1.35348e-05
-0.000445221
-1.50155e-05
-0.000440023
-1.64426e-05
-0.000434132
-1.77952e-05
-0.000427609
-1.907e-05
-0.000420517
-2.02776e-05
-0.000412905
-2.14356e-05
-0.000404809
-2.25628e-05
-0.000396237
-2.36786e-05
-0.000387182
-2.47923e-05
-0.000377624
-2.59132e-05
-0.000367547
-2.70391e-05
-0.000356941
-2.81541e-05
-0.000345805
-2.92463e-05
-0.000334146
-3.03039e-05
-0.000321988
-3.1311e-05
-0.000309357
-3.22627e-05
-0.000296292
-3.31495e-05
-0.000282834
-3.39674e-05
-0.000269031
-3.4709e-05
-0.00025494
-3.53695e-05
-0.000240626
-3.59391e-05
-0.000226159
-3.64159e-05
-0.00021162
-3.67895e-05
-0.000197102
-3.70485e-05
-0.000182708
-3.71881e-05
-0.00016855
-3.72008e-05
-0.000154743
-3.70879e-05
-0.000141407
-3.68548e-05
-0.000128653
-3.65158e-05
-0.000116588
-3.60882e-05
-0.000105292
-3.56049e-05
-9.48123e-05
-3.51052e-05
-8.5162e-05
-3.46245e-05
-7.63166e-05
-3.42067e-05
-6.82003e-05
-3.39035e-05
-6.07051e-05
-3.3747e-05
-5.36957e-05
-3.37751e-05
-4.70365e-05
-3.39986e-05
-4.05933e-05
-3.44368e-05
-3.42709e-05
-3.50642e-05
-2.80685e-05
-3.57656e-05
-2.21622e-05
-3.63328e-05
-1.6338e-05
-3.74551e-05
-8.40015e-06
-4.02236e-05
-3.23581e-05
2.47515e-06
-4.36179e-05
5.87233e-06
-4.9686e-05
7.14672e-06
-4.50626e-05
8.32958e-06
-4.44721e-05
9.76426e-06
-4.48116e-05
1.14928e-05
-4.50221e-05
1.35929e-05
-4.53181e-05
1.6169e-05
-4.57494e-05
1.93273e-05
-4.63166e-05
2.31454e-05
-4.6992e-05
2.77143e-05
-4.77927e-05
3.31046e-05
-4.87057e-05
3.93901e-05
-4.97411e-05
4.66246e-05
-5.08856e-05
5.48549e-05
-5.21356e-05
6.4111e-05
-5.34745e-05
7.44075e-05
-5.48862e-05
8.57462e-05
-5.6349e-05
9.81055e-05
-5.78343e-05
0.000111448
-5.9314e-05
0.000125714
-6.07527e-05
0.000140834
-6.21271e-05
0.000156732
-6.34125e-05
0.000173327
-6.45921e-05
0.000190544
-6.56585e-05
0.000208322
-6.66142e-05
0.000226609
-6.74646e-05
0.000245359
-6.82095e-05
0.000264528
-6.88533e-05
0.000284076
-6.94011e-05
0.000303964
-6.98639e-05
0.000324157
-7.02533e-05
0.000344621
-7.05831e-05
0.000365324
-7.08573e-05
0.00038625
-7.10821e-05
0.000407394
-7.12526e-05
0.000428743
-7.13405e-05
0.000450297
-7.13315e-05
0.000472046
-7.12003e-05
0.000493985
-7.09325e-05
0.000516114
-7.05165e-05
0.000538436
-6.99468e-05
0.000560968
-6.92289e-05
0.000583738
-6.83839e-05
0.000606789
-6.74441e-05
0.000630162
-6.64486e-05
0.000653887
-6.54405e-05
0.000677985
-6.44717e-05
0.000702465
-6.35927e-05
0.000727308
-6.28171e-05
0.000752461
-6.21393e-05
0.000777856
-6.15684e-05
0.000803416
-6.10912e-05
0.000829091
-6.07066e-05
0.000854839
-6.0403e-05
0.00088063
-6.01679e-05
0.000906447
-5.99966e-05
0.000932275
-5.98844e-05
0.000958106
-5.98277e-05
0.000983927
-5.98218e-05
0.00100972
-5.98598e-05
0.00103547
-5.99348e-05
0.00106116
-6.00375e-05
0.00108675
-6.01598e-05
0.00111224
-6.02942e-05
0.00113761
-6.04354e-05
0.00116285
-6.05804e-05
0.00118795
-6.07277e-05
0.00121289
-6.08776e-05
0.00123768
-6.10292e-05
0.00126232
-6.11849e-05
0.00128681
-6.13433e-05
0.00131115
-6.15023e-05
0.00133533
-6.1661e-05
0.00135936
-6.18173e-05
0.00138325
-6.19688e-05
0.00140701
-6.21138e-05
0.00143063
-6.22512e-05
0.00145414
-6.23799e-05
0.00147753
-6.25004e-05
0.00150083
-6.26134e-05
0.00152403
-6.27198e-05
0.00154715
-6.28202e-05
0.00157018
-6.29136e-05
0.00159313
-6.29982e-05
0.00161598
-6.30706e-05
0.00163874
-6.31242e-05
0.00166139
-6.31521e-05
0.00168393
-6.31465e-05
0.00170634
-6.31016e-05
0.00172862
-6.30131e-05
0.00175075
-6.28786e-05
0.00177273
-6.26982e-05
0.00179456
-6.24722e-05
0.00181624
-6.22021e-05
0.00183776
-6.18899e-05
0.00185914
-6.15369e-05
0.00188038
-6.11467e-05
0.00190148
-6.07199e-05
0.00192244
-6.02571e-05
0.00194326
-5.97589e-05
0.00196395
-5.92261e-05
0.00198448
-5.86593e-05
0.00200485
-5.80594e-05
0.00202506
-5.74262e-05
0.00204509
-5.67593e-05
0.00206492
-5.60597e-05
0.00208455
-5.53283e-05
0.00210396
-5.45635e-05
0.00212313
-5.37681e-05
0.00214206
-5.29394e-05
0.00216073
-5.20812e-05
0.00217913
-5.11908e-05
0.00219724
-5.02688e-05
0.00221505
-4.93192e-05
0.00223255
-4.83414e-05
0.00224973
-4.73322e-05
0.00226657
-4.62939e-05
0.00228305
-4.52265e-05
0.00229916
-4.41288e-05
0.00231488
-4.29977e-05
0.00233018
-4.18303e-05
0.00234504
-4.06275e-05
0.00235945
-3.93859e-05
0.00237338
-3.81049e-05
0.00238681
-3.67839e-05
0.00239972
-3.54238e-05
0.00241209
-3.40256e-05
0.00242392
-3.25937e-05
0.00243518
-3.11286e-05
0.00244588
-2.96333e-05
0.00245599
-2.81108e-05
0.00246552
-2.65642e-05
0.00247447
-2.49948e-05
0.00248283
-2.34038e-05
0.00249061
-2.17926e-05
0.00249781
-2.01625e-05
0.00250446
-1.85138e-05
0.00251055
-1.68466e-05
0.0025161
-1.51607e-05
0.00252114
-1.34543e-05
0.00252566
-1.17243e-05
0.0025297
-9.96561e-06
0.00253325
-8.17133e-06
0.00253635
-6.33293e-06
0.00253901
-4.44218e-06
0.00254133
-2.50361e-06
0.00254333
-5.84221e-07
0.00254505
1.31668e-06
0.00254647
3.30898e-06
0.00254766
5.26285e-06
0.00254864
7.17094e-06
0.00254945
9.01602e-06
0.00255009
1.07787e-05
0.00255053
1.24369e-05
0.00255075
1.39658e-05
0.00255073
1.53439e-05
0.00255041
1.65605e-05
0.00254976
1.76181e-05
0.00254871
1.85358e-05
0.00254718
1.9351e-05
0.00254505
2.01055e-05
0.00254212
2.0822e-05
0.00253833
2.15034e-05
0.00253368
2.21382e-05
0.00252828
2.27328e-05
0.00252223
2.33081e-05
0.00251565
2.38927e-05
0.00250862
2.45015e-05
0.00250121
2.51392e-05
0.00249347
2.58032e-05
0.00248541
2.64902e-05
0.00247705
2.71924e-05
0.0024684
2.79044e-05
0.00245945
2.86288e-05
0.00245018
2.9362e-05
0.00244058
3.01056e-05
0.00243064
3.08613e-05
0.00242035
3.16334e-05
0.0024097
3.24264e-05
0.00239868
3.32473e-05
0.0023873
3.40983e-05
0.00237554
3.49874e-05
0.00236341
3.59175e-05
0.00235093
3.68933e-05
0.00233808
3.79183e-05
0.00232489
3.89952e-05
0.00231134
4.01197e-05
0.00229745
4.12909e-05
0.00228321
4.25051e-05
0.00226863
4.37556e-05
0.00225369
4.50348e-05
0.00223841
4.63355e-05
0.00222276
4.76512e-05
0.00220675
4.89776e-05
0.00219036
5.03091e-05
0.00217359
5.16438e-05
0.00215642
5.29822e-05
0.00213885
5.43256e-05
0.00212087
5.56759e-05
0.00210246
5.70375e-05
0.00208362
5.84149e-05
0.00206434
5.98122e-05
0.0020446
6.12312e-05
0.00202438
6.26736e-05
0.00200369
6.41423e-05
0.0019825
6.56377e-05
0.00196081
6.7158e-05
0.00193861
6.87005e-05
0.00191589
7.02621e-05
0.00189263
7.1839e-05
0.00186884
7.34273e-05
0.00184451
7.5024e-05
0.00181963
7.66267e-05
0.00179421
7.82297e-05
0.00176823
7.9835e-05
0.0017417
8.14411e-05
0.00171461
8.30429e-05
0.00168697
8.46463e-05
0.00165877
8.62432e-05
0.00163001
8.78394e-05
0.0016007
8.94255e-05
0.00157083
9.10071e-05
0.00154042
9.2572e-05
0.00150946
9.41238e-05
0.00147797
9.56558e-05
0.00144594
9.71648e-05
0.00141339
9.86506e-05
0.00138032
0.0001001
0.00134675
0.000101517
0.00131268
0.000102896
0.00127813
0.000104233
0.00124312
0.000105519
0.00120765
0.000106759
0.00117176
0.000107944
0.00113545
0.000109073
0.00109874
0.000110143
0.00106167
0.000111152
0.00102424
0.000112098
0.000986491
0.000112982
0.000948442
0.000113791
0.000910126
0.000114535
0.00087157
0.000115214
0.000832801
0.000115831
0.00079387
0.000116367
0.000754799
0.000116853
0.000715648
0.000117259
0.000676455
0.000117614
0.000637279
0.000117903
0.000598179
0.000118135
0.000559238
0.000118286
0.000520527
0.00011837
0.000482141
0.000118357
0.000444176
0.00011823
0.000406724
0.00011799
0.000369856
0.000117634
0.000333599
0.000117207
0.000298002
0.000116715
0.000263093
0.000116198
0.000228915
0.000115682
0.000195515
0.000115173
0.000162985
0.000114674
0.000131402
0.00011419
0.00010084
0.000113732
7.13977e-05
0.00011328
4.31308e-05
0.000112859
1.60889e-05
0.000112427
-9.70018e-06
0.000111955
-3.42264e-05
0.000111393
-5.75133e-05
0.000110677
-7.9617e-05
0.000109732
-0.00010061
0.000108493
-0.000120554
0.000106884
-0.00013947
0.000104788
-0.00015739
0.000102044
-0.000174447
9.84207e-05
-0.000191283
9.3617e-05
-0.000208411
8.74438e-05
-0.000225972
7.9379e-05
-0.000244437
7.00049e-05
-0.000264237
6.05945e-05
-0.000285501
5.24782e-05
-0.000307947
4.61301e-05
-0.000330957
4.11387e-05
-0.000353781
3.68422e-05
-0.00037576
3.2788e-05
-0.00039644
2.87728e-05
-0.000415584
2.47707e-05
-0.00043312
2.09028e-05
-0.000449033
1.73222e-05
-0.000463336
1.41317e-05
-0.000476096
1.13343e-05
-0.000487229
8.88431e-06
-0.000496731
6.68902e-06
-0.000504663
4.65501e-06
-0.000511139
2.71485e-06
-0.00051629
8.16377e-07
-0.000520373
-9.39811e-07
-0.000523508
-2.71292e-06
-0.000525787
-4.5401e-06
-0.000527263
-6.46083e-06
-0.00052796
-8.49873e-06
-0.000527873
-1.06641e-05
-0.000526974
-1.2939e-05
-0.000525229
-1.52795e-05
-0.000522618
-1.76271e-05
-0.000519135
-1.99251e-05
-0.000514798
-2.21322e-05
-0.000509639
-2.42295e-05
-0.000503696
-2.62203e-05
-0.000497009
-2.81229e-05
-0.000489604
-2.99676e-05
-0.000481499
-3.17829e-05
-0.000472704
-3.35882e-05
-0.000463221
-3.53958e-05
-0.000453054
-3.72059e-05
-0.000442196
-3.9012e-05
-0.000430641
-4.08012e-05
-0.00041839
-4.25557e-05
-0.00040544
-4.42608e-05
-0.000391805
-4.58977e-05
-0.000377498
-4.74564e-05
-0.000362543
-4.8922e-05
-0.000346964
-5.02878e-05
-0.000330795
-5.15388e-05
-0.000314076
-5.26585e-05
-0.000296859
-5.36328e-05
-0.000279203
-5.44454e-05
-0.000261183
-5.50687e-05
-0.000242886
-5.54846e-05
-0.000224422
-5.56652e-05
-0.000205912
-5.55974e-05
-0.000187498
-5.52687e-05
-0.000169349
-5.46653e-05
-0.00015163
-5.38073e-05
-0.000134531
-5.27038e-05
-0.000118239
-5.13974e-05
-0.000102923
-4.99407e-05
-8.873e-05
-4.83994e-05
-7.57904e-05
-4.68431e-05
-6.41813e-05
-4.5356e-05
-5.39455e-05
-4.40109e-05
-4.50389e-05
-4.29052e-05
-3.73645e-05
-4.21112e-05
-3.07387e-05
-4.169e-05
-2.48767e-05
-4.16276e-05
-1.91093e-05
-4.21002e-05
-1.23036e-05
-4.42608e-05
-3.87656e-06
-4.86506e-05
-3.62347e-05
4.75491e-06
-4.83728e-05
1.26456e-05
-5.75766e-05
1.75917e-05
-5.00087e-05
2.16659e-05
-4.85463e-05
2.62176e-05
-4.93633e-05
3.13799e-05
-5.01845e-05
3.71557e-05
-5.10938e-05
4.3657e-05
-5.22507e-05
5.09397e-05
-5.35993e-05
5.91084e-05
-5.51606e-05
6.82186e-05
-5.6903e-05
7.83278e-05
-5.88149e-05
8.94645e-05
-6.08778e-05
0.000101638
-6.30594e-05
0.000114849
-6.53459e-05
0.000129059
-6.76846e-05
0.000144243
-7.0071e-05
0.000160342
-7.24471e-05
0.000177283
-7.47758e-05
0.000194984
-7.7015e-05
0.000213383
-7.91514e-05
0.000232381
-8.11258e-05
0.000251904
-8.2935e-05
0.000271882
-8.45707e-05
0.000292247
-8.6023e-05
0.000312935
-8.73024e-05
0.000333911
-8.84409e-05
0.000355129
-8.94272e-05
0.000376565
-9.02889e-05
0.000398198
-9.10339e-05
0.000420005
-9.16716e-05
0.000441958
-9.22061e-05
0.000464025
-9.265e-05
0.000486176
-9.30083e-05
0.000508385
-9.32913e-05
0.000530617
-9.34843e-05
0.000552882
-9.36062e-05
0.000575193
-9.36425e-05
0.000597584
-9.35913e-05
0.000620082
-9.34297e-05
0.000642741
-9.31764e-05
0.000665613
-9.28188e-05
0.000688752
-9.23675e-05
0.000712208
-9.18402e-05
0.000736016
-9.1252e-05
0.000760209
-9.06415e-05
0.000784785
-9.00159e-05
0.000809709
-8.93961e-05
0.000834943
-8.88262e-05
0.000860413
-8.82874e-05
0.000886075
-8.78015e-05
0.000911867
-8.73604e-05
0.000937747
-8.69713e-05
0.000963671
-8.66303e-05
0.000989597
-8.63292e-05
0.00101551
-8.60775e-05
0.00104138
-8.58656e-05
0.00106719
-8.56971e-05
0.00109293
-8.55698e-05
0.00111859
-8.54783e-05
0.00114414
-8.54167e-05
0.00116959
-8.5378e-05
0.0011949
-8.53537e-05
0.00122008
-8.5338e-05
0.00124512
-8.53301e-05
0.00127001
-8.53248e-05
0.00129475
-8.53214e-05
0.00131934
-8.53225e-05
0.00134379
-8.53259e-05
0.0013681
-8.53353e-05
0.00139226
-8.53497e-05
0.00141629
-8.53677e-05
0.00144018
-8.53926e-05
0.00146394
-8.54195e-05
0.00148756
-8.54459e-05
0.00151107
-8.54725e-05
0.00153445
-8.54977e-05
0.00155772
-8.55203e-05
0.00158088
-8.55396e-05
0.00160393
-8.55526e-05
0.00162688
-8.55588e-05
0.00164971
-8.55566e-05
0.00167244
-8.55428e-05
0.00169504
-8.55153e-05
0.00171751
-8.54699e-05
0.00173984
-8.54012e-05
0.00176202
-8.53036e-05
0.00178404
-8.51719e-05
0.0018059
-8.50018e-05
0.00182758
-8.47903e-05
0.00184911
-8.45356e-05
0.00187047
-8.42373e-05
0.00189166
-8.38953e-05
0.0019127
-8.35102e-05
0.00193358
-8.30827e-05
0.0019543
-8.26134e-05
0.00197487
-8.21031e-05
0.00199527
-8.15497e-05
0.00201551
-8.09534e-05
0.00203556
-8.03139e-05
0.00205544
-7.96302e-05
0.00207511
-7.89018e-05
0.00209458
-7.81286e-05
0.00211383
-7.73094e-05
0.00213285
-7.64429e-05
0.00215162
-7.5531e-05
0.00217013
-7.45729e-05
0.00218837
-7.35693e-05
0.00220633
-7.2518e-05
0.00222398
-7.14218e-05
0.00224132
-7.02791e-05
0.00225833
-6.9092e-05
0.002275
-6.78568e-05
0.00229131
-6.65797e-05
0.00230725
-6.52587e-05
0.0023228
-6.38934e-05
0.00233795
-6.24838e-05
0.00235269
-6.10312e-05
0.002367
-5.95342e-05
0.00238086
-5.79921e-05
0.00239426
-5.64026e-05
0.0024072
-5.47684e-05
0.00241966
-5.30867e-05
0.00243163
-5.13554e-05
0.0024431
-4.95754e-05
0.00245407
-4.77494e-05
0.00246452
-4.58785e-05
0.00247446
-4.39667e-05
0.00248388
-4.20147e-05
0.00249279
-4.003e-05
0.00250117
-3.80161e-05
0.00250904
-3.59779e-05
0.00251639
-3.39182e-05
0.00252324
-3.1841e-05
0.00252958
-2.97485e-05
0.00253543
-2.76423e-05
0.00254079
-2.55224e-05
0.00254567
-2.33892e-05
0.00255006
-2.12422e-05
0.00255398
-1.90804e-05
0.00255743
-1.69025e-05
0.00256041
-1.4709e-05
0.00256295
-1.24987e-05
0.00256505
-1.02713e-05
0.00256674
-8.02835e-06
0.00256807
-5.77327e-06
0.00256909
-3.51771e-06
0.00256978
-1.2732e-06
0.00257006
1.03296e-06
0.00257013
3.24267e-06
0.00256994
5.45087e-06
0.00256949
7.61741e-06
0.00256877
9.73448e-06
0.00256778
1.17751e-05
0.00256647
1.37423e-05
0.00256482
1.56144e-05
0.00256278
1.73849e-05
0.00256029
1.90499e-05
0.00255731
2.06031e-05
0.0025538
2.20433e-05
0.00254978