/*--------------------------------*- C++ -*----------------------------------*\
| =========                 |                                                 |
| \\      /  F ield         | OpenFOAM: The Open Source CFD Toolbox           |
|  \\    /   O peration     | Version:  v2006                                 |
|   \\  /    A nd           | Website:  www.openfoam.com                      |
|    \\/     M anipulation  |                                                 |
\*---------------------------------------------------------------------------*/
FoamFile
{
    version     2.0;
    format      ascii;
    class       volScalarField;
    location    "0.25";
    object      r;
}
// * * * * * * * * * * * * * * * * * * * * * * * * * * * * * * * * * * * * * //

dimensions      [1 2 0 0 0 0 0];


internalField   nonuniform List<scalar> 
350
(
0
0
0
0
0
0
0
0
0
0
0
0
0
0
0
0
0
0
0
0
0
0
0
0
0
0
0
0
-1.25426e-36
2.02473e-35
-1.99995e-34
1.57506e-33
-1.08381e-32
6.80602e-32
-3.99838e-31
2.23209e-30
-1.19664e-29
6.20732e-29
-3.13286e-28
1.54494e-27
-7.46879e-27
3.54893e-26
-1.65588e-25
7.58783e-25
-3.41794e-24
1.51492e-23
-6.61329e-23
2.84606e-22
-1.20844e-21
5.06593e-21
-2.09793e-20
8.58616e-20
-3.47373e-19
1.38938e-18
-5.49335e-18
2.14638e-17
-8.29139e-17
3.16775e-16
-1.19724e-15
4.47703e-15
-1.65663e-14
6.06584e-14
-2.19763e-13
7.87682e-13
-2.79245e-12
9.78911e-12
-3.39241e-11
1.16197e-10
-3.93377e-10
1.31685e-09
-4.35733e-09
1.42461e-08
-4.59992e-08
1.4659e-07
-4.60715e-07
1.42683e-06
-4.35046e-06
1.30477e-05
-3.84607e-05
0.000111359
-0.00031659
0.000883475
-0.00241668
0.00644136
-0.0166658
0.041589
-0.0992671
0.223943
-0.469118
0.88691
-1.43771
1.78434
-1.12313
-1.06267
1.8448
5.06685
7.39147
8.7475
9.44056
9.76377
9.90462
9.96288
9.98599
9.99484
9.99814
9.99934
9.99977
9.99992
9.99997
9.99999
10
10
10
10
10
10
10
10
10
10
10
10
10
10
9.99999
10
9.99989
10.0003
9.99912
10.0024
9.99356
10.0167
9.95841
10.0993
9.77606
10.4691
9.11309
11.4377
8.21566
11.1231
11.0627
8.1552
4.93315
2.60853
1.2525
0.559442
0.236232
0.0953754
0.0371206
0.0140135
0.00515545
0.00185529
0.000655227
0.000227278
7.74582e-05
2.59498e-05
8.55168e-06
2.77439e-06
8.86848e-07
2.79543e-07
8.69542e-08
2.67088e-08
8.10536e-09
2.43119e-09
7.20965e-10
2.1139e-10
6.12688e-11
1.75556e-11
4.97399e-12
1.39386e-12
3.86418e-13
1.05997e-13
2.87718e-14
7.7285e-15
2.05423e-15
5.40218e-16
1.40529e-16
3.6151e-17
9.19383e-18
2.3111e-18
5.74344e-19
1.4111e-19
3.42686e-20
8.22335e-21
1.94899e-21
4.55945e-22
1.05206e-22
2.39236e-23
5.35647e-24
1.17975e-24
2.55374e-25
5.42969e-26
1.13387e-26
2.32502e-27
4.6679e-28
9.14312e-29
1.73917e-29
3.19316e-30
5.61228e-31
9.33295e-32
1.44312e-32
2.01805e-33
2.42998e-34
2.27558e-35
1.25426e-36
0
0
0
0
0
0
0
0
0
0
0
0
0
0
0
0
0
0
0
0
0
0
0
0
0
0
0
0
0
0
0
0
0
0
0
0
0
0
0
0
0
0
0
0
0
0
0
0
0
0
0
0
0
0
0
0
0
0
0
0
0
0
0
0
0
0
0
0
0
0
0
0
0
0
0
0
0
0
0
0
0
0
0
0
0
0
0
0
0
0
0
0
0
0
0
0
0
0
0
0
0
0
0
0
0
0
0
0
0
0
0
0
0
0
0
0
0
0
0
0
0
0
0
0
0
0
0
0
0
0
0
0
0
0
0
0
0
0
0
0
0
0
0
0
0
)
;

boundaryField
{
    right
    {
        type            zeroGradient;
    }
    left
    {
        type            inletOutlet;
        inletValue      uniform 0;
        value           uniform 0;
    }
    top
    {
        type            zeroGradient;
    }
    bottom
    {
        type            zeroGradient;
    }
    empty
    {
        type            empty;
    }
}


// ************************************************************************* //
