/*--------------------------------*- C++ -*----------------------------------*\
| =========                 |                                                 |
| \\      /  F ield         | OpenFOAM: The Open Source CFD Toolbox           |
|  \\    /   O peration     | Version:  v2006                                 |
|   \\  /    A nd           | Website:  www.openfoam.com                      |
|    \\/     M anipulation  |                                                 |
\*---------------------------------------------------------------------------*/
FoamFile
{
    version     2.0;
    format      ascii;
    class       volScalarField;
    location    "3.25";
    object      r;
}
// * * * * * * * * * * * * * * * * * * * * * * * * * * * * * * * * * * * * * //

dimensions      [1 2 0 0 0 0 0];


internalField   nonuniform List<scalar> 
350
(
-4.44076e-149
-7.80766e-146
-1.3381e-142
-2.23163e-139
-3.61659e-136
-5.68654e-133
-8.66017e-130
-1.27504e-126
-1.81108e-123
-2.47615e-120
-3.25034e-117
-4.08455e-114
-4.89797e-111
-5.58391e-108
-6.02653e-105
-6.12719e-102
-5.83448e-99
-5.16756e-96
-4.22144e-93
-3.14767e-90
-2.11381e-87
-1.25592e-84
-6.43893e-82
-2.74199e-79
-9.07514e-77
-2.00952e-74
-1.45769e-72
6.25389e-70
1.31609e-67
-2.59739e-65
-3.92685e-63
1.83485e-60
-3.18828e-58
3.64219e-56
-3.14068e-54
2.17831e-52
-1.26093e-50
6.24178e-49
-2.68833e-47
1.02054e-45
-3.44901e-44
1.046e-42
-2.86505e-41
7.12503e-40
-1.61579e-38
3.35347e-37
-6.38886e-36
1.12007e-34
-1.8107e-33
2.7035e-32
-3.73279e-31
4.77047e-30
-5.64625e-29
6.19061e-28
-6.28687e-27
5.91095e-26
-5.14063e-25
4.12976e-24
-3.05879e-23
2.08331e-22
-1.30018e-21
7.40006e-21
-3.81592e-20
1.76629e-19
-7.23747e-19
2.56685e-18
-7.55791e-18
1.67486e-17
-1.84694e-17
-4.77877e-17
3.33489e-16
-9.31472e-16
9.90588e-16
3.02393e-15
-1.5808e-14
2.57785e-14
2.97738e-14
-2.26083e-13
3.27157e-13
6.13693e-13
-2.90866e-12
1.52415e-12
1.27603e-11
-2.42115e-11
-3.46849e-11
1.4863e-10
3.739e-11
-6.92385e-10
2.06124e-10
2.86613e-09
-1.60322e-09
-1.13806e-08
6.375e-09
4.45326e-08
-1.33746e-08
-1.67929e-07
-3.03148e-08
5.69792e-07
4.92324e-07
-1.5172e-06
-2.95718e-06
1.93576e-06
1.13672e-05
7.45903e-06
-2.47394e-05
-5.57456e-05
-9.17321e-06
0.000144714
0.00026073
4.64151e-05
-0.000624691
-0.001293
-0.000872714
0.0016008
0.00561937
0.00817193
0.00423119
-0.0106245
-0.0360317
-0.0627911
-0.0709506
-0.0313331
0.0895334
0.32246
0.688701
1.19508
1.83232
2.57663
3.39391
4.24512
5.09171
5.89998
6.64389
7.30622
7.87836
8.35908
8.75281
9.06774
9.31418
9.5031
9.64519
9.75016
9.82639
9.88089
9.91927
9.94592
9.96418
9.97652
9.98477
9.9902
9.99377
9.9961
9.9976
9.99849
9.99892
9.99917
9.99961
10.0004
10.0012
10.0008
9.99836
9.99436
9.99181
9.99576
10.0106
10.036
10.0628
10.0709
10.0313
9.91047
9.67754
9.3113
8.80492
8.16768
7.42337
6.60609
5.75488
4.90829
4.10002
3.35611
2.69378
2.12164
1.64092
1.24719
0.932258
0.685822
0.496896
0.354807
0.249845
0.173607
0.119107
0.0807268
0.0540797
0.0358263
0.0234812
0.0152329
0.00978504
0.00622635
0.00392603
0.002454
0.00152103
0.000935147
0.000570461
0.00034538
0.000207591
0.000123899
7.34477e-05
4.3255e-05
2.53125e-05
1.47219e-05
8.51146e-06
4.89257e-06
2.79665e-06
1.58994e-06
8.99149e-07
5.05894e-07
2.8322e-07
1.57794e-07
8.75003e-08
4.82995e-08
2.65422e-08
1.45229e-08
7.91257e-09
4.29353e-09
2.32023e-09
1.24909e-09
6.69769e-10
3.57879e-10
1.90458e-10
1.01062e-10
5.33822e-11
2.81527e-11
1.47536e-11
7.743e-12
4.02143e-12
2.10545e-12
1.07995e-12
5.67935e-13
2.84453e-13
1.53156e-13
7.26986e-14
4.18327e-14
1.76252e-14
1.18343e-14
3.76544e-15
3.66097e-15
4.41453e-16
1.3605e-15
-2.39849e-16
6.1831e-16
-2.6843e-16
3.05224e-16
-1.73429e-16
1.50419e-16
-9.62839e-17
7.63706e-17
-5.33615e-17
4.11123e-17
-2.93532e-17
2.10306e-17
-1.36752e-17
8.12708e-18
-3.85175e-18
9.6759e-19
8.48203e-19
-1.81061e-18
2.22187e-18
-2.30175e-18
2.22246e-18
-2.07937e-18
1.91963e-18
-1.75594e-18
1.58797e-18
-1.41297e-18
1.2321e-18
-1.05068e-18
8.76356e-19
-7.16462e-19
5.7617e-19
-4.5771e-19
3.60628e-19
-2.82621e-19
2.20521e-19
-1.71117e-19
1.31652e-19
-1.00006e-19
7.46592e-20
-5.45256e-20
3.87823e-20
-2.6735e-20
1.77455e-20
-1.12139e-20
6.59123e-21
-3.40047e-21
1.25236e-21
1.52502e-22
-1.03317e-21
1.54481e-21
-1.79666e-21
1.86723e-21
-1.81512e-21
1.68532e-21
-1.51242e-21
1.32212e-21
-1.13224e-21
9.53899e-22
-7.9298e-22
6.51656e-22
-5.2984e-22
4.26276e-22
-3.39252e-22
2.66974e-22
-2.07699e-22
1.5976e-22
-1.21548e-22
9.15249e-23
-6.82429e-23
5.03904e-23
-3.68254e-23
2.65954e-23
-1.8934e-23
1.32417e-23
-9.05659e-24
6.02286e-24
-3.86432e-24
2.36389e-24
-1.34983e-24
6.86912e-25
-2.70533e-25
2.19803e-26
1.15921e-25
-1.83167e-25
2.06749e-25
-2.0436e-25
1.87396e-25
-1.63162e-25
1.3635e-25
-1.09955e-25
8.58046e-26
-6.48849e-26
4.75625e-26
-3.37658e-26
2.31453e-26
-1.52116e-26
9.44142e-27
-5.3489e-27
2.52199e-27
-6.3314e-28
-5.85271e-28
1.50234e-27
)
;

boundaryField
{
    right
    {
        type            zeroGradient;
    }
    left
    {
        type            inletOutlet;
        inletValue      uniform 0;
        value           uniform 0;
    }
    top
    {
        type            zeroGradient;
    }
    bottom
    {
        type            zeroGradient;
    }
    empty
    {
        type            empty;
    }
}


// ************************************************************************* //
