/*--------------------------------*- C++ -*----------------------------------*\
| =========                 |                                                 |
| \\      /  F ield         | OpenFOAM: The Open Source CFD Toolbox           |
|  \\    /   O peration     | Version:  v2006                                 |
|   \\  /    A nd           | Website:  www.openfoam.com                      |
|    \\/     M anipulation  |                                                 |
\*---------------------------------------------------------------------------*/
FoamFile
{
    version     2.0;
    format      ascii;
    class       volScalarField;
    location    "7.25";
    object      r;
}
// * * * * * * * * * * * * * * * * * * * * * * * * * * * * * * * * * * * * * //

dimensions      [1 2 0 0 0 0 0];


internalField   nonuniform List<scalar> 
350
(
-1.12059e-65
1.47078e-64
-1.684e-63
1.86381e-62
-1.99296e-61
2.05825e-60
-2.05283e-59
1.977e-58
-1.83816e-57
1.64968e-56
-1.42869e-55
1.19364e-54
-9.61721e-54
7.4694e-53
-5.58955e-52
4.02794e-51
-2.79338e-50
1.86295e-49
-1.19381e-48
7.3437e-48
-4.33168e-47
2.44679e-46
-1.32154e-45
6.8128e-45
-3.34508e-44
1.56026e-43
-6.89138e-43
2.87066e-42
-1.12189e-41
4.08455e-41
-1.37157e-40
4.18381e-40
-1.12999e-39
2.56807e-39
-4.27897e-39
1.97921e-39
1.9879e-38
-9.60335e-38
2.54932e-37
-3.49802e-37
-4.24296e-37
4.11059e-36
-1.24688e-35
1.68821e-35
2.64257e-35
-2.07079e-34
5.12381e-34
-2.62155e-34
-2.61049e-33
9.70624e-33
-1.15151e-32
-3.02525e-32
1.57931e-31
-2.29825e-31
-4.0135e-31
2.43477e-30
-3.39222e-30
-6.95168e-30
3.59737e-29
-3.61281e-29
-1.36548e-28
4.81345e-28
-1.36332e-28
-2.47509e-27
5.09899e-27
5.11466e-27
-3.59584e-26
2.73358e-26
1.51171e-25
-3.51626e-25
-3.2182e-25
2.19167e-24
-9.37359e-25
-9.85616e-24
1.47465e-23
3.34509e-23
-1.00342e-22
-7.39767e-23
5.22568e-22
-2.86592e-23
-2.34264e-21
1.48152e-21
9.53566e-21
-1.07699e-20
-3.655e-20
5.77453e-20
1.36257e-19
-2.67148e-19
-5.09531e-19
1.12223e-18
1.95865e-18
-4.35882e-18
-7.81098e-18
1.56347e-17
3.19756e-17
-5.06766e-17
-1.31016e-16
1.39638e-16
5.20783e-16
-2.65916e-16
-1.94241e-15
-1.25164e-16
6.53389e-15
4.56843e-15
-1.86037e-14
-2.86411e-14
3.81856e-14
1.23766e-13
-1.34539e-14
-4.02532e-13
-3.46904e-13
8.92883e-13
2.00464e-12
-4.99826e-13
-6.59131e-12
-6.34279e-12
1.16283e-11
3.33447e-11
1.01633e-11
-8.20158e-11
-1.43611e-10
2.52145e-11
4.39971e-10
5.97982e-10
-2.83147e-10
-2.09094e-09
-2.64946e-09
1.21358e-09
9.18386e-09
1.28289e-08
-1.39177e-09
-3.62673e-08
-6.37881e-08
-2.67155e-08
1.13055e-07
2.90842e-07
2.93594e-07
-1.40246e-07
-1.03143e-06
-1.81866e-06
-1.31213e-06
1.67242e-06
6.93669e-06
1.14071e-05
8.88725e-06
-7.40627e-06
-3.89453e-05
-7.42744e-05
-8.41209e-05
-2.55687e-05
0.000139157
0.000408435
0.000699007
0.000813146
0.000440544
-0.000777918
-0.00310428
-0.00647154
-0.0101843
-0.0125946
-0.0108151
-0.000536395
0.0239874
0.0697475
0.144575
0.256552
0.413297
0.621218
0.884823
1.20617
1.58456
2.01641
2.49547
3.01321
3.55938
4.12273
4.69165
5.25493
5.80226
6.32475
6.81519
7.26823
7.68035
8.04981
8.37643
8.6613
8.9066
9.11519
9.29048
9.43609
9.55571
9.65294
9.73116
9.79347
9.84262
9.88101
9.91065
9.93328
9.95036
9.96315
9.97283
9.98047
9.98705
9.99329
9.9995
10.0053
10.0091
10.0084
9.99887
9.97486
9.92947
9.85489
9.74308
9.58646
9.37862
9.11507
8.79375
8.41539
7.98356
7.50451
6.98678
6.44061
5.87727
5.30834
4.74507
4.19774
3.67525
3.18481
2.73177
2.31965
1.95019
1.62357
1.3387
1.09341
0.884807
0.709517
0.563903
0.444278
0.347052
0.268846
0.206567
0.157451
0.119078
0.0893715
0.066576
0.0492335
0.0361491
0.0263571
0.0190865
0.0137293
0.00981141
0.00696674
0.00491597
0.00344763
0.00240343
0.00166563
0.00114773
0.000786386
0.000535863
0.000363157
0.000244832
0.000164187
0.00010956
7.27334e-05
4.8056e-05
3.15958e-05
2.06759e-05
1.34706e-05
8.73069e-06
5.64167e-06
3.61938e-06
2.32396e-06
1.4727e-06
9.43386e-07
5.87341e-07
3.78657e-07
2.28775e-07
1.51152e-07
8.63757e-08
6.05427e-08
3.1174e-08
2.45797e-08
1.05301e-08
1.01324e-08
3.28907e-09
4.11346e-09
1.06661e-09
1.45047e-09
5.89295e-10
2.03331e-10
6.10534e-10
-3.76148e-10
6.84561e-10
-5.97463e-10
6.81662e-10
-6.12854e-10
5.93548e-10
-5.1561e-10
4.52675e-10
-3.70829e-10
2.97662e-10
-2.23476e-10
1.58733e-10
-1.00758e-10
5.31202e-11
-1.46101e-11
-1.42209e-11
3.46035e-11
-4.73062e-11
5.37138e-11
-5.50306e-11
5.25795e-11
-4.75101e-11
4.08747e-11
-3.35279e-11
2.61545e-11
-1.925e-11
1.31466e-11
-8.02787e-12
3.95887e-12
-9.11595e-13
-1.20663e-12
2.52911e-12
-3.20833e-12
3.39924e-12
-3.24675e-12
2.87753e-12
-2.3954e-12
1.88001e-12
-1.38768e-12
9.54003e-13
-5.97371e-13
3.22879e-13
-1.26218e-13
-2.82208e-15
7.74143e-14
-1.11414e-13
1.17751e-13
-1.07433e-13
8.90664e-14
-6.87836e-14
5.04505e-14
-3.60479e-14
2.61311e-14
-2.02952e-14
1.7593e-14
-1.6873e-14
1.70225e-14
-1.72403e-14
1.79381e-14
)
;

boundaryField
{
    right
    {
        type            zeroGradient;
    }
    left
    {
        type            inletOutlet;
        inletValue      uniform 0;
        value           uniform 0;
    }
    top
    {
        type            zeroGradient;
    }
    bottom
    {
        type            zeroGradient;
    }
    empty
    {
        type            empty;
    }
}


// ************************************************************************* //
