/*--------------------------------*- C++ -*----------------------------------*\
| =========                 |                                                 |
| \\      /  F ield         | OpenFOAM: The Open Source CFD Toolbox           |
|  \\    /   O peration     | Version:  v2006                                 |
|   \\  /    A nd           | Website:  www.openfoam.com                      |
|    \\/     M anipulation  |                                                 |
\*---------------------------------------------------------------------------*/
FoamFile
{
    version     2.0;
    format      ascii;
    class       volScalarField;
    location    "0";
    object      shifted_f;
}
// * * * * * * * * * * * * * * * * * * * * * * * * * * * * * * * * * * * * * //

dimensions      [0 0 0 0 0 0 0];


internalField   nonuniform List<scalar> 
2500
(
-2.32945
-2.3296
-2.32978
-2.33047
-2.3307
-2.32989
-2.33044
-2.3303
-2.33059
-2.33075
-2.33113
-2.33137
-2.33184
-2.33217
-2.33252
-2.33276
-2.33324
-2.33357
-2.33403
-2.33435
-2.3348
-2.33519
-2.33566
-2.3361
-2.33659
-2.33703
-2.338
-2.33807
-2.31171
-2.25157
-2.00746
-6.14188
2.02931
2.39766
2.39732
2.39734
2.39725
2.39729
2.39716
2.39715
2.39718
2.39715
2.39719
2.39724
2.39732
2.39737
2.39748
2.39767
2.3978
2.3979
2.39806
2.39808
2.39825
2.39832
2.39844
2.39908
2.39826
2.39923
2.39931
2.39943
2.39966
2.40001
2.40032
2.40067
2.40098
2.40133
2.40173
2.40215
2.40252
2.40291
2.40338
2.40388
2.40425
2.40473
2.40523
2.40566
2.40492
2.40397
2.44499
2.15997
2.12395
6.84227
1.5548
-0.488988
-0.512841
-0.512241
-0.511993
-0.511902
-0.51176
-0.511682
-0.511596
-0.511516
-0.511479
-0.51148
-0.511485
-0.511427
-0.51143
-0.511477
-0.511509
-0.511575
-0.511633
-0.51166
-0.511779
-0.511974
-0.512469
-0.512668
-0.510895
-0.511412
-0.511287
-0.511508
-0.511749
-0.512076
-0.512235
-0.512553
-0.512815
-0.513109
-0.513458
-0.513729
-0.513968
-0.514313
-0.514575
-0.514973
-0.515309
-0.515693
-0.515998
-0.516384
-0.516794
-0.51796
-0.518001
-0.574017
-0.526923
-1.74023
-6.27382
-0.151689
0.0424985
0.0431741
0.0430822
0.042944
0.0427954
0.0427504
0.0426233
0.0424851
0.0424922
0.0424357
0.0424168
0.0423181
0.0423353
0.0424001
0.0424015
0.0424692
0.0425478
0.0426028
0.0428037
0.0429085
0.0429768
0.0430697
0.0436145
0.0423098
0.0431691
0.0435635
0.0437354
0.0436819
0.0439528
0.0441154
0.0443161
0.0446689
0.0449398
0.0452002
0.0455585
0.0458969
0.0461377
0.0464993
0.0469285
0.0471857
0.0475709
0.0479669
0.0483327
0.0484148
0.0516842
0.0885478
-0.103308
-0.0415835
6.17434
1.81926
0.634966
0.628558
0.629356
0.629483
0.629724
0.629899
0.630119
0.630251
0.630441
0.630539
0.630627
0.630804
0.630859
0.630966
0.631073
0.631122
0.631187
0.631236
0.631183
0.631224
0.63116
0.630953
0.630966
0.633673
0.633128
0.633063
0.632988
0.632736
0.63254
0.632398
0.632234
0.632097
0.631932
0.631791
0.631585
0.631417
0.631225
0.630999
0.630782
0.630555
0.630296
0.629989
0.629798
0.629527
0.628448
0.62832
0.564297
0.592565
-1.38911
-5.43804
-1.5691
-1.48605
-1.485
-1.48518
-1.48552
-1.4857
-1.48591
-1.48609
-1.48624
-1.48638
-1.48651
-1.48661
-1.4867
-1.48679
-1.48683
-1.48689
-1.487
-1.487
-1.48704
-1.48686
-1.48683
-1.48665
-1.4867
-1.48619
-1.48811
-1.48758
-1.48676
-1.48663
-1.48672
-1.48662
-1.48653
-1.48645
-1.48628
-1.48617
-1.4859
-1.48577
-1.48555
-1.48538
-1.48513
-1.48498
-1.48476
-1.48442
-1.48424
-1.48401
-1.4831
-1.47566
-1.44664
-1.48375
-1.39118
4.62644
1.61975
1.04253
1.04416
1.04479
1.04498
1.0452
1.04541
1.04561
1.0458
1.04599
1.04618
1.04634
1.04652
1.04662
1.0468
1.04687
1.04706
1.04709
1.04718
1.04723
1.04735
1.04734
1.04786
1.04779
1.05112
1.05064
1.0502
1.05024
1.05
1.04989
1.04983
1.04979
1.04973
1.04971
1.04963
1.04956
1.04945
1.04933
1.04926
1.04915
1.04903
1.04891
1.04873
1.04859
1.04846
1.04776
1.04758
1.04266
1.0182
-0.899231
-3.91716
-1.85685
-1.83184
-1.831
-1.83124
-1.83154
-1.83173
-1.832
-1.83221
-1.83236
-1.83251
-1.83274
-1.83289
-1.83299
-1.83312
-1.83327
-1.83337
-1.83351
-1.83357
-1.83365
-1.83365
-1.83378
-1.83361
-1.8336
-1.83322
-1.83526
-1.83557
-1.83449
-1.83429
-1.83434
-1.83432
-1.83429
-1.83425
-1.83422
-1.83417
-1.83408
-1.83405
-1.83403
-1.83388
-1.83378
-1.83368
-1.83356
-1.83346
-1.83338
-1.83324
-1.83163
-1.82271
-1.79474
-1.66218
-1.63602
3.05317
1.31458
1.08605
1.09
1.09036
1.09054
1.09071
1.09087
1.09105
1.09118
1.09131
1.0915
1.09163
1.09174
1.09186
1.09197
1.09209
1.09214
1.09226
1.09232
1.09241
1.09252
1.09261
1.09343
1.09351
1.09672
1.0966
1.09559
1.09559
1.09552
1.09556
1.09552
1.09554
1.09549
1.0955
1.09547
1.09547
1.09542
1.09537
1.09535
1.09528
1.09524
1.09518
1.09508
1.095
1.09493
1.09485
1.09469
1.16086
1.03909
-0.316937
-2.19608
-1.28695
-1.28654
-1.28606
-1.28635
-1.2866
-1.28681
-1.28695
-1.28717
-1.28728
-1.28741
-1.28758
-1.28769
-1.28785
-1.28795
-1.28808
-1.28824
-1.28835
-1.28842
-1.28855
-1.28869
-1.28881
-1.28888
-1.28877
-1.28824
-1.28954
-1.29127
-1.29014
-1.29007
-1.28999
-1.29001
-1.29003
-1.29005
-1.29009
-1.29008
-1.29012
-1.29006
-1.29008
-1.29009
-1.29004
-1.29005
-1.28999
-1.28998
-1.28993
-1.28992
-1.28774
-1.28029
-1.24718
-0.989118
-1.04269
1.9887
1.15966
1.09714
1.10071
1.10081
1.10089
1.10099
1.10109
1.1012
1.10133
1.10136
1.10146
1.10155
1.1016
1.1017
1.10173
1.1018
1.10189
1.10192
1.10199
1.10201
1.10206
1.10214
1.10266
1.10281
1.10482
1.1055
1.10406
1.10405
1.1043
1.10441
1.10439
1.10447
1.10442
1.10438
1.10441
1.1044
1.1044
1.10439
1.10434
1.10429
1.10429
1.10426
1.10419
1.10417
1.10413
1.10465
1.10436
1.18985
1.00754
0.249102
-0.704879
-0.392109
-0.399168
-0.398985
-0.399254
-0.399433
-0.399525
-0.399628
-0.399722
-0.399848
-0.399946
-0.40004
-0.40016
-0.400274
-0.400342
-0.400436
-0.400522
-0.400624
-0.400703
-0.400789
-0.400904
-0.400972
-0.401278
-0.401125
-0.400404
-0.398979
-0.402434
-0.402151
-0.402605
-0.402204
-0.40228
-0.402292
-0.40234
-0.402423
-0.40241
-0.402452
-0.40247
-0.40252
-0.402502
-0.402508
-0.40254
-0.402512
-0.402561
-0.402547
-0.402543
-0.400604
-0.394789
-0.363535
-0.0917926
-0.165073
1.40807
1.09502
1.09721
1.09944
1.09938
1.09936
1.09941
1.0995
1.09958
1.09962
1.09966
1.09968
1.09972
1.09977
1.09986
1.09983
1.09987
1.09988
1.09993
1.09995
1.09995
1.09996
1.1
1.09968
1.09984
1.09845
1.1006
1.09969
1.09973
1.10024
1.10032
1.10034
1.1004
1.10036
1.10036
1.10036
1.10035
1.10034
1.10033
1.10032
1.10032
1.10029
1.10028
1.10028
1.10023
1.10025
1.101
1.10059
1.1307
0.995168
0.680933
0.305199
0.362613
0.355734
0.355625
0.355394
0.355353
0.355306
0.355314
0.355257
0.355184
0.355122
0.3551
0.355055
0.355029
0.354957
0.354905
0.354836
0.354798
0.354797
0.354764
0.354711
0.354657
0.354366
0.354447
0.355257
0.362309
0.358549
0.355208
0.354344
0.354754
0.354745
0.354751
0.354678
0.354669
0.35462
0.354641
0.354629
0.354607
0.354571
0.354572
0.354543
0.354549
0.354499
0.354495
0.354493
0.355859
0.359864
0.368067
0.507637
0.451901
1.04598
0.968174
0.987637
0.988419
0.988223
0.988218
0.988262
0.988341
0.988425
0.988427
0.988468
0.988463
0.988482
0.988541
0.98853
0.988551
0.98857
0.988595
0.988585
0.988636
0.988646
0.988635
0.988649
0.987922
0.988092
0.979123
0.982656
0.985274
0.985346
0.98583
0.986031
0.986037
0.986036
0.98603
0.986047
0.986071
0.986059
0.986091
0.986098
0.986091
0.986091
0.986101
0.986132
0.986112
0.986113
0.986099
0.987008
0.986642
0.929636
0.866312
0.827238
0.727567
0.698469
0.694345
0.694101
0.693966
0.693932
0.694002
0.694086
0.694082
0.694105
0.694062
0.694087
0.694103
0.6941
0.694115
0.694122
0.694132
0.694142
0.694154
0.694139
0.694222
0.694198
0.694223
0.694199
0.69411
0.709226
0.711677
0.701229
0.700971
0.70146
0.701491
0.701494
0.701474
0.70148
0.701488
0.701492
0.701512
0.701512
0.701526
0.701568
0.701565
0.701564
0.70159
0.701585
0.70161
0.702663
0.702642
0.672436
0.654376
0.615182
0.745263
0.753415
0.770807
0.770426
0.770226
0.770208
0.770267
0.77034
0.77043
0.770441
0.770462
0.770479
0.770546
0.770561
0.770546
0.770587
0.770588
0.770628
0.770653
0.770692
0.770719
0.770719
0.770715
0.770618
0.770703
0.748652
0.750034
0.761619
0.761667
0.76178
0.762117
0.762135
0.762127
0.762133
0.762164
0.762192
0.762206
0.762244
0.762251
0.762278
0.762284
0.762309
0.762327
0.762344
0.762355
0.762383
0.763294
0.76322
0.638757
0.606727
0.658272
0.659526
0.615979
0.615022
0.614696
0.614617
0.614666
0.614745
0.614832
0.614907
0.614937
0.614964
0.615044
0.615099
0.615109
0.615149
0.615164
0.615198
0.615227
0.61525
0.615316
0.615384
0.615407
0.615679
0.615692
0.612823
0.627489
0.651614
0.64432
0.645689
0.646549
0.646569
0.646586
0.646601
0.646629
0.646655
0.646668
0.64671
0.646733
0.646742
0.64679
0.646797
0.646824
0.646876
0.646894
0.646895
0.647432
0.6436
0.591582
0.554854
0.533582
0.517452
0.546105
0.555351
0.554206
0.554028
0.554045
0.554098
0.554175
0.554246
0.554283
0.554273
0.554359
0.554407
0.5544
0.554405
0.554428
0.554443
0.554468
0.554509
0.554514
0.554515
0.554553
0.554556
0.555295
0.555163
0.525973
0.513026
0.52676
0.526652
0.527018
0.527196
0.527201
0.527185
0.527206
0.527234
0.527257
0.527259
0.527289
0.527326
0.52733
0.527341
0.527374
0.52741
0.527396
0.527446
0.527454
0.527888
0.528236
0.416572
0.403731
0.444815
0.469973
0.438456
0.43997
0.439603
0.439606
0.439622
0.439747
0.439824
0.439879
0.439879
0.439964
0.43999
0.440018
0.44002
0.440045
0.440058
0.440098
0.44013
0.44014
0.440171
0.4402
0.440262
0.440501
0.440542
0.434334
0.406629
0.445943
0.468746
0.471026
0.471717
0.471763
0.471745
0.471767
0.4718
0.471797
0.471819
0.471828
0.471865
0.471882
0.471875
0.471923
0.471937
0.47195
0.471985
0.471997
0.471889
0.470463
0.433561
0.414427
0.408685
0.372495
0.396701
0.397644
0.396217
0.396087
0.396097
0.39617
0.396235
0.396281
0.396279
0.396363
0.396346
0.396365
0.396312
0.396359
0.396357
0.396378
0.396392
0.396402
0.396419
0.39642
0.396451
0.396455
0.397108
0.396817
0.405657
0.376588
0.358085
0.357809
0.358522
0.358181
0.358166
0.358153
0.358194
0.358197
0.35824
0.358233
0.35826
0.35827
0.358276
0.358286
0.358298
0.358321
0.358323
0.35834
0.358351
0.358176
0.358366
0.299288
0.301466
0.31737
0.338141
0.324533
0.327462
0.327166
0.327209
0.327253
0.327343
0.327415
0.327446
0.327478
0.327444
0.327465
0.327438
0.327484
0.32749
0.327505
0.32751
0.32751
0.327539
0.327549
0.327507
0.327543
0.327587
0.327568
0.32334
0.23314
0.212038
0.273227
0.27468
0.273932
0.27399
0.273988
0.273992
0.27403
0.274027
0.27404
0.274077
0.274079
0.27407
0.274073
0.274105
0.274133
0.274125
0.274131
0.274159
0.274676
0.277239
0.259217
0.23257
0.234107
0.214431
0.227227
0.22223
0.220878
0.220864
0.220886
0.220971
0.221019
0.221073
0.221005
0.221003
0.220996
0.220985
0.220994
0.220988
0.220998
0.221009
0.221012
0.221019
0.221029
0.221038
0.221052
0.221067
0.221256
0.221025
0.295707
0.291232
0.224687
0.224432
0.224004
0.223705
0.223708
0.223733
0.223738
0.223801
0.223777
0.223788
0.223811
0.22381
0.223817
0.223857
0.223857
0.223863
0.223894
0.223905
0.223898
0.224002
0.223743
0.186527
0.193705
0.193326
0.202189
0.203484
0.206782
0.206635
0.206743
0.206812
0.206869
0.206923
0.206783
0.206741
0.20675
0.206766
0.206736
0.206765
0.20676
0.206778
0.206795
0.20681
0.206808
0.206814
0.206719
0.206731
0.206558
0.206742
0.207528
0.139974
0.0175947
0.0882592
0.0867218
0.0840035
0.0840916
0.0840927
0.0841131
0.0841552
0.0841621
0.0841702
0.0841846
0.0841802
0.0841988
0.0842118
0.0842265
0.0842117
0.0842297
0.0842375
0.0842519
0.0853991
0.079418
0.0647203
0.0366856
0.040068
0.0415209
0.0437275
0.0359237
0.0349054
0.0349861
0.0350406
0.0351219
0.0351703
0.0348863
0.034866
0.0348459
0.0348746
0.0348595
0.034868
0.0348725
0.0348787
0.0348948
0.0349268
0.034925
0.0349106
0.0349276
0.034949
0.0349808
0.0352684
0.0350911
0.138915
0.187147
0.107668
0.107849
0.106415
0.106628
0.106658
0.106679
0.106721
0.10674
0.10676
0.106778
0.106766
0.106791
0.106807
0.106819
0.106826
0.106849
0.106869
0.106896
0.106893
0.107246
0.107132
0.0785936
0.0849511
0.0761279
0.0741309
0.0840218
0.0869319
0.086909
0.0870671
0.087142
0.0872087
0.0868386
0.086829
0.0867897
0.0868155
0.0868199
0.0868288
0.0868252
0.0868266
0.086847
0.0868699
0.0868709
0.0868675
0.0868853
0.0867417
0.0867778
0.0865843
0.086696
0.0932468
0.127839
-0.0314041
-0.0509787
-0.065431
-0.0673798
-0.0673185
-0.0672927
-0.0672417
-0.0672293
-0.0672004
-0.0671917
-0.067192
-0.0671697
-0.0671738
-0.0671409
-0.0671064
-0.0670996
-0.0670978
-0.0670705
-0.0670696
-0.0681733
-0.080001
-0.0908935
-0.111659
-0.108411
-0.0919091
-0.0965373
-0.104165
-0.104629
-0.10444
-0.104391
-0.104318
-0.104755
-0.10477
-0.104767
-0.104765
-0.104731
-0.104771
-0.104744
-0.104738
-0.104714
-0.104695
-0.104683
-0.104681
-0.104685
-0.104678
-0.104665
-0.104586
-0.104132
-0.104532
-0.0229958
0.0604286
0.0554628
0.0570526
0.0587026
0.0591915
0.0591906
0.0592437
0.0592677
0.0592764
0.0592754
0.0592887
0.059301
0.0593028
0.0593172
0.0593117
0.0593545
0.0593666
0.0593786
0.0593781
0.0593973
0.0582845
0.0583929
0.0373681
0.0414553
0.0291772
0.020484
0.0322132
0.0339973
0.0341599
0.0343416
0.0344163
0.0339766
0.0339878
0.0339515
0.0339523
0.0339636
0.0339359
0.0339514
0.0339334
0.0339352
0.0339501
0.0339281
0.0339479
0.0339421
0.0339423
0.0338147
0.0338137
0.0338075
0.0334134
0.0497068
0.21147
0.144086
-0.132553
-0.177718
-0.176693
-0.176699
-0.176698
-0.176648
-0.176622
-0.176631
-0.176623
-0.176636
-0.176607
-0.176589
-0.176546
-0.176546
-0.176546
-0.176519
-0.176518
-0.176498
-0.178461
-0.181784
-0.188327
-0.200411
-0.197802
-0.174924
-0.181915
-0.18693
-0.186723
-0.186465
-0.186382
-0.186654
-0.186667
-0.186652
-0.186673
-0.186649
-0.18665
-0.186611
-0.186635
-0.186627
-0.186584
-0.186571
-0.186547
-0.186527
-0.186544
-0.186524
-0.186508
-0.186493
-0.186307
-0.186629
-0.210179
-0.144398
0.0471442
0.0510067
0.0599225
0.0601704
0.0601666
0.0602047
0.0602191
0.060209
0.0602116
0.0602322
0.0602395
0.0602457
0.0602559
0.0602479
0.0602765
0.0602695
0.0602528
0.0602679
0.060274
0.0589259
0.0589817
0.0447539
0.046831
0.034431
0.0238002
0.0313757
0.0315902
0.0319011
0.0321085
0.0318159
0.0317609
0.0317744
0.0317224
0.031723
0.0317209
0.0316823
0.031704
0.0316509
0.0316394
0.0316552
0.0316264
0.0315998
0.0316229
0.0315857
0.0315046
0.0314813
0.0316593
0.0306115
0.0547586
0.279668
0.474276
-0.181237
-0.256711
-0.254856
-0.254938
-0.254929
-0.254906
-0.254919
-0.254935
-0.254962
-0.254937
-0.254947
-0.254961
-0.254944
-0.254945
-0.254933
-0.254931
-0.254912
-0.254894
-0.253001
-0.250999
-0.255382
-0.260835
-0.258941
-0.237471
-0.242864
-0.243375
-0.242483
-0.242168
-0.242321
-0.242312
-0.242304
-0.242309
-0.242303
-0.242262
-0.242285
-0.242223
-0.242213
-0.242199
-0.242178
-0.242159
-0.242139
-0.242121
-0.2421
-0.242061
-0.242063
-0.242052
-0.242729
-0.242097
-0.428165
-0.447612
0.0429136
0.0489157
0.0640818
0.0638404
0.0638453
0.0638712
0.0638715
0.0638496
0.0638489
0.0638396
0.0638532
0.0638558
0.0638416
0.0638706
0.0638682
0.0638535
0.0638616
0.0638634
0.0638699
0.0639809
0.0639626
0.0549932
0.0555489
0.0457093
0.0369474
0.0357653
0.0341329
0.0345945
0.0339225
0.0338676
0.033842
0.033842
0.0337783
0.0338114
0.0337826
0.0337629
0.0337431
0.0337121
0.0337022
0.0336646
0.033666
0.0336158
0.0336064
0.0335727
0.0335613
0.0335306
0.0338525
0.0326029
0.0488475
0.202142
0.813359
-0.199768
-0.28462
-0.284008
-0.28412
-0.284142
-0.284177
-0.284218
-0.284232
-0.284274
-0.284266
-0.284318
-0.284355
-0.284354
-0.284361
-0.284362
-0.28437
-0.284352
-0.28437
-0.283204
-0.282575
-0.286219
-0.287414
-0.28638
-0.271814
-0.272645
-0.26736
-0.265775
-0.266694
-0.266709
-0.26668
-0.266622
-0.266651
-0.26662
-0.266606
-0.266555
-0.266523
-0.266532
-0.26651
-0.266469
-0.266426
-0.266396
-0.266361
-0.266321
-0.266304
-0.266272
-0.266278
-0.268219
-0.26597
-0.559388
-0.718164
0.0640138
0.0708688
0.0852081
0.0848425
0.0848355
0.0848492
0.0848635
0.0848544
0.0848613
0.084861
0.0848523
0.0848555
0.0848807
0.0848712
0.0848851
0.0848665
0.0848816
0.0848687
0.0848778
0.0855541
0.0855323
0.080209
0.0796767
0.074347
0.0701409
0.0569535
0.0533479
0.0520092
0.0519687
0.0519372
0.0519294
0.0519076
0.0518904
0.0519022
0.0518444
0.0518505
0.0518131
0.0517773
0.0517792
0.0517559
0.0517276
0.0517137
0.0516769
0.0516427
0.051728
0.0516878
0.0519819
0.0516383
0.038885
0.0160018
1.0412
-0.137252
-0.214406
-0.214871
-0.214974
-0.215056
-0.215107
-0.215184
-0.215246
-0.215287
-0.215351
-0.215383
-0.215427
-0.21545
-0.21551
-0.21553
-0.215572
-0.215592
-0.215624
-0.21865
-0.220104
-0.223396
-0.221919
-0.221903
-0.217502
-0.211958
-0.200023
-0.203907
-0.203941
-0.203943
-0.203934
-0.203897
-0.203874
-0.20381
-0.203818
-0.20377
-0.203772
-0.203721
-0.203701
-0.203674
-0.203629
-0.203614
-0.203572
-0.203539
-0.203516
-0.203451
-0.203488
-0.206655
-0.203596
-0.507486
-0.809571
0.1044
0.110284
0.117465
0.117415
0.117401
0.117406
0.117447
0.11745
0.117463
0.117467
0.117472
0.117493
0.117517
0.117514
0.117524
0.117553
0.11756
0.117563
0.1176
0.117838
0.117838
0.115057
0.11351
0.114341
0.116177
0.0891887
0.0966292
0.096585
0.0965588
0.0965365
0.0965891
0.0965658
0.0965881
0.0965833
0.0966046
0.0965969
0.0965638
0.0965821
0.096581
0.0965546
0.0965451
0.096523
0.0965083
0.0964916
0.0966825
0.0965958
0.096797
0.0984971
0.0483537
-0.182332
1.07257
0.0237955
-0.0221908
-0.022282
-0.0223939
-0.0225084
-0.0225795
-0.022682
-0.0227537
-0.0228615
-0.0229103
-0.0229993
-0.0230644
-0.0231189
-0.0231712
-0.0232253
-0.0232788
-0.0233024
-0.0233669
-0.0270349
-0.0288549
-0.0316583
-0.0282288
-0.0294435
-0.0368019
-0.0239799
-0.0464112
-0.0466632
-0.0466828
-0.0467023
-0.0466919
-0.0466974
-0.0466874
-0.046639
-0.0466809
-0.0466516
-0.046684
-0.0466659
-0.0466649
-0.0466552
-0.0466635
-0.0466153
-0.046628
-0.046593
-0.0465844
-0.0465691
-0.0466349
-0.0500084
-0.0483986
-0.331306
-0.747486
0.0851043
0.0883211
0.0867903
0.0869981
0.0870269
0.0870278
0.0870646
0.0870871
0.0871073
0.0871165
0.0871677
0.0871918
0.0872058
0.0872252
0.0872553
0.0872818
0.0872901
0.0873446
0.0873571
0.0871527
0.0872067
0.0864047
0.0838929
0.0922193
0.100605
0.155107
0.155709
0.155733
0.155747
0.155776
0.155863
0.155877
0.155968
0.155945
0.15601
0.156011
0.156043
0.156059
0.156095
0.156122
0.156132
0.156148
0.156171
0.156176
0.156398
0.156382
0.156253
0.159843
0.0672956
-0.409186
0.854078
0.255919
0.261301
0.26171
0.261636
0.261545
0.261456
0.261356
0.261279
0.261182
0.26113
0.261062
0.26099
0.260937
0.260856
0.260816
0.260766
0.26072
0.260672
0.259146
0.258132
0.256034
0.261324
0.258751
0.239035
0.214622
0.212653
0.212536
0.212513
0.21249
0.212521
0.212496
0.212544
0.212544
0.21256
0.212558
0.212548
0.212558
0.212563
0.212566
0.212595
0.212595
0.212626
0.212641
0.212652
0.212656
0.212603
0.211363
0.209742
0.0609378
-0.451386
0.0941396
0.0939439
0.0862991
0.086553
0.0865938
0.0866268
0.0866804
0.0867326
0.0867762
0.0868005
0.0868639
0.0868893
0.0869392
0.0869913
0.0870373
0.0870892
0.0871176
0.0871751
0.0872289
0.0869429
0.0870068
0.0882316
0.0846356
0.10156
0.0979012
0.102145
0.102549
0.102614
0.102656
0.102737
0.102786
0.102856
0.102978
0.103019
0.103069
0.103117
0.103164
0.103208
0.103248
0.10331
0.103355
0.1034
0.103442
0.10347
0.103703
0.103724
0.103104
0.106364
-0.0195604
-0.865936
0.134335
0.116785
0.168001
0.167936
0.167911
0.167828
0.167738
0.167675
0.167617
0.167525
0.167446
0.1674
0.167322
0.167283
0.167236
0.167165
0.167133
0.167083
0.16703
0.167465
0.167308
0.166197
0.173673
0.169594
0.183476
0.180806
0.179416
0.179441
0.179425
0.179423
0.179442
0.179434
0.179517
0.179464
0.179498
0.179473
0.179476
0.17949
0.179498
0.17951
0.179501
0.179528
0.179534
0.179545
0.179563
0.179561
0.179511
0.182669
0.177618
0.46633
-0.0601053
0.0839926
0.0807296
0.069789
0.0699138
0.0699786
0.0700122
0.0700675
0.0701099
0.0701455
0.0702022
0.0702487
0.0702769
0.0703399
0.0703883
0.0704399
0.0704738
0.0705382
0.0705805
0.0706152
0.0704598
0.0705367
0.0740342
0.0692526
0.0400432
0.0374844
0.0407488
0.0408701
0.0409541
0.0409938
0.0410785
0.0411143
0.0412355
0.0412507
0.0413359
0.0413755
0.0413933
0.0414457
0.0414971
0.041553
0.0415905
0.0416286
0.0416757
0.0417099
0.0417556
0.0419025
0.0419582
0.0408243
0.0422933
-0.047879
-1.22553
-0.710107
-0.254146
-0.180271
-0.181297
-0.181317
-0.181391
-0.181494
-0.181565
-0.181642
-0.181739
-0.181817
-0.181897
-0.181975
-0.182061
-0.182124
-0.182179
-0.182264
-0.182336
-0.182389
-0.181393
-0.180996
-0.18085
-0.170772
-0.164453
-0.159391
-0.16155
-0.162262
-0.162161
-0.162216
-0.16224
-0.162288
-0.162307
-0.162282
-0.162326
-0.16236
-0.162411
-0.16244
-0.162466
-0.162502
-0.162527
-0.16256
-0.162592
-0.162617
-0.162658
-0.162675
-0.162734
-0.162786
-0.155783
-0.162703
0.674177
0.270403
0.0340487
0.0288721
0.0170259
0.0170024
0.0170785
0.0170898
0.017104
0.0171289
0.0171572
0.0171693
0.0171908
0.0172338
0.0172591
0.017282
0.0173179
0.0173528
0.0173712
0.0173993
0.0174305
0.0173997
0.0174414
0.0236721
0.0320727
0.0292669
0.0272407
0.0291969
0.0290072
0.0290586
0.029127
0.0291927
0.0292159
0.0293385
0.0293434
0.0294003
0.0294087
0.029437
0.0294784
0.0294981
0.0295589
0.0295829
0.0296072
0.0296496
0.0296735
0.0296903
0.0297437
0.0298485
0.0286973
0.0293994
0.0300674
-1.19356
-1.2351
-0.470296
-0.395774
-0.397128
-0.397159
-0.397233
-0.397333
-0.39742
-0.397529
-0.397601
-0.397716
-0.397813
-0.397901
-0.397989
-0.398091
-0.398172
-0.398267
-0.398346
-0.398438
-0.397744
-0.397258
-0.395549
-0.413608
-0.413439
-0.409831
-0.411249
-0.411103
-0.410987
-0.411051
-0.411117
-0.411204
-0.411223
-0.411336
-0.411349
-0.411446
-0.411528
-0.411603
-0.411677
-0.411745
-0.411837
-0.41189
-0.411975
-0.412038
-0.412117
-0.412189
-0.412287
-0.412308
-0.403441
-0.410074
0.757388
0.575035
0.0686812
0.0630506
0.0528151
0.0527526
0.0528129
0.0528263
0.0528422
0.0528477
0.0528668
0.052862
0.0528927
0.0529109
0.0529234
0.0529373
0.052937
0.052972
0.0529895
0.0530118
0.0530236
0.0531137
0.0531109
0.0507244
0.0509532
0.0493083
0.0480811
0.0483337
0.0478338
0.0478899
0.0479961
0.0480157
0.0480804
0.0481106
0.0481819
0.048211
0.0482389
0.0482759
0.0483213
0.0483439
0.0483916
0.0484118
0.0484478
0.0484794
0.0484986
0.0485363
0.0484336
0.048579
0.0482286
0.0476587
0.118065
-0.798844
-1.33836
-0.429971
-0.368648
-0.369466
-0.369497
-0.369553
-0.369637
-0.369723
-0.369806
-0.369903
-0.369993
-0.370094
-0.370183
-0.370273
-0.370355
-0.370452
-0.370528
-0.370647
-0.370721
-0.370586
-0.370326
-0.365914
-0.368222
-0.368218
-0.366519
-0.366912
-0.365808
-0.365715
-0.365767
-0.365826
-0.365953
-0.365992
-0.36611
-0.366153
-0.366301
-0.366397
-0.366486
-0.366602
-0.366696
-0.366801
-0.366905
-0.367018
-0.367118
-0.367243
-0.367347
-0.367466
-0.367389
-0.35701
-0.362488
0.792183
0.861898
0.202019
0.197087
0.190323
0.190337
0.190384
0.190402
0.190397
0.190415
0.190408
0.190426
0.19043
0.19045
0.190454
0.190479
0.190515
0.190527
0.190545
0.190576
0.190601
0.19069
0.190654
0.18287
0.183178
0.182905
0.182755
0.180931
0.180243
0.180318
0.18043
0.180428
0.180512
0.18049
0.180564
0.180584
0.180623
0.180644
0.180699
0.18074
0.180787
0.180822
0.180838
0.180893
0.180907
0.180957
0.180738
0.180906
0.18163
0.177679
0.275995
-0.076387
-0.961457
-0.0853294
-0.0430179
-0.0429869
-0.0429963
-0.0430346
-0.0430846
-0.0431387
-0.043198
-0.043276
-0.0433442
-0.0434214
-0.0434976
-0.0435675
-0.0436204
-0.0437232
-0.0437904
-0.0438964
-0.0439657
-0.0442088
-0.0469547
-0.0541725
-0.0581992
-0.0582921
-0.0589828
-0.0580976
-0.0561039
-0.0560481
-0.0560606
-0.0561786
-0.0562757
-0.0564131
-0.0565102
-0.0566163
-0.0567283
-0.0568508
-0.0569445
-0.0570673
-0.0571804
-0.0573178
-0.0574343
-0.0575565
-0.0576947
-0.0578316
-0.057958
-0.0580714
-0.0579714
-0.0492268
-0.0536539
0.708882
1.00088
0.29763
0.293966
0.29092
0.291041
0.291046
0.291083
0.291056
0.291072
0.291087
0.291086
0.291101
0.291111
0.291101
0.291122
0.291125
0.291176
0.291195
0.291204
0.291243
0.291414
0.291471
0.282449
0.283013
0.284153
0.285359
0.281279
0.280645
0.280721
0.280788
0.280798
0.280847
0.280872
0.280941
0.28094
0.280991
0.281036
0.281105
0.281123
0.281161
0.281209
0.281242
0.281286
0.281337
0.28137
0.281101
0.281287
0.282654
0.275882
0.360118
0.642496
-0.407895
0.298163
0.322269
0.323039
0.323041
0.32305
0.323014
0.32297
0.322959
0.322911
0.322893
0.322845
0.322804
0.322752
0.322706
0.322664
0.322615
0.322546
0.322493
)
;

boundaryField
{
    movingWall
    {
        type            zeroGradient;
    }
    fixedWalls
    {
        type            zeroGradient;
    }
    frontAndBack
    {
        type            empty;
    }
}

