/*--------------------------------*- C++ -*----------------------------------*\
| =========                 |                                                 |
| \\      /  F ield         | OpenFOAM: The Open Source CFD Toolbox           |
|  \\    /   O peration     | Version:  v2006                                 |
|   \\  /    A nd           | Website:  www.openfoam.com                      |
|    \\/     M anipulation  |                                                 |
\*---------------------------------------------------------------------------*/
FoamFile
{
    version     2.0;
    format      ascii;
    class       volScalarField;
    location    "0";
    object      f;
}
// * * * * * * * * * * * * * * * * * * * * * * * * * * * * * * * * * * * * * //

dimensions      [0 0 0 0 0 0 0];


internalField   nonuniform List<scalar> 
2500
(
-1.32432e-44
-3.66649e-44
8.42622e-45
-2.45159e-43
-1.23656e-43
-1.59268e-43
-6.7297e-44
-1.55403e-44
-2.38635e-45
-2.63666e-46
-1.49264e-47
2.05879e-48
8.08542e-49
1.4738e-49
1.91917e-50
1.97425e-51
1.68215e-52
1.22285e-53
7.74733e-55
4.34779e-56
2.18959e-57
1.00011e-58
4.17995e-60
1.61061e-61
5.75836e-63
1.92091e-64
6.0079e-66
1.7693e-67
4.92479e-69
1.30001e-70
3.26432e-72
7.81829e-74
1.79051e-75
3.92974e-77
8.2826e-79
1.67958e-80
3.28262e-82
6.19324e-84
1.12963e-85
1.99468e-87
3.41415e-89
5.67128e-91
9.15278e-93
1.43665e-94
2.19535e-96
3.26895e-98
4.74725e-100
6.72919e-102
9.31763e-104
1.21804e-105
-1.57769e-43
-5.20238e-43
7.42801e-44
-3.17096e-42
-1.58476e-42
-2.07327e-42
-8.81497e-43
-2.0414e-43
-3.14332e-44
-3.49372e-45
-1.89295e-46
3.28264e-47
1.22912e-47
2.2411e-48
2.92936e-49
3.02298e-50
2.58083e-51
1.87782e-52
1.18964e-53
6.67111e-55
3.35508e-56
1.52967e-57
6.37932e-59
2.45199e-60
8.74276e-62
2.90801e-63
9.06744e-65
2.66185e-66
7.38488e-68
1.94285e-69
4.86177e-71
1.16037e-72
2.64803e-74
5.79102e-76
1.21615e-77
2.45719e-79
4.7848e-81
8.99411e-83
1.63443e-84
2.87529e-86
4.90303e-88
8.11391e-90
1.30456e-91
2.03994e-93
3.1054e-95
4.60643e-97
6.664e-99
9.40993e-101
1.29794e-102
1.6904e-104
-1.85602e-42
-7.28883e-42
4.89302e-43
-4.03067e-41
-1.99662e-41
-2.65631e-41
-1.13771e-41
-2.64401e-42
-4.08317e-43
-4.56381e-44
-2.3321e-45
5.15122e-46
1.84836e-46
3.37082e-47
4.42172e-48
4.5767e-49
3.91453e-50
2.85039e-51
1.80554e-52
1.01161e-53
5.08033e-55
2.31189e-56
9.61979e-58
3.68817e-59
1.31142e-60
4.34924e-62
1.35195e-63
3.95612e-65
1.09395e-66
2.86834e-68
7.15306e-70
1.70129e-71
3.86877e-73
8.43058e-75
1.76413e-76
3.55149e-78
6.89061e-80
1.29052e-81
2.33658e-83
4.09543e-85
6.95792e-87
1.14719e-88
1.83763e-90
2.86284e-92
4.34187e-94
6.41653e-96
9.2479e-98
1.30095e-99
1.78769e-101
2.31976e-103
-2.13231e-41
-9.97531e-41
1.14733e-43
-4.97781e-40
-2.44436e-40
-3.31178e-40
-1.43093e-40
-3.33967e-41
-5.17409e-42
-5.81422e-43
-2.74846e-44
7.87061e-45
2.72057e-45
4.96363e-46
6.53442e-47
6.78352e-48
5.81247e-49
4.23531e-50
2.68219e-51
1.50135e-52
7.52832e-54
3.4191e-55
1.41938e-56
5.4276e-58
1.92446e-59
6.36316e-61
1.97177e-62
5.75106e-64
1.58498e-65
4.14162e-67
1.02925e-68
2.43939e-70
5.52752e-72
1.20021e-73
2.50243e-75
5.0196e-77
9.70362e-79
1.81074e-80
3.26647e-82
5.7043e-84
9.6557e-86
1.58614e-87
2.53139e-89
3.92908e-91
5.93695e-93
8.74131e-95
1.25518e-96
1.75918e-98
2.40836e-100
3.11391e-102
-2.39344e-40
-1.33194e-39
-7.46629e-41
-5.96605e-39
-2.90426e-39
-4.01361e-39
-1.75241e-39
-4.11111e-40
-6.39192e-41
-7.21976e-42
-3.07599e-43
1.16914e-43
3.91379e-44
7.14765e-45
9.44507e-46
9.83491e-47
8.4422e-48
6.15549e-49
3.89709e-50
2.17912e-51
1.09093e-52
4.94437e-54
2.04759e-55
7.80876e-57
2.76069e-58
9.10002e-60
2.81079e-61
8.17104e-63
2.24427e-64
5.84407e-66
1.44724e-67
3.41785e-69
7.71692e-71
1.66956e-72
3.46841e-74
6.93193e-76
1.33516e-77
2.48235e-79
4.46163e-81
7.7629e-83
1.30921e-84
2.14275e-86
3.40715e-88
5.26897e-90
7.93231e-92
1.16363e-93
1.66473e-95
2.32458e-97
3.17069e-99
4.08499e-101
-2.62723e-39
-1.73304e-38
-1.82622e-39
-6.9309e-38
-3.34432e-38
-4.72275e-38
-2.08801e-38
-4.92878e-39
-7.69342e-40
-8.73278e-41
-3.23045e-42
1.68659e-42
5.49601e-43
1.00549e-43
1.33413e-44
1.39362e-45
1.19847e-46
8.74396e-48
5.53392e-49
3.09092e-50
1.54475e-51
6.98605e-53
2.88583e-54
1.09748e-55
3.86836e-57
1.27109e-58
3.9132e-60
1.13373e-61
3.10314e-63
8.05214e-65
1.98695e-66
4.67557e-68
1.05184e-69
2.26739e-71
4.69317e-73
9.34539e-75
1.79342e-76
3.32213e-78
5.94911e-80
1.0313e-81
1.73292e-83
2.82582e-85
4.47685e-87
6.89787e-89
1.03466e-90
1.51224e-92
2.15557e-94
2.99899e-96
4.07563e-98
5.23236e-100
-2.82429e-38
-2.19465e-37
-3.24076e-38
-7.79404e-37
-3.72656e-37
-5.38878e-37
-2.41861e-37
-5.75122e-38
-9.01641e-39
-1.02824e-39
-3.11599e-41
2.36079e-41
7.52506e-42
1.38047e-42
1.84e-43
1.92859e-44
1.6617e-45
1.21311e-46
7.67438e-48
4.28128e-49
2.13577e-50
9.63694e-52
3.97042e-53
1.50558e-54
5.29039e-56
1.7327e-57
5.31632e-59
1.53491e-60
4.18636e-62
1.0824e-63
2.66127e-65
6.23952e-67
1.39853e-68
3.00365e-70
6.19422e-72
1.2289e-73
2.34961e-75
4.33639e-77
7.73683e-79
1.33628e-80
2.23715e-82
3.6347e-84
5.73727e-86
8.80766e-88
1.31631e-89
1.9169e-91
2.72244e-93
3.77392e-95
5.11017e-97
6.53758e-99
-2.97956e-37
-2.70153e-36
-4.96347e-37
-8.47155e-36
-4.01111e-36
-5.95424e-36
-2.72138e-36
-6.52755e-37
-1.02829e-37
-1.17775e-38
-2.63671e-40
3.20394e-40
1.00351e-40
1.84808e-41
2.47584e-42
2.60454e-43
2.24859e-44
1.64254e-45
1.0386e-46
5.78635e-48
2.88102e-49
1.29684e-50
5.32831e-52
2.01441e-53
7.05562e-55
2.30308e-56
7.04189e-58
2.02589e-59
5.50554e-61
1.41828e-62
3.47424e-64
8.11543e-66
1.81225e-67
3.87771e-69
7.967e-71
1.57473e-72
2.99966e-74
5.51561e-76
9.80439e-78
1.68715e-79
2.81417e-81
4.55543e-83
7.16436e-85
1.09584e-86
1.63179e-88
2.36771e-90
3.35054e-92
4.62784e-94
6.24388e-96
7.96022e-98
-3.09279e-36
-3.22844e-35
-6.91845e-36
-8.88545e-35
-4.16178e-35
-6.36131e-35
-2.97221e-35
-7.2021e-36
-1.14057e-36
-1.3113e-37
-1.71283e-39
4.21296e-39
1.30214e-39
2.41041e-40
3.24775e-41
3.43006e-42
2.96745e-43
2.16887e-44
1.3706e-45
7.62506e-47
3.78863e-48
1.70105e-49
6.96888e-51
2.62635e-52
9.16832e-54
2.98231e-55
9.08607e-57
2.60444e-58
7.05162e-60
1.80979e-61
4.41663e-63
1.02779e-64
2.28649e-66
4.87403e-68
9.97634e-70
1.96449e-71
3.7281e-73
6.82948e-75
1.20948e-76
2.07359e-78
3.446e-80
5.55775e-82
8.70877e-84
1.32722e-85
1.96916e-87
2.84691e-89
4.01414e-91
5.52451e-93
7.42697e-95
9.43585e-97
-3.16775e-35
-3.74068e-34
-8.97918e-35
-8.97676e-34
-4.15221e-34
-6.56043e-34
-3.14882e-34
-7.72095e-35
-1.22979e-35
-1.41808e-36
-2.99296e-39
5.3637e-38
1.64251e-38
3.06054e-39
4.15035e-40
4.40195e-41
3.81645e-42
2.79082e-43
1.76238e-44
9.78898e-46
4.8529e-47
2.17299e-48
8.87514e-50
3.33372e-51
1.15972e-52
3.75876e-54
1.14093e-55
3.25808e-57
8.78785e-59
2.24676e-60
5.46201e-62
1.26618e-63
2.80604e-65
5.95867e-67
1.21499e-68
2.38343e-70
4.50606e-72
8.22363e-74
1.45094e-75
2.47831e-77
4.10337e-79
6.59363e-81
1.02942e-82
1.56312e-84
2.31076e-86
3.32873e-88
4.67665e-90
6.41328e-92
8.59108e-94
1.08774e-95
-3.20985e-34
-4.19667e-33
-1.09768e-33
-8.7176e-33
-3.97145e-33
-6.51904e-33
-3.23412e-33
-8.03925e-34
-1.28838e-34
-1.48828e-35
1.59652e-37
6.60701e-37
2.01229e-37
3.78022e-38
5.16334e-39
5.50125e-40
4.77998e-41
3.49684e-42
2.2063e-43
1.22328e-44
6.04959e-46
2.70095e-47
1.09957e-48
4.11589e-50
1.4266e-51
4.60636e-53
1.39284e-54
3.962e-56
1.06447e-57
2.71082e-59
6.56429e-61
1.51575e-62
3.34601e-64
7.0777e-66
1.4376e-67
2.80928e-69
5.29091e-71
9.61941e-73
1.69082e-74
2.87725e-76
4.74623e-78
7.5985e-80
1.18195e-81
1.78821e-83
2.63394e-85
3.78061e-87
5.2925e-89
7.23195e-91
9.65338e-93
1.21807e-94
-3.22286e-33
-4.55265e-32
-1.27193e-32
-8.11915e-32
-3.62753e-32
-6.2288e-32
-3.21923e-32
-8.12809e-33
-1.31105e-33
-1.51448e-34
3.90235e-36
7.86824e-36
2.39243e-36
4.53889e-37
6.24938e-38
6.69045e-39
5.82593e-40
4.26313e-41
2.68687e-42
1.48671e-43
7.33263e-45
3.2635e-46
1.32399e-47
4.93766e-49
1.70487e-50
5.48323e-52
1.65137e-53
4.67848e-55
1.25189e-56
3.17524e-58
7.65795e-60
1.7612e-61
3.87237e-63
8.15874e-65
1.65067e-66
3.21312e-68
6.02818e-70
1.09179e-71
1.91179e-73
3.24105e-75
5.3264e-77
8.49578e-79
1.31667e-80
1.98477e-82
2.91289e-84
4.16597e-86
5.81114e-88
7.91245e-90
1.05244e-91
1.32346e-93
-3.20545e-32
-4.76886e-31
-1.40197e-31
-7.23309e-31
-3.14804e-31
-5.70928e-31
-3.10528e-31
-7.97941e-32
-1.29554e-32
-1.49283e-33
6.4779e-35
9.05165e-35
2.75812e-35
5.29444e-36
7.35414e-37
7.91285e-38
6.90485e-39
5.05288e-40
3.18029e-41
1.75566e-42
8.63342e-44
3.82931e-45
1.54776e-46
5.74959e-48
1.97717e-49
6.3328e-51
1.89929e-52
5.35834e-54
1.42782e-55
3.60639e-57
8.66182e-59
1.9839e-60
4.34429e-62
9.1162e-64
1.83704e-65
3.56179e-67
6.65625e-69
1.20089e-70
2.09479e-72
3.53785e-74
5.79239e-76
9.20477e-78
1.42131e-79
2.13468e-81
3.12157e-83
4.44839e-85
6.18297e-87
8.38894e-89
1.1119e-90
1.3935e-92
-3.14918e-31
-4.81635e-30
-1.47283e-30
-6.14517e-30
-2.57692e-30
-5.00668e-30
-2.90363e-30
-7.60756e-31
-1.24314e-31
-1.42391e-32
9.12389e-34
1.00502e-33
3.081e-34
5.99618e-35
8.40925e-36
9.09497e-37
7.95176e-38
5.81755e-39
3.65536e-40
2.01254e-41
9.86393e-43
4.35878e-44
1.7547e-45
6.49105e-47
2.22257e-48
7.08788e-50
2.11647e-51
5.94505e-53
1.57729e-54
3.96679e-56
9.48685e-58
2.16372e-59
4.71835e-61
9.86047e-63
1.97897e-64
3.82162e-66
7.11359e-68
1.2784e-69
2.22139e-71
3.73738e-73
6.09602e-75
9.65118e-77
1.48474e-78
2.22182e-80
3.23724e-82
4.5967e-84
6.3664e-86
8.60735e-88
1.13685e-89
1.41999e-91
-3.0388e-30
-4.68279e-29
-1.47613e-29
-4.96173e-29
-1.96813e-29
-4.18749e-29
-2.63408e-29
-7.04713e-30
-1.15842e-30
-1.31288e-31
1.16037e-32
1.07596e-32
3.33261e-33
6.59007e-34
9.33818e-35
1.01522e-35
8.89086e-37
6.50045e-38
4.07579e-39
2.23711e-40
1.0924e-41
4.80746e-43
1.92692e-44
7.09615e-46
2.41867e-47
7.67784e-49
2.28212e-50
6.38117e-52
1.68536e-53
4.21971e-55
1.00474e-56
2.28165e-58
4.95432e-60
1.03102e-61
2.06068e-63
3.96324e-65
7.34766e-67
1.31525e-68
2.27655e-70
3.81549e-72
6.19987e-74
9.7789e-76
1.49883e-77
2.23472e-79
3.24427e-81
4.5902e-83
6.33487e-85
8.53463e-87
1.12332e-88
1.3984e-90
-2.85589e-29
-4.37571e-28
-1.4119e-28
-3.79193e-28
-1.37712e-28
-3.32797e-28
-2.32155e-28
-6.34728e-29
-1.04861e-29
-1.16894e-30
1.36747e-31
1.10952e-31
3.48847e-32
7.0253e-33
1.00647e-33
1.09977e-34
9.64329e-36
7.04256e-37
4.40407e-38
2.40867e-39
1.17129e-40
5.13138e-42
2.04704e-43
7.50209e-45
2.54458e-46
8.03822e-48
2.3777e-49
6.61668e-51
1.73935e-52
4.33474e-54
1.02744e-55
2.32281e-57
5.02164e-59
1.04054e-60
2.07096e-62
3.96656e-64
7.32397e-66
1.30578e-67
2.25129e-69
3.75858e-71
6.08416e-73
9.56043e-75
1.45993e-76
2.16876e-78
3.13715e-80
4.42281e-82
6.08231e-84
8.16574e-86
1.07104e-87
1.32889e-89
-2.58515e-28
-3.9223e-27
-1.28881e-27
-2.72984e-27
-8.52075e-28
-2.50181e-27
-1.99197e-27
-5.56384e-28
-9.2246e-29
-1.00415e-29
1.51248e-30
1.10073e-30
3.532e-31
7.26136e-32
1.05224e-32
1.15526e-33
1.01368e-34
7.38995e-36
4.60634e-37
2.50887e-38
1.21432e-39
5.29334e-41
2.10078e-42
7.65887e-44
2.58421e-45
8.12116e-47
2.38998e-48
6.6175e-50
1.73101e-51
4.29321e-53
1.01281e-54
2.27921e-56
4.90525e-58
1.01196e-59
2.00543e-61
3.82489e-63
7.03333e-65
1.2489e-66
2.1447e-68
3.56671e-70
5.75153e-72
9.00376e-74
1.36983e-75
2.0275e-77
2.92226e-79
4.10521e-81
5.62571e-83
7.52649e-85
9.83804e-87
1.21663e-88
-2.22178e-27
-3.36542e-26
-1.12255e-26
-1.84071e-26
-4.26909e-27
-1.76883e-26
-1.66816e-26
-4.75105e-27
-7.88953e-28
-8.31712e-29
1.58062e-29
1.0492e-29
3.45747e-30
7.27404e-31
1.06641e-31
1.17577e-32
1.03162e-33
7.50177e-35
4.65756e-36
2.52462e-37
1.21551e-38
5.26929e-40
2.07947e-41
7.53839e-43
2.52931e-44
7.90482e-46
2.31374e-47
6.37257e-49
1.65836e-50
4.09239e-52
9.60728e-54
2.15173e-55
4.60949e-57
9.46668e-59
1.86781e-60
3.54718e-62
6.49542e-64
1.14868e-65
1.96472e-67
3.25463e-69
5.22815e-71
8.15364e-73
1.23591e-74
1.82261e-76
2.61754e-78
3.66414e-80
5.00375e-82
6.67131e-84
8.69049e-86
1.0712e-87
-1.77759e-26
-2.75669e-25
-9.32815e-26
-1.15465e-25
-1.17447e-26
-1.16725e-25
-1.36698e-25
-3.95481e-26
-6.56196e-27
-6.64134e-28
1.56603e-28
9.59422e-29
3.27116e-29
7.05914e-30
1.0469e-30
1.1582e-31
1.0152e-32
7.35717e-34
4.54601e-35
2.45055e-36
1.17285e-37
5.05331e-39
1.98196e-40
7.14095e-42
2.38154e-43
7.39915e-45
2.1533e-46
5.89764e-48
1.52648e-49
3.74721e-51
8.75233e-53
1.95062e-54
4.15879e-56
8.50164e-58
1.66989e-59
3.15751e-61
5.75741e-63
1.01397e-64
1.72733e-66
2.85015e-68
4.56082e-70
7.08612e-72
1.07013e-73
1.57242e-75
2.25018e-77
3.13884e-79
4.27159e-81
5.67571e-83
7.36861e-85
9.05336e-87
-1.28319e-25
-2.14836e-24
-7.39661e-25
-6.68413e-25
7.84445e-26
-7.11185e-25
-1.09802e-24
-3.20892e-25
-5.3061e-26
-5.11538e-27
1.47286e-27
8.40149e-28
2.99034e-28
6.63306e-29
9.94576e-30
1.10287e-30
9.64654e-32
6.95984e-33
4.27605e-34
2.29041e-35
1.08891e-36
4.65996e-38
1.81537e-39
6.49735e-41
2.15285e-42
6.64652e-44
1.92248e-45
5.23442e-47
1.34712e-48
3.28882e-50
7.64115e-52
1.69432e-53
3.59463e-55
7.31357e-57
1.42996e-58
2.69188e-60
4.88733e-62
8.57154e-64
1.45428e-65
2.39016e-67
3.81005e-69
5.89744e-71
8.8735e-73
1.29916e-74
1.85256e-76
2.57522e-78
3.49258e-80
4.625e-82
5.98454e-84
7.32946e-86
-7.84702e-25
-1.58575e-23
-5.60058e-24
-3.53957e-24
1.77211e-24
-3.9327e-24
-8.64291e-24
-2.53456e-24
-4.16617e-25
-3.80553e-26
1.31458e-26
7.03028e-27
2.6405e-27
6.03031e-28
9.13264e-29
1.01363e-29
8.83554e-31
6.33901e-32
3.86852e-33
2.05713e-34
9.70731e-36
4.1232e-37
1.59443e-38
5.66555e-40
1.86414e-41
5.71637e-43
1.64271e-44
4.44481e-46
1.13707e-47
2.76011e-49
6.37754e-51
1.40669e-52
2.96932e-54
6.01202e-56
1.16999e-57
2.19259e-59
3.96358e-61
6.92231e-63
1.1697e-64
1.91487e-66
3.04072e-68
4.68907e-70
7.02965e-72
1.02554e-73
1.45729e-75
2.01882e-77
2.72877e-79
3.60157e-81
4.64506e-83
5.6712e-85
-3.35183e-24
-1.10185e-22
-4.0555e-23
-1.70246e-23
2.03695e-23
-1.91169e-23
-6.64198e-23
-1.94256e-23
-3.16773e-24
-2.73979e-25
1.11175e-25
5.607e-26
2.25122e-26
5.29857e-27
8.09232e-28
8.97444e-29
7.78426e-30
5.54635e-31
3.35837e-32
1.77122e-33
8.28881e-35
3.49176e-36
1.3394e-37
4.72224e-39
1.54208e-40
4.69468e-42
1.33979e-43
3.60127e-45
9.15479e-47
2.2089e-48
5.07473e-50
1.11323e-51
2.33765e-53
4.70956e-55
9.12168e-57
1.70164e-58
3.06262e-60
5.32631e-62
8.96365e-64
1.46164e-65
2.3122e-67
3.55248e-69
5.30661e-71
7.71456e-73
1.09249e-74
1.50838e-76
2.03211e-78
2.6734e-80
3.43697e-82
4.18345e-84
1.74805e-24
-7.14802e-22
-2.81428e-22
-7.46722e-23
1.84723e-22
-7.55621e-23
-4.94179e-22
-1.43699e-22
-2.32181e-23
-1.91273e-24
8.88482e-25
4.24854e-25
1.85196e-25
4.49246e-26
6.90458e-27
7.63585e-28
6.57955e-29
4.64923e-30
2.78987e-31
1.45783e-32
6.7595e-34
2.82184e-35
1.07296e-36
3.75094e-38
1.215e-39
3.67036e-41
1.03977e-42
2.77533e-44
7.00847e-46
1.68042e-47
3.83766e-49
8.37113e-51
1.74845e-52
3.50466e-54
6.75524e-56
1.25439e-57
2.24775e-59
3.89272e-61
6.52465e-63
1.05981e-64
1.67025e-66
2.55689e-68
3.806e-70
5.51412e-72
7.7827e-74
1.07104e-75
1.43831e-77
1.88627e-79
2.41754e-81
2.93392e-83
2.42776e-22
-4.28101e-21
-1.87434e-21
-3.11912e-22
1.4387e-21
-1.74071e-22
-3.51045e-21
-1.01849e-21
-1.6297e-22
-1.29622e-23
6.68366e-24
3.04626e-24
1.46843e-24
3.66728e-25
5.65687e-26
6.22442e-27
5.31835e-28
3.72143e-29
2.21027e-30
1.14307e-31
5.24631e-33
2.16854e-34
8.1671e-36
2.82913e-37
9.08447e-39
2.72168e-40
7.64998e-42
2.02686e-43
5.08278e-45
1.21072e-46
2.74793e-48
5.95929e-50
1.23789e-51
2.46849e-53
4.73485e-55
8.7517e-57
1.56137e-58
2.69277e-60
4.49549e-62
7.27434e-64
1.14225e-65
1.74246e-67
2.58489e-69
3.73263e-71
5.25138e-73
7.20423e-75
9.645e-77
1.26109e-78
1.61149e-80
1.95017e-82
3.3609e-21
-2.33126e-20
-1.19576e-20
-1.4082e-21
9.84743e-21
7.14969e-22
-2.33291e-20
-6.86031e-21
-1.08635e-21
-8.52088e-23
4.70745e-23
2.05652e-23
1.12029e-23
2.8735e-24
4.4344e-25
4.84258e-26
4.09493e-27
2.83294e-28
1.66313e-29
8.50267e-31
3.85893e-32
1.57791e-33
5.88142e-35
2.01734e-36
6.41743e-38
1.90572e-39
5.31212e-41
1.39649e-42
3.47647e-44
8.22448e-46
1.8548e-47
3.99848e-49
8.25968e-51
1.63851e-52
3.12755e-54
5.75442e-56
1.02222e-57
1.75578e-59
2.91994e-61
4.70759e-63
7.36627e-65
1.11993e-66
1.65602e-68
2.38386e-70
3.34367e-72
4.57355e-74
6.10538e-76
7.96021e-78
1.01437e-79
1.22428e-81
3.20212e-20
-1.13046e-19
-7.23645e-20
-7.87323e-21
5.90156e-20
1.4731e-20
-1.41006e-19
-4.36606e-20
-6.81507e-21
-5.42308e-22
3.08164e-22
1.29888e-22
8.2026e-23
2.15251e-23
3.31104e-24
3.57884e-25
2.98876e-26
2.04079e-27
1.18254e-28
5.96901e-30
2.67586e-31
1.08131e-32
3.98536e-34
1.3525e-35
4.25945e-37
1.25301e-38
3.46201e-40
9.02665e-42
2.23001e-43
5.23841e-45
1.17366e-46
2.51482e-48
5.16586e-50
1.01948e-51
1.93665e-53
3.54743e-55
6.27559e-57
1.07374e-58
1.77919e-60
2.85862e-62
4.45854e-64
6.75755e-66
9.9626e-68
1.43003e-69
2.00024e-71
2.7286e-73
3.6329e-75
4.72433e-77
6.00482e-79
7.22978e-81
2.3816e-19
-4.73966e-19
-4.06391e-19
-4.99342e-20
3.01415e-19
1.51042e-19
-7.45136e-19
-2.63515e-19
-3.99193e-20
-3.34229e-21
1.85549e-21
7.61243e-22
5.74307e-22
1.53366e-22
2.3418e-23
2.49789e-24
2.05543e-25
1.38263e-26
7.89487e-28
3.92888e-29
1.7375e-30
6.93088e-32
2.52336e-33
8.46504e-35
2.6372e-36
7.6799e-38
2.10215e-39
5.43383e-41
1.33178e-42
3.10573e-44
6.91221e-46
1.47215e-47
3.00741e-49
5.90538e-51
1.11669e-52
2.03696e-54
3.58971e-56
6.12029e-58
1.01083e-59
1.61916e-61
2.51817e-63
3.80635e-65
5.59726e-67
8.01448e-69
1.11834e-70
1.52203e-72
2.02183e-74
2.62335e-76
3.32698e-78
3.99709e-80
1.38656e-18
-1.64434e-18
-2.04547e-18
-2.79112e-19
1.23114e-18
1.30006e-18
-3.24637e-18
-1.54665e-18
-2.17371e-19
-2.0113e-20
1.01131e-20
4.09616e-21
3.8268e-21
1.03282e-21
1.55822e-22
1.6348e-23
1.32201e-24
8.74107e-26
4.9087e-27
2.40409e-28
1.04711e-29
4.11711e-31
1.47871e-32
4.89795e-34
1.50799e-35
4.34387e-37
1.17719e-38
3.01536e-40
7.32987e-42
1.69675e-43
3.75146e-45
7.94295e-47
1.61419e-48
3.15503e-50
5.94169e-52
1.07989e-53
1.89694e-55
3.22483e-57
5.31222e-59
8.48892e-61
1.31733e-62
1.98713e-64
2.91642e-66
4.16815e-68
5.8058e-70
7.88758e-72
1.04595e-73
1.35477e-75
1.71515e-77
2.0571e-79
5.93453e-18
-4.39319e-18
-8.97495e-18
-1.02299e-18
3.42741e-18
1.03587e-17
-1.05634e-17
-9.29061e-18
-1.09753e-18
-1.20738e-19
4.85917e-20
1.99545e-20
2.4122e-20
6.52355e-21
9.67314e-22
9.94353e-23
7.87703e-24
5.1046e-25
2.81157e-26
1.3517e-27
5.78447e-29
2.23684e-30
7.90966e-32
2.58234e-33
7.84574e-35
2.23295e-36
5.9861e-38
1.51865e-39
3.66056e-41
8.41167e-43
1.84812e-44
3.89214e-46
7.87424e-48
1.5333e-49
2.87864e-51
5.21852e-53
9.14758e-55
1.55241e-56
2.55358e-58
4.07563e-60
6.31793e-62
9.52127e-64
1.39616e-65
1.99371e-67
2.77469e-69
3.76637e-71
4.98998e-73
6.45716e-75
8.16655e-77
9.78448e-79
1.58725e-17
-7.93967e-18
-3.96734e-17
-7.29843e-19
9.01686e-18
8.25764e-17
-2.14121e-17
-5.98869e-17
-5.02318e-18
-7.44513e-19
1.95921e-19
8.63919e-20
1.42804e-19
3.82854e-20
5.54405e-21
5.5573e-22
4.29395e-23
2.71561e-24
1.46069e-25
6.86361e-27
2.87366e-28
1.0885e-29
3.77557e-31
1.21104e-32
3.62117e-34
1.01614e-35
2.69088e-37
6.75599e-39
1.61449e-40
3.68435e-42
8.05141e-44
1.68885e-45
3.40715e-47
6.62266e-49
1.24215e-50
2.25117e-52
3.94695e-54
6.70222e-56
1.10338e-57
1.76281e-59
2.73559e-61
4.12702e-63
6.05792e-65
8.65875e-67
1.20604e-68
1.63819e-70
2.17154e-72
2.81103e-74
3.55586e-76
4.26043e-78
7.17787e-16
-1.00364e-17
-3.34949e-16
5.68748e-14
3.37303e-14
6.70644e-16
-1.82031e-15
-4.22581e-16
-1.79948e-17
-4.80688e-18
5.92524e-19
3.24693e-19
7.87516e-19
2.06374e-19
2.89446e-20
2.81087e-21
2.10427e-22
1.28911e-23
6.716e-25
3.05722e-26
1.24091e-27
4.56272e-29
1.53918e-30
4.81326e-32
1.40728e-33
3.8741e-35
1.00998e-36
2.50521e-38
5.93496e-40
1.34694e-41
2.93559e-43
6.156e-45
1.24407e-46
2.42609e-48
4.57055e-50
8.32651e-52
1.46821e-53
2.50792e-55
4.1534e-57
6.67434e-59
1.04153e-60
1.57955e-62
2.32987e-64
3.34498e-66
4.67781e-68
6.37673e-70
8.47943e-72
1.10065e-73
1.39553e-75
1.67522e-77
1.02239e-13
-2.61611e-12
1.69207e-11
6.5799e-12
2.36616e-13
-2.08405e-12
-2.31884e-13
-2.03452e-15
-9.15327e-18
-3.27815e-17
8.86835e-19
1.03447e-18
4.01116e-18
1.00708e-18
1.35166e-19
1.25893e-20
9.0199e-22
5.26903e-23
2.60764e-24
1.124e-25
4.3107e-27
1.49667e-28
4.77369e-30
1.41648e-31
3.95285e-33
1.04694e-34
2.65117e-36
6.45428e-38
1.51623e-39
3.44448e-41
7.57418e-43
1.6124e-44
3.32226e-46
6.62328e-48
1.27726e-49
2.38244e-51
4.2989e-53
7.50638e-55
1.26899e-56
2.07834e-58
3.30004e-60
5.084e-62
7.60566e-64
1.1058e-65
1.56386e-67
2.15305e-69
2.88808e-71
3.77751e-73
4.82147e-75
5.82015e-77
4.87514e-13
-2.27708e-11
7.12678e-10
3.4387e-11
-5.18468e-10
-4.17689e-11
-9.47031e-13
-1.93963e-15
-1.5361e-15
-2.51452e-16
-1.65137e-18
2.80527e-18
1.87391e-17
4.36749e-18
5.4962e-19
4.82026e-20
3.21247e-21
1.71285e-22
7.55482e-24
2.81588e-25
8.97822e-27
2.45792e-28
5.73597e-30
1.11014e-31
1.63986e-33
1.26134e-35
-2.10269e-37
-1.12443e-38
-2.51433e-40
-2.29501e-42
7.84861e-44
5.19928e-45
1.8891e-46
5.46093e-48
1.37568e-49
3.13893e-51
6.62366e-53
1.30936e-54
2.44599e-56
4.34545e-58
7.37711e-60
1.20133e-61
1.88235e-63
2.84528e-65
4.15803e-67
5.88589e-69
8.08389e-71
1.07883e-72
1.40082e-74
1.71525e-76
-6.76716e-09
6.10253e-09
3.59081e-09
-2.14796e-07
-2.42274e-08
-9.54872e-11
1.50083e-13
-9.96853e-14
-3.81992e-14
-1.65273e-15
7.2188e-18
7.16637e-18
8.0322e-17
1.64453e-17
1.86073e-18
1.47248e-19
8.30128e-21
3.28159e-22
7.41613e-24
-9.78033e-26
-2.07715e-26
-1.32723e-27
-6.12831e-29
-2.33805e-30
-7.76002e-32
-2.30222e-33
-6.20889e-35
-1.53971e-36
-3.53979e-38
-7.58955e-40
-1.52403e-41
-2.87408e-43
-5.09674e-45
-8.49584e-47
-1.32769e-48
-1.93324e-50
-2.58989e-52
-3.10723e-54
-3.11984e-56
-2.01939e-58
1.10958e-60
7.53559e-62
1.88906e-63
3.7128e-65
6.44159e-67
1.02963e-68
1.54782e-70
2.21416e-72
3.03658e-74
3.88012e-76
-1.422e-07
1.10005e-06
-7.90948e-06
-2.54924e-06
-9.31066e-08
1.32958e-11
7.24596e-13
-4.35968e-13
-1.48891e-13
-4.19493e-15
1.3262e-16
1.76986e-17
3.53749e-16
5.24177e-17
4.77302e-18
2.93897e-19
5.88865e-21
-7.34779e-22
-9.60802e-23
-6.90721e-24
-3.75395e-25
-1.68874e-26
-6.56327e-28
-2.26068e-29
-7.02199e-31
-1.99224e-32
-5.21424e-34
-1.26894e-35
-2.88988e-37
-6.19133e-39
-1.25322e-40
-2.40515e-42
-4.38908e-44
-7.63331e-46
-1.26741e-47
-2.01152e-49
-3.05374e-51
-4.43485e-53
-6.15706e-55
-8.15796e-57
-1.02825e-58
-1.22584e-60
-1.368e-62
-1.40087e-64
-1.25932e-66
-8.71336e-69
-1.64685e-71
9.24797e-73
2.44414e-74
4.23794e-76
-4.31377e-07
5.50122e-06
-7.04786e-05
-6.72044e-06
-7.37518e-09
1.73374e-12
4.94341e-13
-5.91441e-13
-2.1119e-13
1.77727e-13
5.05147e-14
1.31139e-15
3.45328e-15
1.34176e-16
6.56182e-18
-4.93987e-20
-9.60504e-20
-1.19846e-20
-9.26942e-22
-5.48032e-23
-2.67824e-24
-1.12613e-25
-4.17577e-27
-1.38923e-28
-4.20122e-30
-1.16701e-31
-3.00324e-33
-7.21161e-35
-1.62559e-36
-3.45722e-38
-6.96698e-40
-1.33517e-41
-2.44078e-43
-4.26728e-45
-7.15069e-47
-1.15058e-48
-1.78042e-50
-2.65285e-52
-3.80995e-54
-5.27804e-56
-7.05641e-58
-9.10625e-60
-1.13416e-61
-1.36246e-63
-1.57677e-65
-1.75428e-67
-1.86986e-69
-1.8985e-71
-1.81808e-73
-1.57919e-75
3.74049e-06
7.64139e-06
-0.000189614
0.00545863
0.0238016
0.0320053
0.0355365
0.0228809
0.00429195
1.14919e-06
3.78458e-13
6.29467e-13
2.33829e-14
-6.47261e-17
-1.04981e-17
-3.30557e-18
-8.12744e-19
-8.07444e-20
-5.53431e-21
-3.0283e-22
-1.40338e-23
-5.67938e-25
-2.04602e-26
-6.65312e-28
-1.97445e-29
-5.39743e-31
-1.36985e-32
-3.24978e-34
-7.24878e-36
-1.52784e-37
-3.05601e-39
-5.82211e-41
-1.05977e-42
-1.84801e-44
-3.0942e-46
-4.98423e-48
-7.73729e-50
-1.15921e-51
-1.67831e-53
-2.35077e-55
-3.1886e-57
-4.19192e-59
-5.34519e-61
-6.61472e-63
-7.94808e-65
-9.27591e-67
-1.05163e-68
-1.15815e-70
-1.23859e-72
-1.252e-74
0.000393725
-0.00141788
0.00256399
0.0613658
0.154
0.203627
0.219283
0.182718
0.0832865
0.0130613
1.74864e-05
3.57238e-12
6.42137e-15
-6.05523e-16
-6.53638e-17
-1.44862e-17
-4.95043e-18
-4.26504e-19
-2.6044e-20
-1.31861e-21
-5.80298e-23
-2.26713e-24
-7.96404e-26
-2.54035e-27
-7.42167e-29
-2.00163e-30
-5.01954e-32
-1.17799e-33
-2.60189e-35
-5.43588e-37
-1.07881e-38
-2.04132e-40
-3.6943e-42
-6.4117e-44
-1.06963e-45
-1.71859e-47
-2.66401e-49
-3.99011e-51
-5.7823e-53
-8.11721e-55
-1.10504e-56
-1.46032e-58
-1.87507e-60
-2.34125e-62
-2.84498e-64
-3.36683e-66
-3.88289e-68
-4.36653e-70
-4.79063e-72
-4.99097e-74
0.00186715
-0.00786107
0.0300919
0.198545
0.413093
0.535574
0.567027
0.5216
0.312816
0.0884136
0.00502298
7.4538e-12
-1.79975e-14
-4.18197e-15
-1.62219e-16
-3.45028e-17
-3.18606e-17
-1.97811e-18
-9.76188e-20
-4.38066e-21
-1.8023e-22
-6.78056e-24
-2.33019e-25
-7.32947e-27
-2.11954e-28
-5.66809e-30
-1.41057e-31
-3.28686e-33
-7.21201e-35
-1.4976e-36
-2.95594e-38
-5.56636e-40
-1.00322e-41
-1.73512e-43
-2.88646e-45
-4.62754e-47
-7.16173e-49
-1.07156e-50
-1.55214e-52
-2.17914e-54
-2.9687e-56
-3.9285e-58
-5.05467e-60
-6.32945e-62
-7.7202e-64
-9.17999e-66
-1.06501e-67
-1.20639e-69
-1.33523e-71
-1.4053e-73
0.00409429
-0.0180676
0.077542
0.381334
0.708098
0.886383
0.919583
0.906562
0.650282
0.240657
0.0257854
7.95678e-12
-7.11708e-14
-1.18024e-14
-8.13562e-17
-1.33673e-16
-2.71502e-16
-7.34822e-18
-2.33331e-19
-8.46656e-21
-3.20591e-22
-1.18529e-23
-4.11106e-25
-1.3143e-26
-3.85957e-28
-1.04483e-29
-2.62409e-31
-6.15654e-33
-1.35811e-34
-2.83292e-36
-5.61463e-38
-1.0615e-39
-1.92067e-41
-3.33492e-43
-5.5692e-45
-8.96186e-47
-1.39193e-48
-2.08969e-50
-3.03648e-52
-4.27579e-54
-5.84147e-56
-7.75111e-58
-9.99999e-60
-1.25565e-61
-1.536e-63
-1.83222e-65
-2.13313e-67
-2.42598e-69
-2.69741e-71
-2.85351e-73
0.00527971
-0.0235561
0.102092
0.495294
0.878844
1.05194
1.06622
1.10082
0.906794
0.407899
0.0587847
9.16091e-12
7.67592e-13
3.72395e-15
-1.37851e-13
-1.13941e-13
-2.43163e-15
4.47472e-18
2.42588e-19
9.74212e-21
3.01512e-22
6.91178e-24
9.53117e-26
-6.88556e-28
-1.0256e-28
-4.42417e-30
-1.42311e-31
-3.91328e-33
-9.67596e-35
-2.20577e-36
-4.70254e-38
-9.45929e-40
-1.8059e-41
-3.28592e-43
-5.71641e-45
-9.53272e-47
-1.52721e-48
-2.35522e-50
-3.50277e-52
-5.03248e-54
-6.99596e-56
-9.42484e-58
-1.23225e-59
-1.56574e-61
-1.93604e-63
-2.33251e-65
-2.74135e-67
-3.14646e-69
-3.53065e-71
-3.76889e-73
0.00392322
-0.0170682
0.0663543
0.451501
0.866137
1.01638
1.02489
1.05862
0.933735
0.480701
0.0813218
3.46479e-06
4.25431e-12
-7.35084e-11
-3.19678e-11
-8.63403e-13
1.42012e-15
5.2765e-17
2.18718e-18
8.9835e-20
3.13277e-21
9.48818e-23
2.58532e-24
6.5056e-26
1.53528e-27
3.4217e-29
7.2149e-31
1.43839e-32
2.70772e-34
4.80674e-36
8.03705e-38
1.26389e-39
1.86493e-41
2.5709e-43
3.28407e-45
3.82391e-47
3.91252e-49
3.1717e-51
1.13555e-53
-2.72e-55
-8.93255e-57
-1.79982e-58
-3.0313e-60
-4.61188e-62
-6.54596e-64
-8.81539e-66
-1.13787e-67
-1.41719e-69
-1.71117e-71
-1.95023e-73
0.000998427
-0.00344933
0.000125447
0.236658
0.643038
0.87049
0.94393
0.926611
0.783013
0.420164
0.0755183
5.87643e-05
-5.34914e-08
-8.82311e-09
-1.49823e-10
3.2609e-13
1.54942e-14
4.0066e-17
2.09478e-18
1.23104e-19
4.84773e-21
1.57315e-22
4.57959e-24
1.24095e-25
3.16903e-27
7.6384e-29
1.73564e-30
3.71638e-32
7.50756e-34
1.43438e-35
2.60023e-37
4.48826e-39
7.40309e-41
1.17083e-42
1.78105e-44
2.61321e-46
3.70709e-48
5.09477e-50
6.7944e-52
8.80327e-54
1.10912e-55
1.3595e-57
1.62155e-59
1.88185e-61
2.12402e-63
2.32983e-65
2.48066e-67
2.55944e-69
2.5525e-71
2.39288e-73
-0.000522576
0.00299649
-0.0216173
0.0221596
0.287854
0.610777
0.775609
0.741885
0.55705
0.271112
0.0452583
-4.73522e-06
-1.63807e-06
-4.21251e-08
6.61261e-11
2.92377e-12
2.01715e-14
-1.07552e-16
-3.92734e-18
-1.355e-19
-3.9514e-21
-9.51328e-23
-1.85382e-24
-2.66563e-26
-1.50061e-28
6.88193e-30
3.43838e-31
1.04762e-32
2.61172e-34
5.76427e-36
1.16609e-37
2.204e-39
3.93864e-41
6.7074e-43
1.09434e-44
1.71681e-46
2.59611e-48
3.79025e-50
5.34836e-52
7.29917e-54
9.6383e-56
1.23163e-57
1.52304e-59
1.82221e-61
2.10831e-63
2.35698e-65
2.54261e-67
2.64107e-69
2.6327e-71
2.44635e-73
-0.000349519
0.00152292
-0.00548586
-0.0508828
0.0108569
0.244457
0.424744
0.417113
0.280792
0.111214
0.0146504
-5.69268e-05
-6.38336e-06
8.44332e-09
1.0193e-09
2.62061e-12
-2.77546e-14
-8.93485e-16
-5.4277e-18
-2.73666e-19
-9.35285e-21
-2.66752e-22
-6.96098e-24
-1.72778e-25
-4.12959e-27
-9.49575e-29
-2.08978e-30
-4.38164e-32
-8.73246e-34
-1.65405e-35
-2.982e-37
-5.12943e-39
-8.44336e-41
-1.33424e-42
-2.03062e-44
-2.986e-46
-4.25541e-48
-5.89435e-50
-7.95658e-52
-1.04919e-53
-1.35435e-55
-1.7145e-57
-2.13158e-59
-2.60566e-61
-3.13431e-63
-3.71203e-65
-4.32978e-67
-4.97467e-69
-5.63005e-71
-6.09738e-73
0.000128395
-0.000776868
0.00611086
-0.0134218
-0.0576296
-0.0206602
0.0613978
0.088514
0.0492318
-0.00268462
-0.00422569
-0.000272607
-3.89963e-06
6.26886e-08
3.62205e-09
-4.56984e-12
-1.80223e-13
6.76975e-17
2.34591e-18
7.02538e-20
1.60917e-21
2.17357e-23
-2.40184e-25
-2.94239e-26
-1.28152e-27
-4.18542e-29
-1.16013e-30
-2.8632e-32
-6.45386e-34
-1.35015e-35
-2.65112e-37
-4.92716e-39
-8.72358e-41
-1.47885e-42
-2.41006e-44
-3.78774e-46
-5.75541e-48
-8.47203e-50
-1.21009e-51
-1.6794e-53
-2.26717e-55
-2.98018e-57
-3.81788e-59
-4.77077e-61
-5.81952e-63
-6.93513e-65
-8.08014e-67
-9.21083e-69
-1.02803e-70
-1.09296e-72
5.52462e-05
-0.000222293
0.000464444
0.0122686
-0.00976598
-0.0526704
-0.0666255
-0.0491401
-0.0322886
-0.0232623
-0.00522226
-0.000127622
2.29785e-06
2.1961e-07
-5.96888e-10
-2.63051e-11
1.80642e-14
5.23813e-16
5.85969e-18
2.05416e-19
5.80706e-21
1.47115e-22
3.50112e-24
7.9354e-26
1.70782e-27
3.45588e-29
6.49744e-31
1.11912e-32
1.72892e-34
2.29459e-36
2.3076e-38
6.97725e-41
-4.46982e-42
-1.63293e-43
-3.95197e-45
-8.03748e-47
-1.46899e-48
-2.48444e-50
-3.95026e-52
-5.96308e-54
-8.60308e-56
-1.192e-57
-1.59202e-59
-2.05569e-61
-2.57251e-63
-3.12641e-65
-3.69656e-67
-4.25883e-69
-4.78773e-71
-5.11197e-73
-5.47832e-05
0.000293458
-0.00188465
0.000130156
0.011465
0.00572484
-0.012482
-0.0218018
-0.0129575
0.00165508
0.00133151
0.000103143
8.06855e-07
-2.61268e-08
-1.45433e-09
1.71116e-12
6.00716e-14
-2.86655e-18
-2.4531e-20
4.06666e-21
4.02021e-22
2.24578e-23
9.24918e-25
3.07943e-26
8.70524e-28
2.15495e-29
4.77141e-31
9.59639e-33
1.77374e-34
3.04057e-36
4.8696e-38
7.33076e-40
1.0428e-41
1.40839e-43
1.81436e-45
2.24043e-47
2.66674e-49
3.08036e-51
3.48173e-53
3.88889e-55
4.33815e-57
4.88027e-59
5.57226e-61
6.46623e-63
7.59733e-65
8.97337e-67
1.05683e-68
1.23209e-70
1.41397e-72
1.54582e-74
2.12327e-05
-0.000122558
0.000904014
-0.00161076
-0.00431143
0.00929954
0.0271909
0.0317723
0.0209064