/*--------------------------------*- C++ -*----------------------------------*\
| =========                 |                                                 |
| \\      /  F ield         | OpenFOAM: The Open Source CFD Toolbox           |
|  \\    /   O peration     | Version:  v2006                                 |
|   \\  /    A nd           | Website:  www.openfoam.com                      |
|    \\/     M anipulation  |                                                 |
\*---------------------------------------------------------------------------*/
FoamFile
{
    version     2.0;
    format      ascii;
    class       surfaceScalarField;
    location    "17.5";
    object      alphaPhi0.water;
}
// * * * * * * * * * * * * * * * * * * * * * * * * * * * * * * * * * * * * * //

dimensions      [0 3 -1 0 0 0 0];
oriented        oriented;


internalField   nonuniform List<scalar> 
99450
(
-4.39236e-07
4.39236e-07
1.59507e-05
-1.63899e-05
3.36795e-05
-1.77288e-05
4.79173e-05
-1.42377e-05
5.87187e-05
-1.08015e-05
6.74375e-05
-8.71876e-06
7.50238e-05
-7.58625e-06
8.19133e-05
-6.88956e-06
8.81916e-05
-6.27824e-06
9.38258e-05
-5.63422e-06
9.87796e-05
-4.95385e-06
0.000103
-4.2205e-06
0.000106486
-3.48539e-06
0.000109226
-2.74072e-06
0.000111231
-2.00446e-06
0.000112505
-1.27479e-06
0.00011306
-5.54443e-07
0.000112943
1.17329e-07
0.000112166
7.76643e-07
0.000110755
1.41089e-06
0.000108739
2.01564e-06
0.000106153
2.58605e-06
0.000103027
3.12669e-06
9.93867e-05
3.63997e-06
9.52583e-05
4.12841e-06
9.06675e-05
4.59082e-06
8.56331e-05
5.03438e-06
8.01713e-05
5.4618e-06
7.42949e-05
5.87635e-06
6.80045e-05
6.29046e-06
6.12906e-05
6.71388e-06
5.41352e-05
7.15544e-06
4.64811e-05
7.65403e-06
3.82374e-05
8.24378e-06
2.92684e-05
8.96895e-06
1.94156e-05
9.85278e-06
8.46331e-06
1.09523e-05
-3.83188e-06
1.22952e-05
-1.76681e-05
1.38362e-05
-3.30586e-05
1.53905e-05
-4.98337e-05
1.67751e-05
-6.77566e-05
1.7923e-05
-8.6609e-05
1.88523e-05
-0.000106174
1.95653e-05
-0.000126214
2.00394e-05
-0.000146467
2.02536e-05
-0.000166675
2.0208e-05
-0.000186576
1.99006e-05
-0.000205881
1.93054e-05
-0.000224281
1.84001e-05
-0.000241468
1.71866e-05
-0.000257228
1.576e-05
-0.000271556
1.43276e-05
-0.000284604
1.30486e-05
-0.000296591
1.19869e-05
-0.000307706
1.11151e-05
-0.000318102
1.03956e-05
-0.000327867
9.76493e-06
-0.000337046
9.17972e-06
-0.000345678
8.63185e-06
-0.000353799
8.12104e-06
-0.000361435
7.63606e-06
-0.000368622
7.1866e-06
-0.000375379
6.75729e-06
-0.000381727
6.34768e-06
-0.000387682
5.9556e-06
-0.000393265
5.58211e-06
-0.000398488
5.22356e-06
-0.000403371
4.88254e-06
-0.000407915
4.54389e-06
-0.000412129
4.21479e-06
-0.00041602
3.89059e-06
-0.000419594
3.57434e-06
-0.000422861
3.26711e-06
-0.000425817
2.95594e-06
-0.000428464
2.64714e-06
-0.000430803
2.33816e-06
-0.000432834
2.03139e-06
-0.000434562
1.72819e-06
-0.000435994
1.43164e-06
-0.000437134
1.14042e-06
-0.000437993
8.58919e-07
-0.000438593
6.00262e-07
-0.00043895
3.56216e-07
-0.000439086
1.35908e-07
-0.000439021
-6.47504e-08
-0.000438789
-2.31954e-07
-0.000438427
-3.62229e-07
-0.00043798
-4.4638e-07
-0.000437503
-4.76918e-07
-0.000437067
-4.36757e-07
-0.000436762
-3.04543e-07
-0.000436705
-5.71462e-08
-0.000437045
3.4044e-07
-0.000437959
9.13519e-07
-0.000439731
1.77233e-06
-0.000442721
2.99008e-06
-0.000447373
4.65145e-06
-0.000454048
6.67539e-06
-0.000462871
8.82331e-06
-0.000473627
1.07556e-05
-0.000485804
1.21774e-05
-0.000498767
1.29631e-05
-0.000511897
1.313e-05
-0.00052468
1.27825e-05
-0.00053671
1.20301e-05
-0.000547649
1.09388e-05
-0.000557127
9.47815e-06
-0.000564675
7.54799e-06
-0.000569728
5.05351e-06
-0.000571738
2.00927e-06
-0.000570347
-1.3906e-06
-0.000565667
-4.68037e-06
-0.000558289
-7.37741e-06
-0.000548951
-9.33796e-06
-0.000538337
-1.06142e-05
-0.000526933
-1.14046e-05
-0.00051504
-1.18923e-05
-0.000502802
-1.22387e-05
-0.00049026
-1.25418e-05
-0.000477445
-1.28144e-05
-0.000464391
-1.30547e-05
-0.000451129
-1.32614e-05
-0.000437678
-1.34518e-05
-0.000424036
-1.36411e-05
-0.000410203
-1.38334e-05
-0.000396176
-1.40266e-05
-0.000381945
-1.42313e-05
-0.000367501
-1.44445e-05
-0.000352842
-1.46586e-05
-0.000337959
-1.48832e-05
-0.000322858
-1.51013e-05
-0.000307536
-1.53218e-05
-0.000291988
-1.55483e-05
-0.000276193
-1.57941e-05
-0.00026014
-1.60531e-05
-0.000243788
-1.63519e-05
-0.000227104
-1.66847e-05
-0.000210075
-1.70286e-05
-0.000192673
-1.74021e-05
-0.000174879
-1.7794e-05
-0.000156674
-1.82055e-05
-0.000138034
-1.86398e-05
-0.000118912
-1.91216e-05
-9.92743e-05
-1.96378e-05
-7.9097e-05
-2.01773e-05
-5.85089e-05
-2.05881e-05
-3.75119e-05
-2.0997e-05
-1.67857e-05
-2.07262e-05
-1.67857e-05
-2.7259e-06
3.16514e-06
9.8713e-06
-2.89871e-05
2.32871e-05
-3.11446e-05
3.2377e-05
-2.33277e-05
3.72754e-05
-1.56999e-05
3.96736e-05
-1.1117e-05
4.0891e-05
-8.8036e-06
4.14206e-05
-7.41914e-06
4.1211e-05
-6.06869e-06
4.01536e-05
-4.57678e-06
3.81218e-05
-2.92204e-06
3.5057e-05
-1.1558e-06
3.10584e-05
5.13222e-07
2.61052e-05
2.21256e-06
2.02333e-05
3.8674e-06
1.35048e-05
5.45372e-06
5.98576e-06
6.96458e-06
-2.2684e-06
8.37149e-06
-1.11656e-05
9.67389e-06
-2.06184e-05
1.08636e-05
-3.05385e-05
1.19358e-05
-4.0839e-05
1.28865e-05
-5.14229e-05
1.37106e-05
-6.22034e-05
1.44204e-05
-7.30997e-05
1.50247e-05
-8.40275e-05
1.55186e-05
-9.49084e-05
1.59153e-05
-0.000105672
1.62252e-05
-0.000116234
1.6439e-05
-0.000126518
1.6574e-05
-0.000136446
1.66419e-05
-0.000145942
1.6652e-05
-0.000154919
1.66304e-05
-0.000163304
1.66294e-05
-0.000171034
1.6699e-05
-0.000178075
1.68936e-05
-0.00018437
1.72474e-05
-0.000189858
1.77825e-05
-0.000194532
1.85105e-05
-0.000198544
1.94026e-05
-0.000202156
2.03875e-05
-0.000205637
2.1404e-05
-0.000209186
2.24012e-05
-0.000212946
2.33251e-05
-0.000217019
2.41123e-05
-0.000221484
2.47184e-05
-0.000226387
2.51111e-05
-0.000231747
2.52609e-05
-0.00023758
2.51385e-05
-0.000243904
2.47243e-05
-0.000250768
2.40501e-05
-0.000258199
2.31914e-05
-0.000266119
2.22469e-05
-0.000274378
2.13082e-05
-0.000282801
2.041e-05
-0.000291261
1.95748e-05
-0.000299703
1.88378e-05
-0.000308084
1.81453e-05
-0.000316421
1.75169e-05
-0.000324697
1.69075e-05
-0.000332916
1.63408e-05
-0.000341069
1.57888e-05
-0.000349143
1.52609e-05
-0.000357135
1.47489e-05
-0.000365037
1.425e-05
-0.000372833
1.3751e-05
-0.000380498
1.32476e-05
-0.000388018
1.27436e-05
-0.000395377
1.22409e-05
-0.000402571
1.17387e-05
-0.000409566
1.12095e-05
-0.000416353
1.06771e-05
-0.000422912
1.0134e-05
-0.000429221
9.57567e-06
-0.000435263
8.99789e-06
-0.000441015
8.39893e-06
-0.000446449
7.77215e-06
-0.000451553
7.13594e-06
-0.000456299
6.47372e-06
-0.000460661
5.79433e-06
-0.000464619
5.09776e-06
-0.000468144
4.38472e-06
-0.00047123
3.68543e-06
-0.00047385
2.97687e-06
-0.000475989
2.2745e-06
-0.000477658
1.60397e-06
-0.000478834
9.44288e-07
-0.000479526
3.30011e-07
-0.000479735
-2.36944e-07
-0.000479468
-7.44166e-07
-0.000478731
-1.17414e-06
-0.000477539
-1.49638e-06
-0.000475895
-1.70086e-06
-0.0004738
-1.7545e-06
-0.000471277
-1.60977e-06
-0.000468298
-1.20636e-06
-0.000464827
-4.81108e-07
-0.000460821
6.44805e-07
-0.000456262
2.11734e-06
-0.000451245
3.80616e-06
-0.000445931
5.44164e-06
-0.000440442
6.68839e-06
-0.000434743
7.26362e-06
-0.000428557
6.94382e-06
-0.000421459
5.6849e-06
-0.000412985
3.55612e-06
-0.000402771
7.24138e-07
-0.000390452
-2.84082e-06
-0.000376066
-6.83793e-06
-0.000359855
-1.11574e-05
-0.000342295
-1.55505e-05
-0.000323956
-1.97294e-05
-0.00030527
-2.33661e-05
-0.00028647
-2.61773e-05
-0.000267787
-2.80211e-05
-0.000249378
-2.90238e-05
-0.000231364
-2.94186e-05
-0.000213795
-2.94611e-05
-0.000196716
-2.9318e-05
-0.00018018
-2.90772e-05
-0.000164221
-2.87741e-05
-0.000148848
-2.84273e-05
-0.000134061
-2.80487e-05
-0.000119885
-2.76275e-05
-0.000106351
-2.7175e-05
-9.34828e-05
-2.67016e-05
-8.13146e-05
-2.61948e-05
-6.98774e-05
-2.56685e-05
-5.91934e-05
-2.51284e-05
-4.92655e-05
-2.45865e-05
-4.01388e-05
-2.40098e-05
-3.18375e-05
-2.34026e-05
-2.43736e-05
-2.27858e-05
-1.7783e-05
-2.21389e-05
-1.20756e-05
-2.15015e-05
-7.23728e-06
-2.08914e-05
-3.29498e-06
-2.02942e-05
-1.91708e-07
-1.97879e-05
2.1336e-06
-1.93539e-05
3.76055e-06
-1.9029e-05
4.75156e-06
-1.87851e-05
5.18744e-06
-1.86414e-05
5.16766e-06
-1.862e-05
4.72682e-06
-1.86808e-05
3.87176e-06
-1.87828e-05
2.62793e-06
-1.89335e-05
9.72828e-07
-1.8933e-05
-4.77217e-07
-1.95469e-05
1.34596e-07
-2.1338e-05
-1.66511e-05
-3.0852e-06
6.25034e-06
1.17083e-05
-4.37806e-05
2.9258e-05
-4.86944e-05
4.27613e-05
-3.68309e-05
5.11203e-05
-2.4059e-05
5.58286e-05
-1.58252e-05
5.87065e-05
-1.16815e-05
6.07035e-05
-9.41609e-06
6.21185e-05
-7.48374e-06
6.2703e-05
-5.16132e-06
6.23042e-05
-2.52318e-06
6.07322e-05
4.16173e-07
5.79571e-05
3.28833e-06
5.40668e-05
6.10283e-06
4.91079e-05
8.8263e-06
4.31362e-05
1.14255e-05
3.62297e-05
1.38711e-05
2.84643e-05
1.61369e-05
1.99456e-05
1.81925e-05
1.07784e-05
2.00308e-05
1.06808e-06
2.16461e-05
-9.07888e-06
2.30335e-05
-1.95741e-05
2.42058e-05
-3.03307e-05
2.5177e-05
-4.12811e-05
2.59751e-05
-5.23381e-05
2.65757e-05
-6.34534e-05
2.70305e-05
-7.45742e-05
2.7346e-05
-8.56722e-05
2.75369e-05
-9.67272e-05
2.7629e-05
-0.000107715
2.76295e-05
-0.000118627
2.75646e-05
-0.000129467
2.74702e-05
-0.000140211
2.73732e-05
-0.000150836
2.73237e-05
-0.0001613
2.73578e-05
-0.000171546
2.74933e-05
-0.000181481
2.77177e-05
-0.000191005
2.80346e-05
-0.000200067
2.84638e-05
-0.000208673
2.89936e-05
-0.000216842
2.95734e-05
-0.0002246
3.01595e-05
-0.000231986
3.07108e-05
-0.000239055
3.11817e-05
-0.000245883
3.15463e-05
-0.000252564
3.17914e-05
-0.000259199
3.18962e-05
-0.000265899
3.18388e-05
-0.000272787
3.16123e-05
-0.000279953
3.12156e-05
-0.00028741
3.06487e-05
-0.000295122
2.99591e-05
-0.000303007
2.91929e-05
-0.000310986
2.83887e-05
-0.000319006
2.75947e-05
-0.000327017
2.68496e-05
-0.000334991
2.61191e-05
-0.000342922
2.54473e-05
-0.000350788
2.47743e-05
-0.000358577
2.41299e-05
-0.000366283
2.3494e-05
-0.000373887
2.28654e-05
-0.000381389
2.22511e-05
-0.000388743
2.16032e-05
-0.00039595
2.09582e-05
-0.000403004
2.03014e-05
-0.000409888
1.96278e-05
-0.000416575
1.89285e-05
-0.000423055
1.8218e-05
-0.000429329
1.74836e-05
-0.000435351
1.66993e-05
-0.000441116
1.58993e-05
-0.000446607
1.50666e-05
-0.00045181
1.42009e-05
-0.000456726
1.33147e-05
-0.000461305
1.23511e-05
-0.000465538
1.13686e-05
-0.000469413
1.0349e-05
-0.000472928
9.30912e-06
-0.000476046
8.21565e-06
-0.000478749
7.08867e-06
-0.000481027
5.96294e-06
-0.000482874
4.82392e-06
-0.000484262
3.66209e-06
-0.000485204
2.54667e-06
-0.00048567
1.40975e-06
-0.000485647
3.07215e-07
-0.000485133
-7.50954e-07
-0.000484123
-1.75451e-06
-0.00048261
-2.68637e-06
-0.000480571
-3.53527e-06
-0.000477995
-4.27715e-06
-0.000474858
-4.89135e-06
-0.000471112
-5.35611e-06
-0.000466683
-5.63555e-06
-0.000461424
-5.73966e-06
-0.000455137
-5.64275e-06
-0.000447652
-5.36778e-06
-0.000438855
-4.99082e-06
-0.000428748
-4.66512e-06
-0.000417471
-4.588e-06
-0.000405236
-4.97222e-06
-0.000392318
-5.97405e-06
-0.000378967
-7.66614e-06
-0.000365423
-9.98731e-06
-0.000351891
-1.28079e-05
-0.000338671
-1.60607e-05
-0.000325935
-1.95741e-05
-0.000313894
-2.31985e-05
-0.00030268
-2.6765e-05
-0.000292319
-3.00899e-05
-0.000282718
-3.29676e-05
-0.000273662
-3.52335e-05
-0.000264842
-3.68409e-05
-0.000255962
-3.79039e-05
-0.000246776
-3.86045e-05
-0.000237136
-3.91009e-05
-0.000226965
-3.94887e-05
-0.000216228
-3.98145e-05
-0.000204916
-4.00859e-05
-0.000193046
-4.02977e-05
-0.000180655
-4.04398e-05
-0.00016781
-4.0472e-05
-0.000154602
-4.03834e-05
-0.000141154
-4.0149e-05
-0.000127577
-3.97724e-05
-0.000113984
-3.92611e-05
-0.0001005
-3.8613e-05
-8.72426e-05
-3.78435e-05
-7.43099e-05
-3.69425e-05
-6.18222e-05
-3.58903e-05
-4.9899e-05
-3.4709e-05
-3.86618e-05
-3.33762e-05
-2.82484e-05
-3.19149e-05
-1.87698e-05
-3.03701e-05
-1.03474e-05
-2.87165e-05
-3.11165e-06
-2.70237e-05
2.87159e-06
-2.53372e-05
7.55669e-06
-2.37141e-05
1.09428e-05
-2.21711e-05
1.30164e-05
-2.0715e-05
1.38322e-05
-1.94358e-05
1.34588e-05
-1.83074e-05
1.20087e-05
-1.73326e-05
9.50143e-06
-1.64262e-05
6.21654e-06
-1.56481e-05
3.57787e-06
-1.69083e-05
3.537e-06
-2.12971e-05
-1.31142e-05
-2.90581e-06
9.15615e-06
1.31648e-05
-5.98513e-05
3.30234e-05
-6.85529e-05
4.96335e-05
-5.34411e-05
6.1176e-05
-3.56015e-05
6.8634e-05
-2.32831e-05
7.37524e-05
-1.68e-05
7.78153e-05
-1.3479e-05
8.11959e-05
-1.08644e-05
8.38492e-05
-7.81461e-06
8.55182e-05
-4.19217e-06
8.61338e-05
-1.99365e-07
8.55385e-05
3.8836e-06
8.37312e-05
7.91012e-06
8.07489e-05
1.18086e-05
7.66282e-05
1.55462e-05
7.14435e-05
1.90557e-05
6.5263e-05
2.23174e-05
5.8191e-05
2.52645e-05
5.03073e-05
2.79145e-05
4.17238e-05
3.02296e-05
3.25244e-05
3.22329e-05
2.28144e-05
3.39158e-05
1.26636e-05
3.53279e-05
2.19761e-06
3.6441e-05
-8.56594e-06
3.73392e-05
-1.95497e-05
3.80143e-05
-3.0701e-05
3.84973e-05
-4.19769e-05
3.88128e-05
-5.3347e-05
3.89991e-05
-6.47984e-05
3.90809e-05
-7.63305e-05
3.90967e-05
-8.79329e-05
3.90727e-05
-9.95957e-05
3.9036e-05
-0.000111299
3.90265e-05
-0.000123004
3.90632e-05
-0.000134667
3.91567e-05
-0.000146256
3.93068e-05
-0.000157734
3.95123e-05
-0.000169038
3.97671e-05
-0.000180096
4.00518e-05
-0.000190861
4.03385e-05
-0.000201307
4.06061e-05
-0.000211421
4.08242e-05
-0.000221202
4.09632e-05
-0.000230667
4.10113e-05
-0.000239832
4.09562e-05
-0.000248734
4.07978e-05
-0.000257419
4.0524e-05
-0.000265949
4.01429e-05
-0.000274393
3.96591e-05
-0.000282808
3.90643e-05
-0.000291232
3.83829e-05
-0.000299663
3.76233e-05
-0.000308113
3.68391e-05
-0.000316547
3.60282e-05
-0.0003249
3.52029e-05
-0.000333186
3.44051e-05
-0.000341348
3.36094e-05
-0.000349392
3.28183e-05
-0.000357291
3.20284e-05
-0.000365022
3.12254e-05
-0.000372581
3.04238e-05
-0.000379945
2.96155e-05
-0.000387135
2.87933e-05
-0.000394123
2.79466e-05
-0.000400905
2.7083e-05
-0.000407462
2.6185e-05
-0.000413795
2.52611e-05
-0.000419887
2.43102e-05
-0.000425719
2.33158e-05
-0.000431302
2.22821e-05
-0.000436614
2.1211e-05
-0.000441646
2.00986e-05
-0.000446387
1.89425e-05
-0.000450813
1.77407e-05
-0.000454946
1.64839e-05
-0.00045876
1.51823e-05
-0.000462246
1.38348e-05
-0.000465387
1.24504e-05
-0.000468195
1.10235e-05
-0.000470661
9.55497e-06
-0.000472758
8.05984e-06
-0.000474481
6.54747e-06
-0.000475835
5.016e-06
-0.000476766
3.47777e-06
-0.000477306
1.94958e-06
-0.000477424
4.25386e-07
-0.000477106
-1.06972e-06
-0.000476326
-2.53448e-06
-0.000475084
-3.92766e-06
-0.000473348
-5.27179e-06
-0.000471087
-6.53846e-06
-0.000468266
-7.71138e-06
-0.000464848
-8.77452e-06
-0.000460751
-9.73239e-06
-0.000455928
-1.05628e-05
-0.000450285
-1.12854e-05
-0.000443715
-1.19385e-05
-0.000436139
-1.25669e-05
-0.000427534
-1.32697e-05
-0.000417979
-1.4143e-05
-0.000407669
-1.52827e-05
-0.000396867
-1.67753e-05
-0.000385904
-1.86297e-05
-0.000375064
-2.08274e-05
-0.000364561
-2.331e-05
-0.000354617
-2.60056e-05
-0.0003454
-2.87901e-05
-0.000337006
-3.1593e-05
-0.000329451
-3.43199e-05
-0.000322648
-3.68928e-05
-0.000316384
-3.92321e-05
-0.000310331
-4.1286e-05
-0.000304145
-4.30266e-05
-0.000297591
-4.44581e-05
-0.000290574
-4.56217e-05
-0.000283099
-4.65763e-05
-0.000275216
-4.73712e-05
-0.000266971
-4.80596e-05
-0.000258393
-4.86644e-05
-0.000249493
-4.91968e-05
-0.000240272
-4.96613e-05
-0.000230725
-5.00193e-05
-0.000220829
-5.0279e-05
-0.000210586
-5.03918e-05
-0.000199989
-5.03696e-05
-0.000189044
-5.02056e-05
-0.0001778
-4.98577e-05
-0.000166282
-4.93612e-05
-0.000154543
-4.86815e-05
-0.000142641
-4.77925e-05
-0.000130621
-4.67284e-05
-0.000118618
-4.53798e-05
-0.000106691
-4.38413e-05
-9.49845e-05
-4.20769e-05
-8.36183e-05
-4.00827e-05
-7.27411e-05
-3.7901e-05
-6.2474e-05
-3.56043e-05
-5.29713e-05
-3.32168e-05
-4.4341e-05
-3.08014e-05
-3.66353e-05
-2.84207e-05
-2.99014e-05
-2.61697e-05
-2.42294e-05
-2.39794e-05
-1.97613e-05
-2.18008e-05
-1.65845e-05
-1.9603e-05
-1.37189e-05
-1.85137e-05
-8.74326e-06
-2.18839e-05
-6.40752e-07
-2.93996e-05
-1.37549e-05
-3.33025e-06
1.24864e-05
1.31456e-05
-7.63271e-05
3.44195e-05
-8.98269e-05
5.29937e-05
-7.20152e-05
6.64901e-05
-4.90979e-05
7.55125e-05
-3.23056e-05
8.17618e-05
-2.30492e-05
8.66212e-05
-1.83384e-05
9.07263e-05
-1.49695e-05
9.41202e-05
-1.12085e-05
9.66103e-05
-6.68229e-06
9.80023e-05
-1.59136e-06
9.81612e-05
3.72471e-06
9.70495e-05
9.0218e-06
9.46741e-05
1.4184e-05
9.10873e-05
1.91329e-05
8.63386e-05
2.38044e-05
8.05148e-05
2.81412e-05
7.3675e-05
3.21044e-05
6.59548e-05
3.56348e-05
5.7419e-05
3.87654e-05
4.81934e-05
4.14586e-05
3.83539e-05
4.37553e-05
2.80052e-05
4.56766e-05
1.7208e-05
4.72382e-05
6.06323e-06
4.8484e-05
-5.39647e-06
4.9474e-05
-1.70885e-05
5.01893e-05
-2.89757e-05
5.07001e-05
-4.1014e-05
5.10374e-05
-5.31669e-05
5.12337e-05
-6.539e-05
5.13198e-05
-7.76442e-05
5.13269e-05
-8.98986e-05
5.12905e-05
-0.000102096
5.12238e-05
-0.000114188
5.11555e-05
-0.000126128
5.1097e-05
-0.000137864
5.10422e-05
-0.000149362
5.10108e-05
-0.000160596
5.10011e-05
-0.000171545
5.10007e-05
-0.000182213
5.10059e-05
-0.000192611
5.10041e-05
-0.000202758
5.09715e-05
-0.000212684
5.08892e-05
-0.000222411
5.07379e-05
-0.000231966
5.05118e-05
-0.000241349
5.01809e-05
-0.00025059
4.97646e-05
-0.000259683
4.92364e-05
-0.000268637
4.86123e-05
-0.000277475
4.79025e-05
-0.000286223
4.71312e-05
-0.000294902
4.63026e-05
-0.000303502
4.54384e-05
-0.000312015
4.45421e-05
-0.000320445
4.3632e-05
-0.000328753
4.27134e-05
-0.000336929
4.17859e-05
-0.000344974
4.08628e-05
-0.000352864
3.99183e-05
-0.000360586
3.89478e-05
-0.000368134
3.79713e-05
-0.000375495
3.69769e-05
-0.000382681
3.59791e-05
-0.000389644
3.49096e-05
-0.000396419
3.38577e-05
-0.00040296
3.2726e-05
-0.000409277
3.1578e-05
-0.000415378
3.0412e-05
-0.00042122
2.91573e-05
-0.000426815
2.78771e-05
-0.000432153
2.65487e-05
-0.000437224
2.51705e-05
-0.000442027
2.37451e-05
-0.000446545
2.22588e-05
-0.000450768
2.07066e-05
-0.000454692
1.9107e-05
-0.000458311
1.74536e-05
-0.000461609
1.57485e-05
-0.000464609
1.40231e-05
-0.000467259
1.22049e-05
-0.000469563
1.0364e-05
-0.000471511
8.49569e-06
-0.000473096
6.60065e-06
-0.00047429
4.67162e-06
-0.00047511
2.77013e-06
-0.000475495
8.09793e-07
-0.00047545
-1.1141e-06
-0.000474961
-3.0237e-06
-0.000473983
-4.90629e-06
-0.00047251
-6.74475e-06
-0.000470518
-8.53037e-06
-0.000467975
-1.02541e-05
-0.000464841
-1.19084e-05
-0.000461082
-1.34912e-05
-0.00045665
-1.49955e-05
-0.000451497
-1.64381e-05
-0.000445598
-1.78377e-05
-0.000438934
-1.92311e-05
-0.000431533
-2.067e-05
-0.000423475
-2.22015e-05
-0.000414879
-2.38786e-05
-0.000405912
-2.57419e-05
-0.000396732
-2.78103e-05
-0.000387504
-3.00551e-05
-0.000378349
-3.24645e-05
-0.000369377
-3.49782e-05
-0.00036061
-3.75569e-05
-0.000352076
-4.01275e-05
-0.000343755
-4.26404e-05
-0.000335637
-4.50113e-05
-0.000327697
-4.71722e-05
-0.000319911
-4.90717e-05
-0.000312251
-5.06871e-05
-0.000304682
-5.20271e-05
-0.000297175
-5.31279e-05
-0.000289715
-5.40368e-05
-0.00028229
-5.47962e-05
-0.000274911
-5.54389e-05
-0.000267589
-5.59864e-05
-0.000260324
-5.64613e-05
-0.000253104
-5.68814e-05
-0.000245866
-5.72569e-05
-0.000238613
-5.75325e-05
-0.000231263
-5.77419e-05
-0.000223768
-5.78646e-05
-0.000216088
-5.78857e-05
-0.000208165
-5.77806e-05
-0.000199977
-5.75494e-05
-0.000191488
-5.71701e-05
-0.000182664
-5.66161e-05
-0.000173527
-5.58654e-05
-0.000164017
-5.48902e-05
-0.00015418
-5.36785e-05
-0.00014407
-5.21863e-05
-0.00013367
-5.04832e-05
-0.000123058
-4.85132e-05
-0.000112324
-4.63378e-05
-0.000101555
-4.39861e-05
-9.08378e-05
-4.15183e-05
-8.02473e-05
-3.90112e-05
-6.98995e-05
-3.65174e-05
-5.9951e-05
-3.39279e-05
-5.07072e-05
-3.10446e-05
-4.21102e-05
-2.82e-05
-3.266e-05
-2.79639e-05
-1.98893e-05
-3.46545e-05
-5.10738e-06
-4.41816e-05
-1.88623e-05
-4.01557e-06
1.6502e-05
1.25648e-05
-9.29074e-05
3.53862e-05
-0.000112648
5.63001e-05
-9.29292e-05
7.19058e-05
-6.47036e-05
8.23018e-05
-4.27016e-05
8.92445e-05
-2.99919e-05
9.44204e-05
-2.35143e-05
9.87245e-05
-1.92736e-05
0.000102328
-1.48123e-05
0.000105004
-9.35796e-06
0.000106496
-3.08383e-06
0.000106637
3.58456e-06
0.000105342
1.03161e-05
0.000102648
1.68788e-05
9.86017e-05
2.31787e-05
9.32788e-05
2.91274e-05
8.67997e-05
3.46204e-05
7.92876e-05
3.96165e-05
7.08395e-05
4.40828e-05
6.15894e-05
4.80155e-05
5.16446e-05
5.14034e-05
4.10991e-05
5.43007e-05
3.00716e-05
5.67041e-05
1.86464e-05
5.86634e-05
6.89878e-06
6.02316e-05
-5.0546e-06
6.14274e-05
-1.7202e-05
6.23367e-05
-2.94791e-05
6.29771e-05
-4.18345e-05
6.33929e-05
-5.4227e-05
6.36262e-05
-6.66181e-05
6.37108e-05
-7.89767e-05
6.36854e-05
-9.12631e-05
6.35769e-05
-0.000103445
6.34059e-05
-0.000115496
6.32062e-05
-0.000127386
6.29867e-05
-0.000139105
6.27619e-05
-0.000150616
6.25215e-05
-0.000161904
6.22888e-05
-0.000172956
6.20527e-05
-0.000183755
6.18046e-05
-0.000194283
6.15326e-05
-0.000204537
6.12256e-05
-0.000214522
6.08737e-05
-0.000224251
6.04673e-05
-0.000233737
5.99976e-05
-0.000243022
5.94663e-05
-0.000252123
5.88657e-05
-0.000261085
5.81977e-05
-0.000269935
5.74629e-05
-0.000278698
5.66651e-05
-0.000287372
5.5805e-05
-0.000295966
5.48969e-05
-0.000304477
5.39489e-05
-0.000312903
5.29684e-05
-0.000321236
5.19648e-05
-0.000329465
5.09431e-05
-0.000337574
4.98941e-05
-0.000345542
4.88311e-05
-0.000353375
4.77514e-05
-0.000361072
4.66443e-05
-0.00036861
4.55099e-05
-0.00037598
4.43467e-05
-0.000383158
4.31569e-05
-0.000390176
4.19282e-05
-0.000396983
4.06643e-05
-0.000403607
3.935e-05
-0.000410022
3.79934e-05
-0.000416201
3.65911e-05
-0.000422171
3.51271e-05
-0.000427905
3.3611e-05
-0.000433392
3.20362e-05
-0.000438625
3.04033e-05
-0.000443593
2.87127e-05
-0.000448298
2.69638e-05
-0.000452713
2.51215e-05
-0.000456834
2.32277e-05
-0.000460648
2.1268e-05
-0.000464146
1.92468e-05
-0.000467296
1.71733e-05
-0.000470148
1.50568e-05
-0.000472624
1.28402e-05
-0.000474728
1.05989e-05
-0.000476449
8.32192e-06
-0.000477771
5.99358e-06
-0.000478643
3.64207e-06
-0.000479106
1.2728e-06
-0.000479096
-1.12392e-06
-0.000478602
-3.5176e-06
-0.000477609
-5.89944e-06
-0.000476088
-8.26566e-06
-0.000474016
-1.06025e-05
-0.000471368
-1.29022e-05
-0.000468116
-1.51598e-05
-0.00046424
-1.73681e-05
-0.000459707
-1.95285e-05
-0.0004545
-2.16442e-05
-0.000448607
-2.3731e-05
-0.000442032
-2.58064e-05
-0.000434804
-2.78974e-05
-0.000426977
-3.0029e-05
-0.000418623
-3.22329e-05
-0.000409846
-3.4519e-05
-0.00040076
-3.68961e-05
-0.000391468
-3.93468e-05
-0.000382091
-4.18421e-05
-0.000372721
-4.4348e-05
-0.000363444
-4.68334e-05
-0.000354326
-4.92457e-05
-0.000345438
-5.15284e-05
-0.000336801
-5.36487e-05
-0.000328401
-5.55722e-05
-0.000320196
-5.72763e-05
-0.000312134
-5.87495e-05
-0.000304165
-5.99955e-05
-0.000296264
-6.10294e-05
-0.000288431
-6.18699e-05
-0.000280673
-6.2554e-05
-0.000273008
-6.31039e-05
-0.000265447
-6.35473e-05
-0.000258024
-6.38838e-05
-0.000250742
-6.41639e-05
-0.000243641
-6.43575e-05
-0.000236664
-6.45101e-05
-0.000229823
-6.45822e-05
-0.000223067
-6.4621e-05
-0.000216367
-6.45855e-05
-0.000209672
-6.44759e-05
-0.000202938
-6.42839e-05
-0.000196108
-6.39992e-05
-0.000189135
-6.35896e-05
-0.000181941
-6.30593e-05
-0.000174475
-6.2356e-05
-0.000166681
-6.14726e-05
-0.000158482
-6.03849e-05
-0.000149878
-5.90873e-05
-0.00014081
-5.75814e-05
-0.000131282
-5.58664e-05
-0.000121298
-5.39697e-05
-0.000110875
-5.19416e-05
-0.000100038
-4.98478e-05
-8.88601e-05
-4.76954e-05
-7.75058e-05
-4.52822e-05
-6.62071e-05
-4.23433e-05
-5.47474e-05
-3.96597e-05
-4.16976e-05
-4.10137e-05
-2.5388e-05
-5.09642e-05
-7.87899e-06
-6.16906e-05
-2.67413e-05
-5.16997e-06
2.16719e-05
1.11874e-05
-0.000109265
3.5656e-05
-0.000137117
5.95295e-05
-0.000116803
7.81531e-05
-8.33272e-05
9.07779e-05
-5.53264e-05
9.89373e-05
-3.81513e-05
0.000104655
-2.92318e-05
0.000109268
-2.38865e-05
0.000113166
-1.871e-05
0.000116129
-1.23217e-05
0.000117756
-4.71077e-06
0.000117812
3.52856e-06
0.000116182
1.1946e-05
0.000112877
2.0184e-05
0.000108023
2.8033e-05
0.000101758
3.53924e-05
9.42084e-05
4.21697e-05
8.5561e-05
4.8264e-05
7.59756e-05
5.36682e-05
6.56198e-05
5.83712e-05
5.46151e-05
6.24082e-05
4.31097e-05
6.58061e-05
3.12098e-05
6.86041e-05
1.90051e-05
7.0868e-05
6.59469e-06
7.26421e-05
-5.97705e-06
7.39992e-05
-1.8618e-05
7.49777e-05
-3.12918e-05
7.56509e-05
-4.39599e-05
7.6061e-05
-5.65852e-05
7.62515e-05
-6.91408e-05
7.62664e-05
-8.15905e-05
7.61351e-05
-9.39139e-05
7.59004e-05
-0.000106097
7.55888e-05
-0.000118107
7.52165e-05
-0.000129925
7.48044e-05
-0.000141525
7.43625e-05
-0.00015292
7.39164e-05
-0.000164078
7.34466e-05
-0.000174987
7.29614e-05
-0.000185647
7.24644e-05
-0.000196068
7.19536e-05
-0.000206257
7.14147e-05
-0.000216227
7.08441e-05
-0.000225993
7.02331e-05
-0.000235588
6.95925e-05
-0.000245009
6.88873e-05
-0.000254284
6.81412e-05
-0.000263413
6.73267e-05
-0.000272409
6.64582e-05
-0.000281277
6.55332e-05
-0.000290039
6.4567e-05
-0.000298704
6.35623e-05
-0.000307264
6.25092e-05
-0.000315728
6.14319e-05
-0.000324085
6.03219e-05
-0.000332329
5.91868e-05
-0.000340463
5.80284e-05
-0.000348467
5.6835e-05
-0.000356333
5.56175e-05
-0.000364056
5.43677e-05
-0.000371642
5.30952e-05
-0.000379066
5.17707e-05
-0.000386323
5.04144e-05
-0.000393412
4.90167e-05
-0.000400312
4.75649e-05
-0.000407027
4.60647e-05
-0.00041355
4.45164e-05
-0.000419855
4.28965e-05
-0.000425945
4.12163e-05
-0.000431806
3.94725e-05
-0.000437432
3.76621e-05
-0.000442808
3.57793e-05
-0.000447918
3.38228e-05
-0.000452773
3.18186e-05
-0.000457333
2.96812e-05
-0.000461595
2.74898e-05
-0.000465545
2.5218e-05
-0.000469174
2.28758e-05
-0.000472461
2.04601e-05
-0.000475378
1.79743e-05
-0.00047795
1.54119e-05
-0.000480122
1.27715e-05
-0.000481881
1.00809e-05
-0.000483224
7.33616e-06
-0.000484113
4.53134e-06
-0.000484554
1.7139e-06
-0.000484493
-1.18493e-06
-0.000483928
-4.08324e-06
-0.000482832
-6.99508e-06
-0.00048119
-9.90784e-06
-0.000478969
-1.28234e-05
-0.000476159
-1.57126e-05
-0.000472736
-1.85825e-05
-0.000468684
-2.14195e-05
-0.000463987
-2.42253e-05
-0.000458636
-2.69953e-05
-0.000452634
-2.97337e-05
-0.000445994
-3.24457e-05
-0.000438751
-3.51409e-05
-0.000430948
-3.78317e-05
-0.000422661
-4.05203e-05
-0.000413969
-4.3211e-05
-0.00040496
-4.59044e-05
-0.000395732
-4.85747e-05
-0.000386366
-5.12084e-05
-0.000376938
-5.37756e-05
-0.000367519
-5.62532e-05
-0.00035816
-5.86044e-05
-0.000348888
-6.07998e-05
-0.00033972
-6.28172e-05
-0.000330667
-6.46248e-05
-0.000321738
-6.62057e-05
-0.000312932
-6.75551e-05
-0.000304244
-6.86836e-05
-0.000295675
-6.95983e-05
-0.000287222
-7.03233e-05
-0.000278892
-7.08842e-05
-0.000270695
-7.13002e-05
-0.000262643
-7.15993e-05
-0.000254746
-7.17815e-05
-0.000247016
-7.1893e-05
-0.00023944
-7.19343e-05
-0.000232013
-7.19364e-05
-0.000224749
-7.18467e-05
-0.000217648
-7.17218e-05
-0.00021068
-7.15536e-05
-0.000203823
-7.13328e-05
-0.000197043
-7.10637e-05
-0.000190306
-7.07369e-05
-0.000183558
-7.03376e-05
-0.000176757
-6.98604e-05
-0.000169832
-6.92806e-05
-0.000162716
-6.85888e-05
-0.000155331
-6.77694e-05
-0.000147611
-6.68076e-05
-0.000139491
-6.57014e-05
-0.000130909
-6.44481e-05
-0.000121829
-6.305e-05
-0.000112208
-6.15629e-05
-0.00010202
-6.00355e-05
-9.12973e-05
-5.84181e-05
-8.00727e-05
-5.65068e-05
-6.8465e-05
-5.39509e-05
-5.63282e-05
-5.17965e-05
-4.27727e-05
-5.45692e-05
-2.66113e-05
-6.71256e-05
-9.2061e-06
-7.90958e-05
-3.59474e-05
-6.83581e-06
2.85078e-05
8.72871e-06
-0.000124829
3.43451e-05
-0.000162733
6.13004e-05
-0.000143758
8.38483e-05
-0.000105875
9.98462e-05
-7.13243e-05
0.000110223
-4.85279e-05
0.000117212
-3.62208e-05
0.000122646
-2.93208e-05
0.000127225
-2.32893e-05
0.000130808
-1.59045e-05
0.000132901
-6.80334e-06
0.000133051
3.37838e-06
0.000131123
1.38744e-05
0.000127165
2.41414e-05
0.000121339
3.38587e-05
0.000113861
4.28706e-05
0.000105019
5.10115e-05
9.50037e-05
5.82797e-05
8.40419e-05
6.463e-05
7.23365e-05
7.00767e-05
6.00702e-05
7.46745e-05
4.74037e-05
7.84725e-05
3.44567e-05
8.15511e-05
2.13323e-05
8.39923e-05
8.11603e-06
8.58584e-05
-5.11897e-06
8.72342e-05
-1.83336e-05
8.81923e-05
-3.14727e-05
8.879e-05
-4.45046e-05
8.90929e-05
-5.74038e-05
8.91507e-05
-7.01496e-05
8.90122e-05
-8.2735e-05
8.87205e-05
-9.51439e-05
8.83093e-05
-0.000107354
8.77994e-05
-0.00011937
8.72315e-05
-0.000131175
8.66103e-05
-0.000142779
8.59658e-05
-0.000154154
8.52918e-05
-0.000165313
8.46057e-05
-0.000176259
8.39072e-05
-0.000186985
8.31902e-05
-0.000197494
8.24628e-05
-0.00020779
8.17109e-05
-0.000217878
8.09323e-05
-0.000227769
8.01235e-05
-0.000237455
7.9279e-05
-0.000246978
7.841e-05
-0.000256336
7.74994e-05
-0.000265547
7.65376e-05
-0.000274631
7.55426e-05
-0.000283605
7.45064e-05
-0.000292465
7.34272e-05
-0.000301214
7.23116e-05
-0.000309866
7.11615e-05
-0.000318403
6.99682e-05
-0.000326836
6.87548e-05
-0.000335151
6.75018e-05
-0.000343343
6.62213e-05
-0.000351426
6.4918e-05
-0.00035938
6.35707e-05
-0.00036719
6.21785e-05
-0.000374851
6.07553e-05
-0.000382371
5.92908e-05
-0.000389722
5.77655e-05
-0.000396916
5.62105e-05
-0.000403927
5.45765e-05
-0.000410753
5.28901e-05
-0.000417395
5.1159e-05
-0.000423828
4.93292e-05
-0.000430048
4.74367e-05
-0.000436046
4.54707e-05
-0.000441808
4.34232e-05
-0.000447323
4.12948e-05
-0.00045258
3.90795e-05
-0.000457548
3.6787e-05
-0.000462257
3.43897e-05
-0.000466658
3.18905e-05
-0.00047074
2.93008e-05
-0.00047449
2.66253e-05
-0.000477889
2.38597e-05
-0.000480915
2.10004e-05
-0.000483597
1.80931e-05
-0.000485846
1.50214e-05
-0.000487678
1.19127e-05
-0.000489077
8.7349e-06
-0.000490003
5.4576e-06
-0.000490477
2.18732e-06
-0.000490414
-1.24796e-06
-0.000489832
-4.66527e-06
-0.000488705
-8.12135e-06
-0.00048701
-1.1603e-05
-0.000484736
-1.50977e-05
-0.000481844
-1.86044e-05
-0.000478334
-2.20925e-05
-0.000474183
-2.55711e-05
-0.00046939
-2.90181e-05
-0.00046395
-3.24348e-05
-0.000457872
-3.58117e-05
-0.000451173
-3.91451e-05
-0.000443886
-4.24274e-05
-0.000436056
-4.56619e-05
-0.000427739
-4.88372e-05
-0.000418998
-5.1952e-05
-0.000409923
-5.49796e-05
-0.000400586
-5.79119e-05
-0.000391062
-6.0732e-05
-0.000381424
-6.34144e-05
-0.000371741
-6.59362e-05
-0.000362068
-6.82769e-05
-0.000352453
-7.0415e-05
-0.000342933
-7.23373e-05
-0.000333536
-7.40221e-05
-0.000324257
-7.54839e-05
-0.00031511
-7.67027e-05
-0.000306078