/*--------------------------------*- C++ -*----------------------------------*\
| =========                 |                                                 |
| \\      /  F ield         | OpenFOAM: The Open Source CFD Toolbox           |
|  \\    /   O peration     | Version:  v2006                                 |
|   \\  /    A nd           | Website:  www.openfoam.com                      |
|    \\/     M anipulation  |                                                 |
\*---------------------------------------------------------------------------*/
FoamFile
{
    version     2.0;
    format      ascii;
    class       volScalarField;
    location    "3.5";
    object      r;
}
// * * * * * * * * * * * * * * * * * * * * * * * * * * * * * * * * * * * * * //

dimensions      [1 2 0 0 0 0 0];


internalField   nonuniform List<scalar> 
350
(
-5.06442e-12
1.29213e-11
-2.49301e-11
5.08539e-11
-1.01599e-10
2.02489e-10
-4.00763e-10
7.88413e-10
-1.5411e-09
2.99286e-09
-5.77368e-09
1.10628e-08
-2.10502e-08
3.97701e-08
-7.45926e-08
1.38866e-07
-2.56555e-07
4.70289e-07
-8.55194e-07
1.54238e-06
-2.75836e-06
4.89041e-06
-8.59356e-06
1.49633e-05
-2.58102e-05
4.40913e-05
-7.45734e-05
0.00012484
-0.000206789
0.00033881
-0.000548892
0.000878934
-0.00139057
0.00217275
-0.00335132
0.00510035
-0.00765489
0.0113239
-0.016501
0.0236705
-0.0334034
0.0463376
-0.063137
0.084422
-0.110669
0.142077
-0.178417
0.218867
-0.261881
0.305117
-0.345476
0.379293
-0.402696
0.412138
-0.405027
0.380358
-0.339196
0.284844
-0.222576
0.158896
-0.100415
0.0525867
-0.0186211
-0.00107783
0.00874656
-0.00838082
0.00441599
-0.000427966
-0.0016796
0.0017376
-0.000695584
-0.000291293
0.000582032
-0.000247759
-0.00023571
0.000478239
-0.000462479
0.000461808
-0.000743253
0.00136634
-0.00225211
0.00341112
-0.00507244
0.00759696
-0.0113207
0.016546
-0.0236888
0.033371
-0.0463131
0.0631606
-0.0844489
0.11065
-0.142049
0.178435
-0.218896
0.26186
-0.305088
0.345505
-0.379321
0.402653
-0.412117
0.405089
-0.380356
0.339112
-0.284897
0.222663
-0.158754
0.100397
-0.0528274
0.0184168
0.00126904
-0.00817375
0.00874349
-0.00500418
-0.00109914
0.000508361
-0.00048573
0.00532762
0.0062081
0.000416612
-0.0114341
-0.0287743
-0.0389817
-0.0210437
0.0501274
0.202906
0.462377
0.843904
1.35118
1.97526
2.6949
3.48022
4.29734
5.11224
5.89424
6.61895
7.26955
7.8366
8.31734
8.71458
9.03508
9.28788
9.48296
9.63047
9.73994
9.81974
9.87683
9.91694
9.94472
9.96376
9.9766
9.98502
9.9904
9.99391
9.99634
9.99799
9.99884
9.99899
9.99894
9.99935
10.0004
10.0014
10.0011
9.99873
9.99534
9.9941
9.99895
10.0118
10.0289
10.0387
10.0212
9.94996
9.79696
9.53765
9.15618
8.64876
8.02471
7.30516
6.51978
5.70261
4.88778
4.10579
3.38102
2.73043
2.16343
1.68268
1.2854
0.9649
0.712154
0.517063
0.369504
0.26003
0.180289
0.123215
0.0830432
0.0552183
0.0362396
0.0234844
0.0150327
0.00950863
0.0059453
0.0036758
0.00224797
0.00136027
0.000814674
0.000483045
0.000283631
0.000164966
9.50647e-05
5.42912e-05
3.07344e-05
1.72505e-05
9.60168e-06
5.30094e-06
2.90337e-06
1.57788e-06
8.5104e-07
4.5562e-07
2.42161e-07
1.27798e-07
6.6978e-08
3.4865e-08
1.80285e-08
9.26201e-09
4.72804e-09
2.39853e-09
1.20935e-09
6.0611e-10
3.01993e-10
1.49602e-10
7.36917e-11
3.60984e-11
1.7587e-11
8.52253e-12
4.10831e-12
1.97023e-12
9.40084e-13
4.46326e-13
2.10868e-13
9.91462e-14
4.63965e-14
2.16108e-14
1.002e-14
4.62493e-15
2.12528e-15
9.72368e-16
4.42973e-16
2.00949e-16
9.07783e-17
4.08409e-17
1.83e-17
8.1672e-18
3.6307e-18
1.60777e-18
7.09249e-19
3.11701e-19
1.36478e-19
5.95387e-20
2.588e-20
1.12094e-20
4.83804e-21
2.08089e-21
8.91949e-22
3.81031e-22
1.6223e-22
6.8844e-23
2.91197e-23
1.22775e-23
5.16e-24
2.16185e-24
9.02927e-25
3.75964e-25
1.56071e-25
6.45948e-26
2.66553e-26
1.09672e-26
4.49936e-27
1.8406e-27
7.50822e-28
3.05419e-28
1.23894e-28
5.01199e-29
2.02204e-29
8.13586e-30
3.26483e-30
1.30669e-30
5.21617e-31
2.07687e-31
8.24816e-32
3.26742e-32
1.29111e-32
5.08913e-33
2.00104e-33
7.84889e-34
3.07123e-34
1.19889e-34
4.6689e-35
1.81397e-35
7.03131e-36
2.71919e-36
1.04918e-36
4.039e-37
1.5514e-37
5.94571e-38
2.27366e-38
8.67551e-39
3.30309e-39
1.2549e-39
4.75743e-40
1.79975e-40
6.79423e-41
2.55954e-41
9.6224e-42
3.61005e-42
1.35163e-42
5.05038e-43
1.88329e-43
7.00885e-44
2.60326e-44
9.65016e-45
3.57031e-45
1.31837e-45
4.85885e-46
1.78732e-46
6.56219e-47
2.4048e-47
8.79624e-48
3.21152e-48
1.17037e-48
4.25739e-49
1.54587e-49
5.60298e-50
2.02715e-50
7.32117e-51
2.6394e-51
9.49875e-52
3.41247e-52
1.22382e-52
4.38143e-53
1.56592e-53
5.58706e-54
1.99004e-54
7.07633e-55
2.51205e-55
8.90282e-56
3.14983e-56
1.11303e-56
3.91389e-57
1.41033e-57
4.03684e-58
)
;

boundaryField
{
    right
    {
        type            zeroGradient;
    }
    left
    {
        type            inletOutlet;
        inletValue      uniform 0;
        value           uniform 0;
    }
    top
    {
        type            zeroGradient;
    }
    bottom
    {
        type            zeroGradient;
    }
    empty
    {
        type            empty;
    }
}


// ************************************************************************* //
