/*--------------------------------*- C++ -*----------------------------------*\
| =========                 |                                                 |
| \\      /  F ield         | OpenFOAM: The Open Source CFD Toolbox           |
|  \\    /   O peration     | Version:  v2006                                 |
|   \\  /    A nd           | Website:  www.openfoam.com                      |
|    \\/     M anipulation  |                                                 |
\*---------------------------------------------------------------------------*/
FoamFile
{
    version     2.0;
    format      ascii;
    class       volScalarField;
    location    "0";
    object      f;
}
// * * * * * * * * * * * * * * * * * * * * * * * * * * * * * * * * * * * * * //

dimensions      [0 0 0 0 0 0 0];


internalField   nonuniform List<scalar> 
2500
(
2.0176e-34
6.99298e-29
-2.21442e-24
6.61304e-22
7.70778e-20
-1.54979e-18
-1.80978e-17
4.50979e-16
-3.34075e-17
-8.02758e-16
9.28498e-14
-8.8687e-12
4.0047e-10
-9.34762e-09
1.0581e-07
-5.81494e-08
-3.51396e-06
5.74818e-05
-1.43586e-05
-0.00173383
0.00209572
0.048295
0.141431
0.211498
0.201067
0.113617
0.0315671
0.000212707
-0.00110459
-0.000571404
-6.07162e-05
2.59042e-05
1.08703e-05
-5.88312e-07
-1.08254e-06
-2.55846e-07
1.55758e-08
1.22703e-08
2.57681e-09
1.72609e-10
2.57076e-11
-3.10066e-12
-2.18056e-12
-5.00148e-13
-1.69998e-15
1.52378e-15
3.13638e-16
3.74107e-17
-1.20063e-17
-3.47079e-18
1.46931e-32
3.68016e-27
-3.81308e-23
4.16965e-21
7.84342e-19
-6.39368e-18
-1.02475e-16
3.45003e-15
-8.30893e-14
1.56357e-12
-1.46591e-11
-1.50829e-11
8.544e-10
-2.98973e-08
5.48422e-07
-3.90952e-06
-4.26686e-06
0.000173227
-0.000712875
-0.00320969
0.0155378
0.0946351
0.193288
0.230009
0.177616
0.0910496
0.0237916
0.000154315
-0.000804762
-0.000318342
3.49547e-06
2.2836e-05
5.97048e-06
-1.07626e-06
-6.59915e-07
-9.444e-08
1.41763e-10
-1.1004e-09
-1.27922e-10
1.51962e-10
4.28592e-11
1.0513e-12
-6.28047e-13
-1.80455e-13
-2.50391e-15
5.88219e-17
-4.14601e-17
-3.1328e-17
-1.82317e-17
-2.7696e-18
7.30053e-31
1.37628e-25
-5.14555e-22
2.12983e-21
6.06616e-18
-1.63171e-17
-4.4457e-16
1.93214e-14
-5.55887e-13
1.27139e-11
-2.37934e-10
2.37403e-09
-4.9261e-09
-4.07396e-08
1.25743e-06
-1.72431e-05
4.26227e-05
0.00031956
-0.00264302
-0.00453791
0.0412613
0.169566
0.311027
0.353966
0.275536
0.137534
0.0344014
-0.000265117
-0.00132299
-0.000475662
2.07862e-05
4.75117e-05
9.8361e-06
-1.68553e-06
-1.10599e-06
-1.75686e-07
1.46398e-09
1.66739e-09
6.5177e-10
2.27843e-10
6.50635e-11
5.66429e-13
-1.37375e-12
-3.28791e-13
-1.43814e-15
5.38561e-16
-1.22167e-18
-3.34687e-17
-2.25895e-17
-3.92225e-18
2.99069e-29
4.5138e-24
-6.47095e-21
-3.06376e-19
4.1706e-17
-2.67493e-17
-1.06703e-15
4.0156e-14
-1.14883e-12
3.26381e-11
-8.61529e-10
1.57507e-08
-1.62183e-07
6.41856e-07
1.66851e-06
-4.39454e-05
0.000263066
0.000383453
-0.00651374
-0.0042131
0.0841347
0.272337
0.443877
0.464058
0.334691
0.154961
0.0351396
-0.00115685
-0.00159668
-0.000410738
0.000104446
7.08318e-05
9.46685e-06
-2.47638e-06
-1.22979e-06
-1.51095e-07
-7.23786e-09
-2.55815e-09
-1.57788e-11
2.57418e-10
8.55482e-11
2.00331e-12
-1.31514e-12
-2.95797e-13
1.19076e-15
9.14733e-16
3.92017e-17
-3.02693e-17
-2.66616e-17
-5.40933e-18
6.06986e-28
1.36807e-22
-7.46281e-20
-5.42493e-18
3.04323e-16
-2.6089e-15
6.28271e-14
-1.21102e-12
1.32699e-11
-1.33724e-11
-1.40605e-09
4.39845e-08
-6.80215e-07
5.19329e-06
-1.10286e-05
-7.29588e-05
0.000768686
-0.000431558
-0.0129146
0.00395792
0.146295
0.398369
0.58685
0.572294
0.386414
0.16637
0.0326447
-0.00243217
-0.00191207
-0.000254233
0.000203347
9.95353e-05
8.11307e-06
-3.06917e-06
-1.3282e-06
-1.41334e-07
-1.48463e-08
-4.39053e-09
-3.24296e-11
2.66793e-10
8.69442e-11
8.01608e-13
-1.58812e-12
-2.56753e-13
7.66684e-15
1.69117e-15
1.15886e-16
-1.91097e-17
-3.08761e-17
-7.40672e-18
-6.4237e-26
3.90777e-21
-7.61901e-19
-6.5627e-17
3.32626e-15
-8.51355e-14
1.70786e-12
-2.79102e-11
3.56671e-10
-3.13167e-09
1.22072e-08
6.41036e-08
-1.5541e-06
1.60945e-05
-7.1646e-05
-6.41619e-05
0.00166236
-0.00358884
-0.0217
0.0211288
0.226928
0.536906
0.719046
0.656065
0.409995
0.160773
0.0222679
-0.00380024
-0.00202446
9.01381e-05
0.000337782
0.000119921
3.26859e-06
-3.49636e-06
-1.22493e-06
-9.90632e-08
-2.34353e-08
-7.44589e-09
-2.52421e-10
2.48758e-10
7.37747e-11
-1.72677e-12
-1.75384e-12
-1.33195e-13
1.71983e-14
2.83253e-15
2.23875e-16
-2.40117e-18
-3.6642e-17
-1.02442e-17
-1.256e-23
1.06121e-19
-6.57748e-18
-4.15103e-16
1.57128e-14
-3.5308e-13
6.49682e-12
-1.02418e-10
1.36933e-09
-1.43629e-08
1.09843e-07
-3.36245e-07
-2.01541e-06
3.18393e-05
-0.000208291
0.000302098
0.00280948
-0.00952974
-0.0314375
0.0459079
0.319701
0.670834
0.823332
0.698284
0.404241
0.132904
0.0085169
-0.00474852
-0.0016734
0.000560476
0.000486608
0.000124113
-2.22152e-06
-3.70563e-06
-8.92431e-07
-6.03853e-08
-3.13667e-08
-1.06267e-08
-3.76603e-10
2.09865e-10
4.76212e-11
-4.75189e-12
-1.84062e-12
1.88555e-14
3.317e-14
4.03038e-15
3.51498e-16
1.36201e-17
-4.64828e-17
-1.44412e-17
-1.51632e-21
2.76401e-18
-5.72204e-17
-9.08157e-16
2.67123e-14
-5.47042e-13
9.72362e-12
-1.54132e-10
2.21382e-09
-2.99302e-08
3.43089e-07
-2.4503e-06
5.84867e-06
3.9158e-05
-0.000433226
0.00126326
0.00368952
-0.0187087
-0.0402748
0.0783698
0.41402
0.780421
0.881782
0.695537
0.35387
0.0904442
-0.00392795
-0.0054385
-0.000587977
0.00110137
0.000625502
0.000107754
-6.28445e-06
-3.55123e-06
-4.32972e-07
-3.16673e-08
-3.86262e-08
-1.34123e-08
-4.67589e-10
1.66451e-10
2.37432e-11
-6.13358e-12
-1.37472e-12
1.91937e-13
5.7718e-14
4.76731e-15
5.00758e-16
1.89185e-17
-6.39745e-17
-2.06875e-17
-1.53503e-19
7.40125e-17
-3.04799e-15
7.25794e-14
-1.35535e-12
1.97754e-11
-2.2834e-10
1.9416e-09
-9.38441e-09
-1.56731e-08
5.61257e-07
-7.13735e-06
3.97289e-05
-3.16034e-05
-0.000679131
0.00297418
0.00370345
-0.0308664
-0.0464911
0.116442
0.496961
0.848251
0.88566
0.63079
0.272099
0.0441374
-0.0110664
-0.00567953
0.000884388
0.00161398
0.000678206
6.87689e-05
-6.61443e-06
-2.14741e-06
7.52355e-08
-1.64663e-08
-4.5218e-08
-1.46916e-08
-3.60509e-10
1.39283e-10
6.96596e-12
-5.81601e-12
-1.92029e-13
3.8771e-13
7.49099e-14
5.24963e-15
6.751e-16
-4.05947e-19
-9.32923e-17
-2.97317e-17
-1.07389e-17
1.14937e-15
-3.2099e-14
6.34001e-13
-1.06761e-11
1.52616e-10
-1.84515e-09
1.80433e-08
-1.27411e-07
5.55283e-07
-1.08417e-07
-1.22883e-05
0.000108475
-0.000301693
-0.000765279
0.00548335
0.00139737
-0.0446111
-0.0487303
0.154768
0.555831
0.861315
0.825563
0.514592
0.177144
0.00464225
-0.0129888
-0.00375259
0.00244201
0.00199162
0.000607015
2.31044e-05
-4.30733e-06
1.06505e-07
5.40442e-07
3.31831e-09
-5.19556e-08
-1.44458e-08
-2.38506e-12
1.40158e-10
-2.04015e-12
-3.94338e-12
1.17527e-12
5.83049e-13
6.84925e-14
5.82092e-15
8.02764e-16
-6.30231e-17
-1.38283e-16
-4.21524e-17
-1.06154e-16
3.78475e-15
-7.81815e-14
1.37397e-12
-2.27538e-11
3.51113e-10
-4.76212e-09
5.16285e-08
-4.09769e-07
2.37356e-06
-7.53169e-06
-1.05866e-05
0.000198239
-0.000801393
-0.00031843
0.00845124
-0.0027632
-0.0575226
-0.0472305
0.187169
0.582221
0.811839
0.702873
0.37182
0.086811
-0.0190791
-0.0129889
0.000317935
0.00374779
0.00215166
0.000433366
-8.34991e-06
-2.07064e-06
2.3314e-06
8.73436e-07
-3.16869e-08
-5.80207e-08
-1.09292e-08
4.85077e-10
1.64761e-10
-7.11574e-12
-1.16556e-12
2.24507e-12
6.94327e-13
4.32824e-14
6.21326e-15
8.02718e-16
-1.88025e-16
-2.00963e-16
-5.80297e-17
1.71421e-16
-1.68054e-14
5.11553e-13
-7.74012e-12
6.35803e-11
-1.02178e-10
-4.66245e-09
7.2443e-08
-7.02007e-07
5.53157e-06
-2.67994e-05
4.38391e-05
0.000254837
-0.00150964
0.00089839
0.0112894
-0.00853893
-0.0686245
-0.0424372
0.209064
0.576463
0.707131
0.534222
0.226285
0.0156534
-0.0256444
-0.0105944
0.00379998
0.00439503
0.00185566
0.00020985
-1.35591e-05
1.95652e-06
4.12759e-06
9.38125e-07
-1.09976e-07
-6.27688e-08
-5.21403e-09
8.63818e-10
1.62455e-10
-1.41128e-11
1.43334e-12
2.7334e-12
5.19775e-13
6.30632e-15
4.86691e-15
5.55331e-16
-3.88499e-16
-2.79513e-16
-7.66019e-17
9.03102e-14
-9.51891e-13
1.28963e-11
-1.43778e-10
1.35725e-09
-1.05077e-08
5.83824e-08
-1.83664e-07
-4.18158e-07
8.28626e-06
-6.06939e-05
0.000174791
0.000163226
-0.00226541
0.00274184
0.0134225
-0.015595
-0.0770506
-0.0352819
0.21852
0.521998
0.558889
0.356446
0.100657
-0.0279042
-0.0242347
-0.00284245
0.0061353
0.00437469
0.00118448
7.18244e-06
-6.2375e-06
9.04816e-06
5.26532e-06
5.73188e-07
-1.59909e-07
-5.54899e-08
6.99371e-10
1.11302e-09
3.38285e-11
-2.74845e-11
2.08065e-12
2.1506e-12
7.49847e-14
-3.42913e-14
5.8381e-16
-3.42304e-16
-6.69319e-16
-3.6562e-16
-9.6067e-17
7.04892e-13
-4.24122e-12
4.70624e-11
-4.7711e-10
4.52233e-09
-3.87013e-08
2.64068e-07
-1.38356e-06
4.00708e-06
5.75168e-06
-9.87127e-05
0.000396237
-0.000247249
-0.00283746
0.00524932
0.0144325
-0.0228057
-0.0819022
-0.027158
0.215062
0.423989
0.392188
0.19543
0.00906323
-0.0417985
-0.0200189
0.00364825
0.00676247
0.00333045
0.000470024
-7.51123e-05
-3.76071e-06
1.46486e-05
5.36981e-06
2.05278e-08
-1.64365e-07
-2.40033e-08
5.50498e-09
1.31899e-09
-1.49647e-10
-4.90219e-11
1.42923e-12
5.2044e-13
-3.47214e-13
-7.35419e-14
-2.83689e-15
-1.75531e-15
-9.93194e-16
-4.4283e-16
-1.13772e-16
1.81076e-12
-7.01429e-12
6.97069e-11
-6.72823e-10
6.38619e-09
-6.11822e-08
5.25026e-07
-3.55542e-06
1.46474e-05
-2.20944e-05
-0.000111212
0.000658551
-0.000889713
-0.00298912
0.00811616
0.0140471
-0.0293017
-0.0833041
-0.0189282
0.185747
0.301365
0.236568
0.0667383
-0.0436331
-0.040072
-0.0102056
0.0065143
0.00545561
0.00151672
-0.000125877
-6.76754e-05
1.6373e-05
1.73404e-05
3.52196e-06
-3.66447e-07
-1.63134e-07
8.95038e-09
7.76193e-09
5.29475e-10
-3.07275e-10
-5.8622e-11
5.98459e-13
-9.42117e-13
-5.50948e-13
-7.45212e-14
-4.68359e-15
-2.84828e-15
-1.23186e-15
-4.92501e-16
-1.27012e-16
-6.07686e-12
9.97869e-11
-1.15849e-09
9.08849e-09
-4.56373e-08
9.88121e-08
4.9774e-07
-5.42275e-06
2.97917e-05
-7.75633e-05
-4.00819e-05
0.000855553
-0.00172046
-0.00265399
0.0107618
0.0125378
-0.0344784
-0.080733
-0.0121526
0.136698
0.185477
0.100298
-0.019534
-0.0579729
-0.0315737
-0.000371503
0.00667728
0.0031825
9.10839e-06
-0.000350198
-5.22875e-05
3.83044e-05
1.79502e-05
1.07514e-06
-4.56404e-07
-7.43765e-08
3.12651e-08
8.52685e-09
-9.13275e-10
-4.03385e-10
-2.11557e-11
2.44562e-12
-9.23738e-13
-3.90315e-13
-1.57491e-14
-5.39697e-15
-3.24723e-15
-1.29084e-15
-5.03435e-16
-1.33982e-16
-2.23413e-10
1.09733e-09
-8.78221e-09
5.5192e-08
-2.72148e-07
9.8032e-07
-1.84853e-06
-4.23683e-06
4.23803e-05
-0.000158602
0.000139769
0.000886502
-0.00256743
-0.00189075
0.0124834
0.0111788
-0.0377282
-0.0727334
-0.0107848
0.0813848
0.0821983
0.00495002
-0.059419
-0.0503616
-0.0162878
0.00492888
0.00454331
0.000517481
-0.000832224
-0.000321497
1.91283e-05
4.21144e-05
1.09692e-05
-8.45931e-07
-3.69768e-07
7.10309e-08
4.34852e-08
3.80406e-09
-1.64238e-09
-3.77815e-10
3.57625e-11
1.12473e-11
7.40754e-13
1.60586e-13
2.80152e-14
-4.70307e-15
-3.07202e-15
-1.17255e-15
-4.75996e-16
-1.3422e-16
-1.12195e-09
3.47987e-09
-2.42509e-08
1.39612e-07
-6.79644e-07
2.71671e-06
-7.75795e-06
9.60227e-06
4.3091e-05
-0.000239003
0.000409473
0.000670457
-0.00325824
-0.000856125
0.0139445
0.00908456
-0.0383521
-0.0609228
-0.0154771
0.0277374
0.00817352
-0.0447602
-0.0609366
-0.0330216
-0.00171883
0.00578686
0.00166396
-0.00141143
-0.00101751
-0.000186918
7.14187e-05
3.5071e-05
5.52167e-07
-1.75374e-06
-2.07276e-07
1.38444e-07
4.07327e-08
-4.16822e-09
-1.889e-09
1.35626e-11
9.11706e-11
2.02017e-11
2.44704e-12
5.05147e-13
1.95544e-14
-6.58884e-15
-2.30083e-15
-8.91205e-16
-4.18173e-16
-1.28554e-16
-2.45369e-09
5.28129e-09
-3.4434e-08
1.94245e-07
-1.00951e-06
4.61589e-06
-1.61177e-05
3.53845e-05
-6.63843e-07
-0.00027685
0.000696714
0.000291137
-0.00375125
0.000395637
0.0147785
0.00694003
-0.0342246
-0.0464534
-0.0206139
-0.0089644
-0.0312082
-0.0561572
-0.0422901
-0.0114763
0.00599727
0.00351325
-0.00123528
-0.00203326
-0.000803613
1.50585e-06
6.38226e-05
1.15194e-05
-5.53705e-06
-1.66235e-06
2.54565e-07
1.52787e-07
8.17809e-09
-7.47996e-09
-1.46078e-09
3.83156e-10
1.3222e-10
1.59112e-11
2.63334e-12
4.00756e-13
-2.79849e-14
-7.77318e-15
-6.86284e-16
-5.32928e-16
-3.46965e-16
-1.18983e-16
-1.13426e-09
-2.96705e-09
1.69025e-08
-8.28253e-09
-6.02737e-07
5.01027e-06
-2.26146e-05
6.63922e-05
-7.40897e-05
-0.000230929
0.000929275
-0.000204697
-0.00402663
0.001557
0.0148319
0.00523417
-0.0251159
-0.0314353
-0.0208188
-0.0231637
-0.040883
-0.0412103
-0.0173282
0.00480163
0.00677141
0.000329552
-0.00296628
-0.00189781
-0.000347887
9.90969e-05
3.13423e-05
-1.40726e-05
-7.58312e-06
-5.49425e-07
4.92785e-07
1.36174e-07
-1.81134e-08
-7.26277e-09
7.86462e-10
5.77109e-10
1.00173e-10
1.52657e-12
7.98922e-13
3.97602e-14
-4.10982e-14
-1.80922e-15
1.80851e-15
-2.32856e-16
-2.86533e-16
-1.08341e-16
2.52643e-08
-5.19555e-08
2.67037e-07
-9.43469e-07
2.14195e-06
-2.98098e-07
-2.26892e-05
9.18976e-05
-0.00017374
-0.000102049
0.00108639
-0.000725739
-0.0041825
0.00240455
0.0136262
0.0049785
-0.0142145
-0.0167235
-0.0156702
-0.0228473
-0.0288851
-0.0157916
0.00365146
0.0104407
0.00379511
-0.0025223
-0.00293903
-0.00106652
4.08736e-05
7.16895e-05
-1.06168e-05
-2.08019e-05
-5.24952e-06
1.01336e-06
4.9804e-07
1.96815e-09
-2.59243e-08
-2.42063e-09
2.18218e-09
5.93676e-10
-2.37173e-11
-1.51293e-11
-2.04091e-12
-2.14823e-13
1.65731e-14
2.65017e-14
4.49039e-15
-2.21172e-16
-2.61166e-16
-9.90049e-17
9.0326e-08
-1.29768e-07
6.47094e-07
-2.37438e-06
6.88264e-06
-1.34051e-05
-1.94052e-08
9.9969e-05
-0.000275261
7.79724e-05
0.001179
-0.00117779
-0.00422013
0.00267111
0.0113078
0.00617429
-0.00297073
-0.00335192
-0.00553215
-0.0114412
-0.00836597
0.00421528
0.0128867
0.00833331
-0.000151835
-0.00333853
-0.00179426
-9.38603e-05
0.000194521
1.59852e-05
-4.49991e-05
-1.88143e-05
5.90931e-07
1.57011e-06
3.06638e-07
-7.93587e-08
-2.17066e-08
5.50492e-09
2.42714e-09
6.01827e-11
-1.15946e-10
-2.79507e-11
-2.5574e-12
-4.40983e-14
1.42134e-13
5.58709e-14
4.89506e-15
-4.85887e-16
-2.67492e-16
-9.07459e-17
1.26977e-07
-1.59777e-07
7.96475e-07
-3.24533e-06
1.13239e-05
-2.97963e-05
3.77069e-05
6.74744e-05
-0.000355036
0.000263436
0.00122028
-0.00149922
-0.00398623
0.00204031
0.00825114
0.00745211
0.00621232
0.00680548
0.00440424
0.00205154
0.00651295
0.012904
0.0115285
0.00318692
-0.00248307
-0.00209028
-0.000246434
0.000414171
0.000128263
-5.3919e-05
-4.32166e-05
-5.90277e-06
3.55199e-06
1.13702e-06
-1.82195e-07
-9.83049e-08
-3.75752e-10
7.60857e-09
1.24456e-09
-4.67571e-10
-1.53495e-10
-1.61886e-11
-6.68855e-13
4.21762e-13
2.49777e-13
5.91155e-14
9.56628e-16
-7.31325e-16
-2.70008e-16
-8.02697e-17
-1.44582e-07
2.80408e-08
-9.41213e-08
-1.81016e-06
1.24891e-05
-4.25442e-05
7.75481e-05
1.81698e-05
-0.000394696
0.000427888
0.00121588
-0.00159507
-0.0035358
0.000294984
0.00487738
0.00781907
0.011369
0.0124073
0.0096988
0.00872315
0.0110213
0.0112834
0.00514245
-0.000990956
-0.00213566
-0.000233156
0.000811051
0.000431586
-4.83619e-06
-8.24648e-05
-2.42029e-05
6.2821e-06
3.33858e-06
3.09714e-09
-3.45368e-07
-6.83645e-08
1.93551e-08
5.37642e-09
-1.32197e-09
-6.41964e-10
-8.76165e-11
6.81245e-12
1.97532e-12
6.95428e-13
2.43513e-13
2.38548e-14
-4.64882e-15
-1.00969e-15
-2.3708e-16
-6.44296e-17
-9.67072e-07
5.99736e-07
-2.54519e-06
3.7088e-06
5.67145e-06
-4.82038e-05
0.000116227
-4.42637e-05
-0.000418881
0.000550052
0.00119189
-0.00135211
-0.00311011
-0.00164055
0.00177689
0.0072863
0.0125781
0.0129967
0.00997008
0.0082468
0.00742912
0.00394286
-0.000626062
-0.00209634
-0.000214161
0.00120598
0.000919747
0.000183555
-0.000101853
-5.01671e-05
4.64125e-06
8.01006e-06
1.06271e-06
-8.73564e-07
-2.64314e-07
4.00999e-08
2.17779e-08
-4.2606e-10
-2.13972e-09
-4.67601e-10
5.09775e-11
1.85244e-11
3.24347e-12
6.20497e-13
7.68244e-14
-2.46795e-14
-7.31413e-15
-8.84701e-16
-1.56046e-16
-4.33586e-17
-1.46258e-06
1.64008e-06
-5.05267e-06
1.1291e-05
-7.6837e-06
-3.95454e-05
0.000144219
-0.000100259
-0.000435964
0.000595386
0.00116226
-0.000715915
-0.00283542
-0.00313445
-0.000293655
0.00596754
0.0106533
0.00972261
0.00606132
0.00299884
0.000459571
-0.00225618
-0.00300798
-0.000956908
0.00118183
0.00142121
0.000527928
-6.16548e-05
-8.04375e-05
-4.03394e-07
1.83787e-05
4.39701e-06
-1.75178e-06
-8.60833e-07
-1.3315e-08
7.27468e-08
1.12599e-08
-5.27117e-09
-1.56095e-09
1.85094e-10
1.06419e-10
1.77177e-11
8.69061e-13
1.95044e-13
-6.96728e-14
-4.04869e-14
-7.25807e-15
-2.53783e-16
-4.05116e-17
-2.10645e-17
3.03468e-06
4.51205e-06
-5.36427e-06
1.88863e-05
-2.5044e-05
-2.31981e-05
0.000161766
-0.00014223
-0.000447366
0.000533905
0.00119102
-5.24785e-05
-0.00257233
-0.00376399
-0.000961059
0.0047344
0.00718416
0.00477399
0.000616546
-0.00249205
-0.00450198
-0.004879
-0.00283151
7.45322e-05
0.00127922
0.000734527
4.10883e-05
-9.27061e-05
4.61109e-06
3.72282e-05
1.32648e-05
-2.10658e-06
-2.25682e-06
-3.11717e-07
1.84963e-07
5.08935e-08
-1.00244e-08
-4.59719e-09
2.20412e-10
4.60845e-10
9.40654e-11
-5.3219e-12
-1.58029e-12
-2.46924e-13
-1.1098e-13
-2.84888e-14
-7.94483e-16
4.13424e-16
5.64374e-17
-5.41951e-18
1.33972e-05
7.8378e-06
-2.15233e-06
2.34933e-05
-4.2151e-05
-7.22714e-06
0.000176254
-0.000161408
-0.000456023
0.000392679
0.00124776
0.000328136
-0.00226889
-0.00328756
-0.00022489
0.00408323
0.00408679
0.000903043
-0.00267633
-0.0051335
-0.00609211
-0.00520477
-0.00255564
-0.000262243
0.000153748
-6.9937e-05
-0.000127384
2.06179e-05
7.03399e-05
3.41064e-05
-3.34434e-07
-5.17302e-06
-1.25012e-06
3.7266e-07
1.68461e-07
-2.87946e-09
-1.41032e-08
-1.32198e-09
1.34453e-09
3.60627e-10
-2.88486e-11
-1.64497e-11
-2.58641e-12
-3.15144e-13
-6.47332e-14
5.8689e-15
5.35467e-15
8.41246e-16
8.54734e-17
-2.81936e-18
2.01167e-05
4.36351e-06
-9.27985e-07
1.98276e-05
-5.8763e-05
7.21154e-06
0.000188473
-0.000160107
-0.000466964
0.000276217
0.00121693
0.00028735
-0.00187065
-0.00155575
0.00165904
0.0037317
0.00241871
-0.000655955
-0.00327686
-0.00532825
-0.00628914
-0.00564942
-0.00392447
-0.00218436
-0.00110736
-0.000422026
1.66944e-06
0.000120295
7.18748e-05
6.25528e-06
-9.58009e-06
-3.37274e-06
5.11014e-07
4.68298e-07
5.01142e-08
-3.89798e-08
-8.22256e-09
2.67185e-09
9.40565e-10
-8.35918e-11
-8.62929e-11
-1.62053e-11
1.41592e-13
-5.42389e-14
1.16826e-14
2.52383e-14
6.71936e-15
6.38594e-16
3.53437e-17
-1.23345e-17
-6.85123e-06
-2.14999e-05
-1.24703e-05
8.46198e-06
-6.97224e-05
2.4093e-05
0.000196156
-0.000150392
-0.000452301
0.000232477
0.000899659
-0.000196575
-0.00112493
0.000824871
0.00366337
0.0038176
0.00171969
-0.000516001
-0.00268504
-0.00525336
-0.00831887
-0.00900711
-0.00724692
-0.00430679
-0.00169562
-0.00026781
0.00016195
0.000124173
2.34479e-05
-1.46926e-05
-7.38948e-06
2.47264e-07
1.12904e-06
2.15192e-07
-8.80975e-08
-2.98293e-08
3.1904e-09
2.59297e-09
2.89951e-11
-2.97385e-10
-7.04577e-11
3.72691e-12
1.70163e-12
2.39651e-13
6.58333e-14
2.1528e-14
3.31114e-15
9.42484e-17
-4.64958e-17
-2.49546e-17
-6.15832e-05
-6.08296e-05
-2.50674e-05
4.24779e-06
-6.38544e-05
4.76402e-05
0.000186781
-0.000143459
-0.000326724
0.000220484
0.000210891
-0.000731042
-8.78057e-06
0.00320751
0.00474061
0.00358753
0.00168182
5.94833e-05
-0.00274305
-0.00896523
-0.0144809
-0.014853
-0.0109148
-0.00547586
-0.00156848
2.69318e-05
0.000160946
5.23532e-05
-1.764e-05
-1.30626e-05
-4.56855e-07
2.30237e-06
6.05424e-07
-1.71578e-07
-9.33461e-08
-4.16524e-09
7.56176e-09
1.00197e-09
-6.70945e-10
-1.87735e-10
1.88208e-11
1.21035e-11
1.83057e-12
3.05636e-14
3.99116e-14
7.71755e-15
-8.40827e-16
-3.33909e-16
-1.04439e-16
-2.96241e-17
-7.68878e-05
-6.56999e-05
4.72139e-06
4.01065e-05
-3.2007e-05
6.22136e-05
0.000138937
-0.000116813
-9.02076e-05
2.1165e-06
-0.000609537
-0.000894659
0.00156249
0.00479526
0.00470785
0.00300935
0.00180644
-0.00015922
-0.00792397
-0.0186621
-0.0245065
-0.0220089
-0.0138392
-0.00565266
-0.000988908
0.000119133
5.67827e-05
-2.06625e-05
-2.01858e-05
-1.4328e-06
4.20737e-06
1.46757e-06
-2.42387e-07
-2.32915e-07
-2.69822e-08
2.01787e-08
4.72011e-09
-1.13477e-09
-4.37188e-10
4.46725e-11
5.09653e-11
8.93823e-12
-9.4734e-13
-2.12487e-13
-1.70794e-14
-6.59936e-15
-1.82144e-15
-4.04403e-16
-9.17888e-17
-2.08105e-17
6.38931e-05
5.65387e-05
0.000110619
0.0001018
-1.03323e-05
2.84871e-05
6.49471e-05
-1.25352e-05
9.57638e-05
-0.000411798
-0.00127714
-0.000264642
0.00329049
0.00496165
0.00379974
0.00274288
0.00193777
-0.00525477
-0.0204129
-0.0344378
-0.0375923
-0.0292114
-0.0158635
-0.00524506
-0.000485801
-4.6614e-06
-2.7346e-05
-2.71158e-05
-2.39577e-06
6.69202e-06
2.86462e-06
-3.11802e-07
-5.25227e-07
-8.51084e-08
4.68673e-08
1.6709e-08
-9.52597e-10
-1.21372e-09
-3.33258e-11
1.37523e-10
2.67846e-11
-5.56063e-12
-1.94669e-12
-2.60071e-13
-2.6642e-14
-6.81517e-15
-1.14824e-15
-1.67419e-16
-2.62954e-17
-3.90678e-18
0.000195307
0.000153916
0.000163341
8.09739e-05
-6.90634e-05
-5.02871e-05
3.31103e-05
0.000146354
7.28339e-05
-0.000994135
-0.00138336
0.00122832
0.00447429
0.00425193
0.00294572
0.00347689
-0.000511844
-0.017335
-0.041138
-0.0557797
-0.0525799
-0.0361303
-0.0172082
-0.00464019
-0.000247689
-4.56593e-05
-3.15958e-05
-1.6422e-06
9.96313e-06
4.70397e-06
-5.03933e-07
-1.07555e-06
-2.24962e-07
9.03925e-08
4.24681e-08
1.63952e-11
-4.03522e-09
-5.43671e-10
2.82996e-10
6.26784e-11
-1.98091e-11
-9.03294e-12
-1.237e-12
8.99708e-14
1.3318e-15
-1.84028e-15
5.21387e-17
9.35599e-17
3.56161e-17
9.57169e-18
2.50958e-05
1.13283e-05
1.92755e-05
-7.35586e-05
-0.000156997
-7.64576e-05
0.000118427
0.000208872
-0.000390059
-0.00136853
-0.000105585
0.00308961
0.00444219
0.00320868
0.00368861
0.00462001
-0.0079849
-0.0388043
-0.0706577
-0.0809741
-0.0682204
-0.0419101
-0.0176336
-0.00384346
-0.000115811
-5.91104e-06
1.55571e-05
1.80479e-05
7.72493e-06
-9.01106e-07
-1.98295e-06
-5.08628e-07
1.56868e-07
9.28632e-08
3.42359e-09
-1.08211e-08
-2.23343e-09
5.24432e-10
1.65138e-10
-3.48252e-11
-2.46829e-11
-3.57127e-12
9.29171e-13
2.1415e-13
2.03648e-14
2.65358e-15
6.64553e-16
1.99792e-16
5.35182e-17
1.20334e-17
-0.000237668
-0.000193918
-0.000129628
-0.000133708
-6.32841e-05
6.21433e-05
0.000183249
-0.000190438
-0.00107313
-0.000795228
0.00204566
0.0040772
0.00290419
0.00279315
0.00687354
0.00411645
-0.0244839
-0.0723169
-0.107826
-0.107713
-0.0818495
-0.0451681
-0.0166226
-0.00269727
2.21494e-05
3.73447e-05
2.88987e-05
1.12008e-05
-1.45143e-06
-3.14176e-06
-8.59873e-07
2.93186e-07
1.9692e-07
1.38848e-08
-2.39343e-08
-6.30229e-09
1.10793e-09
5.82706e-10
7.012e-12
-5.14888e-11
-6.50291e-12
4.31065e-12
1.25584e-12
1.19378e-13
3.91942e-15
2.0127e-15
5.5724e-16
1.36166e-16
3.10314e-17
5.80916e-18
-9.88471e-05
-4.02308e-05
7.16277e-05
0.00016238
0.000214717
0.000126913
-0.000301367
-0.00101497
-0.00125129
0.00129814
0.00411051
0.00320868
0.00102996
0.00517953
0.0107268
-0.00441796
-0.0566322
-0.119326
-0.147245
-0.133562
-0.090774
-0.0452103
-0.013995
-0.00137371
5.71419e-05
4.22776e-05
1.49479e-05
-2.4734e-06
-4.68904e-06
-1.2797e-06
5.38903e-07
3.87554e-07
4.03634e-08
-4.52713e-08
-1.32743e-08
2.58001e-09
1.78962e-09
1.70419e-10
-1.16502e-10
-1.40891e-11
1.23891e-11
4.29961e-12
2.83701e-13
-1.03881e-13
-1.04277e-14
5.67943e-16
1.51167e-16
2.21695e-17
1.17793e-18
-8.55407e-19
0.000595874
0.000554312
0.000577648
0.000412082
5.37226e-05
-0.000787662
-0.00125862
-0.00137942
0.000815762
0.00419314
0.00432405
0.000826035
0.00053527
0.0102523
0.0115684
-0.0323018
-0.112819
-0.177681
-0.187768
-0.151104
-0.0920479
-0.0398525
-0.00991326
-0.000340688
3.13222e-05
1.10911e-05
-6.01665e-06
-6.47534e-06
-1.55443e-06
9.37751e-07
6.53231e-07
6.6758e-08
-8.77787e-08
-2.84784e-08
4.63981e-09
4.19888e-09
5.06396e-10
-3.00244e-10
-5.5373e-11
2.04779e-11
8.349e-12
-7.19138e-15
-6.57481e-13
-1.30344e-13
-4.61347e-15
-3.19887e-16
-1.22729e-16
-3.89518e-17
-1.01712e-17
-2.0541e-18
0.000695418
0.000510071
1.61597e-06
-0.00083926
-0.00162345
-0.00189677
-0.00136965
0.000860336
0.00391324
0.00471777
0.00157094
-0.000277406
0.00411031
0.0143113
-0.0180352
-0.101129
-0.200188
-0.242465
-0.221933
-0.157337
-0.0841138
-0.031176
-0.00558051
6.36056e-05
1.84171e-05
-6.56525e-06
-6.84774e-06
-1.24083e-06
1.53411e-06
9.83778e-07
6.51868e-08
-1.68652e-07
-5.93923e-08
7.00431e-09
8.27469e-09
9.16623e-10
-8.27704e-10
-2.2595e-10
2.66348e-11
1.66175e-11
-7.35338e-13
-2.35536e-12
-5.67712e-13
-1.48593e-14
3.23007e-15
-1.03228e-17
-7.72164e-17
-1.80347e-17
-3.0231e-19
1.87304e-18
-0.00292903
-0.00292164
-0.00309602
-0.00297494
-0.00227762
-0.000480529
0.00209391
0.00425981
0.00485014
0.00171997
-0.000328928
0.00492601
0.0104218
-0.011765
-0.108
-0.23314
-0.319423
-0.311625
-0.242177
-0.148098
-0.0681888
-0.0207405
-0.00204542
-2.02789e-05
-1.18462e-05
-6.17557e-06
4.83348e-08
2.44796e-06
1.3741e-06
2.85011e-08
-2.82622e-07
-9.79854e-08
1.44913e-08
1.61156e-08
1.75883e-09
-1.7738e-09
-5.34475e-10
5.99343e-11
4.63396e-11
1.2895e-12
-5.17574e-12
-1.20314e-12
1.03581e-13
5.41722e-14
6.1822e-15
2.27439e-17
3.46569e-17
2.70717e-17
1.45463e-17
6.36398e-18
-0.00257064
-0.00226899
-0.00130309
0.000267928
0.00235668
0.00408329
0.00482092
0.00461185
0.0012121
-0.00148023
0.00892033
0.0202939
0.00573657
-0.132973
-0.316838
-0.448857
-0.459359
-0.374912
-0.246012
-0.125609
-0.0482963
-0.0112051
-0.000355659
1.32643e-05
3.73468e-06
3.5236e-06
3.63145e-06
1.62198e-06
-1.18089e-07
-4.29249e-07
-1.29966e-07
3.69824e-08
3.10049e-08
3.81124e-09
-3.20264e-09
-9.6206e-10
1.64975e-10
1.25034e-10
1.05418e-11
-9.85665e-12
-1.79788e-12
6.49641e-13
2.76221e-13
3.99195e-14
-5.27608e-16
6.91288e-17
8.30161e-17
4.59373e-17
2.0013e-17
7.72515e-18
0.00413557
0.00448179
0.00493317
0.00524611
0.00511655
0.00428757
0.00306982
-0.000139054
-0.00441621
0.00812112
0.0411214
0.0344266
-0.159427
-0.451664
-0.683367
-0.735353
-0.614699
-0.41008
-0.220323
-0.0937072
-0.0294024
-0.00432179
0.000117072
3.42071e-05
6.0107e-06
3.06642e-06
8.83958e-07
-5.14818e-07
-5.64627e-07
-1.27489e-07
7.72321e-08
5.11603e-08
5.08849e-09
-6.11471e-09
-1.78101e-09
3.6105e-10
2.67614e-10
2.41696e-11
-2.25545e-11
-4.13097e-12
1.51704e-12
6.92848e-13
8.54809e-14
-1.57894e-14
-1.69248e-15
-1.49948e-17
5.66858e-17
3.48747e-17
1.53166e-17
5.91661e-18
0.00245709
0.00244668
0.00225381
0.00162858
0.000937518
-0.000521958
0.000622438
-0.00628563
-0.00475572
0.0519746
0.0773185
-0.161043
-0.614382
-1.0407
-1.20552
-1.05769
-0.732575
-0.407827
-0.180054
-0.0616794
-0.0143363
-0.000598816
3.45656e-05
1.35797e-05
4.11331e-06
3.57588e-08
-1.10805e-06
-7.26863e-07
-1.07052e-07
1.27532e-07
7.06582e-08
1.51961e-09
-1.19559e-08
-3.36069e-09
6.55243e-10
4.64899e-10
2.25084e-11
-5.41985e-11
-1.06766e-11
3.29668e-12
1.50715e-12
7.73262e-14
-1.01199e-13
-2.22242e-14
-1.09401e-15
1.28264e-17
2.57933e-17
1.60935e-17
7.46537e-18
3.06868e-18
0.000202318
0.000174446
-7.80083e-05
-9.24061e-05
-0.00104872
-0.00085589
0.00170522
-0.0127593
0.0420599
0.111866
-0.163572
-0.812415
-1.54116
-1.91987
-1.80582
-1.3301
-0.776939
-0.359016
-0.12865
-0.0337057
-0.00427475
0.000290394
8.64861e-05
3.38453e-06
-2.92751e-06
-1.9176e-06
-7.96346e-07
-9.10339e-09
1.9216e-07
8.04217e-08
-1.06357e-08
-2.04459e-08
-4.99546e-09
1.44472e-09
8.30394e-10
1.70559e-11
-1.05932e-10
-2.03046e-11
7.29134e-12
3.04753e-12
-7.05198e-15
-2.87866e-13
-6.62263e-14
-2.58469e-15
4.19875e-16
6.946e-17
1.28393e-17
4.16557e-18
1.97481e-18
9.69221e-19
-0.000393588
-0.000199639
-0.00072405
0.00095328
-0.00447193
0.00824471
-0.00194077
0.00831553
0.118779
-0.28821
-1.18711
-2.29609
-3.0073
-2.95244
-2.32971
-1.46319
-0.72688
-0.280008
-0.0796642
-0.0136799
0.000522944
8.78775e-05
1.99303e-06
-1.8187e-06
-6.07736e-07
-5.81543e-10
2.81259e-07
2.3752e-07
5.89837e-08
-3.37121e-08
-2.75618e-08
-4.38131e-09
3.45705e-09
1.5412e-09
6.74154e-13
-1.84426e-10
-3.21903e-11
1.42983e-11
4.896e-12
-5.95031e-13
-7.10746e-13
-1.28698e-13
1.50228e-14
5.04237e-15
6.6659e-16
7.78267e-17
7.43551e-18
-2.33952e-19
-2.30631e-19
3.21322e-20
-0.000769368
0.000370083
-0.00217313
0.00520817
-0.0127811
0.0453291
-0.00599569
0.0733812
-0.808743
-2.23252
-3.73839
-4.79323
-4.73296
-3.90449
-2.61251
-1.40603
-0.595097
-0.190035
-0.0407301
-0.00166891
0.000313398
0.000148137
2.84049e-05
5.3372e-07
4.58492e-07
3.99041e-07
2.22899e-07
1.06787e-08
-6.26471e-08
-3.39491e-08
-1.07113e-09
6.42791e-09
2.41232e-09
-1.27505e-10
-3.0875e-10
-4.82313e-11
2.46177e-11
6.21784e-12
-2.17374e-12
-1.47915e-12
-2.23231e-13
6.47652e-14
1.96658e-14
2.7431e-15
2.3269e-16
3.25183e-17
2.19818e-18
-1.05721e-18
-5.76108e-19
-1.7087e-19
-0.00263133
0.00259613
-0.008352
0.021218
-0.0265578
0.126412
-0.369905
-2.5266
-5.18224
-7.1785
-8.16171
-7.79635
-6.37737
-4.39743
-2.52555
-1.16854
-0.420645
-0.110118
-0.0147769
0.000907913
0.000253614
-2.68237e-05
-1.3717e-05
-7.31928e-07
4.69015e-07
2.21725e-07
-4.69593e-08
-9.90309e-08
-4.33364e-08
7.4055e-10
8.23769e-09
2.44022e-09
-5.68816e-10
-4.61853e-10
-4.98071e-11
4.66261e-11
1.11229e-11
-3.26076e-12
-1.80938e-12
-1.73618e-14
2.34673e-13
5.89904e-14
2.69894e-15
-6.16567e-16
-7.19306e-17
-7.36749e-18
-2.14613e-18
-1.03529e-18
-4.02707e-19
-1.26184e-19
-0.00755852
0.00775775
-0.028789
0.0605735
-0.788202
-3.68671
-8.39115
-12.8368
-15.6313
-15.4939
-13.5912
-10.5306
-7.15981
-4.20256
-2.06905
-0.827247
-0.256292
-0.0557141
-0.002498
-0.000402092
-7.3013e-05
3.96644e-06
2.42965e-06
4.60693e-07
-8.55905e-08
-1.77205e-07
-1.13438e-07
-3.34148e-08
5.20138e-09
7.68455e-09
1.30391e-09
-1.25215e-09
-6.13475e-10
-1.79833e-11
7.68693e-11
1.72888e-11
-4.24446e-12
-1.49331e-12
4.95946e-13
4.64341e-13
1.06975e-13
-3.66163e-15
-3.06436e-15
-6.13698e-16
-9.06209e-17
-1.48145e-17
-2.92157e-18
-7.44957e-19
-2.13516e-19
-6.10198e-20
-0.507061
-2.15346
-5.98785
-12.1198
-19.2327
-26.3466
-32.1187
-34.0112
-31.2555
-25.2648
-18.1727
-11.7441
-6.79748
-3.45107
-1.49023
-0.526697
-0.143941
-0.0259086
-0.000287389
-6.5531e-05
-2.95814e-05
-1.93585e-06
1.64826e-06
7.20888e-07
7.87557e-08
-8.27602e-09
-7.32203e-10
6.42868e-09
3.74132e-09
-4.52799e-10
-1.26849e-09
-3.93033e-10
1.05123e-10
9.63212e-11
1.3913e-11
-8.43461e-12
-2.65526e-12
3.94139e-13
3.41162e-13
1.67037e-14
-4.38088e-14
-1.07188e-14
-1.02978e-15
-1.48235e-16
-3.24394e-17
-6.78561e-18
-1.45759e-18
-3.41821e-19
-8.5947e-20
-2.25379e-20
-37.6253
-46.9418
-58.1897
-66.8405
-71.5474
-72.7617