/*--------------------------------*- C++ -*----------------------------------*\
| =========                 |                                                 |
| \\      /  F ield         | OpenFOAM: The Open Source CFD Toolbox           |
|  \\    /   O peration     | Version:  v2006                                 |
|   \\  /    A nd           | Website:  www.openfoam.com                      |
|    \\/     M anipulation  |                                                 |
\*---------------------------------------------------------------------------*/
FoamFile
{
    version     2.0;
    format      ascii;
    class       volScalarField;
    location    "2";
    object      r;
}
// * * * * * * * * * * * * * * * * * * * * * * * * * * * * * * * * * * * * * //

dimensions      [1 2 0 0 0 0 0];


internalField   nonuniform List<scalar> 
350
(
-3.25073e-22
1.04436e-21
-2.62475e-21
6.7912e-21
-1.74147e-20
4.45068e-20
-1.13261e-19
2.87016e-19
-7.24204e-19
1.81933e-18
-4.55015e-18
1.13283e-17
-2.80735e-17
6.92436e-17
-1.69971e-16
4.15184e-16
-1.0091e-15
2.44013e-15
-5.86986e-15
1.40453e-14
-3.34254e-14
7.91057e-14
-1.86154e-13
4.35524e-13
-1.01291e-12
2.34144e-12
-5.37883e-12
1.22777e-11
-2.78418e-11
6.27132e-11
-1.40289e-10
3.11607e-10
-6.87113e-10
1.50382e-09
-3.26602e-09
7.03711e-09
-1.50391e-08
3.18705e-08
-6.6955e-08
1.39405e-07
-2.87575e-07
5.87571e-07
-1.18867e-06
2.38014e-06
-4.71541e-06
9.23927e-06
-1.78967e-05
3.42551e-05
-6.47566e-05
0.000120843
-0.000222483
0.000403871
-0.000722403
0.00127233
-0.00220481
0.00375607
-0.00628478
0.0103183
-0.016604
0.0261563
-0.0402823
0.0605579
-0.0887172
0.126412
-0.174807
0.233995
-0.302297
0.375577
-0.446821
0.50632
-0.542789
0.54559
-0.507853
0.429765
-0.320717
0.198872
-0.0871969
0.00642417
0.0326751
-0.0339351
0.0140085
0.00621911
-0.0128789
0.00588856
0.00405962
-0.0064942
0.000871087
0.00437042
-0.00263127
-0.0026057
0.00308159
0.00167462
-0.00323854
-0.00144814
0.00339891
0.00208386
-0.0037926
-0.00342548
0.00294899
0.00757417
-0.00178605
-0.00886282
-0.0129948
0.0158135
0.0183084
0.0374413
-0.0532627
-0.0534342
-0.180525
0.0623708
0.13331
0.954118
1.2958
2.76971
3.14528
5.05605
5.15202
7.15427
6.88829
8.61961
8.21828
9.37757
9.1592
9.6604
9.71605
9.79064
9.92369
9.9185
9.95322
9.98892
9.98019
9.98798
10.002
9.99664
9.99427
10.0019
10.0022
9.99671
9.99822
10.0032
10.0014
9.99655
9.99797
10.0037
10.0036
9.99665
9.99315
10.0005
10.0111
10.0092
9.99047
9.97137
9.97916
10.0271
10.0937
10.12
10.0263
9.74028
9.22069
8.47021
7.53259
6.47915
5.39077
4.34166
3.38852
2.56612
1.88824
1.35195
0.943151
0.641931
0.426801
0.277526
0.176686
0.110247
0.067487
0.0405646
0.0239616
0.0139207
0.00795982
0.00448268
0.00248794
0.00136167
0.000735315
0.00039199
0.00020639
0.000107378
5.52266e-05
2.80907e-05
1.4136e-05
7.04043e-06
3.47162e-06
1.69538e-06
8.20232e-07
3.93251e-07
1.86891e-07
8.80652e-08
4.11556e-08
1.90795e-08
8.77633e-09
4.00649e-09
1.81555e-09
8.16832e-10
3.64937e-10
1.61935e-10
7.13801e-11
3.12606e-11
1.36041e-11
5.88381e-12
2.52946e-12
1.08103e-12
4.59348e-13
1.94088e-13
8.1557e-14
3.40863e-14
1.41711e-14
5.86106e-15
2.41184e-15
9.87551e-16
4.02396e-16
1.63181e-16
6.58641e-17
2.64623e-17
1.05838e-17
4.21429e-18
1.67076e-18
6.59537e-19
2.59259e-19
1.01491e-19
3.95685e-20
1.53649e-20
5.94284e-21
2.28966e-21
8.7879e-22
3.36018e-22
1.28005e-22
4.85851e-23
1.83744e-23
6.92434e-24
2.60029e-24
9.73114e-25
3.62931e-25
1.34904e-25
4.99784e-26
1.84551e-26
6.79277e-27
2.49224e-27
9.1151e-28
3.32338e-28
1.20798e-28
4.37745e-29
1.58152e-29
5.6969e-30
2.04609e-30
7.3274e-31
2.61653e-31
9.31683e-32
3.30818e-32
1.17139e-32
4.13634e-33
1.45663e-33
5.11575e-34
1.79189e-34
6.25983e-35
2.18111e-35
7.57991e-36
2.62746e-36
9.08451e-37
3.13308e-37
1.07785e-37
3.69884e-38
1.26621e-38
4.32406e-39
1.47308e-39
5.00638e-40
1.69742e-40
5.7416e-41
1.93759e-41
6.52356e-42
2.19134e-42
7.34418e-43
2.45581e-43
8.19352e-44
2.72758e-44
9.05991e-45
3.00273e-45
9.93025e-46
3.2769e-46
1.07903e-46
3.54547e-47
1.1625e-47
3.80363e-48
1.24192e-48
4.04654e-49
1.31576e-49
4.26952e-50
1.38259e-50
4.46813e-51
1.44106e-51
4.63841e-52
1.49001e-52
4.77694e-53
1.52846e-53
4.88098e-54
1.55566e-54
4.94857e-55
1.57111e-55
4.97855e-56
1.5746e-56
4.97065e-57
1.56616e-57
4.92542e-58
1.5461e-58
4.84425e-59
1.51499e-59
4.72926e-60
1.4736e-60
4.58325e-61
1.42291e-61
4.40958e-62
1.36406e-62
4.21202e-63
1.29829e-63
3.99467e-64
1.22693e-64
3.76178e-65
1.15134e-65
3.51765e-66
1.07286e-66
3.2665e-67
9.92815e-68
3.01235e-68
9.12422e-69
2.75894e-69
8.32815e-70
2.50966e-70
7.54999e-71
2.26748e-71
6.79844e-72
2.03492e-72
6.08074e-73
1.81402e-73
5.40263e-74
1.60638e-74
4.76839e-75
1.41313e-75
4.18091e-76
1.2351e-76
3.63755e-77
1.08707e-77
2.64609e-78
)
;

boundaryField
{
    right
    {
        type            zeroGradient;
    }
    left
    {
        type            inletOutlet;
        inletValue      uniform 0;
        value           uniform 0;
    }
    top
    {
        type            zeroGradient;
    }
    bottom
    {
        type            zeroGradient;
    }
    empty
    {
        type            empty;
    }
}


// ************************************************************************* //
