/*--------------------------------*- C++ -*----------------------------------*\
| =========                 |                                                 |
| \\      /  F ield         | OpenFOAM: The Open Source CFD Toolbox           |
|  \\    /   O peration     | Version:  v2006                                 |
|   \\  /    A nd           | Website:  www.openfoam.com                      |
|    \\/     M anipulation  |                                                 |
\*---------------------------------------------------------------------------*/
FoamFile
{
    version     2.0;
    format      ascii;
    class       volScalarField;
    location    "0";
    object      p;
}
// * * * * * * * * * * * * * * * * * * * * * * * * * * * * * * * * * * * * * //

dimensions      [1 -1 -2 0 0 0 0];


internalField   nonuniform List<scalar> 
67500
(
2.56985
1.83299
1.043
0.658522
0.959632
0.975467
1.03999
1.51634
0.754883
0.65024
0.650863
0.815184
1.74628
1.52663
1.28811
1.54393
2.00767
2.48306
0.950219
-0.0213293
2.14695
2.11609
0.477432
0.0164655
0.35984
0.940956
1.39173
2.21738
2.87751
3.12866
2.94335
2.35743
1.65969
1.17102
0.87754
0.738859
0.692947
0.67856
0.660342
0.621144
0.576546
0.552184
0.560992
0.603539
0.667449
0.729733
0.770161
0.780439
0.760582
0.715715
0.656033
0.591926
0.530857
0.48015
0.448153
0.442531
0.468814
0.528947
0.624096
0.747996
0.831775
0.814327
0.763436
0.701542
0.636551
0.578701
0.535573
0.511165
0.505432
0.514578
0.532033
0.550095
0.561974
0.563624
0.554825
0.539188
0.522691
0.511284
0.509255
0.519268
0.543644
0.58405
0.641507
0.716158
0.808037
0.902322
0.924242
0.85028
0.773578
0.718791
0.675578
0.644999
0.626744
0.618703
0.620354
0.631833
0.65315
0.684478
0.72697
0.782581
0.852497
0.935142
1.02489
1.10516
1.14082
1.12399
1.09625
1.08237
1.08603
1.11055
1.15621
1.2178
1.28529
1.34207
1.36846
1.36673
1.36341
1.37466
1.40183
1.44362
1.49547
1.5484
1.59631
1.64297
1.69361
1.74748
1.8014
1.85224
1.89882
1.9432
1.98717
2.03
2.07037
2.10811
2.14407
2.17893
2.21251
2.24439
2.27438
2.30233
2.32796
2.35102
2.37148
2.3893
2.40435
2.4165
2.42557
2.43136
2.43364
2.43218
2.42674
2.4171
2.40309
2.38457
2.36148
2.33384
2.30176
2.2654
2.22505
2.18102
2.13371
2.08357
2.03106
1.97668
1.9209
1.86419
1.807
1.74971
1.6927
1.63626
1.58064
1.52605
1.47264
1.42053
1.36979
1.32047
1.27258
1.22614
1.18111
1.13747
1.0952
1.05424
1.01455
0.976097
0.93882
0.902676
0.86762
0.833608
0.800598
0.76855
0.737424
0.707186
0.6778
0.649236
0.621463
0.594455
0.568187
0.542638
0.517788
0.493621
0.47012
0.447274
0.42507
0.403498
0.382549
0.362214
0.342485
0.323353
0.304812
0.286853
0.269466
0.252645
0.236378
0.220658
0.205473
0.190815
0.176671
0.163031
0.149885
0.13722
0.125025
0.113289
0.102
0.0911459
0.0807151
0.070696
0.0610766
0.0518453
0.0429904
0.0345005
0.0263642
0.0185704
0.0111082
0.00396696
-0.00286366
-0.00939359
-0.0156324
-0.0215894
-0.0272733
-0.0326925
-0.0378551
-0.0427687
-0.0474404
-0.0518773
-0.0560859
-0.0600725
-0.0638431
-0.0674034
-0.0707591
-0.0739154
-0.0768775
-0.0796505
-0.0822392
-0.0846483
-0.0868826
-0.0889467
-0.0908451
-0.0925822
-0.0941625
-0.0955904
-0.0968704
-0.0980067
-0.099004
-0.0998665
-0.100599
-0.101205
-0.101691
-0.102059
-0.102316
-0.102465
-0.102511
-0.102459
-0.102313
-0.102078
-0.101759
-0.101359
-0.100885
-0.10034
-0.099728
-0.0990543
-0.0983227
-0.0975375
-0.0967028
-0.0958225
-0.0949006
-0.0939406
-0.0929464
-0.0919213
-0.0908688
-0.0897921
-0.0886943
-0.0875784
-0.0864472
-0.0853034
-0.0841497
-0.0829885
-0.0818221
-0.0806527
-0.0794824
-0.0783133
-0.0771472
-0.0759857
-0.0748307
-0.0736836
-0.0725459
-0.0714189
-0.070304
-0.0692022
-0.0681147
-0.0670425
-0.0659864
-0.0649474
-0.0639261
-0.0629233
-0.0619396
-0.0609753
-0.0600311
-0.0591071
-0.0582036
-0.0573209
-0.0564589
-0.0556176
-0.0547969
-0.0539967
-0.0532164
-0.0524559
-0.0517144
-0.0509915
-0.0502865
-0.0495985
-0.0489268
-0.0482704
-0.0476284
-0.0469999
-0.0463837
-0.0457789
-0.0451844
-0.0445994
-0.0440229
-0.043454
-0.0428919
-0.0423359
-0.0417854
-0.0412399
-0.040699
-0.0401623
-0.0396297
-0.039101
-0.0385763
-0.0380554
-0.0375386
-0.0370259
-0.0365175
-0.0360135
-0.035514
-0.0350191
-0.0345289
-0.0340434
-0.0335625
-0.0330861
-0.0326141
-0.0321463
-0.0316825
-0.0312224
-0.0307657
-0.0303119
-0.0298608
-0.0294118
-0.0289646
-0.0285187
-0.0280734
-0.0276284
-0.027183
-0.0267366
-0.0262889
-0.0258394
-0.0253876
-0.0249334
-0.0244766
-0.0240172
-0.0235553
-0.0230912
-0.0226252
-0.0221579
-0.0216897
-0.0212215
-0.0207539
-0.0202875
-0.0198232
-0.0193616
-0.0189035
-0.0184493
-0.0179998
-0.0175555
-0.0171166
-0.0166837
-0.016257
-0.0158368
-0.0154232
-0.0150163
-0.0146163
-0.014223
-0.0138364
-0.0134566
-0.0130833
-0.0127164
-0.0123559
-0.0120014
-0.0116528
-0.01131
-0.0109726
-0.0106405
-0.0103135
-0.00999139
-0.00967387
-0.00936077
-0.00905188
-0.00874699
-0.00844589
-0.0081484
-0.00785433
-0.00756348
-0.00727568
-0.00699077
-0.00670857
-0.00642893
-0.00615169
-0.00587672
-0.00560387
-0.00533301
-0.00506402
-0.00479676
-0.00453112
-0.00426699
-0.00400426
-0.00374283
-0.0034826
-0.00322347
-0.00296535
-0.00270815
-0.00245179
-0.00219617
-0.00194123
-0.00168685
-0.00143309
-0.00117938
-0.000927232
-0.000670523
-0.000426355
-0.000114544
2.22351
0.908065
-0.291413
0.279332
0.334084
0.73705
0.100653
0.106488
0.156544
0.135605
0.132513
0.112861
0.25094
0.226858
-0.202692
-0.128646
-0.162753
-0.511588
-1.24404
-1.83951
-0.454411
0.601213
0.624677
1.00053
1.66861
1.82467
1.15658
1.80118
2.66605
3.13409
2.90777
2.14268
1.22676
0.79197
0.552498
0.483042
0.579651
0.74723
0.83747
0.819613
0.76262
0.715389
0.686065
0.672823
0.667762
0.656626
0.630828
0.590867
0.541661
0.492896
0.454881
0.429682
0.413004
0.402769
0.399679
0.408671
0.440222
0.504824
0.618542
0.800354
0.890004
0.803658
0.737976
0.683609
0.633754
0.589581
0.552798
0.526538
0.512778
0.510263
0.514956
0.521734
0.526043
0.525038
0.517918
0.50578
0.490741
0.475194
0.461902
0.454347
0.45609
0.469978
0.499995
0.551246
0.635305
0.767744
0.808937
0.686519
0.592186
0.545977
0.518515
0.505002
0.501793
0.505805
0.516611
0.534726
0.560748
0.595308
0.63993
0.698196
0.77417
0.868423
0.978508
1.08794
1.12675
1.07882
1.0304
1.00601
1.00059
1.01937
1.06403
1.12979
1.20776
1.27798
1.30249
1.28439
1.27162
1.28231
1.31309
1.36224
1.42436
1.48517
1.53343
1.57856
1.63031
1.68659
1.74315
1.79529
1.84124
1.88546
1.93088
1.97569
2.01755
2.05614
2.09311
2.12955
2.16495
2.19858
2.23032
2.2601
2.2875
2.31227
2.33444
2.35405
2.37092
2.3849
2.39582
2.40345
2.40756
2.40789
2.4042
2.39624
2.38381
2.36676
2.34503
2.31861
2.28762
2.25223
2.21273
2.16944
2.12278
2.07321
2.0212
1.96726
1.91189
1.85556
1.79873
1.74181
1.68515
1.62906
1.5738
1.51957
1.46653
1.41477
1.36438
1.3154
1.26785
1.22172
1.17699
1.13364
1.09163
1.05092
1.01147
0.973234
0.936159
0.900202
0.865318
0.831465
0.798602
0.766688
0.735686
0.705561
0.676279
0.647809
0.620122
0.593192
0.566995
0.54151
0.516717
0.492601
0.469146
0.446341
0.424174
0.402636
0.381717
0.36141
0.341707
0.3226
0.304081
0.286143
0.268778
0.251976
0.23573
0.220028
0.204862
0.190222
0.176096
0.162474
0.149344
0.136696
0.124518
0.112798
0.101524
0.0906857
0.0802702
0.0702658
0.0606609
0.0514438
0.0426028
0.0341264
0.0260032
0.018222
0.010772
0.00364252
-0.00317681
-0.00969595
-0.0159245
-0.0218717
-0.0275463
-0.0329567
-0.0381109
-0.0430165
-0.0476807
-0.0521104
-0.0563122
-0.0602923
-0.0640566
-0.067611
-0.070961
-0.0741118
-0.0770686
-0.0798364
-0.08242
-0.0848243
-0.0870539
-0.0891133
-0.091007
-0.0927396
-0.0943154
-0.0957388
-0.0970143
-0.0981462
-0.0991389
-0.0999969
-0.100725
-0.101327
-0.101807
-0.102171
-0.102423
-0.102568
-0.102609
-0.102552
-0.102402
-0.102162
-0.101839
-0.101435
-0.100956
-0.100406
-0.0997902
-0.0991121
-0.0983764
-0.0975871
-0.0967484
-0.0958643
-0.0949386
-0.093975
-0.0929773
-0.0919489
-0.0908931
-0.0898133
-0.0887125
-0.0875937
-0.0864598
-0.0853135
-0.0841573
-0.0829937
-0.0818251
-0.0806536
-0.0794814
-0.0783104
-0.0771425
-0.0759794
-0.0748228
-0.0736743
-0.0725352
-0.071407
-0.0702909
-0.069188
-0.0680995
-0.0670263
-0.0659695
-0.0649297
-0.0639078
-0.0629044
-0.0619201
-0.0609554
-0.0600108
-0.0590866
-0.058183
-0.0573002
-0.0564382
-0.0555971
-0.0547766
-0.0539767
-0.0531968
-0.0524368
-0.0516959
-0.0509737
-0.0502694
-0.0495823
-0.0489115
-0.048256
-0.047615
-0.0469874
-0.0463722
-0.0457684
-0.0451749
-0.0445909
-0.0440152
-0.0434471
-0.0428857
-0.0423303
-0.0417803
-0.0412352
-0.0406945
-0.040158
-0.0396255
-0.0390968
-0.038572
-0.038051
-0.0375339
-0.037021
-0.0365123
-0.036008
-0.0355083
-0.0350132
-0.0345228
-0.0340372
-0.0335563
-0.03308
-0.0326083
-0.0321409
-0.0316776
-0.031218
-0.030762
-0.0303091
-0.0298589
-0.0294111
-0.028965
-0.0285202
-0.0280761
-0.0276322
-0.0271879
-0.0267426
-0.0262958
-0.0258469
-0.0253957
-0.0249418
-0.024485
-0.0240254
-0.0235631
-0.0230983
-0.0226315
-0.0221632
-0.0216941
-0.0212248
-0.020756
-0.0202885
-0.0198231
-0.0193604
-0.0189013
-0.0184463
-0.017996
-0.0175509
-0.0171115
-0.0166781
-0.016251
-0.0158304
-0.0154166
-0.0150096
-0.0146094
-0.0142161
-0.0138296
-0.0134498
-0.0130766
-0.0127099
-0.0123495
-0.0119952
-0.0116468
-0.0113042
-0.010967
-0.0106352
-0.0103084
-0.00998648
-0.00966918
-0.0093563
-0.00904762
-0.00874293
-0.00844204
-0.00814475
-0.00785086
-0.0075602
-0.00727258
-0.00698783
-0.0067058
-0.00642631
-0.00614923
-0.0058744
-0.00560169
-0.00533096
-0.00506209
-0.00479495
-0.00452943
-0.00426541
-0.00400279
-0.00374146
-0.00348133
-0.0032223
-0.00296427
-0.00270716
-0.00245088
-0.00219535
-0.0019405
-0.0016862
-0.00143251
-0.00117888
-0.000926805
-0.000670174
-0.000426082
-0.00011443
3.38869
3.69256
0.845806
0.208947
0.171989
0.145519
0.098597
0.0635969
0.0524346
0.0470071
0.0572849
0.0824767
0.108093
0.133488
0.167112
0.0603824
0.101503
0.107639
0.854101
-0.555828
-0.539026
0.603634
1.9045
1.68709
1.22752
1.79941
2.02923
2.77356
3.67347
4.13448
3.28223
2.07188
0.156455
0.0194344
0.104515
0.178053
0.226756
0.312257
0.34327
0.327959
0.319412
0.327258
0.338519
0.347473
0.346497
0.328682
0.303403
0.28496
0.273993
0.26718
0.2646
0.265485
0.267346
0.269377
0.271271
0.272441
0.276013
0.292966
0.347506
0.585641
0.791893
0.538288
0.41934
0.339994
0.282309
0.250226
0.242183
0.250918
0.269011
0.289143
0.303906
0.306553
0.292557
0.261754
0.219816
0.178655
0.150737
0.14265
0.155026
0.186152
0.234339
0.298399
0.381197
0.49592
0.686067
1.03699
1.07616
0.819754
0.712387
0.639127
0.571848
0.524236
0.489158
0.463151
0.446617
0.439298
0.44033
0.451106
0.472552
0.506873
0.558882
0.632407
0.742749
0.912184
0.971746
0.858478
0.770902
0.736573
0.734431
0.768505
0.840382
0.945723
1.07797
1.20851
1.23035
1.16218
1.12369
1.12582
1.15068
1.20147
1.27676
1.35099
1.39444
1.43376
1.48899
1.55373
1.62117
1.68007
1.72587
1.77072
1.82038
1.86976
1.91409
1.95316
1.99123
2.03057
2.06958
2.10669
2.14202
2.17565
2.20673
2.23488
2.26047
2.28364
2.30413
2.32176
2.3364
2.34775
2.35553
2.35948
2.35931
2.35472
2.34548
2.33138
2.31234
2.28837
2.25956
2.2261
2.18828
2.14647
2.1011
2.05264
2.00161
1.94855
1.89398
1.8384
1.78229
1.72607
1.67011
1.61473
1.56019
1.50667
1.45435
1.4033
1.35362
1.30532
1.25842
1.21292
1.1688
1.12602
1.08454
1.04433
1.00535
0.967544
0.930869
0.895283
0.860742
0.827205
0.794632
0.762985
0.732229
0.702328
0.673252
0.64497
0.617455
0.59068
0.564623
0.539265
0.514587
0.490574
0.467212
0.444491
0.422401
0.400933
0.380078
0.35983
0.340182
0.321127
0.302657
0.284765
0.267443
0.250684
0.234477
0.218814
0.203685
0.18908
0.174989
0.161401
0.148304
0.135687
0.12354
0.11185
0.100606
0.0897959
0.0794083
0.0694313
0.0598532
0.0506622
0.0418468
0.0333953
0.0252964
0.0175389
0.0101117
0.00300431
-0.00379377
-0.0102925
-0.0165016
-0.0224301
-0.028087
-0.0334805
-0.0386187
-0.0435091
-0.0481588
-0.0525748
-0.0567635
-0.0607311
-0.0644834
-0.0680263
-0.0713652
-0.0745052
-0.0774517
-0.0802094
-0.0827832
-0.0851778
-0.0873979
-0.089448
-0.0913325
-0.0930559
-0.0946226
-0.096037
-0.0973034
-0.0984263
-0.09941
-0.100259
-0.100978
-0.10157
-0.102042
-0.102397
-0.102639
-0.102774
-0.102806
-0.10274
-0.10258
-0.102332
-0.101999
-0.101586
-0.101098
-0.100539
-0.0999145
-0.0992279
-0.0984837
-0.0976863
-0.0968396
-0.0959477
-0.0950145
-0.0940437
-0.093039
-0.0920038
-0.0909416
-0.0898555
-0.0887488
-0.0876243
-0.0864849
-0.0853334
-0.0841723
-0.0830041
-0.081831
-0.0806554
-0.0794792
-0.0783045
-0.0771331
-0.0759667
-0.074807
-0.0736555
-0.0725138
-0.071383
-0.0702645
-0.0691595
-0.068069
-0.066994
-0.0659355
-0.0648942
-0.0638709
-0.0628663
-0.0618811
-0.0609156
-0.0599703
-0.0590456
-0.0581416
-0.0572587
-0.0563968
-0.0555559
-0.0547359
-0.0539366
-0.0531576
-0.0523986
-0.0516589
-0.0509381
-0.0502354
-0.0495499
-0.0488809
-0.0482274
-0.0475884
-0.0469628
-0.0463497
-0.0457479
-0.0451564
-0.0445742
-0.0440002
-0.0434337
-0.0428737
-0.0423196
-0.0417706
-0.0412263
-0.0406863
-0.0401503
-0.0396181
-0.0390896
-0.0385648
-0.0380438
-0.0375268
-0.0370139
-0.0365052
-0.036001
-0.0355014
-0.0350065
-0.0345164
-0.0340311
-0.0335505
-0.0330746
-0.0326032
-0.032136
-0.0316728
-0.0312133
-0.0307572
-0.0303042
-0.0298538
-0.0294056
-0.0289592
-0.0285141
-0.0280698
-0.0276257
-0.0271813
-0.0267359
-0.026289
-0.0258402
-0.025389
-0.024935
-0.0244782
-0.0240185
-0.023556
-0.023091
-0.0226238
-0.0221551
-0.0216855
-0.0212156
-0.0207462
-0.0202782
-0.0198122
-0.019349
-0.0188893
-0.0184339
-0.0179832
-0.0175377
-0.0170981
-0.0166645
-0.0162373
-0.0158167
-0.0154029
-0.014996
-0.014596
-0.0142029
-0.0138166
-0.0134371
-0.0130643
-0.0126979
-0.0123379
-0.011984
-0.011636
-0.0112938
-0.0109571
-0.0106257
-0.0102993
-0.0099778
-0.00966092
-0.00934844
-0.00904016
-0.00873587
-0.00843536
-0.00813843
-0.0078449
-0.00755458
-0.00726729
-0.00698286
-0.00670113
-0.00642194
-0.00614513
-0.00587057
-0.00559812
-0.00532764
-0.005059
-0.00479209
-0.00452679
-0.00426298
-0.00400055
-0.00373942
-0.00347947
-0.00322062
-0.00296276
-0.00270582
-0.0024497
-0.00219433
-0.00193962
-0.00168547
-0.00143193
-0.00117845
-0.000926513
-0.000670029
-0.000426043
-0.000114563
2.90629
1.27352
0.525575
0.349955
0.342925
0.252819
0.127597
-0.0189014
-0.0605632
-0.0617774
-0.0298713
0.0435283
0.123706
0.18026
0.193249
0.166499
0.179914
0.205309
-0.218014
0.121273
-0.36424
0.94489
1.39135
2.19941
0.943935
0.392828
0.754389
2.40413
4.86913
7.75595
5.87357
3.20526
0.252898
0.31797
0.294669
0.267289
0.264681
0.286336
0.312089
0.329464
0.336209
0.335934
0.331915
0.326412
0.320841
0.315416
0.308893
0.300197
0.290607
0.282196
0.276501
0.273709
0.272713
0.272153
0.271495
0.271372
0.274404
0.287289
0.314494
0.293371
0.174922
0.170536
0.186177
0.193915
0.196297
0.195977
0.193738
0.190506
0.187231
0.184351
0.181879
0.179779
0.178097
0.176925
0.176464
0.177021
0.178734
0.181207
0.183787
0.186582
0.190681
0.197294
0.210253
0.242151
0.33465
0.951933
1.1063
0.31545
0.144025
0.153629
0.155685
0.160179
0.16662
0.174093
0.184118
0.196686
0.204721
0.212597
0.227671
0.269007
0.355478
0.500694
0.739947
1.17093
1.15004
0.85615
0.748939
0.68624
0.634708
0.622706
0.651235
0.718157
0.84879
1.06484
1.04338
0.859926
0.778447
0.786225
0.834711
0.922771
1.05513
1.18194
1.21113
1.23668
1.29647
1.36789
1.44698
1.51024
1.54647
1.5884
1.64539
1.70478
1.75532
1.79536
1.83595
1.8815
1.92707
1.96939
2.00982
2.04913
2.0855
2.11838
2.14901
2.17766
2.20367
2.22684
2.24709
2.26404
2.27733
2.28676
2.29195
2.29249
2.28807
2.27844
2.26347
2.24316
2.21762
2.18704
2.15174
2.11212
2.06864
2.02183
1.97225
1.92048
1.86709
1.81262
1.75757
1.70241
1.6475
1.59318
1.53971
1.48729
1.43605
1.38609
1.33747
1.2902
1.2443
1.19975
1.15653
1.11461
1.07394
1.03448
0.996195
0.959038
0.922965
0.887934
0.853905
0.82084
0.788701
0.757453
0.727064
0.6975
0.668732
0.640731
0.61347
0.586926
0.561078
0.535907
0.511396
0.487533
0.464306
0.441705
0.419722
0.398351
0.377585
0.357419
0.337846
0.318862
0.300459
0.282631
0.265371
0.248672
0.232523
0.216917
0.201844
0.187294
0.173257
0.159721
0.146676
0.13411
0.122012
0.110371
0.0991748
0.0884116
0.07807
0.0681379
0.0586038
0.0494559
0.0406824
0.0322718
0.0242125
0.0164933
0.00910321
0.00203137
-0.0047326
-0.0111988
-0.0173767
-0.0232757
-0.0289046
-0.0342715
-0.0393845
-0.0442511
-0.0488782
-0.0532727
-0.057441
-0.0613891
-0.0651229
-0.0686479
-0.0719697
-0.0750933
-0.0780238
-0.0807661
-0.0833249
-0.085705
-0.0879108
-0.0899469
-0.0918177
-0.0935275
-0.0950808
-0.0964818
-0.0977348
-0.0988443
-0.0998146
-0.10065
-0.101355
-0.101934
-0.102392
-0.102733
-0.102962
-0.103083
-0.103101
-0.103021
-0.102848
-0.102585
-0.102238
-0.101812
-0.10131
-0.100738
-0.100101
-0.0994011
-0.0986444
-0.0978347
-0.0969761
-0.0960726
-0.0951281
-0.0941464
-0.0931311
-0.0920858
-0.0910139
-0.0899185
-0.0888028
-0.0876698
-0.0865223
-0.085363
-0.0841946
-0.0830193
-0.0818396
-0.0806577
-0.0794756
-0.0782953
-0.0771186
-0.0759473
-0.074783
-0.0736272
-0.0724814
-0.0713468
-0.0702248
-0.0691166
-0.068023
-0.0669453
-0.0658843
-0.0648407
-0.0638154
-0.0628091
-0.0618223
-0.0608555
-0.0599092
-0.0589838
-0.0580794
-0.0571962
-0.0563344
-0.0554939
-0.0546745
-0.0538761
-0.0530984
-0.0523409
-0.051603
-0.0508843
-0.0501838
-0.0495009
-0.0488346
-0.0481839
-0.0475479
-0.0469254
-0.0463153
-0.0457165
-0.045128
-0.0445485
-0.0439772
-0.0434131
-0.0428553
-0.042303
-0.0417555
-0.0412124
-0.0406732
-0.0401377
-0.0396056
-0.039077
-0.0385518
-0.0380302
-0.0375123
-0.0369985
-0.0364888
-0.0359837
-0.0354832
-0.0349876
-0.034497
-0.0340114
-0.0335309
-0.0330554
-0.0325848
-0.0321188
-0.0316573
-0.0311999
-0.0307462
-0.030296
-0.0298488
-0.029404
-0.0289613
-0.0285201
-0.0280796
-0.0276394
-0.0271985
-0.0267564
-0.0263124
-0.0258658
-0.0254162
-0.0249631
-0.0245063
-0.0240459
-0.0235819
-0.0231148
-0.022645
-0.0221732
-0.0217001
-0.0212266
-0.0207536
-0.0202819
-0.0198123
-0.0193458
-0.0188831
-0.0184248
-0.0179716
-0.017524
-0.0170824
-0.0166473
-0.0162189
-0.0157973
-0.0153829
-0.0149755
-0.0145752
-0.014182
-0.0137958
-0.0134166
-0.0130441
-0.0126781
-0.0123186
-0.0119653
-0.0116179
-0.0112763
-0.0109402
-0.0106095
-0.0102838
-0.00996297
-0.00964676
-0.00933494
-0.0090273
-0.00872364
-0.00842374
-0.0081274
-0.00783444
-0.00754467
-0.00725791
-0.006974
-0.00669275
-0.00641403
-0.00613768
-0.00586356
-0.00559152
-0.00532143
-0.00505318
-0.00478663
-0.00452167
-0.00425819
-0.00399609
-0.00373527
-0.00347562
-0.00321705
-0.00295947
-0.0027028
-0.00244694
-0.00219182
-0.00193736
-0.00168345
-0.00143015
-0.00117689
-0.000925182
-0.000668931
-0.000425175
-0.000114187
2.22806
0.32677
0.418442
0.392974
0.365741
0.282249
0.114684
-0.126026
-0.167313
-0.0991965
-0.0539612
0.0383832
0.14909
0.216662
0.214885
0.138498
0.062521
0.0574746
-0.357409
-0.626073
1.42028
1.99325
0.387279
0.243172
0.18461
0.155103
0.141643
0.53599
1.51984
1.08547
0.471219
0.323928
0.26377
0.246462
0.217344
0.213283
0.246418
0.285099
0.3118
0.32823
0.335084
0.335952
0.333163
0.328184
0.32185
0.314421
0.305784
0.29614
0.286407
0.278841
0.274487
0.272674
0.271817
0.270925
0.269503
0.267913
0.267326
0.269051
0.270837
0.258749
0.239945
0.225978
0.217615
0.211537
0.206219
0.201353
0.1969
0.192956
0.18968
0.187155
0.185346
0.184201
0.183695
0.183749
0.184225
0.185105
0.186579
0.18862
0.190969
0.193653
0.197444
0.203903
0.215503
0.240161
0.291388
0.256834
-0.00212188
0.0822759
0.126592
0.145581
0.155316
0.16056
0.163343
0.164714
0.166118
0.168816
0.172661
0.17598
0.178095
0.181431
0.192857
0.226907
0.307002
1.16299
1.22216
0.331915
0.0766258
0.0404629
0.0124032
0.0461852
0.16658
0.361126
0.726672
1.40628
1.10755
0.738566
0.683872
0.656222
0.629692
0.649312
0.773228
0.985673
0.932828
0.898661
0.963148
1.06865
1.20364
1.29147
1.30716
1.34965
1.42313
1.49687
1.5507
1.58241
1.62177
1.67588
1.73205
1.78229
1.83083
1.87975
1.924
1.96282
1.99999
2.03607
2.06937
2.09989
2.1278
2.15231
2.17303
2.18989
2.20235
2.20984
2.21195
2.20833
2.19879
2.18336
2.16216
2.1354
2.10342
2.06667
2.02566
1.981
1.93329
1.88319
1.83133
1.77829
1.72464
1.67085
1.61734
1.56444
1.51241
1.46145
1.41168
1.36318
1.31599
1.27012
1.22555
1.18228
1.14027
1.09949
1.05989
1.02143
0.984074
0.947779
0.912504
0.878209
0.844859
0.812418
0.780854
0.750135
0.720232
0.691114
0.662754
0.635125
0.608203
0.581967
0.556396
0.531476
0.507191
0.483531
0.460487
0.438053
0.416221
0.394988
0.374349
0.354299
0.334836
0.315953
0.297646
0.279909
0.262735
0.246117
0.230048
0.214518
0.199518
0.185038
0.171069
0.157599
0.144617
0.132113
0.120076
0.108493
0.0973539
0.0866466
0.0763596
0.0664811
0.0569995
0.047903
0.0391799
0.0308184
0.0228072
0.0151347
0.00778989
0.000761801
-0.00596005
-0.0123858
-0.0185251
-0.0243873
-0.0299811
-0.0353148
-0.0403962
-0.0452328
-0.0498315
-0.0541989
-0.0583413
-0.0622648
-0.065975
-0.0694773
-0.0727772
-0.0758796
-0.0787896
-0.0815119
-0.0840512
-0.0864121
-0.0885991
-0.0906166
-0.092469
-0.0941607
-0.0956958
-0.0970788
-0.0983138
-0.0994052
-0.100357
-0.101175
-0.101861
-0.102422
-0.102861
-0.103184
-0.103394
-0.103496
-0.103496
-0.103397
-0.103204
-0.102923
-0.102558
-0.102113
-0.101594
-0.101004
-0.100348
-0.0996318
-0.0988583
-0.0980322
-0.0971575
-0.0962385
-0.095279
-0.0942827
-0.0932534
-0.0921946
-0.0911097
-0.0900019
-0.0888743
-0.0877299
-0.0865715
-0.0854019
-0.0842236
-0.0830391
-0.0818506
-0.0806603
-0.0794703
-0.0782826
-0.0770989
-0.075921
-0.0747505
-0.073589
-0.0724377
-0.0712982
-0.0701715
-0.0690589
-0.0679614
-0.06688
-0.0658156
-0.0647691
-0.0637411
-0.0627324
-0.0617436
-0.0607751
-0.0598274
-0.058901
-0.0579959
-0.0571125
-0.0562508
-0.0554108
-0.0545923
-0.0537952
-0.0530192
-0.0522638
-0.0515284
-0.0508125
-0.0501152
-0.0494358
-0.0487732
-0.0481265
-0.0474946
-0.0468763
-0.0462705
-0.0456759
-0.0450914
-0.0445159
-0.0439482
-0.0433873
-0.0428324
-0.0422826
-0.0417373
-0.0411959
-0.040658
-0.0401234
-0.0395919
-0.0390636
-0.0385386
-0.038017
-0.0374992
-0.0369854
-0.0364759
-0.035971
-0.0354708
-0.0349757
-0.0344856
-0.0340007
-0.0335208
-0.0330458
-0.0325756
-0.0321098
-0.0316481
-0.0311904
-0.0307361
-0.0302851
-0.0298368
-0.0293909
-0.028947
-0.0285047
-0.0280633
-0.0276223
-0.0271809
-0.0267385
-0.0262944
-0.0258478
-0.0253983
-0.0249454
-0.0244888
-0.0240284
-0.0235643
-0.0230969
-0.0226267
-0.0221543
-0.0216804
-0.0212061
-0.0207321
-0.0202594
-0.0197889
-0.0193214
-0.0188578
-0.0183988
-0.0179449
-0.0174968
-0.0170549
-0.0166195
-0.016191
-0.0157695
-0.0153551
-0.014948
-0.0145482
-0.0141555
-0.0137699
-0.0133912
-0.0130194
-0.0126542
-0.0122955
-0.011943
-0.0115965
-0.0112557
-0.0109205
-0.0105907
-0.0102658
-0.00994585
-0.00963047
-0.00931948
-0.00901264
-0.00870975
-0.00841061
-0.00811501
-0.00782275
-0.00753367
-0.00724756
-0.00696427
-0.00668364
-0.0064055
-0.0061297
-0.00585611
-0.00558458
-0.00531498
-0.00504719
-0.00478109
-0.00451656
-0.00425349
-0.00399179
-0.00373134
-0.00347206
-0.00321384
-0.0029566
-0.00270026
-0.00244472
-0.00218991
-0.00193575
-0.00168213
-0.00142912
-0.00117615
-0.000924714
-0.000668754
-0.000425198
-0.000114524
1.94771
0.44583
0.386367
0.362819
0.334121
0.256049
0.080179
-0.170687
-0.208592
0.00170038
-0.010266
0.0142348
0.168332
0.347541
0.201664
0.275099
1.35924
2.68664
0.806044
0.0882184
0.117898
0.20643
0.241811
0.235488
0.202565
0.171133
0.137443
0.120427
0.218156
0.316486
0.312337
0.301199
0.283688
0.260491
0.222718
0.222422
0.252597
0.284366
0.30594
0.318531
0.324553
0.325829
0.323809
0.319874
0.314965
0.309406
0.303144
0.29613
0.288839
0.282148
0.277051
0.273686
0.271235
0.268827
0.266164
0.263148
0.259989
0.256401
0.250692
0.239343
0.226042
0.220931
0.216203
0.211418
0.206682
0.201942
0.197376
0.193269
0.18984
0.187174
0.185228
0.183983
0.183469
0.183585
0.184179
0.185187
0.18662
0.188338
0.19019
0.192301
0.194979
0.19877
0.203891
0.210825
0.216292
0.192093
0.161809
0.160997
0.163892
0.166222
0.167906
0.169148
0.170241
0.171251
0.172531
0.174444
0.177326
0.180467
0.184622
0.190465
0.202774
0.229459
0.285701
0.256687
-0.0696595
0.05928
0.104315
0.122593
0.135615
0.151113
0.173387
0.21477
0.300232
1.99093
1.14881
-0.0127084
-0.129835
-0.025858
0.0701289
0.229259
0.528501
1.06171
0.780389
0.758579
0.807523
0.854338
1.00554
1.08083
0.998503
1.00818
1.10458
1.22456
1.29476
1.30723
1.34984
1.42281
1.49472
1.55014
1.60542
1.66599
1.71909
1.76406
1.81038
1.85755
1.90059
1.94051
1.97826
2.01217
2.04218
2.06863
2.0905
2.10693
2.1174
2.12134
2.11859
2.10925
2.09345
2.07142
2.04353
2.01028
1.97228
1.93021
1.88476
1.83667
1.78664
1.73535
1.68339
1.6313
1.57952
1.52841
1.47821
1.4291
1.3812
1.33455
1.28918
1.24508
1.20221
1.16055
1.12006
1.0807
1.04244
1.00524
0.969042
0.933821
0.899536
0.866154
0.833644
0.801976
0.771123
0.741058
0.711756
0.683189
0.655333
0.628164
0.601659
0.575798
0.550564
0.525944
0.501927
0.478504
0.455671
0.433425
0.411761
0.39068
0.37018
0.350258
0.330914
0.312145
0.293946
0.276314
0.259242
0.242724
0.226753
0.211319
0.196413
0.182027
0.168149
0.154769
0.141876
0.129459
0.117506
0.106007
0.0949496
0.0843225
0.0741141
0.0643126
0.0549063
0.0458834
0.037232
0.0289404
0.0209969
0.0133899
0.00610809
-0.000859446
-0.00752338
-0.0138939
-0.0199808
-0.0257932
-0.0313398
-0.036629
-0.0416683
-0.046465
-0.0510259
-0.0553576
-0.0594661
-0.0633572
-0.0670364
-0.0705092
-0.0737807
-0.0768558
-0.0797395
-0.0824363
-0.0849509
-0.0872877
-0.0894513
-0.0914458
-0.0932756
-0.0949449
-0.0964579
-0.0978188
-0.0990318
-0.100101
-0.101031
-0.101826
-0.102491
-0.103029
-0.103445
-0.103745
-0.103932
-0.104011
-0.103987
-0.103865
-0.103649
-0.103345
-0.102957
-0.102489
-0.101947
-0.101335
-0.100658
-0.0999194
-0.0991248
-0.0982781
-0.0973835
-0.096445
-0.0954666
-0.0944522
-0.0934053
-0.0923296
-0.0912285
-0.0901051
-0.0889626
-0.087804
-0.0866321
-0.0854496
-0.084259
-0.0830629
-0.0818634
-0.0806627
-0.0794629
-0.0782659
-0.0770735
-0.0758874
-0.0747092
-0.0735404
-0.0723825
-0.0712367
-0.0701042
-0.0689862
-0.0678837
-0.0667977
-0.0657292
-0.0646789
-0.0636475
-0.0626359
-0.0616445
-0.0606739
-0.0597245
-0.0587968
-0.0578909
-0.0570071
-0.0561455
-0.055306
-0.0544886
-0.0536931
-0.0529191
-0.0521662
-0.0514339
-0.0507215
-0.0500281
-0.049353
-0.0486951
-0.0480533
-0.0474265
-0.0468135
-0.0462129
-0.0456236
-0.0450442
-0.0444736
-0.0439104
-0.0433537
-0.0428025
-0.0422558
-0.041713
-0.0411735
-0.0406368
-0.0401028
-0.0395713
-0.0390424
-0.0385162
-0.0379931
-0.0374734
-0.0369576
-0.0364459
-0.0359389
-0.0354369
-0.0349403
-0.0344492
-0.0339639
-0.0334843
-0.0330103
-0.0325419
-0.0320788
-0.0316206
-0.031167
-0.0307178
-0.0302723
-0.0298304
-0.0293914
-0.0289548
-0.0285199
-0.0280861
-0.0276525
-0.0272182
-0.0267821
-0.0263434
-0.0259011
-0.0254544
-0.0250029
-0.024546
-0.0240839
-0.0236167
-0.0231449
-0.0226693
-0.0221907
-0.0217102
-0.0212288
-0.0207478
-0.0202681
-0.019791
-0.0193173
-0.018848
-0.0183838
-0.0179254
-0.0174733
-0.0170281
-0.01659
-0.0161594
-0.0157362
-0.0153207
-0.0149129
-0.0145126
-0.0141198
-0.0137344
-0.0133562
-0.012985
-0.0126206
-0.0122627
-0.0119112
-0.0115657
-0.0112261
-0.010892
-0.0105633
-0.0102396
-0.00992079
-0.00960655
-0.00929667
-0.00899093
-0.0086891
-0.00839099
-0.00809639
-0.0078051
-0.00751694
-0.00723173
-0.00694929
-0.00666948
-0.00639213
-0.00611709
-0.00584422
-0.00557338
-0.00530445
-0.00503729
-0.0047718
-0.00450785
-0.00424535
-0.00398418
-0.00372425
-0.00346547
-0.00320773
-0.00295095
-0.00269505
-0.00243995
-0.00218556
-0.00193181
-0.00167859
-0.00142597
-0.00117338
-0.000922324
-0.00066675
-0.000423591
-0.00011378
1.61434
0.392876
0.324306
0.300648
0.265228
0.202913
0.110529
0.0775967
0.0944589
-0.0415961
0.301397
0.459444
0.635439
0.237471
0.167261
0.17641
0.206432
0.210558
0.199464
0.206742
0.214485
0.21514
0.221007
0.216513
0.200228
0.184883
0.178249
0.183652
0.216311
0.261904
0.289255
0.291632
0.288761
0.27662
0.263231
0.256077
0.268965
0.287542
0.302182
0.311877
0.317512
0.319765
0.319332
0.316987
0.313279
0.30849
0.302815
0.296514
0.290009
0.283872
0.278685
0.274593
0.271232
0.268163
0.265154
0.262111
0.258964
0.255331
0.250045
0.241656
0.231582
0.223814
0.217487
0.211924
0.206911
0.202363
0.198306
0.194782
0.191815
0.189421
0.187587
0.186292
0.185529
0.185257
0.185411
0.185939
0.186806
0.187952
0.189298
0.190846
0.192534
0.194236
0.195686
0.195844
0.191645
0.177653
0.162646
0.166037
0.168297
0.169283
0.170034
0.170485
0.170849
0.171365
0.172139
0.173341
0.175231
0.177524
0.180303
0.184429
0.190901
0.200032
0.207815
0.177209
0.134587
0.138231
0.144199
0.149183
0.155449
0.163874
0.17798
0.208124
0.267943
0.228753
-0.168832
0.0282345
0.0867074
0.118158
0.144751
0.156094
0.151808
1.89231
0.250665
-0.043086
0.179085
0.435831
0.903738
0.938611
0.733713
0.810495
0.899688
1.03335
1.07177
0.990159
1.00116
1.09537
1.20446
1.26489
1.33311
1.41722
1.47958
1.52465
1.58003
1.64078
1.69459
1.74627
1.7974
1.84307
1.88439
1.9229
1.95647
1.98404
2.00495
2.01808
2.02344
2.02139
2.01203
1.9956
1.97251
1.94335
1.90882
1.86971
1.82684
1.78103
1.7331
1.6838
1.63381
1.58372
1.53401
1.48504
1.43707
1.39024
1.34463
1.30027
1.25713
1.21517
1.17436
1.13465
1.09599
1.05836
1.02171
0.985995
0.951188
0.917249
0.884147
0.851853
0.820344
0.789597
0.759591
0.730306
0.701721
0.673814
0.646562
0.619945
0.593942
0.568535
0.543712
0.519462
0.495777
0.472653
0.45009
0.428087
0.406645
0.385766
0.365451
0.345701
0.326517
0.307896
0.289837
0.272337
0.25539
0.238991
0.223134
0.207809
0.193008
0.178723
0.164942
0.151655
0.138853
0.126524
0.114657
0.103241
0.092265
0.0817175
0.0715872
0.0618625
0.0525317
0.0435831
0.0350048
0.026785
0.0189117
0.0113731
0.00415793
-0.00274523
-0.00934716
-0.0156582
-0.0216883
-0.0274466
-0.032942
-0.0381824
-0.0431756
-0.0479287
-0.0524483
-0.0567406
-0.0608115
-0.0646667
-0.0683116
-0.0717512
-0.0749906
-0.0780346
-0.0808879
-0.0835552
-0.0860408
-0.0883493
-0.0904848
-0.0924517
-0.0942541
-0.0958962
-0.0973821
-0.098716
-0.099902
-0.100944
-0.101847
-0.102615
-0.103251
-0.103762
-0.10415
-0.104422
-0.10458
-0.104631
-0.104579
-0.104428
-0.104184
-0.103852
-0.103436
-0.10294
-0.102371
-0.101732
-0.101028
-0.100264
-0.0994436
-0.0985721
-0.0976534
-0.0966915
-0.0956905
-0.0946541
-0.0935862
-0.0924902
-0.0913695
-0.0902274
-0.0890671
-0.0878914
-0.0867033
-0.0855053
-0.0843001
-0.08309