/*--------------------------------*- C++ -*----------------------------------*\
| =========                 |                                                 |
| \\      /  F ield         | OpenFOAM: The Open Source CFD Toolbox           |
|  \\    /   O peration     | Version:  v2006                                 |
|   \\  /    A nd           | Website:  www.openfoam.com                      |
|    \\/     M anipulation  |                                                 |
\*---------------------------------------------------------------------------*/
FoamFile
{
    version     2.0;
    format      ascii;
    class       volScalarField;
    location    "0";
    object      f;
}
// * * * * * * * * * * * * * * * * * * * * * * * * * * * * * * * * * * * * * //

dimensions      [0 0 0 0 0 0 0];


internalField   nonuniform List<scalar> 
2500
(
-7.35646e-86
5.04449e-86
-2.80352e-85
7.56247e-84
1.79582e-83
1.7053e-83
1.70413e-83
5.098e-84
1.71338e-85
1.70084e-87
9.5784e-90
3.78875e-92
1.17391e-94
3.04299e-97
6.87726e-100
1.38903e-102
2.5417e-105
4.24416e-108
6.49512e-111
9.14135e-114
1.18737e-116
1.42874e-119
1.59901e-122
1.67125e-125
1.63778e-128
1.51063e-131
1.31618e-134
1.08692e-137
8.53427e-141
6.38967e-144
4.574e-147
3.13826e-150
2.06845e-153
1.31243e-156
8.03207e-160
4.74979e-163
2.71858e-166
1.50835e-169
8.1242e-173
4.25361e-176
2.1676e-179
1.07635e-182
5.21382e-186
2.46624e-189
1.14028e-192
5.15798e-196
2.28461e-199
9.91659e-203
4.22145e-206
1.71705e-209
-1.02707e-83
6.47376e-84
-3.53333e-83
9.5006e-82
2.25648e-81
2.14267e-81
2.14121e-81
6.4047e-82
2.21329e-83
2.20206e-85
1.23825e-87
4.88921e-90
1.51401e-92
3.92961e-95
8.90769e-98
1.80639e-100
3.3193e-103
5.56301e-106
8.53714e-109
1.20368e-111
1.56479e-114
1.88301e-117
2.10623e-120
2.19906e-123
2.15194e-126
1.98149e-129
1.72314e-132
1.42008e-135
1.11262e-138
8.31185e-142
5.93658e-145
4.0639e-148
2.67246e-151
1.69184e-154
1.03308e-157
6.09557e-161
3.48121e-164
1.92732e-167
1.03588e-170
5.41232e-174
2.75245e-177
1.36404e-180
6.59452e-184
3.1134e-187
1.43682e-190
6.48756e-194
2.86844e-197
1.24293e-200
5.28218e-204
2.14577e-207
-1.38863e-81
8.0139e-82
-4.29289e-81
1.15042e-79
2.73306e-79
2.59512e-79
2.59336e-79
7.7561e-80
2.76152e-81
2.75358e-83
1.54577e-85
6.09202e-88
1.88562e-90
4.90197e-93
1.11504e-95
2.27134e-98
4.19262e-101
7.05376e-104
1.08553e-106
1.53313e-109
1.99448e-112
2.39977e-115
2.68213e-118
2.79671e-121
2.7322e-124
2.51086e-127
2.17878e-130
1.79145e-133
1.40021e-136
1.04344e-139
7.43389e-143
5.07602e-146
3.32959e-149
2.10252e-152
1.28062e-155
7.53741e-159
4.29407e-162
2.37158e-165
1.27161e-168
6.62838e-172
3.36309e-175
1.66287e-178
8.02131e-182
3.77873e-185
1.74013e-188
7.84054e-192
3.4595e-195
1.49601e-198
6.34519e-202
2.57335e-205
-1.84432e-79
9.71872e-80
-5.10814e-79
1.36415e-77
3.24192e-77
3.07819e-77
3.07612e-77
9.19861e-78
3.38015e-79
3.37772e-81
1.89273e-83
7.44559e-86
2.30405e-88
6.00202e-91
1.37073e-93
2.8061e-96
5.20498e-99
8.79224e-102
1.35692e-104
1.91959e-107
2.49872e-110
3.00571e-113
3.35625e-116
3.49464e-119
3.40788e-122
3.1253e-125
2.7058e-128
2.21942e-131
1.73037e-134
1.28618e-137
9.13948e-141
6.22434e-144
4.07217e-147
2.56475e-150
1.55814e-153
9.14737e-157
5.19813e-160
2.86375e-163
1.53176e-166
7.96517e-170
4.03179e-173
1.98888e-176
9.57204e-180
4.49918e-183
2.06736e-186
9.29495e-190
4.09261e-193
1.76615e-196
7.4758e-200
3.02676e-203
-2.40456e-77
1.1537e-77
-5.9479e-77
1.5827e-75
3.76303e-75
3.57286e-75
3.57046e-75
1.06753e-75
4.05601e-77
4.06161e-79
2.2716e-81
8.91961e-84
2.76031e-86
7.20892e-89
1.65393e-91
3.40449e-94
6.34788e-97
1.07676e-99
1.66654e-102
2.3613e-105
3.07517e-108
3.69765e-111
4.12449e-114
4.28781e-117
4.17328e-120
3.81882e-123
3.29834e-126
2.69864e-129
2.09852e-132
1.55569e-135
1.10249e-138
7.48815e-142
4.88582e-145
3.06898e-148
1.85953e-151
1.08882e-154
6.17138e-158
3.39127e-161
1.80937e-164
9.38559e-168
4.73928e-171
2.33233e-174
1.11989e-177
5.25181e-181
2.40779e-184
1.08018e-187
4.74587e-191
2.04375e-194
8.63302e-198
3.48923e-201
-3.07513e-75
1.33942e-75
-6.77124e-75
1.79503e-73
4.2705e-73
4.05454e-73
4.05183e-73
1.21128e-73
4.76778e-75
4.78404e-77
2.6702e-79
1.0466e-81
3.24005e-84
8.48831e-87
1.9577e-89
4.05415e-92
7.60122e-95
1.29492e-97
2.00989e-100
2.852e-103
3.71548e-106
4.46511e-109
4.97446e-112
5.16258e-115
5.01426e-118
4.5777e-121
3.94388e-124
3.21832e-127
2.49588e-130
1.84516e-133
1.30401e-136
8.83226e-140
5.74686e-143
3.59991e-146
2.17529e-149
1.27028e-152
7.18081e-156
3.93567e-159
2.09444e-162
1.08369e-165
5.45858e-169
2.6798e-172
1.28366e-175
6.00579e-179
2.74717e-182
1.22967e-185
5.39081e-189
2.3165e-192
9.76459e-196
3.93958e-199
-3.85449e-73
1.5194e-73
-7.52942e-73
1.98819e-71
4.73395e-71
4.49439e-71
4.4914e-71
1.34249e-71
5.48586e-73
5.51525e-75
3.07165e-77
1.20187e-79
3.72356e-82
9.79199e-85
2.2719e-87
4.73596e-90
8.9318e-93
1.52832e-95
2.37881e-98
3.38007e-101
4.40423e-104
5.28902e-107
5.8842e-110
6.0953e-113
5.90706e-116
5.37949e-119
4.62247e-122
3.76173e-125
2.9091e-128
2.14452e-131
1.51122e-134
1.02064e-137
6.62203e-141
4.1364e-144
2.49247e-147
1.45149e-150
8.18285e-154
4.47288e-157
2.37406e-160
1.2252e-163
6.15574e-167
3.01455e-170
1.44049e-173
6.72348e-177
3.06827e-180
1.37026e-183
5.99369e-187
2.56991e-190
1.08095e-193
4.35323e-197
-4.7312e-71
1.68237e-71
-8.16952e-71
2.14829e-69
5.12087e-69
4.86156e-69
4.85834e-69
1.45195e-69
6.17334e-71
6.21782e-73
3.45493e-75
1.34964e-77
4.18645e-80
1.10594e-82
2.58335e-85
5.42407e-88
1.02929e-90
1.76914e-93
2.76118e-96
3.92812e-99
5.11836e-102
6.1411e-105
6.8215e-108
7.05187e-111
6.8179e-114
6.19284e-117
5.30668e-120
4.30619e-123
3.32041e-126
2.4405e-129
1.7147e-132
1.15464e-135
7.46943e-139
4.65214e-142
2.79519e-145
1.62316e-148
9.12515e-152
4.97428e-155
2.63308e-158
1.35528e-161
6.79165e-165
3.31751e-168
1.58132e-171
7.36278e-175
3.35199e-178
1.49347e-181
6.51767e-185
2.78833e-188
1.17025e-191
4.70406e-195
-5.68166e-69
1.81631e-69
-8.63939e-69
2.26191e-67
5.39982e-67
5.12621e-67
5.12283e-67
1.53075e-67
6.78818e-69
6.84884e-71
3.7962e-73
1.48072e-75
4.60117e-78
1.22207e-80
2.87648e-83
6.08679e-86
1.16254e-88
2.00724e-91
3.14103e-94
4.47314e-97
5.82741e-100
6.98417e-103
7.74444e-106
7.98832e-109
7.70378e-112
6.9783e-115
5.96246e-118
4.8239e-121
3.70832e-124
2.71727e-127
1.90331e-130
1.27774e-133
8.24075e-137
5.11718e-140
3.06553e-143
1.77496e-146
9.95003e-150
5.40868e-153
2.85513e-156
1.4656e-159
7.32498e-163
3.56872e-166
1.69673e-169
7.88046e-173
3.57891e-176
1.59076e-179
6.92607e-183
2.95627e-186
1.23797e-189
4.96672e-193
-6.66878e-67
1.90974e-67
-8.89363e-67
2.31765e-65
5.54418e-65
5.26308e-65
5.25963e-65
1.57138e-65
7.28664e-67
7.36339e-69
4.07072e-71
1.58567e-73
4.93924e-76
1.32026e-78
3.1343e-81
6.68837e-84
1.28605e-86
2.23058e-89
3.49919e-92
4.98736e-95
6.49467e-98
7.77373e-101
8.60322e-104
8.85299e-107
8.51469e-110
7.69052e-113
6.55112e-116
5.28367e-119
4.04896e-122
2.95747e-125
2.065e-128
1.38193e-131
8.88493e-135
5.50021e-138
3.28499e-141
1.89636e-144
1.05993e-147
5.74503e-151
3.0241e-154
1.54803e-157
7.71598e-161
3.74922e-164
1.7779e-167
8.23643e-171
3.73125e-174
1.65443e-177
7.18607e-181
3.06009e-184
1.27851e-187
5.11934e-191
-7.64219e-65
1.9531e-65
-8.89974e-65
2.30778e-63
5.53588e-63
5.25505e-63
5.25162e-63
1.56873e-63
7.62771e-65
7.71905e-67
4.25546e-69
1.65577e-71
5.17415e-74
1.39347e-76
3.33989e-79
7.19165e-82
1.39245e-84
2.42595e-87
3.81446e-90
5.44e-93
7.07956e-96
8.46085e-99
9.34356e-102
9.5901e-105
9.19727e-108
8.28171e-111
7.03237e-114
5.65345e-117
4.31814e-120
3.14374e-123
2.18789e-126
1.45941e-129
9.353e-133
5.77164e-136
3.43635e-139
1.97765e-142
1.10204e-145
5.95563e-149
3.12588e-152
1.59559e-155
7.93092e-159
3.84317e-162
1.8176e-165
8.3984e-169
3.79493e-172
1.67847e-175
7.2727e-179
3.08959e-182
1.28783e-185
5.14628e-189
-8.54053e-63
1.94018e-63
-8.64333e-63
2.22958e-61
5.36855e-61
5.09607e-61
5.09277e-61
1.52103e-61
7.77807e-63
7.88109e-65
4.33192e-67
1.68411e-69
5.28453e-72
1.43574e-74
3.47801e-77
7.5614e-80
1.47446e-82
2.58011e-85
4.06532e-88
5.79976e-91
7.54096e-94
8.99634e-97
9.91145e-100
1.01448e-102
9.69976e-106
8.70616e-109
7.36829e-112
5.90352e-115
4.49384e-118
3.26054e-121
2.26151e-124
1.50347e-127
9.60354e-131
5.90694e-134
3.50564e-137
2.01118e-140
1.11726e-143
6.01959e-147
3.15007e-150
1.60326e-153
7.94639e-157
3.83994e-160
1.81113e-163
8.34618e-167
3.7615e-170
1.65944e-173
7.17236e-177
3.03955e-180
1.26396e-183
5.04045e-187
-9.29612e-61
1.86931e-61
-8.1314e-61
2.08613e-59
5.04928e-59
4.79291e-59
4.78982e-59
1.4303e-59
7.71687e-61
7.82737e-63
4.28886e-65
1.6666e-67
5.25708e-70
1.44294e-72
3.53687e-75
7.76801e-78
1.52568e-80
2.68102e-83
4.232e-86
6.03791e-89
7.84138e-92
9.33586e-95
1.02589e-97
1.04693e-100
9.97776e-104
8.92547e-107
7.52773e-110
6.01009e-113
4.55884e-116
3.29608e-119
2.27818e-122
1.50933e-125
9.60814e-129
5.88997e-132
3.48406e-135
1.99234e-138
1.10329e-141
5.92582e-145
3.09157e-148
1.5688e-151
7.75293e-155
3.73578e-158
1.75709e-161
8.07507e-165
3.62962e-168
1.59709e-171
6.88529e-175
2.91063e-178
1.2074e-181
4.80476e-185
-9.84175e-59
1.74394e-59
-7.39294e-59
1.88641e-57
4.59868e-57
4.36512e-57
4.36233e-57
1.30242e-57
7.4394e-59
7.55233e-61
4.12433e-63
1.60268e-65
5.08883e-68
1.4134e-70
3.50964e-73
7.79101e-76
1.54127e-78
2.71926e-81
4.29884e-84
6.13168e-87
7.95145e-90
9.44527e-93
1.03498e-95
1.05285e-98
1e-101
8.91369e-105
7.49058e-108
5.95859e-111
4.50324e-114
3.24404e-117
2.23413e-120
1.47488e-123
9.35593e-127
5.71559e-130
3.36947e-133
1.92041e-136
1.06e-139
5.67518e-143
2.95157e-146
1.49319e-149
7.35725e-153
3.53478e-156
1.6578e-159
7.59756e-163
3.40568e-166
1.49456e-169
6.42651e-173
2.70978e-176
1.12129e-179
4.45243e-183
-1.01193e-56
1.57257e-57
-6.47626e-57
1.64447e-55
4.0489e-55
3.84327e-55
3.84082e-55
1.14651e-55
6.95908e-57
7.06906e-59
3.84674e-61
1.49573e-63
4.78823e-66
1.34821e-68
3.39553e-71
7.622e-74
1.51865e-76
2.68928e-79
4.25636e-82
6.06741e-85
7.85405e-88
9.30567e-91
1.01655e-93
1.03059e-96
9.75336e-100
8.6615e-103
7.25114e-106
5.7462e-109
4.32626e-112
3.10481e-115
2.13029e-118
1.40117e-121
8.85626e-125
5.39115e-128
3.16714e-131
1.79895e-134
9.89637e-138
5.28116e-141
2.73787e-144
1.38075e-147
6.78242e-151
3.24887e-154
1.51926e-157
6.94279e-161
3.1035e-164
1.35824e-167
5.82482e-171
2.44969e-174
1.0111e-177
4.00594e-181
-1.00884e-54
1.36793e-55
-5.44347e-55
1.37786e-53
3.43989e-53
3.26525e-53
3.26318e-53
9.73903e-54
6.30687e-55
6.40888e-57
3.47441e-59
1.35284e-61
4.3747e-64
1.25126e-66
3.20021e-69
7.26636e-72
1.45793e-74
2.59038e-77
4.10293e-80
5.84295e-83
7.54748e-86
8.91691e-89
9.70842e-92
9.80683e-95
9.2458e-98
8.17874e-101
6.81999e-104
5.38317e-107
4.03701e-110
2.88594e-113
1.97251e-116
1.29248e-119
8.13887e-123
4.93638e-126
2.8896e-129
1.63555e-132
8.96668e-136
4.76899e-139
2.46424e-142
1.23877e-145
6.06597e-149
2.89679e-152
1.35057e-155
6.15388e-159
2.74301e-162
1.19713e-165
5.11993e-169
2.14753e-172
8.8408e-176
3.49472e-179
-9.73439e-53
1.14533e-53
-4.36292e-53
1.10546e-51
2.81435e-51
2.67161e-51
2.66993e-51
7.96694e-52
5.52834e-53
5.6183e-55
3.03373e-57
1.18409e-59
3.87665e-62
1.12887e-64
2.93542e-67
6.74339e-70
1.3621e-72
2.42715e-75
3.84557e-78
5.46887e-81
7.04683e-84
8.29913e-87
9.00336e-90
9.05956e-93
8.50704e-96
7.49448e-99
6.22369e-102
4.89232e-105
3.65394e-108
2.60157e-111
1.77108e-114
1.15597e-117
7.25136e-121
4.38157e-124
2.55541e-127
1.44119e-130
7.87329e-134
4.17306e-137
2.14906e-140
1.07679e-143
5.25583e-147
2.50205e-150
1.16296e-153
5.2832e-157
2.34804e-160
1.02184e-163
4.35808e-167
1.82301e-170
7.48495e-174
2.95185e-177
-9.07296e-51
9.20773e-52
-3.30093e-51
8.45161e-50
2.21245e-49
2.10046e-49
2.09915e-49
6.26252e-50
4.67834e-51
4.75357e-53
2.55605e-55
1.00133e-57
3.32818e-60
9.89114e-63
2.61783e-65
6.08482e-68
1.23684e-70
2.20924e-73
3.4997e-76
4.96798e-79
6.38326e-82
7.49151e-85
8.0958e-88
8.11296e-91
7.586e-94
6.65447e-97
5.5024e-100
4.30686e-103
3.20308e-106
2.27105e-109
1.53973e-112
1.00092e-115
6.25398e-119
3.7643e-122
2.1871e-125
1.22891e-128
6.68935e-132
3.53302e-135
1.81318e-138
9.05431e-142
4.40491e-145
2.09023e-148
9.68506e-152
4.38635e-155
1.94363e-158
8.4338e-162
3.58673e-165
1.49618e-168
6.12641e-172
2.41029e-175
-8.15056e-49
7.08806e-50
-2.31446e-49
6.11719e-48
1.66707e-47
1.583e-47
1.58202e-47
4.71879e-48
3.81431e-49
3.87378e-51
2.0738e-53
8.16757e-56
2.76503e-58
8.40866e-61
2.26732e-63
5.33169e-66
1.09005e-68
1.95056e-71
3.08773e-74
4.37324e-77
5.60099e-80
6.54844e-83
7.0473e-86
7.03155e-89
6.54561e-92
5.71611e-95
4.70535e-98
3.66664e-101
2.71499e-104
1.91668e-107
1.29397e-110
8.37667e-114
5.21264e-117
3.12503e-120
1.80861e-123
1.01238e-126
5.49024e-130
2.88919e-133
1.47751e-136
7.35263e-140
3.56499e-143
1.68611e-146
7.78748e-150
3.51589e-153
1.55316e-156
6.71938e-160
2.8493e-163
1.18519e-166
4.83957e-170
1.89934e-173
-7.03976e-47
5.20832e-48
-1.44598e-47
4.15256e-46
1.20065e-45
1.14051e-45
1.13981e-45
3.39907e-46
2.98938e-47
3.03362e-49
1.61652e-51
6.41447e-54
2.2204e-56
6.92848e-59
1.9048e-61
4.53009e-64
9.30932e-67
1.66777e-69
2.63669e-72
3.72419e-75
4.75245e-78
5.53335e-81
5.92842e-84
5.88795e-87
5.45542e-90
4.74174e-93
3.88508e-96
3.01349e-99
2.22122e-102
1.5611e-105
1.0493e-108
6.76363e-112
4.19123e-115
2.50238e-118
1.44246e-121
8.04268e-125
4.34499e-128
2.278e-131
1.16072e-134
5.75571e-138
2.78107e-141
1.31091e-144
6.03465e-148
2.71579e-151
1.19596e-154
5.15823e-158
2.1808e-161
9.04487e-165
3.68287e-168
1.44174e-171
-5.82999e-45
3.64006e-46
-7.21243e-46
2.60572e-44
8.23925e-44
7.83173e-44
7.82699e-44
2.33361e-44
2.24638e-45
2.2772e-47
1.20759e-49
4.84135e-52
1.72147e-54
5.52709e-57
1.55007e-59
3.72629e-62
7.69095e-65
1.37844e-67
2.17517e-70
3.06234e-73
3.8921e-76
4.51127e-79
4.81043e-82
4.75433e-85
4.38344e-88
3.79131e-91
3.09126e-94
2.38627e-97
1.75061e-100
1.22467e-103
8.19441e-107
5.25863e-110
3.24453e-113
1.92898e-116
1.10735e-119
6.14939e-123
3.30913e-126
1.72828e-129
8.77337e-133
4.33467e-136
2.08701e-139
9.80351e-143
4.49776e-146
2.01748e-149
8.85597e-153
3.80769e-156
1.60491e-159
6.63658e-163
2.69443e-166
1.05206e-169
-4.61498e-43
2.40968e-44
-1.50072e-44
1.47377e-42
5.36748e-42
5.1084e-42
5.10537e-42
1.52182e-42
1.61392e-43
1.63388e-45
8.62097e-48
3.50479e-50
1.28707e-52
4.26358e-55
1.21994e-57
2.96203e-60
6.13469e-63
1.09913e-65
1.73004e-68
2.42651e-71
3.0702e-74
3.54134e-77
3.75707e-80
3.69415e-83
3.38839e-86
2.91566e-89
2.36526e-92
1.81674e-95
1.32629e-98
9.23384e-102
6.14958e-105
3.92837e-108
2.41296e-111
1.42834e-114
8.16475e-118
4.51534e-121
2.42001e-124
1.25895e-127
6.36641e-131
3.13371e-134
1.5033e-137
7.03655e-141
3.21715e-144
1.4382e-147
6.29242e-151
2.69681e-154
1.13314e-157
4.67146e-161
1.89097e-164
7.36386e-168
-3.47965e-41
1.50361e-42
2.70659e-42
7.12854e-41
3.30471e-40
3.15293e-40
3.15112e-40
9.39073e-41
1.10501e-41
1.11694e-43
5.86297e-46
2.42872e-48
9.26925e-51
3.17598e-53
9.26906e-56
2.27071e-58
4.71435e-61
8.43643e-64
1.32367e-66
1.84855e-69
2.32743e-72
2.67053e-75
2.81796e-78
2.75571e-81
2.51394e-84
2.15161e-87
1.73623e-90
1.32669e-93
9.63619e-97
6.67565e-100
4.42437e-103
2.81296e-106
1.71988e-109
1.01351e-112
5.76816e-116
3.17637e-119
1.69533e-122
8.78389e-126
4.42446e-129
2.16949e-132
1.03686e-135
4.8356e-139
2.20303e-142
9.81446e-146
4.27957e-149
1.82813e-152
7.6568e-156
3.14675e-159
1.26991e-162
4.93186e-166
-2.48892e-39
8.79233e-41
5.53064e-40
2.52798e-39
1.91205e-38
1.83335e-38
1.83236e-38
5.45934e-39
7.18329e-40
7.24858e-42
3.78486e-44
1.60782e-46
6.42295e-49
2.28099e-51
6.78507e-54
1.67493e-56
3.48193e-59
6.21798e-62
9.71795e-65
1.35055e-67
1.69128e-70
1.92969e-73
2.02456e-76
1.96848e-79
1.78557e-82
1.51966e-85
1.21954e-88
9.26854e-92
6.69665e-95
4.61542e-98
3.04361e-101
1.92565e-104
1.17178e-107
6.87325e-111
3.89413e-114
2.13499e-117
1.13465e-120
5.85445e-124
2.93697e-127
1.43444e-130
6.8293e-134
3.17309e-137
1.44036e-140
6.39404e-144
2.77848e-147
1.18291e-150
4.93819e-154
2.023e-157
8.13867e-161
3.15191e-164
-1.68101e-37
4.78367e-39
7.14461e-38
1.31721e-38
1.03123e-36
9.99296e-37
9.98825e-37
2.97513e-37
4.41456e-38
4.44718e-40
2.30985e-42
1.01485e-44
4.27726e-47
1.57658e-49
4.7738e-52
1.18567e-54
2.46497e-57
4.38859e-60
6.82713e-63
9.4363e-66
1.17478e-68
1.3323e-71
1.3893e-74
1.34266e-77
1.21063e-80
1.0243e-83
8.17296e-87
6.1767e-90
4.43838e-93
3.04271e-96
1.9961e-99
1.25654e-102
7.60865e-106
4.44166e-109
2.5048e-112
1.36707e-115
7.23343e-119
3.71628e-122
1.85657e-125
9.03093e-129
4.28264e-132
1.98221e-135
8.96422e-139
3.96494e-142
1.71684e-145
7.28408e-149
3.03061e-152
1.23747e-155
4.96258e-159
1.91637e-162
-1.06623e-35
2.39972e-37
7.74656e-36
-8.27228e-36
5.11716e-35
5.07586e-35
5.07419e-35
1.511e-35
2.55196e-36
2.56709e-38
1.32645e-40
6.0966e-43
2.73396e-45
1.04641e-47
3.2194e-50
8.03105e-53
1.66753e-55
2.95694e-58
4.57524e-61
6.28553e-64
7.77554e-67
8.76111e-70
9.07705e-73
8.71635e-76
7.81001e-79
6.56749e-82
5.20889e-85
3.91367e-88
2.79628e-91
1.90639e-94
1.24393e-97
7.78966e-101
4.6929e-104
2.72605e-107
1.52994e-110
8.31126e-114
4.37772e-117
2.23921e-120
1.11387e-123
5.39566e-127
2.54837e-130
1.17486e-133
5.29273e-137
2.33228e-140
1.00622e-143
4.25403e-147
1.76384e-150
7.17804e-154
2.86918e-157
1.1047e-160
-6.31044e-34
1.09645e-35
7.54498e-34
-9.81025e-34
2.27802e-33
2.38604e-33
2.38601e-33
7.10306e-34
1.37942e-34
1.38641e-36
7.12899e-39
3.48059e-41
1.6749e-43
6.65174e-46
2.07444e-48
5.1875e-51
1.07425e-53
1.89532e-56
2.91454e-59
3.9773e-62
4.88631e-65
5.46764e-68
5.62605e-71
5.36616e-74
4.77656e-77
3.99087e-80
3.14553e-83
2.34902e-86
1.66845e-89
1.13096e-92
7.33856e-96
4.57066e-99
2.73916e-102
1.58304e-105
8.84053e-109
4.77946e-112
2.50569e-115
1.27585e-118
6.31862e-122
3.04766e-125
1.43341e-128
6.58161e-132
2.95334e-135
1.29642e-138
5.57234e-142
2.34728e-145
9.69812e-149
3.93313e-152
1.56687e-155
6.01456e-159
-3.45813e-32
4.48092e-34
6.75363e-32
-7.81397e-32
8.55982e-32
1.02933e-31
1.03007e-31
3.06552e-32
6.92209e-33
6.95957e-35
3.56335e-37
1.88643e-39
9.81688e-42
4.03666e-44
1.27242e-46
3.18302e-49
6.56444e-52
1.15111e-54
1.75778e-57
2.38115e-60
2.90363e-63
3.22511e-66
3.29447e-69
3.11999e-72
2.75799e-75
2.28885e-78
1.79225e-81
1.32995e-84
9.38827e-88
6.32598e-91
4.08107e-94
2.52757e-97
1.50653e-100
8.66077e-104
4.81191e-107
2.58856e-110
1.35055e-113
6.84459e-117
3.37436e-120
1.62038e-123
7.58848e-127
3.46978e-130
1.55067e-133
6.78016e-137
2.90312e-140
1.21835e-143
5.01552e-147
2.0269e-150
8.04701e-154
3.07928e-157
-1.73824e-30
1.5863e-32
5.58848e-30
-5.01432e-30
2.179e-30
4.03274e-30
4.04263e-30
1.2027e-30
3.19649e-31
3.22194e-33
1.6443e-35
9.70179e-38
5.4918e-40
2.32957e-42
7.39754e-45
1.84704e-47
3.78777e-50
6.59425e-53
9.99074e-56
1.34252e-58
1.62398e-61
1.78957e-64
1.81398e-67
1.70504e-70
1.49625e-73
1.23298e-76
9.58882e-80
7.06839e-83
4.95775e-86
3.31992e-89
2.12893e-92
1.31087e-95
7.7693e-99
4.44207e-102
2.45496e-105
1.31387e-108
6.82084e-112
3.44013e-115
1.68803e-118
8.06911e-122
3.7622e-125
1.71287e-128
7.62303e-132
3.3196e-135
1.41578e-138
5.91886e-142
2.42752e-145
9.77471e-149
3.86698e-152
1.475e-155
-7.92115e-29
4.50255e-31
4.26025e-28
-2.7041e-28
-2.33842e-29
1.41527e-28
1.42487e-28
4.23753e-29
1.34343e-29
1.36281e-31
6.94397e-34
4.73523e-36
2.9229e-38
1.27247e-40
4.0557e-43
1.00838e-45
2.053e-48
3.54428e-51
5.32292e-54
7.09004e-57
8.50246e-60
9.29044e-63
9.34014e-66
8.70968e-69
7.5846e-72
6.20383e-75
4.79018e-78
3.50669e-81
2.44316e-84
1.62549e-87
1.03586e-90
6.3397e-94
3.73548e-97
2.12368e-100
1.16724e-103
6.21383e-107
3.20928e-110
1.61055e-113
7.86458e-117
3.74179e-120
1.73666e-123
7.87178e-127
3.48827e-130
1.5127e-133
6.42545e-137
2.67567e-140
1.09318e-143
4.38545e-147
1.72866e-150
6.57196e-154
-3.22399e-27
7.20815e-30
2.9597e-26
-1.23082e-26
-8.36357e-27
4.36199e-27
4.44133e-27
1.32031e-27
5.06644e-28
5.20794e-30
2.65627e-32
2.19438e-34
1.47356e-36
6.54122e-39
2.08436e-41
5.14803e-44
1.03884e-46
1.77627e-49
2.6418e-52
3.48518e-55
4.14055e-58
4.48349e-61
4.46825e-64
4.13169e-67
3.5689e-70
2.89646e-73
2.21967e-76
1.61318e-79
1.11608e-82
7.37556e-86
4.66959e-89
2.83996e-92
1.66321e-95
9.40013e-99
5.1373e-102
2.71982e-105
1.39725e-108
6.97583e-112
3.38939e-115
1.60479e-118
7.41328e-122
3.34492e-125
1.4757e-128
6.37197e-132
2.69531e-135
1.11783e-138
4.54909e-142
1.81795e-145
7.13936e-149
2.705e-152
-1.14922e-25
-2.5935e-28
1.83788e-24
-4.655e-25
-7.3372e-25
1.14187e-25
1.19988e-25
3.56549e-26
1.68251e-26
1.7742e-28
9.09323e-31
9.65618e-33
6.99546e-35
3.14276e-37
9.97071e-40
2.44009e-42
4.87183e-45
8.23951e-48
1.21227e-50
1.5826e-53
1.86129e-56
1.99597e-59
1.97073e-62
1.80607e-65
1.54673e-68
1.24499e-71
9.46561e-75
6.82705e-78
4.68883e-81
3.07678e-84
1.93475e-87
1.16899e-90
6.80291e-94
3.82142e-97
2.07616e-100
1.09291e-103
5.58362e-107
2.77279e-110
1.34028e-113
6.31411e-117
2.90264e-120
1.30353e-123
5.72466e-127
2.46093e-130
1.03649e-133
4.28074e-137
1.73502e-140
6.90639e-144
2.70187e-147
1.02012e-150
-3.49249e-24
-3.87591e-26
9.8767e-23
-1.41289e-23
-4.49578e-23
2.35288e-24
2.73378e-24
8.12053e-25
4.79356e-25
5.3062e-27
2.74722e-29
4.02844e-31
3.10322e-33
1.39947e-35
4.40164e-38
1.0645e-40
2.0989e-43
3.50607e-46
5.09707e-49
6.57825e-52
7.65239e-55
8.12083e-58
7.9386e-61
7.20635e-64
6.11563e-67
4.87989e-70
3.6793e-73
2.63252e-76
1.79416e-79
1.16865e-82
7.29663e-86
4.37857e-89
2.53134e-92
1.41291e-95
7.62925e-99
3.99235e-102
2.02801e-105
1.00153e-108
4.81518e-112
2.25672e-115
1.03223e-118
4.61306e-122
2.01636e-125
8.62842e-129
3.61802e-132
1.48783e-135
6.00516e-139
2.38072e-142
9.27706e-146
3.49002e-149
-8.70297e-23
-3.21349e-24
4.34195e-21
-3.23018e-22
-2.05165e-21
2.76894e-23
5.04959e-23
1.49993e-23
1.12787e-23
1.37155e-25
7.21343e-28
1.58559e-29
1.27367e-31
5.71676e-34
1.77456e-36
4.22886e-39
8.21717e-42
1.35351e-44
1.94172e-47
2.47463e-50
2.84463e-53
2.98491e-56
2.88686e-59
2.59406e-62
2.1802e-65
1.72366e-68
1.28817e-71
9.13925e-75
6.17855e-78
3.99335e-81
2.47479e-84
1.47447e-87
8.46565e-91
4.69399e-94
2.51843e-97
1.30978e-100
6.61381e-104
3.24748e-107
1.55267e-110
7.23783e-114
3.29342e-117
1.46445e-120
6.36994e-124
2.71298e-127
1.13239e-130
4.63607e-134
1.86316e-137
7.3556e-141
2.85468e-144
1.06993e-147
-1.67267e-21
-2.33984e-22
1.39678e-19
-4.92106e-21
-6.40303e-20
-5.72901e-22
7.10544e-22
2.11442e-22
2.06326e-22
3.03394e-24
1.6207e-26
5.83158e-28
4.77629e-30
2.11497e-32
6.44819e-35
1.50929e-37
2.88327e-40
4.67433e-43
6.60686e-46
8.30409e-49
9.42229e-52
9.76665e-55
9.33744e-58
8.29926e-61
6.90337e-64
5.40436e-67
4.00126e-70
2.81354e-73
1.88591e-76
1.20899e-79
7.43401e-83
4.396e-86
2.50581e-89
1.3798e-92
7.35367e-96
3.79995e-99
1.90695e-102
9.30756e-106
4.42448e-109
2.05101e-112
9.2825e-116
4.10608e-119
1.77704e-122
7.53156e-126
3.12881e-129
1.27509e-132
5.10164e-136
2.00542e-139
7.75044e-143
2.89371e-146
-2.22225e-20
-1.58522e-20
2.67851e-18
-3.72485e-20
-1.17831e-18
-6.37793e-20
6.79002e-21
2.04446e-21
2.63253e-21
5.81139e-23
3.06718e-25
1.97415e-26
1.61061e-28
6.97065e-31
2.07602e-33
4.7547e-36
8.90447e-39
1.4176e-41
1.97053e-44
2.43884e-47
2.7279e-50
2.79007e-53
2.63426e-56
2.31396e-59
1.90349e-62
1.47457e-65
1.0809e-68
7.52869e-72
5.00104e-75
3.17844e-78
1.93835e-81
1.1372e-84
6.43338e-88
3.51683e-91
1.86126e-94
9.55352e-98
4.7634e-101
2.31051e-104
1.09175e-107
5.03168e-111
2.26453e-114
9.96304e-118
4.28933e-121
1.80876e-124
7.47738e-128
3.03286e-131
1.20788e-134
4.72701e-138
1.819e-141
6.76449e-145
-1.58765e-19
-9.96789e-19
1.79046e-15
-1.42687e-17
-3.37693e-15
-3.75643e-18
3.67329e-20
1.10109e-20
1.82502e-20
1.01714e-21
4.74194e-24
6.02776e-25
4.78362e-27
2.00205e-29
5.78572e-32
1.29049e-34
2.36082e-37
3.68046e-40
5.01994e-43
6.10648e-46
6.72256e-49
6.77542e-52
6.31016e-55
5.47248e-58
4.44803e-61
3.40701e-64
2.4709e-67
1.70371e-70
1.12089e-73
7.05904e-77
4.26754e-80
2.48293e-83
1.3935e-86
7.55969e-90
3.97173e-93
2.02434e-96
1.00255e-99
4.83138e-103
2.26866e-106
1.03929e-109
4.65023e-113
2.03445e-116
8.71141e-120
3.65428e-123
1.50303e-126
6.0665e-130
2.40463e-133
9.36722e-137
3.58856e-140
1.32903e-143
-5.03481e-18
-3.82032e-17
7.23296e-14
-1.04641e-10
-1.41769e-13
1.9642e-15
1.96571e-15
5.40707e-16
4.23044e-18
1.72486e-20
5.16732e-23
1.61899e-23
1.21637e-25
4.8549e-28
1.3493e-30
2.9126e-33
5.18062e-36
7.8804e-39
1.05164e-41
1.25441e-44
1.35657e-47
1.34509e-50
1.23399e-53
1.05532e-56
8.46649e-60
6.40623e-63
4.59296e-66
3.13275e-69
2.04004e-72
1.27232e-75
7.62094e-79
4.3951e-82
2.44601e-85
1.31633e-88
6.86278e-92
3.47218e-95
1.70745e-98
8.17265e-102
3.8126e-105
1.73563e-108
7.719e-112
3.35734e-115
1.42951e-118
5.96397e-122
2.44014e-125
9.79891e-129
3.86501e-132
1.49846e-135
5.71416e-139
2.10726e-142
-3.78564e-12
2.80799e-09
-1.42333e-06
-2.95424e-09
8.39885e-11
7.86017e-11
7.875e-11
2.16222e-11
5.77408e-14
1.30174e-23
1.98194e-24
3.71234e-22
2.53691e-24
9.4543e-27
2.49397e-29
5.16365e-32
8.87281e-35
1.31056e-37
1.7048e-40
1.98805e-43
2.10686e-46
2.05107e-49
1.85039e-52
1.55825e-55
1.2324e-58
9.20183e-62
6.5157e-65
4.39259e-68
2.82913e-71
1.74619e-74
1.03568e-77
5.91729e-81
3.26396e-84
1.74166e-87
9.00692e-91
4.52178e-94
2.20713e-97
1.04894e-100
4.86001e-104
2.19794e-107
9.71347e-111
4.19917e-114
1.77749e-117
7.37389e-121
3.00057e-124
1.1986e-127
4.70363e-131
1.81462e-134
6.88687e-138
2.52856e-141
-3.29603e-11
3.05953e-08
-2.38945e-05
0.0122627
0.0292945
0.029398
0.0294535
0.0119308
2.48065e-05
1.20411e-20
1.03175e-23
7.00372e-21
4.01584e-23
1.34582e-25
3.29844e-28
6.46214e-31
1.06279e-33
1.51413e-36
1.91022e-39
2.16929e-42
2.24583e-45
2.14119e-48
1.89561e-51
1.56912e-54
1.22156e-57
8.98881e-61
6.27913e-64
4.17983e-67
2.66033e-70
1.62377e-73
9.52973e-77
5.39069e-80
2.94547e-83
1.55764e-86
7.98653e-90
3.97685e-93
1.92604e-96
9.08527e-100
4.17939e-103
1.87718e-106
8.24131e-110
3.5402e-113
1.48942e-116
6.14259e-120
2.48539e-123
9.8739e-127
3.85437e-130
1.47942e-133
5.58706e-137
2.04199e-140
1.1691e-07
-5.28006e-05
0.014714
0.162463
0.324682
0.358776
0.359256
0.231778
0.0484292
0.000107675
2.5668e-19
1.02289e-19
3.9339e-22
1.09561e-24
2.40057e-27
4.3526e-30
6.75508e-33
9.19256e-36
1.11689e-38
1.22866e-41
1.23755e-44
1.15177e-47
9.97989e-51
8.10265e-54
6.19788e-57
4.48771e-60
3.08861e-63
2.02783e-66
1.27417e-69
7.68408e-73
4.45904e-76
2.49565e-79
1.34998e-82
7.07136e-86
3.59309e-89
1.77384e-92
8.52086e-96
3.98805e-99
1.82092e-102
8.12042e-106
3.54073e-109
1.51102e-112
6.3171e-116
2.58951e-119
1.04166e-122
4.11509e-126
1.59769e-129
6.10045e-133
2.29228e-136
8.33899e-140
1.09813e-06
-0.000505435
0.144523
0.42252
0.694099
0.834539
0.835375
0.737749
0.355144
0.0340955
1.30315e-05
1.05616e-18
1.31105e-26
1.22338e-28
5.80197e-31
1.86002e-33
4.53204e-36
8.95007e-39
1.49202e-41
2.15934e-44
2.76932e-47
3.19688e-50
3.36307e-53
3.25631e-56
2.92591e-59
2.45658e-62
1.93854e-65
1.44503e-68
1.02196e-71
6.88354e-75
4.43075e-78
2.73362e-81
1.62093e-84
9.25989e-88
5.1076e-91
2.72558e-94
1.40968e-97
7.07824e-101
3.45567e-104
1.64268e-107
7.61287e-111
3.44385e-114
1.52238e-117
6.58319e-121
2.78744e-124
1.15671e-127
4.70823e-131
1.88129e-134
7.38483e-138
2.7995e-141
1.83647e-06
-0.000847204
0.242782
0.654059
0.915849
1.01498
1.01523
1.02482
0.692294
0.175917
0.000404481
6.54588e-18
8.11802e-26
7.50478e-28
3.52844e-30
1.12175e-32
2.71129e-35
5.31304e-38
8.79122e-41
1.26319e-43
1.60882e-46
1.84482e-49
1.92823e-52
1.85541e-55
1.65714e-58
1.38325e-61
1.08542e-64
8.04707e-68
5.66121e-71
3.79378e-74
2.42994e-77
1.49204e-80
8.80636e-84
5.0083e-87
2.7505e-90
1.46158e-93
7.52852e-97
3.76521e-100
1.83115e-103
8.672e-107
4.00441e-110
1.80511e-113
7.95231e-117
3.42737e-120
1.44652e-123
5.98377e-127
2.42818e-130
9.67355e-134
3.78629e-137
1.43149e-140
1.64572e-06
-0.000760091
0.217873
0.725037
1.00649
0.999423
0.999374
0.999608
0.773495
0.275084
0.00100382
1.60146e-17
1.98442e-25
1.82717e-27
8.56171e-30
2.713e-32
6.53662e-35
1.27698e-37
2.10666e-40
3.01828e-43
3.83338e-46
4.38378e-49
4.56991e-52
4.38611e-55
3.90771e-58
3.25401e-61
2.54744e-64
1.88434e-67
1.32274e-70
8.8452e-74
5.65364e-77
3.46447e-80
2.0408e-83
1.15842e-86
6.3501e-90
3.36828e-93
1.73194e-96
8.64709e-100
4.19838e-103
1.98507e-106
9.15189e-110
4.11916e-113
1.81197e-116
7.79805e-120
3.2865e-123
1.35764e-126
5.50183e-130
2.18898e-133
8.55686e-137
3.23128e-140
6.73472e-07
-0.000311392
0.0890596
0.535742
0.951946
1
1.00002
0.989254
0.750884
0.265593
0.000960744
1.59966e-17
1.98326e-25
1.82582e-27
8.55411e-30
2.71019e-32
6.52888e-35
1.27528e-37
2.10355e-40
3.01341e-43
3.82664e-46
4.37547e-49
4.56063e-52
4.37661e-55
3.89873e-58
3.24611e-61
2.54093e-64
1.87928e-67
1.31902e-70
8.81927e-74
5.63638e-77
3.45349e-80
2.03409e-83
1.15448e-86
6.32779e-90
3.35607e-93
1.72547e-96
8.61388e-100
4.18181e-103
1.97703e-106
9.1139e-110
4.10165e-113
1.80409e-116
7.76339e-120
3.27158e-123
1.35135e-126
5.47584e-130
2.17845e-133
8.51494e-137
3.21518e-140
-6.25053e-08
2.89759e-05
-0.00856333
0.170961
0.626801
0.935942
0.97103
0.83775
0.585905
0.233122
0.000937691
1.50062e-17
1.8587e-25
1.70882e-27
7.99505e-30
2.52972e-32
6.0863e-35
1.18735e-37
1.95615e-40
2.79895e-43
3.55024e-46
4.05491e-49
4.22194e-52
4.04732e-55
3.6017e-58
2.99581e-61
2.34274e-64
1.73106e-67
1.21387e-70
8.10896e-74
5.17791e-77
3.16988e-80
1.8655e-83
1.05794e-86
5.79409e-90
3.07066e-93
1.57755e-96
7.86971e-100
3.81783e-103
1.8037e-106
8.30926e-110
3.73706e-113
1.64267e-116
7.06434e-120
2.97518e-123
1.22819e-126
4.97386e-130
1.97762e-133
7.72566e-137
2.91565e-140
2.73475e-09
-1.27088e-06
0.000386339
-0.016141
0.163405
0.499621
0.640958
0.54378
0.314146
0.0920103
0.000278674
5.47481e-18
6.77902e-26
6.23313e-28
2.91424e-30
9.21387e-33
2.21505e-35
4.31791e-38
7.10828e-41
1.01633e-43
1.28819e-46
1.47026e-49
1.52976e-52
1.4655e-55
1.30329e-58
1.08335e-61
8.46656e-65
6.25217e-68
4.38162e-71
2.92534e-74
1.8669e-77
1.14227e-80
6.71878e-84
3.80828e-87
2.08465e-90
1.10424e-93
5.67031e-97
2.82733e-100
1.37099e-103
6.47422e-107
2.98123e-110
1.34022e-113
5.88866e-117
2.5314e-120
1.06568e-123
4.39756e-127
1.78023e-130
7.07562e-134
2.76312e-137
1.04245e-140
-7.92303e-11
3.69076e-08
-1.15122e-05
0.000705294
-0.0154676
0.0656032
0.164431
0.173564
0.0837952
-0.0075594
-5.36001e-05
-1.20951e-21
-1.939e-27
-6.13008e-30
-1.27124e-32
-2.08772e-35
-2.909e-38
-3.56727e-41
-3.94073e-44
-3.98663e-47
-3.7391e-50
-3.2824e-53
-2.71724e-56