/*--------------------------------*- C++ -*----------------------------------*\
| =========                 |                                                 |
| \\      /  F ield         | OpenFOAM: The Open Source CFD Toolbox           |
|  \\    /   O peration     | Version:  v2006                                 |
|   \\  /    A nd           | Website:  www.openfoam.com                      |
|    \\/     M anipulation  |                                                 |
\*---------------------------------------------------------------------------*/
FoamFile
{
    version     2.0;
    format      ascii;
    class       volScalarField;
    location    "0";
    object      f;
}
// * * * * * * * * * * * * * * * * * * * * * * * * * * * * * * * * * * * * * //

dimensions      [0 0 0 0 0 0 0];


internalField   nonuniform List<scalar> 
2500
(
-1.807e-20
-1.8069e-20
-1.80616e-20
-1.80625e-20
-1.80872e-20
-1.79359e-20
-1.70855e-20
-1.5219e-20
-1.27319e-20
-1.04741e-20
-8.89002e-21
-7.56732e-21
-5.76425e-21
-3.23433e-21
-5.81823e-22
1.1905e-21
1.55548e-21
8.60722e-22
-5.60749e-23
-5.45729e-22
-5.07945e-22
-2.35407e-22
-3.31352e-23
-1.16221e-24
-7.3747e-23
-1.52633e-22
-1.86161e-22
-1.73031e-22
-1.3461e-22
-9.18423e-23
-5.64805e-23
-3.18627e-23
-1.66883e-23
-8.18444e-24
-3.78177e-24
-1.65382e-24
-6.86713e-25
-2.7134e-25
-1.02156e-25
-3.66611e-26
-1.25334e-26
-4.07402e-27
-1.25435e-27
-3.63263e-28
-9.7668e-29
-2.37355e-29
-4.88079e-30
-6.61617e-31
6.65742e-32
1.02203e-31
-5.0421e-20
-5.0418e-20
-5.0391e-20
-5.04177e-20
-5.06806e-20
-5.06352e-20
-4.83827e-20
-4.26824e-20
-3.49865e-20
-2.85575e-20
-2.515e-20
-2.30584e-20
-1.90558e-20
-1.16333e-20
-2.65886e-21
3.98718e-21
5.81039e-21
3.59958e-21
2.52405e-22
-1.72964e-21
-1.77127e-21
-8.44894e-22
-8.96706e-23
7.41945e-23
-1.47574e-22
-4.11576e-22
-5.33512e-22
-5.04452e-22
-3.9319e-22
-2.6698e-22
-1.62852e-22
-9.0962e-23
-4.71228e-23
-2.28436e-23
-1.04283e-23
-4.50343e-24
-1.84565e-24
-7.19383e-25
-2.67003e-25
-9.44023e-26
-3.17787e-26
-1.01693e-26
-3.08416e-27
-8.81887e-28
-2.35628e-28
-5.78688e-29
-1.26241e-29
-2.23382e-30
-2.06053e-31
6.63548e-32
-1.34941e-19
-1.34934e-19
-1.34828e-19
-1.34932e-19
-1.36269e-19
-1.37545e-19
-1.3194e-19
-1.14618e-19
-9.07859e-20
-7.2709e-20
-6.72968e-20
-6.7955e-20
-6.15314e-20
-4.06637e-20
-1.07904e-20
1.35982e-20
2.1685e-20
1.47324e-20
2.61302e-21
-5.24633e-21
-6.04541e-21
-2.95185e-21
-1.86187e-22
5.35028e-22
-1.48073e-22
-1.03498e-21
-1.47523e-21
-1.42839e-21
-1.11657e-21
-7.53956e-22
-4.55532e-22
-2.51511e-22
-1.28646e-22
-6.15267e-23
-2.76924e-23
-1.17829e-23
-4.75432e-24
-1.82286e-24
-6.64887e-25
-2.30809e-25
-7.6237e-26
-2.39414e-26
-7.14034e-27
-2.02047e-27
-5.42611e-28
-1.38905e-28
-3.43811e-29
-8.5119e-30
-2.23716e-30
-6.63364e-31
-3.456e-19
-3.45586e-19
-3.45167e-19
-3.45333e-19
-3.50663e-19
-3.59026e-19
-3.46229e-19
-2.93515e-19
-2.19174e-19
-1.68233e-19
-1.6757e-19
-1.93115e-19
-1.93944e-19
-1.38297e-19
-4.07476e-20
4.66655e-20
7.98746e-20
5.82841e-20
1.49779e-20
-1.53935e-20
-2.0425e-20
-1.01884e-20
-1.77868e-22
2.75642e-21
6.22425e-22
-2.36432e-21
-3.93099e-21
-3.92943e-21
-3.0823e-21
-2.06694e-21
-1.23453e-21
-6.72297e-22
-3.38733e-22
-1.59432e-22
-7.05578e-23
-2.94901e-23
-1.16745e-23
-4.38557e-24
-1.56492e-24
-5.30729e-25
-1.71145e-25
-5.25369e-26
-1.54046e-26
-4.35216e-27
-1.20781e-27
-3.41175e-28
-1.02971e-28
-3.44195e-29
-1.26466e-29
-4.89004e-30
-8.44851e-19
-8.44851e-19
-8.43243e-19
-8.42444e-19
-8.60572e-19
-8.99446e-19
-8.74403e-19
-7.13019e-19
-4.78421e-19
-3.31792e-19
-3.7554e-19
-5.2646e-19
-5.9565e-19
-4.57673e-19
-1.46874e-19
1.5823e-19
2.87053e-19
2.21134e-19
6.93343e-20
-4.45374e-20
-6.904e-20
-3.51573e-20
8.81664e-22
1.22612e-20
5.44988e-21
-4.62128e-21
-1.00889e-20
-1.0512e-20
-8.27209e-21
-5.4962e-21
-3.23611e-21
-1.73305e-21
-8.57465e-22
-3.95856e-22
-1.71614e-22
-7.01539e-23
-2.711e-23
-9.91782e-24
-3.43775e-24
-1.13001e-24
-3.52993e-25
-1.05409e-25
-3.05268e-26
-8.83761e-27
-2.68827e-27
-9.04896e-28
-3.41553e-28
-1.39143e-28
-5.79755e-29
-2.37756e-29
-1.9655e-18
-1.96565e-18
-1.95988e-18
-1.95073e-18
-2.00402e-18
-2.16146e-18
-2.13029e-18
-1.63246e-18
-8.8239e-19
-4.43199e-19
-6.94387e-19
-1.36414e-18
-1.77666e-18
-1.4722e-18
-5.14214e-19
5.1849e-19
9.96474e-19
8.00308e-19
2.81697e-19
-1.31026e-19
-2.35446e-19
-1.22351e-19
7.2914e-21
5.00294e-20
2.76352e-20
-6.34047e-21
-2.49823e-20
-2.74079e-20
-2.15929e-20
-1.41619e-20
-8.18708e-21
-4.29424e-21
-2.07759e-21
-9.36387e-22
-3.95524e-22
-1.57108e-22
-5.87858e-23
-2.07325e-23
-6.89404e-24
-2.16481e-24
-6.46012e-25
-1.86658e-25
-5.45406e-26
-1.7334e-26
-6.38264e-27
-2.69161e-27
-1.21003e-27
-5.43665e-28
-2.36054e-28
-9.7821e-29
-4.3364e-18
-4.33741e-18
-4.31849e-18
-4.26259e-18
-4.39431e-18
-4.98932e-18
-5.04274e-18
-3.50034e-18
-1.07149e-18
3.12118e-19
-7.10631e-19
-3.30195e-18
-5.12046e-18
-4.59231e-18
-1.76929e-18
1.60019e-18
3.31536e-18
2.75369e-18
1.03672e-18
-4.05845e-19
-8.1302e-19
-4.31203e-19
3.59437e-20
1.92823e-19
1.16372e-19
1.74456e-21
-6.01148e-20
-6.99395e-20
-5.48741e-20
-3.53141e-20
-1.99304e-20
-1.01811e-20
-4.78781e-21
-2.09233e-21
-8.53864e-22
-3.26001e-22
-1.16406e-22
-3.88048e-23
-1.20548e-23
-3.49764e-24
-9.65228e-25
-2.6951e-25
-8.65696e-26
-3.54748e-26
-1.73611e-26
-8.85633e-27
-4.36149e-27
-2.02444e-27
-8.83403e-28
-3.63793e-28
-9.03471e-18
-9.03929e-18
-8.98499e-18
-8.71394e-18
-8.96049e-18
-1.11316e-17
-1.17892e-17
-7.03823e-18
9.24932e-19
5.49959e-18
1.96703e-18
-7.20236e-18
-1.41665e-17
-1.38418e-17
-6.01156e-18
4.49401e-18
1.05268e-17
9.00635e-18
3.51324e-18
-1.34617e-18
-2.83437e-18
-1.53713e-18
1.48979e-19
7.15341e-19
4.42472e-19
5.56315e-20
-1.43212e-19
-1.75874e-19
-1.3594e-19
-8.50529e-20
-4.64799e-20
-2.29388e-20
-1.0393e-20
-4.35616e-21
-1.69269e-21
-6.0837e-22
-2.00912e-22
-6.02688e-23
-1.61565e-23
-3.82329e-24
-8.4272e-25
-2.40849e-25
-1.28054e-25
-8.67728e-26
-5.46863e-26
-3.06023e-26
-1.54381e-26
-7.15376e-27
-3.08911e-27
-1.25605e-27
-1.76817e-17
-1.76987e-17
-1.75781e-17
-1.64387e-17
-1.66268e-17
-2.4382e-17
-2.80305e-17
-1.37655e-17
1.27322e-17
2.83916e-17
1.74073e-17
-1.29057e-17
-3.74044e-17
-4.01275e-17
-2.01212e-17
1.08079e-17
3.19498e-17
2.81766e-17
1.10971e-17
-4.70335e-18
-9.89596e-18
-5.51199e-18
5.69103e-19
2.5941e-18
1.57126e-18
2.64003e-19
-3.50577e-19
-4.39971e-19
-3.28644e-19
-1.97172e-19
-1.03118e-19
-4.85868e-20
-2.09105e-20
-8.24451e-21
-2.961e-21
-9.52778e-22
-2.64691e-22
-5.78008e-23
-6.6773e-24
1.62872e-24
1.16372e-24
1.56998e-25
-2.42266e-25
-2.70562e-25
-1.87223e-25
-1.05669e-25
-5.26453e-26
-2.39831e-26
-1.01843e-26
-4.0791e-27
-3.22798e-17
-3.23331e-17
-3.22576e-17
-2.7981e-17
-2.69448e-17
-5.37342e-17
-7.04334e-17
-2.97984e-17
6.01697e-17
1.15025e-16
8.28263e-17
-1.27316e-17
-9.4341e-17
-1.11237e-16
-6.61249e-17
1.91004e-17
9.35818e-17
8.61663e-17
3.30242e-17
-1.66876e-17
-3.43342e-17
-1.97547e-17
2.06228e-18
9.33579e-18
5.30349e-18
8.70647e-19
-9.29878e-19
-1.10589e-18
-7.74782e-19
-4.37019e-19
-2.15032e-19
-9.4935e-20
-3.78258e-20
-1.34508e-20
-4.11673e-21
-9.7445e-22
-9.81538e-23
6.54099e-23
5.50574e-23
2.58884e-23
8.33973e-24
1.15452e-24
-8.49791e-25
-9.69158e-25
-6.47886e-25
-3.53801e-25
-1.71468e-25
-7.6358e-26
-3.18215e-26
-1.25477e-26
-5.44417e-17
-5.458e-17
-5.58879e-17
-4.14938e-17
-3.50572e-17
-1.19485e-16
-1.93676e-16
-8.35355e-17
2.29277e-16
4.35546e-16
3.33376e-16
2.8215e-17
-2.29637e-16
-2.91199e-16
-2.17634e-16
9.50584e-18
2.78346e-16
2.7589e-16
9.26387e-17
-5.82163e-17
-1.18948e-16
-7.06938e-17
6.81648e-18
3.39237e-17
1.71965e-17
2.05854e-18
-2.77728e-18
-2.80664e-18
-1.77038e-18
-9.13439e-19
-4.12054e-19
-1.64781e-19
-5.73189e-20
-1.61003e-20
-2.62478e-21
6.94457e-22
9.43465e-22
5.78098e-22
2.66492e-22
9.77193e-23
2.58326e-23
1.5844e-24
-3.84875e-24
-3.51019e-24
-2.17041e-24
-1.13232e-24
-5.31627e-25
-2.31139e-25
-9.45171e-26
-3.66991e-26
-8.36243e-17
-8.38876e-17
-9.45654e-17
-5.16263e-17
-3.36706e-17
-2.43756e-16
-6.49119e-16
-2.46483e-16
9.21679e-16
1.77294e-15
1.24644e-15
1.74501e-16
-5.63627e-16
-6.90132e-16
-7.57473e-16
-8.92752e-17
2.15463e-15
1.10685e-15
2.2403e-16
-2.37971e-16
-4.52413e-16
-2.5859e-16
1.74733e-17
1.28701e-16
5.40408e-17
1.55567e-18
-9.2047e-18
-7.12576e-18
-3.84874e-18
-1.74793e-18
-6.91048e-19
-2.30933e-19
-5.63206e-20
-1.6633e-21
9.37742e-21
7.84989e-21
4.50609e-21
2.11305e-21
8.34015e-22
2.66176e-22
5.47983e-23
-6.83112e-24
-1.62347e-23
-1.20909e-23
-6.90944e-24
-3.44393e-24
-1.56727e-24
-6.65734e-25
-2.67294e-25
-1.02252e-25
-1.144e-16
-1.14565e-16
-1.66985e-16
-5.57305e-17
-2.91447e-16
-1.54423e-15
-3.70715e-15
1.83034e-15
5.87608e-15
5.21716e-15
2.96813e-15
-9.5633e-16
-5.16926e-15
-1.36291e-15
-1.50756e-15
3.50818e-14
2.2228e-14
3.71828e-15
-3.5883e-15
-4.70707e-15
-2.6787e-15
-1.00277e-15
4.32543e-17
6.13264e-16
1.66731e-16
-2.14961e-17
-3.18435e-17
-1.74506e-17
-7.59082e-18
-2.85109e-18
-8.83713e-19
-1.68571e-19
4.03473e-20
7.03925e-20
5.1863e-20
2.94739e-20
1.42236e-20
5.94781e-21
2.1114e-21
5.76687e-22
6.4544e-23
-5.8256e-23
-6.04853e-23
-3.89002e-23
-2.0772e-23
-9.9333e-24
-4.39134e-24
-1.82491e-24
-7.20082e-25
-2.71567e-25
-1.34654e-16
-1.33727e-16
-3.0215e-16
1.40973e-15
-1.38796e-14
-2.90684e-14
-1.5127e-14
8.33764e-14
2.76661e-14
-1.32725e-14
-1.63445e-13
-1.92835e-13
-4.23735e-14
3.78029e-13
4.87396e-13
3.24348e-13
7.26771e-14
-1.52299e-13
-9.33539e-14
-3.55845e-14
-1.22715e-14
-2.77107e-15
9.25176e-15
4.3465e-15
4.32177e-16
-2.17359e-16
-1.05749e-16
-3.73676e-17
-1.18912e-17
-3.11425e-18
-3.19263e-19
3.87724e-19
4.22724e-19
2.94254e-19
1.6853e-19
8.41027e-20
3.70419e-20
1.42155e-20
4.49894e-21
9.3893e-22
-1.00617e-22
-2.65901e-22
-2.01462e-22
-1.16641e-22
-5.88807e-23
-2.71465e-23
-1.16879e-23
-4.75903e-24
-1.84723e-24
-6.87224e-25
1.43379e-13
9.19506e-14
8.95215e-14
9.73411e-14
-6.09968e-14
-1.6168e-13
2.64933e-13
2.78143e-13
-2.84927e-14
-2.07057e-12
-2.71789e-12
-1.31513e-12
1.28516e-12
3.02034e-12
2.65009e-12
8.91124e-13
-2.18167e-12
-1.46082e-12
-3.86915e-13
-7.11867e-14
-2.21842e-14
1.42562e-13
7.77633e-14
1.33655e-14
-4.70446e-15
-1.65664e-15
-2.60956e-16
-4.81377e-17
-7.22267e-18
1.47951e-18
2.7588e-18
2.25726e-18
1.48552e-18
8.57053e-19
4.42672e-19
2.04977e-19
8.4066e-20
2.94404e-20
7.82785e-21
6.82078e-22
-9.80725e-22
-9.55723e-22
-6.09667e-22
-3.26542e-22
-1.57323e-22
-7.02351e-23
-2.95195e-23
-1.17931e-23
-4.50684e-24
-1.65491e-24
2.12673e-12
1.73263e-12
1.83864e-12
1.09082e-12
-5.88977e-14
-3.64227e-13
1.96539e-12
-6.15363e-13
-7.42662e-12
-1.00311e-11
-7.09976e-12
-2.91586e-12
1.08301e-11
6.36355e-12
5.79112e-12
-2.4715e-11
-1.63429e-11
-3.67728e-12
-5.18168e-13
9.22558e-13
1.94896e-12
8.60397e-13
1.8432e-13
-1.06831e-13
-4.44479e-14
-4.67231e-15
1.76618e-16
7.77585e-17
3.54275e-17
1.92393e-17
1.14479e-17
6.83055e-18
3.90085e-18
2.07789e-18
1.01239e-18
4.42519e-19
1.68385e-19
5.17639e-20
9.31984e-21
-2.65495e-21
-4.13134e-21
-2.96764e-21
-1.69554e-21
-8.5503e-22
-3.95978e-22
-1.71784e-22
-7.06187e-23
-2.77134e-23
-1.04352e-23
-3.78396e-24
7.15213e-12
6.62579e-12
6.87481e-12
3.35304e-12
1.17617e-12
1.03358e-11
6.60968e-12
-1.43674e-11
-2.66517e-11
-1.84429e-11
2.69619e-11
2.33846e-10
5.81247e-11
-3.82168e-11
-2.68106e-10
-1.84829e-10
-4.15988e-11
3.48736e-11
6.42499e-11
3.82048e-11
1.1359e-11
1.43272e-12
-2.02116e-12
-8.48728e-13
-1.01118e-13
8.72328e-15
2.56959e-15
4.23127e-16
1.21865e-16
5.32522e-17
2.82779e-17
1.57523e-17
8.6082e-18
4.4326e-18
2.0773e-18
8.56473e-19
2.93844e-19
7.01456e-20
-1.79709e-21
-1.61673e-20
-1.34822e-20
-8.25841e-21
-4.36202e-21
-2.09468e-21
-9.37294e-22
-3.9619e-22
-1.59551e-22
-6.15671e-23
-2.28568e-23
-8.18859e-24
1.26429e-11
1.5076e-11
1.47649e-11
4.5238e-12
5.66063e-11
6.91355e-11
3.28395e-12
-3.05001e-11
5.20088e-11
9.24496e-10
2.39779e-09
1.57758e-09
1.23826e-10
-1.98081e-09
-1.61271e-09
-4.60207e-10
6.14616e-10
9.13557e-10
5.21873e-10
1.6745e-10
2.10201e-11
-2.90349e-11
-1.30172e-11
-1.72145e-12
1.51316e-13
5.23309e-14
5.21724e-15
1.45796e-16
1.13657e-16
8.38344e-17
5.30725e-17
3.06962e-17
1.68512e-17
8.60616e-18
3.89874e-18
1.48397e-18
4.21753e-19
3.98027e-20
-5.66024e-20
-5.74553e-20
-3.78882e-20
-2.09376e-20
-1.04042e-20
-4.79227e-21
-2.07928e-21
-8.58084e-22
-3.3895e-22
-1.28719e-22
-4.71465e-23
-1.66957e-23
1.34931e-11
2.38598e-11
2.49079e-11
1.47791e-11
2.33239e-10
2.28231e-10
-3.51708e-10
2.57548e-10
5.47357e-09
1.10462e-08
1.16836e-08
3.32847e-09
-1.11141e-08
-9.95904e-09
-3.70807e-09
6.9264e-09
7.04246e-09
3.77531e-09
1.18009e-09
2.8077e-10
-3.45265e-10
-1.60085e-10
-2.38546e-11
2.00172e-12
7.5638e-13
8.62481e-14
-2.33991e-15
-6.63068e-16
2.53825e-17
1.33479e-16
9.69527e-17
5.56946e-17
3.06899e-17
1.57453e-17
6.82518e-18
2.25378e-18
3.85701e-19
-1.69654e-19
-2.31475e-19
-1.65037e-19
-9.50496e-20
-4.86358e-20
-2.29589e-20
-1.01889e-20
-4.2972e-21
-1.73412e-21
-6.72669e-22
-2.51636e-22
-9.10018e-23
-3.18749e-23
6.39542e-12
2.47827e-11
3.48629e-11
2.15241e-10
3.94868e-10
4.04132e-10
-1.85409e-09
5.01741e-09
2.25031e-08
3.72529e-08
2.53273e-08
-6.18362e-08
-5.93746e-08
-2.30525e-08
4.53804e-08
5.50062e-08
2.3319e-08
6.48199e-09
-1.26946e-09
-5.68009e-09
-2.02882e-09
-2.7282e-10
2.17914e-11
8.90414e-12
1.16507e-12
-3.16362e-14
-1.15488e-14
-1.6855e-15
2.57725e-16
3.89158e-16
2.02803e-16
9.69348e-17
5.30521e-17
2.82613e-17
1.14366e-17
2.75198e-18
-3.2303e-19
-8.85659e-19
-6.91997e-19
-4.12493e-19
-2.15226e-19
-1.032e-19
-4.65131e-20
-1.99433e-20
-8.19189e-21
-3.23783e-21
-1.23513e-21
-4.55727e-22
-1.62914e-22
-5.64992e-23
-9.81458e-10
-6.756e-10
-1.54486e-11
1.66636e-09
-3.41023e-08
-4.03645e-08
-8.90105e-09
1.50962e-08
3.49735e-08
6.09087e-08
-3.01469e-07
-3.78992e-07
-1.14381e-07
4.69269e-07
5.60898e-07
1.5112e-07
1.42608e-08
-1.71399e-07
-1.25957e-07
-3.54409e-08
-3.25024e-09
1.90984e-10
8.4838e-11
1.41075e-11
-2.21116e-13
-9.66304e-14
-1.8788e-14
9.08731e-16
3.63476e-15
1.48765e-15
3.89115e-16
1.33427e-16
8.37896e-17
5.32194e-17
1.92185e-17
1.46771e-18
-3.12052e-18
-2.85424e-18
-1.74944e-18
-9.14128e-19
-4.37321e-19
-1.97298e-19
-8.51036e-20
-3.53336e-20
-1.41692e-20
-5.49877e-21
-2.06782e-21
-7.54242e-22
-2.67069e-22
-9.18686e-23
-6.83251e-07
-6.78231e-07
-6.35256e-07
-6.38108e-07
-8.67938e-07
-8.47748e-07
-2.65363e-07
6.11502e-09
-5.07661e-07
-2.73326e-06
-3.74127e-06
-1.11523e-06
4.07336e-06
6.20708e-06
2.0502e-06
-9.32042e-07
-2.87947e-06
-1.83889e-06
-5.93165e-07
-6.53421e-08
1.12872e-09
5.63996e-10
1.34028e-10
4.93646e-12
-1.84124e-13
-1.07305e-13
2.79645e-14
5.56507e-14
2.33701e-14
3.63476e-15
2.57618e-16
2.52776e-17
1.13579e-16
1.21809e-16
3.53937e-17
-7.24067e-18
-1.19005e-17
-7.59537e-18
-3.85089e-18
-1.77136e-18
-7.75207e-19
-3.28821e-19
-1.36011e-19
-5.49013e-20
-2.16029e-20
-8.27561e-21
-3.08349e-21
-1.11695e-21
-3.93306e-22
-1.34643e-22
-3.76297e-06
-3.77855e-06
-3.81061e-06
-3.84108e-06
-3.54345e-06
-3.02548e-06
-2.06243e-06
-3.53554e-06
-9.89633e-06
-1.50008e-05
-1.33546e-05
2.42724e-06
2.0583e-05
2.11508e-05
2.70081e-06
-1.90054e-05
-1.49089e-05
-5.75093e-06
-1.15261e-06
-1.56339e-08
1.33045e-09
6.83796e-10
1.30703e-10
5.53044e-14
-2.53608e-13
3.73418e-13
5.88573e-13
2.85288e-13
5.56518e-14
9.08693e-16
-1.6858e-15
-6.63264e-16
1.45682e-16
4.2303e-16
7.77074e-17
-4.81611e-17
-3.73791e-17
-1.74563e-17
-7.12848e-18
-2.80788e-18
-1.10643e-18
-4.40198e-19
-1.75965e-19
-6.9974e-20
-2.74205e-20
-1.05164e-20
-3.93088e-21
-1.42885e-21
-5.04584e-22
-1.73066e-22
-9.11924e-06
-9.20601e-06
-9.53915e-06
-9.63849e-06
-7.56008e-06
-5.15305e-06
-7.45751e-06
-1.75925e-05
-3.42946e-05
-3.92463e-05
-2.18407e-05
1.73378e-05
3.76709e-05
3.2857e-05
-9.57415e-05
-7.69475e-05
-2.93436e-05
-8.01915e-06
-9.622e-07
2.75475e-09
1.09844e-09
5.88192e-10
1.14957e-10
2.8851e-12
-3.16701e-14
2.65836e-12
1.96339e-12
5.88582e-13
2.79664e-14
-1.87892e-14
-1.15495e-14
-2.34017e-15
5.21673e-15
2.56931e-15
1.76539e-16
-2.60975e-16
-1.0576e-16
-3.18494e-17
-9.20775e-18
-2.77871e-18
-9.30512e-19
-3.50841e-19
-1.43317e-19
-6.01545e-20
-2.49965e-20
-1.00938e-20
-3.93253e-21
-1.47568e-21
-5.33632e-22
-1.86187e-22
-1.18559e-05
-1.20046e-05
-1.2655e-05
-1.28089e-05
-9.27357e-06
-4.93972e-06
-1.31262e-05
-4.01596e-05
-5.93738e-05
-5.97431e-05
8.22692e-05
5.4097e-05
-3.3501e-05
-0.000630969
-0.000549853
-0.000112027
0.000517168
0.000948029
0.000902978
0.00057945
0.000217934
2.53434e-05
5.9664e-11
1.19368e-11
1.13603e-11
8.16705e-12
2.65842e-12
3.73433e-13
-1.07312e-13
-9.66332e-14
-3.16367e-14
8.62433e-14
5.23278e-14
8.72263e-15
-4.67213e-15
-1.65658e-15
-2.17363e-16
-2.15023e-17
1.55226e-18
2.05695e-18
8.69956e-19
2.63721e-19
5.55215e-20
1.70404e-21
-6.35452e-21
-4.62581e-21
-2.36564e-21
-1.03531e-21
-4.11633e-22
-1.5263e-22
6.04248e-05
5.95192e-05
5.03275e-05
5.18217e-05
9.07387e-05
0.000111287
2.47188e-05
-5.14963e-05
-2.45552e-05
0.000478073
0.00078491
0.000117567
-0.00219943
-0.00356907
-0.00145416
0.00657531
0.0185147
0.0283106
0.0306554
0.0266512
0.0185103
0.00998993
0.00385948
0.000807665
1.09551e-05
1.13608e-11
-3.16412e-14
-2.53635e-13
-1.84141e-13
-2.21119e-13
1.16502e-12
7.56347e-13
1.51308e-13
-1.01114e-13
-4.44459e-14
-4.70422e-15
4.32133e-16
1.66716e-16
5.40359e-17
1.71947e-17
5.30279e-18
1.57099e-18
4.42374e-19
1.16338e-19
2.76246e-20
5.44699e-21
6.21865e-22
-1.48062e-22
-1.47485e-22
-7.36833e-23
0.000835338
0.000828722
0.000780774
0.000813117
0.00101201
0.000994045
0.000450628
4.71317e-05
0.00119171
0.0030578
0.00288547
-0.00178392
-0.00892168
-0.0109205
0.00142569
0.0339726
0.079363
0.118216
0.131238
0.119513
0.0895115
0.05405
0.0250721
0.00772582
0.000807666
1.19387e-11
2.88495e-12
5.49538e-14
4.93602e-12
1.4107e-11
8.90382e-12
2.00164e-12
-1.72138e-12
-8.48693e-13
-1.06826e-13
1.33648e-14
4.34622e-15
6.13235e-16
1.28696e-16
3.39222e-17
9.33528e-18
2.59393e-18
7.15286e-19
1.92809e-19
5.00271e-20
1.22619e-20
2.75741e-21
5.35691e-22
7.45525e-23
-9.90678e-25
0.00281453
0.00279431
0.00268203
0.0027977
0.00328244
0.00307176
0.00150087
0.00118218
0.00462976
0.00886164
0.00644973
-0.00636455
-0.021892
-0.0221315
0.011845
0.0898138
0.195258
0.287515
0.323193
0.300738
0.232621
0.146761
0.0724965
0.0250721
0.00385948
5.9669e-11
1.14965e-10
1.30699e-10
1.34025e-10
8.48356e-11
2.17907e-11
-2.38537e-11
-1.30167e-11
-2.02108e-12
1.8431e-13
7.77591e-14
9.25121e-15
4.32698e-17
1.74773e-17
6.81745e-18
2.06252e-18
5.69183e-19
1.49016e-19
3.59648e-20
7.30367e-21
8.88457e-22
-1.74348e-22
-1.84476e-22
-8.88873e-23
-3.2795e-23
0.00584097
0.0058005
0.0056082
0.00585871
0.00671919
0.00610366
0.00321352
0.00312748
0.0102624
0.0175753
0.0108937
-0.014338
-0.039625
-0.0342773
0.0319876
0.170409
0.354169
0.518333
0.588749
0.556735
0.440367
0.285926
0.146761
0.05405
0.00998993
2.53435e-05
5.88215e-10
6.83806e-10
5.6399e-10
1.90979e-10
-2.72809e-10
-1.60079e-10
-2.90338e-11
1.43264e-12
8.60352e-13
1.42554e-13
-2.77093e-15
-1.00272e-15
-2.58576e-16
-7.06901e-17
-1.97535e-17
-5.51158e-18
-1.53697e-18
-4.31134e-19
-1.22319e-19
-3.51423e-20
-1.01815e-20
-2.94869e-21
-8.4352e-22
-2.34831e-22
0.00870981
0.00864901
0.00838516
0.00877635
0.00997561
0.00894941
0.00470725
0.00494438
0.0160858
0.0264608
0.0145739
-0.0238551
-0.0575338
-0.0433803
0.0562266
0.252381
0.510327
0.746269
0.857183
0.82254
0.662932
0.440367
0.232621
0.0895115
0.0185103
0.000217934
1.09842e-09
1.33052e-09
1.12871e-09
-3.2501e-09
-2.02875e-09
-3.45253e-10
2.10191e-11
1.13584e-11
1.94886e-12
-2.21843e-14
-1.22711e-14
-2.67856e-15
-4.52396e-16
-1.18944e-16
-3.43329e-17
-9.89543e-18
-2.83414e-18
-8.12916e-19
-2.35397e-19
-6.90166e-20
-2.04142e-20
-6.04055e-21
-1.76918e-21
-5.07077e-22
0.00959115
0.00952127
0.00921687
0.00966754
0.0110794
0.00987618
0.00484293
0.00514519
0.0186633
0.0309836
0.0159366
-0.0303575
-0.0684426
-0.0479947
0.0711981
0.299494
0.600529
0.884356
1.03085
1.00337
0.82254
0.556735
0.300738
0.119513
0.0266512
0.00057945
2.75426e-09
-1.56304e-08
-6.5339e-08
-3.54397e-08
-5.67994e-09
2.80758e-10
1.67443e-10
3.82031e-11
9.22485e-13
-7.11859e-14
-3.55831e-14
-4.70677e-15
-2.37964e-16
-5.82155e-17
-1.66871e-17
-4.70302e-18
-1.34598e-18
-4.05735e-19
-1.30967e-19
-4.45076e-20
-1.53791e-20
-5.23978e-21
-1.72679e-21
-5.44542e-22
0.00715939
0.00710209
0.00679192
0.00716398
0.00860339
0.00767299
0.00260488
0.00235706
0.0152617
0.0281051
0.0145254
-0.030254
-0.0681016
-0.0492836
0.0660604
0.290183
0.591792
0.88467
1.04697
1.03085
0.857183
0.588749
0.323193
0.131238
0.0306554
0.000902976
-9.62148e-07
-1.15258e-06
-5.93148e-07
-1.25953e-07
-1.26946e-09
1.18005e-09
5.21853e-10
6.42465e-11
-5.18161e-13
-3.869e-13
-9.33484e-14
-3.58782e-15
2.2402e-16
9.26358e-17
3.30236e-17
1.10971e-17
3.51336e-18
1.03682e-18
2.81758e-19
6.93683e-20
1.49951e-20
2.62108e-21
2.55968e-22
-5.45776e-23
0.00173848
0.00171613
0.00146274
0.00160173
0.00273898
0.00256974
-0.00104343
-0.00262174
0.0053961
0.0163689
0.0105806
-0.0200188
-0.0528486
-0.0484704
0.0297951
0.204304
0.458849
0.722407
0.88467
0.884356
0.746269
0.518333
0.287515
0.118216
0.0283106
0.000948027
-8.01899e-06
-5.75082e-06
-1.83885e-06
-1.71394e-07
6.48195e-09
3.77523e-09
9.13514e-10
3.48686e-11
-3.67705e-12
-1.46073e-12
-1.52288e-13
3.71801e-15
1.10678e-15
2.75882e-16
8.61652e-17
2.81765e-17
9.00645e-18
2.75379e-18
8.00373e-19
2.21172e-19
5.83037e-20
1.47418e-20
3.60377e-21
8.62494e-22
-0.00286876
-0.00285286
-0.00299042
-0.00311095
-0.00253061
-0.00191354
-0.00329828
-0.00584433
-0.00445897
0.00256959
0.0066631
-0.00339358
-0.0275576
-0.0442866
-0.0189438
0.0819417
0.259162
0.458849
0.591792
0.600529
0.510327
0.354169
0.195258
0.079363
0.0185147
0.000517167
-2.93432e-05
-1.49087e-05
-2.87941e-06
1.42638e-08
2.33191e-08
7.04228e-09
6.14557e-10
-4.15952e-11
-1.63416e-11
-2.18151e-12
7.26719e-14
2.22264e-14
2.15451e-15
2.78349e-16
9.35827e-17
3.19502e-17
1.0527e-17
3.31551e-18
9.96556e-19
2.87098e-19
7.98973e-20
2.16957e-20
5.81514e-21
1.55748e-21
-0.00367034
-0.00363325
-0.00364836
-0.00389654
-0.00387889
-0.00298328
-0.00263325
-0.00488723
-0.00793508
-0.0056205
0.00397391
0.00956686
-0.00374817
-0.0338916
-0.0488827
-0.0143153
0.0819417
0.204304
0.290183
0.299494
0.252381
0.170409
0.0898138
0.0339726
0.00657531
-0.000112026
-7.69467e-05
-1.90051e-05
-9.32005e-07
1.51119e-07
5.50056e-08
6.92602e-09
-4.60177e-10
-1.84816e-10
-2.47129e-11
8.91064e-13
3.24326e-13
3.50794e-14
-8.92443e-17
9.51681e-18
1.91044e-17
1.08094e-17
4.49458e-18
1.60044e-18
5.18609e-19
1.58287e-19
4.66926e-20
1.36105e-20
3.99249e-21
1.19269e-21
-0.00124941
-0.0012207
-0.00115018
-0.00133187
-0.00168139
-0.00116689
0.0001518
-0.000588268
-0.00456702
-0.00580679
0.0018767
0.0123886
0.00910993
-0.0159176
-0.0454282
-0.0488827
-0.0189438
0.0297951
0.0660604
0.0711981
0.0562266
0.0319876
0.0118451
0.00142571
-0.00145415
-0.000549849
-9.57405e-05
2.70085e-06
2.05019e-06
5.60893e-07
4.53788e-08
-3.70793e-09
-1.61265e-09
-2.6809e-10
5.79091e-12
2.64993e-12
4.8736e-13
-1.50788e-15
-7.57434e-16
-2.17616e-16
-6.61185e-17
-2.01189e-17
-6.01064e-18
-1.76891e-18
-5.14047e-19
-1.468e-19
-4.07147e-20
-1.07762e-20
-2.65295e-21
-5.79449e-22
0.00115439
0.00115793
0.00123537
0.00122509
0.000879944
0.000797954
0.0017701
0.00243855
0.000756739
-0.0017633
-0.00010825
0.00642679
0.0097683
0.00197117
-0.0159175
-0.0338916
-0.0442866
-0.0484704
-0.0492836
-0.0479947
-0.0433803
-0.0342772
-0.0221315
-0.0109205
-0.00356906
-0.000630966
3.2857e-05
2.11507e-05
6.20702e-06
4.6926e-07
-2.30519e-08
-9.95878e-09
-1.98076e-09
-3.82135e-11
6.36338e-12
3.02021e-12
3.77991e-13
-1.36286e-15
-6.90098e-16
-2.91182e-16
-1.11231e-16
-4.01247e-17
-1.38406e-17
-4.59182e-18
-1.47198e-18
-4.57581e-19
-1.38258e-19
-4.06473e-20
-1.16267e-20
-3.23175e-21
0.00112857
0.00111756
0.00114998
0.00122615
0.00111406
0.000778954
0.000850154
0.0018551
0.00244685
0.00100922
-0.00148844
-0.00124277
0.00377163
0.00976831
0.00910994
-0.00374817
-0.0275576
-0.0528486
-0.0681016
-0.0684426
-0.0575338
-0.039625
-0.021892
-0.00892168
-0.00219943
-3.35015e-05
3.76705e-05
2.05828e-05
4.0733e-06
-1.14381e-07
-5.93736e-08
-1.11138e-08
1.23843e-10
5.81248e-11
1.08294e-11
1.28502e-12
-4.23713e-14
-5.16918e-15
-5.63631e-16
-2.2963e-16
-9.43362e-17
-3.7402e-17
-1.41654e-17
-5.11991e-18
-1.77641e-18
-5.95539e-19
-1.93897e-19
-6.15121e-20
-1.90482e-20
-5.76134e-21
-0.000474921
-0.000487518
-0.000513437
-0.000428862
-0.000308893
-0.000558287
-0.00101289
-0.000644768
0.000641907
0.000775016
-0.00157129
-0.00372852
-0.00124276
0.00642679
0.0123886
0.00956686
-0.00339358
-0.0200188
-0.030254
-0.0303575
-0.0238551
-0.0143381
-0.00636458
-0.00178394
0.000117559
5.40944e-05
1.73374e-05
2.42716e-06
-1.11522e-06
-3.78986e-07
-6.18348e-08
3.32845e-09
1.57756e-09
2.33841e-10
-2.91582e-12
-1.3151e-12
-1.92825e-13
-9.56305e-16
1.74496e-16
2.82153e-17
-1.27294e-17
-1.29039e-17
-7.20122e-18
-3.30134e-18
-1.36384e-18
-5.26324e-19
-1.93056e-19
-6.7931e-20
-2.3049e-20
-7.56383e-21
-0.00135784
-0.00136417
-0.00139089
-0.00135779
-0.0012415
-0.00129227
-0.00163297
-0.0017429
-0.00120723
-0.000624313
-0.00085948
-0.00157129
-0.00148844
-0.000108249
0.00187669
0.00397389
0.0066631
0.0105807
0.0145255
0.0159366
0.0145739
0.0108937
0.0064497
0.00288545
0.000784899
8.22656e-05
-2.18408e-05
-1.33546e-05
-3.74127e-06
-3.01463e-07
2.53268e-08
1.16833e-08
2.39772e-09
2.69581e-11
-7.09975e-12
-2.71782e-12
-1.63429e-13
2.96807e-15
1.2464e-15
3.33368e-16
8.28268e-17
1.7409e-17
1.96836e-18
-7.09857e-19
-6.93995e-19
-3.75358e-19
-1.67492e-19
-6.72652e-20
-2.51379e-20
-8.88556e-21
-0.00115419
-0.00115716
-0.00116066
-0.0011411
-0.00112202
-0.00118361
-0.00124315
-0.00121705
-0.00125508
-0.00127517
-0.000624315
0.000775018
0.00100923
-0.0017633
-0.00580681
-0.00562051
0.0025696
0.0163689
0.0281052
0.0309836
0.0264608
0.0175752
0.00886161
0.00305778
0.000478063
-5.97442e-05
-3.9247e-05
-1.50011e-05
-2.73328e-06
6.09101e-08
3.72527e-08
1.1046e-08
9.24462e-10
-1.84425e-11
-1.00309e-11
-2.07051e-12
-1.32696e-14
5.21692e-15
1.77285e-15
4.35539e-16
1.15028e-16
2.83947e-17
5.50166e-18
3.13261e-19
-4.42636e-19
-3.31537e-19
-1.68125e-19
-7.26659e-20
-2.85412e-20
-1.04682e-20
-0.0010554
-0.00106301
-0.00105896
-0.00100658
-0.00101878
-0.0011899
-0.0012285
-0.000895024
-0.000768832
-0.00125508
-0.00120723
0.000641908
0.00244686
0.000756741
-0.00456704
-0.00793509
-0.00445897
0.00539613
0.0152618
0.0186633
0.0160858
0.0102624
0.00462973
0.00119169
-2.45626e-05
-5.93775e-05
-3.42964e-05
-9.89675e-06
-5.07662e-07
3.49746e-08
2.25034e-08
5.47353e-09
5.19932e-11
-2.66518e-11
-7.42621e-12
-2.84477e-14
2.76678e-14
5.87538e-15
9.217e-16
2.29293e-16
6.01789e-17
1.2738e-17
9.28253e-19
-1.06978e-18
-8.81585e-19
-4.78066e-19
-2.19027e-19
-9.07282e-20
-3.49649e-20
-1.27242e-20
-0.00143894
-0.00145105
-0.00145817
-0.0013786
-0.00134049
-0.00158752
-0.0017944
-0.0014038
-0.000895022
-0.00121705
-0.0017429
-0.000644767
0.00185511
0.00243855
-0.00058828
-0.00488725
-0.00584432
-0.0026217
0.0023571
0.0051452
0.00494437
0.00312744
0.00118214
4.7104e-05
-5.15045e-05
-4.01647e-05
-1.75945e-05
-3.53594e-06
6.11496e-09
1.50969e-08
5.0176e-09
2.57566e-10
-3.05026e-11
-1.43681e-11
-6.1531e-13
2.78159e-13
8.33779e-14
1.82893e-15
-2.45555e-16
-8.34114e-17
-2.97766e-17
-1.37561e-17
-7.03341e-18
-3.49798e-18
-1.63138e-18
-7.12552e-19
-2.93325e-19
-1.14544e-19
-4.26551e-20
-1.52093e-20
-0.00165874
-0.00166985
-0.00168617
-0.00161511
-0.00153964
-0.00174089
-0.00202554
-0.0017944
-0.00122849
-0.00124315
-0.00163297
-0.00101289
0.00085016
0.0017701
0.000151788
-0.00263327
-0.00329828
-0.00104339
0.00260492
0.00484294
0.00470724
0.00321347
0.00150083
0.000450597
2.47072e-05
-1.31301e-05
-7.45936e-06
-2.06286e-06
-2.65366e-07
-8.89842e-09
-1.85401e-09
-3.51741e-10
3.27318e-12
6.60899e-12
1.96552e-12
2.64978e-13
-1.51269e-14
-3.70716e-15
-6.49092e-16
-1.93641e-16
-7.04113e-17
-2.80183e-17
-1.1783e-17
-5.03975e-18
-2.12895e-18
-8.7383e-19
-3.45997e-19
-1.31851e-19
-4.835e-20
-1.70739e-20
-0.00145969
-0.00146819
-0.00148144
-0.00142673
-0.00136579
-0.00151812
-0.00174089
-0.00158751
-0.00118989
-0.00118361
-0.00129227
-0.000558285
0.00077896
0.000797957
-0.0011669
-0.00298329
-0.00191353
0.00256977
0.00767303
0.0098762
0.00894939
0.00610362
0.00307171
0.000994014
0.000111276
-4.94135e-06
-5.15443e-06
-3.02605e-06
-8.47817e-07
-4.03506e-08
4.04141e-10
2.28239e-10
6.91363e-11
1.0335e-11
-3.64207e-13
-1.6167e-13
-2.90673e-14
-1.54466e-15
-2.43727e-16
-1.19444e-16
-5.37074e-17
-2.43672e-17
-1.11242e-17
-4.98581e-18
-2.1599e-18
-8.98785e-19
-3.58761e-19
-1.37444e-19
-5.05983e-20
-1.7923e-20
-0.00128529
-0.00129369
-0.00130211
-0.00124741
-0.00120631
-0.00136579
-0.00153964
-0.00134049
-0.00101878
-0.00112202
-0.0012415
-0.00030889
0.00111407
0.000879946
-0.0016814
-0.00387891
-0.00253061
0.00273901
0.00860343
0.0110794
0.00997559
0.00671914
0.0032824
0.00101198
9.07284e-05
-9.27479e-06
-7.56108e-06
-3.54391e-06
-8.6802e-07
-3.40964e-08
3.94974e-10
2.33284e-10
5.66115e-11
1.17553e-12
-5.89733e-14
-6.10178e-14
-1.38806e-14
-2.9103e-16
-3.35639e-17
-3.49969e-17
-2.69117e-17
-1.66096e-17
-8.95207e-18
-4.3904e-18
-2.00229e-18
-8.59849e-19
-3.50375e-19
-1.3616e-19
-5.06407e-20
-1.80733e-20
-0.00133344
-0.00134276
-0.00135146
-0.00129059
-0.00124741
-0.00142673
-0.00161511
-0.0013786
-0.00100657
-0.0011411
-0.00135779
-0.000428859
0.00122615
0.00122509
-0.00133188
-0.00389656
-0.00311095
0.00160176
0.00716402
0.00966756
0.00877633
0.00585867
0.00279766
0.000813085
5.18118e-05
-1.28101e-05
-9.6394e-06
-3.84149e-06
-6.38182e-07
1.66579e-09
2.15196e-10
1.47988e-11
4.52449e-12
3.35302e-12
1.09079e-12
9.7346e-14
1.40999e-15
-5.55988e-17
-5.15269e-17
-4.14316e-17
-2.79462e-17
-1.64205e-17
-8.70504e-18
-4.25846e-18
-1.94891e-18
-8.41687e-19
-3.45032e-19
-1.34818e-19
-5.03763e-20
-1.80481e-20
-0.00139325
-0.00140271
-0.00141295
-0.00135146
-0.00130211
-0.00148144
-0.00168617
-0.00145816
-0.00105896
-0.00116066
-0.00139089
-0.000513435
0.00114998
0.00123538
-0.00115019
-0.00364838
-0.00299042
0.00146278
0.00679196
0.00921689
0.00838515
0.00560816
0.00268198
0.000780743
5.03177e-05
-1.2657e-05
-9.5405e-06
-3.8111e-06
-6.35309e-07
-1.53882e-11
3.48517e-11
2.49033e-11
1.47654e-11
6.87534e-12
1.83871e-12
8.95068e-14
-3.02061e-16
-1.66876e-16
-9.44785e-17
-5.58308e-17
-3.22242e-17
-1.75602e-17
-8.97606e-18
-4.31432e-18