/*--------------------------------*- C++ -*----------------------------------*\
| =========                 |                                                 |
| \\      /  F ield         | OpenFOAM: The Open Source CFD Toolbox           |
|  \\    /   O peration     | Version:  v2006                                 |
|   \\  /    A nd           | Website:  www.openfoam.com                      |
|    \\/     M anipulation  |                                                 |
\*---------------------------------------------------------------------------*/
FoamFile
{
    version     2.0;
    format      ascii;
    class       volScalarField;
    location    "1.1";
    object      p_rgh;
}
// * * * * * * * * * * * * * * * * * * * * * * * * * * * * * * * * * * * * * //

dimensions      [1 -1 -2 0 0 0 0];


internalField   nonuniform List<scalar> 
50000
(
2850.35
2850.94
2848.2
2848.81
2844.94
2844.2
2840.16
2837.65
2833.46
2829.5
2824.8
2819.81
2814.37
2808.55
2802.36
2795.8
2788.9
2781.67
2774.12
2766.29
2758.18
2749.82
2741.23
2732.42
2723.42
2714.26
2704.95
2695.52
2685.99
2676.39
2666.74
2657.06
2647.39
2637.73
2628.12
2618.59
2609.15
2599.84
2590.67
2581.67
2572.86
2564.27
2555.93
2547.84
2540.04
2532.55
2525.39
2518.58
2512.14
2506.09
2500.44
2495.23
2490.45
2486.14
2482.31
2478.96
2476.12
2473.8
2472.02
2470.77
2470.08
2469.94
2470.38
2471.4
2473.01
2475.2
2477.99
2481.38
2485.37
2489.96
2495.16
2500.96
2507.36
2514.35
2521.95
2530.13
2538.89
2548.24
2558.16
2568.64
2579.68
2591.26
2603.37
2616.01
2629.15
2642.78
2656.9
2671.48
2686.5
2701.95
2717.82
2734.08
2750.72
2767.71
2785.04
2802.68
2820.61
2838.81
2857.26
2875.94
2894.82
2913.87
2933.08
2952.42
2971.86
2991.38
3010.95
3030.55
3050.15
3069.73
3089.26
3108.72
3128.07
3147.3
3166.38
3185.27
3203.97
3222.43
3240.64
3258.57
3276.2
3293.5
3310.45
3327.03
3343.21
3358.96
3374.28
3389.13
3403.5
3417.36
3430.7
3443.49
3455.72
3467.38
3478.44
3488.87
3498.73
3507.89
3516.37
3524.38
3531.27
3538.23
3543.37
3549.34
3552.62
3557.56
3559.09
3562.72
3562.96
3564.47
2851.24
2851.93
2849.1
2849.76
2845.87
2845.08
2841.08
2838.49
2834.33
2830.31
2825.6
2820.58
2815.11
2809.26
2803.03
2796.43
2789.49
2782.22
2774.64
2766.76
2758.61
2750.2
2741.56
2732.71
2723.67
2714.46
2705.11
2695.63
2686.06
2676.41
2666.71
2656.98
2647.25
2637.55
2627.9
2618.31
2608.83
2599.47
2590.25
2581.21
2572.36
2563.73
2555.34
2547.21
2539.37
2531.85
2524.65
2517.8
2511.32
2505.24
2499.56
2494.32
2489.51
2485.17
2481.31
2477.94
2475.08
2472.74
2470.93
2469.67
2468.96
2468.81
2469.24
2470.24
2471.84
2474.03
2476.81
2480.19
2484.18
2488.78
2493.97
2499.78
2506.18
2513.19
2520.79
2528.99
2537.77
2547.14
2557.08
2567.58
2578.64
2590.25
2602.38
2615.04
2628.21
2641.87
2656.02
2670.62
2685.68
2701.17
2717.07
2733.37
2750.04
2767.07
2784.43
2802.11
2820.09
2838.33
2856.82
2875.54
2894.46
2913.56
2932.82
2952.2
2971.69
2991.25
3010.87
3030.52
3050.17
3069.8
3089.38
3108.88
3128.28
3147.56
3166.68
3185.62
3204.36
3222.87
3241.12
3259.1
3276.77
3294.12
3311.11
3327.72
3343.94
3359.73
3375.08
3389.97
3404.37
3418.26
3431.63
3444.46
3456.72
3468.4
3479.49
3489.94
3499.79
3509.02
3517.48
3525.53
3532.45
3539.37
3544.63
3550.43
3553.98
3558.62
3560.48
3563.79
3564.27
3565.65
2852.84
2853.47
2850.68
2851.29
2847.41
2846.59
2842.57
2839.96
2835.76
2831.71
2826.96
2821.89
2816.38
2810.48
2804.2
2797.55
2790.55
2783.21
2775.57
2767.62
2759.4
2750.92
2742.2
2733.27
2724.15
2714.86
2705.42
2695.86
2686.2
2676.46
2666.67
2656.86
2647.05
2637.25
2627.51
2617.84
2608.27
2598.82
2589.51
2580.38
2571.45
2562.73
2554.26
2546.05
2538.14
2530.53
2523.25
2516.33
2509.79
2503.63
2497.89
2492.58
2487.72
2483.32
2479.4
2475.98
2473.07
2470.69
2468.84
2467.54
2466.79
2466.62
2467.02
2468
2469.58
2471.75
2474.52
2477.9
2481.88
2486.47
2491.68
2497.49
2503.9
2510.92
2518.54
2526.76
2535.57
2544.97
2554.94
2565.48
2576.57
2588.22
2600.4
2613.11
2626.33
2640.04
2654.24
2668.91
2684.03
2699.58
2715.55
2731.92
2748.67
2765.77
2783.21
2800.97
2819.03
2837.35
2855.93
2874.74
2893.74
2912.93
2932.27
2951.75
2971.33
2990.98
3010.7
3030.44
3050.18
3069.9
3089.58
3109.17
3128.67
3148.04
3167.25
3186.29
3205.12
3223.72
3242.06
3260.13
3277.88
3295.31
3312.39
3329.08
3345.38
3361.25
3376.68
3391.64
3406.11
3420.07
3433.51
3446.4
3458.72
3470.45
3481.6
3492.11
3502
3511.27
3519.79
3527.85
3534.85
3541.74
3547.1
3552.83
3556.5
3561.05
3563.04
3566.26
3566.83
3568.16
2855.3
2855.92
2853.12
2853.71
2849.8
2848.96
2844.89
2842.24
2837.99
2833.89
2829.07
2823.94
2818.34
2812.37
2806
2799.26
2792.17
2784.73
2776.98
2768.93
2760.59
2752
2743.16
2734.11
2724.87
2715.45
2705.88
2696.19
2686.39
2676.52
2666.6
2656.65
2646.7
2636.77
2626.89
2617.09
2607.38
2597.8
2588.36
2579.1
2570.04
2561.2
2552.6
2544.27
2536.24
2528.51
2521.13
2514.1
2507.45
2501.19
2495.35
2489.95
2485
2480.51
2476.52
2473.02
2470.04
2467.59
2465.68
2464.32
2463.53
2463.31
2463.67
2464.62
2466.17
2468.32
2471.07
2474.44
2478.42
2483.01
2488.21
2494.03
2500.47
2507.51
2515.16
2523.41
2532.25
2541.69
2551.71
2562.3
2573.45
2585.16
2597.41
2610.19
2623.49
2637.28
2651.57
2666.33
2681.54
2697.19
2713.26
2729.73
2746.58
2763.8
2781.35
2799.23
2817.4
2835.85
2854.56
2873.49
2892.63
2911.95
2931.42
2951.03
2970.75
2990.54
3010.39
3030.28
3050.16
3070.02
3089.84
3109.58
3129.21
3148.72
3168.08
3187.26
3206.23
3224.96
3243.44
3261.64
3279.53
3297.09
3314.29
3331.12
3347.54
3363.53
3379.07
3394.14
3408.73
3422.79
3436.33
3449.32
3461.73
3473.56
3484.79
3495.37
3505.35
3514.68
3523.27
3531.39
3538.43
3545.39
3550.78
3556.58
3560.25
3564.86
3566.84
3570.1
3570.67
3572.01
2858.6
2859.21
2856.4
2856.96
2853.02
2852.13
2848.01
2845.3
2840.98
2836.8
2831.9
2826.67
2820.98
2814.9
2808.42
2801.56
2794.34
2786.77
2778.88
2770.68
2762.2
2753.45
2744.46
2735.24
2725.83
2716.24
2706.5
2696.64
2686.66
2676.62
2666.51
2656.38
2646.25
2636.14
2626.08
2616.09
2606.21
2596.44
2586.83
2577.4
2568.16
2559.15
2550.39
2541.9
2533.7
2525.82
2518.29
2511.11
2504.32
2497.92
2491.95
2486.43
2481.35
2476.76
2472.66
2469.06
2465.99
2463.45
2461.46
2460.02
2459.16
2458.88
2459.19
2460.1
2461.61
2463.73
2466.46
2469.81
2473.78
2478.37
2483.58
2489.42
2495.87
2502.94
2510.62
2518.92
2527.81
2537.31
2547.39
2558.05
2569.29
2581.08
2593.42
2606.3
2619.7
2633.6
2648
2662.88
2678.22
2694
2710.21
2726.82
2743.82
2761.18
2778.89
2796.93
2815.26
2833.88
2852.75
2871.85
2891.17
2910.66
2930.32
2950.11
2970
2989.98
3010.02
3030.09
3050.16
3070.21
3090.21
3110.14
3129.96
3149.66
3169.2
3188.56
3207.71
3226.63
3245.29
3263.67
3281.73
3299.46
3316.83
3333.82
3350.4
3366.55
3382.25
3397.48
3412.2
3426.41
3440.09
3453.2
3465.74
3477.69
3489.04
3499.73
3509.81
3519.24
3527.91
3536.11
3543.23
3550.25
3555.71
3561.55
3565.28
3569.91
3571.94
3575.21
3575.8
3577.15
2862.76
2863.36
2860.52
2861.04
2857.07
2856.11
2851.94
2849.14
2844.74
2840.47
2835.46
2830.12
2824.3
2818.09
2811.46
2804.45
2797.07
2789.34
2781.27
2772.89
2764.22
2755.28
2746.09
2736.67
2727.05
2717.25
2707.29
2697.2
2687.01
2676.73
2666.4
2656.05
2645.69
2635.35
2625.06
2614.84
2604.73
2594.74
2584.91
2575.26
2565.8
2556.58
2547.61
2538.91
2530.52
2522.44
2514.72
2507.36
2500.38
2493.82
2487.69
2482
2476.78
2472.04
2467.8
2464.08
2460.89
2458.24
2456.15
2454.62
2453.68
2453.32
2453.57
2454.42
2455.88
2457.96
2460.66
2463.99
2467.95
2472.54
2477.76
2483.61
2490.09
2497.2
2504.93
2513.28
2522.24
2531.8
2541.97
2552.72
2564.05
2575.95
2588.4
2601.4
2614.93
2628.97
2643.51
2658.54
2674.04
2689.98
2706.36
2723.15
2740.33
2757.88
2775.78
2794.01
2812.55
2831.37
2850.46
2869.78
2889.31
2909.02
2928.9
2948.92
2969.05
2989.26
3009.53
3029.83
3050.14
3070.43
3090.66
3110.83
3130.89
3150.82
3170.59
3190.19
3209.57
3228.72
3247.61
3266.21
3284.49
3302.44
3320.02
3337.22
3354.01
3370.36
3386.25
3401.66
3416.58
3430.96
3444.81
3458.09
3470.79
3482.88
3494.38
3505.2
3515.41
3524.96
3533.74
3542.04
3549.27
3556.35
3561.9
3567.79
3571.6
3576.26
3578.34
3581.63
3582.25
3583.6
2867.79
2868.37
2865.52
2865.99
2861.98
2860.94
2856.7
2853.8
2849.3
2844.91
2839.77
2834.29
2828.32
2821.95
2815.14
2807.95
2800.38
2792.44
2784.17
2775.57
2766.67
2757.49
2748.06
2738.4
2728.52
2718.46
2708.24
2697.89
2687.43
2676.88
2666.28
2655.64
2645.01
2634.39
2623.83
2613.34
2602.95
2592.69
2582.59
2572.67
2562.96
2553.47
2544.25
2535.31
2526.67
2518.36
2510.41
2502.82
2495.64
2488.87
2482.54
2476.66
2471.26
2466.35
2461.95
2458.07
2454.74
2451.95
2449.74
2448.1
2447.06
2446.61
2446.78
2447.56
2448.96
2450.99
2453.66
2456.97
2460.92
2465.51
2470.74
2476.61
2483.13
2490.28
2498.06
2506.47
2515.51
2525.16
2535.42
2546.28
2557.73
2569.75
2582.35
2595.49
2609.17
2623.38
2638.1
2653.31
2669
2685.14
2701.72
2718.72
2736.12
2753.9
2772.04
2790.51
2809.29
2828.36
2847.7
2867.28
2887.07
2907.06
2927.21
2947.5
2967.9
2988.39
3008.94
3029.53
3050.12
3070.69
3091.21
3111.66
3132
3152.22
3172.28
3192.15
3211.81
3231.23
3250.39
3269.26
3287.81
3306.02
3323.87
3341.32
3358.35
3374.94
3391.07
3406.71
3421.84
3436.44
3450.49
3463.97
3476.86
3489.14
3500.81
3511.79
3522.15
3531.85
3540.76
3549.19
3556.53
3563.71
3569.36
3575.32
3579.21
3583.91
3586.06
3589.36
3590.02
3591.38
2873.72
2874.29
2871.41
2871.82
2867.76
2866.63
2862.31
2859.29
2854.68
2850.14
2844.86
2839.21
2833.06
2826.49
2819.49
2812.08
2804.28
2796.11
2787.58
2778.72
2769.56
2760.11
2750.39
2740.43
2730.26
2719.9
2709.37
2698.7
2687.92
2677.06
2666.13
2655.17
2644.21
2633.27
2622.38
2611.57
2600.86
2590.29
2579.87
2569.63
2559.61
2549.83
2540.31
2531.07
2522.15
2513.57
2505.34
2497.5
2490.06
2483.05
2476.48
2470.38
2464.77
2459.66
2455.07
2451.01
2447.51
2444.57
2442.21
2440.44
2439.28
2438.73
2438.8
2439.5
2440.83
2442.81
2445.44
2448.72
2452.65
2457.24
2462.49
2468.39
2474.94
2482.14
2489.99
2498.48
2507.6
2517.36
2527.73
2538.72
2550.3
2562.48
2575.23
2588.55
2602.42
2616.82
2631.74
2647.16
2663.07
2679.45
2696.27
2713.52
2731.18
2749.22
2767.63
2786.38
2805.45
2824.82
2844.45
2864.34
2884.44
2904.74
2925.21
2945.82
2966.55
2987.36
3008.25
3029.16
3050.09
3070.99
3091.85
3112.63
3133.31
3153.85
3174.24
3194.44
3214.43
3234.18
3253.66
3272.84
3291.71
3310.22
3328.37
3346.11
3363.44
3380.31
3396.71
3412.62
3428.02
3442.87
3457.16
3470.88
3483.99
3496.48
3508.35
3519.53
3530.07
3539.93
3549.01
3557.58
3565.05
3572.35
3578.11
3584.16
3588.14
3592.9
3595.12
3598.44
3599.14
3600.5
2880.59
2881.13
2878.22
2878.57
2874.45
2873.21
2868.8
2865.64
2860.9
2856.19
2850.74
2844.9
2838.55
2831.76
2824.52
2816.86
2808.79
2800.35
2791.53
2782.38
2772.9
2763.13
2753.09
2742.79
2732.28
2721.56
2710.68
2699.65
2688.5
2677.27
2665.97
2654.64
2643.3
2631.99
2620.72
2609.54
2598.46
2587.51
2576.73
2566.14
2555.76
2545.63
2535.76
2526.19
2516.95
2508.04
2499.51
2491.36
2483.63
2476.34
2469.51
2463.15
2457.29
2451.95
2447.13
2442.87
2439.18
2436.06
2433.53
2431.62
2430.31
2429.64
2429.6
2430.21
2431.47
2433.39
2435.97
2439.22
2443.13
2447.72
2452.98
2458.91
2465.51
2472.77
2480.69
2489.27
2498.5
2508.37
2518.88
2530.01
2541.75
2554.1
2567.04
2580.55
2594.63
2609.26
2624.41
2640.08
2656.25
2672.89
2689.99
2707.53
2725.48
2743.83
2762.56
2781.63
2801.03
2820.73
2840.71
2860.94
2881.4
2902.06
2922.9
2943.88
2964.98
2986.18
3007.44
3028.73
3050.04
3071.33
3092.57
3113.73
3134.8
3155.73
3176.49
3197.08
3217.44
3237.56
3257.41
3276.96
3296.18
3315.05
3333.54
3351.63
3369.28
3386.48
3403.2
3419.42
3435.11
3450.26
3464.83
3478.81
3492.18
3504.92
3517.02
3528.42
3539.17
3549.23
3558.48
3567.22
3574.85
3582.29
3588.18
3594.33
3598.41
3603.24
3605.53
3608.9
3609.64
3611
2888.42
2888.93
2885.99
2886.27
2882.08
2880.72
2876.21
2872.89
2867.99
2863.1
2857.45
2851.39
2844.8
2837.76
2830.25
2822.31
2813.94
2805.18
2796.04
2786.55
2776.72
2766.58
2756.17
2745.49
2734.58
2723.47
2712.18
2700.74
2689.17
2677.52
2665.8
2654.04
2642.28
2630.53
2618.84
2607.23
2595.73
2584.37
2573.17
2562.17
2551.39
2540.86
2530.6
2520.65
2511.03
2501.77
2492.88
2484.39
2476.34
2468.73
2461.59
2454.94
2448.8
2443.19
2438.13
2433.63
2429.72
2426.39
2423.68
2421.59
2420.14
2419.32
2419.17
2419.67
2420.84
2422.69
2425.22
2428.43
2432.33
2436.92
2442.19
2448.15
2454.8
2462.13
2470.14
2478.82
2488.17
2498.17
2508.83
2520.12
2532.05
2544.59
2557.74
2571.48
2585.8
2600.67
2616.09
2632.04
2648.5
2665.45
2682.86
2700.73
2719.02
2737.72
2756.79
2776.23
2796.01
2816.09
2836.46
2857.09
2877.95
2899.02
2920.27
2941.67
2963.19
2984.82
3006.51
3028.24
3049.98
3071.7
3093.38
3114.98
3136.47
3157.84
3179.04
3200.05
3220.84
3241.38
3261.65
3281.61
3301.24
3320.51
3339.39
3357.86
3375.9
3393.47
3410.55
3427.12
3443.15
3458.62
3473.51
3487.8
3501.46
3514.48
3526.85
3538.5
3549.48
3559.76
3569.22
3578.16
3585.95
3593.56
3599.58
3605.86
3610.05
3614.97
3617.33
3620.75
3621.53
3622.91
2897.25
2897.74
2894.76
2894.95
2890.69
2889.19
2884.56
2881.06
2876
2870.89
2865.02
2858.71
2851.86
2844.53
2836.72
2828.46
2819.76
2810.64
2801.13
2791.25
2781.03
2770.48
2759.64
2748.54
2737.19
2725.62
2713.88
2701.97
2689.94
2677.81
2665.61
2653.37
2641.13
2628.91
2616.74
2604.65
2592.67
2580.84
2569.17
2557.71
2546.48
2535.5
2524.81
2514.43
2504.39
2494.72
2485.44
2476.57
2468.14
2460.17
2452.69
2445.71
2439.26
2433.36
2428.02
2423.26
2419.1
2415.55
2412.62
2410.34
2408.71
2407.75
2407.45
2407.84
2408.91
2410.68
2413.15
2416.32
2420.2
2424.79
2430.08
2436.08
2442.79
2450.2
2458.3
2467.09
2476.57
2486.73
2497.55
2509.03
2521.16
2533.92
2547.31
2561.3
2575.88
2591.04
2606.76
2623.02
2639.81
2657.09
2674.86
2693.09
2711.76
2730.85
2750.33
2770.17
2790.37
2810.88
2831.68
2852.76
2874.07
2895.6
2917.31
2939.18
2961.18
2983.28
3005.45
3027.67
3049.89
3072.1
3094.27
3116.36
3138.34
3160.19
3181.87
3203.36
3224.63
3245.65
3266.38
3286.81
3306.89
3326.61
3345.94
3364.84
3383.3
3401.29
3418.77
3435.73
3452.14
3467.98
3483.23
3497.86
3511.85
3525.18
3537.85
3549.78
3561.03
3571.56
3581.26
3590.4
3598.39
3606.18
3612.36
3618.78
3623.08
3628.11
3630.55
3634.02
3634.85
3636.25
2907.13
2907.58
2904.57
2904.66
2900.32
2898.66
2893.9
2890.2
2884.95
2879.61
2873.49
2866.91
2859.76
2852.11
2843.96
2835.34
2826.26
2816.75
2806.83
2796.52
2785.85
2774.85
2763.54
2751.95
2740.11
2728.04
2715.78
2703.36
2690.8
2678.15
2665.42
2652.64
2639.86
2627.11
2614.4
2601.78
2589.27
2576.91
2564.73
2552.76
2541.02
2529.54
2518.36
2507.51
2497.01
2486.88
2477.15
2467.86
2459.02
2450.66
2442.79
2435.45
2428.66
2422.42
2416.77
2411.72
2407.28
2403.48
2400.32
2397.83
2396
2394.86
2394.42
2394.68
2395.64
2397.33
2399.73
2402.86
2406.72
2411.3
2416.62
2422.66
2429.43
2436.92
2445.13
2454.05
2463.68
2474
2485.01
2496.7
2509.05
2522.06
2535.71
2549.98
2564.86
2580.34
2596.39
2612.99
2630.14
2647.8
2665.96
2684.6
2703.69
2723.21
2743.13
2763.43
2784.09
2805.08
2826.37
2847.93
2869.75
2891.78
2914.01
2936.4
2958.93
2981.56
3004.26
3027.02
3049.78
3072.53
3095.24
3117.87
3140.4
3162.78
3185.01
3207.03
3228.83
3250.37
3271.62
3292.56
3313.15
3333.37
3353.19
3372.58
3391.5
3409.95
3427.88
3445.28
3462.12
3478.37
3494.01
3509.02
3523.38
3537.06
3550.05
3562.3
3573.85
3584.65
3594.61
3603.99
3612.2
3620.18
3626.54
3633.12
3637.56
3642.69
3645.23
3648.76
3649.64
3651.05
2918.11
2918.52
2915.46
2915.45
2911.01
2909.19
2904.28
2900.36
2894.9
2889.29
2882.89
2876.01
2868.53
2860.53
2852
2842.98
2833.49
2823.54
2813.16
2802.37
2791.21
2779.7
2767.87
2755.75
2743.36
2730.74
2717.91
2704.91
2691.78
2678.53
2665.21
2651.85
2638.48
2625.12
2611.83
2598.61
2585.52
2572.58
2559.83
2547.28
2534.98
2522.96
2511.24
2499.86
2488.84
2478.21
2468
2458.24
2448.94
2440.14
2431.86
2424.12
2416.94
2410.34
2404.34
2398.97
2394.23
2390.15
2386.73
2384
2381.97
2380.64
2380.03
2380.14
2380.99
2382.58
2384.91
2388
2391.83
2396.41
2401.75
2407.84
2414.68
2422.27
2430.6
2439.66
2449.44
2459.95
2471.17
2483.08
2495.69
2508.96
2522.9
2537.48
2552.69
2568.52
2584.93
2601.92
2619.47
2637.55
2656.14
2675.22
2694.77
2714.77
2735.18
2755.98
2777.15
2798.66
2820.49
2842.6
2864.96
2887.56
2910.36
2933.32
2956.43
2979.64
3002.94
3026.28
3049.64
3072.99
3096.29
3119.52
3142.64
3165.62
3188.44
3211.05
3233.43
3255.55
3277.38
3298.88
3320.03
3340.8
3361.16
3381.08
3400.53
3419.48
3437.91
3455.79
3473.1
3489.8
3505.88
3521.31
3536.07
3550.14
3563.49
3576.09
3587.97
3599.07
3609.32
3618.96
3627.42
3635.61
3642.17
3648.92
3653.51
3658.75
3661.4
3665
3665.94
3667.37
2930.23
2930.61
2927.5
2927.37
2922.83
2920.82
2915.75
2911.58
2905.89
2899.99
2893.29
2886.06
2878.22
2869.83
2860.89
2851.43
2841.47
2831.04
2820.15
2808.85
2797.14
2785.07
2772.67
2759.95
2746.96
2733.72
2720.27
2706.64
2692.87
2678.98
2665.01
2650.99
2636.96
2622.96
2609.01
2595.15
2581.41
2567.83
2554.44
2541.27
2528.36
2515.73
2503.42
2491.46
2479.88
2468.7
2457.95
2447.67
2437.88
2428.59
2419.85
2411.67
2404.06
2397.07
2390.7
2384.97
2379.9
2375.51
2371.82
2368.83
2366.56
2365.03
2364.23
2364.19
2364.91
2366.39
2368.65
2371.68
2375.49
2380.07
2385.44
2391.58
2398.5
2406.19
2414.65
2423.86
2433.83
2444.54
2455.98
2468.15
2481.03
2494.6
2508.85
2523.77
2539.35
2555.55
2572.37
2589.78
2607.76
2626.3
2645.36
2664.93
2684.99
2705.5
2726.45
2747.8
2769.53
2791.62
2814.03
2836.73
2859.7
2882.91
2906.33
2929.93
2953.67
2977.52
3001.46
3025.45
3049.46
3073.46
3097.42
3121.3
3145.08
3168.71
3192.17
3215.43
3238.45
3261.2
3283.66
3305.78
3327.55
3348.92
3369.87
3390.37
3410.39
3429.9
3448.87
3467.28
3485.1
3502.3
3518.86
3534.75
3549.95
3564.44
3578.2
3591.18
3603.42
3614.86
3625.43
3635.35
3644.08
3652.51
3659.29
3666.21
3670.98
3676.35
3679.12
3682.78
3683.79
3685.24
2943.57
2943.9
2940.74
2940.47
2935.83
2933.61
2928.36
2923.92
2917.97
2911.76
2904.72
2897.13
2888.89
2880.07
2870.67
2860.73
2850.26
2839.29
2827.85
2815.97
2803.67
2790.98
2777.94
2764.58
2750.93
2737.02
2722.88
2708.56
2694.08
2679.48
2664.8
2650.06
2635.32
2620.6
2605.93
2591.36
2576.92
2562.64
2548.56
2534.71
2521.12
2507.83
2494.88
2482.28
2470.08
2458.3
2446.97
2436.12
2425.78
2415.97
2406.72
2398.06
2390
2382.57
2375.79
2369.67
2364.24
2359.52
2355.52
2352.25
2349.73
2347.97
2346.98
2346.77
2347.35
2348.72
2350.89
2353.86
2357.64
2362.23
2367.63
2373.83
2380.84
2388.64
2397.24
2406.62
2416.78
2427.71
2439.41
2451.84
2465.02
2478.92
2493.52
2508.81
2524.77
2541.39
2558.65
2576.51
2594.98
2614.01
2633.59
2653.7
2674.3
2695.38
2716.91
2738.86
2761.21
2783.92
2806.96
2830.32
2853.95
2877.83
2901.92
2926.2
2950.63
2975.18
2999.82
3024.52
3049.24
3073.95
3098.62
3123.22
3147.7
3172.04
3196.21
3220.17
3243.89
3267.34
3290.48
3313.28
3335.71
3357.74
3379.34
3400.47
3421.11
3441.23
3460.8
3479.78
3498.16
3515.9
3532.99
3549.38
3565.07
3580.02
3594.22
3607.61
3620.25
3632.05
3642.97
3653.2
3662.23
3670.91
3677.94
3685.06
3690.01
3695.52
3698.43
3702.16
3703.25
3704.72
2958.18
2958.46
2955.24
2954.84
2950.07
2947.62
2942.18
2937.45
2931.21
2924.65
2917.25
2909.25
2900.57
2891.28
2881.39
2870.92
2859.89
2848.34
2836.29
2823.78
2810.83
2797.47
2783.73
2769.66
2755.28
2740.64
2725.75
2710.67
2695.42
2680.05
2664.59
2649.07
2633.55
2618.04
2602.6
2587.25
2572.03
2556.99
2542.15
2527.56
2513.24
2499.23
2485.57
2472.29
2459.41
2446.97
2435.01
2423.55
2412.61
2402.23
2392.44
2383.25
2374.69
2366.79
2359.56
2353.03
2347.21
2342.12
2337.79
2334.21
2331.42
2329.41
2328.21
2327.82
2328.24
2329.49
2331.57
2334.49
2338.24
2342.83
2348.26
2354.53
2361.63
2369.55
2378.3
2387.87
2398.25
2409.42
2421.38
2434.12
2447.62
2461.87
2476.85
2492.54
2508.93
2526
2543.73
2562.1
2581.08
2600.65
2620.79
2641.48
2662.68
2684.38
2706.54
2729.14
2752.15
2775.53
2799.27
2823.33
2847.67
2872.28
2897.1
2922.13
2947.31
2972.62
2998.02
3023.48
3048.97
3074.46
3099.9
3125.26
3150.52
3175.63
3200.57
3225.29
3249.76
3273.96
3297.84
3321.38
3344.53
3367.28
3389.58
3411.4
3432.72
3453.5
3473.71
3493.32
3512.31
3530.64
3548.29
3565.24
3581.45
3596.91
3611.58
3625.43
3638.5
3650.7
3661.99
3672.56
3681.92
3690.87
3698.17
3705.5
3710.67
3716.32
3719.38
3723.19
3724.36
3725.85
2974.14
2974.37
2971.09
2970.53
2965.62
2962.93
2957.27
2952.23
2945.68
2938.74
2930.93
2922.49
2913.33
2903.53
2893.09
2882.04
2870.41
2858.23
2845.52
2832.31
2818.65
2804.55
2790.07
2775.22
2760.05
2744.6
2728.9
2712.99
2696.9
2680.69
2664.38
2648.01
2631.63
2615.28
2598.99
2582.79
2566.74
2550.87
2535.21
2519.81
2504.69
2489.9
2475.47
2461.44
2447.83
2434.69
2422.04
2409.91
2398.33
2387.33
2376.94
2367.19
2358.09
2349.67
2341.96
2334.98
2328.74
2323.26
2318.56
2314.66
2311.57
2309.3
2307.86
2307.27
2307.53
2308.65
2310.64
2313.49
2317.21
2321.81
2327.28
2333.61
2340.82
2348.88
2357.8
2367.57
2378.17
2389.61
2401.86
2414.92
2428.78
2443.4
2458.79
2474.92
2491.77
2509.33
2527.57
2546.48
2566.02
2586.18
2606.92
2628.24
2650.09
2672.45
2695.29
2718.59
2742.32
2766.44
2790.92
2815.74
2840.86
2866.24
2891.87
2917.69
2943.68
2969.81
2996.03
3022.32
3048.64
3074.96
3101.24
3127.44
3153.53
3179.47
3205.23
3230.78
3256.07
3281.08
3305.77
3330.1
3354.04
3377.55
3400.61
3423.18
3445.23
3466.72
3487.63
3507.93
3527.57
3546.55
3564.82
3582.35
3599.14
3615.14
3630.33
3644.68
3658.21
3670.84
3682.55
3693.48
3703.19
3712.45
3720.04
3727.6
3733
3738.8
3742.02
3745.92
3747.18
3748.69
2991.53
2991.7
2988.35
2987.62
2982.57
2979.61
2973.72
2968.32
2961.44
2954.09
2945.84
2936.92
2927.24
2916.88
2905.85
2894.17
2881.88
2869
2855.57
2841.61
2827.17
2812.28
2796.97
2781.29
2765.26
2748.93
2732.34
2715.53
2698.54
2681.41
2664.18
2646.89
2629.58
2612.3
2595.09
2577.98
2561.02
2544.25
2527.7
2511.42
2495.44
2479.81
2464.55
2449.71
2435.31
2421.4
2408
2395.15
2382.88
2371.21
2360.18
2349.81
2340.13
2331.17
2322.93
2315.46
2308.76
2302.86
2297.78
2293.52
2290.11
2287.56
2285.88
2285.07
2285.16
2286.14
2288.02
2290.81
2294.5
2299.1
2304.61
2311.02
2318.34
2326.55
2335.65
2345.63
2356.49
2368.21
2380.78
2394.19
2408.42
2423.46
2439.29
2455.89
2473.25
2491.33
2510.13
2529.61
2549.76
2570.54
2591.94
2613.93
2636.48
2659.56
2683.14
2707.2
2731.69
2756.6
2781.89
2807.53
2833.48
2859.71
2886.18
2912.87
2939.73
2966.74
2993.85
3021.03
3048.25
3075.46
3102.64
3129.74
3156.73
3183.57
3210.22
3236.66
3262.83
3288.71
3314.27
3339.45
3364.24
3388.59
3412.47
3435.84
3458.68
3480.94
3502.61
3523.63
3543.99
3563.66
3582.59
3600.77
3618.17
3634.77
3650.52
3665.4
3679.44
3692.54
3704.69
3716.02
3726.12
3735.69
3743.6
3751.41
3757.06
3763.03
3766.43
3770.42
3771.78
3773.31
3010.44
3010.54
3007.12
3006.2
3001
2997.74
2991.6
2985.83
2978.57
2970.77
2962.05
2952.6
2942.36
2931.4
2919.72
2907.36
2894.35
2880.71
2866.5
2851.73
2836.45
2820.69
2804.49
2787.89
2770.93
2753.65
2736.1
2718.31
2700.33
2682.21
2663.98
2645.69
2627.38
2609.1
2590.89
2572.79
2554.85
2537.1
2519.6
2502.37
2485.46
2468.91
2452.76
2437.04
2421.79
2407.05
2392.85
2379.22
2366.2
2353.82
2342.1
2331.07
2320.76
2311.2
2302.41
2294.41
2287.23
2280.87
2275.37
2270.73
2266.98
2264.12
2262.18
2261.15
2261.04
2261.87
2263.64
2266.36
2270.02
2274.63
2280.18
2286.68
2294.12
2302.49
2311.79
2322.01
2333.14
2345.17
2358.08
2371.87
2386.51
2401.99
2418.29
2435.4
2453.29
2471.95
2491.34
2511.44
2532.24
2553.71
2575.81
2598.52
2621.82
2645.67
2670.04
2694.91
2720.24
2745.99
2772.15
2798.66
2825.5
2852.64
2880.03
2907.65
2935.45
2963.4
2991.46
3019.6
3047.78
3075.96
3104.1
3132.17
3160.12
3187.92
3215.54
3242.92
3270.05
3296.87
3323.35
3349.46
3375.15
3400.4
3425.16
3449.4
3473.09
3496.18
3518.66
3540.47
3561.6
3582.01
3601.67
3620.54
3638.61
3655.83
3672.2
3687.66
3702.23
3715.84
3728.47
3740.23
3750.75
3760.67
3768.93
3777
3782.92
3789.08
3792.67
3796.76
3798.23
3799.78
3030.95
3030.98
3027.48
3026.36
3020.99
3017.42
3010.99
3004.82
2997.16
2988.88
2979.64
2969.62
2958.77
2947.15
2934.77
2921.67
2907.87
2893.43
2878.36
2862.71
2846.51
2829.81
2812.64
2795.06
2777.09
2758.78
2740.18
2721.34
2702.3
2683.1
2663.79
2644.41
2625.02
2605.66
2586.37
2567.21
2548.2
2529.41
2510.86
2492.61
2474.7
2457.17
2440.05
2423.39
2407.23
2391.6
2376.53
2362.07
2348.25
2335.09
2322.63
2310.89
2299.91
2289.71
2280.32
2271.76
2264.05
2257.21
2251.26
2246.21
2242.1
2238.91
2236.68
2235.41
2235.11
2235.78
2237.43
2240.07
2243.7
2248.32
2253.93
2260.52
2268.09
2276.63
2286.15
2296.62
2308.04
2320.4
2333.68
2347.87
2362.96
2378.92
2395.73
2413.38
2431.85
2451.11
2471.14
2491.92
2513.42
2535.61
2558.46
2581.96
2606.06
2630.73
2655.95
2681.69
2707.91
2734.57
2761.65
2789.11
2816.91
2845.01
2873.39
2902
2930.81
2959.77
2988.85
3018.02
3047.23
3076.44
3105.61
3134.72
3163.7
3192.54
3221.18
3249.59
3277.73
3305.56
3333.04
3360.14
3386.81
3413.01
3438.72
3463.89
3488.49
3512.48
3535.82
3558.49
3580.44
3601.65
3622.08
3641.7
3660.48
3678.4
3695.41
3711.5
3726.66
3740.81
3753.96
3766.19
3777.15
3787.45
3796.08
3804.45
3810.65
3817.01
3820.81
3825.01
3826.59
3828.18
3053.18
3053.13
3049.54
3048.21
3042.65
3038.74
3032.01
3025.4
3017.3
3008.5
2998.7
2988.06
2976.54
2964.21
2951.07
2937.17
2922.53
2907.2
2891.21
2874.61
2857.42
2839.7
2821.49
2802.83
2783.77
2764.35
2744.62
2724.64
2704.44
2684.08
2663.6
2643.06
2622.5
2601.97
2581.53
2561.2
2541.06
2521.13
2501.47
2482.12
2463.13
2444.54
2426.39
2408.72
2391.57
2374.98
2358.99
2343.63
2328.94
2314.96
2301.7
2289.21
2277.51
2266.63
2256.59
2247.43
2239.15
2231.79
2225.36
2219.89
2215.38
2211.85
2209.31
2207.78
2207.26
2207.77
2209.3
2211.86
2215.46
2220.09
2225.75
2232.44
2240.16
2248.9
2258.64
2269.39
2281.12
2293.84
2307.52
2322.14
2337.7
2354.17
2371.54
2389.77
2408.86
2428.77
2449.49
2470.98
2493.23
2516.2
2539.86
2564.18
2589.14
2614.7
2640.83
2667.5
2694.67
2722.31
2750.38
2778.84
2807.66
2836.81
2866.23
2895.91
2925.79
2955.83
2986.01
3016.27
3046.58
3076.89
3107.18
3137.38
3167.48
3197.42
3227.16
3256.66
3285.89
3314.8
3343.35
3371.5
3399.21
3426.45
3453.17
3479.34
3504.91
3529.86
3554.14
3577.72
3600.56
3622.62
3643.89
3664.31
3683.86
3702.51
3720.23
3736.98
3752.77
3767.52
3781.23
3793.95
3805.4
3816.11
3825.14
3833.82
3840.34
3846.91
3850.94
3855.25
3856.96
3858.57
3077.23
3077.1
3073.42
3071.85
3066.09
3061.81
3054.74
3047.67
3039.09
3029.73
3019.32
3008.01
2995.78
2982.67
2968.71
2953.94
2938.39
2922.1
2905.12
2887.48
2869.22
2850.4
2831.06
2811.24
2791
2770.38
2749.43
2728.22
2706.77
2685.16
2663.42
2641.62
2619.8
2598.02
2576.32
2554.76
2533.38
2512.24
2491.38
2470.85
2450.7
2430.97
2411.71
2392.96
2374.75
2357.14
2340.16
2323.84
2308.23
2293.35
2279.25
2265.94
2253.47
2241.86
2231.14
2221.33
2212.45
2204.54
2197.6
2191.66
2186.73
2182.83
2179.98
2178.17
2177.43
2177.76
2179.16
2181.64
2185.2
2189.85
2195.57
2202.38
2210.25
2219.19
2229.19
2240.23
2252.3
2265.4
2279.5
2294.6
2310.66
2327.68
2345.63
2364.5
2384.25
2404.86
2426.31
2448.57
2471.61
2495.41
2519.94
2545.15
2571.03
2597.53
2624.63
2652.29
2680.48
2709.15
2738.28
2767.82
2797.73
2827.98
2858.53
2889.34
2920.37
2951.57
2982.91
3014.34
3045.82
3077.32
3108.78
3140.17
3171.44
3202.56
3233.47
3264.15
3294.54
3324.6
3354.29
3383.57
3412.4
3440.74
3468.54
3495.78
3522.4
3548.37
3573.65
3598.2
3621.99
3644.98
3667.13
3688.41
3708.79
3728.23
3746.71
3764.18
3780.65
3796.03
3810.34
3823.6
3835.57
3846.72
3856.18
3865.2
3872.05
3878.87
3883.13
3887.58
3889.41
3891.06
3103.22
3103.01
3099.22
3097.4
3091.41
3086.75
3079.32
3071.74
3062.64
3052.67
3041.61
3029.58
3016.56
3002.62
2987.78
2972.07
2955.53
2938.21
2920.15
2901.39
2881.98
2861.96
2841.4
2820.33
2798.81
2776.9
2754.64
2732.09
2709.3
2686.34
2663.25
2640.09
2616.92
2593.78
2570.74
2547.84
2525.14
2502.69
2480.55
2458.76
2437.36
2416.41
2395.96
2376.05
2356.71
2338.01
2319.96
2302.62
2286.02
2270.2
2255.18
2241.01
2227.72
2215.33
2203.88
2193.38
2183.87
2175.36
2167.88
2161.44
2156.07
2151.78
2148.58
2146.48
2145.5
2145.64
2146.91
2149.3
2152.84
2157.5
2163.3
2170.22
2178.27
2187.43
2197.69
2209.05
2221.49
2235
2249.56
2265.15
2281.76
2299.37
2317.95
2337.48
2357.94
2379.3
2401.53
2424.61
2448.51
2473.2
2498.64
2524.8
2551.66
2579.17
2607.3
2636.02
2665.29
2695.07
2725.32
2756
2787.08
2818.52
2850.26
2882.28
2914.52
2946.95
2979.53
3012.21
3044.95
3077.7
3110.42
3143.07
3175.6
3207.97
3240.14
3272.05
3303.68
3334.97
3365.88
3396.36
3426.39
3455.9
3484.86
3513.23
3540.97
3568.03
3594.38
3619.98
3644.79
3668.76
3691.87
3714.07
3735.33
3755.63
3774.91
3793.16
3810.35
3826.41
3841.37
3855.22
3867.74
3879.37
3889.28
3898.68
3905.89
3912.97
3917.47
3922.07
3924.04
3925.73
3131.29
3130.98
3127.08
3124.99
3118.76
3113.68
3105.85
3097.73
3088.06
3077.45
3065.67
3052.86
3039.01
3024.17
3008.36
2991.64
2974.03
2955.6
2936.37
2916.4
2895.74
2874.45
2852.56
2830.14
2807.25
2783.94
2760.26
2736.28
2712.05
2687.63
2663.08
2638.46
2613.82
2589.23
2564.75
2540.42
2516.3
2492.46
2468.93
2445.78
2423.06
2400.81
2379.08
2357.92
2337.38
2317.51
2298.33
2279.89
2262.24
2245.4
2229.42
2214.33
2200.16
2186.95
2174.71
2163.48
2153.29
2144.15
2136.09
2129.13
2123.29
2118.58
2115.02
2112.61
2111.38
2111.32
2112.44
2114.76
2118.26
2122.95
2128.82
2135.87
2144.1
2153.5
2164.05
2175.76
2188.59
2202.54
2217.59
2233.72
2250.92
2269.15
2288.4
2308.65
2329.86
2352.02
2375.09
2399.04
2423.85
2449.48
2475.9
2503.07
2530.97
2559.55
2588.79
2618.63
2649.05
2680.01
2711.46
2743.36
2775.68
2808.37
2841.38
2874.68
2908.23
2941.97
2975.86
3009.87
3043.94
3078.02
3112.09
3146.07
3179.94
3213.65
3247.15
3280.39
3313.33
3345.93
3378.13
3409.91
3441.2
3471.96
3502.16
3531.74
3560.67
3588.9
3616.39
3643.11
3669
3694.02
3718.15
3741.34
3763.56
3784.76
3804.91
3823.99
3841.96
3858.76
3874.41
3888.88
3902
3914.15
3924.55
3934.36
3941.94
3949.31
3954.07
3958.84
3960.95
3962.69
3161.57
3161.16
3157.14
3154.77
3148.27
3142.74
3134.48
3125.78
3115.5
3104.18
3091.63
3077.98
3063.22
3047.41
3030.57
3012.75
2993.99
2974.35
2953.87
2932.59
2910.59
2887.9
2864.6
2840.72
2816.35
2791.52
2766.32
2740.79
2715
2689.02
2662.9
2636.71
2610.51
2584.36
2558.32
2532.46
2506.82
2481.47
2456.47
2431.87
2407.72
2384.08
2361
2338.52
2316.69
2295.56
2275.18
2255.58
2236.8
2218.89
2201.88
2185.81
2170.71
2156.61
2143.54
2131.54
2120.62
2110.81
2102.14
2094.62
2088.28
2083.13
2079.18
2076.45
2074.95
2074.68
2075.66
2077.88
2081.36
2086.07
2092.03
2099.23
2107.66
2117.32
2128.19
2140.25
2153.51
2167.93
2183.51
2200.21
2218.03
2236.94
2256.91
2277.91
2299.93
2322.94
2346.9
2371.78
2397.55
2424.19
2451.65
2479.9
2508.91
2538.63
2569.03