/*--------------------------------*- C++ -*----------------------------------*\
| =========                 |                                                 |
| \\      /  F ield         | OpenFOAM: The Open Source CFD Toolbox           |
|  \\    /   O peration     | Version:  v2006                                 |
|   \\  /    A nd           | Website:  www.openfoam.com                      |
|    \\/     M anipulation  |                                                 |
\*---------------------------------------------------------------------------*/
FoamFile
{
    version     2.0;
    format      ascii;
    class       surfaceScalarField;
    location    "1.1";
    object      phi;
}
// * * * * * * * * * * * * * * * * * * * * * * * * * * * * * * * * * * * * * //

dimensions      [0 3 -1 0 0 0 0];
oriented        oriented;


internalField   nonuniform List<scalar> 
99450
(
-4.45493e-05
4.45493e-05
-8.10984e-05
3.65491e-05
-0.000122953
4.1855e-05
-0.000162804
3.9851e-05
-0.000204028
4.12235e-05
-0.000244981
4.0953e-05
-0.000286073
4.10918e-05
-0.000327639
4.15665e-05
-0.000369179
4.15394e-05
-0.000411095
4.19167e-05
-0.000453202
4.21071e-05
-0.000495549
4.23466e-05
-0.000538158
4.26088e-05
-0.000580974
4.28162e-05
-0.000624049
4.30751e-05
-0.000667332
4.32827e-05
-0.000710824
4.34926e-05
-0.000754501
4.36765e-05
-0.000798343
4.38424e-05
-0.000842328
4.39843e-05
-0.000886426
4.4098e-05
-0.000930602
4.41767e-05
-0.000974822
4.42197e-05
-0.00101904
4.42197e-05
-0.00106321
4.41688e-05
-0.00110728
4.40734e-05
-0.00115122
4.39316e-05
-0.00119495
4.37349e-05
-0.00123843
4.34835e-05
-0.00128161
4.31767e-05
-0.00132442
4.28124e-05
-0.00136681
4.23891e-05
-0.00140872
4.19051e-05
-0.00145008
4.13608e-05
-0.00149084
4.07577e-05
-0.00153093
4.00987e-05
-0.00157032
3.93883e-05
-0.00160896
3.86328e-05
-0.00164679
3.7839e-05
-0.00168381
3.70145e-05
-0.00171998
3.61667e-05
-0.00175528
3.53003e-05
-0.00178969
3.44173e-05
-0.00182321
3.35204e-05
-0.00185583
3.26138e-05
-0.00188753
3.17007e-05
-0.00191831
3.07825e-05
-0.00194817
2.986e-05
-0.0019771
2.89325e-05
-0.0020051
2.79992e-05
-0.00203216
2.70601e-05
-0.00205828
2.61158e-05
-0.00208344
2.51657e-05
-0.00210765
2.42086e-05
-0.0021309
2.32449e-05
-0.00215317
2.22747e-05
-0.00217447
2.12975e-05
-0.00219478
2.03129e-05
-0.0022141
1.93216e-05
-0.00223243
1.83232e-05
-0.00224975
1.73185e-05
-0.00226605
1.63077e-05
-0.00228134
1.52906e-05
-0.00229561
1.42673e-05
-0.00230885
1.32384e-05
-0.00232105
1.22044e-05
-0.00233222
1.11651e-05
-0.00234234
1.01208e-05
-0.00235141
9.07246e-06
-0.00235943
8.01874e-06
-0.00236639
6.96271e-06
-0.0023723
5.90281e-06
-0.00237714
4.83956e-06
-0.00238091
3.77445e-06
-0.00238362
2.7102e-06
-0.00238527
1.64933e-06
-0.00238587
5.99418e-07
-0.00238544
-4.2551e-07
-0.00238403
-1.414e-06
-0.00238167
-2.36472e-06
-0.00237838
-3.28078e-06
-0.00237422
-4.16839e-06
-0.00236918
-5.03544e-06
-0.00236329
-5.88762e-06
-0.00235656
-6.72953e-06
-0.002349
-7.56021e-06
-0.00234062
-8.37966e-06
-0.00233144
-9.18582e-06
-0.00232146
-9.9794e-06
-0.00231069
-1.07665e-05
-0.00229915
-1.15443e-05
-0.00228683
-1.23142e-05
-0.00227376
-1.30755e-05
-0.00225993
-1.38286e-05
-0.00224536
-1.4572e-05
-0.00223005
-1.53067e-05
-0.00221401
-1.60428e-05
-0.00219724
-1.6771e-05
-0.00217974
-1.74987e-05
-0.00216151
-1.82258e-05
-0.00214256
-1.89554e-05
-0.00212287
-1.96897e-05
-0.00210243
-2.04362e-05
-0.00208124
-2.11946e-05
-0.00205926
-2.19722e-05
-0.0020365
-2.27621e-05
-0.00201293
-2.35686e-05
-0.00198853
-2.44073e-05
-0.00196325
-2.52769e-05
-0.00193708
-2.61698e-05
-0.00190999
-2.70871e-05
-0.00188195
-2.80448e-05
-0.00185292
-2.90314e-05
-0.00182286
-3.00549e-05
-0.00179176
-3.1104e-05
-0.00175957
-3.2184e-05
-0.00172628
-3.32895e-05
-0.00169186
-3.44264e-05
-0.00165627
-3.55891e-05
-0.00161952
-3.67493e-05
-0.00158157
-3.79537e-05
-0.0015424
-3.91683e-05
-0.001502
-4.03968e-05
-0.00146036
-4.16419e-05
-0.00141747
-4.28872e-05
-0.00137335
-4.41258e-05
-0.00132798
-4.53707e-05
-0.00128135
-4.66225e-05
-0.0012335
-4.78526e-05
-0.00118442
-4.90762e-05
-0.00113414
-5.02849e-05
-0.00108266
-5.14835e-05
-0.00103
-5.26518e-05
-0.000976268
-5.37354e-05
-0.000921226
-5.50419e-05
-0.00086502
-5.62058e-05
-0.000809143
-5.58774e-05
-0.000748954
-6.01887e-05
-0.000693345
-5.56096e-05
-0.000629681
-6.3664e-05
-0.000573149
-5.65313e-05
-0.000508299
-6.48505e-05
-0.000449452
-5.88462e-05
-0.00038404
-6.5412e-05
-0.000323294
-6.07466e-05
-0.000255399
-6.78947e-05
-0.000195477
-5.99218e-05
-0.0001233
-7.21774e-05
-6.69565e-05
-5.63436e-05
-6.69565e-05
-5.23901e-05
9.69395e-05
-0.000102975
8.71335e-05
-0.000153149
9.20294e-05
-0.000205391
9.20928e-05
-0.000256137
9.19699e-05
-0.000307176
9.19922e-05
-0.000357859
9.17743e-05
-0.000408115
9.18229e-05
-0.000458197
9.16216e-05
-0.000507816
9.15356e-05
-0.000557082
9.13731e-05
-0.000605918
9.11825e-05
-0.000654299
9.09899e-05
-0.000702214
9.07306e-05
-0.000749612
9.0473e-05
-0.000796485
9.01563e-05
-0.000842805
8.98124e-05
-0.000888552
8.94239e-05
-0.000933705
8.89945e-05
-0.000978243
8.85228e-05
-0.00102215
8.8006e-05
-0.00106542
8.74459e-05
-0.00110804
8.68423e-05
-0.00115001
8.61905e-05
-0.00119134
8.54904e-05
-0.00123201
8.4744e-05
-0.00127202
8.3949e-05
-0.00131139
8.3104e-05
-0.00135012
8.22107e-05
-0.00138821
8.1269e-05
-0.00142568
8.02801e-05
-0.00146253
7.92445e-05
-0.00149879
7.81628e-05
-0.00153447
7.70372e-05
-0.00156958
7.5869e-05
-0.00160414
7.4659e-05
-0.00163816
7.34087e-05
-0.00167165
7.21198e-05
-0.0017046
7.07937e-05
-0.00173702
6.94316e-05
-0.00176889
6.80337e-05
-0.00180019
6.66008e-05
-0.0018309
6.51338e-05
-0.00186102
6.36335e-05
-0.0018905
6.21006e-05
-0.00191934
6.05355e-05
-0.00194749
5.89386e-05
-0.00197495
5.73106e-05
-0.00200167
5.56526e-05
-0.00202763
5.39656e-05
-0.00205282
5.22509e-05
-0.00207721
5.0508e-05
-0.00210079
4.87397e-05
-0.00212353
4.69454e-05
-0.00214541
4.51269e-05
-0.00216642
4.32845e-05
-0.00218654
4.14204e-05
-0.00220576
3.95351e-05
-0.00222407
3.76304e-05
-0.00224145
3.57056e-05
-0.0022579
3.37672e-05
-0.0022734
3.18041e-05
-0.00228794
2.98301e-05
-0.00230151
2.78407e-05
-0.00231411
2.58369e-05
-0.00232573
2.38205e-05
-0.00233635
2.17921e-05
-0.00234598
1.97521e-05
-0.00235461
1.77026e-05
-0.00236224
1.56425e-05
-0.00236885
1.35758e-05
-0.00237445
1.15015e-05
-0.00237903
9.41894e-06
-0.00238259
7.33202e-06
-0.00238512
5.24114e-06
-0.00238661
3.14497e-06
-0.00238706
1.04462e-06
-0.00238641
-1.07111e-06
-0.00238464
-3.18249e-06
-0.00238171
-5.2956e-06
-0.00237758
-7.40979e-06
-0.00237223
-9.52305e-06
-0.00236563
-1.1634e-05
-0.00235778
-1.37411e-05
-0.00234866
-1.5844e-05
-0.00233828
-1.79415e-05
-0.00232663
-2.00311e-05
-0.00231371
-2.21113e-05
-0.0022995
-2.41849e-05
-0.00228402
-2.62489e-05
-0.00226726
-2.83013e-05
-0.00224923
-3.03425e-05
-0.00222994
-3.23713e-05
-0.00220938
-3.43864e-05
-0.00218756
-3.63887e-05
-0.00216449
-3.83749e-05
-0.00214019
-4.03418e-05
-0.00211467
-4.22963e-05
-0.00208794
-4.42317e-05
-0.00206001
-4.61478e-05
-0.00203093
-4.80439e-05
-0.00200069
-4.99231e-05
-0.00196935
-5.17818e-05
-0.00193692
-5.36186e-05
-0.00190346
-5.54367e-05
-0.00186899
-5.72285e-05
-0.00183357
-5.89948e-05
-0.00179723
-6.07475e-05
-0.00176003
-6.24739e-05
-0.00172202
-6.4175e-05
-0.00168326
-6.58523e-05
-0.00164379
-6.75113e-05
-0.00160368
-6.91414e-05
-0.00156298
-7.07533e-05
-0.00152175
-7.23397e-05
-0.00148003
-7.39039e-05
-0.00143787
-7.54472e-05
-0.00139532
-7.69765e-05
-0.00135244
-7.8467e-05
-0.00130925
-7.99435e-05
-0.0012658
-8.14013e-05
-0.00122215
-8.28234e-05
-0.00117831
-8.42358e-05
-0.00113432
-8.56324e-05
-0.00109021
-8.6988e-05
-0.00104601
-8.8334e-05
-0.00100172
-8.96595e-05
-0.000957414
-9.09263e-05
-0.000913088
-9.21791e-05
-0.000868758
-9.34063e-05
-0.000824457
-9.45852e-05
-0.000780198
-9.5743e-05
-0.000736017
-9.68323e-05
-0.000691878
-9.78744e-05
-0.000647918
-9.90024e-05
-0.000604394
-9.97297e-05
-0.000559539
-0.000100733
-0.000517201
-0.000102527
-0.000471712
-0.000101099
-0.000429973
-0.000105403
-0.000384879
-0.000101625
-0.000342575
-0.000107155
-0.000298582
-0.000102839
-0.000256045
-0.000107949
-0.000212627
-0.000104165
-0.000172014
-0.000108508
-0.000127088
-0.000104847
-9.00207e-05
-0.000109245
-4.08318e-05
-0.000105532
-0.000107788
-4.97717e-05
0.000146711
-9.58329e-05
0.000133195
-0.000143286
0.000139482
-0.000191553
0.00014036
-0.00023903
0.000139447
-0.000286823
0.000139785
-0.00033412
0.000139071
-0.000381458
0.000139161
-0.000428429
0.000138593
-0.000475285
0.000138392
-0.000521829
0.000137917
-0.000568154
0.000137508
-0.00061418
0.000137016
-0.00065993
0.00013648
-0.000705375
0.000135918
-0.00075051
0.000135291
-0.000795324
0.000134627
-0.000839806
0.000133906
-0.000883952
0.00013314
-0.000927752
0.000132323
-0.000971199
0.000131453
-0.00101428
0.00013053
-0.00105699
0.000129553
-0.00109933
0.000128522
-0.00114127
0.000127434
-0.00118281
0.00012629
-0.00122395
0.000125088
-0.00126467
0.000123824
-0.00130496
0.000122498
-0.0013448
0.000121114
-0.0013842
0.000119672
-0.00142312
0.000118168
-0.00146156
0.000116601
-0.00149949
0.000114973
-0.00153691
0.000113284
-0.00157378
0.000111534
-0.0016101
0.000109724
-0.00164583
0.000107854
-0.00168096
0.000105923
-0.00171546
0.000103931
-0.00174931
0.000101878
-0.00178247
9.97662e-05
-0.00181494
9.75994e-05
-0.00184668
9.53768e-05
-0.00187768
9.3099e-05
-0.00190791
9.0769e-05
-0.00193736
8.83869e-05
-0.00196601
8.59562e-05
-0.00199383
8.348e-05
-0.00202082
8.09545e-05
-0.00204696
7.8387e-05
-0.00207223
7.57774e-05
-0.00209661
7.31259e-05
-0.00212011
7.04371e-05
-0.00214269
6.77092e-05
-0.00216435
6.49486e-05
-0.00218509
6.2153e-05
-0.00220488
5.9325e-05
-0.00222371
5.64665e-05
-0.00224158
5.35786e-05
-0.00225848
5.06656e-05
-0.0022744
4.77242e-05
-0.00228933
4.47622e-05
-0.00230327
4.1776e-05
-0.0023162
3.87677e-05
-0.00232812
3.5742e-05
-0.00233903
3.26981e-05
-0.00234891
2.96359e-05
-0.00235777
2.65587e-05
-0.00236559
2.34681e-05
-0.00237238
2.03654e-05
-0.00237814
1.72533e-05
-0.00238284
1.41277e-05
-0.00238651
1.09958e-05
-0.00238912
7.85782e-06
-0.00239069
4.71386e-06
-0.00239121
1.56318e-06
-0.00239068
-1.59962e-06
-0.00238911
-4.76052e-06
-0.00238648
-7.92466e-06
-0.0023828
-1.10907e-05
-0.00237806
-1.42576e-05
-0.00237227
-1.74213e-05
-0.00236543
-2.05812e-05
-0.00235754
-2.37357e-05
-0.0023486
-2.68861e-05
-0.0023386
-3.00273e-05
-0.00232755
-3.31606e-05
-0.00231545
-3.62856e-05
-0.0023023
-3.94e-05
-0.0022881
-4.25046e-05
-0.00227284
-4.55963e-05
-0.00225654
-4.86741e-05
-0.00223918
-5.1742e-05
-0.00222078
-5.47951e-05
-0.00220132
-5.78299e-05
-0.00218082
-6.08501e-05
-0.00215925
-6.38567e-05
-0.00213664
-6.68442e-05
-0.00211298
-6.98122e-05
-0.00208826
-7.27587e-05
-0.0020625
-7.56854e-05
-0.00203569
-7.85961e-05
-0.00200783
-8.14795e-05
-0.00197892
-8.43389e-05
-0.00194898
-8.71688e-05
-0.001918
-8.99748e-05
-0.001886
-9.27511e-05
-0.00185298
-9.54955e-05
-0.00181895
-9.82046e-05
-0.00178393
-0.000100872
-0.00174793
-0.00010351
-0.00171097
-0.000106097
-0.00167309
-0.000108638
-0.00163429
-0.000111134
-0.00159462
-0.000113576
-0.0015541
-0.000115968
-0.00151278
-0.0001183
-0.00147066
-0.000120589
-0.00142779
-0.000122813
-0.00138422
-0.000124973
-0.00133998
-0.000127055
-0.00129514
-0.000129077
-0.00124975
-0.000131025
-0.00120384
-0.000132898
-0.00115747
-0.0001347
-0.00111069
-0.000136443
-0.00106353
-0.00013809
-0.00101603
-0.000139671
-0.00096828
-0.000141161
-0.000920282
-0.000142583
-0.000872081
-0.000143943
-0.000823715
-0.000145198
-0.000775154
-0.000146435
-0.000726578
-0.000147579
-0.000677848
-0.00014846
-0.000628878
-0.000149702
-0.000580974
-0.000150431
-0.000531203
-0.00015087
-0.000483983
-0.000152623
-0.000433944
-0.000151664
-0.000386754
-0.000154345
-0.000337001
-0.000152591
-0.000289717
-0.000155233
-0.000240317
-0.000153565
-0.000193761
-0.000155063
-0.000143908
-0.0001547
-9.89677e-05
-0.000154186
-4.66983e-05
-0.000157802
-0.000154487
-4.91102e-05
0.000195821
-9.32117e-05
0.000177296
-0.000139765
0.000186036
-0.000186497
0.000187092
-0.000232904
0.000185853
-0.000279582
0.000186463
-0.000325836
0.000185326
-0.000372335
0.00018566
-0.000418486
0.000184743
-0.000464693
0.000184599
-0.00051067
0.000183894
-0.000556566
0.000183404
-0.000602285
0.000182735
-0.000647856
0.000182051
-0.000693248
0.00018131
-0.000738448
0.000180491
-0.000783442
0.000179621
-0.000828219
0.000178683
-0.00087276
0.000177681
-0.000917047
0.00017661
-0.000961063
0.000175468
-0.00100479
0.000174254
-0.0010482
0.000172969
-0.00109129
0.000171607
-0.00113403
0.000170171
-0.00117639
0.000168655
-0.00121836
0.000167057
-0.00125992
0.00016538
-0.00130104
0.000163625
-0.00134171
0.000161785
-0.0013819
0.000159859
-0.00142158
0.000157849
-0.00146074
0.000155755
-0.00149934
0.000153578
-0.00153738
0.000151319
-0.00157482
0.000148976
-0.00161164
0.000146549
-0.00164783
0.00014404
-0.00168336
0.00014145
-0.00171821
0.000138781
-0.00175236
0.000136034
-0.00178581
0.00013321
-0.00181852
0.00013031
-0.00185048
0.000127335
-0.00188167
0.00012429
-0.00191207
0.000121176
-0.00194168
0.000117994
-0.00197047
0.000114748
-0.00199843
0.000111435
-0.00202554
0.000108067
-0.00205179
0.000104634
-0.00207716
0.00010115
-0.00210164
9.76091e-05
-0.00212522
9.40167e-05
-0.00214789
9.03802e-05
-0.00216964
8.66921e-05
-0.00219044
8.29545e-05
-0.00221029
7.91783e-05
-0.00222919
7.53632e-05
-0.00224712
7.15106e-05
-0.00226407
6.76185e-05
-0.00228004
6.36936e-05
-0.00229502
5.97415e-05
-0.002309
5.57551e-05
-0.00232197
5.17371e-05
-0.00233393
4.76983e-05
-0.00234486
4.36376e-05
-0.00235478
3.95502e-05
-0.00236366
3.5441e-05
-0.00237151
3.13183e-05
-0.00237832
2.71753e-05
-0.00238409
2.3024e-05
-0.00238881
1.88488e-05
-0.00239248
1.46661e-05
-0.0023951
1.04739e-05
-0.00239666
6.2726e-06
-0.00239716
2.06266e-06
-0.00239659
-2.16846e-06
-0.00239496
-6.39061e-06
-0.00239227
-1.0614e-05
-0.00238852
-1.48379e-05
-0.00238372
-1.90606e-05
-0.00237786
-2.32808e-05
-0.00237094
-2.74968e-05
-0.00236297
-3.17075e-05
-0.00235395
-3.59097e-05
-0.00234387
-4.01035e-05
-0.00233275
-4.42863e-05
-0.00232058
-4.8457e-05
-0.00230736
-5.26165e-05
-0.0022931
-5.67605e-05
-0.00227781
-6.08893e-05
-0.00226148
-6.49994e-05
-0.00224414
-6.90912e-05
-0.00222577
-7.31641e-05
-0.00220638
-7.72152e-05
-0.00218599
-8.12429e-05
-0.0021646
-8.52461e-05
-0.00214222
-8.92241e-05
-0.00211886
-9.31736e-05
-0.00209452
-9.7098e-05
-0.00206921
-0.000100992
-0.00204296
-0.000104847
-0.00201576
-0.000108677
-0.00198763
-0.00011247
-0.00195858
-0.000116225
-0.00192861
-0.00011994
-0.00189774
-0.000123618
-0.00186599
-0.000127252
-0.00183335
-0.000130839
-0.00179984
-0.000134383
-0.00176548
-0.000137871
-0.00173027
-0.000141308
-0.00169422
-0.000144687
-0.00165734
-0.000148013
-0.00161965
-0.00015127
-0.00158115
-0.000154467
-0.00154185
-0.000157597
-0.00150181
-0.000160625
-0.00146103
-0.000163597
-0.00141951
-0.000166494
-0.00137727
-0.000169296
-0.00133431
-0.000172039
-0.00129066
-0.000174674
-0.00124634
-0.000177211
-0.00120139
-0.000179656
-0.00115583
-0.000182001
-0.00110966
-0.000184258
-0.00106293
-0.000186402
-0.00101565
-0.000188439
-0.00096785
-0.000190386
-0.000919587
-0.000192206
-0.000870837
-0.000193949
-0.000821722
-0.000195551
-0.000772241
-0.000197059
-0.00072223
-0.000198471
-0.000672238
-0.000199694
-0.000621573
-0.000201096
-0.000570617
-0.000201826
-0.000519846
-0.000203395
-0.000467817
-0.000203693
-0.00041713
-0.000205032
-0.000364365
-0.000205357
-0.000313556
-0.000206042
-0.000260465
-0.000206656
-0.000209042
-0.000206487
-0.000156202
-0.000207539
-0.00010372
-0.000206668
-5.17371e-05
-0.000209785
-0.000206224
-4.9109e-05
0.00024493
-9.3281e-05
0.000221468
-0.00013987
0.000232625
-0.00018663
0.000233852
-0.000233121
0.000232344
-0.000279824
0.000233166
-0.000326188
0.000231689
-0.00037274
0.000232212
-0.000419015
0.000231019
-0.000465323
0.000230907
-0.000511453
0.000230024
-0.000557508
0.00022946
-0.000603399
0.000228625
-0.000649151
0.000227803
-0.00069473
0.000226889
-0.000740135
0.000225896
-0.000785338
0.000224825
-0.000830323
0.000223669
-0.000875074
0.000222431
-0.000919566
0.000221102
-0.000963784
0.000219686
-0.00100771
0.000218179
-0.00105132
0.000216578
-0.00109459
0.000214881
-0.00113751
0.000213085
-0.00118004
0.000211191
-0.00122218
0.000209195
-0.0012639
0.000207096
-0.00130516
0.000204891
-0.00134596
0.000202584
-0.00138627
0.000200171
-0.00142608
0.000197655
-0.00146536
0.000195032
-0.00150408
0.000192302
-0.00154223
0.000189467
-0.00157978
0.000186528
-0.00161672
0.000183487
-0.00165302
0.000180344
-0.00168867
0.000177099
-0.00172365
0.000173754
-0.00175792
0.00017031
-0.00179148
0.000166769
-0.00182431
0.000163137
-0.00185638
0.000159413
-0.00188769
0.0001556
-0.00191822
0.0001517
-0.00194794
0.000147714
-0.00197684
0.000143647
-0.0020049
0.000139501
-0.00203212
0.00013528
-0.00205847
0.000130985
-0.00208394
0.000126619
-0.00210851
0.000122186
-0.00213219
0.000117689
-0.00215494
0.00011313
-0.00217676
0.000108512
-0.00219764
0.000103839
-0.00221757
9.91129e-05
-0.00223655
9.43384e-05
-0.00225455
8.95137e-05
-0.00227156
8.46299e-05
-0.0022876
7.97249e-05
-0.00230262
7.47706e-05
-0.00231665
6.97839e-05
-0.00232967
6.47574e-05
-0.00234168
5.97006e-05
-0.00235266
5.46245e-05
-0.00236262
4.95052e-05
-0.00237153
4.43549e-05
-0.00237942
3.92023e-05
-0.00238625
3.40124e-05
-0.00239205
2.88259e-05
-0.0023968
2.35931e-05
-0.00240049
1.83587e-05
-0.00240313
1.31124e-05
-0.00240471
7.85427e-06
-0.00240523
2.58468e-06
-0.0024047
-2.70658e-06
-0.0024031
-7.99014e-06
-0.00240043
-1.32757e-05
-0.00239671
-1.85627e-05
-0.00239192
-2.38484e-05
-0.00238607
-2.91319e-05
-0.00237916
-3.44106e-05
-0.00237118
-3.96817e-05
-0.00236215
-4.49447e-05
-0.00235205
-5.01974e-05
-0.0023409
-5.54383e-05
-0.00232869
-6.06652e-05
-0.00231544
-6.5872e-05
-0.00230113
-7.10641e-05
-0.00228579
-7.62375e-05
-0.0022694
-8.13882e-05
-0.00225197
-8.65139e-05
-0.00223353
-9.16138e-05
-0.00221405
-9.6695e-05
-0.00219355
-0.00010174
-0.00217204
-0.000106754
-0.00214953
-0.000111735
-0.00212602
-0.000116683
-0.00210153
-0.000121593
-0.00207606
-0.00012646
-0.00204962
-0.000131287
-0.00202222
-0.000136074
-0.00199388
-0.00014081
-0.00196461
-0.000145497
-0.00193442
-0.000150132
-0.00190332
-0.000154715
-0.00187133
-0.000159243
-0.00183846
-0.000163706
-0.00180474
-0.000168106
-0.00177017
-0.000172441
-0.00173477
-0.000176709
-0.00169856
-0.0001809
-0.00166155
-0.00018502
-0.00162376
-0.000189062
-0.0015852
-0.000193021
-0.00154591
-0.000196887
-0.00150586
-0.000200679
-0.00146509
-0.000204367
-0.00142364
-0.000207941
-0.00138149
-0.000211447
-0.00133869
-0.000214843
-0.00129523
-0.000218135
-0.00125112
-0.000221315
-0.0012064
-0.000224382
-0.00116109
-0.000227311
-0.00111517
-0.000230178
-0.00106869
-0.000232882
-0.00102165
-0.000235479
-0.000974099
-0.000237937
-0.000926011
-0.000240294
-0.000877466
-0.000242494
-0.000828455
-0.000244561
-0.000778976
-0.000246539
-0.000729014
-0.000248433
-0.000678693
-0.000250014
-0.00062804
-0.000251749
-0.000576871
-0.000252995
-0.000525836
-0.00025443
-0.000473776
-0.000255752
-0.00042254
-0.000256268
-0.000369639
-0.000258258
-0.000318198
-0.000257482
-0.000264749
-0.000260106
-0.000212698
-0.000258538
-0.00015919
-0.000261047
-0.000106097
-0.00025976
-5.29538e-05
-0.000262928
-0.000259178
-4.92021e-05
0.000294132
-9.36509e-05
0.000265917
-0.000140392
0.000279366
-0.000187362
0.000280822
-0.00023403
0.000279012
-0.000280908
0.000280044
-0.000327469
0.00027825
-0.000374167
0.00027891
-0.000420624
0.000277476
-0.000467094
0.000277377
-0.00051339
0.00027632
-0.000559599
0.000275669
-0.000605647
0.000274673
-0.000651558
0.000273714
-0.000697291
0.000272623
-0.000742843
0.000271448
-0.000788189
0.00027017
-0.000833318
0.000268798
-0.000878209
0.000267322
-0.000922846
0.000265739
-0.000967209
0.000264049
-0.00101128
0.000262248
-0.00105503
0.000260332
-0.00109845
0.000258301
-0.00114152
0.000256149
-0.0011842
0.000253878
-0.00122649
0.000251485
-0.00126836
0.000248967
-0.0013098
0.000246325
-0.00135077
0.000243555
-0.00139125
0.000240658
-0.00143123
0.000237633
-0.00147068
0.000234481
-0.00150958
0.000231202
-0.00154791
0.000227798
-0.00158565
0.000224266
-0.00162277
0.000220609
-0.00165926
0.000216828
-0.00169508
0.000212925
-0.00173023
0.000208903
-0.00176469
0.000204764
-0.00179843
0.000200509
-0.00183143
0.00019614
-0.00186368
0.000191659
-0.00189515
0.000187072
-0.00192583
0.00018238
-0.0019557
0.000177587
-0.00198475
0.000172697
-0.00201296
0.000167713
-0.00204032
0.000162635
-0.0020668
0.000157465
-0.0020924
0.000152218
-0.0021171
0.00014689
-0.00214089
0.000141476
-0.00216376
0.000136001
-0.00218569
0.000130443
-0.00220667
0.000124821
-0.0022267
0.000119138
-0.00224575
0.000113394
-0.00226383
0.000107592
-0.00228094
0.000101736
-0.00229704
9.58311e-05
-0.00231215
8.98741e-05
-0.00232624
8.38748e-05
-0.00233932
7.78427e-05
-0.00235139
7.17689e-05
-0.00236241
6.56443e-05
-0.00237242
5.95137e-05
-0.00238137
5.33095e-05
-0.00238931
4.71389e-05
-0.00239618
4.08815e-05
-0.00240202
3.46634e-05
-0.00240679
2.8364e-05
-0.0024105
2.20734e-05
-0.00241316
1.57685e-05
-0.00241476
9.44971e-06
-0.00241529
3.11828e-06
-0.00241475
-3.24296e-06
-0.00241315
-9.59269e-06
-0.00241048
-1.59443e-05
-0.00240675
-2.22963e-05
-0.00240195
-2.86479e-05
-0.00239608
-3.49965e-05
-0.00238915
-4.13399e-05
-0.00238116
-4.76752e-05
-0.0023721
-5.40008e-05
-0.00236199
-6.03144e-05
-0.00235081
-6.66131e-05
-0.00233858
-7.28948e-05
-0.0023253
-7.91588e-05
-0.00231096
-8.54011e-05
-0.00229558
-9.16182e-05
-0.00227915
-9.78126e-05
-0.00226169
-0.000103979
-0.00224319
-0.000110116
-0.00222367
-0.000116214
-0.00220312
-0.000122287
-0.00218156
-0.000128317
-0.00215899
-0.000134307
-0.00213541
-0.000140255
-0.00211085
-0.000146155
-0.0020853
-0.000152011
-0.00205877
-0.000157814
-0.00203129
-0.000163559
-0.00200284
-0.000169255
-0.00197345
-0.000174887
-0.00194313
-0.000180454
-0.00191189
-0.000185953
-0.00187975
-0.000191382
-0.00184671
-0.000196746
-0.0018128
-0.000202021
-0.00177802
-0.00020722
-0.00174239
-0.000212335
-0.00170593
-0.000217361
-0.00166866
-0.000222289
-0.00163058
-0.000227146
-0.00159172
-0.000231877
-0.0015521
-0.000236511
-0.00151174
-0.000241039
-0.00147066
-0.000245446
-0.00142885
-0.000249747
-0.00138635
-0.000253946
-0.00134321
-0.000257989
-0.00129941
-0.000261937
-0.00125498
-0.000265745
-0.00120993
-0.000269424
-0.00116427
-0.000272972
-0.00111809
-0.000276362
-0.00107133
-0.000279643
-0.00102403
-0.000282771
-0.000976225
-0.000285746
-0.000927947
-0.000288572
-0.000879152
-0.000291288
-0.000829893
-0.000293821
-0.000780262
-0.000296169
-0.000730263
-0.000298432
-0.000679742
-0.000300535
-0.000629158
-0.000302333
-0.00057768
-0.000304473
-0.0005267
-0.00030541
-0.000474292
-0.000308161
-0.000423041
-0.000307519
-0.000369841
-0.000311458
-0.000318341
-0.000308983
-0.000264726
-0.000313721
-0.000212692
-0.000310571
-0.000159188
-0.000314551
-0.000106363
-0.000312585
-5.29169e-05
-0.000316375
-0.000312094
-4.93132e-05
0.000343446
-9.39441e-05
0.000310548
-0.00014083
0.000326252
-0.00018797
0.000327963
-0.000234791
0.000325832
-0.000281822
0.000327075
-0.000328544
0.000324973
-0.000375395
0.00032576
-0.000422025
0.000324106
-0.000468652
0.000324004
-0.000515106
0.000322774
-0.000561476
0.000322039
-0.00060769
0.000320887
-0.000653764
0.000319788
-0.00069967
0.000318529
-0.000745395
0.000317172
-0.000790927
0.000315703
-0.000836244
0.000314116
-0.000881329
0.000312407
-0.000926163
0.000310574
-0.000970727
0.000308613
-0.001015
0.000306523
-0.00105897
0.000304299
-0.00110261
0.000301939
-0.00114589
0.000299438
-0.00118881
0.000296795
-0.00123133
0.000294006
-0.00127344
0.000291073
-0.00131511
0.000287992
-0.00135632
0.000284764
-0.00139704
0.000281384
-0.00143726
0.000277854
-0.00147696
0.000274175
-0.0015161
0.000270346
-0.00155467
0.000266367
-0.00159264
0.00026224
-0.00163
0.000257965
-0.00166672
0.000253546
-0.00170278
0.000248985
-0.00173815
0.000244281
-0.00177283
0.000239438
-0.00180678
0.000234459
-0.00183999
0.000229349
-0.00187244
0.000224109
-0.00190411
0.000218744
-0.00193499
0.000213258
-0.00196505
0.000207651
-0.00199428
0.000201928
-0.00202266
0.000196093
-0.00205018
0.000190151
-0.00207682
0.00018411
-0.00210257
0.000177969
-0.00212742
0.000171733
-0.00215136
0.000165414
-0.00217435
0.000158993
-0.00219641
0.000152501
-0.00221751
0.000145929
-0.00223766
0.000139287
-0.00225683
0.000132561
-0.00227502
0.000125778
-0.00229221
0.000118935
-0.00230841
0.000112025
-0.0023236
0.000105066
-0.00233778
9.80535e-05
-0.00235093
9.09949e-05
-0.00236305
8.38912e-05
-0.00237415
7.67434e-05
-0.0023842
6.9562e-05
-0.00239323
6.23366e-05
-0.00240119
5.50985e-05
-0.00240812
4.78148e-05
-0.00241397
4.05157e-05
-0.00241879
3.31812e-05
-0.00242254
2.58226e-05
-0.00242522
1.84522e-05
-0.00242684
1.10675e-05
-0.00242739
3.66775e-06
-0.00242687
-3.76333e-06
-0.00242528
-1.11826e-05
-0.00242262
-1.86041e-05
-0.00241889
-2.60276e-05
-0.00241409
-3.34492e-05
-0.00240822
-4.08678e-05
-0.00240128
-4.82809e-05
-0.00239327
-5.56848e-05
-0.00238419
-6.30774e-05
-0.00237405
-7.04569e-05
-0.00236284
-7.78195e-05
-0.00235057
-8.5163e-05
-0.00233725
-9.2485e-05
-0.00232287
-9.97815e-05
-0.00230743
-0.000107052
-0.00229095
-0.000114294
-0.00227343
-0.000121503
-0.00225487
-0.000128676
-0.00223527
-0.000135815
-0.00221465
-0.000142906
-0.00219301
-0.000149956
-0.00217035
-0.000156962
-0.00214669
-0.000163915
-0.00212203
-0.000170814
-0.00209639
-0.000177655
-0.00206976
-0.000184446
-0.00204215
-0.000191164
-0.0020136
-0.000197812
-0.00198409
-0.000204392
-0.00195365
-0.000210897
-0.00192228
-0.000217324
-0.00188999
-0.000223672
-0.00185681
-0.000229924
-0.00182274
-0.000236093
-0.0017878
-0.00024216
-0.001752
-0.000248127
-0.00171536
-0.000254009
-0.00167788
-0.00025977
-0.00163962
-0.000265405
-0.00160055
-0.000270942
-0.0015607
-0.000276359
-0.0015201
-0.000281639
-0.00147876
-0.000286794
-0.00143668
-0.000291826
-0.00139393
-0.000296692
-0.00135048
-0.000301441
-0.00130639
-0.000306028
-0.00126165
-0.000310484
-0.00121629
-0.000314783
-0.00117033
-0.000318928
-0.00112376
-0.000322931
-0.00107667
-0.000326737
-0.00102904
-0.0003304
-0.000980892
-0.000333896
-0.000932233
-0.000337231
-0.000883149
-0.000340373
-0.000833602
-0.000343368
-0.000783646
-0.000346125
-0.000733301
-0.000348778
-0.00068243
-0.000351406
-0.00063158
-0.000353183
-0.000579774
-0.000356278
-0.000528622
-0.000356562
-0.000475948
-0.000360835
-0.000424486
-0.00035898
-0.000371115
-0.00036483
-0.000319375
-0.000360722
-0.000265592
-0.000367504
-0.000213404
-0.000362759
-0.000159648
-0.000368306
-0.000106864
-0.00036537
-5.30148e-05
-0.000370224
-0.000365109
-4.94533e-05
0.000392899
-9.42288e-05
0.000355323
-0.000141275
0.000373299
-0.000188583
0.00037527
-0.000235569
0.000372818
-0.00028275
0.000374257
-0.000329645
0.000371868
-0.000376659
0.000372774
-0.000423457
0.000370905
-0.000470254
0.0003708
-0.000516898
0.000369418
-0.000563458
0.000368598
-0.000609869
0.000367299
-0.000656148
0.000366067
-0.000702267
0.000364648
-0.00074821
0.000363115
-0.000793966
0.000361459
-0.000839511
0.000359661
-0.000884832
0.000357727
-0.000929909
0.000355651
-0.000974726
0.00035343
-0.00101926
0.000351057
-0.00106349
0.00034853
-0.0011074
0.000345844
-0.00115095
0.000342996
-0.00119414
0.000339985
-0.00123695
0.000336809
-0.00127934
0.000333464
-0.00132129
0.000329946
-0.00136279
0.000326258
-0.0014038
0.000322397
-0.00144431
0.000318362
-0.00148429
0.000314154
-0.00152371
0.000309772
-0.00156256
0.000305218
-0.00160082
0.000300493
-0.00163845
0.000295599
-0.00167544
0.000290538
-0.00171177
0.00028531
-0.00174741
0.000279919
-0.00178234
0.00027437
-0.00181654
0.000268665
-0.00185
0.000262808
-0.0018827
0.000256801
-0.0019146
0.000250648
-0.0019457
0.000244356
-0.00197597
0.000237926
-0.00200541
0.000231367
-0.002034
0.000224681
-0.00206172
0.000217868
-0.00208855
0.000210945
-0.00211448
0.0002039
-0.0021395
0.000196751
-0.00216359
0.000189501
-0.00218675
0.000182151
-0.00220896
0.000174715
-0.00223021
0.000167173
-0.00225047
0.000159555
-0.00226977
0.00015186
-0.00228809
0.000144097
-0.00230539
0.000136234
-0.00232169
0.000128326
-0.00233698
0.000120357
-0.00235125
0.000112322
-0.00236449
0.000104234
-0.0023767
9.60975e-05
-0.00238787
8.79123e-05
-0.00239799
7.96816e-05
-0.00240707
7.14223e-05
-0.00241508
6.31073e-05
-0.00242207
5.48078e-05
-0.00242796
4.6407e-05
-0.00243283
3.80457e-05
-0.00243661
2.96024e-05
-0.00243932
2.11624e-05
-0.00244096
1.27081e-05
-0.00244153
4.2383e-06
-0.00244102
-4.27015e-06
-0.00243944
-1.27646e-05
-0.00243678
-2.12615e-05
-0.00243305
-2.97596e-05
-0.00242824
-3.82568e-05
-0.00242236
-4.675e-05
-0.00241541
-5.52365e-05
-0.00240738
-6.37149e-05
-0.00239827
-7.21797e-05
-0.0023881
-8.06291e-05
-0.00237686
-8.90602e-05
-0.00236455
-9.74698e-05
-0.00235118
-0.000105855
-0.00233675
-0.000114212
-0.00232127
-0.00012254
-0.00230473
-0.000130833
-0.00228714
-0.000139091
-0.0022685
-0.000147309
-0.00224884
-0.000155483
-0.00222813
-0.000163611
-0.0022064
-0.000171689
-0.00218365
-0.000179711
-0.00215989
-0.000187677
-0.00213512
-0.000195581
-0.00210935
-0.000203422
-0.00208261
-0.000211189
-0.00205489
-0.000218886
-0.0020262
-0.000226504
-0.00199655
-0.000234041
-0.00196595
-0.000241493
-0.00193442
-0.000248852
-0.00190198
-0.000256115
-0.00186862
-0.000263281
-0.00183437
-0.000270343
-0.00179924
-0.000277291
-0.00176324
-0.000284125
-0.00172641
-0.000290846
-0.00168874
-0.000297437
-0.00165024
-0.00030391
-0.00161094
-0.000310243
-0.00157087
-0.000316425
-0.00153002
-0.000322486
-0.00148843
-0.000328383
-0.00144613
-0.000334131
-0.0014031
-0.00033972
-0.00135939
-0.000345152
-0.00131499
-0.00035043
-0.00126994
-0.000355525
-0.00122428
-0.00036045
-0.00117799
-0.00036522
-0.00113115
-0.000369767
-0.00108373
-0.000374156
-0.00103577
-0.000378365
-0.000987296
-0.000382366
-0.000938323
-0.000386204
-0.000888863
-0.000389833
-0.00083896
-0.00039327
-0.000788662
-0.000396423
-0.000737938
-0.000399501
-0.000686771
-0.000402574
-0.0006355
-0.000404454
-0.000583426
-0.000408353
-0.000531801
-0.000408187
-0.000478877
-0.00041376