/*--------------------------------*- C++ -*----------------------------------*\
| =========                 |                                                 |
| \\      /  F ield         | OpenFOAM: The Open Source CFD Toolbox           |
|  \\    /   O peration     | Version:  v2006                                 |
|   \\  /    A nd           | Website:  www.openfoam.com                      |
|    \\/     M anipulation  |                                                 |
\*---------------------------------------------------------------------------*/
FoamFile
{
    version     2.0;
    format      ascii;
    class       volVectorField;
    location    "0";
    object      U_new;
}
// * * * * * * * * * * * * * * * * * * * * * * * * * * * * * * * * * * * * * //

dimensions      [0 1 -1 0 0 0 0];


internalField   nonuniform List<vector> 
2500
(
(0.000784 -0.076832 0)
(0.000784 -0.230496 0)
(0.000784 -0.38416 0)
(0.000784 -0.537824 0)
(0.000784 -0.691488 0)
(0.000784 -0.845152 0)
(0.000784 -0.998816 0)
(0.000784 -1.15248 0)
(0.000784 -1.30614 0)
(0.000784 -1.45981 0)
(0.000784 -1.61347 0)
(0.000784 -1.76714 0)
(0.000784 -1.9208 0)
(0.000784 -2.07446 0)
(0.000784 -2.22813 0)
(0.000784 -2.38179 0)
(0.000784 -2.53546 0)
(0.000784 -2.68912 0)
(0.000784 -2.84278 0)
(0.000784 -2.99645 0)
(0.000784 -3.15011 0)
(0.000784 -3.30378 0)
(0.000784 -3.45744 0)
(0.000784 -3.6111 0)
(0.000784 -3.76477 0)
(0.000784 -3.91843 0)
(0.000784 -4.0721 0)
(0.000784 -4.22576 0)
(0.000784 -4.37942 0)
(0.000784 -4.53309 0)
(0.000784 -4.68675 0)
(0.000784 -4.84042 0)
(0.000784 -4.99408 0)
(0.000784 -5.14774 0)
(0.000784 -5.30141 0)
(0.000784 -5.45507 0)
(0.000784 -5.60874 0)
(0.000784 -5.7624 0)
(0.000784 -5.91606 0)
(0.000784 -6.06973 0)
(0.000784 -6.22339 0)
(0.000784 -6.37706 0)
(0.000784 -6.53072 0)
(0.000784 -6.68438 0)
(0.000784 -6.83805 0)
(0.000784 -6.99171 0)
(0.000784 -7.14538 0)
(0.000784 -7.29904 0)
(0.000784 -7.4527 0)
(0.000784 -7.60637 0)
(0.007056 -0.076832 0)
(0.007056 -0.230496 0)
(0.007056 -0.38416 0)
(0.007056 -0.537824 0)
(0.007056 -0.691488 0)
(0.007056 -0.845152 0)
(0.007056 -0.998816 0)
(0.007056 -1.15248 0)
(0.007056 -1.30614 0)
(0.007056 -1.45981 0)
(0.007056 -1.61347 0)
(0.007056 -1.76714 0)
(0.007056 -1.9208 0)
(0.007056 -2.07446 0)
(0.007056 -2.22813 0)
(0.007056 -2.38179 0)
(0.007056 -2.53546 0)
(0.007056 -2.68912 0)
(0.007056 -2.84278 0)
(0.007056 -2.99645 0)
(0.007056 -3.15011 0)
(0.007056 -3.30378 0)
(0.007056 -3.45744 0)
(0.007056 -3.6111 0)
(0.007056 -3.76477 0)
(0.007056 -3.91843 0)
(0.007056 -4.0721 0)
(0.007056 -4.22576 0)
(0.007056 -4.37942 0)
(0.007056 -4.53309 0)
(0.007056 -4.68675 0)
(0.007056 -4.84042 0)
(0.007056 -4.99408 0)
(0.007056 -5.14774 0)
(0.007056 -5.30141 0)
(0.007056 -5.45507 0)
(0.007056 -5.60874 0)
(0.007056 -5.7624 0)
(0.007056 -5.91606 0)
(0.007056 -6.06973 0)
(0.007056 -6.22339 0)
(0.007056 -6.37706 0)
(0.007056 -6.53072 0)
(0.007056 -6.68438 0)
(0.007056 -6.83805 0)
(0.007056 -6.99171 0)
(0.007056 -7.14538 0)
(0.007056 -7.29904 0)
(0.007056 -7.4527 0)
(0.007056 -7.60637 0)
(0.0196 -0.076832 0)
(0.0196 -0.230496 0)
(0.0196 -0.38416 0)
(0.0196 -0.537824 0)
(0.0196 -0.691488 0)
(0.0196 -0.845152 0)
(0.0196 -0.998816 0)
(0.0196 -1.15248 0)
(0.0196 -1.30614 0)
(0.0196 -1.45981 0)
(0.0196 -1.61347 0)
(0.0196 -1.76714 0)
(0.0196 -1.9208 0)
(0.0196 -2.07446 0)
(0.0196 -2.22813 0)
(0.0196 -2.38179 0)
(0.0196 -2.53546 0)
(0.0196 -2.68912 0)
(0.0196 -2.84278 0)
(0.0196 -2.99645 0)
(0.0196 -3.15011 0)
(0.0196 -3.30378 0)
(0.0196 -3.45744 0)
(0.0196 -3.6111 0)
(0.0196 -3.76477 0)
(0.0196 -3.91843 0)
(0.0196 -4.0721 0)
(0.0196 -4.22576 0)
(0.0196 -4.37942 0)
(0.0196 -4.53309 0)
(0.0196 -4.68675 0)
(0.0196 -4.84042 0)
(0.0196 -4.99408 0)
(0.0196 -5.14774 0)
(0.0196 -5.30141 0)
(0.0196 -5.45507 0)
(0.0196 -5.60874 0)
(0.0196 -5.7624 0)
(0.0196 -5.91606 0)
(0.0196 -6.06973 0)
(0.0196 -6.22339 0)
(0.0196 -6.37706 0)
(0.0196 -6.53072 0)
(0.0196 -6.68438 0)
(0.0196 -6.83805 0)
(0.0196 -6.99171 0)
(0.0196 -7.14538 0)
(0.0196 -7.29904 0)
(0.0196 -7.4527 0)
(0.0196 -7.60637 0)
(0.038416 -0.076832 0)
(0.038416 -0.230496 0)
(0.038416 -0.38416 0)
(0.038416 -0.537824 0)
(0.038416 -0.691488 0)
(0.038416 -0.845152 0)
(0.038416 -0.998816 0)
(0.038416 -1.15248 0)
(0.038416 -1.30614 0)
(0.038416 -1.45981 0)
(0.038416 -1.61347 0)
(0.038416 -1.76714 0)
(0.038416 -1.9208 0)
(0.038416 -2.07446 0)
(0.038416 -2.22813 0)
(0.038416 -2.38179 0)
(0.038416 -2.53546 0)
(0.038416 -2.68912 0)
(0.038416 -2.84278 0)
(0.038416 -2.99645 0)
(0.038416 -3.15011 0)
(0.038416 -3.30378 0)
(0.038416 -3.45744 0)
(0.038416 -3.6111 0)
(0.038416 -3.76477 0)
(0.038416 -3.91843 0)
(0.038416 -4.0721 0)
(0.038416 -4.22576 0)
(0.038416 -4.37942 0)
(0.038416 -4.53309 0)
(0.038416 -4.68675 0)
(0.038416 -4.84042 0)
(0.038416 -4.99408 0)
(0.038416 -5.14774 0)
(0.038416 -5.30141 0)
(0.038416 -5.45507 0)
(0.038416 -5.60874 0)
(0.038416 -5.7624 0)
(0.038416 -5.91606 0)
(0.038416 -6.06973 0)
(0.038416 -6.22339 0)
(0.038416 -6.37706 0)
(0.038416 -6.53072 0)
(0.038416 -6.68438 0)
(0.038416 -6.83805 0)
(0.038416 -6.99171 0)
(0.038416 -7.14538 0)
(0.038416 -7.29904 0)
(0.038416 -7.4527 0)
(0.038416 -7.60637 0)
(0.063504 -0.076832 0)
(0.063504 -0.230496 0)
(0.063504 -0.38416 0)
(0.063504 -0.537824 0)
(0.063504 -0.691488 0)
(0.063504 -0.845152 0)
(0.063504 -0.998816 0)
(0.063504 -1.15248 0)
(0.063504 -1.30614 0)
(0.063504 -1.45981 0)
(0.063504 -1.61347 0)
(0.063504 -1.76714 0)
(0.063504 -1.9208 0)
(0.063504 -2.07446 0)
(0.063504 -2.22813 0)
(0.063504 -2.38179 0)
(0.063504 -2.53546 0)
(0.063504 -2.68912 0)
(0.063504 -2.84278 0)
(0.063504 -2.99645 0)
(0.063504 -3.15011 0)
(0.063504 -3.30378 0)
(0.063504 -3.45744 0)
(0.063504 -3.6111 0)
(0.063504 -3.76477 0)
(0.063504 -3.91843 0)
(0.063504 -4.0721 0)
(0.063504 -4.22576 0)
(0.063504 -4.37942 0)
(0.063504 -4.53309 0)
(0.063504 -4.68675 0)
(0.063504 -4.84042 0)
(0.063504 -4.99408 0)
(0.063504 -5.14774 0)
(0.063504 -5.30141 0)
(0.063504 -5.45507 0)
(0.063504 -5.60874 0)
(0.063504 -5.7624 0)
(0.063504 -5.91606 0)
(0.063504 -6.06973 0)
(0.063504 -6.22339 0)
(0.063504 -6.37706 0)
(0.063504 -6.53072 0)
(0.063504 -6.68438 0)
(0.063504 -6.83805 0)
(0.063504 -6.99171 0)
(0.063504 -7.14538 0)
(0.063504 -7.29904 0)
(0.063504 -7.4527 0)
(0.063504 -7.60637 0)
(0.094864 -0.076832 0)
(0.094864 -0.230496 0)
(0.094864 -0.38416 0)
(0.094864 -0.537824 0)
(0.094864 -0.691488 0)
(0.094864 -0.845152 0)
(0.094864 -0.998816 0)
(0.094864 -1.15248 0)
(0.094864 -1.30614 0)
(0.094864 -1.45981 0)
(0.094864 -1.61347 0)
(0.094864 -1.76714 0)
(0.094864 -1.9208 0)
(0.094864 -2.07446 0)
(0.094864 -2.22813 0)
(0.094864 -2.38179 0)
(0.094864 -2.53546 0)
(0.094864 -2.68912 0)
(0.094864 -2.84278 0)
(0.094864 -2.99645 0)
(0.094864 -3.15011 0)
(0.094864 -3.30378 0)
(0.094864 -3.45744 0)
(0.094864 -3.6111 0)
(0.094864 -3.76477 0)
(0.094864 -3.91843 0)
(0.094864 -4.0721 0)
(0.094864 -4.22576 0)
(0.094864 -4.37942 0)
(0.094864 -4.53309 0)
(0.094864 -4.68675 0)
(0.094864 -4.84042 0)
(0.094864 -4.99408 0)
(0.094864 -5.14774 0)
(0.094864 -5.30141 0)
(0.094864 -5.45507 0)
(0.094864 -5.60874 0)
(0.094864 -5.7624 0)
(0.094864 -5.91606 0)
(0.094864 -6.06973 0)
(0.094864 -6.22339 0)
(0.094864 -6.37706 0)
(0.094864 -6.53072 0)
(0.094864 -6.68438 0)
(0.094864 -6.83805 0)
(0.094864 -6.99171 0)
(0.094864 -7.14538 0)
(0.094864 -7.29904 0)
(0.094864 -7.4527 0)
(0.094864 -7.60637 0)
(0.132496 -0.076832 0)
(0.132496 -0.230496 0)
(0.132496 -0.38416 0)
(0.132496 -0.537824 0)
(0.132496 -0.691488 0)
(0.132496 -0.845152 0)
(0.132496 -0.998816 0)
(0.132496 -1.15248 0)
(0.132496 -1.30614 0)
(0.132496 -1.45981 0)
(0.132496 -1.61347 0)
(0.132496 -1.76714 0)
(0.132496 -1.9208 0)
(0.132496 -2.07446 0)
(0.132496 -2.22813 0)
(0.132496 -2.38179 0)
(0.132496 -2.53546 0)
(0.132496 -2.68912 0)
(0.132496 -2.84278 0)
(0.132496 -2.99645 0)
(0.132496 -3.15011 0)
(0.132496 -3.30378 0)
(0.132496 -3.45744 0)
(0.132496 -3.6111 0)
(0.132496 -3.76477 0)
(0.132496 -3.91843 0)
(0.132496 -4.0721 0)
(0.132496 -4.22576 0)
(0.132496 -4.37942 0)
(0.132496 -4.53309 0)
(0.132496 -4.68675 0)
(0.132496 -4.84042 0)
(0.132496 -4.99408 0)
(0.132496 -5.14774 0)
(0.132496 -5.30141 0)
(0.132496 -5.45507 0)
(0.132496 -5.60874 0)
(0.132496 -5.7624 0)
(0.132496 -5.91606 0)
(0.132496 -6.06973 0)
(0.132496 -6.22339 0)
(0.132496 -6.37706 0)
(0.132496 -6.53072 0)
(0.132496 -6.68438 0)
(0.132496 -6.83805 0)
(0.132496 -6.99171 0)
(0.132496 -7.14538 0)
(0.132496 -7.29904 0)
(0.132496 -7.4527 0)
(0.132496 -7.60637 0)
(0.1764 -0.076832 0)
(0.1764 -0.230496 0)
(0.1764 -0.38416 0)
(0.1764 -0.537824 0)
(0.1764 -0.691488 0)
(0.1764 -0.845152 0)
(0.1764 -0.998816 0)
(0.1764 -1.15248 0)
(0.1764 -1.30614 0)
(0.1764 -1.45981 0)
(0.1764 -1.61347 0)
(0.1764 -1.76714 0)
(0.1764 -1.9208 0)
(0.1764 -2.07446 0)
(0.1764 -2.22813 0)
(0.1764 -2.38179 0)
(0.1764 -2.53546 0)
(0.1764 -2.68912 0)
(0.1764 -2.84278 0)
(0.1764 -2.99645 0)
(0.1764 -3.15011 0)
(0.1764 -3.30378 0)
(0.1764 -3.45744 0)
(0.1764 -3.6111 0)
(0.1764 -3.76477 0)
(0.1764 -3.91843 0)
(0.1764 -4.0721 0)
(0.1764 -4.22576 0)
(0.1764 -4.37942 0)
(0.1764 -4.53309 0)
(0.1764 -4.68675 0)
(0.1764 -4.84042 0)
(0.1764 -4.99408 0)
(0.1764 -5.14774 0)
(0.1764 -5.30141 0)
(0.1764 -5.45507 0)
(0.1764 -5.60874 0)
(0.1764 -5.7624 0)
(0.1764 -5.91606 0)
(0.1764 -6.06973 0)
(0.1764 -6.22339 0)
(0.1764 -6.37706 0)
(0.1764 -6.53072 0)
(0.1764 -6.68438 0)
(0.1764 -6.83805 0)
(0.1764 -6.99171 0)
(0.1764 -7.14538 0)
(0.1764 -7.29904 0)
(0.1764 -7.4527 0)
(0.1764 -7.60637 0)
(0.226576 -0.076832 0)
(0.226576 -0.230496 0)
(0.226576 -0.38416 0)
(0.226576 -0.537824 0)
(0.226576 -0.691488 0)
(0.226576 -0.845152 0)
(0.226576 -0.998816 0)
(0.226576 -1.15248 0)
(0.226576 -1.30614 0)
(0.226576 -1.45981 0)
(0.226576 -1.61347 0)
(0.226576 -1.76714 0)
(0.226576 -1.9208 0)
(0.226576 -2.07446 0)
(0.226576 -2.22813 0)
(0.226576 -2.38179 0)
(0.226576 -2.53546 0)
(0.226576 -2.68912 0)
(0.226576 -2.84278 0)
(0.226576 -2.99645 0)
(0.226576 -3.15011 0)
(0.226576 -3.30378 0)
(0.226576 -3.45744 0)
(0.226576 -3.6111 0)
(0.226576 -3.76477 0)
(0.226576 -3.91843 0)
(0.226576 -4.0721 0)
(0.226576 -4.22576 0)
(0.226576 -4.37942 0)
(0.226576 -4.53309 0)
(0.226576 -4.68675 0)
(0.226576 -4.84042 0)
(0.226576 -4.99408 0)
(0.226576 -5.14774 0)
(0.226576 -5.30141 0)
(0.226576 -5.45507 0)
(0.226576 -5.60874 0)
(0.226576 -5.7624 0)
(0.226576 -5.91606 0)
(0.226576 -6.06973 0)
(0.226576 -6.22339 0)
(0.226576 -6.37706 0)
(0.226576 -6.53072 0)
(0.226576 -6.68438 0)
(0.226576 -6.83805 0)
(0.226576 -6.99171 0)
(0.226576 -7.14538 0)
(0.226576 -7.29904 0)
(0.226576 -7.4527 0)
(0.226576 -7.60637 0)
(0.283024 -0.076832 0)
(0.283024 -0.230496 0)
(0.283024 -0.38416 0)
(0.283024 -0.537824 0)
(0.283024 -0.691488 0)
(0.283024 -0.845152 0)
(0.283024 -0.998816 0)
(0.283024 -1.15248 0)
(0.283024 -1.30614 0)
(0.283024 -1.45981 0)
(0.283024 -1.61347 0)
(0.283024 -1.76714 0)
(0.283024 -1.9208 0)
(0.283024 -2.07446 0)
(0.283024 -2.22813 0)
(0.283024 -2.38179 0)
(0.283024 -2.53546 0)
(0.283024 -2.68912 0)
(0.283024 -2.84278 0)
(0.283024 -2.99645 0)
(0.283024 -3.15011 0)
(0.283024 -3.30378 0)
(0.283024 -3.45744 0)
(0.283024 -3.6111 0)
(0.283024 -3.76477 0)
(0.283024 -3.91843 0)
(0.283024 -4.0721 0)
(0.283024 -4.22576 0)
(0.283024 -4.37942 0)
(0.283024 -4.53309 0)
(0.283024 -4.68675 0)
(0.283024 -4.84042 0)
(0.283024 -4.99408 0)
(0.283024 -5.14774 0)
(0.283024 -5.30141 0)
(0.283024 -5.45507 0)
(0.283024 -5.60874 0)
(0.283024 -5.7624 0)
(0.283024 -5.91606 0)
(0.283024 -6.06973 0)
(0.283024 -6.22339 0)
(0.283024 -6.37706 0)
(0.283024 -6.53072 0)
(0.283024 -6.68438 0)
(0.283024 -6.83805 0)
(0.283024 -6.99171 0)
(0.283024 -7.14538 0)
(0.283024 -7.29904 0)
(0.283024 -7.4527 0)
(0.283024 -7.60637 0)
(0.345744 -0.076832 0)
(0.345744 -0.230496 0)
(0.345744 -0.38416 0)
(0.345744 -0.537824 0)
(0.345744 -0.691488 0)
(0.345744 -0.845152 0)
(0.345744 -0.998816 0)
(0.345744 -1.15248 0)
(0.345744 -1.30614 0)
(0.345744 -1.45981 0)
(0.345744 -1.61347 0)
(0.345744 -1.76714 0)
(0.345744 -1.9208 0)
(0.345744 -2.07446 0)
(0.345744 -2.22813 0)
(0.345744 -2.38179 0)
(0.345744 -2.53546 0)
(0.345744 -2.68912 0)
(0.345744 -2.84278 0)
(0.345744 -2.99645 0)
(0.345744 -3.15011 0)
(0.345744 -3.30378 0)
(0.345744 -3.45744 0)
(0.345744 -3.6111 0)
(0.345744 -3.76477 0)
(0.345744 -3.91843 0)
(0.345744 -4.0721 0)
(0.345744 -4.22576 0)
(0.345744 -4.37942 0)
(0.345744 -4.53309 0)
(0.345744 -4.68675 0)
(0.345744 -4.84042 0)
(0.345744 -4.99408 0)
(0.345744 -5.14774 0)
(0.345744 -5.30141 0)
(0.345744 -5.45507 0)
(0.345744 -5.60874 0)
(0.345744 -5.7624 0)
(0.345744 -5.91606 0)
(0.345744 -6.06973 0)
(0.345744 -6.22339 0)
(0.345744 -6.37706 0)
(0.345744 -6.53072 0)
(0.345744 -6.68438 0)
(0.345744 -6.83805 0)
(0.345744 -6.99171 0)
(0.345744 -7.14538 0)
(0.345744 -7.29904 0)
(0.345744 -7.4527 0)
(0.345744 -7.60637 0)
(0.414736 -0.076832 0)
(0.414736 -0.230496 0)
(0.414736 -0.38416 0)
(0.414736 -0.537824 0)
(0.414736 -0.691488 0)
(0.414736 -0.845152 0)
(0.414736 -0.998816 0)
(0.414736 -1.15248 0)
(0.414736 -1.30614 0)
(0.414736 -1.45981 0)
(0.414736 -1.61347 0)
(0.414736 -1.76714 0)
(0.414736 -1.9208 0)
(0.414736 -2.07446 0)
(0.414736 -2.22813 0)
(0.414736 -2.38179 0)
(0.414736 -2.53546 0)
(0.414736 -2.68912 0)
(0.414736 -2.84278 0)
(0.414736 -2.99645 0)
(0.414736 -3.15011 0)
(0.414736 -3.30378 0)
(0.414736 -3.45744 0)
(0.414736 -3.6111 0)
(0.414736 -3.76477 0)
(0.414736 -3.91843 0)
(0.414736 -4.0721 0)
(0.414736 -4.22576 0)
(0.414736 -4.37942 0)
(0.414736 -4.53309 0)
(0.414736 -4.68675 0)
(0.414736 -4.84042 0)
(0.414736 -4.99408 0)
(0.414736 -5.14774 0)
(0.414736 -5.30141 0)
(0.414736 -5.45507 0)
(0.414736 -5.60874 0)
(0.414736 -5.7624 0)
(0.414736 -5.91606 0)
(0.414736 -6.06973 0)
(0.414736 -6.22339 0)
(0.414736 -6.37706 0)
(0.414736 -6.53072 0)
(0.414736 -6.68438 0)
(0.414736 -6.83805 0)
(0.414736 -6.99171 0)
(0.414736 -7.14538 0)
(0.414736 -7.29904 0)
(0.414736 -7.4527 0)
(0.414736 -7.60637 0)
(0.49 -0.076832 0)
(0.49 -0.230496 0)
(0.49 -0.38416 0)
(0.49 -0.537824 0)
(0.49 -0.691488 0)
(0.49 -0.845152 0)
(0.49 -0.998816 0)
(0.49 -1.15248 0)
(0.49 -1.30614 0)
(0.49 -1.45981 0)
(0.49 -1.61347 0)
(0.49 -1.76714 0)
(0.49 -1.9208 0)
(0.49 -2.07446 0)
(0.49 -2.22813 0)
(0.49 -2.38179 0)
(0.49 -2.53546 0)
(0.49 -2.68912 0)
(0.49 -2.84278 0)
(0.49 -2.99645 0)
(0.49 -3.15011 0)
(0.49 -3.30378 0)
(0.49 -3.45744 0)
(0.49 -3.6111 0)
(0.49 -3.76477 0)
(0.49 -3.91843 0)
(0.49 -4.0721 0)
(0.49 -4.22576 0)
(0.49 -4.37942 0)
(0.49 -4.53309 0)
(0.49 -4.68675 0)
(0.49 -4.84042 0)
(0.49 -4.99408 0)
(0.49 -5.14774 0)
(0.49 -5.30141 0)
(0.49 -5.45507 0)
(0.49 -5.60874 0)
(0.49 -5.7624 0)
(0.49 -5.91606 0)
(0.49 -6.06973 0)
(0.49 -6.22339 0)
(0.49 -6.37706 0)
(0.49 -6.53072 0)
(0.49 -6.68438 0)
(0.49 -6.83805 0)
(0.49 -6.99171 0)
(0.49 -7.14538 0)
(0.49 -7.29904 0)
(0.49 -7.4527 0)
(0.49 -7.60637 0)
(0.571536 -0.076832 0)
(0.571536 -0.230496 0)
(0.571536 -0.38416 0)
(0.571536 -0.537824 0)
(0.571536 -0.691488 0)
(0.571536 -0.845152 0)
(0.571536 -0.998816 0)
(0.571536 -1.15248 0)
(0.571536 -1.30614 0)
(0.571536 -1.45981 0)
(0.571536 -1.61347 0)
(0.571536 -1.76714 0)
(0.571536 -1.9208 0)
(0.571536 -2.07446 0)
(0.571536 -2.22813 0)
(0.571536 -2.38179 0)
(0.571536 -2.53546 0)
(0.571536 -2.68912 0)
(0.571536 -2.84278 0)
(0.571536 -2.99645 0)
(0.571536 -3.15011 0)
(0.571536 -3.30378 0)
(0.571536 -3.45744 0)
(0.571536 -3.6111 0)
(0.571536 -3.76477 0)
(0.571536 -3.91843 0)
(0.571536 -4.0721 0)
(0.571536 -4.22576 0)
(0.571536 -4.37942 0)
(0.571536 -4.53309 0)
(0.571536 -4.68675 0)
(0.571536 -4.84042 0)
(0.571536 -4.99408 0)
(0.571536 -5.14774 0)
(0.571536 -5.30141 0)
(0.571536 -5.45507 0)
(0.571536 -5.60874 0)
(0.571536 -5.7624 0)
(0.571536 -5.91606 0)
(0.571536 -6.06973 0)
(0.571536 -6.22339 0)
(0.571536 -6.37706 0)
(0.571536 -6.53072 0)
(0.571536 -6.68438 0)
(0.571536 -6.83805 0)
(0.571536 -6.99171 0)
(0.571536 -7.14538 0)
(0.571536 -7.29904 0)
(0.571536 -7.4527 0)
(0.571536 -7.60637 0)
(0.659344 -0.076832 0)
(0.659344 -0.230496 0)
(0.659344 -0.38416 0)
(0.659344 -0.537824 0)
(0.659344 -0.691488 0)
(0.659344 -0.845152 0)
(0.659344 -0.998816 0)
(0.659344 -1.15248 0)
(0.659344 -1.30614 0)
(0.659344 -1.45981 0)
(0.659344 -1.61347 0)
(0.659344 -1.76714 0)
(0.659344 -1.9208 0)
(0.659344 -2.07446 0)
(0.659344 -2.22813 0)
(0.659344 -2.38179 0)
(0.659344 -2.53546 0)
(0.659344 -2.68912 0)
(0.659344 -2.84278 0)
(0.659344 -2.99645 0)
(0.659344 -3.15011 0)
(0.659344 -3.30378 0)
(0.659344 -3.45744 0)
(0.659344 -3.6111 0)
(0.659344 -3.76477 0)
(0.659344 -3.91843 0)
(0.659344 -4.0721 0)
(0.659344 -4.22576 0)
(0.659344 -4.37942 0)
(0.659344 -4.53309 0)
(0.659344 -4.68675 0)
(0.659344 -4.84042 0)
(0.659344 -4.99408 0)
(0.659344 -5.14774 0)
(0.659344 -5.30141 0)
(0.659344 -5.45507 0)
(0.659344 -5.60874 0)
(0.659344 -5.7624 0)
(0.659344 -5.91606 0)
(0.659344 -6.06973 0)
(0.659344 -6.22339 0)
(0.659344 -6.37706 0)
(0.659344 -6.53072 0)
(0.659344 -6.68438 0)
(0.659344 -6.83805 0)
(0.659344 -6.99171 0)
(0.659344 -7.14538 0)
(0.659344 -7.29904 0)
(0.659344 -7.4527 0)
(0.659344 -7.60637 0)
(0.753424 -0.076832 0)
(0.753424 -0.230496 0)
(0.753424 -0.38416 0)
(0.753424 -0.537824 0)
(0.753424 -0.691488 0)
(0.753424 -0.845152 0)
(0.753424 -0.998816 0)
(0.753424 -1.15248 0)
(0.753424 -1.30614 0)
(0.753424 -1.45981 0)
(0.753424 -1.61347 0)
(0.753424 -1.76714 0)
(0.753424 -1.9208 0)
(0.753424 -2.07446 0)
(0.753424 -2.22813 0)
(0.753424 -2.38179 0)
(0.753424 -2.53546 0)
(0.753424 -2.68912 0)
(0.753424 -2.84278 0)
(0.753424 -2.99645 0)
(0.753424 -3.15011 0)
(0.753424 -3.30378 0)
(0.753424 -3.45744 0)
(0.753424 -3.6111 0)
(0.753424 -3.76477 0)
(0.753424 -3.91843 0)
(0.753424 -4.0721 0)
(0.753424 -4.22576 0)
(0.753424 -4.37942 0)
(0.753424 -4.53309 0)
(0.753424 -4.68675 0)
(0.753424 -4.84042 0)
(0.753424 -4.99408 0)
(0.753424 -5.14774 0)
(0.753424 -5.30141 0)
(0.753424 -5.45507 0)
(0.753424 -5.60874 0)
(0.753424 -5.7624 0)
(0.753424 -5.91606 0)
(0.753424 -6.06973 0)
(0.753424 -6.22339 0)
(0.753424 -6.37706 0)
(0.753424 -6.53072 0)
(0.753424 -6.68438 0)
(0.753424 -6.83805 0)
(0.753424 -6.99171 0)
(0.753424 -7.14538 0)
(0.753424 -7.29904 0)
(0.753424 -7.4527 0)
(0.753424 -7.60637 0)
(0.853776 -0.076832 0)
(0.853776 -0.230496 0)
(0.853776 -0.38416 0)
(0.853776 -0.537824 0)
(0.853776 -0.691488 0)
(0.853776 -0.845152 0)
(0.853776 -0.998816 0)
(0.853776 -1.15248 0)
(0.853776 -1.30614 0)
(0.853776 -1.45981 0)
(0.853776 -1.61347 0)
(0.853776 -1.76714 0)
(0.853776 -1.9208 0)
(0.853776 -2.07446 0)
(0.853776 -2.22813 0)
(0.853776 -2.38179 0)
(0.853776 -2.53546 0)
(0.853776 -2.68912 0)
(0.853776 -2.84278 0)
(0.853776 -2.99645 0)
(0.853776 -3.15011 0)
(0.853776 -3.30378 0)
(0.853776 -3.45744 0)
(0.853776 -3.6111 0)
(0.853776 -3.76477 0)
(0.853776 -3.91843 0)
(0.853776 -4.0721 0)
(0.853776 -4.22576 0)
(0.853776 -4.37942 0)
(0.853776 -4.53309 0)
(0.853776 -4.68675 0)
(0.853776 -4.84042 0)
(0.853776 -4.99408 0)
(0.853776 -5.14774 0)
(0.853776 -5.30141 0)
(0.853776 -5.45507 0)
(0.853776 -5.60874 0)
(0.853776 -5.7624 0)
(0.853776 -5.91606 0)
(0.853776 -6.06973 0)
(0.853776 -6.22339 0)
(0.853776 -6.37706 0)
(0.853776 -6.53072 0)
(0.853776 -6.68438 0)
(0.853776 -6.83805 0)
(0.853776 -6.99171 0)
(0.853776 -7.14538 0)
(0.853776 -7.29904 0)
(0.853776 -7.4527 0)
(0.853776 -7.60637 0)
(0.9604 -0.076832 0)
(0.9604 -0.230496 0)
(0.9604 -0.38416 0)
(0.9604 -0.537824 0)
(0.9604 -0.691488 0)
(0.9604 -0.845152 0)
(0.9604 -0.998816 0)
(0.9604 -1.15248 0)
(0.9604 -1.30614 0)
(0.9604 -1.45981 0)
(0.9604 -1.61347 0)
(0.9604 -1.76714 0)
(0.9604 -1.9208 0)
(0.9604 -2.07446 0)
(0.9604 -2.22813 0)
(0.9604 -2.38179 0)
(0.9604 -2.53546 0)
(0.9604 -2.68912 0)
(0.9604 -2.84278 0)
(0.9604 -2.99645 0)
(0.9604 -3.15011 0)
(0.9604 -3.30378 0)
(0.9604 -3.45744 0)
(0.9604 -3.6111 0)
(0.9604 -3.76477 0)
(0.9604 -3.91843 0)
(0.9604 -4.0721 0)
(0.9604 -4.22576 0)
(0.9604 -4.37942 0)
(0.9604 -4.53309 0)
(0.9604 -4.68675 0)
(0.9604 -4.84042 0)
(0.9604 -4.99408 0)
(0.9604 -5.14774 0)
(0.9604 -5.30141 0)
(0.9604 -5.45507 0)
(0.9604 -5.60874 0)
(0.9604 -5.7624 0)
(0.9604 -5.91606 0)
(0.9604 -6.06973 0)
(0.9604 -6.22339 0)
(0.9604 -6.37706 0)
(0.9604 -6.53072 0)
(0.9604 -6.68438 0)
(0.9604 -6.83805 0)
(0.9604 -6.99171 0)
(0.9604 -7.14538 0)
(0.9604 -7.29904 0)
(0.9604 -7.4527 0)
(0.9604 -7.60637 0)
(1.0733 -0.076832 0)
(1.0733 -0.230496 0)
(1.0733 -0.38416 0)
(1.0733 -0.537824 0)
(1.0733 -0.691488 0)
(1.0733 -0.845152 0)
(1.0733 -0.998816 0)
(1.0733 -1.15248 0)
(1.0733 -1.30614 0)
(1.0733 -1.45981 0)
(1.0733 -1.61347 0)
(1.0733 -1.76714 0)
(1.0733 -1.9208 0)
(1.0733 -2.07446 0)
(1.0733 -2.22813 0)
(1.0733 -2.38179 0)
(1.0733 -2.53546 0)
(1.0733 -2.68912 0)
(1.0733 -2.84278 0)
(1.0733 -2.99645 0)
(1.0733 -3.15011 0)
(1.0733 -3.30378 0)
(1.0733 -3.45744 0)
(1.0733 -3.6111 0)
(1.0733 -3.76477 0)
(1.0733 -3.91843 0)
(1.0733 -4.0721 0)
(1.0733 -4.22576 0)
(1.0733 -4.37942 0)
(1.0733 -4.53309 0)
(1.0733 -4.68675 0)
(1.0733 -4.84042 0)
(1.0733 -4.99408 0)
(1.0733 -5.14774 0)
(1.0733 -5.30141 0)
(1.0733 -5.45507 0)
(1.0733 -5.60874 0)
(1.0733 -5.7624 0)
(1.0733 -5.91606 0)
(1.0733 -6.06973 0)
(1.0733 -6.22339 0)
(1.0733 -6.37706 0)
(1.0733 -6.53072 0)
(1.0733 -6.68438 0)
(1.0733 -6.83805 0)
(1.0733 -6.99171 0)
(1.0733 -7.14538 0)
(1.0733 -7.29904 0)
(1.0733 -7.4527 0)
(1.0733 -7.60637 0)
(1.19246 -0.076832 0)
(1.19246 -0.230496 0)
(1.19246 -0.38416 0)
(1.19246 -0.537824 0)
(1.19246 -0.691488 0)
(1.19246 -0.845152 0)
(1.19246 -0.998816 0)
(1.19246 -1.15248 0)
(1.19246 -1.30614 0)
(1.19246 -1.45981 0)
(1.19246 -1.61347 0)
(1.19246 -1.76714 0)
(1.19246 -1.9208 0)
(1.19246 -2.07446 0)
(1.19246 -2.22813 0)
(1.19246 -2.38179 0)
(1.19246 -2.53546 0)
(1.19246 -2.68912 0)
(1.19246 -2.84278 0)
(1.19246 -2.99645 0)
(1.19246 -3.15011 0)
(1.19246 -3.30378 0)
(1.19246 -3.45744 0)
(1.19246 -3.6111 0)
(1.19246 -3.76477 0)
(1.19246 -3.91843 0)
(1.19246 -4.0721 0)
(1.19246 -4.22576 0)
(1.19246 -4.37942 0)
(1.19246 -4.53309 0)
(1.19246 -4.68675 0)
(1.19246 -4.84042 0)
(1.19246 -4.99408 0)
(1.19246 -5.14774 0)
(1.19246 -5.30141 0)
(1.19246 -5.45507 0)
(1.19246 -5.60874 0)
(1.19246 -5.7624 0)
(1.19246 -5.91606 0)
(1.19246 -6.06973 0)
(1.19246 -6.22339 0)
(1.19246 -6.37706 0)
(1.19246 -6.53072 0)
(1.19246 -6.68438 0)
(1.19246 -6.83805 0)
(1.19246 -6.99171 0)
(1.19246 -7.14538 0)
(1.19246 -7.29904 0)
(1.19246 -7.4527 0)
(1.19246 -7.60637 0)
(1.3179 -0.076832 0)
(1.3179 -0.230496 0)
(1.3179 -0.38416 0)
(1.3179 -0.537824 0)
(1.3179 -0.691488 0)
(1.3179 -0.845152 0)
(1.3179 -0.998816 0)
(1.3179 -1.15248 0)
(1.3179 -1.30614 0)
(1.3179 -1.45981 0)
(1.3179 -1.61347 0)
(1.3179 -1.76714 0)
(1.3179 -1.9208 0)
(1.3179 -2.07446 0)
(1.3179 -2.22813 0)
(1.3179 -2.38179 0)
(1.3179 -2.53546 0)
(1.3179 -2.68912 0)
(1.3179 -2.84278 0)
(1.3179 -2.99645 0)
(1.3179 -3.15011 0)
(1.3179 -3.30378 0)
(1.3179 -3.45744 0)
(1.3179 -3.6111 0)
(1.3179 -3.76477 0)
(1.3179 -3.91843 0)
(1.3179 -4.0721 0)
(1.3179 -4.22576 0)
(1.3179 -4.37942 0)
(1.3179 -4.53309 0)
(1.3179 -4.68675 0)
(1.3179 -4.84042 0)
(1.3179 -4.99408 0)
(1.3179 -5.14774 0)
(1.3179 -5.30141 0)
(1.3179 -5.45507 0)
(1.3179 -5.60874 0)
(1.3179 -5.7624 0)
(1.3179 -5.91606 0)
(1.3179 -6.06973 0)
(1.3179 -6.22339 0)
(1.3179 -6.37706 0)
(1.3179 -6.53072 0)
(1.3179 -6.68438 0)
(1.3179 -6.83805 0)
(1.3179 -6.99171 0)
(1.3179 -7.14538 0)
(1.3179 -7.29904 0)
(1.3179 -7.4527 0)
(1.3179 -7.60637 0)
(1.44962 -0.076832 0)
(1.44962 -0.230496 0)
(1.44962 -0.38416 0)
(1.44962 -0.537824 0)
(1.44962 -0.691488 0)
(1.44962 -0.845152 0)
(1.44962 -0.998816 0)
(1.44962 -1.15248 0)
(1.44962 -1.30614 0)
(1.44962 -1.45981 0)
(1.44962 -1.61347 0)
(1.44962 -1.76714 0)
(1.44962 -1.9208 0)
(1.44962 -2.07446 0)
(1.44962 -2.22813 0)
(1.44962 -2.38179 0)
(1.44962 -2.53546 0)
(1.44962 -2.68912 0)
(1.44962 -2.84278 0)
(1.44962 -2.99645 0)
(1.44962 -3.15011 0)
(1.44962 -3.30378 0)
(1.44962 -3.45744 0)
(1.44962 -3.6111 0)
(1.44962 -3.76477 0)
(1.44962 -3.91843 0)
(1.44962 -4.0721 0)
(1.44962 -4.22576 0)
(1.44962 -4.37942 0)
(1.44962 -4.53309 0)
(1.44962 -4.68675 0)
(1.44962 -4.84042 0)
(1.44962 -4.99408 0)
(1.44962 -5.14774 0)
(1.44962 -5.30141 0)
(1.44962 -5.45507 0)
(1.44962 -5.60874 0)
(1.44962 -5.7624 0)
(1.44962 -5.91606 0)
(1.44962 -6.06973 0)
(1.44962 -6.22339 0)
(1.44962 -6.37706 0)
(1.44962 -6.53072 0)
(1.44962 -6.68438 0)
(1.44962 -6.83805 0)
(1.44962 -6.99171 0)
(1.44962 -7.14538 0)
(1.44962 -7.29904 0)
(1.44962 -7.4527 0)
(1.44962 -7.60637 0)
(1.5876 -0.076832 0)
(1.5876 -0.230496 0)
(1.5876 -0.38416 0)
(1.5876 -0.537824 0)
(1.5876 -0.691488 0)
(1.5876 -0.845152 0)
(1.5876 -0.998816 0)
(1.5876 -1.15248 0)
(1.5876 -1.30614 0)
(1.5876 -1.45981 0)
(1.5876 -1.61347 0)
(1.5876 -1.76714 0)
(1.5876 -1.9208 0)
(1.5876 -2.07446 0)
(1.5876 -2.22813 0)
(1.5876 -2.38179 0)
(1.5876 -2.53546 0)
(1.5876 -2.68912 0)
(1.5876 -2.84278 0)
(1.5876 -2.99645 0)
(1.5876 -3.15011 0)
(1.5876 -3.30378 0)
(1.5876 -3.45744 0)
(1.5876 -3.6111 0)
(1.5876 -3.76477 0)
(1.5876 -3.91843 0)
(1.5876 -4.0721 0)
(1.5876 -4.22576 0)
(1.5876 -4.37942 0)
(1.5876 -4.53309 0)
(1.5876 -4.68675 0)
(1.5876 -4.84042 0)
(1.5876 -4.99408 0)
(1.5876 -5.14774 0)
(1.5876 -5.30141 0)
(1.5876 -5.45507 0)
(1.5876 -5.60874 0)
(1.5876 -5.7624 0)
(1.5876 -5.91606 0)
(1.5876 -6.06973 0)
(1.5876 -6.22339 0)
(1.5876 -6.37706 0)
(1.5876 -6.53072 0)
(1.5876 -6.68438 0)
(1.5876 -6.83805 0)
(1.5876 -6.99171 0)
(1.5876 -7.14538 0)
(1.5876 -7.29904 0)
(1.5876 -7.4527 0)
(1.5876 -7.60637 0)
(1.73186 -0.076832 0)
(1.73186 -0.230496 0)
(1.73186 -0.38416 0)
(1.73186 -0.537824 0)
(1.73186 -0.691488 0)
(1.73186 -0.845152 0)
(1.73186 -0.998816 0)
(1.73186 -1.15248 0)
(1.73186 -1.30614 0)
(1.73186 -1.45981 0)
(1.73186 -1.61347 0)
(1.73186 -1.76714 0)
(1.73186 -1.9208 0)
(1.73186 -2.07446 0)
(1.73186 -2.22813 0)
(1.73186 -2.38179 0)
(1.73186 -2.53546 0)
(1.73186 -2.68912 0)
(1.73186 -2.84278 0)
(1.73186 -2.99645 0)
(1.73186 -3.15011 0)
(1.73186 -3.30378 0)
(1.73186 -3.45744 0)
(1.73186 -3.6111 0)
(1.73186 -3.76477 0)
(1.73186 -3.91843 0)
(1.73186 -4.0721 0)
(1.73186 -4.22576 0)
(1.73186 -4.37942 0)
(1.73186 -4.53309 0)
(1.73186 -4.68675 0)
(1.73186 -4.84042 0)
(1.73186 -4.99408 0)
(1.73186 -5.14774 0)
(1.73186 -5.30141 0)
(1.73186 -5.45507 0)
(1.73186 -5.60874 0)
(1.73186 -5.7624 0)
(1.73186 -5.91606 0)
(1.73186 -6.06973 0)
(1.73186 -6.22339 0)
(1.73186 -6.37706 0)
(1.73186 -6.53072 0)
(1.73186 -6.68438 0)
(1.73186 -6.83805 0)
(1.73186 -6.99171 0)
(1.73186 -7.14538 0)
(1.73186 -7.29904 0)
(1.73186 -7.4527 0)
(1.73186 -7.60637 0)
(1.88238 -0.076832 0)
(1.88238 -0.230496 0)
(1.88238 -0.38416 0)
(1.88238 -0.537824 0)
(1.88238 -0.691488 0)
(1.88238 -0.845152 0)
(1.88238 -0.998816 0)
(1.88238 -1.15248 0)
(1.88238 -1.30614 0)
(1.88238 -1.45981 0)
(1.88238 -1.61347 0)
(1.88238 -1.76714 0)
(1.88238 -1.9208 0)
(1.88238 -2.07446 0)
(1.88238 -2.22813 0)
(1.88238 -2.38179 0)
(1.88238 -2.53546 0)
(1.88238 -2.68912 0)
(1.88238 -2.84278 0)
(1.88238 -2.99645 0)
(1.88238 -3.15011 0)
(1.88238 -3.30378 0)
(1.88238 -3.45744 0)
(1.88238 -3.6111 0)
(1.88238 -3.76477 0)
(1.88238 -3.91843 0)
(1.88238 -4.0721 0)
(1.88238 -4.22576 0)
(1.88238 -4.37942 0)
(1.88238 -4.53309 0)
(1.88238 -4.68675 0)
(1.88238 -4.84042 0)
(1.88238 -4.99408 0)
(1.88238 -5.14774 0)
(1.88238 -5.30141 0)
(1.88238 -5.45507 0)
(1.88238 -5.60874 0)
(1.88238 -5.7624 0)
(1.88238 -5.91606 0)
(1.88238 -6.06973 0)
(1.88238 -6.22339 0)
(1.88238 -6.37706 0)
(1.88238 -6.53072 0)
(1.88238 -6.68438 0)
(1.88238 -6.83805 0)
(1.88238 -6.99171 0)
(1.88238 -7.14538 0)
(1.88238 -7.29904 0)
(1.88238 -7.4527 0)
(1.88238 -7.60637 0)
(2.03918 -0.076832 0)
(2.03918 -0.230496 0)
(2.03918 -0.38416 0)
(2.03918 -0.537824 0)
(2.03918 -0.691488 0)
(2.03918 -0.845152 0)
(2.03918 -0.998816 0)
(2.03918 -1.15248 0)
(2.03918 -1.30614 0)
(2.03918 -1.45981 0)
(2.03918 -1.61347 0)
(2.03918 -1.76714 0)
(2.03918 -1.9208 0)
(2.03918 -2.07446 0)
(2.03918 -2.22813 0)
(2.03918 -2.38179 0)
(2.03918 -2.53546 0)
(2.03918 -2.68912 0)
(2.03918 -2.84278 0)
(2.03918 -2.99645 0)
(2.03918 -3.15011 0)
(2.03918 -3.30378 0)
(2.03918 -3.45744 0)
(2.03918 -3.6111 0)
(2.03918 -3.76477 0)
(2.03918 -3.91843 0)
(2.03918 -4.0721 0)
(2.03918 -4.22576 0)
(2.03918 -4.37942 0)
(2.03918 -4.53309 0)
(2.03918 -4.68675 0)
(2.03918 -4.84042 0)
(2.03918 -4.99408 0)
(2.03918 -5.14774 0)
(2.03918 -5.30141 0)
(2.03918 -5.45507 0)
(2.03918 -5.60874 0)
(2.03918 -5.7624 0)
(2.03918 -5.91606 0)
(2.03918 -6.06973 0)
(2.03918 -6.22339 0)
(2.03918 -6.37706 0)
(2.03918 -6.53072 0)
(2.03918 -6.68438 0)
(2.03918 -6.83805 0)
(2.03918 -6.99171 0)
(2.03918 -7.14538 0)
(2.03918 -7.29904 0)
(2.03918 -7.4527 0)
(2.03918 -7.60637 0)
(2.20226 -0.076832 0)
(2.20226 -0.230496 0)
(2.20226 -0.38416 0)
(2.20226 -0.537824 0)
(2.20226 -0.691488 0)
(2.20226 -0.845152 0)
(2.20226 -0.998816 0)
(2.20226 -1.15248 0)
(2.20226 -1.30614 0)
(2.20226 -1.45981 0)
(2.20226 -1.61347 0)
(2.20226 -1.76714 0)
(2.20226 -1.9208 0)
(2.20226 -2.07446 0)
(2.20226 -2.22813 0)
(2.20226 -2.38179 0)
(2.20226 -2.53546 0)
(2.20226 -2.68912 0)
(2.20226 -2.84278 0)
(2.20226 -2.99645 0)
(2.20226 -3.15011 0)
(2.20226 -3.30378 0)
(2.20226 -3.45744 0)
(2.20226 -3.6111 0)
(2.20226 -3.76477 0)
(2.20226 -3.91843 0)
(2.20226 -4.0721 0)
(2.20226 -4.22576 0)
(2.20226 -4.37942 0)
(2.20226 -4.53309 0)
(2.20226 -4.68675 0)
(2.20226 -4.84042 0)
(2.20226 -4.99408 0)
(2.20226 -5.14774 0)
(2.20226 -5.30141 0)
(2.20226 -5.45507 0)
(2.20226 -5.60874 0)
(2.20226 -5.7624 0)
(2.20226 -5.91606 0)
(2.20226 -6.06973 0)
(2.20226 -6.22339 0)
(2.20226 -6.37706 0)
(2.20226 -6.53072 0)
(2.20226 -6.68438 0)
(2.20226 -6.83805 0)
(2.20226 -6.99171 0)
(2.20226 -7.14538 0)
(2.20226 -7.29904 0)
(2.20226 -7.4527 0)
(2.20226 -7.60637 0)
(2.3716 -0.076832 0)
(2.3716 -0.230496 0)
(2.3716 -0.38416 0)
(2.3716 -0.537824 0)
(2.3716 -0.691488 0)
(2.3716 -0.845152 0)
(2.3716 -0.998816 0)
(2.3716 -1.15248 0)
(2.3716 -1.30614 0)
(2.3716 -1.45981 0)
(2.3716 -1.61347 0)
(2.3716 -1.76714 0)
(2.3716 -1.9208 0)
(2.3716 -2.07446 0)
(2.3716 -2.22813 0)
(2.3716 -2.38179 0)
(2.3716 -2.53546 0)
(2.3716 -2.68912 0)
(2.3716 -2.84278 0)
(2.3716 -2.99645 0)
(2.3716 -3.15011 0)
(2.3716 -3.30378 0)
(2.3716 -3.45744 0)
(2.3716 -3.6111 0)
(2.3716 -3.76477 0)