/*--------------------------------*- C++ -*----------------------------------*\
| =========                 |                                                 |
| \\      /  F ield         | OpenFOAM: The Open Source CFD Toolbox           |
|  \\    /   O peration     | Version:  v2006                                 |
|   \\  /    A nd           | Website:  www.openfoam.com                      |
|    \\/     M anipulation  |                                                 |
\*---------------------------------------------------------------------------*/
FoamFile
{
    version     2.0;
    format      ascii;
    class       volScalarField;
    location    "0";
    object      f;
}
// * * * * * * * * * * * * * * * * * * * * * * * * * * * * * * * * * * * * * //

dimensions      [0 0 0 0 0 0 0];


internalField   nonuniform List<scalar> 
2500
(
-1.07707e-06
5.76927e-06
3.0527e-06
-3.42041e-05
-8.53993e-06
0.000122089
4.14513e-05
-0.000336906
-0.000207303
0.000778001
0.000848164
-0.00142106
-0.00270059
0.00170096
0.00732047
-7.50796e-05
-0.0224495
-0.0256534
0.04471
0.194622
0.32946
0.29501
-0.00464226
-0.474607
-0.809249
-0.625552
0.313645
1.85846
3.40666
4.10355
3.29934
1.00821
-1.9261
-4.27715
-5.07107
-4.07771
-1.78951
0.916221
3.18268
4.47996
4.67985
4.02452
2.94628
1.85618
1.00798
0.471616
0.192305
0.072191
0.0260503
0.0156797
7.10708e-07
2.82496e-06
-8.35698e-06
-1.60937e-05
3.33313e-05
5.58937e-05
-9.48205e-05
-0.000174954
0.000190845
0.000498738
-0.000259075
-0.0012845
-0.000162814
0.00269845
0.00114383
-0.0103458
-0.0240677
-0.0172141
0.0252058
0.0920065
0.145385
0.14135
0.065763
-0.0692411
-0.198992
-0.225954
-0.0601268
0.356605
0.965821
1.62654
2.18375
2.53091
2.57648
2.20307
1.34703
0.0879029
-1.31822
-2.55342
-3.36597
-3.64606
-3.42711
-2.8437
-2.0864
-1.34522
-0.752898
-0.358947
-0.141837
-0.0454182
-0.0112631
-0.00473386
1.02771e-06
3.93633e-06
-1.11833e-05
-2.42369e-05
4.6322e-05
8.8053e-05
-0.00013073
-0.000276756
0.000253717
0.000766062
-0.000265759
-0.001953
-0.000595359
0.00354847
-0.000156451
-0.0220106
-0.0510138
-0.0488616
0.0214216
0.149076
0.256472
0.233522
0.0114085
-0.361889
-0.699068
-0.734275
-0.250731
0.734852
1.90962
2.79105
2.99623
2.46282
1.45636
0.417563
-0.280739
-0.44702
-0.130011
0.451575
1.03026
1.40223
1.49052
1.3337
1.03925
0.715346
0.435821
0.234264
0.109889
0.0440351
0.0146649
0.00432087
2.59777e-06
2.84207e-06
-2.0675e-05
-2.05641e-05
8.55329e-05
7.63843e-05
-0.000250407
-0.000266134
0.000546815
0.000838253
-0.000953791
-0.00246543
0.000562438
0.00406464
-0.00720414
-0.0432818
-0.0847109
-0.0822664
0.000923974
0.144407
0.257571
0.225092
-0.0257044
-0.463406
-0.91575
-1.1118
-0.810641
0.0276726
1.16891
2.22574
2.8721
2.98435
2.62501
1.95114
1.12789
0.332728
-0.313649
-0.749892
-0.976822
-1.03096
-0.956886
-0.796268
-0.590702
-0.388859
-0.226049
-0.114979
-0.0511512
-0.020491
-0.00735539
-0.00368724
4.38286e-06
4.55813e-07
-3.04148e-05
-1.31831e-05
0.00012788
5.37369e-05
-0.000376841
-0.000231415
0.000868551
0.000879868
-0.00157322
-0.00264123
0.00222087
0.00568788
-0.0134757
-0.0675046
-0.127269
-0.130657
-0.0320339
0.140542
0.279865
0.241107
-0.0841784
-0.67741
-1.33354
-1.7087
-1.49836
-0.651237
0.561407
1.70281
2.4135
2.55986
2.23041
1.63589
1.02932
0.595558
0.400855
0.394027
0.468637
0.526882
0.524155
0.463836
0.368732
0.262589
0.166344
0.0920846
0.0433769
0.0167626
0.00512956
0.00114133
6.62988e-06
-4.561e-06
-4.31969e-05
6.84805e-06
0.000183527
-5.39782e-06
-0.000540837
-0.000119866
0.00134369
0.000914359
-0.00215913
-0.00161798
0.00793405
0.0135956
-0.0150017
-0.0898189
-0.171337
-0.18243
-0.0720336
0.133089
0.316557
0.302608
-0.0572486
-0.771532
-1.62805
-2.23901
-2.25802
-1.60375
-0.511156
0.62691
1.47404
1.87171
1.83101
1.48173
1.01269
0.582465
0.273076
0.0862705
-0.0178839
-0.0773608
-0.107633
-0.112366
-0.0993647
-0.0779647
-0.0552119
-0.0360423
-0.0213569
-0.0111167
-0.00489717
-0.00212437
8.6916e-06
-1.27155e-05
-5.62513e-05
4.25074e-05
0.000242078
-0.000105233
-0.000726481
0.000149265
0.0020172
0.00103218
-0.00200613
0.00307135
0.0216941
0.0325987
-0.00453694
-0.101929
-0.208446
-0.232195
-0.10446
0.159686
0.429227
0.490837
0.140737
-0.668799
-1.71694
-2.57733
-2.85962
-2.44756
-1.53948
-0.491698
0.376492
0.887917
1.01756
0.87619
0.629707
0.418437
0.297529
0.250789
0.232123
0.208909
0.176924
0.139294
0.100671
0.0660486
0.0379948
0.0190626
0.00841957
0.00341935
0.00130688
0.000963767
1.04666e-05
-2.43281e-05
-6.88616e-05
9.84704e-05
0.000297282
-0.000258364
-0.000906001
0.000619888
0.00287413
0.00137262
-0.000136636
0.0132125
0.0457447
0.0662015
0.0227224
-0.0972815
-0.231578
-0.26539
-0.106113
0.242756
0.645688
0.848721
0.581722
-0.252988
-1.44011
-2.52691
-3.09123
-2.97836
-2.32822
-1.43629
-0.594067
0.00144851
0.286296
0.326156
0.24737
0.156538
0.0968468
0.0635469
0.0338545
0.00686274
-0.013872
-0.0262059
-0.0299503
-0.0282536
-0.0226985
-0.0153625
-0.00861018
-0.0039542
-0.0014619
-0.000350364
1.17439e-05
-3.99764e-05
-8.02959e-05
0.000174042
0.000340104
-0.000458224
-0.00110076
0.00122771
0.00369385
0.00164032
0.00261616
0.0270275
0.0784632
0.113231
0.0676714
-0.0732032
-0.232724
-0.276589
-0.0870047
0.362623
0.941577
1.35047
1.24748
0.480365
-0.749138
-1.98191
-2.78158
-2.9555
-2.58154
-1.8932
-1.15454
-0.575627
-0.235956
-0.0961656
-0.0565627
-0.0407093
-0.0186447
0.000540712
0.00951523
0.0111569
0.00853175
0.00505723
0.00206095
0.000790038
0.000692594
0.00139137
0.00167173
0.0014357
0.000903003
0.000671581
1.25139e-05
-6.27894e-05
-9.21259e-05
0.000273506
0.000370632
-0.00078954
-0.00145854
0.00160418
0.00358868
-0.000539092
0.0015201
0.0382514
0.112671
0.167643
0.126137
-0.0310932
-0.222756
-0.29958
-0.102765
0.440197
1.21006
1.87208
2.01506
1.43063
0.289164
-0.972929
-1.92659
-2.34764
-2.24792
-1.79583
-1.2295
-0.746028
-0.434566
-0.271553
-0.190128
-0.135976
-0.0947065
-0.068545
-0.0536288
-0.044648
-0.0365866
-0.0280161
-0.0195536
-0.0122227
-0.00655939
-0.0028629
-0.000952359
-0.000166928
2.45086e-05
-5.79659e-05
1.12109e-05
-9.64066e-05
-0.00010282
0.00039857
0.000343338
-0.00140638
-0.00229949
0.000894552
0.000316858
-0.0101357
-0.0109158
0.0376876
0.137707
0.219077
0.188345
0.0120038
-0.239458
-0.393221
-0.241092
0.346889
1.28778
2.22021
2.67134
2.37625
1.45163
0.281515
-0.730779
-1.33574
-1.47976
-1.27453
-0.918905
-0.591295
-0.371559
-0.248808
-0.176572
-0.122907
-0.0836722
-0.0570947
-0.0393121
-0.0260007
-0.0151445
-0.00703905
-0.00177611
0.000963951
0.00209407
0.00208118
0.00152108
0.000816087
0.000351638
7.60135e-05
5.72719e-06
-0.000142615
-0.000106859
0.000542498
0.000163965
-0.00249963
-0.00399783
-0.00200356
-0.00899802
-0.031982
-0.041018
0.0165037
0.143107
0.255494
0.235872
0.0223735
-0.322036
-0.611933
-0.586135
-0.0305086
1.01893
2.18928
2.96336
3.01977
2.40358
1.42373
0.444653
-0.263605
-0.59155
-0.60032
-0.44901
-0.285515
-0.176889
-0.11956
-0.0832844
-0.0563553
-0.0382969
-0.0264629
-0.0182124
-0.0109751
-0.00524975
-0.00138672
0.000526567
0.00130823
0.00124733
0.000814716
0.000308509
5.77782e-06
-8.35476e-05
-0.000154981
-2.33753e-06
-0.000196207
-9.63362e-05
0.000691598
-0.00013575
-0.00397539
-0.00644995
-0.00720399
-0.0244107
-0.0659439
-0.090115
-0.0293904
0.121313
0.263957
0.251479
-0.00280487
-0.466506
-0.952682
-1.13811
-0.720381
0.327189
1.64231
2.68698
3.09291
2.82363
2.10082
1.24254
0.530686
0.111624
-0.0366021
-0.0366855
-0.00290286
0.0112752
0.0106351
0.00980247
0.00825703
0.00667768
0.00536465
0.0055554
0.00626659
0.00657235
0.00581192
0.00452133
0.00301937
0.00167299
0.000698284
0.000155659
-4.63138e-05
-7.72925e-05
-4.63456e-05
-4.96315e-06
-0.000245704
-6.45011e-05
0.00100463
-0.000145169
-0.00499258
-0.00793127
-0.0110107
-0.0395874
-0.104721
-0.151551
-0.0968838
0.0718665
0.245436
0.260899
-0.0146277
-0.5976
-1.31188
-1.78465
-1.62067
-0.719828
0.594591
1.79935
2.49491
2.56317
2.13502
1.47631
0.866542
0.462488
0.266573
0.190956
0.149975
0.110471
0.0789642
0.0550998
0.0379031
0.0256971
0.017731
0.0127789
0.00940957
0.00658444
0.00406972
0.00206881
0.00070376
-4.50436e-05
-0.000333874
-0.000325301
-0.000204667
-9.82959e-05
-1.39778e-05
1.30882e-05
-0.000282783
0.000162412
0.00193225
0.00110319
-0.00350657
-0.00389391
-0.0048587
-0.0427581
-0.134312
-0.212776
-0.173888
0.00898702
0.238707
0.325566
0.0844974
-0.569498
-1.50216
-2.30297
-2.49218
-1.88565
-0.731106
0.496139
1.38456
1.7426
1.61249
1.20808
0.776744
0.471279
0.306305
0.221648
0.160615
0.112021
0.0756864
0.0498864
0.032439
0.0205795
0.0130808
0.00838698
0.00522807
0.00271806
0.000965604
-4.88581e-05
-0.000471519
-0.000518595
-0.000368928
-0.000178898
-5.20871e-05
2.7793e-06
3.8063e-05
6.58017e-05
-0.000192534
0.000825138
0.00405854
0.0048661
0.00341795
0.0116644
0.0207522
-0.0212752
-0.139453
-0.25521
-0.238438
-0.0266512
0.291141
0.514932
0.400931
-0.233968
-1.31787
-2.4269
-3.01408
-2.80502
-1.94512
-0.830384
0.135316
0.699324
0.828382
0.673623
0.444761
0.274623
0.182521
0.129012
0.0874431
0.0562039
0.0342303
0.0203731
0.0110164
0.00535021
0.00221837
0.000596999
-0.000570064
-0.0012271
-0.00138908
-0.00120681
-0.000851531
-0.000485584
-0.000196503
-3.68967e-05
2.4172e-05
3.02436e-05
2.07145e-05
0.000167515
2.85592e-05
0.00195245
0.00747247
0.0115926
0.0170193
0.0408669
0.0691461
0.0316165
-0.107967
-0.262488
-0.264675
-0.020607
0.413875
0.842235
0.957931
0.46961
-0.636337
-1.95469
-2.90254
-3.1224
-2.63806
-1.74813
-0.830502
-0.178027
0.116516
0.150935
0.0914657
0.0436125
0.0251094
0.0131742
0.00411806
-0.00204469
-0.0046956
-0.00599977
-0.00619665
-0.00559689
-0.00451848
-0.00364011
-0.00289459
-0.00213622
-0.00141346
-0.000779927
-0.000320472
-4.81434e-05
6.88224e-05
8.42589e-05
5.64581e-05
2.71703e-05
2.32984e-06
0.000211607
9.13949e-05
0.0027945
0.0107488
0.0187045
0.0324229
0.0762133
0.132846
0.112343
-0.0393938
-0.229026
-0.263733
-0.00702268
0.539509
1.20528
1.64046
1.44261
0.490593
-0.871034
-2.06552
-2.66764
-2.58215
-1.99752
-1.24932
-0.642354
-0.302616
-0.172959
-0.13253
-0.102267
-0.075412
-0.0551141
-0.0404177
-0.0292593
-0.0209179
-0.0148781
-0.0104391
-0.00712615
-0.00470929
-0.00305103
-0.00185119
-0.000969466
-0.000348188
1.36719e-05
0.000159842
0.000177667
0.000127155
6.41305e-05
2.00212e-05
8.81114e-07
-1.06663e-05
-0.000169047
-0.000899521
0.00138605
0.010052
0.0186872
0.0366733
0.100217
0.192514
0.203237
0.04992
-0.184456
-0.291932
-0.0840645
0.514108
1.39784
2.19667
2.40769
1.78724
0.577111
-0.698962
-1.5794
-1.85867
-1.61507
-1.12416
-0.671185
-0.390053
-0.256879
-0.1855
-0.13158
-0.0902245
-0.0603801
-0.0396419
-0.0250558
-0.0153261
-0.0091806
-0.00541285
-0.00287304
-0.00133678
-0.00044574
9.16255e-05
0.000370843
0.000447544
0.000382802
0.000265488
0.000144331
5.33494e-05
5.20354e-06
-1.12342e-05
-1.11189e-05
-6.99349e-06
-0.00155343
-0.004236
-0.00498107
-0.000180401
0.00116977
0.0137511
0.0914354
0.223631
0.276281
0.12451
-0.181305
-0.422953
-0.364231
0.173964
1.1823
2.30867
2.97501
2.81466
1.93011
0.747067
-0.268628
-0.821354
-0.88861
-0.673044
-0.419642
-0.255361
-0.172232
-0.120054
-0.0792848
-0.049457
-0.0291048
-0.0155722
-0.00699669
-0.00231001
-0.000231661
0.000871985
0.00130526
0.00131082
0.00117719
0.000957924
0.000701694
0.000450011
0.000236949
8.75202e-05
3.55045e-06
-2.79271e-05
-2.85859e-05
-1.72786e-05
-7.67064e-06
4.96184e-07
-0.00419168
-0.0104378
-0.0176499
-0.0230852
-0.0392178
-0.0450508
0.0355002
0.204322
0.30411
0.148487
-0.244016
-0.67828
-0.874761
-0.547627
0.420739
1.74104
2.80713
3.14584
2.70045
1.76655
0.78105
0.0967927
-0.180076
-0.182784
-0.10601
-0.0572504
-0.0376852
-0.0222484
-0.0101204
-0.00173929
0.00305925
0.00571682
0.00628911
0.00539349
0.00428128
0.0032276
0.00230526
0.00157847
0.0010019
0.000569419
0.000268324
6.86241e-05
-3.62998e-05
-7.03557e-05
-6.43112e-05
-4.14162e-05
-1.8504e-05
-4.38236e-06
1.00493e-06
3.65998e-06
-0.00688853
-0.0172799
-0.0330071
-0.0525799
-0.0934627
-0.131182
-0.0646323
0.133296
0.279562
0.145838
-0.316906
-0.956051
-1.48567
-1.5237
-0.802876
0.500939
1.81463
2.59379
2.62329
2.05119
1.25455
0.604492
0.257791
0.140015
0.106967
0.0786445
0.05551
0.0396009
0.0291466
0.0214459
0.0159694
0.011743
0.00809249
0.00522723
0.00317518
0.00182697
0.000952826
0.000394207
6.06861e-05
-0.000106855
-0.000173252
-0.00017183
-0.000131548
-8.16743e-05
-3.86662e-05
-1.0219e-05
2.78544e-06
5.56183e-06
4.03912e-06
1.7119e-06
-0.00609562
-0.0183882
-0.039743
-0.0697588
-0.135515
-0.215685
-0.181701
0.0346352
0.252955
0.197053
-0.255168
-1.04134
-1.91065
-2.41383
-2.1293
-1.07672
0.270573
1.34694
1.80344
1.63724
1.13895
0.656709
0.364068
0.233467
0.163969
0.111679
0.073014
0.0467827
0.0296365
0.0180855
0.0107759
0.00618673
0.00303437
0.00111681
0.00011883
-0.000344903
-0.000506442
-0.000518099
-0.000443666
-0.000334443
-0.000223288
-0.000127087
-5.58865e-05
-1.11027e-05
9.33845e-06
1.3684e-05
1.02366e-05
4.92883e-06
1.65719e-06
-8.07219e-07
0.0031984
-0.00480375
-0.0217686
-0.0495421
-0.131659
-0.259507
-0.273442
-0.0416331
0.288665
0.407507
0.0957476
-0.695857
-1.80544
-2.76459
-3.02399
-2.42105
-1.26805
-0.0931599
0.66006
0.85277
0.671406
0.410817
0.241446
0.159481
0.107949
0.0679694
0.0395394
0.021942
0.010289
0.00366586
0.000624739
-0.00108913
-0.00171924
-0.00173298
-0.00146522
-0.00109414
-0.000761959
-0.000495444
-0.000282426
-0.000132866
-3.93356e-05
1.17072e-05
3.18622e-05
3.17184e-05
2.23967e-05
1.16104e-05
3.69686e-06
-1.16409e-07
-1.07752e-06
-1.18294e-06
0.0234993
0.0285117
0.030127
0.0219434
-0.0601059
-0.23227
-0.305269
-0.0561834
0.416676
0.791425
0.772484
0.181565
-0.960528
-2.23875
-3.02994
-2.98825
-2.2223
-1.16686
-0.309292
0.104953
0.164489
0.0974948
0.0513559
0.0340813
0.0196823
0.00772961
0.000467833
-0.00407533
-0.0059701
-0.00559537
-0.00474463
-0.00361593
-0.0025368
-0.0016531
-0.000954523
-0.000484132
-0.000198451
-2.90859e-05
5.5175e-05
8.5292e-05
8.28207e-05
6.44478e-05
4.11721e-05
2.07037e-05
6.43752e-06
-8.11613e-07
-2.85671e-06
-2.31679e-06
-1.23376e-06
-1.54865e-07
0.0487057
0.0728563
0.103024
0.129961
0.0688541
-0.138074
-0.277252
-0.0455085
0.546632
1.20548
1.59522
1.41505
0.502283
-0.856311
-2.04344
-2.55823
-2.29255
-1.54492
-0.789516
-0.329394
-0.158797
-0.111431
-0.0774859
-0.0512322
-0.0345924
-0.024453
-0.0176372
-0.0128315
-0.00887371
-0.00575587
-0.00338779
-0.00177377
-0.000772604
-0.000164781
0.000136233
0.000245205
0.000254335
0.000213208
0.000158121
0.00010407
5.85918e-05
2.51029e-05
4.74124e-06
-5.02237e-06
-7.2185e-06
-5.56287e-06
-2.9277e-06
-9.34099e-07
-4.97653e-08
4.4955e-07
0.0606008
0.100553
0.156988
0.226613
0.207782
-0.0182983
-0.253665
-0.122949
0.486675
1.35347
2.16061
2.51684
2.07229
0.91499
-0.42811
-1.37122
-1.60563
-1.26605
-0.760215
-0.401177
-0.237301
-0.159828
-0.103617
-0.0634792
-0.0382927
-0.0224785
-0.0126444
-0.00702893
-0.00335856
-0.00109304
0.000108034
0.000618466
0.000746215
0.000671176
0.000519531
0.000358477
0.000219949
0.000118019
5.02226e-05
9.873e-06
-1.10731e-05
-1.80855e-05
-1.64208e-05
-1.12673e-05
-5.88215e-06
-1.92626e-06
9.16165e-08
6.34058e-07
5.21684e-07
2.52498e-07
0.0350409
0.0753523
0.14233
0.252432
0.295106
0.0675048
-0.311275
-0.403777
0.0452978
0.927346
2.00798
2.8806
3.04467
2.35115
1.1395
0.000153968
-0.605037
-0.647279
-0.42848
-0.238144
-0.147204
-0.0963557
-0.0567263
-0.0300825
-0.014435
-0.00497063
-0.000714362
0.00124793
0.00197622
0.0019812
0.00163724
0.00117658
0.000755236
0.00043002
0.000204014
6.44643e-05
-1.10077e-05
-4.38402e-05
-4.91703e-05
-4.24914e-05
-3.09465e-05
-1.86299e-05
-8.69658e-06
-2.32526e-06
8.19021e-07
1.65148e-06
1.30398e-06
6.40412e-07
2.16206e-07
-1.01032e-07
-0.038997
-0.0194734
0.0360652
0.177592
0.298012
0.0837956
-0.464745
-0.888009
-0.797319
-0.166565
0.918932
2.13496
2.90809
2.84562
2.03387
0.977567
0.222815
-0.0618871
-0.0644123
-0.0257272
-0.0166865
-0.00843386
-0.000198275
0.00422918
0.00662331
0.00667208
0.0054496
0.00398888
0.00268229
0.00163811
0.000847236
0.000336467
4.65144e-05
-9.50235e-05
-0.000137522
-0.000131635
-0.000105167
-7.24441e-05
-4.32025e-05
-2.16134e-05
-7.33722e-06
5.92631e-07
3.82333e-06
3.98108e-06
2.82027e-06
1.44097e-06
4.34093e-07
-3.89248e-08
-1.45671e-07
-1.41216e-07
-0.136894
-0.152119
-0.126494
0.0301911
0.235327
0.0835718
-0.591276
-1.36571
-1.75559
-1.60457
-0.818901
0.456129
1.67512
2.25632
2.00535
1.27118
0.59987
0.256078
0.148655
0.0988049
0.060789
0.0374445
0.0240375
0.0159121
0.0105299
0.00655551
0.00359661
0.00170869
0.000597018
-3.56852e-05
-0.000305335
-0.000364907
-0.000321682
-0.000236704
-0.00015167
-8.53478e-05
-3.93157e-05
-1.01147e-05
4.95621e-06
1.04691e-05
1.06841e-05
8.319e-06
5.16183e-06
2.43125e-06
6.53725e-07
-1.94134e-07
-3.90451e-07
-2.834e-07
-1.38105e-07
-3.77413e-09
-0.195153
-0.242925
-0.258807
-0.114948
0.175608
0.184956
-0.459969
-1.4505
-2.26744
-2.67685
-2.43142
-1.43781
-0.0830197
0.969652
1.27198
0.972479
0.53809
0.278438
0.171469
0.10615
0.0595585
0.0322185
0.016528
0.00789498
0.00350991
0.000848082
-0.000428853
-0.000861372
-0.000912647
-0.000749908
-0.00052554
-0.000320476
-0.000163338
-5.89787e-05
-1.28429e-06
2.39213e-05
3.11012e-05
2.80613e-05
2.07657e-05
1.32343e-05
6.966e-06
2.60037e-06
1.23607e-07
-9.00534e-07
-9.90517e-07
-6.73871e-07
-3.15675e-07
-7.78495e-08
1.48135e-08
5.49685e-08
-0.146359
-0.212236
-0.283968
-0.19322
0.191065
0.49418
0.13281
-0.787749
-1.79107
-2.65367
-3.06057
-2.66051
-1.55293
-0.347773
0.329747
0.413511
0.248375
0.131192
0.0817003
0.0444112
0.0197925
0.00643972
-0.000372748
-0.00221957
-0.00273802
-0.00244731
-0.00182043
-0.00120913
-0.000700074
-0.00033107
-9.86326e-05
2.36951e-05
7.41609e-05
8.12519e-05
6.63793e-05
4.67514e-05
2.83291e-05
1.42124e-05
4.93098e-06
-1.81885e-07
-2.37777e-06
-2.7654e-06
-2.17462e-06
-1.31418e-06
-5.86444e-07
-1.23112e-07
7.08029e-08
9.62597e-08
6.29001e-08
1.95819e-08
0.0190392
-0.0514432
-0.193458
-0.19438
0.272336
0.971514
1.13969
0.605601
-0.256801
-1.31892
-2.31299
-2.67511
-2.13883
-1.13404
-0.354927
-0.0561401
-0.0283138
-0.0217752
-0.0131681
-0.011502
-0.0105978
-0.0096371
-0.00720562
-0.00491908
-0.00301197
-0.00160873
-0.000699742
-0.000173098
8.9826e-05
0.000188295
0.000188327
0.000148684
9.94386e-05
5.57118e-05
2.44571e-05
5.45953e-06
-4.18227e-06
-7.62696e-06
-7.45283e-06
-5.712e-06
-3.6808e-06
-1.89465e-06
-6.63467e-07
1.63977e-08
2.57978e-07
2.51423e-07
1.54638e-07
5.90252e-08
1.09397e-08
-1.85361e-08
0.215368
0.148154
-0.0585417
-0.165374
0.297168
1.3349
2.0965
2.11809
1.66352
0.743774
-0.552143
-1.59169
-1.75398
-1.20031
-0.571841
-0.25292
-0.147647
-0.0854705
-0.0460356
-0.0253247
-0.0141103
-0.00781089
-0.00392965
-0.00153368
-0.000250741
0.000331253
0.000497414
0.000454844
0.000342814
0.000215778
0.00011287
4.31255e-05
2.76337e-06
-1.58907e-05
-2.06429e-05
-1.82193e-05
-1.33936e-05
-8.23833e-06
-4.14533e-06
-1.4744e-06
2.52241e-08
6.61852e-07
7.44411e-07
5.51955e-07
3.07139e-07
1.1305e-07
6.58506e-09
-2.62829e-08
-2.40908e-08
-1.25191e-08
0.303182
0.255017
0.0398251
-0.203145
0.0485677
1.1168
2.24817
2.7541
2.83445
2.42867
1.30687
-0.055868
-0.791782
-0.744322
-0.405539
-0.199192
-0.114814
-0.0587696
-0.0261071
-0.0099479
-0.00267736
0.000105067
0.00125119
0.00142551
0.00119965
0.000844965
0.000503356
0.000252136
8.66378e-05
-4.30085e-06
-4.2731e-05
-4.8905e-05
-4.11237e-05
-2.82162e-05
-1.61535e-05
-7.38721e-06
-1.85611e-06
1.03842e-06
2.05666e-06
2.01125e-06
1.52996e-06
9.38171e-07
4.41543e-07
1.18875e-07
-3.86767e-08
-7.90682e-08
-6.15494e-08
-2.95744e-08
-9.23252e-09
5.31604e-09
0.202198
0.216486
0.0778767
-0.368128
-0.624791
-0.0100702
1.07682
1.83442
2.41848
2.80058
2.34911
1.15618
0.161836
-0.164343
-0.103123
-0.0478657
-0.0245472
-0.00640288
0.00241841
0.0054415
0.00474415
0.00350564
0.00224347
0.00125623
0.000588099
0.000184237
-2.43004e-05
-0.000104269
-0.000114354
-9.23076e-05
-5.97771e-05
-3.24025e-05
-1.26328e-05
-9.63129e-07
4.40222e-06
5.68661e-06
5.05729e-06
3.641e-06
2.16383e-06
1.04839e-06
3.14781e-07
-7.40845e-08
-2.12567e-07
-1.9929e-07
-1.30325e-07
-6.08836e-08
-1.40036e-08
5.34264e-09
8.07853e-09
5.89376e-09
-0.0189638
0.0989452
0.0830028
-0.603444
-1.53969
-1.74524
-1.03968
-0.28229
0.566617
1.68926
2.1654
1.55864
0.667035
0.205934
0.102348
0.055555
0.029521
0.0174428
0.0112593
0.00665402
0.00348479
0.00149432
0.000385705
-0.000123443
-0.000281751
-0.000285193
-0.000215287
-0.000135525
-7.0138e-05
-2.43029e-05
8.02134e-07
1.1425e-05
1.34894e-05
1.13184e-05
7.57288e-06
4.2815e-06
1.83776e-06
3.20354e-07
-4.00165e-07
-6.05532e-07
-5.51418e-07
-3.89182e-07
-2.12757e-07
-8.24646e-08
-7.36378e-09
2.11279e-08
2.16717e-08
1.24797e-08
4.86726e-09
-1.20408e-09
-0.187578
0.00856475
0.0948343
-0.644516
-2.0081
-2.95614
-2.71367
-2.18243
-1.57047
-0.226129
1.01815
1.15552
0.632147
0.258428
0.130336
0.0621388
0.0256934
0.00999664
0.00362214
0.000692398
-0.000525772
-0.000875573
-0.000797694
-0.000558115
-0.000336568
-0.000164083
-5.39898e-05
3.90095e-06
2.73172e-05
3.06826e-05
2.39842e-05
1.54433e-05
8.00762e-06
2.72802e-06
-2.01986e-07
-1.4242e-06
-1.66368e-06
-1.39196e-06
-9.26986e-07
-5.15376e-07
-2.15475e-07
-3.39851e-08
4.82546e-08
6.4841e-08
4.9686e-08
2.67778e-08
8.71109e-09
-2.17846e-10
-2.42375e-09
-2.36337e-09
-0.186034
-0.02685
0.198418
-0.0601269
-1.13117
-2.29223
-2.44765
-2.34706
-2.56669
-1.83447
-0.366249
0.37087
0.28233
0.114384
0.0537455
0.0167685
0.00136485
-0.00323374
-0.00335578
-0.00253412
-0.00162852
-0.000922492
-0.000419835
-0.000129965
1.48916e-05
6.82908e-05
7.21966e-05
5.47585e-05
3.42199e-05
1.63433e-05
4.78681e-06
-1.3782e-06
-3.75439e-06
-3.91627e-06
-2.9805e-06
-1.90313e-06
-9.86232e-07
-3.41487e-07
1.32838e-08
1.58722e-07
1.82517e-07
1.45694e-07
8.89248e-08
4.02164e-08
9.50674e-09
-4.50417e-09
-7.15974e-09
-4.81887e-09
-2.12151e-09
1.51758e-10
-0.0616938
-0.0563393
0.464492
1.26282
1.16803
0.34875
-0.213631
-0.515412
-1.6581
-2.21952
-1.22447
-0.263602
-0.0438193
-0.0273187
-0.0158052
-0.0119409
-0.0092264
-0.0056003
-0.00288925
-0.00119042
-0.000314873
7.36169e-05
0.000192862
0.000187422
0.000136107
8.12656e-05
3.73102e-05
1.03681e-05
-3.59615e-06
-8.50325e-06
-8.3787e-06
-6.19176e-06
-3.72333e-06
-1.66962e-06
-3.85736e-07
2.71273e-07
5.02626e-07
4.85804e-07
3.54295e-07
2.15402e-07
1.02949e-07
2.98497e-08
-8.06952e-09
-2.00608e-08
-1.76647e-08
-1.05325e-08
-4.02414e-09
-4.12882e-10
6.70735e-10
8.69126e-10
0.0412963
-0.0990137
0.746868
2.16188
2.62256
2.15643
1.17281
1.23796
0.476101
-1.18023
-1.19749
-0.444716
-0.151538
-0.06503
-0.0237387
-0.00914926
-0.00351734
-0.000828811
0.000304641
0.000633353
0.000556238
0.000374749
0.000210149
9.20283e-05
2.34346e-05
-9.66455e-06
-2.02195e-05
-1.87776e-05
-1.3424e-05
-7.59639e-06
-3.11473e-06
-3.99661e-07
8.90612e-07
1.2375e-06
1.07191e-06
7.45147e-07
4.2844e-07
1.80878e-07
3.27229e-08
-3.77625e-08
-5.76622e-08
-5.1089e-08
-3.35327e-08
-1.66547e-08
-5.06662e-09
7.31647e-10
2.26224e-09
1.71106e-09
8.14468e-10
1.53137e-11
0.0480056
-0.102026
0.211136
1.64184
2.43788
1.77602
0.711288
0.822124
1.43911
0.460915
-0.534671
-0.257376
-0.0849289
-0.0252432
-0.00212496
0.00260819
0.00267564
0.0019005
0.00118821
0.000626812
0.000256257
5.85129e-05
-2.81621e-05
-5.21641e-05
-4.5888e-05
-3.1649e-05
-1.68958e-05
-6.58095e-06
-5.45867e-07
2.14917e-06
2.71771e-06
2.22967e-06
1.47422e-06
7.46696e-07
2.47719e-07
-2.75584e-08
-1.44332e-07
-1.60801e-07
-1.26555e-07
-8.13849e-08
-4.21488e-08
-1.46802e-08
3.90994e-10
6.01417e-09
5.98696e-09
3.79391e-09
1.58645e-09
2.56617e-10
-1.8539e-10
-2.99678e-10
0.00795072
-0.0449515
-0.671216
-0.137393
1.20928
1.22347
0.756725
0.380447
1.06848
1.15125
0.144678
-0.00986134
0.00347342
0.00914906
0.00839461
0.00497314
0.00232355
0.00083349
0.000167291
-8.81059e-05
-0.000147048
-0.000123779
-8.08647e-05
-4.09909e-05
-1.51891e-05
-8.43907e-07
5.07955e-06
5.94886e-06
4.72017e-06
2.92565e-06
1.35305e-06
3.40838e-07
-1.97363e-07
-3.82642e-07
-3.64747e-07
-2.67949e-07
-1.62736e-07
-7.48721e-08
-1.93286e-08
8.6678e-09
1.81001e-08
1.72765e-08
1.18662e-08
6.19959e-09
2.0802e-09
-7.33196e-11
-7.12547e-10
-5.83723e-10
-2.88813e-10
-1.73479e-11
-0.0091043
0.00554187
-0.999117
-2.05649
-0.934635
0.601783
1.05983
0.7453
0.67986
0.866584
0.392036
0.082501
0.0254523
0.00788645
0.00299281
0.000669896
-0.000325572
-0.000521584
-0.000393675
-0.000235057
-0.000112565
-3.90818e-05
-1.15519e-06
1.26983e-05
1.40436e-05
1.07297e-05
6.26225e-06
2.75551e-06
5.61153e-07
-5.22157e-07
-8.39519e-07
-7.40035e-07
-5.14103e-07
-2.75107e-07
-1.02034e-07
-2.02292e-09
4.33972e-08
5.26151e-08
4.30097e-08
2.83054e-08
1.50868e-08
5.53107e-09
1.86924e-10
-1.89397e-09
-1.99312e-09
-1.29271e-09
-5.57344e-10
-9.9163e-11
5.6924e-11
1.0083e-10
-0.00258281
0.0120526
-0.539124
-2.5074
-2.98229
-1.22204
-0.207611
-0.420867
-0.464544
0.170747
0.249201
0.0433498
0.00163521
-0.00347018
-0.00254594
-0.00149255
-0.000834355
-0.000378352
-0.000119924
-2.28862e-06
3.50388e-05
3.68077e-05
2.64557e-05
1.47386e-05
6.19272e-06
1.08863e-06
-1.21053e-06
-1.77655e-06
-1.51191e-06
-9.82697e-07
-4.76232e-07
-1.38927e-07
4.77134e-08
1.17215e-07
1.17011e-07
8.7862e-08
5.41786e-08
2.53072e-08
6.81678e-09
-2.56648e-09
-5.7983e-09
-5.60544e-09
-3.86807e-09
-2.03062e-09
-6.83051e-10
2.15411e-11
2.33209e-10
1.92098e-10
9.53551e-11
6.56447e-12
0.000589185
-0.00109794
0.0202512
-1.09962
-3.01143
-3.297
-2.62287
-2.12414
-1.64849
-0.73804
0.0205524
-0.007572
-0.00893072
-0.00486108
-0.00183053
-0.000459242
-8.80177e-06
0.000104749
0.000108844
7.32916e-05
3.83835e-05
1.50064e-05
2.20585e-06
-2.95182e-06
-4.03631e-06
-3.24559e-06
-1.99435e-06
-9.17343e-07
-2.22829e-07
1.35666e-07
2.48694e-07
2.25053e-07
1.58298e-07
8.52948e-08
3.17335e-08
5.129e-10
-1.35459e-08
-1.6374e-08
-1.32788e-08
-8.66993e-09
-4.56036e-09
-1.62756e-09
-1.10496e-11
6.1145e-10
6.23611e-10
4.0097e-10
1.70773e-10
2.87923e-11
-1.87005e-11
-3.23354e-11
-0.00222735
-0.00302317
0.0194341
0.0452324
-1.07249
-2.6263
-3.07068
-2.53237
-1.59323
-0.657835
-0.0525007
-0.0080545
-0.0018797
-0.000384515
0.00037862
0.000423604
0.000243803
0.000116471
4.09332e-05
4.89921e-06
-8.07621e-06
-9.84169e-06
-7.42816e-06
-4.28213e-06
-1.84119e-06
-3.61905e-07
3.18626e-07
4.98413e-07
4.2839e-07
2.7952e-07
1.34307e-07
3.81839e-08
-1.472e-08
-3.40796e-08
-3.357e-08
-2.47712e-08
-1.50194e-08
-6.72514e-09
-1.56453e-09
9.81922e-10
1.78698e-09
1.64936e-09
1.10696e-09
5.62521e-10
1.80141e-10
-1.62887e-11
-7.22877e-11
-5.68997e-11
-2.78842e-11
-1.73593e-12
-0.00185152
0.000499851
-0.00963761
0.0181009
0.0698457
-0.490414
-1.12561
-1.22692
-0.704638
-0.0744368
-0.000366926
0.00741993
0.00295595
0.00104541
0.000473977
0.000162024
2.10371e-05
-2.18522e-05
-2.61552e-05
-1.80414e-05
-9.86421e-06
-3.93597e-06
-6.25142e-07
7.40092e-07
1.01975e-06
8.23287e-07
5.00503e-07
2.25389e-07
5.06855e-08
-3.80154e-08
-6.42209e-08
-5.67956e-08
-3.91059e-08
-2.04815e-08
-7.04203e-09
5.81363e-10
3.86128e-09
4.34891e-09
3.36393e-09
2.12242e-09
1.0596e-09
3.34895e-10
-4.95043e-11
-1.80646e-10
-1.67437e-10
-1.04012e-10
-4.18796e-11
-5.87156e-12
5.56973e-12
8.83351e-12
0.000931994
-0.00174995
0.00945785
-0.02413
0.00394948
0.101544
0.121793
0.0465312
-0.0130162
0.00588866
0.0123958
0.00509604
0.00131985
0.000119987
-6.75231e-05
-6.84512e-05
-4.8708e-05
-2.5006e-05
-9.16749e-06
-1.38327e-06
1.45313e-06
1.97639e-06
1.48896e-06
8.44706e-07
3.58829e-07
5.99151e-08
-7.55626e-08
-1.06071e-07
-8.79146e-08
-5.59339e-08
-2.57846e-08
-6.31459e-09
4.00205e-09
7.46297e-09
6.93096e-09
4.91303e-09
2.82357e-09
1.13734e-09
1.52749e-10
-2.97687e-10
-4.08421e-10
-3.48418e-10
-2.18655e-10
-1.02809e-10
-2.76181e-11
9.12041e-12
1.7385e-11
1.24691e-11
5.89778e-12
2.38117e-13
0.000949109
-0.000890592
0.00156552
0.00840592
-0.034671
0.0113515
0.123854
0.16082
0.0815342
-0.0167405
-0.00336851
0.000722599
-8.38402e-05
-0.000179271
-6.84979e-05
-1.93104e-05
-3.2943e-06
2.5707e-06
3.46409e-06
2.39073e-06
1.29868e-06
4.72553e-07
4.70617e-08
-1.16054e-07
-1.41161e-07
-1.12832e-07
-6.54142e-08
-2.75733e-08
-4.29005e-09
6.85152e-09
9.5971e-09
7.93276e-09
5.115e-09
2.46699e-09
6.56078e-10
-2.99683e-10
-6.43613e-10
-6.37003e-10
-4.52963e-10
-2.65072e-10
-1.17517e-10
-2.4072e-11
1.99487e-11
3.05373e-11
2.46846e-11
1.42109e-11
5.08926e-12
2.83185e-13
-1.03777e-12
-1.31197e-12
)
;

boundaryField
{
    movingWall
    {
        type            zeroGradient;
    }
    fixedWalls
    {
        type            zeroGradient;
    }
    frontAndBack
    {
        type            empty;
    }
}

