/*--------------------------------*- C++ -*----------------------------------*\
| =========                 |                                                 |
| \\      /  F ield         | OpenFOAM: The Open Source CFD Toolbox           |
|  \\    /   O peration     | Version:  v2006                                 |
|   \\  /    A nd           | Website:  www.openfoam.com                      |
|    \\/     M anipulation  |                                                 |
\*---------------------------------------------------------------------------*/
FoamFile
{
    version     2.0;
    format      ascii;
    class       surfaceScalarField;
    location    "15";
    object      phi;
}
// * * * * * * * * * * * * * * * * * * * * * * * * * * * * * * * * * * * * * //

dimensions      [0 3 -1 0 0 0 0];
oriented        oriented;


internalField   nonuniform List<scalar> 
299200
(
-0.000102529
0.000102529
-0.000117568
1.50384e-05
-7.28732e-05
-4.46945e-05
9.86656e-06
-8.27397e-05
0.000107923
-9.80564e-05
0.000202633
-9.47095e-05
0.000281771
-7.9138e-05
0.000337498
-5.57275e-05
0.000364241
-2.67424e-05
0.000361431
2.80915e-06
0.000330567
3.08644e-05
0.000273189
5.73781e-05
0.000193455
7.97341e-05
9.63259e-05
9.71289e-05
-1.33038e-05
0.00010963
-0.000131824
0.00011852
-0.000256477
0.000124654
-0.000385288
0.00012881
-0.000516601
0.000131313
-0.000648934
0.000132333
-0.000781082
0.000132149
-0.000912152
0.00013107
-0.00104133
0.000129181
-0.00116765
0.000126317
-0.00128997
0.000122324
-0.00140732
0.000117348
-0.00151924
0.00011192
-0.00162605
0.000106803
-0.0017287
0.000102651
-0.00182832
9.96221e-05
-0.00192553
9.72138e-05
-0.00202009
9.45537e-05
-0.00211106
9.09749e-05
-0.00219749
8.64299e-05
-0.00227897
8.14778e-05
-0.00235594
7.69671e-05
-0.00242969
7.37575e-05
-0.00250212
7.24248e-05
-0.0025752
7.3083e-05
-0.00265015
7.4945e-05
-0.00272715
7.69989e-05
-0.00280483
7.76829e-05
-0.00288019
7.53566e-05
-0.00294884
6.86559e-05
-0.00300655
5.77044e-05
-0.00304805
4.15034e-05
-0.00306843
2.03844e-05
-0.00306261
-5.82019e-06
-0.00302862
-3.39928e-05
-0.0029638
-6.48173e-05
-0.0028658
-9.80042e-05
-0.00273296
-0.000132835
-0.00256445
-0.000168516
-0.00236025
-0.000204197
-0.00212118
-0.000239073
-0.00184876
-0.000272421
-0.00154511
-0.00030365
-0.0012128
-0.000332311
-0.000854746
-0.00035805
-0.00047419
-0.000380556
-7.45908e-05
-0.000399599
0.000340544
-0.000415134
0.000767991
-0.000427447
0.00120518
-0.000437186
0.00165037
-0.000445195
0.00210273
-0.000452353
0.00256207
-0.000459349
0.0030285
-0.000466424
0.00350187
-0.000473374
0.00398157
-0.000479697
0.00446636
-0.000484787
0.00495473
-0.000488372
0.00544521
-0.000490479
0.00593655
-0.000491341
0.0064276
-0.000491047
0.00691697
-0.000489376
0.00740261
-0.000485642
0.00788131
-0.000478701
0.00834859
-0.000467275
0.00879903
-0.000450438
0.00922725
-0.000428224
0.00962946
-0.000402208
0.0100039
-0.000374453
0.0103522
-0.00034825
0.0106801
-0.000327953
0.0109964
-0.000316309
0.0113111
-0.0003147
0.0116331
-0.000322014
0.0119684
-0.000335308
0.0123192
-0.000350795
0.0126841
-0.000364887
0.0130589
-0.000374809
0.0134388
-0.000379905
0.0138177
-0.000378817
0.0141887
-0.000371076
0.0145458
-0.000357024
0.0148826
-0.000336831
0.0151941
-0.000311554
0.0154774
-0.000283257
0.0157307
-0.000253252
0.0159566
-0.000225971
0.0161584
-0.00020182
0.0163378
-0.000179378
0.0164941
-0.000156285
0.0166246
-0.000130539
0.016727
-0.000102363
0.0168018
-7.48347e-05
0.0168542
-5.23923e-05
0.0168914
-3.72028e-05
0.0169168
-2.5337e-05
0.0169149
1.86951e-06
0.0168518
6.31173e-05
0.0167041
0.000147687
0.0164688
0.000235258
0.0161721
0.000296718
0.0158556
0.000316563
0.0155619
0.000293651
0.0153211
0.000240801
0.0151401
0.000180996
0.0150068
0.000133355
0.0149046
0.000102198
0.01482
8.45189e-05
0.014736
8.40303e-05
0.0146339
0.000102115
0.0144962
0.000137676
0.01431
0.000186258
0.0140706
0.000239361
0.0137811
0.000289461
0.0134498
0.000331387
0.0130872
0.000362547
0.0127047
0.000382513
0.0123118
0.00039288
0.0119154
0.000396447
0.0115193
0.000396053
0.011125
0.000394276
0.0107317
0.000393296
0.0103371
0.000394663
0.00993798
0.000399103
0.00953118
0.000406793
0.00911378
0.000417404
0.00868352
0.000430256
0.00823913
0.000444397
0.00777988
0.000459244
0.00730644
0.000473446
0.00682014
0.000486296
0.00632301
0.00049713
0.00581753
0.000505484
0.0053065
0.000511024
0.00479291
0.000513586
0.00427965
0.000513269
0.00376938
0.000510266
0.00326454
0.000504842
0.00276719
0.00049735
0.00227899
0.000488196
0.00180119
0.000477805
0.00133449
0.000466695
0.000879095
0.000455395
0.000434624
0.000444471
2.046e-07
0.000434419
-0.000425442
0.000425647
-0.000843805
0.000418363
-0.0012561
0.000412296
-0.00166303
0.000406928
-0.00206481
0.00040178
-0.00246117
0.000396363
-0.00285148
0.00039031
-0.00323478
0.000383296
-0.00360982
0.000375039
-0.00397516
0.000365339
-0.00432877
0.00035361
-0.00466792
0.00033916
-0.00499045
0.000322528
-0.00529418
0.000303724
-0.00557841
0.000284231
-0.00584524
0.000266828
-0.00610028
0.000255043
-0.00635255
0.000252275
-0.0066133
0.000260747
-0.00689381
0.000280514
-0.00720256
0.000308746
-0.00754235
0.000339788
-0.00790788
0.000365531
-0.00828533
0.000377452
-0.00865474
0.000369412
-0.00899421
0.000339468
-0.00928502
0.000290813
-0.00951562
0.000230595
-0.00968288
0.00016726
-0.0097909
0.000108019
-0.00984859
5.76896e-05
-0.00986851
1.99264e-05
-0.00986624
-2.27457e-06
-0.00985895
-7.28823e-06
-0.00986672
7.76844e-06
-0.00990698
4.02613e-05
-0.00999556
8.85759e-05
-0.0101407
0.000145107
-0.0103423
0.000201669
-0.0105946
0.00025223
-0.0108894
0.000294877
-0.0112246
0.000335127
-0.0116037
0.000379154
-0.0120325
0.000428768
-0.0125139
0.000481399
-0.0130444
0.000530536
-0.0136143
0.000569861
-0.0142102
0.000595948
-0.0148187
0.000608443
-0.0154282
0.000609495
-0.0160304
0.000602226
-0.0166205
0.0005901
-0.0171979
0.000577412
-0.017765
0.000567068
-0.018325
0.000560002
-0.0188801
0.000555086
-0.0194298
0.000549782
-0.0199713
0.000541435
-0.0205
0.000528684
-0.0210123
0.000512295
-0.0215073
0.000495046
-0.0219881
0.000480763
-0.0224612
0.000473088
-0.0229354
0.000474219
-0.0234193
0.000483939
-0.0239191
0.00049976
-0.0244374
0.000518294
-0.0249745
0.00053718
-0.025531
0.000556448
-0.0261096
0.000578556
-0.0267167
0.000607193
-0.0273624
0.00064562
-0.0280574
0.000695069
-0.0288107
0.000753248
-0.0296239
0.000813222
-0.0304881
0.000864243
-0.0313847
0.000896587
-0.0322942
0.000909515
-0.0332103
0.000916075
-0.0341475
0.000937153
-0.035132
0.000984492
-0.0361761
0.00104412
-0.0372552
0.00107913
-0.0383086
0.00105334
-0.0392595
0.000950913
-0.0400548
0.000795349
-0.0406843
0.000629468
-0.0411733
0.000488999
-0.0415617
0.000388379
-0.0418849
0.000323202
-0.0421665
0.000281598
-0.04242
0.000253552
-0.0426535
0.000233513
-0.0428723
0.000218732
-0.0430797
0.000207418
-0.0432779
0.000198164
-0.0434678
0.000189968
-0.04365
0.000182192
-0.0438245
0.000174468
-0.0439911
0.00016662
-0.0441497
0.000158604
-0.0443001
0.000150445
-0.0444423
0.000142197
-0.0445763
0.000133916
-0.0447019
0.00012565
-0.0448193
0.000117424
-0.0449286
0.000109246
-0.0450297
0.000101103
-0.0451226
9.2964e-05
-0.0452074
8.47888e-05
-0.045284
7.65265e-05
-0.0453521
6.81214e-05
-0.0454116
5.95158e-05
-0.0454623
5.06534e-05
-0.0455037
4.14836e-05
-0.0455357
3.19621e-05
-0.0455577
2.20372e-05
-0.0455693
1.1573e-05
-0.0455685
-8.53935e-07
-0.0455555
-1.29558e-05
-0.0455292
-2.63357e-05
-0.0454893
-3.98808e-05
-0.0454361
-5.32221e-05
-0.0453699
-6.61834e-05
-0.0452912
-7.86924e-05
-0.0452005
-9.07091e-05
-0.0450981
-0.000102356
-0.0449846
-0.000113535
-0.0448603
-0.000124279
-0.0447257
-0.000134646
-0.044581
-0.000144669
-0.0444266
-0.000154373
-0.0442628
-0.00016378
-0.0440899
-0.000172903
-0.0439082
-0.000181741
-0.0437179
-0.000190299
-0.0435193
-0.000198572
-0.0433128
-0.000206554
-0.0430985
-0.000214236
-0.0428769
-0.000221602
-0.0426483
-0.000228636
-0.042413
-0.000235328
-0.0421713
-0.000241665
-0.0419237
-0.000247631
-0.0416705
-0.00025321
-0.0414121
-0.000258393
-0.0411489
-0.000263164
-0.0408814
-0.000267514
-0.04061
-0.000271431
-0.0403351
-0.000274909
-0.0400571
-0.000277941
-0.0397766
-0.000280523
-0.0394939
-0.000282645
-0.0392096
-0.000284295
-0.0389242
-0.000285463
-0.0386381
-0.000286135
-0.0383518
-0.000286291
-0.0380659
-0.000285909
-0.0377809
-0.000284963
-0.0374975
-0.000283421
-0.0372162
-0.000281251
-0.0369378
-0.000278423
-0.0366629
-0.000274914
-0.0363922
-0.000270713
-0.0361264
-0.000265815
-0.0358661
-0.000260227
-0.0356121
-0.000253982
-0.035365
-0.000247101
-0.0351254
-0.000239624
-0.0348938
-0.000231587
-0.0346708
-0.000223034
-0.0344568
-0.000214006
-0.0342522
-0.00020455
-0.0340575
-0.000194703
-0.033873
-0.000184502
-0.0336991
-0.000173976
-0.0335359
-0.000163146
-0.0333839
-0.000152028
-0.0332433
-0.000140629
-0.0331143
-0.000128954
-0.0329973
-0.000117003
-0.0328925
-0.000104778
-0.0328002
-9.22907e-05
-0.0327207
-7.95732e-05
-0.032654
-6.66857e-05
-0.0326002
-5.37336e-05
-0.0325594
-4.08823e-05
-0.032531
-2.83976e-05
-0.0325143
-1.66953e-05
-0.0325086
-5.6296e-06
-0.032514
5.40476e-06
-0.0325304
1.64088e-05
-0.032558
2.75752e-05
-0.0325965
3.84716e-05
-0.0326461
4.95801e-05
-0.0327077
6.1609e-05
-0.0327821
7.43899e-05
-0.0328681
8.60713e-05
-0.0329593
9.11681e-05
-0.0330466
8.73292e-05
-0.0331241
7.74939e-05
-0.0331936
6.94852e-05
-0.0332628
6.92199e-05
-0.0333386
7.57908e-05
-0.0334245
8.58358e-05
-0.0335213
9.68055e-05
-0.033629
0.000107695
-0.0337469
0.000117974
-0.0338742
0.000127259
-0.0340096
0.00013537
-0.034152
0.000142469
-0.0343012
0.000149159
-0.0344577
0.000156485
-0.0346235
0.00016583
-0.0348022
0.000178686
-0.0349984
0.000196205
-0.0352168
0.000218406
-0.0354599
0.000243124
-0.0357252
0.000265229
-0.0360026
0.000277467
-0.0362769
0.0002743
-0.0365281
0.000251213
-0.0367413
0.000213199
-0.0369143
0.000172933
-0.0370568
0.000142482
-0.0371834
0.000126599
-0.0373065
0.000123117
-0.037433
0.000126532
-0.0375666
0.000133619
-0.0377063
0.0001397
-0.037848
0.000141634
-0.0379862
0.000138258
-0.0381152
0.000128995
-0.0382297
0.000114493
-0.0383253
9.56143e-05
-0.0383977
7.24321e-05
-0.0384419
4.4129e-05
-0.0384524
1.05689e-05
-0.0384307
-2.17744e-05
-0.0383787
-5.19283e-05
-0.0383001
-7.86189e-05
-0.0381998
-0.000100285
-0.0380845
-0.00011537
-0.0379615
-0.000122965
-0.0378382
-0.000123348
-0.0377203
-0.000117905
-0.0376115
-0.000108772
-0.0375131
-9.83307e-05
-0.0374244
-8.8732e-05
-0.0373429
-8.15294e-05
-0.0372653
-7.75528e-05
-0.0371884
-7.6942e-05
-0.0371091
-7.93295e-05
-0.037025
-8.40963e-05
-0.0369344
-9.05451e-05
-0.0368364
-9.80319e-05
-0.0367303
-0.000106043
-0.0366162
-0.00011417
-0.0364941
-0.000122127
-0.0363643
-0.000129758
-0.0362273
-0.000137024
-0.0360833
-0.00014398
-0.0359325
-0.000150746
-0.0357751
-0.000157465
-0.0356108
-0.000164274
-0.0354395
-0.000171292
-0.0352609
-0.0001786
-0.0350746
-0.000186266
-0.0348803
-0.000194367
-0.0346773
-0.000203002
-0.034465
-0.000212306
-0.0342425
-0.000222441
-0.0340089
-0.000233594
-0.033763
-0.000245951
-0.0335033
-0.000259688
-0.0332284
-0.000274947
-0.0329365
-0.000291831
-0.0326261
-0.000310393
-0.0322955
-0.000330637
-0.031943
-0.000352514
-0.031567
-0.000375927
-0.0311663
-0.000400738
-0.0307395
-0.000426775
-0.0302857
-0.000453828
-0.029804
-0.000481659
-0.029294
-0.000510003
-0.0287555
-0.00053857
-0.0281884
-0.000567054
-0.0275933
-0.00059514
-0.0269708
-0.000622519
-0.0263219
-0.00064889
-0.0256479
-0.00067397
-0.0249504
-0.000697504
-0.0242311
-0.000719266
-0.0234921
-0.000739066
-0.0227353
-0.000756757
-0.0219631
-0.000772229
-0.0211777
-0.000785411
-0.0203814
-0.000796263
-0.0195766
-0.000804764
-0.0187657
-0.000810903
-0.0179511
-0.000814668
-0.017135
-0.000816035
-0.0163201
-0.000814968
-0.0155087
-0.000811419
-0.0147033
-0.000805335
-0.0139067
-0.000796666
-0.0131213
-0.000785366
-0.0123499
-0.000771391
-0.0115952
-0.000754705
-0.0108599
-0.000735281
-0.0101468
-0.000713112
-0.00945857
-0.00068823
-0.0087978
-0.000660762
-0.0081668
-0.000631005
-0.0075675
-0.0005993
-0.00700153
-0.000565965
-0.00647
-0.000531538
-0.00597335
-0.000496645
-0.00551184
-0.000461509
-0.00508492
-0.000426926
-0.00469153
-0.000393381
-0.00433019
-0.000361345
-0.00399891
-0.000331276
-0.00369543
-0.000303487
-0.00341713
-0.000278295
-0.00316111
-0.000256026
-0.00292378
-0.000237329
-0.00270244
-0.000221341
-0.00249414
-0.000208291
-0.00229531
-0.000198837
-0.00210167
-0.000193633
-0.00190856
-0.000193111
-0.0017105
-0.000198062
-0.00150059
-0.000209909
-0.00127132
-0.000229271
-0.00101552
-0.0002558
-0.000718543
-0.000296979
-0.000367084
-0.000351459
-5.25784e-05
-0.000314505
-5.25784e-05
-0.000639269
0.000741799
-0.0012196
0.000595369
-0.00178089
0.000516596
-0.00233136
0.000467725
-0.00289551
0.000466101
-0.00348721
0.000496992
-0.00410898
0.000542626
-0.00475765
0.000592942
-0.00542425
0.000639855
-0.00609882
0.000677385
-0.00677056
0.000702599
-0.00742843
0.000715253
-0.00806463
0.00071593
-0.00867417
0.000706672
-0.00925501
0.000690472
-0.00980711
0.000670622
-0.010332
0.000649503
-0.0108313
0.000628162
-0.0113063
0.000606289
-0.0117567
0.000582774
-0.0121811
0.000556484
-0.0125769
0.000526889
-0.0129422
0.000494454
-0.0132767
0.000460875
-0.0135836
0.000429168
-0.0138696
0.000403354
-0.014145
0.000387356
-0.0144213
0.000383117
-0.0147073
0.000388642
-0.015005
0.000397349
-0.0153077
0.000399861
-0.015601
0.000387915
-0.0158684
0.00035831
-0.0160963
0.000314401
-0.0162789
0.000264078
-0.0164176
0.00021565
-0.0165185
0.000174623
-0.0165884
0.000142333
-0.0166325
0.000117173
-0.0166524
9.48591e-05
-0.0166482
7.2809e-05
-0.016619
4.85116e-05
-0.0165641
2.04396e-05
-0.0164818
-1.36384e-05
-0.0163749
-4.91939e-05
-0.0162445
-8.89741e-05
-0.0160925
-0.000131556
-0.0159226
-0.000175786
-0.0157368
-0.000219773
-0.0155393
-0.000262286
-0.015335
-0.000302339
-0.0151284
-0.000339416
-0.0149227
-0.000374193
-0.0147194
-0.000407534
-0.0145181
-0.000440345
-0.0143174
-0.000473166
-0.0141152
-0.000505841
-0.01391
-0.000537495
-0.0137013
-0.000566763
-0.0134896
-0.000592255
-0.013276
-0.000613142
-0.0130616
-0.0006296
-0.0128461
-0.000642932
-0.012628
-0.000655226
-0.0124046
-0.000668664
-0.0121721
-0.00068482
-0.0119272
-0.000704231
-0.0116672
-0.000726417
-0.0113903
-0.00075031
-0.0110952
-0.000774782
-0.010781
-0.000798989
-0.0104469
-0.000822427
-0.0100928
-0.000844616
-0.00971943
-0.000864721
-0.00932909
-0.000881386
-0.00892569
-0.000892779
-0.00851452
-0.000896809
-0.00810181
-0.000891411
-0.00769422
-0.000874867
-0.00729848
-0.000846174
-0.00692116
-0.000805547
-0.00656843
-0.000754937
-0.00624505
-0.000697839
-0.00595393
-0.000639364
-0.00569534
-0.000586546
-0.00546681
-0.000544835
-0.00526402
-0.000517488
-0.0050814
-0.000504643
-0.00491322
-0.000503484
-0.00475484
-0.000509174
-0.00460358
-0.00051615
-0.00445875
-0.000519634
-0.00432147
-0.000517191
-0.00419217
-0.00050811
-0.00406844
-0.000494813
-0.00394315
-0.00048231
-0.00380354
-0.000476446
-0.00363267
-0.000482424
-0.00341331
-0.000502615
-0.00313195
-0.000534612
-0.00278627
-0.000571652
-0.00238553
-0.00060256
-0.00195113
-0.000613772
-0.00151491
-0.000592506
-0.00111394
-0.000531507
-0.000783294
-0.000433012
-0.000549611
-0.000308518
-0.000428409
-0.000173594
-0.000426944
-3.86685e-05
-0.000545684
9.34033e-05
-0.000783989
0.000240174
-0.00114426
0.000423386
-0.00163651
0.000639936
-0.00225792
0.000856669
-0.00297014
0.00100894
-0.00371083
0.00105726
-0.00441212
0.000994937
-0.00502078
0.000849459
-0.0055126
0.000672814
-0.00589428
0.000515037
-0.00619035
0.000398266
-0.00642972
0.00032389
-0.00663154
0.000285853
-0.00680423
0.000274807
-0.00695328
0.000286722
-0.007086
0.000318985
-0.00721284
0.000366198
-0.0073438
0.000420424
-0.00748561
0.000473192
-0.00764086
0.000517796
-0.00780876
0.000550418
-0.0079863
0.000570413
-0.00816939
0.000579542
-0.00835415
0.000580811
-0.00853795
0.000578077
-0.0087199
0.000575246
-0.00890047
0.000575232
-0.0090811
0.000579732
-0.00926369
0.000589384
-0.00945024
0.000603951
-0.00964239
0.000622405
-0.00984132
0.000643333
-0.0100473
0.000665223
-0.0102602
0.000686301
-0.010479
0.000705105
-0.0107024
0.000720607
-0.0109292
0.000732192
-0.0111577
0.00073959
-0.011387
0.000742909
-0.0116166
0.000742786
-0.0118462
0.000739948
-0.0120765
0.000735105
-0.012308
0.000728886
-0.0125416
0.000721775
-0.0127778
0.000714033
-0.0130168
0.000705667
-0.0132578
0.000696408
-0.0134991
0.000685737
-0.0137376
0.000672965
-0.0139694
0.000657413
-0.0141897
0.000638697
-0.0143942
0.000616757
-0.0145794
0.000592086
-0.0147438
0.000566189
-0.0148884
0.000541047
-0.0150173
0.000519112
-0.0151367
0.000502729
-0.0152553
0.000493605
-0.0153825
0.000492591
-0.0155281
0.000499162
-0.0157008
0.000511883
-0.0159075
0.000529282
-0.0161528
0.000549039
-0.0164373
0.000568697
-0.0167565
0.000585985
-0.0171005
0.000599104
-0.0174552
0.000606908
-0.0178034
0.000608947
-0.0181282
0.000605351
-0.0184159
0.000596475
-0.0186589
0.000582732
-0.0188564
0.000563052
-0.0190141
0.000535158
-0.0191415
0.00049679
-0.0192487
0.000446687
-0.0193443
0.000386463
-0.0194337
0.000319994
-0.0195188
0.000252271
-0.0195996
0.000188839
-0.0196778
0.00013596
-0.0197591
0.000101143
-0.0198549
9.36007e-05
-0.0199843
0.000122069
-0.0201695
0.000192951
-0.0204381
0.000308915
-0.0208159
0.000466291
-0.0213211
0.000650395
-0.0219582
0.000838745
-0.0227149
0.00100895
-0.0235682
0.00114809
-0.024489
0.00125596
-0.0254472
0.00133736
-0.0264111
0.00139269
-0.0273441
0.00141437
-0.0282059
0.0013923
-0.0289636
0.00132764
-0.0296006
0.00123295
-0.0301187
0.00112655
-0.0305347
0.00102542
-0.0308728
0.000940343
-0.0311583
0.000875651
-0.0314124
0.000831477
-0.0316507
0.000805313
-0.0318836
0.000792992
-0.032118
0.000789477
-0.032358
0.000789757
-0.0326065
0.000789936
-0.0328661
0.000788272
-0.0331393
0.000785464
-0.0334282
0.000783942
-0.033734
0.000786559
-0.0340562
0.000795343
-0.0343927
0.000810693
-0.0347399
0.000831129
-0.035094
0.000853904
-0.0354521
0.00087636
-0.0358123
0.000897352
-0.0361737
0.000917881
-0.0365357
0.000940535
-0.0368965
0.000968066
-0.0372528
0.00100187
-0.0375986
0.0010409
-0.0379266
0.00108127
-0.03823
0.00111662
-0.0385055
0.00113971
-0.0387541
0.00114519
-0.038976
0.00113139
-0.0391584
0.00109853
-0.0392644
0.00104311
-0.0392338
0.000953933
-0.0390076
0.00081787
-0.0385655
0.000637059
-0.0379501
0.000437942
-0.0372801
0.000280884
-0.0366904
0.000205663
-0.0362693
0.000208421
-0.0360355
0.000255118
-0.0359535
0.000306451
-0.035971
0.000340651
-0.036046
0.000356575
-0.0361539
0.000361527
-0.0362814
0.000360982
-0.0364196
0.000356914
-0.0365622
0.000350015
-0.036705
0.000340972
-0.0368455
0.000330439
-0.0369822
0.0003189
-0.0371144
0.000306716
-0.037242
0.000294158
-0.0373648
0.00028141
-0.0374829
0.000268598
-0.0375965
0.000255814
-0.0377058
0.000243133
-0.0378107
0.000230618
-0.0379116
0.000218332
-0.0380087
0.000206335
-0.0381023
0.000194684
-0.0381928
0.000183422
-0.0382805
0.000172566
-0.0383661
0.000162102
-0.03845
0.000151973
-0.0385325
0.000142084
-0.0386142
0.000132304
-0.0386952
0.000122473
-0.0387756
0.00011242
-0.0388556
0.000101974
-0.038935
9.09751e-05
-0.0390151
7.93081e-05
-0.0390957
6.76179e-05
-0.0391772
5.51548e-05
-0.0392591
4.19806e-05
-0.0393405
2.82349e-05
-0.0394207
1.40109e-05
-0.0394988
-6.00574e-07
-0.039574
-1.54629e-05
-0.0396453
-3.11085e-05
-0.0397117
-4.71041e-05
-0.0397725
-6.34714e-05
-0.0398269
-8.02621e-05
-0.0398741
-9.74525e-05
-0.0399135
-0.000115017
-0.0399443
-0.000132948
-0.039966
-0.000151209
-0.039978
-0.000169752
-0.0399798
-0.000188538
-0.0399708
-0.000207515
-0.0399507
-0.000226631
-0.0399192
-0.000245821
-0.0398757
-0.000265026
-0.0398202
-0.000284179
-0.0397523
-0.000303208
-0.0396719
-0.000322039
-0.039579
-0.000340586
-0.0394734
-0.000358771
-0.0393553
-0.000376506
-0.0392248
-0.000393707
-0.039082
-0.00041029
-0.0389272
-0.000426178
-0.0387609
-0.000441288
-0.0385833
-0.000455539
-0.0383949
-0.000468864
-0.0381964
-0.00048119
-0.0379882
-0.000492461
-0.037771
-0.000502629
-0.0375455
-0.00051165
-0.0373123
-0.000519497
-0.0370721
-0.00052615
-0.0368254
-0.000531603
-0.036573
-0.000535858
-0.0363153
-0.000538922
-0.0360529
-0.000540811
-0.0357863
-0.000541543
-0.0355159
-0.000541116
-0.0352422
-0.00053952
-0.0349657
-0.000536742
-0.0346869
-0.000532762
-0.0344065
-0.000527538
-0.0341251
-0.000521027
-0.0338435
-0.000513176
-0.0335626
-0.000503937
-0.0332833
-0.000493256
-0.0330068
-0.000481092
-0.0327341
-0.000467417
-0.0324664
-0.000452221
-0.0322048
-0.000435517
-0.0319506
-0.000417348
-0.0317049
-0.000397786
-0.0314685
-0.000376945
-0.0312425
-0.000354983
-0.0310274
-0.000332114
-0.0308236
-0.000308603
-0.0306311
-0.000284769
-0.0304497
-0.000260962
-0.0302788
-0.000237549
-0.0301177
-0.00021487
-0.0299654
-0.000193203
-0.0298211
-0.000172719
-0.0296843
-0.000153418
-0.029555
-0.000134962
-0.0294323
-0.000117264
-0.0293154
-0.000100527
-0.0292037
-8.41348e-05
-0.0290978
-6.74309e-05
-0.0289979
-5.02641e-05
-0.0289033
-3.30427e-05
-0.0288125
-1.64009e-05
-0.0287275
1.01726e-06
-0.0286541
1.77945e-05
-0.0286048
3.80751e-05
-0.0285905
6.31639e-05
-0.0286134
9.24046e-05
-0.0286674
0.000123233
-0.0287448
0.000153183
-0.0288404
0.000181434
-0.0289519
0.00020832
-0.0290789
0.000234665
-0.0292218
0.000260922
-0.0293819
0.000287313
-0.0295605
0.00031396
-0.0297588
0.000340743
-0.0299766
0.00036697
-0.0302111
0.000390989
-0.0304554
0.000410157
-0.0306977
0.000421024
-0.0309213
0.000419782
-0.0311058
0.000402891
-0.0312305
0.000367855
-0.0312798
0.000314464
-0.0312487
0.000246403
-0.0311452
0.000170791
-0.0309971
0.000103136
-0.0308382
5.42557e-05
-0.030694
2.8775e-05
-0.0305769
2.53915e-05
-0.0304896
3.92491e-05
-0.0304302
6.37171e-05
-0.0303942
9.05265e-05
-0.0303727
0.000112171
-0.0303567
0.000123686
-0.0303389
0.000123843
-0.0303144
0.000113743
-0.0302814
9.59917e-05
-0.0302401
7.3232e-05
-0.030192
4.7436e-05
-0.0301399
2.04069e-05
-0.0300875
-8.28351e-06
-0.0300389
-3.81001e-05
-0.0299946
-6.6056e-05
-0.029953
-9.34898e-05
-0.0299136
-0.000118076
-0.0298764
-0.000137484
-0.0298409
-0.000150854
-0.0298063
-0.000157532
-0.0297719
-0.000157749
-0.0297373
-0.000152522
-0.0297026
-0.000143493
-0.0296682
-0.000132671
-0.0296348
-0.000122128
-0.0296028
-0.000113592
-0.029572
-0.000108282
-0.0295422
-0.000106774
-0.0295126
-0.000108983
-0.0294823
-0.000114355
-0.0294508
-0.000122059
-0.0294176
-0.000131263
-0.0293822
-0.000141387
-0.0293444
-0.000151951
-0.0293039
-0.000162648
-0.0292604
-0.000173296
-0.0292136
-0.000183802
-0.0291634
-0.000194143
-0.0291098
-0.000204369
-0.0290527
-0.000214604
-0.0289919
-0.000225025
-0.0289274
-0.000235837
-0.0288587
-0.00024724
-0.0287856
-0.000259405
-0.0287075
-0.000272475
-0.0286239
-0.000286578
-0.0285344
-0.000301863
-0.0284383
-0.000318525
-0.028335
-0.000336838
-0.0282238
-0.000357159
-0.0281036
-0.000379922
-0.0279729
-0.000405602
-0.0278301
-0.000434682
-0.0276729
-0.000467592
-0.0274988
-0.000504666
-0.0273053
-0.000546098
-0.0270893
-0.000591911
-0.0268481
-0.00064195
-0.026579
-0.000695886
-0.0262795
-0.000753234
-0.0259478
-0.000813385
-0.0255822
-0.000875632
-0.0251816
-0.000939207
-0.0247453
-0.00100331
-0.0242733
-0.00106714
-0.0237659
-0.00112991
-0.0232239
-0.00119089
-0.0226485
-0.00124939
-0.0220412
-0.00130482
-0.0214038
-0.00135664
-0.0207384
-0.00140442
-0.0200474
-0.00144782
-0.019333
-0.0014866
-0.0185978
-0.00152062
-0.0178443
-0.0015498
-0.0170749
-0.00157416
-0.016292
-0.00159373
-0.0154981
-0.00160856
-0.0146955
-0.00161865
-0.0138865
-0.00162399
-0.0130735
-0.00162446
-0.0122589
-0.0016199
-0.0114454
-0.00161012
-0.0106359
-0.00159488
-0.00983335
-0.00157397
-0.00904084
-0.00154722
-0.00826164
-0.00151448
-0.00749905
-0.0014757
-0.00675638
-0.0014309
-0.00603689
-0.00138026
-0.00534385
-0.00132404
-0.00468043
-0.00126272
-0.0040495
-0.00119689
-0.00345386
-0.00112718
-0.00289599
-0.00105452
-0.00237843
-0.000979071
-0.00190321
-0.000902149
-0.00147189
-0.000824699
-0.00108678
-0.000746453
-0.00074946
-0.000668595
-0.000461114
-0.000591833
-0.00022218
-0.000517229
-3.26756e-05
-0.00044553
0.000107109
-0.000377115
0.000197313
-0.000311545
0.000237941
-0.00024892
0.000231761
-0.000192657
0.000182963
-0.000144835
9.77003e-05
-0.000107848
-1.47046e-05
-8.56566e-05
-0.000142293
-8.23202e-05
-0.000263543
-0.000108021
-0.000336982
-0.000182361
-0.000296606
-0.000337355
-0.000107894
-0.000540171
0.000112675
-0.000535075
6.00967e-05
-0.000794154
0.00153595
-0.00156953
0.00137075
-0.00238716
0.00133423
-0.00322689
0.00130745
-0.00408843
0.00132764
-0.0049689
0.00137747
-0.00585663
0.00143035
-0.0067374
0.00147371
-0.00759633
0.00149878
-0.00842048
0.00150153
-0.00920056
0.00148268
-0.00993126
0.00144596
-0.0106115
0.00139616
-0.0112432
0.00133841
-0.0118303
0.00127756
-0.0123771
0.0012174
-0.0128872
0.00115962
-0.0133627
0.00110361
-0.0138037
0.00104731
-0.0142095
0.000988564
-0.0145794
0.000926442
-0.0149144
0.00086188
-0.0152177
0.000797755
-0.0154953
0.000738454
-0.0157551
0.000688968
-0.0160051
0.000653366
-0.0162504
0.000632628
-0.0164898
0.000622545
-0.0167143
0.000613148
-0.0169081
0.000591111
-0.0170533
0.000545059
-0.0171366
0.000471282
-0.0171547
0.000376377
-0.017115
0.000274649
-0.0170324
0.000181552
-0.0169237
0.000106917
-0.0168023
5.32416e-05
-0.0166762
1.62515e-05
-0.0165497
-9.36741e-06
-0.0164212
-3.36282e-05
-0.0162903
-5.80629e-05
-0.0161561
-8.56945e-05
-0.0160187
-0.000116942
-0.0158807
-0.00015164
-0.015742
-0.000187889
-0.0156052
-0.000225785
-0.0154721
-0.000264647
-0.0153441
-0.000303877
-0.015221
-0.000342816
-0.0151022
-0.000381128
-0.0149853
-0.000419204
-0.0148676
-0.000457117
-0.0147461
-0.000495657
-0.0146181
-0.000535583
-0.014481
-0.00057743
-0.0143335
-0.0006207
-0.0141749
-0.000664369
-0.0140057
-0.000706726
-0.0138262
-0.000746279
-0.0136363
-0.000782181
-0.0134346
-0.000814772
-0.0132187
-0.000845501
-0.0129853
-0.000876407
-0.0127313
-0.000909184
-0.0124555
-0.000944459
-0.0121588
-0.000981537
-0.0118443
-0.00101877
-0.0115163
-0.00105436
-0.0111796
-0.00108708
-0.0108378
-0.00111658
-0.0104937
-0.00114307
-0.0101494
-0.00116671
-0.00980701
-0.001187
-0.00946911
-0.00120262
-0.00913885
-0.00121164
-0.00881947
-0.00121217
-0.00851351
-0.00120276
-0.00822218
-0.00118275
-0.00794485
-0.00115219
-0.00767912
-0.0011119
-0.0074212
-0.00106347
-0.00716668
-0.00100946
-0.00691124
-0.00095328
-0.00665142
-0.000899182
-0.00638594
-0.000852027
-0.00611524
-0.000815537
-0.00584145
-0.000791277
-0.00556804
-0.000778053
-0.00529926
-0.000772266
-0.00503934
-0.000769088
-0.00479151
-0.000763987
-0.00455689
-0.000754252
-0.00433414
-0.000739937
-0.00411852
-0.000723728
-0.0039026
-0.000710739
-0.00367771
-0.000707195
-0.00343578
-0.000718383
-0.00317142
-0.000746782
-0.00288359
-0.000790448
-0.00257589
-0.000842303
-0.0022571
-0.000890447
-0.0019411
-0.000918561
-0.00164806
-0.000906812
-0.00140582
-0.000834745
-0.00125073
-0.000686593
-0.00122491
-0.000458834
-0.00136665
-0.000166778
-0.00169435
0.00015411
-0.00219823
0.000465205
-0.00284082
0.000735993
-0.00355102
0.000950381
-0.00423326
0.00110562
-0.00479751
0.00120419
-0.00518248
0.00124164
-0.00537793
0.00120439
-0.005413
0.00109233
-0.00534575
0.000927685
-0.00524607
0.000749782
-0.00517003
0.000596769
-0.00514314
0.000488145
-0.00516579
0.000420921
-0.0052241
0.0003822
-0.00530525
0.000367002
-0.00540028
0.000369836
-0.00550167
0.00038811
-0.00560289
0.000420204
-0.00569908
0.000462396
-0.00578719
0.000508526
-0.00586645
0.000552458
-0.00593863
0.00058998
-0.00600772
0.0006195
-0.006079
0.000641691
-0.00615802
0.000658564
-0.00624956
0.000672356
-0.00635642
0.000684938
-0.00647971
0.000698536
-0.0066187
0.000714218
-0.00677161
0.000732642
-0.00693567
0.000753446
-0.0071076
0.000775879
-0.00728384
0.000798644
-0.007461
0.000820497
-0.00763615
0.00084037
-0.00780705
0.000857205
-0.0079726
0.000870652
-0.00813273
0.000880737
-0.00828833
0.000887796
-0.00844136
0.000892611
-0.00859447
0.000896023
-0.00875054
0.000898859
-0.0089124
0.000901808
-0.00908258
0.000905286
-0.00926307
0.000909372
-0.00945509
0.000913793
-0.00965897
0.000917915
-0.00987403
0.000920732
-0.0100986
0.00092099
-0.0103302
0.000917347
-0.0105659
0.000908642
-0.0108027
0.000894172
-0.0110382
0.000874251
-0.0112716
0.000850134
-0.0115036
0.000824127
-0.0117372
0.000799759
-0.0119769
0.000780756
-0.0122284
0.000770624
-0.0124977
0.000772024
-0.01279
0.000785856
-0.0131087
0.000811276
-0.013455
0.000845546
-0.0138277
0.000884551
-0.0142211
0.000922695
-0.0146263
0.000954206
-0.0150316
0.000974054
-0.0154246
0.000978947
-0.0157935
0.000968006
-0.0161295
0.000942879
-0.0164279
0.000907316
-0.0166886
0.000866116
-0.0169159
0.000823732
-0.0171162
0.000783079
-0.0172978
0.000744584
-0.0174693
0.000706729
-0.0176394
0.000666844
-0.017815
0.000622302
-0.0180001
0.000571536
-0.0181944
0.000514333
-0.0183938
0.000451634
-0.0185905
0.000385552
-0.0187742
0.000319645
-0.0189331
0.000260121
-0.0190585
0.000218909
-0.019152
0.000215569
-0.0192353
0.000276326
-0.0193526
0.000426219
-0.0195624
0.000676095
-0.0199216
0.00100957
-0.0204658
0.00138296
-0.0211957
0.0017388
-0.0220725
0.00202491
-0.0230244
0.0022079
-0.0239627
0.00227563
-0.0248032
0.00223314
-0.0254866
0.00209783
-0.0259911
0.00189682
-0.0263287
0.00166525
-0.0265366
0.00144078
-0.0266611
0.00125112
-0.0267451
0.00110936
-0.02682
0.00101532
-0.0269056
0.000961182
-0.0270111
0.000937011
-0.0271392
0.000933414
-0.0272886
0.000942425
-0.027457
0.000957809
-0.0276425
0.000975331
-0.0278455
0.000992903
-0.0280675
0.00101028
-0.0283103
0.00102826
-0.0285741
0.00104772
-0.0288564
0.00106888
-0.0291522
0.00109107
-0.0294545
0.00111303
-0.0297568
0.00113342
-0.0300543
0.00115145
-0.0303452
0.00116726
-0.0306298
0.0011819
-0.0309087
0.00119678
-0.0311811
0.00121301
-0.0314437
0.00123058
-0.0316901
0.00124827
-0.0319131
0.00126391
-0.0321068
0.00127498
-0.0322695
0.00127932
-0.0324051
0.00127535
-0.0325213
0.00126134
-0.0326233
0.0012334
-0.0327084
0.00118366
-0.032767
0.00110167
-0.0327944
0.000981335
-0.0328067
0.000830143
-0.0328415
0.000671859
-0.0329451
0.000541543
-0.0331292
0.000465017
-0.0333743
0.000450775
-0.0336541
0.000488266