/*--------------------------------*- C++ -*----------------------------------*\
| =========                 |                                                 |
| \\      /  F ield         | OpenFOAM: The Open Source CFD Toolbox           |
|  \\    /   O peration     | Version:  v2006                                 |
|   \\  /    A nd           | Website:  www.openfoam.com                      |
|    \\/     M anipulation  |                                                 |
\*---------------------------------------------------------------------------*/
FoamFile
{
    version     2.0;
    format      ascii;
    class       volScalarField;
    location    "0";
    object      p;
}
// * * * * * * * * * * * * * * * * * * * * * * * * * * * * * * * * * * * * * //

dimensions      [1 -1 -2 0 0 0 0];


internalField   nonuniform List<scalar> 
20000
(
8.86204e-05
8.90447e-05
8.99647e-05
9.13294e-05
9.31604e-05
9.54529e-05
9.82087e-05
0.000101431
0.000105121
0.000109278
0.000113903
0.000118993
0.00012454
0.000130537
0.000136967
0.000143809
0.000151035
0.000158604
0.000166466
0.000174553
0.00018278
0.000191038
0.000199195
0.000207082
0.000214495
0.000221182
0.000226839
0.000231094
0.000233503
0.000233534
0.000230552
0.000223804
0.000212409
0.000195334
0.000171386
0.000139203
9.72738e-05
4.39578e-05
-2.2462e-05
-0.000103681
-0.000201192
-0.000316005
-0.000448265
-0.000596808
-0.000758685
-0.000928688
-0.00109903
-0.00125955
-0.00139899
-0.00150815
-0.00158532
-0.00163661
-0.00167469
-0.00177816
-0.00194107
-0.00215205
-0.00237997
-0.00258943
-0.00274459
-0.00282097
-0.00280371
-0.00268335
-0.00245069
-0.0020994
-0.0016277
-0.00103829
-0.000340698
0.000445451
0.0012913
0.00216388
0.00303076
0.00386189
0.00462936
0.0053175
0.00589465
0.00635617
0.00669559
0.00691067
0.00700286
0.00697639
0.00683752
0.00659406
0.0062549
0.00582978
0.00532896
0.00476589
0.00418894
0.00351611
0.00279483
0.00203222
0.0012321
0.000393551
-0.000484874
-0.00140875
-0.00237556
-0.00337939
-0.00441024
-0.00544773
-0.00646229
-0.00741664
-0.00826902
-0.00897794
-0.00950729
-0.00983095
-0.00993679
-0.00983018
-0.00953393
-0.00907667
-0.00848858
-0.00782453
-0.00710285
-0.0063467
-0.00558067
-0.00483154
-0.00413289
-0.00351968
-0.00301559
-0.00262219
-0.00231661
-0.00206122
-0.00182141
-0.00157906
-0.00133216
-0.00108661
-0.000850092
-0.00062973
-0.000430796
-0.000256124
-0.000106447
1.8966e-05
0.000121809
0.000204311
0.000268915
0.00031806
0.000354057
0.00037902
0.000394832
0.00040314
0.000405367
0.000402729
0.000396254
0.000386807
0.000375106
0.000361751
0.000347233
0.000331955
0.000316244
0.000300363
0.000284522
0.000268887
0.000253585
0.000238716
0.00022435
0.000210541
0.000197322
0.000184715
0.000172728
0.000161364
0.000150616
0.000140473
0.000130927
0.000121964
0.000113513
0.000105589
9.81662e-05
9.12294e-05
8.47428e-05
7.86851e-05
7.30316e-05
6.77588e-05
6.28439e-05
5.82647e-05
5.40004e-05
5.00308e-05
4.6337e-05
4.29007e-05
3.97046e-05
3.67326e-05
3.39691e-05
3.13996e-05
2.90103e-05
2.67884e-05
2.47217e-05
2.27989e-05
2.10094e-05
1.9343e-05
1.77904e-05
1.63427e-05
1.49915e-05
1.37294e-05
1.25491e-05
1.1444e-05
1.04079e-05
9.43467e-06
8.5189e-06
7.65499e-06
6.83862e-06
6.06338e-06
5.33304e-06
4.61121e-06
8.85782e-05
8.90017e-05
8.99223e-05
9.12877e-05
9.31194e-05
9.54122e-05
9.81678e-05
0.000101389
0.000105079
0.000109237
0.000113862
0.000118952
0.0001245
0.000130498
0.00013693
0.000143775
0.000151004
0.000158579
0.000166446
0.000174541
0.000182778
0.000191049
0.00019922
0.000207126
0.000214562
0.000221277
0.000226967
0.000231263
0.00023372
0.000233809
0.000230894
0.000224227
0.000212925
0.000195958
0.000172131
0.000140085
9.83017e-05
4.51375e-05
-2.11347e-05
-0.000102227
-0.000199658
-0.000314471
-0.000446847
-0.000595666
-0.000758021
-0.00092873
-0.00109997
-0.00126139
-0.0014013
-0.00150995
-0.00158622
-0.00164816
-0.0017292
-0.0018364
-0.00199414
-0.00219617
-0.00241596
-0.00261668
-0.00276265
-0.00283219
-0.00280908
-0.00268311
-0.00244508
-0.00208867
-0.00161218
-0.00101843
-0.000317063
0.000472043
0.00131976
0.00219303
0.00305945
0.00388873
0.00465426
0.00533072
0.00590681
0.00636796
0.00670708
0.00692177
0.00701338
0.00698614
0.00684635
0.00660185
0.00626157
0.00583519
0.00533213
0.00475937
0.00410529
0.00342087
0.00270152
0.00194811
0.00115829
0.000329835
-0.000534472
-0.00144099
-0.00239106
-0.00337836
-0.00439281
-0.00541582
-0.00641886
-0.00736526
-0.00821344
-0.00892161
-0.00945311
-0.00978113
-0.00989299
-0.00979308
-0.00950215
-0.00905402
-0.00848739
-0.00782593
-0.00710375
-0.00634652
-0.00557853
-0.00482672
-0.0041253
-0.00351025
-0.0030061
-0.00261457
-0.00231204
-0.00205947
-0.00182127
-0.00157926
-0.00133198
-0.00108581
-0.00084868
-0.000627857
-0.000428665
-0.000253913
-0.000104289
2.09823e-05
0.000123633
0.000205922
0.00027031
0.000319249
0.000355057
0.000379851
0.000395513
0.000403693
0.00040581
0.000403079
0.000396526
0.000387013
0.000375258
0.000361858
0.000347304
0.000331996
0.000316261
0.000300361
0.000284505
0.000268858
0.000253547
0.000238671
0.000224301
0.000210488
0.000197267
0.000184659
0.000172672
0.000161307
0.000150557
0.000140411
0.000130849
0.000121852
0.000113421
0.000105516
9.81064e-05
9.11799e-05
8.47004e-05
7.86481e-05
7.29993e-05
6.77305e-05
6.2819e-05
5.82428e-05
5.39812e-05
5.00139e-05
4.63221e-05
4.28876e-05
3.96931e-05
3.67225e-05
3.39602e-05
3.13917e-05
2.90034e-05
2.67824e-05
2.47165e-05
2.27944e-05
2.10055e-05
1.93397e-05
1.77877e-05
1.63404e-05
1.49898e-05
1.37281e-05
1.25482e-05
1.14435e-05
1.04078e-05
9.43505e-06
8.51976e-06
7.6565e-06
6.84118e-06
6.06539e-06
5.33648e-06
4.60007e-06
8.84959e-05
8.89209e-05
8.98415e-05
9.12058e-05
9.30364e-05
9.53282e-05
9.80832e-05
0.000101305
0.000104994
0.000109153
0.000113778
0.000118869
0.00012442
0.00013042
0.000136856
0.000143707
0.000150943
0.000158527
0.000166407
0.000174517
0.000182773
0.000191069
0.000199271
0.000207214
0.000214695
0.000221466
0.000227223
0.000231599
0.000234154
0.000234357
0.000231579
0.000225071
0.000213956
0.000197204
0.000173622
0.000141846
0.000100356
4.74975e-05
-1.84759e-05
-9.9309e-05
-0.000196572
-0.000311376
-0.000443983
-0.000593355
-0.000756657
-0.000928736
-0.00110172
-0.00126507
-0.00140686
-0.00151691
-0.00159194
-0.0016418
-0.0016986
-0.00179109
-0.0019481
-0.0021599
-0.0023932
-0.00260605
-0.00276421
-0.00284126
-0.00282542
-0.00270629
-0.00247424
-0.00212263
-0.00164946
-0.00105689
-0.000353906
0.000439476
0.00129328
0.00217361
0.00304761
0.00388503
0.00465887
0.00534353
0.0059247
0.00638834
0.00672856
0.00694345
0.00703469
0.00700669
0.00686589
0.00662017
0.0062785
0.00585064
0.00534735
0.0047806
0.00415213
0.00348677
0.00277195
0.00201553
0.00122079
0.00039002
-0.000486996
-0.00140459
-0.00236441
-0.00336539
-0.00439631
-0.00543716
-0.00645827
-0.0074216
-0.0082841
-0.00900274
-0.00953996
-0.00986845
-0.00997531
-0.00986539
-0.0095614
-0.00909927
-0.00851721
-0.00784436
-0.00711289
-0.00634978
-0.0055761
-0.00481801
-0.00411052
-0.00349149
-0.00298709
-0.00259931
-0.00230294
-0.0020561
-0.00182111
-0.00157973
-0.00133165
-0.00108421
-0.000845845
-0.000624098
-0.000424389
-0.00024948
-9.99659e-05
2.50195e-05
0.000127283
0.000209143
0.000273098
0.000321624
0.000357054
0.000381509
0.000396875
0.000404798
0.000406696
0.000403778
0.000397069
0.000387425
0.000375562
0.000362072
0.000347445
0.000332077
0.000316294
0.000300356
0.00028447
0.000268799
0.000253471
0.000238582
0.000224202
0.000210383
0.000197158
0.000184548
0.000172562
0.000161199
0.000150455
0.000140318
0.000130769
0.000121786
0.000113356
0.000105446
9.80416e-05
9.11053e-05
8.46272e-05
7.85766e-05
7.29299e-05
6.76636e-05
6.27548e-05
5.81815e-05
5.39228e-05
4.99585e-05
4.62696e-05
4.28381e-05
3.96464e-05
3.66786e-05
3.3919e-05
3.13531e-05
2.89673e-05
2.67486e-05
2.46849e-05
2.2765e-05
2.09781e-05
1.93142e-05
1.77639e-05
1.63184e-05
1.49693e-05
1.37091e-05
1.25306e-05
1.14272e-05
1.03927e-05
9.42113e-06
8.50689e-06
7.64459e-06
6.83e-06
6.05522e-06
5.32534e-06
4.59173e-06
8.83732e-05
8.87976e-05
8.97173e-05
9.10811e-05
9.29113e-05
9.5203e-05
9.79579e-05
0.000101179
0.000104869
0.000109027
0.000113654
0.000118746
0.000124299
0.000130304
0.000136745
0.000143604
0.000150851
0.000158449
0.000166348
0.000174481
0.000182766
0.000191098
0.000199346
0.000207345
0.000214894
0.000221748
0.000227606
0.000232103
0.000234802
0.000235178
0.000232603
0.000226334
0.000215499
0.000199069
0.000175854
0.000144487
0.000103438
5.10391e-05
-1.44846e-05
-9.49282e-05
-0.000191938
-0.000306726
-0.00043967
-0.000589858
-0.000754583
-0.000928783
-0.00110451
-0.00127078
-0.00141448
-0.00152368
-0.00159441
-0.00164029
-0.00169639
-0.00179491
-0.00195913
-0.00217855
-0.00241883
-0.00263668
-0.00279598
-0.00287424
-0.00285801
-0.00273775
-0.00250367
-0.00214903
-0.00167187
-0.00107391
-0.000363674
0.0004384
0.00130111
0.00218949
0.00307021
0.00391278
0.00468969
0.00537672
0.00595847
0.00642264
0.00676274
0.00697677
0.00706646
0.00703633
0.00689291
0.00664425
0.00629942
0.00586815
0.00536039
0.00478535
0.00414736
0.00346677
0.00274435
0.00198614
0.00119306
0.000362211
-0.000505541
-0.00141495
-0.00236944
-0.00336573
-0.00439329
-0.0054332
-0.00645628
-0.00742421
-0.00829309
-0.00901871
-0.00956218
-0.00989482
-0.0100027
-0.00989058
-0.00958284
-0.00911664
-0.00853004
-0.00785304
-0.0071185
-0.0063504
-0.00557022
-0.00480368
-0.00408748
-0.00346263
-0.00295798
-0.00257609
-0.00228927
-0.00205124
-0.0018211
-0.00158058
-0.00133121
-0.00108181
-0.000841561
-0.000618416
-0.000417936
-0.000242801
-9.346e-05
3.10874e-05
0.000132765
0.000213976
0.000277279
0.000325185
0.000360046
0.000383993
0.000398913
0.000406451
0.00040802
0.000404824
0.00039788
0.00038804
0.000376015
0.000362392
0.000347654
0.000332198
0.000316343
0.000300348
0.000284417
0.000268711
0.000253356
0.000238447
0.000224053
0.000210225
0.000196994
0.000184381
0.000172393
0.000161031
0.000150287
0.000140149
0.000130601
0.000121621
0.000113195
0.000105296
9.7899e-05
9.09774e-05
8.45082e-05
7.84661e-05
7.28273e-05
6.75683e-05
6.26664e-05
5.80994e-05
5.38467e-05
4.9888e-05
4.62043e-05
4.27775e-05
3.95904e-05
3.66267e-05
3.38711e-05
3.13088e-05
2.89263e-05
2.67108e-05
2.46501e-05
2.27329e-05
2.09485e-05
1.9287e-05
1.77389e-05
1.62954e-05
1.49483e-05
1.36898e-05
1.2513e-05
1.14113e-05
1.03783e-05
9.40805e-06
8.49511e-06
7.63401e-06
6.82055e-06
6.04671e-06
5.31773e-06
4.58603e-06
8.82093e-05
8.86332e-05
8.95525e-05
9.0916e-05
9.27457e-05
9.50366e-05
9.77906e-05
0.000101011
0.0001047
0.000108859
0.000113487
0.000118581
0.000124138
0.000130148
0.000136597
0.000143467
0.000150728
0.000158345
0.000166267
0.000174432
0.000182756
0.000191137
0.000199444
0.000207517
0.000215158
0.000222122
0.000228113
0.000232771
0.000235662
0.000236267
0.000233963
0.000228013
0.00021755
0.000201551
0.000178825
0.000148003
0.000107544
5.57625e-05
-9.15228e-06
-8.90609e-05
-0.000185713
-0.000300456
-0.000433831
-0.000585099
-0.000751715
-0.00092871
-0.00110804
-0.00127825
-0.00142528
-0.00153551
-0.00160265
-0.00163892
-0.00168053
-0.00176855
-0.0019312
-0.00215857
-0.00241165
-0.00264338
-0.00281462
-0.00290027
-0.00289009
-0.00277547
-0.00254597
-0.00219433
-0.00171837
-0.00111873
-0.000402749
0.000408762
0.00128289
0.00218309
0.00307537
0.00392881
0.00471521
0.00541021
0.00599751
0.00646499
0.00680647
0.00702043
0.00710899
0.007077
0.00693125
0.00667989
0.00633208
0.00589774
0.00538736
0.00481114
0.00417642
0.00349834
0.00277947
0.00202304
0.00123075
0.000401684
-0.000468565
-0.00138275
-0.00234266
-0.00334713
-0.00438686
-0.00544283
-0.00648495
-0.00747324
-0.00836164
-0.00910365
-0.00965833
-0.00999539
-0.0101
-0.00997764
-0.00965517
-0.00917269
-0.00857018
-0.00788048
-0.00713375
-0.00635566
-0.00556493
-0.00478585
-0.00405707
-0.00342384
-0.00291864
-0.00254479
-0.00227117
-0.00204525
-0.00182158
-0.00158203
-0.00133076
-0.00107862
-0.000835794
-0.000610762
-0.000409259
-0.000233839
-8.47483e-05
3.91995e-05
0.000140082
0.000220421
0.000282849
0.000329925
0.000364027
0.000387296
0.000401623
0.000408648
0.000409778
0.000406211
0.000398955
0.000388855
0.000376614
0.000362814
0.000347931
0.000332357
0.000316407
0.000300335
0.000284344
0.000268592
0.000253202
0.000238266
0.000223854
0.000210013
0.000196774
0.000184158
0.00017217
0.000160811
0.000150074
0.000139944
0.000130405
0.000121436
0.000113018
0.000105126
9.77362e-05
9.08201e-05
8.43574e-05
7.83225e-05
7.26909e-05
6.74391e-05
6.25443e-05
5.79844e-05
5.37384e-05
4.97863e-05
4.61089e-05
4.26883e-05
3.95069e-05
3.65488e-05
3.37984e-05
3.12411e-05
2.88634e-05
2.66522e-05
2.45957e-05
2.26824e-05
2.09017e-05
1.92437e-05
1.76989e-05
1.62584e-05
1.49141e-05
1.36584e-05
1.24842e-05
1.13848e-05
1.0354e-05
9.38588e-06
8.47489e-06
7.6156e-06
6.80381e-06
6.03152e-06
5.30401e-06
4.57411e-06
8.80045e-05
8.84279e-05
8.93466e-05
9.07094e-05
9.25382e-05
9.48281e-05
9.75811e-05
0.000100801
0.00010449
0.000108649
0.000113278
0.000118375
0.000123936
0.000129953
0.000136412
0.000143294
0.000150574
0.000158214
0.000166166
0.000174369
0.000182742
0.000191183
0.000199565
0.00020773
0.000215484
0.000222585
0.000228742
0.0002336
0.000236731
0.000237622
0.000235655
0.000230103
0.000220104
0.000204643
0.000182531
0.000152391
0.000112675
6.16714e-05
-2.47212e-06
-8.16988e-05
-0.000177887
-0.000292555
-0.000426445
-0.000579033
-0.000747996
-0.00092854
-0.00111256
-0.00128801
-0.00143923
-0.00154985
-0.00161081
-0.00163452
-0.00166244
-0.00174547
-0.00191496
-0.00215794
-0.00242963
-0.00267675
-0.00285685
-0.00294767
-0.00294104
-0.00282931
-0.00260113
-0.00224879
-0.00177012
-0.00116462
-0.000438283
0.000387352
0.00127694
0.00219192
0.00309752
0.00396251
0.00475814
0.00546007
0.00605157
0.00652125
0.00686319
0.0070761
0.00716241
0.00712719
0.00697744
0.00672149
0.00636868
0.0059291
0.00541324
0.00483125
0.00419166
0.00350745
0.0027841
0.00202515
0.00123242
0.000404328
-0.000462639
-0.00137345
-0.00233193
-0.00333798
-0.00438321
-0.00544901
-0.00650499
-0.00750992
-0.00841568
-0.00917332
-0.00973963
-0.0100823
-0.010185
-0.0100534
-0.00971728
-0.00922026
-0.00860422
-0.00790245
-0.00714616
-0.00635857
-0.00555636
-0.00476225
-0.00401768
-0.00337378
-0.00286798
-0.00250479
-0.00224862
-0.00203849
-0.00182297
-0.00158432
-0.00133037
-0.00107464
-0.000828485
-0.000601062
-0.000398295
-0.000222547
-7.37977e-05
4.93747e-05
0.000149246
0.00022848
0.000289807
0.00033584
0.00036899
0.000391411
0.000404996
0.000411381
0.000411965
0.000407935
0.000400291
0.000389867
0.000377358
0.000363336
0.000348272
0.000332551
0.000316483
0.000300317
0.000284251
0.000268441
0.000253007
0.000238039
0.000223604
0.000209747
0.0001965
0.000183879
0.00017189
0.000160533
0.000149799
0.000139675
0.000130143
0.000121183
0.000112775
0.000104894
9.75156e-05
9.06129e-05
8.41626e-05
7.81394e-05
7.25192e-05
6.72782e-05
6.23938e-05
5.78437e-05
5.36071e-05
4.96638e-05
4.59948e-05
4.2582e-05
3.94081e-05
3.6457e-05
3.37131e-05
3.1162e-05
2.879e-05
2.65843e-05
2.45328e-05
2.26242e-05
2.08479e-05
1.9194e-05
1.76531e-05
1.62163e-05
1.48754e-05
1.36228e-05
1.24516e-05
1.1355e-05
1.03268e-05
9.36113e-06
8.45242e-06
7.59526e-06
6.78543e-06
6.01501e-06
5.28926e-06
4.56129e-06
8.77587e-05
8.81816e-05
8.90995e-05
9.04615e-05
9.22892e-05
9.4578e-05
9.73298e-05
0.000100549
0.000104237
0.000108397
0.000113027
0.000118127
0.000123694
0.000129718
0.000136189
0.000143087
0.000150387
0.000158055
0.000166043
0.000174291
0.000182722
0.000191235
0.000199707
0.000207982
0.00021587
0.000223136
0.000229491
0.000234587
0.000238005
0.000239237
0.000237674
0.000232597
0.000223154
0.00020834
0.000186964
0.000157646
0.000118824
6.87644e-05
5.56379e-06
-7.28165e-05
-0.000168409
-0.000282943
-0.000417404
-0.000571541
-0.000743313
-0.00092814
-0.00111787
-0.00129977
-0.00145649
-0.00156848
-0.00162295
-0.00163133
-0.00164064
-0.00171311
-0.001886
-0.0021441
-0.00243558
-0.00270127
-0.00289518
-0.00299438
-0.00299409
-0.00288826
-0.0026643
-0.00231386
-0.00183485
-0.00122502
-0.000488302
0.000352999
0.00126049
0.00219309
0.00311518
0.00399512
0.00480336
0.00551507
0.00611321
0.00658672
0.00693
0.00714225
0.00722638
0.00718792
0.00703417
0.00677367
0.00641595
0.00597125
0.00545034
0.00486383
0.0042214
0.00353482
0.0028106
0.00205216
0.00126093
0.000434899
-0.0004308
-0.00134198
-0.0023033
-0.003316
-0.00437318
-0.00545672
-0.00653556
-0.00756648
-0.00849832
-0.00927884
-0.00986171
-0.010212
-0.0103114
-0.0101662
-0.00981004
-0.00929175
-0.00865595
-0.00793719
-0.00716594
-0.00636544
-0.00554838
-0.00473496
-0.00397008
-0.0033123
-0.00280549
-0.00245578
-0.00222182
-0.00203159
-0.00182586
-0.00158778
-0.00133018
-0.00106986
-0.000819563
-0.000589228
-0.000384964
-0.000208865
-6.05692e-05
6.16349e-05
0.000160263
0.000238153
0.000298145
0.000342921
0.000374926
0.000396329
0.000409024
0.000414642
0.000414572
0.00040999
0.000401881
0.00039107
0.00037824
0.000363954
0.000348675
0.000332778
0.000316569
0.00030029
0.000284136
0.000268258
0.000252772
0.000237765
0.000223302
0.000209427
0.000196169
0.000183543
0.000171554
0.000160201
0.000149474
0.00013936
0.000129839
0.000120892
0.000112497
0.000104628
9.72622e-05
9.03719e-05
8.39338e-05
7.79229e-05
7.23147e-05
6.70855e-05
6.22125e-05
5.76735e-05
5.34475e-05
4.95144e-05
4.58551e-05
4.24515e-05
3.92864e-05
3.63435e-05
3.36075e-05
3.10638e-05
2.86988e-05
2.64996e-05
2.44542e-05
2.25514e-05
2.07806e-05
1.91318e-05
1.75956e-05
1.61632e-05
1.48265e-05
1.35779e-05
1.24104e-05
1.13172e-05
1.02923e-05
9.32965e-06
8.42377e-06
7.56926e-06
6.76191e-06
5.99382e-06
5.27027e-06
4.54459e-06
8.7472e-05
8.78943e-05
8.88112e-05
9.01723e-05
9.19988e-05
9.42861e-05
9.70366e-05
0.000100254
0.000103942
0.000108102
0.000112734
0.000117838
0.00012341
0.000129443
0.000135927
0.000142843
0.000150168
0.000157867
0.000165897
0.000174198
0.000182695
0.000191292
0.000199867
0.00020827
0.000216314
0.00022377
0.000230355
0.000235728
0.000239478
0.000241107
0.000240014
0.000235489
0.000226694
0.000212632
0.000192117
0.000163762
0.000125991
7.70457e-05
1.49682e-05
-6.2391e-05
-0.000157247
-0.000271575
-0.000406651
-0.00056254
-0.000737547
-0.000927408
-0.00112401
-0.00131393
-0.00147772
-0.00159176
-0.00163809
-0.00162669
-0.00161256
-0.00167274
-0.00185235
-0.00213221
-0.0024508
-0.00274011
-0.00294904
-0.00305626
-0.00306196
-0.00296194
-0.00274164
-0.00239204
-0.00191139
-0.00129525
-0.000544842
0.000316448
0.00124613
0.00219996
0.00314141
0.00403856
0.00486097
0.00558321
0.0061882
0.00666538
0.0070096
0.00722055
0.00730168
0.00725892
0.00709987
0.00683331
0.00646896
0.0060173
0.00548938
0.00489624
0.00424833
0.00355693
0.00282941
0.00206962
0.00127885
0.000454809
-0.000407977
-0.00131679
-0.00227832
-0.0032957
-0.00436366
-0.00546481
-0.00656741
-0.00762608
-0.00858627
-0.0093919
-0.00999314
-0.0103519
-0.0104475
-0.0102865
-0.00990743
-0.00936563
-0.00870869
-0.00797119
-0.00718513
-0.00637149
-0.00553828
-0.00470219
-0.00391262
-0.00323776
-0.00272965
-0.00239686
-0.00219085
-0.00202523
-0.00183096
-0.00159281
-0.00133031
-0.00106425
-0.000808927
-0.00057514
-0.000369165
-0.000192719
-4.50145e-05
7.60069e-05
0.000173145
0.000249442
0.00030786
0.00035116
0.000381823
0.000402038
0.000413696
0.000418422
0.000417591
0.000412366
0.000403719
0.000392459
0.000379257
0.000364665
0.000349135
0.000333036
0.000316663
0.000300254
0.000283998
0.00026804
0.000252494
0.000237443
0.000222948
0.000209052
0.000195781
0.00018315
0.000171161
0.000159812
0.000149092
0.000138987
0.000129478
0.000120544
0.000112163
0.00010431
9.69595e-05
9.00855e-05
8.36633e-05
7.76679e-05
7.20748e-05
6.68602e-05
6.20011e-05
5.74756e-05
5.32624e-05
4.93415e-05
4.56937e-05
4.23011e-05
3.91463e-05
3.62132e-05
3.34864e-05
3.09513e-05
2.85944e-05
2.64028e-05
2.43645e-05
2.24684e-05
2.07038e-05
1.90608e-05
1.75301e-05
1.61029e-05
1.4771e-05
1.35269e-05
1.23636e-05
1.12744e-05
1.02532e-05
9.29405e-06
8.39141e-06
7.53993e-06
6.73542e-06
5.97001e-06
5.24898e-06
4.52585e-06
8.71445e-05
8.75661e-05
8.84819e-05
8.98418e-05
9.16669e-05
9.39526e-05
9.67014e-05
9.99178e-05
0.000103605
0.000107765
0.000112399
0.000117506
0.000123085
0.000129129
0.000135627
0.000142563
0.000149915
0.000157651
0.000165727
0.000174088
0.000182661
0.000191352
0.000200044
0.000208591
0.000216813
0.000224484
0.00023133
0.000237018
0.000241146
0.000243225
0.000242666
0.000238769
0.000230712
0.000217511
0.000197982
0.000170731
0.000134169
8.65133e-05
2.5749e-05
-5.03965e-05
-0.000144347
-0.000258364
-0.00039406
-0.000551875
-0.000730537
-0.000926202
-0.00113088
-0.00133045
-0.00150315
-0.00162043
-0.00165763
-0.00162229
-0.00157907
-0.00162342
-0.0018104
-0.00211546
-0.0024652
-0.00278149
-0.0030075
-0.00312358
-0.00313632
-0.00304374
-0.00282842
-0.0024806
-0.00199935
-0.00137726
-0.000611758
0.000272413
0.00122755
0.00220557
0.00316918
0.00408628
0.00492529
0.00565992
0.00627311
0.00675479
0.00710027
0.00730988
0.00738769
0.0073402
0.00717538
0.00690231
0.0065309
0.00607189
0.00553663
0.00493665
0.00428312
0.00358727
0.00285706
0.00209673
0.0013074
0.000486216
-0.000373394
-0.00128028
-0.00224307
-0.00326701
-0.0043488
-0.00547198
-0.00660409
-0.0076971
-0.00869232
-0.00952896
-0.010153
-0.0105224
-0.0106134
-0.0104329
-0.0100257
-0.00945532
-0.00877297
-0.00801373
-0.00720916
-0.00638063
-0.00552882
-0.00466545
-0.00384553
-0.00314936
-0.00263932
-0.00232735
-0.00215602
-0.00202045
-0.00183918
-0.00159988
-0.00133088
-0.00105778
-0.000796452
-0.000558656
-0.000350781
-0.000174023
-2.70799e-05
9.25193e-05
0.000187904
0.000262343
0.000318943
0.000360543
0.00038967
0.000408524
0.000419
0.000422708
0.000421012
0.000415056
0.000405796
0.000394026
0.000380401
0.000365462
0.000349649
0.000333319
0.000316762
0.000300206
0.000283834
0.000267786
0.000252172
0.000237071
0.000222541
0.000208622
0.000195337
0.000182699
0.000170711
0.000159367
0.000148656
0.000138563
0.000129069
0.000120151
0.000111787
0.000103951
9.66179e-05
8.97615e-05
8.33567e-05
7.73783e-05
7.18019e-05
6.66034e-05
6.176e-05
5.72494e-05
5.30506e-05
4.91434e-05
4.55087e-05
4.21285e-05
3.89854e-05
3.60634e-05
3.3347e-05
3.08218e-05
2.84741e-05
2.62912e-05
2.42611e-05
2.23726e-05
2.06152e-05
1.89789e-05
1.74545e-05
1.60332e-05
1.47068e-05
1.34679e-05
1.23095e-05
1.12249e-05
1.0208e-05
9.25278e-06
8.35389e-06
7.50591e-06
6.70468e-06
5.94238e-06
5.22426e-06
4.50402e-06
8.67761e-05
8.7197e-05
8.81115e-05
8.94701e-05
9.12935e-05
9.35773e-05
9.63242e-05
9.9539e-05
0.000103225
0.000107385
0.000112021
0.000117133
0.000122719
0.000128773
0.000135287
0.000142246
0.000149629
0.000157404
0.000165532
0.00017396
0.000182616
0.000191412
0.000200235
0.000208943
0.000217362
0.000225274
0.000232412
0.000238451
0.000243001
0.000245584
0.000245622
0.000242429
0.0002352
0.000222965
0.000204547
0.000178544
0.000143352
9.71684e-05
3.79198e-05
-3.68007e-05
-0.000129654
-0.000243232
-0.000379527
-0.000539408
-0.00072211
-0.000924336
-0.00113838
-0.00134952
-0.00153344
-0.00165567
-0.00168263
-0.00161785
-0.00153806
-0.00156244
-0.00175882
-0.00209526
-0.00248329
-0.00283204
-0.00307733
-0.00320223
-0.00322229
-0.00313823
-0.00292837
-0.00258231
-0.00210063
-0.00147198
-0.000688698
0.000222698
0.00120772
0.0022136
0.00320251
0.00414235
0.0050001
0.00574847
0.00637059
0.00685699
0.00720357
0.00741136
0.0074852
0.00743214
0.00726057
0.00697983
0.00660006
0.00613224
0.00558813
0.0049798
0.00431913
0.0036176
0.00288378
0.00212239
0.00133445
0.000516589
-0.000338826
-0.00124238
-0.00220515
-0.00323505
-0.0043312
-0.0054784
-0.00664345
-0.00777529
-0.00881036
-0.00968241
-0.0103325
-0.0107143
-0.0107997
-0.0105958
-0.0101554
-0.00955232
-0.00884171
-0.00805786
-0.0072341
-0.00639061
-0.00551891
-0.0046238
-0.00376735
-0.00304513
-0.00253245
-0.00224603
-0.00211758
-0.00201846
-0.00185164
-0.0016095
-0.00133204
-0.00105038
-0.00078197
-0.000539602
-0.00032967
-0.00015268
-6.70257e-06
0.000111205
0.000204551
0.000276858
0.000331385
0.000371059
0.00039845
0.000415773
0.000424919
0.000427486
0.000424821
0.000418048
0.000408103
0.000395763
0.000381667
0.000366341
0.000350211
0.000333625
0.000316862
0.000300142
0.000283641
0.000267494
0.000251805
0.000236648
0.000222079
0.000208134
0.000194835
0.00018219
0.000170203
0.000158865
0.000148164
0.000138085
0.000128606
0.000119706
0.000111361
0.000103544
9.62312e-05
8.9395e-05
8.30102e-05
7.70514e-05
7.14941e-05
6.63142e-05
6.14886e-05
5.69951e-05
5.28126e-05
4.8921e-05
4.53011e-05
4.19349e-05
3.88051e-05
3.58955e-05
3.31909e-05
3.06768e-05
2.83395e-05
2.61663e-05
2.41454e-05
2.22655e-05
2.05161e-05
1.88874e-05
1.737e-05
1.59553e-05
1.46352e-05
1.34021e-05
1.22491e-05
1.11696e-05
1.01575e-05
9.20679e-06
8.31208e-06
7.46802e-06
6.67045e-06
5.91163e-06
5.19676e-06
4.47973e-06
8.63669e-05
8.6787e-05
8.77002e-05
8.90572e-05
9.08788e-05
9.31604e-05
9.59049e-05
9.91178e-05
0.000102803
0.000106963
0.0001116
0.000116717
0.00012231
0.000128377
0.000134908
0.000141892
0.000149307
0.000157126
0.000165311
0.000173811
0.00018256
0.000191472
0.000200438
0.000209323
0.000217959
0.000226136
0.000233594
0.00024002
0.000245035
0.000248175
0.000248872
0.000246456
0.000240143
0.000228983
0.000211802
0.00018719
0.000153532
0.000109008
5.14895e-05
-2.1574e-05
-0.00011311
-0.00022608
-0.000362912
-0.00052495
-0.000712033
-0.000921579
-0.00114638
-0.00137123
-0.00156914
-0.0016986
-0.00171442
-0.00161393
-0.00148864
-0.00148817
-0.00169625
-0.00207065
-0.00250407
-0.00289039
-0.00315649
-0.00328949
-0.00331715
-0.00324316
-0.00303965
-0.00269574
-0.00221464
-0.00157974
-0.000776438
0.000166417
0.00118561
0.00222271
0.00323983
0.0042052
0.005084
0.00584766
0.00647966
0.00697124
0.00731891
0.00752455
0.00759385
0.00753453
0.00735546
0.00706625
0.00667728
0.00619983
0.00564603
0.00502855
0.00436
0.00365235
0.00291479
0.00215254
0.00136652
0.000552799
-0.000297488
-0.00119689
-0.00215925
-0.00319558
-0.00430788
-0.00548254
-0.00668561
-0.00786256
-0.00894407
-0.0098575
-0.0105383
-0.0109348
-0.0110138
-0.0107819
-0.0103019
-0.00966113
-0.00891861
-0.00810696
-0.00726209
-0.00640356
-0.00551055
-0.00457822
-0.00367766
-0.00292346
-0.00240698
-0.00215168
-0.00207607
-0.0020209
-0.00186969
-0.00162226
-0.0013339
-0.00104193
-0.000765275
-0.000517768
-0.000305673
-0.000128579
1.61826e-05
0.000132097
0.000223096
0.000292981
0.000345172
0.000382689
0.000408145
0.000423767
0.000431438
0.000432743
0.000429005
0.000421329
0.000410629
0.000397661
0.000383047
0.000367294
0.000350817
0.000333949
0.000316959
0.00030006
0.000283418
0.000267162
0.00025139
0.000236173
0.000221562
0.000207589
0.000194273
0.000181623
0.000169636
0.000158305
0.000147617
0.000137552
0.000128092
0.000119212
0.000110888
0.000103094
9.58029e-05
8.8989e-05
8.26263e-05
7.66892e-05
7.1153e-05
6.59934e-05
6.11875e-05
5.67129e-05
5.25485e-05
4.86741e-05
4.50706e-05
4.17198e-05
3.86047e-05
3.5709e-05
3.30174e-05
3.05156e-05
2.81898e-05
2.60275e-05
2.40167e-05
2.21464e-05
2.0406e-05
1.87856e-05
1.72761e-05
1.58687e-05
1.45555e-05
1.33289e-05
1.2182e-05
1.11081e-05
1.01013e-05
9.15558e-06
8.26552e-06
7.42582e-06
6.63235e-06
5.87739e-06
5.16614e-06
4.45267e-06
8.5917e-05
8.63362e-05
8.72478e-05
8.86032e-05
9.04226e-05
9.27016e-05
9.54436e-05
9.86542e-05
0.000102338
0.000106498
0.000111137
0.000116257
0.000121859
0.000127938
0.000134489
0.000141498
0.000148949
0.000156816
0.000165062
0.000173641
0.00018249
0.000191527
0.000200649
0.000209726
0.000218599
0.000227064
0.000234871
0.000241719
0.000247242
0.000250989
0.000252406
0.000250839
0.000245529
0.000235549
0.000219732
0.000196657
0.000164699
0.000122027
6.64682e-05
-4.68162e-06
-9.46449e-05
-0.000206804
-0.000344067
-0.000508308
-0.00070006
-0.000917654
-0.00115465
-0.00139564
-0.00161094
-0.0017508
-0.00175493
-0.00161113
-0.00142903
-0.00139754
-0.00162028
-0.00204078
-0.00252838
-0.0029586
-0.00324711
-0.00338685
-0.00342219
-0.00336015
-0.00316377
-0.00282217
-0.00234285
-0.00170217
-0.000876095
0.000103391
0.00116175
0.00223377
0.00328223
0.00427617
0.00517839
0.00595878
0.00660146
0.00709849
0.00744707
0.00765005
0.00771413
0.00764777
0.00746029
0.00716161
0.00676232
0.00627398
0.00570917
0.00508121
0.00440353
0.00368876
0.00294684
0.00218349
0.00139969
0.000590903
-0.000253052
-0.00114687
-0.00210756
-0.0031498
-0.00427913
-0.00548395
-0.00672967
-0.0079578
-0.00909229
-0.0100531
-0.0107692
-0.011183
-0.0112542
-0.0109888
-0.0104622
-0.00977861
-0.00900091
-0.00815851
-0.00729124
-0.00641893
-0.00550408
-0.00452859
-0.00357507
-0.00278184
-0.00226001
-0.00204257
-0.00203209
-0.00202981
-0.00189498
-0.00163881
-0.00133652
-0.0010323
-0.000746104
-0.000492907
-0.000278603
-0.000101591
4.16548e-05
0.000155234
0.000243553
0.000310709
0.000360293
0.000395417
0.000418735
0.000432484
0.000438537
0.000438459
0.00043355
0.000424888
0.000413364
0.000399712
0.000384532
0.000368315
0.000351459
0.000334286
0.00031705
0.000299956
0.000283161
0.000266787
0.000250927
0.000235645
0.000220988
0.000206985
0.000193653
0.000180996
0.000169011
0.000157688
0.000147013
0.000136966
0.000127525
0.000118668
0.000110367
0.000102597
9.5331e-05
8.85418e-05
8.22036e-05
7.62904e-05
7.07775e-05
6.56406e-05
6.08564e-05
5.64027e-05
5.22582e-05
4.84028e-05
4.48173e-05
4.14837e-05
3.83847e-05
3.55042e-05
3.2827e-05
3.03386e-05
2.80256e-05
2.58752e-05
2.38756e-05
2.20157e-05
2.02851e-05
1.8674e-05
1.7173e-05
1.57737e-05
1.44681e-05
1.32486e-05
1.21083e-05
1.10407e-05
1.00397e-05
9.09945e-06
8.2145e-06
7.37959e-06
6.59062e-06
5.8399e-06
5.13261e-06
4.42303e-06
8.54264e-05
8.58446e-05
8.67545e-05
8.8108e-05
8.9925e-05
9.22012e-05
9.49402e-05
9.81482e-05
0.00010183
0.000105989
0.00011063
0.000115755
0.000121365
0.000127458
0.000134028
0.000141066
0.000148555
0.000156472
0.000164784
0.000173447
0.000182404
0.000191575
0.000200864
0.000210149
0.000219277
0.000228053
0.000236237
0.000243539
0.000249611
0.000254016
0.000256212
0.000255564
0.000251341
0.000242647
0.000228322
0.00020693
0.000176839
0.00013622
8.28632e-05
1.39089e-05
-7.41917e-05
-0.000185292
-0.000322829
-0.000489251
-0.000685885
-0.00091221
-0.00116292
-0.00142277
-0.00165949
-0.00181411
-0.00180645
-0.00161026
-0.0013572
-0.00128719
-0.00152854
-0.00200499
-0.00255695
-0.00303812
-0.00335004
-0.00349386