/*--------------------------------*- C++ -*----------------------------------*\
| =========                 |                                                 |
| \\      /  F ield         | OpenFOAM: The Open Source CFD Toolbox           |
|  \\    /   O peration     | Version:  v2006                                 |
|   \\  /    A nd           | Website:  www.openfoam.com                      |
|    \\/     M anipulation  |                                                 |
\*---------------------------------------------------------------------------*/
FoamFile
{
    version     2.0;
    format      ascii;
    class       volVectorField;
    location    "0";
    object      U_new;
}
// * * * * * * * * * * * * * * * * * * * * * * * * * * * * * * * * * * * * * //

dimensions      [0 1 -1 0 0 0 0];


internalField   nonuniform List<vector> 
2500
(
(0.000152 -0.002888 0)
(0.000152 -0.008664 0)
(0.000152 -0.01444 0)
(0.000152 -0.020216 0)
(0.000152 -0.025992 0)
(0.000152 -0.031768 0)
(0.000152 -0.037544 0)
(0.000152 -0.04332 0)
(0.000152 -0.049096 0)
(0.000152 -0.054872 0)
(0.000152 -0.060648 0)
(0.000152 -0.066424 0)
(0.000152 -0.0722 0)
(0.000152 -0.077976 0)
(0.000152 -0.083752 0)
(0.000152 -0.089528 0)
(0.000152 -0.095304 0)
(0.000152 -0.10108 0)
(0.000152 -0.106856 0)
(0.000152 -0.112632 0)
(0.000152 -0.118408 0)
(0.000152 -0.124184 0)
(0.000152 -0.12996 0)
(0.000152 -0.135736 0)
(0.000152 -0.141512 0)
(0.000152 -0.147288 0)
(0.000152 -0.153064 0)
(0.000152 -0.15884 0)
(0.000152 -0.164616 0)
(0.000152 -0.170392 0)
(0.000152 -0.176168 0)
(0.000152 -0.181944 0)
(0.000152 -0.18772 0)
(0.000152 -0.193496 0)
(0.000152 -0.199272 0)
(0.000152 -0.205048 0)
(0.000152 -0.210824 0)
(0.000152 -0.2166 0)
(0.000152 -0.222376 0)
(0.000152 -0.228152 0)
(0.000152 -0.233928 0)
(0.000152 -0.239704 0)
(0.000152 -0.24548 0)
(0.000152 -0.251256 0)
(0.000152 -0.257032 0)
(0.000152 -0.262808 0)
(0.000152 -0.268584 0)
(0.000152 -0.27436 0)
(0.000152 -0.280136 0)
(0.000152 -0.285912 0)
(0.001368 -0.002888 0)
(0.001368 -0.008664 0)
(0.001368 -0.01444 0)
(0.001368 -0.020216 0)
(0.001368 -0.025992 0)
(0.001368 -0.031768 0)
(0.001368 -0.037544 0)
(0.001368 -0.04332 0)
(0.001368 -0.049096 0)
(0.001368 -0.054872 0)
(0.001368 -0.060648 0)
(0.001368 -0.066424 0)
(0.001368 -0.0722 0)
(0.001368 -0.077976 0)
(0.001368 -0.083752 0)
(0.001368 -0.089528 0)
(0.001368 -0.095304 0)
(0.001368 -0.10108 0)
(0.001368 -0.106856 0)
(0.001368 -0.112632 0)
(0.001368 -0.118408 0)
(0.001368 -0.124184 0)
(0.001368 -0.12996 0)
(0.001368 -0.135736 0)
(0.001368 -0.141512 0)
(0.001368 -0.147288 0)
(0.001368 -0.153064 0)
(0.001368 -0.15884 0)
(0.001368 -0.164616 0)
(0.001368 -0.170392 0)
(0.001368 -0.176168 0)
(0.001368 -0.181944 0)
(0.001368 -0.18772 0)
(0.001368 -0.193496 0)
(0.001368 -0.199272 0)
(0.001368 -0.205048 0)
(0.001368 -0.210824 0)
(0.001368 -0.2166 0)
(0.001368 -0.222376 0)
(0.001368 -0.228152 0)
(0.001368 -0.233928 0)
(0.001368 -0.239704 0)
(0.001368 -0.24548 0)
(0.001368 -0.251256 0)
(0.001368 -0.257032 0)
(0.001368 -0.262808 0)
(0.001368 -0.268584 0)
(0.001368 -0.27436 0)
(0.001368 -0.280136 0)
(0.001368 -0.285912 0)
(0.0038 -0.002888 0)
(0.0038 -0.008664 0)
(0.0038 -0.01444 0)
(0.0038 -0.020216 0)
(0.0038 -0.025992 0)
(0.0038 -0.031768 0)
(0.0038 -0.037544 0)
(0.0038 -0.04332 0)
(0.0038 -0.049096 0)
(0.0038 -0.054872 0)
(0.0038 -0.060648 0)
(0.0038 -0.066424 0)
(0.0038 -0.0722 0)
(0.0038 -0.077976 0)
(0.0038 -0.083752 0)
(0.0038 -0.089528 0)
(0.0038 -0.095304 0)
(0.0038 -0.10108 0)
(0.0038 -0.106856 0)
(0.0038 -0.112632 0)
(0.0038 -0.118408 0)
(0.0038 -0.124184 0)
(0.0038 -0.12996 0)
(0.0038 -0.135736 0)
(0.0038 -0.141512 0)
(0.0038 -0.147288 0)
(0.0038 -0.153064 0)
(0.0038 -0.15884 0)
(0.0038 -0.164616 0)
(0.0038 -0.170392 0)
(0.0038 -0.176168 0)
(0.0038 -0.181944 0)
(0.0038 -0.18772 0)
(0.0038 -0.193496 0)
(0.0038 -0.199272 0)
(0.0038 -0.205048 0)
(0.0038 -0.210824 0)
(0.0038 -0.2166 0)
(0.0038 -0.222376 0)
(0.0038 -0.228152 0)
(0.0038 -0.233928 0)
(0.0038 -0.239704 0)
(0.0038 -0.24548 0)
(0.0038 -0.251256 0)
(0.0038 -0.257032 0)
(0.0038 -0.262808 0)
(0.0038 -0.268584 0)
(0.0038 -0.27436 0)
(0.0038 -0.280136 0)
(0.0038 -0.285912 0)
(0.007448 -0.002888 0)
(0.007448 -0.008664 0)
(0.007448 -0.01444 0)
(0.007448 -0.020216 0)
(0.007448 -0.025992 0)
(0.007448 -0.031768 0)
(0.007448 -0.037544 0)
(0.007448 -0.04332 0)
(0.007448 -0.049096 0)
(0.007448 -0.054872 0)
(0.007448 -0.060648 0)
(0.007448 -0.066424 0)
(0.007448 -0.0722 0)
(0.007448 -0.077976 0)
(0.007448 -0.083752 0)
(0.007448 -0.089528 0)
(0.007448 -0.095304 0)
(0.007448 -0.10108 0)
(0.007448 -0.106856 0)
(0.007448 -0.112632 0)
(0.007448 -0.118408 0)
(0.007448 -0.124184 0)
(0.007448 -0.12996 0)
(0.007448 -0.135736 0)
(0.007448 -0.141512 0)
(0.007448 -0.147288 0)
(0.007448 -0.153064 0)
(0.007448 -0.15884 0)
(0.007448 -0.164616 0)
(0.007448 -0.170392 0)
(0.007448 -0.176168 0)
(0.007448 -0.181944 0)
(0.007448 -0.18772 0)
(0.007448 -0.193496 0)
(0.007448 -0.199272 0)
(0.007448 -0.205048 0)
(0.007448 -0.210824 0)
(0.007448 -0.2166 0)
(0.007448 -0.222376 0)
(0.007448 -0.228152 0)
(0.007448 -0.233928 0)
(0.007448 -0.239704 0)
(0.007448 -0.24548 0)
(0.007448 -0.251256 0)
(0.007448 -0.257032 0)
(0.007448 -0.262808 0)
(0.007448 -0.268584 0)
(0.007448 -0.27436 0)
(0.007448 -0.280136 0)
(0.007448 -0.285912 0)
(0.012312 -0.002888 0)
(0.012312 -0.008664 0)
(0.012312 -0.01444 0)
(0.012312 -0.020216 0)
(0.012312 -0.025992 0)
(0.012312 -0.031768 0)
(0.012312 -0.037544 0)
(0.012312 -0.04332 0)
(0.012312 -0.049096 0)
(0.012312 -0.054872 0)
(0.012312 -0.060648 0)
(0.012312 -0.066424 0)
(0.012312 -0.0722 0)
(0.012312 -0.077976 0)
(0.012312 -0.083752 0)
(0.012312 -0.089528 0)
(0.012312 -0.095304 0)
(0.012312 -0.10108 0)
(0.012312 -0.106856 0)
(0.012312 -0.112632 0)
(0.012312 -0.118408 0)
(0.012312 -0.124184 0)
(0.012312 -0.12996 0)
(0.012312 -0.135736 0)
(0.012312 -0.141512 0)
(0.012312 -0.147288 0)
(0.012312 -0.153064 0)
(0.012312 -0.15884 0)
(0.012312 -0.164616 0)
(0.012312 -0.170392 0)
(0.012312 -0.176168 0)
(0.012312 -0.181944 0)
(0.012312 -0.18772 0)
(0.012312 -0.193496 0)
(0.012312 -0.199272 0)
(0.012312 -0.205048 0)
(0.012312 -0.210824 0)
(0.012312 -0.2166 0)
(0.012312 -0.222376 0)
(0.012312 -0.228152 0)
(0.012312 -0.233928 0)
(0.012312 -0.239704 0)
(0.012312 -0.24548 0)
(0.012312 -0.251256 0)
(0.012312 -0.257032 0)
(0.012312 -0.262808 0)
(0.012312 -0.268584 0)
(0.012312 -0.27436 0)
(0.012312 -0.280136 0)
(0.012312 -0.285912 0)
(0.018392 -0.002888 0)
(0.018392 -0.008664 0)
(0.018392 -0.01444 0)
(0.018392 -0.020216 0)
(0.018392 -0.025992 0)
(0.018392 -0.031768 0)
(0.018392 -0.037544 0)
(0.018392 -0.04332 0)
(0.018392 -0.049096 0)
(0.018392 -0.054872 0)
(0.018392 -0.060648 0)
(0.018392 -0.066424 0)
(0.018392 -0.0722 0)
(0.018392 -0.077976 0)
(0.018392 -0.083752 0)
(0.018392 -0.089528 0)
(0.018392 -0.095304 0)
(0.018392 -0.10108 0)
(0.018392 -0.106856 0)
(0.018392 -0.112632 0)
(0.018392 -0.118408 0)
(0.018392 -0.124184 0)
(0.018392 -0.12996 0)
(0.018392 -0.135736 0)
(0.018392 -0.141512 0)
(0.018392 -0.147288 0)
(0.018392 -0.153064 0)
(0.018392 -0.15884 0)
(0.018392 -0.164616 0)
(0.018392 -0.170392 0)
(0.018392 -0.176168 0)
(0.018392 -0.181944 0)
(0.018392 -0.18772 0)
(0.018392 -0.193496 0)
(0.018392 -0.199272 0)
(0.018392 -0.205048 0)
(0.018392 -0.210824 0)
(0.018392 -0.2166 0)
(0.018392 -0.222376 0)
(0.018392 -0.228152 0)
(0.018392 -0.233928 0)
(0.018392 -0.239704 0)
(0.018392 -0.24548 0)
(0.018392 -0.251256 0)
(0.018392 -0.257032 0)
(0.018392 -0.262808 0)
(0.018392 -0.268584 0)
(0.018392 -0.27436 0)
(0.018392 -0.280136 0)
(0.018392 -0.285912 0)
(0.025688 -0.002888 0)
(0.025688 -0.008664 0)
(0.025688 -0.01444 0)
(0.025688 -0.020216 0)
(0.025688 -0.025992 0)
(0.025688 -0.031768 0)
(0.025688 -0.037544 0)
(0.025688 -0.04332 0)
(0.025688 -0.049096 0)
(0.025688 -0.054872 0)
(0.025688 -0.060648 0)
(0.025688 -0.066424 0)
(0.025688 -0.0722 0)
(0.025688 -0.077976 0)
(0.025688 -0.083752 0)
(0.025688 -0.089528 0)
(0.025688 -0.095304 0)
(0.025688 -0.10108 0)
(0.025688 -0.106856 0)
(0.025688 -0.112632 0)
(0.025688 -0.118408 0)
(0.025688 -0.124184 0)
(0.025688 -0.12996 0)
(0.025688 -0.135736 0)
(0.025688 -0.141512 0)
(0.025688 -0.147288 0)
(0.025688 -0.153064 0)
(0.025688 -0.15884 0)
(0.025688 -0.164616 0)
(0.025688 -0.170392 0)
(0.025688 -0.176168 0)
(0.025688 -0.181944 0)
(0.025688 -0.18772 0)
(0.025688 -0.193496 0)
(0.025688 -0.199272 0)
(0.025688 -0.205048 0)
(0.025688 -0.210824 0)
(0.025688 -0.2166 0)
(0.025688 -0.222376 0)
(0.025688 -0.228152 0)
(0.025688 -0.233928 0)
(0.025688 -0.239704 0)
(0.025688 -0.24548 0)
(0.025688 -0.251256 0)
(0.025688 -0.257032 0)
(0.025688 -0.262808 0)
(0.025688 -0.268584 0)
(0.025688 -0.27436 0)
(0.025688 -0.280136 0)
(0.025688 -0.285912 0)
(0.0342 -0.002888 0)
(0.0342 -0.008664 0)
(0.0342 -0.01444 0)
(0.0342 -0.020216 0)
(0.0342 -0.025992 0)
(0.0342 -0.031768 0)
(0.0342 -0.037544 0)
(0.0342 -0.04332 0)
(0.0342 -0.049096 0)
(0.0342 -0.054872 0)
(0.0342 -0.060648 0)
(0.0342 -0.066424 0)
(0.0342 -0.0722 0)
(0.0342 -0.077976 0)
(0.0342 -0.083752 0)
(0.0342 -0.089528 0)
(0.0342 -0.095304 0)
(0.0342 -0.10108 0)
(0.0342 -0.106856 0)
(0.0342 -0.112632 0)
(0.0342 -0.118408 0)
(0.0342 -0.124184 0)
(0.0342 -0.12996 0)
(0.0342 -0.135736 0)
(0.0342 -0.141512 0)
(0.0342 -0.147288 0)
(0.0342 -0.153064 0)
(0.0342 -0.15884 0)
(0.0342 -0.164616 0)
(0.0342 -0.170392 0)
(0.0342 -0.176168 0)
(0.0342 -0.181944 0)
(0.0342 -0.18772 0)
(0.0342 -0.193496 0)
(0.0342 -0.199272 0)
(0.0342 -0.205048 0)
(0.0342 -0.210824 0)
(0.0342 -0.2166 0)
(0.0342 -0.222376 0)
(0.0342 -0.228152 0)
(0.0342 -0.233928 0)
(0.0342 -0.239704 0)
(0.0342 -0.24548 0)
(0.0342 -0.251256 0)
(0.0342 -0.257032 0)
(0.0342 -0.262808 0)
(0.0342 -0.268584 0)
(0.0342 -0.27436 0)
(0.0342 -0.280136 0)
(0.0342 -0.285912 0)
(0.043928 -0.002888 0)
(0.043928 -0.008664 0)
(0.043928 -0.01444 0)
(0.043928 -0.020216 0)
(0.043928 -0.025992 0)
(0.043928 -0.031768 0)
(0.043928 -0.037544 0)
(0.043928 -0.04332 0)
(0.043928 -0.049096 0)
(0.043928 -0.054872 0)
(0.043928 -0.060648 0)
(0.043928 -0.066424 0)
(0.043928 -0.0722 0)
(0.043928 -0.077976 0)
(0.043928 -0.083752 0)
(0.043928 -0.089528 0)
(0.043928 -0.095304 0)
(0.043928 -0.10108 0)
(0.043928 -0.106856 0)
(0.043928 -0.112632 0)
(0.043928 -0.118408 0)
(0.043928 -0.124184 0)
(0.043928 -0.12996 0)
(0.043928 -0.135736 0)
(0.043928 -0.141512 0)
(0.043928 -0.147288 0)
(0.043928 -0.153064 0)
(0.043928 -0.15884 0)
(0.043928 -0.164616 0)
(0.043928 -0.170392 0)
(0.043928 -0.176168 0)
(0.043928 -0.181944 0)
(0.043928 -0.18772 0)
(0.043928 -0.193496 0)
(0.043928 -0.199272 0)
(0.043928 -0.205048 0)
(0.043928 -0.210824 0)
(0.043928 -0.2166 0)
(0.043928 -0.222376 0)
(0.043928 -0.228152 0)
(0.043928 -0.233928 0)
(0.043928 -0.239704 0)
(0.043928 -0.24548 0)
(0.043928 -0.251256 0)
(0.043928 -0.257032 0)
(0.043928 -0.262808 0)
(0.043928 -0.268584 0)
(0.043928 -0.27436 0)
(0.043928 -0.280136 0)
(0.043928 -0.285912 0)
(0.054872 -0.002888 0)
(0.054872 -0.008664 0)
(0.054872 -0.01444 0)
(0.054872 -0.020216 0)
(0.054872 -0.025992 0)
(0.054872 -0.031768 0)
(0.054872 -0.037544 0)
(0.054872 -0.04332 0)
(0.054872 -0.049096 0)
(0.054872 -0.054872 0)
(0.054872 -0.060648 0)
(0.054872 -0.066424 0)
(0.054872 -0.0722 0)
(0.054872 -0.077976 0)
(0.054872 -0.083752 0)
(0.054872 -0.089528 0)
(0.054872 -0.095304 0)
(0.054872 -0.10108 0)
(0.054872 -0.106856 0)
(0.054872 -0.112632 0)
(0.054872 -0.118408 0)
(0.054872 -0.124184 0)
(0.054872 -0.12996 0)
(0.054872 -0.135736 0)
(0.054872 -0.141512 0)
(0.054872 -0.147288 0)
(0.054872 -0.153064 0)
(0.054872 -0.15884 0)
(0.054872 -0.164616 0)
(0.054872 -0.170392 0)
(0.054872 -0.176168 0)
(0.054872 -0.181944 0)
(0.054872 -0.18772 0)
(0.054872 -0.193496 0)
(0.054872 -0.199272 0)
(0.054872 -0.205048 0)
(0.054872 -0.210824 0)
(0.054872 -0.2166 0)
(0.054872 -0.222376 0)
(0.054872 -0.228152 0)
(0.054872 -0.233928 0)
(0.054872 -0.239704 0)
(0.054872 -0.24548 0)
(0.054872 -0.251256 0)
(0.054872 -0.257032 0)
(0.054872 -0.262808 0)
(0.054872 -0.268584 0)
(0.054872 -0.27436 0)
(0.054872 -0.280136 0)
(0.054872 -0.285912 0)
(0.067032 -0.002888 0)
(0.067032 -0.008664 0)
(0.067032 -0.01444 0)
(0.067032 -0.020216 0)
(0.067032 -0.025992 0)
(0.067032 -0.031768 0)
(0.067032 -0.037544 0)
(0.067032 -0.04332 0)
(0.067032 -0.049096 0)
(0.067032 -0.054872 0)
(0.067032 -0.060648 0)
(0.067032 -0.066424 0)
(0.067032 -0.0722 0)
(0.067032 -0.077976 0)
(0.067032 -0.083752 0)
(0.067032 -0.089528 0)
(0.067032 -0.095304 0)
(0.067032 -0.10108 0)
(0.067032 -0.106856 0)
(0.067032 -0.112632 0)
(0.067032 -0.118408 0)
(0.067032 -0.124184 0)
(0.067032 -0.12996 0)
(0.067032 -0.135736 0)
(0.067032 -0.141512 0)
(0.067032 -0.147288 0)
(0.067032 -0.153064 0)
(0.067032 -0.15884 0)
(0.067032 -0.164616 0)
(0.067032 -0.170392 0)
(0.067032 -0.176168 0)
(0.067032 -0.181944 0)
(0.067032 -0.18772 0)
(0.067032 -0.193496 0)
(0.067032 -0.199272 0)
(0.067032 -0.205048 0)
(0.067032 -0.210824 0)
(0.067032 -0.2166 0)
(0.067032 -0.222376 0)
(0.067032 -0.228152 0)
(0.067032 -0.233928 0)
(0.067032 -0.239704 0)
(0.067032 -0.24548 0)
(0.067032 -0.251256 0)
(0.067032 -0.257032 0)
(0.067032 -0.262808 0)
(0.067032 -0.268584 0)
(0.067032 -0.27436 0)
(0.067032 -0.280136 0)
(0.067032 -0.285912 0)
(0.080408 -0.002888 0)
(0.080408 -0.008664 0)
(0.080408 -0.01444 0)
(0.080408 -0.020216 0)
(0.080408 -0.025992 0)
(0.080408 -0.031768 0)
(0.080408 -0.037544 0)
(0.080408 -0.04332 0)
(0.080408 -0.049096 0)
(0.080408 -0.054872 0)
(0.080408 -0.060648 0)
(0.080408 -0.066424 0)
(0.080408 -0.0722 0)
(0.080408 -0.077976 0)
(0.080408 -0.083752 0)
(0.080408 -0.089528 0)
(0.080408 -0.095304 0)
(0.080408 -0.10108 0)
(0.080408 -0.106856 0)
(0.080408 -0.112632 0)
(0.080408 -0.118408 0)
(0.080408 -0.124184 0)
(0.080408 -0.12996 0)
(0.080408 -0.135736 0)
(0.080408 -0.141512 0)
(0.080408 -0.147288 0)
(0.080408 -0.153064 0)
(0.080408 -0.15884 0)
(0.080408 -0.164616 0)
(0.080408 -0.170392 0)
(0.080408 -0.176168 0)
(0.080408 -0.181944 0)
(0.080408 -0.18772 0)
(0.080408 -0.193496 0)
(0.080408 -0.199272 0)
(0.080408 -0.205048 0)
(0.080408 -0.210824 0)
(0.080408 -0.2166 0)
(0.080408 -0.222376 0)
(0.080408 -0.228152 0)
(0.080408 -0.233928 0)
(0.080408 -0.239704 0)
(0.080408 -0.24548 0)
(0.080408 -0.251256 0)
(0.080408 -0.257032 0)
(0.080408 -0.262808 0)
(0.080408 -0.268584 0)
(0.080408 -0.27436 0)
(0.080408 -0.280136 0)
(0.080408 -0.285912 0)
(0.095 -0.002888 0)
(0.095 -0.008664 0)
(0.095 -0.01444 0)
(0.095 -0.020216 0)
(0.095 -0.025992 0)
(0.095 -0.031768 0)
(0.095 -0.037544 0)
(0.095 -0.04332 0)
(0.095 -0.049096 0)
(0.095 -0.054872 0)
(0.095 -0.060648 0)
(0.095 -0.066424 0)
(0.095 -0.0722 0)
(0.095 -0.077976 0)
(0.095 -0.083752 0)
(0.095 -0.089528 0)
(0.095 -0.095304 0)
(0.095 -0.10108 0)
(0.095 -0.106856 0)
(0.095 -0.112632 0)
(0.095 -0.118408 0)
(0.095 -0.124184 0)
(0.095 -0.12996 0)
(0.095 -0.135736 0)
(0.095 -0.141512 0)
(0.095 -0.147288 0)
(0.095 -0.153064 0)
(0.095 -0.15884 0)
(0.095 -0.164616 0)
(0.095 -0.170392 0)
(0.095 -0.176168 0)
(0.095 -0.181944 0)
(0.095 -0.18772 0)
(0.095 -0.193496 0)
(0.095 -0.199272 0)
(0.095 -0.205048 0)
(0.095 -0.210824 0)
(0.095 -0.2166 0)
(0.095 -0.222376 0)
(0.095 -0.228152 0)
(0.095 -0.233928 0)
(0.095 -0.239704 0)
(0.095 -0.24548 0)
(0.095 -0.251256 0)
(0.095 -0.257032 0)
(0.095 -0.262808 0)
(0.095 -0.268584 0)
(0.095 -0.27436 0)
(0.095 -0.280136 0)
(0.095 -0.285912 0)
(0.110808 -0.002888 0)
(0.110808 -0.008664 0)
(0.110808 -0.01444 0)
(0.110808 -0.020216 0)
(0.110808 -0.025992 0)
(0.110808 -0.031768 0)
(0.110808 -0.037544 0)
(0.110808 -0.04332 0)
(0.110808 -0.049096 0)
(0.110808 -0.054872 0)
(0.110808 -0.060648 0)
(0.110808 -0.066424 0)
(0.110808 -0.0722 0)
(0.110808 -0.077976 0)
(0.110808 -0.083752 0)
(0.110808 -0.089528 0)
(0.110808 -0.095304 0)
(0.110808 -0.10108 0)
(0.110808 -0.106856 0)
(0.110808 -0.112632 0)
(0.110808 -0.118408 0)
(0.110808 -0.124184 0)
(0.110808 -0.12996 0)
(0.110808 -0.135736 0)
(0.110808 -0.141512 0)
(0.110808 -0.147288 0)
(0.110808 -0.153064 0)
(0.110808 -0.15884 0)
(0.110808 -0.164616 0)
(0.110808 -0.170392 0)
(0.110808 -0.176168 0)
(0.110808 -0.181944 0)
(0.110808 -0.18772 0)
(0.110808 -0.193496 0)
(0.110808 -0.199272 0)
(0.110808 -0.205048 0)
(0.110808 -0.210824 0)
(0.110808 -0.2166 0)
(0.110808 -0.222376 0)
(0.110808 -0.228152 0)
(0.110808 -0.233928 0)
(0.110808 -0.239704 0)
(0.110808 -0.24548 0)
(0.110808 -0.251256 0)
(0.110808 -0.257032 0)
(0.110808 -0.262808 0)
(0.110808 -0.268584 0)
(0.110808 -0.27436 0)
(0.110808 -0.280136 0)
(0.110808 -0.285912 0)
(0.127832 -0.002888 0)
(0.127832 -0.008664 0)
(0.127832 -0.01444 0)
(0.127832 -0.020216 0)
(0.127832 -0.025992 0)
(0.127832 -0.031768 0)
(0.127832 -0.037544 0)
(0.127832 -0.04332 0)
(0.127832 -0.049096 0)
(0.127832 -0.054872 0)
(0.127832 -0.060648 0)
(0.127832 -0.066424 0)
(0.127832 -0.0722 0)
(0.127832 -0.077976 0)
(0.127832 -0.083752 0)
(0.127832 -0.089528 0)
(0.127832 -0.095304 0)
(0.127832 -0.10108 0)
(0.127832 -0.106856 0)
(0.127832 -0.112632 0)
(0.127832 -0.118408 0)
(0.127832 -0.124184 0)
(0.127832 -0.12996 0)
(0.127832 -0.135736 0)
(0.127832 -0.141512 0)
(0.127832 -0.147288 0)
(0.127832 -0.153064 0)
(0.127832 -0.15884 0)
(0.127832 -0.164616 0)
(0.127832 -0.170392 0)
(0.127832 -0.176168 0)
(0.127832 -0.181944 0)
(0.127832 -0.18772 0)
(0.127832 -0.193496 0)
(0.127832 -0.199272 0)
(0.127832 -0.205048 0)
(0.127832 -0.210824 0)
(0.127832 -0.2166 0)
(0.127832 -0.222376 0)
(0.127832 -0.228152 0)
(0.127832 -0.233928 0)
(0.127832 -0.239704 0)
(0.127832 -0.24548 0)
(0.127832 -0.251256 0)
(0.127832 -0.257032 0)
(0.127832 -0.262808 0)
(0.127832 -0.268584 0)
(0.127832 -0.27436 0)
(0.127832 -0.280136 0)
(0.127832 -0.285912 0)
(0.146072 -0.002888 0)
(0.146072 -0.008664 0)
(0.146072 -0.01444 0)
(0.146072 -0.020216 0)
(0.146072 -0.025992 0)
(0.146072 -0.031768 0)
(0.146072 -0.037544 0)
(0.146072 -0.04332 0)
(0.146072 -0.049096 0)
(0.146072 -0.054872 0)
(0.146072 -0.060648 0)
(0.146072 -0.066424 0)
(0.146072 -0.0722 0)
(0.146072 -0.077976 0)
(0.146072 -0.083752 0)
(0.146072 -0.089528 0)
(0.146072 -0.095304 0)
(0.146072 -0.10108 0)
(0.146072 -0.106856 0)
(0.146072 -0.112632 0)
(0.146072 -0.118408 0)
(0.146072 -0.124184 0)
(0.146072 -0.12996 0)
(0.146072 -0.135736 0)
(0.146072 -0.141512 0)
(0.146072 -0.147288 0)
(0.146072 -0.153064 0)
(0.146072 -0.15884 0)
(0.146072 -0.164616 0)
(0.146072 -0.170392 0)
(0.146072 -0.176168 0)
(0.146072 -0.181944 0)
(0.146072 -0.18772 0)
(0.146072 -0.193496 0)
(0.146072 -0.199272 0)
(0.146072 -0.205048 0)
(0.146072 -0.210824 0)
(0.146072 -0.2166 0)
(0.146072 -0.222376 0)
(0.146072 -0.228152 0)
(0.146072 -0.233928 0)
(0.146072 -0.239704 0)
(0.146072 -0.24548 0)
(0.146072 -0.251256 0)
(0.146072 -0.257032 0)
(0.146072 -0.262808 0)
(0.146072 -0.268584 0)
(0.146072 -0.27436 0)
(0.146072 -0.280136 0)
(0.146072 -0.285912 0)
(0.165528 -0.002888 0)
(0.165528 -0.008664 0)
(0.165528 -0.01444 0)
(0.165528 -0.020216 0)
(0.165528 -0.025992 0)
(0.165528 -0.031768 0)
(0.165528 -0.037544 0)
(0.165528 -0.04332 0)
(0.165528 -0.049096 0)
(0.165528 -0.054872 0)
(0.165528 -0.060648 0)
(0.165528 -0.066424 0)
(0.165528 -0.0722 0)
(0.165528 -0.077976 0)
(0.165528 -0.083752 0)
(0.165528 -0.089528 0)
(0.165528 -0.095304 0)
(0.165528 -0.10108 0)
(0.165528 -0.106856 0)
(0.165528 -0.112632 0)
(0.165528 -0.118408 0)
(0.165528 -0.124184 0)
(0.165528 -0.12996 0)
(0.165528 -0.135736 0)
(0.165528 -0.141512 0)
(0.165528 -0.147288 0)
(0.165528 -0.153064 0)
(0.165528 -0.15884 0)
(0.165528 -0.164616 0)
(0.165528 -0.170392 0)
(0.165528 -0.176168 0)
(0.165528 -0.181944 0)
(0.165528 -0.18772 0)
(0.165528 -0.193496 0)
(0.165528 -0.199272 0)
(0.165528 -0.205048 0)
(0.165528 -0.210824 0)
(0.165528 -0.2166 0)
(0.165528 -0.222376 0)
(0.165528 -0.228152 0)
(0.165528 -0.233928 0)
(0.165528 -0.239704 0)
(0.165528 -0.24548 0)
(0.165528 -0.251256 0)
(0.165528 -0.257032 0)
(0.165528 -0.262808 0)
(0.165528 -0.268584 0)
(0.165528 -0.27436 0)
(0.165528 -0.280136 0)
(0.165528 -0.285912 0)
(0.1862 -0.002888 0)
(0.1862 -0.008664 0)
(0.1862 -0.01444 0)
(0.1862 -0.020216 0)
(0.1862 -0.025992 0)
(0.1862 -0.031768 0)
(0.1862 -0.037544 0)
(0.1862 -0.04332 0)
(0.1862 -0.049096 0)
(0.1862 -0.054872 0)
(0.1862 -0.060648 0)
(0.1862 -0.066424 0)
(0.1862 -0.0722 0)
(0.1862 -0.077976 0)
(0.1862 -0.083752 0)
(0.1862 -0.089528 0)
(0.1862 -0.095304 0)
(0.1862 -0.10108 0)
(0.1862 -0.106856 0)
(0.1862 -0.112632 0)
(0.1862 -0.118408 0)
(0.1862 -0.124184 0)
(0.1862 -0.12996 0)
(0.1862 -0.135736 0)
(0.1862 -0.141512 0)
(0.1862 -0.147288 0)
(0.1862 -0.153064 0)
(0.1862 -0.15884 0)
(0.1862 -0.164616 0)
(0.1862 -0.170392 0)
(0.1862 -0.176168 0)
(0.1862 -0.181944 0)
(0.1862 -0.18772 0)
(0.1862 -0.193496 0)
(0.1862 -0.199272 0)
(0.1862 -0.205048 0)
(0.1862 -0.210824 0)
(0.1862 -0.2166 0)
(0.1862 -0.222376 0)
(0.1862 -0.228152 0)
(0.1862 -0.233928 0)
(0.1862 -0.239704 0)
(0.1862 -0.24548 0)
(0.1862 -0.251256 0)
(0.1862 -0.257032 0)
(0.1862 -0.262808 0)
(0.1862 -0.268584 0)
(0.1862 -0.27436 0)
(0.1862 -0.280136 0)
(0.1862 -0.285912 0)
(0.208088 -0.002888 0)
(0.208088 -0.008664 0)
(0.208088 -0.01444 0)
(0.208088 -0.020216 0)
(0.208088 -0.025992 0)
(0.208088 -0.031768 0)
(0.208088 -0.037544 0)
(0.208088 -0.04332 0)
(0.208088 -0.049096 0)
(0.208088 -0.054872 0)
(0.208088 -0.060648 0)
(0.208088 -0.066424 0)
(0.208088 -0.0722 0)
(0.208088 -0.077976 0)
(0.208088 -0.083752 0)
(0.208088 -0.089528 0)
(0.208088 -0.095304 0)
(0.208088 -0.10108 0)
(0.208088 -0.106856 0)
(0.208088 -0.112632 0)
(0.208088 -0.118408 0)
(0.208088 -0.124184 0)
(0.208088 -0.12996 0)
(0.208088 -0.135736 0)
(0.208088 -0.141512 0)
(0.208088 -0.147288 0)
(0.208088 -0.153064 0)
(0.208088 -0.15884 0)
(0.208088 -0.164616 0)
(0.208088 -0.170392 0)
(0.208088 -0.176168 0)
(0.208088 -0.181944 0)
(0.208088 -0.18772 0)
(0.208088 -0.193496 0)
(0.208088 -0.199272 0)
(0.208088 -0.205048 0)
(0.208088 -0.210824 0)
(0.208088 -0.2166 0)
(0.208088 -0.222376 0)
(0.208088 -0.228152 0)
(0.208088 -0.233928 0)
(0.208088 -0.239704 0)
(0.208088 -0.24548 0)
(0.208088 -0.251256 0)
(0.208088 -0.257032 0)
(0.208088 -0.262808 0)
(0.208088 -0.268584 0)
(0.208088 -0.27436 0)
(0.208088 -0.280136 0)
(0.208088 -0.285912 0)
(0.231192 -0.002888 0)
(0.231192 -0.008664 0)
(0.231192 -0.01444 0)
(0.231192 -0.020216 0)
(0.231192 -0.025992 0)
(0.231192 -0.031768 0)
(0.231192 -0.037544 0)
(0.231192 -0.04332 0)
(0.231192 -0.049096 0)
(0.231192 -0.054872 0)
(0.231192 -0.060648 0)
(0.231192 -0.066424 0)
(0.231192 -0.0722 0)
(0.231192 -0.077976 0)
(0.231192 -0.083752 0)
(0.231192 -0.089528 0)
(0.231192 -0.095304 0)
(0.231192 -0.10108 0)
(0.231192 -0.106856 0)
(0.231192 -0.112632 0)
(0.231192 -0.118408 0)
(0.231192 -0.124184 0)
(0.231192 -0.12996 0)
(0.231192 -0.135736 0)
(0.231192 -0.141512 0)
(0.231192 -0.147288 0)
(0.231192 -0.153064 0)
(0.231192 -0.15884 0)
(0.231192 -0.164616 0)
(0.231192 -0.170392 0)
(0.231192 -0.176168 0)
(0.231192 -0.181944 0)
(0.231192 -0.18772 0)
(0.231192 -0.193496 0)
(0.231192 -0.199272 0)
(0.231192 -0.205048 0)
(0.231192 -0.210824 0)
(0.231192 -0.2166 0)
(0.231192 -0.222376 0)
(0.231192 -0.228152 0)
(0.231192 -0.233928 0)
(0.231192 -0.239704 0)
(0.231192 -0.24548 0)
(0.231192 -0.251256 0)
(0.231192 -0.257032 0)
(0.231192 -0.262808 0)
(0.231192 -0.268584 0)
(0.231192 -0.27436 0)
(0.231192 -0.280136 0)
(0.231192 -0.285912 0)
(0.255512 -0.002888 0)
(0.255512 -0.008664 0)
(0.255512 -0.01444 0)
(0.255512 -0.020216 0)
(0.255512 -0.025992 0)
(0.255512 -0.031768 0)
(0.255512 -0.037544 0)
(0.255512 -0.04332 0)
(0.255512 -0.049096 0)
(0.255512 -0.054872 0)
(0.255512 -0.060648 0)
(0.255512 -0.066424 0)
(0.255512 -0.0722 0)
(0.255512 -0.077976 0)
(0.255512 -0.083752 0)
(0.255512 -0.089528 0)
(0.255512 -0.095304 0)
(0.255512 -0.10108 0)
(0.255512 -0.106856 0)
(0.255512 -0.112632 0)
(0.255512 -0.118408 0)
(0.255512 -0.124184 0)
(0.255512 -0.12996 0)
(0.255512 -0.135736 0)
(0.255512 -0.141512 0)
(0.255512 -0.147288 0)
(0.255512 -0.153064 0)
(0.255512 -0.15884 0)
(0.255512 -0.164616 0)
(0.255512 -0.170392 0)
(0.255512 -0.176168 0)
(0.255512 -0.181944 0)
(0.255512 -0.18772 0)
(0.255512 -0.193496 0)
(0.255512 -0.199272 0)
(0.255512 -0.205048 0)
(0.255512 -0.210824 0)
(0.255512 -0.2166 0)
(0.255512 -0.222376 0)
(0.255512 -0.228152 0)
(0.255512 -0.233928 0)
(0.255512 -0.239704 0)
(0.255512 -0.24548 0)
(0.255512 -0.251256 0)
(0.255512 -0.257032 0)
(0.255512 -0.262808 0)
(0.255512 -0.268584 0)
(0.255512 -0.27436 0)
(0.255512 -0.280136 0)
(0.255512 -0.285912 0)
(0.281048 -0.002888 0)
(0.281048 -0.008664 0)
(0.281048 -0.01444 0)
(0.281048 -0.020216 0)
(0.281048 -0.025992 0)
(0.281048 -0.031768 0)
(0.281048 -0.037544 0)
(0.281048 -0.04332 0)
(0.281048 -0.049096 0)
(0.281048 -0.054872 0)
(0.281048 -0.060648 0)
(0.281048 -0.066424 0)
(0.281048 -0.0722 0)
(0.281048 -0.077976 0)
(0.281048 -0.083752 0)
(0.281048 -0.089528 0)
(0.281048 -0.095304 0)
(0.281048 -0.10108 0)
(0.281048 -0.106856 0)
(0.281048 -0.112632 0)
(0.281048 -0.118408 0)
(0.281048 -0.124184 0)
(0.281048 -0.12996 0)
(0.281048 -0.135736 0)
(0.281048 -0.141512 0)
(0.281048 -0.147288 0)
(0.281048 -0.153064 0)
(0.281048 -0.15884 0)
(0.281048 -0.164616 0)
(0.281048 -0.170392 0)
(0.281048 -0.176168 0)
(0.281048 -0.181944 0)
(0.281048 -0.18772 0)
(0.281048 -0.193496 0)
(0.281048 -0.199272 0)
(0.281048 -0.205048 0)
(0.281048 -0.210824 0)
(0.281048 -0.2166 0)
(0.281048 -0.222376 0)
(0.281048 -0.228152 0)
(0.281048 -0.233928 0)
(0.281048 -0.239704 0)
(0.281048 -0.24548 0)
(0.281048 -0.251256 0)
(0.281048 -0.257032 0)
(0.281048 -0.262808 0)
(0.281048 -0.268584 0)
(0.281048 -0.27436 0)
(0.281048 -0.280136 0)
(0.281048 -0.285912 0)
(0.3078 -0.002888 0)
(0.3078 -0.008664 0)
(0.3078 -0.01444 0)
(0.3078 -0.020216 0)
(0.3078 -0.025992 0)
(0.3078 -0.031768 0)
(0.3078 -0.037544 0)
(0.3078 -0.04332 0)
(0.3078 -0.049096 0)
(0.3078 -0.054872 0)
(0.3078 -0.060648 0)
(0.3078 -0.066424 0)
(0.3078 -0.0722 0)
(0.3078 -0.077976 0)
(0.3078 -0.083752 0)
(0.3078 -0.089528 0)
(0.3078 -0.095304 0)
(0.3078 -0.10108 0)
(0.3078 -0.106856 0)
(0.3078 -0.112632 0)
(0.3078 -0.118408 0)
(0.3078 -0.124184 0)
(0.3078 -0.12996 0)
(0.3078 -0.135736 0)
(0.3078 -0.141512 0)
(0.3078 -0.147288 0)
(0.3078 -0.153064 0)
(0.3078 -0.15884 0)
(0.3078 -0.164616 0)
(0.3078 -0.170392 0)
(0.3078 -0.176168 0)
(0.3078 -0.181944 0)
(0.3078 -0.18772 0)
(0.3078 -0.193496 0)
(0.3078 -0.199272 0)
(0.3078 -0.205048 0)
(0.3078 -0.210824 0)
(0.3078 -0.2166 0)
(0.3078 -0.222376 0)
(0.3078 -0.228152 0)
(0.3078 -0.233928 0)
(0.3078 -0.239704 0)
(0.3078 -0.24548 0)
(0.3078 -0.251256 0)
(0.3078 -0.257032 0)
(0.3078 -0.262808 0)
(0.3078 -0.268584 0)
(0.3078 -0.27436 0)
(0.3078 -0.280136 0)
(0.3078 -0.285912 0)
(0.335768 -0.002888 0)
(0.335768 -0.008664 0)
(0.335768 -0.01444 0)
(0.335768 -0.020216 0)
(0.335768 -0.025992 0)
(0.335768 -0.031768 0)
(0.335768 -0.037544 0)
(0.335768 -0.04332 0)
(0.335768 -0.049096 0)
(0.335768 -0.054872 0)
(0.335768 -0.060648 0)
(0.335768 -0.066424 0)
(0.335768 -0.0722 0)
(0.335768 -0.077976 0)
(0.335768 -0.083752 0)
(0.335768 -0.089528 0)
(0.335768 -0.095304 0)
(0.335768 -0.10108 0)
(0.335768 -0.106856 0)
(0.335768 -0.112632 0)
(0.335768 -0.118408 0)
(0.335768 -0.124184 0)
(0.335768 -0.12996 0)
(0.335768 -0.135736 0)
(0.335768 -0.141512 0)
(0.335768 -0.147288 0)
(0.335768 -0.153064 0)
(0.335768 -0.15884 0)
(0.335768 -0.164616 0)
(0.335768 -0.170392 0)
(0.335768 -0.176168 0)
(0.335768 -0.181944 0)
(0.335768 -0.18772 0)
(0.335768 -0.193496 0)
(0.335768 -0.199272 0)
(0.335768 -0.205048 0)
(0.335768 -0.210824 0)
(0.335768 -0.2166 0)
(0.335768 -0.222376 0)
(0.335768 -0.228152 0)
(0.335768 -0.233928 0)
(0.335768 -0.239704 0)
(0.335768 -0.24548 0)
(0.335768 -0.251256 0)
(0.335768 -0.257032 0)
(0.335768 -0.262808 0)
(0.335768 -0.268584 0)
(0.335768 -0.27436 0)
(0.335768 -0.280136 0)
(0.335768 -0.285912 0)
(0.364952 -0.002888 0)
(0.364952 -0.008664 0)
(0.364952 -0.01444 0)
(0.364952 -0.020216 0)
(0.364952 -0.025992 0)
(0.364952 -0.031768 0)
(0.364952 -0.037544 0)
(0.364952 -0.04332 0)
(0.364952 -0.049096 0)
(0.364952 -0.054872 0)
(0.364952 -0.060648 0)
(0.364952 -0.066424 0)
(0.364952 -0.0722 0)
(0.364952 -0.077976 0)
(0.364952 -0.083752 0)
(0.364952 -0.089528 0)
(0.364952 -0.095304 0)
(0.364952 -0.10108 0)
(0.364952 -0.106856 0)
(0.364952 -0.112632 0)
(0.364952 -0.118408 0)
(0.364952 -0.124184 0)
(0.364952 -0.12996 0)
(0.364952 -0.135736 0)
(0.364952 -0.141512 0)
(0.364952 -0.147288 0)
(0.364952 -0.153064 0)
(0.364952 -0.15884 0)
(0.364952 -0.164616 0)
(0.364952 -0.170392 0)
(0.364952 -0.176168 0)
(0.364952 -0.181944 0)
(0.364952 -0.18772 0)
(0.364952 -0.193496 0)
(0.364952 -0.199272 0)
(0.364952 -0.205048 0)
(0.364952 -0.210824 0)
(0.364952 -0.2166 0)
(0.364952 -0.222376 0)
(0.364952 -0.228152 0)
(0.364952 -0.233928 0)
(0.364952 -0.239704 0)
(0.364952 -0.24548 0)
(0.364952 -0.251256 0)
(0.364952 -0.257032 0)
(0.364952 -0.262808 0)
(0.364952 -0.268584 0)
(0.364952 -0.27436 0)
(0.364952 -0.280136 0)
(0.364952 -0.285912 0)
(0.395352 -0.002888 0)
(0.395352 -0.008664 0)
(0.395352 -0.01444 0)
(0.395352 -0.020216 0)
(0.395352 -0.025992 0)
(0.395352 -0.031768 0)
(0.395352 -0.037544 0)
(0.395352 -0.04332 0)
(0.395352 -0.049096 0)
(0.395352 -0.054872 0)
(0.395352 -0.060648 0)
(0.395352 -0.066424 0)
(0.395352 -0.0722 0)
(0.395352 -0.077976 0)
(0.395352 -0.083752 0)
(0.395352 -0.089528 0)
(0.395352 -0.095304 0)
(0.395352 -0.10108 0)
(0.395352 -0.106856 0)
(0.395352 -0.112632 0)
(0.395352 -0.118408 0)
(0.395352 -0.124184 0)
(0.395352 -0.12996 0)
(0.395352 -0.135736 0)
(0.395352 -0.141512 0)
(0.395352 -0.147288 0)
(0.395352 -0.153064 0)
(0.395352 -0.15884 0)
(0.395352 -0.164616 0)
(0.395352 -0.170392 0)
(0.395352 -0.176168 0)
(0.395352 -0.181944 0)
(0.395352 -0.18772 0)
(0.395352 -0.193496 0)
(0.395352 -0.199272 0)
(0.395352 -0.205048 0)
(0.395352 -0.210824 0)
(0.395352 -0.2166 0)
(0.395352 -0.222376 0)
(0.395352 -0.228152 0)
(0.395352 -0.233928 0)
(0.395352 -0.239704 0)
(0.395352 -0.24548 0)
(0.395352 -0.251256 0)
(0.395352 -0.257032 0)
(0.395352 -0.262808 0)
(0.395352 -0.268584 0)
(0.395352 -0.27436 0)
(0.395352 -0.280136 0)
(0.395352 -0.285912 0)
(0.426968 -0.002888 0)
(0.426968 -0.008664 0)
(0.426968 -0.01444 0)
(0.426968 -0.020216 0)