/*--------------------------------*- C++ -*----------------------------------*\
| =========                 |                                                 |
| \\      /  F ield         | OpenFOAM: The Open Source CFD Toolbox           |
|  \\    /   O peration     | Version:  v2006                                 |
|   \\  /    A nd           | Website:  www.openfoam.com                      |
|    \\/     M anipulation  |                                                 |
\*---------------------------------------------------------------------------*/
FoamFile
{
    version     2.0;
    format      ascii;
    class       volScalarField;
    location    "6";
    object      r;
}
// * * * * * * * * * * * * * * * * * * * * * * * * * * * * * * * * * * * * * //

dimensions      [1 2 0 0 0 0 0];


internalField   nonuniform List<scalar> 
350
(
-0.00220369
0.00378277
-0.00482023
0.00700488
-0.00937407
0.0128679
-0.0171551
0.0228232
-0.029873
0.0387257
-0.0495236
0.0625653
-0.0779765
0.0958752
-0.116207
0.138791
-0.163232
0.188932
-0.215053
0.240547
-0.264183
0.284615
-0.300476
0.3105
-0.313653
0.309262
-0.297135
0.277632
-0.25168
0.220731
-0.186638
0.151477
-0.11733
0.0860557
-0.0590911
0.0373155
-0.0209954
0.00982548
-0.00305185
-0.000347584
0.00146478
-0.00128458
0.000561621
0.000232468
-0.000893862
0.00142242
-0.0019368
0.00259738
-0.00355609
0.00493977
-0.00686022
0.00943748
-0.0128212
0.0172016
-0.0228063
0.0298888
-0.0387116
0.0495276
-0.0625605
0.0779807
-0.0958746
0.116208
-0.13879
0.163232
-0.188931
0.215053
-0.240547
0.264183
-0.284615
0.300476
-0.310501
0.313653
-0.309262
0.297135
-0.277631
0.251679
-0.220729
0.186636
-0.151474
0.117325
-0.0860476
0.0590784
-0.0372954
0.020964
-0.0097768
0.00297689
0.000462161
-0.00163847
0.00154571
-0.00095104
0.000343387
4.97082e-05
-0.000195951
0.000170991
-7.86289e-05
-2.40398e-06
3.84938e-05
-3.43855e-05
1.27592e-05
5.42261e-06
-1.11205e-05
6.79334e-06
6.52701e-08
-3.6209e-06
2.86468e-06
-3.05348e-07
-1.32683e-06
1.22802e-06
-1.59857e-07
-6.76713e-07
5.68409e-07
1.14535e-07
-3.71228e-07
7.80061e-08
3.94219e-08
-5.60355e-08
2.40748e-07
5.0763e-08
-4.33906e-07
-2.60216e-07
3.946e-07
6.80428e-07
1.73547e-07
-9.01146e-07
-1.45017e-06
-1.81666e-07
2.44555e-06
3.53341e-06
2.82669e-07
-6.23293e-06
-9.84396e-06
-3.11085e-06
1.4735e-05
3.12897e-05
2.40085e-05
-2.31536e-05
-9.60846e-05
-0.000136958
-6.06883e-05
0.000188907
0.000555804
0.000801488
0.000507856
-0.000786595
-0.0032834
-0.00646756
-0.00856812
-0.00605341
0.00670022
0.037441
0.0957006
0.192074
0.3372
0.540573
0.809373
1.14748
1.55485
2.02726
2.55657
3.13133
3.73773
4.36064
4.9848
5.59577
6.18086
6.72966
7.23439
7.68999
8.09398
8.44614
8.74817
9.00316
9.21524
9.3891
9.52963
9.64173
9.72998
9.79859
9.85127
9.89124
9.92123
9.94351
9.9599
9.97184
9.98042
9.98642
9.99046
9.99308
9.99491
9.99662
9.99888
10.002
10.0056
10.008
10.0057
9.99308
9.96242
9.90421
9.80787
9.66277
9.45941
9.19061
8.85251
8.44515
7.97274
7.44343
6.86867
6.26227
5.63936
5.0152
4.40423
3.81914
3.27034
2.76561
2.31001
1.90602
1.55386
1.25184
0.996837
0.784755
0.610903
0.470362
0.358271
0.270025
0.201421
0.148733
0.108743
0.0787367
0.0564707
0.0401258
0.0282529
0.0197162
0.013639
0.0093544
0.0063621
0.0042915
0.00287151
0.00190623
0.00125564
0.000820828
0.000532591
0.000343045
0.000219374
0.0001393
8.78429e-05
5.5018e-05
3.42293e-05
2.11561e-05
1.29919e-05
7.92776e-06
4.80751e-06
2.89752e-06
1.73585e-06
1.03377e-06
6.12068e-07
3.60315e-07
2.10917e-07
1.22779e-07
7.10824e-08
4.09315e-08
2.34449e-08
1.33589e-08
7.57277e-09
4.27107e-09
2.39689e-09
1.3385e-09
7.43845e-10
4.11403e-10
2.26466e-10
1.24085e-10
6.76768e-11
3.67449e-11
1.98616e-11
1.06886e-11
5.72713e-12
3.05557e-12
1.62334e-12
8.58838e-13
4.52504e-13
2.37446e-13
1.24097e-13
6.45999e-14
3.34965e-14
1.73015e-14
8.90242e-15
4.5634e-15
2.33049e-15
1.18577e-15
6.01135e-16
3.03652e-16
1.52838e-16
7.66576e-17
3.83148e-17
1.90845e-17
9.47361e-18
4.68691e-18
2.31106e-18
1.1358e-18
5.56387e-19
2.71676e-19
1.32232e-19
6.41582e-20
3.1032e-20
1.49631e-20
7.19293e-21
3.44724e-21
1.64716e-21
7.84707e-22
3.72737e-22
1.76536e-22
8.33701e-23
3.92597e-23
1.84355e-23
8.6327e-24
4.03118e-24
1.87726e-24
8.71831e-25
4.03802e-25
1.86528e-25
8.59346e-26
3.94868e-26
1.8097e-26
8.27255e-27
3.77192e-27
1.71548e-27
7.78248e-28
3.52183e-28
1.58982e-28
7.15916e-29
3.21605e-29
1.44125e-29
6.44344e-30
2.87388e-30
1.2788e-30
5.67704e-31
2.51443e-31
1.11112e-31
4.89888e-32
2.15503e-32
9.45885e-33
4.14247e-33
1.81019e-33
7.89296e-34
3.43408e-34
1.49097e-34
6.45769e-35
2.79525e-35
1.19755e-35
5.34962e-36
1.8453e-36
)
;

boundaryField
{
    right
    {
        type            zeroGradient;
    }
    left
    {
        type            inletOutlet;
        inletValue      uniform 0;
        value           uniform 0;
    }
    top
    {
        type            zeroGradient;
    }
    bottom
    {
        type            zeroGradient;
    }
    empty
    {
        type            empty;
    }
}


// ************************************************************************* //
