/*--------------------------------*- C++ -*----------------------------------*\
| =========                 |                                                 |
| \\      /  F ield         | OpenFOAM: The Open Source CFD Toolbox           |
|  \\    /   O peration     | Version:  v2006                                 |
|   \\  /    A nd           | Website:  www.openfoam.com                      |
|    \\/     M anipulation  |                                                 |
\*---------------------------------------------------------------------------*/
FoamFile
{
    version     2.0;
    format      ascii;
    class       surfaceScalarField;
    location    "9.9";
    object      phi;
}
// * * * * * * * * * * * * * * * * * * * * * * * * * * * * * * * * * * * * * //

dimensions      [0 3 -1 0 0 0 0];
oriented        oriented;


internalField   nonuniform List<scalar> 
104500
(
-3.82096e-05
3.82096e-05
-6.41874e-05
2.59778e-05
-9.266e-05
2.84727e-05
-0.000124041
3.13812e-05
-0.000156311
3.22699e-05
-0.000188555
3.22438e-05
-0.000220558
3.2003e-05
-0.000252342
3.17839e-05
-0.000283924
3.15823e-05
-0.00031529
3.13656e-05
-0.00034641
3.11198e-05
-0.000377253
3.08439e-05
-0.000407795
3.05411e-05
-0.00043801
3.02151e-05
-0.000467879
2.98696e-05
-0.000497388
2.95088e-05
-0.000526526
2.91375e-05
-0.000555287
2.87612e-05
-0.000583672
2.8385e-05
-0.000611687
2.80149e-05
-0.000639343
2.76565e-05
-0.000666659
2.73153e-05
-0.000693655
2.69961e-05
-0.000720357
2.67026e-05
-0.000746795
2.64378e-05
-0.000773
2.6205e-05
-0.000799007
2.60065e-05
-0.00082485
2.58435e-05
-0.000850566
2.57157e-05
-0.000876188
2.56219e-05
-0.000901748
2.55603e-05
-0.000927277
2.55287e-05
-0.000952802
2.55254e-05
-0.000978352
2.55497e-05
-0.00100395
2.56031e-05
-0.00102964
2.56892e-05
-0.00105546
2.58114e-05
-0.00108142
2.59685e-05
-0.00110758
2.61526e-05
-0.00113393
2.63489e-05
-0.00116047
2.654e-05
-0.00118718
2.67104e-05
-0.00121403
2.68491e-05
-0.00124098
2.69514e-05
-0.00126799
2.70183e-05
-0.00129505
2.70568e-05
-0.00132213
2.70774e-05
-0.00134922
2.70895e-05
-0.00137631
2.70916e-05
-0.00140337
2.70624e-05
-0.00143033
2.69567e-05
-0.00145704
2.67139e-05
-0.00148332
2.62772e-05
-0.00150894
2.56164e-05
-0.00153368
2.47435e-05
-0.00155738
2.37047e-05
-0.00157995
2.25688e-05
-0.00160137
2.14115e-05
-0.00162166
2.02903e-05
-0.00164089
1.92362e-05
-0.00165915
1.82582e-05
-0.0016765
1.73539e-05
-0.00169302
1.65165e-05
-0.00170876
1.57375e-05
-0.00172377
1.50081e-05
-0.00173809
1.43198e-05
-0.00175175
1.36653e-05
-0.00176479
1.30386e-05
-0.00177722
1.24352e-05
-0.00178908
1.18532e-05
-0.00180037
1.12923e-05
-0.00181112
1.07538e-05
-0.00182136
1.02383e-05
-0.00183111
9.74408e-06
-0.00184037
9.26667e-06
-0.00184917
8.79966e-06
-0.00185751
8.33645e-06
-0.00186538
7.8722e-06
-0.00187279
7.4054e-06
-0.00187973
6.93865e-06
-0.0018862
6.47867e-06
-0.00189224
6.03516e-06
-0.00189786
5.61871e-06
-0.0019031
5.23817e-06
-0.00190799
4.89843e-06
-0.00191259
4.59941e-06
-0.00191693
4.33653e-06
-0.00192103
4.10233e-06
-0.00192492
3.88849e-06
-0.00192861
3.68748e-06
-0.0019321
3.49371e-06
-0.00193541
3.30377e-06
-0.00193852
3.11626e-06
-0.00194145
2.93117e-06
-0.0019442
2.74924e-06
-0.00194677
2.57159e-06
-0.00194917
2.39954e-06
-0.00195141
2.23448e-06
-0.00195349
2.07787e-06
-0.00195542
1.93105e-06
-0.00195721
1.79516e-06
-0.00195888
1.67107e-06
-0.00196044
1.55937e-06
-0.0019619
1.46041e-06
-0.00196328
1.37434e-06
-0.00196458
1.30116e-06
-0.00196582
1.24082e-06
-0.00196701
1.1932e-06
-0.00196817
1.15812e-06
-0.00196931
1.13533e-06
-0.00197043
1.12453e-06
-0.00197156
1.12544e-06
-0.00197269
1.13781e-06
-0.00197386
1.16148e-06
-0.00197505
1.19632e-06
-0.00197629
1.24223e-06
-0.00197759
1.29921e-06
-0.00197896
1.36743e-06
-0.00198041
1.44652e-06
-0.00198194
1.53397e-06
-0.00198357
1.62938e-06
-0.0019853
1.73234e-06
-0.00198715
1.84225e-06
-0.0019891
1.95845e-06
-0.00199118
2.08046e-06
-0.00199339
2.20801e-06
-0.00199573
2.34097e-06
-0.00199821
2.4794e-06
-0.00200084
2.62313e-06
-0.00200361
2.77096e-06
-0.00200653
2.91906e-06
-0.00200959
3.05976e-06
-0.00201277
3.18179e-06
-0.00201604
3.27377e-06
-0.00201937
3.33074e-06
-0.00202273
3.36154e-06
-0.00202613
3.39249e-06
-0.00202959
3.46348e-06
-0.00203321
3.61591e-06
-0.00203708
3.87728e-06
-0.00204133
4.25003e-06
-0.00204604
4.71065e-06
-0.00205126
5.219e-06
-0.00205699
5.73007e-06
-0.0020632
6.20702e-06
-0.00206983
6.62643e-06
-0.00207681
6.98022e-06
-0.00208408
7.27233e-06
-0.00209159
7.50935e-06
-0.00209929
7.69866e-06
-0.00210713
7.84847e-06
-0.0021151
7.96969e-06
-0.00212318
8.07339e-06
-0.00213134
8.16697e-06
-0.0021396
8.25357e-06
-0.00214794
8.33886e-06
-0.00215636
8.4224e-06
-0.00216486
8.49904e-06
-0.00217342
8.5611e-06
-0.00218202
8.6006e-06
-0.00219063
8.61114e-06
-0.00219922
8.58992e-06
-0.00220776
8.53781e-06
-0.00221621
8.45292e-06
-0.00222453
8.31348e-06
-0.00223258
8.05555e-06
-0.00224016
7.5751e-06
-0.00224694
6.78802e-06
-0.00225265
5.70853e-06
-0.0022571
4.44562e-06
-0.00226022
3.12422e-06
-0.00226206
1.83604e-06
-0.0022627
6.38418e-07
-0.00226232
-3.7823e-07
-0.00226103
-1.29148e-06
-0.00225895
-2.07271e-06
-0.00225621
-2.74292e-06
-0.00225289
-3.32512e-06
-0.00224905
-3.8393e-06
-0.00224474
-4.304e-06
-0.00224001
-4.73552e-06
-0.00223486
-5.14729e-06
-0.00222931
-5.54981e-06
-0.00222336
-5.95101e-06
-0.002217
-6.35701e-06
-0.00221023
-6.77294e-06
-0.00220303
-7.20371e-06
-0.00219537
-7.65488e-06
-0.00218724
-8.13344e-06
-0.00217859
-8.64849e-06
-0.00216938
-9.21133e-06
-0.00215954
-9.83457e-06
-0.00214901
-1.05299e-05
-0.00213771
-1.13045e-05
-0.00212555
-1.21572e-05
-0.00211248
-1.30749e-05
-0.00209844
-1.40317e-05
-0.00208345
-1.49906e-05
-0.00206755
-1.59084e-05
-0.0020508
-1.67432e-05
-0.00203334
-1.74608e-05
-0.0020153
-1.80415e-05
-0.00199682
-1.84827e-05
-0.00197802
-1.87988e-05
-0.001959
-1.9018e-05
-0.00193982
-1.91764e-05
-0.00192051
-1.93115e-05
-0.00190106
-1.94563e-05
-0.00188142
-1.96343e-05
-0.00186156
-1.98583e-05
-0.00184143
-2.013e-05
-0.00182099
-2.04436e-05
-0.0018002
-2.07888e-05
-0.00177905
-2.11542e-05
-0.00175752
-2.153e-05
-0.00173561
-2.19089e-05
-0.00171332
-2.22868e-05
-0.00169066
-2.26612e-05
-0.00166763
-2.30311e-05
-0.00164423
-2.33957e-05
-0.00162048
-2.3754e-05
-0.00159638
-2.41045e-05
-0.00157193
-2.44455e-05
-0.00154715
-2.47751e-05
-0.00152206
-2.50915e-05
-0.00149667
-2.53935e-05
-0.00147099
-2.56799e-05
-0.00144504
-2.59501e-05
-0.00141884
-2.62037e-05
-0.0013924
-2.64401e-05
-0.00136574
-2.66592e-05
-0.00133888
-2.68605e-05
-0.00131183
-2.70437e-05
-0.00128462
-2.72086e-05
-0.00125727
-2.73548e-05
-0.00122979
-2.74817e-05
-0.0012022
-2.75889e-05
-0.00117452
-2.76759e-05
-0.00114678
-2.77422e-05
-0.00111899
-2.77871e-05
-0.00109118
-2.78101e-05
-0.00106337
-2.78107e-05
-0.00103558
-2.77883e-05
-0.00100784
-2.7742e-05
-0.000980171
-2.76708e-05
-0.000952598
-2.75736e-05
-0.000925149
-2.74486e-05
-0.000897855
-2.72939e-05
-0.000870748
-2.71071e-05
-0.000843863
-2.68855e-05
-0.000817236
-2.66264e-05
-0.000790909
-2.63271e-05
-0.000764924
-2.59847e-05
-0.000739328
-2.5596e-05
-0.00071417
-2.51582e-05
-0.0006895
-2.467e-05
-0.000665367
-2.41327e-05
-0.000641815
-2.35524e-05
-0.000618875
-2.29404e-05
-0.000596563
-2.23115e-05
-0.000574883
-2.16806e-05
-0.000553826
-2.10568e-05
-0.00053339
-2.04359e-05
-0.000513584
-1.98055e-05
-0.000494438
-1.91464e-05
-0.000476002
-1.84362e-05
-0.000458347
-1.76545e-05
-0.000441561
-1.67866e-05
-0.000425737
-1.58233e-05
-0.000410979
-1.47586e-05
-0.000397391
-1.35875e-05
-0.000385087
-1.23045e-05
-0.000374182
-1.09044e-05
-0.000364798
-9.38393e-06
-0.000357054
-7.74423e-06
-0.00035106
-5.9941e-06
-0.000346907
-4.15237e-06
-0.000344656
-2.2512e-06
-0.00034433
-3.25997e-07
-0.000345835
1.50456e-06
-0.000349123
3.28788e-06
-0.000354158
5.03511e-06
-0.000360868
6.71051e-06
-0.000369138
8.26957e-06
-0.000378797
9.65949e-06
-0.000389621
1.08239e-05
-0.000401323
1.17022e-05
-0.000413615
1.22916e-05
-0.000425919
1.23037e-05
-0.000437528
1.16092e-05
-0.000447642
1.01137e-05
-0.000455462
7.82028e-06
-0.000460359
4.89734e-06
-0.000462057
1.69742e-06
-0.000460871
-1.18574e-06
-0.000457537
-3.3344e-06
-0.000452818
-4.71845e-06
-0.000447413
-5.40547e-06
-0.000441868
-5.54435e-06
-0.000436567
-5.301e-06
-0.000431655
-4.91194e-06
-0.000427121
-4.53468e-06
-0.000422857
-4.26337e-06
-0.000418684
-4.17308e-06
-0.000414433
-4.25113e-06
-0.000409961
-4.47201e-06
-0.00040516
-4.80143e-06
-0.000399959
-5.20096e-06
-0.000394327
-5.6315e-06
-0.000388267
-6.06037e-06
-0.0003818
-6.46723e-06
-0.000374954
-6.84615e-06
-0.000367756
-7.19734e-06
-0.000360234
-7.52225e-06
-0.000352411
-7.82269e-06
-0.000344314
-8.09726e-06
-0.000335972
-8.34168e-06
-0.000327417
-8.55528e-06
-0.000318677
-8.74013e-06
-0.000309777
-8.89956e-06
-0.000300735
-9.04203e-06
-0.000291562
-9.17291e-06
-0.000282268
-9.29486e-06
-0.00027286
-9.40724e-06
-0.000263351
-9.50905e-06
-0.000253752
-9.59955e-06
-0.000244073
-9.67869e-06
-0.000234324
-9.74861e-06
-0.000224512
-9.81234e-06
-0.000214641
-9.87076e-06
-0.000204718
-9.92342e-06
-0.000194742
-9.97547e-06
-0.000184712
-1.00304e-05
-0.000174619
-1.00929e-05
-0.000164455
-1.01646e-05
-0.00015421
-1.02445e-05
-0.000143877
-1.03326e-05
-0.00013345
-1.04271e-05
-0.000122923
-1.05274e-05
-0.00011229
-1.06333e-05
-0.000101551
-1.07389e-05
-9.07149e-05
-1.08358e-05
-7.98e-05
-1.09149e-05
-6.88178e-05
-1.09822e-05
-5.77321e-05
-1.10857e-05
-4.63896e-05
-1.13426e-05
-3.45612e-05
-1.18284e-05
-2.14035e-05
-1.31577e-05
-7.03257e-06
-1.4371e-05
-7.03257e-06
-5.06791e-05
8.88887e-05
-8.92084e-05
6.45071e-05
-0.00013175
7.10139e-05
-0.000177409
7.70407e-05
-0.000223745
7.86059e-05
-0.000269724
7.82226e-05
-0.000315269
7.75478e-05
-0.000360461
7.69756e-05
-0.000405301
7.64223e-05
-0.000449738
7.58034e-05
-0.000493721
7.51021e-05
-0.000537205
7.43278e-05
-0.000580154
7.34908e-05
-0.000622537
7.25984e-05
-0.000664325
7.16574e-05
-0.000705492
7.06753e-05
-0.000746014
6.96603e-05
-0.000785874
6.86209e-05
-0.000825055
6.7566e-05
-0.000863545
6.65044e-05
-0.000901333
6.54452e-05
-0.000938415
6.43966e-05
-0.000974785
6.33661e-05
-0.00101044
6.23602e-05
-0.00104539
6.13847e-05
-0.00107963
6.04446e-05
-0.00111317
5.95441e-05
-0.00114601
5.86861e-05
-0.00117816
5.78716e-05
-0.00120964
5.71004e-05
-0.00124045
5.63713e-05
-0.00127061
5.56827e-05
-0.00130012
5.50336e-05
-0.00132899
5.44235e-05
-0.00135724
5.38538e-05
-0.00138488
5.33265e-05
-0.00141191
5.28432e-05
-0.00143834
5.24022e-05
-0.00146419
5.19967e-05
-0.00148945
5.16151e-05
-0.00151416
5.12432e-05
-0.00153831
5.08672e-05
-0.00156194
5.04763e-05
-0.00158505
5.00637e-05
-0.00160766
4.96271e-05
-0.00162977
4.91673e-05
-0.00165138
4.86862e-05
-0.00167248
4.81833e-05
-0.00169304
4.76516e-05
-0.00171305
4.70758e-05
-0.00173253
4.64331e-05
-0.00175151
4.56996e-05
-0.00177009
4.48587e-05
-0.00178839
4.39095e-05
-0.00180651
4.28691e-05
-0.00182457
4.17679e-05
-0.00184265
4.0641e-05
-0.00186075
3.9519e-05
-0.00187888
3.84213e-05
-0.001897
3.73553e-05
-0.00191507
3.63206e-05
-0.00193303
3.53134e-05
-0.00195084
3.43298e-05
-0.00196847
3.33666e-05
-0.00198588
3.24209e-05
-0.00200305
3.14906e-05
-0.00201996
3.05739e-05
-0.00203659
2.96694e-05
-0.00205293
2.87762e-05
-0.00206897
2.78943e-05
-0.00208471
2.70238e-05
-0.00210012
2.61651e-05
-0.0021152
2.53181e-05
-0.00212993
2.44814e-05
-0.00214432
2.36521e-05
-0.00215835
2.28266e-05
-0.00217201
2.20014e-05
-0.00218531
2.11744e-05
-0.00219825
2.03467e-05
-0.00221084
1.95227e-05
-0.00222307
1.87107e-05
-0.00223496
1.79211e-05
-0.0022465
1.71646e-05
-0.00225771
1.64499e-05
-0.0022686
1.57823e-05
-0.00227916
1.51625e-05
-0.00228941
1.45869e-05
-0.00229936
1.40497e-05
-0.00230901
1.35437e-05
-0.00231839
1.30619e-05
-0.00232749
1.2599e-05
-0.00233634
1.21511e-05
-0.00234494
1.17157e-05
-0.0023533
1.12918e-05
-0.00236143
1.08788e-05
-0.00236934
1.04769e-05
-0.00237702
1.00866e-05
-0.0023845
9.70857e-06
-0.00239176
9.34352e-06
-0.00239882
8.99205e-06
-0.00240568
8.65455e-06
-0.00241234
8.33123e-06
-0.00241881
8.02206e-06
-0.00242507
7.72686e-06
-0.00243114
7.44533e-06
-0.00243702
7.17708e-06
-0.0024427
6.92165e-06
-0.00244819
6.67856e-06
-0.00245347
6.44727e-06
-0.00245857
6.22725e-06
-0.00246346
6.01796e-06
-0.00246815
5.81892e-06
-0.00247265
5.62966e-06
-0.00247693
5.44975e-06
-0.00248102
5.27872e-06
-0.00248489
5.11607e-06
-0.00248855
4.96134e-06
-0.002492
4.81401e-06
-0.00249523
4.67338e-06
-0.00249823
4.53834e-06
-0.00250101
4.40776e-06
-0.00250356
4.28045e-06
-0.00250587
4.15505e-06
-0.00250794
4.02999e-06
-0.00250976
3.90402e-06
-0.00251133
3.77609e-06
-0.00251264
3.64396e-06
-0.00251366
3.50488e-06
-0.00251439
3.35524e-06
-0.00251481
3.19022e-06
-0.0025149
3.00389e-06
-0.00251463
2.79016e-06
-0.00251399
2.54506e-06
-0.00251299
2.27014e-06
-0.00251163
1.97575e-06
-0.00250995
1.68223e-06
-0.00250798
1.41732e-06
-0.00250572
1.20948e-06
-0.00250319
1.07916e-06
-0.00250034
1.0316e-06
-0.00249715
1.05416e-06
-0.00249355
1.11906e-06
-0.00248953
1.19096e-06
-0.00248504
1.2396e-06
-0.00248008
1.25075e-06
-0.00247467
1.22209e-06
-0.00246885
1.15566e-06
-0.00246264
1.06391e-06
-0.00245607
9.40538e-07
-0.00244916
7.83637e-07
-0.0024419
5.94318e-07
-0.00243431
3.76975e-07
-0.00242638
1.43389e-07
-0.00241809
-1.21094e-07
-0.00240942
-4.17469e-07
-0.00240036
-7.20494e-07
-0.0023909
-1.03685e-06
-0.00238103
-1.37054e-06
-0.00237075
-1.72494e-06
-0.00236004
-2.1029e-06
-0.00234893
-2.50693e-06
-0.0023374
-2.93949e-06
-0.00232546
-3.40347e-06
-0.0023131
-3.90252e-06
-0.00230035
-4.44134e-06
-0.00228726
-5.02497e-06
-0.00227403
-5.65608e-06
-0.00226091
-6.33136e-06
-0.00224816
-7.04156e-06
-0.00223594
-7.7751e-06
-0.0022243
-8.52027e-06
-0.0022132
-9.26575e-06
-0.00220255
-1.00052e-05
-0.00219219
-1.07397e-05
-0.002182
-1.14802e-05
-0.00217186
-1.22169e-05
-0.00216166
-1.29436e-05
-0.00215132
-1.36598e-05
-0.00214079
-1.43683e-05
-0.00213003
-1.50729e-05
-0.00211898
-1.57774e-05
-0.00210765
-1.64854e-05
-0.00209599
-1.72003e-05
-0.00208402
-1.79253e-05
-0.00207171
-1.86634e-05
-0.00205907
-1.9418e-05
-0.00204608
-2.01928e-05
-0.00203274
-2.09922e-05
-0.00201905
-2.18214e-05
-0.00200502
-2.26859e-05
-0.00199064
-2.35916e-05
-0.00197593
-2.45432e-05
-0.00196092
-2.55432e-05
-0.00194563
-2.65894e-05
-0.00193011
-2.7674e-05
-0.00191441
-2.87816e-05
-0.00189855
-2.98909e-05
-0.00188256
-3.0976e-05
-0.00186646
-3.20099e-05
-0.00185024
-3.29687e-05
-0.00183386
-3.38358e-05
-0.0018173
-3.46047e-05
-0.0018005
-3.52799e-05
-0.00178342
-3.58766e-05
-0.00176602
-3.64174e-05
-0.00174827
-3.69285e-05
-0.00173015
-3.74355e-05
-0.00171164
-3.79595e-05
-0.00169276
-3.85144e-05
-0.00167352
-3.91063e-05
-0.00165391
-3.9734e-05
-0.00163396
-4.03909e-05
-0.00161369
-4.10675e-05
-0.00159309
-4.17535e-05
-0.00157218
-4.24397e-05
-0.00155097
-4.31185e-05
-0.00152947
-4.37845e-05
-0.0015077
-4.44339e-05
-0.00148566
-4.50643e-05
-0.00146339
-4.56737e-05
-0.00144088
-4.62603e-05
-0.00141816
-4.68224e-05
-0.00139525
-4.73583e-05
-0.00137216
-4.78665e-05
-0.0013489
-4.83454e-05
-0.0013255
-4.87939e-05
-0.00130197
-4.92113e-05
-0.00127832
-4.9597e-05
-0.00125458
-4.99506e-05
-0.00123075
-5.02722e-05
-0.00120684
-5.05616e-05
-0.00118288
-5.0819e-05
-0.00115888
-5.10444e-05
-0.00113485
-5.12379e-05
-0.00111081
-5.13996e-05
-0.00108676
-5.15297e-05
-0.00106272
-5.16283e-05
-0.0010387
-5.16957e-05
-0.00101471
-5.17322e-05
-0.000990761
-5.17382e-05
-0.000966858
-5.1714e-05
-0.000943008
-5.166e-05
-0.00091922
-5.15766e-05
-0.000895498
-5.14642e-05
-0.000871845
-5.13232e-05
-0.000848265
-5.11537e-05
-0.000824758
-5.09563e-05
-0.00080132
-5.07311e-05
-0.000777949
-5.04785e-05
-0.000754636
-5.01987e-05
-0.00073137
-4.9892e-05
-0.000708139
-4.95584e-05
-0.000684926
-4.9198e-05
-0.000661711
-4.88108e-05
-0.000638472
-4.83967e-05
-0.000615187
-4.79557e-05
-0.000591832
-4.74878e-05
-0.000568391
-4.69931e-05
-0.00054486
-4.64707e-05
-0.000521253
-4.59189e-05
-0.000497599
-4.53349e-05
-0.000473941
-4.47147e-05
-0.000450323
-4.40533e-05
-0.000426783
-4.33456e-05
-0.000403344
-4.2586e-05
-0.000380011
-4.17689e-05
-0.000356777
-4.08886e-05
-0.000333625
-3.99389e-05
-0.000310534
-3.89137e-05
-0.000287487
-3.78062e-05
-0.000264465
-3.66089e-05
-0.000241456
-3.53138e-05
-0.000218448
-3.39124e-05
-0.000195436
-3.23964e-05
-0.000172422
-3.07582e-05
-0.000149424
-2.89922e-05
-0.000126481
-2.70947e-05
-0.000103668
-2.50651e-05
-8.10878e-05
-2.29058e-05
-5.89407e-05
-2.06425e-05
-3.73427e-05
-1.83102e-05
-1.63539e-05
-1.59537e-05
3.98068e-06
-1.36241e-05
2.36396e-05
-1.13894e-05
4.26294e-05
-9.3303e-06
6.09927e-05
-7.53946e-06
7.88746e-05
-6.17967e-06
9.64125e-05
-5.24626e-06
0.000113512
-4.79587e-06
0.000130025
-4.90405e-06
0.000145682
-5.54271e-06
0.0001601
-6.59798e-06
0.000172891
-7.89313e-06
0.000183805
-9.21706e-06
0.000193034
-1.04151e-05
0.000201091
-1.13913e-05
0.000208463
-1.20906e-05
0.000215549
-1.24914e-05
0.000222633
-1.26284e-05
0.000229887
-1.25543e-05
0.000237297
-1.23225e-05
0.000244738
-1.19753e-05
0.000252014
-1.15399e-05
0.00025888
-1.10391e-05
0.000265137
-1.0508e-05
0.000270657
-9.99202e-06
0.000275392
-9.53616e-06
0.000279361
-9.17029e-06
0.000282633
-8.90305e-06
0.000285301
-8.72873e-06
0.000287467
-8.63281e-06
0.000289216
-8.59561e-06
0.000290613
-8.59428e-06
0.000291697
-8.60563e-06
0.000292485
-8.61067e-06
0.000292977
-8.59002e-06
0.000293163
-8.52706e-06
0.000293021
-8.41397e-06
0.00029253
-8.24903e-06
0.000291665
-8.03431e-06
0.000290401
-7.77833e-06
0.000288717
-7.48823e-06
0.000286587
-7.16477e-06
0.000283984
-6.80464e-06
0.00028088
-6.40474e-06
0.000277242
-5.96229e-06
0.000273038
-5.47435e-06
0.00026823
-4.94041e-06
0.000262783
-4.36531e-06
0.000256667
-3.75503e-06
0.00024985
-3.10639e-06
0.000242303
-2.42803e-06
0.000234003
-1.73045e-06
0.000224935
-1.02507e-06
0.000215085
-3.14862e-07
0.000204488
3.52238e-07
0.000193158
9.97815e-07
0.000181111
1.6203e-06
0.000168373
2.20993e-06
0.000154984
2.75614e-06
0.000140992
3.25282e-06
0.000126466
3.69057e-06
0.000111487
4.06337e-06
9.61469e-05
4.35832e-06
8.04985e-05
4.56271e-06
6.44385e-05
4.7174e-06
4.76689e-05
4.94127e-06
3.05762e-05
3.93506e-06
1.56449e-05
5.60257e-07
8.61237e-06
-4.99436e-05
0.000138832
-8.63689e-05
0.000100932
-0.000126716
0.000111361
-0.000170752
0.000121077
-0.000215817
0.000123671
-0.000260507
0.000122912
-0.000304624
0.000121664
-0.000348281
0.000120633
-0.000391537
0.000119678
-0.000434365
0.000118632
-0.00047672
0.000117457
-0.000518559
0.000116167
-0.000559848
0.00011478
-0.000600559
0.00011331
-0.000640668
0.000111765
-0.000680149
0.000110157
-0.000718985
0.000108496
-0.000757157
0.000106793
-0.000794652
0.000105061
-0.000831458
0.000103311
-0.000867568
0.000101555
-0.000902976
9.98041e-05
-0.000937678
9.80678e-05
-0.000971673
9.63556e-05
-0.00100496
9.46754e-05
-0.00103755
9.30341e-05
-0.00106945
9.14375e-05
-0.00110065
8.98902e-05
-0.00113117
8.83953e-05
-0.00116103
8.69545e-05
-0.00119023
8.55679e-05
-0.00121878
8.42349e-05
-0.0012467
8.29545e-05
-0.001274
8.17263e-05
-0.0013007
8.05505e-05
-0.0013268
7.94284e-05
-0.00135232
7.83608e-05
-0.00137726
7.7346e-05
-0.00140164
7.63784e-05
-0.00142548
7.54488e-05
-0.00144878
7.45457e-05
-0.00147157
7.3658e-05
-0.00149387
7.27765e-05
-0.0015157
7.18939e-05
-0.00153708
7.10052e-05
-0.00155802
7.01065e-05
-0.00157853
6.91958e-05
-0.00159862
6.82723e-05
-0.0016183
6.73358e-05
-0.00163761
6.63854e-05
-0.00165659
6.54181e-05
-0.00167532
6.44285e-05
-0.00169388
6.34099e-05
-0.00171232
6.23552e-05
-0.00173071
6.12593e-05
-0.00174906
6.01202e-05
-0.00176736
5.89399e-05
-0.00178557
5.77244e-05
-0.00180363
5.64822e-05
-0.00182149
5.52216e-05
-0.00183912
5.395e-05
-0.00185648
5.26728e-05
-0.00187355
5.13941e-05
-0.0018903
5.01166e-05
-0.00190672
4.88424e-05
-0.0019228
4.75731e-05
-0.00193854
4.63099e-05
-0.00195392
4.50535e-05
-0.00196895
4.38044e-05
-0.00198362
4.25631e-05
-0.00199793
4.13299e-05
-0.00201187
4.01051e-05
-0.00202544
3.88896e-05
-0.00203864
3.76837e-05
-0.00205147
3.64872e-05
-0.00206395
3.52986e-05
-0.00207606
3.41164e-05
-0.00208783
3.29392e-05
-0.00209925
3.17676e-05
-0.00211033
3.06052e-05
-0.00212108
2.94585e-05
-0.00213149
2.83366e-05
-0.00214158
2.72492e-05
-0.00215133
2.62046e-05
-0.00216076
2.52083e-05
-0.00216986
2.42619e-05
-0.00217863
2.33634e-05
-0.00218709
2.25084e-05
-0.00219524
2.16917e-05
-0.00220309
2.09079e-05
-0.00221064
2.01526e-05
-0.00221791
1.94225e-05
-0.00222491
1.87152e-05
-0.00223165
1.80294e-05
-0.00223813
1.73641e-05
-0.00224438
1.6719e-05
-0.00225038
1.60939e-05
-0.00225616
1.54888e-05
-0.00226172
1.49037e-05
-0.00226707
1.43387e-05
-0.00227221
1.37936e-05
-0.00227715
1.3268e-05
-0.00228189
1.27615e-05
-0.00228643
1.22736e-05
-0.00229079
1.18036e-05
-0.00229496
1.13509e-05
-0.00229896
1.09148e-05
-0.00230277
1.04945e-05
-0.00230642
1.00893e-05
-0.00230989
9.69853e-06
-0.00231319
9.32146e-06
-0.00231633
8.95744e-06
-0.0023193
8.60584e-06
-0.00232212
8.26604e-06
-0.00232478
7.93743e-06
-0.00232728
7.6194e-06
-0.00232963
7.3113e-06
-0.00233183
7.0124e-06
-0.00233388
6.72184e-06
-0.00233578
6.43872e-06
-0.00233753
6.16204e-06
-0.00233914
5.89071e-06
-0.00234061
5.62345e-06
-0.00234194
5.35881e-06
-0.00234313
5.09523e-06
-0.00234419
4.83107e-06
-0.00234511
4.56447e-06
-0.0023459
4.29324e-06
-0.00234656
4.01494e-06
-0.00234709
3.72672e-06
-0.00234751
3.42537e-06
-0.00234783
3.10794e-06
-0.00234806
2.77336e-06
-0.00234822
2.42494e-06
-0.00234831
2.07269e-06
-0.00234836
1.73362e-06
-0.00234838
1.42856e-06
-0.00234834
1.17584e-06
-0.00234825
9.84318e-07
-0.00234806
8.49488e-07
-0.00234777
7.55113e-07
-0.00234733
6.79625e-07
-0.00234674
6.01562e-07
-0.002346
5.02253e-07
-0.00234512
3.68756e-07
-0.00234409
1.94262e-07
-0.00234289
-4.85671e-08
-0.00234155
-2.73662e-07
-0.00234007
-5.3572e-07
-0.00233846
-8.25696e-07
-0.00233673
-1.14202e-06
-0.00233486
-1.48673e-06
-0.00233286
-1.86113e-06
-0.00233071
-2.26654e-06
-0.00232842
-2.70761e-06
-0.00232596
-3.18478e-06
-0.0023233
-3.69887e-06
-0.00232042
-4.25103e-06
-0.0023173
-4.84263e-06
-0.00231393
-5.47521e-06
-0.00231028
-6.15057e-06
-0.00230635
-6.87125e-06
-0.00230211
-7.64088e-06
-0.00229755
-8.46254e-06
-0.00229266
-9.33422e-06
-0.00228744
-1.02432e-05
-0.00228193
-1.11673e-05
-0.00227617
-1.20893e-05
-0.0022702
-1.30122e-05
-0.00226402
-1.39543e-05
-0.00225761
-1.49298e-05
-0.00225094
-1.59395e-05
-0.00224397
-1.6977e-05
-0.00223667
-1.80356e-05
-0.00222904
-1.91108e-05
-0.00222106
-2.01983e-05
-0.00221271
-2.12955e-05
-0.00220397
-2.24005e-05
-0.00219482
-2.35123e-05
-0.00218527
-2.46307e-05
-0.00217529
-2.57556e-05
-0.00216489
-2.68875e-05
-0.00215406
-2.80273e-05
-0.00214281
-2.91762e-05
-0.00213113
-3.0336e-05
-0.00211904
-3.15083e-05
-0.00210654
-3.26955e-05
-0.00209363
-3.39001e-05
-0.00208033
-3.51249e-05
-0.00206664
-3.63729e-05
-0.00205259
-3.76469e-05
-0.00203818
-3.89488e-05
-0.00202345
-4.02785e-05
-0.0020084
-4.16326e-05
-0.00199307
-4.30033e-05
-0.00197748
-4.43779e-05
-0.00196163
-4.57396e-05
-0.00194554
-4.70688e-05
-0.0019292
-4.83457e-05
-0.00191262
-4.95542e-05
-0.00189577
-5.06842e-05
-0.00187864
-5.17343e-05
-0.0018612
-5.27123e-05
-0.00184345
-5.36337e-05
-0.00182535
-5.45194e-05
-0.00180688
-5.53911e-05
-0.00178805
-5.62685e-05
-0.00176884
-5.71652e-05
-0.00174927
-5.8088e-05
-0.00172934
-5.90369e-05
-0.00170907
-6.00062e-05
-0.00168847
-6.09871e-05
-0.00166757
-6.19696e-05
-0.00164638
-6.29447e-05
-0.00162491
-6.39048e-05
-0.00160319
-6.48443e-05
-0.00158121
-6.57593e-05
-0.001559
-6.66467e-05
-0.00153656
-6.7504e-05
-0.00151391
-6.8329e-05
-0.00149105
-6.91193e-05
-0.001468
-6.98728e-05
-0.00144477
-7.05873e-05
-0.00142137
-7.1261e-05
-0.00139782
-7.18927e-05
-0.00137414
-7.24811e-05
-0.00135032
-7.30254e-05
-0.0013264
-7.35252e-05
-0.00130237
-7.39799e-05
-0.00127825
-7.43893e-05
-0.00125406
-7.47532e-05
-0.0012298
-7.50715e-05
-0.00120551
-7.53441e-05
-0.00118117
-7.55711e-05
-0.00115682
-7.57525e-05
-0.00113246
-7.58885e-05
-0.00110811
-7.59793e-05
-0.00108378
-7.60253e-05
-0.00105948
-7.60269e-05
-0.00103524
-7.59845e-05
-0.00101105
-7.58988e-05
-0.000986943
-7.57703e-05
-0.00096292
-7.55997e-05
-0.000938997
-7.53876e-05
-0.000915185
-7.51348e-05
-0.000891497
-7.4842e-05
-0.000867943
-7.451e-05
-0.000844535
-7.41397e-05
-0.000821281
-7.37322e-05
-0.000798191
-7.32885e-05
-0.000775273
-7.28098e-05
-0.000752535
-7.22972e-05
-0.000729981
-7.17517e-05
-0.000707617
-7.11746e-05
-0.000685447
-7.05669e-05
-0.000663473
-6.993e-05
-0.000641696
-6.92645e-05
-0.000620119
-6.85702e-05
-0.000598744
-6.78451e-05
-0.000577578
-6.70855e-05
-0.000556627
-6.62862e-05
-0.000535899
-6.54421e-05
-0.000515404
-6.45489e-05
-0.000495145
-6.36044e-05
-0.000475122
-6.26084e-05
-0.00045533
-6.15615e-05
-0.000435754
-6.04642e-05
-0.000416377
-5.93157e-05
-0.000397177
-5.81141e-05
-0.000378126
-5.68565e-05
-0.000359195
-5.554e-05
-0.000340348
-5.41616e-05
-0.000321541
-5.27189e-05
-0.000302727
-5.12101e-05
-0.000283852
-4.96334e-05
-0.000264857
-4.79876e-05
-0.00024568
-4.62718e-05
-0.000226259
-4.44859e-05
-0.000206534
-4.26308e-05
-0.000186464
-4.07123e-05
-0.000166031
-3.8743e-05
-0.000145242
-3.6743e-05
-0.000124126
-3.47395e-05
-0.000102747
-3.27687e-05
-8.12074e-05
-3.087e-05
-5.96898e-05
-2.90571e-05
-3.84427e-05
-2.74267e-05
-1.76179e-05
-2.60711e-05
2.60248e-06
-2.50162e-05
2.19662e-05
-2.42678e-05
4.02e-05
-2.37765e-05
5.7071e-05
-2.34689e-05
7.2424e-05
-2.32462e-05
8.62286e-05
-2.30216e-05
9.85903e-05
-2.27768e-05
0.000109707
-2.25078e-05
0.000119816
-2.22e-05
0.000129166
-2.18409e-05
0.000137972
-2.14352e-05
0.000146417
-2.09988e-05
0.000154625
-2.05301e-05
0.000162658
-2.00084e-05
0.000170518
-1.94002e-05
0.000178158
-1.86786e-05
0.000185496
-1.78467e-05
0.000192434
-1.69302e-05
0.000198879
-1.59812e-05
0.00020477
-1.50608e-05
0.00021009
-1.4223e-05
0.000214859
-1.34982e-05
0.000219128
-1.29019e-05
0.000222941
-1.24081e-05
0.000226333
-1.19869e-05
0.000229327
-1.15992e-05
0.000231932
-1.12156e-05
0.000234156
-1.0814e-05
0.000236012
-1.03829e-05
0.000237512
-9.91435e-06
0.000238669
-9.40597e-06
0.000239492
-8.85688e-06
0.000239974
-8.26079e-06
0.000240106
-7.61978e-06
0.000239869
-6.92807e-06
0.000239244
-6.17946e-06
0.000238207
-5.36818e-06
0.000236735
-4.49041e-06
0.000234804
-3.54318e-06
0.000232387
-2.52312e-06
0.000229447
-1.42579e-06
0.000225969
-2.76177e-07
0.000221838
1.02386e-06
0.000217034
2.37612e-06
0.00021152
3.78383e-06
0.000205256
5.2384e-06
0.00019821
6.73163e-06
0.000190315
8.24695e-06
0.000181542
9.77101e-06
0.000171873
1.12898e-05
0.000161297
1.27853e-05
0.000149817
1.4236e-05
0.00013745
1.56203e-05
0.000124224
1.69163e-05
0.00011019
1.80972e-05
9.54118e-05
1.91368e-05
7.9921e-05
2.00535e-05
6.36815e-05
2.09569e-05
4.7088e-05
2.15348e-05
3.16141e-05
1.9409e-05
1.87781e-05
1.33963e-05
2.73904e-05
-4.79382e-05
0.00018677
-8.19574e-05
0.000134952
-0.000119363
0.000148766
-0.000160503
0.000162217
-0.000202851
0.000166019
-0.000244967
0.000165028
-0.000286559
0.000163256
-0.000327715
0.00016179
-0.0003685
0.000160462
-0.000408898
0.00015903
-0.000448865
0.000157424
-0.00048836
0.000155661
-0.000527349
0.000153769
-0.000565803
0.000151764
-0.000603697
0.00014966
-0.000641011
0.000147471
-0.000677727
0.000145211
-0.000713831
0.000142897
-0.000749314
0.000140544
-0.000784171
0.000138169
-0.000818403
0.000135787
-0.000852012
0.000133413
-0.000885004
0.00013106
-0.000917389
0.000128741
-0.000949179
0.000126466
-0.000980389
0.000124244
-0.00101104
0.000122084
-0.00104114
0.000119991
-0.00107071
0.000117969
-0.00109978
0.00011602
-0.00112836
0.000114146
-0.00115647
0.000112345
-0.00118413
0.000110617
-0.00121136
0.000108958
-0.00123818
0.000107369
-0.00126459
0.000105845
-0.00129062
0.000104386
-0.00131626
0.000102985
-0.00134151
0.000101634
-0.00136639
0.000100325
-0.00139089
9.9047e-05
-0.00141502
9.77896e-05
-0.00143879
9.65449e-05
-0.0014622
9.53059e-05
-0.00148527
9.4067e-05
-0.00150798
9.28238e-05
-0.00153036
9.15728e-05
-0.0015524
9.03118e-05
-0.0015741
8.90394e-05
-0.00159547
8.77534e-05
-0.0016165
8.64505e-05
-0.0016372
8.51247e-05
-0.00165756
8.37684e-05
-0.00167758
8.23737e-05
-0.00169725
8.09341e-05
-0.00171658
7.94467e-05
-0.00173555
7.7913e-05
-0.00175417
7.63382e-05
-0.00177241
7.47302e-05
-0.00179029
7.30968e-05
-0.00180778
7.14454e-05
-0.00182489
6.97815e-05
-0.00184161
6.81097e-05
-0.00185793
6.64336e-05
-0.00187384
6.4756e-05
-0.00188935
6.30796e-05
-0.00190444
6.14068e-05
-0.00191913
5.97395e-05
-0.0019334
5.80795e-05
-0.00194727
5.64283e-05
-0.00196073
5.47874e-05
-0.00197378
5.3158e-05
-0.00198643
5.15417e-05
-0.00199869
4.99394e-05
-0.00201055
4.83521e-05
-0.00202203
4.67805e-05
-0.00203314
4.52249e-05
-0.00204389
4.36861e-05
-0.00205429
4.21659e-05
-0.00206435
4.06674e-05
-0.00207409
3.91953e-05
-0.00208351
3.77554e-05
-0.00209261
3.63536e-05
-0.0021014
3.49953e-05
-0.00210988
3.36841e-05
-0.00211804
3.24217e-05
-0.00212588
3.12077e-05
-0.00213341
3.00402e-05
-0.00214064
2.89165e-05
-0.00214756
2.78338e-05
-0.0021542
2.67893e-05
-0.00216056
2.57809e-05
-0.00216665
2.48069e-05
-0.00217249
2.38659e-05
-0.00217808
2.2957e-05
-0.00218344
2.20795e-05
-0.00218858
2.1233e-05
-0.00219351
2.04169e-05
-0.00219823
1.96308e-05
-0.00220277
1.88744e-05
-0.00220712
1.81469e-05
-0.0022113
1.74479e-05
-0.00221532
1.67766e-05
-0.00221918
1.61322e-05
-0.00222289
1.55139e-05
-0.00222646
1.49207e-05
-0.00222989
1.43518e-05
-0.00223321
1.38062e-05
-0.0022364
1.32829e-05
-0.00223948
1.2781e-05
-0.00224246
1.22994e-05
-0.00224534
1.18372e-05
-0.00224813
1.13934e-05
-0.00225083
1.0967e-05
-0.00225345
1.05571e-05
-0.00225599
1.01627e-05
-0.00225846
9.78264e-06
-0.00226087
9.41584e-06
-0.0022632
9.06109e-06
-0.00226548
8.71711e-06
-0.0022677
8.38253e-06
-0.00226987
8.05588e-06
-0.00227198
7.73557e-06
-0.00227404
7.41997e-06
-0.00227605
7.10732e-06
-0.00227802
6.79584e-06
-0.00227994
6.48363e-06
-0.00228181
6.16878e-06
-0.00228365
5.8495e-06
-0.00228545
5.52424e-06
-0.00228721
5.19191e-06
-0.00228896
4.85242e-06
-0.00229069
4.50734e-06
-0.00229243
4.16044e-06
-0.00229417
3.81784e-06
-0.00229592
3.48716e-06
-0.00229767
3.17581e-06
-0.00229938
2.88863e-06
-0.00230103
2.62584e-06
-0.00230256
2.38216e-06