/*--------------------------------*- C++ -*----------------------------------*\
| =========                 |                                                 |
| \\      /  F ield         | OpenFOAM: The Open Source CFD Toolbox           |
|  \\    /   O peration     | Version:  v2006                                 |
|   \\  /    A nd           | Website:  www.openfoam.com                      |
|    \\/     M anipulation  |                                                 |
\*---------------------------------------------------------------------------*/
FoamFile
{
    version     2.0;
    format      ascii;
    class       surfaceScalarField;
    location    "8.7";
    object      phi;
}
// * * * * * * * * * * * * * * * * * * * * * * * * * * * * * * * * * * * * * //

dimensions      [0 3 -1 0 0 0 0];
oriented        oriented;


internalField   nonuniform List<scalar> 
299200
(
0.00098288
-0.00098288
0.00211746
-0.00113458
0.00323945
-0.00112199
0.00434283
-0.00110338
0.00543568
-0.00109285
0.00652187
-0.00108619
0.00760284
-0.00108097
0.00867886
-0.00107602
0.00974961
-0.00107075
0.0108148
-0.00106522
0.0118742
-0.00105941
0.0129276
-0.00105338
0.0139748
-0.00104717
0.0150157
-0.00104087
0.0160502
-0.0010345
0.0170782
-0.00102806
0.0180998
-0.00102157
0.0191148
-0.00101503
0.0201232
-0.00100839
0.0211248
-0.0010016
0.0221194
-0.00099457
0.0231067
-0.000987287
0.0240864
-0.000979733
0.0250583
-0.000971851
0.0260218
-0.000963574
0.0269767
-0.000954846
0.0279223
-0.000945605
0.0288581
-0.000935774
0.0297833
-0.000925278
0.0306975
-0.000914136
0.0316
-0.000902501
0.0324906
-0.00089066
0.0333696
-0.000878935
0.0342371
-0.000867559
0.0350938
-0.000856635
0.0359398
-0.000846087
0.0367755
-0.000835681
0.0376006
-0.000825116
0.0384147
-0.000814031
0.0392166
-0.000801933
0.0400048
-0.000788153
0.0407769
-0.000772114
0.0415301
-0.00075326
0.0422619
-0.000731739
0.0429701
-0.000708191
0.0436539
-0.000683834
0.044314
-0.000660098
0.0449522
-0.00063822
0.0455719
-0.000619648
0.046176
-0.000604087
0.0467666
-0.000590636
0.0473449
-0.000578279
0.047911
-0.000566181
0.0484648
-0.000553761
0.0490054
-0.000540635
0.049532
-0.000526577
0.0500435
-0.000511437
0.0505385
-0.00049504
0.0510156
-0.000477146
0.0514731
-0.000457501
0.051909
-0.000435902
0.0523212
-0.000412146
0.052707
-0.000385787
0.0530636
-0.00035662
0.0533888
-0.000325218
0.0536821
-0.000293249
0.0539456
-0.000263555
0.0541853
-0.000239645
0.05441
-0.000224702
0.0546305
-0.000220499
0.0548571
-0.000226645
0.0550976
-0.000240514
0.0553554
-0.000257772
0.0556285
-0.000273118
0.0559097
-0.00028121
0.0561876
-0.000277852
0.0564485
-0.000260958
0.0566796
-0.000231108
0.056871
-0.000191329
0.0570171
-0.00014612
0.0571169
-9.98211e-05
0.0571721
-5.52181e-05
0.0571841
-1.19706e-05
0.0571528
3.12666e-05
0.0570847
6.8142e-05
0.0569887
9.59513e-05
0.0568715
0.0001172
0.056738
0.000133568
0.0565919
0.000146082
0.0564363
0.000155559
0.0562737
0.000162679
0.0561057
0.000167989
0.0559338
0.000171901
0.0557591
0.0001747
0.0555825
0.00017658
0.0554048
0.000177701
0.0552266
0.000178199
0.0550484
0.000178178
0.0548707
0.000177668
0.0546941
0.000176644
0.0545191
0.000175014
0.0543464
0.000172666
0.0541769
0.000169547
0.0540112
0.000165689
0.0538499
0.00016131
0.0536931
0.000156806
0.0535403
0.000152751
0.0533905
0.000149784
0.0532421
0.000148464
0.053093
0.000149035
0.0529421
0.000150977
0.0527892
0.000152847
0.0526364
0.000152772
0.0524877
0.00014876
0.0523482
0.000139449
0.0522239
0.000124354
0.0521193
0.000104541
0.0520368
8.25141e-05
0.0519737
6.31634e-05
0.0519211
5.25723e-05
0.0518632
5.79058e-05
0.0517716
9.15554e-05
0.051615
0.000156654
0.0513804
0.000234557
0.0510836
0.000296829
0.0507599
0.000323636
0.0504435
0.000316495
0.0501552
0.000288283
0.0499052
0.000249983
0.049694
0.000211175
0.0495181
0.000175875
0.0493739
0.000144226
0.049259
0.00011496
0.0491719
8.70448e-05
0.0491119
5.99913e-05
0.0490787
3.32338e-05
0.0490729
5.7381e-06
0.0490992
-2.62636e-05
0.0491609
-6.16491e-05
0.0492585
-9.76723e-05
0.0493909
-0.000132379
0.0495563
-0.000165346
0.0497527
-0.000196471
0.0499785
-0.000225759
0.0502318
-0.000253272
0.0505109
-0.000279095
0.0508142
-0.000303329
0.0511403
-0.000326079
0.0514877
-0.000347453
0.0518553
-0.000367558
0.0522418
-0.000386498
0.0526461
-0.000404368
0.0530674
-0.000421254
0.0535046
-0.00043723
0.053957
-0.000452357
0.0544237
-0.000466687
0.0549039
-0.000480266
0.0553971
-0.000493137
0.0559024
-0.000505341
0.0564193
-0.000516922
0.0569472
-0.000527918
0.0574856
-0.000538361
0.0580339
-0.000548268
0.0585915
-0.000557629
0.0591579
-0.000566407
0.0597324
-0.000574532
0.0603144
-0.000581914
0.0609028
-0.000588453
0.0614969
-0.000594061
0.0620956
-0.000598689
0.0626979
-0.000602346
0.063303
-0.000605114
0.0639102
-0.000607141
0.0645188
-0.000608628
0.0651286
-0.000609798
0.0657394
-0.000610856
0.0663514
-0.00061196
0.0669646
-0.000613197
0.0675792
-0.000614578
0.0681952
-0.000616037
0.0688127
-0.000617457
0.0694314
-0.000618691
0.070051
-0.000619589
0.070671
-0.000620027
0.0712909
-0.000619931
0.0719102
-0.000619298
0.0725284
-0.000618214
0.0731453
-0.000616858
0.0737608
-0.000615502
0.0743753
-0.000614499
0.0749896
-0.000614301
0.0756051
-0.00061552
0.0762242
-0.000619083
0.0768506
-0.00062644
0.0774902
-0.000639624
0.0781508
-0.000660587
0.0788393
-0.000688451
0.0795518
-0.000712476
0.0802505
-0.000698726
0.080827
-0.000576541
0.0811062
-0.000279155
0.0809898
0.000116355
0.080595
0.000394854
0.0801435
0.000451482
0.0797414
0.000402055
0.079409
0.000332408
0.0791312
0.000277872
0.078892
0.000239199
0.0786843
0.000207671
0.0785045
0.000179806
0.0783468
0.000157636
0.0782033
0.000143535
0.0780669
0.000136397
0.0779351
0.000131804
0.0778101
0.000125042
0.0776963
0.000113731
0.0775988
9.75122e-05
0.0775212
7.75908e-05
0.0774651
5.6122e-05
0.0774304
3.47395e-05
0.0774159
1.44454e-05
0.0774227
-6.77628e-06
0.0774499
-2.71715e-05
0.0774948
-4.49173e-05
0.0775539
-5.91281e-05
0.0776243
-7.04286e-05
0.077704
-7.97033e-05
0.0777919
-8.78356e-05
0.077887
-9.51385e-05
0.0779885
-0.000101517
0.0780952
-0.000106669
0.0782054
-0.000110224
0.0783173
-0.000111872
0.0784287
-0.000111397
0.0785374
-0.000108653
0.0786409
-0.000103545
0.0787368
-9.59522e-05
0.0788218
-8.49317e-05
0.0788912
-6.94394e-05
0.0789405
-4.92433e-05
0.0789544
-1.39133e-05
0.0788971
5.72859e-05
0.0787488
0.000148273
0.0785159
0.000232947
0.0782234
0.000292479
0.0779038
0.000319546
0.0775852
0.000318668
0.0772831
0.0003021
0.0770018
0.000281327
0.0767395
0.000262273
0.0764925
0.000246972
0.0762583
0.000234242
0.0760362
0.000222022
0.0758273
0.000208901
0.0756323
0.000195055
0.0754522
0.000180047
0.075288
0.000164265
0.0751396
0.000148374
0.0750064
0.000133201
0.0748867
0.00011973
0.0747768
0.000109832
0.0746727
0.000104153
0.0745694
0.000103265
0.0744627
0.000106752
0.0743494
0.000113274
0.0742279
0.000121458
0.0740983
0.000129631
0.0739619
0.000136451
0.0738207
0.000141173
0.0736769
0.000143742
0.0735323
0.000144676
0.0733875
0.000144763
0.0732427
0.000144752
0.0730976
0.000145151
0.0729514
0.000146157
0.0728037
0.000147703
0.0726542
0.000149569
0.0725027
0.000151516
0.0723493
0.000153379
0.0721941
0.000155148
0.0720373
0.000156784
0.0718787
0.000158665
0.0717181
0.000160569
0.0715556
0.000162508
0.071391
0.000164638
0.071224
0.000166949
0.0710546
0.000169404
0.0708826
0.000172004
0.0707079
0.000174727
0.0705303
0.000177565
0.0703498
0.000180519
0.0701662
0.000183593
0.0699794
0.000186794
0.0697893
0.000190131
0.0695957
0.000193617
0.0693984
0.000197263
0.0691973
0.000201084
0.0689922
0.000205093
0.0687829
0.000209306
0.0685692
0.000213737
0.0683508
0.0002184
0.0681275
0.000223312
0.067899
0.000228488
0.067665
0.000233945
0.0674253
0.0002397
0.0671796
0.000245768
0.0669274
0.000252164
0.0666685
0.0002589
0.0664025
0.000265989
0.0661291
0.000273443
0.0658478
0.000281274
0.0655583
0.000289495
0.0652602
0.000298114
0.064953
0.000307142
0.0646365
0.000316585
0.06431
0.000326451
0.0639733
0.000336747
0.0636258
0.000347478
0.0632671
0.000358644
0.0628969
0.000370245
0.0625146
0.000382277
0.0621199
0.000394737
0.0617123
0.000407617
0.0612914
0.000420908
0.0608568
0.000434601
0.0604081
0.000448688
0.0599449
0.000463157
0.0594669
0.000477993
0.0589737
0.000493178
0.058465
0.000508688
0.0579405
0.000524503
0.0573999
0.000540599
0.056843
0.000556948
0.0562695
0.000573513
0.0556792
0.000590257
0.0550721
0.000607147
0.0544479
0.00062416
0.0538066
0.000641287
0.0531481
0.000658529
0.0524722
0.000675898
0.0517788
0.000693399
0.0510678
0.000711001
0.0503392
0.000728617
0.0495931
0.000746068
0.04883
0.000763076
0.0480508
0.000779253
0.0472567
0.000794129
0.0464494
0.000807228
0.0456313
0.000818164
0.0448045
0.000826795
0.0439711
0.000833376
0.0431326
0.000838525
0.0422895
0.000843105
0.0414414
0.000848046
0.0405874
0.000854013
0.0397262
0.000861244
0.0388566
0.000869568
0.0379781
0.000878488
0.0370907
0.000887394
0.0361949
0.000895789
0.0352916
0.000903373
0.0343815
0.000910056
0.0334656
0.000915934
0.0325444
0.00092119
0.0316184
0.000925974
0.0306881
0.00093032
0.0297539
0.000934142
0.0288167
0.000937268
0.0278772
0.000939509
0.0269364
0.000940725
0.0259956
0.000940859
0.0250557
0.000939924
0.0241177
0.000937968
0.0231826
0.000935039
0.0222515
0.000931177
0.0213251
0.000926412
0.0204043
0.000920752
0.0194901
0.000914202
0.0185833
0.000906771
0.0176849
0.000898479
0.0167955
0.000889373
0.015916
0.00087953
0.0150469
0.000869017
0.014189
0.000857911
0.0133428
0.000846223
0.0125088
0.000833963
0.0116878
0.000821062
0.0108802
0.000807615
0.0100868
0.000793361
0.00930835
0.000778448
0.00854548
0.000762877
0.0077988
0.000746674
0.00706895
0.000729855
0.0063565
0.000712447
0.00566197
0.000694531
0.00498569
0.000676276
0.00432777
0.000657923
0.00368841
0.000639359
0.00306831
0.0006201
0.00247041
0.000597898
0.00189874
0.000571675
0.00135627
0.000542467
0.000842988
0.000513285
0.000356923
0.000486065
-0.000103993
0.000460916
-0.00054124
0.000437247
-0.000955984
0.000414744
-0.00134914
0.000393156
-0.00172145
0.000372308
-0.00207352
0.000352074
-0.0024059
0.00033238
-0.0027191
0.0003132
-0.00301353
0.000294432
-0.00328966
0.000276126
-0.0035479
0.000258239
-0.00378865
0.000240749
-0.00401241
0.000223763
-0.00421947
0.000207056
-0.00441027
0.000190805
-0.00458525
0.000174973
-0.00474488
0.000159635
-0.00488944
0.000144563
-0.00501951
0.000130068
-0.00513548
0.000115966
-0.00523795
0.000102476
-0.00532724
8.92884e-05
-0.00540396
7.67152e-05
-0.00546881
6.48493e-05
-0.00552271
5.39059e-05
-0.00556705
4.43319e-05
-0.00560362
3.65774e-05
-0.00563414
3.05206e-05
-0.00566025
2.61062e-05
-0.00568258
2.23289e-05
-0.00570057
1.79878e-05
-0.00571299
1.24188e-05
-0.00571804
5.05793e-06
-0.00571413
-3.91632e-06
-0.00570121
-1.29218e-05
-0.00567956
-2.16432e-05
-0.00564985
-2.97129e-05
-0.00561274
-3.71117e-05
-0.00556874
-4.40021e-05
-0.00551819
-5.05443e-05
-0.00546137
-5.68167e-05
-0.00539855
-6.28275e-05
-0.00532999
-6.85532e-05
-0.00525603
-7.39613e-05
-0.00517702
-7.90086e-05
-0.00509335
-8.36715e-05
-0.00500543
-8.79216e-05
-0.00491372
-9.17144e-05
-0.0048187
-9.50164e-05
-0.00472089
-9.78081e-05
-0.0046208
-0.00010009
-0.00451892
-0.000101884
-0.00441569
-0.000103226
-0.00431154
-0.000104156
-0.00420683
-0.000104709
-0.00410191
-0.00010492
-0.00399708
-0.000104831
-0.0038926
-0.00010448
-0.00378869
-0.000103903
-0.00368556
-0.000103132
-0.00358335
-0.00010221
-0.00348217
-0.000101178
-0.0033821
-0.000100076
-0.00328316
-9.89378e-05
-0.00318537
-9.77868e-05
-0.00308873
-9.6644e-05
-0.00299318
-9.55433e-05
-0.00289866
-9.45275e-05
-0.00280503
-9.36284e-05
-0.00271217
-9.28561e-05
-0.00261996
-9.22082e-05
-0.00252829
-9.16779e-05
-0.00243702
-9.1269e-05
-0.00234604
-9.09766e-05
-0.00225526
-9.07792e-05
-0.00216461
-9.06539e-05
-0.00207403
-9.05812e-05
-0.00198346
-9.05624e-05
-0.00189286
-9.05996e-05
-0.00180217
-9.06911e-05
-0.00171133
-9.08392e-05
-0.00162032
-9.10109e-05
-0.00152923
-9.1093e-05
-0.00143828
-9.09538e-05
-0.0013477
-9.05793e-05
-0.00125759
-9.01036e-05
-0.00116763
-8.996e-05
-0.00107693
-9.07017e-05
-0.000983883
-9.30487e-05
-0.00088456
-9.93225e-05
-0.000768766
-0.000115795
-0.000615421
-0.000153344
-0.000398915
-0.000216506
-0.000122976
-0.00027594
8.0067e-05
-0.000203043
8.0067e-05
0.000711625
-0.00169451
0.00149527
-0.00191823
0.00223936
-0.00186608
0.00296779
-0.0018318
0.00369266
-0.00181773
0.00441447
-0.001808
0.00513295
-0.00179945
0.00584808
-0.00179115
0.00656012
-0.00178279
0.00726947
-0.00177456
0.00797662
-0.00176657
0.00868227
-0.00175903
0.00938695
-0.00175184
0.0100913
-0.00174525
0.0107957
-0.00173886
0.0115002
-0.0017326
0.012205
-0.00172631
0.0129097
-0.00171973
0.013614
-0.00171271
0.0143172
-0.00170482
0.0150186
-0.00169593
0.0157172
-0.00168594
0.0164123
-0.00167478
0.0171027
-0.00166232
0.0177876
-0.00164841
0.0184657
-0.00163292
0.0191359
-0.00161587
0.0197975
-0.00159733
0.0204499
-0.00157774
0.0210937
-0.00155787
0.0217301
-0.00153891
0.0223615
-0.00152203
0.0229904
-0.00150784
0.0236188
-0.00149603
0.0242474
-0.00148524
0.0248747
-0.00147338
0.0254971
-0.00145805
0.0261088
-0.00143678
0.0267022
-0.00140744
0.0272685
-0.00136831
0.0277994
-0.00131901
0.0282892
-0.00126193
0.0287384
-0.00120248
0.0291543
-0.00114764
0.0295507
-0.00110452
0.0299458
-0.00107901
0.0303597
-0.00107395
0.0308068
-0.00108531
0.0312931
-0.00110599
0.0318162
-0.00112721
0.0323677
-0.0011421
0.0329368
-0.00114732
0.0335131
-0.00114254
0.0340886
-0.00112925
0.0346576
-0.00110963
0.0352167
-0.00108568
0.0357639
-0.00105866
0.0362977
-0.00102887
0.0368165
-0.000995937
0.0373182
-0.000959169
0.0378003
-0.00091797
0.0382602
-0.000872096
0.0386962
-0.00082174
0.0391072
-0.000767686
0.0394935
-0.000711491
0.0398556
-0.000655375
0.0401942
-0.00060207
0.0405091
-0.000554599
0.0408
-0.00051557
0.0410659
-0.000486432
0.0413062
-0.000466972
0.041521
-0.000455248
0.0417111
-0.000447866
0.0418783
-0.000440336
0.042025
-0.00042798
0.0421545
-0.000407283
0.0422698
-0.000376297
0.0423738
-0.00033512
0.0424683
-0.000285837
0.0425541
-0.000231883
0.0426314
-0.000177108
0.0427011
-0.000124948
0.0427676
-7.84624e-05
0.0428347
-3.58034e-05
0.0428969
5.88717e-06
0.0429545
3.83863e-05
0.0430014
7.0306e-05
0.0430358
9.91567e-05
0.0430572
0.000124713
0.0430658
0.000146909
0.0430627
0.000165845
0.0430489
0.000181754
0.0430259
0.000194917
0.0429949
0.000205711
0.042957
0.000214414
0.0429135
0.000221228
0.0428654
0.000226298
0.0428139
0.000229698
0.0427601
0.000231467
0.0427051
0.000231599
0.0426499
0.000230201
0.0425952
0.000227424
0.0425412
0.000223531
0.042488
0.000218874
0.0424354
0.000213894
0.0423832
0.000209045
0.0423313
0.000204617
0.0422803
0.000200836
0.0422313
0.000197431
0.0421865
0.000193832
0.0421482
0.000189299
0.0421185
0.000182522
0.0420994
0.000171896
0.0420923
0.000155823
0.0420991
0.000132654
0.0421217
0.000101725
0.0421616
6.46946e-05
0.0422183
2.58318e-05
0.0422875
-6.08177e-06
0.0423668
-2.67081e-05
0.042448
-2.32563e-05
0.0425274
1.21191e-05
0.0426119
7.21586e-05
0.0426808
0.000165675
0.0426953
0.000282331
0.0426153
0.000403607
0.0424283
0.00050349
0.0421551
0.000561492
0.0418311
0.000573966
0.041496
0.000546291
0.0411822
0.000489652
0.0409104
0.000416017
0.0406901
0.000335345
0.0405223
0.00025477
0.040404
0.000178278
0.0403306
0.000106649
0.0402972
3.9172e-05
0.0402921
-2.1205e-05
0.0403083
-7.78672e-05
0.0403423
-0.000131601
0.0403928
-0.000182938
0.0404595
-0.000232055
0.0405421
-0.000279071
0.0406405
-0.000324072
0.0407543
-0.000367136
0.0408836
-0.000408357
0.0410281
-0.000447847
0.0411878
-0.000485729
0.0413624
-0.000522125
0.041552
-0.000557149
0.0417564
-0.000590896
0.0419755
-0.000623446
0.0422091
-0.000654864
0.0424571
-0.000685201
0.0427192
-0.000714507
0.0429954
-0.000742827
0.0432853
-0.0007702
0.0435888
-0.000796652
0.0439057
-0.00082218
0.0442355
-0.000846743
0.0445778
-0.000870257
0.044932
-0.000892593
0.0452974
-0.000913599
0.0456729
-0.000933133
0.0460576
-0.000951104
0.0464506
-0.000967525
0.0468512
-0.000982551
0.0472593
-0.000996498
0.047675
-0.00100984
0.0480995
-0.00102314
0.0485341
-0.00103699
0.0489809
-0.00105189
0.0494419
-0.00106815
0.0499191
-0.00108581
0.0504139
-0.00110461
0.0509271
-0.00112404
0.0514585
-0.00114338
0.0520072
-0.00116188
0.0525714
-0.0011788
0.053149
-0.0011936
0.0537374
-0.00120592
0.0543344
-0.00121566
0.0549378
-0.00122294
0.0555458
-0.00122805
0.0561573
-0.00123142
0.0567715
-0.00123357
0.0573884
-0.00123506
0.058008
-0.00123652
0.0586312
-0.00123865
0.0592589
-0.00124223
0.0598929
-0.00124826
0.0605354
-0.00125808
0.06119
-0.00127366
0.0618614
-0.00129778
0.0625558
-0.00133408
0.0632817
-0.00138645
0.0640499
-0.0014567
0.0648771
-0.00153968
0.0657937
-0.00161533
0.0668603
-0.00164313
0.0681548
-0.00157359
0.0696456
-0.00137443
0.0711218
-0.00108141
0.0723747
-0.000801445
0.0733808
-0.00060404
0.0741996
-0.00048635
0.0748912
-0.000413682
0.0754902
-0.000359884
0.0760105
-0.000312575
0.0764586
-0.00026833
0.0768423
-0.000225994
0.0771693
-0.000183476
0.0774433
-0.000137657
0.0776611
-8.59686e-05
0.0778139
-2.77422e-05
0.0778882
3.94475e-05
0.0778755
0.00011013
0.0777759
0.000177279
0.0775974
0.000234565
0.0773567
0.000275405
0.0770763
0.00029488
0.0767792
0.00029034
0.0764896
0.000262396
0.076231
0.000213691
0.0760226
0.00014925
0.0758762
7.5961e-05
0.075795
1.56374e-06
0.0757755
-6.83581e-05
0.0758096
-0.000129214
0.0758866
-0.00017858
0.0759962
-0.000216208
0.0761291
-0.000243179
0.0762785
-0.000261202
0.0764391
-0.000272078
0.0766079
-0.000277382
0.0767826
-0.000278314
0.0769624
-0.000275669
0.0771474
-0.000270011
0.0773399
-0.000261869
0.0775427
-0.000252079
0.0777713
-0.00024247
0.0780593
-0.000230699
0.078421
-0.000213521
0.0788444
-0.000190449
0.0793001
-0.00016322
0.0797548
-0.00013508
0.0801824
-0.000108987
0.0805708
-8.62382e-05
0.0809188
-6.66722e-05
0.0812314
-5.03468e-05
0.0815142
-3.58865e-05
0.0817711
-2.25784e-05
0.0820036
-1.04852e-05
0.0822131
-6.19385e-07
0.0823991
9.02256e-06
0.0825633
1.58444e-05
0.0827083
1.92488e-05
0.082838
1.8742e-05
0.0829573
1.38811e-05
0.0830729
4.16758e-06
0.0831897
-7.05723e-06
0.0833153
-2.13903e-05
0.0834558
-3.72716e-05
0.0836157
-5.31625e-05
0.0837965
-6.7456e-05
0.0839971
-7.91946e-05
0.0842153
-8.85457e-05
0.0844478
-9.60995e-05
0.0846917
-0.000102638
0.0849441
-0.000108701
0.0852031
-0.000114288
0.0854666
-0.000118754
0.0857323
-0.000120943
0.0859969
-0.000119521
0.0862565
-0.000113378
0.0865061
-0.000101955
0.0867411
-8.53921e-05
0.0869571
-6.44452e-05
0.0871507
-4.03011e-05
0.0873203
-1.43852e-05
0.0874672
9.87412e-06
0.0875939
3.19552e-05
0.0877032
5.12585e-05
0.0877972
6.85524e-05
0.087877
8.48384e-05
0.0879432
0.000100682
0.087996
0.000116605
0.0880351
0.000132914
0.0880601
0.000149713
0.0880706
0.000167065
0.0880662
0.000185
0.0880462
0.000203525
0.0880104
0.00022264
0.0879582
0.000242343
0.0878892
0.000262627
0.0878029
0.000283489
0.0876991
0.000304922
0.0875773
0.00032692
0.0874371
0.000349475
0.0872782
0.000372583
0.0871004
0.000396237
0.0869033
0.000420434
0.0866866
0.000445176
0.0864501
0.000470465
0.0861935
0.000496309
0.0859165
0.000522714
0.085619
0.00054969
0.0853007
0.000577246
0.0849612
0.000605393
0.0846006
0.00063414
0.0842183
0.000663499
0.0838143
0.000693481
0.0833884
0.000724094
0.0829402
0.000755346
0.0824695
0.00078724
0.0819762
0.000819778
0.08146
0.000852957
0.0809207
0.000886771
0.0803581
0.000921211
0.0797721
0.000956261
0.0791625
0.000991904
0.0785291
0.00102811
0.0778718
0.00106486
0.0771907
0.0011021
0.0764855
0.0011398
0.0757562
0.00117791
0.075003
0.00121637
0.0742259
0.00125514
0.0734249
0.00129414
0.0726003
0.00133331
0.0717522
0.00137257
0.070881
0.00141184
0.0699869
0.00145103
0.0690704
0.00149006
0.0681318
0.0015288
0.0671718
0.00156716
0.066191
0.001605
0.06519
0.00164221
0.0641699
0.00167867
0.0631315
0.00171428
0.0620759
0.00174897
0.0610043
0.00178268
0.0599176
0.00181532
0.0588169
0.00184673
0.0577034
0.00187662
0.0565781
0.00190452
0.0554425
0.00192972
0.0542983
0.0019514
0.0531478
0.00196872
0.0519934
0.00198116
0.050838
0.00198883
0.0496838
0.00199268
0.0485325
0.00199442
0.0473844
0.00199618
0.0462385
0.00199984
0.0450933
0.00200645
0.0439469
0.00201594
0.0427982
0.00202728
0.0416466
0.00203896
0.0404928
0.00204956
0.0393381
0.00205808
0.038184
0.00206416
0.037032
0.00206791
0.0358835
0.00206972
0.0347396
0.00206993
0.0336012
0.00206864
0.0324697
0.00206565
0.0313464
0.00206059
0.0302328
0.00205313
0.0291304
0.00204312
0.0280406
0.0020306
0.0269648
0.00201577
0.0259039
0.00199889
0.0248588
0.00198014
0.0238303
0.00195968
0.0228191
0.0019376
0.0218258
0.001914
0.0208511
0.00188896
0.0198953
0.00186259
0.0189588
0.00183499
0.0180419
0.00180625
0.0171449
0.00177647
0.0162683
0.00174565
0.0154125
0.00171376
0.0145779
0.0016808
0.0137651
0.00164673
0.0129745
0.00161164
0.0122068
0.00157537
0.0114618
0.00153832
0.0107398
0.00150043
0.0100409
0.0014618
0.00936505
0.00142254
0.00871216
0.00138274
0.00808211
0.0013425
0.00747476
0.00130188
0.00689006
0.00126098
0.00632817
0.00121982
0.00578918
0.00117835
0.00527318
0.0011361
0.004777
0.00109408
0.00429655
0.00105212
0.00382779
0.00101122
0.00336921
0.000971867
0.00292226
0.000933018
0.00248855
0.000894623
0.00206931
0.000856491
0.00166547
0.000818582
0.0012777
0.000780927
0.000906416
0.00074359
0.000551901
0.000706589
0.000214337
0.000669944
-0.000106216
0.000633753
-0.000409791
0.000598008
-0.000696455
0.000562791
-0.000966266
0.000528049
-0.00121933
0.000493812
-0.0014557
0.000460137
-0.00167583
0.000427186
-0.00187972
0.000394695
-0.00206764
0.000362891
-0.00223988
0.000331877
-0.00239681
0.000301494
-0.00253844
0.000271694
-0.00266551
0.000243034
-0.00277786
0.000214834
-0.00287646
0.000187885
-0.00296149
0.000161741
-0.00303346
0.000136819
-0.00309318
0.000113632
-0.00314068
9.18281e-05
-0.00317613
7.2025e-05
-0.00319915
5.35398e-05
-0.00320879
3.57542e-05
-0.00320419
1.77279e-05
-0.00318478
-1.42709e-06
-0.00315059
-2.17744e-05
-0.00310273
-4.28012e-05
-0.00304313
-6.35172e-05
-0.00297335
-8.27005e-05
-0.00289507
-9.99182e-05
-0.00280958
-0.000115206
-0.00271781
-0.000128883
-0.00262052
-0.000141286
-0.00251846
-0.000152612
-0.00241236
-0.00016291
-0.00230304
-0.000172154
-0.00219129
-0.000180301
-0.00207793
-0.000187322
-0.00196373
-0.000193203
-0.00184946
-0.000197943
-0.00173583
-0.000201553
-0.00162349
-0.000204054
-0.00151303
-0.00020548
-0.00140496
-0.00020588
-0.00129973
-0.000205316
-0.00119775
-0.000203866
-0.00109936
-0.000201618
-0.00100486
-0.000198651
-0.000914544
-0.000195026
-0.000828661
-0.000190803
-0.000747447
-0.000186045
-0.000671104
-0.000180824
-0.000599802
-0.000175204
-0.00053368
-0.000169255
-0.00047284
-0.00016305
-0.000417353
-0.000156664
-0.00036726
-0.000150169
-0.000322565
-0.000143633
-0.000283236
-0.000137116
-0.000249189
-0.000130691
-0.000220291
-0.000124441
-0.000196375
-0.000118443
-0.000177246
-0.000112758
-0.000162657
-0.000107444
-0.000152312
-0.000102554
-0.000145866
-9.81233e-05
-0.000142961
-9.41738e-05
-0.000143212
-9.0726e-05
-0.000146224
-8.77671e-05
-0.000151613
-8.52648e-05
-0.000159023
-8.31715e-05
-0.000168145
-8.144e-05
-0.000178724
-8.00208e-05
-0.000190554
-7.88616e-05
-0.000203439
-7.79535e-05
-0.000217117
-7.73333e-05
-0.000231171
-7.70388e-05
-0.000245039
-7.70863e-05
-0.000258267
-7.7351e-05
-0.000271304
-7.70666e-05
-0.000286717
-7.45474e-05
-0.000309871
-6.75476e-05
-0.00034667
-5.6249e-05
-0.000395367
-5.06261e-05
-0.000432907
-7.82545e-05
-0.000408376
-0.000177875
-0.000265757
-0.000359125
-1.62914e-05
-0.000525405
0.000195368
-0.000414703
0.000275435
0.00062997
-0.00232448
0.00135064
-0.0026389
0.002013
-0.00252845
0.00264788
-0.00246667
0.00327838
-0.00244824
0.003912
-0.00244161
0.00455047
-0.00243792
0.00519528
-0.00243596
0.0058482
-0.00243572
0.00651055
-0.00243691
0.00718372
-0.00243973
0.00786855
-0.00244386
0.0085657
-0.002449
0.00927486
-0.00245441
0.00999565
-0.00245965
0.0107272
-0.0024641
0.0114681
-0.00246723
0.0122169
-0.00246852
0.0129718
-0.00246761
0.0137311
-0.00246416
0.0144932
-0.002458
0.0152564
-0.00244915
0.0160192
-0.00243765
0.0167805
-0.00242358
0.0175391
-0.00240706
0.0182946
-0.00238835
0.0190465
-0.00236776
0.0197949
-0.0023458
0.0205403
-0.00232307
0.0212826
-0.00230022
0.0220214
-0.00227771
0.022755
-0.0022556
0.0234804
-0.00223326
0.0241938
-0.00220947
0.0248911
-0.00218251
0.0255682
-0.00215048
0.0262221
-0.00211199
0.0268521
-0.00206677
0.0274605
-0.0020158
0.0280535
-0.00196136
0.0286412
-0.00190667
0.0292353
-0.00185601
0.0298475
-0.00181465
0.0304876
-0.00178776
0.0311617
-0.00177868
0.0318698
-0.00178712
0.0326044
-0.00180852
0.0333537
-0.00183456
0.0341041
-0.00185646
0.0348434
-0.00186646
0.0355613
-0.00185997
0.0362501
-0.00183617
0.0369048
-0.00179726
0.0375227
-0.00174712
0.0381029
-0.00168983
0.0386458
-0.00162856
0.0391521
-0.00156495
0.0396225
-0.00149928
0.0400576
-0.00143102
0.040458
-0.00135961
0.040825
-0.00128497
0.0411606
-0.00120774
0.0414681
-0.00112914
0.0417512
-0.00105079
0.0420141
-0.000974471
0.0422607
-0.000901935
0.0424935
-0.000834861
0.0427135
-0.000774608
0.0429199
-0.000721998
0.0431106
-0.000677097
0.0432827
-0.000639057
0.0434336
-0.000606146
0.0435617
-0.00057598
0.0436671
-0.000545791
0.0437518
-0.000512671
0.0438188
-0.000474287
0.0438719
-0.000429342
0.0439147
-0.000377903
0.0439502
-0.000321338
0.0439802
-0.00026189
0.0440051
-0.00020205
0.044024
-0.000143862
0.0440344
-8.88459e-05
0.0440367
-3.81199e-05
0.0440363
6.31177e-06
0.044022
5.26854e-05
0.0439986
9.37051e-05
0.0439664
0.000131392
0.0439256
0.000165452
0.0438767
0.000195802
0.04382
0.000222559
0.0437558
0.000245944
0.0436847
0.00026605
0.0436073
0.000283081
0.0435244
0.000297314
0.0434369
0.000308738
0.0433457
0.000317574
0.0432514
0.000323916
0.0431548
0.000328066
0.0430562
0.000330204
0.0429558
0.000330644
0.0428536
0.000329646
0.0427496
0.000327501
0.0426442
0.000324228
0.0425381
0.000320004
0.0424324
0.000314794
0.0423285
0.000308525
0.0422282
0.000301111
0.042133
0.000292589
0.0420442
0.000282653
0.0419621
0.000271403
0.0418864
0.000258269
0.0418152
0.00024308
0.0417458
0.000225176
0.0416747
0.000203809
0.0415975
0.000178903
0.0415109
0.000151316
0.041413
0.000123724
0.0413059
0.000100963
0.0411908
8.84293e-05
0.041075
9.25557e-05
0.0409717
0.000115445
0.0408844
0.000159463
0.0408243
0.000225704
0.040799
0.00030771
0.040812
0.000390581
0.0408588
0.000456689
0.0409294
0.000490881
0.0410161
0.000487238
0.0411135
0.00044889
0.0412176
0.000385531
0.0413252
0.000308425
0.041434
0.000226597
0.0415425
0.000146249
0.0416501
7.07036e-05
0.0417585
-1.78236e-06
0.0418696
-7.19528e-05
0.0419858
-0.000137384
0.042109
-0.000201067
0.0422409
-0.000263495
0.0423826
-0.000324636
0.0425349
-0.000384341
0.0426983
-0.000442478
0.0428732
-0.000498975
0.0430599
-0.000553823
0.0432586
-0.00060707
0.0434695
-0.0006588
0.0436929
-0.000709116
0.0439289
-0.000758114
0.0441776
-0.000805871
0.0444392
-0.000852434
0.0447136
-0.000897826
0.0450008
-0.000942051
0.0453007
-0.000985102
0.0456131
-0.00102696
0.0459379
-0.00106761
0.0462747
-0.00110701
0.0466231
-0.00114509
0.0469827
-0.00118175
0.0473528
-0.00121683
0.0477327
-0.00125018
0.0481217
-0.0012816
0.0485191
-0.00131097
0.0489242
-0.00133828
0.0493368
-0.00136369
0.0497569
-0.00138758
0.0501849
-0.00141054
0.0506217
-0.00143335
0.0510687
-0.00145684
0.0515274
-0.00148178
0.0519991
-0.0015087
0.0524849
-0.00153775
0.0529854
-0.00156861
0.0535001
-0.00160049
0.0540276
-0.00163218
0.0545659
-0.00166228
0.0551118
-0.0016893
0.0556619
-0.001712
0.0562125
-0.00172943
0.0567601
-0.00174114
0.0573013
-0.00174715
0.0578336
-0.00174793
0.0583549
-0.00174428
0.0588641
-0.00173721
0.0593605
-0.00172783
0.0598442
-0.00171724
0.0603155
-0.00170643
0.0607753
-0.00169629
0.0612243
-0.00168761
0.0616631
-0.00168107
0.0620922
-0.00167736
0.0625114
-0.00167724
0.0629194
-0.00168168
0.0633135
-0.00169187
0.0636885
-0.00170915
0.0640365
-0.00173442
0.0643468
-0.00176694
0.0646091
-0.00180204
0.064822
-0.00182819
0.0650042
-0.00182535
0.0651973
-0.00176673
0.065449
-0.00162606
0.0657819
-0.00141431
0.0661765
-0.00119604
0.0665989
-0.00102646
0.0670263
-0.000913761
0.0674533
-0.000840711
0.0678798
-0.000786401
0.0683056
-0.000738343
0.0687299
-0.000692654
0.0691528
-0.000648872
0.0695752
-0.000605854
0.0699983
-0.000560752
0.0704224
-0.000510079
0.0708461
-0.000451444
0.0712696
-0.000384108
0.0716901
-0.000310357
0.0721026
-0.000235182
0.0725025
-0.000165319
0.0728864
-0.000108504
0.0732528
-7.15476e-05
0.0736019
-5.86946e-05
0.0739346
-7.036e-05
0.0742517
-0.000103401
0.0745528
-0.000151816
0.0748367
-0.000207988
0.0751027
-0.000264411
0.0753499
-0.000315524
0.0755785
-0.000357844
0.0757899
-0.000389986
0.0759859
-0.000412238
0.0761686
-0.00042586
0.0763399
-0.000432499
0.0765016
-0.000433756
0.0766551
-0.000430952
0.0768019
-0.000425042
0.0769429
-0.000416657
0.0770791
-0.000406265
0.0772111
-0.000393857
0.0773376
-0.000378529
0.0774566
-0.000361474
0.0775715
-0.000345637
0.0776886
-0.000330589
0.0778121
-0.000313988
0.0779432
-0.000294298
0.07808
-0.000271942
0.0782199
-0.000248831
0.0783607
-0.000227022
0.0785018
-0.000207829
0.0786434
-0.000191906
0.0787865
-0.000179001
0.0789326
-0.000168701
0.079083
-0.000160868
0.0792378
-0.00015544
0.0793988
-0.000151927
0.079566
-0.000151331
0.0797394
-0.000154152
0.0799187
-0.000160625
0.0801034
-0.00017079
0.0802919
-0.000184387
0.0804848
-0.000199951
0.0806804
-0.000216968
0.0808773
-0.000234192
0.0810745
-0.000250296
0.0812712
-0.00026422
0.0814675
-0.000275465
0.0816629
-0.000283976
0.0818569
-0.000290013
0.0820483
-0.000294038
0.082236
-0.000296442
0.082419
-0.000297307
0.0825965
-0.000296278
0.0827682
-0.000292605
0.082934
-0.000285338
0.0830942
-0.000273611
0.0832492
-0.000256923
0.0833991
-0.00023532
0.0835441
-0.000209434
0.0836842
-0.000180353
0.0838191
-0.000149339
0.0839468
-0.000117785
0.0840651
-8.63645e-05
0.0841724
-5.60197e-05
0.0842681
-2.71229e-05
0.0843517
1.16585e-06
0.0844239
2.85565e-05
0.0844848
5.56217e-05
0.0845348
8.29291e-05
0.0845737
0.000110848
0.0846011
0.000139633
0.0846167
0.000169433
0.0846199
0.000200344
0.0846101
0.000232426
0.0845867
0.000265714
0.0845491