/*--------------------------------*- C++ -*----------------------------------*\
| =========                 |                                                 |
| \\      /  F ield         | OpenFOAM: The Open Source CFD Toolbox           |
|  \\    /   O peration     | Version:  v2006                                 |
|   \\  /    A nd           | Website:  www.openfoam.com                      |
|    \\/     M anipulation  |                                                 |
\*---------------------------------------------------------------------------*/
FoamFile
{
    version     2.0;
    format      ascii;
    class       volVectorField;
    location    "9.5";
    object      U;
}
// * * * * * * * * * * * * * * * * * * * * * * * * * * * * * * * * * * * * * //

dimensions      [0 1 -1 0 0 0 0];


internalField   nonuniform List<vector> 
50000
(
(-0.00185214 0.00146056 0)
(-0.00378312 2.77398e-05 0)
(-0.00476694 0.000163281 0)
(-0.00700294 0.000422016 0)
(-0.00869888 0.000518961 0)
(-0.0108837 0.00053914 0)
(-0.0127564 0.00054206 0)
(-0.0147736 0.000541701 0)
(-0.0167229 0.000552446 0)
(-0.0186752 0.000560604 0)
(-0.0206201 0.000570127 0)
(-0.022546 0.00057868 0)
(-0.0244562 0.000586917 0)
(-0.0263487 0.000595284 0)
(-0.0282205 0.00060386 0)
(-0.0300698 0.000613831 0)
(-0.0318953 0.000625408 0)
(-0.0336961 0.000638447 0)
(-0.0354713 0.000653497 0)
(-0.0372205 0.000670771 0)
(-0.0389423 0.000689595 0)
(-0.0406359 0.000710336 0)
(-0.0423009 0.000733179 0)
(-0.043938 0.000758305 0)
(-0.0455475 0.000785363 0)
(-0.0471296 0.000812906 0)
(-0.048684 0.000842582 0)
(-0.0502118 0.000875618 0)
(-0.0517155 0.000913371 0)
(-0.0531944 0.000957192 0)
(-0.0546519 0.00100645 0)
(-0.0560921 0.00106278 0)
(-0.057517 0.00112604 0)
(-0.0589284 0.00119424 0)
(-0.0603268 0.00126154 0)
(-0.0617105 0.00132185 0)
(-0.0630716 0.00136876 0)
(-0.0644003 0.00139829 0)
(-0.0656854 0.00140891 0)
(-0.0669166 0.00140274 0)
(-0.0680862 0.0013846 0)
(-0.0691844 0.00136084 0)
(-0.0702122 0.00133556 0)
(-0.0711756 0.00131417 0)
(-0.0720707 0.00129665 0)
(-0.0728998 0.00127169 0)
(-0.0736567 0.00122666 0)
(-0.0743224 0.00114556 0)
(-0.0748738 0.00102235 0)
(-0.0752849 0.000861308 0)
(-0.075541 0.000678273 0)
(-0.075639 0.000493798 0)
(-0.075585 0.000321494 0)
(-0.0753895 0.000166677 0)
(-0.0750628 2.74502e-05 0)
(-0.0746126 -0.000101965 0)
(-0.0740446 -0.000225002 0)
(-0.0733628 -0.000343158 0)
(-0.0725714 -0.000456793 0)
(-0.0716745 -0.000565411 0)
(-0.0706763 -0.000668415 0)
(-0.0695811 -0.00076576 0)
(-0.0683935 -0.000857573 0)
(-0.0671186 -0.000944063 0)
(-0.0657606 -0.00102495 0)
(-0.0643244 -0.00110004 0)
(-0.0628153 -0.00116942 0)
(-0.0612381 -0.00123281 0)
(-0.0595978 -0.00128998 0)
(-0.0578994 -0.00134121 0)
(-0.0561485 -0.00138635 0)
(-0.0543501 -0.00142552 0)
(-0.0525092 -0.00145858 0)
(-0.050631 -0.00148575 0)
(-0.0487211 -0.00150671 0)
(-0.0467844 -0.00152089 0)
(-0.0448266 -0.00152767 0)
(-0.0428548 -0.00152685 0)
(-0.0408737 -0.0015167 0)
(-0.0388905 -0.00149676 0)
(-0.0369148 -0.00146715 0)
(-0.0349556 -0.00142751 0)
(-0.0330203 -0.00137744 0)
(-0.0311136 -0.00131754 0)
(-0.0292469 -0.00124913 0)
(-0.0274313 -0.00117081 0)
(-0.0256723 -0.00108207 0)
(-0.0239761 -0.000982767 0)
(-0.0223554 -0.000873384 0)
(-0.0208202 -0.000751944 0)
(-0.0193784 -0.000618237 0)
(-0.0180423 -0.000471225 0)
(-0.0168231 -0.000308197 0)
(-0.0157328 -0.000125011 0)
(-0.0147891 8.69271e-05 0)
(-0.0140154 0.00034017 0)
(-0.0134358 0.000637994 0)
(-0.0130734 0.000955403 0)
(-0.0129353 0.00124552 0)
(-0.0129838 0.0014731 0)
(-0.0131686 0.00162409 0)
(-0.0134448 0.00171173 0)
(-0.0137629 0.00175209 0)
(-0.0140891 0.00175829 0)
(-0.0144011 0.00174049 0)
(-0.0146811 0.00170218 0)
(-0.0149173 0.0016402 0)
(-0.015102 0.00155493 0)
(-0.0152226 0.0014392 0)
(-0.0152695 0.00129368 0)
(-0.0152334 0.00108907 0)
(-0.015084 0.000841291 0)
(-0.0148045 0.000580787 0)
(-0.0144137 0.000345491 0)
(-0.0139338 0.000145007 0)
(-0.0133861 -1.94795e-05 0)
(-0.0127918 -0.000159033 0)
(-0.0121694 -0.000276756 0)
(-0.0115341 -0.000376774 0)
(-0.0108987 -0.000464541 0)
(-0.0102736 -0.000543696 0)
(-0.00966636 -0.000614333 0)
(-0.00908031 -0.000683374 0)
(-0.00851804 -0.000748775 0)
(-0.00798105 -0.000811648 0)
(-0.00747036 -0.000871483 0)
(-0.00698562 -0.000929206 0)
(-0.00652718 -0.000983934 0)
(-0.00609528 -0.00103712 0)
(-0.00568904 -0.00108701 0)
(-0.00530624 -0.0011357 0)
(-0.0049452 -0.00118241 0)
(-0.00460344 -0.00122575 0)
(-0.00427916 -0.00126562 0)
(-0.00397251 -0.00130193 0)
(-0.00368128 -0.00133538 0)
(-0.00340314 -0.00136632 0)
(-0.00313901 -0.00139496 0)
(-0.00288585 -0.00142291 0)
(-0.00263809 -0.00145176 0)
(-0.00239366 -0.00148425 0)
(-0.00215164 -0.001517 0)
(-0.00190581 -0.0015501 0)
(-0.00165928 -0.00159185 0)
(-0.00140462 -0.00164846 0)
(-0.00107208 -0.00176529 0)
(-0.00086751 -0.00182599 0)
(-0.000281184 -0.00186091 0)
(-6.24355e-05 -0.00157076 0)
(0.000561203 -0.000949782 0)
(-0.00183294 0.00635935 0)
(-0.00517103 0.00389136 0)
(-0.00714421 0.00442913 0)
(-0.0107389 0.00488543 0)
(-0.013434 0.00498497 0)
(-0.0168463 0.00495633 0)
(-0.0197163 0.00492601 0)
(-0.0228605 0.00489416 0)
(-0.0258259 0.00486339 0)
(-0.0288184 0.00482607 0)
(-0.0317677 0.00478134 0)
(-0.0346728 0.00473061 0)
(-0.037539 0.0046734 0)
(-0.0403588 0.00461034 0)
(-0.0431255 0.00454187 0)
(-0.045837 0.00446815 0)
(-0.0484895 0.00438931 0)
(-0.0510767 0.0043057 0)
(-0.053596 0.00421796 0)
(-0.0560437 0.00412702 0)
(-0.0584139 0.00403254 0)
(-0.0607049 0.00393316 0)
(-0.0629141 0.00383196 0)
(-0.0650354 0.00372996 0)
(-0.0670659 0.00362559 0)
(-0.0690032 0.00351939 0)
(-0.0708434 0.00341149 0)
(-0.0725827 0.00330231 0)
(-0.0742157 0.00319252 0)
(-0.0757391 0.00308388 0)
(-0.0771483 0.00297564 0)
(-0.0784372 0.00286846 0)
(-0.0796026 0.00276169 0)
(-0.0806404 0.00265489 0)
(-0.0815484 0.00254466 0)
(-0.0823291 0.00242822 0)
(-0.0829868 0.00230392 0)
(-0.0835294 0.00216942 0)
(-0.0839639 0.00202312 0)
(-0.0842951 0.00186607 0)
(-0.0845282 0.00170182 0)
(-0.0846643 0.0015352 0)
(-0.0847029 0.00136917 0)
(-0.0846412 0.00120799 0)
(-0.0844783 0.00104981 0)
(-0.0842204 0.000885444 0)
(-0.0838771 0.000707701 0)
(-0.0834622 0.000508279 0)
(-0.082994 0.00028706 0)
(-0.0824863 5.01207e-05 0)
(-0.0819436 -0.000193614 0)
(-0.0813635 -0.000434316 0)
(-0.0807416 -0.000666213 0)
(-0.0800722 -0.00088726 0)
(-0.0793504 -0.00109823 0)
(-0.0785732 -0.00130104 0)
(-0.0777403 -0.00149654 0)
(-0.0768536 -0.00168582 0)
(-0.0759149 -0.00186873 0)
(-0.0749244 -0.0020445 0)
(-0.0738829 -0.00221324 0)
(-0.0727923 -0.00237556 0)
(-0.0716541 -0.00253102 0)
(-0.0704692 -0.0026791 0)
(-0.0692378 -0.0028199 0)
(-0.0679616 -0.00295318 0)
(-0.0666424 -0.00307885 0)
(-0.0652809 -0.00319656 0)
(-0.0638785 -0.00330604 0)
(-0.0624365 -0.00340729 0)
(-0.0609564 -0.00350066 0)
(-0.0594394 -0.00358571 0)
(-0.0578871 -0.00366271 0)
(-0.056301 -0.00373151 0)
(-0.0546825 -0.00379227 0)
(-0.053033 -0.00384431 0)
(-0.0513541 -0.00388741 0)
(-0.0496465 -0.00392103 0)
(-0.0479093 -0.00394338 0)
(-0.0461452 -0.00395481 0)
(-0.0443557 -0.00395508 0)
(-0.0425421 -0.00394286 0)
(-0.0407061 -0.00391655 0)
(-0.0388484 -0.00387715 0)
(-0.0369724 -0.00382531 0)
(-0.035082 -0.00375929 0)
(-0.0331793 -0.0036786 0)
(-0.031266 -0.00358284 0)
(-0.029346 -0.00347266 0)
(-0.0274223 -0.00334589 0)
(-0.0254962 -0.00320275 0)
(-0.0235696 -0.00304281 0)
(-0.0216446 -0.00286424 0)
(-0.0197207 -0.00266571 0)
(-0.0177946 -0.00244441 0)
(-0.015858 -0.00219546 0)
(-0.013895 -0.00191868 0)
(-0.0118871 -0.00163058 0)
(-0.00982476 -0.00136238 0)
(-0.00771505 -0.00114161 0)
(-0.00556643 -0.000989435 0)
(-0.0033872 -0.000907028 0)
(-0.00118866 -0.000884269 0)
(0.00102318 -0.000901041 0)
(0.00323735 -0.000951941 0)
(0.0054403 -0.00101144 0)
(0.00762941 -0.00108123 0)
(0.00978609 -0.00115214 0)
(0.0119005 -0.00122364 0)
(0.0139445 -0.00129057 0)
(0.0158998 -0.00136949 0)
(0.0177376 -0.00144591 0)
(0.0194198 -0.0015172 0)
(0.0209629 -0.00156381 0)
(0.0223741 -0.00157888 0)
(0.0236513 -0.00156562 0)
(0.0247991 -0.00152538 0)
(0.0258315 -0.00145967 0)
(0.0267483 -0.00137385 0)
(0.027548 -0.00127042 0)
(0.0282341 -0.00115595 0)
(0.0287963 -0.00103385 0)
(0.0292326 -0.000907238 0)
(0.0295498 -0.000773865 0)
(0.029744 -0.000644374 0)
(0.0298136 -0.000516377 0)
(0.0297602 -0.000389848 0)
(0.0295828 -0.000266282 0)
(0.0292816 -0.000148007 0)
(0.0288577 -3.37718e-05 0)
(0.0283117 7.58506e-05 0)
(0.0276468 0.000178447 0)
(0.0268648 0.000274933 0)
(0.0259741 0.000363263 0)
(0.0249761 0.000443316 0)
(0.0238693 0.000519026 0)
(0.0226673 0.000587039 0)
(0.0213731 0.000646696 0)
(0.0199883 0.000698431 0)
(0.018521 0.000744144 0)
(0.016977 0.000780394 0)
(0.015365 0.000809241 0)
(0.0136754 0.000832005 0)
(0.0119656 0.000844224 0)
(0.0100881 0.000869863 0)
(0.00836459 0.000852537 0)
(0.00612556 0.000863336 0)
(0.00452816 0.000569584 0)
(0.00243471 0.000408445 0)
(0.00185764 0.00163212 0)
(-0.00185886 0.0111835 0)
(-0.00485602 0.00728631 0)
(-0.00642114 0.0080507 0)
(-0.00958246 0.00894813 0)
(-0.0120396 0.00915271 0)
(-0.0151522 0.00908651 0)
(-0.0177844 0.00898534 0)
(-0.0206306 0.00891909 0)
(-0.0233337 0.00884501 0)
(-0.0260532 0.00876754 0)
(-0.0287469 0.00867477 0)
(-0.0314029 0.00856972 0)
(-0.0340277 0.00845333 0)
(-0.0366168 0.00832536 0)
(-0.0391652 0.00818654 0)
(-0.0416701 0.00803661 0)
(-0.0441287 0.00787661 0)
(-0.0465376 0.00770652 0)
(-0.0488935 0.00752644 0)
(-0.0511924 0.00733766 0)
(-0.0534328 0.0071409 0)
(-0.0556108 0.00693596 0)
(-0.0577221 0.00672333 0)
(-0.0597657 0.00650385 0)
(-0.0617372 0.00627779 0)
(-0.0636335 0.00604542 0)
(-0.0654535 0.00580577 0)
(-0.067195 0.00555927 0)
(-0.0688543 0.0053064 0)
(-0.0704297 0.00504695 0)
(-0.0719201 0.00478181 0)
(-0.0733228 0.00451112 0)
(-0.0746359 0.00423468 0)
(-0.0758573 0.00395453 0)
(-0.0769854 0.00367396 0)
(-0.0780188 0.00339336 0)
(-0.0789567 0.00311336 0)
(-0.0798005 0.00283395 0)
(-0.0805507 0.00255329 0)
(-0.0812081 0.00226896 0)
(-0.0817739 0.00197863 0)
(-0.0822473 0.0016826 0)
(-0.0826267 0.00138233 0)
(-0.0829107 0.00108241 0)
(-0.0830963 0.000787926 0)
(-0.083182 0.000503405 0)
(-0.0831706 0.00022944 0)
(-0.0830675 -3.90401e-05 0)
(-0.0828791 -0.000309364 0)
(-0.0826153 -0.000587582 0)
(-0.0822838 -0.000875511 0)
(-0.0818848 -0.00117217 0)
(-0.0814161 -0.00147248 0)
(-0.0808759 -0.00177078 0)
(-0.0802625 -0.00206323 0)
(-0.0795755 -0.00234746 0)
(-0.0788168 -0.0026235 0)
(-0.0779881 -0.00289136 0)
(-0.0770898 -0.00315062 0)
(-0.0761239 -0.00340154 0)
(-0.0750939 -0.00364432 0)
(-0.0740006 -0.00387849 0)
(-0.0728452 -0.00410359 0)
(-0.0716304 -0.00431939 0)
(-0.0703585 -0.00452559 0)
(-0.0690315 -0.00472297 0)
(-0.0676514 -0.00491085 0)
(-0.06622 -0.00508902 0)
(-0.0647391 -0.00525761 0)
(-0.0632119 -0.00541615 0)
(-0.0616398 -0.00556458 0)
(-0.0600248 -0.00570287 0)
(-0.0583694 -0.00583097 0)
(-0.0566759 -0.00594911 0)
(-0.0549466 -0.00605728 0)
(-0.0531836 -0.00615563 0)
(-0.0513898 -0.00624379 0)
(-0.0495659 -0.00632062 0)
(-0.0477136 -0.00638645 0)
(-0.0458366 -0.00643969 0)
(-0.0439356 -0.0064789 0)
(-0.0420107 -0.00650361 0)
(-0.0400658 -0.00651319 0)
(-0.0381033 -0.00650699 0)
(-0.0361247 -0.00648377 0)
(-0.0341332 -0.00644388 0)
(-0.0321306 -0.00638703 0)
(-0.0301192 -0.00631224 0)
(-0.0281017 -0.0062192 0)
(-0.0260802 -0.00610854 0)
(-0.0240568 -0.00597961 0)
(-0.0220323 -0.00583261 0)
(-0.0200083 -0.00566849 0)
(-0.017986 -0.00548803 0)
(-0.0159644 -0.0052947 0)
(-0.0139387 -0.00509565 0)
(-0.011902 -0.00490079 0)
(-0.0098515 -0.00472096 0)
(-0.0077914 -0.00456339 0)
(-0.00573601 -0.00443527 0)
(-0.00370845 -0.0043433 0)
(-0.00172968 -0.00429138 0)
(0.000194368 -0.00427102 0)
(0.00203586 -0.00426844 0)
(0.00379001 -0.00427158 0)
(0.00545467 -0.0042698 0)
(0.00702297 -0.0042556 0)
(0.00850404 -0.004227 0)
(0.00990298 -0.00418386 0)
(0.0112099 -0.00412815 0)
(0.0124322 -0.00404059 0)
(0.0135704 -0.0039234 0)
(0.0146165 -0.00378174 0)
(0.015591 -0.00363 0)
(0.0164879 -0.00346662 0)
(0.0173135 -0.00329971 0)
(0.0180779 -0.00311752 0)
(0.0187781 -0.00291917 0)
(0.0194172 -0.00270271 0)
(0.0200001 -0.00246698 0)
(0.0205207 -0.00221751 0)
(0.0209781 -0.001958 0)
(0.0213787 -0.00168634 0)
(0.0217078 -0.00140629 0)
(0.0219603 -0.00112508 0)
(0.0221442 -0.000842604 0)
(0.0222502 -0.000553384 0)
(0.0222758 -0.000267909 0)
(0.0222201 1.76525e-05 0)
(0.0220805 0.000301648 0)
(0.0218527 0.000583188 0)
(0.021532 0.000860276 0)
(0.0211128 0.00113164 0)
(0.0205953 0.00139746 0)
(0.0199825 0.00165305 0)
(0.0192691 0.0018998 0)
(0.0184543 0.00213735 0)
(0.0175418 0.00235983 0)
(0.0165319 0.00256768 0)
(0.015427 0.00275846 0)
(0.0142308 0.0029335 0)
(0.0129482 0.00309015 0)
(0.0115776 0.00323063 0)
(0.0101636 0.00336314 0)
(0.00856984 0.0034935 0)
(0.00709579 0.00364507 0)
(0.00512828 0.00368455 0)
(0.003874 0.00318347 0)
(0.00223774 0.00227596 0)
(0.00204408 0.0049552 0)
(-0.00190841 0.015649 0)
(-0.00456597 0.0100571 0)
(-0.00592387 0.0110657 0)
(-0.00875285 0.0124429 0)
(-0.0109924 0.012799 0)
(-0.0138373 0.0127143 0)
(-0.0162679 0.01256 0)
(-0.0188824 0.0124594 0)
(-0.0213962 0.0123627 0)
(-0.0239201 0.01226 0)
(-0.0264359 0.0121396 0)
(-0.0289268 0.0120016 0)
(-0.0313988 0.011849 0)
(-0.0338488 0.0116812 0)
(-0.0362717 0.0114982 0)
(-0.038665 0.0113003 0)
(-0.0410265 0.011088 0)
(-0.0433525 0.0108623 0)
(-0.0456395 0.0106235 0)
(-0.047884 0.0103717 0)
(-0.0500819 0.0101076 0)
(-0.05223 0.00983259 0)
(-0.0543261 0.00954601 0)
(-0.0563659 0.00924827 0)
(-0.0583452 0.00894084 0)
(-0.0602607 0.00862298 0)
(-0.0621091 0.00829556 0)
(-0.0638876 0.00795996 0)
(-0.0655936 0.0076177 0)
(-0.0672236 0.00726836 0)
(-0.0687752 0.00691274 0)
(-0.0702475 0.00655128 0)
(-0.0716392 0.00618478 0)
(-0.0729451 0.00581324 0)
(-0.0741638 0.00543634 0)
(-0.0752961 0.00505349 0)
(-0.0763372 0.00466409 0)
(-0.0772866 0.0042679 0)
(-0.0781433 0.00386509 0)
(-0.0789063 0.00345614 0)
(-0.0795759 0.00304143 0)
(-0.0801529 0.00262267 0)
(-0.0806401 0.00220118 0)
(-0.0810383 0.00177756 0)
(-0.0813464 0.00135303 0)
(-0.0815632 0.000928186 0)
(-0.0816865 0.000503229 0)
(-0.0817145 7.79437e-05 0)
(-0.0816478 -0.000346586 0)
(-0.0814877 -0.000772292 0)
(-0.0812375 -0.00119795 0)
(-0.080902 -0.00162307 0)
(-0.0804835 -0.00204557 0)
(-0.0799845 -0.00246236 0)
(-0.0794064 -0.0028716 0)
(-0.07875 -0.00327212 0)
(-0.0780157 -0.00366254 0)
(-0.0772041 -0.00404235 0)
(-0.0763175 -0.00441102 0)
(-0.0753579 -0.00476815 0)
(-0.0743265 -0.00511371 0)
(-0.0732248 -0.0054466 0)
(-0.072056 -0.00576754 0)
(-0.0708219 -0.00607604 0)
(-0.0695254 -0.00637129 0)
(-0.0681689 -0.00665367 0)
(-0.0667541 -0.00692276 0)
(-0.0652842 -0.00717839 0)
(-0.0637618 -0.00742055 0)
(-0.0621892 -0.00764898 0)
(-0.0605697 -0.00786326 0)
(-0.0589056 -0.00806344 0)
(-0.0572003 -0.00824928 0)
(-0.0554569 -0.00842083 0)
(-0.0536784 -0.00857776 0)
(-0.0518683 -0.00872031 0)
(-0.0500295 -0.00884821 0)
(-0.0481666 -0.00896098 0)
(-0.0462814 -0.00905834 0)
(-0.0443767 -0.0091396 0)
(-0.0424577 -0.00920342 0)
(-0.0405273 -0.00924882 0)
(-0.0385881 -0.00927587 0)
(-0.0366402 -0.00928322 0)
(-0.034688 -0.00927021 0)
(-0.0327365 -0.00923683 0)
(-0.0307852 -0.00918243 0)
(-0.0288359 -0.00910689 0)
(-0.0268938 -0.0090096 0)
(-0.0249605 -0.00889151 0)
(-0.0230358 -0.00875151 0)
(-0.0211227 -0.00858964 0)
(-0.019222 -0.00840812 0)
(-0.0173337 -0.00820722 0)
(-0.0154593 -0.00798822 0)
(-0.0135993 -0.00775462 0)
(-0.0117572 -0.00751101 0)
(-0.00993831 -0.00726479 0)
(-0.00814733 -0.00702173 0)
(-0.00639189 -0.00678825 0)
(-0.00468313 -0.00656726 0)
(-0.00303144 -0.00635893 0)
(-0.001447 -0.00616137 0)
(5.94839e-05 -0.00598012 0)
(0.0014844 -0.00580109 0)
(0.00282903 -0.00563439 0)
(0.00409888 -0.00546769 0)
(0.00528507 -0.00530491 0)
(0.00639081 -0.00514313 0)
(0.00742524 -0.00498794 0)
(0.00838738 -0.00482431 0)
(0.00927315 -0.00466126 0)
(0.0100839 -0.00448662 0)
(0.0108363 -0.00430132 0)
(0.0115153 -0.0041021 0)
(0.0121156 -0.00388773 0)
(0.0126482 -0.00365829 0)
(0.0131148 -0.00341357 0)
(0.0135201 -0.00315337 0)
(0.0138612 -0.00287806 0)
(0.0141435 -0.00258809 0)
(0.0143743 -0.00228421 0)
(0.014555 -0.00196636 0)
(0.0146798 -0.00164261 0)
(0.0147492 -0.00130555 0)
(0.0147776 -0.000961592 0)
(0.0147502 -0.000612145 0)
(0.0146659 -0.000259113 0)
(0.0145375 0.000102573 0)
(0.0143584 0.000464412 0)
(0.0141281 0.000827952 0)
(0.0138468 0.0011918 0)
(0.0135138 0.00155498 0)
(0.0131281 0.00191659 0)
(0.0126869 0.00227362 0)
(0.0121919 0.0026236 0)
(0.011642 0.0029668 0)
(0.0110351 0.00329688 0)
(0.0103728 0.00361327 0)
(0.00965671 0.00391308 0)
(0.00888538 0.00419302 0)
(0.00806066 0.0044521 0)
(0.00718947 0.00469112 0)
(0.00628055 0.00492667 0)
(0.00525075 0.00518553 0)
(0.00431415 0.00545843 0)
(0.00299913 0.00541016 0)
(0.00245696 0.00443695 0)
(0.00162618 0.00302033 0)
(0.00178905 0.00751492 0)
(-0.00195569 0.0201513 0)
(-0.00452392 0.0127324 0)
(-0.0058794 0.0139815 0)
(-0.00863849 0.0158125 0)
(-0.0108478 0.0163275 0)
(-0.0136379 0.0162501 0)
(-0.0160504 0.0160681 0)
(-0.018637 0.0159457 0)
(-0.0211379 0.0158402 0)
(-0.0236477 0.0157254 0)
(-0.0261565 0.0155897 0)
(-0.0286452 0.0154327 0)
(-0.0311183 0.0152557 0)
(-0.0335749 0.0150599 0)
(-0.0360101 0.014845 0)
(-0.03842 0.014611 0)
(-0.0408007 0.0143576 0)
(-0.0431492 0.0140854 0)
(-0.0454633 0.0137942 0)
(-0.0477378 0.0134846 0)
(-0.0499678 0.0131574 0)
(-0.0521507 0.0128123 0)
(-0.054282 0.0124502 0)
(-0.0563573 0.0120718 0)
(-0.0583739 0.0116772 0)
(-0.0603285 0.0112666 0)
(-0.0622164 0.0108412 0)
(-0.0640338 0.0104018 0)
(-0.0657783 0.00994902 0)
(-0.0674474 0.00948359 0)
(-0.0690378 0.00900628 0)
(-0.0705457 0.00851777 0)
(-0.0719682 0.00801964 0)
(-0.0733027 0.00751345 0)
(-0.0745472 0.00699878 0)
(-0.0756997 0.00647741 0)
(-0.0767579 0.00594981 0)
(-0.0777213 0.00541593 0)
(-0.0785887 0.00487688 0)
(-0.0793603 0.00433265 0)
(-0.0800351 0.00378427 0)
(-0.0806122 0.00323212 0)
(-0.0810928 0.00267804 0)
(-0.0814775 0.00212426 0)
(-0.0817659 0.00157202 0)
(-0.0819582 0.00102242 0)
(-0.0820552 0.000476439 0)
(-0.0820548 -6.59418e-05 0)
(-0.0819584 -0.000607501 0)
(-0.0817699 -0.00114684 0)
(-0.0814927 -0.00168414 0)
(-0.0811293 -0.00221777 0)
(-0.0806797 -0.00274622 0)
(-0.0801466 -0.00326839 0)
(-0.0795331 -0.00378202 0)
(-0.0788393 -0.00428524 0)
(-0.0780673 -0.00477736 0)
(-0.077219 -0.00525694 0)
(-0.0762946 -0.00572382 0)
(-0.0752969 -0.00617734 0)
(-0.0742279 -0.00661611 0)
(-0.0730904 -0.00704066 0)
(-0.0718862 -0.00745009 0)
(-0.0706164 -0.00784392 0)
(-0.0692845 -0.00822256 0)
(-0.0678936 -0.00858424 0)
(-0.0664456 -0.00892909 0)
(-0.0649436 -0.00925684 0)
(-0.0633902 -0.00956724 0)
(-0.0617886 -0.00985982 0)
(-0.0601417 -0.0101345 0)
(-0.0584524 -0.0103908 0)
(-0.0567239 -0.0106288 0)
(-0.0549592 -0.010848 0)
(-0.0531619 -0.0110483 0)
(-0.0513354 -0.0112293 0)
(-0.0494835 -0.0113908 0)
(-0.0476088 -0.0115326 0)
(-0.0457149 -0.0116534 0)
(-0.0438064 -0.0117533 0)
(-0.0418853 -0.0118317 0)
(-0.0399548 -0.0118877 0)
(-0.0380187 -0.0119203 0)
(-0.0360788 -0.011929 0)
(-0.0341382 -0.0119141 0)
(-0.0322001 -0.0118751 0)
(-0.0302656 -0.0118113 0)
(-0.0283368 -0.0117235 0)
(-0.0264174 -0.0116123 0)
(-0.0245081 -0.0114772 0)
(-0.0226094 -0.0113186 0)
(-0.020726 -0.0111379 0)
(-0.018859 -0.0109364 0)
(-0.0170077 -0.0107162 0)
(-0.0151746 -0.0104799 0)
(-0.013361 -0.0102307 0)
(-0.0115689 -0.00997295 0)
(-0.00980218 -0.00970998 0)
(-0.00806461 -0.00944556 0)
(-0.00636192 -0.00918336 0)
(-0.00470068 -0.00892719 0)
(-0.00308698 -0.00867781 0)
(-0.00152688 -0.00843633 0)
(-2.52535e-05 -0.00820079 0)
(0.00141076 -0.00796573 0)
(0.00277691 -0.00772934 0)
(0.00407182 -0.00748564 0)
(0.00528715 -0.00723469 0)
(0.00642076 -0.00696947 0)
(0.00747515 -0.0066932 0)
(0.00844924 -0.0064023 0)
(0.00933679 -0.00609653 0)
(0.010139 -0.00577878 0)
(0.0108637 -0.0054488 0)
(0.0115068 -0.00510951 0)
(0.0120672 -0.00475892 0)
(0.0125498 -0.00440068 0)
(0.0129522 -0.00402856 0)
(0.0132772 -0.00365199 0)
(0.01353 -0.00326755 0)
(0.0137094 -0.0028724 0)
(0.0138213 -0.00246868 0)
(0.0138674 -0.00205868 0)
(0.0138494 -0.00164607 0)
(0.0137721 -0.0012277 0)
(0.0136365 -0.00080672 0)
(0.0134437 -0.00038725 0)
(0.013204 3.49988e-05 0)
(0.0129128 0.00045686 0)
(0.0125704 0.000877172 0)
(0.0121898 0.00129701 0)
(0.0117699 0.00171638 0)
(0.0113129 0.00213203 0)
(0.0108221 0.00254392 0)
(0.0103012 0.00294982 0)
(0.00975203 0.00334848 0)
(0.00917325 0.00373636 0)
(0.00856774 0.00411131 0)
(0.00794027 0.00447326 0)
(0.00728852 0.00481729 0)
(0.00661641 0.00513825 0)
(0.00592486 0.00543617 0)
(0.00521606 0.00571167 0)
(0.00449904 0.00599196 0)
(0.00370846 0.00631977 0)
(0.00302598 0.0066227 0)
(0.00206791 0.00639349 0)
(0.0018087 0.00496102 0)
(0.0013123 0.00328789 0)
(0.00154569 0.00961368 0)
(-0.00198377 0.0246454 0)
(-0.00455295 0.0153937 0)
(-0.00595276 0.0169029 0)
(-0.00872611 0.0191832 0)
(-0.0109853 0.0198547 0)
(-0.0137999 0.019785 0)
(-0.0162572 0.0195776 0)
(-0.0188772 0.0194401 0)
(-0.0214202 0.0193263 0)
(-0.0239697 0.0192013 0)
(-0.0265185 0.0190513 0)
(-0.0290491 0.0188756 0)
(-0.0315647 0.018676 0)
(-0.0340624 0.0184522 0)
(-0.0365376 0.0182048 0)
(-0.0389872 0.0179337 0)
(-0.0414078 0.0176382 0)
(-0.0437954 0.0173181 0)
(-0.0461459 0.0169735 0)
(-0.0484544 0.0166058 0)
(-0.0507175 0.0162147 0)
(-0.0529315 0.0158006 0)
(-0.0550921 0.0153645 0)
(-0.0571957 0.0149067 0)
(-0.0592389 0.0144278 0)
(-0.0612171 0.0139287 0)
(-0.0631256 0.0134104 0)
(-0.0649624 0.0128741 0)
(-0.0667243 0.0123204 0)
(-0.0684074 0.0117506 0)
(-0.070009 0.0111659 0)
(-0.0715266 0.0105676 0)
(-0.0729575 0.00995631 0)
(-0.0742987 0.00933299 0)
(-0.0755486 0.00869872 0)
(-0.076706 0.00805449 0)
(-0.0777688 0.00740094 0)
(-0.0787356 0.00673876 0)
(-0.0796055 0.00606934 0)
(-0.0803779 0.00539414 0)
(-0.0810527 0.00471394 0)
(-0.0816293 0.00402957 0)
(-0.0821074 0.00334272 0)
(-0.0824883 0.0026551 0)
(-0.0827718 0.0019678 0)
(-0.0829568 0.00128164 0)
(-0.0830434 0.000597779 0)
(-0.0830355 -8.27517e-05 0)
(-0.0829328 -0.000760495 0)
(-0.0827337 -0.00143405 0)
(-0.0824417 -0.00210244 0)
(-0.0820597 -0.00276327 0)
(-0.0815908 -0.00341523 0)
(-0.0810365 -0.00405695 0)
(-0.0803978 -0.00468687 0)
(-0.0796775 -0.00530411 0)
(-0.078877 -0.00590783 0)
(-0.0779981 -0.00649564 0)
(-0.0770439 -0.00706749 0)
(-0.0760152 -0.00762314 0)
(-0.0749147 -0.00816115 0)
(-0.073745 -0.00868152 0)
(-0.0725081 -0.00918271 0)
(-0.0712075 -0.00966474 0)
(-0.0698447 -0.0101275 0)
(-0.0684221 -0.0105698 0)
(-0.0669433 -0.0109915 0)
(-0.0654111 -0.0113915 0)
(-0.0638283 -0.0117703 0)
(-0.0621978 -0.0121274 0)
(-0.0605226 -0.0124623 0)
(-0.0588058 -0.0127746 0)
(-0.0570506 -0.0130639 0)
(-0.05526 -0.0133298 0)
(-0.0534373 -0.0135725 0)
(-0.0515857 -0.0137913 0)
(-0.0497084 -0.0139856 0)
(-0.0478087 -0.014155 0)
(-0.0458892 -0.0142998 0)
(-0.0439538 -0.0144191 0)
(-0.0420062 -0.0145118 0)
(-0.0400485 -0.0145785 0)
(-0.0380836 -0.0146185 0)
(-0.0361137 -0.0146312 0)
(-0.034142 -0.0146169 0)
(-0.0321714 -0.0145752 0)
(-0.030203 -0.0145062 0)
(-0.0282399 -0.0144097 0)
(-0.0262846 -0.0142864 0)
(-0.0243378 -0.0141362 0)
(-0.0224015 -0.0139609 0)
(-0.0204794 -0.0137616 0)
(-0.0185727 -0.0135378 0)
(-0.0166825 -0.013291 0)
(-0.0148115 -0.013024 0)
(-0.012962 -0.012739 0)
(-0.0111365 -0.0124383 0)
(-0.00933851 -0.0121242 0)
(-0.00757187 -0.0118015 0)
(-0.00584272 -0.0114714 0)
(-0.0041564 -0.0111359 0)
(-0.00251821 -0.0107971 0)
(-0.0009348 -0.0104547 0)
(0.00058939 -0.0101071 0)
(0.0020453 -0.00975497 0)
(0.00342979 -0.00939838 0)
(0.00474329 -0.00903681 0)
(0.00597849 -0.00866988 0)
(0.00713432 -0.0082947 0)
(0.00821433 -0.00791104 0)
(0.00922153 -0.00751858 0)
(0.0101428 -0.00711584 0)
(0.0109792 -0.00670132 0)
(0.0117462 -0.00627584 0)
(0.0124305 -0.0058405 0)
(0.0130244 -0.00538936 0)
(0.0135426 -0.00493104 0)
(0.0139765 -0.0044601 0)
(0.0143249 -0.0039838 0)
(0.0146005 -0.00350052 0)
(0.0148004 -0.00301173 0)
(0.0149244 -0.00251225 0)
(0.0149731 -0.0020151 0)
(0.0149495 -0.00151306 0)
(0.0148566 -0.00101212 0)
(0.0147 -0.000509819 0)
(0.0144769 -1.20357e-05 0)
(0.0141894 0.00048421 0)
(0.0138449 0.000973188 0)
(0.013446 0.00145816 0)
(0.0129993 0.00193608 0)
(0.0125056 0.00240711 0)
(0.0119698 0.00287017 0)
(0.0113983 0.00332406 0)
(0.0107925 0.00376665 0)
(0.0101573 0.00419607 0)
(0.00949592 0.00460985 0)
(0.00881479 0.00500942 0)
(0.00811632 0.00539085 0)
(0.00740039 0.00575082 0)
(0.00667449 0.00608796 0)
(0.0059386 0.00639537 0)
(0.00519555 0.00667913 0)
(0.00445527 0.00697345 0)
(0.00366966 0.007322 0)
(0.00298956 0.00761733 0)
(0.00206736 0.0072163 0)
(0.00174962 0.00538069 0)
(0.00124287 0.00348506 0)
(0.00142859 0.0114466 0)
(-0.00201754 0.0292015 0)
(-0.0045922 0.0181136 0)
(-0.00601581 0.0198799 0)
(-0.00878868 0.0226242 0)
(-0.0110992 0.0234653 0)
(-0.0139441 0.0234024 0)
(-0.0164531 0.0231698 0)
(-0.0191065 0.0230164 0)
(-0.0216921 0.0228945 0)
(-0.0242812 0.0227588 0)
(-0.0268713 0.0225956 0)
(-0.0294428 0.0224009 0)
(-0.0319997 0.0221774 0)
(-0.0345393 0.0219254 0)
(-0.0370555 0.0216448 0)
(-0.0395456 0.0213345 0)
(-0.0420059 0.0209944 0)
(-0.0444324 0.0206245 0)
(-0.0468205 0.0202254 0)
(-0.0491655 0.0197962 0)
(-0.0514638 0.019338 0)
(-0.0537114 0.018851 0)
(-0.0559042 0.0183357 0)
(-0.0580378 0.0177938 0)
(-0.0601095 0.0172255 0)
(-0.062115 0.0166322 0)
(-0.0640491 0.0160151 0)
(-0.065909 0.0153743 0)
(-0.0676923 0.0147117 0)
(-0.0693956 0.0140284 0)
(-0.0710157 0.0133258 0)
(-0.0725501 0.0126051 0)
(-0.0739964 0.0118678 0)
(-0.0753517 0.0111155 0)
(-0.0766142 0.010349 0)
(-0.0777824 0.00957024 0)
(-0.0788549 0.00878097 0)
(-0.0798302 0.00798199 0)
(-0.0807067 0.00717502 0)
(-0.0814846 0.00636193 0)
(-0.0821642 0.00554329 0)
(-0.0827432 0.00472054 0)
(-0.0832217 0.0038968 0)
(-0.0836009 0.0030722 0)
(-0.0838814 0.00224904 0)
(-0.0840632 0.00142842 0)
(-0.0841468 0.000611082 0)
(-0.0841325 -0.000202183 0)
(-0.0840216 -0.0010083 0)
(-0.0838158 -0.00180723 0)
(-0.0835171 -0.00259801 0)
(-0.0831274 -0.00337898 0)
(-0.0826474 -0.00414851 0)
(-0.0820794 -0.00490607 0)
(-0.081427 -0.00565014 0)
(-0.0806913 -0.00637874 0)
(-0.0798724 -0.00709011 0)
(-0.0789738 -0.00778483 0)
(-0.0779986 -0.00846064 0)
(-0.0769476 -0.00911615 0)
(-0.0758237 -0.00975178 0)
(-0.0746294 -0.0103658 0)
(-0.0733669 -0.0109578 0)
(-0.0720392 -0.0115268 0)
(-0.0706482 -0.0120719 0)
(-0.0691969 -0.0125937 0)
(-0.0676883 -0.013091 0)
(-0.0661254 -0.0135635 0)
(-0.0645118 -0.0140105 0)
(-0.0628496 -0.0144313 0)
(-0.0611419 -0.0148258 0)
(-0.0593917 -0.0151936 0)
(-0.057602 -0.0155342 0)
(-0.0557765 -0.015847 0)
(-0.0539182 -0.0161321 0)
(-0.0520297 -0.0163889 0)
(-0.0501146 -0.0166171 0)
(-0.0481762 -0.0168161 0)
(-0.0462177 -0.0169857 0)
(-0.0442414 -0.0171259 0)
(-0.0422507 -0.0172358 0)
(-0.0402492 -0.0173154 0)
(-0.038239 -0.0173644 0)
(-0.0362231 -0.0173823 0)
(-0.0342044 -0.0173694 0)
(-0.0321858 -0.0173259 0)
(-0.030169 -0.0172523 0)
(-0.0281566 -0.0171473 0)
(-0.0261522 -0.0170119 0)
(-0.0241584 -0.0168476 0)
(-0.0221772 -0.0166547 0)
(-0.0202102 -0.0164342 0)
(-0.0182595 -0.0161871 0)
(-0.0163288 -0.0159146 0)
(-0.0144221 -0.0156191 0)
(-0.0125404 -0.0153033 0)
(-0.0106859 -0.0149681 0)
(-0.0088655 -0.0146156 0)
(-0.00708177 -0.0142494 0)
(-0.00533697 -0.0138717 0)
(-0.00363896 -0.0134833 0)
(-0.00199123 -0.0130855 0)
(-0.000395415 -0.012677 0)
(0.00114248 -0.0122575 0)
(0.00261413 -0.0118289 0)
(0.0040182 -0.0113884 0)
(0.00535402 -0.0109346 0)
(0.00661604 -0.0104685 0)
(0.00780187 -0.00998732 0)
(0.00891067 -0.00949171 0)
(0.00994315 -0.00898123 0)
(0.0108944 -0.00846116 0)
(0.0117626 -0.00792395 0)
(0.0125517 -0.00737503 0)
(0.013267 -0.00681821 0)
(0.0138967 -0.00624944 0)
(0.0144446 -0.00566877 0)
(0.0149098 -0.0050847 0)
(0.0152891 -0.00449069 0)
(0.0155946 -0.00389088 0)
(0.0158291 -0.00328606 0)
(0.015981 -0.00267843 0)
(0.0160537 -0.00207239 0)
(0.0160575 -0.00146518 0)
(0.0159893 -0.000862299 0)
(0.0158496 -0.000261544 0)
(0.0156391 0.000327934 0)
(0.0153677 0.00091158 0)
(0.0150304 0.00148694 0)
(0.0146311 0.00205033 0)
(0.0141784 0.0026029 0)
(0.013675 0.00314243 0)
(0.0131226 0.00366752 0)
(0.0125248 0.00417546 0)
(0.0118864 0.00466654 0)
(0.0112109 0.00513708 0)
(0.0105046 0.00558859 0)
(0.00977132 0.00601912 0)
(0.00901231 0.00642559 0)
(0.00823438 0.00680647 0)
(0.00744211 0.007158 0)
(0.00663448 0.00747445 0)
(0.00581695 0.00776283 0)
(0.00499988 0.00806434 0)
(0.00414221 0.00842663 0)
(0.00337198 0.00871964 0)
(0.00236957 0.00820481 0)
(0.00190052 0.0059991 0)
(0.00129078 0.00380925 0)
(0.00141012 0.0132667 0)
(-0.00206885 0.0338084 0)
(-0.00463698 0.0208295 0)
(-0.00606538 0.0228434 0)
(-0.00881442 0.0260801 0)
(-0.0111701 0.0271154 0)
(-0.0140359 0.0270651 0)
(-0.0165926 0.0268046 0)
(-0.0192778 0.0266339 0)
(-0.0219038 0.0265036 0)
(-0.0245306 0.0263596 0)
(-0.0271589 0.026183 0)
(-0.0297738 0.0259705 0)
(-0.0323736 0.0257228 0)
(-0.0349557 0.0254429 0)
(-0.0375159 0.0251288 0)
(-0.0400507 0.0247793 0)
(-0.0425553 0.0243943 0)
(-0.0450252 0.0239734 0)
(-0.0474572 0.0235177 0)
(-0.0498459 0.0230267 0)
(-0.0521867 0.0225004 0)
(-0.0544764 0.02194 0)
(-0.0567093 0.0213457 0)
(-0.0588822 0.0207186 0)
(-0.0609919 0.0200598 0)
(-0.0630325 0.0193711 0)
(-0.0650012 0.0186535 0)
(-0.066895 0.0179082 0)
(-0.0687097 0.0171361 0)
(-0.0704422 0.0163396 0)
(-0.0720895 0.0155201 0)
(-0.0736489 0.0146787 0)
(-0.0751176 0.0138179 0)
(-0.076494 0.0129393 0)
(-0.0777755 0.0120441 0)
(-0.07896 0.0111345 0)
(-0.0800471 0.0102121 0)
(-0.0810351 0.00927869 0)
(-0.0819221 0.0083361 0)
(-0.0827088 0.00738571 0)
(-0.0833956 0.00642953 0)
(-0.0839784 0.00546899 0)
(-0.0844587 0.00450683 0)
(-0.0848387 0.00354351 0)
(-0.0851171 0.00258173 0)
(-0.0852951 0.00162317 0)
(-0.0853731 0.000669114 0)
(-0.0853521 -0.000278683 0)
(-0.0852329 -0.00121891 0)
(-0.0850169 -0.00215006 0)
(-0.0847052 -0.00307054 0)
(-0.0842997 -0.00397916 0)
(-0.0838047 -0.00487428 0)
(-0.0832218 -0.0057542 0)
(-0.0825495 -0.0066175 0)
(-0.0817905 -0.00746196 0)
(-0.0809497 -0.00828711 0)
(-0.0800279 -0.00909212 0)
(-0.0790258 -0.00987519 0)
(-0.0779476 -0.0106347 0)
(-0.0767954 -0.0113708 0)
(-0.075571 -0.0120818 0)
(-0.0742771 -0.0127667 0)
(-0.0729168 -0.0134249 0)