/*--------------------------------*- C++ -*----------------------------------*\
| =========                 |                                                 |
| \\      /  F ield         | OpenFOAM: The Open Source CFD Toolbox           |
|  \\    /   O peration     | Version:  v2006                                 |
|   \\  /    A nd           | Website:  www.openfoam.com                      |
|    \\/     M anipulation  |                                                 |
\*---------------------------------------------------------------------------*/
FoamFile
{
    version     2.0;
    format      ascii;
    class       volScalarField;
    location    "0";
    object      f;
}
// * * * * * * * * * * * * * * * * * * * * * * * * * * * * * * * * * * * * * //

dimensions      [0 0 0 0 0 0 0];


internalField   nonuniform List<scalar> 
2500
(
-7.88275e-113
3.68496e-96
-3.46465e-88
-1.64477e-81
-4.15399e-78
1.09529e-74
2.04478e-72
2.09844e-71
-5.80595e-69
-2.2328e-67
-3.30822e-66
-2.63651e-65
-1.36633e-64
-5.16941e-64
-1.49449e-63
-3.30138e-63
-5.43278e-63
-6.19072e-63
-3.37763e-63
4.01041e-63
1.46264e-62
2.53269e-62
3.29352e-62
3.57629e-62
3.39901e-62
2.90579e-62
2.27531e-62
1.65327e-62
1.12562e-62
7.23352e-63
4.41074e-63
2.56099e-63
1.41879e-63
7.50554e-64
3.79099e-64
1.82696e-64
8.39202e-65
3.66981e-65
1.52568e-65
6.02036e-66
2.25006e-66
7.9404e-67
2.63318e-67
8.13949e-68
2.31093e-68
5.84602e-69
1.21967e-69
1.51753e-70
-3.00312e-71
-2.08985e-71
-9.27491e-110
1.37828e-93
-6.9817e-86
-2.75706e-79
-5.73341e-76
1.11702e-72
1.87024e-70
2.48492e-69
-3.69623e-67
-1.36063e-65
-1.88443e-64
-1.40248e-63
-6.8189e-63
-2.43823e-62
-6.71104e-62
-1.42024e-61
-2.25386e-61
-2.50919e-61
-1.43623e-61
1.18125e-61
4.72315e-61
8.06082e-61
1.02049e-60
1.0752e-60
9.90559e-61
8.2073e-61
6.23021e-61
4.39093e-61
2.90184e-61
1.81179e-61
1.07458e-61
6.07683e-62
3.28365e-62
1.69686e-62
8.38468e-63
3.95866e-63
1.78375e-63
7.66064e-64
3.13107e-64
1.21581e-64
4.47545e-65
1.5569e-65
5.09435e-66
1.55563e-66
4.37072e-67
1.09775e-67
2.29342e-68
2.99488e-69
-4.37701e-70
-3.54424e-70
-1.02027e-106
4.81314e-91
-1.27656e-83
-4.34197e-77
-7.46217e-74
1.06957e-70
1.61364e-68
2.46883e-67
-2.20903e-65
-7.87757e-64
-1.02447e-62
-7.14322e-62
-3.26715e-61
-1.10691e-60
-2.90807e-60
-5.91091e-60
-9.06783e-60
-9.88143e-60
-5.88788e-60
3.18523e-60
1.47736e-59
2.50013e-59
3.09128e-59
3.16824e-59
2.83567e-59
2.28191e-59
1.68268e-59
1.15252e-59
7.40692e-60
4.50102e-60
2.60096e-60
1.43481e-60
7.57333e-61
3.82836e-61
1.85318e-61
8.58301e-62
3.79873e-62
1.60428e-62
6.45458e-63
2.46949e-63
8.96443e-64
3.07804e-64
9.95047e-65
3.00554e-65
8.36772e-66
2.08947e-66
4.37735e-67
5.98508e-68
-6.05928e-69
-6.06397e-69
-1.09288e-103
1.63487e-88
-2.17768e-81
-6.65698e-75
-9.45996e-72
9.93983e-69
1.35343e-66
2.22474e-65
-1.27368e-63
-4.44614e-62
-5.44148e-61
-3.55857e-60
-1.53213e-59
-4.92108e-59
-1.2348e-58
-2.4121e-58
-3.57895e-58
-3.81722e-58
-2.34715e-58
7.57295e-59
4.49813e-58
7.58774e-58
9.17992e-58
9.16219e-58
7.97355e-58
6.23644e-58
4.4702e-58
2.97734e-58
1.86178e-58
1.10166e-58
6.20485e-59
3.34004e-59
1.72253e-59
8.51954e-60
4.04069e-60
1.83613e-60
7.98326e-61
3.3159e-61
1.31347e-61
4.95229e-62
1.7732e-62
6.01082e-63
1.92025e-63
5.73891e-64
1.58382e-64
3.93372e-65
8.26712e-66
1.18004e-66
-7.30247e-68
-1.01599e-67
-1.13889e-100
5.39616e-86
-3.35826e-79
-9.92643e-73
-1.1676e-69
8.9512e-67
1.10259e-64
1.86777e-63
-7.05834e-62
-2.44399e-60
-2.82181e-59
-1.73289e-58
-7.028e-58
-2.14114e-57
-5.13419e-57
-9.64455e-57
-1.38469e-56
-1.44521e-56
-9.10126e-57
1.385e-57
1.33035e-56
2.25121e-56
2.67038e-56
2.59843e-56
2.20064e-56
1.67414e-56
1.16724e-56
7.5645e-57
4.60502e-57
2.65465e-57
1.45792e-57
7.66054e-58
3.86111e-58
1.86886e-58
8.68615e-59
3.87319e-59
1.65457e-59
6.76009e-60
2.63678e-60
9.79895e-61
3.46136e-61
1.15861e-61
3.6586e-62
1.08216e-62
2.96133e-63
7.31786e-64
1.543e-64
2.29103e-65
-6.37521e-67
-1.66419e-66
-1.1535e-97
1.72895e-83
-4.33223e-77
-1.43805e-70
-1.40236e-67
7.79659e-65
8.71608e-63
1.4806e-61
-3.74002e-60
-1.30703e-58
-1.42755e-57
-8.24291e-57
-3.15128e-56
-9.11101e-56
-2.08891e-55
-3.77557e-55
-5.24728e-55
-5.35766e-55
-3.43293e-55
6.36218e-57
3.81237e-55
6.52283e-55
7.60299e-55
7.22129e-55
5.95677e-55
4.41093e-55
2.99336e-55
1.88871e-55
1.11998e-55
6.29302e-56
3.37144e-56
1.72983e-56
8.52349e-57
4.03829e-57
1.83966e-57
8.05082e-58
3.37959e-58
1.35843e-58
5.21827e-59
1.91172e-59
6.6632e-60
2.20277e-60
6.8768e-61
2.01353e-61
5.46471e-62
1.34384e-62
2.84253e-63
4.37324e-64
6.07793e-67
-2.65986e-65
-1.13429e-94
5.37145e-81
-3.41031e-75
-2.02176e-68
-1.63804e-65
6.55361e-63
6.67852e-61
1.11643e-59
-1.88059e-58
-6.79254e-57
-7.03938e-56
-3.82725e-55
-1.38024e-54
-3.78883e-54
-8.31004e-54
-1.44592e-53
-1.94593e-53
-1.94296e-53
-1.25942e-53
-1.08837e-54
1.05524e-53
1.84376e-53
2.11693e-53
1.96499e-53
1.58011e-53
1.13971e-53
7.53297e-54
4.63042e-54
2.67611e-54
1.46639e-54
7.66708e-55
3.84274e-55
1.85161e-55
8.58914e-56
3.83588e-56
1.64779e-56
6.79822e-57
2.68869e-57
1.01733e-57
3.67463e-58
1.26396e-58
4.12749e-59
1.27414e-59
3.6937e-60
9.9438e-61
2.43361e-61
5.16237e-62
8.19701e-63
2.15623e-64
-4.13854e-64
-1.08169e-91
1.61616e-78
3.94176e-73
-2.755e-66
-1.85951e-63
5.30171e-61
4.95395e-59
8.04155e-58
-8.86713e-57
-3.42575e-55
-3.38026e-54
-1.73317e-53
-5.90069e-53
-1.53856e-52
-3.22967e-52
-5.4124e-52
-7.05548e-52
-6.88602e-52
-4.49235e-52
-7.58153e-53
2.80974e-52
5.0784e-52
5.75913e-52
5.23095e-52
4.10403e-52
2.88541e-52
1.85867e-52
1.11369e-52
6.2767e-53
3.35582e-53
1.71318e-53
8.39089e-54
3.95504e-54
1.79673e-54
7.86802e-55
3.31826e-55
1.34568e-55
5.23745e-56
1.95223e-56
6.95347e-57
2.36072e-57
7.61605e-58
2.32509e-58
6.67443e-59
1.78251e-59
4.34155e-60
9.23169e-61
1.50698e-61
7.15222e-63
-6.25071e-63
-9.99136e-89
4.70309e-76
2.83758e-70
-3.63391e-64
-2.05002e-61
4.11334e-59
3.5524e-57
5.5464e-56
-3.83894e-55
-1.67412e-53
-1.57901e-52
-7.64818e-52
-2.4602e-51
-6.0957e-51
-1.22517e-50
-1.97839e-50
-2.49867e-50
-2.38252e-50
-1.5573e-50
-3.63042e-51
7.15745e-51
1.36143e-50
1.5295e-50
1.36113e-50
1.04278e-50
7.15122e-51
4.49227e-51
2.62539e-51
1.44373e-51
7.5353e-52
3.75778e-52
1.79932e-52
8.29916e-53
3.69334e-53
1.58622e-53
6.569e-54
2.619e-54
1.00325e-54
3.68445e-55
1.29425e-55
4.33754e-56
1.38266e-56
4.17501e-57
1.18688e-57
3.14468e-58
7.62199e-59
1.62364e-59
2.7147e-60
1.77439e-61
-9.13127e-62
-8.92727e-86
1.32174e-73
9.27222e-68
-4.63295e-62
-2.19296e-59
3.04654e-57
2.45858e-55
3.66757e-54
-1.46071e-53
-7.91314e-52
-7.16679e-51
-3.28564e-50
-9.99462e-50
-2.35413e-49
-4.53206e-49
-7.05468e-49
-8.63419e-49
-8.03889e-49
-5.24316e-49
-1.48399e-49
1.73074e-49
3.54796e-49
3.96176e-49
3.45879e-49
2.58962e-49
1.73339e-49
1.06251e-49
6.06003e-50
3.25335e-50
1.65852e-50
8.08329e-51
3.78547e-51
1.70916e-51
7.4533e-52
3.14023e-52
1.27723e-52
5.00708e-53
1.88807e-53
6.8327e-54
2.3674e-54
7.83306e-55
2.46742e-55
7.36987e-56
2.075e-56
5.45434e-57
1.31537e-57
2.8052e-58
4.78726e-59
3.85187e-60
-1.28403e-60
-7.70483e-83
3.58132e-71
2.42418e-65
-5.70011e-60
-2.27411e-57
2.14013e-55
1.63915e-53
2.32602e-52
-4.31979e-52
-3.61003e-50
-3.15644e-49
-1.37266e-48
-3.95248e-48
-8.85325e-48
-1.63308e-47
-2.45144e-47
-2.90793e-47
-2.64211e-47
-1.7132e-47
-5.50335e-48
3.92531e-48
8.97768e-48
9.99979e-48
8.57559e-48
6.27945e-48
4.10507e-48
2.45673e-48
1.36821e-48
7.17478e-49
3.57437e-49
1.70338e-49
7.80527e-50
3.45106e-50
1.47514e-50
6.09852e-51
2.43668e-51
9.39435e-52
3.4876e-52
1.24386e-52
4.25147e-53
1.38894e-53
4.32393e-54
1.27764e-54
3.56282e-55
9.29098e-56
2.22892e-56
4.75544e-57
8.25644e-58
7.69076e-59
-1.72658e-59
-6.41334e-80
9.3377e-69
5.62057e-63
-6.75611e-58
-2.28367e-55
1.41213e-53
1.05039e-51
1.41454e-50
-4.3527e-51
-1.58541e-48
-1.34694e-47
-5.57024e-47
-1.51992e-46
-3.23874e-46
-5.72595e-46
-8.29178e-46
-9.53426e-46
-8.44838e-46
-5.42784e-46
-1.89892e-46
8.18126e-47
2.20329e-46
2.4575e-46
2.07263e-46
1.48532e-46
9.48854e-47
5.54706e-47
3.01814e-47
1.54677e-47
7.53427e-48
3.51247e-48
1.57553e-48
6.82433e-49
2.86023e-49
1.16062e-49
4.55644e-50
1.72794e-50
6.3166e-51
2.22055e-51
7.48808e-52
2.41574e-52
7.43306e-53
2.17289e-53
6.00152e-54
1.55255e-54
3.70424e-55
7.90033e-56
1.39129e-56
1.4436e-57
-2.19836e-58
-5.13982e-77
2.33736e-66
1.19923e-60
-7.69955e-56
-2.21807e-53
8.61313e-52
6.45225e-50
8.24219e-49
6.83575e-49
-6.68072e-47
-5.55927e-46
-2.1927e-45
-5.677e-45
-1.1512e-44
-1.95117e-44
-2.72661e-44
-3.03939e-44
-2.62487e-44
-1.66568e-44
-6.1721e-45
1.5045e-45
5.23976e-45
5.8759e-45
4.87876e-45
3.42368e-45
2.13824e-45
1.22166e-45
6.49717e-46
3.25582e-46
1.55139e-46
7.07885e-47
3.10964e-47
1.32005e-47
5.42679e-48
2.16199e-48
8.34177e-49
3.11232e-49
1.12049e-49
3.8831e-50
1.29207e-50
4.11666e-51
1.25205e-51
3.62124e-52
9.90649e-53
2.54205e-53
6.03022e-54
1.28465e-54
2.28831e-55
2.57611e-56
-2.60862e-57
-3.95868e-74
5.60049e-64
2.39467e-58
-8.41902e-54
-2.08087e-51
4.71151e-50
3.78661e-48
4.59552e-47
7.67684e-47
-2.68972e-45
-2.21477e-44
-8.36067e-44
-2.05694e-43
-3.97086e-43
-6.45346e-43
-8.7052e-43
-9.40817e-43
-7.91334e-43
-4.94523e-43
-1.90197e-43
2.19366e-44
1.20692e-43
1.36609e-43
1.11753e-43
7.68237e-44
4.69241e-44
2.62118e-44
1.3632e-44
6.68269e-45
3.11653e-45
1.39251e-45
5.99352e-46
2.49455e-46
1.00627e-46
3.93716e-47
1.49337e-47
5.48286e-48
1.94436e-48
6.6437e-49
2.18157e-49
6.86521e-50
2.06408e-50
5.90665e-51
1.60043e-51
4.07313e-52
9.60369e-53
2.04194e-53
3.66948e-54
4.39721e-55
-2.8016e-56
-2.92422e-71
1.27944e-61
4.51295e-56
-8.81144e-52
-1.88263e-49
2.15229e-48
2.11402e-46
2.44736e-45
5.63108e-45
-1.02868e-43
-8.49659e-43
-3.08278e-42
-7.22004e-42
-1.3274e-41
-2.06891e-41
-2.69466e-41
-2.82375e-41
-2.31151e-41
-1.41845e-41
-5.57489e-42
1.43149e-43
2.6933e-42
3.08723e-42
2.48907e-42
1.67641e-42
1.00162e-42
5.47193e-43
2.78394e-43
1.33569e-43
6.09948e-44
2.67002e-44
1.12652e-44
4.59901e-45
1.82105e-45
6.99992e-46
2.61082e-46
9.43481e-47
3.29636e-47
1.1107e-47
3.5997e-48
1.11898e-48
3.32598e-49
9.41737e-50
2.52721e-50
6.37824e-51
1.49425e-51
3.16827e-52
5.73013e-53
7.20366e-54
-2.5478e-55
-2.06706e-68
2.77065e-59
8.06016e-54
-8.80319e-50
-1.63965e-47
6.28501e-47
1.11634e-44
1.24186e-43
3.45849e-43
-3.70607e-42
-3.12978e-41
-1.09718e-40
-2.45147e-40
-4.2942e-40
-6.41948e-40
-8.07506e-40
-8.20526e-40
-6.53183e-40
-3.92465e-40
-1.55631e-40
-5.72722e-42
5.83145e-41
6.78199e-41
5.38723e-41
3.55393e-41
2.07707e-41
1.10993e-41
5.52596e-42
2.59585e-42
1.16127e-42
4.98265e-43
2.06172e-43
8.25971e-44
3.2117e-44
1.21327e-44
4.45113e-45
1.58362e-45
5.45222e-46
1.81193e-46
5.7967e-47
1.78014e-47
5.23126e-48
1.46561e-48
3.89517e-49
9.74728e-50
2.26806e-50
4.79163e-51
8.70183e-52
1.13455e-52
-1.55529e-54
-1.39476e-65
5.6339e-57
1.36647e-51
-8.36908e-48
-1.37181e-45
-1.6119e-45
5.53038e-43
5.98503e-42
1.89956e-41
-1.24139e-40
-1.10308e-39
-3.76121e-39
-8.03861e-39
-1.34232e-38
-1.92477e-38
-2.33884e-38
-2.30461e-38
-1.78257e-38
-1.04564e-38
-4.13742e-39
-3.27337e-40
1.2292e-39
1.44905e-39
1.13251e-39
7.31252e-40
4.17921e-40
2.18449e-40
1.06449e-40
4.8977e-41
2.14734e-41
9.03511e-42
3.66821e-42
1.44277e-42
5.51138e-43
2.0469e-43
7.38885e-44
2.5888e-44
8.78496e-45
2.88e-45
9.09633e-46
2.75996e-46
8.01936e-47
2.22311e-47
5.85107e-48
1.45147e-48
3.35316e-49
7.05237e-50
1.2832e-50
1.71876e-51
4.83275e-54
-8.95851e-63
1.05738e-54
2.19892e-49
-7.54302e-46
-1.09982e-43
-4.78231e-43
2.53797e-41
2.7279e-40
9.57949e-40
-3.77793e-39
-3.70337e-38
-1.23895e-37
-2.54117e-37
-4.04765e-37
-5.56717e-37
-6.53597e-37
-6.24571e-37
-4.68959e-37
-2.6772e-37
-1.04613e-37
-1.10397e-38
2.53761e-38
3.01484e-38
2.31194e-38
1.45903e-38
8.14854e-39
4.16533e-39
1.98682e-39
8.95581e-40
3.8498e-40
1.58919e-40
6.33367e-41
2.44686e-41
9.18656e-42
3.35562e-42
1.19225e-42
4.11487e-43
1.37664e-43
4.45292e-44
1.38874e-44
4.16362e-45
1.19624e-45
3.28133e-46
8.55177e-47
2.10259e-47
4.82041e-48
1.00838e-48
1.83434e-49
2.50369e-50
3.79251e-52
-5.46005e-60
1.76593e-52
3.35435e-47
-6.41595e-44
-8.42486e-42
-5.26149e-41
1.05547e-39
1.16906e-38
4.49072e-38
-9.95329e-38
-1.17751e-36
-3.91067e-36
-7.72928e-36
-1.17531e-35
-1.55049e-35
-1.75896e-35
-1.63016e-35
-1.18698e-35
-6.572e-36
-2.50962e-36
-2.97151e-37
5.17751e-37
6.1199e-37
4.58353e-37
2.82068e-37
1.53762e-37
7.68267e-38
3.58677e-38
1.58425e-38
6.67932e-39
2.70623e-39
1.05927e-39
4.02142e-40
1.48456e-40
5.33555e-41
1.86658e-41
6.348e-42
2.0943e-42
6.68541e-43
2.0591e-43
6.10089e-44
1.73332e-44
4.70454e-45
1.21398e-45
2.95754e-46
6.7257e-47
1.39806e-47
2.53706e-48
3.50294e-49
8.357e-51
-3.14636e-57
2.37451e-50
4.83923e-45
-5.1198e-42
-6.1447e-40
-4.47121e-39
3.80094e-38
4.67156e-37
1.96836e-36
-1.9737e-36
-3.51782e-35
-1.17903e-34
-2.25712e-34
-3.27986e-34
-4.14967e-34
-4.54934e-34
-4.08937e-34
-2.88425e-34
-1.54268e-34
-5.69066e-35
-6.74619e-36
1.05601e-35
1.21529e-35
8.82863e-36
5.28012e-36
2.8044e-36
1.36842e-36
6.25121e-37
2.70578e-37
1.11918e-37
4.45249e-38
1.71244e-38
6.39162e-39
2.32118e-39
8.21176e-40
2.82971e-40
9.48591e-41
3.08703e-41
9.72737e-42
2.95936e-42
8.66627e-43
2.43492e-43
6.53916e-44
1.67053e-44
4.03155e-45
9.08911e-46
1.87544e-46
3.38754e-47
4.69857e-48
1.37161e-49
-1.7069e-54
1.51249e-48
6.5806e-43
-3.80099e-40
-4.24907e-38
-3.29017e-37
1.04269e-36
1.71836e-35
8.08346e-35
-9.0841e-36
-9.76102e-34
-3.38231e-33
-6.31267e-33
-8.77759e-33
-1.06491e-32
-1.12824e-32
-9.83753e-33
-6.71234e-33
-3.45203e-33
-1.21297e-33
-1.27461e-34
2.17717e-34
2.36831e-34
1.65337e-34
9.5653e-35
4.93731e-35
2.34971e-35
1.04972e-35
4.45218e-36
1.80706e-36
7.06174e-37
2.66987e-37
9.80216e-38
3.50352e-38
1.2206e-38
4.14471e-39
1.37004e-39
4.39934e-40
1.36872e-40
4.11391e-41
1.19087e-41
3.30909e-42
8.7929e-43
2.22349e-43
5.31389e-44
1.18697e-44
2.42838e-45
4.35524e-46
6.02568e-47
1.87522e-48
-8.6711e-52
-5.0921e-46
8.39833e-41
-2.59089e-38
-2.77132e-36
-2.17987e-35
8.74946e-36
5.69033e-34
3.10795e-33
1.76594e-33
-2.46932e-32
-9.18971e-32
-1.68602e-31
-2.24719e-31
-2.61391e-31
-2.67616e-31
-2.26382e-31
-1.4922e-31
-7.33691e-32
-2.41045e-32
-1.79994e-33
4.56608e-33
4.54286e-33
3.01324e-33
1.67622e-33
8.37977e-34
3.8823e-34
1.69465e-34
7.0412e-35
2.80473e-35
1.07699e-35
4.00451e-36
1.44686e-36
5.09223e-37
1.74791e-37
5.85112e-38
1.90785e-38
6.04691e-39
1.85803e-39
5.51847e-40
1.5793e-40
4.34031e-41
1.14107e-41
2.85564e-42
6.75572e-43
1.49406e-43
3.02665e-44
5.37497e-45
7.36082e-46
2.15524e-47
-4.09469e-49
-2.87405e-43
1.00044e-38
-1.58212e-36
-1.69378e-34
-1.32237e-33
-1.47714e-33
1.62096e-32
1.115e-31
1.242e-31
-5.50354e-31
-2.35096e-30
-4.28531e-30
-5.4875e-30
-6.11937e-30
-6.05359e-30
-4.96932e-30
-3.15953e-30
-1.47479e-30
-4.40903e-31
-8.51012e-33
9.72006e-32
8.59456e-32
5.34878e-32
2.8403e-32
1.36922e-32
6.15998e-33
2.62398e-33
1.06755e-33
4.17337e-34
1.57512e-34
5.76224e-35
2.04986e-35
7.10746e-36
2.40479e-36
7.93944e-37
2.55468e-37
7.99487e-38
2.42687e-38
7.12418e-39
2.01593e-39
5.47983e-40
1.42524e-40
3.52914e-41
8.26081e-42
1.80723e-42
3.6194e-43
6.34378e-44
8.52048e-45
1.94519e-46
-1.77641e-46
-9.57976e-41
1.10488e-36
-8.17493e-35
-9.61993e-33
-7.39997e-32
-1.45625e-31
3.49984e-31
3.70835e-30
5.86419e-30
-9.97357e-30
-5.61938e-29
-1.03188e-28
-1.27346e-28
-1.36165e-28
-1.30136e-28
-1.03713e-28
-6.35081e-29
-2.78936e-29
-7.26218e-30
5.83241e-31
2.07766e-30
1.60365e-30
9.25132e-31
4.65132e-31
2.15067e-31
9.36556e-32
3.88658e-32
1.54722e-32
5.93545e-33
2.20232e-33
7.92994e-34
2.77882e-34
9.49679e-35
3.16884e-35
1.0323e-35
3.27928e-36
1.01368e-36
3.04079e-37
8.82465e-38
2.46942e-38
6.63948e-39
1.7082e-39
4.18382e-40
9.68394e-41
2.0935e-41
4.13685e-42
7.12677e-43
9.27648e-44
9.37057e-46
-6.91461e-44
-2.60378e-38
1.12169e-34
-2.936e-33
-5.02068e-31
-3.82911e-30
-9.36012e-30
2.41062e-30
1.13109e-28
2.28897e-28
-1.07346e-28
-1.24136e-27
-2.33994e-27
-2.79507e-27
-2.86739e-27
-2.64729e-27
-2.0499e-27
-1.2073e-27
-4.93401e-28
-1.03099e-28
2.874e-29
4.38944e-29
2.94291e-29
1.55816e-29
7.3548e-30
3.24174e-30
1.36107e-30
5.49058e-31
2.13664e-31
8.04124e-32
2.93369e-32
1.04008e-32
3.5918e-33
1.21049e-33
3.98529e-34
1.28164e-34
4.02116e-35
1.22826e-35
3.64225e-36
1.04522e-36
2.89284e-37
7.69328e-38
1.95761e-38
4.74061e-39
1.08418e-39
2.31288e-40
4.49793e-41
7.57475e-42
9.39232e-43
-1.15005e-44
-2.26642e-41
-6.17278e-36
1.03553e-32
2.46042e-32
-2.36935e-29
-1.82937e-28
-4.95477e-28
-2.84544e-28
3.10822e-27
7.79681e-27
1.55996e-27
-2.4925e-26
-4.95536e-26
-5.76466e-26
-5.68243e-26
-5.06796e-26
-3.81829e-26
-2.16115e-26
-8.10444e-27
-1.1225e-27
8.9952e-28
9.01759e-28
5.28163e-28
2.54998e-28
1.12107e-28
4.67876e-29
1.88522e-29
7.37281e-30
2.80102e-30
1.03376e-30
3.70853e-31
1.29495e-31
4.40885e-32
1.46592e-32
4.76416e-33
1.5132e-33
4.69132e-34
1.41654e-34
4.15385e-35
1.17904e-35
3.22787e-36
8.49053e-37
2.13623e-37
5.11191e-38
1.15396e-38
2.42474e-39
4.62452e-40
7.55371e-41
8.6791e-42
-4.47201e-43
-4.74821e-39
-1.29762e-33
8.56962e-31
1.85633e-29
-9.85351e-28
-8.02244e-27
-2.29144e-26
-2.13625e-26
7.46166e-26
2.35562e-25
1.42825e-25
-4.42009e-25
-9.68279e-25
-1.10727e-24
-1.05184e-24
-9.06371e-25
-6.66002e-25
-3.62427e-25
-1.22626e-25
-4.70373e-27
2.29757e-26
1.77614e-26
9.19623e-27
4.03809e-27
1.64254e-27
6.44664e-28
2.47993e-28
9.37277e-29
3.47086e-29
1.25546e-29
4.42855e-30
1.52336e-30
5.11515e-31
1.67862e-31
5.38768e-32
1.69089e-32
5.18235e-33
1.54755e-33
4.48913e-34
1.26063e-34
3.41421e-35
8.88168e-36
2.20869e-36
5.21854e-37
1.16108e-37
2.39678e-38
4.46038e-39
6.98177e-40
7.06013e-41
-8.95518e-42
1.17427e-36
-2.41132e-31
6.22896e-29
2.37058e-27
-3.43935e-26
-3.19049e-25
-9.41575e-25
-1.01379e-24
1.47033e-24
6.30669e-24
5.56058e-24
-6.52409e-24
-1.71461e-23
-1.95674e-23
-1.80035e-23
-1.49921e-23
-1.07854e-23
-5.65944e-24
-1.69541e-24
1.86003e-25
5.11431e-25
3.31642e-25
1.53882e-25
6.14872e-26
2.30271e-26
8.44414e-27
3.08424e-27
1.12253e-27
4.04452e-28
1.43279e-28
4.96879e-29
1.68397e-29
5.57794e-30
1.80723e-30
5.7306e-31
1.77789e-31
5.38919e-32
1.59225e-32
4.57076e-33
1.27018e-33
3.40336e-34
8.75393e-35
2.15034e-35
5.01052e-36
1.09641e-36
2.21485e-37
3.99044e-38
5.86367e-39
4.62523e-40
-1.42229e-40
2.53458e-33
-3.90201e-29
3.84516e-27
2.18802e-25
-8.89744e-25
-1.12541e-23
-3.42372e-23
-3.82003e-23
1.98671e-23
1.47437e-22
1.62831e-22
-6.726e-23
-2.67543e-22
-3.12995e-22
-2.81126e-22
-2.26168e-22
-1.60236e-22
-8.16945e-23
-2.13044e-23
7.14955e-24
1.01787e-23
5.81833e-24
2.44937e-24
8.92619e-25
3.06794e-25
1.04515e-25
3.6049e-26
1.25882e-26
4.40435e-27
1.5268e-27
5.20395e-28
1.73752e-28
5.6777e-29
1.81644e-29
5.69184e-30
1.74623e-30
5.23739e-31
1.53167e-31
4.35276e-32
1.19727e-32
3.17363e-33
8.06794e-34
1.95572e-34
4.48591e-35
9.62249e-36
1.89048e-36
3.25374e-37
4.30997e-38
1.65055e-39
-1.95963e-39
2.34512e-30
-5.35517e-27
1.86405e-25
1.63166e-23
-8.42293e-24
-3.3852e-22
-1.07618e-21
-1.18711e-21
8.5715e-25
2.91199e-21
3.91506e-21
-1.70268e-23
-3.50715e-21
-4.44061e-21
-3.93434e-21
-3.05038e-21
-2.146e-21
-1.08124e-21
-2.44481e-22
1.65848e-22
1.83151e-22
9.5179e-23
3.66867e-23
1.22218e-23
3.84729e-24
1.21187e-24
3.9277e-25
1.31131e-25
4.44692e-26
1.50713e-26
5.04611e-27
1.65918e-27
5.34694e-28
1.68884e-28
5.22964e-29
1.58694e-29
4.71121e-30
1.36438e-30
3.83991e-31
1.04561e-31
2.74143e-32
6.88277e-33
1.64378e-33
3.70036e-34
7.73809e-35
1.46262e-35
2.34357e-36
2.52893e-37
-1.43478e-38
-2.41987e-38
1.72197e-27
-5.97184e-25
4.73073e-24
9.70967e-22
7.06904e-22
-8.08934e-21
-2.77661e-20
-2.96413e-20
-1.07521e-20
4.54478e-20
7.75075e-20
2.09804e-20
-3.50009e-20
-5.47597e-20
-4.82227e-20
-3.57183e-20
-2.52074e-20
-1.30316e-20
-2.6429e-21
3.01781e-21
2.99051e-21
1.44048e-21
5.10829e-22
1.55686e-22
4.48075e-23
1.30026e-23
3.94424e-24
1.25554e-24
4.12057e-25
1.36399e-25
4.48187e-26
1.44972e-26
4.60283e-27
1.43416e-27
4.38676e-28
1.31661e-28
3.86999e-29
1.11034e-29
3.09592e-30
8.34633e-31
2.16332e-31
5.35632e-32
1.25668e-32
2.76149e-33
5.57254e-34
9.91614e-35
1.39117e-35
7.86593e-37
-4.13854e-37
-2.71582e-37
1.06167e-24
-5.01678e-23
-4.61198e-22
4.20643e-20
4.98195e-20
-1.33372e-19
-5.26475e-19
-5.38428e-19
-4.50797e-19
4.80595e-19
1.17453e-18
6.61416e-19
-1.89708e-19
-5.89848e-19
-5.0254e-19
-3.4673e-19
-2.47749e-19
-1.43772e-19
-2.90258e-20
4.48352e-20
4.4294e-20
1.99772e-20
6.51131e-21
1.81144e-21
4.75538e-22
1.268e-22
3.59222e-23
1.08897e-23
3.4561e-24
1.11601e-24
3.59164e-25
1.14005e-25
3.55718e-26
1.09109e-26
3.29215e-27
9.76731e-28
2.84284e-28
8.08421e-29
2.23401e-29
5.96193e-30
1.52589e-30
3.71514e-31
8.51369e-32
1.80631e-32
3.44007e-33
5.45702e-34
5.35348e-35
-6.57437e-36
-6.0316e-36
-2.78571e-36
5.16384e-22
-2.67365e-21
-1.2595e-19
1.01842e-18
1.53096e-18
-1.02785e-18
-6.10018e-18
-6.05571e-18
-1.51409e-17
2.03711e-18
1.19454e-17
1.59449e-17
1.24074e-18
-6.4583e-18
-4.29908e-18
-2.56983e-18
-1.85882e-18
-1.52879e-18
-3.5445e-19
5.20176e-19
5.97724e-19
2.50927e-19
7.43161e-20
1.87346e-20
4.46949e-21
1.09403e-21
2.89795e-22
8.38152e-23
2.57309e-23
8.08571e-24
2.53659e-24
7.85343e-25
2.39335e-25
7.18913e-26
2.13212e-26
6.242e-27
1.79853e-27
5.07199e-28
1.38974e-28
3.66901e-29
9.24584e-30
2.19877e-30
4.85495e-31
9.6727e-32
1.62908e-32
1.83766e-33
-1.13231e-34
-1.61891e-34
-6.86906e-35
-2.61399e-35
1.56486e-19
-4.19184e-20
-2.63323e-17
5.29558e-17
3.81093e-16
1.47397e-17
-1.80323e-15
-2.73411e-15
-4.98284e-16
6.56471e-16
3.32475e-15
4.159e-16
3.96955e-17
-1.51194e-16
-2.93873e-17
-1.2045e-17
-8.54985e-18
-1.82946e-17
-4.81096e-18
3.87792e-18
7.69465e-18
2.82586e-18
7.32985e-19
1.64623e-19
3.54998e-20
8.00128e-21
1.99813e-21
5.55369e-22
1.65021e-22
5.00984e-23
1.51174e-23
4.48973e-24
1.31357e-24
3.80635e-25
1.09774e-25
3.15362e-26
8.98447e-27
2.51541e-27
6.83932e-28
1.78199e-28
4.38195e-29
9.96487e-30
2.02393e-30
3.38072e-31
3.28346e-32
-5.96351e-33
-5.0024e-33
-2.03686e-33
-6.65888e-34
-2.23872e-34
1.23109e-16
-8.33941e-16
-3.59792e-15
3.50466e-14
2.81332e-14
-1.89421e-13
-1.02703e-13
-6.40248e-14
2.22673e-13
6.19174e-13
1.01021e-13
-1.79102e-13
-8.71344e-14
-5.45068e-15
-3.34613e-18
-4.41507e-17
-7.84294e-17
-5.03787e-16
-6.30556e-17
2.92358e-17
1.22552e-16
2.81739e-17
5.80129e-18
1.12431e-18
2.18411e-19
4.60899e-20
1.11345e-20
3.0221e-21
8.64161e-22
2.46443e-22
6.82311e-23
1.82534e-23
4.76679e-24
1.23955e-24
3.28163e-25
8.95784e-26
2.50502e-26
7.00637e-27
1.8977e-27
4.80481e-28
1.08682e-28
2.00549e-29
2.07699e-30
-4.76183e-31
-4.13524e-31
-1.8116e-31
-6.37227e-32
-1.98068e-32
-5.64654e-33
-1.74111e-33
2.81065e-14
-3.16589e-13
2.7291e-13
2.47914e-12
-7.55372e-12
-2.52086e-11
-6.20906e-12
1.57597e-10
1.33713e-10
1.83899e-11
-3.04112e-11
-2.34262e-11
-2.305e-12
2.68537e-14
-6.02887e-13
-5.31317e-13
-1.57186e-13
-1.07311e-14
3.41552e-15
2.16205e-14
2.50921e-15
1.68512e-16
2.72396e-17
4.65702e-18
8.52755e-19
1.82485e-19
4.59909e-20
1.24335e-20
3.23336e-21
7.41339e-22
1.32941e-22
1.08984e-23
-4.60807e-24
-3.15894e-24
-1.25731e-24
-4.06422e-25
-1.16618e-25
-3.12579e-26
-8.22279e-27
-2.23843e-27
-6.54745e-28
-2.05412e-28
-6.67579e-29
-2.16184e-29
-6.79658e-30
-2.04788e-30
-5.88613e-31
-1.61297e-31
-4.21921e-32
-1.21996e-32
-7.96825e-12
-1.75632e-11
8.77914e-11
4.1162e-11
-6.21707e-10
-1.13884e-09
8.76369e-09
3.64942e-09
3.99761e-09
-4.23995e-08
-1.13726e-08
-4.87911e-10
-7.37416e-12
2.18229e-12
-7.1577e-12
-4.65309e-12
-1.02658e-12
4.78532e-13
3.49748e-12
5.87421e-13
4.38899e-17
1.12388e-17
6.6361e-18
2.94219e-18
1.1361e-18
4.05722e-19
1.28264e-19
3.10191e-20
3.39389e-21
-1.68129e-21
-1.44824e-21
-7.06613e-22
-2.77437e-22
-9.57254e-23
-3.01653e-23
-8.87791e-24
-2.48025e-24
-6.67363e-25
-1.7551e-25
-4.57952e-26
-1.2013e-26
-3.19378e-27
-8.61005e-28
-2.33846e-28
-6.333e-29
-1.69233e-29
-4.42424e-30
-1.12475e-30
-2.76992e-31
-7.61331e-32
-1.21013e-09
2.89099e-09
9.76838e-09
-2.33507e-08
-7.34178e-08
3.35126e-07
5.11661e-07
7.39183e-10
-3.66648e-06
-1.02443e-06
-7.76927e-08
8.37079e-11
-1.22647e-10
1.20422e-09
3.87256e-10
4.13402e-11
2.99184e-10
4.19587e-10
1.02817e-10
1.48308e-12
8.97175e-16
3.59592e-17
1.7256e-17
7.57096e-18
3.10626e-18
1.13761e-18
2.74033e-19
-3.44333e-20
-7.64872e-20
-4.84573e-20
-2.23758e-20
-8.71912e-21
-3.03625e-21
-9.73869e-22
-2.93172e-22
-8.39318e-23
-2.30894e-23
-6.15952e-24
-1.60735e-24
-4.13755e-25
-1.05836e-25
-2.70402e-26
-6.91339e-27
-1.76584e-27
-4.48605e-28
-1.12694e-28
-2.78283e-29
-6.72001e-30
-1.58032e-30
-4.16205e-31
1.12161e-07
2.64554e-07
1.15168e-07
-4.67945e-07
-6.43473e-07
6.50436e-06
1.14255e-05
-9.95614e-05
-7.15471e-05
0.000138318
0.00102
0.00174411
0.00152952
0.000630619
2.85131e-05
1.64625e-08
7.98154e-09
9.01612e-09
5.48701e-10
3.55013e-14
1.85134e-15
5.57476e-17
2.93256e-17
1.62988e-17
7.95722e-18
2.78473e-18
-1.51548e-19
-1.24003e-18
-9.49799e-19
-4.75679e-19
-1.93678e-19
-6.94042e-20
-2.27513e-20
-6.97882e-21
-2.03346e-21
-5.68892e-22
-1.54072e-22
-4.0665e-23
-1.05211e-23
-2.68227e-24
-6.76758e-25
-1.69496e-25
-4.21881e-26
-1.04268e-26
-2.55217e-27
-6.16344e-28
-1.46234e-28
-3.39439e-29
-7.67862e-30
-1.94347e-30
5.75521e-05
3.27054e-05
-0.000329873
-0.000143379
0.000773493
0.000332646
-0.00297909
-0.005997
0.000183088
0.0265179
0.070304
0.109201
0.11701
0.0956609
0.0574761
0.0232549
0.00462418
1.90029e-05
-1.21068e-12
4.84469e-14
3.62614e-14
9.88079e-16
2.84841e-17
2.9796e-17
2.15854e-17
6.72132e-18
-5.01075e-18
-1.15631e-17
-7.68978e-18
-3.40379e-18
-1.26072e-18
-4.20538e-19
-1.30465e-19
-3.83503e-20
-1.08184e-20
-2.95578e-21
-7.87385e-22
-2.05502e-22
-5.27401e-23
-1.3347e-23
-3.33763e-24
-8.25694e-25
-2.02096e-25
-4.8884e-26
-1.16596e-26
-2.73389e-27
-6.27939e-28
-1.40746e-28
-3.0662e-29
-7.42576e-30
0.00057837
-0.000354003
-0.00353366
-0.00110887
0.00602486
0.00103822
-0.0199479
-0.0285607
0.0131833
0.130044
0.304175
0.466417
0.527405
0.473734
0.337129
0.183679
0.0702749
0.0136146
6.63919e-05
-1.21826e-14
-4.36612e-15
-5.09346e-16
-1.95352e-17
1.04436e-16
1.16559e-16
3.80822e-17
-2.1565e-17
-8.5235e-17
-5.22872e-17
-1.9272e-17
-6.30418e-18
-1.93392e-18
-5.64948e-19
-1.58756e-19
-4.33065e-20
-1.15531e-20
-3.0296e-21
-7.83212e-22
-1.99875e-22
-5.03708e-23
-1.25326e-23
-3.07637e-24
-7.44085e-25
-1.76996e-25
-4.1299e-26
-9.4221e-27
-2.09367e-27
-4.51039e-28
-9.36635e-29
-2.11977e-29
4.71758e-05
-0.000808261
-0.00116001
0.00557732
0.014427
0.00098767
-0.0357596
-0.0403855
0.0401995
0.223878
0.485573
0.765246
0.950126
0.947228
0.774291
0.501424
0.245832
0.0808107
0.0104796
3.13486e-15
7.19969e-16
3.74067e-16
8.73692e-16
3.17008e-15
2.11023e-15
3.38805e-16
-1.21537e-15
-1.66078e-15
-3.28254e-16
-7.74806e-17
-2.11717e-17
-5.948e-18
-1.64659e-18
-4.45389e-19
-1.18237e-19
-3.10029e-20
-8.061e-21
-2.0797e-21
-5.31514e-22
-1.34198e-22
-3.33742e-23
-8.15133e-24
-1.94937e-24
-4.54933e-25
-1.03187e-25
-2.2629e-26
-4.76394e-27
-9.5259e-28
-1.77718e-28
-3.27583e-29
6.43633e-05
-0.00186269
-0.00273848
0.00782559
0.0233663
0.00864821
-0.0456962
-0.0638945
0.0349905
0.252732
0.523406
0.795
1.02113
1.10756
1.015
0.760842
0.447199
0.192049
0.0488432
0.00225025
2.92411e-12
6.81647e-14
2.3047e-13
7.82256e-14
2.12422e-14
-1.25334e-13
-1.78377e-13
-2.41645e-14
-9.0747e-17
-4.28001e-17
-1.99891e-17
-6.99177e-18
-2.11252e-18
-5.91656e-19
-1.60113e-19
-4.28195e-20
-1.14043e-20
-3.0186e-21
-7.88849e-22
-2.02028e-22
-5.03594e-23
-1.21392e-23
-2.80936e-24
-6.18113e-25
-1.27251e-25
-2.37763e-26
-3.74504e-27
-3.72208e-28
4.29976e-29
5.64468e-29
0.000647338
-0.000353905
-0.0053022
-0.00125397
0.0197647
0.021422
-0.0292619
-0.0808803
-0.0277334
0.168079
0.438311
0.704317
0.930735
1.06022
1.03502
0.848813
0.559791
0.280945
0.0951533
0.0130259
6.65819e-11
2.76262e-11
4.29136e-12
7.94183e-13
-1.00226e-11
-1.55668e-11
-2.44006e-12
6.30461e-16
1.9232e-16
5.16921e-17
1.54531e-17
4.53839e-18
1.24796e-18
3.16325e-19
7.3563e-20
1.56856e-20
3.08784e-21
5.81615e-22
1.17622e-22
3.09005e-23
1.08803e-23
4.29998e-24
1.67018e-24
6.11293e-25
2.09869e-25
6.79461e-26
2.08826e-26
6.12871e-27
1.72591e-27
5.73163e-28
0.000387953
0.00152803
-0.00216705
-0.00781888
0.00155796
0.0191912
0.00468088
-0.0489829
-0.0711449
0.00626894
0.196805
0.4638
0.749797
0.965242
1.00088
0.864513
0.602566
0.326758
0.126736
0.0263534
0.0002937
1.56325e-10
5.92826e-11
-2.64577e-09
-1.46348e-09
-2.0327e-10
7.88387e-14
2.17558e-14
1.68661e-15
1.91033e-16
5.44955e-17
1.63143e-17
4.92498e-18
1.46808e-18
4.29468e-19
1.23737e-19
3.53286e-20
1.00478e-20
2.85525e-21
8.11236e-22
2.30173e-22
6.50529e-23
1.82562e-23
5.07086e-24
1.38999e-24
3.75109e-25
9.94758e-26
2.58893e-26
6.60675e-27
2.00251e-27
-0.000218
0.000702274
0.0019187
-0.00172709
-0.00678292
0.000365227
0.0155021
0.007467
-0.0377963
-0.0746297
-0.0300596
0.140788
0.406146
0.653275
0.74825
0.68205
0.502114
0.29175
0.125279
0.0317925
0.00137732
-1.4689e-07
-1.69188e-07
-7.51507e-08
-1.265e-08
6.58472e-12
2.54046e-12
2.71103e-13
4.48827e-17
3.05165e-17
2.43375e-17
1.26575e-17
5.15866e-18
1.8328e-18
6.03737e-19
1.91178e-19
5.93394e-20
1.82022e-20
5.52572e-21
1.65696e-21
4.89395e-22
1.42009e-22
4.04097e-23
1.1264e-23
3.07417e-24
8.21403e-25
2.14906e-25
5.50709e-26
1.38265e-26
4.12452e-27
-4.32591e-05
-0.000530108
0.000143765
0.00216118
0.00066581
-0.0038257
-0.000354083
0.0125201
0.0118248
-0.0204532
-0.0572698
-0.0388944
0.0663299
0.217022
0.317926
0.31611
0.243418
0.142982
0.0609551
0.0154482
0.0006791
-2.42695e-06
-1.13883e-06
-2.67754e-07
-1.13832e-08
6.44925e-11
1.78042e-11
8.26827e-13
-8.84056e-16
-1.99159e-16
-4.59775e-17
-8.60997e-18
-1.04312e-18
8.67682e-20
1.30324e-19
6.78647e-20
2.85946e-20
1.09235e-20
3.91493e-21
1.33404e-21
4.35041e-22
1.36335e-22
4.11923e-23
1.20335e-23
3.40747e-24
9.37314e-25
2.50929e-25
6.54753e-26
1.66714e-26
5.05135e-27
5.52164e-05
4.66141e-05
-0.000308567
-0.000369043
0.000390897
0.000305904
-0.00175262
-0.00169925
0.00363996
0.00690865
-0.00138839
-0.0163641
-0.0197997
-0.00575551
0.0148921
0.023897
0.0201824
0.0109301
0.00305997
-0.000223645
-0.000106796
-2.15309e-05
-9.92485e-07
3.00413e-08
9.84941e-09
9.42597e-10
-2.34887e-12
-5.91969e-13
-2.36134e-14
-3.14412e-17
-1.80604e-17
-9.34182e-18
-3.7603e-18
-1.33918e-18
-4.43718e-19
-1.38276e-19
-4.02411e-20
-1.07819e-20
-2.60209e-21
-5.41089e-22
-8.48789e-23
-3.27398e-24
4.7291e-24
2.73458e-24
1.08398e-24
3.6672e-25
1.12818e-25
3.24415e-26
8.84627e-27
2.83782e-27
-1.71997e-06
-5.96086e-06
1.22755e-05