/*--------------------------------*- C++ -*----------------------------------*\
| =========                 |                                                 |
| \\      /  F ield         | OpenFOAM: The Open Source CFD Toolbox           |
|  \\    /   O peration     | Version:  v2006                                 |
|   \\  /    A nd           | Website:  www.openfoam.com                      |
|    \\/     M anipulation  |                                                 |
\*---------------------------------------------------------------------------*/
FoamFile
{
    version     2.0;
    format      ascii;
    class       volVectorField;
    location    "16.4";
    object      U;
}
// * * * * * * * * * * * * * * * * * * * * * * * * * * * * * * * * * * * * * //

dimensions      [0 1 -1 0 0 0 0];


internalField   nonuniform List<vector> 
52500
(
(9.75456e-05 -0.00191722 0)
(0.0017853 -0.00324669 0)
(0.00360492 -0.00324326 0)
(0.00513278 -0.00301666 0)
(0.00655746 -0.00287745 0)
(0.00795819 -0.00281964 0)
(0.00935278 -0.00281002 0)
(0.0107444 -0.00281708 0)
(0.0121331 -0.00282238 0)
(0.0135175 -0.00281999 0)
(0.0148954 -0.00281021 0)
(0.0162652 -0.00279558 0)
(0.0176262 -0.00277826 0)
(0.0189778 -0.00275912 0)
(0.0203196 -0.00273829 0)
(0.0216512 -0.00271556 0)
(0.0229723 -0.0026907 0)
(0.0242823 -0.0026635 0)
(0.0255805 -0.00263362 0)
(0.0268659 -0.00260074 0)
(0.0281374 -0.00256435 0)
(0.0293936 -0.00252393 0)
(0.030633 -0.00247889 0)
(0.0318538 -0.00242884 0)
(0.0330543 -0.00237387 0)
(0.0342329 -0.00231466 0)
(0.0353882 -0.0022522 0)
(0.0365192 -0.00218732 0)
(0.037625 -0.0021207 0)
(0.0387043 -0.00205271 0)
(0.0397557 -0.00198425 0)
(0.0407779 -0.00191496 0)
(0.0417691 -0.00184571 0)
(0.0427276 -0.0017769 0)
(0.0436518 -0.00170831 0)
(0.0445401 -0.00163927 0)
(0.0453905 -0.00156827 0)
(0.046201 -0.00149383 0)
(0.0469691 -0.00141477 0)
(0.0476925 -0.00133056 0)
(0.0483687 -0.00124173 0)
(0.0489956 -0.00114972 0)
(0.0495709 -0.00105639 0)
(0.0500922 -0.000963037 0)
(0.0505563 -0.000869423 0)
(0.0509587 -0.000773034 0)
(0.0512935 -0.00066904 0)
(0.0515536 -0.000551406 0)
(0.051731 -0.000414958 0)
(0.0518182 -0.000257695 0)
(0.0518098 -8.26929e-05 0)
(0.0517019 0.000100713 0)
(0.0514985 0.000278792 0)
(0.0512101 0.000437553 0)
(0.0508531 0.000566209 0)
(0.0504473 0.000659026 0)
(0.050012 0.000720309 0)
(0.0495635 0.000755205 0)
(0.0491141 0.00077177 0)
(0.0486718 0.000777539 0)
(0.0482416 0.000778083 0)
(0.0478265 0.000776878 0)
(0.0474277 0.000776042 0)
(0.0470458 0.000775772 0)
(0.0466817 0.000774466 0)
(0.0463364 0.000770781 0)
(0.0460116 0.000761758 0)
(0.0457099 0.000745514 0)
(0.0454341 0.000721329 0)
(0.0451873 0.000689648 0)
(0.0449719 0.000651625 0)
(0.0447897 0.000608915 0)
(0.0446422 0.00056315 0)
(0.04453 0.000515339 0)
(0.0444536 0.000466083 0)
(0.0444132 0.000415467 0)
(0.0444094 0.000363363 0)
(0.0444431 0.000308976 0)
(0.0445138 0.000252094 0)
(0.0446217 0.000192848 0)
(0.0447666 0.000131971 0)
(0.0449481 7.0304e-05 0)
(0.0451653 8.88787e-06 0)
(0.045417 -5.11474e-05 0)
(0.0457017 -0.000108726 0)
(0.0460173 -0.000162971 0)
(0.0463617 -0.000213288 0)
(0.0467326 -0.000259392 0)
(0.0471277 -0.000301245 0)
(0.0475447 -0.00033898 0)
(0.0479817 -0.000372823 0)
(0.0484365 -0.000403041 0)
(0.0489075 -0.000429874 0)
(0.0493931 -0.000453462 0)
(0.049892 -0.000473837 0)
(0.0504031 -0.000491005 0)
(0.0509254 -0.000505095 0)
(0.0514584 -0.00051643 0)
(0.0520017 -0.000525588 0)
(0.0525555 -0.000533105 0)
(0.0531195 -0.000538433 0)
(0.0536927 -0.000540632 0)
(0.0542743 -0.000540422 0)
(0.0548641 -0.000539166 0)
(0.0554614 -0.000536555 0)
(0.0560645 -0.000530747 0)
(0.0566711 -0.000520117 0)
(0.0572783 -0.00050443 0)
(0.0578837 -0.000484927 0)
(0.0584856 -0.000463764 0)
(0.0590834 -0.00044329 0)
(0.0596775 -0.000425375 0)
(0.060269 -0.000411055 0)
(0.0608593 -0.000400576 0)
(0.0614499 -0.000393641 0)
(0.0620422 -0.000389696 0)
(0.0626376 -0.000388149 0)
(0.0632372 -0.000388497 0)
(0.063842 -0.000390329 0)
(0.064453 -0.000393296 0)
(0.0650709 -0.000397123 0)
(0.0656964 -0.000401558 0)
(0.0663301 -0.000406325 0)
(0.0669725 -0.000411137 0)
(0.0676238 -0.000415729 0)
(0.0682844 -0.000419929 0)
(0.0689544 -0.000423627 0)
(0.0696338 -0.000426629 0)
(0.0703224 -0.000428696 0)
(0.0710202 -0.000429557 0)
(0.0717269 -0.000428923 0)
(0.072442 -0.000426537 0)
(0.0731652 -0.000422078 0)
(0.0738959 -0.000415151 0)
(0.0746337 -0.00040552 0)
(0.075378 -0.000392968 0)
(0.0761287 -0.000377513 0)
(0.0768855 -0.000359404 0)
(0.0776482 -0.000339293 0)
(0.078417 -0.000318101 0)
(0.0791927 -0.000297084 0)
(0.079976 -0.000277645 0)
(0.0807682 -0.000260975 0)
(0.0815704 -0.00024778 0)
(0.0823832 -0.000237971 0)
(0.0832065 -0.000230489 0)
(0.084039 -0.000223207 0)
(0.0848776 -0.000213169 0)
(0.0857178 -0.000197024 0)
(0.086553 -0.000171509 0)
(0.0873756 -0.000134056 0)
(0.0881767 -8.30376e-05 0)
(0.0889475 -1.76594e-05 0)
(0.08968 6.18913e-05 0)
(0.0903658 0.00015457 0)
(0.0909975 0.000259061 0)
(0.0915678 0.000374505 0)
(0.0920694 0.00050112 0)
(0.0924943 0.000640519 0)
(0.0928328 0.000795456 0)
(0.0930741 0.000968686 0)
(0.0932067 0.00116083 0)
(0.0932153 0.00136766 0)
(0.0930915 0.00158531 0)
(0.0928297 0.00180867 0)
(0.0924306 0.00202761 0)
(0.0919014 0.0022292 0)
(0.0912566 0.00240095 0)
(0.0905198 0.00253484 0)
(0.0897187 0.0026233 0)
(0.0888797 0.0026568 0)
(0.0880297 0.00263302 0)
(0.0871984 0.00255622 0)
(0.0864132 0.00243456 0)
(0.0856966 0.00227933 0)
(0.0850637 0.00210429 0)
(0.0845222 0.00192358 0)
(0.0840715 0.00175033 0)
(0.083704 0.00159563 0)
(0.0834063 0.00146724 0)
(0.0831614 0.00136862 0)
(0.0829517 0.00129876 0)
(0.0827604 0.00125278 0)
(0.0825743 0.00122345 0)
(0.082384 0.00120314 0)
(0.0821844 0.00118524 0)
(0.0819735 0.00116471 0)
(0.0817521 0.00113797 0)
(0.0815231 0.00110265 0)
(0.0812901 0.00105735 0)
(0.0810578 0.00100148 0)
(0.0808307 0.00093509 0)
(0.0806132 0.000858712 0)
(0.080409 0.00077324 0)
(0.0802213 0.000680033 0)
(0.0800524 0.000581037 0)
(0.0799036 0.000478926 0)
(0.0797745 0.000377041 0)
(0.0796632 0.000279628 0)
(0.0795658 0.000191466 0)
(0.0794769 0.000117253 0)
(0.0793896 6.01435e-05 0)
(0.0792955 2.34865e-05 0)
(0.0791853 9.05451e-06 0)
(0.0790492 1.71487e-05 0)
(0.078878 4.66216e-05 0)
(0.0786635 9.52161e-05 0)
(0.0783985 0.000159317 0)
(0.0780778 0.000234577 0)
(0.0776978 0.000315918 0)
(0.0772568 0.00039802 0)
(0.0767551 0.000475702 0)
(0.0761948 0.000544355 0)
(0.0755798 0.00060067 0)
(0.0749147 0.000642964 0)
(0.0742051 0.000671273 0)
(0.073456 0.000687351 0)
(0.0726719 0.000693945 0)
(0.0718564 0.000694591 0)
(0.0710119 0.000692768 0)
(0.0701397 0.000691358 0)
(0.0692403 0.000692425 0)
(0.0683135 0.00069712 0)
(0.067359 0.000705607 0)
(0.0663764 0.000717659 0)
(0.0653652 0.000732614 0)
(0.064325 0.000749376 0)
(0.0632559 0.000767335 0)
(0.062158 0.000785926 0)
(0.0610315 0.000804571 0)
(0.0598767 0.000823088 0)
(0.058694 0.000841308 0)
(0.0574837 0.0008591 0)
(0.0562464 0.000876535 0)
(0.0549822 0.000893519 0)
(0.0536918 0.000910099 0)
(0.0523757 0.000926261 0)
(0.0510345 0.000941832 0)
(0.0496688 0.000956812 0)
(0.0482795 0.000971173 0)
(0.046867 0.000984837 0)
(0.045432 0.000998009 0)
(0.0439753 0.00101094 0)
(0.0424977 0.00102377 0)
(0.0409998 0.00103668 0)
(0.039482 0.00104988 0)
(0.0379449 0.00106373 0)
(0.0363885 0.00107868 0)
(0.0348132 0.00109521 0)
(0.0332185 0.00111395 0)
(0.0316041 0.00113575 0)
(0.029969 0.00116165 0)
(0.0283115 0.00119298 0)
(0.0266296 0.00123158 0)
(0.0249202 0.00127965 0)
(0.0231789 0.00133997 0)
(0.0214002 0.0014159 0)
(0.019577 0.00151125 0)
(0.0177002 0.00162998 0)
(0.0157592 0.00177548 0)
(0.0137423 0.0019513 0)
(0.0116335 0.00216112 0)
(0.00941634 0.00239927 0)
(0.00708266 0.00264075 0)
(0.00463784 0.00285261 0)
(0.00209674 0.0030191 0)
(-0.000524503 0.00314999 0)
(-0.00321625 0.00326578 0)
(-0.00597614 0.0033819 0)
(-0.00881077 0.00350435 0)
(-0.0117277 0.00363618 0)
(-0.0147351 0.00377718 0)
(-0.0178453 0.00392752 0)
(-0.0210684 0.00408556 0)
(-0.0244107 0.00424715 0)
(-0.0278881 0.00440386 0)
(-0.0314942 0.00455191 0)
(-0.0352272 0.00467405 0)
(-0.0390969 0.00476431 0)
(-0.0430808 0.00481376 0)
(-0.0471599 0.00481142 0)
(-0.0513119 0.00475102 0)
(-0.0555003 0.0046304 0)
(-0.0596844 0.00445679 0)
(-0.0638208 0.00425182 0)
(-0.0678785 0.00404026 0)
(-0.0718336 0.00383256 0)
(-0.075653 0.00359318 0)
(-0.0792714 0.00323721 0)
(-0.0825779 0.00267879 0)
(-0.0854282 0.00190818 0)
(-0.0876877 0.00102573 0)
(-0.0892826 0.000207257 0)
(-0.0902256 -0.000384567 0)
(-0.0906203 -0.000662739 0)
(-0.0905939 -0.000640885 0)
(-0.0903035 -0.000433882 0)
(-0.0899013 -0.000151025 0)
(-0.0894536 8.80905e-05 0)
(-0.0890054 0.000206293 0)
(-0.0885582 0.000183467 0)
(-0.0880949 4.0162e-05 0)
(-0.0875905 -0.000182049 0)
(-0.0870219 -0.000435152 0)
(-0.086373 -0.000681965 0)
(-0.0856338 -0.000897479 0)
(-0.0848013 -0.00107413 0)
(-0.0838789 -0.00121254 0)
(-0.0828729 -0.00132389 0)
(-0.0817913 -0.00142053 0)
(-0.0806425 -0.00151039 0)
(-0.0794322 -0.00159883 0)
(-0.078165 -0.00168655 0)
(-0.0768433 -0.00177132 0)
(-0.075466 -0.00185069 0)
(-0.0740341 -0.00192379 0)
(-0.0725509 -0.00198981 0)
(-0.0710126 -0.00205032 0)
(-0.0694224 -0.00210754 0)
(-0.0677879 -0.00216311 0)
(-0.066111 -0.00221792 0)
(-0.0643928 -0.00227293 0)
(-0.0626374 -0.00232984 0)
(-0.0608499 -0.00238838 0)
(-0.059029 -0.0024485 0)
(-0.0571779 -0.00251185 0)
(-0.0553038 -0.00257733 0)
(-0.0533994 -0.00264372 0)
(-0.0514673 -0.00271586 0)
(-0.049515 -0.00279204 0)
(-0.0475385 -0.00287414 0)
(-0.0455376 -0.00296295 0)
(-0.0435108 -0.00306008 0)
(-0.0414561 -0.00316533 0)
(-0.0393689 -0.00327851 0)
(-0.0372448 -0.0033988 0)
(-0.0350785 -0.00352383 0)
(-0.0328631 -0.00365113 0)
(-0.0305924 -0.00377671 0)
(-0.0282622 -0.00389567 0)
(-0.0258636 -0.00400181 0)
(-0.0233946 -0.00409403 0)
(-0.0208594 -0.00417155 0)
(-0.0182558 -0.0042423 0)
(-0.015581 -0.00432567 0)
(-0.0128271 -0.00444917 0)
(-0.00995931 -0.00463247 0)
(-0.00705742 -0.00485409 0)
(-0.00392131 -0.00480255 0)
(-0.000943841 -0.00348661 0)
(-0.000726048 -0.00116053 0)
(-0.000934684 -0.00277327 0)
(-0.00173491 -0.00222111 0)
(-0.00262148 -0.00188367 0)
(-0.00358198 -0.00184874 0)
(-0.00446637 -0.00184578 0)
(-0.00534961 -0.00183225 0)
(-0.00623515 -0.00181451 0)
(-0.00711817 -0.00179751 0)
(-0.00799332 -0.0017816 0)
(-0.00885486 -0.0017664 0)
(-0.00969888 -0.0017521 0)
(-0.0105221 -0.0017389 0)
(-0.0113219 -0.0017259 0)
(-0.0120949 -0.00171326 0)
(-0.0128383 -0.00170104 0)
(-0.0135495 -0.00168953 0)
(-0.0142256 -0.00167833 0)
(-0.0148641 -0.00166704 0)
(-0.0154622 -0.00165524 0)
(-0.0160179 -0.00164278 0)
(-0.0165292 -0.00162967 0)
(-0.0169944 -0.00161561 0)
(-0.0174126 -0.00160081 0)
(-0.0177831 -0.00158543 0)
(-0.0181061 -0.00156944 0)
(-0.0183824 -0.00155278 0)
(-0.0186138 -0.00153491 0)
(-0.0188034 -0.00151491 0)
(-0.0189546 -0.00149177 0)
(-0.0190685 -0.0014646 0)
(-0.0191481 -0.0014325 0)
(-0.0191978 -0.00139485 0)
(-0.0192189 -0.0013514 0)
(-0.0192141 -0.00130222 0)
(-0.0191848 -0.00124776 0)
(-0.0191328 -0.00118892 0)
(-0.01906 -0.00112597 0)
(-0.0189672 -0.00105987 0)
(-0.018855 -0.000990886 0)
(-0.0187233 -0.000918796 0)
(-0.0185719 -0.000841782 0)
(-0.0184006 -0.000757443 0)
(-0.0182097 -0.000662842 0)
(-0.0180003 -0.00055597 0)
(-0.0177733 -0.000436202 0)
(-0.0175299 -0.000304235 0)
(-0.0172706 -0.00016288 0)
(-0.0169947 -1.65826e-05 0)
(-0.0167005 0.000129521 0)
(-0.0163859 0.000269424 0)
(-0.0160463 0.000396505 0)
(-0.0156807 0.000507089 0)
(-0.0152922 0.000596088 0)
(-0.0148868 0.000660526 0)
(-0.0144642 0.000699764 0)
(-0.0140281 0.000714948 0)
(-0.0135848 0.000709397 0)
(-0.0131314 0.000687172 0)
(-0.0126671 0.000652408 0)
(-0.0121904 0.000608918 0)
(-0.0116989 0.000558134 0)
(-0.0111914 0.000505106 0)
(-0.0106692 0.000449371 0)
(-0.0101313 0.000391487 0)
(-0.0095791 0.000331597 0)
(-0.00901617 0.000269769 0)
(-0.00844364 0.000206144 0)
(-0.00786345 0.000140859 0)
(-0.00727738 7.40816e-05 0)
(-0.00668645 5.98984e-06 0)
(-0.00609123 -6.31146e-05 0)
(-0.00549261 -0.000132821 0)
(-0.00489141 -0.000202584 0)
(-0.00428829 -0.000271832 0)
(-0.003684 -0.000340067 0)
(-0.00308008 -0.000406878 0)
(-0.00247888 -0.000472183 0)
(-0.00188179 -0.000535654 0)
(-0.00128976 -0.00059695 0)
(-0.00070388 -0.000655754 0)
(-0.000125398 -0.0007118 0)
(0.000445266 -0.000764896 0)
(0.00100812 -0.000814884 0)
(0.00156344 -0.000861611 0)
(0.00211169 -0.000904975 0)
(0.00265357 -0.000944977 0)
(0.00318985 -0.000981729 0)
(0.00372125 -0.0010154 0)
(0.00424849 -0.00104615 0)
(0.00477224 -0.00107421 0)
(0.0052931 -0.00109986 0)
(0.0058117 -0.00112358 0)
(0.00632872 -0.00114595 0)
(0.00684496 -0.00116768 0)
(0.00736135 -0.00118948 0)
(0.00787904 -0.00121213 0)
(0.00839923 -0.00123634 0)
(0.00892344 -0.00126266 0)
(0.00945206 -0.00129116 0)
(0.00998768 -0.00132097 0)
(0.0105329 -0.00135075 0)
(0.0110882 -0.00137977 0)
(0.0116534 -0.00140742 0)
(0.0122289 -0.00143262 0)
(0.0128149 -0.00145434 0)
(0.013412 -0.00147216 0)
(0.0140209 -0.0014863 0)
(0.0146421 -0.00149742 0)
(0.0152757 -0.00150644 0)
(0.015921 -0.00151436 0)
(0.0165772 -0.00152205 0)
(0.0172431 -0.00153019 0)
(0.0179177 -0.00153926 0)
(0.0186005 -0.00154959 0)
(0.019291 -0.00156138 0)
(0.019989 -0.00157475 0)
(0.0206948 -0.00158978 0)
(0.0214086 -0.00160646 0)
(0.0221308 -0.00162476 0)
(0.0228618 -0.00164462 0)
(0.0236023 -0.00166593 0)
(0.024353 -0.00168857 0)
(0.0251145 -0.00171242 0)
(0.0258874 -0.00173743 0)
(0.0266725 -0.0017634 0)
(0.0274705 -0.00179009 0)
(0.0282823 -0.0018174 0)
(0.0291086 -0.00184526 0)
(0.0299503 -0.00187351 0)
(0.0308082 -0.00190215 0)
(0.031683 -0.00193115 0)
(0.0325758 -0.00196069 0)
(0.0334872 -0.00199105 0)
(0.0344183 -0.00202246 0)
(0.0353698 -0.00205519 0)
(0.0363425 -0.0020897 0)
(0.0373371 -0.00212623 0)
(0.0383542 -0.00216501 0)
(0.039394 -0.00220631 0)
(0.0404558 -0.00225004 0)
(0.0415385 -0.00229554 0)
(0.0426404 -0.00234193 0)
(0.0437595 -0.0023878 0)
(0.0448934 -0.00243124 0)
(0.0460401 -0.00247002 0)
(0.0471978 -0.00250175 0)
(0.0483653 -0.00252405 0)
(0.0495427 -0.00253485 0)
(0.0507306 -0.00253252 0)
(0.0519307 -0.00251611 0)
(0.0531455 -0.00248517 0)
(0.0543771 -0.00244015 0)
(0.0556267 -0.00238209 0)
(0.0568953 -0.00231177 0)
(0.0581838 -0.0022294 0)
(0.0594932 -0.00213442 0)
(0.0608249 -0.0020253 0)
(0.0621805 -0.00189983 0)
(0.0635628 -0.00175558 0)
(0.0649751 -0.00159096 0)
(0.0664203 -0.00140647 0)
(0.0679043 -0.00120627 0)
(0.0694248 -0.000995324 0)
(0.0709786 -0.000779302 0)
(0.0725591 -0.000566336 0)
(0.0741568 -0.000365957 0)
(0.0757595 -0.000187615 0)
(0.0773508 -3.91605e-05 0)
(0.0789143 7.19492e-05 0)
(0.0804393 0.000139929 0)
(0.0819205 0.000162894 0)
(0.0833511 0.000141691 0)
(0.0847245 8.07042e-05 0)
(0.0860383 -1.18567e-05 0)
(0.0872923 -0.000125137 0)
(0.0884882 -0.000246651 0)
(0.0896306 -0.000363907 0)
(0.0907255 -0.000466164 0)
(0.0917789 -0.000545425 0)
(0.0927967 -0.000597032 0)
(0.0937843 -0.000620011 0)
(0.0947459 -0.000616794 0)
(0.0956839 -0.00059223 0)
(0.0965988 -0.000552256 0)
(0.0974894 -0.00050267 0)
(0.0983534 -0.000448407 0)
(0.0991877 -0.000393298 0)
(0.0999887 -0.000340042 0)
(0.100752 -0.000290263 0)
(0.101475 -0.000244653 0)
(0.102151 -0.000203182 0)
(0.102778 -0.000165259 0)
(0.103351 -0.000129899 0)
(0.103865 -9.58574e-05 0)
(0.104317 -6.1705e-05 0)
(0.104704 -2.59028e-05 0)
(0.105022 1.30381e-05 0)
(0.10527 5.65744e-05 0)
(0.105445 0.000105941 0)
(0.105548 0.000162061 0)
(0.105579 0.000227868 0)
(0.105545 0.000302819 0)
(0.10545 0.000386262 0)
(0.105299 0.000477499 0)
(0.1051 0.000575597 0)
(0.104859 0.000679343 0)
(0.104582 0.00078769 0)
(0.104275 0.000899637 0)
(0.10394 0.0010142 0)
(0.103579 0.0011304 0)
(0.103192 0.0012471 0)
(0.102774 0.00136333 0)
(0.102323 0.0014781 0)
(0.101833 0.00159047 0)
(0.101299 0.00169979 0)
(0.100716 0.00180543 0)
(0.100079 0.00190747 0)
(0.0993873 0.00200582 0)
(0.0986391 0.00210048 0)
(0.097835 0.00219177 0)
(0.0969768 0.00228001 0)
(0.0960666 0.00236548 0)
(0.0951075 0.00244864 0)
(0.0941025 0.00252977 0)
(0.0930541 0.002609 0)
(0.0919644 0.00268669 0)
(0.0908354 0.00276306 0)
(0.0896683 0.00283833 0)
(0.088464 0.00291264 0)
(0.0872233 0.00298602 0)
(0.0859465 0.00305859 0)
(0.0846345 0.00313026 0)
(0.0832875 0.00320098 0)
(0.0819062 0.00327063 0)
(0.080491 0.00333903 0)
(0.0790424 0.00340605 0)
(0.0775607 0.00347156 0)
(0.0760465 0.00353556 0)
(0.0745005 0.00359798 0)
(0.0729236 0.0036587 0)
(0.0713166 0.00371748 0)
(0.0696801 0.00377428 0)
(0.0680148 0.00382914 0)
(0.0663216 0.00388211 0)
(0.0646019 0.00393308 0)
(0.062857 0.00398211 0)
(0.0610883 0.00402931 0)
(0.0592974 0.00407492 0)
(0.0574862 0.00411927 0)
(0.0556571 0.00416268 0)
(0.0538124 0.00420562 0)
(0.0519554 0.00424876 0)
(0.0500896 0.00429291 0)
(0.0482191 0.00433901 0)
(0.0463491 0.00438833 0)
(0.0444861 0.00444237 0)
(0.0426376 0.00450284 0)
(0.0408128 0.00457164 0)
(0.0390223 0.00465069 0)
(0.0372777 0.0047421 0)
(0.0355934 0.00484869 0)
(0.0339847 0.00497118 0)
(0.0324605 0.00510321 0)
(0.0310159 0.00523303 0)
(0.0296349 0.00535243 0)
(0.0282991 0.00546237 0)
(0.0269952 0.00557098 0)
(0.0257176 0.0056879 0)
(0.0244655 0.00581942 0)
(0.0232393 0.0059707 0)
(0.0220378 0.00614348 0)
(0.0208582 0.00634032 0)
(0.0196958 0.00656305 0)
(0.018544 0.00681223 0)
(0.017392 0.00708428 0)
(0.0162269 0.00738067 0)
(0.0150327 0.00768701 0)
(0.0137885 0.00799791 0)
(0.0124744 0.00830295 0)
(0.0110711 0.00858542 0)
(0.00956032 0.00882992 0)
(0.00792847 0.00901903 0)
(0.00616953 0.00913453 0)
(0.00428856 0.00916185 0)
(0.00230401 0.00908572 0)
(0.000261561 0.00888882 0)
(-0.00177876 0.00854557 0)
(-0.00375578 0.00802031 0)
(-0.00562054 0.00727508 0)
(-0.00735012 0.00629258 0)
(-0.00893568 0.00509976 0)
(-0.0103575 0.00377069 0)
(-0.0115445 0.00242168 0)
(-0.0123845 0.00116173 0)
(-0.0128262 9.64009e-05 0)
(-0.0128536 -0.000716685 0)
(-0.0124745 -0.0012586 0)
(-0.0118111 -0.00156072 0)
(-0.0109949 -0.00167959 0)
(-0.0101278 -0.00168188 0)
(-0.00929182 -0.00163418 0)
(-0.00853299 -0.00158452 0)
(-0.00787375 -0.00156823 0)
(-0.00731583 -0.00160081 0)
(-0.00684388 -0.00168157 0)
(-0.00642946 -0.00180019 0)
(-0.00604113 -0.00193987 0)
(-0.00565507 -0.00208338 0)
(-0.00524695 -0.0022176 0)
(-0.00480647 -0.00233526 0)
(-0.00433493 -0.0024381 0)
(-0.00383734 -0.00253043 0)
(-0.00332213 -0.00262101 0)
(-0.00279696 -0.00271642 0)
(-0.00226629 -0.00281795 0)
(-0.00173367 -0.00292445 0)
(-0.00119425 -0.00302881 0)
(-0.000645241 -0.00312847 0)
(-8.73907e-05 -0.00322078 0)
(0.00048197 -0.00330115 0)
(0.00106192 -0.00336999 0)
(0.00165062 -0.00342831 0)
(0.00224375 -0.0034772 0)
(0.00283578 -0.00351577 0)
(0.00342063 -0.00354593 0)
(0.00399103 -0.00356844 0)
(0.00453961 -0.00358055 0)
(0.00505942 -0.00358763 0)
(0.00554173 -0.00358855 0)
(0.00597749 -0.00358393 0)
(0.00635662 -0.00357477 0)
(0.00666897 -0.00356377 0)
(0.00690431 -0.00355446 0)
(0.00705217 -0.00355118 0)
(0.00710427 -0.00355795 0)
(0.00705412 -0.00357975 0)
(0.00689893 -0.00362084 0)
(0.00664024 -0.00368472 0)
(0.00628338 -0.00377291 0)
(0.00583871 -0.00388343 0)
(0.00532074 -0.004016 0)
(0.00474778 -0.00416581 0)
(0.00413838 -0.00432839 0)
(0.0035067 -0.0044973 0)
(0.00286131 -0.00466312 0)
(0.00219748 -0.0047962 0)
(0.00145586 -0.00491899 0)
(0.000638708 -0.00514653 0)
(0.000239728 -0.00441447 0)
(-0.00100504 0.000904246 0)
(-0.00122486 -0.00142576 0)
(-0.00201936 -0.000330407 0)
(-0.00299421 0.000204053 0)
(-0.0041554 0.000251048 0)
(-0.00523274 0.000232852 0)
(-0.00628729 0.000229128 0)
(-0.00731768 0.000219466 0)
(-0.00832036 0.000196908 0)
(-0.00929006 0.00016372 0)
(-0.010223 0.000122212 0)
(-0.0111158 7.33242e-05 0)
(-0.011964 1.74624e-05 0)
(-0.0127636 -4.60809e-05 0)
(-0.0135121 -0.00011702 0)
(-0.0142065 -0.000195539 0)
(-0.0148443 -0.000280972 0)
(-0.0154233 -0.000372963 0)
(-0.0159423 -0.000470698 0)
(-0.0164003 -0.000572798 0)
(-0.016797 -0.000678129 0)
(-0.017132 -0.000785021 0)
(-0.0174066 -0.000891754 0)
(-0.0176225 -0.000996468 0)
(-0.0177806 -0.0010973 0)
(-0.0178831 -0.00119237 0)
(-0.0179334 -0.00128014 0)
(-0.017935 -0.00135846 0)
(-0.0178919 -0.00142662 0)
(-0.0178077 -0.00148429 0)
(-0.0176855 -0.00153152 0)
(-0.0175279 -0.00157042 0)
(-0.0173374 -0.00160148 0)
(-0.0171155 -0.00162551 0)
(-0.0168634 -0.0016427 0)
(-0.0165825 -0.00165275 0)
(-0.0162731 -0.00165561 0)
(-0.0159367 -0.00165113 0)
(-0.0155752 -0.00163988 0)
(-0.01519 -0.00162322 0)
(-0.0147824 -0.00160304 0)
(-0.0143535 -0.00158118 0)
(-0.0139039 -0.00155885 0)
(-0.0134322 -0.00153489 0)
(-0.0129368 -0.00150707 0)
(-0.0124142 -0.00147163 0)
(-0.0118609 -0.00142448 0)
(-0.011274 -0.0013626 0)
(-0.0106504 -0.00128505 0)
(-0.00998876 -0.00119368 0)
(-0.00929141 -0.00109323 0)
(-0.0085575 -0.000990696 0)
(-0.00779031 -0.000894078 0)
(-0.00699654 -0.000811385 0)
(-0.00617978 -0.00074864 0)
(-0.0053461 -0.000708021 0)
(-0.00450232 -0.000693026 0)
(-0.00365508 -0.000699847 0)
(-0.00280952 -0.000724805 0)
(-0.00196869 -0.000763449 0)
(-0.00113722 -0.000811236 0)
(-0.000311901 -0.000863963 0)
(0.000506312 -0.000918002 0)
(0.00131265 -0.000970708 0)
(0.00211039 -0.00102038 0)
(0.00289975 -0.00106826 0)
(0.0036808 -0.00111499 0)
(0.0044538 -0.00116209 0)
(0.00521898 -0.00121075 0)
(0.00597647 -0.00126156 0)
(0.0067264 -0.00131435 0)
(0.00746887 -0.00136857 0)
(0.00820385 -0.00142341 0)
(0.00893128 -0.00147771 0)
(0.00965118 -0.00153053 0)
(0.0103636 -0.00158113 0)
(0.0110684 -0.00162926 0)
(0.0117657 -0.00167464 0)
(0.0124555 -0.00171739 0)
(0.013138 -0.00175776 0)
(0.0138133 -0.00179629 0)
(0.0144816 -0.00183325 0)
(0.0151431 -0.00186877 0)
(0.0157984 -0.00190294 0)
(0.0164478 -0.00193572 0)
(0.0170918 -0.00196696 0)
(0.0177308 -0.0019965 0)
(0.0183653 -0.0020242 0)
(0.0189957 -0.00205001 0)
(0.0196224 -0.00207394 0)
(0.0202456 -0.00209608 0)
(0.0208657 -0.0021166 0)
(0.021483 -0.00213577 0)
(0.0220973 -0.00215391 0)
(0.0227088 -0.00217141 0)
(0.0233172 -0.00218867 0)
(0.0239218 -0.00220618 0)
(0.024522 -0.00222455 0)
(0.0251168 -0.00224443 0)
(0.0257051 -0.00226659 0)
(0.026286 -0.00229199 0)
(0.0268588 -0.00232068 0)
(0.0274233 -0.00235096 0)
(0.0279798 -0.0023809 0)
(0.028529 -0.00240949 0)
(0.0290718 -0.00243633 0)
(0.0296098 -0.00246103 0)
(0.0301444 -0.00248323 0)
(0.0306773 -0.00250291 0)
(0.0312101 -0.00252047 0)
(0.0317441 -0.00253659 0)
(0.0322806 -0.00255222 0)
(0.0328206 -0.00256831 0)
(0.033365 -0.00258565 0)
(0.0339146 -0.00260482 0)
(0.0344703 -0.00262626 0)
(0.0350327 -0.00265024 0)
(0.0356026 -0.00267683 0)
(0.0361807 -0.00270614 0)
(0.0367676 -0.00273822 0)
(0.0373641 -0.00277299 0)
(0.0379707 -0.00281042 0)
(0.0385881 -0.00285035 0)
(0.0392166 -0.00289269 0)
(0.0398571 -0.00293719 0)
(0.0405101 -0.00298383 0)
(0.0411762 -0.00303255 0)
(0.0418555 -0.00308318 0)
(0.0425487 -0.00313552 0)
(0.0432562 -0.00318947 0)
(0.0439785 -0.0032448 0)
(0.0447158 -0.0033015 0)
(0.0454681 -0.00335933 0)
(0.0462359 -0.00341804 0)
(0.0470194 -0.00347728 0)
(0.0478181 -0.00353671 0)
(0.0486318 -0.00359589 0)
(0.0494595 -0.00365431 0)
(0.0502997 -0.00371138 0)
(0.0511506 -0.00376641 0)
(0.0520107 -0.00381874 0)
(0.0528781 -0.00386796 0)
(0.0537504 -0.00391349 0)
(0.0546257 -0.0039549 0)
(0.0555022 -0.00399194 0)
(0.0563786 -0.00402421 0)
(0.0572541 -0.00405103 0)
(0.0581287 -0.00407189 0)
(0.059003 -0.004086 0)
(0.0598778 -0.00409265 0)
(0.0607545 -0.00409096 0)
(0.0616341 -0.00408036 0)
(0.0625173 -0.00406086 0)
(0.0634053 -0.00403256 0)
(0.0642993 -0.00399561 0)
(0.0652002 -0.00395035 0)
(0.0661083 -0.00389742 0)
(0.0670241 -0.00383749 0)
(0.0679482 -0.00377116 0)
(0.068882 -0.00369864 0)
(0.0698275 -0.00361919 0)
(0.0707873 -0.00353076 0)
(0.0717648 -0.00342963 0)
(0.0727638 -0.00331395 0)
(0.0737869 -0.00318412 0)
(0.0748351 -0.00304163 0)
(0.0759075 -0.00288982 0)
(0.0770007 -0.00273426 0)
(0.0781101 -0.00258296 0)
(0.0792316 -0.0024425 0)
(0.0803581 -0.00231607 0)
(0.0814768 -0.00220832 0)
(0.0825745 -0.00212368 0)
(0.0836406 -0.00206405 0)
(0.0846657 -0.00202823 0)
(0.0856431 -0.00201225 0)
(0.0865694 -0.00200956 0)
(0.0874427 -0.00201224 0)
(0.0882636 -0.00201279 0)
(0.0890352 -0.0020052 0)
(0.0897621 -0.00198574 0)
(0.0904495 -0.00195306 0)
(0.0911022 -0.00190763 0)
(0.0917245 -0.00185099 0)
(0.0923196 -0.00178515 0)
(0.0928898 -0.00171225 0)
(0.0934355 -0.00163422 0)
(0.0939564 -0.00155239 0)
(0.0944508 -0.00146751 0)
(0.0949167 -0.00137978 0)
(0.0953518 -0.00128912 0)
(0.0957537 -0.00119523 0)
(0.0961201 -0.00109767 0)
(0.0964492 -0.000995782 0)
(0.096739 -0.000888743 0)
(0.0969882 -0.000775561 0)
(0.0971955 -0.000655144 0)
(0.0973599 -0.00052634 0)
(0.0974808 -0.000388255 0)
(0.0975578 -0.000240378 0)
(0.097595 -8.2742e-05 0)
(0.0975924 8.26528e-05 0)
(0.0975466 0.000254038 0)
(0.0974596 0.000429392 0)
(0.0973327 0.000606352 0)
(0.0971666 0.000783019 0)
(0.0969625 0.000957723 0)
(0.0967216 0.00112993 0)
(0.0964443 0.00129997 0)
(0.096131 0.00146879 0)
(0.0957815 0.00163738 0)
(0.0953951 0.00180711 0)
(0.094971 0.00197924 0)
(0.0945079 0.00215447 0)
(0.0940043 0.00233301 0)
(0.0934586 0.00251447 0)
(0.0928699 0.00269783 0)
(0.092237 0.00288195 0)
(0.0915584 0.00306556 0)
(0.0908339 0.00324724 0)
(0.0900637 0.00342548 0)
(0.0892476 0.00359919 0)
(0.0883867 0.00376775 0)
(0.0874814 0.00393099 0)
(0.0865324 0.00408892 0)
(0.0855409 0.0042418 0)
(0.0845079 0.00439043 0)
(0.0834341 0.00453516 0)
(0.0823203 0.00467661 0)
(0.0811675 0.00481548 0)
(0.0799764 0.0049521 0)
(0.0787479 0.00508661 0)
(0.0774827 0.00521912 0)
(0.0761815 0.00534965 0)
(0.074845 0.00547823 0)
(0.073474 0.00560475 0)
(0.0720694 0.00572895 0)
(0.070632 0.00585068 0)
(0.0691626 0.00596996 0)
(0.0676619 0.00608665 0)
(0.0661304 0.00620059 0)
(0.0645687 0.00631174 0)
(0.0629781 0.00641989 0)
(0.0613596 0.00652473 0)
(0.0597136 0.00662609 0)
(0.058041 0.00672405 0)
(0.0563429 0.00681834 0)
(0.0546203 0.00690873 0)
(0.0528744 0.00699525 0)
(0.051106 0.00707771 0)
(0.0493162 0.00715598 0)
(0.0475065 0.00723008 0)
(0.0456781 0.00729984 0)
(0.0438326 0.007365 0)
(0.0419717 0.00742536 0)
(0.0400977 0.00748049 0)
(0.038213 0.00752979 0)
(0.0363205 0.00757244 0)
(0.0344238 0.00760709 0)
(0.0325276 0.00763222 0)
(0.0306371 0.00764587 0)
(0.028759 0.00764529 0)
(0.0269013 0.00762948 0)
(0.0250729 0.00760436 0)
(0.0232804 0.00758239 0)
(0.0215252 0.00757444 0)
(0.0198066 0.00758322 0)
(0.0181263 0.00760491 0)
(0.0164894 0.00763496 0)
(0.0149024 0.00767183 0)
(0.0133726 0.00771752 0)
(0.0119084 0.00777592 0)
(0.0105186 0.00785192 0)
(0.00921205 0.00795057 0)
(0.00799751 0.00807666 0)
(0.00688327 0.00823403 0)
(0.00587646 0.00842556 0)
(0.00498256 0.00864914 0)
(0.00420324 0.0089045 0)
(0.00353521 0.00918449 0)
(0.00297243 0.00947468 0)
(0.00250284 0.00976566 0)
(0.00210913 0.0100343 0)
(0.00177521 0.010252 0)
(0.00148339 0.0103979 0)
(0.001217 0.0104379 0)
(0.000964084 0.0103367 0)
(0.000710846 0.0100572 0)
(0.000435412 0.00956095 0)
(0.000107426 0.00881405 0)
(-0.000300395 0.00779524 0)
(-0.00080648 0.00651053 0)
(-0.00139735 0.00500295 0)
(-0.0020472 0.00336515 0)
(-0.00272936 0.00172408 0)
(-0.00339848 0.000228109 0)
(-0.00403481 -0.000976775 0)
(-0.00462605 -0.00182251 0)
(-0.00514943 -0.00231645 0)
(-0.00558344 -0.00252734 0)
(-0.00591629 -0.00255936 0)
(-0.00613778 -0.00250642 0)
(-0.006253 -0.00242602 0)
(-0.00628519 -0.00235215 0)
(-0.00625427 -0.0023026 0)
(-0.00618142 -0.00229427 0)
(-0.00607912 -0.00233942 0)
(-0.00594956 -0.00244508 0)
(-0.00578776 -0.00260371 0)
(-0.00558273 -0.00279742 0)
(-0.00532676 -0.00300012 0)
(-0.00501362 -0.0031908 0)
(-0.00464611 -0.00335548 0)
(-0.00423647 -0.00349038 0)
(-0.00379065 -0.00360256 0)
(-0.00331781 -0.00369599 0)
(-0.00282509 -0.0037829 0)
(-0.00231318 -0.0038685 0)
(-0.00178345 -0.0039591 0)
(-0.00122899 -0.00405534 0)
(-0.000645858 -0.0041497 0)
(-3.50704e-05 -0.00423937 0)
(0.000605718 -0.00432007 0)
(0.00127481 -0.00438784 0)
(0.0019707 -0.00443674 0)
(0.00268929 -0.00446741 0)
(0.0034262 -0.004476 0)
(0.00417437 -0.00446323 0)
(0.00492647 -0.00442766 0)
(0.0056746 -0.00436873 0)
(0.00640719 -0.0042848 0)
(0.0071123 -0.00417487 0)
(0.00777532 -0.00403783 0)
(0.00838003 -0.00387562 0)
(0.00891104 -0.00369044 0)
(0.00934897 -0.00348891 0)
(0.00967244 -0.00327601 0)
(0.00986221 -0.00306122 0)
(0.00990155 -0.00285493 0)
(0.0097775 -0.00266768 0)
(0.0094816 -0.00250936 0)
(0.00901035 -0.00238967 0)
(0.00836492 -0.00231333 0)
(0.00755597 -0.00228339 0)
(0.00659899 -0.00229888 0)
(0.00551441 -0.00235398 0)
(0.00431611 -0.00239941 0)
(0.00302736 -0.00241922 0)
(0.00171274 -0.00274744 0)
(0.000771507 -0.00216136 0)
(-0.000958637 0.00246763 0)
(-0.000642083 -0.00115049 0)
(-0.000720425 0.000576291 0)
(-0.00112412 0.00159659 0)
(-0.00182004 0.00170517 0)
(-0.00243591 0.00159564 0)
(-0.0029982 0.0015143 0)
(-0.00352473 0.00144862 0)
(-0.00402141 0.0013706 0)
(-0.00448877 0.00127461 0)
(-0.00492217 0.00116282 0)
(-0.00531799 0.00103674 0)
(-0.00567581 0.000898846 0)
(-0.00599388 0.00074879 0)
(-0.00626956 0.000588314 0)
(-0.00650199 0.000418665 0)
(-0.00668965 0.000241325 0)
(-0.00683262 5.71405e-05 0)
(-0.0069312 -0.000131727 0)
(-0.00698642 -0.00032342 0)
(-0.00700022 -0.00051591 0)
(-0.00697448 -0.000706982 0)
(-0.00691087 -0.000894617 0)
(-0.00681163 -0.00107668 0)
(-0.00667941 -0.00125094 0)
(-0.00651764 -0.0014152 0)
(-0.00632769 -0.00156741 0)
(-0.00611196 -0.00170587 0)
(-0.00587386 -0.00182954 0)
(-0.00561468 -0.00193818 0)
(-0.00533605 -0.00203232 0)
(-0.0050395 -0.00211327 0)
(-0.00472649 -0.00218246 0)
(-0.00439821 -0.00224125 0)
(-0.00405559 -0.00229078 0)
(-0.00369941 -0.00233174 0)
(-0.00333009 -0.0023642 0)
(-0.00294796 -0.00238867 0)
(-0.00255341 -0.00240474 0)
(-0.00214695 -0.00241255 0)
(-0.00172945 -0.0024122 0)
(-0.00130264 -0.00240461 0)
(-0.000867281 -0.00239061 0)
(-0.000424706 -0.00237154 0)
(2.32889e-05 -0.00234873 0)
(0.000477117 -0.00232322 0)
(0.000937978 -0.0022961 0)
(0.00140796 -0.00226782 0)
(0.00188994 -0.00223856 0)
(0.00238685 -0.002209 0)
(0.00290092 -0.00217963 0)
(0.00343359 -0.00215042 0)
(0.00398444 -0.00212391 0)
(0.0045512 -0.00210037 0)
(0.00513055 -0.002081 0)
(0.0057184 -0.00206694 0)
(0.00631074 -0.00205902 0)
(0.00690421 -0.00205757 0)
(0.00749626 -0.00206231 0)