/*--------------------------------*- C++ -*----------------------------------*\
| =========                 |                                                 |
| \\      /  F ield         | OpenFOAM: The Open Source CFD Toolbox           |
|  \\    /   O peration     | Version:  v2006                                 |
|   \\  /    A nd           | Website:  www.openfoam.com                      |
|    \\/     M anipulation  |                                                 |
\*---------------------------------------------------------------------------*/
FoamFile
{
    version     2.0;
    format      ascii;
    class       surfaceScalarField;
    location    "0.5";
    object      alphaPhi0.water;
}
// * * * * * * * * * * * * * * * * * * * * * * * * * * * * * * * * * * * * * //

dimensions      [0 3 -1 0 0 0 0];
oriented        oriented;


internalField   nonuniform List<scalar> 
299200
(
6.85122e-05
-6.85122e-05
0.000325902
-0.00025739
0.000526964
-0.000201062
0.000704897
-0.000177933
0.00088671
-0.000181813
0.00106959
-0.00018288
0.00125756
-0.000187968
0.00144826
-0.000190698
0.00164361
-0.000195357
0.00184446
-0.000200851
0.00205007
-0.00020561
0.00226049
-0.000210416
0.00247615
-0.000215662
0.00269718
-0.000221031
0.00292353
-0.000226347
0.0031551
-0.000231572
0.00339175
-0.000236649
0.00363325
-0.000241504
0.00387932
-0.000246069
0.00412961
-0.000250285
0.00438371
-0.0002541
0.00464117
-0.000257466
0.00490151
-0.00026034
0.0051642
-0.000262688
0.00542869
-0.000264483
0.00569439
-0.000265703
0.00596072
-0.000266335
0.0062271
-0.000266372
0.00649291
-0.000265814
0.00675758
-0.000264666
0.00702052
-0.00026294
0.00728117
-0.000260653
0.007539
-0.000257828
0.00779349
-0.000254492
0.00804416
-0.000250676
0.00829058
-0.000246416
0.00853233
-0.00024175
0.00876905
-0.00023672
0.00900042
-0.00023137
0.00922616
-0.000225744
0.00944606
-0.000219892
0.00965992
-0.000213861
0.00986762
-0.000207701
0.0100691
-0.000201463
0.0102643
-0.000195198
0.0104532
-0.000188954
0.010636
-0.000182784
0.0108128
-0.000176736
0.0109836
-0.00017086
0.0111488
-0.000165204
0.0113086
-0.000159813
0.0114634
-0.000154736
0.0116134
-0.000150014
0.0117591
-0.000145691
0.0119009
-0.000141809
0.0120393
-0.000138405
0.0121748
-0.000135517
0.012308
-0.000133181
0.0124394
-0.000131429
0.0125697
-0.000130292
0.0126995
-0.000129799
0.0128295
-0.000129975
0.0129603
-0.000130846
0.0130928
-0.000132432
0.0132275
-0.000134752
0.0133653
-0.000137822
0.013507
-0.000141658
0.0136533
-0.000146269
0.0138049
-0.000151666
0.0139628
-0.000157853
0.0141276
-0.000164835
0.0143002
-0.000172613
0.0144814
-0.000181186
0.014672
-0.000190549
0.0148727
-0.000200696
0.0150843
-0.000211619
0.0153076
-0.000223305
0.0155433
-0.000235741
0.0157922
-0.000248912
0.016055
-0.000262799
0.0163324
-0.000277382
0.0166251
-0.000292638
0.0169336
-0.000308544
0.0172587
-0.000325071
0.0176009
-0.000342193
0.0179607
-0.00035988
0.0183388
-0.000378099
0.0187357
-0.000396819
0.0191517
-0.000416004
0.0195873
-0.000435618
0.0200429
-0.000455625
0.0205189
-0.000475986
0.0210156
-0.000496663
0.0215332
-0.000517616
0.022072
-0.000538803
0.0226322
-0.000560185
0.0232139
-0.000581718
0.0238172
-0.000603361
0.0244423
-0.000625071
0.0250891
-0.000646807
0.0257576
-0.000668524
0.0264478
-0.000690182
0.0271596
-0.000711736
0.0278927
-0.000733146
0.0286471
-0.00075437
0.0294224
-0.000775366
0.0302185
-0.000796093
0.031035
-0.000816512
0.0318716
-0.000836582
0.0327279
-0.000856266
0.0336034
-0.000875525
0.0344977
-0.000894323
0.0354104
-0.000912624
0.0363408
-0.000930393
0.0372884
-0.000947596
0.0382526
-0.000964201
0.0392327
-0.000980175
0.0402282
-0.00099549
0.0412383
-0.00101011
0.0422624
-0.00102402
0.0432995
-0.00103719
0.0443491
-0.00104958
0.0454103
-0.00106119
0.0464823
-0.00107198
0.0475642
-0.00108193
0.0486553
-0.00109103
0.0497545
-0.00109925
0.0508611
-0.00110659
0.0519741
-0.00111301
0.0530926
-0.00111852
0.0542157
-0.0011231
0.0553425
-0.00112673
0.0564719
-0.0011294
0.057603
-0.00113112
0.0587348
-0.00113186
0.0598665
-0.00113163
0.0609969
-0.00113043
0.0621251
-0.00112824
0.0632502
-0.00112507
0.0643711
-0.00112092
0.0654869
-0.00111578
0.0665966
-0.00110967
0.0676992
-0.00110259
0.0687937
-0.00109454
0.0698792
-0.00108553
0.0709548
-0.00107557
0.0720195
-0.00106467
0.0730723
-0.00105285
0.0741124
-0.00104011
0.0751389
-0.00102647
0.0761509
-0.00101195
0.0771474
-0.000996559
0.0781277
-0.000980323
0.079091
-0.000963262
0.0800364
-0.000945395
0.0809631
-0.000926748
0.0818705
-0.000907344
0.0827577
-0.000887209
0.0836241
-0.00086637
0.0844689
-0.000844857
0.0852916
-0.000822698
0.0860915
-0.000799924
0.0868681
-0.000776568
0.0876208
-0.000752662
0.088349
-0.000728241
0.0890524
-0.00070334
0.0897304
-0.000677995
0.0903826
-0.000652244
0.0910087
-0.000626122
0.0916084
-0.00059967
0.0921813
-0.000572926
0.0927272
-0.00054593
0.093246
-0.000518721
0.0937373
-0.00049134
0.0942011
-0.000463827
0.0946374
-0.000436223
0.0950459
-0.000408568
0.0954268
-0.000380901
0.0957801
-0.000353263
0.0961058
-0.000325694
0.096404
-0.000298221
0.0966748
-0.000270845
0.0969184
-0.000243582
0.0971349
-0.000216466
0.0973241
-0.000189202
0.0974842
-0.000160121
0.0976093
-0.000125118
0.0976885
-7.92072e-05
0.0977137
-2.51924e-05
0.0976859
2.78053e-05
0.0976231
6.27928e-05
0.0975371
8.59892e-05
0.0974326
0.000104529
0.0973099
0.000122748
0.097169
0.000140882
0.0970103
0.000158645
0.0968345
0.000175814
0.0966423
0.000192239
0.0964344
0.00020789
0.0962116
0.000222781
0.0959747
0.000236925
0.0957244
0.000250332
0.0954614
0.000263009
0.0951864
0.000274965
0.0949002
0.000286208
0.0946034
0.000296749
0.0942968
0.000306599
0.0939811
0.000315772
0.0936568
0.000324279
0.0933246
0.000332136
0.0929853
0.000339356
0.0926393
0.000345955
0.0922874
0.000351949
0.09193
0.000357353
0.0915679
0.000362184
0.0912014
0.00036646
0.0908312
0.000370197
0.0904578
0.000373414
0.0900817
0.000376129
0.0897033
0.000378359
0.0893232
0.000380122
0.0889417
0.000381435
0.0885594
0.000382316
0.0881766
0.000382783
0.0877938
0.000382855
0.0874112
0.000382548
0.0870294
0.000381881
0.0866485
0.00038087
0.086269
0.000379533
0.0858911
0.000377887
0.0855151
0.000375948
0.0851414
0.000373735
0.0847701
0.000371262
0.0844016
0.000368545
0.084036
0.000365601
0.0836735
0.000362445
0.0833144
0.000359092
0.0829589
0.000355555
0.082607
0.000351849
0.082259
0.000347988
0.0819151
0.000343985
0.0815752
0.000339854
0.0812396
0.000335608
0.0809083
0.00033126
0.0805815
0.000326822
0.0802592
0.000322306
0.0799415
0.000317724
0.0796284
0.000313087
0.07932
0.000308406
0.0790163
0.000303693
0.0787173
0.00029896
0.0784231
0.000294216
0.0781337
0.000289472
0.0778489
0.000284733
0.0775689
0.000280003
0.0772936
0.000275278
0.0770231
0.000270547
0.0767573
0.000265793
0.0764963
0.000261007
0.0762401
0.000256189
0.0759887
0.00025136
0.0757422
0.000246556
0.0755004
0.000241809
0.0752632
0.000237144
0.0750307
0.000232566
0.0748026
0.00022807
0.074579
0.000223647
0.0743597
0.000219291
0.0741447
0.000215
0.0739339
0.000210776
0.0737273
0.000206622
0.0735247
0.00020254
0.0733262
0.000198532
0.0731316
0.000194599
0.0729408
0.000190742
0.0727539
0.000186963
0.0725706
0.000183262
0.072391
0.000179639
0.0722149
0.000176095
0.0720423
0.00017263
0.071873
0.000169245
0.0717071
0.000165939
0.0715444
0.000162713
0.0713848
0.000159567
0.0712283
0.000156501
0.0710748
0.000153514
0.0709242
0.000150606
0.0707764
0.000147777
0.0706314
0.000145026
0.070489
0.000142354
0.0703493
0.000139759
0.070212
0.000137242
0.0700772
0.000134802
0.0699448
0.000132438
0.0698146
0.00013015
0.0696867
0.000127937
0.0695609
0.000125798
0.0694372
0.000123734
0.0693154
0.000121744
0.0691956
0.000119826
0.0690776
0.000117981
0.0689614
0.000116208
0.0688469
0.000114505
0.068734
0.000112874
0.0686227
0.000111313
0.0685129
0.000109821
0.0684045
0.000108399
0.0682974
0.000107045
0.0681917
0.000105759
0.0680871
0.000104541
0.0679838
0.00010339
0.0678814
0.000102305
0.0677802
0.000101287
0.0676798
0.000100334
0.0675804
9.94467e-05
0.0674818
9.86243e-05
0.0673839
9.78666e-05
0.0672867
9.71731e-05
0.0671902
9.65435e-05
0.0670942
9.59776e-05
0.0669987
9.54751e-05
0.0669037
9.50357e-05
0.066809
9.46591e-05
0.0667147
9.43452e-05
0.0666206
9.40938e-05
0.0665267
9.39047e-05
0.0664329
9.37779e-05
0.0663392
9.37131e-05
0.0662455
9.37102e-05
0.0661517
9.37693e-05
0.0660578
9.38902e-05
0.0659637
9.4073e-05
0.0658694
9.43177e-05
0.0657748
9.46243e-05
0.0656798
9.49929e-05
0.0655844
9.54235e-05
0.0654885
9.59164e-05
0.065392
9.64715e-05
0.0652949
9.70891e-05
0.0651971
9.77694e-05
0.0650986
9.85125e-05
0.0649993
9.93187e-05
0.0648991
0.000100188
0.064798
0.000101122
0.0646959
0.000102119
0.0645927
0.000103181
0.0644884
0.000104307
0.0643829
0.000105498
0.0642761
0.000106755
0.0641681
0.000108078
0.0640586
0.000109467
0.0639477
0.000110923
0.0638352
0.000112446
0.0637212
0.000114037
0.0636055
0.000115697
0.0634881
0.000117425
0.0633688
0.000119223
0.0632478
0.000121092
0.0631247
0.000123031
0.0629997
0.000125042
0.0628726
0.000127124
0.0627433
0.00012928
0.0626118
0.000131509
0.062478
0.000133813
0.0623418
0.000136191
0.0622031
0.000138646
0.0620619
0.000141177
0.0619182
0.000143785
0.0617717
0.000146471
0.0616225
0.000149236
0.0614704
0.00015208
0.0613154
0.000155006
0.0611574
0.000158012
0.0609963
0.000161101
0.060832
0.000164272
0.0606645
0.000167527
0.0604936
0.000170867
0.0603193
0.000174292
0.0601415
0.000177803
0.0599601
0.000181401
0.059775
0.000185087
0.0595861
0.000188861
0.0593934
0.000192724
0.0591967
0.000196678
0.058996
0.000200722
0.0587912
0.000204857
0.0585821
0.000209085
0.0583687
0.000213405
0.0581509
0.000217818
0.0579285
0.000222325
0.0577016
0.000226926
0.05747
0.000231622
0.0572336
0.000236414
0.0569923
0.0002413
0.056746
0.000246283
0.0564946
0.000251362
0.0562381
0.000256537
0.0559763
0.000261808
0.0557091
0.000267176
0.0554365
0.000272639
0.0551583
0.0002782
0.0548744
0.000283855
0.0545848
0.000289607
0.0542894
0.000295453
0.053988
0.000301394
0.0536805
0.000307429
0.053367
0.000313557
0.0530472
0.000319776
0.0527211
0.000326087
0.0523886
0.000332487
0.0520496
0.000338975
0.0517041
0.000345549
0.0513519
0.000352209
0.0509929
0.000358951
0.0506272
0.000365773
0.0502545
0.000372674
0.0498748
0.000379651
0.0494881
0.0003867
0.0490943
0.000393819
0.0486933
0.000401005
0.0482851
0.000408254
0.0478695
0.000415562
0.0474466
0.000422925
0.0470162
0.000430338
0.0465784
0.000437798
0.0461331
0.0004453
0.0456803
0.000452837
0.0452199
0.000460405
0.0447519
0.000467998
0.0442763
0.000475609
0.0437931
0.000483232
0.0433022
0.000490861
0.0428037
0.000498487
0.0422976
0.000506104
0.0417839
0.000513704
0.0412626
0.000521279
0.0407338
0.000528819
0.0401975
0.000536316
0.0396537
0.000543762
0.0391026
0.000551146
0.0385441
0.000558458
0.0379784
0.000565689
0.0374056
0.000572827
0.0368257
0.000579863
0.036239
0.000586785
0.0356454
0.000593581
0.0350451
0.000600242
0.0344384
0.000606754
0.0338253
0.000613106
0.033206
0.000619286
0.0325807
0.000625282
0.0319496
0.000631082
0.031313
0.000636675
0.0306709
0.000642047
0.0300237
0.000647188
0.0293716
0.000652085
0.0287149
0.000656727
0.0280538
0.000661104
0.0273886
0.000665204
0.0267196
0.000669019
0.026047
0.000672538
0.0253713
0.000675753
0.0246926
0.000678657
0.0240114
0.000681243
0.0233279
0.000683505
0.0226424
0.000685438
0.0219554
0.000687039
0.0212671
0.000688306
0.0205779
0.00068924
0.019888
0.00068984
0.0191979
0.00069011
0.0185079
0.000690054
0.0178182
0.00068968
0.0171292
0.000688995
0.0164412
0.000688011
0.0157544
0.00068674
0.0150692
0.000685198
0.0143858
0.000683402
0.0137045
0.000681372
0.0130253
0.000679129
0.0123486
0.000676697
0.0116745
0.000674103
0.0110032
0.000671372
0.0103346
0.000668536
0.009669
0.000665624
0.00900633
0.000662666
0.00834664
0.000659696
0.0076899
0.000656739
0.00703606
0.000653839
0.00638517
0.000650889
0.00573671
0.000648457
0.00509308
0.000643628
0.00445027
0.00064281
0.00379959
0.000650685
0.00318123
0.000618359
0.00254196
0.000639271
0.00190541
0.000636548
0.00136191
0.000543497
0.000619135
0.000742779
0.000619135
7.07532e-05
-0.000139265
0.000328543
-0.00051518
0.000529939
-0.000402458
0.000709474
-0.000357468
0.000888788
-0.000361127
0.00107282
-0.00036691
0.0012599
-0.000375049
0.00145135
-0.000382144
0.00164716
-0.000391171
0.00184809
-0.000401785
0.00205403
-0.000411548
0.002265
-0.000421383
0.00248125
-0.000431908
0.00270288
-0.00044267
0.00292989
-0.000453352
0.00316217
-0.000463851
0.00339957
-0.000474048
0.00364186
-0.000483797
0.00388876
-0.000492964
0.0041399
-0.00050143
0.00439489
-0.000509089
0.00465327
-0.000515843
0.00491454
-0.000521611
0.00517817
-0.000526321
0.00544361
-0.00052992
0.00571027
-0.000532365
0.00597756
-0.00053363
0.00624489
-0.000533699
0.00651165
-0.000532572
0.00677724
-0.000530261
0.0070411
-0.00052679
0.00730264
-0.000522194
0.00756133
-0.000516518
0.00781665
-0.000509817
0.00806813
-0.000502154
0.00831531
-0.0004936
0.0085578
-0.000484231
0.00879521
-0.000474132
0.00902723
-0.00046339
0.00925358
-0.000452097
0.00947404
-0.000440349
0.00968842
-0.000428243
0.0098966
-0.000415879
0.0100985
-0.000403358
0.0102941
-0.000390781
0.0104834
-0.00037825
0.0106664
-0.000365864
0.0108434
-0.000353724
0.0110145
-0.000341927
0.0111799
-0.000330571
0.0113398
-0.000319748
0.0114946
-0.000309551
0.0116447
-0.000300068
0.0117904
-0.000291383
0.0119321
-0.00028358
0.0120705
-0.000276737
0.0122059
-0.000270927
0.0123389
-0.000266221
0.0124702
-0.000262686
0.0126003
-0.000260382
0.0127298
-0.000259368
0.0128596
-0.000259696
0.0129901
-0.000261414
0.0131223
-0.000264564
0.0132567
-0.000269185
0.0133942
-0.000275309
0.0135355
-0.000282965
0.0136814
-0.000292175
0.0138327
-0.000302957
0.0139902
-0.000315324
0.0141546
-0.000329283
0.0143268
-0.000344835
0.0145076
-0.000361979
0.0146978
-0.000380706
0.0148981
-0.000401004
0.0151093
-0.000422854
0.0153322
-0.000446234
0.0155676
-0.000471117
0.0158162
-0.000497471
0.0160786
-0.000525258
0.0163557
-0.00055444
0.016648
-0.00058497
0.0169563
-0.0006168
0.0172811
-0.000649876
0.017623
-0.000684143
0.0179827
-0.000719541
0.0183606
-0.000756006
0.0187573
-0.000793472
0.0191731
-0.00083187
0.0196086
-0.000871129
0.0200642
-0.000911174
0.0205401
-0.000951929
0.0210368
-0.000993316
0.0215544
-0.00103525
0.0220933
-0.00107766
0.0226536
-0.00112046
0.0232354
-0.00116356
0.0238389
-0.00120688
0.0244642
-0.00125034
0.0251112
-0.00129385
0.02578
-0.00133732
0.0264705
-0.00138067
0.0271826
-0.00142382
0.0279161
-0.00146667
0.0286709
-0.00150916
0.0294467
-0.00155118
0.0302433
-0.00159267
0.0310604
-0.00163355
0.0318975
-0.00167372
0.0327544
-0.00171312
0.0336305
-0.00175168
0.0345255
-0.00178931
0.0354388
-0.00182594
0.0363699
-0.00186151
0.0373183
-0.00189594
0.0382833
-0.00192918
0.0392642
-0.00196116
0.0402606
-0.00199182
0.0412715
-0.00202109
0.0422965
-0.00204894
0.0433346
-0.00207529
0.0443851
-0.00210011
0.0454472
-0.00212334
0.0465202
-0.00214494
0.0476031
-0.00216486
0.0486952
-0.00218308
0.0497955
-0.00219955
0.0509031
-0.00221423
0.0520172
-0.0022271
0.0531368
-0.00223813
0.054261
-0.00224729
0.0553888
-0.00225457
0.0565194
-0.00225993
0.0576516
-0.00226337
0.0587846
-0.00226487
0.0599174
-0.00226442
0.061049
-0.00226201
0.0621784
-0.00225764
0.0633046
-0.0022513
0.0644267
-0.002243
0.0655437
-0.00223274
0.0666545
-0.00222052
0.0677583
-0.00220635
0.068854
-0.00219025
0.0699407
-0.00217223
0.0710174
-0.00215231
0.0720833
-0.00213051
0.0731373
-0.00210685
0.0741785
-0.00208136
0.0752061
-0.00205407
0.0762192
-0.00202501
0.0772168
-0.00199422
0.0781983
-0.00196174
0.0791626
-0.0019276
0.080109
-0.00189185
0.0810368
-0.00185453
0.0819452
-0.00181571
0.0828334
-0.00177542
0.0837007
-0.00173372
0.0845465
-0.00169067
0.0853702
-0.00164632
0.086171
-0.00160075
0.0869484
-0.00155401
0.0877019
-0.00150617
0.088431
-0.0014573
0.0891351
-0.00140746
0.0898139
-0.00135674
0.0904668
-0.00130521
0.0910936
-0.00125293
0.091694
-0.00119999
0.0922675
-0.00114647
0.092814
-0.00109244
0.0933333
-0.00103798
0.0938251
-0.000983181
0.0942894
-0.000928117
0.094726
-0.00087287
0.095135
-0.000817521
0.0955162
-0.000762149
0.0958698
-0.000706833
0.0961958
-0.000651647
0.0964942
-0.000596657
0.0967653
-0.000541924
0.0970092
-0.000487506
0.0972262
-0.000433477
0.097417
-0.000379953
0.097584
-0.000327129
0.0977342
-0.000275296
0.0978798
-0.000224875
0.0980308
-0.000176175
0.0981852
-0.000126561
0.0983243
-7.63411e-05
0.0984356
-2.52594e-05
0.0985207
1.9403e-05
0.098579
6.44442e-05
0.098611
0.000108905
0.0986172
0.00015236
0.0985986
0.000194495
0.0985556
0.000235212
0.098489
0.00027451
0.0983994
0.000312377
0.0982875
0.000348795
0.0981541
0.000383749
0.0979999
0.000417226
0.0978256
0.000449215
0.0976321
0.000479708
0.0974202
0.000508699
0.0971906
0.000536187
0.0969442
0.000562175
0.0966818
0.000586667
0.0964043
0.000609673
0.0961124
0.000631205
0.0958071
0.000651277
0.0954891
0.000669907
0.0951594
0.000687117
0.0948186
0.000702928
0.0944677
0.000717368
0.0941074
0.000730464
0.0937386
0.000742247
0.093362
0.000752747
0.0929784
0.000761999
0.0925884
0.000770038
0.092193
0.0007769
0.0917927
0.000782625
0.0913882
0.000787251
0.0909802
0.000790818
0.0905694
0.000793367
0.0901564
0.000794938
0.0897416
0.000795574
0.0893259
0.000795317
0.0889095
0.000794209
0.0884932
0.000792291
0.0880773
0.000789606
0.0876624
0.000786196
0.0872488
0.000782101
0.0868371
0.000777364
0.0864275
0.000772023
0.0860205
0.000766119
0.0856163
0.000759691
0.0852154
0.000752777
0.084818
0.000745413
0.0844243
0.000737636
0.0840347
0.000729481
0.0836493
0.000720981
0.0832684
0.000712171
0.0828922
0.000703081
0.0825207
0.000693742
0.0821543
0.000684184
0.0817929
0.000674434
0.0814368
0.000664518
0.081086
0.000654464
0.0807407
0.000644294
0.0804009
0.000634031
0.0800667
0.000623697
0.0797381
0.000613312
0.0794152
0.000602895
0.079098
0.000592465
0.0787865
0.000582042
0.0784807
0.000571642
0.0781804
0.00056128
0.0778856
0.000550967
0.0775963
0.000540714
0.0773123
0.00053053
0.0770337
0.000520427
0.0767604
0.00051042
0.0764924
0.000500519
0.0762298
0.000490735
0.0759723
0.000481075
0.0757201
0.000471545
0.0754729
0.00046215
0.0752308
0.000452896
0.0749936
0.000443787
0.0747614
0.000434828
0.0745339
0.000426023
0.0743111
0.000417375
0.0740929
0.000408887
0.0738793
0.000400563
0.0736702
0.000392403
0.0734654
0.000384411
0.0732649
0.000376586
0.0730686
0.000368931
0.0728764
0.000361445
0.0726883
0.00035413
0.072504
0.000346986
0.0723235
0.000340013
0.0721468
0.00033321
0.0719738
0.000326577
0.0718043
0.000320115
0.0716382
0.000313821
0.0714755
0.000307696
0.0713162
0.000301738
0.07116
0.000295946
0.0710069
0.000290319
0.0708568
0.000284857
0.0707097
0.000279557
0.0705654
0.000274419
0.0704239
0.000269441
0.0702851
0.000264621
0.0701489
0.000259959
0.0700152
0.000255453
0.0698839
0.000251102
0.069755
0.000246903
0.0696283
0.000242856
0.0695039
0.00023896
0.0693815
0.000235212
0.0692612
0.000231611
0.0691429
0.000228157
0.0690265
0.000224847
0.0689118
0.00022168
0.0687989
0.000218656
0.0686877
0.000215772
0.0685781
0.000213028
0.0684699
0.000210423
0.0683633
0.000207954
0.068258
0.000205622
0.068154
0.000203425
0.0680513
0.000201361
0.0679497
0.000199431
0.0678493
0.000197633
0.0677498
0.000195966
0.0676514
0.000194429
0.0675538
0.000193022
0.0674571
0.000191744
0.0673612
0.000190593
0.067266
0.000189571
0.0671714
0.000188675
0.0670774
0.000187905
0.0669839
0.000187261
0.0668909
0.000186742
0.0667982
0.000186348
0.0667059
0.000186078
0.0666139
0.000185933
0.066522
0.000185912
0.0664303
0.000186014
0.0663387
0.000186239
0.0662471
0.000186588
0.0661555
0.000187061
0.0660638
0.000187656
0.0659719
0.000188375
0.0658797
0.000189217
0.0657873
0.000190183
0.0656946
0.000191272
0.0656014
0.000192485
0.0655078
0.000193822
0.0654136
0.000195284
0.0653188
0.000196871
0.0652234
0.000198583
0.0651273
0.000200421
0.0650304
0.000202385
0.0649327
0.000204476
0.0648341
0.000206695
0.0647345
0.000209042
0.0646339
0.000211518
0.0645322
0.000214124
0.0644294
0.00021686
0.0643254
0.000219728
0.0642201
0.000222728
0.0641135
0.000225862
0.0640054
0.00022913
0.0638959
0.000232534
0.0637849
0.000236074
0.0636723
0.000239752
0.063558
0.000243568
0.0634419
0.000247525
0.0633241
0.000251623
0.0632045
0.000255864
0.0630829
0.000260249
0.0629593
0.000264779
0.0628336
0.000269456
0.0627058
0.000274281
0.0625758
0.000279256
0.0624435
0.000284381
0.0623088
0.00028966
0.0621717
0.000295092
0.0620321
0.00030068
0.06189
0.000306425
0.0617452
0.000312329
0.0615977
0.000318393
0.0614473
0.000324619
0.0612941
0.000331009
0.061138
0.000337563
0.0609788
0.000344284
0.0608165
0.000351173
0.0606509
0.000358232
0.0604822
0.000365462
0.06031
0.000372864
0.0601344
0.000380441
0.0599553
0.000388193
0.0597726
0.000396122
0.0595862
0.00040423
0.059396
0.000412517
0.0592019
0.000420986
0.0590039
0.000429636
0.0588019
0.00043847
0.0585957
0.000447488
0.0583853
0.000456692
0.0581706
0.000466082
0.0579514
0.000475659
0.0577278
0.000485424
0.0574996
0.000495378
0.0572667
0.00050552
0.0570291
0.000515852
0.0567866
0.000526374
0.0565391
0.000537085
0.0562866
0.000547986
0.0560289
0.000559076
0.0557659
0.000570355
0.0554977
0.000581823
0.055224
0.000593478
0.0549447
0.00060532
0.0546599
0.000617347
0.0543693
0.000629558
0.0540729
0.000641951
0.0537706
0.000654525
0.0534623
0.000667276
0.0531478
0.000680204
0.0528272
0.000693303
0.0525003
0.000706573
0.052167
0.000720008
0.0518272
0.000733606
0.0514808
0.000747362
0.0511278
0.000761271
0.050768
0.00077533
0.0504014
0.000789532
0.0500279
0.000803871
0.0496474
0.000818343
0.0492597
0.000832939
0.0488649
0.000847654
0.0484628
0.00086248
0.0480534
0.000877408
0.0476366
0.000892431
0.0472123
0.00090754
0.0467804
0.000922725
0.0463409
0.000937977
0.0458938
0.000953284
0.0454388
0.000968637
0.0449761
0.000984024
0.0445055
0.000999433
0.0440269
0.00101485
0.0435404
0.00103027
0.0430459
0.00104567
0.0425433
0.00106103
0.0420327
0.00107636
0.0415139
0.00109162
0.0409869
0.00110681
0.0404518
0.00112191
0.0399085
0.00113691
0.0393569
0.00115178
0.0387972
0.00116651
0.0382292
0.00118109
0.037653
0.0011955
0.0370685
0.00120971
0.0364759
0.00122372
0.0358751
0.0012375
0.0352661
0.00125104
0.0346489
0.00126433
0.0340237
0.00127733
0.0333904
0.00129005
0.032749
0.00130245
0.0320997
0.00131453
0.0314424
0.00132626
0.0307773
0.00133765
0.0301044
0.00134866
0.0294238
0.00135929
0.0287355
0.00136952
0.0280397
0.00137935
0.0273364
0.00138876
0.0266257
0.00139774
0.0259077
0.0014063
0.0251825
0.00141441
0.0244503
0.00142208
0.0237111
0.00142931
0.022965
0.00143609
0.0222123
0.00144243
0.021453
0.00144832
0.0206872
0.00145378
0.0199151
0.0014588
0.0191369
0.00146341
0.0183527
0.0014676
0.0175627
0.0014714
0.016767
0.00147481
0.0159658
0.00147786
0.0151594
0.00148055
0.0143479
0.00148292
0.0135314
0.00148497
0.0127103
0.00148674
0.0118847
0.00148824
0.0110549
0.00148949
0.0102212
0.00149051
0.00938368
0.00149133
0.00854268
0.00149189
0.00769862
0.00149252
0.00685061
0.00149163
0.00599653
0.00149689
0.0051615
0.00148572
0.00428113
0.00149872
0.00343822
0.00148218
0.00256982
0.00150495
0.00163876
0.00147456
0.00086764
0.0015139
0.00148677
6.9692e-05
-0.000208957
0.000327744
-0.000773231
0.000528545
-0.00060326
0.000707468
-0.000536391
0.000885521
-0.000539179
0.00106857
-0.000549962
0.00125484
-0.000561313
0.00144576
-0.000573067
0.00164116
-0.000586571
0.00184151
-0.000602136
0.00204699
-0.000617026
0.00225772
-0.000632115
0.00247385
-0.000648043
0.00269547
-0.00066429
0.00292256
-0.000680443
0.00315503
-0.00069632
0.00339272
-0.000711733
0.00363538
-0.000726465
0.00388274
-0.000740317
0.00413442
-0.000753109
0.00439001
-0.000764679
0.00464905
-0.000774882
0.00491103
-0.000783592
0.00517541
-0.000790706
0.00544163
-0.000796139
0.00570909
-0.00079983
0.0059772
-0.000801737
0.00624534
-0.00080184
0.00651291
-0.000800139
0.0067793
-0.000796651
0.00704392
-0.000791413
0.00730621
-0.000784478
0.0075656
-0.000775915
0.00782159
-0.000765806
0.00807368
-0.000754248
0.00832143
-0.000741346
0.00856442
-0.000727219
0.00880228
-0.00071199
0.00903468
-0.000695794
0.00926135
-0.000678769
0.00948206
-0.000661058
0.00969663
-0.000642809
0.00990492
-0.000624172
0.0101069
-0.000605298
0.0103024
-0.000586341
0.0104916
-0.000567452
0.0106745
-0.000548782
0.0108513
-0.000530482
0.0110221
-0.000512699
0.0111871
-0.000495577
0.0113466
-0.000479259
0.0115009
-0.000463881
0.0116504
-0.000449577
0.0117955
-0.000436474
0.0119366
-0.000424696
0.0120743
-0.000414361
0.0122089
-0.000405579
0.0123411
-0.000398458
0.0124716
-0.000393097
0.0126008
-0.000389587
0.0127294
-0.000388015
0.0128582
-0.000388461
0.0129878
-0.000390995
0.0131189
-0.000395683
0.0132523
-0.000402581
0.0133887
-0.000411739
0.0135289
-0.0004232
0.0136738
-0.000436996
0.013824
-0.000453155
0.0139803
-0.000471695
0.0141437
-0.000492628
0.0143148
-0.000515956
0.0144945
-0.000541676
0.0146836
-0.000569776
0.0148828
-0.000600236
0.015093
-0.000633029
0.0153149
-0.000668121
0.0155492
-0.000705472
0.0157968
-0.000745033
0.0160583
-0.000786749
0.0163344
-0.00083056
0.0166258
-0.000876397
0.0169332
-0.000924188
0.0172572
-0.000973852
0.0175983
-0.0010253
0.0179572
-0.00107846
0.0183345
-0.00113321
0.0187305
-0.00118947
0.0191457
-0.00124713
0.0195807
-0.00130609
0.0200357
-0.00136622
0.0205112
-0.00142742
0.0210075
-0.00148958
0.0215248
-0.00155256
0.0220634
-0.00161624
0.0226234
-0.00168051
0.0232051
-0.00174524
0.0238085
-0.0018103
0.0244337
-0.00187556
0.0250808
-0.0019409
0.0257497
-0.00200619
0.0264403
-0.00207129
0.0271525
-0.00213608
0.0278863
-0.00220044
0.0286414
-0.00226424
0.0294176
-0.00232736
0.0302146
-0.00238967
0.0310321
-0.00245105
0.0318697
-0.00251138
0.0327271
-0.00257055
0.0336039
-0.00262845
0.0344996
-0.00268496
0.0354136
-0.00273997
0.0363455
-0.00279339
0.0372946
-0.0028451
0.0382605
-0.00289502
0.0392423
-0.00294304
0.0402396
-0.00298908
0.0412516
-0.00303305
0.0422775
-0.00307486
0.0433166
-0.00311444
0.0443682
-0.00315171
0.0454315
-0.00318659
0.0465056
-0.00321904
0.0475897
-0.00324896
0.0486829
-0.00327632
0.0497844
-0.00330106
0.0508933
-0.00332311
0.0520087
-0.00334245
0.0531295
-0.00335902
0.054255
-0.00337278
0.0553842
-0.00338372
0.056516
-0.00339178
0.0576496
-0.00339696
0.058784
-0.00339922
0.0599181
-0.00339856
0.061051
-0.00339495
0.0621818
-0.0033884
0.0633094
-0.0033789
0.0644328
-0.00336644
0.0655511
-0.00335104
0.0666633
-0.00333271
0.0677684
-0.00331145
0.0688655
-0.00328729
0.0699535
-0.00326024
0.0710315
-0.00323035
0.0720986
-0.00319762
0.0731539
-0.00316212
0.0741964
-0.00312386
0.0752252
-0.0030829
0.0762395
-0.00303928
0.0772383
-0.00299307
0.0782209
-0.00294431
0.0791864
-0.00289306
0.0801339
-0.0028394
0.0810628
-0.00278339
0.0819722
-0.0027251
0.0828614
-0.00266462
0.0837297
-0.00260202
0.0845764
-0.00253739
0.0854009
-0.00247082
0.0862025
-0.0024024
0.0869808
-0.00233223
0.087735
-0.00226041
0.0884648
-0.00218704
0.0891695
-0.00211223
0.0898489
-0.00203608
0.0905024
-0.00195871
0.0911297
-0.00188022
0.0917304
-0.00180074
0.0923043
-0.00172039
0.0928512
-0.00163927
0.0933707
-0.00155751
0.0938628
-0.00147524
0.0943272
-0.00139257
0.094764
-0.00130962
0.095173
-0.00122652
0.0955542
-0.00114339
0.0959077
-0.00106035
0.0962336
-0.000977508
0.0965319
-0.00089499
0.0968029
-0.000812908
0.0970467
-0.000731348
0.0972636
-0.000650321
0.0974534
-0.000569784
0.0976161
-0.000489866
0.0977521
-0.000411225
0.0978623
-0.00033505
0.0979479
-0.000261824
0.098011
-0.000189664
0.0980521
-0.000117407
0.0980732
-4.63775e-05
0.098067
2.55748e-05
0.0980373
9.42118e-05
0.0979855
0.000160637
0.097913
0.000224923
0.0978201
0.000287347
0.0977074
0.000347898
0.0975754
0.00040649
0.0974248
0.000463066
0.097256
0.000517577
0.0970697
0.000569984
0.0968667
0.000620254
0.0966476
0.000668362
0.096413
0.000714289
0.0961637
0.000758019
0.0959003
0.000799543
0.0956236
0.000838858
0.0953343
0.000875965
0.0950331
0.000910871
0.0947207
0.000943587
0.0943979
0.000974131
0.0940653
0.00100252
0.0937236
0.00102879
0.0933736
0.00105296
0.0930159
0.00107506
0.0926512
0.00109515
0.0922802
0.00111325
0.0919035
0.00112941
0.0915219
0.00114368
0.0911358
0.00115611
0.0907459
0.00116676
0.0903529
0.00117568
0.0899572
0.00118292
0.0895595
0.00118855
0.0891602
0.00119263
0.0887599
0.00119521
0.0883591
0.00119637
0.0879583
0.00119616
0.0875578
0.00119465
0.0871582
0.0011919
0.0867599
0.00118798
0.0863631
0.00118295
0.0859683
0.00117687
0.0855759
0.0011698
0.0851861
0.00116181
0.0847993
0.00115297
0.0844156
0.00114331
0.0840355
0.00113292
0.0836591
0.00112184
0.0832866
0.00111012
0.0829182
0.00109783
0.0825542
0.00108502
0.0821946
0.00107173
0.0818397
0.00105801
0.0814895
0.00104391
0.0811442
0.00102948
0.0808039
0.00101476
0.0804686
0.000999788
0.0801385
0.000984603
0.0798135
0.000969243
0.0794938
0.000953743
0.0791794
0.000938136
0.0788703
0.000922453
0.0785664
0.000906724
0.0782679
0.000890976
0.0779747
0.000875234
0.0776868
0.000859524
0.0774043
0.000843871
0.0771269
0.000828298
0.0768548
0.000812828
0.0765879
0.000797478
0.076326
0.000782263
0.0760693
0.000767193
0.0758175
0.000752281
0.0755707
0.000737539
0.0753288
0.00072298
0.0750917
0.000708615
0.0748594
0.000694455
0.0746318
0.000680508
0.0744088
0.000666782
0.0741903
0.000653284
0.0739763
0.00064002
0.0737667
0.000626993
0.0735614
0.00061421
0.0733603
0.000601673
0.0731633
0.000589386
0.0729704
0.000577352
0.0727814
0.000565571
0.0725963
0.000554047
0.0724149
0.000542779
0.0722373
0.00053177
0.0720633
0.000521018
0.0718928
0.000510524
0.0717257
0.000500287
0.0715619
0.000490308
0.0714015
0.000480585
0.0712442
0.000471116
0.07109
0.000461902
0.0709388
0.00045294
0.0707905
0.000444229
0.070645
0.000435767
0.0705023
0.000427551
0.0703623
0.000419582
0.0702249
0.000411855
0.07009
0.00040437
0.0699575
0.000397123
0.0698273
0.000390114
0.0696994
0.000383339
0.0695737
0.000376797
0.0694501
0.000370485
0.0693286
0.000364401
0.069209
0.000358543
0.0690913
0.000352909
0.0689754
0.000347497
0.0688613
0.000342304
0.0687488
0.000337329
0.0686379
0.000332569
0.0685285
0.000328023
0.0684206
0.000323688
0.0683141
0.000319563
0.0682089
0.000315646
0.0681049
0.000311935
0.0680021
0.000308428
0.0679004
0.000305124
0.0677997