/*--------------------------------*- C++ -*----------------------------------*\
| =========                 |                                                 |
| \\      /  F ield         | OpenFOAM: The Open Source CFD Toolbox           |
|  \\    /   O peration     | Version:  v2006                                 |
|   \\  /    A nd           | Website:  www.openfoam.com                      |
|    \\/     M anipulation  |                                                 |
\*---------------------------------------------------------------------------*/
FoamFile
{
    version     2.0;
    format      ascii;
    class       volScalarField;
    location    "0.5";
    object      p;
}
// * * * * * * * * * * * * * * * * * * * * * * * * * * * * * * * * * * * * * //

dimensions      [1 -1 -2 0 0 0 0];


internalField   nonuniform List<scalar> 
150000
(
17089.2
17102.6
17085.1
17116.9
17099.3
17129.7
17129
17146.5
17162.1
17179.6
17199
17220.1
17243.1
17267.9
17294.5
17322.8
17352.7
17384.4
17417.6
17452.5
17488.9
17526.8
17566.2
17606.9
17649.1
17692.6
17737.4
17783.4
17830.6
17878.9
17928.4
17978.9
18030.4
18082.9
18136.3
18190.5
18245.6
18301.5
18358.1
18415.5
18473.5
18532.1
18591.3
18651.1
18711.3
18772
18833.2
18894.8
18956.7
19019
19081.6
19144.4
19207.5
19270.7
19334.2
19397.8
19461.5
19525.4
19589.2
19653.2
19717.1
19781
19844.9
19908.7
19972.5
20036.1
20099.6
20162.9
20226.1
20289.1
20351.9
20414.4
20476.7
20538.8
20600.5
20661.9
20723.1
20783.8
20844.2
20904.3
20963.9
21023.1
21082
21140.3
21198.2
21255.7
21312.6
21369.1
21425
21480.4
21535.2
21589.5
21643.2
21696.2
21748.7
21800.5
21851.6
21902.1
21951.9
22000.9
22049.3
22096.8
22143.6
22189.7
22234.9
22279.3
22322.8
22365.5
22407.3
22448.2
22488.1
22527.1
22565.2
22602.3
22638.3
22673.4
22707.4
22740.4
22772.3
22803.1
22832.8
22861.4
22888.9
22915.2
22940.4
22964.4
22987.2
23008.9
23029.4
23048.7
23066.8
23083.6
23099.3
23113.8
23127
23139
23149.9
23159.5
23167.9
23175.2
23181.2
23186.1
23189.8
23192.3
23193.7
23193.9
23193.1
23191.1
23188.1
23183.9
23178.7
23172.5
23165.3
23157.1
23147.9
23137.7
23126.6
23114.6
23101.8
23088
23073.4
23058.1
23041.9
23024.9
23007.2
22988.8
22969.7
22950
22929.6
22908.5
22886.9
22864.6
22841.9
22818.5
22794.7
22770.4
22745.6
22720.3
22694.7
22668.5
22642
22615.2
22587.9
22560.3
22532.4
22504.1
22475.6
22446.8
22417.7
22388.5
22358.9
22329
22298.9
22268.6
22238
22207.3
22176.5
22145.4
22114.3
22083
22051.5
22019.9
21988.3
21956.5
21924.7
21892.8
21860.9
21828.9
21796.9
21764.8
21732.8
21700.7
21668.7
21636.8
21604.8
21573
21541.2
21509.5
21477.9
21446.4
21415
21383.8
21352.7
21321.8
21291
21260.5
21230.1
21199.9
21170
21140.3
21110.9
21081.7
21052.7
21024.1
20995.7
20967.6
20939.8
20912.3
20885.2
20858.3
20831.8
20805.6
20779.8
20754.3
20729.2
20704.4
20679.9
20655.9
20632.2
20608.9
20585.9
20563.3
20541.1
20519.3
20497.8
20476.7
20456
20435.7
20415.7
20396.1
20376.9
20358.1
20339.6
20321.6
20303.8
20286.5
20269.5
20252.9
20236.6
20220.7
20205.1
20189.9
20175
20160.5
20146.3
20132.5
20119
20105.8
20092.9
20080.4
20068.2
20056.3
20044.7
20033.4
20022.5
20011.8
20001.4
19991.3
19981.5
19972
19962.8
19953.9
19945.2
19936.8
19928.7
19920.8
19913.3
19905.9
19898.8
19892
19885.5
19879.1
19873.1
19867.2
19861.6
19856.3
19851.1
19846.3
19841.6
19837.2
19833
19829
19825.2
19821.7
19818.4
19815.3
19812.4
19809.7
19807.2
19805
19802.9
19801.1
19799.4
19798
19796.8
19795.8
19795
19794.3
19793.9
19793.7
19793.7
19793.9
19794.3
19794.9
19795.7
19796.7
19797.9
19799.2
19800.8
19802.6
19804.6
19806.8
19809.2
19811.8
19814.6
19817.6
19820.8
19824.2
19827.8
19831.7
19835.7
19840
19844.4
19849.1
19854
19859.1
19864.4
19870
19875.7
19881.7
19887.9
19894.4
19901
19907.9
19915.1
19922.4
19930.1
19937.9
19946
19954.3
19962.9
19971.7
19980.8
19990.2
19999.7
20009.6
20019.7
20030.1
20040.7
20051.7
20062.9
20074.3
20086.1
20098.1
20110.4
20123
20135.9
20149.1
20162.5
20176.3
20190.4
20204.7
20219.4
20234.4
20249.7
20265.3
20281.2
20297.4
20314
20330.9
20348
20365.6
20383.4
20401.5
20420
20438.9
20458
20477.5
20497.3
20517.4
20537.9
20558.7
20579.8
20601.2
20623
20645.1
20667.5
20690.3
20713.3
20736.7
20760.4
20784.4
20808.8
20833.4
20858.3
20883.5
20909
20934.8
20960.9
20987.2
21013.8
21040.6
21067.7
21095.1
21122.6
21150.4
21178.4
21206.6
21234.9
21263.4
21292.1
21321
21349.9
21379
21408.2
21437.4
21466.8
21496.1
21525.6
21555
21584.4
21613.8
21643.1
21672.4
21701.6
21730.6
21759.6
21788.3
21816.9
21845.3
21873.5
21901.4
21929
21956.3
21983.3
22009.9
22036.2
22062
22087.4
22112.4
22136.8
22160.7
22184.1
22207
22229.2
22250.8
22271.8
22292.1
22311.8
22330.7
22348.8
22366.3
22382.9
22398.7
22413.7
22427.9
22441.2
22453.7
22465.2
22475.8
22485.5
22494.4
22502
22510
22513.3
22522.7
22520.3
22530.8
22525.6
22531.5
16760.8
16774.2
16756.7
16788.5
16770.9
16801.3
16800.6
16818.1
16833.8
16851.3
16870.7
16891.9
16914.9
16939.7
16966.3
16994.6
17024.6
17056.2
17089.5
17124.4
17160.8
17198.8
17238.1
17279
17321.2
17364.7
17409.5
17455.5
17502.8
17551.1
17600.6
17651.2
17702.7
17755.2
17808.6
17862.9
17918.1
17974
18030.6
18088
18146
18204.7
18263.9
18323.7
18384
18444.7
18505.9
18567.5
18629.5
18691.8
18754.4
18817.2
18880.3
18943.6
19007.1
19070.7
19134.5
19198.3
19262.2
19326.1
19390.1
19454
19517.9
19581.8
19645.5
19709.2
19772.7
19836.1
19899.3
19962.3
20025.1
20087.6
20149.9
20212
20273.7
20335.2
20396.3
20457.1
20517.5
20577.5
20637.2
20696.4
20755.2
20813.6
20871.5
20929
20985.9
21042.4
21098.3
21153.7
21208.6
21262.8
21316.5
21369.6
21422
21473.8
21525
21575.5
21625.2
21674.3
21722.6
21770.2
21817
21863.1
21908.3
21952.7
21996.2
22038.9
22080.7
22121.6
22161.5
22200.5
22238.6
22275.7
22311.7
22346.8
22380.8
22413.8
22445.7
22476.5
22506.2
22534.8
22562.3
22588.6
22613.8
22637.8
22660.7
22682.4
22702.8
22722.1
22740.2
22757.1
22772.7
22787.2
22800.4
22812.5
22823.3
22832.9
22841.4
22848.6
22854.6
22859.5
22863.2
22865.7
22867.1
22867.4
22866.5
22864.5
22861.5
22857.3
22852.1
22845.9
22838.7
22830.4
22821.2
22811.1
22800
22788
22775.1
22761.4
22746.8
22731.4
22715.2
22698.3
22680.6
22662.2
22643.1
22623.3
22602.9
22581.8
22560.2
22537.9
22515.1
22491.8
22468
22443.7
22418.9
22393.6
22367.9
22341.8
22315.3
22288.4
22261.1
22233.5
22205.6
22177.3
22148.7
22119.9
22090.7
22061.2
22031.5
22001.7
21971.6
21941.3
21910.8
21880.1
21849.2
21818.2
21787
21755.7
21724.3
21692.7
21661.1
21629.4
21597.5
21565.6
21533.7
21501.7
21469.7
21437.7
21405.6
21373.6
21341.6
21309.6
21277.7
21245.8
21214
21182.3
21150.7
21119.2
21087.9
21056.6
21025.5
20994.6
20963.9
20933.3
20903
20872.8
20842.9
20813.2
20783.7
20754.5
20725.6
20696.9
20668.5
20640.4
20612.7
20585.2
20558
20531.2
20504.6
20478.5
20452.6
20427.1
20402
20377.2
20352.8
20328.7
20305
20281.7
20258.7
20236.1
20213.9
20192.1
20170.6
20149.5
20128.8
20108.5
20088.5
20068.9
20049.7
20030.9
20012.4
19994.4
19976.6
19959.3
19942.3
19925.7
19909.4
19893.5
19877.9
19862.7
19847.8
19833.3
19819.1
19805.3
19791.8
19778.6
19765.8
19753.2
19741
19729.1
19717.5
19706.3
19695.3
19684.6
19674.2
19664.2
19654.4
19644.9
19635.7
19626.7
19618.1
19609.7
19601.5
19593.7
19586.1
19578.8
19571.7
19564.9
19558.3
19552
19545.9
19540.1
19534.5
19529.1
19524
19519.1
19514.5
19510
19505.8
19501.8
19498.1
19494.5
19491.2
19488.1
19485.2
19482.5
19480.1
19477.8
19475.8
19473.9
19472.3
19470.9
19469.7
19468.6
19467.8
19467.2
19466.8
19466.6
19466.6
19466.8
19467.1
19467.7
19468.5
19469.5
19470.7
19472.1
19473.7
19475.5
19477.5
19479.7
19482
19484.6
19487.4
19490.4
19493.6
19497.1
19500.7
19504.5
19508.5
19512.8
19517.3
19521.9
19526.8
19531.9
19537.2
19542.8
19548.5
19554.5
19560.7
19567.2
19573.9
19580.8
19587.9
19595.2
19602.9
19610.7
19618.8
19627.1
19635.7
19644.5
19653.6
19662.9
19672.5
19682.4
19692.5
19702.9
19713.5
19724.4
19735.6
19747.1
19758.8
19770.8
19783.2
19795.7
19808.6
19821.8
19835.3
19849
19863.1
19877.5
19892.1
19907.1
19922.4
19938
19953.9
19970.1
19986.7
20003.6
20020.7
20038.3
20056.1
20074.2
20092.7
20111.5
20130.7
20150.2
20170
20190.1
20210.5
20231.3
20252.5
20273.9
20295.7
20317.8
20340.2
20363
20386
20409.4
20433.1
20457.1
20481.4
20506.1
20531
20556.2
20581.7
20607.5
20633.6
20659.9
20686.5
20713.4
20740.5
20767.8
20795.4
20823.1
20851.1
20879.3
20907.7
20936.2
20964.9
20993.8
21022.7
21051.8
21081
21110.3
21139.6
21169
21198.4
21227.9
21257.3
21286.7
21316
21345.3
21374.5
21403.6
21432.6
21461.4
21490
21518.4
21546.5
21574.5
21602.1
21629.4
21656.5
21683.1
21709.4
21735.2
21760.7
21785.6
21810.1
21834
21857.5
21880.3
21902.6
21924.2
21945.2
21965.6
21985.2
22004.1
22022.3
22039.8
22056.4
22072.3
22087.3
22101.5
22114.8
22127.3
22138.8
22149.5
22159.2
22168
22175.6
22183.6
22187.1
22196.3
22194.1
22204.6
22199.1
22205.2
16431.1
16444.5
16427
16458.8
16441.2
16471.6
16470.9
16488.5
16504.2
16521.7
16541.1
16562.3
16585.4
16610.2
16636.8
16665.2
16695.2
16726.9
16760.3
16795.2
16831.7
16869.7
16909.1
16950
16992.3
17035.8
17080.7
17126.8
17174.1
17222.6
17272.1
17322.7
17374.3
17426.9
17480.4
17534.7
17589.9
17645.9
17702.6
17760
17818.1
17876.8
17936.1
17996
18056.3
18117.1
18178.3
18240
18302
18364.3
18427
18489.9
18553
18616.4
18679.9
18743.5
18807.3
18871.2
18935.1
18999.1
19063.1
19127.1
19191
19254.9
19318.7
19382.3
19445.9
19509.3
19572.5
19635.5
19698.4
19760.9
19823.3
19885.3
19947.1
20008.6
20069.7
20130.5
20191
20251
20310.7
20369.9
20428.8
20487.2
20545.1
20602.6
20659.6
20716
20772
20827.4
20882.2
20936.5
20990.2
21043.3
21095.7
21147.5
21198.7
21249.2
21299
21348.1
21396.4
21444
21490.8
21536.8
21582.1
21626.5
21670
21712.7
21754.5
21795.4
21835.4
21874.4
21912.4
21949.5
21985.6
22020.7
22054.7
22087.7
22119.6
22150.4
22180.1
22208.7
22236.2
22262.5
22287.7
22311.7
22334.6
22356.2
22376.7
22396
22414.1
22430.9
22446.6
22461.1
22474.3
22486.3
22497.2
22506.8
22515.2
22522.4
22528.5
22533.3
22537
22539.5
22540.9
22541.2
22540.3
22538.3
22535.3
22531.1
22525.9
22519.7
22512.5
22504.2
22495
22484.8
22473.7
22461.7
22448.8
22435.1
22420.5
22405.1
22388.9
22371.9
22354.2
22335.8
22316.7
22296.9
22276.5
22255.4
22233.8
22211.5
22188.7
22165.4
22141.5
22117.2
22092.4
22067.1
22041.4
22015.3
21988.7
21961.8
21934.6
21906.9
21879
21850.7
21822.1
21793.3
21764.2
21734.8
21705.1
21675.2
21645.2
21614.8
21584.3
21553.5
21522.7
21491.6
21460.4
21429
21397.6
21366
21334.3
21302.5
21270.7
21238.8
21206.8
21174.8
21142.7
21110.7
21078.6
21046.5
21014.5
20982.5
20950.6
20918.7
20886.8
20855.1
20823.5
20792
20760.6
20729.3
20698.2
20667.3
20636.5
20605.9
20575.5
20545.4
20515.4
20485.7
20456.2
20427
20398.1
20369.4
20341
20312.9
20285.1
20257.6
20230.4
20203.6
20177
20150.9
20125
20099.5
20074.4
20049.6
20025.1
20001.1
19977.4
19954
19931.1
19908.5
19886.3
19864.4
19843
19821.9
19801.2
19780.9
19760.9
19741.3
19722.1
19703.3
19684.9
19666.8
19649.1
19631.7
19614.7
19598.1
19581.8
19565.9
19550.4
19535.2
19520.3
19505.8
19491.6
19477.8
19464.3
19451.1
19438.3
19425.7
19413.5
19401.6
19390.1
19378.8
19367.8
19357.2
19346.8
19336.7
19326.9
19317.4
19308.2
19299.3
19290.6
19282.3
19274.1
19266.3
19258.7
19251.4
19244.3
19237.5
19230.9
19224.6
19218.5
19212.7
19207.1
19201.8
19196.7
19191.8
19187.1
19182.7
19178.5
19174.5
19170.8
19167.2
19163.9
19160.8
19157.9
19155.2
19152.8
19150.5
19148.5
19146.6
19145
19143.6
19142.4
19141.3
19140.5
19139.9
19139.5
19139.3
19139.3
19139.5
19139.9
19140.5
19141.2
19142.2
19143.4
19144.8
19146.4
19148.2
19150.2
19152.4
19154.8
19157.4
19160.2
19163.2
19166.4
19169.8
19173.4
19177.2
19181.3
19185.5
19190
19194.6
19199.5
19204.6
19209.9
19215.5
19221.2
19227.2
19233.4
19239.9
19246.5
19253.4
19260.6
19267.9
19275.5
19283.4
19291.4
19299.8
19308.3
19317.2
19326.2
19335.6
19345.2
19355
19365.1
19375.5
19386.1
19397
19408.2
19419.7
19431.4
19443.4
19455.7
19468.3
19481.2
19494.4
19507.9
19521.6
19535.7
19550
19564.7
19579.7
19595
19610.6
19626.5
19642.7
19659.2
19676.1
19693.3
19710.8
19728.6
19746.8
19765.2
19784.1
19803.2
19822.7
19842.5
19862.6
19883
19903.8
19925
19946.4
19968.2
19990.3
20012.7
20035.4
20058.5
20081.9
20105.6
20129.6
20153.9
20178.6
20203.5
20228.7
20254.2
20280
20306.1
20332.4
20359
20385.9
20413
20440.3
20467.9
20495.7
20523.7
20551.9
20580.3
20608.8
20637.5
20666.4
20695.4
20724.5
20753.7
20783
20812.3
20841.7
20871.2
20900.6
20930.1
20959.5
20988.9
21018.2
21047.4
21076.5
21105.5
21134.3
21163
21191.4
21219.6
21247.6
21275.2
21302.6
21329.6
21356.3
21382.6
21408.5
21434
21459
21483.5
21507.5
21530.9
21553.8
21576.1
21597.8
21618.8
21639.2
21658.8
21677.8
21696
21713.5
21730.1
21746
21761.1
21775.3
21788.6
21801.1
21812.7
21823.4
21833.1
21841.9
21849.6
21857.5
21861
21870.3
21868
21878.5
21873.1
21879.2
16100
16113.3
16095.8
16127.7
16110
16140.6
16139.9
16157.5
16173.2
16190.8
16210.2
16231.5
16254.6
16279.5
16306.2
16334.6
16364.7
16396.5
16429.9
16464.9
16501.5
16539.6
16579.1
16620.1
16662.4
16706.1
16751.1
16797.3
16844.7
16893.2
16942.8
16993.5
17045.2
17097.9
17151.5
17205.9
17261.2
17317.3
17374.1
17431.6
17489.8
17548.6
17607.9
17667.9
17728.3
17789.2
17850.5
17912.2
17974.3
18036.7
18099.4
18162.4
18225.6
18289
18352.6
18416.3
18480.1
18544.1
18608
18672.1
18736.1
18800.1
18864.1
18928
18991.9
19055.6
19119.2
19182.6
19245.9
19309
19371.8
19434.4
19496.8
19558.9
19620.7
19682.2
19743.4
19804.2
19864.7
19924.8
19984.5
20043.8
20102.6
20161
20219
20276.5
20333.5
20390
20445.9
20501.3
20556.2
20610.5
20664.2
20717.3
20769.8
20821.6
20872.8
20923.3
20973.1
21022.2
21070.5
21118.1
21165
21211
21256.3
21300.7
21344.2
21386.9
21428.7
21469.6
21509.6
21548.6
21586.7
21623.8
21659.9
21694.9
21729
21761.9
21793.9
21824.7
21854.4
21883
21910.5
21936.8
21962
21986
22008.9
22030.6
22051
22070.3
22088.4
22105.3
22120.9
22135.4
22148.6
22160.7
22171.5
22181.1
22189.5
22196.7
22202.8
22207.6
22211.3
22213.8
22215.2
22215.4
22214.5
22212.5
22209.5
22205.3
22200.1
22193.9
22186.6
22178.4
22169.1
22159
22147.8
22135.8
22122.9
22109.2
22094.5
22079.1
22062.9
22045.9
22028.2
22009.8
21990.7
21970.9
21950.4
21929.3
21907.7
21885.4
21862.6
21839.2
21815.4
21791
21766.2
21740.9
21715.1
21689
21662.5
21635.5
21608.2
21580.6
21552.6
21524.3
21495.7
21466.8
21437.6
21408.2
21378.5
21348.5
21318.4
21288.1
21257.5
21226.8
21195.9
21164.8
21133.6
21102.2
21070.7
21039.1
21007.4
20975.6
20943.7
20911.8
20879.8
20847.7
20815.7
20783.6
20751.5
20719.4
20687.3
20655.3
20623.3
20591.4
20559.5
20527.8
20496.1
20464.6
20433.1
20401.9
20370.7
20339.8
20309
20278.4
20248
20217.8
20187.8
20158.1
20128.6
20099.3
20070.4
20041.7
20013.3
19985.1
19957.3
19929.8
19902.6
19875.8
19849.2
19823
19797.2
19771.7
19746.5
19721.7
19697.3
19673.2
19649.5
19626.2
19603.2
19580.6
19558.4
19536.6
19515.1
19494
19473.3
19453
19433.1
19413.5
19394.3
19375.5
19357
19339
19321.2
19303.9
19286.9
19270.3
19254.1
19238.2
19222.6
19207.4
19192.6
19178.1
19163.9
19150.1
19136.6
19123.4
19110.6
19098
19085.9
19074
19062.4
19051.1
19040.2
19029.5
19019.2
19009.1
18999.3
18989.8
18980.6
18971.7
18963.1
18954.7
18946.6
18938.7
18931.2
18923.8
18916.8
18910
18903.4
18897.1
18891
18885.2
18879.6
18874.3
18869.2
18864.3
18859.6
18855.2
18851
18847
18843.3
18839.8
18836.4
18833.3
18830.5
18827.8
18825.3
18823.1
18821
18819.2
18817.6
18816.1
18814.9
18813.9
18813.1
18812.5
18812.1
18811.9
18811.9
18812
18812.4
18813
18813.8
18814.8
18816
18817.4
18819
18820.8
18822.7
18824.9
18827.3
18829.9
18832.7
18835.7
18838.9
18842.3
18845.9
18849.8
18853.8
18858
18862.5
18867.2
18872.1
18877.2
18882.5
18888
18893.8
18899.7
18905.9
18912.4
18919
18925.9
18933
18940.4
18948
18955.8
18963.9
18972.2
18980.8
18989.6
18998.7
19008
19017.6
19027.4
19037.5
19047.9
19058.5
19069.4
19080.6
19092.1
19103.8
19115.8
19128.1
19140.7
19153.6
19166.7
19180.2
19193.9
19208
19222.4
19237
19252
19267.3
19282.8
19298.7
19315
19331.5
19348.4
19365.5
19383
19400.9
19419
19437.5
19456.3
19475.4
19494.9
19514.7
19534.8
19555.3
19576
19597.2
19618.6
19640.4
19662.5
19684.9
19707.6
19730.7
19754.1
19777.8
19801.8
19826.2
19850.8
19875.7
19900.9
19926.5
19952.3
19978.3
20004.7
20031.3
20058.2
20085.3
20112.7
20140.2
20168
20196.1
20224.3
20252.7
20281.2
20310
20338.9
20367.9
20397
20426.2
20455.5
20484.9
20514.4
20543.8
20573.3
20602.8
20632.3
20661.7
20691
20720.3
20749.4
20778.5
20807.3
20836
20864.5
20892.7
20920.7
20948.4
20975.9
21002.9
21029.7
21056
21082
21107.5
21132.5
21157.1
21181.1
21204.6
21227.5
21249.9
21271.6
21292.7
21313.1
21332.8
21351.8
21370.1
21387.6
21404.3
21420.2
21435.3
21449.5
21462.9
21475.4
21487
21497.7
21507.5
21516.4
21524
21532
21535.5
21544.8
21542.5
21553
21547.6
21553.7
15767.5
15780.8
15763.3
15795.3
15777.5
15808.2
15807.4
15825.1
15840.9
15858.5
15878
15899.4
15922.6
15947.5
15974.3
16002.8
16033
16064.9
16098.4
16133.6
16170.2
16208.4
16248.1
16289.2
16331.6
16375.4
16420.5
16466.9
16514.4
16563.1
16612.8
16663.7
16715.5
16768.3
16822
16876.6
16932
16988.2
17045.1
17102.7
17161
17219.9
17279.4
17339.4
17399.9
17460.9
17522.3
17584.1
17646.3
17708.8
17771.6
17834.7
17898
17961.5
18025.1
18088.9
18152.8
18216.9
18280.9
18345
18409.1
18473.2
18537.3
18601.2
18665.1
18728.9
18792.6
18856.1
18919.4
18982.5
19045.4
19108.1
19170.5
19232.7
19294.5
19356.1
19417.3
19478.1
19538.6
19598.8
19658.5
19717.8
19776.7
19835.2
19893.2
19950.7
20007.7
20064.2
20120.2
20175.7
20230.5
20284.9
20338.6
20391.7
20444.2
20496.1
20547.2
20597.8
20647.6
20696.7
20745.1
20792.7
20839.5
20885.6
20930.8
20975.3
21018.8
21061.5
21103.4
21144.3
21184.3
21223.3
21261.4
21298.5
21334.6
21369.6
21403.7
21436.7
21468.6
21499.4
21529.1
21557.8
21585.2
21611.6
21636.8
21660.8
21683.6
21705.3
21725.8
21745.1
21763.1
21780
21795.7
21810.1
21823.4
21835.4
21846.2
21855.8
21864.2
21871.4
21877.5
21882.3
21886
21888.5
21889.8
21890.1
21889.2
21887.2
21884.1
21879.9
21874.7
21868.4
21861.2
21852.9
21843.6
21833.4
21822.3
21810.3
21797.4
21783.6
21768.9
21753.5
21737.3
21720.3
21702.5
21684.1
21664.9
21645.1
21624.6
21603.5
21581.8
21559.6
21536.7
21513.3
21489.5
21465.1
21440.2
21414.9
21389.1
21363
21336.4
21309.4
21282.1
21254.5
21226.4
21198.1
21169.5
21140.6
21111.4
21081.9
21052.2
21022.2
20992.1
20961.7
20931.1
20900.3
20869.4
20838.2
20807
20775.6
20744
20712.4
20680.6
20648.8
20616.9
20584.9
20552.8
20520.7
20488.6
20456.5
20424.3
20392.2
20360.1
20328
20296
20264
20232.1
20200.3
20168.6
20137
20105.6
20074.3
20043.1
20012.1
19981.3
19950.6
19920.2
19889.9
19859.9
19830.2
19800.7
19771.4
19742.4
19713.7
19685.3
19657.1
19629.3
19601.8
19574.6
19547.7
19521.1
19494.9
19469.1
19443.5
19418.4
19393.6
19369.1
19345
19321.3
19298
19275
19252.4
19230.2
19208.4
19186.9
19165.9
19145.2
19124.9
19104.9
19085.3
19066.2
19047.3
19028.9
19010.8
18993.1
18975.8
18958.8
18942.2
18926
18910.1
18894.6
18879.4
18864.5
18850.1
18835.9
18822.1
18808.6
18795.4
18782.6
18770.1
18757.9
18746.1
18734.5
18723.3
18712.3
18701.7
18691.3
18681.3
18671.5
18662
18652.8
18643.9
18635.3
18626.9
18618.8
18611
18603.4
18596.1
18589
18582.2
18575.7
18569.4
18563.3
18557.5
18551.9
18546.6
18541.5
18536.6
18532
18527.6
18523.4
18519.4
18515.7
18512.1
18508.8
18505.7
18502.9
18500.2
18497.7
18495.5
18493.4
18491.6
18490
18488.6
18487.4
18486.3
18485.5
18484.9
18484.5
18484.3
18484.3
18484.5
18484.9
18485.5
18486.3
18487.2
18488.4
18489.8
18491.4
18493.2
18495.2
18497.4
18499.8
18502.3
18505.1
18508.1
18511.3
18514.7
18518.4
18522.2
18526.2
18530.4
18534.9
18539.6
18544.4
18549.5
18554.8
18560.4
18566.1
18572.1
18578.3
18584.7
18591.4
18598.3
18605.4
18612.7
18620.3
18628.1
18636.2
18644.5
18653.1
18661.9
18671
18680.3
18689.8
18699.7
18709.8
18720.1
18730.8
18741.6
18752.8
18764.3
18776
18788
18800.3
18812.8
18825.7
18838.9
18852.3
18866.1
18880.1
18894.5
18909.1
18924.1
18939.3
18954.9
18970.8
18987
19003.5
19020.4
19037.6
19055
19072.9
19091
19109.5
19128.3
19147.4
19166.9
19186.7
19206.8
19227.2
19248
19269.1
19290.6
19312.3
19334.4
19356.9
19379.6
19402.7
19426.1
19449.8
19473.8
19498.1
19522.8
19547.7
19572.9
19598.5
19624.3
19650.4
19676.7
19703.3
19730.2
19757.4
19784.7
19812.3
19840.2
19868.2
19896.4
19924.9
19953.5
19982.2
20011.1
20040.2
20069.3
20098.6
20128
20157.4
20186.9
20216.4
20245.9
20275.4
20304.9
20334.4
20363.8
20393.1
20422.3
20451.4
20480.3
20509
20537.6
20565.9
20594
20621.7
20649.2
20676.4
20703.2
20729.6
20755.6
20781.1
20806.2
20830.9
20855
20878.5
20901.5
20923.9
20945.7
20966.9
20987.3
21007.1
21026.2
21044.5
21062.1
21078.8
21094.8
21109.9
21124.2
21137.7
21150.2
21161.8
21172.6
21182.4
21191.3
21198.9
21207
21210.4
21219.8
21217.5
21228.1
21222.7
21228.7
15433.6
15446.8
15429.3
15461.5
15443.6
15474.4
15473.6
15491.5
15507.3
15525
15544.6
15566
15589.3
15614.3
15641.2
15669.8
15700.2
15732.2
15765.8
15801.1
15837.9
15876.2
15916
15957.3
15999.9
16043.9
16089.1
16135.6
16183.3
16232.1
16282.1
16333.1
16385
16438
16491.9
16546.6
16602.2
16658.5
16715.6
16773.3
16831.8
16890.8
16950.4
17010.6
17071.2
17132.4
17193.9
17255.8
17318.1
17380.7
17443.7
17506.8
17570.2
17633.8
17697.6
17761.5
17825.5
17889.6
17953.8
18018
18082.1
18146.3
18210.5
18274.5
18338.5
18402.4
18466.1
18529.6
18593
18656.2
18719.2
18781.9
18844.4
18906.6
18968.5
19030.1
19091.4
19152.3
19212.9
19273
19332.8
19392.2
19451.1
19509.6
19567.6
19625.2
19682.2
19738.8
19794.8
19850.3
19905.2
19959.5
20013.3
20066.4
20119
20170.8
20222.1
20272.6
20322.4
20371.6
20420
20467.6
20514.5
20560.5
20605.8
20650.2
20693.8
20736.6
20778.4
20819.3
20859.3
20898.4
20936.5
20973.6
21009.7
21044.8
21078.8
21111.8
21143.7
21174.6
21204.3
21232.9
21260.4
21286.8
21312
21336
21358.8
21380.5
21401
21420.3
21438.3
21455.2
21470.9
21485.3
21498.5
21510.6
21521.4
21531
21539.4
21546.6
21552.6
21557.4
21561.1
21563.6
21564.9
21565.1
21564.2
21562.2
21559.1
21554.9
21549.7
21543.4
21536.1
21527.8
21518.5
21508.3
21497.2
21485.1
21472.2
21458.3
21443.7
21428.2
21412
21395
21377.2
21358.7
21339.5
21319.7
21299.2
21278
21256.3
21234
21211.1
21187.7
21163.8
21139.4
21114.5
21089.2
21063.4
21037.2
21010.6
20983.6
20956.2
20928.5
20900.5
20872.1
20843.4
20814.5
20785.2
20755.7
20726
20696
20665.8
20635.3
20604.7
20573.9
20542.9
20511.7
20480.4
20449
20417.4
20385.7
20353.9
20322
20290
20257.9
20225.8
20193.7
20161.5
20129.3
20097.1
20065
20032.8
20000.7
19968.6
19936.6
19904.6
19872.8
19841
19809.4
19777.9
19746.5
19715.3
19684.2
19653.4
19622.7
19592.2
19561.9
19531.9
19502.1
19472.5
19443.2
19414.2
19385.5
19357
19328.8
19301
19273.4
19246.2
19219.3
19192.7
19166.5
19140.6
19115.1
19089.9
19065.1
19040.7
19016.6
18992.9
18969.5
18946.6
18924
18901.8
18879.9
18858.5
18837.4
18816.7
18796.4
18776.5
18756.9
18737.7
18718.9
18700.5
18682.5
18664.8
18647.5
18630.5
18613.9
18597.7
18581.8
18566.3
18551.1
18536.3
18521.8
18507.7
18493.9
18480.4
18467.3
18454.4
18442
18429.8
18417.9
18406.4
18395.2
18384.2
18373.6
18363.3
18353.2
18343.5
18334
18324.8
18315.9
18307.3
18298.9
18290.9
18283
18275.5
18268.2
18261.1
18254.4
18247.8
18241.5
18235.5
18229.7
18224.1
18218.8
18213.7
18208.8
18204.2
18199.8
18195.6
18191.6
18187.9
18184.4
18181.1
18178
18175.1
18172.4
18170
18167.7
18165.7
18163.9
18162.3
18160.8
18159.6
18158.6
18157.8
18157.2
18156.8
18156.6
18156.6
18156.8
18157.2
18157.8
18158.5
18159.5
18160.7
18162.1
18163.7
18165.5
18167.5
18169.7
18172
18174.6
18177.4
18180.4
18183.6
18187
18190.6
18194.4
18198.5
18202.7
18207.1
18211.8
18216.7
18221.8
18227.1
18232.6
18238.3
18244.3
18250.5
18256.9
18263.5
18270.4
18277.5
18284.9
18292.5
18300.3
18308.3
18316.6
18325.2
18334
18343
18352.3
18361.9
18371.7
18381.8
18392.2
18402.8
18413.7
18424.8
18436.2
18448
18459.9
18472.2
18484.8
18497.6
18510.8
18524.2
18538
18552
18566.3
18581
18595.9
18611.2
18626.7
18642.6
18658.8
18675.3
18692.2
18709.3
18726.8
18744.6
18762.8
18781.2
18800
18819.1
18838.6
18858.4
18878.5
18898.9
18919.7
18940.8
18962.2
18984
19006.1
19028.5
19051.3
19074.4
19097.7
19121.5
19145.5
19169.8
19194.5
19219.4
19244.7
19270.2
19296
19322.1
19348.5
19375.1
19402
19429.2
19456.6
19484.2
19512.1
19540.1
19568.4
19596.9
19625.5
19654.3
19683.2
19712.3
19741.5
19770.8
19800.2
19829.7
19859.2
19888.8
19918.4
19948
19977.5
20007
20036.5
20065.9
20095.2
20124.3
20153.3
20182.1
20210.7
20239.1
20267.2
20295.1
20322.6
20349.9
20376.7
20403.2
20429.3
20455
20480.2
20504.9
20529.1
20552.7
20575.8
20598.3
20620.1
20641.4
20661.9
20681.8
20700.9
20719.3
20736.9
20753.8
20769.8
20785
20799.3
20812.8
20825.4
20837.1
20847.9
20857.7
20866.7
20874.3
20882.4
20885.9
20895.3
20893
20903.6
20898.2
20904.2
15098.4
15111.5
15094
15126.3
15108.3
15139.3
15138.4
15156.4
15172.4
15190.1
15209.8
15231.3
15254.7
15279.9
15306.9
15335.6
15366.1
15398.3
15432.1
15467.5
15504.5
15543
15583
15624.4
15667.2
15711.4
15756.8
15803.5
15851.4
15900.4
15950.6
16001.7
16053.9
16107.1
16161.1
16216
16271.8
16328.3
16385.5
16443.5
16502.1
16561.3
16621.1
16681.4
16742.2
16803.5
16865.2
16927.3
16989.7
17052.5
17115.5
17178.8
17242.3
17306.1
17369.9
17434
17498.1
17562.3
17626.6
17690.9
17755.2
17819.5
17883.7
17947.8
18011.9
18075.9
18139.7
18203.3
18266.8
18330.1
18393.1
18455.9
18518.5
18580.7
18642.7
18704.4
18765.7
18826.7
18887.3
18947.5
19007.4
19066.8
19125.8
19184.3
19242.4
19300
19357.1
19413.7
19469.7
19525.2
19580.2
19634.6
19688.4
19741.5
19794.1
19846
19897.2
19947.8
19997.7
20046.8
20095.2
20142.9
20189.8
20235.9
20281.2
20325.6
20369.2
20412
20453.8
20494.8
20534.8
20573.9
20612
20649.1
20685.2
20720.3
20754.4
20787.4
20819.3
20850.2
20879.9
20908.5
20936
20962.4
20987.6
21011.6
21034.5
21056.1
21076.6
21095.9
21114
21130.8
21146.5
21160.9
21174.2
21186.2
21197
21206.6
21214.9
21222.1
21228.1
21232.9
21236.6
21239.1
21240.4
21240.6
21239.7
21237.6
21234.5
21230.3
21225
21218.7
21211.4
21203.1
21193.8
21183.5
21172.4
21160.3
21147.3
21133.5
21118.8
21103.3
21087
21070
21052.2
21033.6
21014.4
20994.6
20974
20952.9
20931.1
20908.8
20885.9
20862.4
20838.5
20814
20789.1
20763.7
20737.9
20711.6
20685
20658
20630.6
20602.8
20574.7
20546.3
20517.6
20488.6
20459.3
20429.8
20400
20369.9
20339.6
20309.2
20278.5
20247.6
20216.5
20185.3
20154
20122.4
20090.8
20059
20027.2
19995.2
19963.2
19931.1
19898.9
19866.7
19834.4
19802.2
19769.9
19737.7
19705.4
19673.3
19641.1
19609
19577
19545.1
19513.3
19481.6
19450
19418.6
19387.3
19356.2
19325.3
19294.5
19264
19233.7
19203.6
19173.8
19144.2
19114.8
19085.8
19057
19028.5
19000.3
18972.4
18944.8
18917.6
18890.7
18864.1
18837.8
18811.9
18786.4
18761.2
18736.4
18711.9
18687.8
18664.1
18640.8
18617.8
18595.2
18573
18551.2
18529.7
18508.7
18488
18467.7
18447.8
18428.2
18409.1
18390.3
18371.8
18353.8
18336.1
18318.8
18301.9
18285.3
18269.1
18253.2
18237.7
18222.6
18207.8
18193.3
18179.2
18165.4
18151.9
18138.8
18126
18113.6
18101.4
18089.6
18078
18066.8
18055.9
18045.3
18035
18025
18015.2
18005.8
17996.6
17987.7
17979.1
17970.8
17962.7
17954.9
17947.4
17940.1
17933.1
17926.3
17919.8
17913.5
17907.4
17901.6
17896.1
17890.8
17885.7
17880.8
17876.2
17871.8
17867.6
17863.7
17860
17856.4
17853.1
17850.1
17847.2
17844.5
17842.1
17839.9
17837.8
17836
17834.4
17833
17831.8
17830.8
17830
17829.3
17828.9
17828.7
17828.7
17828.9
17829.3
17829.9
17830.7
17831.7
17832.9
17834.3
17835.8
17837.6
17839.6
17841.8
17844.2
17846.8
17849.5
17852.5
17855.7
17859.1
17862.7
17866.5
17870.6
17874.8
17879.2
17883.9
17888.7
17893.8
17899.1
17904.6
17910.4
17916.3
17922.5
17928.9
17935.6
17942.4
17949.5
17956.9
17964.4
17972.2
17980.3
17988.6
17997.1
18005.9
18014.9
18024.2
18033.8
18043.6
18053.7
18064
18074.6
18085.5
18096.6
18108
18119.7
18131.7
18144
18156.5
18169.4
18182.5
18195.9
18209.6
18223.6
18238
18252.6
18267.5
18282.8
18298.3
18314.2
18330.4
18346.9
18363.7
18380.9
18398.3
18416.1
18434.3
18452.7
18471.5
18490.6
18510
18529.8
18549.9
18570.4
18591.1
18612.2
18633.7
18655.4
18677.5
18700
18722.7
18745.8
18769.2
18792.9
18816.9
18841.3
18865.9
18890.9
18916.1
18941.7
18967.5
18993.6
19020
19046.7
19073.6
19100.8
19128.2
19155.9
19183.8
19211.9
19240.2
19268.6
19297.3
19326.2
19355.1
19384.3
19413.5
19442.9
19472.3
19501.9
19531.5
19561.1
19590.7
19620.4
19650
19679.6
19709.2
19738.6
19768
19797.2
19826.2
19855.1
19883.8
19912.3
19940.5
19968.5
19996.1
20023.5
20050.4
20077
20103.2
20129
20154.3
20179.1
20203.4
20227.1
20250.3
20272.9
20294.8
20316.1
20336.8
20356.7
20376
20394.4
20412.1
20429.1
20445.2
20460.5
20474.9
20488.4
20501.1
20512.8
20523.7
20533.6
20542.6
20550.3
20558.4
20561.9
20571.3
20569.1
20579.6
20574.3
20580.3
14761.7
14774.7
14757.2
14789.8
14771.6
14802.9
14801.9
14820
14836.1
14853.9
14873.7
14895.3
14918.8
14944.2
14971.3
15000.2
15030.9
15063.2
15097.2
15132.8
15170
15208.7
15248.9
15290.6
15333.6
15378
15423.6
15470.6
15518.7
15567.9
15618.3
15669.7
15722.1
15775.5
15829.7
15884.9
15940.8
15997.6
16055
16113.2
16172
16231.4
16291.4
16351.9
16412.9
16474.3
16536.2
16598.4
16661
16724
16787.2
16850.6
16914.3
16978.2
17042.2
17106.4
17170.6
17235
17299.4
17363.8
17428.2
17492.6
17557
17621.2
17685.4
17749.5
17813.4
17877.1
17940.7
18004.1
18067.2
18130.1
18192.7
18255.1
18317.1
18378.9
18440.3
18501.3
18562
18622.3
18682.2
18741.7
18800.7
18859.3
18917.4
18975.1
19032.2
19088.9
19145
19200.5
19255.5
19309.9
19363.8
19417
19469.6
19521.5
19572.8
19623.4
19673.3
19722.4
19770.9
19818.6
19865.5
19911.6
19956.9
20001.4
20045.1
20087.8
20129.7
20170.7
20210.7
20249.8
20287.9
20325
20361.2
20396.3
20430.4
20463.4
20495.3
20526.2
20555.9
20584.6
20612.1
20638.4
20663.6
20687.7
20710.5
20732.2
20752.7
20772
20790
20806.9
20822.5
20837
20850.2
20862.2
20873
20882.6
20890.9
20898.1
20904.1
20908.9
20912.5
20915
20916.3
20916.5
20915.5
20913.4
20910.3
20906.1
20900.8
20894.4
20887.1
20878.7
20869.4
20859.1
20847.9
20835.8
20822.8
20808.9
20794.2
20778.7
20762.4
20745.3
20727.5
20708.9
20689.7
20669.7
20649.2
20628
20606.2
20583.8
20560.8
20537.4
20513.4
20488.9
20463.9
20438.5
20412.6
20386.3
20359.6
20332.6
20305.1
20277.3
20249.2
20220.7
20192
20162.9
20133.6
20103.9
20074.1
20044
20013.6
19983.1
19952.4
19921.4
19890.3
19859
19827.6
19796
19764.3
19732.4
19700.5
19668.5
19636.4
19604.2
19571.9
19539.6
19507.3
19475
19442.7
19410.3
19378
19345.8
19313.5
19281.4
19249.3
19217.3
19185.4
19153.7
19122
19090.5
19059.2
19028
18997
18966.2
18935.6
18905.3
18875.1
18845.2
18815.6
18786.2