/*--------------------------------*- C++ -*----------------------------------*\
| =========                 |                                                 |
| \\      /  F ield         | OpenFOAM: The Open Source CFD Toolbox           |
|  \\    /   O peration     | Version:  v2006                                 |
|   \\  /    A nd           | Website:  www.openfoam.com                      |
|    \\/     M anipulation  |                                                 |
\*---------------------------------------------------------------------------*/
FoamFile
{
    version     2.0;
    format      ascii;
    class       surfaceScalarField;
    location    "12.1";
    object      alphaPhi0.water;
}
// * * * * * * * * * * * * * * * * * * * * * * * * * * * * * * * * * * * * * //

dimensions      [0 3 -1 0 0 0 0];
oriented        oriented;


internalField   nonuniform List<scalar> 
104500
(
1.57009e-06
-1.57009e-06
1.8048e-05
-1.6478e-05
3.2345e-05
-1.42969e-05
4.29102e-05
-1.05652e-05
5.16515e-05
-8.74131e-06
5.9791e-05
-8.13953e-06
6.76928e-05
-7.90177e-06
7.53568e-05
-7.66398e-06
8.27094e-05
-7.35266e-06
8.96783e-05
-6.96886e-06
9.62409e-05
-6.56256e-06
0.000102378
-6.13682e-06
0.000108079
-5.70128e-06
0.000113337
-5.25854e-06
0.000118153
-4.81516e-06
0.000122531
-4.37867e-06
0.000126482
-3.95089e-06
0.000130015
-3.53325e-06
0.000133145
-3.12929e-06
0.000135887
-2.74196e-06
0.000138264
-2.37774e-06
0.000140301
-2.03692e-06
0.00014202
-1.71867e-06
0.000143447
-1.42658e-06
0.000144606
-1.15897e-06
0.000145526
-9.19937e-07
0.000146234
-7.08536e-07
0.000146758
-5.23667e-07
0.00014712
-3.62763e-07
0.000147346
-2.25228e-07
0.000147457
-1.11318e-07
0.000147477
-1.95406e-08
0.000147425
5.1864e-08
0.00014732
1.04437e-07
0.00014718
1.40473e-07
0.000147017
1.62707e-07
0.00014684
1.77185e-07
0.000146649
1.91317e-07
0.000146442
2.06143e-07
0.000146212
2.30173e-07
0.000145944
2.67858e-07
0.000145619
3.25432e-07
0.000145214
4.05232e-07
0.000144735
4.79148e-07
0.000144163
5.71418e-07
0.00014351
6.53511e-07
0.000142775
7.3439e-07
0.000141972
8.03734e-07
0.000141108
8.63768e-07
0.000140181
9.26864e-07
0.000139194
9.87098e-07
0.000138135
1.05889e-06
0.000136978
1.15717e-06
0.000135721
1.25691e-06
0.000134374
1.34665e-06
0.000132978
1.39664e-06
0.000131596
1.3818e-06
0.000130339
1.25655e-06
0.000129352
9.87557e-07
0.000128775
5.76213e-07
0.000128763
1.22112e-08
0.00012943
-6.66481e-07
0.000130829
-1.39916e-06
0.00013299
-2.16122e-06
0.000135911
-2.9208e-06
0.000139568
-3.65695e-06
0.000143921
-4.35362e-06
0.000148951
-5.02921e-06
0.0001546
-5.64897e-06
0.000160838
-6.23827e-06
0.000167636
-6.79822e-06
0.000174969
-7.33325e-06
0.000182817
-7.84803e-06
0.000191161
-8.34399e-06
0.000199991
-8.82932e-06
0.000209289
-9.29869e-06
0.000219047
-9.75769e-06
0.000229254
-1.02067e-05
0.0002399
-1.06458e-05
0.000250975
-1.10752e-05
0.00026247
-1.14957e-05
0.000274379
-1.19089e-05
0.000286697
-1.23175e-05
0.000299421
-1.27246e-05
0.000312555
-1.31332e-05
0.000326101
-1.35458e-05
0.000340064
-1.39634e-05
0.000354449
-1.43852e-05
0.000369258
-1.48087e-05
0.000384488
-1.52296e-05
0.00040013
-1.56426e-05
0.000416172
-1.60421e-05
0.000432595
-1.6423e-05
0.000449377
-1.67817e-05
0.000466493
-1.71161e-05
0.000483919
-1.7426e-05
0.000501632
-1.77126e-05
0.00051961
-1.79783e-05
0.000537836
-1.8226e-05
0.000556295
-1.84586e-05
0.000574973
-1.86783e-05
0.00059386
-1.88868e-05
0.000612945
-1.90851e-05
0.000632218
-1.92734e-05
0.00065167
-1.94515e-05
0.000671288
-1.96186e-05
0.000691062
-1.97736e-05
0.000710977
-1.99149e-05
0.000731017
-2.004e-05
0.000751163
-2.01467e-05
0.000771397
-2.02332e-05
0.000791692
-2.0295e-05
0.00081201
-2.03183e-05
0.000832287
-2.02776e-05
0.000852439
-2.01512e-05
0.000872382
-1.99435e-05
0.000892072
-1.96897e-05
0.000911506
-1.94341e-05
0.000930711
-1.9205e-05
0.000949717
-1.90066e-05
0.000968546
-1.88281e-05
0.000987202
-1.86566e-05
0.00100569
-1.84831e-05
0.00102399
-1.83027e-05
0.0010421
-1.81127e-05
0.00106001
-1.79111e-05
0.00107771
-1.76964e-05
0.00109517
-1.74669e-05
0.0011124
-1.72218e-05
0.00112936
-1.69602e-05
0.00114604
-1.66818e-05
0.00116242
-1.63862e-05
0.0011785
-1.60731e-05
0.00119424
-1.57422e-05
0.00120963
-1.53936e-05
0.00122466
-1.50274e-05
0.0012393
-1.46436e-05
0.00125355
-1.42426e-05
0.00126737
-1.38245e-05
0.00128076
-1.33901e-05
0.0012937
-1.294e-05
0.00130618
-1.24758e-05
0.00131818
-1.19996e-05
0.00132969
-1.15135e-05
0.00134071
-1.10198e-05
0.00135123
-1.05203e-05
0.00136125
-1.00145e-05
0.00137074
-9.49814e-06
0.00137971
-8.96164e-06
0.00138809
-8.3886e-06
0.00139585
-7.75731e-06
0.00140289
-7.0417e-06
0.00140911
-6.22032e-06
0.0014144
-5.2824e-06
0.00141863
-4.23219e-06
0.00142172
-3.0911e-06
0.00142362
-1.90058e-06
0.00142433
-7.13801e-07
0.00142378
5.5762e-07
0.00142198
1.79387e-06
0.001419
2.97692e-06
0.00141487
4.13898e-06
0.00140956
5.30289e-06
0.00140308
6.48728e-06
0.00139537
7.70475e-06
0.00138641
8.95758e-06
0.00137618
1.02285e-05
0.00136473
1.14569e-05
0.00135215
1.25813e-05
0.0013386
1.35505e-05
0.00132429
1.43038e-05
0.00130948
1.48157e-05
0.00129434
1.51368e-05
0.00127901
1.53266e-05
0.0012636
1.54103e-05
0.00124821
1.53945e-05
0.00123295
1.52578e-05
0.00121798
1.49661e-05
0.00120349
1.44971e-05
0.00118962
1.38631e-05
0.0011765
1.31217e-05
0.00116414
1.23673e-05
0.00115243
1.17064e-05
0.0011412
1.12249e-05
0.00113024
1.09648e-05
0.00111932
1.09176e-05
0.00110828
1.10373e-05
0.00109702
1.12615e-05
0.00108549
1.15319e-05
0.00107369
1.18046e-05
0.00106163
1.20522e-05
0.00104937
1.22595e-05
0.00103696
1.2419e-05
0.00102443
1.25273e-05
0.00101185
1.25827e-05
0.000999261
1.25843e-05
0.00098673
1.25311e-05
0.000974309
1.24213e-05
0.000962056
1.2253e-05
0.000950031
1.20243e-05
0.000938297
1.17348e-05
0.00092691
1.13869e-05
0.000915921
1.09883e-05
0.000905368
1.05537e-05
0.00089526
1.01073e-05
0.000885576
9.68471e-06
0.00087625
9.32545e-06
0.000867192
9.05875e-06
0.000858296
8.89577e-06
0.00084946
8.83608e-06
0.000840583
8.8769e-06
0.000831569
9.01367e-06
0.000822336
9.23296e-06
0.000812829
9.50698e-06
0.000803033
9.79636e-06
0.000792973
1.00595e-05
0.000782711
1.02622e-05
0.000772327
1.03841e-05
0.000761907
1.04198e-05
0.000751529
1.03777e-05
0.000741255
1.02744e-05
0.000731126
1.01293e-05
0.000721166
9.96032e-06
0.000711384
9.78102e-06
0.000701785
9.59975e-06
0.000692364
9.42031e-06
0.000683121
9.24323e-06
0.000674054
9.06751e-06
0.000665162
8.89201e-06
0.000656446
8.71616e-06
0.000647905
8.54046e-06
0.000639539
8.36596e-06
0.000631345
8.19378e-06
0.00062332
8.02544e-06
0.000615458
7.86196e-06
0.000607754
7.704e-06
0.000600202
7.55187e-06
0.000592796
7.40599e-06
0.00058553
7.26644e-06
0.000578396
7.13325e-06
0.00057139
7.00672e-06
0.000564502
6.88758e-06
0.000557725
6.77662e-06
0.000551052
6.67323e-06
0.000544473
6.57902e-06
0.000537978
6.49503e-06
0.000531557
6.42093e-06
0.000525198
6.35933e-06
0.000518887
6.31138e-06
0.000512609
6.27776e-06
0.000506347
6.26146e-06
0.000500083
6.26395e-06
0.000493794
6.28912e-06
0.000487454
6.34058e-06
0.000481031
6.42239e-06
0.000474491
6.54016e-06
0.000467792
6.69877e-06
0.000460889
6.90334e-06
0.00045373
7.15896e-06
0.00044627
7.45988e-06
0.000438484
7.78626e-06
0.000430361
8.12308e-06
0.000421889
8.4722e-06
0.000413047
8.84134e-06
0.000403815
9.23207e-06
0.000394176
9.63937e-06
0.00038412
1.00562e-05
0.000373642
1.04781e-05
0.000362734
1.09071e-05
0.00035138
1.13547e-05
0.000339538
1.18417e-05
0.000327143
1.23951e-05
0.0003141
1.30425e-05
0.000300294
1.38064e-05
0.000285594
1.47003e-05
0.000269866
1.57282e-05
0.000252979
1.68868e-05
0.000234811
1.81679e-05
0.000215252
1.95593e-05
0.00019421
2.10418e-05
0.000171624
2.25858e-05
0.000147474
2.415e-05
0.000121793
2.56812e-05
9.46759e-05
2.71168e-05
6.62812e-05
2.83946e-05
3.68201e-05
2.94611e-05
6.53374e-06
3.02864e-05
-2.43478e-05
3.08815e-05
-5.5547e-05
3.11992e-05
-8.67271e-05
3.11801e-05
-0.000117506
3.07793e-05
-0.00014744
2.9934e-05
-0.000175974
2.85336e-05
-0.000202404
2.64303e-05
-0.000225897
2.34926e-05
-0.000245654
1.97573e-05
-0.000261189
1.55344e-05
-0.000272616
1.14278e-05
-0.000280639
8.02219e-06
-0.000286291
5.65249e-06
-0.000290555
4.26346e-06
-0.000294204
3.64906e-06
-0.000297708
3.50477e-06
-0.000301198
3.48982e-06
-0.00030459
3.39161e-06
-0.000307723
3.13366e-06
-0.000310394
2.67007e-06
-0.000312416
2.02261e-06
-0.000313698
1.28223e-06
-0.000314189
4.90303e-07
-0.000313855
-3.33486e-07
-0.000312761
-1.09388e-06
-0.000310884
-1.87738e-06
-0.000308235
-2.64897e-06
-0.000304855
-3.38011e-06
-0.000300804
-4.05102e-06
-0.000296168
-4.63589e-06
-0.00029103
-5.13773e-06
-0.000285463
-5.56723e-06
-0.000279531
-5.93239e-06
-0.000273283
-6.2474e-06
-0.000266758
-6.52514e-06
-0.00025999
-6.7678e-06
-0.000253013
-6.97736e-06
-0.00024585
-7.16312e-06
-0.00023852
-7.33021e-06
-0.000231032
-7.48712e-06
-0.000223396
-7.63691e-06
-0.000215619
-7.77687e-06
-0.000207712
-7.90697e-06
-0.000199672
-8.04009e-06
-0.000191491
-8.18046e-06
-0.000183155
-8.33607e-06
-0.000174644
-8.51067e-06
-0.000165933
-8.71127e-06
-0.000156993
-8.93993e-06
-0.000147795
-9.1984e-06
-0.000138308
-9.48688e-06
-0.000128504
-9.80368e-06
-0.00011836
-1.0144e-05
-0.000107864
-1.04958e-05
-9.70234e-05
-1.08411e-05
-8.58628e-05
-1.11606e-05
-7.44071e-05
-1.14558e-05
-6.26413e-05
-1.17657e-05
-5.04318e-05
-1.22096e-05
-3.75824e-05
-1.28493e-05
-2.36517e-05
-1.39307e-05
-9.01897e-06
-1.46327e-05
-9.01897e-06
-8.0945e-06
6.52441e-06
-2.5362e-06
-2.20363e-05
-4.56272e-07
-1.63769e-05
-2.55799e-06
-8.46349e-06
-6.31935e-06
-4.97994e-06
-1.02887e-05
-4.17022e-06
-1.42158e-05
-3.97461e-06
-1.82505e-05
-3.62932e-06
-2.2519e-05
-3.08416e-06
-2.70321e-05
-2.45575e-06
-3.18052e-05
-1.7894e-06
-3.68135e-05
-1.12855e-06
-4.20484e-05
-4.66395e-07
-4.751e-05
2.03029e-07
-5.31953e-05
8.70216e-07
-5.9063e-05
1.48898e-06
-6.50974e-05
2.08353e-06
-7.12733e-05
2.64263e-06
-7.75677e-05
3.16515e-06
-8.39659e-05
3.65624e-06
-9.04075e-05
4.06386e-06
-9.68393e-05
4.39482e-06
-0.000103268
4.70998e-06
-0.000109607
4.91204e-06
-0.000115861
5.09589e-06
-0.000121959
5.17788e-06
-0.000127857
5.18881e-06
-0.000133526
5.14587e-06
-0.000138934
5.04464e-06
-0.000144057
4.89857e-06
-0.000148847
4.67872e-06
-0.000153255
4.38818e-06
-0.000157302
4.09903e-06
-0.000160919
3.72154e-06
-0.000164123
3.34416e-06
-0.000166908
2.94755e-06
-0.000169245
2.51399e-06
-0.000171129
2.07523e-06
-0.000172571
1.64905e-06
-0.000173578
1.23657e-06
-0.00017416
8.50457e-07
-0.000174303
4.6814e-07
-0.000173959
6.06024e-08
-0.000173186
-2.93852e-07
-0.000171973
-6.41309e-07
-0.000170336
-9.82925e-07
-0.000168283
-1.31851e-06
-0.000165825
-1.65451e-06
-0.000162977
-1.98454e-06
-0.000159745
-2.30514e-06
-0.000156128
-2.63028e-06
-0.000152131
-2.93806e-06
-0.000147736
-3.23755e-06
-0.000142941
-3.5375e-06
-0.000137758
-3.8368e-06
-0.000132192
-4.16932e-06
-0.000126284
-4.52658e-06
-0.000120095
-4.93194e-06
-0.000113715
-5.39277e-06
-0.00010723
-5.90895e-06
-0.000100702
-6.51596e-06
-9.42244e-05
-7.14363e-06
-8.78097e-05
-7.81382e-06
-8.14593e-05
-8.51164e-06
-7.51541e-05
-9.22599e-06
-6.88636e-05
-9.94748e-06
-6.25429e-05
-1.06743e-05
-5.6192e-05
-1.13801e-05
-4.97405e-05
-1.21006e-05
-4.31656e-05
-1.28131e-05
-3.6442e-05
-1.35218e-05
-2.95477e-05
-1.42276e-05
-2.24649e-05
-1.49308e-05
-1.51739e-05
-1.56349e-05
-7.66766e-06
-1.63356e-05
7.48138e-08
-1.70412e-05
8.06499e-06
-1.77479e-05
1.63144e-05
-1.84561e-05
2.48346e-05
-1.9166e-05
3.36371e-05
-1.98777e-05
4.27331e-05
-2.05916e-05
5.21326e-05
-2.13084e-05
6.18441e-05
-2.20291e-05
7.1874e-05
-2.27545e-05
8.2226e-05
-2.34852e-05
9.29008e-05
-2.42206e-05
0.000103896
-2.49588e-05
0.000115207
-2.56964e-05
0.000126827
-2.64287e-05
0.000138748
-2.715e-05
0.000150959
-2.78545e-05
0.000163454
-2.85367e-05
0.000176223
-2.9192e-05
0.000189259
-2.98176e-05
0.000202555
-3.04117e-05
0.000216103
-3.09743e-05
0.000229897
-3.15063e-05
0.000243927
-3.2009e-05
0.000258186
-3.24844e-05
0.000272661
-3.29339e-05
0.000287342
-3.33589e-05
0.000302215
-3.37604e-05
0.000317269
-3.41388e-05
0.00033249
-3.44943e-05
0.000347866
-3.48271e-05
0.000363384
-3.51374e-05
0.000379036
-3.54254e-05
0.000394813
-3.56917e-05
0.00041071
-3.59372e-05
0.000426727
-3.61636e-05
0.000442867
-3.63729e-05
0.000459136
-3.65647e-05
0.000475554
-3.6736e-05
0.000492157
-3.68801e-05
0.000508994
-3.69888e-05
0.000526105
-3.70547e-05
0.000543489
-3.70737e-05
0.000561101
-3.7046e-05
0.000578871
-3.69749e-05
0.00059673
-3.68656e-05
0.000614624
-3.67221e-05
0.000632515
-3.65471e-05
0.000650373
-3.63416e-05
0.000668177
-3.6106e-05
0.000685905
-3.58405e-05
0.000703539
-3.55453e-05
0.000721063
-3.52206e-05
0.000738463
-3.4867e-05
0.000755726
-3.44848e-05
0.00077284
-3.40737e-05
0.000789792
-3.36341e-05
0.000806572
-3.31664e-05
0.00082317
-3.26712e-05
0.000839577
-3.21491e-05
0.000855784
-3.16007e-05
0.000871784
-3.10268e-05
0.000887568
-3.0428e-05
0.000903131
-2.98055e-05
0.000918468
-2.91609e-05
0.000933572
-2.8495e-05
0.000948443
-2.78102e-05
0.000963075
-2.71087e-05
0.000977469
-2.63935e-05
0.000991624
-2.56686e-05
0.00100554
-2.49379e-05
0.00101923
-2.42061e-05
0.00103269
-2.34772e-05
0.00104595
-2.27523e-05
0.00105901
-2.20275e-05
0.00107192
-2.12954e-05
0.0010847
-2.05435e-05
0.00109742
-1.97545e-05
0.00111011
-1.89096e-05
0.00112282
-1.79928e-05
0.00113558
-1.69918e-05
0.00114839
-1.59041e-05
0.00116122
-1.47346e-05
0.001174
-1.34937e-05
0.00118674
-1.21809e-05
0.00119936
-1.08214e-05
0.00121177
-9.44026e-06
0.00122396
-8.05139e-06
0.00123593
-6.66223e-06
0.00124769
-5.27274e-06
0.00125927
-3.87803e-06
0.0012707
-2.46522e-06
0.00128193
-1.00844e-06
0.00129306
3.33537e-07
0.00130399
1.64468e-06
0.00131449
3.05688e-06
0.00132429
4.50048e-06
0.00133318
5.92549e-06
0.00134108
7.23292e-06
0.00134799
8.41483e-06
0.00135391
9.4911e-06
0.00135884
1.04679e-05
0.00136275
1.1345e-05
0.0013656
1.21156e-05
0.00136733
1.27712e-05
0.00136788
1.33082e-05
0.00136727
1.37344e-05
0.00136557
1.40716e-05
0.00136292
1.43527e-05
0.00135953
1.46153e-05
0.0013556
1.4893e-05
0.00135131
1.52094e-05
0.00134677
1.55752e-05
0.00134205
1.59899e-05
0.00133713
1.64452e-05
0.00133201
1.69282e-05
0.00132664
1.74251e-05
0.00132097
1.79225e-05
0.00131498
1.84087e-05
0.00130864
1.88736e-05
0.00130191
1.93087e-05
0.00129479
1.97071e-05
0.00128726
2.00628e-05
0.00127931
2.03707e-05
0.00127093
2.0626e-05
0.00126213
2.08244e-05
0.00125291
2.09619e-05
0.00124326
2.10358e-05
0.0012332
2.10452e-05
0.00122276
2.09923e-05
0.00121199
2.08836e-05
0.00120094
2.07308e-05
0.00118971
2.05508e-05
0.00117841
2.03642e-05
0.00116711
2.01932e-05
0.00115589
2.0061e-05
0.00114477
1.99889e-05
0.00113379
1.9993e-05
0.00112295
2.00795e-05
0.00111221
2.02432e-05
0.00110154
2.04657e-05
0.00109088
2.07208e-05
0.00108017
2.09773e-05
0.00106934
2.12058e-05
0.00105838
2.13822e-05
0.00104727
2.14913e-05
0.00103602
2.15272e-05
0.00102465
2.14921e-05
0.00101322
2.13947e-05
0.00100175
2.12465e-05
0.000990292
2.10606e-05
0.000978864
2.08486e-05
0.000967487
2.06202e-05
0.000956172
2.03823e-05
0.000944925
2.01397e-05
0.000933745
1.98957e-05
0.000922633
1.96524e-05
0.000911587
1.94117e-05
0.000900606
1.9175e-05
0.000889688
1.89439e-05
0.00087883
1.872e-05
0.000868029
1.85045e-05
0.000857283
1.8298e-05
0.000846587
1.81018e-05
0.000835939
1.79148e-05
0.000825334
1.77383e-05
0.00081477
1.75708e-05
0.000804243
1.7414e-05
0.000793754
1.72657e-05
0.0007833
1.71271e-05
0.000772883
1.69967e-05
0.000762502
1.68757e-05
0.00075216
1.67626e-05
0.000741862
1.66573e-05
0.000731614
1.65603e-05
0.000721421
1.64702e-05
0.000711295
1.63876e-05
0.000701247
1.63117e-05
0.000691294
1.62425e-05
0.000681455
1.61793e-05
0.000671756
1.61217e-05
0.000662227
1.60692e-05
0.000652904
1.60221e-05
0.000643826
1.59807e-05
0.000635041
1.59442e-05
0.000626588
1.59128e-05
0.000618486
1.58881e-05
0.000610737
1.58718e-05
0.000603344
1.58653e-05
0.000596315
1.58702e-05
0.000589659
1.58883e-05
0.000583377
1.59211e-05
0.000577463
1.59707e-05
0.0005719
1.60408e-05
0.00056667
1.61376e-05
0.000561754
1.62707e-05
0.000557143
1.64528e-05
0.000552838
1.66999e-05
0.000548851
1.70297e-05
0.000545196
1.74606e-05
0.000541887
1.801e-05
0.000538921
1.86938e-05
0.000536281
1.95266e-05
0.000533927
2.05223e-05
0.000531792
2.16946e-05
0.000529776
2.30569e-05
0.000527766
2.45962e-05
0.000525649
2.62674e-05
0.000523278
2.80515e-05
0.000520485
2.99098e-05
0.000517092
3.1788e-05
0.000512931
3.36225e-05
0.000507875
3.53417e-05
0.000501899
3.68578e-05
0.000495041
3.80571e-05
0.000487419
3.88024e-05
0.000479255
3.89426e-05
0.000470874
3.8316e-05
0.00046266
3.67476e-05
0.000455017
3.40726e-05
0.000448103
3.04065e-05
0.000441916
2.59445e-05
0.000436447
2.10032e-05
0.00043177
1.61052e-05
0.000427977
1.18149e-05
0.00042506
8.5695e-06
0.000422799
6.52438e-06
0.000420904
5.54405e-06
0.000419126
5.28269e-06
0.000417339
5.27662e-06
0.000415555
5.17586e-06
0.00041382
4.86888e-06
0.000412128
4.36182e-06
0.000410423
3.72834e-06
0.00040864
3.06505e-06
0.000406689
2.44098e-06
0.000404471
1.8846e-06
0.000401993
1.38438e-06
0.000399204
9.10808e-07
0.000396103
4.52422e-07
0.000392692
3.08497e-08
0.000389028
-3.87141e-07
0.000385186
-7.93628e-07
0.00038119
-1.14154e-06
0.000377051
-1.4288e-06
0.000372763
-1.64446e-06
0.000368291
-1.77491e-06
0.000363593
-1.82748e-06
0.000358626
-1.8005e-06
0.000353329
-1.68063e-06
0.000347665
-1.49911e-06
0.00034158
-1.24509e-06
0.000335047
-9.54297e-07
0.000328008
-5.97996e-07
0.000320418
-1.86236e-07
0.00031218
3.30845e-07
0.000303268
8.71972e-07
0.000293623
1.46453e-06
0.00028319
2.09728e-06
0.000271923
2.75555e-06
0.00025979
3.42192e-06
0.000246774
4.07671e-06
0.000232875
4.69989e-06
0.000218116
5.27229e-06
0.000202536
5.77628e-06
0.000186195
6.19739e-06
0.00016917
6.52918e-06
0.000151555
6.77382e-06
0.000133464
6.92989e-06
0.000115016
6.99225e-06
9.6288e-05
6.96262e-06
7.72474e-05
6.83104e-06
5.75852e-05
6.81283e-06
3.70198e-05
6.63473e-06
1.76436e-05
4.74342e-06
8.62464e-06
-7.76939e-06
1.42938e-05
4.3075e-07
-3.02364e-05
5.62686e-06
-2.1573e-05
5.9125e-06
-8.74914e-06
3.79721e-06
-2.86465e-06
1.2346e-06
-1.60761e-06
-1.16415e-06
-1.57587e-06
-3.49186e-06
-1.30161e-06
-5.93912e-06
-6.36906e-07
-8.60837e-06
2.13499e-07
-1.15516e-05
1.15383e-06
-1.47229e-05
2.04274e-06
-1.81222e-05
2.9329e-06
-2.17345e-05
3.81539e-06
-2.55409e-05
4.67661e-06
-2.95581e-05
5.50612e-06
-3.37623e-05
6.2877e-06
-3.8105e-05
6.98542e-06
-4.25662e-05
7.62634e-06
-4.7123e-05
8.21301e-06
-5.17374e-05
8.67829e-06
-5.6402e-05
9.05942e-06
-6.10174e-05
9.32532e-06
-6.56026e-05
9.4973e-06
-7.00868e-05
9.58006e-06
-7.44351e-05
9.52615e-06
-7.8617e-05
9.37077e-06
-8.25667e-05
9.09556e-06
-8.62643e-05
8.74219e-06
-8.96721e-05
8.30634e-06
-9.27732e-05
7.77984e-06
-9.55635e-05
7.17846e-06
-9.79756e-05
6.51114e-06
-0.000100044
5.78979e-06
-0.000101726
5.0265e-06
-0.000103009
4.23041e-06
-0.000103906
3.4111e-06
-0.000104414
2.58348e-06
-0.000104523
1.75816e-06
-0.000104229
9.42078e-07
-0.000103533
1.54345e-07
-0.000102436
-6.28806e-07
-0.000100977
-1.39844e-06
-9.91305e-05
-2.14028e-06
-9.69163e-05
-2.85543e-06
-9.43469e-05
-3.55239e-06
-9.14332e-05
-4.23217e-06
-8.81993e-05
-4.88841e-06
-8.46564e-05
-5.52744e-06
-8.08138e-05
-6.1478e-06
-7.67055e-05
-6.73855e-06
-7.23133e-05
-7.33027e-06
-6.76664e-05
-7.88445e-06
-6.27857e-05
-8.41816e-06
-5.76847e-05
-8.93778e-06
-5.23924e-05
-9.46164e-06
-4.69356e-05
-9.9834e-06
-4.13413e-05
-1.05262e-05
-3.56289e-05
-1.11053e-05
-2.98054e-05
-1.17325e-05
-2.39458e-05
-1.23755e-05
-1.79899e-05
-1.30996e-05
-1.19392e-05
-1.38645e-05
-5.78198e-06
-1.46689e-05
4.99616e-07
-1.55076e-05
6.92577e-06
-1.63736e-05
1.3513e-05
-1.72615e-05
2.02979e-05
-1.81651e-05
2.72827e-05
-1.90854e-05
3.44881e-05
-2.00186e-05
4.19294e-05
-2.09631e-05
4.96201e-05
-2.19182e-05
5.75725e-05
-2.28832e-05
6.57958e-05
-2.38582e-05
7.43027e-05
-2.48426e-05
8.30986e-05
-2.58371e-05
9.21918e-05
-2.6841e-05
0.00010159
-2.78539e-05
0.000111298
-2.88748e-05
0.000121324
-2.9903e-05
0.00013167
-3.09377e-05
0.00014234
-3.19782e-05
0.000153335
-3.30241e-05
0.000164655
-3.40746e-05
0.000176298
-3.51288e-05
0.000188262
-3.61846e-05
0.000200543
-3.72394e-05
0.000213135
-3.82888e-05
0.000226035
-3.93281e-05
0.000239236
-4.03514e-05
0.000252735
-4.1353e-05
0.000266526
-4.23277e-05
0.000280605
-4.32711e-05
0.000294967
-4.41801e-05
0.000309608
-4.50527e-05
0.000324522
-4.5888e-05
0.000339701
-4.6686e-05
0.000355139
-4.74468e-05
0.000370826
-4.81709e-05
0.00038675
-4.88585e-05
0.000402901
-4.95098e-05
0.000419265
-5.01245e-05
0.000435829
-5.07022e-05
0.000452577
-5.12422e-05
0.000469493
-5.17435e-05
0.000486561
-5.22053e-05
0.000503762
-5.26263e-05
0.000521075
-5.30051e-05
0.000538479
-5.33406e-05
0.000555947
-5.36317e-05
0.000573451
-5.38776e-05
0.000590965
-5.40782e-05
0.000608465
-5.42365e-05
0.000625944
-5.43589e-05
0.000643404
-5.44487e-05
0.00066085
-5.45003e-05
0.000678277
-5.45009e-05
0.000695671
-5.44402e-05
0.000713013
-5.43165e-05
0.000730282
-5.4135e-05
0.000747463
-5.39026e-05
0.000764539
-5.36239e-05
0.000781499
-5.33013e-05
0.000798329
-5.29358e-05
0.000815017
-5.25281e-05
0.00083155
-5.20786e-05
0.000847917
-5.15877e-05
0.000864105
-5.10552e-05
0.000880102
-5.04819e-05
0.000895897
-4.98687e-05
0.000911479
-4.92158e-05
0.000926837
-4.85241e-05
0.00094196
-4.77944e-05
0.000956838
-4.70272e-05
0.000971461
-4.62244e-05
0.000985822
-4.53872e-05
0.00099991
-4.4516e-05
0.00101372
-4.36136e-05
0.00102724
-4.26808e-05
0.00104046
-4.17202e-05
0.00105338
-4.07318e-05
0.00106599
-3.97187e-05
0.00107828
-3.86834e-05
0.00109024
-3.76245e-05
0.00110185
-3.65452e-05
0.00111309
-3.54455e-05
0.00112393
-3.43238e-05
0.00113436
-3.31787e-05
0.00114434
-3.20109e-05
0.00115386
-3.0816e-05
0.00116291
-2.95875e-05
0.00117147
-2.83209e-05
0.00117958
-2.70123e-05
0.00118723
-2.56501e-05
0.00119447
-2.42317e-05
0.00120132
-2.27521e-05
0.0012078
-2.12091e-05
0.00121391
-1.96055e-05
0.00121968
-1.79502e-05
0.00122512
-1.62583e-05
0.00123022
-1.4546e-05
0.001235
-1.28286e-05
0.00123945
-1.11136e-05
0.00124359
-9.40964e-06
0.00124743
-7.72234e-06
0.00125102
-6.05781e-06
0.00125442
-4.40795e-06
0.00125755
-2.79491e-06
0.00126041
-1.21404e-06
0.00126291
5.5782e-07
0.00126517
2.23674e-06
0.00126724
3.85994e-06
0.00126904
5.43267e-06
0.0012705
6.95033e-06
0.0012716
8.39706e-06
0.00127231
9.7556e-06
0.00127263
1.10293e-05
0.00127251
1.22279e-05
0.00127192
1.33604e-05
0.0012708
1.44298e-05
0.0012691
1.54332e-05
0.00126681
1.63661e-05
0.00126393
1.72266e-05
0.00126053
1.80207e-05
0.00125666
1.8762e-05
0.0012524
1.94696e-05
0.00124781
2.01625e-05
0.00124295
2.08548e-05
0.00123784
2.15535e-05
0.00123251
2.22588e-05
0.00122697
2.29658e-05
0.00122122
2.36674e-05
0.00121528
2.43558e-05
0.00120913
2.50237e-05
0.00120277
2.56647e-05
0.0011962
2.62736e-05
0.00118942
2.68462e-05
0.00118241
2.7379e-05
0.00117517
2.78693e-05
0.00116768
2.83149e-05
0.00115993
2.87134e-05
0.0011519
2.90626e-05
0.00114358
2.93599e-05
0.00113497
2.9603e-05
0.00112607
2.97909e-05
0.00111687
2.99239e-05
0.00110742
3.00054e-05
0.00109774
3.00451e-05
0.00108787
3.00621e-05
0.00107785
3.00832e-05
0.0010677
3.01352e-05
0.00105746
3.02384e-05
0.00104713
3.04022e-05
0.00103675
3.06245e-05
0.00102632
3.08937e-05
0.00101585
3.11899e-05
0.00100534
3.14878e-05
0.00099479
3.17598e-05
0.000984191
3.19815e-05
0.000973548
3.21344e-05
0.000962865
3.22094e-05
0.000952152
3.22055e-05
0.000941417
3.21301e-05
0.000930668
3.19956e-05
0.000919913
3.18154e-05
0.000909159
3.16026e-05
0.000898411
3.13677e-05
0.000887675
3.11191e-05
0.000876953
3.08612e-05
0.00086625
3.05987e-05
0.000855568
3.03342e-05
0.00084491
3.00703e-05
0.000834275
2.98094e-05
0.000823666
2.95535e-05
0.000813081
2.93046e-05
0.000802522
2.90642e-05
0.000791986
2.88335e-05
0.000781474
2.86134e-05
0.000770985
2.84041e-05
0.000760517
2.8206e-05
0.000750069
2.8019e-05
0.00073964
2.78429e-05
0.000729228
2.76783e-05
0.000718831
2.75238e-05
0.000708448
2.73795e-05
0.00069808
2.72441e-05
0.000687723
2.71189e-05
0.000677378
2.70028e-05
0.000667044
2.68939e-05
0.000656723
2.67919e-05
0.000646415
2.6695e-05
0.000636124
2.66029e-05
0.000625853
2.6514e-05
0.000615604
2.64276e-05
0.000605384
2.63422e-05
0.000595196
2.62564e-05
0.000585051
2.61676e-05
0.000574959
2.60728e-05
0.000564934
2.59687e-05
0.000554993
2.58542e-05
0.000545149
2.57321e-05
0.000535415
2.56057e-05
0.000525806
2.54747e-05
0.000516339
2.5337e-05
0.000507036
2.51916e-05
0.000497916
2.50402e-05
0.000489
2.48866e-05
0.000480305
2.47362e-05
0.000471847
2.45958e-05
0.000463644
2.44731e-05
0.000455721
2.43758e-05
0.00044811
2.43114e-05
0.000440853
2.42864e-05
0.000434007
2.43069e-05
0.000427639
2.43783e-05
0.000421828
2.45042e-05
0.00041666
2.46947e-05
0.000412215
2.49671e-05
0.000408581
2.53289e-05
0.000405852
2.57859e-05
0.000404108
2.63397e-05
0.000403385
2.69908e-05
0.000403699
2.77371e-05
0.000405041
2.85686e-05
0.000407362
2.94665e-05
0.000410582
3.04027e-05
0.000414587
3.13362e-05
0.000419236
3.2209e-05
0.000424352
3.2941e-05
0.000429727
3.34279e-05
0.000435122
3.35475e-05
0.000440271
3.31674e-05
0.000444855
3.21628e-05
0.00044846
3.04675e-05
0.000450898
2.79691e-05
0.000452131
2.4711e-05
0.00045218
2.09542e-05
0.000451174
1.71111e-05
0.000449319
1.367e-05
0.000446846
1.10429e-05
0.000443963
9.40734e-06
0.000440864
8.64312e-06
0.000437736
8.41058e-06
0.000434692
8.32117e-06
0.000431775
8.09218e-06
0.000429033
7.61112e-06
0.000426492
6.90251e-06
0.00042415
6.071e-06
0.000421966
5.24869e-06
0.000419858
4.54887e-06
0.000417707
4.03524e-06
0.000415379
3.71271e-06
0.000412754
3.53551e-06
0.000409771
3.43557e-06
0.000406453
3.3494e-06
0.000402835
3.23039e-06
0.000398971
3.07038e-06
0.000394938
2.89132e-06
0.000390784
2.72589e-06
0.000386531
2.60863e-06
0.000382189
2.56693e-06
0.000377744
2.61727e-06
0.000373175
2.76824e-06
0.00036847
3.02419e-06
0.000363586
3.38504e-06
0.000358488
3.85317e-06
0.000353102
4.43139e-06
0.000347374
5.13004e-06
0.000341229
5.95929e-06
0.000334629
6.93104e-06
0.00032746
8.041e-06
0.000319632
9.29244e-06
0.000311045
1.06837e-05
0.000301595
1.22063e-05
0.000291173
1.38432e-05
0.00027968
1.55695e-05
0.000267026
1.73544e-05
0.000253133
1.91648e-05
0.000237944
2.09654e-05
0.000221423
2.27191e-05
0.000203563
2.43883e-05
0.000184399
2.59386e-05
0.000163991
2.73375e-05
0.000142432
2.85509e-05
0.000119847
2.9548e-05
9.63608e-05
3.03172e-05
7.20871e-05
3.10866e-05
4.75779e-05
3.11439e-05
2.47371e-05
2.75842e-05
3.33617e-05
-5.49628e-06
1.97901e-05
5.69892e-06
-4.14316e-05
1.45934e-05
-3.04675e-05
1.85492e-05
-1.27049e-05
1.98014e-05
-4.11684e-06
2.03474e-05
-2.15367e-06
2.09365e-05
-2.16494e-06
2.15433e-05
-1.90836e-06
2.19664e-05
-1.06001e-06
2.20684e-05
1.11457e-07
2.18622e-05
1.35998e-06
2.12883e-05
2.61664e-06
2.03615e-05
3.85975e-06
1.90856e-05
5.09124e-06
1.74641e-05
6.29814e-06
1.55075e-05
7.4627e-06
1.3232e-05
8.56322e-06
1.06572e-05
9.56021e-06
7.78842e-06
1.04952e-05
4.69852e-06
1.13029e-05
1.40707e-06
1.19697e-05
-2.06634e-06
1.25328e-05
-5.67215e-06
1.29311e-05
-9.37051e-06
1.31957e-05
-1.31019e-05
1.33114e-05
-1.68439e-05
1.32681e-05
-2.05529e-05
1.30798e-05
-2.42078e-05
1.27505e-05
-2.77417e-05
1.22761e-05
-3.11308e-05
1.16954e-05
-3.43475e-05
1.09965e-05
-3.73623e-05
1.01932e-05
-4.01406e-05
9.28943e-06
-4.26877e-05
8.33684e-06
-4.49678e-05
7.30667e-06
-4.69699e-05
6.23251e-06
-4.86866e-05
5.12777e-06
-5.01094e-05
4.00629e-06
-5.12303e-05
2.8791e-06
-5.20379e-05
1.74966e-06
-5.25287e-05
6.45141e-07
-5.26924e-05
-4.65114e-07
-5.25343e-05
-1.55656e-06
-5.20626e-05
-2.61194e-06
-5.12833e-05
-3.63482e-06
-5.02049e-05
-4.63074e-06
-4.88398e-05
-5.59729e-06
-4.71888e-05
-6.53936e-06
-4.5263e-05
-7.45329e-06
-4.30735e-05
-8.33728e-06
-4.06223e-05
-9.18975e-06
-3.79155e-05
-1.00371e-05
-3.4958e-05
-1.08419e-05
-3.17443e-05
-1.16318e-05
-2.827e-05
-1.24122e-05
-2.45525e-05
-1.31791e-05
-2.0569e-05
-1.39669e-05
-1.63233e-05
-1.47718e-05
-1.18255e-05
-1.56031e-05
-7.07599e-06
-1.64819e-05
-2.05832e-06
-1.73932e-05
3.1924e-06
-1.83503e-05
8.67815e-06
-1.93502e-05
1.43989e-05
-2.03896e-05
2.03557e-05
-2.14644e-05
2.65524e-05
-2.25704e-05
3.2995e-05
-2.37041e-05
3.96924e-05
-2.48625e-05
4.6651e-05
-2.6044e-05
5.38794e-05
-2.72469e-05
6.13864e-05
-2.84701e-05
6.91808e-05
-2.97126e-05
7.72712e-05
-3.09737e-05
8.56656e-05
-3.22525e-05
9.43714e-05
-3.35484e-05
0.000103395
-3.48605e-05
0.000112742
-3.61879e-05
0.000122417
-3.75291e-05
0.000132425
-3.88829e-05
0.00014277
-4.02475e-05
0.000153453
-4.16214e-05
0.000164478
-4.30026e-05
0.000175843
-4.43892e-05
0.000187547
-4.57792e-05
0.000199589
-4.717e-05
0.000211963
-4.85586e-05
0.000224664
-4.99412e-05
0.000237689
-5.13138e-05
0.000251033
-5.26716e-05
0.000264691
-5.40094e-05
0.00027866
-5.53224e-05
0.000292938
-5.66057e-05
0.000307522
-5.7855e-05
0.000322409
-5.90668e-05
0.000337594
-6.02381e-05
0.000353073
-6.13667e-05
0.000368838
-6.24507e-05
0.00038488
-6.34888e-05
0.000401189
-6.44796e-05
0.000417752
-6.5422e-05
0.000434557
-6.63149e-05
0.00045159
-6.71569e-05
0.000468834
-6.79468e-05
0.000486275
-6.86834e-05
0.000503897
-6.93654e-05
0.000521683
-6.99916e-05
0.000539618
-7.05609e-05
0.000557686
-7.10726e-05
0.000575871
-7.15261e-05
0.000594159
-7.19196e-05
0.000612533
-7.22512e-05
0.000630973
-7.25188e-05
0.000649458
-7.27211e-05
0.000667957
-7.2858e-05
0.000686438
-7.29298e-05
0.000704873
-7.29351e-05
0.000723246
-7.28735e-05
0.00074155
-7.27444e-05
0.000759781
-7.25483e-05
0.000777933
-7.22864e-05
0.00079599
-7.19595e-05
0.000813935
-7.15695e-05
0.000831751
-7.11172e-05
0.000849419
-7.06037e-05
0.000866921
-7.00297e-05
0.000884238
-6.93959e-05
0.000901354
-6.87035e-05
0.000918253
-6.79546e-05
0.00093492
-6.71488e-05
0.000951339
-6.62873e-05
0.000967495
-6.53719e-05
0.000983374
-6.44036e-05
0.000998963
-6.33833e-05
0.00101425
-6.23126e-05
0.00102922
-6.1194e-05
0.00104386
-6.0026e-05
0.00105815
-5.88125e-05
0.0010721
-5.75571e-05
0.00108567
-5.62583e-05
0.00109887
-5.49203e-05
0.00111169
-5.3544e-05
0.0011241
-5.21322e-05
0.0011361
-5.0686e-05
0.00114769
-4.92103e-05
0.00115884
-4.76947e-05
0.00116954
-4.61513e-05
0.0011798
-4.45824e-05
0.0011896
-4.29771e-05
0.00119892
-4.13283e-05
0.00120775
-3.9649e-05
0.00121609
-3.7922e-05
0.00122391
-3.61496e-05