/*--------------------------------*- C++ -*----------------------------------*\
| =========                 |                                                 |
| \\      /  F ield         | OpenFOAM: The Open Source CFD Toolbox           |
|  \\    /   O peration     | Version:  v2006                                 |
|   \\  /    A nd           | Website:  www.openfoam.com                      |
|    \\/     M anipulation  |                                                 |
\*---------------------------------------------------------------------------*/
FoamFile
{
    version     2.0;
    format      ascii;
    class       volScalarField;
    location    "12.1";
    object      p;
}
// * * * * * * * * * * * * * * * * * * * * * * * * * * * * * * * * * * * * * //

dimensions      [1 -1 -2 0 0 0 0];


internalField   nonuniform List<scalar> 
52500
(
27536.5
27537
27538
27539.5
27541.5
27544
27547.1
27550.6
27554.7
27559.2
27564.3
27569.8
27575.8
27582.4
27589.4
27597
27605
27613.5
27622.4
27631.9
27641.8
27652.2
27663.1
27674.4
27686.2
27698.4
27711.1
27724.2
27737.7
27751.7
27766.2
27781
27796.3
27811.9
27827.9
27844.3
27861.2
27878.4
27896
27914
27932.3
27951
27970.1
27989.5
28009.2
28029.2
28049.6
28070.3
28091.3
28112.5
28134.1
28155.9
28178
28200.4
28223
28245.9
28268.9
28292.3
28315.8
28339.5
28363.4
28387.6
28411.9
28436.4
28461.1
28485.9
28510.8
28535.9
28561.2
28586.5
28612
28637.5
28663.2
28689
28714.8
28740.8
28766.8
28792.8
28818.9
28845
28871.2
28897.4
28923.6
28949.8
28976.1
29002.3
29028.5
29054.7
29080.8
29106.9
29133
29159
29185
29210.9
29236.7
29262.5
29288.1
29313.7
29339.2
29364.6
29389.8
29414.9
29440
29464.8
29489.6
29514.2
29538.6
29562.9
29587.1
29611
29634.8
29658.5
29681.9
29705.2
29728.3
29751.2
29773.9
29796.4
29818.6
29840.7
29862.6
29884.3
29905.7
29926.9
29947.9
29968.7
29989.3
30009.6
30029.7
30049.5
30069.1
30088.5
30107.7
30126.6
30145.2
30163.6
30181.8
30199.7
30217.4
30234.9
30252.1
30269
30285.7
30302.2
30318.4
30334.4
30350.1
30365.6
30380.8
30395.8
30410.6
30425.1
30439.4
30453.4
30467.2
30480.8
30494.1
30507.2
30520.1
30532.7
30545.2
30557.3
30569.3
30581
30592.5
30603.8
30614.9
30625.8
30636.4
30646.8
30657.1
30667.1
30677
30686.6
30696
30705.3
30714.4
30723.2
30732
30740.5
30748.8
30757
30765
30772.9
30780.6
30788.1
30795.5
30802.8
30809.9
30816.8
30823.7
30830.3
30836.9
30843.3
30849.6
30855.8
30861.9
30867.9
30873.7
30879.5
30885.2
30890.7
30896.2
30901.6
30907
30912.2
30917.4
30922.5
30927.6
30932.6
30937.5
30942.4
30947.2
30952
30956.8
30961.5
30966.2
30970.9
30975.5
30980.1
30984.8
30989.4
30993.9
30998.5
31003.1
31007.7
31012.3
31016.9
31021.6
31026.2
31030.9
31035.5
31040.2
31045
31049.7
31054.6
31059.4
31064.3
31069.2
31074.2
31079.2
31084.2
31089.3
31094.5
31099.7
31105
31110.3
31115.7
31121.1
31126.6
31132.2
31137.8
31143.5
31149.3
31155.1
31161
31166.9
31173
31179
31185.2
31191.4
31197.7
31204
31210.4
31216.8
31223.4
31229.9
31236.6
31243.3
31250
31256.8
31263.7
31270.6
31277.5
31284.5
31291.5
31298.6
31305.7
31312.8
31320
31327.2
31334.4
31341.7
31348.9
31356.2
31363.5
31370.8
31378
31385.3
31392.6
31399.8
31407
31414.3
31421.5
31428.6
31435.8
31443
31450.1
31457.2
31464.2
31471.3
31478.2
31485.2
31492
31498.8
31505.5
31512.1
31518.7
31525.2
31531.5
31537.8
31544
31550.1
31556.1
31562
31567.8
31573.5
31579
31584.4
31589.7
31594.9
31599.9
31604.8
31609.6
31614.2
31618.6
31622.9
31627.1
31631.1
31634.9
31638.6
31642.1
31645.4
31648.6
31651.5
31654.4
31657
31659.5
31661.7
31663.8
31665.8
31667.5
31669
31670.4
31671.5
31672.5
31673.3
31673.9
31674.3
31674.5
27077.3
27077.8
27078.8
27080.3
27082.3
27084.9
27087.9
27091.4
27095.5
27100
27105.1
27110.6
27116.7
27123.2
27130.3
27137.8
27145.9
27154.4
27163.3
27172.8
27182.7
27193.1
27204
27215.3
27227.1
27239.3
27252
27265.1
27278.7
27292.7
27307.1
27321.9
27337.2
27352.9
27369
27385.5
27402.3
27419.6
27437.2
27455.2
27473.6
27492.3
27511.3
27530.8
27550.5
27570.6
27591
27611.7
27632.7
27654
27675.6
27697.4
27719.5
27741.9
27764.5
27787.4
27810.5
27833.9
27857.4
27881.2
27905.2
27929.3
27953.7
27978.2
28002.8
28027.7
28052.7
28077.8
28103
28128.4
28153.9
28179.5
28205.2
28230.9
28256.8
28282.7
28308.9
28334.9
28361
28387.1
28413.3
28439.5
28465.8
28492
28518.3
28544.5
28570.7
28596.9
28623.1
28649.2
28675.3
28701.4
28727.4
28753.3
28779.1
28804.9
28830.6
28856.2
28881.7
28907
28932.3
28957.5
28982.5
29007.4
29032.1
29056.8
29081.2
29105.5
29129.7
29153.7
29177.5
29201.1
29224.6
29247.9
29271
29293.9
29316.6
29339.1
29361.4
29383.5
29405.4
29427
29448.5
29469.7
29490.7
29511.5
29532.1
29552.4
29572.5
29592.3
29612
29631.3
29650.5
29669.4
29688.1
29706.5
29724.7
29742.6
29760.3
29777.7
29794.9
29811.9
29828.6
29845
29861.3
29877.2
29893
29908.4
29923.7
29938.7
29953.4
29967.9
29982.2
29996.2
30010
30023.6
30036.9
30050
30062.8
30075.4
30087.8
30100
30112
30123.7
30135.2
30146.5
30157.5
30168.4
30179
30189.5
30199.8
30209.8
30219.7
30229.3
30238.8
30248
30257.1
30266
30274.7
30283.2
30291.5
30299.7
30307.7
30315.6
30323.2
30330.8
30338.1
30345.4
30352.5
30359.4
30366.2
30372.9
30379.4
30385.8
30392.1
30398.3
30404.4
30410.4
30416.2
30422
30427.6
30433.2
30438.7
30444.1
30449.4
30454.6
30459.8
30464.9
30469.9
30474.9
30479.8
30484.7
30489.5
30494.3
30499.1
30503.8
30508.5
30513.1
30517.8
30522.4
30527
30531.6
30536.2
30540.7
30545.3
30549.9
30554.5
30559.1
30563.7
30568.3
30573
30577.7
30582.4
30587.1
30591.9
30596.7
30601.5
30606.4
30611.3
30616.2
30621.2
30626.3
30631.4
30636.6
30641.8
30647
30652.4
30657.7
30663.2
30668.7
30674.2
30679.9
30685.6
30691.3
30697.1
30703
30709
30715
30721.1
30727.2
30733.4
30739.7
30746
30752.4
30758.9
30765.4
30772
30778.6
30785.3
30792
30798.8
30805.7
30812.6
30819.6
30826.6
30833.6
30840.7
30847.8
30854.9
30862.1
30869.3
30876.6
30883.8
30891.1
30898.4
30905.6
30912.9
30920.2
30927.5
30934.8
30942
30949.3
30956.5
30963.7
30970.9
30978.1
30985.2
30992.3
30999.5
31006.6
31013.6
31020.6
31027.5
31034.4
31041.2
31047.9
31054.5
31061.1
31067.6
31073.9
31080.3
31086.5
31092.6
31098.6
31104.5
31110.3
31116
31121.5
31127
31132.3
31137.5
31142.5
31147.4
31152.2
31156.8
31161.2
31165.5
31169.7
31173.7
31177.5
31181.2
31184.7
31188
31191.2
31194.2
31197
31199.7
31202.1
31204.4
31206.5
31208.5
31210.2
31211.7
31213.1
31214.2
31215.2
31216
31216.6
31217
31217.2
26616.8
26617.3
26618.3
26619.8
26621.8
26624.4
26627.4
26631
26635
26639.6
26644.7
26650.3
26656.4
26662.9
26669.9
26677.5
26685.5
26694
26703
26712.5
26722.4
26732.8
26743.7
26755.1
26766.9
26779.1
26791.8
26805
26818.6
26832.6
26847
26861.9
26877.2
26892.9
26909
26925.6
26942.5
26959.8
26977.4
26995.5
27013.9
27032.7
27051.8
27071.2
27091
27111.1
27131.5
27152.3
27173.3
27194.7
27216.3
27238.2
27260.3
27282.8
27305.5
27328.4
27351.5
27374.9
27398.5
27422.3
27446.3
27470.5
27494.9
27519.5
27544.2
27569.1
27594.1
27619.3
27644.6
27670
27695.5
27721.1
27746.9
27772.7
27798.6
27824.6
27850.7
27876.8
27902.9
27929.1
27955.4
27981.6
28007.9
28034.2
28060.5
28086.7
28113
28139.2
28165.5
28191.6
28217.8
28243.8
28269.9
28295.8
28321.7
28347.5
28373.2
28398.9
28424.4
28449.8
28475.1
28500.3
28525.3
28550.3
28575.1
28599.7
28624.2
28648.5
28672.7
28696.7
28720.6
28744.2
28767.7
28791
28814.2
28837.1
28859.8
28882.3
28904.6
28926.8
28948.7
28970.3
28991.8
29013.1
29034.1
29054.9
29075.4
29095.8
29115.9
29135.8
29155.4
29174.8
29193.9
29212.9
29231.5
29250
29268.1
29286.1
29303.8
29321.2
29338.4
29355.4
29372.1
29388.6
29404.8
29420.7
29436.5
29451.9
29467.2
29482.2
29496.9
29511.4
29525.7
29539.7
29553.5
29567.1
29580.4
29593.5
29606.3
29618.9
29631.3
29643.5
29655.4
29667.1
29678.6
29689.9
29701
29711.9
29722.5
29732.9
29743.1
29753.1
29762.9
29772.5
29781.9
29791.2
29800.2
29809.1
29817.8
29826.3
29834.6
29842.7
29850.7
29858.6
29866.2
29873.7
29881.1
29888.3
29895.4
29902.3
29909.1
29915.7
29922.3
29928.7
29934.9
29941.1
29947.1
29953.1
29958.9
29964.7
29970.3
29975.8
29981.3
29986.7
29992
29997.2
30002.3
30007.4
30012.4
30017.4
30022.3
30027.1
30031.9
30036.7
30041.4
30046.1
30050.8
30055.4
30060.1
30064.6
30069.2
30073.8
30078.4
30082.9
30087.5
30092.1
30096.6
30101.2
30105.8
30110.4
30115.1
30119.7
30124.4
30129.1
30133.9
30138.7
30143.5
30148.3
30153.2
30158.2
30163.2
30168.2
30173.3
30178.5
30183.7
30188.9
30194.2
30199.6
30205
30210.5
30216.1
30221.7
30227.4
30233.2
30239
30244.9
30250.8
30256.8
30262.9
30269.1
30275.3
30281.5
30287.9
30294.3
30300.7
30307.3
30313.9
30320.5
30327.2
30334
30340.8
30347.6
30354.5
30361.5
30368.5
30375.5
30382.6
30389.8
30396.9
30404.1
30411.3
30418.6
30425.8
30433.1
30440.4
30447.7
30455
30462.3
30469.6
30477
30484.3
30491.6
30498.8
30506.1
30513.3
30520.6
30527.8
30534.9
30542.1
30549.2
30556.2
30563.2
30570.1
30577
30583.8
30590.5
30597.2
30603.8
30610.3
30616.7
30623.1
30629.3
30635.4
30641.5
30647.4
30653.2
30658.9
30664.4
30669.9
30675.2
30680.4
30685.4
30690.4
30695.1
30699.8
30704.2
30708.6
30712.7
30716.7
30720.6
30724.3
30727.8
30731.1
30734.3
30737.3
30740.2
30742.8
30745.3
30747.6
30749.7
30751.6
30753.4
30754.9
30756.3
30757.5
30758.4
30759.2
30759.8
30760.2
30760.4
26154.9
26155.5
26156.4
26158
26160
26162.6
26165.6
26169.2
26173.3
26177.9
26182.9
26188.5
26194.6
26201.2
26208.2
26215.8
26223.8
26232.4
26241.4
26250.9
26260.9
26271.3
26282.2
26293.6
26305.4
26317.7
26330.5
26343.7
26357.3
26371.4
26385.9
26400.8
26416.1
26431.9
26448.1
26464.6
26481.6
26498.9
26516.7
26534.8
26553.2
26572
26591.2
26610.7
26630.6
26650.8
26671.3
26692.1
26713.2
26734.6
26756.3
26778.2
26800.5
26823
26845.7
26868.7
26891.9
26915.4
26939
26962.9
26987
27011.2
27035.7
27060.3
27085.1
27110.1
27135.2
27160.4
27185.8
27211.2
27236.8
27262.5
27288.4
27314.2
27340.2
27366.3
27392.4
27418.6
27444.8
27471
27497.3
27523.7
27550
27576.3
27602.7
27629
27655.3
27681.6
27707.9
27734.1
27760.3
27786.5
27812.6
27838.6
27864.5
27890.4
27916.1
27941.8
27967.4
27992.9
28018.2
28043.4
28068.5
28093.5
28118.3
28143
28167.6
28192
28216.2
28240.2
28264.1
28287.8
28311.3
28334.7
28357.8
28380.8
28403.5
28426.1
28448.4
28470.6
28492.5
28514.2
28535.7
28557
28578
28598.8
28619.4
28639.8
28659.9
28679.8
28699.4
28718.8
28738
28756.9
28775.6
28794.1
28812.3
28830.2
28847.9
28865.3
28882.6
28899.5
28916.2
28932.7
28948.9
28964.9
28980.6
28996.1
29011.3
29026.3
29041
29055.5
29069.8
29083.8
29097.6
29111.1
29124.4
29137.5
29150.3
29162.9
29175.3
29187.4
29199.3
29211
29222.5
29233.8
29244.8
29255.7
29266.3
29276.6
29286.8
29296.9
29306.7
29316.3
29325.7
29334.9
29343.9
29352.7
29361.4
29369.9
29378.2
29386.3
29394.3
29402.1
29409.7
29417.2
29424.5
29431.7
29438.7
29445.6
29452.4
29459
29465.5
29471.8
29478.1
29484.2
29490.2
29496.1
29501.9
29507.6
29513.2
29518.7
29524.2
29529.5
29534.7
29539.9
29545
29550.1
29555.1
29560
29564.9
29569.7
29574.5
29579.2
29583.9
29588.6
29593.2
29597.8
29602.4
29606.9
29611.5
29616
29620.6
29625.1
29629.6
29634.2
29638.7
29643.3
29647.9
29652.4
29657.1
29661.7
29666.4
29671.1
29675.8
29680.5
29685.3
29690.2
29695.1
29700
29705
29710
29715.1
29720.2
29725.4
29730.6
29736
29741.3
29746.7
29752.2
29757.8
29763.4
29769.1
29774.8
29780.6
29786.5
29792.5
29798.5
29804.6
29810.7
29816.9
29823.2
29829.6
29836
29842.4
29849
29855.6
29862.2
29868.9
29875.7
29882.5
29889.4
29896.3
29903.3
29910.3
29917.4
29924.5
29931.7
29938.8
29946
29953.3
29960.6
29967.9
29975.2
29982.5
29989.8
29997.2
30004.5
30011.9
30019.2
30026.6
30033.9
30041.2
30048.5
30055.8
30063
30070.3
30077.5
30084.6
30091.7
30098.8
30105.8
30112.8
30119.7
30126.6
30133.3
30140
30146.7
30153.2
30159.7
30166
30172.3
30178.4
30184.5
30190.5
30196.3
30202
30207.6
30213.1
30218.4
30223.7
30228.7
30233.7
30238.5
30243.1
30247.6
30252
30256.2
30260.2
30264.1
30267.8
30271.3
30274.7
30277.9
30280.9
30283.7
30286.4
30288.9
30291.2
30293.3
30295.3
30297
30298.6
30299.9
30301.1
30302.1
30302.9
30303.5
30303.9
30304.1
25691.7
25692.2
25693.2
25694.7
25696.8
25699.4
25702.4
25706
25710.1
25714.7
25719.8
25725.4
25731.5
25738.1
25745.2
25752.8
25760.9
25769.4
25778.5
25788
25798
25808.5
25819.5
25830.9
25842.8
25855.1
25868
25881.2
25894.9
25909
25923.6
25938.6
25954
25969.8
25986
26002.6
26019.7
26037.1
26054.9
26073.1
26091.6
26110.5
26129.8
26149.4
26169.3
26189.6
26210.2
26231.1
26252.2
26273.7
26295.5
26317.6
26339.9
26362.5
26385.3
26408.4
26431.7
26455.2
26479
26503
26527.1
26551.4
26576.1
26600.8
26625.7
26650.7
26675.9
26701.2
26726.6
26752.2
26777.9
26803.7
26829.6
26855.6
26881.6
26907.8
26934
26960.2
26986.5
27012.9
27039.2
27065.6
27092.1
27118.5
27144.9
27171.3
27197.7
27224.1
27250.5
27276.8
27303
27329.3
27355.4
27381.5
27407.5
27433.4
27459.3
27485
27510.7
27536.2
27561.6
27586.9
27612.1
27637.1
27662
27686.8
27711.3
27735.8
27760.1
27784.2
27808.1
27831.9
27855.4
27878.8
27902
27925
27947.8
27970.4
27992.8
28015
28036.9
28058.7
28080.2
28101.5
28122.6
28143.4
28164
28184.4
28204.5
28224.4
28244.1
28263.5
28282.7
28301.7
28320.4
28338.8
28357
28375
28392.7
28410.1
28427.3
28444.3
28461
28477.5
28493.7
28509.7
28525.4
28540.9
28556.1
28571.1
28585.8
28600.3
28614.5
28628.5
28642.3
28655.8
28669.1
28682.2
28695
28707.6
28719.9
28732
28743.9
28755.6
28767.1
28778.3
28789.3
28800.1
28810.8
28821.2
28831.3
28841.2
28851
28860.5
28869.9
28879.1
28888.1
28896.9
28905.5
28913.9
28922.2
28930.3
28938.2
28946
28953.6
28961
28968.3
28975.4
28982.4
28989.3
28996
29002.5
29009
29015.3
29021.5
29027.6
29033.6
29039.4
29045.2
29050.8
29056.4
29061.8
29067.2
29072.5
29077.7
29082.9
29087.9
29092.9
29097.9
29102.8
29107.6
29112.4
29117.1
29121.8
29126.4
29131.1
29135.6
29140.2
29144.7
29149.3
29153.8
29158.3
29162.8
29167.3
29171.8
29176.3
29180.8
29185.3
29189.8
29194.4
29199
29203.6
29208.2
29212.9
29217.6
29222.3
29227.1
29231.9
29236.8
29241.7
29246.6
29251.6
29256.7
29261.8
29267
29272.2
29277.5
29282.9
29288.3
29293.7
29299.3
29304.9
29310.6
29316.3
29322.1
29328
29334
29340
29346.1
29352.2
29358.4
29364.7
29371.1
29377.5
29384
29390.5
29397.1
29403.8
29410.5
29417.3
29424.2
29431
29438
29445
29452
29459.1
29466.3
29473.4
29480.7
29487.9
29495.2
29502.5
29509.8
29517.2
29524.5
29531.9
29539.3
29546.7
29554.1
29561.5
29568.8
29576.2
29583.6
29590.9
29598.3
29605.6
29612.9
29620.1
29627.3
29634.5
29641.6
29648.7
29655.7
29662.7
29669.5
29676.4
29683.1
29689.8
29696.4
29702.9
29709.3
29715.6
29721.8
29727.9
29733.9
29739.8
29745.5
29751.2
29756.7
29762.1
29767.3
29772.4
29777.4
29782.3
29786.9
29791.5
29795.8
29800.1
29804.1
29808
29811.8
29815.3
29818.7
29821.9
29825
29827.8
29830.5
29833
29835.3
29837.5
29839.4
29841.2
29842.7
29844.1
29845.3
29846.3
29847.1
29847.7
29848.1
29848.3
25227.1
25227.6
25228.6
25230.1
25232.2
25234.8
25237.9
25241.5
25245.6
25250.2
25255.3
25260.9
25267.1
25273.7
25280.8
25288.5
25296.6
25305.2
25314.3
25323.9
25334
25344.5
25355.5
25367
25378.9
25391.4
25404.2
25417.5
25431.3
25445.5
25460.1
25475.2
25490.7
25506.6
25522.9
25539.6
25556.7
25574.2
25592.1
25610.4
25629.1
25648.1
25667.4
25687.1
25707.2
25727.5
25748.2
25769.2
25790.5
25812.1
25834
25856.2
25878.6
25901.3
25924.3
25947.5
25970.9
25994.5
26018.4
26042.5
26066.8
26091.2
26115.9
26140.8
26165.8
26190.9
26216.2
26241.6
26267.2
26292.9
26318.7
26344.6
26370.6
26396.6
26422.8
26449.1
26475.4
26501.7
26528.1
26554.6
26581.1
26607.6
26634.1
26660.6
26687.1
26713.7
26740.2
26766.6
26793.1
26819.5
26845.9
26872.2
26898.4
26924.6
26950.7
26976.7
27002.7
27028.5
27054.2
27079.8
27105.3
27130.7
27156
27181.1
27206
27230.9
27255.5
27280
27304.4
27328.5
27352.5
27376.4
27400
27423.4
27446.7
27469.7
27492.6
27515.2
27537.7
27559.9
27581.9
27603.7
27625.2
27646.6
27667.7
27688.6
27709.2
27729.6
27749.8
27769.7
27789.4
27808.9
27828.1
27847
27865.7
27884.2
27902.4
27920.4
27938.1
27955.6
27972.8
27989.7
28006.5
28022.9
28039.1
28055.1
28070.8
28086.3
28101.5
28116.5
28131.2
28145.7
28159.9
28173.9
28187.6
28201.1
28214.4
28227.4
28240.2
28252.8
28265.1
28277.2
28289.1
28300.7
28312.2
28323.4
28334.3
28345.1
28355.6
28365.8
28376.1
28386
28395.8
28405.3
28414.6
28423.8
28432.7
28441.5
28450
28458.4
28466.7
28474.7
28482.6
28490.3
28497.8
28505.2
28512.5
28519.5
28526.5
28533.3
28539.9
28546.5
28552.8
28559.1
28565.3
28571.3
28577.2
28583
28588.7
28594.3
28599.8
28605.2
28610.5
28615.8
28620.9
28626
28631
28635.9
28640.8
28645.7
28650.4
28655.1
28659.8
28664.5
28669.1
28673.6
28678.2
28682.7
28687.2
28691.6
28696.1
28700.5
28705
28709.4
28713.9
28718.3
28722.8
28727.3
28731.8
28736.3
28740.8
28745.4
28750
28754.6
28759.3
28764
28768.7
28773.5
28778.3
28783.2
28788.1
28793.1
28798.2
28803.2
28808.4
28813.6
28818.9
28824.2
28829.6
28835.1
28840.6
28846.2
28851.9
28857.6
28863.4
28869.3
28875.3
28881.3
28887.4
28893.5
28899.7
28906
28912.4
28918.8
28925.3
28931.9
28938.5
28945.2
28951.9
28958.8
28965.6
28972.6
28979.5
28986.6
28993.6
29000.8
29007.9
29015.1
29022.4
29029.7
29037
29044.3
29051.7
29059.1
29066.5
29073.9
29081.4
29088.8
29096.3
29103.7
29111.2
29118.6
29126
29133.4
29140.8
29148.2
29155.5
29162.8
29170.1
29177.3
29184.5
29191.6
29198.7
29205.7
29212.7
29219.6
29226.4
29233.1
29239.7
29246.3
29252.8
29259.1
29265.4
29271.5
29277.6
29283.5
29289.3
29295
29300.6
29306
29311.3
29316.5
29321.5
29326.4
29331.1
29335.7
29340.1
29344.4
29348.5
29352.4
29356.2
29359.8
29363.2
29366.4
29369.5
29372.4
29375.1
29377.6
29380
29382.1
29384.1
29385.9
29387.4
29388.8
29390
29391
29391.8
29392.4
29392.8
29393
24761.1
24761.6
24762.6
24764.2
24766.2
24768.8
24771.9
24775.5
24779.7
24784.3
24789.5
24795.1
24801.3
24808
24815.2
24822.8
24831
24839.7
24848.8
24858.5
24868.6
24879.2
24890.3
24901.8
24913.9
24926.3
24939.3
24952.7
24966.5
24980.8
24995.5
25010.7
25026.3
25042.3
25058.7
25075.5
25092.7
25110.4
25128.4
25146.8
25165.5
25184.7
25204.1
25224
25244.1
25264.6
25285.5
25306.6
25328
25349.8
25371.8
25394.1
25416.7
25439.5
25462.6
25485.9
25509.5
25533.3
25557.3
25581.5
25605.9
25630.5
25655.3
25680.3
25705.4
25730.7
25756.1
25781.7
25807.4
25833.2
25859.1
25885.2
25911.3
25937.5
25963.8
25990.2
26016.6
26043.1
26069.6
26096.2
26122.8
26149.4
26176.1
26202.7
26229.4
26256
26282.7
26309.3
26335.8
26362.3
26388.8
26415.2
26441.6
26467.9
26494.1
26520.2
26546.3
26572.2
26598
26623.8
26649.4
26674.8
26700.2
26725.4
26750.4
26775.3
26800.1
26824.7
26849.1
26873.4
26897.4
26921.3
26945
26968.6
26991.9
27015
27037.9
27060.6
27083.1
27105.4
27127.4
27149.3
27170.9
27192.3
27213.4
27234.3
27255
27275.5
27295.7
27315.6
27335.3
27354.8
27374
27393
27411.8
27430.2
27448.5
27466.4
27484.2
27501.7
27518.9
27535.8
27552.6
27569
27585.2
27601.2
27616.9
27632.4
27647.6
27662.5
27677.3
27691.7
27705.9
27719.9
27733.6
27747.1
27760.4
27773.4
27786.1
27798.7
27811
27823
27834.9
27846.5
27857.9
27869
27880
27890.7
27901.3
27911.6
27921.6
27931.5
27941.2
27950.6
27959.9
27969
27977.9
27986.6
27995.1
28003.4
28011.6
28019.6
28027.4
28035
28042.5
28049.9
28057
28064.1
28070.9
28077.7
28084.2
28090.7
28097
28103.2
28109.3
28115.3
28121.1
28126.8
28132.5
28138
28143.4
28148.8
28154
28159.2
28164.3
28169.3
28174.2
28179.1
28183.9
28188.7
28193.4
28198
28202.7
28207.2
28211.8
28216.3
28220.7
28225.2
28229.6
28234
28238.4
28242.8
28247.2
28251.6
28256
28260.4
28264.8
28269.2
28273.7
28278.1
28282.6
28287.1
28291.7
28296.3
28300.9
28305.5
28310.2
28315
28319.8
28324.6
28329.5
28334.5
28339.5
28344.5
28349.7
28354.8
28360.1
28365.4
28370.8
28376.2
28381.8
28387.3
28393
28398.7
28404.5
28410.4
28416.4
28422.4
28428.5
28434.6
28440.9
28447.2
28453.5
28460
28466.5
28473.1
28479.7
28486.4
28493.2
28500.1
28506.9
28513.9
28520.9
28528
28535.1
28542.3
28549.5
28556.7
28564
28571.4
28578.7
28586.1
28593.6
28601
28608.5
28616
28623.5
28631
28638.5
28646
28653.5
28661
28668.5
28676
28683.4
28690.9
28698.3
28705.7
28713
28720.3
28727.6
28734.8
28741.9
28749
28756
28763
28769.8
28776.6
28783.4
28790
28796.5
28802.9
28809.3
28815.5
28821.6
28827.6
28833.5
28839.2
28844.9
28850.4
28855.7
28860.9
28866
28871
28875.7
28880.4
28884.8
28889.1
28893.3
28897.3
28901.1
28904.7
28908.2
28911.4
28914.5
28917.5
28920.2
28922.8
28925.1
28927.3
28929.3
28931.1
28932.7
28934.1
28935.3
28936.3
28937.1
28937.7
28938.1
28938.3
24293.7
24294.2
24295.2
24296.8
24298.9
24301.5
24304.6
24308.3
24312.4
24317.1
24322.3
24328
24334.2
24340.9
24348.2
24355.9
24364.1
24372.8
24382.1
24391.8
24402
24412.6
24423.8
24435.4
24447.5
24460.1
24473.1
24486.6
24500.6
24514.9
24529.8
24545
24560.7
24576.9
24593.4
24610.3
24627.7
24645.5
24663.6
24682.1
24701
24720.3
24739.9
24759.9
24780.2
24800.9
24821.9
24843.1
24864.7
24886.6
24908.8
24931.3
24954
24977
25000.3
25023.7
25047.5
25071.4
25095.6
25120
25144.5
25169.3
25194.3
25219.4
25244.7
25270.1
25295.7
25321.4
25347.3
25373.2
25399.3
25425.5
25451.8
25478.2
25504.6
25531.1
25557.7
25584.4
25611
25637.8
25664.5
25691.3
25718.1
25744.9
25771.7
25798.4
25825.2
25851.9
25878.6
25905.3
25931.9
25958.5
25985
26011.4
26037.7
26064
26090.1
26116.2
26142.1
26168
26193.7
26219.3
26244.7
26270.1
26295.2
26320.2
26345.1
26369.8
26394.3
26418.6
26442.8
26466.8
26490.6
26514.2
26537.6
26560.8
26583.7
26606.5
26629.1
26651.4
26673.5
26695.4
26717.1
26738.5
26759.7
26780.7
26801.4
26821.9
26842.2
26862.2
26881.9
26901.4
26920.7
26939.7
26958.4
26976.9
26995.2
27013.2
27030.9
27048.4
27065.6
27082.6
27099.3
27115.8
27132
27148
27163.7
27179.1
27194.3
27209.3
27224
27238.4
27252.6
27266.6
27280.3
27293.7
27306.9
27319.9
27332.7
27345.2
27357.4
27369.4
27381.2
27392.8
27404.2
27415.3
27426.2
27436.8
27447.3
27457.5
27467.6
27477.4
27487
27496.5
27505.7
27514.7
27523.5
27532.2
27540.6
27548.9
27557
27564.9
27572.6
27580.2
27587.6
27594.9
27602
27608.9
27615.7
27622.4
27628.9
27635.3
27641.6
27647.7
27653.7
27659.6
27665.3
27671
27676.5
27682
27687.3
27692.6
27697.8
27702.8
27707.8
27712.8
27717.6
27722.4
27727.2
27731.8
27736.5
27741
27745.6
27750.1
27754.5
27759
27763.4
27767.7
27772.1
27776.4
27780.8
27785.1
27789.4
27793.7
27798
27802.4
27806.7
27811.1
27815.5
27819.9
27824.3
27828.8
27833.3
27837.8
27842.4
27847
27851.6
27856.3
27861.1
27865.9
27870.7
27875.6
27880.6
27885.6
27890.7
27895.9
27901.1
27906.4
27911.8
27917.2
27922.7
27928.3
27933.9
27939.7
27945.4
27951.3
27957.3
27963.3
27969.4
27975.5
27981.8
27988.1
27994.5
28001
28007.5
28014.1
28020.8
28027.5
28034.3
28041.2
28048.1
28055.1
28062.2
28069.3
28076.4
28083.6
28090.9
28098.2
28105.6
28113
28120.4
28127.8
28135.3
28142.8
28150.4
28157.9
28165.5
28173.1
28180.7
28188.3
28195.9
28203.4
28211
28218.6
28226.1
28233.6
28241.1
28248.6
28256
28263.4
28270.7
28278
28285.3
28292.4
28299.5
28306.6
28313.5
28320.4
28327.2
28333.9
28340.5
28347
28353.4
28359.7
28365.9
28372
28378
28383.8
28389.5
28395.1
28400.5
28405.8
28410.9
28415.9
28420.7
28425.4
28430
28434.3
28438.5
28442.5
28446.4
28450.1
28453.6
28456.9
28460.1
28463
28465.8
28468.4
28470.8
28473
28475
28476.8
28478.4
28479.8
28481
28482
28482.9
28483.5
28483.8
28484.1
23824.9
23825.4
23826.5
23828.1
23830.1
23832.8
23835.9
23839.6
23843.8
23848.5
23853.7
23859.5
23865.8
23872.5
23879.8
23887.6
23895.9
23904.7
23914
23923.8
23934
23944.8
23956
23967.8
23980
23992.6
24005.8
24019.3
24033.4
24047.9
24062.8
24078.2
24094.1
24110.3
24127
24144.1
24161.6
24179.5
24197.8
24216.5
24235.5
24255
24274.8
24294.9
24315.4
24336.2
24357.4
24378.9
24400.7
24422.7
24445.1
24467.7
24490.7
24513.8
24537.3
24560.9
24584.9
24609
24633.3
24657.9
24682.7
24707.6
24732.7
24758
24783.5
24809.1
24834.9
24860.8
24886.8
24913
24939.2
24965.6
24992
25018.6
25045.2
25071.9
25098.7
25125.5
25152.3
25179.2
25206.1
25233.1
25260
25287
25313.9
25340.9
25367.8
25394.7
25421.6
25448.4
25475.1
25501.9
25528.5
25555.1
25581.6
25608
25634.3
25660.5
25686.5
25712.5
25738.4
25764.1
25789.7
25815.1
25840.4
25865.5
25890.5
25915.3
25939.9
25964.4
25988.6
26012.7
26036.6
26060.3
26083.8
26107.1
26130.1
26153
26175.6
26198
26220.2
26242.2
26263.9
26285.4
26306.7
26327.7
26348.5
26369
26389.3
26409.3
26429.1
26448.7
26467.9
26487
26505.8
26524.3
26542.6
26560.6
26578.3
26595.8
26613.1
26630
26646.8
26663.2
26679.4
26695.4
26711.1
26726.5
26741.7
26756.7
26771.3
26785.8
26799.9
26813.9
26827.5
26841
26854.2
26867.1
26879.8
26892.3
26904.5
26916.5
26928.2
26939.7
26951
26962.1
26973
26983.6
26994
27004.2
27014.1
27023.9
27033.5
27042.8
27052
27060.9
27069.7
27078.2
27086.6
27094.8
27102.8
27110.7
27118.4
27125.9
27133.2
27140.4
27147.4
27154.2
27161
27167.5
27174
27180.2
27186.4
27192.4
27198.3
27204.1
27209.8
27215.4
27220.8
27226.2
27231.4
27236.6
27241.7
27246.7
27251.6
27256.4
27261.2
27265.9
27270.6
27275.1
27279.7
27284.2
27288.6
27293
27297.4
27301.7
27306
27310.3
27314.6
27318.8
27323.1
27327.3
27331.6
27335.8
27340.1
27344.3
27348.6
27352.9
27357.2
27361.6
27365.9
27370.3
27374.7
27379.2
27383.7
27388.3
27392.9
27397.5
27402.2
27407
27411.8
27416.7
27421.6
27426.6
27431.6
27436.8
27442
27447.2
27452.6
27458
27463.5
27469
27474.7
27480.4
27486.2
27492
27498
27504
27510.1
27516.3
27522.5
27528.8
27535.3
27541.7
27548.3
27554.9
27561.6
27568.4
27575.2
27582.1
27589.1
27596.2
27603.3
27610.4
27617.6
27624.9
27632.2
27639.6
27647
27654.4
27661.9
27669.5
27677
27684.6
27692.2
27699.9
27707.5
27715.2
27722.9
27730.6
27738.2
27745.9
27753.6
27761.2
27768.9
27776.5
27784.1
27791.6
27799.1
27806.6
27814.1
27821.4
27828.8
27836
27843.2
27850.4
27857.4
27864.4
27871.3
27878.1
27884.8
27891.4
27897.9
27904.3
27910.6
27916.7
27922.8
27928.7
27934.5
27940.1
27945.6
27951
27956.2
27961.3
27966.2
27970.9
27975.5
27979.9
27984.2
27988.3
27992.2
27995.9
27999.5
28002.9
28006.1
28009.1
28011.9
28014.5
28016.9
28019.2
28021.2
28023
28024.7
28026.1
28027.3
28028.4
28029.2
28029.8
28030.2
28030.4
23354.7
23355.3
23356.3
23357.9
23360
23362.7
23365.8
23369.5
23373.8
23378.5
23383.8
23389.6
23395.9
23402.8
23410.1
23418
23426.3
23435.2
23444.6
23454.5
23464.8
23475.7
23487
23498.8
23511.1
23523.9
23537.1
23550.9
23565
23579.7
23594.7
23610.3
23626.2
23642.7
23659.5
23676.7
23694.4
23712.5
23731
23749.8
23769.1
23788.7
23808.7
23829
23849.7
23870.8
23892.1
23913.8
23935.8
23958.1
23980.6
24003.5
24026.6
24050
24073.6
24097.5
24121.6
24146
24170.5
24195.3
24220.3
24245.4
24270.8
24296.3
24321.9
24347.7
24373.7
24399.8
24426.1
24452.4
24478.9
24505.4
24532.1
24558.8
24585.6
24612.5
24639.5
24666.5
24693.5
24720.6
24747.7
24774.8
24802
24829.1
24856.2
24883.4
24910.5
24937.5
24964.6
24991.6
25018.5
25045.4
25072.2
25098.9
25125.6
25152.2
25178.6
25205
25231.2
25257.4
25283.4
25309.2
25334.9
25360.5
25385.9
25411.2
25436.3
25461.2
25486
25510.6
25535
25559.1
25583.1
25606.9
25630.5
25653.9
25677.1
25700
25722.7
25745.2
25767.5
25789.5
25811.3
25832.9
25854.2
25875.3
25896.1
25916.7
25937
25957.1
25977
25996.5
26015.9
26034.9
26053.7
26072.3
26090.6
26108.6
26126.4
26143.9
26161.2
26178.1
26194.9
26211.3
26227.6
26243.5
26259.2
26274.6
26289.8
26304.7
26319.4
26333.8
26347.9
26361.8
26375.5
26388.9
26402
26414.9
26427.6
26440
26452.2
26464.1
26475.8
26487.3
26498.5
26509.5
26520.3
26530.9
26541.2
26551.3
26561.2
26570.9
26580.4
26589.7
26598.8
26607.7
26616.3
26624.8
26633.1
26641.2
26649.2
26656.9
26664.5
26671.9
26679.2
26686.2
26693.2
26699.9
26706.5
26713
26719.3
26725.5
26731.6
26737.5
26743.3
26749
26754.6
26760.1
26765.4
26770.7
26775.8
26780.9
26785.9
26790.7
26795.6
26800.3
26805
26809.6
26814.1
26818.6
26823
26827.4
26831.7
26836
26840.3
26844.5
26848.8
26853
26857.1
26861.3
26865.5
26869.6
26873.8
26877.9
26882.1
26886.2
26890.4
26894.7
26898.9
26903.1
26907.4
26911.8
26916.1
26920.5
26925
26929.4
26934
26938.6
26943.2
26947.9
26952.7
26957.5
26962.4
26967.3
26972.4
26977.5
26982.6
26987.9
26993.2
26998.5
27004
27009.6
27015.2
27020.9
27026.7
27032.5
27038.5
27044.5
27050.6
27056.8
27063
27069.4
27075.8
27082.3
27088.9
27095.5
27102.3
27109.1
27116
27122.9
27129.9
27137
27144.2
27151.4
27158.7
27166
27173.4
27180.8
27188.3
27195.8
27203.4
27211
27218.7
27226.3
27234
27241.8
27249.5
27257.3
27265
27272.8
27280.6
27288.4
27296.2
27303.9
27311.7
27319.4
27327.1
27334.7
27342.4
27350
27357.5
27365
27372.4
27379.8
27387.1
27394.4
27401.5
27408.6
27415.6
27422.5
27429.3
27436
27442.6
27449.1
27455.5
27461.8
27467.9
27473.9
27479.8
27485.5
27491.1
27496.6
27501.9
27507
27512
27516.8
27521.5
27526
27530.3
27534.5
27538.5
27542.3
27545.9
27549.3
27552.6
27555.6
27558.5
27561.1
27563.6
27565.9
27567.9
27569.8
27571.5
27572.9
27574.2
27575.2
27576.1
27576.7
27577.1
27577.3
22883
22883.6
22884.7
22886.3
22888.4
22891.1
22894.3
22898.1
22902.3
22907.1
22912.5
22918.3
22924.7
22931.6
22939.1
22947
22955.4
22964.4
22973.9
22983.8
22994.3
23005.2
23016.7
23028.6
23041
23053.9
23067.3
23081.1
23095.4
23110.2
23125.4
23141.1
23157.3
23173.8
23190.8
23208.3
23226.1
23244.4
23263.1
23282.2
23301.6
23321.4
23341.6
23362.2
23383.1
23404.4
23426
23447.9
23470.1
23492.6
23515.4
23538.5
23561.9
23585.5
23609.4
23633.5
23657.8
23682.4
23707.2
23732.2
23757.4
23782.8
23808.3
23834
23859.9
23886
23912.2
23938.5
23965
23991.5
24018.2
24045
24071.9
24098.8
24125.9
24153
24180.1
24207.3
24234.6
24261.9
24289.2
24316.5
24343.9
24371.2
24398.6
24425.9
24453.2
24480.5
24507.7
24534.9
24562
24589.1
24616.1
24643
24669.9
24696.6
24723.3
24749.8
24776.2
24802.5
24828.7
24854.7
24880.6
24906.3
24931.9
24957.3
24982.6
25007.6
25032.5
25057.2
25081.8
25106.1
25130.2
25154.1
25177.8
25201.3
25224.6
25247.6
25270.4
25293
25315.4
25337.5
25359.4
25381
25402.4
25423.5
25444.4
25465.1
25485.5
25505.6
25525.5
25545.1
25564.5
25583.6
25602.4
25621
25639.3
25657.4
25675.2
25692.7
25709.9
25726.9
25743.7
25760.1
25776.3
25792.3
25808
25823.4
25838.5
25853.4
25868.1
25882.4
25896.6
25910.4
25924.1
25937.4
25950.5
25963.4
25976
25988.4
26000.5
26012.4
26024
26035.4
26046.6
26057.6
26068.3
26078.8
26089
26099.1
26108.9
26118.5
26127.9
26137.1
26146.1
26154.9
26163.5
26171.9
26180.1
26188.1
26196
26203.6
26211.1
26218.4
26225.5
26232.5
26239.3
26246
26252.5
26258.9
26265.1
26271.2
26277.1
26282.9
26288.6
26294.2
26299.7
26305
26310.2
26315.4
26320.4
26325.4
26330.2
26335
26339.7
26344.3
26348.9
26353.3
26357.8
26362.1
26366.5
26370.7
26375
26379.1
26383.3
26387.4
26391.5
26395.6
26399.7
26403.8
26407.8
26411.9
26415.9
26420
26424
26428.1
26432.2
26436.3
26440.5
26444.7
26448.9
26453.1
26457.4
26461.7
26466.1
26470.5
26475
26479.5
26484.1