/*--------------------------------*- C++ -*----------------------------------*\
| =========                 |                                                 |
| \\      /  F ield         | OpenFOAM: The Open Source CFD Toolbox           |
|  \\    /   O peration     | Version:  v2006                                 |
|   \\  /    A nd           | Website:  www.openfoam.com                      |
|    \\/     M anipulation  |                                                 |
\*---------------------------------------------------------------------------*/
FoamFile
{
    version     2.0;
    format      ascii;
    class       volScalarField;
    location    "3.1";
    object      p_rgh;
}
// * * * * * * * * * * * * * * * * * * * * * * * * * * * * * * * * * * * * * //

dimensions      [1 -1 -2 0 0 0 0];


internalField   nonuniform List<scalar> 
52500
(
2144.14
2144.24
2144.19
2144.14
2144.09
2144.02
2143.95
2143.86
2143.77
2143.67
2143.56
2143.46
2143.35
2143.24
2143.14
2143.05
2142.97
2142.89
2142.84
2142.8
2142.79
2142.81
2142.85
2142.93
2143.04
2143.2
2143.4
2143.66
2143.96
2144.33
2144.76
2145.25
2145.82
2146.46
2147.18
2147.99
2148.88
2149.87
2150.95
2152.14
2153.44
2154.84
2156.36
2158
2159.76
2161.64
2163.66
2165.81
2168.09
2170.52
2173.09
2175.81
2178.68
2181.7
2184.88
2188.21
2191.71
2195.36
2199.18
2203.17
2207.32
2211.64
2216.13
2220.79
2225.62
2230.62
2235.8
2241.14
2246.65
2252.34
2258.19
2264.21
2270.4
2276.76
2283.27
2289.95
2296.79
2303.79
2310.94
2318.24
2325.69
2333.28
2341.02
2348.9
2356.91
2365.06
2373.34
2381.74
2390.25
2398.86
2407.57
2416.38
2425.29
2434.28
2443.35
2452.5
2461.72
2471.01
2480.36
2489.75
2499.2
2508.68
2518.2
2527.74
2537.3
2546.88
2556.46
2566.04
2575.62
2585.18
2594.72
2604.24
2613.72
2623.16
2632.55
2641.9
2651.18
2660.39
2669.53
2678.59
2687.57
2696.46
2705.24
2713.93
2722.5
2730.97
2739.31
2747.52
2755.61
2763.56
2771.37
2779.04
2786.55
2793.91
2801.11
2808.15
2815.03
2821.73
2828.26
2834.61
2840.78
2846.77
2852.57
2858.19
2863.61
2868.84
2873.87
2878.71
2883.34
2887.78
2892.02
2896.05
2899.87
2903.5
2906.92
2910.13
2913.14
2915.94
2918.53
2920.92
2923.11
2925.09
2926.87
2928.44
2929.81
2930.99
2931.96
2932.74
2933.32
2933.71
2933.91
2933.92
2933.74
2933.38
2932.84
2932.11
2931.21
2930.14
2928.89
2927.48
2925.9
2924.16
2922.27
2920.22
2918.03
2915.69
2913.21
2910.6
2907.86
2904.98
2901.98
2898.84
2895.59
2892.23
2888.75
2885.18
2881.5
2877.73
2873.87
2869.93
2865.9
2861.8
2857.62
2853.38
2849.07
2844.71
2840.29
2835.83
2831.32
2826.78
2822.2
2817.6
2812.97
2808.33
2803.67
2799.01
2794.34
2789.68
2785.03
2780.38
2775.76
2771.16
2766.59
2762.04
2757.54
2753.08
2748.67
2744.31
2740.01
2735.78
2731.61
2727.51
2723.49
2719.56
2715.71
2711.95
2708.3
2704.74
2701.29
2697.96
2694.74
2691.64
2688.67
2685.83
2683.13
2680.56
2678.14
2675.88
2673.76
2671.8
2670.01
2668.38
2666.92
2665.64
2664.53
2663.61
2662.88
2662.34
2661.99
2661.84
2661.89
2662.14
2662.6
2663.27
2664.16
2665.26
2666.58
2668.12
2669.88
2671.87
2674.08
2676.54
2679.24
2682.17
2685.34
2688.72
2692.32
2696.14
2700.19
2704.45
2708.94
2713.64
2718.56
2723.69
2729.03
2734.57
2740.33
2746.28
2752.44
2758.78
2765.3
2772.01
2778.88
2785.93
2793.15
2800.54
2808.09
2815.8
2823.65
2831.62
2839.71
2847.9
2856.19
2864.57
2873.02
2881.55
2890.13
2898.76
2907.44
2916.14
2924.85
2933.57
2942.28
2950.97
2959.63
2968.24
2976.79
2985.28
2993.68
3001.99
3010.18
3018.26
3026.2
3033.99
3041.62
3049.09
3056.36
3063.44
3070.31
3076.96
3083.38
3089.55
3095.47
3101.13
3106.5
3111.59
3116.39
3120.88
3125.06
3128.92
3132.46
3135.66
3138.51
3141.03
3143.19
3144.99
3146.44
3147.53
3148.27
3148.68
2143.77
2143.86
2143.81
2143.77
2143.71
2143.65
2143.57
2143.48
2143.39
2143.28
2143.18
2143.07
2142.96
2142.85
2142.75
2142.65
2142.56
2142.49
2142.43
2142.39
2142.37
2142.38
2142.42
2142.5
2142.61
2142.76
2142.96
2143.21
2143.51
2143.87
2144.3
2144.79
2145.35
2145.99
2146.7
2147.51
2148.4
2149.38
2150.47
2151.65
2152.94
2154.34
2155.86
2157.49
2159.25
2161.13
2163.15
2165.3
2167.58
2170.01
2172.58
2175.3
2178.16
2181.19
2184.36
2187.7
2191.19
2194.85
2198.67
2202.66
2206.81
2211.14
2215.63
2220.29
2225.13
2230.14
2235.31
2240.66
2246.18
2251.87
2257.73
2263.76
2269.96
2276.32
2282.84
2289.53
2296.38
2303.38
2310.54
2317.85
2325.31
2332.92
2340.66
2348.55
2356.56
2364.69
2372.94
2381.31
2389.81
2398.41
2407.13
2415.95
2424.86
2433.87
2442.96
2452.13
2461.37
2470.67
2480.04
2489.45
2498.92
2508.42
2517.96
2527.53
2537.11
2546.71
2556.31
2565.92
2575.51
2585.1
2594.66
2604.2
2613.7
2623.16
2632.58
2641.94
2651.24
2660.48
2669.64
2678.72
2687.72
2696.63
2705.43
2714.14
2722.74
2731.22
2739.58
2747.81
2755.92
2763.88
2771.71
2779.39
2786.92
2794.3
2801.51
2808.57
2815.46
2822.17
2828.71
2835.08
2841.26
2847.26
2853.07
2858.7
2864.13
2869.37
2874.41
2879.25
2883.9
2888.34
2892.58
2896.62
2900.45
2904.08
2907.5
2910.72
2913.73
2916.53
2919.13
2921.52
2923.71
2925.69
2927.46
2929.04
2930.41
2931.58
2932.55
2933.33
2933.91
2934.29
2934.49
2934.49
2934.31
2933.94
2933.39
2932.66
2931.76
2930.68
2929.43
2928.01
2926.43
2924.68
2922.78
2920.72
2918.52
2916.17
2913.67
2911.04
2908.26
2905.36
2902.33
2899.18
2895.92
2892.54
2889.05
2885.46
2881.77
2877.99
2874.11
2870.15
2866.11
2861.99
2857.8
2853.54
2849.22
2844.84
2840.41
2835.93
2831.41
2826.85
2822.26
2817.64
2813
2808.34
2803.67
2798.99
2794.31
2789.63
2784.96
2780.3
2775.66
2771.04
2766.45
2761.9
2757.38
2752.9
2748.48
2744.1
2739.79
2735.54
2731.35
2727.24
2723.21
2719.26
2715.4
2711.63
2707.96
2704.39
2700.93
2697.58
2694.35
2691.24
2688.26
2685.41
2682.7
2680.12
2677.69
2675.41
2673.29
2671.32
2669.52
2667.88
2666.42
2665.13
2664.02
2663.09
2662.35
2661.8
2661.45
2661.3
2661.34
2661.59
2662.05
2662.72
2663.6
2664.7
2666.01
2667.55
2669.31
2671.28
2673.48
2675.89
2678.51
2681.35
2684.43
2687.76
2691.32
2695.11
2699.13
2703.38
2707.87
2712.58
2717.52
2722.68
2728.06
2733.65
2739.43
2745.42
2751.61
2757.99
2764.56
2771.31
2778.24
2785.34
2792.6
2800.02
2807.58
2815.27
2823.1
2831.06
2839.14
2847.34
2855.65
2864.05
2872.53
2881.08
2889.7
2898.36
2907.07
2915.8
2924.55
2933.3
2942.05
2950.78
2959.47
2968.12
2976.71
2985.24
2993.68
3002.03
3010.27
3018.38
3026.37
3034.21
3041.88
3049.39
3056.71
3063.83
3070.75
3077.44
3083.9
3090.11
3096.07
3101.76
3107.17
3112.3
3117.13
3121.65
3125.86
3129.75
3133.3
3136.53
3139.4
3141.93
3144.11
3145.93
3147.39
3148.48
3149.22
3149.64
2143.04
2143.14
2143.09
2143.04
2142.98
2142.92
2142.83
2142.74
2142.64
2142.54
2142.43
2142.31
2142.2
2142.08
2141.97
2141.87
2141.78
2141.69
2141.63
2141.58
2141.56
2141.56
2141.59
2141.66
2141.76
2141.9
2142.09
2142.33
2142.63
2142.98
2143.39
2143.88
2144.43
2145.06
2145.77
2146.56
2147.44
2148.42
2149.5
2150.67
2151.96
2153.35
2154.86
2156.49
2158.24
2160.12
2162.13
2164.27
2166.55
2168.98
2171.54
2174.26
2177.13
2180.15
2183.32
2186.66
2190.15
2193.81
2197.64
2201.63
2205.79
2210.12
2214.62
2219.29
2224.13
2229.14
2234.33
2239.69
2245.22
2250.92
2256.79
2262.83
2269.04
2275.42
2281.96
2288.66
2295.53
2302.55
2309.73
2317.06
2324.54
2332.16
2339.93
2347.83
2355.87
2364.04
2372.33
2380.75
2389.29
2397.94
2406.69
2415.54
2424.49
2433.53
2442.65
2451.85
2461.12
2470.45
2479.85
2489.3
2498.79
2508.32
2517.89
2527.48
2537.1
2546.73
2556.36
2566
2575.62
2585.24
2594.83
2604.4
2613.93
2623.42
2632.87
2642.26
2651.59
2660.85
2670.04
2679.15
2688.18
2697.11
2705.95
2714.68
2723.3
2731.81
2740.19
2748.45
2756.58
2764.57
2772.42
2780.12
2787.67
2795.07
2802.31
2809.38
2816.29
2823.02
2829.58
2835.96
2842.16
2848.18
2854.01
2859.64
2865.09
2870.34
2875.39
2880.24
2884.9
2889.35
2893.6
2897.64
2901.48
2905.11
2908.54
2911.75
2914.77
2917.57
2920.17
2922.56
2924.74
2926.72
2928.49
2930.06
2931.42
2932.59
2933.55
2934.32
2934.89
2935.27
2935.45
2935.44
2935.25
2934.87
2934.3
2933.56
2932.63
2931.54
2930.27
2928.83
2927.22
2925.44
2923.48
2921.46
2919.25
2916.88
2914.37
2911.71
2908.92
2906
2902.96
2899.79
2896.5
2893.1
2889.59
2885.97
2882.26
2878.45
2874.55
2870.56
2866.49
2862.34
2858.12
2853.83
2849.49
2845.08
2840.62
2836.11
2831.56
2826.97
2822.35
2817.7
2813.03
2808.34
2803.64
2798.94
2794.22
2789.52
2784.82
2780.13
2775.46
2770.81
2766.19
2761.61
2757.06
2752.56
2748.1
2743.7
2739.36
2735.08
2730.87
2726.73
2722.67
2718.69
2714.8
2711.01
2707.31
2703.72
2700.23
2696.86
2693.61
2690.48
2687.47
2684.6
2681.86
2679.26
2676.81
2674.51
2672.37
2670.38
2668.56
2666.91
2665.42
2664.12
2662.99
2662.05
2661.3
2660.73
2660.37
2660.2
2660.23
2660.47
2660.92
2661.58
2662.45
2663.54
2664.85
2666.38
2668.13
2670.11
2672.32
2674.76
2677.44
2680.36
2683.47
2686.81
2690.38
2694.19
2698.24
2702.51
2707
2711.72
2716.65
2721.8
2727.16
2732.74
2738.52
2744.5
2750.68
2757.06
2763.62
2770.37
2777.3
2784.4
2791.67
2799.1
2806.68
2814.42
2822.29
2830.3
2838.42
2846.66
2855
2863.43
2871.94
2880.52
2889.17
2897.87
2906.61
2915.37
2924.16
2932.95
2941.73
2950.49
2959.23
2967.92
2976.55
2985.11
2993.59
3001.98
3010.26
3018.42
3026.44
3034.32
3042.03
3049.58
3056.94
3064.1
3071.05
3077.77
3084.27
3090.51
3096.5
3102.23
3107.67
3112.83
3117.68
3122.23
3126.47
3130.38
3133.96
3137.2
3140.09
3142.64
3144.83
3146.66
3148.13
3149.23
3149.96
3150.39
2141.96
2142.05
2142
2141.95
2141.89
2141.82
2141.73
2141.64
2141.53
2141.42
2141.3
2141.18
2141.06
2140.93
2140.82
2140.7
2140.6
2140.51
2140.43
2140.37
2140.33
2140.32
2140.34
2140.4
2140.49
2140.62
2140.79
2141.02
2141.3
2141.64
2142.04
2142.51
2143.05
2143.66
2144.36
2145.14
2146.01
2146.97
2148.04
2149.2
2150.48
2151.86
2153.36
2154.98
2156.72
2158.59
2160.59
2162.73
2165.01
2167.42
2169.99
2172.7
2175.56
2178.58
2181.76
2185.09
2188.59
2192.25
2196.08
2200.08
2204.24
2208.58
2213.09
2217.76
2222.62
2227.64
2232.84
2238.22
2243.76
2249.48
2255.37
2261.43
2267.66
2274.06
2280.62
2287.35
2294.24
2301.29
2308.5
2315.86
2323.36
2331.02
2338.82
2346.76
2354.83
2363.04
2371.37
2379.82
2388.39
2397.07
2405.86
2414.75
2423.74
2432.81
2441.98
2451.22
2460.53
2469.91
2479.35
2488.84
2498.38
2507.97
2517.58
2527.22
2536.89
2546.56
2556.25
2565.93
2575.61
2585.27
2594.92
2604.53
2614.12
2623.66
2633.15
2642.59
2651.97
2661.28
2670.52
2679.68
2688.75
2697.73
2706.61
2715.39
2724.05
2732.6
2741.03
2749.33
2757.5
2765.53
2773.42
2781.16
2788.75
2796.18
2803.45
2810.56
2817.5
2824.27
2830.85
2837.26
2843.49
2849.53
2855.38
2861.04
2866.51
2871.78
2876.85
2881.72
2886.39
2890.86
2895.12
2899.18
2903.03
2906.67
2910.1
2913.33
2916.34
2919.15
2921.75
2924.14
2926.32
2928.3
2930.06
2931.63
2932.99
2934.15
2935.1
2935.86
2936.42
2936.78
2936.95
2936.92
2936.71
2936.31
2935.73
2934.97
2934.02
2932.9
2931.61
2930.16
2928.54
2926.76
2924.83
2922.71
2920.45
2918.04
2915.49
2912.8
2909.98
2907.03
2903.94
2900.74
2897.41
2893.98
2890.43
2886.77
2883.02
2879.16
2875.22
2871.19
2867.08
2862.89
2858.63
2854.3
2849.91
2845.45
2840.95
2836.4
2831.81
2827.18
2822.51
2817.82
2813.1
2808.37
2803.63
2798.87
2794.12
2789.37
2784.62
2779.89
2775.18
2770.49
2765.83
2761.2
2756.61
2752.07
2747.57
2743.13
2738.74
2734.42
2730.17
2725.99
2721.89
2717.88
2713.95
2710.12
2706.38
2702.75
2699.23
2695.82
2692.53
2689.36
2686.32
2683.41
2680.64
2678.01
2675.53
2673.19
2671.02
2669
2667.15
2665.46
2663.95
2662.62
2661.47
2660.5
2659.72
2659.13
2658.74
2658.55
2658.57
2658.79
2659.22
2659.86
2660.71
2661.79
2663.08
2664.6
2666.34
2668.3
2670.5
2672.91
2675.54
2678.4
2681.51
2684.87
2688.46
2692.27
2696.31
2700.57
2705.07
2709.79
2714.73
2719.9
2725.28
2730.88
2736.69
2742.7
2748.92
2755.33
2761.93
2768.73
2775.7
2782.85
2790.17
2797.65
2805.29
2813.07
2820.99
2829.04
2837.21
2845.5
2853.89
2862.38
2870.95
2879.59
2888.3
2897.07
2905.87
2914.7
2923.56
2932.41
2941.27
2950.1
2958.9
2967.66
2976.37
2985
2993.55
3002.01
3010.36
3018.59
3026.68
3034.62
3042.41
3050.02
3057.44
3064.66
3071.67
3078.46
3085.01
3091.32
3097.36
3103.14
3108.63
3113.83
3118.74
3123.33
3127.6
3131.55
3135.16
3138.43
3141.35
3143.92
3146.13
3147.97
3149.45
3150.56
3151.31
3151.73
2140.51
2140.61
2140.55
2140.5
2140.43
2140.36
2140.27
2140.16
2140.05
2139.93
2139.8
2139.67
2139.53
2139.4
2139.27
2139.14
2139.02
2138.92
2138.82
2138.75
2138.7
2138.67
2138.67
2138.71
2138.78
2138.89
2139.05
2139.26
2139.52
2139.84
2140.22
2140.67
2141.19
2141.79
2142.47
2143.23
2144.09
2145.04
2146.08
2147.23
2148.49
2149.86
2151.35
2152.95
2154.68
2156.54
2158.54
2160.66
2162.93
2165.34
2167.9
2170.61
2173.47
2176.49
2179.66
2183
2186.5
2190.16
2194
2198
2202.17
2206.52
2211.04
2215.73
2220.59
2225.64
2230.85
2236.25
2241.81
2247.55
2253.47
2259.56
2265.81
2272.24
2278.84
2285.6
2292.52
2299.6
2306.85
2314.25
2321.8
2329.49
2337.34
2345.32
2353.44
2361.69
2370.07
2378.58
2387.2
2395.94
2404.78
2413.73
2422.77
2431.91
2441.13
2450.43
2459.81
2469.25
2478.75
2488.31
2497.91
2507.56
2517.24
2526.94
2536.67
2546.42
2556.17
2565.92
2575.66
2585.39
2595.1
2604.78
2614.43
2624.03
2633.59
2643.1
2652.54
2661.92
2671.22
2680.44
2689.57
2698.61
2707.55
2716.39
2725.11
2733.72
2742.2
2750.56
2758.78
2766.86
2774.8
2782.59
2790.23
2797.71
2805.03
2812.18
2819.16
2825.96
2832.59
2839.04
2845.3
2851.38
2857.26
2862.95
2868.44
2873.74
2878.84
2883.73
2888.42
2892.91
2897.19
2901.26
2905.12
2908.77
2912.22
2915.45
2918.47
2921.28
2923.88
2926.27
2928.45
2930.42
2932.19
2933.74
2935.09
2936.24
2937.18
2937.93
2938.47
2938.81
2938.96
2938.92
2938.68
2938.26
2937.65
2936.86
2935.88
2934.74
2933.41
2931.93
2930.27
2928.47
2926.54
2924.34
2922.02
2919.57
2916.97
2914.24
2911.37
2908.36
2905.23
2901.98
2898.6
2895.11
2891.51
2887.81
2884
2880.09
2876.1
2872.01
2867.84
2863.6
2859.28
2854.9
2850.45
2845.94
2841.38
2836.77
2832.12
2827.43
2822.7
2817.95
2813.18
2808.39
2803.58
2798.77
2793.96
2789.15
2784.34
2779.55
2774.78
2770.03
2765.31
2760.63
2755.98
2751.38
2746.83
2742.33
2737.88
2733.51
2729.2
2724.97
2720.82
2716.75
2712.77
2708.88
2705.1
2701.41
2697.84
2694.38
2691.04
2687.83
2684.74
2681.78
2678.97
2676.29
2673.77
2671.39
2669.17
2667.12
2665.22
2663.5
2661.95
2660.58
2659.39
2658.39
2657.58
2656.96
2656.54
2656.33
2656.31
2656.51
2656.91
2657.53
2658.37
2659.42
2660.7
2662.21
2663.93
2665.89
2668.07
2670.49
2673.14
2676.03
2679.14
2682.49
2686.07
2689.9
2693.95
2698.23
2702.74
2707.48
2712.45
2717.63
2723.04
2728.66
2734.5
2740.54
2746.79
2753.23
2759.88
2766.71
2773.72
2780.92
2788.28
2795.81
2803.49
2811.33
2819.31
2827.42
2835.66
2844.02
2852.48
2861.04
2869.68
2878.4
2887.19
2896.03
2904.92
2913.83
2922.77
2931.71
2940.65
2949.57
2958.47
2967.32
2976.11
2984.84
2993.48
3002.03
3010.47
3018.79
3026.98
3035.01
3042.89
3050.58
3058.09
3065.4
3072.5
3079.37
3086
3092.38
3098.5
3104.35
3109.91
3115.18
3120.14
3124.79
3129.12
3133.11
3136.77
3140.08
3143.04
3145.64
3147.88
3149.75
3151.25
3152.37
3153.12
3153.56
2138.69
2138.79
2138.73
2138.68
2138.61
2138.53
2138.43
2138.32
2138.19
2138.06
2137.92
2137.78
2137.63
2137.48
2137.33
2137.19
2137.05
2136.93
2136.82
2136.72
2136.65
2136.6
2136.58
2136.6
2136.65
2136.74
2136.87
2137.06
2137.29
2137.59
2137.95
2138.38
2138.88
2139.45
2140.11
2140.85
2141.68
2142.61
2143.64
2144.77
2146.01
2147.36
2148.83
2150.42
2152.13
2153.98
2155.96
2158.08
2160.33
2162.74
2165.29
2167.99
2170.85
2173.86
2177.03
2180.37
2183.87
2187.54
2191.38
2195.39
2199.58
2203.93
2208.47
2213.17
2218.06
2223.12
2228.36
2233.77
2239.37
2245.14
2251.08
2257.2
2263.49
2269.96
2276.59
2283.39
2290.36
2297.49
2304.78
2312.23
2319.83
2327.58
2335.48
2343.52
2351.69
2360.01
2368.45
2377.02
2385.71
2394.51
2403.42
2412.44
2421.55
2430.76
2440.06
2449.43
2458.88
2468.4
2477.98
2487.62
2497.3
2507.03
2516.79
2526.58
2536.39
2546.21
2556.04
2565.88
2575.7
2585.51
2595.31
2605.07
2614.8
2624.49
2634.13
2643.72
2653.24
2662.69
2672.07
2681.37
2690.58
2699.7
2708.71
2717.62
2726.42
2735.1
2743.65
2752.07
2760.36
2768.51
2776.51
2784.37
2792.07
2799.6
2806.98
2814.18
2821.22
2828.07
2834.75
2841.24
2847.55
2853.67
2859.59
2865.32
2870.85
2876.18
2881.31
2886.23
2890.95
2895.46
2899.76
2903.85
2907.73
2911.39
2914.85
2918.09
2921.12
2923.94
2926.54
2928.93
2931.11
2933.07
2934.83
2936.38
2937.72
2938.85
2939.78
2940.5
2941.02
2941.34
2941.47
2941.39
2941.13
2940.67
2940.03
2939.2
2938.19
2937.01
2935.64
2934.1
2932.39
2930.49
2928.39
2926.27
2923.95
2921.46
2918.81
2916.03
2913.1
2910.04
2906.85
2903.54
2900.1
2896.55
2892.89
2889.12
2885.24
2881.27
2877.21
2873.06
2868.82
2864.5
2860.11
2855.66
2851.14
2846.56
2841.92
2837.24
2832.52
2827.75
2822.96
2818.13
2813.28
2808.42
2803.54
2798.66
2793.77
2788.88
2784.01
2779.15
2774.3
2769.48
2764.69
2759.93
2755.21
2750.54
2745.92
2741.35
2736.84
2732.39
2728.02
2723.72
2719.5
2715.36
2711.32
2707.37
2703.52
2699.77
2696.14
2692.62
2689.21
2685.94
2682.79
2679.78
2676.91
2674.18
2671.59
2669.16
2666.89
2664.78
2662.84
2661.07
2659.47
2658.06
2656.82
2655.78
2654.93
2654.27
2653.81
2653.55
2653.51
2653.67
2654.04
2654.63
2655.44
2656.47
2657.73
2659.21
2660.92
2662.86
2665.04
2667.44
2670.07
2672.93
2675.99
2679.39
2682.99
2686.82
2690.88
2695.17
2699.69
2704.45
2709.43
2714.64
2720.08
2725.73
2731.6
2737.68
2743.97
2750.47
2757.16
2764.05
2771.12
2778.38
2785.81
2793.41
2801.17
2809.09
2817.15
2825.34
2833.66
2842.11
2850.66
2859.31
2868.05
2876.87
2885.76
2894.7
2903.69
2912.71
2921.75
2930.81
2939.86
2948.89
2957.9
2966.86
2975.77
2984.61
2993.38
3002.04
3010.6
3019.03
3027.33
3035.48
3043.47
3051.28
3058.9
3066.31
3073.52
3080.49
3087.22
3093.7
3099.91
3105.85
3111.5
3116.85
3121.89
3126.61
3131.01
3135.07
3138.78
3142.15
3145.15
3147.8
3150.07
3151.97
3153.49
3154.63
3155.4
3155.84
2136.52
2136.62
2136.55
2136.49
2136.42
2136.33
2136.22
2136.1
2135.97
2135.82
2135.67
2135.5
2135.34
2135.17
2135
2134.84
2134.68
2134.54
2134.4
2134.28
2134.19
2134.11
2134.07
2134.05
2134.08
2134.14
2134.25
2134.4
2134.61
2134.88
2135.21
2135.61
2136.08
2136.63
2137.26
2137.98
2138.78
2139.68
2140.69
2141.79
2143.01
2144.34
2145.79
2147.36
2149.06
2150.88
2152.85
2154.95
2157.2
2159.59
2162.13
2164.83
2167.68
2170.69
2173.86
2177.2
2180.7
2184.38
2188.23
2192.24
2196.44
2200.81
2205.36
2210.09
2214.99
2220.08
2225.34
2230.79
2236.41
2242.22
2248.2
2254.36
2260.69
2267.2
2273.88
2280.73
2287.75
2294.93
2302.28
2309.78
2317.44
2325.26
2333.22
2341.33
2349.58
2357.97
2366.48
2375.13
2383.9
2392.78
2401.77
2410.88
2420.08
2429.37
2438.76
2448.22
2457.76
2467.38
2477.05
2486.78
2496.56
2506.38
2516.24
2526.13
2536.04
2545.96
2555.89
2565.82
2575.75
2585.66
2595.55
2605.42
2615.25
2625.03
2634.77
2644.46
2654.08
2663.63
2673.1
2682.5
2691.8
2701.01
2710.11
2719.11
2728
2736.76
2745.4
2753.9
2762.27
2770.5
2778.58
2786.51
2794.28
2801.89
2809.33
2816.6
2823.7
2830.62
2837.35
2843.9
2850.26
2856.43
2862.41
2868.18
2873.75
2879.12
2884.29
2889.25
2894
2898.53
2902.86
2906.97
2910.87
2914.56
2918.03
2921.28
2924.32
2927.14
2929.75
2932.14
2934.31
2936.27
2938.02
2939.56
2940.88
2942
2942.91
2943.61
2944.1
2944.4
2944.49
2944.39
2944.09
2943.6
2942.91
2942.04
2940.99
2939.76
2938.34
2936.76
2935.01
2933.1
2931.06
2928.75
2926.33
2923.76
2921.05
2918.19
2915.2
2912.07
2908.81
2905.42
2901.91
2898.28
2894.54
2890.69
2886.74
2882.68
2878.54
2874.3
2869.98
2865.58
2861.11
2856.57
2851.96
2847.29
2842.57
2837.8
2832.99
2828.14
2823.25
2818.34
2813.4
2808.45
2803.48
2798.5
2793.53
2788.56
2783.59
2778.64
2773.71
2768.8
2763.92
2759.08
2754.27
2749.51
2744.8
2740.15
2735.56
2731.03
2726.57
2722.19
2717.89
2713.67
2709.55
2705.52
2701.59
2697.77
2694.06
2690.46
2686.99
2683.64
2680.42
2677.34
2674.4
2671.6
2668.95
2666.46
2664.12
2661.95
2659.95
2658.12
2656.47
2654.99
2653.71
2652.61
2651.71
2651
2650.5
2650.2
2650.11
2650.23
2650.57
2651.12
2651.9
2652.9
2654.13
2655.59
2657.28
2659.21
2661.37
2663.77
2666.41
2669.3
2672.45
2675.76
2679.34
2683.16
2687.23
2691.53
2696.08
2700.86
2705.87
2711.11
2716.58
2722.27
2728.18
2734.31
2740.65
2747.2
2753.96
2760.91
2768.05
2775.38
2782.88
2790.56
2798.4
2806.4
2814.55
2822.84
2831.26
2839.81
2848.46
2857.22
2866.08
2875.01
2884.01
2893.08
2902.19
2911.34
2920.51
2929.7
2938.88
2948.05
2957.2
2966.3
2975.35
2984.33
2993.23
3002.03
3010.73
3019.3
3027.74
3036.03
3044.15
3052.1
3059.85
3067.4
3074.73
3081.83
3088.68
3095.28
3101.61
3107.66
3113.41
3118.86
3124
3128.81
3133.29
3137.43
3141.21
3144.64
3147.71
3150.4
3152.72
3154.65
3156.21
3157.37
3158.15
3158.6
2133.97
2134.07
2134.01
2133.94
2133.86
2133.76
2133.64
2133.51
2133.36
2133.2
2133.03
2132.85
2132.66
2132.47
2132.28
2132.1
2131.91
2131.74
2131.58
2131.43
2131.3
2131.2
2131.12
2131.08
2131.07
2131.1
2131.17
2131.3
2131.47
2131.71
2132.01
2132.37
2132.81
2133.33
2133.92
2134.61
2135.38
2136.25
2137.23
2138.31
2139.5
2140.8
2142.22
2143.77
2145.45
2147.26
2149.2
2151.29
2153.52
2155.9
2158.43
2161.11
2163.96
2166.97
2170.14
2173.48
2176.98
2180.66
2184.52
2188.55
2192.76
2197.14
2201.71
2206.46
2211.39
2216.51
2221.8
2227.28
2232.94
2238.78
2244.81
2251.01
2257.39
2263.95
2270.69
2277.6
2284.68
2291.92
2299.34
2306.91
2314.64
2322.53
2330.58
2338.76
2347.1
2355.57
2364.17
2372.91
2381.77
2390.75
2399.84
2409.04
2418.34
2427.74
2437.23
2446.8
2456.45
2466.17
2475.95
2485.79
2495.69
2505.62
2515.6
2525.6
2535.62
2545.66
2555.71
2565.76
2575.8
2585.83
2595.84
2605.82
2615.77
2625.67
2635.53
2645.32
2655.06
2664.72
2674.31
2683.81
2693.23
2702.54
2711.75
2720.86
2729.84
2738.71
2747.45
2756.05
2764.51
2772.83
2781
2789.02
2796.88
2804.57
2812.09
2819.44
2826.61
2833.6
2840.41
2847.02
2853.45
2859.67
2865.7
2871.53
2877.15
2882.57
2887.78
2892.78
2897.57
2902.14
2906.5
2910.64
2914.56
2918.26
2921.75
2925.02
2928.07
2930.89
2933.5
2935.89
2938.07
2940.02
2941.76
2943.28
2944.59
2945.69
2946.57
2947.24
2947.71
2947.97
2948.03
2947.89
2947.55
2947.01
2946.28
2945.36
2944.26
2942.97
2941.49
2939.85
2938.02
2936.03
2933.85
2931.55
2929.07
2926.44
2923.65
2920.72
2917.64
2914.43
2911.09
2907.61
2904.02
2900.3
2896.47
2892.53
2888.48
2884.33
2880.09
2875.76
2871.34
2866.84
2862.27
2857.63
2852.92
2848.15
2843.33
2838.46
2833.54
2828.58
2823.6
2818.58
2813.54
2808.48
2803.41
2798.33
2793.25
2788.17
2783.11
2778.05
2773.02
2768.01
2763.03
2758.08
2753.18
2748.32
2743.51
2738.75
2734.06
2729.44
2724.88
2720.41
2716.01
2711.7
2707.49
2703.37
2699.35
2695.44
2691.64
2687.96
2684.4
2680.96
2677.66
2674.5
2671.47
2668.6
2665.87
2663.3
2660.89
2658.65
2656.57
2654.67
2652.95
2651.42
2650.06
2648.91
2647.94
2647.18
2646.62
2646.27
2646.13
2646.2
2646.5
2647.01
2647.75
2648.72
2649.92
2651.35
2653.01
2654.91
2657.06
2659.44
2662.07
2664.94
2668.05
2671.4
2674.99
2678.82
2682.9
2687.22
2691.78
2696.59
2701.63
2706.9
2712.41
2718.15
2724.11
2730.3
2736.7
2743.32
2750.14
2757.16
2764.39
2771.8
2779.4
2787.17
2795.11
2803.22
2811.47
2819.88
2828.41
2837.08
2845.86
2854.75
2863.74
2872.81
2881.95
2891.16
2900.42
2909.71
2919.04
2928.38
2937.72
2947.05
2956.35
2965.61
2974.82
2983.97
2993.03
3002.01
3010.87
3019.61
3028.21
3036.66
3044.94
3053.05
3060.96
3068.66
3076.15
3083.39
3090.39
3097.13
3103.59
3109.77
3115.65
3121.22
3126.47
3131.39
3135.97
3140.2
3144.07
3147.58
3150.71
3153.47
3155.84
3157.81
3159.4
3160.59
3161.39
3161.85
2131.06
2131.17
2131.09
2131.02
2130.93
2130.82
2130.69
2130.54
2130.38
2130.2
2130.01
2129.81
2129.6
2129.38
2129.17
2128.95
2128.74
2128.53
2128.34
2128.16
2128
2127.86
2127.75
2127.67
2127.62
2127.61
2127.65
2127.73
2127.87
2128.07
2128.33
2128.65
2129.05
2129.53
2130.09
2130.74
2131.48
2132.31
2133.25
2134.3
2135.45
2136.73
2138.12
2139.64
2141.29
2143.08
2145
2147.07
2149.28
2151.65
2154.17
2156.84
2159.68
2162.68
2165.85
2169.19
2172.7
2176.38
2180.25
2184.29
2188.51
2192.92
2197.51
2202.28
2207.24
2212.39
2217.72
2223.24
2228.94
2234.83
2240.9
2247.16
2253.59
2260.21
2267.01
2273.98
2281.13
2288.45
2295.94
2303.6
2311.41
2319.39
2327.52
2335.8
2344.23
2352.8
2361.5
2370.34
2379.31
2388.39
2397.6
2406.91
2416.33
2425.85
2435.45
2445.15
2454.92
2464.77
2474.68
2484.65
2494.67
2504.74
2514.84
2524.98
2535.14
2545.31
2555.49
2565.68
2575.86
2586.02
2596.16
2606.28
2616.36
2626.4
2636.38
2646.31
2656.18
2665.97
2675.69
2685.32
2694.86
2704.3
2713.63
2722.86
2731.96
2740.94
2749.79
2758.51
2767.08
2775.51
2783.78
2791.9
2799.86
2807.64
2815.26
2822.7
2829.95
2837.03
2843.91
2850.6
2857.1
2863.39
2869.49
2875.38
2881.06
2886.53
2891.79
2896.84
2901.67
2906.28
2910.67
2914.84
2918.79
2922.52
2926.03
2929.31
2932.37
2935.2
2937.82
2940.21
2942.38
2944.32
2946.05
2947.56
2948.85
2949.92
2950.78
2951.42
2951.86
2952.08
2952.1
2951.91
2951.52
2950.93
2950.15
2949.17
2948.01
2946.65
2945.11
2943.4
2941.5
2939.43
2937.2
2934.8
2932.23
2929.51
2926.64
2923.62
2920.45
2917.15
2913.7
2910.13
2906.44
2902.62
2898.68
2894.63
2890.48
2886.23
2881.87
2877.43
2872.9
2868.29
2863.6
2858.84
2854.02
2849.13
2844.19
2839.2
2834.17
2829.09
2823.99
2818.85
2813.69
2808.51
2803.32
2798.12
2792.92
2787.73
2782.54
2777.37
2772.22
2767.09
2761.99
2756.93
2751.91
2746.93
2742.01
2737.15
2732.34
2727.61
2722.94
2718.35
2713.85
2709.43
2705.11
2700.89
2696.76
2692.75
2688.85
2685.07
2681.41
2677.88
2674.48
2671.22
2668.11
2665.14
2662.33
2659.67
2657.17
2654.84
2652.69
2650.71
2648.91
2647.3
2645.87
2644.64
2643.61
2642.78
2642.16
2641.75
2641.55
2641.57
2641.81
2642.28
2642.97
2643.9
2645.06
2646.45
2648.09
2649.97
2652.09
2654.45
2657.06
2659.92
2663.02
2666.37
2669.97
2673.82
2677.91
2682.26
2686.85
2691.68
2696.76
2702.07
2707.63
2713.42
2719.44
2725.69
2732.16
2738.85
2745.75
2752.86
2760.17
2767.68
2775.38
2783.26
2791.31
2799.53
2807.92
2816.45
2825.12
2833.92
2842.84
2851.88
2861.02
2870.24
2879.55
2888.92
2898.35
2907.81
2917.31
2926.83
2936.35
2945.86
2955.35
2964.8
2974.2
2983.53
2992.79
3001.95
3011
3019.93
3028.72
3037.36
3045.83
3054.12
3062.22
3070.1
3077.76
3085.18
3092.34
3099.24
3105.86
3112.19
3118.22
3123.93
3129.31
3134.36
3139.05
3143.39
3147.36
3150.96
3154.17
3157
3159.43
3161.46
3163.08
3164.3
3165.12
3165.6
2127.79
2127.89
2127.81
2127.73
2127.64
2127.51
2127.37
2127.2
2127.02
2126.82
2126.61
2126.38
2126.14
2125.9
2125.65
2125.4
2125.16
2124.92
2124.69
2124.47
2124.27
2124.09
2123.94
2123.81
2123.72
2123.67
2123.66
2123.7
2123.8
2123.95
2124.16
2124.45
2124.8
2125.24
2125.75
2126.36
2127.05
2127.85
2128.75
2129.76
2130.88
2132.12
2133.48
2134.97
2136.59
2138.35
2140.25
2142.29
2144.48
2146.83
2149.33
2152
2154.82
2157.82
2160.98
2164.32
2167.84
2171.53
2175.4
2179.46
2183.7
2188.12
2192.74
2197.54
2202.53
2207.71
2213.08
2218.64
2224.39
2230.33
2236.46
2242.78
2249.28
2255.96
2262.83
2269.88
2277.11
2284.51
2292.08
2299.83
2307.74
2315.81
2324.04
2332.43
2340.96
2349.65
2358.47
2367.42
2376.51
2385.72
2395.05
2404.49
2414.04
2423.69
2433.44
2443.27
2453.18
2463.17
2473.23
2483.34
2493.51
2503.73
2513.98
2524.27
2534.58
2544.9
2555.24
2565.58
2575.91
2586.22
2596.52
2606.79
2617.02
2627.21
2637.35
2647.43
2657.44
2667.38
2677.25
2687.02
2696.7
2706.28
2715.76
2725.12
2734.36
2743.47
2752.45
2761.29
2769.99
2778.54
2786.93
2795.16
2803.23
2811.12
2818.84
2826.38
2833.74
2840.9
2847.88
2854.65
2861.23
2867.61
2873.77
2879.73
2885.48
2891.01
2896.33
2901.43
2906.3
2910.96
2915.39
2919.6
2923.58
2927.33
2930.86
2934.16
2937.24
2940.08
2942.7
2945.09
2947.25
2949.19
2950.9
2952.39
2953.66
2954.71
2955.53
2956.15
2956.54
2956.72
2956.69
2956.46
2956.02
2955.37
2954.52
2953.48
2952.25
2950.82
2949.21
2947.41
2945.43
2943.28
2940.95
2938.46
2935.8
2932.99
2930.01
2926.89
2923.62
2920.21
2916.66
2912.97
2909.16
2905.23
2901.18
2897.01
2892.74
2888.36
2883.88
2879.31
2874.66
2869.92
2865.1
2860.21
2855.25
2850.24
2845.16
2840.04
2834.87
2829.66
2824.42
2819.15
2813.85
2808.54
2803.22
2797.88
2792.55
2787.22
2781.9
2776.59
2771.31
2766.05
2760.82
2755.63
2750.47
2745.37
2740.32
2735.32
2730.39
2725.53
2720.74
2716.03
2711.4
2706.87
2702.42
2698.08
2693.84
2689.71
2685.7
2681.8
2678.03
2674.39
2670.89
2667.52
2664.3
2661.23
2658.32
2655.56
2652.97
2650.54
2648.29
2646.22
2644.34
2642.64
2641.13
2639.82
2638.71
2637.8
2637.11
2636.63
2636.36
2636.32
2636.5
2636.91
2637.56
2638.43
2639.55
2640.91
2642.5
2644.35
2646.44
2648.78
2651.38
2654.22
2657.32
2660.67
2664.27
2668.13
2672.24
2676.61
2681.22
2686.09
2691.2
2696.57
2702.17
2708.02
2714.1
2720.42
2726.97
2733.74
2740.73
2747.94
2755.36
2762.97
2770.79
2778.79
2786.97
2795.33
2803.84
2812.52
2821.34
2830.3
2839.39
2848.59
2857.9
2867.3
2876.79
2886.34
2895.96
2905.62
2915.32
2925.04
2934.76
2944.48
2954.18
2963.84
2973.45
2983
2992.47
3001.85
3011.12
3020.26
3029.27
3038.13
3046.81
3055.31
3063.61
3071.7
3079.56
3087.18
3094.54
3101.63
3108.43
3114.93
3121.12
3126.99
3132.53
3137.71
3142.54
3147
3151.09
3154.79
3158.1
3161
3163.5
3165.59
3167.27
3168.51
3169.36
3169.86
2124.14
2124.24
2124.16
2124.07
2123.96
2123.83
2123.67
2123.48
2123.28
2123.06
2122.81
2122.56
2122.29
2122.02
2121.74
2121.45
2121.17
2120.89
2120.61
2120.35
2120.11
2119.88
2119.68
2119.51
2119.37
2119.27
2119.21
2119.2
2119.25
2119.35
2119.51
2119.74
2120.05
2120.43
2120.9
2121.46
2122.11
2122.86
2123.71
2124.68
2125.76
2126.96
2128.28
2129.73
2131.32
2133.05
2134.92
2136.93
2139.1
2141.43
2143.91
2146.56
2149.38
2152.37
2155.53
2158.86
2162.38
2166.08
2169.97
2174.04
2178.29
2182.74
2187.38
2192.22
2197.24
2202.46
2207.88
2213.48
2219.29
2225.28
2231.47
2237.85
2244.43
2251.19
2258.13
2265.27
2272.58
2280.08
2287.75
2295.59
2303.61
2311.79
2320.13
2328.64
2337.29
2346.1
2355.05
2364.13
2373.36
2382.7
2392.18
2401.76
2411.46
2421.26
2431.16
2441.15
2451.22
2461.37
2471.58
2481.86
2492.2
2502.58
2513
2523.46
2533.94
2544.43
2554.94
2565.45
2575.95
2586.44
2596.91
2607.35
2617.75
2628.11
2638.42
2648.67
2658.85
2668.95
2678.98
2688.92
2698.76
2708.5
2718.13
2727.64
2737.03
2746.29
2755.42
2764.4
2773.24
2781.92
2790.44
2798.8
2806.99
2815.01
2822.85
2830.5
2837.96
2845.23
2852.31
2859.18
2865.85
2872.31
2878.56
2884.6
2890.42
2896.02
2901.4
2906.56
2911.49
2916.2
2920.67
2924.92
2928.93
2932.72
2936.27
2939.59
2942.68
2945.53
2948.15
2950.54
2952.7
2954.63
2956.33
2957.8
2959.04
2960.06
2960.85
2961.42
2961.78
2961.91
2961.83
2961.54
2961.03
2960.32
2959.41
2958.3
2956.98
2955.48
2953.78
2951.89
2949.82
2947.58
2945.15
2942.56
2939.79
2936.87
2933.78
2930.55
2927.16
2923.63
2919.95
2916.15
2912.21
2908.14
2903.96
2899.66
2895.25