/*--------------------------------*- C++ -*----------------------------------*\
| =========                 |                                                 |
| \\      /  F ield         | OpenFOAM: The Open Source CFD Toolbox           |
|  \\    /   O peration     | Version:  v2006                                 |
|   \\  /    A nd           | Website:  www.openfoam.com                      |
|    \\/     M anipulation  |                                                 |
\*---------------------------------------------------------------------------*/
FoamFile
{
    version     2.0;
    format      ascii;
    class       volVectorField;
    location    "0.8";
    object      U;
}
// * * * * * * * * * * * * * * * * * * * * * * * * * * * * * * * * * * * * * //

dimensions      [0 1 -1 0 0 0 0];


internalField   nonuniform List<vector> 
150000
(
(0.0279271 0.00447408 0)
(-0.0474707 0.00332212 0)
(0.00655897 0.00371389 0)
(-0.0577371 0.00381946 0)
(-0.0205189 0.00381471 0)
(-0.0668422 0.00378126 0)
(-0.0476818 0.00376369 0)
(-0.0765356 0.00370807 0)
(-0.0727596 0.0036975 0)
(-0.0883813 0.00362831 0)
(-0.0943267 0.00359579 0)
(-0.103479 0.00353634 0)
(-0.111798 0.00347752 0)
(-0.120075 0.00341253 0)
(-0.128168 0.00334301 0)
(-0.136088 0.00326888 0)
(-0.143828 0.00319032 0)
(-0.151375 0.00310731 0)
(-0.158712 0.00301999 0)
(-0.165834 0.00292873 0)
(-0.172736 0.00283381 0)
(-0.179403 0.0027353 0)
(-0.185827 0.00263368 0)
(-0.192007 0.00252848 0)
(-0.197938 0.00242145 0)
(-0.203597 0.00231382 0)
(-0.208991 0.0022016 0)
(-0.214122 0.00208838 0)
(-0.218976 0.00197358 0)
(-0.223554 0.00185822 0)
(-0.227855 0.00174177 0)
(-0.231876 0.00162481 0)
(-0.235615 0.00150793 0)
(-0.239073 0.00139094 0)
(-0.242252 0.00127381 0)
(-0.245149 0.00115622 0)
(-0.247765 0.00104039 0)
(-0.250107 0.000924406 0)
(-0.252173 0.000809473 0)
(-0.253961 0.00069612 0)
(-0.255478 0.000582209 0)
(-0.256725 0.000469128 0)
(-0.257704 0.000356463 0)
(-0.258414 0.000244329 0)
(-0.258856 0.000132063 0)
(-0.259031 2.0747e-05 0)
(-0.258941 -8.75423e-05 0)
(-0.258598 -0.000192079 0)
(-0.258008 -0.00029519 0)
(-0.257172 -0.000397164 0)
(-0.256093 -0.000498184 0)
(-0.254772 -0.000598117 0)
(-0.253213 -0.000697336 0)
(-0.251418 -0.000795899 0)
(-0.249387 -0.00089393 0)
(-0.247121 -0.000991119 0)
(-0.244624 -0.00108821 0)
(-0.241896 -0.00118454 0)
(-0.238936 -0.00127969 0)
(-0.235746 -0.00137557 0)
(-0.232329 -0.00147099 0)
(-0.228681 -0.00156735 0)
(-0.224804 -0.0016623 0)
(-0.2207 -0.00175753 0)
(-0.216367 -0.00185258 0)
(-0.211805 -0.00194807 0)
(-0.207014 -0.00204363 0)
(-0.201994 -0.00213928 0)
(-0.196745 -0.0022352 0)
(-0.191265 -0.00233135 0)
(-0.185554 -0.00242792 0)
(-0.179613 -0.00252468 0)
(-0.173438 -0.00262131 0)
(-0.167028 -0.00271896 0)
(-0.160386 -0.00281688 0)
(-0.153509 -0.00291513 0)
(-0.146395 -0.00301355 0)
(-0.139043 -0.00311271 0)
(-0.131453 -0.00321214 0)
(-0.123625 -0.00331202 0)
(-0.115556 -0.00341225 0)
(-0.107245 -0.00351291 0)
(-0.098693 -0.00361397 0)
(-0.0898972 -0.00371571 0)
(-0.0808569 -0.00381749 0)
(-0.0715717 -0.00391976 0)
(-0.0620403 -0.00402249 0)
(-0.0522618 -0.00412544 0)
(-0.0422359 -0.00422869 0)
(-0.0319616 -0.00433212 0)
(-0.0214381 -0.00443588 0)
(-0.0106654 -0.00453976 0)
(0.000357179 -0.00464378 0)
(0.0116299 -0.00474789 0)
(0.0231528 -0.00485201 0)
(0.034926 -0.00495608 0)
(0.0469492 -0.00506004 0)
(0.0592221 -0.0051638 0)
(0.071744 -0.00526729 0)
(0.0845143 -0.00537042 0)
(0.0975319 -0.0054731 0)
(0.110796 -0.00557525 0)
(0.124304 -0.00567675 0)
(0.138056 -0.0057775 0)
(0.152049 -0.00587739 0)
(0.16628 -0.00597632 0)
(0.180748 -0.00607415 0)
(0.19545 -0.00617078 0)
(0.210383 -0.00626608 0)
(0.225543 -0.00635991 0)
(0.240926 -0.00645216 0)
(0.25653 -0.0065427 0)
(0.272348 -0.00663138 0)
(0.288378 -0.00671808 0)
(0.304613 -0.00680266 0)
(0.321049 -0.00688499 0)
(0.33768 -0.00696494 0)
(0.354501 -0.00704238 0)
(0.371504 -0.00711717 0)
(0.388684 -0.00718919 0)
(0.406034 -0.00725831 0)
(0.423546 -0.00732441 0)
(0.441213 -0.00738736 0)
(0.459028 -0.00744705 0)
(0.476982 -0.00750337 0)
(0.495068 -0.0075562 0)
(0.513276 -0.00760545 0)
(0.531598 -0.00765101 0)
(0.550026 -0.00769279 0)
(0.568549 -0.0077307 0)
(0.587159 -0.00776465 0)
(0.605846 -0.00779456 0)
(0.624599 -0.00782037 0)
(0.64341 -0.00784201 0)
(0.662268 -0.00785941 0)
(0.681163 -0.00787253 0)
(0.700085 -0.0078813 0)
(0.719022 -0.0078857 0)
(0.737964 -0.00788569 0)
(0.756902 -0.00788123 0)
(0.775824 -0.0078723 0)
(0.794718 -0.00785889 0)
(0.813576 -0.00784099 0)
(0.832385 -0.00781859 0)
(0.851135 -0.00779169 0)
(0.869815 -0.00776032 0)
(0.888415 -0.00772447 0)
(0.906923 -0.00768418 0)
(0.92533 -0.00763947 0)
(0.943624 -0.00759038 0)
(0.961795 -0.00753694 0)
(0.979832 -0.00747922 0)
(0.997726 -0.00741725 0)
(1.01547 -0.00735111 0)
(1.03304 -0.00728085 0)
(1.05045 -0.00720655 0)
(1.06767 -0.00712829 0)
(1.08469 -0.00704616 0)
(1.10152 -0.00696023 0)
(1.11813 -0.0068706 0)
(1.13453 -0.00677739 0)
(1.1507 -0.00668068 0)
(1.16663 -0.00658059 0)
(1.18231 -0.00647724 0)
(1.19775 -0.00637074 0)
(1.21292 -0.00626121 0)
(1.22783 -0.00614878 0)
(1.24247 -0.00603358 0)
(1.25683 -0.00591575 0)
(1.2709 -0.00579541 0)
(1.28467 -0.0056727 0)
(1.29815 -0.00554776 0)
(1.31133 -0.00542073 0)
(1.3242 -0.00529175 0)
(1.33676 -0.00516096 0)
(1.349 -0.0050285 0)
(1.36093 -0.00489452 0)
(1.37253 -0.00475914 0)
(1.3838 -0.00462251 0)
(1.39474 -0.00448477 0)
(1.40535 -0.00434604 0)
(1.41563 -0.00420647 0)
(1.42557 -0.00406617 0)
(1.43517 -0.00392528 0)
(1.44444 -0.00378391 0)
(1.45336 -0.00364217 0)
(1.46194 -0.0035002 0)
(1.47019 -0.00335811 0)
(1.47809 -0.00321601 0)
(1.48565 -0.00307385 0)
(1.49286 -0.00293154 0)
(1.49974 -0.0027896 0)
(1.50628 -0.00264978 0)
(1.51247 -0.00251402 0)
(1.51833 -0.00237813 0)
(1.52385 -0.00221977 0)
(1.52899 -0.00198734 0)
(1.53366 -0.00160442 0)
(1.53772 -0.00100294 0)
(1.54095 -0.000178778 0)
(1.54319 0.000765483 0)
(1.54441 0.00163599 0)
(1.54478 0.002229 0)
(1.54459 0.0024548 0)
(1.54412 0.0024807 0)
(1.54345 0.00245398 0)
(1.54259 0.00242966 0)
(1.54153 0.00241101 0)
(1.54028 0.00239005 0)
(1.53883 0.002363 0)
(1.5372 0.00232976 0)
(1.53539 0.00229186 0)
(1.53342 0.00224585 0)
(1.53128 0.00220479 0)
(1.52899 0.00217158 0)
(1.52655 0.0021429 0)
(1.52396 0.00211656 0)
(1.52122 0.00209168 0)
(1.51835 0.00206791 0)
(1.51535 0.00204515 0)
(1.51221 0.00202341 0)
(1.50895 0.00200275 0)
(1.50557 0.00198322 0)
(1.50207 0.00196491 0)
(1.49845 0.00194786 0)
(1.49472 0.00193213 0)
(1.49088 0.00191775 0)
(1.48694 0.00190473 0)
(1.48289 0.00189307 0)
(1.47874 0.00188276 0)
(1.4745 0.00187376 0)
(1.47016 0.00186605 0)
(1.46574 0.00185957 0)
(1.46122 0.00185427 0)
(1.45663 0.00185009 0)
(1.45195 0.00184697 0)
(1.44719 0.00184484 0)
(1.44236 0.00184361 0)
(1.43746 0.00184321 0)
(1.43249 0.00184357 0)
(1.42746 0.0018446 0)
(1.42236 0.00184623 0)
(1.41721 0.00184839 0)
(1.412 0.00185098 0)
(1.40674 0.00185394 0)
(1.40144 0.00185719 0)
(1.39609 0.00186064 0)
(1.3907 0.00186423 0)
(1.38527 0.00186789 0)
(1.37982 0.00187157 0)
(1.37433 0.00187522 0)
(1.36881 0.00187878 0)
(1.36327 0.00188222 0)
(1.35772 0.00188551 0)
(1.35214 0.0018886 0)
(1.34655 0.00189148 0)
(1.34096 0.00189413 0)
(1.33535 0.00189653 0)
(1.32974 0.00189862 0)
(1.32413 0.00190037 0)
(1.31853 0.00190167 0)
(1.31292 0.00190238 0)
(1.30733 0.0019023 0)
(1.30175 0.00190123 0)
(1.29618 0.00189897 0)
(1.29063 0.0018954 0)
(1.2851 0.00189058 0)
(1.27959 0.0018847 0)
(1.27411 0.00187812 0)
(1.26866 0.00187117 0)
(1.26323 0.00186411 0)
(1.25784 0.00185706 0)
(1.25247 0.00184995 0)
(1.24714 0.00184266 0)
(1.24184 0.00183505 0)
(1.23658 0.00182704 0)
(1.23136 0.00181862 0)
(1.22617 0.00180984 0)
(1.22102 0.00180073 0)
(1.21591 0.00179134 0)
(1.21085 0.00178171 0)
(1.20582 0.00177186 0)
(1.20083 0.00176181 0)
(1.19589 0.00175158 0)
(1.19099 0.00174119 0)
(1.18613 0.00173068 0)
(1.18132 0.00172006 0)
(1.17655 0.00170936 0)
(1.17182 0.00169861 0)
(1.16714 0.00168783 0)
(1.1625 0.00167705 0)
(1.1579 0.00166629 0)
(1.15335 0.00165558 0)
(1.14884 0.00164493 0)
(1.14437 0.00163438 0)
(1.13994 0.00162394 0)
(1.13556 0.00161363 0)
(1.13121 0.00160349 0)
(1.1269 0.00159352 0)
(1.12264 0.00158375 0)
(1.11841 0.0015742 0)
(1.11422 0.00156489 0)
(1.11007 0.00155583 0)
(1.10595 0.00154704 0)
(1.10187 0.00153854 0)
(1.09783 0.00153035 0)
(1.09381 0.00152247 0)
(1.08983 0.00151493 0)
(1.08589 0.00150774 0)
(1.08197 0.00150091 0)
(1.07808 0.00149446 0)
(1.07422 0.00148839 0)
(1.07038 0.00148272 0)
(1.06658 0.00147746 0)
(1.06279 0.00147262 0)
(1.05903 0.00146822 0)
(1.0553 0.00146425 0)
(1.05158 0.00146073 0)
(1.04789 0.00145768 0)
(1.04421 0.00145509 0)
(1.04055 0.00145297 0)
(1.0369 0.00145134 0)
(1.03327 0.0014502 0)
(1.02966 0.00144955 0)
(1.02605 0.00144941 0)
(1.02246 0.00144978 0)
(1.01887 0.00145067 0)
(1.01529 0.00145208 0)
(1.01172 0.00145401 0)
(1.00816 0.00145648 0)
(1.0046 0.00145949 0)
(1.00104 0.00146304 0)
(0.997477 0.00146715 0)
(0.993918 0.0014718 0)
(0.990356 0.00147701 0)
(0.986791 0.00148279 0)
(0.983221 0.00148914 0)
(0.979645 0.00149606 0)
(0.97606 0.00150356 0)
(0.972467 0.00151166 0)
(0.968863 0.00152034 0)
(0.965246 0.00152963 0)
(0.961616 0.00153951 0)
(0.957971 0.00154999 0)
(0.954309 0.00156108 0)
(0.950629 0.00157278 0)
(0.94693 0.00158508 0)
(0.943209 0.00159799 0)
(0.939467 0.00161152 0)
(0.9357 0.00162565 0)
(0.931907 0.0016404 0)
(0.928088 0.00165577 0)
(0.92424 0.00167175 0)
(0.920363 0.00168835 0)
(0.916454 0.00170556 0)
(0.912512 0.00172338 0)
(0.908536 0.00174182 0)
(0.904524 0.00176087 0)
(0.900475 0.00178054 0)
(0.896387 0.00180082 0)
(0.892259 0.0018217 0)
(0.888089 0.00184319 0)
(0.883877 0.00186529 0)
(0.879619 0.00188799 0)
(0.875317 0.00191129 0)
(0.870966 0.00193518 0)
(0.866567 0.00195966 0)
(0.862118 0.00198472 0)
(0.857618 0.00201037 0)
(0.853064 0.00203659 0)
(0.848456 0.00206338 0)
(0.843793 0.00209073 0)
(0.839073 0.00211863 0)
(0.834294 0.00214708 0)
(0.829457 0.00217607 0)
(0.824558 0.00220559 0)
(0.819597 0.00223562 0)
(0.814573 0.00226616 0)
(0.809485 0.0022972 0)
(0.804331 0.00232873 0)
(0.79911 0.00236072 0)
(0.793821 0.00239317 0)
(0.788463 0.00242607 0)
(0.783035 0.00245939 0)
(0.777536 0.00249313 0)
(0.771964 0.00252725 0)
(0.76632 0.00256176 0)
(0.760601 0.00259662 0)
(0.754808 0.00263181 0)
(0.748939 0.00266733 0)
(0.742993 0.00270313 0)
(0.73697 0.0027392 0)
(0.730869 0.00277551 0)
(0.72469 0.00281204 0)
(0.718431 0.00284876 0)
(0.712093 0.00288564 0)
(0.705674 0.00292266 0)
(0.699175 0.00295977 0)
(0.692595 0.00299695 0)
(0.685933 0.00303416 0)
(0.67919 0.00307137 0)
(0.672366 0.00310854 0)
(0.66546 0.00314564 0)
(0.658473 0.00318261 0)
(0.651404 0.00321943 0)
(0.644255 0.00325605 0)
(0.637024 0.00329242 0)
(0.629713 0.0033285 0)
(0.622322 0.00336423 0)
(0.614851 0.00339958 0)
(0.607302 0.00343449 0)
(0.599675 0.00346891 0)
(0.591971 0.00350278 0)
(0.584191 0.00353605 0)
(0.576336 0.00356866 0)
(0.568408 0.00360056 0)
(0.560408 0.00363168 0)
(0.552337 0.00366195 0)
(0.544197 0.00369133 0)
(0.53599 0.00371974 0)
(0.527717 0.00374712 0)
(0.519382 0.0037734 0)
(0.510985 0.00379852 0)
(0.50253 0.0038224 0)
(0.494018 0.00384497 0)
(0.485453 0.00386616 0)
(0.476838 0.00388591 0)
(0.468174 0.00390413 0)
(0.459465 0.00392076 0)
(0.450715 0.00393572 0)
(0.441927 0.00394893 0)
(0.433104 0.00396032 0)
(0.424251 0.00396982 0)
(0.41537 0.00397735 0)
(0.406466 0.00398282 0)
(0.397543 0.00398617 0)
(0.388605 0.00398732 0)
(0.379658 0.00398618 0)
(0.370704 0.0039827 0)
(0.36175 0.00397679 0)
(0.3528 0.00396838 0)
(0.343859 0.00395741 0)
(0.334932 0.0039438 0)
(0.326024 0.00392749 0)
(0.317141 0.00390841 0)
(0.308288 0.00388651 0)
(0.299471 0.00386173 0)
(0.290696 0.00383402 0)
(0.281968 0.00380333 0)
(0.273292 0.0037696 0)
(0.264676 0.00373281 0)
(0.256124 0.00369292 0)
(0.247644 0.0036499 0)
(0.23924 0.00360373 0)
(0.230919 0.00355439 0)
(0.222686 0.00350187 0)
(0.214548 0.00344617 0)
(0.206511 0.0033873 0)
(0.198581 0.00332526 0)
(0.190762 0.00326009 0)
(0.183062 0.00319182 0)
(0.175485 0.00312049 0)
(0.168037 0.00304615 0)
(0.160724 0.00296888 0)
(0.15355 0.00288875 0)
(0.146519 0.00280585 0)
(0.139638 0.00272029 0)
(0.13291 0.00263219 0)
(0.126339 0.0025417 0)
(0.11993 0.00244896 0)
(0.113684 0.00235417 0)
(0.107607 0.0022575 0)
(0.101699 0.00215918 0)
(0.095964 0.00205943 0)
(0.0904031 0.00195853 0)
(0.0850176 0.00185674 0)
(0.0798082 0.00175436 0)
(0.0747754 0.00165174 0)
(0.0699185 0.0015492 0)
(0.0652368 0.00144712 0)
(0.0607287 0.00134589 0)
(0.0563918 0.00124591 0)
(0.0522233 0.00114761 0)
(0.0482197 0.00105143 0)
(0.0443767 0.000957815 0)
(0.0406894 0.000867231 0)
(0.0371518 0.000780181 0)
(0.0337592 0.000696923 0)
(0.0304951 0.000618967 0)
(0.0274101 0.000541887 0)
(0.0240206 0.00048354 0)
(0.0232964 0.000511339 0)
(0.0134235 -9.38879e-05 0)
(0.0262896 0.00105775 0)
(-0.00323295 -0.000854038 0)
(0.033939 0.000854644 0)
(-0.0205196 -0.000466437 0)
(0.0400322 -0.00122464 0)
(-0.0307329 0.00148888 0)
(0.0372469 0.000153714 0)
(0.0292467 0.0134395 0)
(-0.0485362 0.0101826 0)
(0.00695139 0.0111759 0)
(-0.0590755 0.0115862 0)
(-0.0208161 0.0114678 0)
(-0.0683108 0.0114484 0)
(-0.0486052 0.0113163 0)
(-0.0781233 0.0112085 0)
(-0.074192 0.0111129 0)
(-0.0901233 0.0109436 0)
(-0.096121 0.0108135 0)
(-0.105412 0.0106369 0)
(-0.113823 0.0104526 0)
(-0.122183 0.0102526 0)
(-0.130341 0.0100352 0)
(-0.138312 0.009806 0)
(-0.146087 0.00956372 0)
(-0.153653 0.00930818 0)
(-0.160994 0.00903809 0)
(-0.168105 0.00875831 0)
(-0.174981 0.00846761 0)
(-0.18161 0.00816669 0)
(-0.187983 0.00785595 0)
(-0.1941 0.00753711 0)
(-0.199955 0.00721141 0)
(-0.205534 0.00687994 0)
(-0.210837 0.00654188 0)
(-0.215868 0.00619961 0)
(-0.220616 0.00585361 0)
(-0.225083 0.00550499 0)
(-0.229268 0.00515436 0)
(-0.23317 0.00480252 0)
(-0.236787 0.00445055 0)
(-0.240123 0.00409886 0)
(-0.243179 0.00374798 0)
(-0.245951 0.00339795 0)
(-0.248444 0.00305054 0)
(-0.250664 0.00270472 0)
(-0.252611 0.00236188 0)
(-0.254286 0.00202286 0)
(-0.255693 0.00168532 0)
(-0.256837 0.00135098 0)
(-0.257722 0.0010195 0)
(-0.258351 0.000691014 0)
(-0.258731 0.000364922 0)
(-0.258869 4.21293e-05 0)
(-0.258767 -0.000275625 0)
(-0.258415 -0.000587856 0)
(-0.257816 -0.000896489 0)
(-0.256973 -0.00120191 0)
(-0.255886 -0.00150446 0)
(-0.254559 -0.00180415 0)
(-0.252994 -0.00210153 0)
(-0.251192 -0.00239677 0)
(-0.249155 -0.00269016 0)
(-0.246883 -0.0029816 0)
(-0.244381 -0.00327198 0)
(-0.241648 -0.00356079 0)
(-0.238682 -0.00384738 0)
(-0.235488 -0.00413376 0)
(-0.232067 -0.00442011 0)
(-0.228415 -0.00470887 0)
(-0.224533 -0.00499281 0)
(-0.220425 -0.00527832 0)
(-0.216088 -0.00556388 0)
(-0.211523 -0.00584987 0)
(-0.206729 -0.00613622 0)
(-0.201706 -0.00642307 0)
(-0.196453 -0.00671063 0)
(-0.190971 -0.00699896 0)
(-0.185257 -0.00728823 0)
(-0.179312 -0.00757835 0)
(-0.173134 -0.00786911 0)
(-0.166722 -0.00816141 0)
(-0.160077 -0.00845482 0)
(-0.153198 -0.00874959 0)
(-0.14608 -0.00904576 0)
(-0.138725 -0.00934254 0)
(-0.131133 -0.00964086 0)
(-0.123302 -0.00994046 0)
(-0.11523 -0.0102413 0)
(-0.106916 -0.0105435 0)
(-0.0983611 -0.010847 0)
(-0.089562 -0.0111516 0)
(-0.0805181 -0.0114574 0)
(-0.0712297 -0.0117642 0)
(-0.0616947 -0.0120729 0)
(-0.0519123 -0.0123818 0)
(-0.0418824 -0.0126917 0)
(-0.0316039 -0.0130023 0)
(-0.0210761 -0.0133137 0)
(-0.0102988 -0.0136257 0)
(0.000728629 -0.013938 0)
(0.0120064 -0.0142506 0)
(0.0235347 -0.0145633 0)
(0.0353135 -0.0148758 0)
(0.0473426 -0.015188 0)
(0.0596216 -0.0154996 0)
(0.07215 -0.0158104 0)
(0.0849271 -0.0161202 0)
(0.0979518 -0.0164286 0)
(0.111223 -0.0167354 0)
(0.124739 -0.0170403 0)
(0.138499 -0.017343 0)
(0.1525 -0.0176431 0)
(0.166741 -0.0179403 0)
(0.181219 -0.0182342 0)
(0.19593 -0.0185245 0)
(0.210873 -0.0188108 0)
(0.226043 -0.0190928 0)
(0.241438 -0.01937 0)
(0.257052 -0.019642 0)
(0.272883 -0.0199085 0)
(0.288924 -0.020169 0)
(0.305172 -0.0204232 0)
(0.321621 -0.0206707 0)
(0.338266 -0.020911 0)
(0.3551 -0.0211437 0)
(0.372117 -0.0213685 0)
(0.389311 -0.021585 0)
(0.406676 -0.0217928 0)
(0.424203 -0.0219915 0)
(0.441886 -0.0221807 0)
(0.459717 -0.0223602 0)
(0.477688 -0.0225295 0)
(0.49579 -0.0226884 0)
(0.514015 -0.0228365 0)
(0.532355 -0.0229736 0)
(0.5508 -0.0230993 0)
(0.569342 -0.0232133 0)
(0.58797 -0.0233155 0)
(0.606675 -0.0234056 0)
(0.625448 -0.0234833 0)
(0.644278 -0.0235486 0)
(0.663156 -0.0236011 0)
(0.682071 -0.0236407 0)
(0.701012 -0.0236673 0)
(0.719969 -0.0236807 0)
(0.738933 -0.0236809 0)
(0.757891 -0.0236678 0)
(0.776833 -0.0236412 0)
(0.795749 -0.0236012 0)
(0.814628 -0.0235477 0)
(0.833458 -0.0234807 0)
(0.85223 -0.0234002 0)
(0.870932 -0.0233062 0)
(0.889553 -0.0231988 0)
(0.908083 -0.0230781 0)
(0.926512 -0.022944 0)
(0.944828 -0.0227969 0)
(0.963021 -0.0226367 0)
(0.981081 -0.0224636 0)
(0.998997 -0.0222778 0)
(1.01676 -0.0220794 0)
(1.03436 -0.0218687 0)
(1.05178 -0.0216458 0)
(1.06903 -0.021411 0)
(1.08607 -0.0211646 0)
(1.10292 -0.0209068 0)
(1.11956 -0.0206379 0)
(1.13598 -0.0203582 0)
(1.15217 -0.0200681 0)
(1.16812 -0.0197678 0)
(1.18383 -0.0194576 0)
(1.19928 -0.019138 0)
(1.21448 -0.0188093 0)
(1.22941 -0.018472 0)
(1.24407 -0.0181262 0)
(1.25844 -0.0177726 0)
(1.27254 -0.0174114 0)
(1.28633 -0.0170431 0)
(1.29983 -0.0166681 0)
(1.31303 -0.0162868 0)
(1.32592 -0.0158997 0)
(1.3385 -0.0155071 0)
(1.35076 -0.0151095 0)
(1.36271 -0.0147073 0)
(1.37432 -0.0143009 0)
(1.38561 -0.0138907 0)
(1.39658 -0.0134772 0)
(1.4072 -0.0130607 0)
(1.4175 -0.0126417 0)
(1.42746 -0.0122204 0)
(1.43707 -0.0117974 0)
(1.44636 -0.0113729 0)
(1.45529 -0.0109474 0)
(1.46389 -0.010521 0)
(1.47215 -0.0100943 0)
(1.48007 -0.00966745 0)
(1.48764 -0.00924063 0)
(1.49487 -0.00881389 0)
(1.50176 -0.00838723 0)
(1.50831 -0.00796093 0)
(1.51452 -0.0075354 0)
(1.52039 -0.00710945 0)
(1.52592 -0.00667636 0)
(1.53115 -0.00621955 0)
(1.53618 -0.00571271 0)
(1.54115 -0.00513016 0)
(1.54628 -0.00446676 0)
(1.55174 -0.00375587 0)
(1.55755 -0.00306871 0)
(1.56358 -0.00249149 0)
(1.56952 -0.00207376 0)
(1.5751 -0.0017305 0)
(1.58023 -0.00139718 0)
(1.58493 -0.00105746 0)
(1.5892 -0.000715034 0)
(1.59307 -0.000376018 0)
(1.59651 -4.42e-05 0)
(1.59954 0.000279805 0)
(1.60214 0.000600059 0)
(1.60434 0.000930225 0)
(1.60616 0.00126039 0)
(1.6076 0.00156566 0)
(1.60864 0.00185465 0)
(1.60931 0.00213245 0)
(1.60961 0.00240068 0)
(1.60954 0.00266038 0)
(1.60912 0.00291215 0)
(1.60836 0.00315634 0)
(1.60726 0.00339319 0)
(1.60582 0.00362289 0)
(1.60407 0.00384557 0)
(1.60201 0.00406134 0)
(1.59964 0.0042703 0)
(1.59698 0.00447252 0)
(1.59404 0.00466805 0)
(1.59083 0.00485694 0)
(1.58735 0.00503922 0)
(1.58362 0.00521493 0)
(1.57964 0.00538408 0)
(1.57543 0.00554668 0)
(1.57099 0.00570274 0)
(1.56634 0.00585226 0)
(1.56149 0.00599524 0)
(1.55644 0.00613167 0)
(1.5512 0.00626154 0)
(1.5458 0.00638485 0)
(1.54022 0.00650161 0)
(1.5345 0.00661182 0)
(1.52862 0.00671551 0)
(1.52261 0.00681271 0)
(1.51648 0.00690345 0)
(1.51023 0.00698777 0)
(1.50386 0.00706572 0)
(1.4974 0.00713737 0)
(1.49085 0.00720278 0)
(1.48422 0.00726205 0)
(1.47751 0.00731526 0)
(1.47074 0.00736252 0)
(1.4639 0.00740394 0)
(1.45702 0.00743965 0)
(1.4501 0.00746977 0)
(1.44314 0.00749444 0)
(1.43615 0.00751382 0)
(1.42914 0.00752805 0)
(1.42211 0.00753727 0)
(1.41508 0.00754162 0)
(1.40804 0.00754122 0)
(1.40101 0.00753618 0)
(1.39398 0.00752658 0)
(1.38696 0.00751249 0)
(1.37997 0.007494 0)
(1.37299 0.00747125 0)
(1.36604 0.00744445 0)
(1.35912 0.00741389 0)
(1.35222 0.00737995 0)
(1.34537 0.00734299 0)
(1.33855 0.00730336 0)
(1.33178 0.0072613 0)
(1.32505 0.00721696 0)
(1.31837 0.00717042 0)
(1.31174 0.00712176 0)
(1.30517 0.00707108 0)
(1.29865 0.0070185 0)
(1.29219 0.00696418 0)
(1.28579 0.0069083 0)
(1.27945 0.00685105 0)
(1.27317 0.00679258 0)
(1.26695 0.00673305 0)
(1.2608 0.00667261 0)
(1.25472 0.0066114 0)
(1.2487 0.00654955 0)
(1.24275 0.0064872 0)
(1.23686 0.00642447 0)
(1.23104 0.00636149 0)
(1.22529 0.00629837 0)
(1.21961 0.00623523 0)
(1.21399 0.00617218 0)
(1.20844 0.00610932 0)
(1.20296 0.00604676 0)
(1.19754 0.00598457 0)
(1.19219 0.00592287 0)
(1.18691 0.00586173 0)
(1.18169 0.00580124 0)
(1.17654 0.00574147 0)
(1.17144 0.0056825 0)
(1.16642 0.0056244 0)
(1.16145 0.00556724 0)
(1.15655 0.00551107 0)
(1.1517 0.00545596 0)
(1.14691 0.00540197 0)
(1.14218 0.00534914 0)
(1.13751 0.00529753 0)
(1.1329 0.00524719 0)
(1.12834 0.00519815 0)
(1.12383 0.00515047 0)
(1.11937 0.00510417 0)
(1.11496 0.0050593 0)
(1.11061 0.00501588 0)
(1.1063 0.00497396 0)
(1.10204 0.00493355 0)
(1.09782 0.00489469 0)
(1.09364 0.00485741 0)
(1.08951 0.00482172 0)
(1.08542 0.00478766 0)
(1.08137 0.00475523 0)
(1.07736 0.00472446 0)
(1.07338 0.00469537 0)
(1.06944 0.00466798 0)
(1.06553 0.0046423 0)
(1.06166 0.00461834 0)
(1.05781 0.00459612 0)
(1.054 0.00457564 0)
(1.05021 0.00455693 0)
(1.04645 0.00454 0)
(1.04271 0.00452484 0)
(1.03899 0.00451148 0)
(1.0353 0.00449991 0)
(1.03162 0.00449016 0)
(1.02797 0.00448222 0)
(1.02433 0.0044761 0)
(1.0207 0.0044718 0)
(1.01709 0.00446934 0)
(1.0135 0.00446872 0)
(1.00991 0.00446994 0)
(1.00633 0.00447301 0)
(1.00276 0.00447792 0)
(0.999192 0.0044847 0)
(0.995631 0.00449333 0)
(0.992072 0.00450383 0)
(0.988515 0.00451619 0)
(0.984958 0.00453042 0)
(0.981398 0.00454651 0)
(0.977836 0.00456447 0)
(0.974268 0.0045843 0)
(0.970695 0.004606 0)
(0.967113 0.00462957 0)
(0.963521 0.004655 0)
(0.959919 0.00468231 0)
(0.956304 0.00471147 0)
(0.952676 0.0047425 0)
(0.949031 0.00477539 0)
(0.94537 0.00481014 0)
(0.94169 0.00484674 0)
(0.93799 0.0048852 0)
(0.934268 0.00492549 0)
(0.930524 0.00496762 0)
(0.926755 0.00501159 0)
(0.92296 0.00505738 0)
(0.919137 0.005105 0)
(0.915286 0.00515442 0)
(0.911404 0.00520564 0)
(0.90749 0.00525865 0)
(0.903543 0.00531344 0)
(0.899561 0.00537 0)
(0.895543 0.00542832 0)
(0.891488 0.00548837 0)
(0.887394 0.00555016 0)
(0.883259 0.00561365 0)
(0.879082 0.00567884 0)
(0.874863 0.0057457 0)
(0.870599 0.00581421 0)
(0.866289 0.00588436 0)
(0.861932 0.00595612 0)
(0.857526 0.00602946 0)
(0.853071 0.00610437 0)
(0.848565 0.0061808 0)
(0.844006 0.00625875 0)
(0.839394 0.00633816 0)
(0.834727 0.00641902 0)
(0.830004 0.00650128 0)
(0.825224 0.00658491 0)
(0.820385 0.00666987 0)
(0.815487 0.00675612 0)
(0.810529 0.00684361 0)
(0.805509 0.0069323 0)
(0.800426 0.00702215 0)
(0.79528 0.0071131 0)
(0.790068 0.00720509 0)
(0.784792 0.00729808 0)
(0.779448 0.00739199 0)
(0.774037 0.00748678 0)
(0.768558 0.00758238 0)
(0.76301 0.00767871 0)
(0.757392 0.00777572 0)
(0.751704 0.00787331 0)
(0.745944 0.00797143 0)
(0.740113 0.00806998 0)
(0.73421 0.00816888 0)
(0.728233 0.00826804 0)
(0.722184 0.00836738 0)
(0.71606 0.0084668 0)
(0.709863 0.00856619 0)
(0.703592 0.00866547 0)
(0.697246 0.00876451 0)
(0.690826 0.00886321 0)
(0.684331 0.00896146 0)
(0.677762 0.00905914 0)
(0.671119 0.00915612 0)
(0.664401 0.00925229 0)
(0.657609 0.00934751 0)
(0.650744 0.00944164 0)
(0.643806 0.00953455 0)
(0.636796 0.00962611 0)
(0.629713 0.00971615 0)
(0.622559 0.00980454 0)
(0.615336 0.00989112 0)
(0.608042 0.00997574 0)
(0.600681 0.0100582 0)
(0.593252 0.0101384 0)
(0.585757 0.0102162 0)
(0.578198 0.0102913 0)
(0.570576 0.0103637 0)
(0.562892 0.0104331 0)
(0.555148 0.0104993 0)
(0.547347 0.0105623 0)
(0.539489 0.0106217 0)
(0.531578 0.0106775 0)
(0.523615 0.0107294 0)
(0.515602 0.0107773 0)
(0.507542 0.010821 0)
(0.499438 0.0108603 0)
(0.491292 0.010895 0)
(0.483106 0.0109249 0)
(0.474885 0.01095 0)
(0.46663 0.0109699 0)
(0.458344 0.0109846 0)
(0.450032 0.0109939 0)
(0.441695 0.0109976 0)
(0.433338 0.0109955 0)
(0.424964 0.0109876 0)
(0.416577 0.0109736 0)
(0.408179 0.0109535 0)
(0.399774 0.0109271 0)
(0.391367 0.0108943 0)
(0.382961 0.0108551 0)
(0.37456 0.0108092 0)
(0.366167 0.0107568 0)
(0.357786 0.0106976 0)
(0.34942 0.0106316 0)
(0.341075 0.0105589 0)
(0.332752 0.0104794 0)
(0.324457 0.010393 0)
(0.316192 0.0103 0)
(0.307961 0.0102001 0)
(0.299767 0.0100936 0)
(0.291614 0.00998056 0)
(0.283505 0.00986101 0)
(0.275442 0.00973512 0)
(0.267429 0.00960303 0)
(0.259468 0.00946494 0)
(0.251561 0.00932103 0)
(0.243711 0.00917156 0)
(0.23592 0.00901678 0)
(0.228189 0.00885697 0)
(0.220521 0.00869246 0)
(0.212915 0.00852359 0)
(0.205374 0.00835073 0)
(0.197897 0.00817429 0)
(0.190486 0.00799472 0)
(0.18314 0.00781246 0)
(0.175858 0.00762801 0)
(0.168642 0.0074419 0)
(0.161489 0.00725467 0)
(0.154398 0.00706691 0)
(0.147369 0.00687921 0)
(0.140399 0.00669222 0)
(0.133487 0.00650657 0)
(0.12663 0.00632295 0)
(0.119827 0.00614203 0)
(0.113074 0.00596454 0)
(0.10637 0.00579119 0)
(0.0997109 0.00562269 0)
(0.0930943 0.00545978 0)
(0.0865168 0.0053032 0)
(0.079978 0.00515343 0)
(0.0734606 0.00501236 0)
(0.0670394 0.00487544 0)
(0.0602648 0.00476056 0)
(0.0555944 0.00473954 0)
(0.043213 0.00410677 0)
(0.0502825 0.00515587 0)
(0.0204459 0.00337946 0)
(0.0495836 0.00490218 0)
(-0.00557184 0.00364068 0)
(0.0497081 0.0031949 0)
(-0.0319084 0.00538687 0)
(0.0472151 0.00412868 0)
(0.0285809 0.0223342 0)
(-0.0480114 0.0171479 0)
(0.00672258 0.0186871 0)
(-0.0584077 0.0194433 0)
(-0.0207676 0.0191715 0)
(-0.0676559 0.0191975 0)
(-0.0482926 0.0189108 0)
(-0.0774756 0.0187819 0)
(-0.0736602 0.0185647 0)
(-0.0894577 0.0183171 0)
(-0.0954369 0.0180715 0)
(-0.104691 0.0177777 0)
(-0.113071 0.0174643 0)
(-0.121409 0.0171256 0)
(-0.129552 0.0167542 0)
(-0.13751 0.0163675 0)
(-0.145281 0.0159577 0)
(-0.152852 0.0155254 0)
(-0.160203 0.0150675 0)
(-0.167328 0.0145962 0)
(-0.174226 0.0141061 0)
(-0.180882 0.0135994 0)
(-0.187286 0.0130756 0)
(-0.193439 0.0125405 0)
(-0.199335 0.0119931 0)
(-0.204956 0.0114335 0)
(-0.210305 0.0108678 0)
(-0.215385 0.0102943 0)
(-0.220185 0.00971541 0)
(-0.224705 0.00913152 0)
(-0.228944 0.00854543 0)
(-0.232902 0.00795753 0)
(-0.236574 0.00736895 0)
(-0.239965 0.00678158 0)
(-0.243076 0.00619646 0)
(-0.245904 0.00561467 0)
(-0.248451 0.00503519 0)
(-0.250724 0.00446011 0)
(-0.252722 0.00388976 0)
(-0.254446 0.00332474 0)
(-0.2559 0.00276515 0)
(-0.257089 0.00221143 0)
(-0.258012 0.00166376 0)
(-0.258674 0.00112217 0)
(-0.259077 0.000586824 0)
(-0.259226 5.74863e-05 0)
(-0.25912 -0.000466605 0)
(-0.258765 -0.000985733 0)
(-0.258162 -0.00149951 0)
(-0.257316 -0.00200816 0)
(-0.256226 -0.00251203 0)
(-0.254896 -0.00301151 0)
(-0.253328 -0.00350698 0)
(-0.251524 -0.00399874 0)
(-0.249485 -0.00448717 0)
(-0.247211 -0.00497289 0)
(-0.244707 -0.00545604 0)
(-0.241972 -0.00593712 0)
(-0.239005 -0.00641656 0)
(-0.235811 -0.00689453 0)
(-0.232392 -0.00737132 0)
(-0.228737 -0.00784711 0)
(-0.224853 -0.00832277 0)
(-0.220747 -0.00879848 0)
(-0.21641 -0.00927545 0)
(-0.211845 -0.00975156 0)
(-0.207052 -0.0102285 0)
(-0.20203 -0.0107065 0)
(-0.196778 -0.0111857 0)
(-0.191296 -0.0116662 0)
(-0.185583 -0.0121479 0)
(-0.17964 -0.0126314 0)
(-0.173463 -0.0131167 0)
(-0.167053 -0.0136033 0)
(-0.160409 -0.0140923 0)
(-0.153531 -0.0145843 0)
(-0.146415 -0.0150766 0)
(-0.139061 -0.0155717 0)
(-0.131471 -0.016069 0)
(-0.123641 -0.0165684 0)
(-0.115571 -0.0170697 0)
(-0.107259 -0.0175737 0)
(-0.0987051 -0.0180796 0)
(-0.0899075 -0.018587 0)
(-0.0808654 -0.0190968 0)
(-0.0715788 -0.0196081 0)
(-0.0620451 -0.0201234 0)
(-0.0522636 -0.020638 0)
(-0.0422349 -0.0211546 0)
(-0.0319576 -0.0216725 0)
(-0.0214308 -0.0221917 0)
(-0.0106544 -0.0227118 0)
(0.000372374 -0.0232326 0)
(0.0116496 -0.0237538 0)
(0.0231776 -0.0242751 0)
(0.0349563 -0.0247962 0)
(0.0469855 -0.0253168 0)
(0.0592649 -0.0258365 0)
(0.0717939 -0.0263548 0)
(0.0845718 -0.0268714 0)
(0.0975978 -0.0273857 0)
(0.110871 -0.0278974 0)
(0.124389 -0.0284059 0)
(0.138151 -0.0289107 0)
(0.152154 -0.0294112 0)
(0.166398 -0.0299069 0)
(0.180879 -0.0303972 0)
(0.195594 -0.0308814 0)
(0.210541 -0.031359 0)
(0.225716 -0.0318293 0)
(0.241115 -0.0322917 0)
(0.256735 -0.0327455 0)
(0.272571 -0.03319 0)
(0.288619 -0.0336247 0)
(0.304873 -0.0340487 0)
(0.321329 -0.0344615 0)
(0.337981 -0.0348624 0)
(0.354823 -0.0352507 0)
(0.371849 -0.0356258 0)
(0.389052 -0.035987 0)
(0.406426 -0.0363337 0)
(0.423963 -0.0366652 0)
(0.441656 -0.0369811 0)
(0.459497 -0.0372806 0)
(0.477478 -0.0375632 0)
(0.495592 -0.0378283 0)
(0.513829 -0.0380755 0)
(0.53218 -0.0383042 0)
(0.550638 -0.038514 0)
(0.569191 -0.0387045 0)
(0.587832 -0.0388751 0)
(0.60655 -0.0390255 0)
(0.625336 -0.0391553 0)
(0.64418 -0.0392643 0)
(0.663071 -0.039352 0)
(0.681999 -0.0394183 0)
(0.700955 -0.0394628 0)
(0.719926 -0.0394854 0)
(0.738904 -0.039486 0)
(0.757876 -0.0394642 0)
(0.776833 -0.0394201 0)
(0.795763 -0.0393536 0)
(0.814656 -0.0392645 0)
(0.833501 -0.0391529 0)
(0.852287 -0.0390188 0)
(0.871004 -0.0388623 0)
(0.88964 -0.0386834 0)
(0.908184 -0.0384822 0)
(0.926627 -0.0382589 0)
(0.944957 -0.0380136 0)
(0.963164 -0.0377466 0)
(0.981238 -0.0374581 0)
(0.999168 -0.0371484 0)
(1.01694 -0.0368178 0)
(1.03456 -0.0364665 0)
(1.05199 -0.036095 0)
(1.06925 -0.0357037 0)
(1.08631 -0.0352929 0)
(1.10317 -0.0348631 0)
(1.11982 -0.0344148 0)
(1.13625 -0.0339486 0)
(1.15245 -0.0334648 0)
(1.16842 -0.0329641 0)
(1.18413 -0.032447 0)
(1.1996 -0.0319141 0)
(1.21481 -0.0313661 0)
(1.22975 -0.0308036 0)
(1.24442 -0.0302272 0)
(1.2588 -0.0296375 0)
(1.2729 -0.0290353 0)
(1.28671 -0.0284212 0)
(1.30022 -0.0277959 0)
(1.31342 -0.0271602 0)
(1.32632 -0.0265146 0)
(1.3389 -0.02586 0)
(1.35117 -0.025197 0)
(1.36312 -0.0245263 0)
(1.37474 -0.0238487 0)
(1.38604 -0.0231647 0)
(1.397 -0.0224752 0)
(1.40763 -0.0217807 0)
(1.41793 -0.0210819 0)
(1.42789 -0.0203795 0)
(1.43752 -0.0196741 0)
(1.4468 -0.0189663 0)
(1.45574 -0.0182566 0)
(1.46434 -0.0175458 0)
(1.4726 -0.0168341 0)
(1.48052 -0.0161223 0)
(1.48809 -0.0154106 0)
(1.49532 -0.0146997 0)
(1.50222 -0.0139898 0)
(1.50877 -0.0132804 0)
(1.51498 -0.0125706 0)
(1.52085 -0.0118603 0)
(1.52637 -0.0111547 0)
(1.53154 -0.0104678 0)
(1.53637 -0.00982334 0)
(1.54086 -0.00924482 0)
(1.54503 -0.00873872 0)
(1.54892 -0.00827913 0)
(1.55254 -0.00780921 0)
(1.55587 -0.00726406 0)
(1.55891 -0.00661205 0)
(1.56163 -0.00591398 0)
(1.56405 -0.00521896 0)
(1.56618 -0.00454177 0)
(1.56802 -0.00388034 0)
(1.5696 -0.00322955 0)
(1.57091 -0.00258734 0)
(1.57196 -0.00195331 0)
(1.57276 -0.00132554 0)
(1.5733 -0.000693719 0)
(1.57356 -9.13025e-05 0)
(1.57354 0.000505212 0)
(1.57327 0.0010931 0)