/*--------------------------------*- C++ -*----------------------------------*\
| =========                 |                                                 |
| \\      /  F ield         | OpenFOAM: The Open Source CFD Toolbox           |
|  \\    /   O peration     | Version:  v2006                                 |
|   \\  /    A nd           | Website:  www.openfoam.com                      |
|    \\/     M anipulation  |                                                 |
\*---------------------------------------------------------------------------*/
FoamFile
{
    version     2.0;
    format      ascii;
    class       volScalarField;
    location    "9.5";
    object      r;
}
// * * * * * * * * * * * * * * * * * * * * * * * * * * * * * * * * * * * * * //

dimensions      [1 2 0 0 0 0 0];


internalField   nonuniform List<scalar> 
350
(
9.05769e-17
1.3953e-16
2.62745e-16
5.23312e-16
1.05287e-15
2.11487e-15
4.22924e-15
8.41397e-15
1.66501e-14
3.27696e-14
6.4142e-14
1.24857e-13
2.4169e-13
4.65223e-13
8.90432e-13
1.69456e-12
3.20633e-12
6.03164e-12
1.12802e-11
2.09715e-11
3.87575e-11
7.11987e-11
1.30004e-10
2.35932e-10
4.25542e-10
7.62781e-10
1.35874e-09
2.4051e-09
4.23022e-09
7.39275e-09
1.28363e-08
2.2143e-08
3.79472e-08
6.46015e-08
1.09245e-07
1.835e-07
3.06141e-07
5.07264e-07
8.34738e-07
1.36411e-06
2.21362e-06
3.56692e-06
5.70684e-06
9.06539e-06
1.42969e-05
2.23843e-05
3.47907e-05
5.36764e-05
8.22015e-05
0.000124948
0.000188502
0.000282237
0.000419378
0.000618399
0.000904868
0.00131382
0.00189279
0.00270562
0.00383718
0.00539912
0.00753675
0.0104371
0.0143384
0.0195402
0.0264155
0.0354223
0.0471168
0.0621655
0.0813564
0.105609
0.135978
0.173661
0.219989
0.276419
0.344518
0.42593
0.52235
0.635469
0.766928
0.918252
1.09079
1.28563
1.50356
1.74498
2.00983
2.2976
2.60725
2.9372
3.28539
3.64925
4.02579
4.41165
4.80323
5.19672
5.58828
5.97412
6.35062
6.71442
7.06251
7.39233
7.70178
7.98926
8.25371
8.49454
8.71166
8.90537
9.07635
9.22554
9.35409
9.46331
9.55453
9.62907
9.68816
9.73289
9.76417
9.78267
9.78878
9.78267
9.76417
9.73289
9.68816
9.62907
9.55453
9.46331
9.35409
9.22554
9.07635
8.90537
8.71166
8.49454
8.25371
7.98926
7.70178
7.39233
7.06251
6.71442
6.35062
5.97412
5.58828
5.19672
4.80323
4.41165
4.02579
3.64925
3.28539
2.9372
2.60725
2.2976
2.00983
1.74498
1.50356
1.28563
1.09079
0.918252
0.766928
0.635469
0.52235
0.42593
0.344518
0.276419
0.219989
0.173661
0.135978
0.105609
0.0813564
0.0621655
0.0471168
0.0354223
0.0264155
0.0195402
0.0143384
0.0104371
0.00753675
0.00539913
0.00383718
0.00270562
0.00189279
0.00131382
0.000904868
0.000618399
0.000419378
0.000282237
0.000188502
0.000124948
8.22015e-05
5.36764e-05
3.47907e-05
2.23843e-05
1.42969e-05
9.06539e-06
5.70684e-06
3.56692e-06
2.21362e-06
1.36411e-06
8.34738e-07
5.07264e-07
3.06141e-07
1.835e-07
1.09245e-07
6.46015e-08
3.79472e-08
2.2143e-08
1.28363e-08
7.39275e-09
4.23022e-09
2.4051e-09
1.35874e-09
7.62781e-10
4.25542e-10
2.35932e-10
1.30004e-10
7.11987e-11
3.87575e-11
2.09715e-11
1.12802e-11
6.03164e-12
3.20633e-12
1.69456e-12
8.90432e-13
4.65223e-13
2.4169e-13
1.24857e-13
6.4142e-14
3.27695e-14
1.665e-14
8.41381e-15
4.22889e-15
2.11414e-15
1.05132e-15
5.20049e-16
2.55908e-16
1.25277e-16
6.10132e-17
2.95637e-17
1.42526e-17
6.83672e-18
3.26314e-18
1.5498e-18
7.32458e-19
3.44489e-19
1.61239e-19
7.51069e-20
3.48196e-20
1.60663e-20
7.37857e-21
3.37294e-21
1.53476e-21
6.95151e-22
3.13432e-22
1.40685e-22
6.28643e-23
2.79659e-23
1.23861e-23
5.46179e-24
2.39798e-24
1.04828e-24
4.56295e-25
1.97771e-25
8.53577e-26
3.66857e-26
1.57014e-26
6.6924e-27
2.84077e-27
1.20093e-27
5.0563e-28
2.1203e-28
8.85571e-29
3.68401e-29
1.52652e-29
6.30056e-30
2.59037e-30
1.06087e-30
4.32802e-31
1.75896e-31
7.12152e-32
2.87243e-32
1.15424e-32
4.62087e-33
1.84307e-33
7.32424e-34
2.89997e-34
1.14405e-34
4.49703e-35
1.76135e-35
6.87412e-36
2.67329e-36
1.03596e-36
4.00053e-37
1.53949e-37
5.90379e-38
2.25626e-38
8.59328e-39
3.26174e-39
1.23387e-39
4.65187e-40
1.74796e-40
6.54619e-41
2.44348e-41
9.09071e-42
3.37105e-42
1.246e-42
4.59056e-43
1.68583e-43
6.1712e-44
2.25187e-44
8.19103e-45
2.97006e-45
1.07357e-45
3.86847e-46
1.38964e-46
4.97647e-47
1.77668e-47
6.32365e-48
2.24391e-48
7.93836e-49
2.79993e-49
9.8461e-50
3.45212e-50
1.20676e-50
4.20603e-51
1.46167e-51
5.06472e-52
1.74984e-52
6.02816e-53
2.07071e-53
7.09266e-54
2.42247e-54
8.25039e-55
2.80196e-55
9.48914e-56
3.20461e-56
1.07922e-56
3.62445e-57
1.21387e-57
4.05421e-58
1.35037e-58
4.4855e-59
1.48591e-59
4.90905e-60
1.61746e-60
5.31504e-61
1.74189e-61
5.69349e-62
1.85604e-62
6.03466e-63
1.957e-63
6.33161e-64
2.04871e-64
6.78535e-65
2.7834e-65
)
;

boundaryField
{
    right
    {
        type            zeroGradient;
    }
    left
    {
        type            inletOutlet;
        inletValue      uniform 0;
        value           uniform 9.05769e-17;
    }
    top
    {
        type            zeroGradient;
    }
    bottom
    {
        type            zeroGradient;
    }
    empty
    {
        type            empty;
    }
}


// ************************************************************************* //
