/*--------------------------------*- C++ -*----------------------------------*\
| =========                 |                                                 |
| \\      /  F ield         | OpenFOAM: The Open Source CFD Toolbox           |
|  \\    /   O peration     | Version:  v2006                                 |
|   \\  /    A nd           | Website:  www.openfoam.com                      |
|    \\/     M anipulation  |                                                 |
\*---------------------------------------------------------------------------*/
FoamFile
{
    version     2.0;
    format      ascii;
    class       volVectorField;
    location    "5.3";
    object      U;
}
// * * * * * * * * * * * * * * * * * * * * * * * * * * * * * * * * * * * * * //

dimensions      [0 1 -1 0 0 0 0];


internalField   nonuniform List<vector> 
52500
(
(0.000103244 -0.00182297 0)
(0.00310119 -0.00315621 0)
(0.00631884 -0.00293389 0)
(0.00877262 -0.00263035 0)
(0.0112309 -0.0025284 0)
(0.0135585 -0.00250742 0)
(0.0159143 -0.00248744 0)
(0.0182385 -0.00245611 0)
(0.0205222 -0.00241618 0)
(0.0227662 -0.00236989 0)
(0.0249631 -0.00231949 0)
(0.0271083 -0.00226353 0)
(0.0291978 -0.00220297 0)
(0.031227 -0.00213768 0)
(0.0331915 -0.00206831 0)
(0.0350879 -0.00199411 0)
(0.0369108 -0.0019163 0)
(0.038656 -0.00183395 0)
(0.0403205 -0.00174792 0)
(0.0418986 -0.0016577 0)
(0.0433885 -0.00156328 0)
(0.044786 -0.00146582 0)
(0.0460853 -0.00136532 0)
(0.047286 -0.00126139 0)
(0.0483839 -0.00115518 0)
(0.0493733 -0.00104609 0)
(0.0502533 -0.000934024 0)
(0.0510217 -0.00081971 0)
(0.0516751 -0.000703462 0)
(0.0522091 -0.000585443 0)
(0.0526209 -0.000464935 0)
(0.0529098 -0.000341443 0)
(0.0530728 -0.000214824 0)
(0.0531062 -8.42462e-05 0)
(0.0530066 5.07075e-05 0)
(0.0527716 0.000190424 0)
(0.0523978 0.000335586 0)
(0.0518817 0.000486751 0)
(0.0512198 0.00064393 0)
(0.0504103 0.000806675 0)
(0.0494458 0.000970394 0)
(0.0483317 0.00112584 0)
(0.047075 0.00126847 0)
(0.0456784 0.00140107 0)
(0.0441439 0.00152732 0)
(0.0424718 0.00164954 0)
(0.0406647 0.00176856 0)
(0.0387271 0.00188484 0)
(0.0366585 0.0019974 0)
(0.0344585 0.00210785 0)
(0.0321322 0.00221379 0)
(0.0296801 0.00231565 0)
(0.0271066 0.00241168 0)
(0.024417 0.00249751 0)
(0.0216164 0.00256606 0)
(0.0187187 0.00260466 0)
(0.0157433 0.00260783 0)
(0.012705 0.00259121 0)
(0.00960649 0.00257708 0)
(0.00643614 0.00258581 0)
(0.00318548 0.0026228 0)
(-0.000156121 0.00268008 0)
(-0.00359657 0.0027479 0)
(-0.00713664 0.00281984 0)
(-0.0107753 0.00289316 0)
(-0.0145102 0.00296865 0)
(-0.0183435 0.00304059 0)
(-0.0222683 0.00311216 0)
(-0.0262875 0.00317978 0)
(-0.0303991 0.00324903 0)
(-0.0345947 0.00331388 0)
(-0.0388761 0.00337735 0)
(-0.0432389 0.00343711 0)
(-0.0476821 0.0034957 0)
(-0.052203 0.0035523 0)
(-0.0567987 0.0036036 0)
(-0.0614659 0.00365275 0)
(-0.0662006 0.00369906 0)
(-0.0710046 0.00374314 0)
(-0.0758705 0.00378691 0)
(-0.080793 0.00382895 0)
(-0.0857718 0.00387016 0)
(-0.0908043 0.00391306 0)
(-0.0958897 0.00396282 0)
(-0.10103 0.00402588 0)
(-0.106229 0.00410616 0)
(-0.111494 0.00420132 0)
(-0.116826 0.00430288 0)
(-0.122224 0.00440052 0)
(-0.127684 0.00448697 0)
(-0.133198 0.00455961 0)
(-0.138759 0.00461871 0)
(-0.14436 0.00466534 0)
(-0.149994 0.00470062 0)
(-0.155654 0.00472568 0)
(-0.161335 0.00474177 0)
(-0.167032 0.00475037 0)
(-0.172738 0.00475282 0)
(-0.178451 0.00475027 0)
(-0.184166 0.00474365 0)
(-0.189879 0.0047335 0)
(-0.195587 0.00472005 0)
(-0.201286 0.00470358 0)
(-0.206974 0.00468433 0)
(-0.212646 0.00466229 0)
(-0.218299 0.00463747 0)
(-0.223931 0.00461021 0)
(-0.229538 0.00458093 0)
(-0.235118 0.00454972 0)
(-0.240666 0.00451662 0)
(-0.246182 0.00448188 0)
(-0.251661 0.00444581 0)
(-0.257101 0.00440858 0)
(-0.262501 0.00437029 0)
(-0.267857 0.00433101 0)
(-0.273166 0.00429082 0)
(-0.278428 0.00424976 0)
(-0.283639 0.00420785 0)
(-0.288797 0.00416507 0)
(-0.293901 0.00412144 0)
(-0.298948 0.00407686 0)
(-0.303935 0.0040312 0)
(-0.308862 0.00398436 0)
(-0.313725 0.00393627 0)
(-0.318522 0.00388687 0)
(-0.323252 0.0038361 0)
(-0.327912 0.00378393 0)
(-0.332501 0.00373033 0)
(-0.337015 0.00367531 0)
(-0.341454 0.00361888 0)
(-0.345815 0.00356107 0)
(-0.350096 0.00350195 0)
(-0.354296 0.00344163 0)
(-0.358413 0.00338024 0)
(-0.362445 0.00331803 0)
(-0.366392 0.00325522 0)
(-0.370251 0.00319196 0)
(-0.37402 0.00312828 0)
(-0.377699 0.00306424 0)
(-0.381286 0.00299985 0)
(-0.384779 0.00293511 0)
(-0.388178 0.00287003 0)
(-0.39148 0.0028046 0)
(-0.394686 0.0027388 0)
(-0.397792 0.00267268 0)
(-0.4008 0.00260629 0)
(-0.403706 0.00253969 0)
(-0.406511 0.00247295 0)
(-0.409214 0.00240612 0)
(-0.411814 0.00233924 0)
(-0.414309 0.00227231 0)
(-0.416701 0.0022053 0)
(-0.418986 0.0021382 0)
(-0.421166 0.00207103 0)
(-0.42324 0.00200384 0)
(-0.425207 0.00193676 0)
(-0.427066 0.00186989 0)
(-0.428817 0.0018034 0)
(-0.430461 0.00173745 0)
(-0.431997 0.00167223 0)
(-0.433425 0.00160801 0)
(-0.434744 0.00154506 0)
(-0.435957 0.00148373 0)
(-0.437061 0.00142436 0)
(-0.438059 0.00136725 0)
(-0.438949 0.00131257 0)
(-0.439733 0.00126014 0)
(-0.440411 0.00120922 0)
(-0.440982 0.00115781 0)
(-0.441447 0.00110083 0)
(-0.441806 0.0010378 0)
(-0.442058 0.000968222 0)
(-0.442202 0.000886338 0)
(-0.442233 0.00078043 0)
(-0.442135 0.000648298 0)
(-0.441907 0.000504521 0)
(-0.441547 0.000362432 0)
(-0.441059 0.00023002 0)
(-0.440447 0.000110557 0)
(-0.439719 4.32147e-06 0)
(-0.43888 -8.98227e-05 0)
(-0.437937 -0.0001734 0)
(-0.436895 -0.000247887 0)
(-0.435759 -0.000314607 0)
(-0.434532 -0.000374682 0)
(-0.433218 -0.00042905 0)
(-0.431821 -0.000478578 0)
(-0.430344 -0.000524216 0)
(-0.42879 -0.000567066 0)
(-0.42716 -0.000608293 0)
(-0.425455 -0.000648982 0)
(-0.423678 -0.000690122 0)
(-0.421828 -0.000732985 0)
(-0.419905 -0.000780016 0)
(-0.417907 -0.000836059 0)
(-0.415829 -0.000909235 0)
(-0.413663 -0.00101044 0)
(-0.411396 -0.00115072 0)
(-0.40901 -0.00133677 0)
(-0.406485 -0.00156628 0)
(-0.403806 -0.00182552 0)
(-0.400964 -0.00209097 0)
(-0.397963 -0.00233505 0)
(-0.39482 -0.0025338 0)
(-0.391557 -0.00267353 0)
(-0.388204 -0.00275373 0)
(-0.384788 -0.00278543 0)
(-0.381329 -0.00278631 0)
(-0.377837 -0.00277466 0)
(-0.374318 -0.00276467 0)
(-0.370768 -0.0027643 0)
(-0.367183 -0.00277575 0)
(-0.363559 -0.00279752 0)
(-0.359891 -0.00282689 0)
(-0.356177 -0.00286162 0)
(-0.352415 -0.00290067 0)
(-0.348606 -0.00294404 0)
(-0.344747 -0.00299223 0)
(-0.340838 -0.00304572 0)
(-0.336878 -0.00310463 0)
(-0.332865 -0.00316859 0)
(-0.328798 -0.00323688 0)
(-0.324677 -0.00330854 0)
(-0.320501 -0.00338264 0)
(-0.316271 -0.00345833 0)
(-0.311988 -0.00353492 0)
(-0.307652 -0.00361187 0)
(-0.303265 -0.00368871 0)
(-0.298827 -0.00376506 0)
(-0.294341 -0.00384053 0)
(-0.289807 -0.00391483 0)
(-0.285227 -0.00398767 0)
(-0.280604 -0.00405881 0)
(-0.275938 -0.00412803 0)
(-0.271232 -0.00419511 0)
(-0.266487 -0.00425985 0)
(-0.261707 -0.00432206 0)
(-0.256892 -0.00438156 0)
(-0.252045 -0.0044382 0)
(-0.247169 -0.00449183 0)
(-0.242265 -0.00454229 0)
(-0.237336 -0.00458943 0)
(-0.232385 -0.00463312 0)
(-0.227413 -0.0046732 0)
(-0.222424 -0.0047095 0)
(-0.21742 -0.00474185 0)
(-0.212404 -0.00477008 0)
(-0.207378 -0.00479405 0)
(-0.202346 -0.00481359 0)
(-0.19731 -0.00482852 0)
(-0.192272 -0.00483866 0)
(-0.187237 -0.00484382 0)
(-0.182207 -0.0048438 0)
(-0.177185 -0.00483838 0)
(-0.172175 -0.00482734 0)
(-0.167179 -0.00481044 0)
(-0.162202 -0.00478744 0)
(-0.157247 -0.00475806 0)
(-0.152317 -0.004722 0)
(-0.147416 -0.0046789 0)
(-0.142549 -0.00462831 0)
(-0.137719 -0.00456972 0)
(-0.132932 -0.00450249 0)
(-0.128191 -0.0044259 0)
(-0.123502 -0.00433915 0)
(-0.11887 -0.00424134 0)
(-0.114302 -0.00413144 0)
(-0.109803 -0.00400825 0)
(-0.105382 -0.00387042 0)
(-0.101046 -0.00371647 0)
(-0.0968035 -0.00354481 0)
(-0.0926649 -0.00335377 0)
(-0.0886408 -0.00314173 0)
(-0.0847427 -0.00290728 0)
(-0.080983 -0.00264997 0)
(-0.0773754 -0.00237087 0)
(-0.0739349 -0.00207205 0)
(-0.0706757 -0.00175667 0)
(-0.0676107 -0.00142862 0)
(-0.0647512 -0.00109174 0)
(-0.0621069 -0.000749178 0)
(-0.0596865 -0.000403492 0)
(-0.0574971 -5.75668e-05 0)
(-0.0555435 0.000283603 0)
(-0.0538267 0.000610809 0)
(-0.0523413 0.000909459 0)
(-0.0510721 0.00116116 0)
(-0.0499927 0.00134888 0)
(-0.0490673 0.00146412 0)
(-0.048255 0.00151146 0)
(-0.0475178 0.00150635 0)
(-0.0468247 0.00146516 0)
(-0.0461517 0.00139309 0)
(-0.0454765 0.00127932 0)
(-0.0447725 0.0011031 0)
(-0.0440059 0.000848621 0)
(-0.0431408 0.000523007 0)
(-0.0421494 0.000163758 0)
(-0.0410229 -0.000171046 0)
(-0.039782 -0.00041376 0)
(-0.0384711 -0.00052975 0)
(-0.0371477 -0.000521663 0)
(-0.0358658 -0.000430923 0)
(-0.0346639 -0.000314011 0)
(-0.0335589 -0.000218145 0)
(-0.0325502 -0.000165919 0)
(-0.0316245 -0.00015902 0)
(-0.0307665 -0.000181384 0)
(-0.0299603 -0.000219983 0)
(-0.0291935 -0.000264764 0)
(-0.0284579 -0.000312245 0)
(-0.0277481 -0.00036316 0)
(-0.0270607 -0.000418394 0)
(-0.0263928 -0.000478494 0)
(-0.0257422 -0.000543712 0)
(-0.0251054 -0.000614957 0)
(-0.0244798 -0.000690641 0)
(-0.0238622 -0.000769894 0)
(-0.0232502 -0.000851959 0)
(-0.0226417 -0.000936274 0)
(-0.0220334 -0.00102439 0)
(-0.0214242 -0.00111386 0)
(-0.0208118 -0.00120522 0)
(-0.0201953 -0.00129779 0)
(-0.0195729 -0.00139222 0)
(-0.0189431 -0.00148754 0)
(-0.0183044 -0.00158395 0)
(-0.0176562 -0.00168104 0)
(-0.0169973 -0.0017776 0)
(-0.016327 -0.00187202 0)
(-0.015645 -0.0019641 0)
(-0.0149509 -0.00205392 0)
(-0.0142443 -0.00214116 0)
(-0.0135247 -0.00222553 0)
(-0.0127925 -0.00230617 0)
(-0.0120479 -0.00238324 0)
(-0.0112907 -0.00245706 0)
(-0.0105212 -0.0025263 0)
(-0.00974037 -0.00259104 0)
(-0.00894798 -0.00265062 0)
(-0.00814417 -0.00270536 0)
(-0.00733022 -0.00275571 0)
(-0.00650719 -0.00279943 0)
(-0.00567421 -0.0028333 0)
(-0.00483616 -0.00285394 0)
(-0.0039971 -0.00287465 0)
(-0.00316402 -0.00295405 0)
(-0.00230081 -0.0032478 0)
(-0.001061 -0.00342582 0)
(0.000317262 -0.00225491 0)
(-0.00032888 -0.00337402 0)
(0.00218311 -0.00715333 0)
(0.00462181 -0.00628138 0)
(0.00637964 -0.00546348 0)
(0.00815015 -0.00524497 0)
(0.00978703 -0.00521369 0)
(0.0114787 -0.00517018 0)
(0.0131356 -0.00509571 0)
(0.0147656 -0.00500414 0)
(0.0163659 -0.00490146 0)
(0.0179316 -0.00478993 0)
(0.0194592 -0.00466746 0)
(0.0209442 -0.00453592 0)
(0.0223842 -0.00439397 0)
(0.0237772 -0.00424259 0)
(0.0251193 -0.00408106 0)
(0.0264071 -0.00391102 0)
(0.0276376 -0.00373096 0)
(0.0288087 -0.00354246 0)
(0.0299166 -0.00334498 0)
(0.0309577 -0.00313877 0)
(0.0319291 -0.00292504 0)
(0.0328282 -0.00270286 0)
(0.0336536 -0.00247247 0)
(0.0344024 -0.00223563 0)
(0.0350714 -0.00199097 0)
(0.0356583 -0.00173836 0)
(0.0361607 -0.00147925 0)
(0.0365765 -0.00121408 0)
(0.0369034 -0.000943521 0)
(0.0371405 -0.000666621 0)
(0.0372866 -0.000383674 0)
(0.0373389 -9.64883e-05 0)
(0.0372943 0.000194654 0)
(0.0371548 0.000491884 0)
(0.0369227 0.00079458 0)
(0.0365969 0.00110314 0)
(0.0361775 0.00141606 0)
(0.0356663 0.00173322 0)
(0.035063 0.00205468 0)
(0.034374 0.00237911 0)
(0.0335904 0.00270113 0)
(0.0327029 0.00301943 0)
(0.0317093 0.00333856 0)
(0.0306031 0.00365663 0)
(0.0293785 0.00397367 0)
(0.0280355 0.00429072 0)
(0.0265739 0.0046067 0)
(0.0249902 0.00491879 0)
(0.0232809 0.00523028 0)
(0.0214461 0.00553801 0)
(0.0194844 0.00584166 0)
(0.0173901 0.00614199 0)
(0.0151652 0.00643457 0)
(0.0128055 0.0067136 0)
(0.0102953 0.00697378 0)
(0.0076199 0.00721567 0)
(0.00477478 0.00744794 0)
(0.00176126 0.00768133 0)
(-0.00141072 0.00792571 0)
(-0.00472722 0.00818155 0)
(-0.00817554 0.00844319 0)
(-0.0117504 0.00870383 0)
(-0.0154488 0.00896394 0)
(-0.0192633 0.00921896 0)
(-0.0231986 0.00946905 0)
(-0.0272527 0.00971449 0)
(-0.0314177 0.00995511 0)
(-0.035692 0.0101872 0)
(-0.0400786 0.010418 0)
(-0.0445736 0.0106409 0)
(-0.0491732 0.0108577 0)
(-0.0538737 0.0110679 0)
(-0.0586729 0.0112728 0)
(-0.063578 0.0114697 0)
(-0.0685773 0.011661 0)
(-0.0736654 0.0118445 0)
(-0.0788431 0.0120187 0)
(-0.0841067 0.0121856 0)
(-0.0894523 0.0123461 0)
(-0.094876 0.0124981 0)
(-0.100375 0.0126417 0)
(-0.105943 0.0127777 0)
(-0.111577 0.0129084 0)
(-0.117266 0.0130365 0)
(-0.123002 0.0131636 0)
(-0.128774 0.0132891 0)
(-0.134575 0.0134105 0)
(-0.140402 0.0135247 0)
(-0.146254 0.0136296 0)
(-0.152132 0.0137242 0)
(-0.158036 0.0138082 0)
(-0.163967 0.0138817 0)
(-0.169924 0.0139448 0)
(-0.175904 0.0139975 0)
(-0.181906 0.0140402 0)
(-0.187928 0.0140732 0)
(-0.193966 0.0140969 0)
(-0.200018 0.0141116 0)
(-0.206079 0.0141176 0)
(-0.212145 0.0141151 0)
(-0.218214 0.0141043 0)
(-0.224279 0.014085 0)
(-0.230339 0.0140574 0)
(-0.236387 0.0140217 0)
(-0.242422 0.0139777 0)
(-0.248438 0.0139256 0)
(-0.254431 0.0138656 0)
(-0.260398 0.0137978 0)
(-0.266335 0.0137223 0)
(-0.272237 0.0136391 0)
(-0.2781 0.0135484 0)
(-0.283921 0.0134505 0)
(-0.289695 0.0133455 0)
(-0.295419 0.0132334 0)
(-0.301088 0.0131144 0)
(-0.306699 0.0129887 0)
(-0.312247 0.0128564 0)
(-0.317729 0.0127176 0)
(-0.323142 0.0125724 0)
(-0.328481 0.0124209 0)
(-0.333743 0.0122632 0)
(-0.338925 0.0120994 0)
(-0.344023 0.0119295 0)
(-0.349035 0.0117537 0)
(-0.353957 0.011572 0)
(-0.358786 0.0113846 0)
(-0.36352 0.0111916 0)
(-0.368156 0.010993 0)
(-0.372691 0.0107891 0)
(-0.377122 0.0105799 0)
(-0.381448 0.0103657 0)
(-0.385666 0.0101466 0)
(-0.389772 0.00992288 0)
(-0.393766 0.00969484 0)
(-0.397644 0.0094628 0)
(-0.401405 0.00922699 0)
(-0.405047 0.00898756 0)
(-0.408569 0.00874463 0)
(-0.411967 0.0084983 0)
(-0.415241 0.00824864 0)
(-0.41839 0.00799576 0)
(-0.421411 0.00773976 0)
(-0.424305 0.00748076 0)
(-0.427069 0.0072189 0)
(-0.429702 0.00695433 0)
(-0.432205 0.00668722 0)
(-0.434576 0.00641774 0)
(-0.436813 0.00614605 0)
(-0.438918 0.00587233 0)
(-0.440888 0.00559669 0)
(-0.442724 0.00531928 0)
(-0.444425 0.00504021 0)
(-0.445992 0.00475964 0)
(-0.447423 0.00447771 0)
(-0.448719 0.00419457 0)
(-0.44988 0.00391038 0)
(-0.450907 0.00362528 0)
(-0.451799 0.0033394 0)
(-0.452556 0.00305284 0)
(-0.45318 0.00276569 0)
(-0.45367 0.00247798 0)
(-0.454026 0.0021897 0)
(-0.45425 0.00190079 0)
(-0.454342 0.00161115 0)
(-0.454303 0.00132079 0)
(-0.454136 0.00103002 0)
(-0.453842 0.000739407 0)
(-0.453429 0.000451671 0)
(-0.452895 0.000175378 0)
(-0.45223 -9.50981e-05 0)
(-0.451439 -0.000363273 0)
(-0.450529 -0.000633329 0)
(-0.449508 -0.000911662 0)
(-0.448395 -0.0011992 0)
(-0.447198 -0.00148884 0)
(-0.445918 -0.00177459 0)
(-0.444556 -0.00205311 0)
(-0.44311 -0.00232315 0)
(-0.441576 -0.00258463 0)
(-0.43995 -0.00283799 0)
(-0.438231 -0.00308375 0)
(-0.436415 -0.00332239 0)
(-0.434502 -0.00355436 0)
(-0.432492 -0.00378003 0)
(-0.430382 -0.00399976 0)
(-0.428173 -0.00421391 0)
(-0.425866 -0.00442292 0)
(-0.42346 -0.00462735 0)
(-0.420957 -0.00482787 0)
(-0.418357 -0.00502523 0)
(-0.415661 -0.00522022 0)
(-0.412871 -0.00541375 0)
(-0.409988 -0.00560706 0)
(-0.407013 -0.00580204 0)
(-0.403951 -0.00600159 0)
(-0.400809 -0.00620948 0)
(-0.397597 -0.00642968 0)
(-0.39433 -0.00666482 0)
(-0.391028 -0.00691461 0)
(-0.387707 -0.0071746 0)
(-0.38438 -0.00743621 0)
(-0.381051 -0.00768832 0)
(-0.377714 -0.00791996 0)
(-0.374358 -0.00812314 0)
(-0.370964 -0.00829498 0)
(-0.367514 -0.00843806 0)
(-0.363996 -0.00855933 0)
(-0.360403 -0.00866771 0)
(-0.356732 -0.00877158 0)
(-0.352988 -0.00887686 0)
(-0.349175 -0.00898634 0)
(-0.3453 -0.00910008 0)
(-0.341367 -0.00921658 0)
(-0.33738 -0.00933395 0)
(-0.333344 -0.00945078 0)
(-0.329261 -0.0095664 0)
(-0.325135 -0.00968072 0)
(-0.32097 -0.00979391 0)
(-0.316769 -0.00990608 0)
(-0.312537 -0.0100171 0)
(-0.308278 -0.0101267 0)
(-0.303995 -0.0102342 0)
(-0.299691 -0.0103393 0)
(-0.29537 -0.0104416 0)
(-0.291033 -0.0105407 0)
(-0.286684 -0.0106364 0)
(-0.282324 -0.0107285 0)
(-0.277956 -0.0108171 0)
(-0.273581 -0.0109019 0)
(-0.269202 -0.0109828 0)
(-0.26482 -0.0110598 0)
(-0.260436 -0.0111327 0)
(-0.256053 -0.0112014 0)
(-0.251672 -0.011266 0)
(-0.247293 -0.0113262 0)
(-0.242919 -0.0113822 0)
(-0.238551 -0.0114337 0)
(-0.234189 -0.0114807 0)
(-0.229835 -0.0115232 0)
(-0.22549 -0.0115611 0)
(-0.221154 -0.0115944 0)
(-0.216829 -0.0116231 0)
(-0.212515 -0.011647 0)
(-0.208214 -0.0116662 0)
(-0.203924 -0.0116807 0)
(-0.199648 -0.0116902 0)
(-0.195385 -0.0116949 0)
(-0.191137 -0.0116946 0)
(-0.186902 -0.0116894 0)
(-0.182682 -0.011679 0)
(-0.178476 -0.0116635 0)
(-0.174284 -0.0116429 0)
(-0.170107 -0.0116169 0)
(-0.165944 -0.0115856 0)
(-0.161796 -0.0115489 0)
(-0.157661 -0.0115066 0)
(-0.153539 -0.0114587 0)
(-0.149431 -0.011405 0)
(-0.145334 -0.0113454 0)
(-0.14125 -0.0112794 0)
(-0.137177 -0.0112071 0)
(-0.133114 -0.011128 0)
(-0.129061 -0.0110417 0)
(-0.125015 -0.0109479 0)
(-0.120977 -0.0108459 0)
(-0.116944 -0.0107349 0)
(-0.112914 -0.0106141 0)
(-0.108886 -0.0104824 0)
(-0.104858 -0.0103384 0)
(-0.100828 -0.0101806 0)
(-0.0967915 -0.0100071 0)
(-0.0927476 -0.0098158 0)
(-0.0886936 -0.0096043 0)
(-0.0846275 -0.00937055 0)
(-0.0805473 -0.00911313 0)
(-0.0764512 -0.00883111 0)
(-0.0723391 -0.00852426 0)
(-0.068213 -0.00819296 0)
(-0.0640764 -0.00783804 0)
(-0.059934 -0.00746059 0)
(-0.0557908 -0.00706223 0)
(-0.0516513 -0.00664578 0)
(-0.0475199 -0.00621621 0)
(-0.0434018 -0.0057816 0)
(-0.0393039 -0.00535363 0)
(-0.0352365 -0.00494715 0)
(-0.0312142 -0.00457823 0)
(-0.0272543 -0.0042608 0)
(-0.0233728 -0.00400286 0)
(-0.0195805 -0.00380475 0)
(-0.015883 -0.00366078 0)
(-0.0122834 -0.0035624 0)
(-0.00878438 -0.0035024 0)
(-0.00539189 -0.00347738 0)
(-0.00211993 -0.0034864 0)
(0.00101375 -0.00352727 0)
(0.0039741 -0.00359258 0)
(0.00675139 -0.00366689 0)
(0.00934901 -0.00372904 0)
(0.0117766 -0.00375573 0)
(0.0140656 -0.00372642 0)
(0.0162417 -0.00363104 0)
(0.0183236 -0.00347218 0)
(0.0203269 -0.00326104 0)
(0.0222486 -0.00302142 0)
(0.0240838 -0.00278025 0)
(0.0258286 -0.00255972 0)
(0.0274719 -0.00237019 0)
(0.0290113 -0.00221025 0)
(0.030444 -0.00207086 0)
(0.0317669 -0.00194301 0)
(0.0329786 -0.0018205 0)
(0.0340795 -0.00170104 0)
(0.0350668 -0.00158445 0)
(0.0359375 -0.00147254 0)
(0.0366931 -0.00136481 0)
(0.0373314 -0.00126344 0)
(0.0378538 -0.00116708 0)
(0.0382565 -0.00107564 0)
(0.0385374 -0.000989383 0)
(0.0386989 -0.000905921 0)
(0.0387406 -0.000826074 0)
(0.038662 -0.000749097 0)
(0.0384622 -0.000675295 0)
(0.038142 -0.000605426 0)
(0.0377027 -0.000537731 0)
(0.0371424 -0.000471679 0)
(0.0364588 -0.000408596 0)
(0.0356593 -0.000350614 0)
(0.0347447 -0.00029606 0)
(0.0337181 -0.000245185 0)
(0.0325823 -0.000198006 0)
(0.0313384 -0.000154048 0)
(0.0299928 -0.000112388 0)
(0.0285489 -7.41977e-05 0)
(0.0270077 -3.90194e-05 0)
(0.0253767 -6.62867e-06 0)
(0.0236598 2.21326e-05 0)
(0.0218621 4.73665e-05 0)
(0.0199905 7.05029e-05 0)
(0.0180492 9.01766e-05 0)
(0.0160472 0.000105903 0)
(0.0139902 0.000118073 0)
(0.0118854 0.000127627 0)
(0.00977152 0.000140592 0)
(0.00752816 0.000187585 0)
(0.00536109 -0.000116846 0)
(0.0031727 -0.000878287 0)
(0.00184204 0.00105971 0)
(-0.000223042 -0.00480862 0)
(0.00252871 -0.0113085 0)
(0.00532059 -0.00982027 0)
(0.00738489 -0.00840424 0)
(0.00942642 -0.00802465 0)
(0.0113326 -0.00798955 0)
(0.0132894 -0.0079403 0)
(0.0152151 -0.00783391 0)
(0.0171104 -0.00769639 0)
(0.0189735 -0.00754208 0)
(0.0207984 -0.00737358 0)
(0.02258 -0.00719034 0)
(0.0243149 -0.00699179 0)
(0.0260008 -0.00677773 0)
(0.0276338 -0.00654889 0)
(0.0292099 -0.00630462 0)
(0.0307256 -0.00604628 0)
(0.0321775 -0.00577409 0)
(0.0335621 -0.00548823 0)
(0.0348761 -0.00518839 0)
(0.0361161 -0.00487568 0)
(0.0372796 -0.00455083 0)
(0.0383628 -0.00421268 0)
(0.0393632 -0.00386192 0)
(0.040278 -0.00350001 0)
(0.0411045 -0.00312685 0)
(0.0418397 -0.00274227 0)
(0.0424803 -0.00234759 0)
(0.0430232 -0.00194285 0)
(0.0434657 -0.00152811 0)
(0.0438067 -0.00110452 0)
(0.0440433 -0.000671576 0)
(0.0441715 -0.000230776 0)
(0.0441929 0.000217037 0)
(0.0441051 0.000671292 0)
(0.0439044 0.00113057 0)
(0.0435871 0.00159487 0)
(0.0431502 0.00206254 0)
(0.0425949 0.00253271 0)
(0.0419217 0.00300552 0)
(0.0411275 0.00348242 0)
(0.0402066 0.0039675 0)
(0.039163 0.00446165 0)
(0.037996 0.00496303 0)
(0.036701 0.00546883 0)
(0.0352815 0.00597758 0)
(0.0337389 0.00649027 0)
(0.0320712 0.00700479 0)
(0.0302802 0.00751905 0)
(0.0283659 0.00803464 0)
(0.0263259 0.00855069 0)
(0.0241644 0.00906461 0)
(0.0218815 0.0095779 0)
(0.0194736 0.0100915 0)
(0.016941 0.0106067 0)
(0.0142833 0.0111288 0)
(0.0114921 0.0116563 0)
(0.00856213 0.0121805 0)
(0.00549597 0.012694 0)
(0.00229677 0.0131901 0)
(-0.00102796 0.0136698 0)
(-0.00447539 0.0141392 0)
(-0.00803771 0.0145998 0)
(-0.0117146 0.0150535 0)
(-0.0155074 0.0155011 0)
(-0.0194066 0.0159394 0)
(-0.0234138 0.0163714 0)
(-0.0275304 0.0167952 0)
(-0.0317469 0.0172097 0)
(-0.0360656 0.0176148 0)
(-0.040488 0.0180113 0)
(-0.0450061 0.0183972 0)
(-0.0496164 0.018774 0)
(-0.0543219 0.0191394 0)
(-0.0591185 0.0194928 0)
(-0.0640016 0.0198384 0)
(-0.0689752 0.0201725 0)
(-0.0740293 0.0204932 0)
(-0.0791599 0.0208007 0)
(-0.0843669 0.0210955 0)
(-0.0896472 0.0213772 0)
(-0.0949983 0.0216451 0)
(-0.100417 0.0218981 0)
(-0.105901 0.0221347 0)
(-0.111443 0.0223545 0)
(-0.117039 0.0225583 0)
(-0.122682 0.0227488 0)
(-0.128367 0.0229288 0)
(-0.13409 0.0230998 0)
(-0.139848 0.0232615 0)
(-0.145639 0.0234125 0)
(-0.15146 0.0235514 0)
(-0.157308 0.023677 0)
(-0.16318 0.0237886 0)
(-0.169075 0.0238855 0)
(-0.174988 0.0239673 0)
(-0.180916 0.0240335 0)
(-0.186857 0.0240841 0)
(-0.192806 0.0241189 0)
(-0.19876 0.0241379 0)
(-0.204716 0.0241413 0)
(-0.210669 0.0241293 0)
(-0.216616 0.024102 0)
(-0.222554 0.0240594 0)
(-0.228479 0.0240017 0)
(-0.234386 0.023929 0)
(-0.240274 0.0238416 0)
(-0.246137 0.0237394 0)
(-0.251973 0.0236227 0)
(-0.257778 0.0234915 0)
(-0.263548 0.0233461 0)
(-0.26928 0.0231866 0)
(-0.27497 0.0230133 0)
(-0.280615 0.0228262 0)
(-0.286212 0.0226256 0)
(-0.291756 0.0224118 0)
(-0.297245 0.0221849 0)
(-0.302675 0.0219451 0)
(-0.308044 0.0216928 0)
(-0.313347 0.0214283 0)
(-0.318582 0.0211516 0)
(-0.323746 0.0208631 0)
(-0.328836 0.0205632 0)
(-0.333849 0.020252 0)
(-0.338783 0.0199299 0)
(-0.343634 0.0195971 0)
(-0.348401 0.019254 0)
(-0.35308 0.0189009 0)
(-0.35767 0.0185381 0)
(-0.362167 0.0181658 0)
(-0.366571 0.0177845 0)
(-0.370878 0.0173944 0)
(-0.375086 0.0169958 0)
(-0.379194 0.0165891 0)
(-0.383199 0.0161745 0)
(-0.3871 0.0157523 0)
(-0.390895 0.0153228 0)
(-0.394583 0.0148862 0)
(-0.398161 0.0144429 0)
(-0.401629 0.0139932 0)
(-0.404985 0.0135373 0)
(-0.408228 0.0130757 0)
(-0.411356 0.0126086 0)
(-0.414368 0.0121364 0)
(-0.417265 0.0116594 0)
(-0.420043 0.0111781 0)
(-0.422704 0.0106927 0)
(-0.425245 0.0102036 0)
(-0.427667 0.00971115 0)
(-0.429968 0.00921572 0)
(-0.432149 0.00871768 0)
(-0.434209 0.00821742 0)
(-0.436147 0.00771532 0)
(-0.437963 0.00721174 0)
(-0.439658 0.00670703 0)
(-0.44123 0.00620153 0)
(-0.442681 0.0056956 0)
(-0.44401 0.00518958 0)
(-0.445217 0.00468383 0)
(-0.446303 0.0041787 0)
(-0.447268 0.00367456 0)
(-0.448113 0.0031718 0)
(-0.448838 0.00267084 0)
(-0.449443 0.0021722 0)
(-0.449929 0.00167652 0)
(-0.450295 0.00118451 0)
(-0.450541 0.000696906 0)
(-0.450663 0.000214504 0)
(-0.450648 -0.000263596 0)
(-0.450509 -0.000744718 0)
(-0.450267 -0.00122136 0)
(-0.449915 -0.00169203 0)
(-0.449452 -0.00215337 0)
(-0.448876 -0.00259939 0)
(-0.448187 -0.00302863 0)
(-0.447389 -0.00344736 0)
(-0.446481 -0.00386097 0)
(-0.445463 -0.00427232 0)
(-0.444336 -0.00468219 0)
(-0.4431 -0.00509023 0)
(-0.441754 -0.00549564 0)
(-0.4403 -0.0058976 0)
(-0.438739 -0.00629545 0)
(-0.437072 -0.00668866 0)
(-0.4353 -0.00707688 0)
(-0.433424 -0.00745993 0)
(-0.431446 -0.00783779 0)
(-0.429367 -0.00821052 0)
(-0.427189 -0.00857828 0)
(-0.424912 -0.0089413 0)
(-0.422538 -0.00929999 0)
(-0.42007 -0.00965497 0)
(-0.417508 -0.0100071 0)
(-0.414856 -0.0103574 0)
(-0.412115 -0.0107068 0)
(-0.409289 -0.0110553 0)
(-0.406381 -0.0114018 0)
(-0.403398 -0.0117429 0)
(-0.400345 -0.0120739 0)
(-0.397233 -0.0123894 0)
(-0.394068 -0.0126852 0)
(-0.390858 -0.0129598 0)
(-0.387606 -0.0132153 0)
(-0.384312 -0.0134568 0)
(-0.380972 -0.013691 0)
(-0.37758 -0.0139239 0)
(-0.37413 -0.0141592 0)
(-0.370616 -0.0143978 0)
(-0.367035 -0.0146379 0)
(-0.363387 -0.0148763 0)
(-0.359674 -0.0151101 0)
(-0.355901 -0.015337 0)
(-0.352072 -0.015556 0)
(-0.34819 -0.015767 0)
(-0.344259 -0.0159702 0)
(-0.340282 -0.0161661 0)
(-0.336262 -0.0163548 0)
(-0.332201 -0.0165363 0)
(-0.328101 -0.0167102 0)
(-0.323965 -0.0168763 0)
(-0.319796 -0.0170344 0)
(-0.315597 -0.0171844 0)
(-0.311369 -0.0173263 0)
(-0.307116 -0.0174603 0)
(-0.302838 -0.0175867 0)
(-0.298539 -0.0177055 0)
(-0.29422 -0.0178169 0)
(-0.289884 -0.017921 0)
(-0.285531 -0.0180179 0)
(-0.281164 -0.0181076 0)
(-0.276785 -0.0181904 0)
(-0.272396 -0.0182662 0)
(-0.267997 -0.0183351 0)
(-0.263592 -0.0183972 0)
(-0.259181 -0.0184525 0)
(-0.254766 -0.0185012 0)
(-0.250349 -0.0185433 0)
(-0.245931 -0.0185789 0)
(-0.241513 -0.0186081 0)
(-0.237097 -0.0186311 0)
(-0.232684 -0.0186478 0)
(-0.228276 -0.0186585 0)
(-0.223873 -0.0186632 0)
(-0.219476 -0.0186621 0)
(-0.215087 -0.0186553 0)
(-0.210707 -0.0186428 0)
(-0.206337 -0.0186249 0)
(-0.201976 -0.0186017 0)
(-0.197627 -0.0185731 0)
(-0.19329 -0.0185394 0)
(-0.188966 -0.0185006 0)
(-0.184656 -0.0184569 0)
(-0.180359 -0.0184083 0)
(-0.176078 -0.0183548 0)
(-0.171812 -0.0182965 0)
(-0.167561 -0.0182335 0)
(-0.163328 -0.0181657 0)
(-0.159111 -0.0180932 0)
(-0.154913 -0.0180158 0)
(-0.150733 -0.0179335 0)
(-0.146571 -0.0178463 0)
(-0.142429 -0.0177541 0)
(-0.138308 -0.0176566 0)
(-0.134207 -0.0175538 0)
(-0.130127 -0.0174455 0)
(-0.126069 -0.0173313 0)
(-0.122033 -0.0172109 0)
(-0.11802 -0.0170841 0)
(-0.114029 -0.0169502 0)
(-0.110062 -0.0168088 0)
(-0.106117 -0.0166589 0)
(-0.102195 -0.0164996 0)
(-0.0982935 -0.01633 0)
(-0.0944122 -0.0161485 0)
(-0.0905489 -0.0159533 0)
(-0.0867015 -0.0157417 0)
(-0.0828672 -0.0155111 0)
(-0.0790433 -0.0152592 0)
(-0.0752272 -0.0149846 0)
(-0.0714164 -0.0146868 0)
(-0.0676086 -0.0143666 0)
(-0.0638017 -0.0140258 0)
(-0.059994 -0.0136674 0)
(-0.0561843 -0.0132956 0)
(-0.0523732 -0.0129155 0)
(-0.0485633 -0.012533 0)
(-0.0447615 -0.0121543 0)
(-0.0409786 -0.0117849 0)
(-0.0372298 -0.0114294 0)
(-0.0335333 -0.011091 0)
(-0.0299081 -0.0107728 0)
(-0.0263697 -0.0104788 0)
(-0.0229284 -0.0102123 0)
(-0.0195921 -0.00997507 0)
(-0.0163686 -0.00976423 0)
(-0.013266 -0.00957032 0)
(-0.0102939 -0.00937643 0)
(-0.00746189 -0.00916119 0)
(-0.00477677 -0.00889634 0)
(-0.00224128 -0.0085759 0)
(0.000149185 -0.00820041 0)
(0.00240279 -0.00779198 0)
(0.004532 -0.00737794 0)
(0.00656345 -0.00698362 0)
(0.00851864 -0.00661862 0)
(0.0104052 -0.00628827 0)
(0.0122264 -0.0059783 0)
(0.0139778 -0.00567866 0)
(0.0156508 -0.00537901 0)
(0.0172375 -0.00507519 0)
(0.0187308 -0.0047671 0)
(0.020127 -0.00445796 0)
(0.0214254 -0.00414703 0)
(0.0226254 -0.00383655 0)
(0.0237263 -0.00352927 0)
(0.0247315 -0.00322251 0)
(0.0256364 -0.00291748 0)
(0.0264384 -0.00261176 0)
(0.027139 -0.00230829 0)
(0.0277352 -0.00200622 0)
(0.0282318 -0.00170432 0)
(0.0286246 -0.00140405 0)
(0.0289101 -0.00110471 0)
(0.0290919 -0.000806144 0)
(0.029167 -0.000510246 0)
(0.0291367 -0.000215555 0)
(0.0290008 7.71625e-05 0)
(0.0287602 0.000368553 0)
(0.0284161 0.000655645 0)
(0.0279677 0.000936997 0)
(0.0274165 0.00121281 0)
(0.0267594 0.00148311 0)
(0.026 0.00174604 0)
(0.0251402 0.00200219 0)
(0.0241805 0.00224962 0)
(0.0231234 0.0024873 0)
(0.0219723 0.00271527 0)
(0.02073 0.00293278 0)
(0.0194002 0.00313756 0)
(0.0179879 0.00332908 0)
(0.0164976 0.00350672 0)
(0.0149347 0.00366921 0)
(0.0133069 0.00381454 0)
(0.0116178 0.00394006 0)
(0.00987297 0.00404963 0)
(0.00810343 0.00417491 0)
(0.00617964 0.00428221 0)
(0.00441425 0.00382914 0)
(0.00273666 0.00236722 0)
(0.00190517 0.00585584 0)
(-0.000122093 -0.007031 0)
(0.00270178 -0.0161787 0)
(0.00559512 -0.0141332 0)
(0.00777888 -0.0121167 0)
(0.00994851 -0.0115625 0)
(0.0119795 -0.0115087 0)
(0.0140542 -0.0114392 0)
(0.0160956 -0.011288 0)
(0.0181042 -0.0110909 0)
(0.020077 -0.0108693 0)
(0.0220078 -0.0106267 0)
(0.0238933 -0.0103633 0)
(0.0257292 -0.0100778 0)
(0.0275114 -0.00976947 0)
(0.0292378 -0.00943992 0)
(0.0309035 -0.00908968 0)
(0.0325031 -0.00871852 0)
(0.0340346 -0.00832677 0)
(0.0354962 -0.00791538 0)
(0.0368826 -0.00748496 0)
(0.0381881 -0.00703473 0)
(0.0394127 -0.0065662 0)
(0.0405537 -0.00608041 0)
(0.0416052 -0.00557639 0)
(0.042565 -0.00505574 0)
(0.0434322 -0.0045196 0)
(0.0442021 -0.00396729 0)
(0.0448717 -0.00340027 0)
(0.0454406 -0.00281938 0)
(0.0459046 -0.00222409 0)
(0.046263 -0.00161546 0)
(0.0465142 -0.000993416 0)
(0.0466536 -0.000358915 0)
(0.0466793 0.000287365 0)
(0.0465892 0.000944297 0)
(0.0463839 0.00161087 0)
(0.046061 0.00228675 0)
(0.0456166 0.00297167 0)
(0.0450512 0.00366515 0)
(0.0443635 0.00436635 0)
(0.0435509 0.00507325 0)
(0.0426125 0.0057852 0)
(0.0415489 0.00650124 0)
(0.0403615 0.00721784 0)
(0.0390486 0.00793586 0)
(0.037611 0.00865534 0)
(0.0360475 0.0093757 0)
(0.0343538 0.0100962 0)
(0.0325345 0.0108163 0)
(0.0305888 0.011535 0)
(0.0285116 0.0122529 0)
(0.0263066 0.012969 0)
(0.0239747 0.0136813 0)
(0.0215143 0.0143901 0)
(0.018928 0.0150952 0)
(0.0162175 0.0157952 0)
(0.013385 0.0164895 0)
(0.0104389 0.0171773 0)
(0.00737866 0.0178575 0)
(0.00419914 0.0185288 0)
(0.000904418 0.0191914 0)
(-0.00250903 0.019844 0)
(-0.00604315 0.020489 0)
(-0.00969173 0.0211245 0)
(-0.0134535 0.0217511 0)
(-0.0173284 0.0223692 0)
(-0.0213125 0.0229745 0)
(-0.0254037 0.0235694 0)
(-0.029598 0.0241524 0)
(-0.0338938 0.0247218 0)
(-0.038291 0.0252782 0)
(-0.0427843 0.0258209 0)
(-0.0473702 0.0263492 0)
(-0.05205 0.0268613 0)
(-0.0568188 0.0273587 0)
(-0.0616722 0.0278405 0)
(-0.0666137 0.0283059 0)
(-0.0716372 0.0287566 0)
(-0.0767361 0.0291875 0)
(-0.0819079 0.0296016 0)
(-0.0871504 0.0299977 0)
(-0.0924607 0.0303756 0)
(-0.0978361 0.030735 0)
(-0.103274 0.0310756 0)
(-0.108771 0.0313968 0)
(-0.114327 0.0316986 0)
(-0.119938 0.0319813 0)
(-0.125601 0.0322454 0)
(-0.13131 0.0324911 0)
(-0.137063 0.032718 0)
(-0.142853 0.0329255 0)
(-0.148677 0.0331129 0)
(-0.15453 0.0332799 0)
(-0.16041 0.0334261 0)
(-0.166312 0.0335512 0)
(-0.172232 0.033655 0)
(-0.178168 0.0337374 0)
(-0.184115 0.0337985 0)