/*--------------------------------*- C++ -*----------------------------------*\
| =========                 |                                                 |
| \\      /  F ield         | OpenFOAM: The Open Source CFD Toolbox           |
|  \\    /   O peration     | Version:  v2006                                 |
|   \\  /    A nd           | Website:  www.openfoam.com                      |
|    \\/     M anipulation  |                                                 |
\*---------------------------------------------------------------------------*/
FoamFile
{
    version     2.0;
    format      ascii;
    class       surfaceScalarField;
    location    "9.6";
    object      alphaPhi0.water;
}
// * * * * * * * * * * * * * * * * * * * * * * * * * * * * * * * * * * * * * //

dimensions      [0 3 -1 0 0 0 0];
oriented        oriented;


internalField   nonuniform List<scalar> 
299200
(
0.000295137
-0.000295137
0.000956512
-0.000661375
0.00163046
-0.00067395
0.0022419
-0.000611436
0.00280339
-0.000561493
0.00333681
-0.000533421
0.00385624
-0.000519432
0.00436913
-0.000512886
0.00487908
-0.000509946
0.00538768
-0.000508606
0.0058956
-0.00050792
0.00640311
-0.000507512
0.0069104
-0.000507291
0.00741769
-0.000507287
0.00792524
-0.000507547
0.00843332
-0.000508086
0.00894221
-0.000508882
0.0094521
-0.00050989
0.00996316
-0.000511062
0.0104755
-0.000512349
0.0109892
-0.00051371
0.0115043
-0.000515111
0.0120208
-0.000516522
0.0125388
-0.000517915
0.013058
-0.000519262
0.0135786
-0.00052054
0.0141003
-0.000521734
0.0146231
-0.00052284
0.015147
-0.000523863
0.0156718
-0.000524814
0.0161975
-0.000525702
0.0167241
-0.000526533
0.0172514
-0.000527306
0.0177794
-0.000528013
0.018308
-0.000528645
0.0188372
-0.00052919
0.0193669
-0.000529652
0.0198969
-0.000530057
0.0204274
-0.000530471
0.0209584
-0.000531002
0.0214902
-0.000531791
0.0220232
-0.000532989
0.0225579
-0.000534734
0.023095
-0.000537112
0.0236352
-0.000540146
0.0241789
-0.000543781
0.0247268
-0.000547884
0.0252791
-0.000552245
0.0258357
-0.000556582
0.0263962
-0.000560561
0.02696
-0.000563823
0.0275261
-0.000566022
0.0280929
-0.000566876
0.0286592
-0.000566229
0.0292233
-0.000564145
0.0297843
-0.000560993
0.0303418
-0.000557448
0.0308961
-0.000554382
0.0314488
-0.000552668
0.0320018
-0.000552992
0.0325575
-0.000555694
0.0331182
-0.000560709
0.0336858
-0.000567598
0.0342615
-0.000575675
0.0348456
-0.000584172
0.035438
-0.000592395
0.0360379
-0.000599827
0.0366441
-0.000606188
0.0372555
-0.000611417
0.0378711
-0.00061563
0.0384901
-0.000619047
0.0391121
-0.000621921
0.0397365
-0.000624472
0.0403634
-0.000626851
0.0409925
-0.00062912
0.0416238
-0.000631252
0.0422569
-0.000633145
0.0428915
-0.000634625
0.043527
-0.000635451
0.0441623
-0.000635313
0.0447961
-0.000633826
0.0454267
-0.000630572
0.0460519
-0.000625192
0.0466694
-0.000617523
0.0472772
-0.000607751
0.0478737
-0.000596548
0.0484588
-0.00058513
0.049034
-0.000575162
0.0496025
-0.00056851
0.0501694
-0.00056687
0.0507408
-0.000571393
0.0513232
-0.00058238
0.0519222
-0.000599056
0.0525419
-0.000619735
0.0531843
-0.000642339
0.0538494
-0.000665141
0.0545366
-0.000687135
0.0552438
-0.000707204
0.055966
-0.000722215
0.0566917
-0.00072573
0.0574013
-0.00070962
0.0580703
-0.000668989
0.0586776
-0.000607294
0.0592145
-0.00053691
0.0596881
-0.000473595
0.060117
-0.00042889
0.0605222
-0.000405167
0.0609192
-0.000397
0.0613156
-0.000396414
0.0617131
-0.000397499
0.0621109
-0.000397857
0.0625084
-0.000397493
0.0629055
-0.000397091
0.0633026
-0.00039703
0.0636998
-0.000397255
0.0640974
-0.000397543
0.0644951
-0.000397708
0.0648927
-0.000397638
0.0652899
-0.000397232
0.0656862
-0.000396316
0.0660809
-0.000394608
0.0664726
-0.000391726
0.0668599
-0.000387274
0.0672408
-0.00038098
0.0676137
-0.000372855
0.067977
-0.000363281
0.06833
-0.000353003
0.068673
-0.000343015
0.0690073
-0.000334322
0.0693349
-0.000327602
0.0696578
-0.000322862
0.0699768
-0.000319071
0.0702902
-0.00031333
0.0705894
-0.000299263
0.0708552
-0.000265781
0.0710553
-0.000200084
0.0711558
-0.000100482
0.0711517
4.05407e-06
0.0710692
8.2538e-05
0.0709595
0.000109737
0.0708566
0.000102895
0.0707803
7.62622e-05
0.0707436
3.66933e-05
0.0707462
-2.62335e-06
0.0707834
-3.71792e-05
0.0708418
-5.84358e-05
0.0709073
-6.54553e-05
0.0709646
-5.73109e-05
0.0710028
-3.82367e-05
0.0710183
-1.54986e-05
0.0710144
3.90143e-06
0.0709968
1.76239e-05
0.0709686
2.82065e-05
0.0709303
3.83456e-05
0.0708815
4.87435e-05
0.0708223
5.92153e-05
0.0707529
6.93865e-05
0.070674
7.89641e-05
0.0705861
8.78203e-05
0.0704902
9.59619e-05
0.0703867
0.000103477
0.0702762
0.000110498
0.070159
0.000117183
0.0700353
0.000123692
0.0699052
0.000130173
0.0697684
0.000136742
0.0696249
0.000143477
0.0694745
0.000150416
0.069317
0.000157555
0.0691521
0.00016486
0.0689798
0.00017228
0.0688001
0.000179755
0.0686128
0.000187218
0.0684183
0.000194593
0.0682165
0.000201795
0.0680077
0.000208739
0.0677924
0.000215351
0.0675708
0.00022157
0.0673434
0.000227356
0.0671108
0.00023269
0.0668732
0.000237582
0.0666311
0.000242066
0.0663849
0.000246195
0.0661349
0.000250027
0.0658813
0.00025361
0.0656243
0.000256966
0.0653642
0.000260066
0.0651014
0.000262824
0.0648363
0.000265106
0.0645696
0.00026674
0.064302
0.000267545
0.0640347
0.000267366
0.0637686
0.000266078
0.063505
0.000263623
0.063245
0.000260005
0.0629897
0.000255285
0.0627401
0.000249576
0.0624971
0.000243014
0.0622613
0.000235746
0.0620334
0.000227914
0.0618138
0.000219646
0.0616027
0.000211048
0.0614005
0.000202205
0.0612073
0.000193179
0.0610233
0.000184011
0.0608486
0.000174737
0.0606832
0.000165391
0.0605272
0.000156013
0.0603805
0.000146665
0.0602431
0.000137447
0.0601145
0.000128531
0.0599944
0.000120168
0.0598816
0.000112769
0.0597748
0.000106798
0.0596714
0.000103386
0.059573
9.84524e-05
0.0594867
8.62619e-05
0.0593908
9.5914e-05
0.0591857
0.000205139
0.0587312
0.000454448
0.0579513
0.000779921
0.0569005
0.00105075
0.0557514
0.00114911
0.0546838
0.00106762
0.0538066
0.000877176
0.0531293
0.000677341
0.0525807
0.000548621
0.0520748
0.000505907
0.0515614
0.000513408
0.0510357
0.000525661
0.0505185
0.000517247
0.0500324
0.000486052
0.0495904
0.000442017
0.049195
0.000395408
0.0488433
0.000351638
0.0485314
0.000311968
0.0482553
0.000276113
0.0480113
0.000243997
0.0477951
0.000216133
0.0476019
0.000193259
0.047426
0.000175892
0.0472619
0.00016403
0.0471049
0.000157052
0.0469511
0.00015384
0.0467979
0.000153145
0.0466438
0.000154134
0.046487
0.000156794
0.0463251
0.000161835
0.0461556
0.000169585
0.0459736
0.000181924
0.0457729
0.000200717
0.0455453
0.000227674
0.0452812
0.000264005
0.0449715
0.000309787
0.0446082
0.000363269
0.0441879
0.000420275
0.0437138
0.000474077
0.0431977
0.000516168
0.0426593
0.00053842
0.0421223
0.000536962
0.041607
0.000515309
0.0411303
0.000476631
0.0407007
0.000429644
0.0403175
0.000383206
0.0399736
0.000343891
0.0396591
0.000314478
0.0393654
0.000293711
0.0390875
0.00027796
0.0388239
0.000263548
0.0385755
0.000248366
0.0383433
0.000232293
0.0381266
0.000216641
0.0379234
0.000203181
0.0377301
0.000193297
0.0375426
0.000187537
0.037357
0.000185553
0.0371707
0.000186292
0.0369824
0.000188335
0.0367921
0.000190276
0.0366012
0.000190927
0.0364118
0.000189436
0.0362264
0.000185385
0.0360475
0.00017885
0.0358772
0.000170363
0.0357164
0.000160777
0.0355655
0.000150865
0.0354243
0.000141217
0.0352921
0.000132194
0.035168
0.000124098
0.0350515
0.000116574
0.0349424
0.000109098
0.0348411
0.000101263
0.0347482
9.28458e-05
0.0346644
8.38136e-05
0.0345902
7.42446e-05
0.0345259
6.42496e-05
0.034472
5.39301e-05
0.0344287
4.33572e-05
0.0343961
3.25665e-05
0.0343745
2.15772e-05
0.034364
1.04659e-05
0.0343643
-2.3698e-07
0.0343758
-1.15549e-05
0.0343982
-2.23194e-05
0.0344311
-3.29055e-05
0.0344746
-4.35071e-05
0.0345288
-5.42849e-05
0.0345942
-6.53214e-05
0.0346709
-7.67013e-05
0.0347594
-8.84957e-05
0.0348601
-0.000100732
0.0349735
-0.000113405
0.0351
-0.000126497
0.03524
-0.000139982
0.0353938
-0.000153816
0.0355618
-0.000167952
0.0357441
-0.000182337
0.035941
-0.000196925
0.0361527
-0.000211673
0.0363792
-0.000226543
0.0366207
-0.000241502
0.0368772
-0.000256518
0.0371488
-0.000271563
0.0374354
-0.000286615
0.0377371
-0.000301651
0.0380537
-0.000316649
0.0383853
-0.00033159
0.0387318
-0.000346455
0.039093
-0.000361225
0.0394689
-0.000375884
0.0398593
-0.000390415
0.0402641
-0.000404803
0.0406831
-0.000419034
0.0411162
-0.000433094
0.0415632
-0.00044697
0.0420238
-0.000460647
0.042498
-0.000474113
0.0429853
-0.000487355
0.0434857
-0.00050036
0.0439988
-0.000513114
0.0445244
-0.000525603
0.0450622
-0.00053781
0.0456119
-0.000549722
0.0461732
-0.000561323
0.0467458
-0.000572597
0.0473294
-0.000583529
0.0479235
-0.000594102
0.0485278
-0.000604299
0.0491419
-0.000614105
0.0497654
-0.000623504
0.0503979
-0.000632477
0.0510389
-0.000641007
0.0516879
-0.000649074
0.0523446
-0.000656657
0.0530083
-0.000663736
0.0536786
-0.000670289
0.0543549
-0.000676304
0.0550367
-0.000681778
0.0557234
-0.000686727
0.0564146
-0.000691196
0.0571099
-0.000695262
0.0578089
-0.00069903
0.0585116
-0.000702636
0.0592178
-0.000706221
0.0599277
-0.000709909
0.0606415
-0.000713776
0.0613593
-0.000717815
0.0620812
-0.000721906
0.062807
-0.000725811
0.0635362
-0.000729179
0.0642678
-0.000731591
0.0650004
-0.00073262
0.0657323
-0.000731895
0.0664614
-0.000729166
0.0671858
-0.000724339
0.0679033
-0.000717478
0.068612
-0.000708772
0.0693105
-0.000698476
0.0699974
-0.000686845
0.0706714
-0.000674075
0.0713317
-0.000660269
0.0719771
-0.000645441
0.0726067
-0.000629539
0.0732192
-0.00061249
0.0738134
-0.00059425
0.0743882
-0.000574832
0.0749426
-0.000554318
0.0754754
-0.000532827
0.0759859
-0.000510478
0.0764732
-0.00048735
0.0769367
-0.000463474
0.0773755
-0.00043884
0.077789
-0.000413424
0.0781762
-0.000387199
0.0785363
-0.000360139
0.0788685
-0.000332216
0.0791719
-0.000303399
0.0794456
-0.000273666
0.0796886
-0.000243025
0.0799001
-0.000211537
0.0800795
-0.000179329
0.0802261
-0.000146589
0.0803396
-0.000113561
0.0804202
-8.05508e-05
0.0804683
-4.80804e-05
0.0804859
-1.76204e-05
0.0804758
1.00591e-05
0.0804422
3.36243e-05
0.0803884
5.37766e-05
0.0803161
7.22757e-05
0.0802269
8.92692e-05
0.0801219
0.000104924
0.0800031
0.000118802
0.0798707
0.000132455
0.0797239
0.000146818
0.0795608
0.000163103
0.0793786
0.000182166
0.0791746
0.000204049
0.0789465
0.000228071
0.0786933
0.000253203
0.0784147
0.000278549
0.0781111
0.000303653
0.0777826
0.000328499
0.0774293
0.000353297
0.077051
0.000378259
0.0766475
0.000403483
0.0762186
0.000428968
0.0757639
0.000454666
0.0752834
0.000480541
0.0747768
0.000506588
0.0742439
0.000532826
0.0736847
0.000559297
0.0730986
0.000586063
0.0724854
0.000613208
0.0718445
0.000640846
0.0711754
0.000669112
0.0704773
0.000698137
0.0697493
0.000727968
0.0689909
0.000758442
0.0682018
0.000789053
0.0673829
0.000818922
0.0665359
0.000847001
0.0656635
0.00087241
0.0647687
0.000894827
0.063854
0.000914694
0.062921
0.00093299
0.0619703
0.0009507
0.0610019
0.000968359
0.060016
0.000985925
0.059013
0.00100302
0.0579937
0.00101928
0.0569592
0.00103453
0.0559103
0.00104882
0.0548481
0.00106229
0.053773
0.00107507
0.0526857
0.00108725
0.0515868
0.00109889
0.0504768
0.00111001
0.0493562
0.00112063
0.0482255
0.00113072
0.0470852
0.00114024
0.0459361
0.00114915
0.0447787
0.00115744
0.0436136
0.00116508
0.0424415
0.00117205
0.0412632
0.00117833
0.0400793
0.00118394
0.0388904
0.00118888
0.0376972
0.0011932
0.0365003
0.00119691
0.0353002
0.00120006
0.0340975
0.0012027
0.0328926
0.0012049
0.0316859
0.00120671
0.0304777
0.00120821
0.0292682
0.0012095
0.0280576
0.00121063
0.0268458
0.00121175
0.0256329
0.00121296
0.0244185
0.00121432
0.0232026
0.0012159
0.0219849
0.00121775
0.020765
0.00121986
0.0195428
0.00122218
0.0183182
0.00122466
0.017091
0.0012272
0.0158612
0.00122975
0.0146289
0.00123235
0.0133939
0.00123502
0.0121563
0.00123755
0.010917
0.00123931
0.00967778
0.00123922
0.00844156
0.00123621
0.00721168
0.00122989
0.00599208
0.0012196
0.00479156
0.00120052
0.00362695
0.00116461
0.00250759
0.00111936
0.0013487
0.00115889
0.0013487
0.000172041
-0.000467178
0.000678135
-0.00116747
0.00116706
-0.00116287
0.00157443
-0.00101881
0.00192717
-0.000914231
0.00225435
-0.000860605
0.00257216
-0.00083724
0.00288784
-0.000828566
0.00320422
-0.00082632
0.00352231
-0.000826697
0.00384261
-0.000828224
0.0041656
-0.000830494
0.00449181
-0.000833507
0.00482187
-0.000837348
0.00515635
-0.000842031
0.00549573
-0.000847462
0.00584032
-0.000853474
0.0061903
-0.000859868
0.00654568
-0.000866444
0.00690635
-0.000873018
0.00727207
-0.000879424
0.00764248
-0.000885526
0.00801717
-0.000891211
0.00839565
-0.000896391
0.00877739
-0.000901007
0.00916188
-0.000905026
0.00954859
-0.000908446
0.00993704
-0.000911291
0.0103268
-0.0009136
0.0107174
-0.000915422
0.0111085
-0.000916806
0.0114998
-0.000917803
0.0118909
-0.000918471
0.0122818
-0.000918888
0.0126723
-0.000919158
0.0130626
-0.000919429
0.0134528
-0.000919898
0.0138435
-0.000920805
0.0142355
-0.000922413
0.0146294
-0.000924956
0.0150262
-0.000928575
0.0154265
-0.000933259
0.0158306
-0.000938805
0.0162383
-0.000944812
0.0166488
-0.000950727
0.017061
-0.000955912
0.0174728
-0.000959727
0.0178822
-0.000961606
0.0182867
-0.000961126
0.0186843
-0.000958098
0.0190731
-0.00095268
0.0194526
-0.000945534
0.0198237
-0.000937954
0.0201893
-0.000931865
0.0205548
-0.000929575
0.0209271
-0.000933345
0.0213146
-0.000944877
0.021725
-0.000964818
0.0221648
-0.000992441
0.0226375
-0.00102569
0.0231433
-0.00106155
0.0236794
-0.00109674
0.0242401
-0.00112834
0.0248188
-0.00115435
0.0254085
-0.00117389
0.0260032
-0.00118712
0.0265984
-0.001195
0.027191
-0.00119883
0.0277796
-0.00120001
0.0283637
-0.00119968
0.0289433
-0.00119865
0.0295187
-0.00119733
0.03009
-0.00119581
0.0306571
-0.00119396
0.0312196
-0.00119159
0.0317769
-0.00118853
0.0323284
-0.0011847
0.0328739
-0.00118011
0.0334133
-0.00117484
0.0339469
-0.00116892
0.0344754
-0.00116231
0.0349997
-0.00115486
0.0355209
-0.00114637
0.0360401
-0.00113673
0.0365584
-0.00112604
0.0370766
-0.00111481
0.0375955
-0.00110398
0.0381153
-0.00109492
0.0386359
-0.0010892
0.0391574
-0.00108832
0.0396794
-0.00109336
0.0402017
-0.00110473
0.0407246
-0.00112195
0.0412488
-0.00114389
0.0417759
-0.00116944
0.0423093
-0.00119857
0.0428548
-0.00123266
0.0434205
-0.00127287
0.044015
-0.00131672
0.0446448
-0.00135552
0.045311
-0.00137582
0.0460077
-0.00136573
0.0467229
-0.00132244
0.047441
-0.00125506
0.0481477
-0.00118031
0.048833
-0.00111414
0.0494928
-0.001065
0.0501285
-0.00103269
0.0507441
-0.00101202
0.051344
-0.000997353
0.0519312
-0.00098511
0.0525076
-0.000973891
0.053074
-0.000963443
0.0536307
-0.000953737
0.054178
-0.00094462
0.0547164
-0.000935859
0.0552459
-0.000927281
0.0557671
-0.000918834
0.0562805
-0.000910551
0.0567866
-0.000902465
0.0572865
-0.000894498
0.0577811
-0.000886367
0.0582714
-0.000877505
0.0587574
-0.000867065
0.0592386
-0.00085403
0.0597128
-0.000837447
0.0601765
-0.000816719
0.0606254
-0.000791916
0.0610552
-0.000764084
0.061463
-0.000735459
0.0618496
-0.000709443
0.0622208
-0.000690216
0.0625893
-0.00068191
0.0629772
-0.000687136
0.0634162
-0.000704783
0.0639443
-0.000728164
0.0645896
-0.000745837
0.0653376
-0.000743912
0.0661271
-0.000706931
0.0668678
-0.000631028
0.0674859
-0.000515153
0.067926
-0.000363873
0.0681494
-0.000186706
0.0681535
-6.73076e-06
0.0679403
0.000176021
0.0675667
0.000315228
0.0670866
0.000414633
0.0665576
0.000471704
0.0660269
0.000492414
0.065525
0.000486397
0.0650651
0.00046377
0.0646494
0.000433342
0.0642761
0.000401524
0.0639416
0.000372816
0.0636406
0.000349767
0.0633667
0.000333169
0.0631134
0.000322637
0.0628751
0.000317235
0.062647
0.000315932
0.0624252
0.000317832
0.0622064
0.00032223
0.0619883
0.000328592
0.061769
0.000336517
0.061547
0.000345708
0.0613212
0.00035595
0.0610908
0.000367089
0.0608553
0.000379021
0.0606141
0.00039166
0.0603667
0.000404911
0.0601129
0.000418669
0.0598524
0.000432813
0.0595849
0.000447217
0.0593104
0.00046175
0.0590287
0.000476285
0.0587398
0.000490701
0.0584436
0.000504889
0.0581402
0.00051876
0.0578295
0.000532246
0.0575116
0.000545304
0.0571864
0.000557906
0.0568539
0.000570026
0.0565144
0.000581621
0.056168
0.000592608
0.0558151
0.00060284
0.0554567
0.000612093
0.0550936
0.000620062
0.0547273
0.000626379
0.0543594
0.000630644
0.0539921
0.000632481
0.0536272
0.000631586
0.053267
0.000627791
0.0529132
0.000621102
0.0525676
0.000611703
0.0522313
0.000599965
0.0519049
0.000586395
0.0515886
0.000571565
0.0512821
0.000556034
0.0509849
0.000540272
0.050696
0.000524605
0.0504147
0.000509187
0.0501404
0.000494004
0.0498725
0.000478898
0.0496111
0.000463608
0.0493565
0.000447821
0.0491093
0.000431215
0.0488705
0.000413484
0.0486416
0.00039435
0.048424
0.000373549
0.0482199
0.000350819
0.0480315
0.000325843
0.0478619
0.000298169
0.047715
0.000267052
0.0475965
0.000231231
0.0475141
0.000189168
0.0474786
0.000138902
0.0475026
7.44536e-05
0.0476169
-2.79845e-05
0.0479301
-0.0002173
0.0486191
-0.000483928
0.0497993
-0.000725702
0.0513883
-0.000809083
0.0531177
-0.000678603
0.0546597
-0.000392933
0.0557889
-6.15719e-05
0.0564365
0.000229597
0.0566837
0.000430146
0.0566857
0.000546569
0.0565828
0.00060886
0.0564539
0.00064228
0.0563185
0.000661077
0.0561644
0.000671287
0.0559742
0.000676279
0.0557361
0.000680159
0.0554436
0.000687854
0.0550915
0.00070375
0.0546729
0.000730528
0.0541806
0.000768503
0.0536092
0.000815309
0.0529594
0.000865964
0.0522392
0.000913517
0.0514647
0.000950299
0.0506593
0.000969451
0.0498501
0.000966246
0.0490651
0.000938845
0.0483298
0.000888465
0.047665
0.000818984
0.0470857
0.000736041
0.0466011
0.000646479
0.0462136
0.000557083
0.0459215
0.000473972
0.0457206
0.000401588
0.0456059
0.000342412
0.0455727
0.000297221
0.0456169
0.000265588
0.0457338
0.000246409
0.0459159
0.000238167
0.0461511
0.000238816
0.0464218
0.000245504
0.0467054
0.000254795
0.046978
0.000264388
0.0472229
0.000270401
0.0474296
0.000269953
0.0475938
0.000265443
0.047718
0.000258965
0.0478089
0.000252984
0.0478744
0.000248989
0.0479212
0.000246941
0.0479533
0.000245798
0.0479726
0.000244338
0.0479791
0.000241811
0.0479732
0.000238225
0.0479556
0.000234203
0.0479282
0.000230566
0.0478936
0.000227891
0.0478549
0.000226231
0.0478155
0.000225038
0.0477785
0.000223266
0.0477472
0.000219611
0.0477247
0.000212798
0.0477138
0.000201835
0.047717
0.000186166
0.0477366
0.000165782
0.0477742
0.000141303
0.0478307
0.000113889
0.0479064
8.50774e-05
0.0480011
5.61614e-05
0.0481137
2.85611e-05
0.0482427
3.26605e-06
0.0483851
-1.83032e-05
0.0485402
-3.86112e-05
0.0487082
-5.89023e-05
0.0488894
-7.98529e-05
0.0490836
-0.000101419
0.0492905
-0.00012302
0.0495086
-0.000143866
0.049736
-0.000163158
0.0499701
-0.000180188
0.0502079
-0.000194407
0.0504459
-0.00020549
0.0506809
-0.000213428
0.05091
-0.0002186
0.0511316
-0.000221839
0.0513445
-0.000224468
0.0515494
-0.000227178
0.0517475
-0.000231033
0.0519408
-0.000236809
0.0521314
-0.000244882
0.0523213
-0.000255204
0.052512
-0.000267416
0.0527045
-0.000281034
0.0528994
-0.000295607
0.0530968
-0.000310806
0.0532967
-0.000326449
0.0534992
-0.000342453
0.0537042
-0.000358785
0.0539117
-0.000375428
0.0541217
-0.000392371
0.0543344
-0.000409603
0.0545498
-0.000427111
0.0547682
-0.000444886
0.0549896
-0.000462919
0.0552143
-0.000481206
0.0554424
-0.000499743
0.0556744
-0.000518529
0.0559103
-0.000537562
0.0561505
-0.000556836
0.0563952
-0.000576343
0.0566448
-0.000596069
0.0568996
-0.000615999
0.0571598
-0.000636113
0.0574258
-0.000656391
0.0576978
-0.000676805
0.0579761
-0.000697329
0.0582609
-0.000717932
0.0585525
-0.00073858
0.0588511
-0.000759238
0.0591569
-0.000779868
0.05947
-0.00080043
0.0597905
-0.000820885
0.0601186
-0.00084119
0.0604543
-0.000861302
0.0607976
-0.000881178
0.0611487
-0.000900772
0.0615074
-0.000920042
0.0618737
-0.000938942
0.0622477
-0.000957431
0.062629
-0.000975467
0.0630177
-0.000993008
0.0634136
-0.00101002
0.0638166
-0.00102646
0.0642264
-0.00104229
0.0646429
-0.00105747
0.0650658
-0.00107198
0.0654949
-0.00108578
0.06593
-0.00109883
0.0663708
-0.00111112
0.0668172
-0.00112265
0.0672688
-0.00113342
0.0677256
-0.00114347
0.0681872
-0.00115288
0.0686537
-0.00116173
0.0691248
-0.0011701
0.0696002
-0.00117809
0.0700797
-0.0011857
0.0705627
-0.00119292
0.0710486
-0.00119965
0.0715365
-0.00120576
0.0720258
-0.00121113
0.0725157
-0.00121571
0.0730061
-0.00121958
0.0734974
-0.00122296
0.073991
-0.00122615
0.0744884
-0.00122938
0.074992
-0.0012327
0.0755034
-0.0012358
0.0760239
-0.00123797
0.0765533
-0.00123819
0.0770902
-0.00123536
0.077632
-0.00122857
0.0781752
-0.00121733
0.0787166
-0.00120167
0.0792533
-0.0011821
0.0797831
-0.00115942
0.0803051
-0.00113446
0.0808187
-0.00110786
0.0813239
-0.00108001
0.0818206
-0.00105104
0.0823087
-0.00102095
0.082788
-0.000989684
0.0832579
-0.000957264
0.0837182
-0.000923783
0.0841687
-0.000889373
0.0846094
-0.00085414
0.0850403
-0.000818123
0.0854615
-0.00078128
0.0858728
-0.000743519
0.0862741
-0.000704741
0.0866653
-0.000664873
0.0870462
-0.00062389
0.0874165
-0.000581811
0.0877758
-0.000538696
0.0881239
-0.000494633
0.0884601
-0.000449747
0.0887837
-0.000404207
0.0890939
-0.000358231
0.0893883
-0.000312026
0.0896634
-0.000265031
0.0899139
-0.000216946
0.0901362
-0.000168448
0.0903282
-0.000119733
0.0904883
-7.08272e-05
0.0906143
-2.10855e-05
0.0907078
2.52763e-05
0.0907672
7.30267e-05
0.090793
0.000121049
0.0907866
0.000169547
0.0907498
0.00021893
0.0906841
0.000269761
0.0905896
0.000322551
0.0904652
0.000377596
0.0903089
0.000434891
0.0901184
0.000494157
0.0898919
0.000554946
0.0896284
0.000616791
0.0893274
0.000679326
0.0889885
0.000742327
0.0886118
0.000805684
0.0881971
0.000869346
0.0877444
0.000933274
0.0872536
0.000997417
0.0867247
0.00106172
0.0861579
0.00112611
0.0855534
0.00119056
0.0849115
0.00125502
0.0842329
0.00131949
0.0835181
0.00138395
0.0827678
0.00144844
0.0819827
0.00151306
0.0811632
0.00157793
0.0803091
0.00164314
0.0794195
0.00170851
0.0784931
0.00177337
0.0775291
0.00183645
0.0765278
0.00189615
0.0754913
0.00195115
0.0744233
0.00200099
0.0733277
0.00204634
0.0722074
0.0020886
0.0710642
0.00212917
0.0698984
0.00216885
0.06871
0.00220767
0.0674993
0.00224524
0.066267
0.0022811
0.0650142
0.00231505
0.0637422
0.00234714
0.0624519
0.00237751
0.0611445
0.00240632
0.0598208
0.00243366
0.0584819
0.00245957
0.0571286
0.00248401
0.0557619
0.00250693
0.0543828
0.00252825
0.0529923
0.0025479
0.0515916
0.00256584
0.0501816
0.00258202
0.0487635
0.00259647
0.0473382
0.00260921
0.0459068
0.00262031
0.0444702
0.00262981
0.0430293
0.0026378
0.0415849
0.00264438
0.040138
0.00264966
0.0386891
0.00265377
0.037239
0.00265685
0.0357881
0.00265905
0.0343371
0.00266053
0.0328863
0.00266145
0.031436
0.00266201
0.0299865
0.00266244
0.028538
0.00266288
0.0270903
0.00266353
0.0256436
0.00266452
0.0241975
0.00266595
0.0227518
0.00266785
0.0213063
0.00267021
0.0198605
0.00267294
0.0184144
0.00267585
0.0169681
0.00267873
0.0155218
0.00268131
0.0140759
0.00268341
0.0126299
0.0026853
0.0111809
0.00268823
0.00972297
0.00269416
0.00825112
0.00270174
0.00677354
0.00269718
0.00532843
0.00264563
0.00397764
0.00251539
0.00274774
0.00234926
0.0015276
0.00237903
0.00287629
0.000143787
-0.000610965
0.000694036
-0.00171772
0.0012428
-0.00171163
0.00168684
-0.00146285
0.00205087
-0.00127826
0.00237889
-0.00118862
0.00269986
-0.00115821
0.00302628
-0.00115499
0.00336123
-0.00116127
0.00370431
-0.00116978
0.00405483
-0.00117874
0.00441265
-0.00118832
0.00477816
-0.00119902
0.0051519
-0.00121108
0.00553425
-0.00122438
0.00592534
-0.00123855
0.00632502
-0.00125316
0.00673292
-0.00126777
0.00714847
-0.00128199
0.00757099
-0.00129554
0.00799972
-0.00130815
0.00843385
-0.00131966
0.00887257
-0.00132994
0.00931511
-0.00133892
0.00976071
-0.00134661
0.0102087
-0.00135304
0.0106586
-0.00135829
0.0111097
-0.00136246
0.0115618
-0.00136569
0.0120145
-0.00136811
0.0124676
-0.00136989
0.012921
-0.00137118
0.0133747
-0.00137217
0.0138288
-0.00137303
0.0142837
-0.00137399
0.0147395
-0.00137528
0.0151967
-0.0013771
0.0156555
-0.00137964
0.0161161
-0.00138301
0.0165784
-0.00138719
0.0170418
-0.001392
0.0175056
-0.00139708
0.0179687
-0.00140192
0.0184298
-0.00140591
0.0188875
-0.00140843
0.0193406
-0.00140898
0.0197882
-0.00140735
0.0202303
-0.00140366
0.0206676
-0.00139848
0.0211024
-0.00139289
0.0215381
-0.00138833
0.0219792
-0.00138664
0.0224311
-0.00138985
0.0228992
-0.00139999
0.0233883
-0.00141873
0.0239019
-0.00144694
0.0244415
-0.00148441
0.0250062
-0.00152961
0.0255934
-0.00157963
0.0261984
-0.00163069
0.0268156
-0.00167871
0.027439
-0.00172015
0.0280632
-0.00175251
0.0286835
-0.00177469
0.0292965
-0.0017869
0.0298998
-0.00179043
0.030492
-0.00178716
0.0310724
-0.00177921
0.0316408
-0.00176847
0.0321976
-0.00175643
0.032743
-0.00174403
0.0332773
-0.00173166
0.0338008
-0.00171932
0.0343136
-0.00170677
0.0348157
-0.00169373
0.0353073
-0.00168008
0.0357885
-0.00166589
0.0362598
-0.00165147
0.0367223
-0.00163729
0.0371772
-0.00162383
0.0376264
-0.00161148
0.0380719
-0.00160043
0.0385162
-0.00159068
0.0389616
-0.00158209
0.0394101
-0.00157452
0.0398633
-0.00156802
0.0403222
-0.00156288
0.0407869
-0.00155967
0.0412569
-0.00155917
0.0417307
-0.00156214
0.0422065
-0.00156916
0.0426822
-0.0015804
0.0431557
-0.00159549
0.0436255
-0.00161364
0.0440901
-0.00163411
0.0445485
-0.00165692
0.0449988
-0.00168299
0.0454388
-0.00171285
0.0458664
-0.00174426
0.0462814
-0.00177053
0.0466875
-0.00178192
0.0470921
-0.00177033
0.0475041
-0.00173449
0.0479307
-0.00168161
0.0483744
-0.00162402
0.0488333
-0.00157311
0.049303
-0.00153467
0.0497786
-0.00150833
0.0502568
-0.0014902
0.0507356
-0.00147615
0.0512141
-0.00146364
0.0516919
-0.0014517
0.0521687
-0.00144016
0.0526439
-0.001429
0.0531173
-0.00141801
0.0535884
-0.0014069
0.0540565
-0.00139537
0.0545208
-0.00138318
0.0549804
-0.00137019
0.0554343
-0.00135629
0.0558812
-0.00134145
0.0563204
-0.00132556
0.0567513
-0.00130843
0.057174
-0.00128975
0.057589
-0.00126903
0.0579973
-0.00124569
0.0583997
-0.00121912
0.0587967
-0.00118895
0.0591879
-0.00115525
0.0595713
-0.00111891
0.0599436
-0.00108173
0.0602999
-0.00104648
0.0606345
-0.00101655
0.0609424
-0.000995036
0.0612209
-0.000983262
0.0614715
-0.000978776
0.0616996
-0.000973945
0.0619122
-0.000956473
0.0621199
-0.000914676
0.0623332
-0.000844308
0.0625579
-0.000739847
0.0627891
-0.000595101
0.0630154
-0.000413006
0.0632172
-0.000208561
0.0633902
3.0557e-06
0.06353
0.000175462
0.0636313
0.000313317
0.0637038
0.000399244
0.0637605
0.000435707
0.0638119
0.000434982
0.0638625
0.000413135
0.0639116
0.000384232
0.0639557
0.000357464
0.0639909
0.000337616
0.0640144
0.000326205
0.0640247
0.000322871
0.064021
0.000326385
0.0640029
0.00033537
0.0639701
0.000348657
0.0639226
0.000365331
0.0638602
0.00038467
0.0637827
0.000406073
0.0636902
0.000429026
0.0635828
0.000453102
0.0634608
0.000477966
0.0633245
0.000503373
0.0631744
0.000529154
0.0630109
0.000555182
0.0628344
0.000581354
0.0626455
0.000607568
0.0624446
0.000633717
0.0622321
0.000659701
0.0620085
0.000685419
0.061774
0.000710778
0.061529
0.000735698
0.0612737
0.000760114
0.0610085
0.00078398
0.0607335
0.000807265
0.0604489
0.000829936
0.0601548
0.000851939
0.0598517
0.000873159
0.0595399
0.000893391
0.0592202
0.000912304
0.0588936
0.000929442
0.0585615
0.000944229
0.0582255
0.000956029
0.0578877
0.000964208
0.0575501
0.000968232
0.0572148
0.000967763
0.0568837
0.000962741
0.056558
0.000953439
0.0562387
0.000940453
0.0559257
0.000924655
0.0556186
0.000907091
0.0553161
0.000888847
0.0550168
0.000870906
0.0547188
0.000854037
0.0544204
0.000838717
0.0541199
0.000825087
0.0538161
0.000812973
0.0535082
0.000801937
0.0531957
0.000791363
0.0528788
0.000780532
0.0525579
0.000768708
0.0522339
0.000755188
0.051908
0.000739367
0.0515816
0.000720741
0.0512563
0.000698934
0.0509334
0.000673673
0.0506145
0.000644766
0.0503005
0.000612096
0.049992
0.000575571
0.0496882
0.000535041
0.0493871
0.000490269
0.0490847
0.000441319
0.0487715
0.000387662
0.0484293
0.00031423
0.0480353
0.000176657
0.0475918
-4.03811e-05
0.0471088
-0.000242714
0.0466482
-0.000348534
0.0462631
-0.000293482
0.0459834
-0.000113246
0.0458075
0.000114319
0.0457145
0.000322596
0.0456635
0.000481199
0.0456309
0.000579165
0.0456143
0.000625422
0.045617
0.000639567
0.0456383
0.000639799
0.0456729
0.000636734
0.0457149
0.000634272
0.0457612
0.000633803
0.0458113
0.000637778
0.0458643
0.000650765
0.0459166
0.000678249
0.0459607
0.000724369
0.0459863
0.00078968
0.0459826
0.000869731
0.0459411
0.000955034
0.0458587
0.00103265
0.0457391
0.00108902
0.0455922
0.00111323
0.0454315
0.00109952
0.0452712
0.0010487
0.0451224
0.000967786
0.044991
0.00086753
0.0448774
0.000760079
0.0447782
0.00065627
0.0446883
0.000563882
0.0446028
0.000487035
0.0445186
0.000426584
0.0444347
0.00038116
0.0443519
0.000348358
0.0442727
0.000325663
0.0441999
0.000310935
0.0441363
0.000302449
0.0440832
0.000298623
0.0440404
0.000297556
0.0440075
0.000297306
0.0439819
0.000296022
0.0439589
0.000292888
0.0439347
0.000289694
0.0439079
0.000285727
0.0438795
0.000281395
0.0438515
0.000276949
0.0438262
0.000272265
0.043805
0.000266972
0.0437887
0.000260643
0.0437775
0.000253028
0.0437716
0.000244173
0.0437714
0.000234388
0.0437779
0.00022409
0.0437921
0.000213611
0.0438153
0.000203042
0.0438482
0.000192145
0.0438911
0.000180373
0.0439438
0.000166963
0.0440056
0.000150939
0.0440761
0.000131406
0.0441543
0.000107891
0.0442398
8.02865e-05
0.0443322
4.88948e-05
0.0444319
1.42628e-05
0.0445383
-2.13259e-05
0.0446516
-5.71447e-05
0.044772
-9.19046e-05
0.0449005
-0.000125215
0.0450386
-0.000156374
0.0451854
-0.000185439
0.0453393
-0.000212747
0.0454982
-0.000238829
0.0456609
-0.000264121
0.0458267
-0.000288741
0.0459953
-0.000312481
0.046167
-0.000334905
0.0463423
-0.000355486
0.0465216
-0.000373726
0.0467054
-0.000389256
0.0468939
-0.000401943
0.0470873
-0.000411943
0.0472852
-0.000419736
0.0474868
-0.000426098
0.0476914
-0.000431829
0.0478983
-0.000437907
0.0481067
-0.000445235
0.0483163
-0.000454468
0.048527
-0.000465912
0.0487391
-0.00047952
0.0489531
-0.000494991
0.0491694
-0.000511914
0.0493885
-0.000529897
0.0496107
-0.000548638
0.0498362
-0.000567938
0.0500651
-0.000587683