/*--------------------------------*- C++ -*----------------------------------*\
| =========                 |                                                 |
| \\      /  F ield         | OpenFOAM: The Open Source CFD Toolbox           |
|  \\    /   O peration     | Version:  v2006                                 |
|   \\  /    A nd           | Website:  www.openfoam.com                      |
|    \\/     M anipulation  |                                                 |
\*---------------------------------------------------------------------------*/
FoamFile
{
    version     2.0;
    format      ascii;
    class       volVectorField;
    location    "0";
    object      U;
}
// * * * * * * * * * * * * * * * * * * * * * * * * * * * * * * * * * * * * * //

dimensions      [0 1 -1 0 0 0 0];


internalField   nonuniform List<vector> 
20000
(
(0.00044292 -5.72842e-10 0)
(0.000442928 -1.98949e-09 0)
(0.000442946 -3.52862e-09 0)
(0.000442975 -5.17916e-09 0)
(0.000443015 -6.9812e-09 0)
(0.000443067 -8.95381e-09 0)
(0.000443133 -1.11225e-08 0)
(0.000443214 -1.35114e-08 0)
(0.000443312 -1.61331e-08 0)
(0.000443427 -1.898e-08 0)
(0.000443562 -2.2024e-08 0)
(0.000443717 -2.51927e-08 0)
(0.000443894 -2.83876e-08 0)
(0.000444092 -3.15106e-08 0)
(0.00044431 -3.45192e-08 0)
(0.000444549 -3.74309e-08 0)
(0.000444808 -4.03903e-08 0)
(0.000445088 -4.36018e-08 0)
(0.000445391 -4.72449e-08 0)
(0.00044572 -5.14715e-08 0)
(0.000446078 -5.63656e-08 0)
(0.000446471 -6.19095e-08 0)
(0.000446903 -6.79401e-08 0)
(0.000447377 -7.40647e-08 0)
(0.000447893 -8.0042e-08 0)
(0.000448449 -8.56474e-08 0)
(0.000449043 -9.0872e-08 0)
(0.000449672 -9.58073e-08 0)
(0.000450335 -1.00353e-07 0)
(0.000451026 -1.043e-07 0)
(0.000451742 -1.07427e-07 0)
(0.000452476 -1.09324e-07 0)
(0.000453217 -1.09731e-07 0)
(0.000453958 -1.08201e-07 0)
(0.000454686 -1.03754e-07 0)
(0.000455384 -9.61279e-08 0)
(0.000456036 -8.49182e-08 0)
(0.000456629 -7.01963e-08 0)
(0.000457146 -5.10591e-08 0)
(0.000457568 -2.76905e-08 0)
(0.000457881 -1.43768e-09 0)
(0.000458077 2.72205e-08 0)
(0.000458143 5.83481e-08 0)
(0.000458068 9.15387e-08 0)
(0.000457843 1.28289e-07 0)
(0.00045745 1.67524e-07 0)
(0.000456883 2.10328e-07 0)
(0.000456122 2.55752e-07 0)
(0.000455162 3.0019e-07 0)
(0.000454006 3.42415e-07 0)
(0.000452657 3.81369e-07 0)
(0.000451113 4.18038e-07 0)
(0.000449369 4.53142e-07 0)
(0.000447421 4.85389e-07 0)
(0.000445274 5.13328e-07 0)
(0.000442933 5.36443e-07 0)
(0.000440407 5.52536e-07 0)
(0.000437719 5.58716e-07 0)
(0.000434898 5.5416e-07 0)
(0.000431969 5.39454e-07 0)
(0.000428959 5.13643e-07 0)
(0.000425917 4.73593e-07 0)
(0.000422891 4.17397e-07 0)
(0.000419945 3.43402e-07 0)
(0.000417148 2.50578e-07 0)
(0.000414567 1.38674e-07 0)
(0.000412269 6.69954e-09 0)
(0.000410337 -1.45519e-07 0)
(0.000408837 -3.12924e-07 0)
(0.000407817 -4.94638e-07 0)
(0.000407318 -6.92342e-07 0)
(0.000407399 -9.01657e-07 0)
(0.000408077 -1.11624e-06 0)
(0.000409366 -1.32546e-06 0)
(0.000411245 -1.52458e-06 0)
(0.000413685 -1.71314e-06 0)
(0.000416677 -1.89059e-06 0)
(0.000420216 -2.05656e-06 0)
(0.000424271 -2.20933e-06 0)
(0.000428816 -2.33931e-06 0)
(0.000433779 -2.4391e-06 0)
(0.000439082 -2.50805e-06 0)
(0.00044468 -2.5516e-06 0)
(0.000450542 -2.56516e-06 0)
(0.000456598 -2.54768e-06 0)
(0.00046279 -2.49797e-06 0)
(0.000469049 -2.41293e-06 0)
(0.000475294 -2.2949e-06 0)
(0.000481453 -2.14287e-06 0)
(0.000487451 -1.95713e-06 0)
(0.0004932 -1.73471e-06 0)
(0.000498608 -1.47177e-06 0)
(0.000503574 -1.16888e-06 0)
(0.00050799 -8.2314e-07 0)
(0.000511741 -4.34148e-07 0)
(0.0005147 1.24021e-09 0)
(0.00051673 4.8769e-07 0)
(0.000517687 9.93831e-07 0)
(0.000517602 1.4571e-06 0)
(0.000516685 1.83597e-06 0)
(0.000515147 2.12221e-06 0)
(0.000513109 2.32586e-06 0)
(0.000510661 2.45915e-06 0)
(0.000507859 2.5341e-06 0)
(0.000504733 2.5534e-06 0)
(0.000501332 2.52352e-06 0)
(0.000497701 2.44936e-06 0)
(0.000493874 2.32486e-06 0)
(0.000489922 2.16293e-06 0)
(0.000485879 1.9652e-06 0)
(0.000481784 1.72567e-06 0)
(0.000477713 1.443e-06 0)
(0.000473737 1.10985e-06 0)
(0.000469944 7.35094e-07 0)
(0.000466378 3.20378e-07 0)
(0.00046309 -1.42615e-07 0)
(0.000460151 -6.46994e-07 0)
(0.000457589 -1.18327e-06 0)
(0.000455453 -1.75561e-06 0)
(0.000453823 -2.34964e-06 0)
(0.000452791 -2.94945e-06 0)
(0.000452454 -3.51986e-06 0)
(0.000452853 -4.02758e-06 0)
(0.000454028 -4.45597e-06 0)
(0.000456006 -4.7747e-06 0)
(0.000458773 -4.96945e-06 0)
(0.000462313 -5.03582e-06 0)
(0.000466605 -4.96484e-06 0)
(0.000471631 -4.76244e-06 0)
(0.00047736 -4.42118e-06 0)
(0.000483722 -3.9478e-06 0)
(0.000490667 -3.36612e-06 0)
(0.000498144 -2.68958e-06 0)
(0.000506098 -1.94207e-06 0)
(0.000514464 -1.14169e-06 0)
(0.000523153 -3.06978e-07 0)
(0.000532083 5.36829e-07 0)
(0.000541156 1.37971e-06 0)
(0.000550227 2.22464e-06 0)
(0.000559082 3.07913e-06 0)
(0.00056743 3.95422e-06 0)
(0.000574919 4.85397e-06 0)
(0.000581187 5.76453e-06 0)
(0.000585871 6.67051e-06 0)
(0.000588653 7.53385e-06 0)
(0.000589298 8.31337e-06 0)
(0.000587653 8.95792e-06 0)
(0.000583697 9.41481e-06 0)
(0.000577514 9.62634e-06 0)
(0.00056937 9.53125e-06 0)
(0.000559685 9.11267e-06 0)
(0.000548888 8.42272e-06 0)
(0.000537261 7.52644e-06 0)
(0.000524985 6.48089e-06 0)
(0.000512217 5.33088e-06 0)
(0.000499116 4.11404e-06 0)
(0.000485846 2.86986e-06 0)
(0.000472576 1.6372e-06 0)
(0.000459473 4.5571e-07 0)
(0.000446697 -6.36869e-07 0)
(0.000434402 -1.60723e-06 0)
(0.000422732 -2.42734e-06 0)
(0.000411813 -3.07674e-06 0)
(0.000401752 -3.54322e-06 0)
(0.000392632 -3.82549e-06 0)
(0.000384508 -3.93089e-06 0)
(0.000377416 -3.87859e-06 0)
(0.000371367 -3.69356e-06 0)
(0.000366359 -3.40922e-06 0)
(0.000362379 -3.05967e-06 0)
(0.000359411 -2.68175e-06 0)
(0.00035744 -2.30657e-06 0)
(0.000356434 -1.95995e-06 0)
(0.000356378 -1.66596e-06 0)
(0.000357247 -1.43379e-06 0)
(0.000358999 -1.2611e-06 0)
(0.000361535 -1.13273e-06 0)
(0.000364711 -1.03263e-06 0)
(0.000368345 -9.47791e-07 0)
(0.000372248 -8.69448e-07 0)
(0.000376239 -7.93818e-07 0)
(0.000380175 -7.21697e-07 0)
(0.00038397 -6.56781e-07 0)
(0.000387597 -6.03126e-07 0)
(0.000391076 -5.62821e-07 0)
(0.000394449 -5.34975e-07 0)
(0.000397756 -5.16315e-07 0)
(0.00040102 -5.02616e-07 0)
(0.000404242 -4.89964e-07 0)
(0.000407403 -4.75413e-07 0)
(0.000410476 -4.57145e-07 0)
(0.000413425 -4.34366e-07 0)
(0.000416214 -4.07065e-07 0)
(0.000418812 -3.75729e-07 0)
(0.000421192 -3.41131e-07 0)
(0.000423337 -3.0405e-07 0)
(0.000425219 -2.65584e-07 0)
(0.000426883 -2.25018e-07 0)
(0.000428102 -1.89637e-07 0)
(0.000429636 -1.281e-07 0)
(0.00044292 -1.70887e-09 0)
(0.000442928 -5.92774e-09 0)
(0.000442945 -1.04913e-08 0)
(0.000442974 -1.53683e-08 0)
(0.000443013 -2.06817e-08 0)
(0.000443065 -2.64905e-08 0)
(0.000443129 -3.28741e-08 0)
(0.000443208 -3.99093e-08 0)
(0.000443304 -4.76387e-08 0)
(0.000443417 -5.60461e-08 0)
(0.00044355 -6.50472e-08 0)
(0.000443702 -7.44675e-08 0)
(0.000443877 -8.40691e-08 0)
(0.000444073 -9.36071e-08 0)
(0.000444292 -1.02922e-07 0)
(0.000444532 -1.12018e-07 0)
(0.000444792 -1.2117e-07 0)
(0.000445073 -1.30883e-07 0)
(0.000445375 -1.41758e-07 0)
(0.000445703 -1.54391e-07 0)
(0.000446061 -1.69155e-07 0)
(0.000446454 -1.86039e-07 0)
(0.000446888 -2.04519e-07 0)
(0.000447366 -2.23582e-07 0)
(0.000447888 -2.42295e-07 0)
(0.000448453 -2.60014e-07 0)
(0.000449057 -2.76568e-07 0)
(0.000449696 -2.9198e-07 0)
(0.000450369 -3.06005e-07 0)
(0.00045107 -3.18122e-07 0)
(0.000451796 -3.27684e-07 0)
(0.00045254 -3.33971e-07 0)
(0.000453299 -3.36676e-07 0)
(0.000454066 -3.35331e-07 0)
(0.000454838 -3.29372e-07 0)
(0.000455617 -3.18158e-07 0)
(0.0004564 -3.00992e-07 0)
(0.00045718 -2.78415e-07 0)
(0.00045795 -2.49696e-07 0)
(0.000458708 -2.15252e-07 0)
(0.000459446 -1.75763e-07 0)
(0.00046015 -1.31714e-07 0)
(0.000460815 -8.35763e-08 0)
(0.000461432 -3.17812e-08 0)
(0.000461991 2.58368e-08 0)
(0.000462492 8.80357e-08 0)
(0.000462919 1.55144e-07 0)
(0.000463267 2.27531e-07 0)
(0.000463518 3.02841e-07 0)
(0.000463643 3.79583e-07 5.55737e-41)
(0.000463618 4.59191e-07 6.68537e-41)
(0.000463424 5.42999e-07 0)
(0.000463047 6.29994e-07 0)
(0.000462471 7.1895e-07 0)
(0.000461676 8.10067e-07 0)
(0.00046064 9.02051e-07 0)
(0.000459342 9.93017e-07 0)
(0.000457752 1.07994e-06 0)
(0.000455842 1.16214e-06 0)
(0.000453596 1.23855e-06 0)
(0.000451003 1.30549e-06 0)
(0.000448047 1.36054e-06 0)
(0.000444719 1.40093e-06 0)
(0.000441007 1.42243e-06 0)
(0.000436908 1.42355e-06 0)
(0.000432426 1.40266e-06 0)
(0.000427574 1.35957e-06 0)
(0.000422349 1.29301e-06 0)
(0.000416766 1.20605e-06 0)
(0.000410856 1.10267e-06 0)
(0.000404653 9.80719e-07 0)
(0.000398167 8.45001e-07 0)
(0.000391445 7.0032e-07 0)
(0.000384534 5.51334e-07 0)
(0.00037751 4.03124e-07 0)
(0.000370451 2.51475e-07 0)
(0.000363408 9.71564e-08 0)
(0.000356426 -6.02585e-08 0)
(0.000349567 -2.18027e-07 0)
(0.000342885 -3.6834e-07 0)
(0.000336482 -5.11501e-07 0)
(0.000330461 -6.49731e-07 0)
(0.000324903 -7.86606e-07 0)
(0.00031987 -9.23364e-07 0)
(0.000315465 -1.05737e-06 0)
(0.000311767 -1.18668e-06 0)
(0.000308854 -1.3025e-06 0)
(0.000306795 -1.40817e-06 0)
(0.000305636 -1.50411e-06 0)
(0.000305425 -1.58503e-06 0)
(0.000306222 -1.65052e-06 0)
(0.000308089 -1.69842e-06 0)
(0.000311089 -1.72942e-06 0)
(0.000315279 -1.73681e-06 0)
(0.000320701 -1.71767e-06 0)
(0.000327385 -1.66565e-06 0)
(0.000335355 -1.57802e-06 0)
(0.000344621 -1.47391e-06 0)
(0.000354996 -1.37833e-06 0)
(0.000366094 -1.29675e-06 0)
(0.000377517 -1.21625e-06 0)
(0.000388951 -1.12052e-06 0)
(0.000400113 -1.00023e-06 0)
(0.000410754 -8.50816e-07 0)
(0.00042067 -6.74931e-07 0)
(0.000429647 -4.73803e-07 0)
(0.000437502 -2.50174e-07 0)
(0.000444078 -1.5707e-08 0)
(0.000449211 2.34763e-07 0)
(0.000452796 4.95532e-07 0)
(0.000454742 7.59452e-07 0)
(0.000454939 1.0248e-06 0)
(0.000453291 1.28778e-06 0)
(0.000449678 1.55673e-06 0)
(0.000444012 1.8369e-06 0)
(0.000436171 2.12623e-06 0)
(0.000425985 2.4294e-06 0)
(0.00041333 2.74793e-06 0)
(0.000398102 3.0603e-06 0)
(0.000380268 3.34631e-06 0)
(0.00035993 3.57551e-06 0)
(0.000337351 3.73075e-06 0)
(0.000313011 3.7934e-06 0)
(0.000287501 3.74123e-06 0)
(0.000261505 3.57404e-06 0)
(0.000235795 3.28307e-06 0)
(0.000211168 2.86244e-06 0)
(0.000188434 2.31656e-06 0)
(0.000168382 1.64516e-06 0)
(0.000151776 8.61497e-07 0)
(0.000139353 -1.7438e-08 0)
(0.000131728 -9.82431e-07 0)
(0.00012939 -2.00617e-06 0)
(0.00013269 -3.06482e-06 0)
(0.000141817 -4.12919e-06 0)
(0.000156827 -5.16967e-06 0)
(0.000177599 -6.1621e-06 0)
(0.000203862 -7.07756e-06 0)
(0.000235246 -7.88146e-06 0)
(0.000271315 -8.54282e-06 0)
(0.000311587 -9.03204e-06 0)
(0.000355539 -9.32574e-06 0)
(0.000402569 -9.41502e-06 0)
(0.000452017 -9.28861e-06 0)
(0.000503132 -8.95242e-06 0)
(0.000555053 -8.41184e-06 0)
(0.000606834 -7.68006e-06 0)
(0.000657407 -6.77335e-06 0)
(0.000705635 -5.7172e-06 0)
(0.000750254 -4.5536e-06 0)
(0.000789931 -3.30887e-06 0)
(0.000823451 -1.98154e-06 0)
(0.000849912 -5.79991e-07 0)
(0.000868693 8.69317e-07 0)
(0.000879418 2.33382e-06 0)
(0.000881929 3.7667e-06 0)
(0.000876303 5.1282e-06 0)
(0.000862862 6.37432e-06 0)
(0.000842172 7.46413e-06 0)
(0.000815035 8.3624e-06 0)
(0.000782466 9.03771e-06 0)
(0.000745653 9.46925e-06 0)
(0.000705902 9.64686e-06 0)
(0.000664583 9.57274e-06 0)
(0.000623049 9.26025e-06 0)
(0.000582577 8.73517e-06 0)
(0.000544294 8.03039e-06 0)
(0.000509129 7.1872e-06 0)
(0.000477771 6.24707e-06 0)
(0.000450663 5.25352e-06 0)
(0.000427996 4.24356e-06 0)
(0.000409738 3.25355e-06 0)
(0.00039568 2.31322e-06 0)
(0.000385448 1.44277e-06 0)
(0.000378562 6.60622e-07 0)
(0.000374483 -1.74122e-08 0)
(0.000372685 -5.76276e-07 0)
(0.000372671 -1.0079e-06 0)
(0.000373983 -1.31214e-06 0)
(0.000376209 -1.49778e-06 0)
(0.000378999 -1.58351e-06 0)
(0.000382082 -1.59671e-06 0)
(0.000385272 -1.56868e-06 0)
(0.000388474 -1.5276e-06 0)
(0.000391655 -1.49212e-06 0)
(0.000394821 -1.46891e-06 0)
(0.000397986 -1.45513e-06 0)
(0.000401153 -1.44323e-06 0)
(0.000404309 -1.42528e-06 0)
(0.000407426 -1.39518e-06 0)
(0.000410469 -1.34949e-06 0)
(0.000413397 -1.28723e-06 0)
(0.000416172 -1.20936e-06 0)
(0.000418759 -1.11806e-06 0)
(0.00042113 -1.01609e-06 0)
(0.000423268 -9.06123e-07 0)
(0.000425143 -7.91641e-07 0)
(0.000426801 -6.70695e-07 0)
(0.000428016 -5.64989e-07 0)
(0.000429544 -3.81337e-07 0)
(0.00044292 -2.83701e-09 0)
(0.000442928 -9.8352e-09 0)
(0.000442945 -1.7395e-08 0)
(0.000442974 -2.54685e-08 0)
(0.000443013 -3.42641e-08 0)
(0.000443065 -4.38821e-08 0)
(0.00044313 -5.44576e-08 0)
(0.00044321 -6.61231e-08 0)
(0.000443306 -7.89529e-08 0)
(0.00044342 -9.29247e-08 0)
(0.000443553 -1.07898e-07 0)
(0.000443707 -1.23615e-07 0)
(0.000443883 -1.39717e-07 0)
(0.00044408 -1.55811e-07 0)
(0.000444299 -1.71574e-07 0)
(0.000444538 -1.8694e-07 0)
(0.000444798 -2.02242e-07 0)
(0.000445078 -2.18285e-07 0)
(0.00044538 -2.3621e-07 0)
(0.000445707 -2.57153e-07 0)
(0.000446063 -2.81821e-07 0)
(0.000446456 -3.10165e-07 0)
(0.000446888 -3.41255e-07 0)
(0.000447364 -3.73496e-07 0)
(0.000447883 -4.05175e-07 0)
(0.000448444 -4.35168e-07 0)
(0.000449044 -4.63088e-07 0)
(0.000449679 -4.88856e-07 0)
(0.000450347 -5.12199e-07 0)
(0.000451044 -5.32352e-07 0)
(0.000451766 -5.48261e-07 0)
(0.000452507 -5.5915e-07 0)
(0.000453258 -5.64732e-07 0)
(0.000454014 -5.64917e-07 0)
(0.000454766 -5.59811e-07 0)
(0.000455507 -5.48726e-07 0)
(0.000456227 -5.30756e-07 0)
(0.000456915 -5.05554e-07 0)
(0.000457561 -4.73015e-07 0)
(0.000458153 -4.33066e-07 0)
(0.00045868 -3.85388e-07 0)
(0.000459132 -3.30288e-07 0)
(0.000459498 -2.68405e-07 0)
(0.000459771 -1.99389e-07 0)
(0.00045994 -1.236e-07 0)
(0.000459996 -4.07056e-08 0)
(0.000459927 5.03875e-08 0)
(0.000459723 1.50137e-07 0)
(0.00045937 2.59602e-07 0)
(0.000458857 3.79412e-07 0)
(0.000458172 5.08922e-07 0)
(0.000457306 6.4803e-07 0)
(0.000456247 7.94989e-07 0)
(0.000454988 9.49678e-07 0)
(0.000453519 1.11247e-06 0)
(0.000451831 1.28165e-06 0)
(0.000449921 1.4566e-06 0)
(0.000447782 1.63487e-06 0)
(0.000445417 1.81442e-06 0)
(0.000442827 1.9913e-06 0)
(0.000440024 2.16098e-06 0)
(0.000437021 2.32075e-06 0)
(0.000433839 2.4656e-06 0)
(0.000430504 2.5911e-06 0)
(0.000427049 2.69438e-06 0)
(0.00042351 2.77191e-06 0)
(0.000419927 2.82298e-06 0)
(0.000416341 2.84647e-06 0)
(0.000412793 2.84211e-06 0)
(0.000409322 2.81203e-06 0)
(0.000405966 2.75752e-06 0)
(0.000402759 2.67983e-06 0)
(0.000399733 2.57843e-06 0)
(0.000396918 2.4523e-06 0)
(0.000394342 2.30265e-06 0)
(0.000392027 2.1296e-06 0)
(0.000389996 1.93597e-06 0)
(0.000388269 1.72306e-06 0)
(0.000386863 1.49483e-06 0)
(0.000385791 1.25068e-06 0)
(0.000385065 9.86415e-07 0)
(0.000384699 7.01732e-07 0)
(0.00038471 3.96266e-07 0)
(0.000385115 6.94639e-08 0)
(0.000385933 -2.76089e-07 0)
(0.000387174 -6.32607e-07 0)
(0.000388843 -9.94422e-07 0)
(0.000390931 -1.35771e-06 0)
(0.000393427 -1.71818e-06 0)
(0.000396318 -2.07396e-06 0)
(0.000399587 -2.42469e-06 0)
(0.000403222 -2.77117e-06 0)
(0.000407204 -3.10808e-06 0)
(0.000411508 -3.42835e-06 0)
(0.000416097 -3.72387e-06 0)
(0.000420923 -3.98716e-06 0)
(0.000425927 -4.21289e-06 0)
(0.000431044 -4.38405e-06 0)
(0.000436201 -4.47344e-06 0)
(0.000441313 -4.46207e-06 0)
(0.000446286 -4.34501e-06 0)
(0.000451019 -4.12655e-06 0)
(0.000455411 -3.8146e-06 0)
(0.000459365 -3.41824e-06 0)
(0.000462791 -2.94516e-06 0)
(0.000465609 -2.40508e-06 0)
(0.000467746 -1.80792e-06 0)
(0.000469143 -1.16144e-06 0)
(0.000469753 -4.77646e-07 0)
(0.00046954 2.33593e-07 0)
(0.000468481 9.66294e-07 0)
(0.00046656 1.71656e-06 0)
(0.000463763 2.48455e-06 0)
(0.000460079 3.27132e-06 0)
(0.000455483 4.08483e-06 0)
(0.000449939 4.93673e-06 0)
(0.000443397 5.83128e-06 0)
(0.000435802 6.75962e-06 0)
(0.000427119 7.69497e-06 0)
(0.000417365 8.58504e-06 0)
(0.000406635 9.3641e-06 0)
(0.000395112 9.96201e-06 0)
(0.000383054 1.03182e-05 0)
(0.000370785 1.03926e-05 0)
(0.000358662 1.0156e-05 0)
(0.000347069 9.59213e-06 0)
(0.0003364 8.69599e-06 0)
(0.000327052 7.46897e-06 0)
(0.000319417 5.92281e-06 0)
(0.000313864 4.07787e-06 0)
(0.000310732 1.96835e-06 0)
(0.000310308 -3.56809e-07 0)
(0.000312816 -2.83924e-06 0)
(0.000318404 -5.41266e-06 0)
(0.000327138 -8.00974e-06 0)
(0.000339 -1.05609e-05 0)
(0.000353886 -1.29966e-05 0)
(0.000371612 -1.52546e-05 0)
(0.000391918 -1.72801e-05 0)
(0.000414475 -1.90257e-05 0)
(0.000438896 -2.04512e-05 0)
(0.000464741 -2.15214e-05 0)
(0.000491527 -2.22053e-05 0)
(0.000518742 -2.24787e-05 0)
(0.00054585 -2.2321e-05 0)
(0.000572303 -2.17178e-05 0)
(0.000597548 -2.06602e-05 0)
(0.00062104 -1.91467e-05 0)
(0.000642245 -1.71823e-05 0)
(0.000660656 -1.47827e-05 0)
(0.000675814 -1.1987e-05 0)
(0.000687316 -8.86459e-06 0)
(0.000694845 -5.50065e-06 0)
(0.000698176 -1.98758e-06 0)
(0.000697194 1.58181e-06 0)
(0.0006919 5.10846e-06 0)
(0.000682415 8.49162e-06 0)
(0.000668984 1.16292e-05 0)
(0.000651973 1.44214e-05 0)
(0.000631868 1.67774e-05 0)
(0.000609257 1.86194e-05 0)
(0.000584812 1.98901e-05 0)
(0.000559263 2.05583e-05 0)
(0.000533354 2.06218e-05 0)
(0.000507817 2.01086e-05 0)
(0.000483329 1.90749e-05 0)
(0.000460479 1.76018e-05 0)
(0.000439744 1.57876e-05 0)
(0.00042147 1.37399e-05 0)
(0.000405872 1.15657e-05 0)
(0.000393037 9.36526e-06 0)
(0.000382935 7.22609e-06 0)
(0.000375442 5.22095e-06 0)
(0.000370355 3.40534e-06 0)
(0.000367416 1.81684e-06 0)
(0.000366332 4.77413e-07 0)
(0.000366783 -6.05181e-07 0)
(0.000368445 -1.43287e-06 0)
(0.000370994 -2.01673e-06 0)
(0.000374125 -2.37964e-06 0)
(0.000377568 -2.55905e-06 0)
(0.000381113 -2.60554e-06 0)
(0.000384624 -2.57525e-06 0)
(0.000388044 -2.51814e-06 0)
(0.000391373 -2.46727e-06 0)
(0.000394639 -2.43487e-06 0)
(0.000397874 -2.41664e-06 0)
(0.000401091 -2.40029e-06 0)
(0.000404286 -2.37278e-06 0)
(0.000407433 -2.32417e-06 0)
(0.000410499 -2.24891e-06 0)
(0.000413446 -2.14559e-06 0)
(0.000416235 -2.01596e-06 0)
(0.000418834 -1.86376e-06 0)
(0.000421214 -1.69369e-06 0)
(0.000423359 -1.51026e-06 0)
(0.000425239 -1.3193e-06 0)
(0.000426901 -1.11762e-06 0)
(0.000428119 -9.41277e-07 0)
(0.000429649 -6.35274e-07 0)
(0.00044292 -3.96177e-09 0)
(0.000442928 -1.37371e-08 0)
(0.000442945 -2.4304e-08 0)
(0.000442973 -3.55969e-08 0)
(0.000443013 -4.79076e-08 0)
(0.000443064 -6.13774e-08 0)
(0.000443129 -7.61968e-08 0)
(0.000443208 -9.25529e-08 0)
(0.000443304 -1.10552e-07 0)
(0.000443417 -1.30164e-07 0)
(0.000443551 -1.51194e-07 0)
(0.000443704 -1.73276e-07 0)
(0.00044388 -1.95893e-07 0)
(0.000444077 -2.18457e-07 0)
(0.000444296 -2.40483e-07 0)
(0.000444536 -2.61847e-07 0)
(0.000444795 -2.83036e-07 0)
(0.000445074 -3.05252e-07 0)
(0.000445375 -3.30185e-07 0)
(0.000445701 -3.59459e-07 0)
(0.000446057 -3.94041e-07 0)
(0.000446448 -4.33829e-07 0)
(0.000446879 -4.77484e-07 0)
(0.000447355 -5.22699e-07 0)
(0.000447875 -5.67045e-07 0)
(0.000448436 -6.08906e-07 0)
(0.000449036 -6.47777e-07 0)
(0.000449672 -6.83679e-07 0)
(0.000450341 -7.16309e-07 0)
(0.000451039 -7.44572e-07 0)
(0.000451763 -7.6695e-07 0)
(0.000452505 -7.82312e-07 0)
(0.000453259 -7.90124e-07 0)
(0.000454016 -7.90228e-07 0)
(0.00045477 -7.82134e-07 0)
(0.000455513 -7.65021e-07 0)
(0.000456236 -7.37487e-07 0)
(0.000456927 -6.98061e-07 0)
(0.000457576 -6.46388e-07 0)
(0.000458171 -5.82383e-07 0)
(0.000458701 -5.06676e-07 0)
(0.000459156 -4.19945e-07 0)
(0.000459525 -3.22791e-07 0)
(0.000459801 -2.15449e-07 0)
(0.000459973 -9.81801e-08 0)
(0.000460031 3.00116e-08 0)
(0.000459967 1.70624e-07 0)
(0.000459766 3.24437e-07 0)
(0.000459416 4.9109e-07 0)
(0.000458905 6.7019e-07 0)
(0.000458223 8.59568e-07 0)
(0.000457358 1.05816e-06 0)
(0.000456301 1.2659e-06 0)
(0.000455043 1.48255e-06 0)
(0.000453574 1.70664e-06 0)
(0.000451886 1.93697e-06 0)
(0.000449974 2.17099e-06 0)
(0.000447834 2.4055e-06 0)
(0.000445465 2.63627e-06 0)
(0.00044287 2.85817e-06 0)
(0.00044006 3.06653e-06 0)
(0.000437049 3.25434e-06 0)
(0.000433856 3.41495e-06 0)
(0.00043051 3.5431e-06 0)
(0.000427042 3.63303e-06 0)
(0.000423489 3.68079e-06 0)
(0.000419892 3.68387e-06 0)
(0.000416292 3.64274e-06 0)
(0.00041273 3.55877e-06 0)
(0.000409246 3.43219e-06 0)
(0.000405876 3.26613e-06 0)
(0.000402657 3.06263e-06 0)
(0.000399622 2.82517e-06 0)
(0.000396799 2.55853e-06 0)
(0.000394216 2.26514e-06 0)
(0.000391897 1.95015e-06 0)
(0.000389863 1.61596e-06 0)
(0.000388135 1.26652e-06 0)
(0.00038673 9.04379e-07 0)
(0.000385659 5.31336e-07 0)
(0.000384936 1.49411e-07 0)
(0.000384574 -2.4279e-07 0)
(0.00038459 -6.47491e-07 0)
(0.000385002 -1.06349e-06 0)
(0.000385829 -1.48748e-06 0)
(0.000387081 -1.91197e-06 0)
(0.000388763 -2.33037e-06 0)
(0.000390866 -2.73356e-06 0)
(0.000393379 -3.11622e-06 0)
(0.000396286 -3.47936e-06 0)
(0.000399574 -3.8222e-06 0)
(0.000403228 -4.1417e-06 0)
(0.000407231 -4.43226e-06 0)
(0.000411559 -4.68458e-06 0)
(0.000416176 -4.88615e-06 0)
(0.000421033 -5.02623e-06 0)
(0.000426072 -5.09387e-06 0)
(0.000431221 -5.08079e-06 0)
(0.000436402 -4.98683e-06 0)
(0.000441529 -4.81442e-06 0)
(0.000446508 -4.56343e-06 0)
(0.000451242 -4.23108e-06 0)
(0.000455634 -3.8156e-06 0)
(0.000459586 -3.31865e-06 0)
(0.000463009 -2.74511e-06 0)
(0.000465821 -2.10251e-06 0)
(0.000467952 -1.40068e-06 0)
(0.00046934 -6.49786e-07 0)
(0.000469939 1.37381e-07 0)
(0.000469714 9.50725e-07 0)
(0.000468639 1.78028e-06 0)
(0.000466698 2.61896e-06 0)
(0.000463883 3.46535e-06 0)
(0.00046018 4.32463e-06 0)
(0.000455569 5.2084e-06 0)
(0.000450013 6.13133e-06 0)
(0.00044346 7.1025e-06 0)
(0.00043585 8.11247e-06 0)
(0.000427143 9.12566e-06 0)
(0.000417355 1.00774e-05 0)
(0.000406581 1.08878e-05 0)
(0.000395005 1.14761e-05 0)
(0.000382894 1.17774e-05 0)
(0.000370572 1.17465e-05 0)
(0.000358403 1.1354e-05 0)
(0.000346769 1.05852e-05 0)
(0.000336065 9.43276e-06 0)
(0.000326688 7.8981e-06 0)
(0.000319031 5.99569e-06 0)
(0.000313466 3.75212e-06 0)
(0.00031033 1.20779e-06 0)
(0.000309912 -1.58023e-06 0)
(0.000312437 -4.54449e-06 0)
(0.000318052 -7.60795e-06 0)
(0.000326823 -1.06892e-05 0)
(0.000338733 -1.37055e-05 0)
(0.000353678 -1.65746e-05 0)
(0.000371475 -1.92177e-05 0)
(0.000391864 -2.15619e-05 0)
(0.000414517 -2.35396e-05 0)
(0.000439043 -2.50918e-05 0)
(0.000464998 -2.61697e-05 0)
(0.000491895 -2.67356e-05 0)
(0.000519215 -2.67655e-05 0)
(0.000546416 -2.62456e-05 0)
(0.000572945 -2.51754e-05 0)
(0.000598247 -2.35632e-05 0)
(0.00062177 -2.14285e-05 0)
(0.000642982 -1.8803e-05 0)
(0.00066138 -1.57291e-05 0)
(0.000676505 -1.22628e-05 0)
(0.000687964 -8.47256e-06 0)
(0.000695439 -4.4385e-06 0)
(0.000698707 -2.53229e-07 0)
(0.000697651 3.97625e-06 0)
(0.000692272 8.13731e-06 0)
(0.000682689 1.21089e-05 0)
(0.00066915 1.57714e-05 0)
(0.000652024 1.90076e-05 0)
(0.000631799 2.17094e-05 0)
(0.000609071 2.37864e-05 0)
(0.000584516 2.51722e-05 0)
(0.000558867 2.58321e-05 0)
(0.000532874 2.57664e-05 0)
(0.000507272 2.50111e-05 0)
(0.000482739 2.36362e-05 0)
(0.000459865 2.17406e-05 0)
(0.000439126 1.94431e-05 0)
(0.000420865 1.68724e-05 0)
(0.000405295 1.41551e-05 0)
(0.000392497 1.14097e-05 0)
(0.00038244 8.73868e-06 0)
(0.000374997 6.22685e-06 0)
(0.000369963 3.93888e-06 0)
(0.000367081 1.92173e-06 0)
(0.000366056 2.06689e-07 0)
(0.000366569 -1.18824e-06 0)
(0.000368293 -2.2569e-06 0)
(0.000370903 -3.00678e-06 0)
(0.000374088 -3.46361e-06 0)
(0.000377573 -3.67537e-06 0)
(0.000381144 -3.71017e-06 0)
(0.000384665 -3.64525e-06 0)
(0.000388082 -3.54974e-06 0)
(0.0003914 -3.4689e-06 0)
(0.000394657 -3.41834e-06 0)
(0.000397886 -3.39041e-06 0)
(0.000401104 -3.36652e-06 0)
(0.000404302 -3.32754e-06 0)
(0.000407457 -3.2591e-06 0)
(0.000410532 -3.15324e-06 0)
(0.000413488 -3.00796e-06 0)
(0.000416286 -2.82577e-06 0)
(0.000418892 -2.61196e-06 0)
(0.000421278 -2.37318e-06 0)
(0.000423427 -2.11577e-06 0)
(0.000425309 -1.84793e-06 0)
(0.000426972 -1.56518e-06 0)
(0.000428191 -1.31801e-06 0)
(0.00042972 -8.89333e-07 0)
(0.00044292 -5.07518e-09 0)
(0.000442928 -1.76034e-08 0)
(0.000442945 -3.11486e-08 0)
(0.000442973 -4.56262e-08 0)
(0.000443012 -6.14123e-08 0)
(0.000443063 -7.86908e-08 0)
(0.000443127 -9.77104e-08 0)
(0.000443206 -1.18717e-07 0)
(0.000443301 -1.41852e-07 0)
(0.000443414 -1.67083e-07 0)
(0.000443547 -1.94164e-07 0)
(0.0004437 -2.22618e-07 0)
(0.000443876 -2.51762e-07 0)
(0.000444073 -2.80813e-07 0)
(0.000444292 -3.09115e-07 0)
(0.000444532 -3.36488e-07 0)
(0.000444791 -3.63568e-07 0)
(0.00044507 -3.91938e-07 0)
(0.00044537 -4.23832e-07 0)
(0.000445694 -4.61401e-07 0)
(0.000446047 -5.05914e-07 0)
(0.000446437 -5.57271e-07 0)
(0.000446868 -6.13714e-07 0)
(0.000447343 -6.72168e-07 0)
(0.000447863 -7.2942e-07 0)
(0.000448426 -7.83393e-07 0)
(0.000449027 -8.33493e-07 0)
(0.000449663 -8.79837e-07 0)
(0.000450333 -9.22064e-07 0)
(0.000451033 -9.58702e-07 0)
(0.000451759 -9.87712e-07 0)
(0.000452503 -1.00758e-06 0)
(0.000453259 -1.01768e-06 0)
(0.000454019 -1.01786e-06 0)
(0.000454776 -1.00773e-06 0)
(0.000455522 -9.86107e-07 0)
(0.000456247 -9.51179e-07 0)
(0.000456942 -9.01433e-07 0)
(0.000457595 -8.36575e-07 0)
(0.000458193 -7.56893e-07 0)
(0.000458727 -6.6285e-07 0)
(0.000459184 -5.55335e-07 0)
(0.000459556 -4.35404e-07 0)
(0.000459834 -3.03697e-07 0)
(0.000460009 -1.59238e-07 0)
(0.000460071 -9.41359e-10 0)
(0.00046001 1.71904e-07 0)
(0.000459812 3.61472e-07 0)
(0.000459466 5.67717e-07 0)
(0.000458959 7.88976e-07 0)
(0.00045828 1.02515e-06 0)
(0.000457418 1.275e-06 0)
(0.000456365 1.5382e-06 0)
(0.00045511 1.81428e-06 0)
(0.000453644 2.10229e-06 0)
(0.000451959 2.40059e-06 0)
(0.000450049 2.70587e-06 0)
(0.00044791 3.01505e-06 0)
(0.00044554 3.32252e-06 0)
(0.000442944 3.62206e-06 0)
(0.00044013 3.90633e-06 0)
(0.000437112 4.16754e-06 0)
(0.000433912 4.39856e-06 0)
(0.000430556 4.59133e-06 0)
(0.000427077 4.73849e-06 0)
(0.000423512 4.83527e-06 0)
(0.000419903 4.87894e-06 0)
(0.000416292 4.86934e-06 0)
(0.000412719 4.80701e-06 0)
(0.000409224 4.69414e-06 0)
(0.000405844 4.5338e-06 0)
(0.000402617 4.32911e-06 0)
(0.000399573 4.08415e-06 0)
(0.000396743 3.80158e-06 0)
(0.000394153 3.48494e-06 0)
(0.000391827 3.13692e-06 0)
(0.000389787 2.75967e-06 0)
(0.000388053 2.35723e-06 0)
(0.000386641 1.93258e-06 0)
(0.000385565 1.48805e-06 0)
(0.000384834 1.02279e-06 0)
(0.000384463 5.33068e-07 0)
(0.000384468 1.65061e-08 0)
(0.00038487 -5.27744e-07 0)
(0.000385686 -1.0953e-06 0)
(0.000386931 -1.67824e-06 0)
(0.000388608 -2.26295e-06 0)
(0.000390708 -2.83853e-06 0)
(0.000393218 -3.40131e-06 0)
(0.000396122 -3.94953e-06 0)
(0.000399406 -4.48243e-06 0)
(0.000403057 -4.9981e-06 0)
(0.00040706 -5.48922e-06 0)
(0.000411392 -5.94335e-06 0)
(0.000416016 -6.3451e-06 0)
(0.000420883 -6.67961e-06 0)
(0.000425934 -6.93481e-06 0)
(0.0004311 -7.09816e-06 0)
(0.000436305 -7.15303e-06 0)
(0.000441464 -7.08189e-06 0)
(0.000446485 -6.87076e-06 0)
(0.000451268 -6.51252e-06 0)
(0.00045571 -6.00813e-06 0)
(0.000459712 -5.36572e-06 0)
(0.000463182 -4.59661e-06 0)
(0.000466038 -3.71481e-06 0)
(0.000468207 -2.73613e-06 0)
(0.000469629 -1.67719e-06 0)
(0.000470258 -5.55782e-07 0)
(0.000470057 6.12113e-07 0)
(0.000469005 1.81346e-06 0)
(0.000467087 3.03947e-06 0)
(0.000464295 4.28878e-06 0)
(0.00046062 5.56773e-06 0)
(0.000456042 6.89149e-06 0)
(0.000450522 8.28008e-06 0)
(0.000444003 9.74473e-06 0)
(0.000436417 1.12731e-05 0)
(0.000427713 1.28156e-05 0)
(0.000417895 1.42817e-05 0)
(0.000407053 1.55565e-05 0)
(0.000395374 1.65232e-05 0)
(0.00038313 1.70846e-05 0)
(0.000370652 1.7172e-05 0)
(0.000358311 1.67407e-05 0)
(0.000346494 1.57662e-05 0)
(0.000335601 1.42365e-05 0)
(0.000326037 1.21534e-05 0)
(0.000318199 9.53655e-06 0)
(0.000312464 6.42058e-06 0)
(0.00030918 2.86371e-06 0)
(0.000308641 -1.05449e-06 0)
(0.000311077 -5.23677e-06 0)
(0.00031664 -9.57293e-06 0)
(0.000325397 -1.39472e-05 0)
(0.000337329 -1.82435e-05 0)
(0.000352332 -2.23456e-05 0)
(0.000370219 -2.61455e-05 0)
(0.000390727 -2.95453e-05 0)
(0.000413523 -3.24568e-05 0)
(0.000438213 -3.48036e-05 0)
(0.000464352 -3.65209e-05 0)
(0.00049145 -3.75563e-05 0)
(0.000518986 -3.78706e-05 0)
(0.000546418 -3.74363e-05 0)
(0.000573191 -3.62384e-05 0)
(0.000598747 -3.42726e-05 0)
(0.000622532 -3.15473e-05 0)
(0.000644006 -2.80873e-05 0)
(0.000662655 -2.39379e-05 0)
(0.000678009 -1.91706e-05 0)
(0.000689662 -1.38858e-05 0)
(0.000697286 -8.20851e-06 0)
(0.000700651 -2.28328e-06 0)
(0.000699636 3.73213e-06 0)
(0.000694238 9.67215e-06 0)
(0.000684577 1.53637e-05 0)
(0.000670899 2.0634e-05 0)
(0.000653578 2.53145e-05 0)
(0.000633107 2.92501e-05 0)
(0.00061009 3.23095e-05 0)
(0.000585217 3.43965e-05 0)
(0.000559236 3.54592e-05 0)
(0.000532914 3.54952e-05 0)
(0.000507001 3.45532e-05 0)
(0.000482191 3.27302e-05 0)
(0.000459087 3.01651e-05 0)
(0.000438172 2.70257e-05 0)
(0.000419795 2.3494e-05 0)
(0.000404164 1.97508e-05 0)
(0.000391359 1.59642e-05 0)
(0.000381342 1.2282e-05 0)
(0.000373974 8.82424e-06 0)
(0.000369044 5.68362e-06 0)
(0.000366284 2.92472e-06 0)
(0.00036539 5.8822e-07 0)
(0.000366038 -1.30562e-06 0)
(0.000367896 -2.7534e-06 0)
(0.00037063 -3.76922e-06 0)
(0.000373923 -4.39021e-06 0)
(0.000377493 -4.68214e-06 0)
(0.000381121 -4.73704e-06 0)
(0.000384672 -4.65879e-06 0)
(0.000388097 -4.54002e-06 0)
(0.000391412 -4.44098e-06 0)
(0.000394663 -4.38187e-06 0)
(0.000397889 -4.35193e-06 0)
(0.00040111 -4.32634e-06 0)
(0.000404318 -4.27997e-06 0)
(0.000407485 -4.19428e-06 0)
(0.000410574 -4.05922e-06 0)
(0.000413544 -3.87252e-06 0)
(0.000416354 -3.63776e-06 0)
(0.00041897 -3.36201e-06 0)
(0.000421363 -3.05405e-06 0)
(0.000423517 -2.72215e-06 0)
(0.000425403 -2.37696e-06 0)
(0.000427067 -2.01276e-06 0)
(0.000428287 -1.69446e-06 0)
(0.000429814 -1.14289e-06 0)
(0.00044292 -6.1747e-09 0)
(0.000442928 -2.14253e-08 0)
(0.000442945 -3.79176e-08 0)
(0.000442972 -5.55509e-08 0)
(0.000443011 -7.47872e-08 0)
(0.000443061 -9.58562e-08 0)
(0.000443125 -1.19068e-07 0)
(0.000443203 -1.4473e-07 0)
(0.000443297 -1.73025e-07 0)
(0.00044341 -2.0392e-07 0)
(0.000443542 -2.37118e-07 0)
(0.000443695 -2.7203e-07 0)
(0.000443871 -3.07795e-07 0)
(0.000444068 -3.4341e-07 0)
(0.000444288 -3.78017e-07 0)
(0.000444527 -4.11339e-07 0)
(0.000444787 -4.44147e-07 0)
(0.000445065 -4.78439e-07 0)
(0.000445363 -5.17056e-07 0)
(0.000445685 -5.62773e-07 0)
(0.000446036 -6.1722e-07 0)
(0.000446423 -6.80278e-07 0)
(0.000446853 -7.49711e-07 0)
(0.000447328 -8.21611e-07 0)
(0.000447849 -8.91892e-07 0)