/*--------------------------------*- C++ -*----------------------------------*\
| =========                 |                                                 |
| \\      /  F ield         | OpenFOAM: The Open Source CFD Toolbox           |
|  \\    /   O peration     | Version:  v2006                                 |
|   \\  /    A nd           | Website:  www.openfoam.com                      |
|    \\/     M anipulation  |                                                 |
\*---------------------------------------------------------------------------*/
FoamFile
{
    version     2.0;
    format      ascii;
    class       volScalarField;
    location    "0";
    object      shifted_f;
}
// * * * * * * * * * * * * * * * * * * * * * * * * * * * * * * * * * * * * * //

dimensions      [0 0 0 0 0 0 0];


internalField   nonuniform List<scalar> 
2500
(
-0.321906
-0.321929
-0.322066
-0.321288
-0.321274
-0.324445
-0.325558
-0.324006
-0.32424
-0.324636
-0.324648
-0.324684
-0.324745
-0.324797
-0.324839
-0.324877
-0.324947
-0.325002
-0.325068
-0.32512
-0.325179
-0.325234
-0.325305
-0.325368
-0.325439
-0.325489
-0.325827
-0.325859
-0.322728
-0.308893
-0.275224
-0.878724
0.287677
0.349795
0.349797
0.349765
0.349759
0.349752
0.349732
0.34973
0.349737
0.349736
0.349739
0.349749
0.349755
0.349759
0.349773
0.349803
0.34982
0.349833
0.349855
0.349857
0.349892
0.349974
0.350227
0.351143
0.356476
0.353015
0.354173
0.354498
0.354552
0.354603
0.354658
0.354704
0.354748
0.354795
0.354851
0.354916
0.354967
0.355027
0.355091
0.355168
0.355223
0.355298
0.355368
0.355436
0.355633
0.355517
0.360089
0.326312
0.318404
1.03003
0.214083
-0.0818312
-0.0833377
-0.0834937
-0.0834494
-0.0834458
-0.083423
-0.0834165
-0.0834045
-0.0833941
-0.0833961
-0.0833909
-0.0834034
-0.0833914
-0.0833932
-0.0834017
-0.0834113
-0.0834184
-0.0834342
-0.0834426
-0.0834517
-0.0834643
-0.0827177
-0.0828745
-0.0887978
-0.0905279
-0.0892232
-0.0882706
-0.0883254
-0.0883268
-0.0883528
-0.0883895
-0.0884388
-0.0884739
-0.0885253
-0.0885646
-0.0886071
-0.0886543
-0.0886884
-0.0887507
-0.0887955
-0.0888556
-0.0888957
-0.0889517
-0.0890105
-0.0894605
-0.0894784
-0.0961471
-0.0853142
-0.252664
-0.914417
-0.0405252
-0.00777411
-0.00793938
-0.00798753
-0.0079974
-0.00801941
-0.00803164
-0.00805239
-0.00808141
-0.00807568
-0.00808728
-0.00808786
-0.00810017
-0.00811217
-0.00809698
-0.00809874
-0.00808592
-0.00808287
-0.00807114
-0.00805012
-0.00802178
-0.00801637
-0.00773132
-0.00656534
0.00195066
-0.00189749
-0.00314862
-0.00298266
-0.002954
-0.00290652
-0.00288916
-0.00284943
-0.00279944
-0.00275623
-0.00271988
-0.00267026
-0.00263136
-0.00259319
-0.0025455
-0.00248519
-0.0024391
-0.00239384
-0.0023302
-0.00227876
-0.00217752
-0.00174923
0.00234333
-0.0203893
-0.00693008
0.93056
0.258491
0.087037
0.0866414
0.0865272
0.0865586
0.0865971
0.0866227
0.0866474
0.0866647
0.0866892
0.0867032
0.0867118
0.0867433
0.086749
0.0867591
0.0867697
0.0867709
0.0867863
0.0867777
0.0867796
0.0867835
0.0869017
0.0870836
0.0867162
0.0783506
0.0761852
0.076361
0.0784019
0.0787806
0.078784
0.0787581
0.0787496
0.0787239
0.0786993
0.0786745
0.0786506
0.0786249
0.0785874
0.0785499
0.0785247
0.0784894
0.0784467
0.0784055
0.0783792
0.0783389
0.0778804
0.0778542
0.070247
0.0767433
-0.196579
-0.7876
-0.235322
-0.221306
-0.221505
-0.221547
-0.221581
-0.22161
-0.221642
-0.221668
-0.221698
-0.221714
-0.221736
-0.221742
-0.221764
-0.221777
-0.221784
-0.221802
-0.221812
-0.221816
-0.221818
-0.221803
-0.221798
-0.22185
-0.221726
-0.220476
-0.209464
-0.21203
-0.216192
-0.216562
-0.216535
-0.216509
-0.216505
-0.216492
-0.216465
-0.216448
-0.216407
-0.216392
-0.216364
-0.216341
-0.216304
-0.216283
-0.216248
-0.216199
-0.216172
-0.216136
-0.216166
-0.215183
-0.21196
-0.216355
-0.196141
0.711428
0.247457
0.163883
0.164002
0.163932
0.163988
0.164032
0.164051
0.164089
0.164122
0.164142
0.164174
0.164191
0.164217
0.164231
0.164263
0.164264
0.164298
0.164305
0.164312
0.164317
0.164329
0.164413
0.163685
0.163524
0.153653
0.151628
0.149644
0.153478
0.15402
0.154036
0.154022
0.154031
0.154003
0.154003
0.153995
0.153983
0.153962
0.153948
0.15394
0.153924
0.15391
0.153891
0.153867
0.153845
0.153832
0.153519
0.1535
0.152908
0.147316
-0.117146
-0.557674
-0.263565
-0.259341
-0.259517
-0.259542
-0.259571
-0.259599
-0.259633
-0.259657
-0.259683
-0.259706
-0.259744
-0.259755
-0.259776
-0.259788
-0.259809
-0.259828
-0.259846
-0.259848
-0.259859
-0.259865
-0.259884
-0.259956
-0.260201
-0.258942
-0.247585
-0.246021
-0.252655
-0.253457
-0.25345
-0.253441
-0.253436
-0.253438
-0.25343
-0.253418
-0.253411
-0.253396
-0.253399
-0.253379
-0.253355
-0.253349
-0.253324
-0.253309
-0.253297
-0.253277
-0.253419
-0.252259
-0.24915
-0.233438
-0.227719
0.4795
0.211213
0.178122
0.178401
0.178388
0.178444
0.17847
0.17849
0.178527
0.178544
0.178567
0.178599
0.178619
0.178634
0.178658
0.178671
0.178693
0.178699
0.178728
0.178739
0.178753
0.178772
0.178722
0.177363
0.178474
0.168916
0.168302
0.163568
0.169156
0.169379
0.169374
0.16937
0.169372
0.169367
0.16938
0.169369
0.169376
0.169375
0.169364
0.16936
0.169346
0.169347
0.169339
0.16933
0.169317
0.169312
0.169318
0.169303
0.177159
0.14924
-0.0377859
-0.312087
-0.182301
-0.18223
-0.182346
-0.18235
-0.182374
-0.182401
-0.182428
-0.182451
-0.182457
-0.182474
-0.182501
-0.182511
-0.182533
-0.182545
-0.182554
-0.182581
-0.182588
-0.1826
-0.182613
-0.182624
-0.182643
-0.182644
-0.183328
-0.181792
-0.175163
-0.166005
-0.173224
-0.173651
-0.173669
-0.173653
-0.173649
-0.173652
-0.173659
-0.173654
-0.173664
-0.173646
-0.173653
-0.173644
-0.173636
-0.173631
-0.173624
-0.173618
-0.173617
-0.173604
-0.173841
-0.172859
-0.169195
-0.138602
-0.150306
0.306878
0.178961
0.169908
0.170149
0.170178
0.17023
0.170242
0.170266
0.170283
0.170302
0.17032
0.170333
0.170357
0.170365
0.170373
0.170391
0.170403
0.170415
0.170427
0.170434
0.170448
0.170459
0.17034
0.16951
0.172867
0.166962
0.169903
0.163363
0.165379
0.16491
0.164861
0.164874
0.164871
0.164873
0.164869
0.164871
0.164863
0.164877
0.164874
0.164872
0.164865
0.164862
0.164862
0.16485
0.16485
0.164848
0.165158
0.165123
0.175283
0.133469
0.0288614
-0.110384
-0.065729
-0.0669223
-0.0669693
-0.066951
-0.0669679
-0.0669868
-0.0669965
-0.067005
-0.06702
-0.0670293
-0.0670366
-0.0670562
-0.0670718
-0.0670779
-0.0670956
-0.0670989
-0.0671061
-0.06711
-0.0671253
-0.0671411
-0.0671542
-0.0670794
-0.0678452
-0.065676
-0.073772
-0.0554997
-0.0575693
-0.0563528
-0.05638
-0.0563834
-0.0563834
-0.0563755
-0.0563868
-0.0563883
-0.0563879
-0.0563912
-0.0563977
-0.0564032
-0.0563968
-0.0563965
-0.0563956
-0.0563957
-0.0563898
-0.0563914
-0.0566149
-0.0558561
-0.052388
-0.0201888
-0.0362013
0.20107
0.152762
0.153081
0.153231
0.153287
0.153321
0.153332
0.153347
0.153361
0.153364
0.153374
0.153378
0.153394
0.153392
0.153405
0.153403
0.153418
0.153424
0.153432
0.153435
0.153437
0.153437
0.153388
0.153997
0.159189
0.163429
0.172541
0.168494
0.151971
0.15079
0.150775
0.150778
0.150775
0.150777
0.15077
0.15077
0.150766
0.150768
0.150768
0.150766
0.150765
0.150758
0.150764
0.150761
0.150754
0.150751
0.151167
0.151131
0.154716
0.123619
0.080279
0.0254295
0.0336342
0.0324739
0.0324738
0.0324962
0.0324972
0.0324839
0.0324851
0.0324698
0.032464
0.0324592
0.0324575
0.0324532
0.0324502
0.0324472
0.0324356
0.0324313
0.032429
0.0324258
0.0324287
0.0324289
0.0324126
0.032474
0.0321403
0.0344784
-0.00459178
0.0153649
0.0354751
0.0381471
0.0381223
0.0380966
0.0381024
0.0381102
0.0381051
0.0381011
0.0380959
0.0380878
0.0380875
0.038077
0.0380866
0.0380749
0.0380848
0.0380755
0.0380669
0.0380763
0.0379122
0.0384318
0.0393433
0.0558826
0.0436975
0.133301
0.121284
0.124111
0.124154
0.124224
0.124251
0.124264
0.124269
0.124274
0.124271
0.124279
0.124289
0.124281
0.124286
0.124288
0.124289
0.124288
0.124297
0.124295
0.124301
0.124305
0.124303
0.124334
0.125653
0.130409
0.157365
0.172474
0.183881
0.142661
0.14157
0.141511
0.141503
0.141508
0.141517
0.141526
0.141515
0.141504
0.141507
0.141499
0.141502
0.141497
0.141499
0.141486
0.141495
0.141502
0.141484
0.141962
0.141921
0.135148
0.120616
0.115225
0.100668
0.0965265
0.0958238
0.0958634
0.0958903
0.0958926
0.0958942
0.0959031
0.0958973
0.095899
0.0958893
0.0959003
0.0958977
0.0958895
0.0958932
0.0958948
0.095903
0.0958885
0.095906
0.0958992
0.0958987
0.0959019
0.0958823
0.0960337
0.0957839
0.0122737
-0.000780719
0.0625769
0.0634504
0.0634305
0.0634153
0.063421
0.0634254
0.0634344
0.0634372
0.0634359
0.0634374
0.063456
0.0634576
0.0634608
0.0634733
0.0634595
0.0634775
0.0634766
0.0634851
0.0633783
0.0633753
0.0600304
0.0578923
0.0493276
0.0689504
0.070209
0.0727308
0.0727076
0.0727856
0.0728144
0.0728112
0.0728302
0.0728373
0.0728471
0.0728497
0.0728554
0.0728666
0.0728583
0.072875
0.0728805
0.0728708
0.0728849
0.0728998
0.0729058
0.0729044
0.0729078
0.0729829
0.0731943
0.074705
0.140892
0.146708
0.197402
0.187518
0.187223
0.187143
0.187136
0.187137
0.187135
0.187121
0.187109
0.187098
0.187088
0.187091
0.187083
0.187076
0.18708
0.187071
0.187057
0.187053
0.187044
0.187516
0.187505
0.172706
0.165346
0.172451
0.172621
0.166401
0.166223
0.16628
0.166283
0.166281
0.166286
0.166274
0.16628
0.166279
0.166276
0.166264
0.166263
0.166268
0.16626
0.166255
0.166249
0.166249
0.166247
0.166243
0.166238
0.166238
0.166152
0.166278
0.158241
0.0773586
-0.0517756
-0.00732679
-0.0116366
-0.0116613
-0.0116414
-0.0116286
-0.0116143
-0.0115909
-0.011568
-0.0115524
-0.0115304
-0.0115241
-0.0114965
-0.0114794
-0.0114671
-0.0114436
-0.011417
-0.0114134
-0.0113896
-0.0114235
-0.0119139
-0.0176553
-0.0219898
-0.02663
-0.0290404
-0.0246176
-0.0232578
-0.0233108
-0.023245
-0.0232268
-0.0231947
-0.0231795
-0.0231683
-0.0231412
-0.0231221
-0.0230966
-0.0230747
-0.0230616
-0.0230461
-0.0230261
-0.0230172
-0.0229896
-0.0229787
-0.0229574
-0.022946
-0.0229215
-0.022844
-0.0240884
-0.0284818
0.0592312
0.00381901
0.0639194
0.166882
0.166027
0.166009
0.166015
0.166004
0.166027
0.166017
0.166019
0.166022
0.16602
0.16602
0.166006
0.166013
0.166015
0.16602
0.166
0.166017
0.165997
0.166221
0.166258
0.152981
0.150003
0.155667
0.159338
0.154838
0.155067
0.155109
0.155119
0.155115
0.155116
0.155112
0.155098
0.155084
0.155063
0.155058
0.155038
0.155035
0.155019
0.155013
0.155004
0.154986
0.154976
0.154953
0.154928
0.15493
0.154855
0.154886
0.13765
0.290981
0.0805109
-0.0577369
-0.0650449
-0.0650944
-0.0650979
-0.0651025
-0.065095
-0.0650998
-0.0651046
-0.0650975
-0.0650977
-0.0650964
-0.0650942
-0.0650907
-0.0650725
-0.0650786
-0.0650853
-0.065074
-0.0650876
-0.0650545
-0.0652261
-0.069312
-0.0715866
-0.0728346
-0.0783063
-0.0745621
-0.0744092
-0.0745073
-0.074456
-0.0744587
-0.0744582
-0.0744484
-0.0744414
-0.0744274
-0.0744408
-0.0744285
-0.0744328
-0.0744143
-0.0744006
-0.0744061
-0.0743971
-0.074392
-0.0743887
-0.0743813
-0.0743778
-0.0743742
-0.0743376
-0.0754616
-0.0852839
-0.111723
-0.236018
-0.317362
-0.101288
-0.102806
-0.102681
-0.102663
-0.102639
-0.102626
-0.102618
-0.102593
-0.102584
-0.102569
-0.102561
-0.102541
-0.102528
-0.10251
-0.102506
-0.102506
-0.10249
-0.10248
-0.102579
-0.102551
-0.109568
-0.109066
-0.106852
-0.103825
-0.10576
-0.105262
-0.105223
-0.105222
-0.105218
-0.1052
-0.105199
-0.1052
-0.105188
-0.105186
-0.105191
-0.105196
-0.105181
-0.105189
-0.10519
-0.105202
-0.105199
-0.105192
-0.105212
-0.105215
-0.105208
-0.105225
-0.105207
-0.117054
0.38182
0.494903
0.123544
0.118909
0.118947
0.118906
0.118897
0.118878
0.118863
0.118834
0.11884
0.118822
0.118813
0.118785
0.11879
0.118784
0.118765
0.118747
0.118744
0.118721
0.118666
0.119002
0.116993
0.113815
0.114131
0.11116
0.11312
0.112397
0.112306
0.112312
0.112267
0.11226
0.112256
0.112258
0.112251
0.112264
0.11224
0.112239
0.112242
0.112222
0.112212
0.112209
0.112197
0.112194
0.112188
0.112187
0.112169
0.112136
0.111849
0.105248
-0.118702
-0.137905
-0.43011
-0.213724
-0.212676
-0.212581
-0.212578
-0.212554
-0.21255
-0.21255
-0.212559
-0.212551
-0.212532
-0.212529
-0.212527
-0.212523
-0.212529
-0.212514
-0.212513
-0.212501
-0.212498
-0.212436
-0.21248
-0.216893
-0.215255
-0.215282
-0.213993
-0.213803
-0.213244
-0.213213
-0.213232
-0.213236
-0.213201
-0.213195
-0.213194
-0.2132
-0.213191
-0.213185
-0.213199
-0.21319
-0.213186
-0.213173
-0.21317
-0.21317
-0.213156
-0.213168
-0.213159
-0.213164
-0.213089
-0.213664
-0.211546
0.16205
0.817743
0.388686
0.393632
0.393793
0.393735
0.393737
0.393716
0.393669
0.39367
0.393655
0.393636
0.393631
0.393592
0.393596
0.393583
0.39355
0.393557
0.393527
0.393523
0.393397
0.392593
0.390941
0.387613
0.388356
0.388558
0.388872
0.387728
0.387659
0.387635
0.387587
0.387578
0.387589
0.387585
0.387585
0.387575
0.387551
0.38757
0.387539
0.387544
0.387548
0.387545
0.387529
0.387526
0.387511
0.387522
0.387505
0.387428
0.386975
0.38115
0.0698279
0.276238
-0.0728147
-0.207472
-0.204068
-0.204158
-0.204149
-0.204174
-0.204148
-0.20415
-0.204159
-0.204161
-0.204141
-0.204135
-0.204129
-0.204122
-0.204114
-0.204111
-0.204098
-0.204082
-0.204088
-0.20389
-0.203889
-0.207285
-0.205828
-0.207033
-0.207297
-0.205867
-0.205384
-0.205356
-0.205373
-0.205355
-0.205333
-0.205337
-0.205324
-0.205301
-0.205285
-0.205274
-0.205253
-0.205224
-0.2052
-0.205178
-0.205178
-0.205156
-0.20514
-0.205098
-0.205111
-0.205074
-0.204991
-0.205329
-0.18714
-0.3784
0.47489
0.593855
0.640326
0.640445
0.640388
0.640369
0.640333
0.640304
0.640288
0.640258
0.640235
0.640197
0.640167
0.640145
0.64012
0.640099
0.640064
0.640039
0.640021
0.640135
0.638558
0.63731
0.6348
0.635494
0.637946
0.63723
0.636106
0.636005
0.635969
0.635901
0.635871
0.635774
0.635742
0.635712
0.635678
0.635659
0.635655
0.635611
0.635578
0.635571
0.635531
0.635491
0.635485
0.635468
0.635423
0.635397
0.635305
0.634453
0.621519
0.376949
0.733807
0.711938
-0.577685
-0.581474
-0.58167
-0.58172
-0.581753
-0.581804
-0.58181
-0.581812
-0.581877
-0.581878
-0.581862
-0.581893
-0.581892
-0.581893
-0.581913
-0.581908
-0.581887
-0.581876
-0.582477
-0.582438
-0.584921
-0.583967
-0.585644
-0.586899
-0.585202
-0.584865
-0.584863
-0.584867
-0.584822
-0.58487
-0.584812
-0.584776
-0.58474
-0.584717
-0.584663
-0.584601
-0.58456
-0.584509
-0.584446
-0.584407
-0.58435
-0.584296
-0.584218
-0.58419
-0.584132
-0.584063
-0.582604
-0.537311
-1.43181
-1.07068
0.609285
0.754547
0.754497
0.754516
0.754516
0.754486
0.754473
0.754453
0.754446
0.754441
0.754421
0.754399
0.754379
0.754338
0.754347
0.754299
0.75426
0.754234
0.754427
0.753969
0.753189
0.751701
0.752242
0.755653
0.754526
0.753736
0.753729
0.753578
0.753493
0.753391
0.753329
0.753299
0.753241
0.753169
0.753111
0.753046
0.752972
0.752943
0.752845
0.752798
0.752732
0.752667
0.752614
0.752536
0.752438
0.752352
0.751971
0.741387
0.811966
1.09332
1.93403
-1.2582
-1.27897
-1.27921
-1.27935
-1.27948
-1.27962
-1.27975
-1.27985
-1.27993
-1.28002
-1.28013
-1.28017
-1.28027
-1.28031
-1.28038
-1.28042
-1.28044
-1.28048
-1.28124
-1.28124
-1.28292
-1.28247
-1.28418
-1.28574
-1.28462
-1.28457
-1.28459
-1.2846
-1.28456
-1.28453
-1.28448
-1.2844
-1.28437
-1.28431
-1.28423
-1.28418
-1.2841
-1.28401
-1.28393
-1.28383
-1.28375
-1.28366
-1.28354
-1.28346
-1.28333
-1.28328
-1.27967
-1.21258
-2.45628
-3.49879
0.48155
0.724422
0.724374
0.72449
0.724522
0.72459
0.724628
0.724688
0.724697
0.724742
0.724748
0.724783
0.72478
0.724821
0.724829
0.724797
0.724781
0.724772
0.724557
0.724755
0.724271
0.723607
0.723976
0.727126
0.726256
0.726116
0.72613
0.725976
0.726043
0.725963
0.725906
0.725815
0.725729
0.725656
0.725573
0.725462
0.725369
0.725283
0.725216
0.72507
0.724972
0.724875
0.72473
0.724639
0.724524
0.724428
0.725512
0.74381
1.30182
1.21845
3.37167
-1.58052
-1.61597
-1.6162
-1.61651
-1.61681
-1.6171
-1.61739
-1.61759
-1.61784
-1.61807
-1.61826
-1.61849
-1.61865
-1.61881
-1.61899
-1.61914
-1.61925
-1.61939
-1.61942
-1.61951
-1.62066
-1.62062
-1.62203
-1.62336
-1.62358
-1.62389
-1.62401
-1.62384
-1.62387
-1.62384
-1.62384
-1.62383
-1.62378
-1.62374
-1.62368
-1.62361
-1.62356
-1.62349
-1.62339
-1.6233
-1.62321
-1.62311
-1.62297
-1.62288
-1.62274
-1.62272
-1.6184
-1.57309
-2.42081
-5.69563
0.456382
0.729424
0.729603
0.729793
0.729997
0.730138
0.730264
0.730396
0.730588
0.730658
0.73079
0.7309
0.730982
0.731061
0.731134
0.731189
0.731258
0.731296
0.73119
0.731313
0.730944
0.730829
0.731055
0.733217
0.73309
0.733826
0.733936
0.734182
0.734132
0.73408
0.734031
0.733962
0.733903
0.733867
0.733753
0.733658
0.733592
0.733506
0.73337
0.733275
0.733177
0.733052
0.73293
0.732788
0.732646
0.7326
0.735854
0.802631
1.6827
1.00308
4.43673
-1.2218
-1.25557
-1.25596
-1.25645
-1.25695
-1.25747
-1.25788
-1.25832
-1.25875
-1.25911
-1.2595
-1.25986
-1.26017
-1.26053
-1.26082
-1.26115
-1.2614
-1.26163
-1.26152
-1.26176
-1.26257
-1.26289
-1.26382
-1.26461
-1.26662
-1.26733
-1.26728
-1.26741
-1.2675
-1.26754
-1.26761
-1.26766
-1.26771
-1.26771
-1.26773
-1.26774
-1.26772
-1.26768
-1.26763
-1.26759
-1.26755
-1.26747
-1.26739
-1.26729
-1.26721
-1.26721
-1.26596
-1.3011
-1.17449
-6.66726
0.48846
0.736794
0.73723
0.737544
0.737897
0.738208
0.738515
0.738784
0.739024
0.739274
0.739477
0.73972
0.739979
0.740173
0.740364
0.740523
0.740695
0.74083
0.741321
0.741265
0.741039
0.74132
0.741418
0.742213
0.743137
0.744895
0.744727
0.744798
0.744839
0.744851
0.744889
0.744877
0.744894
0.744834
0.744876
0.744839
0.744794
0.744706
0.744694
0.744607
0.744558
0.74446
0.744393
0.744299
0.744166
0.744233
0.749684
0.841354
1.75273
0.45968
4.47191
-0.386446
-0.403798
-0.404569
-0.405197
-0.405941
-0.406594
-0.407248
-0.407862
-0.408479
-0.409034
-0.409575
-0.410164
-0.410644
-0.411134
-0.411637
-0.412103
-0.412551
-0.412932
-0.413224
-0.41359
-0.414335
-0.414981
-0.415229
-0.415206
-0.419447
-0.418417
-0.418658
-0.418898
-0.419099
-0.419317
-0.419485
-0.419692
-0.41984
-0.420008
-0.420134
-0.420215
-0.420316
-0.420396
-0.420462
-0.420537
-0.420541
-0.420579
-0.420638
-0.420619
-0.420613
-0.420677
-0.426544
-0.565437
0.710264
-6.01315
0.355136
0.503249
0.503726
0.504232
0.504673
0.505085
0.505527
0.505987
0.50636
0.506756
0.507082
0.50755
0.507782
0.508117
0.50843
0.508765
0.509052
0.509341
0.510036
0.510014
0.509977
0.510569
0.510566
0.509657
0.511818
0.508741
0.508975
0.509026
0.509197
0.509344
0.509462
0.509564
0.509691
0.509795
0.509857
0.509947
0.509929
0.510011
0.51002
0.510109
0.510144
0.510122
0.510115
0.510064
0.510089
0.510194
0.516131
0.564561
1.41308
-0.368049
3.28682
0.650111
0.652893
0.651929
0.651099
0.650265
0.649497
0.648731
0.647975
0.647252
0.646513
0.645787
0.645162
0.644474
0.643875
0.643261
0.642665
0.642048
0.641493
0.640895
0.640385
0.639788
0.638666
0.639356
0.640067
0.6475
0.647134
0.646753
0.646386
0.645983
0.645627
0.645282
0.645003
0.64467
0.644353
0.644114
0.643846
0.643575
0.643347
0.643103
0.642895
0.642763
0.642541
0.642415
0.642232
0.642091
0.642013
0.629576
0.372782
3.00776
-3.7604
-0.128347
-0.145496
-0.144995
-0.144515
-0.144098
-0.143672
-0.143218
-0.142687
-0.142289
-0.141898
-0.141485
-0.141091
-0.140764
-0.140316
-0.13998
-0.13959
-0.139329
-0.139018
-0.138557
-0.138383
-0.138276
-0.137401
-0.137666
-0.140423
-0.143943
-0.143967
-0.143733
-0.143492
-0.143327
-0.143119
-0.142953
-0.142801
-0.142625
-0.142514
-0.142318
-0.142191
-0.142158
-0.141972
-0.141875
-0.141733
-0.141673
-0.141634
-0.141551
-0.141473
-0.141474
-0.141197
-0.138968
-0.189152
0.257228
-1.93554
0.459195
0.642017
0.658997
0.658119
0.657359
0.656479
0.655721
0.654945
0.654218
0.653543
0.652779
0.65207
0.651424
0.650684
0.650037
0.649423
0.648788
0.648159
0.647532
0.646813
0.646257
0.645843
0.644452
0.64623
0.645189
0.645281
0.644875
0.644412
0.643849
0.643511
0.643031
0.642655
0.642202
0.64181
0.641429
0.640971
0.640686
0.640332
0.639987
0.639601
0.63932
0.638981
0.638705
0.638471
0.638134
0.637888
0.6378
0.626514
0.276842
4.95725
-0.401866
-0.295344
-0.459993
-0.45959
-0.459165
-0.458821
-0.458343
-0.457947
-0.457629
-0.457127
-0.456766
-0.456474
-0.456085
-0.455755
-0.455439
-0.455104
-0.454772
-0.454434
-0.454145
-0.453963
-0.453644
-0.453463
-0.452302
-0.453012
-0.450582
-0.450727
-0.450672
-0.450458
-0.450255
-0.450028
-0.449803
-0.449631
-0.449499
-0.449233
-0.449078
-0.448901
-0.44876
-0.448584
-0.448441
-0.448279
-0.44812
-0.448059
-0.447859
-0.447759
-0.447668
-0.447608
-0.447321
-0.452704
-0.606835
-1.47262
-3.72566
-3.09338
-0.380165
-0.355415
-0.356173
-0.35677
-0.357498
-0.358187
-0.358819
-0.3594
-0.360114
-0.36077
-0.36132
-0.361928
-0.362567
-0.363131
-0.363623
-0.364262
-0.364832
-0.365296
-0.366009
-0.366564
-0.366617
-0.368277
-0.372774
-0.37364
-0.373639
-0.374101
-0.374588
-0.375048
-0.375466
-0.375912
-0.376337
-0.376795
-0.377114
-0.377558
-0.377917
-0.378325
-0.378712
-0.379065
-0.379464
-0.379847
-0.380171
-0.380506
-0.380866
-0.381129
-0.381422
-0.381352
-0.386622
-0.637051
5.87524
3.11361
0.344758
0.107149
0.107643
0.107972
0.108377
0.108699
0.109083
0.109414
0.109792
0.110202
0.1105
0.110809
0.111186
0.111474
0.111797
0.11218
0.11255
0.112767
0.113026
0.113296
0.113669
0.115108
0.116872
0.117875
0.117885
0.118031
0.118281
0.118581
0.118809
0.119099
0.119329
0.11953
0.119848
0.120075
0.120336
0.120483
0.120747
0.12097
0.121219
0.121424
0.12158
0.121771
0.122054
0.122166
0.122353
0.122645
0.110569
-0.0988306
-2.60875
-4.33661
-5.37443
-1.09378
-1.06673
-1.06733
-1.06786
-1.06833
-1.06894
-1.06936
-1.06991
-1.07037
-1.07093
-1.07145
-1.07191
-1.07241
-1.07292
-1.07343
-1.07391
-1.07437
-1.07483
-1.07532
-1.0758
-1.07547
-1.07408
-1.07494
-1.0756
-1.07579
-1.07627
-1.07671
-1.07715
-1.07758
-1.07795
-1.07832
-1.07888
-1.07921
-1.0796
-1.08001
-1.08041
-1.08075
-1.08125
-1.0816
-1.08191
-1.08235
-1.08265
-1.08301
-1.08337
-1.08371
-1.08378
-1.08646
-1.08504
5.68143
5.90372
1.25944
1.01967
1.02009
1.02039
1.0207
1.02104
1.0214
1.02169
1.02199
1.02237
1.02265
1.02297
1.02332
1.02367
1.02397
1.02432
1.02461
1.02501
1.0252
1.02559
1.02614
1.02427
1.02478
1.02562
1.02576
1.02608
1.02643
1.02674
1.02701
1.02737
1.02776
1.02799
1.02829
1.02861
1.02896
1.0293
1.02957
1.02986
1.03026
1.03052
1.03078
1.03105
1.03143
1.03171
1.03197
1.03217
1.01698
0.817198
-2.68429
-3.46465
-5.68762
-1.03781
-1.01443
-1.01471
-1.01519
-1.01548
-1.01588
-1.01628
-1.01669
-1.01705
-1.0174
-1.01783
-1.01817
-1.01859
-1.01895
-1.01941
-1.01976
-1.02013
-1.02054
-1.02094
-1.02125
-1.02202
-1.02239
-1.02302
-1.02356
-1.02396
-1.02445
-1.02487
-1.0253
-1.02568
-1.02612
-1.02647
-1.02689
-1.02731
-1.02775
-1.02816
-1.02858
-1.02889
-1.02939
-1.0298
-1.0302
-1.03058
-1.031
-1.03144
-1.03182
-1.03221
-1.03257
-1.03089
-0.836061
4.23424
7.12454
1.60842
1.41104
1.41125
1.41155
1.4118
1.41204
1.41227
1.41261
1.41286
1.41313
1.41347
1.41377
1.41408
1.41434
1.41467
1.41492
1.41533
1.41558
1.4159
1.4162
1.41711
1.41717
1.41759
1.41822
1.41846
1.41899
1.41942
1.41976
1.42009
1.4205
1.42091
1.42127
1.42161
1.422
1.4224
1.42283
1.42325
1.42356
1.42401
1.42439
1.42481
1.42519
1.42566
1.42601
1.42645
1.42652
1.40869
1.24587
-2.21721
-1.91868
-4.81551
-0.742873
-0.727398
-0.727605
-0.727777
-0.727969
-0.72818
-0.728436
-0.728633
-0.728978
-0.729157
-0.72945
-0.729639
-0.729975
-0.730312
-0.73061
-0.730878
-0.731258
-0.73156
-0.731742
-0.732125
-0.733342
-0.733668
-0.734053
-0.734468
-0.735062
-0.735504
-0.735962
-0.736342
-0.736632
-0.737068
-0.737461
-0.737805
-0.738208
-0.738678
-0.738956
-0.739426
-0.739793
-0.740292
-0.740661
-0.741101
-0.741609
-0.741947
-0.742422
-0.742917
-0.7433
-0.743955
-0.730697
-0.458543
1.48995
6.23166
0.91146
0.775336
0.775453
0.775535
0.775756
0.775863
0.776025
0.776248
0.77643
0.776629
0.776882
0.777092
0.777296
0.77752
0.777862
0.778062
0.778409
0.778666
0.778952
0.778947
0.778485
0.778359
0.778696
0.778942
0.779438
0.780146
0.780459
0.780811
0.78125
0.781629
0.782002
0.782473
0.782843
0.783275
0.783702
0.784076
0.784505
0.785013
0.78546
0.785899
0.786375
0.786861
0.787376
0.787807
0.788326
0.788318
0.773424
0.644015
-1.64297
-0.393212
-3.48048
-0.474313
-0.467344
-0.467451
-0.46747
-0.467622
-0.467625
-0.467748
-0.467976
-0.468081
-0.468212
-0.468338
-0.468473
-0.468626
-0.468774
-0.469043
-0.469267
-0.469444
-0.469704
-0.469852
-0.47005
-0.471444
-0.471559
-0.471694
-0.471867
-0.472752
-0.47312
-0.473489
-0.47379
-0.474089
-0.474426
-0.47486
-0.475196
-0.475519
-0.475915
-0.476309
-0.476791
-0.477106
-0.477488
-0.477928
-0.478327
-0.47878
-0.479254
-0.479692
-0.480091
-0.480544
-0.481442
-0.45843
-0.225495
-1.7872
3.84041
-0.446962
-0.524596
-0.524662
-0.524694
-0.524688
-0.524618
-0.524478
-0.524525
-0.524373
-0.524356
-0.52419
-0.524041
-0.523883
-0.523759
-0.523579
-0.523447
-0.523193
-0.522984
)
;

boundaryField
{
    movingWall
    {
        type            zeroGradient;
    }
    fixedWalls
    {
        type            zeroGradient;
    }
    frontAndBack
    {
        type            empty;
    }
}

