/*--------------------------------*- C++ -*----------------------------------*\
| =========                 |                                                 |
| \\      /  F ield         | OpenFOAM: The Open Source CFD Toolbox           |
|  \\    /   O peration     | Version:  v2006                                 |
|   \\  /    A nd           | Website:  www.openfoam.com                      |
|    \\/     M anipulation  |                                                 |
\*---------------------------------------------------------------------------*/
FoamFile
{
    version     2.0;
    format      ascii;
    class       volScalarField;
    location    "1.2";
    object      p;
}
// * * * * * * * * * * * * * * * * * * * * * * * * * * * * * * * * * * * * * //

dimensions      [1 -1 -2 0 0 0 0];


internalField   nonuniform List<scalar> 
150000
(
19483.3
19483.9
19481.5
19481.6
19478.9
19477.2
19474.3
19471.3
19467.7
19463.8
19459.4
19454.7
19449.5
19443.9
19437.9
19431.5
19424.7
19417.6
19410
19402.2
19394
19385.5
19376.6
19367.5
19358.1
19348.4
19338.4
19328.2
19317.8
19307.1
19296.3
19285.2
19274
19262.6
19251.1
19239.4
19227.6
19215.7
19203.7
19191.6
19179.4
19167.1
19154.7
19142.2
19129.6
19116.9
19104.1
19091.3
19078.4
19065.4
19052.3
19039.1
19025.8
19012.3
18998.8
18985.1
18971.2
18957.2
18943
18928.6
18914.1
18899.3
18884.3
18869
18853.6
18837.9
18821.9
18805.6
18789.1
18772.3
18755.2
18737.8
18720
18702
18683.6
18665
18646
18626.7
18607
18587.1
18566.8
18546.2
18525.4
18504.2
18482.7
18461
18438.9
18416.7
18394.1
18371.4
18348.4
18325.3
18301.9
18278.4
18254.8
18231.1
18207.2
18183.3
18159.4
18135.5
18111.5
18087.6
18063.8
18040
18016.4
17993
17969.7
17946.7
17923.9
17901.4
17879.2
17857.4
17836
17815
17794.4
17774.3
17754.7
17735.7
17717.2
17699.3
17682.1
17665.6
17649.7
17634.6
17620.3
17606.7
17593.9
17582
17571
17560.8
17551.5
17543.2
17535.9
17529.5
17524.1
17519.8
17516.5
17514.2
17513
17512.9
17513.9
17516.1
17519.3
17523.7
17529.3
17536
17543.9
17553
17563.3
17574.7
17587.4
17601.2
17616.3
17632.5
17650
17668.6
17688.5
17709.5
17731.8
17755.2
17779.7
17805.5
17832.3
17860.4
17889.5
17919.7
17951.1
17983.5
18017
18051.5
18087
18123.5
18161
18199.4
18238.8
18279
18320.2
18362.1
18404.9
18448.5
18492.8
18537.8
18583.5
18629.9
18676.9
18724.4
18772.6
18821.2
18870.4
18920
18969.9
19020.3
19071
19122
19173.3
19224.8
19276.5
19328.4
19380.4
19432.4
19484.5
19536.7
19588.8
19640.8
19692.8
19744.6
19796.3
19847.8
19899.1
19950.1
20000.8
20051.3
20101.3
20151
20200.4
20249.2
20297.7
20345.6
20393
20439.9
20486.3
20532.1
20577.3
20621.8
20665.7
20709
20751.6
20793.5
20834.7
20875.2
20914.9
20953.9
20992.1
21029.5
21066.2
21102
21137.1
21171.3
21204.7
21237.3
21269
21299.8
21329.9
21359
21387.3
21414.8
21441.4
21467.1
21492
21516
21539.1
21561.4
21582.8
21603.4
21623.2
21642.1
21660.1
21677.4
21693.8
21709.4
21724.2
21738.4
21751.6
21764
21775.7
21786.7
21796.9
21806.5
21815.3
21823.4
21830.9
21837.7
21843.8
21849.3
21854.3
21858.6
21862.4
21865.6
21868.3
21870.5
21872.1
21873.3
21874.1
21874.4
21874.3
21873.8
21872.9
21871.6
21870
21868.1
21865.9
21863.5
21860.7
21857.8
21854.6
21851.2
21847.7
21844
21840.1
21836.2
21832.1
21828
21823.7
21819.5
21815.2
21810.9
21806.7
21802.4
21798.2
21794.1
21790.1
21786.1
21782.2
21778.5
21774.9
21771.5
21768.2
21765.1
21762.3
21759.6
21757.1
21754.9
21752.9
21751.2
21749.8
21748.6
21747.8
21747.2
21747
21747.1
21747.5
21748.3
21749.4
21750.9
21752.7
21754.9
21757.5
21760.5
21763.9
21767.7
21771.9
21776.5
21781.6
21787
21792.9
21799.3
21806.1
21813.3
21820.9
21829.1
21837.6
21846.7
21856.1
21866.1
21876.5
21887.4
21898.7
21910.5
21922.8
21935.5
21948.7
21962.3
21976.5
21991
22006.1
22021.6
22037.5
22053.9
22070.8
22088.1
22105.8
22124
22142.6
22161.6
22181.1
22201
22221.3
22242
22263.1
22284.5
22306.4
22328.7
22351.3
22374.3
22397.6
22421.3
22445.3
22469.6
22494.3
22519.3
22544.5
22570.1
22595.9
22621.9
22648.3
22674.8
22701.6
22728.6
22755.8
22783.1
22810.7
22838.4
22866.2
22894.1
22922.2
22950.4
22978.6
23007
23035.3
23063.7
23092.2
23120.6
23149
23177.4
23205.7
23234
23262.2
23290.3
23318.3
23346.2
23373.9
23401.5
23428.9
23456.1
23483.1
23509.8
23536.4
23562.6
23588.7
23614.4
23639.8
23664.9
23689.7
23714.2
23738.3
23762.1
23785.4
23808.4
23831
23853.2
23875
23896.4
23917.3
23937.8
23957.8
23977.4
23996.5
24015.2
24033.4
24051.1
24068.4
24085.1
24101.5
24117.3
24132.6
24147.5
24161.9
24175.8
24189.2
24202.2
24214.7
24226.8
24238.4
24249.6
24260.3
24270.5
24280.4
24289.8
24298.8
24307.4
24315.6
24323.5
24330.9
24338
24344.7
24351
24357
24362.7
24368
24373.1
24377.8
24382.2
24386.3
24390.2
24393.8
24397.1
24400.2
24403.1
24405.1
24409.1
24408
24414.5
24410.1
24418.5
24412.2
24420.7
24414.6
24421
24417.4
24419.7
19156.5
19157.2
19154.7
19154.8
19152
19150.4
19147.4
19144.5
19140.9
19137
19132.6
19127.8
19122.6
19117
19111
19104.6
19097.8
19090.7
19083.1
19075.3
19067.1
19058.5
19049.7
19040.5
19031.1
19021.4
19011.4
19001.2
18990.7
18980.1
18969.2
18958.2
18946.9
18935.5
18924
18912.3
18900.5
18888.6
18876.6
18864.4
18852.2
18839.9
18827.5
18815
18802.5
18789.9
18777.2
18764.4
18751.4
18738.5
18725.4
18712.2
18698.8
18685.4
18671.8
18658.1
18644.3
18630.2
18616
18601.7
18587.1
18572.3
18557.3
18542.1
18526.6
18510.9
18494.9
18478.7
18462.1
18445.3
18428.2
18410.8
18393
18375
18356.6
18338
18319
18299.7
18280
18260.1
18239.8
18219.2
18198.3
18177.1
18155.6
18133.9
18111.8
18089.6
18067
18044.3
18021.3
17998.1
17974.8
17951.3
17927.6
17903.9
17880
17856.1
17832.2
17808.2
17784.2
17760.3
17736.5
17712.7
17689.1
17665.6
17642.3
17619.3
17596.5
17574
17551.8
17529.9
17508.5
17487.4
17466.8
17446.7
17427.1
17408.1
17389.6
17371.7
17354.5
17337.9
17322.1
17306.9
17292.6
17279
17266.2
17254.3
17243.2
17233
17223.7
17215.4
17208
17201.7
17196.3
17191.9
17188.6
17186.3
17185.1
17185
17186
17188.2
17191.4
17195.8
17201.4
17208.1
17216
17225.1
17235.3
17246.8
17259.4
17273.3
17288.3
17304.6
17322.1
17340.7
17360.6
17381.6
17403.8
17427.3
17451.8
17477.6
17504.5
17532.5
17561.6
17591.9
17623.2
17655.7
17689.2
17723.7
17759.2
17795.7
17833.3
17871.7
17911.1
17951.4
17992.5
18034.5
18077.3
18120.9
18165.2
18210.2
18256
18302.4
18349.4
18397
18445.1
18493.8
18543
18592.6
18642.6
18693
18743.7
18794.8
18846.1
18897.6
18949.3
19001.2
19053.2
19105.3
19157.4
19209.6
19261.7
19313.8
19365.8
19417.7
19469.4
19520.9
19572.2
19623.2
19674
19724.4
19774.5
19824.3
19873.6
19922.5
19970.9
20018.9
20066.4
20113.3
20159.7
20205.4
20250.6
20295.2
20339.1
20382.4
20425
20466.9
20508.1
20548.6
20588.4
20627.4
20665.6
20703
20739.7
20775.5
20810.6
20844.8
20878.2
20910.8
20942.5
20973.4
21003.4
21032.6
21060.9
21088.3
21114.9
21140.6
21165.5
21189.5
21212.6
21234.9
21256.4
21276.9
21296.7
21315.6
21333.6
21350.8
21367.3
21382.9
21397.6
21411.6
21424.8
21437.3
21449
21460
21470.2
21479.7
21488.5
21496.6
21504.1
21510.9
21517
21522.6
21527.5
21531.8
21535.6
21538.8
21541.5
21543.6
21545.3
21546.5
21547.2
21547.5
21547.4
21546.9
21546
21544.7
21543.1
21541.2
21539
21536.5
21533.8
21530.8
21527.6
21524.3
21520.7
21517
21513.1
21509.1
21505.1
21500.9
21496.7
21492.4
21488.2
21483.9
21479.6
21475.3
21471.1
21467
21462.9
21459
21455.1
21451.3
21447.8
21444.3
21441
21437.9
21435
21432.4
21429.9
21427.7
21425.7
21424
21422.5
21421.4
21420.5
21420
21419.7
21419.8
21420.2
21421
21422.1
21423.5
21425.4
21427.6
21430.2
21433.2
21436.6
21440.4
21444.6
21449.2
21454.2
21459.7
21465.6
21471.9
21478.7
21485.9
21493.6
21501.7
21510.2
21519.3
21528.8
21538.7
21549.1
21560
21571.3
21583.1
21595.4
21608.1
21621.3
21634.9
21649.1
21663.6
21678.7
21694.2
21710.1
21726.5
21743.4
21760.7
21778.4
21796.6
21815.2
21834.2
21853.7
21873.6
21893.9
21914.6
21935.7
21957.2
21979.1
22001.3
22023.9
22046.9
22070.3
22094
22118
22142.3
22167
22192
22217.2
22242.8
22268.6
22294.7
22321
22347.6
22374.4
22401.4
22428.5
22455.9
22483.5
22511.2
22539
22567
22595.1
22623.3
22651.5
22679.9
22708.2
22736.7
22765.1
22793.5
22822
22850.4
22878.7
22907
22935.2
22963.3
22991.3
23019.2
23047
23074.6
23102
23129.2
23156.2
23183
23209.5
23235.8
23261.8
23287.6
23313
23338.1
23363
23387.4
23411.6
23435.3
23458.7
23481.7
23504.3
23526.5
23548.3
23569.7
23590.6
23611.1
23631.1
23650.7
23669.9
23688.5
23706.7
23724.5
23741.7
23758.5
23774.8
23790.6
23806
23820.8
23835.2
23849.1
23862.6
23875.6
23888.1
23900.1
23911.7
23922.9
23933.6
23943.9
23953.7
23963.1
23972.1
23980.7
23988.9
23996.7
24004.2
24011.2
24017.9
24024.3
24030.3
24035.9
24041.3
24046.3
24051
24055.4
24059.6
24063.4
24067
24070.3
24073.3
24076.5
24077.9
24082.7
24080.7
24088.1
24083
24091.9
24085.3
24093.9
24087.7
24094.2
24090.4
24092.8
18829.5
18830.2
18827.7
18827.8
18825
18823.4
18820.5
18817.5
18813.9
18810
18805.6
18800.9
18795.7
18790.1
18784.1
18777.7
18770.9
18763.7
18756.2
18748.4
18740.2
18731.6
18722.8
18713.6
18704.2
18694.5
18684.5
18674.3
18663.9
18653.2
18642.4
18631.3
18620.1
18608.7
18597.2
18585.5
18573.7
18561.8
18549.8
18537.6
18525.4
18513.1
18500.7
18488.3
18475.7
18463
18450.3
18437.5
18424.6
18411.6
18398.5
18385.3
18371.9
18358.5
18344.9
18331.2
18317.4
18303.3
18289.1
18274.8
18260.2
18245.4
18230.4
18215.2
18199.7
18184
18168
18151.7
18135.2
18118.4
18101.2
18083.8
18066.1
18048
18029.6
18011
17991.9
17972.6
17953
17933
17912.7
17892.1
17871.2
17850
17828.5
17806.7
17784.6
17762.3
17739.8
17717
17694
17670.8
17647.4
17623.9
17600.2
17576.5
17552.6
17528.6
17504.6
17480.6
17456.7
17432.7
17408.8
17385
17361.4
17337.9
17314.6
17291.5
17268.6
17246.1
17223.9
17202
17180.5
17159.4
17138.8
17118.6
17099
17079.9
17061.4
17043.5
17026.2
17009.6
16993.7
16978.5
16964.1
16950.5
16937.7
16925.7
16914.6
16904.4
16895.1
16886.8
16879.4
16873
16867.6
16863.2
16859.9
16857.6
16856.4
16856.2
16857.2
16859.3
16862.6
16867
16872.5
16879.2
16887.1
16896.2
16906.5
16917.9
16930.6
16944.4
16959.5
16975.7
16993.2
17011.9
17031.7
17052.8
17075
17098.4
17123
17148.8
17175.7
17203.8
17232.9
17263.2
17294.6
17327
17360.5
17395.1
17430.7
17467.2
17504.8
17543.3
17582.7
17623
17664.2
17706.2
17749
17792.7
17837
17882.1
17927.9
17974.3
18021.4
18069.1
18117.3
18166
18215.2
18264.8
18314.9
18365.4
18416.1
18467.2
18518.6
18570.2
18621.9
18673.9
18725.9
18778.1
18830.2
18882.4
18934.6
18986.8
19038.8
19090.7
19142.4
19194
19245.3
19296.4
19347.2
19397.7
19447.9
19497.6
19547
19596
19644.4
19692.4
19739.9
19786.9
19833.3
19879.1
19924.4
19969
20012.9
20056.2
20098.9
20140.8
20182.1
20222.6
20262.3
20301.3
20339.6
20377
20413.7
20449.6
20484.7
20518.9
20552.3
20584.9
20616.6
20647.5
20677.5
20706.7
20735
20762.5
20789.1
20814.8
20839.7
20863.7
20886.8
20909.1
20930.5
20951.1
20970.8
20989.7
21007.8
21025
21041.4
21057
21071.8
21085.7
21099
21111.4
21123.1
21134
21144.2
21153.7
21162.5
21170.6
21178
21184.8
21190.9
21196.4
21201.3
21205.6
21209.3
21212.5
21215.2
21217.3
21218.9
21220.1
21220.8
21221
21220.9
21220.3
21219.4
21218.1
21216.5
21214.5
21212.3
21209.8
21207
21204
21200.8
21197.4
21193.8
21190
21186.1
21182.1
21178
21173.9
21169.6
21165.3
21161
21156.7
21152.4
21148.1
21143.9
21139.7
21135.6
21131.6
21127.7
21124
21120.4
21116.9
21113.6
21110.5
21107.6
21104.9
21102.4
21100.2
21098.2
21096.4
21095
21093.8
21092.9
21092.3
21092.1
21092.1
21092.5
21093.3
21094.4
21095.8
21097.7
21099.9
21102.4
21105.4
21108.8
21112.6
21116.8
21121.4
21126.4
21131.9
21137.8
21144.1
21150.9
21158.1
21165.7
21173.8
21182.4
21191.4
21200.9
21210.8
21221.2
21232.1
21243.4
21255.2
21267.5
21280.2
21293.4
21307.1
21321.2
21335.8
21350.8
21366.3
21382.3
21398.7
21415.5
21432.8
21450.6
21468.7
21487.4
21506.4
21525.9
21545.8
21566.1
21586.8
21607.9
21629.4
21651.3
21673.5
21696.2
21719.2
21742.5
21766.2
21790.3
21814.6
21839.3
21864.3
21889.6
21915.1
21941
21967.1
21993.4
22020
22046.8
22073.8
22101
22128.4
22156
22183.7
22211.6
22239.6
22267.7
22295.9
22324.2
22352.5
22380.9
22409.4
22437.8
22466.3
22494.7
22523.2
22551.5
22579.9
22608.1
22636.2
22664.3
22692.2
22720
22747.6
22775
22802.2
22829.3
22856.1
22882.7
22909
22935
22960.8
22986.3
23011.4
23036.3
23060.8
23084.9
23108.7
23132.1
23155.1
23177.8
23200
23221.8
23243.2
23264.1
23284.6
23304.7
23324.3
23343.4
23362.1
23380.3
23398.1
23415.3
23432.1
23448.4
23464.3
23479.6
23494.5
23508.9
23522.8
23536.2
23549.2
23561.7
23573.8
23585.4
23596.5
23607.2
23617.5
23627.3
23636.7
23645.7
23654.3
23662.5
23670.3
23677.7
23684.7
23691.4
23697.7
23703.7
23709.4
23714.7
23719.7
23724.4
23728.8
23732.9
23736.8
23740.3
23743.7
23746.5
23750
23751
23756
23754.1
23761.1
23756.6
23764.7
23759
23766.7
23761.4
23766.9
23764
23765.9
18502.5
18503.2
18500.8
18500.8
18498.1
18496.5
18493.5
18490.6
18487
18483.1
18478.7
18474
18468.8
18463.2
18457.2
18450.8
18444
18436.9
18429.4
18421.5
18413.3
18404.8
18395.9
18386.8
18377.4
18367.7
18357.7
18347.5
18337
18326.4
18315.5
18304.5
18293.3
18281.9
18270.3
18258.7
18246.9
18234.9
18222.9
18210.8
18198.6
18186.2
18173.8
18161.4
18148.8
18136.2
18123.4
18110.6
18097.7
18084.7
18071.6
18058.4
18045.1
18031.7
18018.1
18004.4
17990.5
17976.5
17962.3
17947.9
17933.3
17918.5
17903.5
17888.3
17872.8
17857.1
17841.1
17824.8
17808.3
17791.4
17774.3
17756.8
17739.1
17721
17702.6
17683.9
17664.9
17645.6
17625.9
17605.9
17585.6
17565
17544
17522.8
17501.3
17479.4
17457.4
17435
17412.4
17389.6
17366.6
17343.3
17319.9
17296.4
17272.7
17248.8
17224.9
17200.9
17176.9
17152.8
17128.8
17104.8
17080.9
17057
17033.3
17009.8
16986.4
16963.2
16940.4
16917.8
16895.5
16873.5
16852
16830.8
16810.1
16789.9
16770.2
16751.1
16732.5
16714.6
16697.2
16680.6
16664.7
16649.4
16635
16621.3
16608.5
16596.5
16585.3
16575.1
16565.7
16557.4
16549.9
16543.5
16538
16533.6
16530.3
16527.9
16526.7
16526.6
16527.5
16529.6
16532.8
16537.2
16542.8
16549.5
16557.3
16566.4
16576.6
16588.1
16600.7
16614.6
16629.7
16645.9
16663.4
16682.1
16702
16723
16745.3
16768.7
16793.4
16819.1
16846.1
16874.1
16903.4
16933.7
16965.1
16997.6
17031.1
17065.7
17101.4
17138
17175.6
17214.1
17253.6
17293.9
17335.2
17377.3
17420.2
17463.8
17508.3
17553.4
17599.3
17645.8
17692.9
17740.7
17788.9
17837.7
17887
17936.7
17986.9
18037.4
18088.3
18139.4
18190.8
18242.5
18294.4
18346.4
18398.5
18450.7
18503
18555.2
18607.5
18659.7
18711.8
18763.7
18815.6
18867.2
18918.6
18969.7
19020.6
19071.1
19121.3
19171.2
19220.6
19269.6
19318.1
19366.2
19413.7
19460.7
19507.2
19553.1
19598.3
19643
19687
19730.4
19773
19815
19856.3
19896.8
19936.6
19975.7
20014
20051.5
20088.2
20124.1
20159.2
20193.4
20226.9
20259.5
20291.2
20322.2
20352.2
20381.4
20409.7
20437.2
20463.8
20489.6
20514.4
20538.4
20561.6
20583.9
20605.3
20625.8
20645.6
20664.4
20682.5
20699.7
20716.1
20731.6
20746.4
20760.4
20773.6
20786
20797.6
20808.5
20818.7
20828.2
20836.9
20845
20852.4
20859.1
20865.2
20870.7
20875.5
20879.8
20883.5
20886.6
20889.2
20891.3
20892.9
20894
20894.6
20894.8
20894.6
20894
20893.1
20891.7
20890
20888.1
20885.8
20883.2
20880.4
20877.3
20874.1
20870.6
20867
20863.2
20859.2
20855.2
20851
20846.8
20842.5
20838.2
20833.9
20829.5
20825.2
20820.8
20816.6
20812.4
20808.2
20804.2
20800.3
20796.5
20792.8
20789.3
20786
20782.9
20779.9
20777.2
20774.7
20772.4
20770.4
20768.6
20767.1
20765.9
20765
20764.4
20764.2
20764.2
20764.6
20765.3
20766.4
20767.8
20769.6
20771.8
20774.4
20777.3
20780.7
20784.5
20788.6
20793.2
20798.3
20803.7
20809.6
20815.9
20822.7
20829.9
20837.5
20845.6
20854.2
20863.2
20872.7
20882.6
20893
20903.8
20915.2
20927
20939.2
20952
20965.1
20978.8
20992.9
21007.5
21022.5
21038
21054
21070.4
21087.3
21104.6
21122.3
21140.5
21159.1
21178.2
21197.7
21217.6
21237.9
21258.6
21279.7
21301.2
21323.1
21345.4
21368.1
21391.1
21414.5
21438.2
21462.2
21486.6
21511.3
21536.3
21561.6
21587.2
21613
21639.2
21665.5
21692.1
21719
21746
21773.2
21800.7
21828.3
21856
21883.9
21911.9
21940.1
21968.3
21996.6
22025
22053.5
22081.9
22110.4
22138.9
22167.4
22195.9
22224.3
22252.7
22280.9
22309.1
22337.2
22365.2
22393
22420.6
22448.1
22475.4
22502.4
22529.3
22555.9
22582.2
22608.3
22634.1
22659.6
22684.8
22709.7
22734.2
22758.4
22782.2
22805.7
22828.7
22851.4
22873.7
22895.5
22916.9
22937.9
22958.4
22978.5
22998.1
23017.3
23036
23054.2
23072
23089.2
23106
23122.3
23138.2
23153.5
23168.4
23182.8
23196.7
23210.2
23223.1
23235.7
23247.7
23259.3
23270.4
23281.1
23291.4
23301.2
23310.6
23319.5
23328.1
23336.3
23344.1
23351.5
23358.5
23365.2
23371.5
23377.5
23383.1
23388.4
23393.4
23398.1
23402.5
23406.6
23410.4
23414
23417.3
23420.1
23423.4
23424.8
23429.1
23428.3
23433.8
23431
23437.4
23433.4
23439.4
23435.6
23439.9
23437.7
23439.2
18175.6
18176.3
18173.8
18173.9
18171.1
18169.5
18166.6
18163.7
18160.1
18156.2
18151.8
18147.1
18141.9
18136.3
18130.3
18124
18117.2
18110.1
18102.6
18094.7
18086.5
18078
18069.2
18060
18050.6
18040.9
18030.9
18020.7
18010.3
17999.6
17988.8
17977.7
17966.5
17955.1
17943.6
17931.9
17920.1
17908.2
17896.1
17884
17871.8
17859.5
17847.1
17834.6
17822
17809.4
17796.7
17783.8
17770.9
17757.9
17744.8
17731.6
17718.3
17704.9
17691.3
17677.6
17663.7
17649.7
17635.5
17621.1
17606.5
17591.7
17576.7
17561.4
17546
17530.2
17514.2
17497.9
17481.4
17464.5
17447.4
17429.9
17412.1
17394
17375.6
17356.9
17337.9
17318.5
17298.8
17278.8
17258.4
17237.8
17216.8
17195.5
17174
17152.1
17130
17107.6
17085
17062.1
17039
17015.7
16992.3
16968.6
16944.9
16921
16897
16873
16848.9
16824.8
16800.7
16776.6
16752.6
16728.7
16704.9
16681.3
16657.8
16634.6
16611.6
16589
16566.6
16544.6
16523
16501.7
16481
16460.7
16440.9
16421.7
16403.1
16385
16367.7
16350.9
16334.9
16319.7
16305.1
16291.4
16278.5
16266.4
16255.2
16244.9
16235.5
16227.1
16219.6
16213.1
16207.7
16203.2
16199.8
16197.4
16196.2
16196
16196.9
16199
16202.2
16206.5
16212.1
16218.7
16226.6
16235.7
16245.9
16257.3
16270
16283.9
16298.9
16315.2
16332.7
16351.4
16371.3
16392.4
16414.6
16438.1
16462.8
16488.6
16515.6
16543.7
16572.9
16603.3
16634.8
16667.3
16700.9
16735.6
16771.3
16807.9
16845.6
16884.2
16923.8
16964.2
17005.5
17047.7
17090.7
17134.4
17179
17224.2
17270.2
17316.8
17364
17411.8
17460.2
17509.1
17558.4
17608.3
17658.5
17709.1
17760.1
17811.3
17862.9
17914.6
17966.6
18018.7
18070.9
18123.2
18175.6
18227.9
18280.3
18332.6
18384.7
18436.8
18488.7
18540.4
18591.9
18643.2
18694.1
18744.7
18795
18844.9
18894.5
18943.5
18992.1
19040.3
19087.9
19135
19181.5
19227.4
19272.8
19317.5
19361.6
19405
19447.7
19489.8
19531.1
19571.7
19611.5
19650.6
19688.9
19726.5
19763.2
19799.2
19834.3
19868.6
19902.1
19934.7
19966.5
19997.4
20027.5
20056.7
20085.1
20112.5
20139.2
20164.9
20189.8
20213.8
20236.9
20259.2
20280.6
20301.2
20320.9
20339.8
20357.8
20375
20391.3
20406.9
20421.6
20435.5
20448.7
20461.1
20472.7
20483.6
20493.7
20503.1
20511.8
20519.8
20527.2
20533.9
20539.9
20545.3
20550.1
20554.3
20557.9
20561
20563.6
20565.6
20567.1
20568.1
20568.7
20568.9
20568.6
20567.9
20566.9
20565.5
20563.8
20561.7
20559.4
20556.7
20553.9
20550.7
20547.4
20543.9
20540.2
20536.3
20532.3
20528.2
20524
20519.7
20515.4
20511
20506.6
20502.2
20497.8
20493.4
20489.1
20484.8
20480.7
20476.6
20472.6
20468.8
20465.1
20461.5
20458.2
20455
20452
20449.2
20446.7
20444.4
20442.3
20440.5
20439
20437.8
20436.8
20436.2
20435.9
20435.9
20436.3
20437
20438
20439.4
20441.2
20443.4
20445.9
20448.9
20452.2
20456
20460.1
20464.7
20469.7
20475.1
20481
20487.3
20494
20501.2
20508.9
20517
20525.5
20534.5
20544
20553.9
20564.3
20575.2
20586.5
20598.3
20610.5
20623.3
20636.4
20650.1
20664.2
20678.8
20693.8
20709.3
20725.3
20741.7
20758.6
20775.9
20793.7
20811.9
20830.5
20849.6
20869
20889
20909.3
20930
20951.2
20972.7
20994.6
21016.9
21039.6
21062.6
21086
21109.7
21133.8
21158.2
21183
21208
21233.3
21258.9
21284.8
21311
21337.4
21364
21390.9
21417.9
21445.2
21472.7
21500.3
21528.1
21556
21584.1
21612.3
21640.6
21668.9
21697.4
21725.9
21754.4
21782.9
21811.5
21840
21868.5
21897
21925.4
21953.7
21982
22010.1
22038.1
22066
22093.7
22121.2
22148.5
22175.6
22202.5
22229.2
22255.6
22281.7
22307.6
22333.2
22358.4
22383.3
22407.9
22432.1
22456
22479.5
22502.6
22525.3
22547.6
22569.4
22590.9
22611.9
22632.4
22652.5
22672.2
22691.4
22710.1
22728.4
22746.1
22763.4
22780.2
22796.6
22812.4
22827.8
22842.6
22857
22871
22884.4
22897.4
22909.9
22921.9
22933.5
22944.6
22955.3
22965.5
22975.3
22984.7
22993.7
23002.2
23010.4
23018.1
23025.5
23032.5
23039.1
23045.4
23051.4
23057
23062.3
23067.2
23071.9
23076.3
23080.3
23084.1
23087.6
23091
23093.8
23097
23098.6
23102.4
23102.2
23107
23105
23110.4
23107.5
23112.5
23109.5
23113.2
23111.4
23112.7
17848.7
17849.4
17846.9
17847
17844.2
17842.6
17839.7
17836.8
17833.2
17829.3
17825
17820.2
17815.1
17809.5
17803.5
17797.2
17790.4
17783.3
17775.8
17768
17759.8
17751.3
17742.4
17733.3
17723.9
17714.2
17704.2
17694
17683.6
17672.9
17662
17651
17639.8
17628.4
17616.8
17605.2
17593.4
17581.4
17569.4
17557.3
17545.1
17532.7
17520.3
17507.9
17495.3
17482.7
17469.9
17457.1
17444.2
17431.2
17418.1
17404.9
17391.6
17378.1
17364.6
17350.8
17337
17322.9
17308.7
17294.3
17279.7
17264.9
17249.9
17234.6
17219.1
17203.4
17187.4
17171.1
17154.5
17137.6
17120.4
17103
17085.2
17067.1
17048.6
17029.9
17010.8
16991.4
16971.6
16951.6
16931.2
16910.5
16889.5
16868.2
16846.6
16824.7
16802.5
16780.1
16757.4
16734.5
16711.3
16688
16664.4
16640.7
16616.9
16593
16568.9
16544.8
16520.6
16496.4
16472.2
16448.1
16424
16400
16376.1
16352.4
16328.9
16305.6
16282.5
16259.7
16237.3
16215.2
16193.5
16172.1
16151.3
16130.9
16111.1
16091.7
16073
16054.9
16037.4
16020.6
16004.5
15989.2
15974.6
15960.8
15947.8
15935.6
15924.4
15914
15904.5
15896
15888.5
15882
15876.4
15871.9
15868.4
15866
15864.7
15864.5
15865.4
15867.4
15870.6
15874.9
15880.4
15887.1
15894.9
15904
15914.2
15925.7
15938.3
15952.2
15967.2
15983.5
16001
16019.7
16039.6
16060.8
16083.1
16106.6
16131.3
16157.1
16184.2
16212.3
16241.6
16272.1
16303.6
16336.2
16369.9
16404.6
16440.4
16477.2
16514.9
16553.6
16593.2
16633.8
16675.2
16717.5
16760.6
16804.4
16849.1
16894.4
16940.5
16987.2
17034.5
17082.5
17131
17180
17229.5
17279.4
17329.8
17380.5
17431.6
17483
17534.6
17586.5
17638.6
17690.8
17743.2
17795.6
17848.1
17900.5
17953
18005.4
18057.7
18109.9
18161.9
18213.7
18265.3
18316.7
18367.7
18418.5
18468.9
18518.9
18568.5
18617.6
18666.3
18714.5
18762.2
18809.4
18856
18902
18947.5
18992.2
19036.4
19079.9
19122.7
19164.8
19206.2
19246.9
19286.8
19325.9
19364.3
19401.9
19438.7
19474.7
19509.9
19544.2
19577.7
19610.4
19642.2
19673.2
19703.3
19732.5
19760.9
19788.4
19815.1
19840.8
19865.7
19889.7
19912.9
19935.1
19956.5
19977.1
19996.8
20015.6
20033.6
20050.8
20067.1
20082.7
20097.4
20111.3
20124.4
20136.7
20148.3
20159.1
20169.2
20178.6
20187.2
20195.2
20202.5
20209.1
20215
20220.4
20225.1
20229.2
20232.8
20235.8
20238.3
20240.2
20241.7
20242.6
20243.1
20243.2
20242.9
20242.1
20241
20239.5
20237.7
20235.6
20233.1
20230.4
20227.5
20224.3
20220.8
20217.2
20213.5
20209.5
20205.5
20201.3
20197
20192.7
20188.2
20183.8
20179.3
20174.8
20170.4
20165.9
20161.5
20157.2
20153
20148.8
20144.8
20140.9
20137.2
20133.6
20130.2
20126.9
20123.9
20121.1
20118.5
20116.1
20114
20112.2
20110.6
20109.3
20108.4
20107.7
20107.4
20107.3
20107.6
20108.3
20109.3
20110.7
20112.5
20114.6
20117.1
20120
20123.4
20127.1
20131.2
20135.8
20140.8
20146.2
20152
20158.3
20165
20172.2
20179.8
20187.9
20196.4
20205.4
20214.9
20224.8
20235.2
20246
20257.4
20269.1
20281.4
20294.1
20307.3
20321
20335.1
20349.7
20364.7
20380.2
20396.2
20412.6
20429.5
20446.8
20464.6
20482.8
20501.4
20520.5
20540
20559.9
20580.3
20601
20622.2
20643.7
20665.7
20688
20710.7
20733.8
20757.2
20781
20805.1
20829.5
20854.3
20879.3
20904.7
20930.3
20956.3
20982.4
21008.9
21035.6
21062.5
21089.6
21116.9
21144.4
21172.1
21200
21228
21256.1
21284.3
21312.6
21341.1
21369.6
21398.1
21426.7
21455.3
21483.9
21512.5
21541.1
21569.6
21598.1
21626.5
21654.8
21683
21711
21738.9
21766.7
21794.3
21821.7
21848.9
21875.9
21902.6
21929.1
21955.3
21981.2
22006.8
22032.1
22057.1
22081.7
22106
22129.9
22153.4
22176.6
22199.3
22221.7
22243.6
22265.1
22286.1
22306.7
22326.9
22346.6
22365.8
22384.5
22402.8
22420.6
22437.9
22454.7
22471.1
22486.9
22502.3
22517.2
22531.6
22545.5
22559
22571.9
22584.4
22596.4
22608
22619.1
22629.8
22640
22649.8
22659.1
22668.1
22676.6
22684.7
22692.4
22699.8
22706.8
22713.4
22719.6
22725.5
22731.1
22736.4
22741.3
22745.9
22750.3
22754.3
22758.1
22761.5
22764.9
22767.6
22770.9
22772.4
22776.1
22776.1
22780.5
22779
22783.9
22781.3
22785.9
22783.4
22786.7
22785.1
22786.4
17521.7
17522.4
17520
17520.1
17517.3
17515.8
17512.8
17509.9
17506.4
17502.5
17498.2
17493.4
17488.3
17482.7
17476.7
17470.4
17463.7
17456.6
17449.1
17441.2
17433.1
17424.6
17415.7
17406.6
17397.2
17387.5
17377.5
17367.3
17356.9
17346.2
17335.4
17324.3
17313.1
17301.7
17290.2
17278.5
17266.7
17254.8
17242.7
17230.6
17218.4
17206.1
17193.7
17181.2
17168.6
17156
17143.2
17130.4
17117.5
17104.5
17091.4
17078.2
17064.9
17051.4
17037.9
17024.1
17010.3
16996.2
16982
16967.6
16953
16938.2
16923.1
16907.9
16892.4
16876.6
16860.5
16844.2
16827.6
16810.7
16793.5
16776
16758.2
16740.1
16721.6
16702.8
16683.7
16664.3
16644.5
16624.4
16604
16583.2
16562.2
16540.8
16519.1
16497.2
16474.9
16452.4
16429.7
16406.7
16383.5
16360.1
16336.4
16312.7
16288.8
16264.7
16240.6
16216.4
16192.1
16167.8
16143.5
16119.3
16095.1
16071
16047
16023.2
15999.5
15976.1
15952.9
15930.1
15907.5
15885.3
15863.4
15842
15821.1
15800.6
15780.6
15761.2
15742.3
15724.1
15706.5
15689.6
15673.4
15658
15643.3
15629.4
15616.3
15604.1
15592.7
15582.3
15572.7
15564.2
15556.6
15549.9
15544.3
15539.8
15536.2
15533.8
15532.4
15532.1
15533
15535
15538.1
15542.4
15547.9
15554.5
15562.3
15571.4
15581.6
15593
15605.7
15619.5
15634.6
15650.9
15668.4
15687.2
15707.1
15728.2
15750.6
15774.2
15798.9
15824.8
15851.9
15880.1
15909.5
15940
15971.6
16004.3
16038.1
16072.9
16108.7
16145.6
16183.5
16222.3
16262
16302.7
16344.2
16386.6
16429.8
16473.8
16518.6
16564.1
16610.3
16657.1
16704.6
16752.7
16801.3
16850.5
16900.1
16950.2
17000.7
17051.6
17102.8
17154.4
17206.2
17258.2
17310.4
17362.8
17415.3
17467.9
17520.5
17573.1
17625.7
17678.2
17730.7
17783
17835.2
17887.1
17938.9
17990.3
18041.5
18092.4
18142.9
18193
18242.7
18292
18340.8
18389.1
18437
18484.2
18530.9
18577.1
18622.6
18667.5
18711.7
18755.3
18798.2
18840.4
18881.8
18922.6
18962.6
19001.8
19040.2
19077.9
19114.8
19150.8
19186
19220.4
19254
19286.7
19318.6
19349.6
19379.7
19409
19437.4
19464.9
19491.5
19517.3
19542.2
19566.2
19589.4
19611.6
19633.1
19653.6
19673.3
19692.1
19710.1
19727.2
19743.5
19759
19773.7
19787.5
19800.6
19812.9
19824.4
19835.2
19845.2
19854.5
19863.1
19871
19878.2
19884.7
19890.6
19895.9
19900.5
19904.5
19908
19910.9
19913.3
19915.2
19916.5
19917.4
19917.8
19917.8
19917.3
19916.5
19915.3
19913.7
19911.8
19909.5
19907
19904.2
19901.2
19897.9
19894.4
19890.7
19886.8
19882.8
19878.6
19874.3
19870
19865.5
19861
19856.5
19851.9
19847.4
19842.8
19838.3
19833.9
19829.5
19825.2
19820.9
19816.8
19812.9
19809.1
19805.4
19801.9
19798.6
19795.5
19792.6
19790
19787.6
19785.4
19783.6
19781.9
19780.6
19779.6
19778.9
19778.5
19778.4
19778.7
19779.3
19780.3
19781.6
19783.4
19785.5
19788
19790.8
19794.1
19797.8
19801.9
19806.5
19811.4
19816.8
19822.6
19828.9
19835.6
19842.8
19850.4
19858.4
19867
19875.9
19885.4
19895.3
19905.7
19916.5
19927.8
19939.6
19951.8
19964.6
19977.8
19991.4
20005.5
20020.1
20035.2
20050.7
20066.6
20083.1
20100
20117.3
20135.1
20153.3
20172
20191
20210.6
20230.5
20250.9
20271.7
20292.8
20314.4
20336.4
20358.7
20381.5
20404.6
20428
20451.8
20476
20500.4
20525.2
20550.3
20575.7
20601.4
20627.4
20653.6
20680.1
20706.9
20733.8
20761
20788.4
20815.9
20843.7
20871.6
20899.6
20927.8
20956.1
20984.5
21013
21041.6
21070.2
21098.8
21127.5
21156.2
21184.9
21213.5
21242.1
21270.7
21299.1
21327.5
21355.8
21383.9
21411.9
21439.8
21467.4
21494.9
21522.2
21549.2
21576
21602.6
21628.9
21654.9
21680.6
21705.9
21731
21755.7
21780
21804
21827.6
21850.8
21873.6
21896
21918
21939.5
21960.6
21981.3
22001.5
22021.2
22040.5
22059.2
22077.5
22095.4
22112.7
22129.6
22145.9
22161.8
22177.2
22192.1
22206.5
22220.4
22233.8
22246.8
22259.3
22271.3
22282.8
22293.9
22304.5
22314.7
22324.5
22333.8
22342.7
22351.2
22359.3
22367
22374.3
22381.3
22387.8
22394.1
22399.9
22405.5
22410.7
22415.6
22420.2
22424.5
22428.5
22432.2
22435.6
22438.9
22441.6
22444.9
22446.4
22450
22450.2
22454.3
22453.1
22457.5
22455.4
22459.5
22457.4
22460.4
22459
22460.1
17194.8
17195.5
17193.1
17193.2
17190.4
17188.9
17185.9
17183.1
17179.5
17175.7
17171.3
17166.6
17161.5
17155.9
17150
17143.7
17136.9
17129.9
17122.4
17114.6
17106.4
17097.9
17089.1
17080
17070.6
17060.9
17050.9
17040.7
17030.3
17019.6
17008.8
16997.7
16986.5
16975.1
16963.6
16951.9
16940.1
16928.1
16916.1
16904
16891.8
16879.4
16867
16854.6
16842
16829.3
16816.6
16803.8
16790.9
16777.9
16764.8
16751.6
16738.2
16724.8
16711.2
16697.5
16683.6
16669.6
16655.3
16640.9
16626.3
16611.5
16596.4
16581.1
16565.6
16549.8
16533.8
16517.4
16500.8
16483.9
16466.7
16449.1
16431.3
16413.1
16394.6
16375.8
16356.6
16337.1
16317.3
16297.2
16276.7
16255.9
16234.8
16213.3
16191.6
16169.6
16147.3
16124.7
16101.9
16078.8
16055.5
16032
16008.3
15984.4
15960.4
15936.3
15912
15887.7
15863.3
15838.9
15814.5
15790.1
15765.8
15741.6
15717.5
15693.6
15669.8
15646.3
15623
15599.9
15577.2
15554.9
15532.9
15511.4
15490.3
15469.7
15449.6
15430
15411.1
15392.7
15375
15358
15341.7
15326.1
15311.3
15297.3
15284.1
15271.8
15260.3
15249.8
15240.1
15231.5
15223.8
15217.1
15211.4
15206.7
15203.1
15200.6
15199.2
15198.9
15199.7
15201.6
15204.7
15209
15214.4
15221
15228.8
15237.8
15248
15259.4
15272.1
15285.9
15301
15317.3
15334.9
15353.6
15373.6
15394.8
15417.2
15440.8
15465.6
15491.6
15518.7
15547
15576.5
15607.1
15638.8
15671.5
15705.4
15740.4
15776.3
15813.3
15851.3
15890.2
15930.1
15970.9
16012.5
16055.1
16098.4
16142.6
16187.5
16233.2
16279.5
16326.5
16374.2
16422.4
16471.2
16520.5
16570.4
16620.6
16671.3
16722.4
16773.8
16825.5
16877.5
16929.7
16982
17034.6
17087.3
17140
17192.8
17245.6
17298.4
17351.1
17403.7
17456.1
17508.5
17560.6
17612.4
17664.1
17715.4
17766.4
17817
17867.3
17917.1
17966.6
18015.5
18064
18111.9
18159.3
18206.1
18252.4
18298
18343
18387.3
18431
18474
18516.3
18557.9
18598.7
18638.8
18678.1
18716.6
18754.4
18791.3
18827.4
18862.7
18897.2
18930.8
18963.5
18995.4
19026.5