/*--------------------------------*- C++ -*----------------------------------*\
| =========                 |                                                 |
| \\      /  F ield         | OpenFOAM: The Open Source CFD Toolbox           |
|  \\    /   O peration     | Version:  v2006                                 |
|   \\  /    A nd           | Website:  www.openfoam.com                      |
|    \\/     M anipulation  |                                                 |
\*---------------------------------------------------------------------------*/
FoamFile
{
    version     2.0;
    format      ascii;
    class       volVectorField;
    location    "0";
    object      U;
}
// * * * * * * * * * * * * * * * * * * * * * * * * * * * * * * * * * * * * * //

dimensions      [0 1 -1 0 0 0 0];


internalField   nonuniform List<vector> 
67500
(
(-0.0308484 0.0209217 0)
(-0.0490032 0.0140732 0)
(-0.0555004 0.0175745 0)
(-0.0878189 0.0103853 0)
(-0.104447 -0.012704 0)
(-0.0313194 -0.0891941 0)
(0.111386 -0.109172 0)
(0.282649 -0.0382818 0)
(0.341226 0.00918095 0)
(0.31849 0.0152313 0)
(0.295886 0.0127441 0)
(0.282919 0.0345827 0)
(0.236487 -0.0496633 0)
(0.219471 -0.0482426 0)
(0.197544 -0.0063594 0)
(0.174981 0.00874717 0)
(0.167603 -0.00502436 0)
(0.17254 -0.0170183 0)
(0.183765 -0.0173372 0)
(0.195565 -0.0114944 0)
(0.20383 -0.00532931 0)
(0.208283 -0.00138579 0)
(0.210858 0.000145577 0)
(0.213133 9.51371e-05 0)
(0.215828 -0.000673241 0)
(0.219234 -0.00160719 0)
(0.22339 -0.00245596 0)
(0.228092 -0.00309789 0)
(0.233108 -0.00346758 0)
(0.238505 -0.00368393 0)
(0.244731 -0.00396657 0)
(0.252279 -0.0043928 0)
(0.261272 -0.00487588 0)
(0.271412 -0.00527537 0)
(0.28222 -0.00549273 0)
(0.29325 -0.00551068 0)
(0.304193 -0.00538571 0)
(0.314902 -0.00520861 0)
(0.325374 -0.0050598 0)
(0.335701 -0.0049817 0)
(0.345992 -0.00497326 0)
(0.356327 -0.00500318 0)
(0.366728 -0.00503359 0)
(0.377173 -0.00504261 0)
(0.387623 -0.00503484 0)
(0.398065 -0.00503701 0)
(0.408541 -0.0050823 0)
(0.419148 -0.00518919 0)
(0.430002 -0.0053473 0)
(0.441189 -0.00552086 0)
(0.452724 -0.00566495 0)
(0.464534 -0.00574179 0)
(0.476467 -0.00572523 0)
(0.488304 -0.00559558 0)
(0.499786 -0.00535715 0)
(0.510749 -0.00509918 0)
(0.521245 -0.00491352 0)
(0.531432 -0.00479208 0)
(0.5414 -0.00469791 0)
(0.551163 -0.00461195 0)
(0.560704 -0.00452598 0)
(0.569998 -0.0044371 0)
(0.579023 -0.00434751 0)
(0.587792 -0.0042757 0)
(0.596393 -0.00425518 0)
(0.604964 -0.00429016 0)
(0.613615 -0.00435595 0)
(0.622391 -0.00443032 0)
(0.631303 -0.00449939 0)
(0.640335 -0.00455259 0)
(0.64945 -0.00458119 0)
(0.658597 -0.00458284 0)
(0.667731 -0.00456886 0)
(0.676838 -0.00455492 0)
(0.685928 -0.00454279 0)
(0.694994 -0.00452342 0)
(0.704012 -0.00448897 0)
(0.712944 -0.0044391 0)
(0.721764 -0.00438164 0)
(0.730467 -0.00432391 0)
(0.739057 -0.00426517 0)
(0.747526 -0.00420162 0)
(0.755863 -0.00413323 0)
(0.76406 -0.00406267 0)
(0.772113 -0.00399095 0)
(0.780022 -0.00391704 0)
(0.78778 -0.00384068 0)
(0.795383 -0.00376273 0)
(0.802829 -0.00368358 0)
(0.810116 -0.00360304 0)
(0.817239 -0.00352112 0)
(0.824198 -0.00343805 0)
(0.83099 -0.00335385 0)
(0.837612 -0.00326854 0)
(0.844062 -0.00318223 0)
(0.850338 -0.00309509 0)
(0.85644 -0.00300726 0)
(0.862365 -0.00291894 0)
(0.868113 -0.00283035 0)
(0.873683 -0.00274172 0)
(0.879077 -0.00265328 0)
(0.884294 -0.00256526 0)
(0.889335 -0.00247787 0)
(0.894202 -0.00239132 0)
(0.898897 -0.0023058 0)
(0.903422 -0.00222147 0)
(0.907779 -0.00213849 0)
(0.911972 -0.00205698 0)
(0.916004 -0.00197705 0)
(0.919877 -0.00189881 0)
(0.923596 -0.00182234 0)
(0.927163 -0.00174772 0)
(0.930584 -0.00167501 0)
(0.93386 -0.00160428 0)
(0.936997 -0.00153555 0)
(0.939999 -0.00146888 0)
(0.94287 -0.0014043 0)
(0.945614 -0.00134182 0)
(0.948234 -0.00128146 0)
(0.950737 -0.00122323 0)
(0.953125 -0.00116712 0)
(0.955402 -0.00111311 0)
(0.957574 -0.0010612 0)
(0.959645 -0.00101134 0)
(0.961617 -0.000963512 0)
(0.963496 -0.000917667 0)
(0.965286 -0.000873762 0)
(0.966989 -0.000831748 0)
(0.968611 -0.000791574 0)
(0.970154 -0.000753188 0)
(0.971621 -0.000716535 0)
(0.973018 -0.00068156 0)
(0.974346 -0.000648207 0)
(0.975609 -0.000616421 0)
(0.97681 -0.000586144 0)
(0.977952 -0.000557319 0)
(0.979038 -0.00052989 0)
(0.98007 -0.000503799 0)
(0.981052 -0.000478988 0)
(0.981985 -0.000455402 0)
(0.982872 -0.000432983 0)
(0.983716 -0.000411675 0)
(0.984518 -0.000391423 0)
(0.98528 -0.000372173 0)
(0.986005 -0.000353869 0)
(0.986695 -0.000336459 0)
(0.98735 -0.000319893 0)
(0.987973 -0.00030412 0)
(0.988566 -0.000289095 0)
(0.989129 -0.000274774 0)
(0.989664 -0.000261117 0)
(0.990173 -0.000248085 0)
(0.990656 -0.000235648 0)
(0.991115 -0.000223774 0)
(0.991551 -0.000212439 0)
(0.991964 -0.00020162 0)
(0.992357 -0.000191299 0)
(0.992729 -0.000181458 0)
(0.993082 -0.000172082 0)
(0.993417 -0.000163158 0)
(0.993734 -0.000154672 0)
(0.994035 -0.00014661 0)
(0.99432 -0.000138961 0)
(0.99459 -0.000131711 0)
(0.994847 -0.000124845 0)
(0.995089 -0.00011835 0)
(0.99532 -0.000112209 0)
(0.995538 -0.000106408 0)
(0.995745 -0.000100931 0)
(0.995941 -9.57619e-05 0)
(0.996128 -9.08854e-05 0)
(0.996305 -8.62858e-05 0)
(0.996473 -8.19479e-05 0)
(0.996632 -7.78568e-05 0)
(0.996784 -7.39982e-05 0)
(0.996928 -7.03584e-05 0)
(0.997065 -6.69239e-05 0)
(0.997195 -6.3682e-05 0)
(0.99732 -6.06206e-05 0)
(0.997438 -5.77279e-05 0)
(0.99755 -5.49929e-05 0)
(0.997658 -5.2405e-05 0)
(0.99776 -4.99542e-05 0)
(0.997857 -4.7631e-05 0)
(0.99795 -4.54265e-05 0)
(0.998039 -4.33323e-05 0)
(0.998124 -4.13406e-05 0)
(0.998204 -3.94442e-05 0)
(0.998281 -3.76364e-05 0)
(0.998355 -3.5911e-05 0)
(0.998425 -3.42626e-05 0)
(0.998492 -3.26861e-05 0)
(0.998555 -3.1177e-05 0)
(0.998616 -2.97313e-05 0)
(0.998674 -2.83453e-05 0)
(0.99873 -2.70159e-05 0)
(0.998782 -2.57402e-05 0)
(0.998833 -2.45157e-05 0)
(0.99888 -2.33403e-05 0)
(0.998926 -2.2212e-05 0)
(0.998969 -2.1129e-05 0)
(0.99901 -2.00897e-05 0)
(0.999049 -1.90927e-05 0)
(0.999087 -1.81368e-05 0)
(0.999122 -1.72207e-05 0)
(0.999155 -1.63432e-05 0)
(0.999187 -1.55034e-05 0)
(0.999217 -1.47003e-05 0)
(0.999246 -1.39328e-05 0)
(0.999273 -1.32e-05 0)
(0.999299 -1.2501e-05 0)
(0.999323 -1.18348e-05 0)
(0.999346 -1.12006e-05 0)
(0.999368 -1.05975e-05 0)
(0.999388 -1.00246e-05 0)
(0.999408 -9.48092e-06 0)
(0.999426 -8.96561e-06 0)
(0.999444 -8.47777e-06 0)
(0.99946 -8.01649e-06 0)
(0.999476 -7.58089e-06 0)
(0.999491 -7.17006e-06 0)
(0.999504 -6.78311e-06 0)
(0.999518 -6.41915e-06 0)
(0.99953 -6.07731e-06 0)
(0.999542 -5.7567e-06 0)
(0.999553 -5.45645e-06 0)
(0.999564 -5.17571e-06 0)
(0.999574 -4.91363e-06 0)
(0.999583 -4.66937e-06 0)
(0.999592 -4.44209e-06 0)
(0.999601 -4.23098e-06 0)
(0.999609 -4.03524e-06 0)
(0.999617 -3.85407e-06 0)
(0.999625 -3.68671e-06 0)
(0.999632 -3.53238e-06 0)
(0.999639 -3.39035e-06 0)
(0.999646 -3.25989e-06 0)
(0.999652 -3.14028e-06 0)
(0.999658 -3.03085e-06 0)
(0.999664 -2.93091e-06 0)
(0.99967 -2.83982e-06 0)
(0.999675 -2.75695e-06 0)
(0.999681 -2.6817e-06 0)
(0.999686 -2.61348e-06 0)
(0.999691 -2.55173e-06 0)
(0.999696 -2.49592e-06 0)
(0.999701 -2.44552e-06 0)
(0.999706 -2.40006e-06 0)
(0.999711 -2.35906e-06 0)
(0.999716 -2.32208e-06 0)
(0.99972 -2.2887e-06 0)
(0.999725 -2.25852e-06 0)
(0.999729 -2.23117e-06 0)
(0.999734 -2.20627e-06 0)
(0.999738 -2.18351e-06 0)
(0.999742 -2.16256e-06 0)
(0.999747 -2.14312e-06 0)
(0.999751 -2.12491e-06 0)
(0.999755 -2.10767e-06 0)
(0.999759 -2.09113e-06 0)
(0.999764 -2.07507e-06 0)
(0.999768 -2.05926e-06 0)
(0.999772 -2.04348e-06 0)
(0.999776 -2.02755e-06 0)
(0.99978 -2.01126e-06 0)
(0.999784 -1.99445e-06 0)
(0.999788 -1.97694e-06 0)
(0.999792 -1.95858e-06 0)
(0.999796 -1.93923e-06 0)
(0.9998 -1.91875e-06 0)
(0.999803 -1.89702e-06 0)
(0.999807 -1.87393e-06 0)
(0.999811 -1.84938e-06 0)
(0.999815 -1.82329e-06 0)
(0.999818 -1.7956e-06 0)
(0.999822 -1.76626e-06 0)
(0.999825 -1.73524e-06 0)
(0.999829 -1.70254e-06 0)
(0.999832 -1.66815e-06 0)
(0.999835 -1.63212e-06 0)
(0.999839 -1.59452e-06 0)
(0.999842 -1.55542e-06 0)
(0.999845 -1.51493e-06 0)
(0.999848 -1.4732e-06 0)
(0.999851 -1.43039e-06 0)
(0.999853 -1.38668e-06 0)
(0.999856 -1.34228e-06 0)
(0.999859 -1.29741e-06 0)
(0.999861 -1.2523e-06 0)
(0.999864 -1.20722e-06 0)
(0.999866 -1.16239e-06 0)
(0.999869 -1.11807e-06 0)
(0.999871 -1.07448e-06 0)
(0.999873 -1.03185e-06 0)
(0.999875 -9.90383e-07 0)
(0.999877 -9.5024e-07 0)
(0.999879 -9.11575e-07 0)
(0.99988 -8.74509e-07 0)
(0.999882 -8.39139e-07 0)
(0.999884 -8.05542e-07 0)
(0.999885 -7.73777e-07 0)
(0.999887 -7.43896e-07 0)
(0.999888 -7.15949e-07 0)
(0.99989 -6.89989e-07 0)
(0.999891 -6.66078e-07 0)
(0.999892 -6.44287e-07 0)
(0.999894 -6.24695e-07 0)
(0.999895 -6.07379e-07 0)
(0.999896 -5.92404e-07 0)
(0.999897 -5.79807e-07 0)
(0.999898 -5.69574e-07 0)
(0.9999 -5.61629e-07 0)
(0.999901 -5.55809e-07 0)
(0.999902 -5.51856e-07 0)
(0.999903 -5.49415e-07 0)
(0.999904 -5.48035e-07 0)
(0.999905 -5.47196e-07 0)
(0.999906 -5.46336e-07 0)
(0.999907 -5.44891e-07 0)
(0.999908 -5.42351e-07 0)
(0.999909 -5.38303e-07 0)
(0.99991 -5.3248e-07 0)
(0.999912 -5.24799e-07 0)
(0.999913 -5.15373e-07 0)
(0.999914 -5.04516e-07 0)
(0.999915 -4.92719e-07 0)
(0.999916 -4.80608e-07 0)
(0.999917 -4.6889e-07 0)
(0.999917 -4.58286e-07 0)
(0.999918 -4.49468e-07 0)
(0.999919 -4.43005e-07 0)
(0.99992 -4.39311e-07 0)
(0.999921 -4.38626e-07 0)
(0.999922 -4.40997e-07 0)
(0.999923 -4.46293e-07 0)
(0.999924 -4.54222e-07 0)
(0.999925 -4.64363e-07 0)
(0.999926 -4.76206e-07 0)
(0.999927 -4.89189e-07 0)
(0.999928 -5.02737e-07 0)
(0.999929 -5.16293e-07 0)
(0.99993 -5.29344e-07 0)
(0.999931 -5.41445e-07 0)
(0.999932 -5.52223e-07 0)
(0.999933 -5.6139e-07 0)
(0.999934 -5.68741e-07 0)
(0.999935 -5.74148e-07 0)
(0.999936 -5.77555e-07 0)
(0.999938 -5.78966e-07 0)
(0.999939 -5.7844e-07 0)
(0.99994 -5.76074e-07 0)
(0.999941 -5.71998e-07 0)
(0.999942 -5.66362e-07 0)
(0.999943 -5.59329e-07 0)
(0.999944 -5.51069e-07 0)
(0.999945 -5.41754e-07 0)
(0.999947 -5.3155e-07 0)
(0.999948 -5.20616e-07 0)
(0.999949 -5.091e-07 0)
(0.99995 -4.97141e-07 0)
(0.999951 -4.84863e-07 0)
(0.999952 -4.72378e-07 0)
(0.999952 -4.59786e-07 0)
(0.999953 -4.47173e-07 0)
(0.999954 -4.34613e-07 0)
(0.999955 -4.22172e-07 0)
(0.999956 -4.09902e-07 0)
(0.999957 -3.97848e-07 0)
(0.999958 -3.86045e-07 0)
(0.999958 -3.74524e-07 0)
(0.999959 -3.63305e-07 0)
(0.99996 -3.52405e-07 0)
(0.99996 -3.41837e-07 0)
(0.999961 -3.31607e-07 0)
(0.999962 -3.21718e-07 0)
(0.999962 -3.12173e-07 0)
(0.999963 -3.02968e-07 0)
(0.999964 -2.941e-07 0)
(0.999964 -2.85563e-07 0)
(0.999965 -2.7735e-07 0)
(0.999965 -2.69453e-07 0)
(0.999966 -2.61863e-07 0)
(0.999966 -2.54571e-07 0)
(0.999967 -2.47566e-07 0)
(0.999967 -2.40838e-07 0)
(0.999968 -2.34377e-07 0)
(0.999968 -2.28172e-07 0)
(0.999969 -2.22212e-07 0)
(0.999969 -2.16488e-07 0)
(0.99997 -2.10989e-07 0)
(0.99997 -2.05705e-07 0)
(0.99997 -2.00627e-07 0)
(0.999971 -1.95745e-07 0)
(0.999971 -1.9105e-07 0)
(0.999972 -1.86533e-07 0)
(0.999972 -1.82186e-07 0)
(0.999972 -1.78001e-07 0)
(0.999973 -1.73969e-07 0)
(0.999973 -1.70083e-07 0)
(0.999973 -1.66337e-07 0)
(0.999974 -1.62723e-07 0)
(0.999974 -1.59235e-07 0)
(0.999974 -1.55867e-07 0)
(0.999975 -1.52612e-07 0)
(0.999975 -1.49465e-07 0)
(0.999975 -1.46421e-07 0)
(0.999975 -1.43475e-07 0)
(0.999976 -1.40621e-07 0)
(0.999976 -1.37856e-07 0)
(0.999976 -1.35174e-07 0)
(0.999977 -1.32572e-07 0)
(0.999977 -1.30046e-07 0)
(0.999977 -1.27592e-07 0)
(0.999977 -1.25207e-07 0)
(0.999978 -1.22887e-07 0)
(0.999978 -1.20629e-07 0)
(0.999978 -1.1843e-07 0)
(0.999978 -1.16287e-07 0)
(0.999979 -1.14198e-07 0)
(0.999979 -1.1216e-07 0)
(0.999979 -1.1017e-07 0)
(0.999979 -1.08227e-07 0)
(0.999979 -1.06328e-07 0)
(0.99998 -1.04471e-07 0)
(0.99998 -1.02655e-07 0)
(0.99998 -1.00876e-07 0)
(0.99998 -9.91347e-08 0)
(0.99998 -9.7428e-08 0)
(0.999981 -9.57547e-08 0)
(0.999981 -9.41134e-08 0)
(0.999981 -9.25026e-08 0)
(0.999981 -9.0921e-08 0)
(0.999981 -8.93673e-08 0)
(0.999982 -8.78405e-08 0)
(0.999982 -8.63393e-08 0)
(0.999982 -8.48627e-08 0)
(0.999982 -8.34096e-08 0)
(0.999982 -8.19791e-08 0)
(0.999982 -8.05703e-08 0)
(0.999983 -7.91823e-08 0)
(0.999983 -7.78144e-08 0)
(0.999983 -7.64656e-08 0)
(0.999983 -7.51353e-08 0)
(0.999983 -7.38226e-08 0)
(0.999983 -7.25276e-08 0)
(0.999983 -7.12464e-08 0)
(0.999984 -6.99925e-08 0)
(0.999984 -6.87046e-08 0)
(0.999984 -6.7643e-08 0)
(0.999984 -6.56856e-08 0)
(-0.0330397 0.0542452 0)
(-0.0131261 0.0128513 0)
(-0.0562519 0.0212787 0)
(-0.156621 0.0196496 0)
(-0.0894111 -0.0303416 0)
(-0.0640994 -0.202239 0)
(-0.0275126 -0.28974 0)
(0.118389 -0.165021 0)
(0.232816 -0.0353241 0)
(0.194705 0.00181991 0)
(0.222015 -0.00518015 0)
(0.201911 0.0719567 0)
(0.289596 0.0810748 0)
(0.285859 0.0777342 0)
(0.273828 0.0502724 0)
(0.267329 0.023375 0)
(0.256397 0.00792626 0)
(0.237594 -0.00252696 0)
(0.219078 -0.00853889 0)
(0.208743 -0.00956033 0)
(0.20625 -0.00799641 0)
(0.207216 -0.00626378 0)
(0.208746 -0.0051481 0)
(0.2102 -0.00463326 0)
(0.212242 -0.0047282 0)
(0.215659 -0.00519169 0)
(0.220695 -0.00560486 0)
(0.227245 -0.0057915 0)
(0.235131 -0.00612315 0)
(0.244474 -0.0073922 0)
(0.255614 -0.00970447 0)
(0.268382 -0.0122607 0)
(0.281939 -0.0143223 0)
(0.29532 -0.0156487 0)
(0.307885 -0.0163113 0)
(0.31941 -0.0164869 0)
(0.329977 -0.0163795 0)
(0.339848 -0.0161719 0)
(0.349329 -0.0159902 0)
(0.35866 -0.0158949 0)
(0.367957 -0.0158897 0)
(0.377224 -0.0159397 0)
(0.386401 -0.0159938 0)
(0.395432 -0.0160151 0)
(0.404313 -0.0160039 0)
(0.41312 -0.0160034 0)
(0.421992 -0.0160819 0)
(0.431082 -0.0162987 0)
(0.440492 -0.0166663 0)
(0.450238 -0.0171307 0)
(0.460256 -0.0175826 0)
(0.470451 -0.0178994 0)
(0.480734 -0.0179782 0)
(0.490991 -0.0177214 0)
(0.501005 -0.0170639 0)
(0.510617 -0.0162889 0)
(0.519998 -0.015735 0)
(0.529416 -0.0153748 0)
(0.538945 -0.0150781 0)
(0.548529 -0.0147682 0)
(0.558089 -0.0144096 0)
(0.567531 -0.0139968 0)
(0.576758 -0.0135442 0)
(0.58571 -0.0131325 0)
(0.594462 -0.0129196 0)
(0.603198 -0.0129258 0)
(0.61205 -0.013056 0)
(0.621051 -0.0132371 0)
(0.630195 -0.0134259 0)
(0.639461 -0.0135849 0)
(0.648802 -0.0136787 0)
(0.658145 -0.0136903 0)
(0.667424 -0.0136553 0)
(0.676637 -0.0136273 0)
(0.685817 -0.0136075 0)
(0.694969 -0.0135622 0)
(0.704062 -0.0134645 0)
(0.713044 -0.0133136 0)
(0.721886 -0.0131394 0)
(0.730595 -0.0129691 0)
(0.739188 -0.012797 0)
(0.747662 -0.0126072 0)
(0.756 -0.0124002 0)
(0.764193 -0.0121873 0)
(0.772244 -0.0119721 0)
(0.780153 -0.0117501 0)
(0.787912 -0.0115205 0)
(0.795516 -0.0112865 0)
(0.802964 -0.0110493 0)
(0.810253 -0.0108078 0)
(0.81738 -0.0105619 0)
(0.824342 -0.0103126 0)
(0.831136 -0.0100599 0)
(0.837761 -0.0098038 0)
(0.844214 -0.00954475 0)
(0.850493 -0.00928319 0)
(0.856596 -0.00901956 0)
(0.862523 -0.00875447 0)
(0.868272 -0.00848858 0)
(0.873843 -0.00822255 0)
(0.879236 -0.00795709 0)
(0.884453 -0.00769289 0)
(0.889493 -0.00743063 0)
(0.894359 -0.0071709 0)
(0.899052 -0.00691428 0)
(0.903575 -0.00666127 0)
(0.907931 -0.00641229 0)
(0.912121 -0.00616775 0)
(0.91615 -0.00592798 0)
(0.92002 -0.00569327 0)
(0.923736 -0.00546389 0)
(0.9273 -0.00524006 0)
(0.930717 -0.00502197 0)
(0.93399 -0.0048098 0)
(0.937124 -0.00460368 0)
(0.940122 -0.00440372 0)
(0.942989 -0.00421002 0)
(0.945729 -0.00402265 0)
(0.948346 -0.00384163 0)
(0.950844 -0.003667 0)
(0.953228 -0.00349873 0)
(0.955503 -0.00333679 0)
(0.957671 -0.00318112 0)
(0.959737 -0.00303163 0)
(0.961706 -0.00288822 0)
(0.963582 -0.00275077 0)
(0.965368 -0.00261914 0)
(0.967068 -0.00249318 0)
(0.968686 -0.00237274 0)
(0.970225 -0.00225766 0)
(0.97169 -0.00214778 0)
(0.973083 -0.00204293 0)
(0.974408 -0.00194294 0)
(0.975669 -0.00184766 0)
(0.976867 -0.0017569 0)
(0.978006 -0.00167049 0)
(0.979089 -0.00158827 0)
(0.980119 -0.00151006 0)
(0.981098 -0.0014357 0)
(0.982029 -0.001365 0)
(0.982914 -0.00129781 0)
(0.983756 -0.00123394 0)
(0.984556 -0.00117325 0)
(0.985317 -0.00111555 0)
(0.98604 -0.0010607 0)
(0.986728 -0.00100852 0)
(0.987382 -0.000958873 0)
(0.988004 -0.000911603 0)
(0.988595 -0.000866573 0)
(0.989157 -0.000823649 -1.17349e-41)
(0.989691 -0.000782712 -1.12895e-41)
(0.990198 -0.00074365 0)
(0.99068 -0.000706364 0)
(0.991138 -0.000670768 0)
(0.991572 -0.000636784 0)
(0.991985 -0.000604347 0)
(0.992376 -0.0005734 0)
(0.992748 -0.000543893 0)
(0.9931 -0.00051578 0)
(0.993434 -0.000489022 0)
(0.99375 -0.000463579 0)
(0.994051 -0.000439412 0)
(0.994335 -0.000416482 0)
(0.994604 -0.000394749 0)
(0.99486 -0.00037417 0)
(0.995102 -0.000354701 0)
(0.995331 -0.000336297 0)
(0.995549 -0.000318912 0)
(0.995756 -0.000302498 0)
(0.995951 -0.000287008 0)
(0.996137 -0.000272394 0)
(0.996314 -0.00025861 0)
(0.996481 -0.000245611 0)
(0.99664 -0.000233351 0)
(0.996791 -0.000221788 0)
(0.996935 -0.00021088 0)
(0.997072 -0.000200588 0)
(0.997202 -0.000190874 0)
(0.997326 -0.0001817 0)
(0.997443 -0.000173032 0)
(0.997556 -0.000164836 0)
(0.997663 -0.000157082 0)
(0.997765 -0.000149738 0)
(0.997862 -0.000142777 0)
(0.997955 -0.000136171 0)
(0.998043 -0.000129896 0)
(0.998127 -0.000123928 0)
(0.998208 -0.000118245 0)
(0.998285 -0.000112827 0)
(0.998358 -0.000107657 0)
(0.998428 -0.000102716 0)
(0.998495 -9.79915e-05 0)
(0.998558 -9.34682e-05 0)
(0.998619 -8.91345e-05 0)
(0.998677 -8.49796e-05 0)
(0.998732 -8.09941e-05 0)
(0.998785 -7.71695e-05 0)
(0.998835 -7.34984e-05 0)
(0.998883 -6.99741e-05 0)
(0.998928 -6.65908e-05 0)
(0.998971 -6.33433e-05 0)
(0.999012 -6.02268e-05 0)
(0.999051 -5.72372e-05 0)
(0.999089 -5.43706e-05 0)
(0.999124 -5.16233e-05 0)
(0.999157 -4.8992e-05 0)
(0.999189 -4.64737e-05 0)
(0.999219 -4.40651e-05 0)
(0.999248 -4.17635e-05 0)
(0.999275 -3.9566e-05 0)
(0.9993 -3.74699e-05 0)
(0.999324 -3.54724e-05 0)
(0.999347 -3.35708e-05 0)
(0.999369 -3.17623e-05 0)
(0.99939 -3.00444e-05 0)
(0.999409 -2.84143e-05 0)
(0.999427 -2.68693e-05 0)
(0.999445 -2.54067e-05 0)
(0.999461 -2.40237e-05 0)
(0.999477 -2.27178e-05 0)
(0.999491 -2.14862e-05 0)
(0.999505 -2.03263e-05 0)
(0.999518 -1.92353e-05 0)
(0.999531 -1.82107e-05 0)
(0.999543 -1.72497e-05 0)
(0.999554 -1.63498e-05 0)
(0.999564 -1.55085e-05 0)
(0.999574 -1.47231e-05 0)
(0.999584 -1.39911e-05 0)
(0.999593 -1.33101e-05 0)
(0.999602 -1.26776e-05 0)
(0.99961 -1.20911e-05 0)
(0.999618 -1.15484e-05 0)
(0.999625 -1.10471e-05 0)
(0.999632 -1.05848e-05 0)
(0.999639 -1.01595e-05 0)
(0.999646 -9.76879e-06 0)
(0.999652 -9.41067e-06 0)
(0.999658 -9.08303e-06 0)
(0.999664 -8.78387e-06 0)
(0.99967 -8.51123e-06 0)
(0.999676 -8.26323e-06 0)
(0.999681 -8.03806e-06 0)
(0.999686 -7.83396e-06 0)
(0.999691 -7.64925e-06 0)
(0.999696 -7.48232e-06 0)
(0.999701 -7.33163e-06 0)
(0.999706 -7.19571e-06 0)
(0.999711 -7.07316e-06 0)
(0.999716 -6.96264e-06 0)
(0.99972 -6.8629e-06 0)
(0.999725 -6.77274e-06 0)
(0.999729 -6.69102e-06 0)
(0.999734 -6.61669e-06 0)
(0.999738 -6.54872e-06 0)
(0.999742 -6.48617e-06 0)
(0.999747 -6.42814e-06 0)
(0.999751 -6.37378e-06 0)
(0.999755 -6.32229e-06 0)
(0.999759 -6.27292e-06 0)
(0.999764 -6.22496e-06 0)
(0.999768 -6.17773e-06 0)
(0.999772 -6.13061e-06 0)
(0.999776 -6.08299e-06 0)
(0.99978 -6.03431e-06 0)
(0.999784 -5.98403e-06 0)
(0.999788 -5.93167e-06 0)
(0.999792 -5.87674e-06 0)
(0.999796 -5.81882e-06 0)
(0.9998 -5.75749e-06 0)
(0.999803 -5.69241e-06 0)
(0.999807 -5.62323e-06 0)
(0.999811 -5.54966e-06 0)
(0.999815 -5.47147e-06 0)
(0.999818 -5.38845e-06 0)
(0.999822 -5.30046e-06 0)
(0.999825 -5.20741e-06 0)
(0.999829 -5.10927e-06 0)
(0.999832 -5.00608e-06 0)
(0.999835 -4.89794e-06 0)
(0.999839 -4.78504e-06 0)
(0.999842 -4.66762e-06 0)
(0.999845 -4.54603e-06 0)
(0.999848 -4.42068e-06 0)
(0.999851 -4.29206e-06 0)
(0.999854 -4.16072e-06 0)
(0.999856 -4.02729e-06 0)
(0.999859 -3.89244e-06 0)
(0.999862 -3.7569e-06 0)
(0.999864 -3.62139e-06 0)
(0.999866 -3.48667e-06 0)
(0.999869 -3.35348e-06 0)
(0.999871 -3.22251e-06 0)
(0.999873 -3.09443e-06 0)
(0.999875 -2.96983e-06 0)
(0.999877 -2.84924e-06 0)
(0.999879 -2.7331e-06 0)
(0.99988 -2.62177e-06 0)
(0.999882 -2.51554e-06 0)
(0.999884 -2.41466e-06 0)
(0.999885 -2.31931e-06 0)
(0.999887 -2.22963e-06 0)
(0.999888 -2.14579e-06 0)
(0.99989 -2.06794e-06 0)
(0.999891 -1.99625e-06 0)
(0.999892 -1.93092e-06 0)
(0.999894 -1.87216e-06 0)
(0.999895 -1.82019e-06 0)
(0.999896 -1.77516e-06 0)
(0.999897 -1.73718e-06 0)
(0.999898 -1.70619e-06 0)
(0.9999 -1.68198e-06 0)
(0.999901 -1.66407e-06 0)
(0.999902 -1.65173e-06 0)
(0.999903 -1.64393e-06 0)
(0.999904 -1.6394e-06 0)
(0.999905 -1.63661e-06 0)
(0.999906 -1.63395e-06 0)
(0.999907 -1.62979e-06 0)
(0.999908 -1.62265e-06 0)
(0.999909 -1.61132e-06 0)
(0.99991 -1.59503e-06 0)
(0.999912 -1.57352e-06 0)
(0.999913 -1.54711e-06 0)
(0.999914 -1.51668e-06 0)
(0.999915 -1.48363e-06 0)
(0.999916 -1.44973e-06 0)
(0.999917 -1.41699e-06 0)
(0.999917 -1.38744e-06 0)
(0.999918 -1.36299e-06 0)
(0.999919 -1.34524e-06 0)
(0.99992 -1.33537e-06 0)
(0.999921 -1.33406e-06 0)
(0.999922 -1.34144e-06 0)
(0.999923 -1.35715e-06 0)
(0.999924 -1.38037e-06 0)
(0.999925 -1.40989e-06 0)
(0.999926 -1.44426e-06 0)
(0.999927 -1.48188e-06 0)
(0.999928 -1.5211e-06 0)
(0.999929 -1.5603e-06 0)
(0.99993 -1.59801e-06 0)
(0.999931 -1.63294e-06 0)
(0.999932 -1.66398e-06 0)
(0.999933 -1.6903e-06 0)
(0.999934 -1.71129e-06 0)
(0.999935 -1.72657e-06 0)
(0.999936 -1.73596e-06 0)
(0.999938 -1.73948e-06 0)
(0.999939 -1.73728e-06 0)
(0.99994 -1.72966e-06 0)
(0.999941 -1.71697e-06 0)
(0.999942 -1.69968e-06 0)
(0.999943 -1.67826e-06 0)
(0.999944 -1.65321e-06 0)
(0.999945 -1.62503e-06 0)
(0.999947 -1.59422e-06 0)
(0.999948 -1.56126e-06 0)
(0.999949 -1.52658e-06 0)
(0.99995 -1.49059e-06 0)
(0.999951 -1.45366e-06 0)
(0.999952 -1.41614e-06 0)
(0.999953 -1.3783e-06 0)
(0.999953 -1.34042e-06 0)
(0.999954 -1.30271e-06 0)
(0.999955 -1.26536e-06 0)
(0.999956 -1.22853e-06 0)
(0.999957 -1.19236e-06 0)
(0.999958 -1.15695e-06 0)
(0.999958 -1.12239e-06 0)
(0.999959 -1.08874e-06 0)
(0.99996 -1.05606e-06 0)
(0.99996 -1.02437e-06 0)
(0.999961 -9.93692e-07 0)
(0.999962 -9.64047e-07 0)
(0.999962 -9.35431e-07 0)
(0.999963 -9.07839e-07 0)
(0.999964 -8.81259e-07 0)
(0.999964 -8.55672e-07 0)
(0.999965 -8.31058e-07 0)
(0.999965 -8.07392e-07 0)
(0.999966 -7.84647e-07 0)
(0.999966 -7.62794e-07 0)
(0.999967 -7.41803e-07 0)
(0.999967 -7.21643e-07 0)
(0.999968 -7.02283e-07 0)
(0.999968 -6.8369e-07 0)
(0.999969 -6.65834e-07 0)
(0.999969 -6.48684e-07 0)
(0.99997 -6.32208e-07 0)
(0.99997 -6.16377e-07 0)
(0.99997 -6.01163e-07 0)
(0.999971 -5.86536e-07 0)
(0.999971 -5.72469e-07 0)
(0.999972 -5.58936e-07 0)
(0.999972 -5.45912e-07 0)
(0.999972 -5.33372e-07 0)
(0.999973 -5.21293e-07 0)
(0.999973 -5.09652e-07 0)
(0.999973 -4.98428e-07 0)
(0.999974 -4.87601e-07 0)
(0.999974 -4.7715e-07 0)
(0.999974 -4.67058e-07 0)
(0.999975 -4.57307e-07 0)
(0.999975 -4.47879e-07 0)
(0.999975 -4.38759e-07 0)
(0.999976 -4.29931e-07 0)
(0.999976 -4.21381e-07 0)
(0.999976 -4.13096e-07 0)
(0.999976 -4.05062e-07 0)
(0.999977 -3.97266e-07 0)
(0.999977 -3.89698e-07 0)
(0.999977 -3.82345e-07 0)
(0.999977 -3.75198e-07 0)
(0.999978 -3.68247e-07 0)
(0.999978 -3.61481e-07 0)
(0.999978 -3.54892e-07 0)
(0.999978 -3.48472e-07 0)
(0.999979 -3.42212e-07 0)
(0.999979 -3.36105e-07 0)
(0.999979 -3.30144e-07 0)
(0.999979 -3.24321e-07 0)
(0.999979 -3.18631e-07 0)
(0.99998 -3.13067e-07 0)
(0.99998 -3.07624e-07 0)
(0.99998 -3.02295e-07 0)
(0.99998 -2.97076e-07 0)
(0.99998 -2.91962e-07 0)
(0.999981 -2.86948e-07 0)
(0.999981 -2.8203e-07 0)
(0.999981 -2.77203e-07 0)
(0.999981 -2.72463e-07 0)
(0.999981 -2.67807e-07 0)
(0.999982 -2.63232e-07 0)
(0.999982 -2.58733e-07 0)
(0.999982 -2.54308e-07 0)
(0.999982 -2.49954e-07 0)
(0.999982 -2.45667e-07 0)
(0.999982 -2.41445e-07 0)
(0.999983 -2.37286e-07 0)
(0.999983 -2.33186e-07 0)
(0.999983 -2.29144e-07 0)
(0.999983 -2.25157e-07 0)
(0.999983 -2.21223e-07 0)
(0.999983 -2.17342e-07 0)
(0.999983 -2.13503e-07 0)
(0.999984 -2.09745e-07 0)
(0.999984 -2.05885e-07 0)
(0.999984 -2.02703e-07 0)
(0.999984 -1.96843e-07 0)
(-0.0273509 0.0699697 0)
(0.0111531 0.0293922 0)
(-0.0804935 0.133132 0)
(-0.145491 0.0153179 0)
(-0.0153712 -0.0288345 0)
(0.113804 -0.13004 0)
(0.0738704 -0.252503 0)
(-0.0216531 -0.201334 0)
(0.057226 -0.0120974 0)
(0.0636376 -0.0379731 0)
(0.0957195 -0.0494887 0)
(0.125097 -0.0407734 0)
(0.18784 -0.0291945 0)
(0.232707 -0.0169358 0)
(0.246346 0.00391391 0)
(0.238388 0.0235345 0)
(0.220892 0.0308373 0)
(0.204816 0.0256746 0)
(0.197001 0.0143887 0)
(0.197712 0.00379325 0)
(0.202365 -0.00189522 0)
(0.209958 -0.00350186 0)
(0.221766 -0.00392986 0)
(0.237797 -0.00512398 0)
(0.256101 -0.0082064 0)
(0.275395 -0.0125109 0)
(0.295389 -0.0169472 0)
(0.316253 -0.0205069 0)
(0.337504 -0.0228695 0)
(0.35822 -0.0253948 0)
(0.37749 -0.0285279 0)
(0.394887 -0.0310278 0)
(0.410029 -0.0318568 0)
(0.422952 -0.0310204 0)
(0.434094 -0.0291068 0)
(0.443958 -0.0268429 0)
(0.452944 -0.0248577 0)
(0.461334 -0.0235235 0)
(0.469304 -0.0228924 0)
(0.476911 -0.0227581 0)
(0.484121 -0.0228126 0)
(0.490846 -0.0228021 0)
(0.497008 -0.0226261 0)
(0.50258 -0.0223661 0)
(0.507636 -0.0222301 0)
(0.512341 -0.0224303 0)
(0.516879 -0.0230542 0)
(0.521353 -0.0240141 0)
(0.525745 -0.0250929 0)
(0.529951 -0.0260569 0)
(0.533848 -0.0267632 0)
(0.537358 -0.027173 0)
(0.540499 -0.0272603 0)
(0.543375 -0.0268289 0)
(0.545935 -0.0256073 0)
(0.54818 -0.0244654 0)
(0.550543 -0.0240315 0)
(0.553583 -0.0238931 0)
(0.557442 -0.0237536 0)
(0.562087 -0.023525 0)
(0.567475 -0.0231895 0)
(0.573542 -0.0227707 0)
(0.580122 -0.0222546 0)
(0.586959 -0.0217182 0)
(0.594026 -0.0215599 0)
(0.601549 -0.021798 0)
(0.609618 -0.022193 0)
(0.618154 -0.022599 0)
(0.627083 -0.022957 0)
(0.636348 -0.0232212 0)
(0.645859 -0.0233295 0)
(0.655464 -0.0232388 0)
(0.665019 -0.0230547 0)
(0.67452 -0.0229357 0)
(0.684041 -0.0228714 0)
(0.693584 -0.0227687 0)
(0.703071 -0.0225631 0)
(0.712394 -0.0222513 0)
(0.721492 -0.0219131 0)
(0.730395 -0.0216137 0)
(0.739155 -0.0213278 0)
(0.747764 -0.0210095 0)
(0.756193 -0.020659 0)
(0.764437 -0.0203046 0)
(0.772519 -0.019952 0)
(0.780448 -0.0195858 0)
(0.788217 -0.0192035 0)
(0.795823 -0.0188145 0)
(0.803271 -0.0184209 0)
(0.810561 -0.0180189 0)
(0.817689 -0.0176093 0)
(0.824653 -0.0171941 0)
(0.831451 -0.016773 0)
(0.838079 -0.0163459 0)
(0.844536 -0.0159136 0)
(0.850819 -0.0154771 0)
(0.856926 -0.0150369 0)
(0.862855 -0.0145943 0)
(0.868606 -0.0141502 0)
(0.874178 -0.013706 0)
(0.879571 -0.0132627 0)
(0.884786 -0.0128216 0)
(0.889824 -0.0123838 0)
(0.894687 -0.0119502 0)
(0.899377 -0.0115219 0)
(0.903896 -0.0110996 0)
(0.908246 -0.0106842 0)
(0.912431 -0.0102761 0)
(0.916454 -0.00987612 0)
(0.920318 -0.00948458 0)
(0.924027 -0.00910196 0)
(0.927584 -0.00872862 0)
(0.930994 -0.00836489 0)
(0.93426 -0.00801104 0)
(0.937386 -0.00766731 0)
(0.940376 -0.00733389 0)
(0.943235 -0.00701092 0)
(0.945967 -0.00669851 0)
(0.948576 -0.00639675 0)
(0.951066 -0.00610564 0)
(0.953443 -0.00582517 0)
(0.955709 -0.00555529 0)
(0.957869 -0.00529587 0)
(0.959928 -0.00504679 0)
(0.961889 -0.00480786 0)
(0.963757 -0.00457888 0)
(0.965535 -0.0043596 0)
(0.967228 -0.0041498 0)
(0.968839 -0.0039492 0)
(0.970372 -0.00375753 0)
(0.97183 -0.00357454 0)
(0.973217 -0.00339994 0)
(0.974536 -0.00323346 0)
(0.97579 -0.0030748 0)
(0.976983 -0.00292369 0)
(0.978117 -0.00277985 0)
(0.979194 -0.00264298 0)
(0.980219 -0.0025128 0)
(0.981194 -0.00238902 0)
(0.98212 -0.00227136 0)
(0.983 -0.00215954 0)
(0.983838 -0.00205327 0)
(0.984634 -0.00195227 0)
(0.985391 -0.00185628 0)
(0.98611 -0.00176501 0)
(0.986795 -0.00167821 0)
(0.987446 -0.00159561 0)
(0.988064 -0.00151697 0)
(0.988653 -0.00144206 0)
(0.989212 -0.00137065 0)
(0.989743 -0.00130253 0)
(0.990248 -0.00123753 0)
(0.990728 -0.00117548 0)
(0.991184 -0.00111624 0)
(0.991616 -0.00105967 0)
(0.992027 -0.00100566 0)
(0.992416 -0.000954136 0)
(0.992786 -0.000905002 0)
(0.993136 -0.000858189 0)
(0.993468 -0.00081363 0)
(0.993783 -0.000771261 0)
(0.994082 -0.00073102 0)
(0.994364 -0.000692842 0)
(0.994632 -0.00065666 0)
(0.994886 -0.000622404 0)
(0.995127 -0.000590001 0)
(0.995355 -0.000559375 0)
(0.995572 -0.000530448 0)
(0.995777 -0.00050314 0)
(0.995971 -0.000477373 0)
(0.996156 -0.000453067 0)
(0.996331 -0.000430144 0)
(0.996498 -0.000408527 0)
(0.996656 -0.000388141 0)
(0.996806 -0.000368916 0)
(0.996949 -0.000350781 0)
(0.997085 -0.000333671 0)
(0.997214 -0.000317521 0)
(0.997337 -0.00030227 0)
(0.997455 -0.000287861 0)
(0.997566 -0.000274237 0)
(0.997673 -0.000261347 0)
(0.997774 -0.000249139 0)
(0.997871 -0.000237567 0)
(0.997963 -0.000226585 0)
(0.998051 -0.000216153 0)
(0.998135 -0.00020623 0)
(0.998215 -0.00019678 0)
(0.998292 -0.000187772 0)
(0.998365 -0.000179172 0)
(0.998434 -0.000170955 0)
(0.998501 -0.000163095 0)
(0.998564 -0.00015557 0)
(0.998625 -0.000148359 0)
(0.998682 -0.000141445 0)
(0.998737 -0.000134812 0)
(0.99879 -0.000128446 0)
(0.99884 -0.000122334 0)
(0.998887 -0.000116467 0)
(0.998932 -0.000110834 0)
(0.998975 -0.000105427 0)
(0.999016 -0.000100237 0)
(0.999055 -9.52591e-05 0)
(0.999092 -9.04854e-05 0)
(0.999127 -8.59103e-05 0)
(0.999161 -8.15284e-05 0)
(0.999192 -7.73345e-05 0)
(0.999222 -7.33235e-05 0)
(0.999251 -6.94906e-05 0)
(0.999277 -6.58312e-05 0)
(0.999303 -6.23407e-05 0)
(0.999327 -5.90145e-05 0)
(0.99935 -5.58481e-05 0)
(0.999371 -5.2837e-05 0)
(0.999392 -4.99768e-05 0)
(0.999411 -4.72629e-05 0)
(0.999429 -4.46908e-05 0)
(0.999447 -4.22561e-05 0)
(0.999463 -3.99542e-05 0)
(0.999478 -3.77807e-05 0)
(0.999493 -3.5731e-05 0)
(0.999507 -3.38006e-05 0)
(0.99952 -3.19853e-05 0)
(0.999532 -3.02804e-05 0)
(0.999544 -2.86817e-05 0)
(0.999555 -2.71848e-05 0)
(0.999565 -2.57853e-05 0)
(0.999575 -2.44791e-05 0)
(0.999585 -2.32619e-05 0)
(0.999594 -2.21296e-05 0)
(0.999602 -2.10781e-05 0)
(0.999611 -2.01033e-05 0)
(0.999618 -1.92014e-05 0)
(0.999626 -1.83684e-05 0)
(0.999633 -1.76004e-05 0)
(0.99964 -1.68939e-05 0)
(0.999646 -1.62451e-05 0)
(0.999653 -1.56506e-05 0)
(0.999659 -1.51067e-05 0)
(0.999665 -1.46103e-05 0)
(0.99967 -1.4158e-05 0)
(0.999676 -1.37467e-05 0)
(0.999681 -1.33733e-05 0)
(0.999687 -1.3035e-05 0)
(0.999692 -1.2729e-05 0)
(0.999697 -1.24525e-05 0)
(0.999702 -1.22029e-05 0)
(0.999706 -1.1978e-05 0)
(0.999711 -1.17752e-05 0)
(0.999716 -1.15924e-05 0)
(0.99972 -1.14275e-05 0)
(0.999725 -1.12785e-05 0)
(0.999729 -1.11435e-05 0)