/*--------------------------------*- C++ -*----------------------------------*\
| =========                 |                                                 |
| \\      /  F ield         | OpenFOAM: The Open Source CFD Toolbox           |
|  \\    /   O peration     | Version:  v2006                                 |
|   \\  /    A nd           | Website:  www.openfoam.com                      |
|    \\/     M anipulation  |                                                 |
\*---------------------------------------------------------------------------*/
FoamFile
{
    version     2.0;
    format      ascii;
    class       volScalarField;
    location    "0";
    object      f;
}
// * * * * * * * * * * * * * * * * * * * * * * * * * * * * * * * * * * * * * //

dimensions      [0 0 0 0 0 0 0];


internalField   nonuniform List<scalar> 
2500
(
-5.6879e-47
9.21243e-38
-2.36684e-32
4.19551e-29
9.57645e-27
1.23838e-25
-1.38725e-22
6.7152e-22
4.18443e-20
-3.17698e-19
-7.21588e-19
-4.60829e-18
4.97992e-18
7.32804e-17
-5.01552e-17
-6.87198e-16
-2.89446e-16
5.05005e-15
1.04841e-14
-2.81959e-13
-5.12884e-13
-2.48532e-13
1.59707e-11
1.77611e-11
1.75462e-11
2.58417e-12
-1.99521e-10
-1.47029e-11
2.90759e-10
2.67293e-11
-1.37848e-10
-3.9649e-11
3.85687e-12
1.98408e-11
6.56456e-14
-2.35595e-12
-6.42537e-13
2.49165e-14
3.21523e-14
2.57877e-15
-3.26281e-15
-1.14789e-15
-1.03397e-16
3.66059e-17
2.88419e-17
1.26702e-17
4.50893e-18
1.417e-18
4.07258e-19
3.27079e-20
-5.7939e-45
3.1387e-36
-3.81609e-31
2.84546e-28
9.62232e-26
9.61139e-24
-9.13105e-22
1.19427e-21
1.98322e-19
-7.34549e-19
-2.26571e-18
-2.23939e-17
5.37782e-18
2.35355e-16
-1.4412e-17
-2.74426e-15
-6.18931e-16
6.83733e-14
2.02281e-14
-3.28918e-12
-9.77613e-13
1.0165e-10
1.2618e-10
1.93583e-11
-7.19788e-11
-1.96615e-09
-4.24957e-10
1.87495e-09
1.31311e-09
3.10873e-11
-3.02451e-10
-2.89705e-11
9.50466e-11
4.08075e-11
-5.96232e-12
-5.56871e-12
-1.00595e-12
5.25988e-14
3.40037e-14
2.90182e-15
-2.51754e-15
-8.65418e-16
-4.1619e-17
3.45666e-17
2.12626e-17
8.54847e-18
2.88462e-18
8.75246e-19
2.46835e-19
2.50354e-20
-5.08135e-43
8.59881e-35
-4.41887e-30
-5.38632e-30
6.80437e-25
1.26728e-22
-4.92872e-21
-6.68971e-21
8.26227e-19
-9.16693e-19
-5.09065e-18
-8.97292e-17
-1.14963e-17
9.00928e-16
7.92541e-17
-1.85421e-14
5.96969e-14
2.84714e-13
-4.84363e-12
-1.08719e-11
1.07462e-10
6.423e-10
3.83491e-10
-4.76186e-09
-1.75092e-08
-1.28234e-08
-6.12896e-10
2.13467e-08
3.68582e-09
2.53232e-11
-6.23823e-10
7.92376e-11
3.98686e-10
9.94664e-11
-1.79743e-11
-1.30857e-11
-2.08088e-12
1.60481e-13
1.0371e-13
6.10117e-15
-4.24338e-15
-1.35704e-15
-3.49856e-17
5.54152e-17
3.09686e-17
1.20151e-17
3.9773e-18
1.19344e-18
3.34965e-19
3.7426e-20
-4.67e-41
2.1674e-33
-3.61189e-29
-2.95845e-26
3.0239e-24
1.21143e-21
-2.36287e-20
-8.95441e-20
3.07313e-18
2.34322e-18
-3.76151e-18
-3.39466e-16
-1.108e-16
7.55056e-15
-2.67421e-14
-5.04371e-14
3.03992e-12
6.4135e-13
-6.57888e-11
-2.01346e-11
1.61021e-09
1.7044e-09
7.03908e-10
-6.63779e-08
-9.02892e-08
-4.0151e-08
4.31026e-08
7.83198e-08
7.52833e-09
-1.86531e-09
-1.06721e-09
1.43843e-09
1.26249e-09
2.20905e-10
-4.34667e-11
-2.73384e-11
-3.7193e-12
4.17086e-13
2.33149e-13
1.07268e-14
-7.09304e-15
-2.10486e-15
-8.05065e-18
8.62131e-17
4.4066e-17
1.65157e-17
5.36749e-18
1.59353e-18
4.45117e-19
5.40006e-20
-4.33802e-39
4.58674e-32
7.46613e-29
-5.5575e-25
-9.05241e-24
9.90564e-21
-9.94036e-20
-6.68291e-19
9.70848e-18
2.14661e-17
3.89027e-17
-2.08024e-15
-2.70012e-16
3.632e-14
-1.11329e-12
3.50243e-12
1.54178e-11
-3.17137e-10
-1.90356e-10
5.26639e-09
5.61829e-09
2.65981e-09
-1.35043e-07
-2.43818e-07
-2.3722e-07
-8.4086e-08
5.57572e-07
1.95371e-07
9.76605e-09
-1.10943e-08
-1.36199e-09
5.48297e-09
3.3736e-09
4.60482e-10
-9.00924e-11
-5.23239e-11
-5.98316e-12
1.04613e-12
5.04123e-13
1.5283e-14
-1.30408e-14
-3.30585e-15
5.52983e-17
1.3e-16
6.11496e-17
2.21736e-17
7.08244e-18
2.08165e-18
5.78718e-19
7.53786e-20
-3.91611e-37
5.62586e-31
1.24275e-26
-7.29392e-24
-4.34819e-22
7.25332e-20
-3.52646e-19
-4.08021e-18
2.20956e-17
8.18065e-17
2.75223e-16
-1.40166e-14
2.33177e-13
1.31924e-14
-5.35029e-12
1.11796e-10
3.66168e-11
-2.35468e-09
2.91832e-09
3.9037e-08
1.01701e-08
-4.8345e-07
-7.95494e-07
-5.76144e-07
-4.2181e-07
-1.08788e-07
2.3792e-06
3.30891e-07
-1.09103e-08
-4.95538e-08
1.0842e-10
1.5167e-08
7.8465e-09
8.89101e-10
-1.70885e-10
-9.38729e-11
-8.40328e-12
2.51565e-12
1.01438e-12
1.51098e-14
-2.58439e-14
-5.19834e-15
1.78765e-16
1.8945e-16
8.25608e-17
2.90348e-17
9.12842e-18
2.65823e-18
7.35607e-19
1.01944e-19
-3.28629e-35
-1.49666e-29
3.71994e-25
-7.72974e-23
-6.90572e-21
4.82512e-19
-9.21196e-19
-2.21047e-17
1.36483e-18
6.80755e-16
7.34695e-16
-3.51538e-14
1.36305e-12
-2.25519e-11
-1.11202e-11
5.06183e-10
-6.73713e-09
-5.44935e-09
1.64504e-07
9.54372e-08
-1.3841e-06
-3.89477e-06
-2.17514e-06
-8.43106e-07
-5.43403e-07
1.73091e-05
7.76742e-06
2.89838e-07
-3.24579e-07
-1.77304e-07
1.00799e-08
3.54271e-08
1.63054e-08
1.55846e-09
-3.15174e-10
-1.6067e-10
-9.58935e-12
5.76506e-12
1.87831e-12
-2.27293e-14
-5.14963e-14
-7.96296e-15
3.83566e-16
2.65954e-16
1.08199e-16
3.70348e-17
1.14834e-17
3.31608e-18
9.1349e-19
1.33698e-19
-2.37625e-33
-1.60501e-27
8.24025e-24
-6.6285e-22
-8.40911e-20
2.91682e-18
-4.05387e-19
-1.10134e-16
-4.33443e-16
1.98659e-14
-3.31647e-13
1.76437e-12
3.03406e-12
-1.26468e-10
1.76696e-09
1.06718e-09
-4.2728e-08
8.9495e-08
7.32598e-07
-6.63917e-07
-1.52969e-05
-1.14559e-05
-3.16404e-06
4.76471e-05
0.000242758
0.000158474
1.93853e-05
-1.28878e-06
-1.36461e-06
-5.1917e-07
3.11824e-08
7.27339e-08
3.07552e-08
2.4017e-09
-5.82418e-10
-2.64322e-10
-5.00601e-12
1.25219e-11
3.14201e-12
-1.25132e-13
-9.82658e-14
-1.14778e-14
6.51433e-16
3.57195e-16
1.37359e-16
4.59774e-17
1.40927e-17
4.03906e-18
1.1075e-18
1.70108e-19
-1.1515e-31
-8.70503e-26
1.54625e-22
-4.03282e-21
-8.87322e-19
1.58647e-17
1.71534e-17
-7.41612e-16
-2.03809e-15
1.0317e-13
-2.34999e-12
3.46979e-11
-2.35903e-10
-2.94905e-10
1.10024e-08
-7.35926e-08
-9.61247e-08
2.088e-06
1.45077e-06
-3.31125e-05
-5.05912e-05
-1.84726e-05
0.000510083
0.00182926
0.00163992
0.000568713
3.4731e-05
-5.25861e-06
-4.11412e-06
-1.29831e-06
7.24912e-08
1.35844e-07
5.28692e-08
3.0933e-09
-1.09497e-09
-4.15484e-10
1.58819e-11
2.55675e-11
4.70695e-12
-3.30442e-13
-1.7513e-13
-1.50362e-14
8.93027e-16
4.56398e-16
1.68755e-16
5.55436e-17
1.68697e-17
4.80161e-18
1.30994e-18
2.09973e-19
3.9029e-30
-3.81534e-24
2.53959e-21
-2.34329e-21
-8.45482e-18
7.71063e-17
1.51699e-16
-8.9987e-15
1.22164e-13
1.38423e-13
-4.88679e-12
1.14572e-10
-1.91303e-09
8.85033e-09
2.30281e-08
-4.72075e-07
5.17914e-07
8.26039e-06
-1.72167e-05
-0.000147062
-8.48392e-05
0.00131905
0.0063827
0.00811327
0.00518521
0.00148387
5.29412e-05
-1.45198e-05
-1.03313e-05
-2.85662e-06
1.54785e-07
2.3503e-07
8.27653e-08
3.11648e-09
-2.09527e-09
-6.104e-10
6.30967e-11
4.85999e-11
6.27037e-12
-6.69341e-13
-2.85849e-13
-1.74801e-14
1.13494e-15
5.57858e-16
2.00787e-16
6.53373e-17
1.97023e-17
5.56925e-18
1.51019e-18
2.51323e-19
2.21873e-27
-1.48112e-22
3.63511e-20
4.32061e-19
-7.6022e-17
6.86065e-16
-8.92733e-16
-3.77611e-14
1.42854e-12
-2.10921e-11
1.73922e-10
-8.84036e-11
-4.55478e-09
7.98145e-08
-1.73382e-07
-1.2218e-06
1.28229e-05
1.55919e-05
-0.000240783
-0.000373965
0.00114171
0.0126386
0.0230462
0.0221003
0.0122792
0.00319722
7.42966e-05
-3.47333e-05
-2.26747e-05
-5.54531e-06
3.20193e-07
3.82979e-07
1.1744e-07
-1.29785e-10
-4.01153e-09
-8.0129e-10
1.59026e-10
8.44739e-11
6.96901e-12
-1.19767e-12
-4.28129e-13
-1.75837e-14
1.38102e-15
6.55315e-16
2.31875e-16
7.49585e-17
2.24633e-17
6.29953e-18
1.69481e-18
2.91373e-19
4.26137e-25
-5.26206e-21
4.35892e-19
8.72952e-18
-7.10508e-16
1.28529e-14
-1.51836e-13
1.0118e-12
4.1087e-12
-1.15567e-10
1.65666e-09
-1.32752e-08
1.51635e-08
2.44987e-07
-2.89216e-06
-2.80386e-07
5.11935e-05
-5.93838e-05
-0.000874843
-0.000472149
0.0149803
0.0423116
0.0568873
0.0476533
0.0243059
0.00593896
8.90307e-05
-7.42103e-05
-4.44241e-05
-9.49058e-06
6.42474e-07
5.96576e-07
1.49365e-07
-8.1551e-09
-7.43163e-09
-8.7958e-10
3.27932e-10
1.31328e-10
5.32582e-12
-2.06049e-12
-5.77829e-13
-1.13978e-14
1.60328e-15
7.40429e-16
2.60874e-16
8.40816e-17
2.50194e-17
6.94295e-18
1.84785e-18
3.26546e-19
6.38865e-23
-1.73631e-19
3.92486e-18
8.12585e-17
-3.50797e-15
5.89461e-14
-7.64163e-13
8.76278e-12
-5.96683e-11
-2.10206e-10
3.84174e-09
-6.01254e-08
4.1441e-07
2.13671e-07
-1.06763e-05
4.95288e-05
0.00011362
-0.000895528
-0.00200187
0.00857401
0.051896
0.100345
0.114359
0.0870821
0.0417057
0.0096318
6.01419e-05
-0.000144611
-7.82691e-05
-1.40919e-05
1.22393e-06
8.91538e-07
1.65556e-07
-2.39646e-08
-1.27959e-08
-5.48609e-10
5.98932e-10
1.82135e-10
2.61147e-13
-3.28877e-12
-6.76458e-13
-1.34753e-15
1.7624e-15
8.07166e-16
2.87745e-16
9.25115e-17
2.72316e-17
7.44281e-18
1.95118e-18
3.52598e-19
8.38653e-21
-5.41155e-18
2.58138e-17
2.08667e-16
-6.18873e-15
9.60729e-14
-1.39757e-12
2.39175e-11
-5.13831e-10
4.77412e-09
-8.94253e-09
-1.08707e-07
1.57835e-06
-6.64867e-06
-1.86223e-05
0.000213269
7.0595e-05
-0.00313659
-0.00231531
0.0401271
0.123976
0.194538
0.197785
0.139423
0.0629604
0.0136341
-6.71793e-05
-0.000259986
-0.00012388
-1.74638e-05
2.17585e-06
1.2638e-06
1.39303e-07
-5.08093e-08
-1.88672e-08
5.30472e-10
1.0468e-09
2.21591e-10
-6.58979e-12
-4.6957e-12
-6.9719e-13
3.09055e-15
1.82393e-15
8.58454e-16
3.14131e-16
1.00159e-16
2.89428e-17
7.73413e-18
1.98521e-18
3.64882e-19
9.77051e-19
-1.90445e-16
5.49726e-15
-9.48746e-14
1.28234e-12
-1.33747e-11
9.76883e-11
-3.54746e-10
-1.31535e-09
2.81236e-08
-2.34739e-07
6.31481e-07
2.71245e-06
-2.92713e-05
1.63688e-05
0.000545315
-0.0016331
-0.00726738
0.0109441
0.103848
0.240107
0.324208
0.302709
0.198131
0.0840292
0.0167098
-0.000347607
-0.000432442
-0.000175741
-1.73423e-05
3.70671e-06
1.6687e-06
1.83336e-08
-9.37588e-08
-2.29604e-08
2.45442e-09
1.67994e-09
2.37672e-10
-1.15423e-11
-5.59978e-12
-6.57949e-13
-2.31313e-16
1.65774e-15
9.25849e-16
3.43191e-16
1.06878e-16
2.99493e-17
7.7429e-18
1.93031e-18
3.58832e-19
6.68531e-17
-2.91896e-15
5.51265e-14
-7.70666e-13
9.09386e-12
-9.15216e-11
7.61863e-10
-4.67017e-09
1.69606e-08
5.88551e-08
-8.78344e-07
5.65187e-06
-5.92344e-06
-7.11077e-05
0.000344816
0.000799466
-0.00640387
-0.0112854
0.0478222
0.20978
0.399244
0.479078
0.412505
0.251096
0.0991289
0.0173692
-0.00078326
-0.000664457
-0.000218673
-7.75619e-06
6.51642e-06
1.95932e-06
-1.93541e-07
-1.61281e-07
-2.27328e-08
5.08263e-09
2.33965e-09
2.06269e-10
-1.13975e-11
-5.29485e-12
-5.41331e-13
-7.6393e-15
1.57232e-15
1.02244e-15
3.76778e-16
1.12169e-16
2.99694e-17
7.38871e-18
1.76946e-18
3.30707e-19
3.93031e-16
-8.16192e-15
1.24092e-13
-1.57064e-12
1.77134e-11
-1.81372e-10
1.71589e-09
-1.54959e-08
1.00394e-07
-3.15083e-07
-1.40623e-06
1.73282e-05
-7.4871e-05
-8.49517e-05
0.00116602
-0.000403267
-0.0156386
-0.0103019
0.112758
0.356856
0.585341
0.634536
0.504039
0.284296
0.10277
0.0140523
-0.00131851
-0.000914397
-0.000227162
1.08322e-05
1.11997e-05
1.75012e-06
-5.05949e-07
-2.41305e-07
-1.32497e-08
7.55299e-09
2.69922e-09
1.3288e-10
-9.78555e-12
-3.80594e-12
-4.17343e-13
-3.35609e-14
1.30563e-15
1.16262e-15
4.15799e-16
1.14924e-16
2.86319e-17
6.5959e-18
1.49269e-18
2.78599e-19
-8.89387e-15
1.30514e-13
-1.93001e-12
2.22548e-11
-1.96485e-10
1.19662e-09
-2.96813e-09
-2.09428e-08
2.22451e-07
-2.28191e-06
7.31181e-06
2.61091e-05
-0.000241553
0.000314319
0.00256847
-0.00570741
-0.0283991
0.0107325
0.211077
0.530725
0.765942
0.757291
0.55472
0.287954
0.0902424
0.00688142
-0.00201514
-0.00109051
-0.000153381
3.77463e-05
1.71327e-05
5.49956e-07
-8.76252e-07
-2.84915e-07
2.32457e-09
1.01415e-08
2.6451e-09
5.79263e-11
-2.25124e-12
-1.45496e-12
-3.97672e-13
-8.89738e-14
-1.38324e-17
1.3753e-15
4.5795e-16
1.13146e-16
2.55129e-17
5.31743e-18
1.10336e-18
2.03568e-19
-2.59655e-13
2.56881e-12
-3.21752e-11
3.45728e-10
-3.14525e-09
2.29447e-08
-1.26216e-07
4.45765e-07
-1.40754e-07
-6.35443e-06
4.22231e-05
-4.00867e-05
-0.000482914
0.00147813
0.00367483
-0.0155611
-0.0392086
0.0472632
0.333233
0.702839
0.896577
0.823654
0.553995
0.251693
0.0606268
-0.00121955
-0.00290638
-0.00106208
1.50547e-05
7.06999e-05
1.90668e-05
-1.42135e-06
-1.30415e-06
-2.58103e-07
1.80436e-08
1.1832e-08
2.06962e-09
3.88385e-11
1.04346e-11
3.68056e-14
-5.21656e-13
-1.64187e-13
-2.43963e-15
1.71896e-15
4.94143e-16
1.03915e-16
2.02624e-17
3.57276e-18
6.24892e-19
1.10483e-19
-8.48055e-13
7.56876e-12
-9.32436e-11
1.02626e-09
-9.93598e-09
7.9203e-08
-5.01334e-07
2.39808e-06
-6.02452e-06
-7.97288e-06
0.000107524
-0.000290252
-0.000592539
0.00373299
0.00279958
-0.0299102
-0.0428068
0.102759
0.460172
0.836228
0.96146
0.811742
0.479718
0.17938
0.0245427
-0.00650484
-0.00366125
-0.000557007
0.000217293
0.000112504
1.30518e-05
-3.58111e-06
-1.69337e-06
-1.72215e-07
2.25993e-08
1.03423e-08
1.25794e-09
1.25205e-10
2.81378e-11
8.86904e-14
-7.00042e-13
-1.96869e-13
-7.48832e-16
2.26275e-15
4.96335e-16
8.3813e-17
1.28352e-17
1.49211e-18
1.04916e-19
7.9507e-21
1.97171e-12
-6.47625e-12
7.42539e-12
6.77706e-10
-1.15102e-08
1.17606e-07
-9.12403e-07
5.90492e-06
-2.229e-05
3.15408e-05
0.00014998
-0.000767928
1.14888e-05
0.00677262
-0.003292
-0.045724
-0.0360304
0.170399
0.566789
0.900701
0.942645
0.700956
0.350975
0.0945272
-0.00490837
-0.00807806
-0.00300412
0.000223455
0.000394087
0.000126589
1.31068e-06
-4.76506e-06
-1.60499e-06
-5.52379e-08
1.6627e-08
5.12705e-09
5.13327e-10
2.13124e-10
5.2419e-11
-1.24638e-13
-9.1898e-13
-1.77237e-13
7.34881e-15
3.05447e-15
4.24624e-16
5.09371e-17
3.81571e-18
-6.52177e-19
-3.87981e-19
-9.3409e-20
3.40242e-11
-1.98094e-10
1.86285e-09
-1.36874e-08
8.0007e-08
-2.75014e-07
-1.98541e-07
7.84317e-06
-4.77111e-05
0.000138543
3.04511e-05
-0.00137079
0.00172566
0.00922092
-0.0128106
-0.0588721
-0.0184443
0.235489
0.628913
0.883927
0.817325
0.52203
0.20439
0.0214684
-0.0167912
-0.00886429
-0.000718597
0.00108852
0.000552904
8.7627e-05
-1.0419e-05
-5.84133e-06
-1.0121e-06
2.29439e-08
6.37223e-09
-2.71146e-10
3.31279e-10
3.22894e-10
7.31099e-11
-1.52546e-12
-1.26163e-12
-1.22083e-13
1.3265e-14
3.41163e-15
2.56466e-16
8.35561e-18
-5.29795e-18
-2.4611e-18
-7.79787e-19
-1.84694e-19
6.75682e-11
-4.48477e-10
5.04089e-09
-4.64756e-08
3.58713e-07
-1.82089e-06
6.15685e-06
-4.82552e-06
-6.12757e-05
0.000313904
-0.000404175
-0.00172756
0.00471029
0.00968251
-0.0254861
-0.0680401
0.00605925
0.28338
0.63573
0.763605
0.616651
0.319857
0.0758911
-0.0223286
-0.0171389
-0.00475996
0.00182622
0.00162734
0.000548871
2.67019e-05
-1.24245e-05
-5.14054e-06
-4.47549e-07
-1.37073e-08
-1.52846e-08
-3.77591e-09
6.41292e-10
4.37154e-10
6.48558e-11
-4.51627e-12
-1.59811e-12
-4.50529e-14
1.43395e-14
2.47872e-15
-2.07197e-18
-3.5394e-17
-1.21767e-17
-3.51062e-18
-1.02055e-18
-2.63791e-19
-1.05586e-09
1.98489e-09
-3.77205e-09
-4.78622e-08
5.72696e-07
-3.68106e-06
1.77685e-05
-4.58546e-05
2.00935e-06
0.000448856
-0.00116952
-0.00125681
0.00833467
0.00602272
-0.0390085
-0.0715021
0.0299845
0.303363
0.568186
0.579411
0.386167
0.139133
-0.0101574
-0.0312936
-0.0141588
0.0017522
0.00390736
0.0019248
0.000341275
-2.41802e-05
-1.26904e-05
-2.0997e-06
3.21184e-08
-5.78866e-08
-3.40423e-08
-3.98188e-09
1.14375e-09
4.63014e-10
2.26212e-11
-6.37337e-12
-1.50228e-12
2.69084e-14
1.41715e-14
-2.46531e-16
-2.99466e-16
-6.693e-17
-1.42511e-17
-3.55618e-18
-1.1201e-18
-3.39418e-19
-4.921e-09
9.98557e-09
-5.23926e-08
2.14801e-07
-3.61441e-07
-2.45391e-06
2.40559e-05
-0.000106675
0.000189482
0.000333426
-0.00199124
0.000434586
0.0111075
0.000389273
-0.0509914
-0.0700071
0.046712
0.288764
0.424431
0.367407
0.180133
0.0115628
-0.045389
-0.0254702
-0.00112507
0.00673636
0.0045568
0.00149234
9.83698e-05
-2.37353e-05
-7.87483e-06
-2.25922e-08
-2.57409e-08
-1.03304e-07
-4.03046e-08
-6.96526e-10
1.35832e-09
3.2133e-10
-1.71457e-11
-8.39979e-12
-4.80364e-13
8.11966e-14
3.79759e-15
-3.40829e-15
-5.18062e-16
-6.3031e-17
-1.00879e-17
-2.77143e-18
-1.1687e-18
-4.30528e-19
-4.74651e-09
1.01184e-08
-8.95127e-08
7.1817e-07
-4.0736e-06
1.18907e-05
-6.16388e-07
-0.000139806
0.000487872
-0.000232497
-0.00261557
0.00329474
0.0126468
-0.00691323
-0.0592085
-0.0654664
0.0521645
0.218185
0.260479
0.168755
0.0267232
-0.054692
-0.0435508
-0.0116459
0.00843324
0.00852749
0.0041175
0.000742161
-5.43155e-05
-1.4606e-05
3.5202e-06
1.44792e-06
-1.12639e-07
-1.60803e-07
-3.63754e-08
2.35378e-09
1.39826e-09
8.05437e-11
-3.19374e-11
-7.15937e-12
5.05715e-13
1.0569e-13
-2.07124e-14
-5.57398e-15
-3.57692e-16
-1.76843e-17
-1.67195e-18
-1.87281e-18
-1.31686e-18
-5.58287e-19
1.061e-07
-1.54776e-07
4.35758e-07
4.03062e-07
-8.4373e-06
3.84685e-05
-7.81105e-05
-5.73324e-05
0.000732433
-0.00113458
-0.00258705
0.00644859
0.013097
-0.0128624
-0.061266
-0.0573041
0.0385438
0.124212
0.107719
0.0209956
-0.0565296
-0.0630545
-0.027637
0.00472954
0.0118369
0.00754542
0.00217258
6.5866e-05
-3.2338e-05
2.28104e-06
7.22743e-06
1.35098e-06
-3.42146e-07
-1.70046e-07
-1.23624e-08
3.32952e-09
7.70567e-10
-1.03961e-10
-3.43518e-11
1.58547e-12
1.01396e-12
5.88758e-14
-3.3382e-14
-5.02158e-15
7.35612e-17
4.21476e-17
5.24458e-18
-1.89598e-18
-1.70015e-18
-7.31957e-19
4.11435e-07
-6.09169e-07
2.04217e-06
-3.62782e-06
-4.4351e-06
5.75687e-05
-0.000188264
0.000182179
0.000769673
-0.00222548
-0.00184075
0.00913206
0.0131905
-0.0154948
-0.0560014
-0.0455613
0.0092893
0.0322809
0.000179588
-0.0554802
-0.073601
-0.0435257
-0.00488582
0.0129535
0.0104164
0.00405628
0.000427637
-0.000153914
-7.50283e-06
2.60883e-05
8.72923e-06
-2.4857e-07
-5.13646e-07
-1.20629e-07
7.30527e-09
3.33789e-09
-1.68802e-10
-1.79455e-10
-2.70728e-11
4.69283e-12
1.01974e-12
-1.52898e-13
-4.02172e-14
1.18071e-15
5.00923e-16
7.57466e-17
3.79811e-18
-3.56753e-18
-2.33337e-18
-9.36354e-19
3.37117e-07
-1.15569e-06
3.99398e-06
-1.29399e-05
2.2356e-05
2.47537e-05
-0.000271421
0.000573583
0.000459011
-0.00325565
-0.000976808
0.01106
0.012773
-0.0148654
-0.0408515
-0.0331107
-0.0135153
-0.0204947
-0.0499924
-0.0695784
-0.0511101
-0.0144609
0.0107154
0.0123352
0.00574799
0.000688446
-0.000418646
-5.19389e-05
5.78825e-05
2.90409e-05
3.24482e-06
-1.33311e-06
-5.35241e-07
-1.43665e-08
1.33076e-08
2.60023e-09
-5.85209e-10
-1.74022e-10
1.48466e-11
5.29905e-12
-3.87189e-13
-2.26247e-13
-1.17692e-14
5.55637e-15
7.21293e-16
3.87286e-17
-8.4198e-18
-6.52609e-18
-3.04564e-18
-1.13273e-18
-2.42038e-06
-1.22501e-06
3.35969e-06
-2.36738e-05
7.19384e-05
-8.40195e-05
-0.000254058
0.000994907
-8.51438e-06
-0.00400858
-0.000489256
0.0113414
0.0118251
-0.00692428
-0.0208454
-0.0195402
-0.0218462
-0.0353411
-0.0505662
-0.0430924
-0.0163874
0.00760378
0.0126973
0.00622842
0.000300655
-0.00106503
-0.000312192
8.72108e-05
8.89992e-05
2.54134e-05
-1.98503e-06
-1.47032e-06
-2.23061e-07
4.02443e-08
1.06394e-08
-1.98432e-09
-7.93279e-10
-8.09393e-12
2.57411e-11
2.15503e-12
-1.3535e-12
-2.38957e-13
3.49609e-14
7.40926e-15
1.28081e-16
-5.72916e-17
-2.47602e-17
-9.18575e-18
-3.55441e-18
-1.28074e-18
-8.18396e-06
2.05562e-06
-5.93788e-06
-1.89154e-05
0.000119705
-0.00023802
-0.000131271
0.00133165
-0.000431095
-0.0043941
-0.000679108
0.00974369
0.0109905
0.00374095
-0.00144878
-0.00487614
-0.0129235
-0.0233653
-0.0232065
-0.0087255
0.00771473
0.0125141
0.00557277
-0.00104281
-0.00254536
-0.00108011
4.92106e-05
0.000199993
7.89928e-05
1.69832e-06
-3.68617e-06
-1.0139e-06
1.13449e-07
5.04675e-08
7.85544e-10
-2.53998e-09
-3.39153e-10
1.36667e-10
2.87299e-11
-4.39598e-12
-1.40892e-12
1.24375e-13
4.64858e-14
2.47391e-15
-5.94447e-16
-1.38338e-16
-3.26166e-17
-9.78079e-18
-3.68555e-18
-1.37118e-18
-6.06761e-06
1.39607e-05
-2.21874e-05
1.91458e-05
0.000131338
-0.000403083
5.09433e-05
0.00157363
-0.000643423
-0.00445591
-0.00161268
0.00647435
0.011254
0.0122855
0.0110995
0.0063044
0.000140053
-0.00223133
0.00317461
0.0111408
0.0127087
0.00501642
-0.00281073
-0.00481482
-0.00254373
-0.000250072
0.000325869
0.000171349
1.9259e-05
-9.81351e-06
-3.34647e-06
2.27037e-07
1.9843e-07
2.99601e-08
-8.25529e-09
-2.15078e-09
4.6633e-10
1.65835e-10
-6.15264e-13
-4.08641e-12
-7.9643e-15
3.10535e-13
4.57508e-14
-5.69391e-15
-9.8934e-16
-1.23629e-16
-2.41362e-17
-8.10942e-18
-3.58285e-18
-1.4397e-18
2.89678e-05
3.8798e-05
-3.75413e-05
8.43586e-05
9.62762e-05
-0.000549327
0.000249684
0.00171152
-0.00066655
-0.00432808
-0.0028451
0.00376205
0.0111052
0.0153839
0.014511
0.0106297
0.00762306
0.00926787
0.0128955
0.0124072
0.00489259
-0.00392675
-0.00671536
-0.00412907
-0.000799404
0.000449137
0.000291896
4.97485e-05
-2.33941e-05
-9.30979e-06
-5.74481e-08
6.98217e-07
1.83183e-07
-1.82708e-08
-6.43558e-09
1.09776e-09
6.30113e-10
7.38902e-11
-1.63364e-11
-9.86395e-13
1.6244e-12
3.42809e-13
-2.88342e-14
-7.60459e-15
-4.37955e-16
-1.47392e-17
-6.62346e-18
-6.32852e-18
-3.663e-18
-1.5335e-18
7.76702e-05
4.6803e-05
-5.95736e-05
0.000143198
2.16641e-05
-0.000642472
0.000425173
0.00172522
-0.000691286
-0.00415145
-0.00319858
0.00292908
0.0102225
0.0128507
0.0103463
0.00701061
0.00702154
0.0089657
0.0091015
0.00408462
-0.00343924
-0.00678304
-0.00471915
-0.00115459
0.000581367
0.000440589
8e-05
-5.45646e-05
-2.46578e-05
-1.71793e-06
2.14179e-06
6.68961e-07
-4.27992e-08
-3.18067e-08
-3.40987e-09
1.59877e-09
3.2176e-10
-8.9346e-11
-1.70038e-11
4.17451e-12
1.55795e-12
-3.61295e-14
-4.06774e-14
-4.819e-15
4.93103e-16
9.08765e-17
1.18319e-18
-7.40309e-18
-4.22521e-18
-1.64144e-18
2.75256e-05
-4.64153e-05
-0.000112838
0.000174564
-7.80487e-05
-0.000621326
0.000559459
0.00129151
-0.00103704
-0.00335712
-0.00150518
0.00407955
0.00790041
0.00642349
0.00229223
0.000123246
0.000949381
0.00259933
0.0017272
-0.00191863
-0.00459178
-0.00338638
-0.000627757
0.000880194
0.000606205
5.98889e-05
-0.000129769
-6.32747e-05
-6.24666e-06
5.72698e-06
2.04407e-06
-4.17985e-08
-1.26572e-07
-2.6871e-08
3.30068e-09
7.25256e-10
-3.62766e-10
-1.23376e-10
-2.5218e-12
2.61038e-12
3.01558e-14
-2.55863e-13
-3.86032e-14
6.53521e-15
1.08056e-15
7.0866e-17
-1.55058e-17
-1.20641e-17
-5.0009e-18
-1.65101e-18
-0.000109696
-0.000188557
-0.000138613
0.000223954
-0.000117748
-0.000458605
0.000425453
0.000318477
-0.00140462
-0.000951273
0.00255799
0.00580391
0.00460127
0.000346597
-0.0035282
-0.00431822
-0.0030827
-0.00150031
-0.00126963
-0.00169042
-0.000671601
0.000952891
0.00153744
0.000812505
-3.81018e-05
-0.000266265
-0.000136568
-1.54373e-05
1.29639e-05
5.20207e-06
1.09221e-07
-4.23579e-07
-1.17672e-07
6.77057e-09
2.68353e-09
-5.41361e-10
-3.81323e-10
-5.14991e-11
9.63315e-12
4.26416e-14
-1.27114e-12
-2.45238e-13
3.24321e-14
8.23967e-15
3.39759e-16
-8.74667e-17
-4.68754e-17
-1.67522e-17
-5.12608e-18
-1.40079e-18
-0.000125827
-0.000178622
4.50017e-05
0.000379233
-4.80881e-05
-0.000365165
-0.000310182
-0.000797278
-0.000258343
0.00307828
0.00641485
0.0056619
0.00162547
-0.00242234
-0.00423029
-0.0043822
-0.00354593
-0.00202319
-0.000342874
0.00137698
0.00250412
0.00231253
0.00103779
-0.000156406
-0.000451945
-0.000241476
-2.70979e-05
2.8108e-05
1.25988e-05
7.61394e-07
-1.12961e-06
-3.27562e-07
2.40346e-08
1.73908e-08
2.21898e-09
-7.68027e-10
-1.35885e-10
6.18495e-11
1.07866e-11
-2.04799e-12
-6.24063e-13
9.65563e-14
3.5817e-14
2.35063e-15
-8.91674e-16
-2.46724e-16
-6.41311e-17
-1.61912e-17
-3.83229e-18
-8.25416e-19
0.000252452
0.000225964
0.000431138
0.000481774
-9.97867e-05
-0.00103795
-0.00144787
-0.000835016
0.00269195
0.00703811
0.00698611
0.00345111
-0.00031242
-0.00177188
-0.00190823
-0.00278607
-0.00302678
-0.00188476
0.000390861
0.00226585
0.00229313
0.00105377
-0.000217093
-0.000563853
-0.00029935
-1.81942e-05
5.58895e-05
2.48473e-05
1.07651e-06
-2.75942e-06
-7.66007e-07
9.49145e-08
7.40159e-08
1.37078e-08
-1.3822e-09
-4.32444e-11
2.82398e-10
7.91602e-11
1.62513e-12
-2.98748e-13
3.41699e-13
1.67839e-13
9.52893e-15
-7.92852e-15
-1.58578e-15
-2.32247e-16
-4.5528e-17
-8.5675e-18
-1.28536e-18
-6.90169e-20
0.000678427
0.000465193
0.00026185
-0.000507411
-0.00155206
-0.00205944
-0.00130486
0.00207555
0.00641276
0.00756429
0.00431161
0.000347184
-0.000732829
0.000307108
-0.000431848
-0.00301234
-0.00488666
-0.00395667
-0.0012426
0.000513995
0.000458127
-0.000218985
-0.000474517
-0.00021439
4.81321e-05
9.87449e-05
3.86388e-05
-1.30768e-06
-6.53478e-06
-1.88715e-06
1.95561e-07
2.09346e-07
4.65381e-08
-4.52536e-09
-6.50864e-10
5.68872e-10
2.65081e-10
2.36722e-11
-3.22496e-12
6.34175e-13
5.77139e-13
4.47553e-14
-3.62823e-14
-8.29736e-15
-6.14206e-16
-6.45431e-17
-5.40001e-18
1.73337e-18
1.31012e-18
5.67452e-19
-0.00236894
-0.00249375
-0.00266212
-0.0027519
-0.00231638
-0.000322706
0.00321748
0.00640959
0.00742009
0.00428539
8.44968e-05
-0.0013461
2.57137e-05
0.00055299
-0.00322952
-0.00813433
-0.00994911
-0.00774796
-0.00389799
-0.0012681
-0.00043913
-0.000232879
2.59141e-05
0.000181883
0.000151889
4.77397e-05
-1.03269e-05
-1.38154e-05
-3.96151e-06
4.7801e-07
4.87115e-07
9.14173e-08
-2.65444e-08
-8.17631e-09
7.7921e-11
4.91156e-10
6.03193e-11
-3.21395e-11
-3.46067e-12
8.72374e-13
8.65877e-14
-1.09635e-13
-2.96715e-14
-1.33193e-15
2.48084e-16
7.88565e-17
2.579e-17
8.39621e-18
2.67959e-18
8.38748e-19
-0.00341999
-0.00294573
-0.00188188
0.000108009
0.0028831
0.00558712
0.00728152
0.00688501
0.00341611
-0.000328065
-0.00151107
-0.000628207
-0.000278987
-0.00544508
-0.0131737
-0.0173137
-0.0160362
-0.0108212
-0.0051425
-0.00152722
-9.30541e-05
0.000292221
0.000319944
0.000190906
3.63898e-05
-3.04422e-05
-2.33756e-05
-5.50281e-06
1.70811e-06
1.12807e-06
1.72263e-07
-8.10673e-08
-2.98926e-08
-1.95914e-09
9.67516e-10
-1.66896e-11
-1.83811e-10
-4.19436e-11
2.61788e-13
6.49288e-15
-2.00818e-13
-6.59194e-14
-1.62506e-15
2.09494e-15
5.086e-16
1.16724e-16
3.09906e-17
8.66371e-18
2.48762e-18
7.30468e-19
0.00539503
0.00589806
0.00666733
0.00742332
0.00758147
0.0068801
0.00460903
0.0010991
-0.00173424
-0.00119901
0.00100124
0.000351168
-0.0086107
-0.0216152
-0.0302589
-0.0293569
-0.0220219
-0.0124423
-0.00487724
-0.000861222
0.000324439
0.000343071
0.000172187
2.71771e-07
-5.69723e-05
-3.32806e-05
-4.94724e-06
4.17971e-06
2.23136e-06
2.85579e-07
-1.78278e-07
-6.24502e-08
-1.23649e-09
3.92169e-09
2.72652e-10
-4.31015e-10
-1.35088e-10
-1.12998e-12
2.61786e-12
2.17785e-13
-6.96922e-14
-2.95219e-15
7.8679e-15
1.78221e-15
2.8048e-16
6.62719e-17
1.77488e-17
4.96587e-18
1.4415e-18
4.35185e-19
0.00433792
0.00441441
0.00422724
0.00350249
0.00226372
0.00058117
-0.00116869
-0.00245282
-0.00182531
0.00292431
0.00360376
-0.00815291
-0.0301577
-0.0496399
-0.053764
-0.043983
-0.0274772
-0.0129444
-0.00393056
-0.000259874
0.000185924
8.78044e-05
-4.17421e-05
-7.0835e-05
-3.33116e-05
4.62089e-07
8.47845e-06
3.722e-06
1.43328e-07
-4.75745e-07
-1.55192e-07
3.91453e-09
1.33978e-08
2.7552e-09
-5.30459e-10
-1.74469e-10
2.49449e-11
2.05746e-11
3.7421e-12
-5.20359e-14
2.49669e-14
2.13215e-14
3.51209e-15
1.66179e-16
3.77267e-17
1.14635e-17
3.68848e-18
1.27803e-18
4.60921e-19
1.68485e-19
0.000690906
0.000571432
0.000237413
-0.000343271
-0.000920821
-0.00115321
-0.00127573
-0.00143247
0.00224849
0.00625802
-0.00300201
-0.0330691
-0.0700203
-0.088568
-0.082186
-0.0576749
-0.030867
-0.0121967
-0.00272438
-4.80513e-05
-3.51749e-05
-6.95341e-05
-5.57999e-05
-1.31734e-05
1.32293e-05
1.32878e-05
4.37034e-06
-6.11777e-07
-9.77835e-07
-2.71375e-07
3.29197e-08
3.11267e-08
5.50931e-09
-1.51487e-09
-4.06305e-10
9.48638e-11
7.28537e-11
1.63061e-11
-3.74527e-13
-2.25323e-14
2.33128e-14
4.1144e-17
-1.48223e-15
-3.19261e-16
-6.80562e-17
-1.53034e-17
-3.17036e-18
-5.24388e-19
-3.21438e-20
2.64204e-20
-0.000478014
-0.000527807
-0.000637497
-0.000668365
-0.000717581
0.000184942
2.68077e-05
-0.000296271
0.00447023
-0.00284321
-0.0337019
-0.0840684
-0.128544
-0.133559
-0.106956
-0.0655915
-0.0310909
-0.010089
-0.00135082
-3.59606e-05
-3.6356e-05
-1.51136e-05
1.36223e-05
2.43876e-05
1.50865e-05
2.78445e-06
-2.09883e-06
-1.44965e-06
-2.83378e-07
1.16722e-07
6.27996e-08
8.6399e-09
-3.63704e-09
-8.97714e-10
1.41083e-10
1.12026e-10
1.74896e-11
-6.40716e-12
-1.52063e-12
-1.78071e-13
-2.70686e-14
-6.68899e-15
-1.17237e-15
-2.51307e-16
-6.33374e-17
-1.53574e-17
-3.47128e-18
-7.14469e-19
-1.24274e-19
-1.31469e-20
-0.000113289
-4.28962e-05
-0.000118904
0.000220473
-0.000310623
0.00276536
0.000919987
-0.000134193
-0.0252772
-0.0626063
-0.112011
-0.165216
-0.191999
-0.17367
-0.120766
-0.0659352
-0.0263414
-0.00660342
-0.000325912
3.3498e-05
3.07163e-05
3.14272e-05
2.42929e-05
9.74575e-06
-1.53956e-06
-4.12178e-06
-1.90638e-06
-8.24847e-08
2.92095e-07
1.13611e-07
4.1183e-09
-1.11388e-08
-3.11342e-09
-1.92812e-11
9.16261e-11
-2.14481e-11
-2.95395e-11
-6.85821e-12
-2.82512e-13
9.05433e-14
1.38803e-15
-4.59449e-15
-9.23407e-16
-1.45941e-16
-3.20605e-17
-7.48861e-18
-1.69964e-18
-3.61711e-19
-6.85247e-20
-1.00134e-20
-3.60898e-05
0.000264475
-0.00024053
0.000741052
-0.00107967
0.00762692
-0.0197544
-0.10732
-0.184757
-0.227435
-0.251711
-0.26381
-0.246479
-0.190842
-0.119038
-0.0558129
-0.0189877
-0.00345685
6.40024e-05
3.55337e-05
2.13997e-05
1.22313e-05
6.56911e-07
-5.81095e-06
-4.67985e-06
-1.45451e-06
3.35722e-07
4.58017e-07
1.37692e-07
-1.72709e-08
-2.19405e-08
-5.57037e-09
4.35285e-10
2.17488e-10
-3.15487e-11
-4.85124e-11
-1.0818e-11
1.72072e-12
6.56576e-13
8.89257e-14
-1.05636e-15
3.74479e-16
1.3745e-18
-1.86258e-17
-6.20051e-18
-1.58258e-18
-3.63437e-19
-7.69113e-20
-1.41815e-20
-1.72954e-21
-0.000379963
0.000625962
-0.00129312
8.34012e-05
-0.0171574
-0.125998
-0.324726
-0.504713
-0.565021
-0.514359
-0.427814
-0.348902
-0.268472
-0.1797
-0.0967815
-0.0399934
-0.0118192
-0.00146894
-5.67086e-06
1.76047e-06
-1.31775e-07
-4.65027e-06
-5.71459e-06
-3.00409e-06
-8.53828e-08
8.99833e-07
4.98423e-07
6.08334e-08
-6.54797e-08
-3.053e-08
-2.36144e-09
3.14463e-09
1.08371e-09
6.36133e-11
-1.9096e-11
9.11892e-12
1.04544e-11
2.62725e-12
1.1901e-13
-4.16558e-14
-4.37929e-15
3.82591e-16
1.0107e-16
1.94257e-17
3.88795e-18
8.37412e-19
1.7968e-19
3.65021e-20
7.21341e-21
1.61396e-21
-0.0169773
-0.0790653
-0.222902
-0.422596
-0.630562
-0.902433
-1.19851
-1.30548
-1.15291
-0.853172
-0.575278
-0.383651
-0.250327
-0.145509
-0.0693219
-0.0254832
-0.00662909
-0.000595266
-1.60801e-06
-2.70313e-06
-3.61083e-06
-2.60447e-06
-4.56103e-07
9.0108e-07
8.94959e-07
3.3733e-07
-3.28304e-08
-9.00436e-08
-3.19408e-08
9.83866e-10
4.44544e-09