/*--------------------------------*- C++ -*----------------------------------*\
| =========                 |                                                 |
| \\      /  F ield         | OpenFOAM: The Open Source CFD Toolbox           |
|  \\    /   O peration     | Version:  v2006                                 |
|   \\  /    A nd           | Website:  www.openfoam.com                      |
|    \\/     M anipulation  |                                                 |
\*---------------------------------------------------------------------------*/
FoamFile
{
    version     2.0;
    format      ascii;
    class       surfaceScalarField;
    location    "2";
    object      alphaPhi0.water;
}
// * * * * * * * * * * * * * * * * * * * * * * * * * * * * * * * * * * * * * //

dimensions      [0 3 -1 0 0 0 0];
oriented        oriented;


internalField   nonuniform List<scalar> 
104500
(
-1.75225e-05
1.75225e-05
-3.50987e-05
1.75762e-05
-5.26482e-05
1.75495e-05
-7.01579e-05
1.75097e-05
-8.7614e-05
1.74561e-05
-0.000105003
1.73889e-05
-0.000122311
1.73081e-05
-0.000139525
1.72138e-05
-0.000156631
1.7106e-05
-0.000173616
1.69849e-05
-0.000190466
1.68504e-05
-0.000207169
1.67026e-05
-0.00022371
1.65416e-05
-0.000240078
1.63674e-05
-0.000256258
1.61802e-05
-0.000272238
1.59799e-05
-0.000288004
1.57667e-05
-0.000303545
1.55406e-05
-0.000318847
1.53018e-05
-0.000333897
1.50502e-05
-0.000348683
1.47861e-05
-0.000363193
1.45096e-05
-0.000377413
1.42206e-05
-0.000391333
1.39195e-05
-0.000404939
1.36062e-05
-0.00041822
1.32809e-05
-0.000431163
1.29437e-05
-0.000443758
1.25949e-05
-0.000455993
1.22344e-05
-0.000467855
1.18625e-05
-0.000479335
1.14794e-05
-0.00049042
1.10852e-05
-0.0005011
1.06801e-05
-0.000511364
1.02642e-05
-0.000521202
9.83769e-06
-0.000530603
9.40085e-06
-0.000539556
8.95383e-06
-0.000548053
8.49683e-06
-0.000556083
8.03006e-06
-0.000563637
7.55374e-06
-0.000570705
7.06809e-06
-0.000577279
6.57334e-06
-0.000583348
6.06972e-06
-0.000588906
5.55747e-06
-0.000593943
5.03686e-06
-0.000598451
4.50816e-06
-0.000602422
3.97169e-06
-0.00060585
3.42785e-06
-0.000608728
2.8773e-06
-0.000611049
2.32094e-06
-0.000612807
1.75827e-06
-0.000613996
1.18894e-06
-0.000614608
6.12277e-07
-0.000614629
2.13735e-08
-0.000614051
-5.78249e-07
-0.000612875
-1.17638e-06
-0.000611092
-1.78271e-06
-0.000608703
-2.389e-06
-0.000605704
-2.99913e-06
-0.000602089
-3.61503e-06
-0.000597849
-4.23998e-06
-0.000592984
-4.86468e-06
-0.000587489
-5.49546e-06
-0.000581359
-6.12938e-06
-0.000574594
-6.76576e-06
-0.000567187
-7.40622e-06
-0.000559139
-8.04829e-06
-0.000550445
-8.69398e-06
-0.000541104
-9.34119e-06
-0.000531114
-9.99014e-06
-0.000520473
-1.06404e-05
-0.000509181
-1.12928e-05
-0.000497235
-1.19459e-05
-0.000484636
-1.25989e-05
-0.000471385
-1.32504e-05
-0.000457486
-1.3899e-05
-0.000442943
-1.45432e-05
-0.000427762
-1.5181e-05
-0.000411951
-1.58112e-05
-0.000395518
-1.64327e-05
-0.000378473
-1.7045e-05
-0.000360826
-1.76475e-05
-0.000342586
-1.82402e-05
-0.000323763
-1.88228e-05
-0.000304368
-1.9395e-05
-0.000284411
-1.99566e-05
-0.000263904
-2.05073e-05
-0.000242857
-2.10465e-05
-0.000221284
-2.15739e-05
-0.000199195
-2.2089e-05
-0.000176603
-2.25915e-05
-0.000153522
-2.3081e-05
-0.000129965
-2.35571e-05
-0.000105946
-2.40192e-05
-8.14788e-05
-2.4467e-05
-5.6579e-05
-2.48998e-05
-3.12616e-05
-2.53174e-05
-5.54247e-06
-2.57191e-05
2.05622e-05
-2.61047e-05
4.70363e-05
-2.64741e-05
7.38631e-05
-2.68268e-05
0.000101026
-2.71632e-05
0.000128508
-2.74813e-05
0.000156288
-2.77803e-05
0.000184348
-2.80603e-05
0.00021267
-2.83214e-05
0.000241233
-2.85633e-05
0.000270019
-2.87862e-05
0.000299007
-2.89874e-05
0.000328174
-2.91673e-05
0.000357502
-2.9328e-05
0.000386969
-2.94671e-05
0.000416554
-2.95847e-05
0.000446234
-2.96804e-05
0.000475987
-2.97529e-05
0.000505789
-2.98022e-05
0.000535618
-2.98291e-05
0.000565451
-2.98326e-05
0.000595264
-2.98127e-05
0.000625034
-2.97707e-05
0.000654737
-2.97022e-05
0.000684347
-2.96099e-05
0.000713839
-2.94927e-05
0.00074319
-2.93509e-05
0.000772374
-2.91841e-05
0.000801368
-2.89933e-05
0.000830136
-2.87685e-05
0.000858661
-2.85253e-05
0.000886916
-2.82552e-05
0.000914875
-2.79588e-05
0.00094251
-2.76352e-05
0.000969795
-2.72846e-05
0.000996702
-2.69067e-05
0.0010232
-2.65028e-05
0.00104928
-2.60798e-05
0.0010749
-2.56137e-05
0.00110003
-2.51298e-05
0.00112465
-2.46178e-05
0.00114872
-2.4079e-05
0.00117224
-2.35111e-05
0.00119515
-2.29164e-05
0.00121745
-2.22933e-05
0.00123909
-2.16439e-05
0.00126006
-2.09669e-05
0.00128032
-2.02634e-05
0.00129985
-1.95295e-05
0.00131862
-1.877e-05
0.0013366
-1.79826e-05
0.00135377
-1.71689e-05
0.0013701
-1.63271e-05
0.00138556
-1.54579e-05
0.00140012
-1.45621e-05
0.00141376
-1.36393e-05
0.00142645
-1.26901e-05
0.00143816
-1.17145e-05
0.00144887
-1.07129e-05
0.00145856
-9.68521e-06
0.00146719
-8.63216e-06
0.00147475
-7.55382e-06
0.0014812
-6.4502e-06
0.00148652
-5.32211e-06
0.00149069
-4.1694e-06
0.00149368
-2.99156e-06
0.00149546
-1.78569e-06
0.00149601
-5.42982e-07
0.00149525
7.57293e-07
0.00149322
2.03346e-06
0.00148987
3.34409e-06
0.00148518
4.6962e-06
0.00147911
6.06357e-06
0.00147166
7.45347e-06
0.0014628
8.86057e-06
0.00145251
1.02908e-05
0.00144078
1.17321e-05
0.00142759
1.319e-05
0.00141292
1.46618e-05
0.00139678
1.61461e-05
0.00137914
1.76386e-05
0.00136
1.9143e-05
0.00133934
2.06563e-05
0.00131715
2.21877e-05
0.0012934
2.37535e-05
0.00126805
2.53516e-05
0.00124113
2.69218e-05
0.00121282
2.83081e-05
0.00118352
2.93009e-05
0.00115374
2.97789e-05
0.00112388
2.9855e-05
0.00109403
2.98523e-05
0.00106394
3.00941e-05
0.00103322
3.07126e-05
0.00100158
3.16462e-05
0.000968817
3.27602e-05
0.000934858
3.39592e-05
0.000899657
3.52002e-05
0.000863197
3.64607e-05
0.000825471
3.7726e-05
0.000786487
3.89841e-05
0.000746264
4.02221e-05
0.000704837
4.1427e-05
0.000662247
4.25901e-05
0.000618538
4.37096e-05
0.000573749
4.47889e-05
0.000527913
4.58355e-05
0.000481058
4.6855e-05
0.000433211
4.78476e-05
0.000384398
4.88127e-05
0.000334651
4.97474e-05
0.000283997
5.06533e-05
0.000232467
5.15307e-05
0.000180089
5.23772e-05
0.000126897
5.31923e-05
7.29203e-05
5.39768e-05
1.81924e-05
5.4728e-05
-3.72582e-05
5.54505e-05
-9.33986e-05
5.61404e-05
-0.000150193
5.67948e-05
-0.000207615
5.74218e-05
-0.000265631
5.80157e-05
-0.000324203
5.85717e-05
-0.000383305
5.91026e-05
-0.00044289
5.95846e-05
-0.000502923
6.00337e-05
-0.000563388
6.04648e-05
-0.000624245
6.08567e-05
-0.000685457
6.12124e-05
-0.000746994
6.15368e-05
-0.000808822
6.18281e-05
-0.000870909
6.20869e-05
-0.000933223
6.23143e-05
-0.000995733
6.25099e-05
-0.00105841
6.26721e-05
-0.00112121
6.28039e-05
-0.00118412
6.29079e-05
-0.0012471
6.29784e-05
-0.00131011
6.30192e-05
-0.00137315
6.30304e-05
-0.00143616
6.30115e-05
-0.00149912
6.29627e-05
-0.001562
6.2884e-05
-0.00162478
6.27754e-05
-0.00168742
6.26369e-05
-0.00174988
6.24684e-05
-0.00181215
6.22699e-05
-0.0018742
6.2041e-05
-0.00193598
6.17816e-05
-0.00199747
6.14915e-05
-0.00205864
6.11702e-05
-0.00211946
6.08172e-05
-0.00217989
6.04318e-05
-0.0022399
6.00136e-05
-0.00229946
5.9562e-05
-0.00235854
5.90761e-05
-0.00241709
5.85553e-05
-0.00247509
5.79988e-05
-0.0025325
5.74055e-05
-0.00258927
5.67748e-05
-0.00264538
5.61056e-05
-0.00270078
5.53969e-05
-0.00275542
5.46474e-05
-0.00280928
5.38562e-05
-0.0028623
5.30225e-05
-0.00291445
5.21457e-05
-0.00296567
5.12262e-05
-0.00301594
5.02661e-05
-0.0030652
4.92639e-05
-0.00311341
4.82106e-05
-0.00316052
4.71037e-05
-0.00320646
4.59439e-05
-0.00325119
4.47316e-05
-0.00329466
4.34667e-05
-0.00333681
4.21486e-05
-0.00337759
4.07765e-05
-0.00341694
3.93497e-05
-0.0034548
3.78676e-05
-0.00349113
3.63293e-05
-0.00352587
3.47344e-05
-0.00355895
3.30822e-05
-0.00359032
3.13725e-05
-0.00361993
2.96049e-05
-0.00364771
2.7779e-05
-0.0036736
2.58942e-05
-0.00369755
2.39496e-05
-0.00371949
2.19436e-05
-0.00373937
1.98735e-05
-0.0037571
1.77339e-05
-0.00377261
1.55057e-05
-0.00378574
1.31346e-05
-0.00379624
1.05025e-05
-0.00380365
7.40791e-06
-0.00380732
3.66487e-06
-0.00380678
-5.33848e-07
-0.00380262
-4.15792e-06
-0.00379526
-7.36423e-06
-0.003785
-1.02563e-05
-0.00377201
-1.29913e-05
-0.00375639
-1.56251e-05
-0.0037382
-1.81893e-05
-0.00371749
-2.07095e-05
-0.00369429
-2.32014e-05
-0.00366861
-2.56737e-05
-0.00364048
-2.81308e-05
-0.00360991
-3.0574e-05
-0.00357691
-3.30027e-05
-0.00354149
-3.54159e-05
-0.00350368
-3.78129e-05
-0.00346348
-4.01929e-05
-0.00342093
-4.25556e-05
-0.00337603
-4.49003e-05
-0.0033288
-4.7226e-05
-0.00327927
-4.95314e-05
-0.00322746
-5.18146e-05
-0.00317338
-5.40737e-05
-0.00311708
-5.63065e-05
-0.00305857
-5.85106e-05
-0.00299788
-6.06835e-05
-0.00293506
-6.28228e-05
-0.00287013
-6.49259e-05
-0.00280314
-6.69903e-05
-0.00273413
-6.90138e-05
-0.00266313
-7.09942e-05
-0.00259021
-7.29291e-05
-0.00251539
-7.48166e-05
-0.00243873
-7.66547e-05
-0.00236029
-7.84413e-05
-0.00228012
-8.01748e-05
-0.00219826
-8.18531e-05
-0.00211479
-8.34747e-05
-0.00202975
-8.50379e-05
-0.00194321
-8.65412e-05
-0.00185523
-8.7983e-05
-0.00176587
-8.93619e-05
-0.00167519
-9.06766e-05
-0.00158326
-9.19258e-05
-0.00149016
-9.31082e-05
-0.00139593
-9.42225e-05
-0.00130067
-9.52679e-05
-0.00120442
-9.62432e-05
-0.00110727
-9.71475e-05
-0.00100929
-9.798e-05
-0.000910554
-9.87401e-05
-0.000811126
-9.94281e-05
-0.000711083
-0.000100043
-0.000610511
-0.000100572
-0.000509537
-0.000100974
-0.000408295
-0.000101242
-0.000306425
-0.00010187
-0.000201651
-0.000104774
-9.1255e-05
-0.000110396
-9.1255e-05
-2.12391e-05
3.87616e-05
-4.25403e-05
3.88775e-05
-6.38075e-05
3.88167e-05
-8.50273e-05
3.87295e-05
-0.000106185
3.86136e-05
-0.000127265
3.8469e-05
-0.000148252
3.82957e-05
-0.000169132
3.80937e-05
-0.000189889
3.7863e-05
-0.000210508
3.76038e-05
-0.000230974
3.73161e-05
-0.000251272
3.70001e-05
-0.000271386
3.66559e-05
-0.000291302
3.62836e-05
-0.000311005
3.58834e-05
-0.000330481
3.54555e-05
-0.000349714
3.5e-05
-0.000368691
3.45172e-05
-0.000387396
3.40072e-05
-0.000405817
3.34703e-05
-0.000423937
3.29068e-05
-0.000441744
3.23168e-05
-0.000459224
3.17006e-05
-0.000476363
3.10585e-05
-0.000493148
3.03909e-05
-0.000509565
2.96979e-05
-0.000525601
2.898e-05
-0.000541244
2.82374e-05
-0.00055648
2.74705e-05
-0.000571297
2.66797e-05
-0.000585683
2.58654e-05
-0.000599626
2.50279e-05
-0.000613113
2.41676e-05
-0.000626134
2.3285e-05
-0.000638677
2.23806e-05
-0.000650731
2.14546e-05
-0.000662285
2.05078e-05
-0.000673329
1.95404e-05
-0.000683851
1.8553e-05
-0.000693844
1.75462e-05
-0.000703296
1.65205e-05
-0.000712199
1.54763e-05
-0.000720544
1.44143e-05
-0.000728322
1.33351e-05
-0.000735524
1.22393e-05
-0.000742143
1.11274e-05
-0.000748172
1.00002e-05
-0.000753602
8.85833e-06
-0.000758427
7.7025e-06
-0.00076264
6.53336e-06
-0.000766233
5.35143e-06
-0.000769201
4.15723e-06
-0.00077154
2.95145e-06
-0.000773254
1.735e-06
-0.00077434
5.07865e-07
-0.000774768
-7.48487e-07
-0.000774561
-1.98977e-06
-0.00077371
-3.23962e-06
-0.000772214
-4.49545e-06
-0.000770067
-5.76187e-06
-0.000767273
-7.03441e-06
-0.000763822
-8.31548e-06
-0.000759725
-9.59237e-06
-0.000754977
-1.08773e-05
-0.000749579
-1.21642e-05
-0.000743533
-1.34524e-05
-0.000736843
-1.47376e-05
-0.000729512
-1.60254e-05
-0.000721544
-1.73094e-05
-0.00071294
-1.85934e-05
-0.000703708
-1.9873e-05
-0.000693852
-2.11485e-05
-0.000683379
-2.2419e-05
-0.000672295
-2.36833e-05
-0.000660605
-2.49405e-05
-0.000648313
-2.61905e-05
-0.000635426
-2.74307e-05
-0.000621945
-2.86611e-05
-0.000607877
-2.98799e-05
-0.000593223
-3.10862e-05
-0.000577989
-3.22789e-05
-0.00056218
-3.3457e-05
-0.0005458
-3.46196e-05
-0.000528858
-3.57655e-05
-0.000511359
-3.68939e-05
-0.000493312
-3.80037e-05
-0.000474725
-3.90941e-05
-0.000455607
-4.01641e-05
-0.000435969
-4.12126e-05
-0.000415819
-4.22388e-05
-0.000395168
-4.32418e-05
-0.000374029
-4.42206e-05
-0.000352412
-4.51741e-05
-0.00033033
-4.61014e-05
-0.000307795
-4.70017e-05
-0.000284821
-4.78741e-05
-0.00026142
-4.87177e-05
-0.000237608
-4.95315e-05
-0.000213398
-5.03148e-05
-0.000188805
-5.10667e-05
-0.000163846
-5.17863e-05
-0.000138536
-5.2473e-05
-0.000112892
-5.31257e-05
-8.69283e-05
-5.37435e-05
-6.06642e-05
-5.43244e-05
-3.41168e-05
-5.48688e-05
-7.3044e-06
-5.53757e-05
1.97539e-05
-5.58445e-05
4.70432e-05
-5.62767e-05
7.45436e-05
-5.66677e-05
0.000102235
-5.70196e-05
0.000130098
-5.73304e-05
0.000158113
-5.75994e-05
0.000186258
-5.78256e-05
0.000214516
-5.80109e-05
0.000242865
-5.8151e-05
0.000271279
-5.82426e-05
0.000299742
-5.82962e-05
0.000328232
-5.8303e-05
0.000356725
-5.82631e-05
0.000385201
-5.81781e-05
0.000413638
-5.80472e-05
0.000442013
-5.78677e-05
0.000470302
-5.76396e-05
0.000498482
-5.73646e-05
0.000526527
-5.70383e-05
0.000554431
-5.66725e-05
0.000582157
-5.62512e-05
0.000609681
-5.57791e-05
0.000636981
-5.52587e-05
0.000664035
-5.46892e-05
0.000690815
-5.4065e-05
0.000717305
-5.33963e-05
0.000743477
-5.26749e-05
0.000769299
-5.19016e-05
0.000794774
-5.10888e-05
0.000819857
-5.02132e-05
0.000844529
-4.92891e-05
0.000868766
-4.83164e-05
0.000892544
-4.7289e-05
0.00091584
-4.62129e-05
0.000938638
-4.50909e-05
0.00096091
-4.39156e-05
0.000982632
-4.26888e-05
0.00100378
-4.14119e-05
0.00102434
-4.00899e-05
0.00104428
-3.87111e-05
0.00106358
-3.72858e-05
0.00108223
-3.58135e-05
0.00110019
-3.42925e-05
0.00111746
-3.27228e-05
0.001134
-3.11052e-05
0.0011498
-2.9441e-05
0.00116485
-2.77307e-05
0.00117911
-2.5975e-05
0.00119257
-2.4174e-05
0.00120521
-2.23288e-05
0.00121702
-2.04399e-05
0.00122797
-1.85083e-05
0.00123806
-1.65353e-05
0.00124726
-1.45199e-05
0.00125555
-1.24637e-05
0.00126293
-1.03675e-05
0.00126937
-8.23017e-06
0.00127488
-6.0557e-06
0.00127949
-3.84776e-06
0.00128314
-1.6183e-06
0.00128585
6.34684e-07
0.00128762
2.92984e-06
0.00128842
5.25649e-06
0.00128826
7.61246e-06
0.00128713
9.99544e-06
0.00128501
1.24094e-05
0.0012819
1.4844e-05
0.00127779
1.73002e-05
0.00127267
1.97835e-05
0.00126653
2.22863e-05
0.00125936
2.48058e-05
0.00125116
2.73421e-05
0.00124192
2.98975e-05
0.00123164
3.24617e-05
0.00122036
3.50386e-05
0.00120808
3.76319e-05
0.00119476
4.02387e-05
0.00118022
4.28514e-05
0.00116406
4.54621e-05
0.00114579
4.80511e-05
0.00112503
5.06067e-05
0.00110175
5.31375e-05
0.00107618
5.56582e-05
0.00104871
5.8184e-05
0.00101964
6.07185e-05
0.000989144
6.32572e-05
0.000957307
6.57962e-05
0.000924177
6.83301e-05
0.000889786
7.08518e-05
0.000854152
7.33605e-05
0.000817283
7.5853e-05
0.000779181
7.83238e-05
0.000739837
8.07711e-05
0.000699234
8.31931e-05
0.000657357
8.55863e-05
0.000614199
8.79469e-05
0.00056976
9.02752e-05
0.000524047
9.25677e-05
0.000477071
9.48235e-05
0.000428845
9.70387e-05
0.000379381
9.92115e-05
0.000328692
0.000101342
0.000276797
0.000103426
0.000223711
0.000105463
0.000169454
0.000107449
0.000114053
0.000109378
5.75203e-05
0.00011126
-1.14847e-07
0.000113086
-5.8812e-05
0.000114838
-0.000118579
0.000116562
-0.000179358
0.000118201
-0.000241121
0.000119778
-0.000303835
0.000121286
-0.00036747
0.000122738
-0.000431993
0.000124108
-0.000497365
0.000125405
-0.000563538
0.000126638
-0.000630475
0.000127794
-0.000698136
0.000128873
-0.000766474
0.000129875
-0.000835445
0.000130799
-0.000905001
0.000131642
-0.000975089
0.000132402
-0.00104566
0.000133082
-0.00111667
0.000133677
-0.00118805
0.000134188
-0.00125975
0.000134606
-0.00133171
0.000134939
-0.00140388
0.000135187
-0.00147619
0.000135344
-0.00154859
0.000135411
-0.00162101
0.000135385
-0.00169339
0.000135267
-0.00176567
0.000135055
-0.00183779
0.000134748
-0.00190966
0.000134345
-0.00198124
0.000133846
-0.00205245
0.000133249
-0.00212322
0.000132553
-0.00219348
0.000131758
-0.00226318
0.000130863
-0.00233223
0.000129867
-0.00240056
0.000128769
-0.00246812
0.000127569
-0.00253482
0.000126265
-0.0026006
0.000124858
-0.0026654
0.000123346
-0.00272913
0.00012173
-0.00279173
0.000120007
-0.00285313
0.000118179
-0.00291327
0.000116244
-0.00297208
0.000114203
-0.00302948
0.000112055
-0.00308543
0.0001098
-0.00313984
0.000107437
-0.00319266
0.000104968
-0.00324383
0.000102391
-0.00329327
9.97073e-05
-0.00334092
9.69167e-05
-0.00338673
9.40182e-05
-0.00343064
9.10147e-05
-0.00347261
8.79084e-05
-0.00351257
8.46997e-05
-0.0035505
8.13894e-05
-0.00358633
7.79787e-05
-0.00362002
7.4469e-05
-0.00365153
7.08619e-05
-0.00368082
6.71591e-05
-0.00370786
6.33626e-05
-0.0037326
5.94745e-05
-0.00375501
5.54972e-05
-0.00377507
5.1433e-05
-0.00379275
4.72848e-05
-0.00380803
4.30554e-05
-0.00382088
3.87481e-05
-0.0038313
3.43667e-05
-0.00383927
2.99157e-05
-0.0038448
2.54006e-05
-0.00384789
2.08271e-05
-0.00384859
1.62055e-05
-0.00384701
1.1553e-05
-0.00384339
6.8813e-06
-0.00383823
2.2437e-06
-0.00383201
-2.54893e-06
-0.00382505
-7.49879e-06
-0.00381686
-1.23438e-05
-0.00380705
-1.71728e-05
-0.0037953
-2.20101e-05
-0.00378142
-2.68684e-05
-0.00376529
-3.17525e-05
-0.00374682
-3.66589e-05
-0.00372595
-4.15803e-05
-0.00370265
-4.6508e-05
-0.00367689
-5.14337e-05
-0.00364867
-5.63508e-05
-0.00361799
-6.12547e-05
-0.00358485
-6.61414e-05
-0.00354926
-7.10068e-05
-0.00351122
-7.58467e-05
-0.00347076
-8.06568e-05
-0.00342788
-8.54327e-05
-0.00338261
-9.01699e-05
-0.00333497
-9.48638e-05
-0.003285
-9.95101e-05
-0.00323271
-0.000104104
-0.00317814
-0.000108642
-0.00312132
-0.000113119
-0.0030623
-0.000117532
-0.00300111
-0.000121874
-0.00293779
-0.000126144
-0.00287238
-0.000130336
-0.00280492
-0.000134447
-0.00273546
-0.000138473
-0.00266405
-0.000142409
-0.00259073
-0.000146252
-0.00251554
-0.000149999
-0.00243855
-0.000153646
-0.00235981
-0.000157189
-0.00227936
-0.000160625
-0.00219726
-0.00016395
-0.00211357
-0.000167162
-0.00202835
-0.000170257
-0.00194166
-0.000173233
-0.00185356
-0.000176087
-0.0017641
-0.000178815
-0.00167336
-0.000181416
-0.0015814
-0.000183888
-0.00148828
-0.000186227
-0.00139407
-0.000188431
-0.00129884
-0.000190499
-0.00120266
-0.000192428
-0.00110559
-0.000194217
-0.00100771
-0.000195864
-0.000909078
-0.000197367
-0.000809778
-0.000198728
-0.000709877
-0.000199944
-0.000609458
-0.000200991
-0.000508649
-0.000201783
-0.000407582
-0.00020231
-0.000305879
-0.000203572
-0.000201239
-0.000209414
-9.09888e-05
-0.000220646
-0.000182244
-2.00032e-05
5.87648e-05
-4.00712e-05
5.89454e-05
-6.011e-05
5.88555e-05
-8.01051e-05
5.87246e-05
-0.000100041
5.85496e-05
-0.000119903
5.83309e-05
-0.000139676
5.80684e-05
-0.000159344
5.77624e-05
-0.000178894
5.74129e-05
-0.000198311
5.70201e-05
-0.000217579
5.65842e-05
-0.000236684
5.61054e-05
-0.000255612
5.55838e-05
-0.000274348
5.50196e-05
-0.000292878
5.44132e-05
-0.000311187
5.37648e-05
-0.000329262
5.30746e-05
-0.000347088
5.2343e-05
-0.000364651
5.15703e-05
-0.000381937
5.07568e-05
-0.000398933
4.99029e-05
-0.000415625
4.9009e-05
-0.000432
4.80754e-05
-0.000448044
4.71026e-05
-0.000463745
4.60911e-05
-0.000479088
4.50413e-05
-0.000494062
4.39536e-05
-0.000508653
4.28287e-05
-0.000522849
4.1667e-05
-0.000536639
4.0469e-05
-0.000550009
3.92355e-05
-0.000562948
3.79669e-05
-0.000575444
3.66638e-05
-0.000587486
3.5327e-05
-0.000599062
3.39571e-05
-0.000610163
3.25548e-05
-0.000620776
3.11207e-05
-0.000630891
2.96557e-05
-0.000640498
2.81605e-05
-0.000649588
2.66358e-05
-0.00065815
2.50826e-05
-0.000666175
2.35015e-05
-0.000673655
2.18935e-05
-0.000680579
2.02594e-05
-0.00068694
1.86002e-05
-0.000692729
1.69168e-05
-0.000697939
1.521e-05
-0.000702562
1.34809e-05
-0.00070659
1.17304e-05
-0.000710016
9.95938e-06
-0.000712833
8.16857e-06
-0.000715034
6.35855e-06
-0.000716612
4.5296e-06
-0.000717559
2.68213e-06
-0.000717874
8.22658e-07
-0.00071762
-1.00269e-06
-0.000716702
-2.90746e-06
-0.000715142
-4.79991e-06
-0.000712922
-6.71502e-06
-0.00071006
-8.62437e-06
-0.000706548
-1.05463e-05
-0.000702394
-1.2469e-05
-0.00069758
-1.44063e-05
-0.000692117
-1.63409e-05
-0.000686006
-1.82752e-05
-0.000679243
-2.02154e-05
-0.000671826
-2.2154e-05
-0.00066376
-2.40917e-05
-0.000655044
-2.60254e-05
-0.000645681
-2.79561e-05
-0.000635677
-2.98774e-05
-0.000625032
-3.17937e-05
-0.000613749
-3.37016e-05
-0.000601834
-3.55983e-05
-0.000589291
-3.74838e-05
-0.000576125
-3.93558e-05
-0.000562341
-4.12146e-05
-0.000547945
-4.30574e-05
-0.000532941
-4.48843e-05
-0.000517334
-4.66932e-05
-0.00050113
-4.84824e-05
-0.000484337
-5.02503e-05
-0.000466961
-5.19954e-05
-0.000449011
-5.37162e-05
-0.000430493
-5.54111e-05
-0.000411418
-5.70788e-05
-0.000391795
-5.87175e-05
-0.000371633
-6.03258e-05
-0.000350943
-6.19025e-05
-0.000329736
-6.34461e-05
-0.000308023
-6.49548e-05
-0.000285816
-6.64274e-05
-0.000263128
-6.78625e-05
-0.000239971
-6.92587e-05
-0.000216358
-7.06146e-05
-0.000192303
-7.19286e-05
-0.000167821
-7.31995e-05
-0.000142927
-7.44258e-05
-0.000117635
-7.56064e-05
-9.19623e-05
-7.67399e-05
-6.59233e-05
-7.78252e-05
-3.95354e-05
-7.8861e-05
-1.28154e-05
-7.98458e-05
1.42196e-05
-8.07785e-05
4.15505e-05
-8.16553e-05
6.91608e-05
-8.24791e-05
9.70306e-05
-8.32455e-05
0.000125141
-8.3955e-05
0.000153472
-8.46079e-05
0.000182007
-8.52029e-05
0.000210724
-8.57364e-05
0.000239601
-8.6207e-05
0.000268618
-8.66165e-05
0.000297756
-8.69631e-05
0.000326993
-8.72486e-05
0.000356291
-8.74489e-05
0.000385655
-8.7606e-05
0.000415049
-8.76907e-05
0.000444452
-8.77056e-05
0.000473841
-8.76528e-05
0.000503192
-8.7529e-05
0.000532481
-8.73355e-05
0.000561686
-8.70727e-05
0.000590782
-8.67356e-05
0.000619748
-8.63307e-05
0.000648552
-8.58426e-05
0.000677175
-8.52953e-05
0.000705595
-8.46712e-05
0.000733776
-8.39599e-05
0.000761704
-8.31868e-05
0.000789354
-8.23396e-05
0.0008167
-8.14108e-05
0.000843713
-8.0409e-05
0.000870371
-7.93333e-05
0.000896649
-7.81792e-05
0.000922513
-7.69533e-05
0.000947948
-7.56474e-05
0.000972924
-7.42655e-05
0.000997415
-7.28077e-05
0.0010214
-7.12733e-05
0.00104485
-6.96626e-05
0.00106774
-6.79777e-05
0.00109004
-6.62159e-05
0.00111173
-6.43795e-05
0.00113278
-6.24673e-05
0.00115317
-6.04804e-05
0.00117288
-5.8423e-05
0.00119189
-5.62874e-05
0.00121015
-5.40805e-05
0.00122766
-5.18008e-05
0.00124439
-4.94496e-05
0.00126031
-4.70275e-05
0.0012754
-4.45344e-05
0.00128965
-4.19725e-05
0.00130301
-3.93419e-05
0.00131548
-3.6644e-05
0.00132703
-3.38792e-05
0.00133764
-3.10491e-05
0.00134729
-2.81548e-05
0.00135595
-2.51976e-05
0.00136361
-2.21783e-05
0.00137025
-1.90989e-05
0.00137584
-1.59592e-05
0.00138037
-1.27609e-05
0.00138382
-9.50589e-06
0.00138616
-6.19365e-06
0.00138737
-2.82192e-06
0.00138748
5.175e-07
0.00138643
3.98773e-06
0.00138418
7.50619e-06
0.00138075
1.104e-05
0.00137611
1.46379e-05
0.00137026
1.82515e-05
0.00136319
2.19161e-05
0.00135488
2.5612e-05
0.00134533
2.93376e-05
0.00133452
3.30917e-05
0.00132246
3.6872e-05
0.00130912
4.06795e-05
0.00129452
4.44929e-05
0.00127866
4.83199e-05
0.00126156
5.21449e-05
0.00124323
5.59577e-05
0.00122371
5.97593e-05
0.00120299
6.35757e-05
0.001181
6.74542e-05
0.00115763
7.142e-05
0.00113277
7.54623e-05
0.0011064
7.95119e-05
0.00107855
8.35045e-05
0.00104933
8.7408e-05
0.0010188
9.1243e-05
0.000987021
9.50384e-05
0.000954005
9.88119e-05
0.000919762
0.000102573
0.000884295
0.000106318
0.000847608
0.000110048
0.00080971
0.000113752
0.000770605
0.000117428
0.0007303
0.000121076
0.000688797
0.000124696
0.000646103
0.00012828
0.000602228
0.000131822
0.000557184
0.000135319
0.000510985
0.000138767
0.000463639
0.000142169
0.000415169
0.000145509
0.000365593
0.000148787
0.00031493
0.000152005
0.000263194
0.000155162
0.000210409
0.000158248
0.000156595
0.000161263
0.00010177
0.000164203
4.59546e-05
0.000167076
-1.08233e-05
0.000169864
-6.85276e-05
0.000172542
-0.000127128
0.000175163
-0.00018662
0.000177693
-0.000246965
0.000180123
-0.000308137
0.000182458
-0.000370083
0.000184684
-0.000432797
0.000186822
-0.00049624
0.000188848
-0.000560372
0.000190769
-0.000625155
0.000192578
-0.000690557
0.000194274
-0.000756535
0.000195853
-0.000823049
0.000197313
-0.000890059
0.000198652
-0.000957521
0.000199865
-0.00102538
0.000200944
-0.00109361
0.000201903
-0.00116214
0.000202723
-0.00123094
0.000203405
-0.00129996
0.000203959
-0.00136915
0.000204372
-0.00143845
0.000204642
-0.0015078
0.000204768
-0.00157717
0.000204748
-0.00164648
0.000204579
-0.00171568
0.000204262
-0.00178473
0.000203792
-0.00185355
0.00020317
-0.0019221
0.000202393
-0.00199031
0.00020146
-0.00205813
0.000200369
-0.00212549
0.00019912
-0.00219234
0.000197712
-0.00225861
0.000196143
-0.00232426
0.000194414
-0.00238921
0.000192522
-0.00245341
0.000190468
-0.00251681
0.000188251
-0.00257933
0.000185871
-0.00264093
0.000183329
-0.00270155
0.000180623
-0.00276112
0.000177755
-0.0028196
0.000174724
-0.00287693
0.000171532
-0.00293305
0.000168178
-0.00298792
0.000164665
-0.00304148
0.000160993
-0.00309367
0.000157162
-0.00314446
0.000153176
-0.00319378
0.000149035
-0.00324161
0.00014474
-0.00328788
0.000140293
-0.00333256
0.000135696
-0.0033756
0.000130951
-0.00341697
0.000126063
-0.00345661
0.000121033
-0.0034945
0.000115863
-0.00353058
0.000110558
-0.00356484
0.000105118
-0.00359723
9.95489e-05
-0.00362772
9.38527e-05
-0.00365628
8.80329e-05
-0.00368288
8.20933e-05
-0.00370748
7.60375e-05
-0.00373006
6.98693e-05
-0.0037506
6.3592e-05
-0.00376906
5.72092e-05
-0.00378542
5.07239e-05
-0.00379964
4.41381e-05
-0.00381169
3.74527e-05
-0.00382154
3.06683e-05
-0.00382911
2.37838e-05
-0.00383436
1.67975e-05
-0.00383721
9.73535e-06
-0.00383758
2.61357e-06
-0.00383582
-4.3128e-06
-0.00383219
-1.11283e-05
-0.00382638
-1.8153e-05
-0.00381815
-2.54006e-05
-0.0038074
-3.27653e-05
-0.0037941
-4.01697e-05
-0.00377826
-4.75852e-05
-0.00375992
-5.49999e-05
-0.00373909
-6.24091e-05
-0.00371579
-6.98125e-05
-0.00369001
-7.72082e-05
-0.00366177
-8.45914e-05
-0.00363107
-9.19565e-05
-0.00359792
-9.92972e-05
-0.00356232
-0.000106607
-0.00352428
-0.00011388
-0.00348383
-0.000121108
-0.00344098
-0.000128285
-0.00339575
-0.000135404
-0.00334815
-0.000142458
-0.00329822
-0.000149442
-0.00324598
-0.000156347
-0.00319145
-0.000163168
-0.00313467
-0.000169897
-0.00307568
-0.00017653
-0.00301449
-0.000183058
-0.00295116
-0.000189477
-0.00288572
-0.000195779
-0.0028182
-0.00020196
-0.00274866
-0.000208012
-0.00267714
-0.00021393
-0.00260369
-0.000219709
-0.00252834
-0.000225342
-0.00245116
-0.000230825
-0.0023722
-0.000236152
-0.00229151
-0.000241318
-0.00220914
-0.000246318
-0.00212515
-0.000251148
-0.00203961
-0.000255802
-0.00195256
-0.000260277
-0.00186408
-0.000264568
-0.00177423
-0.000268672
-0.00168306
-0.000272583
-0.00159065
-0.000276299
-0.00149706
-0.000279816
-0.00140236
-0.000283131
-0.00130662
-0.00028624
-0.00120991
-0.000289141
-0.00111229
-0.00029183
-0.00101385
-0.000294306
-0.00091465
-0.000296567
-0.000814765
-0.000298613
-0.000714267
-0.000300442
-0.000613243
-0.000302015
-0.000511824
-0.000303202
-0.000410142
-0.000303993
-0.000307792
-0.000305922
-0.00020242
-0.000314786
-9.13991e-05
-0.000331667
-0.000273643
-1.97427e-05
7.85075e-05
-3.95451e-05
7.87478e-05
-5.93172e-05
7.86276e-05
-7.90456e-05
7.84529e-05
-9.87155e-05
7.82196e-05
-0.000118312
7.79277e-05
-0.000137821
7.75774e-05
-0.000157228
7.71689e-05
-0.000176517
7.67024e-05
-0.000195675
7.6178e-05
-0.000214687
7.55961e-05
-0.000233538
7.49568e-05
-0.000252215
7.42604e-05
-0.000270703
7.35073e-05
-0.000288987
7.26977e-05
-0.000307054
7.1832e-05
-0.00032489
7.09106e-05
-0.000342481
6.99338e-05
-0.000359813
6.89022e-05
-0.000376872
6.7816e-05
-0.000393645
6.6676e-05
-0.000410118
6.54824e-05
-0.000426279
6.4236e-05
-0.000442114
6.29371e-05
-0.000457609
6.15866e-05
-0.000472753
6.01848e-05
-0.000487532
5.87326e-05
-0.000501933
5.72305e-05
-0.000515946
5.56794e-05
-0.000529557
5.40798e-05
-0.000542754
5.24327e-05
-0.000555526
5.07387e-05
-0.000567861
4.89988e-05
-0.000579747
4.72137e-05
-0.000591175
4.53844e-05
-0.000602132
4.35118e-05
-0.000612608
4.15969e-05
-0.000622593
3.96405e-05
-0.000632076
3.76438e-05
-0.000641048
3.56078e-05
-0.000649499
3.35335e-05
-0.000657419
3.14221e-05
-0.000664801
2.92747e-05
-0.000671634
2.70925e-05
-0.00067791
2.48766e-05
-0.000683622
2.26284e-05
-0.000688761
2.03491e-05
-0.00069332
1.804e-05
-0.000697292
1.57024e-05
-0.00070067
1.33377e-05
-0.000703449
1.09475e-05
-0.000705624
8.53336e-06
-0.000707192
6.09761e-06
-0.000708153
3.64306e-06
-0.000708501
1.17058e-06
-0.000708139
-1.36486e-06
-0.000707185
-3.86122e-06
-0.000705583
-6.40205e-06
-0.000703369
-8.92889e-06
-0.000700503
-1.14898e-05
-0.000696997
-1.4053e-05
-0.000692838
-1.66276e-05
-0.000688038
-1.92066e-05
-0.000682586
-2.17927e-05
-0.000676473
-2.43884e-05
-0.000669715
-2.69729e-05
-0.000662301
-2.95681e-05
-0.000654237
-3.21557e-05
-0.000645522
-3.47406e-05
-0.000636161
-3.73172e-05
-0.000626146
-3.98923e-05
-0.000615485
-4.24542e-05
-0.000604183
-4.50044e-05
-0.000592238
-4.75426e-05
-0.000579658
-5.00643e-05
-0.000566443
-5.25708e-05
-0.000552601
-5.50568e-05
-0.000538134
-5.75239e-05
-0.000523051
-5.99669e-05
-0.000507359
-6.23854e-05
-0.000491064
-6.47773e-05
-0.000474173
-6.71413e-05
-0.000456694
-6.94748e-05
-0.000438634
-7.17757e-05
-0.000420003
-7.40421e-05
-0.00040081
-7.62721e-05
-0.000381064
-7.84635e-05
-0.000360775
-8.06146e-05
-0.000339954
-8.27234e-05
-0.000318613
-8.47874e-05
-0.000296763
-8.68052e-05
-0.000274415
-8.87746e-05
-0.000251584
-9.06944e-05
-0.000228281
-9.25616e-05
-0.00020452
-9.43749e-05
-0.000180317
-9.61324e-05
-0.000155684
-9.78321e-05
-0.000130637
-9.9473e-05
-0.000105191
-0.000101052
-7.93627e-05
-0.000102568
-5.31686e-05
-0.000104019
-2.66258e-05
-0.000105404
2.48236e-07
-0.00010672
2.74352e-05
-0.000107965
5.49217e-05
-0.000109142
8.26853e-05
-0.000110243
0.00011071
-0.00011127
0.000138977
-0.000112222
0.000167464
-0.000113095
0.000196146
-0.000113884
0.000225007
-0.000114598
0.000254029
-0.000115229
0.000283187
-0.000115775
0.00031246
-0.000116236
0.000341818
-0.000116607
0.00037128
-0.000116911
0.000400782
-0.000117108
0.000430307
-0.000117216
0.000459836
-0.000117235
0.000489345
-0.000117162
0.000518815
-0.000116999
0.000548217
-0.000116738
0.000577528
-0.000116384
0.000606729
-0.000115936
0.000635785
-0.000115387
0.000664695
-0.000114752
0.000693408
-0.000114008
0.000721902
-0.000113166
0.00075018
-0.000112238
0.000778189
-0.000111195
0.000805903
-0.000110054
0.000833314
-0.000108821
0.000860386
-0.000107481
0.000887091
-0.000106039
0.000913409
-0.000104497
0.000939308
-0.000102852