/*--------------------------------*- C++ -*----------------------------------*\
| =========                 |                                                 |
| \\      /  F ield         | OpenFOAM: The Open Source CFD Toolbox           |
|  \\    /   O peration     | Version:  v2006                                 |
|   \\  /    A nd           | Website:  www.openfoam.com                      |
|    \\/     M anipulation  |                                                 |
\*---------------------------------------------------------------------------*/
FoamFile
{
    version     2.0;
    format      ascii;
    class       volScalarField;
    location    "2";
    object      p_rgh;
}
// * * * * * * * * * * * * * * * * * * * * * * * * * * * * * * * * * * * * * //

dimensions      [1 -1 -2 0 0 0 0];


internalField   nonuniform List<scalar> 
52500
(
3794.95
3794.66
3794.07
3793.18
3792
3790.53
3788.76
3786.7
3784.35
3781.7
3778.75
3775.52
3771.99
3768.16
3764.04
3759.63
3754.93
3749.93
3744.64
3739.06
3733.19
3727.02
3720.56
3713.82
3706.78
3699.45
3691.84
3683.93
3675.74
3667.26
3658.49
3649.43
3640.09
3630.46
3620.55
3610.36
3599.88
3589.13
3578.09
3566.77
3555.17
3543.3
3531.15
3518.72
3506.02
3493.05
3479.81
3466.3
3452.52
3438.48
3424.17
3409.61
3394.78
3379.71
3364.35
3348.74
3332.88
3316.78
3300.43
3283.84
3267.01
3249.94
3232.63
3215.1
3197.33
3179.33
3161.11
3142.68
3124.02
3105.16
3086.08
3066.8
3047.32
3027.65
3007.78
2987.72
2967.48
2947.06
2926.47
2905.7
2884.78
2863.69
2842.46
2821.07
2799.54
2777.88
2756.08
2734.16
2712.12
2689.97
2667.71
2645.36
2622.91
2600.37
2577.75
2555.07
2532.31
2509.5
2486.64
2463.74
2440.8
2417.83
2394.84
2371.84
2348.84
2325.84
2302.85
2279.88
2256.95
2234.05
2211.19
2188.39
2165.66
2142.99
2120.41
2097.91
2075.52
2053.23
2031.05
2009
1987.09
1965.31
1943.69
1922.22
1900.93
1879.81
1858.88
1838.14
1817.61
1797.28
1777.18
1757.3
1737.67
1718.27
1699.13
1680.25
1661.64
1643.3
1625.25
1607.48
1590.02
1572.85
1556
1539.47
1523.26
1507.38
1491.83
1476.63
1461.77
1447.27
1433.12
1419.33
1405.9
1392.85
1380.16
1367.86
1355.93
1344.38
1333.22
1322.44
1312.05
1302.05
1292.44
1283.23
1274.41
1265.99
1257.95
1250.3
1243.04
1236.16
1229.67
1223.56
1217.83
1212.48
1207.5
1202.89
1198.65
1194.77
1191.24
1188.06
1185.23
1182.74
1180.57
1178.74
1177.22
1176.01
1175.1
1174.49
1174.17
1174.13
1174.36
1174.85
1175.59
1176.57
1177.78
1179.22
1180.86
1182.7
1184.73
1186.93
1189.3
1191.83
1194.5
1197.29
1200.21
1203.23
1206.34
1209.54
1212.81
1216.13
1219.49
1222.89
1226.31
1229.73
1233.16
1236.6
1239.98
1243.31
1246.59
1249.8
1252.93
1255.98
1258.93
1261.76
1264.48
1267.06
1269.5
1271.79
1273.92
1275.87
1277.64
1279.23
1280.61
1281.79
1282.76
1283.51
1284.02
1284.31
1284.35
1284.15
1283.69
1282.99
1282.02
1280.79
1279.29
1277.53
1275.49
1273.19
1270.61
1267.75
1264.63
1261.22
1257.55
1253.61
1249.39
1244.91
1240.17
1235.16
1229.9
1224.39
1218.62
1212.62
1206.38
1199.91
1193.21
1186.29
1179.17
1171.84
1164.32
1156.61
1148.72
1140.66
1132.43
1124.06
1115.54
1106.89
1098.12
1089.23
1080.24
1071.15
1061.98
1052.74
1043.43
1034.07
1024.67
1015.23
1005.77
996.303
986.827
977.354
967.872
958.383
948.936
939.558
930.245
921.003
911.837
902.754
893.761
884.865
876.072
867.39
858.825
850.383
842.07
833.893
825.857
817.967
810.229
802.646
795.223
787.964
780.873
773.953
767.208
760.64
754.251
748.045
742.022
736.186
730.536
725.076
719.805
714.726
709.837
705.141
700.637
696.326
692.207
688.281
684.547
681.006
677.656
674.497
671.53
668.752
666.164
663.765
661.554
659.531
657.695
656.045
654.581
653.301
652.207
651.296
650.567
650.028
649.695
649.332
3795.75
3795.45
3794.86
3793.98
3792.8
3791.33
3789.56
3787.5
3785.14
3782.49
3779.55
3776.31
3772.78
3768.95
3764.83
3760.42
3755.71
3750.72
3745.43
3739.84
3733.97
3727.8
3721.34
3714.6
3707.56
3700.23
3692.61
3684.7
3676.51
3668.02
3659.25
3650.2
3640.85
3631.22
3621.31
3611.11
3600.63
3589.87
3578.83
3567.51
3555.91
3544.03
3531.87
3519.45
3506.74
3493.77
3480.52
3467
3453.22
3439.17
3424.86
3410.28
3395.44
3380.33
3365
3349.4
3333.54
3317.43
3301.08
3284.48
3267.64
3250.56
3233.25
3215.7
3197.92
3179.92
3161.69
3143.24
3124.58
3105.7
3086.61
3067.32
3047.83
3028.14
3008.26
2988.19
2967.93
2947.5
2926.89
2906.12
2885.18
2864.08
2842.82
2821.42
2799.88
2778.19
2756.38
2734.44
2712.39
2690.22
2667.94
2645.56
2623.09
2600.54
2577.9
2555.2
2532.42
2509.59
2486.71
2463.78
2440.82
2417.83
2394.82
2371.8
2348.77
2325.75
2302.74
2279.75
2256.79
2233.87
2210.99
2188.17
2165.41
2142.72
2120.11
2097.59
2075.17
2052.86
2030.66
2008.59
1986.65
1964.85
1943.21
1921.72
1900.4
1879.26
1858.31
1837.55
1816.99
1796.65
1776.53
1756.63
1736.97
1717.56
1698.4
1679.5
1660.87
1642.51
1624.44
1606.66
1589.18
1572
1555.14
1538.59
1522.37
1506.47
1490.92
1475.7
1460.83
1446.32
1432.16
1418.36
1404.93
1391.87
1379.18
1366.86
1354.93
1343.38
1332.22
1321.44
1311.05
1301.05
1291.44
1282.22
1273.4
1264.95
1256.9
1249.25
1241.98
1235.11
1228.62
1222.51
1216.79
1211.44
1206.47
1201.87
1197.64
1193.76
1190.25
1187.08
1184.26
1181.78
1179.64
1177.82
1176.33
1175.14
1174.26
1173.68
1173.38
1173.35
1173.6
1174.11
1174.87
1175.88
1177.11
1178.57
1180.24
1182.1
1184.16
1186.39
1188.79
1191.35
1194.04
1196.87
1199.81
1202.87
1206.01
1209.24
1212.53
1215.89
1219.28
1222.71
1226.16
1229.6
1233.03
1236.62
1239.99
1243.35
1246.65
1249.9
1253.06
1256.14
1259.12
1261.99
1264.74
1267.35
1269.82
1272.14
1274.29
1276.28
1278.08
1279.68
1281.09
1282.3
1283.28
1284.05
1284.58
1284.88
1284.94
1284.75
1284.31
1283.61
1282.65
1281.43
1279.94
1278.17
1276.14
1273.83
1271.25
1268.4
1265.26
1261.85
1258.17
1254.22
1249.99
1245.5
1240.74
1235.72
1230.44
1224.9
1219.12
1213.09
1206.83
1200.33
1193.61
1186.67
1179.52
1172.16
1164.61
1156.86
1148.94
1140.85
1132.59
1124.18
1115.63
1106.94
1098.13
1089.21
1080.18
1071.05
1061.85
1052.56
1043.22
1033.82
1024.38
1014.9
1005.4
995.893
986.381
976.878
967.423
958.026
948.659
939.316
930.016
920.771
911.593
902.491
893.476
884.555
875.737
867.029
858.438
849.97
841.632
833.43
825.369
817.454
809.69
802.083
794.636
787.353
780.238
773.295
766.527
759.936
753.525
747.297
741.253
735.396
729.726
724.246
718.955
713.857
708.95
704.236
699.715
695.387
691.252
687.31
683.562
680.006
676.643
673.472
670.492
667.703
665.105
662.696
660.476
658.445
656.601
654.944
653.474
652.19
651.091
650.176
649.444
648.903
648.569
648.204
3797.25
3796.96
3796.37
3795.49
3794.31
3792.83
3791.07
3789
3786.65
3784
3781.05
3777.82
3774.28
3770.46
3766.34
3761.93
3757.22
3752.22
3746.93
3741.35
3735.47
3729.31
3722.85
3716.1
3709.06
3701.73
3694.11
3686.2
3678.01
3669.52
3660.75
3651.69
3642.34
3632.71
3622.79
3612.59
3602.11
3591.34
3580.3
3568.97
3557.37
3545.48
3533.32
3520.89
3508.18
3495.19
3481.94
3468.42
3454.62
3440.57
3426.24
3411.65
3396.8
3381.69
3366.32
3350.72
3334.86
3318.74
3302.37
3285.76
3268.91
3251.81
3234.48
3216.92
3199.12
3181.1
3162.85
3144.38
3125.7
3106.8
3087.69
3068.38
3048.86
3029.15
3009.24
2989.14
2968.86
2948.4
2927.76
2906.96
2885.99
2864.86
2843.57
2822.14
2800.56
2778.84
2757
2735.02
2712.93
2690.72
2668.41
2646
2623.49
2600.89
2578.22
2555.47
2532.66
2509.78
2486.86
2463.89
2440.89
2417.85
2394.8
2371.73
2348.65
2325.59
2302.53
2279.5
2256.49
2233.52
2210.6
2187.73
2164.92
2142.19
2119.53
2096.97
2074.5
2052.14
2029.9
2007.78
1985.79
1963.95
1942.25
1920.72
1899.36
1878.17
1857.17
1836.37
1815.77
1795.38
1775.22
1755.28
1735.58
1716.13
1696.93
1677.99
1659.32
1640.93
1622.83
1605.01
1587.5
1570.29
1553.39
1536.81
1520.56
1504.64
1489.06
1473.82
1458.92
1444.39
1430.21
1416.39
1402.94
1389.86
1377.16
1364.83
1352.89
1341.33
1330.15
1319.37
1308.97
1298.97
1289.35
1280.13
1271.31
1262.87
1254.84
1247.19
1239.93
1233.07
1226.59
1220.5
1214.79
1209.46
1204.51
1199.93
1195.71
1191.86
1188.37
1185.23
1182.44
1179.99
1177.87
1176.08
1174.62
1173.46
1172.61
1172.06
1171.8
1171.82
1172.11
1172.66
1173.47
1174.52
1175.8
1177.3
1179.01
1180.93
1183.03
1185.31
1187.76
1190.37
1193.11
1195.99
1198.99
1202.09
1205.29
1208.57
1211.92
1215.32
1218.77
1222.26
1225.76
1229.27
1232.79
1236.3
1239.77
1243.18
1246.54
1249.84
1253.05
1256.18
1259.21
1262.12
1264.91
1267.57
1270.08
1272.44
1274.63
1276.65
1278.49
1280.13
1281.58
1282.81
1283.83
1284.63
1285.19
1285.52
1285.61
1285.45
1285.03
1284.35
1283.42
1282.22
1280.74
1279
1276.98
1274.69
1272.12
1269.27
1266.15
1262.75
1259.07
1255.12
1250.9
1246.41
1241.65
1236.62
1231.34
1225.8
1220.01
1213.97
1207.7
1201.19
1194.45
1187.5
1180.33
1172.95
1165.38
1157.62
1149.67
1141.56
1133.28
1124.85
1116.27
1107.56
1098.72
1089.77
1080.71
1071.56
1062.33
1053.02
1043.64
1034.21
1024.74
1015.24
1005.7
996.156
986.603
977.061
967.515
957.996
948.511
939.072
929.692
920.378
911.138
901.98
892.911
883.937
875.067
866.306
857.663
849.143
840.754
832.5
824.388
816.422
808.609
800.952
793.456
786.124
778.962
771.972
765.157
758.521
752.065
745.793
739.707
733.807
728.097
722.576
717.247
712.111
707.168
702.418
697.863
693.502
689.336
685.364
681.586
678.003
674.613
671.417
668.414
665.603
662.984
660.556
658.319
656.271
654.413
652.743
651.261
649.967
648.859
647.938
647.2
646.654
646.318
645.948
3799.54
3799.25
3798.66
3797.77
3796.6
3795.12
3793.36
3791.29
3788.94
3786.29
3783.34
3780.11
3776.57
3772.75
3768.63
3764.22
3759.51
3754.51
3749.22
3743.64
3737.76
3731.59
3725.13
3718.38
3711.34
3704.01
3696.39
3688.48
3680.28
3671.79
3663.01
3653.95
3644.6
3634.97
3625.05
3614.84
3604.35
3593.58
3582.53
3571.19
3559.58
3547.69
3535.52
3523.08
3510.36
3497.36
3484.1
3470.56
3456.76
3442.69
3428.35
3413.75
3398.89
3383.77
3368.4
3352.76
3336.86
3320.72
3304.33
3287.7
3270.82
3253.7
3236.34
3218.75
3200.93
3182.88
3164.6
3146.1
3127.39
3108.46
3089.31
3069.97
3050.41
3030.66
3010.72
2990.58
2970.26
2949.76
2929.08
2908.23
2887.21
2866.04
2844.7
2823.22
2801.59
2779.83
2757.93
2735.9
2713.76
2691.49
2669.12
2646.65
2624.09
2601.43
2578.7
2555.89
2533.01
2510.08
2487.09
2464.06
2440.99
2417.89
2394.78
2371.61
2348.48
2325.35
2302.23
2279.12
2256.05
2233.01
2210.01
2187.07
2164.2
2141.39
2118.66
2096.03
2073.49
2051.06
2028.74
2006.55
1984.5
1962.58
1940.82
1919.22
1897.79
1876.53
1855.47
1834.6
1813.93
1793.48
1773.25
1753.25
1733.49
1713.98
1694.72
1675.72
1657
1638.55
1620.39
1602.52
1584.96
1567.7
1550.75
1534.13
1517.83
1501.87
1486.25
1470.97
1456.04
1441.47
1427.26
1413.41
1399.94
1386.83
1374.11
1361.76
1349.8
1338.22
1327.03
1316.24
1305.83
1295.82
1286.2
1276.98
1268.15
1259.72
1251.68
1244.05
1236.81
1229.96
1223.51
1217.43
1211.75
1206.44
1201.52
1196.96
1192.78
1188.97
1185.51
1182.41
1179.66
1177.25
1175.18
1173.44
1172.02
1170.92
1170.13
1169.63
1169.43
1169.51
1169.86
1170.48
1171.35
1172.46
1173.81
1175.38
1177.16
1179.15
1181.33
1183.68
1186.21
1188.89
1191.71
1194.67
1197.74
1200.92
1204.2
1207.56
1210.99
1214.48
1218.01
1221.57
1225.16
1228.75
1232.34
1235.92
1239.46
1242.96
1246.4
1249.77
1253.06
1256.26
1259.36
1262.35
1265.21
1267.94
1270.52
1272.95
1275.21
1277.29
1279.19
1280.89
1282.4
1283.69
1284.76
1285.61
1286.23
1286.6
1286.73
1286.61
1286.24
1285.6
1284.7
1283.53
1282.09
1280.37
1278.38
1276.1
1273.55
1270.72
1267.61
1264.22
1260.55
1256.6
1252.38
1247.88
1243.11
1238.08
1232.79
1227.23
1221.42
1215.37
1209.07
1202.53
1195.76
1188.77
1181.57
1174.15
1166.54
1158.73
1150.74
1142.57
1134.24
1125.75
1117.11
1108.34
1099.44
1090.42
1081.29
1072.07
1062.75
1053.37
1043.91
1034.4
1024.84
1015.25
1005.64
996.013
986.384
976.759
967.166
957.598
948.065
938.575
929.134
919.753
910.44
901.205
892.057
883.005
874.056
865.216
856.495
847.897
839.429
831.098
822.909
814.867
806.978
799.247
791.677
784.273
777.039
769.978
763.093
756.389
749.866
743.528
737.377
731.415
725.643
720.063
714.676
709.483
704.484
699.682
695.075
690.665
686.451
682.433
678.612
674.988
671.559
668.325
665.287
662.443
659.793
657.336
655.072
653
651.12
649.43
647.931
646.621
645.501
644.568
643.822
643.27
642.93
642.553
3802.59
3802.3
3801.71
3800.82
3799.65
3798.17
3796.41
3794.34
3791.99
3789.34
3786.39
3783.16
3779.62
3775.8
3771.68
3767.27
3762.56
3757.56
3752.27
3746.68
3740.81
3734.64
3728.18
3721.42
3714.38
3707.05
3699.42
3691.51
3683.31
3674.81
3666.03
3656.96
3647.61
3637.97
3628.04
3617.83
3607.33
3596.55
3585.49
3574.15
3562.53
3550.63
3538.44
3525.99
3513.25
3500.25
3486.97
3473.42
3459.59
3445.51
3431.15
3416.53
3401.64
3386.5
3371.09
3355.43
3339.52
3323.35
3306.94
3290.28
3273.37
3256.22
3238.83
3221.2
3203.34
3185.25
3166.94
3148.4
3129.64
3110.67
3091.48
3072.09
3052.49
3032.69
3012.69
2992.5
2972.13
2951.57
2930.83
2909.93
2888.85
2867.61
2846.22
2824.67
2802.97
2781.14
2759.17
2737.08
2714.86
2692.52
2670.08
2647.53
2624.89
2602.15
2579.34
2556.45
2533.49
2510.47
2487.4
2464.28
2441.12
2417.94
2394.72
2371.49
2348.26
2325.04
2301.82
2278.62
2255.45
2232.32
2209.23
2186.2
2163.23
2140.32
2117.5
2094.77
2072.14
2049.61
2027.2
2004.92
1982.77
1960.76
1938.9
1917.21
1895.68
1874.34
1853.18
1832.23
1811.47
1790.93
1770.62
1750.53
1730.69
1711.1
1691.76
1672.69
1653.88
1635.36
1617.13
1599.2
1581.56
1564.24
1547.23
1530.55
1514.19
1498.18
1482.5
1467.17
1452.2
1437.58
1423.33
1409.44
1395.93
1382.79
1370.04
1357.66
1345.68
1334.08
1322.88
1312.07
1301.65
1291.63
1282.01
1272.79
1263.97
1255.55
1247.52
1239.9
1232.67
1225.84
1219.4
1213.36
1207.7
1202.43
1197.54
1193.02
1188.88
1185.11
1181.7
1178.66
1175.96
1173.61
1171.6
1169.92
1168.57
1167.54
1166.81
1166.39
1166.27
1166.42
1166.86
1167.56
1168.51
1169.71
1171.15
1172.82
1174.69
1176.78
1179.05
1181.51
1184.13
1186.91
1189.84
1192.89
1196.07
1199.36
1202.75
1206.21
1209.75
1213.34
1216.98
1220.66
1224.35
1228.05
1231.74
1235.43
1239.07
1242.67
1246.21
1249.69
1253.08
1256.39
1259.58
1262.67
1265.63
1268.45
1271.12
1273.63
1275.98
1278.15
1280.13
1281.92
1283.5
1284.87
1286.01
1286.93
1287.61
1288.05
1288.24
1288.17
1287.85
1287.26
1286.41
1285.28
1283.87
1282.19
1280.23
1277.98
1275.46
1272.64
1269.55
1266.17
1262.5
1258.56
1254.34
1249.84
1245.06
1240.02
1234.7
1229.13
1223.3
1217.21
1210.88
1204.31
1197.5
1190.47
1183.22
1175.76
1168.09
1160.22
1152.17
1143.94
1135.55
1126.99
1118.28
1109.43
1100.46
1091.36
1082.15
1072.85
1063.45
1053.98
1044.44
1034.84
1025.2
1015.52
1005.81
996.09
986.361
976.638
966.924
957.237
947.583
937.974
928.419
918.927
909.506
900.165
890.912
881.753
872.698
863.754
854.927
846.224
837.653
829.218
820.926
812.783
804.793
796.962
789.293
781.792
774.462
767.306
760.329
753.532
746.92
740.494
734.256
728.21
722.355
716.695
711.23
705.961
700.889
696.015
691.34
686.863
682.585
678.507
674.627
670.947
667.465
664.181
661.096
658.207
655.516
653.021
650.721
648.617
646.707
644.991
643.469
642.138
641.001
640.055
639.297
638.736
638.391
638.006
3806.4
3806.11
3805.52
3804.64
3803.46
3801.98
3800.22
3798.16
3795.8
3793.15
3790.21
3786.97
3783.44
3779.61
3775.49
3771.08
3766.37
3761.37
3756.08
3750.49
3744.61
3738.44
3731.98
3725.22
3718.18
3710.84
3703.21
3695.3
3687.09
3678.59
3669.81
3660.73
3651.37
3641.72
3631.79
3621.57
3611.06
3600.28
3589.2
3577.85
3566.21
3554.3
3542.1
3529.63
3516.88
3503.86
3490.56
3476.99
3463.15
3449.03
3434.65
3420.01
3405.1
3389.93
3374.5
3358.81
3342.86
3326.66
3310.21
3293.51
3276.56
3259.37
3241.94
3224.27
3206.37
3188.23
3169.87
3151.28
3132.47
3113.44
3094.2
3074.75
3055.09
3035.22
3015.16
2994.91
2974.47
2953.84
2933.04
2912.05
2890.9
2869.59
2848.11
2826.49
2804.71
2782.79
2760.74
2738.55
2716.24
2693.81
2671.28
2648.63
2625.89
2603.06
2580.14
2557.15
2534.09
2510.96
2487.78
2464.56
2441.29
2417.99
2394.67
2371.33
2347.99
2324.65
2301.32
2278
2254.72
2231.46
2208.26
2185.1
2162.01
2138.99
2116.05
2093.2
2070.45
2047.8
2025.27
2002.87
1980.6
1958.47
1936.5
1914.69
1893.05
1871.59
1850.33
1829.26
1808.39
1787.74
1767.32
1747.13
1727.19
1707.49
1688.05
1668.88
1649.98
1631.37
1613.05
1595.02
1577.31
1559.9
1542.81
1526.05
1509.63
1493.54
1477.8
1462.4
1447.37
1432.7
1418.39
1404.46
1390.9
1377.72
1364.93
1352.52
1340.5
1328.88
1317.65
1306.83
1296.4
1286.37
1276.74
1267.52
1258.7
1250.28
1242.25
1234.59
1227.43
1220.64
1214.24
1208.23
1202.61
1197.37
1192.53
1188.06
1183.98
1180.26
1176.91
1173.93
1171.3
1169.02
1167.09
1165.49
1164.22
1163.28
1162.64
1162.32
1162.29
1162.54
1163.08
1163.89
1164.95
1166.26
1167.82
1169.6
1171.59
1173.79
1176.19
1178.77
1181.52
1184.43
1187.48
1190.67
1193.98
1197.4
1200.92
1204.52
1208.19
1211.92
1215.69
1219.5
1223.33
1227.16
1230.99
1234.8
1238.58
1242.31
1245.98
1249.59
1253.11
1256.54
1259.86
1263.07
1266.14
1269.08
1271.87
1274.5
1276.95
1279.23
1281.31
1283.2
1284.88
1286.34
1287.57
1288.58
1289.34
1289.86
1290.12
1290.13
1289.87
1289.34
1288.54
1287.47
1286.11
1284.47
1282.55
1280.34
1277.84
1275.05
1271.97
1268.61
1264.96
1261.02
1256.79
1252.29
1247.5
1242.44
1237.11
1231.51
1225.65
1219.53
1213.15
1206.54
1199.68
1192.6
1185.29
1177.76
1170.02
1162.09
1153.96
1145.65
1137.17
1128.53
1119.73
1110.78
1101.71
1092.51
1083.2
1073.78
1064.28
1054.69
1045.03
1035.31
1025.55
1015.74
1005.91
996.061
986.206
976.353
966.517
956.705
946.926
937.189
927.504
917.88
908.327
898.852
889.465
880.174
870.985
861.908
852.949
844.115
835.412
826.848
818.427
810.156
802.039
794.082
786.29
778.666
771.215
763.941
756.846
749.935
743.21
736.673
730.327
724.175
718.217
712.456
706.893
701.529
696.364
691.401
686.64
682.08
677.722
673.567
669.614
665.864
662.316
658.969
655.824
652.88
650.137
647.594
645.25
643.105
641.158
639.409
637.857
636.501
635.342
634.379
633.607
633.035
632.684
632.287
3810.97
3810.68
3810.09
3809.21
3808.03
3806.56
3804.79
3802.73
3800.37
3797.72
3794.78
3791.54
3788.01
3784.18
3780.06
3775.65
3770.94
3765.94
3760.65
3755.06
3749.18
3743.01
3736.54
3729.79
3722.74
3715.4
3707.77
3699.84
3691.63
3683.13
3674.34
3665.26
3655.89
3646.23
3636.29
3626.06
3615.54
3604.74
3593.66
3582.29
3570.64
3558.71
3546.5
3534.01
3521.24
3508.19
3494.87
3481.28
3467.41
3453.27
3438.87
3424.19
3409.25
3394.05
3378.58
3362.85
3346.87
3330.63
3314.14
3297.39
3280.4
3263.16
3245.68
3227.96
3210
3191.81
3173.39
3154.74
3135.87
3116.78
3097.47
3077.94
3058.21
3038.28
3018.14
2997.81
2977.29
2956.58
2935.69
2914.62
2893.38
2871.97
2850.4
2828.67
2806.8
2784.78
2762.62
2740.33
2717.91
2695.37
2672.72
2649.96
2627.11
2604.16
2581.12
2558
2534.82
2511.56
2488.26
2464.9
2441.5
2418.07
2394.62
2371.14
2347.66
2324.18
2300.71
2277.26
2253.83
2230.44
2207.09
2183.79
2160.56
2137.39
2114.31
2091.31
2068.42
2045.63
2022.95
2000.41
1977.99
1955.73
1933.61
1911.66
1889.89
1868.29
1846.88
1825.68
1804.68
1783.9
1763.35
1743.04
1722.96
1703.14
1683.59
1664.3
1645.29
1626.56
1608.13
1590
1572.18
1554.67
1537.49
1520.64
1504.12
1487.95
1472.13
1456.66
1441.55
1426.81
1412.44
1398.45
1384.84
1371.61
1358.77
1346.32
1334.27
1322.62
1311.36
1300.51
1290.07
1280.03
1270.4
1261.18
1252.37
1243.97
1235.98
1228.43
1221.21
1214.42
1208.04
1202.06
1196.48
1191.29
1186.5
1182.09
1178.07
1174.42
1171.15
1168.24
1165.7
1163.51
1161.66
1160.16
1158.99
1158.15
1157.63
1157.41
1157.5
1157.87
1158.53
1159.47
1160.66
1162.11
1163.79
1165.71
1167.85
1170.2
1172.74
1175.47
1178.37
1181.43
1184.64
1187.99
1191.46
1195.03
1198.71
1202.47
1206.31
1210.2
1214.14
1218.1
1222.09
1226.09
1230.08
1234.05
1237.98
1241.87
1245.7
1249.46
1253.14
1256.72
1260.19
1263.55
1266.77
1269.85
1272.78
1275.54
1278.13
1280.53
1282.74
1284.75
1286.54
1288.12
1289.46
1290.57
1291.43
1292.04
1292.4
1292.49
1292.31
1291.86
1291.13
1290.11
1288.81
1287.23
1285.35
1283.18
1280.72
1277.96
1274.9
1271.55
1267.91
1263.98
1259.75
1255.24
1250.44
1245.36
1240
1234.37
1228.47
1222.31
1215.89
1209.22
1202.31
1195.16
1187.77
1180.17
1172.35
1164.33
1156.11
1147.71
1139.13
1130.37
1121.47
1112.41
1103.22
1093.89
1084.46
1074.91
1065.27
1055.55
1045.75
1035.9
1025.99
1016.04
1006.05
996.055
986.047
976.04
966.045
956.073
946.134
936.236
926.391
916.606
906.891
897.256
887.707
878.255
868.906
859.668
850.55
841.557
832.696
823.975
815.398
806.973
798.703
790.595
782.653
774.882
767.285
759.867
752.632
745.582
738.72
732.05
725.574
719.293
713.211
707.328
701.646
696.167
690.891
685.82
680.954
676.294
671.84
667.592
663.551
659.716
656.088
652.666
649.449
646.439
643.633
641.031
638.634
636.44
634.449
632.66
631.073
629.687
628.502
627.517
626.729
626.143
625.784
625.373
3816.31
3816.01
3815.42
3814.54
3813.36
3811.89
3810.12
3808.06
3805.71
3803.06
3800.11
3796.87
3793.34
3789.52
3785.4
3780.98
3776.27
3771.27
3765.98
3760.39
3754.51
3748.33
3741.87
3735.11
3728.06
3720.71
3713.08
3705.15
3696.93
3688.43
3679.63
3670.54
3661.16
3651.5
3641.54
3631.3
3620.78
3609.96
3598.86
3587.48
3575.81
3563.86
3551.63
3539.12
3526.33
3513.26
3499.92
3486.29
3472.4
3458.23
3443.79
3429.08
3414.11
3398.86
3383.36
3367.59
3351.56
3335.27
3318.73
3301.94
3284.89
3267.6
3250.06
3232.28
3214.26
3196
3177.52
3158.8
3139.85
3120.68
3101.29
3081.69
3061.88
3041.86
3021.63
3001.21
2980.59
2959.78
2938.79
2917.62
2896.27
2874.76
2853.08
2831.24
2809.25
2787.11
2764.83
2742.41
2719.87
2697.2
2674.42
2651.53
2628.53
2605.44
2582.27
2559.01
2535.67
2512.27
2488.82
2465.31
2441.76
2418.17
2394.56
2370.93
2347.28
2323.64
2300.01
2276.39
2252.8
2229.24
2205.72
2182.26
2158.86
2135.52
2112.27
2089.11
2066.04
2043.08
2020.24
1997.53
1974.95
1952.51
1930.23
1908.12
1886.18
1864.42
1842.86
1821.49
1800.34
1779.41
1758.7
1738.24
1718.02
1698.05
1678.36
1658.93
1639.78
1620.93
1602.37
1584.11
1566.17
1548.55
1531.25
1514.29
1497.67
1481.4
1465.48
1449.93
1434.73
1419.91
1405.47
1391.4
1377.73
1364.44
1351.55
1339.05
1326.96
1315.26
1303.98
1293.11
1282.64
1272.59
1262.95
1253.73
1244.92
1236.53
1228.55
1220.98
1213.83
1207.08
1200.74
1194.81
1189.28
1184.15
1179.42
1175.08
1171.13
1167.56
1164.38
1161.56
1159.11
1157.02
1155.29
1153.9
1152.85
1152.13
1151.73
1151.65
1151.87
1152.39
1153.19
1154.27
1155.62
1157.22
1159.07
1161.15
1163.46
1165.97
1168.69
1171.59
1174.67
1177.91
1181.31
1184.83
1188.49
1192.26
1196.12
1200.07
1204.09
1208.18
1212.3
1216.46
1220.64
1224.83
1229.01
1233.16
1237.29
1241.36
1245.38
1249.32
1253.18
1256.94
1260.58
1264.11
1267.5
1270.75
1273.84
1276.76
1279.51
1282.06
1284.42
1286.57
1288.5
1290.21
1291.68
1292.91
1293.89
1294.61
1295.07
1295.26
1295.17
1294.81
1294.16
1293.22
1291.99
1290.46
1288.64
1286.52
1284.09
1281.37
1278.34
1275.01
1271.38
1267.45
1263.23
1258.71
1253.89
1248.79
1243.4
1237.73
1231.79
1225.58
1219.1
1212.37
1205.38
1198.15
1190.69
1183
1175.08
1166.96
1158.63
1150.11
1141.41
1132.54
1123.5
1114.31
1104.97
1095.51
1085.92
1076.22
1066.43
1056.55
1046.59
1036.56
1026.48
1016.36
1006.2
996.022
985.833
975.645
965.467
955.31
945.184
935.1
925.066
915.092
905.189
895.363
885.626
875.984
866.446
857.02
847.714
838.534
829.488
820.582
811.823
803.216
794.767
786.481
778.363
770.418
762.651
755.064
747.663
740.45
733.429
726.602
719.972
713.541
707.312
701.286
695.466
689.851
684.445
679.247
674.259
669.481
664.913
660.557
656.412
652.478
648.756
645.245
641.944
638.855
635.976
633.306
630.846
628.595
626.552
624.716
623.088
621.666
620.451
619.442
618.634
618.033
617.665
617.238
3822.4
3822.1
3821.52
3820.63
3819.46
3817.98
3816.22
3814.16
3811.8
3809.15
3806.21
3802.97
3799.44
3795.61
3791.49
3787.08
3782.37
3777.37
3772.07
3766.48
3760.6
3754.42
3747.95
3741.19
3734.14
3726.79
3719.15
3711.22
3703
3694.48
3685.68
3676.58
3667.19
3657.52
3647.55
3637.3
3626.76
3615.93
3604.82
3593.42
3581.73
3569.76
3557.51
3544.97
3532.16
3519.06
3505.69
3492.04
3478.11
3463.91
3449.43
3434.68
3419.66
3404.38
3388.83
3373.01
3356.93
3340.59
3324
3307.15
3290.04
3272.68
3255.08
3237.23
3219.14
3200.81
3182.24
3163.44
3144.42
3125.16
3105.69
3085.99
3066.08
3045.96
3025.64
3005.11
2984.38
2963.47
2942.36
2921.07
2899.61
2877.97
2856.16
2834.19
2812.07
2789.79
2767.37
2744.81
2722.13
2699.31
2676.38
2653.33
2630.18
2606.93
2583.59
2560.17
2536.67
2513.1
2489.47
2465.79
2442.06
2418.29
2394.5
2370.69
2346.86
2323.03
2299.21
2275.4
2251.62
2227.87
2204.16
2180.51
2156.91
2133.39
2109.94
2086.58
2063.32
2040.17
2017.13
1994.22
1971.45
1948.83
1926.36
1904.06
1881.93
1859.98
1838.23
1816.69
1795.36
1774.24
1753.37
1732.73
1712.34
1692.21
1672.35
1652.76
1633.46
1614.45
1595.75
1577.35
1559.27
1541.51
1524.09
1507
1490.26
1473.88
1457.85
1442.19
1426.9
1411.98
1397.45
1383.31
1369.55
1356.2
1343.24
1330.69
1318.55
1306.81
1295.49
1284.59
1274.1
1264.03
1254.39
1245.16
1236.36
1227.98
1220.02
1212.48
1205.35
1198.64
1192.35
1186.47
1181
1175.94
1171.28
1167.02
1163.15
1159.68
1156.59
1153.88
1151.54
1149.57
1147.96
1146.7
1145.78
1145.2
1144.95
1145.02
1145.4
1146.08
1147.05
1148.3
1149.82
1151.6
1153.64
1155.91
1158.4
1161.11
1164.03
1167.13
1170.42
1173.86
1177.47
1181.21
1185.07
1189.06
1193.14
1197.31
1201.55
1205.85
1210.2
1214.58
1218.97
1223.38
1227.77
1232.15
1236.49
1240.78
1245.01
1249.16
1253.22
1257.19
1261.04
1264.76
1268.35
1271.79
1275.06
1278.17
1281.09
1283.82
1286.35
1288.66
1290.75
1292.61
1294.23
1295.6
1296.71
1297.56
1298.14
1298.45
1298.47
1298.2
1297.65
1296.79
1295.64
1294.18
1292.42
1290.36
1287.98
1285.29
1282.29
1278.99
1275.37
1271.45
1267.22
1262.69
1257.86
1252.73
1247.31
1241.6
1235.6
1229.33
1222.79
1215.98
1208.91
1201.6
1194.03
1186.24
1178.21
1169.97
1161.52
1152.87
1144.03
1135.01
1125.82
1116.48
1106.98
1097.35
1087.59
1077.72
1067.74
1057.67
1047.53
1037.31
1027.03
1016.71
1006.35
995.965
985.569
975.171
964.781
954.41
944.07
933.769
923.518
913.326
903.205
893.161
883.205
873.345
863.59
853.947
844.424
835.029
825.769
816.651
807.681
798.865
790.209
781.718
773.399
765.254
757.29
749.509
741.917
734.516
727.31
720.303
713.496
706.892
700.494
694.304
688.323
682.554
676.996
671.652
666.523
661.609
656.911
652.43
648.165
644.118
640.287
636.673
633.277
630.097
627.133
624.386
621.853
619.536
617.434
615.545
613.869
612.406
611.157
610.12
609.29
608.672
608.293
607.846
3829.25
3828.96
3828.37
3827.48
3826.31
3824.83
3823.07
3821.01
3818.65
3816.01
3813.06
3809.83
3806.29
3802.47
3798.35
3793.93
3789.23
3784.22
3778.93
3773.34
3767.45
3761.28
3754.8
3748.04
3740.98
3733.63
3725.99
3718.05
3709.82
3701.3
3692.49
3683.38
3673.99
3664.3
3654.32
3644.06
3633.5
3622.66
3611.52
3600.1
3588.4
3576.41
3564.13
3551.57
3538.73
3525.6
3512.19
3498.51
3484.54
3470.3
3455.79
3441
3425.93
3410.6
3395
3379.13
3363
3346.6
3329.94
3313.02
3295.85
3278.42
3260.75
3242.82
3224.65
3206.24
3187.59
3168.7
3149.57
3130.22
3110.65
3090.85
3070.83
3050.6
3030.16
3009.52
2988.67
2967.63
2946.4
2924.98
2903.37
2881.6
2859.65
2837.53
2815.26
2792.83
2770.25
2747.54
2724.68
2701.7
2678.6
2655.38
2632.05
2608.62
2585.1
2561.49
2537.8
2514.04
2490.22
2466.34
2442.41
2418.44
2394.45
2370.43
2346.39
2322.35
2298.32
2274.3
2250.3
2226.34
2202.41
2178.54
2154.72
2130.98
2107.31
2083.73
2060.25
2036.88
2013.63
1990.5
1967.51
1944.67
1921.98
1899.46
1877.12
1854.97
1833.01
1811.26
1789.72
1768.41
1747.33
1726.5
1705.92
1685.6
1665.55
1645.79
1626.31
1607.13
1588.25
1569.69
1551.46
1533.55
1515.97
1498.75
1481.87
1465.36
1449.2
1433.42
1418.02
1403
1388.37
1374.14
1360.3
1346.87
1333.84
1321.22
1309.02
1297.24
1285.88
1274.94
1264.43
1254.34
1244.68
1235.45
1226.65
1218.28
1210.34
1202.82
1195.74
1189.07
1182.83
1177.01
1171.61
1166.62
1162.05
1157.88
1154.11
1150.74
1147.76
1145.17
1142.96
1141.12
1139.64
1138.53
1137.77
1137.35
1137.26
1137.5
1138.06
1138.92
1140.08
1141.52
1143.24
1145.23
1147.47
1149.95
1152.67
1155.6
1158.74
1162.07
1165.59
1169.27
1173.11
1177.09
1181.2
1185.43
1189.75
1194.17
1198.66
1203.21
1207.8
1212.43
1217.08
1221.73
1226.37
1230.99
1235.58
1240.11
1244.58
1248.97
1253.27
1257.47
1261.55
1265.5
1269.31
1272.96
1276.45
1279.77
1282.89
1285.82
1288.54
1291.04
1293.31
1295.34
1297.12
1298.65
1299.92
1300.91
1301.63
1302.06
1302.21
1302.06
1301.6
1300.85
1299.78
1298.41
1296.71
1294.71
1292.38
1289.74
1286.78
1283.5
1279.9
1275.98
1271.75
1267.21
1262.35
1257.19
1251.73
1245.97
1239.92
1233.58
1226.96
1220.07
1212.91
1205.49
1197.82
1189.9
1181.75
1173.38
1164.78
1155.98
1146.99
1137.8
1128.44
1118.92
1109.24
1099.42
1089.47
1079.39
1069.21
1058.93
1048.57
1038.13
1027.63
1017.08
1006.49
995.874
985.241
974.604
963.974
953.36
942.775
932.229
921.731
911.292
900.923
890.631
880.427
870.319
860.317
850.428
840.66
831.021
821.518
812.159
802.949
793.896
785.006
776.283
767.733
759.362
751.174
743.173
735.364
727.751
720.336
713.123
706.116
699.316
692.726
686.349
680.186
674.24
668.511
663.002
657.713
652.645
647.798
643.175
638.775
634.598
630.645
626.915
623.409
620.127
617.068
614.231
611.618
609.226
607.056
605.107
603.378
601.869
600.581
599.512
598.659
598.02
597.629
597.161
3836.86
3836.56
3835.98
3835.09
3833.92
3832.44
3830.68
3828.62
3826.27
3823.62
3820.68
3817.44
3813.91
3810.08
3805.97
3801.55
3796.84
3791.84
3786.54
3780.95
3775.07
3768.89
3762.42
3755.65
3748.59
3741.23
3733.58
3725.64
3717.41
3708.88
3700.06
3690.94
3681.54
3671.84
3661.85
3651.57
3641
3630.14
3618.99
3607.55
3595.82
3583.8
3571.5
3558.91
3546.04
3532.88
3519.44
3505.72
3491.71
3477.43
3462.87
3448.03
3432.92
3417.53
3401.88
3385.95
3369.75
3353.29
3336.57
3319.58
3302.33
3284.83
3267.07
3249.06
3230.8
3212.29
3193.55
3174.56
3155.33
3135.88
3116.19
3096.28
3076.14
3055.79
3035.22
3014.45
2993.47
2972.29
2950.91
2929.34
2907.59
2885.66
2863.55
2841.27
2818.83
2796.23
2773.48
2750.59
2727.55
2704.38
2681.09
2657.68
2634.15
2610.52
2586.79
2562.98
2539.08
2515.1
2491.06
2466.96
2442.81
2418.62
2394.4
2370.15
2345.88
2321.61
2297.34
2273.08
2248.84
2224.63
2200.47
2176.35
2152.29
2128.3
2104.38
2080.56
2056.83
2033.21
2009.71
1986.34
1963.11
1940.02
1917.1
1894.34
1871.76
1849.37
1827.18
1805.19
1783.43
1761.89
1740.59
1719.54
1698.74
1678.21
1657.96
1637.99
1618.31
1598.94
1579.88
1561.13
1542.72
1524.64
1506.9
1489.51
1472.49
1455.82
1439.53
1423.62
1408.09
1392.95
1378.21
1363.87
1349.94
1336.42
1323.31
1310.62
1298.36
1286.52
1275.11
1264.14
1253.59
1243.49
1233.81
1224.58
1215.78
1207.43
1199.51
1192.02
1184.97
1178.36
1172.17
1166.42
1161.09
1156.19
1151.7
1147.64
1143.98
1140.72
1137.87
1135.41
1133.34
1131.65
1130.33
1129.38
1128.79
1128.54
1128.64
1129.07
1129.83
1130.9
1132.27
1133.93
1135.87
1138.09