/*--------------------------------*- C++ -*----------------------------------*\
| =========                 |                                                 |
| \\      /  F ield         | OpenFOAM: The Open Source CFD Toolbox           |
|  \\    /   O peration     | Version:  v2006                                 |
|   \\  /    A nd           | Website:  www.openfoam.com                      |
|    \\/     M anipulation  |                                                 |
\*---------------------------------------------------------------------------*/
FoamFile
{
    version     2.0;
    format      ascii;
    class       surfaceScalarField;
    location    "2";
    object      phi;
}
// * * * * * * * * * * * * * * * * * * * * * * * * * * * * * * * * * * * * * //

dimensions      [0 3 -1 0 0 0 0];
oriented        oriented;


internalField   nonuniform List<scalar> 
104500
(
-1.74029e-05
1.74029e-05
-3.48596e-05
1.74567e-05
-5.22896e-05
1.743e-05
-6.96798e-05
1.73902e-05
-8.70165e-05
1.73366e-05
-0.000104286
1.72694e-05
-0.000121475
1.71886e-05
-0.000138569
1.70943e-05
-0.000155555
1.69866e-05
-0.000172421
1.68655e-05
-0.000189152
1.6731e-05
-0.000205735
1.65833e-05
-0.000222158
1.64223e-05
-0.000238406
1.62482e-05
-0.000254467
1.6061e-05
-0.000270328
1.58608e-05
-0.000285975
1.56477e-05
-0.000301397
1.54217e-05
-0.00031658
1.51829e-05
-0.000331511
1.49315e-05
-0.000346179
1.46675e-05
-0.00036057
1.4391e-05
-0.000374672
1.41022e-05
-0.000388473
1.38012e-05
-0.000401961
1.3488e-05
-0.000415124
1.31629e-05
-0.00042795
1.28259e-05
-0.000440427
1.24772e-05
-0.000452544
1.2117e-05
-0.00046429
1.17453e-05
-0.000475652
1.13624e-05
-0.000486621
1.09685e-05
-0.000497184
1.05636e-05
-0.000507332
1.0148e-05
-0.000517054
9.72181e-06
-0.000526339
9.28529e-06
-0.000535178
8.83862e-06
-0.00054356
8.38199e-06
-0.000551476
7.91561e-06
-0.000558915
7.4397e-06
-0.00056587
6.95449e-06
-0.00057233
6.46021e-06
-0.000578287
5.95708e-06
-0.000583732
5.44536e-06
-0.000588658
4.92531e-06
-0.000593055
4.3972e-06
-0.000596916
3.86136e-06
-0.000600235
3.31821e-06
-0.000603003
2.76845e-06
-0.000605216
2.21301e-06
-0.000606867
1.65142e-06
-0.000607951
1.08348e-06
-0.00060846
5.08711e-07
-0.000608363
-9.64407e-08
-0.000607683
-6.79951e-07
-0.000606405
-1.27866e-06
-0.00060452
-1.88473e-06
-0.000602029
-2.4904e-06
-0.00059893
-3.09969e-06
-0.000595215
-3.71459e-06
-0.000590877
-4.33841e-06
-0.000585915
-4.96194e-06
-0.000580323
-5.59147e-06
-0.000574099
-6.22408e-06
-0.00056724
-6.8591e-06
-0.000559742
-7.49815e-06
-0.000551603
-8.13875e-06
-0.00054282
-8.7829e-06
-0.000533392
-9.42853e-06
-0.000523316
-1.00758e-05
-0.000512591
-1.07245e-05
-0.000501216
-1.1375e-05
-0.00048919
-1.20263e-05
-0.000476513
-1.26775e-05
-0.000463186
-1.3327e-05
-0.000449212
-1.39737e-05
-0.000434596
-1.46158e-05
-0.000419345
-1.52515e-05
-0.000403465
-1.58796e-05
-0.000386966
-1.64988e-05
-0.000369857
-1.71088e-05
-0.000352148
-1.7709e-05
-0.000333849
-1.82993e-05
-0.00031497
-1.88794e-05
-0.000295521
-1.94491e-05
-0.000275512
-2.00082e-05
-0.000254956
-2.05562e-05
-0.000233863
-2.10928e-05
-0.000212246
-2.16174e-05
-0.000190116
-2.21298e-05
-0.000167486
-2.26295e-05
-0.00014437
-2.31162e-05
-0.000120781
-2.35893e-05
-9.67326e-05
-2.40484e-05
-7.22395e-05
-2.44932e-05
-4.73165e-05
-2.4923e-05
-2.19791e-05
-2.53374e-05
3.75695e-06
-2.5736e-05
2.98755e-05
-2.61185e-05
5.63603e-05
-2.64848e-05
8.31944e-05
-2.68342e-05
0.000110362
-2.71673e-05
0.000137844
-2.7482e-05
0.000165621
-2.77775e-05
0.000193675
-2.80541e-05
0.000221987
-2.83118e-05
0.000250538
-2.85504e-05
0.000279307
-2.87697e-05
0.000308275
-2.89675e-05
0.000337419
-2.91439e-05
0.00036672
-2.93011e-05
0.000396156
-2.94367e-05
0.000425707
-2.95508e-05
0.00045535
-2.9643e-05
0.000485062
-2.97119e-05
0.00051482
-2.97578e-05
0.000544601
-2.97812e-05
0.000574382
-2.97811e-05
0.00060414
-2.97578e-05
0.000633852
-2.97122e-05
0.000663493
-2.96403e-05
0.000693037
-2.95445e-05
0.000722461
-2.94238e-05
0.00075174
-2.92787e-05
0.000780848
-2.91085e-05
0.000809762
-2.89143e-05
0.000838449
-2.86863e-05
0.000866889
-2.84398e-05
0.000895055
-2.81665e-05
0.000922922
-2.78669e-05
0.000950462
-2.75403e-05
0.000977649
-2.71866e-05
0.00100445
-2.68057e-05
0.00103085
-2.63989e-05
0.00105683
-2.59729e-05
0.00108233
-2.55042e-05
0.00110735
-2.50174e-05
0.00113185
-2.45028e-05
0.00115581
-2.39614e-05
0.0011792
-2.3391e-05
0.001202
-2.2794e-05
0.00122417
-2.21685e-05
0.00124568
-2.15169e-05
0.00126652
-2.08377e-05
0.00128665
-2.01321e-05
0.00130605
-1.93963e-05
0.00132468
-1.86349e-05
0.00134253
-1.78458e-05
0.00135956
-1.70304e-05
0.00137575
-1.6187e-05
0.00139106
-1.53165e-05
0.00140548
-1.44193e-05
0.00141898
-1.34953e-05
0.00143152
-1.25449e-05
0.00144309
-1.15684e-05
0.00145366
-1.05659e-05
0.00146319
-9.53745e-06
0.00147168
-8.48374e-06
0.00147908
-7.40487e-06
0.00148538
-6.30081e-06
0.00149056
-5.17237e-06
0.00149458
-4.01934e-06
0.00149742
-2.84108e-06
0.00149905
-1.63421e-06
0.00149944
-3.87501e-07
0.00149853
9.07799e-07
0.00149635
2.18565e-06
0.00149285
3.49689e-06
0.001488
4.84879e-06
0.00148178
6.21558e-06
0.00147418
7.6046e-06
0.00146517
9.01069e-06
0.00145473
1.04397e-05
0.00144285
1.18797e-05
0.00142951
1.33361e-05
0.00141471
1.48063e-05
0.00139842
1.62889e-05
0.00138064
1.77795e-05
0.00136136
1.9282e-05
0.00134056
2.07931e-05
0.00131824
2.23222e-05
0.00129436
2.38854e-05
0.00126888
2.54808e-05
0.00124183
2.70484e-05
0.00121339
2.84331e-05
0.00118397
2.94249e-05
0.00115407
2.99019e-05
0.00112409
2.99757e-05
0.00109412
2.99692e-05
0.00106392
3.02059e-05
0.0010331
3.08192e-05
0.00100135
3.17482e-05
0.000968491
3.2858e-05
0.000934438
3.40532e-05
0.000899147
3.52903e-05
0.0008626
3.65468e-05
0.000824792
3.7808e-05
0.00078573
3.90621e-05
0.000745434
4.02959e-05
0.000703938
4.14966e-05
0.000661282
4.26554e-05
0.000617512
4.37705e-05
0.000572667
4.48454e-05
0.000526779
4.58874e-05
0.000479877
4.69023e-05
0.000431987
4.78902e-05
0.000383136
4.88506e-05
0.000333356
4.97805e-05
0.000282674
5.06816e-05
0.00023112
5.15542e-05
0.000178724
5.23961e-05
0.000125517
5.32067e-05
7.15298e-05
5.39872e-05
1.67941e-05
5.47358e-05
-3.86657e-05
5.54597e-05
-9.47921e-05
5.61264e-05
-0.000151574
5.67823e-05
-0.000208981
5.74068e-05
-0.000266978
5.79967e-05
-0.000325526
5.85485e-05
-0.000384601
5.90749e-05
-0.000444154
5.95524e-05
-0.000504151
5.99971e-05
-0.000564575
6.04239e-05
-0.000625386
6.08115e-05
-0.000686549
6.1163e-05
-0.000748032
6.14834e-05
-0.000809803
6.17708e-05
-0.000871829
6.20257e-05
-0.000934078
6.22494e-05
-0.00099652
6.24414e-05
-0.00105912
6.26002e-05
-0.00112185
6.27287e-05
-0.00118468
6.28295e-05
-0.00124758
6.2897e-05
-0.00131051
6.29349e-05
-0.00137345
6.29435e-05
-0.00143638
6.2922e-05
-0.00149925
6.28708e-05
-0.00156204
6.279e-05
-0.00162472
6.26794e-05
-0.00168725
6.2539e-05
-0.00174962
6.23689e-05
-0.00181179
6.21689e-05
-0.00187373
6.19388e-05
-0.00193541
6.16784e-05
-0.0019968
6.13874e-05
-0.00205786
6.10654e-05
-0.00211857
6.07118e-05
-0.0021789
6.03261e-05
-0.00223881
5.99078e-05
-0.00229826
5.94562e-05
-0.00235723
5.89706e-05
-0.00241569
5.84503e-05
-0.00247358
5.78943e-05
-0.00253088
5.73019e-05
-0.00258755
5.66721e-05
-0.00264356
5.6004e-05
-0.00269885
5.52965e-05
-0.0027534
5.45485e-05
-0.00280716
5.37589e-05
-0.00286009
5.29269e-05
-0.00291214
5.2052e-05
-0.00296327
5.11346e-05
-0.00301345
5.01767e-05
-0.00306263
4.91768e-05
-0.00311075
4.81259e-05
-0.00315778
4.70215e-05
-0.00320364
4.58641e-05
-0.00324829
4.46546e-05
-0.00329169
4.33925e-05
-0.00333376
4.20772e-05
-0.00337447
4.0708e-05
-0.00341376
3.92842e-05
-0.00345156
3.78051e-05
-0.00348783
3.627e-05
-0.00352251
3.46782e-05
-0.00355554
3.30293e-05
-0.00358686
3.13228e-05
-0.00361642
2.95584e-05
-0.00364416
2.77357e-05
-0.00367001
2.58542e-05
-0.00369392
2.3913e-05
-0.00371583
2.19102e-05
-0.00373568
1.98434e-05
-0.00375338
1.7707e-05
-0.00376887
1.54816e-05
-0.00378198
1.31118e-05
-0.00379246
1.04777e-05
-0.00379983
7.37616e-06
-0.00380345
3.62342e-06
-0.00380288
-5.71948e-07
-0.00379869
-4.19221e-06
-0.0037913
-7.39024e-06
-0.00378102
-1.02764e-05
-0.00376802
-1.30064e-05
-0.00375238
-1.56357e-05
-0.00373419
-1.81956e-05
-0.00371347
-2.07116e-05
-0.00369027
-2.31996e-05
-0.00366461
-2.5668e-05
-0.00363649
-2.81212e-05
-0.00360593
-3.05606e-05
-0.00357294
-3.29854e-05
-0.00353754
-3.53948e-05
-0.00349976
-3.7788e-05
-0.00345959
-4.01644e-05
-0.00341707
-4.25234e-05
-0.0033722
-4.48645e-05
-0.00332502
-4.71866e-05
-0.00327553
-4.94885e-05
-0.00322376
-5.17682e-05
-0.00316974
-5.40238e-05
-0.00311348
-5.62532e-05
-0.00305503
-5.8454e-05
-0.00299441
-6.06236e-05
-0.00293165
-6.27596e-05
-0.00286679
-6.48594e-05
-0.00279987
-6.69207e-05
-0.00273093
-6.89411e-05
-0.00266001
-7.09184e-05
-0.00258716
-7.28504e-05
-0.00251242
-7.4735e-05
-0.00243585
-7.65702e-05
-0.0023575
-7.8354e-05
-0.00227741
-8.00848e-05
-0.00219565
-8.17605e-05
-0.00211227
-8.33796e-05
-0.00202733
-8.49404e-05
-0.00194089
-8.64413e-05
-0.00185301
-8.78809e-05
-0.00176375
-8.92577e-05
-0.00167318
-9.05704e-05
-0.00158136
-9.18176e-05
-0.00148837
-9.29982e-05
-0.00139426
-9.41108e-05
-0.0012991
-9.51546e-05
-0.00120297
-9.61284e-05
-0.00110594
-9.70314e-05
-0.00100808
-9.78626e-05
-0.000909457
-9.86216e-05
-0.000810148
-9.93085e-05
-0.000710226
-9.99225e-05
-0.000609775
-0.000100451
-0.000508924
-0.000100852
-0.000407805
-0.000101119
-0.000306055
-0.000101749
-0.00020139
-0.000104665
-9.10996e-05
-0.000110291
-9.10996e-05
-2.11214e-05
3.85243e-05
-4.23049e-05
3.86403e-05
-6.34544e-05
3.85795e-05
-8.45565e-05
3.84923e-05
-0.000105596
3.83764e-05
-0.000126559
3.82318e-05
-0.000147429
3.80585e-05
-0.000168191
3.78565e-05
-0.00018883
3.76259e-05
-0.000209331
3.73667e-05
-0.000229679
3.7079e-05
-0.000249859
3.6763e-05
-0.000269856
3.64189e-05
-0.000289654
3.60466e-05
-0.000309239
3.56465e-05
-0.000328597
3.52186e-05
-0.000347713
3.47632e-05
-0.000366571
3.42804e-05
-0.000385159
3.37705e-05
-0.000403461
3.32337e-05
-0.000421464
3.26703e-05
-0.000439153
3.20804e-05
-0.000456516
3.14644e-05
-0.000473537
3.08225e-05
-0.000490204
3.0155e-05
-0.000506503
2.94623e-05
-0.000522422
2.87446e-05
-0.000537947
2.80023e-05
-0.000553066
2.72357e-05
-0.000567765
2.64452e-05
-0.000582034
2.56312e-05
-0.00059586
2.47941e-05
-0.00060923
2.39342e-05
-0.000622135
2.30521e-05
-0.000634561
2.21481e-05
-0.000646498
2.12228e-05
-0.000657936
2.02765e-05
-0.000668864
1.93097e-05
-0.000679271
1.83231e-05
-0.000689149
1.7317e-05
-0.000698486
1.6292e-05
-0.000707275
1.52487e-05
-0.000715505
1.41876e-05
-0.000723169
1.31094e-05
-0.000730259
1.20146e-05
-0.000736765
1.09038e-05
-0.000742682
9.7778e-06
-0.000748001
8.63718e-06
-0.000752715
7.48269e-06
-0.000756817
6.31499e-06
-0.0007603
5.13455e-06
-0.000763158
3.94185e-06
-0.000765387
2.73735e-06
-0.000767005
1.5211e-06
-0.000767979
2.9465e-07
-0.000768301
-9.56575e-07
-0.00076799
-2.1961e-06
-0.000767036
-3.44427e-06
-0.000765437
-4.6982e-06
-0.00076319
-5.9625e-06
-0.000760295
-7.23277e-06
-0.000756746
-8.51142e-06
-0.000752551
-9.78586e-06
-0.000747707
-1.10682e-05
-0.000742214
-1.23524e-05
-0.000736074
-1.36377e-05
-0.000729293
-1.492e-05
-0.000721871
-1.62047e-05
-0.000713814
-1.74856e-05
-0.000705124
-1.87663e-05
-0.000695806
-2.00426e-05
-0.000685866
-2.13146e-05
-0.000675311
-2.25814e-05
-0.000664146
-2.38421e-05
-0.000652378
-2.50955e-05
-0.00064001
-2.63415e-05
-0.000627048
-2.75776e-05
-0.000613496
-2.88038e-05
-0.000599357
-3.00183e-05
-0.000584636
-3.12202e-05
-0.000569336
-3.24084e-05
-0.000553463
-3.35819e-05
-0.000537023
-3.47397e-05
-0.000520022
-3.58808e-05
-0.000502467
-3.70041e-05
-0.000484366
-3.81088e-05
-0.000465728
-3.91941e-05
-0.000446562
-4.02587e-05
-0.000426878
-4.13018e-05
-0.000406685
-4.23224e-05
-0.000385995
-4.33198e-05
-0.000364818
-4.42928e-05
-0.000343167
-4.52405e-05
-0.000321054
-4.61619e-05
-0.000298491
-4.70561e-05
-0.000275491
-4.79224e-05
-0.000252069
-4.87598e-05
-0.000228238
-4.95674e-05
-0.000204012
-5.03443e-05
-0.000179407
-5.10898e-05
-0.000154438
-5.1803e-05
-0.000129122
-5.24832e-05
-0.000103475
-5.31292e-05
-7.75132e-05
-5.37394e-05
-5.12539e-05
-5.43134e-05
-2.47147e-05
-5.4851e-05
2.08605e-06
-5.53511e-05
2.91296e-05
-5.58132e-05
5.64005e-05
-5.62384e-05
8.38789e-05
-5.66223e-05
0.000111545
-5.69672e-05
0.000139379
-5.72708e-05
0.000167361
-5.75327e-05
0.00019547
-5.77518e-05
0.000223688
-5.793e-05
0.000251993
-5.80629e-05
0.000280359
-5.81474e-05
0.000308772
-5.81939e-05
0.000337208
-5.81936e-05
0.000365642
-5.81466e-05
0.000394057
-5.80545e-05
0.000422429
-5.79166e-05
0.000450735
-5.77302e-05
0.000478951
-5.74951e-05
0.000507056
-5.72132e-05
0.000535022
-5.68802e-05
0.000562843
-5.65076e-05
0.000590483
-5.60797e-05
0.000617917
-5.5601e-05
0.000645125
-5.50741e-05
0.000672083
-5.44983e-05
0.000698764
-5.38679e-05
0.000725151
-5.3193e-05
0.000751218
-5.24655e-05
0.000776931
-5.16864e-05
0.000802295
-5.08678e-05
0.000827264
-4.99866e-05
0.000851818
-4.9057e-05
0.000875936
-4.8079e-05
0.000899591
-4.70464e-05
0.000922763
-4.59653e-05
0.000945433
-4.48385e-05
0.000967574
-4.36585e-05
0.000989164
-4.24273e-05
0.00101018
-4.11462e-05
0.0010306
-3.982e-05
0.0010504
-3.84373e-05
0.00106957
-3.70085e-05
0.00108807
-3.55327e-05
0.00110589
-3.40084e-05
0.00112301
-3.24356e-05
0.00113941
-3.08153e-05
0.00115506
-2.91485e-05
0.00116995
-2.74359e-05
0.00118406
-2.5678e-05
0.00119737
-2.38752e-05
0.00120986
-2.20283e-05
0.00122151
-2.01381e-05
0.00123231
-1.82053e-05
0.00124224
-1.62313e-05
0.00125129
-1.42152e-05
0.00125943
-1.21585e-05
0.00126665
-1.00619e-05
0.00127294
-7.92447e-06
0.0012783
-5.75042e-06
0.00128275
-3.54446e-06
0.00128625
-1.31655e-06
0.00128882
9.35952e-07
0.00129044
3.22955e-06
0.0012911
5.55454e-06
0.00129079
7.90862e-06
0.00128951
1.02895e-05
0.00128725
1.2701e-05
0.001284
1.5133e-05
0.00127975
1.75865e-05
0.00127449
2.00667e-05
0.00126821
2.25662e-05
0.00126091
2.50822e-05
0.00125257
2.76148e-05
0.0012432
3.01663e-05
0.0012328
3.27263e-05
0.00122138
3.52988e-05
0.00120898
3.78874e-05
0.00119554
4.04894e-05
0.00118087
4.30972e-05
0.00116459
4.57026e-05
0.00114621
4.8286e-05
0.00112535
5.08356e-05
0.00110196
5.33599e-05
0.00107629
5.5874e-05
0.00104872
5.83929e-05
0.00101955
6.09205e-05
0.000988952
6.34521e-05
0.000957021
6.59841e-05
0.0009238
6.85107e-05
0.000889322
7.10251e-05
0.000853604
7.35264e-05
0.000816655
7.60113e-05
0.000778476
7.84743e-05
0.000739059
8.09138e-05
0.000698387
8.33278e-05
0.000656444
8.57129e-05
0.000613224
8.80653e-05
0.000568726
9.03852e-05
0.000522959
9.26693e-05
0.000475933
9.49166e-05
0.00042766
9.71232e-05
0.000378154
9.92873e-05
0.000327426
0.000101409
0.000275496
0.000103484
0.00022238
0.000105512
0.000168097
0.000107489
0.000112675
0.000109409
5.61306e-05
0.00011128
-1.50102e-06
0.000113091
-6.02282e-05
0.000114854
-0.00012001
0.000116564
-0.000180795
0.000118192
-0.000242557
0.000119759
-0.000305267
0.000121258
-0.000368895
0.000122702
-0.000433405
0.000124063
-0.000498761
0.000125352
-0.000564914
0.000126577
-0.000631827
0.000127725
-0.00069946
0.000128796
-0.000767767
0.00012979
-0.000836703
0.000130707
-0.00090622
0.000131542
-0.000976266
0.000132295
-0.00104679
0.000132968
-0.00111775
0.000133556
-0.00118908
0.00013406
-0.00126072
0.000134472
-0.00133262
0.000134799
-0.00140473
0.000135041
-0.00147698
0.000135193
-0.00154931
0.000135254
-0.00162166
0.000135223
-0.00169397
0.0001351
-0.00176618
0.000134884
-0.00183821
0.000134572
-0.00191001
0.000134165
-0.0019815
0.000133662
-0.00205262
0.000133061
-0.00212331
0.000132363
-0.00219349
0.000131565
-0.00226309
0.000130667
-0.00233204
0.000129669
-0.00240029
0.000128569
-0.00246775
0.000127367
-0.00253435
0.000126063
-0.00260004
0.000124654
-0.00266473
0.000123142
-0.00272836
0.000121525
-0.00279086
0.000119802
-0.00285216
0.000117974
-0.0029122
0.00011604
-0.0029709
0.000113999
-0.0030282
0.000111852
-0.00308404
0.000109598
-0.00313835
0.000107238
-0.00319107
0.00010477
-0.00324213
0.000102195
-0.00329147
9.9514e-05
-0.00333902
9.67261e-05
-0.00338472
9.38304e-05
-0.00342853
9.083e-05
-0.00347039
8.77271e-05
-0.00351026
8.4522e-05
-0.00354809
8.12155e-05
-0.00358382
7.78087e-05
-0.00361741
7.43032e-05
-0.00364883
7.07005e-05
-0.00367803
6.70022e-05
-0.00370497
6.32105e-05
-0.00372961
5.93274e-05
-0.00375194
5.53551e-05
-0.00377191
5.12962e-05
-0.00378951
4.71533e-05
-0.0038047
4.29295e-05
-0.00381748
3.86278e-05
-0.00382782
3.42522e-05
-0.00383571
2.98073e-05
-0.00384117
2.52984e-05
-0.00384419
2.07312e-05
-0.00384483
1.61163e-05
-0.00384319
1.14705e-05
-0.00383951
6.80582e-06
-0.00383431
2.17695e-06
-0.00382808
-2.6155e-06
-0.00382109
-7.55482e-06
-0.00381289
-1.23918e-05
-0.00380307
-1.72135e-05
-0.0037913
-2.20434e-05
-0.00377741
-2.68943e-05
-0.00376128
-3.1771e-05
-0.0037428
-3.667e-05
-0.00372193
-4.1584e-05
-0.00369863
-4.65041e-05
-0.00367287
-5.14222e-05
-0.00364466
-5.63318e-05
-0.003614
-6.12282e-05
-0.00358087
-6.61073e-05
-0.0035453
-7.09652e-05
-0.00350729
-7.57976e-05
-0.00346686
-8.06003e-05
-0.00342401
-8.53688e-05
-0.00337878
-9.00986e-05
-0.00333118
-9.47852e-05
-0.00328124
-9.94243e-05
-0.003229
-0.000104011
-0.00317448
-0.000108542
-0.00311772
-0.000113012
-0.00305876
-0.000117418
-0.00299763
-0.000121754
-0.00293437
-0.000126017
-0.00286903
-0.000130203
-0.00280164
-0.000134307
-0.00273226
-0.000138326
-0.00266092
-0.000142257
-0.00258767
-0.000146094
-0.00251257
-0.000149835
-0.00243567
-0.000153476
-0.00235701
-0.000157013
-0.00227665
-0.000160444
-0.00219465
-0.000163764
-0.00211106
-0.000166971
-0.00202593
-0.000170062
-0.00193934
-0.000173033
-0.00185134
-0.000175882
-0.00176199
-0.000178607
-0.00167136
-0.000181204
-0.00157951
-0.000183671
-0.0014865
-0.000186006
-0.0013924
-0.000188208
-0.00129728
-0.000190272
-0.00120121
-0.000192199
-0.00110426
-0.000193985
-0.00100649
-0.000195629
-0.000907985
-0.00019713
-0.000808804
-0.000198489
-0.000709023
-0.000199704
-0.000608725
-0.000200749
-0.000508038
-0.000201538
-0.000407093
-0.000202064
-0.00030551
-0.000203332
-0.000200979
-0.000209196
-9.08335e-05
-0.000220437
-0.000181933
-1.98853e-05
5.84096e-05
-3.98355e-05
5.85904e-05
-5.97564e-05
5.85005e-05
-7.96337e-05
5.83695e-05
-9.94519e-05
5.81946e-05
-0.000119196
5.79759e-05
-0.000138851
5.77134e-05
-0.000158402
5.74074e-05
-0.000177834
5.70579e-05
-0.000197132
5.66651e-05
-0.000216282
5.62292e-05
-0.00023527
5.57504e-05
-0.000254079
5.52288e-05
-0.000272698
5.46647e-05
-0.000291109
5.40583e-05
-0.000309301
5.34099e-05
-0.000327257
5.27198e-05
-0.000344965
5.19883e-05
-0.00036241
5.12156e-05
-0.000379579
5.04023e-05
-0.000396457
4.95485e-05
-0.000413031
4.86547e-05
-0.000429288
4.77213e-05
-0.000445214
4.67487e-05
-0.000460797
4.57374e-05
-0.000476022
4.46879e-05
-0.000490878
4.36005e-05
-0.000505352
4.24759e-05
-0.000519431
4.13146e-05
-0.000533103
4.01171e-05
-0.000546356
3.8884e-05
-0.000559178
3.76159e-05
-0.000571557
3.63135e-05
-0.000583482
3.49773e-05
-0.000594942
3.36081e-05
-0.000605926
3.22065e-05
-0.000616423
3.07733e-05
-0.000626422
2.93092e-05
-0.000635914
2.7815e-05
-0.000644888
2.62914e-05
-0.000653336
2.47392e-05
-0.000661246
2.31594e-05
-0.000668611
2.15527e-05
-0.000675422
1.992e-05
-0.00068167
1.82623e-05
-0.000687346
1.65804e-05
-0.000692444
1.48753e-05
-0.000696955
1.3148e-05
-0.000700871
1.13994e-05
-0.000704187
9.63033e-06
-0.000706894
7.84153e-06
-0.000708985
6.03353e-06
-0.000710454
4.20659e-06
-0.000711295
2.36157e-06
-0.00071151
5.09939e-07
-0.000711148
-1.31876e-06
-0.000710125
-3.21946e-06
-0.00070846
-5.10863e-06
-0.000706138
-7.02024e-06
-0.000703175
-8.92628e-06
-0.000699563
-1.08448e-05
-0.00069531
-1.27638e-05
-0.000690399
-1.46973e-05
-0.000684839
-1.66281e-05
-0.000678633
-1.85582e-05
-0.000671776
-2.04943e-05
-0.000664268
-2.24284e-05
-0.000656111
-2.43616e-05
-0.000647306
-2.62906e-05
-0.000637856
-2.82164e-05
-0.000627766
-3.01326e-05
-0.000617037
-3.20436e-05
-0.000605672
-3.39462e-05
-0.000593677
-3.58372e-05
-0.000581056
-3.77171e-05
-0.000567814
-3.95832e-05
-0.000553956
-4.14358e-05
-0.000539487
-4.32723e-05
-0.000524413
-4.50928e-05
-0.000508738
-4.68951e-05
-0.000492469
-4.86775e-05
-0.000475612
-5.04385e-05
-0.000458175
-5.21764e-05
-0.000440166
-5.38899e-05
-0.000421593
-5.55774e-05
-0.000402465
-5.72373e-05
-0.00038279
-5.88682e-05
-0.000362581
-6.04685e-05
-0.000341845
-6.20371e-05
-0.000320595
-6.35723e-05
-0.000298843
-6.50726e-05
-0.000276599
-6.65366e-05
-0.000253876
-6.79628e-05
-0.000230688
-6.93502e-05
-0.000207047
-7.0697e-05
-0.000182968
-7.20018e-05
-0.000158464
-7.32634e-05
-0.000133552
-7.44802e-05
-0.000108245
-7.56512e-05
-8.25594e-05
-7.67751e-05
-5.65116e-05
-7.78508e-05
-3.01177e-05
-7.88771e-05
-3.39349e-06
-7.98534e-05
2.3638e-05
-8.07709e-05
5.09636e-05
-8.1639e-05
7.85656e-05
-8.2453e-05
0.000106424
-8.32092e-05
0.000134519
-8.39083e-05
0.000162831
-8.45507e-05
0.000191344
-8.51352e-05
0.000220035
-8.5658e-05
0.000248882
-8.6118e-05
0.000277866
-8.65167e-05
0.000306967
-8.68526e-05
0.000336164
-8.71273e-05
0.000365418
-8.73169e-05
0.000394734
-8.74632e-05
0.000424077
-8.75372e-05
0.000453425
-8.75414e-05
0.000482756
-8.74779e-05
0.000512045
-8.73435e-05
0.000541268
-8.71394e-05
0.000570404
-8.68661e-05
0.000599427
-8.65186e-05
0.000628317
-8.61033e-05
0.000657042
-8.5605e-05
0.000685582
-8.50475e-05
0.000713916
-8.44134e-05
0.000742007
-8.36922e-05
0.000769842
-8.29094e-05
0.000797397
-8.20526e-05
0.000824643
-8.11143e-05
0.000851553
-8.01033e-05
0.000878106
-7.90185e-05
0.000904275
-7.78554e-05
0.000930028
-7.66208e-05
0.000955348
-7.53065e-05
0.000980208
-7.39163e-05
0.00100458
-7.24505e-05
0.00102844
-7.09083e-05
0.00105177
-6.92901e-05
0.00107453
-6.75978e-05
0.0010967
-6.58291e-05
0.00111825
-6.3986e-05
0.00113918
-6.20673e-05
0.00115943
-6.00742e-05
0.001179
-5.8011e-05
0.00119786
-5.58699e-05
0.00121599
-5.36577e-05
0.00123335
-5.13731e-05
0.00124994
-4.90173e-05
0.00126571
-4.65911e-05
0.00128066
-4.40941e-05
0.00129475
-4.15286e-05
0.00130797
-3.88948e-05
0.00132029
-3.61941e-05
0.00133168
-3.34269e-05
0.00134214
-3.05947e-05
0.00135163
-2.76986e-05
0.00136014
-2.474e-05
0.00136765
-2.17197e-05
0.00137413
-1.86396e-05
0.00137957
-1.54997e-05
0.00138394
-1.23014e-05
0.00138724
-9.0468e-06
0.00138943
-5.73558e-06
0.00139048
-2.3671e-06
0.00139045
9.71467e-07
0.00138923
4.44119e-06
0.00138683
7.95637e-06
0.00138325
1.14873e-05
0.00137846
1.50815e-05
0.00137247
1.86915e-05
0.00136525
2.23519e-05
0.0013568
2.60433e-05
0.0013471
2.97641e-05
0.00133615
3.3513e-05
0.00132395
3.72877e-05
0.00131047
4.10892e-05
0.00129574
4.48964e-05
0.00127975
4.87168e-05
0.00126251
5.25349e-05
0.00124406
5.63405e-05
0.00122442
6.01345e-05
0.00120357
6.39427e-05
0.00118146
6.78125e-05
0.00115798
7.17692e-05
0.00113301
7.58023e-05
0.00110653
7.98428e-05
0.00107858
8.38263e-05
0.00104925
8.77205e-05
0.00101862
9.15455e-05
0.000986745
9.53307e-05
0.000953635
9.90935e-05
0.000919302
0.000102844
0.00088375
0.000106578
0.00084698
0.000110296
0.000809003
0.000113989
0.000769824
0.000117653
0.000729448
0.00012129
0.000687879
0.000124897
0.000645122
0.000128469
0.000601189
0.000131999
0.000556091
0.000135484
0.000509841
0.000138919
0.00046245
0.000142308
0.000413938
0.000145635
0.000364325
0.0001489
0.000313628
0.000152106
0.000261863
0.00015525
0.000209053
0.000158322
0.000155218
0.000161324
0.000100376
0.000164251
4.45457e-05
0.000167111
-1.22486e-05
0.000169886
-6.99491e-05
0.000172554
-0.000128548
0.000175162
-0.000188035
0.000177679
-0.000248372
0.000180096
-0.000309532
0.000182418
-0.000371463
0.000184633
-0.000434157
0.000186758
-0.000497577
0.000188772
-0.000561681
0.000190681
-0.000626434
0.000192478
-0.000691801
0.000194163
-0.000757742
0.000195731
-0.000824214
0.000197179
-0.000891179
0.000198507
-0.000958593
0.00019971
-0.0010264
0.000200778
-0.00109457
0.000201727
-0.00116305
0.000202537
-0.00123179
0.00020321
-0.00130075
0.000203755
-0.00136986
0.000204159
-0.00143909
0.00020442
-0.00150838
0.000204538
-0.00157766
0.00020451
-0.0016469
0.000204335
-0.00171602
0.00020401
-0.00178499
0.000203533
-0.00185373
0.000202905
-0.00192219
0.000202122
-0.00199031
0.000201183
-0.00205803
0.000200088
-0.0021253
0.000198834
-0.00219206
0.000197422
-0.00225824
0.000195849
-0.00232378
0.000194116
-0.00238864
0.000192221
-0.00245274
0.000190165
-0.00251603
0.000187946
-0.00257845
0.000185564
-0.00263995
0.00018302
-0.00270046
0.000180314
-0.00275993
0.000177445
-0.00281831
0.000174415
-0.00287553
0.000171223
-0.00293155
0.000167871
-0.00298631
0.000164359
-0.00303976
0.000160688
-0.00309185
0.00015686
-0.00314253
0.000152877
-0.00319176
0.000148739
-0.00323948
0.000144447
-0.00328565
0.000140004
-0.00333023
0.000135411
-0.00337318
0.000130672
-0.00341444
0.000125789
-0.00345399
0.000120764
-0.00349178
0.0001156
-0.00352778
0.000110301
-0.00356195
0.000104868
-0.00359425
9.93059e-05
-0.00362466
9.3617e-05
-0.00365314
8.78049e-05
-0.00367966
8.18733e-05
-0.00370419
7.58258e-05
-0.0037267
6.96661e-05
-0.00374717
6.33977e-05
-0.00376556
5.70239e-05
-0.00378186
5.05478e-05
-0.00379602
4.39714e-05
-0.00380802
3.72955e-05
-0.00381781
3.05206e-05
-0.00382534
2.36456e-05
-0.00383054
1.66689e-05
-0.00383335
9.61751e-06
-0.00383368
2.50585e-06
-0.00383189
-4.40115e-06
-0.00382824
-1.12072e-05
-0.00382241
-1.82232e-05
-0.00381416
-2.54616e-05
-0.00380339
-3.28158e-05
-0.00379007
-4.02093e-05
-0.00377423
-4.76135e-05
-0.00375588
-5.50168e-05
-0.00373505
-6.24146e-05
-0.00371175
-6.98067e-05
-0.00368598
-7.7191e-05
-0.00365775
-8.45628e-05
-0.00362706
-9.19166e-05
-0.00359392
-9.9246e-05
-0.00355834
-0.000106545
-0.00352033
-0.000113806
-0.00347991
-0.000121023
-0.00343709
-0.000128189
-0.00339189
-0.000135297
-0.00334434
-0.00014234
-0.00329445
-0.000149313
-0.00324226
-0.000156207
-0.00318778
-0.000163017
-0.00313106
-0.000169737
-0.00307212
-0.000176359
-0.00301099
-0.000182877
-0.00294772
-0.000189286
-0.00288235
-0.000195578
-0.00281491
-0.000201749
-0.00274544
-0.000207792
-0.002674
-0.000213701
-0.00260062
-0.000219471
-0.00252536
-0.000225095
-0.00244826
-0.00023057
-0.00236939
-0.000235888
-0.00228879
-0.000241046
-0.00220651
-0.000246039
-0.00212262
-0.000250861
-0.00203718
-0.000255508
-0.00195023
-0.000259976
-0.00186185
-0.000264261
-0.0017721
-0.000268358
-0.00168104
-0.000272263
-0.00158874
-0.000275974
-0.00149526
-0.000279485
-0.00140067
-0.000282795
-0.00130505
-0.000285899
-0.00120845
-0.000288796
-0.00111095
-0.000291481
-0.00101263
-0.000293954
-0.000913549
-0.000296211
-0.000813784
-0.000298254
-0.000713406
-0.000300081
-0.000612505
-0.00030165
-0.000511209
-0.000302834
-0.00040965
-0.000303623
-0.000307421
-0.000305561
-0.000202158
-0.000314459
-9.12422e-05
-0.000331352
-0.000273175
-1.96243e-05
7.80339e-05
-3.93084e-05
7.82745e-05
-5.89621e-05
7.81542e-05
-7.85722e-05
7.79796e-05
-9.81238e-05
7.77462e-05
-0.000117602
7.74543e-05
-0.000136993
7.7104e-05
-0.000156281
7.66955e-05
-0.000175452
7.6229e-05
-0.000194491
7.57046e-05
-0.000213385
7.51227e-05
-0.000232118
7.44834e-05
-0.000250676
7.37871e-05
-0.000269046
7.30339e-05
-0.000287212
7.22244e-05
-0.00030516
7.13587e-05
-0.000322878
7.04374e-05
-0.00034035
6.94607e-05
-0.000357564
6.84292e-05
-0.000374505
6.73432e-05
-0.00039116
6.62033e-05
-0.000407515
6.50099e-05
-0.000423557
6.37637e-05
-0.000439274
6.24651e-05
-0.000454651
6.11149e-05
-0.000469677
5.97135e-05
-0.000484338
5.82616e-05
-0.000498622
5.676e-05
-0.000512517
5.52094e-05
-0.00052601
5.36104e-05
-0.00053909
5.19639e-05
-0.000551744
5.02706e-05
-0.000563962
4.85314e-05
-0.000575732
4.67472e-05
-0.000587043
4.49188e-05
-0.000597884
4.30472e-05
-0.000608244
4.11334e-05
-0.000618113
3.91782e-05
-0.00062748
3.71828e-05
-0.000636337
3.51481e-05
-0.000644673
3.30753e-05
-0.00065248
3.09655e-05
-0.000659747
2.88199e-05
-0.000666466
2.66395e-05
-0.00067263
2.44256e-05
-0.000678229
2.21795e-05
-0.000683256
1.99024e-05
-0.000687703
1.75957e-05
-0.000691565
1.52606e-05
-0.000694833
1.28986e-05
-0.000697503
1.05112e-05
-0.000699569
8.10013e-06
-0.00070103
5.66764e-06
-0.000701885
3.2165e-06
-0.00070212
7.44961e-07
-0.000701655
-1.78403e-06
-0.000700597
-4.27697e-06
-0.000698893
-6.81358e-06
-0.000696576
-9.33647e-06
-0.00069361
-1.18929e-05
-0.000690003
-1.44515e-05
-0.000685745
-1.70213e-05
-0.000680847
-1.95954e-05
-0.000675299
-2.21763e-05
-0.000669091
-2.47665e-05
-0.00066224
-2.73453e-05
-0.000654734
-2.99347e-05
-0.000646579
-3.25163e-05
-0.000637775
-3.50949e-05
-0.000628326
-3.7665e-05
-0.000618225
-4.02333e-05
-0.000607481
-4.27883e-05
-0.000596095
-4.53313e-05
-0.000584071
-4.7862e-05
-0.000571412
-5.0376e-05
-0.00055812
-5.28747e-05
-0.000544203
-5.53526e-05
-0.000529665
-5.78112e-05
-0.000514512
-6.02457e-05
-0.000498751
-6.26554e-05
-0.000482391
-6.50382e-05
-0.000465436
-6.73929e-05
-0.000447896
-6.97169e-05
-0.000429778
-7.20081e-05
-0.000411091
-7.42644e-05
-0.000391844
-7.64842e-05
-0.000372047
-7.86651e-05
-0.00035171
-8.08056e-05
-0.000330843
-8.29035e-05
-0.000309459
-8.49564e-05
-0.000287569
-8.69629e-05
-0.000265185
-8.89208e-05
-0.000242319
-9.08288e-05
-0.000218985
-9.26842e-05
-0.000195196
-9.44854e-05
-0.000170968
-9.62305e-05
-0.000146313
-9.79177e-05
-0.000121247
-9.95459e-05
-9.57867e-05
-0.000101112
-6.99465e-05
-0.000102615
-4.37443e-05
-0.000104053
-1.7198e-05
-0.000105423
9.67329e-06
-0.000106725
3.68639e-05
-0.000107961
6.43475e-05
-0.000109123
9.21036e-05
-0.000110209
0.000120117
-0.000111223
0.000148369
-0.00011216
0.000176837
-0.000113019
0.000205496
-0.000113794
0.000234332
-0.000114493
0.000263324
-0.00011511
0.000292449
-0.000115642
0.000321685
-0.000116089
0.000351003
-0.000116445
0.00038042
-0.000116734
0.000409874
-0.000116917
0.000439348
-0.000117011
0.000468823
-0.000117016
0.000498273
-0.000116929
0.000527681
-0.000116751
0.000557017
-0.000116476
0.000586259
-0.000116108
0.000615387
-0.000115646
0.000644367
-0.000115084
0.000673197
-0.000114435
0.000701827
-0.000113677
0.000730235
-0.000112822
0.000758423
-0.00011188
0.000786339
-0.000110825
0.000813957
-0.000109671
0.000841268
-0.000108425
0.000868237
-0.000107073
0.000894837
-0.000105618
0.000921046
-0.000104064
0.000946833
-0.000102408
0.000972179