/*--------------------------------*- C++ -*----------------------------------*\
| =========                 |                                                 |
| \\      /  F ield         | OpenFOAM: The Open Source CFD Toolbox           |
|  \\    /   O peration     | Version:  v2006                                 |
|   \\  /    A nd           | Website:  www.openfoam.com                      |
|    \\/     M anipulation  |                                                 |
\*---------------------------------------------------------------------------*/
FoamFile
{
    version     2.0;
    format      ascii;
    class       volVectorField;
    location    "2";
    object      U;
}
// * * * * * * * * * * * * * * * * * * * * * * * * * * * * * * * * * * * * * //

dimensions      [0 1 -1 0 0 0 0];


internalField   nonuniform List<vector> 
52500
(
(-0.000930527 0.00136408 0)
(-0.00280019 0.0013673 0)
(-0.00466888 0.00136459 0)
(-0.00653436 0.00136065 0)
(-0.00839486 0.0013555 0)
(-0.0102489 0.00134918 0)
(-0.012095 0.00134171 0)
(-0.0139318 0.0013331 0)
(-0.0157578 0.00132336 0)
(-0.0175715 0.00131251 0)
(-0.0193715 0.00130055 0)
(-0.0211564 0.00128748 0)
(-0.0229249 0.0012733 0)
(-0.0246753 0.00125804 0)
(-0.0264064 0.00124169 0)
(-0.0281168 0.00122425 0)
(-0.0298051 0.00120574 0)
(-0.0314698 0.00118615 0)
(-0.0331096 0.00116551 0)
(-0.0347232 0.00114381 0)
(-0.0363092 0.00112107 0)
(-0.0378662 0.00109728 0)
(-0.0393929 0.00107247 0)
(-0.0408881 0.00104663 0)
(-0.0423503 0.00101979 0)
(-0.0437784 0.000991941 0)
(-0.045171 0.000963101 0)
(-0.0465268 0.00093328 0)
(-0.0478447 0.000902489 0)
(-0.0491234 0.000870739 0)
(-0.0503616 0.000838041 0)
(-0.0515583 0.000804408 0)
(-0.0527121 0.000769851 0)
(-0.053822 0.000734384 0)
(-0.0548868 0.000698019 0)
(-0.0559053 0.000660769 0)
(-0.0568766 0.000622648 0)
(-0.0577995 0.00058367 0)
(-0.0586729 0.000543848 0)
(-0.0594958 0.000503198 0)
(-0.0602672 0.000461731 0)
(-0.0609862 0.000419464 0)
(-0.0616517 0.000376409 0)
(-0.0622629 0.000332579 0)
(-0.0628187 0.000287988 0)
(-0.0633185 0.000242646 0)
(-0.0637612 0.000196568 0)
(-0.0641461 0.000149767 0)
(-0.0644724 0.000102271 0)
(-0.0647396 5.41427e-05 0)
(-0.0649469 5.52984e-06 0)
(-0.0650937 -4.33849e-05 0)
(-0.0651792 -9.24075e-05 0)
(-0.0652016 -0.000141374 0)
(-0.0651604 -0.000191645 0)
(-0.0650557 -0.000242662 0)
(-0.0648865 -0.000293981 0)
(-0.0646524 -0.00034598 0)
(-0.0643532 -0.000398644 0)
(-0.0639883 -0.000451899 0)
(-0.0635572 -0.000505678 0)
(-0.0630592 -0.000560106 0)
(-0.0624941 -0.000614958 0)
(-0.0618613 -0.000670431 0)
(-0.0611607 -0.00072649 0)
(-0.0603918 -0.000783073 0)
(-0.0595543 -0.000840172 0)
(-0.058648 -0.000897824 0)
(-0.0576726 -0.000956067 0)
(-0.0566279 -0.00101494 0)
(-0.0555138 -0.00107439 0)
(-0.0543301 -0.00113443 0)
(-0.0530767 -0.00119501 0)
(-0.0517534 -0.00125594 0)
(-0.0503604 -0.00131696 0)
(-0.048898 -0.00137781 0)
(-0.0473664 -0.00143823 0)
(-0.0457664 -0.00149787 0)
(-0.0440986 -0.00155645 0)
(-0.042364 -0.00161387 0)
(-0.0405635 -0.00167015 0)
(-0.0386982 -0.00172533 0)
(-0.0367692 -0.00177943 0)
(-0.0347774 -0.00183246 0)
(-0.032724 -0.00188441 0)
(-0.0306102 -0.00193526 0)
(-0.028437 -0.00198501 0)
(-0.0262057 -0.00203363 0)
(-0.0239176 -0.0020811 0)
(-0.0215739 -0.00212738 0)
(-0.019176 -0.00217244 0)
(-0.0167252 -0.00221622 0)
(-0.014223 -0.00225867 0)
(-0.0116709 -0.00229976 0)
(-0.00907031 -0.00233946 0)
(-0.00642287 -0.00237771 0)
(-0.00373019 -0.00241448 0)
(-0.000993884 -0.00244973 0)
(0.00178439 -0.00248341 0)
(0.00460285 -0.00251549 0)
(0.00745979 -0.00254592 0)
(0.0103531 -0.00257477 0)
(0.0132807 -0.00260184 0)
(0.0162409 -0.00262704 0)
(0.019232 -0.0026504 0)
(0.0222518 -0.00267192 0)
(0.0252984 -0.00269157 0)
(0.0283694 -0.00270935 0)
(0.0314627 -0.00272505 0)
(0.0345762 -0.00273867 0)
(0.0377076 -0.00275039 0)
(0.0408543 -0.00276001 0)
(0.0440147 -0.00276753 0)
(0.0471862 -0.0027729 0)
(0.0503663 -0.00277598 0)
(0.0535525 -0.00277678 0)
(0.0567427 -0.00277536 0)
(0.0599339 -0.0027716 0)
(0.0631241 -0.00276552 0)
(0.0663105 -0.00275731 0)
(0.0694902 -0.00274648 0)
(0.0726613 -0.00273324 0)
(0.0758207 -0.0027175 0)
(0.0789659 -0.0026993 0)
(0.0820943 -0.00267861 0)
(0.0852032 -0.00265558 0)
(0.0882896 -0.00262901 0)
(0.0913504 -0.0026005 0)
(0.0943835 -0.00256944 0)
(0.097386 -0.00253566 0)
(0.100355 -0.0024991 0)
(0.103287 -0.00245981 0)
(0.10618 -0.00241762 0)
(0.109032 -0.00237266 0)
(0.111839 -0.00232605 0)
(0.114596 -0.002275 0)
(0.117303 -0.00222164 0)
(0.119957 -0.00216568 0)
(0.122554 -0.00210687 0)
(0.125091 -0.00204506 0)
(0.127566 -0.0019804 0)
(0.129975 -0.00191267 0)
(0.132316 -0.00184205 0)
(0.134586 -0.00176853 0)
(0.136782 -0.00169221 0)
(0.1389 -0.00161253 0)
(0.140939 -0.00152984 0)
(0.142894 -0.00144431 0)
(0.144763 -0.00135594 0)
(0.146544 -0.00126455 0)
(0.148232 -0.00117013 0)
(0.149826 -0.00107275 0)
(0.151323 -0.000972389 0)
(0.152719 -0.000869062 0)
(0.154012 -0.000762777 0)
(0.155198 -0.000653552 0)
(0.156276 -0.000541389 0)
(0.157243 -0.000426331 0)
(0.158095 -0.000308424 0)
(0.15883 -0.000187568 0)
(0.159446 -6.38628e-05 0)
(0.159939 6.25774e-05 0)
(0.160308 0.000191749 0)
(0.160549 0.000323727 0)
(0.160658 0.00045866 0)
(0.160632 0.000597673 0)
(0.160468 0.000742222 0)
(0.160164 0.000890946 0)
(0.159718 0.00104299 0)
(0.159126 0.00119815 0)
(0.158387 0.00135603 0)
(0.157498 0.00151673 0)
(0.156457 0.00167984 0)
(0.155262 0.00184497 0)
(0.153912 0.00201208 0)
(0.152405 0.00218117 0)
(0.150741 0.00235147 0)
(0.148916 0.00252226 0)
(0.14693 0.0026934 0)
(0.144785 0.00286494 0)
(0.142477 0.00303888 0)
(0.140003 0.00321904 0)
(0.13736 0.00340565 0)
(0.134543 0.00358529 0)
(0.131563 0.00372118 0)
(0.128449 0.00376007 0)
(0.125257 0.00366733 0)
(0.122045 0.00346573 0)
(0.118839 0.00323363 0)
(0.115626 0.00305507 0)
(0.112366 0.00296947 0)
(0.109021 0.00296652 0)
(0.105564 0.00301562 0)
(0.101981 0.00309253 0)
(0.0982671 0.0031852 0)
(0.0944195 0.00328769 0)
(0.0904371 0.0033958 0)
(0.0863194 0.00350628 0)
(0.0820675 0.00361584 0)
(0.0776848 0.00372115 0)
(0.073176 0.00382003 0)
(0.0685459 0.00391226 0)
(0.0637987 0.00399888 0)
(0.0589374 0.00408147 0)
(0.0539657 0.00416133 0)
(0.0488875 0.00423883 0)
(0.0437052 0.00431448 0)
(0.0384207 0.00438815 0)
(0.0330381 0.0044594 0)
(0.0275608 0.0045283 0)
(0.0219917 0.00459487 0)
(0.0163339 0.00465866 0)
(0.0105908 0.00471995 0)
(0.00476536 0.00477798 0)
(-0.00114022 0.00483302 0)
(-0.00712289 0.00488214 0)
(-0.0131716 0.00492862 0)
(-0.0192859 0.00497145 0)
(-0.0254687 0.00501063 0)
(-0.0317136 0.00504573 0)
(-0.038013 0.00507761 0)
(-0.0443662 0.00510371 0)
(-0.050776 0.0051271 0)
(-0.0572309 0.00514965 0)
(-0.0637262 0.00516787 0)
(-0.0702617 0.00518268 0)
(-0.076833 0.00519483 0)
(-0.0834371 0.0052041 0)
(-0.0900703 0.00521086 0)
(-0.0967279 0.00521519 0)
(-0.103409 0.0052168 0)
(-0.110109 0.0052163 0)
(-0.116823 0.00521412 0)
(-0.123549 0.00521117 0)
(-0.130288 0.00520514 0)
(-0.137033 0.00519743 0)
(-0.143778 0.0051886 0)
(-0.150521 0.00517845 0)
(-0.157261 0.00516715 0)
(-0.163994 0.00515477 0)
(-0.170717 0.00514136 0)
(-0.177426 0.00512699 0)
(-0.184119 0.00511174 0)
(-0.190792 0.00509562 0)
(-0.197442 0.00507866 0)
(-0.204065 0.00506089 0)
(-0.210659 0.00504232 0)
(-0.21722 0.00502291 0)
(-0.223746 0.00500259 0)
(-0.230231 0.00498131 0)
(-0.236674 0.00495902 0)
(-0.243069 0.00493561 0)
(-0.249415 0.00491098 0)
(-0.255707 0.00488499 0)
(-0.261941 0.00485749 0)
(-0.268113 0.00482832 0)
(-0.274221 0.00479729 0)
(-0.280258 0.00476419 0)
(-0.286222 0.00472877 0)
(-0.292108 0.00469072 0)
(-0.297912 0.00464977 0)
(-0.303629 0.00460562 0)
(-0.309254 0.00455797 0)
(-0.314783 0.0045066 0)
(-0.320212 0.00445156 0)
(-0.325536 0.00439346 0)
(-0.33075 0.00433301 0)
(-0.335849 0.00427037 0)
(-0.340826 0.00420533 0)
(-0.345677 0.00413761 0)
(-0.350395 0.00406689 0)
(-0.354976 0.00399286 0)
(-0.359412 0.00391526 0)
(-0.363699 0.0038338 0)
(-0.36783 0.00374821 0)
(-0.3718 0.00365822 0)
(-0.375602 0.0035636 0)
(-0.379231 0.00346413 0)
(-0.38268 0.00335966 0)
(-0.385943 0.00325001 0)
(-0.389014 0.00313503 0)
(-0.391886 0.00301453 0)
(-0.394554 0.00288823 0)
(-0.39701 0.00275563 0)
(-0.399249 0.00261593 0)
(-0.401262 0.00246738 0)
(-0.403042 0.00230469 0)
(-0.404579 0.00211461 0)
(-0.405851 0.00186852 0)
(-0.406815 0.0015155 0)
(-0.407425 0.00101279 0)
(-0.407619 0.000416353 0)
(-0.407328 -0.000123775 0)
(-0.406687 -0.000527487 0)
(-0.405736 -0.000841462 0)
(-0.404485 -0.00111134 0)
(-0.402949 -0.00135589 0)
(-0.401135 -0.00158553 0)
(-0.39905 -0.00180743 0)
(-0.396697 -0.00202532 0)
(-0.394079 -0.00224071 0)
(-0.391197 -0.0024541 0)
(-0.388053 -0.00266549 0)
(-0.384648 -0.00287472 0)
(-0.380984 -0.00308172 0)
(-0.377063 -0.00328657 0)
(-0.372886 -0.0034895 0)
(-0.368455 -0.00369079 0)
(-0.363773 -0.00389069 0)
(-0.358841 -0.00408937 0)
(-0.353661 -0.00428691 0)
(-0.348236 -0.0044833 0)
(-0.342568 -0.00467843 0)
(-0.336659 -0.00487215 0)
(-0.330513 -0.00506423 0)
(-0.324132 -0.00525438 0)
(-0.317521 -0.00544229 0)
(-0.310683 -0.00562767 0)
(-0.303622 -0.0058102 0)
(-0.296343 -0.00598963 0)
(-0.288849 -0.00616568 0)
(-0.281145 -0.00633813 0)
(-0.273237 -0.00650671 0)
(-0.26513 -0.0066712 0)
(-0.256829 -0.00683136 0)
(-0.248339 -0.00698695 0)
(-0.239667 -0.00713779 0)
(-0.230819 -0.0072837 0)
(-0.221799 -0.0074245 0)
(-0.212616 -0.00756005 0)
(-0.203276 -0.0076902 0)
(-0.193784 -0.00781482 0)
(-0.184148 -0.0079338 0)
(-0.174376 -0.00804703 0)
(-0.164473 -0.00815439 0)
(-0.154447 -0.00825578 0)
(-0.144305 -0.00835105 0)
(-0.134056 -0.0084401 0)
(-0.123706 -0.00852282 0)
(-0.113263 -0.00859911 0)
(-0.102735 -0.00866888 0)
(-0.0921293 -0.00873216 0)
(-0.0814546 -0.0087889 0)
(-0.0707173 -0.0088379 0)
(-0.0599266 -0.00887541 0)
(-0.0491097 -0.00890097 0)
(-0.0382958 -0.00895841 0)
(-0.0272987 -0.00921728 0)
(-0.0154324 -0.00971432 0)
(-0.00449081 -0.00802425 0)
(-0.00112787 0.00481734 0)
(-0.00339891 0.00483259 0)
(-0.00566601 0.00482532 0)
(-0.0079297 0.00481464 0)
(-0.0101875 0.00480029 0)
(-0.0124378 0.00478226 0)
(-0.0146791 0.00476056 0)
(-0.0169096 0.0047352 0)
(-0.0191278 0.00470619 0)
(-0.021332 0.00467355 0)
(-0.0235207 0.00463728 0)
(-0.0256921 0.0045974 0)
(-0.0278447 0.00455392 0)
(-0.0299769 0.00450688 0)
(-0.0320871 0.00445627 0)
(-0.0341737 0.00440213 0)
(-0.0362351 0.00434448 0)
(-0.0382698 0.00428334 0)
(-0.0402762 0.00421874 0)
(-0.0422528 0.0041507 0)
(-0.0441981 0.00407925 0)
(-0.0461105 0.00400444 0)
(-0.0479886 0.00392627 0)
(-0.049831 0.0038448 0)
(-0.0516361 0.00376005 0)
(-0.0534025 0.00367207 0)
(-0.0551288 0.00358089 0)
(-0.0568137 0.00348655 0)
(-0.0584557 0.0033891 0)
(-0.0600535 0.00328858 0)
(-0.0616057 0.00318503 0)
(-0.0631111 0.00307851 0)
(-0.0645685 0.00296907 0)
(-0.0659764 0.00285674 0)
(-0.0673337 0.0027416 0)
(-0.0686393 0.00262369 0)
(-0.0698919 0.00250307 0)
(-0.0710904 0.0023798 0)
(-0.0722337 0.00225394 0)
(-0.0733207 0.00212555 0)
(-0.0743504 0.0019947 0)
(-0.0753217 0.00186145 0)
(-0.0762338 0.00172586 0)
(-0.0770856 0.00158802 0)
(-0.0778762 0.00144798 0)
(-0.0786049 0.00130582 0)
(-0.0792707 0.00116163 0)
(-0.0798729 0.00101548 0)
(-0.0804106 0.000867475 0)
(-0.0808832 0.000717751 0)
(-0.0812898 0.000566499 0)
(-0.0816298 0.00041395 0)
(-0.0819025 0.000260364 0)
(-0.0821087 0.000106018 0)
(-0.0822478 -4.95402e-05 0)
(-0.0823175 -0.000206104 0)
(-0.0823183 -0.000365424 0)
(-0.0822507 -0.000526683 0)
(-0.0821141 -0.000689597 0)
(-0.0819082 -0.00085343 0)
(-0.0816329 -0.0010181 0)
(-0.0812878 -0.00118358 0)
(-0.0808731 -0.00134992 0)
(-0.080389 -0.0015167 0)
(-0.0798353 -0.00168395 0)
(-0.0792122 -0.00185171 0)
(-0.0785201 -0.00201983 0)
(-0.0777593 -0.00218817 0)
(-0.0769301 -0.00235666 0)
(-0.0760329 -0.00252513 0)
(-0.0750682 -0.00269352 0)
(-0.0740365 -0.00286184 0)
(-0.0729386 -0.00302993 0)
(-0.071775 -0.00319762 0)
(-0.0705465 -0.00336464 0)
(-0.0692536 -0.00353076 0)
(-0.0678967 -0.00369571 0)
(-0.0664764 -0.00385921 0)
(-0.064993 -0.00402099 0)
(-0.063447 -0.00418085 0)
(-0.0618389 -0.00433861 0)
(-0.060169 -0.00449415 0)
(-0.0584379 -0.00464737 0)
(-0.0566464 -0.00479815 0)
(-0.0547952 -0.0049464 0)
(-0.052885 -0.00509201 0)
(-0.0509169 -0.00523486 0)
(-0.0488917 -0.00537485 0)
(-0.0468104 -0.00551187 0)
(-0.0446741 -0.00564581 0)
(-0.0424838 -0.00577652 0)
(-0.0402409 -0.00590392 0)
(-0.0379464 -0.00602789 0)
(-0.0356018 -0.00614833 0)
(-0.0332083 -0.0062651 0)
(-0.0307674 -0.00637808 0)
(-0.0282804 -0.00648716 0)
(-0.0257488 -0.00659223 0)
(-0.0231742 -0.0066932 0)
(-0.0205581 -0.00679 0)
(-0.0179022 -0.00688252 0)
(-0.0152083 -0.00697072 0)
(-0.0124779 -0.00705431 0)
(-0.00971299 -0.00713306 0)
(-0.00691524 -0.00720699 0)
(-0.00408653 -0.0072761 0)
(-0.00122874 -0.00734024 0)
(0.00165647 -0.00739937 0)
(0.00456692 -0.00745338 0)
(0.0075002 -0.0075019 0)
(0.0104544 -0.0075453 0)
(0.0134276 -0.00758318 0)
(0.0164179 -0.00761549 0)
(0.0194234 -0.00764212 0)
(0.0224414 -0.00766312 0)
(0.0254694 -0.00767817 0)
(0.0285058 -0.00768706 0)
(0.0315479 -0.00769053 0)
(0.0345933 -0.00768788 0)
(0.0376404 -0.00767922 0)
(0.0406864 -0.0076642 0)
(0.0437289 -0.00764311 0)
(0.0467655 -0.00761562 0)
(0.0497937 -0.00758173 0)
(0.0528112 -0.00754154 0)
(0.0558175 -0.00749477 0)
(0.058807 -0.00744141 0)
(0.0617765 -0.00738175 0)
(0.064727 -0.00731531 0)
(0.0676549 -0.00724244 0)
(0.0705571 -0.00716278 0)
(0.0734312 -0.00707603 0)
(0.0762747 -0.00698292 0)
(0.0790846 -0.00688305 0)
(0.0818614 -0.00677713 0)
(0.0845988 -0.00666339 0)
(0.0872934 -0.00654299 0)
(0.0899467 -0.00641581 0)
(0.0925548 -0.0062819 0)
(0.0951144 -0.00614063 0)
(0.097624 -0.00599271 0)
(0.100081 -0.00583825 0)
(0.102481 -0.00567701 0)
(0.104824 -0.00550894 0)
(0.107108 -0.00533441 0)
(0.109329 -0.0051536 0)
(0.111484 -0.00496592 0)
(0.113571 -0.00477197 0)
(0.11559 -0.0045721 0)
(0.117537 -0.00436583 0)
(0.119409 -0.00415329 0)
(0.121205 -0.00393464 0)
(0.122923 -0.00370992 0)
(0.12456 -0.00347926 0)
(0.126115 -0.00324272 0)
(0.127584 -0.00300033 0)
(0.128967 -0.00275217 0)
(0.130262 -0.00249842 0)
(0.131466 -0.00223911 0)
(0.132577 -0.00197435 0)
(0.133594 -0.00170436 0)
(0.134515 -0.00142916 0)
(0.135339 -0.00114889 0)
(0.136064 -0.000863371 0)
(0.136689 -0.000572736 0)
(0.137214 -0.000276366 0)
(0.137641 2.62241e-05 0)
(0.137967 0.000333727 0)
(0.138192 0.000646865 0)
(0.138314 0.000964241 0)
(0.138335 0.00128582 0)
(0.138251 0.00161173 0)
(0.138062 0.00194085 0)
(0.137767 0.00227378 0)
(0.137366 0.00261045 0)
(0.136857 0.00295069 0)
(0.13624 0.00329364 0)
(0.135513 0.00363941 0)
(0.134676 0.00398868 0)
(0.133728 0.00434143 0)
(0.132669 0.00469868 0)
(0.1315 0.0050627 0)
(0.130224 0.00543401 0)
(0.128843 0.00580673 0)
(0.127347 0.0061649 0)
(0.125703 0.00648762 0)
(0.123859 0.00676185 0)
(0.121762 0.00699717 0)
(0.119387 0.00722532 0)
(0.11675 0.0074781 0)
(0.113889 0.00776809 0)
(0.110844 0.00808764 0)
(0.10764 0.00842116 0)
(0.104289 0.008759 0)
(0.100799 0.0090974 0)
(0.0971716 0.00943425 0)
(0.0934109 0.00976835 0)
(0.0895188 0.0100986 0)
(0.0854949 0.010424 0)
(0.0813387 0.0107434 0)
(0.0770491 0.0110557 0)
(0.0726245 0.0113605 0)
(0.068063 0.0116579 0)
(0.0633639 0.011949 0)
(0.0585281 0.0122344 0)
(0.0535576 0.012514 0)
(0.0484534 0.0127874 0)
(0.0432146 0.0130543 0)
(0.0378438 0.0133151 0)
(0.0323445 0.0135694 0)
(0.0267171 0.0138164 0)
(0.020964 0.0140561 0)
(0.0150872 0.0142879 0)
(0.00908797 0.0145116 0)
(0.00296465 0.0147272 0)
(-0.00327589 0.0149328 0)
(-0.00962032 0.0151324 0)
(-0.0160741 0.0153215 0)
(-0.0226393 0.0155021 0)
(-0.0293088 0.0156727 0)
(-0.0360776 0.0158367 0)
(-0.0429436 0.0159886 0)
(-0.0499011 0.016131 0)
(-0.0569473 0.0162672 0)
(-0.0640793 0.0163932 0)
(-0.0712886 0.0165093 0)
(-0.0785723 0.0166163 0)
(-0.0859263 0.016714 0)
(-0.0933448 0.016802 0)
(-0.100822 0.0168808 0)
(-0.108355 0.0169503 0)
(-0.115936 0.0170097 0)
(-0.123556 0.0170597 0)
(-0.131217 0.0170999 0)
(-0.138914 0.0171304 0)
(-0.146633 0.0171515 0)
(-0.154368 0.0171629 0)
(-0.162115 0.0171645 0)
(-0.169868 0.0171561 0)
(-0.17762 0.0171377 0)
(-0.185364 0.0171092 0)
(-0.193093 0.0170706 0)
(-0.2008 0.0170217 0)
(-0.208479 0.0169626 0)
(-0.216121 0.016893 0)
(-0.22372 0.016813 0)
(-0.231269 0.0167224 0)
(-0.238759 0.016621 0)
(-0.246184 0.0165088 0)
(-0.253536 0.0163855 0)
(-0.260809 0.0162511 0)
(-0.267993 0.0161054 0)
(-0.275082 0.0159482 0)
(-0.282069 0.0157794 0)
(-0.288945 0.0155989 0)
(-0.295705 0.0154063 0)
(-0.302339 0.0152017 0)
(-0.308841 0.0149847 0)
(-0.315205 0.0147552 0)
(-0.321421 0.014513 0)
(-0.327485 0.0142578 0)
(-0.333387 0.0139895 0)
(-0.339123 0.0137079 0)
(-0.344685 0.0134129 0)
(-0.350065 0.0131045 0)
(-0.355257 0.012783 0)
(-0.360254 0.0124485 0)
(-0.365051 0.0121011 0)
(-0.369642 0.0117404 0)
(-0.374022 0.0113661 0)
(-0.378186 0.0109782 0)
(-0.382127 0.0105764 0)
(-0.385843 0.0101607 0)
(-0.389326 0.00973106 0)
(-0.392575 0.00928735 0)
(-0.395583 0.0088296 0)
(-0.398348 0.00835783 0)
(-0.400865 0.00787207 0)
(-0.403132 0.00737236 0)
(-0.405145 0.00685877 0)
(-0.406902 0.00633138 0)
(-0.408401 0.00579025 0)
(-0.409639 0.00523545 0)
(-0.410616 0.00466706 0)
(-0.411331 0.00408521 0)
(-0.411785 0.00348985 0)
(-0.41198 0.00288023 0)
(-0.41192 0.00225226 0)
(-0.411626 0.00159353 0)
(-0.411148 0.000887787 0)
(-0.410519 0.000132945 0)
(-0.409777 -0.000654429 0)
(-0.408999 -0.00142039 0)
(-0.408053 -0.00213245 0)
(-0.406901 -0.00281342 0)
(-0.40553 -0.00348159 0)
(-0.403924 -0.00414204 0)
(-0.402071 -0.00479695 0)
(-0.399964 -0.00544817 0)
(-0.397598 -0.00609676 0)
(-0.394969 -0.00674315 0)
(-0.392078 -0.0073874 0)
(-0.388924 -0.00802929 0)
(-0.385506 -0.00866848 0)
(-0.381826 -0.00930456 0)
(-0.377883 -0.00993707 0)
(-0.37368 -0.0105656 0)
(-0.369218 -0.0111897 0)
(-0.364499 -0.0118088 0)
(-0.359524 -0.0124224 0)
(-0.354298 -0.01303 0)
(-0.348823 -0.013631 0)
(-0.343103 -0.0142249 0)
(-0.33714 -0.0148109 0)
(-0.33094 -0.0153887 0)
(-0.324505 -0.0159575 0)
(-0.31784 -0.0165168 0)
(-0.310949 -0.0170661 0)
(-0.303837 -0.0176048 0)
(-0.296509 -0.0181323 0)
(-0.288968 -0.0186482 0)
(-0.281221 -0.0191519 0)
(-0.273273 -0.019643 0)
(-0.265128 -0.020121 0)
(-0.256792 -0.0205854 0)
(-0.248272 -0.0210358 0)
(-0.239572 -0.0214718 0)
(-0.230699 -0.021893 0)
(-0.221659 -0.0222989 0)
(-0.212458 -0.0226892 0)
(-0.203103 -0.0230634 0)
(-0.1936 -0.0234213 0)
(-0.183956 -0.0237625 0)
(-0.174178 -0.0240866 0)
(-0.164273 -0.0243933 0)
(-0.154247 -0.0246824 0)
(-0.144109 -0.0249536 0)
(-0.133864 -0.0252066 0)
(-0.123522 -0.0254413 0)
(-0.113088 -0.0256573 0)
(-0.102571 -0.0258546 0)
(-0.091979 -0.0260332 0)
(-0.0813189 -0.026193 0)
(-0.0705975 -0.0263306 0)
(-0.0598237 -0.026435 0)
(-0.049024 -0.0265047 0)
(-0.0382291 -0.02667 0)
(-0.0272542 -0.0274347 0)
(-0.0153964 -0.0289092 0)
(-0.00446611 -0.0238815 0)
(-0.00106156 0.00855019 0)
(-0.00320039 0.00857643 0)
(-0.00533556 0.00856352 0)
(-0.00746784 0.00854479 0)
(-0.00959456 0.00851972 0)
(-0.0117142 0.00848832 0)
(-0.013825 0.00845058 0)
(-0.0159256 0.0084065 0)
(-0.0180142 0.0083561 0)
(-0.0200893 0.0082994 0)
(-0.0221493 0.00823641 0)
(-0.0241927 0.00816716 0)
(-0.0262179 0.00809169 0)
(-0.0282232 0.00801001 0)
(-0.0302073 0.00792218 0)
(-0.0321685 0.00782822 0)
(-0.0341053 0.00772817 0)
(-0.0360163 0.00762209 0)
(-0.0378998 0.00751001 0)
(-0.0397545 0.00739198 0)
(-0.0415787 0.00726807 0)
(-0.0433712 0.00713832 0)
(-0.0451303 0.00700279 0)
(-0.0468548 0.00686155 0)
(-0.0485431 0.00671466 0)
(-0.0501939 0.00656218 0)
(-0.0518058 0.00640419 0)
(-0.0533774 0.00624077 0)
(-0.0549073 0.00607199 0)
(-0.0563943 0.00589793 0)
(-0.0578371 0.00571868 0)
(-0.0592343 0.00553432 0)
(-0.0605847 0.00534495 0)
(-0.0618871 0.00515066 0)
(-0.0631402 0.00495155 0)
(-0.0643429 0.00474772 0)
(-0.065494 0.00453927 0)
(-0.0665923 0.00432632 0)
(-0.0676369 0.00410897 0)
(-0.0686265 0.00388734 0)
(-0.0695601 0.00366155 0)
(-0.0704367 0.00343172 0)
(-0.0712554 0.00319798 0)
(-0.0720151 0.00296045 0)
(-0.0727149 0.00271927 0)
(-0.073354 0.00247459 0)
(-0.0739315 0.00222653 0)
(-0.0744465 0.00197524 0)
(-0.0748983 0.00172087 0)
(-0.075286 0.00146354 0)
(-0.0756089 0.00120333 0)
(-0.0758662 0.000940282 0)
(-0.0760572 0.000674374 0)
(-0.0761812 0.000405493 0)
(-0.076238 0.000134093 0)
(-0.0762303 -0.000140013 0)
(-0.0761563 -0.000414752 0)
(-0.0760125 -0.000690891 0)
(-0.0757991 -0.000967832 0)
(-0.0755161 -0.0012462 0)
(-0.0751641 -0.00152553 0)
(-0.074743 -0.00180567 0)
(-0.0742521 -0.00208647 0)
(-0.0736913 -0.00236784 0)
(-0.0730612 -0.00264948 0)
(-0.0723616 -0.00293102 0)
(-0.0715921 -0.00321247 0)
(-0.0707531 -0.0034934 0)
(-0.0698444 -0.00377367 0)
(-0.0688666 -0.0040531 0)
(-0.0678199 -0.00433153 0)
(-0.0667047 -0.00460856 0)
(-0.0655211 -0.00488408 0)
(-0.0642697 -0.00515796 0)
(-0.062951 -0.00543007 0)
(-0.0615656 -0.00570027 0)
(-0.0601138 -0.00596846 0)
(-0.0585964 -0.00623449 0)
(-0.0570138 -0.00649819 0)
(-0.0553665 -0.00675937 0)
(-0.0536553 -0.00701779 0)
(-0.0518807 -0.0072732 0)
(-0.0500436 -0.00752535 0)
(-0.0481447 -0.00777401 0)
(-0.0461849 -0.00801894 0)
(-0.0441651 -0.00825994 0)
(-0.0420864 -0.00849682 0)
(-0.0399497 -0.00872932 0)
(-0.0377561 -0.0089572 0)
(-0.0355069 -0.00918025 0)
(-0.0332031 -0.0093983 0)
(-0.030846 -0.00961114 0)
(-0.0284371 -0.00981854 0)
(-0.0259775 -0.0100203 0)
(-0.0234686 -0.0102162 0)
(-0.0209121 -0.010406 0)
(-0.0183093 -0.0105896 0)
(-0.0156618 -0.0107668 0)
(-0.0129714 -0.0109373 0)
(-0.0102395 -0.011101 0)
(-0.00746791 -0.0112577 0)
(-0.00465833 -0.0114072 0)
(-0.00181248 -0.0115494 0)
(0.00106769 -0.0116835 0)
(0.00398007 -0.0118101 0)
(0.00692286 -0.0119289 0)
(0.00989418 -0.0120393 0)
(0.012892 -0.0121415 0)
(0.0159145 -0.0122356 0)
(0.018959 -0.0123211 0)
(0.0220234 -0.0123979 0)
(0.0251059 -0.0124657 0)
(0.0282045 -0.0125246 0)
(0.0313164 -0.0125744 0)
(0.0344398 -0.0126153 0)
(0.0375725 -0.0126449 0)
(0.0407108 -0.0126666 0)
(0.0438527 -0.0126786 0)
(0.0469972 -0.0126806 0)
(0.0501412 -0.0126727 0)
(0.0532817 -0.0126547 0)
(0.0564166 -0.0126268 0)
(0.0595435 -0.0125887 0)
(0.0626595 -0.0125401 0)
(0.0657623 -0.0124815 0)
(0.0688499 -0.0124113 0)
(0.071918 -0.0123327 0)
(0.0749649 -0.0122428 0)
(0.0779882 -0.0121406 0)
(0.0809851 -0.012029 0)
(0.0839538 -0.011907 0)
(0.0868898 -0.0117732 0)
(0.0897909 -0.0116292 0)
(0.0926555 -0.0114744 0)
(0.0954807 -0.0113084 0)
(0.0982629 -0.0111327 0)
(0.100999 -0.0109452 0)
(0.103688 -0.0107467 0)
(0.106327 -0.0105374 0)
(0.108911 -0.010317 0)
(0.111439 -0.0100859 0)
(0.113909 -0.00984437 0)
(0.116317 -0.00959195 0)
(0.11866 -0.00932867 0)
(0.120936 -0.00905449 0)
(0.123143 -0.00877009 0)
(0.125278 -0.00847501 0)
(0.127337 -0.00816893 0)
(0.129319 -0.00785246 0)
(0.131221 -0.00752565 0)
(0.133041 -0.0071884 0)
(0.134775 -0.00684089 0)
(0.136422 -0.0064832 0)
(0.137978 -0.00611549 0)
(0.139442 -0.00573794 0)
(0.140811 -0.00535065 0)
(0.142083 -0.00495371 0)
(0.143254 -0.00454732 0)
(0.144324 -0.00413161 0)
(0.145289 -0.00370687 0)
(0.146148 -0.0032731 0)
(0.146898 -0.00283047 0)
(0.147538 -0.00237909 0)
(0.148065 -0.00191911 0)
(0.148477 -0.00145074 0)
(0.148771 -0.000974234 0)
(0.148946 -0.000489908 0)
(0.149002 3.39397e-06 0)
(0.148936 0.000500101 0)
(0.148743 0.00100233 0)
(0.148424 0.00151043 0)
(0.147976 0.0020238 0)
(0.147399 0.0025427 0)
(0.146692 0.00306661 0)
(0.145853 0.00359484 0)
(0.144881 0.00412732 0)
(0.143776 0.00466335 0)
(0.142536 0.00520282 0)
(0.141161 0.00574521 0)
(0.139651 0.00628896 0)
(0.138005 0.0068316 0)
(0.136225 0.00737088 0)
(0.134313 0.00790585 0)
(0.132272 0.00844015 0)
(0.130104 0.00898639 0)
(0.127807 0.00956292 0)
(0.125368 0.010181 0)
(0.122774 0.0108322 0)
(0.120018 0.0114897 0)
(0.117101 0.0121254 0)
(0.114032 0.0127274 0)
(0.110818 0.013302 0)
(0.107468 0.0138612 0)
(0.103988 0.0144135 0)
(0.100376 0.0149618 0)
(0.0966318 0.0155064 0)
(0.0927574 0.0160481 0)
(0.0887533 0.0165866 0)
(0.0846203 0.0171209 0)
(0.080359 0.0176517 0)
(0.0759695 0.0181796 0)
(0.0714522 0.0187037 0)
(0.0668083 0.0192223 0)
(0.0620391 0.0197349 0)
(0.0571455 0.0202399 0)
(0.0521292 0.0207373 0)
(0.0469916 0.0212259 0)
(0.0417351 0.0217043 0)
(0.0363617 0.0221734 0)
(0.0308725 0.0226328 0)
(0.0252699 0.0230813 0)
(0.0195562 0.023519 0)
(0.0137337 0.0239444 0)
(0.0078044 0.0243595 0)
(0.00176759 0.0247628 0)
(-0.00436806 0.025152 0)
(-0.0105971 0.025532 0)
(-0.0169223 0.025897 0)
(-0.0233427 0.0262485 0)
(-0.0298503 0.0265862 0)
(-0.0364435 0.0269107 0)
(-0.043125 0.02722 0)
(-0.0498817 0.027514 0)
(-0.0567132 0.0277933 0)
(-0.0636199 0.0280565 0)
(-0.0705921 0.0283034 0)
(-0.077627 0.0285336 0)
(-0.0847223 0.0287469 0)
(-0.0918723 0.0289426 0)
(-0.0990705 0.0291201 0)
(-0.106317 0.0292796 0)
(-0.113604 0.0294204 0)
(-0.120924 0.0295416 0)
(-0.128277 0.0296423 0)
(-0.135657 0.0297244 0)
(-0.143058 0.0297866 0)
(-0.150471 0.0298278 0)
(-0.157893 0.0298481 0)
(-0.165318 0.029847 0)
(-0.172741 0.0298243 0)
(-0.180155 0.0297798 0)
(-0.187554 0.029713 0)
(-0.194933 0.0296238 0)
(-0.202285 0.0295119 0)
(-0.209604 0.0293772 0)
(-0.216884 0.0292193 0)
(-0.224117 0.0290381 0)
(-0.231299 0.0288334 0)
(-0.238423 0.0286052 0)
(-0.245482 0.0283531 0)
(-0.25247 0.0280772 0)
(-0.25938 0.0277772 0)
(-0.266207 0.0274532 0)
(-0.272943 0.0271051 0)
(-0.279584 0.0267328 0)
(-0.286122 0.0263364 0)
(-0.292551 0.0259158 0)
(-0.298866 0.0254711 0)
(-0.305061 0.0250024 0)
(-0.311129 0.0245098 0)
(-0.317065 0.0239935 0)
(-0.322864 0.0234535 0)
(-0.328519 0.0228902 0)
(-0.334027 0.0223036 0)
(-0.33938 0.021694 0)
(-0.344575 0.0210612 0)
(-0.349607 0.0204051 0)
(-0.35447 0.0197256 0)
(-0.35916 0.019023 0)
(-0.363672 0.0182976 0)
(-0.368003 0.0175498 0)
(-0.372147 0.01678 0)
(-0.376101 0.0159887 0)
(-0.379861 0.0151763 0)
(-0.383423 0.0143436 0)
(-0.386784 0.0134909 0)
(-0.389939 0.0126189 0)
(-0.392886 0.0117284 0)
(-0.395621 0.0108198 0)
(-0.398142 0.00989403 0)
(-0.400445 0.00895169 0)
(-0.402528 0.00799359 0)
(-0.404387 0.00702055 0)
(-0.40602 0.00603348 0)
(-0.407422 0.00503335 0)
(-0.40859 0.00402137 0)
(-0.409518 0.00299999 0)
(-0.410204 0.00197532 0)
(-0.410637 0.000961232 0)
(-0.410796 -1.96744e-05 0)
(-0.410709 -0.000951951 0)
(-0.410424 -0.00185573 0)
(-0.409924 -0.00279088 0)
(-0.409173 -0.00378919 0)
(-0.408154 -0.00482654 0)
(-0.406863 -0.00588225 0)
(-0.4053 -0.00694873 0)
(-0.403467 -0.00802162 0)
(-0.401368 -0.00909749 0)
(-0.399004 -0.0101741 0)
(-0.396375 -0.01125 0)
(-0.393481 -0.0123243 0)
(-0.390325 -0.013396 0)
(-0.386905 -0.0144643 0)
(-0.383223 -0.0155283 0)
(-0.37928 -0.0165869 0)
(-0.375078 -0.0176391 0)
(-0.370618 -0.0186839 0)
(-0.365902 -0.0197201 0)
(-0.360932 -0.0207468 0)
(-0.355711 -0.0217629 0)
(-0.350241 -0.0227674 0)
(-0.344526 -0.0237594 0)
(-0.338567 -0.024738 0)
(-0.33237 -0.0257022 0)
(-0.325937 -0.0266511 0)
(-0.319272 -0.0275839 0)
(-0.312379 -0.0284997 0)
(-0.305262 -0.0293976 0)
(-0.297926 -0.0302768 0)
(-0.290376 -0.0311364 0)
(-0.282616 -0.0319757 0)
(-0.274652 -0.0327939 0)
(-0.266488 -0.0335901 0)
(-0.258131 -0.0343636 0)
(-0.249586 -0.0351137 0)
(-0.240859 -0.0358396 0)
(-0.231955 -0.0365407 0)
(-0.222882 -0.0372164 0)
(-0.213645 -0.0378659 0)
(-0.204251 -0.0384887 0)
(-0.194706 -0.0390842 0)
(-0.185018 -0.0396519 0)
(-0.175193 -0.0401911 0)
(-0.165238 -0.0407015 0)
(-0.155161 -0.0411825 0)
(-0.144969 -0.0416337 0)
(-0.134669 -0.0420546 0)
(-0.124269 -0.0424448 0)
(-0.113777 -0.0428041 0)
(-0.103199 -0.0431321 0)
(-0.0925451 -0.0434291 0)
(-0.0818217 -0.0436945 0)
(-0.0710361 -0.0439228 0)
(-0.0601971 -0.0440953 0)
(-0.0493311 -0.0442102 0)
(-0.0384704 -0.04449 0)
(-0.0274284 -0.0457785 0)
(-0.0154773 -0.0482384 0)
(-0.00447331 -0.0397967 0)
(-0.00104767 0.0119481 0)
(-0.00315811 0.0119844 0)
(-0.00526476 0.0119654 0)
(-0.00736843 0.011938 0)
(-0.00946655 0.0119016 0)
(-0.0115576 0.0118563 0)
(-0.0136401 0.011802 0)
(-0.0157124 0.0117388 0)
(-0.017773 0.0116667 0)
(-0.0198203 0.0115857 0)
(-0.0218527 0.011496 0)
(-0.0238687 0.0113974 0)
(-0.0258667 0.0112901 0)
(-0.0278453 0.0111742 0)
(-0.0298028 0.0110496 0)
(-0.0317379 0.0109164 0)
(-0.0336489 0.0107747 0)
(-0.0355344 0.0106245 0)
(-0.0373929 0.0104659 0)
(-0.039223 0.010299 0)
(-0.0410231 0.0101238 0)
(-0.0427918 0.00994042 0)
(-0.0445277 0.00974897 0)
(-0.0462295 0.00954951 0)
(-0.0478955 0.00934213 0)
(-0.0495246 0.00912693 0)
(-0.0511153 0.008904 0)
(-0.0526663 0.00867346 0)
(-0.0541763 0.00843541 0)
(-0.0556438 0.00818997 0)
(-0.0570677 0.00793725 0)
(-0.0584467 0.00767738 0)
(-0.0597795 0.00741048 0)
(-0.0610649 0.00713669 0)
(-0.0623017 0.00685614 0)
(-0.0634888 0.00656897 0)
(-0.0646248 0.00627533 0)
(-0.0657089 0.00597537 0)
(-0.0667397 0.00566925 0)
(-0.0677164 0.00535712 0)
(-0.0686377 0.00503915 0)
(-0.0695028 0.0047155 0)
(-0.0703106 0.00438636 0)
(-0.0710602 0.0040519 0)
(-0.0717507 0.0037123 0)
(-0.0723811 0.00336776 0)
(-0.0729507 0.00301845 0)
(-0.0734585 0.00266458 0)
(-0.0739039 0.00230633 0)
(-0.0742861 0.00194389 0)
(-0.0746045 0.00157745 0)
(-0.0748585 0.00120717 0)
(-0.0750477 0.000833229 0)
(-0.075172 0.000455803 0)
(-0.0752307 7.51553e-05 0)
(-0.0752186 -0.000308102 0)
(-0.0751372 -0.000693298 0)
(-0.0749894 -0.00108018 0)
(-0.0747742 -0.00146892 0)
(-0.0744914 -0.00185933 0)
(-0.0741394 -0.00225154 0)
(-0.0737183 -0.00264507 0)
(-0.0732281 -0.00303939 0)
(-0.0726686 -0.00343451 0)
(-0.0720389 -0.00383016 0)
(-0.0713395 -0.00422601 0)
(-0.0705705 -0.00462167 0)
(-0.0697316 -0.00501711 0)
(-0.0688233 -0.00541192 0)
(-0.0678456 -0.00580595 0)
(-0.0667983 -0.00619888 0)
(-0.0656817 -0.00659032 0)
(-0.0644963 -0.00698002 0)
(-0.0632423 -0.00736764 0)
(-0.06192 -0.00775288 0)
(-0.0605299 -0.00813546 0)
(-0.0590724 -0.00851503 0)
(-0.0575479 -0.00889133 0)
(-0.0559573 -0.00926407 0)
(-0.0543013 -0.00963299 0)
(-0.0525805 -0.00999778 0)
(-0.0507958 -0.0103581 0)
(-0.0489479 -0.0107138 0)
(-0.0470375 -0.0110643 0)
(-0.0450658 -0.0114095 0)
(-0.0430336 -0.0117491 0)
(-0.040942 -0.0120827 0)
(-0.0387919 -0.01241 0)
(-0.0365844 -0.0127308 0)
(-0.0343209 -0.0130448 0)
(-0.0320026 -0.0133516 0)
(-0.0296307 -0.0136509 0)
(-0.0272064 -0.0139425 0)
(-0.0247313 -0.0142261 0)
(-0.0222068 -0.0145013 0)
(-0.0196344 -0.0147679 0)
(-0.0170155 -0.0150257 0)
(-0.0143518 -0.0152743 0)
(-0.0116449 -0.0155134 0)