/*--------------------------------*- C++ -*----------------------------------*\
| =========                 |                                                 |
| \\      /  F ield         | OpenFOAM: The Open Source CFD Toolbox           |
|  \\    /   O peration     | Version:  v2006                                 |
|   \\  /    A nd           | Website:  www.openfoam.com                      |
|    \\/     M anipulation  |                                                 |
\*---------------------------------------------------------------------------*/
FoamFile
{
    version     2.0;
    format      ascii;
    class       surfaceScalarField;
    location    "16.5";
    object      phi;
}
// * * * * * * * * * * * * * * * * * * * * * * * * * * * * * * * * * * * * * //

dimensions      [0 3 -1 0 0 0 0];
oriented        oriented;


internalField   nonuniform List<scalar> 
299200
(
0.000188332
-0.000188332
0.000930775
-0.000742443
0.00169508
-0.000764309
0.0023789
-0.000683816
0.00299893
-0.000620026
0.00357575
-0.000576825
0.00411856
-0.00054281
0.00463255
-0.000513991
0.0051236
-0.000491049
0.00559859
-0.000474987
0.00606426
-0.00046567
0.00652636
-0.000462099
0.00698941
-0.000463049
0.00745684
-0.000467429
0.00793121
-0.000474378
0.00841441
-0.000483197
0.00890769
-0.000493275
0.00941174
-0.000504057
0.00992678
-0.000515037
0.0104526
-0.000525771
0.0109885
-0.000535905
0.0115336
-0.000545183
0.0120871
-0.00055346
0.0126478
-0.000560696
0.0132147
-0.000566951
0.0137871
-0.000572372
0.0143643
-0.000577174
0.0149459
-0.000581617
0.0155319
-0.000585975
0.0161224
-0.000590498
0.0167178
-0.000595378
0.0173185
-0.000600713
0.0179249
-0.000606476
0.0185374
-0.000612482
0.0191558
-0.00061838
0.0197795
-0.000623666
0.0204072
-0.000627725
0.0210371
-0.000629928
0.0216669
-0.000629746
0.0222938
-0.000626882
0.0229151
-0.000621392
0.0235289
-0.00061375
0.0241337
-0.000604843
0.0247296
-0.000595868
0.0253177
-0.000588107
0.0259004
-0.000582636
0.0264804
-0.000580058
0.0270608
-0.000580365
0.0276437
-0.00058297
0.0282306
-0.000586895
0.0288217
-0.000591029
0.0294161
-0.00059438
0.0300123
-0.000596243
0.0306086
-0.000596275
0.031203
-0.000594454
0.031794
-0.000590987
0.0323802
-0.000586173
0.0329605
-0.000580286
0.033534
-0.000573491
0.0340998
-0.000565821
0.034657
-0.000557205
0.0352045
-0.000547535
0.0357413
-0.000536748
0.0362662
-0.000524894
0.0367783
-0.000512176
0.0372773
-0.000498931
0.0377629
-0.000485599
0.0382355
-0.000472662
0.0386961
-0.000460581
0.0391459
-0.000449757
0.0395864
-0.000440503
0.0400194
-0.000433059
0.0404471
-0.000427624
0.0408714
-0.000424384
0.0412949
-0.000423468
0.0417197
-0.000424816
0.0421477
-0.000427982
0.0425797
-0.000432034
0.0430154
-0.000435677
0.043453
-0.000437574
0.0438898
-0.000436764
0.0443227
-0.000432945
0.0447492
-0.00042652
0.0451676
-0.000418427
0.0455775
-0.000409822
0.0459792
-0.00040174
0.046374
-0.00039484
0.0467634
-0.000389335
0.0471485
-0.000385104
0.0475304
-0.000381891
0.0479098
-0.000379464
0.0482875
-0.000377669
0.0486639
-0.000376365
0.0490392
-0.000375292
0.0494131
-0.000373923
0.0497844
-0.000371334
0.0501505
-0.00036611
0.0505069
-0.00035633
0.0508466
-0.000339756
0.0511611
-0.000314451
0.051441
-0.000279954
0.0516797
-0.000238668
0.0518762
-0.00019646
0.0520373
-0.00016117
0.0521764
-0.000139053
0.0523088
-0.000132385
0.0524468
-0.000138014
0.0525989
-0.00015214
0.052769
-0.000170078
0.0529559
-0.00018692
0.0531535
-0.000197557
0.0533523
-0.000198806
0.0535439
-0.000191617
0.053723
-0.000179061
0.0538884
-0.000165464
0.0540433
-0.000154852
0.0541931
-0.000149876
0.054343
-0.000149877
0.0544956
-0.00015259
0.0546491
-0.000153447
0.054798
-0.00014891
0.054935
-0.000136995
0.0550454
-0.000110466
0.0550911
-4.56402e-05
0.0549806
0.000110439
0.0546029
0.000377766
0.0538811
0.000721725
0.052878
0.00100313
0.0518449
0.0010331
0.0510721
0.000772785
0.0507534
0.000318776
0.0508644
-0.000111048
0.0512439
-0.000379514
0.0516757
-0.000431797
0.0519665
-0.00029079
0.0520234
-5.69296e-05
0.051845
0.000178481
0.0515273
0.000317618
0.051133
0.000394311
0.0506919
0.000441096
0.0502325
0.000459386
0.049789
0.000443519
0.0493859
0.000403084
0.0490383
0.000347628
0.0487439
0.000294426
0.0484853
0.000258607
0.0482392
0.00024604
0.0479854
0.000253879
0.0477125
0.000272893
0.0474182
0.000294219
0.0471042
0.000314031
0.0467753
0.000328902
0.0464389
0.000336412
0.0461031
0.000335774
0.0457754
0.000327767
0.0454626
0.000312764
0.0451702
0.000292398
0.0449016
0.00026863
0.0446584
0.000243213
0.0444408
0.000217508
0.0442483
0.000192553
0.0440791
0.000169178
0.0439311
0.000147982
0.043802
0.000129166
0.0436896
0.000112375
0.0435929
9.66903e-05
0.0435121
8.08454e-05
0.0434483
6.37394e-05
0.0434036
4.47015e-05
0.0433799
2.36978e-05
0.0433767
3.21463e-06
0.0433963
-1.96375e-05
0.0434371
-4.07839e-05
0.0434979
-6.07409e-05
0.043578
-8.01104e-05
0.0436768
-9.88694e-05
0.0437939
-0.000117101
0.043929
-0.000135022
0.0440818
-0.000152824
0.0442517
-0.000169935
0.0444355
-0.000183802
0.0446253
-0.000189791
0.0448076
-0.000182319
0.0449653
-0.000157698
0.0450855
-0.00012019
0.0451677
-8.21899e-05
0.0452262
-5.85199e-05
0.0452844
-5.81583e-05
0.0453633
-7.88695e-05
0.0454777
-0.000114454
0.0456371
-0.000159376
0.0458445
-0.000207356
0.0460953
-0.000250883
0.0463774
-0.000282076
0.0466761
-0.000298691
0.0469847
-0.000308638
0.0473126
-0.00032789
0.0476844
-0.00037175
0.0481233
-0.000438902
0.0486289
-0.000505587
0.0491652
-0.000536338
0.0496664
-0.000501239
0.0500552
-0.000388706
0.0502688
-0.00021364
0.0503048
-3.59752e-05
0.050197
0.000107808
0.0500138
0.000183167
0.0497789
0.00023491
0.0494982
0.000280719
0.049184
0.000314116
0.0488539
0.000330159
0.0485203
0.000333632
0.0481889
0.000331377
0.0478622
0.000326641
0.0475439
0.000318379
0.0472379
0.000305942
0.0469483
0.000289609
0.0466773
0.000270991
0.0464246
0.000252768
0.0461866
0.000237969
0.0459577
0.000228909
0.0457313
0.000226382
0.0455012
0.000230114
0.0452602
0.000241002
0.0450009
0.00025929
0.044714
0.000286932
0.0443858
0.000328187
0.0439989
0.000386831
0.0435351
0.000463855
0.0429793
0.000555777
0.0423229
0.000656358
0.0415624
0.000760578
0.0406953
0.00086711
0.0397193
0.000975977
0.0386396
0.00107965
0.0374856
0.00115399
0.0363103
0.00117536
0.0351882
0.00112205
0.0341965
0.000991714
0.0333851
0.000811467
0.0327656
0.000619477
0.0323172
0.000448411
0.0320017
0.00031549
0.0317797
0.000222026
0.0316225
0.000157129
0.0315128
0.000109746
0.0314358
7.69883e-05
0.0313774
5.83618e-05
0.0313268
5.06684e-05
0.0312762
5.05282e-05
0.0312227
5.3556e-05
0.0311656
5.70833e-05
0.0311051
6.05403e-05
0.0310413
6.37194e-05
0.0309745
6.67894e-05
0.0309046
6.99067e-05
0.0308315
7.31642e-05
0.0307549
7.65962e-05
0.0306747
8.01278e-05
0.0305911
8.36851e-05
0.0305038
8.72256e-05
0.0304132
9.06876e-05
0.0303191
9.4004e-05
0.030222
9.71104e-05
0.030122
0.000100001
0.0300193
0.000102695
0.0299141
0.000105222
0.0298065
0.000107621
0.0296965
0.000109953
0.0295843
0.00011229
0.0294696
0.000114698
0.0293523
0.000117222
0.0292325
0.000119864
0.0291098
0.00012265
0.0289842
0.000125576
0.0288557
0.000128578
0.0287241
0.000131602
0.0285894
0.00013464
0.0284517
0.000137673
0.0283111
0.000140668
0.0281675
0.000143603
0.0280211
0.000146424
0.0278719
0.000149136
0.0277202
0.000151763
0.0275659
0.000154243
0.0274094
0.000156545
0.0272507
0.000158697
0.02709
0.000160713
0.0269274
0.000162564
0.0267631
0.000164256
0.0265973
0.000165826
0.02643
0.000167274
0.0262615
0.000168554
0.0260918
0.000169671
0.0259211
0.000170673
0.0257496
0.000171574
0.0255772
0.000172371
0.0254041
0.000173072
0.0252304
0.000173713
0.0250561
0.00017431
0.0248812
0.000174864
0.0247058
0.000175403
0.0245299
0.000175943
0.0243534
0.000176512
0.0241762
0.000177135
0.0239984
0.000177835
0.0238198
0.000178629
0.0236402
0.000179529
0.0234597
0.000180561
0.0232779
0.000181742
0.0230948
0.000183104
0.0229102
0.00018465
0.0227238
0.000186393
0.0225354
0.000188358
0.0223449
0.000190545
0.0221519
0.000192953
0.0219564
0.000195573
0.021758
0.000198399
0.0215566
0.00020142
0.021352
0.000204599
0.0211441
0.000207897
0.0209328
0.000211273
0.0207181
0.000214707
0.0204999
0.000218144
0.0202784
0.000221527
0.0200536
0.000224846
0.0198256
0.00022794
0.0195947
0.000230954
0.0193609
0.000233734
0.0191247
0.000236195
0.0188864
0.000238382
0.0186461
0.000240283
0.0184043
0.000241764
0.0181613
0.00024301
0.0179174
0.00024393
0.0176728
0.000244588
0.0174279
0.000244893
0.0171832
0.000244716
0.0169387
0.0002445
0.016695
0.000243674
0.0164527
0.000242253
0.0162122
0.000240576
0.0159745
0.00023769
0.0157414
0.000233048
0.0155158
0.000225579
0.0153009
0.000214961
0.0150991
0.000201784
0.0149112
0.000187869
0.0147354
0.000175855
0.0145682
0.000167178
0.014407
0.00016117
0.0142503
0.000156772
0.0140974
0.000152812
0.0139501
0.00014731
0.0138122
0.000137888
0.0136893
0.000122962
0.0135856
0.000103681
0.0135024
8.32428e-05
0.0134371
6.52719e-05
0.0133852
5.1885e-05
0.0133425
4.27051e-05
0.0133062
3.63111e-05
0.0132753
3.09065e-05
0.01325
2.52851e-05
0.0132313
1.87301e-05
0.0132202
1.10223e-05
0.0132182
2.02571e-06
0.0132262
-8.00561e-06
0.0132441
-1.78248e-05
0.0132696
-2.55209e-05
0.0132977
-2.81549e-05
0.0133199
-2.21578e-05
0.0133243
-4.43344e-06
0.0133006
2.37212e-05
0.0132433
5.72966e-05
0.0131647
7.8609e-05
0.0130894
7.52634e-05
0.0130445
4.49453e-05
0.0130515
-7.06424e-06
0.0131219
-7.0365e-05
0.0132531
-0.000131154
0.0134269
-0.000173884
0.0136211
-0.000194176
0.0138187
-0.000197615
0.0140111
-0.000192318
0.0141962
-0.000185138
0.0143767
-0.000180524
0.0145578
-0.000181057
0.0147459
-0.000188083
0.0149479
-0.000202051
0.0151708
-0.000222922
0.0154216
-0.000250752
0.0157076
-0.000285989
0.0160362
-0.000328649
0.0164119
-0.000375707
0.0168302
-0.000418294
0.0172763
-0.000446053
0.0177304
-0.0004541
0.0181763
-0.000445964
0.0186064
-0.000430012
0.0190198
-0.000413446
0.0194191
-0.000399258
0.0198061
-0.000387032
0.0201815
-0.000375365
0.020545
-0.00036356
0.0208969
-0.00035188
0.0212379
-0.000341002
0.0215694
-0.000331463
0.0218928
-0.000323416
0.0222094
-0.000316631
0.02252
-0.000310617
0.0228249
-0.000304831
0.0231236
-0.000298715
0.0234154
-0.000291843
0.0236994
-0.000283944
0.0239742
-0.000274893
0.0242389
-0.000264666
0.0244922
-0.000253307
0.0247331
-0.000240904
0.0249607
-0.000227572
0.0251741
-0.000213433
0.0253727
-0.000198594
0.0255559
-0.000183143
0.025723
-0.00016716
0.0258737
-0.000150708
0.0260076
-0.00013389
0.0261245
-0.000116863
0.0262243
-9.98514e-05
0.0263077
-8.33443e-05
0.0263759
-6.81913e-05
0.0264312
-5.52746e-05
0.026476
-4.48327e-05
0.0265116
-3.55965e-05
0.0265374
-2.5796e-05
0.0265519
-1.45603e-05
0.0265544
-2.46571e-06
0.0265445
9.93255e-06
0.0265231
2.14037e-05
0.0264924
3.06641e-05
0.026455
3.73634e-05
0.0264139
4.11853e-05
0.0263718
4.20164e-05
0.0263323
3.95641e-05
0.0262987
3.35689e-05
0.0262749
2.38194e-05
0.0262646
1.02984e-05
0.0262733
-8.67412e-06
0.0263056
-3.2309e-05
0.0263657
-6.00837e-05
0.0264563
-9.06481e-05
0.0265787
-0.000122402
0.0267321
-0.000153373
0.0269133
-0.000181233
0.0271168
-0.000203539
0.0273349
-0.000218078
0.027558
-0.000223047
0.0277751
-0.000217161
0.027975
-0.00019991
0.0281466
-0.000171523
0.028279
-0.000132457
0.0283628
-8.38243e-05
0.0283874
-2.45194e-05
0.0283371
5.02286e-05
0.0282079
0.000129204
0.0280045
0.000203388
0.0277336
0.000270953
0.0274013
0.000332294
0.0270126
0.00038868
0.0265711
0.000441556
0.0260788
0.000492257
0.0255369
0.000541872
0.0249458
0.000591166
0.0243052
0.000640533
0.0236152
0.000689991
0.0228761
0.000739159
0.0220888
0.000787319
0.0212552
0.000833532
0.0203785
0.0008767
0.0194628
0.000915759
0.0185129
0.00094988
0.0175345
0.000978365
0.0165338
0.00100076
0.0155162
0.00101753
0.0144877
0.0010285
0.0134543
0.00103346
0.0124219
0.00103235
0.0113968
0.0010251
0.0103852
0.00101163
0.00939331
0.000991898
0.00842737
0.000965938
0.00749353
0.000933838
0.00659754
0.000895987
0.00574374
0.000853804
0.00493253
0.000811207
0.00415626
0.000776273
0.0033947
0.00076156
0.00261831
0.000776384
0.00181686
0.000801455
0.000971379
0.000845481
0.000971379
5.10262e-05
-0.000239359
0.000618333
-0.00130975
0.0011784
-0.00132437
0.00162735
-0.00113277
0.00198911
-0.000981781
0.00228895
-0.000876663
0.00253991
-0.000793769
0.00275209
-0.000726175
0.00293704
-0.000676002
0.00310702
-0.000644962
0.00327328
-0.000631933
0.00344523
-0.000634049
0.00363026
-0.000648082
0.00383392
-0.000671086
0.00406003
-0.000700491
0.00431084
-0.000734006
0.00458713
-0.000769562
0.00488841
-0.000805341
0.00521321
-0.000839831
0.00555933
-0.000871893
0.00592422
-0.000900791
0.00630524
-0.000926206
0.00669998
-0.000948199
0.00710644
-0.000967153
0.00752318
-0.000983692
0.00794938
-0.000998574
0.00838478
-0.00101257
0.00882953
-0.00102637
0.00928396
-0.0010404
0.00974832
-0.00105486
0.0102225
-0.00106958
0.0107059
-0.00108406
0.0111969
-0.0010975
0.0116933
-0.00110888
0.0121919
-0.00111704
0.0126892
-0.0011209
0.0131811
-0.00111965
0.0136642
-0.00111303
0.014136
-0.00110155
0.0145957
-0.00108664
0.015045
-0.00107063
0.0154876
-0.00105639
0.0159296
-0.00104678
0.0163777
-0.00104396
0.0168383
-0.00104873
0.0173159
-0.00106025
0.017812
-0.0010762
0.018325
-0.00109334
0.0188504
-0.00110839
0.0193823
-0.00111876
0.0199143
-0.00112306
0.0204412
-0.00112124
0.0209593
-0.00111432
0.0214669
-0.00110392
0.0219643
-0.00109179
0.0224527
-0.00107941
0.0229342
-0.00106771
0.023411
-0.00105709
0.023885
-0.00104745
0.0243575
-0.00103833
0.0248294
-0.00102912
0.0253011
-0.00101919
0.0257723
-0.001008
0.0262425
-0.000995141
0.0267108
-0.000980389
0.0271755
-0.000963662
0.0276349
-0.000945035
0.028087
-0.00092475
0.0285297
-0.000903227
0.028961
-0.000881075
0.0293795
-0.000859036
0.0297844
-0.000837974
0.0301756
-0.000818796
0.0305536
-0.000802349
0.0309194
-0.00078927
0.0312744
-0.000779818
0.0316201
-0.000773708
0.0319581
-0.000770066
0.03229
-0.000767579
0.0326173
-0.000764845
0.0329413
-0.000760788
0.0332633
-0.000754914
0.0335841
-0.00074737
0.0339045
-0.000738786
0.0342247
-0.000729998
0.0345447
-0.000721766
0.0348644
-0.000714577
0.0351837
-0.000708607
0.0355024
-0.000703829
0.0358207
-0.000700185
0.036139
-0.000697705
0.0364578
-0.000696522
0.0367783
-0.000696791
0.0371015
-0.00069857
0.0374294
-0.000701745
0.037764
-0.000706001
0.0381086
-0.000710726
0.0384671
-0.000714786
0.0388435
-0.000716175
0.0392407
-0.000711616
0.0396571
-0.000696399
0.0400834
-0.000664933
0.0404993
-0.000612394
0.0408751
-0.000536913
0.0411772
-0.000441163
0.0413798
-0.000335052
0.0414729
-0.000231103
0.0414615
-0.000140681
0.0413633
-7.18999e-05
0.0412053
-2.89671e-05
0.0410169
-9.12338e-06
0.0408236
-5.50271e-06
0.0406466
-1.46244e-05
0.0405012
-3.36664e-05
0.0404006
-6.48411e-05
0.040358
-0.000112261
0.0403898
-0.000181657
0.0405126
-0.000272713
0.040737
-0.000376944
0.0410632
-0.000479713
0.0414842
-0.000569888
0.0420017
-0.000654463
0.0426568
-0.00076561
0.043541
-0.0009298
0.0447589
-0.00110743
0.0462963
-0.00115973
0.0479266
-0.000908555
0.0492097
-0.00027998
0.0496756
0.000567244
0.0491263
0.00132209
0.0476815
0.00176357
0.0457127
0.00185776
0.043643
0.00169015
0.0418522
0.001359
0.0405826
0.000978835
0.0398867
0.000638935
0.0396812
0.00038406
0.0397812
0.000217616
0.0400399
0.000135567
0.0403403
0.000140712
0.0405728
0.000226847
0.040652
0.000364323
0.0405621
0.000493046
0.0403255
0.000584162
0.0399961
0.000623844
0.0396369
0.000617837
0.0393015
0.000581365
0.039025
0.000530421
0.0388162
0.000481742
0.0386662
0.000444155
0.0385577
0.000422566
0.0384674
0.000419233
0.038371
0.000432736
0.03825
0.000456844
0.0380926
0.00048516
0.0378938
0.000511567
0.0376547
0.000531503
0.037381
0.000542269
0.0370816
0.000542681
0.0367664
0.000532618
0.0364463
0.000512693
0.0361314
0.000484086
0.035831
0.000448379
0.0355529
0.000407281
0.035303
0.000362251
0.0350855
0.000314176
0.0349032
0.000263217
0.0347577
0.000209197
0.0346517
0.000150691
0.0345872
8.81815e-05
0.0345679
2.25696e-05
0.0345854
-3.71998e-05
0.0346331
-8.84101e-05
0.0347018
-0.000129457
0.0347777
-0.000156022
0.0348464
-0.000167636
0.0348968
-0.000167478
0.0349243
-0.000162509
0.0349343
-0.000162797
0.0349438
-0.000179431
0.0349796
-0.000219615
0.03507
-0.000280239
0.0352323
-0.000344616
0.0354623
-0.000387615
0.0357328
-0.000390683
0.0360012
-0.000350646
0.0362268
-0.000284124
0.0363886
-0.000219974
0.0364944
-0.000184623
0.0365735
-0.00019361
0.0366609
-0.00024673
0.0367796
-0.000326056
0.036928
-0.000399293
0.0370772
-0.000431314
0.0371835
-0.000404958
0.0372144
-0.000339571
0.0371687
-0.000282153
0.0370743
-0.000277358
0.0369569
-0.000321511
0.0368141
-0.000362802
0.0366247
-0.000346931
0.0363858
-0.000262309
0.0361375
-0.000140393
0.0359409
-1.70095e-05
0.0358488
5.60505e-05
0.035856
0.000100628
0.0359054
0.000133736
0.0359622
0.00017814
0.0359986
0.000244372
0.0359859
0.000326791
0.0359106
0.000405469
0.0357733
0.00047089
0.0355862
0.000518454
0.0353589
0.000553967
0.0350967
0.000580627
0.0348046
0.000597957
0.0344908
0.000603463
0.0341666
0.000595221
0.0338454
0.000573893
0.03354
0.000543448
0.0332586
0.000510264
0.0330043
0.000480723
0.032776
0.000458398
0.0325746
0.000442417
0.0324064
0.00042743
0.0322752
0.00041816
0.032186
0.000417396
0.0321406
0.000432241
0.0321373
0.000467139
0.0321757
0.000517391
0.0322632
0.00056885
0.0324173
0.000606469
0.0326561
0.000628305
0.03298
0.000652087
0.0333604
0.000699229
0.0337398
0.000774605
0.0340804
0.000834788
0.0343739
0.000828523
0.0346345
0.000731063
0.0348893
0.000556657
0.0351571
0.00035172
0.0354385
0.000167043
0.0357227
3.1213e-05
0.035985
-4.02262e-05
0.036218
-7.58529e-05
0.0364164
-8.86423e-05
0.0365761
-8.27346e-05
0.0366988
-6.43786e-05
0.036789
-3.95453e-05
0.0368529
-1.33317e-05
0.0368959
1.05809e-05
0.0369234
2.95369e-05
0.0369379
4.6077e-05
0.0369408
6.07615e-05
0.0369332
7.44146e-05
0.0369155
8.76099e-05
0.036888
0.000100679
0.0368508
0.000113784
0.0368039
0.000127024
0.0367472
0.000140387
0.0366806
0.00015389
0.0366037
0.000167551
0.0365163
0.00018136
0.0364181
0.000195353
0.0363086
0.00020954
0.0361873
0.000223959
0.0360539
0.000238616
0.035908
0.000253473
0.0357495
0.000268492
0.0355782
0.000283606
0.0353942
0.000298725
0.0351977
0.000313717
0.0349891
0.000328441
0.034769
0.00034277
0.034538
0.000356573
0.0342968
0.000369717
0.0340463
0.000382105
0.0337873
0.000393664
0.0335206
0.000404354
0.0332471
0.000414144
0.0329677
0.000423031
0.0326831
0.000430998
0.0323942
0.000438044
0.0321018
0.000444195
0.0318066
0.000449468
0.0315093
0.000453867
0.0312105
0.000457442
0.030911
0.000460239
0.0306113
0.000462265
0.030312
0.00046354
0.0300137
0.000464129
0.0297169
0.000464051
0.0294221
0.000463352
0.0291297
0.000462065
0.0288402
0.000460235
0.0285538
0.000457929
0.028271
0.000455174
0.0279921
0.000452021
0.0277172
0.000448545
0.0274467
0.00044483
0.0271806
0.000440935
0.0269191
0.000436926
0.0266622
0.000432869
0.0264099
0.000428842
0.0261621
0.000424929
0.0259187
0.000421186
0.0256797
0.00041768
0.0254447
0.000414493
0.0252136
0.000411677
0.0249861
0.000409271
0.0247618
0.000407317
0.0245407
0.000405835
0.0243222
0.000404837
0.0241063
0.000404312
0.0238925
0.000404258
0.0236809
0.000404626
0.0234711
0.000405373
0.023263
0.00040645
0.0230567
0.000407794
0.0228519
0.000409337
0.0226488
0.000411017
0.0224473
0.000412777
0.0222475
0.000414546
0.0220493
0.000416273
0.0218529
0.000417902
0.0216584
0.000419412
0.0214655
0.000420784
0.0212746
0.00042192
0.0210855
0.000422847
0.0208982
0.000423487
0.0207127
0.000423874
0.020529
0.000423964
0.020347
0.000423775
0.0201668
0.000423181
0.0199886
0.000422105
0.0198125
0.000420689
0.0196387
0.00041875
0.0194674
0.000416022
0.0192996
0.000412258
0.0191359
0.000407378
0.0189773
0.000400865
0.0188254
0.000392524
0.0186812
0.000381829
0.0185459
0.000368386
0.0184192
0.000352285
0.0183003
0.00033386
0.0181875
0.000314528
0.0180792
0.000296145
0.0179753
0.000279847
0.0178773
0.000265117
0.0177876
0.000250843
0.0177084
0.000236043
0.0176414
0.000219792
0.017588
0.000200683
0.0175475
0.000178378
0.0175157
0.000154774
0.0174854
0.000133959
0.0174482
0.00012049
0.0173972
0.000116275
0.0173296
0.000119426
0.0172467
0.00012562
0.0171523
0.000130774
0.0170503
0.000132908
0.0169435
0.000132087
0.0168328
0.000129408
0.0167178
0.000126035
0.0165971
0.000122749
0.0164695
0.000119524
0.016336
0.000115729
0.0162004
0.000110086
0.0160721
0.00010014
0.0159672
8.27171e-05
0.0159086
5.41664e-05
0.0159216
1.07438e-05
0.0160259
-4.70506e-05
0.0162311
-0.00012658
0.0165303
-0.00022394
0.016909
-0.00033371
0.0173448
-0.000442878
0.0178076
-0.000533227
0.0182662
-0.000589717
0.0186989
-0.000606606
0.0190955
-0.000590775
0.0194555
-0.000557559
0.0197859
-0.000522699
0.0200991
-0.000498402
0.02041
-0.000491404
0.0207325
-0.00050358
0.0210776
-0.000533172
0.0214519
-0.000576304
0.0218574
-0.000628453
0.0222923
-0.000685617
0.022751
-0.000744762
0.0232252
-0.000802818
0.0237041
-0.000854601
0.0241775
-0.000891685
0.0246369
-0.000905482
0.025076
-0.000893154
0.025491
-0.000861016
0.025882
-0.000821032
0.026252
-0.000783402
0.0266048
-0.000752075
0.0269432
-0.000725387
0.0272679
-0.000700131
0.0275792
-0.000674774
0.0278772
-0.00064994
0.0281634
-0.000627153
0.0284394
-0.000607535
0.0287073
-0.000591255
0.0289682
-0.000577609
0.029223
-0.000565366
0.0294713
-0.000553149
0.0297123
-0.00053974
0.0299448
-0.000524275
0.0301671
-0.000506319
0.0303781
-0.000485815
0.0305764
-0.000462956
0.0307611
-0.000438059
0.0309317
-0.000411454
0.0310875
-0.000383425
0.0312283
-0.000354177
0.0313535
-0.000323844
0.0314629
-0.000292504
0.0315559
-0.000260216
0.0316322
-0.00022702
0.0316913
-0.000192978
0.0317327
-0.000158206
0.0317557
-0.000122877
0.0317595
-8.71574e-05
0.0317423
-5.10038e-05
0.0317011
-1.40523e-05
0.0316321
2.41495e-05
0.0315316
6.49148e-05
0.0313971
0.000108718
0.0312296
0.000152935
0.0310318
0.000195333
0.030807
0.000234743
0.0305584
0.00027003
0.0302896
0.000299406
0.030006
0.00032097
0.0297138
0.00033342
0.0294196
0.000336187
0.0291303
0.000328874
0.0288529
0.000310939
0.028595
0.000281757
0.0283644
0.000240935
0.0281673
0.000188384
0.0280099
0.000125071
0.0278977
5.21628e-05
0.0278344
-2.73327e-05
0.0278232
-0.000111223
0.0278642
-0.000194424
0.0279543
-0.000271313
0.0280872
-0.000336431
0.0282539
-0.000384782
0.0284432
-0.000412359
0.0286426
-0.000416557
0.0288392
-0.000396476
0.0290206
-0.000352951
0.0291766
-0.00028845
0.0292993
-0.000206559
0.029386
-0.000111186
0.0294359
3.72148e-07
0.0294573
0.000107737
0.0294373
0.000223373
0.0293701
0.000338237
0.0292522
0.00045015
0.0290829
0.000557942
0.0288634
0.000661097
0.0285959
0.000759777
0.0282831
0.000854688
0.0279274
0.000946837
0.0275306
0.00103733
0.0270933
0.00112723
0.0266152
0.00121732
0.0260944
0.00130808
0.0255283
0.00139964
0.0249135
0.00149149
0.0242466
0.00158265
0.0235243
0.0016722
0.0227436
0.00175905
0.0219022
0.00184215
0.0209992
0.0019206
0.0200343
0.00199335
0.0190084
0.00205938
0.017923
0.00211778
0.0167805
0.00216761
0.0155843
0.00220781
0.0143388
0.00223735
0.0130492
0.00225553
0.0117216
0.00226153
0.0103642
0.00225337
0.00898973
0.00222825
0.0076155
0.00218544
0.00625882
0.00213295
0.00492739
0.002093
0.00363157
0.0020722
0.00241998
0.00201304
0.00128386
0.0019816
0.00225524
2.60474e-05
-0.000265406
0.000625064
-0.00190877
0.00122109
-0.0019204
0.00165929
-0.00157097
0.00195987
-0.00128236
0.00217333
-0.00109013
0.00233798
-0.000958418
0.00247944
-0.000867638
0.00261683
-0.000813385
0.00276558
-0.000793715
0.00293763
-0.000803986
0.00314109
-0.000837511
0.0033804
-0.000887383
0.00365685
-0.000947536
0.00396933
-0.00101297
0.00431498
-0.00107966
0.00468985
-0.00114443
0.00508947
-0.00120496
0.00550931
-0.00125967
0.0059452
-0.00130778
0.00639357
-0.00134916
0.00685162
-0.00138426
0.00731741
-0.00141399
0.00778975
-0.00143949
0.00826812
-0.00146205
0.00875241
-0.00148287
0.00924273
-0.0015029
0.0097391
-0.00152274
0.0102412
-0.00154252
0.0107483
-0.0015619
0.0112588
-0.00158012
0.0117708
-0.00159608
0.0122819
-0.00160853
0.0127892
-0.00161625
0.0132906
-0.00161835
0.0137841
-0.00161446
0.0142695
-0.00160503
0.014748
-0.00159151
0.0152228
-0.00157638
0.0156991
-0.00156289
0.0161831
-0.00155463
0.0166814
-0.00155475
0.0171998
-0.00156513
0.0177415
-0.00158573
0.018307
-0.00161425
0.0188933
-0.00164651
0.0194944
-0.00167727
0.0201024
-0.00170138
0.0207089
-0.00171491
0.0213061
-0.00171592
0.0218878
-0.00170471
0.0224499
-0.00168342
0.022991
-0.00165534
0.0235111
-0.00162404
0.0240119
-0.00159259
0.0244956
-0.00156313
0.0249645
-0.00153666
0.0254207
-0.00151322
0.0258654
-0.00149214
0.0262994
-0.00147242
0.0267233
-0.00145297
0.027137
-0.00143286
0.0275404
-0.0014114
0.0279334
-0.00138819
0.0283161
-0.0013631
0.0286887
-0.00133621
0.0290515
-0.00130785
0.0294053
-0.00127853
0.0297509
-0.00124888
0.0300895
-0.00121968
0.0304222
-0.00119173
0.03075
-0.00116577
0.0310736
-0.00114237
0.031393
-0.00112178
0.0317077
-0.00110391
0.0320162
-0.00108836
0.0323171
-0.00107463
0.0326093
-0.00106221
0.0328924
-0.00105072
0.0331675
-0.00103993
0.0334366
-0.00102987
0.0337023
-0.00102065
0.0339673
-0.00101235
0.0342332
-0.00100472
0.0345004
-0.000997186
0.0347676
-0.000988926
0.0350321
-0.000979126
0.0352908
-0.00096726
0.0355402
-0.000953253
0.0357775
-0.000937451
0.0360002
-0.000920405
0.0362062
-0.000902557
0.0363935
-0.000884072
0.0365597
-0.000864762
0.0367022
-0.00084428
0.0368186
-0.00082242
0.0369072
-0.000799284
0.0369675
-0.000775117
0.0370012
-0.000749908
0.0370123
-0.000722713
0.0370069
-0.000690984
0.0369924
-0.000650448
0.0369761
-0.00059609
0.0369639
-0.000524688
0.0369599
-0.000437103
0.036961
-0.000336238
0.03696
-0.000230062
0.036949
-0.000129729
0.0369217
-4.45802e-05
0.0368834
9.38246e-06
0.0368368
3.74678e-05
0.0367905
4.07342e-05
0.0367577
1.82727e-05
0.0367559
-3.19295e-05
0.0367983
-0.000107218
0.0368913
-0.000205244
0.0370301
-0.00032044
0.0371969
-0.00043956
0.0373613
-0.000541315
0.0374797
-0.000598165
0.0375
-0.000590169
0.0373682
-0.000522694
0.0370541
-0.000451491
0.0365717
-0.000447383
0.0360159
-0.000551629
0.0355582
-0.000701991
0.03537
-0.000720426
0.0354502
-0.000360148
0.0355887
0.000428731
0.0354484
0.00146241
0.0348339
0.0023781
0.0338413
0.00285028
0.0327291
0.00280235
0.0317441
0.00234409
0.0310108
0.00171207
0.0305301
0.00111967
0.0302368
0.000677316
0.0300656
0.000388803
0.0299774
0.000223859
0.0299493
0.000168743
0.0299727
0.000203446
0.0300241
0.000312961
0.0300617
0.000455439
0.0300625
0.000583306
0.0300227
0.000663683
0.0299527
0.000687827
0.0298681
0.000665982
0.0297842
0.000614321
0.0297139
0.000552047
0.0296646
0.000493423
0.0296396
0.000447575
0.0296397
0.000419159
0.0296635
0.000408893
0.0297057
0.000414675
0.02976
0.000430845
0.0298209
0.000450699
0.0298841
0.000468278
0.029947
0.000479385
0.0300081
0.000481558
0.0300672
0.000473575
0.0301249
0.000454962
0.0301833
0.000425677
0.0302458
0.000385892
0.0303172
0.000335839
0.0304037
0.000275785
0.0305117
0.000206174
0.0306467
0.000128256
0.0308095
4.63935e-05
0.0309964
-3.62006e-05
0.0312035
-0.000118954
0.0314145
-0.000188408
0.0316159
-0.000238604
0.0317943
-0.000266854
0.031937
-0.000272167
0.0320379
-0.000256884
0.0320976
-0.000227297
0.0321243
-0.000194228
0.0321346
-0.000172803
0.0321516
-0.000179826
0.0321993
-0.000227128
0.0322934
-0.0003137
0.0324381
-0.000424926
0.0326297
-0.000536188
0.0328611
-0.000619047
0.0331259
-0.000655527
0.0334207
-0.000645411
0.0337415
-0.000604936
0.0340826
-0.000561022
0.03444
-0.000542029
0.0348118
-0.000565468
0.0351941
-0.000628985
0.035573
-0.000704985
0.0359144
-0.000740725
0.0361559
-0.000672761
0.0362131
-0.000462116
0.0360087
-0.000135237
0.0355038
0.000222722
0.0347305
0.000496029
0.0337735
0.000635448
0.0327466
0.000664051
0.0317721
0.000627647
0.0309677
0.000542054
0.0304248
0.000402464
0.0301851
0.000222731
0.0302023
3.88842e-05
0.0303756
-7.27364e-05
0.0306172
-0.000107815
0.0308704
-7.50785e-05
0.0311053
9.4745e-06
0.031311
0.0001211
0.0314972
0.00021926
0.0316644
0.00030372
0.0318112
0.000371613
0.0319387
0.000426531
0.0320482
0.000471042
0.0321414
0.000504756
0.0322199
0.000525014
0.0322858
0.000529277
0.0323419
0.000517864
0.0323901
0.000495198
0.0324318
0.000468553
0.0324678
0.000444786
0.0324991
0.000427012
0.0325277
0.000413836
0.0325527
0.000402438
0.0325809
0.000390016
0.0326228
0.000375464
0.0326941
0.000360978
0.0328155
0.000345681
0.0330113
0.000321558
0.0333038
0.000276432
0.0337043
0.000205932
0.0342093
0.000123319
0.0347986
6.28159e-05
0.0354435
5.42547e-05
0.0361225
9.55976e-05
0.036804
0.000153366
0.0374358
0.000196664
0.0379678
0.000199103
0.0383611
0.000163346
0.0386023
0.00011054
0.0387073
6.19654e-05
0.0387105
2.80338e-05
0.0386615
8.77389e-06
0.038584
1.68379e-06
0.0384908
4.55506e-06
0.0383909
1.7148e-05
0.0382886
3.78935e-05
0.0381859
6.32202e-05
0.038083
8.95884e-05
0.0379793
0.000114227
0.0378726
0.000136198
0.0377623
0.000156447
0.0376474
0.000175663
0.0375275
0.000194303
0.0374026
0.000212539
0.0372728
0.000230415
0.0371387
0.000247899
0.0370007
0.000265034
0.0368593
0.00028182
0.0367148
0.000298344
0.0365676
0.000314727
0.0364179
0.000331141
0.0362654
0.000347764
0.0361102
0.000364793
0.0359518
0.000382367
0.0357898
0.000400587
0.0356238
0.000419491
0.0354532
0.000439041
0.0352777
0.000459125
0.0350969
0.000479544
0.0349106
0.000500068
0.0347186
0.000520443
0.0345209
0.000540404
0.0343178
0.000559706
0.0341094
0.000578144
0.0338959
0.000595559
0.0336777
0.000611836
0.0334552
0.000626911
0.0332286
0.000640759
0.0329982
0.000653372
0.0327645
0.000664741
0.0325276
0.000674882
0.032288
0.000683844
0.0320458
0.000691646
0.0318014
0.000698312
0.031555
0.000703847
0.0313069
0.000708318
0.0310574
0.000711729
0.0308069
0.000714108
0.0305555
0.000715515
0.0303035
0.000715989
0.0300513
0.000715545
0.0297992
0.00071423
0.0295473
0.000712097
0.0292961
0.000709162
0.0290457
0.000705511
0.0287966
0.000701206
0.0285488
0.000696316
0.0283027
0.00069091
0.0280586
0.000685075
0.0278166
0.000678868
0.0275771
0.000672394
0.0273402
0.000665777
0.027106
0.000659112
0.0268747
0.00065249
0.0266463
0.000646007
0.0264211
0.00063977
0.0261989
0.000633888
0.0259797
0.000628443
0.0257635
0.000623519
0.0255502