/*--------------------------------*- C++ -*----------------------------------*\
| =========                 |                                                 |
| \\      /  F ield         | OpenFOAM: The Open Source CFD Toolbox           |
|  \\    /   O peration     | Version:  v2006                                 |
|   \\  /    A nd           | Website:  www.openfoam.com                      |
|    \\/     M anipulation  |                                                 |
\*---------------------------------------------------------------------------*/
FoamFile
{
    version     2.0;
    format      ascii;
    class       volScalarField;
    location    "15.5";
    object      p_rgh;
}
// * * * * * * * * * * * * * * * * * * * * * * * * * * * * * * * * * * * * * //

dimensions      [1 -1 -2 0 0 0 0];


internalField   nonuniform List<scalar> 
50000
(
2909.88
2909.57
2908.94
2908.02
2906.78
2905.23
2903.39
2901.25
2898.8
2896.07
2893.04
2889.74
2886.15
2882.29
2878.16
2873.77
2869.12
2864.23
2859.09
2853.71
2848.1
2842.28
2836.24
2829.99
2823.55
2816.93
2810.13
2803.16
2796.03
2788.75
2781.33
2773.78
2766.11
2758.33
2750.45
2742.48
2734.43
2726.31
2718.14
2709.93
2701.67
2693.39
2685.1
2676.81
2668.51
2660.24
2651.99
2643.79
2635.63
2627.53
2619.49
2611.54
2603.68
2595.92
2588.26
2580.73
2573.32
2566.05
2558.93
2551.97
2545.16
2538.53
2532.08
2525.81
2519.74
2513.87
2508.2
2502.75
2497.52
2492.52
2487.74
2483.2
2478.9
2474.85
2471.04
2467.48
2464.17
2461.11
2458.31
2455.77
2453.49
2451.46
2449.68
2448.17
2446.9
2445.89
2445.13
2444.61
2444.34
2444.31
2444.51
2444.94
2445.6
2446.47
2447.56
2448.86
2450.36
2452.05
2453.92
2455.97
2458.18
2460.56
2463.08
2465.74
2468.53
2471.45
2474.48
2477.61
2480.84
2484.15
2487.54
2491.01
2494.53
2498.1
2501.72
2505.36
2509.03
2512.7
2516.37
2520.03
2523.67
2527.28
2530.86
2534.39
2537.87
2541.29
2544.64
2547.91
2551.1
2554.2
2557.2
2560.1
2562.88
2565.55
2568.09
2570.5
2572.78
2574.92
2576.91
2578.75
2580.44
2581.98
2583.35
2584.56
2585.6
2586.47
2587.17
2587.69
2588.05
2588.22
2910.46
2910.15
2909.53
2908.6
2907.36
2905.81
2903.96
2901.81
2899.36
2896.62
2893.59
2890.27
2886.67
2882.8
2878.66
2874.26
2869.6
2864.69
2859.54
2854.15
2848.53
2842.69
2836.64
2830.38
2823.92
2817.28
2810.46
2803.47
2796.31
2789.01
2781.57
2774
2766.31
2758.51
2750.61
2742.62
2734.55
2726.42
2718.23
2709.99
2701.71
2693.42
2685.11
2676.79
2668.48
2660.19
2651.92
2643.69
2635.51
2627.39
2619.34
2611.37
2603.49
2595.71
2588.04
2580.49
2573.06
2565.78
2558.64
2551.65
2544.83
2538.19
2531.72
2525.44
2519.35
2513.47
2507.79
2502.33
2497.09
2492.07
2487.29
2482.74
2478.44
2474.37
2470.56
2466.99
2463.68
2460.62
2457.82
2455.28
2452.99
2450.96
2449.19
2447.68
2446.42
2445.41
2444.66
2444.15
2443.88
2443.86
2444.07
2444.51
2445.18
2446.07
2447.17
2448.48
2449.99
2451.69
2453.57
2455.64
2457.87
2460.26
2462.8
2465.49
2468.3
2471.23
2474.28
2477.43
2480.68
2484.01
2487.42
2490.9
2494.44
2498.03
2501.66
2505.32
2509
2512.69
2516.38
2520.05
2523.71
2527.34
2530.94
2534.48
2537.98
2541.41
2544.78
2548.07
2551.27
2554.38
2557.39
2560.3
2563.1
2565.77
2568.33
2570.75
2573.04
2575.19
2577.19
2579.04
2580.74
2582.28
2583.66
2584.88
2585.92
2586.8
2587.5
2588.03
2588.38
2588.56
2911.64
2911.33
2910.7
2909.77
2908.52
2906.96
2905.1
2902.95
2900.5
2897.73
2894.68
2891.34
2887.72
2883.83
2879.67
2875.24
2870.56
2865.62
2860.44
2855.02
2849.37
2843.5
2837.41
2831.12
2824.64
2817.96
2811.1
2804.08
2796.89
2789.55
2782.07
2774.47
2766.74
2758.9
2750.97
2742.94
2734.84
2726.67
2718.44
2710.15
2701.83
2693.48
2685.13
2676.77
2668.41
2660.08
2651.77
2643.5
2635.28
2627.12
2619.03
2611.02
2603.11
2595.29
2587.58
2579.99
2572.53
2565.21
2558.04
2551.02
2544.17
2537.49
2531
2524.69
2518.58
2512.67
2506.97
2501.48
2496.22
2491.19
2486.38
2481.82
2477.5
2473.42
2469.59
2466.02
2462.7
2459.64
2456.83
2454.29
2452
2449.97
2448.21
2446.7
2445.45
2444.45
2443.71
2443.21
2442.97
2442.96
2443.19
2443.65
2444.34
2445.25
2446.38
2447.72
2449.25
2450.98
2452.9
2454.99
2457.26
2459.68
2462.26
2464.97
2467.82
2470.8
2473.88
2477.08
2480.36
2483.74
2487.2
2490.72
2494.29
2497.92
2501.58
2505.27
2508.98
2512.7
2516.41
2520.12
2523.81
2527.47
2531.1
2534.68
2538.2
2541.67
2545.06
2548.37
2551.6
2554.74
2557.78
2560.71
2563.53
2566.23
2568.8
2571.25
2573.55
2575.72
2577.74
2579.61
2581.32
2582.87
2584.26
2585.49
2586.54
2587.43
2588.13
2588.67
2589.02
2589.2
2913.41
2913.1
2912.47
2911.52
2910.26
2908.69
2906.81
2904.62
2902.12
2899.35
2896.29
2892.93
2889.28
2885.36
2881.17
2876.7
2871.98
2867.01
2861.79
2856.32
2850.63
2844.72
2838.58
2832.24
2825.71
2818.98
2812.07
2804.99
2797.75
2790.35
2782.82
2775.15
2767.36
2759.46
2751.46
2743.37
2735.2
2726.96
2718.66
2710.33
2701.96
2693.56
2685.14
2676.72
2668.31
2659.91
2651.55
2643.22
2634.94
2626.72
2618.57
2610.51
2602.53
2594.66
2586.89
2579.25
2571.74
2564.37
2557.15
2550.08
2543.18
2536.46
2529.92
2523.56
2517.41
2511.46
2505.73
2500.21
2494.91
2489.85
2485.02
2480.43
2476.09
2471.99
2468.15
2464.56
2461.23
2458.15
2455.34
2452.8
2450.51
2448.49
2446.73
2445.23
2443.99
2443.01
2442.28
2441.81
2441.58
2441.6
2441.86
2442.35
2443.08
2444.03
2445.19
2446.57
2448.14
2449.92
2451.88
2454.02
2456.33
2458.8
2461.43
2464.19
2467.09
2470.11
2473.25
2476.5
2479.84
2483.27
2486.77
2490.35
2493.98
2497.67
2501.39
2505.15
2508.91
2512.69
2516.46
2520.22
2523.97
2527.68
2531.35
2534.98
2538.55
2542.06
2545.49
2548.85
2552.12
2555.3
2558.37
2561.34
2564.19
2566.92
2569.52
2571.99
2574.33
2576.51
2578.56
2580.44
2582.18
2583.75
2585.15
2586.39
2587.45
2588.35
2589.06
2589.6
2589.96
2590.14
2915.78
2915.46
2914.83
2913.87
2912.59
2911
2909.1
2906.89
2904.37
2901.56
2898.46
2895.06
2891.38
2887.41
2883.17
2878.66
2873.89
2868.87
2863.59
2858.07
2852.32
2846.34
2840.15
2833.74
2827.14
2820.34
2813.36
2806.21
2798.9
2791.43
2783.82
2776.08
2768.21
2760.24
2752.16
2743.99
2735.74
2727.43
2719.06
2710.64
2702.17
2693.68
2685.18
2676.67
2668.17
2659.7
2651.25
2642.84
2634.48
2626.18
2617.95
2609.81
2601.76
2593.81
2585.97
2578.26
2570.68
2563.24
2555.95
2548.82
2541.85
2535.07
2528.47
2522.06
2515.85
2509.85
2504.07
2498.5
2493.17
2488.06
2483.2
2478.57
2474.2
2470.08
2466.21
2462.6
2459.25
2456.17
2453.35
2450.8
2448.51
2446.49
2444.74
2443.26
2442.03
2441.07
2440.37
2439.92
2439.73
2439.78
2440.08
2440.61
2441.38
2442.38
2443.59
2445.02
2446.66
2448.49
2450.51
2452.72
2455.09
2457.63
2460.33
2463.16
2466.14
2469.24
2472.46
2475.78
2479.21
2482.72
2486.31
2489.97
2493.67
2497.42
2501.21
2505.03
2508.86
2512.71
2516.55
2520.38
2524.18
2527.96
2531.7
2535.39
2539.02
2542.59
2546.09
2549.5
2552.82
2556.05
2559.17
2562.19
2565.08
2567.85
2570.5
2573
2575.37
2577.59
2579.66
2581.58
2583.33
2584.92
2586.35
2587.6
2588.68
2589.58
2590.31
2590.85
2591.22
2591.4
2918.76
2918.43
2917.79
2916.82
2915.52
2913.91
2911.98
2909.74
2907.19
2904.33
2901.19
2897.74
2894.01
2889.99
2885.69
2881.12
2876.29
2871.2
2865.85
2860.26
2854.44
2848.38
2842.11
2835.62
2828.93
2822.05
2814.98
2807.74
2800.34
2792.78
2785.07
2777.23
2769.27
2761.19
2753.01
2744.74
2736.39
2727.97
2719.49
2710.96
2702.4
2693.81
2685.21
2676.6
2668
2659.42
2650.87
2642.36
2633.9
2625.5
2617.18
2608.94
2600.79
2592.75
2584.82
2577.01
2569.34
2561.82
2554.44
2547.23
2540.19
2533.32
2526.65
2520.17
2513.9
2507.83
2501.98
2496.36
2490.97
2485.82
2480.9
2476.24
2471.83
2467.67
2463.78
2460.14
2456.78
2453.68
2450.85
2448.29
2446.01
2443.99
2442.25
2440.78
2439.57
2438.64
2437.96
2437.55
2437.4
2437.49
2437.84
2438.43
2439.25
2440.31
2441.59
2443.09
2444.79
2446.7
2448.8
2451.08
2453.54
2456.17
2458.95
2461.88
2464.94
2468.13
2471.44
2474.86
2478.37
2481.97
2485.65
2489.39
2493.2
2497.05
2500.94
2504.85
2508.78
2512.71
2516.64
2520.56
2524.45
2528.31
2532.13
2535.9
2539.61
2543.26
2546.82
2550.31
2553.7
2556.99
2560.18
2563.25
2566.2
2569.03
2571.72
2574.28
2576.69
2578.95
2581.06
2583.01
2584.79
2586.41
2587.86
2589.13
2590.23
2591.15
2591.89
2592.44
2592.81
2593
2922.34
2922.01
2921.36
2920.37
2919.05
2917.41
2915.45
2913.17
2910.58
2907.68
2904.47
2900.97
2897.18
2893.1
2888.73
2884.09
2879.18
2874
2868.58
2862.9
2856.98
2850.84
2844.47
2837.88
2831.09
2824.11
2816.94
2809.59
2802.07
2794.4
2786.58
2778.62
2770.54
2762.34
2754.04
2745.65
2737.18
2728.63
2720.03
2711.38
2702.7
2693.98
2685.25
2676.52
2667.79
2659.09
2650.41
2641.78
2633.2
2624.69
2616.24
2607.89
2599.62
2591.47
2583.43
2575.51
2567.73
2560.1
2552.63
2545.31
2538.18
2531.22
2524.46
2517.89
2511.53
2505.39
2499.47
2493.78
2488.32
2483.1
2478.13
2473.42
2468.96
2464.76
2460.83
2457.17
2453.78
2450.66
2447.82
2445.26
2442.97
2440.97
2439.23
2437.78
2436.6
2435.69
2435.06
2434.69
2434.58
2434.73
2435.13
2435.79
2436.68
2437.81
2439.17
2440.75
2442.54
2444.54
2446.73
2449.11
2451.67
2454.4
2457.29
2460.32
2463.5
2466.8
2470.23
2473.76
2477.39
2481.1
2484.9
2488.77
2492.68
2496.64
2500.63
2504.65
2508.69
2512.73
2516.76
2520.78
2524.78
2528.74
2532.65
2536.52
2540.32
2544.06
2547.71
2551.28
2554.75
2558.12
2561.39
2564.53
2567.55
2570.45
2573.2
2575.82
2578.28
2580.59
2582.75
2584.74
2586.56
2588.22
2589.69
2590.99
2592.11
2593.05
2593.8
2594.36
2594.74
2594.94
2926.55
2926.21
2925.54
2924.54
2923.2
2921.52
2919.52
2917.19
2914.55
2911.6
2908.33
2904.76
2900.9
2896.74
2892.29
2887.56
2882.56
2877.3
2871.77
2865.99
2859.97
2853.72
2847.23
2840.53
2833.63
2826.52
2819.22
2811.74
2804.1
2796.29
2788.34
2780.25
2772.03
2763.69
2755.25
2746.72
2738.1
2729.41
2720.66
2711.86
2703.02
2694.16
2685.29
2676.41
2667.55
2658.7
2649.88
2641.1
2632.38
2623.73
2615.14
2606.65
2598.25
2589.96
2581.79
2573.75
2565.84
2558.09
2550.49
2543.06
2535.81
2528.75
2521.88
2515.21
2508.76
2502.52
2496.51
2490.74
2485.2
2479.91
2474.88
2470.1
2465.59
2461.35
2457.37
2453.68
2450.26
2447.12
2444.27
2441.69
2439.41
2437.41
2435.69
2434.26
2433.1
2432.23
2431.64
2431.32
2431.26
2431.48
2431.95
2432.68
2433.65
2434.87
2436.32
2438
2439.89
2442
2444.3
2446.8
2449.48
2452.33
2455.34
2458.5
2461.81
2465.24
2468.8
2472.46
2476.23
2480.08
2484
2487.99
2492.05
2496.14
2500.27
2504.42
2508.58
2512.75
2516.91
2521.05
2525.16
2529.24
2533.27
2537.25
2541.16
2545
2548.75
2552.42
2555.99
2559.45
2562.81
2566.04
2569.14
2572.11
2574.94
2577.62
2580.15
2582.52
2584.73
2586.77
2588.64
2590.34
2591.85
2593.19
2594.33
2595.29
2596.06
2596.64
2597.03
2597.23
2931.38
2931.04
2930.36
2929.33
2927.96
2926.25
2924.2
2921.82
2919.12
2916.1
2912.77
2909.12
2905.17
2900.92
2896.38
2891.56
2886.46
2881.08
2875.44
2869.55
2863.41
2857.03
2850.41
2843.58
2836.54
2829.29
2821.85
2814.22
2806.43
2798.47
2790.36
2782.11
2773.73
2765.24
2756.63
2747.93
2739.15
2730.3
2721.38
2712.41
2703.41
2694.38
2685.34
2676.3
2667.26
2658.25
2649.26
2640.32
2631.44
2622.62
2613.88
2605.23
2596.67
2588.23
2579.91
2571.72
2563.67
2555.77
2548.04
2540.47
2533.09
2525.9
2518.91
2512.12
2505.56
2499.21
2493.1
2487.23
2481.61
2476.24
2471.13
2466.28
2461.71
2457.41
2453.39
2449.65
2446.2
2443.03
2440.16
2437.58
2435.29
2433.3
2431.6
2430.19
2429.07
2428.24
2427.69
2427.43
2427.44
2427.73
2428.28
2429.09
2430.16
2431.48
2433.04
2434.83
2436.84
2439.07
2441.5
2444.13
2446.95
2449.94
2453.1
2456.41
2459.87
2463.45
2467.16
2470.98
2474.9
2478.9
2482.99
2487.14
2491.34
2495.58
2499.86
2504.16
2508.47
2512.78
2517.08
2521.36
2525.61
2529.82
2533.98
2538.09
2542.12
2546.08
2549.96
2553.74
2557.42
2560.99
2564.44
2567.77
2570.97
2574.02
2576.94
2579.7
2582.3
2584.74
2587.02
2589.12
2591.04
2592.79
2594.35
2595.72
2596.9
2597.88
2598.67
2599.27
2599.67
2599.87
2936.85
2936.5
2935.81
2934.76
2933.36
2931.6
2929.5
2927.06
2924.3
2921.2
2917.79
2914.05
2910.01
2905.66
2901.02
2896.08
2890.86
2885.36
2879.6
2873.57
2867.29
2860.77
2854.01
2847.03
2839.83
2832.42
2824.82
2817.03
2809.06
2800.93
2792.65
2784.22
2775.66
2766.99
2758.2
2749.31
2740.34
2731.3
2722.19
2713.04
2703.85
2694.63
2685.39
2676.16
2666.93
2657.73
2648.56
2639.43
2630.37
2621.36
2612.44
2603.61
2594.88
2586.26
2577.77
2569.41
2561.2
2553.14
2545.25
2537.53
2530
2522.67
2515.54
2508.62
2501.92
2495.46
2489.23
2483.25
2477.53
2472.06
2466.87
2461.94
2457.29
2452.93
2448.85
2445.07
2441.58
2438.39
2435.49
2432.9
2430.61
2428.63
2426.95
2425.56
2424.48
2423.7
2423.21
2423.01
2423.09
2423.46
2424.1
2425.02
2426.19
2427.63
2429.31
2431.22
2433.37
2435.75
2438.33
2441.11
2444.09
2447.24
2450.56
2454.04
2457.67
2461.43
2465.31
2469.31
2473.4
2477.58
2481.84
2486.16
2490.54
2494.96
2499.41
2503.87
2508.35
2512.82
2517.29
2521.72
2526.13
2530.49
2534.8
2539.05
2543.23
2547.33
2551.33
2555.24
2559.05
2562.74
2566.3
2569.74
2573.04
2576.2
2579.21
2582.06
2584.75
2587.27
2589.62
2591.79
2593.78
2595.57
2597.18
2598.6
2599.82
2600.83
2601.65
2602.26
2602.68
2602.89
2942.97
2942.61
2941.9
2940.83
2939.39
2937.59
2935.44
2932.93
2930.09
2926.91
2923.41
2919.57
2915.43
2910.96
2906.2
2901.14
2895.79
2890.15
2884.24
2878.07
2871.64
2864.96
2858.03
2850.88
2843.51
2835.93
2828.14
2820.17
2812.01
2803.69
2795.21
2786.58
2777.82
2768.94
2759.94
2750.85
2741.67
2732.42
2723.1
2713.73
2704.33
2694.9
2685.45
2676
2666.57
2657.15
2647.77
2638.44
2629.16
2619.95
2610.83
2601.8
2592.87
2584.06
2575.37
2566.83
2558.43
2550.19
2542.12
2534.23
2526.54
2519.04
2511.75
2504.69
2497.85
2491.25
2484.89
2478.79
2472.95
2467.37
2462.08
2457.06
2452.33
2447.9
2443.76
2439.92
2436.39
2433.16
2430.25
2427.64
2425.35
2423.38
2421.71
2420.36
2419.32
2418.59
2418.16
2418.03
2418.2
2418.66
2419.41
2420.44
2421.73
2423.3
2425.11
2427.18
2429.48
2432.01
2434.76
2437.72
2440.87
2444.21
2447.72
2451.39
2455.21
2459.17
2463.25
2467.44
2471.73
2476.11
2480.57
2485.09
2489.66
2494.27
2498.91
2503.57
2508.23
2512.89
2517.53
2522.15
2526.73
2531.26
2535.73
2540.14
2544.48
2548.73
2552.88
2556.94
2560.88
2564.7
2568.4
2571.96
2575.38
2578.65
2581.77
2584.72
2587.5
2590.11
2592.54
2594.79
2596.85
2598.71
2600.37
2601.84
2603.1
2604.15
2605
2605.63
2606.06
2606.28
2949.74
2949.38
2948.65
2947.55
2946.08
2944.24
2942.02
2939.44
2936.52
2933.25
2929.64
2925.69
2921.43
2916.84
2911.94
2906.74
2901.24
2895.46
2889.39
2883.05
2876.45
2869.59
2862.49
2855.15
2847.59
2839.81
2831.82
2823.64
2815.27
2806.74
2798.04
2789.19
2780.21
2771.1
2761.88
2752.55
2743.14
2733.65
2724.1
2714.5
2704.86
2695.19
2685.51
2675.82
2666.15
2656.5
2646.89
2637.33
2627.82
2618.39
2609.04
2599.78
2590.64
2581.61
2572.71
2563.95
2555.35
2546.91
2538.65
2530.57
2522.69
2515.01
2507.55
2500.31
2493.31
2486.56
2480.06
2473.82
2467.85
2462.16
2456.75
2451.63
2446.81
2442.29
2438.08
2434.18
2430.6
2427.34
2424.4
2421.78
2419.49
2417.52
2415.88
2414.56
2413.57
2412.89
2412.53
2412.49
2412.75
2413.32
2414.18
2415.33
2416.76
2418.47
2420.45
2422.68
2425.15
2427.86
2430.8
2433.95
2437.3
2440.85
2444.57
2448.45
2452.49
2456.66
2460.96
2465.38
2469.89
2474.5
2479.17
2483.91
2488.7
2493.53
2498.38
2503.25
2508.12
2512.98
2517.82
2522.63
2527.4
2532.12
2536.78
2541.37
2545.88
2550.29
2554.61
2558.83
2562.92
2566.9
2570.74
2574.43
2577.99
2581.38
2584.62
2587.68
2590.57
2593.28
2595.8
2598.14
2600.27
2602.2
2603.93
2605.45
2606.76
2607.85
2608.73
2609.39
2609.83
2610.06
2957.19
2956.82
2956.07
2954.95
2953.44
2951.54
2949.26
2946.61
2943.59
2940.21
2936.49
2932.42
2928.02
2923.3
2918.25
2912.9
2907.24
2901.29
2895.05
2888.53
2881.74
2874.69
2867.39
2859.85
2852.07
2844.07
2835.87
2827.46
2818.86
2810.09
2801.15
2792.06
2782.83
2773.47
2764
2754.42
2744.75
2735.01
2725.2
2715.33
2705.43
2695.51
2685.56
2675.62
2665.69
2655.79
2645.92
2636.1
2626.34
2616.66
2607.06
2597.56
2588.17
2578.9
2569.77
2560.79
2551.96
2543.3
2534.81
2526.52
2518.44
2510.56
2502.91
2495.49
2488.31
2481.38
2474.72
2468.33
2462.21
2456.39
2450.85
2445.62
2440.7
2436.09
2431.8
2427.84
2424.2
2420.9
2417.93
2415.29
2413
2411.04
2409.42
2408.14
2407.2
2406.59
2406.31
2406.35
2406.72
2407.4
2408.39
2409.68
2411.26
2413.14
2415.28
2417.7
2420.36
2423.28
2426.42
2429.79
2433.37
2437.14
2441.09
2445.22
2449.49
2453.91
2458.46
2463.12
2467.88
2472.73
2477.65
2482.63
2487.66
2492.73
2497.82
2502.91
2508.01
2513.09
2518.16
2523.18
2528.16
2533.09
2537.95
2542.73
2547.43
2552.04
2556.54
2560.93
2565.19
2569.33
2573.32
2577.17
2580.87
2584.41
2587.77
2590.96
2593.97
2596.79
2599.41
2601.84
2604.06
2606.07
2607.87
2609.45
2610.81
2611.95
2612.86
2613.55
2614.01
2614.24
2965.32
2964.92
2964.16
2963.01
2961.47
2959.52
2957.18
2954.44
2951.32
2947.83
2943.98
2939.77
2935.22
2930.34
2925.14
2919.62
2913.79
2907.65
2901.23
2894.51
2887.52
2880.26
2872.74
2864.98
2856.97
2848.74
2840.29
2831.63
2822.78
2813.75
2804.55
2795.19
2785.69
2776.06
2766.31
2756.45
2746.5
2736.48
2726.39
2716.24
2706.05
2695.84
2685.62
2675.39
2665.18
2654.99
2644.85
2634.75
2624.72
2614.76
2604.89
2595.12
2585.47
2575.94
2566.55
2557.31
2548.23
2539.33
2530.61
2522.09
2513.78
2505.68
2497.82
2490.19
2482.82
2475.7
2468.86
2462.3
2456.03
2450.05
2444.38
2439.03
2433.99
2429.28
2424.9
2420.86
2417.16
2413.81
2410.81
2408.16
2405.86
2403.91
2402.32
2401.08
2400.19
2399.65
2399.45
2399.6
2400.08
2400.89
2402.02
2403.46
2405.22
2407.27
2409.61
2412.22
2415.1
2418.24
2421.62
2425.23
2429.05
2433.08
2437.29
2441.68
2446.22
2450.91
2455.73
2460.66
2465.7
2470.82
2476.01
2481.26
2486.55
2491.88
2497.22
2502.57
2507.92
2513.25
2518.55
2523.81
2529.02
2534.17
2539.25
2544.25
2549.16
2553.96
2558.66
2563.24
2567.69
2572.01
2576.18
2580.19
2584.05
2587.73
2591.24
2594.57
2597.7
2600.64
2603.38
2605.91
2608.23
2610.32
2612.2
2613.85
2615.27
2616.46
2617.41
2618.12
2618.6
2618.85
2974.13
2973.7
2972.93
2971.74
2970.14
2968.16
2965.78
2962.97
2959.75
2956.11
2952.11
2947.75
2943.04
2937.99
2932.61
2926.91
2920.89
2914.56
2907.93
2901.01
2893.8
2886.31
2878.56
2870.55
2862.29
2853.8
2845.09
2836.16
2827.04
2817.72
2808.24
2798.59
2788.8
2778.87
2768.82
2758.66
2748.4
2738.07
2727.67
2717.22
2706.72
2696.2
2685.67
2675.14
2664.62
2654.13
2643.67
2633.27
2622.94
2612.68
2602.52
2592.46
2582.52
2572.71
2563.04
2553.53
2544.18
2535.01
2526.03
2517.25
2508.69
2500.36
2492.26
2484.41
2476.82
2469.5
2462.46
2455.71
2449.27
2443.13
2437.31
2431.81
2426.65
2421.82
2417.35
2413.22
2409.46
2406.05
2403.01
2400.34
2398.03
2396.1
2394.53
2393.34
2392.51
2392.05
2391.94
2392.2
2392.8
2393.75
2395.04
2396.66
2398.59
2400.84
2403.39
2406.23
2409.35
2412.74
2416.37
2420.25
2424.34
2428.65
2433.15
2437.83
2442.67
2447.66
2452.78
2458.01
2463.34
2468.76
2474.24
2479.78
2485.37
2490.98
2496.6
2502.23
2507.84
2513.44
2519
2524.52
2529.98
2535.37
2540.69
2545.92
2551.05
2556.08
2561
2565.78
2570.43
2574.94
2579.3
2583.5
2587.53
2591.38
2595.04
2598.52
2601.8
2604.87
2607.73
2610.37
2612.79
2614.98
2616.94
2618.67
2620.15
2621.39
2622.38
2623.13
2623.63
2623.89
2983.65
2983.26
2982.39
2981.12
2979.46
2977.48
2975.09
2972.23
2968.88
2965.08
2960.9
2956.36
2951.47
2946.24
2940.67
2934.78
2928.56
2922.03
2915.18
2908.03
2900.59
2892.85
2884.85
2876.58
2868.05
2859.28
2850.28
2841.06
2831.64
2822.02
2812.23
2802.27
2792.15
2781.9
2771.52
2761.04
2750.45
2739.79
2729.05
2718.27
2707.44
2696.58
2685.72
2674.85
2664
2653.17
2642.39
2631.67
2621.01
2610.43
2599.95
2589.58
2579.32
2569.2
2559.23
2549.41
2539.77
2530.31
2521.05
2512
2503.17
2494.57
2486.22
2478.13
2470.3
2462.76
2455.5
2448.55
2441.91
2435.59
2429.6
2423.95
2418.65
2413.7
2409.12
2404.9
2401.06
2397.59
2394.51
2391.81
2389.5
2387.57
2386.04
2384.89
2384.13
2383.75
2383.75
2384.12
2384.86
2385.96
2387.42
2389.23
2391.37
2393.84
2396.62
2399.71
2403.09
2406.74
2410.66
2414.83
2419.23
2423.85
2428.66
2433.66
2438.83
2444.14
2449.59
2455.15
2460.81
2466.55
2472.36
2478.22
2484.12
2490.04
2495.97
2501.89
2507.8
2513.68
2519.52
2525.31
2531.04
2536.7
2542.28
2547.76
2553.14
2558.4
2563.55
2568.56
2573.43
2578.15
2582.71
2587.1
2591.32
2595.35
2599.19
2602.83
2606.26
2609.47
2612.47
2615.23
2617.77
2620.06
2622.11
2623.92
2625.47
2626.77
2627.81
2628.6
2629.12
2629.39
2993.98
2993.71
2992.68
2991.32
2989.59
2987.63
2985.23
2982.29
2978.78
2974.73
2970.33
2965.58
2960.49
2955.07
2949.31
2943.22
2936.8
2930.05
2922.97
2915.59
2907.89
2899.9
2891.63
2883.07
2874.26
2865.19
2855.88
2846.35
2836.6
2826.65
2816.52
2806.22
2795.76
2785.16
2774.43
2763.59
2752.65
2741.63
2730.53
2719.38
2708.19
2696.98
2685.75
2674.53
2663.32
2652.14
2641
2629.92
2618.92
2607.99
2597.17
2586.45
2575.86
2565.41
2555.1
2544.97
2535.01
2525.24
2515.67
2506.32
2497.19
2488.31
2479.69
2471.32
2463.24
2455.45
2447.96
2440.78
2433.93
2427.41
2421.24
2415.42
2409.96
2404.88
2400.17
2395.85
2391.93
2388.39
2385.26
2382.54
2380.21
2378.3
2376.8
2375.7
2375.01
2374.72
2374.83
2375.33
2376.22
2377.5
2379.14
2381.15
2383.52
2386.22
2389.26
2392.62
2396.29
2400.24
2404.47
2408.96
2413.69
2418.65
2423.81
2429.17
2434.69
2440.36
2446.17
2452.09
2458.11
2464.21
2470.37
2476.57
2482.81
2489.06
2495.32
2501.56
2507.79
2513.98
2520.12
2526.21
2532.23
2538.17
2544.02
2549.77
2555.41
2560.94
2566.33
2571.58
2576.69
2581.64
2586.42
2591.02
2595.44
2599.67
2603.69
2607.51
2611.1
2614.47
2617.61
2620.52
2623.17
2625.58
2627.74
2629.63
2631.26
2632.62
2633.71
2634.54
2635.09
2635.37
3005.09
3004.72
3003.72
3002.23
3000.51
2998.58
2996.2
2993.14
2989.4
2985.11
2980.37
2975.36
2970.07
2964.46
2958.52
2952.23
2945.61
2938.64
2931.33
2923.69
2915.74
2907.47
2898.9
2890.05
2880.93
2871.53
2861.9
2852.02
2841.93
2831.62
2821.13
2810.46
2799.63
2788.65
2777.55
2766.32
2755
2743.59
2732.11
2720.57
2708.99
2697.39
2685.78
2674.17
2662.57
2651.01
2639.49
2628.04
2616.65
2605.36
2594.16
2583.08
2572.13
2561.32
2550.66
2540.17
2529.87
2519.76
2509.86
2500.19
2490.75
2481.56
2472.63
2463.98
2455.62
2447.56
2439.81
2432.39
2425.3
2418.57
2412.19
2406.19
2400.56
2395.33
2390.49
2386.05
2382.03
2378.42
2375.24
2372.48
2370.15
2368.24
2366.77
2365.73
2365.11
2364.92
2365.15
2365.8
2366.85
2368.31
2370.16
2372.39
2375
2377.97
2381.29
2384.95
2388.92
2393.2
2397.78
2402.62
2407.71
2413.05
2418.59
2424.33
2430.25
2436.32
2442.52
2448.83
2455.24
2461.72
2468.26
2474.84
2481.45
2488.06
2494.67
2501.26
2507.82
2514.34
2520.81
2527.21
2533.54
2539.78
2545.92
2551.97
2557.89
2563.69
2569.35
2574.87
2580.22
2585.42
2590.44
2595.27
2599.91
2604.34
2608.57
2612.57
2616.35
2619.89
2623.19
2626.24
2629.03
2631.56
2633.83
2635.82
2637.53
2638.96
2640.11
2640.97
2641.56
2641.85
3016.48
3015.81
3014.47
3012.65
3010.93
3009.28
3007.27
3004.3
3000.28
2995.63
2990.67
2985.5
2980.09
2974.36
2968.27
2961.81
2954.99
2947.81
2940.26
2932.36
2924.13
2915.57
2906.7
2897.53
2888.07
2878.33
2868.34
2858.1
2847.63
2836.94
2826.06
2815
2803.77
2792.39
2780.87
2769.24
2757.5
2745.67
2733.78
2721.83
2709.84
2697.82
2685.79
2673.77
2661.76
2649.79
2637.86
2626
2614.22
2602.52
2590.93
2579.46
2568.12
2556.92
2545.89
2535.02
2524.35
2513.88
2503.62
2493.6
2483.82
2474.29
2465.04
2456.08
2447.41
2439.06
2431.03
2423.34
2416
2409.03
2402.43
2396.22
2390.41
2385.01
2380.02
2375.46
2371.33
2367.64
2364.4
2361.6
2359.25
2357.36
2355.92
2354.93
2354.4
2354.32
2354.68
2355.47
2356.71
2358.36
2360.44
2362.91
2365.79
2369.04
2372.67
2376.65
2380.96
2385.6
2390.55
2395.78
2401.28
2407.02
2412.98
2419.15
2425.49
2431.99
2438.63
2445.37
2452.2
2459.11
2466.06
2473.04
2480.04
2487.04
2494.02
2500.98
2507.9
2514.77
2521.58
2528.32
2534.98
2541.54
2548
2554.35
2560.58
2566.67
2572.62
2578.41
2584.05
2589.5
2594.78
2599.86
2604.73
2609.4
2613.84
2618.05
2622.02
2625.75
2629.22
2632.42
2635.36
2638.03
2640.41
2642.5
2644.31
2645.82
2647.03
2647.94
2648.55
2648.86
3026.4
3025.47
3023.15
3020.37
3018.48
3017.48
3016.58
3014.57
3010.89
3006.14
3000.87
2995.62
2990.3
2984.64
2978.51
2971.94
2964.96
2957.58
2949.8
2941.61
2933.09
2924.23
2915.04
2905.53
2895.71
2885.61
2875.23
2864.59
2853.72
2842.63
2831.33
2819.84
2808.18
2796.36
2784.41
2772.33
2760.15
2747.89
2735.55
2723.15
2710.71
2698.25
2685.78
2673.32
2660.87
2648.47
2636.11
2623.81
2611.6
2599.48
2587.46
2575.57
2563.81
2552.21
2540.77
2529.51
2518.44
2507.58
2496.94
2486.53
2476.38
2466.5
2456.9
2447.59
2438.59
2429.92
2421.59
2413.61
2406
2398.76
2391.92
2385.49
2379.47
2373.89
2368.74
2364.03
2359.79
2356
2352.69
2349.85
2347.48
2345.6
2344.19
2343.27
2342.82
2342.85
2343.35
2344.32
2345.74
2347.62
2349.93
2352.67
2355.83
2359.4
2363.36
2367.69
2372.38
2377.41
2382.77
2388.42
2394.36
2400.55
2406.97
2413.61
2420.42
2427.4
2434.5
2441.71
2449.01
2456.36
2463.76
2471.18
2478.6
2486.01
2493.39
2500.74
2508.04
2515.29
2522.46
2529.55
2536.56
2543.47
2550.26
2556.94
2563.49
2569.89
2576.15
2582.24
2588.17
2593.91
2599.45
2604.8
2609.93
2614.84
2619.52
2623.95
2628.13
2632.06
2635.71
2639.09
2642.19
2645
2647.51
2649.72
2651.62
2653.21
2654.49
2655.45
2656.1
2656.43
3034.72
3033.06
3029.14
3025.35
3023.04
3022.94
3023.77
3023.53
3023.02
3019.27
3011.23
3005.73
3000.64
2995.27
2989.25
2982.64
2975.54
2967.99
2960.02
2951.41
2942.64
2933.48
2923.95
2914.07
2903.87
2893.37
2882.58
2871.52
2860.21
2848.68
2836.93
2824.98
2812.86
2800.58
2788.16
2775.61
2762.96
2750.22
2737.41
2724.54
2711.63
2698.69
2685.75
2672.82
2659.91
2647.03
2634.21
2621.46
2608.79
2596.21
2583.75
2571.41
2559.21
2547.17
2535.3
2523.6
2512.11
2500.83
2489.78
2478.98
2468.43
2458.16
2448.18
2438.5
2429.15
2420.13
2411.46
2403.17
2395.25
2387.73
2380.63
2373.95
2367.71
2361.92
2356.59
2351.73
2347.35
2343.46
2340.07
2337.18
2334.79
2332.91
2331.55
2330.69
2330.33
2330.49
2331.14
2332.28
2333.91
2336.02
2338.6
2341.63
2345.1
2349.01
2353.32
2358.04
2363.14
2368.6
2374.4
2380.52
2386.93
2393.62
2400.55
2407.69
2415.03
2422.52
2430.14
2437.86
2445.66
2453.51
2461.38
2469.26
2477.13
2484.98
2492.79
2500.55
2508.25
2515.88
2523.44
2530.91
2538.29
2545.55
2552.7
2559.73
2566.62
2573.36
2579.94
2586.36
2592.59
2598.64
2604.48
2610.11
2615.52
2620.69
2625.62
2630.3
2634.71
2638.85
2642.7
2646.27
2649.54
2652.51
2655.16
2657.49
2659.5
2661.18
2662.53
2663.55
2664.23
2664.58
3042.9
3040.37
3034.81
3029.5
3027.43
3028.48
3030.9
3032.37
3034.45
3030.62
3024.87
3016.22
3011.28
3006.35
3000.57
2993.99
2986.79
2979.07
2970.73
2962.02
2952.89
2943.37
2933.46
2923.19
2912.57
2901.64
2890.41
2878.9
2867.12
2855.11
2842.88
2830.45
2817.83
2805.06
2792.13
2779.08
2765.93
2752.68
2739.36
2725.98
2712.57
2699.13
2685.69
2672.26
2658.85
2645.49
2632.18
2618.94
2605.78
2592.73
2579.79
2566.97
2554.31
2541.8
2529.46
2517.31
2505.37
2493.64
2482.15
2470.91
2459.94
2449.25
2438.86
2428.78
2419.04
2409.65
2400.62
2391.98
2383.74
2375.91
2368.51
2361.56
2355.07
2349.05
2343.52
2338.49
2333.97
2329.96
2326.48
2323.53
2321.12
2319.25
2317.92
2317.13
2316.87
2317.16
2317.97
2319.31
2321.17
2323.53
2326.39
2329.73
2333.54
2337.81
2342.52
2347.66
2353.2
2359.12
2365.4
2372.03
2378.97
2386.2
2393.68
2401.39
2409.3
2417.36
2425.55
2433.83
2442.17
2450.54
2458.93
2467.3
2475.65
2483.96
2492.21
2500.41
2508.53
2516.57
2524.53
2532.4
2540.16
2547.81
2555.34
2562.73
2569.98
2577.08
2584.02
2590.77
2597.34
2603.71
2609.87
2615.81
2621.51
2626.97
2632.17
2637.11
2641.77
2646.14
2650.21
2653.98
2657.44
2660.57
2663.38
2665.85
2667.97
2669.75
2671.18
2672.26
2672.98
2673.35
3055.23
3051.54
3045.88
3041.85
3039.55
3041.78
3042.09
3043.49
3042.08
3041.61
3036.24
3027.9
3022.71
3018.22
3012.69
3006.13
2998.81
2990.85
2982.33
2973.31
2963.84
2953.92
2943.6
2932.9
2921.84
2910.45
2898.74
2886.74
2874.46
2861.94
2849.19
2836.24
2823.09
2809.78
2796.33
2782.74
2769.04
2755.26
2741.4
2727.49
2713.54
2699.57
2685.6
2671.64
2657.71
2643.82
2629.99
2616.24
2602.57
2589
2575.56
2562.24
2549.08
2536.07
2523.25
2510.61
2498.19
2485.99
2474.03
2462.32
2450.89
2439.75
2428.92
2418.42
2408.26
2398.46
2389.04
2380.02
2371.41
2363.25
2355.53
2348.28
2341.52
2335.25
2329.5
2324.28
2319.59
2315.45
2311.87
2308.86
2306.41
2304.54
2303.25
2302.53
2302.38
2302.81
2303.8
2305.35
2307.44
2310.08
2313.24
2316.92
2321.11
2325.77
2330.91
2336.49
2342.51
2348.93
2355.75
2362.93
2370.44
2378.26
2386.36
2394.69
2403.22
2411.91
2420.72
2429.61
2438.55
2447.49
2456.43
2465.32
2474.17
2482.96
2491.68
2500.32
2508.88
2517.35
2525.73
2534.01
2542.18
2550.23
2558.16
2565.95
2573.59
2581.06
2588.37
2595.5
2602.42
2609.14
2615.64
2621.91
2627.93
2633.7
2639.19
2644.41
2649.34
2653.96
2658.27
2662.26
2665.92
2669.24
2672.21
2674.82
2677.08
2678.96
2680.48
2681.62
2682.38
2682.78
3073.18
3069.38
3067.04
3062.34
3059.73
3060.1
3058.63
3058.28
3055.64
3053.78
3048.63
3042.01
3035.57
3031.35
3025.94
3019.25
3011.75
3003.56
2994.75
2985.39
2975.52
2965.19
2954.42
2943.25
2931.71
2919.81
2907.59
2895.06
2882.25
2869.18
2855.88
2842.36
2828.65
2814.77
2800.74
2786.58
2772.31
2757.95
2743.53
2729.04
2714.53
2700
2685.46
2670.95
2656.46
2642.02
2627.65
2613.35
2599.14
2585.04
2571.06
2557.22
2543.52
2530
2516.65
2503.5
2490.56
2477.85
2465.39
2453.19
2441.27
2429.65
2418.34
2407.37
2396.76
2386.52
2376.68
2367.25
2358.25
2349.71
2341.64
2334.06
2326.99
2320.45
2314.46
2309.02
2304.15
2299.87
2296.17
2293.08
2290.6
2288.73
2287.47
2286.83
2286.79
2287.37
2288.55
2290.32
2292.68
2295.62
2299.11
2303.16
2307.73
2312.83
2318.42
2324.49
2331.03
2338
2345.39
2353.17
2361.31
2369.78
2378.55
2387.56
2396.79
2406.17
2415.67
2425.23
2434.81
2444.37
2453.89
2463.34
2472.71
2481.99
2491.18
2500.29
2509.3
2518.22
2527.03
2535.74
2544.34
2552.82
2561.17
2569.37
2577.42
2585.31
2593.02
2600.53
2607.84
2614.94
2621.8
2628.43
2634.79
2640.89
2646.7
2652.22
2657.44
2662.34
2666.9
2671.13
2675.01
2678.53
2681.68
2684.46
2686.85
2688.85
2690.46
2691.66
2692.48
2692.9
3095.95
3093.29
3092.2
3087.74
3084.72
3081.41
3079.07
3076.6
3071.99
3068.54
3063.31
3056.14
3050.52
3046.22
3040.55
3033.65
3025.83
3017.29
3008.09
2998.31
2988
2977.2
2965.95
2954.27
2942.2
2929.76
2916.98
2903.88
2890.49
2876.83
2862.94
2848.82
2834.5
2820.01
2805.38
2790.61
2775.73
2760.76
2745.73
2730.65
2715.53
2700.4
2685.28
2670.17
2655.1
2640.08
2625.13
2610.26
2595.49
2580.82
2566.28
2551.88
2537.63
2523.55
2509.66
2495.96
2482.48
2469.23
2456.23
2443.5
2431.06
2418.92
2407.1
2395.64
2384.53
2373.81
2363.51
2353.63
2344.2
2335.25
2326.79
2318.85
2311.45
2304.61
2298.34
2292.66
2287.59
2283.14
2279.32
2276.14
2273.61
2271.73
2270.51
2269.95
2270.04
2270.78
2272.16
2274.18
2276.82
2280.08
2283.93
2288.37
2293.37
2298.93
2305.01