/*--------------------------------*- C++ -*----------------------------------*\
| =========                 |                                                 |
| \\      /  F ield         | OpenFOAM: The Open Source CFD Toolbox           |
|  \\    /   O peration     | Version:  v2006                                 |
|   \\  /    A nd           | Website:  www.openfoam.com                      |
|    \\/     M anipulation  |                                                 |
\*---------------------------------------------------------------------------*/
FoamFile
{
    version     2.0;
    format      ascii;
    class       volScalarField;
    location    "13.5";
    object      p;
}
// * * * * * * * * * * * * * * * * * * * * * * * * * * * * * * * * * * * * * //

dimensions      [1 -1 -2 0 0 0 0];


internalField   nonuniform List<scalar> 
150000
(
20086
20085.7
20085.1
20084.2
20082.9
20081.4
20079.5
20077.4
20075
20072.3
20069.5
20066.4
20063
20059.5
20055.8
20052
20048
20043.8
20039.5
20035.1
20030.6
20026.1
20021.5
20016.8
20012.2
20007.5
20002.8
19998.2
19993.7
19989.2
19984.8
19980.5
19976.4
19972.3
19968.5
19964.8
19961.3
19958
19954.9
19952.1
19949.4
19947.1
19945
19943.1
19941.6
19940.4
19939.5
19939
19938.8
19938.9
19939.4
19940.3
19941.6
19943.3
19945.3
19947.7
19950.6
19953.8
19957.5
19961.5
19966
19970.9
19976.3
19982
19988.2
19994.8
20001.9
20009.4
20017.3
20025.7
20034.4
20043.7
20053.3
20063.4
20073.9
20084.9
20096.3
20108.2
20120.5
20133.3
20146.6
20160.3
20174.6
20189.3
20204.5
20220.2
20236.4
20253.2
20270.4
20288.3
20306.6
20325.5
20345
20365
20385.7
20406.8
20428.6
20450.9
20473.9
20497.4
20521.4
20546
20571.2
20596.9
20623.2
20649.9
20677.2
20704.9
20733.2
20762.1
20791.4
20821.3
20851.6
20882.5
20913.8
20945.5
20977.6
21010.2
21043.1
21076.3
21109.8
21143.6
21177.7
21212
21246.5
21281.2
21316
21350.9
21385.9
21420.9
21456
21491
21526
21561
21596
21630.8
21665.4
21699.9
21734
21767.8
21801.2
21834.2
21866.8
21899
21930.9
21962.4
21993.6
22024.2
22054.1
22083.3
22111.8
22139.7
22166.9
22193.4
22219.1
22244.2
22268.5
22292
22314.8
22336.8
22358.1
22378.5
22398
22416.7
22434.5
22451.3
22467.3
22482.2
22496.2
22509.3
22521.3
22532.4
22542.4
22551.5
22559.5
22566.5
22572.5
22577.6
22581.5
22584.5
22586.5
22587.5
22587.4
22586.3
22584.2
22581.1
22576.9
22571.9
22565.8
22558.7
22550.7
22541.8
22531.9
22521.1
22509.4
22496.7
22483.1
22468.4
22452.8
22436.2
22418.7
22400.5
22381.5
22361.9
22341.5
22320.1
22297.7
22274.4
22250.1
22225
22199.2
22172.7
22145.7
22118.1
22089.9
22061.2
22031.9
22002
21971.5
21940.5
21908.8
21876.6
21843.8
21810.5
21776.6
21742.2
21707.2
21671.8
21636
21599.9
21563.4
21526.7
21489.8
21452.5
21415
21377.2
21339.1
21300.6
21261.9
21223
21183.9
21144.6
21105.2
21065.5
21025.7
20985.8
20946
20906.1
20866.1
20826.1
20786.1
20745.9
20705.6
20665.3
20625
20584.6
20544.1
20503.7
20463.2
20422.8
20382.6
20342.5
20302.4
20262.1
20222
20182.3
20142.7
20103.3
20063.9
20024.7
19985.6
19946.6
19907.8
19869.2
19830.8
19792.6
19754.7
19716.9
19679.5
19642.2
19605.3
19568.7
19532.3
19496.4
19460.7
19425.5
19390.6
19356.1
19322.1
19288.5
19255.4
19222.7
19190.6
19159.1
19128.1
19097.7
19067.9
19038.8
19010.3
18982.5
18955.4
18929.1
18903.5
18878.7
18854.7
18831.6
18809.3
18787.8
18767.3
18747.7
18729
18711.3
18694.5
18678.7
18663.9
18650.1
18637.4
18625.6
18614.9
18605.3
18596.6
18589.1
18582.6
18577.1
18572.7
18569.4
18567.1
18565.9
18565.7
18566.5
18568.3
18571.2
18575
18579.8
18585.6
18592.3
18600
18608.6
18618.1
18628.4
18639.6
18651.7
18664.6
18678.2
18692.7
18707.9
18723.9
18740.5
18757.9
18776
18794.7
18814
18834
18854.6
18875.8
18897.6
18920
18942.9
18966.3
18990.3
19014.8
19039.8
19065.3
19091.3
19117.8
19144.7
19172.1
19200
19228.3
19257
19286.1
19315.7
19345.6
19376
19406.7
19437.9
19469.4
19501.2
19533.4
19565.9
19598.8
19631.9
19665.4
19699.1
19733.1
19767.4
19801.9
19836.7
19871.6
19906.8
19942.1
19977.6
20013.2
20049
20084.8
20120.8
20156.8
20192.9
20228.9
20265
20301
20337
20373
20408.9
20444.7
20480.4
20515.9
20551.3
20586.5
20621.6
20656.3
20690.9
20725.1
20759.1
20792.7
20826.1
20859
20891.7
20923.9
20955.7
20987.1
21018.1
21048.6
21078.6
21108.2
21137.3
21166
21194.3
21222.1
21249.4
21276.2
21302.3
21327.8
21352.7
21377
21400.7
21423.8
21446.2
21468.1
21489.3
21509.9
21530
21549.3
21568.1
21586.2
21603.7
21620.6
21636.9
21652.5
21667.4
21681.8
21695.5
21708.6
21721.1
21732.9
21744.1
21754.7
21764.7
21774.1
21782.8
21790.9
21798.5
21805.4
21811.8
21817.6
21822.8
21827.5
21831.7
21835.3
21838.4
21841
21843.2
21844.9
21846.1
21847
21847.5
21847.6
21847.4
21846.8
21846
21845
21843.7
21842.2
21840.6
21838.9
21837.1
21835.2
21833.3
21831.4
21829.6
21827.8
21826.1
21824.6
21823.2
21822
21821
21820.2
21819.6
21819.2
21819
19759.2
19758.9
19758.3
19757.3
19756.1
19754.5
19752.7
19750.5
19748.2
19745.5
19742.6
19739.5
19736.2
19732.7
19729
19725.1
19721.1
19716.9
19712.6
19708.2
19703.7
19699.1
19694.5
19689.8
19685.2
19680.5
19675.8
19671.2
19666.6
19662.1
19657.7
19653.4
19649.3
19645.2
19641.4
19637.7
19634.2
19630.8
19627.8
19624.9
19622.3
19619.9
19617.8
19615.9
19614.4
19613.2
19612.2
19611.7
19611.5
19611.6
19612.1
19613
19614.3
19615.9
19618
19620.4
19623.2
19626.5
19630.1
19634.2
19638.7
19643.6
19648.9
19654.7
19660.9
19667.5
19674.6
19682
19690
19698.3
19707.1
19716.3
19726
19736.1
19746.6
19757.6
19769
19780.9
19793.2
19806
19819.2
19833
19847.2
19861.9
19877.1
19892.8
19909
19925.8
19943
19960.8
19979.2
19998.1
20017.6
20037.6
20058.2
20079.4
20101.1
20123.5
20146.4
20169.8
20193.9
20218.5
20243.7
20269.4
20295.6
20322.4
20349.7
20377.6
20405.9
20434.8
20464.2
20494.1
20524.4
20555.3
20586.6
20618.3
20650.5
20683
20715.9
20749.1
20782.6
20816.4
20850.5
20884.8
20919.3
20954
20988.8
21023.7
21058.7
21093.8
21128.9
21163.9
21198.9
21233.9
21268.8
21303.6
21338.2
21372.6
21406.9
21440.8
21474.6
21507.9
21540.8
21573.2
21605
21636.3
21667
21697.3
21727
21756.2
21784.8
21812.7
21840
21866.6
21892.5
21917.6
21942
21965.6
21988.4
22010.4
22031.6
22052
22071.5
22090.2
22107.9
22124.7
22140.6
22155.6
22169.6
22182.6
22194.6
22205.7
22215.7
22224.8
22232.8
22239.9
22245.9
22250.9
22254.9
22257.9
22259.8
22260.8
22260.7
22259.6
22257.5
22254.5
22250.4
22245.4
22239.3
22232.3
22224.2
22215.2
22205.3
22194.5
22182.7
22170
22156.4
22141.9
22126.3
22109.8
22092.4
22074.3
22055.3
22035.6
22015
21993.4
21970.9
21947.5
21923.2
21898.2
21872.5
21846.2
21819.3
21791.8
21763.7
21735
21705.7
21675.8
21645.2
21614.1
21582.3
21550
21517.1
21483.8
21449.8
21415.4
21380.5
21345
21309.2
21273
21236.5
21199.8
21162.8
21125.6
21088
21050.2
21012.1
20973.7
20935.1
20896.2
20857.1
20817.9
20778.5
20738.9
20699.4
20659.6
20619.7
20579.6
20539.5
20499.3
20459.1
20418.8
20378.4
20338.1
20297.7
20257.3
20216.9
20176.6
20136.3
20096
20055.6
20015.1
19974.7
19934.6
19894.9
19855.2
19815.6
19776.1
19736.7
19697.5
19658.4
19619.4
19580.7
19542.1
19503.6
19465.4
19427.5
19389.7
19352.2
19315
19278
19241.4
19205.1
19169.1
19133.4
19098.1
19063.2
19028.8
18994.7
18961.1
18928
18895.3
18863.2
18831.6
18800.6
18770.2
18740.4
18711.2
18682.8
18654.9
18627.9
18601.5
18575.9
18551.1
18527.1
18503.9
18481.6
18460.2
18439.7
18420
18401.3
18383.6
18366.8
18351
18336.2
18322.4
18309.6
18297.9
18287.2
18277.5
18268.9
18261.3
18254.8
18249.4
18245
18241.7
18239.4
18238.1
18237.9
18238.8
18240.6
18243.4
18247.3
18252.1
18257.9
18264.7
18272.3
18280.9
18290.4
18300.8
18312
18324.1
18337
18350.7
18365.1
18380.4
18396.3
18413
18430.4
18448.5
18467.2
18486.6
18506.6
18527.2
18548.4
18570.2
18592.5
18615.5
18638.9
18662.9
18687.4
18712.4
18737.9
18763.9
18790.4
18817.4
18844.8
18872.6
18900.9
18929.6
18958.8
18988.4
19018.3
19048.7
19079.4
19110.6
19142.1
19173.9
19206.1
19238.7
19271.5
19304.7
19338.2
19371.9
19405.9
19440.2
19474.7
19509.5
19544.5
19579.6
19615
19650.5
19686.1
19721.9
19757.8
19793.7
19829.8
19865.9
19902
19938.1
19974.2
20010.3
20046.3
20082.2
20117.9
20153.5
20189
20224.3
20259.5
20294.6
20329.4
20364
20398.4
20432.4
20466.1
20499.4
20532.3
20564.9
20597.1
20628.9
20660.4
20691.4
20721.9
20752
20781.6
20810.7
20839.4
20867.7
20895.5
20922.8
20949.5
20975.7
21001.2
21026.1
21050.4
21074.1
21097.1
21119.6
21141.5
21162.7
21183.3
21203.3
21222.7
21241.5
21259.6
21277.1
21294
21310.2
21325.8
21340.8
21355.2
21368.9
21382
21394.4
21406.3
21417.5
21428.1
21438
21447.4
21456.1
21464.3
21471.8
21478.7
21485.1
21490.9
21496.1
21500.8
21504.9
21508.5
21511.6
21514.2
21516.3
21518
21519.3
21520.1
21520.6
21520.7
21520.4
21519.9
21519.1
21518
21516.7
21515.2
21513.6
21511.9
21510
21508.1
21506.2
21504.3
21502.4
21500.7
21499
21497.4
21496.1
21494.9
21493.9
21493.1
21492.5
21492
21491.8
19432.6
19432.3
19431.7
19430.7
19429.5
19427.9
19426.1
19423.9
19421.5
19418.8
19415.9
19412.8
19409.5
19405.9
19402.2
19398.3
19394.3
19390.1
19385.8
19381.4
19376.8
19372.2
19367.6
19362.9
19358.2
19353.5
19348.8
19344.2
19339.6
19335.1
19330.6
19326.3
19322.1
19318.1
19314.2
19310.4
19306.9
19303.6
19300.4
19297.5
19294.9
19292.5
19290.3
19288.5
19286.9
19285.6
19284.7
19284.1
19283.9
19284
19284.5
19285.4
19286.6
19288.2
19290.3
19292.7
19295.5
19298.7
19302.3
19306.4
19310.9
19315.8
19321.1
19326.9
19333.1
19339.7
19346.7
19354.2
19362.1
19370.5
19379.3
19388.5
19398.1
19408.2
19418.7
19429.7
19441.1
19452.9
19465.2
19478
19491.3
19505
19519.2
19533.9
19549.1
19564.8
19581
19597.7
19615
19632.8
19651.1
19670
19689.5
19709.5
19730.1
19751.3
19773
19795.3
19818.2
19841.7
19865.8
19890.4
19915.6
19941.3
19967.5
19994.3
20021.7
20049.5
20077.9
20106.8
20136.2
20166.1
20196.5
20227.4
20258.7
20290.4
20322.6
20355.1
20388
20421.2
20454.8
20488.6
20522.7
20557.1
20591.6
20626.3
20661.2
20696.1
20731.2
20766.3
20801.4
20836.5
20871.7
20906.7
20941.7
20976.5
21011.2
21045.6
21079.8
21113.7
21147.4
21180.7
21213.6
21246
21277.8
21309.2
21340
21370.4
21400.2
21429.4
21458.1
21486.1
21513.4
21540.1
21566
21591.2
21615.6
21639.2
21662.1
21684.2
21705.4
21725.9
21745.4
21764.1
21781.9
21798.7
21814.7
21829.6
21843.7
21856.7
21868.8
21879.8
21889.9
21899
21907
21914.1
21920.1
21925.1
21929.1
21932.1
21934.1
21935.1
21935
21934
21931.9
21928.9
21924.8
21919.7
21913.6
21906.5
21898.5
21889.5
21879.6
21868.7
21856.9
21844.2
21830.5
21815.9
21800.3
21783.8
21766.4
21748.2
21729.1
21709.2
21688.5
21667
21644.6
21621.3
21597.2
21572.3
21546.6
21520.3
21493.3
21465.8
21437.6
21408.8
21379.4
21349.4
21318.8
21287.7
21255.9
21223.6
21190.8
21157.6
21123.5
21088.9
21053.9
21018.3
20982.7
20946.6
20910.1
20873.4
20836.4
20799.1
20761.5
20723.6
20685.5
20647
20608.3
20569.4
20530.3
20491
20451.5
20411.9
20372.2
20332.4
20292.5
20252.6
20212.5
20172.4
20132.1
20091.9
20051.5
20011.1
19970.7
19930.3
19889.9
19849.4
19809.1
19768.7
19728.5
19688.2
19648
19607.9
19567.9
19528.1
19488.4
19448.9
19409.5
19370.2
19331.1
19292.1
19253.3
19214.7
19176.3
19138
19100
19062.3
19024.8
18987.5
18950.6
18913.9
18877.5
18841.5
18805.8
18770.5
18735.6
18701.1
18667
18633.4
18600.2
18567.6
18535.4
18503.8
18472.8
18442.3
18412.5
18383.3
18354.8
18326.9
18299.8
18273.4
18247.8
18223
18198.9
18175.7
18153.4
18131.9
18111.4
18091.7
18073
18055.2
18038.4
18022.6
18007.8
17994
17981.2
17969.4
17958.7
17949.1
17940.4
17932.9
17926.4
17920.9
17916.5
17913.2
17910.9
17909.7
17909.5
17910.3
17912.2
17915.1
17918.9
17923.8
17929.6
17936.4
17944.1
17952.7
17962.2
17972.6
17983.8
17995.9
18008.9
18022.6
18037.1
18052.3
18068.3
18085
18102.4
18120.5
18139.2
18158.6
18178.7
18199.3
18220.5
18242.3
18264.7
18287.6
18311.1
18335.1
18359.6
18384.7
18410.2
18436.2
18462.7
18489.7
18517.1
18544.9
18573.3
18602
18631.2
18660.7
18690.7
18721.1
18751.9
18783
18814.5
18846.4
18878.6
18911.2
18944
18977.2
19010.7
19044.5
19078.5
19112.8
19147.4
19182.1
19217.1
19252.3
19287.7
19323.2
19358.9
19394.7
19430.6
19466.6
19502.6
19538.7
19574.9
19611
19647.1
19683.2
19719.2
19755.1
19790.9
19826.7
19862.3
19897.7
19932.9
19968
20002.8
20037.4
20071.7
20105.7
20139.4
20172.8
20205.8
20238.5
20270.7
20302.6
20334.1
20365.1
20395.7
20425.8
20455.5
20484.6
20513.4
20541.6
20569.4
20596.6
20623.3
20649.4
20674.9
20699.8
20724.1
20747.8
20770.9
20793.4
20815.3
20836.5
20857.2
20877.2
20896.6
20915.3
20933.5
20951
20967.8
20984.1
20999.7
21014.6
21029
21042.7
21055.8
21068.2
21080.1
21091.3
21101.8
21111.8
21121.1
21129.8
21137.9
21145.5
21152.4
21158.7
21164.5
21169.7
21174.3
21178.4
21182
21185.1
21187.7
21189.8
21191.4
21192.7
21193.5
21193.9
21194
21193.7
21193.1
21192.3
21191.2
21189.8
21188.3
21186.7
21184.9
21183
21181.1
21179.1
21177.2
21175.3
21173.5
21171.8
21170.2
21168.8
21167.6
21166.6
21165.8
21165.2
21164.7
21164.5
19106.2
19105.9
19105.3
19104.4
19103.1
19101.5
19099.6
19097.4
19095
19092.3
19089.4
19086.3
19082.9
19079.3
19075.6
19071.7
19067.6
19063.4
19059.1
19054.7
19049.9
19045.3
19040.7
19036
19031.2
19026.5
19021.7
19017.1
19012.4
19007.9
19003.4
18999
18994.8
18990.7
18986.8
18983
18979.4
18976.1
18972.9
18970
18967.3
18964.8
18962.6
18960.7
18959.1
18957.9
18956.9
18956.3
18956
18956.1
18956.6
18957.4
18958.6
18960.2
18962.2
18964.6
18967.4
18970.6
18974.2
18978.2
18982.7
18987.6
18992.9
18998.6
19004.8
19011.4
19018.4
19025.9
19033.8
19042.2
19050.9
19060.1
19069.8
19079.8
19090.3
19101.3
19112.7
19124.5
19136.8
19149.6
19162.8
19176.5
19190.7
19205.4
19220.5
19236.2
19252.4
19269.1
19286.4
19304.2
19322.5
19341.4
19360.8
19380.9
19401.5
19422.6
19444.4
19466.7
19489.6
19513
19537.1
19561.7
19586.9
19612.6
19638.9
19665.7
19693.1
19721
19749.4
19778.3
19807.8
19837.7
19868.1
19899
19930.3
19962.1
19994.3
20026.9
20059.8
20093.1
20126.7
20160.6
20194.7
20229.1
20263.7
20298.5
20333.4
20368.4
20403.5
20438.7
20473.9
20509.1
20544.3
20579.5
20614.6
20649.5
20684.3
20718.9
20753.1
20787.1
20820.7
20854
20886.8
20919.1
20950.9
20982.2
21013.1
21043.6
21073.5
21102.9
21131.7
21159.9
21187.3
21214.1
21240.1
21265.4
21289.9
21313.6
21336.6
21358.7
21380
21400.5
21420.1
21438.8
21456.6
21473.5
21489.5
21504.5
21518.5
21531.6
21543.7
21554.8
21564.9
21574
21582
21589.1
21595.1
21600.2
21604.2
21607.2
21609.2
21610.1
21610.1
21609
21607
21603.9
21599.8
21594.7
21588.6
21581.5
21573.4
21564.4
21554.4
21543.5
21531.6
21518.8
21505.1
21490.5
21474.9
21458.5
21441.1
21422.8
21403.7
21383.8
21363
21341.4
21318.9
21295.5
21271.4
21246.5
21220.9
21194.6
21167.6
21140.1
21111.9
21083
21053.6
21023.5
20992.8
20961.5
20929.7
20897.3
20864.4
20830.8
20797.1
20762.8
20727.9
20692.7
20656.8
20620.6
20584.1
20547.2
20510.1
20472.7
20435
20397.1
20358.9
20320.4
20281.7
20242.7
20203.6
20164.3
20124.8
20085.2
20045.4
20005.5
19965.5
19925.5
19885.3
19845.1
19804.8
19764.5
19724.1
19683.7
19643.3
19602.9
19562.5
19522.1
19481.7
19441.4
19401
19360.7
19320.5
19280.4
19240.5
19200.7
19161
19121.5
19082
19042.7
19003.6
18964.6
18925.8
18887.1
18848.7
18810.5
18772.4
18734.7
18697.1
18659.8
18622.8
18586.1
18549.7
18513.7
18478
18442.6
18407.7
18373.1
18339
18305.3
18272.1
18239.4
18207.2
18175.6
18144.5
18114
18084.1
18054.9
18026.3
17998.4
17971.2
17944.8
17919.1
17894.2
17870.2
17846.9
17824.5
17803
17782.4
17762.7
17744
17726.2
17709.3
17693.5
17678.7
17664.8
17652
17640.2
17629.5
17619.8
17611.2
17603.6
17597.1
17591.7
17587.3
17584
17581.7
17580.5
17580.3
17581.2
17583
17585.9
17589.8
17594.7
17600.5
17607.3
17615.1
17623.7
17633.3
17643.7
17655
17667.1
17680.1
17693.9
17708.4
17723.7
17739.7
17756.4
17773.9
17792
17810.8
17830.2
17850.3
17870.9
17892.2
17914
17936.4
17959.4
17982.9
18006.9
18031.5
18056.5
18082.1
18108.1
18134.6
18161.6
18189.1
18216.9
18245.3
18274
18303.2
18332.8
18362.8
18393.2
18424
18455.2
18486.7
18518.6
18550.9
18583.4
18616.3
18649.6
18683.1
18716.9
18750.9
18785.3
18819.8
18854.7
18889.7
18924.9
18960.3
18995.9
19031.6
19067.4
19103.4
19139.4
19175.5
19211.7
19247.9
19284.1
19320.2
19356.4
19392.4
19428.4
19464.3
19500
19535.6
19571.1
19606.3
19641.4
19676.3
19710.9
19745.3
19779.4
19813.1
19846.5
19879.6
19912.3
19944.6
19976.5
20008
20039.1
20069.7
20099.8
20129.5
20158.7
20187.5
20215.7
20243.5
20270.7
20297.4
20323.5
20349
20373.9
20398.2
20422
20445.1
20467.6
20489.5
20510.7
20531.4
20551.4
20570.8
20589.5
20607.7
20625.2
20642
20658.3
20673.9
20688.8
20703.2
20716.9
20729.9
20742.4
20754.2
20765.4
20775.9
20785.8
20795.2
20803.9
20811.9
20819.4
20826.3
20832.6
20838.4
20843.5
20848.2
20852.2
20855.8
20858.8
20861.4
20863.5
20865.1
20866.3
20867
20867.4
20867.5
20867.1
20866.5
20865.6
20864.5
20863.1
20861.5
20859.8
20858
20856.1
20854.1
20852.1
20850.1
20848.1
20846.2
20844.5
20842.8
20841.4
20840.2
20839.1
20838.3
20837.7
20837.2
20837
18780.1
18779.8
18779.2
18778.2
18776.9
18775.3
18773.3
18771.1
18768.7
18766
18763
18759.8
18756.4
18752.8
18749.1
18745.1
18741
18736.7
18732.3
18727.8
18723.2
18718.5
18713.8
18709
18704.2
18699.4
18694.6
18689.9
18685.2
18680.6
18676.1
18671.6
18667.4
18663.2
18659.2
18655.4
18651.8
18648.3
18645.1
18642.1
18639.4
18636.9
18634.7
18632.7
18631.1
18629.8
18628.8
18628.1
18627.8
18627.9
18628.3
18629.1
18630.3
18631.8
18633.8
18636.1
18638.9
18642
18645.6
18649.6
18654.1
18658.9
18664.2
18669.9
18676.1
18682.7
18689.7
18697.2
18705.1
18713.4
18722.1
18731.3
18740.9
18751
18761.4
18772.4
18783.7
18795.6
18807.8
18820.6
18833.8
18847.5
18861.6
18876.3
18891.4
18907.1
18923.3
18940
18957.2
18975
18993.3
19012.2
19031.6
19051.6
19072.2
19093.4
19115.1
19137.4
19160.3
19183.8
19207.8
19232.4
19257.6
19283.3
19309.7
19336.5
19363.9
19391.8
19420.3
19449.2
19478.7
19508.7
19539.1
19570.1
19601.5
19633.3
19665.5
19698.1
19731.1
19764.5
19798.1
19832.1
19866.3
19900.7
19935.4
19970.3
20005.3
20040.4
20075.6
20110.9
20146.2
20181.5
20216.8
20252.1
20287.2
20322.2
20357.1
20391.7
20426
20460
20493.7
20527
20559.8
20592.2
20624.2
20655.7
20686.7
20717.3
20747.4
20776.9
20805.8
20834
20861.6
20888.5
20914.6
20940
20964.6
20988.4
21011.5
21033.7
21055.1
21075.6
21095.3
21114.1
21132
21148.9
21164.9
21180
21194.1
21207.2
21219.3
21230.5
21240.6
21249.7
21257.8
21264.9
21271
21276
21280.1
21283.1
21285.1
21286
21286
21284.9
21282.8
21279.7
21275.6
21270.5
21264.3
21257.2
21249.1
21240
21230
21219
21207.1
21194.3
21180.5
21165.8
21150.2
21133.6
21116.2
21097.9
21078.7
21058.7
21037.8
21016.1
20993.6
20970.2
20946.1
20921.2
20895.6
20869.3
20842.3
20814.7
20786.4
20757.6
20728.1
20698
20667.3
20636
20604.1
20571.8
20538.8
20505.3
20471.4
20437
20402.1
20366.8
20330.9
20294.7
20258.1
20221.2
20183.9
20146.4
20108.7
20070.6
20032.3
19993.8
19955
19916
19876.8
19837.4
19797.9
19758.3
19718.5
19678.6
19638.6
19598.5
19558.4
19518.1
19477.8
19437.4
19397
19356.6
19316.2
19275.7
19235.3
19194.8
19154.4
19114.1
19073.8
19033.5
18993.3
18953.2
18913.2
18873.3
18833.6
18794
18754.5
18715.2
18676
18637
18598.1
18559.5
18521
18482.7
18444.7
18406.8
18369.3
18332
18294.9
18258.2
18221.7
18185.6
18149.9
18114.5
18079.5
18044.9
18010.7
17976.9
17943.7
17910.9
17878.7
17846.9
17815.8
17785.2
17755.3
17726
17697.3
17669.4
17642.2
17615.7
17589.9
17565
17540.8
17517.5
17495.1
17473.5
17452.9
17433.1
17414.3
17396.5
17379.6
17363.7
17348.8
17335
17322.1
17310.3
17299.6
17289.9
17281.2
17273.7
17267.2
17261.7
17257.3
17254
17251.8
17250.6
17250.4
17251.3
17253.2
17256.1
17260
17264.9
17270.8
17277.7
17285.4
17294.1
17303.7
17314.2
17325.6
17337.8
17350.8
17364.6
17379.2
17394.5
17410.6
17427.4
17444.9
17463
17481.9
17501.3
17521.4
17542.1
17563.4
17585.3
17607.8
17630.8
17654.3
17678.4
17702.9
17728
17753.6
17779.7
17806.2
17833.2
17860.7
17888.6
17917
17945.8
17975
18004.6
18034.6
18065.1
18095.9
18127.1
18158.7
18190.6
18222.9
18255.5
18288.4
18321.7
18355.2
18389
18423.2
18457.5
18492.1
18527
18562.1
18597.3
18632.8
18668.4
18704.2
18740.1
18776.1
18812.2
18848.3
18884.5
18920.8
18957
18993.2
19029.4
19065.5
19101.6
19137.5
19173.4
19209
19244.6
19279.9
19315.1
19350
19384.7
19419.1
19453.2
19487
19520.5
19553.6
19586.3
19618.7
19650.6
19682.2
19713.3
19744
19774.2
19803.9
19833.2
19862
19890.2
19918
19945.2
19971.9
19998
20023.5
20048.5
20072.8
20096.6
20119.7
20142.2
20164.1
20185.4
20206
20226
20245.4
20264.2
20282.3
20299.8
20316.7
20332.9
20348.5
20363.4
20377.8
20391.4
20404.5
20416.9
20428.7
20439.8
20450.4
20460.3
20469.6
20478.2
20486.3
20493.7
20500.6
20506.9
20512.6
20517.7
20522.3
20526.3
20529.8
20532.8
20535.3
20537.4
20538.9
20540.1
20540.8
20541.1
20541.1
20540.8
20540.1
20539.1
20537.9
20536.5
20534.9
20533.1
20531.2
20529.2
20527.1
20525
20522.9
20520.9
20518.9
20517.1
20515.4
20513.9
20512.6
20511.5
20510.6
20510
20509.5
20509.3
18454.1
18453.8
18453.2
18452.2
18450.9
18449.2
18447.3
18445
18442.5
18439.8
18436.8
18433.6
18430.1
18426.5
18422.7
18418.6
18414.5
18410.2
18405.7
18401.1
18396.4
18391.7
18386.9
18382
18377.2
18372.3
18367.5
18362.7
18357.9
18353.2
18348.6
18344.1
18339.8
18335.6
18331.5
18327.6
18323.9
18320.4
18317.1
18314.1
18311.3
18308.7
18306.5
18304.5
18302.8
18301.4
18300.4
18299.7
18299.4
18299.4
18299.7
18300.5
18301.6
18303.1
18305
18307.3
18310
18313.1
18316.7
18320.6
18325
18329.9
18335.1
18340.9
18347
18353.6
18360.6
18368
18375.9
18384.2
18392.9
18402
18411.6
18421.6
18432.1
18443
18454.3
18466.1
18478.4
18491.1
18504.3
18517.9
18532
18546.7
18561.8
18577.4
18593.6
18610.3
18627.5
18645.2
18663.5
18682.4
18701.8
18721.8
18742.4
18763.5
18785.2
18807.5
18830.4
18853.9
18877.9
18902.5
18927.7
18953.5
18979.8
19006.7
19034.1
19062.1
19090.6
19119.6
19149.1
19179.1
19209.6
19240.6
19272.1
19304
19336.3
19369
19402
19435.4
19469.2
19503.2
19537.5
19572.1
19606.8
19641.8
19676.9
19712.1
19747.4
19782.8
19818.2
19853.7
19889.1
19924.5
19959.7
19994.9
20029.8
20064.6
20099
20133.1
20166.8
20200.1
20233.1
20265.6
20297.7
20329.4
20360.6
20391.4
20421.6
20451.3
20480.3
20508.7
20536.4
20563.3
20589.6
20615.1
20639.9
20663.8
20687
20709.3
20730.8
20751.4
20771.2
20790.1
20808
20825
20841.1
20856.2
20870.4
20883.6
20895.7
20906.9
20917.1
20926.3
20934.4
20941.5
20947.6
20952.7
20956.7
20959.7
20961.7
20962.7
20962.6
20961.5
20959.4
20956.2
20952.1
20946.9
20940.8
20933.6
20925.5
20916.4
20906.3
20895.2
20883.3
20870.3
20856.5
20841.7
20826
20809.5
20792
20773.6
20754.4
20734.3
20713.4
20691.6
20669
20645.6
20621.4
20596.5
20570.8
20544.5
20517.4
20489.7
20461.4
20432.4
20402.8
20372.7
20341.9
20310.5
20278.6
20246.2
20213.3
20179.8
20145.9
20111.5
20076.6
20041.2
20005.3
19969
19932.3
19895.3
19858
19820.4
19782.5
19744.4
19706
19667.3
19628.5
19589.4
19550.2
19510.7
19471.1
19431.4
19391.6
19351.6
19311.5
19271.4
19231.1
19190.8
19150.5
19110.1
19069.7
19029.2
18988.7
18948.3
18907.8
18867.3
18826.9
18786.5
18746.2
18705.9
18665.7
18625.6
18585.6
18545.7
18505.9
18466.3
18426.8
18387.5
18348.3
18309.2
18270.3
18231.6
18193.1
18154.8
18116.7
18078.8
18041.2
18003.8
17966.8
17930
17893.5
17857.3
17821.5
17786
17750.9
17716.3
17682
17648.2
17614.9
17582
17549.7
17517.9
17486.7
17456
17426
17396.6
17367.9
17339.9
17312.5
17286
17260.1
17235.1
17210.9
17187.5
17165
17143.4
17122.7
17102.8
17084
17066.1
17049.1
17033.2
17018.3
17004.4
16991.5
16979.7
16968.9
16959.2
16950.5
16942.9
16936.4
16931
16926.6
16923.3
16921.1
16919.9
16919.8
16920.7
16922.6
16925.6
16929.5
16934.5
16940.4
16947.3
16955.1
16963.9
16973.6
16984.1
16995.5
17007.8
17020.8
17034.7
17049.4
17064.8
17080.9
17097.8
17115.3
17133.5
17152.4
17172
17192.1
17212.9
17234.2
17256.2
17278.6
17301.7
17325.3
17349.4
17374
17399.1
17424.7
17450.8
17477.4
17504.5
17532
17559.9
17588.3
17617.2
17646.4
17676.1
17706.1
17736.6
17767.5
17798.7
17830.3
17862.3
17894.6
17927.2
17960.2
17993.5
18027.1
18061
18095.2
18129.6
18164.3
18199.2
18234.3
18269.6
18305.2
18340.8
18376.7
18412.6
18448.7
18484.9
18521.1
18557.4
18593.7
18630
18666.3
18702.6
18738.8
18774.9
18810.9
18846.8
18882.6
18918.2
18953.6
18988.8
19023.8
19058.6
19093
19127.2
19161.1
19194.6
19227.8
19260.6
19293.1
19325.1
19356.7
19387.9
19418.6
19448.9
19478.6
19508
19536.8
19565.1
19592.9
19620.1
19646.8
19672.9
19698.5
19723.4
19747.8
19771.6
19794.7
19817.2
19839.1
19860.4
19881.1
19901.1
19920.5
19939.2
19957.4
19974.9
19991.7
20007.9
20023.5
20038.4
20052.7
20066.4
20079.4
20091.8
20103.6
20114.7
20125.2
20135.1
20144.3
20152.9
20161
20168.4
20175.2
20181.4
20187.1
20192.2
20196.7
20200.7
20204.1
20207.1
20209.5
20211.5
20213
20214.1
20214.8
20215
20214.9
20214.5
20213.8
20212.8
20211.5
20210
20208.2
20206.4
20204.4
20202.3
20200.1
20197.9
20195.7
20193.6
20191.5
20189.6
20187.8
20186.2
20184.8
20183.7
20182.8
20182.1
20181.7
20181.4
18128.3
18128
18127.4
18126.4
18125
18123.3
18121.4
18119.1
18116.6
18113.8
18110.8
18107.5
18104
18100.3
18096.4
18092.3
18088.1
18083.7
18079.1
18074.5
18069.7
18064.9
18060
18055.1
18050.1
18045.2
18040.3
18035.4
18030.5
18025.8
18021.1
18016.5
18012.1
18007.8
18003.7
17999.7
17995.9
17992.3
17989
17985.9
17983
17980.4
17978
17976
17974.2
17972.8
17971.7
17970.9
17970.5
17970.5
17970.8
17971.4
17972.5
17974
17975.8
17978
17980.7
17983.8
17987.3
17991.2
17995.6
18000.4
18005.7
18011.3
18017.5
18024
18031
18038.4
18046.2
18054.5
18063.2
18072.3
18081.9
18091.9
18102.3
18113.2
18124.5
18136.2
18148.4
18161.1
18174.2
18187.9
18201.9
18216.5
18231.6
18247.2
18263.4
18280
18297.2
18314.9
18333.2
18352
18371.4
18391.4
18411.9
18433.1
18454.8
18477
18499.9
18523.4
18547.4
18572.1
18597.3
18623
18649.4
18676.3
18703.8
18731.8
18760.3
18789.4
18819
18849
18879.6
18910.7
18942.2
18974.2
19006.5
19039.3
19072.5
19106
19139.8
19174
19208.4
19243
19277.9
19313
19348.2
19383.6
19419
19454.5
19490.1
19525.7
19561.2
19596.7
19632.1
19667.3
19702.4
19737.2
19771.8
19806
19839.9
19873.4
19906.5
19939.3
19971.6
20003.4
20034.9
20065.8
20096.2
20126
20155.1
20183.7
20211.5
20238.6
20265
20290.7
20315.6
20339.7
20363
20385.4
20407
20427.8
20447.6
20466.6
20484.7
20501.8
20517.9
20533.1
20547.4
20560.6
20572.8
20584.1
20594.3
20603.5
20611.7
20618.8
20624.9
20630
20634.1
20637.1
20639.1
20640
20639.9
20638.8
20636.7
20633.5
20629.3
20624.1
20617.9
20610.7
20602.5
20593.3
20583.2
20572.1
20560
20547.1
20533.1
20518.3
20502.5
20485.8
20468.3
20449.8
20430.5
20410.4
20389.4
20367.5
20344.9
20321.4
20297.2
20272.2
20246.5
20220.1
20193
20165.2
20136.8
20107.8
20078.1
20047.9
20017
19985.6
19953.7
19921.2
19888.2
19854.6
19820.6
19786.1
19751.1
19715.6
19679.7
19643.3
19606.5
19569.5
19532
19494.3
19456.4
19418.1
19379.6
19340.9
19302
19262.9
19223.5
19184
19144.4
19104.6
19064.7
19024.7
18984.6
18944.3
18904.1
18863.7
18823.3
18782.9
18742.4
18701.9
18661.4
18620.9
18580.4
18539.9
18499.4
18459
18418.7
18378.4
18338.1
18298
18258
18218.1
18178.3
18138.6
18099
18059.6
18020.4
17981.3
17942.4
17903.6
17865.1
17826.7
17788.6
17750.6
17713
17675.5
17638.4
17601.5
17565
17528.7
17492.8
17457.3
17422.1
17387.4
17353.1
17319.2
17285.7
17252.8
17220.4
17188.5
17157.2
17126.4
17096.3
17066.8
17038
17009.8
16982.4
16955.7
16929.8
16904.7
16880.4
16856.9
16834.3
16812.6
16791.8
16771.9
16753
16735
16718
16702
16687
16673.1
16660.2
16648.3
16637.5
16627.7
16619.1
16611.5
16605
16599.5
16595.2
16591.9
16589.6
16588.5
16588.4
16589.3
16591.3
16594.3
16598.3
16603.3
16609.3
16616.3
16624.2
16633
16642.8
16653.4
16664.9
16677.2
16690.3
16704.3
16719
16734.5
16750.7
16767.6
16785.3
16803.6
16822.5
16842.1
16862.3
16883.2
16904.6
16926.6
16949.1
16972.2
16995.8
17020
17044.7
17069.8
17095.5
17121.7
17148.3
17175.4
17202.9
17230.9
17259.3
17288.2
17317.5
17347.2
17377.3
17407.8
17438.7
17470
17501.7
17533.7
17566.1
17598.8
17631.8
17665.2
17698.8
17732.8
17767
17801.5
17836.2
17871.2
17906.4
17941.8
17977.4
18013.1
18049
18085.1
18121.2
18157.5
18193.8
18230.2
18266.6
18303
18339.4
18375.7
18412
18448.2
18484.4
18520.4
18556.2
18591.9
18627.4
18662.7
18697.8
18732.6
18767.2
18801.5
18835.4
18869
18902.3
18935.2
18967.7
18999.8
19031.5
19062.7
19093.5
19123.9
19153.7
19183.1
19211.9
19240.3
19268.1
19295.4
19322.1
19348.3
19373.8
19398.8
19423.2
19447
19470.1
19492.7
19514.6
19535.9
19556.6
19576.6
19596
19614.7
19632.9
19650.3
19667.2
19683.4
19698.9
19713.9
19728.1
19741.8
19754.8
19767.1
19778.9
19789.9
19800.4
19810.2
19819.4
19828
19836
19843.4
19850.1
19856.3
19861.9
19866.9
19871.4
19875.3
19878.7
19881.6
19883.9
19885.8
19887.3
19888.3
19888.9
19889.1
19888.9
19888.4
19887.6
19886.5
19885.1
19883.5
19881.7
19879.7
19877.6
19875.4
19873.1
19870.8
19868.5
19866.2
19864
19862
19860.1
19858.4
19856.9
19855.7
19854.8
19854.1
19853.6
19853.4
17802.8
17802.5
17801.8
17800.8
17799.4
17797.7
17795.7
17793.4
17790.8
17788
17784.9
17781.5
17778
17774.2
17770.2
17766.1
17761.7
17757.3
17752.7
17747.9
17743.1
17738.1
17733.2
17728.1
17723.1
17718.1
17713
17708
17703.1
17698.3
17693.5
17688.8
17684.3
17679.9
17675.7
17671.6
17667.8
17664.1
17660.6
17657.4
17654.5
17651.8
17649.3
17647.2
17645.4
17643.9
17642.7
17641.9
17641.4
17641.2
17641.5
17642.1
17643.1
17644.5
17646.2
17648.4
17651.1
17654.1
17657.6
17661.5
17665.8
17670.6
17675.8
17681.4
17687.5
17694
17701
17708.4
17716.2
17724.4
17733.1
17742.2
17751.7
17761.6
17772
17782.8
17794.1
17805.8
17818
17830.6
17843.7
17857.3
17871.3
17885.9
17900.9
17916.5
17932.6
17949.2
17966.3
17984
18002.2
18021.1
18040.4
18060.4
18080.9
18102
18123.7
18146
18168.8
18192.3
18216.4
18241
18266.2
18292
18318.4
18345.3
18372.8
18400.9
18429.5
18458.6
18488.3
18518.4
18549.1
18580.2
18611.8
18643.9
18676.4
18709.2
18742.5
18776.1
18810.1
18844.3
18878.9
18913.7
18948.7
18983.9
19019.2
19054.8
19090.4
19126
19161.8
19197.5
19233.2
19268.8
19304.4
19339.8
19375
19409.9
19444.6
19479
19513.1
19546.8
19580.2
19613.1
19645.7
19677.7
19709.4
19740.5
19771
19801
19830.3
19859
19887
19914.3
19940.9
19966.7
19991.8
20016
20039.5
20062.1
20083.8
20104.7
20124.7
20143.7
20161.9
20179.1
20195.4
20210.6
20225
20238.3
20250.6
20261.9
20272.1
20281.4
20289.6
20296.8
20302.9
20308
20312.1
20315.1
20317.1
20318
20317.9
20316.8
20314.6
20311.4
20307.2
20302
20295.7
20288.5
20280.2
20271
20260.8
20249.6
20237.5
20224.4
20210.4
20195.5
20179.6
20162.9
20145.2
20126.7
20107.3
20087.1
20066
20044.1
20021.3
19997.8
19973.5
19948.4
19922.6
19896.1
19868.9
19841.1
19812.6
19783.5
19753.7
19723.4
19692.4
19660.9
19628.9
19596.3
19563.2
19529.6
19495.5
19460.9
19425.8
19390.3
19354.2
19317.8
19281
19243.8
19206.3
19168.5
19130.4
19092.1