/*--------------------------------*- C++ -*----------------------------------*\
| =========                 |                                                 |
| \\      /  F ield         | OpenFOAM: The Open Source CFD Toolbox           |
|  \\    /   O peration     | Version:  v2006                                 |
|   \\  /    A nd           | Website:  www.openfoam.com                      |
|    \\/     M anipulation  |                                                 |
\*---------------------------------------------------------------------------*/
FoamFile
{
    version     2.0;
    format      ascii;
    class       volScalarField;
    location    "0";
    object      p;
}
// * * * * * * * * * * * * * * * * * * * * * * * * * * * * * * * * * * * * * //

dimensions      [1 -1 -2 0 0 0 0];


internalField   nonuniform List<scalar> 
67500
(
111.937
113.694
116.013
119.203
120.42
120.497
120.399
120.591
121.14
121.914
122.778
123.641
124.425
125.04
125.406
125.467
125.188
124.552
123.551
122.195
120.503
118.503
116.227
113.708
110.983
108.087
105.052
101.91
98.6901
95.4185
92.1194
88.8142
85.5217
82.2583
79.0382
75.8733
72.7734
69.7468
66.7997
63.9372
61.1627
58.4789
55.8871
53.388
50.9814
48.6667
46.4428
44.308
42.2606
40.2983
38.4189
36.6201
34.8992
33.2538
31.6811
30.1788
28.7441
27.3745
26.0675
24.8208
23.6317
22.4981
21.4177
20.3881
19.4074
18.4734
17.5841
16.7376
15.932
15.1655
14.4364
13.743
13.0836
12.4568
11.861
11.2948
10.7568
10.2457
9.7602
9.2991
8.86121
8.44542
8.05065
7.67586
7.32007
6.98235
6.66179
6.35755
6.0688
5.79478
5.53475
5.28801
5.05388
4.83174
4.62098
4.42103
4.23134
4.05139
3.88068
3.71876
3.56515
3.41945
3.28123
3.15011
3.02571
2.90768
2.79567
2.68937
2.58847
2.49266
2.40166
2.3152
2.23303
2.1549
2.08057
2.00983
1.94247
1.87827
1.81707
1.75866
1.7029
1.64961
1.59866
1.5499
1.50319
1.45843
1.41548
1.37425
1.33463
1.29654
1.25988
1.22457
1.19054
1.15772
1.12604
1.09543
1.06585
1.03724
1.00954
0.982709
0.956707
0.931488
0.907014
0.88325
0.86016
0.837714
0.815882
0.794635
0.773949
0.753799
0.734163
0.715021
0.696352
0.678139
0.660366
0.643017
0.626077
0.609534
0.593376
0.57759
0.562166
0.547094
0.532365
0.51797
0.503901
0.490149
0.476707
0.463569
0.450728
0.438176
0.425908
0.413917
0.402199
0.390746
0.379554
0.368617
0.357931
0.347489
0.337287
0.32732
0.317583
0.308072
0.298783
0.28971
0.280849
0.272197
0.26375
0.255502
0.247452
0.239593
0.231925
0.224441
0.21714
0.210018
0.203072
0.196299
0.189694
0.183257
0.176983
0.170871
0.164916
0.159117
0.153472
0.147976
0.142629
0.137428
0.132369
0.127452
0.122673
0.118031
0.113523
0.109146
0.1049
0.10078
0.0967863
0.0929155
0.0891655
0.0855343
0.0820195
0.0786191
0.0753307
0.0721523
0.0690815
0.0661162
0.0632541
0.0604931
0.0578309
0.0552653
0.0527942
0.0504154
0.0481269
0.0459265
0.0438123
0.0417822
0.0398343
0.0379667
0.0361775
0.0344649
0.0328271
0.0312621
0.0297683
0.0283438
0.0269867
0.0256953
0.0244676
0.0233018
0.022196
0.0211482
0.0201566
0.0192192
0.0183342
0.0174998
0.0167141
0.0159755
0.0152823
0.0146329
0.0140257
0.0134591
0.0129315
0.0124415
0.0119874
0.0115674
0.0111799
0.010823
0.010495
0.0101939
0.00991772
0.00966464
0.0094327
0.00922003
0.00902479
0.00884525
0.00867973
0.00852668
0.00838464
0.00825227
0.00812834
0.00801174
0.00790147
0.00779664
0.00769646
0.00760022
0.00750734
0.00741726
0.00732955
0.00724382
0.00715974
0.00707702
0.00699545
0.00691483
0.006835
0.00675584
0.00667725
0.00659915
0.00652149
0.00644421
0.0063673
0.00629073
0.00621449
0.00613859
0.00606302
0.00598778
0.00591291
0.00583839
0.00576426
0.00569052
0.0056172
0.00554432
0.00547189
0.00539994
0.00532847
0.00525751
0.00518708
0.00511718
0.00504784
0.00497906
0.00491087
0.00484327
0.00477627
0.00470988
0.00464411
0.00457897
0.00451446
0.00445058
0.00438735
0.00432476
0.00426282
0.00420153
0.0041409
0.00408091
0.00402157
0.00396288
0.00390484
0.00384745
0.0037907
0.00373459
0.00367912
0.00362428
0.00357008
0.0035165
0.00346354
0.0034112
0.00335948
0.00330837
0.00325787
0.00320796
0.00315864
0.0031099
0.00306175
0.00301416
0.00296713
0.00292066
0.00287474
0.00282937
0.00278453
0.00274022
0.00269644
0.00265317
0.0026104
0.00256814
0.00252636
0.00248508
0.00244427
0.00240393
0.00236405
0.00232463
0.00228566
0.00224713
0.00220903
0.00217137
0.00213412
0.00209728
0.00206085
0.00202482
0.00198918
0.00195393
0.00191905
0.00188454
0.0018504
0.00181662
0.00178319
0.00175012
0.00171738
0.00168498
0.0016529
0.00162115
0.00158971
0.00155859
0.00152777
0.00149725
0.00146702
0.00143707
0.00140741
0.00137801
0.00134888
0.00132001
0.0012914
0.00126304
0.00123492
0.00120704
0.00117941
0.001152
0.00112482
0.00109785
0.0010711
0.00104456
0.00101822
0.00099208
0.00096613
0.000940367
0.000914786
0.000889381
0.000864147
0.000839081
0.000814176
0.000789428
0.000764831
0.000740379
0.000716069
0.000691893
0.000667849
0.00064393
0.000620133
0.000596453
0.000572886
0.000549428
0.000526074
0.000502821
0.000479665
0.0004566
0.000433622
0.000410727
0.00038791
0.000365167
0.000342494
0.000319888
0.000297344
0.00027486
0.000252429
0.000230048
0.000207711
0.000185415
0.000163154
0.000140928
0.000118723
9.65674e-05
7.43518e-05
5.24823e-05
2.97809e-05
1.18164e-05
110.324
112.064
114.404
117.584
118.764
118.833
118.779
119.03
119.633
120.463
121.392
122.329
123.187
123.874
124.309
124.435
124.217
123.635
122.684
121.374
119.725
117.765
115.527
113.045
110.356
107.493
104.491
101.38
98.1889
94.9451
91.6723
88.3919
85.123
81.882
78.6831
75.5384
72.4577
69.4492
66.5194
63.6733
60.9144
58.2453
55.6674
53.1814
50.7873
48.4844
46.2715
44.147
42.1093
40.1562
38.2853
36.4945
34.7811
33.1426
31.5766
30.0803
28.6513
27.2871
25.9852
24.7431
23.5584
22.4289
21.3523
20.3264
19.3491
18.4183
17.532
16.6883
15.8854
15.1214
14.3946
13.7034
13.0462
12.4213
11.8274
11.263
10.7267
10.2172
9.73323
9.27357
8.83704
8.42253
8.02898
7.65534
7.30065
6.96396
6.64438
6.34106
6.05319
5.78
5.52075
5.27474
5.04131
4.81983
4.6097
4.41034
4.22121
4.0418
3.8716
3.71015
3.55701
3.41174
3.27393
3.1432
3.01917
2.9015
2.78984
2.68386
2.58326
2.48774
2.39702
2.31083
2.22892
2.15103
2.07693
2.0064
1.93924
1.87524
1.81422
1.75599
1.70039
1.64725
1.59644
1.54781
1.50123
1.45658
1.41375
1.37262
1.3331
1.29509
1.25851
1.22328
1.18932
1.15657
1.12495
1.0944
1.06487
1.03631
1.00866
0.981877
0.955917
0.930737
0.9063
0.88257
0.859513
0.837096
0.815292
0.794072
0.77341
0.753282
0.733668
0.714544
0.695894
0.677698
0.65994
0.642605
0.625679
0.609149
0.593002
0.577227
0.561813
0.54675
0.53203
0.517644
0.503582
0.489838
0.476404
0.463272
0.450437
0.437892
0.42563
0.413645
0.401932
0.390485
0.379299
0.368367
0.357685
0.347249
0.337051
0.327089
0.317357
0.307851
0.298566
0.289497
0.280641
0.271993
0.263549
0.255306
0.247259
0.239404
0.231739
0.224259
0.216961
0.209843
0.202899
0.196129
0.189528
0.183093
0.176822
0.170712
0.16476
0.158964
0.153321
0.147828
0.142483
0.137284
0.132228
0.127313
0.122537
0.117897
0.113391
0.109017
0.104772
0.100655
0.0966632
0.0927946
0.0890468
0.0854177
0.0819052
0.078507
0.0752208
0.0720446
0.0689761
0.066013
0.0631531
0.0603943
0.0577342
0.0551708
0.0527018
0.0503252
0.0480387
0.0458403
0.0437281
0.0417
0.039754
0.0378883
0.036101
0.0343902
0.0327541
0.031191
0.029699
0.0282763
0.0269211
0.0256315
0.0244057
0.0232418
0.0221379
0.021092
0.0201023
0.0191668
0.0182836
0.017451
0.016667
0.0159301
0.0152385
0.0145907
0.013985
0.01342
0.0128941
0.0124057
0.0119532
0.0115349
0.0111492
0.0107942
0.0104681
0.0101689
0.00989466
0.00964348
0.00941341
0.00920256
0.00900907
0.00883118
0.00866722
0.00851562
0.00837492
0.00824378
0.00812096
0.00800536
0.00789599
0.00779195
0.00769246
0.00759684
0.00750448
0.00741487
0.00732755
0.00724215
0.00715834
0.00707586
0.00699448
0.00691401
0.00683431
0.00675526
0.00667675
0.00659871
0.00652109
0.00644384
0.00636695
0.00629039
0.00621416
0.00613825
0.00606267
0.00598743
0.00591254
0.005838
0.00576385
0.0056901
0.00561676
0.00554386
0.00547142
0.00539945
0.00532796
0.00525699
0.00518654
0.00511663
0.00504727
0.00497848
0.00491028
0.00484267
0.00477566
0.00470926
0.00464349
0.00457834
0.00451382
0.00444994
0.0043867
0.00432411
0.00426217
0.00420088
0.00414025
0.00408026
0.00402092
0.00396223
0.00390419
0.0038468
0.00379006
0.00373395
0.00367848
0.00362365
0.00356945
0.00351587
0.00346292
0.00341059
0.00335888
0.00330777
0.00325727
0.00320737
0.00315806
0.00310933
0.00306118
0.00301359
0.00296658
0.00292011
0.0028742
0.00282883
0.002784
0.0027397
0.00269592
0.00265266
0.0026099
0.00256764
0.00252588
0.0024846
0.00244379
0.00240346
0.0023636
0.00232418
0.00228522
0.0022467
0.00220861
0.00217094
0.0021337
0.00209688
0.00206045
0.00202443
0.0019888
0.00195355
0.00191867
0.00188417
0.00185004
0.00181627
0.00178285
0.00174978
0.00171705
0.00168465
0.00165258
0.00162083
0.0015894
0.00155829
0.00152747
0.00149696
0.00146673
0.00143679
0.00140713
0.00137774
0.00134862
0.00131976
0.00129115
0.00126279
0.00123468
0.00120681
0.00117918
0.00115178
0.0011246
0.00109764
0.0010709
0.00104436
0.00101803
0.000991889
0.000965944
0.000940186
0.000914609
0.000889209
0.000863981
0.000838919
0.000814019
0.000789276
0.000764684
0.000740238
0.000715932
0.000691761
0.000667721
0.000643807
0.000620014
0.000596338
0.000572775
0.000549322
0.000525973
0.000502724
0.000479572
0.000456512
0.000433539
0.000410648
0.000387835
0.000365096
0.000342428
0.000319826
0.000297287
0.000274806
0.00025238
0.000230003
0.000207671
0.000185379
0.000163122
0.0001409
0.000118699
9.65488e-05
7.43378e-05
5.24726e-05
2.97754e-05
1.18143e-05
107.064
108.789
111.139
114.294
115.417
115.498
115.532
115.895
116.608
117.554
118.615
119.696
120.701
121.532
122.106
122.363
122.266
121.794
120.944
119.727
118.164
116.286
114.126
111.719
109.101
106.307
103.369
100.32
97.1882
94
90.7799
87.5494
84.3276
81.1313
77.9748
74.8703
71.8278
68.8556
65.9603
63.1469
60.419
57.7793
55.2293
52.7696
50.4003
48.1207
45.9297
43.826
41.8077
39.8727
38.0189
36.244
34.5455
32.921
31.368
29.8839
28.4663
27.1128
25.8208
24.5881
23.4122
22.2909
21.222
20.2033
19.2327
18.3083
17.428
16.5899
15.7923
15.0333
14.3113
13.6245
12.9715
12.3506
11.7605
11.1996
10.6667
10.1603
9.67939
9.22258
8.78877
8.37684
7.98571
7.61438
7.26186
6.92724
6.60961
6.30814
6.02202
5.75047
5.49278
5.24825
5.01622
4.79606
4.58718
4.38901
4.201
4.02265
3.85346
3.69297
3.54074
3.39633
3.25935
3.12941
3.00613
2.88917
2.77818
2.67285
2.57287
2.47793
2.38777
2.30212
2.2207
2.14329
2.06965
1.99956
1.93281
1.86919
1.80853
1.75065
1.69537
1.64254
1.59201
1.54365
1.49732
1.4529
1.41028
1.36936
1.33003
1.2922
1.25578
1.22071
1.18689
1.15427
1.12277
1.09235
1.06293
1.03447
1.00691
0.980216
0.954339
0.929238
0.904875
0.881213
0.85822
0.835863
0.814115
0.792946
0.772333
0.752251
0.732678
0.713593
0.694979
0.676816
0.659089
0.641783
0.624884
0.608378
0.592254
0.576501
0.561107
0.546064
0.531361
0.516991
0.502945
0.489216
0.475796
0.462678
0.449856
0.437323
0.425074
0.413101
0.401399
0.389963
0.378788
0.367867
0.357195
0.346768
0.336581
0.326628
0.316906
0.307408
0.298132
0.289072
0.280224
0.271584
0.263148
0.254912
0.246873
0.239026
0.231367
0.223894
0.216603
0.209491
0.202554
0.19579
0.189194
0.182765
0.1765
0.170396
0.164449
0.158658
0.15302
0.147532
0.142192
0.136998
0.131946
0.127036
0.122264
0.117628
0.113127
0.108757
0.104517
0.100404
0.096417
0.0925527
0.0888093
0.0851847
0.0816765
0.0782827
0.075001
0.0718293
0.0687652
0.0658065
0.0629511
0.0601966
0.057541
0.0549819
0.0525172
0.0501447
0.0478624
0.0456681
0.0435598
0.0415356
0.0395934
0.0377314
0.0359478
0.0342407
0.0326083
0.0310487
0.0295604
0.0281413
0.0267898
0.025504
0.0242819
0.0231218
0.0220217
0.0209797
0.0199938
0.019062
0.0181825
0.0173534
0.0165729
0.0158393
0.0151509
0.0145062
0.0139037
0.0133418
0.012819
0.0123339
0.0118848
0.01147
0.0110879
0.0107366
0.0104143
0.0101189
0.00984854
0.0096012
0.0093749
0.00916769
0.0089777
0.00880314
0.00864231
0.00849362
0.0083556
0.0082269
0.00810631
0.00799271
0.00788512
0.00778266
0.00768457
0.00759016
0.00749885
0.00741014
0.0073236
0.00723885
0.0071556
0.00707358
0.00699258
0.00691242
0.00683297
0.00675411
0.00667576
0.00659784
0.0065203
0.00644312
0.00636626
0.00628972
0.00621349
0.00613758
0.00606198
0.00598672
0.0059118
0.00583723
0.00576305
0.00568926
0.00561588
0.00554295
0.00547047
0.00539846
0.00532694
0.00525594
0.00518546
0.00511552
0.00504613
0.00497732
0.00490909
0.00484146
0.00477444
0.00470802
0.00464223
0.00457707
0.00451254
0.00444865
0.00438541
0.00432281
0.00426087
0.00419958
0.00413894
0.00407895
0.00401962
0.00396093
0.0039029
0.00384551
0.00378877
0.00373267
0.00367721
0.00362239
0.00356819
0.00351463
0.00346169
0.00340937
0.00335766
0.00330657
0.00325608
0.00320619
0.00315689
0.00310818
0.00306004
0.00301247
0.00296546
0.00291902
0.00287312
0.00282776
0.00278295
0.00273866
0.00269489
0.00265164
0.0026089
0.00256666
0.0025249
0.00248364
0.00244285
0.00240253
0.00236268
0.00232328
0.00228433
0.00224582
0.00220775
0.0021701
0.00213287
0.00209606
0.00205965
0.00202364
0.00198802
0.00195279
0.00191793
0.00188344
0.00184932
0.00181556
0.00178215
0.0017491
0.00171638
0.00168399
0.00165194
0.0016202
0.00158879
0.00155768
0.00152688
0.00149637
0.00146616
0.00143623
0.00140659
0.00137721
0.0013481
0.00131924
0.00129065
0.0012623
0.0012342
0.00120634
0.00117872
0.00115133
0.00112417
0.00109722
0.00107048
0.00104396
0.00101763
0.000991507
0.000965572
0.000939823
0.000914256
0.000888866
0.000863648
0.000838596
0.000813706
0.000788973
0.00076439
0.000739953
0.000715656
0.000691494
0.000667463
0.000643558
0.000619774
0.000596107
0.000572553
0.000549109
0.000525769
0.00050253
0.000479388
0.000456337
0.000433372
0.00041049
0.000387686
0.000364955
0.000342295
0.000319702
0.000297172
0.0002747
0.000252283
0.000229914
0.000207591
0.000185307
0.00016306
0.000140846
0.000118654
9.65125e-05
7.431e-05
5.24531e-05
2.97644e-05
1.181e-05
102.117
103.809
106.144
109.252
110.31
110.447
110.632
111.171
112.058
113.182
114.437
115.727
116.949
117.996
118.78
119.236
119.322
119.017
118.319
117.242
115.811
114.057
112.015
109.723
107.214
104.524
101.686
98.731
95.6879
92.5838
89.4429
86.2873
83.1364
80.0072
76.9143
73.8701
70.8849
67.9672
65.1235
62.3591
59.6778
57.0822
54.5738
52.1535
49.8214
47.5768
45.4188
43.346
41.3566
39.4489
37.6206
35.8695
34.1933
32.5896
31.0561
29.5903
28.1897
26.8521
25.5751
24.3563
23.1935
22.0844
21.027
20.0191
19.0587
18.1437
17.2724
16.4428
15.6531
14.9015
14.1865
13.5064
12.8597
12.2448
11.6602
11.1047
10.5768
10.0753
9.59882
9.1463
8.71655
8.30846
7.92097
7.55309
7.20384
6.8723
6.5576
6.25889
5.97537
5.7063
5.45095
5.20862
4.97868
4.7605
4.55349
4.35708
4.17076
3.994
3.82632
3.66727
3.51639
3.37328
3.23753
3.10876
2.9866
2.8707
2.76073
2.65637
2.55731
2.46326
2.37393
2.28907
2.20841
2.13172
2.05876
1.98932
1.92318
1.86014
1.80003
1.74266
1.68786
1.63549
1.58539
1.53743
1.49147
1.4474
1.40511
1.36448
1.32544
1.28787
1.2517
1.21686
1.18325
1.15083
1.11952
1.08927
1.06001
1.0317
1.00429
0.977732
0.95198
0.926996
0.902742
0.879183
0.856285
0.834018
0.812353
0.791263
0.770722
0.750707
0.731196
0.71217
0.693609
0.675497
0.657816
0.640553
0.623694
0.607225
0.591135
0.575414
0.56005
0.545035
0.530359
0.516013
0.501991
0.488284
0.474886
0.461788
0.448986
0.436472
0.42424
0.412285
0.4006
0.389181
0.378021
0.367116
0.35646
0.346048
0.335875
0.325937
0.316228
0.306744
0.297481
0.288434
0.279599
0.270971
0.262547
0.254323
0.246294
0.238458
0.23081
0.223348
0.216067
0.208964
0.202036
0.195281
0.188694
0.182274
0.176017
0.169921
0.163982
0.158199
0.152568
0.147088
0.141755
0.136568
0.131524
0.12662
0.121855
0.117226
0.112731
0.108368
0.104135
0.100028
0.0960477
0.0921899
0.0884531
0.0848351
0.0813335
0.0779464
0.0746713
0.0715062
0.0684488
0.0654968
0.062648
0.0599002
0.0572511
0.0546985
0.0522402
0.0498741
0.047598
0.0454098
0.0433075
0.041289
0.0393526
0.0374963
0.0357181
0.0340165
0.0323895
0.0308354
0.0293524
0.0279388
0.0265928
0.0253126
0.0240962
0.0229419
0.0218475
0.0208112
0.019831
0.0189049
0.0180309
0.0172071
0.0164317
0.0157031
0.0150196
0.0143796
0.0137817
0.0132244
0.0127064
0.0122261
0.011782
0.0113725
0.0109958
0.0106501
0.0103335
0.0100439
0.00977942
0.00953788
0.00931726
0.00911557
0.00893087
0.00876132
0.0086052
0.00846088
0.00832689
0.00820188
0.00808461
0.007974
0.00786907
0.00776897
0.00767294
0.00758034
0.00749059
0.00740322
0.00731782
0.00723404
0.0071516
0.00707026
0.00698981
0.00691011
0.00683103
0.00675245
0.00667432
0.00659657
0.00651916
0.00644205
0.00636525
0.00628874
0.00621251
0.00613659
0.00606096
0.00598566
0.00591069
0.00583608
0.00576184
0.005688
0.00561457
0.00554157
0.00546904
0.00539698
0.00532541
0.00525436
0.00518383
0.00511385
0.00504442
0.00497557
0.00490731
0.00483965
0.0047726
0.00470616
0.00464034
0.00457516
0.00451062
0.00444672
0.00438347
0.00432087
0.00425892
0.00419762
0.00413698
0.004077
0.00401766
0.00395898
0.00390095
0.00384357
0.00378684
0.00373075
0.00367531
0.00362049
0.00356631
0.00351276
0.00345984
0.00340753
0.00335585
0.00330477
0.0032543
0.00320443
0.00315515
0.00310645
0.00305833
0.00301078
0.0029638
0.00291737
0.00287149
0.00282616
0.00278136
0.0027371
0.00269335
0.00265012
0.0026074
0.00256517
0.00252344
0.0024822
0.00244144
0.00240114
0.00236131
0.00232193
0.002283
0.00224451
0.00220646
0.00216883
0.00213163
0.00209484
0.00205845
0.00202246
0.00198686
0.00195165
0.00191681
0.00188234
0.00184824
0.0018145
0.00178112
0.00174808
0.00171538
0.00168301
0.00165097
0.00161926
0.00158786
0.00155677
0.00152599
0.0014955
0.00146531
0.0014354
0.00140577
0.00137641
0.00134731
0.00131848
0.0012899
0.00126157
0.00123349
0.00120565
0.00117804
0.00115067
0.00112352
0.00109658
0.00106987
0.00104335
0.00101705
0.000990934
0.000965013
0.000939279
0.000913727
0.000888352
0.000863148
0.000838112
0.000813237
0.000788517
0.000763949
0.000739526
0.000715242
0.000691094
0.000667076
0.000643184
0.000619414
0.00059576
0.00057222
0.00054879
0.000525464
0.000502239
0.000479111
0.000456073
0.000433122
0.000410253
0.000387462
0.000364744
0.000342097
0.000319517
0.000296999
0.000274541
0.000252136
0.000229781
0.00020747
0.0001852
0.000162966
0.000140766
0.000118587
9.6458e-05
7.42684e-05
5.24239e-05
2.97478e-05
1.18035e-05
95.4104
97.0477
99.3134
102.37
103.362
103.611
104.033
104.843
105.981
107.342
108.841
110.396
111.902
113.239
114.305
115.029
115.362
115.282
114.79
113.902
112.649
111.065
109.187
107.05
104.691
102.144
99.4408
96.6129
93.6898
90.6984
87.6638
84.6084
81.5522
78.5125
75.5043
72.5406
69.6317
66.7865
64.0117
61.3126
58.6933
56.1563
53.7035
51.3356
49.0529
46.8549
44.7406
42.7089
40.7582
38.8865
37.092
35.3726
33.726
32.15
30.6423
29.2006
27.8227
26.5062
25.2489
24.0486
22.9032
21.8104
20.7682
19.7746
18.8276
17.9252
17.0658
16.2473
15.4681
14.7265
14.0209
13.3496
12.7112
12.1042
11.5271
10.9786
10.4574
9.9622
9.49177
9.04495
8.62058
8.2176
7.83496
7.47166
7.12675
6.79931
6.48849
6.19345
5.91341
5.64761
5.39536
5.15597
4.9288
4.71324
4.50871
4.31466
4.13056
3.95592
3.79025
3.6331
3.48404
3.34265
3.20854
3.08132
2.96065
2.84617
2.73755
2.63447
2.53663
2.44375
2.35554
2.27173
2.19209
2.11635
2.0443
1.97572
1.9104
1.84813
1.78874
1.73206
1.67791
1.62614
1.5766
1.52917
1.48371
1.4401
1.39824
1.35802
1.31935
1.28213
1.24629
1.21175
1.17843
1.14627
1.11521
1.08518
1.05615
1.02804
1.00082
0.974433
0.948847
0.924018
0.89991
0.876487
0.853716
0.831568
0.810014
0.789026
0.768581
0.748656
0.729228
0.710279
0.691789
0.673743
0.656124
0.638918
0.622111
0.605691
0.589647
0.573968
0.558644
0.543666
0.529024
0.514712
0.500721
0.487044
0.473673
0.460603
0.447826
0.435337
0.42313
0.411198
0.399536
0.388139
0.377001
0.366116
0.355481
0.345089
0.334935
0.325016
0.315325
0.30586
0.296614
0.287584
0.278766
0.270154
0.261746
0.253537
0.245524
0.237702
0.230068
0.222619
0.215351
0.208261
0.201346
0.194603
0.188028
0.181619
0.175374
0.169288
0.16336
0.157587
0.151966
0.146496
0.141173
0.135995
0.13096
0.126066
0.121309
0.11669
0.112204
0.107849
0.103625
0.0995272
0.0955552
0.0917062
0.0879782
0.0843689
0.0808762
0.0774978
0.0742317
0.0710755
0.068027
0.0650839
0.062244
0.0595051
0.0568648
0.0543209
0.0518712
0.0495135
0.0472457
0.0450656
0.0429712
0.0409605
0.0390317
0.0371828
0.035412
0.0337176
0.0320978
0.0305508
0.0290751
0.0276688
0.0263301
0.0250573
0.0238486
0.0227019
0.0216152
0.0205867
0.0196142
0.0186956
0.0178289
0.0170123
0.0162438
0.0155218
0.0148446
0.0142108
0.013619
0.0130679
0.012556
0.0120821
0.0116447
0.0112421
0.0108727
0.0105345
0.0102256
0.00994393
0.00968732
0.00945361
0.00924068
0.00904642
0.00886884
0.00870604
0.00855623
0.00841777
0.00828916
0.00816904
0.0080562
0.00794956
0.00784815
0.00775116
0.00765785
0.00756762
0.00747991
0.0073943
0.00731039
0.00722787
0.00714649
0.00706602
0.00698629
0.00690717
0.00682855
0.00675035
0.00667249
0.00659495
0.00651769
0.00644069
0.00636395
0.00628746
0.00621123
0.00613528
0.00605962
0.00598426
0.00590923
0.00583455
0.00576024
0.00568632
0.00561281
0.00553974
0.00546713
0.005395
0.00532337
0.00525225
0.00518166
0.00511162
0.00504214
0.00497324
0.00490493
0.00483723
0.00477014
0.00470367
0.00463783
0.00457262
0.00450805
0.00444414
0.00438087
0.00431827
0.00425631
0.00419501
0.00413437
0.00407439
0.00401506
0.00395638
0.00389836
0.00384099
0.00378427
0.00372819
0.00367276
0.00361797
0.00356381
0.00351028
0.00345737
0.00340509
0.00335342
0.00330237
0.00325192
0.00320208
0.00315282
0.00310415
0.00305606
0.00300853
0.00296157
0.00291517
0.00286933
0.00282402
0.00277925
0.00273501
0.00269129
0.00264809
0.0026054
0.0025632
0.0025215
0.00248029
0.00243955
0.00239928
0.00235948
0.00232013
0.00228123
0.00224277
0.00220475
0.00216715
0.00212997
0.00209321
0.00205685
0.00202088
0.00198531
0.00195012
0.00191531
0.00188088
0.0018468
0.00181309
0.00177973
0.00174672
0.00171404
0.0016817
0.00164969
0.001618
0.00158662
0.00155556
0.0015248
0.00149433
0.00146417
0.00143428
0.00140467
0.00137534
0.00134627
0.00131746
0.0012889
0.00126059
0.00123253
0.00120472
0.00117713
0.00114978
0.00112265
0.00109574
0.00106904
0.00104255
0.00101626
0.000990169
0.000964269
0.000938555
0.000913022
0.000887667
0.000862483
0.000837466
0.00081261
0.00078791
0.00076336
0.000738956
0.000714691
0.00069056
0.00066656
0.000642686
0.000618933
0.000595298
0.000571777
0.000548365
0.000525058
0.000501852
0.000478741
0.000455722
0.000432789
0.000409937
0.000387163
0.000364463
0.000341833
0.00031927
0.00029677
0.000274328
0.000251941
0.000229603
0.00020731
0.000185058
0.000162841
0.000140658
0.000118497
9.63853e-05
7.42127e-05
5.23846e-05
2.97255e-05
1.17948e-05
86.8729
88.4499
90.4528
93.4178
94.4363
94.9153
95.7046
96.9108
98.3844
100.018
101.789
103.655
105.512
107.217
108.641
109.704
110.352
110.558
110.328
109.683
108.659
107.294
105.627
103.693
101.528
99.1636
96.6331
93.9672
91.1958
88.3467
85.4457
82.516
79.5781
76.6504
73.7482
70.8848
68.0713
65.3166
62.6278
60.0103
57.4684
55.0047
52.6211
50.3187
48.0976
45.9576
43.8979
41.9174
40.0146
38.1879
36.4354
34.7553
33.1454
31.6038
30.1282
28.7166
27.3667
26.0764
24.8437
23.6663
22.5423
21.4697
20.4464
19.4705
18.5402
17.6535
16.8088
16.0042
15.2381
14.5088
13.8148
13.1545
12.5264
11.9292
11.3614
10.8217
10.3088
9.82151
9.35856
8.91881
8.50116
8.10454
7.72793
7.37033
7.03082
6.70849
6.4025
6.11203
5.8363
5.57459
5.3262
5.09045
4.86673
4.65443
4.45299
4.26187
4.08054
3.90852
3.74535
3.59057
3.44376
3.30451
3.17244
3.04717
2.92834
2.81562
2.70868
2.60721
2.5109
2.41947
2.33265
2.25016
2.17177
2.09723
2.02632
1.95881
1.8945
1.8332
1.77472
1.71888
1.66553
1.61452
1.56569
1.51891
1.47407
1.43104
1.38971
1.34999
1.31178
1.275
1.23956
1.2054
1.17243
1.1406
1.10984
1.08011
1.05134
1.02348
0.996493
0.97033
0.94495
0.920315
0.896387
0.873133
0.850521
0.82852
0.807104
0.786244
0.765919
0.746104
0.726779
0.707926
0.689525
0.67156
0.654017
0.636881
0.620139
0.60378
0.587793
0.572166
0.556891
0.541958
0.52736
0.513089
0.499136
0.485495
0.47216
0.459123
0.446379
0.433921
0.421743
0.40984
0.398207
0.386837
0.375725
0.364867
0.354257
0.34389
0.333761
0.323865
0.314198
0.304755
0.295531
0.286523
0.277725
0.269134
0.260745
0.252556
0.244561
0.236757
0.229141
0.221709
0.214458
0.207384
0.200484
0.193756
0.187196
0.180802
0.17457
0.168497
0.162583
0.156822
0.151214
0.145756
0.140445
0.135279
0.130256
0.125373
0.120628
0.116019
0.111544
0.107201
0.102987
0.0989007
0.0949396
0.0911015
0.0873844
0.0837861
0.0803044
0.0769371
0.0736821
0.0705371
0.0674997
0.0645678
0.0617391
0.0590113
0.056382
0.0538491
0.0514101
0.049063
0.0468056
0.0446356
0.0425512
0.0405502
0.0386308
0.0367912
0.0350295
0.0333441
0.0317331
0.0301951
0.0287283
0.027331
0.0260016
0.0247381
0.0235388
0.0224018
0.0213249
0.0203061
0.0193433
0.0184343
0.0175769
0.0167692
0.0160094
0.0152955
0.0146262
0.014
0.0134156
0.0128719
0.0123677
0.0119017
0.0114725
0.0110787
0.0107183
0.0103897
0.0100906
0.00981889
0.00957231
0.00934856
0.00914539
0.00896057
0.008792
0.00863771
0.00849585
0.00836474
0.00824287
0.00812887
0.00802154
0.00791981
0.00782277
0.00772961
0.00763965
0.00755232
0.00746712
0.00738364
0.00730154
0.00722055
0.00714043
0.00706101
0.00698215
0.00690372
0.00682565
0.00674788
0.00667035
0.00659305
0.00651596
0.00643906
0.00636238
0.00628591
0.00620967
0.00613368
0.00605796
0.00598253
0.00590742
0.00583264
0.00575824
0.00568422
0.00561062
0.00553745
0.00546475
0.00539253
0.0053208
0.0052496
0.00517893
0.00510882
0.00503927
0.00497031
0.00490195
0.0048342
0.00476706
0.00470055
0.00463467
0.00456943
0.00450485
0.00444091
0.00437763
0.00431501
0.00425305
0.00419174
0.0041311
0.00407112
0.00401179
0.00395312
0.00389511
0.00383775
0.00378105
0.00372499
0.00366958
0.00361481
0.00356067
0.00350716
0.00345428
0.00340203
0.00335039
0.00329937
0.00324895
0.00319913
0.00314991
0.00310127
0.00305321
0.00300572
0.00295879
0.00291243
0.00286661
0.00282134
0.00277661
0.00273241
0.00268872
0.00264555
0.00260289
0.00256073
0.00251907
0.00247789
0.00243719
0.00239696
0.00235719
0.00231788
0.00227902
0.00224059
0.0022026
0.00216504
0.0021279
0.00209117
0.00205484
0.00201892
0.00198338
0.00194822
0.00191345
0.00187904
0.00184501
0.00181133
0.001778
0.00174502
0.00171238
0.00168007
0.00164808
0.00161642
0.00158508
0.00155404
0.00152331
0.00149288
0.00146274
0.00143289
0.00140331
0.001374
0.00134496
0.00131618
0.00128765
0.00125937
0.00123134
0.00120355
0.001176
0.00114867
0.00112157
0.00109468
0.00106801
0.00104155
0.00101528
0.000989214
0.000963338
0.000937649
0.000912142
0.000886811
0.000861652
0.000836659
0.000811827
0.000787151
0.000762625
0.000738243
0.000714001
0.000689893
0.000665915
0.000642064
0.000618334
0.000594721
0.000571223
0.000547834
0.000524551
0.000501367
0.00047828
0.000455283
0.000432372
0.000409542
0.00038679
0.000364111
0.000341503
0.000318961
0.000296482
0.000274063
0.000251697
0.000229381
0.00020711
0.000184879
0.000162685
0.000140524
0.000118385
9.62942e-05
7.41427e-05
5.23354e-05
2.96974e-05
1.17838e-05
76.4835
77.917
79.3968
82.0162
83.1596
84.1486
85.5927
87.4361
89.355
91.2392
93.2369
95.4199
97.6954
99.8569
101.724
103.208
104.245
104.803
104.894
104.549
103.809
102.719
101.318
99.6403
97.7176
95.5817
93.2641
90.7965
88.2097
85.5329
82.793
80.0145
77.2189
74.4253
71.6502
68.9072
66.2079
63.5617
60.9759
58.4563
56.007
53.6311
51.3306
49.1064
46.9591
44.8885
42.894
40.9745
39.129
37.3558
35.6535
34.0202
32.4541
30.9534
29.516
28.14
26.8235
25.5644
24.3608
23.2108
22.1124
21.0637
20.0629
19.1081
18.1976
17.3296
16.5024
15.7143
14.9637
14.2491
13.5689
12.9217
12.306
11.7204
11.1637
10.6345
10.1315
9.6536
9.19956
8.76827
8.35864
7.96962
7.60019
7.24941
6.91635
6.60012
6.2999
6.01488
5.7443
5.48746
5.24366
5.01227
4.79266
4.58425
4.38649
4.19885
4.02083
3.85195
3.69175
3.53979
3.39567
3.25898
3.12934
3.00638
2.88977
2.77915
2.67422
2.57466
2.48018
2.39049
2.30532
2.22442
2.14754
2.07442
2.00487
1.93864
1.87555
1.8154
1.758
1.70319
1.6508
1.60068
1.55269
1.5067
1.46259
1.42025
1.37956
1.34043
1.30278
1.26651
1.23155
1.19783
1.16528
1.13384
1.10345
1.07406
1.0456
1.01805
0.991338
0.965437
0.940303
0.915898
0.892186
0.869133
0.846709
0.824885
0.803632
0.782926
0.762742
0.74306
0.723857
0.705117
0.686821
0.668954
0.651501
0.634448
0.617784
0.601497
0.585576
0.570011
0.554794
0.539916
0.525369
0.511146
0.497239
0.483641
0.470347
0.45735
0.444644
0.432223
0.420081
0.408213
0.396613
0.385276
0.374197
0.36337
0.35279
0.342453
0.332353
0.322486
0.312846
0.30343
0.294233
0.28525
0.276478
0.267911
0.259546
0.251379
0.243407
0.235625
0.22803
0.220618
0.213387
0.206332
0.199451
0.192741
0.186199
0.179821
0.173606
0.16755
0.16165
0.155906
0.150312
0.144869
0.139572
0.13442
0.129411
0.124541
0.11981
0.115215
0.110753
0.106423
0.102222
0.098149
0.0942008
0.0903758
0.0866718
0.0830867
0.0796182
0.0762642
0.0730225
0.0698909
0.066867
0.0639486
0.0611334
0.0584189
0.055803
0.0532832
0.0508573
0.0485229
0.0462779
0.0441202
0.0420477
0.0400583
0.0381502
0.0363216
0.0345707
0.032896
0.0312956
0.0297682
0.028312
0.0269255
0.025607
0.0243547
0.0231669
0.0220415
0.0209765
0.0199696
0.0190186
0.0181212
0.0172752
0.0164783
0.0157287
0.0150246
0.0143646
0.0137472
0.0131716
0.0126365
0.0121412
0.0116845
0.0112652
0.0108817
0.0105324
0.0102153
0.00992821
0.00966874
0.00943447
0.00922294
0.0090317
0.00885841
0.00870083
0.00855688
0.00842465
0.00830242
0.00818865
0.00808197
0.00798121
0.00788533
0.00779345
0.00770481
0.00761878
0.00753485
0.00745256
0.00737156
0.00729156
0.00721232
0.00713366
0.00705544
0.00697755
0.0068999
0.00682245
0.00674515
0.00666798
0.00659093
0.00651401
0.00643723
0.00636059
0.00628413
0.00620786
0.00613181
0.00605601
0.00598048
0.00590526
0.00583037
0.00575584
0.0056817
0.00560798
0.0055347
0.00546188
0.00538955
0.00531772
0.00524641
0.00517565
0.00510545
0.00503582
0.00496679
0.00489836
0.00483054
0.00476335
0.00469679
0.00463087
0.0045656
0.00450099
0.00443703
0.00437373
0.00431109
0.00424912
0.00418781
0.00412717
0.00406718
0.00400786
0.00394921
0.00389121
0.00383387
0.00377718
0.00372115
0.00366576
0.00361101
0.0035569
0.00350342
0.00345057
0.00339835
0.00334675
0.00329576
0.00324538
0.0031956
0.00314641
0.00309781
0.00304979
0.00300234
0.00295546
0.00290913