/*--------------------------------*- C++ -*----------------------------------*\
| =========                 |                                                 |
| \\      /  F ield         | OpenFOAM: The Open Source CFD Toolbox           |
|  \\    /   O peration     | Version:  v2006                                 |
|   \\  /    A nd           | Website:  www.openfoam.com                      |
|    \\/     M anipulation  |                                                 |
\*---------------------------------------------------------------------------*/
FoamFile
{
    version     2.0;
    format      ascii;
    class       volVectorField;
    location    "0";
    object      U_new;
}
// * * * * * * * * * * * * * * * * * * * * * * * * * * * * * * * * * * * * * //

dimensions      [0 1 -1 0 0 0 0];


internalField   nonuniform List<vector> 
2500
(
(0.0006 -0.045 0)
(0.0006 -0.135 0)
(0.0006 -0.225 0)
(0.0006 -0.315 0)
(0.0006 -0.405 0)
(0.0006 -0.495 0)
(0.0006 -0.585 0)
(0.0006 -0.675 0)
(0.0006 -0.765 0)
(0.0006 -0.855 0)
(0.0006 -0.945 0)
(0.0006 -1.035 0)
(0.0006 -1.125 0)
(0.0006 -1.215 0)
(0.0006 -1.305 0)
(0.0006 -1.395 0)
(0.0006 -1.485 0)
(0.0006 -1.575 0)
(0.0006 -1.665 0)
(0.0006 -1.755 0)
(0.0006 -1.845 0)
(0.0006 -1.935 0)
(0.0006 -2.025 0)
(0.0006 -2.115 0)
(0.0006 -2.205 0)
(0.0006 -2.295 0)
(0.0006 -2.385 0)
(0.0006 -2.475 0)
(0.0006 -2.565 0)
(0.0006 -2.655 0)
(0.0006 -2.745 0)
(0.0006 -2.835 0)
(0.0006 -2.925 0)
(0.0006 -3.015 0)
(0.0006 -3.105 0)
(0.0006 -3.195 0)
(0.0006 -3.285 0)
(0.0006 -3.375 0)
(0.0006 -3.465 0)
(0.0006 -3.555 0)
(0.0006 -3.645 0)
(0.0006 -3.735 0)
(0.0006 -3.825 0)
(0.0006 -3.915 0)
(0.0006 -4.005 0)
(0.0006 -4.095 0)
(0.0006 -4.185 0)
(0.0006 -4.275 0)
(0.0006 -4.365 0)
(0.0006 -4.455 0)
(0.0054 -0.045 0)
(0.0054 -0.135 0)
(0.0054 -0.225 0)
(0.0054 -0.315 0)
(0.0054 -0.405 0)
(0.0054 -0.495 0)
(0.0054 -0.585 0)
(0.0054 -0.675 0)
(0.0054 -0.765 0)
(0.0054 -0.855 0)
(0.0054 -0.945 0)
(0.0054 -1.035 0)
(0.0054 -1.125 0)
(0.0054 -1.215 0)
(0.0054 -1.305 0)
(0.0054 -1.395 0)
(0.0054 -1.485 0)
(0.0054 -1.575 0)
(0.0054 -1.665 0)
(0.0054 -1.755 0)
(0.0054 -1.845 0)
(0.0054 -1.935 0)
(0.0054 -2.025 0)
(0.0054 -2.115 0)
(0.0054 -2.205 0)
(0.0054 -2.295 0)
(0.0054 -2.385 0)
(0.0054 -2.475 0)
(0.0054 -2.565 0)
(0.0054 -2.655 0)
(0.0054 -2.745 0)
(0.0054 -2.835 0)
(0.0054 -2.925 0)
(0.0054 -3.015 0)
(0.0054 -3.105 0)
(0.0054 -3.195 0)
(0.0054 -3.285 0)
(0.0054 -3.375 0)
(0.0054 -3.465 0)
(0.0054 -3.555 0)
(0.0054 -3.645 0)
(0.0054 -3.735 0)
(0.0054 -3.825 0)
(0.0054 -3.915 0)
(0.0054 -4.005 0)
(0.0054 -4.095 0)
(0.0054 -4.185 0)
(0.0054 -4.275 0)
(0.0054 -4.365 0)
(0.0054 -4.455 0)
(0.015 -0.045 0)
(0.015 -0.135 0)
(0.015 -0.225 0)
(0.015 -0.315 0)
(0.015 -0.405 0)
(0.015 -0.495 0)
(0.015 -0.585 0)
(0.015 -0.675 0)
(0.015 -0.765 0)
(0.015 -0.855 0)
(0.015 -0.945 0)
(0.015 -1.035 0)
(0.015 -1.125 0)
(0.015 -1.215 0)
(0.015 -1.305 0)
(0.015 -1.395 0)
(0.015 -1.485 0)
(0.015 -1.575 0)
(0.015 -1.665 0)
(0.015 -1.755 0)
(0.015 -1.845 0)
(0.015 -1.935 0)
(0.015 -2.025 0)
(0.015 -2.115 0)
(0.015 -2.205 0)
(0.015 -2.295 0)
(0.015 -2.385 0)
(0.015 -2.475 0)
(0.015 -2.565 0)
(0.015 -2.655 0)
(0.015 -2.745 0)
(0.015 -2.835 0)
(0.015 -2.925 0)
(0.015 -3.015 0)
(0.015 -3.105 0)
(0.015 -3.195 0)
(0.015 -3.285 0)
(0.015 -3.375 0)
(0.015 -3.465 0)
(0.015 -3.555 0)
(0.015 -3.645 0)
(0.015 -3.735 0)
(0.015 -3.825 0)
(0.015 -3.915 0)
(0.015 -4.005 0)
(0.015 -4.095 0)
(0.015 -4.185 0)
(0.015 -4.275 0)
(0.015 -4.365 0)
(0.015 -4.455 0)
(0.0294 -0.045 0)
(0.0294 -0.135 0)
(0.0294 -0.225 0)
(0.0294 -0.315 0)
(0.0294 -0.405 0)
(0.0294 -0.495 0)
(0.0294 -0.585 0)
(0.0294 -0.675 0)
(0.0294 -0.765 0)
(0.0294 -0.855 0)
(0.0294 -0.945 0)
(0.0294 -1.035 0)
(0.0294 -1.125 0)
(0.0294 -1.215 0)
(0.0294 -1.305 0)
(0.0294 -1.395 0)
(0.0294 -1.485 0)
(0.0294 -1.575 0)
(0.0294 -1.665 0)
(0.0294 -1.755 0)
(0.0294 -1.845 0)
(0.0294 -1.935 0)
(0.0294 -2.025 0)
(0.0294 -2.115 0)
(0.0294 -2.205 0)
(0.0294 -2.295 0)
(0.0294 -2.385 0)
(0.0294 -2.475 0)
(0.0294 -2.565 0)
(0.0294 -2.655 0)
(0.0294 -2.745 0)
(0.0294 -2.835 0)
(0.0294 -2.925 0)
(0.0294 -3.015 0)
(0.0294 -3.105 0)
(0.0294 -3.195 0)
(0.0294 -3.285 0)
(0.0294 -3.375 0)
(0.0294 -3.465 0)
(0.0294 -3.555 0)
(0.0294 -3.645 0)
(0.0294 -3.735 0)
(0.0294 -3.825 0)
(0.0294 -3.915 0)
(0.0294 -4.005 0)
(0.0294 -4.095 0)
(0.0294 -4.185 0)
(0.0294 -4.275 0)
(0.0294 -4.365 0)
(0.0294 -4.455 0)
(0.0486 -0.045 0)
(0.0486 -0.135 0)
(0.0486 -0.225 0)
(0.0486 -0.315 0)
(0.0486 -0.405 0)
(0.0486 -0.495 0)
(0.0486 -0.585 0)
(0.0486 -0.675 0)
(0.0486 -0.765 0)
(0.0486 -0.855 0)
(0.0486 -0.945 0)
(0.0486 -1.035 0)
(0.0486 -1.125 0)
(0.0486 -1.215 0)
(0.0486 -1.305 0)
(0.0486 -1.395 0)
(0.0486 -1.485 0)
(0.0486 -1.575 0)
(0.0486 -1.665 0)
(0.0486 -1.755 0)
(0.0486 -1.845 0)
(0.0486 -1.935 0)
(0.0486 -2.025 0)
(0.0486 -2.115 0)
(0.0486 -2.205 0)
(0.0486 -2.295 0)
(0.0486 -2.385 0)
(0.0486 -2.475 0)
(0.0486 -2.565 0)
(0.0486 -2.655 0)
(0.0486 -2.745 0)
(0.0486 -2.835 0)
(0.0486 -2.925 0)
(0.0486 -3.015 0)
(0.0486 -3.105 0)
(0.0486 -3.195 0)
(0.0486 -3.285 0)
(0.0486 -3.375 0)
(0.0486 -3.465 0)
(0.0486 -3.555 0)
(0.0486 -3.645 0)
(0.0486 -3.735 0)
(0.0486 -3.825 0)
(0.0486 -3.915 0)
(0.0486 -4.005 0)
(0.0486 -4.095 0)
(0.0486 -4.185 0)
(0.0486 -4.275 0)
(0.0486 -4.365 0)
(0.0486 -4.455 0)
(0.0726 -0.045 0)
(0.0726 -0.135 0)
(0.0726 -0.225 0)
(0.0726 -0.315 0)
(0.0726 -0.405 0)
(0.0726 -0.495 0)
(0.0726 -0.585 0)
(0.0726 -0.675 0)
(0.0726 -0.765 0)
(0.0726 -0.855 0)
(0.0726 -0.945 0)
(0.0726 -1.035 0)
(0.0726 -1.125 0)
(0.0726 -1.215 0)
(0.0726 -1.305 0)
(0.0726 -1.395 0)
(0.0726 -1.485 0)
(0.0726 -1.575 0)
(0.0726 -1.665 0)
(0.0726 -1.755 0)
(0.0726 -1.845 0)
(0.0726 -1.935 0)
(0.0726 -2.025 0)
(0.0726 -2.115 0)
(0.0726 -2.205 0)
(0.0726 -2.295 0)
(0.0726 -2.385 0)
(0.0726 -2.475 0)
(0.0726 -2.565 0)
(0.0726 -2.655 0)
(0.0726 -2.745 0)
(0.0726 -2.835 0)
(0.0726 -2.925 0)
(0.0726 -3.015 0)
(0.0726 -3.105 0)
(0.0726 -3.195 0)
(0.0726 -3.285 0)
(0.0726 -3.375 0)
(0.0726 -3.465 0)
(0.0726 -3.555 0)
(0.0726 -3.645 0)
(0.0726 -3.735 0)
(0.0726 -3.825 0)
(0.0726 -3.915 0)
(0.0726 -4.005 0)
(0.0726 -4.095 0)
(0.0726 -4.185 0)
(0.0726 -4.275 0)
(0.0726 -4.365 0)
(0.0726 -4.455 0)
(0.1014 -0.045 0)
(0.1014 -0.135 0)
(0.1014 -0.225 0)
(0.1014 -0.315 0)
(0.1014 -0.405 0)
(0.1014 -0.495 0)
(0.1014 -0.585 0)
(0.1014 -0.675 0)
(0.1014 -0.765 0)
(0.1014 -0.855 0)
(0.1014 -0.945 0)
(0.1014 -1.035 0)
(0.1014 -1.125 0)
(0.1014 -1.215 0)
(0.1014 -1.305 0)
(0.1014 -1.395 0)
(0.1014 -1.485 0)
(0.1014 -1.575 0)
(0.1014 -1.665 0)
(0.1014 -1.755 0)
(0.1014 -1.845 0)
(0.1014 -1.935 0)
(0.1014 -2.025 0)
(0.1014 -2.115 0)
(0.1014 -2.205 0)
(0.1014 -2.295 0)
(0.1014 -2.385 0)
(0.1014 -2.475 0)
(0.1014 -2.565 0)
(0.1014 -2.655 0)
(0.1014 -2.745 0)
(0.1014 -2.835 0)
(0.1014 -2.925 0)
(0.1014 -3.015 0)
(0.1014 -3.105 0)
(0.1014 -3.195 0)
(0.1014 -3.285 0)
(0.1014 -3.375 0)
(0.1014 -3.465 0)
(0.1014 -3.555 0)
(0.1014 -3.645 0)
(0.1014 -3.735 0)
(0.1014 -3.825 0)
(0.1014 -3.915 0)
(0.1014 -4.005 0)
(0.1014 -4.095 0)
(0.1014 -4.185 0)
(0.1014 -4.275 0)
(0.1014 -4.365 0)
(0.1014 -4.455 0)
(0.135 -0.045 0)
(0.135 -0.135 0)
(0.135 -0.225 0)
(0.135 -0.315 0)
(0.135 -0.405 0)
(0.135 -0.495 0)
(0.135 -0.585 0)
(0.135 -0.675 0)
(0.135 -0.765 0)
(0.135 -0.855 0)
(0.135 -0.945 0)
(0.135 -1.035 0)
(0.135 -1.125 0)
(0.135 -1.215 0)
(0.135 -1.305 0)
(0.135 -1.395 0)
(0.135 -1.485 0)
(0.135 -1.575 0)
(0.135 -1.665 0)
(0.135 -1.755 0)
(0.135 -1.845 0)
(0.135 -1.935 0)
(0.135 -2.025 0)
(0.135 -2.115 0)
(0.135 -2.205 0)
(0.135 -2.295 0)
(0.135 -2.385 0)
(0.135 -2.475 0)
(0.135 -2.565 0)
(0.135 -2.655 0)
(0.135 -2.745 0)
(0.135 -2.835 0)
(0.135 -2.925 0)
(0.135 -3.015 0)
(0.135 -3.105 0)
(0.135 -3.195 0)
(0.135 -3.285 0)
(0.135 -3.375 0)
(0.135 -3.465 0)
(0.135 -3.555 0)
(0.135 -3.645 0)
(0.135 -3.735 0)
(0.135 -3.825 0)
(0.135 -3.915 0)
(0.135 -4.005 0)
(0.135 -4.095 0)
(0.135 -4.185 0)
(0.135 -4.275 0)
(0.135 -4.365 0)
(0.135 -4.455 0)
(0.1734 -0.045 0)
(0.1734 -0.135 0)
(0.1734 -0.225 0)
(0.1734 -0.315 0)
(0.1734 -0.405 0)
(0.1734 -0.495 0)
(0.1734 -0.585 0)
(0.1734 -0.675 0)
(0.1734 -0.765 0)
(0.1734 -0.855 0)
(0.1734 -0.945 0)
(0.1734 -1.035 0)
(0.1734 -1.125 0)
(0.1734 -1.215 0)
(0.1734 -1.305 0)
(0.1734 -1.395 0)
(0.1734 -1.485 0)
(0.1734 -1.575 0)
(0.1734 -1.665 0)
(0.1734 -1.755 0)
(0.1734 -1.845 0)
(0.1734 -1.935 0)
(0.1734 -2.025 0)
(0.1734 -2.115 0)
(0.1734 -2.205 0)
(0.1734 -2.295 0)
(0.1734 -2.385 0)
(0.1734 -2.475 0)
(0.1734 -2.565 0)
(0.1734 -2.655 0)
(0.1734 -2.745 0)
(0.1734 -2.835 0)
(0.1734 -2.925 0)
(0.1734 -3.015 0)
(0.1734 -3.105 0)
(0.1734 -3.195 0)
(0.1734 -3.285 0)
(0.1734 -3.375 0)
(0.1734 -3.465 0)
(0.1734 -3.555 0)
(0.1734 -3.645 0)
(0.1734 -3.735 0)
(0.1734 -3.825 0)
(0.1734 -3.915 0)
(0.1734 -4.005 0)
(0.1734 -4.095 0)
(0.1734 -4.185 0)
(0.1734 -4.275 0)
(0.1734 -4.365 0)
(0.1734 -4.455 0)
(0.2166 -0.045 0)
(0.2166 -0.135 0)
(0.2166 -0.225 0)
(0.2166 -0.315 0)
(0.2166 -0.405 0)
(0.2166 -0.495 0)
(0.2166 -0.585 0)
(0.2166 -0.675 0)
(0.2166 -0.765 0)
(0.2166 -0.855 0)
(0.2166 -0.945 0)
(0.2166 -1.035 0)
(0.2166 -1.125 0)
(0.2166 -1.215 0)
(0.2166 -1.305 0)
(0.2166 -1.395 0)
(0.2166 -1.485 0)
(0.2166 -1.575 0)
(0.2166 -1.665 0)
(0.2166 -1.755 0)
(0.2166 -1.845 0)
(0.2166 -1.935 0)
(0.2166 -2.025 0)
(0.2166 -2.115 0)
(0.2166 -2.205 0)
(0.2166 -2.295 0)
(0.2166 -2.385 0)
(0.2166 -2.475 0)
(0.2166 -2.565 0)
(0.2166 -2.655 0)
(0.2166 -2.745 0)
(0.2166 -2.835 0)
(0.2166 -2.925 0)
(0.2166 -3.015 0)
(0.2166 -3.105 0)
(0.2166 -3.195 0)
(0.2166 -3.285 0)
(0.2166 -3.375 0)
(0.2166 -3.465 0)
(0.2166 -3.555 0)
(0.2166 -3.645 0)
(0.2166 -3.735 0)
(0.2166 -3.825 0)
(0.2166 -3.915 0)
(0.2166 -4.005 0)
(0.2166 -4.095 0)
(0.2166 -4.185 0)
(0.2166 -4.275 0)
(0.2166 -4.365 0)
(0.2166 -4.455 0)
(0.2646 -0.045 0)
(0.2646 -0.135 0)
(0.2646 -0.225 0)
(0.2646 -0.315 0)
(0.2646 -0.405 0)
(0.2646 -0.495 0)
(0.2646 -0.585 0)
(0.2646 -0.675 0)
(0.2646 -0.765 0)
(0.2646 -0.855 0)
(0.2646 -0.945 0)
(0.2646 -1.035 0)
(0.2646 -1.125 0)
(0.2646 -1.215 0)
(0.2646 -1.305 0)
(0.2646 -1.395 0)
(0.2646 -1.485 0)
(0.2646 -1.575 0)
(0.2646 -1.665 0)
(0.2646 -1.755 0)
(0.2646 -1.845 0)
(0.2646 -1.935 0)
(0.2646 -2.025 0)
(0.2646 -2.115 0)
(0.2646 -2.205 0)
(0.2646 -2.295 0)
(0.2646 -2.385 0)
(0.2646 -2.475 0)
(0.2646 -2.565 0)
(0.2646 -2.655 0)
(0.2646 -2.745 0)
(0.2646 -2.835 0)
(0.2646 -2.925 0)
(0.2646 -3.015 0)
(0.2646 -3.105 0)
(0.2646 -3.195 0)
(0.2646 -3.285 0)
(0.2646 -3.375 0)
(0.2646 -3.465 0)
(0.2646 -3.555 0)
(0.2646 -3.645 0)
(0.2646 -3.735 0)
(0.2646 -3.825 0)
(0.2646 -3.915 0)
(0.2646 -4.005 0)
(0.2646 -4.095 0)
(0.2646 -4.185 0)
(0.2646 -4.275 0)
(0.2646 -4.365 0)
(0.2646 -4.455 0)
(0.3174 -0.045 0)
(0.3174 -0.135 0)
(0.3174 -0.225 0)
(0.3174 -0.315 0)
(0.3174 -0.405 0)
(0.3174 -0.495 0)
(0.3174 -0.585 0)
(0.3174 -0.675 0)
(0.3174 -0.765 0)
(0.3174 -0.855 0)
(0.3174 -0.945 0)
(0.3174 -1.035 0)
(0.3174 -1.125 0)
(0.3174 -1.215 0)
(0.3174 -1.305 0)
(0.3174 -1.395 0)
(0.3174 -1.485 0)
(0.3174 -1.575 0)
(0.3174 -1.665 0)
(0.3174 -1.755 0)
(0.3174 -1.845 0)
(0.3174 -1.935 0)
(0.3174 -2.025 0)
(0.3174 -2.115 0)
(0.3174 -2.205 0)
(0.3174 -2.295 0)
(0.3174 -2.385 0)
(0.3174 -2.475 0)
(0.3174 -2.565 0)
(0.3174 -2.655 0)
(0.3174 -2.745 0)
(0.3174 -2.835 0)
(0.3174 -2.925 0)
(0.3174 -3.015 0)
(0.3174 -3.105 0)
(0.3174 -3.195 0)
(0.3174 -3.285 0)
(0.3174 -3.375 0)
(0.3174 -3.465 0)
(0.3174 -3.555 0)
(0.3174 -3.645 0)
(0.3174 -3.735 0)
(0.3174 -3.825 0)
(0.3174 -3.915 0)
(0.3174 -4.005 0)
(0.3174 -4.095 0)
(0.3174 -4.185 0)
(0.3174 -4.275 0)
(0.3174 -4.365 0)
(0.3174 -4.455 0)
(0.375 -0.045 0)
(0.375 -0.135 0)
(0.375 -0.225 0)
(0.375 -0.315 0)
(0.375 -0.405 0)
(0.375 -0.495 0)
(0.375 -0.585 0)
(0.375 -0.675 0)
(0.375 -0.765 0)
(0.375 -0.855 0)
(0.375 -0.945 0)
(0.375 -1.035 0)
(0.375 -1.125 0)
(0.375 -1.215 0)
(0.375 -1.305 0)
(0.375 -1.395 0)
(0.375 -1.485 0)
(0.375 -1.575 0)
(0.375 -1.665 0)
(0.375 -1.755 0)
(0.375 -1.845 0)
(0.375 -1.935 0)
(0.375 -2.025 0)
(0.375 -2.115 0)
(0.375 -2.205 0)
(0.375 -2.295 0)
(0.375 -2.385 0)
(0.375 -2.475 0)
(0.375 -2.565 0)
(0.375 -2.655 0)
(0.375 -2.745 0)
(0.375 -2.835 0)
(0.375 -2.925 0)
(0.375 -3.015 0)
(0.375 -3.105 0)
(0.375 -3.195 0)
(0.375 -3.285 0)
(0.375 -3.375 0)
(0.375 -3.465 0)
(0.375 -3.555 0)
(0.375 -3.645 0)
(0.375 -3.735 0)
(0.375 -3.825 0)
(0.375 -3.915 0)
(0.375 -4.005 0)
(0.375 -4.095 0)
(0.375 -4.185 0)
(0.375 -4.275 0)
(0.375 -4.365 0)
(0.375 -4.455 0)
(0.4374 -0.045 0)
(0.4374 -0.135 0)
(0.4374 -0.225 0)
(0.4374 -0.315 0)
(0.4374 -0.405 0)
(0.4374 -0.495 0)
(0.4374 -0.585 0)
(0.4374 -0.675 0)
(0.4374 -0.765 0)
(0.4374 -0.855 0)
(0.4374 -0.945 0)
(0.4374 -1.035 0)
(0.4374 -1.125 0)
(0.4374 -1.215 0)
(0.4374 -1.305 0)
(0.4374 -1.395 0)
(0.4374 -1.485 0)
(0.4374 -1.575 0)
(0.4374 -1.665 0)
(0.4374 -1.755 0)
(0.4374 -1.845 0)
(0.4374 -1.935 0)
(0.4374 -2.025 0)
(0.4374 -2.115 0)
(0.4374 -2.205 0)
(0.4374 -2.295 0)
(0.4374 -2.385 0)
(0.4374 -2.475 0)
(0.4374 -2.565 0)
(0.4374 -2.655 0)
(0.4374 -2.745 0)
(0.4374 -2.835 0)
(0.4374 -2.925 0)
(0.4374 -3.015 0)
(0.4374 -3.105 0)
(0.4374 -3.195 0)
(0.4374 -3.285 0)
(0.4374 -3.375 0)
(0.4374 -3.465 0)
(0.4374 -3.555 0)
(0.4374 -3.645 0)
(0.4374 -3.735 0)
(0.4374 -3.825 0)
(0.4374 -3.915 0)
(0.4374 -4.005 0)
(0.4374 -4.095 0)
(0.4374 -4.185 0)
(0.4374 -4.275 0)
(0.4374 -4.365 0)
(0.4374 -4.455 0)
(0.5046 -0.045 0)
(0.5046 -0.135 0)
(0.5046 -0.225 0)
(0.5046 -0.315 0)
(0.5046 -0.405 0)
(0.5046 -0.495 0)
(0.5046 -0.585 0)
(0.5046 -0.675 0)
(0.5046 -0.765 0)
(0.5046 -0.855 0)
(0.5046 -0.945 0)
(0.5046 -1.035 0)
(0.5046 -1.125 0)
(0.5046 -1.215 0)
(0.5046 -1.305 0)
(0.5046 -1.395 0)
(0.5046 -1.485 0)
(0.5046 -1.575 0)
(0.5046 -1.665 0)
(0.5046 -1.755 0)
(0.5046 -1.845 0)
(0.5046 -1.935 0)
(0.5046 -2.025 0)
(0.5046 -2.115 0)
(0.5046 -2.205 0)
(0.5046 -2.295 0)
(0.5046 -2.385 0)
(0.5046 -2.475 0)
(0.5046 -2.565 0)
(0.5046 -2.655 0)
(0.5046 -2.745 0)
(0.5046 -2.835 0)
(0.5046 -2.925 0)
(0.5046 -3.015 0)
(0.5046 -3.105 0)
(0.5046 -3.195 0)
(0.5046 -3.285 0)
(0.5046 -3.375 0)
(0.5046 -3.465 0)
(0.5046 -3.555 0)
(0.5046 -3.645 0)
(0.5046 -3.735 0)
(0.5046 -3.825 0)
(0.5046 -3.915 0)
(0.5046 -4.005 0)
(0.5046 -4.095 0)
(0.5046 -4.185 0)
(0.5046 -4.275 0)
(0.5046 -4.365 0)
(0.5046 -4.455 0)
(0.5766 -0.045 0)
(0.5766 -0.135 0)
(0.5766 -0.225 0)
(0.5766 -0.315 0)
(0.5766 -0.405 0)
(0.5766 -0.495 0)
(0.5766 -0.585 0)
(0.5766 -0.675 0)
(0.5766 -0.765 0)
(0.5766 -0.855 0)
(0.5766 -0.945 0)
(0.5766 -1.035 0)
(0.5766 -1.125 0)
(0.5766 -1.215 0)
(0.5766 -1.305 0)
(0.5766 -1.395 0)
(0.5766 -1.485 0)
(0.5766 -1.575 0)
(0.5766 -1.665 0)
(0.5766 -1.755 0)
(0.5766 -1.845 0)
(0.5766 -1.935 0)
(0.5766 -2.025 0)
(0.5766 -2.115 0)
(0.5766 -2.205 0)
(0.5766 -2.295 0)
(0.5766 -2.385 0)
(0.5766 -2.475 0)
(0.5766 -2.565 0)
(0.5766 -2.655 0)
(0.5766 -2.745 0)
(0.5766 -2.835 0)
(0.5766 -2.925 0)
(0.5766 -3.015 0)
(0.5766 -3.105 0)
(0.5766 -3.195 0)
(0.5766 -3.285 0)
(0.5766 -3.375 0)
(0.5766 -3.465 0)
(0.5766 -3.555 0)
(0.5766 -3.645 0)
(0.5766 -3.735 0)
(0.5766 -3.825 0)
(0.5766 -3.915 0)
(0.5766 -4.005 0)
(0.5766 -4.095 0)
(0.5766 -4.185 0)
(0.5766 -4.275 0)
(0.5766 -4.365 0)
(0.5766 -4.455 0)
(0.6534 -0.045 0)
(0.6534 -0.135 0)
(0.6534 -0.225 0)
(0.6534 -0.315 0)
(0.6534 -0.405 0)
(0.6534 -0.495 0)
(0.6534 -0.585 0)
(0.6534 -0.675 0)
(0.6534 -0.765 0)
(0.6534 -0.855 0)
(0.6534 -0.945 0)
(0.6534 -1.035 0)
(0.6534 -1.125 0)
(0.6534 -1.215 0)
(0.6534 -1.305 0)
(0.6534 -1.395 0)
(0.6534 -1.485 0)
(0.6534 -1.575 0)
(0.6534 -1.665 0)
(0.6534 -1.755 0)
(0.6534 -1.845 0)
(0.6534 -1.935 0)
(0.6534 -2.025 0)
(0.6534 -2.115 0)
(0.6534 -2.205 0)
(0.6534 -2.295 0)
(0.6534 -2.385 0)
(0.6534 -2.475 0)
(0.6534 -2.565 0)
(0.6534 -2.655 0)
(0.6534 -2.745 0)
(0.6534 -2.835 0)
(0.6534 -2.925 0)
(0.6534 -3.015 0)
(0.6534 -3.105 0)
(0.6534 -3.195 0)
(0.6534 -3.285 0)
(0.6534 -3.375 0)
(0.6534 -3.465 0)
(0.6534 -3.555 0)
(0.6534 -3.645 0)
(0.6534 -3.735 0)
(0.6534 -3.825 0)
(0.6534 -3.915 0)
(0.6534 -4.005 0)
(0.6534 -4.095 0)
(0.6534 -4.185 0)
(0.6534 -4.275 0)
(0.6534 -4.365 0)
(0.6534 -4.455 0)
(0.735 -0.045 0)
(0.735 -0.135 0)
(0.735 -0.225 0)
(0.735 -0.315 0)
(0.735 -0.405 0)
(0.735 -0.495 0)
(0.735 -0.585 0)
(0.735 -0.675 0)
(0.735 -0.765 0)
(0.735 -0.855 0)
(0.735 -0.945 0)
(0.735 -1.035 0)
(0.735 -1.125 0)
(0.735 -1.215 0)
(0.735 -1.305 0)
(0.735 -1.395 0)
(0.735 -1.485 0)
(0.735 -1.575 0)
(0.735 -1.665 0)
(0.735 -1.755 0)
(0.735 -1.845 0)
(0.735 -1.935 0)
(0.735 -2.025 0)
(0.735 -2.115 0)
(0.735 -2.205 0)
(0.735 -2.295 0)
(0.735 -2.385 0)
(0.735 -2.475 0)
(0.735 -2.565 0)
(0.735 -2.655 0)
(0.735 -2.745 0)
(0.735 -2.835 0)
(0.735 -2.925 0)
(0.735 -3.015 0)
(0.735 -3.105 0)
(0.735 -3.195 0)
(0.735 -3.285 0)
(0.735 -3.375 0)
(0.735 -3.465 0)
(0.735 -3.555 0)
(0.735 -3.645 0)
(0.735 -3.735 0)
(0.735 -3.825 0)
(0.735 -3.915 0)
(0.735 -4.005 0)
(0.735 -4.095 0)
(0.735 -4.185 0)
(0.735 -4.275 0)
(0.735 -4.365 0)
(0.735 -4.455 0)
(0.8214 -0.045 0)
(0.8214 -0.135 0)
(0.8214 -0.225 0)
(0.8214 -0.315 0)
(0.8214 -0.405 0)
(0.8214 -0.495 0)
(0.8214 -0.585 0)
(0.8214 -0.675 0)
(0.8214 -0.765 0)
(0.8214 -0.855 0)
(0.8214 -0.945 0)
(0.8214 -1.035 0)
(0.8214 -1.125 0)
(0.8214 -1.215 0)
(0.8214 -1.305 0)
(0.8214 -1.395 0)
(0.8214 -1.485 0)
(0.8214 -1.575 0)
(0.8214 -1.665 0)
(0.8214 -1.755 0)
(0.8214 -1.845 0)
(0.8214 -1.935 0)
(0.8214 -2.025 0)
(0.8214 -2.115 0)
(0.8214 -2.205 0)
(0.8214 -2.295 0)
(0.8214 -2.385 0)
(0.8214 -2.475 0)
(0.8214 -2.565 0)
(0.8214 -2.655 0)
(0.8214 -2.745 0)
(0.8214 -2.835 0)
(0.8214 -2.925 0)
(0.8214 -3.015 0)
(0.8214 -3.105 0)
(0.8214 -3.195 0)
(0.8214 -3.285 0)
(0.8214 -3.375 0)
(0.8214 -3.465 0)
(0.8214 -3.555 0)
(0.8214 -3.645 0)
(0.8214 -3.735 0)
(0.8214 -3.825 0)
(0.8214 -3.915 0)
(0.8214 -4.005 0)
(0.8214 -4.095 0)
(0.8214 -4.185 0)
(0.8214 -4.275 0)
(0.8214 -4.365 0)
(0.8214 -4.455 0)
(0.9126 -0.045 0)
(0.9126 -0.135 0)
(0.9126 -0.225 0)
(0.9126 -0.315 0)
(0.9126 -0.405 0)
(0.9126 -0.495 0)
(0.9126 -0.585 0)
(0.9126 -0.675 0)
(0.9126 -0.765 0)
(0.9126 -0.855 0)
(0.9126 -0.945 0)
(0.9126 -1.035 0)
(0.9126 -1.125 0)
(0.9126 -1.215 0)
(0.9126 -1.305 0)
(0.9126 -1.395 0)
(0.9126 -1.485 0)
(0.9126 -1.575 0)
(0.9126 -1.665 0)
(0.9126 -1.755 0)
(0.9126 -1.845 0)
(0.9126 -1.935 0)
(0.9126 -2.025 0)
(0.9126 -2.115 0)
(0.9126 -2.205 0)
(0.9126 -2.295 0)
(0.9126 -2.385 0)
(0.9126 -2.475 0)
(0.9126 -2.565 0)
(0.9126 -2.655 0)
(0.9126 -2.745 0)
(0.9126 -2.835 0)
(0.9126 -2.925 0)
(0.9126 -3.015 0)
(0.9126 -3.105 0)
(0.9126 -3.195 0)
(0.9126 -3.285 0)
(0.9126 -3.375 0)
(0.9126 -3.465 0)
(0.9126 -3.555 0)
(0.9126 -3.645 0)
(0.9126 -3.735 0)
(0.9126 -3.825 0)
(0.9126 -3.915 0)
(0.9126 -4.005 0)
(0.9126 -4.095 0)
(0.9126 -4.185 0)
(0.9126 -4.275 0)
(0.9126 -4.365 0)
(0.9126 -4.455 0)
(1.0086 -0.045 0)
(1.0086 -0.135 0)
(1.0086 -0.225 0)
(1.0086 -0.315 0)
(1.0086 -0.405 0)
(1.0086 -0.495 0)
(1.0086 -0.585 0)
(1.0086 -0.675 0)
(1.0086 -0.765 0)
(1.0086 -0.855 0)
(1.0086 -0.945 0)
(1.0086 -1.035 0)
(1.0086 -1.125 0)
(1.0086 -1.215 0)
(1.0086 -1.305 0)
(1.0086 -1.395 0)
(1.0086 -1.485 0)
(1.0086 -1.575 0)
(1.0086 -1.665 0)
(1.0086 -1.755 0)
(1.0086 -1.845 0)
(1.0086 -1.935 0)
(1.0086 -2.025 0)
(1.0086 -2.115 0)
(1.0086 -2.205 0)
(1.0086 -2.295 0)
(1.0086 -2.385 0)
(1.0086 -2.475 0)
(1.0086 -2.565 0)
(1.0086 -2.655 0)
(1.0086 -2.745 0)
(1.0086 -2.835 0)
(1.0086 -2.925 0)
(1.0086 -3.015 0)
(1.0086 -3.105 0)
(1.0086 -3.195 0)
(1.0086 -3.285 0)
(1.0086 -3.375 0)
(1.0086 -3.465 0)
(1.0086 -3.555 0)
(1.0086 -3.645 0)
(1.0086 -3.735 0)
(1.0086 -3.825 0)
(1.0086 -3.915 0)
(1.0086 -4.005 0)
(1.0086 -4.095 0)
(1.0086 -4.185 0)
(1.0086 -4.275 0)
(1.0086 -4.365 0)
(1.0086 -4.455 0)
(1.1094 -0.045 0)
(1.1094 -0.135 0)
(1.1094 -0.225 0)
(1.1094 -0.315 0)
(1.1094 -0.405 0)
(1.1094 -0.495 0)
(1.1094 -0.585 0)
(1.1094 -0.675 0)
(1.1094 -0.765 0)
(1.1094 -0.855 0)
(1.1094 -0.945 0)
(1.1094 -1.035 0)
(1.1094 -1.125 0)
(1.1094 -1.215 0)
(1.1094 -1.305 0)
(1.1094 -1.395 0)
(1.1094 -1.485 0)
(1.1094 -1.575 0)
(1.1094 -1.665 0)
(1.1094 -1.755 0)
(1.1094 -1.845 0)
(1.1094 -1.935 0)
(1.1094 -2.025 0)
(1.1094 -2.115 0)
(1.1094 -2.205 0)
(1.1094 -2.295 0)
(1.1094 -2.385 0)
(1.1094 -2.475 0)
(1.1094 -2.565 0)
(1.1094 -2.655 0)
(1.1094 -2.745 0)
(1.1094 -2.835 0)
(1.1094 -2.925 0)
(1.1094 -3.015 0)
(1.1094 -3.105 0)
(1.1094 -3.195 0)
(1.1094 -3.285 0)
(1.1094 -3.375 0)
(1.1094 -3.465 0)
(1.1094 -3.555 0)
(1.1094 -3.645 0)
(1.1094 -3.735 0)
(1.1094 -3.825 0)
(1.1094 -3.915 0)
(1.1094 -4.005 0)
(1.1094 -4.095 0)
(1.1094 -4.185 0)
(1.1094 -4.275 0)
(1.1094 -4.365 0)
(1.1094 -4.455 0)
(1.215 -0.045 0)
(1.215 -0.135 0)
(1.215 -0.225 0)
(1.215 -0.315 0)
(1.215 -0.405 0)
(1.215 -0.495 0)
(1.215 -0.585 0)
(1.215 -0.675 0)
(1.215 -0.765 0)
(1.215 -0.855 0)
(1.215 -0.945 0)
(1.215 -1.035 0)
(1.215 -1.125 0)
(1.215 -1.215 0)
(1.215 -1.305 0)
(1.215 -1.395 0)
(1.215 -1.485 0)
(1.215 -1.575 0)
(1.215 -1.665 0)
(1.215 -1.755 0)
(1.215 -1.845 0)
(1.215 -1.935 0)
(1.215 -2.025 0)
(1.215 -2.115 0)
(1.215 -2.205 0)
(1.215 -2.295 0)
(1.215 -2.385 0)
(1.215 -2.475 0)
(1.215 -2.565 0)
(1.215 -2.655 0)
(1.215 -2.745 0)
(1.215 -2.835 0)
(1.215 -2.925 0)
(1.215 -3.015 0)
(1.215 -3.105 0)
(1.215 -3.195 0)
(1.215 -3.285 0)
(1.215 -3.375 0)
(1.215 -3.465 0)
(1.215 -3.555 0)
(1.215 -3.645 0)
(1.215 -3.735 0)
(1.215 -3.825 0)
(1.215 -3.915 0)
(1.215 -4.005 0)
(1.215 -4.095 0)
(1.215 -4.185 0)
(1.215 -4.275 0)
(1.215 -4.365 0)
(1.215 -4.455 0)
(1.3254 -0.045 0)
(1.3254 -0.135 0)
(1.3254 -0.225 0)
(1.3254 -0.315 0)
(1.3254 -0.405 0)
(1.3254 -0.495 0)
(1.3254 -0.585 0)
(1.3254 -0.675 0)
(1.3254 -0.765 0)
(1.3254 -0.855 0)
(1.3254 -0.945 0)
(1.3254 -1.035 0)
(1.3254 -1.125 0)
(1.3254 -1.215 0)
(1.3254 -1.305 0)
(1.3254 -1.395 0)
(1.3254 -1.485 0)
(1.3254 -1.575 0)
(1.3254 -1.665 0)
(1.3254 -1.755 0)
(1.3254 -1.845 0)
(1.3254 -1.935 0)
(1.3254 -2.025 0)
(1.3254 -2.115 0)
(1.3254 -2.205 0)
(1.3254 -2.295 0)
(1.3254 -2.385 0)
(1.3254 -2.475 0)
(1.3254 -2.565 0)
(1.3254 -2.655 0)
(1.3254 -2.745 0)
(1.3254 -2.835 0)
(1.3254 -2.925 0)
(1.3254 -3.015 0)
(1.3254 -3.105 0)
(1.3254 -3.195 0)
(1.3254 -3.285 0)
(1.3254 -3.375 0)
(1.3254 -3.465 0)
(1.3254 -3.555 0)
(1.3254 -3.645 0)
(1.3254 -3.735 0)
(1.3254 -3.825 0)
(1.3254 -3.915 0)
(1.3254 -4.005 0)
(1.3254 -4.095 0)
(1.3254 -4.185 0)
(1.3254 -4.275 0)
(1.3254 -4.365 0)
(1.3254 -4.455 0)
(1.4406 -0.045 0)
(1.4406 -0.135 0)
(1.4406 -0.225 0)
(1.4406 -0.315 0)
(1.4406 -0.405 0)
(1.4406 -0.495 0)
(1.4406 -0.585 0)
(1.4406 -0.675 0)
(1.4406 -0.765 0)
(1.4406 -0.855 0)
(1.4406 -0.945 0)
(1.4406 -1.035 0)
(1.4406 -1.125 0)
(1.4406 -1.215 0)
(1.4406 -1.305 0)
(1.4406 -1.395 0)
(1.4406 -1.485 0)
(1.4406 -1.575 0)
(1.4406 -1.665 0)
(1.4406 -1.755 0)
(1.4406 -1.845 0)
(1.4406 -1.935 0)
(1.4406 -2.025 0)
(1.4406 -2.115 0)
(1.4406 -2.205 0)
(1.4406 -2.295 0)
(1.4406 -2.385 0)
(1.4406 -2.475 0)
(1.4406 -2.565 0)
(1.4406 -2.655 0)
(1.4406 -2.745 0)
(1.4406 -2.835 0)
(1.4406 -2.925 0)
(1.4406 -3.015 0)
(1.4406 -3.105 0)
(1.4406 -3.195 0)
(1.4406 -3.285 0)
(1.4406 -3.375 0)
(1.4406 -3.465 0)
(1.4406 -3.555 0)
(1.4406 -3.645 0)
(1.4406 -3.735 0)
(1.4406 -3.825 0)
(1.4406 -3.915 0)
(1.4406 -4.005 0)
(1.4406 -4.095 0)
(1.4406 -4.185 0)
(1.4406 -4.275 0)
(1.4406 -4.365 0)
(1.4406 -4.455 0)
(1.5606 -0.045 0)
(1.5606 -0.135 0)
(1.5606 -0.225 0)
(1.5606 -0.315 0)
(1.5606 -0.405 0)
(1.5606 -0.495 0)
(1.5606 -0.585 0)
(1.5606 -0.675 0)
(1.5606 -0.765 0)
(1.5606 -0.855 0)
(1.5606 -0.945 0)
(1.5606 -1.035 0)
(1.5606 -1.125 0)
(1.5606 -1.215 0)
(1.5606 -1.305 0)
(1.5606 -1.395 0)
(1.5606 -1.485 0)
(1.5606 -1.575 0)
(1.5606 -1.665 0)
(1.5606 -1.755 0)
(1.5606 -1.845 0)
(1.5606 -1.935 0)
(1.5606 -2.025 0)
(1.5606 -2.115 0)
(1.5606 -2.205 0)
(1.5606 -2.295 0)
(1.5606 -2.385 0)
(1.5606 -2.475 0)
(1.5606 -2.565 0)
(1.5606 -2.655 0)
(1.5606 -2.745 0)
(1.5606 -2.835 0)
(1.5606 -2.925 0)
(1.5606 -3.015 0)
(1.5606 -3.105 0)
(1.5606 -3.195 0)
(1.5606 -3.285 0)
(1.5606 -3.375 0)
(1.5606 -3.465 0)
(1.5606 -3.555 0)
(1.5606 -3.645 0)
(1.5606 -3.735 0)
(1.5606 -3.825 0)
(1.5606 -3.915 0)
(1.5606 -4.005 0)
(1.5606 -4.095 0)
(1.5606 -4.185 0)
(1.5606 -4.275 0)
(1.5606 -4.365 0)
(1.5606 -4.455 0)
(1.6854 -0.045 0)
(1.6854 -0.135 0)
(1.6854 -0.225 0)
(1.6854 -0.315 0)
(1.6854 -0.405 0)
(1.6854 -0.495 0)
(1.6854 -0.585 0)
(1.6854 -0.675 0)
(1.6854 -0.765 0)
(1.6854 -0.855 0)
(1.6854 -0.945 0)
(1.6854 -1.035 0)
(1.6854 -1.125 0)
(1.6854 -1.215 0)
(1.6854 -1.305 0)
(1.6854 -1.395 0)
(1.6854 -1.485 0)
(1.6854 -1.575 0)
(1.6854 -1.665 0)
(1.6854 -1.755 0)
(1.6854 -1.845 0)
(1.6854 -1.935 0)
(1.6854 -2.025 0)
(1.6854 -2.115 0)
(1.6854 -2.205 0)
(1.6854 -2.295 0)
(1.6854 -2.385 0)
(1.6854 -2.475 0)
(1.6854 -2.565 0)
(1.6854 -2.655 0)
(1.6854 -2.745 0)
(1.6854 -2.835 0)
(1.6854 -2.925 0)
(1.6854 -3.015 0)
(1.6854 -3.105 0)
(1.6854 -3.195 0)
(1.6854 -3.285 0)
(1.6854 -3.375 0)
(1.6854 -3.465 0)
(1.6854 -3.555 0)
(1.6854 -3.645 0)
(1.6854 -3.735 0)
(1.6854 -3.825 0)
(1.6854 -3.915 0)
(1.6854 -4.005 0)
(1.6854 -4.095 0)
(1.6854 -4.185 0)
(1.6854 -4.275 0)
(1.6854 -4.365 0)
(1.6854 -4.455 0)
(1.815 -0.045 0)
(1.815 -0.135 0)
(1.815 -0.225 0)
(1.815 -0.315 0)
(1.815 -0.405 0)
(1.815 -0.495 0)
(1.815 -0.585 0)
(1.815 -0.675 0)
(1.815 -0.765 0)
(1.815 -0.855 0)
(1.815 -0.945 0)
(1.815 -1.035 0)
(1.815 -1.125 0)
(1.815 -1.215 0)
(1.815 -1.305 0)
(1.815 -1.395 0)
(1.815 -1.485 0)
(1.815 -1.575 0)
(1.815 -1.665 0)
(1.815 -1.755 0)
(1.815 -1.845 0)
(1.815 -1.935 0)
(1.815 -2.025 0)
(1.815 -2.115 0)
(1.815 -2.205 0)
(1.815 -2.295 0)
(1.815 -2.385 0)
(1.815 -2.475 0)
(1.815 -2.565 0)
(1.815 -2.655 0)
(1.815 -2.745 0)
(1.815 -2.835 0)
(1.815 -2.925 0)
(1.815 -3.015 0)
(1.815 -3.105 0)
(1.815 -3.195 0)
(1.815 -3.285 0)
(1.815 -3.375 0)
(1.815 -3.465 0)
(1.815 -3.555 0)
(1.815 -3.645 0)
(1.815 -3.735 0)
(1.815 -3.825 0)
(1.815 -3.915 0)
(1.815 -4.005 0)
(1.815 -4.095 0)
(1.815 -4.185 0)
(1.815 -4.275 0)
(1.815 -4.365 0)
(1.815 -4.455 0)
(1.9494 -0.045 0)
(1.9494 -0.135 0)
(1.9494 -0.225 0)
(1.9494 -0.315 0)
(1.9494 -0.405 0)
(1.9494 -0.495 0)
(1.9494 -0.585 0)
(1.9494 -0.675 0)
(1.9494 -0.765 0)
(1.9494 -0.855 0)
(1.9494 -0.945 0)
(1.9494 -1.035 0)
(1.9494 -1.125 0)
(1.9494 -1.215 0)
(1.9494 -1.305 0)
(1.9494 -1.395 0)
(1.9494 -1.485 0)
(1.9494 -1.575 0)
(1.9494 -1.665 0)
(1.9494 -1.755 0)
(1.9494 -1.845 0)
(1.9494 -1.935 0)
(1.9494 -2.025 0)
(1.9494 -2.115 0)
(1.9494 -2.205 0)
(1.9494 -2.295 0)
(1.9494 -2.385 0)
(1.9494 -2.475 0)
(1.9494 -2.565 0)
(1.9494 -2.655 0)
(1.9494 -2.745 0)
(1.9494 -2.835 0)
(1.9494 -2.925 0)
(1.9494 -3.015 0)
(1.9494 -3.105 0)
(1.9494 -3.195 0)
(1.9494 -3.285 0)
(1.9494 -3.375 0)
(1.9494 -3.465 0)
(1.9494 -3.555 0)
(1.9494 -3.645 0)
(1.9494 -3.735 0)
(1.9494 -3.825 0)
(1.9494 -3.915 0)
(1.9494 -4.005 0)
(1.9494 -4.095 0)
(1.9494 -4.185 0)
(1.9494 -4.275 0)
(1.9494 -4.365 0)
(1.9494 -4.455 0)
(2.0886 -0.045 0)
(2.0886 -0.135 0)
(2.0886 -0.225 0)
(2.0886 -0.315 0)
(2.0886 -0.405 0)
(2.0886 -0.495 0)
(2.0886 -0.585 0)
(2.0886 -0.675 0)
(2.0886 -0.765 0)
(2.0886 -0.855 0)
(2.0886 -0.945 0)
(2.0886 -1.035 0)
(2.0886 -1.125 0)
(2.0886 -1.215 0)
(2.0886 -1.305 0)
(2.0886 -1.395 0)
(2.0886 -1.485 0)
(2.0886 -1.575 0)
(2.0886 -1.665 0)
(2.0886 -1.755 0)
(2.0886 -1.845 0)
(2.0886 -1.935 0)
(2.0886 -2.025 0)
(2.0886 -2.115 0)
(2.0886 -2.205 0)
(2.0886 -2.295 0)
(2.0886 -2.385 0)
(2.0886 -2.475 0)
(2.0886 -2.565 0)
(2.0886 -2.655 0)
(2.0886 -2.745 0)
(2.0886 -2.835 0)
(2.0886 -2.925 0)
(2.0886 -3.015 0)
(2.0886 -3.105 0)
(2.0886 -3.195 0)
(2.0886 -3.285 0)
(2.0886 -3.375 0)
(2.0886 -3.465 0)
(2.0886 -3.555 0)
(2.0886 -3.645 0)
(2.0886 -3.735 0)
(2.0886 -3.825 0)
(2.0886 -3.915 0)
(2.0886 -4.005 0)
(2.0886 -4.095 0)
(2.0886 -4.185 0)
(2.0886 -4.275 0)
(2.0886 -4.365 0)
(2.0886 -4.455 0)
(2.2326 -0.045 0)
(2.2326 -0.135 0)
(2.2326 -0.225 0)
(2.2326 -0.315 0)
(2.2326 -0.405 0)
(2.2326 -0.495 0)
(2.2326 -0.585 0)
(2.2326 -0.675 0)
(2.2326 -0.765 0)
(2.2326 -0.855 0)
(2.2326 -0.945 0)
(2.2326 -1.035 0)
(2.2326 -1.125 0)
(2.2326 -1.215 0)
(2.2326 -1.305 0)
(2.2326 -1.395 0)
(2.2326 -1.485 0)
(2.2326 -1.575 0)
(2.2326 -1.665 0)
(2.2326 -1.755 0)
(2.2326 -1.845 0)
(2.2326 -1.935 0)
(2.2326 -2.025 0)
(2.2326 -2.115 0)
(2.2326 -2.205 0)
(2.2326 -2.295 0)
(2.2326 -2.385 0)
(2.2326 -2.475 0)
(2.2326 -2.565 0)
(2.2326 -2.655 0)
(2.2326 -2.745 0)
(2.2326 -2.835 0)
(2.2326 -2.925 0)
(2.2326 -3.015 0)
(2.2326 -3.105 0)
(2.2326 -3.195 0)
(2.2326 -3.285 0)
(2.2326 -3.375 0)
(2.2326 -3.465 0)
(2.2326 -3.555 0)
(2.2326 -3.645 0)
(2.2326 -3.735 0)
(2.2326 -3.825 0)
(2.2326 -3.915 0)
(2.2326 -4.005 0)
(2.2326 -4.095 0)
(2.2326 -4.185 0)
(2.2326 -4.275 0)
(2.2326 -4.365 0)
(2.2326 -4.455 0)
(2.3814 -0.045 0)
(2.3814 -0.135 0)
(2.3814 -0.225 0)
(2.3814 -0.315 0)
(2.3814 -0.405 0)
(2.3814 -0.495 0)
(2.3814 -0.585 0)
(2.3814 -0.675 0)
(2.3814 -0.765 0)
(2.3814 -0.855 0)
(2.3814 -0.945 0)
(2.3814 -1.035 0)
(2.3814 -1.125 0)
(2.3814 -1.215 0)
(2.3814 -1.305 0)
(2.3814 -1.395 0)
(2.3814 -1.485 0)
(2.3814 -1.575 0)
(2.3814 -1.665 0)
(2.3814 -1.755 0)
(2.3814 -1.845 0)
(2.3814 -1.935 0)
(2.3814 -2.025 0)
(2.3814 -2.115 0)
(2.3814 -2.205 0)
(2.3814 -2.295 0)
(2.3814 -2.385 0)
(2.3814 -2.475 0)
(2.3814 -2.565 0)
(2.3814 -2.655 0)
(2.3814 -2.745 0)
(2.3814 -2.835 0)
(2.3814 -2.925 0)
(2.3814 -3.015 0)
(2.3814 -3.105 0)
(2.3814 -3.195 0)
(2.3814 -3.285 0)
(2.3814 -3.375 0)
(2.3814 -3.465 0)
(2.3814 -3.555 0)
(2.3814 -3.645 0)
(2.3814 -3.735 0)
(2.3814 -3.825 0)
(2.3814 -3.915 0)
(2.3814 -4.005 0)
(2.3814 -4.095 0)
(2.3814 -4.185 0)
(2.3814 -4.275 0)
(2.3814 -4.365 0)
(2.3814 -4.455 0)
(2.535 -0.045 0)
(2.535 -0.135 0)
(2.535 -0.225 0)
(2.535 -0.315 0)
(2.535 -0.405 0)
(2.535 -0.495 0)
(2.535 -0.585 0)
(2.535 -0.675 0)
(2.535 -0.765 0)
(2.535 -0.855 0)
(2.535 -0.945 0)
(2.535 -1.035 0)
(2.535 -1.125 0)
(2.535 -1.215 0)
(2.535 -1.305 0)
(2.535 -1.395 0)
(2.535 -1.485 0)
(2.535 -1.575 0)
(2.535 -1.665 0)
(2.535 -1.755 0)
(2.535 -1.845 0)
(2.535 -1.935 0)
(2.535 -2.025 0)
(2.535 -2.115 0)
(2.535 -2.205 0)
(2.535 -2.295 0)
(2.535 -2.385 0)
(2.535 -2.475 0)
(2.535 -2.565 0)
(2.535 -2.655 0)
(2.535 -2.745 0)
(2.535 -2.835 0)
(2.535 -2.925 0)
(2.535 -3.015 0)
(2.535 -3.105 0)
(2.535 -3.195 0)
(2.535 -3.285 0)