/*--------------------------------*- C++ -*----------------------------------*\
| =========                 |                                                 |
| \\      /  F ield         | OpenFOAM: The Open Source CFD Toolbox           |
|  \\    /   O peration     | Version:  v2006                                 |
|   \\  /    A nd           | Website:  www.openfoam.com                      |
|    \\/     M anipulation  |                                                 |
\*---------------------------------------------------------------------------*/
FoamFile
{
    version     2.0;
    format      ascii;
    class       surfaceScalarField;
    location    "7.6";
    object      alphaPhi0.water;
}
// * * * * * * * * * * * * * * * * * * * * * * * * * * * * * * * * * * * * * //

dimensions      [0 3 -1 0 0 0 0];
oriented        oriented;


internalField   nonuniform List<scalar> 
104500
(
5.90408e-05
-5.90408e-05
0.000142417
-8.33764e-05
0.000224228
-8.18111e-05
0.000300681
-7.64523e-05
0.000373683
-7.30026e-05
0.000445227
-7.15441e-05
0.00051614
-7.0913e-05
0.000586476
-7.03358e-05
0.000656048
-6.95722e-05
0.000724679
-6.86306e-05
0.000792247
-6.7568e-05
0.000858667
-6.64203e-05
0.000923868
-6.52005e-05
0.00098778
-6.39122e-05
0.00105034
-6.25581e-05
0.00111148
-6.11425e-05
0.00117115
-5.96709e-05
0.0012293
-5.81493e-05
0.00128588
-5.65836e-05
0.00134086
-5.49796e-05
0.00139421
-5.33433e-05
0.00144589
-5.16807e-05
0.00149589
-4.99975e-05
0.00154418
-4.82989e-05
0.00159077
-4.65902e-05
0.00163565
-4.48763e-05
0.00167881
-4.3162e-05
0.00172026
-4.14521e-05
0.00176002
-3.97509e-05
0.00179808
-3.80624e-05
0.00183447
-3.63905e-05
0.00186921
-3.47383e-05
0.00190232
-3.31088e-05
0.00193382
-3.15045e-05
0.00196375
-2.9928e-05
0.00199213
-2.83815e-05
0.002019
-2.68669e-05
0.00204438
-2.53857e-05
0.00206832
-2.3939e-05
0.00209085
-2.25273e-05
0.002112
-2.11496e-05
0.0021318
-1.98038e-05
0.00215029
-1.84868e-05
0.00216749
-1.71969e-05
0.00218342
-1.59353e-05
0.00219813
-1.47081e-05
0.00221165
-1.35249e-05
0.00222405
-1.23962e-05
0.00223538
-1.13295e-05
0.00224571
-1.03272e-05
0.00225509
-9.38678e-06
0.0022636
-8.50375e-06
0.00227127
-7.67341e-06
0.00227816
-6.89228e-06
0.00228432
-6.15778e-06
0.00228979
-5.46747e-06
0.00229461
-4.81889e-06
0.00229882
-4.21127e-06
0.00230247
-3.64886e-06
0.00230561
-3.1443e-06
0.00230833
-2.71838e-06
0.00231072
-2.39378e-06
0.00231291
-2.18419e-06
0.00231499
-2.08419e-06
0.00231706
-2.06653e-06
0.00231915
-2.08963e-06
0.00232126
-2.11164e-06
0.00232336
-2.10352e-06
0.00232542
-2.05509e-06
0.00232739
-1.97236e-06
0.00232926
-1.86962e-06
0.00233102
-1.76148e-06
0.00233268
-1.65815e-06
0.00233425
-1.56471e-06
0.00233573
-1.48262e-06
0.00233714
-1.41103e-06
0.00233849
-1.34956e-06
0.00233979
-1.29804e-06
0.00234104
-1.25594e-06
0.00234226
-1.2223e-06
0.00234346
-1.19516e-06
0.00234463
-1.1712e-06
0.00234578
-1.15104e-06
0.00234691
-1.12706e-06
0.00234801
-1.09817e-06
0.00234908
-1.07439e-06
0.00235015
-1.0652e-06
0.00235122
-1.0733e-06
0.00235232
-1.09761e-06
0.00235345
-1.13341e-06
0.00235462
-1.17151e-06
0.00235582
-1.19866e-06
0.00235702
-1.20067e-06
0.00235819
-1.16652e-06
0.00235928
-1.09284e-06
0.00236027
-9.8533e-07
0.00236113
-8.59407e-07
0.00236186
-7.30003e-07
0.00236247
-6.16623e-07
0.002363
-5.31877e-07
0.00236348
-4.78529e-07
0.00236394
-4.5613e-07
0.0023644
-4.64053e-07
0.0023649
-4.98276e-07
0.00236545
-5.51956e-07
0.00236608
-6.24077e-07
0.00236679
-7.07784e-07
0.00236759
-8.06926e-07
0.00236851
-9.17588e-07
0.00236954
-1.03338e-06
0.0023707
-1.15478e-06
0.00237198
-1.28051e-06
0.00237339
-1.41336e-06
0.00237494
-1.55183e-06
0.00237664
-1.69582e-06
0.00237848
-1.84421e-06
0.00238048
-1.99866e-06
0.00238264
-2.15972e-06
0.00238496
-2.31795e-06
0.00238744
-2.47862e-06
0.00239008
-2.64193e-06
0.00239289
-2.80769e-06
0.00239586
-2.97376e-06
0.002399
-3.14018e-06
0.00240231
-3.30614e-06
0.00240578
-3.47145e-06
0.00240942
-3.63581e-06
0.00241321
-3.79897e-06
0.00241718
-3.9608e-06
0.0024213
-4.12121e-06
0.00242558
-4.28019e-06
0.00243001
-4.43741e-06
0.00243461
-4.59292e-06
0.00243935
-4.74663e-06
0.00244425
-4.89842e-06
0.0024493
-5.04782e-06
0.00245449
-5.19412e-06
0.00245983
-5.33637e-06
0.0024653
-5.47368e-06
0.00247091
-5.60458e-06
0.00247664
-5.72662e-06
0.00248247
-5.83564e-06
0.0024884
-5.92653e-06
0.00249439
-5.99447e-06
0.00250042
-6.02916e-06
0.00250643
-6.01033e-06
0.00251233
-5.89732e-06
0.00251797
-5.64096e-06
0.0025232
-5.22792e-06
0.00252792
-4.72114e-06
0.00253216
-4.24531e-06
0.00253608
-3.91883e-06
0.00253987
-3.78946e-06
0.0025437
-3.82475e-06
0.00254765
-3.95205e-06
0.00255176
-4.10685e-06
0.00255601
-4.25439e-06
0.0025604
-4.38705e-06
0.00256491
-4.51074e-06
0.00256954
-4.63248e-06
0.0025743
-4.75611e-06
0.00257918
-4.88267e-06
0.00258419
-5.01213e-06
0.00258934
-5.14448e-06
0.00259462
-5.28005e-06
0.00260004
-5.41962e-06
0.0026056
-5.5644e-06
0.00261132
-5.71599e-06
0.00261719
-5.87612e-06
0.00262324
-6.04627e-06
0.00262947
-6.2274e-06
0.00263589
-6.42001e-06
0.00264251
-6.62459e-06
0.00264935
-6.84194e-06
0.00265643
-7.07357e-06
0.00266375
-7.32177e-06
0.00267134
-7.58979e-06
0.00267922
-7.88156e-06
0.00268742
-8.20081e-06
0.00269597
-8.54934e-06
0.00270489
-8.92465e-06
0.00271421
-9.31793e-06
0.00272393
-9.71358e-06
0.00273402
-1.00909e-05
0.00274444
-1.0428e-05
0.00275515
-1.07068e-05
0.00276607
-1.09169e-05
0.00277713
-1.10571e-05
0.00278826
-1.11341e-05
0.00279942
-1.11596e-05
0.00281056
-1.1146e-05
0.00282167
-1.1104e-05
0.00283271
-1.10418e-05
0.00284368
-1.0965e-05
0.00285455
-1.0878e-05
0.00286534
-1.07849e-05
0.00287603
-1.06901e-05
0.00288663
-1.0599e-05
0.00289715
-1.05182e-05
0.0029076
-1.04557e-05
0.00291802
-1.04215e-05
0.00292845
-1.04289e-05
0.00293895
-1.04946e-05
0.00294958
-1.06376e-05
0.00296046
-1.08758e-05
0.00297168
-1.12187e-05
0.00298334
-1.166e-05
0.00299551
-1.21712e-05
0.00300821
-1.27017e-05
0.0030214
-1.31846e-05
0.00303495
-1.35496e-05
0.00304869
-1.37392e-05
0.00306241
-1.37223e-05
0.00307591
-1.35015e-05
0.00308902
-1.31116e-05
0.00310163
-1.26098e-05
0.00311369
-1.20607e-05
0.00312521
-1.15216e-05
0.00313624
-1.10312e-05
0.00314685
-1.06068e-05
0.0031571
-1.02462e-05
0.00316703
-9.93587e-06
0.00317669
-9.65819e-06
0.00318609
-9.39822e-06
0.00319524
-9.14651e-06
0.00320413
-8.89908e-06
0.00321279
-8.6555e-06
0.00322121
-8.41653e-06
0.00322939
-8.18226e-06
0.00323734
-7.95134e-06
0.00324506
-7.72114e-06
0.00325255
-7.48836e-06
0.0032598
-7.24984e-06
0.0032668
-7.00299e-06
0.00327355
-6.746e-06
0.00328003
-6.47775e-06
0.00328622
-6.19755e-06
0.00329213
-5.90493e-06
0.00329773
-5.59949e-06
0.00330301
-5.28084e-06
0.00330796
-4.94862e-06
0.00331256
-4.60245e-06
0.0033168
-4.242e-06
0.00332067
-3.86694e-06
0.00332415
-3.47707e-06
0.00332722
-3.07266e-06
0.00332987
-2.65294e-06
0.00333209
-2.2163e-06
0.00333385
-1.7621e-06
0.00333514
-1.28825e-06
0.00333593
-7.91816e-07
0.0033362
-2.71943e-07
0.00333593
2.73519e-07
0.00333504
8.84365e-07
0.00333351
1.52977e-06
0.0033313
2.21636e-06
0.00332835
2.94901e-06
0.00332462
3.73295e-06
0.00332004
4.57353e-06
0.00331457
5.47567e-06
0.00330812
6.44264e-06
0.00330065
7.47689e-06
0.00329207
8.5816e-06
0.00328231
9.75371e-06
0.00327134
1.097e-05
0.00325916
1.21855e-05
0.0032458
1.3354e-05
0.00323135
1.44561e-05
0.00321584
1.55098e-05
0.00319928
1.65569e-05
0.00318164
1.76391e-05
0.00316286
1.87836e-05
0.00314285
2.00027e-05
0.00312155
2.13017e-05
0.00309887
2.26858e-05
0.0030747
2.41625e-05
0.00304896
2.57405e-05
0.00302154
2.74281e-05
0.0029923
2.92318e-05
0.00296115
3.11543e-05
0.00292796
3.31931e-05
0.00289262
3.5339e-05
0.00285504
3.75753e-05
0.00281517
3.98775e-05
0.00277295
4.22151e-05
0.0027284
4.45526e-05
0.00268155
4.68501e-05
0.00263249
4.90607e-05
0.00258136
5.11267e-05
0.00252839
5.2974e-05
0.00247387
5.45116e-05
0.00241824
5.56345e-05
0.00236199
5.62455e-05
0.00230561
5.63837e-05
0.0022495
5.61097e-05
0.00219407
5.54303e-05
0.00213972
5.43467e-05
0.00208689
5.28353e-05
0.00203598
5.09076e-05
0.00198728
4.87048e-05
0.00194074
4.6533e-05
0.00189597
4.47768e-05
0.00185224
4.37315e-05
0.00180877
4.34683e-05
0.00176495
4.38184e-05
0.00172047
4.44755e-05
0.00167534
4.51359e-05
0.00162974
4.55992e-05
0.00158394
4.57958e-05
0.00153819
4.57556e-05
0.00149264
4.55513e-05
0.00144738
4.52507e-05
0.00140249
4.48957e-05
0.00135798
4.45061e-05
0.00131389
4.40927e-05
0.00127022
4.36657e-05
0.00122699
4.32365e-05
0.00118417
4.28137e-05
0.00114177
4.24003e-05
0.00109978
4.19944e-05
0.00105819
4.15924e-05
0.001017
4.11916e-05
0.000976203
4.07926e-05
0.000935805
4.03975e-05
0.000895797
4.00086e-05
0.00085617
3.96265e-05
0.000816919
3.92506e-05
0.00077804
3.88799e-05
0.000739525
3.85149e-05
0.000701368
3.8157e-05
0.00066356
3.78075e-05
0.000626095
3.74657e-05
0.000588965
3.71299e-05
0.000552166
3.6799e-05
0.000515693
3.64731e-05
0.000479539
3.61531e-05
0.000443699
3.584e-05
0.000408164
3.55352e-05
0.000372923
3.5241e-05
0.000337964
3.4959e-05
0.000303274
3.46903e-05
0.000268838
3.44364e-05
0.000234631
3.42069e-05
0.000200613
3.40178e-05
0.000166731
3.38818e-05
0.000132995
3.37356e-05
9.95402e-05
3.34552e-05
6.72805e-05
3.22597e-05
3.67394e-05
3.05411e-05
3.67394e-05
5.53508e-05
-0.000114392
0.000135437
-0.000163463
0.000213571
-0.000159945
0.000286024
-0.000148906
0.00035492
-0.000141898
0.000422394
-0.000139018
0.000489325
-0.000137844
0.00055574
-0.000136751
0.000621408
-0.000135241
0.000686136
-0.000133358
0.000749802
-0.000131234
0.000812329
-0.000128947
0.000873648
-0.00012652
0.000933697
-0.000123961
0.000992414
-0.000121275
0.00104974
-0.000118469
0.00110563
-0.000115557
0.00116003
-0.000112551
0.00121291
-0.000109462
0.00126423
-0.000106304
0.00131398
-0.000103089
0.00136212
-9.98274e-05
0.00140866
-9.65322e-05
0.00145357
-9.32146e-05
0.00149687
-8.98852e-05
0.00153855
-8.65544e-05
0.00157862
-8.32319e-05
0.00161709
-7.99269e-05
0.00165399
-7.66482e-05
0.00168933
-7.34038e-05
0.00172314
-7.02013e-05
0.00175545
-6.70474e-05
0.00178629
-6.3948e-05
0.00181569
-6.09083e-05
0.0018437
-5.79332e-05
0.00187034
-5.50269e-05
0.00189567
-5.21935e-05
0.00191972
-4.94365e-05
0.00194254
-4.67585e-05
0.00196418
-4.41618e-05
0.00198467
-4.16475e-05
0.00200409
-3.92161e-05
0.00202247
-3.68674e-05
0.00203987
-3.46001e-05
0.00205635
-3.24125e-05
0.00207194
-3.03026e-05
0.00208669
-2.82695e-05
0.0021006
-2.63133e-05
0.00211371
-2.44357e-05
0.00212602
-2.26385e-05
0.00213756
-2.09233e-05
0.00214834
-1.92903e-05
0.00215841
-1.77386e-05
0.00216778
-1.62663e-05
0.0021765
-1.48709e-05
0.00218458
-1.35495e-05
0.00219206
-1.22994e-05
0.00219897
-1.11187e-05
0.00220532
-1.00063e-05
0.00221114
-8.96303e-06
0.00221642
-7.99145e-06
0.00222112
-7.0948e-06
0.00222521
-6.27532e-06
0.00222866
-5.53228e-06
0.00223145
-4.86089e-06
0.00223361
-4.25269e-06
0.0022352
-3.69727e-06
0.00223628
-3.18443e-06
0.00223693
-2.70604e-06
0.00223721
-2.25678e-06
0.00223718
-1.83389e-06
0.00223685
-1.4363e-06
0.00223626
-1.0636e-06
0.00223541
-7.15468e-07
0.00223432
-3.94706e-07
0.00223301
-9.52409e-08
0.00223148
1.81568e-07
0.00222974
4.36256e-07
0.00222781
6.70102e-07
0.00222571
8.84515e-07
0.00222343
1.07988e-06
0.00222101
1.25652e-06
0.00221844
1.41452e-06
0.00221576
1.55511e-06
0.00221298
1.67929e-06
0.00221012
1.78752e-06
0.00220717
1.87871e-06
0.00220415
1.95065e-06
0.00220105
2.00107e-06
0.00219789
2.02847e-06
0.00219469
2.03312e-06
0.00219147
2.01812e-06
0.00218828
1.98971e-06
0.00218516
1.95634e-06
0.00218214
1.92696e-06
0.00217924
1.90881e-06
0.00217648
1.90568e-06
0.00217383
1.91727e-06
0.00217127
1.93956e-06
0.00216877
1.96631e-06
0.0021663
1.99098e-06
0.00216384
2.00754e-06
0.00216137
2.01091e-06
0.00215887
1.99764e-06
0.00215635
1.96585e-06
0.00215381
1.91426e-06
0.00215126
1.8427e-06
0.00214871
1.75093e-06
0.00214615
1.64029e-06
0.0021436
1.5109e-06
0.00214109
1.36187e-06
0.00213861
1.19388e-06
0.00213619
1.00741e-06
0.00213384
8.03163e-07
0.00213156
5.81672e-07
0.00212937
3.43194e-07
0.00212729
8.55112e-08
0.00212535
-2.21788e-07
0.00212353
-4.96204e-07
0.00212185
-8.02433e-07
0.00212033
-1.12485e-06
0.002119
-1.47224e-06
0.00211786
-1.8315e-06
0.00211692
-2.20571e-06
0.00211621
-2.59663e-06
0.00211574
-3.00226e-06
0.00211553
-3.42222e-06
0.00211559
-3.85589e-06
0.00211593
-4.30282e-06
0.00211657
-4.7633e-06
0.00211753
-5.23612e-06
0.00211881
-5.7222e-06
0.00212044
-6.21978e-06
0.00212242
-6.72851e-06
0.00212477
-7.24773e-06
0.0021275
-7.7779e-06
0.00213063
-8.31898e-06
0.00213416
-8.87153e-06
0.00213812
-9.4355e-06
0.00214253
-1.00114e-05
0.0021474
-1.05994e-05
0.00215277
-1.12008e-05
0.00215866
-1.18201e-05
0.00216512
-1.24562e-05
0.0021722
-1.31039e-05
0.00217995
-1.3763e-05
0.00218848
-1.44292e-05
0.00219793
-1.50908e-05
0.00220843
-1.57287e-05
0.00222003
-1.63232e-05
0.00223265
-1.68647e-05
0.00224609
-1.73596e-05
0.00226013
-1.78273e-05
0.0022746
-1.82884e-05
0.0022894
-1.87551e-05
0.00230452
-1.92295e-05
0.00231998
-1.97081e-05
0.00233577
-2.01858e-05
0.00235192
-2.06592e-05
0.00236842
-2.11264e-05
0.00238525
-2.15864e-05
0.0024024
-2.20386e-05
0.00241987
-2.24822e-05
0.00243764
-2.29165e-05
0.00245571
-2.3341e-05
0.00247404
-2.37553e-05
0.00249264
-2.4159e-05
0.00251147
-2.45519e-05
0.00253053
-2.49337e-05
0.00254979
-2.53042e-05
0.00256922
-2.5663e-05
0.00258881
-2.601e-05
0.00260853
-2.63446e-05
0.00262836
-2.66667e-05
0.00264826
-2.69759e-05
0.00266821
-2.7272e-05
0.00268818
-2.7555e-05
0.00270812
-2.78248e-05
0.002728
-2.80817e-05
0.00274778
-2.83257e-05
0.00276741
-2.85567e-05
0.00278686
-2.87736e-05
0.00280612
-2.89742e-05
0.00282519
-2.91548e-05
0.00284407
-2.9311e-05
0.0028628
-2.9438e-05
0.00288142
-2.95313e-05
0.00289995
-2.95881e-05
0.00291842
-2.96069e-05
0.00293685
-2.95877e-05
0.00295523
-2.95316e-05
0.00297357
-2.94406e-05
0.00299185
-2.93169e-05
0.00301004
-2.91632e-05
0.00302815
-2.89822e-05
0.00304614
-2.87772e-05
0.003064
-2.8552e-05
0.00308171
-2.83109e-05
0.00309926
-2.80595e-05
0.0031166
-2.78039e-05
0.00313373
-2.7552e-05
0.00315062
-2.73129e-05
0.00316722
-2.70967e-05
0.0031835
-2.6914e-05
0.00319939
-2.6773e-05
0.00321485
-2.66768e-05
0.00322981
-2.66195e-05
0.00324422
-2.65834e-05
0.00325806
-2.65399e-05
0.00327133
-2.64526e-05
0.00328406
-2.62847e-05
0.00329633
-2.60067e-05
0.00330821
-2.56038e-05
0.00331979
-2.50786e-05
0.00333113
-2.44503e-05
0.00334227
-2.3749e-05
0.00335322
-2.30087e-05
0.00336396
-2.22601e-05
0.00337445
-2.15256e-05
0.00338466
-2.0817e-05
0.00339455
-2.01367e-05
0.00340409
-1.94795e-05
0.00341327
-1.88371e-05
0.00342207
-1.82004e-05
0.00343049
-1.75619e-05
0.00343851
-1.69168e-05
0.00344611
-1.62621e-05
0.00345329
-1.55961e-05
0.00346003
-1.49176e-05
0.0034663
-1.42252e-05
0.0034721
-1.3517e-05
0.0034774
-1.27909e-05
0.0034822
-1.20451e-05
0.00348647
-1.1278e-05
0.00349021
-1.04885e-05
0.00349341
-9.67615e-06
0.00349606
-8.84077e-06
0.00349813
-7.98243e-06
0.00349964
-7.10129e-06
0.00350055
-6.19754e-06
0.00350087
-5.27136e-06
0.0035006
-4.32291e-06
0.00349971
-3.3523e-06
0.0034982
-2.35941e-06
0.00349606
-1.34369e-06
0.0034933
-3.1093e-07
0.00348991
7.40963e-07
0.00348587
1.81937e-06
0.0034812
2.91515e-06
0.00347588
4.03022e-06
0.00346992
5.16293e-06
0.00346334
6.30966e-06
0.00345615
7.46663e-06
0.0034484
8.63669e-06
0.00344011
9.81905e-06
0.00343131
1.10142e-05
0.00342204
1.22218e-05
0.00341233
1.34407e-05
0.00340223
1.467e-05
0.0033918
1.59088e-05
0.00338108
1.71567e-05
0.00337015
1.84136e-05
0.00335905
1.96794e-05
0.00334785
2.09557e-05
0.00333657
2.22444e-05
0.00332521
2.35472e-05
0.0033137
2.48641e-05
0.00330196
2.6194e-05
0.00328994
2.75365e-05
0.0032776
2.88932e-05
0.00326497
3.02679e-05
0.00325209
3.16659e-05
0.003239
3.3093e-05
0.00322574
3.4556e-05
0.00321237
3.6063e-05
0.00319891
3.76239e-05
0.0031854
3.92511e-05
0.00317186
4.09597e-05
0.00315833
4.27672e-05
0.00314479
4.46936e-05
0.00313122
4.67604e-05
0.00311757
4.89889e-05
0.00310375
5.13975e-05
0.00308963
5.39988e-05
0.00307505
5.67971e-05
0.00305981
5.97853e-05
0.00304372
6.29439e-05
0.00302654
6.62387e-05
0.00300805
6.96187e-05
0.00298801
7.30149e-05
0.00296618
7.63412e-05
0.00294238
7.94337e-05
0.00291649
8.21409e-05
0.00288851
8.43593e-05
0.00285861
8.60058e-05
0.00282702
8.70266e-05
0.00279396
8.74043e-05
0.00275964
8.71585e-05
0.00272418
8.63619e-05
0.00268772
8.51694e-05
0.00265042
8.38316e-05
0.00261254
8.26566e-05
0.00257434
8.19275e-05
0.002536
8.18116e-05
0.0024975
8.23138e-05
0.00245869
8.32941e-05
0.00241929
8.45365e-05
0.00237906
8.58282e-05
0.00233784
8.7015e-05
0.00229557
8.80188e-05
0.0022523
8.88228e-05
0.00220811
8.94449e-05
0.00216309
8.99151e-05
0.00211733
9.02662e-05
0.00207089
9.0533e-05
0.0020238
9.07519e-05
0.00197608
9.09564e-05
0.00192772
9.11712e-05
0.00187872
9.1408e-05
0.00182904
9.16676e-05
0.00177869
9.19454e-05
0.00172765
9.22374e-05
0.00167589
9.25437e-05
0.00162342
9.28673e-05
0.00157022
9.32125e-05
0.00151626
9.35821e-05
0.00146154
9.39774e-05
0.00140602
9.43988e-05
0.00134969
9.48463e-05
0.00129253
9.53194e-05
0.00123452
9.58153e-05
0.00117566
9.63272e-05
0.00111594
9.68451e-05
0.00105538
9.73596e-05
0.000993988
9.78652e-05
0.000931782
9.83584e-05
0.000868786
9.88362e-05
0.000805027
9.92945e-05
0.000740539
9.9729e-05
0.000675363
0.000100135
0.000609545
0.000100508
0.000543137
0.000100844
0.000476203
0.000101141
0.000408828
0.000101393
0.000341121
0.000101589
0.000273111
0.000101746
0.000204521
0.000102046
0.000135568
0.000101212
6.88378e-05
9.72715e-05
0.000105577
5.67734e-05
-0.000171165
0.000139258
-0.000245948
0.00022039
-0.000241076
0.000295743
-0.000224259
0.000367181
-0.000213336
0.00043694
-0.000208777
0.000506068
-0.000206972
0.000574685
-0.000205367
0.00064257
-0.000203126
0.000709501
-0.000200289
0.000775335
-0.000197068
0.000839982
-0.000193594
0.000903371
-0.00018991
0.000965437
-0.000186027
0.00102612
-0.000181952
0.00108534
-0.000177699
0.00114307
-0.000173285
0.00119925
-0.00016873
0.00125384
-0.000164051
0.00130681
-0.00015927
0.00135812
-0.000154404
0.00140777
-0.000149472
0.00145573
-0.000144492
0.00150199
-0.00013948
0.00154656
-0.000134453
0.00158943
-0.000129427
0.00163062
-0.000124417
0.00167013
-0.000119437
0.00170798
-0.0001145
0.00174419
-0.000109617
0.00177879
-0.000104801
0.0018118
-0.00010006
0.00184326
-9.54031e-05
0.00187319
-9.08394e-05
0.00190163
-8.63752e-05
0.00192862
-8.20169e-05
0.0019542
-7.77697e-05
0.0019784
-7.36385e-05
0.00200127
-6.96271e-05
0.00202285
-6.57389e-05
0.00204317
-6.19763e-05
0.0020623
-5.83415e-05
0.00208027
-5.48354e-05
0.00209713
-5.14575e-05
0.00211292
-4.82058e-05
0.00212769
-4.50775e-05
0.00214149
-4.20704e-05
0.00215437
-3.91842e-05
0.00216635
-3.64197e-05
0.00217749
-3.37786e-05
0.00218783
-3.12617e-05
0.00219741
-2.88683e-05
0.00220626
-2.65962e-05
0.00221444
-2.44423e-05
0.00222197
-2.24029e-05
0.0022289
-2.04746e-05
0.00223525
-1.86539e-05
0.00224107
-1.69364e-05
0.00224638
-1.53163e-05
0.0022512
-1.37865e-05
0.00225555
-1.23398e-05
0.00225943
-1.09713e-05
0.00226283
-9.68003e-06
0.00226577
-8.46962e-06
0.00226825
-7.34583e-06
0.00227031
-6.313e-06
0.00227199
-5.37075e-06
0.00227332
-4.51297e-06
0.00227434
-3.72936e-06
0.00227509
-3.00847e-06
0.0022756
-2.34049e-06
0.00227588
-1.71867e-06
0.00227596
-1.13921e-06
0.00227584
-5.98119e-07
0.00227554
-9.22992e-08
0.00227507
3.75419e-07
0.00227444
8.10837e-07
0.00227366
1.21458e-06
0.00227274
1.58832e-06
0.00227169
1.93319e-06
0.00227052
2.251e-06
0.00226923
2.5432e-06
0.00226784
2.81064e-06
0.00226634
3.05346e-06
0.00226475
3.27107e-06
0.00226307
3.46504e-06
0.00226131
3.637e-06
0.00225948
3.78664e-06
0.00225756
3.91248e-06
0.00225558
4.01225e-06
0.00225353
4.08351e-06
0.00225142
4.1254e-06
0.00224927
4.1395e-06
0.0022471
4.13106e-06
0.00224492
4.10806e-06
0.00224275
4.07967e-06
0.0022406
4.05339e-06
0.00223848
4.03315e-06
0.0022364
4.01835e-06
0.00223437
4.0048e-06
0.00223237
3.98651e-06
0.00223042
3.95746e-06
0.00222852
3.91247e-06
0.00222667
3.84779e-06
0.00222487
3.76085e-06
0.00222314
3.64992e-06
0.00222147
3.51389e-06
0.00221987
3.35202e-06
0.00221834
3.16399e-06
0.0022169
2.94942e-06
0.00221556
2.70813e-06
0.00221431
2.4402e-06
0.00221317
2.14551e-06
0.00221215
1.82384e-06
0.00221126
1.47467e-06
0.0022105
1.09681e-06
0.0022099
6.88196e-07
0.00220943
2.48283e-07
0.00220909
-1.57495e-07
0.00220894
-6.49849e-07
0.00220898
-1.1602e-06
0.0022092
-1.69693e-06
0.00220963
-2.25825e-06
0.00221026
-2.84056e-06
0.00221111
-3.4491e-06
0.00221219
-4.08114e-06
0.00221351
-4.73889e-06
0.00221507
-5.41868e-06
0.00221689
-6.12157e-06
0.00221897
-6.8448e-06
0.00222133
-7.58804e-06
0.00222395
-8.34862e-06
0.00222686
-9.12772e-06
0.00223005
-9.92373e-06
0.00223354
-1.07371e-05
0.00223733
-1.15657e-05
0.00224142
-1.24082e-05
0.00224581
-1.32631e-05
0.00225051
-1.41303e-05
0.0022555
-1.50084e-05
0.0022608
-1.58968e-05
0.00226639
-1.67922e-05
0.00227227
-1.76972e-05
0.00227842
-1.86105e-05
0.00228485
-1.95334e-05
0.00229156
-2.04693e-05
0.00229856
-2.14278e-05
0.00230588
-2.24159e-05
0.00231358
-2.34217e-05
0.00232166
-2.44087e-05
0.00233013
-2.53347e-05
0.00233895
-2.61786e-05
0.00234808
-2.69525e-05
0.00235748
-2.76902e-05
0.00236715
-2.84251e-05
0.00237709
-2.91745e-05
0.00238733
-2.99397e-05
0.00239785
-3.07135e-05
0.00240868
-3.1488e-05
0.00241981
-3.22575e-05
0.00243125
-3.30185e-05
0.00244298
-3.37692e-05
0.002455
-3.45081e-05
0.00246732
-3.52337e-05
0.00247992
-3.5945e-05
0.00249281
-3.66409e-05
0.00250597
-3.73207e-05
0.0025194
-3.79832e-05
0.0025331
-3.86276e-05
0.00254704
-3.92529e-05
0.00256124
-3.98584e-05
0.00257567
-4.04436e-05
0.00259034
-4.10076e-05
0.00260522
-4.15499e-05
0.00262031
-4.20696e-05
0.00263561
-4.25654e-05
0.00265109
-4.30359e-05
0.00266674
-4.34791e-05
0.00268255
-4.38926e-05
0.0026985
-4.42742e-05
0.00271457
-4.46222e-05
0.00273073
-4.4936e-05
0.00274697
-4.52159e-05
0.00276328
-4.54629e-05
0.00277965
-4.56782e-05
0.00279607
-4.58625e-05
0.00281255
-4.6015e-05
0.0028291
-4.6134e-05
0.00284571
-4.62171e-05
0.00286238
-4.62618e-05
0.00287912
-4.62666e-05
0.00289591
-4.62308e-05
0.00291275
-4.61551e-05
0.00292963
-4.60406e-05
0.00294653
-4.58892e-05
0.00296346
-4.57032e-05
0.00298039
-4.54851e-05
0.00299732
-4.52381e-05
0.00301422
-4.49654e-05
0.00303109
-4.46709e-05
0.0030479
-4.43592e-05
0.00306462
-4.40349e-05
0.00308123
-4.37032e-05
0.00309768
-4.33682e-05
0.00311394
-4.30315e-05
0.00312995
-4.26899e-05
0.00314567
-4.23338e-05
0.00316103
-4.19463e-05
0.003176
-4.15051e-05
0.00319053
-4.09865e-05
0.00320462
-4.03714e-05
0.00321826
-3.96509e-05
0.00323149
-3.88297e-05
0.00324433
-3.79254e-05
0.00325685
-3.69639e-05
0.00326907
-3.59734e-05
0.00328104
-3.4977e-05
0.00329277
-3.39896e-05
0.00330426
-3.30156e-05
0.00331549
-3.2052e-05
0.00332645
-3.10907e-05
0.00333709
-3.01225e-05
0.00334739
-2.91396e-05
0.00335733
-2.81362e-05
0.00336688
-2.71091e-05
0.00337602
-2.60561e-05
0.00338473
-2.49758e-05
0.003393
-2.38668e-05
0.00340081
-2.27273e-05
0.00340814
-2.15555e-05
0.00341497
-2.035e-05
0.00342129
-1.91095e-05
0.00342708
-1.78334e-05
0.00343232
-1.65212e-05
0.00343701
-1.51732e-05
0.00344112
-1.37896e-05
0.00344465
-1.23709e-05
0.00344759
-1.09176e-05
0.00344992
-9.43025e-06
0.00345163
-7.90977e-06
0.00345271
-6.35697e-06
0.00345316
-4.77285e-06
0.00345297
-3.15859e-06
0.00345213
-1.51531e-06
0.00345061
1.75538e-07
0.00344843
1.86314e-06
0.00344559
3.58556e-06
0.00344207
5.33381e-06
0.00343788
7.10496e-06
0.00343302
8.89671e-06
0.00342747
1.07066e-05
0.00342125
1.25323e-05
0.00341435
1.43715e-05
0.00340676
1.6223e-05
0.00339849
1.80857e-05
0.00338955
1.99584e-05
0.00337993
2.18395e-05
0.00336965
2.37263e-05
0.0033587
2.56154e-05
0.00334711
2.75032e-05
0.00333488
2.93867e-05
0.00332203
3.1263e-05
0.00330858
3.3128e-05
0.00329456
3.49783e-05
0.00327998
3.68161e-05
0.00326488
3.86514e-05
0.00324925
4.04974e-05
0.00323308
4.23624e-05
0.00321637
4.42454e-05
0.00319912
4.6139e-05
0.00318135
4.80363e-05
0.00316309
4.99348e-05
0.00314434
5.18366e-05
0.00312515
5.37467e-05
0.00310554
5.56705e-05
0.00308555
5.76141e-05
0.00306522
5.95841e-05
0.00304459
6.15887e-05
0.00302372
6.36381e-05
0.00300267
6.57451e-05
0.0029815
6.79256e-05
0.00296029
7.01977e-05
0.00293911
7.25808e-05
0.00291802
7.50924e-05
0.00289707
7.77462e-05
0.00287631
8.05483e-05
0.00285575
8.34959e-05
0.00283542
8.65747e-05
0.00281528
8.97578e-05
0.00279529
9.30056e-05
0.00277536
9.62661e-05
0.00275534
9.9456e-05
0.002735
0.000102482
0.00271411
0.000105251
0.00269243
0.000107681
0.00266975
0.000109706
0.00264587
0.000111288
0.00262061
0.000112419
0.00259383
0.000113137
0.00256547
0.000113535
0.00253552
0.000113776
0.00250412
0.000114062
0.00247145
0.000114595
0.00243775
0.000115515
0.00240319
0.00011687
0.00236788
0.000118603
0.00233184
0.000120582
0.00229503
0.000122637
0.00225744
0.000124606
0.00221908
0.00012638
0.00217998
0.000127919
0.00214018
0.000129245
0.00209968
0.000130415
0.00205846
0.00013149
0.00201647
0.000132521
0.00197368
0.000133536
0.00193009
0.000134551
0.00188569
0.000135574
0.00184049
0.000136611
0.00179449
0.000137664
0.00174769
0.000138739
0.0017001
0.000139837
0.00165168
0.000140963
0.00160242
0.000142123
0.00155231
0.000143321
0.00150133
0.000144561
0.00144946
0.000145846
0.00139669
0.000147177
0.00134298
0.000148555
0.00128832
0.00014998
0.00123268
0.000151449
0.00117605
0.000152955
0.00111841
0.000154487
0.00105974
0.000156033
0.00100002
0.000157584
0.000939251
0.000159129
0.000877429
0.000160657
0.000814568
0.000162156
0.000750687
0.000163611
0.000685814
0.000165008
0.000619991
0.000166331
0.000553269
0.000167566
0.000485715
0.000168696
0.000417414
0.000169694
0.000348449
0.000170554
0.000278787
0.000171407
0.000208485
0.000172348
0.000138691
0.000171007
7.18106e-05
0.000164151
0.000177388
5.79866e-05
-0.000229152
0.000141757
-0.000329719
0.000224321
-0.00032364
0.000301188
-0.000301125
0.000374108
-0.000286257
0.00044526
-0.000279929
0.000515697
-0.000277409
0.000585564
-0.000275234
0.000654658
-0.00027222
0.000722761
-0.000268392
0.000789727
-0.000264034
0.000855461
-0.000259328
0.000919888
-0.000254337
0.00098294
-0.000249079
0.00104455
-0.000243561
0.00110465
-0.000237804
0.0011632
-0.000231829
0.00122013
-0.000225665
0.00127542
-0.000219337
0.00132902
-0.000212871
0.00138091
-0.000206293
0.00143106
-0.000199628
0.00147947
-0.000192901
0.00152613
-0.000186135
0.00157103
-0.000179352
0.00161417
-0.000172573
0.00165558
-0.00016582
0.00169525
-0.00015911
0.00173321
-0.000152461
0.00176948
-0.00014589
0.00180409
-0.000139411
0.00183707
-0.000133036
0.00186845
-0.000126779
0.00189826
-0.00012065
0.00192654
-0.000114658
0.00195333
-0.000108811
0.00197868
-0.000103117
0.00200262
-9.75811e-05
0.00202521
-9.22085e-05
0.00204647
-8.70028e-05
0.00206646
-8.1967e-05
0.00208522
-7.71029e-05
0.0021028
-7.24114e-05
0.00211923
-6.78926e-05
0.00213457
-6.35461e-05
0.00214887
-5.93713e-05
0.00216216
-5.53677e-05
0.00217451
-5.15349e-05
0.00218597
-4.78725e-05
0.00219657
-4.43794e-05
0.00220636
-4.10534e-05
0.00221538
-3.78919e-05
0.00222368
-3.4891e-05
0.00223128
-3.20468e-05
0.00223823
-2.93548e-05
0.00224457
-2.68105e-05
0.00225033
-2.44088e-05
0.00225553
-2.21446e-05
0.00226023
-2.00122e-05
0.00226445
-1.80061e-05
0.00226823
-1.61208e-05
0.00227161
-1.43517e-05
0.00227463
-1.26954e-05
0.00227731
-1.11492e-05
0.00227967
-9.71094e-06
0.00228174
-8.37797e-06
0.00228351
-7.146e-06
0.00228501
-6.00898e-06
0.00228624
-4.9594e-06
0.00228722
-3.98928e-06
0.00228797
-3.09109e-06
0.00228851
-2.25818e-06
0.00228885
-1.48535e-06
0.00228903
-7.7513e-07
0.00228905
-1.15663e-07
0.00228893
5.00851e-07
0.00228867
1.06999e-06
0.00228829
1.59483e-06
0.0022878
2.07945e-06
0.00228721
2.52628e-06
0.00228652
2.93743e-06
0.00228575
3.31469e-06
0.0022849
3.65979e-06
0.00228398
3.97379e-06
0.00228299
4.25785e-06
0.00228194
4.51301e-06
0.00228084
4.74036e-06
0.00227969
4.94062e-06
0.00227848
5.11363e-06
0.00227724
5.25923e-06
0.00227594
5.37747e-06
0.0022746
5.46875e-06
0.00227321
5.53476e-06
0.00227176
5.57837e-06
0.00227026
5.60349e-06
0.00226873
5.61447e-06
0.00226717
5.61434e-06
0.0022656
5.60458e-06
0.00226403
5.58468e-06
0.00226248
5.55261e-06
0.00226096
5.50545e-06
0.00225948
5.43985e-06
0.00225804
5.35265e-06
0.00225665
5.24113e-06
0.0022553
5.10298e-06
0.00225402
4.93644e-06
0.00225279
4.74014e-06
0.00225163
4.51299e-06
0.00225054
4.25414e-06
0.00224953
3.96297e-06
0.0022486
3.63903e-06
0.00224775
3.28194e-06
0.00224701
2.8914e-06
0.00224636
2.46707e-06
0.00224583
2.00878e-06
0.00224541
1.51659e-06
0.00224511
9.91435e-07
0.00224492
4.35467e-07
0.00224492
-1.61271e-07
0.00224507
-7.99903e-07
0.00224537
-1.45966e-06
0.00224585
-2.16953e-06
0.00224648
-2.89606e-06
0.0022473
-3.6596e-06
0.00224831
-4.45318e-06
0.00224951
-5.2821e-06
0.00225091
-6.13777e-06
0.00225252
-7.02905e-06
0.00225434
-7.94648e-06
0.00225639
-8.89231e-06
0.00225866
-9.86298e-06
0.00226118
-1.08641e-05
0.00226394
-1.18906e-05
0.00226696
-1.29388e-05
0.00227023
-1.40076e-05
0.00227376
-1.50996e-05
0.00227756
-1.621e-05
0.00228164
-1.73415e-05
0.00228601
-1.84926e-05
0.00229066
-1.96615e-05
0.00229561
-2.08473e-05
0.00230086
-2.20466e-05
0.00230642
-2.32571e-05
0.00231229
-2.44768e-05
0.00231846
-2.57031e-05
0.00232492
-2.69328e-05
0.00233166
-2.81618e-05
0.00233863
-2.93849e-05
0.0023458
-3.05967e-05
0.00235318
-3.17919e-05
0.00236081
-3.29654e-05
0.00236875
-3.41153e-05
0.00237704
-3.52445e-05
0.00238571
-3.63581e-05
0.00239475
-3.74615e-05
0.00240413
-3.85577e-05
0.00241384
-3.96478e-05
0.00242386
-4.07305e-05
0.00243417
-4.1804e-05
0.00244478
-4.28657e-05
0.00245568
-4.39135e-05
0.00246685
-4.49453e-05
0.0024783
-4.59595e-05
0.00249002
-4.69545e-05
0.00250201
-4.79288e-05
0.00251425
-4.88809e-05
0.00252674
-4.98093e-05
0.00253947
-5.07126e-05
0.00255243
-5.15897e-05
0.00256561
-5.24393e-05
0.00257902
-5.32604e-05
0.00259262
-5.40519e-05
0.00260643
-5.48128e-05
0.00262042
-5.5542e-05
0.00263459
-5.62385e-05
0.00264893
-5.69012e-05
0.00266342
-5.75292e-05
0.00267806
-5.81214e-05
0.00269285
-5.86765e-05
0.00270777
-5.91935e-05
0.00272281
-5.96709e-05
0.00273798
-6.01071e-05
0.00275327
-6.05009e-05
0.00276866
-6.08508e-05
0.00278414
-6.11556e-05
0.00279969
-6.14142e-05
0.0028153
-6.16257e-05
0.00283095
-6.17893e-05
0.00284664