/*--------------------------------*- C++ -*----------------------------------*\
| =========                 |                                                 |
| \\      /  F ield         | OpenFOAM: The Open Source CFD Toolbox           |
|  \\    /   O peration     | Version:  v2006                                 |
|   \\  /    A nd           | Website:  www.openfoam.com                      |
|    \\/     M anipulation  |                                                 |
\*---------------------------------------------------------------------------*/
FoamFile
{
    version     2.0;
    format      ascii;
    class       volScalarField;
    location    "7.6";
    object      p_rgh;
}
// * * * * * * * * * * * * * * * * * * * * * * * * * * * * * * * * * * * * * //

dimensions      [1 -1 -2 0 0 0 0];


internalField   nonuniform List<scalar> 
52500
(
-359.983
-359.498
-358.758
-357.656
-356.188
-354.343
-352.118
-349.51
-346.518
-343.142
-339.379
-335.227
-330.683
-325.746
-320.414
-314.685
-308.557
-302.028
-295.098
-287.766
-280.031
-271.893
-263.353
-254.411
-245.069
-235.329
-225.193
-214.665
-203.747
-192.444
-180.762
-168.704
-156.278
-143.489
-130.345
-116.852
-103.02
-88.8559
-74.3691
-59.5688
-44.4647
-29.0666
-13.385
2.56966
18.7865
35.2544
51.9622
68.8983
86.0511
103.409
120.96
138.691
156.592
174.65
192.853
211.188
229.645
248.21
266.872
285.619
304.44
323.321
342.253
361.223
380.219
399.232
418.249
437.26
456.254
475.221
494.15
513.032
531.857
550.614
569.294
587.889
606.389
624.786
643.07
661.234
679.269
697.168
714.923
732.528
749.974
767.256
784.367
801.3
818.05
834.612
850.979
867.147
883.111
898.866
914.408
929.734
944.84
959.723
974.378
988.804
1003
1016.96
1030.68
1044.16
1057.41
1070.41
1083.17
1095.68
1107.95
1119.97
1131.75
1143.29
1154.58
1165.62
1176.43
1186.99
1197.3
1207.37
1217.2
1226.79
1236.15
1245.28
1254.18
1262.85
1271.29
1279.52
1287.52
1295.31
1302.88
1310.25
1317.41
1324.37
1331.13
1337.7
1344.07
1350.26
1356.27
1362.1
1367.75
1373.24
1378.57
1383.73
1388.75
1393.61
1398.33
1402.91
1407.35
1411.67
1415.87
1419.94
1423.91
1427.76
1431.52
1435.18
1438.74
1442.22
1445.61
1448.93
1452.17
1455.35
1458.47
1461.53
1464.54
1467.5
1470.43
1473.32
1476.17
1479.01
1481.82
1484.61
1487.4
1490.18
1492.96
1495.74
1498.53
1501.33
1504.14
1506.98
1509.84
1512.74
1515.66
1518.63
1521.63
1524.68
1527.78
1530.93
1534.14
1537.41
1540.74
1544.14
1547.61
1551.14
1554.76
1558.45
1562.23
1566.08
1570.03
1574.06
1578.18
1582.4
1586.71
1591.13
1595.64
1600.25
1604.97
1609.79
1614.73
1619.77
1624.92
1630.19
1635.57
1641.06
1646.67
1652.39
1658.24
1664.19
1670.27
1676.47
1682.78
1689.22
1695.77
1702.45
1709.25
1716.17
1723.21
1730.37
1737.66
1745.06
1752.59
1760.23
1768
1775.89
1783.89
1792.01
1800.26
1808.61
1817.09
1825.67
1834.37
1843.19
1852.11
1861.14
1870.28
1879.53
1888.88
1898.34
1907.9
1917.56
1927.31
1937.17
1947.11
1957.16
1967.29
1977.51
1987.81
1998.19
2008.66
2019.2
2029.81
2040.5
2051.25
2062.07
2072.96
2083.9
2094.89
2105.94
2117.03
2128.18
2139.36
2150.59
2161.85
2173.15
2184.47
2195.82
2207.19
2218.58
2229.99
2241.39
2252.81
2264.22
2275.63
2287.02
2298.4
2309.76
2321.09
2332.39
2343.65
2354.87
2366.03
2377.14
2388.19
2399.17
2410.09
2420.92
2431.68
2442.37
2452.96
2463.48
2473.91
2484.25
2494.51
2504.68
2514.75
2524.7
2534.52
2544.21
2553.75
2563.15
2572.4
2581.51
2590.46
2599.25
2607.89
2616.36
2624.66
2632.78
2640.73
2648.5
2656.08
2663.47
2670.67
2677.67
2684.46
2691.05
2697.43
2703.6
2709.55
2715.28
2720.79
2726.08
2731.13
2735.95
2740.54
2744.89
2748.99
2752.86
2756.48
2759.85
2762.97
2765.84
2768.46
2770.82
2772.92
2774.76
2776.35
2777.66
2778.72
2779.51
2780.04
2780.32
-361.323
-360.842
-360.096
-358.994
-357.526
-355.681
-353.453
-350.843
-347.849
-344.47
-340.703
-336.546
-331.997
-327.055
-321.716
-315.979
-309.843
-303.306
-296.366
-289.023
-281.277
-273.126
-264.572
-255.616
-246.258
-236.501
-226.347
-215.799
-204.861
-193.537
-181.832
-169.751
-157.3
-144.486
-131.316
-117.796
-103.936
-89.7435
-75.2275
-60.3974
-45.2629
-29.8339
-14.1209
1.86549
18.1144
34.6146
51.3549
68.3236
85.5091
102.9
120.483
138.247
156.181
174.271
192.506
210.873
229.362
247.959
266.652
285.43
304.281
323.193
342.155
361.154
380.18
399.222
418.267
437.306
456.328
475.323
494.279
513.187
532.037
550.82
569.525
588.144
606.667
625.086
643.392
661.577
679.633
697.552
715.326
732.949
750.413
767.711
784.838
801.787
818.552
835.127
851.507
867.688
883.663
899.429
914.981
930.316
945.43
960.321
974.985
989.419
1003.62
1017.59
1031.31
1044.8
1058.05
1071.06
1083.82
1096.33
1108.6
1120.63
1132.41
1143.94
1155.23
1166.27
1177.08
1187.64
1197.96
1208.01
1217.83
1227.42
1236.78
1245.9
1254.79
1263.45
1271.89
1280.11
1288.1
1295.88
1303.45
1310.8
1317.95
1324.9
1331.65
1338.2
1344.57
1350.74
1356.74
1362.56
1368.2
1373.68
1378.99
1384.14
1389.14
1393.99
1398.69
1403.26
1407.69
1411.99
1416.17
1420.24
1424.19
1428.03
1431.77
1435.42
1438.97
1442.43
1445.81
1449.11
1452.34
1455.51
1458.61
1461.66
1464.66
1467.61
1470.52
1473.4
1476.24
1479.06
1481.86
1484.64
1487.42
1490.18
1492.95
1495.72
1498.49
1501.28
1504.09
1506.92
1509.77
1512.65
1515.56
1518.52
1521.51
1524.55
1527.64
1530.78
1533.98
1537.24
1540.56
1543.95
1547.41
1550.94
1554.55
1558.23
1562
1565.85
1569.79
1573.81
1577.93
1582.14
1586.45
1590.86
1595.36
1599.97
1604.69
1609.5
1614.43
1619.47
1624.62
1629.88
1635.25
1640.74
1646.35
1652.07
1657.91
1663.86
1669.94
1676.13
1682.45
1688.88
1695.44
1702.12
1708.91
1715.83
1722.88
1730.04
1737.32
1744.73
1752.26
1759.91
1767.67
1775.56
1783.57
1791.7
1799.94
1808.3
1816.77
1825.36
1834.07
1842.88
1851.81
1860.85
1869.99
1879.24
1888.6
1898.06
1907.63
1917.29
1927.05
1936.9
1946.85
1956.89
1967.02
1977.23
1987.53
1997.91
2008.37
2018.9
2029.51
2040.2
2050.95
2061.76
2072.64
2083.58
2094.58
2105.63
2116.73
2127.88
2139.08
2150.31
2161.58
2172.87
2184.2
2195.55
2206.92
2218.31
2229.71
2241.11
2252.53
2263.94
2275.35
2286.75
2298.13
2309.5
2320.84
2332.16
2343.44
2354.69
2365.89
2377.04
2388.13
2399.16
2410.13
2421.02
2431.84
2442.57
2453.22
2463.77
2474.24
2484.6
2494.86
2505.02
2515.07
2525.01
2534.83
2544.51
2554.07
2563.48
2572.75
2581.87
2590.84
2599.65
2608.3
2616.79
2625.11
2633.25
2641.21
2648.99
2656.58
2663.99
2671.19
2678.2
2685.01
2691.61
2698
2704.18
2710.14
2715.88
2721.4
2726.69
2731.76
2736.59
2741.18
2745.54
2749.66
2753.53
2757.16
2760.54
2763.67
2766.55
2769.17
2771.54
2773.65
2775.49
2777.08
2778.4
2779.46
2780.25
2780.78
2781.06
-363.961
-363.474
-362.724
-361.619
-360.15
-358.304
-356.074
-353.461
-350.463
-347.078
-343.305
-339.141
-334.584
-329.632
-324.283
-318.534
-312.385
-305.832
-298.876
-291.514
-283.747
-275.574
-266.995
-258.012
-248.625
-238.837
-228.649
-218.065
-207.089
-195.725
-183.977
-171.851
-159.353
-146.49
-133.269
-119.697
-105.783
-91.5341
-76.9608
-62.072
-46.8776
-31.3877
-15.6128
0.436323
16.7487
33.313
50.1178
67.1515
84.4023
101.858
119.507
137.337
155.336
173.492
191.793
210.226
228.779
247.44
266.197
285.039
303.952
322.927
341.949
361.009
380.095
399.196
418.3
437.396
456.474
475.523
494.534
513.495
532.396
551.229
569.984
588.65
607.22
625.685
644.036
662.264
680.361
698.321
716.134
733.796
751.297
768.632
785.793
802.775
819.572
836.178
852.588
868.797
884.8
900.592
916.17
931.529
946.664
961.573
976.252
990.698
1004.91
1018.88
1032.61
1046.11
1059.36
1072.36
1085.12
1097.64
1109.91
1121.93
1133.71
1145.23
1156.51
1167.54
1178.33
1188.86
1199.14
1209.22
1219.06
1228.65
1238
1247.11
1255.99
1264.64
1273.07
1281.27
1289.25
1297.01
1304.55
1311.89
1319.02
1325.95
1332.68
1339.21
1345.55
1351.71
1357.68
1363.47
1369.09
1374.54
1379.83
1384.96
1389.93
1394.75
1399.43
1403.98
1408.38
1412.66
1416.81
1420.85
1424.77
1428.58
1432.29
1435.91
1439.43
1442.86
1446.21
1449.48
1452.68
1455.82
1458.89
1461.91
1464.88
1467.8
1470.69
1473.54
1476.35
1479.15
1481.92
1484.68
1487.42
1490.17
1492.91
1495.65
1498.4
1501.17
1503.95
1506.75
1509.58
1512.44
1515.34
1518.27
1521.24
1524.26
1527.33
1530.45
1533.63
1536.88
1540.18
1543.55
1546.99
1550.51
1554.1
1557.77
1561.52
1565.36
1569.28
1573.3
1577.4
1581.6
1585.9
1590.3
1594.79
1599.39
1604.1
1608.91
1613.83
1618.86
1624
1629.25
1634.62
1640.1
1645.7
1651.42
1657.25
1663.21
1669.28
1675.47
1681.78
1688.22
1694.77
1701.45
1708.25
1715.17
1722.21
1729.38
1736.66
1744.07
1751.6
1759.25
1767.03
1774.92
1782.93
1791.06
1799.31
1807.67
1816.15
1824.75
1833.46
1842.28
1851.22
1860.26
1869.42
1878.68
1888.04
1897.51
1907.09
1916.76
1926.53
1936.4
1946.36
1956.41
1966.55
1976.78
1987.1
1997.5
2007.98
2018.54
2029.17
2039.87
2050.65
2061.49
2072.39
2083.36
2094.38
2105.45
2116.57
2127.74
2138.95
2150.2
2161.48
2172.8
2184.15
2195.52
2206.91
2218.32
2229.74
2241.16
2252.59
2264.02
2275.44
2286.85
2298.24
2309.62
2320.96
2332.28
2343.56
2354.8
2366
2377.14
2388.24
2399.27
2410.24
2421.14
2431.97
2442.73
2453.4
2463.98
2474.48
2484.88
2495.17
2505.37
2515.44
2525.4
2535.24
2544.95
2554.52
2563.96
2573.25
2582.39
2591.39
2600.23
2608.9
2617.41
2625.75
2633.92
2641.9
2649.7
2657.32
2664.74
2671.97
2678.99
2685.82
2692.44
2698.84
2705.04
2711.01
2716.77
2722.3
2727.61
2732.68
2737.52
2742.13
2746.5
2750.62
2754.51
2758.15
2761.53
2764.67
2767.56
2770.19
2772.56
2774.67
2776.52
2778.11
2779.44
2780.5
2781.3
2781.82
2782.1
-367.92
-367.427
-366.675
-365.567
-364.096
-362.247
-360.015
-357.397
-354.393
-351.001
-347.219
-343.045
-338.477
-333.512
-328.147
-322.381
-316.212
-309.638
-302.657
-295.268
-287.471
-279.265
-270.65
-261.626
-252.196
-242.361
-232.123
-221.485
-210.452
-199.026
-187.214
-175.021
-162.453
-149.516
-136.218
-122.567
-108.57
-94.2377
-79.5779
-64.6006
-49.3158
-33.7339
-17.8655
-1.72145
14.6869
31.3482
48.2509
65.383
82.7327
100.288
118.037
135.966
154.065
172.32
190.719
209.25
227.902
246.66
265.514
284.451
303.46
322.527
341.643
360.795
379.971
399.16
418.351
437.533
456.696
475.828
494.92
513.96
532.939
551.848
570.677
589.416
608.056
626.589
645.005
663.298
681.457
699.477
717.348
735.065
752.619
770.004
787.214
804.242
821.083
837.731
854.18
870.426
886.463
902.288
917.895
933.282
948.444
963.377
978.08
992.548
1006.78
1020.77
1034.52
1048.03
1061.29
1074.31
1087.08
1099.6
1111.87
1123.9
1135.67
1147.2
1158.48
1169.51
1180.29
1190.83
1201.14
1211.21
1221.02
1230.57
1239.88
1248.97
1257.83
1266.46
1274.86
1283.03
1290.99
1298.72
1306.24
1313.55
1320.65
1327.55
1334.24
1340.74
1347.05
1353.17
1359.1
1364.86
1370.44
1375.86
1381.1
1386.19
1391.12
1395.91
1400.55
1405.04
1409.41
1413.64
1417.75
1421.74
1425.62
1429.39
1433.05
1436.62
1440.1
1443.49
1446.79
1450.02
1453.18
1456.28
1459.31
1462.28
1465.21
1468.09
1470.93
1473.74
1476.52
1479.27
1482
1484.72
1487.43
1490.13
1492.83
1495.54
1498.25
1500.98
1503.73
1506.5
1509.3
1512.12
1514.99
1517.89
1520.83
1523.82
1526.86
1529.95
1533.11
1536.32
1539.6
1542.95
1546.36
1549.85
1553.42
1557.07
1560.8
1564.62
1568.53
1572.52
1576.61
1580.79
1585.08
1589.46
1593.94
1598.53
1603.22
1608.02
1612.93
1617.95
1623.08
1628.32
1633.68
1639.16
1644.75
1650.46
1656.29
1662.23
1668.3
1674.49
1680.8
1687.23
1693.79
1700.46
1707.26
1714.18
1721.23
1728.4
1735.69
1743.1
1750.63
1758.29
1766.07
1773.96
1781.98
1790.12
1798.37
1806.75
1815.24
1823.84
1832.56
1841.4
1850.34
1859.4
1868.57
1877.84
1887.22
1896.7
1906.29
1915.97
1925.76
1935.64
1945.62
1955.69
1965.85
1976.1
1986.43
1996.85
2007.34
2017.92
2028.57
2039.29
2050.08
2060.94
2071.86
2082.84
2093.87
2104.97
2116.11
2127.3
2138.53
2149.81
2161.12
2172.46
2183.83
2195.23
2206.65
2218.08
2229.52
2240.98
2252.43
2263.89
2275.34
2286.78
2298.21
2309.62
2321
2332.35
2343.67
2354.95
2366.19
2377.37
2388.51
2399.58
2410.59
2421.53
2432.4
2443.19
2453.9
2464.52
2475.05
2485.49
2495.82
2506.04
2516.15
2526.14
2536.01
2545.74
2555.35
2564.82
2574.14
2583.32
2592.34
2601.21
2609.92
2618.46
2626.82
2635.01
2643.03
2650.85
2658.49
2665.94
2673.19
2680.24
2687.09
2693.72
2700.15
2706.36
2712.35
2718.12
2723.67
2728.99
2734.07
2738.93
2743.54
2747.92
2752.05
2755.94
2759.58
2762.98
2766.12
2769.01
2771.64
2774.01
2776.13
2777.98
2779.57
2780.9
2781.96
2782.76
2783.28
2783.56
-373.218
-372.718
-371.962
-370.851
-369.377
-367.526
-365.289
-362.665
-359.653
-356.251
-352.458
-348.271
-343.688
-338.705
-333.32
-327.532
-321.337
-314.733
-307.72
-300.295
-292.457
-284.206
-275.542
-266.465
-256.977
-247.079
-236.773
-226.063
-214.952
-203.445
-191.546
-179.262
-166.598
-153.562
-140.161
-126.403
-112.296
-97.8495
-83.0732
-67.9766
-52.5701
-36.8643
-20.87
-4.59842
11.939
28.7305
45.7643
63.0284
80.5107
98.1988
116.081
134.143
152.375
170.763
189.294
207.957
226.739
245.627
264.61
283.675
302.81
322.003
341.242
360.515
379.811
399.119
418.427
437.723
456.999
476.241
495.441
514.587
533.67
552.679
571.604
590.441
609.176
627.8
646.305
664.683
682.926
701.025
718.974
736.765
754.391
771.845
789.121
806.212
823.113
839.818
856.322
872.619
888.705
904.575
920.226
935.652
950.851
965.818
980.551
995.048
1009.3
1023.32
1037.09
1050.61
1063.89
1076.92
1089.7
1102.22
1114.5
1126.53
1138.3
1149.82
1161.09
1172.11
1182.89
1193.41
1203.69
1213.71
1223.48
1233.05
1242.36
1251.43
1260.26
1268.86
1277.23
1285.38
1293.3
1301
1308.48
1315.75
1322.81
1329.66
1336.32
1342.77
1349.03
1355.11
1361
1366.7
1372.24
1377.6
1382.8
1387.84
1392.72
1397.45
1402.03
1406.47
1410.78
1414.96
1419.01
1422.95
1426.77
1430.48
1434.09
1437.6
1441.02
1444.35
1447.6
1450.77
1453.87
1456.91
1459.88
1462.8
1465.67
1468.49
1471.28
1474.03
1476.75
1479.45
1482.13
1484.79
1487.45
1490.1
1492.75
1495.41
1498.07
1500.76
1503.46
1506.18
1508.93
1511.71
1514.53
1517.39
1520.29
1523.24
1526.24
1529.29
1532.41
1535.59
1538.83
1542.14
1545.53
1548.98
1552.52
1556.14
1559.84
1563.63
1567.51
1571.48
1575.55
1579.71
1583.97
1588.33
1592.79
1597.36
1602.03
1606.81
1611.71
1616.71
1621.83
1627.06
1632.41
1637.87
1643.46
1649.16
1654.98
1660.92
1666.98
1673.17
1679.48
1685.91
1692.46
1699.13
1705.93
1712.86
1719.9
1727.07
1734.37
1741.78
1749.32
1756.99
1764.77
1772.68
1780.71
1788.85
1797.12
1805.5
1814.01
1822.63
1831.36
1840.21
1849.17
1858.24
1867.42
1876.71
1886.11
1895.61
1905.22
1914.92
1924.73
1934.64
1944.63
1954.73
1964.91
1975.18
1985.54
1995.98
2006.51
2017.11
2027.79
2038.54
2049.36
2060.25
2071.2
2082.21
2093.29
2104.41
2115.59
2126.81
2138.08
2149.39
2160.74
2172.12
2183.52
2194.96
2206.41
2217.88
2229.36
2240.86
2252.35
2263.85
2275.34
2286.82
2298.28
2309.73
2321.15
2332.54
2343.9
2355.22
2366.49
2377.72
2388.89
2400.01
2411.06
2422.05
2432.96
2443.8
2454.55
2465.22
2475.8
2486.28
2496.65
2506.92
2517.08
2527.11
2537.03
2546.81
2556.46
2565.97
2575.33
2584.55
2593.61
2602.52
2611.27
2619.84
2628.25
2636.48
2644.53
2652.39
2660.06
2667.54
2674.82
2681.9
2688.78
2695.44
2701.89
2708.13
2714.14
2719.93
2725.5
2730.83
2735.94
2740.8
2745.43
2749.82
2753.96
2757.86
2761.51
2764.91
2768.05
2770.94
2773.58
2775.95
2778.07
2779.92
2781.51
2782.84
2783.9
2784.69
2785.22
2785.5
-379.869
-379.36
-378.599
-377.483
-376.005
-374.15
-371.908
-369.276
-366.254
-362.84
-359.033
-354.829
-350.227
-345.222
-339.813
-333.996
-327.769
-321.13
-314.076
-306.605
-298.717
-290.411
-281.686
-272.542
-262.981
-253.003
-242.612
-231.811
-220.603
-208.992
-196.984
-184.585
-171.802
-158.64
-145.109
-131.216
-116.97
-102.381
-87.4577
-72.2111
-56.6516
-40.7899
-24.6375
-8.20566
8.49378
25.4489
42.6476
60.0776
77.7264
95.5816
113.631
131.861
150.259
168.814
187.512
206.34
225.286
244.338
263.482
282.708
302.001
321.351
340.746
360.172
379.62
399.076
418.531
437.971
457.388
476.769
496.105
515.385
534.598
553.736
572.789
591.743
610.594
629.331
647.947
666.432
684.778
702.978
721.024
738.908
756.624
774.164
791.523
808.693
825.669
842.445
859.017
875.378
891.525
907.451
923.155
938.63
953.875
968.884
983.656
998.187
1012.48
1026.52
1040.31
1053.86
1067.15
1080.2
1092.98
1105.52
1117.8
1129.83
1141.6
1153.12
1164.38
1175.4
1186.16
1196.67
1206.93
1216.95
1226.74
1236.23
1245.5
1254.53
1263.33
1271.89
1280.22
1288.33
1296.2
1303.86
1311.3
1318.52
1325.53
1332.33
1338.93
1345.33
1351.53
1357.55
1363.37
1369.02
1374.49
1379.79
1384.92
1389.89
1394.71
1399.37
1403.88
1408.26
1412.49
1416.6
1420.58
1424.44
1428.19
1431.83
1435.37
1438.8
1442.15
1445.4
1448.58
1451.68
1454.71
1457.67
1460.57
1463.42
1466.22
1468.97
1471.69
1474.37
1477.02
1479.65
1482.26
1484.86
1487.45
1490.04
1492.63
1495.22
1497.83
1500.45
1503.09
1505.75
1508.45
1511.17
1513.94
1516.74
1519.59
1522.49
1525.44
1528.45
1531.52
1534.65
1537.85
1541.12
1544.47
1547.89
1551.39
1554.97
1558.64
1562.39
1566.24
1570.18
1574.21
1578.34
1582.58
1586.91
1591.35
1595.9
1600.55
1605.31
1610.19
1615.17
1620.27
1625.49
1630.83
1636.28
1641.85
1647.54
1653.35
1659.29
1665.34
1671.52
1677.82
1684.25
1690.8
1697.48
1704.28
1711.2
1718.25
1725.43
1732.72
1740.15
1747.69
1755.37
1763.16
1771.08
1779.11
1787.27
1795.55
1803.95
1812.47
1821.1
1829.85
1838.72
1847.7
1856.79
1865.99
1875.3
1884.72
1894.25
1903.88
1913.61
1923.44
1933.37
1943.4
1953.52
1963.73
1974.03
1984.42
1994.89
2005.45
2016.08
2026.8
2037.58
2048.44
2059.36
2070.35
2081.4
2092.51
2103.67
2114.89
2126.16
2137.46
2148.82
2160.2
2171.63
2183.08
2194.56
2206.05
2217.57
2229.1
2240.64
2252.18
2263.73
2275.27
2286.8
2298.31
2309.81
2321.29
2332.73
2344.14
2355.52
2366.85
2378.13
2389.36
2400.54
2411.65
2422.69
2433.66
2444.55
2455.37
2466.09
2476.72
2487.26
2497.69
2508.01
2518.22
2528.31
2538.28
2548.12
2557.82
2567.38
2576.8
2586.07
2595.19
2604.14
2612.94
2621.56
2630.01
2638.29
2646.38
2654.29
2662
2669.52
2676.84
2683.96
2690.87
2697.57
2704.06
2710.32
2716.37
2722.19
2727.78
2733.14
2738.26
2743.15
2747.8
2752.2
2756.36
2760.27
2763.93
2767.34
2770.49
2773.39
2776.02
2778.4
2780.52
2782.38
2783.97
2785.3
2786.36
2787.15
2787.68
2787.96
-387.893
-387.372
-386.604
-385.481
-383.999
-382.14
-379.891
-377.249
-374.215
-370.787
-366.963
-362.74
-358.114
-353.084
-347.646
-341.796
-335.531
-328.849
-321.748
-314.224
-306.276
-297.904
-289.105
-279.881
-270.231
-260.158
-249.665
-238.752
-227.426
-215.69
-203.55
-191.011
-178.081
-164.768
-151.078
-137.021
-122.606
-107.843
-92.7412
-77.3123
-61.5667
-45.5159
-29.1714
-12.545
4.35104
21.5045
38.903
56.5338
74.3842
92.4415
110.693
129.125
147.726
166.482
185.38
204.408
223.552
242.8
262.14
281.559
301.044
320.583
340.164
359.775
379.404
399.04
418.67
438.284
457.871
477.419
496.918
516.357
535.727
555.017
574.216
593.317
612.31
631.185
649.934
668.548
687.019
705.34
723.502
741.498
759.321
776.965
794.422
811.687
828.753
845.615
862.268
878.706
894.924
910.919
926.686
942.221
957.52
972.58
987.397
1001.97
1016.3
1030.37
1044.2
1057.77
1071.08
1084.14
1096.94
1109.49
1121.78
1133.8
1145.57
1157.09
1168.34
1179.34
1190.08
1200.57
1210.8
1220.78
1230.49
1240
1249.25
1258.25
1267.01
1275.53
1283.82
1291.87
1299.7
1307.3
1314.68
1321.84
1328.79
1335.53
1342.06
1348.4
1354.53
1360.48
1366.23
1371.8
1377.2
1382.42
1387.48
1392.37
1397.1
1401.68
1406.11
1410.4
1414.56
1418.58
1422.48
1426.25
1429.91
1433.47
1436.91
1440.26
1443.52
1446.69
1449.78
1452.79
1455.73
1458.6
1461.42
1464.18
1466.89
1469.56
1472.19
1474.79
1477.36
1479.91
1482.44
1484.96
1487.47
1489.98
1492.49
1495.01
1497.54
1500.09
1502.66
1505.25
1507.88
1510.54
1513.23
1515.98
1518.76
1521.6
1524.49
1527.44
1530.46
1533.53
1536.68
1539.9
1543.19
1546.56
1550.02
1553.56
1557.18
1560.89
1564.7
1568.6
1572.6
1576.7
1580.9
1585.2
1589.61
1594.13
1598.76
1603.49
1608.35
1613.31
1618.39
1623.59
1628.91
1634.35
1639.9
1645.58
1651.38
1657.31
1663.36
1669.53
1675.83
1682.25
1688.8
1695.47
1702.27
1709.2
1716.25
1723.43
1730.74
1738.17
1745.72
1753.4
1761.21
1769.14
1777.19
1785.36
1793.66
1802.07
1810.61
1819.26
1828.04
1836.92
1845.92
1855.04
1864.27
1873.6
1883.05
1892.6
1902.26
1912.02
1921.89
1931.85
1941.91
1952.06
1962.31
1972.65
1983.07
1993.59
2004.18
2014.86
2025.61
2036.44
2047.33
2058.3
2069.34
2080.43
2091.59
2102.8
2114.07
2125.38
2136.74
2148.14
2159.58
2171.06
2182.56
2194.1
2205.65
2217.22
2228.81
2240.41
2252.01
2263.61
2275.21
2286.8
2298.38
2309.93
2321.47
2332.98
2344.45
2355.89
2367.29
2378.64
2389.93
2401.17
2412.35
2423.46
2434.5
2445.46
2456.34
2467.13
2477.83
2488.43
2498.93
2509.32
2519.6
2529.75
2539.78
2549.68
2559.45
2569.07
2578.55
2587.88
2597.06
2606.08
2614.93
2623.61
2632.12
2640.45
2648.59
2656.55
2664.31
2671.88
2679.25
2686.42
2693.37
2700.11
2706.64
2712.94
2719.02
2724.88
2730.5
2735.89
2741.05
2745.96
2750.63
2755.06
2759.24
2763.17
2766.84
2770.27
2773.43
2776.34
2778.99
2781.38
2783.5
2785.36
2786.96
2788.29
2789.36
2790.15
2790.68
2790.96
-397.315
-396.779
-396
-394.87
-393.382
-391.516
-389.259
-386.607
-383.558
-380.113
-376.268
-372.022
-367.372
-362.312
-356.841
-350.953
-344.646
-337.916
-330.76
-323.175
-315.158
-306.708
-297.824
-288.506
-278.754
-268.569
-257.953
-246.911
-235.445
-223.56
-211.263
-198.559
-185.456
-171.962
-158.085
-143.833
-129.218
-114.249
-98.9368
-83.2923
-67.3271
-51.0528
-34.4817
-17.626
-0.498195
16.889
34.5227
52.3899
70.4776
88.7727
107.262
125.932
144.77
163.762
182.896
202.158
221.535
241.015
260.584
280.229
299.939
319.7
339.501
359.328
379.17
399.016
418.853
438.67
458.456
478.199
497.89
517.517
537.07
556.538
575.913
595.183
614.341
633.377
652.281
671.047
689.664
708.126
726.424
744.551
762.501
780.265
797.838
815.213
832.385
849.347
866.094
882.622
898.925
914.999
930.84
946.443
961.806
976.925
991.796
1006.42
1020.79
1034.9
1048.76
1062.36
1075.7
1088.78
1101.6
1114.15
1126.44
1138.47
1150.24
1161.75
1172.99
1183.97
1194.7
1205.16
1215.37
1225.32
1235.02
1244.47
1253.67
1262.63
1271.34
1279.8
1288.03
1296.03
1303.8
1311.33
1318.65
1325.74
1332.62
1339.28
1345.74
1351.99
1358.05
1363.91
1369.58
1375.06
1380.37
1385.5
1390.46
1395.26
1399.9
1404.38
1408.72
1412.91
1416.96
1420.88
1424.68
1428.35
1431.91
1435.36
1438.7
1441.95
1445.1
1448.17
1451.15
1454.06
1456.9
1459.67
1462.39
1465.05
1467.66
1470.23
1472.76
1475.26
1477.74
1480.19
1482.62
1485.05
1487.47
1489.89
1492.31
1494.74
1497.18
1499.65
1502.13
1504.65
1507.19
1509.77
1512.39
1515.06
1517.77
1520.54
1523.36
1526.25
1529.2
1532.21
1535.29
1538.45
1541.69
1545.01
1548.41
1551.89
1555.47
1559.13
1562.89
1566.75
1570.71
1574.77
1578.93
1583.2
1587.57
1592.06
1596.66
1601.36
1606.19
1611.13
1616.19
1621.37
1626.67
1632.08
1637.63
1643.29
1649.08
1654.99
1661.03
1667.2
1673.49
1679.91
1686.46
1693.13
1699.93
1706.86
1713.92
1721.1
1728.42
1735.85
1743.42
1751.11
1758.93
1766.87
1774.94
1783.13
1791.44
1799.88
1808.44
1817.11
1825.91
1834.82
1843.85
1852.99
1862.25
1871.61
1881.09
1890.68
1900.37
1910.17
1920.06
1930.06
1940.16
1950.36
1960.65
1971.03
1981.49
1992.05
2002.69
2013.41
2024.21
2035.09
2046.04
2057.06
2068.14
2079.29
2090.5
2101.77
2113.09
2124.47
2135.88
2147.35
2158.85
2170.38
2181.95
2193.55
2205.17
2216.8
2228.46
2240.12
2251.79
2263.46
2275.13
2286.79
2298.44
2310.07
2321.68
2333.26
2344.81
2356.33
2367.8
2379.22
2390.6
2401.92
2413.17
2424.36
2435.48
2446.51
2457.47
2468.34
2479.12
2489.8
2500.37
2510.84
2521.19
2531.42
2541.52
2551.5
2561.34
2571.04
2580.59
2589.99
2599.23
2608.32
2617.24
2625.98
2634.56
2642.95
2651.16
2659.17
2667
2674.62
2682.05
2689.26
2696.27
2703.06
2709.63
2715.98
2722.11
2728.01
2733.67
2739.1
2744.29
2749.23
2753.94
2758.39
2762.6
2766.55
2770.25
2773.69
2776.88
2779.81
2782.47
2784.87
2787.01
2788.88
2790.48
2791.82
2792.89
2793.69
2794.22
2794.51
-408.165
-407.611
-406.819
-405.678
-404.182
-402.309
-400.041
-397.375
-394.309
-390.843
-386.976
-382.705
-378.025
-372.934
-367.426
-361.497
-355.144
-348.361
-341.144
-333.49
-325.396
-316.859
-307.877
-298.451
-288.58
-278.266
-267.51
-256.316
-244.688
-232.631
-220.151
-207.255
-193.95
-180.246
-166.15
-151.673
-136.825
-121.616
-106.059
-90.1637
-73.9433
-57.4099
-40.576
-23.4545
-6.0583
11.5994
29.5051
47.6457
66.0075
84.577
103.341
122.285
141.396
160.661
180.066
199.598
219.243
238.989
258.821
278.728
298.696
318.712
338.764
358.84
378.928
399.014
419.089
439.139
459.153
479.121
499.031
518.873
538.636
558.309
577.884
597.349
616.697
635.917
655
673.938
692.723
711.346
729.8
748.077
766.171
784.073
801.779
819.28
836.572
853.648
870.504
887.134
903.534
919.698
935.623
951.305
966.741
981.926
996.858
1011.53
1025.95
1040.11
1054.01
1067.64
1081.01
1094.11
1106.94
1119.51
1131.81
1143.84
1155.6
1167.1
1178.33
1189.29
1199.99
1210.43
1220.61
1230.52
1240.18
1249.59
1258.74
1267.64
1276.3
1284.7
1292.87
1300.8
1308.5
1315.96
1323.2
1330.21
1337
1343.58
1349.95
1356.11
1362.07
1367.84
1373.41
1378.8
1384
1389.03
1393.88
1398.57
1403.1
1407.48
1411.7
1415.78
1419.72
1423.53
1427.21
1430.76
1434.21
1437.54
1440.76
1443.89
1446.93
1449.87
1452.74
1455.53
1458.25
1460.91
1463.5
1466.05
1468.55
1471
1473.42
1475.81
1478.17
1480.51
1482.84
1485.15
1487.47
1489.78
1492.1
1494.43
1496.77
1499.14
1501.53
1503.95
1506.4
1508.89
1511.43
1514.01
1516.64
1519.32
1522.07
1524.87
1527.74
1530.68
1533.7
1536.79
1539.96
1543.21
1546.55
1549.98
1553.49
1557.11
1560.81
1564.62
1568.53
1572.54
1576.66
1580.89
1585.23
1589.67
1594.24
1598.91
1603.71
1608.62
1613.65
1618.81
1624.08
1629.48
1635.01
1640.66
1646.43
1652.33
1658.36
1664.52
1670.81
1677.22
1683.76
1690.44
1697.24
1704.17
1711.23
1718.43
1725.75
1733.19
1740.77
1748.48
1756.31
1764.27
1772.35
1780.56
1788.9
1797.36
1805.94
1814.64
1823.46
1832.4
1841.46
1850.64
1859.93
1869.33
1878.84
1888.46
1898.19
1908.03
1917.97
1928.01
1938.16
1948.4
1958.73
1969.16
1979.68
1990.29
2000.98
2011.75
2022.61
2033.54
2044.55
2055.63
2066.77
2077.98
2089.26
2100.59
2111.97
2123.41
2134.9
2146.43
2158
2169.61
2181.25
2192.92
2204.61
2216.32
2228.05
2239.79
2251.54
2263.29
2275.04
2286.78
2298.51
2310.23
2321.92
2333.59
2345.22
2356.82
2368.38
2379.9
2391.36
2402.76
2414.11
2425.38
2436.59
2447.72
2458.76
2469.72
2480.59
2491.35
2502.01
2512.57
2523
2533.32
2543.51
2553.57
2563.5
2573.28
2582.91
2592.39
2601.72
2610.88
2619.87
2628.69
2637.34
2645.8
2654.08
2662.17
2670.06
2677.75
2685.23
2692.51
2699.58
2706.42
2713.05
2719.45
2725.63
2731.57
2737.28
2742.76
2747.99
2752.97
2757.71
2762.2
2766.44
2770.43
2774.15
2777.62
2780.83
2783.78
2786.46
2788.88
2791.03
2792.92
2794.53
2795.88
2796.96
2797.76
2798.3
2798.58
-420.481
-419.906
-419.097
-417.94
-416.433
-414.549
-412.268
-409.584
-406.498
-403.008
-399.115
-394.815
-390.105
-384.979
-379.433
-373.461
-367.058
-360.217
-352.935
-345.206
-337.026
-328.392
-319.302
-309.754
-299.749
-289.287
-278.371
-267.004
-255.19
-242.935
-230.245
-217.128
-203.591
-189.645
-175.298
-160.561
-145.445
-129.962
-114.123
-97.9413
-81.429
-64.599
-47.4648
-30.0397
-12.3373
5.62881
23.8447
42.2964
60.9701
79.8519
98.9277
118.184
137.606
157.18
176.893
196.731
216.68
236.727
256.858
277.06
297.321
317.626
337.964
358.321
378.685
399.045
419.388
439.701
459.975
480.196
500.355
520.44
540.44
560.345
580.146
599.832
619.393
638.821
658.106
677.239
696.213
715.019
733.649
752.095
770.351
788.409
806.264
823.907
841.335
858.54
875.518
892.263
908.77
925.036
941.056
956.826
972.343
987.603
1002.6
1017.34
1031.82
1046.02
1059.96
1073.63
1087.03
1100.15
1113.01
1125.58
1137.89
1149.92
1161.68
1173.17
1184.38
1195.32
1206
1216.4
1226.54
1236.42
1246.03
1255.39
1264.48
1273.32
1281.91
1290.25
1298.35
1306.2
1313.81
1321.19
1328.34
1335.26
1341.96
1348.44
1354.71
1360.77
1366.63
1372.28
1377.74
1383.02
1388.1
1393.01
1397.75
1402.32
1406.72
1410.97
1415.06
1419.02
1422.83
1426.5
1430.05
1433.48
1436.78
1439.98
1443.07
1446.07
1448.97
1451.78
1454.51
1457.17
1459.76
1462.28
1464.74
1467.16
1469.52
1471.85
1474.14
1476.4
1478.63
1480.85
1483.05
1485.25
1487.44
1489.64
1491.84
1494.06
1496.29
1498.54
1500.83
1503.14
1505.49
1507.88
1510.31
1512.8
1515.33
1517.92
1520.58
1523.3
1526.09
1528.95
1531.88
1534.89
1537.99
1541.17
1544.44
1547.8
1551.25
1554.8
1558.45
1562.21
1566.06
1570.02
1574.09
1578.27
1582.57
1586.97
1591.5
1596.14
1600.9
1605.78
1610.78
1615.91
1621.16
1626.54
1632.04
1637.67
1643.43
1649.32
1655.34
1661.49
1667.77
1674.18
1680.72
1687.39
1694.2
1701.13
1708.2
1715.4
1722.73
1730.19
1737.78
1745.5
1753.35
1761.32
1769.43
1777.66
1786.02
1794.51
1803.11
1811.85
1820.7
1829.67
1838.76
1847.97
1857.3
1866.74
1876.3
1885.96
1895.73
1905.62
1915.6
1925.69
1935.89
1946.18
1956.57
1967.05
1977.62
1988.29
1999.04
2009.87
2020.79
2031.79
2042.86
2054
2065.21
2076.49
2087.84
2099.24
2110.7
2122.21
2133.78
2145.38
2157.03
2168.72
2180.44
2192.19
2203.97
2215.77
2227.58
2239.41
2251.25
2263.09
2274.93
2286.76
2298.59
2310.39
2322.18
2333.94
2345.68
2357.37
2369.03
2380.64
2392.2
2403.71
2415.15
2426.53
2437.84
2449.07
2460.21
2471.27
2482.23
2493.1
2503.86
2514.51
2525.05
2535.46
2545.75
2555.9
2565.92
2575.79
2585.52
2595.09
2604.51
2613.76
2622.84
2631.74
2640.47
2649.02
2657.37
2665.53
2673.5
2681.26
2688.82
2696.17
2703.3
2710.21
2716.9
2723.36
2729.59
2735.59
2741.35
2746.88
2752.15
2757.19
2761.97
2766.5
2770.77
2774.79
2778.55
2782.05
2785.29
2788.26
2790.97
2793.41
2795.58
2797.48
2799.11
2800.47
2801.55
2802.37
2802.91
2803.19
-434.313
-433.71
-432.879
-431.7
-430.177
-428.278
-425.979
-423.273
-420.16
-416.642
-412.72
-408.389
-403.646
-398.484
-392.899
-386.882
-380.428
-373.528
-366.177
-358.367
-350.095
-341.355
-332.144
-322.462
-312.306
-301.678
-290.58
-279.016
-266.991
-254.51
-241.581
-228.211
-214.41
-200.188
-185.555
-170.522
-155.102
-139.307
-123.149
-106.641
-89.7981
-72.6324
-55.1585
-37.3902
-19.342
-1.02794
17.5375
36.3398
55.3647
74.5976
94.0242
113.63
133.401
153.323
173.381
193.562
213.852
234.236
254.702
275.235
295.823
316.452
337.109
357.781
378.455
399.12
419.763
440.371
460.934
481.439
501.875
522.231
542.496
562.661
582.714
602.645
622.445
642.105
661.615
680.966
700.15
719.159
737.985
756.62
775.057
793.289
811.309
829.111
846.689
864.037
881.15
898.023
914.651
931.029
947.154
963.022
978.629
993.971
1009.05
1023.85
1038.39
1052.65
1066.63
1080.34
1093.77
1106.92
1119.8
1132.39
1144.7
1156.73
1168.48
1179.95
1191.15
1202.07
1212.71
1223.08
1233.18
1243.01
1252.57
1261.87
1270.91
1279.68
1288.19
1296.45
1304.47
1312.23
1319.76
1327.04
1334.09
1340.91
1347.5
1353.88
1360.03
1365.97
1371.71
1377.24
1382.58
1387.72