/*--------------------------------*- C++ -*----------------------------------*\
| =========                 |                                                 |
| \\      /  F ield         | OpenFOAM: The Open Source CFD Toolbox           |
|  \\    /   O peration     | Version:  v2006                                 |
|   \\  /    A nd           | Website:  www.openfoam.com                      |
|    \\/     M anipulation  |                                                 |
\*---------------------------------------------------------------------------*/
FoamFile
{
    version     2.0;
    format      ascii;
    class       volVectorField;
    location    "0";
    object      U;
}
// * * * * * * * * * * * * * * * * * * * * * * * * * * * * * * * * * * * * * //

dimensions      [0 1 -1 0 0 0 0];


internalField   nonuniform List<vector> 
67500
(
(-0.0116732 0.016521 0)
(-0.0415882 0.00538273 0)
(-0.0412947 -0.0389986 0)
(0.0194864 -0.0190444 0)
(-0.0319228 -0.0400301 0)
(-0.0601482 -0.0430838 0)
(-0.0574632 -0.00244293 0)
(-0.0542158 -0.00544257 0)
(-0.0208776 -0.0294446 0)
(0.0159594 -0.0322641 0)
(0.058269 -0.0325408 0)
(0.102095 -0.0322191 0)
(0.140976 -0.0295264 0)
(0.172368 -0.025487 0)
(0.200274 -0.0221852 0)
(0.230794 -0.0204431 0)
(0.267206 -0.01503 0)
(0.294781 -0.00306822 0)
(0.279463 0.00834091 0)
(0.229041 0.0136776 0)
(0.180716 0.00607587 0)
(0.159208 -0.00822734 0)
(0.153298 -0.0157517 0)
(0.154744 -0.01689 0)
(0.162997 -0.0146894 0)
(0.173238 -0.0129912 0)
(0.183328 -0.0117471 0)
(0.192198 -0.0101142 0)
(0.199274 -0.00788884 0)
(0.205344 -0.00557834 0)
(0.210964 -0.00362529 0)
(0.215554 -0.00241536 0)
(0.218732 -0.00195977 0)
(0.221236 -0.00175955 0)
(0.223775 -0.00140017 0)
(0.22662 -0.00119938 0)
(0.230057 -0.00107843 0)
(0.23417 -0.000844106 0)
(0.238897 -0.000642267 0)
(0.244346 -0.0007016 0)
(0.250712 -0.0011293 0)
(0.258102 -0.00186083 0)
(0.26643 -0.00272289 0)
(0.275411 -0.00352026 0)
(0.284636 -0.00411262 0)
(0.293677 -0.00447927 0)
(0.302205 -0.00469435 0)
(0.310053 -0.00483114 0)
(0.317214 -0.0049125 0)
(0.323808 -0.00491077 0)
(0.330033 -0.00479996 0)
(0.336113 -0.00459672 0)
(0.34226 -0.00435709 0)
(0.348639 -0.00414391 0)
(0.355335 -0.0039972 0)
(0.362339 -0.00392464 0)
(0.369556 -0.00390836 0)
(0.376835 -0.00391786 0)
(0.38402 -0.00392063 0)
(0.390991 -0.00388929 0)
(0.397701 -0.00380814 0)
(0.404173 -0.00367995 0)
(0.410498 -0.00352935 0)
(0.416802 -0.0033971 0)
(0.423216 -0.00332655 0)
(0.429847 -0.00334729 0)
(0.436757 -0.0034635 0)
(0.44396 -0.00365267 0)
(0.451419 -0.00387417 0)
(0.459063 -0.00408229 0)
(0.466804 -0.00423756 0)
(0.474564 -0.00431359 0)
(0.482284 -0.00430027 0)
(0.489939 -0.00420478 0)
(0.497525 -0.00404989 0)
(0.505061 -0.00386854 0)
(0.512565 -0.00369555 0)
(0.52005 -0.00355538 0)
(0.527489 -0.00344049 0)
(0.534753 -0.00329875 0)
(0.541677 -0.00314433 0)
(0.548292 -0.0030792 0)
(0.554774 -0.00310257 0)
(0.561214 -0.00315937 0)
(0.567606 -0.003216 0)
(0.573936 -0.00326137 0)
(0.580202 -0.00329431 0)
(0.586415 -0.00331724 0)
(0.592599 -0.00333367 0)
(0.598788 -0.00334728 0)
(0.60502 -0.00336164 0)
(0.611336 -0.00337927 0)
(0.617764 -0.00339885 0)
(0.624319 -0.00341372 0)
(0.630984 -0.00341415 0)
(0.637713 -0.00338863 0)
(0.644433 -0.00333403 0)
(0.651097 -0.00327977 0)
(0.657726 -0.00324969 0)
(0.664364 -0.00323985 0)
(0.671036 -0.00324118 0)
(0.677749 -0.00324871 0)
(0.6845 -0.00325852 0)
(0.691276 -0.00326621 0)
(0.698055 -0.00326683 0)
(0.704798 -0.00325401 0)
(0.711457 -0.00322372 0)
(0.717994 -0.00318728 0)
(0.724422 -0.00316516 0)
(0.730787 -0.00316155 0)
(0.73713 -0.00316605 0)
(0.74346 -0.00316729 0)
(0.749767 -0.00315667 0)
(0.756026 -0.00313021 0)
(0.762214 -0.00309277 0)
(0.768325 -0.00305587 0)
(0.774375 -0.00302575 0)
(0.78038 -0.00299955 0)
(0.786343 -0.00297221 0)
(0.792254 -0.00294123 0)
(0.798104 -0.00290793 0)
(0.803888 -0.00287553 0)
(0.80961 -0.00284502 0)
(0.815273 -0.00281457 0)
(0.820872 -0.00278233 0)
(0.826404 -0.00274801 0)
(0.831864 -0.00271226 0)
(0.837252 -0.00267518 0)
(0.842563 -0.00263631 0)
(0.847795 -0.00259541 0)
(0.852944 -0.00255267 0)
(0.858005 -0.00250827 0)
(0.862977 -0.00246223 0)
(0.867855 -0.00241457 0)
(0.872635 -0.00236546 0)
(0.877317 -0.002315 0)
(0.881895 -0.00226332 0)
(0.886369 -0.00221057 0)
(0.890737 -0.00215689 0)
(0.894996 -0.00210246 0)
(0.899146 -0.00204743 0)
(0.903185 -0.00199193 0)
(0.907112 -0.00193612 0)
(0.910928 -0.00188012 0)
(0.914632 -0.00182405 0)
(0.918223 -0.00176801 0)
(0.921702 -0.0017121 0)
(0.92507 -0.00165642 0)
(0.928326 -0.00160104 0)
(0.931473 -0.00154604 0)
(0.934509 -0.00149149 0)
(0.937437 -0.00143747 0)
(0.940257 -0.00138405 0)
(0.942971 -0.00133133 0)
(0.945581 -0.0012794 0)
(0.948087 -0.00122836 0)
(0.950493 -0.00117831 0)
(0.952799 -0.00112936 0)
(0.955008 -0.0010816 0)
(0.957123 -0.00103509 0)
(0.959147 -0.000989913 0)
(0.961081 -0.00094612 0)
(0.962929 -0.000903751 0)
(0.964694 -0.000862835 0)
(0.966379 -0.00082339 0)
(0.967986 -0.000785424 0)
(0.969519 -0.000748935 0)
(0.97098 -0.000713914 0)
(0.972373 -0.000680345 0)
(0.9737 -0.000648204 0)
(0.974964 -0.000617463 0)
(0.976168 -0.000588088 0)
(0.977315 -0.000560041 0)
(0.978407 -0.000533281 0)
(0.979447 -0.000507763 0)
(0.980437 -0.000483441 0)
(0.981379 -0.000460269 0)
(0.982277 -0.000438199 0)
(0.983131 -0.000417183 0)
(0.983944 -0.000397175 0)
(0.984719 -0.00037813 0)
(0.985456 -0.000360001 0)
(0.986158 -0.000342745 0)
(0.986826 -0.00032632 0)
(0.987462 -0.000310684 0)
(0.988068 -0.000295796 0)
(0.988644 -0.000281619 0)
(0.989193 -0.000268112 0)
(0.989716 -0.00025524 0)
(0.990214 -0.000242966 0)
(0.990687 -0.000231257 0)
(0.991138 -0.000220079 0)
(0.991567 -0.000209405 0)
(0.991975 -0.000199205 0)
(0.992363 -0.000189456 0)
(0.992732 -0.000180135 0)
(0.993083 -0.000171224 0)
(0.993417 -0.000162705 0)
(0.993734 -0.000154565 0)
(0.994035 -0.000146791 0)
(0.994321 -0.000139372 0)
(0.994592 -0.000132298 0)
(0.994849 -0.000125559 0)
(0.995094 -0.000119146 0)
(0.995326 -0.00011305 0)
(0.995546 -0.000107262 0)
(0.995755 -0.000101771 0)
(0.995953 -9.65683e-05 0)
(0.996141 -9.16419e-05 0)
(0.996319 -8.69811e-05 0)
(0.996489 -8.25746e-05 0)
(0.99665 -7.84109e-05 0)
(0.996802 -7.44782e-05 0)
(0.996948 -7.07649e-05 0)
(0.997085 -6.72594e-05 0)
(0.997217 -6.39504e-05 0)
(0.997341 -6.08267e-05 0)
(0.99746 -5.78774e-05 0)
(0.997573 -5.50919e-05 0)
(0.99768 -5.24599e-05 0)
(0.997782 -4.99715e-05 0)
(0.99788 -4.76172e-05 0)
(0.997973 -4.53878e-05 0)
(0.998062 -4.32747e-05 0)
(0.998146 -4.12694e-05 0)
(0.998227 -3.93642e-05 0)
(0.998303 -3.75516e-05 0)
(0.998377 -3.58248e-05 0)
(0.998447 -3.41773e-05 0)
(0.998513 -3.26033e-05 0)
(0.998577 -3.10974e-05 0)
(0.998638 -2.96547e-05 0)
(0.998696 -2.8271e-05 0)
(0.998751 -2.69423e-05 0)
(0.998803 -2.56653e-05 0)
(0.998853 -2.4437e-05 0)
(0.998901 -2.3255e-05 0)
(0.998946 -2.21171e-05 0)
(0.998989 -2.10214e-05 0)
(0.99903 -1.99664e-05 0)
(0.999069 -1.89508e-05 0)
(0.999106 -1.79737e-05 0)
(0.999141 -1.70339e-05 0)
(0.999174 -1.61308e-05 0)
(0.999206 -1.52636e-05 0)
(0.999235 -1.44318e-05 0)
(0.999263 -1.36348e-05 0)
(0.99929 -1.2872e-05 0)
(0.999315 -1.2143e-05 0)
(0.999338 -1.14471e-05 0)
(0.999361 -1.07839e-05 0)
(0.999381 -1.01527e-05 0)
(0.999401 -9.55295e-06 0)
(0.99942 -8.98401e-06 0)
(0.999437 -8.44521e-06 0)
(0.999453 -7.93581e-06 0)
(0.999469 -7.45509e-06 0)
(0.999483 -7.00227e-06 0)
(0.999497 -6.57653e-06 0)
(0.999509 -6.17704e-06 0)
(0.999521 -5.80296e-06 0)
(0.999533 -5.45341e-06 0)
(0.999543 -5.1275e-06 0)
(0.999553 -4.82434e-06 0)
(0.999562 -4.54302e-06 0)
(0.999571 -4.28264e-06 0)
(0.99958 -4.04229e-06 0)
(0.999587 -3.82106e-06 0)
(0.999595 -3.61805e-06 0)
(0.999602 -3.43236e-06 0)
(0.999609 -3.2631e-06 0)
(0.999615 -3.10939e-06 0)
(0.999621 -2.97035e-06 0)
(0.999627 -2.84515e-06 0)
(0.999632 -2.73292e-06 0)
(0.999638 -2.63285e-06 0)
(0.999643 -2.54413e-06 0)
(0.999648 -2.46597e-06 0)
(0.999653 -2.39759e-06 0)
(0.999657 -2.33825e-06 0)
(0.999662 -2.28723e-06 0)
(0.999667 -2.2438e-06 0)
(0.999671 -2.20731e-06 0)
(0.999675 -2.17708e-06 0)
(0.99968 -2.1525e-06 0)
(0.999684 -2.13296e-06 0)
(0.999688 -2.1179e-06 0)
(0.999692 -2.10675e-06 0)
(0.999697 -2.099e-06 0)
(0.999701 -2.09416e-06 0)
(0.999705 -2.09177e-06 0)
(0.999709 -2.09138e-06 0)
(0.999713 -2.09258e-06 0)
(0.999718 -2.09499e-06 0)
(0.999722 -2.09824e-06 0)
(0.999726 -2.10198e-06 0)
(0.99973 -2.1059e-06 0)
(0.999734 -2.10969e-06 0)
(0.999739 -2.11309e-06 0)
(0.999743 -2.11581e-06 0)
(0.999747 -2.11763e-06 0)
(0.999751 -2.1183e-06 0)
(0.999756 -2.1176e-06 0)
(0.99976 -2.11534e-06 0)
(0.999764 -2.11132e-06 0)
(0.999768 -2.10536e-06 0)
(0.999772 -2.0973e-06 0)
(0.999777 -2.08697e-06 0)
(0.999781 -2.07423e-06 0)
(0.999785 -2.05895e-06 0)
(0.999789 -2.04102e-06 0)
(0.999793 -2.02032e-06 0)
(0.999797 -1.99678e-06 0)
(0.999801 -1.97032e-06 0)
(0.999805 -1.94089e-06 0)
(0.999809 -1.90848e-06 0)
(0.999813 -1.87307e-06 0)
(0.999816 -1.8347e-06 0)
(0.99982 -1.79343e-06 0)
(0.999824 -1.74935e-06 0)
(0.999827 -1.70257e-06 0)
(0.99983 -1.65327e-06 0)
(0.999834 -1.60164e-06 0)
(0.999837 -1.54791e-06 0)
(0.99984 -1.49237e-06 0)
(0.999843 -1.43531e-06 0)
(0.999846 -1.37707e-06 0)
(0.999848 -1.31802e-06 0)
(0.999851 -1.25855e-06 0)
(0.999853 -1.19904e-06 0)
(0.999856 -1.13989e-06 0)
(0.999858 -1.08151e-06 0)
(0.99986 -1.02428e-06 0)
(0.999862 -9.68573e-07 0)
(0.999864 -9.1472e-07 0)
(0.999866 -8.63037e-07 0)
(0.999867 -8.13801e-07 0)
(0.999869 -7.67256e-07 0)
(0.99987 -7.23616e-07 0)
(0.999872 -6.83061e-07 0)
(0.999873 -6.4575e-07 0)
(0.999874 -6.11815e-07 0)
(0.999875 -5.81372e-07 0)
(0.999877 -5.54516e-07 0)
(0.999878 -5.31322e-07 0)
(0.999879 -5.11844e-07 0)
(0.99988 -4.96098e-07 0)
(0.999881 -4.84063e-07 0)
(0.999882 -4.75657e-07 0)
(0.999883 -4.70731e-07 0)
(0.999883 -4.69048e-07 0)
(0.999884 -4.70275e-07 0)
(0.999885 -4.73973e-07 0)
(0.999886 -4.79596e-07 0)
(0.999887 -4.86499e-07 0)
(0.999888 -4.93955e-07 0)
(0.999889 -5.0119e-07 0)
(0.99989 -5.07417e-07 0)
(0.999891 -5.11895e-07 0)
(0.999892 -5.13985e-07 0)
(0.999893 -5.1321e-07 0)
(0.999894 -5.09304e-07 0)
(0.999895 -5.02253e-07 0)
(0.999896 -4.92306e-07 0)
(0.999897 -4.79976e-07 0)
(0.999898 -4.66002e-07 0)
(0.999899 -4.51302e-07 0)
(0.9999 -4.36896e-07 0)
(0.999901 -4.23832e-07 0)
(0.999902 -4.13095e-07 0)
(0.999903 -4.05538e-07 0)
(0.999904 -4.01818e-07 0)
(0.999905 -4.02352e-07 0)
(0.999906 -4.07306e-07 0)
(0.999907 -4.1659e-07 0)
(0.999908 -4.29886e-07 0)
(0.999909 -4.46682e-07 0)
(0.99991 -4.6632e-07 0)
(0.999911 -4.88048e-07 0)
(0.999912 -5.11065e-07 0)
(0.999913 -5.34577e-07 0)
(0.999914 -5.57825e-07 0)
(0.999915 -5.80123e-07 0)
(0.999916 -6.0088e-07 0)
(0.999918 -6.1961e-07 0)
(0.999919 -6.35939e-07 0)
(0.99992 -6.49605e-07 0)
(0.999922 -6.60448e-07 0)
(0.999923 -6.68407e-07 0)
(0.999924 -6.73499e-07 0)
(0.999926 -6.75811e-07 0)
(0.999927 -6.75485e-07 0)
(0.999928 -6.72704e-07 0)
(0.99993 -6.67678e-07 0)
(0.999931 -6.60635e-07 0)
(0.999932 -6.51814e-07 0)
(0.999934 -6.41451e-07 0)
(0.999935 -6.29777e-07 0)
(0.999936 -6.17016e-07 0)
(0.999937 -6.03373e-07 0)
(0.999938 -5.89042e-07 0)
(0.99994 -5.74197e-07 0)
(0.999941 -5.58994e-07 0)
(0.999942 -5.43574e-07 0)
(0.999943 -5.28057e-07 0)
(0.999944 -5.1255e-07 0)
(0.999945 -4.97143e-07 0)
(0.999946 -4.81913e-07 0)
(0.999947 -4.66922e-07 0)
(0.999948 -4.52224e-07 0)
(0.999949 -4.37859e-07 0)
(0.99995 -4.23861e-07 0)
(0.99995 -4.10255e-07 0)
(0.999951 -3.97059e-07 0)
(0.999952 -3.84284e-07 0)
(0.999953 -3.71938e-07 0)
(0.999953 -3.60023e-07 0)
(0.999954 -3.48539e-07 0)
(0.999955 -3.37483e-07 0)
(0.999955 -3.26846e-07 0)
(0.999956 -3.16623e-07 0)
(0.999957 -3.06802e-07 0)
(0.999957 -2.97373e-07 0)
(0.999958 -2.88323e-07 0)
(0.999958 -2.79641e-07 0)
(0.999959 -2.71314e-07 0)
(0.99996 -2.63327e-07 0)
(0.99996 -2.55668e-07 0)
(0.999961 -2.48324e-07 0)
(0.999961 -2.4128e-07 0)
(0.999962 -2.34523e-07 0)
(0.999962 -2.28042e-07 0)
(0.999962 -2.21823e-07 0)
(0.999963 -2.15853e-07 0)
(0.999963 -2.10122e-07 0)
(0.999964 -2.04617e-07 0)
(0.999964 -1.99328e-07 0)
(0.999964 -1.94243e-07 0)
(0.999965 -1.89353e-07 0)
(0.999965 -1.84648e-07 0)
(0.999966 -1.80117e-07 0)
(0.999966 -1.75753e-07 0)
(0.999966 -1.71546e-07 0)
(0.999967 -1.67488e-07 0)
(0.999967 -1.63573e-07 0)
(0.999967 -1.59785e-07 0)
(0.999968 -1.56153e-07 0)
(0.999968 -1.52515e-07 0)
(0.999968 -1.49539e-07 0)
(0.999969 -1.44257e-07 0)
(-0.00611162 0.0312238 0)
(-0.0192435 0.0213742 0)
(0.0135167 -0.0431172 0)
(-0.00366161 0.00978791 0)
(0.017577 0.108308 0)
(-0.0658884 0.0640429 0)
(-0.121384 -0.0109187 0)
(-0.162917 -0.0452023 0)
(-0.0120921 -0.0415075 0)
(-0.0283114 -0.0662666 0)
(0.00462069 -0.0661121 0)
(0.0368996 -0.0505142 0)
(0.0465303 -0.0420301 0)
(0.0355051 -0.0424556 0)
(0.0465791 -0.041381 0)
(0.0922463 -0.057473 0)
(0.131761 -0.0641582 0)
(0.204938 -0.00845603 0)
(0.275566 0.0391309 0)
(0.289189 0.06769 0)
(0.277807 0.0632065 0)
(0.264372 0.0416398 0)
(0.254178 0.0210755 0)
(0.24661 0.00688836 0)
(0.237017 -0.00401686 0)
(0.226969 -0.00935136 0)
(0.217432 -0.00891666 0)
(0.211067 -0.00694471 0)
(0.210932 -0.00663936 0)
(0.217565 -0.00766552 0)
(0.228224 -0.00683219 0)
(0.238974 -0.00493865 0)
(0.248922 -0.00404152 0)
(0.259433 -0.00417449 0)
(0.270796 -0.0036245 0)
(0.282786 -0.0047612 0)
(0.294258 -0.0063489 0)
(0.305444 -0.00774631 0)
(0.316484 -0.00917246 0)
(0.327128 -0.0106635 0)
(0.337099 -0.0121394 0)
(0.346235 -0.0134089 0)
(0.354462 -0.0142397 0)
(0.361902 -0.0145006 0)
(0.368864 -0.0141183 0)
(0.375646 -0.0130868 0)
(0.382297 -0.0116106 0)
(0.388803 -0.00998209 0)
(0.395141 -0.0085429 0)
(0.40133 -0.007553 0)
(0.407429 -0.00713953 0)
(0.413499 -0.00729488 0)
(0.419585 -0.00789373 0)
(0.425695 -0.00872962 0)
(0.431791 -0.00956828 0)
(0.437819 -0.0102033 0)
(0.443729 -0.0105013 0)
(0.449487 -0.0104323 0)
(0.455091 -0.0100709 0)
(0.460563 -0.00956736 0)
(0.465961 -0.00909877 0)
(0.471364 -0.00881542 0)
(0.476858 -0.00880178 0)
(0.482498 -0.00905515 0)
(0.488287 -0.00949849 0)
(0.494165 -0.0100193 0)
(0.500034 -0.0105082 0)
(0.505783 -0.0108826 0)
(0.511304 -0.0111004 0)
(0.516516 -0.0111644 0)
(0.521372 -0.0111194 0)
(0.525863 -0.0110366 0)
(0.530018 -0.0109881 0)
(0.533893 -0.011023 0)
(0.537564 -0.0111549 0)
(0.541112 -0.0113602 0)
(0.544617 -0.0115827 0)
(0.548168 -0.0117495 0)
(0.551852 -0.0117358 0)
(0.555608 -0.0113298 0)
(0.559269 -0.0107296 0)
(0.562886 -0.0103688 0)
(0.566719 -0.0101531 0)
(0.570852 -0.00994174 0)
(0.575239 -0.00971278 0)
(0.579845 -0.00948072 0)
(0.584656 -0.00927022 0)
(0.589663 -0.00910958 0)
(0.594861 -0.00902216 0)
(0.600245 -0.00901992 0)
(0.605816 -0.00910219 0)
(0.611578 -0.00925641 0)
(0.617539 -0.00945762 0)
(0.623699 -0.00967246 0)
(0.630036 -0.00986236 0)
(0.636496 -0.00997335 0)
(0.64297 -0.00995806 0)
(0.649391 -0.0099194 0)
(0.65581 -0.00994308 0)
(0.662303 -0.0100165 0)
(0.668896 -0.0101087 0)
(0.67559 -0.010199 0)
(0.682378 -0.0102707 0)
(0.689243 -0.010307 0)
(0.69616 -0.0102898 0)
(0.70308 -0.0101965 0)
(0.70993 -0.010014 0)
(0.716637 -0.00979732 0)
(0.723213 -0.00963867 0)
(0.729731 -0.0095544 0)
(0.736241 -0.00950798 0)
(0.742747 -0.00946664 0)
(0.749227 -0.00940616 0)
(0.755642 -0.00931146 0)
(0.761949 -0.00919459 0)
(0.768143 -0.00909236 0)
(0.774254 -0.009021 0)
(0.780313 -0.00896468 0)
(0.786323 -0.00890174 0)
(0.792271 -0.00882071 0)
(0.798143 -0.00872609 0)
(0.803937 -0.00863129 0)
(0.809664 -0.00854099 0)
(0.815331 -0.00844911 0)
(0.820934 -0.00835007 0)
(0.826468 -0.00824437 0)
(0.831928 -0.00813535 0)
(0.837316 -0.00802367 0)
(0.842629 -0.00790728 0)
(0.847863 -0.00778505 0)
(0.853013 -0.00765745 0)
(0.858077 -0.00752487 0)
(0.863052 -0.00738709 0)
(0.867932 -0.00724416 0)
(0.872716 -0.00709664 0)
(0.8774 -0.00694502 0)
(0.881982 -0.00678971 0)
(0.886459 -0.00663119 0)
(0.890828 -0.00646999 0)
(0.89509 -0.00630656 0)
(0.899241 -0.00614134 0)
(0.903281 -0.00597476 0)
(0.90721 -0.00580724 0)
(0.911027 -0.00563916 0)
(0.914731 -0.00547087 0)
(0.918322 -0.0053027 0)
(0.921802 -0.00513494 0)
(0.925169 -0.00496787 0)
(0.928426 -0.00480171 0)
(0.931572 -0.00463669 -1.24493e-41)
(0.934608 -0.00447301 -1.33013e-41)
(0.937535 -0.00431091 0)
(0.940354 -0.00415061 0)
(0.943067 -0.0039924 0)
(0.945676 -0.00383656 0)
(0.948181 -0.0036834 0)
(0.950584 -0.00353322 0)
(0.952889 -0.00338633 0)
(0.955096 -0.00324299 0)
(0.957209 -0.00310345 0)
(0.95923 -0.00296791 0)
(0.961162 -0.00283653 0)
(0.963007 -0.00270943 0)
(0.96477 -0.0025867 0)
(0.966452 -0.00246839 0)
(0.968056 -0.00235452 0)
(0.969586 -0.00224509 0)
(0.971045 -0.00214007 0)
(0.972435 -0.00203941 0)
(0.973759 -0.00194304 0)
(0.975021 -0.00185087 0)
(0.976223 -0.0017628 0)
(0.977367 -0.00167872 0)
(0.978457 -0.0015985 0)
(0.979494 -0.001522 0)
(0.980482 -0.0014491 0)
(0.981423 -0.00137964 0)
(0.982318 -0.00131348 0)
(0.98317 -0.00125049 0)
(0.983982 -0.00119052 0)
(0.984754 -0.00113343 0)
(0.98549 -0.00107909 0)
(0.98619 -0.00102736 0)
(0.986857 -0.000978126 0)
(0.987492 -0.000931254 0)
(0.988096 -0.000886625 0)
(0.988671 -0.000844122 0)
(0.989219 -0.000803631 0)
(0.989741 -0.00076504 0)
(0.990237 -0.000728244 0)
(0.99071 -0.000693141 0)
(0.991159 -0.000659634 0)
(0.991587 -0.000627636 0)
(0.991995 -0.000597064 0)
(0.992382 -0.000567845 0)
(0.99275 -0.000539914 0)
(0.9931 -0.000513213 0)
(0.993433 -0.000487693 0)
(0.993749 -0.00046331 0)
(0.99405 -0.000440025 0)
(0.994335 -0.000417806 0)
(0.994606 -0.00039662 0)
(0.994862 -0.00037644 0)
(0.995106 -0.000357237 0)
(0.995338 -0.000338982 0)
(0.995557 -0.000321647 0)
(0.995765 -0.000305202 0)
(0.995963 -0.000289615 0)
(0.99615 -0.000274856 0)
(0.996328 -0.000260889 0)
(0.996497 -0.000247683 0)
(0.996658 -0.000235201 0)
(0.99681 -0.00022341 0)
(0.996955 -0.000212275 0)
(0.997092 -0.000201761 0)
(0.997223 -0.000191835 0)
(0.997347 -0.000182463 0)
(0.997465 -0.000173613 0)
(0.997578 -0.000165255 0)
(0.997685 -0.000157356 0)
(0.997787 -0.000149888 0)
(0.997885 -0.000142823 0)
(0.997977 -0.000136133 0)
(0.998066 -0.000129791 0)
(0.99815 -0.000123774 0)
(0.99823 -0.000118057 0)
(0.998307 -0.000112619 0)
(0.99838 -0.000107439 0)
(0.99845 -0.000102496 0)
(0.998516 -9.77744e-05 0)
(0.99858 -9.3257e-05 0)
(0.998641 -8.89294e-05 0)
(0.998698 -8.47784e-05 0)
(0.998753 -8.07925e-05 0)
(0.998806 -7.69615e-05 0)
(0.998856 -7.32766e-05 0)
(0.998903 -6.97301e-05 0)
(0.998949 -6.63158e-05 0)
(0.998992 -6.30281e-05 0)
(0.999033 -5.98624e-05 0)
(0.999071 -5.6815e-05 0)
(0.999108 -5.38826e-05 0)
(0.999143 -5.10626e-05 0)
(0.999176 -4.83526e-05 0)
(0.999207 -4.57506e-05 0)
(0.999237 -4.32549e-05 0)
(0.999265 -4.08637e-05 0)
(0.999291 -3.85754e-05 0)
(0.999316 -3.63885e-05 0)
(0.99934 -3.43013e-05 0)
(0.999362 -3.23122e-05 0)
(0.999383 -3.04194e-05 0)
(0.999402 -2.86211e-05 0)
(0.999421 -2.69154e-05 0)
(0.999438 -2.53001e-05 0)
(0.999454 -2.37731e-05 0)
(0.99947 -2.23323e-05 0)
(0.999484 -2.09751e-05 0)
(0.999498 -1.96993e-05 0)
(0.99951 -1.85022e-05 0)
(0.999522 -1.73813e-05 0)
(0.999533 -1.63339e-05 0)
(0.999544 -1.53575e-05 0)
(0.999554 -1.44493e-05 0)
(0.999563 -1.36066e-05 0)
(0.999572 -1.28266e-05 0)
(0.99958 -1.21067e-05 0)
(0.999588 -1.14441e-05 0)
(0.999595 -1.08362e-05 0)
(0.999602 -1.02801e-05 0)
(0.999609 -9.77332e-06 0)
(0.999615 -9.31315e-06 0)
(0.999621 -8.89698e-06 0)
(0.999627 -8.52226e-06 0)
(0.999633 -8.18646e-06 0)
(0.999638 -7.8871e-06 0)
(0.999643 -7.62176e-06 0)
(0.999648 -7.38806e-06 0)
(0.999653 -7.1837e-06 0)
(0.999658 -7.00642e-06 0)
(0.999662 -6.85405e-06 0)
(0.999667 -6.72446e-06 0)
(0.999671 -6.61563e-06 0)
(0.999675 -6.52559e-06 0)
(0.99968 -6.45245e-06 0)
(0.999684 -6.39442e-06 0)
(0.999688 -6.34976e-06 0)
(0.999692 -6.31683e-06 0)
(0.999697 -6.29408e-06 0)
(0.999701 -6.28004e-06 0)
(0.999705 -6.2733e-06 0)
(0.999709 -6.27254e-06 0)
(0.999713 -6.27654e-06 0)
(0.999718 -6.28412e-06 0)
(0.999722 -6.2942e-06 0)
(0.999726 -6.30575e-06 0)
(0.99973 -6.31781e-06 0)
(0.999734 -6.32948e-06 0)
(0.999739 -6.33992e-06 0)
(0.999743 -6.34835e-06 0)
(0.999747 -6.35402e-06 0)
(0.999751 -6.35624e-06 0)
(0.999756 -6.35437e-06 0)
(0.99976 -6.34777e-06 0)
(0.999764 -6.3359e-06 0)
(0.999768 -6.31819e-06 0)
(0.999772 -6.29415e-06 0)
(0.999777 -6.26331e-06 0)
(0.999781 -6.22524e-06 0)
(0.999785 -6.17953e-06 0)
(0.999789 -6.12583e-06 0)
(0.999793 -6.06382e-06 0)
(0.999797 -5.99326e-06 0)
(0.999801 -5.91392e-06 0)
(0.999805 -5.82565e-06 0)
(0.999809 -5.72839e-06 0)
(0.999813 -5.62212e-06 0)
(0.999816 -5.50693e-06 0)
(0.99982 -5.38298e-06 0)
(0.999824 -5.25055e-06 0)
(0.999827 -5.11001e-06 0)
(0.99983 -4.96184e-06 0)
(0.999834 -4.80664e-06 0)
(0.999837 -4.64512e-06 0)
(0.99984 -4.47808e-06 0)
(0.999843 -4.30645e-06 0)
(0.999846 -4.13125e-06 0)
(0.999848 -3.95357e-06 0)
(0.999851 -3.77457e-06 0)
(0.999853 -3.59544e-06 0)
(0.999856 -3.41741e-06 0)
(0.999858 -3.2417e-06 0)
(0.99986 -3.06948e-06 0)
(0.999862 -2.90188e-06 0)
(0.999864 -2.73994e-06 0)
(0.999866 -2.5846e-06 0)
(0.999867 -2.43669e-06 0)
(0.999869 -2.2969e-06 0)
(0.99987 -2.16581e-06 0)
(0.999872 -2.04386e-06 0)
(0.999873 -1.93139e-06 0)
(0.999874 -1.82865e-06 0)
(0.999876 -1.73583e-06 0)
(0.999877 -1.65305e-06 0)
(0.999878 -1.58041e-06 0)
(0.999879 -1.518e-06 0)
(0.99988 -1.46587e-06 0)
(0.999881 -1.42405e-06 0)
(0.999882 -1.3925e-06 0)
(0.999883 -1.37111e-06 0)
(0.999883 -1.35958e-06 0)
(0.999884 -1.35742e-06 0)
(0.999885 -1.36391e-06 0)
(0.999886 -1.378e-06 0)
(0.999887 -1.39834e-06 0)
(0.999888 -1.42328e-06 0)
(0.999889 -1.45091e-06 0)
(0.99989 -1.47916e-06 0)
(0.999891 -1.50591e-06 0)
(0.999892 -1.52916e-06 0)
(0.999893 -1.54716e-06 0)
(0.999894 -1.55859e-06 0)
(0.999895 -1.56267e-06 0)
(0.999896 -1.55929e-06 0)
(0.999897 -1.54899e-06 0)
(0.999898 -1.53298e-06 0)
(0.999899 -1.513e-06 0)
(0.9999 -1.49118e-06 0)
(0.999901 -1.46989e-06 0)
(0.999902 -1.4515e-06 0)
(0.999903 -1.43817e-06 0)
(0.999904 -1.43175e-06 0)
(0.999905 -1.43357e-06 0)
(0.999906 -1.44442e-06 0)
(0.999907 -1.46448e-06 0)
(0.999908 -1.49337e-06 0)
(0.999909 -1.53022e-06 0)
(0.99991 -1.57374e-06 0)
(0.999911 -1.62234e-06 0)
(0.999912 -1.67423e-06 0)
(0.999913 -1.72757e-06 0)
(0.999914 -1.78055e-06 0)
(0.999915 -1.83149e-06 0)
(0.999916 -1.87887e-06 0)
(0.999918 -1.92142e-06 0)
(0.999919 -1.95813e-06 0)
(0.99992 -1.98824e-06 0)
(0.999921 -2.01127e-06 0)
(0.999923 -2.02696e-06 0)
(0.999924 -2.0353e-06 0)
(0.999926 -2.03642e-06 0)
(0.999927 -2.03064e-06 0)
(0.999928 -2.01838e-06 0)
(0.99993 -2.00017e-06 0)
(0.999931 -1.97656e-06 0)
(0.999932 -1.94817e-06 0)
(0.999934 -1.91562e-06 0)
(0.999935 -1.87951e-06 0)
(0.999936 -1.84045e-06 0)
(0.999937 -1.799e-06 0)
(0.999938 -1.75567e-06 0)
(0.99994 -1.71096e-06 0)
(0.999941 -1.66529e-06 0)
(0.999942 -1.61905e-06 0)
(0.999943 -1.5726e-06 0)
(0.999944 -1.52622e-06 0)
(0.999945 -1.48018e-06 0)
(0.999946 -1.43469e-06 0)
(0.999947 -1.38994e-06 0)
(0.999948 -1.34607e-06 0)
(0.999949 -1.30321e-06 0)
(0.99995 -1.26146e-06 0)
(0.99995 -1.22087e-06 0)
(0.999951 -1.18152e-06 0)
(0.999952 -1.14342e-06 0)
(0.999953 -1.1066e-06 0)
(0.999953 -1.07108e-06 0)
(0.999954 -1.03684e-06 0)
(0.999955 -1.00387e-06 0)
(0.999955 -9.72158e-07 0)
(0.999956 -9.41679e-07 0)
(0.999957 -9.12401e-07 0)
(0.999957 -8.84293e-07 0)
(0.999958 -8.57319e-07 0)
(0.999958 -8.31441e-07 0)
(0.999959 -8.0662e-07 0)
(0.99996 -7.82817e-07 0)
(0.99996 -7.59992e-07 0)
(0.999961 -7.38104e-07 0)
(0.999961 -7.17114e-07 0)
(0.999962 -6.96982e-07 0)
(0.999962 -6.7767e-07 0)
(0.999962 -6.59141e-07 0)
(0.999963 -6.41357e-07 0)
(0.999963 -6.24283e-07 0)
(0.999964 -6.07886e-07 0)
(0.999964 -5.92131e-07 0)
(0.999964 -5.76986e-07 0)
(0.999965 -5.62422e-07 0)
(0.999965 -5.48409e-07 0)
(0.999966 -5.34918e-07 0)
(0.999966 -5.21922e-07 0)
(0.999966 -5.09397e-07 0)
(0.999967 -4.97315e-07 0)
(0.999967 -4.8566e-07 0)
(0.999967 -4.74384e-07 0)
(0.999968 -4.63572e-07 0)
(0.999968 -4.52741e-07 0)
(0.999968 -4.43879e-07 0)
(0.999969 -4.28234e-07 0)
(-0.0148171 0.0435811 0)
(-0.0113883 0.0045046 0)
(-0.0884531 -0.0231306 0)
(-0.152712 -0.00379999 0)
(-0.139233 0.0427236 0)
(-0.131326 0.108427 0)
(-0.155302 0.0573101 0)
(-0.0948847 -0.104078 0)
(0.155595 -0.131336 0)
(0.398331 -0.0801093 0)
(0.561133 -0.0413918 0)
(0.593101 -0.00896713 0)
(0.478383 0.0239255 0)
(0.183886 -0.0268727 0)
(0.117213 -0.0658393 0)
(0.114842 -0.0960541 0)
(0.115016 -0.111689 0)
(0.112016 -0.083295 0)
(0.114187 -0.0387416 0)
(0.145432 0.00580584 0)
(0.180767 0.0215573 0)
(0.199277 0.0130361 0)
(0.214408 0.00240044 0)
(0.219379 0.00182038 0)
(0.2184 0.00539967 0)
(0.215765 0.00821535 0)
(0.215504 0.00679002 0)
(0.218524 -0.000282803 0)
(0.223383 -0.0113747 0)
(0.227415 -0.0225202 0)
(0.229793 -0.0240292 0)
(0.230381 -0.0218318 0)
(0.230838 -0.0209149 0)
(0.232007 -0.0256772 0)
(0.236093 -0.0261684 0)
(0.241884 -0.0256852 0)
(0.237648 -0.0248476 0)
(0.23847 -0.0241542 0)
(0.241737 -0.023385 0)
(0.243299 -0.0224417 0)
(0.24296 -0.021396 0)
(0.241015 -0.0203066 0)
(0.237691 -0.0192497 0)
(0.23411 -0.0183856 0)
(0.234744 -0.0179785 0)
(0.241289 -0.0180874 0)
(0.252055 -0.0183842 0)
(0.265822 -0.0185823 0)
(0.281247 -0.0185792 0)
(0.297239 -0.0183915 0)
(0.312936 -0.0180697 0)
(0.327741 -0.0176643 0)
(0.341339 -0.0172167 0)
(0.353674 -0.0167601 0)
(0.365001 -0.0163309 0)
(0.375874 -0.0159675 0)
(0.386973 -0.0156941 0)
(0.398879 -0.0155138 0)
(0.411871 -0.0154144 0)
(0.42584 -0.0153816 0)
(0.440339 -0.015407 0)
(0.45476 -0.0154813 0)
(0.468537 -0.015582 0)
(0.481297 -0.0156742 0)
(0.49289 -0.0157251 0)
(0.503358 -0.0157116 0)
(0.512887 -0.0156186 0)
(0.521749 -0.0154314 0)
(0.530224 -0.0151356 0)
(0.538514 -0.0147213 0)
(0.546692 -0.0141863 0)
(0.554696 -0.0135388 0)
(0.562374 -0.0128006 0)
(0.569555 -0.0120127 0)
(0.576133 -0.0112369 0)
(0.582078 -0.010555 0)
(0.587513 -0.0100525 0)
(0.592669 -0.00981973 0)
(0.597829 -0.00992319 0)
(0.602874 -0.00981503 0)
(0.607357 -0.00923098 0)
(0.611041 -0.00940519 0)
(0.614461 -0.0101206 0)
(0.617746 -0.010894 0)
(0.620893 -0.0115997 0)
(0.62398 -0.0122563 0)
(0.6271 -0.012877 0)
(0.630322 -0.0134565 0)
(0.633692 -0.0139928 0)
(0.637225 -0.0144952 0)
(0.640919 -0.0149873 0)
(0.644754 -0.0154914 0)
(0.648697 -0.0159866 0)
(0.65272 -0.016429 0)
(0.656814 -0.0167686 0)
(0.660987 -0.0168878 0)
(0.665119 -0.0166499 0)
(0.669115 -0.0164643 0)
(0.6731 -0.0164753 0)
(0.677223 -0.0165771 0)
(0.68153 -0.0167051 0)
(0.686041 -0.0168323 0)
(0.690782 -0.0169345 0)
(0.695775 -0.0169957 0)
(0.701036 -0.0170024 0)
(0.706547 -0.0169156 0)
(0.712196 -0.0166659 0)
(0.717841 -0.0163414 0)
(0.723507 -0.0161538 0)
(0.729337 -0.0161233 0)
(0.735386 -0.0161514 0)
(0.741621 -0.0161564 0)
(0.747986 -0.0160819 0)
(0.754393 -0.0158914 0)
(0.760739 -0.0156207 0)
(0.766992 -0.0153808 0)
(0.773202 -0.015214 0)
(0.779408 -0.0150803 0)
(0.785596 -0.0149359 0)
(0.791723 -0.0147599 0)
(0.797747 -0.014566 0)
(0.803662 -0.0143876 0)
(0.809491 -0.0142321 0)
(0.815248 -0.0140805 0)
(0.820926 -0.0139165 0)
(0.826515 -0.0137403 0)
(0.832014 -0.01356 0)
(0.837429 -0.0133765 0)
(0.842763 -0.013184 0)
(0.848012 -0.0129802 0)
(0.853173 -0.0127673 0)
(0.858245 -0.0125464 0)
(0.863226 -0.0123169 0)
(0.868112 -0.0120788 0)
(0.8729 -0.011833 0)
(0.877588 -0.0115804 0)
(0.882174 -0.0113214 0)
(0.886654 -0.0110569 0)
(0.891027 -0.0107878 0)
(0.895291 -0.0105149 0)
(0.899445 -0.010239 0)
(0.903488 -0.00996082 0)
(0.907418 -0.00968114 0)
(0.911236 -0.00940056 0)
(0.914941 -0.00911967 0)
(0.918533 -0.00883901 0)
(0.922012 -0.00855906 0)
(0.925379 -0.00828029 0)
(0.928635 -0.00800306 0)
(0.93178 -0.00772773 0)
(0.934814 -0.00745464 0)
(0.93774 -0.00718415 0)
(0.940557 -0.00691664 0)
(0.943268 -0.00665259 0)
(0.945873 -0.00639247 0)
(0.948375 -0.00613682 0)
(0.950775 -0.00588615 0)
(0.953075 -0.00564099 0)
(0.955278 -0.00540178 0)
(0.957386 -0.00516894 0)
(0.959402 -0.00494281 0)
(0.961329 -0.00472366 0)
(0.963169 -0.00451168 0)
(0.964926 -0.00430703 0)
(0.966602 -0.00410978 0)
(0.968201 -0.00391996 0)
(0.969725 -0.00373757 0)
(0.971178 -0.00356255 0)
(0.972563 -0.00339482 0)
(0.973882 -0.00323426 0)
(0.975138 -0.00308073 0)
(0.976335 -0.00293404 0)
(0.977474 -0.00279401 0)
(0.978559 -0.00266042 0)
(0.979592 -0.00253305 0)
(0.980575 -0.00241167 0)
(0.981511 -0.00229604 0)
(0.982402 -0.00218592 0)
(0.983251 -0.00208107 0)
(0.984058 -0.00198125 0)
(0.984827 -0.00188623 0)
(0.985559 -0.00179579 0)
(0.986256 -0.00170971 0)
(0.98692 -0.00162778 0)
(0.987552 -0.00154979 0)
(0.988153 -0.00147553 0)
(0.988726 -0.00140482 0)
(0.989271 -0.00133745 0)
(0.98979 -0.00127325 0)
(0.990284 -0.00121203 0)
(0.990755 -0.00115363 0)
(0.991203 -0.00109788 0)
(0.991629 -0.00104463 0)
(0.992034 -0.000993744 0)
(0.99242 -0.000945104 0)
(0.992786 -0.000898598 0)
(0.993135 -0.00085413 0)
(0.993466 -0.00081162 0)
(0.993781 -0.000770997 0)
(0.99408 -0.000732199 0)
(0.994364 -0.000695173 0)
(0.994633 -0.000659869 0)
(0.994889 -0.00062624 0)
(0.995131 -0.000594242 0)
(0.995361 -0.000563828 0)
(0.995579 -0.000534952 0)
(0.995787 -0.000507564 0)
(0.995983 -0.000481611 0)
(0.996169 -0.000457042 0)
(0.996346 -0.000433799 0)
(0.996514 -0.000411825 0)
(0.996674 -0.000391063 0)
(0.996825 -0.000371454 0)
(0.996969 -0.00035294 0)
(0.997106 -0.000335462 0)
(0.997236 -0.000318965 0)
(0.997359 -0.000303391 0)
(0.997477 -0.000288688 0)
(0.997589 -0.000274801 0)
(0.997695 -0.00026168 0)
(0.997797 -0.000249276 0)
(0.997894 -0.000237541 0)
(0.997986 -0.000226429 0)
(0.998074 -0.000215896 0)
(0.998158 -0.000205901 0)
(0.998238 -0.000196405 0)
(0.998314 -0.000187371 0)
(0.998387 -0.000178763 0)
(0.998456 -0.000170551 0)
(0.998523 -0.000162703 0)
(0.998586 -0.000155195 0)
(0.998646 -0.000148 0)
(0.998704 -0.000141097 0)
(0.998759 -0.000134468 0)
(0.998811 -0.000128096 0)
(0.998861 -0.000121965 0)
(0.998908 -0.000116064 0)
(0.998953 -0.000110381 0)
(0.998996 -0.000104909 0)
(0.999037 -9.96386e-05 0)
(0.999075 -9.45648e-05 0)
(0.999112 -8.96821e-05 0)
(0.999147 -8.49859e-05 0)
(0.99918 -8.04727e-05 0)
(0.999211 -7.6139e-05 0)
(0.99924 -7.1982e-05 0)
(0.999268 -6.7999e-05 0)
(0.999294 -6.41873e-05 0)
(0.999319 -6.05444e-05 0)
(0.999342 -5.70676e-05 0)
(0.999364 -5.37542e-05 0)
(0.999385 -5.06013e-05 0)
(0.999405 -4.7606e-05 0)
(0.999423 -4.47649e-05 0)
(0.99944 -4.20746e-05 0)
(0.999456 -3.95317e-05 0)
(0.999472 -3.71323e-05 0)
(0.999486 -3.48726e-05 0)