/*--------------------------------*- C++ -*----------------------------------*\
| =========                 |                                                 |
| \\      /  F ield         | OpenFOAM: The Open Source CFD Toolbox           |
|  \\    /   O peration     | Version:  v2006                                 |
|   \\  /    A nd           | Website:  www.openfoam.com                      |
|    \\/     M anipulation  |                                                 |
\*---------------------------------------------------------------------------*/
FoamFile
{
    version     2.0;
    format      ascii;
    class       surfaceScalarField;
    location    "13";
    object      alphaPhi0.water;
}
// * * * * * * * * * * * * * * * * * * * * * * * * * * * * * * * * * * * * * //

dimensions      [0 3 -1 0 0 0 0];
oriented        oriented;


internalField   nonuniform List<scalar> 
299200
(
-0.000421986
0.000421986
-0.000679275
0.000257289
-0.000916786
0.000237511
-0.00116929
0.000252508
-0.00143336
0.000264066
-0.00171001
0.000276646
-0.0019994
0.000289394
-0.00230009
0.000300689
-0.00260994
0.000309851
-0.00292692
0.000316981
-0.00324958
0.000322661
-0.0035768
0.000327219
-0.00390752
0.000330715
-0.00424053
0.000333015
-0.00457448
0.00033395
-0.00490789
0.000333412
-0.00523927
0.000331381
-0.00556723
0.000327956
-0.00589054
0.000323313
-0.00620819
0.000317643
-0.00651934
0.000311155
-0.00682341
0.000304064
-0.00711998
0.000296575
-0.00740885
0.000288874
-0.00768996
0.000281102
-0.00796333
0.000273374
-0.00822916
0.000265825
-0.00848777
0.000258616
-0.00873967
0.000251895
-0.00898542
0.000245754
-0.00922566
0.000240237
-0.00946103
0.000235373
-0.00969208
0.000231047
-0.00991926
0.000227184
-0.010143
0.000223781
-0.0103638
0.000220731
-0.0105816
0.000217813
-0.0107963
0.000214743
-0.0110076
0.00021126
-0.0112148
0.000207173
-0.0114171
0.000202378
-0.011614
0.000196876
-0.0118048
0.000190816
-0.0119894
0.000184525
-0.0121678
0.000178485
-0.0123411
0.00017323
-0.0125103
0.000169194
-0.0126768
0.000166572
-0.0128421
0.000165272
-0.0130071
0.000165006
-0.0131724
0.000165326
-0.0133379
0.000165428
-0.0135019
0.000164063
-0.0136616
0.000159712
-0.0138132
0.00015159
-0.0139535
0.000140223
-0.0140802
0.00012678
-0.0141923
0.000112088
-0.014289
9.66672e-05
-0.0143702
8.12221e-05
-0.0144366
6.64182e-05
-0.0144894
5.28084e-05
-0.0145302
4.08039e-05
-0.0145609
3.06248e-05
-0.0145832
2.22894e-05
-0.014599
1.58567e-05
-0.0146102
1.1138e-05
-0.0146181
7.90085e-06
-0.0146241
6.05542e-06
-0.0146295
5.35306e-06
-0.014635
5.54012e-06
-0.0146415
6.48366e-06
-0.0146495
8.01406e-06
-0.0146595
9.98947e-06
-0.0146718
1.23132e-05
-0.0146868
1.49472e-05
-0.0147046
1.78365e-05
-0.0147255
2.08884e-05
-0.0147495
2.40403e-05
-0.0147768
2.72471e-05
-0.0148072
3.04428e-05
-0.0148408
3.3548e-05
-0.0148773
3.65228e-05
-0.0149166
3.93637e-05
-0.0149587
4.20658e-05
-0.0150034
4.47135e-05
-0.0150509
4.74943e-05
-0.0151015
5.06264e-05
-0.0151559
5.43865e-05
-0.015215
5.90762e-05
-0.0152799
6.48681e-05
-0.0153518
7.19e-05
-0.0154319
8.00985e-05
-0.0155211
8.92335e-05
-0.01562
9.88468e-05
-0.0157283
0.000108335
-0.0158454
0.000117118
-0.0159703
0.000124852
-0.0161015
0.000131202
-0.0162374
0.00013599
-0.0163765
0.00013904
-0.0165164
0.00013989
-0.0166541
0.000137689
-0.0167855
0.000131416
-0.0169057
0.000120211
-0.0170096
0.000103919
-0.0170932
8.35514e-05
-0.0171547
6.14968e-05
-0.0171959
4.12509e-05
-0.0172224
2.65167e-05
-0.0172427
2.02388e-05
-0.0172665
2.38649e-05
-0.0173039
3.7373e-05
-0.017363
5.90842e-05
-0.0174493
8.63308e-05
-0.0175654
0.000116085
-0.017711
0.000145575
-0.0178837
0.000172726
-0.0180802
0.000196509
-0.0182972
0.000216945
-0.0185318
0.000234678
-0.0187822
0.000250361
-0.0190465
0.000264303
-0.0193231
0.000276625
-0.0196106
0.000287485
-0.0199077
0.000297056
-0.0202131
0.000305449
-0.0205259
0.000312795
-0.0208452
0.000319305
-0.0211704
0.000325167
-0.0215008
0.000330372
-0.0218354
0.000334686
-0.0221734
0.000337925
-0.0225138
0.000340434
-0.0228571
0.000343321
-0.0232053
0.000348188
-0.0235618
0.000356492
-0.0239307
0.000368879
-0.0243153
0.000384602
-0.0247163
0.000400986
-0.0251298
0.000413488
-0.0255456
0.000415813
-0.0259485
0.000402952
-0.0263246
0.000376119
-0.0266688
0.000344118
-0.0269897
0.000320959
-0.02731
0.000320326
-0.0276635
0.000353489
-0.028085
0.000421463
-0.0286042
0.000519242
-0.0292389
0.000634712
-0.0299863
0.000747375
-0.0308174
0.000831093
-0.0316818
0.000864355
-0.0325254
0.000843585
-0.033313
0.00078769
-0.0340401
0.000727094
-0.0347261
0.000685954
-0.0353979
0.000671823
-0.0360761
0.000678164
-0.0367705
0.000694392
-0.0374839
0.000713446
-0.0382171
0.000733147
-0.0389711
0.000754032
-0.0397482
0.000777059
-0.0405504
0.000802256
-0.0413787
0.0008283
-0.0422317
0.000852999
-0.043106
0.000874272
-0.0439969
0.000890912
-0.0448996
0.000902751
-0.04581
0.000910314
-0.0467243
0.00091437
-0.04764
0.000915638
-0.0485547
0.000914704
-0.0494667
0.000912037
-0.0503747
0.000908015
-0.0512777
0.000902936
-0.0521747
0.000897024
-0.0530651
0.000890433
-0.0539484
0.00088326
-0.0548239
0.000875554
-0.0556913
0.000867328
-0.0565498
0.000858575
-0.0573991
0.00084928
-0.0582386
0.000839437
-0.0590676
0.000829067
-0.0598858
0.000818229
-0.0606929
0.000807034
-0.0614885
0.000795634
-0.0622727
0.00078421
-0.0630457
0.000772944
-0.0638077
0.000761984
-0.0645591
0.000751412
-0.0653003
0.000741221
-0.0660316
0.000731296
-0.066753
0.000721416
-0.0674643
0.000711271
-0.0681648
0.000700504
-0.0688535
0.000688757
-0.0695293
0.000675729
-0.0701905
0.000661226
-0.0708357
0.000645186
-0.0714634
0.000627688
-0.0720724
0.000608993
-0.0726618
0.000589491
-0.0732314
0.000569579
-0.0737809
0.000549467
-0.0743099
0.000529051
-0.074818
0.000508089
-0.0753049
0.000486878
-0.0757721
0.000467221
-0.076225
0.00045286
-0.0766732
0.000448222
-0.0771281
0.00045485
-0.0775945
0.000466485
-0.0780609
0.000466394
-0.0784922
0.000431214
-0.0788363
0.00034412
-0.0790483
0.000212019
-0.0791211
7.28161e-05
-0.0791036
-1.74946e-05
-0.0790996
-4.0463e-06
-0.079206
0.000106465
-0.0795006
0.000294523
-0.0800061
0.000505524
-0.080691
0.00068493
-0.0814891
0.000798108
-0.0823262
0.00083707
-0.0831426
0.00081646
-0.0838939
0.000751234
-0.0845618
0.000667894
-0.0851491
0.000587351
-0.0856706
0.000521452
-0.0861443
0.000473744
-0.0865864
0.000442125
-0.0870076
0.000421116
-0.0874112
0.000403684
-0.0877947
0.000383418
-0.088152
0.000357328
-0.0884801
0.000328128
-0.0887836
0.000303459
-0.0890746
0.000290984
-0.089369
0.00029446
-0.0896774
0.00030833
-0.0899979
0.000320512
-0.0903179
0.000320005
-0.0906205
0.00030266
-0.0908933
0.000272816
-0.091137
0.000243665
-0.0913655
0.000228507
-0.0916047
0.000239145
-0.0918809
0.000276242
-0.0922127
0.000331835
-0.0926068
0.000394069
-0.093059
0.00045215
-0.0935565
0.000497509
-0.0940809
0.000524475
-0.0946133
0.000532362
-0.0951328
0.000519509
-0.0956212
0.000488377
-0.0960676
0.000446448
-0.0964666
0.000398945
-0.096817
0.000350418
-0.0971214
0.000304397
-0.0973847
0.000263259
-0.097613
0.000228333
-0.0978131
0.000200093
-0.0979914
0.000178282
-0.0981533
0.000161932
-0.0983028
0.000149522
-0.0984425
0.000139682
-0.098575
0.00013249
-0.0987051
0.000130077
-0.0988389
0.000133877
-0.0989751
0.000136179
-0.099084
0.000108886
-0.0990969
1.28588e-05
-0.0989729
-0.000123957
-0.0987189
-0.000254005
-0.0983723
-0.000346615
-0.0979631
-0.000409168
-0.0975089
-0.000454268
-0.0970193
-0.000489601
-0.0965004
-0.000518863
-0.0959565
-0.000543908
-0.0953906
-0.000565927
-0.0948047
-0.000585841
-0.0942003
-0.000604388
-0.0935782
-0.00062213
-0.0929388
-0.000639443
-0.0922822
-0.000656538
-0.0916087
-0.000673477
-0.0909185
-0.000690217
-0.0902119
-0.000706645
-0.0894893
-0.000722613
-0.0887513
-0.000737975
-0.0879987
-0.000752607
-0.0872323
-0.000766432
-0.0864528
-0.000779429
-0.0856612
-0.00079163
-0.0848581
-0.000803114
-0.0840441
-0.000813989
-0.0832197
-0.00082438
-0.0823853
-0.000834399
-0.0815412
-0.000844143
-0.0806875
-0.000853675
-0.0798245
-0.00086303
-0.0789523
-0.000872211
-0.0780711
-0.000881203
-0.0771811
-0.000889976
-0.0762826
-0.000898496
-0.0753759
-0.000906726
-0.0744612
-0.000914634
-0.073539
-0.000922192
-0.0726097
-0.000929376
-0.0716735
-0.000936165
-0.0707309
-0.00094254
-0.0697825
-0.000948487
-0.0688285
-0.000953991
-0.0678694
-0.000959039
-0.0669058
-0.000963623
-0.0659381
-0.000967733
-0.0649667
-0.00097136
-0.0639922
-0.000974497
-0.0630151
-0.000977138
-0.0620358
-0.000979277
-0.0610549
-0.000980909
-0.0600729
-0.000982031
-0.0590902
-0.000982643
-0.0581075
-0.000982748
-0.0571251
-0.000982349
-0.0561437
-0.000981451
-0.0551636
-0.000980058
-0.0541854
-0.000978174
-0.0532096
-0.000975802
-0.0522367
-0.000972944
-0.0512671
-0.000969603
-0.0503013
-0.000965786
-0.0493398
-0.000961503
-0.048383
-0.000956765
-0.0474314
-0.000951591
-0.0464855
-0.000945995
-0.0455455
-0.000939997
-0.0446118
-0.000933614
-0.043685
-0.000926863
-0.0427652
-0.000919764
-0.0418529
-0.000912342
-0.0409482
-0.000904622
-0.0400516
-0.000896637
-0.0391632
-0.000888422
-0.0382832
-0.000880015
-0.0374117
-0.000871456
-0.0365489
-0.00086279
-0.0356949
-0.000854061
-0.0348496
-0.000845313
-0.034013
-0.000836588
-0.033185
-0.00082792
-0.0323657
-0.000819332
-0.0315549
-0.000810833
-0.0307525
-0.000802411
-0.0299584
-0.00079404
-0.0291728
-0.000785671
-0.0283955
-0.000777243
-0.0276268
-0.000768675
-0.026867
-0.000759879
-0.0261162
-0.000750755
-0.025375
-0.000741199
-0.0246439
-0.000731115
-0.0239235
-0.000720425
-0.0232144
-0.00070908
-0.0225173
-0.000697072
-0.0218329
-0.00068444
-0.0211616
-0.000671266
-0.0205039
-0.000657669
-0.0198602
-0.000643784
-0.0192304
-0.000629743
-0.0186148
-0.000615644
-0.0180132
-0.000601531
-0.0174259
-0.000587377
-0.0168528
-0.000573084
-0.0162943
-0.000558495
-0.0157509
-0.000543422
-0.0152232
-0.000527681
-0.014712
-0.000511131
-0.0142183
-0.000493696
-0.013743
-0.000475384
-0.0132867
-0.000456268
-0.0128502
-0.000436467
-0.0124341
-0.000416104
-0.0120389
-0.000395276
-0.0116648
-0.000374031
-0.0113124
-0.000352373
-0.0109822
-0.000330282
-0.0106744
-0.000307737
-0.0103897
-0.00028474
-0.0101285
-0.000261181
-0.00989164
-0.000236863
-0.00968016
-0.000211486
-0.00949563
-0.000184528
-0.00934043
-0.0001552
-0.00921788
-0.000122544
-0.00913155
-8.6338e-05
-0.00908476
-4.67882e-05
-0.00907904
-5.71765e-06
-0.00910919
3.01491e-05
-0.00916971
6.05243e-05
-0.00925175
8.2035e-05
-0.00934266
9.09072e-05
-0.00943008
8.74235e-05
-0.00950423
7.41531e-05
-0.00956349
5.9258e-05
-0.0096132
4.97105e-05
-0.00966357
5.03669e-05
-0.00972382
6.0248e-05
-0.00979954
7.57243e-05
-0.00989219
9.26455e-05
-0.0099999
0.000107716
-0.0101184
0.000118497
-0.0102432
0.000124848
-0.0103704
0.000127133
-0.0104967
0.000126337
-0.0106204
0.000123697
-0.0107404
0.000119971
-0.0108562
0.000115821
-0.0109675
0.000111329
-0.0110728
0.000105256
-0.0111673
9.44974e-05
-0.0112378
7.05312e-05
-0.0112647
2.68559e-05
-0.0112361
-2.85474e-05
-0.0111544
-8.1738e-05
-0.0110302
-0.000124239
-0.0108785
-0.00015166
-0.0107162
-0.000162244
-0.0105585
-0.000157754
-0.0104155
-0.000143019
-0.0102915
-0.000123924
-0.0101862
-0.000105362
-0.0100961
-9.00597e-05
-0.0100167
-7.94385e-05
-0.00994297
-7.37175e-05
-0.00987091
-7.20603e-05
-0.00979763
-7.32847e-05
-0.00972132
-7.63057e-05
-0.00964104
-8.02867e-05
-0.0095562
-8.4835e-05
-0.00946625
-8.99539e-05
-0.0093704
-9.58434e-05
-0.00926775
-0.000102651
-0.00915742
-0.000110336
-0.00903873
-0.000118681
-0.0089113
-0.000127431
-0.00877503
-0.000136277
-0.00863013
-0.000144899
-0.008477
-0.000153132
-0.00831602
-0.000160976
-0.00814755
-0.000168466
-0.00797181
-0.000175743
-0.00778899
-0.000182825
-0.00759937
-0.000189616
-0.00740328
-0.000196088
-0.00720112
-0.000202162
-0.00699336
-0.000207761
-0.00678069
-0.000212673
-0.00656361
-0.000217075
-0.00634283
-0.000220778
-0.00611889
-0.000223939
-0.00589245
-0.000226445
-0.00566399
-0.000228458
-0.00543414
-0.000229857
-0.00520422
-0.000229916
-0.00497482
-0.000229395
-0.0047466
-0.000228222
-0.00452029
-0.00022631
-0.00429661
-0.000223679
-0.00407595
-0.000220667
-0.00385883
-0.00021712
-0.00364593
-0.000212893
-0.00343821
-0.000207727
-0.0032366
-0.000201609
-0.00304191
-0.000194689
-0.00285497
-0.000186937
-0.00267592
-0.000179049
-0.00250485
-0.000171069
-0.00234165
-0.000163206
-0.00218578
-0.000155869
-0.0020364
-0.000149377
-0.00189238
-0.000144017
-0.00175253
-0.00013985
-0.00161515
-0.00013738
-0.00147786
-0.000137291
-0.00133682
-0.000141046
-0.00118654
-0.000150272
-0.00101887
-0.000167673
-0.000820583
-0.000198289
-0.000570475
-0.000250108
-0.000256856
-0.000313619
3.25108e-05
-0.000289367
3.25108e-05
-0.000630651
0.00105264
-0.0011061
0.000732733
-0.0016291
0.000760514
-0.00221116
0.00083457
-0.00282217
0.000875076
-0.00345039
0.000904861
-0.00409133
0.000930335
-0.00473969
0.00094905
-0.00539017
0.000960333
-0.00603858
0.000965391
-0.00668144
0.000965524
-0.00731554
0.000961321
-0.00793781
0.000952984
-0.00854549
0.000940698
-0.00913636
0.000924816
-0.00970883
0.000905883
-0.010262
0.000884562
-0.0107956
0.000861548
-0.0113098
0.000837494
-0.0118051
0.000812956
-0.0122823
0.000788363
-0.0127423
0.000764021
-0.0131858
0.000740137
-0.0136138
0.000716833
-0.0140268
0.000694157
-0.0144256
0.000672123
-0.0148105
0.000650716
-0.0151817
0.000629827
-0.015539
0.000609178
-0.0158816
0.000588396
-0.0162086
0.000567226
-0.0165189
0.000545718
-0.0168121
0.000524189
-0.017088
0.00050309
-0.0173471
0.000482855
-0.0175902
0.000463819
-0.0178186
0.00044626
-0.0180343
0.000430438
-0.0182396
0.00041654
-0.018437
0.000404576
-0.0186289
0.000394304
-0.0188172
0.000385206
-0.0190029
0.000376493
-0.0191855
0.000367131
-0.019363
0.000355914
-0.0195313
0.000341591
-0.0196851
0.000323007
-0.0198178
0.000299228
-0.0199224
0.00026984
-0.019993
0.000235613
-0.0200267
0.000199042
-0.0200247
0.000163408
-0.019993
0.000132444
-0.0199403
0.000106943
-0.0198746
8.59675e-05
-0.0198032
6.88252e-05
-0.0197314
5.49105e-05
-0.019663
4.3678e-05
-0.0196008
3.44587e-05
-0.0195466
2.70741e-05
-0.0195015
2.1262e-05
-0.0194657
1.70395e-05
-0.0194393
1.44475e-05
-0.0194223
1.3571e-05
-0.0194142
1.42633e-05
-0.0194152
1.68219e-05
-0.019425
2.09554e-05
-0.0194439
2.67593e-05
-0.0194721
3.42159e-05
-0.0195097
4.29826e-05
-0.0195571
5.29822e-05
-0.0196146
6.40017e-05
-0.0196823
7.57033e-05
-0.0197602
8.78494e-05
-0.019848
0.000100108
-0.0199454
0.000112355
-0.0200519
0.000124314
-0.0201667
0.000135728
-0.0202891
0.000146463
-0.0204183
0.000156398
-0.0205533
0.000165446
-0.0206933
0.000173601
-0.0208377
0.000180907
-0.0209859
0.000187504
-0.0211374
0.000193625
-0.0212923
0.000199589
-0.0214505
0.000205746
-0.0216124
0.000212526
-0.0217783
0.00022027
-0.0219484
0.000229155
-0.0221226
0.000239098
-0.0223005
0.000249728
-0.0224807
0.000260295
-0.0226613
0.000269887
-0.0228399
0.000277415
-0.0230137
0.000282153
-0.0231803
0.0002837
-0.023338
0.000282542
-0.0234862
0.000279459
-0.0236257
0.000275482
-0.023758
0.00027129
-0.0238849
0.000266812
-0.0240084
0.000261206
-0.0241301
0.000253115
-0.0242514
0.000241493
-0.0243736
0.00022609
-0.0244982
0.00020817
-0.0246272
0.000190487
-0.0247624
0.000176428
-0.0249051
0.000169221
-0.0250556
0.000170791
-0.0252138
0.00018205
-0.0253786
0.000202227
-0.025549
0.000229431
-0.0257237
0.000261062
-0.0259021
0.000294464
-0.0260839
0.000327354
-0.0262692
0.000358077
-0.0264585
0.000385753
-0.0266519
0.000410336
-0.0268496
0.000432427
-0.027052
0.000452729
-0.0272592
0.000471522
-0.0274712
0.000488637
-0.0276875
0.000503812
-0.0279075
0.000516981
-0.0281304
0.000528393
-0.0283563
0.000538709
-0.028586
0.000549022
-0.0288215
0.000560595
-0.0290656
0.000574482
-0.0293222
0.000591264
-0.0295953
0.000611019
-0.0298882
0.000633376
-0.0302023
0.000657412
-0.0305355
0.000681391
-0.0308816
0.000702585
-0.03123
0.000717336
-0.0315667
0.000721308
-0.0318759
0.000710139
-0.0321434
0.000680943
-0.0323616
0.000634045
-0.0325344
0.000575787
-0.0326781
0.000519793
-0.0328186
0.000484614
-0.0329879
0.000490222
-0.0332188
0.000551257
-0.0335421
0.000676836
-0.0339886
0.000867934
-0.0345815
0.00111216
-0.0353289
0.00138211
-0.036222
0.00164049
-0.0372424
0.00185147
-0.0383703
0.00199228
-0.0395841
0.00205732
-0.0408505
0.00205411
-0.0421209
0.0019975
-0.0433427
0.00190772
-0.0444797
0.00180882
-0.0455249
0.00172341
-0.0464963
0.00166577
-0.0474222
0.00163931
-0.0483282
0.00163917
-0.0492311
0.00165697
-0.0501386
0.00168456
-0.0510521
0.00171571
-0.05197
0.00174623
-0.0528906
0.00177361
-0.053813
0.00179664
-0.0547371
0.0018151
-0.0556638
0.00182937
-0.0565935
0.00184009
-0.057527
0.00184785
-0.0584645
0.00185317
-0.0594063
0.00185644
-0.0603522
0.00185796
-0.0613021
0.00185792
-0.0622556
0.00185645
-0.0632122
0.00185356
-0.064171
0.00184928
-0.0651313
0.00184358
-0.0660923
0.0018365
-0.0670531
0.00182812
-0.0680131
0.00181857
-0.0689718
0.00180805
-0.0699291
0.00179675
-0.0708849
0.00178483
-0.071839
0.00177236
-0.0727912
0.00175924
-0.0737408
0.0017452
-0.0746864
0.00172982
-0.0756261
0.00171261
-0.0765572
0.00169308
-0.0774766
0.00167086
-0.0783812
0.0016458
-0.0792679
0.00161798
-0.0801342
0.00158772
-0.0809784
0.0015555
-0.0817998
0.00152184
-0.0825982
0.00148724
-0.0833746
0.00145207
-0.0841299
0.00141649
-0.0848652
0.00138048
-0.0855813
0.00134382
-0.0862786
0.00130626
-0.0869567
0.00126765
-0.0876151
0.00122793
-0.0882521
0.00118652
-0.0888642
0.00114115
-0.0894429
0.00108673
-0.0899719
0.00101597
-0.0904277
0.000923006
-0.0907845
0.000809663
-0.091027
0.000690647
-0.0911646
0.000592477
-0.0912413
0.000543206
-0.091333
0.000558051
-0.0915294
0.000627684
-0.0919046
0.000719262
-0.0924845
0.000791933
-0.0932296
0.000817968
-0.0940426
0.000795437
-0.0947858
0.000739142
-0.0953586
0.000679329
-0.0957041
0.000640043
-0.0958216
0.00062297
-0.0957517
0.000615056
-0.0955565
0.000602902
-0.0952996
0.000580183
-0.0950364
0.000553252
-0.0948159
0.000530679
-0.094663
0.00051501
-0.0945867
0.000511077
-0.0945904
0.000525178
-0.0946825
0.000565801
-0.0948825
0.000642103
-0.09522
0.00075866
-0.0957253
0.00090896
-0.0964141
0.00107222
-0.0972741
0.0012173
-0.0982598
0.00131383
-0.0993012
0.00134491
-0.100324
0.00131346
-0.101267
0.00123773
-0.102098
0.00113926
-0.10281
0.00103214
-0.103409
0.00091978
-0.103907
0.000800238
-0.104308
0.000673625
-0.10461
0.000545949
-0.104808
0.000426696
-0.104895
0.000325625
-0.104866
0.000247656
-0.104726
0.000191479
-0.104483
0.000151506
-0.104152
0.000121156
-0.103748
9.36304e-05
-0.103287
6.3317e-05
-0.102786
3.17186e-05
-0.102268
1.23272e-06
-0.101743
-3.72445e-05
-0.10122
-7.60442e-05
-0.100706
-0.000114719
-0.100203
-0.000153458
-0.0997054
-0.000192777
-0.0992089
-0.000233169
-0.0987058
-0.000274821
-0.0981881
-0.000317533
-0.097649
-0.000360841
-0.0970829
-0.000404233
-0.096486
-0.00044731
-0.0958564
-0.000489901
-0.0951915
-0.000532422
-0.0944847
-0.000576734
-0.0937237
-0.000627106
-0.0928981
-0.000689438
-0.0920234
-0.000765804
-0.0911634
-0.000847124
-0.0903698
-0.000917574
-0.0896481
-0.000975772
-0.0889712
-0.00102348
-0.0883165
-0.00106388
-0.0876708
-0.00109997
-0.0870271
-0.00113326
-0.0863817
-0.00116432
-0.0857321
-0.00119347
-0.0850769
-0.00122112
-0.084415
-0.00124779
-0.0837454
-0.00127399
-0.0830673
-0.00130016
-0.0823802
-0.00132658
-0.0816833
-0.0013534
-0.0809763
-0.00138057
-0.0802585
-0.00140794
-0.0795299
-0.00143525
-0.0787904
-0.0014622
-0.0780399
-0.00148845
-0.0772788
-0.00151372
-0.0765075
-0.00153774
-0.0757266
-0.00156033
-0.0749368
-0.0015814
-0.0741389
-0.00160096
-0.0733338
-0.00161912
-0.0725221
-0.00163605
-0.0717046
-0.00165197
-0.0708816
-0.00166715
-0.0700534
-0.00168184
-0.0692202
-0.00169625
-0.0683818
-0.00171055
-0.0675382
-0.00172485
-0.066689
-0.0017392
-0.0658339
-0.00175356
-0.0649727
-0.00176788
-0.0641053
-0.00178204
-0.0632316
-0.00179592
-0.0623516
-0.00180937
-0.0614655
-0.00182229
-0.0605735
-0.00183454
-0.0596759
-0.00184604
-0.0587732
-0.00185671
-0.0578658
-0.00186648
-0.0569541
-0.00187533
-0.0560386
-0.0018832
-0.0551199
-0.00189009
-0.0541984
-0.00189596
-0.0532747
-0.00190081
-0.0523494
-0.00190463
-0.0514229
-0.00190741
-0.0504958
-0.00190914
-0.0495686
-0.00190983
-0.0486418
-0.00190949
-0.0477161
-0.00190811
-0.0467918
-0.00190572
-0.0458695
-0.00190233
-0.0449497
-0.00189796
-0.0440329
-0.00189262
-0.0431195
-0.00188633
-0.04221
-0.00187909
-0.0413049
-0.00187093
-0.0404046
-0.00186185
-0.0395094
-0.00185189
-0.0386199
-0.00184107
-0.0377365
-0.00182942
-0.0368595
-0.00181697
-0.0359894
-0.00180377
-0.0351264
-0.00178984
-0.034271
-0.00177522
-0.0334234
-0.00175996
-0.0325839
-0.00174409
-0.0317528
-0.00172769
-0.0309304
-0.00171082
-0.0301169
-0.00169353
-0.0293124
-0.00167592
-0.0285172
-0.00165806
-0.0277312
-0.00164003
-0.0269546
-0.00162189
-0.0261875
-0.00160373
-0.0254298
-0.00158559
-0.0246816
-0.0015675
-0.023943
-0.00154946
-0.023214
-0.00153142
-0.0224947
-0.00151332
-0.0217853
-0.00149505
-0.0210861
-0.00147649
-0.0203973
-0.00145747
-0.0197193
-0.00143785
-0.0190526
-0.00141748
-0.0183976
-0.0013962
-0.0177548
-0.00137389
-0.0171248
-0.00135046
-0.016508
-0.00132587
-0.0159049
-0.00130016
-0.0153159
-0.00127343
-0.0147413
-0.00124588
-0.0141812
-0.00121782
-0.0136354
-0.0011896
-0.0131035
-0.00116165
-0.0125847
-0.00113435
-0.0120782
-0.00110804
-0.0115827
-0.00108287
-0.011097
-0.0010588
-0.01062
-0.00103552
-0.0101509
-0.00101251
-0.00968951
-0.000989087
-0.00923615
-0.000964498
-0.00879177
-0.00093807
-0.00835787
-0.000909291
-0.00793626
-0.000877879
-0.00752894
-0.000843785
-0.00713789
-0.000807154
-0.00676493
-0.000768233
-0.00641168
-0.000727286
-0.00607953
-0.00068452
-0.00576976
-0.000640049
-0.0054836
-0.000593898
-0.00522231
-0.000546034
-0.00498709
-0.000496403
-0.00477892
-0.000445028
-0.00459828
-0.000392122
-0.00444459
-0.000338221
-0.00431547
-0.00028432
-0.00420603
-0.000231984
-0.0041081
-0.000184273
-0.00401062
-0.000144265
-0.00390076
-0.000115572
-0.00376867
-0.000101943
-0.00360355
-0.000104597
-0.00339827
-0.000123247
-0.00315279
-0.000154567
-0.00287218
-0.000193188
-0.00257212
-0.00022591
-0.00226778
-0.000245083
-0.00197347
-0.000244601
-0.00169865
-0.000224447
-0.00144654
-0.000191866
-0.00121802
-0.0001528
-0.00101028
-0.000115094
-0.000817354
-8.52062e-05
-0.000633699
-6.51589e-05
-0.000453966
-5.48851e-05
-0.000274647
-5.21858e-05
-9.4291e-05
-5.4019e-05
8.70797e-05
-5.76739e-05
0.000268531
-6.14799e-05
0.00044949
-6.51381e-05
0.000630574
-6.97554e-05
0.000813817
-7.79874e-05
0.00100275
-9.44373e-05
0.00119416
-0.000120875
0.00137702
-0.000156005
0.00154255
-0.000194083
0.00169092
-0.000230099
0.00182597
-0.000259293
0.00195088
-0.000276564
0.00206856
-0.000279931
0.00218147
-0.000270661
0.002291
-0.000252555
0.00239676
-0.000229683
0.00249849
-0.000207084
0.00259434
-0.000185908
0.00268103
-0.000166133
0.00275628
-0.000148972
0.00281937
-0.000135142
0.00287063
-0.000124548
0.00291116
-0.000116838
0.00294193
-0.00011106
0.00296338
-0.000106284
0.00297564
-0.000102214
0.00297852
-9.87253e-05
0.00297216
-9.6286e-05
0.00295728
-9.54578e-05
0.00293529
-9.66925e-05
0.00290854
-0.000100677
0.00287964
-0.000107375
0.0028514
-0.000116659
0.00282629
-0.000128023
0.00280639
-0.000141074
0.00279284
-0.000154916
0.00278625
-0.000169159
0.00278668
-0.00018325
0.00279385
-0.000196788
0.00280732
-0.000209557
0.0028267
-0.000221546
0.00285125
-0.000232306
0.00288031
-0.000241732
0.00291275
-0.000249518
0.00294756
-0.000255583
0.00298315
-0.00025953
0.00301756
-0.000260856
0.00304826
-0.000259159
0.00307192
-0.000253517
0.00308575
-0.000243745
0.00308821
-0.00023186
0.00307884
-0.000218846
0.00305732
-0.000204797
0.00302334
-0.000189693
0.00297613
-0.000173464
0.0029148
-0.000155782
0.00283838
-0.000136482
0.00274646
-0.000115798
0.00263908
-9.42306e-05
0.00251664
-7.2249e-05
0.00237967
-4.99747e-05
0.0022291
-2.84731e-05
0.00206609
-8.06219e-06
0.00189135
1.15318e-05
0.00170702
2.84689e-05
0.00151559
4.20528e-05
0.00131855
5.3022e-05
0.00111756
6.11353e-05
0.000913908
6.62737e-05
0.000708457
6.81606e-05
0.00050285
6.45612e-05
0.000302693
4.98846e-05
0.000124222
1.0799e-05
4.7257e-07
-7.45396e-05
-1.88034e-05
-0.000230832
9.48074e-05
-0.00042723
0.000236436
-0.000430996
0.000268947
-0.000641169
0.00169381
-0.00109414
0.00118571
-0.00161869
0.00128506
-0.00226119
0.00147707
-0.00296304
0.00157693
-0.00367741
0.00161923
-0.00438631
0.00163924
-0.00508285
0.00164558
-0.00576261
0.0016401
-0.00642217
0.00162495
-0.00705858
0.00160193
-0.0076694
0.00157214
-0.00825292
0.0015365
-0.00880831
0.00149608
-0.00933567
0.00145218
-0.00983593
0.00140614
-0.0103106
0.00135924
-0.0107616
0.00131251
-0.0111908
0.00126673
-0.0116003
0.0012224
-0.0119917
0.00117977
-0.0123665
0.00113888
-0.0127261
0.00109967
-0.0130712
0.00106196
-0.0134025
0.0010255
-0.0137204
0.000990011
-0.0140249
0.00095517
-0.0143156
0.00092056
-0.0145921
0.000885694
-0.0148539
0.000850194
-0.0151007
0.000814051
-0.0153327
0.000777727
-0.0155506
0.000742007
-0.0157552
0.00070775
-0.0159481
0.000675722
-0.0161309
0.000646579
-0.0163054
0.000620853
-0.0164738
0.000598818
-0.0166376
0.000580274
-0.0167974
0.000564394
-0.0169528
0.00054971
-0.0171018
0.000534226
-0.0172409
0.000515623
-0.0173654
0.00049155
-0.0174694
0.00046001
-0.0175476
0.000419788
-0.0175955
0.000370826
-0.0176108
0.000314535
-0.017595
0.000254111
-0.017554
0.000194542
-0.0174961
0.000141131
-0.0174296
9.69569e-05
-0.0173597
6.2575e-05
-0.0172906
3.78249e-05
-0.0172259
2.12746e-05
-0.0171682
1.11419e-05
-0.0171191
5.76136e-06
-0.0170795
4.06505e-06
-0.01705
4.94905e-06
-0.0170308
7.91036e-06
-0.0170221
1.25713e-05
-0.017024
1.88738e-05
-0.0170363
2.68254e-05
-0.0170592
3.64596e-05
-0.0170925
4.75282e-05
-0.0171362
6.05559e-05
-0.0171904
7.51397e-05
-0.017255
9.13556e-05
-0.01733
0.000109201
-0.0174155
0.000128451
-0.0175114
0.000148883
-0.0176175
0.000170135
-0.0177337
0.000191941
-0.0178597
0.000213793
-0.0179948
0.000235242
-0.0181384
0.000255952
-0.0182896
0.000275548
-0.0184476
0.000293718
-0.0186114
0.000310212
-0.01878
0.000325002
-0.0189526
0.000338084
-0.0191286
0.000349634
-0.0193076
0.000359848
-0.0194891
0.000369005
-0.019673
0.000377515
-0.0198589
0.000385521
-0.0200467
0.000393534
-0.0202359
0.000401755
-0.0204259
0.000410273
-0.0206158
0.000418999
-0.0208042
0.000427567
-0.0209899
0.000435369
-0.0211711
0.000441477
-0.0213465
0.000445328
-0.0215156
0.000446473
-0.0216787
0.00044525
-0.0218377
0.000442717
-0.0219956
0.000440496
-0.0221564
0.000440224
-0.022324
0.000443053
-0.0225017
0.000448982
-0.0226917
0.000456858
-0.022895
0.00046452
-0.0231116
0.000469695
-0.0233409
0.000470753
-0.0235819
0.000467163
-0.0238337
0.000459979
-0.0240947
0.000451445
-0.0243625
0.000444271
-0.0246343
0.000440983
-0.0249068
0.000443289
-0.0251766
0.000451801
-0.0254408
0.00046645
-0.0256977
0.000486354
-0.0259467
0.000510106
-0.0261883
0.000536054
-0.0264236
0.000562652
-0.0266542
0.000588678
-0.0268819
0.000613379
-0.027108
0.000636525
-0.0273339
0.000658302
-0.0275603
0.000679059
-0.0277878
0.000699028
-0.0280173
0.000718226
-0.0282501
0.000736571
-0.0284872
0.000754098
-0.02873
0.000771167
-0.0289798
0.00078854
-0.029238
0.000807242
-0.0295057
0.000828273
-0.0297836
0.000852319
-0.0300719
0.0008796
-0.0303707
0.000909863
-0.0306798
0.000942406
-0.0309984
0.000976051
-0.0313262
0.00100914
-0.0316632
0.00103964
-0.0320113
0.00106542
-0.0323743
0.00108433
-0.0327585
0.0010943
-0.0331713
0.00109376
-0.0336193
0.00108205
-0.0341042
0.00106065
-0.0346187
0.00103427
-0.0351455
0.00101142
-0.035662
0.00100674
-0.0361512
0.00104046
-0.036611
0.00113664
-0.0370597
0.00131662
-0.0375342
0.0015867
-0.0380787
0.00192661
-0.0387278
0.00228956
-0.0394927
0.00261636
-0.0403555
0.00285508
-0.0412737
0.00297555
-0.0421949
0.00297535
-0.0430768
0.00287937
-0.043903
0.00273395
-0.0446835
0.00258932
-0.0454414
0.00248132
-0.0461985
0.00242286
-0.0469673
0.00240809
-0.0477511
0.00242292
-0.0485477
0.00245364
-0.0493538
0.00249063
-0.0501665
0.00252844
-0.0509847
0.0025644
-0.0518085
0.00259738
-0.0526388
0.00262699
-0.0534769
0.00265319
-0.0543236
0.00267607
-0.0551793
0.00269581
-0.0560441
0.00271265
-0.0569178
0.0027268
-0.0577998
0.00273849
-0.0586898
0.00274787
-0.0595869
0.00275504
-0.0604905
0.00276004
-0.0613998
0.00276288
-0.0623141
0.00276355
-0.0632326
0.00276208
-0.0641546
0.00275851
-0.0650793
0.0027529
-0.0660061
0.00274532
-0.0669339
0.00273581
-0.0678614
0.00272432
-0.0687873
0.00271069
-0.0697095
0.00269461
-0.0706259
0.00267563
-0.0715339
0.00265322
-0.072431
0.00262688
-0.0733146
0.00259625
-0.0741828
0.00256126
-0.0750342
0.00252218
-0.075868
0.00247967
-0.0766847
0.00243469
-0.0774854
0.00238836
-0.0782716
0.00234174
-0.0790454
0.00229566
-0.0798088
0.00225056
-0.0805631
0.00220639
-0.0813092
0.00216265
-0.0820472
0.00211842
-0.0827759
0.00207253
-0.0834934
0.0020238
-0.084197
0.00197127
-0.0848831
0.00191403
-0.0855472
0.00185063
-0.086184
0.00177793
-0.086788
0.00169073
-0.0873556
0.00158358
-0.0878882
0.00145562
-0.088395
0.00131644
-0.0888929
0.00118856
-0.0894024
0.00110198
-0.0899401
0.00108091
-0.0905112
0.00112911
-0.0911055
0.001222
-0.0916992
0.00131297
-0.0922588
0.0013515
-0.0927494
0.00130855
-0.093144
0.00119005
-0.0934339
0.00102904
-0.0936239
0.000869374
-0.0937269
0.000743017
-0.0937617
0.000657807
-0.0937509
0.000604206
-0.0937168
0.000568798
-0.0936781
0.00054152
-0.0936391
0.000514198
-0.093597
0.000488646
-0.0935488
0.000466801
-0.0934897
0.000451978
-0.0934168
0.000452261
-0.0933345
0.000483538
-0.0932603
0.00056789
-0.093227
0.000725313
-0.0932792
0.000961155
-0.0934628
0.00125581
-0.0938096
0.0015641
-0.0943237
0.00182797
-0.0949764
0.00199757
-0.0957115
0.00204859
-0.0964592
0.00198542
-0.0971506
0.00183064
-0.0977295
0.00161103
-0.0981599
0.00135022
-0.0984293
0.00106963
-0.0985472
0.000791513
-0.0985392
0.000537997
-0.0984387
0.00032619
-0.0982773
0.00016416
-0.0980797
5.00528e-05
-0.0978628
-2.53466e-05
-0.0976274
-8.39609e-05
-0.0973814
-0.000124857
-0.0971284
-0.000159333
-0.0968716
-0.000193439
-0.0966076
-0.000232329
-0.0963308
-0.00027553
-0.0960438
-0.000324266
-0.0957442
-0.000375651
-0.0954297
-0.000429209
-0.0950987
-0.000484491