/*--------------------------------*- C++ -*----------------------------------*\
| =========                 |                                                 |
| \\      /  F ield         | OpenFOAM: The Open Source CFD Toolbox           |
|  \\    /   O peration     | Version:  v2006                                 |
|   \\  /    A nd           | Website:  www.openfoam.com                      |
|    \\/     M anipulation  |                                                 |
\*---------------------------------------------------------------------------*/
FoamFile
{
    version     2.0;
    format      ascii;
    class       volScalarField;
    location    "13";
    object      p_rgh;
}
// * * * * * * * * * * * * * * * * * * * * * * * * * * * * * * * * * * * * * //

dimensions      [1 -1 -2 0 0 0 0];


internalField   nonuniform List<scalar> 
150000
(
-194.419
-195.36
-197.06
-199.596
-202.986
-207.247
-212.374
-218.361
-225.198
-232.871
-241.367
-250.667
-260.753
-271.605
-283.203
-295.525
-308.549
-322.253
-336.613
-351.605
-367.204
-383.384
-400.119
-417.381
-435.141
-453.371
-472.041
-491.118
-510.573
-530.373
-550.484
-570.874
-591.509
-612.355
-633.379
-654.546
-675.822
-697.175
-718.571
-739.978
-761.363
-782.693
-803.934
-825.053
-846.014
-866.783
-887.325
-907.604
-927.586
-947.24
-966.535
-985.444
-1003.94
-1022.01
-1039.62
-1056.76
-1073.39
-1089.51
-1105.09
-1120.11
-1134.56
-1148.4
-1161.63
-1174.22
-1186.17
-1197.45
-1208.07
-1217.99
-1227.22
-1235.75
-1243.56
-1250.65
-1257.01
-1262.65
-1267.54
-1271.7
-1275.11
-1277.78
-1279.7
-1280.88
-1281.31
-1281
-1279.95
-1278.17
-1275.65
-1272.41
-1268.45
-1263.77
-1258.39
-1252.3
-1245.52
-1238.06
-1229.91
-1221.1
-1211.61
-1201.47
-1190.69
-1179.26
-1167.2
-1154.53
-1141.24
-1127.36
-1112.88
-1097.82
-1082.2
-1066.01
-1049.28
-1032.01
-1014.22
-995.908
-977.07
-957.707
-937.812
-917.38
-896.407
-874.891
-852.835
-830.245
-807.126
-783.484
-759.323
-734.644
-709.447
-683.732
-657.499
-630.747
-603.477
-575.687
-547.378
-518.548
-489.198
-459.326
-428.933
-398.022
-366.595
-334.649
-302.184
-269.195
-235.678
-201.632
-167.064
-131.99
-96.4403
-60.4538
-24.063
12.7259
49.9245
87.5752
125.738
164.463
203.781
243.681
284.093
324.887
365.913
407.057
448.287
489.647
531.209
573.027
615.112
657.445
699.995
742.731
785.629
828.666
871.82
915.064
958.368
1001.7
1045.02
1088.31
1131.53
1174.66
1217.68
1260.56
1303.27
1345.8
1388.11
1430.2
1472.03
1513.58
1554.82
1595.75
1636.32
1676.53
1716.35
1755.75
1794.71
1833.22
1871.26
1908.8
1945.83
1982.32
2018.28
2053.67
2088.49
2122.71
2156.31
2189.29
2221.61
2253.27
2284.23
2314.49
2344.02
2372.81
2400.83
2428.1
2454.58
2480.27
2505.16
2529.23
2552.47
2574.91
2596.56
2617.47
2637.66
2657.07
2675.51
2692.73
2708.54
2722.91
2735.97
2748.3
2760.31
2772.17
2783.78
2794.83
2804.96
2813.91
2821.63
2828.1
2833.38
2837.6
2840.85
2843.21
2844.74
2845.46
2845.35
2844.37
2842.45
2839.54
2835.67
2830.88
2825.27
2818.89
2811.75
2803.79
2794.96
2785.26
2774.73
2763.46
2751.58
2739.2
2726.32
2712.95
2699.04
2684.56
2669.42
2653.65
2637.3
2620.3
2602.7
2584.55
2565.89
2546.78
2527.25
2507.34
2487.11
2466.57
2445.76
2424.7
2403.4
2381.9
2360.26
2338.57
2316.82
2294.8
2272.31
2250.17
2228.23
2206.4
2184.66
2163.03
2141.52
2120.16
2098.97
2077.99
2057.24
2036.73
2016.51
1996.58
1976.97
1957.7
1938.79
1920.26
1902.11
1884.38
1867.06
1850.17
1833.71
1817.71
1802.16
1787.07
1772.45
1758.3
1744.63
1731.44
1718.72
1706.49
1694.73
1683.46
1672.65
1662.32
1652.44
1643.03
1634.08
1625.57
1617.5
1609.86
1602.65
1595.85
1589.47
1583.49
1577.91
1572.71
1567.9
1563.46
1559.38
1555.66
1552.3
1549.28
1546.6
1544.26
1542.24
1540.55
1539.18
1538.12
1537.37
1536.92
1536.78
1536.93
1537.38
1538.12
1539.14
1540.45
1542.05
1543.93
1546.08
1548.52
1551.23
1554.21
1557.48
1561.01
1564.82
1568.91
1573.26
1577.89
1582.8
1587.98
1593.43
1599.16
1605.16
1611.44
1617.99
1624.81
1631.91
1639.29
1646.94
1654.86
1663.05
1671.51
1680.25
1689.25
1698.52
1708.05
1717.84
1727.9
1738.22
1748.8
1759.63
1770.72
1782.05
1793.64
1805.46
1817.53
1829.83
1842.36
1855.13
1868.13
1881.35
1894.8
1908.47
1922.36
1936.48
1950.82
1965.37
1980.14
1995.12
2010.31
2025.7
2041.3
2057.09
2073.08
2089.24
2105.62
2122.18
2138.95
2155.93
2173.11
2190.5
2208.1
2225.91
2243.9
2262.06
2280.38
2298.87
2317.51
2336.31
2355.28
2374.4
2393.68
2413.12
2432.7
2452.42
2472.28
2492.25
2512.34
2532.54
2552.86
2573.32
2593.95
2614.75
2635.66
2656.66
2677.69
2698.75
2719.8
2740.85
2761.9
2782.93
2803.96
2824.98
2845.98
2866.95
2887.89
2908.77
2929.59
2950.34
2971.01
2991.59
3012.06
3032.41
3052.63
3072.69
3092.59
3112.31
3131.83
3151.14
3170.22
3189.05
3207.62
3225.91
3243.9
3261.58
3278.92
3295.91
3312.54
3328.77
3344.61
3360.02
3375
3389.53
3403.58
3417.15
3430.23
3442.79
3454.83
3466.33
3477.29
3487.69
3497.52
3506.78
3515.47
3523.58
3531.11
3538.06
3544.44
3550.24
3555.5
3560.21
3564.39
3568.06
3571.24
3573.93
3576.17
3578.01
3579.33
3580.18
3580.61
-193.777
-194.749
-196.433
-198.956
-202.336
-206.592
-211.72
-217.712
-224.558
-232.244
-240.753
-250.07
-260.174
-271.046
-282.664
-295.007
-308.054
-321.78
-336.163
-351.178
-366.8
-383.004
-399.762
-417.047
-434.83
-453.084
-471.776
-490.878
-510.357
-530.181
-550.317
-570.731
-591.39
-612.26
-633.308
-654.499
-675.799
-697.176
-718.596
-740.026
-761.433
-782.784
-804.046
-825.185
-846.167
-866.958
-887.522
-907.824
-927.832
-947.512
-966.834
-985.768
-1004.29
-1022.38
-1040.01
-1057.16
-1073.82
-1089.95
-1105.53
-1120.56
-1135.01
-1148.86
-1162.09
-1174.69
-1186.64
-1197.93
-1208.55
-1218.48
-1227.72
-1236.24
-1244.06
-1251.15
-1257.52
-1263.15
-1268.05
-1272.21
-1275.62
-1278.29
-1280.21
-1281.39
-1281.82
-1281.51
-1280.46
-1278.67
-1276.15
-1272.91
-1268.94
-1264.25
-1258.86
-1252.77
-1245.98
-1238.51
-1230.36
-1221.53
-1212.05
-1201.91
-1191.12
-1179.69
-1167.63
-1154.96
-1141.67
-1127.79
-1113.31
-1098.25
-1082.63
-1066.44
-1049.7
-1032.43
-1014.62
-996.289
-977.431
-958.047
-938.133
-917.685
-896.7
-875.18
-853.125
-830.54
-807.428
-783.794
-759.64
-734.967
-709.776
-684.067
-657.839
-631.093
-603.828
-576.043
-547.737
-518.91
-489.56
-459.687
-429.292
-398.377
-366.941
-334.988
-302.516
-269.526
-236.019
-201.994
-167.456
-132.417
-96.895
-60.9064
-24.4628
12.4248
49.7831
87.6276
125.968
164.816
204.168
243.993
284.226
324.79
365.614
406.645
447.858
489.258
530.88
572.758
614.901
657.294
699.905
742.7
785.649
828.723
871.895
915.142
958.436
1001.75
1045.06
1088.33
1131.55
1174.68
1217.69
1260.57
1303.29
1345.83
1388.16
1430.25
1472.09
1513.65
1554.91
1595.85
1636.43
1676.65
1716.48
1755.89
1794.87
1833.4
1871.45
1909
1946.04
1982.55
2018.51
2053.91
2088.73
2122.95
2156.56
2189.53
2221.85
2253.5
2284.46
2314.71
2344.25
2373.04
2401.07
2428.34
2454.83
2480.52
2505.41
2529.5
2552.8
2575.29
2596.98
2617.83
2637.8
2656.85
2674.99
2692.24
2708.51
2723.72
2738.04
2751.37
2763.84
2775.51
2786.36
2796.35
2805.53
2813.81
2821.11
2827.45
2832.85
2837.31
2840.81
2843.37
2845
2845.74
2845.62
2844.63
2842.77
2839.98
2836.24
2831.55
2825.94
2819.43
2812.1
2804
2795.18
2785.66
2775.45
2764.59
2753.07
2740.86
2727.87
2714.2
2699.88
2684.98
2669.47
2653.3
2636.77
2619.6
2601.91
2583.75
2565.15
2546.12
2526.71
2506.93
2486.8
2466.35
2445.6
2424.58
2403.32
2381.85
2360.13
2338.11
2315.84
2293.63
2271.9
2250.03
2228.16
2206.33
2184.57
2162.91
2141.37
2119.98
2098.77
2077.77
2056.99
2036.46
2016.21
1996.26
1976.63
1957.34
1938.41
1919.85
1901.69
1883.94
1866.6
1849.69
1833.22
1817.2
1801.64
1786.54
1771.91
1757.76
1744.08
1730.88
1718.16
1705.92
1694.16
1682.88
1672.07
1661.73
1651.86
1642.45
1633.49
1624.98
1616.91
1609.27
1602.06
1595.27
1588.89
1582.91
1577.33
1572.13
1567.32
1562.88
1558.81
1555.1
1551.73
1548.72
1546.04
1543.7
1541.69
1540.01
1538.64
1537.58
1536.83
1536.39
1536.25
1536.41
1536.86
1537.61
1538.64
1539.95
1541.55
1543.44
1545.6
1548.04
1550.75
1553.75
1557.01
1560.55
1564.37
1568.46
1572.82
1577.46
1582.37
1587.55
1593.01
1598.74
1604.75
1611.03
1617.58
1624.41
1631.52
1638.89
1646.55
1654.47
1662.67
1671.14
1679.87
1688.88
1698.16
1707.7
1717.5
1727.57
1737.9
1748.48
1759.32
1770.42
1781.76
1793.35
1805.18
1817.25
1829.56
1842.1
1854.88
1867.88
1881.11
1894.57
1908.25
1922.15
1936.27
1950.61
1965.17
1979.95
1994.94
2010.15
2025.56
2041.18
2057
2073.01
2089.22
2105.59
2122.15
2138.88
2155.81
2172.96
2190.34
2207.95
2225.77
2243.79
2261.99
2280.34
2298.84
2317.48
2336.28
2355.23
2374.34
2393.61
2413.05
2432.63
2452.35
2472.21
2492.17
2512.24
2532.41
2552.73
2573.24
2593.92
2614.72
2635.63
2656.62
2677.65
2698.69
2719.74
2740.78
2761.82
2782.86
2803.89
2824.92
2845.93
2866.91
2887.86
2908.75
2929.59
2950.36
2971.05
2991.64
3012.13
3032.5
3052.73
3072.81
3092.72
3112.45
3131.98
3151.3
3170.39
3189.23
3207.81
3226.11
3244.11
3261.8
3279.15
3296.15
3312.79
3329.03
3344.88
3360.3
3375.29
3389.83
3403.89
3417.48
3430.56
3443.13
3455.18
3466.69
3477.65
3488.06
3497.9
3507.18
3515.86
3523.97
3531.5
3538.45
3544.82
3550.62
3555.87
3560.57
3564.74
3568.4
3571.56
3574.24
3576.42
3578.37
3579.62
3580.46
3580.89
-192.762
-193.722
-195.384
-197.893
-201.267
-205.531
-210.677
-216.694
-223.566
-231.279
-239.817
-249.161
-259.293
-270.192
-281.837
-294.208
-307.281
-321.035
-335.445
-350.488
-366.14
-382.373
-399.162
-416.479
-434.297
-452.585
-471.313
-490.452
-509.969
-529.832
-550.008
-570.462
-591.162
-612.072
-633.161
-654.393
-675.736
-697.156
-718.62
-740.095
-761.549
-782.947
-804.257
-825.445
-846.475
-867.312
-887.92
-908.265
-928.31
-948.024
-967.375
-986.339
-1004.89
-1023.01
-1040.67
-1057.86
-1074.54
-1090.7
-1106.33
-1121.39
-1135.86
-1149.73
-1162.98
-1175.6
-1187.57
-1198.88
-1209.51
-1219.45
-1228.7
-1237.24
-1245.06
-1252.16
-1258.54
-1264.17
-1269.08
-1273.24
-1276.65
-1279.32
-1281.24
-1282.42
-1282.85
-1282.54
-1281.48
-1279.69
-1277.16
-1273.91
-1269.93
-1265.24
-1259.84
-1253.73
-1246.93
-1239.45
-1231.28
-1222.45
-1212.95
-1202.79
-1191.99
-1180.56
-1168.49
-1155.8
-1142.51
-1128.62
-1114.14
-1099.08
-1083.45
-1067.26
-1050.52
-1033.23
-1015.41
-997.052
-978.168
-958.757
-938.819
-918.354
-897.359
-875.835
-853.783
-831.204
-808.102
-784.477
-760.332
-735.669
-710.487
-684.787
-658.568
-631.83
-604.571
-576.792
-548.492
-519.669
-490.324
-460.456
-430.067
-399.155
-367.722
-335.768
-303.294
-270.298
-236.784
-202.751
-168.205
-133.155
-97.6189
-61.6221
-25.1836
11.6855
48.9806
86.7271
124.964
163.727
203.031
242.852
283.121
323.735
364.592
405.637
446.865
488.302
529.987
571.938
614.15
656.595
699.242
742.061
785.025
828.11
871.294
914.552
957.86
1001.19
1044.52
1087.81
1131.05
1174.2
1217.25
1260.16
1302.91
1345.47
1387.83
1429.96
1471.84
1513.43
1554.73
1595.7
1636.32
1676.58
1716.44
1755.89
1794.91
1833.47
1871.55
1909.14
1946.21
1982.76
2018.76
2054.2
2089.06
2123.32
2156.98
2189.99
2222.36
2254.05
2285.05
2315.34
2344.91
2373.73
2401.8
2429.09
2455.6
2481.31
2506.22
2530.33
2553.67
2576.25
2598.05
2619.04
2639.14
2658.27
2676.34
2693.32
2709.21
2724.06
2737.98
2751.15
2763.71
2775.71
2787.06
2797.57
2807.03
2815.48
2822.86
2829.19
2834.48
2838.79
2842.17
2844.64
2846.23
2846.94
2846.78
2845.73
2843.78
2840.91
2837.11
2832.4
2826.79
2820.3
2812.96
2804.8
2795.85
2786.17
2775.77
2764.7
2753
2740.89
2728.08
2714.67
2700.63
2685.92
2670.61
2654.75
2638.08
2620.93
2603.25
2585.05
2566.37
2547.25
2527.71
2507.81
2487.57
2467.02
2446.19
2425.1
2403.78
2382.27
2360.59
2338.75
2316.74
2294.59
2272.45
2250.32
2228.28
2206.32
2184.45
2162.71
2141.09
2119.64
2098.37
2077.31
2056.48
2035.9
2015.61
1995.61
1975.94
1956.61
1937.65
1919.06
1900.86
1883.07
1865.71
1848.77
1832.28
1816.24
1800.66
1785.54
1770.89
1756.72
1743.03
1729.82
1717.09
1704.85
1693.08
1681.79
1670.98
1660.64
1650.77
1641.35
1632.39
1623.88
1615.81
1608.18
1600.97
1594.18
1587.81
1581.83
1576.26
1571.07
1566.26
1561.83
1557.76
1554.05
1550.7
1547.69
1545.02
1542.69
1540.69
1539.01
1537.65
1536.6
1535.86
1535.43
1535.3
1535.47
1535.93
1536.68
1537.72
1539.05
1540.66
1542.55
1544.72
1547.17
1549.89
1552.89
1556.17
1559.72
1563.55
1567.64
1572.01
1576.66
1581.58
1586.77
1592.23
1597.97
1603.99
1610.28
1616.84
1623.68
1630.79
1638.18
1645.84
1653.78
1661.98
1670.46
1679.21
1688.23
1697.52
1707.07
1716.89
1726.97
1737.31
1747.9
1758.76
1769.86
1781.22
1792.82
1804.66
1816.74
1829.06
1841.61
1854.4
1867.41
1880.65
1894.11
1907.8
1921.71
1935.84
1950.19
1964.76
1979.54
1994.53
2009.73
2025.13
2040.74
2056.55
2072.55
2088.74
2105.13
2121.72
2138.51
2155.5
2172.7
2190.09
2207.69
2225.48
2243.46
2261.61
2279.94
2298.43
2317.09
2335.91
2354.89
2374.04
2393.35
2412.81
2432.41
2452.16
2472.04
2492.04
2512.17
2532.44
2552.83
2573.36
2594.01
2614.78
2635.65
2656.59
2677.58
2698.6
2719.65
2740.71
2761.79
2782.87
2803.95
2825.01
2846.05
2867.07
2888.03
2908.94
2929.78
2950.56
2971.26
2991.87
3012.37
3032.75
3053
3073.09
3093.02
3112.76
3132.31
3151.65
3170.76
3189.62
3208.22
3226.54
3244.56
3262.27
3279.64
3296.66
3313.32
3329.59
3345.45
3360.9
3375.9
3390.46
3404.55
3418.15
3431.25
3443.84
3455.9
3467.42
3478.4
3488.81
3498.67
3507.96
3516.63
3524.74
3532.25
3539.21
3545.58
3551.38
3556.62
3561.32
3565.48
3569.13
3572.28
3574.97
3577.2
3578.93
3580.2
3581.02
3581.44
-191.221
-192.199
-193.859
-196.368
-199.742
-204.018
-209.184
-215.225
-222.123
-229.863
-238.428
-247.799
-257.959
-268.887
-280.562
-292.964
-306.07
-319.859
-334.307
-349.39
-365.084
-381.362
-398.199
-415.566
-433.436
-451.778
-470.563
-489.759
-509.335
-529.258
-549.494
-570.011
-590.774
-611.749
-632.903
-654.202
-675.613
-697.101
-718.634
-740.178
-761.7
-783.167
-804.545
-825.799
-846.893
-867.791
-888.458
-908.86
-928.961
-948.732
-968.144
-987.17
-1005.78
-1023.96
-1041.68
-1058.92
-1075.66
-1091.87
-1107.53
-1122.63
-1137.14
-1151.04
-1164.33
-1176.97
-1188.97
-1200.3
-1210.95
-1220.92
-1230.18
-1238.74
-1246.58
-1253.69
-1260.08
-1265.73
-1270.64
-1274.8
-1278.22
-1280.89
-1282.81
-1283.99
-1284.41
-1284.09
-1283.03
-1281.23
-1278.69
-1275.43
-1271.44
-1266.73
-1261.31
-1255.19
-1248.38
-1240.87
-1232.69
-1223.83
-1214.32
-1204.14
-1193.33
-1181.87
-1169.79
-1157.09
-1143.78
-1129.87
-1115.38
-1100.31
-1084.66
-1068.46
-1051.71
-1034.41
-1016.57
-998.204
-979.305
-959.878
-939.925
-919.446
-898.441
-876.91
-854.855
-832.276
-809.176
-785.556
-761.417
-736.76
-711.585
-685.892
-659.68
-632.949
-605.698
-577.925
-549.63
-520.812
-491.471
-461.607
-431.22
-400.313
-368.884
-336.936
-304.467
-271.479
-237.97
-203.943
-169.401
-134.349
-98.7927
-62.744
-26.2182
10.7791
48.2365
86.1408
124.479
163.245
202.441
242.064
282.091
322.474
363.164
404.124
445.348
486.853
528.65
570.725
613.048
655.584
698.301
741.175
784.185
827.311
870.531
913.823
957.164
1000.53
1043.89
1087.22
1130.49
1173.68
1216.77
1259.72
1302.51
1345.13
1387.53
1429.71
1471.63
1513.28
1554.62
1595.65
1636.32
1676.63
1716.54
1756.05
1795.12
1833.73
1871.87
1909.51
1946.65
1983.26
2019.32
2054.82
2089.74
2124.07
2157.77
2190.84
2223.26
2255.01
2286.06
2316.4
2346.02
2374.9
2403.02
2430.37
2456.94
2482.73
2507.72
2531.91
2555.31
2577.91
2599.69
2620.62
2640.65
2659.78
2677.95
2695.14
2711.36
2726.61
2740.93
2754.35
2766.88
2778.54
2789.39
2799.46
2808.67
2816.96
2824.29
2830.64
2836.01
2840.38
2843.75
2846.15
2847.62
2848.21
2847.96
2846.9
2845.02
2842.28
2838.64
2834.06
2828.56
2822.15
2814.89
2806.84
2798.02
2788.47
2778.22
2767.27
2755.65
2742.96
2729.9
2716.19
2701.87
2686.95
2671.42
2655.31
2638.6
2621.37
2603.63
2585.41
2566.72
2547.6
2528.06
2508.15
2487.87
2467.28
2446.38
2425.22
2403.81
2382.19
2360.38
2338.39
2316.28
2294.15
2272.05
2249.97
2227.91
2205.91
2183.99
2162.17
2140.49
2118.97
2097.63
2076.5
2055.6
2034.97
2014.61
1994.56
1974.83
1955.44
1936.42
1917.78
1899.53
1881.7
1864.28
1847.31
1830.78
1814.7
1799.09
1783.95
1769.28
1755.09
1741.38
1728.16
1715.42
1703.16
1691.39
1680.1
1669.28
1658.94
1649.06
1639.65
1630.69
1622.18
1614.12
1606.49
1599.29
1592.51
1586.14
1580.17
1574.61
1569.43
1564.63
1560.21
1556.15
1552.46
1549.12
1546.13
1543.47
1541.15
1539.17
1537.5
1536.15
1535.12
1534.4
1533.98
1533.87
1534.05
1534.53
1535.3
1536.35
1537.69
1539.32
1541.23
1543.41
1545.88
1548.62
1551.64
1554.93
1558.5
1562.34
1566.45
1570.83
1575.49
1580.43
1585.63
1591.11
1596.87
1602.89
1609.2
1615.77
1622.63
1629.75
1637.16
1644.83
1652.78
1661.01
1669.5
1678.27
1687.31
1696.61
1706.18
1716.02
1726.11
1736.47
1747.09
1757.96
1769.08
1780.45
1792.06
1803.92
1816.01
1828.35
1840.91
1853.71
1866.74
1879.99
1893.47
1907.17
1921.09
1935.24
1949.6
1964.17
1978.96
1993.96
2009.18
2024.59
2040.22
2056.04
2072.07
2088.29
2104.71
2121.31
2138.1
2155.09
2172.28
2189.67
2207.26
2225.04
2243.02
2261.17
2279.51
2298.02
2316.7
2335.55
2354.56
2373.72
2393.04
2412.51
2432.14
2451.9
2471.8
2491.83
2511.99
2532.27
2552.68
2573.21
2593.87
2614.63
2635.5
2656.45
2677.44
2698.48
2719.54
2740.63
2761.72
2782.81
2803.9
2824.97
2846.03
2867.06
2888.05
2909.01
2929.89
2950.7
2971.43
2992.06
3012.59
3033.02
3053.3
3073.42
3093.37
3113.15
3132.73
3152.1
3171.25
3190.14
3208.78
3227.13
3245.19
3262.94
3280.35
3297.41
3314.1
3330.41
3346.31
3361.79
3376.84
3391.43
3405.55
3419.18
3432.31
3444.93
3457.01
3468.56
3479.55
3489.98
3499.83
3509.09
3517.79
3525.9
3533.42
3540.36
3546.71
3552.49
3557.7
3562.35
3566.48
3570.08
3573.19
3575.82
3577.94
3579.75
3581.04
3581.85
3582.26
-189.162
-190.158
-191.833
-194.36
-197.746
-202.034
-207.218
-213.278
-220.198
-227.96
-236.549
-245.946
-256.135
-267.094
-278.804
-291.245
-304.394
-318.23
-332.728
-347.867
-363.619
-379.96
-396.862
-414.297
-432.238
-450.653
-469.513
-488.786
-508.441
-528.444
-548.763
-569.363
-590.212
-611.275
-632.519
-653.909
-675.412
-696.994
-718.621
-740.259
-761.874
-783.431
-804.895
-826.233
-847.408
-868.387
-889.134
-909.616
-929.801
-949.655
-969.149
-988.256
-1006.95
-1025.2
-1043
-1060.3
-1077.11
-1093.38
-1109.11
-1124.26
-1138.82
-1152.77
-1166.1
-1178.79
-1190.82
-1202.19
-1212.87
-1222.87
-1232.16
-1240.74
-1248.6
-1255.73
-1262.14
-1267.8
-1272.72
-1276.89
-1280.32
-1282.99
-1284.91
-1286.08
-1286.51
-1286.18
-1285.11
-1283.3
-1280.75
-1277.47
-1273.46
-1268.73
-1263.3
-1257.15
-1250.31
-1242.78
-1234.58
-1225.7
-1216.15
-1205.95
-1195.11
-1183.63
-1171.53
-1158.8
-1145.48
-1131.55
-1117.04
-1101.95
-1086.29
-1070.07
-1053.3
-1035.98
-1018.13
-999.741
-980.825
-961.382
-941.415
-920.925
-899.911
-878.374
-856.316
-833.738
-810.64
-787.024
-762.89
-738.24
-713.072
-687.387
-661.184
-634.462
-607.22
-579.457
-551.172
-522.365
-493.034
-463.179
-432.801
-401.898
-370.471
-338.521
-306.048
-273.052
-239.536
-205.502
-170.955
-135.901
-100.352
-64.3197
-27.8138
9.1571
46.5891
84.4833
122.838
161.643
200.877
240.511
280.513
320.855
361.518
402.493
443.777
485.363
527.234
569.365
611.73
654.302
697.057
739.972
783.026
826.197
869.465
912.804
956.192
999.603
1043.01
1086.39
1129.72
1172.96
1216.1
1259.11
1301.96
1344.63
1387.1
1429.34
1471.33
1513.04
1554.45
1595.54
1636.28
1676.66
1716.65
1756.22
1795.37
1834.06
1872.28
1910.01
1947.22
1983.92
2020.06
2055.64
2090.64
2125.04
2158.83
2191.97
2224.46
2256.27
2287.39
2317.8
2347.49
2376.43
2404.63
2432.05
2458.7
2484.56
2509.63
2533.89
2557.35
2580
2601.79
2622.7
2642.7
2661.75
2679.85
2696.99
2713.19
2728.47
2742.88
2756.44
2769.19
2781.09
2792.11
2802.21
2811.38
2819.6
2826.85
2833.13
2838.45
2842.81
2846.22
2848.67
2850.17
2850.73
2850.4
2849.21
2847.21
2844.4
2840.74
2836.2
2830.73
2824.34
2817.06
2808.93
2800.01
2790.33
2779.91
2768.77
2756.86
2744.68
2731.7
2718.04
2703.72
2688.78
2673.22
2657.06
2640.31
2623
2605.16
2586.82
2568.02
2548.78
2529.13
2509.11
2488.75
2468.06
2447.09
2425.85
2404.37
2382.69
2360.83
2338.8
2316.65
2294.42
2272.16
2249.92
2227.71
2205.57
2183.53
2161.59
2139.8
2118.17
2096.73
2075.5
2054.51
2033.78
2013.34
1993.2
1973.39
1953.94
1934.84
1916.13
1897.83
1879.93
1862.46
1845.44
1828.86
1812.74
1797.08
1781.9
1767.2
1752.98
1739.25
1726
1713.24
1700.97
1689.19
1677.88
1667.06
1656.71
1646.83
1637.42
1628.46
1619.96
1611.9
1604.27
1597.08
1590.31
1583.95
1578
1572.44
1567.28
1562.49
1558.09
1554.05
1550.37
1547.04
1544.07
1541.43
1539.13
1537.16
1535.51
1534.19
1533.17
1532.47
1532.07
1531.98
1532.18
1532.68
1533.47
1534.54
1535.91
1537.55
1539.48
1541.69
1544.17
1546.94
1549.97
1553.29
1556.87
1560.73
1564.86
1569.27
1573.95
1578.9
1584.13
1589.63
1595.4
1601.45
1607.77
1614.37
1621.24
1628.39
1635.81
1643.51
1651.48
1659.73
1668.25
1677.04
1686.09
1695.42
1705.01
1714.87
1724.99
1735.37
1746.01
1756.9
1768.04
1779.43
1791.06
1802.94
1815.05
1827.4
1839.99
1852.81
1865.85
1879.13
1892.63
1906.35
1920.29
1934.45
1948.82
1963.41
1978.22
1993.23
2008.46
2023.88
2039.52
2055.35
2071.38
2087.61
2104.03
2120.65
2137.46
2154.47
2171.68
2189.09
2206.69
2224.49
2242.48
2260.65
2279
2297.52
2316.22
2335.07
2354.1
2373.28
2392.62
2412.12
2431.76
2451.55
2471.49
2491.56
2511.74
2532.06
2552.5
2573.07
2593.75
2614.53
2635.4
2656.34
2677.35
2698.4
2719.48
2740.59
2761.71
2782.84
2803.97
2825.08
2846.18
2867.24
2888.27
2909.25
2930.17
2951.01
2971.77
2992.44
3013
3033.43
3053.76
3073.89
3093.87
3113.69
3133.31
3152.72
3171.91
3190.85
3209.53
3227.93
3246.04
3263.84
3281.3
3298.41
3315.15
3331.51
3347.46
3363
3378.09
3392.73
3406.89
3420.57
3433.75
3446.4
3458.52
3470.1
3481.12
3491.57
3501.45
3510.74
3519.46
3527.55
3535.05
3541.97
3548.29
3554.03
3559.2
3563.82
3567.89
3571.45
3574.51
3577.1
3579.21
3580.92
3582.17
3582.96
3583.36
-186.572
-187.584
-189.281
-191.836
-195.239
-199.54
-204.736
-210.812
-217.75
-225.536
-234.151
-243.579
-253.803
-264.802
-276.558
-289.05
-302.256
-316.154
-330.72
-345.93
-361.76
-378.182
-395.169
-412.693
-430.725
-449.234
-468.191
-487.564
-507.32
-527.427
-547.852
-568.561
-589.52
-610.696
-632.054
-653.56
-675.179
-696.878
-718.621
-740.375
-762.104
-783.774
-805.35
-826.798
-848.082
-869.167
-890.02
-910.606
-930.893
-950.85
-970.448
-989.657
-1008.45
-1026.8
-1044.68
-1062.08
-1078.96
-1095.31
-1111.1
-1126.32
-1140.94
-1154.95
-1168.33
-1181.07
-1193.15
-1204.56
-1215.28
-1225.31
-1234.63
-1243.24
-1251.13
-1258.29
-1264.71
-1270.39
-1275.32
-1279.5
-1282.93
-1285.61
-1287.53
-1288.7
-1289.12
-1288.79
-1287.7
-1285.88
-1283.31
-1280.01
-1275.98
-1271.23
-1265.77
-1259.6
-1252.73
-1245.18
-1236.94
-1228.02
-1218.45
-1208.22
-1197.35
-1185.84
-1173.7
-1160.95
-1147.6
-1133.65
-1119.11
-1104
-1088.32
-1072.08
-1055.28
-1037.95
-1020.07
-1001.67
-982.73
-963.27
-943.287
-922.782
-901.757
-880.214
-858.151
-835.572
-812.476
-788.863
-764.736
-740.092
-714.933
-689.257
-663.064
-636.352
-609.121
-581.369
-553.095
-524.297
-494.976
-465.131
-434.76
-403.865
-372.445
-340.501
-308.033
-275.042
-241.53
-207.5
-172.955
-137.902
-102.347
-66.2999
-29.7702
7.23241
44.6981
82.6153
120.971
159.751
198.946
238.542
278.523
318.868
359.561
400.586
441.93
483.575
525.501
567.683
610.096
652.716
695.521
738.488
781.596
824.824
868.149
911.548
954.995
998.466
1041.94
1085.38
1128.77
1172.08
1215.29
1258.37
1301.29
1344.04
1386.58
1428.9
1470.97
1512.76
1554.25
1595.42
1636.25
1676.72
1716.8
1756.46
1795.7
1834.49
1872.8
1910.63
1947.95
1984.74
2020.98
2056.66
2091.75
2126.24
2160.11
2193.34
2225.92
2257.81
2289.02
2319.52
2349.29
2378.32
2406.6
2434.12
2460.85
2486.8
2511.94
2536.28
2559.79
2582.47
2604.3
2625.25
2645.31
2664.46
2682.67
2699.93
2716.26
2731.64
2746.11
2759.67
2772.36
2784.2
2795.18
2805.26
2814.42
2822.64
2829.9
2836.18
2841.49
2845.84
2849.23
2851.68
2853.19
2853.79
2853.48
2852.3
2850.25
2847.37
2843.63
2839.01
2833.51
2827.12
2819.87
2811.77
2802.88
2793.22
2782.81
2771.69
2759.92
2747.28
2734.06
2720.22
2705.75
2690.67
2674.98
2658.7
2641.85
2624.46
2606.55
2588.14
2569.26
2549.93
2530.2
2510.07
2489.59
2468.78
2447.68
2426.31
2404.7
2382.88
2360.89
2338.74
2316.49
2294.18
2271.84
2249.51
2227.2
2204.96
2182.8
2160.75
2138.84
2117.1
2095.54
2074.2
2053.11
2032.27
2011.73
1991.5
1971.59
1952.04
1932.87
1914.07
1895.69
1877.72
1860.18
1843.09
1826.45
1810.28
1794.57
1779.35
1764.61
1750.36
1736.59
1723.32
1710.54
1698.25
1686.45
1675.13
1664.3
1653.94
1644.06
1634.65
1625.69
1617.19
1609.13
1601.52
1594.33
1587.57
1581.22
1575.29
1569.74
1564.6
1559.83
1555.44
1551.42
1547.76
1544.46
1541.5
1538.88
1536.6
1534.66
1533.03
1531.73
1530.74
1530.06
1529.69
1529.62
1529.84
1530.36
1531.18
1532.28
1533.67
1535.34
1537.29
1539.53
1542.04
1544.82
1547.89
1551.22
1554.83
1558.72
1562.87
1567.3
1572.01
1576.98
1582.23
1587.76
1593.55
1599.63
1605.97
1612.6
1619.5
1626.67
1634.12
1641.84
1649.84
1658.11
1666.66
1675.48
1684.56
1693.92
1703.54
1713.43
1723.57
1733.98
1744.64
1755.56
1766.73
1778.15
1789.81
1801.71
1813.85
1826.23
1838.84
1851.68
1864.75
1878.05
1891.57
1905.31
1919.28
1933.46
1947.86
1962.47
1977.29
1992.32
2007.56
2023.01
2038.66
2054.51
2070.56
2086.8
2103.24
2119.88
2136.71
2153.74
2170.96
2188.38
2206
2223.81
2241.81
2259.99
2278.35
2296.89
2315.6
2334.48
2353.53
2372.73
2392.1
2411.62
2431.29
2451.1
2471.05
2491.15
2511.38
2531.73
2552.2
2572.79
2593.49
2614.29
2635.17
2656.13
2677.16
2698.23
2719.34
2740.48
2761.63
2782.79
2803.95
2825.1
2846.23
2867.33
2888.39
2909.41
2930.36
2951.25
2972.05
2992.75
3013.35
3033.82
3054.15
3074.41
3094.46
3114.33
3134.01
3153.48
3172.72
3191.72
3210.46
3228.92
3247.09
3264.95
3282.48
3299.65
3316.46
3332.88
3348.9
3364.5
3379.66
3394.35
3408.58
3422.31
3435.54
3448.25
3460.41
3472.03
3483.09
3493.57
3503.46
3512.77
3521.47
3529.58
3537.08
3543.97
3550.26
3555.97
3561.09
3565.64
3569.65
3573.14
3576.13
3578.64
3580.71
3582.36
3583.57
3584.33
3584.71
-183.437
-184.46
-186.179
-188.762
-192.186
-196.501
-201.71
-207.803
-214.765
-222.579
-231.229
-240.697
-250.967
-262.019
-273.834
-286.392
-299.67
-313.647
-328.298
-343.598
-359.523
-376.044
-393.135
-410.767
-428.91
-447.535
-466.609
-486.103
-505.982
-526.215
-546.769
-567.608
-588.701
-610.011
-631.505
-653.149
-674.907
-696.745
-718.628
-740.52
-762.388
-784.195
-805.906
-827.486
-848.901
-870.115
-891.095
-911.807
-932.219
-952.298
-972.015
-991.341
-1010.25
-1028.71
-1046.7
-1064.19
-1081.17
-1097.61
-1113.48
-1128.78
-1143.48
-1157.55
-1171
-1183.8
-1195.93
-1207.39
-1218.16
-1228.23
-1237.6
-1246.24
-1254.16
-1261.35
-1267.79
-1273.49
-1278.44
-1282.64
-1286.08
-1288.76
-1290.68
-1291.85
-1292.26
-1291.91
-1290.82
-1288.98
-1286.39
-1283.07
-1279.02
-1274.24
-1268.75
-1262.55
-1255.64
-1248.05
-1239.78
-1230.83
-1221.21
-1210.95
-1200.04
-1188.49
-1176.32
-1163.54
-1150.15
-1136.17
-1121.6
-1106.45
-1090.74
-1074.48
-1057.66
-1040.3
-1022.4
-1003.97
-985.013
-965.534
-945.534
-925.016
-903.981
-882.429
-860.362
-837.781
-814.686
-791.077
-766.955
-742.319
-717.168
-691.503
-665.32
-638.62
-611.402
-583.662
-555.401
-526.616
-497.307
-467.472
-437.111
-406.224
-374.81
-342.87
-310.403
-277.413
-243.9
-209.868
-175.323
-140.269
-104.716
-68.6727
-32.1472
4.85087
42.3129
80.23
118.592
157.385
196.595
236.207
276.207
316.58
357.312
398.388
439.787
481.488
523.469
565.705
608.173
650.851
693.716
736.746
779.92
823.216
866.609
910.077
953.595
997.139
1040.68
1084.2
1127.67
1171.06
1214.35
1257.51
1300.52
1343.35
1385.98
1428.39
1470.55
1512.44
1554.03
1595.3
1636.23
1676.79
1716.97
1756.75
1796.09
1834.99
1873.41
1911.35
1948.78
1985.68
2022.04
2057.82
2093.02
2127.62
2161.6
2194.93
2227.61
2259.61
2290.91
2321.51
2351.38
2380.52
2408.9
2436.51
2463.35
2489.39
2514.63
2539.05
2562.63
2585.37
2607.25
2628.24
2648.33
2667.51
2685.77
2703.11
2719.52
2735.02
2749.61
2763.29
2776.07
2787.95
2798.92
2808.98
2818.11
2826.31
2833.55
2839.83
2845.14
2849.5
2852.9
2855.35
2856.86
2857.45
2857.12
2855.91
2853.83
2850.89
2847.08
2842.4
2836.84
2830.4
2823.1
2814.97
2806.03
2796.32
2785.87
2774.69
2762.81
2750.2
2736.93
2723.01
2708.45
2693.25
2677.45
2661.05
2644.07
2626.54
2608.49
2589.94
2570.93
2551.47
2531.61
2511.36
2490.75
2469.82
2448.59
2427.1
2405.36
2383.42
2361.29
2339.02
2316.63
2294.17
2271.68
2249.19
2226.72
2204.32
2182.01
2159.81
2137.75
2115.86
2094.16
2072.69
2051.46
2030.5
2009.83
1989.48
1969.46
1949.81
1930.53
1911.64
1893.16
1875.1
1857.49
1840.32
1823.61
1807.37
1791.61
1776.33
1761.54
1747.24
1733.44
1720.14
1707.33
1695.01
1683.19
1671.86
1661.02
1650.65
1640.77
1631.35
1622.4
1613.9
1605.85
1598.24
1591.07
1584.32
1577.98
1572.06
1566.54
1561.4
1556.66
1552.29
1548.29
1544.65
1541.37
1538.43
1535.84
1533.59
1531.67
1530.07
1528.79
1527.83
1527.17
1526.83
1526.79
1527.04
1527.59
1528.43
1529.56
1530.98
1532.68
1534.67
1536.93
1539.47
1542.28
1545.38
1548.74
1552.38
1556.29
1560.48
1564.94
1569.67
1574.67
1579.95
1585.5
1591.33
1597.43
1603.81
1610.46
1617.39
1624.59
1632.07
1639.83
1647.86
1656.16
1664.74
1673.59
1682.71
1692.1
1701.76
1711.68
1721.86
1732.3
1742.99
1753.95
1765.15
1776.59
1788.29
1800.22
1812.39
1824.8
1837.44
1850.32
1863.42
1876.75
1890.3
1904.07
1918.06
1932.27
1946.69
1961.32
1976.17
1991.22
2006.48
2021.95
2037.62
2053.49
2069.55
2085.82
2102.28
2118.93
2135.79
2152.84
2170.08
2187.52
2205.16
2222.98
2241
2259.2
2277.58
2296.14
2314.87
2333.78
2352.85
2372.08
2391.47
2411.02
2430.72
2450.57
2470.57
2490.69
2510.95
2531.33
2551.84
2572.46
2593.19
2614.01
2634.93
2655.92
2676.97
2698.08
2719.22
2740.39
2761.59
2782.79
2803.99
2825.18
2846.36
2867.51
2888.62
2909.68
2930.69
2951.62
2972.47
2993.23
3013.89
3034.42
3054.84
3075.1
3095.2
3115.12
3134.86
3154.4
3173.7
3192.77
3211.59
3230.12
3248.36
3266.3
3283.9
3301.15
3318.04
3334.54
3350.63
3366.3
3381.53
3396.31
3410.6
3424.4
3437.7
3450.46
3462.69
3474.35
3485.45
3495.97
3505.9
3515.22
3523.94
3532.04
3539.53
3546.39
3552.65
3558.3
3563.36
3567.85
3571.78
3575.18
3578.08
3580.52
3582.51
3584.08
3585.23
3585.95
3586.31
-179.744
-180.776
-182.515
-185.123
-188.57
-192.904
-198.131
-204.248
-211.241
-219.093
-227.788
-237.309
-247.637
-258.756
-270.646
-283.285
-296.652
-310.723
-325.475
-340.882
-356.919
-373.558
-390.771
-408.529
-426.803
-445.562
-464.775
-484.409
-504.433
-524.814
-545.518
-566.51
-587.758
-609.226
-630.879
-652.683
-674.603
-696.602
-718.647
-740.701
-762.73
-784.696
-806.566
-828.303
-849.873
-871.24
-892.371
-913.232
-933.789
-954.011
-973.868
-993.33
-1012.37
-1030.96
-1049.07
-1066.68
-1083.77
-1100.31
-1116.28
-1131.67