/*--------------------------------*- C++ -*----------------------------------*\
| =========                 |                                                 |
| \\      /  F ield         | OpenFOAM: The Open Source CFD Toolbox           |
|  \\    /   O peration     | Version:  v2006                                 |
|   \\  /    A nd           | Website:  www.openfoam.com                      |
|    \\/     M anipulation  |                                                 |
\*---------------------------------------------------------------------------*/
FoamFile
{
    version     2.0;
    format      ascii;
    class       volScalarField;
    location    "19.2";
    object      p;
}
// * * * * * * * * * * * * * * * * * * * * * * * * * * * * * * * * * * * * * //

dimensions      [1 -1 -2 0 0 0 0];


internalField   nonuniform List<scalar> 
150000
(
18940.6
18940.9
18940.9
18940.7
18940.4
18940
18939.6
18939.3
18939.1
18939.1
18939.2
18939.6
18940.2
18940.9
18941.9
18943.1
18944.4
18945.8
18947.4
18949.2
18951
18953
18955
18957.2
18959.4
18961.8
18964.2
18966.7
18969.3
18972
18974.7
18977.6
18980.4
18983.4
18986.4
18989.5
18992.6
18995.8
18999
19002.3
19005.7
19009.2
19012.8
19016.4
19020.1
19023.9
19027.8
19031.8
19035.9
19040.1
19044.4
19048.8
19053.4
19058.1
19062.9
19068
19073.2
19078.5
19084.1
19089.9
19095.8
19101.9
19108.3
19114.8
19121.5
19128.4
19135.4
19142.6
19149.9
19157.3
19164.9
19172.5
19180.3
19188
19195.9
19203.7
19211.6
19219.5
19227.4
19235.2
19243.1
19251
19258.8
19266.7
19274.5
19282.3
19290.2
19298
19305.8
19313.5
19321.3
19329
19336.7
19344.3
19351.9
19359.4
19366.8
19374.1
19381.4
19388.5
19395.5
19402.3
19409
19415.5
19421.8
19427.9
19433.8
19439.5
19444.9
19450
19454.9
19459.5
19463.7
19467.6
19471.2
19474.5
19477.5
19480
19482
19483.7
19484.9
19485.6
19485.8
19485.5
19484.7
19483.5
19481.7
19479.4
19476.6
19473.2
19469.2
19464.7
19459.5
19453.7
19447.3
19440.2
19432.5
19424.1
19415.1
19405.3
19394.7
19383.3
19371.2
19358.4
19345
19331.2
19316.8
19301.6
19285.6
19269.6
19252.5
19233.1
19211
19187.5
19164.6
19144.7
19126.6
19107.5
19085.9
19062.7
19038.3
19012.8
18986.7
18960.1
18933.1
18905.5
18877.5
18848.9
18819.9
18790.4
18760.5
18730.1
18699.3
18668.1
18636.6
18604.7
18572.4
18539.8
18506.8
18473.5
18439.8
18405.9
18371.7
18337.3
18302.7
18268
18233
18197.9
18162.7
18127.3
18091.9
18056.4
18020.8
17985.2
17949.6
17914
17878.4
17842.9
17807.4
17772.1
17736.8
17701.7
17666.8
17632.1
17597.6
17563.4
17529.4
17495.8
17462.5
17429.5
17397
17364.9
17333.2
17302
17271.4
17241.2
17211.7
17182.7
17154.4
17126.7
17099.6
17073.3
17047.8
17023
16999
16975.8
16953.5
16932.1
16911.6
16892
16873.4
16855.8
16839.2
16823.6
16809.1
16795.7
16783.4
16772.3
16762.4
16753.6
16746.1
16739.9
16734.9
16731.1
16728.7
16727.6
16727.8
16729.5
16732.4
16736.8
16742.6
16749.7
16758.1
16768
16779.2
16791.8
16805.9
16821.4
16838.5
16856.9
16876.7
16897.8
16920.2
16943.7
16968.5
16994.5
17021.7
17050.2
17080.3
17111.7
17144
17177.4
17212
17247.7
17284.6
17322.5
17361.5
17401.4
17442.4
17484.3
17527.3
17571.2
17616
17661.7
17708.3
17755.7
17804
17853
17902.7
17953.1
18004.3
18056.1
18108.5
18161.6
18215.2
18269.4
18324.2
18379.5
18435.3
18491.5
18548.3
18605.5
18663.1
18721.1
18779.4
18838.1
18897.1
18956.4
19016
19075.9
19136.1
19196.5
19257.1
19318
19379
19440.1
19501.4
19562.8
19624.3
19685.9
19747.6
19809.3
19871.1
19932.9
19994.7
20056.5
20118.3
20180.1
20241.8
20303.5
20365.1
20426.6
20488.1
20549.4
20610.6
20671.6
20732.5
20793.3
20853.8
20914.2
20974.4
21034.4
21094.2
21153.7
21213
21272.1
21330.9
21389.4
21447.6
21505.5
21563.1
21620.3
21677.2
21733.6
21789.7
21845.4
21900.7
21955.7
22010.4
22064.7
22118.7
22172.3
22225.5
22278.3
22330.7
22382.6
22434.2
22485.4
22536.2
22586.7
22636.7
22686.4
22735.7
22784.6
22833.2
22881.4
22929.3
22976.9
23024.1
23071.1
23117.7
23164
23210.1
23255.9
23301.4
23346.7
23391.7
23436.5
23481
23525.4
23569.4
23613.3
23657
23700.5
23743.7
23786.8
23829.7
23872.4
23914.9
23957.3
23999.5
24041.5
24083.4
24125.2
24166.9
24208.6
24250.2
24291.9
24333.5
24375.2
24417
24458.8
24500.5
24542
24583.4
24624.6
24665.5
24706.4
24747.1
24787.8
24828.5
24869.3
24910
24950.7
24991.4
25031.9
25072.2
25112.3
25152.1
25191.7
25231
25270.1
25309
25347.8
25386.5
25425.1
25463.6
25501.9
25540
25577.9
25615.5
25652.7
25689.7
25726.4
25762.8
25799
25834.8
25870.4
25905.7
25940.6
25975.2
26009.4
26043.3
26076.8
26109.9
26142.6
26174.8
26206.6
26238
26268.9
26299.3
26329.3
26358.8
26387.8
26416.4
26444.4
26472
26499
26525.4
26551.2
26576.2
26600.6
26624.1
26646.8
26668.5
26689.3
26709.1
26727.9
26745.8
26762.7
26778.8
26794.2
26808.7
26822.4
26835.4
26847.6
26859
26869.7
26879.7
26889.1
26897.7
26905.7
26913
26919.8
26926.1
26931.7
26936.3
26939.9
26942.2
26943.4
18613.4
18613.7
18613.7
18613.5
18613.2
18612.8
18612.4
18612
18611.8
18611.8
18612
18612.4
18612.9
18613.7
18614.7
18615.8
18617.2
18618.6
18620.2
18622
18623.8
18625.8
18627.8
18630
18632.2
18634.6
18637
18639.5
18642.1
18644.8
18647.6
18650.4
18653.3
18656.2
18659.2
18662.3
18665.4
18668.6
18671.8
18675.2
18678.5
18682
18685.6
18689.2
18692.9
18696.7
18700.6
18704.6
18708.7
18712.9
18717.2
18721.6
18726.2
18730.9
18735.7
18740.7
18745.9
18751.3
18756.9
18762.6
18768.6
18774.7
18781
18787.5
18794.2
18801.1
18808.1
18815.3
18822.7
18830.1
18837.7
18845.4
18853.1
18860.9
18868.7
18876.6
18884.5
18892.4
18900.3
18908.1
18916
18923.9
18931.8
18939.6
18947.5
18955.3
18963.1
18970.9
18978.7
18986.5
18994.3
19002
19009.7
19017.3
19024.9
19032.4
19039.8
19047.2
19054.4
19061.6
19068.6
19075.4
19082.1
19088.6
19094.9
19101.1
19107
19112.6
19118.1
19123.2
19128.1
19132.7
19136.9
19140.8
19144.4
19147.6
19150.3
19152.7
19154.7
19156.4
19157.6
19158.4
19158.7
19158.5
19157.8
19156.7
19155
19152.8
19150
19146.6
19142.7
19138.1
19133
19127.2
19120.7
19113.6
19105.9
19097.4
19088.2
19078.3
19067.8
19056.7
19045
19032.7
19019.8
19005.9
18991
18975
18957.9
18938.8
18919.3
18900.3
18881.7
18862.2
18842.7
18823.3
18803.5
18782.4
18759.8
18735.7
18711
18685.9
18660.1
18633.6
18606.4
18578.7
18550.4
18521.6
18492.4
18462.9
18433.1
18402.9
18372.3
18341.4
18310
18278.2
18245.9
18213.2
18180.1
18146.8
18113.1
18079.1
18044.9
18010.4
17975.8
17941
17906
17870.9
17835.7
17800.4
17764.9
17729.4
17693.9
17658.3
17622.6
17587
17551.4
17515.9
17480.4
17445
17409.7
17374.6
17339.7
17304.9
17270.4
17236.2
17202.2
17168.6
17135.2
17102.3
17069.7
17037.6
17005.9
16974.7
16944
16913.9
16884.3
16855.3
16826.9
16799.2
16772.2
16745.9
16720.3
16695.5
16671.5
16648.3
16625.9
16604.5
16583.9
16564.3
16545.7
16528
16511.4
16495.8
16481.3
16467.9
16455.6
16444.5
16434.5
16425.8
16418.2
16412
16406.9
16403.2
16400.8
16399.7
16399.9
16401.5
16404.5
16408.8
16414.6
16421.7
16430.2
16440.1
16451.4
16464.1
16478.2
16493.7
16510.6
16528.9
16548.6
16569.7
16592
16615.6
16640.5
16666.5
16693.6
16721.9
16751.2
16782.3
16815.2
16849.4
16884.5
16920.5
16957.3
16995.2
17034.1
17074
17114.9
17156.9
17199.8
17243.7
17288.5
17334.2
17380.8
17428.2
17476.4
17525.4
17575.2
17625.6
17676.8
17728.6
17781
17834
17887.6
17941.8
17996.5
18051.8
18107.7
18164
18220.8
18278.1
18335.8
18393.8
18452.3
18511
18570
18629.3
18688.9
18748.8
18809
18869.4
18930
18990.9
19051.9
19113
19174.3
19235.7
19297.2
19358.9
19420.5
19482.3
19544.1
19605.9
19667.7
19729.5
19791.3
19853.1
19914.9
19976.5
20038.2
20099.7
20161.1
20222.4
20283.6
20344.7
20405.6
20466.4
20526.9
20587.3
20647.5
20707.5
20767.3
20826.8
20886.2
20945.2
21004
21062.5
21120.6
21178.5
21236
21293.3
21350.1
21406.6
21462.8
21518.5
21573.9
21629
21683.6
21738
21792
21845.6
21898.8
21951.5
22003.9
22055.9
22107.5
22158.7
22209.5
22259.9
22310
22359.6
22408.9
22457.9
22506.4
22554.7
22602.6
22650.1
22697.4
22744.3
22790.9
22837.2
22883.3
22929.1
22974.6
23019.9
23064.9
23109.7
23154.2
23198.5
23242.6
23286.4
23330.1
23373.6
23416.8
23459.9
23502.8
23545.5
23588.1
23630.4
23672.6
23714.7
23756.6
23798.3
23840
23881.6
23923.2
23964.8
24006.5
24048.3
24090
24131.7
24173.4
24214.9
24256.3
24297.5
24338.6
24379.5
24420.3
24461.1
24501.8
24542.6
24583.3
24624
24664.5
24704.9
24745.2
24785.2
24825.1
24864.7
24904
24943.2
24982.2
25021
25059.7
25098.3
25136.7
25175
25213.1
25250.9
25288.4
25325.7
25362.8
25399.5
25436
25472.1
25508
25543.6
25578.8
25613.8
25648.4
25682.6
25716.5
25750
25783.1
25815.8
25848.1
25879.9
25911.3
25942.2
25972.6
26002.6
26032.1
26061.2
26089.8
26117.9
26145.5
26172.5
26199
26224.7
26249.8
26274.1
26297.6
26320.2
26341.9
26362.7
26382.5
26401.4
26419.2
26436.2
26452.3
26467.6
26482.2
26495.9
26508.9
26521
26532.5
26543.2
26553.2
26562.4
26571
26579.1
26586.5
26593.3
26599.5
26605.1
26609.7
26613.3
26615.7
26616.9
18286.2
18286.4
18286.5
18286.3
18286
18285.5
18285.1
18284.7
18284.5
18284.5
18284.7
18285
18285.6
18286.4
18287.4
18288.5
18289.8
18291.3
18292.9
18294.7
18296.5
18298.5
18300.5
18302.7
18304.9
18307.3
18309.7
18312.2
18314.8
18317.5
18320.2
18323.1
18326
18328.9
18331.9
18335
18338.1
18341.3
18344.5
18347.8
18351.2
18354.7
18358.2
18361.9
18365.6
18369.4
18373.3
18377.2
18381.3
18385.5
18389.8
18394.2
18398.8
18403.4
18408.3
18413.3
18418.5
18423.8
18429.4
18435.1
18441.1
18447.2
18453.5
18460
18466.8
18473.6
18480.7
18487.9
18495.2
18502.7
18510.3
18518
18525.7
18533.5
18541.4
18549.3
18557.2
18565.1
18573
18580.9
18588.8
18596.7
18604.6
18612.5
18620.3
18628.2
18636
18643.8
18651.6
18659.4
18667.2
18674.9
18682.7
18690.3
18697.9
18705.5
18712.9
18720.3
18727.6
18734.7
18741.7
18748.6
18755.3
18761.9
18768.2
18774.4
18780.3
18786
18791.5
18796.7
18801.6
18806.2
18810.5
18814.4
18818.1
18821.4
18824.3
18826.7
18828.8
18830.5
18831.8
18832.5
18832.8
18832.5
18831.8
18830.5
18828.8
18826.6
18823.8
18820.4
18816.4
18811.9
18806.8
18801
18794.6
18787.5
18779.8
18771.4
18762.4
18752.6
18742.1
18730.8
18718.7
18706
18692.6
18678.5
18663.8
18648.3
18632
18615.2
18596.6
18576.8
18555.8
18534.1
18514.1
18494.8
18475.3
18454.8
18432.8
18409.4
18384.9
18359.6
18333.6
18307
18279.9
18252.3
18224.2
18195.7
18166.6
18137
18107
18076.6
18045.8
18014.6
17983.1
17951.2
17918.8
17886.1
17853.1
17819.7
17786.1
17752.1
17717.9
17683.5
17648.8
17614
17579
17543.9
17508.6
17473.2
17437.8
17402.2
17366.6
17331
17295.3
17259.7
17224
17188.5
17152.9
17117.5
17082.3
17047.1
17012.2
16977.4
16942.9
16908.6
16874.6
16840.9
16807.6
16774.6
16742
16709.8
16678.1
16646.9
16616.2
16586
16556.4
16527.3
16498.9
16471.2
16444.1
16417.8
16392.1
16367.3
16343.3
16320
16297.7
16276.2
16255.6
16235.9
16217.3
16199.6
16182.9
16167.3
16152.7
16139.3
16127
16115.8
16105.8
16097
16089.5
16083.2
16078.1
16074.4
16071.9
16070.8
16071
16072.6
16075.6
16079.9
16085.7
16092.8
16101.3
16111.1
16122.4
16135
16149
16164.5
16181.4
16199.8
16219.6
16240.6
16263
16286.7
16311.5
16337.7
16365.1
16393.8
16423.8
16455.2
16487.8
16521.4
16555.9
16591.7
16628.6
16666.6
16705.6
16745.6
16786.5
16828.6
16871.6
16915.6
16960.4
17006.2
17052.8
17100.2
17148.5
17197.5
17247.2
17297.7
17348.9
17400.7
17453.2
17506.3
17560
17614.3
17669.1
17724.4
17780.2
17836.5
17893.3
17950.5
18008.3
18066.3
18124.8
18183.5
18242.6
18301.9
18361.5
18421.4
18481.6
18542.1
18602.7
18663.6
18724.6
18785.8
18847.1
18908.5
18970.1
19031.7
19093.4
19155.2
19217
19278.8
19340.7
19402.5
19464.3
19526.1
19587.9
19649.6
19711.2
19772.8
19834.2
19895.6
19956.8
20017.9
20078.8
20139.6
20200.2
20260.6
20320.8
20380.8
20440.6
20500.1
20559.5
20618.5
20677.3
20735.8
20794
20851.9
20909.5
20966.7
21023.6
21080.1
21136.3
21192
21247.4
21302.5
21357.2
21411.5
21465.4
21519
21572.2
21625
21677.4
21729.4
21781
21832.2
21883
21933.4
21983.5
22033.1
22082.4
22131.4
22179.9
22228.2
22276.1
22323.6
22370.8
22417.8
22464.4
22510.7
22556.7
22602.5
22648
22693.2
22738.2
22782.9
22827.5
22871.7
22915.8
22959.6
23003.3
23046.7
23090
23133
23175.9
23218.6
23261.2
23303.6
23345.8
23388
23430
23471.9
23513.7
23555.5
23597.3
23639
23680.7
23722.2
23763.8
23805.3
23846.8
23888.1
23929.3
23970.4
24011.5
24052.4
24093.3
24134.1
24174.9
24215.7
24256.5
24297.1
24337.7
24378.1
24418.3
24458.3
24498.1
24537.7
24577
24616.2
24655.2
24694.1
24732.9
24771.5
24810
24848.2
24886.3
24924.1
24961.7
24998.9
25035.9
25072.6
25109.1
25145.2
25181.2
25216.8
25252.1
25287.1
25321.7
25356
25389.9
25423.4
25456.5
25489.3
25521.6
25553.4
25584.8
25615.8
25646.3
25676.3
25705.8
25734.9
25763.4
25791.5
25819.1
25846.1
25872.5
25898.3
25923.4
25947.7
25971.2
25993.7
26015.3
26036
26055.8
26074.6
26092.6
26109.6
26125.9
26141.3
26155.9
26169.8
26182.8
26195.1
26206.6
26217.4
26227.5
26236.9
26245.7
26253.8
26261.2
26268
26274.1
26279.6
26284.1
26287.7
26290.1
26291.3
17958.7
17959
17959.2
17959.1
17958.7
17958.2
17957.7
17957.3
17957.1
17957
17957.2
17957.5
17958.1
17958.9
17959.9
17961.1
17962.4
17963.9
17965.5
17967.2
17969
17971
17973.1
17975.2
17977.5
17979.8
17982.2
17984.8
17987.4
17990
17992.8
17995.6
17998.5
18001.4
18004.5
18007.5
18010.7
18013.8
18017.1
18020.4
18023.8
18027.2
18030.7
18034.3
18038
18041.8
18045.7
18049.6
18053.7
18057.9
18062.1
18066.5
18071.1
18075.8
18080.6
18085.6
18090.8
18096.1
18101.7
18107.4
18113.3
18119.5
18125.8
18132.3
18139
18145.9
18153
18160.2
18167.6
18175.1
18182.7
18190.4
18198.2
18206.1
18213.9
18221.9
18229.8
18237.7
18245.7
18253.6
18261.5
18269.4
18277.3
18285.2
18293.1
18300.9
18308.8
18316.6
18324.5
18332.3
18340.1
18347.8
18355.6
18363.3
18370.9
18378.5
18386
18393.4
18400.7
18407.9
18414.9
18421.9
18428.6
18435.2
18441.6
18447.8
18453.8
18459.5
18465
18470.2
18475.2
18479.8
18484.1
18488.1
18491.7
18495
18497.9
18500.3
18502.4
18504.1
18505.3
18506.2
18506.6
18506.5
18505.8
18504.7
18503
18500.8
18498
18494.6
18490.7
18486.1
18481
18475.2
18468.9
18461.8
18454.1
18445.8
18436.7
18426.9
18416.5
18405.3
18393.3
18380.6
18367.1
18352.8
18337.6
18321.4
18304.3
18286.5
18269
18250.9
18231.5
18211.7
18191.1
18170.8
18150.2
18128.7
18106
18082.1
18057.5
18032.3
18006.7
17980.4
17953.5
17926
17898
17869.4
17840.3
17810.8
17780.9
17750.5
17719.6
17688.4
17656.7
17624.7
17592.2
17559.5
17526.4
17492.9
17459.2
17425.3
17391
17356.6
17321.9
17287.1
17252.1
17216.9
17181.6
17146.2
17110.6
17075
17039.4
17003.7
16968
16932.3
16896.6
16861
16825.5
16790
16754.7
16719.5
16684.5
16649.7
16615.1
16580.8
16546.8
16513.1
16479.7
16446.6
16414
16381.8
16350
16318.8
16288
16257.7
16228.1
16199
16170.5
16142.7
16115.6
16089.2
16063.5
16038.6
16014.5
15991.2
15968.8
15947.3
15926.6
15906.9
15888.2
15870.4
15853.7
15838
15823.4
15809.9
15797.5
15786.3
15776.3
15767.4
15759.8
15753.5
15748.4
15744.6
15742.1
15741
15741.2
15742.8
15745.7
15750.1
15755.8
15762.9
15771.4
15781.3
15792.5
15805.2
15819.3
15834.8
15851.7
15870
15889.7
15910.8
15933.1
15956.8
15981.7
16007.9
16035.4
16064
16093.9
16125.1
16157.8
16191.7
16226.6
16262.5
16299.5
16337.5
16376.5
16416.6
16457.8
16499.8
16542.8
16586.7
16631.6
16677.4
16724.1
16771.5
16819.8
16868.9
16918.7
16969.2
17020.4
17072.3
17124.8
17178
17231.7
17286
17340.8
17396.2
17452.1
17508.5
17565.4
17622.7
17680.4
17738.6
17797
17855.8
17914.9
17974.3
18034
18094
18154.2
18214.6
18275.3
18336.2
18397.3
18458.5
18519.8
18581.3
18642.9
18704.5
18766.2
18828
18889.9
18951.7
19013.6
19075.5
19137.4
19199.2
19261
19322.7
19384.4
19445.9
19507.4
19568.8
19630
19691.1
19752.1
19812.9
19873.5
19934
19994.2
20054.2
20114
20173.6
20232.9
20292
20350.8
20409.3
20467.5
20525.4
20582.9
20640.2
20697.1
20753.6
20809.8
20865.6
20921.1
20976.1
21030.9
21085.2
21139.2
21192.7
21245.9
21298.7
21351.1
21403.1
21454.7
21505.9
21556.7
21607.2
21657.2
21706.9
21756.2
21805.1
21853.7
21901.9
21949.8
21997.3
22044.5
22091.4
22138
22184.3
22230.4
22276.1
22321.6
22366.8
22411.7
22456.4
22500.9
22545.2
22589.2
22633
22676.6
22720.1
22763.3
22806.4
22849.3
22892
22934.5
22976.9
23019.2
23061.3
23103.4
23145.3
23187.1
23228.9
23270.5
23312.1
23353.7
23395.3
23436.8
23478.3
23519.7
23561.1
23602.4
23643.5
23684.6
23725.5
23766.4
23807.3
23848.1
23888.9
23929.6
23970.3
24010.8
24051.2
24091.4
24131.4
24171.3
24210.9
24250.3
24289.5
24328.6
24367.5
24406.3
24444.9
24483.4
24521.6
24559.7
24597.5
24635
24672.3
24709.3
24746.1
24782.5
24818.7
24854.7
24890.3
24925.6
24960.6
24995.3
25029.6
25063.6
25097.1
25130.3
25163.1
25195.4
25227.3
25258.8
25289.7
25320.3
25350.3
25379.8
25408.8
25437.4
25465.4
25492.9
25519.9
25546.3
25572.2
25597.3
25621.6
25645.1
25667.6
25689.2
25709.9
25729.7
25748.6
25766.6
25783.7
25800
25815.5
25830.2
25844.2
25857.3
25869.7
25881.3
25892.2
25902.3
25911.8
25920.5
25928.6
25936
25942.8
25949
25954.5
25959.2
25962.8
25965.2
25966.3
17631.1
17631.4
17631.7
17631.7
17631.3
17630.7
17630.2
17629.8
17629.5
17629.4
17629.5
17629.9
17630.5
17631.3
17632.3
17633.4
17634.8
17636.2
17637.8
17639.6
17641.4
17643.4
17645.4
17647.6
17649.8
17652.2
17654.6
17657.1
17659.7
17662.4
17665.2
17668
17670.9
17673.8
17676.9
17679.9
17683.1
17686.2
17689.5
17692.8
17696.1
17699.6
17703.1
17706.7
17710.3
17714.1
17717.9
17721.8
17725.9
17730
17734.3
17738.7
17743.2
17747.9
17752.7
17757.7
17762.8
17768.2
17773.7
17779.4
17785.4
17791.5
17797.8
17804.4
17811.1
17818
17825.1
17832.4
17839.8
17847.3
17854.9
17862.7
17870.5
17878.4
17886.3
17894.3
17902.2
17910.2
17918.1
17926.1
17934
17942
17949.9
17957.8
17965.7
17973.6
17981.4
17989.3
17997.2
18005
18012.9
18020.7
18028.4
18036.2
18043.9
18051.5
18059
18066.5
18073.9
18081.1
18088.2
18095.2
18102
18108.6
18115.1
18121.4
18127.4
18133.2
18138.7
18144
18149
18153.7
18158.1
18162.1
18165.8
18169.2
18172.2
18174.8
18176.9
18178.6
18179.9
18180.7
18181
18180.9
18180.3
18179.1
18177.5
18175.3
18172.5
18169.2
18165.3
18160.7
18155.6
18149.9
18143.5
18136.5
18128.8
18120.5
18111.5
18101.7
18091.3
18080
18068
18055.1
18041.4
18026.9
18011.7
17995.9
17979.6
17962.9
17945.4
17926.9
17907.7
17887.8
17867.3
17846.5
17825.1
17802.9
17779.9
17756.1
17731.6
17706.6
17680.9
17654.6
17627.7
17600.2
17572.1
17543.5
17514.4
17484.9
17454.8
17424.3
17393.4
17362.1
17330.4
17298.2
17265.8
17232.9
17199.8
17166.3
17132.6
17098.6
17064.3
17029.8
16995.1
16960.2
16925.1
16889.9
16854.5
16819.1
16783.5
16747.8
16712.1
16676.4
16640.6
16604.9
16569.2
16533.5
16497.9
16462.4
16427
16391.8
16356.7
16321.9
16287.2
16252.9
16218.8
16185
16151.5
16118.4
16085.7
16053.4
16021.6
15990.2
15959.4
15929.1
15899.3
15870.2
15841.7
15813.8
15786.6
15760.1
15734.4
15709.4
15685.2
15661.9
15639.4
15617.7
15597
15577.2
15558.4
15540.6
15523.8
15508
15493.3
15479.7
15467.3
15456
15445.9
15437
15429.3
15422.9
15417.8
15413.9
15411.4
15410.2
15410.4
15412
15414.9
15419.2
15425
15432
15440.5
15450.4
15461.7
15474.3
15488.4
15504
15520.9
15539.2
15559
15580
15602.4
15626.1
15651.1
15677.4
15704.9
15733.7
15763.8
15795.2
15827.8
15861.5
15896.4
15932.2
15969.2
16007.3
16046.5
16086.7
16128
16170.1
16213.2
16257.3
16302.3
16348.1
16394.8
16442.4
16490.7
16539.8
16589.7
16640.3
16691.6
16743.5
16796.1
16849.3
16903.1
16957.5
17012.4
17067.9
17123.8
17180.3
17237.2
17294.5
17352.3
17410.4
17469
17527.8
17587
17646.4
17706.2
17766.2
17826.5
17887
17947.7
18008.7
18069.8
18131
18192.4
18253.9
18315.6
18377.3
18439
18500.9
18562.7
18624.6
18686.6
18748.5
18810.4
18872.3
18934.1
18995.8
19057.5
19119.2
19180.7
19242.1
19303.4
19364.5
19425.5
19486.3
19547
19607.5
19667.7
19727.8
19787.6
19847.2
19906.6
19965.7
20024.5
20083
20141.3
20199.2
20256.8
20314.1
20371
20427.6
20483.8
20539.6
20595.1
20650.2
20704.9
20759.2
20813.2
20866.8
20920
20972.8
21025.2
21077.2
21128.8
21180
21230.8
21281.2
21331.2
21380.9
21430.2
21479.1
21527.7
21575.9
21623.7
21671.2
21718.4
21765.3
21811.9
21858.2
21904.2
21949.9
21995.3
22040.5
22085.4
22130.1
22174.6
22218.8
22262.8
22306.6
22350.1
22393.6
22436.8
22479.8
22522.7
22565.4
22607.9
22650.4
22692.6
22734.8
22776.8
22818.8
22860.6
22902.4
22944.1
22985.8
23027.4
23069
23110.5
23152
23193.3
23234.6
23275.8
23316.9
23357.9
23398.9
23439.8
23480.6
23521.4
23562.1
23602.8
23643.5
23684
23724.4
23764.6
23804.6
23844.5
23884.1
23923.6
23962.8
24001.9
24040.9
24079.7
24118.3
24156.8
24195.1
24233.2
24271
24308.6
24345.9
24382.9
24419.7
24456.2
24492.4
24528.4
24564.1
24599.4
24634.5
24669.2
24703.5
24737.5
24771.1
24804.4
24837.2
24869.5
24901.5
24933
24964
24994.6
25024.7
25054.2
25083.2
25111.8
25139.7
25167.2
25194.1
25220.5
25246.3
25271.4
25295.7
25319.2
25341.8
25363.4
25384.2
25404
25422.9
25440.9
25458.2
25474.5
25490.1
25504.9
25518.9
25532.2
25544.7
25556.4
25567.4
25577.6
25587.1
25595.8
25603.8
25611.1
25617.9
25624.1
25629.7
25634.4
25638.1
25640.6
25641.7
17303.3
17303.7
17304
17304
17303.7
17303.1
17302.5
17302
17301.7
17301.6
17301.7
17302.1
17302.7
17303.5
17304.5
17305.7
17307
17308.5
17310.1
17311.8
17313.6
17315.6
17317.6
17319.8
17322.1
17324.4
17326.8
17329.4
17332
17334.7
17337.4
17340.2
17343.1
17346.1
17349.1
17352.2
17355.3
17358.5
17361.7
17365
17368.4
17371.8
17375.3
17378.8
17382.5
17386.2
17390
17393.9
17397.9
17402
17406.3
17410.6
17415.1
17419.8
17424.6
17429.5
17434.7
17440
17445.5
17451.3
17457.2
17463.3
17469.6
17476.2
17482.9
17489.9
17497
17504.3
17511.7
17519.3
17527
17534.8
17542.6
17550.6
17558.5
17566.5
17574.5
17582.5
17590.5
17598.5
17606.4
17614.4
17622.3
17630.3
17638.2
17646.1
17654
17661.9
17669.8
17677.7
17685.6
17693.5
17701.3
17709.1
17716.8
17724.5
17732.1
17739.6
17747.1
17754.4
17761.6
17768.6
17775.5
17782.2
17788.7
17795
17801.1
17807
17812.6
17817.9
17823
17827.7
17832.2
17836.3
17840
17843.4
17846.3
17849
17851.2
17853
17854.3
17855.2
17855.7
17855.6
17855
17853.9
17852.3
17850.1
17847.4
17844.1
17840.2
17835.7
17830.6
17824.9
17818.6
17811.6
17803.9
17795.5
17786.5
17776.7
17766.3
17755
17742.9
17730
17716.4
17702
17686.9
17671.2
17654.8
17637.8
17620.2
17602
17583.1
17563.4
17542.9
17521.8
17500.1
17477.7
17454.5
17430.7
17406.2
17381.1
17355.4
17329.1
17302.1
17274.6
17246.5
17217.8
17188.7
17159.1
17129
17098.4
17067.4
17036
17004.2
16972
16939.4
16906.6
16873.3
16839.8
16806
16771.9
16737.6
16703.1
16668.3
16633.3
16598.2
16562.9
16527.5
16491.9
16456.3
16420.6
16384.8
16349
16313.2
16277.4
16241.6
16205.8
16170.2
16134.6
16099.1
16063.8
16028.7
15993.8
15959.1
15924.6
15890.4
15856.5
15823
15789.8
15757
15724.7
15692.8
15661.3
15630.4
15600
15570.2
15540.9
15512.3
15484.4
15457.1
15430.5
15404.7
15379.6
15355.3
15331.9
15309.3
15287.6
15266.7
15246.8
15227.9
15210
15193.1
15177.2
15162.5
15148.8
15136.2
15124.9
15114.7
15105.7
15097.9
15091.4
15086.2
15082.3
15079.8
15078.5
15078.7
15080.2
15083.1
15087.4
15093.1
15100.2
15108.7
15118.6
15129.8
15142.5
15156.7
15172.2
15189.2
15207.5
15227.2
15248.3
15270.7
15294.5
15319.5
15345.9
15373.5
15402.4
15432.6
15464
15496.6
15530.4
15565.3
15601.4
15638.5
15676.7
15715.9
15756.2
15797.5
15839.8
15883
15927.2
15972.2
16018.2
16065
16112.6
16161
16210.3
16260.2
16310.9
16362.2
16414.3
16466.9
16520.2
16574.1
16628.6
16683.6
16739.1
16795.1
16851.7
16908.7
16966.1
17023.9
17082.2
17140.8
17199.7
17258.9
17318.4
17378.3
17438.4
17498.7
17559.3
17620.1
17681
17742.2
17803.5
17864.9
17926.5
17988.2
18049.9
18111.8
18173.7
18235.6
18297.5
18359.5
18421.5
18483.4
18545.3
18607.2
18669
18730.8
18792.4
18854
18915.4
18976.8
19038
19099
19159.9
19220.6
19281.1
19341.4
19401.5
19461.4
19521
19580.4
19639.5
19698.4
19757
19815.2
19873.2
19930.8
19988.1
20045
20101.6
20157.9
20213.7
20269.2
20324.4
20379.1
20433.5
20487.5
20541.1
20594.3
20647.1
20699.5
20751.5
20803
20854.2
20905.1
20955.5
21005.5
21055.1
21104.4
21153.3
21201.9
21250
21297.9
21345.4
21392.6
21439.4
21486
21532.2
21578.2
21623.8
21669.2
21714.4
21759.3
21803.9
21848.3
21892.5
21936.5
21980.3
22023.9
22067.2
22110.4
22153.4
22196.3
22239
22281.5
22323.9
22366.2
22408.3
22450.4
22492.3
22534.2
22575.9
22617.6
22659.3
22700.9
22742.4
22783.9
22825.3
22866.7
22907.9
22949.1
22990.3
23031.3
23072.3
23113.2
23154
23194.8
23235.5
23276.2
23316.8
23357.3
23397.6
23437.9
23477.9
23517.8
23557.4
23596.9
23636.3
23675.4
23714.4
23753.2
23791.9
23830.4
23868.7
23906.8
23944.7
23982.3
24019.6
24056.7
24093.6
24130.1
24166.4
24202.4
24238.1
24273.5
24308.6
24343.3
24377.7
24411.8
24445.4
24478.7
24511.5
24544
24576
24607.6
24638.7
24669.3
24699.4
24729
24758.1
24786.6
24814.6
24842.1
24868.9
24895.3
24921
24946
24970.3
24993.7
25016.3
25038
25058.7
25078.6
25097.6
25115.7
25133
25149.5
25165.1
25180
25194.1
25207.4
25220
25231.9
25243
25253.3
25262.8
25271.6
25279.6
25286.9
25293.5
25299.6
25305.1
25309.9
25313.6
25316.2
25317.4
16975.2
16975.6
16976.1
16976.1
16975.7
16975.1
16974.5
16973.9
16973.6
16973.6
16973.7
16974.1
16974.8
16975.6
16976.6
16977.7
16979.1
16980.5
16982.1
16983.8
16985.7
16987.6
16989.7
16991.9
16994.1
16996.5
16998.9
17001.5
17004.1
17006.8
17009.5
17012.4
17015.3
17018.2
17021.2
17024.3
17027.4
17030.6
17033.8
17037.1
17040.5
17043.8
17047.3
17050.8
17054.4
17058.1
17061.9
17065.8
17069.8
17073.9
17078.1
17082.4
17086.9
17091.5
17096.3
17101.2
17106.3
17111.6
17117.1
17122.8
17128.7
17134.9
17141.2
17147.7
17154.5
17161.5
17168.6
17175.9
17183.4
17191
17198.8
17206.6
17214.6
17222.5
17230.6
17238.6
17246.6
17254.7
17262.7
17270.7
17278.7
17286.7
17294.7
17302.6
17310.6
17318.6
17326.5
17334.5
17342.4
17350.4
17358.3
17366.2
17374.1
17382
17389.8
17397.5
17405.2
17412.8
17420.3
17427.7
17435
17442.1
17449.1
17455.9
17462.5
17468.9
17475.1
17481
17486.7
17492.1
17497.2
17502
17506.5
17510.7
17514.5
17518
17521
17523.7
17526
17527.9
17529.3
17530.2
17530.7
17530.6
17530.1
17529.1
17527.5
17525.4
17522.7
17519.4
17515.6
17511.1
17506.1
17500.4
17494
17487
17479.4
17471
17462
17452.2
17441.7
17430.4
17418.4
17405.5
17392
17377.7
17362.7
17347
17330.7
17313.8
17296.3
17278
17258.9
17239
17218.4
17197.2
17175.4
17152.8
17129.6
17105.7
17081.2
17056.1
17030.3
17003.9
16976.9
16949.3
16921.1
16892.4
16863.2
16833.5
16803.3
16772.6
16741.6
16710.1
16678.2
16645.9
16613.3
16580.3
16547
16513.4
16479.5
16445.4
16411
16376.3
16341.5
16306.5
16271.2
16235.9
16200.4
16164.8
16129
16093.3
16057.4
16021.5
15985.6
15949.7
15913.8
15878
15842.3
15806.6
15771.1
15735.7
15700.5
15665.4
15630.6
15596.1
15561.8
15527.8
15494.2
15460.9
15428
15395.6
15363.6
15332
15301
15270.5
15240.6
15211.2
15182.5
15154.4
15127.1
15100.4
15074.4
15049.3
15024.9
15001.3
14978.6
14956.7
14935.8
14915.8
14896.8
14878.7
14861.7
14845.7
14830.8
14817
14804.4
14792.9
14782.6
14773.5
14765.7
14759.1
14753.8
14749.8
14747.2
14745.9
14746
14747.4
14750.3
14754.6
14760.2
14767.3
14775.8
14785.7
14797
14809.7
14823.9
14839.4
14856.4
14874.8
14894.6
14915.7
14938.2
14962
14987.1
15013.6
15041.3
15070.3
15100.5
15132
15164.7
15198.6
15233.6
15269.7
15307
15345.3
15384.6
15425.1
15466.5
15508.8
15552.2
15596.4
15641.6
15687.7
15734.6
15782.3
15830.8
15880.1
15930.2
15981
16032.4
16084.6
16137.3
16190.7
16244.7
16299.3
16354.4
16410
16466.1
16522.8
16579.8
16637.3
16695.3
16753.6
16812.2
16871.2
16930.6
16990.2
17050.1
17110.3
17170.7
17231.3
17292.2
17353.3
17414.5
17475.9
17537.4
17599
17660.7
17722.6
17784.5
17846.4
17908.4
17970.4
18032.4
18094.5
18156.5
18218.5
18280.4
18342.3
18404.1
18465.8
18527.4
18588.9
18650.3
18711.5
18772.6
18833.5
18894.3
18954.9
19015.2
19075.4
19135.3
19195
19254.4
19313.6
19372.5
19431.1
19489.4
19547.4
19605.1
19662.4
19719.4
19776
19832.3
19888.2
19943.7
19998.9
20053.7
20108
20162
20215.6
20268.8
20321.6
20374.1
20426
20477.6
20528.8
20579.6
20630
20680.1
20729.7
20778.9
20827.8
20876.3
20924.5
20972.3
21019.8
21066.9
21113.7
21160.2
21206.5
21252.4
21298
21343.4
21388.5
21433.3
21477.9
21522.3
21566.4
21610.4
21654.1
21697.6
21741
21784.1
21827.1
21869.9
21912.6
21955.1
21997.5
22039.8
22081.9
22124
22165.9
22207.7
22249.5
22291.2
22332.9
22374.4
22416
22457.4
22498.8
22540.2
22581.4
22622.6
22663.7
22704.8
22745.7
22786.6
22827.5
22868.3
22909
22949.6
22990.2
23030.7
23071
23111.2
23151.3
23191.1
23230.9
23270.4
23309.8
23349
23388
23426.9
23465.6
23504.1
23542.4
23580.6
23618.5
23656.1
23693.5
23730.7
23767.6
23804.2
23840.5
23876.5
23912.3
23947.7
23982.9
24017.7
24052.1
24086.2
24119.9
24153.3
24186.2
24218.7
24250.8
24282.4
24313.6
24344.3
24374.5
24404.1
24433.3
24461.9
24489.9
24517.4
24544.2
24570.5
24596.2
24621.1
24645.3
24668.7
24691.3
24713
24733.8
24753.7
24772.7
24790.9
24808.3
24824.8
24840.6
24855.5
24869.7
24883.1
24895.8
24907.8
24919
24929.4
24939.1
24947.9
24956
24963.3
24969.8
24975.8
24981.1
24985.8
24989.6
24992.1
24993.4
16646.9
16647.3
16647.8
16647.9
16647.5
16646.8
16646.1
16645.6
16645.4
16645.4
16645.6
16646
16646.7
16647.5
16648.5
16649.7
16651
16652.4
16654
16655.7
16657.6
16659.5
16661.6
16663.8
16666
16668.4
16670.9
16673.4
16676
16678.7
16681.5
16684.3
16687.2
16690.2
16693.2
16696.3
16699.4
16702.6
16705.8
16709.1
16712.4
16715.8
16719.2
16722.7
16726.3
16730
16733.7
16737.5
16741.5
16745.5
16749.7
16754
16758.4
16763
16767.7
16772.7
16777.7
16783
16788.5
16794.2
16800.1
16806.2
16812.5
16819.1
16825.8
16832.8
16840
16847.4
16854.9
16862.6
16870.4
16878.3
16886.3
16894.3
16902.4
16910.5
16918.6
16926.7
16934.8
16942.8
16950.9
16958.9
16966.9
16974.9
16982.9
16990.9
16998.9
17006.9
17014.9
17022.9
17031
17038.9
17046.9
17054.9
17062.8
17070.6
17078.4
17086.1
17093.7
17101.2
17108.5
17115.7
17122.8
17129.7
17136.4
17142.9
17149.1
17155.2
17160.9
17166.4
17171.6
17176.5
17181.1
17185.4
17189.3
17192.8
17196
17198.7
17201.1
17203
17204.4
17205.5
17206
17206
17205.6
17204.6
17203
17201
17198.3
17195.1
17191.3
17186.9
17181.9
17176.2
17169.9
17162.9
17155.3
17146.9
17137.9
17128.1
17117.6
17106.3
17094.3
17081.5
17068
17053.8
17038.9
17023.3
17007
16990.1
16972.4
16954
16934.8
16914.9
16894.3
16873
16851.1
16828.4
16805.1
16781.2
16756.6
16731.4
16705.5
16679
16651.9
16624.2
16596
16567.2
16537.9
16508.1
16477.8
16447.1
16415.9
16384.3
16352.3
16319.9
16287.2
16254.1
16220.8
16187.1
16153.1
16118.8
16084.4
16049.6
16014.7
15979.6
15944.3
15908.8
15873.2
15837.5
15801.7
15765.9
15729.9
15693.9
15657.9
15622
15586
15550.1
15514.2
15478.5
15442.8
15407.3
15372
15336.9
15302
15267.3
15232.9
15198.9
15165.1
15131.7
15098.7
15066.1
15034
15002.3
14971.2
14940.6
14910.5
14881.1
14852.2
14824
14796.5
14769.7
14743.7
14718.3
14693.8
14670.1
14647.3
14625.3
14604.2
14584.1
14564.9
14546.7
14529.6
14513.5
14498.4
14484.5
14471.7