/*--------------------------------*- C++ -*----------------------------------*\
| =========                 |                                                 |
| \\      /  F ield         | OpenFOAM: The Open Source CFD Toolbox           |
|  \\    /   O peration     | Version:  v2006                                 |
|   \\  /    A nd           | Website:  www.openfoam.com                      |
|    \\/     M anipulation  |                                                 |
\*---------------------------------------------------------------------------*/
FoamFile
{
    version     2.0;
    format      ascii;
    class       volScalarField;
    location    "0";
    object      shifted_f;
}
// * * * * * * * * * * * * * * * * * * * * * * * * * * * * * * * * * * * * * //

dimensions      [0 0 0 0 0 0 0];


internalField   nonuniform List<scalar> 
2500
(
2.68596
2.68594
2.6859
2.68572
2.68573
2.68571
2.6857
2.68571
2.68574
2.6858
2.68578
2.68583
2.68585
2.6859
2.68597
2.68599
2.68609
2.68618
2.68627
2.68634
2.68646
2.68653
2.68666
2.68677
2.68689
2.68703
2.68771
2.68958
2.71219
2.95204
2.79802
4.2806
0.710129
0.397954
0.397627
0.39782
0.397867
0.397912
0.397913
0.397981
0.39798
0.39799
0.39799
0.398049
0.398068
0.398103
0.398074
0.398146
0.398152
0.398161
0.398179
0.398019
0.398093
0.397969
0.397844
0.397886
0.397907
0.397973
0.39798
0.398032
0.398006
0.398054
0.398054
0.398123
0.398161
0.398196
0.398266
0.398372
0.398414
0.398498
0.398558
0.398608
0.398696
0.398824
0.398886
0.399009
0.398432
0.397607
0.430466
0.414575
0.227098
0.714809
-0.266569
-1.09997
-1.11639
-1.11562
-1.11571
-1.11576
-1.11582
-1.11587
-1.11595
-1.11602
-1.11607
-1.11613
-1.11617
-1.11624
-1.11625
-1.11632
-1.11635
-1.11638
-1.11643
-1.11647
-1.11651
-1.1165
-1.11674
-1.11677
-1.11685
-1.11683
-1.11685
-1.11685
-1.11683
-1.11686
-1.11687
-1.11685
-1.11682
-1.11681
-1.11676
-1.11673
-1.11667
-1.11658
-1.11652
-1.11644
-1.11638
-1.11627
-1.1162
-1.11612
-1.11598
-1.11508
-1.1136
-1.15982
-0.972124
-0.206602
1.41914
-1.25599
-1.42063
-1.41909
-1.41897
-1.41896
-1.41893
-1.41894
-1.41891
-1.41886
-1.41885
-1.41885
-1.41882
-1.41881
-1.41878
-1.41877
-1.41873
-1.41872
-1.41873
-1.41871
-1.41861
-1.41853
-1.41852
-1.41865
-1.41863
-1.41866
-1.4186
-1.41855
-1.41854
-1.41857
-1.41858
-1.41854
-1.41852
-1.41849
-1.41844
-1.41839
-1.41833
-1.41826
-1.41819
-1.41814
-1.41808
-1.418
-1.41793
-1.41787
-1.41777
-1.41785
-1.41596
-1.38638
-1.39705
-1.08259
-0.440005
-1.24833
-1.73136
-1.73592
-1.73517
-1.73525
-1.73533
-1.73538
-1.73543
-1.73552
-1.73555
-1.73561
-1.73565
-1.7357
-1.73572
-1.7358
-1.73584
-1.73587
-1.73593
-1.73598
-1.73602
-1.73607
-1.73605
-1.73611
-1.73618
-1.73629
-1.7363
-1.73631
-1.73633
-1.7364
-1.73643
-1.73644
-1.73643
-1.73644
-1.73643
-1.7364
-1.73637
-1.73636
-1.73628
-1.73628
-1.73624
-1.73621
-1.73615
-1.73608
-1.73602
-1.73595
-1.735
-1.73421
-1.78736
-1.6743
-0.423884
1.02804
-0.662562
-0.733065
-0.731111
-0.731009
-0.730984
-0.730937
-0.730921
-0.730865
-0.730841
-0.730808
-0.730793
-0.730736
-0.730718
-0.730669
-0.730657
-0.730601
-0.730572
-0.730569
-0.730542
-0.730301
-0.730266
-0.730122
-0.730185
-0.73013
-0.730161
-0.730128
-0.730045
-0.730024
-0.730085
-0.73006
-0.730046
-0.72997
-0.729976
-0.729919
-0.729886
-0.729832
-0.729782
-0.729731
-0.729693
-0.729634
-0.729555
-0.729518
-0.729472
-0.729363
-0.728968
-0.724286
-0.70091
-0.702927
-0.229121
0.39298
-0.165021
-0.400497
-0.39959
-0.399049
-0.399089
-0.399125
-0.399143
-0.399149
-0.399169
-0.399168
-0.39918
-0.399177
-0.39918
-0.399182
-0.399198
-0.399181
-0.3992
-0.399208
-0.39924
-0.399234
-0.399199
-0.399148
-0.399017
-0.399019
-0.399123
-0.399091
-0.399064
-0.399064
-0.399136
-0.399136
-0.399142
-0.399141
-0.399112
-0.399105
-0.399054
-0.399031
-0.399021
-0.398962
-0.398945
-0.398892
-0.398864
-0.398825
-0.398768
-0.398712
-0.398653
-0.397989
-0.397988
-0.401832
-0.497645
0.712285
1.79455
0.894279
0.872983
0.874732
0.874782
0.874828
0.874914
0.874981
0.875055
0.875145
0.875236
0.875307
0.875393
0.875477
0.875539
0.875645
0.875685
0.875739
0.875806
0.875863
0.876005
0.876069
0.876277
0.876515
0.876606
0.876593
0.876626
0.876756
0.876817
0.876851
0.876926
0.876965
0.877045
0.877106
0.877195
0.877265
0.877329
0.877398
0.877459
0.877557
0.87762
0.877694
0.877769
0.877856
0.877929
0.878812
0.884537
0.907115
0.914689
1.04859
1.53342
1.2108
1.11762
1.12025
1.12056
1.12053
1.12056
1.12061
1.12067
1.12076
1.12079
1.12083
1.12089
1.12095
1.12101
1.12106
1.12111
1.12116
1.12119
1.12124
1.1213
1.12135
1.12137
1.12175
1.1219
1.12183
1.12192
1.12201
1.12205
1.12206
1.12214
1.12219
1.12228
1.12231
1.12235
1.12242
1.12247
1.12253
1.12262
1.12265
1.12271
1.12277
1.12286
1.12292
1.12299
1.12305
1.12309
1.12252
1.17795
0.697189
1.55291
2.22685
1.82963
1.82926
1.83049
1.83048
1.83056
1.83069
1.83083
1.83095
1.83108
1.83119
1.83132
1.83144
1.83157
1.83169
1.83179
1.83191
1.83199
1.83212
1.83224
1.83226
1.83238
1.8325
1.83303
1.83319
1.83326
1.83323
1.83343
1.83354
1.83369
1.83379
1.83388
1.83403
1.83412
1.83422
1.83434
1.83444
1.83456
1.83467
1.83477
1.83487
1.83497
1.8351
1.8352
1.83531
1.83655
1.84143
1.86827
1.8829
1.60779
1.92127
1.76749
1.74205
1.74451
1.74456
1.74456
1.74462
1.74475
1.74483
1.74493
1.74503
1.74511
1.7452
1.74528
1.74538
1.74545
1.74554
1.7456
1.7457
1.74577
1.74586
1.74589
1.7459
1.74618
1.74659
1.74659
1.74662
1.74678
1.74686
1.747
1.74714
1.74723
1.74734
1.74741
1.74749
1.74757
1.74764
1.74772
1.7478
1.74789
1.74798
1.74804
1.74811
1.74821
1.74828
1.74835
1.7478
1.74674
1.81829
1.09814
1.57676
1.91893
1.78234
1.78831
1.78885
1.78878
1.78886
1.78898
1.78912
1.78921
1.78933
1.78943
1.78953
1.78963
1.78974
1.78985
1.78994
1.79004
1.79015
1.79027
1.79036
1.79038
1.79048
1.7904
1.791
1.79117
1.79132
1.79119
1.79131
1.79143
1.7917
1.79177
1.79188
1.79197
1.79204
1.79214
1.79226
1.79237
1.79244
1.79255
1.79264
1.79274
1.79283
1.79292
1.79302
1.79311
1.7943
1.79814
1.82349
1.83886
1.46291
1.62562
1.56761
1.56855
1.57009
1.56995
1.56994
1.57
1.5701
1.57018
1.57027
1.57033
1.5704
1.57046
1.57054
1.57063
1.57069
1.57077
1.57084
1.57091
1.57098
1.57104
1.57101
1.57106
1.57098
1.57153
1.57166
1.57153
1.57164
1.57174
1.57196
1.57209
1.57214
1.57221
1.57227
1.57233
1.5724
1.57247
1.57253
1.5726
1.57267
1.57272
1.57279
1.57285
1.5729
1.57297
1.57303
1.57223
1.5706
1.59579
1.06038
1.25872
1.39348
1.36842
1.37427
1.37424
1.37412
1.37414
1.3742
1.37428
1.37435
1.37441
1.37446
1.37452
1.37456
1.37464
1.37468
1.37472
1.37477
1.37484
1.3749
1.37492
1.375
1.37502
1.37491
1.37518
1.3753
1.37559
1.3754
1.37526
1.37536
1.37557
1.37563
1.37572
1.37572
1.37577
1.37583
1.3759
1.37594
1.37598
1.37604
1.37609
1.37614
1.3762
1.37624
1.37631
1.37637
1.37715
1.37979
1.38647
1.39437
1.10822
1.16969
1.15528
1.16323
1.16379
1.1635
1.16346
1.1635
1.16357
1.16363
1.16367
1.16371
1.16375
1.1638
1.16384
1.16385
1.1639
1.16393
1.16397
1.16401
1.16406
1.16409
1.16404
1.1641
1.16383
1.16431
1.16465
1.16439
1.1643
1.1644
1.16458
1.16472
1.16476
1.16476
1.16478
1.16482
1.16486
1.16489
1.16493
1.16497
1.16501
1.16506
1.16508
1.16511
1.16514
1.16517
1.16522
1.16426
1.1625
1.11492
0.864633
0.889324
0.925082
0.937849
0.941334
0.940943
0.940786
0.940816
0.940853
0.940911
0.940957
0.940966
0.941004
0.941017
0.941066
0.941085
0.941102
0.941123
0.941148
0.941181
0.941211
0.941261
0.941348
0.941338
0.941378
0.94132
0.941346
0.941868
0.942065
0.941446
0.941488
0.941685
0.941745
0.941786
0.941782
0.94181
0.941844
0.941872
0.941901
0.941922
0.941971
0.941987
0.94201
0.942032
0.942065
0.942106
0.94211
0.942741
0.942758
0.918343
0.917368
0.715976
0.729432
0.730972
0.738073
0.737818
0.737485
0.737462
0.737498
0.737548
0.737588
0.737631
0.737645
0.737665
0.73772
0.737737
0.737752
0.737787
0.737805
0.737817
0.737848
0.737873
0.737903
0.737909
0.737972
0.737944
0.738104
0.738893
0.738798
0.738202
0.738245
0.738316
0.738485
0.738521
0.738506
0.738523
0.738556
0.738573
0.738605
0.738624
0.738657
0.738673
0.738707
0.738726
0.73876
0.738784
0.738792
0.738827
0.737834
0.737367
0.633418
0.506803
0.474302
0.473894
0.492941
0.493806
0.493215
0.493109
0.493125
0.493172
0.493222
0.493266
0.493286
0.49329
0.493357
0.493371
0.493362
0.493393
0.493399
0.493435
0.493436
0.493462
0.493487
0.493568
0.493587
0.493787
0.493727
0.493512
0.494014
0.495638
0.495193
0.495124
0.495443
0.495488
0.495488
0.495467
0.495513
0.495524
0.495552
0.495567
0.495604
0.49561
0.495634
0.495656
0.495687
0.495699
0.495718
0.495758
0.496046
0.493581
0.451497
0.449448
0.340152
0.338511
0.343833
0.347602
0.346837
0.346549
0.346568
0.346603
0.346654
0.346703
0.34671
0.34673
0.34679
0.346812
0.346804
0.346827
0.34683
0.346854
0.346873
0.346894
0.346904
0.346935
0.346993
0.347045
0.34735
0.34697
0.347964
0.349105
0.348384
0.348226
0.348361
0.348436
0.348454
0.34844
0.348456
0.348474
0.348503
0.348524
0.34853
0.348548
0.348571
0.348583
0.348612
0.348609
0.348621
0.348645
0.348685
0.348213
0.349682
0.256413
0.205548
0.179637
0.170625
0.184409
0.183181
0.182589
0.182515
0.182545
0.182571
0.182615
0.182634
0.182637
0.182698
0.182682
0.182699
0.182676
0.18269
0.182683
0.182695
0.182697
0.182703
0.182714
0.182729
0.182753
0.182918
0.182913
0.182411
0.181491
0.184079
0.185518
0.185368
0.185631
0.185639
0.185629
0.185631
0.18564
0.185648
0.185655
0.185665
0.185665
0.18566
0.185677
0.185672
0.185692
0.185686
0.185692
0.18571
0.185634
0.184723
0.154855
0.153781
0.124195
0.120454
0.12494
0.125332
0.124361
0.12416
0.124184
0.124222
0.124258
0.124278
0.124292
0.124338
0.12432
0.124335
0.124306
0.124308
0.124304
0.124301
0.12432
0.124314
0.124317
0.124328
0.124394
0.124404
0.124682
0.123762
0.12348
0.126003
0.126982
0.126617
0.126803
0.126627
0.126637
0.126613
0.126642
0.126639
0.126658
0.126643
0.126646
0.126645
0.126653
0.126651
0.126666
0.126657
0.126673
0.12668
0.126681
0.126893
0.127705
0.0783529
0.0868714
0.0768335
0.0693897
0.0753438
0.0728671
0.0723857
0.0724114
0.0724465
0.0724814
0.0724906
0.0724909
0.0725045
0.0724818
0.0724891
0.07247
0.0724829
0.0724599
0.0724468
0.0724459
0.0724534
0.0724434
0.0724458
0.0723735
0.0723928
0.0724069
0.0724
0.0720646
0.0690297
0.0676426
0.0714735
0.0713893
0.0710959
0.0711214
0.0711176
0.0711229
0.0711332
0.0711393
0.0711253
0.0711154
0.0711161
0.071119
0.0711058
0.0711028
0.0710998
0.0710983
0.0710973
0.0710948
0.071358
0.0730077
0.0584203
0.0569182
0.0647902
0.0627446
0.0651176
0.0630995
0.0621723
0.0621182
0.0621763
0.0622164
0.0622337
0.0622531
0.062204
0.0621966
0.0621747
0.0621731
0.0621634
0.0621694
0.0621593
0.0621585
0.0621676
0.0621635
0.0621597
0.0621546
0.0622028
0.0621966
0.062254
0.0616417
0.0591221
0.0595133
0.0630796
0.0626915
0.0625666
0.0623985
0.0623895
0.0623864
0.0624099
0.062411
0.0624278
0.0624147
0.0624014
0.0623953
0.062385
0.0623983
0.0623972
0.0623995
0.0623945
0.0623892
0.062398
0.0622866
0.0609301
0.0298018
0.0581642
0.0584159
0.0552371
0.0546915
0.0518667
0.0516052
0.051678
0.0517397
0.0517672
0.0517878
0.0516754
0.0516533
0.0516397
0.0516433
0.0516193
0.0516365
0.051618
0.051616
0.0516146
0.0516256
0.0516114
0.0516173
0.0514622
0.0515014
0.05136
0.0517235
0.0517921
0.0495324
0.0414768
0.045914
0.046014
0.0449951
0.0450288
0.0450127
0.0450529
0.0450525
0.0450499
0.0450513
0.0450439
0.0450324
0.0450349
0.0450403
0.0450388
0.0450336
0.0450257
0.0450272
0.0450311
0.0456456
0.0418266
0.0299059
0.0283341
0.0457085
0.0458599
0.0462765
0.0430945
0.0424171
0.0425167
0.0426178
0.04266
0.0426772
0.042499
0.0424697
0.042469
0.0424761
0.0424583
0.0424752
0.0424639
0.0424714
0.0424795
0.0424709
0.042479
0.0424858
0.0424831
0.0425168
0.0424857
0.042584
0.0420495
0.0385385
0.0344012
0.0386511
0.0389032
0.0384579
0.0385916
0.0386037
0.0386257
0.038647
0.0386542
0.0386454
0.0386489
0.0386364
0.0386368
0.0386429
0.0386483
0.0386399
0.0386555
0.0386577
0.0386577
0.0386525
0.0382978
0.0375787
0.0137553
0.0388725
0.0444616
0.0451787
0.0408712
0.0384239
0.0384245
0.0385921
0.0386462
0.0386905
0.0384434
0.0384391
0.0384112
0.0384294
0.0384208
0.0384194
0.0384159
0.0384135
0.0384167
0.0384227
0.0384341
0.0384375
0.0384401
0.038264
0.0382898
0.0381613
0.0383756
0.0389124
0.040076
0.0295941
0.0283679
0.0293733
0.0286249
0.0286585
0.0286697
0.0287083
0.0287214
0.0287107
0.0287111
0.0287064
0.0287017
0.0287094
0.0287112
0.028698
0.0287134
0.0287346
0.0287328
0.028742
0.0281089
0.0205084
0.011685
0.0105188
0.0271247
0.0288341
0.0279838
0.0248678
0.0245583
0.0248155
0.0249424
0.0249826
0.0247403
0.0247476
0.0247296
0.0247316
0.024739
0.0247257
0.0247401
0.0247354
0.0247358
0.0247429
0.0247627
0.0247622
0.0247655
0.0247709
0.0247714
0.0247356
0.0249386
0.0237532
0.0209878
0.0138095
0.0140811
0.0163338
0.016819
0.0171017
0.0171053
0.0171448
0.0171538
0.0171562
0.0171587
0.0171641
0.0171545
0.0171532
0.0171693
0.0171793
0.0171753
0.0171922
0.017189
0.0171953
0.017199
0.0184518
0.0187952
0.00124492
0.017389
0.0251626
0.0282899
0.0231742
0.021677
0.0219349
0.0221726
0.0222397
0.0220364
0.0220295
0.0220288
0.0220178
0.0220341
0.0220243
0.022046
0.0220305
0.0220363
0.0220421
0.022048
0.0220546
0.0220602
0.022069
0.0219228
0.0219364
0.0219327
0.0210482
0.0223499
0.027768
0.0233339
0.00598385
0.00906639
0.00946785
0.00945833
0.00947051
0.00950225
0.00950086
0.0095098
0.00950827
0.00950517
0.00951392
0.0095077
0.00951906
0.00953723
0.00952839
0.00954208
0.00955189
0.00955643
0.00846456
0.00632062
0.00102686
0.000356489
0.0137095
0.0160704
0.0147699
0.0127454
0.0128725
0.0132544
0.0133837
0.0132117
0.0132045
0.013216
0.0131965
0.0132128
0.0132017
0.0132184
0.0132244
0.0132306
0.0132269
0.0132398
0.0132385
0.0132513
0.0132657
0.013272
0.0132446
0.0132351
0.0132953
0.0123186
0.0131243
0.00746508
-0.00280299
0.00279492
0.00540818
0.00555894
0.00556278
0.00559554
0.0056025
0.00560774
0.00560254
0.00561632
0.0056041
0.00560831
0.00561342
0.00562134
0.00562645
0.00563374
0.00564746
0.00564546
0.00564685
0.0071683
0.00740244
-0.00446945
0.00371678
0.0115312
0.0153663
0.0120643
0.0118702
0.0124048
0.0126932
0.0124577
0.0124352
0.0124617
0.012446
0.0124478
0.0124661
0.0124584
0.0124757
0.0124743
0.0124695
0.0124918
0.0124854
0.0125004
0.0125004
0.0125004
0.0124502
0.012437
0.0125896
0.0103371
0.0122695
0.0197956
0.0326004
-0.00852965
-0.0033798
-0.00265172
-0.00269502
-0.00268468
-0.00265707
-0.00266157
-0.00267064
-0.0026624
-0.00266479
-0.00266021
-0.00266109
-0.00265646
-0.00264803
-0.00263424
-0.00263909
-0.00262223
-0.00260965
-0.00155918
-0.000266694
-0.00381145
-0.00411688
0.00546067
0.00768437
0.0066838
0.00647836
0.00707616
0.00757386
0.00714568
0.0071255
0.00712758
0.00712986
0.00713004
0.00715905
0.00714854
0.00717544
0.00715933
0.00716682
0.00716541
0.0071852
0.00718619
0.00718924
0.00719656
0.00720716
0.00718055
0.00720432
0.00692595
0.00864023
0.0149385
0.0166198
-0.00968416
-0.000996376
0.00345735
0.00333125
0.00333891
0.00336769
0.00336268
0.00336291
0.00336213
0.00337817
0.00338003
0.00338879
0.0033907
0.00340534
0.00340479
0.00341933
0.00342798
0.00343917
0.00343598
0.00330525
0.00323484
-0.00425905
-0.00193516
0.00428827
0.00744689
0.0079523
0.0093404
0.0100813
0.0092464
0.00922655
0.00924678
0.0092493
0.00924085
0.00926643
0.00925251
0.00928931
0.00928292
0.0092992
0.00929711
0.00931235
0.00931564
0.00932226
0.00933033
0.0093349
0.0093719
0.00935364
0.00959215
0.00691961
0.00823519
0.0133643
0.053563
-0.0100016
-0.00419265
-0.00395295
-0.00399198
-0.00396824
-0.00396008
-0.00397036
-0.00397181
-0.00396597
-0.00397133
-0.00395511
-0.00394917
-0.00394931
-0.00394457
-0.00393283
-0.00392497
-0.00391812
-0.00391445
-0.00325714
-0.00284112
-0.00578044
-0.00584117
-0.000574123
0.000937715
0.000791764
0.00296424
0.00402371
0.00260582
0.00259531
0.00258368
0.00261077
0.00259902
0.0026179
0.00263973
0.00263759
0.00265462
0.00265747
0.00267711
0.0026798
0.00269435
0.00268759
0.00270282
0.00270679
0.00270944
0.00270288
0.00274829
0.00196636
0.00822859
0.0181376
0.0318322
-0.0101107
-0.000194912
0.00402168
0.0038246
0.00384751
0.00385656
0.00385738
0.00386363
0.00386304
0.00387686
0.00388302
0.00388901
0.00389322
0.00390821
0.00392472
0.00393027
0.00393966
0.00395895
0.0039501
0.00321069
0.00307712
-0.00134744
-0.00351524
-0.000147723
0.00137097
0.00712162
0.010179
0.00811836
0.00809369
0.00808416
0.00811378
0.00812291
0.00812353
0.00817226
0.00814873
0.00818807
0.0081706
0.00818513
0.00820699
0.00821495
0.00821826
0.00822181
0.00823511
0.00824626
0.00838628
0.00834431
0.00862354
0.00787857
0.00686542
0.00611122
0.0735303
-0.000400259
0.00487257
0.0047429
0.00473694
0.00473026
0.00473152
0.00473794
0.00475035
0.00474358
0.00474569
0.00475802
0.00475447
0.00475901
0.0047738
0.00477652
0.00479057
0.00479848
0.0048047
0.00314428
0.00223397
-0.000394892
-0.00030594
-0.000200267
0.000266392
0.00130727
0.00618492
0.00354338
0.0035241
0.0035114
0.00352891
0.00354518
0.00354679
0.00358504
0.00357081
0.00360367
0.00359193
0.00360208
0.0036148
0.00362775
0.00364449
0.00364342
0.00365365
0.00365263
0.00366467
0.00366654
0.00374534
0.00244436
0.0110248
0.0212912
0.0473383
-0.00167914
0.00684679
0.00896863
0.00891244
0.00893581
0.00893791
0.00893843
0.00894679
0.00896769
0.00896972
0.00898802
0.00898965
0.00898771
0.00901328
0.00902407
0.00903744
0.00904972
0.00906194
0.00906835
0.00880661
0.00879201
0.00647915
0.000372522
-0.000152407
-0.000793454
0.0110031
0.00471384
0.00465582
0.00464566
0.00464476
0.00468195
0.00467671
0.00471894
0.00472914
0.00475136
0.00476435
0.00476723
0.00478167
0.00478865
0.00479847
0.00480923
0.00481878
0.00482164
0.00483189
0.00503047
0.00498958
0.00516428
0.0089724
0.00496269
-0.00274879
0.0797964
0.0139925
0.0171358
0.0171462
0.0171482
0.0171559
0.017147
0.0171529
0.0171541
0.0171523
0.0171604
0.0171592
0.017168
0.0171744
0.0171806
0.0171875
0.0171859
0.0171914
0.0172048
0.0152123
0.0140738
0.0118185
0.0120216
0.00600708
0.00524435
0.00762875
-0.00150601
-0.00163742
-0.00164868
-0.00167598
-0.00164873
-0.00164926
-0.00164437
-0.0015963
-0.00160947
-0.00159549
-0.0016134
-0.00160728
-0.00159722
-0.00158564
-0.00159223
-0.001594
-0.00158537
-0.00159701
-0.00158857
-0.00159467
-0.00151229
-0.00290846
0.00162718
0.011177
0.047051
0.00240905
0.00702148
0.00657538
0.00667914
0.00667909
0.00667789
0.00667655
0.00668242
0.00668681
0.00668927
0.00669057
0.00669507
0.0067129
0.00671509
0.00672584
0.00672961
0.00673723
0.00674963
0.00675403
0.00701014
0.00710597
0.00644575
-0.00364115
-0.00889576
-0.0118869
-0.035701
-0.0362008
-0.0362158
-0.0362415
-0.0362365
-0.0362078
-0.036227
-0.0361726
-0.0362106
-0.036183
-0.0362023
-0.0361985
-0.0361924
-0.0361964
-0.0361931
-0.0361945
-0.0361954
-0.0362062
-0.0362032
-0.035979
-0.0360333
-0.0361367
-0.0281784
-0.0356052
-0.0515384
0.0315463
-0.00598542
-0.00637077
-0.00618081
-0.00616094
-0.00616766
-0.00618858
-0.00618858
-0.00619794
-0.00620565
-0.00620786
-0.00621553
-0.00620717
-0.00621503
-0.00622776
-0.00622366
-0.00621915
-0.00621955
-0.00622409
-0.00703488
-0.00766858
-0.00935891
-0.00906228
-0.0221328
-0.0241676
-0.0287033
-0.0294954
-0.0295628
-0.0295709
-0.0295856
-0.0295703
-0.0295759
-0.0295295
-0.0295356
-0.0295221
-0.0295358
-0.0295417
-0.0295437
-0.029539
-0.0295458
-0.0295404
-0.0295437
-0.029559
-0.0295653
-0.0295609
-0.0296
-0.029525
-0.0300427
-0.034736
-0.0297076
0.0144464
-0.0148174
-0.0151323
-0.0173911
-0.0172807
-0.0172772
-0.0172963
-0.0172958
-0.0172898
-0.017298
-0.0172886
-0.017285
-0.017288
-0.0172958
-0.0172951
-0.0172833
-0.0172793
-0.0172775
-0.0172736
-0.0172696
-0.0168929
-0.0167467
-0.0157547
-0.0301384
-0.0407896
-0.0394694
-0.0413093
-0.0416212
-0.0416024
-0.0416186
-0.0415991
-0.0415954
-0.0415899
-0.0415498
-0.0415662
-0.0415517
-0.0415759
-0.0415733
-0.04157
-0.0415805
-0.0415724
-0.0415761
-0.0415851
-0.0415842
-0.0415982
-0.0413972
-0.0414223
-0.0419194
-0.0347349
-0.0448577
-0.0731415
-0.00735819
-0.00846511
-0.011973
-0.0119837
-0.0119601
-0.0119644
-0.0119791
-0.0119886
-0.0119766
-0.0119888
-0.0120054
-0.011999
-0.0120077
-0.0120036
-0.0120156
-0.012011
-0.0120189
-0.0120102
-0.0120244
-0.011774
-0.0118433
-0.0127211
-0.0123054
-0.0331081
-0.0316718
-0.0321759
-0.0327398
-0.0327182
-0.0327303
-0.0327147
-0.0326976
-0.0327075
-0.0326472
-0.0326903
-0.0326583
-0.0326791
-0.0326848
-0.0326854
-0.0326903
-0.032686
-0.0326967
-0.0327072
-0.0327103
-0.0327178
-0.0327231
-0.032792
-0.0327397
-0.0314667
-0.0458674
-0.0556208
-0.0102543
-0.0179871
-0.0227439
-0.0259683
-0.02593
-0.0259319
-0.0259447
-0.025936
-0.0259338
-0.0259385
-0.0259432
-0.0259511
-0.0259443
-0.0259403
-0.025939
-0.0259382
-0.0259421
-0.0259247
-0.025929
-0.025924
-0.0256813
-0.0255342
-0.0226418
-0.0417232
-0.0232731
-0.0223448
-0.0237511
-0.0238254
-0.0237862
-0.0237698
-0.0237381
-0.0237338
-0.0236986
-0.0237136
-0.0236724
-0.0236786
-0.0236818
-0.0236736
-0.0236661
-0.0236645
-0.0236583
-0.0236677
-0.0236646
-0.0236671
-0.0236668
-0.0235288
-0.0235166
-0.0243787
-0.0212139
-0.0284562
-0.067815
-0.0339102
-0.00530149
-0.0103582
-0.0107106
-0.0106706
-0.0106624
-0.0106737
-0.0106667
-0.0106676
-0.0106701
-0.0106739
-0.0106736
-0.010674
-0.0106774
-0.0106718
-0.0106744
-0.0106712
-0.0106734
-0.0106626
-0.010081
-0.00978142
-0.00961337
-0.0090376
0.0237541
0.0242869
0.0239017
0.0236272
0.023732
0.0237304
0.0237972
0.0238034
0.0238194
0.0238669
0.0238759
0.023888
0.0238714
0.0238894
0.0238979
0.0239039
0.0239108
0.0239099
0.0239177
0.0239135
0.0239135
0.0239252
0.023821
0.02384
0.0267029
0.00713396
-0.0211273
0.013676
0.0263593
0.0188555
0.015384
0.0153533
0.0153539
0.0153579
0.015363
0.0153628
0.015372
0.0153717
0.0153736
0.0153838
0.0153986
0.0153951
0.0154087
0.0154104
0.0154185
0.0154224
0.015437
0.0155086
0.0155787
0.0207836
0.0537643
0.0555636
0.0563024
0.0554589
0.0556602
0.0557142
0.0557724
0.0558035
0.0558055
0.0558693
0.0558539
0.0558881
0.0558755
0.0558892
0.0558993
0.0559167
0.0559226
0.0559289
0.0559331
0.0559403
0.0559471
0.0559439
0.055971
0.0560543
0.0551828
0.056686
0.0567467
0.015857
0.0131304
0.0611341
0.0560322
0.0555658
0.0556078
0.0556215
0.0556259
0.0556289
0.0556289
0.0556374
0.0556331
0.0556436
0.0556465
0.0556504
0.0556545
0.055666
0.0556689
0.0556746
0.0556794
0.0561229
0.0564894
0.0579581
0.0569478
0.0583965
0.0587901
0.0585423
0.0586389
0.0587826
0.0588093
0.0588851
0.058885
0.0589325
0.0589057
0.0589519
0.0589453
0.0589527
0.0589621
0.0589728
0.0589803
0.0589865
0.0589877
0.0590006
0.0590009
0.0590034
0.059011
0.058912
0.0588672
0.062513
0.0438423
0.00442108
0.0201391
0.0473011
0.0391543
0.0361534
0.0361239
0.0361143
0.0361287
0.0361335
0.0361416
0.0361478
0.0361424
0.0361502
0.0361575
0.036159
0.0361709
0.0361739
0.0361851
0.0361858
0.0361996
0.0362019
0.0361457
0.0361215
0.0341164
0.034891
0.035954
0.0364089
0.036319
0.036762
0.0368086
0.0369202
0.0369298
0.0369505
0.0369661
0.0369961
0.0370107
0.0370107
0.0370245
0.0370428
0.0370545
0.0370649
0.0370685
0.0370754
0.0370844
0.0370946
0.0370961
0.0369565
0.0370917
0.0368113
0.0354761
0.0411359
0.0104964
-0.0249788
0.0320317
0.0278419
0.0275602
0.0275954
0.0276154
0.0276179
0.0276247
0.0276301
0.0276354
0.0276436
0.0276476
0.0276576
0.027665
0.0276761
0.0276809
0.0276921
0.0276962
0.027707
0.0278484
0.0280764
0.0317428
0.0316295
0.0322269
0.0324174
0.0323671
0.0328678
0.0330195
0.0331099
0.0331662
0.0331624
0.033209
0.0332073
0.0332389
0.0332296
0.033247
0.0332691
0.033283
0.0332985
0.0333087
0.0333191
0.0333247
0.0333342
0.0333443
0.0333516
0.0333234
0.0331823
0.0374662
0.0222426
-0.0167454
-0.0227512
0.0126529
0.00551768
0.0035363
0.00355713
0.00355407
0.00357803
0.00358538
0.00359466
0.00359914
0.00360543
0.00361708
0.00362296
0.00363493
0.0036413
0.00365785
0.00365985
0.0036744
0.00367843
0.00369231
0.00359744
0.00330538
-0.00320452
-0.00209936
-0.00189806
-0.00182949
-0.0010102
-0.000405574
-0.000359939
-0.000241851
-0.000243035
-0.000210562
-0.000234408
-0.000196849
-0.000201971
-0.000187387
-0.000166329
-0.000149717
-0.000145086
-0.0001293
-0.000120881
-0.000112012
-0.000100864
-9.24944e-05
-8.07195e-05
-0.000366739
-0.000193612
0.000312136
-0.00854975
-0.000646645
-0.0124157
-0.0706141
-0.0156245
-0.0185151
-0.0184796
-0.0184518
-0.018433
-0.0184164
-0.0184168
-0.018403
-0.0183923
-0.0183878
-0.0183763
-0.0183648
-0.0183573
-0.0183473
-0.018332
-0.0183129
-0.0183049
-0.0183004
-0.0183785
-0.0200599
-0.0258293
-0.0260393
-0.0260507
-0.0260965
-0.0259064
-0.02504
-0.0249361
-0.0247918
-0.0247847
-0.0247699
-0.0247778
-0.024749
-0.0247376
-0.0247358
-0.0247115
-0.024698
-0.024679
-0.0246675
-0.0246568
-0.0246452
-0.0246336
-0.0246235
-0.0246171
-0.0246033
-0.0245169
-0.0247383
-0.0211193
-0.0332386
-0.0589792
-0.084151
-0.0464161
-0.0516735
-0.0525679
-0.0524918
-0.0524917
-0.0524692
-0.052463
-0.0524544
-0.0524423
-0.0524348
-0.0524299
-0.052418
-0.0524066
-0.0523923
-0.0523829
-0.0523714
-0.0523634
-0.052349
-0.0523404
-0.0525235
-0.0523389
-0.0598921
-0.057779
-0.0584714
-0.0588809
-0.0570805
-0.0565075
-0.0564301
-0.0563718
-0.0563778
-0.0563639
-0.0563598
-0.056334
-0.0563447
-0.0563307
-0.0563091
-0.0562966
-0.0562858
-0.0562734
-0.0562621
-0.056261
-0.0562483
-0.056238
-0.0562277
-0.0565576
-0.0564069
-0.0554235
-0.0705403
-0.0637788
-0.0543311
-0.123408
-0.0790938
-0.0807426
-0.080436
-0.0804224
-0.0804041
-0.0803984
-0.080392
-0.0803827
-0.0803733
-0.080366
-0.0803546
-0.0803427
-0.0803354
-0.0803209
-0.0803078
-0.0802962
-0.0802865
-0.0802737
)
;

boundaryField
{
    movingWall
    {
        type            zeroGradient;
    }
    fixedWalls
    {
        type            zeroGradient;
    }
    frontAndBack
    {
        type            empty;
    }
}

