/*--------------------------------*- C++ -*----------------------------------*\
| =========                 |                                                 |
| \\      /  F ield         | OpenFOAM: The Open Source CFD Toolbox           |
|  \\    /   O peration     | Version:  v2006                                 |
|   \\  /    A nd           | Website:  www.openfoam.com                      |
|    \\/     M anipulation  |                                                 |
\*---------------------------------------------------------------------------*/
FoamFile
{
    version     2.0;
    format      ascii;
    class       volScalarField;
    location    "0";
    object      shifted_f;
}
// * * * * * * * * * * * * * * * * * * * * * * * * * * * * * * * * * * * * * //

dimensions      [0 0 0 0 0 0 0];


internalField   nonuniform List<scalar> 
2500
(
0.000120427
0.000120394
0.00012036
0.000120267
0.000120331
0.000120223
0.000120167
0.000120148
0.0001201
0.000120051
0.000120036
0.000119936
0.000119913
0.00011991
0.000119839
0.000119742
0.000119675
0.000119645
0.000119649
0.000119586
0.00011953
0.000119507
0.000119392
0.000119399
0.000119448
0.000119396
0.000119295
0.00011925
0.000119273
0.000119139
0.000119101
0.000119124
0.000119012
0.000118997
0.000119004
0.000118915
0.000118949
0.000118893
0.00011893
0.000118818
0.000118747
0.000118729
0.000118684
0.000118669
0.000118658
0.000118591
0.000118557
0.00011852
0.00011852
0.00011849
0.000118334
0.000118401
0.000221021
0.000220932
0.000220839
0.000220653
0.00022066
0.000220511
0.000220425
0.000220314
0.000220262
0.000220064
0.000220023
0.000219945
0.000219781
0.000219714
0.000219557
0.000219554
0.000219375
0.000219349
0.000219259
0.00021917
0.000219025
0.000218917
0.000218894
0.000218783
0.000218742
0.000218578
0.000218477
0.000218384
0.000218261
0.000218261
0.000218146
0.000218049
0.000217881
0.000217892
0.00021781
0.000217725
0.000217628
0.000217561
0.00021746
0.000217356
0.000217266
0.000217225
0.000217173
0.000217091
0.00021698
0.000216845
0.000216819
0.000216693
0.000216644
0.000216577
0.000216451
0.000216439
0.000216346
0.000216294
0.000216268
0.000216156
0.000216104
0.00021597
0.000215892
0.000215881
0.000215814
0.000215717
0.000215746
0.000215564
0.000215475
0.000215482
0.0002154
0.000215318
0.000215299
0.000215199
0.000215095
0.000215061
0.000215057
0.000214998
0.000214871
0.000214789
0.000214759
0.000214741
0.000214666
0.000214532
0.000214517
0.000214536
0.000214435
0.000214402
0.000214338
0.000214372
0.000214227
0.000214212
0.000214096
0.000214022
0.00021401
0.000213962
0.000213955
0.000213988
0.000213888
0.00021382
0.000213794
0.000213712
0.00021372
0.000213675
0.000213537
0.000349898
0.000349812
0.000349849
0.00034976
0.000349652
0.000349663
0.000349592
0.000349455
0.00034954
0.000349537
0.000349384
0.000349354
0.000349268
0.000349302
0.000349168
0.000349127
0.000349078
0.000349138
0.000349011
0.000348952
0.000348959
0.000348929
0.000348821
0.00034881
0.000348728
0.000348754
0.000348728
0.000348609
0.000348568
0.000348549
0.000348527
0.000348445
0.000348464
0.000348393
0.000348363
0.000348236
0.0003483
0.000348229
0.000348173
0.000348188
0.000348207
0.000348143
0.00034805
0.00034805
0.000347991
0.000347942
0.000347961
0.000347879
0.000347845
0.000347808
0.000347745
0.000347689
0.000347607
0.000347618
0.0003477
0.000347566
0.000347499
0.000347495
0.000347503
0.000347473
0.000347428
0.000347439
0.000347342
0.000347391
0.000347387
0.000347242
0.000347253
0.000347231
0.000347219
0.000347231
0.000347197
0.00034713
0.000347104
0.000347074
0.000347029
0.000347029
0.000347093
0.000346985
0.000346955
0.000346866
0.000346866
0.00034691
0.000346858
0.000346784
0.000346839
0.000346832
0.000346802
0.000346776
0.000346754
0.000346709
0.00034669
0.000346683
0.000346672
0.000346642
0.000346512
0.000346493
0.000346627
0.000346579
0.000346534
0.000346594
0.00034659
0.000365186
0.00036516
0.000365071
0.000365175
0.000365198
0.000365164
0.000365227
0.000365201
0.000365265
0.000365246
0.000365112
0.000365324
0.000365257
0.000365358
0.000365272
0.000365276
0.000365246
0.000365295
0.000365358
0.000365268
0.000365339
0.000365354
0.000365332
0.000365362
0.000365365
0.000365485
0.000365444
0.000365455
0.000365358
0.000365358
0.000365388
0.000365429
0.000365462
0.00036547
0.000365481
0.000365485
0.00036547
0.000365481
0.000365522
0.000365514
0.000365488
0.000365522
0.000365682
0.000365641
0.000365507
0.000365607
0.000365485
0.000365525
0.00036554
0.000365682
0.000365507
0.00036566
0.000365611
0.000365593
0.000365585
0.000365607
0.000365645
0.000365622
0.00036573
0.000365656
0.000365593
0.000365622
0.000365648
0.000365715
0.000365678
0.000365701
0.000365641
0.000365712
0.000365753
0.000365719
0.000365771
0.000365686
0.000365663
0.000365742
0.00036576
0.000365734
0.000365753
0.000365805
0.000365775
0.000365611
0.00036579
0.000365671
0.000365734
0.000365786
0.000365835
0.000365745
0.000365801
0.000365842
0.000365824
0.000365835
0.000365742
0.000365831
0.000365809
0.00036576
0.000365842
0.000365805
0.00036579
0.000365928
0.000365805
0.000365894
0.000365816
0.00030905
0.000309009
0.000309076
0.000309076
0.000308994
0.000308916
0.000309072
0.000309013
0.000308879
0.000308845
0.000308979
0.000308912
0.000309017
0.000308927
0.00030892
0.000308875
0.000308879
0.000308905
0.000308733
0.000308789
0.000308756
0.000308741
0.000308741
0.000308797
0.000308696
0.00030883
0.000308808
0.00030873
0.000308726
0.000308793
0.000308618
0.000308666
0.000308696
0.000308577
0.000308651
0.000308674
0.00030851
0.000308704
0.000308648
0.00030854
0.000308536
0.000308603
0.000308625
0.000308543
0.00030857
0.000308551
0.000308499
0.000308555
0.00030848
0.000308469
0.000308655
0.000308573
0.000308529
0.000308458
0.000308584
0.000308458
0.000308502
0.000308413
0.000308491
0.000308551
0.000308432
0.000308473
0.000308461
0.00030845
0.000308428
0.000308439
0.000308368
0.000308368
0.000308406
0.000308428
0.000308286
0.00030835
0.000308454
0.000308309
0.000308372
0.000308305
0.000308257
0.000308305
0.000308294
0.000308353
0.000308372
0.000308324
0.000308227
0.000308294
0.000308298
0.000308264
0.00030813
0.00030826
0.000308309
0.00030835
0.000308257
0.000308257
0.000308175
0.000308163
0.00030819
0.000308175
0.000308216
0.00030816
0.000308257
0.000308257
0.000308171
0.000284042
0.000283945
0.000283938
0.0002838
0.000283845
0.000283811
0.00028364
0.00028367
0.000283573
0.000283498
0.000283509
0.000283442
0.000283252
0.000283327
0.00028326
0.000283133
0.000283144
0.000283074
0.000283122
0.000283133
0.000282951
0.000282981
0.00028285
0.000282791
0.000282738
0.000282776
0.00028272
0.000282615
0.000282612
0.000282612
0.000282552
0.000282422
0.000282329
0.000282433
0.000282347
0.000282355
0.000282262
0.000282306
0.000282206
0.000282153
0.000282105
0.000281997
0.000282038
0.000281982
0.000281911
0.000281911
0.000281792
0.000281844
0.000281751
0.000281826
0.000281774
0.000281613
0.000281688
0.000281643
0.00028158
0.000281516
0.000281546
0.000281557
0.000281457
0.000281453
0.000281498
0.000281442
0.000281379
0.000281449
0.000281181
0.000281226
0.000281245
0.000281211
0.000281211
0.000281181
0.000281237
0.000281148
0.000281099
0.000281151
0.000281092
0.000281017
0.000281006
0.000280943
0.000280965
0.00028101
0.000280976
0.000280958
0.000280883
0.000281025
0.000280939
0.000280958
0.000280965
0.000280932
0.000280842
0.000280805
0.000280894
0.000280876
0.000280853
0.000280794
0.000280764
0.000280786
0.000280831
0.000280824
0.00028079
0.000280716
0.000280749
0.00025532
0.000255331
0.000255223
0.000255261
0.000255208
0.000255156
0.000255097
0.00025516
0.000255141
0.000255112
0.000255022
0.000254963
0.000255082
0.000255033
0.000254884
0.000254858
0.000254918
0.000254896
0.000254791
0.00025478
0.000254743
0.000254825
0.000254821
0.000254672
0.000254724
0.000254776
0.000254694
0.000254609
0.000254575
0.000254612
0.000254501
0.00025453
0.000254497
0.000254553
0.000254381
0.000254422
0.000254575
0.000254404
0.000254449
0.000254404
0.000254419
0.000254396
0.000254292
0.000254352
0.000254255
0.000254348
0.000254247
0.000254355
0.000254285
0.000254225
0.000254285
0.000254147
0.00025418
0.000254165
0.000254158
0.000254165
0.000254173
0.000254199
0.00025411
0.000254076
0.000254057
0.000254098
0.000254139
0.000254076
0.000254016
0.000254028
0.000254069
0.000254069
0.000253946
0.000253987
0.000254035
0.000253953
0.000253972
0.000253987
0.000253905
0.000253908
0.00025392
0.000253934
0.000254005
0.000253949
0.000253972
0.000253931
0.000253968
0.000253808
0.000253826
0.0002538
0.00025383
0.000253826
0.000253897
0.000253912
0.000253879
0.00025389
0.000253908
0.000253834
0.000253763
0.000253785
0.000253882
0.000253778
0.00025389
0.000253882
0.00025389
0.000160802
0.000160735
0.000160757
0.000160895
0.000160918
0.000160884
0.000160955
0.000160944
0.000160988
0.00016107
0.000161029
0.000161078
0.000161089
0.000161119
0.00016113
0.000161197
0.00016119
0.000161182
0.000161212
0.000161294
0.000161324
0.000161353
0.000161279
0.000161394
0.000161398
0.000161443
0.000161413
0.000161454
0.000161503
0.000161398
0.000161473
0.000161488
0.000161577
0.000161488
0.000161551
0.000161506
0.000161711
0.000161611
0.000161666
0.000161611
0.000161726
0.000161704
0.000161678
0.000161763
0.000161674
0.000161789
0.000161815
0.000161849
0.000161875
0.000161875
0.000161838
0.00016186
0.000161823
0.000161845
0.00016186
0.00016195
0.000161875
0.00016189
0.00016189
0.00016189
0.00016186
0.000161897
0.000161927
0.00016189
0.000162032
0.000162005
0.000162024
0.00016195
0.000162032
0.000162032
0.000162032
0.000162002
0.000162091
0.000162046
0.000161972
0.000162158
0.000162009
0.000162035
0.000162099
0.000162024
0.000162106
0.000162099
0.000162143
0.000162095
0.000162039
0.000162084
0.000162084
0.000162143
0.000162225
0.00016221
0.000162188
0.000162158
0.00016221
0.000162218
0.000162218
0.000162147
0.000162158
0.000162158
0.000162225
0.000162184
0.000162166
4.90323e-05
4.91962e-05
4.92074e-05
4.91366e-05
4.92595e-05
4.93415e-05
4.93787e-05
4.93787e-05
4.94309e-05
4.94458e-05
4.95724e-05
4.95724e-05
4.95575e-05
4.9606e-05
4.97438e-05
4.9755e-05
4.97177e-05
4.97848e-05
4.98332e-05
4.9863e-05
4.99561e-05
4.99748e-05
5.00269e-05
5.00344e-05
5.00865e-05
5.01163e-05
5.01275e-05
5.01908e-05
5.02281e-05
5.03026e-05
5.02542e-05
5.031e-05
5.02951e-05
5.03697e-05
5.04069e-05
5.04032e-05
5.03287e-05
5.04442e-05
5.04889e-05
5.04889e-05
5.04777e-05
5.05932e-05
5.05559e-05
5.06081e-05
5.06379e-05
5.05932e-05
5.05932e-05
5.06677e-05
5.07273e-05
5.07422e-05
5.07198e-05
5.08465e-05
5.08018e-05
5.08241e-05
5.07943e-05
5.0839e-05
5.08465e-05
5.09135e-05
5.09061e-05
5.09806e-05
5.09247e-05
5.0988e-05
5.09433e-05
5.09843e-05
5.10104e-05
5.09433e-05
5.10179e-05
5.10588e-05
5.107e-05
5.09843e-05
5.10328e-05
5.10551e-05
5.10253e-05
5.11147e-05
5.10998e-05
5.107e-05
5.10775e-05
5.11073e-05
5.11445e-05
5.10924e-05
5.11222e-05
5.10924e-05
5.11743e-05
5.11445e-05
5.11371e-05
5.11892e-05
5.11743e-05
5.11818e-05
5.11184e-05
5.11147e-05
5.10477e-05
5.11743e-05
5.11669e-05
5.11594e-05
5.11073e-05
5.11222e-05
5.10849e-05
5.11222e-05
5.1111e-05
5.11035e-05
5.10998e-05
-8.82894e-07
-8.97795e-07
-7.89762e-07
-8.08388e-07
-8.3819e-07
-7.78586e-07
-7.78586e-07
-7.30157e-07
-6.92904e-07
-6.81728e-07
-6.44475e-07
-6.59376e-07
-6.22123e-07
-5.7742e-07
-5.40167e-07
-6.51926e-07
-5.02914e-07
-5.55068e-07
-5.32717e-07
-5.25266e-07
-3.94881e-07
-4.5076e-07
-3.83705e-07
-4.02331e-07
-4.17233e-07
-3.241e-07
-3.20375e-07
-3.241e-07
-3.05474e-07
-2.83122e-07
-2.42144e-07
-2.94298e-07
-2.23517e-07
-1.56462e-07
-1.75089e-07
-1.30385e-07
-1.67638e-07
-1.71363e-07
-1.15484e-07
-1.82539e-07
-7.82311e-08
-7.82311e-08
-1.15484e-07
-1.15484e-07
-3.35276e-08
-4.84288e-08
-3.35276e-08
1.11759e-08
-5.21541e-08
-4.84288e-08
3.72529e-09
1.86265e-08
3.35276e-08
-1.86265e-08
7.45058e-09
1.86265e-08
6.33299e-08
7.07805e-08
4.09782e-08
6.33299e-08
5.58794e-08
-3.72529e-09
8.56817e-08
5.58794e-08
6.70552e-08
1.08033e-07
8.56817e-08
6.33299e-08
1.15484e-07
8.56817e-08
1.63913e-07
5.58794e-08
1.67638e-07
1.45286e-07
4.47035e-08
9.68575e-08
7.82311e-08
5.96046e-08
7.07805e-08
1.00583e-07
7.07805e-08
8.56817e-08
1.15484e-07
7.07805e-08
6.33299e-08
6.33299e-08
3.72529e-09
4.09782e-08
4.84288e-08
7.45058e-08
-3.72529e-09
3.35276e-08
1.11759e-08
3.72529e-08
-5.58794e-08
-6.33299e-08
-4.09782e-08
-5.58794e-08
-1.11759e-08
-3.72529e-08
-5.96046e-08
3.12887e-05
3.1326e-05
3.12589e-05
3.12887e-05
3.12738e-05
3.12813e-05
3.12962e-05
3.12664e-05
3.12738e-05
3.12552e-05
3.12366e-05
3.11881e-05
3.12254e-05
3.12664e-05
3.11844e-05
3.12477e-05
3.12142e-05
3.12328e-05
3.12068e-05
3.11919e-05
3.12179e-05
3.11993e-05
3.11621e-05
3.11919e-05
3.1203e-05
3.11621e-05
3.12068e-05
3.11397e-05
3.12179e-05
3.1244e-05
3.11472e-05
3.11248e-05
3.11099e-05
3.11509e-05
3.11621e-05
3.11658e-05
3.11397e-05
3.12217e-05
3.11583e-05
3.1177e-05
3.11323e-05
3.11173e-05
3.1136e-05
3.11211e-05
3.10615e-05
3.11024e-05
3.10577e-05
3.1095e-05
3.10354e-05
3.1095e-05
3.10801e-05
3.10764e-05
3.10652e-05
3.11099e-05
3.10726e-05
3.10726e-05
3.10466e-05
3.10577e-05
3.10652e-05
3.10428e-05
3.1095e-05
3.10503e-05
3.10279e-05
3.10875e-05
3.10689e-05
3.10354e-05
3.09907e-05
3.09907e-05
3.09683e-05
3.09981e-05
3.10652e-05
3.10205e-05
3.10205e-05
3.09907e-05
3.09497e-05
3.09609e-05
3.09423e-05
3.09609e-05
3.09534e-05
3.09311e-05
3.09385e-05
3.08789e-05
3.09683e-05
3.0946e-05
3.08938e-05
3.0946e-05
3.08938e-05
3.08864e-05
3.09348e-05
3.08715e-05
3.09236e-05
3.08566e-05
3.08789e-05
3.09087e-05
3.08715e-05
3.08864e-05
3.08715e-05
3.07597e-05
3.08417e-05
3.08342e-05
3.08342e-05
0.000119038
0.000119057
0.00011906
0.000119004
0.000118982
0.00011896
0.000119019
0.000118908
0.000118859
0.000118867
0.000118803
0.000118807
0.000118755
0.000118773
0.000118714
0.000118684
0.000118662
0.000118714
0.000118624
0.000118595
0.000118602
0.000118628
0.000118583
0.000118546
0.000118513
0.000118461
0.000118461
0.000118423
0.000118438
0.000118446
0.000118386
0.000118408
0.000118364
0.000118386
0.0001183
0.000118304
0.000118304
0.000118326
0.000118282
0.000118289
0.000118211
0.000118267
0.000118222
0.000118196
0.0001182
0.000118133
0.00011814
0.00011817
0.000118181
0.000118125
0.000118084
0.000118069
0.000118058
0.00011804
0.000118054
0.000118036
0.000118058
0.000118021
0.000118036
0.000118058
0.000118002
0.000117976
0.000118017
0.000117999
0.000118025
0.000117954
0.000117984
0.00011804
0.000117946
0.000117958
0.000117954
0.000117917
0.000117946
0.000117969
0.00011795
0.000117972
0.00011792
0.000117939
0.00011785
0.000117909
0.000117932
0.000117894
0.000117917
0.000117909
0.000117879
0.000117932
0.000117879
0.000118006
0.000117898
0.000117939
0.000117876
0.000117894
0.000117946
0.000117946
0.000117946
0.000117935
0.000117946
0.000117943
0.000117946
0.000117946
0.000117872
0.000223327
0.000223264
0.000223231
0.000223171
0.000223182
0.000223141
0.00022313
0.000223
0.000223033
0.000223
0.000222959
0.000222962
0.00022288
0.000222892
0.000222813
0.000222787
0.000222735
0.000222754
0.000222664
0.000222664
0.00022259
0.000222605
0.000222534
0.000222504
0.000222545
0.000222486
0.000222508
0.000222459
0.000222348
0.000222411
0.000222426
0.000222366
0.000222337
0.000222269
0.000222247
0.000222314
0.000222262
0.000222258
0.000222247
0.000222217
0.000222217
0.000222135
0.000222143
0.000222113
0.000222098
0.000222098
0.000222079
0.000222083
0.000222027
0.000222117
0.000221971
0.000222053
0.000221983
0.000222035
0.000222024
0.000221953
0.000221994
0.000221994
0.000221968
0.000221971
0.000221897
0.000221968
0.000221934
0.000221957
0.000221964
0.000222016
0.000221908
0.000221979
0.000221994
0.000221997
0.000221964
0.000221957
0.000221983
0.000221949
0.000221912
0.000222012
0.000221964
0.000221968
0.000221986
0.000221964
0.000221979
0.000222001
0.00022202
0.000221971
0.000222001
0.000222031
0.000222016
0.000222094
0.000222087
0.000222061
0.000222106
0.000222109
0.000222091
0.00022215
0.000222143
0.000222154
0.000222143
0.000222232
0.000222187
0.000222187
0.000222221
0.000307426
0.000307433
0.000307396
0.000307284
0.00030731
0.000307221
0.00030724
0.00030721
0.00030718
0.00030705
0.000307079
0.000307038
0.000306949
0.000307001
0.00030696
0.00030696
0.000306915
0.000306804
0.00030686
0.000306774
0.000306796
0.000306737
0.000306722
0.000306737
0.000306685
0.000306681
0.000306681
0.000306685
0.00030664
0.000306565
0.000306562
0.000306569
0.000306524
0.000306513
0.000306528
0.000306454
0.000306431
0.000306413
0.000306424
0.000306387
0.000306394
0.000306446
0.000306372
0.000306372
0.000306424
0.000306431
0.000306375
0.000306364
0.000306401
0.000306435
0.00030636
0.000306327
0.000306338
0.000306372
0.000306271
0.000306346
0.000306308
0.000306353
0.000306357
0.000306334
0.000306349
0.000306312
0.000306368
0.000306413
0.000306372
0.000306387
0.00030639
0.000306364
0.000306349
0.000306416
0.000306424
0.000306461
0.000306509
0.000306394
0.000306461
0.00030642
0.000306468
0.000306513
0.000306536
0.000306554
0.000306528
0.000306547
0.000306603
0.000306617
0.000306595
0.000306647
0.000306677
0.000306696
0.000306714
0.000306789
0.000306752
0.000306781
0.000306811
0.00030686
0.000306819
0.000306848
0.000306897
0.000306975
0.000306945
0.000306975
0.000307042
0.000342518
0.000342485
0.000342414
0.000342403
0.000342365
0.000342395
0.000342313
0.000342328
0.000342343
0.00034228
0.000342239
0.00034222
0.000342149
0.000342198
0.000342179
0.000342146
0.000342138
0.000342134
0.000342116
0.000342071
0.000342097
0.000342056
0.000342
0.000342034
0.000342011
0.000342004
0.000342075
0.000341944
0.000341974
0.000342008
0.000341993
0.000341926
0.000342
0.000341915
0.000341915
0.000341929
0.000341896
0.000341922
0.000341959
0.000341941
0.000341881
0.000341903
0.000341944
0.000341907
0.000341877
0.000341885
0.000341929
0.000341937
0.000341889
0.000341944
0.000341933
0.000341989
0.000341963
0.000341903
0.000341989
0.000341982
0.000341997
0.000341963
0.000341989
0.000341974
0.000342023
0.000342015
0.000342019
0.000341993
0.000342138
0.000342064
0.000342097
0.000342138
0.000342134
0.000342149
0.000342172
0.000342231
0.000342254
0.00034225
0.000342287
0.000342309
0.000342347
0.000342339
0.000342343
0.000342324
0.000342414
0.000342436
0.000342432
0.000342518
0.000342473
0.000342563
0.000342559
0.000342552
0.000342626
0.000342652
0.000342712
0.000342753
0.00034273
0.000342797
0.000342868
0.000342805
0.000342928
0.000342906
0.000343006
0.000343043
0.00034301
0.000311889
0.000311904
0.000311844
0.000311848
0.000311833
0.000311863
0.00031187
0.000311844
0.000311814
0.000311796
0.000311758
0.000311784
0.000311796
0.000311777
0.000311736
0.000311743
0.000311762
0.000311777
0.000311811
0.000311725
0.000311781
0.00031177
0.00031184
0.000311792
0.00031177
0.000311766
0.000311758
0.00031174
0.000311796
0.000311811
0.000311714
0.000311766
0.000311829
0.000311743
0.000311807
0.000311777
0.000311814
0.000311825
0.000311814
0.000311844
0.00031193
0.000311829
0.000311881
0.0003119
0.000311911
0.000311881
0.000311878
0.00031193
0.00031193
0.000311967
0.000311967
0.000311956
0.000311989
0.000312053
0.000312056
0.000312053
0.000312079
0.000312105
0.00031212
0.000312086
0.000312194
0.000312205
0.000312261
0.000312235
0.000312276
0.000312276
0.000312336
0.000312317
0.000312343
0.000312347
0.000312436
0.000312392
0.000312496
0.000312507
0.000312567
0.000312481
0.000312593
0.000312604
0.000312649
0.000312656
0.00031269
0.000312664
0.00031276
0.000312801
0.000312828
0.000312895
0.000312887
0.000312962
0.000312928
0.000312962
0.000313081
0.000313066
0.000313126
0.000313133
0.000313159
0.000313222
0.000313237
0.000313271
0.00031333
0.000313397
0.000313435
0.000214372
0.000214364
0.00021432
0.00021439
0.000214368
0.000214409
0.000214394
0.000214405
0.000214364
0.000214368
0.000214417
0.000214417
0.000214402
0.000214394
0.000214383
0.000214413
0.000214431
0.000214439
0.000214491
0.000214484
0.00021448
0.000214506
0.000214525
0.000214495
0.000214599
0.000214573
0.000214551
0.00021458
0.000214625
0.000214685
0.000214659
0.000214618
0.000214715
0.000214681
0.000214718
0.000214648
0.000214737
0.000214797
0.000214763
0.000214756
0.000214737
0.000214819
0.000214826
0.000214886
0.000214897
0.000214938
0.000214946
0.000214953
0.000214942
0.000214994
0.000215046
0.000215091
0.000215016
0.000215121
0.000215191
0.000215169
0.00021515
0.000215255
0.000215158
0.000215225
0.000215296
0.000215277
0.000215389
0.000215337
0.000215366
0.000215448
0.0002154
0.000215486
0.000215534
0.000215538
0.000215556
0.000215597
0.000215631
0.000215713
0.000215717
0.000215761
0.000215795
0.000215802
0.00021581
0.000215858
0.000215899
0.000215936
0.000215981
0.00021597
0.000216044
0.000216082
0.000216108
0.000216149
0.00021619
0.000216234
0.000216268
0.00021632
0.000216316
0.000216391
0.000216387
0.000216439
0.000216484
0.000216529
0.000216536
0.000216644
0.000216614
6.34864e-05
6.35833e-05
6.35386e-05
6.35311e-05
6.35795e-05
6.35646e-05
6.35833e-05
6.36317e-05
6.3654e-05
6.35944e-05
6.36131e-05
6.36913e-05
6.37472e-05
6.37248e-05
6.3803e-05
6.38254e-05
6.38105e-05
6.38776e-05
6.38515e-05
6.3844e-05
6.38776e-05
6.39446e-05
6.38515e-05
6.38776e-05
6.39446e-05
6.40303e-05
6.39521e-05
6.40601e-05
6.40079e-05
6.40936e-05
6.40638e-05
6.41234e-05
6.41644e-05
6.41979e-05
6.42203e-05
6.41569e-05
6.41979e-05
6.42501e-05
6.42724e-05
6.43507e-05
6.42762e-05
6.43507e-05
6.44438e-05
6.44065e-05
6.44177e-05
6.44401e-05
6.4496e-05
6.45556e-05
6.44848e-05
6.45593e-05
6.45891e-05
6.46077e-05
6.46375e-05
6.47232e-05
6.47493e-05
6.46748e-05
6.48163e-05
6.48014e-05
6.48424e-05
6.48983e-05
6.49132e-05
6.48946e-05
6.49281e-05
6.4984e-05
6.50063e-05
6.50398e-05
6.50734e-05
6.50771e-05
6.51218e-05
6.51181e-05
6.52112e-05
6.5174e-05
6.52522e-05
6.52857e-05
6.53304e-05
6.53751e-05
6.53341e-05
6.5431e-05
6.54645e-05
6.55092e-05
6.54943e-05
6.55688e-05
6.55316e-05
6.55986e-05
6.56433e-05
6.56545e-05
6.57439e-05
6.57737e-05
6.5811e-05
6.58371e-05
6.58818e-05
6.59041e-05
6.58967e-05
6.60233e-05
6.60382e-05
6.60382e-05
6.60866e-05
6.61202e-05
6.61537e-05
6.61872e-05
6.62357e-05
-0.000112452
-0.000112399
-0.000112396
-0.000112411
-0.000112318
-0.00011237
-0.000112269
-0.000112303
-0.000112209
-0.000112243
-0.00011218
-0.00011212
-0.000112057
-0.000112094
-0.000112094
-0.000112075
-0.000112046
-0.000112057
-0.000111982
-0.000111975
-0.000111949
-0.000111926
-0.000111863
-0.000111841
-0.000111811
-0.000111833
-0.000111748
-0.000111733
-0.000111792
-0.000111736
-0.000111729
-0.000111669
-0.000111643
-0.000111677
-0.000111654
-0.000111628
-0.00011158
-0.000111546
-0.000111494
-0.000111524
-0.000111479
-0.000111479
-0.000111412
-0.000111435
-0.000111315
-0.00011136
-0.000111338
-0.0001113
-0.000111323
-0.000111219
-0.000111256
-0.000111248
-0.000111137
-0.000111204
-0.00011117
-0.00011114
-0.000111081
-0.00011104
-0.000111006
-0.000111092
-0.000111047
-0.000110958
-0.000110973
-0.000110809
-0.000110943
-0.000110891
-0.000110824
-0.000110786
-0.000110779
-0.000110801
-0.000110772
-0.000110745
-0.000110693
-0.000110708
-0.000110693
-0.000110596
-0.000110593
-0.000110585
-0.000110563
-0.000110514
-0.000110526
-0.000110488
-0.000110451
-0.000110455
-0.000110421
-0.000110362
-0.000110377
-0.000110369
-0.000110298
-0.00011031
-0.000110287
-0.000110265
-0.00011025
-0.00011022
-0.00011022
-0.000110179
-0.00011019
-0.000110108
-0.000110138
-0.000110086
-0.000110101
-0.000270005
-0.000269994
-0.000269972
-0.00026992
-0.000269953
-0.000269905
-0.000269834
-0.000269782
-0.000269737
-0.000269715
-0.000269722
-0.000269722
-0.000269648
-0.000269607
-0.00026961
-0.000269633
-0.000269603
-0.000269588
-0.000269592
-0.000269566
-0.000269581
-0.000269469
-0.000269443
-0.000269547
-0.00026945
-0.000269439
-0.000269473
-0.000269432
-0.000269402
-0.000269409
-0.000269312
-0.000269365
-0.000269294
-0.000269353
-0.000269271
-0.000269253
-0.000269286
-0.000269242
-0.000269208
-0.000269193
-0.000269245
-0.000269201
-0.000269208
-0.000269238
-0.000269208
-0.000269186
-0.000269197
-0.000269148
-0.000269163
-0.00026916
-0.000269119
-0.000269074
-0.000269141
-0.000269089
-0.000269115
-0.000269108
-0.000269074
-0.000269007
-0.000268999
-0.000269081
-0.00026904
-0.000269052
-0.00026907
-0.000269059
-0.000269011
-0.000269052
-0.000268985
-0.000269063
-0.000268977
-0.000268985
-0.000269018
-0.000269044
-0.000269018
-0.000268962
-0.00026897
-0.000268999
-0.000268985
-0.000269018
-0.000269011
-0.000269011
-0.000269081
-0.000268992
-0.000269033
-0.000269067
-0.000269052
-0.000269037
-0.000269096
-0.000269044
-0.000269044
-0.000269074
-0.000269014
-0.000269115
-0.000269096
-0.000269048
-0.000269052
-0.000269122
-0.000269115
-0.000269111
-0.000269186
-0.000269137
-0.000269148
-0.000353288
-0.000353247
-0.000353202
-0.000353217
-0.000353195
-0.000353124
-0.00035312
-0.000353128
-0.000353172
-0.000353128
-0.000353109
-0.000353064
-0.00035302
-0.000353068
-0.000353064
-0.000353049
-0.000353083
-0.000353035
-0.000352994
-0.000352968
-0.000352975
-0.000352979
-0.000353016
-0.000352968
-0.00035299
-0.000352979
-0.000352964
-0.000353042
-0.000352971
-0.000353005
-0.000353005
-0.000352997
-0.000352982
-0.000352968
-0.000353023
-0.000353009
-0.000352938
-0.000353049
-0.000353023
-0.000353046
-0.000353094
-0.000353117
-0.00035315
-0.000353102
-0.000353154
-0.00035318
-0.000353221
-0.000353206
-0.000353165
-0.000353206
-0.000353228
-0.000353295
-0.000353254
-0.000353325
-0.000353266
-0.000353344
-0.000353351
-0.000353422
-0.000353467
-0.000353429
-0.000353489
-0.000353511
-0.000353545
-0.000353534
-0.000353612
-0.000353623
-0.00035372
-0.00035369
-0.000353772
-0.00035378
-0.000353832
-0.000353824
-0.000353865
-0.000353917
-0.000354011
-0.000353936
-0.000353985
-0.000354033
-0.000354052
-0.000354137
-0.000354175
-0.000354279
-0.000354264
-0.000354346
-0.000354428
-0.000354454
-0.000354473
-0.00035448
-0.000354584
-0.00035461
-0.000354614
-0.0003547
-0.000354789
-0.000354882
-0.00035483
-0.000354953
-0.000354964
-0.000355013
-0.000355136
-0.000355221
-0.000355206
-0.0003049
-0.000304837
-0.00030487
-0.000304896
-0.000304885
-0.000304881
-0.0003048
-0.000304874
-0.000304881
-0.000304881
-0.000304911
-0.000304911
-0.000304915
-0.000304867
-0.000304949
-0.000304922
-0.000304975
-0.00030496
-0.000304975
-0.000305004
-0.000304975
-0.000304986
-0.000305071
-0.000305098
-0.00030506
-0.000305135
-0.000305135
-0.00030518
-0.000305258
-0.000305209
-0.00030528
-0.000305299
-0.000305302
-0.000305388
-0.000305403
-0.00030547
-0.000305403
-0.000305489
-0.00030553
-0.000305511
-0.000305649
-0.000305649
-0.00030569
-0.000305764
-0.000305824
-0.00030579
-0.000305891
-0.000305943
-0.000306055
-0.000306167
-0.000306141
-0.000306193
-0.000306275
-0.000306286
-0.000306431
-0.000306461
-0.000306521
-0.00030655
-0.000306651
-0.000306766
-0.000306733
-0.000306863
-0.000306908
-0.000306983
-0.000307042
-0.000307094
-0.000307266
-0.000307329
-0.00030734
-0.000307418
-0.000307485
-0.000307601
-0.000307661
-0.000307772
-0.000307903
-0.000307921
-0.000308048
-0.000308093
-0.00030816
-0.000308294
-0.000308402
-0.00030848
-0.000308514
-0.000308618
-0.000308719
-0.000308812
-0.000308946
-0.000309061
-0.000309166
-0.00030924
-0.000309382
-0.000309434
-0.000309538
-0.000309683
-0.000309821
-0.000309911
-0.000309974
-0.000310075
-0.000310123
-0.000310313
-0.00031038
-8.4009e-05
-8.41469e-05
-8.41059e-05
-8.41357e-05
-8.41282e-05
-8.41878e-05
-8.42325e-05
-8.424e-05
-8.42512e-05
-8.42437e-05
-8.43108e-05
-8.43145e-05
-8.4389e-05
-8.44337e-05
-8.45119e-05
-8.44561e-05
-8.45641e-05
-8.45157e-05
-8.45976e-05
-8.4687e-05
-8.47392e-05
-8.47057e-05
-8.48211e-05
-8.48956e-05
-8.48733e-05
-8.49627e-05
-8.50447e-05
-8.5149e-05
-8.51788e-05
-8.52235e-05
-8.52011e-05
-8.53315e-05
-8.54172e-05
-8.54693e-05
-8.55178e-05
-8.55513e-05
-8.56742e-05
-8.57599e-05
-8.58121e-05
-8.58754e-05
-8.60132e-05
-8.60877e-05
-8.61362e-05
-8.62107e-05
-8.63336e-05
-8.63969e-05
-8.65571e-05
-8.66093e-05
-8.66391e-05
-8.66912e-05
-8.68551e-05
-8.69446e-05
-8.69893e-05
-8.70563e-05
-8.72277e-05
-8.73432e-05
-8.74661e-05
-8.74959e-05
-8.76226e-05
-8.77045e-05
-8.78088e-05
-8.79057e-05
-8.80472e-05
-8.81441e-05
-8.82484e-05
-8.84272e-05
-8.84607e-05
-8.8606e-05
-8.86731e-05
-8.8837e-05
-8.90084e-05
-8.9068e-05
-8.91723e-05
-8.93362e-05
-8.94703e-05
-8.95523e-05
-8.96938e-05
-8.98615e-05
-8.99993e-05
-9.00961e-05
-9.02005e-05
-9.03271e-05
-9.05208e-05
-9.06102e-05
-9.07853e-05
-9.09679e-05
-9.10722e-05
-9.11765e-05
-9.13627e-05
-9.14671e-05
-9.1657e-05
-9.18247e-05
-9.18992e-05
-9.21525e-05
-9.21972e-05
-9.2376e-05
-9.25623e-05
-9.27411e-05
-9.28603e-05
-9.29981e-05
-9.3203e-05
0.000311524
0.000311386
0.000311401
0.00031136
0.000311337
0.000311267
0.000311207
0.000311147
0.000311147
0.000311065
0.000310987
0.000310902
0.000310894
0.00031079
0.000310756
0.000310641
0.000310708
0.000310589
0.000310458
0.00031044
0.000310317
0.000310231
0.000310156
0.000310052
0.000310075
0.000309959
0.000309929
0.000309814
0.000309765
0.00030965
0.000309516
0.000309482
0.000309404
0.000309259
0.000309136
0.000309069
0.000309046
0.000308909
0.000308868
0.000308719
0.00030857
0.000308495
0.000308413
0.000308309
0.000308204
0.000308108
0.000307959
0.000307892
0.000307735
0.000307694
0.000307459
0.000307355
0.000307247
0.000307132
0.000307053
0.000306912
0.000306826
0.000306685
0.000306595
0.000306454
0.000306275
0.000306115
0.000306088
0.000305943
0.000305805
0.000305668
0.000305552
0.000305351
0.000305261
0.000305135
0.000304986
0.000304822
0.000304699
0.000304524
0.000304405
0.000304244
0.000304129
0.000303987
0.000303771
0.000303596
0.000303473
0.000303309
0.00030319
0.000302993
0.00030278
0.000302631
0.000302497
0.000302333
0.000302151
0.000301953
0.000301819
0.000301648
0.000301514
0.00030129
0.000301164
0.000300985
0.000300843
0.000300575
0.000300486
0.000300281
0.000300046
0.000818055
0.000817943
0.000817936
0.000817895
0.000817843
0.000817779
0.000817683
0.000817623
0.000817608
0.000817496
0.00081744
0.000817392
0.000817332
0.000817202
0.000817101
0.00081712
0.000817012
0.000816982
0.000816915
0.000816789
0.000816673
0.00081661
0.000816543
0.00081645
0.000816289
0.000816263
0.000816267
0.00081614
0.000816014
0.000815928