/*--------------------------------*- C++ -*----------------------------------*\
| =========                 |                                                 |
| \\      /  F ield         | OpenFOAM: The Open Source CFD Toolbox           |
|  \\    /   O peration     | Version:  v2006                                 |
|   \\  /    A nd           | Website:  www.openfoam.com                      |
|    \\/     M anipulation  |                                                 |
\*---------------------------------------------------------------------------*/
FoamFile
{
    version     2.0;
    format      ascii;
    class       surfaceScalarField;
    location    "11.3";
    object      phi;
}
// * * * * * * * * * * * * * * * * * * * * * * * * * * * * * * * * * * * * * //

dimensions      [0 3 -1 0 0 0 0];
oriented        oriented;


internalField   nonuniform List<scalar> 
104500
(
4.49226e-05
-4.49226e-05
9.95646e-05
-5.4642e-05
0.000151884
-5.23199e-05
0.000201735
-4.98501e-05
0.000250827
-4.90921e-05
0.000299729
-4.89019e-05
0.000348509
-4.87808e-05
0.000397109
-4.85991e-05
0.00044547
-4.83617e-05
0.000493568
-4.80978e-05
0.00054139
-4.78215e-05
0.000588926
-4.75361e-05
0.000636167
-4.72418e-05
0.000683111
-4.69432e-05
0.00072975
-4.66395e-05
0.000776084
-4.63335e-05
0.000822105
-4.60211e-05
0.00086781
-4.57053e-05
0.000913196
-4.5386e-05
0.000958257
-4.50609e-05
0.00100298
-4.47243e-05
0.00104736
-4.43814e-05
0.00109139
-4.40274e-05
0.00113505
-4.36605e-05
0.00117833
-4.32806e-05
0.00122121
-4.2883e-05
0.00126368
-4.24688e-05
0.00130572
-4.20371e-05
0.00134731
-4.1589e-05
0.00138843
-4.11236e-05
0.00142907
-4.06423e-05
0.00146922
-4.01423e-05
0.00150884
-3.96218e-05
0.00154792
-3.90768e-05
0.00158642
-3.85028e-05
0.00162431
-3.78922e-05
0.00166155
-3.72406e-05
0.0016981
-3.6553e-05
0.00173394
-3.58373e-05
0.00176905
-3.51056e-05
0.00180342
-3.43701e-05
0.00183706
-3.36403e-05
0.00186998
-3.29217e-05
0.00190219
-3.22139e-05
0.0019337
-3.15106e-05
0.0019645
-3.07985e-05
0.00199457
-3.00682e-05
0.00202389
-2.93186e-05
0.00205245
-2.8562e-05
0.00208028
-2.7829e-05
0.00210745
-2.71671e-05
0.00213408
-2.66289e-05
0.00216033
-2.62575e-05
0.0021864
-2.60704e-05
0.00221246
-2.60532e-05
0.00223862
-2.61654e-05
0.00226497
-2.63507e-05
0.00229153
-2.65536e-05
0.00231826
-2.67304e-05
0.00234511
-2.68537e-05
0.00237202
-2.69108e-05
0.00239892
-2.6899e-05
0.00242574
-2.68211e-05
0.00245242
-2.66825e-05
0.00247891
-2.64895e-05
0.00250516
-2.62483e-05
0.00253113
-2.59649e-05
0.00255677
-2.56446e-05
0.00258206
-2.52915e-05
0.00260697
-2.49092e-05
0.00263147
-2.44996e-05
0.00265554
-2.40641e-05
0.00267914
-2.36035e-05
0.00270226
-2.312e-05
0.00272488
-2.26166e-05
0.00274697
-2.20979e-05
0.00276854
-2.15692e-05
0.00278958
-2.10356e-05
0.00281008
-2.05015e-05
0.00283005
-1.99689e-05
0.00284949
-1.94378e-05
0.00286839
-1.89054e-05
0.00288676
-1.83672e-05
0.00290458
-1.78178e-05
0.00292183
-1.72517e-05
0.00293849
-1.6665e-05
0.00295455
-1.60556e-05
0.00296997
-1.54241e-05
0.00298475
-1.47732e-05
0.00299885
-1.41074e-05
0.00301229
-1.34317e-05
0.00302504
-1.27512e-05
0.00303711
-1.20703e-05
0.0030485
-1.13925e-05
0.00305922
-1.07204e-05
0.00306928
-1.00555e-05
0.00307867
-9.39872e-06
0.00308743
-8.75067e-06
0.00309554
-8.11155e-06
0.00310302
-7.48148e-06
0.00310988
-6.86045e-06
0.00311613
-6.24842e-06
0.00312177
-5.64531e-06
0.00312682
-5.05103e-06
0.00313129
-4.46553e-06
0.00313518
-3.88881e-06
0.0031385
-3.3209e-06
0.00314126
-2.76171e-06
0.00314347
-2.21076e-06
0.00314514
-1.66688e-06
0.00314627
-1.1333e-06
0.00314688
-6.06447e-07
0.00314696
-8.19927e-08
0.00314652
4.43806e-07
0.00314555
9.6431e-07
0.00314408
1.47242e-06
0.00314211
1.96666e-06
0.00313967
2.44522e-06
0.00313676
2.90852e-06
0.0031334
3.3568e-06
0.00312961
3.79158e-06
0.0031254
4.21248e-06
0.00312078
4.6201e-06
0.00311576
5.01524e-06
0.00311037
5.39736e-06
0.0031046
5.76785e-06
0.00309847
6.12662e-06
0.003092
6.47392e-06
0.00308519
6.81011e-06
0.00307805
7.13537e-06
0.0030706
7.44935e-06
0.00306285
7.75366e-06
0.0030548
8.04879e-06
0.00304647
8.3339e-06
0.00303786
8.60989e-06
0.00302898
8.8763e-06
0.00301985
9.13115e-06
0.00301048
9.37023e-06
0.00300089
9.5892e-06
0.00299111
9.78114e-06
0.00298117
9.94116e-06
0.0029711
1.00679e-05
0.00296093
1.01707e-05
0.00295066
1.02678e-05
0.00294027
1.03858e-05
0.00292972
1.05545e-05
0.00291892
1.08014e-05
0.00290778
1.11431e-05
0.00289619
1.15806e-05
0.0028841
1.20985e-05
0.00287143
1.26692e-05
0.00285817
1.32614e-05
0.00284432
1.38481e-05
0.0028299
1.44137e-05
0.00281495
1.49549e-05
0.00279947
1.54783e-05
0.00278347
1.59972e-05
0.00276695
1.65279e-05
0.00274986
1.70876e-05
0.00273216
1.76941e-05
0.0027138
1.83608e-05
0.00269472
1.90787e-05
0.00267493
1.97955e-05
0.00265451
2.0422e-05
0.00263363
2.08739e-05
0.00261252
2.11172e-05
0.00259134
2.11774e-05
0.00257023
2.11086e-05
0.00254928
2.09516e-05
0.00252857
2.07078e-05
0.00250821
2.03557e-05
0.00248834
1.98741e-05
0.00246913
1.92106e-05
0.0024508
1.83339e-05
0.00243354
1.72519e-05
0.00241752
1.60212e-05
0.00240279
1.47371e-05
0.00238928
1.3506e-05
0.00237687
1.24127e-05
0.00236537
1.15013e-05
0.00235459
1.07743e-05
0.00234439
1.0206e-05
0.00233463
9.75829e-06
0.00232523
9.39288e-06
0.00231616
9.07738e-06
0.00230737
8.78697e-06
0.00229887
8.50357e-06
0.00229065
8.2143e-06
0.00228274
7.91011e-06
0.00227516
7.58463e-06
0.00226792
7.23308e-06
0.00226107
6.85134e-06
0.00225464
6.43515e-06
0.00224866
5.98024e-06
0.00224318
5.48194e-06
0.00223824
4.93454e-06
0.00223391
4.33292e-06
0.00223023
3.6749e-06
0.00222727
2.9641e-06
0.00222506
2.21312e-06
0.00222361
1.44411e-06
0.00222292
6.94534e-07
0.00222289
2.33243e-08
0.00222352
-6.28411e-07
0.00222465
-1.13224e-06
0.00222615
-1.49668e-06
0.00222786
-1.71005e-06
0.00222965
-1.78805e-06
0.0022314
-1.75164e-06
0.00223304
-1.63668e-06
0.00223452
-1.48668e-06
0.00223587
-1.34344e-06
0.00223711
-1.23941e-06
0.0022383
-1.19246e-06
0.00223951
-1.20536e-06
0.00224078
-1.27062e-06
0.00224215
-1.37328e-06
0.00224365
-1.49677e-06
0.00224527
-1.62642e-06
0.00224702
-1.74995e-06
0.00224888
-1.85766e-06
0.00225083
-1.94829e-06
0.00225285
-2.02222e-06
0.00225493
-2.08017e-06
0.00225705
-2.12167e-06
0.0022592
-2.147e-06
0.00226136
-2.1566e-06
0.0022635
-2.14742e-06
0.00226562
-2.118e-06
0.00226769
-2.06843e-06
0.00226969
-1.99831e-06
0.0022716
-1.90709e-06
0.00227339
-1.79359e-06
0.00227505
-1.66126e-06
0.00227656
-1.50517e-06
0.00227788
-1.32964e-06
0.00227902
-1.13534e-06
0.00227994
-9.18546e-07
0.00228062
-6.83854e-07
0.00228105
-4.30777e-07
0.00228121
-1.60415e-07
0.00228107
1.48592e-07
0.0022806
4.66617e-07
0.0022798
7.99971e-07
0.00227865
1.15258e-06
0.00227712
1.52569e-06
0.0022752
1.92003e-06
0.00227286
2.33637e-06
0.00227009
2.7757e-06
0.00226685
3.23947e-06
0.00226312
3.72957e-06
0.00225887
4.24808e-06
0.00225407
4.79718e-06
0.00224869
5.37916e-06
0.0022427
5.99628e-06
0.00223605
6.65069e-06
0.0022287
7.3441e-06
0.00222063
8.07744e-06
0.00221178
8.85001e-06
0.00220212
9.65823e-06
0.00219162
1.0495e-05
0.00218027
1.13502e-05
0.00216806
1.22117e-05
0.00215499
1.30691e-05
0.00214107
1.3919e-05
0.0021263
1.47685e-05
0.00211067
1.56351e-05
0.00209413
1.65435e-05
0.00207661
1.75197e-05
0.00205802
1.85855e-05
0.00203826
1.9756e-05
0.00201723
2.1039e-05
0.00199479
2.24369e-05
0.00197084
2.39497e-05
0.00194526
2.55761e-05
0.00191795
2.73116e-05
0.00188881
2.9146e-05
0.00185775
3.10596e-05
0.00182473
3.30195e-05
0.00178975
3.4976e-05
0.00175288
3.68747e-05
0.0017142
3.86797e-05
0.00167382
4.03781e-05
0.00163186
4.19552e-05
0.00158849
4.33772e-05
0.00154389
4.45905e-05
0.00149836
4.55368e-05
0.0014522
4.61628e-05
0.00140579
4.64046e-05
0.00135965
4.61403e-05
0.00131448
4.51751e-05
0.00127115
4.33283e-05
0.00123059
4.05601e-05
0.0011935
3.70869e-05
0.00116011
3.33859e-05
0.00113007
3.00462e-05
0.00110254
2.75318e-05
0.00107653
2.60103e-05
0.00105117
2.53542e-05
0.0010259
2.52706e-05
0.00100045
2.54553e-05
0.000974774
2.56719e-05
0.000948997
2.5777e-05
0.000923277
2.57202e-05
0.000897763
2.55138e-05
0.000872569
2.51941e-05
0.000847775
2.47941e-05
0.00082344
2.43343e-05
0.000799612
2.38283e-05
0.00077632
2.32919e-05
0.00075357
2.275e-05
0.000731341
2.22294e-05
0.000709586
2.17545e-05
0.000688248
2.13381e-05
0.000667263
2.09849e-05
0.000646579
2.0684e-05
0.00062615
2.04287e-05
0.000605936
2.02148e-05
0.000585897
2.00384e-05
0.000566001
1.98967e-05
0.000546215
1.97855e-05
0.000526516
1.96986e-05
0.000506887
1.96298e-05
0.000487313
1.95738e-05
0.000467784
1.9529e-05
0.00044829
1.94936e-05
0.000428821
1.94688e-05
0.000409369
1.94524e-05
0.000389926
1.94428e-05
0.00037049
1.94364e-05
0.000351062
1.94278e-05
0.000331651
1.94113e-05
0.000312267
1.9384e-05
0.000292924
1.93421e-05
0.000273642
1.92826e-05
0.000254437
1.92046e-05
0.000235329
1.91084e-05
0.000216337
1.8992e-05
0.000197479
1.8858e-05
0.000178768
1.87112e-05
0.000160208
1.85599e-05
0.000141792
1.84158e-05
0.000123506
1.8286e-05
0.000105349
1.81568e-05
8.73699e-05
1.79792e-05
6.97323e-05
1.76376e-05
5.26345e-05
1.70978e-05
3.66772e-05
1.59574e-05
2.15152e-05
1.51619e-05
2.15152e-05
3.08633e-05
-7.57859e-05
7.00342e-05
-9.38129e-05
0.000105252
-8.75372e-05
0.000138264
-8.28629e-05
0.000170975
-8.18026e-05
0.00020388
-8.18072e-05
0.000236874
-8.17751e-05
0.000269876
-8.16009e-05
0.0003029
-8.13857e-05
0.000335979
-8.11768e-05
0.000369131
-8.09736e-05
0.000402373
-8.07778e-05
0.000435718
-8.05872e-05
0.00046918
-8.04044e-05
0.000502768
-8.02281e-05
0.000536499
-8.00647e-05
0.000570385
-7.99065e-05
0.000604436
-7.97562e-05
0.000638663
-7.96137e-05
0.000673076
-7.94737e-05
0.000707693
-7.93407e-05
0.000742509
-7.91979e-05
0.000777533
-7.90515e-05
0.000812772
-7.88988e-05
0.000848221
-7.87298e-05
0.000883886
-7.85485e-05
0.000919764
-7.83469e-05
0.000955851
-7.81234e-05
0.000992138
-7.78761e-05
0.00102862
-7.76034e-05
0.00106528
-7.73029e-05
0.0011021
-7.69683e-05
0.00113908
-7.65944e-05
0.00117617
-7.6174e-05
0.00121337
-7.57001e-05
0.00125064
-7.51634e-05
0.00128797
-7.45721e-05
0.00132535
-7.3927e-05
0.00136275
-7.32347e-05
0.00140015
-7.25059e-05
0.00143753
-7.17495e-05
0.00147486
-7.09756e-05
0.00151213
-7.0187e-05
0.00154929
-6.9383e-05
0.00158634
-6.85588e-05
0.00162326
-6.77159e-05
0.00166005
-6.68551e-05
0.00169671
-6.59804e-05
0.00173325
-6.51011e-05
0.00176965
-6.4233e-05
0.00180588
-6.3394e-05
0.00184185
-6.25984e-05
0.00187745
-6.18544e-05
0.00191254
-6.11606e-05
0.00194699
-6.05097e-05
0.00198071
-5.98837e-05
0.00201362
-5.92631e-05
0.0020457
-5.8631e-05
0.00207694
-5.7974e-05
0.00210737
-5.72827e-05
0.00213701
-5.65522e-05
0.0021659
-5.57811e-05
0.00219405
-5.49696e-05
0.00222148
-5.41196e-05
0.00224823
-5.32331e-05
0.00227429
-5.23127e-05
0.00229969
-5.1361e-05
0.00232442
-5.038e-05
0.0023485
-4.93725e-05
0.00237193
-4.83401e-05
0.00239472
-4.72841e-05
0.00241686
-4.62059e-05
0.00243836
-4.51071e-05
0.00245923
-4.399e-05
0.00247947
-4.28572e-05
0.00249909
-4.17122e-05
0.00251808
-4.05586e-05
0.00253644
-3.93994e-05
0.00255418
-3.82368e-05
0.00257128
-3.70709e-05
0.00258774
-3.58999e-05
0.00260356
-3.47202e-05
0.00261872
-3.35272e-05
0.00263321
-3.23161e-05
0.00264705
-3.10827e-05
0.00266021
-2.98249e-05
0.00267269
-2.85424e-05
0.0026845
-2.72371e-05
0.00269564
-2.59126e-05
0.00270611
-2.45738e-05
0.0027159
-2.32256e-05
0.00272503
-2.18733e-05
0.00273348
-2.05213e-05
0.00274126
-1.91737e-05
0.00274837
-1.78335e-05
0.00275482
-1.65034e-05
0.00276061
-1.51855e-05
0.00276574
-1.38812e-05
0.00277022
-1.25921e-05
0.00277406
-1.13191e-05
0.00277726
-1.00632e-05
0.00277984
-8.82544e-06
0.0027818
-7.60675e-06
0.00278315
-6.40808e-06
0.00278392
-5.23039e-06
0.0027841
-4.07471e-06
0.00278373
-2.94219e-06
0.0027828
-1.83417e-06
0.00278134
-7.51554e-07
0.00277935
3.19523e-07
0.00277688
1.3428e-06
0.00277393
2.34432e-06
0.00277053
3.3127e-06
0.00276672
4.25582e-06
0.00276252
5.16477e-06
0.00275794
6.04895e-06
0.00275301
6.90329e-06
0.00274772
7.72954e-06
0.0027421
8.52721e-06
0.00273617
9.29187e-06
0.00272993
1.00277e-05
0.00272341
1.07321e-05
0.00271663
1.14061e-05
0.00270959
1.205e-05
0.00270233
1.26611e-05
0.00269485
1.32416e-05
0.00268719
1.3791e-05
0.00267935
1.43086e-05
0.00267137
1.47947e-05
0.00266326
1.52495e-05
0.00265503
1.56704e-05
0.00264673
1.60596e-05
0.00263836
1.64145e-05
0.00262996
1.67359e-05
0.00262155
1.70205e-05
0.00261316
1.72683e-05
0.00260481
1.74771e-05
0.00259654
1.76453e-05
0.00258835
1.77717e-05
0.00258028
1.7857e-05
0.00257232
1.79042e-05
0.00256447
1.79187e-05
0.00255673
1.79095e-05
0.00254911
1.78882e-05
0.00254162
1.78688e-05
0.00253431
1.7866e-05
0.00252722
1.78914e-05
0.00252041
1.79507e-05
0.00251395
1.80428e-05
0.00250789
1.81615e-05
0.00250226
1.82962e-05
0.00249709
1.84349e-05
0.00249237
1.85665e-05
0.0024881
1.86814e-05
0.00248428
1.87724e-05
0.00248093
1.88349e-05
0.00247806
1.88667e-05
0.00247572
1.88681e-05
0.00247396
1.88422e-05
0.00247286
1.8796e-05
0.00247248
1.87401e-05
0.00247287
1.86878e-05
0.00247402
1.86492e-05
0.00247582
1.86245e-05
0.00247809
1.86011e-05
0.00248065
1.85594e-05
0.00248334
1.84812e-05
0.0024861
1.83562e-05
0.00248887
1.81824e-05
0.00249161
1.79632e-05
0.00249426
1.77075e-05
0.00249672
1.74101e-05
0.0024989
1.70337e-05
0.00250066
1.65701e-05
0.0025019
1.60152e-05
0.00250255
1.53728e-05
0.00250263
1.46594e-05
0.00250223
1.39028e-05
0.00250151
1.31353e-05
0.00250062
1.23852e-05
0.00249972
1.16724e-05
0.00249892
1.10076e-05
0.00249829
1.03953e-05
0.00249784
9.83472e-06
0.0024976
9.31998e-06
0.00249755
8.84072e-06
0.00249767
8.38594e-06
0.00249793
7.94628e-06
0.00249833
7.51398e-06
0.00249883
7.08269e-06
0.00249942
6.64759e-06
0.00250006
6.20574e-06
0.00250075
5.75291e-06
0.00250145
5.27958e-06
0.00250215
4.78013e-06
0.00250283
4.24902e-06
0.00250349
3.68034e-06
0.00250409
3.06879e-06
0.00250464
2.41109e-06
0.00250515
1.70941e-06
0.00250562
9.74235e-07
0.0025061
2.14223e-07
0.0025066
-4.81515e-07
0.00250712
-1.14178e-06
0.00250772
-1.73584e-06
0.00250846
-2.2318e-06
0.00250936
-2.60959e-06
0.00251042
-2.85341e-06
0.00251164
-2.97202e-06
0.00251299
-2.98484e-06
0.00251442
-2.92165e-06
0.0025159
-2.81485e-06
0.00251735
-2.69539e-06
0.00251875
-2.58845e-06
0.00252005
-2.51093e-06
0.00252125
-2.47116e-06
0.00252235
-2.46571e-06
0.00252333
-2.48477e-06
0.00252423
-2.52069e-06
0.00252504
-2.56132e-06
0.00252577
-2.59202e-06
0.00252643
-2.60368e-06
0.002527
-2.59124e-06
0.00252747
-2.54962e-06
0.00252782
-2.47438e-06
0.00252804
-2.36873e-06
0.00252812
-2.22956e-06
0.00252802
-2.05256e-06
0.00252774
-1.84034e-06
0.00252726
-1.58974e-06
0.00252657
-1.30281e-06
0.00252564
-9.74144e-07
0.00252445
-6.08187e-07
0.00252299
-2.05271e-07
0.00252125
2.34477e-07
0.00251922
7.09122e-07
0.00251686
1.21871e-06
0.00251418
1.76225e-06
0.00251116
2.33812e-06
0.00250778
2.94531e-06
0.00250404
3.58362e-06
0.00249993
4.25465e-06
0.00249545
4.95403e-06
0.00249057
5.6796e-06
0.00248529
6.43016e-06
0.00247961
7.2046e-06
0.00247353
8.0017e-06
0.00246704
8.8201e-06
0.00246016
9.65852e-06
0.00245288
1.05158e-05
0.00244522
1.13909e-05
0.00243719
1.22827e-05
0.0024288
1.31904e-05
0.00242006
1.41129e-05
0.00241101
1.50494e-05
0.00240166
1.59992e-05
0.00239204
1.69621e-05
0.00238218
1.79379e-05
0.00237211
1.89266e-05
0.00236184
1.99277e-05
0.00235139
2.09408e-05
0.00234077
2.1966e-05
0.00232998
2.30037e-05
0.002319
2.40552e-05
0.00230779
2.51234e-05
0.00229635
2.62137e-05
0.00228465
2.73346e-05
0.00227269
2.84976e-05
0.0022605
2.97159e-05
0.00224808
3.10033e-05
0.00223546
3.23734e-05
0.00222266
3.38388e-05
0.00220969
3.54121e-05
0.00219653
3.71052e-05
0.00218318
3.8929e-05
0.0021696
4.08923e-05
0.00215574
4.30006e-05
0.00214155
4.52534e-05
0.00212693
4.7641e-05
0.00211176
5.01423e-05
0.00209591
5.27244e-05
0.00207924
5.53476e-05
0.00206166
5.79647e-05
0.0020431
6.05128e-05
0.00202357
6.29047e-05
0.00200314
6.50263e-05
0.00198193
6.67437e-05
0.00196018
6.79116e-05
0.00193821
6.83734e-05
0.00191639
6.7965e-05
0.00189499
6.65764e-05
0.00187407
6.42459e-05
0.00185348
6.11478e-05
0.00183293
5.76365e-05
0.0018121
5.42161e-05
0.00179074
5.14083e-05
0.00176872
4.95529e-05
0.00174607
4.86602e-05
0.00172295
4.84742e-05
0.00169955
4.86677e-05
0.00167603
4.89783e-05
0.00165245
4.92452e-05
0.00162883
4.94034e-05
0.00160508
4.94632e-05
0.00158112
4.94756e-05
0.00155682
4.9492e-05
0.00153208
4.95377e-05
0.00150681
4.96063e-05
0.00148096
4.96729e-05
0.00145454
4.97133e-05
0.00142758
4.97166e-05
0.00140012
4.96862e-05
0.00137224
4.96353e-05
0.001344
4.9579e-05
0.00131545
4.95332e-05
0.00128662
4.95112e-05
0.00125753
4.9525e-05
0.00122815
4.95867e-05
0.00119849
4.9706e-05
0.0011685
4.9887e-05
0.00113815
5.01274e-05
0.00110743
5.04207e-05
0.0010763
5.07602e-05
0.00104473
5.11416e-05
0.0010127
5.15646e-05
0.00098016
5.20329e-05
0.000947078
5.25504e-05
0.000913411
5.31192e-05
0.000879115
5.37391e-05
0.000844145
5.44068e-05
0.000808456
5.51166e-05
0.000772006
5.5861e-05
0.00073476
5.66302e-05
0.000696691
5.74108e-05
0.000657786
5.81884e-05
0.000618041
5.89495e-05
0.000577468
5.96808e-05
0.000536092
6.03683e-05
0.000493948
6.10019e-05
0.000451086
6.15738e-05
0.000407568
6.20773e-05
0.000363479
6.25045e-05
0.000318919
6.28469e-05
0.000273981
6.30941e-05
0.000228723
6.32374e-05
0.000183079
6.32821e-05
0.000136716
6.34603e-05
8.97182e-05
6.29552e-05
4.46434e-05
6.02368e-05
6.61586e-05
3.04786e-05
-0.000106265
7.1229e-05
-0.000134563
0.000107879
-0.000124188
0.000141495
-0.000116478
0.000174482
-0.000114789
0.000207802
-0.000115128
0.000241436
-0.000115409
0.000275247
-0.000115412
0.000309198
-0.000115336
0.000343299
-0.000115278
0.000377577
-0.000115252
0.000412044
-0.000115245
0.000446716
-0.000115258
0.000481598
-0.000115287
0.000516697
-0.000115328
0.000552024
-0.000115392
0.0005876
-0.000115483
0.000623422
-0.000115578
0.0006595
-0.000115691
0.000695844
-0.000115818
0.000732454
-0.00011595
0.000769336
-0.000116081
0.000806497
-0.000116212
0.000843929
-0.000116331
0.00088164
-0.00011644
0.000919614
-0.000116523
0.000957846
-0.000116578
0.000996321
-0.000116599
0.00103503
-0.000116581
0.00107394
-0.000116518
0.00111304
-0.000116404
0.00115231
-0.000116232
0.00119171
-0.000115993
0.00123121
-0.000115681
0.0012708
-0.000115288
0.00131045
-0.000114813
0.00135013
-0.000114248
0.0013898
-0.000113602
0.00142945
-0.000112882
0.00146904
-0.000112093
0.00150853
-0.000111243
0.00154789
-0.000110334
0.00158707
-0.000109372
0.00162605
-0.00010836
0.00166479
-0.000107299
0.00170326
-0.000106187
0.00174143
-0.000105024
0.00177926
-0.000103811
0.00181671
-0.000102551
0.00185373
-0.000101253
0.00189026
-9.99242e-05
0.00192624
-9.85769e-05
0.00196161
-9.72228e-05
0.00199632
-9.58729e-05
0.00203034
-9.45307e-05
0.00206366
-9.31985e-05
0.00209627
-9.18733e-05
0.00212818
-9.05482e-05
0.00215943
-8.92158e-05
0.00219001
-8.78694e-05
0.00221996
-8.65031e-05
0.00224929
-8.51124e-05
0.00227802
-8.3694e-05
0.00230615
-8.22464e-05
0.00233368
-8.07683e-05
0.00236063
-7.92594e-05
0.00238699
-7.77196e-05
0.00241276
-7.61502e-05
0.00243793
-7.45516e-05
0.00246252
-7.29253e-05
0.00248651
-7.12729e-05
0.0025099
-6.95954e-05
0.00253269
-6.78941e-05
0.00255487
-6.61704e-05
0.00257643
-6.44263e-05
0.00259739
-6.26643e-05
0.00261772
-6.0887e-05
0.00263741
-5.90967e-05
0.00265647
-5.7295e-05
0.00267488
-5.54821e-05
0.00269264
-5.36568e-05
0.00270974
-5.18165e-05
0.00272617
-4.99581e-05
0.00274193
-4.80783e-05
0.00275702
-4.61749e-05
0.00277144
-4.42472e-05
0.0027852
-4.2296e-05
0.00279828
-4.03238e-05
0.00281071
-3.83346e-05
0.00282246
-3.6333e-05
0.00283356
-3.4324e-05
0.002844
-3.23123e-05
0.00285378
-3.03023e-05
0.00286291
-2.82979e-05
0.00287138
-2.63026e-05
0.00287919
-2.43194e-05
0.00288636
-2.23509e-05
0.00289288
-2.03996e-05
0.00289875
-1.84676e-05
0.00290399
-1.65569e-05
0.0029086
-1.46695e-05
0.00291258
-1.28072e-05
0.00291594
-1.09718e-05
0.0029187
-9.1652e-06
0.00292086
-7.38903e-06
0.00292243
-5.64491e-06
0.00292342
-3.93435e-06
0.00292384
-2.25858e-06
0.00292371
-6.1935e-07
0.00292306
9.75898e-07
0.00292186
2.53973e-06
0.00292015
4.05594e-06
0.00291793
5.53165e-06
0.00291522
6.96498e-06
0.00291203
8.35105e-06
0.00290839
9.68979e-06
0.00290431
1.09854e-05
0.00289981
1.2233e-05
0.0028949
1.34333e-05
0.00288961
1.45875e-05
0.00288394
1.56936e-05
0.00287792
1.6751e-05
0.00287157
1.77592e-05
0.0028649
1.87213e-05
0.00285792
1.9633e-05
0.00285067
2.04953e-05
0.00284315
2.13094e-05
0.00283538
2.20762e-05
0.00282739
2.27932e-05
0.00281918
2.34598e-05
0.00281077
2.40767e-05
0.00280218
2.46455e-05
0.00279344
2.51619e-05
0.00278454
2.56291e-05
0.00277552
2.60456e-05
0.00276638
2.64104e-05
0.00275713
2.67241e-05
0.00274779
2.69872e-05
0.00273836
2.72012e-05
0.00272884
2.73695e-05
0.00271925
2.74982e-05
0.00270957
2.75956e-05
0.00269981
2.76718e-05
0.00268996
2.7737e-05
0.00268003
2.77994e-05
0.00267004
2.78629e-05
0.00265999
2.79318e-05
0.00264995
2.79991e-05
0.00263993
2.806e-05
0.00262998
2.81104e-05
0.00262013
2.81441e-05
0.00261041
2.81586e-05
0.00260082
2.81509e-05
0.00259139
2.81192e-05
0.0025821
2.80617e-05
0.00257296
2.7976e-05
0.00256396
2.78591e-05
0.00255512
2.77081e-05
0.00254645
2.75196e-05
0.00253795
2.72897e-05
0.00252968
2.70149e-05
0.00252167
2.66985e-05
0.00251396
2.63552e-05
0.00250658
2.60061e-05
0.00249952
2.56634e-05
0.00249276
2.532e-05
0.00248628
2.49529e-05
0.0024801
2.4537e-05
0.00247423
2.40566e-05
0.00246868
2.35079e-05
0.0024635
2.2896e-05
0.00245868
2.22278e-05
0.0024542
2.15101e-05
0.00245002
2.07493e-05
0.00244608
1.99555e-05
0.00244232
1.9134e-05
0.0024387
1.82798e-05
0.00243521
1.7393e-05
0.00243187
1.6481e-05
0.00242869
1.55569e-05
0.00242573
1.46346e-05
0.00242301
1.37255e-05
0.00242057
1.28382e-05
0.00241843
1.19781e-05
0.0024166
1.11465e-05
0.0024151
1.03421e-05
0.00241392
9.56192e-06
0.00241307
8.80259e-06
0.00241252
8.06057e-06
0.00241227
7.33254e-06
0.0024123
6.6154e-06
0.0024126
5.90608e-06
0.00241315
5.20076e-06
0.00241394
4.49397e-06
0.00241493
3.78549e-06
0.00241611
3.07541e-06
0.00241743
2.3621e-06
0.00241885
1.64549e-06
0.00242033
9.2854e-07
0.00242182
2.18785e-07
0.00242333
-5.36892e-07
0.00242483
-1.27815e-06
0.00242633
-1.98922e-06
0.00242785
-2.65506e-06
0.00242936
-3.24948e-06
0.00243087
-3.74528e-06
0.0024324
-4.1309e-06
0.00243395
-4.40526e-06
0.00243554
-4.5672e-06
0.00243719
-4.62989e-06
0.00243888
-4.61593e-06
0.00244062
-4.54947e-06
0.00244238
-4.45825e-06
0.00244416
-4.36786e-06
0.00244594
-4.2912e-06
0.00244771
-4.23747e-06
0.00244945
-4.20505e-06
0.00245114
-4.1827e-06
0.00245278
-4.1573e-06
0.00245433
-4.11484e-06
0.00245579
-4.04899e-06
0.00245713
-3.944e-06
0.00245834
-3.80492e-06
0.00245941
-3.62008e-06
0.00246033
-3.386e-06
0.00246107
-3.10961e-06
0.00246162
-2.78046e-06
0.00246197
-2.4016e-06
0.0024621
-1.96962e-06
0.00246199
-1.48387e-06
0.00246163
-9.4443e-07
0.00246101
-3.51363e-07
0.00246011
2.9406e-07
0.00245891
9.92933e-07
0.0024574
1.7429e-06
0.00245557
2.54285e-06
0.00245339
3.3915e-06
0.00245087
4.28747e-06
0.00244798
5.2293e-06
0.00244471
6.21549e-06
0.00244105
7.24468e-06
0.00243699
8.31532e-06
0.00243251
9.42494e-06
0.00242762
1.05711e-05
0.0024223
1.17515e-05
0.00241654
1.29638e-05
0.00241034
1.42056e-05
0.00240368
1.54746e-05
0.00239657
1.67683e-05
0.00238901
1.80843e-05
0.00238098
1.94199e-05
0.00237249
2.07723e-05
0.00236354
2.21388e-05
0.00235414
2.35167e-05
0.00234428
2.49032e-05
0.00233398
2.62957e-05
0.00232326
2.76916e-05
0.0023121
2.90885e-05
0.00230055
3.04841e-05
0.0022886
3.18766e-05
0.00227627
3.32656e-05
0.00226359
3.46521e-05
0.00225055
3.60389e-05
0.00223718
3.7431e-05
0.00222347
3.88343e-05
0.00220942
4.02548e-05
0.00219506
4.16975e-05
0.00218039
4.31658e-05
0.00216545
4.46619e-05
0.00215026
4.61881e-05
0.00213489
4.77476e-05
0.00211938
4.93451e-05
0.00210381
5.09861e-05
0.00208824
5.2677e-05
0.00207274
5.44239e-05
0.0020574
5.62325e-05
0.00204229
5.81067e-05
0.0020275
6.00482e-05
0.00201309
6.20557e-05
0.0019991
6.41245e-05
0.00198558
6.62467e-05
0.00197252
6.8408e-05
0.0019599
7.0583e-05
0.00194769
7.27293e-05
0.0019358
7.47876e-05
0.00192414
7.6684e-05
0.00191255
7.83339e-05
0.00190082
7.96422e-05
0.00188869
8.05045e-05
0.00187586
8.07999e-05
0.00186202
8.04139e-05
0.00184692
7.93428e-05
0.00183035
7.77235e-05
0.00181215
7.58337e-05
0.00179231
7.4057e-05
0.00177093
7.27858e-05
0.00174824
7.22463e-05
0.00172453
7.23681e-05
0.00170014
7.28667e-05
0.00167536
7.34507e-05
0.00165039
7.39446e-05
0.00162535
7.42806e-05
0.0016003
7.44585e-05
0.00157523
7.45287e-05
0.00155013
7.45759e-05
0.00152494
7.46881e-05
0.00149955
7.49242e-05
0.00147386
7.52966e-05
0.00144776
7.57737e-05
0.00142117
7.6298e-05
0.00139408
7.68066e-05
0.00136652
7.7252e-05
0.00133854
7.76147e-05
0.00131022
7.79022e-05
0.00128161
7.81402e-05
0.00125276
7.83622e-05
0.00122368
7.85985e-05
0.0011944
7.8871e-05
0.00116491
7.91924e-05
0.00113523
7.95687e-05
0.00110536
8.00042e-05
0.00107528
8.04998e-05
0.00104498
8.10576e-05
0.00101444
8.16813e-05
0.000983627
8.23764e-05
0.000952509
8.31514e-05
0.000921045
8.40144e-05
0.000889193
8.49707e-05
0.000856906
8.6026e-05
0.000824129
8.71844e-05
0.000790797
8.84485e-05
0.000756841
8.9817e-05
0.000722188
9.12827e-05
0.000686767
9.2832e-05
0.000650507
9.44484e-05
0.000613344
9.61121e-05
0.000575222
9.78029e-05
0.000536092
9.94984e-05
0.000495921
0.000101173
0.000454696
0.000102799
0.000412426
0.000104348
0.000369138
0.000105793
0.00032488
0.000107104
0.000279725
0.000108249
0.000233749
0.000109214
0.000186985
0.000110046
0.000139655
0.00011079
9.29264e-05
0.000109684
4.86015e-05
0.000104562
0.00011476
3.33986e-05
-0.000139663
7.77249e-05
-0.00017889
0.000118519
-0.000164982
0.00015602
-0.000153979
0.000192655
-0.000151425
0.000229502
-0.000151975
0.000266651
-0.000152557
0.000303926
-0.000152688
0.000341271
-0.00015268
0.000378669
-0.000152676
0.000416141
-0.000152723
0.000453696
-0.000152801
0.000491342
-0.000152904
0.000529072
-0.000153017
0.000566902
-0.000153158
0.000604835
-0.000153325
0.000642863
-0.000153511
0.000681007
-0.000153722
0.000719257
-0.000153941
0.000757617
-0.000154178
0.000796082
-0.000154416
0.000834665
-0.000154663
0.000873354
-0.000154901
0.000912139
-0.000155116
0.000951015
-0.000155316
0.000989975
-0.000155483
0.001029
-0.000155607
0.00106808
-0.000155678
0.0011072
-0.000155694
0.00114632
-0.000155646
0.00118544
-0.000155523
0.00122453
-0.000155317
0.00126356
-0.000155024
0.00130251
-0.000154631
0.00134136
-0.000154141
0.0013801
-0.000153547
0.0014187
-0.00015285
0.00145715
-0.000152052
0.00149542
-0.000151157
0.0015335
-0.000150171
0.00157136
-0.0001491
0.00160897
-0.000147946
0.00164631
-0.000146713
0.00168335
-0.000145406
0.00172008
-0.000144027
0.00175647
-0.000142577
0.00179251
-0.000141058
0.00182817
-0.000139474
0.00186345
-0.000137831
0.00189833
-0.000136135
0.0019328
-0.000134397
0.00196686
-0.000132629
0.00200048
-0.000130842
0.00203365
-0.000129047
0.00206637
-0.000127248
0.00209862
-0.000125447
0.00213038
-0.000123642
0.00216166
-0.000121827
0.00219244
-0.000119996
0.00222272
-0.000118142
0.00225247
-0.000116262
0.00228171
-0.000114351
0.00231043
-0.000112407
0.00233861
-0.000110428
0.00236625
-0.000108414
0.00239336
-0.000106363
0.00241991
-0.000104277
0.00244592
-0.000102154
0.00247137
-9.99976e-05
0.00249625
-9.78067e-05
0.00252056
-9.55827e-05
0.00254429
-9.33266e-05
0.00256743
-9.10397e-05
0.00258999
-8.87231e-05
0.00261194
-8.63784e-05
0.00263328
-8.40072e-05
0.002654
-8.16114e-05
0.0026741
-7.91926e-05
0.00269356
-7.67522e-05
0.00271237
-7.42906e-05
0.00273052
-7.1808e-05
0.002748
-6.93038e-05
0.00276482
-6.67771e-05
0.00278097
-6.42273e-05
0.00279645
-6.16542e-05
0.00281126
-5.90584e-05
0.00282541
-5.64417e-05
0.00283889
-5.38067e-05
0.00285171
-5.11569e-05
0.00286388
-4.84963e-05
0.00287538
-4.58291e-05
0.00288623
-4.31596e-05
0.00289642
-4.04921e-05
0.00290595
-3.78306e-05
0.00291483
-3.51789e-05
0.00292305
-3.25406e-05
0.00293062
-2.9919e-05
0.00293754
-2.73174e-05
0.00294381
-2.47386e-05
0.00294944
-2.21857e-05
0.00295443
-1.96613e-05
0.00295879
-1.71681e-05
0.00296253
-1.47087e-05
0.00296565
-1.22857e-05
0.00296816
-9.90154e-06
0.00297007
-7.55849e-06
0.0029714
-5.2588e-06
0.00297214
-3.00457e-06
0.00297232
-7.97994e-07
0.00297194
1.35772e-06
0.00297102
3.46336e-06
0.00296956
5.51481e-06
0.00296758
7.51024e-06
0.00296509
9.44888e-06
0.00296212
1.13289e-05
0.00295866
1.3149e-05
0.00295473
1.4911e-05
0.00295036
1.66094e-05
0.00294554
1.82461e-05
0.00294031
1.98211e-05
0.00293467
2.13322e-05
0.00292864
2.27797e-05
0.00292224
2.41653e-05
0.00291547
2.5482e-05
0.00290837
2.67389e-05
0.00290094
2.7926e-05
0.0028932
2.90503e-05
0.00288516
3.01097e-05
0.00287685
3.11055e-05
0.00286828
3.20338e-05
0.00285946
3.28963e-05
0.00285041
3.36952e-05
0.00284114
3.44304e-05
0.00283167
3.50975e-05
0.00282201
3.57034e-05
0.00281218
3.62442e-05
0.00280218
3.67223e-05
0.00279203
3.71406e-05
0.00278173
3.75013e-05
0.00277129
3.78089e-05
0.00276072
3.80662e-05
0.00275004
3.82792e-05
0.00273926
3.84533e-05
0.0027284
3.85923e-05
0.0027175
3.87011e-05
0.00270658
3.87825e-05
0.00269567
3.88374e-05
0.00268481
3.88655e-05
0.002674
3.88663e-05
0.00266328
3.88357e-05
0.00265265
3.87724e-05
0.00264213
3.86761e-05
0.00263174
3.85428e-05
0.00262149
3.83714e-05
0.00261139
3.81612e-05
0.00260145
3.79109e-05
0.00259169
3.76211e-05
0.0025821
3.72927e-05
0.0025727
3.69274e-05
0.00256346
3.65273e-05
0.00255438
3.60948e-05
0.00254545
3.5632e-05
0.00253666
3.51405e-05
0.00252805
3.46194e-05
0.00251965
3.40648e-05
0.00251149
3.34715e-05
0.00250361
3.28338e-05
0.002496
3.21474e-05
0.00248865
3.14098e-05
0.00248154
3.06198e-05
0.00247466
2.97771e-05
0.002468
2.88816e-05
0.00246158
2.79328e-05
0.0024554
2.6931e-05
0.00244948
2.58788e-05
0.00244383
2.47809e-05
0.00243846
2.36445e-05
0.00243338
2.24813e-05
0.00242855
2.1305e-05
0.00242398
2.01277e-05
0.00241966
1.89585e-05
0.00241558
1.78039e-05
0.00241175
1.66679e-05
0.00240817
1.55526e-05
0.00240486
1.44583e-05
0.00240182
1.33841e-05
0.00239905
1.23287e-05
0.00239657
1.12906e-05
0.00239436
1.02686e-05
0.00239243
9.26143e-06
0.00239078
8.26818e-06
0.00238939
7.28799e-06
0.00238827
6.32024e-06
0.0023874
5.36467e-06
0.00238677
4.42139e-06
0.00238635
3.4905e-06
0.00238614
2.57113e-06
0.00238613