/*--------------------------------*- C++ -*----------------------------------*\
| =========                 |                                                 |
| \\      /  F ield         | OpenFOAM: The Open Source CFD Toolbox           |
|  \\    /   O peration     | Version:  v2006                                 |
|   \\  /    A nd           | Website:  www.openfoam.com                      |
|    \\/     M anipulation  |                                                 |
\*---------------------------------------------------------------------------*/
FoamFile
{
    version     2.0;
    format      ascii;
    class       volScalarField;
    location    "0.1";
    object      p_rgh;
}
// * * * * * * * * * * * * * * * * * * * * * * * * * * * * * * * * * * * * * //

dimensions      [1 -1 -2 0 0 0 0];


internalField   nonuniform List<scalar> 
50000
(
3135.7
3161.95
3122.2
3175
3133.15
3174.61
3161.61
3174.86
3184.75
3195
3206.45
3219.02
3232.65
3247.33
3263.04
3279.74
3297.43
3316.08
3335.66
3356.14
3377.5
3399.7
3422.73
3446.54
3471.11
3496.41
3522.4
3549.05
3576.34
3604.23
3632.67
3661.65
3691.13
3721.08
3751.45
3782.23
3813.37
3844.84
3876.61
3908.65
3940.92
3973.4
4006.05
4038.84
4071.74
4104.72
4137.76
4170.82
4203.87
4236.9
4269.87
4302.75
4335.53
4368.17
4400.66
4432.97
4465.09
4496.98
4528.64
4560.03
4591.15
4621.98
4652.49
4682.69
4712.54
4742.04
4771.18
4799.94
4828.31
4856.29
4883.86
4911.03
4937.77
4964.08
4989.97
5015.42
5040.44
5065.02
5089.15
5112.85
5136.11
5158.95
5181.38
5203.31
5224.79
5245.84
5266.45
5286.64
5306.4
5325.75
5344.69
5363.23
5381.36
5399.11
5416.47
5433.45
5450.07
5466.32
5482.21
5497.76
5512.97
5527.85
5542.4
5556.64
5570.57
5584.2
5597.52
5610.56
5623.32
5635.8
5648.01
5659.94
5671.62
5683.03
5694.19
5705.09
5715.74
5726.13
5736.28
5746.17
5755.82
5765.21
5774.34
5783.22
5791.84
5800.19
5808.28
5816.1
5823.63
5830.89
5837.85
5844.53
5850.9
5856.96
5862.71
5868.14
5873.24
5878.01
5882.44
5886.53
5890.26
5893.67
5896.24
5904.84
5890.94
5919.09
5887.26
5923.72
5893.83
5913.01
3132.93
3159.2
3119.44
3172.27
3130.42
3171.9
3158.93
3172.21
3182.13
3192.4
3203.89
3216.51
3230.18
3244.91
3260.67
3277.43
3295.18
3313.88
3333.52
3354.06
3375.48
3397.75
3420.85
3444.73
3469.37
3494.74
3520.8
3547.53
3574.89
3602.85
3631.37
3660.42
3689.98
3719.99
3750.44
3781.29
3812.5
3844.04
3875.88
3907.99
3940.33
3972.88
4005.6
4038.45
4071.42
4104.46
4137.56
4170.68
4203.8
4236.88
4269.9
4302.84
4335.67
4368.36
4400.9
4433.26
4465.42
4497.36
4529.05
4560.49
4591.65
4622.51
4653.06
4683.28
4713.17
4742.69
4771.86
4800.64
4829.04
4857.04
4884.63
4911.8
4938.56
4964.89
4990.78
5016.24
5041.26
5065.84
5089.97
5113.65
5136.88
5159.65
5181.94
5203.82
5225.31
5246.36
5266.98
5287.16
5306.92
5326.27
5345.2
5363.72
5381.84
5399.57
5416.92
5433.88
5450.48
5466.72
5482.59
5498.13
5513.32
5528.18
5542.71
5556.93
5570.85
5584.45
5597.77
5610.79
5623.53
5636
5648.19
5660.11
5671.77
5683.18
5694.32
5705.21
5715.85
5726.24
5736.38
5746.27
5755.91
5765.29
5774.43
5783.31
5791.92
5800.28
5808.37
5816.19
5823.73
5830.99
5837.96
5844.64
5851.01
5857.09
5862.84
5868.28
5873.39
5878.17
5882.61
5886.7
5890.43
5893.86
5896.41
5905.05
5891.08
5919.43
5887.31
5924.19
5893.83
5913.34
3127.37
3153.69
3113.9
3166.79
3124.97
3166.47
3153.57
3166.88
3176.87
3187.21
3198.78
3211.47
3225.24
3240.06
3255.92
3272.79
3290.65
3309.47
3329.23
3349.9
3371.45
3393.86
3417.08
3441.1
3465.89
3491.4
3517.6
3544.48
3571.98
3600.09
3628.76
3657.96
3687.66
3717.83
3748.42
3779.41
3810.77
3842.45
3874.44
3906.69
3939.17
3971.85
4004.7
4037.68
4070.78
4103.95
4137.17
4170.41
4203.65
4236.84
4269.98
4303.02
4335.96
4368.75
4401.39
4433.84
4466.09
4498.11
4529.89
4561.41
4592.64
4623.57
4654.19
4684.48
4714.42
4744
4773.22
4802.05
4830.49
4858.53
4886.16
4913.36
4940.15
4966.5
4992.42
5017.9
5042.93
5067.52
5091.66
5115.35
5138.6
5161.39
5183.73
5205.66
5227.11
5248.12
5268.7
5288.85
5308.58
5327.89
5346.79
5365.27
5383.36
5401.05
5418.35
5435.28
5451.83
5468.02
5483.85
5499.34
5514.48
5529.29
5543.78
5557.95
5571.81
5585.36
5598.62
5611.6
5624.29
5636.7
5648.84
5660.71
5672.32
5683.68
5694.77
5705.62
5716.21
5726.56
5736.66
5746.5
5756.1
5765.45
5774.55
5783.39
5791.98
5800.31
5808.37
5816.16
5823.68
5830.91
5837.86
5844.52
5850.89
5856.94
5862.69
5868.11
5873.21
5877.98
5882.41
5886.5
5890.23
5893.65
5896.18
5904.83
5890.86
5919.18
5887.1
5923.92
5893.62
5913.09
3119.02
3145.4
3105.57
3158.55
3116.76
3158.3
3145.53
3158.88
3168.95
3179.4
3191.08
3203.91
3217.81
3232.78
3248.79
3265.82
3283.85
3302.85
3322.79
3343.65
3365.4
3388
3411.43
3435.66
3460.65
3486.38
3512.81
3539.9
3567.62
3595.95
3624.84
3654.27
3684.19
3714.57
3745.39
3776.6
3808.17
3840.07
3872.27
3904.73
3937.42
3970.3
4003.35
4036.54
4069.83
4103.19
4136.6
4170.02
4203.43
4236.8
4270.1
4303.31
4336.4
4369.34
4402.13
4434.72
4467.1
4499.26
4531.16
4562.79
4594.14
4625.18
4655.89
4686.28
4716.31
4745.98
4775.27
4804.17
4832.68
4860.77
4888.46
4915.71
4942.54
4968.93
4994.88
5020.38
5045.44
5070.04
5094.18
5117.88
5141.12
5163.9
5186.23
5208.12
5229.56
5250.56
5271.12
5291.24
5310.94
5330.21
5349.06
5367.5
5385.53
5403.17
5420.42
5437.29
5453.78
5469.9
5485.67
5501.09
5516.16
5530.9
5545.32
5559.41
5573.2
5586.68
5599.87
5612.77
5625.38
5637.72
5649.79
5661.59
5673.13
5684.42
5695.45
5706.22
5716.75
5727.04
5737.07
5746.86
5756.41
5765.7
5774.75
5783.54
5792.08
5800.37
5808.39
5816.14
5823.62
5830.83
5837.75
5844.38
5850.71
5856.75
5862.47
5867.88
5872.96
5877.71
5882.13
5886.2
5889.93
5893.33
5895.85
5904.49
5890.53
5918.81
5886.76
5923.55
5893.28
5912.72
3107.84
3134.31
3094.42
3147.52
3105.78
3147.35
3134.77
3148.15
3158.36
3168.94
3180.79
3193.78
3207.87
3223.03
3239.25
3256.5
3274.76
3294
3314.19
3335.3
3357.31
3380.18
3403.89
3428.39
3453.67
3479.68
3506.4
3533.78
3561.8
3590.43
3619.62
3649.34
3679.56
3710.24
3741.35
3772.85
3804.72
3836.91
3869.39
3902.13
3935.09
3968.25
4001.57
4035.02
4068.57
4102.19
4135.84
4169.5
4203.15
4236.75
4270.27
4303.7
4337
4370.15
4403.12
4435.91
4468.47
4500.8
4532.86
4564.65
4596.15
4627.33
4658.18
4688.69
4718.84
4748.62
4778.02
4807.01
4835.61
4863.78
4891.54
4918.86
4945.74
4972.18
4998.17
5023.71
5048.79
5073.41
5097.57
5121.27
5144.51
5167.29
5189.61
5211.48
5232.89
5253.86
5274.38
5294.45
5314.1
5333.31
5352.11
5370.48
5388.45
5406.02
5423.19
5439.97
5456.38
5472.42
5488.1
5503.42
5518.4
5533.05
5547.37
5561.36
5575.05
5588.43
5601.52
5614.32
5626.84
5639.08
5651.05
5662.75
5674.2
5685.39
5696.33
5707.01
5717.46
5727.66
5737.61
5747.32
5756.79
5766.02
5774.99
5783.72
5792.2
5800.43
5808.39
5816.1
5823.53
5830.69
5837.57
5844.17
5850.47
5856.47
5862.17
5867.55
5872.62
5877.35
5881.75
5885.81
5889.52
5892.92
5895.41
5904.01
5890.1
5918.32
5886.3
5923.08
5892.79
5912.26
3093.8
3120.38
3080.4
3133.67
3091.99
3133.61
3121.26
3134.68
3145.05
3155.82
3167.86
3181.07
3195.39
3210.8
3227.28
3244.81
3263.36
3282.89
3303.39
3324.83
3347.17
3370.38
3394.43
3419.28
3444.92
3471.29
3498.37
3526.13
3554.52
3583.52
3613.08
3643.17
3673.77
3704.82
3736.3
3768.17
3800.4
3832.95
3865.79
3898.89
3932.2
3965.7
3999.36
4033.14
4067.01
4100.95
4134.91
4168.88
4202.82
4236.71
4270.51
4304.21
4337.77
4371.17
4404.39
4437.41
4470.2
4502.74
4535.02
4567
4598.69
4630.05
4661.07
4691.74
4722.03
4751.95
4781.47
4810.59
4839.29
4867.57
4895.41
4922.82
4949.77
4976.27
5002.31
5027.89
5053
5077.65
5101.83
5125.53
5148.77
5171.54
5193.84
5215.68
5237.06
5257.99
5278.46
5298.48
5318.06
5337.21
5355.93
5374.22
5392.1
5409.58
5426.65
5443.34
5459.64
5475.57
5491.13
5506.34
5521.21
5535.73
5549.93
5563.8
5577.36
5590.62
5603.58
5616.25
5628.64
5640.76
5652.6
5664.19
5675.51
5686.58
5697.41
5707.98
5718.32
5728.41
5738.26
5747.87
5757.25
5766.38
5775.27
5783.92
5792.32
5800.48
5808.38
5816.01
5823.39
5830.5
5837.33
5843.88
5850.14
5856.1
5861.77
5867.12
5872.16
5876.87
5881.25
5885.29
5888.98
5892.37
5894.84
5903.38
5889.53
5917.68
5885.7
5922.46
5892.15
5911.65
3076.84
3103.56
3063.49
3116.94
3075.34
3117
3104.97
3118.42
3128.99
3139.98
3152.26
3165.74
3180.34
3196.05
3212.85
3230.71
3249.61
3269.51
3290.39
3312.21
3334.95
3358.57
3383.04
3408.32
3434.39
3461.2
3488.73
3516.93
3545.77
3575.22
3605.23
3635.78
3666.82
3698.32
3730.25
3762.57
3795.24
3828.23
3861.5
3895.02
3928.75
3962.67
3996.73
4030.91
4065.17
4099.49
4133.83
4168.16
4202.46
4236.69
4270.83
4304.85
4338.73
4372.43
4405.95
4439.25
4472.31
4505.11
4537.64
4569.86
4601.77
4633.34
4664.57
4695.42
4725.9
4755.98
4785.66
4814.92
4843.76
4872.15
4900.1
4927.6
4954.64
4981.21
5007.31
5032.94
5058.09
5082.77
5106.96
5130.68
5153.91
5176.67
5198.95
5220.76
5242.09
5262.97
5283.38
5303.33
5322.84
5341.9
5360.53
5378.72
5396.5
5413.86
5430.82
5447.38
5463.56
5479.35
5494.78
5509.85
5524.57
5538.95
5552.99
5566.72
5580.13
5593.23
5606.04
5618.56
5630.8
5642.76
5654.45
5665.89
5677.07
5688
5698.68
5709.12
5719.32
5729.28
5739.01
5748.5
5757.76
5766.78
5775.57
5784.12
5792.43
5800.49
5808.31
5815.87
5823.18
5830.22
5836.99
5843.49
5849.7
5855.62
5861.24
5866.56
5871.56
5876.24
5880.6
5884.62
5888.29
5891.67
5894.12
5902.58
5888.82
5916.87
5884.95
5921.69
5891.35
5910.89
3056.91
3083.79
3043.61
3097.28
3055.79
3097.5
3085.84
3099.31
3110.12
3121.38
3133.95
3147.74
3162.67
3178.74
3195.92
3214.18
3233.49
3253.82
3275.15
3297.43
3320.64
3344.74
3369.71
3395.49
3422.07
3449.4
3477.45
3506.17
3535.54
3565.52
3596.06
3627.14
3658.72
3690.75
3723.2
3756.04
3789.23
3822.73
3856.5
3890.52
3924.75
3959.15
3993.69
4028.34
4063.06
4097.82
4132.6
4167.36
4202.07
4236.71
4271.24
4305.64
4339.89
4373.96
4407.81
4441.44
4474.82
4507.93
4540.74
4573.25
4605.42
4637.24
4668.7
4699.78
4730.46
4760.74
4790.6
4820.02
4849.01
4877.54
4905.62
4933.22
4960.36
4987.02
5013.19
5038.88
5064.07
5088.78
5112.99
5136.72
5159.95
5182.69
5204.94
5226.71
5247.99
5268.81
5289.15
5309.02
5328.43
5347.4
5365.91
5384
5401.65
5418.88
5435.7
5452.11
5468.14
5483.78
5499.04
5513.95
5528.49
5542.7
5556.57
5570.11
5583.34
5596.27
5608.89
5621.23
5633.28
5645.07
5656.59
5667.84
5678.85
5689.61
5700.12
5710.4
5720.44
5730.25
5739.83
5749.19
5758.31
5767.2
5775.87
5784.3
5792.5
5800.46
5808.18
5815.65
5822.87
5829.84
5836.54
5842.97
5849.12
5854.99
5860.57
5865.84
5870.81
5875.46
5879.79
5883.78
5887.44
5890.79
5893.23
5901.59
5887.95
5915.86
5884.02
5920.73
5890.37
5909.94
3033.94
3061
3020.7
3074.62
3033.26
3075.01
3063.8
3077.3
3088.39
3099.96
3112.86
3127.02
3142.34
3158.83
3176.45
3195.17
3214.96
3235.79
3257.63
3280.45
3304.21
3328.87
3354.41
3380.78
3407.94
3435.87
3464.52
3493.85
3523.83
3554.42
3585.58
3617.27
3649.45
3682.09
3715.15
3748.59
3782.37
3816.46
3850.82
3885.42
3920.21
3955.17
3990.25
4025.44
4060.69
4095.97
4131.25
4166.5
4201.69
4236.79
4271.77
4306.61
4341.28
4375.76
4410.01
4444.02
4477.76
4511.21
4544.36
4577.18
4609.65
4641.76
4673.49
4704.82
4735.74
4766.24
4796.3
4825.92
4855.07
4883.77
4911.98
4939.72
4966.96
4993.71
5019.97
5045.72
5070.97
5095.71
5119.94
5143.67
5166.89
5189.61
5211.83
5233.55
5254.78
5275.52
5295.78
5315.56
5334.87
5353.71
5372.1
5390.05
5407.55
5424.63
5441.29
5457.53
5473.38
5488.84
5503.92
5518.63
5532.98
5546.98
5560.65
5573.98
5587
5599.72
5612.13
5624.26
5636.1
5647.68
5658.99
5670.04
5680.84
5691.4
5701.73
5711.82
5721.68
5731.31
5740.72
5749.9
5758.87
5767.61
5776.14
5784.43
5792.5
5800.35
5807.95
5815.32
5822.45
5829.33
5835.95
5842.3
5848.39
5854.2
5859.72
5864.95
5869.87
5874.49
5878.79
5882.76
5886.39
5889.73
5892.14
5900.38
5886.88
5914.64
5882.9
5919.57
5889.17
5908.8
3007.84
3035.11
2994.67
3048.88
3007.67
3049.47
3038.77
3052.31
3063.72
3075.65
3088.95
3103.52
3119.29
3136.26
3154.38
3173.63
3193.97
3215.38
3237.81
3261.24
3285.62
3310.93
3337.12
3364.15
3391.99
3420.6
3449.93
3479.96
3510.63
3541.92
3573.77
3606.16
3639.04
3672.37
3706.11
3740.23
3774.69
3809.45
3844.47
3879.71
3915.15
3950.74
3986.44
4022.24
4058.08
4093.94
4129.79
4165.6
4201.33
4236.95
4272.45
4307.78
4342.93
4377.86
4412.56
4446.99
4481.14
4514.99
4548.51
4581.69
4614.5
4646.93
4678.96
4710.57
4741.76
4772.51
4802.8
4832.63
4861.98
4890.85
4919.23
4947.1
4974.47
5001.33
5027.67
5053.49
5078.79
5103.57
5127.83
5151.56
5174.78
5197.47
5219.65
5241.32
5262.48
5283.13
5303.29
5322.96
5342.15
5360.86
5379.1
5396.89
5414.23
5431.13
5447.6
5463.65
5479.3
5494.55
5509.41
5523.9
5538.02
5551.79
5565.22
5578.32
5591.1
5603.57
5615.74
5627.63
5639.23
5650.57
5661.64
5672.46
5683.03
5693.37
5703.47
5713.34
5722.99
5732.42
5741.63
5750.63
5759.42
5767.99
5776.35
5784.49
5792.42
5800.12
5807.6
5814.85
5821.87
5828.65
5835.17
5841.45
5847.46
5853.2
5858.67
5863.84
5868.72
5873.3
5877.56
5881.5
5885.11
5888.43
5890.83
5898.93
5885.6
5913.17
5881.55
5918.17
5887.74
5907.42
2978.53
3006.04
2965.44
3019.96
2978.95
3020.79
3010.68
3024.26
3036.05
3048.39
3062.12
3077.17
3093.46
3110.96
3129.66
3149.51
3170.48
3192.53
3215.64
3239.76
3264.85
3290.88
3317.81
3345.59
3374.19
3403.56
3433.67
3464.48
3495.93
3528
3560.64
3593.81
3627.47
3661.57
3696.09
3730.98
3766.19
3801.7
3837.46
3873.43
3909.58
3945.88
3982.28
4018.75
4055.26
4091.77
4128.26
4164.68
4201.01
4237.22
4273.29
4309.17
4344.85
4380.3
4415.49
4450.4
4485.01
4519.29
4553.23
4586.8
4619.99
4652.78
4685.14
4717.08
4748.56
4779.58
4810.13
4840.19
4869.76
4898.82
4927.37
4955.4
4982.91
5009.88
5036.32
5062.22
5087.58
5112.4
5136.68
5160.42
5183.62
5206.28
5228.41
5250.02
5271.09
5291.65
5311.7
5331.25
5350.29
5368.85
5386.93
5404.54
5421.69
5438.39
5454.65
5470.48
5485.9
5500.91
5515.52
5529.76
5543.62
5557.13
5570.3
5583.13
5595.63
5607.83
5619.73
5631.34
5642.67
5653.73
5664.53
5675.08
5685.4
5695.47
5705.32
5714.95
5724.36
5733.56
5742.55
5751.34
5759.92
5768.29
5776.47
5784.44
5792.2
5799.75
5807.09
5814.21
5821.1
5827.76
5834.19
5840.37
5846.3
5851.97
5857.37
5862.49
5867.32
5871.85
5876.08
5879.99
5883.57
5886.87
5889.26
5897.19
5884.06
5911.42
5879.93
5916.5
5886.04
5905.78
2945.88
2973.66
2932.9
2987.77
2946.97
2988.87
2979.43
2993.07
3005.27
3018.08
3032.31
3047.89
3064.76
3082.88
3102.22
3122.75
3144.42
3167.21
3191.07
3215.97
3241.85
3268.7
3296.45
3325.07
3354.52
3384.75
3415.73
3447.4
3479.73
3512.67
3546.18
3580.22
3614.75
3649.72
3685.09
3720.83
3756.88
3793.22
3829.8
3866.58
3903.53
3940.61
3977.78
4015
4052.25
4089.48
4126.67
4163.78
4200.78
4237.64
4274.33
4310.82
4347.08
4383.1
4418.84
4454.27
4489.38
4524.15
4558.55
4592.56
4626.16
4659.34
4692.08
4724.36
4756.17
4787.49
4818.32
4848.64
4878.45
4907.72
4936.46
4964.66
4992.31
5019.41
5045.95
5071.94
5097.36
5122.22
5146.52
5170.26
5193.44
5216.07
5238.14
5259.68
5280.66
5301.11
5321.03
5340.43
5359.32
5377.71
5395.6
5413.01
5429.94
5446.42
5462.44
5478.02
5493.18
5507.92
5522.26
5536.21
5549.79
5563
5575.86
5588.39
5600.59
5612.48
5624.07
5635.36
5646.39
5657.14
5667.64
5677.89
5687.91
5697.7
5707.26
5716.62
5725.76
5734.7
5743.44
5751.98
5760.34
5768.49
5776.46
5784.23
5791.81
5799.19
5806.37
5813.34
5820.1
5826.64
5832.95
5839.03
5844.87
5850.46
5855.78
5860.84
5865.62
5870.1
5874.29
5878.17
5881.72
5885
5887.38
5895.14
5882.23
5909.35
5878.03
5914.53
5884.03
5903.83
2909.79
2937.87
2896.92
2952.18
2911.64
2953.58
2944.9
2958.62
2971.3
2984.62
2999.41
3015.61
3033.12
3051.93
3071.99
3093.28
3115.74
3139.35
3164.05
3189.81
3216.59
3244.34
3273.01
3302.56
3332.96
3364.14
3396.08
3428.71
3462.01
3495.92
3530.4
3565.4
3600.88
3636.81
3673.13
3709.8
3746.78
3784.03
3821.52
3859.19
3897.02
3934.95
3972.97
4011.02
4049.08
4087.1
4125.06
4162.92
4200.65
4238.22
4275.6
4312.76
4349.67
4386.3
4422.64
4458.65
4494.31
4529.6
4564.5
4598.99
4633.05
4666.66
4699.8
4732.46
4764.62
4796.28
4827.41
4858.01
4888.07
4917.58
4946.53
4974.91
5002.72
5029.95
5056.6
5082.67
5108.16
5133.07
5157.39
5181.12
5204.28
5226.86
5248.87
5270.31
5291.19
5311.52
5331.3
5350.54
5369.25
5387.45
5405.13
5422.31
5439
5455.22
5470.98
5486.28
5501.15
5515.59
5529.63
5543.26
5556.51
5569.39
5581.92
5594.11
5605.96
5617.51
5628.75
5639.7
5650.38
5660.79
5670.95
5680.86
5690.55
5700.01
5709.26
5718.31
5727.15
5735.8
5744.26
5752.54
5760.63
5768.55
5776.28
5783.83
5791.21
5798.39
5805.39
5812.2
5818.81
5825.21
5831.4
5837.37
5843.11
5848.61
5853.86
5858.85
5863.57
5868.01
5872.16
5876
5879.53
5882.79
5885.16
5892.73
5880.06
5906.92
5875.78
5912.2
5881.68
5901.55
2870.1
2898.51
2857.36
2913.06
2872.81
2914.81
2906.97
2920.79
2934
2947.92
2963.34
2980.21
2998.45
3018.03
3038.9
3061.03
3084.37
3108.89
3134.53
3161.25
3189.01
3217.76
3247.45
3278.04
3309.48
3341.72
3374.71
3408.41
3442.77
3477.74
3513.28
3549.34
3585.88
3622.85
3660.21
3697.9
3735.9
3774.16
3812.63
3851.28
3890.06
3928.94
3967.88
4006.84
4045.78
4084.66
4123.46
4162.14
4200.67
4239.01
4277.14
4315.03
4352.64
4389.95
4426.93
4463.57
4499.83
4535.7
4571.14
4606.15
4640.7
4674.77
4708.35
4741.42
4773.97
4805.98
4837.44
4868.34
4898.68
4928.43
4957.6
4986.18
5014.16
5041.54
5068.31
5094.47
5120.02
5144.97
5169.31
5193.04
5216.17
5238.69
5260.63
5281.97
5302.74
5322.92
5342.54
5361.6
5380.12
5398.09
5415.53
5432.47
5448.89
5464.83
5480.29
5495.28
5509.83
5523.94
5537.62
5550.91
5563.8
5576.31
5588.46
5600.27
5611.74
5622.9
5633.76
5644.32
5654.62
5664.65
5674.43
5683.97
5693.29
5702.39
5711.29
5719.98
5728.49
5736.82
5744.97
5752.95
5760.76
5768.4
5775.88
5783.19
5790.34
5797.31
5804.12
5810.74
5817.19
5823.44
5829.49
5835.34
5840.97
5846.38
5851.55
5856.47
5861.13
5865.52
5869.62
5873.43
5876.94
5880.18
5882.54
5889.91
5877.51
5904.09
5873.15
5909.49
5878.93
5898.88
2826.66
2855.45
2814.08
2870.25
2830.35
2872.39
2865.5
2879.46
2893.27
2907.84
2923.96
2941.59
2960.64
2981.07
3002.85
3025.92
3050.24
3075.76
3102.44
3130.23
3159.08
3188.93
3219.75
3251.47
3284.06
3317.45
3351.6
3386.47
3422
3458.13
3494.84
3532.06
3569.75
3607.86
3646.35
3685.17
3724.27
3763.62
3803.17
3842.88
3882.71
3922.61
3962.55
4002.48
4042.38
4082.21
4121.92
4161.49
4200.88
4240.06
4279
4317.67
4356.04
4394.08
4431.77
4469.08
4505.99
4542.47
4578.5
4614.07
4649.15
4683.72
4717.77
4751.29
4784.25
4816.64
4848.46
4879.68
4910.31
4940.33
4969.74
4998.53
5026.68
5054.21
5081.11
5107.37
5132.99
5157.97
5182.33
5206.05
5229.14
5251.6
5273.45
5294.68
5315.31
5335.34
5354.78
5373.64
5391.93
5409.66
5426.84
5443.49
5459.62
5475.25
5490.38
5505.03
5519.21
5532.95
5546.26
5559.15
5571.64
5583.75
5595.49
5606.87
5617.92
5628.65
5639.08
5649.22
5659.09
5668.69
5678.05
5687.18
5696.09
5704.79
5713.3
5721.61
5729.75
5737.72
5745.52
5753.17
5760.66
5768.01
5775.2
5782.25
5789.14
5795.88
5802.47
5808.9
5815.16
5821.25
5827.16
5832.87
5838.39
5843.7
5848.78
5853.62
5858.22
5862.56
5866.63
5870.41
5873.88
5877.11
5879.47
5886.63
5874.53
5900.79
5870.08
5906.32
5875.73
5895.77
2779.3
2808.49
2766.89
2823.58
2784.08
2826.18
2820.34
2834.48
2848.95
2864.26
2881.16
2899.64
2919.59
2940.97
2963.75
2987.86
3013.26
3039.9
3067.72
3096.69
3126.73
3157.8
3189.85
3222.82
3256.67
3291.33
3326.75
3362.89
3399.69
3437.1
3475.07
3513.55
3552.49
3591.85
3631.57
3671.6
3711.91
3752.45
3793.16
3834.02
3874.97
3915.98
3957
3998
4038.94
4079.77
4120.47
4161
4201.32
4241.41
4281.22
4320.74
4359.92
4398.75
4437.2
4475.23
4512.83
4549.98
4586.64
4622.81
4658.46
4693.57
4728.12
4762.11
4795.51
4828.32
4860.51
4892.08
4923.03
4953.33
4982.99
5011.99
5040.34
5068.02
5095.05
5121.4
5147.09
5172.12
5196.48
5220.18
5243.23
5265.62
5287.37
5308.48
5328.96
5348.81
5368.05
5386.68
5404.72
5422.18
5439.08
5455.42
5471.22
5486.5
5501.26
5515.53
5529.33
5542.66
5555.54
5568
5580.05
5591.71
5602.99
5613.91
5624.49
5634.75
5644.7
5654.37
5663.76
5672.9
5681.8
5690.47
5698.92
5707.18
5715.25
5723.14
5730.87
5738.45
5745.87
5753.15
5760.29
5767.3
5774.18
5780.93
5787.55
5794.04
5800.39
5806.6
5812.67
5818.58
5824.33
5829.9
5835.29
5840.49
5845.48
5850.25
5854.79
5859.08
5863.1
5866.85
5870.31
5873.52
5875.88
5882.83
5871.05
5896.98
5866.52
5902.66
5872.03
5892.16
2727.81
2757.46
2715.61
2772.86
2733.82
2775.97
2771.3
2785.69
2800.9
2817.02
2834.8
2854.22
2875.17
2897.61
2921.49
2946.76
2973.35
3001.22
3030.31
3060.56
3091.92
3124.33
3157.73
3192.07
3227.29
3263.33
3300.14
3337.66
3375.85
3414.64
3453.99
3493.84
3534.14
3574.83
3615.88
3657.24
3698.84
3740.66
3782.64
3824.73
3866.9
3909.1
3951.29
3993.43
4035.48
4077.41
4119.16
4160.72
4202.04
4243.1
4283.85
4324.27
4364.34
4404.01
4443.26
4482.08
4520.42
4558.28
4595.62
4632.42
4668.68
4704.36
4739.46
4773.95
4807.82
4841.06
4873.65
4905.59
4936.87
4967.47
4997.39
5026.63
5055.17
5083.02
5110.18
5136.63
5162.39
5187.45
5211.82
5235.5
5258.49
5280.8
5302.43
5323.4
5343.71
5363.36
5382.37
5400.76
5418.52
5435.69
5452.26
5468.26
5483.7
5498.6
5512.96
5526.81
5540.17
5553.05
5565.48
5577.46
5589.02
5600.18
5610.96
5621.37
5631.43
5641.17
5650.61
5659.75
5668.62
5677.24
5685.63
5693.79
5701.75
5709.51
5717.1
5724.53
5731.81
5738.94
5745.94
5752.82
5759.58
5766.22
5772.76
5779.18
5785.5
5791.71
5797.8
5803.77
5809.62
5815.34
5820.92
5826.34
5831.61
5836.69
5841.59
5846.28
5850.75
5854.99
5858.98
5862.7
5866.14
5869.34
5871.71
5878.44
5867
5892.58
5862.4
5898.42
5867.77
5888
2671.96
2702.11
2660
2717.88
2679.36
2721.56
2718.19
2732.91
2748.93
2765.97
2784.73
2805.19
2827.26
2850.87
2875.97
2902.51
2930.42
2959.65
2990.13
3021.79
3054.59
3088.46
3123.34
3159.17
3195.89
3233.43
3271.75
3310.78
3350.47
3390.76
3431.6
3472.92
3514.69
3556.84
3599.33
3642.1
3685.1
3728.3
3771.63
3815.06
3858.53
3902.01
3945.46
3988.82
4032.07
4075.16
4118.05
4160.71
4203.1
4245.19
4286.95
4328.34
4369.34
4409.91
4450.03
4489.67
4528.81
4567.42
4605.48
4642.97
4679.87
4716.17
4751.83
4786.86
4821.23
4854.93
4887.94
4920.27
4951.9
4982.81
5013.01
5042.49
5071.24
5099.26
5126.55
5153.11
5178.93
5204.03
5228.39
5252.03
5274.96
5297.17
5318.67
5339.49
5359.63
5379.04
5397.8
5415.91
5433.37
5450.21
5466.43
5482.06
5497.1
5511.57
5525.49
5538.89
5551.77
5564.16
5576.07
5587.53
5598.56
5609.17
5619.39
5629.24
5638.74
5647.91
5656.77
5665.34
5673.64
5681.69
5689.51
5697.11
5704.52
5711.74
5718.81
5725.72
5732.5
5739.15
5745.69
5752.12
5758.45
5764.69
5770.85
5776.92
5782.9
5788.8
5794.61
5800.33
5805.94
5811.45
5816.85
5822.11
5827.23
5832.2
5837
5841.61
5846.02
5850.21
5854.16
5857.86
5861.29
5864.48
5866.87
5873.38
5862.32
5887.53
5857.64
5893.55
5862.87
5883.2
2611.5
2642.21
2599.82
2658.38
2620.47
2662.73
2660.8
2675.93
2692.87
2710.93
2730.77
2752.4
2775.7
2800.61
2827.07
2855.02
2884.38
2915.09
2947.1
2980.32
3014.7
3050.16
3086.65
3124.1
3162.45
3201.63
3241.58
3282.24
3323.55
3365.46
3407.91
3450.83
3494.17
3537.89
3581.92
3626.22
3670.73
3715.4
3760.18
3805.04
3849.91
3894.77
3939.55
3984.23
4028.75
4073.08
4117.19
4161.02
4204.56
4247.76
4290.58
4333.01
4375
4416.53
4457.57
4498.09
4538.07
4577.48
4616.3
4654.52
4692.1
4729.04
4765.31
4800.9
4835.8
4869.98
4903.45
4936.18
4968.17
4999.42
5029.91
5059.64
5088.6
5116.8
5144.23
5170.88
5196.77
5221.89
5246.25
5269.85
5292.69
5314.78
5336.14
5356.75
5376.62
5395.84
5414.35
5432.16
5449.3
5465.78
5481.61
5496.83
5511.43
5525.44
5538.88
5551.77
5564.13
5575.98
5587.33
5598.22
5608.66
5618.68
5628.29
5637.52
5646.4
5654.94
5663.17
5671.11
5678.78
5686.2
5693.4
5700.39
5707.19
5713.82
5720.31
5726.65
5732.88
5739
5745.02
5750.97
5756.83
5762.63
5768.37
5774.05
5779.67
5785.23
5790.73
5796.17
5801.53
5806.82
5812.01
5817.1
5822.08
5826.92
5831.62
5836.15
5840.5
5844.65
5848.57
5852.26
5855.68
5858.87
5861.28
5867.59
5856.93
5881.74
5852.19
5887.97
5857.26
5877.71
2546.15
2577.48
2534.79
2594.09
2556.89
2599.21
2598.88
2614.54
2632.49
2651.69
2672.76
2695.68
2720.35
2746.7
2774.66
2804.16
2835.12
2867.47
2901.15
2936.07
2972.17
3009.38
3047.62
3086.83
3126.95
3167.89
3209.61
3252.04
3295.11
3338.76
3382.94
3427.58
3472.62
3518.01
3563.7
3609.63
3655.75
3702.01
3748.35
3794.73
3841.1
3887.41
3933.63
3979.7
4025.58
4071.24
4116.64
4161.72
4206.47
4250.85
4294.81
4338.33
4381.38
4423.92
4465.93
4507.39
4548.26
4588.52
4628.15
4667.13
4705.44
4743.06
4779.97
4816.15
4851.6
4886.3
4920.23
4953.39
4985.77
5017.36
5048.15
5078.14
5107.32
5135.7
5163.26
5190.02
5215.97
5241.11
5265.45
5288.99
5311.74
5333.7
5354.89
5375.31
5394.97
5413.9
5432.1
5449.57
5466.35
5482.43
5497.84
5512.6
5526.73
5540.24
5553.15
5565.49
5577.28
5588.53
5599.28
5609.54
5619.34
5628.7
5637.65
5646.21
5654.4
5662.25
5669.79
5677.04
5684.02
5690.75
5697.26
5703.58
5709.71
5715.69
5721.54
5727.26
5732.88
5738.42
5743.88
5749.28
5754.63
5759.95
5765.22
5770.47
5775.69
5780.89
5786.05
5791.18
5796.27
5801.31
5806.3
5811.21
5816.03
5820.75
5825.34
5829.8
5834.09
5838.2
5842.1
5845.78
5849.2
5852.41
5854.84
5860.96
5850.73
5875.13
5845.93
5881.58
5850.85
5871.42
2475.58
2507.59
2464.59
2524.71
2488.32
2530.72
2532.17
2548.49
2567.58
2588.06
2610.47
2634.84
2661.04
2688.99
2718.61
2749.82
2782.54
2816.69
2852.2
2888.98
2926.96
2966.06
3006.21
3047.34
3089.37
3132.23
3175.86
3220.19
3265.15
3310.67
3356.71
3403.19
3450.06
3497.25
3544.71
3592.39
3640.23
3688.17
3736.17
3784.18
3832.14
3880.01
3927.75
3975.3
4022.64
4069.7
4116.47
4162.88
4208.92
4254.54
4299.7
4344.38
4388.55
4432.17
4475.21
4517.65
4559.46
4600.62
4641.1
4680.89
4719.96
4758.29
4795.87
4832.68
4868.71
4903.94
4938.37
4971.98
5004.75
5036.7
5067.8
5098.06
5127.47
5156.03
5183.73
5210.59
5236.59
5261.74
5286.05
5309.53
5332.17
5353.99
5374.99
5395.18
5414.59
5433.22
5451.08
5468.19
5484.56
5500.21
5515.16
5529.43
5543.03
5555.99
5568.33
5580.06
5591.22
5601.83
5611.91
5621.49
5630.59
5639.23
5647.46
5655.28
5662.72
5669.82
5676.61
5683.09
5689.31
5695.29
5701.06
5706.63
5712.04
5717.3
5722.44
5727.47
5732.43
5737.32
5742.16
5746.97
5751.76
5756.53
5761.31
5766.08
5770.87
5775.66
5780.45
5785.25
5790.05
5794.83
5799.58
5804.3
5808.96
5813.54
5818.04
5822.42
5826.66
5830.73
5834.63
5838.31
5841.74
5844.98
5847.46
5853.4
5843.63
5867.61
5838.79
5874.3
5843.55
5864.26
2399.42
2432.19
2388.86
2449.89
2414.43
2456.92
2460.36
2477.51
2497.86
2519.77
2543.71
2569.69
2597.59
2627.31
2658.77
2691.87
2726.53
2762.66
2800.17
2838.99
2879.02
2920.18
2962.4
3005.6
3049.7
3094.63
3140.31
3186.69
3233.68
3281.22
3329.25
3377.71
3426.52
3475.63
3524.99
3574.53
3624.2
3673.95
3723.71
3773.45
3823.1
3872.63
3921.98
3971.11
4019.98
4068.54
4116.75
4164.57
4211.97
4258.9
4305.34
4351.25
4396.59
4441.34
4485.47
4528.95
4571.75
4613.85
4655.23
4695.87
4735.74
4774.82
4813.11
4850.57
4887.21
4923
4957.94
4992.01
5025.2
5057.52
5088.95
5119.48
5149.12
5177.86
5205.7
5232.65
5258.7
5283.86
5308.13
5331.52
5354.04
5375.69
5396.48
5416.43
5435.55
5453.86
5471.35
5488.05
5503.99
5519.16
5533.61
5547.33
5560.37
5572.73
5584.43
5595.52
5606
5615.9
5625.26
5634.09
5642.42
5650.29
5657.71
5664.73
5671.36
5677.64
5683.59
5689.25
5694.64
5699.79
5704.73
5709.49
5714.09
5718.56
5722.93
5727.21
5731.43
5735.62
5739.78
5743.93
5748.1
5752.28
5756.5
5760.76
5765.06
5769.41
5773.8
5778.24
5782.71
5787.21
5791.72
5796.23
5800.72
5805.18
5809.57
5813.88
5818.07
5822.13
5826.02
5829.72
5833.19
5836.47
5839.01
5844.79
5835.51
5859.05
5830.66
5866.02
5835.25
5856.12
2317.25
2350.87
2307.2
2369.24
2334.86
2377.46
2383.11
2401.29
2423.07
2446.59
2472.24
2500.02
2529.82
2561.51
2595
2630.19
2666.99
2705.28
2745
2786.03
2828.29
2871.69
2916.16
2961.6
3007.93
3055.09
3102.99
3151.56
3200.74
3250.44
3300.6
3351.16
3402.06
3453.22
3504.59
3556.12
3607.74
3659.4
3711.04
3762.61
3814.06
3865.34
3916.4
3967.2
4017.69
4067.83
4117.57
4166.87
4215.71
4264.03
4311.81
4359.01
4405.6
4451.54
4496.81
4541.38
4585.22
4628.32
4670.63
4712.16
4752.86
4792.74
4831.75
4869.91
4907.18
4943.55
4979.02
5013.57
5047.2
5079.9
5111.66
5142.47
5172.34
5201.27
5229.25
5256.28
5282.38
5307.53
5331.75
5355.04
5377.41
5398.88
5419.44
5439.11
5457.91
5475.85
5492.95
5509.22
5524.67
5539.34
5553.23
5566.37
5578.78
5590.49
5601.51
5611.88
5621.62
5630.76
5639.32
5647.34
5654.84
5661.86
5668.42
5674.55
5680.29
5685.67
5690.72
5695.47
5699.95
5704.2
5708.24
5712.1
5715.82
5719.43
5722.94
5726.39
5729.81
5733.21
5736.62
5740.05
5743.53
5747.07
5750.68
5754.36
5758.14
5762
5765.95
5770
5774.12
5778.31
5782.56
5786.86
5791.17
5795.49
5799.78
5804.03
5808.19
5812.24
5816.15
5819.88
5823.4
5826.74
5829.36
5835.01
5826.25
5849.35
5821.42
5856.64
5825.86
5846.89
2228.58
2263.15
2219.14
2282.29
2249.18
2291.92
2300.06
2319.49
2342.88
2368.22
2395.79
2425.61
2457.52
2491.41
2527.15
2564.65
2603.8
2644.48
2686.59
2730.04
2774.73
2820.57
2867.46
2915.33
2964.07
3013.63
3063.91
3114.84
3166.34
3218.35
3270.8
3323.6
3376.71
3430.06
3483.58
3537.22
3590.9
3644.59
3698.22
3751.73
3805.08
3858.22
3911.09
3963.65
4015.85
4067.65
4119.01
4169.88
4220.23
4270.01
4319.2
4367.76
4415.65
4462.84
4509.31
4555.03
4599.96
4644.09
4687.4
4729.85
4771.43
4812.12
4851.91
4890.78
4928.7
4965.69
5001.71
5036.76
5070.83
5103.92
5136.02
5167.12
5197.23
5226.34
5254.46
5281.57
5307.7
5332.83
5356.98
5380.16
5402.37
5423.62
5443.93
5463.3
5481.75
5499.3
5515.96
5531.74
5546.68
5560.78
5574.07
5586.58
5598.31
5609.31
5619.59
5629.19
5638.12
5646.43
5654.13
5661.27
5667.86
5673.95
5679.57
5684.74
5689.51
5693.91
5697.97
5701.72
5705.21
5708.46
5711.52
5714.4
5717.16
5719.81
5722.39
5724.93
5727.45
5730
5732.57
5735.21
5737.94
5740.76
5743.69
5746.75
5749.94
5753.27
5756.74
5760.35
5764.09
5767.95
5771.92
5775.99
5780.12
5784.3
5788.5
5792.68
5796.83
5800.89
5804.83
5808.63
5812.22
5815.64
5818.36
5823.93
5815.72
5838.38
5810.95
5846.01
5815.23
5836.44
2132.86
2168.5
2124.13
2188.56
2156.92
2199.86
2210.78
2231.74
2256.96
2284.37
2314.11
2346.2
2380.49
2416.82
2455.08
2495.13
2536.86
2580.15
2624.9
2670.99
2718.32
2766.79
2816.31
2866.78
2918.13
2970.26
3023.09
3076.54
3130.54
3185.01
3239.89
3295.09
3350.56
3406.22
3462.02
3517.89
3573.77
3629.6
3685.33
3740.9
3796.26
3851.35
3906.13
3960.55
4014.55
4068.1
4121.16
4173.68
4225.62
4276.94
4327.61
4377.59
4426.85
4475.35
4523.08
4569.99
4616.07
4661.29
4705.62
4749.04
4791.53
4833.08
4873.67
4913.27
4951.89
4989.5
5026.09
5061.66
5096.19
5129.68
5162.13
5193.53
5223.87
5253.17
5281.41
5308.6
5334.74
5359.85
5383.92
5406.96
5428.98
5450
5470.02
5489.06
5507.13
5524.24
5540.43
5555.69
5570.06
5583.55
5596.19
5608.01
5619.01
5629.24
5638.72
5647.47
5655.54
5662.94
5669.71
5675.88