/*--------------------------------*- C++ -*----------------------------------*\
| =========                 |                                                 |
| \\      /  F ield         | OpenFOAM: The Open Source CFD Toolbox           |
|  \\    /   O peration     | Version:  v2006                                 |
|   \\  /    A nd           | Website:  www.openfoam.com                      |
|    \\/     M anipulation  |                                                 |
\*---------------------------------------------------------------------------*/
FoamFile
{
    version     2.0;
    format      ascii;
    class       volScalarField;
    location    "0";
    object      alpha.water;
}
// * * * * * * * * * * * * * * * * * * * * * * * * * * * * * * * * * * * * * //

dimensions      [0 0 0 0 0 0 0];


internalField   nonuniform List<scalar> 
67500
(
0.996865
0.995799
0.631384
0.0517524
0.130359
0.229079
0.258095
0.373343
0.602339
0.732609
0.801655
0.805531
0.805531
0.798311
0.767239
0.767146
0.707921
0.328269
0.717489
0.999983
0.999983
0.999983
0.979853
0.967207
0.987788
0.999379
1
1
1
1
1
1
1
1
1
1
1
1
1
1
1
1
1
1
1
1
1
1
1
1
1
1
1
1
1
1
1
1
1
1
1
1
1
1
1
1
1
1
1
1
1
1
1
1
1
1
1
1
1
1
1
1
1
1
1
1
1
1
1
1
1
1
1
1
1
1
1
1
1
1
1
1
1
1
1
1
1
1
1
1
1
1
1
1
1
1
1
1
1
1
1
1
1
1
1
1
1
1
1
1
1
1
1
1
1
1
1
1
1
1
1
1
1
1
1
1
1
1
1
1
1
1
1
1
1
1
1
1
1
1
1
1
1
1
1
1
1
1
1
1
1
1
1
1
1
1
1
1
1
1
1
1
1
1
1
1
1
1
1
1
1
1
1
1
1
1
1
1
1
1
1
1
1
1
1
1
1
1
1
1
1
1
1
1
1
1
1
1
1
1
1
1
1
1
1
1
1
1
1
1
1
1
1
1
1
1
1
1
1
1
1
1
1
1
1
1
1
1
1
1
1
1
1
1
1
1
1
1
1
1
1
1
1
1
1
1
1
1
1
1
1
1
1
1
1
1
1
1
1
1
1
1
1
1
1
1
1
1
1
1
1
1
1
1
1
1
1
1
1
1
1
1
1
1
1
1
1
1
1
1
1
1
1
1
1
1
1
1
1
1
1
1
1
1
1
1
1
1
1
1
1
1
1
1
1
1
1
1
1
1
1
1
1
1
1
1
1
1
1
1
1
1
1
1
1
1
1
1
1
1
1
1
1
1
1
1
1
1
1
1
1
1
1
1
1
1
1
1
1
1
1
1
1
1
1
1
1
1
1
1
1
1
1
1
1
1
1
1
1
1
1
1
1
1
1
1
1
1
1
1
1
1
1
1
1
1
1
1
1
1
1
1
1
1
1
1
1
1
1
1
1
1
1
1
1
1
1
1
1
1
1
1
1
1
1
1
1
1
1
1
0.996865
0.873356
0.0546893
0.0405913
0.038226
0.198153
0.391023
0.345629
0.0355592
0.0814461
0.3019
0.530011
0.659289
0.404015
0.22138
0.223246
0.157918
0.108864
0.107542
0.275652
0.461747
0.263969
0.193474
0.192334
0.684672
0.999047
1
1
1
1
1
1
1
1
1
1
1
1
1
1
1
1
1
1
1
1
1
1
1
1
1
1
1
1
1
1
1
1
1
1
1
1
1
1
1
1
1
1
1
1
1
1
1
1
1
1
1
1
1
1
1
1
1
1
1
1
1
1
1
1
1
1
1
1
1
1
1
1
1
1
1
1
1
1
1
1
1
1
1
1
1
1
1
1
1
1
1
1
1
1
1
1
1
1
1
1
1
1
1
1
1
1
1
1
1
1
1
1
1
1
1
1
1
1
1
1
1
1
1
1
1
1
1
1
1
1
1
1
1
1
1
1
1
1
1
1
1
1
1
1
1
1
1
1
1
1
1
1
1
1
1
1
1
1
1
1
1
1
1
1
1
1
1
1
1
1
1
1
1
1
1
1
1
1
1
1
1
1
1
1
1
1
1
1
1
1
1
1
1
1
1
1
1
1
1
1
1
1
1
1
1
1
1
1
1
1
1
1
1
1
1
1
1
1
1
1
1
1
1
1
1
1
1
1
1
1
1
1
1
1
1
1
1
1
1
1
1
1
1
1
1
1
1
1
1
1
1
1
1
1
1
1
1
1
1
1
1
1
1
1
1
1
1
1
1
1
1
1
1
1
1
1
1
1
1
1
1
1
1
1
1
1
1
1
1
1
1
1
1
1
1
1
1
1
1
1
1
1
1
1
1
1
1
1
1
1
1
1
1
1
1
1
1
1
1
1
1
1
1
1
1
1
1
1
1
1
1
1
1
1
1
1
1
1
1
1
1
1
1
1
1
1
1
1
1
1
1
1
1
1
1
1
1
1
1
1
1
1
1
1
1
1
1
1
1
1
1
1
1
1
1
1
1
1
1
1
1
1
1
1
1
1
1
1
1
1
1
1
1
1
1
1
1
1
1
1
1
1
1
1
1
1
1
1
1
1
1
1
1
1
1
1
1
1
1
1
1
1
1
1
0.996259
0.699217
0.185469
0.278632
0.276562
0.051358
0.0526152
0.00614387
-3.25237e-22
-5.72272e-22
4.23045e-23
-3.01861e-25
-2.40286e-19
0.153719
0.179803
0.162458
0.230636
0.264938
0.167443
0.153093
0.153115
0.232812
0.779005
0.995599
1
1
1
1
1
1
0.994645
0.97791
0.965865
0.965952
0.959747
0.937044
0.932771
0.921033
0.906048
0.89276
0.878499
0.860948
0.837734
0.810948
0.787391
0.776132
0.777271
0.787295
0.802843
0.819515
0.834139
0.8458
0.853862
0.856985
0.856667
0.855077
0.854442
0.857149
0.864806
0.877101
0.892147
0.907439
0.920814
0.931066
0.938066
0.942497
0.945548
0.948601
0.95285
0.958888
0.966451
0.974637
0.982421
0.989065
0.994229
0.997795
0.999684
1
1
1
1
1
1
1
1
1
1
1
1
1
1
1
1
1
1
1
1
1
1
1
1
1
1
1
1
1
1
1
1
1
1
1
1
1
1
1
1
1
1
1
1
1
1
1
1
1
1
1
1
1
1
1
1
1
1
1
1
1
1
1
1
1
1
1
1
1
1
1
1
1
1
1
1
1
1
1
1
1
1
1
1
1
1
1
1
1
1
1
1
1
1
1
1
1
1
1
1
1
1
1
1
1
1
1
1
1
1
1
1
1
1
1
1
1
1
1
1
1
1
1
1
1
1
1
1
1
1
1
1
1
1
1
1
1
1
1
1
1
1
1
1
1
1
1
1
1
1
1
1
1
1
1
1
1
1
1
1
1
1
1
1
1
1
1
1
1
1
1
1
1
1
1
1
1
1
1
1
1
1
1
1
1
1
1
1
1
1
1
1
1
1
1
1
1
1
1
1
1
1
1
1
1
1
1
1
1
1
1
1
1
1
1
1
1
1
1
1
1
1
1
1
1
1
1
1
1
1
1
1
1
1
1
1
1
1
1
1
1
1
1
1
1
1
1
1
1
1
1
1
1
1
1
1
1
1
1
1
1
1
1
1
1
1
1
1
1
1
1
1
1
1
1
1
1
1
1
1
1
1
1
1
1
1
1
1
1
1
1
1
1
1
1
1
1
1
1
1
1
1
1
1
1
1
1
1
1
1
1
1
1
1
1
1
1
1
1
1
1
1
1
1
1
1
1
1
1
1
1
1
1
1
1
1
1
1
1
1
1
1
1
1
1
1
1
1
1
1
1
1
1
1
1
1
1
1
1
1
1
1
1
1
1
1
1
1
1
1
1
1
1
0.996301
0.693211
0.185658
0.0360585
0.00124607
0.00709507
0.000157769
0.000152889
0.000146653
6.38415e-05
2.39474e-05
2.55474e-22
-3.52781e-21
0.00107906
-9.7047e-21
-5.71974e-22
0.0614369
0.669006
0.864988
0.864073
0.896184
0.977236
0.979711
0.978879
0.960613
0.983336
0.975295
0.943546
1
0.905997
0.455707
0.319168
0.540005
0.553202
0.108082
1.2408e-22
0.0125591
0.00561548
0
-2.87415e-13
2.97979e-15
0.00101271
0.00422296
0.0091595
0.0166577
0.0267153
0.0373699
0.0453185
0.0491133
0.0498888
0.049642
0.050161
0.0522356
0.0559976
0.061642
0.069711
0.0810654
0.0968106
0.117645
0.143519
0.172592
0.200554
0.222205
0.235132
0.241588
0.246435
0.254107
0.26713
0.286795
0.314074
0.348825
0.389771
0.435135
0.483749
0.535783
0.592153
0.654868
0.726473
0.780274
0.822343
0.85998
0.891759
0.917637
0.938257
0.954324
0.96663
0.975977
0.983106
0.988636
0.993008
0.996423
0.998818
0.999934
1
1
1
1
1
1
1
1
1
1
1
1
1
1
1
1
1
1
1
1
1
1
1
1
1
1
1
1
1
1
1
1
1
1
1
1
1
1
1
1
1
1
1
1
1
1
1
1
1
1
1
1
1
1
1
1
1
1
1
1
1
1
1
1
1
1
1
1
1
1
1
1
1
1
1
1
1
1
1
1
1
1
1
1
1
1
1
1
1
1
1
1
1
1
1
1
1
1
1
1
1
1
1
1
1
1
1
1
1
1
1
1
1
1
1
1
1
1
1
1
1
1
1
1
1
1
1
1
1
1
1
1
1
1
1
1
1
1
1
1
1
1
1
1
1
1
1
1
1
1
1
1
1
1
1
1
1
1
1
1
1
1
1
1
1
1
1
1
1
1
1
1
1
1
1
1
1
1
1
1
1
1
1
1
1
1
1
1
1
1
1
1
1
1
1
1
1
1
1
1
1
1
1
1
1
1
1
1
1
1
1
1
1
1
1
1
1
1
1
1
1
1
1
1
1
1
1
1
1
1
1
1
1
1
1
1
1
1
1
1
1
1
1
1
1
1
1
1
1
1
1
1
1
1
1
1
1
1
1
1
1
1
1
1
1
1
1
1
1
1
1
1
1
1
1
1
1
1
1
1
1
1
1
1
1
1
1
1
1
1
1
1
1
1
1
1
1
1
1
1
1
1
1
1
1
1
1
1
1
1
1
1
1
1
1
1
1
1
1
1
1
1
1
1
1
1
1
1
1
1
1
1
1
1
1
1
1
1
1
1
1
1
1
1
1
1
1
1
1
1
1
1
1
1
1
1
1
0.991685
0.611656
-9.79813e-19
0.00578642
5.44312e-06
5.34103e-06
0.000254455
0.000210922
0
-1.3204e-22
3.38587e-05
0.000161771
6.13038e-22
4.1764e-22
-1.55813e-22
-6.1161e-23
0.00165437
0.00137717
0.353322
0.981824
1
1
0.11134
4.18541e-21
0
0.0176309
0.0698608
0.146906
0.244381
0.106942
3.14095e-17
0.00163927
0.016333
0.0335989
-2.41956e-19
0
5.37806e-36
-3.32254e-21
3.48987e-19
3.86753e-19
2.9989e-17
6.1887e-37
-9.11558e-37
8.09939e-36
5.56811e-36
-1.69025e-36
1.76587e-36
-2.06193e-38
-4.23186e-39
2.42987e-37
2.21702e-37
3.74472e-37
-5.43266e-37
6.1664e-39
-2.31161e-37
8.53611e-40
1.39901e-37
-2.26337e-40
-4.67032e-38
-2.66919e-38
-1.98452e-21
-2.86894e-21
-2.78233e-21
-2.37361e-21
-2.155e-21
-2.13248e-21
-2.08521e-21
-1.95697e-21
-1.89703e-21
-2.13368e-21
-2.94143e-21
-4.50048e-21
-6.16605e-21
-5.98951e-21
-3.41203e-21
-3.10019e-22
-1.41555e-21
-3.71885e-22
0.0266895
0.0652028
0.108555
0.154819
0.203002
0.251588
0.299204
0.344899
0.387852
0.428617
0.469336
0.512617
0.560922
0.615804
0.677332
0.744511
0.795157
0.833912
0.871152
0.905795
0.936391
0.961527
0.980306
0.992626
0.99886
1
1
1
1
1
1
1
1
1
1
1
1
1
1
1
1
1
1
1
1
1
1
1
1
1
1
1
1
1
1
1
1
1
1
1
1
1
1
1
1
1
1
1
1
1
1
1
1
1
1
1
1
1
1
1
1
1
1
1
1
1
1
1
1
1
1
1
1
1
1
1
1
1
1
1
1
1
1
1
1
1
1
1
1
1
1
1
1
1
1
1
1
1
1
1
1
1
1
1
1
1
1
1
1
1
1
1
1
1
1
1
1
1
1
1
1
1
1
1
1
1
1
1
1
1
1
1
1
1
1
1
1
1
1
1
1
1
1
1
1
1
1
1
1
1
1
1
1
1
1
1
1
1
1
1
1
1
1
1
1
1
1
1
1
1
1
1
1
1
1
1
1
1
1
1
1
1
1
1
1
1
1
1
1
1
1
1
1
1
1
1
1
1
1
1
1
1
1
1
1
1
1
1
1
1
1
1
1
1
1
1
1
1
1
1
1
1
1
1
1
1
1
1
1
1
1
1
1
1
1
1
1
1
1
1
1
1
1
1
1
1
1
1
1
1
1
1
1
1
1
1
1
1
1
1
1
1
1
1
1
1
1
1
1
1
1
1
1
1
1
1
1
1
1
1
1
1
1
1
1
1
1
1
1
1
1
1
1
1
1
1
1
1
1
1
1
1
1
1
1
1
1
1
1
1
1
1
1
1
1
1
1
1
1
1
1
1
1
1
1
1
1
1
1
1
1
1
1
1
1
1
1
1
1
1
1
1
1
1
1
1
1
1
1
1
1
1
0.933486
0.450952
-1.80272e-20
-2.29252e-20
2.29595e-05
0.000227898
0.00021211
-6.40102e-25
2.22105e-26
-6.98729e-22
0.00042237
0.00649457
0.00479796
-9.02531e-22
-1.78762e-22
-1.3645e-19
0.163643
0.736526
0.73612
0.583454
0.227421
0.0758802
2.94596e-22
-1.60917e-34
-4.2917e-33
9.78517e-36
-6.48021e-23
-7.63682e-21
-7.49405e-21
2.72402e-19
3.03117e-17
1.85976e-18
1.71918e-18
1.66501e-18
1.55498e-18
2.41745e-18
2.70949e-17
4.51619e-17
4.78092e-17
4.07801e-17
3.10596e-17
2.20501e-17
1.53143e-17
1.04423e-17
7.03167e-18
4.69642e-18
3.13148e-18
2.10561e-18
1.44122e-18
1.00909e-18
7.21327e-19
5.22704e-19
3.80424e-19
2.75531e-19
1.97105e-19
1.38531e-19
9.53122e-20
6.396e-20
4.16095e-20
2.59286e-20
1.50532e-20
7.57614e-21
2.55537e-21
-6.69882e-22
-2.602e-21
-3.75477e-21
-4.5454e-21
-5.31452e-21
-6.23962e-21
-7.16488e-21
-7.91261e-21
-8.60095e-21
-9.32335e-21
-1.02279e-20
-1.1444e-20
-1.26054e-20
-1.33855e-20
-1.40288e-20
-1.42641e-20
-1.40066e-20
-1.33066e-20
-1.24154e-20
-1.14735e-20
-1.06867e-20
-1.06676e-20
-1.12373e-20
-1.46291e-20
-2.52338e-20
-2.61982e-20
-6.44671e-21
-3.04947e-23
-3.34177e-39
-3.46903e-22
-2.43834e-19
0.0200303
0.0545635
0.0981142
0.15424
0.225287
0.310208
0.405992
0.509412
0.617513
0.726415
0.826449
0.886843
0.931503
0.965216
0.986977
0.997842
1
1
1
1
1
1
1
1
1
1
1
1
1
1
1
1
1
1
1
1
1
1
1
1
1
1
1
1
1
1
1
1
1
1
1
1
1
1
1
1
1
1
1
1
1
1
1
1
1
1
1
1
1
1
1
1
1
1
1
1
1
1
1
1
1
1
1
1
1
1
1
1
1
1
1
1
1
1
1
1
1
1
1
1
1
1
1
1
1
1
1
1
1
1
1
1
1
1
1
1
1
1
1
1
1
1
1
1
1
1
1
1
1
1
1
1
1
1
1
1
1
1
1
1
1
1
1
1
1
1
1
1
1
1
1
1
1
1
1
1
1
1
1
1
1
1
1
1
1
1
1
1
1
1
1
1
1
1
1
1
1
1
1
1
1
1
1
1
1
1
1
1
1
1
1
1
1
1
1
1
1
1
1
1
1
1
1
1
1
1
1
1
1
1
1
1
1
1
1
1
1
1
1
1
1
1
1
1
1
1
1
1
1
1
1
1
1
1
1
1
1
1
1
1
1
1
1
1
1
1
1
1
1
1
1
1
1
1
1
1
1
1
1
1
1
1
1
1
1
1
1
1
1
1
1
1
1
1
1
1
1
1
1
1
1
1
1
1
1
1
1
1
1
1
1
1
1
1
1
1
1
1
1
1
1
1
1
1
1
1
1
1
1
1
1
1
1
1
1
1
1
1
1
1
1
1
1
1
1
1
1
1
1
1
1
1
1
1
1
1
1
1
1
1
1
1
1
1
1
1
1
1
1
1
1
1
1
1
1
1
0.839453
0.247974
-7.38946e-21
1.32571e-22
3.87639e-05
0.000147199
3.86273e-06
4.77914e-24
6.45132e-08
-6.16179e-22
-5.79056e-20
0.0365111
0.271568
0.295762
0.295813
0.287773
0.045214
-2.06641e-32
7.84292e-32
-7.0338e-32
1.33362e-19
4.02283e-19
2.21505e-12
1.66602e-13
-3.59042e-35
2.66231e-16
6.89668e-16
-1.03738e-22
-6.71472e-23
1.68584e-34
2.77241e-16
3.70962e-16
4.50584e-16
3.31916e-16
2.07985e-16
1.92152e-16
1.96034e-16
1.87886e-16
1.62274e-16
1.265e-16
9.13389e-17
6.3159e-17
4.29062e-17
2.90555e-17
1.97574e-17
1.35464e-17
9.39297e-18
6.59956e-18
4.70045e-18
3.39054e-18
2.47172e-18
1.81573e-18
1.33933e-18
9.88501e-19
7.27849e-19
5.33558e-19
3.88876e-19
2.81514e-19
2.02236e-19
1.44057e-19
1.01676e-19
7.10295e-20
4.90074e-20
3.32535e-20
2.20109e-20
1.39878e-20
8.25229e-21
4.14382e-21
1.19047e-21
-9.54525e-22
-2.56118e-21
-3.85223e-21
-4.99955e-21
-6.11226e-21
-7.25951e-21
-8.55533e-21
-1.02662e-20
-1.26798e-20
-1.57421e-20
-1.89045e-20
-2.16925e-20
-2.37661e-20
-2.47373e-20
-2.44602e-20
-2.30753e-20
-2.07579e-20
-1.76725e-20
-1.38537e-20
-9.49217e-21
-5.13181e-21
-1.21667e-21
2.24521e-21
4.64996e-21
1.92448e-21
3.33961e-37
8.90701e-39
2.15535e-36
4.17236e-36
-1.11669e-36
-6.02369e-36
-7.12036e-36
-2.79941e-18
-7.39184e-18
-7.27762e-18
0.0110586
0.080588
0.182867
0.308785
0.447702
0.587885
0.722071
0.847916
0.920369
0.963531
0.988746
0.999115
1
1
1
1
1
1
1
1
1
1
1
1
1
1
1
1
1
1
1
1
1
1
1
1
1
1
1
1
1
1
1
1
1
1
1
1
1
1
1
1
1
1
1
1
1
1
1
1
1
1
1
1
1
1
1
1
1
1
1
1
1
1
1
1
1
1
1
1
1
1
1
1
1
1
1
1
1
1
1
1
1
1
1
1
1
1
1
1
1
1
1
1
1
1
1
1
1
1
1
1
1
1
1
1
1
1
1
1
1
1
1
1
1
1
1
1
1
1
1
1
1
1
1
1
1
1
1
1
1
1
1
1
1
1
1
1
1
1
1
1
1
1
1
1
1
1
1
1
1
1
1
1
1
1
1
1
1
1
1
1
1
1
1
1
1
1
1
1
1
1
1
1
1
1
1
1
1
1
1
1
1
1
1
1
1
1
1
1
1
1
1
1
1
1
1
1
1
1
1
1
1
1
1
1
1
1
1
1
1
1
1
1
1
1
1
1
1
1
1
1
1
1
1
1
1
1
1
1
1
1
1
1
1
1
1
1
1
1
1
1
1
1
1
1
1
1
1
1
1
1
1
1
1
1
1
1
1
1
1
1
1
1
1
1
1
1
1
1
1
1
1
1
1
1
1
1
1
1
1
1
1
1
1
1
1
1
1
1
1
1
1
1
1
1
1
1
1
1
1
1
1
1
1
1
1
1
1
1
1
1
1
1
1
1
1
1
1
1
1
1
1
1
1
1
1
1
1
1
1
1
1
1
1
1
0.834559
0.121563
-2.09674e-25
3.98072e-07
9.59344e-06
9.28026e-06
1.68234e-07
5.64215e-07
1.08165e-07
-1.21259e-21
-3.38741e-20
0.0109661
0.0932008
0.179992
0.0904207
-1.61349e-19
0.000479252
2.23706e-29
3.0339e-12
4.97589e-12
5.41624e-12
6.2875e-12
6.0798e-12
2.02478e-12
-7.22842e-31
1.35816e-13
2.74392e-13
9.77049e-14
4.44495e-14
4.90143e-14
3.39331e-14
8.80138e-15
1.07286e-15
9.62485e-16
8.25026e-16
7.06565e-16
5.85052e-16
4.70953e-16
3.59849e-16
2.59003e-16
1.77412e-16
1.17893e-16
7.73744e-17
5.08193e-17
3.37098e-17
2.27228e-17
1.56221e-17
1.09696e-17
7.8611e-18
5.73451e-18
4.24223e-18
3.1691e-18
2.38075e-18
1.79199e-18
1.34745e-18
1.00982e-18
7.52867e-19
5.57513e-19
4.09515e-19
2.98097e-19
2.14964e-19
1.53576e-19
1.08719e-19
7.62553e-20
5.29512e-20
3.63264e-20
2.45199e-20
1.61674e-20
1.02811e-20
6.14667e-21
3.24702e-21
1.20771e-21
-2.39971e-22
-1.28845e-21
-2.0786e-21
-2.71815e-21
-3.29788e-21
-3.90159e-21
-4.60906e-21
-5.49975e-21
-6.66926e-21
-8.22289e-21
-1.02351e-20
-1.27032e-20
-1.55081e-20
-1.83767e-20
-2.08976e-20
-2.25154e-20
-2.23898e-20
-1.91732e-20
-1.06078e-20
7.4542e-21
4.31354e-20
1.11137e-19
2.53313e-19
5.24331e-19
9.6597e-19
1.61338e-18
2.43897e-18
3.34777e-18
4.16783e-18
-6.8064e-19
-2.5254e-17
-5.79462e-17
-7.5668e-17
-6.75837e-17
-4.42952e-17
-2.22e-17
-7.83076e-18
-1.2022e-18
8.23283e-36
0.00167686
0.105811
0.277511
0.459971
0.625119
0.773438
0.898724
0.962666
0.991284
0.999814
1
1
1
1
1
1
1
1
1
1
1
1
1
1
1
1
1
1
1
1
1
1
1
1
1
1
1
1
1
1
1
1
1
1
1
1
1
1
1
1
1
1
1
1
1
1
1
1
1
1
1
1
1
1
1
1
1
1
1
1
1
1
1
1
1
1
1
1
1
1
1
1
1
1
1
1
1
1
1
1
1
1
1
1
1
1
1
1
1
1
1
1
1
1
1
1
1
1
1
1
1
1
1
1
1
1
1
1
1
1
1
1
1
1
1
1
1
1
1
1
1
1
1
1
1
1
1
1
1
1
1
1
1
1
1
1
1
1
1
1
1
1
1
1
1
1
1
1
1
1
1
1
1
1
1
1
1
1
1
1
1
1
1
1
1
1
1
1
1
1
1
1
1
1
1
1
1
1
1
1
1
1
1
1
1
1
1
1
1
1
1
1
1
1
1
1
1
1
1
1
1
1
1
1
1
1
1
1
1
1
1
1
1
1
1
1
1
1
1
1
1
1
1
1
1
1
1
1
1
1
1
1
1
1
1
1
1
1
1
1
1
1
1
1
1
1
1
1
1
1
1
1
1
1
1
1
1
1
1
1
1
1
1
1
1
1
1
1
1
1
1
1
1
1
1
1
1
1
1
1
1
1
1
1
1
1
1
1
1
1
1
1
1
1
1
1
1
1
1
1
1
1
1
1
1
1
1
1
1
1
1
1
1
1
1
1
1
1
1
1
1
1
1
1
1
1
1
1
1
0.827722
0.074903
-4.40286e-28
4.75355e-08
-1.34071e-23
-4.75206e-23
1.73811e-07
5.79183e-07
3.92651e-08
-2.99615e-28
-8.25003e-23
-8.32497e-22
-6.13166e-22
3.59198e-21
0.000277124
-2.96528e-21
-2.15926e-22
-2.24666e-23
-1.3517e-22
1.60056e-12
3.63721e-12
6.11262e-12
4.82266e-12
9.98388e-13
2.23763e-13
1.0147e-12
1.04479e-12
8.41804e-13
5.30031e-13
4.44803e-13
3.31547e-13
2.11753e-13
6.62363e-14
6.6885e-15
1.51723e-15
1.28233e-15
1.11251e-15
9.28873e-16
7.10561e-16
5.09213e-16
3.48169e-16
2.31408e-16
1.52077e-16
1.00215e-16
6.69151e-17
4.5568e-17
3.17313e-17
2.25872e-17
1.63998e-17
1.2109e-17
9.06326e-18
6.85551e-18
5.22534e-18
4.00222e-18
3.07183e-18
2.35609e-18
1.80084e-18
1.36801e-18
1.0304e-18
7.68108e-19
5.66002e-19
4.1205e-19
2.96326e-19
2.10542e-19
1.47816e-19
1.02544e-19
7.02618e-20
4.75083e-20
3.16519e-20
2.07227e-20
1.32652e-20
8.21803e-21
4.82051e-21
2.53634e-21
9.91674e-22
-7.09854e-23
-8.26939e-22
-1.39384e-21
-1.85007e-21
-2.25055e-21
-2.64029e-21
-3.06225e-21
-3.56206e-21
-4.19176e-21
-5.00982e-21
-6.07123e-21
-7.39949e-21
-8.91157e-21
-1.02141e-20
-1.01132e-20
-5.52171e-21
1.08451e-20
5.50774e-20
1.60421e-19
3.90484e-19
8.57725e-19
1.74397e-18
3.30465e-18
5.82523e-18
9.53311e-18
1.45138e-17
1.95123e-17
1.84964e-17
1.71412e-18
-3.09155e-17
-5.99876e-17
-6.42645e-17
-4.46565e-17
-1.72108e-17
5.14861e-19
3.28308e-18
2.0479e-35
-1.63055e-22
6.91167e-28
-1.41119e-26
-1.65343e-27
-3.25829e-42
0.0251848
0.225437
0.467553
0.656358
0.80893
0.930396
0.984957
0.999592
1
1
1
1
1
1
1
1
1
1
1
1
1
1
1
1
1
1
1
1
1
1
1
1
1
1
1
1
1
1
1
1
1
1
1
1
1
1
1
1
1
1
1
1
1
1
1
1
1
1
1
1
1
1
1
1
1
1
1
1
1
1
1
1
1
1
1
1
1
1
1
1
1
1
1
1
1
1
1
1
1
1
1
1
1
1
1
1
1
1
1
1
1
1
1
1
1
1
1
1
1
1
1
1
1
1
1
1
1
1
1
1
1
1
1
1
1
1
1
1
1
1
1
1
1
1
1
1
1
1
1
1
1
1
1
1
1
1
1
1
1
1
1
1
1
1
1
1
1
1
1
1
1
1
1
1
1
1
1
1
1
1
1
1
1
1
1
1
1
1
1
1
1
1
1
1
1
1
1
1
1
1
1
1
1
1
1
1
1
1
1
1
1
1
1
1
1
1
1
1
1
1
1
1
1
1
1
1
1
1
1
1
1
1
1
1
1
1
1
1
1
1
1
1
1
1
1
1
1
1
1
1
1
1
1
1
1
1
1
1
1
1
1
1
1
1
1
1
1
1
1
1
1
1
1
1
1
1
1
1
1
1
1
1
1
1
1
1
1
1
1
1
1
1
1
1
1
1
1
1
1
1
1
1
1
1
1
1
1
1
1
1
1
1
1
1
1
1
1
1
1
1
1
1
1
1
1
1
1
1
1
1
1
1
1
1
1
1
1
1
1
1
1
1
1
0.48197
0.0805523
-3.70264e-24
9.51482e-28
-2.87375e-24
-4.57654e-24
6.18778e-25
6.83033e-08
3.05516e-26
2.01661e-10
4.55403e-09
5.94021e-05
0.000586697
0.000603521
0.000584853
3.79303e-06
9.07423e-05
0.000248814
0.000126017
-1.09894e-21
1.04444e-20
7.44138e-13
1.1903e-12
4.83756e-13
7.51891e-13
8.56524e-13
7.32216e-13
5.85851e-13
4.45856e-13
3.9314e-13
3.94395e-13
4.939e-13
4.41817e-13
2.40909e-13
6.06945e-14
3.41136e-15
1.55158e-15
1.36277e-15
1.13573e-15
8.46971e-16
5.8894e-16
3.94564e-16
2.60786e-16
1.73066e-16
1.1674e-16
8.05795e-17
5.70038e-17
4.12517e-17
3.04382e-17
2.28274e-17
1.73586e-17
1.33627e-17
1.03998e-17
8.16894e-18
6.45854e-18
5.1201e-18
4.0519e-18
3.18668e-18
2.481e-18
1.90651e-18
1.44322e-18
1.07513e-18
7.8793e-19
5.6816e-19
4.03258e-19
2.81865e-19
1.94113e-19
1.31771e-19
8.82062e-20
5.82381e-20
3.79217e-20
2.43298e-20
1.53419e-20
9.4567e-21
5.63213e-21
3.15836e-21
1.55999e-21
5.22838e-22
-1.60003e-22
-6.2601e-22
-9.67401e-22
-1.24609e-21
-1.50486e-21
-1.77672e-21
-2.09115e-21
-2.47293e-21
-2.91996e-21
-3.32005e-21
-3.20206e-21
-1.09515e-21
6.9462e-21
3.04465e-20
9.05683e-20
2.31113e-19
5.37019e-19
1.16366e-18
2.37976e-18
4.61625e-18
8.48871e-18
1.47502e-17
2.41808e-17
3.73074e-17
5.35292e-17
6.98244e-17
8.11209e-17
8.33824e-17
7.78407e-17
7.07361e-17
6.64657e-17
6.08283e-17
4.38449e-17
1.80362e-17
1.07343e-34
2.17297e-11
5.4661e-09
9.20874e-09
2.09138e-25
5.11206e-26
-8.28456e-19
-1.21248e-18
-6.12267e-20
2.45992e-32
0.0588719
0.352957
0.618504
0.789317
0.924846
0.988386
1
1
1
1
1
1
1
1
1
1
1
1
1
1
1
1
1
1
1
1
1
1
1
1
1
1
1
1
1
1
1
1
1
1
1
1
1
1
1
1
1
1
1
1
1
1
1
1
1
1
1
1
1
1
1
1
1
1
1
1
1
1
1
1
1
1
1
1
1
1
1
1
1
1
1
1
1
1
1
1
1
1
1
1
1
1
1
1
1
1
1
1
1
1
1
1
1
1
1
1
1
1
1
1
1
1
1
1
1
1
1
1
1
1
1
1
1
1
1
1
1
1
1
1
1
1
1
1
1
1
1
1
1
1
1
1
1
1
1
1
1
1
1
1
1
1
1
1
1
1
1
1
1
1
1
1
1
1
1
1
1
1
1
1
1
1
1
1
1
1
1
1
1
1
1
1
1
1
1
1
1
1
1
1
1
1
1
1
1
1
1
1
1
1
1
1
1
1
1
1
1
1
1
1
1
1
1
1
1
1
1
1
1
1
1
1
1
1
1
1
1
1
1
1
1
1
1
1
1
1
1
1
1
1
1
1
1
1
1
1
1
1
1
1
1
1
1
1
1
1
1
1
1
1
1
1
1
1
1
1
1
1
1
1
1
1
1
1
1
1
1
1
1
1
1
1
1
1
1
1
1
1
1
1
1
1
1
1
1
1
1
1
1
1
1
1
1
1
1
1
1
1
1
1
1
1
1
1
1
1
1
1
1
1
1
1
1
1
1
1
1
1
0.249981
0.0673342
5.23514e-25
5.447e-06
1.96483e-05
1.64797e-05
2.9469e-06
7.5131e-24
-4.79697e-26
5.70334e-09
3.75541e-07
3.47511e-07
3.34433e-07
0.00019271
0.00238271
0.00295199
0.00295944
0.00296129
0.00172293
0.0011208
0.000902314
2.81467e-14
2.81467e-14
2.81467e-14
2.81467e-14
2.81467e-14
2.81467e-14
2.81467e-14
2.81467e-14
2.81468e-14
2.81467e-14
2.81468e-14
5.08995e-13
8.09829e-13
6.76224e-13
2.81821e-13
4.20333e-14
1.73015e-15
1.42641e-15
1.16911e-15
8.60141e-16
5.94581e-16
4.00559e-16
2.69802e-16
1.84677e-16
1.29469e-16
9.30514e-17
6.83658e-17
5.11665e-17
3.89249e-17
3.00941e-17
2.36759e-17
1.89767e-17
1.54797e-17
1.27928e-17
1.0633e-17
8.81583e-18
7.23812e-18
5.85286e-18
4.64469e-18
3.6105e-18
2.74721e-18
2.04629e-18
1.49289e-18
1.06763e-18
7.4908e-19
5.16114e-19
3.49508e-19
2.32831e-19
1.52706e-19
9.86764e-20
6.28536e-20
3.94678e-20
2.44169e-20
1.48563e-20
8.85659e-21
5.13496e-21
2.85177e-21
1.46351e-21
6.20812e-22
1.01562e-22
-2.32836e-22
-4.67474e-22
-6.55008e-22
-8.2921e-22
-1.00952e-21
-1.18556e-21
-1.24189e-21
-7.11056e-22
1.91206e-21
1.08474e-20
3.6711e-20
1.03862e-19
2.63873e-19
6.18261e-19
1.35387e-18
2.79333e-18
5.456e-18
1.01071e-17
1.77508e-17
2.95244e-17
4.64863e-17
6.92829e-17
9.76933e-17
1.3018e-16
1.63657e-16
1.93752e-16
2.15552e-16
2.24306e-16
2.15902e-16
1.85632e-16
1.32055e-16
6.92193e-17
3.04735e-17
3.06197e-17
4.56076e-08
1.24208e-07
5.14955e-08
3.12536e-10
-1.18479e-25
-1.92182e-34
8.04423e-15
5.57566e-33
5.08333e-29
4.55847e-29
1.47279e-28
0.0261747
0.363112
0.674046
0.843652
0.958399
0.998329
1
1
1
1
1
1
1
1
1
1
1
1
1
1
1
1
1
1
1
1
1
1
1
1
1
1
1
1
1
1
1
1
1
1
1
1
1
1
1
1
1
1
1
1
1
1
1
1
1
1
1
1
1
1
1
1
1
1
1
1
1
1
1
1
1
1
1
1
1
1
1
1
1
1
1
1
1
1
1
1
1
1
1
1
1
1
1
1
1
1
1
1
1
1
1
1
1
1
1
1
1
1
1
1
1
1
1
1
1
1
1
1
1
1
1
1
1
1
1
1
1
1
1
1
1
1
1
1
1
1
1
1
1
1
1
1
1
1
1
1
1
1
1
1
1
1
1
1
1
1
1
1
1
1
1
1
1
1
1
1
1
1
1
1
1
1
1
1
1
1
1
1
1
1
1
1
1
1
1
1
1
1
1
1
1
1
1
1
1
1
1
1
1
1
1
1
1
1
1
1
1
1
1
1
1
1
1
1
1
1
1
1
1
1
1
1
1
1
1
1
1
1
1
1
1
1
1
1
1
1
1
1
1
1
1
1
1
1
1
1
1
1
1
1
1
1
1
1
1
1
1
1
1
1
1
1
1
1
1
1
1
1
1
1
1
1
1
1
1
1
1
1
1
1
1
1
1
1
1
1
1
1
1
1
1
1
1
1
1
1
1
1
1
1
1
1
1
1
1
1
1
1
1
1
1
1
1
1
1
1
1
1
1
1
1
1
1
1
0.561261
0.0434659
6.41644e-24
1.47507e-05
3.77436e-05
3.78626e-05
2.92848e-05
4.22539e-06
1.07973e-24
3.24045e-25
3.44633e-07
1.64554e-06
1.37337e-06
9.3308e-22
1.37348e-21
1.38037e-21
1.37397e-21
2.66392e-06
0.00270588
0.00466458
0.00466219
0.00114565
9.42864e-06
0.000105689
6.15331e-05
8.78981e-05
0.000121661
6.45195e-05
0.00010248
0.000420104
0.000106291
2.05326e-06
5.27358e-13
7.27695e-13
1.366e-12
1.31285e-12
6.7048e-13
1.36728e-13
2.16557e-15
1.25211e-15
1.03929e-15
7.79833e-16
5.52623e-16
3.84784e-16
2.69763e-16
1.92625e-16
1.40449e-16
1.0439e-16
7.89599e-17
6.08631e-17
4.80329e-17
3.90491e-17
3.28297e-17
2.8442e-17
2.50933e-17
2.22033e-17
1.9441e-17
1.66914e-17
1.39816e-17
1.14021e-17
9.04952e-18
6.99434e-18
5.27009e-18
3.87603e-18
2.7862e-18
1.95988e-18
1.35063e-18
9.12839e-19
6.05663e-19
3.94858e-19
2.5315e-19
1.59712e-19
9.92055e-20
6.06847e-20
3.65541e-20
2.16723e-20
1.26352e-20
7.23162e-21
4.04919e-21
2.19926e-21
1.13234e-21
5.15759e-22
1.52436e-22
-7.24669e-23
-2.25256e-22
-3.42158e-22
-4.2943e-22
-4.20694e-22
-9.84458e-24
1.85712e-21
8.32244e-21
2.77582e-20
8.03837e-20
2.10873e-19
5.1005e-19
1.14837e-18
2.42166e-18
4.80423e-18
8.99331e-18
1.59152e-17
2.6657e-17
4.23012e-17
6.36529e-17
9.0861e-17
1.23008e-16
1.57858e-16
1.9196e-16
2.21137e-16
2.41089e-16
2.48077e-16
2.38531e-16
2.09312e-16
1.6147e-16
9.92834e-17
3.57934e-17
3.00217e-17
3.24775e-07
2.23015e-06
1.47541e-06
2.28903e-07
5.80092e-24
1.2804e-13
-3.6242e-30
3.93056e-11
1.72e-11
8.20688e-11
2.50399e-26
-2.19526e-26
4.07286e-43
-9.6971e-28
0.10869
0.543264
0.808217
0.942227
0.995556
1
1
1
1
1
1
1
1
1
1
1
1
1
1
1
1
1
1
1
1
1
1
1
1
1
1
1
1
1
1
1
1
1
1
1
1
1
1
1
1
1
1
1
1
1
1
1
1
1
1
1
1
1
1
1
1
1
1
1
1
1
1
1
1
1
1
1
1
1
1
1
1
1
1
1
1
1
1
1
1
1
1
1
1
1
1
1
1
1
1
1
1
1
1
1
1
1
1
1
1
1
1
1
1
1
1
1
1
1
1
1
1
1
1
1
1
1
1
1
1
1
1
1
1
1
1
1
1
1
1
1
1
1
1
1
1
1
1
1
1
1
1
1
1
1
1
1
1
1
1
1
1
1
1
1
1
1
1
1
1
1
1
1
1
1
1
1
1
1
1
1
1
1
1
1
1
1
1
1
1
1
1
1
1
1
1
1
1
1
1
1
1
1
1
1
1
1
1
1
1
1
1
1
1
1
1
1
1
1
1
1
1
1
1
1
1
1
1
1
1
1
1
1
1
1
1
1
1
1
1
1
1
1
1
1
1
1
1
1
1
1
1
1
1
1
1
1
1
1
1
1
1
1
1
1
1
1
1
1
1
1
1
1
1
1
1
1
1
1
1
1
1
1
1
1
1
1
1
1
1
1
1
1
1
1
1
1
1
1
1
1
1
1
1
1
1
1
1
1
1
1
1
1
1
1
1
1
1
1
1
1
1
1
1
1
0.626253
0.0251439
9.61986e-26
4.20547e-06
1.55876e-05
1.22121e-05
7.06171e-06
3.23873e-06
6.33835e-07
-3.14694e-25
-4.58128e-23
4.8981e-07
4.17273e-07
1.95732e-22
3.25525e-07
1.37144e-21
1.70828e-21
1.70936e-21
1.71662e-21
2.03496e-05
0.00191552
0.00403464
0.00403776
0.00270557
0.00246098
0.00211146
0.001832
0.00118419
0.00137039
0.00140487
0.00121765
0.000414448
4.72054e-05
7.55897e-13
1.14778e-12
1.73919e-12
1.81809e-12
1.06762e-12
2.40534e-13
4.46896e-15
9.77817e-16
8.43956e-16
6.61853e-16
4.90631e-16
3.57143e-16
2.60359e-16
1.91924e-16
1.4353e-16
1.09267e-16
8.56392e-17
7.03221e-17
6.09513e-17
5.57783e-17
5.30158e-17
5.08903e-17
4.81348e-17
4.42184e-17
3.92246e-17
3.35741e-17
2.77717e-17
2.22505e-17
1.73073e-17
1.30976e-17
9.66143e-18
6.95772e-18
4.89855e-18
3.37567e-18
2.27927e-18
1.50929e-18
9.80958e-19
6.26238e-19
3.92925e-19
2.42426e-19
1.47134e-19
8.7866e-20
5.16407e-20
2.98756e-20
1.70193e-20
9.55101e-21
5.28043e-21
2.87158e-21
1.52666e-21
7.79376e-22
3.62382e-22
1.24882e-22
-1.63476e-23
-1.0091e-22
-1.17643e-22
7.55582e-23
1.03495e-21
4.54067e-21
1.56231e-20
4.70791e-20
1.28476e-19
3.22169e-19
7.48499e-19
1.62028e-18
3.28217e-18
6.24342e-18
1.11842e-17
1.89124e-17
3.02572e-17
4.5897e-17
6.61297e-17
9.06221e-17
1.18231e-16
1.46995e-16
1.74319e-16
1.9725e-16
2.12717e-16
2.1765e-16
2.08762e-16
1.82477e-16
1.3614e-16
6.92592e-17
3.04271e-17
2.01016e-17
3.11757e-06
4.42984e-06
4.09413e-06
7.92535e-07
1.42187e-13
4.20746e-13
6.7268e-11
8.21516e-12
4.18294e-10
8.79814e-09
8.51038e-09
4.00885e-25
-9.47766e-27
-4.38843e-19
-6.90046e-19
-3.8832e-19
0.0180689
0.461472
0.806376
0.951715
0.997559
1
1
1
1
1
1
1
1
1
1
1
1
1
1
1
1
1
1
1
1
1
1
1
1
1
1
1
1
1
1
1
1
1
1
1
1
1
1
1
1
1
1
1
1
1
1
1
1
1
1
1
1
1
1
1
1
1
1
1
1
1
1
1
1
1
1
1
1
1
1
1
1
1
1
1
1
1
1
1
1
1
1
1
1
1
1
1
1
1
1
1
1
1
1
1
1
1
1
1
1
1
1
1
1
1
1
1
1
1
1
1
1
1
1
1
1
1
1
1
1
1
1
1
1
1
1
1
1
1
1
1
1
1
1
1
1
1
1
1
1
1
1
1
1
1
1
1
1
1
1
1
1
1
1
1
1
1
1
1
1
1
1
1
1
1
1
1
1
1
1
1
1
1
1
1
1
1
1
1
1
1
1
1
1
1
1
1
1
1
1
1
1
1
1
1
1
1
1
1
1
1
1
1
1
1
1
1
1
1
1
1
1
1
1
1
1
1
1
1
1
1
1
1
1
1
1
1
1
1
1
1
1
1
1
1
1
1
1
1
1
1
1
1
1
1
1
1
1
1
1
1
1
1
1
1
1
1
1
1
1
1
1
1
1
1
1
1
1
1
1
1
1
1
1
1
1
1
1
1
1
1
1
1
1
1
1
1
1
1
1
1
1
1
1
1
1
1
1
1
1
1
1
1
1
1
1
1
1
1
1
1
1
0.626595
0.011416
2.88666e-22
-2.24382e-24
6.92814e-23
1.37855e-05
7.52614e-05
1.85006e-05
-1.52192e-22
-3.43071e-22
-2.90467e-22
-1.25065e-20
0.000164824
0.000852
0.000808285
0.00037223
1.11488e-05
8.20432e-10
1.71976e-21
1.71967e-21
1.74474e-21
0.000775337
0.00375838
0.00400115
0.00400325
0.00335524
0.00186807
0.00181093
0.00185446
0.00109683
0.000955666
0.0010228
0.000576085
0.000155585
6.05259e-07
1.2606e-12
1.73819e-12
2.09611e-12
1.28116e-12
2.73175e-13
3.47068e-15
7.63771e-16
6.77668e-16
5.50193e-16
4.21802e-16
3.12042e-16
2.30593e-16
1.72202e-16
1.31394e-16
1.06577e-16
1.00056e-16
9.97361e-17
1.03107e-16
1.08414e-16
1.11722e-16
1.10212e-16
1.03369e-16
9.23967e-17
7.91342e-17
6.52954e-17
5.21393e-17
4.04306e-17
3.05239e-17
2.24805e-17
1.61755e-17
1.13846e-17
7.84519e-18
5.29755e-18
3.50786e-18
2.27917e-18
1.45385e-18
9.10929e-19
5.60856e-19
3.39449e-19
2.02018e-19
1.18259e-19
6.81204e-20
3.86338e-20
2.159e-20
1.19003e-20
6.47561e-21
3.47987e-21
1.84428e-21
9.58741e-22
4.81096e-22
2.22592e-22
8.24187e-23
1.84141e-23
6.34271e-23
4.45352e-22
1.97697e-21
7.09707e-21
2.23069e-20
6.32303e-20
1.63948e-19
3.92195e-19
8.70902e-19
1.80395e-18
3.49994e-18
6.38318e-18
1.09786e-17
1.78594e-17
2.7555e-17
4.04271e-17
5.65375e-17
7.55537e-17
9.67335e-17
1.18995e-16
1.4101e-16
1.61212e-16
1.77568e-16
1.87089e-16
1.85302e-16
1.65906e-16
1.23012e-16
5.14201e-17
1.60899e-17
2.03445e-17
4.15533e-06
4.50814e-06
4.50702e-06
1.22553e-06
4.47258e-13
1.14174e-11
9.97449e-12
2.57803e-12
2.37198e-09
3.19769e-08
9.3423e-08
3.28508e-07
-3.53375e-23
-5.9056e-25
-6.2798e-19
-1.54591e-19
-2.68437e-28
-5.17482e-29
0.00704559
0.482448
0.844663
0.975841
0.999845
1
1
1
1
1
1
1
1
1
1
1
1
1
1
1
1
1
1
1
1
1
1
1
1
1
1
1
1
1
1
1
1
1
1
1
1
1
1
1
1
1
1
1
1
1
1
1
1
1
1
1
1
1
1
1
1
1
1
1
1
1
1
1
1
1
1
1
1
1
1
1
1
1
1
1
1
1
1
1
1
1
1
1
1
1
1
1
1
1
1
1
1
1
1
1
1
1
1
1
1
1
1
1
1
1
1
1
1
1
1
1
1
1
1
1
1
1
1
1
1
1
1
1
1
1
1
1
1
1
1
1
1
1
1
1
1
1
1
1
1
1
1
1
1
1
1
1
1
1
1
1
1
1
1
1
1
1
1
1
1
1
1
1
1
1
1
1
1
1
1
1
1
1
1
1
1
1
1
1
1
1
1
1
1
1
1
1
1
1
1
1
1
1
1
1
1
1
1
1
1
1
1
1
1
1
1
1
1
1
1
1
1
1
1
1
1
1
1
1
1
1
1
1
1
1
1
1
1
1
1
1
1
1
1
1
1
1
1
1
1
1
1
1
1
1
1
1
1
1
1
1
1
1
1
1
1
1
1
1
1
1
1
1
1
1
1
1
1
1
1
1
1
1
1
1
1
1
1
1
1
1
1
1
1
1
1
1
1
1
1
1
1
1
1
1
1
1
1
1
1
1
1
1
1
1
1
1
1
1
0.365167
0.0127515
-3.69906e-21
-3.81926e-22
0.00017798
0.000241624
7.85467e-05
0.000772582
0.000530817
0.00219017
0.00496987
0.023597
0.0547649
0.041043
0.00464122
-1.51929e-20
2.50894e-07
3.22243e-07
3.20017e-07
8.10222e-08
3.04878e-09
8.81906e-26
3.94103e-26
3.59184e-29
9.26631e-27
-1.69231e-25
0.000178502
0.000320644
1.01576e-05
-1.05653e-22
1.96266e-24
3.05533e-05
0.000682519
0.000683342
0.000177037
1.31625e-12
1.37071e-12
1.95998e-12
2.13364e-12
1.19907e-12
2.12726e-13
1.05442e-15
6.07239e-16
5.45506e-16
4.47154e-16
3.52755e-16
2.71087e-16
2.06257e-16
1.5829e-16
1.41992e-16
2.2963e-16
2.40561e-16
2.43651e-16
2.57332e-16
2.66277e-16
2.60663e-16
2.40336e-16
2.10379e-16
1.76552e-16
1.43157e-16
1.12757e-16
8.65655e-17
6.49177e-17
4.76217e-17
3.42041e-17
2.40699e-17
1.66041e-17
1.12328e-17
7.45514e-18
4.85596e-18
3.10521e-18
1.95004e-18
1.20298e-18
7.29232e-19
4.34497e-19
2.54542e-19
1.46674e-19
8.31752e-20
4.64495e-20
2.55673e-20
1.38844e-20
7.44589e-21
3.94614e-21
2.06696e-21
1.06842e-21
5.42103e-22
2.66485e-22
1.26502e-22
8.00615e-23
1.82019e-22
7.28325e-22
2.68452e-21
8.73874e-21
2.55694e-20
6.81706e-20
1.67152e-19
3.79536e-19
8.02459e-19
1.58724e-18
2.94908e-18
5.16617e-18
8.56377e-18
1.3484e-17
2.0251e-17
2.91487e-17
4.04357e-17
5.44135e-17
7.15356e-17
9.24934e-17
1.18129e-16
1.48921e-16
1.83696e-16
2.17537e-16
2.38802e-16
2.27013e-16
1.57183e-16
5.49249e-17
4.50781e-16
5.38233e-07
4.4556e-06
2.62501e-06
1.37462e-07
4.75122e-13
5.94316e-11
9.9615e-11
3.74704e-11
8.04253e-29
-1.04859e-22
7.70212e-06
3.45872e-05
1.95782e-05
1.38473e-06
-7.54144e-25
-1.55549e-20
5.03972e-11
9.67801e-11
2.42537e-27
-1.12175e-27
-2.31805e-22
0.0665908
0.603826
0.913957
0.995189
1
1
1
1
1
1
1
1
1
1
1
1
1
1
1
1
1
1
1
1
1
1
1
1
1
1
1
1
1
1
1
1
1
1
1
1
1
1
1
1
1
1
1
1
1
1
1
1
1
1
1
1
1
1
1
1
1
1
1
1
1
1
1
1
1
1
1
1
1
1
1
1
1
1
1
1
1
1
1
1
1
1
1
1
1
1
1
1
1
1
1
1
1
1
1
1
1
1
1
1
1
1
1
1
1
1
1
1
1
1
1
1
1
1
1
1
1
1
1
1
1
1
1
1
1
1
1
1
1
1
1
1
1
1
1
1
1
1
1
1
1
1
1
1
1
1
1
1
1
1
1
1
1
1
1
1
1
1
1
1
1
1
1
1
1
1
1
1
1
1
1
1
1
1
1
1
1
1
1
1
1
1
1
1
1
1
1
1
1
1
1
1
1
1
1
1
1
1
1
1
1
1
1
1
1
1
1
1
1
1
1
1
1
1
1
1
1
1
1
1
1
1
1
1
1
1
1
1
1
1
1
1
1
1
1
1
1
1
1
1
1
1
1
1
1
1
1
1
1
1
1
1
1
1
1
1
1
1
1
1
1
1
1
1
1
1
1
1
1
1
1
1
1
1
1
1
1
1
1
1
1
1
1
1
1
1
1
1
1
1
1
1
1
1
1
1
1
1
1
1
1
1
1
1
1
1
1
0.482696
5.77375e-20
-8.22209e-38
3.95994e-05
8.0408e-05
8.22009e-05
0.0138512
0.050854
0.0323974
0.0632776
0.119795
0.119033
0.119751
0.0676471
0.00343834
-1.09767e-20
1.02465e-22
3.35142e-08
5.31266e-08
1.82737e-08
1.21012e-09
-1.78182e-26
1.96044e-07
1.97008e-07
1.27777e-08
-1.88464e-26
0.00402031
0.00829929
0.00256754
5.41314e-05
1.7055e-23
1.03865e-23
0.000128076
0.000662551
0.000474629
0.000166194
8.1961e-06
1.93783e-12
1.86309e-12
1.93783e-12
8.60801e-13
1.0416e-13
5.41483e-16
5.01247e-16
4.42987e-16
3.50414e-14
7.8647e-14