/*--------------------------------*- C++ -*----------------------------------*\
| =========                 |                                                 |
| \\      /  F ield         | OpenFOAM: The Open Source CFD Toolbox           |
|  \\    /   O peration     | Version:  v2006                                 |
|   \\  /    A nd           | Website:  www.openfoam.com                      |
|    \\/     M anipulation  |                                                 |
\*---------------------------------------------------------------------------*/
FoamFile
{
    version     2.0;
    format      ascii;
    class       volScalarField;
    location    "0";
    object      p;
}
// * * * * * * * * * * * * * * * * * * * * * * * * * * * * * * * * * * * * * //

dimensions      [1 -1 -2 0 0 0 0];


internalField   nonuniform List<scalar> 
67500
(
8.73605
7.78486
7.36043
5.98795
5.59141
6.71038
4.85718
4.50844
6.29161
5.15821
1.81696
0.689298
-0.0769041
-0.647617
-1.14411
-1.78317
-0.699913
1.82552
1.22751
-0.477859
-0.568175
-0.0788683
0.510684
0.966982
1.11249
1.22408
1.39392
1.52303
1.53528
1.35143
1.08986
0.921934
0.852129
0.824228
0.814943
0.827435
0.886042
0.996344
1.13132
1.2557
1.33337
1.34507
1.29102
1.18901
1.06779
0.95725
0.8782
0.838489
0.835214
0.856136
0.881531
0.892529
0.877866
0.837459
0.781468
0.724531
0.681234
0.662599
0.674461
0.718413
0.793017
0.894931
1.01989
1.16332
1.31971
1.46032
1.48673
1.37871
1.25299
1.1484
1.06666
1.01565
0.998975
1.01699
1.06888
1.15194
1.26025
1.37808
1.46407
1.47017
1.42722
1.39014
1.37263
1.37756
1.40967
1.47155
1.56358
1.68229
1.81808
1.95374
2.06107
2.11047
2.11548
2.12322
2.15552
2.21029
2.28041
2.35346
2.41542
2.4657
2.51899
2.58368
2.65518
2.72516
2.78735
2.84242
2.89605
2.95036
3.00303
3.05205
3.09751
3.14006
3.1791
3.21376
3.24423
3.27122
3.29494
3.31528
3.33217
3.34537
3.35441
3.35878
3.35809
3.35198
3.34019
3.32251
3.29879
3.26893
3.23291
3.19076
3.14266
3.08885
3.02968
2.9656
2.8971
2.82473
2.74909
2.67076
2.59036
2.50847
2.42565
2.34239
2.25916
2.17634
2.09425
2.01317
1.93333
1.85488
1.77799
1.70274
1.62923
1.55752
1.48767
1.41972
1.35368
1.2896
1.22747
1.16731
1.10913
1.05293
0.9987
0.946442
0.89615
0.847817
0.801437
0.757003
0.714507
0.673939
0.63529
0.598546
0.563688
0.530696
0.499539
0.470183
0.442587
0.416699
0.392465
0.369821
0.3487
0.329029
0.310735
0.293739
0.277966
0.263339
0.249785
0.23723
0.225607
0.214851
0.2049
0.195698
0.187193
0.179335
0.17208
0.165386
0.159217
0.153537
0.148315
0.143523
0.139133
0.135121
0.131464
0.128139
0.125127
0.122405
0.119955
0.117757
0.115791
0.114037
0.112474
0.111082
0.109839
0.108724
0.107715
0.10679
0.105926
0.105102
0.104297
0.103491
0.102664
0.101798
0.100877
0.0998859
0.0988126
0.0976462
0.0963781
0.0950021
0.0935137
0.0919108
0.0901931
0.0883623
0.0864217
0.0843761
0.0822316
0.0799955
0.0776761
0.0752821
0.0728232
0.0703091
0.0677498
0.0651554
0.0625358
0.0599006
0.0572593
0.0546206
0.0519931
0.0493845
0.0468021
0.0442524
0.0417413
0.0392742
0.0368556
0.0344896
0.0321794
0.0299277
0.0277369
0.0256085
0.0235437
0.0215432
0.0196073
0.0177359
0.0159285
0.0141846
0.0125031
0.0108829
0.00932245
0.00782037
0.00637498
0.00498452
0.00364718
0.00236107
0.00112431
-6.50197e-05
-0.00120882
-0.00230898
-0.00336735
-0.00438574
-0.0053659
-0.00630955
-0.0072183
-0.00809374
-0.00893736
-0.00975057
-0.0105347
-0.0112911
-0.0120208
-0.0127251
-0.0134049
-0.0140612
-0.0146949
-0.0153067
-0.0158975
-0.0164678
-0.0170184
-0.0175496
-0.0180621
-0.0185561
-0.019032
-0.0194902
-0.0199309
-0.0203541
-0.0207602
-0.0211491
-0.021521
-0.0218757
-0.0222134
-0.0225338
-0.022837
-0.0231227
-0.0233909
-0.0236415
-0.0238741
-0.0240888
-0.0242853
-0.0244636
-0.0246234
-0.0247647
-0.0248876
-0.0249919
-0.0250777
-0.0251452
-0.0251945
-0.025226
-0.0252399
-0.0252366
-0.0252167
-0.0251806
-0.025129
-0.0250625
-0.0249819
-0.024888
-0.0247815
-0.0246633
-0.0245343
-0.0243952
-0.0242471
-0.0240909
-0.0239274
-0.0237576
-0.0235824
-0.0234027
-0.0232195
-0.0230337
-0.0228461
-0.0226575
-0.0224688
-0.0222804
-0.022093
-0.0219068
-0.0217221
-0.021539
-0.0213573
-0.0211768
-0.0209971
-0.0208177
-0.0206381
-0.0204576
-0.0202758
-0.0200919
-0.0199056
-0.0197164
-0.0195241
-0.0193283
-0.019129
-0.0189261
-0.0187197
-0.0185098
-0.0182967
-0.0180806
-0.0178617
-0.0176403
-0.0174167
-0.0171912
-0.0169641
-0.0167356
-0.0165061
-0.0162757
-0.0160446
-0.0158132
-0.0155815
-0.0153496
-0.0151178
-0.0148862
-0.0146549
-0.0144238
-0.0141932
-0.0139631
-0.0137335
-0.0135044
-0.0132759
-0.013048
-0.0128208
-0.0125941
-0.0123681
-0.0121427
-0.0119179
-0.0116937
-0.0114701
-0.0112471
-0.0110247
-0.0108028
-0.0105815
-0.0103607
-0.0101405
-0.00992069
-0.00970141
-0.0094826
-0.00926424
-0.00904632
-0.00882883
-0.00861174
-0.00839505
-0.00817873
-0.00796279
-0.00774719
-0.00753194
-0.00731701
-0.0071024
-0.00688809
-0.00667407
-0.00646033
-0.00624686
-0.00603365
-0.00582068
-0.00560796
-0.00539545
-0.00518317
-0.0049711
-0.00475922
-0.00454753
-0.00433602
-0.00412468
-0.0039135
-0.00370248
-0.0034916
-0.00328086
-0.00307025
-0.00285976
-0.00264939
-0.00243913
-0.00222896
-0.00201888
-0.00180889
-0.00159897
-0.0013891
-0.00117936
-0.000969426
-0.000760286
-0.000548174
-0.000343723
-9.75676e-05
8.42618
6.85097
5.49363
5.42998
5.44477
5.31547
3.46664
0.388103
2.87797
0.342439
-1.8497
-0.467764
-1.62725
-2.07989
-2.97837
-3.2268
-2.27254
-0.818015
0.383151
0.973784
1.14232
0.0352583
0.271173
0.744893
1.15507
1.39688
1.5145
1.53768
1.45573
1.17788
0.862701
0.738409
0.696089
0.656733
0.619885
0.618235
0.694956
0.831145
0.985153
1.12004
1.20902
1.24122
1.21486
1.14322
1.04531
0.94267
0.85346
0.791864
0.763856
0.761861
0.773372
0.782485
0.776163
0.747322
0.696489
0.63285
0.570582
0.52464
0.50765
0.526388
0.581659
0.669722
0.784738
0.921828
1.09082
1.30239
1.36078
1.19249
1.03437
0.922547
0.845512
0.80771
0.809011
0.848591
0.927587
1.0434
1.19159
1.36233
1.49567
1.47373
1.38111
1.31633
1.27858
1.26646
1.28545
1.33729
1.42381
1.54452
1.69182
1.85008
1.98124
2.02168
1.99686
1.99113
2.0251
2.08853
2.17256
2.25998
2.32598
2.36906
2.41842
2.48678
2.56503
2.64096
2.70424
2.75717
2.81104
2.86858
2.92493
2.97656
3.02423
3.06957
3.11146
3.14829
3.1806
3.20971
3.23584
3.25873
3.27838
3.29456
3.30659
3.31385
3.31597
3.31259
3.3034
3.28823
3.26692
3.23934
3.20543
3.16524
3.11891
3.06669
3.00895
2.94615
2.87879
2.80745
2.73273
2.65525
2.57562
2.49447
2.41234
2.32976
2.24718
2.16501
2.08355
2.0031
1.92385
1.84598
1.76963
1.6949
1.62188
1.55063
1.48121
1.41364
1.34798
1.28422
1.22241
1.16254
1.10462
1.04866
0.994648
0.942592
0.892483
0.844318
0.798091
0.753797
0.711429
0.670981
0.632444
0.595806
0.561051
0.52816
0.497105
0.467851
0.440359
0.414577
0.39045
0.367914
0.346901
0.327339
0.309151
0.292259
0.276587
0.262057
0.248594
0.236126
0.224585
0.213904
0.204024
0.194887
0.186441
0.178638
0.171433
0.164785
0.158657
0.153016
0.147829
0.143069
0.138709
0.134725
0.131093
0.127793
0.124804
0.122105
0.119678
0.117502
0.115558
0.113826
0.112286
0.110917
0.109697
0.108605
0.107619
0.106717
0.105876
0.105074
0.104291
0.103504
0.102696
0.101847
0.100941
0.0999631
0.0989009
0.0977435
0.0964823
0.0951109
0.093625
0.0920227
0.0903037
0.0884699
0.0865248
0.0844732
0.0823217
0.0800776
0.0777494
0.0753461
0.0728775
0.0703535
0.0677843
0.0651801
0.0625508
0.0599064
0.0572562
0.0546093
0.0519739
0.0493582
0.0467692
0.0442136
0.0416973
0.0392256
0.0368031
0.0344337
0.0321207
0.0298669
0.0276744
0.0255449
0.0234794
0.0214786
0.0195427
0.0176717
0.0158651
0.0141222
0.0124418
0.0108229
0.00926407
0.00776364
0.00632
0.00493136
0.00359588
0.00231167
0.00107682
-0.000110613
-0.00125253
-0.00235084
-0.0034074
-0.00442403
-0.00540249
-0.0063445
-0.00725169
-0.00812564
-0.00896783
-0.0097797
-0.0105626
-0.0113178
-0.0120464
-0.0127496
-0.0134285
-0.0140839
-0.0147167
-0.0153279
-0.015918
-0.0164877
-0.0170377
-0.0175685
-0.0180805
-0.0185742
-0.0190499
-0.0195078
-0.0199483
-0.0203714
-0.0207774
-0.0211663
-0.0215381
-0.0218929
-0.0222306
-0.0225511
-0.0228544
-0.0231403
-0.0234087
-0.0236593
-0.0238922
-0.024107
-0.0243036
-0.024482
-0.0246419
-0.0247833
-0.0249061
-0.0250103
-0.025096
-0.0251633
-0.0252124
-0.0252435
-0.025257
-0.0252532
-0.0252327
-0.025196
-0.0251438
-0.0250766
-0.0249952
-0.0249004
-0.0247931
-0.0246739
-0.0245439
-0.0244039
-0.0242548
-0.0240975
-0.0239329
-0.0237621
-0.0235859
-0.0234053
-0.0232213
-0.0230347
-0.0228464
-0.0226573
-0.0224682
-0.0222796
-0.0220921
-0.0219061
-0.0217218
-0.0215391
-0.0213581
-0.0211783
-0.0209994
-0.0208208
-0.0206419
-0.0204621
-0.0202808
-0.0200974
-0.0199114
-0.0197224
-0.0195301
-0.0193343
-0.0191348
-0.0189316
-0.0187248
-0.0185146
-0.018301
-0.0180844
-0.0178651
-0.0176432
-0.0174192
-0.0171933
-0.0169658
-0.016737
-0.0165071
-0.0162764
-0.0160451
-0.0158134
-0.0155815
-0.0153495
-0.0151176
-0.0148858
-0.0146544
-0.0144233
-0.0141926
-0.0139624
-0.0137328
-0.0135037
-0.0132752
-0.0130473
-0.01282
-0.0125934
-0.0123673
-0.0121419
-0.0119171
-0.011693
-0.0114694
-0.0112464
-0.011024
-0.0108022
-0.0105809
-0.0103601
-0.0101399
-0.0099201
-0.00970084
-0.00948205
-0.00926371
-0.0090458
-0.00882832
-0.00861125
-0.00839458
-0.00817828
-0.00796235
-0.00774677
-0.00753153
-0.00731662
-0.00710202
-0.00688772
-0.00667371
-0.00645999
-0.00624653
-0.00603333
-0.00582038
-0.00560766
-0.00539517
-0.0051829
-0.00497083
-0.00475896
-0.00454729
-0.00433579
-0.00412446
-0.00391329
-0.00370227
-0.0034914
-0.00328067
-0.00307007
-0.0028596
-0.00264923
-0.00243897
-0.00222881
-0.00201875
-0.00180876
-0.00159885
-0.00138899
-0.00117926
-0.000969333
-0.0007602
-0.000548097
-0.000343656
-9.75353e-05
7.51283
6.27279
6.14145
5.59307
5.24915
6.01473
-0.169588
-0.071808
-0.0120905
-0.323672
-0.29937
1.39935
-1.7678
-1.7962
-2.53114
-2.43354
-1.89165
-1.16768
-0.712849
-0.540603
0.305068
1.23049
1.10406
0.416157
0.624603
1.31948
1.89756
2.27751
2.27193
1.3733
0.540049
0.508288
0.578303
0.560866
0.525291
0.512
0.681866
0.889139
1.00104
1.00433
0.922487
0.77795
0.607506
0.448658
0.330059
0.286025
0.317899
0.401374
0.502976
0.584002
0.614429
0.585258
0.509155
0.413596
0.327473
0.270969
0.250391
0.260444
0.292878
0.342
0.405639
0.48857
0.604787
0.775103
1.05978
1.53821
1.55843
1.19916
1.0212
0.892337
0.785239
0.712535
0.670438
0.659208
0.681786
0.739208
0.844269
1.04591
1.30717
1.21452
1.04443
0.973772
0.945761
0.942138
0.96916
1.03126
1.13439
1.28308
1.47488
1.70532
1.91908
1.92013
1.79564
1.7483
1.775
1.84306
1.94609
2.06028
2.13032
2.15084
2.19319
2.27538
2.37567
2.4721
2.54004
2.58713
2.64191
2.70749
2.77173
2.82747
2.87824
2.92892
2.97652
3.01732
3.05299
3.08639
3.11751
3.14555
3.17081
3.19306
3.21113
3.22419
3.23195
3.23401
3.23004
3.21992
3.20345
3.18044
3.1508
3.11452
3.07172
3.02268
2.96778
2.90752
2.84243
2.77312
2.70022
2.6244
2.54631
2.46659
2.38584
2.30459
2.22333
2.14244
2.06226
1.98304
1.90498
1.82827
1.75302
1.67932
1.60728
1.53694
1.46835
1.40157
1.33663
1.27355
1.21234
1.15304
1.09564
1.04016
0.986586
0.93493
0.885186
0.837353
0.791429
0.74741
0.705296
0.665083
0.626765
0.590337
0.555786
0.523094
0.492239
0.463188
0.435901
0.41033
0.386416
0.364097
0.343303
0.323957
0.305983
0.289301
0.273832
0.259497
0.24622
0.233927
0.22255
0.212023
0.202285
0.193279
0.184953
0.177259
0.170154
0.163598
0.157554
0.151988
0.14687
0.142174
0.137872
0.133942
0.130362
0.12711
0.124167
0.121513
0.119129
0.116997
0.115097
0.113409
0.111913
0.110589
0.109416
0.10837
0.107431
0.106574
0.105779
0.105021
0.10428
0.103533
0.102762
0.101947
0.101071
0.10012
0.0990802
0.0979407
0.0966929
0.0953307
0.0938497
0.0922483
0.0905265
0.0886864
0.0867319
0.0846683
0.0825024
0.0802421
0.0778962
0.0754741
0.072986
0.0704421
0.0678529
0.0652289
0.0625804
0.0599174
0.0572495
0.0545858
0.0519349
0.0493047
0.0467027
0.0441353
0.0416085
0.0391277
0.0366973
0.0343212
0.0320028
0.0297447
0.027549
0.0254172
0.0233503
0.0213489
0.0194133
0.0175432
0.015738
0.013997
0.0123191
0.010703
0.00914717
0.00765008
0.00620995
0.00482497
0.00349325
0.00221285
0.000981831
-0.000201778
-0.00133992
-0.00243451
-0.00348745
-0.00450055
-0.00547561
-0.00641434
-0.0073184
-0.00818935
-0.0090287
-0.00983789
-0.0106182
-0.011371
-0.0120975
-0.0127986
-0.0134756
-0.0141292
-0.0147605
-0.0153701
-0.0159589
-0.0165274
-0.0170764
-0.0176062
-0.0181174
-0.0186104
-0.0190855
-0.019543
-0.0199831
-0.020406
-0.0208118
-0.0212006
-0.0215724
-0.0219272
-0.0222651
-0.0225858
-0.0228893
-0.0231754
-0.0234441
-0.0236951
-0.0239283
-0.0241434
-0.0243403
-0.0245189
-0.0246789
-0.0248204
-0.0249432
-0.0250473
-0.0251328
-0.0251997
-0.0252483
-0.0252787
-0.0252914
-0.0252866
-0.025265
-0.0252271
-0.0251735
-0.0251049
-0.0250221
-0.0249258
-0.0248168
-0.0246961
-0.0245645
-0.0244229
-0.0242722
-0.0241133
-0.0239471
-0.0237746
-0.0235967
-0.0234143
-0.0232283
-0.0230398
-0.0228496
-0.0226586
-0.0224677
-0.0222774
-0.0220885
-0.0219013
-0.021716
-0.0215328
-0.0213515
-0.0211718
-0.0209932
-0.0208152
-0.0206372
-0.0204583
-0.0202781
-0.0200957
-0.0199108
-0.0197228
-0.0195313
-0.0193362
-0.0191373
-0.0189345
-0.018728
-0.0185179
-0.0183044
-0.0180878
-0.0178683
-0.0176462
-0.0174219
-0.0171957
-0.0169679
-0.0167388
-0.0165086
-0.0162776
-0.016046
-0.015814
-0.0155819
-0.0153497
-0.0151175
-0.0148856
-0.014654
-0.0144228
-0.014192
-0.0139617
-0.013732
-0.0135029
-0.0132743
-0.0130464
-0.0128191
-0.0125924
-0.0123664
-0.012141
-0.0119162
-0.011692
-0.0114685
-0.0112455
-0.0110231
-0.0108013
-0.01058
-0.0103593
-0.0101391
-0.00991935
-0.00970011
-0.00948135
-0.00926303
-0.00904515
-0.0088277
-0.00861065
-0.008394
-0.00817773
-0.00796182
-0.00774626
-0.00753105
-0.00731616
-0.00710158
-0.0068873
-0.00667332
-0.00645961
-0.00624617
-0.00603299
-0.00582005
-0.00560735
-0.00539488
-0.00518262
-0.00497057
-0.00475872
-0.00454706
-0.00433557
-0.00412426
-0.00391311
-0.00370211
-0.00349125
-0.00328054
-0.00306995
-0.00285949
-0.00264914
-0.00243889
-0.00222875
-0.00201869
-0.00180872
-0.00159883
-0.00138898
-0.00117926
-0.000969346
-0.000760227
-0.00054814
-0.000343702
-9.75997e-05
7.6193
6.55268
5.33356
3.85747
1.4637
-0.197309
-0.319206
-0.24133
-0.252821
-0.295111
-0.357139
-0.535477
-0.760623
-0.772162
-0.491473
0.0824787
-0.0740248
-0.0422509
0.210721
0.700772
0.668331
0.296716
-1.01805
-0.143742
0.215773
0.383515
0.411679
0.753845
1.43401
0.91135
0.289297
0.278661
0.386423
0.469316
0.507716
0.396968
0.352685
0.344213
0.338647
0.33205
0.323599
0.312871
0.301425
0.291651
0.286913
0.288072
0.291493
0.292022
0.290174
0.287479
0.284713
0.281691
0.278537
0.275969
0.275277
0.27745
0.282199
0.287429
0.290616
0.290599
0.288688
0.289169
0.302196
0.350888
0.507227
1.31084
1.44743
0.492479
0.243719
0.160784
0.0931388
0.0601565
0.0687147
0.126093
0.247783
0.454236
0.764634
1.31032
2.0741
1.52591
1.16128
1.02158
0.902183
0.815467
0.767656
0.760214
0.803401
0.900549
1.05692
1.32697
1.72917
1.61998
1.31378
1.22812
1.28462
1.41071
1.59888
1.81381
1.90164
1.85156
1.87045
1.97031
2.10004
2.2281
2.29155
2.31523
2.37003
2.4537
2.53677
2.60066
2.65641
2.7179
2.77626
2.82236
2.86153
2.90088
2.93927
2.9747
3.00849
3.04038
3.06778
3.0896
3.10587
3.11608
3.11991
3.11738
3.10826
3.09221
3.06904
3.03865
3.00116
2.95686
2.90621
2.84973
2.78801
2.72171
2.65152
2.57815
2.50232
2.42473
2.34603
2.26679
2.1875
2.10855
2.03028
1.95293
1.87669
1.80172
1.72812
1.65599
1.58541
1.51644
1.44912
1.38352
1.31966
1.25757
1.19729
1.13884
1.08222
1.02745
0.974529
0.92347
0.874271
0.826934
0.78146
0.737853
0.696115
0.656249
0.618258
0.58214
0.54789
0.515497
0.484941
0.456193
0.429216
0.403961
0.380371
0.358379
0.337913
0.318895
0.301244
0.284877
0.269712
0.255669
0.242669
0.230637
0.219505
0.209205
0.199677
0.190865
0.182717
0.175186
0.16823
0.161809
0.155888
0.150435
0.145421
0.140819
0.136605
0.132757
0.129253
0.126073
0.1232
0.120613
0.118296
0.11623
0.114396
0.112775
0.111347
0.110092
0.108988
0.108013
0.107144
0.106358
0.105631
0.104941
0.104264
0.103578
0.102864
0.102101
0.101271
0.10036
0.099354
0.0982415
0.0970141
0.0956656
0.094192
0.0925917
0.0908653
0.0890155
0.0870465
0.0849645
0.0827766
0.0804915
0.0781185
0.0756678
0.0731499
0.0705757
0.0679562
0.0653022
0.0626244
0.0599332
0.0572385
0.0545495
0.0518751
0.0492233
0.0466015
0.0440164
0.0414739
0.0389793
0.0365371
0.0341512
0.0318247
0.0295602
0.0273596
0.0252245
0.0231556
0.0211536
0.0192183
0.0173496
0.0155467
0.0138088
0.0121345
0.0105226
0.00897153
0.00747949
0.0060447
0.00466527
0.00333923
0.0020646
0.000839369
-0.000338476
-0.00147092
-0.00255992
-0.00360739
-0.00461519
-0.00558513
-0.00651893
-0.00741827
-0.00828473
-0.00911982
-0.00992497
-0.0107015
-0.0114508
-0.0121739
-0.0128719
-0.013546
-0.014197
-0.0148258
-0.0154333
-0.01602
-0.0165868
-0.0171342
-0.0176626
-0.0181726
-0.0186646
-0.0191388
-0.0195956
-0.0200351
-0.0204576
-0.0208632
-0.0212518
-0.0216237
-0.0219786
-0.0223166
-0.0226377
-0.0229415
-0.0232281
-0.0234972
-0.0237487
-0.0239823
-0.0241979
-0.0243953
-0.0245742
-0.0247345
-0.0248761
-0.0249989
-0.0251028
-0.0251879
-0.0252543
-0.025302
-0.0253315
-0.0253429
-0.0253368
-0.0253135
-0.0252737
-0.025218
-0.0251472
-0.0250619
-0.0249629
-0.0248512
-0.0247276
-0.024593
-0.0244483
-0.0242945
-0.0241324
-0.0239631
-0.0237875
-0.0236066
-0.0234214
-0.0232329
-0.0230421
-0.02285
-0.0226576
-0.0224656
-0.0222749
-0.0220861
-0.0218996
-0.0217156
-0.0215342
-0.021355
-0.0211777
-0.0210017
-0.0208262
-0.0206506
-0.0204739
-0.0202954
-0.0201144
-0.0199304
-0.0197428
-0.0195513
-0.0193558
-0.0191561
-0.0189523
-0.0187445
-0.018533
-0.018318
-0.0180998
-0.0178787
-0.0176552
-0.0174295
-0.0172019
-0.0169729
-0.0167426
-0.0165114
-0.0162795
-0.0160472
-0.0158145
-0.0155818
-0.0153491
-0.0151166
-0.0148843
-0.0146524
-0.014421
-0.01419
-0.0139596
-0.0137298
-0.0135006
-0.013272
-0.013044
-0.0128167
-0.01259
-0.012364
-0.0121386
-0.0119139
-0.0116898
-0.0114663
-0.0112434
-0.011021
-0.0107993
-0.010578
-0.0103574
-0.0101372
-0.00991752
-0.00969834
-0.00947963
-0.00926136
-0.00904354
-0.00882614
-0.00860914
-0.00839254
-0.00817632
-0.00796046
-0.00774495
-0.00752977
-0.00731493
-0.00710039
-0.00688616
-0.00667221
-0.00645854
-0.00624514
-0.00603199
-0.00581909
-0.00560643
-0.00539399
-0.00518176
-0.00496974
-0.00475792
-0.00454629
-0.00433483
-0.00412355
-0.00391242
-0.00370145
-0.00349063
-0.00327994
-0.00306939
-0.00285895
-0.00264862
-0.00243841
-0.00222829
-0.00201826
-0.00180831
-0.00159844
-0.00138862
-0.00117892
-0.000969035
-0.000759941
-0.000547882
-0.000343475
-9.74841e-05
8.26553
8.68888
3.71384
0.332258
-0.171679
-0.265656
-0.30161
-0.291437
-0.343424
-0.399328
-0.462369
-0.565569
-0.666597
-0.773583
-0.936343
-1.06504
-1.2591
-3.69605
-3.44551
0.770726
4.09688
4.92197
0.229857
0.369701
0.339555
0.321086
0.34034
0.2768
0.321416
0.485133
0.445725
0.379506
0.354568
0.359346
0.385359
0.381694
0.358403
0.339965
0.331863
0.326175
0.320574
0.314705
0.30865
0.302695
0.297247
0.29273
0.289498
0.2875
0.286377
0.285787
0.285469
0.28527
0.285072
0.284789
0.28459
0.284727
0.285367
0.286517
0.28831
0.291044
0.295154
0.301947
0.316569
0.352861
0.416513
0.360565
0.0390811
0.118257
0.169831
0.194406
0.206063
0.213074
0.2196
0.227539
0.241231
0.273611
0.351663
0.634926
2.60493
0.966215
0.336419
0.301081
0.257206
0.192802
0.147432
0.148448
0.238417
0.424466
0.717902
1.36359
2.5994
1.77148
1.12948
1.05327
1.02996
1.05197
1.18348
1.47775
1.55241
1.33211
1.30897
1.46293
1.69464
1.94033
1.9902
1.95066
2.00838
2.12404
2.23482
2.29849
2.3516
2.42912
2.50558
2.55813
2.60066
2.64986
2.7
2.74552
2.79125
2.83699
2.87696
2.9102
2.93785
2.95896
2.97315
2.98087
2.98173
2.9751
2.96067
2.9382
2.90776
2.86974
2.82469
2.77319
2.71591
2.65355
2.58688
2.5167
2.44382
2.36901
2.293
2.2164
2.13974
2.0634
1.98771
1.91287
1.83908
1.76644
1.69507
1.62504
1.55642
1.48927
1.42364
1.3596
1.29717
1.23641
1.17735
1.12002
1.06443
1.01061
0.958554
0.908285
0.859805
0.81312
0.768239
0.72517
0.683923
0.64451
0.606942
0.571227
0.537368
0.505363
0.475198
0.44685
0.420283
0.39545
0.372291
0.350739
0.330716
0.312141
0.294927
0.278988
0.264237
0.25059
0.237965
0.226288
0.215486
0.205493
0.196249
0.187697
0.179788
0.172474
0.165716
0.159474
0.153717
0.148412
0.143533
0.139055
0.134955
0.131211
0.127806
0.124719
0.121935
0.119435
0.117204
0.115223
0.113475
0.111941
0.110602
0.109437
0.108426
0.107544
0.106769
0.106076
0.105442
0.104842
0.104251
0.103648
0.10301
0.102316
0.101549
0.100691
0.0997299
0.0986533
0.0974527
0.0961219
0.0946572
0.0930577
0.0913243
0.0894605
0.0874713
0.0853635
0.0831453
0.0808261
0.0784162
0.0759264
0.0733681
0.0707528
0.0680923
0.0653978
0.0626806
0.0599516
0.0572208
0.0544979
0.051792
0.0491112
0.0464631
0.0438544
0.041291
0.0387782
0.0363205
0.0339215
0.0315844
0.0293115
0.0271048
0.0249654
0.0228941
0.0208913
0.0189568
0.0170901
0.0152905
0.0135567
0.0118876
0.0102815
0.00873676
0.00725159
0.00582404
0.00445211
0.00313376
0.0018669
0.000649454
-0.000520643
-0.00164544
-0.00272693
-0.00376708
-0.00476777
-0.00573085
-0.00665807
-0.0075511
-0.00841155
-0.00924094
-0.0100407
-0.0108122
-0.0115567
-0.0122754
-0.0129693
-0.0136395
-0.014287
-0.0149127
-0.0155172
-0.0161013
-0.0166657
-0.0172109
-0.0177375
-0.0182459
-0.0187365
-0.0192096
-0.0196655
-0.0201043
-0.0205263
-0.0209315
-0.02132
-0.0216919
-0.022047
-0.0223853
-0.0227068
-0.0230112
-0.0232983
-0.0235681
-0.0238203
-0.0240546
-0.0242709
-0.0244688
-0.0246483
-0.024809
-0.0249508
-0.0250737
-0.0251774
-0.0252621
-0.0253277
-0.0253744
-0.0254025
-0.0254123
-0.0254042
-0.0253787
-0.0253365
-0.0252781
-0.0252045
-0.0251162
-0.0250143
-0.0248996
-0.024773
-0.0246354
-0.0244877
-0.0243308
-0.0241656
-0.0239931
-0.023814
-0.0236295
-0.0234404
-0.0232478
-0.0230527
-0.0228562
-0.0226594
-0.0224631
-0.0222684
-0.022076
-0.0218864
-0.0217001
-0.0215171
-0.0213371
-0.0211598
-0.0209846
-0.0208105
-0.0206367
-0.0204623
-0.0202862
-0.0201078
-0.0199262
-0.0197409
-0.0195515
-0.0193577
-0.0191595
-0.0189568
-0.0187498
-0.0185388
-0.018324
-0.0181058
-0.0178846
-0.0176608
-0.0174346
-0.0172066
-0.016977
-0.0167461
-0.0165143
-0.0162819
-0.016049
-0.0158158
-0.0155826
-0.0153495
-0.0151166
-0.014884
-0.0146518
-0.0144201
-0.0141889
-0.0139583
-0.0137283
-0.013499
-0.0132703
-0.0130423
-0.012815
-0.0125883
-0.0123623
-0.0121369
-0.0119122
-0.0116881
-0.0114646
-0.0112417
-0.0110194
-0.0107977
-0.0105765
-0.0103559
-0.0101358
-0.00991614
-0.00969701
-0.00947835
-0.00926013
-0.00904236
-0.00882501
-0.00860806
-0.00839151
-0.00817533
-0.00795951
-0.00774405
-0.00752892
-0.00731411
-0.00709962
-0.00688542
-0.00667151
-0.00645788
-0.00624451
-0.0060314
-0.00581854
-0.0056059
-0.00539349
-0.0051813
-0.00496931
-0.00475752
-0.00454592
-0.00433449
-0.00412324
-0.00391214
-0.0037012
-0.00349041
-0.00327975
-0.00306921
-0.0028588
-0.00264851
-0.00243831
-0.00222822
-0.00201822
-0.00180829
-0.00159845
-0.00138865
-0.00117898
-0.000969125
-0.000760057
-0.000548029
-0.000343623
-9.76524e-05
7.7806
5.68767
0.466449
-0.263836
-0.281372
-0.298867
-0.328393
-0.350425
-0.393397
-0.451695
-0.528544
-0.618659
-0.701881
-0.817739
-1.00081
-1.18695
-1.334
-1.56607
-0.765583
-1.58712
-0.989065
0.277271
0.312231
0.285733
0.316119
0.335087
0.35798
0.367435
0.37204
0.378678
0.365418
0.355532
0.364755
0.372405
0.371147
0.355426
0.341
0.333646
0.328488
0.323051
0.317459
0.31203
0.306926
0.302216
0.297901
0.293967
0.290476
0.287492
0.285127
0.283491
0.282525
0.282089
0.282071
0.282316
0.282776
0.283483
0.284402
0.285503
0.286793
0.288446
0.290758
0.294057
0.299505
0.309177
0.316429
0.286696
0.245436
0.23505
0.23499
0.236907
0.238356
0.239603
0.24152
0.244948
0.252279
0.271769
0.318215
0.382359
0.302607
-0.0245648
0.100892
0.152254
0.175423
0.189172
0.197865
0.206806
0.222947
0.251073
0.315141
0.477155
3.62013
1.2395
-0.343895
-0.248138
0.0441827
0.347966
0.843897
1.77055
1.61992
1.03941
1.06227
1.15892
1.3417
1.73112
1.63886
1.41628
1.4668
1.66454
1.86948
1.92195
1.96129
2.07594
2.18444
2.23346
2.26788
2.32784
2.39332
2.45049
2.51384
2.58135
2.63847
2.68601
2.72818
2.76262
2.78936
2.81014
2.8239
2.82942
2.82619
2.81367
2.79195
2.76167
2.72351
2.67816
2.62634
2.56881
2.50641
2.44009
2.37076
2.29933
2.22662
2.15331
2.07994
2.0069
1.93447
1.86285
1.79215
1.72249
1.65393
1.58654
1.52038
1.45551
1.39199
1.32989
1.26925
1.21014
1.15259
1.09665
1.04234
0.989692
0.938715
0.889426
0.841837
0.79596
0.751809
0.7094
0.668753
0.629891
0.592837
0.557611
0.524229
0.492699
0.463017
0.435166
0.409112
0.384809
0.362196
0.341199
0.321736
0.303719
0.287056
0.271652
0.257418
0.244264
0.232106
0.220867
0.210473
0.200859
0.191963
0.183731
0.176114
0.169068
0.162553
0.156533
0.150977
0.145856
0.141144
0.13682
0.132861
0.129249
0.125966
0.122997
0.120325
0.117935
0.115812
0.113939
0.1123
0.110877
0.109651
0.108602
0.107708
0.106945
0.106291
0.105718
0.105203
0.104718
0.10424
0.103741
0.103201
0.102597
0.101908
0.10112
0.100216
0.0991846
0.0980177
0.096709
0.0952552
0.0936559
0.0919128
0.0900303
0.0880144
0.085873
0.0836155
0.0812522
0.0787945
0.0762544
0.0736441
0.0709763
0.0682631
0.065517
0.0627496
0.0599723
0.0571958
0.05443
0.0516843
0.048967
0.0462857
0.0436474
0.0410579
0.0385224
0.0360452
0.0336301
0.0312799
0.0289969
0.0267826
0.0246382
0.0225643
0.0205608
0.0186275
0.0167636
0.0149682
0.01324
0.0115775
0.00997889
0.0084424
0.00696602
0.00554771
0.00418533
0.00287672
0.00161971
0.000412123
-0.000748181
-0.00186332
-0.00293535
-0.00396628
-0.00495804
-0.00591251
-0.00683145
-0.00771658
-0.00856951
-0.00939177
-0.0101848
-0.01095
-0.0116885
-0.0124016
-0.0130904
-0.0137559
-0.014399
-0.0150207
-0.0156215
-0.0162024
-0.0167638
-0.0173064
-0.0178307
-0.0183371
-0.018826
-0.0192977
-0.0197524
-0.0201904
-0.0206118
-0.0210166
-0.021405
-0.0217769
-0.0221322
-0.0224709
-0.0227929
-0.023098
-0.0233859
-0.0236565
-0.0239096
-0.0241448
-0.0243619
-0.0245606
-0.0247407
-0.024902
-0.0250441
-0.025167
-0.0252705
-0.0253547
-0.0254194
-0.0254649
-0.0254914
-0.0254991
-0.0254885
-0.0254602
-0.0254147
-0.0253526
-0.0252749
-0.0251823
-0.0250757
-0.024956
-0.0248242
-0.0246812
-0.0245281
-0.0243657
-0.024195
-0.0240171
-0.0238329
-0.0236435
-0.0234499
-0.0232532
-0.0230547
-0.0228554
-0.0226565
-0.0224592
-0.0222644
-0.022073
-0.0218856
-0.0217023
-0.0215232
-0.0213478
-0.0211755
-0.0210053
-0.0208362
-0.020667
-0.0204964
-0.0203234
-0.020147
-0.0199665
-0.0197814
-0.0195914
-0.0193962
-0.0191959
-0.0189907
-0.0187809
-0.0185668
-0.0183488
-0.0181275
-0.0179032
-0.0176764
-0.0174476
-0.017217
-0.0169851
-0.0167523
-0.0165187
-0.0162846
-0.0160504
-0.0158161
-0.0155819
-0.0153479
-0.0151143
-0.0148812
-0.0146486
-0.0144165
-0.0141851
-0.0139543
-0.0137242
-0.0134947
-0.013266
-0.013038
-0.0128106
-0.012584
-0.012358
-0.0121327
-0.011908
-0.011684
-0.0114606
-0.0112378
-0.0110156
-0.010794
-0.0105729
-0.0103524
-0.0101324
-0.00991287
-0.00969384
-0.00947527
-0.00925716
-0.00903948
-0.00882221
-0.00860536
-0.00838889
-0.00817279
-0.00795706
-0.00774167
-0.00752662
-0.00731189
-0.00709747
-0.00688334
-0.0066695
-0.00645594
-0.00624264
-0.00602959
-0.00581678
-0.00560421
-0.00539186
-0.00517972
-0.00496779
-0.00475605
-0.0045445
-0.00433313
-0.00412192
-0.00391088
-0.00369999
-0.00348924
-0.00327863
-0.00306814
-0.00285778
-0.00264753
-0.00243738
-0.00222733
-0.00201737
-0.00180749
-0.00159769
-0.00138794
-0.00117832
-0.000968502
-0.000759476
-0.000547495
-0.000343148
-9.73914e-05
4.94817
0.112631
-0.104823
-0.197206
-0.274911
-0.328242
-0.37557
-0.421805
-0.476504
-0.539493
-0.609654
-0.678436
-0.747118
-0.852759
-1.01272
-1.25959
-1.5581
-2.02682
-1.44463
-0.112977
0.0289461
0.110773
0.148176
0.175265
0.225144
0.286734
0.333451
0.365465
0.385668
0.395227
0.387985
0.372177
0.365134
0.363421
0.364009
0.359943
0.348786
0.339184
0.331965
0.325527
0.319388
0.313526
0.307979
0.302842
0.298196
0.294101
0.290628
0.287785
0.285516
0.283776
0.282508
0.281636
0.281107
0.280896
0.280932
0.281193
0.281673
0.282361
0.283212
0.284192
0.285297
0.286415
0.287102
0.286109
0.279719
0.26077
0.241226
0.242276
0.242882
0.242749
0.242268
0.241507
0.240965
0.241231
0.242968
0.24923
0.262665
0.274635
0.251945
0.20008
0.19631
0.20084
0.206768
0.214176
0.221759
0.228424
0.239028
0.262334
0.310804
0.402138
0.355406
-0.216904
0.0383416
0.140269
0.199336
0.274607
0.399049
2.24657
1.83379
-0.414191
-0.320782
0.24325
0.92805
2.14899
1.43175
1.01836
1.12349
1.28816
1.60394
1.52316
1.45856
1.61955
1.80883
1.84008
1.84968
1.93716
2.0289
2.09235
2.17693
2.27437
2.34982
2.41329
2.47502
2.52613
2.56794
2.60523
2.63514
2.65576
2.66651
2.66603
2.65458
2.63338
2.60332
2.56522
2.51982
2.4679
2.41043
2.3485
2.28324
2.21571
2.14687
2.07748
2.00809
1.93907
1.87064
1.80294
1.73605
1.67001
1.60487
1.54068
1.47749
1.41536
1.35436
1.29456
1.23606
1.1789
1.12315
1.06886
1.01608
0.964823
0.915124
0.866999
0.820465
0.775541
0.732246
0.690607
0.650656
0.612428
0.575962
0.541297
0.508463
0.477482
0.448363
0.421097
0.395655
0.37199
0.350039
0.329721
0.310948
0.29362
0.277638
0.262899
0.249305
0.236761
0.22518
0.21448
0.204587
0.195434
0.186962
0.179117
0.171852
0.165125
0.158898
0.153139
0.147819
0.142911
0.138393
0.134244
0.130446
0.126983
0.123839
0.121001
0.118454
0.116187
0.114185
0.112435
0.11092
0.109625
0.108531
0.107617
0.106863
0.106243
0.105733
0.105305
0.104933
0.104589
0.104246
0.103876
0.103454
0.102958
0.102366
0.10166
0.100824
0.0998472
0.0987197
0.0974361
0.0959935
0.0943922
0.0926353
0.0907279
0.0886775
0.0864934
0.0841862
0.0817677
0.0792506
0.0766482
0.0739739
0.0712413
0.0684638
0.0656545
0.0628259
0.0599901
0.0571581
0.0543405
0.0515467
0.0487855
0.0460645
0.0433908
0.0407701
0.0382076
0.0357076
0.0332735
0.030908
0.0286132
0.0263904
0.0242405
0.0221638
0.02016
0.0182286
0.0163686
0.0145788
0.0128577
0.0112034
0.00961416
0.00808786
0.00662234
0.00521539
0.00386471
0.00256802
0.00132303
0.000127449
-0.00102095
-0.00212438
-0.00318494
-0.00420472
-0.00518569
-0.00612975
-0.00703873
-0.00791434
-0.00875821
-0.0095719
-0.0103568
-0.0111144
-0.0118458
-0.0125523
-0.013235
-0.0138948
-0.0145326
-0.0151495
-0.015746
-0.0163229
-0.0168808
-0.0174203
-0.0179419
-0.0184459
-0.0189328
-0.0194028
-0.0198562
-0.0202932
-0.0207139
-0.0211183