/*--------------------------------*- C++ -*----------------------------------*\
| =========                 |                                                 |
| \\      /  F ield         | OpenFOAM: The Open Source CFD Toolbox           |
|  \\    /   O peration     | Version:  v2006                                 |
|   \\  /    A nd           | Website:  www.openfoam.com                      |
|    \\/     M anipulation  |                                                 |
\*---------------------------------------------------------------------------*/
FoamFile
{
    version     2.0;
    format      ascii;
    class       volScalarField;
    location    "0";
    object      shifted_f;
}
// * * * * * * * * * * * * * * * * * * * * * * * * * * * * * * * * * * * * * //

dimensions      [0 0 0 0 0 0 0];


internalField   nonuniform List<scalar> 
2500
(
0.000205949
0.000205938
0.000205912
0.000205912
0.000205901
0.000205893
0.000205897
0.000205874
0.000205852
0.000205856
0.000205863
0.000205822
0.000205826
0.000205785
0.000205804
0.000205766
0.000205763
0.000205804
0.000205815
0.000205729
0.000205729
0.000205759
0.000205752
0.000205714
0.000203181
0.00020311
0.00020317
0.000203181
0.000203121
0.000203062
0.000203136
0.00020311
0.000203099
0.000203114
0.000203069
0.000203043
0.000202987
0.000203013
0.000203032
0.000203054
0.000203054
0.00020301
0.000202995
0.00020289
0.000202943
0.000202958
0.000202965
0.000202946
0.000202887
0.000202924
0.000202902
0.000202872
0.000202872
0.000202879
0.000202861
0.000202838
0.000202838
0.000202861
0.000202816
0.000202823
0.000202771
0.000202764
0.000202782
0.000202779
0.000202779
0.000202723
0.000202704
0.000202719
0.000202712
0.0002027
0.000202712
0.000202674
0.000202727
0.000202622
0.000202626
0.000202619
0.000202607
0.000202619
0.000202604
0.000202611
0.000202563
0.000202611
0.000202645
0.000202551
0.000202544
0.000202548
0.000202544
0.000202592
0.000202578
0.000202514
0.000202551
0.000202488
0.00020247
0.000202507
0.000202451
0.000202511
0.000202503
0.000202458
0.000202466
0.000202406
0.000202391
0.00020241
0.000202406
0.000202376
0.000202391
0.000202369
0.000202369
0.000202332
0.000202294
0.000202253
0.000202294
0.000202265
0.000202287
0.000202313
0.000202283
0.000202257
0.000202253
0.000202265
0.00020228
0.000202276
0.000202246
0.00020225
0.000202216
0.00020222
0.000202257
0.000199798
0.000199772
0.000199709
0.000199717
0.000199754
0.000199806
0.00019981
0.000199746
0.00019975
0.000199724
0.000199717
0.000199731
0.000199739
0.000199657
0.000199694
0.000199664
0.000199694
0.000199676
0.000199649
0.000199683
0.00019962
0.000199668
0.000199631
0.000199653
0.000199586
0.000199579
0.000199582
0.000199545
0.000199515
0.000199486
0.000199422
0.000199426
0.000199474
0.0001995
0.000199489
0.000199523
0.000199463
0.000199474
0.00019943
0.000199433
0.000199441
0.000199459
0.000199478
0.000199396
0.000199404
0.000199392
0.000199378
0.000199359
0.000199344
0.000199322
0.000199318
0.00019937
0.00019931
0.000199299
0.000199329
0.00019934
0.000199363
0.000199322
0.000199296
0.000199225
0.000199303
0.000199251
0.000199251
0.000199217
0.000199255
0.000199217
0.000199221
0.000199165
0.00019918
0.000199184
0.000199158
0.000199195
0.000199173
0.000199176
0.000199202
0.000199143
0.000199147
0.000199106
0.000199135
0.000199176
0.000199173
0.000199135
0.000199109
0.000199065
0.000199102
0.000199068
0.000199091
0.000199083
0.000199031
0.000199035
0.000199065
0.000199009
0.000199042
0.000199057
0.000198979
0.000199005
0.000199001
0.000198986
0.000198949
0.000198931
0.000198942
0.000196647
0.000196721
0.000196695
0.000196703
0.000196662
0.000196703
0.000196651
0.000196643
0.000196587
0.000196625
0.000196647
0.000196632
0.000196591
0.000196625
0.000196602
0.000196643
0.000196587
0.000196565
0.000196565
0.00019658
0.000196539
0.000196543
0.000196524
0.00019649
0.000196449
0.000196513
0.000196461
0.000196498
0.000196468
0.000196476
0.000196517
0.000196457
0.000196401
0.000196408
0.000196353
0.000196449
0.000196427
0.000196353
0.000196364
0.000196375
0.000196379
0.000196386
0.000196382
0.000196401
0.000196319
0.000196334
0.000196293
0.000196345
0.000196341
0.000196282
0.000196297
0.000196319
0.000196289
0.000196297
0.000196267
0.000196207
0.000196207
0.000196207
0.000196226
0.000196204
0.000196178
0.00019623
0.0001962
0.000196189
0.000196196
0.0001962
0.000196207
0.000196178
0.000196125
0.000196159
0.00019614
0.000196144
0.00019617
0.000196129
0.000196058
0.000196107
0.000196099
0.000196114
0.000196099
0.000196088
0.000196021
0.000196014
0.000196096
0.000196066
0.000196077
0.000196043
0.000196014
0.000196036
0.000195961
0.000195961
0.000195958
0.000196002
0.00019601
0.000195958
0.000195939
0.000195961
0.000195943
0.000195935
0.000195909
0.000195924
0.000195865
0.000193942
0.00019392
0.000193879
0.000193965
0.000193875
0.000193849
0.000193886
0.000193868
0.000193886
0.000193845
0.000193853
0.000193812
0.000193834
0.000193875
0.000193849
0.000193797
0.000193827
0.00019386
0.000193857
0.000193808
0.000193801
0.000193704
0.000193775
0.000193734
0.000193771
0.000193745
0.000193723
0.0001937
0.000193674
0.0001937
0.000193719
0.000193711
0.000193667
0.00019367
0.000193637
0.000193637
0.000193618
0.000193607
0.000193637
0.000193655
0.000193644
0.000193611
0.000193633
0.000193574
0.000193607
0.000193607
0.000193618
0.000193559
0.00019357
0.000193525
0.000193592
0.000193551
0.000193577
0.000193518
0.000193529
0.000193547
0.000193529
0.000193521
0.000193462
0.000193499
0.000193473
0.000193503
0.000193439
0.00019348
0.000193447
0.000193462
0.000193439
0.000193428
0.000193458
0.000193428
0.000193372
0.000193417
0.000193421
0.000193428
0.000193447
0.000193365
0.000193346
0.000193372
0.000193372
0.000193384
0.00019332
0.00019338
0.000193339
0.000193328
0.000193276
0.000193339
0.000193313
0.00019329
0.00019329
0.000193276
0.000193309
0.000193302
0.000193257
0.000193272
0.000193235
0.000193287
0.000193305
0.000193238
0.00019322
0.000193197
0.000193201
0.000191551
0.000191592
0.00019161
0.000191554
0.000191543
0.000191581
0.000191573
0.000191502
0.000191577
0.000191547
0.000191536
0.000191528
0.000191465
0.000191536
0.000191499
0.000191484
0.000191465
0.000191461
0.000191446
0.000191446
0.000191446
0.000191502
0.000191443
0.000191383
0.000191398
0.000191443
0.000191409
0.000191368
0.000191402
0.000191413
0.000191454
0.000191361
0.000191387
0.000191387
0.00019135
0.00019132
0.000191361
0.000191338
0.000191297
0.000191327
0.000191323
0.00019135
0.000191268
0.000191271
0.000191279
0.000191309
0.000191286
0.000191286
0.000191264
0.000191305
0.000191301
0.000191264
0.000191253
0.000191253
0.000191268
0.000191238
0.000191242
0.000191189
0.000191186
0.000191208
0.000191212
0.000191182
0.000191148
0.000191167
0.000191152
0.000191189
0.000191145
0.000191156
0.000191133
0.000191104
0.000191122
0.000191141
0.0001911
0.000191178
0.000191141
0.000191148
0.000191137
0.000191156
0.000191085
0.000191111
0.000191111
0.000191104
0.000191133
0.00019107
0.000191092
0.000191085
0.000191059
0.000191096
0.0001911
0.000191081
0.000191063
0.000191025
0.000191052
0.000191089
0.000191029
0.000191037
0.000190992
0.000190992
0.000191011
0.000190958
0.000190992
0.000189811
0.000189766
0.000189733
0.000189804
0.000189807
0.000189811
0.000189833
0.000189748
0.00018977
0.000189688
0.000189751
0.000189736
0.000189792
0.00018974
0.000189688
0.000189729
0.000189733
0.000189692
0.000189666
0.000189673
0.00018971
0.000189736
0.000189725
0.000189673
0.000189636
0.000189651
0.000189658
0.000189599
0.000189636
0.000189595
0.000189599
0.000189584
0.000189625
0.000189621
0.000189546
0.000189535
0.000189617
0.000189595
0.000189606
0.00018961
0.000189558
0.000189561
0.000189591
0.000189573
0.000189546
0.000189565
0.000189524
0.000189561
0.000189573
0.000189491
0.000189479
0.000189546
0.000189468
0.000189487
0.000189494
0.000189479
0.000189472
0.00018952
0.00018945
0.000189502
0.000189465
0.000189509
0.000189509
0.000189472
0.000189457
0.000189431
0.000189472
0.000189446
0.00018945
0.00018945
0.000189416
0.00018939
0.000189427
0.000189476
0.000189405
0.00018936
0.000189431
0.000189405
0.000189438
0.000189435
0.000189405
0.000189427
0.000189397
0.00018942
0.000189394
0.000189409
0.000189416
0.000189453
0.000189338
0.000189368
0.000189312
0.000189368
0.000189353
0.000189323
0.000189345
0.000189301
0.000189316
0.00018933
0.000189338
0.00018936
0.000189275
0.000188489
0.000188518
0.000188489
0.00018847
0.000188489
0.000188485
0.000188522
0.000188436
0.000188492
0.000188503
0.000188451
0.000188537
0.000188496
0.000188485
0.000188459
0.000188444
0.000188433
0.000188455
0.000188425
0.000188418
0.000188414
0.00018844
0.000188429
0.000188407
0.000188407
0.000188481
0.000188418
0.000188388
0.000188399
0.00018841
0.000188414
0.000188407
0.000188366
0.000188388
0.000188384
0.000188414
0.000188354
0.000188429
0.000188362
0.00018838
0.000188369
0.000188321
0.000188265
0.000188366
0.000188336
0.000188362
0.000188384
0.000188362
0.000188317
0.000188325
0.000188347
0.000188332
0.000188332
0.000188276
0.000188205
0.000188243
0.000188243
0.000188276
0.000188217
0.000188243
0.000188246
0.000188265
0.000188287
0.000188272
0.000188254
0.00018822
0.000188272
0.00018822
0.00018822
0.000188246
0.000188235
0.000188187
0.000188228
0.000188164
0.000188164
0.000188198
0.000188231
0.000188176
0.000188146
0.000188205
0.00018815
0.000188228
0.000188161
0.000188183
0.000188172
0.000188239
0.000188161
0.000188168
0.000188168
0.00018819
0.000188179
0.000188217
0.000188116
0.000188161
0.000188153
0.000188168
0.000188176
0.000188183
0.000188127
0.00018815
0.00018812
0.000187863
0.000187855
0.000187859
0.000187915
0.000187863
0.000187825
0.000187855
0.000187818
0.000187833
0.000187833
0.000187788
0.000187814
0.000187766
0.000187859
0.000187811
0.00018784
0.000187807
0.000187796
0.000187796
0.000187773
0.00018777
0.000187736
0.000187751
0.000187758
0.000187766
0.000187721
0.000187751
0.000187758
0.000187792
0.000187736
0.000187676
0.000187717
0.000187751
0.000187762
0.000187773
0.000187751
0.000187721
0.00018774
0.000187755
0.00018771
0.000187714
0.000187684
0.000187695
0.000187721
0.000187699
0.000187714
0.00018768
0.000187729
0.000187721
0.000187702
0.000187658
0.000187706
0.000187717
0.000187743
0.000187676
0.000187729
0.000187695
0.000187684
0.000187714
0.000187676
0.000187661
0.000187706
0.00018771
0.000187717
0.000187661
0.000187729
0.000187684
0.000187695
0.00018771
0.000187725
0.000187632
0.000187665
0.000187635
0.000187676
0.000187647
0.000187661
0.000187639
0.00018765
0.000187647
0.000187706
0.00018768
0.000187628
0.000187647
0.000187669
0.000187632
0.000187673
0.00018758
0.00018765
0.00018758
0.000187606
0.000187613
0.000187583
0.000187621
0.000187561
0.000187594
0.000187602
0.000187628
0.000187576
0.00018758
0.000187565
0.000187576
0.000187863
0.000187851
0.000187866
0.000187896
0.000187851
0.000187822
0.000187833
0.000187859
0.000187833
0.000187851
0.000187796
0.00018787
0.00018787
0.000187848
0.000187878
0.000187855
0.000187784
0.000187811
0.000187818
0.000187799
0.000187833
0.000187863
0.000187885
0.000187829
0.000187822
0.000187796
0.000187848
0.000187766
0.000187751
0.00018784
0.000187825
0.000187751
0.000187829
0.000187863
0.000187799
0.000187833
0.000187859
0.00018787
0.000187777
0.000187811
0.000187766
0.000187803
0.000187814
0.000187784
0.000187848
0.000187837
0.000187822
0.000187859
0.000187807
0.000187781
0.000187825
0.000187788
0.000187796
0.000187844
0.000187781
0.000187833
0.00018784
0.000187818
0.000187796
0.000187751
0.000187773
0.000187796
0.000187758
0.000187825
0.000187803
0.000187796
0.000187784
0.000187825
0.000187788
0.000187762
0.000187773
0.000187751
0.000187758
0.000187796
0.000187777
0.000187766
0.000187755
0.000187777
0.000187784
0.00018777
0.000187818
0.000187773
0.000187799
0.000187717
0.000187747
0.00018774
0.000187781
0.000187807
0.000187751
0.000187758
0.000187747
0.00018777
0.000187766
0.000187751
0.000187743
0.000187706
0.000187639
0.000187751
0.000187654
0.00018771
0.000187796
0.00018857
0.000188496
0.000188533
0.000188511
0.000188541
0.000188548
0.000188503
0.000188511
0.000188515
0.000188563
0.000188552
0.000188481
0.000188533
0.000188503
0.000188503
0.000188537
0.000188515
0.000188474
0.000188507
0.000188556
0.000188455
0.000188489
0.000188496
0.000188515
0.000188455
0.000188526
0.000188529
0.000188526
0.000188489
0.000188496
0.000188556
0.000188481
0.000188503
0.000188448
0.000188492
0.000188489
0.000188466
0.000188518
0.0001885
0.0001885
0.000188425
0.000188503
0.000188455
0.000188462
0.000188489
0.000188496
0.000188477
0.000188455
0.000188466
0.000188507
0.000188455
0.00018841
0.000188466
0.000188496
0.000188459
0.000188511
0.000188459
0.000188489
0.000188518
0.000188518
0.000188503
0.000188451
0.000188492
0.000188462
0.000188518
0.000188462
0.000188511
0.000188544
0.000188489
0.000188522
0.000188574
0.000188503
0.000188444
0.000188451
0.000188485
0.000188477
0.000188529
0.000188474
0.000188485
0.000188518
0.000188489
0.000188466
0.000188533
0.000188503
0.000188451
0.000188496
0.000188518
0.000188481
0.000188489
0.000188474
0.000188507
0.000188518
0.00018847
0.000188462
0.00018844
0.000188496
0.000188511
0.000188466
0.000188481
0.000188489
0.000188526
0.000189859
0.000189848
0.000189859
0.000189841
0.000189833
0.000189848
0.000189867
0.000189845
0.000189822
0.000189826
0.000189837
0.0001898
0.000189841
0.000189878
0.000189852
0.000189789
0.000189811
0.00018983
0.000189837
0.000189826
0.000189867
0.000189837
0.000189863
0.000189852
0.000189904
0.0001899
0.000189822
0.000189912
0.000189845
0.000189818
0.000189867
0.000189818
0.000189859
0.000189871
0.000189859
0.00018983
0.000189859
0.0001899
0.000189867
0.000189856
0.000189863
0.000189871
0.000189885
0.000189859
0.000189811
0.000189796
0.000189833
0.000189852
0.000189852
0.000189863
0.000189912
0.000189889
0.0001899
0.000189871
0.000189878
0.00018983
0.000189863
0.000189867
0.000189897
0.000189871
0.000189848
0.00018983
0.000189874
0.000189852
0.000189882
0.000189882
0.000189941
0.000189934
0.000189863
0.000189919
0.000189871
0.000189852
0.000189837
0.000189874
0.000189889
0.000189889
0.00018993
0.000189848
0.000189856
0.000189826
0.000189859
0.000189874
0.000189893
0.000189863
0.000189871
0.000189897
0.000189878
0.00018993
0.000189871
0.0001899
0.000189889
0.000189934
0.00018996
0.000189852
0.000189874
0.000189897
0.000189912
0.000189919
0.000189912
0.000189889
0.000189938
0.000191804
0.000191744
0.0001918
0.000191782
0.000191804
0.000191804
0.000191793
0.000191778
0.000191744
0.000191793
0.000191811
0.000191763
0.000191804
0.000191782
0.000191767
0.00019183
0.000191774
0.00019177
0.000191845
0.000191789
0.000191834
0.000191793
0.0001918
0.000191797
0.000191737
0.000191819
0.000191811
0.000191841
0.000191797
0.000191756
0.000191808
0.000191797
0.0001918
0.000191808
0.000191856
0.0001918
0.000191752
0.000191782
0.000191756
0.000191815
0.00019183
0.000191826
0.000191797
0.000191789
0.000191871
0.000191819
0.000191856
0.0001918
0.000191841
0.000191811
0.0001918
0.000191823
0.000191879
0.000191849
0.000191841
0.000191815
0.000191834
0.000191826
0.000191912
0.000191893
0.000191916
0.000191912
0.000191852
0.000191864
0.00019186
0.000191856
0.000191901
0.000191905
0.000191953
0.000191934
0.000191938
0.000191934
0.000191931
0.000191879
0.00019192
0.000191893
0.000191942
0.000191879
0.000191882
0.000191916
0.000191916
0.000191949
0.000191923
0.000191942
0.000191934
0.000191901
0.000191931
0.000191927
0.000191886
0.000191946
0.000191916
0.000191927
0.000191923
0.000191949
0.000191931
0.000191946
0.000191964
0.000191938
0.000191987
0.000191964
0.000191987
0.000194222
0.000194281
0.000194352
0.000194326
0.000194274
0.0001943
0.00019433
0.000194289
0.000194311
0.000194307
0.00019433
0.000194293
0.000194345
0.000194252
0.000194333
0.000194307
0.000194311
0.000194408
0.000194293
0.00019433
0.000194319
0.000194322
0.000194348
0.000194367
0.000194315
0.000194367
0.000194345
0.000194356
0.00019433
0.000194419
0.000194363
0.000194315
0.000194311
0.000194326
0.000194356
0.00019433
0.000194315
0.000194374
0.000194345
0.000194356
0.000194453
0.000194427
0.000194415
0.000194401
0.000194412
0.000194419
0.000194412
0.000194419
0.000194393
0.000194445
0.000194412
0.000194449
0.000194449
0.000194464
0.000194427
0.000194415
0.000194415
0.000194456
0.000194483
0.000194412
0.000194475
0.000194419
0.000194434
0.00019443
0.000194453
0.000194505
0.000194464
0.000194412
0.000194475
0.000194456
0.000194449
0.000194471
0.000194471
0.000194494
0.000194456
0.000194497
0.000194505
0.000194479
0.000194479
0.000194531
0.000194527
0.000194501
0.000194501
0.000194501
0.000194557
0.000194531
0.00019452
0.000194494
0.000194516
0.000194587
0.000194635
0.000194624
0.000194605
0.00019462
0.000194609
0.000194568
0.000194605
0.000194665
0.000194643
0.000194576
0.000194579
0.000197396
0.000197347
0.000197351
0.000197355
0.000197362
0.000197373
0.000197399
0.000197418
0.000197425
0.000197347
0.000197381
0.000197399
0.000197373
0.000197411
0.000197433
0.000197385
0.000197399
0.000197407
0.000197418
0.000197396
0.000197399
0.00019737
0.000197392
0.000197414
0.000197455
0.000197396
0.000197422
0.000197399
0.000197396
0.000197478
0.000197425
0.000197444
0.000197459
0.000197444
0.000197478
0.000197507
0.000197493
0.0001975
0.000197504
0.000197489
0.000197541
0.000197507
0.000197526
0.00019753
0.000197504
0.000197511
0.000197515
0.000197511
0.000197466
0.000197519
0.00019756
0.000197586
0.000197519
0.000197507
0.000197552
0.000197537
0.000197511
0.000197466
0.000197567
0.000197571
0.000197548
0.000197563
0.000197556
0.000197548
0.000197586
0.000197574
0.000197615
0.000197634
0.000197608
0.000197642
0.000197675
0.000197679
0.000197705
0.000197627
0.000197645
0.000197623
0.00019763
0.000197653
0.00019766
0.000197604
0.000197664
0.000197705
0.000197675
0.000197675
0.000197712
0.000197709
0.000197753
0.000197686
0.000197735
0.000197697
0.000197697
0.000197731
0.000197709
0.000197727
0.000197697
0.000197753
0.000197731
0.000197757
0.000197772
0.000197738
0.00019775
0.000200909
0.000200968
0.000200931
0.00020095
0.000200968
0.000200983
0.000200979
0.000201028
0.000200998
0.000200953
0.00020102
0.000200976
0.00020102
0.000200979
0.000200994
0.000200979
0.000200994
0.00020102
0.000200994
0.000201061
0.000201035
0.000201024
0.000201046
0.000201009
0.000201058
0.000201035
0.000201073
0.00020108
0.000201013
0.000201058
0.000201095
0.000201069
0.000201114
0.000201058
0.000201162
0.000201095
0.00020111
0.000201102
0.000201076
0.000201117
0.000201091
0.000201114
0.00020114
0.000201143
0.000201132
0.000201151
0.000201184
0.000201225
0.000201248
0.000201259
0.000201296
0.000201184
0.000201259
0.000201255
0.000201233
0.000201192
0.000201277
0.000201259
0.000201255
0.000201285
0.000201266
0.000201281
0.000201263
0.000201266
0.000201304
0.000201292
0.000201359
0.000201296
0.000201359
0.000201326
0.000201318
0.000201311
0.000201374
0.000201315
0.000201333
0.000201356
0.000201356
0.000201322
0.000201393
0.000201281
0.000201344
0.00020133
0.0002014
0.000201307
0.000201393
0.000201419
0.000201415
0.000201475
0.000201456
0.000201423
0.000201389
0.00020146
0.000201464
0.000201445
0.00020143
0.000201467
0.000201397
0.000201482
0.000201408
0.000201419
0.000201475
0.000205021
0.000205047
0.000205051
0.00020501
0.000205059
0.000205036
0.000205103
0.000205077
0.000205021
0.00020507
0.000205077
0.000205044
0.0002051
0.000205059
0.000205126
0.000205155
0.000205148
0.0002052
0.000205204
0.000205148
0.000205204
0.000205215
0.000205155
0.00020523
0.000205241
0.000205252
0.000205219
0.000205245
0.000205286
0.000205241
0.000205185
0.000205275
0.000205275
0.000205263
0.000205316
0.00020523
0.000205304
0.000205297
0.000205327
0.000205319
0.000205308
0.00020529
0.000205275
0.000205312
0.000205319
0.000205319
0.000205297
0.000205331
0.000205312
0.000205345
0.000205364
0.000205342
0.000205435
0.000205372
0.000205357
0.000205353
0.000205383
0.000205398
0.000205386
0.000205401
0.000205416
0.000205383
0.000205372
0.00020539
0.00020542
0.000205409
0.000205465
0.000205453
0.000205491
0.000205524
0.000205483
0.000205521
0.000205498
0.000205483
0.000205528
0.000205528
0.000205513
0.000205506
0.000205565
0.000205539
0.000205513
0.000205491
0.000205465
0.000205532
0.000205621
0.00020558
0.000205606
0.00020558
0.00020555
0.000205539
0.000205517
0.000205528
0.000205576
0.000205554
0.000205621
0.000205591
0.000205632
0.00020564
0.00020561
0.000205636
0.000205655
0.000209574
0.000209633
0.000209641
0.000209603
0.000209622
0.000209719
0.000209667
0.000209685
0.000209719
0.000209685
0.0002097
0.000209723
0.000209671
0.000209782
0.000209711
0.000209715
0.00020979
0.0002097
0.000209767
0.000209767
0.000209697
0.000209771
0.000209723
0.000209741
0.000209719
0.000209771
0.00020976
0.00020979
0.000209756
0.000209823
0.000209779
0.00020982
0.000209849
0.00020982
0.000209797
0.000209861
0.000209808
0.000209797
0.000209868
0.000209827
0.000209894
0.000209831
0.000209861
0.00020989
0.000209939
0.000209961
0.00020989
0.000209987
0.000209931
0.000209939
0.000209987
0.000209942
0.000209987
0.000209991
0.000209998
0.000210036
0.00021005
0.000210028
0.000210058
0.000210024
0.00021001
0.000209998
0.000210118
0.000210039
0.000210069
0.000210073
0.000210058
0.00021005
0.000210103
0.000210073
0.00021014
0.000210118
0.000210121
0.000210118
0.000210125
0.000210159
0.000210196
0.000210185
0.000210173
0.0002102
0.000210196
0.000210177
0.000210185
0.000210181
0.000210214
0.000210244
0.000210244
0.000210255
0.0002102
0.000210259
0.000210248
0.000210196
0.000210311
0.000210285
0.000210334
0.000210289
0.000210378
0.00021036
0.000210319
0.00021033
0.000210337
0.000214659
0.000214703
0.000214737
0.000214733
0.000214711
0.000214752
0.000214752
0.000214733
0.000214685
0.000214707
0.000214763
0.000214744
0.000214759
0.000214733
0.000214741
0.000214752
0.000214748
0.000214871
0.000214819
0.000214864
0.000214912
0.000214834
0.000214845
0.00021486
0.000214897
0.000214864
0.000214927
0.000214897
0.00021489
0.000214878
0.000214882
0.000214893
0.000214931
0.000214852
0.000214927
0.000214878
0.000214938
0.000214927
0.000214923
0.000214994
0.000214946
0.00021499
0.000214957
0.000214998
0.000215027
0.000214972
0.00021499
0.000215057
0.000215065
0.000215087
0.000215143
0.000215065
0.000215083
0.000215076
0.000215076
0.000215117
0.000215087
0.000215132
0.000215165
0.000215199
0.000215143
0.000215176
0.00021521
0.000215221
0.000215199
0.000215229
0.000215255
0.000215206
0.000215214
0.000215184
0.000215229
0.000215225
0.000215173
0.000215285
0.000215206
0.000215281
0.000215247
0.000215255
0.000215262
0.000215322
0.000215381
0.00021534
0.000215355
0.000215314
0.000215374
0.000215393
0.00021537
0.000215363
0.00021537
0.00021534
0.000215422
0.000215411
0.000215407
0.000215445
0.000215448
0.000215385
0.00021546
0.00021546
0.000215437
0.00021543
0.000215501
0.00022025
0.000220202
0.000220224
0.000220288
0.000220228
0.000220291
0.000220288
0.000220288
0.000220299
0.000220284
0.000220299
0.000220288
0.000220265
0.000220306
0.000220302
0.000220336
0.000220377
0.00022037
0.000220392
0.00022034
0.000220347
0.000220358
0.000220392
0.000220448
0.00022037
0.000220388
0.000220384
0.000220478
0.000220481
0.000220459
0.000220496
0.000220504
0.000220452
0.000220474
0.000220455
0.000220492
0.000220522
0.000220552
0.000220507
0.000220548
0.000220541
0.000220522
0.000220563
0.000220552
0.000220601
0.000220608
0.00022063
0.000220653
0.00022072
0.000220615
0.000220682
0.000220668
0.000220645
0.000220686
0.000220645
0.000220712
0.000220735
0.000220735
0.000220716
0.000220709
0.000220757
0.000220753
0.000220757
0.000220746
0.000220705
0.000220753
0.000220787
0.000220813
0.000220802
0.000220787
0.000220861
0.000220902
0.000220843
0.000220861
0.000220884
0.000220858
0.000220854
0.000220962
0.000220887
0.000220921
0.000220913
0.000220984
0.00022094
0.000220925
0.000220954
0.000220925
0.00022091
0.000220995
0.000220951
0.000220958
0.000221003
0.000221033
0.000220973
0.000221044
0.000221111
0.000221085
0.000221152
0.000221089
0.000221122
0.000221092
0.000221174
0.000226177
0.0002262
0.000226196
0.000226256
0.000226263
0.000226259
0.000226259
0.000226278
0.000226229
0.000226352
0.0002263
0.000226296
0.000226382
0.00022639
0.000226341
0.000226315
0.00022633
0.00022636
0.000226397
0.000226375
0.000226386
0.000226386
0.000226449
0.00022646
0.000226393
0.000226494
0.000226423
0.00022649
0.000226472
0.000226475
0.000226524
0.00022658
0.000226505
0.000226565
0.000226576
0.000226535
0.000226524
0.000226591
0.000226568
0.000226554
0.000226542
0.000226595
0.000226565
0.000226576
0.000226624
0.000226691
0.000226643
0.000226654
0.000226695
0.00022665
0.000226676
0.00022665
0.00022674
0.000226717
0.000226699
0.000226729
0.000226747
0.000226751
0.000226751
0.000226721
0.000226796
0.000226732
0.000226781
0.000226814
0.000226829
0.000226844
0.000226788
0.000226874
0.000226855
0.000226878
0.000226911
0.000226937
0.000226922
0.000226934
0.000226904
0.000226974
0.000227004
0.000226986
0.000226989
0.000226989
0.00022696
0.000227019
0.000227071
0.000227075
0.000227109
0.000227079
0.000227101
0.000227083
0.000227105
0.000227079
0.000227142
0.000227146
0.000227131
0.000227127
0.000227187
0.000227179
0.000227228
0.000227179
0.000227261
0.000227243
0.000227291
0.00023273
0.000232738
0.000232752
0.000232741
0.000232808
0.000232767
0.00023279
0.000232752
0.00023279
0.000232767
0.000232752
0.000232864
0.000232935
0.000232887
0.000232887
0.000232831
0.000232887
0.00023289
0.000232894
0.000232928
0.000232901
0.000232913
0.000232887
0.000232898
0.000232901
0.000232957
0.00023305
0.000233054
0.000233013
0.000232995
0.000233084
0.000232998
0.000233024
0.000233099
0.000233095
0.00023311
0.000233103
0.000233103
0.000233121
0.000233117
0.000233214
0.000233226
0.000233214
0.000233199
0.000233244
0.000233267
0.000233244
0.000233229
0.000233267
0.000233222
0.000233229
0.000233252
0.000233293
0.000233237
0.000233296
0.000233334
0.000233307
0.000233375
0.000233348
0.000233393
0.000233382
0.000233371
0.000233356
0.000233334
0.000233389
0.000233412
0.000233434
0.000233453
0.000233427
0.00023346
0.000233468
0.000233453
0.000233565
0.000233531
0.000233579
0.000233535
0.000233505
0.000233516
0.000233572
0.000233606
0.00023355
0.000233646
0.000233613
0.000233643
0.000233658
0.000233721
0.000233684
0.000233766
0.000233736
0.000233736
0.000233714
0.00023381
0.000233799
0.000233755
0.000233766
0.000233788
0.000233877
0.000233848
0.000233863
0.000233822
0.000233848
0.000239767
0.000239823
0.000239778
0.000239763
0.000239749
0.000239756
0.00023976
0.00023986
0.000239853
0.000239842
0.000239864
0.000239879
0.000239905
0.00023989
0.000239957
0.000239909
0.000239924
0.000239953
0.000239983
0.000239927
0.000239938
0.000240009
0.000240024
0.000240024
0.000240065
0.000239979
0.000240006
0.000239991
0.000240054
0.000240125
0.000240099
0.000240125
0.00024011
0.000240121
0.000240128
0.000240125
0.000240099
0.00024014
0.000240203
0.000240143
0.000240244
0.000240277
0.000240255
0.000240326
0.000240318
0.000240326
0.000240322
0.000240296
0.0002403
0.000240307
0.000240348
0.000240386
0.000240438
0.000240438
0.000240471
0.000240434
0.000240389
0.000240427
0.000240471
0.000240516
0.000240475
0.00024049
0.000240516
0.000240535
0.000240568
0.000240523
0.000240576
0.000240542
0.000240546
0.000240579
0.000240631
0.000240713
0.000240635
0.000240676
0.000240717
0.00024065
0.000240654
0.000240713
0.000240687
0.00024071
0.000240713
0.000240754
0.000240773
0.000240806
0.000240769
0.000240814
0.000240892
0.000240829
0.000240847
0.000240806
0.000240821
0.000240918
0.000240918
0.000241011
0.000240967
0.000240959
0.000241004
0.000241037
0.000241008
0.000240963
0.000240978
0.00024727
0.000247449
0.000247393
0.000247397
0.000247359
0.000247404
0.0002474
0.000247385
0.000247389
0.000247456
0.000247508
0.000247512
0.000247467
0.00024756
0.000247482
0.000247482
0.000247538
0.000247587
0.000247616
0.000247624
0.000247538
0.00024762
0.000247672
0.000247613
0.00024762
0.000247683
0.000247706
0.000247695
0.000247695
0.000247713
0.00024775
0.00024775
0.00024768
0.000247743
0.000247814
0.000247803
0.000247855
0.000247817
0.00024781
0.000247847
0.000247847
0.000247881
0.000247903
0.000247903
0.000247926
0.000247966
0.000247963
0.000247955
0.00024797
0.000247959
0.000248097
0.000248045
0.000248034
0.000248041
0.00024806
0.000248093
0.000248082
0.000248037
0.000248075
0.000248145
0.000248175
0.000248235
0.000248216
0.00024819
0.000248242
0.000248201
0.000248257
0.00024825
0.000248272
0.000248339
0.000248313
0.000248265
0.000248298
0.000248287
0.000248346
0.000248421
0.000248436
0.000248428
0.000248387
0.000248391
0.000248451
0.000248432
0.000248414
0.000248495
0.000248529
0.000248533
0.000248529
0.000248604
0.000248604
0.000248618
0.000248604
0.000248641
0.000248671
0.000248667
0.0002487
0.000248659
0.000248738
0.000248741
0.000248667
0.000248749
0.000248782
0.000255495
0.000255529
0.000255592
0.000255607
0.000255544
0.000255641
0.000255644
0.000255611
0.000255652
0.000255674
0.00025573
0.000255689
0.00025576
0.000255737
0.000255775
0.000255775
0.00025576
0.000255775
0.000255842
0.000255875
0.000255834
0.000255793
0.000255901
0.000255834
0.000255946
0.000255931
0.000255875
0.000255946
0.000255886
0.000255961
0.000255939
0.000256054
0.000256013
0.000256065
0.000256095
0.000256006
0.000256073
0.000256106
0.000256114
0.000256144
0.000256155
0.000256173
0.000256117
0.000256222
0.000256237
0.000256177
0.000256266
0.000256199
0.000256307
0.000256263
0.000256252
0.000256326
0.000256289
0.000256363
0.000256334
0.000256334
0.000256471
0.000256408
0.000256427
0.000256438
0.00025646
0.000256475
0.000256471
0.00025655
0.000256542
0.000256564
0.000256538
0.000256494
0.000256591
0.000256639
0.000256676
0.000256654
0.000256591
0.000256673
0.000256658
0.000256736
0.000256695
0.000256702
0.00025674
0.000256751
0.000256784
0.00025674
0.000256807
0.000256818
0.000256792
0.000256829
0.000256807
0.000256829
0.000256907
0.000256889
0.000256952
0.00025693
0.000257023
0.000257019
0.000257056
0.000257023
0.000257
0.000257086
0.000257038
0.000257079
0.000257168
0.000264399
0.00026441
0.000264399
0.000264447