/*--------------------------------*- C++ -*----------------------------------*\
| =========                 |                                                 |
| \\      /  F ield         | OpenFOAM: The Open Source CFD Toolbox           |
|  \\    /   O peration     | Version:  v2006                                 |
|   \\  /    A nd           | Website:  www.openfoam.com                      |
|    \\/     M anipulation  |                                                 |
\*---------------------------------------------------------------------------*/
FoamFile
{
    version     2.0;
    format      ascii;
    class       volVectorField;
    location    "0";
    object      U;
}
// * * * * * * * * * * * * * * * * * * * * * * * * * * * * * * * * * * * * * //

dimensions      [0 1 -1 0 0 0 0];


internalField   nonuniform List<vector> 
20000
(
(1 3.34407e-12 0)
(1 9.82945e-12 0)
(1 1.79181e-11 0)
(1 2.82818e-11 0)
(1 4.08627e-11 0)
(1 5.56113e-11 0)
(1 7.27612e-11 0)
(1 9.27888e-11 0)
(1 1.16098e-10 0)
(1 1.4274e-10 0)
(1 1.72331e-10 0)
(1 2.04154e-10 0)
(1 2.37337e-10 0)
(1 2.70971e-10 0)
(1 3.04114e-10 0)
(1 3.35719e-10 0)
(1 3.64556e-10 0)
(1 3.89194e-10 0)
(1 4.08086e-10 0)
(1 4.19738e-10 0)
(1 4.22933e-10 0)
(1 4.16852e-10 0)
(1 4.00989e-10 0)
(1 3.75337e-10 0)
(1 3.40655e-10 0)
(1 2.98341e-10 0)
(1 2.5014e-10 0)
(1 1.97835e-10 0)
(1 1.43009e-10 0)
(1 8.69567e-11 0)
(1 3.08129e-11 0)
(1 -2.4201e-11 0)
(1 -7.64905e-11 0)
(1 -1.24076e-10 0)
(1 -1.64869e-10 0)
(1 -1.96742e-10 0)
(1 -2.17002e-10 0)
(1 -2.22307e-10 0)
(1 -2.10885e-10 0)
(1 -1.87353e-10 0)
(1 -1.77971e-10 0)
(1 -2.02035e-10 0)
(1 -2.67916e-10 0)
(1 -3.80073e-10 0)
(1 -5.43337e-10 0)
(1 -7.64617e-10 0)
(1 -1.05336e-09 0)
(1 -1.42185e-09 0)
(1 -1.88552e-09 0)
(1 -2.46332e-09 0)
(1 -3.1782e-09 0)
(1 -4.05814e-09 0)
(1 -5.13737e-09 0)
(1 -6.45773e-09 0)
(1 -8.06985e-09 0)
(1 -1.00342e-08 0)
(1 -1.24225e-08 0)
(1 -1.53189e-08 0)
(1 -1.882e-08 0)
(1 -2.30333e-08 0)
(1 -2.80732e-08 0)
(1 -3.4062e-08 0)
(1 -4.11373e-08 0)
(1 -4.94502e-08 0)
(1 -5.91309e-08 0)
(1 -7.02541e-08 0)
(1 -8.29227e-08 0)
(1 -9.74461e-08 0)
(1 -1.14112e-07 0)
(1 -1.32064e-07 0)
(1.00001 -1.48545e-07 0)
(1.00001 -1.62354e-07 0)
(1.00001 -1.82294e-07 0)
(1.00001 -2.2589e-07 0)
(1.00001 -2.81666e-07 0)
(1.00001 -2.49601e-07 0)
(1.00001 3.49492e-09 0)
(1.00001 3.87551e-07 0)
(1.00001 7.28748e-07 0)
(1.00001 9.62696e-07 0)
(1.00001 1.10207e-06 0)
(1.00001 1.18353e-06 0)
(1.00001 1.24046e-06 0)
(1 1.29684e-06 0)
(1 1.36811e-06 0)
(0.999999 1.46125e-06 0)
(0.999996 1.57376e-06 0)
(0.999994 1.6929e-06 0)
(0.999991 1.79707e-06 0)
(0.999989 1.86011e-06 0)
(0.999986 1.85807e-06 0)
(0.999983 1.77621e-06 0)
(0.99998 1.61184e-06 0)
(0.999977 1.37426e-06 0)
(0.999973 1.08159e-06 0)
(0.99997 7.53363e-07 0)
(0.999967 4.06058e-07 0)
(0.999964 5.31419e-08 0)
(0.999961 -2.93514e-07 0)
(0.999959 -6.21802e-07 0)
(0.999956 -9.18594e-07 0)
(0.999954 -1.17022e-06 0)
(0.999952 -1.36333e-06 0)
(0.999951 -1.48615e-06 0)
(0.999949 -1.53081e-06 0)
(0.999948 -1.49559e-06 0)
(0.999948 -1.38612e-06 0)
(0.999948 -1.21651e-06 0)
(0.999948 -1.02501e-06 0)
(0.999948 -8.7611e-07 0)
(0.999949 -7.95189e-07 0)
(0.999951 -7.78879e-07 0)
(0.999954 -8.14076e-07 0)
(0.999958 -8.77918e-07 0)
(0.999963 -9.31033e-07 0)
(0.999969 -9.12709e-07 0)
(0.999976 -7.42946e-07 0)
(0.999983 -3.35633e-07 0)
(0.99999 3.7298e-07 0)
(0.999995 1.37639e-06 0)
(0.999997 2.52075e-06 0)
(0.999997 3.44031e-06 0)
(0.999996 3.98896e-06 0)
(0.999994 4.23682e-06 0)
(0.999991 4.27464e-06 0)
(0.999988 4.15377e-06 0)
(0.999985 3.89595e-06 0)
(0.999981 3.51104e-06 0)
(0.999976 3.00926e-06 0)
(0.999972 2.40365e-06 0)
(0.999967 1.71294e-06 0)
(0.999962 9.64004e-07 0)
(0.999957 1.8963e-07 0)
(0.999952 -5.73835e-07 0)
(0.999948 -1.28844e-06 0)
(0.999943 -1.91799e-06 0)
(0.999939 -2.43149e-06 0)
(0.999936 -2.80592e-06 0)
(0.999933 -3.02832e-06 0)
(0.999931 -3.09649e-06 0)
(0.999929 -3.01919e-06 0)
(0.999927 -2.81541e-06 0)
(0.999926 -2.51236e-06 0)
(0.999926 -2.14391e-06 0)
(0.999926 -1.7536e-06 0)
(0.999926 -1.40124e-06 0)
(0.999926 -1.14874e-06 0)
(0.999928 -9.93814e-07 0)
(0.99993 -9.12987e-07 0)
(0.999933 -8.78108e-07 0)
(0.999937 -8.59653e-07 0)
(0.999941 -8.32097e-07 0)
(0.999946 -7.80284e-07 0)
(0.99995 -7.03051e-07 0)
(0.999954 -6.11609e-07 0)
(0.999957 -5.22725e-07 0)
(0.99996 -4.50197e-07 0)
(0.999963 -3.99851e-07 0)
(0.999966 -3.70157e-07 0)
(0.999968 -3.55725e-07 0)
(0.99997 -3.50286e-07 0)
(0.999973 -3.48303e-07 0)
(0.999975 -3.45713e-07 0)
(0.999977 -3.40081e-07 0)
(0.999979 -3.3034e-07 0)
(0.999981 -3.16414e-07 0)
(0.999984 -2.98849e-07 0)
(0.999985 -2.7851e-07 0)
(0.999987 -2.56368e-07 0)
(0.999989 -2.33349e-07 0)
(0.99999 -2.10259e-07 0)
(0.999992 -1.87749e-07 0)
(0.999993 -1.66303e-07 0)
(0.999994 -1.46256e-07 0)
(0.999995 -1.27809e-07 0)
(0.999996 -1.1106e-07 0)
(0.999996 -9.60227e-08 0)
(0.999997 -8.26499e-08 0)
(0.999997 -7.08545e-08 0)
(0.999998 -6.05232e-08 0)
(0.999998 -5.1529e-08 0)
(0.999999 -4.37397e-08 0)
(0.999999 -3.70244e-08 0)
(0.999999 -3.12573e-08 0)
(0.999999 -2.63199e-08 0)
(0.999999 -2.21023e-08 0)
(1 -1.85035e-08 0)
(1 -1.54315e-08 0)
(1 -1.28035e-08 0)
(1 -1.05463e-08 0)
(1 -8.59674e-09 0)
(1 -6.90198e-09 0)
(1 -5.42045e-09 0)
(1 -4.12228e-09 0)
(1 -2.98963e-09 0)
(1 -2.01642e-09 0)
(1 -1.19748e-09 0)
(1 -5.62709e-10 0)
(1 8.89427e-12 0)
(1 3.22133e-10 0)
(1 5.97177e-12 0)
(1 1.65892e-11 0)
(1 2.78927e-11 0)
(1 4.06893e-11 0)
(1 5.51775e-11 0)
(1 7.15113e-11 0)
(1 8.96918e-11 0)
(1 1.09675e-10 0)
(1 1.31363e-10 0)
(1 1.54627e-10 0)
(1 1.79358e-10 0)
(1 2.05483e-10 0)
(1 2.32923e-10 0)
(1 2.61499e-10 0)
(1 2.90846e-10 0)
(1 3.2037e-10 0)
(1 3.49284e-10 0)
(1 3.7669e-10 0)
(1 4.0172e-10 0)
(1 4.23679e-10 0)
(1 4.42173e-10 0)
(1 4.57156e-10 0)
(1 4.68903e-10 0)
(1 4.78218e-10 0)
(1 4.86298e-10 0)
(1 4.9426e-10 0)
(1 5.02913e-10 0)
(1 5.1259e-10 0)
(1 5.23049e-10 0)
(1 5.33515e-10 0)
(1 5.42847e-10 0)
(1 5.49699e-10 0)
(1 5.52585e-10 0)
(1 5.49647e-10 0)
(1 5.38403e-10 0)
(1 5.15867e-10 0)
(1 4.78963e-10 0)
(1 4.24521e-10 0)
(1 3.48121e-10 0)
(1 2.4172e-10 0)
(1 8.1796e-11 0)
(1 -1.54476e-10 0)
(1 -4.78558e-10 0)
(1 -9.0792e-10 0)
(1 -1.4646e-09 0)
(1 -2.17582e-09 0)
(1 -3.07511e-09 0)
(1 -4.20328e-09 0)
(1 -5.60952e-09 0)
(1 -7.35272e-09 7.69708e-43)
(1 -9.50327e-09 8.05442e-43)
(1 -1.21461e-08 0)
(1 -1.53846e-08 0)
(1 -1.93447e-08 0)
(1 -2.41787e-08 0)
(1 -3.0068e-08 0)
(1 -3.72278e-08 0)
(1 -4.59103e-08 0)
(1 -5.64053e-08 0)
(1 -6.90354e-08 0)
(1 -8.41478e-08 0)
(1 -1.02112e-07 0)
(1 -1.23323e-07 0)
(1 -1.48205e-07 0)
(1 -1.77189e-07 0)
(1 -2.10666e-07 0)
(1 -2.48962e-07 0)
(1 -2.92307e-07 0)
(1 -3.40649e-07 0)
(1 -3.9325e-07 0)
(1.00001 -4.48476e-07 0)
(1.00001 -5.04969e-07 0)
(1.00001 -5.6393e-07 0)
(1.00001 -6.26528e-07 0)
(1.00001 -6.76906e-07 0)
(1.00001 -6.58464e-07 0)
(1.00001 -5.10094e-07 0)
(1.00002 -3.17944e-07 0)
(1.00002 -1.7939e-07 0)
(1.00003 -9.82206e-08 0)
(1.00003 -4.90037e-08 0)
(1.00003 -1.37598e-08 0)
(1.00004 9.21883e-09 0)
(1.00004 1.06426e-08 0)
(1.00005 -2.11389e-08 0)
(1.00005 -9.14689e-08 0)
(1.00006 -1.91458e-07 0)
(1.00006 -2.93912e-07 0)
(1.00007 -3.57747e-07 0)
(1.00007 -3.43274e-07 0)
(1.00008 -2.29096e-07 0)
(1.00009 -2.26358e-08 0)
(1.00009 2.56627e-07 0)
(1.00009 5.73278e-07 0)
(1.0001 8.98911e-07 0)
(1.00009 1.21947e-06 0)
(1.00009 1.52732e-06 0)
(1.00008 1.81498e-06 0)
(1.00008 2.07212e-06 0)
(1.00007 2.28588e-06 0)
(1.00006 2.44193e-06 0)
(1.00004 2.52615e-06 0)
(1.00003 2.52836e-06 0)
(1.00002 2.44548e-06 0)
(1.00001 2.2807e-06 0)
(0.999993 2.04059e-06 0)
(0.999982 1.73424e-06 0)
(0.999973 1.37273e-06 0)
(0.999966 9.55431e-07 0)
(0.999961 4.64535e-07 0)
(0.999958 -8.91929e-08 0)
(0.999958 -6.82215e-07 0)
(0.999959 -1.29304e-06 0)
(0.999961 -1.90078e-06 0)
(0.999966 -2.48125e-06 0)
(0.999972 -3.00462e-06 0)
(0.99998 -3.43467e-06 0)
(0.99999 -3.73058e-06 0)
(1 -3.8536e-06 0)
(1.00002 -3.78328e-06 0)
(1.00004 -3.56316e-06 0)
(1.00006 -3.37465e-06 0)
(1.00008 -3.23538e-06 0)
(1.00011 -3.05557e-06 0)
(1.00013 -2.77455e-06 0)
(1.00015 -2.37078e-06 0)
(1.00017 -1.84389e-06 0)
(1.00019 -1.20388e-06 0)
(1.0002 -4.70818e-07 0)
(1.00021 3.40613e-07 0)
(1.00021 1.19235e-06 0)
(1.00021 2.04359e-06 0)
(1.0002 2.85416e-06 0)
(1.00019 3.58184e-06 0)
(1.00017 4.18631e-06 0)
(1.00015 4.63404e-06 0)
(1.00013 4.90234e-06 0)
(1.0001 4.98205e-06 0)
(1.00008 4.87813e-06 0)
(1.00005 4.60799e-06 0)
(1.00003 4.19838e-06 0)
(1 3.68239e-06 0)
(0.999985 3.09684e-06 0)
(0.999969 2.47743e-06 0)
(0.999957 1.84957e-06 0)
(0.999948 1.21787e-06 0)
(0.999942 5.71198e-07 0)
(0.999938 -6.49705e-08 0)
(0.999937 -6.58964e-07 0)
(0.999938 -1.17437e-06 0)
(0.99994 -1.56917e-06 0)
(0.999943 -1.80727e-06 0)
(0.999947 -1.87628e-06 0)
(0.999951 -1.79892e-06 0)
(0.999954 -1.62919e-06 0)
(0.999958 -1.43277e-06 0)
(0.999961 -1.26214e-06 0)
(0.999963 -1.14238e-06 0)
(0.999966 -1.074e-06 0)
(0.999968 -1.04428e-06 0)
(0.99997 -1.03674e-06 0)
(0.999973 -1.03639e-06 0)
(0.999975 -1.03211e-06 0)
(0.999977 -1.01735e-06 0)
(0.999979 -9.89389e-07 0)
(0.999982 -9.48334e-07 0)
(0.999984 -8.96031e-07 0)
(0.999985 -8.35217e-07 0)
(0.999987 -7.68883e-07 0)
(0.999989 -6.99862e-07 0)
(0.99999 -6.30603e-07 0)
(0.999992 -5.63071e-07 0)
(0.999993 -4.98731e-07 0)
(0.999994 -4.38589e-07 0)
(0.999995 -3.83254e-07 0)
(0.999996 -3.33014e-07 0)
(0.999996 -2.87911e-07 0)
(0.999997 -2.47805e-07 0)
(0.999997 -2.12432e-07 0)
(0.999998 -1.81451e-07 0)
(0.999998 -1.5448e-07 0)
(0.999999 -1.31121e-07 0)
(0.999999 -1.10981e-07 0)
(0.999999 -9.36841e-08 0)
(0.999999 -7.88785e-08 0)
(0.999999 -6.62428e-08 0)
(1 -5.54863e-08 0)
(1 -4.63494e-08 0)
(1 -3.86021e-08 0)
(1 -3.20424e-08 0)
(1 -2.6494e-08 0)
(1 -2.18039e-08 0)
(1 -1.78405e-08 0)
(1 -1.4491e-08 0)
(1 -1.16601e-08 0)
(1 -9.26646e-09 0)
(1 -7.2427e-09 0)
(1 -5.52041e-09 0)
(1 -4.09171e-09 0)
(1 -2.40944e-09 0)
(1 6.74814e-12 0)
(1 1.77662e-11 0)
(1 2.82859e-11 0)
(1 3.88532e-11 0)
(1 5.02053e-11 0)
(1 6.28822e-11 0)
(1 7.65802e-11 0)
(1 9.06951e-11 0)
(1 1.04832e-10 0)
(1 1.19098e-10 0)
(1 1.3412e-10 0)
(1 1.50827e-10 0)
(1 1.70157e-10 0)
(1 1.92823e-10 0)
(1 2.19246e-10 0)
(1 2.49619e-10 0)
(1 2.84031e-10 0)
(1 3.22579e-10 0)
(1 3.6541e-10 0)
(1 4.12698e-10 0)
(1 4.64592e-10 0)
(1 5.21191e-10 0)
(1 5.82575e-10 0)
(1 6.48731e-10 0)
(1 7.19205e-10 0)
(1 7.92955e-10 0)
(1 8.68578e-10 0)
(1 9.44444e-10 0)
(1 1.01871e-09 0)
(1 1.08927e-09 0)
(1 1.15366e-09 0)
(1 1.20889e-09 0)
(1 1.25114e-09 0)
(1 1.27572e-09 0)
(1 1.27703e-09 0)
(1 1.24845e-09 0)
(1 1.18173e-09 0)
(1 1.06627e-09 0)
(1 8.89413e-10 0)
(1 6.37508e-10 0)
(1 2.98964e-10 0)
(1 -1.4528e-10 0)
(1 -7.19381e-10 0)
(1 -1.45681e-09 0)
(1 -2.39794e-09 0)
(1 -3.59084e-09 0)
(1 -5.09312e-09 0)
(1 -6.97388e-09 0)
(1 -9.31579e-09 0)
(1 -1.22173e-08 0)
(1 -1.5796e-08 0)
(1 -2.01932e-08 0)
(1 -2.55813e-08 0)
(1 -3.21701e-08 0)
(1 -4.02129e-08 0)
(1 -5.0012e-08 0)
(1 -6.1925e-08 0)
(1 -7.63719e-08 0)
(1 -9.38356e-08 0)
(1 -1.14854e-07 0)
(1 -1.40005e-07 0)
(1 -1.69905e-07 0)
(1 -2.05209e-07 0)
(1 -2.4662e-07 0)
(1 -2.94871e-07 0)
(1 -3.50663e-07 0)
(1 -4.14526e-07 0)
(1 -4.8665e-07 0)
(1 -5.66827e-07 0)
(1 -6.54576e-07 0)
(1.00001 -7.48961e-07 0)
(1.00001 -8.47001e-07 0)
(1.00001 -9.40664e-07 0)
(1.00001 -1.01749e-06 0)
(1.00001 -1.07374e-06 0)
(1.00001 -1.13425e-06 0)
(1.00001 -1.23381e-06 0)
(1.00002 -1.34004e-06 0)
(1.00002 -1.39108e-06 0)
(1.00002 -1.36453e-06 0)
(1.00002 -1.27737e-06 0)
(1.00002 -1.16472e-06 0)
(1.00002 -1.06785e-06 0)
(1.00002 -1.02894e-06 0)
(1.00002 -1.08367e-06 0)
(1.00002 -1.24793e-06 0)
(1.00003 -1.50072e-06 0)
(1.00003 -1.77328e-06 0)
(1.00003 -1.95918e-06 0)
(1.00003 -1.95049e-06 0)
(1.00003 -1.68368e-06 0)
(1.00004 -1.16152e-06 0)
(1.00004 -4.44599e-07 0)
(1.00004 3.8687e-07 0)
(1.00003 1.26506e-06 0)
(1.00003 2.14473e-06 0)
(1.00003 2.99937e-06 0)
(1.00002 3.80802e-06 0)
(1.00002 4.54525e-06 0)
(1.00001 5.17944e-06 0)
(1.00001 5.67393e-06 0)
(0.999999 5.99067e-06 0)
(0.999992 6.09894e-06 0)
(0.999984 5.98366e-06 0)
(0.999977 5.64634e-06 0)
(0.999971 5.10046e-06 0)
(0.999965 4.36775e-06 0)
(0.99996 3.47736e-06 0)
(0.999957 2.46815e-06 0)
(0.999954 1.38709e-06 0)
(0.999953 2.7094e-07 0)
(0.999954 -8.55281e-07 0)
(0.999956 -1.97222e-06 0)
(0.999959 -3.06377e-06 0)
(0.999964 -4.11794e-06 0)
(0.99997 -5.1273e-06 0)
(0.999978 -6.08789e-06 0)
(0.999986 -6.99618e-06 0)
(0.999996 -7.84238e-06 0)
(1.00001 -8.59724e-06 0)
(1.00002 -9.19154e-06 0)
(1.00003 -9.50481e-06 0)
(1.00004 -9.47369e-06 0)
(1.00005 -9.10401e-06 0)
(1.00006 -8.41582e-06 0)
(1.00007 -7.41995e-06 0)
(1.00008 -6.12501e-06 0)
(1.00008 -4.54887e-06 0)
(1.00009 -2.72269e-06 0)
(1.00009 -6.99181e-07 0)
(1.00009 1.44963e-06 0)
(1.00009 3.63561e-06 0)
(1.00008 5.75542e-06 0)
(1.00007 7.69792e-06 0)
(1.00006 9.35571e-06 0)
(1.00005 1.06368e-05 0)
(1.00003 1.14752e-05 0)
(1.00002 1.18384e-05 0)
(1 1.17294e-05 0)
(0.99999 1.11836e-05 0)
(0.999977 1.02627e-05 0)
(0.999965 9.04862e-06 0)
(0.999955 7.63497e-06 0)
(0.999947 6.11505e-06 0)
(0.999941 4.57079e-06 0)
(0.999936 3.06788e-06 0)
(0.999934 1.65685e-06 0)
(0.999933 3.6438e-07 0)
(0.999933 -7.86516e-07 0)
(0.999935 -1.75698e-06 0)
(0.999938 -2.491e-06 0)
(0.999942 -2.93758e-06 0)
(0.999946 -3.08273e-06 0)
(0.99995 -2.97002e-06 0)
(0.999954 -2.69489e-06 0)
(0.999958 -2.37145e-06 0)
(0.999961 -2.09011e-06 0)
(0.999963 -1.89371e-06 0)
(0.999966 -1.78293e-06 0)
(0.999968 -1.73621e-06 0)
(0.99997 -1.7259e-06 0)
(0.999973 -1.72688e-06 0)
(0.999975 -1.72072e-06 0)
(0.999977 -1.69659e-06 0)
(0.999979 -1.65011e-06 0)
(0.999982 -1.58159e-06 0)
(0.999984 -1.4942e-06 0)
(0.999986 -1.39257e-06 0)
(0.999987 -1.28175e-06 0)
(0.999989 -1.16648e-06 0)
(0.99999 -1.05085e-06 0)
(0.999992 -9.38152e-07 0)
(0.999993 -8.30816e-07 0)
(0.999994 -7.30514e-07 0)
(0.999995 -6.38257e-07 0)
(0.999996 -5.54517e-07 0)
(0.999996 -4.79357e-07 0)
(0.999997 -4.12538e-07 0)
(0.999997 -3.53615e-07 0)
(0.999998 -3.02018e-07 0)
(0.999998 -2.57105e-07 0)
(0.999999 -2.18212e-07 0)
(0.999999 -1.84682e-07 0)
(0.999999 -1.55887e-07 0)
(0.999999 -1.31244e-07 0)
(0.999999 -1.10217e-07 0)
(1 -9.23234e-08 0)
(1 -7.71346e-08 0)
(1 -6.42706e-08 0)
(1 -5.33982e-08 0)
(1 -4.42264e-08 0)
(1 -3.65016e-08 0)
(1 -3.00032e-08 0)
(1 -2.45386e-08 0)
(1 -1.99401e-08 0)
(1 -1.6058e-08 0)
(1 -1.27724e-08 0)
(1 -9.91267e-09 0)
(1 -7.67056e-09 0)
(1 -4.54594e-09 0)
(1 9.65675e-12 0)
(1 2.58668e-11 0)
(1 4.28231e-11 0)
(1 6.11643e-11 0)
(1 8.18265e-11 0)
(1 1.05483e-10 0)
(1 1.31829e-10 0)
(1 1.60356e-10 0)
(1 1.90816e-10 0)
(1 2.23381e-10 0)
(1 2.58605e-10 0)
(1 2.97231e-10 0)
(1 3.39952e-10 0)
(1 3.8721e-10 0)
(1 4.39108e-10 0)
(1 4.95431e-10 0)
(1 5.55729e-10 0)
(1 6.19413e-10 0)
(1 6.8584e-10 0)
(1 7.54376e-10 0)
(1 8.24456e-10 0)
(1 8.95607e-10 0)
(1 9.67401e-10 0)
(1 1.03936e-09 0)
(1 1.11103e-09 0)
(1 1.18201e-09 0)
(1 1.25197e-09 0)
(1 1.32041e-09 0)
(1 1.38634e-09 0)
(1 1.44813e-09 0)
(1 1.5033e-09 0)
(1 1.54844e-09 0)
(1 1.57927e-09 0)
(1 1.59057e-09 0)
(1 1.57607e-09 0)
(1 1.52787e-09 0)
(1 1.43601e-09 0)
(1 1.28786e-09 0)
(1 1.06725e-09 0)
(1 7.52892e-10 0)
(1 3.18463e-10 0)
(1 -2.66757e-10 0)
(1 -1.0427e-09 0)
(1 -2.05423e-09 0)
(1 -3.35544e-09 0)
(1 -5.01185e-09 0)
(1 -7.10276e-09 0)
(1 -9.72387e-09 0)
(1 -1.29901e-08 0)
(1 -1.70386e-08 0)
(1 -2.20332e-08 0)
(1 -2.81711e-08 0)
(1 -3.5693e-08 0)
(1 -4.48922e-08 0)
(1 -5.61224e-08 0)
(1 -6.98057e-08 0)
(1 -8.64417e-08 0)
(1 -1.06617e-07 0)
(1 -1.31008e-07 0)
(1 -1.60365e-07 0)
(1 -1.955e-07 0)
(1 -2.37271e-07 0)
(1 -2.86599e-07 0)
(1 -3.44475e-07 0)
(1 -4.11928e-07 0)
(1 -4.89922e-07 0)
(1 -5.79228e-07 0)
(1 -6.80285e-07 0)
(1 -7.92961e-07 0)
(1 -9.16111e-07 0)
(1.00001 -1.04708e-06 0)
(1.00001 -1.18177e-06 0)
(1.00001 -1.31541e-06 0)
(1.00001 -1.44251e-06 0)
(1.00001 -1.55267e-06 0)
(1.00001 -1.62492e-06 0)
(1.00001 -1.63382e-06 0)
(1.00002 -1.56273e-06 0)
(1.00002 -1.42679e-06 0)
(1.00002 -1.25441e-06 0)
(1.00002 -1.06807e-06 0)
(1.00002 -8.9058e-07 0)
(1.00002 -7.52653e-07 0)
(1.00002 -6.93771e-07 0)
(1.00002 -7.52609e-07 0)
(1.00002 -9.47944e-07 0)
(1.00003 -1.25462e-06 0)
(1.00003 -1.58756e-06 0)
(1.00003 -1.81327e-06 0)
(1.00003 -1.79765e-06 0)
(1.00003 -1.46567e-06 0)
(1.00004 -8.29839e-07 0)
(1.00004 3.02514e-08 0)
(1.00004 1.01306e-06 0)
(1.00003 2.03362e-06 0)
(1.00003 3.04122e-06 0)
(1.00003 4.01076e-06 0)
(1.00002 4.92181e-06 0)
(1.00002 5.74611e-06 0)
(1.00001 6.44687e-06 0)
(1.00001 6.98067e-06 0)
(0.999999 7.30196e-06 0)
(0.999992 7.37481e-06 0)
(0.999984 7.18417e-06 0)
(0.999977 6.73628e-06 0)
(0.99997 6.05019e-06 0)
(0.999965 5.15093e-06 0)
(0.99996 4.06762e-06 0)
(0.999956 2.8337e-06 0)
(0.999954 1.48514e-06 0)
(0.999953 5.51606e-08 0)
(0.999954 -1.42255e-06 0)
(0.999956 -2.91402e-06 0)
(0.999959 -4.3854e-06 0)
(0.999964 -5.80121e-06 0)
(0.99997 -7.12235e-06 0)
(0.999978 -8.30599e-06 0)
(0.999986 -9.30805e-06 0)
(0.999996 -1.00889e-05 0)
(1.00001 -1.06213e-05 0)
(1.00002 -1.08961e-05 0)
(1.00003 -1.0904e-05 0)
(1.00004 -1.06442e-05 0)
(1.00005 -1.00969e-05 0)
(1.00006 -9.23061e-06 0)
(1.00007 -8.02395e-06 0)
(1.00008 -6.47356e-06 0)
(1.00008 -4.59641e-06 0)
(1.00009 -2.4311e-06 0)
(1.00009 -4.20391e-08 0)
(1.00009 2.48636e-06 0)
(1.00009 5.04646e-06 0)
(1.00008 7.51364e-06 0)
(1.00007 9.75654e-06 0)
(1.00006 1.16492e-05 0)
(1.00005 1.3085e-05 0)
(1.00003 1.39891e-05 0)
(1.00002 1.43276e-05 0)
(1 1.4109e-05 0)
(0.99999 1.33804e-05 0)
(0.999977 1.22192e-05 0)
(0.999965 1.07251e-05 0)
(0.999955 9.00964e-06 0)
(0.999947 7.18022e-06 0)
(0.99994 5.32332e-06 0)
(0.999936 3.50013e-06 0)
(0.999933 1.75164e-06 0)
(0.999932 1.08945e-07 0)
(0.999933 -1.38585e-06 0)
(0.999935 -2.66562e-06 0)
(0.999938 -3.6397e-06 0)
(0.999942 -4.22587e-06 0)
(0.999946 -4.39677e-06 0)
(0.99995 -4.2101e-06 0)
(0.999954 -3.80014e-06 0)
(0.999958 -3.32916e-06 0)
(0.999961 -2.92499e-06 0)
(0.999963 -2.64625e-06 0)
(0.999966 -2.49137e-06 0)
(0.999968 -2.42792e-06 0)
(0.99997 -2.41573e-06 0)
(0.999973 -2.41893e-06 0)
(0.999975 -2.41142e-06 0)
(0.999977 -2.37807e-06 0)
(0.999979 -2.31293e-06 0)
(0.999982 -2.21659e-06 0)
(0.999984 -2.09366e-06 0)
(0.999986 -1.95076e-06 0)
(0.999987 -1.79502e-06 0)
(0.999989 -1.63313e-06 0)
(0.99999 -1.47084e-06 0)
(0.999992 -1.31275e-06 0)
(0.999993 -1.16227e-06 0)
(0.999994 -1.02172e-06 0)
(0.999995 -8.92497e-07 0)
(0.999996 -7.75251e-07 0)
(0.999996 -6.70055e-07 0)
(0.999997 -5.76562e-07 0)
(0.999997 -4.94141e-07 0)
(0.999998 -4.21985e-07 0)
(0.999998 -3.5919e-07 0)
(0.999999 -3.04822e-07 0)
(0.999999 -2.57959e-07 0)
(0.999999 -2.17721e-07 0)
(0.999999 -1.83287e-07 0)
(0.999999 -1.53907e-07 0)
(1 -1.28905e-07 0)
(1 -1.07676e-07 0)
(1 -8.96867e-08 0)
(1 -7.44691e-08 0)
(1 -6.16141e-08 0)
(1 -5.07665e-08 0)
(1 -4.1619e-08 0)
(1 -3.39063e-08 0)
(1 -2.74006e-08 0)
(1 -2.19033e-08 0)
(1 -1.72556e-08 0)
(1 -1.32468e-08 0)
(1 -1.00909e-08 0)
(1 -5.81977e-09 0)
(1 1.24754e-11 0)
(1 3.34102e-11 0)
(1 5.50276e-11 0)
(1 7.79308e-11 0)
(1 1.03237e-10 0)
(1 1.31794e-10 0)
(1 1.6315e-10 0)
(1 1.96469e-10 0)
(1 2.31189e-10 0)
(1 2.67368e-10 0)
(1 3.05735e-10 0)
(1 3.4746e-10 0)
(1 3.93747e-10 0)
(1 4.45479e-10 0)
(1 5.03054e-10 0)
(1 5.66415e-10 0)
(1 6.35216e-10 0)
(1 7.08999e-10 0)
(1 7.87342e-10 0)
(1 8.69934e-10 0)
(1 9.56584e-10 0)
(1 1.0472e-09 0)
(1 1.14175e-09 0)
(1 1.24021e-09 0)
(1 1.34252e-09 0)
(1 1.44839e-09 0)
(1 1.557e-09 0)
(1 1.66688e-09 0)
(1 1.77568e-09 0)
(1 1.88015e-09 0)
(1 1.97608e-09 0)
(1 2.0582e-09 0)
(1 2.1202e-09 0)
(1 2.15441e-09 0)
(1 2.15149e-09 0)
(1 2.10006e-09 0)
(1 1.98627e-09 0)
(1 1.79319e-09 0)
(1 1.49999e-09 0)
(1 1.0811e-09 0)
(1 5.06353e-10 0)
(1 -2.61842e-10 0)
(1 -1.27023e-09 0)
(1 -2.57614e-09 0)
(1 -4.24971e-09 0)
(1 -6.37571e-09 0)
(1 -9.0564e-09 0)
(1 -1.2415e-08 0)
(1 -1.65992e-08 0)
(1 -2.17852e-08 0)
(1 -2.81829e-08 0)
(1 -3.60454e-08 0)
(1 -4.5681e-08 0)
(1 -5.74662e-08 0)
(1 -7.18548e-08 0)
(1 -8.93877e-08 0)
(1 -1.10705e-07 0)
(1 -1.36559e-07 0)
(1 -1.67817e-07 0)
(1 -2.05447e-07 0)
(1 -2.50489e-07 0)
(1 -3.04045e-07 0)
(1 -3.67296e-07 0)
(1 -4.41521e-07 0)
(1 -5.28064e-07 0)
(1 -6.2821e-07 0)
(1 -7.42975e-07 0)
(1 -8.72859e-07 0)
(1 -1.01763e-06 0)
(1 -1.17617e-06 0)
(1.00001 -1.34605e-06 0)
(1.00001 -1.52243e-06 0)
(1.00001 -1.69617e-06 0)
(1.00001 -1.85321e-06 0)
(1.00001 -1.97847e-06 0)
(1.00001 -2.06379e-06 0)
(1.00001 -2.1101e-06 0)
(1.00002 -2.11244e-06 0)
(1.00002 -2.06036e-06 0)
(1.00002 -1.94744e-06 0)
(1.00002 -1.78257e-06 0)
(1.00002 -1.59697e-06 0)
(1.00002 -1.44272e-06 0)
(1.00002 -1.38498e-06 0)
(1.00002 -1.48557e-06 0)
(1.00002 -1.77617e-06 0)
(1.00003 -2.22494e-06 0)
(1.00003 -2.71383e-06 0)
(1.00003 -3.05438e-06 0)
(1.00003 -3.05442e-06 0)
(1.00003 -2.60381e-06 0)
(1.00004 -1.71684e-06 0)
(1.00004 -5.02601e-07 0)
(1.00004 8.96021e-07 0)
(1.00004 2.3586e-06 0)
(1.00003 3.81301e-06 0)
(1.00003 5.22237e-06 0)
(1.00003 6.55578e-06 0)
(1.00002 7.77151e-06 0)
(1.00001 8.81625e-06 0)
(1.00001 9.62738e-06 0)
(0.999999 1.01389e-05 0)
(0.999992 1.02981e-05 0)
(0.999984 1.00819e-05 0)
(0.999977 9.49684e-06 0)
(0.99997 8.56813e-06 0)
(0.999964 7.33172e-06 0)
(0.999959 5.83374e-06 0)
(0.999956 4.13005e-06 0)
(0.999953 2.28062e-06 0)
(0.999952 3.40357e-07 0)
(0.999953 -1.64199e-06 0)
(0.999955 -3.624e-06 0)
(0.999958 -5.5688e-06 0)
(0.999963 -7.44334e-06 0)
(0.99997 -9.21677e-06 0)
(0.999977 -1.08584e-05 0)
(0.999986 -1.23351e-05 0)
(0.999995 -1.36073e-05 0)
(1.00001 -1.46258e-05 0)
(1.00002 -1.53292e-05 0)
(1.00003 -1.56426e-05 0)
(1.00004 -1.55066e-05 0)
(1.00005 -1.48813e-05 0)
(1.00006 -1.37443e-05 0)
(1.00007 -1.20888e-05 0)
(1.00008 -9.92401e-06 0)
(1.00008 -7.2803e-06 0)
(1.00009 -4.21667e-06 0)
(1.00009 -8.18384e-07 0)
(1.00009 2.79203e-06 0)
(1.00009 6.46023e-06 0)
(1.00008 1.001e-05 0)
(1.00007 1.32545e-05 0)
(1.00006 1.60127e-05 0)
(1.00005 1.81301e-05 0)
(1.00003 1.94967e-05 0)
(1.00002 2.00599e-05 0)
(1 1.98284e-05 0)
(0.99999 1.88654e-05 0)
(0.999976 1.7278e-05 0)
(0.999964 1.52061e-05 0)
(0.999954 1.28092e-05 0)
(0.999946 1.02443e-05 0)
(0.99994 7.64258e-06 0)
(0.999935 5.10059e-06 0)
(0.999933 2.68337e-06 0)
(0.999932 4.35537e-07 0)
(0.999932 -1.59299e-06 0)
(0.999934 -3.32094e-06 0)
(0.999938 -4.63358e-06 0)
(0.999942 -5.42456e-06 0)
(0.999946 -5.65926e-06 0)
(0.999951 -5.41636e-06 0)
(0.999955 -4.87735e-06 0)
(0.999958 -4.26062e-06 0)
(0.999961 -3.73631e-06 0)
(0.999963 -3.37994e-06 0)
(0.999966 -3.18658e-06 0)
(0.999968 -3.11173e-06 0)
(0.99997 -3.10204e-06 0)
(0.999973 -3.11056e-06 0)
(0.999975 -3.10359e-06 0)
(0.999977 -3.06192e-06 0)
(0.999979 -2.97831e-06 0)
(0.999982 -2.85388e-06 0)
(0.999984 -2.69492e-06 0)
(0.999986 -2.51016e-06 0)
(0.999987 -2.30891e-06 0)
(0.999989 -2.09988e-06 0)
(0.999991 -1.89052e-06 0)
(0.999992 -1.68673e-06 0)
(0.999993 -1.49288e-06 0)
(0.999994 -1.31194e-06 0)
(0.999995 -1.14568e-06 0)
(0.999996 -9.94917e-07 0)
(0.999996 -8.59709e-07 0)
(0.999997 -7.39594e-07 0)
(0.999997 -6.33744e-07 0)
(0.999998 -5.41107e-07 0)
(0.999998 -4.60512e-07 0)
(0.999999 -3.9075e-07 0)
(0.999999 -3.30633e-07 0)
(0.999999 -2.79024e-07 0)
(0.999999 -2.34867e-07 0)
(0.999999 -1.972e-07 0)
(1 -1.65152e-07 0)
(1 -1.3795e-07 0)
(1 -1.14911e-07 0)
(1 -9.54345e-08 0)
(1 -7.89981e-08 0)
(1 -6.5146e-08 0)
(1 -5.34831e-08 0)
(1 -4.36663e-08 0)
(1 -3.53987e-08 0)
(1 -2.84181e-08 0)
(1 -2.2514e-08 0)
(1 -1.74046e-08 0)
(1 -1.33656e-08 0)
(1 -7.83534e-09 0)
(1 1.52645e-11 0)
(1 4.07788e-11 0)
(1 6.70881e-11 0)
(1 9.50355e-11 0)
(1 1.26055e-10 0)
(1 1.61241e-10 0)
(1 2.00093e-10 0)
(1 2.41681e-10 0)
(1 2.85475e-10 0)
(1 3.31709e-10 0)
(1 3.81374e-10 0)
(1 4.35881e-10 0)
(1 4.96593e-10 0)
(1 5.64438e-10 0)
(1 6.39765e-10 0)
(1 7.224e-10 0)
(1 8.11833e-10 0)
(1 9.07405e-10 0)
(1 1.00845e-09 0)
(1 1.11435e-09 0)
(1 1.22457e-09 0)
(1 1.33869e-09 0)
(1 1.45631e-09 0)
(1 1.57702e-09 0)
(1 1.70026e-09 0)
(1 1.82521e-09 0)
(1 1.95066e-09 0)
(1 2.07487e-09 0)
(1 2.19541e-09 0)
(1 2.30898e-09 0)
(1 2.41123e-09 0)
(1 2.4966e-09 0)
(1 2.55813e-09 0)
(1 2.58725e-09 0)
(1 2.57353e-09 0)
(1 2.50414e-09 0)
(1 2.36318e-09 0)
(1 2.13062e-09 0)
(1 1.78112e-09 0)
(1 1.28299e-09 0)
(1 5.97488e-10 0)
(1 -3.22853e-10 0)
(1 -1.53661e-09 0)
(1 -3.11436e-09 0)
(1 -5.14129e-09 0)
(1 -7.72026e-09 0)
(1 -1.09753e-08 0)
(1 -1.50561e-08 0)
(1 -2.01424e-08 0)
(1 -2.64483e-08 0)
(1 -3.42292e-08 0)
(1 -4.37928e-08 0)
(1 -5.55148e-08 0)
(1 -6.98537e-08 0)
(1 -8.73628e-08 0)
(1 -1.087e-07 0)
(1 -1.34644e-07 0)
(1 -1.66112e-07 0)
(1 -2.04163e-07 0)
(1 -2.49979e-07 0)
(1 -3.04829e-07 0)
(1 -3.70055e-07 0)
(1 -4.47102e-07 0)
(1 -5.37546e-07 0)
(1 -6.43049e-07 0)
(1 -7.65203e-07 0)
(1 -9.05293e-07 0)
(1 -1.06405e-06 0)
(1 -1.24138e-06 0)
(1 -1.43588e-06 0)
(1.00001 -1.64405e-06 0)
(1.00001 -1.85943e-06 0)
(1.00001 -2.0722e-06 0)
(1.00001 -2.26961e-06 0)
(1.00001 -2.43667e-06 0)
(1.00001 -2.55667e-06 0)
(1.00001 -2.61127e-06 0)
(1.00002 -2.58016e-06 0)
(1.00002 -2.45371e-06 0)
(1.00002 -2.24127e-06 0)
(1.00002 -1.96974e-06 0)
(1.00002 -1.68374e-06 0)
(1.00002 -1.44621e-06 0)
(1.00002 -1.33398e-06 0)
(1.00002 -1.42161e-06 0)
(1.00002 -1.7497e-06 0)
(1.00003 -2.28236e-06 0)
(1.00003 -2.87557e-06 0)
(1.00003 -3.29447e-06 0)
(1.00003 -3.29933e-06 0)
(1.00003 -2.75592e-06 0)
(1.00004 -1.68573e-06 0)
(1.00004 -2.37457e-07 0)
(1.00004 1.41092e-06 0)
(1.00004 3.1163e-06 0)
(1.00003 4.79687e-06 0)
(1.00003 6.41575e-06 0)
(1.00003 7.94223e-06 0)
(1.00002 9.33009e-06 0)
(1.00001 1.05182e-05 0)
(1.00001 1.14331e-05 0)
(0.999999 1.1996e-05 0)
(0.999992 1.21438e-05 0)
(0.999984 1.18509e-05 0)
(0.999977 1.11282e-05 0)
(0.99997 1.00076e-05 0)
(0.999964 8.53141e-06 0)
(0.999959 6.75197e-06 0)
(0.999955 4.7311e-06 0)
(0.999953 2.5338e-06 0)
(0.999952 2.2071e-07 0)
(0.999952 -2.15329e-06 0)
(0.999954 -4.5378e-06 0)
(0.999958 -6.88513e-06 0)
(0.999963 -9.1478e-06 0)
(0.999969 -1.12759e-05 0)
(0.999977 -1.32158e-05 0)
(0.999985 -1.49111e-05 0)
(0.999995 -1.6305e-05 0)
(1.00001 -1.73438e-05 0)
(1.00002 -1.79779e-05 0)
(1.00003 -1.81579e-05 0)
(1.00004 -1.78444e-05 0)
(1.00005 -1.70032e-05 0)
(1.00006 -1.56043e-05 0)
(1.00007 -1.3629e-05 0)
(1.00008 -1.10786e-05 0)
(1.00009 -7.98252e-06 0)
(1.00009 -4.40201e-06 0)
(1.00009 -4.4249e-07 0)
(1.00009 3.75666e-06 0)
(1.00009 8.01868e-06 0)
(1.00008 1.21365e-05 0)
(1.00007 1.58895e-05 0)
(1.00006 1.90649e-05 0)
(1.00005 2.14816e-05 0)
(1.00003 2.3012e-05 0)
(1.00002 2.35979e-05 0)
(1 2.32534e-05 0)
(0.999989 2.2057e-05 0)
(0.999976 2.01374e-05 0)
(0.999964 1.76613e-05 0)
(0.999954 1.4818e-05 0)
(0.999945 1.17921e-05 0)
(0.999939 8.73329e-06 0)
(0.999934 5.74524e-06 0)
(0.999932 2.89661e-06 0)
(0.999931 2.34356e-07 0)
(0.999932 -2.1856e-06 0)
(0.999934 -4.26128e-06 0)
(0.999937 -5.84197e-06 0)
(0.999942 -6.78466e-06 0)
(0.999946 -7.0381e-06 0)
(0.999951 -6.69806e-06 0)
(0.999955 -5.99475e-06 0)
(0.999958 -5.20654e-06 0)
(0.999961 -4.54762e-06 0)
(0.999963 -4.10834e-06 0)
(0.999966 -3.87659e-06 0)
(0.999968 -3.79271e-06 0)
(0.99997 -3.78828e-06 0)
(0.999973 -3.8043e-06 0)
(0.999975 -3.79914e-06 0)
(0.999977 -3.74958e-06 0)
(0.999979 -3.64727e-06 0)
(0.999982 -3.49417e-06 0)
(0.999984 -3.29838e-06 0)
(0.999986 -3.07092e-06 0)
(0.999987 -2.82342e-06 0)
(0.999989 -2.56661e-06 0)
(0.999991 -2.30965e-06 0)
(0.999992 -2.05978e-06 0)
(0.999993 -1.82231e-06 0)
(0.999994 -1.60083e-06 0)
(0.999995 -1.39748e-06 0)
(0.999996 -1.21319e-06 0)
(0.999996 -1.04801e-06 0)
(0.999997 -9.01352e-07 0)
(0.999998 -7.72167e-07 0)
(0.999998 -6.59154e-07 0)
(0.999998 -5.60867e-07 0)
(0.999999 -4.7582e-07 0)
(0.999999 -4.02549e-07 0)
(0.999999 -3.39664e-07 0)
(0.999999 -2.85871e-07 0)
(0.999999 -2.39991e-07 0)
(1 -2.0096e-07 0)
(1 -1.67831e-07 0)
(1 -1.3977e-07 0)
(1 -1.16043e-07 0)
(1 -9.60099e-08 0)
(1 -7.91167e-08 0)
(1 -6.48819e-08 0)
(1 -5.28897e-08 0)
(1 -4.27819e-08 0)
(1 -3.42446e-08 0)
(1 -2.70264e-08 0)
(1 -2.07938e-08 0)
(1 -1.58686e-08 0)
(1 -9.19797e-09 0)
(1 1.80301e-11 0)
(1 4.81335e-11 0)
(1 7.91934e-11 0)
(1 1.12223e-10 0)
(1 1.48879e-10 0)
(1 1.90429e-10 0)
(1 2.36266e-10 0)
(1 2.85261e-10 0)
(1 3.36724e-10 0)
(1 3.90832e-10 0)
(1 4.48655e-10 0)
(1 5.11798e-10 0)
(1 5.81866e-10 0)
(1 6.6e-10 0)
(1 7.4667e-10 0)
(1 8.41723e-10 0)
(1 9.44591e-10 0)
(1 1.05452e-09 0)
(1 1.17076e-09 0)
(1 1.29266e-09 0)
(1 1.41973e-09 0)
(1 1.55162e-09 0)
(1 1.68807e-09 0)
(1 1.82883e-09 0)
(1 1.97357e-09 0)
(1 2.1217e-09 0)
(1 2.27216e-09 0)
(1 2.42316e-09 0)
(1 2.57191e-09 0)
(1 2.71438e-09 0)
(1 2.84506e-09 0)
(1 2.9569e-09 0)
(1 3.04113e-09 0)
(1 3.08715e-09 0)
(1 3.08204e-09 0)
(1 3.01003e-09 0)
(1 2.85175e-09 0)
(1 2.58318e-09 0)
(1 2.17451e-09 0)
(1 1.58894e-09 0)
(1 7.81581e-10 0)
(1 -3.02571e-10 0)
(1 -1.7311e-09 0)
(1 -3.5864e-09 0)
(1 -5.96851e-09 0)
(1 -8.99837e-09 0)
(1 -1.2822e-08 0)
(1 -1.76155e-08 0)
(1 -2.35907e-08 0)
(1 -3.09996e-08 -3.85757e-43)
(1 -4.01424e-08 -4.04294e-43)
(1 -5.13809e-08 0)
(1 -6.5157e-08 0)
(1 -8.20114e-08 0)
(1 -1.02595e-07 0)
(1 -1.27683e-07 0)
(1 -1.58188e-07 0)
(1 -1.95191e-07 0)
(1 -2.39943e-07 0)
(1 -2.9384e-07 0)
(1 -3.58377e-07 0)
(1 -4.35137e-07 0)
(1 -5.25822e-07 0)
(1 -6.32306e-07 0)
(1 -7.5659e-07 0)
(1 -9.00625e-07 0)
(1 -1.066e-06 0)
(1 -1.25361e-06 0)
(1 -1.46336e-06 0)
(1 -1.69373e-06 0)
(1.00001 -1.94111e-06 0)
(1.00001 -2.19857e-06 0)
(1.00001 -2.45446e-06 0)
(1.00001 -2.69162e-06 0)
(1.00001 -2.889e-06 0)
(1.00001 -3.02579e-06 0)
(1.00001 -3.08526e-06 0)
(1.00002 -3.05407e-06 0)
(1.00002 -2.92626e-06 0)
(1.00002 -2.70786e-06 0)
(1.00002 -2.4209e-06 0)
(1.00002 -2.11096e-06 0)
(1.00002 -1.85139e-06 0)
(1.00002 -1.73767e-06 0)
(1.00002 -1.8664e-06 0)
(1.00002 -2.29459e-06 0)
(1.00003 -2.98416e-06 0)
(1.00003 -3.75853e-06 0)
(1.00003 -4.32102e-06 0)
(1.00003 -4.36567e-06 0)
(1.00003 -3.72062e-06 0)
(1.00004 -2.41793e-06 0)
(1.00004 -6.38642e-07 0)
(1.00004 1.38982e-06 0)
(1.00004 3.48605e-06 0)
(1.00003 5.55251e-06 0)
(1.00003 7.54895e-06 0)
(1.00003 9.43985e-06 0)
(1.00002 1.11681e-05 0)
(1.00001 1.26581e-05 0)
(1.00001 1.38181e-05 0)
(0.999999 1.45481e-05 0)
(0.999992 1.47678e-05 0)
(0.999984 1.44446e-05 0)
(0.999976 1.35927e-05 0)
(0.999969 1.22515e-05 0)
(0.999963 1.04731e-05 0)
(0.999958 8.32245e-06 0)
(0.999954 5.87784e-06 0)
(0.999952 3.22155e-06 0)
(0.999951 4.30321e-07 0)
(0.999952 -2.42709e-06 0)
(0.999954 -5.28949e-06 0)
(0.999957 -8.10189e-06 0)