/*--------------------------------*- C++ -*----------------------------------*\
| =========                 |                                                 |
| \\      /  F ield         | OpenFOAM: The Open Source CFD Toolbox           |
|  \\    /   O peration     | Version:  v2006                                 |
|   \\  /    A nd           | Website:  www.openfoam.com                      |
|    \\/     M anipulation  |                                                 |
\*---------------------------------------------------------------------------*/
FoamFile
{
    version     2.0;
    format      ascii;
    class       volScalarField;
    location    "0";
    object      p;
}
// * * * * * * * * * * * * * * * * * * * * * * * * * * * * * * * * * * * * * //

dimensions      [1 -1 -2 0 0 0 0];


internalField   nonuniform List<scalar> 
20000
(
3.01295e-06
3.02426e-06
3.05635e-06
3.11064e-06
3.1824e-06
3.27147e-06
3.37858e-06
3.50459e-06
3.65018e-06
3.81588e-06
4.00227e-06
4.21001e-06
4.43992e-06
4.69288e-06
4.96982e-06
5.2718e-06
5.59996e-06
5.95548e-06
6.33959e-06
6.75346e-06
7.19811e-06
7.67441e-06
8.18311e-06
8.72471e-06
9.29947e-06
9.9074e-06
1.05482e-05
1.12212e-05
1.19249e-05
1.26568e-05
1.34131e-05
1.4195e-05
1.49881e-05
1.57888e-05
1.65876e-05
1.73727e-05
1.81294e-05
1.88391e-05
1.94791e-05
2.00218e-05
2.04336e-05
2.06735e-05
2.06924e-05
2.04305e-05
1.98163e-05
1.87646e-05
1.71733e-05
1.49203e-05
1.18594e-05
7.8179e-06
2.59227e-06
-4.05814e-06
-1.24204e-05
-2.28366e-05
-3.57086e-05
-5.15027e-05
-7.07602e-05
-9.41185e-05
-0.000122333
-0.000156287
-0.000196989
-0.000245558
-0.000303225
-0.000371347
-0.000451403
-0.000544934
-0.000653381
-0.000777704
-0.00091799
-0.00106843
-0.00120331
-0.00139178
-0.00158678
-0.00177861
-0.00195073
-0.00208737
-0.00217341
-0.00219854
-0.00216439
-0.00208852
-0.00199747
-0.00190909
-0.00181693
-0.00169072
-0.00148411
-0.00115665
-0.000673369
-1.33603e-05
0.000836044
0.00188242
0.00312642
0.00455924
0.00616265
0.00790838
0.00975669
0.0116584
0.0135616
0.0154192
0.0171934
0.0188536
0.0203801
0.0217494
0.0229618
0.024015
0.0249075
0.0256378
0.0262025
0.0265957
0.0268102
0.0268379
0.026671
0.026314
0.0257908
0.0249863
0.0239795
0.0227768
0.0213888
0.0198298
0.0181214
0.0162927
0.0143812
0.0124328
0.0104988
0.00863325
0.00688667
0.00529911
0.00389341
0.00267169
0.00161683
0.000699241
-0.000112399
-0.000840869
-0.00149586
-0.00207623
-0.00257472
-0.00298461
-0.00327854
-0.0034811
-0.00357975
-0.00358089
-0.00350179
-0.00337183
-0.00322803
-0.00310175
-0.00300592
-0.00293014
-0.00284758
-0.00273143
-0.00256973
-0.00236727
-0.00213745
-0.0018949
-0.00165257
-0.00142056
-0.00120551
-0.00101106
-0.000838604
-0.000687976
-0.000558025
-0.000447045
-0.000353084
-0.000274142
-0.000208286
-0.000153729
-0.000108851
-7.22166e-05
-4.25681e-05
-1.88139e-05
-1.40778e-08
1.4636e-05
2.58216e-05
3.41246e-05
4.00369e-05
4.39731e-05
4.62821e-05
4.72556e-05
4.71382e-05
4.61331e-05
4.44087e-05
4.21045e-05
3.93347e-05
3.61928e-05
3.27548e-05
2.90818e-05
2.52226e-05
2.12162e-05
1.70926e-05
1.28752e-05
8.58173e-06
4.22577e-06
-1.82504e-07
-4.63507e-06
-9.12516e-06
-1.36465e-05
-1.8192e-05
-2.27539e-05
-2.73197e-05
-3.1882e-05
-3.64119e-05
-4.09015e-05
3.00745e-06
3.01858e-06
3.04914e-06
3.10171e-06
3.17205e-06
3.26001e-06
3.36625e-06
3.49155e-06
3.63659e-06
3.80195e-06
3.98829e-06
4.19642e-06
4.42726e-06
4.68174e-06
4.96078e-06
5.26532e-06
5.59635e-06
5.9549e-06
6.34196e-06
6.75836e-06
7.20489e-06
7.68239e-06
8.19166e-06
8.73345e-06
9.30824e-06
9.91621e-06
1.0557e-05
1.12298e-05
1.19328e-05
1.2664e-05
1.34204e-05
1.4196e-05
1.49886e-05
1.57896e-05
1.65892e-05
1.73756e-05
1.81338e-05
1.88456e-05
1.94881e-05
2.00339e-05
2.04493e-05
2.06938e-05
2.0718e-05
2.04626e-05
1.98562e-05
1.88137e-05
1.72336e-05
1.49938e-05
1.19486e-05
7.92557e-06
2.72185e-06
-3.90249e-06
-1.22338e-05
-2.26137e-05
-3.54434e-05
-5.11882e-05
-7.03878e-05
-9.36776e-05
-0.000121812
-0.000155677
-0.000196278
-0.000244734
-0.000302274
-0.000370269
-0.000450229
-0.000543685
-0.000651883
-0.000775539
-0.000915434
-0.00107602
-0.00126912
-0.00145525
-0.00164081
-0.00181839
-0.00197955
-0.0021095
-0.00219225
-0.00221675
-0.00218406
-0.00211095
-0.00202287
-0.00193641
-0.00184429
-0.00171609
-0.00150491
-0.0011721
-0.000683335
-1.78452e-05
0.000837142
0.00188947
0.0031399
0.00457944
0.00618947
0.00794133
0.00979474
0.0117
0.0136051
0.0154628
0.0172333
0.0188861
0.0203996
0.0217666
0.0229777
0.0240302
0.0249225
0.0256531
0.0262181
0.0266117
0.026826
0.0268517
0.0266787
0.0262933
0.0256823
0.024898
0.0239101
0.0227214
0.0213413
0.0197876
0.018084
0.0162609
0.014356
0.0124153
0.0104901
0.00863484
0.00689986
0.00532477
0.00393168
0.00272163
0.00167614
0.00076439
-4.57553e-05
-0.000777292
-0.00143925
-0.0020292
-0.00253897
-0.00295617
-0.00327787
-0.00348557
-0.0035857
-0.00358653
-0.00350547
-0.00337276
-0.00322659
-0.00309937
-0.00300439
-0.00293074
-0.00285029
-0.00273514
-0.00257315
-0.00236965
-0.00213861
-0.00189493
-0.00165171
-0.00141909
-0.00120371
-0.00100912
-0.000836664
-0.000686129
-0.000556323
-0.000445514
-0.000351731
-0.00027296
-0.000207265
-0.000152853
-0.000108104
-7.15834e-05
-4.20335e-05
-1.83643e-05
3.62638e-07
1.49506e-05
2.60835e-05
3.43419e-05
4.02166e-05
4.41211e-05
4.64035e-05
4.73549e-05
4.72191e-05
4.61986e-05
4.44615e-05
4.21468e-05
3.93684e-05
3.62194e-05
3.27755e-05
2.90977e-05
2.52346e-05
2.12247e-05
1.70982e-05
1.28783e-05
8.58275e-06
4.22527e-06
-1.83807e-07
-4.6364e-06
-9.12587e-06
-1.36463e-05
-1.81911e-05
-2.27532e-05
-2.73186e-05
-3.18845e-05
-3.63932e-05
-4.09415e-05
3.00419e-06
3.01628e-06
3.0477e-06
3.10122e-06
3.17254e-06
3.26136e-06
3.36829e-06
3.49417e-06
3.63968e-06
3.8054e-06
3.99196e-06
4.20013e-06
4.43075e-06
4.68466e-06
4.96276e-06
5.26599e-06
5.59537e-06
5.95195e-06
6.33675e-06
6.75082e-06
7.19521e-06
7.67094e-06
8.17895e-06
8.71995e-06
9.29436e-06
9.90221e-06
1.05431e-05
1.1216e-05
1.19198e-05
1.26524e-05
1.34112e-05
1.41903e-05
1.49858e-05
1.57891e-05
1.65913e-05
1.73806e-05
1.81423e-05
1.88582e-05
1.95058e-05
2.00577e-05
2.04806e-05
2.07341e-05
2.07691e-05
2.05267e-05
1.99358e-05
1.89119e-05
1.73539e-05
1.51406e-05
1.21267e-05
8.1406e-06
2.98061e-06
-3.59162e-06
-1.18611e-05
-2.21683e-05
-3.49135e-05
-5.056e-05
-6.96439e-05
-9.27972e-05
-0.000120773
-0.000154455
-0.000194854
-0.00024309
-0.000300394
-0.000368119
-0.000447748
-0.000540876
-0.000649169
-0.00077416
-0.00091612
-0.0010722
-0.00124447
-0.00141802
-0.00160372
-0.00178916
-0.00195985
-0.00209796
-0.00218573
-0.00221094
-0.00217457
-0.00209545
-0.00200306
-0.00191753
-0.00183247
-0.00171303
-0.00151751
-0.00119567
-0.000716399
-5.87906e-05
0.000789685
0.00183707
0.00308452
0.00452329
0.00613521
0.00789208
0.00975335
0.0116682
0.0135834
0.0154509
0.0172311
0.0188942
0.0204176
0.0217897
0.0230036
0.0240573
0.0249507
0.0256822
0.0262485
0.0266439
0.0268611
0.0268922
0.0267306
0.0263695
0.0257919
0.0250139
0.0240179
0.0228178
0.0214266
0.0198616
0.0181452
0.0163071
0.0143853
0.0124248
0.0104793
0.00860355
0.00684996
0.00526002
0.0038571
0.00264257
0.00159718
0.000688473
-0.000117449
-0.000844614
-0.00150205
-0.00208695
-0.0025905
-0.00300034
-0.00331143
-0.00351213
-0.00360737
-0.00360319
-0.00351592
-0.00337639
-0.00322469
-0.00309512
-0.00300165
-0.00293217
-0.00285594
-0.00274275
-0.00258011
-0.00237448
-0.00214094
-0.00189498
-0.00164997
-0.00141615
-0.00120009
-0.00100523
-0.000832775
-0.00068243
-0.000552919
-0.000442453
-0.000349025
-0.000270598
-0.000205224
-0.000151102
-0.000106612
-7.03185e-05
-4.09657e-05
-1.74663e-05
1.11508e-06
1.5579e-05
2.66065e-05
3.47758e-05
4.05753e-05
4.44166e-05
4.66461e-05
4.75532e-05
4.73805e-05
4.63295e-05
4.45671e-05
4.22318e-05
3.94366e-05
3.62741e-05
3.28196e-05
2.91336e-05
2.52642e-05
2.125e-05
1.71205e-05
1.28988e-05
8.60223e-06
4.24391e-06
-1.66484e-07
-4.62131e-06
-9.11396e-06
-1.36381e-05
-1.81868e-05
-2.27527e-05
-2.73224e-05
-3.18914e-05
-3.64177e-05
-4.09626e-05
2.99962e-06
3.01157e-06
3.04274e-06
3.09579e-06
3.16651e-06
3.25466e-06
3.36094e-06
3.48615e-06
3.63102e-06
3.79611e-06
3.98207e-06
4.18966e-06
4.41976e-06
4.67329e-06
4.95118e-06
5.2544e-06
5.584e-06
5.94105e-06
6.3266e-06
6.74168e-06
7.18726e-06
7.6642e-06
8.17329e-06
8.71516e-06
9.29022e-06
9.89853e-06
1.05398e-05
1.12132e-05
1.19176e-05
1.26507e-05
1.34095e-05
1.41892e-05
1.49854e-05
1.57907e-05
1.65957e-05
1.73888e-05
1.81554e-05
1.88774e-05
1.95325e-05
2.00935e-05
2.05275e-05
2.07943e-05
2.08456e-05
2.06226e-05
2.00548e-05
1.90586e-05
1.75339e-05
1.53602e-05
1.23932e-05
8.46238e-06
3.36783e-06
-3.12641e-06
-1.13032e-05
-2.15015e-05
-3.41203e-05
-4.96196e-05
-6.85304e-05
-9.14788e-05
-0.000119215
-0.000152627
-0.000192725
-0.000240625
-0.000297549
-0.000364875
-0.000444163
-0.000537063
-0.000645016
-0.000768972
-0.00090945
-0.00106744
-0.00124618
-0.00143322
-0.00162729
-0.0018171
-0.00198986
-0.00212931
-0.00221764
-0.00224145
-0.0022009
-0.00211629
-0.00202065
-0.00193699
-0.00185844
-0.00174932
-0.00155892
-0.00124222
-0.000764797
-0.000106746
0.000743666
0.00179486
0.00304847
0.00449568
0.00611829
0.00788807
0.00976357
0.0116921
0.0136187
0.0154944
0.0172796
0.0189441
0.0204668
0.0218373
0.0230493
0.0241022
0.0249954
0.0257276
0.0262952
0.0266922
0.0269102
0.0269395
0.0267709
0.0263956
0.0258051
0.0250143
0.0240163
0.0228173
0.0214273
0.0198619
0.0181436
0.0163019
0.0143751
0.0124095
0.0104579
0.00857764
0.00682253
0.00523524
0.0038396
0.00263605
0.00160301
0.000704909
-9.4951e-05
-0.000821672
-0.00148343
-0.00207569
-0.00258811
-0.0030078
-0.00332598
-0.00353218
-0.00362866
-0.00362168
-0.00352764
-0.00337925
-0.00322002
-0.00308745
-0.00299671
-0.00293397
-0.00286442
-0.00275429
-0.00259062
-0.00238172
-0.00214439
-0.00189498
-0.00164729
-0.00141168
-0.00119461
-0.000999347
-0.000826919
-0.000676868
-0.000547806
-0.000437858
-0.000344966
-0.000267057
-0.000202165
-0.00014848
-0.000104378
-6.84243e-05
-3.93669e-05
-1.6122e-05
2.24135e-06
1.65194e-05
2.73892e-05
3.5425e-05
4.1112e-05
4.48587e-05
4.70089e-05
4.78498e-05
4.76219e-05
4.65251e-05
4.47249e-05
4.23583e-05
3.95374e-05
3.6354e-05
3.28822e-05
2.91821e-05
2.53012e-05
2.12775e-05
1.71401e-05
1.2912e-05
8.61021e-06
4.24796e-06
-1.64868e-07
-4.62064e-06
-9.11309e-06
-1.36366e-05
-1.81849e-05
-2.27514e-05
-2.73229e-05
-3.18957e-05
-3.64281e-05
-4.09789e-05
2.9934e-06
3.0052e-06
3.03636e-06
3.0894e-06
3.16016e-06
3.24841e-06
3.35478e-06
3.48009e-06
3.62503e-06
3.79017e-06
3.97615e-06
4.18375e-06
4.41381e-06
4.66724e-06
4.94494e-06
5.24786e-06
5.57703e-06
5.93351e-06
6.31834e-06
6.73251e-06
7.17702e-06
7.6528e-06
8.16076e-06
8.70165e-06
9.27598e-06
9.88391e-06
1.05252e-05
1.1199e-05
1.19041e-05
1.26385e-05
1.33993e-05
1.41818e-05
1.49813e-05
1.57905e-05
1.66001e-05
1.73988e-05
1.81722e-05
1.89024e-05
1.95676e-05
2.01408e-05
2.05896e-05
2.08743e-05
2.09471e-05
2.07499e-05
2.02129e-05
1.92536e-05
1.7773e-05
1.5652e-05
1.27474e-05
8.88996e-06
3.88235e-06
-2.50818e-06
-1.05615e-05
-2.0615e-05
-3.30656e-05
-4.83695e-05
-6.705e-05
-8.97259e-05
-0.000117144
-0.000150192
-0.000189886
-0.000237342
-0.000293787
-0.000360587
-0.00043928
-0.00053154
-0.000639076
-0.000763412
-0.000905338
-0.00106478
-0.00124131
-0.00142612
-0.00161814
-0.00180954
-0.00198704
-0.0021324
-0.00222497
-0.00224844
-0.00220178
-0.00210807
-0.00200665
-0.00192585
-0.00185904
-0.00176592
-0.00159468
-0.00129275
-0.000825994
-0.000175875
0.000668657
0.00171677
0.0029709
0.00442234
0.00605329
0.00783611
0.00972848
0.0116753
0.0136194
0.0155104
0.0173085
0.0189831
0.0205131
0.0218879
0.023103
0.0241576
0.0250522
0.0257862
0.0263562
0.0267564
0.0269786
0.0270139
0.0268536
0.0264888
0.025911
0.025126
0.0241286
0.0229246
0.0215255
0.019948
0.0182142
0.0163538
0.0144048
0.0124135
0.0104357
0.0085303
0.00675404
0.00515246
0.003751
0.00254978
0.00152479
0.000636554
-0.000155374
-0.00087786
-0.00153835
-0.00213054
-0.00264285
-0.00306183
-0.00337657
-0.00357853
-0.00366926
-0.00365398
-0.00354798
-0.00338567
-0.00321497
-0.0030776
-0.00299032
-0.00293679
-0.00287638
-0.00277031
-0.00260504
-0.00239153
-0.00214899
-0.00189491
-0.00164361
-0.00140561
-0.00118723
-0.000991452
-0.000819074
-0.000669433
-0.000540979
-0.000431731
-0.000339557
-0.000262342
-0.000198093
-0.000144991
-0.000101406
-6.59052e-05
-3.7241e-05
-1.43348e-05
3.73853e-06
1.77694e-05
2.84294e-05
3.62878e-05
4.18252e-05
4.54461e-05
4.74908e-05
4.82437e-05
4.79424e-05
4.67848e-05
4.49344e-05
4.25267e-05
3.96723e-05
3.64618e-05
3.29686e-05
2.92516e-05
2.53577e-05
2.13242e-05
1.71798e-05
1.29466e-05
8.64119e-06
4.27615e-06
-1.39276e-07
-4.59802e-06
-9.0942e-06
-1.36222e-05
-1.81758e-05
-2.27483e-05
-2.73267e-05
-3.19086e-05
-3.64502e-05
-4.10144e-05
2.9856e-06
2.99732e-06
3.02847e-06
3.08145e-06
3.15207e-06
3.2401e-06
3.34619e-06
3.47114e-06
3.61567e-06
3.78035e-06
3.96582e-06
4.17286e-06
4.40232e-06
4.65511e-06
4.93216e-06
5.23445e-06
5.56303e-06
5.91899e-06
6.30338e-06
6.71725e-06
7.16164e-06
7.6375e-06
8.14573e-06
8.68706e-06
9.26193e-06
9.87048e-06
1.05125e-05
1.11871e-05
1.18933e-05
1.26291e-05
1.33916e-05
1.41764e-05
1.49789e-05
1.57919e-05
1.66067e-05
1.74119e-05
1.81934e-05
1.89337e-05
1.96113e-05
2.01997e-05
2.06667e-05
2.09736e-05
2.10733e-05
2.09082e-05
2.04095e-05
1.9496e-05
1.80704e-05
1.60151e-05
1.31882e-05
9.42213e-06
4.52268e-06
-1.73868e-06
-9.63813e-06
-1.95109e-05
-3.17521e-05
-4.68127e-05
-6.52066e-05
-8.75419e-05
-0.000114561
-0.000147156
-0.000186348
-0.00023325
-0.00028907
-0.00035518
-0.000433186
-0.000524899
-0.000632092
-0.000756133
-0.000897689
-0.00105713
-0.00123453
-0.0014244
-0.00162378
-0.00182396
-0.00201052
-0.00216404
-0.00226192
-0.00228503
-0.00223085
-0.0021257
-0.00201684
-0.00193917
-0.00188579
-0.00181183
-0.00165722
-0.00136826
-0.000908958
-0.000262562
0.000580653
0.00163074
0.0028911
0.00435293
0.00599873
0.00780143
0.00971738
0.0116882
0.0136532
0.015561
0.0173711
0.0190532
0.020587
0.0219628
0.0231771
0.024231
0.0251258
0.025861
0.0264335
0.0268369
0.0270622
0.0270992
0.026938
0.0265694
0.0259869
0.0251944
0.0241905
0.0229807
0.0215754
0.0199899
0.0182459
0.0163722
0.0144066
0.0123971
0.0103995
0.00847612
0.00668688
0.00508026
0.00368315
0.00249466
0.00148713
0.000615634
-0.000165333
-0.000884786
-0.00154869
-0.00214785
-0.00266853
-0.00309554
-0.00341543
-0.0036198
-0.00370939
-0.0036878
-0.00356908
-0.00339038
-0.00320583
-0.00306294
-0.00298078
-0.00293985
-0.00289174
-0.00279097
-0.00262345
-0.00240389
-0.00215466
-0.00189465
-0.0016388
-0.00139784
-0.00117786
-0.000981481
-0.000809201
-0.000660098
-0.000532424
-0.000424064
-0.000332796
-0.000256453
-0.000193012
-0.000140638
-9.77e-05
-6.27658e-05
-3.45926e-05
-1.2109e-05
5.60269e-06
1.93255e-05
2.97241e-05
3.73614e-05
4.27124e-05
4.61768e-05
4.80902e-05
4.87334e-05
4.83409e-05
4.71075e-05
4.51947e-05
4.27354e-05
3.98389e-05
3.65939e-05
3.30727e-05
2.93331e-05
2.54211e-05
2.1373e-05
1.72169e-05
1.29746e-05
8.66222e-06
4.29198e-06
-1.27137e-07
-4.58839e-06
-9.08638e-06
-1.3616e-05
-1.81717e-05
-2.27472e-05
-2.73304e-05
-3.19191e-05
-3.64703e-05
-4.10506e-05
2.97624e-06
2.98791e-06
3.019e-06
3.07187e-06
3.14231e-06
3.23013e-06
3.33598e-06
3.46066e-06
3.60488e-06
3.76924e-06
3.95436e-06
4.16103e-06
4.3901e-06
4.64247e-06
4.91909e-06
5.22094e-06
5.54907e-06
5.90455e-06
6.28846e-06
6.70182e-06
7.14569e-06
7.62102e-06
8.12871e-06
8.66954e-06
9.24402e-06
9.85238e-06
1.04945e-05
1.11697e-05
1.18769e-05
1.26143e-05
1.3379e-05
1.41671e-05
1.49737e-05
1.5792e-05
1.66133e-05
1.74266e-05
1.8218e-05
1.89705e-05
1.9663e-05
2.02695e-05
2.07584e-05
2.10919e-05
2.12235e-05
2.10968e-05
2.0644e-05
1.97851e-05
1.84252e-05
1.64484e-05
1.37143e-05
1.00573e-05
5.28692e-06
-8.20101e-07
-8.53537e-06
-1.81918e-05
-3.01828e-05
-4.49532e-05
-6.30048e-05
-8.49326e-05
-0.000111473
-0.000143523
-0.00018211
-0.000228344
-0.000283429
-0.000348735
-0.000425891
-0.000516759
-0.000623248
-0.000747004
-0.000889066
-0.0010499
-0.00122899
-0.0014219
-0.00162505
-0.00183052
-0.0020242
-0.00218552
-0.00228881
-0.00231054
-0.00224565
-0.00212458
-0.00200524
-0.00193135
-0.00189603
-0.00184721
-0.00171816
-0.00144878
-0.00100236
-0.000364674
0.000472393
0.00152038
0.00278408
0.00425454
0.00591487
0.00773908
0.0096821
0.0116813
0.0136722
0.0156014
0.0174284
0.0191226
0.020664
0.0220437
0.0232601
0.0243153
0.0252115
0.0259491
0.0265251
0.0269331
0.0271637
0.0272067
0.0270517
0.0266892
0.0261127
0.0253228
0.0243182
0.0231038
0.0216896
0.0200909
0.0183288
0.0164321
0.0144386
0.0123964
0.0103648
0.00840897
0.00659344
0.00497093
0.00357072
0.00239119
0.00140042
0.000546798
-0.000221628
-0.000936605
-0.00160219
-0.00220574
-0.00273135
-0.00316208
-0.00348242
-0.0036843
-0.00376829
-0.00373591
-0.00359919
-0.00339833
-0.00319522
-0.00304471
-0.00296883
-0.002944
-0.00291152
-0.00281714
-0.00264636
-0.00241898
-0.00216141
-0.00189411
-0.00163277
-0.00138829
-0.00116643
-0.000969386
-0.000797272
-0.000648852
-0.000522141
-0.000414863
-0.000324693
-0.000249402
-0.000186932
-0.000135433
-9.32702e-05
-5.9014e-05
-3.14282e-05
-9.45001e-06
7.82931e-06
2.11838e-05
3.127e-05
3.86431e-05
4.37715e-05
4.70488e-05
4.88054e-05
4.93177e-05
4.88161e-05
4.74923e-05
4.55049e-05
4.29844e-05
4.00379e-05
3.67526e-05
3.31991e-05
2.94339e-05
2.55019e-05
2.14385e-05
1.72708e-05
1.30198e-05
8.70104e-06
4.32593e-06
-9.72028e-08
-4.5622e-06
-9.06416e-06
-1.35984e-05
-1.81595e-05
-2.27418e-05
-2.73335e-05
-3.19332e-05
-3.64975e-05
-4.1099e-05
2.96532e-06
2.97695e-06
3.00796e-06
3.0607e-06
3.13096e-06
3.21854e-06
3.3241e-06
3.44843e-06
3.59226e-06
3.75617e-06
3.94079e-06
4.1469e-06
4.37536e-06
4.62708e-06
4.90301e-06
5.20413e-06
5.53151e-06
5.88625e-06
6.26943e-06
6.68211e-06
7.12537e-06
7.60021e-06
8.10757e-06
8.64828e-06
9.22287e-06
9.83161e-06
1.04744e-05
1.11507e-05
1.18594e-05
1.25988e-05
1.33661e-05
1.41577e-05
1.49688e-05
1.57928e-05
1.66214e-05
1.74438e-05
1.82465e-05
1.90131e-05
1.97228e-05
2.03502e-05
2.08645e-05
2.12287e-05
2.13975e-05
2.13152e-05
2.09154e-05
2.01199e-05
1.88362e-05
1.69507e-05
1.43243e-05
1.07937e-05
6.17281e-06
2.44896e-07
-7.25613e-06
-1.6661e-05
-2.83615e-05
-4.27957e-05
-6.04504e-05
-8.19036e-05
-0.000107885
-0.000139299
-0.000177181
-0.000222642
-0.000276861
-0.000341194
-0.000417315
-0.000507232
-0.000613051
-0.000736563
-0.000878838
-0.00104032
-0.0012207
-0.00141713
-0.00162645
-0.00184112
-0.00204652
-0.00222015
-0.00233252
-0.00235461
-0.00227778
-0.00213744
-0.00200518
-0.00193599
-0.00192244
-0.00190376
-0.00180265
-0.00155372
-0.00111912
-0.000488274
0.000344596
0.00139306
0.00266363
0.00414681
0.00582643
0.00767812
0.00965497
0.0116889
0.0137104
0.0156642
0.0175095
0.0192158
0.0207637
0.0221457
0.0233621
0.0244167
0.0253133
0.0260529
0.0266326
0.0270454
0.0272815
0.0273293
0.0271775
0.026816
0.0262384
0.0254442
0.0244332
0.0232104
0.0217855
0.020173
0.0183933
0.0164741
0.0144531
0.0123798
0.0103147
0.00832743
0.00648775
0.00485326
0.00345596
0.00229309
0.00132728
0.000498362
-0.000253807
-0.000964277
-0.00163425
-0.0022463
-0.00278171
-0.00322114
-0.00354629
-0.00374897
-0.00382997
-0.00378773
-0.00363114
-0.00340427
-0.00317905
-0.00301976
-0.00295242
-0.00294845
-0.0029359
-0.00284927
-0.00267399
-0.0024368
-0.0021691
-0.00189311
-0.0016253
-0.00137676
-0.0011528
-0.000955061
-0.000783213
-0.000635646
-0.000510098
-0.000404109
-0.000315239
-0.000241186
-0.000179855
-0.00012938
-8.81222e-05
-5.46566e-05
-2.7755e-05
-6.36492e-06
1.04117e-05
2.33383e-05
3.30617e-05
4.01282e-05
4.49982e-05
4.80585e-05
4.96333e-05
4.99938e-05
4.93659e-05
4.79374e-05
4.58635e-05
4.3272e-05
4.02674e-05
3.69348e-05
3.33431e-05
2.95472e-05
2.55908e-05
2.15082e-05
1.73255e-05
1.3063e-05
8.73548e-06
4.35392e-06
-7.40191e-08
-4.54274e-06
-9.04796e-06
-1.35856e-05
-1.81509e-05
-2.27388e-05
-2.73381e-05
-3.19486e-05
-3.65266e-05
-4.11513e-05
2.95285e-06
2.96443e-06
2.99536e-06
3.04795e-06
3.118e-06
3.2053e-06
3.31052e-06
3.43446e-06
3.57783e-06
3.74124e-06
3.92531e-06
4.13081e-06
4.35863e-06
4.60966e-06
4.88487e-06
5.18526e-06
5.51191e-06
5.86592e-06
6.24839e-06
6.6604e-06
7.10304e-06
7.57735e-06
8.08429e-06
8.62469e-06
9.19915e-06
9.80799e-06
1.04512e-05
1.11283e-05
1.18384e-05
1.25799e-05
1.33502e-05
1.41457e-05
1.4962e-05
1.57927e-05
1.66297e-05
1.74625e-05
1.82782e-05
1.90608e-05
1.979e-05
2.04411e-05
2.09842e-05
2.13833e-05
2.15942e-05
2.15625e-05
2.12228e-05
2.04992e-05
1.93021e-05
1.75203e-05
1.50164e-05
1.16292e-05
7.17769e-06
1.45321e-06
-5.80378e-06
-1.4922e-05
-2.62925e-05
-4.03458e-05
-5.75501e-05
-7.84625e-05
-0.000103804
-0.00013449
-0.000171568
-0.000216144
-0.000269371
-0.000332592
-0.000407526
-0.000496305
-0.000601214
-0.000724242
-0.00086668
-0.00102918
-0.00121169
-0.00141238
-0.00162841
-0.00185259
-0.00207012
-0.00225678
-0.00237878
-0.00240006
-0.00230692
-0.00214063
-0.00199054
-0.00192625
-0.00193907
-0.00195664
-0.0018907
-0.0016674
-0.00124774
-0.000626519
0.000199023
0.00124552
0.00252176
0.00401731
0.00571709
0.00759923
0.00961474
0.0116887
0.0137456
0.0157278
0.0175947
0.0193158
0.020872
0.0222574
0.0234748
0.0245299
0.0254276
0.0261701
0.0267545
0.0271736
0.0274167
0.0274714
0.0273258
0.0269694
0.0263952
0.0256012
0.0245874
0.023358
0.0219222
0.0202938
0.0184923
0.0165449
0.014489
0.0123744
0.0102651
0.00823556
0.00636193
0.00470818
0.00330999
0.00216361
0.00122527
0.000424355
-0.000309494
-0.00101534
-0.00169043
-0.00231134
-0.00285634
-0.0033036
-0.00363173
-0.00383285
-0.00390868
-0.0038536
-0.00367187
-0.00341222
-0.00315915
-0.00298859
-0.00293178
-0.00295401
-0.00296623
-0.00288857
-0.002707
-0.00245756
-0.00217772
-0.00189151
-0.00161626
-0.00136315
-0.0011369
-0.000938476
-0.00076702
-0.000620492
-0.000496318
-0.00039183
-0.000304459
-0.000231828
-0.000171801
-0.000122495
-8.22693e-05
-4.97039e-05
-2.35809e-05
-2.8597e-06
1.33453e-05
2.57855e-05
3.50965e-05
4.18144e-05
4.63908e-05
4.92045e-05
5.05727e-05
5.07607e-05
4.99894e-05
4.84419e-05
4.62697e-05
4.35976e-05
4.05273e-05
3.71416e-05
3.35071e-05
2.96773e-05
2.56943e-05
2.15909e-05
1.73925e-05
1.31182e-05
8.78189e-06
4.39377e-06
-3.93318e-08
-4.51252e-06
-9.02214e-06
-1.35647e-05
-1.8136e-05
-2.27317e-05
-2.73409e-05
-3.19648e-05
-3.65592e-05
-4.12114e-05
2.93883e-06
2.95038e-06
2.9812e-06
3.03362e-06
3.10343e-06
3.19042e-06
3.29526e-06
3.41875e-06
3.56162e-06
3.72446e-06
3.9079e-06
4.11273e-06
4.3398e-06
4.59004e-06
4.86442e-06
5.16396e-06
5.48973e-06
5.84285e-06
6.22445e-06
6.63563e-06
7.0775e-06
7.55114e-06
8.05755e-06
8.59759e-06
9.17195e-06
9.781e-06
1.04248e-05
1.1103e-05
1.18149e-05
1.25588e-05
1.33324e-05
1.41324e-05
1.49544e-05
1.57924e-05
1.66387e-05
1.7483e-05
1.83131e-05
1.91135e-05
1.98645e-05
2.05421e-05
2.11171e-05
2.15551e-05
2.18132e-05
2.1838e-05
2.15653e-05
2.09218e-05
1.98214e-05
1.81557e-05
1.57887e-05
1.25613e-05
8.29851e-06
2.80127e-06
-4.1821e-06
-1.29788e-05
-2.39805e-05
-3.76097e-05
-5.43121e-05
-7.46179e-05
-9.92385e-05
-0.000129101
-0.000165276
-0.000208862
-0.000260977
-0.000322927
-0.000396472
-0.000483903
-0.000587757
-0.000710275
-0.00085291
-0.00101639
-0.00120095
-0.0014058
-0.00162904
-0.00186428
-0.00209671
-0.0023002
-0.00243571
-0.0024581
-0.00234628
-0.00214827
-0.00197617
-0.00191811
-0.00196316
-0.00202438
-0.00199917
-0.00180401
-0.00139911
-0.000786862
3.14516e-05
0.00107688
0.002361
0.00387163
0.00559514
0.0075133
0.00957469
0.0116957
0.0137932
0.0158076
0.0176985
0.0194354
0.0209997
0.0223876
0.0236048
0.024659
0.0255572
0.0263023
0.0268918
0.0273177
0.0275685
0.0276306
0.0274909
0.0271382
0.0265648
0.0257682
0.0247483
0.0235093
0.0220601
0.0204137
0.0185886
0.0166109
0.0145172
0.0123585
0.0102015
0.00812613
0.00621634
0.00454359
0.00314805
0.00202478
0.00112223
0.000356877
-0.000354455
-0.00105564
-0.00173834
-0.00237121
-0.00292919
-0.00338754
-0.00372088
-0.00392195
-0.00399431
-0.00392666
-0.00371646
-0.00341804
-0.00313169
-0.00294787
-0.00290471
-0.00296018
-0.00300331
-0.00293598
-0.00274577
-0.0024812
-0.00218701
-0.00188899
-0.00160529
-0.00134714
-0.00111847
-0.000919424
-0.000748538
-0.000603281
-0.000480724
-0.000377976
-0.000292326
-0.000221315
-0.000162767
-0.000114783
-7.57206e-05
-4.41678e-05
-1.89189e-05
1.05252e-06
1.66176e-05
2.85137e-05
3.73638e-05
4.36925e-05
4.79412e-05
5.04797e-05
5.16177e-05
5.16134e-05
5.06822e-05
4.90022e-05
4.67207e-05
4.39589e-05
4.08154e-05
3.73702e-05
3.36879e-05
2.98199e-05
2.58066e-05
2.16796e-05
1.7463e-05
1.31747e-05
8.8281e-06
4.43235e-06
-6.5092e-09
-4.48434e-06
-8.99822e-06
-1.35454e-05
-1.81223e-05
-2.27254e-05
-2.73447e-05
-3.19825e-05
-3.65943e-05
-4.12763e-05
2.92328e-06
2.93478e-06
2.9655e-06
3.01772e-06
3.08726e-06
3.17391e-06
3.27832e-06
3.40132e-06
3.54363e-06
3.70584e-06
3.88858e-06
4.09264e-06
4.31888e-06
4.56825e-06
4.84171e-06
5.1403e-06
5.46511e-06
5.81727e-06
6.19791e-06
6.60819e-06
7.04924e-06
7.52217e-06
8.028e-06
8.56766e-06
9.14188e-06
9.75112e-06
1.03955e-05
1.10749e-05
1.17885e-05
1.2535e-05
1.33121e-05
1.41169e-05
1.49452e-05
1.57913e-05
1.66477e-05
1.75048e-05
1.83507e-05
1.91707e-05
1.99457e-05
2.06523e-05
2.12626e-05
2.17434e-05
2.20535e-05
2.21404e-05
2.19415e-05
2.13861e-05
2.03922e-05
1.88549e-05
1.66391e-05
1.35874e-05
9.53181e-06
4.28497e-06
-2.39543e-06
-1.08358e-05
-2.14308e-05
-3.45945e-05
-5.07452e-05
-7.03795e-05
-9.41969e-05
-0.000123144
-0.000158316
-0.000200808
-0.000251684
-0.0003122
-0.000384162
-0.000470042
-0.000572653
-0.000694496
-0.000837194
-0.0010016
-0.00118837
-0.00139782
-0.00162916
-0.00187696
-0.00212653
-0.00234974
-0.0025016
-0.00252549
-0.00238998
-0.00215086
-0.00194959
-0.00189802
-0.00198153
-0.0020945
-0.00211731
-0.00195445
-0.00156545
-0.000963368
-0.000154725
0.000887999
0.00217994
0.003706
0.0054546
0.00741289
0.00952666
0.0117013
0.0138446
0.0158948
0.0178125
0.0195669
0.02114
0.0225305
0.0237472
0.0248006
0.0256995
0.026448
0.0270435
0.0274776
0.0277375
0.0278085
0.0276764
0.0273291
0.0267584
0.0259609
0.0249363
0.0236885
0.0222258
0.0205602
0.0187091
0.016697
0.0145599
0.0123494
0.0101355
0.00800488
0.00605051
0.00435321
0.0029589
0.0018616
0.00100065
0.000276854
-0.000408945
-0.00110639
-0.00179932
-0.00244629
-0.00301893
-0.0034894
-0.00382748
-0.00402739
-0.00409591
-0.00401419
-0.0037699
-0.00342415
-0.003097
-0.00289672
-0.00287046
-0.00296757
-0.00304889
-0.00299309
-0.00279108
-0.00250794
-0.00219697
-0.00188545
-0.00159232
-0.00132874
-0.00109755
-0.00089799
-0.000727869
-0.000584114
-0.00046341
-0.000362625
-0.0002789
-0.000209693
-0.000152787
-0.000106266
-6.84895e-05
-3.80553e-05
-1.37718e-05
5.37156e-06
2.02299e-05
3.15251e-05
3.98662e-05
4.57651e-05
4.96518e-05
5.18865e-05
5.277e-05
5.25535e-05
5.14456e-05
4.96193e-05
4.72172e-05
4.43564e-05
4.11321e-05
3.76217e-05
3.38869e-05
2.99772e-05
2.59311e-05
2.17786e-05
1.75425e-05
1.32397e-05
8.88232e-06
4.47865e-06
3.37614e-08
-4.4491e-06
-8.96781e-06
-1.35204e-05
-1.81039e-05
-2.27158e-05
-2.73465e-05
-3.2e-05
-3.66313e-05
-4.13466e-05
2.90619e-06
2.91765e-06
2.94825e-06
3.00026e-06
3.06951e-06
3.15577e-06
3.25971e-06
3.38217e-06
3.52385e-06
3.68537e-06
3.86734e-06
4.07056e-06
4.29589e-06
4.54429e-06
4.81674e-06
5.11429e-06
5.43803e-06
5.78911e-06
6.1687e-06
6.57797e-06
7.01808e-06
7.49018e-06
7.99535e-06
8.53454e-06
9.10857e-06
9.71797e-06
1.0363e-05
1.10436e-05
1.17591e-05
1.25084e-05
1.32894e-05
1.40994e-05
1.49345e-05
1.57894e-05
1.66569e-05
1.75278e-05
1.83909e-05
1.92321e-05
2.00332e-05
2.07715e-05
2.142e-05
2.19474e-05
2.23142e-05
2.24689e-05
2.23501e-05
2.18904e-05
2.10128e-05
1.96158e-05
1.75652e-05
1.47046e-05
1.08738e-05
5.89983e-06
-4.48415e-07
-8.49798e-06
-1.86493e-05
-3.13085e-05
-4.686e-05
-6.57584e-05
-8.86885e-05
-0.000116624
-0.000150696
-0.000191994
-0.000241513
-0.000300435
-0.000370596
-0.000454676
-0.000555819
-0.000676843
-0.00081955
-0.000984876
-0.00117387
-0.00138799
-0.00162791
-0.00188955
-0.00215876
-0.00240562
-0.00257838
-0.00260601
-0.00244238
-0.00215191
-0.00191389
-0.00187033
-0.00200057
-0.0021752
-0.00225409
-0.00212705
-0.00175339
-0.00116114
-0.000363641
0.000676026
0.00197734
0.00352046
0.0052966
0.00730066
0.00947514
0.0117115
0.0139063
0.0159961
0.0179431
0.0197165
0.0212983
0.0226905
0.0239056
0.0249571
0.0258561
0.0266078
0.0272099
0.0276531
0.0279233
0.0280043
0.0278804
0.0275387
0.0269702
0.0261706
0.0251399
0.0238815
0.0224033
0.0207165
0.0188368
0.0167873
0.0146027
0.012335
0.0100577
0.00786489
0.00586038
0.00413615
0.00274527
0.00168079
0.00087126
0.000198338
-0.000457136
-0.00115176
-0.00185852
-0.00252283
-0.00311327
-0.00359874
-0.00394264
-0.00414186
-0.00420848
-0.00411327
-0.00382993
-0.00342784
-0.00305178
-0.00283172
-0.00282675
-0.00297624
-0.0031048
-0.00306155
-0.0028434
-0.00253751
-0.002207
-0.00188014
-0.0015766
-0.00130725
-0.00107359
-0.000873712
-0.000704657
-0.000562728
-0.000444192
-0.000345657
-0.000264113
-0.000196931
-0.000141853
-9.69552e-05
-6.05986e-05
-3.13952e-05
-8.17068e-06
1.00665e-05
2.41529e-05
3.4793e-05
4.25798e-05
4.80111e-05
5.15044e-05
5.3409e-05
5.40165e-05
5.35696e-05
5.22703e-05
5.02855e-05
4.77526e-05
4.47847e-05
4.14731e-05
3.7892e-05
3.41004e-05
3.01455e-05
2.60637e-05
2.18836e-05
1.76263e-05
1.33075e-05
8.93834e-06
4.5261e-06
7.47987e-08
-4.41326e-06
-8.93679e-06
-1.34947e-05
-1.80848e-05
-2.27055e-05
-2.73482e-05
-3.20181e-05
-3.667e-05
-4.14211e-05
2.88758e-06
2.89899e-06
2.92946e-06
2.98124e-06
3.05017e-06
3.13601e-06
3.23944e-06
3.3613e-06
3.50231e-06
3.66306e-06
3.8442e-06
4.04649e-06
4.27083e-06
4.51817e-06
4.78952e-06
5.08592e-06
5.40849e-06
5.75838e-06
6.13681e-06
6.54497e-06
6.98405e-06
7.45525e-06
7.95966e-06
8.49832e-06
9.07212e-06
9.68169e-06
1.03274e-05
1.10092e-05
1.17267e-05
1.2479e-05
1.32642e-05
1.40797e-05
1.49221e-05
1.57864e-05
1.66657e-05
1.75515e-05
1.8433e-05
1.92972e-05
2.01265e-05
2.08988e-05
2.15884e-05
2.21661e-05
2.25943e-05
2.28223e-05
2.27898e-05
2.2433e-05
2.16809e-05
2.04363e-05
1.85646e-05
1.59096e-05
1.232e-05
7.64056e-06
1.65369e-06
-5.97005e-06
-1.56415e-05
-2.77598e-05
-4.26686e-05
-6.07684e-05
-8.27262e-05
-0.000109551
-0.000142425
-0.000182432
-0.000230476
-0.00028763
-0.000355756
-0.000437777
-0.000537225
-0.000657279
-0.000799887
-0.000966002
-0.00115708
-0.00137587
-0.00162487