/*--------------------------------*- C++ -*----------------------------------*\
| =========                 |                                                 |
| \\      /  F ield         | OpenFOAM: The Open Source CFD Toolbox           |
|  \\    /   O peration     | Version:  v2006                                 |
|   \\  /    A nd           | Website:  www.openfoam.com                      |
|    \\/     M anipulation  |                                                 |
\*---------------------------------------------------------------------------*/
FoamFile
{
    version     2.0;
    format      ascii;
    class       surfaceScalarField;
    location    "8.4";
    object      phi;
}
// * * * * * * * * * * * * * * * * * * * * * * * * * * * * * * * * * * * * * //

dimensions      [0 3 -1 0 0 0 0];
oriented        oriented;


internalField   nonuniform List<scalar> 
104500
(
-6.42662e-05
6.42662e-05
-0.000106727
4.2461e-05
-0.000150495
4.37681e-05
-0.000199064
4.85688e-05
-0.000250309
5.12448e-05
-0.000302252
5.19428e-05
-0.000354003
5.17512e-05
-0.000405393
5.13898e-05
-0.000456477
5.10839e-05
-0.000507308
5.08317e-05
-0.000557896
5.05872e-05
-0.000608222
5.03266e-05
-0.000658269
5.00471e-05
-0.000708021
4.97521e-05
-0.000757467
4.94457e-05
-0.000806597
4.91303e-05
-0.000855403
4.88059e-05
-0.000903876
4.84723e-05
-0.000952008
4.81321e-05
-0.000999791
4.77829e-05
-0.00104721
4.74219e-05
-0.00109426
4.70478e-05
-0.00114092
4.66595e-05
-0.00118717
4.62541e-05
-0.001233
4.58304e-05
-0.00127839
4.5386e-05
-0.00132331
4.49179e-05
-0.00136773
4.44232e-05
-0.00141163
4.38979e-05
-0.00145497
4.33423e-05
-0.00149773
4.27535e-05
-0.00153986
4.21324e-05
-0.00158133
4.14766e-05
-0.00162212
4.07845e-05
-0.00166217
4.00516e-05
-0.00170145
3.92787e-05
-0.00173992
3.84685e-05
-0.00177754
3.76221e-05
-0.00181428
3.67367e-05
-0.00185009
3.58153e-05
-0.00188495
3.48587e-05
-0.00191882
3.38732e-05
-0.00195169
3.28672e-05
-0.00198353
3.18375e-05
-0.00201431
3.0778e-05
-0.00204399
2.96795e-05
-0.00207252
2.85324e-05
-0.00209985
2.73331e-05
-0.00212593
2.60824e-05
-0.00215071
2.47799e-05
-0.00217414
2.34292e-05
-0.00219618
2.20377e-05
-0.00221679
2.06117e-05
-0.00223595
1.91562e-05
-0.00225362
1.76728e-05
-0.00226978
1.61595e-05
-0.00228439
1.46049e-05
-0.00229737
1.29839e-05
-0.00230863
1.1262e-05
-0.00231804
9.4064e-06
-0.00232544
7.40493e-06
-0.00233072
5.2748e-06
-0.00233378
3.06299e-06
-0.00233461
8.30531e-07
-0.00233339
-1.22234e-06
-0.00233023
-3.15404e-06
-0.00232525
-4.98575e-06
-0.00231853
-6.71702e-06
-0.00231016
-8.36791e-06
-0.0023002
-9.9592e-06
-0.0022887
-1.15063e-05
-0.00227568
-1.3019e-05
-0.00226118
-1.45014e-05
-0.00224522
-1.59532e-05
-0.00222785
-1.73731e-05
-0.00220909
-1.87618e-05
-0.00218897
-2.01202e-05
-0.00216752
-2.14466e-05
-0.00214478
-2.27386e-05
-0.00212079
-2.39955e-05
-0.00209557
-2.52157e-05
-0.00206918
-2.63954e-05
-0.00204165
-2.75325e-05
-0.00201302
-2.8628e-05
-0.00198333
-2.96863e-05
-0.00195262
-3.07124e-05
-0.00192091
-3.17101e-05
-0.00188823
-3.26812e-05
-0.0018546
-3.36238e-05
-0.00182007
-3.45315e-05
-0.00178467
-3.53979e-05
-0.00174846
-3.6214e-05
-0.00171149
-3.69708e-05
-0.00167383
-3.76622e-05
-0.00163554
-3.82861e-05
-0.0015967
-3.88458e-05
-0.00155735
-3.93488e-05
-0.00151754
-3.98057e-05
-0.00147731
-4.02265e-05
-0.00143669
-4.06198e-05
-0.0013957
-4.09915e-05
-0.00135436
-4.13423e-05
-0.00131269
-4.16715e-05
-0.00127071
-4.19798e-05
-0.00122845
-4.22632e-05
-0.00118593
-4.25203e-05
-0.00114318
-4.27491e-05
-0.00110023
-4.2948e-05
-0.00105711
-4.31158e-05
-0.00101386
-4.32515e-05
-0.000970507
-4.33542e-05
-0.000927083
-4.34238e-05
-0.000883624
-4.34595e-05
-0.000840163
-4.34611e-05
-0.000796732
-4.34308e-05
-0.00075336
-4.33723e-05
-0.000710086
-4.32735e-05
-0.000666941
-4.31455e-05
-0.000623954
-4.29863e-05
-0.000581157
-4.27972e-05
-0.000538588
-4.25696e-05
-0.000496268
-4.23196e-05
-0.000454241
-4.20268e-05
-0.000412529
-4.17125e-05
-0.000371164
-4.13645e-05
-0.000330177
-4.09875e-05
-0.000289597
-4.05793e-05
-0.000249456
-4.01416e-05
-0.000209785
-3.96708e-05
-0.000170612
-3.91732e-05
-0.000131966
-3.86459e-05
-9.3876e-05
-3.80899e-05
-5.63723e-05
-3.75036e-05
-1.94787e-05
-3.68936e-05
1.67769e-05
-3.62556e-05
5.2365e-05
-3.55881e-05
8.72617e-05
-3.48966e-05
0.000121441
-3.41788e-05
0.000154875
-3.3435e-05
0.000187544
-3.26688e-05
0.000219423
-3.18791e-05
0.000250489
-3.10658e-05
0.000280718
-3.02291e-05
0.000310088
-2.93702e-05
0.000338576
-2.84879e-05
0.000366158
-2.75815e-05
0.000392808
-2.66501e-05
0.000418499
-2.56914e-05
0.000443198
-2.46987e-05
0.000466853
-2.36551e-05
0.000489385
-2.25316e-05
0.000510679
-2.12942e-05
0.000530602
-1.99229e-05
0.000549035
-1.84327e-05
0.000565913
-1.68788e-05
0.000581254
-1.53405e-05
0.000595143
-1.38891e-05
0.000607703
-1.25598e-05
0.000619047
-1.13438e-05
0.00062925
-1.02034e-05
0.000638345
-9.09485e-06
0.000646332
-7.9874e-06
0.000653201
-6.86827e-06
0.000658939
-5.73811e-06
0.000663541
-4.60271e-06
0.000667008
-3.46664e-06
0.000669338
-2.33035e-06
0.000670528
-1.18931e-06
0.000670558
-2.99939e-08
0.00066942
1.13779e-06
0.000667107
2.31307e-06
0.000663641
3.46582e-06
0.000659059
4.58152e-06
0.000653406
5.65379e-06
0.000646726
6.67961e-06
0.000639078
7.64845e-06
0.0006305
8.57729e-06
0.000621036
9.46393e-06
0.00061073
1.03065e-05
0.000599626
1.11035e-05
0.000587774
1.18527e-05
0.000575222
1.25512e-05
0.000562026
1.31964e-05
0.00054824
1.37859e-05
0.00053392
1.43206e-05
0.000519114
1.48053e-05
0.000503864
1.52506e-05
0.000488191
1.56722e-05
0.000472102
1.60896e-05
0.000455579
1.65223e-05
0.000438594
1.69852e-05
0.000421108
1.74862e-05
0.000403084
1.80245e-05
0.000384492
1.85917e-05
0.000365317
1.91748e-05
0.000345557
1.97597e-05
0.000325223
2.03341e-05
0.000304335
2.08887e-05
0.000282918
2.14166e-05
0.000261005
2.19127e-05
0.000238633
2.2372e-05
0.000215844
2.27892e-05
0.000192687
2.31576e-05
0.000169218
2.34689e-05
0.000145505
2.37128e-05
0.000121628
2.38767e-05
9.76773e-05
2.39508e-05
7.37536e-05
2.39237e-05
4.99733e-05
2.37804e-05
2.64609e-05
2.35123e-05
3.338e-06
2.31229e-05
-1.92945e-05
2.26325e-05
-4.1376e-05
2.20815e-05
-6.29019e-05
2.15259e-05
-8.39429e-05
2.10409e-05
-0.000104612
2.06693e-05
-0.000125075
2.04626e-05
-0.000145506
2.04315e-05
-0.00016606
2.05539e-05
-0.000186841
2.07806e-05
-0.000207893
2.10525e-05
-0.00022919
2.12969e-05
-0.000250657
2.14672e-05
-0.000272193
2.15357e-05
-0.000293689
2.14963e-05
-0.000315052
2.1363e-05
-0.000336209
2.11562e-05
-0.000357105
2.08963e-05
-0.000377707
2.06022e-05
-0.000397981
2.02741e-05
-0.000417905
1.99241e-05
-0.000437448
1.95429e-05
-0.000456583
1.91353e-05
-0.000475288
1.87042e-05
-0.000493534
1.82464e-05
-0.000511304
1.77699e-05
-0.000528587
1.72827e-05
-0.000545368
1.67815e-05
-0.000561625
1.62567e-05
-0.000577363
1.57379e-05
-0.000592574
1.52114e-05
-0.000607253
1.46782e-05
-0.000621394
1.41417e-05
-0.000635003
1.36084e-05
-0.000648069
1.30663e-05
-0.000660595
1.25263e-05
-0.000672584
1.19893e-05
-0.000684042
1.14572e-05
-0.00069497
1.09282e-05
-0.00070538
1.04105e-05
-0.000715279
9.89841e-06
-0.000724679
9.4003e-06
-0.000733595
8.91578e-06
-0.000742043
8.44776e-06
-0.000750042
7.99914e-06
-0.000757613
7.57119e-06
-0.000764778
7.16514e-06
-0.000771569
6.79079e-06
-0.00077802
6.45116e-06
-0.000784185
6.16474e-06
-0.000790097
5.91214e-06
-0.00079581
5.71321e-06
-0.000801382
5.57164e-06
-0.000806872
5.48988e-06
-0.000812341
5.46966e-06
-0.000817851
5.50947e-06
-0.000823454
5.60339e-06
-0.000829183
5.72884e-06
-0.00083504
5.85696e-06
-0.000840981
5.94142e-06
-0.000846953
5.97147e-06
-0.000852913
5.96053e-06
-0.000858855
5.9418e-06
-0.000864824
5.9689e-06
-0.000870914
6.09026e-06
-0.000877217
6.30226e-06
-0.000883844
6.62718e-06
-0.000890906
7.06196e-06
-0.000898521
7.61543e-06
-0.000906815
8.29423e-06
-0.000915912
9.09631e-06
-0.000925943
1.00312e-05
-0.000937039
1.10959e-05
-0.0009493
1.22608e-05
-0.000962825
1.35252e-05
-0.00097767
1.48446e-05
-0.000993841
1.61715e-05
-0.0010113
1.74597e-05
-0.00102995
1.86514e-05
-0.00104964
1.96856e-05
-0.00107012
2.0484e-05
-0.00109108
2.09614e-05
-0.00111211
2.10236e-05
-0.00113272
2.06085e-05
-0.00115242
1.97009e-05
-0.00117073
1.83094e-05
-0.00118717
1.64422e-05
-0.00120131
1.4145e-05
-0.00121272
1.1412e-05
-0.00122097
8.24459e-06
-0.00122568
4.71546e-06
-0.0012268
1.11108e-06
-0.00122475
-2.04271e-06
-0.00122029
-4.46304e-06
-0.00121422
-6.06714e-06
-0.00120726
-6.96195e-06
-0.00119985
-7.41424e-06
-0.00119212
-7.73051e-06
-0.00118391
-8.21e-06
-0.00117493
-8.98057e-06
-0.0011649
-1.00253e-05
-0.00115363
-1.12658e-05
-0.00114104
-1.25956e-05
-0.0011271
-1.3939e-05
-0.00111184
-1.52626e-05
-0.00109528
-1.65564e-05
-0.00107745
-1.78338e-05
-0.00105836
-1.90922e-05
-0.00103804
-2.03174e-05
-0.00101654
-2.1498e-05
-0.000993909
-2.26307e-05
-0.000970198
-2.37114e-05
-0.000945444
-2.47534e-05
-0.000919684
-2.57605e-05
-0.000892955
-2.67286e-05
-0.000865285
-2.76698e-05
-0.000836712
-2.85734e-05
-0.000807273
-2.94386e-05
-0.000776986
-3.02874e-05
-0.000745895
-3.10906e-05
-0.00071403
-3.18647e-05
-0.000681422
-3.26089e-05
-0.000648097
-3.33247e-05
-0.000614081
-3.40155e-05
-0.000579401
-3.46806e-05
-0.000544082
-3.53192e-05
-0.000508144
-3.59378e-05
-0.000471615
-3.65288e-05
-0.000434522
-3.70927e-05
-0.000396897
-3.76251e-05
-0.000358774
-3.81231e-05
-0.000320183
-3.8591e-05
-0.000281171
-3.9012e-05
-0.000241801
-3.93699e-05
-0.000202149
-3.96517e-05
-0.00016221
-3.99398e-05
-0.000121888
-4.0322e-05
-8.03136e-05
-4.1574e-05
-3.74329e-05
-4.28807e-05
-3.74329e-05
-7.02193e-05
0.000134485
-0.000117934
9.0176e-05
-0.00016771
9.35434e-05
-0.000222783
0.000103643
-0.000280768
0.000109229
-0.000339356
0.000110531
-0.000397604
0.000109998
-0.000455399
0.000109186
-0.000512864
0.000108548
-0.000570074
0.000108042
-0.000627036
0.00010755
-0.000683729
0.000107019
-0.000740124
0.000106443
-0.000796203
0.000105831
-0.000851948
0.00010519
-0.000907343
0.000104525
-0.000962371
0.000103834
-0.00101702
0.00010312
-0.00107126
0.000102374
-0.00112507
0.000101592
-0.00117842
0.000100771
-0.00123128
9.99066e-05
-0.00128361
9.89932e-05
-0.00133538
9.8023e-05
-0.00138654
9.69908e-05
-0.00143705
9.5895e-05
-0.00148685
9.47218e-05
-0.0015359
9.34712e-05
-0.00158415
9.21435e-05
-0.00163153
9.07271e-05
-0.001678
8.92247e-05
-0.0017235
8.76249e-05
-0.00176795
8.59344e-05
-0.00181132
8.41497e-05
-0.00185354
8.22696e-05
-0.00189456
8.0299e-05
-0.00193432
7.8235e-05
-0.00197278
7.6075e-05
-0.00200986
7.38233e-05
-0.00204553
7.14839e-05
-0.00207974
6.90631e-05
-0.00211243
6.65691e-05
-0.00214357
6.40028e-05
-0.0021731
6.137e-05
-0.002201
5.86773e-05
-0.00222725
5.59265e-05
-0.00225183
5.31165e-05
-0.00227475
5.02528e-05
-0.002296
4.73339e-05
-0.00231558
4.4363e-05
-0.0023335
4.1344e-05
-0.00234974
3.82824e-05
-0.00236432
3.51844e-05
-0.00237722
3.2056e-05
-0.00238844
2.89015e-05
-0.00239801
2.57261e-05
-0.00240594
2.25344e-05
-0.00241228
1.93279e-05
-0.00241713
1.61088e-05
-0.00242061
1.28809e-05
-0.00242285
9.64871e-06
-0.00242399
6.41804e-06
-0.00242413
3.20172e-06
-0.00242336
5.46929e-08
-0.00242132
-3.25963e-06
-0.00241805
-6.42459e-06
-0.00241347
-9.56437e-06
-0.00240751
-1.26722e-05
-0.00240015
-1.57341e-05
-0.00239136
-1.8744e-05
-0.00238117
-2.17007e-05
-0.00236959
-2.46021e-05
-0.00235664
-2.74471e-05
-0.00234236
-3.02349e-05
-0.00232677
-3.29654e-05
-0.00230989
-3.56382e-05
-0.00229176
-3.82504e-05
-0.00227241
-4.07976e-05
-0.00225187
-4.32816e-05
-0.00223016
-4.57023e-05
-0.00220732
-4.80567e-05
-0.00218337
-5.03432e-05
-0.00215834
-5.25622e-05
-0.00213226
-5.47115e-05
-0.00210515
-5.67909e-05
-0.00207706
-5.88009e-05
-0.00204803
-6.07431e-05
-0.00201809
-6.26191e-05
-0.00198729
-6.4429e-05
-0.00195564
-6.61752e-05
-0.00192319
-6.78566e-05
-0.00188993
-6.94694e-05
-0.00185589
-7.10072e-05
-0.00182109
-7.24631e-05
-0.00178555
-7.38289e-05
-0.0017493
-7.5099e-05
-0.00171237
-7.62709e-05
-0.00167484
-7.73438e-05
-0.00163674
-7.83227e-05
-0.00159815
-7.92109e-05
-0.00155913
-8.00149e-05
-0.00151973
-8.07395e-05
-0.00148001
-8.1391e-05
-0.00144002
-8.19721e-05
-0.00139979
-8.24849e-05
-0.00135938
-8.2932e-05
-0.00131882
-8.33125e-05
-0.00127814
-8.36271e-05
-0.00123738
-8.38764e-05
-0.00119657
-8.40615e-05
-0.00115574
-8.41827e-05
-0.00111492
-8.42406e-05
-0.00107415
-8.42343e-05
-0.00103345
-8.41644e-05
-0.000992845
-8.40327e-05
-0.000952379
-8.3838e-05
-0.000912067
-8.3585e-05
-0.000871944
-8.32689e-05
-0.000832037
-8.28932e-05
-0.000792377
-8.24577e-05
-0.000752973
-8.19737e-05
-0.00071387
-8.14222e-05
-0.000675067
-8.08301e-05
-0.000636611
-8.01678e-05
-0.000598518
-7.94581e-05
-0.000560809
-7.86963e-05
-0.000523505
-7.78828e-05
-0.00048663
-7.70165e-05
-0.000450195
-7.61058e-05
-0.000414226
-7.51426e-05
-0.000378739
-7.41332e-05
-0.00034376
-7.30689e-05
-0.000309297
-7.19661e-05
-0.000275373
-7.0818e-05
-0.000242003
-6.96259e-05
-0.000209198
-6.83927e-05
-0.000176977
-6.71176e-05
-0.000145349
-6.58068e-05
-0.000114346
-6.44378e-05
-8.39608e-05
-6.30543e-05
-5.42057e-05
-6.16342e-05
-2.509e-05
-6.01815e-05
3.38083e-06
-5.86999e-05
3.1202e-05
-5.71914e-05
5.8374e-05
-5.56599e-05
8.4901e-05
-5.41086e-05
0.000110792
-5.25406e-05
0.000136059
-5.0959e-05
0.000160726
-4.93658e-05
0.000184832
-4.77606e-05
0.000208437
-4.61374e-05
0.000231625
-4.44819e-05
0.000254475
-4.27728e-05
0.00027703
-4.09881e-05
0.000299267
-3.91155e-05
0.000321087
-3.716e-05
0.000342342
-3.51443e-05
0.000362884
-3.31017e-05
0.0003826
-3.10599e-05
0.00040143
-2.9034e-05
0.000419363
-2.70271e-05
0.00043641
-2.50349e-05
0.000452593
-2.30509e-05
0.000467925
-2.10706e-05
0.000482415
-1.90924e-05
0.000496065
-1.71169e-05
0.000508881
-1.51464e-05
0.000520877
-1.31851e-05
0.00053209
-1.12426e-05
0.000542559
-9.33132e-06
0.000552304
-7.43236e-06
0.0005613
-5.52988e-06
0.000569512
-3.63037e-06
0.0005769
-1.73428e-06
0.000583383
1.96598e-07
0.000589051
1.98072e-06
0.000593852
3.77574e-06
0.000597763
5.55285e-06
0.000600765
7.30476e-06
0.000602841
9.02731e-06
0.000603977
1.07173e-05
0.000604156
1.2372e-05
0.000603363
1.39894e-05
0.000601581
1.55677e-05
0.000598796
1.71051e-05
0.000595001
1.86008e-05
0.000590197
2.00543e-05
0.000584402
2.14673e-05
0.000577649
2.28429e-05
0.000569986
2.41849e-05
0.000561473
2.54984e-05
0.000552172
2.6787e-05
0.000542145
2.80521e-05
0.000531441
2.92949e-05
0.000520103
3.05128e-05
0.00050816
3.17032e-05
0.000495632
3.2862e-05
0.000482536
3.39852e-05
0.000468883
3.50688e-05
0.000454688
3.61086e-05
0.000439959
3.71001e-05
0.000424711
3.8038e-05
0.000408952
3.89165e-05
0.000392691
3.97292e-05
0.000375936
4.04685e-05
0.000358686
4.1126e-05
0.000340944
4.16933e-05
0.000322706
4.21613e-05
0.000303965
4.25219e-05
0.000284707
4.27703e-05
0.000264921
4.29087e-05
0.000244604
4.29496e-05
0.000223769
4.29166e-05
0.000202452
4.28427e-05
0.000180726
4.27666e-05
0.000158674
4.27217e-05
0.000136402
4.27345e-05
0.000114019
4.28146e-05
9.16184e-05
4.29545e-05
6.9269e-05
4.313e-05
4.70142e-05
4.33074e-05
2.48613e-05
4.34497e-05
2.80347e-06
4.3525e-05
-1.91742e-05
4.35134e-05
-4.10829e-05
4.3405e-05
-6.292e-05
4.32001e-05
-8.46749e-05
4.29111e-05
-0.000106327
4.25486e-05
-0.000127848
4.21233e-05
-0.000149221
4.16467e-05
-0.000170421
4.11246e-05
-0.000191439
4.05609e-05
-0.000212263
3.99591e-05
-0.00023288
3.93214e-05
-0.000253287
3.86526e-05
-0.00027347
3.79539e-05
-0.000293412
3.72247e-05
-0.000313105
3.64741e-05
-0.00033257
3.5722e-05
-0.000351764
3.49312e-05
-0.000370682
3.41292e-05
-0.000389318
3.33143e-05
-0.000407661
3.24849e-05
-0.000425696
3.16433e-05
-0.000443417
3.0788e-05
-0.000460815
2.9924e-05
-0.000477875
2.90492e-05
-0.000494584
2.81657e-05
-0.000510924
2.7269e-05
-0.000526885
2.63707e-05
-0.000542451
2.54644e-05
-0.0005576
2.455e-05
-0.000572314
2.36295e-05
-0.000586569
2.27029e-05
-0.000600341
2.17715e-05
-0.000613607
2.0837e-05
-0.000626343
1.99007e-05
-0.00063851
1.89581e-05
-0.000650074
1.80148e-05
-0.000660981
1.70721e-05
-0.000671192
1.61231e-05
-0.00068066
1.51809e-05
-0.000689328
1.424e-05
-0.000697143
1.33042e-05
-0.000704047
1.23738e-05
-0.000709985
1.14479e-05
-0.000714915
1.05332e-05
-0.000718811
9.62459e-06
-0.000721681
8.72729e-06
-0.000723577
7.83782e-06
-0.000724572
6.96624e-06
-0.000724725
6.11346e-06
-0.000724072
5.28852e-06
-0.000722608
4.50532e-06
-0.000720297
3.77893e-06
-0.000717103
3.10829e-06
-0.000712989
2.51355e-06
-0.000707928
2.00114e-06
-0.000701898
1.58513e-06
-0.000694887
1.28311e-06
-0.000686928
1.13738e-06
-0.000678023
1.12564e-06
-0.000668205
1.27811e-06
-0.000657552
1.60798e-06
-0.00064619
2.16295e-06
-0.000634262
2.91719e-06
-0.000621905
3.81482e-06
-0.000609297
4.85149e-06
-0.00059663
5.98454e-06
-0.000584095
7.15027e-06
-0.00057187
8.25908e-06
-0.00056012
9.21091e-06
-0.000548989
9.89281e-06
-0.000538568
1.01881e-05
-0.000528851
9.98377e-06
-0.000519673
9.13099e-06
-0.000510881
7.65049e-06
-0.000502375
5.63927e-06
-0.000494064
3.10022e-06
-0.000486037
2.17818e-07
-0.000477981
-3.34052e-06
-0.000469876
-6.99397e-06
-0.0004615
-1.04183e-05
-0.000452549
-1.34142e-05
-0.000442785
-1.5831e-05
-0.00043214
-1.7607e-05
-0.000420731
-1.88235e-05
-0.000408757
-1.97047e-05
-0.000396516
-2.04505e-05
-0.000384264
-2.12327e-05
-0.00037215
-2.21389e-05
-0.000360202
-2.3214e-05
-0.000348359
-2.4439e-05
-0.000336513
-2.57852e-05
-0.000324579
-2.71964e-05
-0.000312485
-2.86502e-05
-0.000300197
-3.0122e-05
-0.00028773
-3.15589e-05
-0.000275112
-3.2935e-05
-0.00026238
-3.42301e-05
-0.000249571
-3.54404e-05
-0.000236736
-3.6546e-05
-0.000223916
-3.75731e-05
-0.000211147
-3.85295e-05
-0.000198474
-3.94023e-05
-0.000185953
-4.01906e-05
-0.000173622
-4.09039e-05
-0.000161531
-4.15304e-05
-0.000149744
-4.20741e-05
-0.000138298
-4.25359e-05
-0.000127243
-4.29203e-05
-0.000116619
-4.32324e-05
-0.000106464
-4.34802e-05
-9.68106e-05
-4.36687e-05
-8.76647e-05
-4.38265e-05
-7.90373e-05
-4.39467e-05
-7.09356e-05
-4.40394e-05
-6.33485e-05
-4.41159e-05
-5.62669e-05
-4.41744e-05
-4.96625e-05
-4.42295e-05
-4.35106e-05
-4.4275e-05
-3.77772e-05
-4.43243e-05
-3.2415e-05
-4.43742e-05
-2.73494e-05
-4.44356e-05
-2.2505e-05
-4.44961e-05
-1.78294e-05
-4.46154e-05
-1.36374e-05
-4.45139e-05
-1.0082e-05
-4.51295e-05
-4.717e-06
-4.82456e-05
-4.21499e-05
-6.91644e-05
0.00020365
-0.000114816
0.000135827
-0.000161838
0.000140566
-0.000214234
0.000156039
-0.000269906
0.000164901
-0.000326442
0.000167067
-0.000382702
0.000166259
-0.000438455
0.000164938
-0.000493819
0.000163913
-0.000548908
0.00016313
-0.000603749
0.000162391
-0.000658334
0.000161604
-0.00071264
0.000160749
-0.00076665
0.000159841
-0.000820353
0.000158894
-0.00087374
0.000157912
-0.000926798
0.000156892
-0.000979511
0.000155833
-0.00103186
0.000154727
-0.00108384
0.00015357
-0.00113542
0.000152346
-0.00118656
0.000151053
-0.00123725
0.000149679
-0.00128743
0.000148208
-0.00133709
0.000146642
-0.00138616
0.000144965
-0.0014346
0.000143169
-0.00148238
0.00014125
-0.00152944
0.000139197
-0.00157572
0.000137007
-0.00162116
0.000134671
-0.00166574
0.000132198
-0.00170938
0.000129575
-0.00175204
0.000126809
-0.00179366
0.000123895
-0.0018342
0.000120835
-0.0018736
0.000117636
-0.00191182
0.000114297
-0.00194882
0.000110823
-0.00198456
0.000107222
-0.00201899
0.000103496
-0.00205207
9.96502e-05
-0.00208376
9.56956e-05
-0.00211404
9.16433e-05
-0.00214286
8.75012e-05
-0.00217021
8.32742e-05
-0.00219606
7.89699e-05
-0.0022204
7.45876e-05
-0.0022432
7.01343e-05
-0.00226445
6.56149e-05
-0.00228414
6.10327e-05
-0.00230225
5.6394e-05
-0.00231878
5.17124e-05
-0.00233371
4.69918e-05
-0.00234705
4.22385e-05
-0.00235879
3.74628e-05
-0.00236893
3.26759e-05
-0.00237749
2.78891e-05
-0.0023845
2.3114e-05
-0.00238997
1.83579e-05
-0.00239394
1.36209e-05
-0.00239643
8.90004e-06
-0.00239741
4.18702e-06
-0.00239685
-5.07768e-07
-0.00239488
-5.22881e-06
-0.00239138
-9.92684e-06
-0.00238635
-1.459e-05
-0.00237982
-1.92056e-05
-0.00237179
-2.37631e-05
-0.00236228
-2.82535e-05
-0.00235131
-3.2671e-05
-0.0023389
-3.70115e-05
-0.00232508
-4.12721e-05
-0.00230986
-4.54488e-05
-0.00229329
-4.95386e-05
-0.00227539
-5.35401e-05
-0.00225619
-5.7451e-05
-0.00223572
-6.12677e-05
-0.00221401
-6.49872e-05
-0.0021911
-6.86083e-05
-0.00216703
-7.21296e-05
-0.00214183
-7.55492e-05
-0.00211552
-7.88663e-05
-0.00208815
-8.20799e-05
-0.00205976
-8.5186e-05
-0.00203037
-8.81848e-05
-0.00200004
-9.10754e-05
-0.0019688
-9.3858e-05
-0.0019367
-9.65353e-05
-0.00190376
-9.91104e-05
-0.00187004
-0.00010158
-0.00183556
-0.000103944
-0.00180037
-0.000106199
-0.0017645
-0.00010834
-0.00172796
-0.000110359
-0.00169081
-0.000112252
-0.00165307
-0.000114013
-0.00161477
-0.000115641
-0.00157596
-0.000117135
-0.00153667
-0.000118503
-0.00149693
-0.000119748
-0.0014568
-0.000120876
-0.0014163
-0.000121891
-0.00137548
-0.000122795
-0.00133437
-0.000123592
-0.00129302
-0.000124284
-0.00125146
-0.000124873
-0.00120972
-0.00012536
-0.00116785
-0.000125746
-0.00112588
-0.000126033
-0.00108385
-0.00012622
-0.00104178
-0.000126309
-0.000999714
-0.000126298
-0.000957686
-0.000126192
-0.000915728
-0.000125991
-0.000873869
-0.000125697
-0.000832144
-0.00012531
-0.000790581
-0.000124831
-0.000749212
-0.000124263
-0.000708062
-0.000123608
-0.000667169
-0.000122866
-0.000626552
-0.000122039
-0.000586255
-0.000121127
-0.000546286
-0.000120137
-0.00050668
-0.000119065
-0.000467464
-0.000117912
-0.000428665
-0.000116682
-0.000390305
-0.000115377
-0.000352412
-0.000113998
-0.000315008
-0.000112547
-0.000278119
-0.000111022
-0.000241749
-0.000109439
-0.000205955
-0.00010776
-0.000170736
-0.000106037
-0.000136116
-0.000104245
-0.000102126
-0.000102383
-6.87777e-05
-0.000100466
-3.61055e-05
-9.84791e-05
-4.08236e-06
-9.64609e-05
2.72299e-05
-9.43665e-05
5.78169e-05
-9.22213e-05
8.76613e-05
-9.00258e-05
0.000116743
-8.77818e-05
0.000145043
-8.5491e-05
0.000172539
-8.31563e-05
0.000199211
-8.07803e-05
0.000225036
-7.83657e-05
0.000249992
-7.59147e-05
0.000274057
-7.34309e-05
0.000297216
-7.09198e-05
0.000319466
-6.83872e-05
0.000340817
-6.58329e-05
0.000361289
-6.32449e-05
0.000380901
-6.06006e-05
0.000399662
-5.78766e-05
0.000417565
-5.50628e-05
0.00043459
-5.21697e-05
0.000450714
-4.9225e-05
0.000465915
-4.62613e-05
0.000480185
-4.33034e-05
0.000493521
-4.03638e-05
0.00050593
-3.74434e-05
0.000517417
-3.45382e-05
0.00052799
-3.16433e-05
0.000537654
-2.87567e-05
0.000546416
-2.58788e-05
0.000554282
-2.30118e-05
0.000561256
-2.01591e-05
0.000567337
-1.73244e-05
0.000572516
-1.45103e-05
0.000576799
-1.17155e-05
0.000580208
-8.93821e-06
0.000582759
-6.18131e-06
0.000584481
-3.45623e-06
0.000585474
-7.96914e-07
0.000585615
1.83996e-06
0.000584908
4.48261e-06
0.000583392
7.06856e-06
0.00058109
9.60731e-06
0.000578016
1.21008e-05
0.000574185
1.45485e-05
0.000569606
1.69509e-05
0.00056429
1.93059e-05
0.000558245
2.16123e-05
0.000551477
2.38733e-05
0.000543989
2.60887e-05
0.000535788
2.82557e-05
0.000526881
3.03742e-05
0.000517282
3.24415e-05
0.000507011
3.44557e-05
0.000496095
3.64148e-05
0.000484565
3.83175e-05
0.000472454
4.01628e-05
0.000459798
4.19511e-05
0.000446628
4.36823e-05
0.000432975
4.53564e-05
0.000418864
4.69727e-05
0.000404319
4.85305e-05
0.000389362
5.00254e-05
0.000374014
5.14564e-05
0.000358296
5.28182e-05
0.000342225
5.41089e-05
0.000325819
5.53229e-05
0.000309091
5.64574e-05
0.000292052
5.75077e-05
0.000274708
5.84695e-05
0.000257063
5.93386e-05
0.000239114
6.01099e-05
0.000220855
6.07816e-05
0.000202272
6.13525e-05
0.000183354
6.18271e-05
0.000164087
6.22172e-05
0.000144463
6.25403e-05
0.000124485
6.28206e-05
0.000104168
6.30834e-05
8.35416e-05
6.33483e-05
6.26503e-05
6.36258e-05
4.15523e-05
6.39126e-05
2.03154e-05
6.41913e-05
-9.89928e-07
6.44354e-05
-2.22977e-05
6.46152e-05
-4.35543e-05
6.47063e-05
-6.47216e-05
6.46923e-05
-8.57757e-05
6.45675e-05
-0.000106707
6.43367e-05
-0.000127505
6.39978e-05
-0.00014818
6.35856e-05
-0.000168728
6.30965e-05
-0.000189145
6.2541e-05
-0.000209425
6.19264e-05
-0.000229558
6.12576e-05
-0.000249536
6.05385e-05
-0.000269349
5.97726e-05
-0.000288991
5.89634e-05
-0.000308454
5.81155e-05
-0.000327733
5.72328e-05
-0.000346818
5.631e-05
-0.000365709
5.53652e-05
-0.000384381
5.43933e-05
-0.000402843
5.33939e-05
-0.000421083
5.23692e-05
-0.000439091
5.13219e-05
-0.000456859
5.02528e-05
-0.000474378
4.91631e-05
-0.000491646
4.80551e-05
-0.000508649
4.69272e-05
-0.000525381
4.57811e-05
-0.000541832
4.46173e-05
-0.000558006
4.34423e-05
-0.000573882
4.22474e-05
-0.000589454
4.10362e-05
-0.000604714
3.98098e-05
-0.000619651
3.85669e-05
-0.000634256
3.73075e-05
-0.000648515
3.60307e-05
-0.000662419
3.47407e-05
-0.000675952
3.34338e-05
-0.000689103
3.21093e-05
-0.000701855
3.07666e-05
-0.000714192
2.94095e-05
-0.000726086
2.80167e-05
-0.000737519
2.6614e-05
-0.000748466
2.5187e-05
-0.000758896
2.37346e-05
-0.000768776
2.22539e-05
-0.00077808
2.07516e-05
-0.000786772
1.92253e-05
-0.00079483
1.76828e-05
-0.000802231
1.61275e-05
-0.000808976
1.45828e-05
-0.000815061
1.30512e-05
-0.000820486
1.1539e-05
-0.00082524
1.00428e-05
-0.000829293
8.5584e-06
-0.000832598
7.08327e-06
-0.00083511
5.62035e-06
-0.000836775
4.17847e-06
-0.000837538
2.76424e-06
-0.000837328
1.37544e-06
-0.000835963
-8.19316e-08
-0.000833508
-1.31813e-06
-0.000829878
-2.5037e-06
-0.000824969
-3.63087e-06
-0.000818697
-4.66411e-06
-0.000810944
-5.59004e-06
-0.000801632
-6.39452e-06
-0.00079076
-7.05805e-06
-0.000778312
-7.59612e-06
-0.000764353
-7.97475e-06
-0.000748986
-8.21643e-06
-0.000732369
-8.35758e-06
-0.000714711
-8.44717e-06
-0.000696271
-8.54699e-06
-0.000677354
-8.72907e-06
-0.000658289
-9.08168e-06
-0.000639467
-9.69069e-06
-0.000621181
-1.0636e-05
-0.000603552
-1.19892e-05
-0.000586648
-1.38043e-05
-0.000570346
-1.60838e-05
-0.000554892
-1.87945e-05
-0.000540162
-2.17244e-05
-0.000525889
-2.46906e-05
-0.000511771
-2.75328e-05
-0.000497487
-3.01144e-05
-0.000482761
-3.23331e-05
-0.00046752
-3.40643e-05
-0.000451842
-3.53833e-05
-0.000435876
-3.64165e-05
-0.000419826
-3.72824e-05
-0.000403807
-3.81577e-05
-0.000387876
-3.9145e-05
-0.000372022
-4.02931e-05
-0.000356204
-4.16036e-05
-0.000340373
-4.30273e-05
-0.000324524
-4.44991e-05
-0.000308689
-4.59571e-05
-0.000292894
-4.73537e-05
-0.000277156
-4.86728e-05
-0.000261493
-4.9894e-05
-0.000245922
-5.10108e-05
-0.000230445
-5.20227e-05
-0.000215095
-5.29236e-05
-0.000199925
-5.36991e-05
-0.000184965
-5.43622e-05
-0.000170254
-5.49023e-05
-0.000155853
-5.53043e-05
-0.000141807
-5.55767e-05
-0.000128182
-5.56988e-05
-0.000115015
-5.57038e-05
-0.000102381
-5.55537e-05
-9.0338e-05
-5.52755e-05
-7.89376e-05
-5.48807e-05
-6.82278e-05
-5.43785e-05
-5.8286e-05
-5.37684e-05
-4.91524e-05
-5.30802e-05
-4.08548e-05
-5.2337e-05
-3.34221e-05
-5.15486e-05
-2.68758e-05
-5.07207e-05
-2.12198e-05
-4.98856e-05
-1.6431e-05
-4.90639e-05
-1.24816e-05
-4.82736e-05
-9.32755e-06
-4.75283e-05
-6.90393e-06
-4.68592e-05
-5.10658e-06
-4.62934e-05
-3.9505e-06
-4.57715e-05
-3.35347e-06
-4.5111e-05
-2.79362e-06
-4.56893e-05
3.71915e-07
-5.14112e-05
-4.1778e-05
-6.88026e-05
0.000272453
-0.00011406
0.000181085
-0.000160386
0.000186892
-0.000211954
0.000207606
-0.000266786
0.000219733
-0.000322582
0.000222863
-0.000378154
0.000221831
-0.000433241
0.000220025
-0.000487912
0.000218584
-0.000542272
0.00021749
-0.000596353
0.000216472
-0.000650151
0.000215402
-0.000703657
0.000214255
-0.000756865
0.000213048
-0.000809768
0.000211797
-0.000862357
0.000210501
-0.000914637
0.000209173
-0.000966606
0.000207802
-0.00101824
0.000206366
-0.00106954
0.00020487
-0.00112049
0.000203291
-0.00117106
0.000201623
-0.00122122
0.000199842
-0.00127096
0.000197946
-0.00132023
0.000195908
-0.00136898
0.000193722
-0.00141719
0.000191377
-0.00146481
0.000188864
-0.00151177
0.000186164
-0.00155804
0.000183277
-0.00160357
0.000180198
-0.00164829
0.000176921
-0.00169216
0.000173444
-0.00173512
0.000169766
-0.00177711
0.00016589
-0.0018181
0.000161818
-0.00185801
0.000157554
-0.00189682
0.000153101
-0.00193446
0.000148467
-0.0019709
0.000143657
-0.00200608
0.00013868
-0.00203998
0.000133545
-0.00207255
0.000128265
-0.00210375
0.000122844
-0.00213354
0.000117292
-0.00216188
0.00011162
-0.00218875
0.000105834
-0.0022141
9.99394e-05
-0.00223791
9.39471e-05
-0.00226016
8.78643e-05
-0.00228083
8.17055e-05
-0.00229992
7.54781e-05
-0.00231739
6.91881e-05
-0.00233325
6.28504e-05
-0.00234749
5.64736e-05
-0.00236009
5.00687e-05
-0.00237106
4.3645e-05
-0.00238038
3.7212e-05
-0.00238805
3.07785e-05
-0.00239404
2.43534e-05
-0.00239837
1.79442e-05
-0.00240102
1.15547e-05
-0.00240202
5.18931e-06
-0.00240138
-1.15563e-06
-0.00239914
-7.46509e-06
-0.00239534
-1.37312e-05
-0.00238998
-1.99412e-05
-0.0023831
-2.60869e-05
-0.00237471
-3.2157e-05
-0.00236482
-3.8143e-05
-0.00235345
-4.40375e-05
-0.00234063
-4.98338e-05
-0.00232638
-5.55252e-05
-0.00231072
-6.11087e-05
-0.00229368
-6.658e-05
-0.00227528
-7.19328e-05
-0.00225557
-7.71623e-05
-0.00223457
-8.22678e-05
-0.00221231
-8.72453e-05
-0.00218883
-9.20897e-05
-0.00216416
-9.67998e-05
-0.00213834
-0.000101374
-0.0021114
-0.000105808
-0.00208338
-0.000110099
-0.00205432
-0.000114248
-0.00202425
-0.000118252
-0.00199321
-0.00012211
-0.00196125
-0.000125822
-0.0019284
-0.000129387
-0.00189471
-0.000132801
-0.00186022
-0.000136068
-0.00182498
-0.000139185
-0.00178903
-0.000142149
-0.00175241
-0.000144956
-0.00171517
-0.000147604
-0.00167733
-0.000150091
-0.00163893
-0.000152414
-0.00159999
-0.000154574
-0.00156056
-0.000156572
-0.00152065
-0.00015841
-0.00148031
-0.000160091
-0.00143957
-0.000161617
-0.00139846
-0.000162992
-0.00135704
-0.000164219
-0.00131533
-0.0001653
-0.00127338
-0.000166237
-0.00123122
-0.000167033
-0.00118889
-0.000167688
-0.00114643
-0.000168206
-0.00110388
-0.000168587
-0.00106126
-0.000168833
-0.00101863
-0.000168946
-0.000975996
-0.000168928
-0.00093341
-0.000168778
-0.000890899
-0.000168502
-0.000848498
-0.000168098
-0.000806238
-0.00016757
-0.00076415
-0.000166919
-0.000722265
-0.000166148
-0.000680615
-0.000165258
-0.000639229
-0.000164252
-0.000598139
-0.00016313
-0.000557366
-0.000161899
-0.000516952
-0.000160551
-0.000476917
-0.0001591
-0.000437287
-0.000157541
-0.00039809
-0.000155879
-0.000359359
-0.000154108
-0.000321114
-0.000152244
-0.00028338
-0.000150281