/*--------------------------------*- C++ -*----------------------------------*\
| =========                 |                                                 |
| \\      /  F ield         | OpenFOAM: The Open Source CFD Toolbox           |
|  \\    /   O peration     | Version:  v2006                                 |
|   \\  /    A nd           | Website:  www.openfoam.com                      |
|    \\/     M anipulation  |                                                 |
\*---------------------------------------------------------------------------*/
FoamFile
{
    version     2.0;
    format      ascii;
    class       surfaceScalarField;
    location    "2.5";
    object      phi;
}
// * * * * * * * * * * * * * * * * * * * * * * * * * * * * * * * * * * * * * //

dimensions      [0 3 -1 0 0 0 0];
oriented        oriented;


internalField   nonuniform List<scalar> 
104500
(
4.75612e-05
-4.75612e-05
9.60533e-05
-4.84921e-05
0.000144069
-4.8016e-05
0.000192057
-4.79875e-05
0.000240039
-4.79821e-05
0.00028801
-4.79711e-05
0.000335967
-4.79573e-05
0.000383908
-4.79412e-05
0.000431831
-4.79226e-05
0.000479733
-4.79017e-05
0.000527611
-4.78782e-05
0.000575463
-4.78519e-05
0.000623286
-4.78231e-05
0.000671078
-4.77917e-05
0.000718835
-4.77569e-05
0.000766554
-4.77198e-05
0.000814234
-4.76797e-05
0.000861871
-4.76364e-05
0.00090946
-4.75898e-05
0.000957
-4.75399e-05
0.00100449
-4.74864e-05
0.00105192
-4.74296e-05
0.00109929
-4.73693e-05
0.00114659
-4.73052e-05
0.00119383
-4.7237e-05
0.00124099
-4.71649e-05
0.00128808
-4.7088e-05
0.00133509
-4.70073e-05
0.00138201
-4.69223e-05
0.00142884
-4.68327e-05
0.00147558
-4.67382e-05
0.00152222
-4.66387e-05
0.00156875
-4.65339e-05
0.00161518
-4.64238e-05
0.00166149
-4.63083e-05
0.00170767
-4.61871e-05
0.00175373
-4.606e-05
0.00179966
-4.59271e-05
0.00184545
-4.57876e-05
0.00189109
-4.56418e-05
0.00193658
-4.54894e-05
0.00198191
-4.53301e-05
0.00202707
-4.5164e-05
0.00207206
-4.49905e-05
0.00211687
-4.48097e-05
0.00216149
-4.46214e-05
0.00220592
-4.44251e-05
0.00225014
-4.42208e-05
0.00229415
-4.40085e-05
0.00233794
-4.37874e-05
0.00238149
-4.35577e-05
0.00242481
-4.33191e-05
0.00246789
-4.30718e-05
0.0025107
-4.28154e-05
0.00255325
-4.25495e-05
0.00259552
-4.22743e-05
0.00263751
-4.19894e-05
0.00267921
-4.16943e-05
0.0027206
-4.13894e-05
0.00276167
-4.10743e-05
0.00280242
-4.07491e-05
0.00284283
-4.04132e-05
0.0028829
-4.00666e-05
0.00292261
-3.97095e-05
0.00296195
-3.93419e-05
0.00300092
-3.89633e-05
0.00303949
-3.85738e-05
0.00307766
-3.81736e-05
0.00311543
-3.77625e-05
0.00315277
-3.73404e-05
0.00318967
-3.69073e-05
0.00322614
-3.64634e-05
0.00326214
-3.60086e-05
0.00329769
-3.55431e-05
0.00333275
-3.5067e-05
0.00336734
-3.45803e-05
0.00340142
-3.40823e-05
0.00343499
-3.35722e-05
0.00346804
-3.30493e-05
0.00350055
-3.25128e-05
0.00353251
-3.19619e-05
0.00356391
-3.13958e-05
0.00359472
-3.08142e-05
0.00362494
-3.02171e-05
0.00365455
-2.96049e-05
0.00368352
-2.8978e-05
0.00371186
-2.83362e-05
0.00373954
-2.768e-05
0.00376655
-2.70099e-05
0.00379288
-2.63264e-05
0.00381851
-2.56296e-05
0.00384343
-2.49197e-05
0.00386762
-2.4197e-05
0.00389108
-2.34619e-05
0.0039138
-2.27148e-05
0.00393576
-2.19561e-05
0.00395694
-2.1186e-05
0.00397735
-2.04049e-05
0.00399696
-1.96132e-05
0.00401577
-1.88115e-05
0.00403377
-1.8e-05
0.00405095
-1.71791e-05
0.0040673
-1.63493e-05
0.00408281
-1.55113e-05
0.00409748
-1.46657e-05
0.00411129
-1.38124e-05
0.00412424
-1.29519e-05
0.00413633
-1.20851e-05
0.00414754
-1.12127e-05
0.00415787
-1.0335e-05
0.00416733
-9.45229e-06
0.00417589
-8.56523e-06
0.00418357
-7.67445e-06
0.00419035
-6.78048e-06
0.00419623
-5.88375e-06
0.00420121
-4.98461e-06
0.0042053
-4.08333e-06
0.00420848
-3.17973e-06
0.00421075
-2.27276e-06
0.00421211
-1.35943e-06
0.00421254
-4.32873e-07
0.00421203
5.16019e-07
0.00421054
1.48153e-06
0.00420809
2.45402e-06
0.00420466
3.42701e-06
0.00420027
4.39709e-06
0.0041949
5.36277e-06
0.00418858
6.32317e-06
0.0041813
7.27719e-06
0.00417308
8.22354e-06
0.00416392
9.16093e-06
0.00415383
1.00881e-05
0.00414283
1.1004e-05
0.00413092
1.19085e-05
0.00411812
1.28014e-05
0.00410443
1.36826e-05
0.00408988
1.45523e-05
0.00407447
1.54099e-05
0.00405822
1.62544e-05
0.00404113
1.70847e-05
0.00402323
1.79002e-05
0.00400453
1.87002e-05
0.00398505
1.94842e-05
0.0039648
2.02517e-05
0.00394379
2.10026e-05
0.00392206
2.17368e-05
0.0038996
2.24544e-05
0.00387645
2.31551e-05
0.00385261
2.38389e-05
0.0038281
2.4506e-05
0.00380295
2.51565e-05
0.00377716
2.57908e-05
0.00375075
2.64088e-05
0.00372374
2.70107e-05
0.00369614
2.75962e-05
0.00366798
2.81652e-05
0.00363926
2.87176e-05
0.00361
2.92533e-05
0.00358023
2.97723e-05
0.00354996
3.02748e-05
0.0035192
3.07605e-05
0.00348797
3.12296e-05
0.00345628
3.1682e-05
0.00342417
3.21178e-05
0.00339163
3.25371e-05
0.00335869
3.29399e-05
0.00332536
3.33263e-05
0.00329167
3.36961e-05
0.00325762
3.40496e-05
0.00322323
3.43869e-05
0.00318852
3.4708e-05
0.00315351
3.5013e-05
0.00311821
3.53017e-05
0.00308263
3.5574e-05
0.0030468
3.58298e-05
0.00301074
3.60686e-05
0.00297445
3.62904e-05
0.00293795
3.64946e-05
0.00290127
3.668e-05
0.00286443
3.68451e-05
0.00282744
3.69874e-05
0.00279034
3.71035e-05
0.00275314
3.71904e-05
0.0027159
3.72471e-05
0.00267863
3.72685e-05
0.00264141
3.72189e-05
0.00260437
3.70369e-05
0.00256777
3.66054e-05
0.00253201
3.57554e-05
0.00249759
3.44235e-05
0.00246483
3.276e-05
0.00243374
3.10904e-05
0.00240401
2.97295e-05
0.0023752
2.88058e-05
0.00234696
2.82403e-05
0.0023191
2.78637e-05
0.00229156
2.75389e-05
0.00226436
2.72023e-05
0.00223752
2.68405e-05
0.00221106
2.64534e-05
0.00218503
2.6037e-05
0.00215944
2.5583e-05
0.00213436
2.50856e-05
0.00210981
2.45456e-05
0.00208584
2.39712e-05
0.00206247
2.3373e-05
0.00203971
2.27592e-05
0.00201758
2.21339e-05
0.00199608
2.14988e-05
0.00197522
2.08547e-05
0.00195502
2.02029e-05
0.00193548
1.95437e-05
0.0019166
1.88797e-05
0.00189839
1.8208e-05
0.00188085
1.75419e-05
0.00186398
1.68664e-05
0.00184779
1.61913e-05
0.00183227
1.55194e-05
0.00181742
1.48482e-05
0.00180323
1.41866e-05
0.0017897
1.35307e-05
0.00177682
1.2882e-05
0.00176458
1.22433e-05
0.00175296
1.16182e-05
0.00174195
1.10093e-05
0.00173153
1.04172e-05
0.00172169
9.84493e-06
0.00171239
9.29399e-06
0.00170363
8.76418e-06
0.00169537
8.2615e-06
0.00168758
7.78665e-06
0.00168024
7.33961e-06
0.00167332
6.92424e-06
0.00166678
6.54254e-06
0.00166058
6.19432e-06
0.0016547
5.88282e-06
0.00164909
5.6092e-06
0.00164372
5.37418e-06
0.00163854
5.17925e-06
0.00163351
5.02553e-06
0.0016286
4.91395e-06
0.00162375
4.84521e-06
0.00161893
4.82017e-06
0.00161409
4.83905e-06
0.00160919
4.90225e-06
0.00160418
5.00998e-06
0.00159902
5.16258e-06
0.00159366
5.35906e-06
0.00158806
5.60022e-06
0.00158217
5.88376e-06
0.00157596
6.2104e-06
0.00156939
6.57799e-06
0.0015624
6.98739e-06
0.00155496
7.4355e-06
0.00154705
7.91812e-06
0.00153861
8.43992e-06
0.00152961
8.99812e-06
0.00152002
9.58562e-06
0.00150982
1.02026e-05
0.00149897
1.08459e-05
0.00148746
1.15147e-05
0.00147525
1.22048e-05
0.00146233
1.29203e-05
0.00144868
1.36565e-05
0.00143424
1.4435e-05
0.00141902
1.52219e-05
0.00140302
1.59968e-05
0.00138625
1.67719e-05
0.0013687
1.75523e-05
0.00135037
1.83336e-05
0.00133126
1.91099e-05
0.00131137
1.98808e-05
0.00129074
2.06357e-05
0.00126936
2.13823e-05
0.00124725
2.21101e-05
0.00122443
2.28165e-05
0.00120091
2.35206e-05
0.00117673
2.41777e-05
0.00115192
2.48086e-05
0.00112651
2.54144e-05
0.00110051
2.59954e-05
0.00107395
2.65616e-05
0.00104681
2.714e-05
0.00101915
2.76623e-05
0.000991104
2.8045e-05
0.000963052
2.80524e-05
0.000935624
2.74284e-05
0.000909531
2.60923e-05
0.000885235
2.42965e-05
0.000862645
2.25896e-05
0.000841284
2.13616e-05
0.000820688
2.0596e-05
0.000800508
2.01794e-05
0.000780596
1.9912e-05
0.000760832
1.97642e-05
0.00074114
1.96915e-05
0.00072146
1.96802e-05
0.000701808
1.96525e-05
0.000682143
1.96648e-05
0.00066246
1.96825e-05
0.000642744
1.97164e-05
0.000623074
1.967e-05
0.000603404
1.96702e-05
0.000583772
1.9632e-05
0.0005642
1.95724e-05
0.000544719
1.94807e-05
0.00052531
1.94086e-05
0.000506048
1.92625e-05
0.000486943
1.91049e-05
0.000468004
1.89388e-05
0.000449317
1.86869e-05
0.000430858
1.84589e-05
0.000412656
1.82029e-05
0.000394734
1.79219e-05
0.000377113
1.76206e-05
0.000359822
1.72912e-05
0.000342873
1.69492e-05
0.000326292
1.65806e-05
0.000310089
1.62032e-05
0.000294269
1.58198e-05
0.00027886
1.54087e-05
0.000263869
1.49917e-05
0.000249277
1.45921e-05
0.00023515
1.41269e-05
0.000221453
1.36968e-05
0.000208187
1.32655e-05
0.000195364
1.28234e-05
0.00018298
1.23841e-05
0.000171031
1.19486e-05
0.00015951
1.15207e-05
0.000148416
1.1095e-05
0.000137738
1.06774e-05
0.000127464
1.02741e-05
0.000117584
9.88032e-06
0.000108076
9.50795e-06
9.89408e-05
9.13491e-06
9.01489e-05
8.79189e-06
8.16944e-05
8.45457e-06
7.35542e-05
8.14012e-06
6.57085e-05
7.84571e-06
5.81424e-05
7.56613e-06
5.08384e-05
7.30405e-06
4.37511e-05
7.08726e-06
3.67847e-05
6.96644e-06
2.98069e-05
6.97772e-06
2.30185e-05
6.7884e-06
1.8012e-05
5.00657e-06
1.83936e-05
-3.81583e-07
2.28908e-05
-4.4972e-06
2.28908e-05
4.41954e-05
-9.17565e-05
8.9239e-05
-9.35357e-05
0.000133855
-9.26323e-05
0.00017845
-9.25825e-05
0.000223047
-9.25792e-05
0.000267644
-9.25673e-05
0.000312238
-9.25522e-05
0.000356832
-9.25351e-05
0.000401424
-9.25146e-05
0.000446014
-9.2491e-05
0.0004906
-9.24644e-05
0.000535183
-9.24346e-05
0.000579762
-9.24024e-05
0.000624337
-9.23664e-05
0.000668905
-9.23255e-05
0.000713466
-9.22808e-05
0.000758019
-9.22323e-05
0.000802562
-9.21795e-05
0.000847094
-9.2122e-05
0.000891614
-9.20595e-05
0.000936119
-9.1992e-05
0.000980608
-9.19186e-05
0.00102508
-9.1839e-05
0.00106953
-9.17531e-05
0.00111395
-9.16609e-05
0.00115835
-9.15623e-05
0.00120272
-9.14563e-05
0.00124705
-9.13426e-05
0.00129135
-9.12205e-05
0.00133561
-9.10899e-05
0.00137982
-9.09505e-05
0.00142398
-9.08025e-05
0.00146809
-9.06448e-05
0.00151215
-9.0477e-05
0.00155614
-9.02986e-05
0.00160006
-9.01093e-05
0.00164391
-8.99085e-05
0.00168768
-8.96955e-05
0.00173136
-8.94706e-05
0.00177495
-8.92331e-05
0.00181844
-8.89818e-05
0.00186183
-8.87171e-05
0.0019051
-8.84379e-05
0.00194826
-8.81441e-05
0.00199128
-8.78349e-05
0.00203417
-8.75095e-05
0.00207691
-8.71682e-05
0.0021195
-8.68099e-05
0.00216193
-8.64343e-05
0.00220418
-8.60408e-05
0.00224625
-8.56293e-05
0.00228813
-8.51987e-05
0.00232981
-8.47487e-05
0.00237127
-8.42787e-05
0.00241251
-8.37882e-05
0.00245351
-8.3277e-05
0.00249427
-8.27442e-05
0.00253476
-8.21895e-05
0.00257499
-8.16127e-05
0.00261493
-8.10132e-05
0.00265457
-8.03905e-05
0.0026939
-7.97437e-05
0.00273291
-7.90735e-05
0.00277157
-7.8379e-05
0.00280989
-7.76594e-05
0.00284784
-7.69146e-05
0.00288541
-7.61441e-05
0.00292259
-7.53479e-05
0.00295935
-7.45254e-05
0.00299569
-7.36766e-05
0.00303158
-7.2801e-05
0.00306702
-7.18987e-05
0.00310198
-7.09695e-05
0.00313645
-7.00128e-05
0.00317041
-6.90289e-05
0.00320385
-6.80179e-05
0.00323674
-6.69796e-05
0.00326909
-6.5914e-05
0.00330086
-6.48211e-05
0.00333205
-6.37008e-05
0.00336264
-6.2553e-05
0.00339262
-6.13777e-05
0.00342198
-6.01748e-05
0.00345071
-5.89444e-05
0.00347879
-5.76864e-05
0.00350621
-5.64006e-05
0.00353296
-5.50889e-05
0.00355903
-5.37508e-05
0.00358441
-5.2386e-05
0.00360908
-5.0995e-05
0.00363303
-4.95786e-05
0.00365625
-4.81375e-05
0.00367872
-4.66721e-05
0.00370044
-4.51829e-05
0.0037214
-4.36703e-05
0.00374158
-4.21352e-05
0.00376097
-4.05784e-05
0.00377956
-3.90005e-05
0.00379735
-3.74021e-05
0.00381433
-3.5784e-05
0.00383047
-3.41471e-05
0.00384579
-3.24927e-05
0.00386026
-3.08216e-05
0.00387388
-2.91342e-05
0.00388665
-2.74315e-05
0.00389855
-2.57148e-05
0.00390958
-2.39855e-05
0.00391974
-2.22441e-05
0.00392902
-2.04916e-05
0.00393742
-1.87293e-05
0.00394492
-1.69586e-05
0.00395154
-1.51804e-05
0.00395726
-1.33959e-05
0.00396208
-1.1606e-05
0.00396601
-9.81213e-06
0.00396904
-8.01534e-06
0.00397118
-6.21648e-06
0.00397241
-4.4167e-06
0.00397276
-2.61727e-06
0.00397222
-8.20406e-07
0.00397082
9.67578e-07
0.00396859
2.74235e-06
0.00396557
4.50624e-06
0.00396176
6.25959e-06
0.00395718
8.00601e-06
0.00395184
9.74422e-06
0.00394573
1.14724e-05
0.00393886
1.31888e-05
0.00393125
1.48918e-05
0.00392289
1.65802e-05
0.0039138
1.82528e-05
0.00390398
1.99085e-05
0.00389343
2.15459e-05
0.00388218
2.31638e-05
0.00387022
2.4761e-05
0.00385757
2.6336e-05
0.00384423
2.78877e-05
0.00383023
2.94152e-05
0.00381556
3.09176e-05
0.00380025
3.23941e-05
0.00378431
3.38436e-05
0.00376774
3.52651e-05
0.00375057
3.66575e-05
0.0037328
3.802e-05
0.00371445
3.93516e-05
0.00369554
4.06515e-05
0.00367608
4.19188e-05
0.00365608
4.31527e-05
0.00363556
4.43525e-05
0.00361455
4.55175e-05
0.00359306
4.66468e-05
0.00357111
4.77398e-05
0.00354873
4.87958e-05
0.00352592
4.98144e-05
0.00350272
5.0795e-05
0.00347915
5.17372e-05
0.00345523
5.26407e-05
0.00343098
5.35051e-05
0.00340642
5.43301e-05
0.00338158
5.51155e-05
0.00335648
5.5861e-05
0.00333114
5.65665e-05
0.00330559
5.72321e-05
0.00327985
5.78576e-05
0.00325394
5.84431e-05
0.0032279
5.89886e-05
0.00320173
5.94943e-05
0.00317546
5.99602e-05
0.00314913
6.03864e-05
0.00312274
6.07733e-05
0.00309633
6.11211e-05
0.00306991
6.14301e-05
0.00304351
6.17007e-05
0.00301715
6.19331e-05
0.00299085
6.21278e-05
0.00296464
6.2285e-05
0.00293852
6.24049e-05
0.00291253
6.24876e-05
0.00288668
6.25332e-05
0.00286098
6.25415e-05
0.00283546
6.25119e-05
0.00281012
6.24433e-05
0.00278497
6.23349e-05
0.00276003
6.21878e-05
0.00273529
6.20071e-05
0.00271071
6.18032e-05
0.00268616
6.1581e-05
0.00266148
6.12903e-05
0.00263636
6.08778e-05
0.00261047
6.03116e-05
0.00258363
5.96039e-05
0.0025559
5.88127e-05
0.00252762
5.80124e-05
0.00249917
5.72552e-05
0.00247086
5.65547e-05
0.00244283
5.58938e-05
0.00241512
5.52466e-05
0.00238773
5.45951e-05
0.00236063
5.39315e-05
0.00233384
5.32523e-05
0.00230732
5.25552e-05
0.00228106
5.18377e-05
0.00225505
5.10977e-05
0.00222926
5.03348e-05
0.00220368
4.95507e-05
0.00217831
4.87482e-05
0.00215314
4.79306e-05
0.00212817
4.71002e-05
0.00210341
4.62587e-05
0.00207886
4.54078e-05
0.00205451
4.45487e-05
0.00203037
4.36827e-05
0.00200644
4.28116e-05
0.00198271
4.19345e-05
0.00195919
4.10615e-05
0.00193588
4.01842e-05
0.00191276
3.93081e-05
0.00188984
3.8434e-05
0.00186713
3.75639e-05
0.00184462
3.66996e-05
0.0018223
3.58462e-05
0.00180018
3.50013e-05
0.00177826
3.41637e-05
0.00175654
3.33421e-05
0.00173501
3.25351e-05
0.00171368
3.17493e-05
0.00169255
3.09776e-05
0.00167162
3.02234e-05
0.00165089
2.94917e-05
0.00163036
2.87858e-05
0.00161005
2.81057e-05
0.00158993
2.74516e-05
0.00157003
2.68245e-05
0.00155035
2.62266e-05
0.00153088
2.56614e-05
0.00151164
2.51287e-05
0.00149262
2.46292e-05
0.00147383
2.41645e-05
0.00145527
2.37356e-05
0.00143695
2.33434e-05
0.00141888
2.29886e-05
0.00140105
2.2672e-05
0.00138348
2.23942e-05
0.00136616
2.21555e-05
0.00134911
2.19563e-05
0.00133232
2.17969e-05
0.0013158
2.16777e-05
0.00129956
2.1598e-05
0.00128361
2.15586e-05
0.00126793
2.15576e-05
0.00125255
2.1596e-05
0.00123745
2.16721e-05
0.00122265
2.17871e-05
0.00120815
2.19379e-05
0.00119395
2.21224e-05
0.00118004
2.23439e-05
0.00116644
2.2598e-05
0.00115314
2.28836e-05
0.00114015
2.3201e-05
0.00112745
2.35448e-05
0.00111504
2.39185e-05
0.00110294
2.43108e-05
0.00109113
2.47261e-05
0.00107962
2.51661e-05
0.00106843
2.56277e-05
0.00105754
2.61062e-05
0.00104696
2.65853e-05
0.00103665
2.70778e-05
0.00102662
2.75838e-05
0.00101684
2.81082e-05
0.00100732
2.86336e-05
0.000998038
2.91639e-05
0.000988979
2.96945e-05
0.000980138
3.02227e-05
0.000971503
3.07457e-05
0.000963046
3.12734e-05
0.000954806
3.176e-05
0.000946724
3.22606e-05
0.000938783
3.27492e-05
0.000930976
3.3221e-05
0.000923292
3.368e-05
0.000915727
3.41261e-05
0.000908321
3.45459e-05
0.000901029
3.49546e-05
0.000893741
3.53332e-05
0.00088612
3.56734e-05
0.000877584
3.59646e-05
0.000867456
3.62202e-05
0.000855291
3.64607e-05
0.000841164
3.67171e-05
0.000825515
3.70101e-05
0.0008088
3.73117e-05
0.000791381
3.75986e-05
0.000773393
3.78997e-05
0.000754991
3.81662e-05
0.000736273
3.84095e-05
0.000717317
3.86367e-05
0.000698165
3.88036e-05
0.000678889
3.89409e-05
0.000659542
3.90297e-05
0.000640148
3.91105e-05
0.000620707
3.9111e-05
0.000601303
3.90737e-05
0.000581937
3.89984e-05
0.000562639
3.88703e-05
0.000543411
3.87089e-05
0.00052437
3.84491e-05
0.000505449
3.8184e-05
0.000486652
3.79015e-05
0.000468075
3.75164e-05
0.000449665
3.70963e-05
0.00043149
3.66336e-05
0.000413572
3.61213e-05
0.00039591
3.55839e-05
0.000378541
3.49895e-05
0.000361469
3.43637e-05
0.000344736
3.36821e-05
0.000328339
3.29771e-05
0.000312295
3.22478e-05
0.000296621
3.14935e-05
0.000281318
3.0712e-05
0.000266411
2.9898e-05
0.00025194
2.90628e-05
0.000237857
2.82107e-05
0.000224181
2.73724e-05
0.000210926
2.65208e-05
0.000198106
2.56434e-05
0.000185708
2.47818e-05
0.00017373
2.39263e-05
0.000162155
2.30961e-05
0.000150997
2.22527e-05
0.000140243
2.14322e-05
0.000129882
2.0635e-05
0.000119899
1.98631e-05
0.000110287
1.91198e-05
0.000101033
1.83894e-05
9.21172e-05
1.77073e-05
8.35269e-05
1.70448e-05
7.52481e-05
1.64189e-05
6.72592e-05
1.58346e-05
5.95394e-05
1.52859e-05
5.20725e-05
1.4771e-05
4.48276e-05
1.43321e-05
3.76948e-05
1.40992e-05
3.05493e-05
1.41233e-05
2.35701e-05
1.37676e-05
1.84474e-05
1.01292e-05
1.87858e-05
-7.19992e-07
2.32563e-05
-8.96771e-06
4.61471e-05
4.54191e-05
-0.000137176
9.17398e-05
-0.000139856
0.000137598
-0.000138491
0.000183432
-0.000138416
0.000229267
-0.000138415
0.000275101
-0.000138401
0.000320931
-0.000138383
0.000366756
-0.000138359
0.000412576
-0.000138334
0.00045839
-0.000138306
0.000504198
-0.000138273
0.000549999
-0.000138235
0.000595789
-0.000138193
0.000641567
-0.000138144
0.000687334
-0.000138093
0.000733089
-0.000138036
0.000778828
-0.000137972
0.000824551
-0.000137902
0.000870254
-0.000137825
0.000915936
-0.000137741
0.000961593
-0.000137649
0.00100722
-0.000137549
0.00105283
-0.000137443
0.0010984
-0.000137327
0.00114394
-0.0001372
0.00118944
-0.000137063
0.0012349
-0.000136916
0.00128032
-0.000136758
0.00132568
-0.000136589
0.001371
-0.000136407
0.00141626
-0.000136213
0.00146146
-0.000136003
0.0015066
-0.00013578
0.00155166
-0.000135542
0.00159665
-0.000135288
0.00164156
-0.000135017
0.00168638
-0.00013473
0.00173111
-0.000134425
0.00177574
-0.000134101
0.00182027
-0.000133758
0.00186468
-0.000133394
0.00190897
-0.000133011
0.00195314
-0.000132606
0.00199717
-0.000132177
0.00204106
-0.000131726
0.00208481
-0.00013125
0.00212839
-0.000130751
0.00217181
-0.000130226
0.00221505
-0.000129675
0.0022581
-0.000129095
0.00230096
-0.000128489
0.00234361
-0.000127854
0.00238606
-0.000127189
0.00242827
-0.000126495
0.00247025
-0.000125769
0.00251199
-0.000125012
0.00255347
-0.000124223
0.00259468
-0.0001234
0.00263561
-0.000122544
0.00267625
-0.000121653
0.00271658
-0.000120726
0.0027566
-0.000119765
0.0027963
-0.000118766
0.00283565
-0.00011773
0.00287464
-0.000116656
0.00291327
-0.000115544
0.00295152
-0.000114394
0.00298938
-0.000113204
0.00302683
-0.000111974
0.00306385
-0.000110704
0.00310045
-0.000109393
0.00313659
-0.000108042
0.00317227
-0.000106648
0.00320747
-0.000105214
0.00324218
-0.000103737
0.00327638
-0.000102219
0.00331006
-0.000100658
0.0033432
-9.90549e-05
0.00337579
-9.74101e-05
0.00340781
-9.57236e-05
0.00343925
-9.39956e-05
0.0034701
-9.22264e-05
0.00350034
-9.04158e-05
0.00352996
-8.85644e-05
0.00355895
-8.66721e-05
0.00358729
-8.47397e-05
0.00361496
-8.27665e-05
0.00364197
-8.0753e-05
0.00366828
-7.87006e-05
0.0036939
-7.66098e-05
0.0037188
-7.4481e-05
0.00374298
-7.23147e-05
0.00376641
-7.01116e-05
0.0037891
-6.78728e-05
0.00381103
-6.55992e-05
0.00383219
-6.32917e-05
0.00385256
-6.09511e-05
0.00387214
-5.85789e-05
0.00389092
-5.61761e-05
0.00390888
-5.3744e-05
0.00392601
-5.12837e-05
0.00394232
-4.87963e-05
0.00395778
-4.62832e-05
0.00397239
-4.3746e-05
0.00398614
-4.11864e-05
0.00399903
-3.86056e-05
0.00401105
-3.60052e-05
0.0040222
-3.33868e-05
0.00403246
-3.07519e-05
0.00404183
-2.81024e-05
0.00405031
-2.54398e-05
0.0040579
-2.27658e-05
0.00406458
-2.00823e-05
0.00407037
-1.7391e-05
0.00407525
-1.46937e-05
0.00407923
-1.19921e-05
0.0040823
-9.28824e-06
0.00408447
-6.5841e-06
0.00408573
-3.88178e-06
0.00408609
-1.18318e-06
0.00408554
1.51954e-06
0.00408408
4.20163e-06
0.00408171
6.87716e-06
0.00407843
9.53699e-06
0.00407425
1.21851e-05
0.00406918
1.4821e-05
0.00406321
1.74372e-05
0.00405636
2.00372e-05
0.00404864
2.26153e-05
0.00404005
2.51708e-05
0.0040306
2.77016e-05
0.0040203
3.02051e-05
0.00400917
3.26808e-05
0.00399721
3.51265e-05
0.00398443
3.75403e-05
0.00397084
3.99205e-05
0.00395647
4.2265e-05
0.00394131
4.4572e-05
0.00392539
4.68401e-05
0.00390871
4.90678e-05
0.0038913
5.12536e-05
0.00387317
5.33957e-05
0.00385434
5.54927e-05
0.00383481
5.75431e-05
0.00381462
5.95454e-05
0.00379377
6.14982e-05
0.00377229
6.34004e-05
0.00375019
6.52505e-05
0.0037275
6.70474e-05
0.00370423
6.87898e-05
0.0036804
7.04764e-05
0.00365603
7.21062e-05
0.00363115
7.36783e-05
0.00360577
7.5192e-05
0.00357992
7.66463e-05
0.00355362
7.80406e-05
0.00352688
7.9374e-05
0.00349974
8.06458e-05
0.00347222
8.18556e-05
0.00344433
8.30028e-05
0.0034161
8.40871e-05
0.00338756
8.51083e-05
0.00335873
8.60657e-05
0.00332963
8.69592e-05
0.00330028
8.77887e-05
0.00327072
8.85541e-05
0.00324095
8.92555e-05
0.00321102
8.9893e-05
0.00318094
9.04667e-05
0.00315074
9.09768e-05
0.00312044
9.14235e-05
0.00309006
9.18072e-05
0.00305963
9.2128e-05
0.00302918
9.23862e-05
0.00299872
9.25822e-05
0.00296829
9.27163e-05
0.00293791
9.2789e-05
0.0029076
9.28004e-05
0.00287738
9.27506e-05
0.00284728
9.26398e-05
0.00281732
9.24679e-05
0.00278753
9.22347e-05
0.00275793
9.19387e-05
0.00272854
9.15765e-05
0.0026994
9.11426e-05
0.00267057
9.06345e-05
0.00264209
9.0061e-05
0.00261394
8.94481e-05
0.00258597
8.88382e-05
0.00255802
8.82653e-05
0.00252991
8.7717e-05
0.00250158
8.71362e-05
0.00247314
8.64593e-05
0.00244473
8.56578e-05
0.00241654
8.47487e-05
0.00238866
8.37722e-05
0.00236115
8.2762e-05
0.00233401
8.1733e-05
0.00230725
8.06869e-05
0.00228088
7.96221e-05
0.0022549
7.85391e-05
0.0022293
7.74404e-05
0.00220407
7.63283e-05
0.0021792
7.5204e-05
0.00215468
7.40681e-05
0.00213051
7.29206e-05
0.00210668
7.17608e-05
0.00208319
7.05897e-05
0.00206004
6.94093e-05
0.00203722
6.82224e-05
0.00201474
6.70307e-05
0.00199259
6.58363e-05
0.00197076
6.46411e-05
0.00194924
6.34471e-05
0.00192805
6.22567e-05
0.00190716
6.10731e-05
0.00188658
5.98936e-05
0.00186628
5.8726e-05
0.00184628
5.75669e-05
0.00182656
5.64152e-05
0.00180713
5.52826e-05
0.00178796
5.41674e-05
0.00176906
5.3064e-05
0.00175042
5.19808e-05
0.00173204
5.09165e-05
0.00171391
4.98787e-05
0.00169603
4.88586e-05
0.0016784
4.78582e-05
0.001661
4.68916e-05
0.00164384
4.59472e-05
0.00162691
4.50282e-05
0.00161022
4.41401e-05
0.00159377
4.32805e-05
0.00157754
4.24499e-05
0.00156155
4.16531e-05
0.00154579
4.08889e-05
0.00153026
4.01577e-05
0.00151497
3.9461e-05
0.0014999
3.87996e-05
0.00148507
3.81742e-05
0.00147048
3.75859e-05
0.00145611
3.70355e-05
0.00144198
3.65233e-05
0.00142809
3.60507e-05
0.00141443
3.56182e-05
0.001401
3.52265e-05
0.0013878
3.48758e-05
0.00137483
3.45676e-05
0.00136209
3.4302e-05
0.00134956
3.408e-05
0.00133726
3.39004e-05
0.00132516
3.3766e-05
0.00131328
3.36748e-05
0.00130159
3.36295e-05
0.00129008
3.36288e-05
0.00127875
3.3676e-05
0.00126758
3.37644e-05
0.00125656
3.38997e-05
0.00124568
3.40812e-05
0.00123492
3.43071e-05
0.00122426
3.45788e-05
0.00121368
3.48939e-05
0.00120315
3.52534e-05
0.00119266
3.56562e-05
0.00118219
3.61032e-05
0.0011717
3.65919e-05
0.00116116
3.71215e-05
0.00115055
3.76895e-05
0.00113984
3.82949e-05
0.00112902
3.89304e-05
0.00111805
3.96024e-05
0.00110691
4.03007e-05
0.00109558
4.10282e-05
0.00108402
4.17797e-05
0.00107222
4.25531e-05
0.00106012
4.33703e-05
0.00104771
4.4167e-05
0.00103499
4.49856e-05
0.00102192
4.58147e-05
0.0010085
4.66421e-05
0.000994716
4.74639e-05
0.000980577
4.82647e-05
0.000966084
4.90388e-05
0.000951271
4.97675e-05
0.000936129
5.0476e-05
0.000920592
5.12096e-05
0.000904535
5.20223e-05
0.000887796
5.2959e-05
0.000870342
5.39146e-05
0.00085226
5.47991e-05
0.000833722
5.55476e-05
0.000814923
5.61108e-05
0.000795911
5.66106e-05
0.000776777
5.7034e-05
0.000757486
5.74574e-05
0.000738095
5.78004e-05
0.000718657
5.80746e-05
0.000699117
5.83437e-05
0.000679509
5.85485e-05
0.000659841
5.86975e-05
0.000640208
5.87443e-05
0.000620533
5.87856e-05
0.000600868
5.87389e-05
0.000581233
5.86335e-05
0.000561652
5.84504e-05
0.000542179
5.81825e-05
0.00052278
5.78481e-05
0.000503484
5.74798e-05
0.000484428
5.69574e-05
0.000465535
5.64093e-05
0.000446841
5.57907e-05
0.000428375
5.50996e-05
0.000410165
5.43314e-05
0.000392245
5.35031e-05
0.000374631
5.26035e-05
0.00035734
5.16547e-05
0.000340389
5.06339e-05
0.000323796
4.95696e-05
0.000307564
4.84794e-05
0.000291772
4.72861e-05
0.00027638
4.61035e-05
0.000261407
4.48711e-05
0.000246844
4.36259e-05
0.000232705
4.23499e-05
0.000219004
4.10736e-05
0.00020577
3.97541e-05
0.000192964
3.84495e-05
0.000180611
3.71352e-05
0.000168689
3.5848e-05
0.000157224
3.45617e-05
0.000146192
3.32839e-05
0.00013557
3.20545e-05
0.000125365
3.08396e-05
0.000115569
2.96592e-05
0.000106123
2.85667e-05
9.70742e-05
2.74378e-05
8.8357e-05
2.64244e-05
8.00045e-05
2.53973e-05
7.19656e-05
2.44578e-05
6.42233e-05
2.35768e-05
5.6757e-05
2.27523e-05
4.95558e-05
2.19722e-05
4.25598e-05
2.13281e-05
3.57098e-05
2.09491e-05
2.88312e-05
2.10019e-05
2.21971e-05
2.04016e-05
1.74711e-05
1.48553e-05
1.83909e-05
-1.63979e-06
2.33224e-05
-1.38992e-05
6.94695e-05
4.57721e-05
-0.000182948
9.24614e-05
-0.000186546
0.000138683
-0.000184712
0.000184883
-0.000184616
0.000231085
-0.000184617
0.00027728
-0.000184595
0.000323468
-0.000184571
0.000369654
-0.000184545
0.00041583
-0.000184511
0.000461994
-0.00018447
0.000508146
-0.000184425
0.000554287
-0.000184375
0.000600415
-0.000184321
0.000646533
-0.000184262
0.000692632
-0.000184192
0.000738709
-0.000184113
0.00078477
-0.000184032
0.000830807
-0.000183939
0.000876818
-0.000183836
0.000922807
-0.000183731
0.000968768
-0.00018361
0.0010147
-0.00018348
0.00106059
-0.000183338
0.00110645
-0.00018318
0.00115226
-0.000183013
0.00119803
-0.000182837
0.00124376
-0.000182642
0.00128944
-0.000182435
0.00133506
-0.000182208
0.00138062
-0.000181967
0.00142611
-0.000181708
0.00147154
-0.000181434
0.0015169
-0.000181138
0.00156218
-0.000180822
0.00160738
-0.000180486
0.00165249
-0.000180128
0.00169751
-0.000179747
0.00174242
-0.000179341
0.00178723
-0.000178912
0.00183193
-0.000178457
0.00187651
-0.000177975
0.00192097
-0.000177465
0.00196529
-0.000176927
0.00200947
-0.00017636
0.00205351
-0.00017576
0.00209739
-0.000175129
0.0021411
-0.000174465
0.00218464
-0.000173767
0.002228
-0.000173034
0.00227117
-0.000172267
0.00231414
-0.00017146
0.00235691
-0.000170616
0.00239945
-0.000169732
0.00244176
-0.000168809
0.00248384
-0.000167845
0.00252566
-0.000166837
0.00256723
-0.000165787
0.00260852
-0.000164692
0.00264953
-0.000163552
0.00269024
-0.000162367
0.00273065
-0.000161134
0.00277074
-0.000159853
0.0028105
-0.000158524
0.00284991
-0.000157146
0.00288897
-0.000155717
0.00292767
-0.000154236
0.00296598
-0.000152705
0.00300389
-0.00015112
0.0030414
-0.000149483
0.00307849
-0.000147791
0.00311514
-0.000146046
0.00315135
-0.000144247
0.00318709
-0.000142392
0.00322236
-0.000140482
0.00325714
-0.000138515
0.00329141
-0.000136493
0.00332517
-0.000134415
0.00335839
-0.000132281
0.00339108
-0.00013009
0.0034232
-0.000127844
0.00345474
-0.000125541
0.0034857
-0.000123183
0.00351605
-0.000120769
0.00354578
-0.000118299
0.00357489
-0.000115775
0.00360334
-0.000113196
0.00363114
-0.000110564
0.00365827
-0.000107878
0.00368471
-0.00010514
0.00371045
-0.000102349
0.00373547
-9.95074e-05
0.00375977
-9.66157e-05
0.00378334
-9.3675e-05
0.00380615
-9.06863e-05
0.0038282
-8.76508e-05
0.00384948
-8.45698e-05
0.00386997
-8.14448e-05
0.00388967
-7.82771e-05
0.00390856
-7.50681e-05
0.00392664
-7.18195e-05
0.00394389
-6.85329e-05
0.0039603
-6.52104e-05
0.00397587
-6.18536e-05
0.00399059
-5.84645e-05
0.00400445
-5.50446e-05
0.00401744
-5.15961e-05
0.00402956
-4.81213e-05
0.00404079
-4.46223e-05
0.00405114
-4.11012e-05
0.0040606
-3.75601e-05
0.00406916
-3.40014e-05
0.00407682
-3.04275e-05
0.00408358
-2.68408e-05
0.00408943
-2.32435e-05
0.00409438
-1.96381e-05
0.00409841
-1.60272e-05
0.00410154
-1.2413e-05
0.00410375
-8.79764e-06
0.00410505
-5.1833e-06
0.00410544
-1.57182e-06
0.00410494
2.02445e-06
0.00410352
5.61691e-06
0.00410121
9.18992e-06
0.00409799
1.27533e-05
0.00409388
1.62963e-05
0.00408888
1.98172e-05
0.004083
2.33188e-05
0.00407625
2.67928e-05
0.00406862
3.02407e-05
0.00406013
3.36573e-05
0.00405079
3.70419e-05
0.00404061
4.03919e-05
0.00402958
4.37042e-05
0.00401773
4.69764e-05
0.00400507
5.02057e-05
0.0039916
5.33902e-05
0.00397734
5.65274e-05
0.00396229
5.96152e-05
0.00394648
6.26513e-05
0.00392992
6.56338e-05
0.00391261
6.85599e-05
0.00389458
7.14282e-05
0.00387583
7.42362e-05
0.00385639
7.69823e-05
0.00383628
7.96642e-05
0.00381549
8.22803e-05
0.00379407
8.48286e-05
0.00377201
8.73073e-05
0.00374934
8.97151e-05
0.00372608
9.20501e-05
0.00370225
9.4311e-05
0.00367786
9.64963e-05
0.00365293
9.86044e-05
0.00362749
0.000100634
0.00360155
0.000102584
0.00357514
0.000104453
0.00354827
0.000106241
0.00352097
0.000107947
0.00349326
0.000109569
0.00346515
0.000111107
0.00343668
0.000112561
0.00340786
0.000113928
0.00337871
0.000115211
0.00334926
0.000116407
0.00331954
0.000117518
0.00328955
0.000118542
0.00325932
0.000119479
0.00322889
0.00012033
0.00319826
0.000121094
0.00316747
0.000121772
0.00313653
0.000122363
0.00310546
0.000122869
0.0030743
0.000123291
0.00304306
0.000123627
0.00301176
0.000123879
0.00298043
0.000124049
0.00294909
0.000124135
0.00291775
0.000124139
0.00288644
0.000124061
0.00285517
0.000123903
0.00282398
0.000123664
0.00279287
0.000123347
0.00276185
0.00012295
0.00273095
0.000122476
0.00270017
0.000121924
0.00266951
0.000121295
0.00263898
0.000120592
0.00260861
0.000119823
0.00257845
0.000118998
0.00254859
0.000118125
0.0025191
0.000117204
0.00249001
0.000116226
0.00246129
0.000115177
0.0024329
0.000114053
0.00240479