/*--------------------------------*- C++ -*----------------------------------*\
| =========                 |                                                 |
| \\      /  F ield         | OpenFOAM: The Open Source CFD Toolbox           |
|  \\    /   O peration     | Version:  v2006                                 |
|   \\  /    A nd           | Website:  www.openfoam.com                      |
|    \\/     M anipulation  |                                                 |
\*---------------------------------------------------------------------------*/
FoamFile
{
    version     2.0;
    format      ascii;
    class       volVectorField;
    location    "2.5";
    object      U;
}
// * * * * * * * * * * * * * * * * * * * * * * * * * * * * * * * * * * * * * //

dimensions      [0 1 -1 0 0 0 0];


internalField   nonuniform List<vector> 
52500
(
(0.00254664 -0.00441564 0)
(0.00769082 -0.00451379 0)
(0.0128637 -0.00446498 0)
(0.0180066 -0.00446161 0)
(0.0231472 -0.00446078 0)
(0.0282875 -0.00445921 0)
(0.0334264 -0.00445724 0)
(0.0385637 -0.00445494 0)
(0.0436991 -0.00445226 0)
(0.0488324 -0.00444921 0)
(0.0539632 -0.0044458 0)
(0.0590915 -0.00444202 0)
(0.0642169 -0.00443793 0)
(0.0693388 -0.00443352 0)
(0.0744572 -0.0044286 0)
(0.0795721 -0.00442336 0)
(0.0846827 -0.00441779 0)
(0.0897888 -0.00441185 0)
(0.0948901 -0.00440555 0)
(0.0999862 -0.00439887 0)
(0.105077 -0.00439178 0)
(0.110161 -0.00438427 0)
(0.11524 -0.00437631 0)
(0.120312 -0.00436789 0)
(0.125376 -0.00435904 0)
(0.130433 -0.00434977 0)
(0.135483 -0.00433996 0)
(0.140524 -0.00432968 0)
(0.145556 -0.00431892 0)
(0.150578 -0.00430764 0)
(0.155591 -0.00429585 0)
(0.160593 -0.00428359 0)
(0.165585 -0.00427086 0)
(0.170564 -0.00425764 0)
(0.175532 -0.00424391 0)
(0.180487 -0.00422966 0)
(0.185429 -0.00421489 0)
(0.190357 -0.00419959 0)
(0.195271 -0.00418377 0)
(0.200169 -0.00416744 0)
(0.205051 -0.00415056 0)
(0.209916 -0.00413313 0)
(0.214764 -0.00411513 0)
(0.219594 -0.00409657 0)
(0.224405 -0.00407742 0)
(0.229196 -0.00405766 0)
(0.233967 -0.0040373 0)
(0.238716 -0.00401633 0)
(0.243443 -0.00399475 0)
(0.248146 -0.00397255 0)
(0.252826 -0.0039497 0)
(0.25748 -0.00392618 0)
(0.262108 -0.00390196 0)
(0.26671 -0.00387698 0)
(0.271283 -0.00385129 0)
(0.275827 -0.00382488 0)
(0.280342 -0.00379766 0)
(0.284825 -0.00376967 0)
(0.289276 -0.00374099 0)
(0.293694 -0.0037116 0)
(0.298078 -0.00368148 0)
(0.302426 -0.00365065 0)
(0.306738 -0.00361915 0)
(0.311012 -0.00358697 0)
(0.315247 -0.00355409 0)
(0.319442 -0.00352053 0)
(0.323596 -0.00348632 0)
(0.327708 -0.00345148 0)
(0.331777 -0.00341601 0)
(0.3358 -0.00337994 0)
(0.339778 -0.00334329 0)
(0.343709 -0.00330609 0)
(0.347592 -0.00326838 0)
(0.351425 -0.0032302 0)
(0.355208 -0.00319154 0)
(0.35894 -0.00315234 0)
(0.362619 -0.0031125 0)
(0.366243 -0.00307185 0)
(0.369813 -0.0030302 0)
(0.373325 -0.00298733 0)
(0.37678 -0.00294304 0)
(0.380175 -0.00289717 0)
(0.383508 -0.00284962 0)
(0.386778 -0.00280042 0)
(0.389983 -0.00274963 0)
(0.393122 -0.00269732 0)
(0.396193 -0.0026436 0)
(0.399194 -0.00258853 0)
(0.402124 -0.00253209 0)
(0.404982 -0.00247428 0)
(0.407766 -0.00241518 0)
(0.410474 -0.00235486 0)
(0.413106 -0.00229335 0)
(0.41566 -0.00223068 0)
(0.418134 -0.00216686 0)
(0.420527 -0.00210194 0)
(0.422839 -0.00203595 0)
(0.425067 -0.00196892 0)
(0.427212 -0.00190086 0)
(0.42927 -0.00183182 0)
(0.431243 -0.00176184 0)
(0.433128 -0.00169096 0)
(0.434924 -0.00161923 0)
(0.436632 -0.00154667 0)
(0.438248 -0.0014733 0)
(0.439774 -0.00139916 0)
(0.441209 -0.0013243 0)
(0.44255 -0.00124876 0)
(0.443799 -0.00117259 0)
(0.444953 -0.00109588 0)
(0.446013 -0.00101864 0)
(0.446979 -0.000940893 0)
(0.447849 -0.000862707 0)
(0.448624 -0.000784141 0)
(0.449302 -0.000705225 0)
(0.449885 -0.00062599 0)
(0.450371 -0.000546465 0)
(0.45076 -0.000466643 0)
(0.451052 -0.000386433 0)
(0.451247 -0.00030556 0)
(0.451344 -0.000223333 0)
(0.451341 -0.00013848 0)
(0.451235 -5.05553e-05 0)
(0.451024 3.96733e-05 0)
(0.450709 0.00013151 0)
(0.450289 0.000224345 0)
(0.449767 0.000317823 0)
(0.449141 0.000411748 0)
(0.448412 0.000505887 0)
(0.447581 0.000599977 0)
(0.44665 0.000693766 0)
(0.445619 0.000787011 0)
(0.444489 0.000879526 0)
(0.443261 0.000971218 0)
(0.441937 0.00106209 0)
(0.440518 0.00115224 0)
(0.439006 0.00124176 0)
(0.4374 0.00133061 0)
(0.435704 0.00141859 0)
(0.433918 0.00150551 0)
(0.432043 0.00159123 0)
(0.430082 0.0016757 0)
(0.428036 0.00175885 0)
(0.425907 0.00184063 0)
(0.423697 0.00192105 0)
(0.421407 0.00200014 0)
(0.419039 0.00207796 0)
(0.416596 0.00215454 0)
(0.414078 0.00222991 0)
(0.411488 0.00230418 0)
(0.408827 0.00237746 0)
(0.406098 0.00244989 0)
(0.403301 0.00252151 0)
(0.400439 0.00259235 0)
(0.397513 0.00266241 0)
(0.394526 0.0027317 0)
(0.391478 0.00280023 0)
(0.388372 0.00286804 0)
(0.38521 0.00293516 0)
(0.381993 0.00300159 0)
(0.378723 0.00306732 0)
(0.375402 0.00313237 0)
(0.372031 0.00319674 0)
(0.368613 0.00326048 0)
(0.365149 0.0033236 0)
(0.361641 0.00338611 0)
(0.358091 0.00344798 0)
(0.3545 0.00350919 0)
(0.35087 0.00356974 0)
(0.347204 0.00362964 0)
(0.343502 0.00368887 0)
(0.339767 0.00374738 0)
(0.336 0.00380516 0)
(0.332203 0.00386217 0)
(0.328377 0.00391829 0)
(0.324525 0.00397341 0)
(0.320648 0.00402741 0)
(0.316749 0.00408014 0)
(0.312829 0.00413132 0)
(0.308889 0.00418055 0)
(0.304934 0.0042273 0)
(0.300964 0.00427079 0)
(0.296984 0.00431042 0)
(0.292995 0.00434646 0)
(0.289003 0.00437952 0)
(0.285009 0.00440643 0)
(0.281025 0.00441111 0)
(0.277069 0.00435862 0)
(0.27318 0.0042067 0)
(0.26941 0.00393659 0)
(0.265809 0.00358034 0)
(0.262395 0.0032134 0)
(0.259148 0.00291173 0)
(0.256023 0.0027099 0)
(0.252973 0.00259463 0)
(0.24997 0.00253007 0)
(0.247002 0.00248546 0)
(0.244069 0.00244544 0)
(0.241174 0.00240555 0)
(0.238318 0.00236456 0)
(0.235506 0.00232051 0)
(0.232739 0.00227073 0)
(0.230024 0.00221331 0)
(0.227365 0.00214808 0)
(0.224765 0.00207652 0)
(0.222228 0.00200072 0)
(0.219757 0.0019223 0)
(0.217352 0.00184211 0)
(0.215015 0.00176035 0)
(0.212745 0.00167702 0)
(0.210546 0.00159228 0)
(0.208417 0.00150619 0)
(0.206358 0.00141916 0)
(0.20437 0.00133061 0)
(0.202452 0.00124297 0)
(0.200609 0.00115356 0)
(0.198837 0.0010635 0)
(0.19714 0.000973792 0)
(0.195513 0.000883809 0)
(0.193954 0.000795215 0)
(0.19247 0.00070671 0)
(0.191057 0.000618935 0)
(0.189712 0.000532816 0)
(0.188434 0.000448469 0)
(0.187221 0.00036653 0)
(0.186072 0.00028633 0)
(0.184989 0.000209408 0)
(0.183964 0.000135831 0)
(0.182996 6.57175e-05 0)
(0.182084 -4.47862e-07 0)
(0.181225 -6.26844e-05 0)
(0.180414 -0.000120731 0)
(0.179651 -0.000173607 0)
(0.17893 -0.000220957 0)
(0.178247 -0.000263296 0)
(0.177599 -0.000299932 0)
(0.176984 -0.000330488 0)
(0.176396 -0.000354861 0)
(0.17583 -0.000372796 0)
(0.175284 -0.000384088 0)
(0.174752 -0.000388574 0)
(0.174229 -0.000386123 0)
(0.173711 -0.000376582 0)
(0.173194 -0.000359891 0)
(0.172672 -0.000335978 0)
(0.172141 -0.000304789 0)
(0.171597 -0.000266348 0)
(0.171033 -0.000220709 0)
(0.170446 -0.000167886 0)
(0.169832 -0.000108057 0)
(0.169184 -4.13229e-05 0)
(0.168499 3.21141e-05 0)
(0.167773 0.00011215 0)
(0.167001 0.00019856 0)
(0.166179 0.000290492 0)
(0.165302 0.000388525 0)
(0.164367 0.000492437 0)
(0.163372 0.000600912 0)
(0.162312 0.000713632 0)
(0.161184 0.000830237 0)
(0.159987 0.000950083 0)
(0.158716 0.00107266 0)
(0.157371 0.00119795 0)
(0.155947 0.00132414 0)
(0.154441 0.00145238 0)
(0.152852 0.00158364 0)
(0.151179 0.00171761 0)
(0.149423 0.00185388 0)
(0.147583 0.00199319 0)
(0.14566 0.00213472 0)
(0.143654 0.00227768 0)
(0.141566 0.00242165 0)
(0.139395 0.00256487 0)
(0.137141 0.00270826 0)
(0.134811 0.00285031 0)
(0.132403 0.00298995 0)
(0.12992 0.00313166 0)
(0.127363 0.00326671 0)
(0.124738 0.0033977 0)
(0.122046 0.00352525 0)
(0.119291 0.0036488 0)
(0.116475 0.00376949 0)
(0.113599 0.00389252 0)
(0.110663 0.00400364 0)
(0.10767 0.00408028 0)
(0.10465 0.00406753 0)
(0.10166 0.00390254 0)
(0.0987801 0.00356105 0)
(0.0960729 0.00310036 0)
(0.0935613 0.00265214 0)
(0.0912299 0.00231657 0)
(0.0889974 0.00209715 0)
(0.0868114 0.00196235 0)
(0.0846696 0.00187033 0)
(0.0825474 0.00181211 0)
(0.080433 0.00177665 0)
(0.0783325 0.00175759 0)
(0.0762272 0.00174386 0)
(0.0741135 0.00173917 0)
(0.0720047 0.00173872 0)
(0.0699034 0.0017423 0)
(0.0677931 0.00174004 0)
(0.0656763 0.00174344 0)
(0.0635714 0.00174394 0)
(0.0614705 0.00174263 0)
(0.0593776 0.00173827 0)
(0.0572952 0.00173542 0)
(0.055223 0.00172492 0)
(0.0531655 0.00171351 0)
(0.0511358 0.00169966 0)
(0.0491198 0.00167881 0)
(0.0471209 0.00165875 0)
(0.0451568 0.00163542 0)
(0.0432216 0.00160953 0)
(0.0413176 0.00158099 0)
(0.0394475 0.00155041 0)
(0.0376132 0.00151736 0)
(0.0358168 0.00148296 0)
(0.0340606 0.00144693 0)
(0.0323452 0.00140933 0)
(0.0306725 0.0013709 0)
(0.0290446 0.0013311 0)
(0.0274667 0.00129268 0)
(0.0259284 0.00124843 0)
(0.0244318 0.00120755 0)
(0.0229882 0.00116596 0)
(0.0215921 0.0011248 0)
(0.0202427 0.00108286 0)
(0.0189391 0.00104178 0)
(0.0176828 0.00100161 0)
(0.0164726 0.000961741 0)
(0.015307 0.000922419 0)
(0.0141857 0.00088434 0)
(0.0131073 0.000847073 0)
(0.0120696 0.000810906 0)
(0.0110723 0.000776446 0)
(0.0101133 0.000743112 0)
(0.00919075 0.000711726 0)
(0.00830325 0.000681685 0)
(0.00744839 0.000653458 0)
(0.00662444 0.000626894 0)
(0.00582937 0.000602068 0)
(0.00506021 0.000580756 0)
(0.0043119 0.000568322 0)
(0.0035791 0.00056768 0)
(0.00275676 0.000549873 0)
(0.00223804 0.000392935 0)
(0.00154625 -8.2362e-05 0)
(0.00249843 -0.000445353 0)
(0.00229997 0.00196055 0)
(0.00236769 -0.0122265 0)
(0.00714501 -0.0124575 0)
(0.0119514 -0.0123391 0)
(0.0167302 -0.0123322 0)
(0.0215078 -0.0123312 0)
(0.0262859 -0.0123289 0)
(0.0310637 -0.0123261 0)
(0.0358415 -0.0123228 0)
(0.0406191 -0.0123191 0)
(0.0453965 -0.012315 0)
(0.0501735 -0.0123103 0)
(0.0549502 -0.012305 0)
(0.0597265 -0.0122991 0)
(0.0645024 -0.0122926 0)
(0.0692777 -0.0122855 0)
(0.0740524 -0.0122778 0)
(0.0788261 -0.0122695 0)
(0.0835989 -0.0122604 0)
(0.0883706 -0.0122506 0)
(0.0931411 -0.0122399 0)
(0.0979101 -0.0122285 0)
(0.102678 -0.0122162 0)
(0.107443 -0.0122032 0)
(0.112206 -0.0121894 0)
(0.116967 -0.0121745 0)
(0.121725 -0.0121587 0)
(0.126481 -0.0121418 0)
(0.131233 -0.0121239 0)
(0.135981 -0.0121051 0)
(0.140725 -0.0120851 0)
(0.145464 -0.0120639 0)
(0.150199 -0.0120414 0)
(0.154928 -0.0120176 0)
(0.159651 -0.0119924 0)
(0.164367 -0.0119658 0)
(0.169077 -0.0119378 0)
(0.173779 -0.0119082 0)
(0.178473 -0.0118771 0)
(0.183158 -0.0118444 0)
(0.187833 -0.0118099 0)
(0.192499 -0.0117736 0)
(0.197153 -0.0117355 0)
(0.201796 -0.0116956 0)
(0.206426 -0.0116537 0)
(0.211043 -0.0116098 0)
(0.215645 -0.0115639 0)
(0.220233 -0.0115159 0)
(0.224805 -0.0114657 0)
(0.229359 -0.0114132 0)
(0.233896 -0.0113585 0)
(0.238413 -0.0113014 0)
(0.242911 -0.0112418 0)
(0.247388 -0.0111799 0)
(0.251842 -0.0111153 0)
(0.256273 -0.0110482 0)
(0.260679 -0.0109786 0)
(0.265059 -0.0109062 0)
(0.269412 -0.0108309 0)
(0.273736 -0.0107529 0)
(0.278031 -0.0106721 0)
(0.282295 -0.0105883 0)
(0.286526 -0.0105015 0)
(0.290723 -0.0104115 0)
(0.294884 -0.0103187 0)
(0.299009 -0.0102228 0)
(0.303095 -0.0101237 0)
(0.307142 -0.0100214 0)
(0.311146 -0.00991597 0)
(0.315108 -0.00980734 0)
(0.319024 -0.00969548 0)
(0.322894 -0.00958036 0)
(0.326716 -0.00946196 0)
(0.330487 -0.00934027 0)
(0.334207 -0.00921534 0)
(0.337874 -0.0090872 0)
(0.341485 -0.00895579 0)
(0.345039 -0.00882104 0)
(0.348535 -0.00868288 0)
(0.35197 -0.00854124 0)
(0.355343 -0.00839604 0)
(0.358653 -0.00824719 0)
(0.361898 -0.00809459 0)
(0.365078 -0.00793821 0)
(0.36819 -0.00777804 0)
(0.371234 -0.00761413 0)
(0.374208 -0.0074465 0)
(0.37711 -0.00727516 0)
(0.379941 -0.00710021 0)
(0.382697 -0.00692175 0)
(0.385379 -0.00673984 0)
(0.387983 -0.00655454 0)
(0.390511 -0.00636589 0)
(0.392959 -0.00617398 0)
(0.395327 -0.0059789 0)
(0.397614 -0.00578071 0)
(0.399818 -0.00557953 0)
(0.401938 -0.00537544 0)
(0.403973 -0.00516857 0)
(0.405923 -0.00495901 0)
(0.407785 -0.00474687 0)
(0.40956 -0.00453226 0)
(0.411246 -0.00431527 0)
(0.412842 -0.00409603 0)
(0.414347 -0.00387472 0)
(0.415761 -0.00365145 0)
(0.417083 -0.00342635 0)
(0.418312 -0.00319952 0)
(0.419448 -0.00297111 0)
(0.420489 -0.00274129 0)
(0.421436 -0.00251021 0)
(0.422288 -0.00227798 0)
(0.423045 -0.00204476 0)
(0.423706 -0.00181069 0)
(0.424272 -0.00157594 0)
(0.424741 -0.00134065 0)
(0.425114 -0.00110494 0)
(0.42539 -0.000868947 0)
(0.425571 -0.000632762 0)
(0.425656 -0.000396401 0)
(0.425646 -0.000159739 0)
(0.425541 7.76e-05 0)
(0.425345 0.000315949 0)
(0.425064 0.000555452 0)
(0.424698 0.000795393 0)
(0.424249 0.0010351 0)
(0.423717 0.00127399 0)
(0.423103 0.0015116 0)
(0.422408 0.00174761 0)
(0.421632 0.00198179 0)
(0.420777 0.00221387 0)
(0.419842 0.00244358 0)
(0.418829 0.00267068 0)
(0.417738 0.00289499 0)
(0.41657 0.00311644 0)
(0.415327 0.00333493 0)
(0.414008 0.00355034 0)
(0.412616 0.00376257 0)
(0.411151 0.00397148 0)
(0.409615 0.00417692 0)
(0.408009 0.00437875 0)
(0.406335 0.00457679 0)
(0.404593 0.00477089 0)
(0.402785 0.00496092 0)
(0.400913 0.00514676 0)
(0.398978 0.00532835 0)
(0.396982 0.00550559 0)
(0.394926 0.00567843 0)
(0.392811 0.00584678 0)
(0.390641 0.00601056 0)
(0.388416 0.00616973 0)
(0.386139 0.00632421 0)
(0.383811 0.00647398 0)
(0.381436 0.006619 0)
(0.379014 0.00675922 0)
(0.376549 0.00689462 0)
(0.374043 0.00702513 0)
(0.371499 0.00715069 0)
(0.368917 0.00727125 0)
(0.366302 0.00738678 0)
(0.363655 0.00749728 0)
(0.360979 0.00760275 0)
(0.358277 0.00770315 0)
(0.35555 0.00779849 0)
(0.352802 0.00788877 0)
(0.350035 0.00797399 0)
(0.347251 0.00805417 0)
(0.344454 0.00812933 0)
(0.341644 0.0081995 0)
(0.338826 0.00826471 0)
(0.336001 0.008325 0)
(0.333172 0.00838044 0)
(0.330341 0.00843105 0)
(0.327511 0.00847685 0)
(0.324685 0.00851789 0)
(0.321863 0.00855417 0)
(0.31905 0.00858575 0)
(0.316246 0.00861269 0)
(0.313454 0.00863502 0)
(0.310676 0.00865269 0)
(0.307914 0.0086656 0)
(0.30517 0.00867356 0)
(0.302445 0.00867632 0)
(0.29974 0.00867384 0)
(0.297057 0.00866662 0)
(0.294396 0.00865529 0)
(0.291756 0.00863805 0)
(0.289129 0.00860607 0)
(0.286501 0.0085416 0)
(0.283841 0.00842408 0)
(0.281115 0.00824573 0)
(0.27829 0.00802476 0)
(0.27536 0.00780066 0)
(0.272349 0.0076117 0)
(0.269302 0.00747358 0)
(0.266256 0.00737667 0)
(0.263236 0.00730006 0)
(0.26025 0.00722645 0)
(0.257298 0.00714775 0)
(0.25438 0.00706242 0)
(0.251493 0.00697094 0)
(0.248638 0.00687333 0)
(0.245811 0.00676886 0)
(0.243012 0.00665693 0)
(0.240238 0.0065377 0)
(0.237486 0.00641238 0)
(0.234756 0.00628254 0)
(0.232049 0.00614944 0)
(0.229363 0.0060138 0)
(0.226699 0.00587598 0)
(0.224058 0.00573631 0)
(0.221438 0.00559498 0)
(0.218841 0.00545213 0)
(0.216266 0.00530827 0)
(0.213713 0.00516285 0)
(0.211181 0.00501835 0)
(0.208669 0.0048722 0)
(0.206182 0.00472633 0)
(0.203717 0.00458081 0)
(0.201273 0.00443559 0)
(0.198848 0.0042922 0)
(0.196445 0.00415048 0)
(0.194067 0.00401017 0)
(0.191708 0.00387151 0)
(0.189369 0.00373568 0)
(0.18705 0.00360293 0)
(0.184752 0.00347403 0)
(0.18248 0.00334856 0)
(0.180227 0.00322718 0)
(0.177994 0.00310969 0)
(0.175784 0.00299766 0)
(0.173594 0.00289134 0)
(0.171428 0.00279042 0)
(0.169285 0.0026954 0)
(0.167163 0.00260672 0)
(0.165064 0.00252478 0)
(0.162989 0.00244996 0)
(0.160938 0.00238241 0)
(0.158911 0.0023223 0)
(0.156909 0.00226991 0)
(0.154933 0.00222542 0)
(0.152982 0.00218902 0)
(0.151058 0.00216083 0)
(0.14916 0.00214099 0)
(0.14729 0.00212951 0)
(0.145447 0.00212645 0)
(0.143633 0.0021318 0)
(0.141848 0.00214568 0)
(0.140092 0.00216776 0)
(0.138367 0.0021983 0)
(0.136671 0.00223664 0)
(0.135006 0.00228309 0)
(0.133372 0.00233706 0)
(0.13177 0.00239893 0)
(0.130199 0.00246779 0)
(0.12866 0.00254294 0)
(0.127155 0.00262535 0)
(0.125681 0.00271435 0)
(0.124238 0.00280874 0)
(0.122829 0.00290868 0)
(0.121452 0.00301326 0)
(0.120108 0.00312276 0)
(0.118795 0.00323549 0)
(0.117512 0.00335224 0)
(0.116261 0.00347193 0)
(0.115046 0.00359498 0)
(0.113863 0.00372124 0)
(0.112711 0.00384885 0)
(0.111591 0.00397743 0)
(0.110502 0.00410514 0)
(0.109441 0.00423196 0)
(0.108406 0.00435593 0)
(0.107399 0.00447749 0)
(0.106416 0.00459502 0)
(0.105457 0.00470938 0)
(0.10452 0.00481919 0)
(0.103613 0.00492428 0)
(0.10272 0.00502391 0)
(0.101836 0.00511803 0)
(0.100978 0.00520664 0)
(0.100135 0.00528986 0)
(0.0993044 0.00536896 0)
(0.0984928 0.00544615 0)
(0.0976911 0.00552339 0)
(0.0968987 0.00559661 0)
(0.0961228 0.00565525 0)
(0.0953367 0.00567351 0)
(0.0944889 0.00562435 0)
(0.0935029 0.00550271 0)
(0.0923144 0.0053402 0)
(0.0909027 0.00519547 0)
(0.0892947 0.00510644 0)
(0.0875529 0.005066 0)
(0.0857173 0.00505723 0)
(0.0838141 0.00506217 0)
(0.0818615 0.00507295 0)
(0.0798693 0.00508774 0)
(0.0778506 0.00510662 0)
(0.075806 0.00511719 0)
(0.0737456 0.00512862 0)
(0.0716787 0.00513662 0)
(0.0696024 0.00514542 0)
(0.06752 0.00513961 0)
(0.0654387 0.00513443 0)
(0.0633599 0.00512362 0)
(0.0612879 0.00510596 0)
(0.0592322 0.00508262 0)
(0.0571818 0.00505255 0)
(0.0551386 0.00501496 0)
(0.0531196 0.0049764 0)
(0.0511182 0.00492713 0)
(0.0491351 0.00486763 0)
(0.047174 0.00480709 0)
(0.0452403 0.0047408 0)
(0.0433343 0.00466978 0)
(0.0414577 0.00459144 0)
(0.0396126 0.00450807 0)
(0.0378015 0.00441991 0)
(0.0360268 0.00432744 0)
(0.0342889 0.00423092 0)
(0.03259 0.00413263 0)
(0.0309312 0.00402937 0)
(0.0293177 0.00392359 0)
(0.027744 0.00381589 0)
(0.0262102 0.0037031 0)
(0.0247236 0.0035924 0)
(0.0232825 0.00348097 0)
(0.0218864 0.00336894 0)
(0.0205352 0.00325602 0)
(0.0192303 0.00314419 0)
(0.0179697 0.00303666 0)
(0.0167525 0.00292745 0)
(0.0155797 0.0028208 0)
(0.0144497 0.00271723 0)
(0.0133607 0.00261611 0)
(0.0123124 0.002519 0)
(0.0113029 0.00242505 0)
(0.0103309 0.00233523 0)
(0.00939445 0.00224952 0)
(0.00849189 0.00216858 0)
(0.00762194 0.00209247 0)
(0.00678192 0.00202063 0)
(0.00596982 0.00195351 0)
(0.00518339 0.00189681 0)
(0.00441746 0.00186508 0)
(0.00366651 0.00186863 0)
(0.00282759 0.00182 0)
(0.00228806 0.00135343 0)
(0.0015864 -5.8759e-05 0)
(0.00254257 -0.00114287 0)
(0.0023362 0.00604871 0)
(0.00243296 -0.0199243 0)
(0.00734438 -0.0203127 0)
(0.012286 -0.0201151 0)
(0.0171976 -0.0201046 0)
(0.0221079 -0.0201044 0)
(0.0270186 -0.0201024 0)
(0.0319289 -0.0200997 0)
(0.0368388 -0.0200967 0)
(0.0417482 -0.020093 0)
(0.046657 -0.0200887 0)
(0.0515652 -0.0200838 0)
(0.0564726 -0.0200784 0)
(0.061379 -0.0200727 0)
(0.0662842 -0.0200661 0)
(0.0711883 -0.0200587 0)
(0.0760911 -0.0200505 0)
(0.0809923 -0.0200416 0)
(0.0858918 -0.0200317 0)
(0.0907896 -0.020021 0)
(0.0956851 -0.0200093 0)
(0.100578 -0.0199966 0)
(0.105468 -0.0199826 0)
(0.110356 -0.0199673 0)
(0.11524 -0.0199507 0)
(0.120121 -0.0199328 0)
(0.124998 -0.0199135 0)
(0.129871 -0.0198927 0)
(0.134739 -0.0198703 0)
(0.139603 -0.019846 0)
(0.144461 -0.01982 0)
(0.149313 -0.0197921 0)
(0.154159 -0.0197623 0)
(0.158999 -0.0197304 0)
(0.163831 -0.0196963 0)
(0.168655 -0.01966 0)
(0.173471 -0.0196212 0)
(0.178278 -0.0195799 0)
(0.183076 -0.019536 0)
(0.187863 -0.0194895 0)
(0.192639 -0.0194401 0)
(0.197404 -0.0193879 0)
(0.202156 -0.0193326 0)
(0.206895 -0.0192741 0)
(0.211621 -0.0192125 0)
(0.216331 -0.0191474 0)
(0.221026 -0.0190788 0)
(0.225704 -0.0190066 0)
(0.230365 -0.0189307 0)
(0.235007 -0.018851 0)
(0.23963 -0.0187673 0)
(0.244233 -0.0186794 0)
(0.248815 -0.0185874 0)
(0.253374 -0.0184911 0)
(0.257909 -0.0183904 0)
(0.26242 -0.0182852 0)
(0.266905 -0.0181753 0)
(0.271363 -0.0180606 0)
(0.275793 -0.0179411 0)
(0.280194 -0.0178166 0)
(0.284564 -0.017687 0)
(0.288902 -0.0175523 0)
(0.293208 -0.0174123 0)
(0.297478 -0.017267 0)
(0.301713 -0.0171162 0)
(0.305911 -0.0169598 0)
(0.31007 -0.0167979 0)
(0.314189 -0.0166301 0)
(0.318266 -0.0164566 0)
(0.322301 -0.0162771 0)
(0.326291 -0.0160917 0)
(0.330235 -0.0159002 0)
(0.334132 -0.0157027 0)
(0.33798 -0.0154989 0)
(0.341778 -0.0152889 0)
(0.345523 -0.0150726 0)
(0.349215 -0.0148502 0)
(0.352852 -0.0146216 0)
(0.356432 -0.0143869 0)
(0.359954 -0.014146 0)
(0.363416 -0.0138991 0)
(0.366816 -0.0136463 0)
(0.370153 -0.0133876 0)
(0.373427 -0.013123 0)
(0.376634 -0.0128526 0)
(0.379774 -0.0125763 0)
(0.382845 -0.0122942 0)
(0.385847 -0.0120063 0)
(0.388776 -0.0117127 0)
(0.391633 -0.0114133 0)
(0.394415 -0.0111085 0)
(0.397122 -0.0107981 0)
(0.399752 -0.0104824 0)
(0.402303 -0.0101613 0)
(0.404775 -0.00983514 0)
(0.407165 -0.00950393 0)
(0.409474 -0.00916783 0)
(0.411699 -0.00882698 0)
(0.41384 -0.00848154 0)
(0.415895 -0.00813166 0)
(0.417863 -0.00777753 0)
(0.419744 -0.00741934 0)
(0.421536 -0.00705727 0)
(0.423238 -0.00669153 0)
(0.424849 -0.00632232 0)
(0.426369 -0.00594983 0)
(0.427797 -0.00557424 0)
(0.429131 -0.00519583 0)
(0.430373 -0.00481487 0)
(0.431519 -0.00443157 0)
(0.432572 -0.00404611 0)
(0.433528 -0.00365878 0)
(0.434389 -0.00326986 0)
(0.435154 -0.00287959 0)
(0.435822 -0.00248821 0)
(0.436394 -0.00209598 0)
(0.436869 -0.00170318 0)
(0.437247 -0.00131004 0)
(0.437527 -0.000916803 0)
(0.437711 -0.00052381 0)
(0.437799 -0.000131492 0)
(0.437789 0.000259477 0)
(0.437681 0.000648642 0)
(0.437476 0.00103523 0)
(0.437174 0.00141935 0)
(0.436774 0.00180083 0)
(0.436278 0.00217942 0)
(0.435687 0.00255503 0)
(0.435 0.00292742 0)
(0.43422 0.00329638 0)
(0.433346 0.00366177 0)
(0.432379 0.00402349 0)
(0.431321 0.00438137 0)
(0.430173 0.00473518 0)
(0.428936 0.00508465 0)
(0.42761 0.00542949 0)
(0.426198 0.00576937 0)
(0.4247 0.00610401 0)
(0.423117 0.00643319 0)
(0.421452 0.00675676 0)
(0.419706 0.00707456 0)
(0.417879 0.00738641 0)
(0.415975 0.00769209 0)
(0.413995 0.00799141 0)
(0.41194 0.00828416 0)
(0.409812 0.00857012 0)
(0.407613 0.00884908 0)
(0.405345 0.00912081 0)
(0.40301 0.00938514 0)
(0.40061 0.00964188 0)
(0.398147 0.00989088 0)
(0.395623 0.0101319 0)
(0.393041 0.0103647 0)
(0.390402 0.0105892 0)
(0.387709 0.0108052 0)
(0.384965 0.0110126 0)
(0.38217 0.0112113 0)
(0.379328 0.0114013 0)
(0.376442 0.0115824 0)
(0.373513 0.0117547 0)
(0.370544 0.0119179 0)
(0.367537 0.012072 0)
(0.364496 0.0122171 0)
(0.361422 0.0123531 0)
(0.358318 0.01248 0)
(0.355186 0.0125978 0)
(0.352029 0.0127065 0)
(0.348851 0.012806 0)
(0.345652 0.0128965 0)
(0.342437 0.0129779 0)
(0.339207 0.0130502 0)
(0.335965 0.0131135 0)
(0.332714 0.013168 0)
(0.329456 0.0132135 0)
(0.326194 0.0132503 0)
(0.322931 0.0132783 0)
(0.319668 0.0132976 0)
(0.31641 0.0133082 0)
(0.313158 0.0133101 0)
(0.309915 0.0133033 0)
(0.306683 0.0132878 0)
(0.303465 0.0132636 0)
(0.300264 0.0132303 0)
(0.297082 0.0131876 0)
(0.293921 0.0131346 0)
(0.290784 0.0130702 0)
(0.287678 0.0129952 0)
(0.284607 0.0129145 0)
(0.281574 0.0128385 0)
(0.278573 0.012778 0)
(0.275583 0.012736 0)
(0.272584 0.0127024 0)
(0.26956 0.0126578 0)
(0.266515 0.0125851 0)
(0.263464 0.0124799 0)
(0.260429 0.0123494 0)
(0.257423 0.0122058 0)
(0.254455 0.0120576 0)
(0.251527 0.0119083 0)
(0.24864 0.011758 0)
(0.245794 0.011606 0)
(0.24299 0.0114524 0)
(0.240227 0.0112974 0)
(0.237504 0.0111417 0)
(0.23482 0.0109852 0)
(0.232175 0.0108276 0)
(0.229567 0.0106685 0)
(0.226996 0.0105078 0)
(0.224461 0.0103454 0)
(0.221963 0.0101816 0)
(0.219501 0.0100168 0)
(0.217074 0.00985124 0)
(0.214683 0.00968509 0)
(0.212327 0.00951859 0)
(0.210006 0.00935194 0)
(0.207716 0.00918604 0)
(0.20546 0.0090205 0)
(0.203238 0.00885574 0)
(0.201049 0.00869188 0)
(0.198891 0.00852922 0)
(0.196762 0.00836709 0)
(0.194665 0.00820763 0)
(0.192598 0.00805026 0)
(0.190558 0.00789398 0)
(0.188548 0.00774061 0)
(0.186564 0.00758964 0)
(0.184607 0.00744268 0)
(0.182678 0.00729774 0)
(0.180774 0.00715497 0)
(0.178896 0.00701632 0)
(0.177046 0.00688131 0)
(0.17522 0.00675002 0)
(0.173418 0.00662289 0)
(0.171642 0.00649953 0)
(0.169891 0.00638011 0)
(0.168164 0.00626564 0)
(0.166461 0.00615571 0)
(0.164784 0.00605038 0)
(0.163132 0.00594995 0)
(0.161505 0.00585457 0)
(0.159902 0.00576431 0)
(0.158325 0.00567931 0)
(0.156772 0.00559964 0)
(0.155245 0.00552539 0)
(0.153742 0.00545667 0)
(0.152265 0.00539357 0)
(0.150813 0.00533616 0)
(0.149386 0.00528449 0)
(0.147983 0.0052386 0)
(0.146605 0.00519853 0)
(0.145251 0.00516429 0)
(0.14392 0.0051359 0)
(0.142612 0.00511338 0)
(0.141327 0.00509675 0)
(0.140063 0.00508592 0)
(0.138819 0.00508082 0)
(0.137596 0.00508176 0)
(0.13639 0.00508785 0)
(0.135201 0.00509986 0)
(0.134028 0.00511784 0)
(0.132869 0.00514107 0)
(0.131721 0.00517039 0)
(0.130582 0.0052043 0)
(0.129452 0.00524347 0)
(0.128326 0.00528861 0)
(0.127204 0.00533921 0)
(0.126082 0.00539456 0)
(0.124955 0.00545355 0)
(0.123822 0.00551642 0)
(0.12268 0.00558142 0)
(0.121527 0.00564927 0)
(0.120359 0.00571947 0)
(0.119175 0.00579194 0)
(0.117972 0.00586711 0)
(0.116745 0.00594417 0)
(0.115493 0.00602276 0)
(0.114213 0.00610807 0)
(0.112901 0.0061861 0)
(0.111554 0.0062694 0)
(0.110173 0.00635417 0)
(0.108754 0.00643814 0)
(0.107296 0.0065208 0)
(0.1058 0.00660007 0)
(0.104265 0.00667256 0)
(0.102695 0.00674077 0)
(0.101091 0.00681348 0)
(0.0994496 0.00691234 0)
(0.0977604 0.00706113 0)
(0.0960094 0.00727085 0)
(0.0941784 0.00751441 0)
(0.0922674 0.00774528 0)
(0.0903019 0.00793109 0)
(0.0882987 0.00806512 0)
(0.0862711 0.00816877 0)
(0.0842273 0.00825668 0)
(0.0821667 0.00833327 0)
(0.0801002 0.00839489 0)
(0.0780209 0.00844546 0)
(0.0759264 0.00848715 0)
(0.0738284 0.00851993 0)
(0.0717336 0.00854298 0)
(0.0696276 0.00855431 0)
(0.0675121 0.00855854 0)
(0.0654056 0.00855018 0)
(0.0632996 0.00853309 0)
(0.0611983 0.0085053 0)
(0.0591061 0.00846819 0)
(0.0570219 0.00841507 0)
(0.0549574 0.00836092 0)
(0.0529026 0.00829087 0)
(0.0508601 0.0082097 0)
(0.0488466 0.00811816 0)
(0.0468569 0.00801766 0)
(0.0448951 0.00790732 0)
(0.0429587 0.00778765 0)
(0.0410518 0.00765835 0)
(0.0391817 0.00751996 0)
(0.0373473 0.00737388 0)
(0.0355508 0.00721973 0)
(0.0337973 0.00705855 0)
(0.0320818 0.00689193 0)
(0.0304066 0.00671912 0)
(0.0287799 0.0065419 0)
(0.0271978 0.00635821 0)
(0.0256606 0.00617629 0)
(0.0241711 0.00598888 0)
(0.022729 0.0058005 0)
(0.0213332 0.00561169 0)
(0.0199858 0.0054236 0)
(0.0186918 0.00523671 0)
(0.0174397 0.0050516 0)
(0.0162299 0.00486902 0)
(0.0150719 0.00469076 0)
(0.0139572 0.00451566 0)
(0.0128862 0.00434509 0)
(0.0118567 0.00418205 0)
(0.010867 0.00402378 0)
(0.00991672 0.00387209 0)
(0.00900355 0.00372844 0)
(0.00812677 0.00359265 0)
(0.00728279 0.00346344 0)
(0.00646944 0.00334123 0)
(0.00568527 0.00322801 0)
(0.0049264 0.00313402 0)
(0.00418885 0.00308414 0)
(0.00346723 0.00309177 0)
(0.00265974 0.00300677 0)
(0.00215868 0.00220528 0)
(0.00150979 -0.000168823 0)
(0.00253471 -0.00196231 0)
(0.00235668 0.0101217 0)
(0.00245162 -0.0280552 0)
(0.00740192 -0.0286067 0)
(0.0123827 -0.0283261 0)
(0.0173334 -0.0283108 0)
(0.0222831 -0.0283103 0)
(0.0272328 -0.0283074 0)
(0.0321817 -0.0283035 0)
(0.03713 -0.028299 0)
(0.0420778 -0.0282937 0)
(0.0470245 -0.0282877 0)
(0.0519699 -0.0282808 0)
(0.0569135 -0.0282729 0)
(0.0618562 -0.0282642 0)
(0.0667982 -0.0282543 0)
(0.0717384 -0.0282434 0)
(0.0766762 -0.0282315 0)
(0.0816119 -0.0282183 0)
(0.0865455 -0.0282037 0)
(0.0914766 -0.028188 0)
(0.096405 -0.0281707 0)
(0.101331 -0.0281519 0)
(0.106253 -0.0281316 0)
(0.111173 -0.0281095 0)
(0.116088 -0.0280856 0)
(0.120998 -0.0280597 0)
(0.125905 -0.0280317 0)
(0.130806 -0.0280015 0)
(0.135703 -0.027969 0)
(0.140594 -0.027934 0)
(0.145479 -0.0278966 0)
(0.150356 -0.0278565 0)
(0.155227 -0.0278135 0)
(0.160091 -0.0277676 0)
(0.164947 -0.0277187 0)
(0.169794 -0.0276666 0)
(0.174632 -0.0276111 0)
(0.17946 -0.0275521 0)
(0.184278 -0.0274896 0)
(0.189085 -0.0274233 0)
(0.19388 -0.027353 0)
(0.198663 -0.0272786 0)
(0.203433 -0.0272 0)
(0.208189 -0.027117 0)
(0.21293 -0.0270294 0)
(0.217657 -0.0269372 0)
(0.222366 -0.02684 0)
(0.227059 -0.0267379 0)
(0.231734 -0.0266305 0)
(0.236389 -0.0265178 0)
(0.241025 -0.0263995 0)
(0.24564 -0.0262756 0)
(0.250233 -0.0261459 0)
(0.254803 -0.0260102 0)
(0.259349 -0.0258683 0)
(0.263871 -0.02572 0)
(0.268366 -0.0255653 0)
(0.272833 -0.0254041 0)
(0.277272 -0.0252361 0)
(0.281681 -0.0250612 0)
(0.28606 -0.0248792 0)
(0.290406 -0.0246901 0)
(0.294719 -0.0244937 0)
(0.298996 -0.02429 0)
(0.303238 -0.0240786 0)
(0.307443 -0.0238595 0)
(0.311608 -0.0236327 0)
(0.315734 -0.023398 0)
(0.319818 -0.0231553 0)
(0.323859 -0.0229044 0)
(0.327856 -0.0226455 0)
(0.331806 -0.0223782 0)
(0.33571 -0.0221027 0)
(0.339565 -0.0218189 0)
(0.34337 -0.0215266 0)
(0.347122 -0.0212259 0)
(0.350822 -0.0209166 0)
(0.354467 -0.0205988 0)
(0.358056 -0.0202724 0)
(0.361587 -0.0199375 0)
(0.365059 -0.0195939 0)
(0.36847 -0.0192417 0)
(0.371819 -0.018881 0)
(0.375104 -0.0185118 0)
(0.378323 -0.0181341 0)
(0.381475 -0.017748 0)
(0.384559 -0.0173535 0)
(0.387574 -0.0169508 0)
(0.390516 -0.0165399 0)
(0.393386 -0.0161209 0)
(0.396182 -0.015694 0)
(0.398902 -0.0152593 0)
(0.401545 -0.0148169 0)
(0.40411 -0.0143669 0)
(0.406594 -0.0139097 0)
(0.408998 -0.0134452 0)
(0.41132 -0.0129739 0)
(0.413558 -0.0124957 0)
(0.415712 -0.012011 0)
(0.41778 -0.0115201 0)
(0.41976 -0.011023 0)
(0.421653 -0.0105202 0)
(0.423457 -0.0100119 0)
(0.425171 -0.0094983 0)
(0.426794 -0.00897974 0)
(0.428325 -0.00845649 0)
(0.429763 -0.00792891 0)
(0.431109 -0.00739731 0)
(0.43236 -0.006862 0)
(0.433517 -0.00632328 0)
(0.434578 -0.0057815 0)
(0.435544 -0.00523703 0)
(0.436413 -0.00469023 0)
(0.437186 -0.00414144 0)
(0.437861 -0.00359102 0)
(0.43844 -0.00303935 0)
(0.438921 -0.00248678 0)
(0.439305 -0.0019337 0)
(0.439591 -0.00138047 0)
(0.43978 -0.000827471 0)
(0.43987 -0.000275049 0)
(0.439864 0.000276515 0)
(0.439761 0.000825986 0)
(0.439562 0.00137351 0)
(0.439266 0.00191875 0)
(0.438873 0.00246131 0)
(0.438385 0.00300101 0)
(0.437803 0.00353749 0)
(0.437126 0.00407035 0)
(0.436355 0.00459922 0)
(0.435492 0.00512369 0)
(0.434537 0.00564335 0)
(0.433491 0.00615775 0)
(0.432354 0.00666649 0)
(0.431129 0.00716922 0)
(0.429816 0.00766557 0)
(0.428415 0.00815514 0)
(0.42693 0.00863759 0)
(0.425359 0.00911256 0)
(0.423706 0.0095797 0)
(0.421972 0.0100387 0)
(0.420157 0.0104891 0)
(0.418264 0.0109306 0)
(0.416293 0.0113629 0)
(0.414247 0.0117857 0)
(0.412128 0.0121986 0)
(0.409937 0.0126014 0)
(0.407675 0.0129938 0)
(0.405345 0.0133756 0)
(0.402949 0.0137465 0)
(0.400488 0.0141063 0)