/*--------------------------------*- C++ -*----------------------------------*\
| =========                 |                                                 |
| \\      /  F ield         | OpenFOAM: The Open Source CFD Toolbox           |
|  \\    /   O peration     | Version:  v2006                                 |
|   \\  /    A nd           | Website:  www.openfoam.com                      |
|    \\/     M anipulation  |                                                 |
\*---------------------------------------------------------------------------*/
FoamFile
{
    version     2.0;
    format      ascii;
    class       surfaceScalarField;
    location    "12";
    object      alphaPhi0.water;
}
// * * * * * * * * * * * * * * * * * * * * * * * * * * * * * * * * * * * * * //

dimensions      [0 3 -1 0 0 0 0];
oriented        oriented;


internalField   nonuniform List<scalar> 
299200
(
-0.000251019
0.000251019
-0.000199084
-5.19355e-05
-0.000108375
-9.07088e-05
-7.43486e-05
-3.40263e-05
-9.87944e-05
2.44458e-05
-0.000167787
6.89929e-05
-0.000266908
9.91207e-05
-0.000385694
0.000118786
-0.000516951
0.000131257
-0.000655697
0.000138746
-0.000798972
0.000143276
-0.000945291
0.000146318
-0.00109402
0.000148728
-0.00124474
0.00015072
-0.00139716
0.000152425
-0.00155097
0.000153811
-0.00170587
0.000154895
-0.00186154
0.000155671
-0.00201758
0.000156043
-0.0021738
0.000156214
-0.0023301
0.000156305
-0.0024863
0.000156199
-0.00264243
0.000156124
-0.00279861
0.000156188
-0.00295486
0.000156242
-0.00311144
0.000156581
-0.00326847
0.000157031
-0.00342622
0.000157756
-0.00358505
0.000158826
-0.00374518
0.000160132
-0.00390687
0.00016169
-0.00407046
0.00016359
-0.00423637
0.000165907
-0.00440497
0.000168604
-0.0045767
0.000171731
-0.00475213
0.000175422
-0.00493154
0.00017941
-0.00511522
0.00018368
-0.00530347
0.000188255
-0.00549661
0.000193141
-0.00569487
0.000198257
-0.00589851
0.000203637
-0.00610708
0.00020857
-0.00631994
0.000212867
-0.00653643
0.000216482
-0.00675563
0.000219207
-0.0069766
0.000220962
-0.00719831
0.000221715
-0.00742012
0.000221805
-0.00764144
0.000221323
-0.00786218
0.000220742
-0.00808284
0.000220661
-0.00830449
0.000221652
-0.00852839
0.000223897
-0.0087558
0.000227412
-0.00898768
0.000231878
-0.00922457
0.000236888
-0.00946609
0.00024152
-0.00971114
0.000245054
-0.00995768
0.000246534
-0.0102032
0.00024548
-0.010445
0.000241873
-0.0106808
0.000235768
-0.0109083
0.000227475
-0.0111257
0.000217449
-0.011332
0.000206244
-0.0115264
0.000194472
-0.011709
0.000182594
-0.0118801
0.000171107
-0.0120405
0.000160391
-0.0121911
0.000150588
-0.012333
0.000141871
-0.0124672
0.000134218
-0.0125946
0.000127431
-0.0127162
0.000121534
-0.0128324
0.000116195
-0.0129437
0.000111283
-0.0130502
0.000106592
-0.0131523
0.000102032
-0.0132498
9.75305e-05
-0.0133427
9.2939e-05
-0.013431
8.82112e-05
-0.0135144
8.34859e-05
-0.0135932
7.87725e-05
-0.0136672
7.39924e-05
-0.0137363
6.91214e-05
-0.0138005
6.41865e-05
-0.0138597
5.91998e-05
-0.0139139
5.41901e-05
-0.0139631
4.9213e-05
-0.0140075
4.43983e-05
-0.0140475
3.99603e-05
-0.0140836
3.6146e-05
-0.0141169
3.3227e-05
-0.0141484
3.15022e-05
-0.0141795
3.11375e-05
-0.0142116
3.21204e-05
-0.0142458
3.42167e-05
-0.0142828
3.69878e-05
-0.0143227
3.98675e-05
-0.0143649
4.22617e-05
-0.0144086
4.36466e-05
-0.0144522
4.36052e-05
-0.014494
4.18172e-05
-0.014532
3.79901e-05
-0.0145637
3.16964e-05
-0.014586
2.22965e-05
-0.0145951
9.08541e-06
-0.0145869
-8.22806e-06
-0.0145563
-3.053e-05
-0.0145002
-5.61235e-05
-0.0144174
-8.28172e-05
-0.0143102
-0.000107142
-0.0141854
-0.000124817
-0.0140533
-0.000132141
-0.0139266
-0.000126729
-0.013818
-0.000108579
-0.0137376
-8.04182e-05
-0.0136907
-4.68424e-05
-0.013678
-1.26775e-05
-0.0136951
1.70337e-05
-0.0137358
4.0764e-05
-0.013794
5.81749e-05
-0.0138643
7.03013e-05
-0.013943
7.87004e-05
-0.0140277
8.46458e-05
-0.0141166
8.89008e-05
-0.0142084
9.18203e-05
-0.0143019
9.35242e-05
-0.014396
9.40581e-05
-0.0144895
9.355e-05
-0.0145814
9.19029e-05
-0.0146706
8.91688e-05
-0.0147561
8.55274e-05
-0.0148373
8.11433e-05
-0.0149134
7.61082e-05
-0.0149836
7.02664e-05
-0.015047
6.33391e-05
-0.0151027
5.56866e-05
-0.0151514
4.87329e-05
-0.0151956
4.42192e-05
-0.0152384
4.28251e-05
-0.0152818
4.33568e-05
-0.0153259
4.4089e-05
-0.0153687
4.2795e-05
-0.0154055
3.67991e-05
-0.0154284
2.28898e-05
-0.0154277
-7.05713e-07
-0.0153961
-3.15171e-05
-0.0153311
-6.49901e-05
-0.0152415
-8.96062e-05
-0.0151501
-9.14642e-05
-0.0150874
-6.27163e-05
-0.0150785
-8.90382e-06
-0.015136
5.75787e-05
-0.0152652
0.000129151
-0.0154662
0.000201057
-0.0157289
0.000262635
-0.0160241
0.000295223
-0.0163123
0.000288151
-0.0165514
0.000239193
-0.0167089
0.000157486
-0.0167833
7.43551e-05
-0.0168017
1.83801e-05
-0.0167976
-4.0577e-06
-0.0167891
-8.47302e-06
-0.0167839
-5.2269e-06
-0.0167841
2.41723e-07
-0.0167903
6.12539e-06
-0.0168033
1.30507e-05
-0.0168255
2.21664e-05
-0.0168586
3.30829e-05
-0.0169034
4.47965e-05
-0.0169589
5.55084e-05
-0.0170219
6.30535e-05
-0.0170879
6.59864e-05
-0.0171521
6.41334e-05
-0.0172105
5.84333e-05
-0.0172611
5.06074e-05
-0.0173031
4.20306e-05
-0.0173365
3.34188e-05
-0.0173615
2.4983e-05
-0.0173783
1.67737e-05
-0.0173872
8.86164e-06
-0.0173886
1.44747e-06
-0.0173831
-5.54089e-06
-0.0173711
-1.19557e-05
-0.0173532
-1.79056e-05
-0.0173298
-2.34027e-05
-0.0173014
-2.84488e-05
-0.0172683
-3.3058e-05
-0.017231
-3.72512e-05
-0.01719
-4.10326e-05
-0.0171456
-4.43815e-05
-0.0170984
-4.72695e-05
-0.0170487
-4.96748e-05
-0.0169971
-5.15741e-05
-0.0169442
-5.29226e-05
-0.0168905
-5.3651e-05
-0.0168369
-5.36867e-05
-0.0167839
-5.29831e-05
-0.0167323
-5.15298e-05
-0.016683
-4.93341e-05
-0.0166366
-4.64213e-05
-0.0165937
-4.28818e-05
-0.0165548
-3.88826e-05
-0.0165202
-3.4609e-05
-0.01649
-3.02358e-05
-0.016464
-2.59325e-05
-0.0164421
-2.1904e-05
-0.0164238
-1.83472e-05
-0.0164085
-1.53192e-05
-0.0163956
-1.28542e-05
-0.0163847
-1.09034e-05
-0.0163754
-9.29465e-06
-0.0163676
-7.83887e-06
-0.0163609
-6.66185e-06
-0.0163556
-5.30725e-06
-0.0163519
-3.66424e-06
-0.0163503
-1.63103e-06
-0.0163509
5.57558e-07
-0.0163543
3.44715e-06
-0.0163609
6.622e-06
-0.0163711
1.01104e-05
-0.0163847
1.36943e-05
-0.0164021
1.73397e-05
-0.016423
2.08789e-05
-0.0164469
2.39467e-05
-0.0164728
2.59113e-05
-0.0164986
2.58002e-05
-0.0165203
2.16599e-05
-0.0165308
1.05468e-05
-0.016521
-9.78502e-06
-0.0164816
-3.9459e-05
-0.0164122
-6.9383e-05
-0.0163376
-7.45869e-05
-0.0163199
-1.77316e-05
-0.0164594
0.000139547
-0.0168524
0.00039292
-0.0175133
0.000660992
-0.0183337
0.000820404
-0.0191618
0.000828054
-0.0198959
0.000734123
-0.0204872
0.000591248
-0.02092
0.000432868
-0.0212165
0.00029646
-0.0214233
0.000206795
-0.0215958
0.000172465
-0.0217767
0.000180949
-0.0219912
0.000214445
-0.0222461
0.000254985
-0.0225337
0.000287564
-0.0228384
0.000304656
-0.0231482
0.000309799
-0.0234509
0.000302771
-0.023745
0.000294029
-0.0240345
0.00028952
-0.0243261
0.000291623
-0.0246266
0.000300483
-0.0249425
0.000315908
-0.0252804
0.000337932
-0.0256475
0.000367087
-0.0260507
0.000403215
-0.0264939
0.000443194
-0.0269748
0.000480842
-0.0274813
0.000506542
-0.0279939
0.000512623
-0.028494
0.000500023
-0.0289725
0.000478514
-0.0294459
0.000473479
-0.0299494
0.000503504
-0.0305198
0.00057034
-0.0311715
0.000651739
-0.0318859
0.000714341
-0.0326234
0.000737537
-0.0333488
0.000725355
-0.0340406
0.000691825
-0.0346883
0.000647745
-0.03529
0.00060165
-0.0358469
0.00055692
-0.0363635
0.000516631
-0.0368475
0.000483985
-0.0373086
0.000461123
-0.0377567
0.000448015
-0.0382005
0.000443888
-0.0386481
0.00044754
-0.0391037
0.000455597
-0.0395692
0.000465532
-0.0400449
0.000475711
-0.0405305
0.000485551
-0.0410253
0.00049484
-0.0415287
0.000503363
-0.0420395
0.000510841
-0.0425563
0.000516815
-0.0430768
0.000520431
-0.0435975
0.000520706
-0.0441145
0.000517073
-0.044624
0.000509497
-0.0451227
0.000498612
-0.0456081
0.000485414
-0.046079
0.000470968
-0.0465352
0.000456201
-0.0469769
0.000441668
-0.0474047
0.000427848
-0.0478196
0.000414818
-0.0482219
0.000402382
-0.0486122
0.000390265
-0.0489902
0.000378034
-0.0493556
0.000365343
-0.0497076
0.000351998
-0.0500455
0.000337924
-0.0503688
0.00032328
-0.0506772
0.00030836
-0.0509705
0.000293376
-0.051249
0.000278514
-0.0515131
0.000264019
-0.051763
0.000249971
-0.0519993
0.000236297
-0.0522222
0.000222871
-0.0524318
0.000209551
-0.0526279
0.000196172
-0.0528105
0.000182537
-0.0529789
0.000168457
-0.0531328
0.000153844
-0.0532714
0.000138676
-0.0533944
0.000122957
-0.053501
0.000106638
-0.053591
8.9975e-05
-0.0536642
7.31875e-05
-0.0537207
5.65195e-05
-0.0537608
4.0062e-05
-0.0537838
2.3025e-05
-0.0537896
5.77808e-06
-0.053778
-1.15456e-05
-0.0537499
-2.81047e-05
-0.0537053
-4.46379e-05
-0.0536448
-6.05385e-05
-0.0535691
-7.56518e-05
-0.0534791
-9.00108e-05
-0.0533754
-0.000103736
-0.0532584
-0.000116935
-0.0531287
-0.000129723
-0.0529865
-0.000142156
-0.0528323
-0.000154287
-0.0526661
-0.000166131
-0.0524885
-0.00017767
-0.0522995
-0.000188915
-0.0520996
-0.000199896
-0.051889
-0.000210616
-0.051668
-0.000221065
-0.0514367
-0.000231226
-0.0511957
-0.000241071
-0.0509451
-0.000250578
-0.0506854
-0.000259737
-0.0504168
-0.000268583
-0.0501397
-0.000277117
-0.0498543
-0.000285325
-0.0495612
-0.000293164
-0.0492606
-0.000300605
-0.0489529
-0.00030767
-0.0486385
-0.000314392
-0.0483177
-0.000320788
-0.0479908
-0.000326876
-0.0476581
-0.000332684
-0.0473199
-0.000338251
-0.0469763
-0.00034362
-0.0466274
-0.000348852
-0.0462734
-0.000354032
-0.0459141
-0.000359252
-0.0455495
-0.000364616
-0.0451793
-0.000370251
-0.044803
-0.000376323
-0.0444199
-0.000383007
-0.0440295
-0.000390461
-0.0436307
-0.00039878
-0.0432227
-0.000407958
-0.0428048
-0.000417899
-0.0423764
-0.000428404
-0.0419373
-0.000439154
-0.0414876
-0.000449725
-0.0410279
-0.000459635
-0.0405595
-0.000468418
-0.0400838
-0.000475707
-0.0396025
-0.000481259
-0.0391176
-0.000484959
-0.0386308
-0.000486804
-0.0381439
-0.000486862
-0.0376587
-0.000485215
-0.0371767
-0.000481956
-0.0366995
-0.000477229
-0.0362283
-0.000471207
-0.0357642
-0.000464077
-0.0353082
-0.000456069
-0.0348607
-0.000447425
-0.0344224
-0.000438371
-0.0339933
-0.000429078
-0.0335737
-0.00041961
-0.0331638
-0.000409921
-0.0327639
-0.000399862
-0.0323747
-0.000389243
-0.0319968
-0.000377887
-0.0316311
-0.000365657
-0.0312787
-0.000352421
-0.0309407
-0.00033794
-0.030619
-0.00032172
-0.0303161
-0.000302939
-0.0300355
-0.000280588
-0.0297815
-0.000253952
-0.0295582
-0.000223305
-0.0293677
-0.000190533
-0.0292085
-0.000159229
-0.0290746
-0.00013392
-0.0289556
-0.000118999
-0.0288375
-0.000118063
-0.0287067
-0.00013083
-0.0285536
-0.000153061
-0.0283763
-0.000177355
-0.0281792
-0.000197054
-0.0279697
-0.000209449
-0.0277542
-0.00021553
-0.0275359
-0.00021831
-0.0273152
-0.000220758
-0.0270904
-0.00022474
-0.0268596
-0.000230816
-0.026621
-0.00023861
-0.0263736
-0.000247428
-0.0261168
-0.000256778
-0.0258503
-0.000266454
-0.0255742
-0.000276149
-0.0252889
-0.000285278
-0.0249949
-0.000293956
-0.0246899
-0.000305084
-0.0243645
-0.000325395
-0.0240017
-0.000362809
-0.0235812
-0.000420484
-0.0230893
-0.000491832
-0.0225264
-0.00056292
-0.0219072
-0.000619222
-0.0212556
-0.000651566
-0.020595
-0.000660617
-0.0199417
-0.000653337
-0.0193038
-0.000637923
-0.0186834
-0.000620394
-0.0180796
-0.000603787
-0.0174906
-0.000588988
-0.0169147
-0.000575855
-0.0163508
-0.000563967
-0.0157978
-0.000552923
-0.0152554
-0.000542398
-0.0147233
-0.000532105
-0.0142016
-0.000521767
-0.0136904
-0.000511126
-0.0131905
-0.000499976
-0.0127024
-0.0004881
-0.0122268
-0.000475557
-0.0117644
-0.000462406
-0.0113156
-0.000448795
-0.0108808
-0.000434825
-0.0104607
-0.000420054
-0.0100553
-0.00040548
-0.00966499
-0.00039026
-0.00929003
-0.000374956
-0.0089306
-0.000359438
-0.00858688
-0.000343716
-0.00825898
-0.000327899
-0.00794681
-0.000312169
-0.00765022
-0.000296588
-0.00736881
-0.000281411
-0.00710209
-0.000266724
-0.00684975
-0.000252343
-0.00661093
-0.000238819
-0.00638467
-0.000226256
-0.00617036
-0.00021431
-0.00596664
-0.000203726
-0.00577236
-0.000194278
-0.00558607
-0.000186289
-0.00540639
-0.000179681
-0.00523189
-0.0001745
-0.00506075
-0.000171139
-0.00489167
-0.000169076
-0.00472279
-0.000168878
-0.00455267
-0.000170124
-0.00437991
-0.000172762
-0.00420314
-0.000176766
-0.00402111
-0.000182028
-0.00383268
-0.000188435
-0.00363708
-0.000195604
-0.00343341
-0.00020366
-0.00322108
-0.000212334
-0.00299975
-0.000221333
-0.00276926
-0.00023049
-0.00252919
-0.000240063
-0.0022779
-0.000251293
-0.0020109
-0.000267004
-0.00171883
-0.00029207
-0.00138451
-0.000334313
-0.000982335
-0.000402179
-0.000505392
-0.000476943
-5.27671e-05
-0.000452625
-5.27671e-05
-0.000346947
0.000597966
-0.000390116
-8.76695e-06
-0.000433109
-4.77151e-05
-0.000575786
0.000108651
-0.000802984
0.000251643
-0.00107906
0.000345066
-0.00138157
0.000401639
-0.00169788
0.000435092
-0.00202045
0.000453826
-0.00234502
0.000463318
-0.00266899
0.000467247
-0.00299095
0.000468275
-0.00330995
0.00046773
-0.00362507
0.000465834
-0.00393553
0.000462884
-0.00424067
0.000458957
-0.00453996
0.000454183
-0.00483312
0.000448827
-0.00512041
0.00044334
-0.00540216
0.000437965
-0.00567876
0.000432905
-0.00595102
0.000428457
-0.00621966
0.000424762
-0.00648556
0.000422085
-0.00674964
0.000420327
-0.00701259
0.000419526
-0.00727534
0.000419787
-0.00753853
0.000420937
-0.00780266
0.000422956
-0.00806836
0.00042584
-0.00833608
0.000429406
-0.00860586
0.000433371
-0.00887784
0.000437885
-0.00915206
0.000442824
-0.00942821
0.000447887
-0.00970555
0.000452762
-0.00998341
0.000457263
-0.0102607
0.000460997
-0.0105363
0.000463869
-0.0108096
0.000466407
-0.0110804
0.000469076
-0.0113486
0.000471811
-0.0116149
0.000474839
-0.0118801
0.000478066
-0.0121453
0.000481709
-0.012412
0.000485946
-0.0126821
0.000491024
-0.012957
0.000496576
-0.0132376
0.000502456
-0.0135247
0.000508439
-0.0138178
0.000513816
-0.0141149
0.000517729
-0.0144128
0.000519609
-0.0147077
0.000518802
-0.0149945
0.000514157
-0.0152677
0.000505114
-0.0155221
0.000491315
-0.0157539
0.00047333
-0.015961
0.000452143
-0.0161436
0.00042906
-0.0163036
0.000405482
-0.0164446
0.000382882
-0.0165712
0.00036237
-0.0166881
0.000344362
-0.0167996
0.000329024
-0.0169096
0.000316243
-0.0170209
0.000305763
-0.0171355
0.000297131
-0.0172544
0.000290008
-0.0173781
0.000284148
-0.0175068
0.000279318
-0.0176402
0.000275247
-0.0177778
0.000271796
-0.0179192
0.000268841
-0.018064
0.000266279
-0.0182119
0.000264158
-0.018363
0.000262374
-0.0185173
0.000260901
-0.0186749
0.000259646
-0.0188359
0.000258532
-0.0190004
0.000257394
-0.0191682
0.000256019
-0.0193389
0.000254219
-0.019512
0.000251828
-0.0196867
0.000248666
-0.0198621
0.000244571
-0.0200374
0.000239433
-0.0202114
0.000233234
-0.0203832
0.000225991
-0.0205518
0.00021777
-0.0207162
0.000208821
-0.0208757
0.000199511
-0.0210299
0.000190312
-0.0211784
0.000181765
-0.0213213
0.000174413
-0.0214589
0.000168665
-0.0215914
0.000164644
-0.0217193
0.000162084
-0.0218426
0.000160289
-0.0219609
0.000158188
-0.0220731
0.000154472
-0.0221772
0.000147789
-0.0222706
0.00013698
-0.0223502
0.000121362
-0.0224131
0.000100922
-0.0224577
7.62632e-05
-0.0224837
4.83343e-05
-0.0224926
1.79585e-05
-0.0224863
-1.44864e-05
-0.0224706
-4.62566e-05
-0.022448
-7.86531e-05
-0.0224207
-0.00011017
-0.0223894
-0.00013847
-0.0223545
-0.000159644
-0.022317
-0.000169652
-0.0222786
-0.000165119
-0.0222419
-0.000145335
-0.0222089
-0.000113411
-0.0221809
-7.48248e-05
-0.0221579
-3.56407e-05
-0.0221394
-1.52781e-06
-0.0221247
2.60615e-05
-0.0221126
4.60924e-05
-0.0221024
6.00929e-05
-0.0220933
6.96576e-05
-0.0220848
7.60972e-05
-0.0220761
8.0237e-05
-0.0220668
8.24825e-05
-0.0220562
8.29757e-05
-0.0220439
8.1753e-05
-0.0220292
7.88369e-05
-0.0220115
7.42064e-05
-0.0219902
6.7866e-05
-0.0219646
5.99222e-05
-0.0219343
5.07944e-05
-0.0218997
4.14928e-05
-0.0218629
3.34807e-05
-0.0218272
2.76487e-05
-0.0217961
2.4594e-05
-0.0217719
2.45813e-05
-0.0217555
2.77564e-05
-0.0217455
3.28141e-05
-0.0217387
3.66037e-05
-0.0217292
3.46066e-05
-0.0217083
2.18539e-05
-0.0216662
-5.29387e-06
-0.021594
-4.93263e-05
-0.0214845
-0.000110216
-0.0213318
-0.000184234
-0.0211335
-0.000263216
-0.0208903
-0.000332789
-0.0206063
-0.000375467
-0.0202921
-0.000376917
-0.0199696
-0.000331456
-0.0196657
-0.000246352
-0.0194025
-0.000134016
-0.0191989
-2.56621e-06
-0.0190898
0.000153605
-0.0191038
0.000309177
-0.019264
0.000448352
-0.0195803
0.000555452
-0.0200439
0.000621133
-0.0206137
0.000644156
-0.0212204
0.000625092
-0.021793
0.000568557
-0.0222843
0.000482754
-0.0226693
0.000379793
-0.0229432
0.000274196
-0.0231179
0.000180771
-0.0232147
0.000109843
-0.0232569
6.43502e-05
-0.0232636
3.98632e-05
-0.0232478
2.89175e-05
-0.0232165
2.42499e-05
-0.0231738
2.04057e-05
-0.0231222
1.43231e-05
-0.0230633
5.20218e-06
-0.0229983
-6.54786e-06
-0.0229285
-1.91174e-05
-0.022855
-3.15098e-05
-0.0227783
-4.32553e-05
-0.0226992
-5.41479e-05
-0.0226183
-6.41123e-05
-0.0225363
-7.31321e-05
-0.0224537
-8.11762e-05
-0.022371
-8.82872e-05
-0.0222885
-9.44268e-05
-0.0222068
-9.96084e-05
-0.0221263
-0.000103873
-0.0220475
-0.00010727
-0.0219707
-0.000109859
-0.0218962
-0.000111698
-0.0218244
-0.000112828
-0.0217556
-0.000113255
-0.0216899
-0.000112957
-0.0216277
-0.000111894
-0.0215692
-0.000110007
-0.0215149
-0.000107221
-0.0214651
-0.000103447
-0.0214202
-9.86153e-05
-0.0213805
-9.27171e-05
-0.0213462
-8.58265e-05
-0.0213174
-7.80925e-05
-0.0212941
-6.97387e-05
-0.0212759
-6.10725e-05
-0.0212623
-5.2449e-05
-0.0212528
-4.42002e-05
-0.0212464
-3.66004e-05
-0.0212425
-2.98449e-05
-0.0212404
-2.40167e-05
-0.0212396
-1.90962e-05
-0.0212401
-1.48605e-05
-0.021242
-1.09075e-05
-0.021246
-6.91139e-06
-0.0212528
-2.47858e-06
-0.0212637
3.03637e-06
-0.0212792
8.84035e-06
-0.0213005
1.59695e-05
-0.0213282
2.40577e-05
-0.0213627
3.29023e-05
-0.0214043
4.21665e-05
-0.0214525
5.16154e-05
-0.0215066
6.06737e-05
-0.0215653
6.88469e-05
-0.0216271
7.5521e-05
-0.0216899
8.01042e-05
-0.0217509
8.19058e-05
-0.0218071
8.01081e-05
-0.0218549
7.3689e-05
-0.0218903
6.12311e-05
-0.0219092
4.05835e-05
-0.0219077
9.05981e-06
-0.021879
-3.85128e-05
-0.0218197
-9.87436e-05
-0.0217241
-0.000164969
-0.0215842
-0.000214469
-0.0213941
-0.000207924
-0.0211513
-0.00010321
-0.0208512
9.27935e-05
-0.0205152
0.000325044
-0.0201793
0.000484515
-0.0198736
0.000522293
-0.0196062
0.000466796
-0.0193856
0.000370638
-0.0192223
0.000269526
-0.0191061
0.00018023
-0.0190112
0.000111949
-0.0189053
6.65748e-05
-0.0187691
4.46943e-05
-0.0185977
4.30677e-05
-0.0183979
5.5192e-05
-0.0181847
7.43927e-05
-0.0179777
9.75934e-05
-0.0177931
0.000125192
-0.0176521
0.000161854
-0.0175671
0.000209016
-0.0175413
0.000263723
-0.0175707
0.000320999
-0.0176468
0.000376524
-0.0177598
0.000428938
-0.017903
0.000481139
-0.0180769
0.000541015
-0.0182939
0.000620195
-0.018581
0.000730301
-0.0189775
0.000877347
-0.019526
0.00105508
-0.0202554
0.00124194
-0.0211622
0.00140689
-0.0222071
0.00152338
-0.0233145
0.00158092
-0.0243949
0.00158387
-0.0253688
0.00154424
-0.0261894
0.00147233
-0.0268517
0.0013767
-0.0273818
0.00126755
-0.0278121
0.00115574
-0.0281774
0.00105712
-0.0285002
0.000970536
-0.0287947
0.000896093
-0.029073
0.000835211
-0.029346
0.000789669
-0.0296218
0.000759808
-0.0299046
0.000743894
-0.0301957
0.00073916
-0.0304923
0.000740447
-0.0307889
0.00074417
-0.0310819
0.000748522
-0.0313688
0.000752461
-0.0316492
0.00075611
-0.0319238
0.000760127
-0.032194
0.000765115
-0.0324621
0.000771394
-0.0327299
0.000778719
-0.0329991
0.000785973
-0.03327
0.000791383
-0.0335427
0.000793338
-0.0338169
0.000791245
-0.0340931
0.000785751
-0.0343726
0.000778125
-0.0346569
0.000769662
-0.0349469
0.000761023
-0.0352429
0.000752164
-0.0355437
0.000742525
-0.0358471
0.000731161
-0.0361494
0.000717189
-0.0364467
0.000699696
-0.0367345
0.000678053
-0.0370085
0.000652016
-0.0372651
0.000621918
-0.0375016
0.000588552
-0.0377167
0.000553029
-0.0379101
0.000516602
-0.0380822
0.000480468
-0.0382343
0.000445541
-0.0383681
0.000412247
-0.0384846
0.000380508
-0.0385846
0.000349988
-0.0386684
0.00032016
-0.0387361
0.000290533
-0.0387873
0.000260764
-0.0388219
0.000230746
-0.03884
0.000200622
-0.0388423
0.00017075
-0.0388301
0.00014164
-0.0388053
0.000113891
-0.0387706
8.82623e-05
-0.0387288
6.48284e-05
-0.0386829
4.40518e-05
-0.0386352
2.5536e-05
-0.0385875
8.84636e-06
-0.0385416
-5.88708e-06
-0.0384957
-2.28543e-05
-0.03845
-3.99616e-05
-0.0384039
-5.75738e-05
-0.0383564
-7.56579e-05
-0.0383067
-9.43238e-05
-0.0382541
-0.000113084
-0.0381982
-0.000131604
-0.0381386
-0.00014963
-0.0380752
-0.000167081
-0.0380082
-0.000183943
-0.0379377
-0.000200261
-0.0378637
-0.000216129
-0.0377864
-0.000231567
-0.037706
-0.000246602
-0.0376224
-0.000261211
-0.0375358
-0.000275494
-0.0374463
-0.000289438
-0.0373538
-0.000303092
-0.0372584
-0.000316444
-0.0371602
-0.000329458
-0.0370591
-0.000342139
-0.0369552
-0.00035451
-0.0368484
-0.000366572
-0.0367385
-0.000378418
-0.0366257
-0.000389963
-0.0365099
-0.000401161
-0.0363911
-0.000411971
-0.0362692
-0.000422409
-0.0361443
-0.000432625
-0.0360161
-0.000442629
-0.0358843
-0.000452493
-0.035749
-0.000462259
-0.0356096
-0.000472046
-0.0354658
-0.00048201
-0.0353172
-0.000492262
-0.035163
-0.000503012
-0.0350026
-0.000514451
-0.0348351
-0.000526739
-0.0346597
-0.0005401
-0.0344753
-0.000554648
-0.034281
-0.000570542
-0.0340763
-0.000587774
-0.0338605
-0.000606221
-0.0336337
-0.00062558
-0.0333962
-0.000645428
-0.0331489
-0.000665215
-0.032893
-0.000684296
-0.0326302
-0.00070195
-0.0323625
-0.000717461
-0.0320919
-0.000730268
-0.0318202
-0.000740122
-0.0315487
-0.000747152
-0.0312781
-0.000751857
-0.0310081
-0.000755008
-0.0307374
-0.000757497
-0.0304641
-0.000760108
-0.0301861
-0.000763249
-0.0299013
-0.000766797
-0.0296084
-0.000770106
-0.0293075
-0.000772066
-0.029
-0.000771563
-0.0286883
-0.000767813
-0.0283752
-0.000760548
-0.0280636
-0.000749979
-0.027756
-0.000736607
-0.0274547
-0.000720966
-0.0271612
-0.000703401
-0.0268771
-0.000683987
-0.0266037
-0.000662618
-0.0263424
-0.000639179
-0.0260943
-0.000613729
-0.0258601
-0.000586614
-0.0256395
-0.000558542
-0.0254306
-0.000530668
-0.0252287
-0.000504792
-0.0250257
-0.000483643
-0.0248086
-0.000471021
-0.0245605
-0.000471438
-0.024262
-0.000488996
-0.0238956
-0.000525695
-0.0234497
-0.000579806
-0.0229234
-0.000645297
-0.0223291
-0.000712326
-0.02169
-0.000769973
-0.0210324
-0.000810597
-0.0203777
-0.000832115
-0.0197364
-0.000838299
-0.019109
-0.000836869
-0.0184889
-0.000835657
-0.0178674
-0.000839786
-0.0172374
-0.000850744
-0.016595
-0.000867135
-0.0159397
-0.000886175
-0.0152732
-0.000905095
-0.0145986
-0.000922002
-0.0139192
-0.000936171
-0.0132378
-0.00094784
-0.0125562
-0.000957752
-0.0118745
-0.000966961
-0.0111912
-0.00097729
-0.0105041
-0.000992207
-0.00981254
-0.00101694
-0.00911908
-0.00105626
-0.00842915
-0.00111042
-0.00774807
-0.00117292
-0.00707926
-0.00123173
-0.00642528
-0.0012732
-0.00578849
-0.00128836
-0.00517247
-0.00127664
-0.00458134
-0.00124447
-0.00401842
-0.00120084
-0.00348553
-0.00115328
-0.00298332
-0.001106
-0.00251198
-0.00106033
-0.00207167
-0.00101616
-0.00166238
-0.000973251
-0.00128365
-0.000931655
-0.000934294
-0.000891756
-0.000612384
-0.000854015
-0.000315414
-0.000818737
-4.06488e-05
-0.000785892
0.000214454
-0.000755078
0.000452076
-0.000725722
0.000673486
-0.000696967
0.000879226
-0.000668145
0.00106917
-0.000638738
0.00124284
-0.000608496
0.00140095
-0.000578163
0.00154185
-0.000546384
0.0016661
-0.000514508
0.00177297
-0.000481829
0.0018622
-0.000448669
0.00193375
-0.000415263
0.00198696
-0.000381109
0.00202187
-0.000347078
0.00203848
-0.000313199
0.00203652
-0.00027945
0.00201655
-0.000246755
0.00197837
-0.000214164
0.00192293
-0.000183379
0.00185163
-0.000154958
0.00176438
-0.000127059
0.00166375
-0.000103097
0.00155006
-8.05856e-05
0.00142552
-6.17485e-05
0.00129162
-4.57761e-05
0.00115057
-3.3454e-05
0.00100405
-2.46226e-05
0.000854855
-1.98769e-05
0.000704573
-1.85958e-05
0.000555435
-2.09861e-05
0.000409528
-2.68546e-05
0.000268711
-3.59497e-05
0.000134779
-4.80966e-05
9.52531e-06
-6.31814e-05
-0.000106436
-7.96423e-05
-0.00021168
-9.84164e-05
-0.000305472
-0.000118542
-0.000388021
-0.000138783
-0.000460766
-0.000157745
-0.000525959
-0.00017487
-0.000584479
-0.000192773
-0.000631007
-0.000220475
-0.000646941
-0.000276137
-0.000595476
-0.000385779
-0.000430541
-0.000567114
-0.000135111
-0.000772373
0.000163297
-0.000751033
0.00011053
-0.00037836
0.000976326
-0.000369381
-1.77457e-05
-0.000328744
-8.83525e-05
-0.00041628
0.000196187
-0.00064116
0.000476523
-0.00094447
0.000648376
-0.00127369
0.00073086
-0.00160256
0.000763962
-0.00192162
0.000772885
-0.00222915
0.000770852
-0.00252555
0.000763648
-0.00281119
0.00075391
-0.00308584
0.000742376
-0.00334938
0.000729384
-0.00360166
0.000715158
-0.00384282
0.000700121
-0.0040734
0.000684758
-0.00429429
0.000669722
-0.00450679
0.000655836
-0.00471217
0.000643346
-0.00491185
0.000632588
-0.00510734
0.000623941
-0.00530004
0.000617463
-0.00549094
0.000612989
-0.00568136
0.00061075
-0.00587224
0.000610406
-0.00606438
0.000611928
-0.00625849
0.000615043
-0.00645513
0.000619597
-0.00665468
0.00062539
-0.0068574
0.000632122
-0.0070635
0.000639471
-0.007273
0.000647391
-0.00748579
0.000655611
-0.00770156
0.000663655
-0.00792008
0.00067128
-0.00814114
0.000678332
-0.00836469
0.000684542
-0.00859096
0.000690141
-0.00882009
0.000695541
-0.00905206
0.000701047
-0.00928695
0.000706699
-0.00952516
0.000713041
-0.00976735
0.000720261
-0.010014
0.000728379
-0.0102661
0.000738073
-0.0105241
0.000748941
-0.0107877
0.00076019
-0.0110561
0.000770844
-0.0113275
0.000779884
-0.0115994
0.000785737
-0.0118682
0.000786496
-0.0121298
0.000781185
-0.0123791
0.000768156
-0.0126121
0.000747139
-0.0128254
0.000718383
-0.0130173
0.000683186
-0.0131881
0.000644145
-0.0133401
0.00060415
-0.013477
0.000565955
-0.0136034
0.000531901
-0.0137241
0.000503619
-0.0138435
0.000481729
-0.0139649
0.000465828
-0.0140911
0.000455221
-0.014224
0.000449098
-0.0143645
0.000446294
-0.0145134
0.000446001
-0.0146708
0.000447433
-0.0148367
0.000450015
-0.0150107
0.000453295
-0.0151923
0.000456881
-0.0153811
0.000460571
-0.0155765
0.000464244
-0.015778
0.000467791
-0.0159851
0.000471264
-0.0161973
0.000474625
-0.0164144
0.000477911
-0.0166357
0.000480965
-0.0168608
0.000483643
-0.0170892
0.000485759
-0.0173202
0.000487023
-0.017553
0.000487092
-0.0177868
0.00048562
-0.0180204
0.000482279
-0.0182527
0.000476819
-0.0184823
0.000469082
-0.0187082
0.000459097
-0.0189292
0.00044701
-0.0191445
0.000433074
-0.0193534
0.00041768
-0.0195552
0.000401337
-0.0197494
0.000384546
-0.0199355
0.000367832
-0.0201127
0.000351642
-0.0202803
0.000336246
-0.0204373
0.000321636
-0.0205827
0.000307459
-0.0207154
0.000292984
-0.0208344
0.00027718
-0.0209388
0.000258894
-0.0210282
0.000237152
-0.0211028
0.000211581
-0.0211641
0.000182748
-0.0212154
0.000152173
-0.021261
0.000121857
-0.0213062
9.35598e-05
-0.0213564
6.81565e-05
-0.0214165
4.55752e-05
-0.0214876
2.4864e-05
-0.0215708
4.58905e-06
-0.0216652
-1.58423e-05
-0.0217675
-3.61327e-05
-0.0218741
-5.30434e-05
-0.0219806
-6.31422e-05
-0.0220816
-6.41385e-05
-0.0221719
-5.50482e-05
-0.0222478
-3.75081e-05
-0.0223075
-1.51082e-05
-0.0223516
8.45844e-06
-0.0223816
2.84983e-05
-0.0224001
4.45115e-05
-0.0224102
5.6249e-05
-0.0224145
6.43366e-05
-0.0224145
6.96506e-05
-0.0224113
7.29128e-05
-0.0224056
7.45856e-05
-0.022398
7.49075e-05
-0.0223891
7.39813e-05
-0.0223792
7.18516e-05
-0.0223688
6.85272e-05
-0.0223586
6.39822e-05
-0.0223489
5.81893e-05
-0.0223402
5.12264e-05
-0.0223331
4.36204e-05
-0.0223279
3.63038e-05
-0.0223246
3.01906e-05
-0.0223228
2.58249e-05
-0.0223216
2.34679e-05
-0.0223202
2.3143e-05
-0.0223168
2.43791e-05
-0.02231
2.59869e-05
-0.0222992
2.5771e-05
-0.0222855
2.09148e-05
-0.0222721
8.45428e-06
-0.0222643
-1.3106e-05
-0.022269
-4.4599e-05
-0.0222932
-8.59823e-05
-0.0223424
-0.000135069
-0.0224186
-0.000187053
-0.0225176
-0.000233747
-0.022628
-0.000265089
-0.0227324
-0.000272511
-0.0228127
-0.000251127
-0.0228585
-0.000200576
-0.0228685
-0.000124051
-0.0228517
-1.93535e-05
-0.0228045
0.000106418
-0.0227515
0.000256151
-0.0227214
0.000418272
-0.0227328
0.000566913
-0.0227832
0.000671504
-0.0228479
0.000708812
-0.0228947
0.00067193
-0.0228998
0.00057363
-0.0228553
0.000438272
-0.0227699
0.000294361
-0.0226631
0.000167475
-0.0225536
7.12783e-05
-0.0224509
7.0938e-06
-0.0223585
-2.80627e-05
-0.0222718
-4.68408e-05
-0.0221864
-5.64101e-05
-0.0220996
-6.26485e-05
-0.0220099
-6.92663e-05
-0.0219178
-7.7801e-05
-0.0218243
-8.82561e-05
-0.0217309
-9.99896e-05
-0.021638
-0.000111974
-0.0215461
-0.000123421
-0.0214552
-0.000134171
-0.0213652
-0.00014415
-0.021276
-0.0001533
-0.0211876
-0.000161563
-0.0210998
-0.000168882
-0.0210129
-0.000175227
-0.0209268
-0.000180559
-0.0208415
-0.000184863
-0.0207573
-0.000188134
-0.0206742
-0.00019037
-0.0205924
-0.000191574
-0.0205124
-0.000191746
-0.0204343
-0.000190874
-0.0203587
-0.000188929
-0.0202857
-0.000185886
-0.0202159
-0.000181728
-0.0201495
-0.000176467
-0.0200865
-0.000170136
-0.0200272
-0.00016281
-0.0199712
-0.000154615
-0.0199181
-0.000145743
-0.0198675
-0.000136443
-0.0198186
-0.000126989
-0.0197707
-0.000117654
-0.0197231
-0.000108678
-0.0196753
-0.000100232
-0.0196272
-9.23741e-05
-0.0195787
-8.50408e-05
-0.0195305
-7.80454e-05
-0.0194835
-7.10725e-05
-0.0194388
-6.37063e-05
-0.0193983
-5.54565e-05
-0.0193633
-4.58717e-05
-0.0193356
-3.45833e-05
-0.0193168
-2.13041e-05
-0.0193076
-6.13432e-06
-0.0193089
1.00825e-05
-0.0193221
2.92122e-05
-0.0193474
4.93329e-05
-0.0193847
7.02062e-05
-0.0194338
9.1284e-05
-0.0194942
0.000111991
-0.0195651
0.000131643
-0.019646
0.000149684
-0.0197359
0.000165393
-0.019834
0.000178258
-0.0199399
0.000187806
-0.0200535
0.000193657
-0.0201751
0.000195327
-0.0203064
0.000192577
-0.0204508
0.000184891
-0.0206131
0.000171388
-0.0208027
0.000151091
-0.0210276
0.000126217
-0.0212946
0.000102031
-0.0216007
9.15962e-05
-0.0219266
0.000117951
-0.0222322
0.000202383
-0.0224807
0.000341292
-0.0226526
0.000496926
-0.022779
0.000610953
-0.0229089
0.000652233
-0.0230712
0.000629046
-0.0232667