/*--------------------------------*- C++ -*----------------------------------*\
| =========                 |                                                 |
| \\      /  F ield         | OpenFOAM: The Open Source CFD Toolbox           |
|  \\    /   O peration     | Version:  v2006                                 |
|   \\  /    A nd           | Website:  www.openfoam.com                      |
|    \\/     M anipulation  |                                                 |
\*---------------------------------------------------------------------------*/
FoamFile
{
    version     2.0;
    format      ascii;
    class       volScalarField;
    location    "12";
    object      p;
}
// * * * * * * * * * * * * * * * * * * * * * * * * * * * * * * * * * * * * * //

dimensions      [1 -1 -2 0 0 0 0];


internalField   nonuniform List<scalar> 
150000
(
16466.1
16466.7
16468.1
16470.1
16472.8
16476.3
16480.4
16485.1
16490.6
16496.7
16503.4
16510.9
16518.9
16527.7
16537.1
16547.1
16557.8
16569.1
16581
16593.6
16606.7
16620.4
16634.8
16649.7
16665.2
16681.2
16697.8
16714.9
16732.5
16750.6
16769.2
16788.2
16807.8
16827.7
16848.1
16868.8
16890
16911.5
16933.3
16955.4
16977.9
17000.6
17023.6
17046.8
17070.2
17093.8
17117.5
17141.4
17165.3
17189.3
17213.4
17237.5
17261.6
17285.7
17309.7
17333.7
17357.6
17381.3
17404.9
17428.4
17451.7
17474.7
17497.5
17520
17542.3
17564.2
17585.8
17607.1
17627.9
17648.4
17668.4
17688
17707.1
17725.7
17743.9
17761.5
17778.6
17795.2
17811.2
17826.6
17841.4
17855.6
17869.2
17882.2
17894.6
17906.3
17917.3
17927.7
17937.4
17946.5
17954.9
17962.6
17969.6
17976
17981.7
17986.7
17991
17994.7
17997.8
18000.2
18001.9
18003.1
18003.6
18003.5
18002.8
18001.6
17999.7
17997.3
17994.4
17990.9
17986.9
17982.4
17977.5
17972
17966.1
17959.8
17953.2
17946.1
17938.8
17931.2
17923.4
17915.3
17906.9
17898.4
17889.7
17880.8
17871.8
17862.7
17853.5
17844.2
17834.9
17825.6
17816.3
17807
17797.8
17788.6
17779.6
17770.6
17761.8
17753.1
17744.6
17736.3
17728.1
17720.2
17712.6
17705.1
17697.9
17691
17684.2
17677.7
17671.5
17665.4
17659.7
17654.2
17649.1
17644.3
17639.9
17635.8
17632.1
17628.7
17625.6
17622.8
17620.1
17617.6
17615.4
17613.4
17611.7
17610.3
17609.2
17608.3
17607.7
17607.4
17607.3
17607.4
17607.8
17608.5
17609.3
17610.4
17611.7
17613.2
17614.9
17616.9
17619
17621.3
17623.8
17626.5
17629.4
17632.5
17635.7
17639.2
17642.9
17646.7
17650.8
17655
17659.5
17664.2
17669.1
17674.2
17679.5
17685.1
17691
17697.1
17703.5
17710.2
17717.2
17724.5
17732.1
17740.1
17748.5
17757.3
17766.4
17776
17786.1
17796.6
17807.6
17819.1
17831.2
17843.7
17856.9
17870.6
17885
17900
17915.6
17931.9
17949
17966.8
17985.3
18004.5
18024.6
18045.5
18067.2
18089.8
18113.2
18137.4
18162.5
18188.4
18215.2
18242.9
18271.8
18301.9
18333.2
18365.4
18398.5
18432.4
18467.3
18503.1
18539.9
18577.8
18616.7
18656.7
18697.8
18739.9
18783.1
18827.3
18872.5
18918.8
18966.1
19014.5
19063.9
19114.3
19165.7
19218.1
19271.5
19325.9
19381.3
19437.7
19495
19553.4
19612.6
19672.7
19733.6
19795.1
19857.4
19920.3
19983.9
20048.2
20113
20178.5
20244.6
20311.3
20378.6
20446.4
20514.8
20583.6
20652.9
20722.6
20792.7
20863.1
20933.8
21004.8
21076.1
21147.6
21219.2
21291
21362.9
21434.9
21506.9
21578.9
21650.9
21722.9
21794.8
21866.5
21938.1
22009.5
22080.7
22151.6
22222.3
22292.6
22362.6
22432.1
22501.3
22570
22638.2
22705.9
22773.1
22839.7
22905.6
22971
23035.6
23099.6
23162.9
23225.4
23287.1
23348
23408.1
23467.3
23525.7
23583.2
23639.7
23695.3
23750
23803.7
23856.4
23908
23958.6
24008.2
24056.8
24104.3
24150.7
24196
24240.3
24283.4
24325.4
24366.3
24406
24444.7
24482.1
24518.5
24553.7
24587.7
24620.6
24652.3
24682.9
24712.4
24740.7
24767.8
24793.8
24818.7
24842.5
24865.1
24886.6
24906.9
24926.2
24944.4
24961.4
24977.4
24992.3
25006.2
25018.9
25030.7
25041.4
25051
25059.6
25067.3
25073.9
25079.6
25084.3
25088
25090.8
25092.7
25093.6
25093.6
25092.8
25091
25088.4
25084.9
25080.5
25075.3
25069.3
25062.5
25054.8
25046.4
25037.2
25027.2
25016.4
25004.9
24992.7
24979.7
24966.1
24951.7
24936.7
24920.9
24904.5
24887.5
24869.8
24851.5
24832.5
24812.9
24792.7
24771.9
24750.6
24728.6
24706.1
24683.1
24659.6
24635.5
24610.9
24585.9
24560.3
24534.3
24507.7
24480.7
24453.3
24425.4
24397
24368.3
24339.2
24309.6
24279.7
24249.4
24218.8
24187.7
24156.4
24124.7
24092.8
24060.7
24028.4
23996
23963.3
23930.4
23897.2
23863.7
23830
23796
23761.9
23727.5
23693
23658.3
23623.5
23588.6
23553.6
23518.5
23483.2
23448
23412.6
23377.2
23341.8
23306.4
23271
23235.6
23200.2
23164.9
23129.7
23094.6
23059.7
23025
22990.4
22956.1
22922.1
22888.4
22855.1
22822.2
22789.7
22757.7
22726.3
22695.4
22665.2
22635.7
22607
22579.1
22552.1
22526
22500.9
22476.9
22453.9
22432.1
22411.6
22392.4
22374.4
22357.8
22342.6
22328.8
22316.5
22305.7
22296.5
22288.7
22282.6
22277.9
22274.9
22273.2
16138.6
16139.2
16140.6
16142.6
16145.4
16148.8
16152.9
16157.6
16163.1
16169.2
16176
16183.4
16191.5
16200.2
16209.6
16219.7
16230.3
16241.6
16253.6
16266.1
16279.3
16293
16307.4
16322.3
16337.8
16353.8
16370.4
16387.5
16405.1
16423.2
16441.8
16460.9
16480.4
16500.4
16520.8
16541.6
16562.7
16584.2
16606.1
16628.2
16650.7
16673.4
16696.4
16719.6
16743
16766.6
16790.4
16814.3
16838.2
16862.3
16886.4
16910.5
16934.6
16958.7
16982.8
17006.7
17030.6
17054.4
17078
17101.5
17124.8
17147.8
17170.6
17193.2
17215.5
17237.4
17259
17280.3
17301.1
17321.6
17341.7
17361.3
17380.4
17399.1
17417.2
17434.9
17452
17468.6
17484.6
17500
17514.8
17529.1
17542.7
17555.7
17568
17579.7
17590.8
17601.1
17610.9
17619.9
17628.3
17636
17643.1
17649.4
17655.1
17660.2
17664.5
17668.2
17671.3
17673.6
17675.4
17676.5
17677
17676.9
17676.2
17675
17673.1
17670.7
17667.7
17664.2
17660.2
17655.7
17650.8
17645.3
17639.4
17633.1
17626.4
17619.4
17612.1
17604.5
17596.6
17588.5
17580.1
17571.6
17562.8
17553.9
17544.9
17535.8
17526.5
17517.2
17507.9
17498.6
17489.3
17480
17470.7
17461.6
17452.5
17443.5
17434.7
17426
17417.5
17409.1
17401
17393.1
17385.4
17377.9
17370.7
17363.7
17357
17350.5
17344.3
17338.3
17332.5
17327.1
17322
17317.3
17312.9
17308.8
17305
17301.5
17298.3
17295.4
17292.8
17290.4
17288.2
17286.2
17284.5
17283.1
17281.9
17281.1
17280.5
17280.2
17280.1
17280.3
17280.7
17281.3
17282.2
17283.3
17284.6
17286.1
17287.8
17289.7
17291.8
17294.1
17296.6
17299.3
17302.2
17305.3
17308.6
17312.1
17315.7
17319.6
17323.6
17327.9
17332.4
17337
17341.9
17347
17352.4
17358
17363.8
17369.9
17376.3
17383
17390
17397.3
17404.9
17412.9
17421.2
17430
17439.1
17448.7
17458.7
17469.2
17480.2
17491.7
17503.7
17516.3
17529.4
17543.1
17557.5
17572.5
17588.1
17604.5
17621.5
17639.2
17657.7
17677
17697
17717.9
17739.6
17762.1
17785.4
17809.7
17834.8
17860.8
17887.8
17915.7
17944.7
17974.8
18005.9
18037.8
18070.6
18104.4
18139.3
18175.2
18212.1
18250.1
18289.2
18329.2
18370.2
18412.3
18455.4
18499.5
18544.7
18590.9
18638.3
18686.7
18736.1
18786.6
18838
18890.5
18943.8
18998.2
19053.5
19109.8
19167.2
19225.6
19285
19345.3
19406.4
19468.1
19530.3
19593.1
19656.4
19720.5
19785.3
19850.8
19916.9
19983.7
20051
20118.9
20187.3
20256.3
20325.6
20395.4
20465.5
20536
20606.7
20677.8
20749
20820.5
20892.2
20964
21035.9
21107.8
21179.8
21251.9
21323.9
21395.9
21467.8
21539.5
21611.2
21682.6
21753.8
21824.8
21895.5
21965.8
22035.8
22105.4
22174.6
22243.3
22311.5
22379.3
22446.4
22513
22579
22644.4
22709.1
22773.1
22836.3
22898.8
22960.6
23021.5
23081.6
23140.8
23199.2
23256.6
23313.1
23368.7
23423.4
23477.2
23529.9
23581.6
23632.3
23682
23730.5
23778
23824.5
23869.8
23914.1
23957.2
23999.2
24040.1
24079.8
24118.5
24155.9
24192.3
24227.5
24261.5
24294.4
24326.1
24356.7
24386.2
24414.5
24441.6
24467.6
24492.5
24516.2
24538.8
24560.3
24580.7
24600
24618.1
24635.2
24651.1
24666
24679.9
24692.6
24704.4
24715
24724.7
24733.3
24740.9
24747.6
24753.2
24757.9
24761.6
24764.4
24766.2
24767.2
24767.2
24766.3
24764.5
24761.9
24758.4
24754
24748.8
24742.8
24736
24728.3
24719.9
24710.6
24700.6
24689.9
24678.4
24666.1
24653.2
24639.5
24625.1
24610.1
24594.3
24578
24560.9
24543.2
24524.9
24505.9
24486.3
24466.1
24445.3
24423.9
24402
24379.5
24356.5
24332.9
24308.8
24284.3
24259.2
24233.7
24207.6
24181.1
24154
24126.6
24098.7
24070.3
24041.6
24012.4
23982.9
23953
23922.7
23892
23861
23829.7
23798
23766.1
23733.9
23701.6
23669.1
23636.4
23603.4
23570.2
23536.6
23502.9
23468.9
23434.8
23400.4
23365.9
23331.2
23296.4
23261.5
23226.5
23191.4
23156.1
23120.8
23085.5
23050.1
23014.7
22979.2
22943.8
22908.4
22873
22837.7
22802.5
22767.4
22732.5
22697.7
22663.2
22628.8
22594.8
22561.1
22527.8
22494.8
22462.3
22430.3
22398.8
22367.9
22337.7
22308.1
22279.4
22251.4
22224.4
22198.2
22173.1
22149
22126
22104.2
22083.7
22064.4
22046.4
22029.8
22014.5
22000.7
21988.4
21977.6
21968.3
21960.6
21954.4
21949.7
21946.7
21945
15810.6
15811.3
15812.6
15814.7
15817.4
15820.8
15824.9
15829.7
15835.1
15841.2
15848
15855.4
15863.5
15872.3
15881.7
15891.7
15902.4
15913.7
15925.7
15938.2
15951.4
15965.2
15979.5
15994.5
16010
16026
16042.6
16059.8
16077.4
16095.6
16114.2
16133.3
16152.8
16172.8
16193.2
16214
16235.2
16256.7
16278.6
16300.8
16323.3
16346.1
16369.1
16392.3
16415.8
16439.4
16463.2
16487.1
16511.1
16535.2
16559.3
16583.5
16607.6
16631.8
16655.9
16679.9
16703.8
16727.6
16751.2
16774.7
16798
16821.1
16844
16866.6
16888.9
16910.9
16932.5
16953.8
16974.7
16995.2
17015.3
17034.9
17054.1
17072.8
17090.9
17108.6
17125.8
17142.3
17158.4
17173.8
17188.7
17202.9
17216.5
17229.5
17241.9
17253.6
17264.6
17275
17284.8
17293.8
17302.2
17309.9
17317
17323.3
17329
17334.1
17338.4
17342.1
17345.1
17347.5
17349.2
17350.3
17350.8
17350.7
17350
17348.7
17346.8
17344.3
17341.4
17337.9
17333.8
17329.3
17324.3
17318.9
17313
17306.7
17300
17292.9
17285.6
17277.9
17270
17261.8
17253.4
17244.8
17236.1
17227.1
17218.1
17208.9
17199.6
17190.3
17180.9
17171.6
17162.2
17152.9
17143.6
17134.4
17125.3
17116.3
17107.5
17098.8
17090.2
17081.9
17073.7
17065.7
17058
17050.5
17043.3
17036.3
17029.6
17023.1
17016.8
17010.9
17005.2
16999.7
16994.6
16989.8
16985.2
16981.2
16977.5
16974
16970.9
16968
16965.3
16962.9
16960.7
16958.8
16957.1
16955.7
16954.6
16953.7
16953.2
16952.9
16952.8
16953
16953.4
16954
16954.9
16956
16957.2
16958.8
16960.5
16962.4
16964.5
16966.8
16969.3
16972.1
16975
16978
16981.3
16984.8
16988.4
16992.3
16996.4
17000.6
17005.1
17009.7
17014.6
17019.7
17025
17030.6
17036.4
17042.5
17048.9
17055.5
17062.5
17069.8
17077.4
17085.4
17093.7
17102.4
17111.5
17121.1
17131.1
17141.6
17152.6
17164
17176
17188.5
17201.6
17215.3
17229.6
17244.6
17260.2
17276.5
17293.5
17311.2
17329.7
17348.9
17368.9
17389.8
17411.4
17433.9
17457.3
17481.5
17506.6
17532.6
17559.5
17587.4
17616.3
17646.3
17677.3
17709.3
17742.2
17776.1
17810.9
17846.8
17883.7
17921.6
17960.6
18000.6
18041.7
18083.7
18126.9
18171
18216.2
18262.5
18309.8
18358.2
18407.6
18458.1
18509.5
18561.9
18615.2
18669.6
18724.8
18781.2
18838.6
18897
18956.4
19016.7
19077.7
19139.4
19201.7
19264.7
19328.3
19392.5
19457.4
19523
19589.2
19656
19723.3
19791.2
19859.6
19928.5
19997.9
20067.6
20137.8
20208.3
20279.1
20350.2
20421.5
20493
20564.7
20636.6
20708.5
20780.6
20852.7
20924.8
20996.9
21068.9
21140.8
21212.7
21284.4
21355.8
21427.1
21498.1
21568.9
21639.3
21709.3
21779
21848.2
21917
21985.3
22053
22120.3
22186.9
22253
22318.4
22383.1
22447.1
22510.4
22573
22634.8
22695.7
22755.9
22815.2
22873.6
22931.1
22987.7
23043.4
23098
23151.7
23204.5
23256.2
23306.9
23356.5
23405.1
23452.6
23499.1
23544.4
23588.7
23631.8
23673.8
23714.7
23754.5
23793.1
23830.6
23866.9
23902.1
23936.2
23969
24000.8
24031.4
24060.8
24089.1
24116.2
24142.2
24167.1
24190.8
24213.4
24234.9
24255.2
24274.5
24292.6
24309.7
24325.6
24340.5
24354.3
24367.1
24378.8
24389.5
24399.1
24407.7
24415.3
24421.9
24427.6
24432.2
24435.9
24438.7
24440.5
24441.4
24441.4
24440.5
24438.7
24436
24432.5
24428.1
24422.9
24416.8
24410
24402.3
24393.8
24384.6
24374.6
24363.8
24352.3
24340
24327
24313.3
24299
24283.9
24268.1
24251.7
24234.7
24217
24198.6
24179.7
24160.1
24139.9
24119.1
24097.7
24075.7
24053.2
24030.2
24006.6
23982.6
23958
23932.9
23907.3
23881.2
23854.6
23827.6
23800.1
23772.2
23743.8
23715.1
23685.9
23656.3
23626.4
23596.1
23565.4
23534.4
23503.1
23471.4
23439.5
23407.4
23375
23342.4
23309.6
23276.6
23243.3
23209.7
23175.9
23142
23107.8
23073.4
23038.9
23004.2
22969.4
22934.5
22899.5
22864.3
22829.1
22793.8
22758.4
22723
22687.6
22652.1
22616.7
22581.2
22545.9
22510.5
22475.3
22440.1
22405.2
22370.4
22335.8
22301.4
22267.3
22233.6
22200.2
22167.2
22134.6
22102.6
22071.1
22040.1
22009.8
21980.2
21951.4
21923.4
21896.2
21870
21844.8
21820.7
21797.6
21775.7
21755.1
21735.7
21717.6
21700.9
21685.6
21671.8
21659.4
21648.5
21639.2
21631.5
21625.3
21620.6
21617.5
21615.8
15482.2
15482.8
15484.2
15486.2
15489
15492.4
15496.5
15501.2
15506.7
15512.8
15519.6
15527
15535.1
15543.9
15553.3
15563.4
15574.1
15585.4
15597.4
15609.9
15623.1
15636.9
15651.3
15666.3
15681.8
15697.9
15714.5
15731.7
15749.3
15767.5
15786.2
15805.3
15824.9
15844.9
15865.3
15886.2
15907.4
15929
15950.9
15973.1
15995.7
16018.5
16041.6
16064.9
16088.4
16112
16135.9
16159.8
16183.9
16208
16232.2
16256.4
16280.6
16304.8
16328.9
16353
16377
16400.8
16424.6
16448.1
16471.5
16494.6
16517.5
16540.2
16562.5
16584.5
16606.2
16627.5
16648.5
16669
16689.1
16708.8
16728
16746.7
16765
16782.7
16799.8
16816.5
16832.5
16848
16862.9
16877.1
16890.8
16903.8
16916.2
16927.9
16939
16949.4
16959.1
16968.2
16976.6
16984.3
16991.4
16997.7
17003.4
17008.4
17012.8
17016.5
17019.5
17021.9
17023.6
17024.7
17025.1
17025
17024.2
17022.9
17021
17018.5
17015.5
17012
17007.9
17003.3
16998.3
16992.7
16986.8
16980.5
16973.7
16966.7
16959.3
16951.6
16943.6
16935.4
16926.9
16918.3
16909.4
16900.4
16891.3
16882.1
16872.7
16863.4
16854
16844.5
16835.1
16825.8
16816.4
16807.2
16798.1
16789
16780.1
16771.4
16762.8
16754.4
16746.3
16738.3
16730.5
16723
16715.7
16708.7
16702
16695.5
16689.2
16683.3
16677.6
16672.3
16667.3
16662.5
16658.1
16654
16650.1
16646.6
16643.4
16640.4
16637.7
16635.2
16633
16631.1
16629.4
16628.1
16627
16626.2
16625.6
16625.3
16625.3
16625.4
16625.9
16626.5
16627.4
16628.5
16629.8
16631.3
16633
16635
16637.1
16639.4
16641.9
16644.7
16647.5
16650.6
16653.9
16657.4
16661
16664.9
16668.9
16673.2
16677.6
16682.3
16687.1
16692.2
16697.5
16703.1
16708.9
16714.9
16721.3
16727.9
16734.8
16742.1
16749.7
16757.6
16765.9
16774.6
16783.7
16793.2
16803.1
16813.5
16824.4
16835.8
16847.8
16860.3
16873.4
16887
16901.3
16916.2
16931.8
16948
16965
16982.7
17001.1
17020.3
17040.2
17061
17082.6
17105.1
17128.4
17152.6
17177.7
17203.7
17230.6
17258.6
17287.5
17317.4
17348.3
17380.1
17413
17446.8
17481.7
17517.6
17554.5
17592.5
17631.5
17671.5
17712.5
17754.6
17797.7
17841.9
17887.1
17933.4
17980.8
18029.2
18078.6
18129.1
18180.6
18233
18286.4
18340.8
18396.2
18452.5
18509.8
18568.2
18627.5
18687.7
18748.7
18810.4
18872.7
18935.7
18999.4
19063.8
19128.8
19194.4
19260.7
19327.6
19395
19463
19531.5
19600.5
19669.9
19739.8
19810
19880.6
19951.4
20022.6
20094
20165.6
20237.4
20309.3
20381.3
20453.5
20525.6
20597.8
20670
20742.1
20814.1
20886
20957.7
21029.3
21100.7
21171.7
21242.5
21313
21383.1
21452.9
21522.2
21591
21659.4
21727.3
21794.6
21861.3
21927.4
21992.9
22057.7
22121.7
22185.1
22247.7
22309.6
22370.6
22430.8
22490.1
22548.5
22606.1
22662.7
22718.4
22773.1
22826.9
22879.6
22931.4
22982.1
23031.8
23080.4
23127.9
23174.4
23219.8
23264.1
23307.2
23349.2
23390.1
23429.9
23468.5
23506
23542.4
23577.5
23611.6
23644.5
23676.2
23706.8
23736.2
23764.5
23791.6
23817.6
23842.4
23866.1
23888.7
23910.2
23930.5
23949.8
23967.9
23984.9
24000.9
24015.7
24029.5
24042.2
24053.9
24064.6
24074.2
24082.8
24090.3
24096.9
24102.5
24107.2
24110.8
24113.6
24115.3
24116.2
24116.2
24115.2
24113.4
24110.7
24107.2
24102.7
24097.5
24091.4
24084.5
24076.8
24068.3
24059
24049
24038.2
24026.6
24014.4
24001.4
23987.6
23973.2
23958.2
23942.4
23926
23908.9
23891.2
23872.8
23853.8
23834.2
23814
23793.2
23771.8
23749.8
23727.3
23704.2
23680.6
23656.4
23631.8
23606.7
23581
23554.9
23528.4
23501.3
23473.8
23445.9
23417.5
23388.7
23359.5
23329.9
23300
23269.6
23239
23207.9
23176.6
23145
23113
23080.9
23048.4
23015.8
22982.9
22949.8
22916.5
22882.9
22849.1
22815.1
22780.9
22746.5
22712
22677.3
22642.5
22607.6
22572.5
22537.4
22502.1
22466.8
22431.4
22396
22360.5
22325
22289.5
22254.1
22218.6
22183.3
22148
22112.8
22077.7
22042.9
22008.2
21973.8
21939.6
21905.8
21872.3
21839.2
21806.5
21774.3
21742.6
21711.7
21681.3
21651.5
21622.6
21594.5
21567.2
21540.9
21515.6
21491.3
21468.1
21445.9
21425.2
21405.8
21387.7
21370.9
21355.5
21341.6
21329.2
21318.3
21309
21301.2
21295
21290.3
21287.1
21285.5
15153.2
15153.9
15155.2
15157.3
15160
15163.4
15167.5
15172.3
15177.7
15183.9
15190.6
15198.1
15206.2
15215
15224.5
15234.5
15245.3
15256.6
15268.6
15281.2
15294.4
15308.2
15322.6
15337.6
15353.2
15369.3
15386
15403.2
15420.9
15439.1
15457.8
15477
15496.6
15516.7
15537.2
15558.1
15579.3
15601
15622.9
15645.2
15667.8
15690.7
15713.9
15737.2
15760.8
15784.5
15808.4
15832.5
15856.6
15880.8
15905.1
15929.3
15953.6
15977.9
16002.1
16026.3
16050.3
16074.2
16098
16121.7
16145.1
16168.3
16191.2
16213.9
16236.3
16258.4
16280.2
16301.6
16322.6
16343.2
16363.3
16383.1
16402.3
16421.1
16439.4
16457.1
16474.3
16491
16507.1
16522.6
16537.5
16551.8
16565.5
16578.5
16590.9
16602.7
16613.8
16624.2
16634
16643
16651.4
16659.2
16666.2
16672.6
16678.3
16683.3
16687.6
16691.3
16694.3
16696.6
16698.3
16699.4
16699.8
16699.7
16698.9
16697.5
16695.5
16693
16689.9
16686.3
16682.2
16677.6
16672.5
16666.9
16661
16654.6
16647.8
16640.6
16633.2
16625.4
16617.3
16609
16600.5
16591.8
16582.9
16573.8
16564.6
16555.3
16545.9
16536.5
16527
16517.5
16508
16498.6
16489.2
16479.9
16470.7
16461.7
16452.7
16443.9
16435.3
16426.9
16418.7
16410.7
16402.9
16395.3
16388.1
16381
16374.2
16367.7
16361.5
16355.5
16349.8
16344.4
16339.3
16334.6
16330.1
16326
16322.3
16318.8
16315.6
16312.6
16309.9
16307.5
16305.3
16303.4
16301.8
16300.4
16299.4
16298.6
16298
16297.7
16297.6
16297.8
16298.3
16298.9
16299.8
16300.9
16302.2
16303.7
16305.5
16307.4
16309.5
16311.9
16314.4
16317.1
16320
16323.1
16326.4
16329.8
16333.5
16337.3
16341.4
16345.6
16350
16354.6
16359.5
16364.5
16369.8
16375.4
16381.1
16387.2
16393.5
16400.1
16406.9
16414.1
16421.7
16429.6
16437.8
16446.4
16455.5
16464.9
16474.8
16485.2
16496
16507.4
16519.3
16531.7
16544.7
16558.3
16572.5
16587.4
16602.9
16619.1
16636
16653.6
16671.9
16691.1
16711
16731.7
16753.3
16775.7
16799
16823.1
16848.2
16874.2
16901.1
16928.9
16957.7
16987.6
17018.4
17050.2
17083.1
17116.9
17151.7
17187.6
17224.5
17262.4
17301.4
17341.4
17382.5
17424.6
17467.8
17512
17557.3
17603.6
17651
17699.4
17748.9
17799.3
17850.8
17903.3
17956.8
18011.3
18066.7
18123.1
18180.5
18238.8
18298.1
18358.2
18419.2
18480.9
18543.3
18606.4
18670.2
18734.6
18799.7
18865.5
18931.9
18998.8
19066.4
19134.5
19203.1
19272.1
19341.6
19411.6
19481.9
19552.5
19623.5
19694.7
19766.2
19837.9
19909.8
19981.8
20053.9
20126.2
20198.4
20270.7
20343
20415.2
20487.3
20559.3
20631.2
20702.8
20774.3
20845.5
20916.4
20986.9
21057.2
21127
21196.4
21265.3
21333.8
21401.7
21469.1
21535.9
21602.1
21667.7
21732.6
21796.7
21860.2
21922.9
21984.8
22045.9
22106.1
22165.5
22224.1
22281.7
22338.4
22394.1
22448.9
22502.7
22555.5
22607.3
22658
22707.8
22756.4
22804
22850.5
22895.9
22940.2
22983.3
23025.4
23066.3
23106.1
23144.7
23182.2
23218.6
23253.7
23287.8
23320.7
23352.4
23382.9
23412.4
23440.6
23467.8
23493.7
23518.6
23542.3
23564.8
23586.3
23606.6
23625.8
23643.9
23660.9
23676.8
23691.6
23705.4
23718.1
23729.7
23740.3
23749.9
23758.5
23766
23772.6
23778.1
23782.7
23786.4
23789.1
23790.8
23791.6
23791.6
23790.6
23788.7
23786
23782.4
23777.9
23772.6
23766.5
23759.6
23751.8
23743.3
23734
23723.9
23713
23701.4
23689.1
23676.1
23662.4
23647.9
23632.8
23617
23600.5
23583.4
23565.7
23547.3
23528.3
23508.6
23488.4
23467.5
23446.1
23424.1
23401.6
23378.5
23354.8
23330.7
23306
23280.8
23255.2
23229
23202.4
23175.3
23147.8
23119.8
23091.4
23062.6
23033.4
23003.8
22973.8
22943.4
22912.7
22881.7
22850.3
22818.7
22786.7
22754.5
22722.1
22689.4
22656.4
22623.3
22589.9
22556.3
22522.5
22488.4
22454.2
22419.8
22385.3
22350.6
22315.7
22280.8
22245.7
22210.5
22175.2
22139.9
22104.5
22069
22033.5
21997.9
21962.4
21926.9
21891.4
21856
21820.6
21785.4
21750.3
21715.3
21680.6
21646
21611.8
21577.8
21544.2
21511
21478.2
21445.9
21414.1
21382.9
21352.3
21322.4
21293.3
21265
21237.6
21211.1
21185.6
21161.2
21138
21116
21094.9
21075.2
21056.9
21040
21024.5
21010.5
20998
20987
20977.6
20969.8
20963.5
20958.8
20955.7
20954
14823.8
14824.4
14825.8
14827.8
14830.5
14834
14838
14842.8
14848.3
14854.4
14861.3
14868.7
14876.9
14885.7
14895.1
14905.3
14916
14927.4
14939.4
14952
14965.3
14979.1
14993.6
15008.6
15024.2
15040.4
15057.1
15074.3
15092.1
15110.3
15129.1
15148.3
15168
15188.1
15208.7
15229.7
15251
15272.7
15294.8
15317.1
15339.8
15362.8
15386
15409.4
15433.1
15456.9
15480.9
15505
15529.2
15553.5
15577.9
15602.2
15626.6
15651
15675.3
15699.5
15723.7
15747.7
15771.6
15795.3
15818.8
15842.1
15865.1
15887.9
15910.4
15932.5
15954.4
15975.8
15996.9
16017.6
16037.8
16057.6
16076.9
16095.8
16114.1
16131.9
16149.2
16165.9
16182
16197.6
16212.6
16226.9
16240.6
16253.7
16266.1
16277.9
16289
16299.5
16309.2
16318.3
16326.8
16334.5
16341.5
16347.9
16353.6
16358.6
16362.9
16366.6
16369.5
16371.9
16373.5
16374.6
16375
16374.7
16373.9
16372.5
16370.5
16367.9
16364.8
16361.1
16356.9
16352.2
16347
16341.4
16335.3
16328.9
16322
16314.8
16307.3
16299.4
16291.3
16282.9
16274.3
16265.4
16256.4
16247.3
16238
16228.6
16219.1
16209.6
16200
16190.5
16180.9
16171.4
16162
16152.6
16143.3
16134.2
16125.2
16116.3
16107.7
16099.2
16090.9
16082.8
16074.9
16067.4
16060.1
16053.1
16046.3
16039.7
16033.5
16027.5
16021.9
16016.5
16011.5
16006.8
16002.3
15998.2
15994.4
15990.8
15987.6
15984.6
15981.9
15979.5
15977.3
15975.4
15973.8
15972.5
15971.4
15970.6
15970.1
15969.8
15969.8
15970
15970.5
15971.1
15972
15973.1
15974.5
15976
15977.8
15979.7
15981.8
15984.2
15986.7
15989.4
15992.3
15995.4
15998.7
16002.2
16005.8
16009.6
16013.6
16017.9
16022.3
16026.9
16031.7
16036.7
16042
16047.5
16053.2
16059.2
16065.5
16072
16078.8
16086
16093.4
16101.3
16109.5
16118
16127
16136.4
16146.2
16156.5
16167.3
16178.5
16190.3
16202.7
16215.6
16229.1
16243.3
16258.1
16273.5
16289.6
16306.4
16324
16342.3
16361.3
16381.2
16401.8
16423.3
16445.7
16468.9
16493
16518
16543.9
16570.7
16598.6
16627.4
16657.1
16687.9
16719.7
16752.5
16786.3
16821.1
16856.9
16893.8
16931.7
16970.7
17010.7
17051.8
17093.9
17137.1
17181.3
17226.6
17273
17320.4
17368.8
17418.3
17468.9
17520.4
17572.9
17626.5
17681
17736.5
17792.9
17850.3
17908.7
17968
18028.1
18089.1
18150.8
18213.3
18276.5
18340.4
18405
18470.2
18536.1
18602.6
18669.7
18737.3
18805.5
18874.2
18943.4
19013
19083.1
19153.5
19224.3
19295.3
19366.7
19438.3
19510.1
19582.1
19654.3
19726.5
19798.9
19871.3
19943.7
20016.1
20088.4
20160.6
20232.8
20304.7
20376.5
20448.1
20519.4
20590.4
20661.1
20731.5
20801.4
20870.9
20940
21008.6
21076.6
21144.1
21211.1
21277.4
21343
21408
21472.3
21535.8
21598.6
21660.6
21721.8
21782.1
21841.6
21900.2
21957.9
22014.7
22070.5
22125.3
22179.2
22232.1
22283.9
22334.7
22384.5
22433.2
22480.8
22527.3
22572.7
22617
22660.2
22702.3
22743.2
22783
22821.7
22859.2
22895.5
22930.7
22964.8
22997.6
23029.4
23059.9
23089.3
23117.6
23144.7
23170.6
23195.4
23219.1
23241.7
23263.1
23283.4
23302.5
23320.6
23337.6
23353.5
23368.3
23382
23394.6
23406.3
23416.8
23426.4
23434.9
23442.4
23448.9
23454.4
23458.9
23462.5
23465.2
23466.9
23467.7
23467.5
23466.5
23464.6
23461.8
23458.1
23453.6
23448.3
23442.1
23435.1
23427.3
23418.7
23409.4
23399.2
23388.4
23376.7
23364.4
23351.3
23337.5
23323
23307.9
23292
23275.5
23258.4
23240.6
23222.2
23203.1
23183.4
23163.2
23142.3
23120.8
23098.8
23076.2
23053
23029.4
23005.2
22980.4
22955.2
22929.5
22903.3
22876.7
22849.6
22822
22794
22765.5
22736.7
22707.4
22677.8
22647.8
22617.4
22586.6
22555.6
22524.2
22492.5
22460.5
22428.3
22395.8
22363
22330
22296.8
22263.4
22229.7
22195.9
22161.8
22127.6
22093.2
22058.6
22023.9
21989
21954
21918.9
21883.7
21848.4
21813
21777.5
21742
21706.4
21670.9
21635.3
21599.7
21564.1
21528.6
21493.2
21457.9
21422.6
21387.6
21352.7
21318.1
21283.7
21249.6
21215.8
21182.4
21149.5
21117
21085
21053.6
21022.9
20992.8
20963.5
20935
20907.3
20880.7
20855
20830.3
20806.8
20784.5
20763.4
20743.6
20725.1
20708
20692.4
20678.3
20665.7
20654.6
20645.1
20637.3
20631
20626.2
20623
20621.3
14493.8
14494.5
14495.8
14497.9
14500.6
14504
14508.1
14512.9
14518.4
14524.6
14531.4
14538.9
14547.1
14555.9
14565.4
14575.5
14586.3
14597.7
14609.8
14622.4
14635.7
14649.6
14664.1
14679.2
14694.8
14711
14727.8
14745.1
14762.9
14781.2
14800
14819.3
14839.1
14859.3
14879.9
14901
14922.4
14944.2
14966.3
14988.8
15011.6
15034.6
15057.9
15081.5
15105.2
15129.1
15153.2
15177.4
15201.8
15226.2
15250.6
15275.1
15299.6
15324.1
15348.5
15372.9
15397.1
15421.2
15445.2
15469
15492.6
15516
15539.2
15562
15584.6
15606.9
15628.8
15650.3
15671.5
15692.3
15712.6
15732.5
15751.9
15770.8
15789.2
15807.1
15824.4
15841.2
15857.4
15873
15888
15902.4
15916.2
15929.3
15941.8
15953.6
15964.7
15975.2
15985
15994.1
16002.5
16010.3
16017.3
16023.7
16029.4
16034.3
16038.6
16042.3
16045.2
16047.5
16049.2
16050.2
16050.5
16050.2
16049.4
16047.9
16045.8
16043.1
16039.9
16036.2
16031.9
16027.1
16021.9
16016.2
16010
16003.5
15996.5
15989.2
15981.6
15973.6
15965.4
15956.9
15948.1
15939.2
15930.1
15920.8
15911.4
15901.9
15892.4
15882.7
15873.1
15863.4
15853.8
15844.2
15834.6
15825.2
15815.8
15806.6
15797.5
15788.6
15779.9
15771.4
15763
15754.9
15747.1
15739.5
15732.1
15725
15718.1
15711.6
15705.3
15699.3
15693.6
15688.2
15683.1
15678.3
15673.8
15669.8
15666.1
15662.6
15659.4
15656.4
15653.7
15651.3
15649.2
15647.3
15645.7
15644.4
15643.4
15642.6
15642.1
15641.8
15641.8
15642
15642.5
15643.2
15644.1
15645.2
15646.6
15648.1
15649.9
15651.9
15654
15656.4
15658.9
15661.6
15664.5
15667.6
15670.9
15674.3
15678
15681.8
15685.8
15690
15694.4
15699
15703.8
15708.8
15714
15719.4
15725.1
15731
15737.2
15743.7
15750.5
15757.6
15765
15772.7
15780.8
15789.3
15798.2
15807.5
15817.3
15827.5
15838.1
15849.3
15861
15873.3
15886.1
15899.6
15913.6
15928.3
15943.6
15959.6
15976.4
15993.8
16012
16031
16050.8
16071.4
16092.8
16115.1
16138.2
16162.2
16187.2
16213
16239.8
16267.6
16296.3
16326
16356.7
16388.4
16421.1
16454.9
16489.7
16525.5
16562.3
16600.2
16639.2
16679.2
16720.3
16762.4
16805.6
16849.9
16895.2
16941.6
16989
17037.5
17087.1
17137.6
17189.2
17241.8
17295.4
17350
17405.5
17462.1
17519.5
17578
17637.3
17697.5
17758.5
17820.3
17882.8
17946.1
18010.2
18074.9
18140.2
18206.2
18272.9
18340.1
18407.9
18476.2
18545.1
18614.4
18684.1
18754.3
18824.9
18895.8
18967
19038.5
19110.2
19182.2
19254.3
19326.6
19399
19471.5
19544
19616.6
19689.1
19761.6
19834
19906.3
19978.4
20050.4
20122.1
20193.5
20264.7
20335.5
20406
20476.1
20545.8
20615
20683.7
20751.9
20819.5
20886.6
20953
21018.8
21083.9
21148.3
21212
21274.9
21337
21398.3
21458.7
21518.3
21577
21634.8
21691.6
21747.5
21802.5
21856.4
21909.3
21961.2
22012.1
22061.9
22110.7
22158.3
22204.9
22250.3
22294.7
22337.9
22380
22421
22460.8
22499.4
22537
22573.3
22608.5
22642.5
22675.4
22707.1
22737.7
22767.1
22795.3
22822.4
22848.3
22873.1
22896.8
22919.3
22940.6
22960.9
22980
22998.1
23015
23030.8
23045.6
23059.3
23071.9
23083.5
23094
23103.5
23111.9
23119.4
23125.8
23131.3
23135.8
23139.3
23141.9
23143.5
23144.3
23144.1
23143
23141
23138.2
23134.4
23129.9
23124.5
23118.2
23111.2
23103.3
23094.7
23085.3
23075.1
23064.1
23052.4
23040
23026.9
23013.1
22998.5
22983.3
22967.4
22950.9
22933.7
22915.8
22897.4
22878.3
22858.5
22838.2
22817.3
22795.8
22773.7
22751.1
22727.9
22704.2
22679.9
22655.2
22629.9
22604.2
22578
22551.3
22524.1
22496.5
22468.4
22439.9
22411
22381.7
22352
22322
22291.5
22260.8
22229.7
22198.2
22166.5
22134.5
22102.2
22069.6
22036.8
22003.8
21970.5
21937.1
21903.4
21869.4
21835.3
21801.1
21766.6
21732
21697.2
21662.3
21627.3
21592.1
21556.9
21521.5
21486.1
21450.6
21415
21379.4
21343.8
21308.1
21272.4
21236.8
21201.2
21165.7
21130.2
21094.9
21059.8
21024.8
20990
20955.4
20921.1
20887.2
20853.6
20820.5
20787.8
20755.6
20724
20693
20662.6
20633.1
20604.3
20576.4
20549.5
20523.5
20498.7
20474.9
20452.4
20431
20411
20392.4
20375.1
20359.3
20345
20332.3
20321.1
20311.6
20303.6
20297.2
20292.4
20289.2
20287.5
14163.4
14164
14165.4
14167.4
14170.2
14173.6
14177.7
14182.5
14188
14194.2
14201.1
14208.6
14216.8
14225.6
14235.2
14245.3
14256.1
14267.6
14279.7
14292.4
14305.7
14319.7
14334.2
14349.3
14365
14381.3
14398.1
14415.5
14433.4
14451.8
14470.7
14490
14509.9
14530.2
14550.9
14572
14593.5
14615.4
14637.7
14660.2
14683.1
14706.3
14729.7
14753.3
14777.2
14801.2
14825.4
14849.8
14874.2
14898.8
14923.4
14948
14972.6
14997.2
15021.8
15046.2
15070.6
15094.9
15119
15142.9
15166.6
15190.1
15213.4
15236.4
15259.1
15281.4
15303.5
15325.1
15346.4
15367.2
15387.7
15407.6
15427.1
15446.1
15464.6
15482.6
15500
15516.9
15533.2
15548.8
15563.9
15578.3
15592.2
15605.3
15617.8
15629.7
15640.9
15651.4
15661.2
15670.3
15678.8
15686.5
15693.6
15699.9
15705.6
15710.6
15714.9
15718.5
15721.4
15723.7
15725.2
15726.2
15726.5
15726.2
15725.2
15723.7
15721.5
15718.8
15715.5
15711.7
15707.3
15702.4
15697.1
15691.3
15685
15678.3
15671.3
15663.8
15656.1
15648
15639.6
15631
15622.2
15613.1
15603.9
15594.5
15585
15575.3
15565.6
15555.9
15546.1
15536.3
15526.6
15516.9
15507.2
15497.7
15488.2
15478.9
15469.8
15460.8
15452
15443.4
15435
15426.8
15418.9
15411.2
15403.8
15396.7
15389.8
15383.2
15376.9
15370.9
15365.3
15359.9
15354.9
15350.2
15345.8
15341.6
15337.8
15334.3
15331.1
15328
15325.3
15322.9
15320.8
15319
15317.4
15316.1
15315.1
15314.4
15313.9
15313.6
15313.6
15313.9
15314.4
15315.1
15316
15317.2
15318.5
15320.1
15321.9
15323.9
15326
15328.4
15330.9
15333.7
15336.6
15339.7
15343
15346.4
15350
15353.8
15357.8
15362
15366.4
15370.9
15375.7
15380.6
15385.8
15391.2
15396.8
15402.7
15408.8
15415.3
15422
15429
15436.3
15443.9
15452
15460.4
15469.1
15478.3
15488
15498.1
15508.7
15519.7
15531.4
15543.5
15556.2
15569.5
15583.5
15598
15613.3
15629.2
15645.8
15663.2
15681.3
15700.2
15719.8
15740.3
15761.6
15783.8
15806.9
15830.8
15855.6
15881.4
15908.1
15935.8