/*--------------------------------*- C++ -*----------------------------------*\
| =========                 |                                                 |
| \\      /  F ield         | OpenFOAM: The Open Source CFD Toolbox           |
|  \\    /   O peration     | Version:  v2006                                 |
|   \\  /    A nd           | Website:  www.openfoam.com                      |
|    \\/     M anipulation  |                                                 |
\*---------------------------------------------------------------------------*/
FoamFile
{
    version     2.0;
    format      ascii;
    class       volScalarField;
    location    "12";
    object      p_rgh;
}
// * * * * * * * * * * * * * * * * * * * * * * * * * * * * * * * * * * * * * //

dimensions      [1 -1 -2 0 0 0 0];


internalField   nonuniform List<scalar> 
150000
(
-2990.42
-2989.77
-2988.42
-2986.38
-2983.65
-2980.24
-2976.15
-2971.38
-2965.94
-2959.84
-2953.07
-2945.64
-2937.55
-2928.81
-2919.42
-2909.39
-2898.72
-2887.42
-2875.49
-2862.95
-2849.8
-2836.05
-2821.72
-2806.81
-2791.33
-2775.3
-2758.73
-2741.63
-2724.02
-2705.91
-2687.32
-2668.26
-2648.74
-2628.8
-2608.43
-2587.67
-2566.54
-2545.04
-2523.21
-2501.05
-2478.61
-2455.88
-2432.91
-2409.71
-2386.31
-2362.73
-2339
-2315.14
-2291.18
-2267.15
-2243.07
-2218.97
-2194.87
-2170.79
-2146.76
-2122.8
-2098.94
-2075.18
-2051.57
-2028.11
-2004.85
-1981.8
-1959
-1936.46
-1914.21
-1892.28
-1870.68
-1849.45
-1828.6
-1808.14
-1788.12
-1768.53
-1749.4
-1730.75
-1712.6
-1694.97
-1677.86
-1661.31
-1645.32
-1629.9
-1615.08
-1600.86
-1587.26
-1574.28
-1561.94
-1550.24
-1539.2
-1528.81
-1519.09
-1510.03
-1501.65
-1493.94
-1486.9
-1480.54
-1474.85
-1469.83
-1465.47
-1461.77
-1458.73
-1456.33
-1454.56
-1453.43
-1452.91
-1452.99
-1453.67
-1454.94
-1456.77
-1459.17
-1462.11
-1465.58
-1469.57
-1474.06
-1479.04
-1484.48
-1490.37
-1496.67
-1503.34
-1510.35
-1517.67
-1525.27
-1533.14
-1541.24
-1549.56
-1558.09
-1566.81
-1575.68
-1584.69
-1593.81
-1603.01
-1612.28
-1621.58
-1630.9
-1640.21
-1649.48
-1658.71
-1667.86
-1676.92
-1685.87
-1694.7
-1703.38
-1711.89
-1720.23
-1728.36
-1736.27
-1743.95
-1751.39
-1758.59
-1765.54
-1772.28
-1778.77
-1785.04
-1791.05
-1796.8
-1802.27
-1807.41
-1812.19
-1816.6
-1820.68
-1824.39
-1827.77
-1830.87
-1833.74
-1836.42
-1838.89
-1841.12
-1843.08
-1844.77
-1846.18
-1847.33
-1848.2
-1848.81
-1849.15
-1849.24
-1849.07
-1848.66
-1848.02
-1847.15
-1846.07
-1844.77
-1843.27
-1841.56
-1839.65
-1837.53
-1835.22
-1832.72
-1830.02
-1827.13
-1824.04
-1820.76
-1817.29
-1813.63
-1809.77
-1805.72
-1801.46
-1796.99
-1792.32
-1787.42
-1782.31
-1776.95
-1771.36
-1765.51
-1759.39
-1753
-1746.32
-1739.33
-1732.02
-1724.38
-1716.38
-1708.01
-1699.24
-1690.08
-1680.48
-1670.44
-1659.93
-1648.92
-1637.39
-1625.34
-1612.76
-1599.6
-1585.85
-1571.52
-1556.54
-1540.89
-1524.55
-1507.51
-1489.75
-1471.23
-1451.95
-1431.89
-1411.01
-1389.3
-1366.75
-1343.34
-1319.1
-1294.01
-1268.08
-1241.32
-1213.59
-1184.71
-1154.57
-1123.28
-1091.06
-1058
-1024.07
-989.217
-953.402
-916.569
-878.697
-839.777
-799.788
-758.723
-716.592
-673.417
-629.218
-583.989
-537.72
-490.405
-442.045
-392.648
-342.227
-290.796
-238.374
-184.969
-130.582
-75.2082
-18.8425
38.5193
96.857
156.114
216.201
277.051
338.62
400.886
463.832
527.436
591.671
656.541
722.033
788.138
854.838
922.111
989.93
1058.27
1127.09
1196.38
1266.07
1336.16
1406.58
1477.32
1548.34
1619.6
1691.07
1762.72
1834.51
1906.41
1978.38
2050.4
2122.43
2194.44
2266.39
2338.26
2410.01
2481.6
2553.01
2624.2
2695.13
2765.78
2836.1
2906.07
2975.64
3044.8
3113.51
3181.73
3249.43
3316.59
3383.17
3449.14
3514.48
3579.15
3643.12
3706.37
3768.87
3830.6
3891.52
3951.6
4010.84
4069.2
4126.65
4183.19
4238.81
4293.53
4347.22
4399.88
4451.46
4502.08
4551.69
4600.26
4647.76
4694.19
4739.53
4783.77
4826.89
4868.9
4909.79
4949.54
4988.16
5025.64
5061.97
5097.16
5131.2
5164.09
5195.83
5226.42
5255.87
5284.17
5311.32
5337.33
5362.21
5385.95
5408.57
5430.06
5450.44
5469.71
5487.88
5504.95
5520.93
5535.83
5549.67
5562.44
5574.17
5584.85
5594.51
5603.15
5610.78
5617.42
5623.08
5627.77
5631.51
5634.3
5636.16
5637.1
5637.13
5636.26
5634.51
5631.87
5628.38
5624.03
5618.84
5612.81
5605.98
5598.33
5589.89
5580.67
5570.67
5559.92
5548.42
5536.19
5523.23
5509.57
5495.21
5480.16
5464.43
5448.04
5431
5413.3
5394.97
5376.01
5356.43
5336.23
5315.44
5294.07
5272.13
5249.64
5226.61
5203.06
5179.01
5154.45
5129.39
5103.83
5077.77
5051.24
5024.23
4996.77
4968.87
4940.54
4911.8
4882.66
4853.12
4823.21
4792.92
4762.26
4731.24
4699.88
4668.21
4636.3
4604.19
4571.92
4539.47
4506.81
4473.9
4440.7
4407.23
4373.49
4339.53
4305.36
4271.01
4236.49
4201.83
4167.03
4132.11
4097.08
4061.95
4026.74
3991.46
3956.12
3920.73
3885.32
3849.89
3814.47
3779.07
3743.71
3708.43
3673.23
3638.14
3603.21
3568.46
3533.93
3499.64
3465.63
3431.94
3398.62
3365.69
3333.22
3301.25
3269.81
3238.95
3208.74
3179.25
3150.52
3122.61
3095.59
3069.5
3044.4
3020.35
2997.42
2975.65
2955.11
2935.85
2917.89
2901.29
2886.09
2872.32
2860.03
2849.23
2839.96
2832.24
2826.07
2821.41
2818.4
2816.7
-2990.9
-2990.27
-2988.92
-2986.87
-2984.13
-2980.71
-2976.62
-2971.85
-2966.41
-2960.31
-2953.54
-2946.11
-2938.02
-2929.27
-2919.88
-2909.84
-2899.17
-2887.86
-2875.93
-2863.38
-2850.22
-2836.47
-2822.13
-2807.21
-2791.73
-2775.69
-2759.11
-2742
-2724.38
-2706.26
-2687.65
-2668.58
-2649.05
-2629.09
-2608.72
-2587.95
-2566.8
-2545.29
-2523.44
-2501.27
-2478.81
-2456.07
-2433.09
-2409.87
-2386.45
-2362.85
-2339.11
-2315.23
-2291.25
-2267.2
-2243.1
-2218.98
-2194.87
-2170.77
-2146.73
-2122.76
-2098.88
-2075.11
-2051.48
-2028.02
-2004.74
-1981.68
-1958.85
-1936.3
-1914.03
-1892.08
-1870.47
-1849.22
-1828.35
-1807.89
-1787.84
-1768.24
-1749.1
-1730.44
-1712.27
-1694.63
-1677.51
-1660.94
-1644.94
-1629.51
-1614.68
-1600.45
-1586.83
-1573.85
-1561.5
-1549.79
-1538.74
-1528.35
-1518.62
-1509.57
-1501.18
-1493.46
-1486.43
-1480.06
-1474.37
-1469.35
-1464.99
-1461.29
-1458.25
-1455.85
-1454.09
-1452.97
-1452.46
-1452.56
-1453.26
-1454.54
-1456.39
-1458.8
-1461.78
-1465.27
-1469.27
-1473.76
-1478.75
-1484.2
-1490.09
-1496.39
-1503.07
-1510.08
-1517.41
-1525.02
-1532.89
-1541.01
-1549.36
-1557.92
-1566.66
-1575.56
-1584.6
-1593.74
-1602.97
-1612.25
-1621.58
-1630.91
-1640.24
-1649.53
-1658.78
-1667.95
-1677.02
-1685.98
-1694.81
-1703.5
-1712.02
-1720.36
-1728.5
-1736.43
-1744.13
-1751.59
-1758.82
-1765.79
-1772.51
-1779
-1785.25
-1791.25
-1796.97
-1802.38
-1807.46
-1812.2
-1816.55
-1820.74
-1824.54
-1828.01
-1831.18
-1834.06
-1836.69
-1839.1
-1841.3
-1843.27
-1844.98
-1846.42
-1847.56
-1848.42
-1849.01
-1849.33
-1849.41
-1849.24
-1848.83
-1848.19
-1847.33
-1846.25
-1844.95
-1843.44
-1841.72
-1839.81
-1837.69
-1835.37
-1832.86
-1830.16
-1827.26
-1824.17
-1820.9
-1817.43
-1813.76
-1809.91
-1805.85
-1801.6
-1797.14
-1792.47
-1787.58
-1782.47
-1777.12
-1771.53
-1765.69
-1759.58
-1753.2
-1746.52
-1739.55
-1732.25
-1724.61
-1716.63
-1708.27
-1699.52
-1690.37
-1680.79
-1670.77
-1660.29
-1649.33
-1637.81
-1625.79
-1613.22
-1600.08
-1586.36
-1571.99
-1557
-1541.36
-1525.04
-1508.01
-1490.26
-1471.77
-1452.51
-1432.46
-1411.6
-1389.93
-1367.42
-1344.06
-1319.81
-1294.68
-1268.68
-1241.75
-1213.83
-1184.82
-1154.7
-1123.64
-1091.7
-1058.86
-1025.05
-990.221
-954.312
-917.357
-879.368
-840.346
-800.305
-759.258
-717.205
-674.131
-630.007
-584.822
-538.563
-491.232
-442.84
-393.404
-342.947
-291.488
-239.05
-185.652
-131.304
-75.992
-19.6767
37.6836
96.0989
155.521
215.843
276.91
338.584
400.793
463.553
526.948
591.05
655.841
721.308
787.424
854.164
921.503
989.41
1057.84
1126.75
1196.11
1265.87
1335.99
1406.45
1477.21
1548.25
1619.53
1691.01
1762.67
1834.46
1906.36
1978.33
2050.35
2122.38
2194.39
2266.36
2338.25
2410.03
2481.66
2553.11
2624.33
2695.29
2765.96
2836.31
2906.29
2975.89
3045.06
3113.79
3182.03
3249.76
3316.94
3383.54
3449.54
3514.9
3579.59
3643.58
3706.84
3769.34
3831.07
3891.99
3952.08
4011.31
4069.66
4127.11
4183.63
4239.21
4293.95
4347.66
4400.37
4452.13
4502.82
4552.46
4601.04
4648.55
4694.98
4740.32
4784.56
4827.69
4869.71
4910.59
4950.35
4988.97
5026.45
5062.78
5097.97
5132.01
5164.89
5196.63
5227.22
5256.66
5284.96
5312.1
5338.11
5362.98
5386.72
5409.33
5430.82
5451.19
5470.45
5488.61
5505.67
5521.65
5536.55
5550.37
5563.14
5574.86
5585.53
5595.18
5603.81
5611.43
5618.06
5623.71
5628.39
5632.11
5634.89
5636.74
5637.67
5637.69
5636.81
5635.04
5632.4
5628.89
5624.53
5619.33
5613.31
5606.46
5598.81
5590.36
5581.13
5571.13
5560.37
5548.86
5536.63
5523.67
5510
5495.63
5480.58
5464.85
5448.46
5431.41
5413.71
5395.38
5376.42
5356.83
5336.63
5315.83
5294.44
5272.49
5249.99
5226.95
5203.4
5179.35
5154.79
5129.73
5104.16
5078.1
5051.56
5024.54
4997.07
4969.17
4940.83
4912.09
4882.94
4853.4
4823.48
4793.19
4762.53
4731.52
4700.16
4668.49
4636.55
4604.41
4572.1
4539.6
4506.87
4473.9
4440.66
4407.15
4373.4
4339.42
4305.25
4270.9
4236.38
4201.72
4166.92
4132.01
4096.98
4061.86
4026.62
3991.34
3956
3920.6
3885.18
3849.74
3814.31
3778.9
3743.53
3708.24
3673.03
3637.92
3602.97
3568.21
3533.65
3499.34
3465.31
3431.6
3398.25
3365.3
3332.8
3300.8
3269.33
3238.42
3208.17
3178.63
3149.87
3121.92
3094.85
3068.72
3043.59
3019.51
2996.53
2974.73
2954.17
2934.88
2916.89
2900.26
2885.02
2871.23
2858.91
2848.1
2838.82
2831.09
2824.92
2820.24
2817.19
2815.54
-2991.86
-2991.2
-2989.85
-2987.81
-2985.07
-2981.66
-2977.57
-2972.8
-2967.37
-2961.26
-2954.49
-2947.05
-2938.96
-2930.21
-2920.8
-2910.76
-2900.07
-2888.75
-2876.81
-2864.25
-2851.08
-2837.31
-2822.96
-2808.02
-2792.52
-2776.46
-2759.86
-2742.74
-2725.09
-2706.95
-2688.32
-2669.22
-2649.67
-2629.69
-2609.29
-2588.49
-2567.31
-2545.77
-2523.89
-2501.69
-2479.2
-2456.43
-2433.41
-2410.16
-2386.71
-2363.08
-2339.3
-2315.39
-2291.38
-2267.29
-2243.16
-2219.01
-2194.85
-2170.72
-2146.64
-2122.64
-2098.72
-2074.92
-2051.26
-2027.77
-2004.46
-1981.36
-1958.51
-1935.92
-1913.63
-1891.64
-1870
-1848.71
-1827.81
-1807.31
-1787.24
-1767.6
-1748.43
-1729.74
-1711.55
-1693.88
-1676.74
-1660.15
-1644.13
-1628.69
-1613.84
-1599.6
-1585.97
-1572.98
-1560.62
-1548.91
-1537.85
-1527.45
-1517.72
-1508.66
-1500.27
-1492.56
-1485.52
-1479.15
-1473.46
-1468.45
-1464.09
-1460.41
-1457.38
-1455
-1453.26
-1452.16
-1451.67
-1451.8
-1452.53
-1453.84
-1455.72
-1458.17
-1461.13
-1464.64
-1468.68
-1473.17
-1478.17
-1483.63
-1489.53
-1495.83
-1502.52
-1509.55
-1516.91
-1524.56
-1532.48
-1540.66
-1549.05
-1557.66
-1566.44
-1575.38
-1584.45
-1593.63
-1602.89
-1612.21
-1621.57
-1630.94
-1640.3
-1649.62
-1658.89
-1668.09
-1677.19
-1686.18
-1695.04
-1703.74
-1712.28
-1720.64
-1728.8
-1736.75
-1744.47
-1751.96
-1759.2
-1766.2
-1772.94
-1779.43
-1785.66
-1791.64
-1797.34
-1802.75
-1807.89
-1812.74
-1817.3
-1821.27
-1825.02
-1828.45
-1831.61
-1834.5
-1837.16
-1839.59
-1841.78
-1843.73
-1845.41
-1846.81
-1847.93
-1848.77
-1849.33
-1849.65
-1849.72
-1849.54
-1849.14
-1848.5
-1847.64
-1846.55
-1845.25
-1843.74
-1842.02
-1840.1
-1837.98
-1835.66
-1833.15
-1830.45
-1827.55
-1824.46
-1821.18
-1817.71
-1814.05
-1810.2
-1806.15
-1801.9
-1797.45
-1792.78
-1787.9
-1782.8
-1777.46
-1771.89
-1766.06
-1759.97
-1753.61
-1746.95
-1739.99
-1732.72
-1725.11
-1717.14
-1708.81
-1700.09
-1690.96
-1681.4
-1671.4
-1660.92
-1649.93
-1638.47
-1626.52
-1613.99
-1600.89
-1587.19
-1572.86
-1557.9
-1542.29
-1526
-1509
-1491.28
-1472.82
-1453.59
-1433.57
-1412.74
-1391.1
-1368.6
-1345.24
-1321.02
-1295.9
-1269.88
-1242.95
-1215.07
-1186.15
-1156.19
-1125.19
-1093.21
-1060.3
-1026.43
-991.576
-955.71
-918.811
-880.875
-841.905
-801.897
-760.849
-718.757
-675.629
-631.466
-586.256
-539.988
-492.66
-444.277
-394.854
-344.416
-292.99
-240.599
-187.254
-132.948
-77.6542
-21.3292
36.0588
94.4946
153.901
214.162
275.17
336.859
399.2
462.179
525.791
590.041
654.947
720.499
786.675
853.452
920.803
988.699
1057.12
1126.02
1195.38
1265.15
1335.3
1405.79
1476.59
1547.66
1618.98
1690.51
1762.22
1834.08
1906.04
1978.09
2050.18
2122.29
2194.37
2266.4
2338.35
2410.17
2481.85
2553.34
2624.61
2695.63
2766.36
2836.76
2906.81
2976.47
3045.7
3114.48
3182.77
3250.55
3317.78
3384.43
3450.47
3515.87
3580.6
3644.64
3707.95
3770.5
3832.28
3893.25
3953.39
4012.69
4071.11
4128.63
4185.24
4240.92
4295.53
4349.23
4401.96
4453.69
4504.38
4554.03
4602.62
4650.14
4696.59
4741.94
4786.19
4829.33
4871.34
4912.24
4952
4990.62
5028.1
5064.43
5099.62
5133.65
5166.54
5198.27
5228.85
5258.29
5286.58
5313.72
5339.72
5364.58
5388.3
5410.9
5432.38
5452.74
5471.98
5490.13
5507.18
5523.14
5538.02
5551.83
5564.59
5576.29
5586.95
5596.58
5605.2
5612.81
5619.42
5625.05
5629.71
5633.41
5636.17
5637.99
5638.9
5638.89
5637.98
5636.19
5633.52
5629.99
5625.6
5620.38
5614.33
5607.46
5599.79
5591.33
5582.08
5572.06
5561.28
5549.76
5537.5
5524.52
5510.84
5496.46
5481.39
5465.65
5449.24
5432.18
5414.47
5396.13
5377.16
5357.57
5337.36
5316.56
5295.18
5273.23
5250.73
5227.7
5204.13
5180.05
5155.46
5130.35
5104.76
5078.67
5052.11
5025.07
4997.59
4969.67
4941.32
4912.55
4883.39
4853.83
4823.89
4793.58
4762.92
4731.91
4700.57
4668.93
4637.03
4604.89
4572.53
4539.94
4507.12
4474.06
4440.76
4407.22
4373.45
4339.47
4305.29
4270.94
4236.42
4201.75
4166.94
4132.01
4096.97
4061.83
4026.6
3991.3
3955.94
3920.53
3885.09
3849.63
3814.18
3778.74
3743.36
3708.04
3672.81
3637.62
3602.66
3567.86
3533.27
3498.91
3464.84
3431.08
3397.67
3364.67
3332.11
3300.07
3268.6
3237.59
3207.26
3177.68
3148.85
3120.85
3093.72
3067.52
3042.32
3018.16
2995.1
2973.16
2952.57
2933.17
2915.1
2898.39
2883.1
2869.25
2856.89
2846.04
2836.73
2828.98
2822.78
2818.09
2814.99
2813.33
-2993.32
-2992.67
-2991.32
-2989.27
-2986.54
-2983.12
-2979.03
-2974.27
-2968.83
-2962.72
-2955.93
-2948.49
-2940.38
-2931.62
-2922.2
-2912.14
-2901.44
-2890.1
-2878.14
-2865.56
-2852.37
-2838.58
-2824.2
-2809.24
-2793.72
-2777.63
-2761.01
-2743.85
-2726.18
-2708
-2689.34
-2670.21
-2650.63
-2630.61
-2610.17
-2589.33
-2568.11
-2546.53
-2524.61
-2502.37
-2479.83
-2457.01
-2433.94
-2410.65
-2387.15
-2363.47
-2339.64
-2315.68
-2291.62
-2267.48
-2243.29
-2219.08
-2194.87
-2170.69
-2146.55
-2122.49
-2098.51
-2074.66
-2050.94
-2027.39
-2004.03
-1980.88
-1957.98
-1935.35
-1913.01
-1890.98
-1869.3
-1847.97
-1827.03
-1806.49
-1786.37
-1766.7
-1747.49
-1728.76
-1710.54
-1692.83
-1675.66
-1659.04
-1642.98
-1627.51
-1612.63
-1598.36
-1584.71
-1571.69
-1559.31
-1547.59
-1536.51
-1526.1
-1516.36
-1507.29
-1498.89
-1491.17
-1484.13
-1477.77
-1472.08
-1467.06
-1462.72
-1459.04
-1456.02
-1453.65
-1451.92
-1450.83
-1450.37
-1450.51
-1451.26
-1452.59
-1454.5
-1456.97
-1459.97
-1463.52
-1467.58
-1472.19
-1477.25
-1482.75
-1488.69
-1495.04
-1501.76
-1508.83
-1516.23
-1523.93
-1531.9
-1540.12
-1548.58
-1557.24
-1566.08
-1575.08
-1584.21
-1593.44
-1602.76
-1612.14
-1621.54
-1630.96
-1640.37
-1649.74
-1659.06
-1668.3
-1677.44
-1686.47
-1695.36
-1704.1
-1712.67
-1721.06
-1729.25
-1737.22
-1744.98
-1752.49
-1759.77
-1766.78
-1773.54
-1780.04
-1786.27
-1792.21
-1797.87
-1803.21
-1808.23
-1812.99
-1817.4
-1821.55
-1825.35
-1828.86
-1832.1
-1835.06
-1837.78
-1840.25
-1842.46
-1844.4
-1846.06
-1847.42
-1848.51
-1849.33
-1849.89
-1850.19
-1850.24
-1850.05
-1849.63
-1848.98
-1848.1
-1847
-1845.7
-1844.18
-1842.45
-1840.53
-1838.4
-1836.08
-1833.56
-1830.85
-1827.95
-1824.86
-1821.59
-1818.12
-1814.46
-1810.62
-1806.57
-1802.33
-1797.89
-1793.24
-1788.38
-1783.29
-1777.98
-1772.42
-1766.62
-1760.55
-1754.21
-1747.59
-1740.66
-1733.42
-1725.84
-1717.91
-1709.62
-1700.94
-1691.85
-1682.34
-1672.38
-1661.98
-1651.06
-1639.67
-1627.7
-1615.21
-1602.14
-1588.48
-1574.21
-1559.3
-1543.73
-1527.48
-1510.52
-1492.85
-1474.42
-1455.23
-1435.26
-1414.47
-1392.86
-1370.4
-1347.08
-1322.89
-1297.8
-1271.79
-1244.85
-1216.94
-1188.02
-1158.11
-1127.23
-1095.37
-1062.53
-1028.68
-993.822
-957.936
-921.013
-883.048
-844.05
-804.027
-762.983
-720.907
-677.787
-633.611
-588.375
-542.079
-494.727
-446.324
-396.882
-346.418
-294.95
-242.495
-189.071
-134.688
-79.3433
-23.0176
34.3153
92.6636
151.99
212.205
273.201
334.889
397.234
460.242
523.917
588.259
653.262
718.912
785.188
852.067
919.52
987.517
1056.02
1125.01
1194.44
1264.28
1334.5
1405.06
1475.94
1547.09
1618.48
1690.09
1761.87
1833.8
1905.84
1977.96
2050.12
2122.29
2194.45
2266.56
2338.58
2410.49
2482.24
2553.81
2625.15
2696.25
2767.05
2837.52
2907.64
2977.38
3046.68
3115.54
3183.91
3251.76
3319.06
3385.78
3451.89
3517.35
3582.15
3646.25
3709.62
3772.23
3834.06
3895.09
3955.28
4014.61
4073.05
4130.6
4187.24
4242.93
4297.62
4351.36
4404.12
4455.88
4506.6
4556.28
4604.9
4652.45
4698.91
4744.29
4788.55
4831.7
4873.73
4914.64
4954.4
4993.03
5030.52
5066.85
5102.04
5136.07
5168.96
5200.69
5231.26
5260.69
5288.97
5316.1
5342.09
5366.94
5390.65
5413.23
5434.69
5455.03
5474.26
5492.39
5509.42
5525.36
5540.22
5554.01
5566.74
5578.42
5589.06
5598.67
5607.26
5614.84
5621.42
5627.03
5631.66
5635.33
5638.05
5639.84
5640.71
5640.67
5639.73
5637.91
5635.21
5631.65
5627.24
5621.99
5615.91
5609.02
5601.31
5592.82
5583.54
5573.49
5562.68
5551.13
5538.85
5525.85
5512.15
5497.74
5482.65
5466.89
5450.47
5433.39
5415.66
5397.3
5378.32
5358.72
5338.5
5317.69
5296.29
5274.32
5251.78
5228.69
5205.08
5180.95
5156.31
5131.17
5105.55
5079.44
5052.86
5025.81
4998.3
4970.35
4941.98
4913.19
4884
4854.41
4824.45
4794.13
4763.45
4732.43
4701.1
4669.46
4637.54
4605.36
4572.95
4540.3
4507.41
4474.3
4440.95
4407.38
4373.59
4339.6
4305.41
4271.05
4236.52
4201.84
4167.02
4132.08
4097.03
4061.87
4026.63
3991.3
3955.92
3920.48
3885.01
3849.52
3814.03
3778.56
3743.13
3707.76
3672.48
3637.28
3602.24
3567.38
3532.72
3498.29
3464.13
3430.29
3396.79
3363.68
3331.01
3298.8
3267.14
3236.15
3205.75
3176.05
3147.11
3118.98
3091.72
3065.4
3040.07
3015.8
2992.61
2970.39
2949.72
2930.3
2912.16
2895.39
2880.02
2866.11
2853.69
2842.8
2833.46
2825.69
2819.47
2814.76
2811.64
2809.97
-2995.28
-2994.62
-2993.27
-2991.22
-2988.51
-2985.09
-2981
-2976.22
-2970.77
-2964.65
-2957.85
-2950.39
-2942.27
-2933.48
-2924.05
-2913.97
-2903.24
-2891.88
-2879.9
-2867.29
-2854.08
-2840.26
-2825.85
-2810.86
-2795.3
-2779.19
-2762.53
-2745.33
-2727.62
-2709.41
-2690.7
-2671.53
-2651.9
-2631.83
-2611.34
-2590.45
-2569.17
-2547.53
-2525.55
-2503.25
-2480.65
-2457.78
-2434.64
-2411.28
-2387.72
-2363.97
-2340.07
-2316.05
-2291.92
-2267.71
-2243.45
-2219.16
-2194.87
-2170.61
-2146.39
-2122.24
-2098.19
-2074.26
-2050.47
-2026.85
-2003.42
-1980.22
-1957.25
-1934.56
-1912.16
-1890.07
-1868.33
-1846.94
-1825.94
-1805.35
-1785.18
-1765.45
-1746.19
-1727.41
-1709.14
-1691.38
-1674.17
-1657.51
-1641.41
-1625.9
-1610.99
-1596.69
-1583.02
-1569.97
-1557.57
-1545.82
-1534.72
-1524.3
-1514.54
-1505.46
-1497.05
-1489.32
-1482.28
-1475.92
-1470.23
-1465.22
-1460.89
-1457.22
-1454.21
-1451.87
-1450.16
-1449.1
-1448.66
-1448.85
-1449.63
-1451.01
-1452.97
-1455.49
-1458.56
-1462.16
-1466.28
-1470.91
-1476.01
-1481.56
-1487.54
-1493.94
-1500.72
-1507.86
-1515.34
-1523.11
-1531.15
-1539.45
-1547.98
-1556.71
-1565.63
-1574.7
-1583.9
-1593.2
-1602.59
-1612.03
-1621.51
-1630.99
-1640.46
-1649.9
-1659.27
-1668.57
-1677.77
-1686.84
-1695.78
-1704.57
-1713.18
-1721.61
-1729.84
-1737.84
-1745.59
-1753.15
-1760.45
-1767.49
-1774.27
-1780.78
-1787.03
-1793
-1798.69
-1804.1
-1809.21
-1813.91
-1818.37
-1822.47
-1826.25
-1829.73
-1832.95
-1835.9
-1838.6
-1841.04
-1843.21
-1845.11
-1846.73
-1848.06
-1849.13
-1849.94
-1850.5
-1850.8
-1850.86
-1850.67
-1850.25
-1849.59
-1848.71
-1847.6
-1846.29
-1844.76
-1843.03
-1841.09
-1838.96
-1836.63
-1834.11
-1831.39
-1828.49
-1825.4
-1822.13
-1818.66
-1815.01
-1811.17
-1807.14
-1802.92
-1798.49
-1793.86
-1789.01
-1783.95
-1778.66
-1773.14
-1767.36
-1761.33
-1755.03
-1748.44
-1741.56
-1734.36
-1726.82
-1718.95
-1710.7
-1702.07
-1693.03
-1683.58
-1673.67
-1663.29
-1652.47
-1641.13
-1629.24
-1616.8
-1603.8
-1590.2
-1575.99
-1561.14
-1545.63
-1529.44
-1512.55
-1494.93
-1476.56
-1457.42
-1437.5
-1416.77
-1395.2
-1372.79
-1349.52
-1325.36
-1300.31
-1274.34
-1247.45
-1219.59
-1190.75
-1160.92
-1130.08
-1098.25
-1065.44
-1031.61
-996.778
-960.917
-924.023
-886.088
-847.108
-807.081
-766.006
-723.882
-680.711
-636.493
-591.222
-544.899
-497.524
-449.101
-399.641
-349.155
-297.659
-245.165
-191.688
-137.236
-81.8094
-25.407
31.9719
90.3138
149.582
209.721
270.668
332.364
394.772
457.872
521.657
586.115
651.233
716.992
783.37
850.342
917.884
985.966
1054.56
1123.63
1193.14
1263.07
1333.37
1404.02
1474.98
1546.23
1617.71
1689.41
1761.28
1833.31
1905.44
1977.66
2049.93
2122.2
2194.47
2266.67
2338.8
2410.8
2482.66
2554.33
2625.77
2696.96
2767.86
2838.44
2908.66
2978.48
3047.89
3116.84
3185.3
3253.24
3320.63
3387.44
3453.63
3519.18
3584.06
3648.24
3711.69
3774.38
3836.28
3897.38
3957.64
4017.03
4075.57
4133.19
4189.88
4245.63
4300.4
4354.19
4406.99
4458.78
4509.55
4559.26
4607.91
4655.49
4701.98
4747.38
4791.67
4834.84
4876.89
4917.8
4957.58
4996.22
5033.71
5070.05
5105.24
5139.27
5172.15
5203.88
5234.45
5263.87
5292.13
5319.25
5345.23
5370.06
5393.75
5416.32
5437.76
5458.07
5477.28
5495.38
5512.38
5528.3
5543.13
5556.89
5569.59
5581.24
5591.85
5601.43
5609.98
5617.53
5624.08
5629.65
5634.24
5637.88
5640.56
5642.32
5643.14
5643.06
5642.08
5640.21
5637.47
5633.87
5629.41
5624.12
5618
5611.06
5603.32
5594.78
5585.46
5575.37
5564.53
5552.94
5540.63
5527.59
5513.85
5499.41
5484.29
5468.5
5452.04
5434.92
5417.17
5398.77
5379.76
5360.12
5339.88
5319.04
5297.62
5275.62
5253.06
5229.96
5206.33
5182.17
5157.5
5132.33
5106.67
5080.52
5053.9
5026.82
4999.28
4971.3
4942.9
4914.08
4884.86
4855.25
4825.27
4794.92
4764.21
4733.18
4701.82
4670.16
4638.22
4606.01
4573.56
4540.87
4507.94
4474.78
4441.39
4407.78
4373.95
4339.93
4305.72
4271.33
4236.78
4202.08
4167.23
4132.27
4097.19
4062
4026.73
3991.37
3955.95
3920.48
3884.97
3849.44
3813.91
3778.39
3742.9
3707.47
3672.12
3636.87
3601.75
3566.81
3532.05
3497.53
3463.27
3429.31
3395.7
3362.47
3329.68
3297.37
3265.56
3234.37
3203.81
3173.95
3144.84
3116.54
3089.12
3062.64
3037.15
3012.74
2989.52
2967.49
2946.37
2926.69
2908.39
2891.48
2875.99
2861.98
2849.48
2838.52
2829.11
2821.29
2815.04
2810.3
2807.16
2805.48
-2997.73
-2997.08
-2995.72
-2993.69
-2990.96
-2987.54
-2983.45
-2978.66
-2973.19
-2967.05
-2960.24
-2952.76
-2944.61
-2935.81
-2926.35
-2916.25
-2905.5
-2894.11
-2882.1
-2869.46
-2856.21
-2842.36
-2827.92
-2812.89
-2797.29
-2781.13
-2764.43
-2747.19
-2729.43
-2711.16
-2692.41
-2673.18
-2653.49
-2633.36
-2612.8
-2591.85
-2570.5
-2548.8
-2526.74
-2504.37
-2481.69
-2458.74
-2435.53
-2412.09
-2388.44
-2364.61
-2340.62
-2316.51
-2292.29
-2267.99
-2243.64
-2219.26
-2194.88
-2170.52
-2146.21
-2121.97
-2097.82
-2073.8
-2049.93
-2026.22
-2002.71
-1979.42
-1956.38
-1933.61
-1911.13
-1888.97
-1867.14
-1845.68
-1824.61
-1803.94
-1783.7
-1763.9
-1744.57
-1725.73
-1707.4
-1689.58
-1672.31
-1655.6
-1639.45
-1623.9
-1608.94
-1594.6
-1580.89
-1567.81
-1555.37
-1543.59
-1532.48
-1522.03
-1512.25
-1503.16
-1494.74
-1487.01
-1479.96
-1473.6
-1467.92
-1462.92
-1458.6
-1454.95
-1451.96
-1449.64
-1447.97
-1446.94
-1446.54
-1446.76
-1447.59
-1449.02
-1451.04
-1453.61
-1456.75
-1460.41
-1464.6
-1469.3
-1474.47
-1480.09
-1486.15
-1492.62
-1499.48
-1506.69
-1514.24
-1522.09
-1530.23
-1538.62
-1547.24
-1556.06
-1565.07
-1574.23
-1583.52
-1592.91
-1602.39
-1611.91
-1621.47
-1631.04
-1640.59
-1650.1
-1659.55
-1668.91
-1678.18
-1687.32
-1696.32
-1705.16
-1713.83
-1722.31
-1730.58
-1738.66
-1746.6
-1754.08
-1761.39
-1768.45
-1775.25
-1781.78
-1788.02
-1793.98
-1799.64
-1804.97
-1809.97
-1814.7
-1819.23
-1823.34
-1827.14
-1830.65
-1833.89
-1836.87
-1839.58
-1842.02
-1844.18
-1846.07
-1847.68
-1849.02
-1850.07
-1850.86
-1851.39
-1851.67
-1851.7
-1851.49
-1851.05
-1850.37
-1849.48
-1848.36
-1847.03
-1845.49
-1843.75
-1841.8
-1839.66
-1837.32
-1834.79
-1832.07
-1829.17
-1826.08
-1822.8
-1819.35
-1815.7
-1811.87
-1807.85
-1803.64
-1799.23
-1794.62
-1789.8
-1784.77
-1779.51
-1774.02
-1768.29
-1762.3
-1756.04
-1749.51
-1742.67
-1735.53
-1728.05
-1720.23
-1712.05
-1703.48
-1694.52
-1685.13
-1675.3
-1665
-1654.24
-1642.97
-1631.16
-1618.8
-1605.88
-1592.36
-1578.22
-1563.45
-1548.02
-1531.9
-1515.08
-1497.53
-1479.24
-1460.18
-1440.32
-1419.66
-1398.16
-1375.82
-1352.61
-1328.52
-1303.52
-1277.61
-1250.75
-1222.94
-1194.14
-1164.36
-1133.58
-1101.81
-1069.03
-1035.24
-1000.42
-964.577
-927.693
-889.766
-850.794
-810.776
-769.709
-727.589
-684.412
-640.18
-594.889
-548.539
-501.133
-452.675
-403.177
-352.65
-301.107
-248.562
-195.028
-140.514
-85.0268
-28.5709
28.846
87.2073
146.481
206.623
267.584
329.321
391.799
454.996
518.891
583.467
648.706
714.586
781.084
848.175
915.833
984.028
1052.73
1121.91
1191.54
1261.58
1331.99
1402.76
1473.83
1545.19
1616.8
1688.62
1760.62
1832.76
1905.03
1977.37
2049.76
2122.17
2194.55
2266.89
2339.14
2411.27
2483.24
2555.03
2626.6
2697.91
2768.93
2839.63
2909.97
2979.92
3049.44
3118.51
3187.09
3255.14
3322.65
3389.56
3455.87
3521.52
3586.5
3650.78
3714.32
3777.11
3839.1
3900.29
3960.63
4020.12
4078.72
4136.42
4193.18
4249
4303.84
4357.7
4410.56
4462.4
4513.21
4562.97
4611.66
4659.28
4705.8
4751.23
4795.55
4838.74
4880.81
4921.74
4961.54
5000.19
5037.69
5074.03
5109.22
5143.26
5176.14
5207.86
5238.42
5267.82
5296.08
5323.18
5349.13
5373.95
5397.62
5420.16
5441.57
5461.86
5481.04
5499.11
5516.08
5531.96
5546.76
5560.48
5573.14
5584.75
5595.32
5604.85
5613.37
5620.87
5627.38
5632.9
5637.45
5641.04
5643.67
5645.38
5646.16
5646.03
5645
5643.08
5640.29
5636.63
5632.13
5626.78
5620.61
5613.62
5605.83
5597.24
5587.88
5577.74
5566.86
5555.23
5542.87
5529.79
5516.01
5501.53
5486.37
5470.54
5454.04
5436.89
5419.09
5400.66
5381.61
5361.94
5341.66
5320.78
5299.32
5277.28
5254.68
5231.53
5207.85
5183.65
5158.94
5133.73
5108.03
5081.85
5055.19
5028.07
5000.49
4972.48
4944.04
4915.18
4885.93
4856.28
4826.26
4795.87
4765.14
4734.07
4702.68
4670.99
4639.01
4606.77
4574.27
4541.52
4508.54
4475.33
4441.89
4408.24
4374.38
4340.33
4306.09
4271.67
4237.09
4202.36
4167.49
4132.5
4097.39
4062.17
4026.86
3991.47
3956.01
3920.49
3884.93
3849.35
3813.76
3778.18
3742.62
3707.12
3671.69
3636.35
3601.15
3566.09
3531.23
3496.58
3462.19
3428.1
3394.33
3360.95
3327.98
3295.49
3263.5
3232.12
3201.37
3171.3
3141.98
3113.48
3085.85
3059.15
3033.45
3008.8
2985.26
2963.04
2941.91
2922.08
2903.61
2886.54
2870.92
2856.79
2844.18
2833.12
2823.64
2815.76
2809.46
2804.69
2801.53
2799.84
-3000.68
-3000.03
-2998.67
-2996.63
-2993.91
-2990.49
-2986.38
-2981.57
-2976.09
-2969.93
-2963.1
-2955.6
-2947.43
-2938.6
-2929.12
-2918.98
-2908.2
-2896.78
-2884.73
-2872.06
-2858.77
-2844.88
-2830.4
-2815.32
-2799.68
-2783.47
-2766.71
-2749.42
-2731.6
-2713.27
-2694.45
-2675.15
-2655.39
-2635.19
-2614.56
-2593.53
-2572.1
-2550.31
-2528.17
-2505.71
-2482.94
-2459.89
-2436.58
-2413.05
-2389.3
-2365.37
-2341.28
-2317.06
-2292.73
-2268.33
-2243.87
-2219.38
-2194.88
-2170.41
-2145.99
-2121.64
-2097.39
-2073.26
-2049.28
-2025.47
-2001.86
-1978.47
-1955.33
-1932.46
-1909.88
-1887.63
-1865.71
-1844.16
-1823
-1802.24
-1781.92
-1762.04
-1742.63
-1723.71
-1705.3
-1687.42
-1670.08
-1653.3
-1637.1
-1621.49
-1606.48
-1592.09
-1578.33
-1565.21
-1552.74
-1540.93
-1529.78
-1519.31
-1509.51
-1500.4
-1491.97
-1484.23
-1477.18
-1470.82
-1465.15
-1460.16
-1455.85
-1452.22
-1449.26
-1446.97
-1445.33
-1444.34
-1443.99
-1444.26
-1445.15
-1446.64
-1448.71
-1451.36
-1454.57
-1458.31
-1462.58
-1467.35
-1472.6
-1478.32
-1484.47
-1491.03
-1497.98
-1505.29
-1512.94
-1520.89
-1529.13
-1537.62
-1546.35
-1555.28
-1564.4
-1573.67
-1583.06
-1592.56
-1602.14
-1611.77
-1621.43
-1631.1
-1640.74
-1650.34
-1659.88
-1669.33
-1678.67
-1687.89
-1696.96
-1705.87
-1714.6
-1723.14
-1731.46
-1739.55
-1747.36
-1755.02
-1762.4
-1769.51
-1776.35
-1782.91
-1789.18
-1795.17
-1800.86
-1806.27
-1811.4
-1816.24
-1820.66
-1824.65
-1828.43
-1831.9
-1835.11
-1838.1
-1840.8
-1843.21
-1845.35
-1847.19
-1848.76
-1850.07
-1851.11
-1851.89
-1852.4
-1852.67
-1852.68
-1852.46
-1852
-1851.31
-1850.4
-1849.26
-1847.92
-1846.36
-1844.6
-1842.65
-1840.49
-1838.14
-1835.6
-1832.88
-1829.97
-1826.88
-1823.61
-1820.15
-1816.52
-1812.7
-1808.69
-1804.5
-1800.11
-1795.53
-1790.74
-1785.74
-1780.52
-1775.08
-1769.39
-1763.45
-1757.25
-1750.77
-1744
-1736.92
-1729.52
-1721.77
-1713.66
-1705.18
-1696.29
-1686.99
-1677.25
-1667.04
-1656.36
-1645.18
-1633.46
-1621.2
-1608.37
-1594.94
-1580.9
-1566.22
-1550.88
-1534.85
-1518.12
-1500.66
-1482.46
-1463.48
-1443.7
-1423.12
-1401.7
-1379.43
-1356.3
-1332.27
-1307.34
-1281.49
-1254.7
-1226.95
-1198.22
-1168.51
-1137.8
-1106.08
-1073.36
-1039.61
-1004.83
-969.019
-932.16
-894.251
-855.289
-815.272
-774.197
-732.062
-688.866
-644.608
-599.289
-552.908
-505.47
-456.98
-407.445
-356.876
-305.285
-252.686
-199.09
-144.509
-88.9538
-32.4331
25.0412
83.4507
142.767
202.953
263.97
325.778
388.347
451.65
515.662
580.363
645.731
711.743
778.374
845.599
913.39
981.719
1050.56
1119.87
1189.63
1259.8
1330.36
1401.26
1472.47
1543.97
1615.71
1687.68
1759.82
1832.11
1904.52
1977.01
2049.55
2122.1
2194.64
2267.12
2339.52
2411.8
2483.93
2555.86
2627.58
2699.04
2770.21
2841.05
2911.53
2981.63
3051.29
3120.5
3189.21
3257.41
3325.04
3392.09
3458.52
3524.31
3589.41
3653.81
3717.47
3780.37
3842.48
3903.77
3964.22
4023.8
4082.5
4140.29
4197.14
4253.04
4307.96
4361.89
4414.82
4466.73
4517.6
4567.41
4616.15
4663.82
4710.38
4755.85
4800.2
4843.42
4885.52
4926.47
4966.29
5004.95
5042.46
5078.81
5114.01
5148.04
5180.91
5212.63
5243.18
5272.57
5300.81
5327.89
5353.83
5378.61
5402.26
5424.77
5446.15
5466.41
5485.55
5503.58
5520.51
5536.35
5551.1
5564.78
5577.39
5588.96
5599.47
5608.96
5617.42
5624.87
5631.33
5636.79
5641.29
5644.82
5647.4
5649.05
5649.77
5649.58
5648.49
5646.51
5643.65
5639.94
5635.37
5629.96
5623.73
5616.68
5608.82
5600.18
5590.76
5580.57
5569.63
5557.94
5545.53
5532.4
5518.57
5504.04
5488.83
5472.94
5456.4
5439.19
5421.35
5402.87
5383.77
5364.05
5343.72
5322.81
5301.3
5279.23
5256.59
5233.41
5209.69
5185.45
5160.69
5135.44
5109.69
5083.45
5056.75
5029.58
5001.97
4973.91
4945.43
4916.53
4887.23
4857.54
4827.47
4797.05
4766.27
4735.16
4703.73
4672
4639.98
4607.69
4575.14
4542.34
4509.3
4476.04
4442.55
4408.85
4374.95
4340.85
4306.57
4272.11
4237.5
4202.73
4167.82
4132.79
4097.64
4062.38
4027.03
3991.59
3956.08
3920.51
3884.9
3849.25
3813.59
3777.94
3742.3