/*--------------------------------*- C++ -*----------------------------------*\
| =========                 |                                                 |
| \\      /  F ield         | OpenFOAM: The Open Source CFD Toolbox           |
|  \\    /   O peration     | Version:  v2006                                 |
|   \\  /    A nd           | Website:  www.openfoam.com                      |
|    \\/     M anipulation  |                                                 |
\*---------------------------------------------------------------------------*/
FoamFile
{
    version     2.0;
    format      ascii;
    class       volVectorField;
    location    "17.1";
    object      U;
}
// * * * * * * * * * * * * * * * * * * * * * * * * * * * * * * * * * * * * * //

dimensions      [0 1 -1 0 0 0 0];


internalField   nonuniform List<vector> 
150000
(
(-0.00909344 0.00462881 0)
(-0.017075 0.00150643 0)
(-0.0220439 0.00121252 0)
(-0.0293896 0.00164653 0)
(-0.0369975 0.00190574 0)
(-0.0453635 0.00203731 0)
(-0.0539915 0.00209322 0)
(-0.0630009 0.00215224 0)
(-0.0723616 0.00221046 0)
(-0.082045 0.00226712 0)
(-0.0919835 0.00231613 0)
(-0.102082 0.00235564 0)
(-0.112272 0.00238036 0)
(-0.122482 0.00240091 0)
(-0.132641 0.00241389 0)
(-0.142686 0.00241999 0)
(-0.15257 0.00241816 0)
(-0.162254 0.00240967 0)
(-0.171706 0.00239095 0)
(-0.180917 0.00236285 0)
(-0.189874 0.00232945 0)
(-0.198586 0.00228283 0)
(-0.207059 0.00223308 0)
(-0.215299 0.00218368 0)
(-0.223318 0.00213468 0)
(-0.231122 0.00208706 0)
(-0.238713 0.00204103 0)
(-0.246086 0.00199875 0)
(-0.253233 0.00195903 0)
(-0.260135 0.00191736 0)
(-0.266775 0.00186497 0)
(-0.273128 0.00179929 0)
(-0.279172 0.00171706 0)
(-0.28489 0.00160946 0)
(-0.290273 0.00147252 0)
(-0.295317 0.00131011 0)
(-0.300037 0.00112675 0)
(-0.304459 0.000928601 0)
(-0.308619 0.000729717 0)
(-0.312556 0.000544384 0)
(-0.316307 0.000386759 0)
(-0.3199 0.000267756 0)
(-0.323345 0.000190323 0)
(-0.326624 0.000149893 0)
(-0.329697 0.000135119 0)
(-0.332514 0.000128383 0)
(-0.335014 0.000106528 0)
(-0.337139 5.27683e-05 0)
(-0.338849 -4.05437e-05 0)
(-0.340116 -0.000169727 0)
(-0.34093 -0.000326536 0)
(-0.341289 -0.00049923 0)
(-0.34122 -0.000690563 0)
(-0.340766 -0.000864189 0)
(-0.339934 -0.00101912 0)
(-0.338729 -0.00115694 0)
(-0.337151 -0.00127928 0)
(-0.335209 -0.00138881 0)
(-0.332903 -0.00148731 0)
(-0.330223 -0.00157923 0)
(-0.327165 -0.00166496 0)
(-0.323727 -0.00174266 0)
(-0.319911 -0.00181235 0)
(-0.315722 -0.00187487 0)
(-0.311169 -0.00193148 0)
(-0.306267 -0.00198455 0)
(-0.301026 -0.00203631 0)
(-0.295455 -0.00209121 0)
(-0.289571 -0.00215485 0)
(-0.283392 -0.00222965 0)
(-0.276923 -0.00232273 0)
(-0.27016 -0.00243713 0)
(-0.263108 -0.00257105 0)
(-0.255772 -0.00272534 0)
(-0.248141 -0.00289772 0)
(-0.240213 -0.00308649 0)
(-0.231973 -0.00328661 0)
(-0.223394 -0.00349416 0)
(-0.214468 -0.00371579 0)
(-0.205185 -0.00394818 0)
(-0.195521 -0.00417928 0)
(-0.185481 -0.00440716 0)
(-0.175068 -0.00462592 0)
(-0.164303 -0.00482868 0)
(-0.153194 -0.00500538 0)
(-0.141771 -0.0051641 0)
(-0.130062 -0.00530105 0)
(-0.11808 -0.0054215 0)
(-0.105838 -0.00552996 0)
(-0.0933425 -0.00563102 0)
(-0.0805979 -0.00572886 0)
(-0.0675982 -0.00582279 0)
(-0.0543535 -0.00591712 0)
(-0.0408539 -0.00599918 0)
(-0.0270911 -0.0060777 0)
(-0.0130819 -0.00615198 0)
(0.00117814 -0.00621179 0)
(0.015691 -0.00626428 0)
(0.0304636 -0.00630219 0)
(0.0454992 -0.00632595 0)
(0.0608023 -0.00633395 0)
(0.0763789 -0.00632644 0)
(0.0922324 -0.00629588 0)
(0.10836 -0.00624695 0)
(0.124749 -0.00616106 0)
(0.14135 -0.00603394 0)
(0.158088 -0.00585732 0)
(0.174849 -0.00563178 0)
(0.191489 -0.0053766 0)
(0.207865 -0.00513615 0)
(0.223869 -0.00497637 0)
(0.239459 -0.00496657 0)
(0.254674 -0.00515508 0)
(0.269622 -0.0055499 0)
(0.28445 -0.006113 0)
(0.299307 -0.006771 0)
(0.31431 -0.00743655 0)
(0.329528 -0.00803084 0)
(0.344976 -0.00849947 0)
(0.360623 -0.0088185 0)
(0.376412 -0.00898987 0)
(0.392283 -0.00903095 0)
(0.4082 -0.00896254 0)
(0.424161 -0.00880104 0)
(0.44021 -0.00855596 0)
(0.45641 -0.00822857 0)
(0.472809 -0.00780883 0)
(0.489417 -0.00728099 0)
(0.506254 -0.00666079 0)
(0.523497 -0.00606505 0)
(0.541682 -0.00570641 0)
(0.561633 -0.0055575 0)
(0.58366 -0.00448303 0)
(0.605865 0.000361817 0)
(0.622204 0.0110668 0)
(0.623944 0.0227991 0)
(0.614206 0.0267108 0)
(0.603864 0.020444 0)
(0.599495 0.00836493 0)
(0.602525 -0.00373894 0)
(0.613755 -0.0136496 0)
(0.631124 -0.0207727 0)
(0.651814 -0.0248218 0)
(0.673601 -0.0258018 0)
(0.695007 -0.0239671 0)
(0.714942 -0.0196329 0)
(0.732396 -0.013533 0)
(0.746471 -0.0069451 0)
(0.756862 -0.00133727 0)
(0.764227 0.00217586 0)
(0.769884 0.0032965 0)
(0.775169 0.00253256 0)
(0.780968 0.000734886 0)
(0.787643 -0.00132234 0)
(0.795208 -0.00311532 0)
(0.803477 -0.00435969 0)
(0.81214 -0.00494456 0)
(0.820833 -0.00489147 0)
(0.829214 -0.00433449 0)
(0.837041 -0.00349437 0)
(0.844211 -0.00261964 0)
(0.850755 -0.0019155 0)
(0.856799 -0.00150031 0)
(0.862517 -0.0014017 0)
(0.868079 -0.00158023 0)
(0.873627 -0.00196097 0)
(0.879259 -0.00245842 0)
(0.885036 -0.0029916 0)
(0.89098 -0.00349376 0)
(0.897089 -0.00391841 0)
(0.90334 -0.00424064 0)
(0.909701 -0.0044544 0)
(0.916135 -0.00456775 0)
(0.922605 -0.00459793 0)
(0.929078 -0.00456692 0)
(0.935531 -0.00449713 0)
(0.94195 -0.00440699 0)
(0.948338 -0.00430724 0)
(0.954713 -0.0041992 0)
(0.961101 -0.00407635 0)
(0.967535 -0.00392844 0)
(0.974042 -0.00374679 0)
(0.980643 -0.00352982 0)
(0.987338 -0.003286 0)
(0.994114 -0.00303326 0)
(1.00094 -0.00279707 0)
(1.00779 -0.00260886 0)
(1.01462 -0.00250307 0)
(1.02141 -0.00250941 0)
(1.02816 -0.00263998 0)
(1.03492 -0.00287872 0)
(1.04173 -0.00317906 0)
(1.04866 -0.0034722 0)
(1.05575 -0.00368258 0)
(1.06295 -0.00374709 0)
(1.07012 -0.00363583 0)
(1.07704 -0.00336789 0)
(1.08347 -0.00301225 0)
(1.08928 -0.00266913 0)
(1.09445 -0.00243394 0)
(1.09912 -0.00235911 0)
(1.10356 -0.00243672 0)
(1.10805 -0.00261002 0)
(1.1128 -0.00280141 0)
(1.11789 -0.00293784 0)
(1.12329 -0.00296524 0)
(1.12888 -0.0028609 0)
(1.13459 -0.00264763 0)
(1.14049 -0.00239882 0)
(1.14676 -0.00221881 0)
(1.15359 -0.00221329 0)
(1.16105 -0.00246603 0)
(1.16906 -0.00303341 0)
(1.17737 -0.00391967 0)
(1.18573 -0.00499844 0)
(1.19388 -0.00593259 0)
(1.20147 -0.00605786 0)
(1.20777 -0.004414 0)
(1.21119 -0.00069313 0)
(1.20998 0.0031748 0)
(1.206 0.0051651 0)
(1.20141 0.00520221 0)
(1.19723 0.00422283 0)
(1.19358 0.00303372 0)
(1.19026 0.00201091 0)
(1.18714 0.00122481 0)
(1.18416 0.000637618 0)
(1.18128 0.00022228 0)
(1.17841 -1.95918e-05 0)
(1.17546 -5.65958e-05 0)
(1.17229 0.000160295 0)
(1.16874 0.000664083 0)
(1.16465 0.00146888 0)
(1.15984 0.00257446 0)
(1.15413 0.00396782 0)
(1.1473 0.00561987 0)
(1.13911 0.00747377 0)
(1.12931 0.009428 0)
(1.11772 0.011328 0)
(1.10427 0.0129821 0)
(1.08903 0.014198 0)
(1.07227 0.014819 0)
(1.05451 0.0147659 0)
(1.03642 0.014025 0)
(1.01876 0.0124916 0)
(1.00233 0.0100778 0)
(0.987925 0.00686927 0)
(0.976224 0.00320799 0)
(0.967547 -0.000321664 0)
(0.961747 -0.00305867 0)
(0.958275 -0.00452694 0)
(0.956393 -0.00463105 0)
(0.955409 -0.00366302 0)
(0.954827 -0.0021344 0)
(0.954361 -0.000550146 0)
(0.953873 0.000763511 0)
(0.953298 0.00164382 0)
(0.952604 0.0020913 0)
(0.951784 0.00223277 0)
(0.950847 0.00219565 0)
(0.949819 0.00206692 0)
(0.948736 0.00189826 0)
(0.94763 0.0017219 0)
(0.946526 0.00155584 0)
(0.945438 0.00141625 0)
(0.944364 0.00130153 0)
(0.943301 0.00120472 0)
(0.942248 0.00111725 0)
(0.941205 0.00103144 0)
(0.940175 0.000942111 0)
(0.939163 0.000846645 0)
(0.938172 0.000744331 0)
(0.937207 0.000635679 0)
(0.936271 0.000521961 0)
(0.935365 0.000404935 0)
(0.93449 0.000286635 0)
(0.933646 0.00016915 0)
(0.932832 5.44885e-05 0)
(0.932044 -5.55732e-05 0)
(0.931282 -0.000159618 0)
(0.93054 -0.000256662 0)
(0.929817 -0.000346154 0)
(0.929109 -0.000427919 0)
(0.928415 -0.000502043 0)
(0.927733 -0.000568717 0)
(0.927059 -0.0006281 0)
(0.926394 -0.000680265 0)
(0.925734 -0.00072522 0)
(0.925077 -0.000762963 0)
(0.924422 -0.000793522 0)
(0.923765 -0.000816957 0)
(0.923106 -0.00083335 0)
(0.92244 -0.000842763 0)
(0.921766 -0.000845229 0)
(0.92108 -0.000840755 0)
(0.920379 -0.000829375 0)
(0.91966 -0.000811195 0)
(0.918918 -0.000786401 0)
(0.91815 -0.000755241 0)
(0.917352 -0.000717975 0)
(0.916518 -0.000674836 0)
(0.915645 -0.000626013 0)
(0.914727 -0.000571669 0)
(0.913758 -0.000511969 0)
(0.912733 -0.000447108 0)
(0.911646 -0.00037733 0)
(0.910491 -0.000302915 0)
(0.909262 -0.000224168 0)
(0.907953 -0.000141445 0)
(0.906557 -5.51677e-05 0)
(0.90507 3.41705e-05 0)
(0.903483 0.000126025 0)
(0.901793 0.000219825 0)
(0.899994 0.000315004 0)
(0.898082 0.00041101 0)
(0.896051 0.000507325 0)
(0.893898 0.000603481 0)
(0.89162 0.000699072 0)
(0.889215 0.000793777 0)
(0.886679 0.00088737 0)
(0.884013 0.000979712 0)
(0.881214 0.00107074 0)
(0.878283 0.00116047 0)
(0.875221 0.00124894 0)
(0.872028 0.00133625 0)
(0.868705 0.00142248 0)
(0.865256 0.00150771 0)
(0.861683 0.00159197 0)
(0.857988 0.00167525 0)
(0.854176 0.0017574 0)
(0.85025 0.00183815 0)
(0.846215 0.0019171 0)
(0.842074 0.00199375 0)
(0.837832 0.00206756 0)
(0.833493 0.00213801 0)
(0.829063 0.00220453 0)
(0.824544 0.00226658 0)
(0.819943 0.00232367 0)
(0.815262 0.0023755 0)
(0.810505 0.00242191 0)
(0.805676 0.00246293 0)
(0.800778 0.0024987 0)
(0.795815 0.00252942 0)
(0.79079 0.00255543 0)
(0.78571 0.0025772 0)
(0.780581 0.00259523 0)
(0.775414 0.00260923 0)
(0.770224 0.00261703 0)
(0.76503 0.00261415 0)
(0.75986 0.00259449 0)
(0.754743 0.00255377 0)
(0.749706 0.00249523 0)
(0.74476 0.00243327 0)
(0.739891 0.00238959 0)
(0.73506 0.00238244 0)
(0.730216 0.00241648 0)
(0.725321 0.0024795 0)
(0.72036 0.00254548 0)
(0.715349 0.00258061 0)
(0.710334 0.00255209 0)
(0.705374 0.00244041 0)
(0.70052 0.00225067 0)
(0.695787 0.00201373 0)
(0.691144 0.00177296 0)
(0.686524 0.00156447 0)
(0.68185 0.00140366 0)
(0.677066 0.00128398 0)
(0.672145 0.00118549 0)
(0.66709 0.0010874 0)
(0.66192 0.000976074 0)
(0.656656 0.000847743 0)
(0.651309 0.00070971 0)
(0.645872 0.000583364 0)
(0.640308 0.000509142 0)
(0.634551 0.000551281 0)
(0.628495 0.000793114 0)
(0.622002 0.00131349 0)
(0.61493 0.00213843 0)
(0.607208 0.00319296 0)
(0.59892 0.0042874 0)
(0.590316 0.00515989 0)
(0.58177 0.0056205 0)
(0.573671 0.00564637 0)
(0.566298 0.00535079 0)
(0.559737 0.00489515 0)
(0.553883 0.00441848 0)
(0.548486 0.00401019 0)
(0.543243 0.00371418 0)
(0.537892 0.00354265 0)
(0.532277 0.00347296 0)
(0.526372 0.00346494 0)
(0.520254 0.00348451 0)
(0.514056 0.00351031 0)
(0.507926 0.00353149 0)
(0.501999 0.00353725 0)
(0.496394 0.00350861 0)
(0.491209 0.00341715 0)
(0.486531 0.00323339 0)
(0.482427 0.00294562 0)
(0.478925 0.00257919 0)
(0.475987 0.002199 0)
(0.47349 0.00188724 0)
(0.471236 0.00170458 0)
(0.469004 0.00166316 0)
(0.466611 0.00171762 0)
(0.463967 0.00179481 0)
(0.461078 0.00183892 0)
(0.458008 0.00183465 0)
(0.454827 0.00179877 0)
(0.451582 0.00175588 0)
(0.448292 0.00171991 0)
(0.444965 0.00169098 0)
(0.441611 0.00166319 0)
(0.43825 0.00163238 0)
(0.434904 0.00159894 0)
(0.431595 0.0015671 0)
(0.428338 0.00154184 0)
(0.425137 0.00152596 0)
(0.421989 0.00151941 0)
(0.418882 0.00152057 0)
(0.4158 0.00152749 0)
(0.412728 0.00153806 0)
(0.409647 0.00155037 0)
(0.406544 0.00156329 0)
(0.403404 0.00157667 0)
(0.400216 0.00159108 0)
(0.396966 0.00160744 0)
(0.393645 0.00162673 0)
(0.390242 0.00164977 0)
(0.386747 0.00167684 0)
(0.383152 0.0017072 0)
(0.379448 0.00173857 0)
(0.375634 0.00176613 0)
(0.371714 0.00178135 0)
(0.3677 0.00177246 0)
(0.363616 0.00172863 0)
(0.359481 0.00164694 0)
(0.355307 0.00153648 0)
(0.351087 0.00141446 0)
(0.346796 0.00129567 0)
(0.342411 0.00118364 0)
(0.33792 0.00107059 0)
(0.333329 0.000945757 0)
(0.328659 0.000805613 0)
(0.323935 0.000657001 0)
(0.319179 0.000509838 0)
(0.314412 0.000372088 0)
(0.309654 0.000246193 0)
(0.30493 0.000128921 0)
(0.300273 1.51783e-05 0)
(0.295721 -9.78557e-05 0)
(0.291317 -0.000209297 0)
(0.287113 -0.000315624 0)
(0.283167 -0.000412583 0)
(0.279542 -0.000496735 0)
(0.276307 -0.000566206 0)
(0.27353 -0.000620862 0)
(0.271278 -0.000662005 0)
(0.269606 -0.000691903 0)
(0.268548 -0.000715666 0)
(0.268104 -0.000744528 0)
(0.26828 -0.000768359 0)
(0.269072 -0.000782043 0)
(0.270313 -0.000724305 0)
(0.271787 -0.000427171 0)
(0.27307 0.000433271 0)
(0.273218 0.00182766 0)
(0.271831 0.00316902 0)
(0.269082 0.004068 0)
(0.265191 0.00453592 0)
(0.26033 0.0047595 0)
(0.254593 0.00491354 0)
(0.248016 0.00505959 0)
(0.240623 0.00521598 0)
(0.232433 0.0053877 0)
(0.223471 0.00557053 0)
(0.213768 0.00575442 0)
(0.20337 0.0059232 0)
(0.192339 0.00605593 0)
(0.180767 0.00613085 0)
(0.168766 0.00611861 0)
(0.156456 0.00599496 0)
(0.143971 0.00575179 0)
(0.131451 0.00539522 0)
(0.11904 0.00493923 0)
(0.106877 0.00440034 0)
(0.0950919 0.00379426 0)
(0.0838121 0.00313432 0)
(0.0731613 0.00243211 0)
(0.0632635 0.00169942 0)
(0.0542409 0.000948597 0)
(0.0462095 0.000194851 0)
(0.0392691 -0.000531471 0)
(0.0334698 -0.0011637 0)
(0.0287434 -0.00158062 0)
(0.0248376 -0.00162987 0)
(0.0211492 -0.00121868 0)
(0.0168609 -0.000428716 0)
(0.0111521 0.000588677 0)
(0.00462583 0.00139567 0)
(-0.0106987 0.0171057 0)
(-0.0206793 0.00952182 0)
(-0.0290484 0.00955294 0)
(-0.040338 0.0108496 0)
(-0.0523315 0.0116774 0)
(-0.0654426 0.0122859 0)
(-0.0791825 0.0128579 0)
(-0.0935858 0.0134376 0)
(-0.108503 0.01396 0)
(-0.123759 0.0143806 0)
(-0.139155 0.0146826 0)
(-0.154495 0.0148567 0)
(-0.169614 0.0148974 0)
(-0.184382 0.0148181 0)
(-0.198694 0.014633 0)
(-0.212484 0.0143598 0)
(-0.225728 0.0140192 0)
(-0.23843 0.013635 0)
(-0.250616 0.01323 0)
(-0.262325 0.0128233 0)
(-0.273603 0.012428 0)
(-0.284489 0.0120511 0)
(-0.295017 0.0116967 0)
(-0.305209 0.011362 0)
(-0.315073 0.0110402 0)
(-0.324604 0.0107217 0)
(-0.33379 0.010398 0)
(-0.342617 0.0100594 0)
(-0.351071 0.00969717 0)
(-0.359145 0.00930786 0)
(-0.366846 0.00889076 0)
(-0.374192 0.00845188 0)
(-0.381219 0.00800263 0)
(-0.387973 0.00755777 0)
(-0.394508 0.00713526 0)
(-0.400882 0.00675466 0)
(-0.407138 0.00643215 0)
(-0.413298 0.00617585 0)
(-0.419351 0.00598334 0)
(-0.425247 0.0058386 0)
(-0.430897 0.00571291 0)
(-0.436184 0.0055686 0)
(-0.440987 0.00536719 0)
(-0.445202 0.00507853 0)
(-0.448767 0.00468851 0)
(-0.451673 0.00420256 0)
(-0.45396 0.00364228 0)
(-0.455708 0.00303855 0)
(-0.457017 0.00242256 0)
(-0.457982 0.00181919 0)
(-0.458681 0.00124344 0)
(-0.459165 0.000702207 0)
(-0.459427 0.000191306 0)
(-0.459438 -0.000299983 0)
(-0.459182 -0.000783375 0)
(-0.458618 -0.00126728 0)
(-0.457704 -0.00176083 0)
(-0.456405 -0.00226971 0)
(-0.454694 -0.00279472 0)
(-0.452552 -0.00333539 0)
(-0.449972 -0.00388638 0)
(-0.446952 -0.00444249 0)
(-0.443495 -0.00499828 0)
(-0.439612 -0.00554659 0)
(-0.435315 -0.00608182 0)
(-0.430623 -0.00659791 0)
(-0.425555 -0.00708928 0)
(-0.420131 -0.0075526 0)
(-0.414375 -0.00798586 0)
(-0.408309 -0.00838815 0)
(-0.401949 -0.00876247 0)
(-0.395309 -0.00911374 0)
(-0.388402 -0.00944893 0)
(-0.381234 -0.00977508 0)
(-0.373804 -0.0101012 0)
(-0.366112 -0.0104381 0)
(-0.358153 -0.0107896 0)
(-0.349924 -0.0111596 0)
(-0.341424 -0.0115504 0)
(-0.332648 -0.0119557 0)
(-0.323596 -0.0123687 0)
(-0.314264 -0.0127785 0)
(-0.304643 -0.0131781 0)
(-0.29472 -0.0135605 0)
(-0.284484 -0.0139227 0)
(-0.273924 -0.014271 0)
(-0.263034 -0.014605 0)
(-0.251813 -0.014931 0)
(-0.240266 -0.0152544 0)
(-0.228407 -0.015579 0)
(-0.216252 -0.015907 0)
(-0.203821 -0.0162395 0)
(-0.191132 -0.0165779 0)
(-0.178197 -0.0169136 0)
(-0.165027 -0.0172602 0)
(-0.15163 -0.0176183 0)
(-0.138014 -0.0179869 0)
(-0.124178 -0.0183709 0)
(-0.11012 -0.0187771 0)
(-0.0958455 -0.0192021 0)
(-0.0813455 -0.019648 0)
(-0.0666039 -0.0201153 0)
(-0.0516085 -0.0205967 0)
(-0.0363253 -0.0210774 0)
(-0.0207311 -0.0215315 0)
(-0.00483618 -0.0219172 0)
(0.0113433 -0.0221832 0)
(0.0277371 -0.0222777 0)
(0.0442229 -0.0221631 0)
(0.060625 -0.0218287 0)
(0.076732 -0.0212987 0)
(0.0923267 -0.0206289 0)
(0.107225 -0.0198958 0)
(0.121315 -0.0191815 0)
(0.134591 -0.0185579 0)
(0.147156 -0.0180737 0)
(0.159202 -0.0177451 0)
(0.170972 -0.0175566 0)
(0.182716 -0.0174712 0)
(0.19467 -0.0174509 0)
(0.207046 -0.0174756 0)
(0.220039 -0.0175555 0)
(0.233821 -0.0177305 0)
(0.248529 -0.0180529 0)
(0.264222 -0.0185551 0)
(0.280844 -0.0192228 0)
(0.298202 -0.0200046 0)
(0.316012 -0.0208826 0)
(0.334043 -0.0219837 0)
(0.352344 -0.0236325 0)
(0.371452 -0.026201 0)
(0.392486 -0.0296168 0)
(0.41716 -0.0326247 0)
(0.447673 -0.0325656 0)
(0.485969 -0.0271124 0)
(0.531718 -0.0179807 0)
(0.573985 -0.0105268 0)
(0.601704 -0.00718663 0)
(0.612414 -0.00680764 0)
(0.609611 -0.00769326 0)
(0.597052 -0.00909612 0)
(0.579893 -0.00952785 0)
(0.563277 -0.00912754 0)
(0.551425 -0.009157 0)
(0.547046 -0.0103005 0)
(0.550666 -0.0120801 0)
(0.560975 -0.0135616 0)
(0.576009 -0.0142161 0)
(0.593658 -0.0140813 0)
(0.611841 -0.0134677 0)
(0.628791 -0.012656 0)
(0.643379 -0.0118032 0)
(0.655267 -0.0110059 0)
(0.664794 -0.0103406 0)
(0.67269 -0.00985477 0)
(0.679808 -0.00955235 0)
(0.686918 -0.00939208 0)
(0.694572 -0.00930782 0)
(0.703026 -0.00923125 0)
(0.712266 -0.00911409 0)
(0.722069 -0.00893617 0)
(0.732095 -0.00869641 0)
(0.741972 -0.00840408 0)
(0.751366 -0.00807384 0)
(0.760033 -0.00772323 0)
(0.767831 -0.00737192 0)
(0.774726 -0.00704083 0)
(0.780762 -0.00674935 0)
(0.786051 -0.00651174 0)
(0.790738 -0.00633495 0)
(0.794991 -0.00621802 0)
(0.798976 -0.006153 0)
(0.802849 -0.00612714 0)
(0.806747 -0.00612617 0)
(0.810782 -0.00613863 0)
(0.815049 -0.00616026 0)
(0.819625 -0.00619706 0)
(0.824572 -0.00626508 0)
(0.829941 -0.00638599 0)
(0.835759 -0.00657918 0)
(0.842027 -0.00685313 0)
(0.848706 -0.00719968 0)
(0.855712 -0.00759352 0)
(0.862917 -0.00799588 0)
(0.870159 -0.00836086 0)
(0.877262 -0.008643 0)
(0.884055 -0.00880551 0)
(0.890414 -0.00882957 0)
(0.896305 -0.00872425 0)
(0.901812 -0.0085326 0)
(0.907144 -0.00832687 0)
(0.91259 -0.00818455 0)
(0.918439 -0.00814917 0)
(0.924884 -0.00819663 0)
(0.931951 -0.00823204 0)
(0.939482 -0.00812789 0)
(0.94718 -0.00778834 0)
(0.9547 -0.0072039 0)
(0.961749 -0.00646731 0)
(0.968184 -0.00574409 0)
(0.974058 -0.00521199 0)
(0.979583 -0.00499314 0)
(0.985008 -0.0051039 0)
(0.99045 -0.00544991 0)
(0.995772 -0.0058825 0)
(1.00061 -0.00629481 0)
(1.00456 -0.00669744 0)
(1.00741 -0.00721127 0)
(1.00924 -0.00796285 0)
(1.0103 -0.00893375 0)
(1.01075 -0.00991818 0)
(1.01054 -0.0105652 0)
(1.00951 -0.0105619 0)
(1.00778 -0.00983531 0)
(1.00589 -0.0085814 0)
(1.00483 -0.007156 0)
(1.00565 -0.00569206 0)
(1.0092 -0.00393192 0)
(1.0162 -0.0017194 0)
(1.02652 0.000208346 0)
(1.03663 0.0013069 0)
(1.04417 0.00187211 0)
(1.04859 0.0023634 0)
(1.05033 0.00295297 0)
(1.05006 0.00355137 0)
(1.04829 0.00405763 0)
(1.04535 0.00443328 0)
(1.04153 0.00469036 0)
(1.03719 0.00487299 0)
(1.03275 0.0050279 0)
(1.02866 0.00516838 0)
(1.0253 0.00528052 0)
(1.02303 0.00536148 0)
(1.0221 0.00543458 0)
(1.02269 0.00555143 0)
(1.02493 0.0057875 0)
(1.02891 0.00623174 0)
(1.03463 0.00696984 0)
(1.0419 0.00805818 0)
(1.05035 0.00949134 0)
(1.05936 0.0111788 0)
(1.0682 0.012948 0)
(1.07614 0.0145859 0)
(1.08251 0.0158763 0)
(1.08681 0.0166372 0)
(1.08868 0.0167777 0)
(1.08781 0.0162778 0)
(1.08401 0.0151945 0)
(1.07746 0.0136497 0)
(1.06889 0.0117806 0)
(1.05954 0.00969642 0)
(1.05087 0.00748839 0)
(1.0441 0.00527375 0)
(1.03987 0.00322043 0)
(1.03818 0.00151074 0)
(1.03854 0.000224872 0)
(1.04022 -0.000553041 0)
(1.04254 -0.00085483 0)
(1.04506 -0.000829024 0)
(1.04744 -0.000637768 0)
(1.04951 -0.000389395 0)
(1.0512 -0.000153409 0)
(1.05252 4.50867e-05 0)
(1.05352 0.000209349 0)
(1.05427 0.000335179 0)
(1.05482 0.000434988 0)
(1.05519 0.000519347 0)
(1.05544 0.000594809 0)
(1.05555 0.000665526 0)
(1.05554 0.00073402 0)
(1.05539 0.000801774 0)
(1.05511 0.000869616 0)
(1.05469 0.000937953 0)
(1.05412 0.00100692 0)
(1.05341 0.00107649 0)
(1.05255 0.00114646 0)
(1.05153 0.00121653 0)
(1.05036 0.00128624 0)
(1.04903 0.00135506 0)
(1.04753 0.00142236 0)
(1.04587 0.00148743 0)
(1.04405 0.00154964 0)
(1.04207 0.00160839 0)
(1.03994 0.00166324 0)
(1.03765 0.00171394 0)
(1.03522 0.00176039 0)
(1.03266 0.00180267 0)
(1.02997 0.00184094 0)
(1.02718 0.0018754 0)
(1.02429 0.00190626 0)
(1.02132 0.00193372 0)
(1.01828 0.00195802 0)
(1.01519 0.00197945 0)
(1.01205 0.00199836 0)
(1.00888 0.00201516 0)
(1.00568 0.00203037 0)
(1.00247 0.00204455 0)
(0.99926 0.00205831 0)
(0.996054 0.00207228 0)
(0.99286 0.00208707 0)
(0.989685 0.00210328 0)
(0.986534 0.00212152 0)
(0.983413 0.00214244 0)
(0.980324 0.00216671 0)
(0.977271 0.00219503 0)
(0.974256 0.00222806 0)
(0.97128 0.00226636 0)
(0.968343 0.00231046 0)
(0.965445 0.00236078 0)
(0.962584 0.00241772 0)
(0.959757 0.00248157 0)
(0.95696 0.00255258 0)
(0.95419 0.00263082 0)
(0.95144 0.00271625 0)
(0.948705 0.0028087 0)
(0.94598 0.00290789 0)
(0.943257 0.00301342 0)
(0.940531 0.00312477 0)
(0.937793 0.00324128 0)
(0.935039 0.00336221 0)
(0.932262 0.00348668 0)
(0.929457 0.00361373 0)
(0.92662 0.00374234 0)
(0.923747 0.00387146 0)
(0.920836 0.00400006 0)
(0.917884 0.00412711 0)
(0.914891 0.00425169 0)
(0.911857 0.00437295 0)
(0.908783 0.00449024 0)
(0.905669 0.00460309 0)
(0.902517 0.00471124 0)
(0.899328 0.00481466 0)
(0.896103 0.00491351 0)
(0.892844 0.0050081 0)
(0.889549 0.00509889 0)
(0.886218 0.00518646 0)
(0.882852 0.00527142 0)
(0.879446 0.00535448 0)
(0.876 0.00543633 0)
(0.87251 0.0055176 0)
(0.868973 0.00559864 0)
(0.865385 0.00567947 0)
(0.861742 0.00575962 0)
(0.858042 0.00583794 0)
(0.854279 0.00591229 0)
(0.850449 0.00597929 0)
(0.846551 0.00603395 0)
(0.84258 0.00606989 0)
(0.838535 0.00608035 0)
(0.834413 0.00606012 0)
(0.830218 0.00600862 0)
(0.82596 0.00593312 0)
(0.821662 0.00584945 0)
(0.817358 0.00577821 0)
(0.81308 0.00573709 0)
(0.808848 0.00573346 0)
(0.804655 0.00576107 0)
(0.800476 0.00580251 0)
(0.796271 0.00583697 0)
(0.792001 0.00585108 0)
(0.78764 0.00584816 0)
(0.783178 0.00585055 0)
(0.778617 0.0058921 0)
(0.773955 0.0060032 0)
(0.769158 0.00619669 0)
(0.764155 0.00646287 0)
(0.758851 0.00677529 0)
(0.753167 0.00710288 0)
(0.74706 0.00742221 0)
(0.740532 0.00772361 0)
(0.733611 0.0080101 0)
(0.726331 0.00829215 0)
(0.718723 0.00858121 0)
(0.710824 0.00888403 0)
(0.702696 0.00919869 0)
(0.694443 0.00950948 0)
(0.68623 0.00978272 0)
(0.678261 0.00996496 0)
(0.670728 0.0099902 0)
(0.663744 0.00979592 0)
(0.657347 0.00933117 0)
(0.65154 0.00859341 0)
(0.646337 0.0076563 0)
(0.641779 0.00666162 0)
(0.637905 0.00578626 0)
(0.634687 0.00519175 0)
(0.631983 0.00497115 0)
(0.629535 0.0051176 0)
(0.627027 0.00553191 0)
(0.624167 0.00605623 0)
(0.620778 0.0065258 0)
(0.616833 0.00681554 0)
(0.612444 0.00686285 0)
(0.607811 0.00666449 0)
(0.603158 0.00625513 0)
(0.598679 0.00568568 0)
(0.594508 0.0050113 0)
(0.590706 0.00428819 0)
(0.587269 0.00357468 0)
(0.584151 0.00293334 0)
(0.581285 0.00242852 0)
(0.578596 0.00211546 0)
(0.576012 0.00202354 0)
(0.573452 0.00214142 0)
(0.570831 0.00241136 0)
(0.568058 0.0027477 0)
(0.565066 0.00307024 0)
(0.561833 0.00333221 0)
(0.558392 0.00352554 0)
(0.554802 0.00366666 0)
(0.551117 0.00377637 0)
(0.54737 0.00386538 0)
(0.543569 0.00393189 0)
(0.539718 0.00396795 0)
(0.535826 0.00396738 0)
(0.531915 0.00393111 0)
(0.528015 0.00386755 0)
(0.524149 0.00378979 0)
(0.520334 0.00371193 0)
(0.516578 0.00364609 0)
(0.512874 0.00360061 0)
(0.509211 0.0035797 0)
(0.505573 0.00358424 0)
(0.501943 0.00361297 0)
(0.498308 0.00366357 0)
(0.494657 0.00373352 0)
(0.490983 0.00382053 0)
(0.487279 0.0039227 0)
(0.483541 0.00403849 0)
(0.479763 0.00416651 0)
(0.475939 0.00430525 0)
(0.472059 0.0044526 0)
(0.468109 0.00460538 0)
(0.464069 0.00475949 0)
(0.45991 0.00491165 0)
(0.455598 0.00506282 0)
(0.451088 0.00522114 0)
(0.446335 0.00540065 0)
(0.441286 0.00561431 0)
(0.43589 0.00586569 0)
(0.430096 0.00614616 0)
(0.423865 0.00643989 0)
(0.417166 0.00673106 0)
(0.409984 0.00700737 0)
(0.402319 0.00725855 0)
(0.394192 0.00747312 0)
(0.385648 0.00764067 0)
(0.37675 0.00775433 0)
(0.367567 0.00780984 0)
(0.358179 0.00780244 0)
(0.348676 0.00772396 0)
(0.339168 0.0075621 0)
(0.329789 0.00730175 0)
(0.3207 0.00692739 0)
(0.312085 0.00642564 0)
(0.304146 0.00578816 0)
(0.297085 0.00501513 0)
(0.291093 0.00411879 0)
(0.286328 0.0031259 0)
(0.282893 0.00207589 0)
(0.280829 0.00101528 0)
(0.280045 5.54386e-06 0)
(0.280356 -0.000888024 0)
(0.28162 -0.00156537 0)
(0.283631 -0.0019027 0)
(0.286323 -0.00173152 0)
(0.290106 -0.00103177 0)
(0.29483 -2.94458e-05 0)
(0.299778 0.00111682 0)
(0.304275 0.00236571 0)
(0.307937 0.00368926 0)
(0.310548 0.00498275 0)
(0.311951 0.00622937 0)
(0.312109 0.00743586 0)
(0.311039 0.00859676 0)
(0.308787 0.00970908 0)
(0.305414 0.0107693 0)
(0.300979 0.0117709 0)
(0.29553 0.0127036 0)
(0.289092 0.0135543 0)
(0.281674 0.0143036 0)
(0.273277 0.0149327 0)
(0.263893 0.0154282 0)
(0.253512 0.0157819 0)
(0.242123 0.0159886 0)
(0.229726 0.0160443 0)
(0.21634 0.015944 0)
(0.202006 0.0156804 0)
(0.186794 0.0152426 0)
(0.17081 0.0146196 0)
(0.154197 0.0138041 0)
(0.137136 0.0127995 0)
(0.119843 0.0116285 0)
(0.102563 0.0103567 0)
(0.0855865 0.00913135 0)
(0.0692563 0.00822775 0)
(0.0536338 0.00813293 0)
(0.0383382 0.00905585 0)
(0.0230742 0.0104922 0)
(0.00915387 0.0121049 0)
(-0.0109487 0.0300949 0)
(-0.0208741 0.0171802 0)
(-0.0287237 0.0179488 0)
(-0.0402622 0.0208828 0)
(-0.0535828 0.0229359 0)
(-0.0685553 0.0243318 0)
(-0.0842158 0.0255016 0)
(-0.100303 0.0264922 0)
(-0.116512 0.02722 0)
(-0.132557 0.0276225 0)
(-0.148185 0.0277 0)
(-0.163209 0.0274842 0)
(-0.177517 0.0270157 0)
(-0.191064 0.0263565 0)
(-0.203863 0.0255707 0)
(-0.215966 0.0247135 0)
(-0.227449 0.0238366 0)
(-0.238396 0.0229798 0)
(-0.248889 0.0221662 0)
(-0.259002 0.0214103 0)
(-0.268791 0.0207128 0)
(-0.278289 0.0200646 0)
(-0.287516 0.0194513 0)
(-0.296474 0.0188571 0)
(-0.305156 0.0182662 0)
(-0.313549 0.0176648 0)
(-0.321645 0.0170456 0)
(-0.329442 0.0164069 0)
(-0.336947 0.0157544 0)
(-0.34418 0.0150994 0)
(-0.351169 0.014457 0)
(-0.357952 0.0138431 0)
(-0.364567 0.0132737 0)
(-0.371043 0.0127605 0)
(-0.377395 0.0123041 0)
(-0.383613 0.0118952 0)
(-0.389657 0.0115123 0)
(-0.395457 0.0111209 0)
(-0.400915 0.0106759 0)
(-0.405919 0.0101338 0)
(-0.410364 0.00946251 0)
(-0.414167 0.00864951 0)
(-0.417288 0.00770862 0)
(-0.419737 0.00667818 0)
(-0.421574 0.00561292 0)
(-0.422895 0.00457349 0)
(-0.423815 0.00361022 0)
(-0.424446 0.00275199 0)
(-0.424885 0.00200485 0)
(-0.4252 0.00135422 0)
(-0.425424 0.000770729 0)
(-0.425559 0.00021852 0)
(-0.4256 -0.000331374 0)
(-0.425509 -0.000914312 0)
(-0.425226 -0.00154205 0)
(-0.424708 -0.00222059 0)
(-0.423919 -0.00294932 0)
(-0.422829 -0.0037195 0)
(-0.421417 -0.00451782 0)
(-0.419667 -0.00533289 0)
(-0.417572 -0.006153 0)
(-0.415131 -0.00696792 0)
(-0.412344 -0.00776866 0)
(-0.40921 -0.00854821 0)
(-0.405732 -0.00930189 0)
(-0.40191 -0.0100255 0)
(-0.397741 -0.0107172 0)
(-0.393223 -0.0113793 0)
(-0.388353 -0.0120154 0)
(-0.383129 -0.0126293 0)
(-0.377541 -0.0132273 0)
(-0.371584 -0.0138194 0)
(-0.365256 -0.0144131 0)
(-0.358558 -0.0150114 0)
(-0.351499 -0.015619 0)
(-0.344092 -0.0162369 0)
(-0.336353 -0.0168655 0)
(-0.328302 -0.0175051 0)
(-0.319962 -0.0181561 0)
(-0.311348 -0.0188194 0)
(-0.302467 -0.0194977 0)
(-0.293323 -0.0201828 0)
(-0.283907 -0.0208756 0)
(-0.274203 -0.0215727 0)
(-0.264195 -0.0222697 0)
(-0.253872 -0.0229613 0)
(-0.243233 -0.0236401 0)
(-0.23229 -0.0242989 0)
(-0.221066 -0.024931 0)
(-0.209599 -0.0255323 0)
(-0.197931 -0.0261003 0)
(-0.186104 -0.0266376 0)
(-0.174158 -0.027148 0)
(-0.162128 -0.0276316 0)
(-0.150042 -0.0280964 0)
(-0.137921 -0.0285441 0)
(-0.125786 -0.0289783 0)
(-0.113657 -0.0293933 0)
(-0.101546 -0.0298019 0)
(-0.0894705 -0.0302121 0)
(-0.0774537 -0.0306205 0)
(-0.0655075 -0.0310461 0)
(-0.0536412 -0.0314994 0)
(-0.041854 -0.0319623 0)
(-0.0301346 -0.0324252 0)
(-0.0184601 -0.0328246 0)
(-0.00677919 -0.0330883 0)
(0.00498092 -0.0331368 0)
(0.0169061 -0.0329089 0)
(0.0290746 -0.0323828 0)
(0.0415356 -0.0315889 0)
(0.0542996 -0.0306135 0)
(0.067342 -0.0295868 0)
(0.0806143 -0.0286554 0)
(0.0940629 -0.0279487 0)
(0.107648 -0.0275527 0)
(0.121358 -0.0274984 0)
(0.135224 -0.0277689 0)
(0.149308 -0.028321 0)
(0.163693 -0.0291065 0)
(0.178447 -0.0300862 0)
(0.193588 -0.0312294 0)
(0.209058 -0.0324989 0)
(0.224718 -0.0338219 0)
(0.240352 -0.0350638 0)
(0.255673 -0.0360315 0)
(0.270307 -0.0365426 0)
(0.28377 -0.0365861 0)
(0.29547 -0.0365273 0)
(0.304807 -0.0371828 0)
(0.31144 -0.0395628 0)
(0.315685 -0.0442213 0)
(0.31892 -0.0504017 0)
(0.323749 -0.0554387 0)
(0.333402 -0.0552623 0)
(0.349893 -0.0465976 0)
(0.371416 -0.0306596 0)
(0.391801 -0.0130835 0)
(0.404769 0.000585764 0)
(0.408567 0.00781935 0)
(0.406173 0.00922772 0)
(0.403231 0.00496133 0)
(0.404052 -0.00377333 0)
(0.409588 -0.0141852 0)
(0.418342 -0.0233369 0)
(0.428633 -0.0295561 0)
(0.439644 -0.0323069 0)
(0.451236 -0.0319616 0)
(0.463461 -0.0295002 0)
(0.476193 -0.0260541 0)
(0.489077 -0.0225516 0)
(0.501717 -0.0195909 0)
(0.513855 -0.0174917 0)
(0.52543 -0.016373 0)
(0.536524 -0.0161647 0)
(0.547286 -0.0166287 0)
(0.55787 -0.0174333 0)
(0.568411 -0.0182485 0)
(0.579014 -0.0188206 0)
(0.589745 -0.0190056 0)
(0.600625 -0.018771 0)
(0.611635 -0.0181693 0)
(0.622721 -0.0172997 0)
(0.633813 -0.0162772 0)
(0.644841 -0.0152106 0)
(0.655741 -0.0141891 0)
(0.666467 -0.0132766 0)
(0.676987 -0.0125126 0)
(0.687289 -0.0119166 0)
(0.697375 -0.0114936 0)
(0.707267 -0.0112386 0)
(0.717003 -0.0111402 0)
(0.726638 -0.0111835 0)
(0.736238 -0.0113528 0)
(0.745877 -0.0116347 0)
(0.755617 -0.012018 0)
(0.765501 -0.0124912 0)
(0.775527 -0.0130369 0)
(0.785645 -0.0136243 0)
(0.795748 -0.0142062 0)
(0.805686 -0.0147213 0)
(0.815285 -0.0151017 0)
(0.824377 -0.0152836 0)
(0.832824 -0.0152186 0)
(0.840548 -0.0148862 0)
(0.847546 -0.0143076 0)
(0.853906 -0.0135596 0)
(0.859804 -0.0127809 0)
(0.865483 -0.0121597 0)
(0.87121 -0.0118911 0)
(0.877209 -0.0121088 0)
(0.883607 -0.0128195 0)
(0.890406 -0.0138739 0)
(0.897506 -0.0149963 0)
(0.904768 -0.0158648 0)
(0.912089 -0.0162121 0)
(0.919437 -0.0159153 0)
(0.926849 -0.0150453 0)
(0.934395 -0.0138547 0)
(0.94214 -0.0126973 0)