/*--------------------------------*- C++ -*----------------------------------*\
| =========                 |                                                 |
| \\      /  F ield         | OpenFOAM: The Open Source CFD Toolbox           |
|  \\    /   O peration     | Version:  v2006                                 |
|   \\  /    A nd           | Website:  www.openfoam.com                      |
|    \\/     M anipulation  |                                                 |
\*---------------------------------------------------------------------------*/
FoamFile
{
    version     2.0;
    format      ascii;
    class       volScalarField;
    location    "0";
    object      f;
}
// * * * * * * * * * * * * * * * * * * * * * * * * * * * * * * * * * * * * * //

dimensions      [0 0 0 0 0 0 0];


internalField   nonuniform List<scalar> 
2500
(
1.98065e-07
1.09569e-07
6.74861e-07
2.73757e-06
-3.88845e-06
-1.05e-05
1.14412e-05
3.73936e-05
-2.30439e-05
-0.000112468
-1.65815e-05
0.000284752
0.000212063
-0.000668645
-0.00110177
0.000337809
-0.000684086
-0.0163559
-0.0599482
-0.127649
-0.188168
-0.192672
-0.105858
0.0449531
0.156427
0.0707378
-0.353861
-1.14368
-2.1624
-3.12071
-3.6661
-3.51603
-2.59979
-1.10082
0.606718
2.10751
3.09222
3.44372
3.23127
2.64717
1.91746
1.232
0.69994
0.348959
0.150936
0.0559569
0.0178002
0.00512384
0.00147269
0.000699915
2.61299e-07
5.3866e-07
1.22433e-06
-2.69671e-06
-6.77534e-06
1.18466e-05
2.5364e-05
-2.98532e-05
-8.12971e-05
3.36143e-05
0.000232768
5.78148e-05
-0.000647589
-0.00071831
0.000514771
-0.00132673
-0.0142849
-0.0429168
-0.0780524
-0.0973399
-0.0805773
-0.025389
0.027526
0.0143505
-0.131206
-0.433183
-0.842461
-1.26988
-1.6043
-1.76489
-1.73871
-1.59173
-1.43353
-1.36023
-1.40124
-1.51581
-1.62204
-1.64295
-1.53876
-1.31683
-1.02198
-0.712388
-0.442009
-0.241243
-0.113956
-0.0454526
-0.0147223
-0.00368625
-0.000638226
-0.000130833
7.17521e-07
7.48198e-07
-3.43097e-07
-4.72033e-06
5.74529e-07
2.11599e-05
1.33696e-06
-6.18248e-05
-3.58085e-05
0.000143277
0.000152715
-0.00032464
-0.000789148
-0.000263283
-0.0012891
-0.0107759
-0.0363667
-0.0777557
-0.120039
-0.138451
-0.113438
-0.0529224
-0.00596709
-0.0508618
-0.264865
-0.686604
-1.29394
-1.98642
-2.61212
-3.00938
-3.06484
-2.75343
-2.14664
-1.38599
-0.629133
-0.00593966
0.412526
0.6177
0.649091
0.569113
0.439472
0.305948
0.193723
0.111243
0.0575577
0.0265665
0.0107258
0.00367557
0.00104125
0.000218829
1.19756e-06
1.5836e-07
-2.09108e-06
-4.8981e-06
1.08125e-05
2.35724e-05
-3.49443e-05
-8.16582e-05
5.59888e-05
0.000222713
-6.46848e-05
-0.000779996
-0.000888643
-0.00125058
-0.00762208
-0.0294546
-0.0712429
-0.122119
-0.154593
-0.14052
-0.0764651
-0.0079742
-0.0212062
-0.210855
-0.635105
-1.27719
-2.03527
-2.74642
-3.23996
-3.39861
-3.20268
-2.73336
-2.13651
-1.56063
-1.10414
-0.799455
-0.622221
-0.522105
-0.449612
-0.374372
-0.288662
-0.200659
-0.124254
-0.0680561
-0.0325359
-0.0134011
-0.00476995
-0.00152504
-0.000445543
-0.000186405
1.59837e-06
-1.35921e-06
-3.68588e-06
-4.79471e-07
2.33222e-05
5.21597e-06
-8.18356e-05
-4.24426e-05
0.000182241
0.000150946
-0.000531146
-0.00117877
-0.00150782
-0.00520687
-0.0218618
-0.0600105
-0.115208
-0.162896
-0.169268
-0.117443
-0.036748
-0.00679132
-0.132475
-0.496931
-1.11815
-1.92416
-2.76474
-3.45293
-3.82824
-3.80871
-3.4184
-2.77214
-2.02678
-1.32428
-0.757258
-0.357563
-0.111829
0.0180337
0.0747004
0.0911691
0.0879415
0.0745033
0.0560857
0.0373519
0.0217547
0.0108012
0.00445455
0.00145047
0.00035892
3.05463e-05
1.57752e-06
-3.70256e-06
-3.00085e-06
8.04817e-06
2.8381e-05
-3.47816e-05
-0.000105355
6.11173e-05
0.000256002
-0.000149092
-0.00110981
-0.00180285
-0.0037194
-0.0145345
-0.0456233
-0.0998829
-0.159146
-0.187409
-0.153731
-0.0683966
0.00260406
-0.0519247
-0.339288
-0.912087
-1.73042
-2.65664
-3.49073
-4.03568
-4.16499
-3.86615
-3.23895
-2.45287
-1.6803
-1.04415
-0.595856
-0.324568
-0.183879
-0.118977
-0.0871502
-0.0650621
-0.0450454
-0.0286348
-0.0169574
-0.00967519
-0.0055255
-0.00322749
-0.00177799
-0.000861677
-0.000351572
-0.00013555
9.57909e-07
-6.15197e-06
1.14252e-06
1.84211e-05
1.90035e-05
-8.75994e-05
-7.99237e-05
0.000192944
0.000187595
-0.000656771
-0.00180446
-0.00293688
-0.00859777
-0.0302035
-0.0775959
-0.14187
-0.190584
-0.182264
-0.105542
-0.0056917
0.0125139
-0.173871
-0.651294
-1.42079
-2.37526
-3.3177
-4.02775
-4.33391
-4.17502
-3.616
-2.81593
-1.96485
-1.21761
-0.65729
-0.295999
-0.0968267
-0.00492695
0.0298682
0.0398849
0.0409222
0.0364997
0.0286944
0.0197257
0.011566
0.00569729
0.00231879
0.00076024
0.000205396
4.93327e-05
3.47135e-05
-4.19158e-07
-7.86493e-06
9.73082e-06
2.67198e-05
-1.00818e-05
-0.000136349
7.16554e-06
0.000318096
-3.62482e-05
-0.00129384
-0.00243345
-0.00455111
-0.0161871
-0.0512471
-0.11205
-0.175338
-0.196069
-0.142086
-0.0312051
0.050976
-0.0212381
-0.363366
-1.02395
-1.93987
-2.93802
-3.78714
-4.27537
-4.28703
-3.84091
-3.0751
-2.18908
-1.36941
-0.732559
-0.315222
-0.0884488
0.00674511
0.0312244
0.0283013
0.0205435
0.0135166
0.00758621
0.0030176
-0.000252279
-0.00190727
-0.00217281
-0.00161021
-0.000868468
-0.000368616
-0.000121687
-1.39191e-05
-2.57845e-06
-7.45842e-06
2.37715e-05
2.71346e-05
-6.13295e-05
-0.000159347
0.000181486
0.000427206
-0.000356206
-0.00166754
-0.00213332
-0.00549882
-0.0251096
-0.0732616
-0.141045
-0.188308
-0.168524
-0.0684935
0.0568473
0.0953329
-0.0845939
-0.576475
-1.37414
-2.34983
-3.28539
-3.9436
-4.15404
-3.87655
-3.21032
-2.34632
-1.49167
-0.79518
-0.322744
-0.0606098
0.0484054
0.0715748
0.0605628
0.0445547
0.0312911
0.0208671
0.0127979
0.00663649
0.00250132
0.000443569
-0.000217997
-0.000108752
1.42776e-05
6.60312e-05
5.55471e-05
4.68214e-05
-5.32817e-06
-1.81711e-06
4.29026e-05
8.93659e-06
-0.000130998
-9.13418e-05
0.000502312
0.000594883
-0.00038085
-0.000554163
0.00121798
-0.0034517
-0.0319353
-0.0911502
-0.155453
-0.17391
-0.106538
0.0319963
0.15902
0.146675
-0.131962
-0.731474
-1.58989
-2.53153
-3.31765
-3.73371
-3.67275
-3.17524
-2.40248
-1.56598
-0.844072
-0.334712
-0.0460675
0.0718463
0.0896878
0.0673038
0.0409314
0.0218692
0.00963151
0.00248901
-0.00123801
-0.00293626
-0.00301186
-0.00222082
-0.00118046
-0.000489306
-0.000137993
-3.97325e-06
1.60906e-05
9.79335e-06
-7.19946e-06
1.29103e-05
6.18431e-05
-3.91785e-05
-0.000178632
0.000181191
0.00109293
0.00112681
0.00104514
0.00462967
0.0109141
0.00457294
-0.0335415
-0.0993078
-0.150498
-0.131121
-0.0130377
0.164013
0.297442
0.249076
-0.08774
-0.729303
-1.57113
-2.40676
-3.0005
-3.18207
-2.91675
-2.31302
-1.56347
-0.864345
-0.344239
-0.0392687
0.0864683
0.101315
0.0707918
0.0373629
0.0154487
0.00368036
-0.00135482
-0.00273253
-0.0030117
-0.00246271
-0.00155543
-0.000632236
-8.46801e-05
0.000135425
0.000155764
8.84068e-05
3.90093e-05
8.33263e-06
-4.69081e-06
3.93528e-05
6.79075e-05
-0.000114982
-8.05939e-05
0.000856192
0.0022056
0.00287251
0.0063299
0.0176266
0.0300696
0.0204829
-0.0284116
-0.0966631
-0.127327
-0.0590933
0.119078
0.34951
0.511912
0.468668
0.128209
-0.497029
-1.2704
-1.97096
-2.38388
-2.39413
-2.03212
-1.44714
-0.831436
-0.337421
-0.0334533
0.0943493
0.105758
0.0679224
0.0278745
0.0036419
-0.00702762
-0.00922973
-0.00752464
-0.00563476
-0.00378186
-0.00217175
-0.00092392
-0.000192004
0.000106275
0.000151164
8.05403e-05
2.75583e-05
2.94476e-06
-1.07824e-05
6.32333e-06
7.50015e-05
4.84602e-05
-0.000140546
0.000368962
0.0021961
0.00437388
0.00759175
0.0188895
0.0418284
0.0597779
0.0425443
-0.0193436
-0.0866762
-0.084641
0.0464891
0.307331
0.622188
0.855361
0.861629
0.557004
-0.0231319
-0.717469
-1.30211
-1.59274
-1.52669
-1.18095
-0.717584
-0.297451
-0.0203043
0.0999846
0.107042
0.0633306
0.0180412
-0.00745711
-0.0161648
-0.0150016
-0.00992861
-0.00590185
-0.00307151
-0.00123548
-0.000161375
0.00034626
0.000434429
0.000320747
0.000155699
5.16044e-05
4.34481e-06
-7.59726e-06
-7.98509e-06
2.94027e-05
0.000111433
1.81727e-05
2.43963e-05
0.0014276
0.00453272
0.00856987
0.0176896
0.0417032
0.0777749
0.0968052
0.0645011
-0.0134936
-0.0728577
-0.0219993
0.199045
0.577802
1.01673
1.3559
1.43437
1.17107
0.625653
-0.0196191
-0.542158
-0.78908
-0.740675
-0.498657
-0.208453
0.00848769
0.107335
0.107158
0.0587013
0.00962026
-0.0165199
-0.0232345
-0.0189353
-0.010856
-0.00514282
-0.00178795
-0.000112235
0.000538925
0.000704203
0.000567735
0.000334943
0.000128772
1.51171e-05
-2.31674e-05
-2.32251e-05
-1.26273e-05
-3.43959e-06
6.46809e-05
0.000143046
5.76632e-05
0.000565738
0.00331282
0.00822704
0.0159272
0.0349738
0.0749062
0.121518
0.131986
0.0755325
-0.0181108
-0.0549227
0.0702522
0.413682
0.944461
1.53416
1.98759
2.12194
1.8682
1.31435
0.667972
0.14709
-0.124601
-0.157966
-0.0548216
0.0619327
0.119022
0.105792
0.0537294
0.00290973
-0.0231441
-0.0278374
-0.0206411
-0.0100277
-0.00308243
0.000349813
0.00148342
0.00145672
0.001127
0.000708216
0.000342843
9.88997e-05
-1.86713e-05
-4.536e-05
-3.20554e-05
-1.40175e-05
-3.6911e-06
2.41061e-06
0.00010953
0.000196768
0.000212346
0.00156203
0.00602999
0.0133491
0.026709
0.0586419
0.114071
0.163036
0.152804
0.0658091
-0.0350328
-0.0294378
0.195414
0.686338
1.3849
2.11929
2.65247
2.79197
2.49182
1.88106
1.19149
0.63293
0.301725
0.171696
0.146795
0.137446
0.102842
0.0470796
-0.00344408
-0.0283763
-0.0307933
-0.0210116
-0.00838761
-0.00063302
0.00252933
0.00288351
0.00206293
0.00123743
0.000599987
0.000184254
-2.77904e-05
-9.94065e-05
-8.79883e-05
-4.73195e-05
-1.73094e-05
-2.10841e-06
2.17883e-06
2.91842e-06
0.000157309
0.00022981
0.000429497
0.00281967
0.00904867
0.018868
0.0387942
0.0837958
0.149612
0.189561
0.147742
0.031421
-0.0638318
0.000525325
0.337376
0.976187
1.82133
2.65151
3.19894
3.27761
2.88395
2.19099
1.44774
0.849395
0.468356
0.268554
0.166785
0.0984502
0.0369481
-0.0110996
-0.0333217
-0.033048
-0.020913
-0.00674412
0.00151427
0.00425229
0.0037724
0.002208
0.000999807
0.000274236
-7.78009e-05
-0.000188909
-0.000176825
-0.00011491
-4.89341e-05
-1.09618e-05
4.23652e-06
6.22391e-06
3.79602e-06
1.20164e-06
0.00014685
0.000110069
0.000373936
0.0035629
0.0107122
0.0216374
0.0467857
0.101902
0.170251
0.190374
0.113253
-0.0265953
-0.108942
0.0122816
0.444067
1.19318
2.12392
2.97554
3.46683
3.43978
2.93997
2.17986
1.41238
0.810886
0.424817
0.209532
0.0934453
0.0228978
-0.0208106
-0.0386368
-0.0351065
-0.020717
-0.00553718
0.00300987
0.00526095
0.00401181
0.00186319
0.000442236
-0.000216068
-0.000391447
-0.000346318
-0.000229185
-0.000115997
-3.46205e-05
3.86479e-06
1.38807e-05
1.063e-05
4.87988e-06
1.48479e-06
-6.13261e-07
-8.27281e-05
-0.000547392
-0.000776806
0.00211906
0.00770722
0.0161344
0.043115
0.103791
0.168223
0.16347
0.0517445
-0.110983
-0.193244
-0.0467733
0.426155
1.21457
2.15326
2.95748
3.35149
3.21624
2.64474
1.87309
1.14307
0.598949
0.265177
0.0903567
0.00552926
-0.0330493
-0.0442605
-0.0367053
-0.0202422
-0.00463357
0.00391333
0.00565443
0.00378977
0.00123519
-0.00022913
-0.000699973
-0.000633194
-0.000417834
-0.000211
-6.94416e-05
4.88898e-06
2.9429e-05
2.66101e-05
1.47824e-05
5.29664e-06
5.89429e-07
-7.5287e-07
-9.88805e-07
-0.000869881
-0.00245531
-0.00439874
-0.00418579
-0.00468389
-0.00392362
0.0215359
0.086168
0.144883
0.116398
-0.0331763
-0.236907
-0.358088
-0.251338
0.184704
0.935289
1.81977
2.54319
2.84626
2.64828
2.07731
1.37308
0.752481
0.324776
0.0900128
-0.013545
-0.0472563
-0.0496946
-0.0374254
-0.0191821
-0.00364216
0.00453333
0.00573494
0.00338273
0.00059178
-0.000793895
-0.00102793
-0.000716055
-0.000362993
-0.000112764
1.79492e-05
5.98419e-05
5.61855e-05
3.56103e-05
1.4945e-05
2.90192e-06
-1.62782e-06
-2.03452e-06
-1.22996e-06
-3.19396e-07
-0.00272402
-0.00656067
-0.0121904
-0.0184068
-0.0307305
-0.0419566
-0.017716
0.0546089
0.111698
0.0557331
-0.147454
-0.429385
-0.65498
-0.665845
-0.338186
0.324465
1.13427
1.7915
2.053
1.86883
1.38265
0.821424
0.366172
0.0899883
-0.0319266
-0.0624056
-0.0546965
-0.0367886
-0.0170109
-0.00218095
0.00516526
0.00573141
0.00299358
8.9875e-05
-0.00113902
-0.00113092
-0.000624621
-0.000198804
3.81262e-05
0.000119001
0.000109506
7.11332e-05
3.36701e-05
8.24684e-06
-2.9275e-06
-5.12439e-06
-3.45851e-06
-1.46798e-06
-3.65365e-07
2.69574e-07
-0.00613011
-0.0136162
-0.0253416
-0.0421419
-0.0707912
-0.0940795
-0.0641925
0.024633
0.0826411
-0.0125552
-0.300309
-0.713192
-1.10761
-1.29303
-1.10639
-0.53543
0.223232
0.862291
1.15069
1.05618
0.722704
0.35026
0.0805084
-0.0486626
-0.0762772
-0.0584463
-0.0343896
-0.0134075
9.76944e-05
0.00588339
0.00564363
0.00263722
-0.000244747
-0.00127365
-0.00105614
-0.000430436
4.68932e-06
0.000184085
0.000192466
0.000127899
6.14278e-05
1.58901e-05
-6.21766e-06
-1.13974e-05
-8.86889e-06
-4.33993e-06
-1.23983e-06
9.70822e-08
3.56541e-07
3.10773e-07
-0.0110558
-0.0233164
-0.0429605
-0.0727522
-0.118001
-0.147149
-0.100434
0.0128625
0.0642392
-0.0891559
-0.491512
-1.07331
-1.66741
-2.03591
-1.97365
-1.45981
-0.707763
-0.0347906
0.335565
0.378499
0.224596
0.041881
-0.0656521
-0.0864299
-0.0601505
-0.029897
-0.00819732
0.00318877
0.0066866
0.00541425
0.00223534
-0.000495145
-0.00128885
-0.000903538
-0.000230692
0.000172441
0.000272849
0.000207934
0.000102715
2.50936e-05
-1.40072e-05
-2.38327e-05
-1.89206e-05
-1.04154e-05
-3.51029e-06
-2.82517e-08
9.47638e-07
7.38782e-07
3.69119e-07
3.73462e-08
-0.016198
-0.0331482
-0.0602456
-0.101279
-0.157732
-0.182871
-0.109186
0.0273122
0.0629823
-0.159145
-0.682708
-1.427
-2.19509
-2.7041
-2.71761
-2.21947
-1.44151
-0.70871
-0.239007
-0.0588688
-0.054978
-0.0902954
-0.0912735
-0.0580407
-0.0227522
-0.00137148
0.00720352
0.00762394
0.0049959
0.00168535
-0.000753012
-0.00128722
-0.000770055
-8.59803e-05
0.000263116
0.000287785
0.000168477
4.39877e-05
-2.42939e-05
-4.39349e-05
-3.61329e-05
-2.05331e-05
-7.55033e-06
-2.2031e-07
2.17599e-06
2.01297e-06
1.05367e-06
3.30203e-07
1.7998e-08
-1.24757e-07
-0.0182982
-0.0375826
-0.0678261
-0.113477
-0.17302
-0.187036
-0.0853602
0.0687536
0.090557
-0.180524
-0.77976
-1.62033
-2.48933
-3.07421
-3.12179
-2.62298
-1.82264
-1.04639
-0.508129
-0.237068
-0.13623
-0.0917674
-0.0498483
-0.0125237
0.00693596
0.0118315
0.00869178
0.00438
0.000912893
-0.00107545
-0.00129719
-0.000659563
7.01091e-06
0.000290148
0.000254248
0.000101798
-2.04903e-05
-6.5476e-05
-5.99583e-05
-3.53297e-05
-1.30548e-05
1.3386e-07
4.86743e-06
4.58887e-06
2.6927e-06
9.77522e-07
8.19091e-08
-1.83168e-07
-1.58433e-07
-7.48745e-08
-0.012215
-0.0287358
-0.0541259
-0.0960637
-0.154456
-0.159344
-0.0377521
0.140447
0.180096
-0.0703106
-0.646658
-1.48115
-2.36818
-2.98202
-3.05705
-2.58252
-1.8045
-1.04268
-0.504134
-0.217643
-0.093058
-0.0343468
0.00131565
0.0167045
0.0169108
0.00993741
0.00356958
-6.5711e-05
-0.00145207
-0.00130379
-0.000558689
7.80843e-05
0.000290334
0.000205523
3.93337e-05
-6.54849e-05
-8.29679e-05
-5.4725e-05
-2.01737e-05
1.6081e-06
9.73515e-06
9.32201e-06
5.70442e-06
2.25198e-06
2.39528e-07
-4.483e-07
-4.40348e-07
-2.2901e-07
-7.8281e-08
2.25873e-08
0.00736826
0.000410236
-0.0116813
-0.045712
-0.108427
-0.116431
0.0254918
0.255099
0.383419
0.261159
-0.174892
-0.908011
-1.76131
-2.39901
-2.53354
-2.14203
-1.45882
-0.790914
-0.333079
-0.1034
-0.0132257
0.0192883
0.027672
0.0220837
0.0111349
0.00260881
-0.00121342
-0.00186997
-0.00128166
-0.000419763
0.000160392
0.000292578
0.000167947
-1.65501e-07
-8.25429e-05
-7.54723e-05
-3.32145e-05
1.83833e-06
1.64842e-05
1.61878e-05
1.02019e-05
4.1538e-06
3.94428e-07
-1.05706e-06
-1.0784e-06
-6.18827e-07
-2.16552e-07
-1.56102e-08
3.7322e-08
4.25388e-08
0.0423165
0.0504198
0.055276
0.024367
-0.0575919
-0.0798368
0.099022
0.434517
0.738701
0.84557
0.63514
0.0507016
-0.762446
-1.45077
-1.69714
-1.45565
-0.940618
-0.439474
-0.123893
0.00875577
0.0409431
0.0392296
0.0266353
0.0118748
0.00151725
-0.00241334
-0.00228849
-0.00119792
-0.000240665
0.000262388
0.000305809
0.000141815
-2.20178e-05
-8.13677e-05
-5.61103e-05
-8.74853e-06
1.97413e-05
2.40964e-05
1.5833e-05
6.37329e-06
1.91714e-07
-2.23543e-06
-2.29469e-06
-1.41581e-06
-5.37402e-07
-4.95558e-08
1.04266e-07
9.14496e-08
4.81469e-08
6.6385e-09
0.0865706
0.110137
0.12724
0.0868441
-0.0282324
-0.0596869
0.183934
0.675135
1.20868
1.58562
1.61924
1.18104
0.391633
-0.375846
-0.774825
-0.730593
-0.430161
-0.132299
0.0268653
0.0634499
0.0502624
0.0298305
0.0116104
0.000303466
-0.00345711
-0.00264905
-0.0010437
-1.29323e-05
0.000375503
0.000311695
0.000113783
-3.91945e-05
-7.60792e-05
-3.81719e-05
8.10101e-06
2.71625e-05
2.23624e-05
9.14438e-06
-2.84695e-07
-4.26521e-06
-4.20723e-06
-2.66009e-06
-1.07822e-06
-1.02222e-07
2.50465e-07
2.4458e-07
1.28333e-07
3.99734e-08
1.62545e-09
-1.53108e-08
0.123984
0.156587
0.175392
0.115762
-0.0317764
-0.0617896
0.261081
0.905336
1.63946
2.24371
2.48422
2.17394
1.40525
0.558088
0.00187345
-0.154838
-0.0660784
0.0473787
0.0811751
0.0589203
0.0306221
0.00984554
-0.001202
-0.00429092
-0.00288624
-0.000809086
0.000248963
0.000483517
0.000301322
7.5265e-05
-6.01133e-05
-7.34527e-05
-2.73096e-05
1.51937e-05
2.54006e-05
1.46759e-05
5.76693e-07
-6.17043e-06
-6.74917e-06
-4.2892e-06
-1.71042e-06
-6.6094e-08
5.61946e-07
5.52822e-07
3.20314e-07
1.09143e-07
3.97596e-09
-2.38568e-08
-1.89233e-08
-7.91647e-09
0.132278
0.163826
0.176983
0.103953
-0.0611852
-0.094717
0.263111
0.968617
1.78731
2.5204
2.92046
2.74257
2.02836
1.14233
0.472969
0.165735
0.100049
0.0918122
0.0616341
0.0273671
0.00583986
-0.00335506
-0.00494699
-0.00288941
-0.000472511
0.000521781
0.000570254
0.000265133
2.11655e-05
-8.46665e-05
-7.36934e-05
-2.01187e-05
1.70362e-05
2.03471e-05
6.906e-06
-5.38904e-06
-8.59395e-06
-6.15173e-06
-2.34375e-06
1.81915e-07
1.15944e-06
1.09243e-06
6.54634e-07
2.38169e-07
6.02562e-09
-6.30495e-08
-5.30084e-08
-2.48687e-08
-7.35598e-09
3.36702e-09
0.0943382
0.118533
0.13374
0.069805
-0.107789
-0.196564
0.0764921
0.682396
1.43303
2.1997
2.73951
2.7312
2.1383
1.29206
0.598921
0.234835
0.105235
0.0538859
0.0181163
-0.00096585
-0.0065551
-0.00534955
-0.00250628
-8.1043e-06
0.00078884
0.000616378
0.000199901
-4.30468e-05
-0.000107493
-7.01853e-05
-1.13447e-05
1.9095e-05
1.68523e-05
2.28361e-06
-7.33711e-06
-7.43213e-06
-3.3211e-06
4.12282e-07
1.95598e-06
1.85254e-06
1.10025e-06
3.91554e-07
-2.34099e-08
-1.56153e-07
-1.33749e-07
-6.67942e-08
-1.86171e-08
1.90039e-09
5.59982e-09
4.55218e-09
0.012393
0.0336471
0.0733919
0.0415423
-0.174238
-0.421094
-0.388295
-0.0378233
0.529469
1.27466
1.95763
2.16721
1.77393
1.06707
0.462376
0.145765
0.0360813
0.00081571
-0.0113213
-0.0109512
-0.00570893
-0.00170232
0.000563599
0.00101853
0.000603874
0.000109594
-0.000108029
-0.000123242
-5.93437e-05
1.00152e-06
2.29168e-05
1.51476e-05
2.95621e-07
-6.82476e-06
-4.89453e-06
-3.56654e-07
2.36074e-06
2.6126e-06
1.56758e-06
4.93598e-07
-1.46304e-07
-3.37832e-07
-2.80218e-07
-1.46468e-07
-4.06477e-08
7.78335e-09
1.73972e-08
1.10773e-08
4.76567e-09
-2.17525e-10
-0.0853204
-0.0536219
0.0327018
0.0313178
-0.275732
-0.77917
-1.08811
-1.0593
-0.717496
-0.0240402
0.790966
1.24582
1.11658
0.640757
0.217972
0.0201619
-0.0255093
-0.0256566
-0.0164345
-0.00629857
-0.00064432
0.00126405
0.00122001
0.000549148
6.25004e-06
-0.000167155
-0.000129716
-4.21259e-05
1.51395e-05
2.65408e-05
1.3288e-05
-1.13648e-06
-5.95996e-06
-2.94992e-06
1.23141e-06
2.759e-06
2.02791e-06
5.82659e-07
-3.46806e-07
-6.2429e-07
-4.90412e-07
-2.51097e-07
-6.37606e-08
2.73049e-08
4.49237e-08
2.99946e-08
1.18564e-08
1.87095e-09
-1.26638e-09
-1.98858e-09
-0.154568
-0.102066
0.02886
0.0294128
-0.393427
-1.15948
-1.7784
-2.02375
-1.90381
-1.31448
-0.424177
0.261633
0.421522
0.221763
0.0124484
-0.0553409
-0.0433614
-0.0226114
-0.00696954
0.000521326
0.0020984
0.00137476
0.000439324
-0.000117694
-0.000223357
-0.000128878
-2.03544e-05
2.92245e-05
2.84353e-05
1.00406e-05
-3.15541e-06
-5.90601e-06
-2.16815e-06
1.4902e-06
2.1366e-06
9.40776e-07
-3.96946e-07
-8.75221e-07
-7.25555e-07
-3.53085e-07
-6.13739e-08
7.71906e-08
9.88493e-08
6.58104e-08
2.65606e-08
3.23269e-09
-4.52351e-09
-4.1828e-09
-2.21375e-09
-2.85571e-10
-0.160797
-0.0957012
0.0460478
0.0417194
-0.426364
-1.31136
-2.07776
-2.49061
-2.59818
-2.20887
-1.34329
-0.49245
-0.0826847
-0.0426727
-0.0787249
-0.0607933
-0.0282672
-0.00717987
0.0016527
0.00288378
0.00139145
0.000247627
-0.00025659
-0.000264776
-0.000112003
8.08413e-06
4.29956e-05
2.77341e-05
5.20183e-06
-5.97366e-06
-6.2643e-06
-1.79415e-06
1.38167e-06
1.46467e-06
1.61664e-07
-8.2618e-07
-8.64016e-07
-4.35362e-07
-2.66407e-08
1.67592e-07
1.81323e-07
1.17177e-07
4.6461e-08
2.43261e-09
-1.2622e-08
-1.14734e-08
-5.57267e-09
-1.48542e-09
1.37019e-10
7.52607e-10
-0.104369
-0.0575745
0.0558394
0.109944
-0.208779
-0.954263
-1.66986
-2.1643
-2.52599
-2.44426
-1.72689
-0.834094
-0.290306
-0.116624
-0.0691408
-0.0298519
-0.00583544
0.00276
0.00337927
0.00121812
-8.15872e-06
-0.000383042
-0.000274779
-7.38876e-05
3.95621e-05
5.19028e-05
2.24966e-05
-1.50222e-06
-8.87393e-06
-6.09731e-06
-9.66637e-07
1.61162e-06
1.19767e-06
-9.51588e-08
-7.52083e-07
-5.20305e-07
-3.25866e-08
2.50324e-07
2.79944e-07
1.70986e-07
5.95671e-08
-8.33828e-09
-3.00806e-08
-2.53906e-08
-1.2812e-08
-3.20109e-09
8.06232e-10
1.4095e-09
8.8041e-10
2.16468e-10
-0.0236451
-0.0284264
0.0581729
0.308417
0.379036
0.0118926
-0.534084
-1.06494
-1.67347
-1.96617
-1.52974
-0.762188
-0.245745
-0.0681008
-0.0213836
-0.00113488
0.00453442
0.00336509
0.000836987
-0.000304315
-0.000480283
-0.000251212
-2.06143e-05
6.77911e-05
5.31135e-05
1.34644e-05
-8.34945e-06
-1.04091e-05
-4.64239e-06
4.2632e-07
2.083e-06
1.09431e-06
-1.49676e-07
-5.51785e-07
-2.0821e-07
2.11635e-07
3.21172e-07
2.14694e-07
5.74829e-08
-3.50701e-08
-6.05869e-08
-4.66584e-08
-2.29956e-08
-4.97814e-09
2.94734e-09
3.91879e-09
2.28489e-09
7.8014e-10
7.33331e-11
-2.47583e-10
0.0328535
-0.0307789
0.0814766
0.647856
1.23296
1.32517
0.954977
0.451799
-0.291145
-0.956456
-0.92379
-0.444142
-0.0925082
0.00259538
0.0107905
0.00817427
0.00299072
0.000123757
-0.000701895
-0.000579465
-0.000201477
4.08189e-05
8.99998e-05
4.71602e-05
2.71419e-06
-1.37801e-05
-1.01674e-05
-2.32228e-06
1.90949e-06
2.28804e-06
8.03903e-07
-3.06004e-07
-4.57378e-07
-6.96457e-08
2.43958e-07
2.2329e-07
6.39415e-08
-6.40493e-08
-9.60802e-08
-6.96057e-08
-3.10532e-08
-3.34296e-09
8.40757e-09
8.98134e-09
5.31667e-09
1.73215e-09
-1.31868e-11
-4.38024e-10
-3.17062e-10
-1.1258e-10
0.0423711
-0.0486243
0.132101
0.949335
1.90455
2.33485
2.10915
1.78912
1.1533
0.208975
-0.225353
-0.110493
0.0294351
0.0336394
0.0148436
0.00306617
-0.000944942
-0.00121061
-0.000656229
-0.000107998
0.000116039
0.000107372
3.61643e-05
-8.32513e-06
-1.73893e-05
-8.6319e-06
1.18221e-07
2.92811e-06
2.01466e-06
2.95561e-07
-5.37974e-07
-4.27187e-07
-2.75537e-08
1.84691e-07
9.67386e-08
-4.8947e-08
-1.11918e-07
-8.79413e-08
-3.28594e-08
4.66481e-09
1.88936e-08
1.69354e-08
9.47249e-09
2.91245e-09
-4.9334e-10
-1.24652e-09
-8.46694e-10
-3.30862e-10
-6.19952e-11
7.58617e-11
0.0208127
-0.0499803
0.123463
0.742169
1.54913
2.05785
2.0033
2.13179
2.03075
1.07967
0.262922
0.0761219
0.0624488
0.0255782
0.00420527
-0.00210263
-0.00171883
-0.000669385
1.92115e-05
0.000188605
0.00011071
1.7142e-05
-2.09621e-05
-1.93376e-05
-6.22101e-06
2.54239e-06
3.54095e-06
1.4911e-06
-2.09847e-07
-6.92927e-07
-3.57525e-07
2.20202e-08
1.44368e-07
3.30845e-08
-7.65867e-08
-8.44064e-08
-3.41167e-08
1.48998e-08
3.15333e-08
2.6052e-08
1.31356e-08
2.97861e-09
-2.06848e-09
-2.98073e-09
-1.97291e-09
-7.38274e-10
-7.16865e-11
1.25731e-10
1.0613e-10
4.63708e-11
-0.000193116
-0.0256958
-0.189598
-0.0262288
0.456947
0.79021
0.983675
1.21474
1.65058
1.29224
0.403304
0.0966165
0.0362249
0.00637566
-0.00266349
-0.0020756
-0.00060648
0.000148465
0.000233436
9.4052e-05
-7.17225e-06
-3.1032e-05
-1.74707e-05
-1.88889e-06
4.95537e-06
3.75091e-06
7.14683e-07
-7.18099e-07
-7.50829e-07
-2.29222e-07
9.96918e-08
1.4053e-07
2.63556e-08
-5.70237e-08
-3.77234e-08
9.45041e-09
3.61653e-08
3.14192e-08
1.41887e-08
3.4295e-10
-5.65604e-09
-5.75702e-09
-3.54638e-09
-1.27373e-09
3.10618e-11
3.83163e-10
2.9244e-10
1.22754e-10
2.86854e-11
-2.26366e-11
-0.00501509
-0.000674863
-0.478659
-0.921411
-0.673536
-0.209549
0.208084
0.238959
0.547613
0.730521
0.274549
0.0369218
0.00538983
-0.00282032
-0.00191323
-0.000312048
0.000291871
0.000248651
6.21166e-05
-2.92637e-05
-3.49788e-05
-1.21165e-05
3.16334e-06
6.17509e-06
2.97861e-06
-3.33519e-07
-1.13057e-06
-6.35534e-07
-3.4817e-08
1.97905e-07
1.4476e-07
2.04311e-08
-4.37148e-08
-1.60561e-08
2.03581e-08
2.83309e-08
1.38259e-08
-2.90195e-09
-9.74767e-09
-8.91559e-09
-4.82779e-09
-1.36173e-09
5.20726e-10
9.66336e-10
6.8102e-10
2.73046e-10
3.84689e-11
-3.7163e-11
-3.45071e-11
-1.65294e-11
-0.00100701
0.00496541
-0.460872
-1.42038
-1.57075
-0.916058
-0.451255
-0.436106
-0.369724
0.000286318
0.0784123
-0.00997362
-0.0050616
-0.000868104
0.00044292
0.000508625
0.000229109
1.02828e-05
-5.15435e-05
-3.47577e-05
-5.26136e-06
7.29299e-06
6.02348e-06
1.46159e-06
-1.1631e-06
-1.16045e-06
-3.30607e-07
1.76585e-07
2.48182e-07
1.01615e-07
-1.90401e-08
-5.06888e-08
-1.73347e-08
1.46075e-08
1.3049e-08
-8.91793e-10
-1.09303e-08
-1.03146e-08
-5.16191e-09
-5.06571e-10
1.66325e-09
1.85997e-09
1.19766e-09
4.55939e-10
7.54803e-12
-1.20973e-10
-9.7045e-11
-4.15855e-11
-1.02757e-11
7.08139e-12
0.00114279
0.000408431
-0.190477
-1.15493
-1.89588
-1.62333
-1.30492
-1.28914
-1.07781
-0.423761
-0.0335688
-0.0163534
-0.000532509
0.00170518
0.000868671
0.000186788
-6.23862e-05
-7.47767e-05
-2.94927e-05
3.42887e-06
1.06316e-05
5.00317e-06
-9.99174e-08
-1.58255e-06
-8.75112e-07
-2.25451e-08
2.85161e-07
2.02566e-07
2.27649e-08
-5.96878e-08
-5.13269e-08
-1.2496e-08
1.33018e-08
6.89065e-09
-4.66768e-09
-8.64301e-09
-4.63752e-09
6.71879e-10
2.99315e-09
2.84525e-09
1.58047e-09
4.70366e-10
-1.49688e-10
-3.06768e-10
-2.1963e-10
-8.92758e-11
-1.2937e-11
1.19381e-11
1.1206e-11
5.54954e-12
0.00101792
-0.00182906
0.0222368
-0.375282
-1.35218
-1.90272
-1.87197
-1.6079
-1.19948
-0.556969
-0.0453229
-0.00458212
0.00302178
0.00140487
0.000220206
-0.000121604
-9.2295e-05
-1.6926e-05
1.24309e-05
1.19487e-05
2.85689e-06
-1.61646e-06
-1.70431e-06
-4.99785e-07
2.13778e-07
2.93838e-07
1.16425e-07
-3.794e-08
-6.94429e-08
-3.14916e-08
3.43163e-09
1.52961e-08
5.67086e-09
-4.01252e-09
-3.96861e-09
1.71925e-10
3.3267e-09
3.14416e-09
1.54514e-09
1.23988e-10
-5.31059e-10
-5.80842e-10
-3.72713e-10
-1.39852e-10
-9.43968e-13
3.86825e-11
3.07421e-11
1.31801e-11
3.30941e-12
-2.28107e-12
0.000940477
-0.000146264
0.000448507
0.0414021
-0.362873
-1.08946
-1.38681
-1.18552
-0.724946
-0.254214
-0.0137102
0.00272575
0.00149603
0.00027593
-0.000150251
-9.82449e-05
-5.20074e-06
1.7806e-05
9.24603e-06
1.52604e-07
-2.61791e-06
-1.39405e-06
-4.76777e-08
3.93173e-07
2.52855e-07
3.52602e-08
-6.83939e-08
-5.56587e-08
-9.0053e-09
1.4204e-08
1.30799e-08
2.91166e-09
-3.49812e-09
-1.45733e-09
1.65421e-09
2.53301e-09
1.23503e-09
-3.34408e-10
-9.3844e-10
-8.28629e-10
-4.39089e-10
-1.1774e-10
5.63305e-11
9.44971e-11
6.57023e-11
2.58794e-11
3.34199e-12
-3.81002e-12
-3.4632e-12
-1.74437e-12
0.00108853
0.000101491
-0.00126935
-0.00213554
0.032876
-0.137597
-0.340846
-0.361777
-0.178016
0.0177379
0.00276182
0.000213581
5.48946e-05
-0.000131581
-6.86075e-05
9.19111e-06
1.83329e-05
4.97797e-06
-1.90186e-06
-2.43509e-06
-7.63577e-07
3.48947e-07
4.19694e-07
1.47347e-07
-5.39991e-08
-8.2916e-08
-3.54103e-08
6.53463e-09
1.55655e-08
6.9364e-09
-9.27219e-10
-3.11391e-09
-5.55125e-10
1.2879e-09
8.83965e-10
-2.84247e-10
-9.96107e-10
-8.32157e-10
-3.46265e-10
1.47296e-11
1.61587e-10
1.57657e-10
9.42632e-11
3.2295e-11
-2.55032e-12
-1.15373e-11
-8.44441e-12
-3.5687e-12
-8.68879e-13
6.73717e-13
0.00059757
-0.000336058
0.00121563
0.00158257
-0.0132461
0.0158197
0.0749149
0.103779
0.0705553
0.00855302
-0.0035513
-0.00160894
-0.0002909
-8.70782e-06
3.27866e-05
1.31714e-05
2.78338e-07
-3.01569e-06
-1.6191e-06
-1.91185e-07
4.31466e-07
2.77684e-07
4.67859e-09
-9.56885e-08
-6.46739e-08
-5.81579e-09
1.70223e-08
1.26317e-08
2.28021e-09
-2.17092e-09
-1.78381e-09
2.86179e-11
6.97531e-10
3.38322e-11
-5.43538e-10
-5.70576e-10
-2.12242e-10
1.23722e-10
2.19838e-10
1.7095e-10
8.19662e-11
1.49063e-11
-1.69715e-11
-2.14201e-11
-1.39231e-11
-4.9899e-12
-3.49783e-13
9.8982e-13
8.20053e-13
3.87183e-13
-7.55375e-06
0.000362817
-0.00242203
0.00784191
-0.0102313
-0.0131003
0.0294757
0.0690401
0.0537777
-0.000324114
-0.00409303
-0.000955282
6.25812e-05
5.902e-05
9.04111e-06
-4.08882e-06
-3.08291e-06
-8.71511e-07
3.92571e-08
2.33633e-07
9.45874e-08
-5.85875e-08
-6.69887e-08
-2.38154e-08
1.10159e-08
1.47628e-08
5.32659e-09
-1.09683e-09
-2.16362e-09
-8.53526e-10
7.82802e-11
2.19856e-10
-1.30779e-10
-2.55201e-10
-1.11721e-10
7.84572e-11
1.58284e-10
1.15313e-10
3.88926e-11
-9.74638e-12
-2.59999e-11
-2.20259e-11
-1.19484e-11
-3.23525e-12
1.1483e-12
1.96994e-12
1.24751e-12
4.89213e-13
9.5021e-14
-1.18019e-13
)
;

boundaryField
{
    movingWall
    {
        type            zeroGradient;
    }
    fixedWalls
    {
        type            zeroGradient;
    }
    frontAndBack
    {
        type            empty;
    }
}

