/*--------------------------------*- C++ -*----------------------------------*\
| =========                 |                                                 |
| \\      /  F ield         | OpenFOAM: The Open Source CFD Toolbox           |
|  \\    /   O peration     | Version:  v2006                                 |
|   \\  /    A nd           | Website:  www.openfoam.com                      |
|    \\/     M anipulation  |                                                 |
\*---------------------------------------------------------------------------*/
FoamFile
{
    version     2.0;
    format      ascii;
    class       volScalarField;
    location    "0";
    object      p;
}
// * * * * * * * * * * * * * * * * * * * * * * * * * * * * * * * * * * * * * //

dimensions      [1 -1 -2 0 0 0 0];


internalField   nonuniform List<scalar> 
20000
(
3.04049e-06
3.05585e-06
3.09198e-06
3.14835e-06
3.22407e-06
3.31905e-06
3.43404e-06
3.56996e-06
3.72765e-06
3.90801e-06
4.1121e-06
4.34117e-06
4.59662e-06
4.88004e-06
5.19313e-06
5.53778e-06
5.91606e-06
6.33023e-06
6.7828e-06
7.27648e-06
7.81425e-06
8.3993e-06
9.03512e-06
9.72549e-06
1.04745e-05
1.12868e-05
1.21672e-05
1.3121e-05
1.41542e-05
1.5273e-05
1.64842e-05
1.77951e-05
1.92137e-05
2.07484e-05
2.24085e-05
2.4204e-05
2.61454e-05
2.82443e-05
3.05132e-05
3.29653e-05
3.56152e-05
3.84786e-05
4.15722e-05
4.49141e-05
4.85239e-05
5.24226e-05
5.66326e-05
6.11782e-05
6.60855e-05
7.13823e-05
7.70988e-05
8.32674e-05
8.99225e-05
9.71012e-05
0.000104843
0.00011319
0.000122188
0.000131885
0.000142331
0.000153582
0.000165695
0.000178731
0.000192756
0.000207839
0.000224059
0.000241509
0.000260218
0.000280287
0.000301804
0.000324856
0.000349531
0.000375919
0.000404109
0.00043419
0.000466245
0.000500354
0.000536589
0.000575016
0.00061569
0.000658641
0.000703874
0.000751361
0.000801045
0.000852841
0.000906617
0.00096217
0.00101919
0.00107727
0.00113588
0.00119459
0.00125307
0.00131854
0.00140362
0.00145011
0.00148406
0.00151215
0.0015368
0.00155671
0.00157034
0.00157706
0.0015774
0.00157363
0.00157056
0.00157612
0.00160144
0.0016595
0.0017618
0.0019125
0.00210193
0.00230527
0.00249301
0.00264957
0.00278496
0.00293131
0.00312865
0.00341329
0.0038104
0.00433545
0.00499955
0.00581218
0.00677924
0.00790115
0.00917207
0.0105771
0.0120892
0.0136714
0.0152826
0.0168846
0.0184376
0.0199188
0.0212845
0.0225234
0.023619
0.0245587
0.025332
0.0259294
0.0263415
0.026559
0.0265728
0.0263746
0.025961
0.025376
0.0244962
0.0233902
0.0220683
0.020542
0.0188246
0.0169339
0.0148934
0.0127322
0.0104847
0.00819199
0.00590268
0.00367206
0.00155916
-0.000377597
-0.00208733
-0.00353405
-0.00470189
-0.0055959
-0.00623721
-0.00665506
-0.00688015
-0.00694144
-0.00686253
-0.00666228
-0.00636505
-0.00599107
-0.00554875
-0.00505674
-0.00454158
-0.00403976
-0.00358985
-0.00321835
-0.00292874
-0.00270008
-0.00249797
-0.00229268
-0.00207095
-0.00183411
-0.00158962
-0.00134586
-0.00111027
-0.000888162
-0.000682249
-0.000492976
-0.000319098
-0.000158121
-6.68619e-06
0.000139149
0.000283735
0.000431759
0.00058822
0.00075849
0.000948256
0.00116413
0.00141184
0.00170401
0.00203433
0.00249367
3.03713e-06
3.05246e-06
3.08821e-06
3.14421e-06
3.21965e-06
3.31436e-06
3.42905e-06
3.5646e-06
3.72186e-06
3.9017e-06
4.10517e-06
4.3335e-06
4.58811e-06
4.87056e-06
5.18256e-06
5.52602e-06
5.903e-06
6.3158e-06
6.76694e-06
7.25919e-06
7.79556e-06
8.37931e-06
9.01395e-06
9.70333e-06
1.04516e-05
1.12634e-05
1.21436e-05
1.30976e-05
1.41311e-05
1.52506e-05
1.64627e-05
1.77745e-05
1.9194e-05
2.07296e-05
2.23903e-05
2.4186e-05
2.61273e-05
2.82258e-05
3.04939e-05
3.29449e-05
3.55936e-05
3.84554e-05
4.15472e-05
4.48874e-05
4.84952e-05
5.23919e-05
5.65998e-05
6.11433e-05
6.60484e-05
7.13432e-05
7.70577e-05
8.32242e-05
8.98775e-05
9.70546e-05
0.000104795
0.000113141
0.000122139
0.000131835
0.000142282
0.000153534
0.000165649
0.000178687
0.000192714
0.000207796
0.000224004
0.000241405
0.000260098
0.000280158
0.000301667
0.00032471
0.000349377
0.000375757
0.000403939
0.000434013
0.000466061
0.000500163
0.000536392
0.000574815
0.000615486
0.000658437
0.000703672
0.000751164
0.000800858
0.000852669
0.000906464
0.000962028
0.00101904
0.00107715
0.00113607
0.00119558
0.00125437
0.00130401
0.0013365
0.0013815
0.00142949
0.00147373
0.00150923
0.00153496
0.00155143
0.00155962
0.00156103
0.00155842
0.00155675
0.00156395
0.00159095
0.00165038
0.00175329
0.00190347
0.00209119
0.00229207
0.00247756
0.00263328
0.00277005
0.00292003
0.00312253
0.00341279
0.0038153
0.00434527
0.00501401
0.00583133
0.00680323
0.00793001
0.00920556
0.0106145
0.0121295
0.013713
0.0153238
0.0169211
0.0184699
0.0199354
0.0213001
0.0225385
0.0236343
0.0245743
0.025348
0.0259456
0.0263576
0.0265745
0.0265865
0.0263844
0.0259588
0.0252814
0.024407
0.0233154
0.0220072
0.0204889
0.0187764
0.0168904
0.0148555
0.012701
0.0104617
0.00817825
0.00589925
0.00367953
0.00157767
-0.000348396
-0.00204834
-0.00348677
-0.00464844
-0.00553901
-0.00618005
-0.00660073
-0.00683088
-0.00689842
-0.00682955
-0.00664697
-0.00636414
-0.00599246
-0.00555029
-0.00505699
-0.00453933
-0.00403468
-0.00358284
-0.00321121
-0.00292336
-0.00269748
-0.00249784
-0.00229377
-0.00207211
-0.00183474
-0.00158956
-0.00134517
-0.00110911
-0.000886753
-0.000680787
-0.000491616
-0.000317953
-0.000157272
-6.18642e-06
0.000139259
0.000283424
0.000430998
0.000586975
0.000756723
0.000945923
0.00116117
0.0014082
0.0016996
0.00202907
0.00248737
3.03383e-06
3.04955e-06
3.08554e-06
3.14169e-06
3.21727e-06
3.31207e-06
3.42682e-06
3.56243e-06
3.71973e-06
3.89962e-06
4.10316e-06
4.33158e-06
4.58632e-06
4.86894e-06
5.18115e-06
5.52485e-06
5.90211e-06
6.31521e-06
6.76666e-06
7.25921e-06
7.79584e-06
8.37975e-06
9.01445e-06
9.70373e-06
1.04517e-05
1.1263e-05
1.21424e-05
1.30953e-05
1.41275e-05
1.52452e-05
1.64552e-05
1.77647e-05
1.91816e-05
2.07143e-05
2.23721e-05
2.41647e-05
2.61028e-05
2.81981e-05
3.04629e-05
3.29107e-05
3.55559e-05
3.84142e-05
4.15025e-05
4.48388e-05
4.84426e-05
5.23349e-05
5.65381e-05
6.10766e-05
6.59763e-05
7.12651e-05
7.69732e-05
8.31328e-05
8.97786e-05
9.69475e-05
0.000104679
0.000113016
0.000122003
0.000131688
0.000142122
0.000153361
0.000165462
0.000178486
0.000192498
0.000207568
0.000223767
0.000241165
0.000259849
0.000279896
0.00030139
0.000324418
0.000349069
0.000375433
0.000403599
0.000433658
0.000465692
0.000499781
0.000535999
0.000574412
0.000615077
0.000658028
0.000703269
0.000750771
0.000800479
0.000852311
0.000906144
0.00096179
0.00101896
0.00107718
0.00113572
0.00119359
0.00125066
0.00130911
0.0013658
0.00142501
0.00147343
0.00151138
0.00154003
0.00156056
0.00157354
0.00157926
0.00157847
0.00157333
0.0015685
0.00157193
0.00159498
0.00165127
0.00175323
0.00190591
0.00209951
0.00230719
0.00249639
0.00264981
0.00277878
0.00291719
0.00310791
0.00338754
0.00378124
0.00430369
0.00496578
0.00577751
0.00674525
0.00786969
0.00914549
0.010558
0.0120796
0.0136719
0.0152928
0.0169016
0.0184635
0.0199431
0.0213162
0.0225601
0.0236596
0.0246027
0.0253791
0.0259796
0.0263949
0.026616
0.0266337
0.0264402
0.0260296
0.0253843
0.0245251
0.0234296
0.0221113
0.020583
0.0188606
0.0169638
0.0149163
0.012747
0.0104902
0.00818749
0.00588715
0.00364457
0.00152007
-0.000426451
-0.00214264
-0.00359147
-0.0047571
-0.00564583
-0.00628071
-0.00669236
-0.00691173
-0.0069677
-0.00688658
-0.00668988
-0.00639342
-0.00601272
-0.00556415
-0.00506395
-0.00453884
-0.00402706
-0.00357039
-0.0031979
-0.00291324
-0.00269281
-0.00249798
-0.00229625
-0.00207461
-0.00183611
-0.0015895
-0.0013438
-0.0011068
-0.000883946
-0.000677874
-0.000488905
-0.000315673
-0.000155582
-5.19623e-06
0.000139472
0.000282797
0.00042947
0.000584483
0.000753191
0.000941258
0.00115526
0.00140092
0.00169077
0.00201857
0.00247477
3.02887e-06
3.04451e-06
3.08035e-06
3.13628e-06
3.2116e-06
3.30613e-06
3.42056e-06
3.55581e-06
3.71272e-06
3.89217e-06
4.0952e-06
4.32306e-06
4.57715e-06
4.85905e-06
5.17044e-06
5.51322e-06
5.88946e-06
6.30142e-06
6.75163e-06
7.24283e-06
7.778e-06
8.36037e-06
8.99344e-06
9.68103e-06
1.04273e-05
1.12368e-05
1.21144e-05
1.30655e-05
1.4096e-05
1.52119e-05
1.64202e-05
1.7728e-05
1.91431e-05
2.0674e-05
2.23298e-05
2.41203e-05
2.60562e-05
2.8149e-05
3.0411e-05
3.28556e-05
3.54973e-05
3.83518e-05
4.14357e-05
4.47672e-05
4.83658e-05
5.22524e-05
5.64496e-05
6.09814e-05
6.58739e-05
7.1155e-05
7.68549e-05
8.30057e-05
8.9642e-05
9.68009e-05
0.000104522
0.000112847
0.000121822
0.000131494
0.000141915
0.000153139
0.000165224
0.000178231
0.000192225
0.000207274
0.00022345
0.000240824
0.000259484
0.000279506
0.000300976
0.000323981
0.000348607
0.000374947
0.00040309
0.000433125
0.000465138
0.000499208
0.000535408
0.000573808
0.000614464
0.000657415
0.000702663
0.00075018
0.000799914
0.000851789
0.000905683
0.000961385
0.00101856
0.00107681
0.00113579
0.00119518
0.00125423
0.0013103
0.00135855
0.00140526
0.00144762
0.00148523
0.00151648
0.00154014
0.00155573
0.00156324
0.00156342
0.00155841
0.00155284
0.00155471
0.0015757
0.0016301
0.00173161
0.00188662
0.00208547
0.00229904
0.00249115
0.00264243
0.00276526
0.00289727
0.00308281
0.00336029
0.00375424
0.00427791
0.00494157
0.00575563
0.00672679
0.00785589
0.00913818
0.0105594
0.012091
0.0136932
0.0153224
0.0169375
0.0185025
0.019984
0.0213581
0.0226035
0.0237046
0.0246493
0.0254271
0.0260286
0.0264445
0.0266651
0.0266804
0.0264812
0.0260595
0.0254041
0.0245303
0.0234305
0.0221121
0.0205845
0.0188622
0.0169646
0.0149159
0.0127445
0.0104851
0.00817855
0.00587295
0.00362428
0.0014937
-0.000457588
-0.00217579
-0.00362294
-0.00478337
-0.00566484
-0.00629251
-0.00669858
-0.00691459
-0.00696947
-0.0068893
-0.00669498
-0.00640135
-0.0060219
-0.00557117
-0.00506605
-0.00453261
-0.00401176
-0.00354894
-0.00317594
-0.00289679
-0.00268515
-0.00249797
-0.00229989
-0.0020783
-0.00183808
-0.00158931
-0.00134165
-0.00110324
-0.000879647
-0.000673429
-0.000484778
-0.000312204
-0.000153008
-3.67914e-06
0.000139817
0.000281877
0.000427199
0.000580763
0.00074791
0.000934278
0.00114642
0.00139001
0.00167756
0.00200284
0.0024559
3.02222e-06
3.03777e-06
3.07354e-06
3.12938e-06
3.20458e-06
3.29896e-06
3.41321e-06
3.54824e-06
3.70488e-06
3.88402e-06
4.0867e-06
4.31416e-06
4.56782e-06
4.84923e-06
5.16011e-06
5.50233e-06
5.87797e-06
6.28929e-06
6.73882e-06
7.22927e-06
7.76363e-06
8.34512e-06
8.97721e-06
9.66372e-06
1.04088e-05
1.12169e-05
1.2093e-05
1.30423e-05
1.40708e-05
1.51845e-05
1.63902e-05
1.76951e-05
1.9107e-05
2.06343e-05
2.22862e-05
2.40724e-05
2.60036e-05
2.80912e-05
3.03478e-05
3.27865e-05
3.5422e-05
3.82698e-05
4.13466e-05
4.46706e-05
4.82611e-05
5.21391e-05
5.6327e-05
6.0849e-05
6.5731e-05
7.10009e-05
7.66887e-05
8.28267e-05
8.94493e-05
9.65935e-05
0.000104299
0.000112607
0.000121564
0.000131218
0.000141619
0.000152822
0.000164884
0.000177868
0.000191838
0.000206862
0.000223011
0.00024036
0.000258991
0.000278984
0.000300424
0.000323396
0.000347991
0.000374298
0.00040241
0.000432415
0.0004644
0.000498444
0.00053462
0.000573001
0.000613646
0.000656596
0.000701854
0.000749392
0.000799155
0.000851072
0.000905035
0.000960867
0.00101828
0.00107683
0.00113588
0.00119465
0.0012525
0.0013087
0.00136208
0.00141576
0.00146481
0.00150604
0.00153817
0.0015611
0.00157526
0.00158102
0.00157901
0.00157109
0.00156161
0.00155861
0.0015743
0.0016243
0.00172441
0.00188316
0.00209098
0.00231476
0.00251178
0.00265867
0.00276915
0.00288458
0.00305452
0.00331948
0.003704
0.00421979
0.0048765
0.00568529
0.00665347
0.00778244
0.00906863
0.0104987
0.0120436
0.0136612
0.0153064
0.0169371
0.0185166
0.0200113
0.0213959
0.0226494
0.0237568
0.0247066
0.0254892
0.0260957
0.026517
0.0267437
0.0267663
0.0265755
0.026163
0.0255192
0.0246505
0.0235522
0.0222294
0.0206938
0.0189608
0.0170503
0.014986
0.0127966
0.010516
0.00818499
0.0058523
0.00357478
0.00141566
-0.000560952
-0.00229819
-0.00375579
-0.00491755
-0.0057929
-0.00641002
-0.00680368
-0.00700667
-0.00704859
-0.00695617
-0.00675042
-0.00644614
-0.00605675
-0.00559621
-0.0050788
-0.00453071
-0.00399525
-0.00352248
-0.00314783
-0.00287573
-0.00267589
-0.00249896
-0.00230556
-0.00208372
-0.00184096
-0.00158917
-0.00133881
-0.00109848
-0.000873905
-0.000667501
-0.000479282
-0.000307594
-0.000149596
-1.67505e-06
0.000140261
0.000280641
0.000424165
0.000575806
0.000740878
0.000924989
0.00113465
0.0013755
0.00165998
0.0019819
0.00243079
3.01389e-06
3.02937e-06
3.06507e-06
3.12077e-06
3.19576e-06
3.28987e-06
3.40379e-06
3.53843e-06
3.69461e-06
3.87321e-06
4.07529e-06
4.30207e-06
4.55497e-06
4.83555e-06
5.1455e-06
5.48669e-06
5.86118e-06
6.27124e-06
6.71938e-06
7.20831e-06
7.741e-06
8.32066e-06
8.95077e-06
9.63512e-06
1.03779e-05
1.11835e-05
1.20569e-05
1.30034e-05
1.40289e-05
1.51393e-05
1.63416e-05
1.76429e-05
1.90509e-05
2.05741e-05
2.22216e-05
2.40032e-05
2.59295e-05
2.80118e-05
3.02627e-05
3.26954e-05
3.53243e-05
3.8165e-05
4.12342e-05
4.45498e-05
4.81314e-05
5.19997e-05
5.61771e-05
6.06877e-05
6.55575e-05
7.08143e-05
7.6488e-05
8.26108e-05
8.92171e-05
9.63438e-05
0.00010403
0.000112319
0.000121254
0.000130885
0.000141261
0.000152438
0.000164473
0.000177428
0.000191366
0.000206357
0.000222472
0.000239785
0.000258379
0.000278333
0.000299734
0.000322667
0.000347221
0.000373488
0.00040156
0.000431528
0.000463477
0.000497488
0.000533634
0.000571991
0.000612622
0.00065557
0.00070084
0.000748402
0.000798205
0.000850187
0.000904253
0.000960219
0.00101776
0.00107641
0.00113568
0.0011951
0.0012542
0.00131162
0.00136531
0.00141614
0.00146128
0.0014992
0.00152939
0.0015516
0.00156571
0.0015715
0.00156903
0.0015596
0.0015472
0.0015398
0.00155018
0.00159544
0.00169395
0.00185716
0.00207602
0.00231271
0.00251638
0.00265893
0.00275615
0.00285571
0.00301188
0.00326818
0.00364847
0.00416185
0.00481685
0.00562551
0.00659579
0.00772941
0.0090242
0.0104679
0.0120303
0.0136663
0.0153284
0.0169738
0.0185651
0.0200692
0.0214604
0.022719
0.0238303
0.0247835
0.0255692
0.0261785
0.0266022
0.0268306
0.0268535
0.0266612
0.026245
0.0255973
0.0247218
0.0236174
0.0222891
0.0207479
0.0190087
0.0170908
0.0150178
0.0128177
0.0105242
0.0081775
0.00582611
0.00352784
0.00134785
-0.000646775
-0.00239588
-0.00385684
-0.00501325
-0.00587707
-0.00648051
-0.00686144
-0.00705373
-0.0070873
-0.00698915
-0.00677963
-0.00647221
-0.00607914
-0.00561248
-0.00508509
-0.0045215
-0.00396929
-0.00348506
-0.00310935
-0.00284731
-0.00266358
-0.00250033
-0.00231296
-0.0020906
-0.00184449
-0.00158881
-0.001335
-0.00109228
-0.00086649
-0.00065989
-0.000472248
-0.0003017
-0.000145226
9.12752e-07
0.000140884
0.00027915
0.000420422
0.000569655
0.000732132
0.000913422
0.00111998
0.00135742
0.00163806
0.0019558
0.00239947
3.0039e-06
3.01932e-06
3.05491e-06
3.11043e-06
3.18517e-06
3.27897e-06
3.39253e-06
3.52672e-06
3.6824e-06
3.86043e-06
4.06185e-06
4.28791e-06
4.54e-06
4.81968e-06
5.12865e-06
5.46876e-06
5.84207e-06
6.25086e-06
6.6976e-06
7.18502e-06
7.71606e-06
8.29394e-06
8.92212e-06
9.60438e-06
1.03449e-05
1.11481e-05
1.20188e-05
1.29625e-05
1.39848e-05
1.50918e-05
1.62903e-05
1.75875e-05
1.89911e-05
2.05094e-05
2.21516e-05
2.39273e-05
2.58473e-05
2.79228e-05
3.01662e-05
3.25908e-05
3.52111e-05
3.80424e-05
4.11015e-05
4.44062e-05
4.79761e-05
5.18318e-05
5.59958e-05
6.0492e-05
6.53463e-05
7.05866e-05
7.62426e-05
8.23464e-05
8.89325e-05
9.60376e-05
0.000103701
0.000111965
0.000120874
0.000130477
0.000140824
0.00015197
0.000163972
0.000176892
0.000190794
0.000205746
0.000221821
0.000239092
0.000257642
0.000277552
0.000298906
0.000321791
0.000346297
0.000372515
0.000400539
0.000430462
0.000462369
0.00049634
0.00053245
0.000570777
0.00061139
0.000654336
0.000699622
0.000747214
0.000797061
0.000849107
0.000903276
0.000959408
0.0010172
0.00107621
0.00113584
0.00119548
0.00125447
0.00131183
0.00136647
0.00141896
0.00146689
0.00150786
0.00154047
0.00156416
0.00157885
0.00158435
0.00158051
0.00156825
0.00155121
0.00153738
0.00154024
0.00157879
0.00167476
0.00184349
0.00207678
0.00233044
0.00254253
0.00267846
0.00275685
0.0028326
0.00296727
0.00320811
0.00357816
0.00408318
0.00473055
0.00553382
0.00650185
0.00763686
0.00893874
0.010397
0.01198
0.0136392
0.0153238
0.01699
0.0185998
0.0201196
0.0215233
0.0227917
0.0239109
0.0248707
0.0256625
0.0262781
0.0267086
0.0269442
0.0269746
0.0267896
0.0263801
0.0257385
0.0248652
0.0237598
0.0224267
0.020877
0.0191258
0.0171928
0.0151014
0.0128796
0.0105604
0.00818332
0.00579752
0.003462
0.00124476
-0.000782847
-0.00255603
-0.00402861
-0.00518354
-0.00603582
-0.00662282
-0.00698646
-0.00716202
-0.00718005
-0.00706847
-0.0068474
-0.00652919
-0.00612548
-0.00564706
-0.00510299
-0.00451716
-0.00394173
-0.00344149
-0.00306339
-0.00281359
-0.00265006
-0.00250378
-0.00232337
-0.00209978
-0.00184917
-0.00158854
-0.00133046
-0.0010848
-0.000857565
-0.000650754
-0.00046383
-0.000294666
-0.000140028
3.9736e-06
0.000141595
0.000277341
0.000415926
0.000562285
0.000721667
0.000899589
0.00110245
0.0013358
0.00161184
0.00192458
0.00236199
2.99226e-06
3.00761e-06
3.04306e-06
3.09838e-06
3.17284e-06
3.26628e-06
3.3794e-06
3.51309e-06
3.66816e-06
3.8455e-06
4.04614e-06
4.27132e-06
4.52243e-06
4.80102e-06
5.10879e-06
5.44757e-06
5.81943e-06
6.22661e-06
6.6716e-06
7.15711e-06
7.68606e-06
8.26164e-06
8.88733e-06
9.56689e-06
1.03044e-05
1.11045e-05
1.19718e-05
1.29117e-05
1.393e-05
1.50327e-05
1.62265e-05
1.75186e-05
1.89167e-05
2.04292e-05
2.2065e-05
2.3834e-05
2.57466e-05
2.78143e-05
3.00494e-05
3.2465e-05
3.50756e-05
3.78965e-05
4.09444e-05
4.42372e-05
4.77941e-05
5.16358e-05
5.57848e-05
6.02649e-05
6.51019e-05
7.03235e-05
7.59595e-05
8.20419e-05
8.86049e-05
9.56853e-05
0.000103322
0.000111558
0.000120437
0.000130008
0.00014032
0.00015143
0.000163393
0.000176272
0.00019013
0.000205037
0.000221064
0.000238286
0.000256784
0.000276641
0.00029794
0.00032077
0.000345219
0.00037138
0.000399348
0.000429218
0.000461075
0.000494999
0.000531067
0.000569358
0.000609949
0.000652894
0.000698197
0.000745822
0.000795718
0.000847844
0.000902147
0.000958483
0.00101653
0.0010758
0.00113571
0.00119573
0.00125542
0.00131393
0.00137004
0.00142321
0.00147093
0.00151094
0.00154221
0.00156461
0.00157821
0.00158264
0.00157711
0.0015618
0.0015397
0.0015186
0.00151263
0.00154293
0.00163533
0.00181041
0.00206156
0.00233684
0.00256016
0.00268884
0.00274543
0.00279483
0.00290692
0.00313351
0.00349617
0.00399585
0.00463829
0.00543907
0.00640791
0.00754731
0.00885974
0.0103371
0.0119456
0.0136321
0.0153422
0.0170308
0.0186596
0.0201945
0.0216097
0.0228864
0.0240121
0.0249774
0.0257742
0.0263947
0.0268299
0.02707
0.0271039
0.026921
0.0265117
0.0258687
0.0249913
0.0238797
0.0225389
0.0209796
0.0192171
0.0172706
0.0151636
0.0129233
0.0105818
0.00817815
0.00576092
0.00339043
0.00113775
-0.000921042
-0.00271574
-0.00419604
-0.00534427
-0.00617946
-0.00674567
-0.00708967
-0.00724801
-0.00725154
-0.00712906
-0.00689998
-0.00657465
-0.00616371
-0.00567569
-0.00511613
-0.00450595
-0.0039038
-0.00338509
-0.00300504
-0.00277142
-0.00263386
-0.00250888
-0.00233662
-0.00211093
-0.00185454
-0.00158784
-0.00132461
-0.0010755
-0.00084663
-0.00063965
-0.000453643
-0.00028617
-0.000133738
7.72165e-06
0.000142565
0.000275342
0.000410774
0.000553772
0.000709539
0.000883534
0.00108208
0.00131067
0.00158137
0.00188827
0.0023184
2.97896e-06
2.99425e-06
3.02955e-06
3.08463e-06
3.15877e-06
3.2518e-06
3.36443e-06
3.49752e-06
3.65191e-06
3.82847e-06
4.02822e-06
4.2524e-06
4.5024e-06
4.77977e-06
5.08618e-06
5.42348e-06
5.79371e-06
6.19911e-06
6.64215e-06
7.12553e-06
7.65217e-06
8.22525e-06
8.84821e-06
9.52482e-06
1.02592e-05
1.10558e-05
1.19194e-05
1.28553e-05
1.38692e-05
1.49672e-05
1.61559e-05
1.74424e-05
1.88345e-05
2.03405e-05
2.19693e-05
2.37306e-05
2.5635e-05
2.76938e-05
2.99192e-05
3.23244e-05
3.49237e-05
3.77325e-05
4.07673e-05
4.4046e-05
4.75877e-05
5.14131e-05
5.55444e-05
6.00055e-05
6.48222e-05
7.00221e-05
7.56347e-05
8.16921e-05
8.82283e-05
9.52801e-05
0.000102887
0.00011109
0.000119934
0.000129468
0.000139741
0.000150809
0.000162729
0.000175561
0.00018937
0.000204225
0.000220198
0.000237364
0.000255804
0.000275599
0.000296836
0.000319602
0.000343987
0.000370082
0.000397987
0.000427795
0.000459596
0.000493467
0.000529484
0.000567733
0.000608298
0.00065124
0.000696564
0.000744227
0.000794178
0.000846386
0.000900826
0.00095738
0.00101574
0.0010754
0.00113576
0.00119627
0.00125645
0.00131554
0.00137253
0.00142656
0.00147538
0.00151668
0.00154923
0.00157272
0.00158714
0.00159178
0.00158527
0.00156699
0.00153928
0.00150967
0.00149307
0.00151308
0.0016006
0.00178306
0.00205647
0.00235917
0.00259663
0.00271573
0.00274451
0.00276008
0.00284301
0.00305077
0.00340278
0.00389352
0.00452695
0.00532169
0.00628848
0.00742996
0.00875218
0.0102503
0.0118883
0.0136068
0.0153469
0.0170626
0.0187148
0.0202691
0.0216992
0.0229874
0.0241222
0.0250952
0.0258992
0.0265271
0.0269703
0.0272185
0.0272606
0.0270851
0.0266818
0.0260429
0.0251661
0.0240515
0.022704
0.021134
0.0193571
0.0173927
0.015264
0.0129978
0.0106253
0.00818462
0.0057244
0.0033063
0.0010052
-0.0010968
-0.00292261
-0.00441648
-0.00555965
-0.00637609
-0.00691829
-0.00723901
-0.00737595
-0.00736024
-0.00722227
-0.00698079
-0.00664381
-0.0062214
-0.00572035
-0.00514012
-0.00449861
-0.00386225
-0.00331961
-0.0029363
-0.00272236
-0.00261692
-0.00251775
-0.00235441
-0.00212519
-0.0018614
-0.00158733
-0.00131799
-0.00106487
-0.000834167
-0.000627038
-0.000442115
-0.000276593
-0.000126678
1.18941e-05
0.000143591
0.000273011
0.000404878
0.000544071
0.000695741
0.00086528
0.00105892
0.0012821
0.00154672
0.00184698
0.0022688
2.96403e-06
2.97924e-06
3.01436e-06
3.06918e-06
3.14296e-06
3.23554e-06
3.3476e-06
3.48004e-06
3.63366e-06
3.80933e-06
4.00809e-06
4.23115e-06
4.47991e-06
4.7559e-06
5.06078e-06
5.3964e-06
5.76478e-06
6.16817e-06
6.60901e-06
7.08998e-06
7.61399e-06
8.1842e-06
8.80405e-06
9.47729e-06
1.0208e-05
1.10006e-05
1.186e-05
1.27912e-05
1.38001e-05
1.48926e-05
1.60754e-05
1.73556e-05
1.87408e-05
2.02393e-05
2.186e-05
2.36127e-05
2.55077e-05
2.75563e-05
2.97709e-05
3.21644e-05
3.47512e-05
3.75464e-05
4.05666e-05
4.38296e-05
4.73544e-05
5.11617e-05
5.52735e-05
5.97137e-05
6.4508e-05
6.96837e-05
7.52705e-05
8.13002e-05
8.78067e-05
9.48267e-05
0.000102399
0.000110566
0.000119371
0.000128863
0.000139093
0.000150114
0.000161984
0.000174764
0.000188518
0.000203314
0.000219226
0.000236328
0.000254701
0.000274428
0.000295596
0.00031829
0.000342601
0.000368622
0.000396454
0.000426194
0.00045793
0.000491741
0.000527701
0.0005659
0.000606435
0.000649373
0.000694721
0.000742426
0.000792433
0.000844729
0.000899325
0.000956139
0.00101485
0.00107492
0.00113569
0.00119665
0.00125745
0.00131754
0.00137596
0.00143139
0.0014813
0.00152314
0.00155557
0.00157855
0.0015923
0.001596
0.00158756
0.00156538
0.00153086
0.00149108
0.00146157
0.00146861
0.00154916
0.0017396
0.00204023
0.00237746
0.00263303
0.00274085
0.00273662
0.00271301
0.00276334
0.00295204
0.00329524
0.00377848
0.0044036
0.00519344
0.00615967
0.00730456
0.0086388
0.010162
0.0118351
0.0135908
0.0153651
0.0171105
0.0187883
0.020363
0.0218082
0.0231076
0.0242511
0.0252313
0.0260422
0.026677
0.0271274
0.0273828
0.0274313
0.0272608
0.0268605
0.026222
0.0253422
0.0242213
0.0228642
0.0212816
0.019489
0.0175061
0.0153559
0.0130642
0.0106612
0.00818365
0.0056796
0.00321204
0.000859993
-0.00128757
-0.00314537
-0.00465105
-0.00578452
-0.00657605
-0.00708884
-0.00738287
-0.00749643
-0.00746058
-0.00730767
-0.00705544
-0.00670843
-0.00627636
-0.00576365
-0.00516302
-0.00448629
-0.00380994
-0.00323912
-0.00285247
-0.00266347
-0.00259823
-0.0025305
-0.00237672
-0.002142
-0.00186883
-0.00158589
-0.0013094
-0.00105174
-0.000819079
-0.000611943
-0.00042841
-0.00026524
-0.000118292
1.69254e-05
0.000145
0.000270583
0.000398397
0.000533287
0.000680339
0.000844867
0.00103301
0.00125012
0.00150791
0.00180072
0.0022132
2.94746e-06
2.96259e-06
2.99752e-06
3.05205e-06
3.12542e-06
3.2175e-06
3.32895e-06
3.46065e-06
3.61342e-06
3.78811e-06
3.98576e-06
4.20758e-06
4.45496e-06
4.72941e-06
5.0326e-06
5.36636e-06
5.73271e-06
6.13385e-06
6.57225e-06
7.05056e-06
7.57167e-06
8.13872e-06
8.75514e-06
9.42466e-06
1.01514e-05
1.09396e-05
1.17943e-05
1.27205e-05
1.37238e-05
1.48103e-05
1.59867e-05
1.72598e-05
1.86375e-05
2.01278e-05
2.17397e-05
2.34828e-05
2.53675e-05
2.74051e-05
2.96076e-05
3.19882e-05
3.4561e-05
3.73413e-05
4.03453e-05
4.35908e-05
4.70968e-05
5.08838e-05
5.49738e-05
5.93906e-05
6.41597e-05
6.93084e-05
7.48663e-05
8.08648e-05
8.73381e-05
9.43225e-05
0.000101857
0.000109983
0.000118745
0.000128191
0.000138372
0.000149341
0.000161156
0.000173877
0.00018757
0.000202302
0.000218146
0.000235177
0.000253477
0.000273128
0.000294217
0.000316831
0.000341061
0.000366999
0.00039475
0.000424413
0.000456079
0.000489821
0.000525716
0.000563858
0.000604356
0.000647291
0.000692666
0.000740418
0.000790484
0.00084287
0.000897631
0.000954725
0.00101384
0.00107437
0.00113565
0.00119717
0.00125866
0.00131973
0.00137945
0.00143619
0.00148726
0.00152996
0.00156295
0.00158634
0.00160057
0.00160448
0.00159508
0.00156951
0.00152803
0.00147705
0.0014326
0.00142389
0.00149507
0.00169421
0.00202822
0.00240888
0.00268725
0.0027809
0.0027361
0.00266491
0.00267622
0.00284298
0.0031766
0.00365053
0.0042643
0.00504694
0.00601085
0.00715725
0.00850312
0.0100541
0.0117675
0.0135658
0.0153785
0.0171577
0.0188647
0.0204627
0.0219253
0.0232377
0.0243914
0.0253802
0.0261993
0.0268427
0.0273023
0.0275674
0.0276253
0.0274631
0.027069
0.026434
0.0255538
0.0244283
0.0230623
0.0214664
0.0196563
0.017652
0.0154763
0.0131542
0.0107146
0.00819281
0.00563595
0.0031084
0.000693977
-0.00151006
-0.0034084
-0.00493025
-0.00605354
-0.00681632
-0.00729534
-0.0075592
-0.00764603
-0.00758639
-0.00741567
-0.0071503
-0.00679042
-0.00634634
-0.00582265
-0.00519564
-0.0044761
-0.00375055
-0.00314472
-0.00275341
-0.00259506
-0.00257966
-0.00254987
-0.002406
-0.00216318
-0.00187835
-0.00158497
-0.0013002
-0.00103743
-0.000802643
-0.000595543
-0.000413567
-0.00025299
-0.000109288
2.22708e-05
0.000146401
0.000267801
0.000391191
0.000521369
0.000663351
0.000822367
0.00100444
0.00121485
0.00146509
0.00174966
0.00215178
2.92927e-06
2.94431e-06
2.97904e-06
3.03324e-06
3.10618e-06
3.19769e-06
3.30846e-06
3.43936e-06
3.5912e-06
3.76482e-06
3.96125e-06
4.1817e-06
4.42756e-06
4.70034e-06
5.00167e-06
5.33339e-06
5.69749e-06
6.09618e-06
6.5319e-06
7.00728e-06
7.5252e-06
8.08878e-06
8.70142e-06
9.36686e-06
1.00891e-05
1.08726e-05
1.17221e-05
1.26426e-05
1.36399e-05
1.47198e-05
1.5889e-05
1.71544e-05
1.85237e-05
2.0005e-05
2.16071e-05
2.33397e-05
2.5213e-05
2.72383e-05
2.94276e-05
3.1794e-05
3.43515e-05
3.71152e-05
4.01014e-05
4.33278e-05
4.68131e-05
5.05779e-05
5.46441e-05
5.90352e-05
6.37768e-05
6.88961e-05
7.44222e-05
8.03869e-05
8.68238e-05
9.37693e-05
0.000101262
0.000109344
0.000118058
0.000127454
0.000137581
0.000148493
0.000160247
0.000172905
0.000186529
0.00020119
0.000216959
0.000233912
0.000252131
0.000271698
0.000292701
0.000315228
0.000339367
0.000365214
0.000392874
0.000422453
0.00045404
0.000487708
0.000523529
0.000561605
0.000602061
0.000644991
0.000690398
0.000738201
0.000788325
0.000840796
0.000895728
0.000953134
0.0010127
0.00107376
0.00113557
0.00119763
0.00125981
0.00132198
0.00138326
0.00144172
0.00149432
0.00153803
0.00157136
0.00159472
0.00160889
0.00161255
0.00160168
0.00157203
0.00152246
0.00145841
0.00139617
0.00136793
0.00142623
0.00163426
0.00200894
0.00244421
0.0027514
0.00282778
0.00273421
0.00260695
0.0025736
0.00271765
0.0030437
0.00350874
0.00410993
0.00488516
0.00584696
0.00699436
0.00835268
0.0099359
0.0116962
0.0135433
0.015399
0.0172155
0.0189544
0.0205776
0.0220585
0.0233843
0.0245482
0.0255456
0.0263731
0.0270254
0.0274946
0.0277694
0.0278367
0.0276822
0.0272934
0.0266603
0.0257778
0.0246455
0.0232682
0.0216568
0.0198273
0.0177999
0.0155973
0.0132438
0.0107664
0.00819849
0.00558558
0.00299319
0.000510412
-0.00175598
-0.00369868
-0.00523649
-0.00634469
-0.0070711
-0.00750976
-0.00773963
-0.00779718
-0.00771179
-0.0075232
-0.00724583
-0.00687372
-0.00641881
-0.00588453
-0.00523285
-0.00446409
-0.00368017
-0.00303231
-0.00263525
-0.00251474
-0.00256099
-0.00257657
-0.00244198
-0.00218717
-0.00188769
-0.00158193
-0.00128768
-0.00101932
-0.000782477
-0.00057576
-0.000395847
-0.000238445
-9.85865e-05
2.87284e-05
0.000148349
0.000265026
0.000383464
0.00050841
0.000644794
0.000797745
0.000973167
0.00117622
0.0014182
0.00169374
0.00208451
2.90946e-06
2.9244e-06
2.95891e-06
3.01277e-06
3.08522e-06
3.17613e-06
3.28617e-06
3.41619e-06
3.567e-06
3.73945e-06
3.93456e-06
4.15353e-06
4.39774e-06
4.66868e-06
4.968e-06
5.29749e-06
5.65915e-06
6.05517e-06
6.48797e-06
6.96017e-06
7.47461e-06
8.03441e-06
8.64295e-06
9.30394e-06
1.00214e-05
1.07997e-05
1.16435e-05
1.25579e-05
1.35486e-05
1.46213e-05
1.57828e-05
1.70398e-05
1.84e-05
1.98715e-05
2.1463e-05
2.31842e-05
2.50452e-05
2.70571e-05
2.92321e-05
3.1583e-05
3.41238e-05
3.68695e-05
3.98364e-05
4.30419e-05
4.65048e-05
5.02453e-05
5.42855e-05
5.86487e-05
6.33603e-05
6.84473e-05
7.39388e-05
7.98664e-05
8.62636e-05
9.31666e-05
0.000100614
0.000108647
0.00011731
0.00012665
0.000136719
0.000147569
0.000159257
0.000171844
0.000185395
0.000199978
0.000215666
0.000232534
0.000250663
0.000270139
0.000291049
0.000313479
0.000337519
0.000363265
0.000390826
0.000420312
0.000451815
0.0004854
0.000521139
0.000559139
0.000599545
0.000642471
0.000687915
0.000735774
0.000785956
0.000838509
0.000893619
0.000951368
0.00101143
0.00107308
0.00113548
0.00119812
0.00126105
0.00132441
0.00138739
0.00144776
0.00150203
0.00154682
0.00158055
0.00160405
0.00161866
0.00162281
0.00161124
0.00157793
0.00151998
0.00144147
0.00135859
0.00130641
0.00134717
0.00156366
0.00198767
0.00249143
0.00283465
0.00288937
0.0027367
0.00254281
0.00245761
0.00257791
0.00289872
0.00335458
0.00394055
0.00470718
0.00566613
0.00681243
0.0081827
0.00980219
0.0116166
0.013519
0.0154221
0.0172795
0.0190536
0.0207042
0.0222047
0.0235446
0.0247193
0.0257259
0.0265624
0.0272245
0.0277045
0.027991
0.0280695
0.0279249
0.0275433
0.0269139
0.0260305
0.0248922
0.0235037
0.0218759
0.0200255
0.0179729
0.0157407
0.0133525
0.0108332
0.00821347
0.00553693
0.00286994
0.000307396
-0.00203276
-0.00402869
-0.00558609