/*--------------------------------*- C++ -*----------------------------------*\
| =========                 |                                                 |
| \\      /  F ield         | OpenFOAM: The Open Source CFD Toolbox           |
|  \\    /   O peration     | Version:  v2006                                 |
|   \\  /    A nd           | Website:  www.openfoam.com                      |
|    \\/     M anipulation  |                                                 |
\*---------------------------------------------------------------------------*/
FoamFile
{
    version     2.0;
    format      ascii;
    class       volVectorField;
    location    "0";
    object      U;
}
// * * * * * * * * * * * * * * * * * * * * * * * * * * * * * * * * * * * * * //

dimensions      [0 1 -1 0 0 0 0];


internalField   nonuniform List<vector> 
20000
(
(1 2.57865e-12 0)
(1 7.28618e-12 0)
(1 1.23696e-11 0)
(1 1.80178e-11 0)
(1 2.41264e-11 0)
(1 3.06701e-11 0)
(1 3.77211e-11 0)
(1 4.54185e-11 0)
(1 5.39443e-11 0)
(1 6.35155e-11 0)
(1 7.43839e-11 0)
(1 8.68279e-11 0)
(1 1.01152e-10 0)
(1 1.17671e-10 0)
(1 1.36692e-10 0)
(1 1.58507e-10 0)
(1 1.83372e-10 0)
(1 2.11498e-10 0)
(1 2.43012e-10 0)
(1 2.77921e-10 0)
(1 3.16081e-10 0)
(1 3.5717e-10 0)
(1 4.0068e-10 0)
(1 4.45924e-10 0)
(1 4.92052e-10 0)
(1 5.38063e-10 0)
(1 5.82827e-10 0)
(1 6.25117e-10 0)
(1 6.63665e-10 0)
(1 6.97242e-10 0)
(1 7.24765e-10 0)
(1 7.45401e-10 0)
(1 7.58645e-10 0)
(1 7.64376e-10 0)
(1 7.62845e-10 0)
(1 7.54619e-10 0)
(1 7.40479e-10 0)
(1 7.21311e-10 0)
(1 6.97997e-10 0)
(1 6.71332e-10 0)
(1 6.41966e-10 0)
(1 6.10377e-10 0)
(1 5.76872e-10 0)
(1 5.41617e-10 0)
(1 5.0468e-10 0)
(1 4.66073e-10 0)
(1 4.25795e-10 0)
(1 3.83862e-10 0)
(1 3.40325e-10 0)
(1 2.95316e-10 0)
(1 2.49085e-10 0)
(1 2.02015e-10 0)
(1 1.54642e-10 0)
(1 1.07595e-10 0)
(1 6.15779e-11 0)
(1 1.74761e-11 0)
(1 -2.36091e-11 0)
(1 -6.06554e-11 0)
(1 -9.2658e-11 0)
(1 -1.18131e-10 0)
(1 -1.35729e-10 0)
(1 -1.44107e-10 0)
(1 -1.42642e-10 0)
(1 -1.35263e-10 0)
(1 -1.40218e-10 0)
(1 -2.0745e-10 0)
(1 -4.08641e-10 0)
(1 -7.46029e-10 0)
(1 -1.21688e-09 0)
(1 -1.83223e-09 0)
(1 -2.61392e-09 0)
(1 -3.59296e-09 0)
(1 -4.80891e-09 0)
(1 -6.30963e-09 0)
(1 -8.15155e-09 0)
(1 -1.04019e-08 0)
(1 -1.31431e-08 0)
(1 -1.64749e-08 0)
(1 -2.05044e-08 0)
(1 -2.53269e-08 0)
(1 -3.10318e-08 0)
(1 -3.77917e-08 0)
(1 -4.59941e-08 0)
(1 -5.6097e-08 0)
(1 -6.7788e-08 0)
(1 -7.89976e-08 0)
(1 -8.77695e-08 0)
(1 -1.00249e-07 0)
(1 -1.36979e-07 0)
(1.00001 -2.09097e-07 0)
(1.00001 -2.46412e-07 0)
(1.00001 -8.56706e-08 0)
(1.00001 2.85964e-07 0)
(1.00001 6.86214e-07 0)
(1.00001 1.01079e-06 0)
(1 1.23955e-06 0)
(1 1.39384e-06 0)
(1 1.49943e-06 0)
(0.999998 1.57371e-06 0)
(0.999996 1.62646e-06 0)
(0.999993 1.66355e-06 0)
(0.999991 1.69015e-06 0)
(0.999988 1.71231e-06 0)
(0.999985 1.73733e-06 0)
(0.999983 1.77275e-06 0)
(0.99998 1.8243e-06 0)
(0.999977 1.89297e-06 0)
(0.999974 1.97213e-06 0)
(0.999972 2.04599e-06 0)
(0.999969 2.09104e-06 0)
(0.999966 2.08076e-06 0)
(0.999963 1.99217e-06 0)
(0.99996 1.8122e-06 0)
(0.999957 1.54172e-06 0)
(0.999953 1.19454e-06 0)
(0.99995 7.91828e-07 0)
(0.999947 3.55767e-07 0)
(0.999944 -9.39362e-08 0)
(0.999941 -5.40454e-07 0)
(0.999938 -9.68107e-07 0)
(0.999936 -1.3606e-06 0)
(0.999933 -1.70082e-06 0)
(0.999931 -1.97194e-06 0)
(0.99993 -2.15885e-06 0)
(0.999928 -2.24984e-06 0)
(0.999927 -2.23881e-06 0)
(0.999926 -2.12703e-06 0)
(0.999926 -1.92706e-06 0)
(0.999926 -1.67374e-06 0)
(0.999926 -1.44101e-06 0)
(0.999927 -1.28437e-06 0)
(0.999929 -1.20195e-06 0)
(0.999932 -1.17052e-06 0)
(0.999936 -1.15406e-06 0)
(0.999942 -1.10481e-06 0)
(0.999948 -9.66222e-07 0)
(0.999956 -6.77498e-07 0)
(0.999963 -1.81453e-07 0)
(0.999971 5.63653e-07 0)
(0.999977 1.56496e-06 0)
(0.999982 2.76189e-06 0)
(0.999984 3.9601e-06 0)
(0.999984 4.79377e-06 0)
(0.999982 5.23622e-06 0)
(0.99998 5.38002e-06 0)
(0.999977 5.30567e-06 0)
(0.999974 5.05465e-06 0)
(0.999971 4.6451e-06 0)
(0.999966 4.0889e-06 0)
(0.999962 3.40039e-06 0)
(0.999957 2.59848e-06 0)
(0.999953 1.70833e-06 0)
(0.999947 7.6193e-07 0)
(0.999942 -2.02133e-07 0)
(0.999937 -1.14107e-06 0)
(0.999933 -2.01081e-06 0)
(0.999928 -2.76966e-06 0)
(0.999924 -3.3821e-06 0)
(0.99992 -3.8223e-06 0)
(0.999917 -4.07668e-06 0)
(0.999915 -4.1447e-06 0)
(0.999913 -4.03802e-06 0)
(0.999912 -3.77937e-06 0)
(0.999911 -3.40023e-06 0)
(0.999911 -2.93881e-06 0)
(0.99991 -2.44654e-06 0)
(0.99991 -2.00888e-06 0)
(0.999911 -1.67736e-06 0)
(0.999913 -1.44893e-06 0)
(0.999915 -1.30185e-06 0)
(0.999919 -1.20823e-06 0)
(0.999923 -1.13818e-06 0)
(0.999928 -1.06596e-06 0)
(0.999933 -9.76844e-07 0)
(0.999938 -8.70307e-07 0)
(0.999942 -7.5768e-07 0)
(0.999946 -6.54654e-07 0)
(0.99995 -5.72927e-07 0)
(0.999953 -5.16121e-07 0)
(0.999956 -4.81162e-07 0)
(0.999959 -4.61856e-07 0)
(0.999962 -4.51579e-07 0)
(0.999965 -4.4467e-07 0)
(0.999968 -4.37052e-07 0)
(0.999971 -4.26296e-07 0)
(0.999974 -4.11336e-07 0)
(0.999976 -3.92083e-07 0)
(0.999979 -3.69062e-07 0)
(0.999981 -3.43125e-07 0)
(0.999984 -3.1523e-07 0)
(0.999986 -2.86299e-07 0)
(0.999987 -2.57143e-07 0)
(0.999989 -2.28415e-07 0)
(0.99999 -2.00604e-07 0)
(0.999992 -1.74045e-07 0)
(0.999993 -1.48903e-07 0)
(0.999994 -1.25365e-07 0)
(0.999994 -1.02824e-07 0)
(0.999995 -8.40346e-08 0)
(0.999996 -5.47053e-08 0)
(1 4.93244e-12 0)
(1 1.30906e-11 0)
(1 2.10195e-11 0)
(1 2.91958e-11 0)
(1 3.75387e-11 0)
(1 4.60603e-11 0)
(1 5.4857e-11 0)
(1 6.40641e-11 0)
(1 7.38327e-11 0)
(1 8.43275e-11 0)
(1 9.57239e-11 0)
(1 1.08191e-10 0)
(1 1.21898e-10 0)
(1 1.37016e-10 0)
(1 1.53713e-10 0)
(1 1.72153e-10 0)
(1 1.92466e-10 0)
(1 2.1474e-10 0)
(1 2.39001e-10 0)
(1 2.6522e-10 0)
(1 2.93311e-10 0)
(1 3.23139e-10 0)
(1 3.54513e-10 0)
(1 3.87177e-10 0)
(1 4.20812e-10 0)
(1 4.5505e-10 0)
(1 4.8949e-10 0)
(1 5.23749e-10 0)
(1 5.57512e-10 0)
(1 5.90595e-10 0)
(1 6.22989e-10 0)
(1 6.54894e-10 0)
(1 6.86716e-10 0)
(1 7.19039e-10 0)
(1 7.52576e-10 0)
(1 7.88092e-10 0)
(1 8.26333e-10 0)
(1 8.67962e-10 0)
(1 9.13508e-10 0)
(1 9.63345e-10 0)
(1 1.01769e-09 0)
(1 1.0766e-09 0)
(1 1.14004e-09 0)
(1 1.20787e-09 0)
(1 1.27986e-09 0)
(1 1.35569e-09 0)
(1 1.43491e-09 0)
(1 1.5169e-09 0)
(1 1.60082e-09 0)
(1 1.68558e-09 6.10269e-43)
(1 1.76979e-09 6.58596e-43)
(1 1.85169e-09 0)
(1 1.92906e-09 0)
(1 1.99912e-09 0)
(1 2.05842e-09 0)
(1 2.10292e-09 0)
(1 2.12778e-09 0)
(1 2.1271e-09 0)
(1 2.09419e-09 0)
(1 2.02171e-09 0)
(1 1.90085e-09 0)
(1 1.72149e-09 0)
(1 1.47176e-09 0)
(1 1.13577e-09 0)
(1 6.84879e-10 0)
(1 6.0393e-11 0)
(1 -8.18975e-10 0)
(1 -1.98733e-09 0)
(1 -3.48846e-09 0)
(1 -5.38601e-09 0)
(1 -7.76169e-09 0)
(1 -1.07168e-08 0)
(1 -1.43744e-08 0)
(1 -1.88808e-08 0)
(1 -2.44087e-08 0)
(1 -3.11622e-08 0)
(1 -3.93838e-08 0)
(1 -4.93576e-08 0)
(1 -6.14049e-08 0)
(1 -7.58747e-08 0)
(1 -9.31454e-08 0)
(1 -1.13654e-07 0)
(1 -1.37932e-07 0)
(1 -1.66543e-07 0)
(1 -1.9982e-07 0)
(1 -2.37605e-07 0)
(1 -2.79978e-07 0)
(1 -3.29727e-07 0)
(1 -3.93145e-07 0)
(1.00001 -4.68284e-07 0)
(1.00001 -5.13877e-07 0)
(1.00001 -4.51608e-07 0)
(1.00001 -3.11049e-07 0)
(1.00001 -2.16122e-07 0)
(1.00002 -1.91723e-07 0)
(1.00002 -2.13404e-07 0)
(1.00003 -2.48591e-07 0)
(1.00004 -2.75966e-07 0)
(1.00004 -2.86395e-07 0)
(1.00005 -2.78269e-07 0)
(1.00005 -2.54337e-07 0)
(1.00006 -2.20635e-07 0)
(1.00006 -1.86379e-07 0)
(1.00007 -1.63585e-07 0)
(1.00008 -1.65296e-07 0)
(1.00008 -2.01688e-07 0)
(1.00009 -2.74012e-07 0)
(1.00009 -3.68125e-07 0)
(1.0001 -4.51492e-07 0)
(1.00011 -4.80103e-07 0)
(1.00011 -4.13912e-07 0)
(1.00012 -2.35e-07 0)
(1.00013 4.83012e-08 0)
(1.00013 4.06137e-07 0)
(1.00013 8.034e-07 0)
(1.00013 1.21361e-06 0)
(1.00013 1.62012e-06 0)
(1.00012 2.01176e-06 0)
(1.00011 2.37694e-06 0)
(1.0001 2.70112e-06 0)
(1.00009 2.96751e-06 0)
(1.00007 3.15824e-06 0)
(1.00005 3.25635e-06 0)
(1.00004 3.24993e-06 0)
(1.00002 3.13525e-06 0)
(1 2.91594e-06 0)
(0.999987 2.60094e-06 0)
(0.999973 2.20153e-06 0)
(0.999962 1.72305e-06 0)
(0.999953 1.14851e-06 0)
(0.999947 4.75904e-07 0)
(0.999944 -2.64253e-07 0)
(0.999943 -1.0406e-06 0)
(0.999944 -1.82361e-06 0)
(0.999948 -2.58359e-06 0)
(0.999955 -3.28974e-06 0)
(0.999964 -3.90929e-06 0)
(0.999976 -4.40787e-06 0)
(0.999991 -4.75086e-06 0)
(1.00001 -4.90828e-06 0)
(1.00003 -4.86872e-06 0)
(1.00006 -4.68912e-06 0)
(1.00009 -4.55795e-06 0)
(1.00012 -4.41498e-06 0)
(1.00015 -4.17435e-06 0)
(1.00018 -3.79041e-06 0)
(1.0002 -3.25065e-06 0)
(1.00023 -2.56081e-06 0)
(1.00025 -1.73566e-06 0)
(1.00026 -7.98582e-07 0)
(1.00027 2.22986e-07 0)
(1.00027 1.28709e-06 0)
(1.00027 2.34697e-06 0)
(1.00026 3.35373e-06 0)
(1.00024 4.25698e-06 0)
(1.00022 5.00934e-06 0)
(1.0002 5.57177e-06 0)
(1.00017 5.91842e-06 0)
(1.00014 6.03978e-06 0)
(1.00011 5.9432e-06 0)
(1.00008 5.65052e-06 0)
(1.00005 5.19403e-06 0)
(1.00002 4.61188e-06 0)
(0.999995 3.94515e-06 0)
(0.999975 3.23362e-06 0)
(0.999958 2.50434e-06 0)
(0.999946 1.74917e-06 0)
(0.999937 9.76027e-07 0)
(0.999932 2.17882e-07 0)
(0.999929 -4.89274e-07 0)
(0.999928 -1.10289e-06 0)
(0.99993 -1.57665e-06 0)
(0.999933 -1.87429e-06 0)
(0.999936 -1.98756e-06 0)
(0.99994 -1.9456e-06 0)
(0.999944 -1.80774e-06 0)
(0.999947 -1.64138e-06 0)
(0.999951 -1.49724e-06 0)
(0.999954 -1.39776e-06 0)
(0.999957 -1.34221e-06 0)
(0.99996 -1.31821e-06 0)
(0.999962 -1.31043e-06 0)
(0.999965 -1.30518e-06 0)
(0.999968 -1.29258e-06 0)
(0.999971 -1.26701e-06 0)
(0.999974 -1.22646e-06 0)
(0.999976 -1.17145e-06 0)
(0.999979 -1.10412e-06 0)
(0.999981 -1.02739e-06 0)
(0.999984 -9.4437e-07 0)
(0.999986 -8.5799e-07 0)
(0.999987 -7.70776e-07 0)
(0.999989 -6.84755e-07 0)
(0.99999 -6.01428e-07 0)
(0.999992 -5.21825e-07 0)
(0.999993 -4.46456e-07 0)
(0.999994 -3.75888e-07 0)
(0.999994 -3.08306e-07 0)
(0.999995 -2.51966e-07 0)
(0.999996 -1.64023e-07 0)
(1 5.76435e-12 0)
(1 1.50401e-11 0)
(1 2.36796e-11 0)
(1 3.22966e-11 0)
(1 4.09292e-11 0)
(1 4.964e-11 0)
(1 5.8482e-11 0)
(1 6.74969e-11 0)
(1 7.67199e-11 0)
(1 8.61882e-11 0)
(1 9.59358e-11 0)
(1 1.05982e-10 0)
(1 1.1634e-10 0)
(1 1.27039e-10 0)
(1 1.38138e-10 0)
(1 1.49725e-10 0)
(1 1.61904e-10 0)
(1 1.74781e-10 0)
(1 1.88483e-10 0)
(1 2.03185e-10 0)
(1 2.1914e-10 0)
(1 2.36696e-10 0)
(1 2.56277e-10 0)
(1 2.7836e-10 0)
(1 3.03449e-10 0)
(1 3.32066e-10 0)
(1 3.64758e-10 0)
(1 4.02117e-10 0)
(1 4.44791e-10 0)
(1 4.9347e-10 0)
(1 5.48854e-10 0)
(1 6.11594e-10 0)
(1 6.82226e-10 0)
(1 7.61131e-10 0)
(1 8.48507e-10 0)
(1 9.44374e-10 0)
(1 1.04861e-09 0)
(1 1.161e-09 0)
(1 1.28129e-09 0)
(1 1.40922e-09 0)
(1 1.5446e-09 0)
(1 1.68731e-09 0)
(1 1.83728e-09 0)
(1 1.99444e-09 0)
(1 2.15867e-09 0)
(1 2.32976e-09 0)
(1 2.50722e-09 0)
(1 2.6903e-09 0)
(1 2.87784e-09 0)
(1 3.06821e-09 0)
(1 3.2592e-09 0)
(1 3.44787e-09 0)
(1 3.63048e-09 0)
(1 3.80226e-09 0)
(1 3.95724e-09 0)
(1 4.0879e-09 0)
(1 4.18461e-09 0)
(1 4.23546e-09 0)
(1 4.22577e-09 0)
(1 4.13715e-09 0)
(1 3.94691e-09 0)
(1 3.62746e-09 0)
(1 3.14563e-09 0)
(1 2.46261e-09 0)
(1 1.53523e-09 0)
(1 3.16661e-10 0)
(1 -1.24609e-09 0)
(1 -3.2358e-09 0)
(1 -5.75452e-09 0)
(1 -8.92139e-09 0)
(1 -1.28783e-08 0)
(1 -1.77968e-08 0)
(1 -2.38826e-08 0)
(1 -3.13801e-08 0)
(1 -4.05773e-08 0)
(1 -5.18141e-08 0)
(1 -6.5493e-08 0)
(1 -8.20842e-08 0)
(1 -1.02124e-07 0)
(1 -1.26208e-07 0)
(1 -1.54989e-07 0)
(1 -1.89163e-07 0)
(1 -2.29462e-07 0)
(1 -2.76687e-07 0)
(1 -3.31871e-07 0)
(1 -3.96406e-07 0)
(1 -4.71271e-07 0)
(1 -5.54405e-07 0)
(1 -6.38734e-07 0)
(1.00001 -7.20007e-07 0)
(1.00001 -8.19926e-07 0)
(1.00001 -9.87703e-07 0)
(1.00001 -1.2223e-06 0)
(1.00001 -1.45704e-06 0)
(1.00001 -1.64343e-06 0)
(1.00001 -1.76865e-06 0)
(1.00002 -1.83866e-06 0)
(1.00002 -1.86165e-06 0)
(1.00002 -1.84291e-06 0)
(1.00002 -1.7861e-06 0)
(1.00002 -1.69681e-06 0)
(1.00002 -1.58634e-06 0)
(1.00003 -1.47445e-06 0)
(1.00003 -1.38958e-06 0)
(1.00003 -1.36495e-06 0)
(1.00003 -1.42883e-06 0)
(1.00003 -1.58893e-06 0)
(1.00003 -1.81466e-06 0)
(1.00004 -2.02776e-06 0)
(1.00004 -2.11577e-06 0)
(1.00004 -1.97201e-06 0)
(1.00004 -1.54097e-06 0)
(1.00004 -8.36587e-07 0)
(1.00004 7.33957e-08 0)
(1.00004 1.10372e-06 0)
(1.00004 2.18122e-06 0)
(1.00004 3.25668e-06 0)
(1.00003 4.29823e-06 0)
(1.00003 5.27677e-06 0)
(1.00002 6.15738e-06 0)
(1.00001 6.89869e-06 0)
(1 7.45495e-06 0)
(0.999993 7.78132e-06 0)
(0.999983 7.84382e-06 0)
(0.999974 7.62731e-06 0)
(0.999965 7.13541e-06 0)
(0.999956 6.38524e-06 0)
(0.999949 5.40418e-06 0)
(0.999943 4.23176e-06 0)
(0.999939 2.92273e-06 0)
(0.999936 1.52968e-06 0)
(0.999936 8.86849e-08 0)
(0.999937 -1.37312e-06 0)
(0.99994 -2.83268e-06 0)
(0.999944 -4.27007e-06 0)
(0.999951 -5.66761e-06 0)
(0.999959 -7.0085e-06 0)
(0.999969 -8.27503e-06 0)
(0.999981 -9.44615e-06 0)
(0.999993 -1.04927e-05 0)
(1.00001 -1.13675e-05 0)
(1.00002 -1.19887e-05 0)
(1.00004 -1.22369e-05 0)
(1.00005 -1.20763e-05 0)
(1.00006 -1.15191e-05 0)
(1.00008 -1.05825e-05 0)
(1.00009 -9.27683e-06 0)
(1.0001 -7.61636e-06 0)
(1.00011 -5.62814e-06 0)
(1.00011 -3.35787e-06 0)
(1.00011 -8.69821e-07 0)
(1.00011 1.74835e-06 0)
(1.00011 4.39127e-06 0)
(1.0001 6.9392e-06 0)
(1.00009 9.26508e-06 0)
(1.00008 1.12461e-05 0)
(1.00006 1.27772e-05 0)
(1.00005 1.37837e-05 0)
(1.00003 1.42314e-05 0)
(1.00001 1.41288e-05 0)
(0.999995 1.35226e-05 0)
(0.999979 1.24872e-05 0)
(0.999965 1.11156e-05 0)
(0.999952 9.5099e-06 0)
(0.999942 7.76963e-06 0)
(0.999934 5.9833e-06 0)
(0.999928 4.22973e-06 0)
(0.999924 2.56587e-06 0)
(0.999922 1.02686e-06 0)
(0.999922 -3.52372e-07 0)
(0.999923 -1.52088e-06 0)
(0.999926 -2.41486e-06 0)
(0.99993 -2.98322e-06 0)
(0.999935 -3.21959e-06 0)
(0.999939 -3.17921e-06 0)
(0.999943 -2.96738e-06 0)
(0.999947 -2.70179e-06 0)
(0.99995 -2.47034e-06 0)
(0.999954 -2.31178e-06 0)
(0.999957 -2.22513e-06 0)
(0.999959 -2.18977e-06 0)
(0.999962 -2.18024e-06 0)
(0.999965 -2.17383e-06 0)
(0.999968 -2.15428e-06 0)
(0.999971 -2.11246e-06 0)
(0.999974 -2.04519e-06 0)
(0.999976 -1.95353e-06 0)
(0.999979 -1.84116e-06 0)
(0.999981 -1.71303e-06 0)
(0.999984 -1.5744e-06 0)
(0.999986 -1.43019e-06 0)
(0.999987 -1.28462e-06 0)
(0.999989 -1.14109e-06 0)
(0.99999 -1.00209e-06 0)
(0.999992 -8.69339e-07 0)
(0.999993 -7.43684e-07 0)
(0.999994 -6.26064e-07 0)
(0.999994 -5.13448e-07 0)
(0.999995 -4.19578e-07 0)
(0.999996 -2.73097e-07 0)
(1 7.9925e-12 0)
(1 2.16683e-11 0)
(1 3.51229e-11 0)
(1 4.89726e-11 0)
(1 6.3203e-11 0)
(1 7.78502e-11 0)
(1 9.29604e-11 0)
(1 1.08616e-10 0)
(1 1.24933e-10 0)
(1 1.42064e-10 0)
(1 1.60178e-10 0)
(1 1.7945e-10 0)
(1 2.00063e-10 0)
(1 2.22221e-10 0)
(1 2.46171e-10 0)
(1 2.72187e-10 0)
(1 3.00547e-10 0)
(1 3.31511e-10 0)
(1 3.65312e-10 0)
(1 4.02177e-10 0)
(1 4.42349e-10 0)
(1 4.86089e-10 0)
(1 5.33661e-10 0)
(1 5.853e-10 0)
(1 6.41191e-10 0)
(1 7.01464e-10 0)
(1 7.66211e-10 0)
(1 8.35534e-10 0)
(1 9.09584e-10 0)
(1 9.88587e-10 0)
(1 1.07285e-09 0)
(1 1.16275e-09 0)
(1 1.2587e-09 0)
(1 1.36112e-09 0)
(1 1.47042e-09 0)
(1 1.58697e-09 0)
(1 1.71116e-09 0)
(1 1.84332e-09 0)
(1 1.98379e-09 0)
(1 2.13291e-09 0)
(1 2.29101e-09 0)
(1 2.45839e-09 0)
(1 2.63527e-09 0)
(1 2.82177e-09 0)
(1 3.01782e-09 0)
(1 3.22315e-09 0)
(1 3.43715e-09 0)
(1 3.65879e-09 0)
(1 3.88655e-09 0)
(1 4.11827e-09 0)
(1 4.35108e-09 0)
(1 4.5812e-09 0)
(1 4.80381e-09 0)
(1 5.01284e-09 0)
(1 5.20062e-09 0)
(1 5.35744e-09 0)
(1 5.47119e-09 0)
(1 5.52682e-09 0)
(1 5.50556e-09 0)
(1 5.38411e-09 0)
(1 5.13383e-09 0)
(1 4.71931e-09 0)
(1 4.09658e-09 0)
(1 3.21098e-09 0)
(1 1.99508e-09 0)
(1 3.6931e-10 0)
(1 -1.75993e-09 0)
(1 -4.5077e-09 0)
(1 -8.00705e-09 0)
(1 -1.24178e-08 0)
(1 -1.79351e-08 0)
(1 -2.47968e-08 0)
(1 -3.32901e-08 0)
(1 -4.37558e-08 0)
(1 -5.65954e-08 0)
(1 -7.22829e-08 0)
(1 -9.13815e-08 0)
(1 -1.14552e-07 0)
(1 -1.42543e-07 0)
(1 -1.76179e-07 0)
(1 -2.16351e-07 0)
(1 -2.6406e-07 0)
(1 -3.20448e-07 0)
(1 -3.86763e-07 0)
(1 -4.64131e-07 0)
(1 -5.53282e-07 0)
(1 -6.547e-07 0)
(1 -7.69681e-07 0)
(1 -9.01086e-07 0)
(1.00001 -1.05011e-06 0)
(1.00001 -1.20775e-06 0)
(1.00001 -1.35241e-06 0)
(1.00001 -1.46157e-06 0)
(1.00001 -1.53433e-06 0)
(1.00001 -1.58974e-06 0)
(1.00001 -1.6354e-06 0)
(1.00002 -1.6663e-06 0)
(1.00002 -1.67181e-06 0)
(1.00002 -1.64229e-06 0)
(1.00002 -1.57286e-06 0)
(1.00002 -1.46568e-06 0)
(1.00002 -1.33247e-06 0)
(1.00003 -1.19653e-06 0)
(1.00003 -1.09262e-06 0)
(1.00003 -1.06219e-06 0)
(1.00003 -1.14156e-06 0)
(1.00003 -1.34225e-06 0)
(1.00003 -1.62781e-06 0)
(1.00004 -1.9011e-06 0)
(1.00004 -2.02075e-06 0)
(1.00004 -1.85387e-06 0)
(1.00004 -1.33492e-06 0)
(1.00004 -4.8972e-07 0)
(1.00004 5.91448e-07 0)
(1.00004 1.80057e-06 0)
(1.00004 3.04993e-06 0)
(1.00004 4.28577e-06 0)
(1.00003 5.47612e-06 0)
(1.00003 6.59005e-06 0)
(1.00002 7.5874e-06 0)
(1.00001 8.41952e-06 0)
(1 9.03216e-06 0)
(0.999993 9.37186e-06 0)
(0.999983 9.39902e-06 0)
(0.999974 9.09836e-06 0)
(0.999965 8.47751e-06 0)
(0.999956 7.55814e-06 0)
(0.999949 6.36958e-06 0)
(0.999943 4.94712e-06 0)
(0.999939 3.33208e-06 0)
(0.999936 1.56792e-06 0)
(0.999935 -2.99702e-07 0)
(0.999936 -2.22171e-06 0)
(0.999939 -4.1491e-06 0)
(0.999944 -6.03351e-06 0)
(0.999951 -7.82667e-06 0)
(0.999959 -9.47987e-06 0)
(0.999969 -1.09444e-05 0)
(0.999981 -1.2174e-05 0)
(0.999993 -1.31282e-05 0)
(1.00001 -1.37789e-05 0)
(1.00002 -1.41116e-05 0)
(1.00004 -1.41035e-05 0)
(1.00005 -1.37466e-05 0)
(1.00006 -1.30103e-05 0)
(1.00008 -1.18645e-05 0)
(1.00009 -1.02955e-05 0)
(1.0001 -8.31065e-06 0)
(1.00011 -5.94108e-06 0)
(1.00011 -3.2412e-06 0)
(1.00011 -2.92161e-07 0)
(1.00011 2.80241e-06 0)
(1.00011 5.91553e-06 0)
(1.0001 8.90277e-06 0)
(1.00009 1.16124e-05 0)
(1.00008 1.38989e-05 0)
(1.00006 1.56389e-05 0)
(1.00005 1.67469e-05 0)
(1.00003 1.71874e-05 0)
(1.00001 1.69766e-05 0)
(0.999995 1.61755e-05 0)
(0.999979 1.48774e-05 0)
(0.999965 1.31957e-05 0)
(0.999952 1.12519e-05 0)
(0.999942 9.16017e-06 0)
(0.999933 7.01381e-06 0)
(0.999927 4.88379e-06 0)
(0.999923 2.82046e-06 0)
(0.999921 8.688e-07 0)
(0.999921 -9.13254e-07 0)
(0.999923 -2.44216e-06 0)
(0.999926 -3.61608e-06 0)
(0.99993 -4.35234e-06 0)
(0.999935 -4.63425e-06 0)
(0.999939 -4.53583e-06 0)
(0.999943 -4.20505e-06 0)
(0.999947 -3.80859e-06 0)
(0.99995 -3.46974e-06 0)
(0.999954 -3.24066e-06 0)
(0.999957 -3.11697e-06 0)
(0.999959 -3.06743e-06 0)
(0.999962 -3.05484e-06 0)
(0.999965 -3.04659e-06 0)
(0.999968 -3.01958e-06 0)
(0.999971 -2.96096e-06 0)
(0.999974 -2.86638e-06 0)
(0.999977 -2.73746e-06 0)
(0.999979 -2.57945e-06 0)
(0.999981 -2.3994e-06 0)
(0.999984 -2.20471e-06 0)
(0.999986 -2.00229e-06 0)
(0.999987 -1.7981e-06 0)
(0.999989 -1.59686e-06 0)
(0.999991 -1.40208e-06 0)
(0.999992 -1.21613e-06 0)
(0.999993 -1.04019e-06 0)
(0.999994 -8.75548e-07 0)
(0.999994 -7.17965e-07 0)
(0.999995 -5.86636e-07 0)
(0.999996 -3.81777e-07 0)
(1 1.03284e-11 0)
(1 2.79591e-11 0)
(1 4.51366e-11 0)
(1 6.25584e-11 0)
(1 8.02133e-11 0)
(1 9.8173e-11 0)
(1 1.1651e-10 0)
(1 1.35333e-10 0)
(1 1.54782e-10 0)
(1 1.75025e-10 0)
(1 1.96229e-10 0)
(1 2.18554e-10 0)
(1 2.42146e-10 0)
(1 2.67174e-10 0)
(1 2.93853e-10 0)
(1 3.22433e-10 0)
(1 3.53164e-10 0)
(1 3.86273e-10 0)
(1 4.21969e-10 0)
(1 4.6048e-10 0)
(1 5.02105e-10 0)
(1 5.47222e-10 0)
(1 5.96283e-10 0)
(1 6.49763e-10 0)
(1 7.08136e-10 0)
(1 7.71858e-10 0)
(1 8.41402e-10 0)
(1 9.17307e-10 0)
(1 1.00023e-09 0)
(1 1.09094e-09 0)
(1 1.19036e-09 0)
(1 1.29944e-09 0)
(1 1.41912e-09 0)
(1 1.55026e-09 0)
(1 1.69358e-09 0)
(1 1.84963e-09 0)
(1 2.01881e-09 0)
(1 2.20138e-09 0)
(1 2.39749e-09 0)
(1 2.60724e-09 0)
(1 2.83065e-09 0)
(1 3.06772e-09 0)
(1 3.31838e-09 0)
(1 3.5825e-09 0)
(1 3.85978e-09 0)
(1 4.14965e-09 0)
(1 4.45117e-09 0)
(1 4.76287e-09 0)
(1 5.08257e-09 0)
(1 5.40728e-09 0)
(1 5.733e-09 0)
(1 6.05452e-09 0)
(1 6.36518e-09 0)
(1 6.65658e-09 0)
(1 6.91815e-09 0)
(1 7.13672e-09 0)
(1 7.29589e-09 0)
(1 7.37532e-09 0)
(1 7.34999e-09 0)
(1 7.18941e-09 0)
(1 6.85632e-09 0)
(1 6.30504e-09 0)
(1 5.47984e-09 0)
(1 4.3133e-09 0)
(1 2.72324e-09 0)
(1 6.11856e-10 0)
(1 -2.13789e-09 0)
(1 -5.67067e-09 0)
(1 -1.01592e-08 0)
(1 -1.58111e-08 0)
(1 -2.28778e-08 0)
(1 -3.16657e-08 0)
(1 -4.25438e-08 0)
(1 -5.59496e-08 0)
(1 -7.23973e-08 0)
(1 -9.24944e-08 0)
(1 -1.16962e-07 0)
(1 -1.46648e-07 0)
(1 -1.82516e-07 0)
(1 -2.25632e-07 0)
(1 -2.7715e-07 0)
(1 -3.38333e-07 0)
(1 -4.10577e-07 0)
(1 -4.95419e-07 0)
(1 -5.94539e-07 0)
(1 -7.09692e-07 0)
(1 -8.42251e-07 0)
(1 -9.91996e-07 0)
(1 -1.15581e-06 0)
(1.00001 -1.32916e-06 0)
(1.00001 -1.51236e-06 0)
(1.00001 -1.71459e-06 0)
(1.00001 -1.94016e-06 0)
(1.00001 -2.17568e-06 0)
(1.00001 -2.39798e-06 0)
(1.00001 -2.58197e-06 0)
(1.00002 -2.70982e-06 0)
(1.00002 -2.7716e-06 0)
(1.00002 -2.76331e-06 0)
(1.00002 -2.68623e-06 0)
(1.00002 -2.5488e-06 0)
(1.00002 -2.37055e-06 0)
(1.00003 -2.18584e-06 0)
(1.00003 -2.04436e-06 0)
(1.00003 -2.00504e-06 0)
(1.00003 -2.1198e-06 0)
(1.00003 -2.40609e-06 0)
(1.00003 -2.814e-06 0)
(1.00004 -3.20697e-06 0)
(1.00004 -3.38486e-06 0)
(1.00004 -3.15739e-06 0)
(1.00004 -2.42853e-06 0)
(1.00004 -1.2303e-06 0)
(1.00004 3.11883e-07 0)
(1.00004 2.04569e-06 0)
(1.00004 3.84667e-06 0)
(1.00004 5.63721e-06 0)
(1.00003 7.36996e-06 0)
(1.00003 8.99905e-06 0)
(1.00002 1.0466e-05 0)
(1.00001 1.17007e-05 0)
(1 1.26252e-05 0)
(0.999993 1.3162e-05 0)
(0.999983 1.32529e-05 0)
(0.999973 1.28745e-05 0)
(0.999964 1.20363e-05 0)
(0.999956 1.07692e-05 0)
(0.999948 9.11891e-06 0)
(0.999943 7.1443e-06 0)
(0.999938 4.91553e-06 0)
(0.999935 2.50494e-06 0)
(0.999935 -2.04738e-08 0)
(0.999936 -2.6005e-06 0)
(0.999939 -5.18209e-06 0)
(0.999943 -7.71742e-06 0)
(0.99995 -1.01612e-05 0)
(0.999959 -1.24678e-05 0)
(0.999969 -1.45891e-05 0)
(0.99998 -1.64719e-05 0)
(0.999993 -1.80568e-05 0)
(1.00001 -1.92767e-05 0)
(1.00002 -2.00573e-05 0)
(1.00004 -2.03169e-05 0)
(1.00005 -2.00008e-05 0)
(1.00006 -1.90722e-05 0)
(1.00008 -1.75136e-05 0)
(1.00009 -1.53262e-05 0)
(1.0001 -1.25319e-05 0)
(1.00011 -9.17858e-06 0)
(1.00011 -5.34505e-06 0)
(1.00012 -1.1445e-06 0)
(1.00011 3.27505e-06 0)
(1.00011 7.73299e-06 0)
(1.0001 1.20245e-05 0)
(1.00009 1.59338e-05 0)
(1.00008 1.92526e-05 0)
(1.00006 2.1803e-05 0)
(1.00005 2.34602e-05 0)
(1.00003 2.41691e-05 0)
(1.00001 2.39485e-05 0)
(0.999994 2.28814e-05 0)
(0.999978 2.10973e-05 0)
(0.999964 1.87559e-05 0)
(0.999951 1.60308e-05 0)
(0.999941 1.30898e-05 0)
(0.999932 1.00752e-05 0)
(0.999926 7.09748e-06 0)
(0.999922 4.2368e-06 0)
(0.999921 1.55623e-06 0)
(0.999921 -8.73235e-07 0)
(0.999922 -2.94829e-06 0)
(0.999926 -4.53909e-06 0)
(0.99993 -5.53893e-06 0)
(0.999934 -5.92795e-06 0)
(0.999939 -5.80742e-06 0)
(0.999943 -5.37778e-06 0)
(0.999947 -4.86348e-06 0)
(0.999951 -4.42851e-06 0)
(0.999954 -4.13972e-06 0)
(0.999957 -3.98877e-06 0)
(0.999959 -3.93315e-06 0)
(0.999962 -3.92368e-06 0)
(0.999965 -3.91788e-06 0)
(0.999968 -3.88603e-06 0)
(0.999971 -3.81197e-06 0)
(0.999974 -3.69055e-06 0)
(0.999977 -3.52423e-06 0)
(0.999979 -3.32014e-06 0)
(0.999982 -3.08756e-06 0)
(0.999984 -2.83617e-06 0)
(0.999986 -2.57498e-06 0)
(0.999988 -2.31167e-06 0)
(0.999989 -2.05233e-06 0)
(0.999991 -1.80148e-06 0)
(0.999992 -1.56215e-06 0)
(0.999993 -1.33582e-06 0)
(0.999994 -1.12414e-06 0)
(0.999995 -9.21629e-07 0)
(0.999995 -7.52901e-07 0)
(0.999996 -4.89854e-07 0)
(1 1.26454e-11 0)
(1 3.41347e-11 0)
(1 5.50581e-11 0)
(1 7.63191e-11 0)
(1 9.7941e-11 0)
(1 1.2004e-10 0)
(1 1.42718e-10 0)
(1 1.66112e-10 0)
(1 1.904e-10 0)
(1 2.15793e-10 0)
(1 2.42517e-10 0)
(1 2.70791e-10 0)
(1 3.00836e-10 0)
(1 3.32907e-10 0)
(1 3.6732e-10 0)
(1 4.04441e-10 0)
(1 4.44644e-10 0)
(1 4.88281e-10 0)
(1 5.35688e-10 0)
(1 5.8722e-10 0)
(1 6.43294e-10 0)
(1 7.04404e-10 0)
(1 7.71092e-10 0)
(1 8.43902e-10 0)
(1 9.2333e-10 0)
(1 1.00982e-09 0)
(1 1.10379e-09 0)
(1 1.2057e-09 0)
(1 1.31608e-09 0)
(1 1.43561e-09 0)
(1 1.56505e-09 0)
(1 1.70524e-09 0)
(1 1.85697e-09 0)
(1 2.021e-09 0)
(1 2.19795e-09 0)
(1 2.38831e-09 0)
(1 2.59246e-09 0)
(1 2.81066e-09 0)
(1 3.04313e-09 0)
(1 3.29006e-09 0)
(1 3.55168e-09 0)
(1 3.82816e-09 0)
(1 4.1197e-09 0)
(1 4.42633e-09 0)
(1 4.74795e-09 0)
(1 5.0841e-09 0)
(1 5.43384e-09 0)
(1 5.79561e-09 0)
(1 6.16702e-09 0)
(1 6.54472e-09 0)
(1 6.9242e-09 0)
(1 7.29951e-09 0)
(1 7.66304e-09 0)
(1 8.00513e-09 0)
(1 8.31361e-09 0)
(1 8.57314e-09 0)
(1 8.76439e-09 0)
(1 8.8632e-09 0)
(1 8.83967e-09 0)
(1 8.65687e-09 0)
(1 8.26923e-09 0)
(1 7.62067e-09 0)
(1 6.64257e-09 0)
(1 5.25107e-09 0)
(1 3.34495e-09 0)
(1 8.02777e-10 0)
(1 -2.5208e-09 0)
(1 -6.80154e-09 0)
(1 -1.22487e-08 0)
(1 -1.91133e-08 0)
(1 -2.77009e-08 0)
(1 -3.83839e-08 0)
(1 -5.16122e-08 0)
(1 -6.79185e-08 0)
(1 -8.79278e-08 0)
(1 -1.12378e-07 0)
(1 -1.42148e-07 0)
(1 -1.78275e-07 0)
(1 -2.21937e-07 0)
(1 -2.74428e-07 0)
(1 -3.37142e-07 0)
(1 -4.11629e-07 0)
(1 -4.9966e-07 0)
(1 -6.03219e-07 0)
(1 -7.24294e-07 0)
(1 -8.64505e-07 0)
(1 -1.02484e-06 0)
(1 -1.20578e-06 0)
(1 -1.4078e-06 0)
(1.00001 -1.6311e-06 0)
(1.00001 -1.87389e-06 0)
(1.00001 -2.129e-06 0)
(1.00001 -2.37912e-06 0)
(1.00001 -2.60269e-06 0)
(1.00001 -2.78609e-06 0)
(1.00001 -2.92101e-06 0)
(1.00002 -3.00062e-06 0)
(1.00002 -3.01795e-06 0)
(1.00002 -2.96683e-06 0)
(1.00002 -2.8447e-06 0)
(1.00002 -2.6571e-06 0)
(1.00003 -2.42347e-06 0)
(1.00003 -2.18228e-06 0)
(1.00003 -1.99227e-06 0)
(1.00003 -1.92567e-06 0)
(1.00003 -2.0489e-06 0)
(1.00003 -2.3886e-06 0)
(1.00003 -2.88892e-06 0)
(1.00004 -3.38425e-06 0)
(1.00004 -3.62581e-06 0)
(1.00004 -3.37612e-06 0)
(1.00004 -2.51904e-06 0)
(1.00004 -1.10197e-06 0)
(1.00004 7.13375e-07 0)
(1.00004 2.73758e-06 0)
(1.00004 4.82134e-06 0)
(1.00004 6.87828e-06 0)
(1.00003 8.86082e-06 0)
(1.00003 1.0721e-05 0)
(1.00002 1.23931e-05 0)
(1.00001 1.37964e-05 0)
(1 1.48391e-05 0)
(0.999993 1.54289e-05 0)
(0.999983 1.54968e-05 0)
(0.999973 1.50172e-05 0)
(0.999964 1.40041e-05 0)
(0.999955 1.24949e-05 0)
(0.999948 1.0541e-05 0)
(0.999942 8.20697e-06 0)
(0.999937 5.56857e-06 0)
(0.999935 2.70511e-06 0)
(0.999934 -3.06487e-07 0)
(0.999935 -3.39269e-06 0)
(0.999938 -6.48328e-06 0)
(0.999943 -9.51062e-06 0)
(0.999949 -1.2408e-05 0)
(0.999958 -1.51084e-05 0)
(0.999968 -1.75436e-05 0)
(0.99998 -1.96452e-05 0)
(0.999993 -2.13465e-05 0)
(1.00001 -2.25841e-05 0)
(1.00002 -2.3298e-05 0)
(1.00004 -2.3428e-05 0)
(1.00005 -2.29285e-05 0)
(1.00007 -2.17601e-05 0)
(1.00008 -1.98938e-05 0)
(1.00009 -1.73198e-05 0)
(1.0001 -1.40551e-05 0)
(1.00011 -1.01504e-05 0)
(1.00011 -5.69432e-06 0)
(1.00012 -8.17257e-07 0)
(1.00012 4.3097e-06 0)
(1.00011 9.47674e-06 0)
(1.0001 1.44443e-05 0)
(1.00009 1.89591e-05 0)
(1.00008 2.27762e-05 0)
(1.00006 2.56868e-05 0)
(1.00005 2.75457e-05 0)
(1.00003 2.82915e-05 0)
(1.00001 2.79515e-05 0)
(0.999994 2.66285e-05 0)
(0.999978 2.44789e-05 0)
(0.999963 2.16922e-05 0)
(0.99995 1.84732e-05 0)
(0.99994 1.5017e-05 0)
(0.999932 1.14846e-05 0)
(0.999926 7.9954e-06 0)
(0.999922 4.63395e-06 0)
(0.99992 1.46761e-06 0)
(0.99992 -1.42071e-06 0)
(0.999922 -3.90085e-06 0)
(0.999925 -5.80282e-06 0)
(0.99993 -6.98313e-06 0)
(0.999934 -7.40936e-06 0)
(0.999939 -7.20623e-06 0)
(0.999944 -6.628e-06 0)
(0.999947 -5.95995e-06 0)
(0.999951 -5.4071e-06 0)
(0.999954 -5.04774e-06 0)
(0.999957 -4.86527e-06 0)
(0.999959 -4.80258e-06 0)
(0.999962 -4.79648e-06 0)
(0.999965 -4.79348e-06 0)
(0.999968 -4.75683e-06 0)
(0.999971 -4.66698e-06 0)
(0.999974 -4.51804e-06 0)
(0.999977 -4.31351e-06 0)
(0.999979 -4.06247e-06 0)
(0.999982 -3.77655e-06 0)
(0.999984 -3.46777e-06 0)
(0.999986 -3.14725e-06 0)
(0.999988 -2.8244e-06 0)
(0.999989 -2.5067e-06 0)
(0.999991 -2.19962e-06 0)
(0.999992 -1.90685e-06 0)
(0.999993 -1.63016e-06 0)
(0.999994 -1.37151e-06 0)
(0.999995 -1.1242e-06 0)
(0.999995 -9.18207e-07 0)
(0.999996 -5.97262e-07 0)
(1 1.49435e-11 0)
(1 4.02933e-11 0)
(1 6.49926e-11 0)
(1 9.01132e-11 0)
(1 1.15657e-10 0)
(1 1.41746e-10 0)
(1 1.68484e-10 0)
(1 1.96021e-10 0)
(1 2.24556e-10 0)
(1 2.54332e-10 0)
(1 2.85605e-10 0)
(1 3.18624e-10 0)
(1 3.5363e-10 0)
(1 3.90903e-10 0)
(1 4.30788e-10 0)
(1 4.73688e-10 0)
(1 5.20007e-10 0)
(1 5.70118e-10 0)
(1 6.24365e-10 0)
(1 6.83114e-10 0)
(1 7.46804e-10 0)
(1 8.15976e-10 0)
(1 8.91242e-10 0)
(1 9.73226e-10 0)
(1 1.06252e-09 0)
(1 1.15967e-09 0)
(1 1.26522e-09 0)
(1 1.37978e-09 0)
(1 1.50413e-09 0)
(1 1.63918e-09 0)
(1 1.78604e-09 0)
(1 1.94589e-09 0)
(1 2.11992e-09 0)
(1 2.30924e-09 0)
(1 2.5148e-09 0)
(1 2.73738e-09 0)
(1 2.97759e-09 0)
(1 3.23587e-09 0)
(1 3.5126e-09 0)
(1 3.80805e-09 0)
(1 4.12249e-09 0)
(1 4.45612e-09 0)
(1 4.80907e-09 0)
(1 5.18129e-09 0)
(1 5.5725e-09 0)
(1 5.98204e-09 0)
(1 6.40866e-09 0)
(1 6.85032e-09 0)
(1 7.30404e-09 0)
(1 7.76564e-09 -3.02004e-43)
(1 8.22954e-09 -3.2594e-43)
(1 8.68841e-09 0)
(1 9.13292e-09 0)
(1 9.55128e-09 0)
(1 9.9287e-09 0)
(1 1.02466e-08 0)
(1 1.04818e-08 0)
(1 1.06056e-08 0)
(1 1.05825e-08 0)
(1 1.03692e-08 0)
(1 9.91249e-09 0)
(1 9.14712e-09 0)
(1 7.9933e-09 0)
(1 6.35377e-09 0)
(1 4.11066e-09 0)
(1 1.12177e-09 0)
(1 -2.78384e-09 0)
(1 -7.81221e-09 0)
(1 -1.42094e-08 0)
(1 -2.22707e-08 0)
(1 -3.23557e-08 0)
(1 -4.49035e-08 0)
(1 -6.04446e-08 0)
(1 -7.96064e-08 0)
(1 -1.03123e-07 0)
(1 -1.31861e-07 0)
(1 -1.66854e-07 0)
(1 -2.09325e-07 0)
(1 -2.60669e-07 0)
(1 -3.22415e-07 0)
(1 -3.96212e-07 0)
(1 -4.83877e-07 0)
(1 -5.8747e-07 0)
(1 -7.09302e-07 0)
(1 -8.51801e-07 0)
(1 -1.01725e-06 0)
(1 -1.2074e-06 0)
(1 -1.42293e-06 0)
(1 -1.66281e-06 0)
(1.00001 -1.9241e-06 0)
(1.00001 -2.203e-06 0)
(1.00001 -2.49556e-06 0)
(1.00001 -2.7939e-06 0)
(1.00001 -3.08417e-06 0)
(1.00001 -3.3494e-06 0)
(1.00001 -3.56943e-06 0)
(1.00002 -3.72422e-06 0)
(1.00002 -3.79744e-06 0)
(1.00002 -3.77833e-06 0)
(1.00002 -3.66331e-06 0)
(1.00002 -3.45981e-06 0)
(1.00003 -3.19252e-06 0)
(1.00003 -2.90959e-06 0)
(1.00003 -2.68456e-06 0)
(1.00003 -2.6088e-06 0)
(1.00003 -2.76834e-06 0)
(1.00003 -3.20157e-06 0)
(1.00003 -3.84402e-06 0)
(1.00004 -4.49034e-06 0)
(1.00004 -4.82515e-06 0)
(1.00004 -4.54468e-06 0)
(1.00004 -3.50054e-06 0)
(1.00004 -1.75352e-06 0)
(1.00005 4.90499e-07 0)
(1.00004 2.99234e-06 0)
(1.00004 5.56703e-06 0)
(1.00004 8.11137e-06 0)
(1.00003 1.05706e-05 0)
(1.00003 1.2887e-05 0)
(1.00002 1.49786e-05 0)
(1.00001 1.67453e-05 0)
(1 1.80724e-05 0)
(0.999993 1.88426e-05 0)
(0.999983 1.89686e-05 0)
(0.999973 1.84181e-05 0)
(0.999963 1.72093e-05 0)
(0.999955 1.53892e-05 0)
(0.999947 1.30224e-05 0)
(0.999941 1.01913e-05 0)
(0.999936 6.99253e-06 0)
(0.999934 3.52671e-06 0)
(0.999933 -1.10498e-07 0)
(0.999934 -3.8308e-06 0)
(0.999937 -7.55417e-06 0)
(0.999942 -1.12071e-05 0)