/*--------------------------------*- C++ -*----------------------------------*\
| =========                 |                                                 |
| \\      /  F ield         | OpenFOAM: The Open Source CFD Toolbox           |
|  \\    /   O peration     | Version:  v2006                                 |
|   \\  /    A nd           | Website:  www.openfoam.com                      |
|    \\/     M anipulation  |                                                 |
\*---------------------------------------------------------------------------*/
FoamFile
{
    version     2.0;
    format      ascii;
    class       volScalarField;
    location    "5.5";
    object      r;
}
// * * * * * * * * * * * * * * * * * * * * * * * * * * * * * * * * * * * * * //

dimensions      [1 2 0 0 0 0 0];


internalField   nonuniform List<scalar> 
500
(
6.80576e-56
3.26121e-55
1.06534e-54
3.21474e-54
9.47594e-54
2.76761e-53
8.04072e-53
2.3263e-52
6.70417e-52
1.92471e-51
5.50464e-51
1.56832e-50
4.45115e-50
1.25846e-49
3.54426e-49
9.94316e-49
2.77862e-48
7.73453e-48
2.14452e-47
5.92256e-47
1.62917e-46
4.46369e-46
1.2181e-45
3.31076e-45
8.96234e-45
2.41633e-44
6.48818e-44
1.73507e-43
4.62093e-43
1.22562e-42
3.2373e-42
8.51548e-42
2.23062e-41
5.81866e-41
1.51146e-40
3.90965e-40
1.00702e-39
2.58282e-39
6.59623e-39
1.6774e-38
4.24724e-38
1.07078e-37
2.6879e-37
6.71791e-37
1.6717e-36
4.14168e-36
1.0216e-35
2.50882e-35
6.13381e-35
1.49299e-34
3.61778e-34
8.72731e-34
2.09586e-33
5.01052e-33
1.19243e-32
2.82493e-32
6.66191e-32
1.56387e-31
3.65429e-31
8.49966e-31
1.96784e-30
4.53482e-30
1.04017e-29
2.37475e-29
5.39627e-29
1.22046e-28
2.74728e-28
6.15493e-28
1.3724e-27
3.04554e-27
6.72622e-27
1.47841e-26
3.2339e-26
7.03984e-26
1.52509e-25
3.28791e-25
7.0539e-25
1.50597e-24
3.19947e-24
6.76404e-24
1.42297e-23
2.9788e-23
6.20491e-23
1.2861e-22
2.65248e-22
5.44332e-22
1.11149e-21
2.25822e-21
4.56505e-21
9.18202e-21
1.83755e-20
3.65882e-20
7.2484e-20
1.42869e-19
2.80169e-19
5.46621e-19
1.06104e-18
2.04906e-18
3.93686e-18
7.52507e-18
1.43098e-17
2.70719e-17
5.09517e-17
9.54006e-17
1.77702e-16
3.2929e-16
6.07025e-16
1.1132e-15
2.03085e-15
3.68566e-15
6.65399e-15
1.19503e-14
2.135e-14
3.7944e-14
6.70822e-14
1.17975e-13
2.06392e-13
3.59177e-13
6.21783e-13
1.07073e-12
1.83414e-12
3.12533e-12
5.29745e-12
8.93194e-12
1.49807e-11
2.49933e-11
4.14784e-11
6.8474e-11
1.12444e-10
1.83675e-10
2.9845e-10
4.8239e-10
7.75589e-10
1.24043e-09
1.97343e-09
3.12305e-09
4.9164e-09
7.69888e-09
1.19928e-08
1.85835e-08
2.86452e-08
4.39233e-08
6.69974e-08
1.01659e-07
1.53446e-07
2.30407e-07
3.44164e-07
5.11411e-07
7.55981e-07
1.11171e-06
1.62636e-06
2.36696e-06
3.427e-06
4.93621e-06
7.07347e-06
1.00841e-05
1.43023e-05
2.01814e-05
2.83317e-05
3.95711e-05
5.49885e-05
7.60256e-05
0.00010458
0.000143133
0.000194914
0.000264097
0.000356048
0.000477622
0.000637524
0.000846745
0.00111908
0.00147173
0.00192601
0.00250822
0.00325053
0.00419211
0.00538033
0.00687216
0.0087356
0.0110514
0.0139148
0.0174373
0.0217489
0.0269996
0.033362
0.0410328
0.050235
0.0612191
0.0742654
0.0896841
0.107817
0.129036
0.153745
0.182378
0.215395
0.253283
0.296549
0.345718
0.401327
0.463915
0.534023
0.612179
0.698893
0.794644
0.899877
1.01498
1.1403
1.2761
1.42256
1.5798
1.74783
1.92655
2.11577
2.3152
2.52442
2.74293
2.97009
3.20519
3.44741
3.69584
3.94952
4.20739
4.46838
4.73135
4.99514
5.25862
5.52062
5.78003
6.03576
6.28677
6.53209
6.77082
7.00215
7.22534
7.43977
7.6449
7.8403
8.02563
8.20065
8.36523
8.51931
8.66291
8.79613
8.91913
9.03214
9.13542
9.22925
9.31397
9.38991
9.45741
9.51679
9.56837
9.61245
9.64928
9.67909
9.70205
9.71829
9.72789
9.73087
9.72719
9.71677
9.69947
9.67509
9.64338
9.60408
9.55686
9.50137
9.43725
9.36413
9.28163
9.1894
9.0871
8.97441
8.8511
8.71695
8.57183
8.4157
8.24857
8.07058
7.88194
7.68299
7.47414
7.25594
7.02902
6.79411
6.55205
6.30373
6.05015
5.79235
5.53142
5.26849
5.00472
4.74126
4.47927
4.21986
3.96412
3.71309
3.46774
3.22896
2.99757
2.77429
2.55974
2.35446
2.15885
1.97325
1.79787
1.63284
1.47818
1.33384
1.19968
1.07549
0.960986
0.855848
0.759695
0.672111
0.592649
0.520842
0.45621
0.398263
0.346515
0.300481
0.25969
0.223685
0.192026
0.164296
0.140099
0.119065
0.100851
0.0851372
0.0716316
0.0600673
0.0502019
0.0418172
0.034717
0.0287266
0.0236911
0.0194737
0.0159541
0.0130276
0.0106029
0.0086012
0.00695454
0.00560476
0.00450224
0.00360484
0.00287696
0.00228863
0.00181474
0.00143435
0.00113006
0.000887472
0.000694741
0.000542137
0.000421714
0.000327003
0.000252765
0.000194767
0.000149608
0.000114561
8.74517e-05
6.65505e-05
5.04884e-05
3.81851e-05
2.87914e-05
2.16422e-05
1.62187e-05
1.21174e-05
9.02588e-06
6.70283e-06
4.96273e-06
3.66338e-06
2.69617e-06
1.97842e-06
1.44745e-06
1.05586e-06
7.6795e-07
5.5691e-07
4.02688e-07
2.90328e-07
2.08713e-07
1.49609e-07
1.06933e-07
7.62125e-08
5.41624e-08
3.83826e-08
2.71232e-08
1.91126e-08
1.34301e-08
9.41064e-09
6.5758e-09
4.58216e-09
3.18411e-09
2.20652e-09
1.52488e-09
1.05093e-09
7.22312e-10
4.95106e-10
3.3845e-10
2.30739e-10
1.56885e-10
1.06385e-10
7.19482e-11
4.85297e-11
3.26473e-11
2.19049e-11
1.46588e-11
9.78402e-12
6.51339e-12
4.32484e-12
2.86425e-12
1.89205e-12
1.24665e-12
8.19302e-13
5.37081e-13
3.51184e-13
2.29052e-13
1.49018e-13
9.67072e-14
6.26028e-14
4.04249e-14
2.60393e-14
1.67316e-14
1.07246e-14
6.85739e-15
4.374e-15
2.7832e-15
1.76668e-15
1.11873e-15
7.06724e-16
4.45385e-16
2.80018e-16
1.75633e-16
1.099e-16
6.86071e-17
4.27287e-17
2.65494e-17
1.64581e-17
1.01788e-17
6.28068e-18
3.86651e-18
2.37484e-18
1.45532e-18
8.898e-19
5.42802e-19
3.30377e-19
2.00632e-19
1.21567e-19
7.34956e-20
4.43343e-20
2.66843e-20
1.60255e-20
9.6031e-21
5.74194e-21
3.42576e-21
2.03943e-21
1.21149e-21
7.1811e-22
4.24744e-22
2.50687e-22
1.47642e-22
8.67681e-23
5.0885e-23
2.97784e-23
1.739e-23
1.01341e-23
5.89333e-24
3.42005e-24
1.98063e-24
1.14465e-24
6.60162e-25
3.79958e-25
2.18238e-25
1.25095e-25
7.15595e-26
4.08522e-26
2.32748e-26
1.32338e-26
7.50953e-27
4.25279e-27
2.40365e-27
1.35584e-27
7.63283e-28
4.28854e-28
2.40481e-28
1.34587e-28
7.5176e-29
4.19095e-29
2.33188e-29
1.29498e-29
7.17766e-30
3.97076e-30
2.19247e-30
1.20829e-30
6.64634e-31
3.64902e-31
1.99968e-31
1.09396e-31
5.98175e-32
3.30269e-32
1.99472e-32
)
;

boundaryField
{
    right
    {
        type            zeroGradient;
    }
    left
    {
        type            inletOutlet;
        inletValue      uniform 0;
        value           uniform 0;
    }
    top
    {
        type            zeroGradient;
    }
    bottom
    {
        type            zeroGradient;
    }
    empty
    {
        type            empty;
    }
}


// ************************************************************************* //
