/*--------------------------------*- C++ -*----------------------------------*\
| =========                 |                                                 |
| \\      /  F ield         | OpenFOAM: The Open Source CFD Toolbox           |
|  \\    /   O peration     | Version:  v2006                                 |
|   \\  /    A nd           | Website:  www.openfoam.com                      |
|    \\/     M anipulation  |                                                 |
\*---------------------------------------------------------------------------*/
FoamFile
{
    version     2.0;
    format      ascii;
    class       surfaceScalarField;
    location    "4";
    object      alphaPhi0.water;
}
// * * * * * * * * * * * * * * * * * * * * * * * * * * * * * * * * * * * * * //

dimensions      [0 3 -1 0 0 0 0];
oriented        oriented;


internalField   nonuniform List<scalar> 
299200
(
-0.00103684
0.00103684
-0.00170683
0.000669989
-0.00240223
0.000695392
-0.0031789
0.000776675
-0.00400211
0.000823208
-0.00483854
0.000836431
-0.00567541
0.000836872
-0.00651038
0.00083497
-0.00734398
0.000833593
-0.00817626
0.000832289
-0.00900752
0.000831253
-0.00983769
0.000830176
-0.0106666
0.000828882
-0.0114939
0.000827327
-0.0123194
0.000825496
-0.0131428
0.000823384
-0.0139638
0.000821
-0.0147821
0.00081835
-0.0155975
0.0008154
-0.0164096
0.00081211
-0.0172182
0.00080851
-0.0180228
0.000804642
-0.0188233
0.000800476
-0.0196192
0.000795955
-0.0204103
0.000791082
-0.0211962
0.000785887
-0.0219766
0.000780368
-0.0227511
0.000774507
-0.0235194
0.000768302
-0.0242811
0.000761772
-0.0250361
0.000754927
-0.0257838
0.000747766
-0.0265241
0.000740301
-0.0272567
0.000732537
-0.0279811
0.000724467
-0.0286972
0.00071609
-0.0294046
0.00070741
-0.0301031
0.000698426
-0.0307922
0.000689133
-0.0314717
0.000679544
-0.0321414
0.000669664
-0.0328009
0.00065949
-0.0334499
0.000649005
-0.0340881
0.000638167
-0.034715
0.000626923
-0.0353303
0.000615267
-0.0359336
0.000603333
-0.036525
0.000591398
-0.0371047
0.000579733
-0.0376731
0.000568346
-0.0382298
0.000556748
-0.0387737
0.000543897
-0.0393022
0.000528451
-0.0398114
0.000509278
-0.0402975
0.000486009
-0.0407568
0.00045932
-0.0411875
0.000430772
-0.0415898
0.000402222
-0.0419648
0.000375076
-0.0423146
0.00034973
-0.0426401
0.00032553
-0.0429416
0.000301534
-0.0432195
0.000277841
-0.0434762
0.000256673
-0.0437183
0.000242142
-0.0439563
0.000238006
-0.0442018
0.000245535
-0.0444648
0.000262965
-0.044748
0.000283207
-0.0450461
0.000298059
-0.0453482
0.000302176
-0.0456429
0.000294684
-0.0459207
0.00027777
-0.0461774
0.000256707
-0.0464125
0.000235065
-0.0466264
0.000213903
-0.0468194
0.000192987
-0.0469915
0.000172186
-0.0471434
0.000151807
-0.0472757
0.000132311
-0.0473898
0.00011417
-0.0474864
9.65936e-05
-0.0475671
8.06566e-05
-0.0476333
6.61871e-05
-0.0476864
5.30948e-05
-0.0477277
4.13456e-05
-0.0477586
3.0914e-05
-0.0477803
2.17206e-05
-0.0477942
1.38887e-05
-0.0478014
7.14044e-06
-0.047803
1.66407e-06
-0.0478002
-2.81619e-06
-0.047794
-6.19967e-06
-0.0477853
-8.68623e-06
-0.047775
-1.03171e-05
-0.0477639
-1.11364e-05
-0.0477527
-1.12015e-05
-0.0477421
-1.05736e-05
-0.0477328
-9.31419e-06
-0.0477253
-7.48178e-06
-0.0477202
-5.13266e-06
-0.0477179
-2.32198e-06
-0.0477186
7.66843e-07
-0.0477226
4.02424e-06
-0.0477304
7.7442e-06
-0.0477418
1.14336e-05
-0.0477571
1.53106e-05
-0.0477764
1.92419e-05
-0.0477995
2.31636e-05
-0.0478265
2.69901e-05
-0.0478572
3.06902e-05
-0.0478915
3.42444e-05
-0.0479291
3.7641e-05
-0.0479698
4.06819e-05
-0.0480133
4.35384e-05
-0.0480593
4.59717e-05
-0.0481074
4.81367e-05
-0.0481573
4.98952e-05
-0.0482086
5.12562e-05
-0.0482608
5.224e-05
-0.0483137
5.2847e-05
-0.0483667
5.30627e-05
-0.0484196
5.29082e-05
-0.0484721
5.24092e-05
-0.0485237
5.16067e-05
-0.0485742
5.05287e-05
-0.0486234
4.92221e-05
-0.0486712
4.77487e-05
-0.0487173
4.61262e-05
-0.0487617
4.44297e-05
-0.0488044
4.27067e-05
-0.0488454
4.09719e-05
-0.0488847
3.9263e-05
-0.0489222
3.75729e-05
-0.0489581
3.58934e-05
-0.0489922
3.41202e-05
-0.0490244
3.21389e-05
-0.0490541
2.97495e-05
-0.0490808
2.66832e-05
-0.0491035
2.2643e-05
-0.0491209
1.74388e-05
-0.0491321
1.11714e-05
-0.0491365
4.46822e-06
-0.0491354
-1.17961e-06
-0.0491297
-5.66845e-06
-0.0491204
-9.24917e-06
-0.0491077
-1.27126e-05
-0.0490915
-1.62379e-05
-0.0490716
-1.99183e-05
-0.0490478
-2.37857e-05
-0.04902
-2.77859e-05
-0.0489882
-3.18393e-05
-0.0489522
-3.5919e-05
-0.0489123
-3.99875e-05
-0.0488683
-4.3939e-05
-0.0488206
-4.77161e-05
-0.0487693
-5.13293e-05
-0.0487146
-5.46935e-05
-0.0486569
-5.76872e-05
-0.0485967
-6.02335e-05
-0.0485344
-6.22388e-05
-0.0484708
-6.36081e-05
-0.0484065
-6.43571e-05
-0.0483419
-6.45764e-05
-0.0482775
-6.4385e-05
-0.0482137
-6.383e-05
-0.0481508
-6.28835e-05
-0.0480893
-6.15108e-05
-0.0480296
-5.96475e-05
-0.0479723
-5.72851e-05
-0.047918
-5.43843e-05
-0.047867
-5.09414e-05
-0.0478201
-4.69566e-05
-0.0477776
-4.24269e-05
-0.0477403
-3.73356e-05
-0.0477085
-3.17742e-05
-0.0476828
-2.56948e-05
-0.0476637
-1.90803e-05
-0.0476521
-1.16051e-05
-0.0476496
-2.51157e-06
-0.047656
6.36538e-06
-0.0476734
1.7388e-05
-0.0477027
2.92967e-05
-0.0477439
4.11875e-05
-0.0477963
5.2413e-05
-0.047859
6.2685e-05
-0.047931
7.20372e-05
-0.0480116
8.06454e-05
-0.0481003
8.86757e-05
-0.0481966
9.62343e-05
-0.0482999
0.00010338
-0.0484101
0.000110145
-0.0485266
0.000116543
-0.0486492
0.000122577
-0.0487774
0.00012824
-0.048911
0.000133523
-0.0490494
0.000138413
-0.0491923
0.000142897
-0.0493392
0.000146954
-0.0494898
0.000150566
-0.0496435
0.000153728
-0.0498
0.000156464
-0.0499588
0.00015884
-0.0501198
0.000160939
-0.0502826
0.000162804
-0.0504469
0.000164347
-0.0506122
0.00016527
-0.0507772
0.000165064
-0.0509404
0.000163139
-0.0510995
0.000159096
-0.0512525
0.000153067
-0.0513986
0.000146016
-0.0515384
0.00013983
-0.0516754
0.000136955
-0.0518149
0.000139539
-0.0519635
0.000148639
-0.0521274
0.000163839
-0.0523107
0.000183376
-0.0525154
0.000204673
-0.0527405
0.000225054
-0.0529828
0.000242356
-0.0532381
0.000255281
-0.0535015
0.000263411
-0.0537685
0.000267012
-0.0540353
0.000266813
-0.0542984
0.000263103
-0.0545549
0.000256486
-0.0548027
0.000247762
-0.0550402
0.000237555
-0.0552666
0.000226329
-0.055481
0.000214428
-0.0556831
0.000202111
-0.0558727
0.000189572
-0.0560496
0.000176945
-0.0562139
0.000164314
-0.0563659
0.00015194
-0.0565057
0.000139818
-0.0566339
0.000128211
-0.0567502
0.000116287
-0.0568551
0.000104888
-0.056949
9.39493e-05
-0.0570325
8.34294e-05
-0.0571058
7.33307e-05
-0.0571695
6.36557e-05
-0.0572239
5.44149e-05
-0.0572695
4.56188e-05
-0.0573068
3.72743e-05
-0.0573362
2.93854e-05
-0.0573581
2.19552e-05
-0.0573731
1.49762e-05
-0.0573815
8.41053e-06
-0.0573835
2.02462e-06
-0.0573795
-3.99507e-06
-0.0573701
-9.47091e-06
-0.0573554
-1.46336e-05
-0.0573361
-1.92808e-05
-0.0573128
-2.33546e-05
-0.057286
-2.68307e-05
-0.0572563
-2.96996e-05
-0.0572243
-3.19564e-05
-0.0571907
-3.35979e-05
-0.0571561
-3.46227e-05
-0.057121
-3.50306e-05
-0.0570862
-3.48243e-05
-0.0570522
-3.4009e-05
-0.0570196
-3.25925e-05
-0.056989
-3.05862e-05
-0.056961
-2.80032e-05
-0.0569362
-2.48586e-05
-0.056915
-2.11687e-05
-0.056898
-1.69553e-05
-0.0568858
-1.2253e-05
-0.0568786
-7.14409e-06
-0.0568768
-1.87363e-06
-0.0568801
3.31059e-06
-0.0568882
8.12409e-06
-0.0569013
1.31354e-05
-0.05692
1.86875e-05
-0.0569452
2.51347e-05
-0.0569777
3.25632e-05
-0.0570186
4.09104e-05
-0.0570688
5.01573e-05
-0.0571289
6.01106e-05
-0.057199
7.0058e-05
-0.0572778
7.8867e-05
-0.0573638
8.59824e-05
-0.057457
9.31389e-05
-0.0575621
0.000105189
-0.0576892
0.000127012
-0.0578439
0.000154774
-0.0580142
0.000170271
-0.0581579
0.000143667
-0.0582156
5.77768e-05
-0.0581798
-3.58696e-05
-0.0581022
-7.756e-05
-0.0580272
-7.50577e-05
-0.0579683
-5.88698e-05
-0.0579252
-4.31216e-05
-0.0578945
-3.06178e-05
-0.0578744
-2.01108e-05
-0.0578645
-9.93346e-06
-0.0578645
-1.49693e-08
-0.0578748
1.03271e-05
-0.0578954
2.05399e-05
-0.0579262
3.0854e-05
-0.0579675
4.13377e-05
-0.0580195
5.19935e-05
-0.0580824
6.28138e-05
-0.0581561
7.37857e-05
-0.058241
8.48992e-05
-0.0583372
9.61422e-05
-0.0584447
0.000107507
-0.0585637
0.000118974
-0.0586942
0.000130532
-0.0588364
0.000142173
-0.0589902
0.00015388
-0.0591559
0.000165639
-0.0593333
0.000177436
-0.0595226
0.000189252
-0.0597236
0.000201066
-0.0599365
0.000212859
-0.0601611
0.000224612
-0.0603974
0.000236302
-0.0606453
0.000247901
-0.0609047
0.000259382
-0.0611754
0.000270719
-0.0614573
0.000281885
-0.0617502
0.000292851
-0.0620537
0.000303586
-0.0623678
0.000314058
-0.062692
0.000324239
-0.0630261
0.000334097
-0.0633697
0.000343601
-0.0637225
0.000352724
-0.0640839
0.000361436
-0.0644536
0.00036971
-0.0648311
0.000377515
-0.0652159
0.000384822
-0.0656075
0.000391602
-0.0660054
0.000397834
-0.0664089
0.000403493
-0.0668174
0.000408557
-0.0672304
0.000413003
-0.0676472
0.000416811
-0.0680672
0.00041996
-0.0684896
0.000422433
-0.0689138
0.000424213
-0.0693391
0.000425287
-0.0697648
0.000425642
-0.07019
0.000425268
-0.0706142
0.000424154
-0.0710365
0.000422294
-0.0714562
0.000419696
-0.0718725
0.000416347
-0.0722848
0.000412236
-0.0726921
0.00040736
-0.0730938
0.000401717
-0.0734892
0.000395313
-0.0738773
0.000388149
-0.0742575
0.000380229
-0.0746291
0.000371557
-0.0749912
0.000362137
-0.0753432
0.000351975
-0.0756843
0.00034108
-0.0760137
0.000329459
-0.0763309
0.000317122
-0.0766349
0.000304072
-0.0769253
0.000290312
-0.0772011
0.000275841
-0.0774617
0.000260653
-0.0777065
0.000244735
-0.0779345
0.000228064
-0.0781451
0.000210584
-0.0783373
0.000192171
-0.0785099
0.00017258
-0.0786613
0.000151411
-0.0787894
0.000128142
-0.0788916
0.000102134
-0.0789643
7.26874e-05
-0.0790042
3.98983e-05
-0.0790103
6.15693e-06
-0.0789903
-2.0046e-05
-0.0789481
-4.21167e-05
-0.078886
-6.21641e-05
-0.0788049
-8.10753e-05
-0.0787053
-9.95764e-05
-0.0785874
-0.000117909
-0.0784514
-0.000136063
-0.0782973
-0.000154033
-0.0781255
-0.000171794
-0.0779362
-0.000189327
-0.0777296
-0.000206617
-0.0775059
-0.00022365
-0.0772655
-0.000240419
-0.0770086
-0.000256912
-0.0767355
-0.00027312
-0.0764465
-0.000289031
-0.0761418
-0.000304637
-0.0758219
-0.000319933
-0.075487
-0.000334918
-0.0751374
-0.000349588
-0.0747734
-0.000363941
-0.0743955
-0.000377976
-0.0740038
-0.00039169
-0.0735987
-0.000405086
-0.0731805
-0.000418165
-0.0727496
-0.000430929
-0.0723062
-0.000443382
-0.0718507
-0.000455527
-0.0713833
-0.000467368
-0.0709044
-0.00047891
-0.0704143
-0.000490156
-0.0699131
-0.000501112
-0.0694014
-0.000511783
-0.0688792
-0.000522177
-0.0683469
-0.0005323
-0.0678047
-0.000542163
-0.0672529
-0.000551776
-0.0666918
-0.000561151
-0.0661215
-0.000570301
-0.0655422
-0.000579245
-0.0649542
-0.000588
-0.0643577
-0.000596586
-0.0637526
-0.000605023
-0.0631393
-0.000613324
-0.0625178
-0.000621501
-0.0618883
-0.000629557
-0.0612508
-0.000637495
-0.0606054
-0.000645313
-0.0599524
-0.000653012
-0.0592918
-0.000660592
-0.0586238
-0.000668057
-0.0579484
-0.00067541
-0.0572657
-0.000682654
-0.0565759
-0.000689792
-0.0558791
-0.000696828
-0.0551753
-0.000703765
-0.0544647
-0.00071061
-0.0537474
-0.000717368
-0.0530233
-0.000724047
-0.0522927
-0.000730652
-0.0515555
-0.000737186
-0.0508118
-0.000743652
-0.0500618
-0.000750053
-0.0493054
-0.000756393
-0.0485427
-0.000762675
-0.0477738
-0.000768904
-0.0469987
-0.000775084
-0.0462175
-0.00078122
-0.0454302
-0.000787315
-0.0446368
-0.000793374
-0.0438374
-0.0007994
-0.043032
-0.000805399
-0.0422206
-0.000811382
-0.0414032
-0.000817371
-0.0405799
-0.000823397
-0.0397504
-0.00082949
-0.0389147
-0.000835654
-0.0380729
-0.000841856
-0.0372248
-0.000848021
-0.0363708
-0.000854061
-0.0355109
-0.000859903
-0.0346453
-0.000865517
-0.0337744
-0.00087092
-0.0328983
-0.000876154
-0.032017
-0.000881259
-0.0311308
-0.000886253
-0.0302396
-0.00089113
-0.0293438
-0.000895873
-0.0284433
-0.000900471
-0.0275384
-0.000904929
-0.0266291
-0.000909258
-0.0257156
-0.000913465
-0.0247981
-0.000917548
-0.0238766
-0.000921499
-0.0229513
-0.000925305
-0.0220223
-0.000928953
-0.0210899
-0.000932438
-0.0201541
-0.000935775
-0.0192151
-0.000938983
-0.0182731
-0.000942065
-0.0173281
-0.000945003
-0.0163803
-0.000947788
-0.0154298
-0.000950485
-0.0144766
-0.000953147
-0.0135209
-0.000955717
-0.012563
-0.000957971
-0.0116033
-0.000959631
-0.0106419
-0.000961395
-0.0096817
-0.000960239
-0.00872162
-0.000960074
-0.00775972
-0.000961905
-0.00680422
-0.000955495
-0.00582856
-0.000975663
-0.00485583
-0.000972732
-0.00386533
-0.000990495
-0.00279364
-0.00107169
-0.00176509
-0.00102855
-0.000898913
-0.000866178
-0.000898913
-0.00117568
0.00221252
-0.00198209
0.0014764
-0.00284333
0.00155663
-0.00381523
0.00174858
-0.00483278
0.00184077
-0.00585713
0.00186078
-0.00687597
0.00185571
-0.00788971
0.00184871
-0.00890053
0.00184441
-0.00990904
0.00184079
-0.0109145
0.00183671
-0.0119158
0.00183148
-0.0129119
0.00182498
-0.0139018
0.00181726
-0.0148847
0.00180837
-0.0158597
0.00179835
-0.0168259
0.00178725
-0.0177826
0.00177505
-0.018729
0.00176176
-0.0196643
0.00174739
-0.0205877
0.00173198
-0.0214987
0.00171558
-0.0223964
0.00169822
-0.0232804
0.00167991
-0.02415
0.00166068
-0.0250046
0.00164057
-0.0258439
0.00161961
-0.0266672
0.00159784
-0.0274742
0.00157529
-0.0282644
0.00155201
-0.0290375
0.00152803
-0.0297931
0.00150337
-0.0305309
0.00147807
-0.0312505
0.00145216
-0.0319517
0.00142565
-0.0326342
0.00139856
-0.0332977
0.00137091
-0.033942
0.00134271
-0.0345668
0.00131397
-0.035172
0.00128471
-0.0357573
0.00125494
-0.0363224
0.00122465
-0.0368673
0.00119384
-0.0373916
0.00116249
-0.0378952
0.00113059
-0.0383782
0.00109817
-0.0388401
0.00106528
-0.0392807
0.00103199
-0.0396992
0.00099828
-0.0400949
0.000964003
-0.0404671
0.000928924
-0.040816
0.000892834
-0.0411433
0.000855695
-0.0414517
0.000817719
-0.041745
0.000779314
-0.0420266
0.000740939
-0.0422988
0.000702955
-0.0425621
0.000665533
-0.0428157
0.000628671
-0.0430583
0.000592282
-0.0432891
0.000556325
-0.0435085
0.000520965
-0.0437173
0.000486682
-0.0439149
0.000454235
-0.0440971
0.000424358
-0.0442564
0.000397341
-0.0443831
0.000372157
-0.0444668
0.00034672
-0.0445031
0.000319532
-0.0444949
0.000289836
-0.0444504
0.000257698
-0.0443818
0.000226004
-0.0443
0.00019597
-0.0442109
0.000167653
-0.0441165
0.000140682
-0.0440173
0.000114712
-0.0439141
8.97563e-05
-0.043808
6.6051e-05
-0.0437
4.38184e-05
-0.0435908
2.3166e-05
-0.0434821
5.40673e-06
-0.0433723
-1.31251e-05
-0.0432633
-2.83713e-05
-0.0431554
-4.17511e-05
-0.043049
-5.33237e-05
-0.0429446
-6.30633e-05
-0.0428427
-7.09483e-05
-0.042744
-7.69736e-05
-0.042649
-8.11175e-05
-0.0425584
-8.34681e-05
-0.0424727
-8.40325e-05
-0.0423926
-8.29292e-05
-0.0423186
-8.01785e-05
-0.0422514
-7.58834e-05
-0.0421916
-7.01429e-05
-0.0421396
-6.30674e-05
-0.0420961
-5.47786e-05
-0.0420612
-4.54027e-05
-0.0420355
-3.5063e-05
-0.0420191
-2.38836e-05
-0.0420122
-1.19955e-05
-0.042015
4.79197e-07
-0.0420278
1.35469e-05
-0.0420504
2.66268e-05
-0.0420828
4.00885e-05
-0.0421249
5.35609e-05
-0.0421765
6.69741e-05
-0.0422375
8.01942e-05
-0.0423074
9.30924e-05
-0.042386
0.000105581
-0.0424728
0.000117452
-0.0425673
0.000128738
-0.0426689
0.000139277
-0.0427772
0.000148976
-0.0428915
0.000157801
-0.0430111
0.000165644
-0.0431355
0.000172488
-0.0432638
0.000178255
-0.0433955
0.000182937
-0.0435298
0.000186496
-0.0436659
0.000188982
-0.0438032
0.00019037
-0.0439409
0.00019063
-0.0440784
0.000189885
-0.0442149
0.000188113
-0.0443498
0.000185409
-0.0444824
0.000181852
-0.0446122
0.000177478
-0.0447385
0.00017242
-0.0448608
0.000166763
-0.0449787
0.000160599
-0.0450918
0.000154041
-0.0451997
0.000147201
-0.0453023
0.000140184
-0.0453995
0.000133113
-0.0454915
0.000126114
-0.0455787
0.000119331
-0.0456618
0.000112881
-0.045742
0.000106811
-0.0458204
0.000101069
-0.0458985
9.55234e-05
-0.0459774
9.0125e-05
-0.046058
8.50511e-05
-0.0461396
8.0412e-05
-0.0462212
7.59192e-05
-0.046302
7.15925e-05
-0.0463823
6.7593e-05
-0.0464626
6.4004e-05
-0.0465434
6.0888e-05
-0.0466255
5.83063e-05
-0.0467096
5.63133e-05
-0.0467964
5.49541e-05
-0.0468866
5.42569e-05
-0.0469808
5.42477e-05
-0.0470797
5.49663e-05
-0.0471838
5.64354e-05
-0.0472938
5.86612e-05
-0.0474102
6.16722e-05
-0.0475334
6.55071e-05
-0.0476638
7.01871e-05
-0.0478018
7.57093e-05
-0.0479474
8.20081e-05
-0.0481007
8.89688e-05
-0.0482618
9.64724e-05
-0.0484306
0.000104453
-0.0486073
0.000112908
-0.0487921
0.000121854
-0.0489849
0.000131294
-0.0491857
0.000141209
-0.0493946
0.000151568
-0.0496113
0.000162337
-0.0498357
0.000173483
-0.0500677
0.000184968
-0.0503068
0.000196757
-0.050553
0.00020882
-0.0508059
0.000221144
-0.0510654
0.000233761
-0.0513312
0.000246753
-0.051603
0.000260221
-0.0518797
0.000274145
-0.052161
0.000287721
-0.0524449
0.00030125
-0.05273
0.000314352
-0.0530155
0.000326753
-0.0533015
0.000338377
-0.0535881
0.000349262
-0.0538755
0.000359463
-0.0541638
0.000369004
-0.054453
0.000377876
-0.0547429
0.000386062
-0.055033
0.000393545
-0.0553232
0.00040031
-0.055613
0.000406341
-0.055902
0.000411624
-0.05619
0.000416143
-0.0564763
0.000419887
-0.0567607
0.000422847
-0.0570429
0.000425016
-0.0573223
0.000426393
-0.0575987
0.000426982
-0.0578718
0.000426794
-0.0581412
0.000425846
-0.0584065
0.000424168
-0.0586674
0.000421827
-0.0589235
0.000418963
-0.0591751
0.000415851
-0.0594227
0.000412916
-0.0596683
0.000410683
-0.0599148
0.000409617
-0.0601656
0.000409897
-0.0604238
0.000411235
-0.0606906
0.000412867
-0.0609646
0.0004138
-0.0612408
0.00041318
-0.0615118
0.000410569
-0.0617692
0.000405991
-0.0620051
0.000399749
-0.0622138
0.000392117
-0.0623923
0.000383135
-0.0625398
0.000372588
-0.0626576
0.000360156
-0.062748
0.000345605
-0.0628135
0.000328902
-0.0628567
0.000310243
-0.0628799
0.00028998
-0.0628851
0.000268365
-0.0628743
0.000245713
-0.0628491
0.000222491
-0.0628105
0.00019898
-0.0627595
0.000175378
-0.062697
0.000151853
-0.0626234
0.000128536
-0.0625393
0.000105519
-0.0624452
8.28441e-05
-0.0623413
6.03671e-05
-0.0622282
3.88303e-05
-0.0621062
1.77993e-05
-0.0619766
-1.34715e-06
-0.0618379
-2.24233e-05
-0.0616907
-4.2332e-05
-0.0615353
-6.14489e-05
-0.061372
-7.98414e-05
-0.0612011
-9.75648e-05
-0.0610228
-0.000114614
-0.0608374
-0.000130988
-0.0606451
-0.000146682
-0.0604462
-0.000161687
-0.0602408
-0.000175998
-0.0600292
-0.000189606
-0.0598117
-0.000202509
-0.0595886
-0.000214706
-0.0593604
-0.000226193
-0.0591276
-0.00023682
-0.0588905
-0.000246606
-0.0586494
-0.000255706
-0.0584046
-0.000264089
-0.0581562
-0.000271728
-0.0579044
-0.000278607
-0.0576494
-0.000284714
-0.0573913
-0.000290037
-0.0571304
-0.00029456
-0.0568667
-0.000298267
-0.0566006
-0.000301133
-0.0563323
-0.000303137
-0.0560621
-0.000304257
-0.0557902
-0.000304478
-0.055517
-0.000303797
-0.0552427
-0.000302222
-0.0549678
-0.000299778
-0.0546925
-0.000296508
-0.054417
-0.000292468
-0.0541415
-0.000287734
-0.0538662
-0.000282394
-0.0535916
-0.000276509
-0.0533182
-0.000270089
-0.0530468
-0.000263302
-0.0527774
-0.000256214
-0.0525098
-0.000248923
-0.0522431
-0.000241598
-0.0519761
-0.000234412
-0.0517078
-0.000227448
-0.0514369
-0.000220719
-0.0511626
-0.000214131
-0.0508853
-0.000207321
-0.0506068
-0.000199636
-0.0503301
-0.000190655
-0.0500553
-0.000181659
-0.0497723
-0.000177867
-0.0494562
-0.000189055
-0.0490767
-0.00022471
-0.0486189
-0.000287537
-0.0481193
-0.000355943
-0.0476691
-0.000392454
-0.047329
-0.000375903
-0.0470882
-0.000318404
-0.0469168
-0.000246427
-0.0467966
-0.00017907
-0.0467149
-0.000124825
-0.0466625
-8.29902e-05
-0.0466335
-4.91032e-05
-0.0466244
-1.90887e-05
-0.0466345
1.00846e-05
-0.046662
3.78266e-05
-0.0467073
6.58319e-05
-0.0467701
9.36313e-05
-0.0468502
0.000121443
-0.0469476
0.00014938
-0.0470622
0.000177496
-0.0471942
0.0002058
-0.0473436
0.000234265
-0.0475104
0.000262895
-0.0476945
0.000291631
-0.047896
0.000320443
-0.0481147
0.000349284
-0.0483506
0.000378107
-0.0486036
0.000406855
-0.0488735
0.000435473
-0.0491599
0.000463906
-0.0494628
0.000492094
-0.0497817
0.000519974
-0.0501163
0.000547486
-0.0504662
0.000574562
-0.0508311
0.000601137
-0.0512103
0.000627146
-0.0516035
0.000652525
-0.05201
0.000677209
-0.0524292
0.000701131
-0.0528606
0.000724227
-0.0533034
0.000746434
-0.0537571
0.000767688
-0.0542208
0.000787929
-0.0546938
0.000807096
-0.0551753
0.000825131
-0.0556645
0.000841976
-0.0561607
0.000857575
-0.0566628
0.000871876
-0.0571701
0.000884827
-0.0576817
0.000896381
-0.0581966
0.000906494
-0.0587139
0.000915122
-0.0592326
0.000922229
-0.0597518
0.000927778
-0.0602706
0.00093174
-0.0607879
0.000934089
-0.0613027
0.0009348
-0.0618141
0.000933856
-0.0623212
0.000931242
-0.0628228
0.000926948
-0.0633181
0.000920967
-0.0638062
0.000913295
-0.0642859
0.000903934
-0.0647565
0.000892894
-0.0652171
0.000880202
-0.0656666
0.000865871
-0.0661043
0.000849919
-0.0665293
0.000832373
-0.0669408
0.000813263
-0.0673381
0.000792625
-0.0677205
0.000770498
-0.0680872
0.000746926
-0.0684376
0.000721961
-0.0687711
0.000695655
-0.0690872
0.000668068
-0.0693854
0.000639257
-0.0696652
0.000609281
-0.0699263
0.000578202
-0.0701683
0.000546083
-0.070391
0.000512993
-0.0705941
0.000479004
-0.0707777
0.000444192
-0.0709416
0.000408632
-0.0710859
0.000372403
-0.0712109
0.000335586
-0.071317
0.000298277
-0.071405
0.000260598
-0.0714763
0.000222718
-0.071533
0.000184855
-0.0715782
0.000147258
-0.0716157
0.000110213
-0.0716498
7.39516e-05
-0.0716819
3.83196e-05
-0.0717051
3.1126e-06
-0.0717122
-3.49712e-05
-0.0717017
-7.2695e-05
-0.0716722
-0.00011057
-0.0716234
-0.000148377
-0.0715554
-0.000185935
-0.0714682
-0.000223187
-0.0713622
-0.000260092
-0.0712374
-0.00029661
-0.071094
-0.000332705
-0.0709323
-0.000368343
-0.0707524
-0.0004035
-0.0705547
-0.000438154
-0.0703393
-0.000472281
-0.0701066
-0.000505858
-0.0698567
-0.000538863
-0.0695901
-0.000571281
-0.0693069
-0.000603098
-0.0690075
-0.000634309
-0.0686922
-0.000664905
-0.0683613
-0.000694881
-0.068015
-0.00072423
-0.0676538
-0.00075295
-0.0672778
-0.000781041
-0.0668875
-0.000808504
-0.0664831
-0.000835343
-0.0660649
-0.000861563
-0.0656332
-0.000887168
-0.0651884
-0.000912165
-0.0647308
-0.000936562
-0.0642606
-0.000960365
-0.0637781
-0.000983584
-0.0632837
-0.00100623
-0.0627775
-0.00102831
-0.06226
-0.00104985
-0.0617313
-0.00107084
-0.0611918
-0.00109132
-0.0606416
-0.0011113
-0.0600811
-0.00113079
-0.0595105
-0.00114982
-0.0589301
-0.00116841
-0.0583401
-0.00118658
-0.0577408
-0.00120435
-0.0571324
-0.00122174
-0.0565151
-0.00123875
-0.0558893
-0.00125539
-0.0552552
-0.00127166
-0.0546129
-0.00128757
-0.0539628
-0.00130313
-0.053305
-0.00131834
-0.0526399
-0.00133323
-0.0519675
-0.0013478
-0.0512881
-0.00136207
-0.0506018
-0.00137605
-0.0499089
-0.00138975
-0.0492095
-0.00140317
-0.0485038
-0.00141632
-0.0477919
-0.00142921
-0.0470741
-0.00144184
-0.0463506
-0.00145423
-0.0456214
-0.00146638
-0.0448867
-0.0014783
-0.0441468
-0.00148998
-0.0434017
-0.00150145
-0.0426517
-0.0015127
-0.0418969
-0.00152373
-0.0411374
-0.00153455
-0.0403735
-0.00154517
-0.0396052
-0.0015556
-0.0388327
-0.00156583
-0.0380562
-0.00157589
-0.0372759
-0.00158576
-0.0364918
-0.00159548
-0.0357041
-0.00160505
-0.034913
-0.0016145
-0.0341186
-0.00162385
-0.0333212
-0.00163308
-0.0325209
-0.00164217
-0.0317179
-0.00165104
-0.0309124
-0.00165957
-0.0301046
-0.00166766
-0.0292949
-0.0016752
-0.0284837
-0.00168218
-0.0276712
-0.00168862
-0.0268578
-0.00169463
-0.0260438
-0.00170026
-0.0252294
-0.00170554
-0.0244148
-0.00171047
-0.0236003
-0.00171502
-0.022786
-0.0017192
-0.0219722
-0.00172303
-0.0211592
-0.00172653
-0.020347
-0.0017297
-0.019536
-0.00173254
-0.0187262
-0.00173503
-0.017918
-0.00173715
-0.0171116
-0.00173891
-0.016307
-0.00174033
-0.0155046
-0.00174143
-0.0147044
-0.00174224
-0.0139066
-0.00174277
-0.0131114
-0.00174305
-0.0123188
-0.00174309
-0.0115289
-0.00174302
-0.0107419
-0.00174272
-0.00995785
-0.001742
-0.0091765
-0.00174098
-0.00839765
-0.00174025
-0.00762084
-0.00173705
-0.00684375
-0.00173716
-0.00606805
-0.0017376
-0.00529011
-0.00173344
-0.00451668
-0.00174909
-0.00375503
-0.00173438
-0.00299756
-0.00174797
-0.00232281
-0.00174644
-0.00162493
-0.00172643
-0.000750864
-0.00174024
-0.00164978
-0.00112423
0.00333675
-0.00189114
0.00224331
-0.00270276
0.00236825
-0.00362283
0.00266864
-0.00459221
0.00281014
-0.00556937
0.00283794
-0.00654094
0.00282728
-0.00750686
0.00281464
-0.00846972
0.00280727
-0.0094303
0.00280137
-0.010388
0.00279437
-0.0113416
0.00278517
-0.0122903
0.00277368
-0.0132331
0.00276007
-0.0141692
0.00274445
-0.0150979
0.00272697
-0.0160182
0.00270762
-0.0169296
0.00268645
-0.0178314
0.00266354
-0.018723
0.00263895
-0.0196037
0.00261275
-0.0204732
0.00258502
-0.0213307
0.00255581
-0.022176
0.00252519
-0.0230086
0.00249326
-0.0238281
0.00246007
-0.0246342
0.00242572
-0.0254266
0.00239025
-0.0262051
0.00235373
-0.0269693
0.00231623
-0.0277191
0.0022778
-0.0284542
0.00223852
-0.0291745
0.00219841
-0.0298799
0.00215754
-0.0305702
0.00211593
-0.0312453
0.00207364
-0.031905
0.00203068
-0.0325494
0.00198708
-0.0331783
0.00194287
-0.0337917
0.00189806
-0.0343894
0.00185267
-0.0349715
0.00180671
-0.0355378
0.00176018
-0.0360884
0.00171309
-0.0366233
0.00166545
-0.0371424
0.00161729
-0.0376457
0.0015686
-0.0381331
0.00151934
-0.0386042
0.00146943
-0.0390589
0.00141872
-0.0394971
0.00136709
-0.0399188
0.00131453
-0.0403242
0.00126115
-0.0407137
0.00120722
-0.0410875
0.00115304
-0.0414454
0.00109887
-0.0417873
0.00104481
-0.0421126
0.000990897
-0.0424211
0.000937149
-0.0427125
0.000883718
-0.0429871
0.000830924
-0.0432454
0.000779208
-0.0434877
0.000728985
-0.0437139
0.000680474
-0.0439231
0.000633575
-0.0441137
0.000587924
-0.0442845
0.000542925
-0.0444354
0.000497628
-0.0445673
0.000451481
-0.0446824
0.000404853
-0.0447828
0.000358118
-0.0448692
0.000312383
-0.0449414
0.000268229
-0.0449995
0.000225688
-0.0450433
0.00018452
-0.0450733
0.00014474
-0.0450902
0.000106651
-0.0450949
7.07005e-05
-0.045088
3.69851e-05
-0.0450703
5.43274e-06
-0.0450439
-2.10284e-05
-0.0450095
-4.74587e-05
-0.0449673
-7.05543e-05
-0.0449186
-9.05112e-05
-0.0448644
-0.000107489
-0.0448059
-0.000121539
-0.0447442
-0.00013268
-0.0446803
-0.000140935
-0.044615
-0.000146342
-0.0445495
-0.000148982
-0.0444846
-0.000148935
-0.0444212
-0.000146316
-0.0443602
-0.000141229
-0.0443022
-0.000133814
-0.0442482
-0.000124228
-0.0441986
-0.000112638
-0.0441541
-9.92248e-05
-0.0441154
-8.41685e-05
-0.0440828
-6.7662e-05
-0.0440568
-4.99042e-05
-0.0440377
-3.10927e-05
-0.0440258
-1.14226e-05
-0.0440211
8.87438e-06
-0.0440241
2.96202e-05
-0.0440346
5.06515e-05
-0.0440528
7.17457e-05
-0.0440786
9.27213e-05
-0.0441118
0.000113398
-0.0441523
0.000133604
-0.0441999
0.000153151
-0.0442543
0.000171942
-0.0443153
0.000189676
-0.0443823
0.000206267
-0.044455
0.000221727
-0.044533
0.00023576
-0.0446157
0.000248405
-0.0447027
0.000259395
-0.0447932
0.000268833
-0.0448869
0.000276616
-0.0449831
0.000282684
-0.0450812
0.000287061
-0.0451805
0.000289728
-0.0452806
0.000290664
-0.0453807
0.000290012
-0.0454803
0.000287727
-0.0455789
0.000283958
-0.0456757
0.000278739
-0.0457705
0.000272226
-0.0458626
0.000264496
-0.0459515
0.00025568
-0.0460368
0.000245938
-0.0461182
0.000235372
-0.0461951
0.000224153
-0.0462673
0.000212417
-0.0463346
0.000200324
-0.0463965
0.000188024
-0.0464528
0.000175707
-0.0465036
0.000163594
-0.0465486
0.0001519
-0.0465884
0.000140802
-0.0466233
0.000130482
-0.0466543
0.000121132
-0.0466821
0.000112783
-0.0467069
0.000105258
-0.0467295
9.84592e-05
-0.0467505
9.25988e-05
-0.0467708
8.7887e-05
-0.0467912
8.44086e-05
-0.0468125
8.22198e-05
-0.0468356
8.13642e-05
-0.0468611
8.18644e-05
-0.0468899
8.37317e-05
-0.0469226
8.6976e-05
-0.04696
9.15989e-05
-0.0470026
9.75783e-05
-0.047051
0.000104888
-0.0471059
0.000113514
-0.0471676
0.000123421
-0.0472367
0.000134552
-0.0473133
0.000146844
-0.0473978
0.000160197
-0.0474903
0.000174481
-0.0475909
0.00018958
-0.0476998
0.000205417
-0.0478173
0.000221941
-0.0479435
0.0002391
-0.0480785
0.000256814
-0.0482222
0.000274988
-0.0483745
0.00029352
-0.0485352
0.000312315
-0.0487042
0.000331279
-0.048881
0.000350318
-0.0490654
0.000369342
-0.0492569
0.000388265
-0.0494551
0.000407009
-0.0496594
0.00042551
-0.0498694
0.000443719
-0.0500842
0.000461582
-0.050303
0.000479029
-0.0505248
0.000495946
-0.0507493
0.000512136
-0.0509758
0.000527785
-0.0512044
0.000542969
-0.0514353
0.000557692
-0.0516689
0.000571882
-0.051905
0.000585407
-0.0521437
0.000598127
-0.0523846
0.000609933
-0.0526275
0.00062076
-0.052872
0.000630569
-0.0531178
0.000639331
-0.0533645
0.00064702
-0.0536117
0.000653613
-0.0538592
0.000659091
-0.0541065
0.000663437
-0.0543533
0.000666641
-0.0545991
0.000668696
-0.0548437
0.000669603
-0.0550867
0.000669366
-0.0553277
0.000667995
-0.0555664
0.000665505
-0.0558025
0.000661923
-0.0560356
0.000657318
-0.0562656
0.000651841
-0.0564925
0.000645782
-0.0567162
0.000639595
-0.0569371
0.000633822
-0.0571553
0.000628899
-0.0573706
0.000624854
-0.0575817
0.000621057
-0.0577867
0.000616184
-0.0579823
0.000608533
-0.0581651
0.000596604
-0.0583316
0.000579675
-0.0584791
0.000558088
-0.0586062
0.000533084
-0.0587128
0.000506285
-0.0587997
0.000479087
-0.0588689
0.000452271
-0.0589223
0.000425954
-0.0589619
0.000399815
-0.0589897
0.000373403
-0.0590072
0.000346369
-0.0590155
0.000318569
-0.0590155
0.000290018
-0.059008
0.000260817
-0.0589934
0.000231161
-0.0589722
0.000201282
-0.0589446
0.000171351
-0.0589107
0.00014151
-0.0588708
0.000111882
-0.0588248
8.25612e-05
-0.0587729
5.36391e-05
-0.0587153
2.52319e-05
-0.0586512
-3.69643e-06
-0.0585816
-3.07982e-05
-0.0585063
-5.75213e-05
-0.0584243
-8.33789e-05
-0.0583373
-0.000109338
-0.0582451
-0.000134543
-0.0581476
-0.000158951
-0.0580448
-0.000182622
-0.0579369
-0.00020555
-0.0578237
-0.000227724
-0.0577056
-0.000249141
-0.0575825
-0.000269773
-0.0574546
-0.000289596
-0.057322
-0.000308593
-0.0571849
-0.000326748
-0.0570433
-0.00034404
-0.0568976
-0.00036045
-0.0567478
-0.00037595
-0.0565942
-0.00039046
-0.0564368
-0.000403971
-0.056276
-0.000416527
-0.056112
-0.000428119
-0.055945
-0.000438724
-0.0557753
-0.000448319
-0.0556031
-0.000456886
-0.0554287
-0.000464404
-0.0552524
-0.000470852
-0.0550745
-0.000476206
-0.0548952
-0.000480437
-0.0547148
-0.000483518