/*--------------------------------*- C++ -*----------------------------------*\
| =========                 |                                                 |
| \\      /  F ield         | OpenFOAM: The Open Source CFD Toolbox           |
|  \\    /   O peration     | Version:  v2006                                 |
|   \\  /    A nd           | Website:  www.openfoam.com                      |
|    \\/     M anipulation  |                                                 |
\*---------------------------------------------------------------------------*/
FoamFile
{
    version     2.0;
    format      ascii;
    class       volScalarField;
    location    "4";
    object      p_rgh;
}
// * * * * * * * * * * * * * * * * * * * * * * * * * * * * * * * * * * * * * //

dimensions      [1 -1 -2 0 0 0 0];


internalField   nonuniform List<scalar> 
150000
(
-3496.4
-3496.69
-3496.95
-3497.18
-3497.48
-3497.89
-3498.41
-3499.05
-3499.8
-3500.67
-3501.65
-3502.74
-3503.93
-3505.23
-3506.62
-3508.11
-3509.68
-3511.33
-3513.05
-3514.83
-3516.66
-3518.53
-3520.43
-3522.35
-3524.28
-3526.2
-3528.1
-3529.96
-3531.78
-3533.54
-3535.23
-3536.82
-3538.31
-3539.68
-3540.91
-3541.99
-3542.9
-3543.63
-3544.16
-3544.47
-3544.55
-3544.38
-3543.94
-3543.22
-3542.2
-3540.87
-3539.2
-3537.19
-3534.81
-3532.04
-3528.87
-3525.28
-3521.25
-3516.77
-3511.82
-3506.39
-3500.47
-3494.03
-3487.06
-3479.54
-3471.45
-3462.76
-3453.48
-3443.6
-3433.08
-3421.92
-3410.08
-3397.55
-3384.29
-3370.3
-3355.58
-3340.13
-3323.96
-3307.04
-3289.36
-3270.91
-3251.67
-3231.63
-3210.79
-3189.13
-3166.64
-3143.34
-3119.18
-3094.17
-3068.31
-3041.58
-3013.99
-2985.54
-2956.2
-2925.99
-2894.9
-2862.92
-2830.04
-2796.26
-2761.59
-2726.01
-2689.53
-2652.14
-2613.85
-2574.64
-2534.52
-2493.49
-2451.52
-2408.67
-2364.9
-2320.2
-2274.6
-2228.08
-2180.66
-2132.34
-2083.12
-2033
-1982
-1930.12
-1877.37
-1823.77
-1769.31
-1714.02
-1657.92
-1601.01
-1543.31
-1484.84
-1425.63
-1365.69
-1305.06
-1243.74
-1181.77
-1119.18
-1056
-992.259
-927.985
-863.214
-797.98
-732.321
-666.271
-599.869
-533.154
-466.164
-398.94
-331.522
-263.953
-196.275
-128.533
-60.7719
6.97306
74.6624
142.249
209.69
276.941
343.96
410.705
477.134
543.205
608.878
674.112
738.867
803.104
866.785
929.873
992.329
1054.12
1115.21
1175.56
1235.15
1293.94
1351.9
1409
1465.21
1520.51
1574.87
1628.26
1680.67
1732.07
1782.44
1831.76
1880.02
1927.19
1973.26
2018.21
2062
2104.6
2146.15
2186.57
2225.83
2263.92
2300.85
2336.6
2371.17
2404.57
2436.79
2467.83
2497.71
2526.41
2553.94
2580.32
2605.55
2629.63
2652.57
2674.39
2695.09
2714.68
2733.17
2750.59
2766.93
2782.22
2796.47
2809.69
2821.91
2833.12
2843.35
2852.6
2860.89
2868.22
2874.62
2880.12
2884.74
2888.51
2891.47
2893.64
2895.04
2895.67
2895.55
2894.68
2893.08
2890.76
2887.74
2884.04
2879.66
2874.63
2868.97
2862.69
2855.82
2848.36
2840.34
2831.79
2822.72
2813.15
2803.09
2792.55
2781.55
2770.1
2758.22
2745.94
2733.27
2720.22
2706.81
2693.06
2678.98
2664.59
2649.9
2634.93
2619.69
2604.17
2588.45
2572.51
2556.38
2540.06
2523.57
2506.93
2490.15
2473.25
2456.25
2439.16
2421.99
2404.78
2387.52
2370.25
2352.97
2335.7
2318.46
2301.26
2284.13
2267.08
2250.12
2233.27
2216.56
2200
2183.6
2167.39
2151.38
2135.59
2120.03
2104.73
2089.69
2074.94
2060.47
2046.32
2032.47
2018.98
2005.88
1993.18
1980.86
1968.84
1957.18
1946.1
1935.53
1925.42
1915.75
1906.57
1897.87
1889.69
1882.01
1874.78
1868.12
1862
1856.41
1851.37
1846.87
1842.92
1839.52
1836.67
1834.38
1832.64
1831.45
1830.81
1830.73
1831.18
1832.18
1833.72
1835.79
1838.38
1841.49
1845.11
1849.24
1853.85
1858.95
1864.53
1870.57
1877.06
1883.99
1891.36
1899.14
1907.33
1915.92
1924.88
1934.22
1943.91
1953.95
1964.32
1975.01
1986.01
1997.3
2008.88
2020.73
2032.84
2045.21
2057.81
2070.65
2083.71
2096.98
2110.46
2124.14
2138.01
2152.07
2166.3
2180.71
2195.3
2210.05
2224.96
2240.04
2255.29
2270.69
2286.25
2301.98
2317.87
2333.93
2350.15
2366.54
2383.11
2399.85
2416.78
2433.89
2451.19
2468.7
2486.4
2504.32
2522.46
2540.81
2559.39
2578.18
2597.18
2616.4
2635.94
2655.76
2675.85
2696.22
2716.86
2737.78
2758.98
2780.48
2802.27
2824.36
2846.75
2869.45
2892.45
2915.77
2939.39
2963.33
2987.58
3012.14
3037.02
3062.2
3087.69
3113.49
3139.59
3166
3192.69
3219.67
3246.94
3274.49
3302.31
3330.39
3358.72
3387.31
3416.13
3445.18
3474.44
3503.92
3533.59
3563.44
3593.46
3623.64
3653.97
3684.43
3715.01
3745.7
3776.47
3807.32
3838.22
3869.17
3900.15
3931.15
3962.14
3993.11
4024.04
4054.93
4085.74
4116.47
4147.1
4177.61
4207.99
4238.21
4268.27
4298.15
4327.82
4357.28
4386.51
4415.49
4444.21
4472.65
4500.79
4528.63
4556.14
4583.31
4610.13
4636.58
4662.65
4688.33
4713.6
4738.44
4762.85
4786.82
4810.32
4833.35
4855.9
4877.95
4899.5
4920.52
4941.03
4960.99
4980.4
4999.26
5017.55
5035.27
5052.4
5068.94
5084.88
5100.21
5114.93
5129.02
5142.49
5155.32
5167.51
5179.05
5189.94
5200.17
5209.74
5218.65
5226.88
5234.44
5241.33
5247.53
5253.06
5257.88
5262.04
5265.56
5268.17
5270.53
5271.55
5272.35
-3496.43
-3496.77
-3497
-3497.2
-3497.5
-3497.9
-3498.43
-3499.07
-3499.82
-3500.69
-3501.67
-3502.76
-3503.96
-3505.26
-3506.66
-3508.15
-3509.73
-3511.39
-3513.11
-3514.9
-3516.74
-3518.62
-3520.53
-3522.46
-3524.4
-3526.33
-3528.24
-3530.12
-3531.95
-3533.72
-3535.42
-3537.03
-3538.53
-3539.91
-3541.15
-3542.24
-3543.17
-3543.91
-3544.45
-3544.77
-3544.86
-3544.7
-3544.28
-3543.57
-3542.56
-3541.24
-3539.59
-3537.58
-3535.21
-3532.46
-3529.31
-3525.75
-3521.75
-3517.31
-3512.39
-3506.99
-3501.09
-3494.66
-3487.69
-3480.16
-3472.07
-3463.38
-3454.09
-3444.16
-3433.59
-3422.36
-3410.48
-3397.92
-3384.69
-3370.77
-3356.14
-3340.77
-3324.64
-3307.75
-3290.09
-3271.65
-3252.41
-3232.38
-3211.53
-3189.87
-3167.36
-3144.05
-3119.87
-3094.84
-3068.96
-3042.23
-3014.64
-2986.17
-2956.84
-2926.62
-2895.52
-2863.53
-2830.66
-2796.89
-2762.22
-2726.64
-2690.17
-2652.78
-2614.49
-2575.29
-2535.18
-2494.18
-2452.2
-2409.31
-2365.53
-2320.83
-2275.22
-2228.7
-2181.28
-2132.95
-2083.73
-2033.61
-1982.6
-1930.71
-1877.96
-1824.35
-1769.88
-1714.59
-1658.47
-1601.55
-1543.84
-1485.36
-1426.14
-1366.18
-1305.53
-1244.19
-1182.21
-1119.6
-1056.4
-992.631
-928.333
-863.538
-798.28
-732.594
-666.519
-600.091
-533.35
-466.335
-399.087
-331.645
-264.05
-196.343
-128.563
-60.7531
7.03734
74.7618
142.381
209.853
277.134
344.183
410.958
477.416
543.516
609.217
674.479
739.261
803.525
867.233
930.345
992.827
1054.64
1115.76
1176.13
1235.74
1294.55
1352.53
1409.65
1465.88
1521.2
1575.57
1628.99
1681.41
1732.82
1783.21
1832.54
1880.81
1927.99
1974.08
2019.05
2062.91
2105.67
2147.22
2187.61
2226.85
2264.93
2301.84
2337.58
2372.14
2405.53
2437.74
2468.77
2498.63
2527.32
2554.85
2581.22
2606.43
2630.5
2653.43
2675.23
2695.91
2715.49
2733.97
2751.37
2767.7
2782.97
2797.2
2810.41
2822.6
2833.79
2844
2853.24
2861.53
2868.89
2875.32
2880.86
2885.51
2889.31
2892.27
2894.42
2895.77
2896.34
2896.15
2895.22
2893.57
2891.2
2888.13
2884.39
2879.98
2874.93
2869.24
2862.94
2856.05
2848.58
2840.54
2831.96
2822.88
2813.29
2803.22
2792.69
2781.68
2770.23
2758.35
2746.07
2733.39
2720.33
2706.92
2693.16
2679.07
2664.67
2649.97
2635
2619.75
2604.28
2588.56
2572.62
2556.48
2540.15
2523.66
2507.01
2490.22
2473.31
2456.3
2439.2
2422.02
2404.8
2387.53
2370.24
2352.95
2335.67
2318.42
2301.22
2284.07
2267.01
2250.06
2233.21
2216.5
2199.94
2183.54
2167.33
2151.32
2135.53
2119.97
2104.66
2089.6
2074.83
2060.36
2046.23
2032.45
2018.98
2005.76
1992.76
1979.99
1967.83
1956.43
1945.52
1935
1924.91
1915.27
1906.1
1897.42
1889.22
1881.55
1874.43
1867.79
1861.67
1856.1
1851.06
1846.56
1842.62
1839.22
1836.38
1834.09
1832.36
1831.17
1830.54
1830.46
1830.92
1831.93
1833.47
1835.55
1838.14
1841.26
1844.89
1849.02
1853.64
1858.75
1864.33
1870.37
1876.87
1883.81
1891.18
1898.97
1907.16
1915.75
1924.72
1934.06
1943.75
1953.79
1964.16
1974.85
1985.85
1997.14
2008.72
2020.57
2032.68
2045.04
2057.64
2070.48
2083.53
2096.8
2110.27
2123.95
2137.81
2151.86
2166.09
2180.49
2195.06
2209.8
2224.71
2239.78
2255.01
2270.4
2285.95
2301.67
2317.54
2333.58
2349.79
2366.17
2382.72
2399.45
2416.36
2433.45
2450.74
2468.22
2485.9
2503.79
2521.89
2540.22
2558.79
2577.63
2596.77
2616.17
2635.78
2655.62
2675.71
2696.07
2716.7
2737.62
2758.82
2780.31
2802.09
2824.18
2846.57
2869.26
2892.26
2915.57
2939.19
2963.12
2987.37
3011.92
3036.8
3061.98
3087.47
3113.26
3139.36
3165.76
3192.46
3219.44
3246.71
3274.26
3302.08
3330.16
3358.5
3387.08
3415.91
3444.96
3474.23
3503.71
3533.38
3563.24
3593.26
3623.45
3653.79
3684.25
3714.84
3745.53
3776.31
3807.16
3838.08
3869.04
3900.02
3931.02
3962.02
3993
4023.94
4054.83
4085.66
4116.39
4147.03
4177.55
4207.93
4238.17
4268.24
4298.12
4327.8
4357.27
4386.51
4415.49
4444.22
4472.67
4500.82
4528.66
4556.18
4583.36
4610.18
4636.64
4662.72
4688.4
4713.67
4738.52
4762.94
4786.9
4810.41
4833.45
4856
4878.05
4899.6
4920.64
4941.14
4961.11
4980.53
4999.39
5017.68
5035.4
5052.54
5069.08
5085.02
5100.35
5115.07
5129.17
5142.64
5155.47
5167.66
5179.2
5190.09
5200.33
5209.9
5218.81
5227.05
5234.61
5241.5
5247.7
5253.22
5258.05
5262.19
5265.7
5268.33
5270.67
5271.75
5272.56
-3496.85
-3497.16
-3497.4
-3497.6
-3497.9
-3498.3
-3498.83
-3499.47
-3500.22
-3501.09
-3502.08
-3503.17
-3504.37
-3505.67
-3507.08
-3508.57
-3510.16
-3511.82
-3513.55
-3515.34
-3517.19
-3519.07
-3520.99
-3522.93
-3524.87
-3526.81
-3528.73
-3530.61
-3532.45
-3534.23
-3535.94
-3537.55
-3539.06
-3540.45
-3541.7
-3542.8
-3543.74
-3544.49
-3545.04
-3545.37
-3545.47
-3545.32
-3544.9
-3544.21
-3543.21
-3541.9
-3540.25
-3538.26
-3535.9
-3533.15
-3530.01
-3526.44
-3522.45
-3518
-3513.08
-3507.69
-3501.79
-3495.38
-3488.43
-3480.92
-3472.85
-3464.19
-3454.92
-3445.04
-3434.52
-3423.35
-3411.5
-3398.97
-3385.73
-3371.79
-3357.13
-3341.75
-3325.62
-3308.74
-3291.08
-3272.65
-3253.43
-3233.41
-3212.57
-3190.89
-3168.4
-3145.09
-3120.97
-3095.98
-3070.12
-3043.41
-3015.83
-2987.37
-2958.05
-2927.84
-2896.75
-2864.76
-2831.89
-2798.13
-2763.46
-2727.89
-2691.42
-2654.04
-2615.74
-2576.54
-2536.42
-2495.36
-2453.45
-2410.58
-2366.8
-2322.1
-2276.49
-2229.97
-2182.54
-2134.21
-2084.97
-2034.85
-1983.83
-1931.93
-1879.16
-1825.54
-1771.06
-1715.74
-1659.6
-1602.65
-1544.92
-1486.41
-1427.15
-1367.17
-1306.48
-1245.11
-1183.08
-1120.43
-1057.19
-993.376
-929.032
-864.188
-798.88
-733.144
-667.016
-600.534
-533.738
-466.666
-399.36
-331.861
-264.21
-196.45
-128.622
-60.7676
7.06997
74.8465
142.519
210.045
277.381
344.485
411.313
477.825
543.979
609.733
675.047
739.88
804.195
867.952
931.113
993.642
1055.5
1116.66
1177.08
1236.74
1295.59
1353.61
1410.76
1467.03
1522.38
1576.79
1630.23
1682.68
1734.12
1784.53
1833.89
1882.17
1929.37
1975.47
2020.46
2064.32
2107.07
2148.65
2189.07
2228.33
2266.43
2303.35
2339.1
2373.67
2407.06
2439.27
2470.3
2500.16
2528.85
2556.37
2582.73
2607.94
2632
2654.92
2676.71
2697.38
2716.94
2735.41
2752.79
2769.11
2784.36
2798.58
2811.76
2823.93
2835.1
2845.28
2854.49
2862.74
2870.05
2876.44
2881.94
2886.55
2890.32
2893.27
2895.4
2896.75
2897.32
2897.13
2896.19
2894.52
2892.14
2889.06
2885.3
2880.88
2875.8
2870.1
2863.79
2856.89
2849.4
2841.36
2832.76
2823.68
2814.09
2803.98
2793.39
2782.36
2770.88
2758.98
2746.68
2733.97
2720.9
2707.46
2693.68
2679.57
2665.14
2650.43
2635.42
2620.16
2604.65
2588.9
2572.93
2556.76
2540.41
2523.89
2507.21
2490.4
2473.46
2456.42
2439.3
2422.1
2404.85
2387.55
2370.24
2352.92
2335.62
2318.34
2301.11
2283.95
2266.86
2249.87
2233
2216.25
2199.66
2183.23
2166.99
2150.94
2135.12
2119.53
2104.19
2089.12
2074.32
2059.83
2045.65
2031.79
2018.3
2005.18
1992.4
1979.98
1967.94
1956.32
1945.19
1934.55
1924.38
1914.69
1905.48
1896.77
1888.55
1880.83
1873.66
1867
1860.87
1855.28
1850.22
1845.71
1841.75
1838.35
1835.49
1833.19
1831.45
1830.26
1829.63
1829.54
1830.01
1831.01
1832.55
1834.63
1837.23
1840.35
1843.99
1848.12
1852.76
1857.87
1863.47
1869.52
1876.03
1882.99
1890.37
1898.17
1906.38
1914.99
1923.98
1933.34
1943.05
1953.11
1963.5
1974.21
1985.23
1996.55
2008.15
2020.02
2032.15
2044.54
2057.16
2070.02
2083.1
2096.39
2109.88
2123.58
2137.46
2151.53
2165.78
2180.21
2194.8
2209.56
2224.49
2239.58
2254.82
2270.23
2285.8
2301.53
2317.43
2333.48
2349.7
2366.1
2382.66
2399.4
2416.32
2433.43
2450.73
2468.22
2485.92
2503.82
2521.93
2540.26
2558.81
2577.6
2596.63
2615.94
2635.48
2655.29
2675.37
2695.72
2716.34
2737.25
2758.44
2779.92
2801.69
2823.77
2846.15
2868.83
2891.82
2915.12
2938.74
2962.66
2986.9
3011.46
3036.32
3061.5
3086.99
3112.78
3138.88
3165.27
3191.97
3218.95
3246.22
3273.77
3301.59
3329.68
3358.02
3386.61
3415.44
3444.5
3473.78
3503.26
3532.95
3562.81
3592.85
3623.05
3653.4
3683.88
3714.48
3745.18
3775.97
3806.84
3837.77
3868.74
3899.75
3930.76
3961.78
3992.77
4023.73
4054.64
4085.48
4116.23
4146.89
4177.42
4207.83
4238.08
4268.16
4298.06
4327.76
4357.25
4386.5
4415.5
4444.25
4472.71
4500.87
4528.73
4556.27
4583.46
4610.3
4636.77
4662.87
4688.56
4713.85
4738.71
4763.14
4787.12
4810.64
4833.69
4856.25
4878.32
4899.88
4920.92
4941.44
4961.42
4980.85
4999.72
5018.02
5035.75
5052.9
5069.45
5085.4
5100.74
5115.47
5129.57
5143.05
5155.88
5168.08
5179.63
5190.53
5200.77
5210.35
5219.26
5227.51
5235.07
5241.97
5248.17
5253.7
5258.54
5262.68
5266.19
5268.82
5271.16
5272.26
5273.05
-3497.46
-3497.77
-3498.01
-3498.21
-3498.51
-3498.9
-3499.43
-3500.06
-3500.82
-3501.69
-3502.67
-3503.76
-3504.96
-3506.27
-3507.67
-3509.17
-3510.76
-3512.42
-3514.16
-3515.96
-3517.81
-3519.7
-3521.63
-3523.57
-3525.52
-3527.47
-3529.4
-3531.29
-3533.15
-3534.94
-3536.65
-3538.28
-3539.8
-3541.21
-3542.47
-3543.59
-3544.54
-3545.3
-3545.87
-3546.22
-3546.33
-3546.2
-3545.81
-3545.13
-3544.15
-3542.86
-3541.23
-3539.26
-3536.92
-3534.2
-3531.09
-3527.55
-3523.58
-3519.17
-3514.28
-3508.91
-3503.04
-3496.64
-3489.72
-3482.23
-3474.18
-3465.54
-3456.29
-3446.43
-3435.92
-3424.77
-3412.95
-3400.44
-3387.25
-3373.35
-3358.73
-3343.37
-3327.27
-3310.4
-3292.77
-3274.35
-3255.15
-3235.14
-3214.33
-3192.72
-3170.27
-3146.92
-3122.76
-3097.77
-3071.92
-3045.22
-3017.65
-2989.2
-2959.88
-2929.68
-2898.6
-2866.63
-2833.76
-2800
-2765.34
-2729.77
-2693.3
-2655.93
-2617.64
-2578.44
-2538.32
-2497.28
-2455.34
-2412.48
-2368.69
-2323.99
-2278.38
-2231.85
-2184.42
-2136.07
-2086.83
-2036.69
-1985.66
-1933.74
-1880.95
-1827.3
-1772.79
-1717.45
-1661.27
-1604.29
-1546.52
-1487.97
-1428.67
-1368.63
-1307.89
-1246.46
-1184.38
-1121.67
-1058.36
-994.481
-930.067
-865.151
-799.768
-733.954
-667.746
-601.183
-534.303
-467.146
-399.752
-332.161
-264.416
-196.558
-128.63
-60.6761
7.25957
75.1333
142.902
210.522
277.952
345.147
412.066
478.666
544.906
610.744
676.14
741.055
805.448
869.281
932.517
995.119
1057.05
1118.28
1178.76
1238.48
1297.39
1355.47
1412.68
1469
1524.4
1578.86
1632.35
1684.84
1736.32
1786.77
1836.16
1884.48
1931.71
1977.84
2022.85
2066.74
2109.49
2151.09
2191.52
2230.79
2268.89
2305.82
2341.56
2376.13
2409.52
2441.73
2472.75
2502.6
2531.28
2558.79
2585.13
2610.32
2634.36
2657.26
2679.03
2699.68
2719.22
2737.66
2755.01
2771.3
2786.52
2800.7
2813.85
2825.99
2837.13
2847.29
2856.47
2864.7
2872
2878.38
2883.86
2888.46
2892.21
2895.12
2897.21
2898.5
2899.02
2898.77
2897.78
2896.06
2893.63
2890.5
2886.69
2882.23
2877.11
2871.37
2865.02
2858.07
2850.54
2842.45
2833.76
2824.69
2815.06
2804.91
2794.3
2783.23
2771.72
2759.79
2747.44
2734.71
2721.6
2708.12
2694.31
2680.16
2665.71
2650.95
2635.92
2620.62
2605.07
2589.29
2573.29
2557.09
2540.7
2524.14
2507.43
2490.59
2473.62
2456.55
2439.39
2422.15
2404.87
2387.54
2370.19
2352.84
2335.5
2318.19
2300.92
2283.72
2266.6
2249.58
2232.67
2215.89
2199.27
2182.81
2166.53
2150.45
2134.59
2118.97
2103.59
2088.48
2073.65
2059.13
2044.92
2031.04
2017.48
2004.25
1991.35
1978.83
1966.77
1955.21
1944.13
1933.51
1923.35
1913.66
1904.45
1895.72
1887.45
1879.77
1872.58
1865.91
1859.77
1854.17
1849.1
1844.59
1840.63
1837.22
1834.36
1832.06
1830.32
1829.13
1828.5
1828.42
1828.88
1829.89
1831.44
1833.53
1836.14
1839.27
1842.91
1847.06
1851.7
1856.83
1862.43
1868.5
1875.03
1881.99
1889.39
1897.21
1905.44
1914.06
1923.07
1932.44
1942.17
1952.25
1962.66
1973.39
1984.43
1995.77
2007.38
2019.28
2031.43
2043.83
2056.47
2069.35
2082.44
2095.75
2109.26
2122.97
2136.87
2150.96
2165.22
2179.66
2194.26
2209.03
2223.96
2239.06
2254.31
2269.72
2285.3
2301.03
2316.92
2332.97
2349.19
2365.58
2382.14
2398.87
2415.78
2432.88
2450.17
2467.65
2485.33
2503.22
2521.33
2539.66
2558.23
2577.04
2596.09
2615.38
2634.93
2654.74
2674.8
2695.14
2715.75
2736.64
2757.81
2779.28
2801.05
2823.11
2845.47
2868.14
2891.12
2914.41
2938.02
2961.93
2986.17
3010.71
3035.57
3060.74
3086.23
3112.02
3138.11
3164.51
3191.2
3218.19
3245.46
3273.01
3300.84
3328.93
3357.28
3385.88
3414.72
3443.79
3473.08
3502.58
3532.27
3562.16
3592.21
3622.43
3652.79
3683.29
3713.91
3744.63
3775.45
3806.34
3837.29
3868.29
3899.31
3930.35
3961.39
3992.41
4023.4
4054.33
4085.19
4115.98
4146.65
4177.22
4207.65
4237.92
4268.03
4297.96
4327.69
4357.2
4386.47
4415.51
4444.27
4472.76
4500.95
4528.83
4556.39
4583.61
4610.47
4636.97
4663.08
4688.8
4714.11
4738.99
4763.44
4787.44
4810.98
4834.05
4856.63
4878.72
4900.3
4921.36
4941.9
4961.89
4981.34
5000.23
5018.55
5036.29
5053.45
5070.02
5085.98
5101.34
5116.08
5130.2
5143.69
5156.54
5168.75
5180.31
5191.22
5201.47
5211.06
5219.98
5228.23
5235.8
5242.71
5248.91
5254.45
5259.29
5263.44
5266.97
5269.59
5271.94
5273.04
5273.82
-3498.26
-3498.57
-3498.81
-3499.01
-3499.31
-3499.69
-3500.21
-3500.85
-3501.6
-3502.47
-3503.45
-3504.54
-3505.75
-3507.05
-3508.46
-3509.97
-3511.56
-3513.23
-3514.97
-3516.78
-3518.64
-3520.54
-3522.47
-3524.43
-3526.39
-3528.35
-3530.3
-3532.21
-3534.07
-3535.88
-3537.62
-3539.26
-3540.8
-3542.22
-3543.51
-3544.65
-3545.62
-3546.4
-3546.99
-3547.36
-3547.5
-3547.39
-3547.02
-3546.36
-3545.41
-3544.14
-3542.55
-3540.6
-3538.29
-3535.59
-3532.5
-3528.99
-3525.05
-3520.66
-3515.8
-3510.46
-3504.62
-3498.26
-3491.37
-3483.92
-3475.9
-3467.3
-3458.09
-3448.26
-3437.79
-3426.67
-3414.88
-3402.41
-3389.24
-3375.36
-3360.77
-3345.44
-3329.36
-3312.52
-3294.91
-3276.52
-3257.34
-3237.36
-3216.57
-3194.93
-3172.5
-3149.22
-3125.09
-3100.12
-3074.29
-3047.6
-3020.05
-2991.62
-2962.31
-2932.13
-2901.06
-2869.1
-2836.24
-2802.49
-2767.84
-2732.28
-2695.82
-2658.45
-2620.16
-2580.97
-2540.86
-2499.84
-2457.88
-2415.01
-2371.23
-2326.53
-2280.91
-2234.38
-2186.93
-2138.58
-2089.32
-2039.16
-1988.11
-1936.17
-1883.35
-1829.67
-1775.13
-1719.75
-1663.53
-1606.5
-1548.68
-1490.07
-1430.71
-1370.61
-1309.8
-1248.3
-1186.14
-1123.34
-1059.95
-995.98
-931.472
-866.46
-800.976
-735.059
-668.745
-602.073
-535.083
-467.813
-400.306
-332.603
-264.747
-196.778
-128.739
-60.6726
7.37694
75.366
143.251
210.989
278.535
345.848
412.883
479.599
545.954
611.906
677.415
742.439
806.94
870.878
934.217
996.918
1058.95
1120.27
1180.84
1240.65
1299.64
1357.8
1415.09
1471.48
1526.95
1581.48
1635.03
1687.58
1739.12
1789.61
1839.05
1887.42
1934.69
1980.85
2025.9
2069.82
2112.59
2154.21
2194.67
2233.96
2272.07
2309.01
2344.76
2379.33
2412.72
2444.92
2475.94
2505.78
2534.44
2561.94
2588.26
2613.43
2637.45
2660.32
2682.07
2702.68
2722.19
2740.6
2757.92
2774.17
2789.36
2803.5
2816.61
2828.7
2839.79
2849.9
2859.03
2867.21
2874.46
2880.79
2886.23
2890.79
2894.49
2897.36
2899.41
2900.67
2901.14
2900.85
2899.81
2898.04
2895.56
2892.39
2888.53
2884.01
2878.85
2873.06
2866.66
2859.67
2852.11
2844
2835.41
2826.15
2816.44
2806.24
2795.58
2784.46
2772.91
2760.93
2748.54
2735.76
2722.6
2709.08
2695.22
2681.03
2666.53
2651.73
2636.65
2621.31
2605.71
2589.89
2573.84
2557.59
2541.16
2524.56
2507.8
2490.91
2473.89
2456.77
2439.57
2422.29
2404.95
2387.58
2370.18
2352.78
2335.4
2318.04
2300.72
2283.47
2266.31
2249.23
2232.28
2215.45
2198.78
2182.27
2165.95
2149.82
2133.92
2118.25
2102.83
2087.67
2072.8
2058.23
2043.98
2030.06
2016.49
2003.27
1990.42
1977.95
1965.89
1954.26
1943.09
1932.39
1922.16
1912.41
1903.15
1894.39
1886.16
1878.38
1871.15
1864.46
1858.3
1852.67
1847.6
1843.07
1839.09
1835.67
1832.81
1830.5
1828.76
1827.57
1826.93
1826.85
1827.32
1828.34
1829.89
1831.98
1834.6
1837.74
1841.4
1845.56
1850.22
1855.36
1860.99
1867.08
1873.62
1880.61
1888.03
1895.87
1904.13
1912.77
1921.8
1931.21
1940.97
1951.07
1961.51
1972.27
1983.34
1994.7
2006.35
2018.27
2030.45
2042.88
2055.55
2068.46
2081.58
2094.91
2108.45
2122.19
2136.11
2150.22
2164.5
2178.96
2193.58
2208.37
2223.32
2238.43
2253.7
2269.13
2284.71
2300.45
2316.35
2332.41
2348.64
2365.03
2381.59
2398.32
2415.23
2432.33
2449.61
2467.09
2484.77
2502.65
2520.74
2539.06
2557.6
2576.38
2595.41
2614.68
2634.2
2653.99
2674.03
2694.35
2714.94
2735.81
2756.97
2778.42
2800.17
2822.21
2844.56
2867.21
2890.18
2913.45
2937.04
2960.95
2985.17
3009.7
3034.55
3059.72
3085.19
3110.98
3137.07
3163.47
3190.16
3217.15
3244.42
3271.98
3299.81
3327.91
3356.27
3384.88
3413.74
3442.82
3472.13
3501.64
3531.36
3561.26
3591.34
3621.58
3651.97
3682.49
3713.13
3743.89
3774.73
3805.65
3836.63
3867.66
3898.72
3929.79
3960.86
3991.92
4022.93
4053.9
4084.8
4115.62
4146.33
4176.93
4207.39
4237.71
4267.85
4297.81
4327.58
4357.12
4386.43
4415.5
4444.3
4472.82
4501.05
4528.96
4556.55
4583.8
4610.7
4637.23
4663.37
4689.12
4714.45
4739.37
4763.85
4787.88
4811.44
4834.54
4857.15
4879.26
4900.87
4921.95
4942.51
4962.53
4982
5000.91
5019.25
5037.02
5054.2
5070.78
5086.77
5102.14
5116.9
5131.04
5144.54
5157.41
5169.64
5181.21
5192.14
5202.4
5212
5220.94
5229.2
5236.78
5243.69
5249.91
5255.46
5260.31
5264.45
5268
5270.62
5272.99
5274.07
5274.85
-3499.25
-3499.57
-3499.81
-3500.01
-3500.3
-3500.68
-3501.19
-3501.82
-3502.58
-3503.44
-3504.42
-3505.52
-3506.72
-3508.04
-3509.45
-3510.96
-3512.56
-3514.23
-3515.99
-3517.8
-3519.68
-3521.59
-3523.54
-3525.51
-3527.49
-3529.47
-3531.43
-3533.36
-3535.25
-3537.07
-3538.83
-3540.5
-3542.06
-3543.5
-3544.82
-3545.98
-3546.97
-3547.78
-3548.4
-3548.8
-3548.96
-3548.88
-3548.54
-3547.91
-3546.99
-3545.75
-3544.19
-3542.27
-3539.99
-3537.34
-3534.28
-3530.81
-3526.9
-3522.55
-3517.73
-3512.43
-3506.63
-3500.31
-3493.45
-3486.05
-3478.07
-3469.51
-3460.34
-3450.55
-3440.13
-3429.05
-3417.31
-3404.89
-3391.76
-3377.93
-3363.38
-3348.08
-3332.04
-3315.24
-3297.66
-3279.3
-3260.15
-3240.2
-3219.46
-3198
-3175.45
-3152.16
-3128.05
-3103.09
-3077.28
-3050.61
-3023.07
-2994.66
-2965.37
-2935.2
-2904.14
-2872.19
-2839.35
-2805.61
-2770.97
-2735.42
-2698.96
-2661.6
-2623.32
-2584.13
-2544.01
-2502.97
-2461.04
-2418.18
-2374.39
-2329.69
-2284.07
-2237.52
-2190.07
-2141.7
-2092.42
-2042.24
-1991.16
-1939.19
-1886.35
-1832.62
-1778.04
-1722.61
-1666.34
-1609.25
-1551.36
-1492.68
-1433.25
-1373.07
-1312.17
-1250.58
-1188.32
-1125.42
-1061.92
-997.836
-933.211
-868.077
-802.468
-736.422
-669.975
-603.168
-536.038
-468.627
-400.975
-333.123
-265.115
-196.994
-128.802
-60.5846
7.61559
75.7546
143.789
211.675
279.368
346.827
414.007
480.865
547.361
613.452
679.097
744.256
808.888
872.955
936.419
999.243
1061.39
1122.83
1183.51
1243.42
1302.52
1360.78
1418.16
1474.65
1530.21
1584.81
1638.44
1691.06
1742.67
1793.23
1842.73
1891.15
1938.47
1984.68
2029.77
2073.72
2116.53
2158.17
2198.65
2237.96
2276.09
2313.03
2348.79
2383.36
2416.75
2448.95
2479.96
2509.78
2538.43
2565.9
2592.21
2617.35
2641.34
2664.18
2685.89
2706.47
2725.94
2744.3
2761.58
2777.78
2792.92
2807.01
2820.07
2832.11
2843.15
2853.21
2862.29
2870.42
2877.62
2883.9
2889.28
2893.79
2897.43
2900.24
2902.23
2903.42
2903.83
2903.47
2902.37
2900.54
2897.99
2894.75
2890.83
2886.25
2881.02
2875.17
2868.71
2861.66
2854.04
2845.86
2837.16
2827.89
2818.12
2807.87
2797.15
2785.97
2774.36
2762.32
2749.87
2737.03
2723.82
2710.25
2696.33
2682.08
2667.52
2652.66
2637.53
2622.13
2606.48
2590.59
2574.49
2558.18
2541.69
2525.03
2508.22
2491.27
2474.19
2457.01
2439.75
2422.41
2405.02
2387.58
2370.13
2352.67
2335.22
2317.8
2300.43
2283.12
2265.89
2248.76
2231.74
2214.86
2198.13
2181.56
2165.17
2148.99
2133.03
2117.3
2101.82
2086.61
2071.68
2057.05
2042.74
2028.76
2015.11
2001.83
1988.91
1976.39
1964.3
1952.66
1941.47
1930.75
1920.5
1910.73
1901.45
1892.66
1884.38
1876.6
1869.34
1862.62
1856.43
1850.79
1845.69
1841.15
1837.16
1833.73
1830.86
1828.55
1826.8
1825.6
1824.97
1824.89
1825.37
1826.39
1827.95
1830.05
1832.68
1835.84
1839.51
1843.69
1848.37
1853.53
1859.18
1865.29
1871.86
1878.88
1886.33
1894.2
1902.49
1911.16
1920.23
1929.66
1939.46
1949.6
1960.07
1970.87
1981.97
1993.37
2005.05
2017.01
2029.23
2041.69
2054.4
2067.34
2080.49
2093.86
2107.43
2121.2
2135.15
2149.29
2163.6
2178.08
2192.73
2207.54
2222.51
2237.64
2252.92
2268.36
2283.96
2299.71
2315.62
2331.68
2347.91
2364.3
2380.86
2397.59
2414.5
2431.59
2448.86
2466.33
2484
2501.87
2519.95
2538.26
2556.79
2575.55
2594.55
2613.8
2633.31
2653.07
2673.09
2693.38
2713.95
2734.79
2755.93
2777.36
2799.08
2821.1
2843.43
2866.06
2889
2912.26
2935.83
2959.72
2983.93
3008.45
3033.29
3058.45
3083.91
3109.69
3135.78
3162.17
3188.87
3215.86
3243.14
3270.7
3298.54
3326.65
3355.02
3383.65
3412.52
3441.62
3470.94
3500.48
3530.22
3560.15
3590.25
3620.52
3650.94
3681.5
3712.17
3742.96
3773.84
3804.8
3835.82
3866.88
3897.98
3929.09
3960.21
3991.3
4022.36
4053.37
4084.32
4115.18
4145.94
4176.58
4207.08
4237.44
4267.63
4297.64
4327.44
4357.03
4386.39
4415.5
4444.34
4472.9
4501.17
4529.13
4556.76
4584.05
4610.99
4637.55
4663.73
4689.52
4714.89
4739.84
4764.36
4788.42
4812.02
4835.15
4857.79
4879.94
4901.57
4922.69
4943.28
4963.33
4982.82
5001.76
5020.13
5037.92
5055.13
5071.74
5087.75
5103.15
5117.93
5132.09
5145.61
5158.5
5170.74
5182.34
5193.28
5203.56
5213.18
5222.12
5230.4
5238
5244.92
5251.15
5256.7
5261.56
5265.72
5269.27
5271.89
5274.26
5275.34
5276.13
-3500.45
-3500.77
-3501.01
-3501.2
-3501.48
-3501.86
-3502.37
-3503
-3503.75
-3504.61
-3505.59
-3506.69
-3507.9
-3509.21
-3510.63
-3512.15
-3513.76
-3515.45
-3517.21
-3519.04
-3520.93
-3522.86
-3524.83
-3526.81
-3528.81
-3530.81
-3532.79
-3534.74
-3536.65
-3538.51
-3540.29
-3541.98
-3543.57
-3545.04
-3546.38
-3547.57
-3548.6
-3549.44
-3550.09
-3550.52
-3550.72
-3550.67
-3550.36
-3549.77
-3548.89
-3547.69
-3546.16
-3544.28
-3542.04
-3539.42
-3536.41
-3532.98
-3529.12
-3524.81
-3520.04
-3514.78
-3509.03
-3502.76
-3495.95
-3488.59
-3480.67
-3472.15
-3463.04
-3453.3
-3442.93
-3431.9
-3420.2
-3407.83
-3394.75
-3380.97
-3366.46
-3351.21
-3335.21
-3318.45
-3300.91
-3282.59
-3263.47
-3243.55
-3222.79
-3201.15
-3178.85
-3155.63
-3131.56
-3106.64
-3080.86
-3054.21
-3026.69
-2998.3
-2969.03
-2938.88
-2907.84
-2875.91
-2843.08
-2809.35
-2774.72
-2739.19
-2702.74
-2665.39
-2627.12
-2587.93
-2547.83
-2506.8
-2464.86
-2422
-2378.21
-2333.5
-2287.87
-2241.32
-2193.85
-2145.46
-2096.16
-2045.96
-1994.85
-1942.85
-1889.96
-1836.19
-1781.55
-1726.06
-1669.73
-1612.57
-1554.6
-1495.85
-1436.32
-1376.04
-1315.04
-1253.33
-1190.96
-1127.94
-1064.3
-1000.09
-935.321
-870.041
-804.281
-738.079
-671.473
-604.501
-537.204
-469.623
-401.799
-333.774
-265.591
-197.292
-128.922
-60.5231
7.8587
76.1794
144.395
212.461
280.334
347.97
415.327
482.36
549.027
615.287
681.099
746.42
811.212
875.436
939.052
1002.02
1064.31
1125.89
1186.71
1246.75
1305.98
1364.35
1421.85
1478.45
1534.11
1588.81
1642.53
1695.25
1746.93
1797.57
1847.14
1895.63
1943.01
1989.28
2034.41
2078.41
2121.25
2162.93
2203.43
2242.76
2280.91
2317.87
2353.63
2388.21
2421.59
2453.78
2484.77
2514.58
2543.21
2570.66
2596.93
2622.04
2646
2668.8
2690.47
2711
2730.42
2748.74
2765.96
2782.11
2797.19
2811.22
2824.22
2836.19
2847.17
2857.16
2866.17
2874.24
2881.37
2887.58
2892.9
2897.34
2900.92
2903.66
2905.58
2906.69
2907.03
2906.6
2905.42
2903.51
2900.89
2897.57
2893.58
2888.92
2883.62
2877.7
2871.16
2864.04
2856.35
2848.1
2839.31
2829.99
2820.16
2809.84
2799.05
2787.8
2776.12
2764.01
2751.5
2738.59
2725.31
2711.66
2697.68
2683.36
2668.74
2653.81
2638.61
2623.14
2607.42
2591.46
2575.29
2558.92
2542.36
2525.63
2508.75
2491.73
2474.58
2457.34
2440
2422.59
2405.13
2387.62
2370.1
2352.57
2335.05
2317.56
2300.12
2282.74
2265.44
2248.23
2231.15
2214.19
2197.39
2180.75
2164.3
2148.05
2132.01
2116.22
2100.67
2085.39
2070.4
2055.72
2041.35
2027.31
2013.62
2000.3
1987.35
1974.8
1962.66
1950.96
1939.7
1928.91
1918.6
1908.76
1899.43
1890.59
1882.27
1874.45
1867.16
1860.41
1854.19
1848.53
1843.41
1838.84
1834.84
1831.39
1828.51
1826.19
1824.44
1823.24
1822.61
1822.53
1823.01
1824.04
1825.61
1827.73
1830.37
1833.55
1837.24
1841.44
1846.14
1851.33
1857
1863.15
1869.75
1876.8
1884.28
1892.19
1900.51
1909.23
1918.33
1927.81
1937.64
1947.83
1958.34
1969.18
1980.33
1991.77
2003.5
2015.5
2027.76
2040.27
2053.02
2066
2079.2
2092.61
2106.22
2120.02
2134.01
2148.18
2162.52
2177.04
2191.71
2206.55
2221.55
2236.7
2252
2267.46
2283.07
2298.83
2314.75
2330.82
2347.06
2363.45
2380.01
2396.74
2413.64
2430.72
2447.99
2465.44
2483.1
2500.95
2519.02
2537.3
2555.81
2574.55
2593.52
2612.75
2632.22
2651.95
2671.95
2692.21
2712.75
2733.57
2754.67
2776.07
2797.76
2819.76
2842.06
2864.67
2887.59
2910.82
2934.38
2958.25
2982.43
3006.94
3031.77
3056.91
3082.37
3108.14
3134.22
3160.61
3187.31
3214.3
3241.58
3269.16
3297.01
3325.13
3353.51
3382.16
3411.04
3440.17
3469.52
3499.08
3528.85
3558.81
3588.95
3619.25
3649.7
3680.3
3711.01
3741.84
3772.76
3803.77
3834.83
3865.95
3897.09
3928.25
3959.42
3990.56
4021.67
4052.74
4083.73
4114.64
4145.46
4176.15
4206.71
4237.12
4267.37
4297.43
4327.28
4356.93
4386.34
4415.5
4444.39
4473
4501.32
4529.33
4557.01
4584.35
4611.33
4637.95
4664.17
4690
4715.42
4740.42
4764.97
4789.08
4812.72
4835.89
4858.57
4880.76
4902.43
4923.59
4944.21
4964.29
4983.82
5002.79
5021.2
5039.02
5056.25
5072.89
5088.93
5104.36
5119.16
5133.34
5146.89
5159.8
5172.07
5183.69
5194.65
5204.95
5214.58
5223.55
5231.84
5239.45
5246.38
5252.62
5258.19
5263.06
5267.22
5270.78
5273.41
5275.79
5276.87
5277.66
-3501.84
-3502.17
-3502.41
-3502.59
-3502.87
-3503.24
-3503.74
-3504.36
-3505.11
-3505.97
-3506.96
-3508.05
-3509.27
-3510.59
-3512.02
-3513.54
-3515.16
-3516.86
-3518.64
-3520.49
-3522.39
-3524.34
-3526.33
-3528.34
-3530.36
-3532.38
-3534.39
-3536.36
-3538.3
-3540.18
-3541.99
-3543.72
-3545.34
-3546.84
-3548.22
-3549.44
-3550.5
-3551.38
-3552.06
-3552.53
-3552.77
-3552.76
-3552.49
-3551.95
-3551.1
-3549.94
-3548.46
-3546.63
-3544.43
-3541.86
-3538.89
-3535.51
-3531.7
-3527.45
-3522.73
-3517.52
-3511.83
-3505.61
-3498.86
-3491.56
-3483.7
-3475.24