/*--------------------------------*- C++ -*----------------------------------*\
| =========                 |                                                 |
| \\      /  F ield         | OpenFOAM: The Open Source CFD Toolbox           |
|  \\    /   O peration     | Version:  v2006                                 |
|   \\  /    A nd           | Website:  www.openfoam.com                      |
|    \\/     M anipulation  |                                                 |
\*---------------------------------------------------------------------------*/
FoamFile
{
    version     2.0;
    format      ascii;
    class       volVectorField;
    location    "4";
    object      U;
}
// * * * * * * * * * * * * * * * * * * * * * * * * * * * * * * * * * * * * * //

dimensions      [0 1 -1 0 0 0 0];


internalField   nonuniform List<vector> 
150000
(
(-0.00979622 0.00610872 0)
(-0.0217061 0.00349256 0)
(-0.029679 0.00355062 0)
(-0.0420271 0.004011 0)
(-0.0534034 0.00436802 0)
(-0.0664574 0.00449052 0)
(-0.0787669 0.00451441 0)
(-0.0914288 0.00451173 0)
(-0.103896 0.00450706 0)
(-0.116394 0.0045023 0)
(-0.128868 0.00450438 0)
(-0.141329 0.00451111 0)
(-0.153773 0.00451975 0)
(-0.166196 0.00452897 0)
(-0.178593 0.00453836 0)
(-0.190961 0.00454787 0)
(-0.203295 0.00455829 0)
(-0.215592 0.00457001 0)
(-0.227846 0.00458196 0)
(-0.240054 0.00459334 0)
(-0.252211 0.00460457 0)
(-0.264313 0.00461632 0)
(-0.276353 0.00462837 0)
(-0.28833 0.00463982 0)
(-0.300236 0.00465044 0)
(-0.312067 0.00466035 0)
(-0.323818 0.00466939 0)
(-0.335484 0.00467731 0)
(-0.34706 0.00468411 0)
(-0.358541 0.00468988 0)
(-0.369922 0.00469444 0)
(-0.381199 0.00469782 0)
(-0.392366 0.0047003 0)
(-0.403419 0.00470192 0)
(-0.414354 0.00470246 0)
(-0.425166 0.00470194 0)
(-0.435851 0.00470054 0)
(-0.446404 0.0046985 0)
(-0.45682 0.0046961 0)
(-0.467095 0.00469343 0)
(-0.477224 0.00469038 0)
(-0.487203 0.00468673 0)
(-0.497029 0.0046821 0)
(-0.506694 0.00467589 0)
(-0.516195 0.00466755 0)
(-0.525525 0.00465773 0)
(-0.534677 0.00464894 0)
(-0.54365 0.00464447 0)
(-0.552445 0.00464488 0)
(-0.561069 0.00464391 0)
(-0.569524 0.00462625 0)
(-0.5778 0.00456977 0)
(-0.585869 0.00445233 0)
(-0.593682 0.00426092 0)
(-0.601176 0.00399895 0)
(-0.608291 0.00368786 0)
(-0.614985 0.00336106 0)
(-0.621244 0.00305195 0)
(-0.627082 0.0027809 0)
(-0.632528 0.00254798 0)
(-0.637606 0.00233715 0)
(-0.642326 0.00213464 0)
(-0.646685 0.0019541 0)
(-0.650698 0.0018511 0)
(-0.654429 0.00190888 0)
(-0.658009 0.00218866 0)
(-0.661618 0.00267284 0)
(-0.665433 0.00326767 0)
(-0.669561 0.00383717 0)
(-0.673979 0.00423566 0)
(-0.678554 0.00438653 0)
(-0.683099 0.0043238 0)
(-0.687444 0.00412973 0)
(-0.691485 0.00387883 0)
(-0.695195 0.00361951 0)
(-0.698584 0.00336292 0)
(-0.701659 0.00310359 0)
(-0.704421 0.00284034 0)
(-0.706874 0.00257911 0)
(-0.709027 0.00232696 0)
(-0.710896 0.00208941 0)
(-0.712499 0.00186423 0)
(-0.71385 0.00165603 0)
(-0.714974 0.00146299 0)
(-0.715892 0.00128381 0)
(-0.716623 0.00111777 0)
(-0.717189 0.000964386 0)
(-0.717609 0.000823003 0)
(-0.717901 0.000692855 0)
(-0.718084 0.000574389 0)
(-0.718176 0.000466081 0)
(-0.718194 0.000368111 0)
(-0.718154 0.0002788 0)
(-0.71807 0.000197815 0)
(-0.717956 0.000124954 0)
(-0.717824 5.99691e-05 0)
(-0.717686 2.61602e-06 0)
(-0.717553 -4.73531e-05 0)
(-0.717435 -9.03531e-05 0)
(-0.71734 -0.000126972 0)
(-0.717277 -0.000157604 0)
(-0.717253 -0.000181872 0)
(-0.717274 -0.000200983 0)
(-0.717342 -0.000217023 0)
(-0.717463 -0.000229719 0)
(-0.717639 -0.000238347 0)
(-0.717872 -0.000244548 0)
(-0.718164 -0.00024832 0)
(-0.718515 -0.000249556 0)
(-0.718924 -0.000248592 0)
(-0.719389 -0.00024638 0)
(-0.719909 -0.000243331 0)
(-0.72048 -0.000239543 0)
(-0.7211 -0.000235068 0)
(-0.721763 -0.000230738 0)
(-0.722466 -0.000226393 0)
(-0.723203 -0.000222717 0)
(-0.723969 -0.0002193 0)
(-0.724757 -0.000216545 0)
(-0.725563 -0.000214469 0)
(-0.726379 -0.000212839 0)
(-0.727201 -0.000211571 0)
(-0.728023 -0.000210495 0)
(-0.728838 -0.000209427 0)
(-0.729643 -0.000208176 0)
(-0.730433 -0.000206403 0)
(-0.731203 -0.000203915 0)
(-0.731952 -0.000200252 0)
(-0.732676 -0.000195087 0)
(-0.733373 -0.000188438 0)
(-0.734044 -0.000180101 0)
(-0.734688 -0.000170207 0)
(-0.735304 -0.000159438 0)
(-0.735894 -0.000148943 0)
(-0.736458 -0.000140563 0)
(-0.736994 -0.000137159 0)
(-0.737502 -0.000142692 0)
(-0.737976 -0.000161502 0)
(-0.738409 -0.000196814 0)
(-0.738789 -0.00024913 0)
(-0.739097 -0.000316768 0)
(-0.739315 -0.000395603 0)
(-0.739433 -0.000475124 0)
(-0.739454 -0.000538992 0)
(-0.739391 -0.00057902 0)
(-0.739274 -0.000608455 0)
(-0.739104 -0.000638295 0)
(-0.73888 -0.000671462 0)
(-0.738601 -0.000709633 0)
(-0.738263 -0.000753428 0)
(-0.737865 -0.00080212 0)
(-0.737404 -0.000854729 0)
(-0.736881 -0.000910913 0)
(-0.736295 -0.000970045 0)
(-0.735648 -0.00103069 0)
(-0.734941 -0.00109221 0)
(-0.734177 -0.00115465 0)
(-0.733359 -0.0012169 0)
(-0.732493 -0.00127742 0)
(-0.731583 -0.00133513 0)
(-0.730637 -0.00138853 0)
(-0.729666 -0.00143598 0)
(-0.728677 -0.00147702 0)
(-0.727681 -0.00151244 0)
(-0.726684 -0.0015436 0)
(-0.725692 -0.00157132 0)
(-0.72471 -0.00159545 0)
(-0.723745 -0.00161538 0)
(-0.722802 -0.00163035 0)
(-0.721891 -0.00163981 0)
(-0.721018 -0.00164332 0)
(-0.720193 -0.00164051 0)
(-0.719422 -0.00163117 0)
(-0.718715 -0.0016151 0)
(-0.71808 -0.00159219 0)
(-0.717524 -0.001563 0)
(-0.717055 -0.00152841 0)
(-0.71668 -0.0014877 0)
(-0.71641 -0.00143733 0)
(-0.716262 -0.00136929 0)
(-0.716247 -0.00126905 0)
(-0.716385 -0.00114437 0)
(-0.716695 -0.00100728 0)
(-0.717186 -0.000870044 0)
(-0.717852 -0.000743139 0)
(-0.71868 -0.000630959 0)
(-0.719654 -0.00053213 0)
(-0.720762 -0.000442897 0)
(-0.721993 -0.000359999 0)
(-0.723342 -0.000281492 0)
(-0.7248 -0.000206356 0)
(-0.726363 -0.000134033 0)
(-0.728024 -6.4238e-05 0)
(-0.729779 3.1179e-06 0)
(-0.731622 6.79991e-05 0)
(-0.733547 0.000130318 0)
(-0.735548 0.000189954 0)
(-0.73762 0.000246717 0)
(-0.739757 0.000300294 0)
(-0.741951 0.000350297 0)
(-0.744197 0.000396492 0)
(-0.746487 0.000439169 0)
(-0.748815 0.000479399 0)
(-0.751177 0.000518719 0)
(-0.753569 0.000557867 0)
(-0.755988 0.000594679 0)
(-0.758427 0.000622112 0)
(-0.760874 0.000628112 0)
(-0.763307 0.000598913 0)
(-0.765696 0.000525846 0)
(-0.768008 0.000413101 0)
(-0.770217 0.000282158 0)
(-0.77232 0.000170109 0)
(-0.774347 0.000122082 0)
(-0.776368 0.000178551 0)
(-0.778476 0.000360546 0)
(-0.780772 0.000660433 0)
(-0.783338 0.00104386 0)
(-0.786221 0.00146137 0)
(-0.789428 0.0018632 0)
(-0.792924 0.00221122 0)
(-0.79665 0.00248423 0)
(-0.800534 0.00267715 0)
(-0.804504 0.00279687 0)
(-0.808497 0.0028583 0)
(-0.812458 0.0028781 0)
(-0.81634 0.00286626 0)
(-0.820103 0.00283026 0)
(-0.823723 0.00277667 0)
(-0.827181 0.00271054 0)
(-0.830465 0.00263568 0)
(-0.833567 0.00255506 0)
(-0.836482 0.00247102 0)
(-0.839209 0.00238547 0)
(-0.841747 0.00230006 0)
(-0.844097 0.00221713 0)
(-0.846264 0.00213795 0)
(-0.848254 0.00206407 0)
(-0.850067 0.00198875 0)
(-0.851706 0.00191541 0)
(-0.853178 0.00184441 0)
(-0.85449 0.0017763 0)
(-0.855647 0.0017116 0)
(-0.856657 0.00165074 0)
(-0.857526 0.001594 0)
(-0.85826 0.00154157 0)
(-0.858866 0.0014936 0)
(-0.859351 0.00145021 0)
(-0.859722 0.00141157 0)
(-0.859986 0.00137778 0)
(-0.860148 0.00134885 0)
(-0.860214 0.00132348 0)
(-0.860189 0.0012952 0)
(-0.860076 0.0012657 0)
(-0.859883 0.00124012 0)
(-0.859618 0.00122001 0)
(-0.859288 0.00120595 0)
(-0.858902 0.00119823 0)
(-0.858469 0.00119698 0)
(-0.857999 0.00120227 0)
(-0.8575 0.00121407 0)
(-0.856982 0.00123229 0)
(-0.856455 0.00125682 0)
(-0.855926 0.00128746 0)
(-0.855407 0.00132406 0)
(-0.854904 0.00136644 0)
(-0.854429 0.00141451 0)
(-0.853989 0.00146828 0)
(-0.853592 0.00152788 0)
(-0.853248 0.00159362 0)
(-0.852964 0.00166592 0)
(-0.852748 0.00174528 0)
(-0.852606 0.00183131 0)
(-0.852545 0.00192047 0)
(-0.852565 0.00200952 0)
(-0.852656 0.0021009 0)
(-0.852821 0.00219941 0)
(-0.853065 0.00231245 0)
(-0.853398 0.00244529 0)
(-0.853836 0.00259746 0)
(-0.854394 0.00276505 0)
(-0.855085 0.00294261 0)
(-0.855921 0.00311984 0)
(-0.856912 0.00327996 0)
(-0.858047 0.00340977 0)
(-0.859301 0.00352469 0)
(-0.860651 0.00369434 0)
(-0.862127 0.00403006 0)
(-0.86385 0.00459021 0)
(-0.865976 0.00520973 0)
(-0.868521 0.00543086 0)
(-0.871092 0.00478537 0)
(-0.872822 0.00323073 0)
(-0.872884 0.0014815 0)
(-0.87169 0.000437033 0)
(-0.870492 7.51398e-05 0)
(-0.869516 -6.34301e-05 0)
(-0.868792 -0.000153306 0)
(-0.868275 -0.000218311 0)
(-0.86792 -0.000249564 0)
(-0.867717 -0.000243907 0)
(-0.867665 -0.000213723 0)
(-0.867764 -0.000185578 0)
(-0.868017 -0.000154001 0)
(-0.868423 -0.00012002 0)
(-0.868986 -8.42948e-05 0)
(-0.869707 -4.72163e-05 0)
(-0.870589 -8.9667e-06 0)
(-0.871635 3.04098e-05 0)
(-0.872847 7.09293e-05 0)
(-0.874227 0.000112608 0)
(-0.875776 0.000155544 0)
(-0.877497 0.000199692 0)
(-0.879391 0.000245067 0)
(-0.881458 0.000291829 0)
(-0.883701 0.000340079 0)
(-0.886119 0.000389895 0)
(-0.888714 0.000441325 0)
(-0.891486 0.000494383 0)
(-0.894435 0.000549034 0)
(-0.897562 0.000605257 0)
(-0.900864 0.000663055 0)
(-0.904342 0.000722343 0)
(-0.907995 0.000782966 0)
(-0.911821 0.000844795 0)
(-0.915817 0.000907723 0)
(-0.919982 0.000971591 0)
(-0.924313 0.00103616 0)
(-0.928806 0.00110118 0)
(-0.933458 0.00116644 0)
(-0.938264 0.00123171 0)
(-0.94322 0.00129676 0)
(-0.948322 0.00136138 0)
(-0.953562 0.00142535 0)
(-0.958936 0.00148844 0)
(-0.964437 0.00155041 0)
(-0.970058 0.00161096 0)
(-0.975792 0.00166983 0)
(-0.981631 0.00172681 0)
(-0.987567 0.00178173 0)
(-0.993592 0.0018344 0)
(-0.999697 0.00188455 0)
(-1.00587 0.00193197 0)
(-1.01211 0.00197643 0)
(-1.0184 0.00201771 0)
(-1.02473 0.00205555 0)
(-1.03109 0.00208973 0)
(-1.03747 0.00212005 0)
(-1.04387 0.00214634 0)
(-1.05026 0.00216839 0)
(-1.05664 0.00218607 0)
(-1.063 0.00219935 0)
(-1.06932 0.00220843 0)
(-1.0756 0.00221371 0)
(-1.08183 0.00221529 0)
(-1.08798 0.00221306 0)
(-1.09406 0.00220689 0)
(-1.10004 0.00219667 0)
(-1.10593 0.00218226 0)
(-1.1117 0.00216351 0)
(-1.11734 0.00214024 0)
(-1.12285 0.00211224 0)
(-1.12821 0.00207932 0)
(-1.13342 0.00204132 0)
(-1.13845 0.00199807 0)
(-1.1433 0.00194938 0)
(-1.14797 0.00189501 0)
(-1.15243 0.00183462 0)
(-1.15668 0.00176779 0)
(-1.16071 0.00169393 0)
(-1.16451 0.00161227 0)
(-1.16806 0.00152171 0)
(-1.17135 0.00142048 0)
(-1.17438 0.00130553 0)
(-1.17712 0.00117187 0)
(-1.17956 0.00101247 0)
(-1.18166 0.000818768 0)
(-1.1834 0.000581802 0)
(-1.18472 0.000296701 0)
(-1.18557 -2.22445e-05 0)
(-1.18592 -0.000325793 0)
(-1.18577 -0.000554361 0)
(-1.18528 -0.00069972 0)
(-1.18449 -0.000816045 0)
(-1.18341 -0.000926959 0)
(-1.18206 -0.00103518 0)
(-1.18042 -0.00114245 0)
(-1.17851 -0.0012484 0)
(-1.17634 -0.00135297 0)
(-1.17389 -0.00145603 0)
(-1.17118 -0.00155753 0)
(-1.16821 -0.00165745 0)
(-1.16498 -0.00175568 0)
(-1.1615 -0.00185213 0)
(-1.15777 -0.00194666 0)
(-1.15379 -0.00203922 0)
(-1.14958 -0.00212977 0)
(-1.14513 -0.00221832 0)
(-1.14044 -0.00230485 0)
(-1.13553 -0.00238933 0)
(-1.1304 -0.00247173 0)
(-1.12505 -0.00255205 0)
(-1.11949 -0.00263028 0)
(-1.11372 -0.00270644 0)
(-1.10774 -0.00278055 0)
(-1.10157 -0.00285265 0)
(-1.09521 -0.00292275 0)
(-1.08865 -0.00299088 0)
(-1.08191 -0.00305709 0)
(-1.07499 -0.0031214 0)
(-1.0679 -0.00318386 0)
(-1.06063 -0.00324451 0)
(-1.0532 -0.0033034 0)
(-1.04561 -0.00336058 0)
(-1.03786 -0.00341611 0)
(-1.02995 -0.0034701 0)
(-1.0219 -0.00352264 0)
(-1.0137 -0.00357387 0)
(-1.00535 -0.00362395 0)
(-0.996869 -0.00367303 0)
(-0.98825 -0.00372134 0)
(-0.979498 -0.00376911 0)
(-0.970616 -0.0038166 0)
(-0.961606 -0.00386403 0)
(-0.95247 -0.00391156 0)
(-0.943211 -0.00395924 0)
(-0.933829 -0.00400701 0)
(-0.924327 -0.00405478 0)
(-0.914706 -0.00410241 0)
(-0.904969 -0.00414981 0)
(-0.895117 -0.00419693 0)
(-0.885151 -0.00424374 0)
(-0.875074 -0.00429024 0)
(-0.864887 -0.00433643 0)
(-0.854592 -0.00438232 0)
(-0.844191 -0.00442798 0)
(-0.833684 -0.00447348 0)
(-0.823073 -0.00451895 0)
(-0.81236 -0.00456445 0)
(-0.801545 -0.00461006 0)
(-0.790631 -0.00465578 0)
(-0.779618 -0.00470165 0)
(-0.768506 -0.00474768 0)
(-0.757298 -0.00479392 0)
(-0.745994 -0.00484041 0)
(-0.734595 -0.0048872 0)
(-0.723101 -0.00493433 0)
(-0.711514 -0.00498185 0)
(-0.699835 -0.0050298 0)
(-0.688063 -0.00507826 0)
(-0.676199 -0.00512724 0)
(-0.664245 -0.00517676 0)
(-0.6522 -0.00522687 0)
(-0.640065 -0.00527771 0)
(-0.62784 -0.00532966 0)
(-0.615524 -0.00538333 0)
(-0.603118 -0.00543938 0)
(-0.590619 -0.00549808 0)
(-0.578026 -0.00555911 0)
(-0.56534 -0.00562151 0)
(-0.552563 -0.00568416 0)
(-0.539695 -0.0057463 0)
(-0.526741 -0.00580781 0)
(-0.513705 -0.00586912 0)
(-0.500589 -0.00593081 0)
(-0.487395 -0.00599325 0)
(-0.474126 -0.00605645 0)
(-0.460782 -0.00612019 0)
(-0.447365 -0.00618416 0)
(-0.433878 -0.00624803 0)
(-0.420324 -0.00631156 0)
(-0.406703 -0.00637455 0)
(-0.393018 -0.0064369 0)
(-0.379271 -0.00649857 0)
(-0.365463 -0.00655958 0)
(-0.351597 -0.00661992 0)
(-0.337675 -0.00667946 0)
(-0.323699 -0.00673797 0)
(-0.309672 -0.00679528 0)
(-0.295596 -0.00685166 0)
(-0.281472 -0.00690764 0)
(-0.267304 -0.00696308 0)
(-0.253092 -0.0070172 0)
(-0.23884 -0.00707101 0)
(-0.224547 -0.00712649 0)
(-0.210214 -0.00718173 0)
(-0.195846 -0.00723182 0)
(-0.181443 -0.00727356 0)
(-0.167014 -0.00730165 0)
(-0.152603 -0.00729665 0)
(-0.138148 -0.00729432 0)
(-0.123743 -0.00727709 0)
(-0.109418 -0.00727148 0)
(-0.0946719 -0.00749505 0)
(-0.0808603 -0.0076243 0)
(-0.0641499 -0.00797692 0)
(-0.0530422 -0.00945289 0)
(-0.0296351 -0.00871485 0)
(-0.0243793 -0.00560869 0)
(-0.00209623 -0.00663228 0)
(-0.0111003 0.0202112 0)
(-0.0246809 0.0135089 0)
(-0.0348108 0.0141358 0)
(-0.0501387 0.0157562 0)
(-0.0644636 0.0165777 0)
(-0.0804122 0.016781 0)
(-0.0954713 0.0167583 0)
(-0.110838 0.0167073 0)
(-0.125974 0.0166721 0)
(-0.141136 0.0166398 0)
(-0.15625 0.016607 0)
(-0.171311 0.016568 0)
(-0.186302 0.0165209 0)
(-0.201207 0.016466 0)
(-0.216012 0.0164033 0)
(-0.230705 0.0163328 0)
(-0.245273 0.0162543 0)
(-0.259703 0.0161675 0)
(-0.273985 0.0160723 0)
(-0.288105 0.0159686 0)
(-0.302054 0.0158569 0)
(-0.31582 0.0157374 0)
(-0.329393 0.0156098 0)
(-0.342763 0.0154735 0)
(-0.355923 0.0153289 0)
(-0.368862 0.0151765 0)
(-0.381574 0.0150164 0)
(-0.39405 0.0148484 0)
(-0.406285 0.0146726 0)
(-0.418271 0.0144896 0)
(-0.430004 0.0142995 0)
(-0.441476 0.0141023 0)
(-0.452684 0.0138982 0)
(-0.463621 0.0136874 0)
(-0.474285 0.0134698 0)
(-0.48467 0.0132457 0)
(-0.494772 0.013015 0)
(-0.504588 0.012778 0)
(-0.514114 0.0125349 0)
(-0.523347 0.0122857 0)
(-0.532283 0.0120306 0)
(-0.540919 0.0117695 0)
(-0.549253 0.0115021 0)
(-0.55728 0.0112278 0)
(-0.564998 0.010946 0)
(-0.572406 0.0106563 0)
(-0.579501 0.0103602 0)
(-0.586281 0.0100612 0)
(-0.592736 0.00976415 0)
(-0.598854 0.00947247 0)
(-0.604622 0.00918595 0)
(-0.610037 0.00889916 0)
(-0.615109 0.00860253 0)
(-0.619874 0.00828582 0)
(-0.624384 0.00794255 0)
(-0.628697 0.00757307 0)
(-0.632857 0.00718466 0)
(-0.636887 0.00678855 0)
(-0.640782 0.00639516 0)
(-0.644521 0.00600938 0)
(-0.648086 0.0056283 0)
(-0.651475 0.00524427 0)
(-0.654701 0.00485338 0)
(-0.65777 0.00446522 0)
(-0.660654 0.00410677 0)
(-0.663266 0.00381378 0)
(-0.665465 0.00360966 0)
(-0.667085 0.0034894 0)
(-0.668004 0.00341694 0)
(-0.668207 0.00333239 0)
(-0.667783 0.00318317 0)
(-0.666905 0.00295831 0)
(-0.665763 0.00268598 0)
(-0.664488 0.00239879 0)
(-0.663132 0.00211907 0)
(-0.661702 0.00185193 0)
(-0.660204 0.00159425 0)
(-0.658653 0.00134487 0)
(-0.657067 0.00110666 0)
(-0.655462 0.000884305 0)
(-0.653851 0.000684989 0)
(-0.652237 0.000505366 0)
(-0.650623 0.000338534 0)
(-0.649022 0.000186902 0)
(-0.647441 5.25867e-05 0)
(-0.645887 -6.3362e-05 0)
(-0.644368 -0.000160644 0)
(-0.642892 -0.0002396 0)
(-0.641468 -0.00030093 0)
(-0.640105 -0.000344523 0)
(-0.638813 -0.000371625 0)
(-0.6376 -0.000382478 0)
(-0.636476 -0.000378751 0)
(-0.63545 -0.000361315 0)
(-0.63453 -0.000330871 0)
(-0.633724 -0.000288162 0)
(-0.633042 -0.000234165 0)
(-0.632488 -0.000170049 0)
(-0.632067 -9.68964e-05 0)
(-0.631786 -1.55948e-05 0)
(-0.631646 7.28432e-05 0)
(-0.631651 0.000166748 0)
(-0.631805 0.00026683 0)
(-0.632106 0.000369522 0)
(-0.632555 0.000473034 0)
(-0.63315 0.000577501 0)
(-0.633891 0.000681231 0)
(-0.634773 0.000783329 0)
(-0.635792 0.000882949 0)
(-0.636942 0.000979455 0)
(-0.638219 0.00107166 0)
(-0.639615 0.0011577 0)
(-0.641123 0.00123758 0)
(-0.642733 0.00131093 0)
(-0.644437 0.00137643 0)
(-0.646226 0.00143375 0)
(-0.64809 0.00148201 0)
(-0.650019 0.0015218 0)
(-0.652001 0.00155248 0)
(-0.654027 0.0015736 0)
(-0.656085 0.00158515 0)
(-0.658166 0.00158753 0)
(-0.660257 0.00158111 0)
(-0.662348 0.00156627 0)
(-0.664428 0.0015434 0)
(-0.666488 0.00151307 0)
(-0.668518 0.00147622 0)
(-0.670507 0.00143373 0)
(-0.672448 0.00138644 0)
(-0.674331 0.00133553 0)
(-0.67615 0.00128212 0)
(-0.677898 0.00122735 0)
(-0.679569 0.00117232 0)
(-0.681161 0.00111804 0)
(-0.68267 0.00106543 0)
(-0.684097 0.00101522 0)
(-0.685446 0.000967723 0)
(-0.686727 0.000922165 0)
(-0.687953 0.000875194 0)
(-0.689141 0.000820805 0)
(-0.690314 0.00075351 0)
(-0.69149 0.000673477 0)
(-0.692685 0.00058858 0)
(-0.693902 0.000510508 0)
(-0.695133 0.000445847 0)
(-0.696349 0.000388528 0)
(-0.697551 0.000333212 0)
(-0.698747 0.000279019 0)
(-0.699945 0.000225559 0)
(-0.701156 0.000172877 0)
(-0.70239 0.000121735 0)
(-0.703658 7.30433e-05 0)
(-0.704971 2.71036e-05 0)
(-0.706339 -1.56553e-05 0)
(-0.707771 -5.40101e-05 0)
(-0.709277 -8.73294e-05 0)
(-0.710864 -0.000115621 0)
(-0.712543 -0.000137833 0)
(-0.714319 -0.000152582 0)
(-0.7162 -0.000159031 0)
(-0.718191 -0.000156264 0)
(-0.720296 -0.000143834 0)
(-0.722515 -0.000122542 0)
(-0.724848 -9.40014e-05 0)
(-0.727297 -5.96052e-05 0)
(-0.729862 -1.96619e-05 0)
(-0.732545 2.63252e-05 0)
(-0.735349 7.89628e-05 0)
(-0.738272 0.000138693 0)
(-0.741315 0.0002056 0)
(-0.744477 0.000279697 0)
(-0.747755 0.000360858 0)
(-0.751146 0.000448863 0)
(-0.754647 0.000543482 0)
(-0.758254 0.000644473 0)
(-0.761963 0.000751497 0)
(-0.765771 0.00086462 0)
(-0.769676 0.000985095 0)
(-0.773673 0.00111533 0)
(-0.777754 0.00125908 0)
(-0.781908 0.00142262 0)
(-0.786114 0.00159702 0)
(-0.790347 0.00177222 0)
(-0.79459 0.00194122 0)
(-0.798837 0.00209967 0)
(-0.803091 0.00224626 0)
(-0.807356 0.0023818 0)
(-0.811635 0.00250773 0)
(-0.815928 0.00262525 0)
(-0.820232 0.00273513 0)
(-0.824543 0.0028378 0)
(-0.828857 0.00293346 0)
(-0.833168 0.00302216 0)
(-0.837471 0.00310384 0)
(-0.841759 0.00317836 0)
(-0.846027 0.00324556 0)
(-0.85027 0.00330528 0)
(-0.85448 0.00335733 0)
(-0.858653 0.00340155 0)
(-0.862784 0.00343792 0)
(-0.866867 0.00346664 0)
(-0.870897 0.00348817 0)
(-0.874869 0.00350315 0)
(-0.878778 0.00351197 0)
(-0.882618 0.00351451 0)
(-0.886386 0.00350995 0)
(-0.890087 0.00349711 0)
(-0.893742 0.00347526 0)
(-0.897385 0.00344505 0)
(-0.901068 0.00340932 0)
(-0.904845 0.00337344 0)
(-0.908753 0.00334479 0)
(-0.912792 0.00333187 0)
(-0.916912 0.0033433 0)
(-0.921015 0.00338609 0)
(-0.924974 0.00346236 0)
(-0.928662 0.0035668 0)
(-0.931974 0.0036867 0)
(-0.934844 0.00380444 0)
(-0.937247 0.00390147 0)
(-0.93919 0.00396235 0)
(-0.940703 0.00397747 0)
(-0.941826 0.00394353 0)
(-0.942597 0.00386267 0)
(-0.943052 0.00374163 0)
(-0.943225 0.00358915 0)
(-0.943145 0.00341124 0)
(-0.942839 0.00321326 0)
(-0.942326 0.00300108 0)
(-0.941622 0.00277964 0)
(-0.94074 0.00255276 0)
(-0.939689 0.00232319 0)
(-0.938477 0.00209283 0)
(-0.937113 0.00186243 0)
(-0.935601 0.00163106 0)
(-0.933947 0.00140303 0)
(-0.932159 0.0011774 0)
(-0.930249 0.00095545 0)
(-0.928213 0.000749817 0)
(-0.926045 0.000552112 0)
(-0.923753 0.000360593 0)
(-0.921341 0.000175115 0)
(-0.918814 -4.13343e-06 0)
(-0.916175 -0.000176991 0)
(-0.913428 -0.00034321 0)
(-0.910577 -0.000502566 0)
(-0.907625 -0.000654895 0)
(-0.904575 -0.000800093 0)
(-0.901432 -0.000938066 0)
(-0.898199 -0.00106877 0)
(-0.89488 -0.00119227 0)
(-0.891481 -0.00130957 0)
(-0.888009 -0.00142484 0)
(-0.884474 -0.00153633 0)
(-0.880878 -0.00164028 0)
(-0.877225 -0.00173556 0)
(-0.873518 -0.00182187 0)
(-0.869759 -0.00189916 0)
(-0.865952 -0.00196745 0)
(-0.862097 -0.00202674 0)
(-0.858199 -0.00207699 0)
(-0.85426 -0.00211812 0)
(-0.850283 -0.00215002 0)
(-0.846271 -0.00217262 0)
(-0.842229 -0.00218588 0)
(-0.838161 -0.00218987 0)
(-0.834071 -0.00218479 0)
(-0.829965 -0.00217097 0)
(-0.825847 -0.00214892 0)
(-0.821721 -0.00211932 0)
(-0.817591 -0.00208304 0)
(-0.813462 -0.0020412 0)
(-0.809335 -0.00199558 0)
(-0.805214 -0.0019499 0)
(-0.801106 -0.00190761 0)
(-0.797027 -0.00186894 0)
(-0.79298 -0.00183333 0)
(-0.788964 -0.0017979 0)
(-0.784971 -0.00175902 0)
(-0.780983 -0.00171459 0)
(-0.776982 -0.00166255 0)
(-0.772952 -0.00159859 0)
(-0.768877 -0.00151892 0)
(-0.764749 -0.00142657 0)
(-0.760584 -0.00133585 0)
(-0.756426 -0.00126865 0)
(-0.752317 -0.00123858 0)
(-0.748199 -0.00123149 0)
(-0.743817 -0.00120967 0)
(-0.738706 -0.00116822 0)
(-0.732423 -0.00121114 0)
(-0.725045 -0.00150771 0)
(-0.717528 -0.00206333 0)
(-0.711437 -0.00254069 0)
(-0.707358 -0.00251661 0)
(-0.704396 -0.00205114 0)
(-0.702297 -0.0014761 0)
(-0.700855 -0.000969302 0)
(-0.699904 -0.000573801 0)
(-0.699336 -0.000265079 0)
(-0.699085 -2.29574e-06 0)
(-0.699119 0.000242779 0)
(-0.69943 0.000482329 0)
(-0.700006 0.000719454 0)
(-0.700846 0.000956725 0)
(-0.701946 0.0011951 0)
(-0.703307 0.00143524 0)
(-0.704927 0.00167744 0)
(-0.706806 0.00192168 0)
(-0.708947 0.00216778 0)
(-0.711347 0.00241557 0)
(-0.714009 0.00266471 0)
(-0.716931 0.00291484 0)
(-0.720114 0.00316564 0)
(-0.723555 0.00341675 0)
(-0.727252 0.00366767 0)
(-0.731204 0.00391797 0)
(-0.735407 0.00416722 0)
(-0.739858 0.00441494 0)
(-0.744552 0.00466064 0)
(-0.749484 0.00490381 0)
(-0.754649 0.00514397 0)
(-0.760041 0.00538059 0)
(-0.765651 0.0056131 0)
(-0.771474 0.00584093 0)
(-0.777501 0.00606355 0)
(-0.783723 0.00628041 0)
(-0.790131 0.00649097 0)
(-0.796716 0.00669468 0)
(-0.803468 0.00689099 0)
(-0.810375 0.00707933 0)
(-0.817426 0.00725916 0)
(-0.824611 0.00742994 0)
(-0.831917 0.00759115 0)
(-0.839332 0.00774229 0)
(-0.846843 0.00788287 0)
(-0.854437 0.00801242 0)
(-0.8621 0.00813044 0)
(-0.86982 0.00823647 0)
(-0.877581 0.00833009 0)
(-0.88537 0.00841091 0)
(-0.893173 0.00847858 0)
(-0.900975 0.00853277 0)
(-0.908761 0.00857318 0)
(-0.916517 0.00859954 0)
(-0.924228 0.0086116 0)
(-0.93188 0.00860918 0)
(-0.939457 0.0085921 0)
(-0.946945 0.00856021 0)
(-0.95433 0.00851336 0)
(-0.961597 0.00845141 0)
(-0.968732 0.00837419 0)
(-0.975721 0.00828169 0)
(-0.982552 0.00817417 0)
(-0.98921 0.00805191 0)
(-0.995683 0.00791509 0)
(-1.00196 0.00776384 0)
(-1.00803 0.00759835 0)
(-1.01387 0.00741881 0)
(-1.01949 0.00722546 0)
(-1.02487 0.00701859 0)
(-1.02999 0.00679851 0)
(-1.03486 0.00656562 0)
(-1.03946 0.00632029 0)
(-1.04379 0.00606294 0)
(-1.04784 0.00579397 0)
(-1.05161 0.00551376 0)
(-1.05508 0.00522271 0)
(-1.05827 0.00492122 0)
(-1.06116 0.00460975 0)
(-1.06376 0.00428881 0)
(-1.06606 0.00395885 0)
(-1.06807 0.00362019 0)
(-1.06979 0.00327268 0)
(-1.07123 0.00291532 0)
(-1.07241 0.00254608 0)
(-1.07335 0.00216201 0)
(-1.0741 0.00175877 0)
(-1.0747 0.001331 0)
(-1.07521 0.000879631 0)
(-1.07569 0.000425756 0)
(-1.07616 6.20859e-06 0)
(-1.07641 -0.000363306 0)
(-1.07638 -0.000723544 0)
(-1.07608 -0.00107983 0)
(-1.07549 -0.0014328 0)
(-1.07461 -0.00178325 0)
(-1.07345 -0.00213083 0)
(-1.072 -0.00247527 0)
(-1.07027 -0.00281611 0)
(-1.06825 -0.00315287 0)
(-1.06597 -0.00348517 0)
(-1.0634 -0.0038128 0)
(-1.06057 -0.00413561 0)
(-1.05747 -0.00445349 0)
(-1.05411 -0.00476621 0)
(-1.0505 -0.00507354 0)
(-1.04662 -0.00537526 0)
(-1.0425 -0.00567129 0)
(-1.03813 -0.00596156 0)
(-1.03352 -0.00624606 0)
(-1.02868 -0.00652473 0)
(-1.0236 -0.00679752 0)
(-1.0183 -0.0070644 0)
(-1.01277 -0.00732536 0)
(-1.00703 -0.00758043 0)
(-1.00107 -0.00782962 0)
(-0.994903 -0.00807301 0)
(-0.988533 -0.00831065 0)
(-0.981962 -0.00854258 0)
(-0.975197 -0.00876888 0)
(-0.968241 -0.00898962 0)
(-0.961099 -0.00920488 0)
(-0.953775 -0.00941474 0)
(-0.946274 -0.00961932 0)
(-0.9386 -0.00981871 0)
(-0.930756 -0.0100131 0)
(-0.922747 -0.0102025 0)
(-0.914577 -0.0103872 0)
(-0.90625 -0.0105673 0)
(-0.897769 -0.010743 0)
(-0.889139 -0.0109146 0)
(-0.880363 -0.0110824 0)
(-0.871445 -0.0112465 0)
(-0.862388 -0.0114073 0)
(-0.853197 -0.0115648 0)
(-0.843875 -0.0117192 0)
(-0.834425 -0.0118707 0)
(-0.824853 -0.0120194 0)
(-0.81516 -0.0121653 0)
(-0.805351 -0.0123086 0)
(-0.795428 -0.0124494 0)
(-0.785396 -0.0125877 0)
(-0.775256 -0.0127236 0)
(-0.765012 -0.0128572 0)
(-0.754666 -0.0129885 0)
(-0.744221 -0.0131176 0)
(-0.73368 -0.0132445 0)
(-0.723045 -0.0133693 0)
(-0.71232 -0.0134921 0)
(-0.701505 -0.0136129 0)
(-0.690605 -0.0137319 0)
(-0.679622 -0.0138491 0)
(-0.668557 -0.0139646 0)
(-0.657414 -0.0140784 0)
(-0.646195 -0.0141905 0)
(-0.634902 -0.0143011 0)
(-0.623538 -0.0144101 0)
(-0.612105 -0.0145177 0)
(-0.600606 -0.014624 0)
(-0.589043 -0.0147289 0)
(-0.577417 -0.0148326 0)
(-0.565732 -0.0149351 0)
(-0.553989 -0.0150367 0)
(-0.542191 -0.0151375 0)
(-0.53034 -0.0152377 0)
(-0.518439 -0.0153376 0)
(-0.50649 -0.0154369 0)
(-0.494495 -0.0155351 0)
(-0.482459 -0.0156313 0)
(-0.470383 -0.0157243 0)
(-0.458271 -0.015813 0)
(-0.446127 -0.0158967 0)
(-0.433957 -0.0159754 0)
(-0.421765 -0.0160495 0)
(-0.409557 -0.0161198 0)
(-0.397338 -0.0161869 0)
(-0.385111 -0.0162506 0)
(-0.372879 -0.0163109 0)
(-0.360646 -0.0163678 0)
(-0.348415 -0.0164215 0)
(-0.336189 -0.0164726 0)
(-0.323972 -0.0165214 0)
(-0.311767 -0.0165678 0)
(-0.299577 -0.0166117 0)
(-0.287405 -0.0166527 0)
(-0.275254 -0.0166907 0)
(-0.263127 -0.0167257 0)
(-0.251027 -0.0167582 0)
(-0.238957 -0.0167884 0)
(-0.226921 -0.0168161 0)
(-0.214919 -0.0168408 0)
(-0.202952 -0.0168628 0)
(-0.191025 -0.0168828 0)
(-0.179139 -0.0169008 0)
(-0.167295 -0.0169169 0)
(-0.155493 -0.0169284 0)
(-0.143738 -0.0169355 0)
(-0.132011 -0.0169534 0)
(-0.120338 -0.0169347 0)
(-0.108694 -0.0169393 0)
(-0.0968893 -0.016998 0)
(-0.0856116 -0.0168696 0)
(-0.0731084 -0.0171416 0)
(-0.0630335 -0.0169649 0)
(-0.0491892 -0.0171214 0)
(-0.0417641 -0.0176031 0)
(-0.0270371 -0.017338 0)
(-0.0226592 -0.0162774 0)
(0.00054823 -0.0160369 0)
(-0.0105322 0.0347226 0)
(-0.0236571 0.023289 0)
(-0.0331421 0.0245897 0)
(-0.0476069 0.0276961 0)
(-0.0612155 0.0291494 0)
(-0.076439 0.0294494 0)
(-0.090802 0.0293538 0)
(-0.10545 0.029235 0)
(-0.119867 0.0291675 0)
(-0.134309 0.0291128 0)
(-0.148704 0.0290471 0)
(-0.163049 0.0289593 0)
(-0.177326 0.0288485 0)
(-0.191521 0.0287158 0)
(-0.205621 0.0285623 0)
(-0.219614 0.0283894 0)
(-0.233489 0.0281975 0)
(-0.247234 0.0279864 0)
(-0.26084 0.0277566 0)
(-0.274297 0.0275089 0)
(-0.287596 0.027244 0)
(-0.300728 0.0269627 0)
(-0.313687 0.0266656 0)
(-0.326464 0.0263532 0)
(-0.339053 0.0260264 0)
(-0.351449 0.0256859 0)
(-0.363646 0.0253323 0)
(-0.37564 0.0249664 0)
(-0.387427 0.0245888 0)
(-0.399002 0.0242002 0)
(-0.410362 0.0238013 0)
(-0.421504 0.0233928 0)
(-0.432425 0.022975 0)
(-0.443123 0.0225485 0)
(-0.453596 0.0221137 0)
(-0.463841 0.0216711 0)
(-0.473858 0.021221 0)
(-0.483645 0.0207637 0)
(-0.4932 0.0202995 0)
(-0.502523 0.0198287 0)
(-0.511613 0.0193513 0)
(-0.520468 0.0188674 0)
(-0.529088 0.018377 0)
(-0.537472 0.0178801 0)
(-0.545621 0.017377 0)
(-0.553533 0.0168682 0)
(-0.56121 0.0163532 0)
(-0.56865 0.0158302 0)
(-0.575848 0.0152957 0)
(-0.582802 0.0147457 0)
(-0.589508 0.0141777 0)
(-0.595966 0.013593 0)
(-0.602179 0.0129977 0)
(-0.608151 0.0124018 0)
(-0.613886 0.0118156 0)
(-0.619387 0.0112454 0)
(-0.62465 0.0106912 0)
(-0.629669 0.0101478 0)
(-0.634437 0.00960895 0)
(-0.638951 0.00907263 0)
(-0.643209 0.00854342 0)
(-0.647219 0.00803096 0)
(-0.650988 0.00754383 0)
(-0.654522 0.00708156 0)
(-0.657811 0.00662938 0)
(-0.660831 0.00616354 0)
(-0.66356 0.00566634 0)
(-0.665988 0.00512564 0)
(-0.66812 0.00454152 0)
(-0.669983 0.00394791 0)
(-0.671615 0.00338893 0)
(-0.673036 0.00288194 0)
(-0.674247 0.00242679 0)
(-0.675247 0.00200886 0)
(-0.676033 0.00160775 0)
(-0.676608 0.00121626 0)
(-0.67698 0.000839693 0)
(-0.677163 0.000485508 0)
(-0.677168 0.000156889 0)
(-0.677007 -0.000146859 0)
(-0.676698 -0.000435666 0)
(-0.676265 -0.000681891 0)
(-0.675714 -0.000900071 0)
(-0.675057 -0.00109167 0)
(-0.67431 -0.00125523 0)
(-0.673491 -0.00138947 0)
(-0.672615 -0.00149368 0)
(-0.6717 -0.00156752 0)
(-0.670758 -0.00161108 0)
(-0.669806 -0.00162544 0)
(-0.668856 -0.00161124 0)
(-0.667923 -0.0015701 0)
(-0.66702 -0.00150298 0)
(-0.666158 -0.0014114 0)
(-0.665349 -0.00129709 0)
(-0.664603 -0.00116199 0)
(-0.66393 -0.00100808 0)
(-0.663338 -0.000837245 0)
(-0.662836 -0.00065151 0)
(-0.662429 -0.00045315 0)
(-0.662125 -0.000244556 0)
(-0.661926 -2.84647e-05 0)
(-0.661836 0.000194673 0)
(-0.661858 0.000423736 0)
(-0.661994 0.000654826 0)
(-0.662244 0.000885521 0)
(-0.662609 0.00111435 0)
(-0.663085 0.00133929 0)
(-0.663673 0.00155836 0)
(-0.664368 0.0017696 0)
(-0.665169 0.00197169 0)
(-0.666069 0.00216384 0)
(-0.667063 0.00234401 0)
(-0.668145 0.00250991 0)
(-0.669309 0.00266142 0)
(-0.670548 0.0027968 0)
(-0.671853 0.00291607 0)
(-0.673216 0.00301773 0)
(-0.674629 0.00310171 0)
(-0.676084 0.00316747 0)
(-0.677571 0.00321454 0)
(-0.679081 0.00324315 0)
(-0.680604 0.00325358 0)
(-0.682133 0.00324616 0)
(-0.683657 0.00322162 0)
(-0.685168 0.00318093 0)
(-0.686657 0.00312478 0)
(-0.688117 0.00305422 0)
(-0.689539 0.00297069 0)
(-0.690916 0.00287549 0)
(-0.692241 0.00277012 0)
(-0.693508 0.0026561 0)
(-0.69471 0.00253503 0)
(-0.695843 0.00240876 0)
(-0.696901 0.00227947 0)
(-0.69788 0.00214988 0)
(-0.698776 0.0020234 0)
(-0.699586 0.00190397 0)
(-0.700309 0.00179541 0)
(-0.700948 0.00170044 0)
(-0.701508 0.00161986 0)
(-0.702002 0.00155213 0)
(-0.702441 0.00149262 0)
(-0.702833 0.00143377 0)
(-0.703183 0.00137098 0)
(-0.703503 0.00131024 0)
(-0.703805 0.00125766 0)
(-0.704102 0.00121542 0)
(-0.704405 0.00118501 0)
(-0.704727 0.00116752 0)
(-0.70508 0.0011633 0)
(-0.705474 0.00117249 0)
(-0.705921 0.00119543 0)
(-0.706431 0.00123225 0)
(-0.707014 0.0012827 0)
(-0.70768 0.00134664 0)
(-0.708437 0.00142417 0)
(-0.709292 0.00151498 0)