/*--------------------------------*- C++ -*----------------------------------*\
| =========                 |                                                 |
| \\      /  F ield         | OpenFOAM: The Open Source CFD Toolbox           |
|  \\    /   O peration     | Version:  v2006                                 |
|   \\  /    A nd           | Website:  www.openfoam.com                      |
|    \\/     M anipulation  |                                                 |
\*---------------------------------------------------------------------------*/
FoamFile
{
    version     2.0;
    format      ascii;
    class       volScalarField;
    location    "6.4";
    object      p_rgh;
}
// * * * * * * * * * * * * * * * * * * * * * * * * * * * * * * * * * * * * * //

dimensions      [1 -1 -2 0 0 0 0];


internalField   nonuniform List<scalar> 
52500
(
3544.41
3544.13
3543.58
3542.76
3541.67
3540.3
3538.67
3536.76
3534.59
3532.15
3529.44
3526.47
3523.24
3519.75
3515.99
3511.99
3507.72
3503.2
3498.44
3493.42
3488.16
3482.66
3476.92
3470.94
3464.73
3458.28
3451.61
3444.72
3437.6
3430.26
3422.71
3414.95
3406.98
3398.8
3390.42
3381.84
3373.07
3364.11
3354.96
3345.62
3336.11
3326.41
3316.55
3306.51
3296.31
3285.94
3275.41
3264.73
3253.9
3242.92
3231.79
3220.52
3209.12
3197.58
3185.91
3174.11
3162.19
3150.15
3137.99
3125.73
3113.35
3100.87
3088.29
3075.61
3062.84
3049.97
3037.02
3023.99
3010.88
2997.69
2984.43
2971.1
2957.71
2944.26
2930.74
2917.18
2903.56
2889.89
2876.19
2862.44
2848.65
2834.83
2820.97
2807.09
2793.19
2779.26
2765.32
2751.36
2737.39
2723.41
2709.43
2695.44
2681.46
2667.47
2653.49
2639.52
2625.56
2611.62
2597.68
2583.77
2569.88
2556
2542.16
2528.34
2514.54
2500.78
2487.05
2473.36
2459.7
2446.08
2432.5
2418.96
2405.46
2392.01
2378.6
2365.23
2351.92
2338.65
2325.43
2312.26
2299.15
2286.08
2273.07
2260.11
2247.2
2234.35
2221.56
2208.81
2196.13
2183.49
2170.92
2158.39
2145.93
2133.52
2121.16
2108.86
2096.62
2084.43
2072.31
2060.23
2048.2
2036.22
2024.29
2012.41
2000.57
1988.78
1977.04
1965.34
1953.69
1942.08
1930.51
1918.98
1907.49
1896.03
1884.62
1873.23
1861.88
1850.56
1839.27
1828
1816.76
1805.55
1794.35
1783.17
1772.01
1760.87
1749.73
1738.61
1727.49
1716.39
1705.28
1694.18
1683.07
1671.97
1660.85
1649.73
1638.6
1627.45
1616.29
1605.11
1593.9
1582.67
1571.41
1560.12
1548.8
1537.45
1526.05
1514.61
1503.13
1491.6
1480.02
1468.38
1456.69
1444.95
1433.14
1421.27
1409.34
1397.35
1385.28
1373.15
1360.94
1348.66
1336.3
1323.85
1311.32
1298.7
1286
1273.2
1260.31
1247.33
1234.25
1221.08
1207.81
1194.43
1180.96
1167.39
1153.72
1139.94
1126.05
1112.07
1097.97
1083.77
1069.47
1055.06
1040.54
1025.91
1011.18
996.348
981.407
966.362
951.213
935.961
920.608
905.155
889.602
873.953
858.207
842.368
826.436
810.415
794.307
778.113
761.837
745.481
729.048
712.541
695.964
679.319
662.61
645.84
629.014
612.135
595.206
578.233
561.219
544.168
527.086
509.976
492.842
475.691
458.526
441.352
424.175
406.999
389.829
372.671
355.529
338.41
321.318
304.259
287.239
270.262
253.334
236.461
219.649
202.902
186.227
169.628
153.112
136.682
120.346
104.107
87.9703
71.9419
56.0259
40.2274
24.5518
9.00448
-6.40905
-21.6827
-36.8106
-51.7876
-66.6085
-81.2669
-95.7569
-110.074
-124.213
-138.175
-151.956
-165.544
-178.934
-192.126
-205.115
-217.9
-230.477
-242.842
-254.983
-266.9
-278.59
-290.048
-301.273
-312.26
-323.006
-333.509
-343.765
-353.77
-363.522
-373.019
-382.256
-391.232
-399.944
-408.389
-416.564
-424.469
-432.099
-439.453
-446.53
-453.326
-459.84
-466.071
-472.016
-477.673
-483.042
-488.12
-492.906
-497.399
-501.598
-505.501
-509.108
-512.417
-515.428
-518.14
-520.551
-522.662
-524.472
-525.981
-527.188
-528.093
-528.691
-529.008
3545.15
3544.85
3544.31
3543.48
3542.39
3541.02
3539.39
3537.48
3535.3
3532.86
3530.15
3527.17
3523.93
3520.43
3516.68
3512.66
3508.39
3503.86
3499.09
3494.07
3488.8
3483.29
3477.54
3471.55
3465.33
3458.88
3452.2
3445.29
3438.16
3430.82
3423.26
3415.48
3407.5
3399.31
3390.92
3382.34
3373.56
3364.58
3355.42
3346.07
3336.55
3326.84
3316.97
3306.92
3296.7
3286.33
3275.79
3265.1
3254.25
3243.26
3232.12
3220.84
3209.42
3197.87
3186.19
3174.38
3162.44
3150.39
3138.22
3125.95
3113.56
3101.07
3088.47
3075.78
3063
3050.12
3037.16
3024.12
3011
2997.8
2984.53
2971.19
2957.79
2944.32
2930.8
2917.22
2903.6
2889.92
2876.2
2862.45
2848.65
2834.82
2820.96
2807.07
2793.16
2779.23
2765.28
2751.32
2737.34
2723.36
2709.37
2695.38
2681.39
2667.4
2653.41
2639.44
2625.47
2611.52
2597.59
2583.67
2569.77
2555.9
2542.05
2528.22
2514.43
2500.66
2486.93
2473.24
2459.58
2445.95
2432.37
2418.83
2405.33
2391.88
2378.47
2365.1
2351.79
2338.52
2325.3
2312.13
2299.01
2285.95
2272.94
2259.98
2247.07
2234.22
2221.43
2208.68
2196
2183.37
2170.79
2158.27
2145.8
2133.39
2121.04
2108.73
2096.48
2084.28
2072.12
2060.01
2047.96
2035.98
2024.05
2012.17
2000.33
1988.55
1976.81
1965.11
1953.47
1941.86
1930.29
1918.77
1907.29
1895.84
1884.43
1873.05
1861.7
1850.39
1839.1
1827.85
1816.61
1805.4
1794.21
1783.05
1771.89
1760.76
1749.63
1738.52
1727.42
1716.32
1705.22
1694.13
1683.03
1671.93
1660.82
1649.7
1638.57
1627.43
1616.27
1605.1
1593.9
1582.68
1571.43
1560.14
1548.83
1537.48
1526.09
1514.66
1503.19
1491.67
1480.1
1468.48
1456.81
1445.07
1433.28
1421.42
1409.5
1397.51
1385.45
1373.32
1361.12
1348.83
1336.47
1324.03
1311.5
1298.89
1286.19
1273.4
1260.52
1247.54
1234.47
1221.3
1208.04
1194.67
1181.2
1167.63
1153.96
1140.19
1126.31
1112.32
1098.23
1084.03
1069.72
1055.31
1040.8
1026.17
1011.44
996.603
981.66
966.613
951.462
936.207
920.851
905.394
889.837
874.183
858.432
842.588
826.65
810.623
794.508
778.308
762.024
745.661
729.22
712.706
696.12
679.466
662.748
645.969
629.133
612.244
595.306
578.322
561.297
544.235
527.142
510.02
492.875
475.711
458.533
441.347
424.157
406.968
389.786
372.614
355.46
338.328
321.223
304.151
287.118
270.128
253.188
236.303
219.478
202.718
186.03
169.418
152.889
136.445
120.094
103.839
87.6856
71.6381
55.7022
39.8831
24.1853
8.61421
-6.82518
-22.1277
-37.2868
-52.2931
-67.1358
-81.8075
-96.3043
-110.622
-124.752
-138.707
-152.493
-166.075
-179.466
-192.664
-205.663
-218.457
-231.038
-243.403
-255.552
-267.479
-279.179
-290.648
-301.884
-312.882
-323.639
-334.152
-344.418
-354.434
-364.196
-373.702
-382.949
-391.934
-400.656
-409.11
-417.295
-425.209
-432.848
-440.211
-447.296
-454.101
-460.623
-466.861
-472.813
-478.478
-483.853
-488.938
-493.73
-498.229
-502.433
-506.342
-509.953
-513.267
-516.282
-518.997
-521.412
-523.526
-525.338
-526.849
-528.058
-528.959
-529.559
-529.887
3546.56
3546.29
3545.75
3544.92
3543.83
3542.46
3540.81
3538.9
3536.72
3534.27
3531.55
3528.56
3525.31
3521.8
3518.03
3514.01
3509.72
3505.18
3500.4
3495.36
3490.08
3484.55
3478.78
3472.78
3466.54
3460.07
3453.37
3446.45
3439.3
3431.93
3424.35
3416.56
3408.56
3400.35
3391.94
3383.33
3374.53
3365.53
3356.35
3346.98
3337.43
3327.71
3317.81
3307.74
3297.5
3287.1
3276.54
3265.82
3254.95
3243.94
3232.77
3221.47
3210.03
3198.45
3186.75
3174.92
3162.96
3150.89
3138.7
3126.39
3113.98
3101.47
3088.85
3076.14
3063.33
3050.44
3037.46
3024.39
3011.25
2998.03
2984.74
2971.38
2957.96
2944.47
2930.93
2917.34
2903.69
2890
2876.27
2862.49
2848.68
2834.83
2820.96
2807.05
2793.13
2779.18
2765.22
2751.24
2737.25
2723.26
2709.25
2695.25
2681.25
2667.25
2653.25
2639.27
2625.29
2611.33
2597.38
2583.46
2569.55
2555.67
2541.81
2527.98
2514.18
2500.41
2486.67
2472.97
2459.31
2445.68
2432.09
2418.55
2405.05
2391.59
2378.18
2364.81
2351.49
2338.22
2325
2311.83
2298.72
2285.65
2272.64
2259.68
2246.77
2233.92
2221.13
2208.39
2195.7
2183.07
2170.5
2157.98
2145.52
2133.11
2120.76
2108.46
2096.22
2084.03
2071.9
2059.83
2047.81
2035.81
2023.88
2012
2000.17
1988.38
1976.65
1964.96
1953.31
1941.71
1930.14
1918.62
1907.14
1895.7
1884.29
1872.91
1861.57
1850.26
1838.98
1827.73
1816.5
1805.29
1794.11
1782.94
1771.8
1760.67
1749.55
1738.44
1727.34
1716.25
1705.16
1694.07
1682.98
1671.89
1660.79
1649.68
1638.56
1627.43
1616.28
1605.11
1593.92
1582.71
1571.47
1560.2
1548.89
1537.55
1526.17
1514.76
1503.29
1491.78
1480.22
1468.61
1456.95
1445.23
1433.45
1421.6
1409.69
1397.72
1385.67
1373.55
1361.36
1349.09
1336.74
1324.3
1311.79
1299.18
1286.49
1273.71
1260.84
1247.87
1234.81
1221.65
1208.39
1195.03
1181.57
1168.01
1154.34
1140.58
1126.7
1112.72
1098.64
1084.44
1070.14
1055.73
1041.22
1026.6
1011.87
997.031
982.088
967.04
951.886
936.629
921.27
905.808
890.247
874.587
858.829
842.977
827.032
810.996
794.871
778.66
762.365
745.989
729.536
713.007
696.407
679.738
663.003
646.208
629.355
612.447
595.49
578.487
561.442
544.359
527.244
510.1
492.932
475.746
458.545
441.334
424.119
406.905
389.696
372.499
355.317
338.158
321.025
303.925
286.862
269.843
252.873
235.957
219.101
202.311
185.591
168.948
152.387
135.913
119.532
103.249
87.0695
70.9985
55.0412
39.2027
23.4888
7.90493
-7.54357
-22.8513
-38.0128
-53.0229
-67.8757
-82.5647
-97.0836
-111.425
-125.569
-139.572
-153.389
-167.033
-180.476
-193.713
-206.741
-219.558
-232.161
-244.548
-256.716
-268.661
-280.379
-291.867
-303.12
-314.136
-324.911
-335.441
-345.725
-355.757
-365.536
-375.059
-384.322
-393.323
-402.06
-410.529
-418.729
-426.656
-434.31
-441.686
-448.784
-455.601
-462.136
-468.385
-474.349
-480.024
-485.409
-490.503
-495.305
-499.813
-504.025
-507.941
-511.56
-514.88
-517.9
-520.621
-523.04
-525.158
-526.974
-528.487
-529.696
-530.6
-531.21
-531.528
3548.77
3548.48
3547.93
3547.1
3546
3544.62
3542.97
3541.05
3538.86
3536.39
3533.66
3530.66
3527.4
3523.87
3520.09
3516.04
3511.74
3507.18
3502.37
3497.31
3492
3486.45
3480.66
3474.63
3468.36
3461.87
3455.14
3448.19
3441.01
3433.61
3426
3418.18
3410.15
3401.91
3393.46
3384.82
3375.99
3366.96
3357.74
3348.34
3338.76
3329
3319.06
3308.96
3298.69
3288.25
3277.66
3266.91
3256
3244.95
3233.75
3222.42
3210.94
3199.33
3187.59
3175.73
3163.74
3151.63
3139.4
3127.07
3114.63
3102.08
3089.43
3076.68
3063.85
3050.92
3037.91
3024.81
3011.64
2998.39
2985.07
2971.68
2958.23
2944.72
2931.15
2917.52
2903.85
2890.13
2876.37
2862.57
2848.73
2834.86
2820.96
2807.04
2793.09
2779.12
2765.14
2751.14
2737.13
2723.11
2709.09
2695.07
2681.05
2667.03
2653.02
2639.02
2625.03
2611.05
2597.09
2583.15
2569.23
2555.34
2541.47
2527.63
2513.82
2500.04
2486.29
2472.58
2458.91
2445.27
2431.68
2418.13
2404.62
2391.16
2377.74
2364.37
2351.05
2337.77
2324.55
2311.38
2298.26
2285.19
2272.18
2259.22
2246.32
2233.47
2220.67
2207.93
2195.25
2182.62
2170.05
2157.53
2145.07
2132.66
2120.31
2108.02
2095.78
2083.59
2071.46
2059.37
2047.34
2035.37
2023.45
2011.58
1999.75
1987.98
1976.25
1964.57
1952.93
1941.33
1929.78
1918.27
1906.8
1895.36
1883.96
1872.6
1861.27
1849.97
1838.7
1827.46
1816.24
1805.05
1793.88
1782.73
1771.6
1760.48
1749.38
1738.28
1727.2
1716.12
1705.05
1693.97
1682.9
1671.82
1660.74
1649.65
1638.55
1627.43
1616.3
1605.15
1593.97
1582.78
1571.55
1560.3
1549.01
1537.69
1526.33
1514.93
1503.48
1491.99
1480.45
1468.86
1457.21
1445.5
1433.74
1421.91
1410.02
1398.06
1386.03
1373.93
1361.75
1349.49
1337.16
1324.74
1312.24
1299.65
1286.97
1274.2
1261.34
1248.39
1235.34
1222.19
1208.94
1195.6
1182.15
1168.59
1154.94
1141.18
1127.31
1113.34
1099.25
1085.07
1070.77
1056.36
1041.85
1027.23
1012.5
997.663
982.718
967.667
952.51
937.248
921.882
906.413
890.843
875.173
859.406
843.542
827.584
811.534
795.394
779.167
762.855
746.461
729.988
713.439
696.817
680.125
663.367
646.547
629.668
612.734
595.749
578.717
561.642
544.53
527.383
510.207
493.006
475.785
458.549
441.303
424.052
406.801
389.555
372.319
355.099
337.9
320.728
303.587
286.484
269.424
252.412
235.454
218.555
201.722
184.959
168.273
151.667
135.149
118.724
102.396
86.1714
70.0554
54.0532
38.17
22.4112
6.78231
-8.71137
-24.0643
-39.2706
-54.3244
-69.2201
-83.9531
-98.5211
-112.929
-127.212
-141.218
-155.023
-168.651
-182.096
-195.35
-208.403
-221.25
-233.885
-246.304
-258.503
-270.478
-282.226
-293.742
-305.024
-316.067
-326.869
-337.425
-347.734
-357.791
-367.594
-377.14
-386.426
-395.45
-404.208
-412.698
-420.918
-428.865
-436.537
-443.932
-451.047
-457.881
-464.432
-470.697
-476.675
-482.364
-487.763
-492.87
-497.684
-502.203
-506.426
-510.352
-513.979
-517.307
-520.336
-523.063
-525.488
-527.611
-529.431
-530.948
-532.16
-533.066
-533.677
-533.992
3551.68
3551.4
3550.84
3550.01
3548.9
3547.51
3545.85
3543.92
3541.71
3539.23
3536.48
3533.46
3530.18
3526.63
3522.82
3518.75
3514.42
3509.84
3505
3499.91
3494.57
3488.99
3483.16
3477.1
3470.8
3464.26
3457.5
3450.51
3443.29
3435.86
3428.21
3420.34
3412.27
3403.99
3395.5
3386.82
3377.94
3368.87
3359.6
3350.16
3340.53
3330.72
3320.74
3310.59
3300.28
3289.79
3279.15
3268.36
3257.41
3246.31
3235.07
3223.68
3212.16
3200.5
3188.72
3176.81
3164.77
3152.62
3140.35
3127.97
3115.48
3102.89
3090.2
3077.41
3064.53
3051.55
3038.5
3025.36
3012.15
2998.86
2985.49
2972.07
2958.58
2945.03
2931.42
2917.76
2904.05
2890.29
2876.5
2862.66
2848.79
2834.89
2820.95
2807
2793.02
2779.02
2765.01
2750.98
2736.94
2722.9
2708.85
2694.81
2680.76
2666.72
2652.69
2638.66
2624.65
2610.66
2596.68
2582.72
2568.78
2554.87
2540.99
2527.13
2513.31
2499.51
2485.76
2472.03
2458.35
2444.71
2431.1
2417.54
2404.03
2390.56
2377.14
2363.76
2350.43
2337.16
2323.93
2310.76
2297.64
2284.57
2271.55
2258.6
2245.69
2232.84
2220.05
2207.31
2194.63
2182.01
2169.44
2156.93
2144.47
2132.07
2119.73
2107.44
2095.21
2083.03
2070.91
2058.84
2046.82
2034.85
2022.94
2011.07
1999.26
1987.49
1975.77
1964.1
1952.47
1940.89
1929.35
1917.85
1906.39
1894.96
1883.58
1872.23
1860.91
1849.63
1838.37
1827.15
1815.94
1804.77
1793.61
1782.48
1771.36
1760.26
1749.17
1738.1
1727.03
1715.97
1704.91
1693.86
1682.81
1671.75
1660.69
1649.61
1638.53
1627.44
1616.33
1605.2
1594.04
1582.87
1571.67
1560.43
1549.17
1537.87
1526.53
1515.15
1503.73
1492.26
1480.74
1469.17
1457.55
1445.87
1434.13
1422.32
1410.45
1398.52
1386.51
1374.43
1362.27
1350.03
1337.72
1325.32
1312.84
1300.27
1287.61
1274.86
1262.02
1249.08
1236.05
1222.92
1209.68
1196.35
1182.92
1169.38
1155.73
1141.98
1128.12
1114.16
1100.08
1085.9
1071.61
1057.21
1042.7
1028.08
1013.35
998.51
983.563
968.507
953.345
938.076
922.702
907.224
891.643
875.961
860.18
844.3
828.326
812.257
796.098
779.849
763.515
747.097
730.598
714.022
697.372
680.65
663.862
647.009
630.096
613.127
596.104
579.035
561.921
544.768
527.579
510.36
493.115
475.849
458.567
441.274
423.974
406.674
389.377
372.091
354.818
337.567
320.34
303.145
285.987
268.87
251.802
234.787
217.831
200.94
184.119
167.374
150.711
134.135
117.651
101.266
84.9849
68.8128
52.7555
36.8184
21.007
5.32688
-10.2165
-25.6176
-40.8709
-55.9706
-70.9103
-85.6823
-100.276
-114.671
-128.817
-142.994
-156.949
-170.681
-184.198
-197.508
-210.609
-223.501
-236.179
-248.64
-260.88
-272.895
-284.682
-296.237
-307.556
-318.636
-329.474
-340.066
-350.409
-360.5
-370.336
-379.914
-389.231
-398.284
-407.072
-415.59
-423.838
-431.811
-439.509
-446.928
-454.068
-460.924
-467.497
-473.783
-479.781
-485.489
-490.906
-496.03
-500.86
-505.394
-509.631
-513.57
-517.209
-520.549
-523.587
-526.323
-528.757
-530.887
-532.713
-534.234
-535.451
-536.361
-536.972
-537.288
3555.34
3555.05
3554.49
3553.65
3552.53
3551.14
3549.46
3547.51
3545.29
3542.79
3540.02
3536.98
3533.67
3530.09
3526.25
3522.15
3517.79
3513.17
3508.29
3503.16
3497.79
3492.16
3486.3
3480.19
3473.84
3467.26
3460.45
3453.41
3446.15
3438.67
3430.96
3423.05
3414.92
3406.59
3398.05
3389.31
3380.37
3371.25
3361.93
3352.43
3342.74
3332.88
3322.84
3312.63
3302.26
3291.72
3281.02
3270.16
3259.16
3248
3236.7
3225.26
3213.68
3201.96
3190.12
3178.15
3166.06
3153.85
3141.52
3129.09
3116.54
3103.9
3091.15
3078.31
3065.37
3052.35
3039.24
3026.05
3012.78
2999.44
2986.03
2972.55
2959.01
2945.41
2931.76
2918.05
2904.3
2890.5
2876.66
2862.78
2848.86
2834.92
2820.95
2806.95
2792.93
2778.9
2764.85
2750.79
2736.72
2722.64
2708.56
2694.48
2680.41
2666.34
2652.28
2638.23
2624.19
2610.17
2596.17
2582.19
2568.23
2554.3
2540.4
2526.52
2512.68
2498.87
2485.1
2471.36
2457.67
2444.01
2430.4
2416.83
2403.3
2389.82
2376.39
2363.01
2349.68
2336.39
2323.16
2309.99
2296.86
2283.79
2270.78
2257.82
2244.92
2232.07
2219.28
2206.54
2193.86
2181.24
2168.68
2156.17
2143.72
2131.33
2118.99
2106.71
2094.48
2082.31
2070.19
2058.13
2046.12
2034.16
2022.26
2010.41
1998.6
1986.85
1975.14
1963.48
1951.87
1940.3
1928.77
1917.29
1905.84
1894.44
1883.07
1871.73
1860.43
1849.17
1837.93
1826.72
1815.54
1804.38
1793.25
1782.13
1771.04
1759.96
1748.89
1737.84
1726.8
1715.76
1704.73
1693.7
1682.67
1671.64
1660.6
1649.55
1638.5
1627.43
1616.35
1605.24
1594.12
1582.97
1571.8
1560.59
1549.36
1538.09
1526.78
1515.43
1504.03
1492.59
1481.11
1469.56
1457.97
1446.32
1434.6
1422.83
1410.99
1399.08
1387.1
1375.04
1362.91
1350.71
1338.42
1326.04
1313.59
1301.04
1288.41
1275.68
1262.86
1249.95
1236.93
1223.82
1210.61
1197.29
1183.87
1170.35
1156.72
1142.98
1129.14
1115.18
1101.12
1086.95
1072.66
1058.27
1043.76
1029.14
1014.41
999.573
984.623
969.563
954.395
939.118
923.734
908.245
892.651
876.953
861.155
845.257
829.262
813.171
796.987
780.712
764.35
747.902
731.371
714.761
698.076
681.317
664.489
647.595
630.64
613.626
596.558
579.44
562.277
545.073
527.832
510.559
493.258
475.935
458.595
441.242
423.881
406.518
389.158
371.807
354.469
337.15
319.856
302.593
285.365
268.179
251.04
233.954
216.927
199.964
183.071
166.254
149.518
132.87
116.314
99.8563
83.5028
67.2588
51.1298
35.1214
19.2391
3.48823
-12.1257
-27.5972
-42.921
-58.0919
-73.1053
-87.9574
-102.647
-117.18
-131.582
-145.658
-159.569
-173.311
-186.866
-200.224
-213.378
-226.323
-239.054
-251.567
-263.858
-275.924
-287.76
-299.363
-310.729
-321.855
-332.738
-343.374
-353.76
-363.892
-373.769
-383.386
-392.742
-401.833
-410.657
-419.211
-427.492
-435.499
-443.228
-450.679
-457.848
-464.733
-471.333
-477.645
-483.668
-489.4
-494.84
-499.985
-504.835
-509.388
-513.643
-517.598
-521.253
-524.606
-527.657
-530.404
-532.848
-534.987
-536.821
-538.349
-539.57
-540.484
-541.096
-541.413
3559.75
3559.45
3558.89
3558.04
3556.91
3555.5
3553.81
3551.84
3549.59
3547.07
3544.27
3541.2
3537.86
3534.25
3530.38
3526.24
3521.84
3517.17
3512.25
3507.08
3501.66
3495.98
3490.07
3483.91
3477.51
3470.87
3464
3456.91
3449.58
3442.04
3434.27
3426.3
3418.11
3409.71
3401.1
3392.3
3383.3
3374.1
3364.72
3355.15
3345.4
3335.47
3325.36
3315.08
3304.64
3294.03
3283.26
3272.33
3261.26
3250.03
3238.66
3227.15
3215.5
3203.71
3191.8
3179.76
3167.6
3155.32
3142.93
3130.43
3117.81
3105.1
3092.29
3079.38
3066.38
3053.29
3040.12
3026.86
3013.53
3000.13
2986.66
2973.12
2959.52
2945.87
2932.15
2918.39
2904.58
2890.73
2876.83
2862.9
2848.94
2834.95
2820.92
2806.88
2792.82
2778.74
2764.64
2750.54
2736.43
2722.31
2708.2
2694.08
2679.97
2665.86
2651.77
2637.69
2623.62
2609.57
2595.54
2581.53
2567.55
2553.6
2539.67
2525.77
2511.91
2498.08
2484.29
2470.54
2456.83
2443.16
2429.53
2415.95
2402.41
2388.92
2375.48
2362.09
2348.75
2335.46
2322.23
2309.05
2295.92
2282.85
2269.83
2256.87
2243.97
2231.13
2218.34
2205.6
2192.93
2180.31
2167.76
2155.25
2142.81
2130.42
2118.1
2105.82
2093.61
2081.45
2069.34
2057.29
2045.3
2033.35
2021.46
2009.62
1997.83
1986.09
1974.4
1962.76
1951.16
1939.61
1928.1
1916.63
1905.21
1893.82
1882.47
1871.16
1859.88
1848.63
1837.42
1826.23
1815.07
1803.94
1792.83
1781.74
1770.67
1759.61
1748.57
1737.55
1726.53
1715.52
1704.52
1693.52
1682.52
1671.51
1660.51
1649.49
1638.47
1627.43
1616.38
1605.31
1594.21
1583.1
1571.96
1560.79
1549.59
1538.35
1527.07
1515.76
1504.4
1492.99
1481.54
1470.03
1458.47
1446.86
1435.18
1423.44
1411.63
1399.75
1387.81
1375.79
1363.69
1351.51
1339.26
1326.92
1314.49
1301.97
1289.37
1276.67
1263.88
1250.99
1238
1224.91
1211.72
1198.43
1185.03
1171.53
1157.91
1144.19
1130.36
1116.42
1102.37
1088.21
1073.93
1059.54
1045.04
1030.43
1015.7
1000.86
985.904
970.839
955.664
940.378
924.983
909.479
893.87
878.155
862.336
846.416
830.395
814.278
798.064
781.758
765.362
748.878
732.309
715.659
698.93
682.127
665.251
648.308
631.301
614.234
597.111
579.935
562.713
545.447
528.142
510.804
493.436
476.044
458.633
441.208
423.773
406.335
388.899
371.469
354.053
336.654
319.278
301.933
284.622
267.352
250.128
232.957
215.843
198.794
181.815
164.911
148.088
131.353
114.71
98.1662
81.7267
65.3973
49.1837
33.0914
17.126
1.29306
-14.402
-29.9537
-45.357
-60.6065
-75.6974
-90.6249
-105.385
-119.972
-134.379
-148.584
-162.604
-176.43
-190.058
-203.485
-216.705
-229.715
-242.51
-255.086
-267.439
-279.565
-291.46
-303.121
-314.544
-325.726
-336.662
-347.351
-357.788
-367.971
-377.896
-387.561
-396.963
-406.099
-414.966
-423.562
-431.885
-439.931
-447.699
-455.186
-462.391
-469.31
-475.943
-482.287
-488.34
-494.101
-499.567
-504.739
-509.613
-514.189
-518.465
-522.44
-526.114
-529.484
-532.55
-535.312
-537.767
-539.917
-541.76
-543.296
-544.523
-545.442
-546.056
-546.375
3564.9
3564.6
3564.03
3563.17
3562.03
3560.6
3558.89
3556.9
3554.63
3552.08
3549.25
3546.15
3542.77
3539.12
3535.21
3531.02
3526.57
3521.86
3516.89
3511.66
3506.18
3500.45
3494.47
3488.25
3481.79
3475.09
3468.15
3460.99
3453.59
3445.98
3438.14
3430.09
3421.83
3413.35
3404.67
3395.79
3386.71
3377.44
3367.98
3358.33
3348.49
3338.48
3328.29
3317.94
3307.41
3296.72
3285.87
3274.86
3263.7
3252.39
3240.94
3229.35
3217.62
3205.75
3193.76
3181.64
3169.4
3157.04
3144.56
3131.98
3119.29
3106.5
3093.61
3080.62
3067.54
3054.38
3041.13
3027.81
3014.4
3000.93
2987.39
2973.78
2960.11
2946.39
2932.61
2918.78
2904.9
2890.99
2877.03
2863.04
2849.02
2834.97
2820.89
2806.79
2792.67
2778.54
2764.4
2750.24
2736.08
2721.92
2707.76
2693.6
2679.45
2665.3
2651.17
2637.05
2622.95
2608.86
2594.8
2580.76
2566.75
2552.77
2538.81
2524.89
2511.01
2497.16
2483.34
2469.57
2455.84
2442.15
2428.51
2414.91
2401.37
2387.87
2374.41
2361.02
2347.67
2334.37
2321.13
2307.95
2294.82
2281.74
2268.73
2255.77
2242.86
2230.02
2217.23
2204.51
2191.84
2179.23
2166.67
2154.18
2141.74
2129.37
2117.05
2104.78
2092.58
2080.43
2068.34
2056.3
2044.31
2032.39
2020.51
2008.69
1996.91
1985.19
1973.52
1961.89
1950.31
1938.78
1927.29
1915.84
1904.44
1893.08
1881.75
1870.46
1859.2
1847.98
1836.79
1825.63
1814.5
1803.39
1792.31
1781.25
1770.21
1759.19
1748.18
1737.18
1726.2
1715.22
1704.25
1693.29
1682.32
1671.35
1660.38
1649.4
1638.41
1627.41
1616.4
1605.37
1594.32
1583.24
1572.14
1561.01
1549.84
1538.65
1527.41
1516.14
1504.82
1493.46
1482.04
1470.58
1459.06
1447.48
1435.84
1424.14
1412.38
1400.54
1388.63
1376.65
1364.59
1352.45
1340.23
1327.93
1315.54
1303.06
1290.49
1277.82
1265.06
1252.21
1239.25
1226.19
1213.03
1199.76
1186.38
1172.9
1159.31
1145.61
1131.8
1117.88
1103.84
1089.69
1075.42
1061.04
1046.54
1031.93
1017.21
1002.36
987.409
972.338
957.155
941.859
926.451
910.932
895.304
879.568
863.726
847.78
831.731
815.582
799.335
782.992
766.556
750.03
733.417
716.719
699.941
683.084
666.154
649.153
632.086
614.956
597.767
580.524
563.231
545.893
528.514
511.099
493.652
476.18
458.686
441.176
423.655
406.129
388.602
371.082
353.572
336.079
318.608
301.166
283.757
266.388
249.066
231.794
214.58
197.43
180.349
163.344
146.419
129.582
112.838
96.1927
79.6522
63.2223
46.9086
30.7169
14.6527
-1.27815
-17.0703
-32.7182
-48.2165
-63.5599
-78.7432
-93.7615
-108.61
-123.282
-137.772
-152.067
-166.171
-180.08
-193.79
-207.297
-220.596
-233.683
-246.553
-259.203
-271.628
-283.824
-295.788
-307.517
-319.006
-330.251
-341.251
-352.001
-362.498
-372.739
-382.721
-392.442
-401.897
-411.085
-420.003
-428.649
-437.019
-445.111
-452.924
-460.454
-467.7
-474.66
-481.331
-487.711
-493.8
-499.594
-505.093
-510.294
-515.197
-519.8
-524.101
-528.1
-531.795
-535.185
-538.269
-541.047
-543.517
-545.679
-547.533
-549.077
-550.312
-551.235
-551.854
-552.174
3570.82
3570.52
3569.94
3569.07
3567.91
3566.47
3564.73
3562.72
3560.42
3557.83
3554.97
3551.83
3548.41
3544.71
3540.74
3536.51
3532
3527.23
3522.2
3516.91
3511.37
3505.57
3499.52
3493.23
3486.69
3479.91
3472.9
3465.66
3458.18
3450.49
3442.57
3434.43
3426.08
3417.52
3408.75
3399.78
3390.62
3381.25
3371.7
3361.96
3352.03
3341.93
3331.65
3321.19
3310.57
3299.79
3288.85
3277.74
3266.49
3255.09
3243.54
3231.85
3220.03
3208.07
3195.98
3183.77
3171.44
3158.99
3146.42
3133.75
3120.97
3108.08
3095.1
3082.03
3068.87
3055.62
3042.28
3028.87
3015.38
3001.83
2988.2
2974.52
2960.77
2946.97
2933.11
2919.21
2905.26
2891.27
2877.24
2863.18
2849.09
2834.97
2820.83
2806.67
2792.49
2778.3
2764.1
2749.89
2735.67
2721.46
2707.24
2693.04
2678.83
2664.64
2650.47
2636.3
2622.16
2608.04
2593.94
2579.86
2565.82
2551.8
2537.82
2523.87
2509.95
2496.08
2482.24
2468.45
2454.7
2440.99
2427.33
2413.72
2400.16
2386.64
2373.18
2359.77
2346.41
2333.11
2319.87
2306.68
2293.54
2280.47
2267.45
2254.49
2241.59
2228.74
2215.96
2203.24
2190.57
2177.97
2165.42
2152.94
2140.51
2128.14
2115.84
2103.59
2091.39
2079.26
2067.18
2055.16
2043.19
2031.28
2019.42
2007.61
1995.86
1984.16
1972.5
1960.9
1949.34
1937.83
1926.37
1914.95
1903.57
1892.23
1880.93
1869.66
1858.44
1847.24
1836.08
1824.95
1813.85
1802.78
1791.73
1780.7
1769.69
1758.7
1747.73
1736.77
1725.82
1714.88
1703.95
1693.02
1682.09
1671.17
1660.24
1649.3
1638.35
1627.4
1616.42
1605.43
1594.43
1583.39
1572.34
1561.25
1550.14
1538.98
1527.8
1516.57
1505.3
1493.98
1482.61
1471.2
1459.72
1448.19
1436.6
1424.95
1413.23
1401.44
1389.58
1377.64
1365.62
1353.53
1341.35
1329.09
1316.74
1304.3
1291.77
1279.15
1266.42
1253.6
1240.68
1227.65
1214.52
1201.28
1187.94
1174.48
1160.92
1147.24
1133.45
1119.54
1105.52
1091.39
1077.13
1062.76
1048.27
1033.67
1018.94
1004.1
989.142
974.066
958.874
943.566
928.143
912.607
896.959
881.2
865.332
849.356
833.275
817.09
800.804
784.419
767.938
751.364
734.7
717.948
701.112
684.195
667.202
650.135
632.998
615.796
598.533
581.212
563.839
546.418
528.953
511.45
493.913
476.347
458.758
441.151
423.53
405.903
388.273
370.647
353.031
335.429
317.849
300.296
282.775
265.293
247.856
230.47
213.14
195.874
178.676
161.554
144.513
127.559
110.698
93.9363
77.2798
60.7345
44.3061
28.0004
11.8234
-4.21945
-20.1224
-35.8799
-51.4865
-66.9368
-82.2255
-97.3473
-112.297
-127.068
-141.656
-156.052
-170.255
-184.261
-198.066
-211.665
-225.054
-238.229
-251.186
-263.92
-276.428
-288.705
-300.748
-312.554
-324.118
-335.438
-346.509
-357.329
-367.895
-378.202
-388.249
-398.033
-407.55
-416.798
-425.774
-434.475
-442.9
-451.045
-458.909
-466.489
-473.782
-480.787
-487.502
-493.925
-500.053
-505.886
-511.421
-516.658
-521.593
-526.227
-530.557
-534.582
-538.302
-541.715
-544.82
-547.616
-550.103
-552.28
-554.146
-555.7
-556.943
-557.872
-558.495
-558.818
3577.51
3577.2
3576.61
3575.73
3574.56
3573.09
3571.33
3569.29
3566.95
3564.33
3561.43
3558.24
3554.77
3551.02
3547
3542.7
3538.13
3533.3
3528.2
3522.84
3517.22
3511.34
3505.22
3498.84
3492.22
3485.36
3478.26
3470.92
3463.36
3455.57
3447.55
3439.32
3430.87
3422.22
3413.35
3404.28
3395.01
3385.54
3375.89
3366.04
3356.01
3345.8
3335.42
3324.86
3314.13
3303.24
3292.19
3280.98
3269.62
3258.12
3246.46
3234.67
3222.74
3210.67
3198.48
3186.16
3173.72
3161.17
3148.5
3135.72
3122.84
3109.86
3096.78
3083.6
3070.34
3056.99
3043.56
3030.05
3016.47
3002.82
2989.11
2975.33
2961.49
2947.6
2933.66
2919.67
2905.64
2891.57
2877.46
2863.32
2849.16
2834.96
2820.75
2806.52
2792.27
2778.01
2763.74
2749.47
2735.19
2720.91
2706.64
2692.38
2678.12
2663.88
2649.65
2635.44
2621.25
2607.09
2592.95
2578.83
2564.75
2550.7
2536.68
2522.7
2508.75
2494.85
2480.99
2467.17
2453.39
2439.67
2425.99
2412.36
2398.78
2385.25
2371.77
2358.35
2344.99
2331.68
2318.42
2305.23
2292.09
2279.01
2265.99
2253.03
2240.13
2227.29
2214.51
2201.8
2189.14
2176.54
2164
2151.53
2139.11
2126.76
2114.46
2102.22
2090.05
2077.93
2065.86
2053.86
2041.91
2030.02
2018.18
2006.39
1994.66
1982.98
1971.35
1959.77
1948.24
1936.75
1925.31
1913.92
1902.57
1891.26
1879.98
1868.75
1857.56
1846.4
1835.27
1824.17
1813.1
1802.07
1791.05
1780.06
1769.09
1758.14
1747.21
1736.29
1725.38
1714.48
1703.59
1692.71
1681.83
1670.95
1660.06
1649.17
1638.27
1627.36
1616.44
1605.5
1594.54
1583.56
1572.55
1561.52
1550.45
1539.36
1528.22
1517.05
1505.83
1494.56
1483.25
1471.89
1460.47
1448.99
1437.45
1425.85
1414.18
1402.44
1390.63
1378.75
1366.79
1354.74
1342.61
1330.4
1318.1
1305.71
1293.22
1280.64
1267.96
1255.18
1242.29
1229.3
1216.21
1203.01
1189.7
1176.27
1162.74
1149.08
1135.32
1121.43
1107.43
1093.31
1079.07
1064.71
1050.23
1035.63
1020.91
1006.07
991.11
976.028
960.826
945.506
930.067
914.512
898.841
883.056
867.159
851.15
835.032
818.807
802.478
786.046
769.515
752.887
736.165
719.352
702.451
685.467
668.402
651.26
634.045
616.762
599.414
582.006
564.541
547.026
529.465
511.862
494.222
476.551
458.855
441.137
423.404
405.661
387.915
370.17
352.432
334.708
317.004
299.324
281.677
264.066
246.5
228.983
211.523
194.125
176.795
159.541
142.367
125.281
108.288
91.3942
74.6063
57.9302
41.3717
24.937
8.63185
-7.5379
-23.5665
-39.4483
-55.1776
-70.7489
-86.157
-101.396
-116.462
-131.35
-146.055
-160.558
-174.869
-188.982
-202.892
-216.595
-230.086
-243.36
-256.414
-269.244
-281.845
-294.213
-306.345
-318.238
-329.887
-341.289
-352.442
-363.34
-373.983
-384.365
-394.485
-404.34
-413.926
-423.241
-432.282
-441.047
-449.533
-457.738
-465.659
-473.294
-480.641
-487.698
-494.462
-500.932
-507.106
-512.982
-518.559
-523.834
-528.807
-533.475
-537.837
-541.893
-545.641
-549.08
-552.208
-555.026
-557.531
-559.724
-561.604
-563.17
-564.422
-565.358
-565.985
-566.311
3584.98
3584.67
3584.07
3583.17
3581.98
3580.49
3578.7
3576.62
3574.25
3571.59
3568.64
3565.4
3561.87
3558.06
3553.98
3549.61
3544.98
3540.07
3534.89
3529.45
3523.74
3517.78
3511.56
3505.1
3498.38
3491.42
3484.22
3476.79
3469.12
3461.22
3453.1
3444.76
3436.21
3427.44
3418.46
3409.28
3399.89
3390.31
3380.54
3370.58
3360.43
3350.11
3339.6
3328.93
3318.08
3307.07
3295.9
3284.58
3273.1
3261.47
3249.7
3237.78
3225.73
3213.55
3201.24
3188.81
3176.25
3163.58
3150.8
3137.9
3124.91
3111.81
3098.62
3085.33
3071.96
3058.5
3044.96
3031.35
3017.66
3003.91
2990.09
2976.21
2962.27
2948.28
2934.25
2920.16
2906.04
2891.88
2877.68
2863.46
2849.2
2834.93
2820.63
2806.32
2791.99
2777.66
2763.32
2748.97
2734.63
2720.29
2705.95
2691.62
2677.31
2663.01
2648.73
2634.46
2620.22
2606.01
2591.82
2577.66
2563.54
2549.44
2535.39
2521.37
2507.39
2493.46
2479.56
2465.72
2451.92
2438.17
2424.47
2410.82
2397.22
2383.68
2370.19
2356.76
2343.38