/*--------------------------------*- C++ -*----------------------------------*\
| =========                 |                                                 |
| \\      /  F ield         | OpenFOAM: The Open Source CFD Toolbox           |
|  \\    /   O peration     | Version:  v2006                                 |
|   \\  /    A nd           | Website:  www.openfoam.com                      |
|    \\/     M anipulation  |                                                 |
\*---------------------------------------------------------------------------*/
FoamFile
{
    version     2.0;
    format      ascii;
    class       volScalarField;
    location    "0";
    object      f;
}
// * * * * * * * * * * * * * * * * * * * * * * * * * * * * * * * * * * * * * //

dimensions      [0 0 0 0 0 0 0];


internalField   nonuniform List<scalar> 
2500
(
-1.88248e-56
-3.37126e-57
7.12797e-56
-7.1605e-58
-3.10112e-56
-1.56776e-56
-1.66228e-61
7.47355e-58
3.95919e-58
5.54074e-59
4.31111e-60
2.31623e-61
9.53791e-63
3.20107e-64
9.11671e-66
2.26638e-67
5.01921e-69
1.00525e-70
1.84121e-72
3.11018e-74
4.87679e-76
7.13453e-78
9.77899e-80
1.26025e-81
1.53183e-83
1.76106e-85
1.91988e-87
1.98956e-89
1.9643e-91
1.85162e-93
1.6698e-95
1.44333e-97
1.19794e-99
9.56314e-102
7.35447e-104
5.45678e-106
3.9117e-108
2.71277e-110
1.82231e-112
1.18714e-114
7.50812e-117
4.61496e-119
2.75956e-121
1.60677e-123
9.11779e-126
5.04678e-128
2.72691e-130
1.43942e-132
7.42799e-135
3.62519e-137
-4.80251e-55
-9.14845e-56
1.89639e-54
-6.6902e-56
-8.33416e-55
-4.66667e-55
-1.04027e-56
1.78109e-56
9.99361e-57
1.40451e-57
1.09247e-58
5.86252e-60
2.4116e-61
8.09029e-63
2.30508e-64
5.73767e-66
1.27327e-67
2.55663e-69
4.69593e-71
7.9548e-73
1.25055e-74
1.83353e-76
2.5174e-78
3.248e-80
3.95029e-82
4.54175e-84
4.94925e-86
5.12446e-88
5.05306e-90
4.75562e-92
4.28055e-94
3.69208e-96
3.05714e-98
2.43432e-100
1.86706e-102
1.38138e-104
9.87338e-107
6.82647e-109
4.57143e-111
2.96859e-113
1.87145e-115
1.14654e-117
6.83318e-120
3.96536e-122
2.24262e-124
1.23711e-126
6.66171e-129
3.50443e-131
1.80225e-133
8.76676e-136
-1.18393e-53
-2.40574e-54
4.87511e-53
-3.38872e-54
-2.16886e-53
-1.34813e-53
-5.57455e-55
4.05158e-55
2.43629e-55
3.4408e-56
2.67619e-57
1.43473e-58
5.89744e-60
1.97838e-61
5.6419e-63
1.40694e-64
3.13038e-66
6.30524e-68
1.16197e-69
1.97469e-71
3.11329e-73
4.57547e-75
6.29327e-77
8.12919e-79
9.89245e-81
1.13735e-82
1.23875e-84
1.28135e-86
1.26175e-88
1.18544e-90
1.06486e-92
9.16387e-95
7.5691e-97
6.01104e-99
4.59734e-101
3.39144e-103
2.41664e-105
1.66563e-107
1.11183e-109
7.19637e-112
4.52163e-114
2.76086e-116
1.63982e-118
9.48343e-121
5.34488e-123
2.9382e-125
1.57669e-127
8.26532e-130
4.23581e-132
2.05348e-134
-2.847e-52
-6.18304e-53
1.22186e-51
-1.40458e-52
-5.51745e-52
-3.81116e-52
-2.18884e-53
8.84815e-54
5.79035e-54
8.22428e-55
6.39816e-56
3.42771e-57
1.40838e-58
4.72658e-60
1.34988e-61
3.37454e-63
7.53259e-65
1.52283e-66
2.81703e-68
4.80443e-70
7.59821e-72
1.11947e-73
1.54257e-75
1.99484e-77
2.42871e-79
2.79202e-81
3.03898e-83
3.14e-85
3.08733e-87
2.89523e-89
2.59518e-91
2.22801e-93
1.83551e-95
1.45366e-97
1.10855e-99
8.15298e-102
5.7914e-104
3.97881e-106
2.6472e-108
1.70769e-110
1.06935e-112
6.50696e-115
3.85149e-117
2.21964e-119
1.24662e-121
6.82886e-124
3.65156e-126
1.90746e-128
9.74078e-131
4.70612e-133
-6.67244e-51
-1.55149e-51
2.9831e-50
-5.20926e-51
-1.3719e-50
-1.05383e-50
-7.47701e-52
1.84111e-52
1.34034e-52
1.91634e-53
1.49171e-54
7.9885e-56
3.28228e-57
1.10259e-58
3.15551e-60
7.91325e-62
1.77331e-63
3.60042e-65
6.68868e-67
1.1452e-68
1.81713e-70
2.68416e-72
3.70536e-74
4.79692e-76
5.84246e-78
6.71483e-80
7.30307e-82
7.53642e-84
7.39779e-86
6.92373e-88
6.19213e-90
5.30276e-92
4.3568e-94
3.44054e-96
2.61586e-98
1.91788e-100
1.35797e-102
9.2989e-105
6.16604e-107
3.96414e-109
2.47376e-111
1.50004e-113
8.8476e-116
5.08093e-118
2.84348e-120
1.55209e-122
8.26977e-125
4.30443e-127
2.19026e-129
1.05454e-131
-1.52273e-49
-3.79691e-50
7.08818e-49
-1.78831e-49
-3.33395e-49
-2.84844e-49
-2.34305e-50
3.60605e-51
3.01843e-51
4.3491e-52
3.38881e-53
1.81478e-54
7.45998e-56
2.50986e-57
7.20315e-59
1.81344e-60
4.08265e-62
8.32982e-64
1.55478e-65
2.67321e-67
4.25636e-69
6.30376e-71
8.71754e-73
1.12967e-74
1.37624e-76
1.58112e-78
1.71802e-80
1.77043e-82
1.73474e-84
1.62013e-86
1.44546e-88
1.2346e-90
1.01151e-92
7.96412e-95
6.0364e-97
4.41155e-99
3.11336e-101
2.12474e-103
1.40408e-105
8.99548e-108
5.59379e-110
3.37995e-112
1.98647e-114
1.13669e-116
6.33844e-119
3.4473e-121
1.83014e-123
9.49144e-126
4.81215e-128
2.3088e-130
-3.38053e-48
-9.05358e-49
1.63763e-47
-5.77508e-48
-7.91849e-48
-7.52077e-48
-6.89298e-49
6.50497e-50
6.605e-50
9.60425e-51
7.49502e-52
4.01554e-53
1.65235e-54
5.57178e-56
1.60486e-57
4.0595e-59
9.18865e-61
1.8851e-62
3.53673e-64
6.10795e-66
9.75995e-68
1.44926e-69
2.00758e-71
2.60373e-73
3.17232e-75
3.64255e-77
3.95356e-79
4.06777e-81
3.978e-83
3.70674e-85
3.29875e-87
2.80979e-89
2.29532e-91
1.80166e-93
1.36121e-95
9.91525e-98
6.97388e-100
4.74301e-102
3.12334e-104
1.99394e-106
1.23549e-108
7.43839e-111
4.35588e-113
2.48344e-115
1.37977e-117
7.47677e-120
3.95482e-122
2.04353e-124
1.03228e-126
4.93524e-129
-7.29328e-47
-2.10166e-47
3.67529e-46
-1.76955e-46
-1.83819e-46
-1.93811e-46
-1.92647e-47
1.03183e-48
1.4025e-48
2.06171e-49
1.61239e-50
8.64724e-52
3.56433e-53
1.20561e-54
3.48833e-56
8.87365e-58
2.02097e-59
4.17147e-61
7.86967e-63
1.36541e-64
2.18968e-66
3.25975e-68
4.5226e-70
5.86949e-72
7.15054e-74
8.20429e-76
8.89326e-78
9.13419e-80
8.91368e-82
8.28575e-84
7.35404e-86
6.24597e-88
5.08681e-90
3.98008e-92
2.99716e-94
2.17579e-96
1.52505e-98
1.03355e-100
6.78183e-103
4.31392e-105
2.66329e-107
1.59759e-109
9.32102e-112
5.29463e-114
2.93077e-116
1.58226e-118
8.33833e-121
4.29262e-123
2.16036e-125
1.02917e-127
-1.52742e-45
-4.74706e-46
8.00417e-45
-5.16945e-45
-4.17077e-45
-4.87026e-45
-5.14919e-46
1.25795e-47
2.88544e-47
4.29754e-48
3.37084e-49
1.81086e-50
7.48315e-52
2.54142e-53
7.39445e-55
1.89347e-56
4.34248e-58
9.02304e-60
1.7122e-61
2.98486e-63
4.80384e-65
7.16868e-67
9.95948e-69
1.29314e-70
1.57487e-72
1.80521e-74
1.95387e-76
2.00292e-78
1.95009e-80
1.80804e-82
1.60022e-84
1.35502e-86
1.10006e-88
8.57887e-91
6.43833e-93
4.65768e-95
3.25308e-97
2.19675e-99
1.43619e-101
9.10206e-104
5.59857e-106
3.34586e-108
1.94483e-110
1.10059e-112
6.06936e-115
3.26443e-117
1.71387e-119
8.79005e-122
4.40725e-124
2.09197e-126
-3.10155e-44
-1.04327e-44
1.68979e-43
-1.44364e-43
-9.24921e-44
-1.19214e-43
-1.32134e-44
4.04215e-47
5.74179e-46
8.6884e-47
6.84172e-48
3.68505e-49
1.52826e-50
5.2174e-52
1.5283e-53
3.94339e-55
9.1138e-57
1.90723e-58
3.64105e-60
6.3776e-62
1.02994e-63
1.54034e-65
2.14239e-67
2.78222e-69
3.38642e-71
3.87704e-73
4.18911e-75
4.28512e-77
4.1618e-79
3.84806e-81
3.39566e-83
2.86632e-85
2.31936e-87
1.80262e-89
1.34812e-91
9.71795e-94
6.76276e-96
4.55e-98
2.96366e-100
1.87124e-102
1.14665e-104
6.82685e-107
3.95319e-109
2.22865e-111
1.22435e-113
6.56023e-116
3.43114e-118
1.75308e-120
8.75653e-123
4.14126e-125
-6.09863e-43
-2.23263e-43
3.45429e-42
-3.85902e-42
-2.00434e-42
-2.83921e-42
-3.26253e-43
-4.2131e-45
1.10291e-44
1.70156e-45
1.34694e-46
7.28259e-48
3.03512e-49
1.04307e-50
3.07999e-52
8.01613e-54
1.86825e-55
3.93881e-57
7.56535e-59
1.33124e-60
2.15668e-62
3.23156e-64
4.4982e-66
5.84091e-68
7.1032e-70
8.12035e-72
8.75683e-74
8.93652e-76
8.65627e-78
7.98043e-80
7.0203e-82
5.90654e-84
4.76316e-86
3.68899e-88
2.74897e-90
1.97436e-92
1.36887e-94
9.17523e-97
5.95374e-99
3.74487e-101
2.286e-103
1.3558e-105
7.82079e-108
4.3921e-110
2.4036e-112
1.28293e-114
6.68423e-117
3.4021e-119
1.69282e-121
7.9764e-124
-1.15964e-41
-4.66149e-42
6.82961e-41
-9.87794e-41
-4.24248e-41
-6.57052e-41
-7.7599e-42
-1.93987e-43
2.04022e-43
3.22373e-44
2.56988e-45
1.3972e-46
5.86236e-48
2.03158e-49
6.05581e-51
1.59131e-52
3.74172e-54
7.94803e-56
1.53559e-57
2.7136e-59
4.40826e-61
6.61491e-63
9.21117e-65
1.19547e-66
1.45208e-68
1.65709e-70
1.78302e-72
1.81493e-74
1.75299e-76
1.61114e-78
1.41268e-80
1.18451e-82
9.51845e-85
7.34522e-87
5.45333e-89
3.90199e-91
2.69508e-93
1.79955e-95
1.16321e-97
7.28822e-100
4.4317e-102
2.61816e-104
1.50437e-106
8.41551e-109
4.5875e-111
2.43906e-113
1.26584e-115
6.41782e-118
3.18104e-120
1.49328e-122
-2.12913e-40
-9.52934e-41
1.30441e-39
-2.42048e-39
-8.76353e-40
-1.4754e-39
-1.77867e-40
-6.08481e-42
3.62435e-42
5.89998e-43
4.74864e-44
2.60275e-45
1.10222e-46
3.86007e-48
1.16327e-49
3.08856e-51
7.32768e-53
1.56773e-54
3.04505e-56
5.4003e-58
8.79111e-60
1.32028e-61
1.83818e-63
2.38339e-65
2.89036e-67
3.29148e-69
3.53276e-71
3.58584e-73
3.45284e-75
3.16308e-77
2.76394e-79
2.30929e-81
1.84892e-83
1.42146e-85
1.05133e-87
7.49367e-90
5.15576e-92
3.42914e-94
2.20787e-96
1.37791e-98
8.3455e-101
4.91086e-103
2.81059e-105
1.56604e-107
8.50315e-110
4.5031e-112
2.32786e-114
1.1756e-116
5.80413e-119
2.71437e-121
-3.76854e-39
-1.91781e-39
2.40353e-38
-5.67314e-38
-1.76428e-38
-3.2095e-38
-3.92833e-39
-1.62063e-40
6.16159e-41
1.04147e-41
8.49571e-43
4.71311e-44
2.02195e-45
7.17537e-47
2.18932e-48
5.87494e-50
1.40565e-51
3.02601e-53
5.90208e-55
1.0493e-56
1.71e-58
2.56811e-60
3.57234e-62
4.6247e-64
5.5967e-66
6.35743e-68
6.8041e-70
6.88497e-72
6.6077e-74
6.03219e-76
5.25204e-78
4.37187e-80
3.48707e-82
2.67056e-84
1.9675e-86
1.39687e-88
9.57259e-91
6.34144e-93
4.06664e-95
2.52778e-97
1.52484e-99
8.93683e-102
5.09422e-104
2.82709e-106
1.52889e-108
8.0644e-111
4.15228e-113
2.08863e-115
1.02711e-117
4.78509e-120
-6.41899e-38
-3.82743e-38
4.2667e-37
-1.27021e-36
-3.45499e-37
-6.75171e-37
-8.35476e-38
-3.897e-39
9.98019e-40
1.77018e-40
1.47244e-41
8.32099e-43
3.63615e-44
1.31205e-45
4.05795e-47
1.09992e-48
2.64968e-50
5.72801e-52
1.11964e-53
1.99189e-55
3.24469e-57
4.86682e-59
6.75727e-61
8.72733e-63
1.05329e-64
1.19287e-66
1.27254e-68
1.28325e-70
1.22718e-72
1.11616e-74
9.68121e-77
8.02763e-79
6.37784e-81
4.86505e-83
3.5699e-85
2.5243e-87
1.72287e-89
1.13668e-91
7.25965e-94
4.49412e-96
2.69995e-98
1.57594e-100
8.94673e-103
4.94492e-105
2.66338e-107
1.39917e-109
7.17515e-112
3.59466e-114
1.76066e-116
8.1709e-119
-1.05012e-36
-7.63554e-37
7.28547e-36
-2.71217e-35
-6.56444e-36
-1.37082e-35
-1.70941e-36
-8.67625e-38
1.53108e-38
2.89179e-39
2.47735e-40
1.44105e-41
6.46623e-43
2.38226e-44
7.47162e-46
2.04139e-47
4.93495e-49
1.06747e-50
2.08415e-52
3.69981e-54
6.01038e-56
8.98755e-58
1.24377e-59
1.60086e-61
1.92519e-63
2.17231e-65
2.30871e-67
2.31922e-69
2.20922e-71
2.0014e-73
1.729e-75
1.42788e-77
1.1298e-79
8.58281e-82
6.27195e-84
4.41659e-86
3.00187e-88
1.9723e-90
1.25442e-92
7.7333e-95
4.6267e-97
2.68941e-99
1.52049e-101
8.36924e-104
4.48925e-106
2.34871e-108
1.19954e-110
5.98516e-113
2.91966e-115
1.34968e-117
-1.6465e-35
-1.53273e-35
1.1944e-34
-5.51097e-34
-1.2062e-34
-2.68022e-34
-3.36027e-35
-1.81042e-36
2.20615e-37
4.53143e-38
4.06576e-39
2.475e-40
1.15324e-41
4.35701e-43
1.38431e-44
3.79621e-46
9.15792e-48
1.97085e-49
3.82384e-51
6.7444e-53
1.08888e-54
1.61889e-56
2.22838e-58
2.85382e-60
3.41568e-62
3.83651e-64
4.05927e-66
4.05995e-68
3.85069e-70
3.47349e-72
2.98791e-74
2.457e-76
1.9358e-78
1.46431e-80
1.0655e-82
7.47115e-85
5.05642e-87
3.30809e-89
2.09509e-91
1.28613e-93
7.66228e-96
4.4352e-98
2.49699e-100
1.36868e-102
7.31103e-105
3.80918e-107
1.93741e-109
9.62703e-112
4.677e-114
2.15353e-116
-2.46825e-34
-3.10355e-34
1.87589e-33
-1.06294e-32
-2.13514e-33
-5.03366e-33
-6.33579e-34
-3.56276e-35
2.94761e-36
6.79646e-37
6.56986e-38
4.28852e-39
2.1032e-40
8.17672e-42
2.6235e-43
7.1732e-45
1.71299e-46
3.63817e-48
6.96325e-50
1.21267e-51
1.93598e-53
2.85045e-55
3.8908e-57
4.94646e-59
5.88198e-61
6.5679e-63
6.91154e-65
6.87736e-67
6.49099e-69
5.82746e-71
4.98963e-73
4.08442e-75
3.20356e-77
2.41252e-79
1.74772e-81
1.2201e-83
8.2215e-86
5.35544e-88
3.37705e-90
2.06417e-92
1.22447e-94
7.05741e-97
3.95637e-99
2.15943e-101
1.14863e-103
5.95943e-106
3.01839e-108
1.49361e-110
7.22618e-113
3.31403e-115
-3.52815e-33
-6.31738e-33
2.81454e-32
-1.94028e-31
-3.62477e-32
-9.05447e-32
-1.1436e-32
-6.63278e-34
3.57218e-35
9.73364e-36
1.06168e-36
7.66218e-38
4.00339e-39
1.60275e-40
5.16691e-42
1.3974e-43
3.27256e-45
6.79289e-47
1.27065e-48
2.16693e-50
3.39697e-52
4.92526e-54
6.63724e-56
8.34817e-58
9.83751e-60
1.08993e-61
1.13909e-63
1.12644e-65
1.0571e-67
9.43965e-70
8.04132e-72
6.55015e-74
5.11299e-76
3.83245e-78
2.76359e-80
1.92052e-82
1.2883e-84
8.35447e-87
5.24486e-89
3.19174e-91
1.88507e-93
1.08176e-95
6.03811e-98
3.28149e-100
1.738e-102
8.97887e-105
4.52846e-107
2.2314e-109
1.07504e-111
4.9104e-114
-4.79385e-32
-1.2813e-31
4.01934e-31
-3.34021e-30
-5.87201e-31
-1.55469e-30
-1.97159e-31
-1.1696e-32
3.75417e-34
1.32757e-34
1.75295e-35
1.43914e-36
8.05177e-38
3.30971e-39
1.06631e-40
2.83353e-42
6.45566e-44
1.29767e-45
2.34932e-47
3.88587e-49
5.92959e-51
8.40284e-53
1.11108e-54
1.3759e-56
1.60073e-58
1.7547e-60
1.81738e-62
1.78324e-64
1.66195e-66
1.47482e-68
1.2491e-70
1.01195e-72
7.85829e-75
5.86081e-77
4.20573e-79
2.90885e-81
1.94217e-83
1.25368e-85
7.83471e-88
4.74631e-90
2.79071e-92
1.59437e-94
8.86019e-97
4.79414e-99
2.52813e-101
1.30044e-103
6.53059e-106
3.20422e-108
1.53718e-110
6.99258e-113
-6.16892e-31
-2.55834e-30
5.4361e-30
-5.40086e-29
-9.02615e-30
-2.53813e-29
-3.23827e-30
-1.95355e-31
3.02138e-33
1.71905e-33
3.02133e-34
2.85812e-35
1.70418e-36
7.15452e-38
2.29543e-39
5.97588e-41
1.31959e-42
2.55461e-44
4.44298e-46
7.06508e-48
1.03971e-49
1.42732e-51
1.83732e-53
2.22535e-55
2.54254e-57
2.74622e-59
2.80991e-61
2.7292e-63
2.52154e-65
2.2207e-67
1.8681e-69
1.50408e-71
1.16129e-73
8.614e-76
6.14932e-78
4.23178e-80
2.81167e-82
1.80628e-84
1.12351e-86
6.77475e-89
3.96516e-91
2.2551e-93
1.24758e-95
6.72044e-98
3.52829e-100
1.80697e-102
9.03475e-105
4.4137e-107
2.10831e-109
9.55095e-112
-7.48486e-30
-4.96503e-29
6.91525e-29
-8.163e-28
-1.30832e-28
-3.92133e-28
-5.05308e-29
-3.08836e-30
8.11437e-33
2.10521e-32
5.49068e-33
5.92473e-34
3.72374e-35
1.58883e-36
5.07263e-38
1.29545e-39
2.77647e-41
5.17625e-43
8.62648e-45
1.31187e-46
1.84804e-48
2.43659e-50
3.02681e-52
3.5568e-54
3.96314e-56
4.19379e-58
4.22004e-60
4.04317e-62
3.69339e-64
3.2217e-66
2.68781e-68
2.14828e-70
1.64774e-72
1.21482e-74
8.62305e-77
5.90211e-79
3.90117e-81
2.49363e-83
1.54346e-85
9.26251e-88
5.39568e-90
3.05444e-92
1.68204e-94
9.01972e-97
4.71415e-99
2.40353e-101
1.19644e-103
5.81926e-106
2.76759e-108
1.2485e-110
-8.51404e-29
-9.2562e-28
8.19301e-28
-1.14673e-26
-1.7758e-27
-5.70105e-27
-7.46905e-28
-4.61535e-29
-3.39049e-31
2.42509e-31
1.04193e-31
1.24984e-32
8.19212e-34
3.54266e-35
1.12713e-36
2.83446e-38
5.92492e-40
1.06858e-41
1.71132e-43
2.48913e-45
3.34631e-47
4.21266e-49
5.0113e-51
5.66535e-53
6.10622e-55
6.28464e-57
6.18143e-59
5.81329e-61
5.23033e-63
4.50549e-65
3.71953e-67
2.94626e-69
2.24208e-71
1.64141e-73
1.15766e-75
7.8766e-78
5.1771e-80
3.29152e-82
2.02684e-84
1.21025e-86
7.01569e-89
3.9525e-91
2.16635e-93
1.15628e-95
6.01558e-98
3.05314e-100
1.51297e-102
7.32601e-105
3.46878e-107
1.55817e-109
-9.00977e-28
-1.64068e-26
8.90917e-27
-1.48703e-25
-2.23917e-26
-7.74631e-26
-1.04272e-26
-6.51015e-28
-9.84084e-30
2.60402e-30
2.01279e-30
2.6117e-31
1.77385e-32
7.77129e-34
2.46981e-35
6.14264e-37
1.25958e-38
2.21208e-40
3.42585e-42
4.78902e-44
6.15794e-46
7.39437e-48
8.3882e-50
9.06333e-52
9.37528e-54
9.30961e-56
8.88365e-58
8.1479e-60
7.18206e-62
6.08394e-64
4.95384e-66
3.87909e-68
2.92327e-70
2.12207e-72
1.48548e-74
1.00389e-76
6.55728e-79
4.14476e-81
2.53816e-83
1.50756e-85
8.69446e-88
4.87393e-90
2.65839e-92
1.41213e-94
7.3121e-97
3.69396e-99
1.82213e-101
8.78297e-104
4.13994e-106
1.85162e-108
-8.77184e-27
-2.74002e-25
8.6862e-26
-1.76486e-24
-2.59878e-25
-9.75364e-25
-1.37121e-25
-8.65352e-27
-1.83081e-28
2.55937e-29
3.84291e-29
5.28687e-30
3.71585e-31
1.65135e-32
5.25533e-34
1.29745e-35
2.62303e-37
4.51394e-39
6.80867e-41
9.21341e-43
1.1401e-44
1.31094e-46
1.4193e-48
1.46202e-50
1.44377e-52
1.37342e-54
1.26164e-56
1.12004e-58
9.60731e-61
7.95778e-63
6.36156e-65
4.90667e-67
3.65152e-69
2.6228e-71
1.81935e-73
1.21973e-75
7.91028e-78
4.96739e-80
3.0235e-82
1.78559e-84
1.02419e-86
5.71136e-89
3.09935e-91
1.63822e-93
8.44172e-96
4.24432e-98
2.08379e-100
9.99768e-103
4.69093e-105
2.08883e-107
-7.72833e-26
-4.27491e-24
7.276e-25
-1.89568e-23
-2.74498e-24
-1.12599e-23
-1.69516e-24
-1.0822e-25
-2.79192e-27
2.20206e-28
7.06761e-28
1.01955e-28
7.43853e-30
3.36129e-31
1.07341e-32
2.63751e-34
5.27632e-36
8.94081e-38
1.32155e-39
1.74348e-41
2.09188e-43
2.3193e-45
2.40894e-47
2.37145e-49
2.2338e-51
2.02775e-53
1.78219e-55
1.52027e-57
1.25953e-59
1.01307e-61
7.90339e-64
5.97467e-66
4.37344e-68
3.09862e-70
2.12484e-72
1.41062e-74
9.07045e-77
5.65287e-79
3.41717e-81
2.00533e-83
1.14344e-85
6.34062e-88
3.42236e-90
1.79959e-92
9.22654e-95
4.6161e-97
2.25538e-99
1.07696e-101
5.02947e-104
2.22955e-106
-6.0294e-25
-6.17598e-23
4.73775e-24
-1.81336e-22
-2.60042e-23
-1.17552e-22
-1.96838e-23
-1.27101e-24
-3.71785e-26
1.43128e-27
1.22734e-26
1.84906e-27
1.41035e-28
6.4997e-30
2.08602e-31
5.10938e-33
1.01369e-34
1.69692e-36
2.46898e-38
3.19397e-40
3.74141e-42
4.03002e-44
4.04532e-46
3.82919e-48
3.45356e-50
2.9938e-52
2.51143e-54
2.04825e-56
1.62821e-58
1.26252e-60
9.54475e-63
7.02767e-65
5.03304e-67
3.50224e-69
2.36604e-71
1.55125e-73
9.86956e-76
6.09481e-78
3.65471e-80
2.12925e-82
1.20608e-84
6.64692e-87
3.56695e-89
1.86528e-91
9.51268e-94
4.73483e-96
2.30183e-98
1.09376e-100
5.08339e-103
2.24311e-105
-4.16537e-24
-8.17671e-22
1.55307e-23
-1.50382e-21
-2.16309e-22
-1.08981e-21
-2.1482e-22
-1.39796e-23
-4.42054e-25
1.28706e-27
1.98075e-25
3.11918e-26
2.51522e-27
1.18611e-28
3.82906e-30
9.35449e-32
1.84255e-33
3.05288e-35
4.38511e-37
5.58537e-39
6.42197e-41
6.76442e-43
6.61085e-45
6.06263e-47
5.27103e-49
4.38502e-51
3.51865e-53
2.74115e-55
2.08292e-57
1.54806e-59
1.12643e-61
8.02177e-64
5.5845e-66
3.79505e-68
2.51403e-70
1.62168e-72
1.01785e-74
6.21392e-77
3.68963e-79
2.13117e-81
1.19794e-83
6.55632e-86
3.49583e-88
1.81715e-90
9.21467e-93
4.5616e-95
2.206e-97
1.04289e-99
4.82289e-102
2.11812e-104
-3.11204e-23
-9.78249e-21
-1.43981e-22
-1.02258e-20
-1.522e-21
-8.74957e-21
-2.20822e-21
-1.43218e-22
-4.71615e-24
-1.82695e-25
2.92917e-24
4.84161e-25
4.19523e-26
2.03079e-27
6.59433e-29
1.6063e-30
3.1415e-32
5.15604e-34
7.32374e-36
9.20922e-38
1.04327e-39
1.07998e-41
1.03395e-43
9.25228e-46
7.81351e-48
6.28304e-50
4.85068e-52
3.62208e-54
2.63234e-56
1.8707e-58
1.3039e-60
8.92531e-63
5.99917e-65
3.95536e-67
2.55414e-69
1.61281e-71
9.94507e-74
5.98233e-76
3.5082e-78
2.00497e-80
1.11666e-82
6.0619e-85
3.2086e-87
1.65669e-89
8.34877e-92
4.10875e-94
1.97592e-96
9.29116e-99
4.27446e-101
1.86806e-103
-4.3384e-22
-1.03494e-19
-3.34935e-21
-4.85172e-20
-8.24705e-21
-5.86287e-20
-2.14537e-20
-1.35223e-21
-4.48044e-23
-4.49522e-24
3.91282e-23
6.83353e-24
6.51242e-25
3.24372e-26
1.05817e-27
2.56663e-29
4.9805e-31
8.09757e-33
1.13834e-34
1.41545e-36
1.58392e-38
1.61719e-40
1.52383e-42
1.33832e-44
1.10531e-46
8.65556e-49
6.47709e-51
4.666e-53
3.25798e-55
2.21809e-57
1.47945e-59
9.69895e-62
6.25999e-64
3.97872e-66
2.48806e-68
1.52856e-70
9.21043e-73
5.43462e-75
3.13611e-77
1.76824e-79
9.73565e-82
5.23296e-84
2.74587e-86
1.40681e-88
7.03975e-91
3.44208e-93
1.64528e-95
7.69201e-98
3.51932e-100
1.53014e-102
-9.07123e-21
-9.33672e-19
-3.67352e-20
-3.9116e-20
-2.06134e-20
-3.08832e-19
-1.98037e-19
-1.15417e-20
-3.7091e-22
-7.74594e-23
4.64503e-22
8.64613e-23
9.37122e-24
4.8046e-25
1.56989e-26
3.78233e-28
7.27154e-30
1.1705e-31
1.62894e-33
2.00495e-35
2.22011e-37
2.24142e-39
2.08591e-41
1.80602e-43
1.46678e-45
1.12588e-47
8.22581e-50
5.75972e-52
3.89072e-54
2.55145e-56
1.63359e-58
1.02603e-60
6.34388e-63
3.86922e-65
2.32937e-67
1.38344e-69
8.09504e-72
4.65885e-74
2.63268e-76
1.45857e-78
7.91322e-81
4.20067e-83
2.18075e-85
1.10692e-87
5.49357e-90
2.66619e-92
1.26577e-94
5.88043e-97
2.67451e-99
1.15645e-101
-1.60499e-19
-6.79514e-18
-2.63399e-19
1.75136e-18
2.82302e-19
-1.13688e-18
-1.75701e-18
-8.60763e-20
-2.56351e-21
-1.11119e-21
4.80289e-21
9.62986e-22
1.24669e-22
6.55452e-24
2.13312e-25
5.0852e-27
9.66437e-29
1.53878e-30
2.11997e-32
2.58486e-34
2.8363e-36
2.8373e-38
2.6148e-40
2.23955e-42
1.79632e-44
1.3586e-46
9.75137e-49
6.68309e-51
4.39991e-53
2.79925e-55
1.73092e-57
1.0459e-59
6.20491e-62
3.62762e-64
2.09512e-66
1.19664e-68
6.75815e-71
3.76995e-73
2.07395e-75
1.12318e-77
5.97815e-80
3.12284e-82
1.59933e-84
8.02448e-87
3.94275e-89
1.89674e-91
8.93407e-94
4.12094e-96
1.86194e-98
8.00284e-101
-1.92386e-18
-4.01524e-17
-1.12916e-18
1.85065e-17
7.04728e-18
-2.93053e-18
-1.54247e-17
-5.22156e-19
-1.35608e-20
-1.3749e-20
4.21252e-20
9.21274e-21
1.53275e-21
8.16796e-23
2.62252e-24
6.15113e-26
1.15226e-27
1.81273e-29
2.47262e-31
2.98931e-33
3.25524e-35
3.23289e-37
2.95752e-39
2.51303e-41
1.99757e-43
1.49485e-45
1.05929e-47
7.14748e-50
4.61682e-52
2.87015e-54
1.72647e-56
1.01021e-58
5.77937e-61
3.24776e-63
1.79972e-65
9.86181e-68
5.35195e-70
2.87744e-72
1.53155e-74
8.05895e-77
4.18501e-79
2.14105e-81
1.07743e-83
5.3263e-86
2.58423e-88
1.22978e-90
5.73799e-93
2.62459e-95
1.17692e-97
5.02461e-100
-1.41541e-17
-2.7168e-16
8.40478e-16
8.27834e-15
1.17069e-16
-8.96287e-15
-1.38112e-16
-1.92603e-18
-4.34445e-20
-1.46651e-19
3.02065e-19
7.31045e-20
1.7483e-20
9.20106e-22
2.86958e-23
6.56901e-25
1.20863e-26
1.87713e-28
2.53692e-30
3.04606e-32
3.29891e-34
3.26049e-36
2.96865e-38
2.50959e-40
1.98305e-42
1.47344e-44
1.035e-46
6.90776e-49
4.40172e-51
2.69066e-53
1.58532e-55
9.04697e-58
5.02499e-60
2.72965e-62
1.45677e-64
7.66861e-67
3.99423e-69
2.06256e-71
1.05679e-73
5.37099e-76
2.70471e-78
1.34738e-80
6.6281e-83
3.2143e-85
1.53442e-87
7.20216e-90
3.32104e-92
1.50362e-94
6.6822e-97
2.8306e-99
-2.90381e-15
1.19392e-13
5.06202e-12
1.01191e-13
-6.63151e-12
-1.16505e-13
-7.82307e-17
-4.42478e-19
-2.24112e-20
-1.32564e-18
1.67628e-18
4.56156e-19
1.87245e-19
9.24446e-21
2.72936e-22
6.02867e-24
1.08541e-25
1.66481e-27
2.23463e-29
2.67345e-31
2.88975e-33
2.8523e-35
2.59341e-37
2.18821e-39
1.72434e-41
1.27622e-43
8.91684e-46
5.9091e-48
3.73067e-50
2.2536e-52
1.30811e-54
7.32751e-57
3.97859e-59
2.10338e-61
1.08766e-63
5.52547e-66
2.7688e-68
1.37315e-70
6.75615e-73
3.30214e-75
1.60359e-77
7.73158e-80
3.69586e-82
1.7486e-84
8.1738e-87
3.76891e-89
1.7119e-91
7.65165e-94
3.36296e-96
1.41119e-98
-1.70254e-10
7.67411e-10
4.27933e-11
-3.48567e-09
-1.85504e-10
-1.13224e-13
-2.9556e-18
-3.80401e-20
1.00025e-20
-9.87002e-18
6.58812e-18
2.04651e-18
1.93566e-18
8.14393e-20
2.17633e-21
4.56243e-23
8.01819e-25
1.21927e-26
1.63555e-28
1.96263e-30
2.13035e-32
2.11136e-34
1.92603e-36
1.62856e-38
1.28433e-40
9.49915e-43
6.62215e-45
4.37121e-47
2.74373e-49
1.64425e-51
9.44458e-54
5.22001e-56
2.78703e-58
1.44326e-60
7.27928e-63
3.59105e-65
1.74013e-67
8.31593e-70
3.93319e-72
1.84623e-74
8.61593e-77
4.00036e-79
1.84731e-81
8.47528e-84
3.85702e-86
1.73806e-88
7.74187e-91
3.40353e-93
1.47494e-95
6.11672e-98
-6.26596e-09
2.01902e-07
-4.17779e-06
-4.77736e-07
-4.89975e-10
1.7297e-14
2.11167e-16
5.54148e-19
3.56503e-20
-5.84135e-17
2.09416e-17
5.63927e-18
2.04404e-17
6.13881e-19
1.36481e-20
2.65458e-22
4.57646e-24
6.99713e-26
9.52201e-28
1.1611e-29
1.27898e-31
1.2832e-33
1.18182e-35
1.00632e-37
7.97325e-40
5.9121e-42
4.12377e-44
2.71843e-46
1.70086e-48
1.01406e-50
5.7827e-53
3.16553e-55
1.66941e-57
8.51234e-60
4.21227e-62
2.03065e-64
9.57482e-67
4.43359e-69
2.02406e-71
9.14344e-74
4.09957e-76
1.82838e-78
8.12112e-81
3.59303e-83
1.58231e-85
6.92656e-88
3.00886e-90
1.2947e-92
5.50931e-95
2.25048e-97
-2.10119e-08
9.81187e-07
-4.69089e-05
-4.29183e-06
0.0008267
0.000626936
0.00067618
3.10235e-06
1.64952e-16
-2.60357e-16
5.92814e-15
3.94688e-16
2.87629e-16
3.65473e-18
5.73203e-20
1.02844e-21
1.81916e-23
2.92789e-25
4.18328e-27
5.30626e-29
6.02419e-31
6.18183e-33
5.78812e-35
4.98689e-37
3.98299e-39
2.96815e-41
2.0755e-43
1.36866e-45
8.54979e-48
5.08003e-50
2.88175e-52
1.56621e-54
8.18312e-57
4.1238e-59
2.0111e-61
9.52372e-64
4.39498e-66
1.98376e-68
8.79132e-71
3.83983e-73
1.65901e-75
7.11333e-78
3.03458e-80
1.29019e-82
5.47052e-85
2.31263e-87
9.73714e-90
4.07691e-92
1.69447e-94
6.78731e-97
2.43116e-06
-3.76953e-05
0.00010511
0.0264172
0.0670702
0.0766285
0.0785957
0.0456865
0.00608569
-4.54239e-16
9.69541e-13
5.48476e-13
4.41095e-15
7.93155e-19
4.78337e-20
1.74446e-21
4.36881e-23
8.45019e-25
1.34148e-26
1.81536e-28
2.14904e-30
2.26779e-32
2.16399e-34
1.88842e-36
1.5209e-38
1.13907e-40
7.98417e-43
5.26657e-45
3.28496e-47
1.94574e-49
1.09864e-51
5.93431e-54
3.07645e-56
1.53551e-58
7.40126e-61
3.45569e-63
1.56782e-65
6.93429e-68
3.00004e-70
1.27414e-72
5.33156e-75
2.20598e-77
9.05555e-80
3.69853e-82
1.5061e-84
6.12207e-87
2.48457e-89
1.00606e-91
4.05928e-94
1.58555e-96
7.47133e-05
-0.00153635
0.0251646
0.157535
0.31258
0.372972
0.380168
0.295194
0.111954
0.00931577
1.856e-10
4.95671e-12
2.38032e-15
1.06889e-18
7.70761e-20
3.33283e-21
9.44784e-23
1.96938e-24
3.27407e-26
4.56488e-28
5.51291e-30
5.89648e-32
5.67697e-34
4.98156e-36
4.02387e-38
3.01632e-40
2.11257e-42
1.39044e-44
8.6431e-47
5.09639e-49
2.86168e-51
1.53557e-53
7.89959e-56
3.90778e-58
1.86417e-60
8.59972e-63
3.84706e-65
1.6736e-67
7.10128e-70
2.94803e-72
1.20133e-74
4.82194e-77
1.91301e-79
7.52687e-82
2.94598e-84
1.14981e-86
4.48239e-89
1.74658e-91
6.80091e-94
2.57473e-96
0.000288791
-0.00617846
0.109218
0.392318
0.669502
0.800932
0.811876
0.731121
0.401148
0.0795312
0.000936391
9.54881e-12
-4.97221e-15
-2.97723e-17
-7.33245e-19
-1.18011e-20
-6.89551e-23
8.27194e-25
2.99825e-26
5.23013e-28
6.94357e-30
7.77327e-32
7.65801e-34
6.79587e-36
5.51449e-38
4.13577e-40
2.89049e-42
1.89506e-44
1.17191e-46
6.86776e-49
3.82958e-51
2.0392e-53
1.04026e-55
5.09883e-58
2.40791e-60
1.09845e-62
4.85273e-65
2.08137e-67
8.68931e-70
3.54038e-72
1.41178e-74
5.52646e-77
2.13044e-79
8.11468e-82
3.06404e-84
1.15053e-86
4.30779e-89
1.61158e-91
6.0312e-94
2.20153e-96
0.000496426
-0.0107474
0.193276
0.600558
0.906588
1.03227
1.03746
1.04477
0.733268
0.219869
0.00785762
-1.99318e-12
-8.19701e-14
-1.98718e-19
-1.54948e-17
-2.87763e-19
-2.96032e-21
-2.50192e-23
-1.90201e-25
-1.34678e-27
-8.99079e-30
-5.6748e-32
-3.38843e-34
-1.91666e-36
-1.0301e-38
-5.28335e-41
-2.59963e-43
-1.23404e-45
-5.68268e-48
-2.55113e-50
-1.12107e-52
-4.83637e-55
-2.05188e-57
-8.56673e-60
-3.51909e-62
-1.4213e-64
-5.63831e-67
-2.19464e-69
-8.37317e-72
-3.12847e-74
-1.14369e-76
-4.08709e-79
-1.42609e-81
-4.85073e-84
-1.60442e-86
-5.14004e-89
-1.58445e-91
-4.64479e-94
-1.26578e-96
-3.00728e-99
0.000447861
-0.00968048
0.171709
0.643582
0.977877
1.02182
1.01819
1.04819
0.845742
0.332965
0.0173036
2.5036e-13
5.93068e-15
-1.47641e-18
-5.28546e-16
-3.73085e-18
-2.53642e-20
-1.70468e-22
-1.12969e-24
-7.42248e-27
-4.78211e-29
-2.97364e-31
-1.76385e-33
-9.92788e-36
-5.3016e-38
-2.69408e-40
-1.3087e-42
-6.10799e-45
-2.7525e-47
-1.20293e-49
-5.11702e-52
-2.12448e-54
-8.62518e-57
-3.42808e-59
-1.33454e-61
-5.08927e-64
-1.90094e-66
-6.95276e-69
-2.48935e-71
-8.72176e-74
-2.98907e-76
-1.00145e-78
-3.27716e-81
-1.04588e-83
-3.2468e-86
-9.76054e-89
-2.81876e-91
-7.70283e-94
-1.9297e-96
-4.0481e-99
0.000190025
-0.00402823
0.0667576
0.465199
0.887537
0.978846
0.987298
0.966681
0.772262
0.3301
0.0184595
3.0316e-12
8.09472e-15
-1.94299e-12
-1.27591e-14
2.6387e-19
4.26422e-22
-3.73443e-23
-7.14854e-25
-8.4317e-27
-7.74843e-29
-6.02327e-31
-4.13617e-33
-2.57981e-35
-1.49078e-37
-8.10134e-40
-4.18754e-42
-2.07643e-44
-9.93739e-47
-4.60875e-49
-2.07641e-51
-9.09975e-54
-3.88138e-56
-1.61169e-58
-6.51558e-61
-2.56482e-63
-9.83312e-66
-3.67286e-68
-1.33719e-70
-4.74775e-73
-1.6449e-75
-5.56414e-78
-1.83861e-80
-5.93738e-83
-1.87414e-85
-5.78188e-88
-1.74232e-90
-5.12114e-93
-1.46419e-95
-3.97938e-98
-1.27578e-05
0.000361902
-0.0108534
0.152619
0.552667
0.854973
0.931996
0.844259
0.608315
0.249269
0.0135941
5.22373e-11
-4.61995e-09
-3.9432e-11
1.45938e-15
9.5434e-18
5.3856e-20
2.90835e-22
1.33341e-24
4.29238e-27
-3.17153e-30
-2.22791e-31
-2.63516e-33
-2.31925e-35
-1.75494e-37
-1.1968e-39
-7.51824e-42
-4.40521e-44
-2.42753e-46
-1.26572e-48
-6.27415e-51
-2.96836e-53
-1.34483e-55
-5.85151e-58
-2.45144e-60
-9.91099e-63
-3.87474e-65
-1.46758e-67
-5.39417e-70
-1.92698e-72
-6.69989e-75
-2.27013e-77
-7.50473e-80
-2.42312e-82
-7.64853e-85
-2.36207e-87
-7.14167e-90
-2.11494e-92
-6.1357e-95
-1.71077e-97
-3.02084e-05
0.00066767
-0.0124344
-0.0296719
0.156485
0.4764
0.621418
0.537869
0.337214
0.125158
0.00634483
-4.20942e-06
-6.8121e-08
3.62659e-12
3.07617e-14
-2.5958e-19
-4.25085e-21
-6.33089e-23
-8.80511e-25
-1.08836e-26
-1.18037e-28
-1.13243e-30
-9.73888e-33
-7.60381e-35
-5.44836e-37
-3.61478e-39
-2.23703e-41
-1.29928e-43
-7.11934e-46
-3.69681e-48
-1.82626e-50
-8.61278e-53
-3.88954e-55
-1.68663e-57
-7.04008e-60
-2.83496e-62
-1.1036e-64
-4.16077e-67
-1.52186e-69
-5.4087e-72
-1.87046e-74
-6.30257e-77
-2.07172e-79
-6.65084e-82
-2.0874e-84
-6.41113e-87
-1.92858e-89
-5.68666e-92
-1.64471e-94
-4.58078e-97
1.15057e-05
-0.000268823
0.00574031
-0.020072
-0.0401775
0.07058
0.184436
0.189978
0.0962618
0.00225544
-0.00123958
-3.76634e-05
4.50712e-09
5.05311e-11
-8.95197e-16
-5.94518e-18
-3.9718e-20
-3.05498e-22
-2.56321e-24
-2.22421e-26
-1.91168e-28
-1.58941e-30
-1.26148e-32
-9.47714e-35
-6.70536e-37
-4.45852e-39
-2.78652e-41
-1.6398e-43
-9.11017e-46
-4.79298e-48
-2.39562e-50
-1.14112e-52
-5.19571e-55
-2.26765e-57
-9.51152e-60
-3.84327e-62
-1.49926e-64
-5.65781e-67
-2.06925e-69
-7.34682e-72
-2.5362e-74
-8.52474e-77
-2.7936e-79
-8.93632e-82
-2.79354e-84
-8.54283e-87
-2.55812e-89
-7.50762e-92
-2.16125e-94
-5.99319e-97
-2.33878e-06
5.68428e-05
-0.0013238
0.0091019
-0.0144383
-0.0444223
-0.0391736
-0.020169
-0.0134699
-0.0143995
-0.00122583
1.92288e-06
3.14011e-08
-1.15803e-12
-9.65717e-15
-3.63091e-20
-1.26687e-21
-2.33331e-23
-2.67099e-25
-2.27624e-27
-1.55611e-29
-8.8159e-32
-4.1455e-34
-1.54107e-36
-3.5284e-39
6.84643e-42
1.53536e-43
1.26281e-45
8.02385e-48
4.44397e-50
2.2434e-52
1.05538e-54
4.68688e-57
1.98135e-59
8.02017e-62
3.12196e-64
1.17261e-66
4.26113e-69
1.50143e-71
5.13919e-74
1.71145e-76
5.55221e-79
1.75642e-81
5.42182e-84
1.63355e-86
4.80252e-89
1.37619e-91
3.83476e-94
1.03444e-96
2.63495e-99
3.3211e-07
-8.34543e-06
0.000207889
-0.00196629