/*--------------------------------*- C++ -*----------------------------------*\
| =========                 |                                                 |
| \\      /  F ield         | OpenFOAM: The Open Source CFD Toolbox           |
|  \\    /   O peration     | Version:  v2006                                 |
|   \\  /    A nd           | Website:  www.openfoam.com                      |
|    \\/     M anipulation  |                                                 |
\*---------------------------------------------------------------------------*/
FoamFile
{
    version     2.0;
    format      ascii;
    class       volScalarField;
    location    "5.25";
    object      r;
}
// * * * * * * * * * * * * * * * * * * * * * * * * * * * * * * * * * * * * * //

dimensions      [1 2 0 0 0 0 0];


internalField   nonuniform List<scalar> 
350
(
-3.30804e-83
1.94388e-81
-1.0083e-79
4.76935e-78
-2.07027e-76
8.28981e-75
-3.07551e-73
1.06115e-71
-3.4161e-70
1.02899e-68
-2.90731e-67
7.72189e-66
-1.93174e-64
4.55945e-63
-1.0169e-61
2.14602e-60
-4.2905e-59
8.13516e-58
-1.46427e-56
2.50403e-55
-4.07136e-54
6.29793e-53
-9.27369e-52
1.30048e-50
-1.73744e-49
2.21207e-48
-2.68448e-47
3.10563e-46
-3.42519e-45
3.60117e-44
-3.60885e-43
3.44636e-42
-3.13525e-41
2.71587e-40
-2.23885e-39
1.75512e-38
-1.30731e-37
9.24217e-37
-6.19351e-36
3.92816e-35
-2.35346e-34
1.32886e-33
-7.05108e-33
3.50312e-32
-1.62196e-31
6.95504e-31
-2.73823e-30
9.77273e-30
-3.09793e-29
8.40294e-29
-1.79004e-28
2.15328e-28
3.57614e-28
-3.17008e-27
1.07538e-26
-2.0528e-26
2.35403e-27
1.38453e-25
-5.18191e-25
8.36242e-25
7.66404e-25
-8.07482e-24
1.95206e-23
-4.24568e-24
-1.13017e-22
3.25645e-22
-1.23093e-22
-1.6764e-21
4.53678e-21
1.83215e-23
-2.59907e-20
4.9739e-20
5.33537e-20
-3.59132e-19
2.86841e-19
1.44291e-18
-3.44824e-18
-2.83037e-18
2.02525e-17
-8.12481e-18
-8.78133e-17
1.15223e-16
3.09021e-16
-7.30885e-16
-9.12715e-16
3.62577e-15
2.2992e-15
-1.58891e-14
-5.22927e-15
6.48409e-14
1.42421e-14
-2.52484e-13
-6.93034e-14
9.41516e-13
4.55599e-13
-3.30737e-12
-2.82238e-12
1.05048e-11
1.51049e-11
-2.75576e-11
-6.88004e-11
4.38135e-11
2.60779e-10
7.46621e-11
-7.71062e-10
-9.76308e-10
1.41821e-09
4.55119e-09
8.58024e-10
-1.26994e-08
-1.8509e-08
1.31004e-08
7.18114e-08
6.45577e-08
-1.08927e-07
-3.48622e-07
-2.49261e-07
5.5269e-07
1.61372e-06
1.31535e-06
-1.96245e-06
-7.09989e-06
-8.26381e-06
2.4726e-06
2.62671e-05
4.71223e-05
3.13021e-05
-5.23948e-05
-0.000192562
-0.000297191
-0.000196488
0.000278324
0.00113802
0.0020533
0.00225412
0.000636895
-0.00382841
-0.0113889
-0.0206121
-0.0275188
-0.0250121
-0.00283244
0.0518345
0.153124
0.31481
0.548464
0.861779
1.25735
1.73212
2.27748
2.88016
3.52343
4.18872
4.8572
5.51123
6.1355
6.7178
7.24934
7.72482
8.14207
8.50168
8.80634
9.06029
9.26871
9.43726
9.57167
9.67741
9.75953
9.82254
9.8703
9.90608
9.93259
9.95204
9.96619
9.97643
9.98381
9.98903
9.9925
9.99451
9.99535
9.9956
9.99619
9.99834
10.0032
10.011
10.0203
10.0273
10.0249
10.0028
9.94812
9.84685
9.68517
9.45152
9.13821
8.74264
8.26788
7.72251
7.11984
6.47657
5.81128
5.1428
4.48877
3.8645
3.2822
2.75066
2.27518
1.85793
1.49832
1.19366
0.939709
0.731288
0.562736
0.428332
0.322593
0.240469
0.17747
0.129711
0.0939167
0.0673811
0.0479158
0.0337813
0.0236177
0.0163781
0.0112683
0.00769332
0.00521342
0.00350731
0.0023429
0.00155432
0.00102428
0.000670593
0.000436252
0.000282049
0.000181253
0.000115794
7.35517e-05
4.64582e-05
2.91845e-05
1.82357e-05
1.1335e-05
7.00991e-06
4.31348e-06
2.64144e-06
1.60976e-06
9.76556e-07
5.8964e-07
3.54527e-07
2.12141e-07
1.26493e-07
7.50136e-08
4.43969e-08
2.60782e-08
1.53482e-08
8.91048e-09
5.23743e-09
2.98652e-09
1.77226e-09
9.75834e-10
6.00872e-10
3.05436e-10
2.08735e-10
8.71072e-11
7.73052e-11
1.90117e-11
3.18793e-11
4.63524e-14
1.45599e-11
-3.23468e-12
6.49371e-12
-1.79076e-12
1.67109e-12
7.93526e-13
-1.75972e-12
3.33031e-12
-4.34047e-12
5.42231e-12
-6.22854e-12
6.94987e-12
-7.48725e-12
7.90176e-12
-8.17034e-12
8.31779e-12
-8.34529e-12
8.26853e-12
-8.09683e-12
7.84379e-12
-7.52113e-12
7.1416e-12
-6.71704e-12
6.25913e-12
-5.77878e-12
5.28617e-12
-4.79056e-12
4.30021e-12
-3.82228e-12
3.36283e-12
-2.92681e-12
2.51809e-12
-2.1395e-12
1.79295e-12
-1.47945e-12
1.19924e-12
-9.51848e-13
7.36246e-13
-5.50905e-13
3.93925e-13
-2.63127e-13
1.56149e-13
-7.05277e-14
3.77099e-15
4.65786e-14
-8.2892e-14
1.07411e-13
-1.22217e-13
1.29205e-13
-1.30073e-13
1.26314e-13
-1.19215e-13
1.09867e-13
-9.91714e-14
8.78569e-14
-7.6494e-14
6.55136e-14
-5.52246e-14
4.58326e-14
-3.74571e-14
3.01483e-14
-2.39021e-14
1.86739e-14
-1.43904e-14
1.09597e-14
-8.27954e-15
6.24415e-15
-4.74946e-15
3.69685e-15
-2.99594e-15
2.56614e-15
-2.33756e-15
2.25113e-15
-2.25832e-15
2.32038e-15
-2.40742e-15
2.49733e-15
-2.57465e-15
2.6294e-15
-2.6562e-15
2.65485e-15
-2.64229e-15
2.73665e-15
-2.9457e-15
)
;

boundaryField
{
    right
    {
        type            zeroGradient;
    }
    left
    {
        type            inletOutlet;
        inletValue      uniform 0;
        value           uniform 0;
    }
    top
    {
        type            zeroGradient;
    }
    bottom
    {
        type            zeroGradient;
    }
    empty
    {
        type            empty;
    }
}


// ************************************************************************* //
