/*--------------------------------*- C++ -*----------------------------------*\
| =========                 |                                                 |
| \\      /  F ield         | OpenFOAM: The Open Source CFD Toolbox           |
|  \\    /   O peration     | Version:  v2006                                 |
|   \\  /    A nd           | Website:  www.openfoam.com                      |
|    \\/     M anipulation  |                                                 |
\*---------------------------------------------------------------------------*/
FoamFile
{
    version     2.0;
    format      ascii;
    class       volVectorField;
    location    "13.3";
    object      U;
}
// * * * * * * * * * * * * * * * * * * * * * * * * * * * * * * * * * * * * * //

dimensions      [0 1 -1 0 0 0 0];


internalField   nonuniform List<vector> 
52500
(
(-0.00205283 0.00139204 0)
(-0.00417598 0.000349468 0)
(-0.00637703 0.00044315 0)
(-0.00899747 0.000661631 0)
(-0.0116545 0.000760075 0)
(-0.0143438 0.000785747 0)
(-0.0170289 0.000790027 0)
(-0.0197255 0.000800984 0)
(-0.0224415 0.000824705 0)
(-0.0251822 0.00085774 0)
(-0.0279512 0.000896619 0)
(-0.0307515 0.000940374 0)
(-0.033586 0.000988876 0)
(-0.0364579 0.00104229 0)
(-0.0393702 0.0011007 0)
(-0.0423263 0.00116412 0)
(-0.0453292 0.00123252 0)
(-0.0483822 0.00130584 0)
(-0.0514884 0.0013841 0)
(-0.0546509 0.00146734 0)
(-0.0578727 0.00155549 0)
(-0.0611565 0.00164838 0)
(-0.0645051 0.00174581 0)
(-0.0679207 0.00184764 0)
(-0.0714055 0.00195373 0)
(-0.074961 0.00206373 0)
(-0.0785885 0.00217693 0)
(-0.0822889 0.00229226 0)
(-0.0860622 0.00240836 0)
(-0.0899082 0.00252396 0)
(-0.0938262 0.00263827 0)
(-0.0978156 0.00275146 0)
(-0.101876 0.00286478 0)
(-0.106009 0.00298016 0)
(-0.110215 0.00309938 0)
(-0.114495 0.00322323 0)
(-0.11885 0.00335104 0)
(-0.123282 0.00348071 0)
(-0.127788 0.00360928 0)
(-0.132368 0.00373406 0)
(-0.137017 0.00385392 0)
(-0.141733 0.00397038 0)
(-0.146513 0.00408778 0)
(-0.151356 0.00421219 0)
(-0.156265 0.00434897 0)
(-0.161242 0.00449979 0)
(-0.16629 0.00466032 0)
(-0.171409 0.00482008 0)
(-0.176593 0.00496464 0)
(-0.181829 0.00507965 0)
(-0.187101 0.00515487 0)
(-0.192389 0.00518663 0)
(-0.19767 0.00517801 0)
(-0.202927 0.00513677 0)
(-0.208142 0.0050724 0)
(-0.213304 0.00499368 0)
(-0.218404 0.0049076 0)
(-0.223439 0.00481904 0)
(-0.228406 0.00473094 0)
(-0.233306 0.00464472 0)
(-0.238138 0.00456059 0)
(-0.242902 0.00447793 0)
(-0.247599 0.00439551 0)
(-0.252228 0.00431185 0)
(-0.256787 0.00422555 0)
(-0.261276 0.00413563 0)
(-0.265692 0.00404183 0)
(-0.270032 0.00394465 0)
(-0.274296 0.00384529 0)
(-0.27848 0.00374521 0)
(-0.282586 0.00364569 0)
(-0.286612 0.00354751 0)
(-0.290558 0.00345078 0)
(-0.294425 0.00335514 0)
(-0.298213 0.00325999 0)
(-0.30192 0.00316482 0)
(-0.305549 0.00306944 0)
(-0.309097 0.00297404 0)
(-0.312566 0.00287926 0)
(-0.315956 0.00278604 0)
(-0.319269 0.00269544 0)
(-0.322507 0.00260843 0)
(-0.325671 0.00252576 0)
(-0.328765 0.00244782 0)
(-0.331791 0.00237467 0)
(-0.334752 0.00230602 0)
(-0.337651 0.00224137 0)
(-0.340489 0.00218005 0)
(-0.343268 0.0021214 0)
(-0.345991 0.00206483 0)
(-0.348658 0.00200984 0)
(-0.351271 0.00195611 0)
(-0.35383 0.00190348 0)
(-0.356336 0.00185194 0)
(-0.35879 0.00180159 0)
(-0.361192 0.00175252 0)
(-0.363542 0.00170472 0)
(-0.365841 0.00165809 0)
(-0.368089 0.00161264 0)
(-0.370286 0.00156896 0)
(-0.372431 0.00152869 0)
(-0.374526 0.00149455 0)
(-0.376575 0.00146955 0)
(-0.378581 0.00145564 0)
(-0.380549 0.00145242 0)
(-0.382485 0.0014567 0)
(-0.38439 0.0014635 0)
(-0.386268 0.00146779 0)
(-0.388116 0.00146613 0)
(-0.389935 0.0014574 0)
(-0.39172 0.00144229 0)
(-0.393472 0.00142237 0)
(-0.395187 0.0013992 0)
(-0.396866 0.00137397 0)
(-0.398508 0.00134744 0)
(-0.400111 0.00132007 0)
(-0.401677 0.0012922 0)
(-0.403203 0.00126407 0)
(-0.404692 0.00123589 0)
(-0.406141 0.00120787 0)
(-0.407551 0.00118016 0)
(-0.408922 0.00115291 0)
(-0.410255 0.00112622 0)
(-0.411548 0.00110016 0)
(-0.412803 0.00107482 0)
(-0.414019 0.00105026 0)
(-0.415196 0.00102657 0)
(-0.416335 0.00100384 0)
(-0.417435 0.00098209 0)
(-0.418496 0.000961357 0)
(-0.419519 0.000941766 0)
(-0.420504 0.000923573 0)
(-0.42145 0.000906977 0)
(-0.422358 0.000892022 0)
(-0.423228 0.000878732 0)
(-0.424058 0.000867114 0)
(-0.424848 0.000857008 0)
(-0.425597 0.000848082 0)
(-0.426304 0.000840095 0)
(-0.426967 0.000833127 0)
(-0.427586 0.000827848 0)
(-0.428158 0.000825854 0)
(-0.428687 0.000829707 0)
(-0.429175 0.000842788 0)
(-0.429627 0.000868757 0)
(-0.43005 0.00091064 0)
(-0.430454 0.000970179 0)
(-0.430849 0.0010471 0)
(-0.431242 0.0011389 0)
(-0.431642 0.00124102 0)
(-0.432054 0.00134897 0)
(-0.432482 0.00145801 0)
(-0.432927 0.00156456 0)
(-0.433391 0.00166746 0)
(-0.433873 0.00176767 0)
(-0.434373 0.00186756 0)
(-0.434894 0.0019701 0)
(-0.435437 0.0020778 0)
(-0.436008 0.00219132 0)
(-0.43661 0.00230833 0)
(-0.437246 0.00242267 0)
(-0.437916 0.00252443 0)
(-0.438615 0.00260137 0)
(-0.439332 0.00264184 0)
(-0.44005 0.002638 0)
(-0.440748 0.00258805 0)
(-0.441406 0.00249573 0)
(-0.442002 0.00236659 0)
(-0.442517 0.00220422 0)
(-0.442933 0.00200909 0)
(-0.443231 0.00178027 0)
(-0.443391 0.00152058 0)
(-0.443386 0.00124025 0)
(-0.443222 0.000951359 0)
(-0.442895 0.000666576 0)
(-0.442407 0.000402383 0)
(-0.441769 0.000174116 0)
(-0.440998 -8.70199e-06 0)
(-0.440115 -0.000144685 0)
(-0.439141 -0.00024003 0)
(-0.438092 -0.000305829 0)
(-0.436982 -0.000354609 0)
(-0.435817 -0.000397459 0)
(-0.434599 -0.000442464 0)
(-0.433329 -0.000494502 0)
(-0.432002 -0.000555876 0)
(-0.430615 -0.000627232 0)
(-0.429164 -0.000708337 0)
(-0.427645 -0.000798604 0)
(-0.426054 -0.000897395 0)
(-0.424387 -0.00100418 0)
(-0.42264 -0.00111862 0)
(-0.420809 -0.0012405 0)
(-0.41889 -0.00136967 0)
(-0.41688 -0.00150585 0)
(-0.414774 -0.00164826 0)
(-0.41257 -0.00179526 0)
(-0.410265 -0.00194382 0)
(-0.407859 -0.00208937 0)
(-0.405353 -0.0022261 0)
(-0.402752 -0.00234807 0)
(-0.400062 -0.00245047 0)
(-0.397294 -0.00253054 0)
(-0.394457 -0.00258763 0)
(-0.391563 -0.0026226 0)
(-0.388623 -0.00263733 0)
(-0.385646 -0.00263474 0)
(-0.382641 -0.00261933 0)
(-0.379614 -0.00259751 0)
(-0.37657 -0.00257688 0)
(-0.373509 -0.00256491 0)
(-0.370428 -0.00256727 0)
(-0.367322 -0.00258679 0)
(-0.364184 -0.00262308 0)
(-0.361009 -0.00267309 0)
(-0.35779 -0.00273217 0)
(-0.354526 -0.00279532 0)
(-0.351213 -0.00285818 0)
(-0.347853 -0.00291765 0)
(-0.344446 -0.00297208 0)
(-0.340995 -0.00302112 0)
(-0.337501 -0.00306533 0)
(-0.333966 -0.00310571 0)
(-0.330393 -0.00314329 0)
(-0.326784 -0.00317889 0)
(-0.32314 -0.00321294 0)
(-0.319464 -0.00324556 0)
(-0.315757 -0.00327666 0)
(-0.312022 -0.00330605 0)
(-0.30826 -0.00333356 0)
(-0.304475 -0.00335907 0)
(-0.300667 -0.00338255 0)
(-0.29684 -0.00340401 0)
(-0.292996 -0.00342347 0)
(-0.289136 -0.00344093 0)
(-0.285264 -0.00345634 0)
(-0.281381 -0.00346964 0)
(-0.27749 -0.00348071 0)
(-0.273593 -0.00348941 0)
(-0.269692 -0.00349558 0)
(-0.265791 -0.00349905 0)
(-0.26189 -0.00349957 0)
(-0.257992 -0.0034969 0)
(-0.254101 -0.00349077 0)
(-0.250219 -0.00348086 0)
(-0.246347 -0.00346684 0)
(-0.24249 -0.00344825 0)
(-0.23865 -0.00342458 0)
(-0.23483 -0.00339522 0)
(-0.231033 -0.00335938 0)
(-0.227264 -0.00331609 0)
(-0.223526 -0.00326404 0)
(-0.219824 -0.00320172 0)
(-0.216164 -0.00312778 0)
(-0.21255 -0.00304188 0)
(-0.208989 -0.00294536 0)
(-0.205485 -0.00284087 0)
(-0.202042 -0.00273094 0)
(-0.198663 -0.00261667 0)
(-0.19535 -0.00249797 0)
(-0.192105 -0.00237492 0)
(-0.188933 -0.00224884 0)
(-0.185835 -0.00212206 0)
(-0.182814 -0.00199701 0)
(-0.17987 -0.0018751 0)
(-0.177005 -0.00175607 0)
(-0.174222 -0.00163768 0)
(-0.171524 -0.0015162 0)
(-0.16892 -0.00138743 0)
(-0.166418 -0.00124802 0)
(-0.164029 -0.00109628 0)
(-0.161768 -0.000932297 0)
(-0.159647 -0.000757521 0)
(-0.157679 -0.000574018 0)
(-0.155877 -0.000383978 0)
(-0.154252 -0.000189765 0)
(-0.152813 5.28446e-06 0)
(-0.151567 0.00019605 0)
(-0.150516 0.000376099 0)
(-0.149658 0.0005394 0)
(-0.148984 0.000681846 0)
(-0.148481 0.000802041 0)
(-0.148132 0.000901936 0)
(-0.147913 0.000988564 0)
(-0.147803 0.00107625 0)
(-0.147779 0.0011842 0)
(-0.147822 0.00131884 0)
(-0.147907 0.00144873 0)
(-0.147985 0.0014899 0)
(-0.147963 0.00131289 0)
(-0.147695 0.00081751 0)
(-0.147013 3.63039e-05 0)
(-0.145797 -0.000851317 0)
(-0.144038 -0.00162134 0)
(-0.141828 -0.00212972 0)
(-0.139306 -0.00235817 0)
(-0.136612 -0.00237892 0)
(-0.133852 -0.0022946 0)
(-0.131094 -0.00219389 0)
(-0.128366 -0.00213216 0)
(-0.125671 -0.0021314 0)
(-0.122995 -0.0021897 0)
(-0.120321 -0.00229233 0)
(-0.117631 -0.00242056 0)
(-0.114915 -0.00255759 0)
(-0.11217 -0.00269141 0)
(-0.109401 -0.00281478 0)
(-0.106611 -0.00292375 0)
(-0.103807 -0.00301609 0)
(-0.100991 -0.00309054 0)
(-0.0981678 -0.00314692 0)
(-0.0953394 -0.00318664 0)
(-0.0925094 -0.00321255 0)
(-0.0896824 -0.00322808 0)
(-0.0868637 -0.00323651 0)
(-0.0840588 -0.00324089 0)
(-0.0812721 -0.00324364 0)
(-0.0785071 -0.00324638 0)
(-0.0757661 -0.00325 0)
(-0.073051 -0.00325505 0)
(-0.0703636 -0.00326182 0)
(-0.0677055 -0.00327047 0)
(-0.0650777 -0.00328113 0)
(-0.062481 -0.00329393 0)
(-0.0599156 -0.00330908 0)
(-0.0573814 -0.0033269 0)
(-0.0548781 -0.00334768 0)
(-0.0524051 -0.00337174 0)
(-0.0499621 -0.00339951 0)
(-0.047548 -0.00343149 0)
(-0.0451619 -0.00346784 0)
(-0.0428023 -0.00350709 0)
(-0.0404675 -0.00355063 0)
(-0.0381539 -0.00359729 0)
(-0.035858 -0.00364607 0)
(-0.0335762 -0.00369577 0)
(-0.0313044 -0.00374551 0)
(-0.0290382 -0.00379449 0)
(-0.0267731 -0.00384089 0)
(-0.0245054 -0.00388244 0)
(-0.0222321 -0.00391612 0)
(-0.0199517 -0.00393972 0)
(-0.0176636 -0.00395491 0)
(-0.0153663 -0.00397192 0)
(-0.0130507 -0.00401548 0)
(-0.0106979 -0.00412437 0)
(-0.00829907 -0.00432441 0)
(-0.00582072 -0.00456197 0)
(-0.00317561 -0.00448394 0)
(-0.000727702 -0.00297618 0)
(-0.00332186 0.00892889 0)
(-0.00770477 0.00711261 0)
(-0.0128248 0.00774911 0)
(-0.0182399 0.00813916 0)
(-0.0236549 0.00821013 0)
(-0.029035 0.00822546 0)
(-0.0344034 0.00825234 0)
(-0.0397774 0.00829196 0)
(-0.0451532 0.00833892 0)
(-0.0505257 0.00839122 0)
(-0.0558917 0.00844858 0)
(-0.06125 0.00851105 0)
(-0.0665993 0.00857868 0)
(-0.0719382 0.00865159 0)
(-0.0772653 0.0087299 0)
(-0.0825791 0.00881368 0)
(-0.0878782 0.00890293 0)
(-0.0931612 0.00899753 0)
(-0.0984265 0.00909728 0)
(-0.103673 0.00920191 0)
(-0.108898 0.00931106 0)
(-0.114102 0.00942424 0)
(-0.119282 0.00954083 0)
(-0.124437 0.00966004 0)
(-0.129566 0.00978096 0)
(-0.134667 0.00990262 0)
(-0.139738 0.0100241 0)
(-0.144779 0.0101448 0)
(-0.149789 0.0102643 0)
(-0.154768 0.0103827 0)
(-0.159717 0.0105002 0)
(-0.164638 0.0106176 0)
(-0.169532 0.0107355 0)
(-0.1744 0.0108541 0)
(-0.179241 0.0109732 0)
(-0.184055 0.0110919 0)
(-0.188839 0.0112089 0)
(-0.193591 0.0113229 0)
(-0.19831 0.0114325 0)
(-0.202995 0.0115364 0)
(-0.207645 0.0116342 0)
(-0.212262 0.0117257 0)
(-0.216843 0.0118116 0)
(-0.221386 0.0118926 0)
(-0.225886 0.011969 0)
(-0.230336 0.0120399 0)
(-0.234726 0.0121027 0)
(-0.239048 0.0121527 0)
(-0.243297 0.0121842 0)
(-0.24747 0.012192 0)
(-0.251569 0.0121725 0)
(-0.255599 0.0121247 0)
(-0.259565 0.0120506 0)
(-0.263476 0.0119542 0)
(-0.267339 0.0118407 0)
(-0.271159 0.011715 0)
(-0.274941 0.0115814 0)
(-0.278687 0.0114431 0)
(-0.282397 0.0113026 0)
(-0.286072 0.0111611 0)
(-0.289711 0.0110192 0)
(-0.293314 0.0108769 0)
(-0.29688 0.0107338 0)
(-0.300408 0.0105892 0)
(-0.3039 0.0104425 0)
(-0.307357 0.0102931 0)
(-0.310779 0.0101409 0)
(-0.314168 0.00998597 0)
(-0.317524 0.00982857 0)
(-0.320849 0.00966923 0)
(-0.324141 0.0095084 0)
(-0.327401 0.00934642 0)
(-0.330627 0.00918354 0)
(-0.333818 0.00901993 0)
(-0.336974 0.00885581 0)
(-0.340094 0.00869151 0)
(-0.343178 0.00852751 0)
(-0.346227 0.00836444 0)
(-0.349241 0.00820304 0)
(-0.352221 0.00804407 0)
(-0.355168 0.00788821 0)
(-0.358081 0.007736 0)
(-0.360961 0.00758777 0)
(-0.363807 0.00744365 0)
(-0.366618 0.00730359 0)
(-0.369394 0.00716736 0)
(-0.372133 0.00703467 0)
(-0.374836 0.0069051 0)
(-0.3775 0.00677823 0)
(-0.380127 0.00665362 0)
(-0.382715 0.00653091 0)
(-0.385264 0.00640978 0)
(-0.387775 0.00628996 0)
(-0.390246 0.00617117 0)
(-0.392679 0.00605301 0)
(-0.395072 0.00593494 0)
(-0.397426 0.00581627 0)
(-0.399741 0.0056964 0)
(-0.402016 0.00557508 0)
(-0.404251 0.00545271 0)
(-0.406445 0.00533039 0)
(-0.408596 0.00520972 0)
(-0.410703 0.00509234 0)
(-0.412763 0.00497943 0)
(-0.414772 0.00487148 0)
(-0.41673 0.00476818 0)
(-0.418635 0.00466864 0)
(-0.420488 0.00457176 0)
(-0.422292 0.00447641 0)
(-0.42405 0.00438165 0)
(-0.425764 0.00428687 0)
(-0.427435 0.00419175 0)
(-0.429066 0.00409619 0)
(-0.430656 0.00400015 0)
(-0.432207 0.00390367 0)
(-0.433717 0.00380676 0)
(-0.435189 0.00370943 0)
(-0.43662 0.00361173 0)
(-0.438012 0.00351366 0)
(-0.439363 0.0034152 0)
(-0.440674 0.00331634 0)
(-0.441943 0.00321702 0)
(-0.44317 0.00311722 0)
(-0.444354 0.00301687 0)
(-0.445496 0.00291595 0)
(-0.446593 0.00281442 0)
(-0.447646 0.00271224 0)
(-0.448653 0.00260941 0)
(-0.449614 0.00250586 0)
(-0.450527 0.00240155 0)
(-0.451391 0.00229635 0)
(-0.452205 0.00218996 0)
(-0.452968 0.00208189 0)
(-0.453679 0.00197152 0)
(-0.454336 0.00185812 0)
(-0.454938 0.00174084 0)
(-0.455483 0.00161884 0)
(-0.45597 0.00149157 0)
(-0.456397 0.00135901 0)
(-0.456764 0.00122165 0)
(-0.457067 0.00108068 0)
(-0.457307 0.000938325 0)
(-0.45748 0.000797629 0)
(-0.457584 0.000661828 0)
(-0.457617 0.000534188 0)
(-0.457574 0.000417595 0)
(-0.457453 0.000313932 0)
(-0.45725 0.000223966 0)
(-0.456964 0.000147165 0)
(-0.456593 8.22541e-05 0)
(-0.456138 2.65178e-05 0)
(-0.455602 -2.17226e-05 0)
(-0.454988 -6.6029e-05 0)
(-0.454296 -0.000106925 0)
(-0.453529 -0.000144476 0)
(-0.452687 -0.00017814 0)
(-0.451768 -0.000206726 0)
(-0.45077 -0.000228717 0)
(-0.449692 -0.000242996 0)
(-0.448531 -0.000249688 0)
(-0.447286 -0.000251019 0)
(-0.445959 -0.000251734 0)
(-0.444553 -0.000258665 0)
(-0.443079 -0.000279384 0)
(-0.441545 -0.000320404 0)
(-0.439964 -0.000385631 0)
(-0.438348 -0.000475946 0)
(-0.436707 -0.000590488 0)
(-0.435052 -0.000728339 0)
(-0.433391 -0.000889353 0)
(-0.431735 -0.00107366 0)
(-0.430097 -0.00127934 0)
(-0.428497 -0.00150103 0)
(-0.426919 -0.001734 0)
(-0.425361 -0.00197384 0)
(-0.423817 -0.00221352 0)
(-0.422276 -0.00244493 0)
(-0.420722 -0.00266093 0)
(-0.419139 -0.00285712 0)
(-0.41751 -0.0030325 0)
(-0.415825 -0.00318923 0)
(-0.414075 -0.00333156 0)
(-0.412259 -0.00346451 0)
(-0.410375 -0.00359272 0)
(-0.40843 -0.00371985 0)
(-0.406425 -0.00384838 0)
(-0.404367 -0.0039798 0)
(-0.40226 -0.004115 0)
(-0.400108 -0.00425448 0)
(-0.397914 -0.00439859 0)
(-0.395682 -0.00454761 0)
(-0.393415 -0.00470176 0)
(-0.391114 -0.00486127 0)
(-0.388783 -0.00502625 0)
(-0.386423 -0.00519667 0)
(-0.384037 -0.00537223 0)
(-0.381627 -0.00555223 0)
(-0.379193 -0.00573544 0)
(-0.376736 -0.00592002 0)
(-0.374254 -0.00610349 0)
(-0.371744 -0.00628284 0)
(-0.3692 -0.00645485 0)
(-0.366614 -0.00661657 0)
(-0.36398 -0.00676585 0)
(-0.361291 -0.00690151 0)
(-0.358543 -0.00702324 0)
(-0.355732 -0.00713149 0)
(-0.352859 -0.0072274 0)
(-0.349925 -0.00731284 0)
(-0.346935 -0.00739039 0)
(-0.343895 -0.0074633 0)
(-0.340813 -0.00753498 0)
(-0.337696 -0.00760847 0)
(-0.334552 -0.00768586 0)
(-0.331386 -0.00776814 0)
(-0.328202 -0.00785531 0)
(-0.324999 -0.00794659 0)
(-0.321778 -0.00804071 0)
(-0.318537 -0.00813617 0)
(-0.315274 -0.00823161 0)
(-0.311986 -0.00832587 0)
(-0.308673 -0.00841791 0)
(-0.305333 -0.0085068 0)
(-0.301968 -0.00859186 0)
(-0.298578 -0.00867263 0)
(-0.295165 -0.00874878 0)
(-0.29173 -0.00882005 0)
(-0.288276 -0.0088863 0)
(-0.284804 -0.00894743 0)
(-0.281317 -0.00900331 0)
(-0.277815 -0.00905387 0)
(-0.274302 -0.00909906 0)
(-0.270779 -0.00913882 0)
(-0.267249 -0.00917315 0)
(-0.263713 -0.00920207 0)
(-0.260173 -0.00922562 0)
(-0.256633 -0.00924382 0)
(-0.253093 -0.00925673 0)
(-0.249556 -0.00926442 0)
(-0.246023 -0.00926696 0)
(-0.242497 -0.00926444 0)
(-0.238978 -0.00925692 0)
(-0.235468 -0.00924443 0)
(-0.23197 -0.00922698 0)
(-0.228482 -0.0092046 0)
(-0.225008 -0.00917731 0)
(-0.221547 -0.00914507 0)
(-0.218101 -0.00910782 0)
(-0.214668 -0.00906547 0)
(-0.21125 -0.00901783 0)
(-0.207847 -0.0089647 0)
(-0.204456 -0.00890579 0)
(-0.201076 -0.00884073 0)
(-0.197706 -0.00876909 0)
(-0.194343 -0.00869066 0)
(-0.190982 -0.00860563 0)
(-0.187623 -0.00851472 0)
(-0.184263 -0.00841884 0)
(-0.180902 -0.00831858 0)
(-0.177541 -0.00821376 0)
(-0.17418 -0.00810362 0)
(-0.170819 -0.00798738 0)
(-0.167459 -0.00786459 0)
(-0.164101 -0.00773496 0)
(-0.160748 -0.00759775 0)
(-0.157405 -0.00745139 0)
(-0.154074 -0.00729321 0)
(-0.150761 -0.0071196 0)
(-0.147468 -0.00692637 0)
(-0.144198 -0.00670929 0)
(-0.140954 -0.00646459 0)
(-0.137739 -0.00618939 0)
(-0.134555 -0.00588203 0)
(-0.131408 -0.00554223 0)
(-0.128303 -0.00517104 0)
(-0.125246 -0.00477085 0)
(-0.122243 -0.00434588 0)
(-0.1193 -0.00390275 0)
(-0.116422 -0.00345044 0)
(-0.113615 -0.0030001 0)
(-0.110883 -0.00256549 0)
(-0.108225 -0.00216199 0)
(-0.105636 -0.00180417 0)
(-0.103109 -0.00150511 0)
(-0.100623 -0.00127801 0)
(-0.0981451 -0.00113744 0)
(-0.0956231 -0.00110206 0)
(-0.0930032 -0.00119261 0)
(-0.0902399 -0.00142794 0)
(-0.0873213 -0.00183449 0)
(-0.0842782 -0.00242944 0)
(-0.08118 -0.0031923 0)
(-0.0780948 -0.00405234 0)
(-0.075052 -0.00490446 0)
(-0.0720415 -0.00564672 0)
(-0.0690367 -0.00621182 0)
(-0.0660244 -0.00657759 0)
(-0.0630162 -0.00676101 0)
(-0.0600431 -0.00680456 0)
(-0.0571416 -0.00676021 0)
(-0.054338 -0.006676 0)
(-0.0516413 -0.00658724 0)
(-0.0490435 -0.00651319 0)
(-0.0465268 -0.00645798 0)
(-0.0440733 -0.00641534 0)
(-0.0416701 -0.00637555 0)
(-0.0393114 -0.00633181 0)
(-0.0369983 -0.00628315 0)
(-0.0347358 -0.00623385 0)
(-0.0325303 -0.00618958 0)
(-0.0303871 -0.00615354 0)
(-0.0283088 -0.00612443 0)
(-0.0262933 -0.00609739 0)
(-0.0243366 -0.00606625 0)
(-0.0224353 -0.00602548 0)
(-0.0205852 -0.00597246 0)
(-0.0187816 -0.00590799 0)
(-0.0170227 -0.00583346 0)
(-0.0153087 -0.00575058 0)
(-0.0136412 -0.00566032 0)
(-0.0120232 -0.00556317 0)
(-0.0104583 -0.00545943 0)
(-0.00894994 -0.00535012 0)
(-0.00750193 -0.00523715 0)
(-0.0061178 -0.00512168 0)
(-0.0048013 -0.00500367 0)
(-0.00355599 -0.00488427 0)
(-0.00238759 -0.00476307 0)
(-0.00130139 -0.00464017 0)
(-0.000299901 -0.00451629 0)
(0.000611157 -0.00439238 0)
(0.00142083 -0.00427117 0)
(0.00212574 -0.00415392 0)
(0.00272341 -0.00404434 0)
(0.00320849 -0.00394341 0)
(0.00358148 -0.00385526 0)
(0.0038408 -0.00378085 0)
(0.00398844 -0.0037219 0)
(0.0040303 -0.00367957 0)
(0.00397198 -0.00365312 0)
(0.00382282 -0.00364281 0)
(0.00359319 -0.00364705 0)
(0.00329764 -0.00366516 0)
(0.00295119 -0.00369599 0)
(0.00255657 -0.00373541 0)
(0.00213301 -0.00377835 0)
(0.0016211 -0.00379226 0)
(0.00107805 -0.00387948 0)
(0.000393118 -0.00416782 0)
(0.00018815 -0.00343084 0)
(-0.00346647 0.0185991 0)
(-0.00785585 0.0157586 0)
(-0.0130084 0.017065 0)
(-0.0185294 0.0177575 0)
(-0.0241103 0.0178391 0)
(-0.0296325 0.0178164 0)
(-0.03512 0.0178243 0)
(-0.0405911 0.0178487 0)
(-0.0460448 0.0178722 0)
(-0.0514756 0.0178931 0)
(-0.0568793 0.0179132 0)
(-0.0622529 0.0179333 0)
(-0.0675936 0.0179536 0)
(-0.0728985 0.0179739 0)
(-0.0781644 0.0179944 0)
(-0.0833885 0.0180151 0)
(-0.0885679 0.0180358 0)
(-0.0937 0.0180567 0)
(-0.0987824 0.0180777 0)
(-0.103813 0.0180988 0)
(-0.108789 0.01812 0)
(-0.113711 0.0181413 0)
(-0.118575 0.0181626 0)
(-0.123383 0.0181835 0)
(-0.128132 0.0182037 0)
(-0.132825 0.018223 0)
(-0.137461 0.0182416 0)
(-0.142042 0.0182599 0)
(-0.14657 0.018279 0)
(-0.151047 0.0182999 0)
(-0.155476 0.0183237 0)
(-0.159859 0.0183509 0)
(-0.164199 0.0183815 0)
(-0.168497 0.0184147 0)
(-0.172755 0.0184491 0)
(-0.176973 0.0184831 0)
(-0.181153 0.0185149 0)
(-0.185295 0.0185431 0)
(-0.1894 0.0185669 0)
(-0.19347 0.0185859 0)
(-0.197506 0.0186001 0)
(-0.201511 0.0186101 0)
(-0.205487 0.0186156 0)
(-0.209434 0.0186159 0)
(-0.213353 0.0186089 0)
(-0.217245 0.0185912 0)
(-0.221109 0.018559 0)
(-0.224946 0.0185082 0)
(-0.228758 0.0184361 0)
(-0.232547 0.018342 0)
(-0.236319 0.018227 0)
(-0.240078 0.018094 0)
(-0.243829 0.0179464 0)
(-0.247574 0.0177875 0)
(-0.251316 0.0176205 0)
(-0.255054 0.0174475 0)
(-0.258788 0.0172701 0)
(-0.262514 0.0170895 0)
(-0.266229 0.0169062 0)
(-0.269932 0.0167208 0)
(-0.273618 0.0165334 0)
(-0.277285 0.0163444 0)
(-0.280931 0.0161539 0)
(-0.284554 0.015962 0)
(-0.288151 0.0157691 0)
(-0.291722 0.0155751 0)
(-0.295265 0.0153802 0)
(-0.298779 0.0151841 0)
(-0.302261 0.0149863 0)
(-0.30571 0.0147866 0)
(-0.309125 0.0145842 0)
(-0.312503 0.0143791 0)
(-0.315844 0.0141711 0)
(-0.319146 0.0139607 0)
(-0.322409 0.0137483 0)
(-0.32563 0.0135349 0)
(-0.328811 0.0133214 0)
(-0.331949 0.0131088 0)
(-0.335046 0.012898 0)
(-0.3381 0.0126895 0)
(-0.34111 0.0124837 0)
(-0.344077 0.0122808 0)
(-0.347 0.0120806 0)
(-0.349877 0.011883 0)
(-0.35271 0.0116877 0)
(-0.355497 0.0114944 0)
(-0.358238 0.011303 0)
(-0.360934 0.0111131 0)
(-0.363585 0.0109247 0)
(-0.366191 0.0107377 0)
(-0.368752 0.0105521 0)
(-0.371269 0.0103678 0)
(-0.373742 0.0101847 0)
(-0.376173 0.0100029 0)
(-0.378562 0.0098222 0)
(-0.380909 0.00964251 0)
(-0.383216 0.00946363 0)
(-0.385484 0.00928522 0)
(-0.387714 0.00910678 0)
(-0.389908 0.00892765 0)
(-0.392067 0.00874731 0)
(-0.394192 0.00856577 0)
(-0.396283 0.00838389 0)
(-0.398339 0.00820336 0)
(-0.400361 0.00802624 0)
(-0.402346 0.00785414 0)
(-0.404296 0.00768766 0)
(-0.40621 0.00752622 0)
(-0.408088 0.00736848 0)
(-0.409931 0.00721286 0)
(-0.411737 0.00705814 0)
(-0.413508 0.00690352 0)
(-0.415243 0.00674855 0)
(-0.416942 0.00659298 0)
(-0.418606 0.00643666 0)
(-0.420234 0.0062795 0)
(-0.421826 0.00612137 0)
(-0.423381 0.00596217 0)
(-0.424901 0.00580181 0)
(-0.426383 0.0056402 0)
(-0.427829 0.00547729 0)
(-0.429237 0.00531304 0)
(-0.430607 0.00514737 0)
(-0.431939 0.00498017 0)
(-0.433232 0.0048113 0)
(-0.434486 0.00464065 0)
(-0.4357 0.00446813 0)
(-0.436874 0.00429359 0)
(-0.438006 0.00411686 0)
(-0.439096 0.00393785 0)
(-0.440143 0.00375642 0)
(-0.441148 0.00357237 0)
(-0.442108 0.00338568 0)
(-0.443024 0.00319645 0)
(-0.443895 0.00300451 0)
(-0.444721 0.00280952 0)
(-0.445503 0.00261129 0)
(-0.44624 0.00240959 0)
(-0.446933 0.00220397 0)
(-0.447584 0.00199399 0)
(-0.448195 0.00177966 0)
(-0.448765 0.00156144 0)
(-0.449294 0.00134037 0)
(-0.449784 0.0011183 0)
(-0.450232 0.000897733 0)
(-0.450636 0.00068162 0)
(-0.450993 0.000472901 0)
(-0.451301 0.000273943 0)
(-0.451557 8.62612e-05 0)
(-0.451757 -8.97191e-05 0)
(-0.451899 -0.000256827 0)
(-0.451982 -0.000418508 0)
(-0.452005 -0.000575486 0)
(-0.451963 -0.000729581 0)
(-0.451856 -0.000883664 0)
(-0.451683 -0.00103954 0)
(-0.451443 -0.00119805 0)
(-0.451134 -0.0013591 0)
(-0.450754 -0.00152171 0)
(-0.4503 -0.00168425 0)
(-0.449769 -0.00184485 0)
(-0.44916 -0.00200205 0)
(-0.448473 -0.00215547 0)
(-0.447711 -0.00230627 0)
(-0.446876 -0.00245717 0)
(-0.445974 -0.0026121 0)
(-0.445009 -0.0027753 0)
(-0.443984 -0.00294981 0)
(-0.4429 -0.00313668 0)
(-0.44176 -0.00333509 0)
(-0.440565 -0.00354312 0)
(-0.439316 -0.0037594 0)
(-0.438018 -0.003984 0)
(-0.436676 -0.00421564 0)
(-0.435294 -0.00445206 0)
(-0.433873 -0.00469283 0)
(-0.432412 -0.00493864 0)
(-0.430909 -0.00519018 0)
(-0.429359 -0.0054473 0)
(-0.427757 -0.00570869 0)
(-0.426098 -0.00597199 0)
(-0.424379 -0.00623442 0)
(-0.422599 -0.00649343 0)
(-0.420755 -0.00674726 0)
(-0.41885 -0.00699512 0)
(-0.416883 -0.00723709 0)
(-0.414856 -0.00747383 0)
(-0.412771 -0.00770631 0)
(-0.410628 -0.00793552 0)
(-0.408429 -0.00816237 0)
(-0.406176 -0.00838759 0)
(-0.403872 -0.00861174 0)
(-0.401517 -0.00883518 0)
(-0.399114 -0.00905814 0)
(-0.396665 -0.00928072 0)
(-0.394172 -0.00950294 0)
(-0.391639 -0.00972481 0)
(-0.389066 -0.00994637 0)
(-0.386456 -0.0101678 0)
(-0.383809 -0.0103897 0)
(-0.381127 -0.0106126 0)
(-0.378409 -0.0108371 0)
(-0.375653 -0.011063 0)
(-0.372858 -0.0112887 0)
(-0.370022 -0.0115109 0)
(-0.367143 -0.0117251 0)
(-0.364221 -0.011927 0)
(-0.361255 -0.0121133 0)
(-0.358245 -0.0122825 0)
(-0.355193 -0.0124353 0)
(-0.352101 -0.0125735 0)
(-0.34897 -0.0127004 0)
(-0.345803 -0.0128194 0)
(-0.342604 -0.0129345 0)
(-0.339375 -0.0130491 0)
(-0.336116 -0.013166 0)
(-0.332831 -0.0132867 0)
(-0.32952 -0.0134117 0)
(-0.326184 -0.0135402 0)
(-0.322822 -0.0136706 0)
(-0.319437 -0.0138011 0)
(-0.316028 -0.0139295 0)
(-0.312597 -0.0140542 0)
(-0.309145 -0.0141737 0)
(-0.305673 -0.0142871 0)
(-0.302183 -0.0143936 0)
(-0.298676 -0.0144927 0)
(-0.295153 -0.0145841 0)
(-0.291617 -0.0146675 0)
(-0.288068 -0.0147425 0)
(-0.28451 -0.014809 0)
(-0.280942 -0.0148668 0)
(-0.277368 -0.0149157 0)
(-0.273789 -0.0149557 0)
(-0.270206 -0.0149868 0)
(-0.266623 -0.0150091 0)
(-0.26304 -0.0150228 0)
(-0.259459 -0.0150278 0)
(-0.255883 -0.0150244 0)
(-0.252313 -0.0150128 0)
(-0.248751 -0.0149931 0)
(-0.245198 -0.0149655 0)
(-0.241657 -0.0149303 0)
(-0.238129 -0.0148877 0)
(-0.234615 -0.0148378 0)
(-0.231118 -0.0147811 0)
(-0.227638 -0.0147179 0)
(-0.224176 -0.0146484 0)
(-0.220733 -0.014573 0)
(-0.217312 -0.0144921 0)
(-0.213911 -0.0144062 0)
(-0.210532 -0.0143157 0)
(-0.207174 -0.0142215 0)
(-0.203839 -0.0141245 0)
(-0.200524 -0.0140256 0)
(-0.19723 -0.0139254 0)
(-0.193956 -0.0138234 0)
(-0.1907 -0.0137185 0)
(-0.187464 -0.0136095 0)
(-0.184245 -0.013496 0)
(-0.181043 -0.0133782 0)
(-0.177855 -0.0132562 0)
(-0.174681 -0.0131298 0)
(-0.171518 -0.0129979 0)
(-0.168365 -0.0128587 0)
(-0.165219 -0.01271 0)
(-0.162079 -0.0125494 0)
(-0.15894 -0.0123743 0)
(-0.155799 -0.0121824 0)
(-0.152649 -0.0119717 0)
(-0.149486 -0.0117401 0)
(-0.1463 -0.0114861 0)
(-0.143084 -0.0112081 0)
(-0.13983 -0.0109047 0)
(-0.136529 -0.0105755 0)
(-0.133174 -0.0102213 0)
(-0.12976 -0.00984522 0)
(-0.126281 -0.00945264 0)
(-0.122735 -0.00905156 0)
(-0.119125 -0.00865199 0)
(-0.115454 -0.00826517 0)
(-0.111732 -0.00790299 0)
(-0.107973 -0.00757851 0)
(-0.104192 -0.00730689 0)
(-0.100409 -0.0071067 0)
(-0.0966551 -0.00700335 0)
(-0.0929635 -0.0070311 0)
(-0.0893573 -0.00722723 0)
(-0.0858536 -0.00761801 0)
(-0.0824764 -0.00819995 0)
(-0.0792523 -0.00892889 0)
(-0.0762077 -0.00972433 0)
(-0.0733592 -0.0104905 0)
(-0.0707014 -0.0111442 0)
(-0.0682049 -0.0116309 0)
(-0.065825 -0.011923 0)
(-0.0635153 -0.0120141 0)
(-0.0612388 -0.0119191 0)
(-0.0589714 -0.0116775 0)
(-0.0567036 -0.0113518 0)
(-0.054436 -0.0110137 0)
(-0.0521739 -0.0107244 0)
(-0.0499231 -0.0105179 0)
(-0.0476876 -0.0103959 0)
(-0.0454699 -0.0103366 0)
(-0.0432719 -0.0103082 0)
(-0.0410951 -0.0102809 0)
(-0.038943 -0.0102325 0)
(-0.0368224 -0.0101513 0)
(-0.0347417 -0.0100349 0)
(-0.0327094 -0.00988942 0)
(-0.0307321 -0.00972481 0)
(-0.0288121 -0.00955158 0)
(-0.0269459 -0.00937923 0)
(-0.0251281 -0.00921421 0)
(-0.023354 -0.00905763 0)
(-0.0216183 -0.00890759 0)
(-0.0199164 -0.0087601 0)
(-0.0182464 -0.0086107 0)
(-0.0166073 -0.00845538 0)
(-0.0149987 -0.0082917 0)
(-0.0134207 -0.00811836 0)
(-0.0118752 -0.00793558 0)
(-0.0103631 -0.00774348 0)
(-0.00888485 -0.00754193 0)
(-0.0074455 -0.00733013 0)
(-0.00605018 -0.00710767 0)
(-0.00470244 -0.00687351 0)
(-0.00340751 -0.00662486 0)
(-0.00217023 -0.00636174 0)
(-0.000998941 -0.00608492 0)
(9.87163e-05 -0.00579546 0)
(0.00111309 -0.0054929 0)
(0.00203495 -0.0051798 0)
(0.00285268 -0.00485993 0)
(0.00355562 -0.00453804 0)
(0.0041365 -0.00422022 0)
(0.00458467 -0.00391101 0)
(0.00489516 -0.00361622 0)
(0.00506199 -0.00334221 0)
(0.00508296 -0.00309208 0)
(0.00496024 -0.00287254 0)
(0.00469764 -0.00268577 0)
(0.00430523 -0.00253828 0)
(0.00378645 -0.0024328 0)
(0.0031784 -0.00237248 0)
(0.00243219 -0.00231616 0)
(0.00172849 -0.00232357 0)
(0.00100563 -0.00275846 0)
(0.000704989 -0.00182988 0)
(-0.00333958 0.0274568 0)
(-0.00725695 0.0232481 0)
(-0.0118072 0.0252467 0)
(-0.0167951 0.0263806 0)
(-0.0219042 0.0265065 0)
(-0.0269612 0.0264078 0)
(-0.0319722 0.0263565 0)
(-0.036961 0.0263413 0)
(-0.0419333 0.0263251 0)
(-0.0468866 0.0262997 0)
(-0.0518171 0.0262676 0)
(-0.0567227 0.0262309 0)
(-0.0616016 0.0261899 0)
(-0.0664519 0.0261446 0)
(-0.0712718 0.026095 0)
(-0.0760596 0.0260415 0)
(-0.0808138 0.0259845 0)
(-0.085533 0.0259243 0)
(-0.0902163 0.0258615 0)
(-0.0948629 0.0257966 0)
(-0.0994726 0.0257306 0)
(-0.104046 0.025664 0)
(-0.108582 0.0255976 0)
(-0.113084 0.0255322 0)
(-0.117551 0.0254683 0)
(-0.121987 0.0254068 0)
(-0.126394 0.0253484 0)
(-0.130773 0.0252944 0)
(-0.135127 0.025246 0)
(-0.139459 0.0252042 0)
(-0.14377 0.0251698 0)
(-0.148063 0.0251428 0)
(-0.152338 0.0251225 0)
(-0.156596 0.0251077 0)
(-0.160839 0.0250969 0)
(-0.165067 0.0250886 0)
(-0.169281 0.0250814 0)
(-0.173483 0.0250745 0)
(-0.177673 0.025067 0)
(-0.181853 0.0250586 0)
(-0.186024 0.0250494 0)
(-0.190186 0.0250392 0)
(-0.194339 0.0250276 0)
(-0.198483 0.0250138 0)
(-0.202619 0.0249959 0)
(-0.206745 0.0249714 0)
(-0.210861 0.0249372 0)
(-0.214969 0.0248904 0)
(-0.219068 0.0248284 0)
(-0.223159 0.0247496 0)
(-0.227243 0.0246534 0)
(-0.23132 0.0245401 0)
(-0.235387 0.0244108 0)
(-0.239445 0.0242666 0)
(-0.243491 0.0241089 0)
(-0.247523 0.0239393 0)
(-0.251538 0.0237589 0)
(-0.255535 0.0235688 0)
(-0.259509 0.02337 0)
(-0.26346 0.023163 0)
(-0.267385 0.0229484 0)
(-0.27128 0.0227266 0)
(-0.275145 0.0224979 0)
(-0.278976 0.0222624 0)
(-0.282771 0.0220204 0)
(-0.28653 0.0217718 0)
(-0.290249 0.021517 0)
(-0.293926 0.0212559 0)
(-0.297562 0.0209889 0)
(-0.301154 0.0207161 0)
(-0.304701 0.0204379 0)
(-0.308202 0.0201548 0)
(-0.311658 0.0198675 0)
(-0.315068 0.0195765 0)
(-0.31843 0.0192829 0)
(-0.321746 0.0189873 0)
(-0.325014 0.0186908 0)
(-0.328235 0.0183943 0)
(-0.331406 0.0180986 0)
(-0.334529 0.0178042 0)
(-0.337602 0.0175119 0)
(-0.340626 0.017222 0)
(-0.343599 0.0169347 0)
(-0.346522 0.0166502 0)
(-0.349395 0.0163686 0)
(-0.352218 0.0160899 0)
(-0.354991 0.0158142 0)
(-0.357715 0.0155414 0)
(-0.36039 0.0152715 0)
(-0.363017 0.0150046 0)
(-0.365597 0.0147405 0)
(-0.368129 0.0144794 0)
(-0.370616 0.0142211 0)
(-0.373057 0.0139656 0)
(-0.375453 0.0137129 0)
(-0.377805 0.0134631 0)
(-0.380114 0.0132162 0)
(-0.38238 0.0129723 0)
(-0.384605 0.0127318 0)
(-0.386789 0.0124947 0)
(-0.388934 0.0122613 0)