/*--------------------------------*- C++ -*----------------------------------*\
| =========                 |                                                 |
| \\      /  F ield         | OpenFOAM: The Open Source CFD Toolbox           |
|  \\    /   O peration     | Version:  v2006                                 |
|   \\  /    A nd           | Website:  www.openfoam.com                      |
|    \\/     M anipulation  |                                                 |
\*---------------------------------------------------------------------------*/
FoamFile
{
    version     2.0;
    format      ascii;
    class       volScalarField;
    location    "0";
    object      f;
}
// * * * * * * * * * * * * * * * * * * * * * * * * * * * * * * * * * * * * * //

dimensions      [0 0 0 0 0 0 0];


internalField   nonuniform List<scalar> 
2500
(
-2.17927e-11
-3.0003e-10
-5.33292e-11
9.23566e-10
1.16037e-10
-3.91089e-09
-1.68301e-09
9.13868e-09
8.78826e-09
-1.91744e-08
-3.02448e-08
2.26807e-08
7.81998e-08
1.64018e-08
-1.46055e-07
-1.67715e-08
1.28187e-06
4.25446e-06
8.77219e-06
1.53015e-05
2.56178e-05
4.13348e-05
6.00478e-05
7.67775e-05
8.58578e-05
8.89861e-05
0.000100671
0.00014866
0.000270302
0.000498748
0.000841391
0.00126717
0.00170348
0.00205821
0.00224972
0.00223806
0.0020337
0.00169134
0.00128708
0.000893486
0.000563187
0.000319971
0.000162258
7.25501e-05
2.81498e-05
9.32213e-06
2.63054e-06
6.74228e-07
1.78848e-07
9.45627e-08
-1.78379e-10
-1.08595e-10
8.07387e-10
6.02066e-10
-2.73475e-09
-3.75018e-09
7.43648e-09
1.40782e-08
-1.20872e-08
-4.00765e-08
1.65055e-09
8.6627e-08
9.1413e-08
-8.45463e-08
-7.164e-08
1.44312e-06
5.29625e-06
1.00678e-05
1.3641e-05
1.36352e-05
1.03914e-05
3.72492e-06
-2.31562e-06
4.58215e-07
2.10577e-05
6.54599e-05
0.000130595
0.00020765
0.000280821
0.000327345
0.000324816
0.000258136
0.000127097
-4.63502e-05
-0.000227579
-0.000376981
-0.000466476
-0.000485842
-0.000443371
-0.000360424
-0.000261702
-0.000169634
-9.74309e-05
-4.90624e-05
-2.13192e-05
-7.7841e-06
-2.28602e-06
-5.11367e-07
-7.45495e-08
-1.65861e-08
-3.33982e-10
3.82245e-10
1.68038e-09
-1.25007e-09
-7.05514e-09
5.16859e-10
2.26764e-08
6.74751e-09
-5.21479e-08
-5.46577e-08
9.22172e-08
2.1346e-07
5.06513e-08
-2.08673e-07
1.46968e-06
6.97179e-06
1.49376e-05
2.09604e-05
2.06203e-05
1.46165e-05
7.82855e-06
8.10976e-06
2.91949e-05
7.82429e-05
0.000152539
0.000240025
0.000328049
0.000408169
0.000478676
0.000541632
0.000598099
0.000643242
0.000668815
0.000664238
0.000626156
0.000556394
0.000464481
0.000363566
0.000266686
0.000183533
0.000118558
7.19868e-05
4.07785e-05
2.12649e-05
1.01064e-05
4.31883e-06
1.6211e-06
5.18368e-07
1.38163e-07
2.87872e-08
-2.52347e-10
1.84108e-09
8.41931e-10
-7.44466e-09
-7.25808e-09
2.07626e-08
3.70336e-08
-4.43275e-08
-1.23287e-07
3.90477e-08
3.38598e-07
3.15502e-07
-1.28613e-07
1.43073e-06
8.68082e-06
2.14258e-05
3.24303e-05
3.36716e-05
2.20531e-05
5.48697e-06
-4.07976e-06
1.84889e-05
8.79455e-05
0.000203422
0.000345265
0.00048518
0.000597644
0.000667039
0.000688739
0.00066569
0.000603278
0.00050747
0.000386426
0.000252334
0.000122846
1.32787e-05
-6.38836e-05
-0.000104862
-0.000113465
-9.94042e-05
-7.43186e-05
-4.83153e-05
-2.76693e-05
-1.38998e-05
-6.01573e-06
-2.21827e-06
-7.01457e-07
-2.00001e-07
-5.33181e-08
-2.41088e-08
5.38158e-10
3.65033e-09
-5.11766e-09
-1.67168e-08
9.6225e-09
6.10503e-08
2.81835e-09
-1.70963e-07
-8.58722e-08
4.0595e-07
7.17914e-07
2.43211e-07
1.48749e-06
1.01767e-05
2.9488e-05
4.95005e-05
5.65885e-05
4.03431e-05
1.0045e-05
-1.40722e-05
8.46838e-06
0.000109027
0.000292338
0.000527664
0.000761505
0.000941045
0.00103245
0.00102843
0.000945559
0.000812838
0.000659024
0.000506363
0.000368224
0.000252584
0.000161884
9.68776e-05
5.49613e-05
3.17591e-05
2.13204e-05
1.77154e-05
1.60234e-05
1.36314e-05
1.02601e-05
6.74912e-06
3.81512e-06
1.80086e-06
6.96602e-07
2.08652e-07
4.63893e-08
2.06092e-09
2.57254e-09
1.61056e-09
-2.08065e-08
-8.77743e-09
6.4161e-08
7.09361e-08
-1.50498e-07
-3.0389e-07
3.37114e-07
1.20109e-06
1.14862e-06
1.84866e-06
1.15821e-05
3.8072e-05
7.30131e-05
9.31144e-05
7.54556e-05
2.7667e-05
-2.06487e-05
-1.01422e-05
0.000121525
0.000395209
0.000770969
0.00116176
0.0014725
0.00163473
0.00162624
0.001471
0.00122209
0.000938519
0.000667108
0.000435133
0.000252921
0.000120531
3.23112e-05
-1.88019e-05
-4.14436e-05
-4.4507e-05
-3.66884e-05
-2.51601e-05
-1.50066e-05
-7.91858e-06
-3.75782e-06
-1.69853e-06
-8.27148e-07
-4.54524e-07
-2.45777e-07
-1.17908e-07
-4.74951e-08
-1.85787e-08
4.28098e-09
-1.06217e-08
-3.91411e-08
4.59177e-08
1.45342e-07
-4.4124e-08
-4.61974e-07
-7.43897e-09
1.65082e-06
2.56952e-06
3.10595e-06
1.28906e-05
4.70922e-05
0.000103044
0.000146521
0.000137183
6.84514e-05
-1.72132e-05
-3.95977e-05
0.000117541
0.000509604
0.00109471
0.00174122
0.00228714
0.00260165
0.00262742
0.00239048
0.00197656
0.00149302
0.00103226
0.000650834
0.000368576
0.000180085
6.67082e-05
8.05826e-06
-1.4821e-05
-1.72417e-05
-1.03569e-05
-1.82584e-06
3.95689e-06
6.18418e-06
5.83813e-06
4.20567e-06
2.37176e-06
1.09414e-06
4.02931e-07
1.11742e-07
2.26444e-08
2.92522e-09
3.3192e-09
-8.53468e-11
-3.99696e-08
-1.67967e-08
1.8872e-07
1.18304e-07
-4.30895e-07
-5.34961e-07
1.62315e-06
4.48423e-06
5.80429e-06
1.50257e-05
5.55525e-05
0.000138703
0.000221012
0.000239086
0.000150595
8.45024e-06
-7.97573e-05
8.39521e-05
0.000618328
0.00149996
0.00254538
0.00349017
0.00409679
0.00423712
0.00392301
0.00328055
0.00248924
0.00171623
0.00107213
0.00059991
0.00029154
0.000111855
2.11127e-05
-1.52277e-05
-2.24478e-05
-1.68764e-05
-8.31974e-06
-1.90036e-06
1.3345e-06
2.06953e-06
1.47735e-06
4.82169e-07
-1.06301e-07
-3.02676e-07
-2.55906e-07
-1.37606e-07
-5.71345e-08
-1.81589e-08
-1.651e-09
-1.96699e-08
-6.88022e-08
1.18034e-07
3.69564e-07
-2.30818e-07
-1.01683e-06
8.78747e-07
6.23149e-06
1.05219e-05
1.92436e-05
6.37752e-05
0.000175079
0.000318886
0.000393136
0.000301775
8.27803e-05
-0.000112453
9.09825e-06
0.000690026
0.00196969
0.00361523
0.00521433
0.00635256
0.00676486
0.00641386
0.00546765
0.00421117
0.00293449
0.00184649
0.00104115
0.000515889
0.00021352
6.30082e-05
2.38743e-06
-1.25407e-05
-8.76173e-06
-7.83348e-07
4.88586e-06
6.97332e-06
6.35683e-06
4.41367e-06
2.27074e-06
8.54306e-07
1.60685e-07
-5.99914e-08
-4.11191e-08
-1.15246e-08
4.57431e-09
6.74641e-09
6.77648e-09
-6.02885e-08
-1.58693e-08
4.39255e-07
3.11443e-07
-1.13455e-06
-2.46538e-07
6.70531e-06
1.68252e-05
2.78398e-05
7.29654e-05
0.000211107
0.000436028
0.000608741
0.000556834
0.000255777
-0.000101316
-0.000115122
0.000676859
0.00245527
0.00496672
0.00760201
0.00966564
0.0106457
0.0103783
0.00905981
0.0071213
0.00504893
0.0032244
0.00184456
0.000932399
0.000403626
0.000138314
2.80184e-05
-4.64858e-06
-5.99008e-06
5.49743e-07
5.31922e-06
6.65193e-06
5.46532e-06
3.23365e-06
1.12545e-06
-7.47481e-08
-4.9292e-07
-4.5519e-07
-2.45765e-07
-1.01428e-07
-2.76497e-08
-2.87835e-10
3.33754e-09
2.14581e-09
-8.94422e-08
2.65721e-07
8.44258e-07
-4.05469e-07
-1.71388e-06
5.72644e-06
2.24017e-05
4.20342e-05
8.79202e-05
0.000244197
0.000563571
0.000891753
0.000960929
0.000592973
1.06273e-05
-0.000280743
0.000518757
0.00286144
0.00655727
0.0107718
0.0143849
0.0164592
0.016561
0.0148549
0.011959
0.00866043
0.00563623
0.0032818
0.00169146
0.000754334
0.000276666
7.25127e-05
6.17739e-06
-3.97828e-06
1.3439e-06
6.10897e-06
7.2939e-06
5.87795e-06
3.41914e-06
1.19339e-06
-6.57801e-08
-4.9163e-07
-4.39266e-07
-2.09486e-07
-5.90802e-08
9.66251e-09
2.46176e-08
1.49057e-08
6.74996e-09
1.59049e-09
2.23895e-08
9.27724e-07
9.24267e-07
-1.93563e-06
2.57304e-06
2.59405e-05
5.99445e-05
0.000113224
0.000279237
0.000683751
0.00123606
0.00153953
0.00119613
0.000324583
-0.000426317
0.000170151
0.00304263
0.00825257
0.0147656
0.0208739
0.0249347
0.0259908
0.0240324
0.019875
0.0147454
0.00980909
0.0058282
0.00306494
0.00139992
0.000533486
0.000153486
2.25833e-05
-4.65445e-06
-1.25027e-06
4.31918e-06
5.98142e-06
4.75482e-06
2.38933e-06
3.14942e-07
-7.45373e-07
-9.54993e-07
-7.07859e-07
-3.36773e-07
-1.01588e-07
4.52619e-09
3.00495e-08
1.76726e-08
6.94251e-09
1.4066e-09
-1.49303e-09
5.14329e-07
1.97189e-06
1.13559e-07
-4.5688e-07
2.37314e-05
7.84062e-05
0.000152044
0.000324249
0.000795127
0.00160941
0.0022943
0.00216782
0.00103338
-0.000351793
-0.000356442
0.00280948
0.00977824
0.0194625
0.029412
0.0368991
0.0400103
0.0382664
0.032607
0.0248545
0.0169474
0.0103015
0.00553679
0.0025879
0.00101587
0.000308193
5.37732e-05
-7.08104e-06
-7.25827e-06
6.00572e-07
3.82242e-06
3.41587e-06
1.46936e-06
-3.1818e-07
-1.11765e-06
-1.11807e-06
-7.26133e-07
-2.83598e-07
-2.77186e-08
6.57706e-08
6.78487e-08
3.54482e-08
1.29968e-08
2.01027e-09
-1.09068e-09
-1.42887e-09
1.77961e-06
3.10989e-06
-6.37494e-07
1.66706e-05
8.79447e-05
0.000202833
0.000393121
0.000899681
0.0019619
0.00320268
0.0036061
0.00236216
0.000168653
-0.00098373
0.00195517
0.0106951
0.0244699
0.0400512
0.0531563
0.0602518
0.0598217
0.0526852
0.0413793
0.0290017
0.0180835
0.00995726
0.00476923
0.00192608
0.000610103
0.000118956
-9.15787e-06
-1.75881e-05
-5.47211e-06
8.22415e-07
1.99849e-06
7.07933e-07
-7.98554e-07
-1.37188e-06
-1.19935e-06
-6.99233e-07
-2.16169e-07
4.09811e-08
1.12701e-07
9.01819e-08
4.12874e-08
1.06542e-08
-1.7948e-09
-3.88208e-09
-2.2747e-09
-7.42783e-10
4.40653e-06
4.12055e-06
1.09602e-05
8.28562e-05
0.000248859
0.000496325
0.00102156
0.00226869
0.00417134
0.00547837
0.00458632
0.00152951
-0.00136336
0.000419409
0.0104519
0.029029
0.0523954
0.0742358
0.0884626
0.0915583
0.083632
0.0678907
0.0490542
0.0314667
0.0177979
0.00875528
0.00364232
0.00120252
0.000258089
-5.44522e-06
-3.38896e-05
-1.49713e-05
-3.06241e-06
9.03434e-07
5.51212e-07
-8.04762e-07
-1.28376e-06
-1.04191e-06
-5.15106e-07
-5.2809e-08
1.59766e-07
1.81566e-07
1.19042e-07
4.79915e-08
7.54665e-09
-6.1512e-09
-6.37139e-09
-3.10278e-09
-9.76345e-10
2.68157e-10
9.99564e-06
1.45416e-05
6.74392e-05
0.000268052
0.000617821
0.00119786
0.00253812
0.00506747
0.0076672
0.00789865
0.00432178
-0.000696014
-0.00155028
0.00846902
0.031944
0.0653292
0.100002
0.126154
0.136782
0.130076
0.109504
0.0818199
0.0541581
0.0315589
0.015988
0.00686694
0.00236475
0.000554231
1.71324e-05
-5.88746e-05
-3.05049e-05
-8.67532e-06
1.39334e-07
1.18022e-06
-2.93163e-07
-9.03061e-07
-7.41418e-07
-2.76746e-07
1.16906e-07
2.60317e-07
2.23256e-07
1.22717e-07
3.69383e-08
-5.9287e-09
-1.58598e-08
-1.0704e-08
-4.51366e-09
-9.89226e-10
2.00209e-10
5.04651e-10
2.65496e-05
6.0748e-05
0.000249393
0.000712509
0.00143826
0.0028337
0.00579359
0.0099352
0.0122059
0.00916064
0.00177964
-0.0033756
0.00439927
0.0317084
0.0767984
0.129134
0.173971
0.198723
0.197601
0.17313
0.134232
0.0919811
0.0553963
0.0289878
0.0128859
0.00463475
0.00117898
9.05412e-05
-9.53509e-05
-5.71801e-05
-1.79402e-05
-6.08961e-07
2.72776e-06
7.89906e-07
-2.84485e-07
-3.86742e-07
-6.18593e-08
2.42286e-07
3.15058e-07
2.27211e-07
1.01515e-07
1.20052e-08
-2.47292e-08
-2.64281e-08
-1.41794e-08
-4.75096e-09
-2.42868e-10
9.10516e-10
6.93656e-10
2.79582e-10
7.95534e-05
0.000219818
0.000725673
0.00168839
0.0032293
0.00638725
0.0119044
0.0170545
0.0163277
0.00742859
-0.00319477
-0.0011782
0.0268777
0.0837744
0.158547
0.23075
0.279588
0.292129
0.267488
0.215971
0.153747
0.0960246
0.0520683
0.0240231
0.00903768
0.00248406
0.000291957
-0.000144541
-0.000103644
-3.41598e-05
-2.03068e-06
5.3559e-06
2.57963e-06
5.13823e-07
-9.68349e-08
2.90866e-08
2.64874e-07
2.93141e-07
1.82229e-07
5.2446e-08
-2.57098e-08
-4.67308e-08
-3.58205e-08
-1.58615e-08
-3.43433e-09
1.40068e-09
1.92393e-09
1.06496e-09
3.86537e-10
-4.3843e-11
0.000239956
0.000666446
0.00181724
0.00372003
0.00699985
0.0133627
0.0217829
0.0254983
0.0173959
0.00118282
-0.00673129
0.0166107
0.0825624
0.183027
0.292387
0.379051
0.418564
0.402347
0.339654
0.252141
0.163909
0.0924231
0.0443919
0.017505
0.00517517
0.000798836
-0.000195484
-0.000184033
-6.37512e-05
-5.78399e-06
9.17848e-06
5.47244e-06
1.56339e-06
6.92645e-08
-5.78864e-08
1.66834e-07
2.02722e-07
1.05116e-07
-7.04418e-09
-6.1849e-08
-6.23202e-08
-3.82214e-08
-1.27619e-08
6.61805e-10
4.31591e-09
3.27107e-09
1.45988e-09
3.52886e-10
-5.14999e-11
-1.69673e-10
0.000675942
0.00175096
0.00410041
0.00778295
0.0144417
0.0254873
0.0352736
0.0320539
0.012162
-0.00875511
0.00207273
0.0699473
0.195474
0.350895
0.49225
0.578428
0.586682
0.520108
0.404249
0.274598
0.161627
0.0810987
0.0335932
0.0106619
0.00200388
-0.000200795
-0.000319275
-0.000118751
-1.5027e-05
1.47391e-05
1.03321e-05
3.12634e-06
1.17001e-07
-3.44396e-07
-4.10225e-08
7.27674e-08
2.48628e-08
-5.37402e-08
-8.16612e-08
-6.38254e-08
-3.08036e-08
-4.2538e-09
6.98678e-09
7.75758e-09
4.39735e-09
1.48597e-09
7.78625e-11
-2.88005e-10
-2.30161e-10
-8.52723e-11
0.0017392
0.00410788
0.00856057
0.0155433
0.0278762
0.0438847
0.050018
0.0318518
-0.00125256
-0.0122916
0.0448353
0.188049
0.394122
0.60781
0.766557
0.825266
0.772017
0.631018
0.449816
0.277507
0.145998
0.0636967
0.0216663
0.00476005
-1.95506e-05
-0.000533248
-0.000222175
-3.6925e-05
2.21337e-05
1.8764e-05
5.7288e-06
1.01913e-07
-8.47812e-07
-3.37941e-07
-6.40696e-08
-2.66696e-08
-6.65983e-08
-7.51773e-08
-4.82913e-08
-1.43199e-08
7.88355e-09
1.37741e-08
1.03565e-08
4.58362e-09
8.37337e-10
-5.57247e-10
-6.34864e-10
-3.42258e-10
-1.12724e-10
2.62874e-11
0.00408803
0.00879037
0.016783
0.0294786
0.0496232
0.0675086
0.0599603
0.0196818
-0.0193801
0.0103289
0.154752
0.407088
0.706801
0.967697
1.11346
1.10512
0.954492
0.717277
0.465866
0.258054
0.118966
0.0433622
0.0108511
0.000722439
-0.000837841
-0.000415949
-8.48561e-05
3.16741e-05
3.34213e-05
1.03686e-05
1.63501e-07
-1.62389e-06
-7.3898e-07
-1.95892e-07
-3.53915e-08
-3.90939e-08
-4.3143e-08
-2.05894e-08
5.42992e-09
1.88139e-08
1.79478e-08
1.04068e-08
3.07523e-09
-6.82945e-10
-1.52953e-09
-1.0244e-09
-4.14393e-10
-6.82469e-11
3.80947e-11
5.78539e-11
0.00883355
0.0174024
0.0310877
0.0525756
0.0806098
0.0916282
0.0569005
-0.00616341
-0.0223392
0.095788
0.375606
0.764012
1.154
1.43143
1.51638
1.39126
1.10766
0.761055
0.445894
0.218015
0.0852184
0.0239092
0.00293115
-0.00118351
-0.00076733
-0.000182931
4.17891e-05
5.83623e-05
1.88105e-05
6.65438e-07
-2.81075e-06
-1.32466e-06
-3.50834e-07
-1.04059e-08
2.36889e-08
5.70979e-09
8.44204e-09
1.96149e-08
2.3358e-08
1.68631e-08
7.05561e-09
-1.36276e-10
-2.79294e-09
-2.50196e-09
-1.24595e-09
-3.25719e-10
6.47647e-11
1.20471e-10
7.6221e-11
1.89414e-11
0.0176581
0.0321477
0.0543903
0.0872439
0.118162
0.106302
0.0333399
-0.0373339
0.0213211
0.292119
0.752563
1.28616
1.73969
1.98086
1.94154
1.64654
1.20309
0.749311
0.390222
0.163881
0.0510482
0.0086942
-0.00131738
-0.00137862
-0.00037294
4.37914e-05
9.86273e-05
3.46002e-05
2.66371e-06
-4.61412e-06
-2.28678e-06
-6.0895e-07
3.16388e-08
1.14958e-07
6.05165e-08
2.89791e-08
2.23525e-08
1.84558e-08
1.02244e-08
1.13809e-09
-4.04005e-09
-4.66827e-09
-2.93751e-09
-1.03073e-09
1.5524e-11
3.04e-10
2.24178e-10
9.49968e-11
2.10197e-11
-1.70382e-11
0.0328027
0.0556324
0.0894606
0.133253
0.154375
0.0993215
-0.0115975
-0.0427787
0.164238
0.652601
1.31976
1.98002
2.44379
2.57493
2.33936
1.82815
1.21706
0.678436
0.307022
0.105581
0.0225395
-0.000418693
-0.00234543
-0.000749428
1.19521e-05
0.000157237
6.54747e-05
7.90216e-06
-7.26802e-06
-4.02126e-06
-1.12765e-06
6.97229e-08
2.39671e-07
1.19011e-07
3.75697e-08
1.21129e-08
5.93763e-09
6.62217e-10
-4.87051e-09
-6.79914e-09
-5.20384e-09
-2.33796e-09
-2.31015e-10
5.89977e-10
5.77468e-10
2.96491e-10
8.15952e-11
-9.6887e-12
-2.41689e-11
-1.69373e-11
0.0567587
0.0902058
0.13734
0.185478
0.175175
0.060833
-0.0637734
0.0209807
0.463113
1.21709
2.08436
2.82125
3.21703
3.15018
2.6494
1.89682
1.13818
0.557254
0.211108
0.0537034
0.00372695
-0.00363916
-0.0014924
-9.87303e-05
0.000240577
0.000125847
1.94496e-05
-1.14467e-05
-7.24092e-06
-2.1352e-06
1.01636e-07
4.34748e-07
1.9257e-07
3.708e-08
-8.07589e-09
-1.00659e-08
-8.03383e-09
-8.10688e-09
-6.80399e-09
-3.81532e-09
-7.1397e-10
9.43297e-10
1.18531e-09
7.33094e-10
2.57485e-10
3.12589e-12
-6.38644e-11
-4.66889e-11
-2.0481e-11
6.3151e-14
0.0914694
0.136668
0.195074
0.232399
0.164944
-0.00827328
-0.0817216
0.216309
0.964609
1.99247
3.01398
3.74966
3.98179
3.62704
2.81164
1.82777
0.973144
0.406287
0.12
0.0163097
-0.00470314
-0.00288794
-0.000383252
0.00035635
0.000235186
4.19503e-05
-1.83924e-05
-1.27601e-05
-3.90744e-06
1.3032e-07
7.47689e-07
3.03109e-07
3.37868e-08
-3.50286e-08
-2.59273e-08
-1.25648e-08
-6.96295e-09
-3.85267e-09
-9.64798e-10
1.2726e-09
1.93185e-09
1.44204e-09
6.1485e-10
5.90294e-11
-1.3868e-10
-1.26846e-10
-6.22063e-11
-1.56802e-11
1.97812e-12
7.45428e-12
0.136953
0.192438
0.254049
0.257713
0.11307
-0.0886861
-0.0168094
0.590795
1.67493
2.93476
4.03175
4.6708
4.63796
3.92144
2.78199
1.62086
0.747855
0.252877
0.0487579
-0.00356464
-0.00525608
-0.00100048
0.000483932
0.000423535
8.72369e-05
-2.7116e-05
-2.1921e-05
-7.04943e-06
8.91608e-08
1.22602e-06
4.81131e-07
3.40544e-08
-6.77665e-08
-4.10408e-08
-1.26435e-08
-2.1433e-09
7.31822e-10
1.94065e-09
2.59673e-09
2.14847e-09
1.13349e-09
1.89908e-10
-2.49949e-10
-2.90408e-10
-1.63155e-10
-5.15146e-11
2.34229e-12
1.34074e-11
9.52618e-12
2.96065e-12
0.189574
0.249924
0.299868
0.244553
0.0234255
-0.134712
0.186726
1.15738
2.54039
3.94378
5.02097
5.46498
5.07766
3.9643
2.54695
1.30501
0.502237
0.123406
0.0054506
-0.00855086
-0.00232582
0.000509034
0.00072172
0.000184297
-3.03796e-05
-3.76519e-05
-1.27567e-05
-1.85947e-07
1.96643e-06
7.84566e-07
4.48617e-08
-1.10513e-07
-5.94371e-08
-1.04503e-08
4.29129e-09
5.02307e-09
3.55462e-09
2.54605e-09
1.42618e-09
3.35299e-10
-3.72945e-10
-5.2433e-10
-3.57949e-10
-1.34104e-10
-5.15102e-12
3.35309e-11
2.60568e-11
1.15481e-11
2.71069e-12
-1.98301e-12
0.240701
0.296333
0.316045
0.186152
-0.07946
-0.104407
0.544402
1.85747
3.43591
4.87348
5.84085
6.00345
5.20618
3.7226
2.13361
0.934146
0.27933
0.0354573
-0.0111811
-0.00503887
0.00028407
0.0011612
0.000394708
-1.40557e-05
-6.45134e-05
-2.30322e-05
-9.92351e-07
3.10031e-06
1.28723e-06
6.73954e-08
-1.76351e-07
-8.75035e-08
-8.4205e-09
1.11117e-08
8.09217e-09
3.48026e-09
1.30722e-09
1.41599e-10
-5.35553e-10
-7.8361e-10
-6.02284e-10
-2.78596e-10
-2.77708e-11
6.77654e-11
6.62806e-11
3.30653e-11
8.88187e-12
-1.31164e-12
-2.82707e-12
-1.90565e-12
0.276949
0.31629
0.29096
0.09229
-0.157193
0.0322433
1.01025
2.55349
4.1836
5.55718
6.34655
6.17122
4.96795
3.21631
1.60919
0.57352
0.112761
-0.00764785
-0.00979221
-0.000471213
0.00177675
0.000810942
3.13654e-05
-0.000110051
-4.07851e-05
-3.10734e-06
4.80247e-06
2.07423e-06
1.11119e-07
-2.76728e-07
-1.31336e-07
-7.29872e-09
1.83795e-08
1.04075e-08
2.32935e-09
-4.24805e-10
-1.06073e-09
-1.04842e-09
-8.09665e-10
-4.14357e-10
-6.04601e-11
1.20327e-10
1.36894e-10
8.04562e-11
2.52519e-11
-1.65591e-12
-7.79734e-12
-5.1926e-12
-2.16894e-12
1.00916e-13
0.283108
0.297578
0.225356
-0.0094893
-0.177772
0.244367
1.45031
3.04458
4.58923
5.83944
6.41657
5.89631
4.37165
2.52197
1.06476
0.28078
0.016429
-0.01591
-0.002409
0.00237442
0.00155739
0.000142997
-0.000179604
-6.92368e-05
-8.49966e-06
6.73445e-06
3.35367e-06
2.55576e-07
-4.06538e-07
-2.01406e-07
-8.7553e-09
2.72393e-08
1.32406e-08
1.01363e-09
-1.98031e-09
-1.72556e-09
-9.75648e-10
-4.43183e-10
-3.93757e-11
1.87513e-10
2.31341e-10
1.54191e-10
5.64318e-11
-2.27833e-12
-1.93232e-11
-1.45417e-11
-6.27829e-12
-1.22339e-12
4.64684e-13
8.61222e-13
0.248216
0.238245
0.138468
-0.0843098
-0.146867
0.427271
1.6682
3.12229
4.49395
5.60865
5.97878
5.1785
3.50015
1.75829
0.590668
0.0891341
-0.0179787
-0.00677491
0.00271157
0.00274416
0.000459187
-0.000249146
-0.000118643
-2.38868e-05
7.38336e-06
5.62395e-06
6.8238e-07
-5.69304e-07
-3.27689e-07
-1.98234e-08
3.91616e-08
1.8671e-08
2.74714e-10
-3.11598e-09
-1.87416e-09
-4.70475e-10
9.69907e-11
3.00691e-10
3.17094e-10
2.25762e-10
9.4232e-11
-3.98526e-12
-4.00286e-11
-3.44035e-11
-1.60821e-11
-3.48838e-12
1.50094e-12
1.842e-12
1.06867e-12
1.94702e-13
0.172344
0.151678
0.0611777
-0.115069
-0.127973
0.416242
1.46488
2.63995
3.81863
4.82394
5.04115
4.10801
2.49936
1.05456
0.249424
-0.00179556
-0.0139592
0.00248379
0.00450407
0.00120921
-0.000258316
-0.000221674
-5.85496e-05
7.57456e-06
1.04031e-05
1.6848e-06
-8.60571e-07
-5.66434e-07
-4.60641e-08
6.14082e-08
2.99232e-08
3.23314e-10
-4.29375e-09
-1.92983e-09
7.54909e-11
5.19466e-10
4.31622e-10
2.63718e-10
1.02844e-10
-1.35536e-11
-6.87608e-11
-6.32794e-11
-3.3884e-11
-7.80631e-12
3.73521e-12
5.21575e-12
2.9478e-12
9.69847e-13
5.42195e-14
-3.22423e-13
0.0711164
0.063918
0.0215169
-0.126957
-0.233757
0.0491695
0.72723
1.57657
2.59102
3.53536
3.71098
2.8587
1.54146
0.512255
0.0585155
-0.0195687
0.000773692
0.0064986
0.00270397
-0.000164958
-0.00040485
-0.00011651
8.94062e-06
1.84617e-05
3.05428e-06
-1.55013e-06
-9.76269e-07
-7.66671e-08
1.07918e-07
4.93312e-08
-4.02121e-10
-6.89426e-09
-2.34277e-09
4.89223e-10
7.48386e-10
3.56383e-10
8.03277e-11
-5.51718e-11
-1.01472e-10
-9.46854e-11
-5.37197e-11
-1.3872e-11
8.25939e-12
1.19714e-11
7.38797e-12
2.52882e-12
3.41493e-14
-5.67943e-13
-4.30934e-13
-1.41925e-13
-0.0274789
0.00518445
0.0253234
-0.179396
-0.571249
-0.739413
-0.494189
0.0626308
0.951148
1.89639
2.19624
1.64899
0.773986
0.176902
-0.00949762
-0.00372927
0.00870549
0.00528192
0.000196428
-0.000652491
-0.000190998
9.24319e-06
2.76612e-05
4.57649e-06
-2.70722e-06
-1.47618e-06
-6.80253e-08
1.88409e-07
7.438e-08
-5.30782e-09
-1.21183e-08
-3.02905e-09
9.72274e-10
9.07297e-10
1.81006e-10
-1.1368e-10
-1.58944e-10
-1.17169e-10
-6.43939e-11
-1.52416e-11
1.52349e-11
2.24254e-11
1.53336e-11
5.54043e-12
-3.40936e-14
-1.62737e-12
-1.17306e-12
-4.84883e-13
-9.12946e-14
1.07311e-13
-0.0934544
-0.00907551
0.0483799
-0.335633
-1.1609
-1.83998
-1.96416
-1.63903
-0.861709
0.157773
0.76433
0.678103
0.277069
0.0274601
-0.00711006
0.0111064
0.00917384
0.00138493
-0.000882379
-0.000313191
-1.663e-05
3.14033e-05
7.14869e-06
-3.86832e-06
-2.03909e-06
-7.1856e-08
2.78845e-07
9.77215e-08
-1.63827e-08
-1.89054e-08
-3.2657e-09
1.83714e-09
1.10627e-09
-5.26381e-12
-2.40907e-10
-1.68852e-10
-6.36687e-11
-1.96019e-12
2.70522e-11
3.4232e-11
2.41433e-11
9.79822e-12
-4.62502e-13
-3.7112e-12
-2.96473e-12
-1.25445e-12
-2.10159e-13
1.48398e-13
1.51969e-13
6.858e-14
-0.110757
0.0129166
0.0452095
-0.600968
-1.86629
-2.95105
-3.31064
-3.18623
-2.53686
-1.36872
-0.333328
0.0635288
0.0432948
-0.000441884
0.0134606
0.0139912
0.0041046
-0.000974478
-0.000591727
-0.000106965
3.16647e-05
1.63631e-05
-3.75277e-06
-3.0072e-06
-2.73579e-07
3.64477e-07
1.40292e-07
-2.53316e-08
-2.5174e-08
-2.91816e-09
2.99033e-09
1.3093e-09
-1.79111e-10
-3.06484e-10
-1.17735e-10
1.05079e-11
4.77558e-11
4.36489e-11
2.97939e-11
1.14372e-11
-1.83539e-12
-7.17496e-12
-6.01532e-12
-2.75126e-12
-4.27472e-13
4.30085e-13
4.22761e-13
2.07093e-13
5.63018e-14
-2.93304e-14
-0.0861292
0.0426536
-0.00073553
-0.863737
-2.382
-3.64606
-4.12142
-4.21723
-3.73555
-2.39113
-0.942569
-0.190037
-0.0079311
0.0183582
0.0213442
0.0088893
-0.000465819
-0.00105779
-0.000237927
4.6055e-05
3.52868e-05
-4.55381e-06
-5.85832e-06
-9.24153e-07
5.26285e-07
2.49173e-07
-2.80632e-08
-3.58e-08
-4.28508e-09
4.10542e-09
1.62101e-09
-3.3304e-10
-3.52665e-10
-6.29194e-11
5.90682e-11
6.17205e-11
3.07206e-11
8.65979e-12
-5.61145e-12
-1.10528e-11
-9.51489e-12
-4.78132e-12
-6.35958e-13
1.03438e-12
1.08002e-12
5.2973e-13
1.34246e-13
-2.96097e-14
-4.85029e-14
-2.93153e-14
-0.0446508
0.051079
-0.049491
-0.882853
-2.28698
-3.476
-4.0166
-4.38092
-4.14745
-2.73435
-1.05843
-0.184629
0.02046
0.0324394
0.0158523
0.00136927
-0.00153835
-0.000372208
6.09974e-05
4.95478e-05
-1.01801e-05
-1.09465e-05
-1.36209e-06
1.08347e-06
4.51377e-07
-4.81241e-08
-6.29743e-08
-7.76308e-09
6.40465e-09
2.72449e-09
-4.62579e-10
-4.65981e-10
-5.45031e-11
7.23556e-11
5.08318e-11
6.33885e-12
-1.16167e-11
-1.50768e-11
-1.19101e-11
-5.8462e-12
-5.99004e-13
2.09285e-12
2.12948e-12
1.15429e-12
2.77878e-13
-9.36811e-14
-1.40064e-13
-7.77645e-14
-2.61426e-14
6.87458e-15
-0.0126786
0.0305485
0.0126879
-0.279606
-1.03356
-1.92997
-2.54141
-3.24896
-3.53641
-2.39662
-0.817624
-0.0698023
0.0477599
0.0269851
0.00562706
-0.00181741
-0.000593208
-1.04214e-08
4.37749e-05
-1.42792e-05
-1.50655e-05
-1.22565e-06
1.96315e-06
5.32561e-07
-1.56272e-07
-1.06895e-07
-6.35135e-09
1.3053e-08
4.79026e-09
-9.40012e-10
-8.33652e-10
-8.52469e-11
8.88579e-11
4.73117e-11
-8.02216e-12
-1.91311e-11
-1.25501e-11
-5.13718e-12
7.45181e-13
3.44441e-12
3.42934e-12
1.94627e-12
4.56219e-13
-2.65102e-13
-3.60058e-13
-1.97237e-13
-6.0859e-14
2.93717e-15
1.44751e-14
1.09155e-14
-0.00081608
0.000384094
0.387635
0.757022
0.640366
0.174285
-0.496274
-1.03545
-1.73431
-1.5192
-0.438844
0.0304001
0.0450114
0.0130929
-0.00102532
-0.000966934
-0.000137506
4.37802e-05
-3.30762e-06
-1.91132e-05
-3.02822e-06
2.27595e-06
4.81888e-07
-2.91974e-07
-1.1947e-07
1.33665e-08
2.33941e-08
5.75433e-09
-2.41977e-09
-1.52493e-09
-8.12584e-12
1.76521e-10
6.30267e-11
-1.07956e-11
-1.86581e-11
-4.80109e-12
2.53641e-12
4.98097e-12
4.31485e-12
2.31865e-12
4.6554e-13
-5.9861e-13
-7.22042e-13
-4.28317e-13
-1.21016e-13
1.79015e-14
4.4183e-14
2.64992e-14
9.97011e-15
-1.52318e-15
-0.00192311
-0.0128444
0.644223
1.64393
1.89895
1.46466
0.848195
0.709994
0.223322
-0.331379
-0.120496
0.0618627
0.0246862
0.00187376
-0.00136208
-0.000247543
7.19814e-05
1.14746e-05
-3.47161e-05
-9.61565e-06
2.12528e-06
9.62534e-07
-2.6707e-07
-1.17726e-07
2.53808e-08
2.62193e-08
3.58527e-09
-4.49593e-09
-1.94176e-09
3.02675e-10
3.37926e-10
5.7307e-11
-2.58018e-11
-2.08338e-11
7.60651e-13
6.17936e-12
4.61527e-12
2.0808e-12
-5.19268e-14
-1.06502e-12
-1.14711e-12
-6.82384e-13
-1.87547e-13
7.292e-14
1.1549e-13
6.70987e-14
2.21064e-14
2.60029e-16
-4.29904e-15
-3.65254e-15
-0.00389397
-0.00787015
0.53836
1.90532
2.5699
2.13917
1.72318
1.64584
1.34025
0.494584
0.0359603
0.0418179
0.00720625
-0.00110636
-0.000128323
0.000112683
9.83402e-06
-6.20318e-05
-1.60911e-05
3.98984e-06
2.37321e-06
-2.9971e-07
-2.75735e-07
-8.52346e-09
3.05517e-08
7.11945e-09
-4.52278e-09
-1.74889e-09
6.87567e-10
4.36077e-10
5.51461e-12
-5.1444e-11
-1.88375e-11
4.77654e-12
6.7532e-12
1.8029e-12
-7.77599e-13
-1.66531e-12
-1.44882e-12
-7.97549e-13
-1.83399e-13
1.78598e-13
2.32458e-13
1.42488e-13
4.18576e-14
-4.36409e-15
-1.3994e-14
-8.59814e-15
-3.3425e-15
3.82864e-16
-0.00282867
-0.00103999
0.199539
1.33618
2.48078
2.58347
2.43013
2.33105
1.8129
0.72136
0.0542272
0.0139032
0.0001611
0.000220492
0.000135556
-1.39962e-05
-8.09197e-05
-2.51006e-05
5.19289e-06
2.79319e-06
-1.0653e-06
-6.20904e-07
4.23584e-09
8.2021e-08
2.19713e-08
-5.23743e-09
-3.34091e-09
5.6168e-10
4.0173e-10
-4.37722e-11
-6.07358e-11
-7.84992e-12
8.37605e-12
5.17683e-12
-1.00902e-12
-2.27176e-12
-1.56014e-12
-6.9609e-13
1.0825e-14
3.34877e-13
3.68621e-13
2.21782e-13
6.32173e-14
-2.20379e-14
-3.65199e-14
-2.15553e-14
-7.19252e-15
-1.45262e-16
1.35407e-15
1.20745e-15
-0.00128437
0.00035474
-0.0268123
0.377583
1.55311
2.42797
2.55053
2.17492
1.51284
0.630211
0.0199689
0.00115833
0.00109712
0.000506432
7.45938e-05
-6.20464e-05
-4.43298e-05
1.89136e-06
3.35251e-06
-1.86367e-06
-7.18554e-07
1.74765e-07
1.56969e-07
1.82448e-08
-1.72635e-08
-6.87768e-09
7.43035e-10
8.36674e-10
1.96342e-11
-4.99877e-11
-2.32278e-12
8.90942e-12
3.04139e-12
-1.89641e-12
-1.95932e-12
-4.8356e-13
2.52861e-13
5.19266e-13
4.4905e-13
2.47954e-13
5.79802e-14
-5.66837e-14
-7.35095e-14
-4.479e-14
-1.31637e-14
1.47145e-15
4.49542e-15
2.77504e-15
1.09829e-15
-1.1902e-16
-0.000369325
-0.00105896
0.00661713
-0.0543347
0.362697
1.22185
1.60145
1.3418
0.741458
0.195455
-0.00715897
0.00102869
0.00161431
0.00038984
-5.83399e-05
-8.16753e-05
-7.59651e-06
4.11579e-06
-1.98652e-06
-9.77839e-07
2.42682e-07
1.57233e-07
-1.01268e-08
-2.76509e-08
-4.40322e-09
3.49934e-09
1.66635e-09
-3.06032e-11
-1.51786e-10
-1.77947e-11
1.01518e-11
4.44895e-12
-8.79269e-13
-1.24894e-12
9.3526e-14
4.89158e-13
3.93351e-13
1.88075e-13
-4.39207e-15
-9.8813e-14
-1.09081e-13
-6.57364e-14
-1.71141e-14
7.52956e-15
1.15646e-14
6.64454e-15
2.19448e-15
1.9589e-17
-4.37509e-16
-3.91507e-16
4.94533e-05
-0.000564697
0.00220553
0.00441337
-0.0397099
0.136811
0.338551
0.322786
0.103571
-0.0668688
-0.00557954
0.00319939
0.00110611
-5.73498e-06
-9.68303e-05
-1.28339e-05
5.0561e-06
-1.74518e-06
-1.57159e-06
1.67656e-07
2.12385e-07
-7.80294e-10
-1.83704e-08
2.81454e-09
4.75814e-09
8.21647e-10
-6.25274e-10
-3.2199e-10
1.70833e-11
4.26738e-11
1.19211e-11
-8.30647e-13
-2.23999e-12
-3.81714e-13
1.9278e-13
1.28009e-13
-2.91381e-14
-1.08606e-13
-1.07084e-13
-6.10116e-14
-1.29472e-14
1.73191e-14
2.03449e-14
1.19217e-14
3.27963e-15
-6.37954e-16
-1.32713e-15
-8.09796e-16
-3.12335e-16
4.23829e-17
0.00052541
-0.000520864
0.00213387
-0.00776748
0.0151046
0.00148163
-0.0708849
-0.134693
-0.113316
-0.0208785
0.00372704
0.00214759
0.000276967
-4.82753e-05
-1.25135e-05
-1.82258e-06
-3.63544e-06
-2.58391e-06
1.35671e-09
2.91659e-07
2.0376e-08
-2.2602e-08
1.57772e-09
2.00288e-09
-6.43368e-10
-6.32738e-10
-4.57441e-11
1.7274e-10
8.36151e-11
5.83598e-12
-8.20814e-12
-4.97901e-12
-1.01958e-12
1.95005e-13
1.04396e-13
-3.0045e-14
-6.12667e-14
-3.75494e-14
-9.69982e-16
2.02961e-14
2.28601e-14
1.34596e-14
2.85882e-15
-2.07488e-15
-2.72614e-15
-1.46108e-15
-4.50351e-16
2.80836e-17
1.16831e-16
9.16874e-17
0.000567557
-0.000924645
0.00394745
-0.00774604
0.00427227
0.0200731
-0.0079303
-0.0541266
-0.0579179
-0.00994894
0.00163642
0.000952625
9.73763e-05
-1.22797e-05
-1.51423e-05
-6.8266e-06
-2.70169e-06
1.07322e-07
3.90469e-07
7.08553e-08
-1.62082e-08
2.46133e-09
2.96503e-09
2.58216e-10
2.25065e-10
2.81327e-10
1.77538e-10
3.00232e-11
-2.45836e-11
-1.74085e-11
-4.9402e-12
-2.30952e-13
6.93598e-13
2.28797e-13
2.74106e-14
-1.60298e-14
6.92194e-16
1.31776e-14
1.48729e-14
8.5308e-15
1.47865e-15
-2.66625e-15
-2.92378e-15
-1.56148e-15
-3.43675e-16
1.77515e-16
2.20918e-16
1.24994e-16
4.20506e-17
-1.13183e-17
)
;

boundaryField
{
    movingWall
    {
        type            zeroGradient;
    }
    fixedWalls
    {
        type            zeroGradient;
    }
    frontAndBack
    {
        type            empty;
    }
}

