/*--------------------------------*- C++ -*----------------------------------*\
| =========                 |                                                 |
| \\      /  F ield         | OpenFOAM: The Open Source CFD Toolbox           |
|  \\    /   O peration     | Version:  v2006                                 |
|   \\  /    A nd           | Website:  www.openfoam.com                      |
|    \\/     M anipulation  |                                                 |
\*---------------------------------------------------------------------------*/
FoamFile
{
    version     2.0;
    format      ascii;
    class       volScalarField;
    location    "0";
    object      alpha.water;
}
// * * * * * * * * * * * * * * * * * * * * * * * * * * * * * * * * * * * * * //

dimensions      [0 0 0 0 0 0 0];


internalField   nonuniform List<scalar> 
67500
(
0.996865
0.996765
0.666606
0.0621186
0.135071
0.231566
0.253295
0.348238
0.599351
0.753333
0.80538
0.805531
0.805531
0.792015
0.764804
0.764375
0.622462
0.373048
0.820436
0.999983
0.999983
0.999983
0.975445
0.975133
0.993505
0.999949
1
1
1
1
1
1
1
1
1
1
1
1
1
1
1
1
1
1
1
1
1
1
1
1
1
1
1
1
1
1
1
1
1
1
1
1
1
1
1
1
1
1
1
1
1
1
1
1
1
1
1
1
1
1
1
1
1
1
1
1
1
1
1
1
1
1
1
1
1
1
1
1
1
1
1
1
1
1
1
1
1
1
1
1
1
1
1
1
1
1
1
1
1
1
1
1
1
1
1
1
1
1
1
1
1
1
1
1
1
1
1
1
1
1
1
1
1
1
1
1
1
1
1
1
1
1
1
1
1
1
1
1
1
1
1
1
1
1
1
1
1
1
1
1
1
1
1
1
1
1
1
1
1
1
1
1
1
1
1
1
1
1
1
1
1
1
1
1
1
1
1
1
1
1
1
1
1
1
1
1
1
1
1
1
1
1
1
1
1
1
1
1
1
1
1
1
1
1
1
1
1
1
1
1
1
1
1
1
1
1
1
1
1
1
1
1
1
1
1
1
1
1
1
1
1
1
1
1
1
1
1
1
1
1
1
1
1
1
1
1
1
1
1
1
1
1
1
1
1
1
1
1
1
1
1
1
1
1
1
1
1
1
1
1
1
1
1
1
1
1
1
1
1
1
1
1
1
1
1
1
1
1
1
1
1
1
1
1
1
1
1
1
1
1
1
1
1
1
1
1
1
1
1
1
1
1
1
1
1
1
1
1
1
1
1
1
1
1
1
1
1
1
1
1
1
1
1
1
1
1
1
1
1
1
1
1
1
1
1
1
1
1
1
1
1
1
1
1
1
1
1
1
1
1
1
1
1
1
1
1
1
1
1
1
1
1
1
1
1
1
1
1
1
1
1
1
1
1
1
1
1
1
1
1
1
1
1
1
1
1
1
1
1
1
1
1
1
1
1
1
1
1
1
1
1
1
1
1
1
1
1
1
1
1
1
1
1
1
1
1
1
1
1
1
0.996865
0.87512
0.064532
0.0347546
0.030795
0.158988
0.396808
0.377007
0.0999563
0.116542
0.360886
0.599228
0.671516
0.394677
0.217925
0.207679
0.126814
0.108864
0.107533
0.336888
0.409176
0.214315
0.189548
0.240657
0.882341
1
1
1
1
1
1
1
1
1
1
1
1
1
1
1
1
1
1
1
1
1
1
1
1
1
1
1
1
1
1
1
1
1
1
1
1
1
1
1
1
1
1
1
1
1
1
1
1
1
1
1
1
1
1
1
1
1
1
1
1
1
1
1
1
1
1
1
1
1
1
1
1
1
1
1
1
1
1
1
1
1
1
1
1
1
1
1
1
1
1
1
1
1
1
1
1
1
1
1
1
1
1
1
1
1
1
1
1
1
1
1
1
1
1
1
1
1
1
1
1
1
1
1
1
1
1
1
1
1
1
1
1
1
1
1
1
1
1
1
1
1
1
1
1
1
1
1
1
1
1
1
1
1
1
1
1
1
1
1
1
1
1
1
1
1
1
1
1
1
1
1
1
1
1
1
1
1
1
1
1
1
1
1
1
1
1
1
1
1
1
1
1
1
1
1
1
1
1
1
1
1
1
1
1
1
1
1
1
1
1
1
1
1
1
1
1
1
1
1
1
1
1
1
1
1
1
1
1
1
1
1
1
1
1
1
1
1
1
1
1
1
1
1
1
1
1
1
1
1
1
1
1
1
1
1
1
1
1
1
1
1
1
1
1
1
1
1
1
1
1
1
1
1
1
1
1
1
1
1
1
1
1
1
1
1
1
1
1
1
1
1
1
1
1
1
1
1
1
1
1
1
1
1
1
1
1
1
1
1
1
1
1
1
1
1
1
1
1
1
1
1
1
1
1
1
1
1
1
1
1
1
1
1
1
1
1
1
1
1
1
1
1
1
1
1
1
1
1
1
1
1
1
1
1
1
1
1
1
1
1
1
1
1
1
1
1
1
1
1
1
1
1
1
1
1
1
1
1
1
1
1
1
1
1
1
1
1
1
1
1
1
1
1
1
1
1
1
1
1
1
1
1
1
1
1
1
1
1
1
1
1
1
1
1
1
1
1
1
1
1
1
1
1
1
1
0.996615
0.709758
0.166353
0.296764
0.295332
0.0831833
0.0375545
0.0119188
3.02969e-21
1.10649e-21
4.23045e-23
1.72547e-23
0.0387005
0.196065
0.20917
0.213315
0.252739
0.232469
0.156316
0.153093
0.153115
0.366217
0.879932
1
1
1
1
1
1
1
0.994175
0.977284
0.966186
0.967241
0.96408
0.951822
0.940076
0.927443
0.91467
0.900813
0.884502
0.864687
0.841026
0.816119
0.79731
0.791464
0.795811
0.807828
0.82383
0.839589
0.852629
0.862444
0.868217
0.869229
0.868267
0.86712
0.868087
0.873204
0.882986
0.896238
0.91078
0.92438
0.93546
0.943412
0.948548
0.951827
0.954551
0.95798
0.962906
0.969363
0.976668
0.983844
0.99008
0.994924
0.998205
0.999818
1
1
1
1
1
1
1
1
1
1
1
1
1
1
1
1
1
1
1
1
1
1
1
1
1
1
1
1
1
1
1
1
1
1
1
1
1
1
1
1
1
1
1
1
1
1
1
1
1
1
1
1
1
1
1
1
1
1
1
1
1
1
1
1
1
1
1
1
1
1
1
1
1
1
1
1
1
1
1
1
1
1
1
1
1
1
1
1
1
1
1
1
1
1
1
1
1
1
1
1
1
1
1
1
1
1
1
1
1
1
1
1
1
1
1
1
1
1
1
1
1
1
1
1
1
1
1
1
1
1
1
1
1
1
1
1
1
1
1
1
1
1
1
1
1
1
1
1
1
1
1
1
1
1
1
1
1
1
1
1
1
1
1
1
1
1
1
1
1
1
1
1
1
1
1
1
1
1
1
1
1
1
1
1
1
1
1
1
1
1
1
1
1
1
1
1
1
1
1
1
1
1
1
1
1
1
1
1
1
1
1
1
1
1
1
1
1
1
1
1
1
1
1
1
1
1
1
1
1
1
1
1
1
1
1
1
1
1
1
1
1
1
1
1
1
1
1
1
1
1
1
1
1
1
1
1
1
1
1
1
1
1
1
1
1
1
1
1
1
1
1
1
1
1
1
1
1
1
1
1
1
1
1
1
1
1
1
1
1
1
1
1
1
1
1
1
1
1
1
1
1
1
1
1
1
1
1
1
1
1
1
1
1
1
1
1
1
1
1
1
1
1
1
1
1
1
1
1
1
1
1
1
1
1
1
1
1
1
1
1
1
1
1
1
1
1
1
1
1
1
1
1
1
1
1
1
1
1
1
1
1
1
1
1
1
1
1
1
1
1
1
1
1
1
0.996643
0.699727
0.211861
0.0687467
1.07088e-19
0.00719441
0.000157667
0.000157793
0.000232735
0.000118445
5.06748e-05
-1.73607e-21
3.00542e-20
-1.90758e-37
-6.10338e-22
-3.32974e-22
0.178593
0.740537
0.876453
0.875136
0.918175
0.9872
0.988204
0.976831
0.96212
0.982898
0.960416
0.926588
1
0.872179
0.448746
0.321261
0.521366
0.56903
0.228068
0
0.0238511
0.022143
0.0113322
0.00927758
0.00927697
0.0108092
0.014116
0.0201334
0.0296032
0.0421377
0.0552144
0.0649044
0.0694367
0.0701045
0.0692468
0.0691504
0.0708238
0.0746411
0.0809293
0.0903753
0.104008
0.12272
0.146964
0.175978
0.206776
0.234176
0.253423
0.26383
0.269246
0.275035
0.285333
0.302216
0.326702
0.359286
0.398974
0.443992
0.492789
0.545004
0.601899
0.665117
0.737102
0.786329
0.828009
0.865431
0.897062
0.922838
0.943296
0.959086
0.971008
0.979908
0.986536
0.9915
0.995227
0.997927
0.999566
1
1
1
1
1
1
1
1
1
1
1
1
1
1
1
1
1
1
1
1
1
1
1
1
1
1
1
1
1
1
1
1
1
1
1
1
1
1
1
1
1
1
1
1
1
1
1
1
1
1
1
1
1
1
1
1
1
1
1
1
1
1
1
1
1
1
1
1
1
1
1
1
1
1
1
1
1
1
1
1
1
1
1
1
1
1
1
1
1
1
1
1
1
1
1
1
1
1
1
1
1
1
1
1
1
1
1
1
1
1
1
1
1
1
1
1
1
1
1
1
1
1
1
1
1
1
1
1
1
1
1
1
1
1
1
1
1
1
1
1
1
1
1
1
1
1
1
1
1
1
1
1
1
1
1
1
1
1
1
1
1
1
1
1
1
1
1
1
1
1
1
1
1
1
1
1
1
1
1
1
1
1
1
1
1
1
1
1
1
1
1
1
1
1
1
1
1
1
1
1
1
1
1
1
1
1
1
1
1
1
1
1
1
1
1
1
1
1
1
1
1
1
1
1
1
1
1
1
1
1
1
1
1
1
1
1
1
1
1
1
1
1
1
1
1
1
1
1
1
1
1
1
1
1
1
1
1
1
1
1
1
1
1
1
1
1
1
1
1
1
1
1
1
1
1
1
1
1
1
1
1
1
1
1
1
1
1
1
1
1
1
1
1
1
1
1
1
1
1
1
1
1
1
1
1
1
1
1
1
1
1
1
1
1
1
1
1
1
1
1
1
1
1
1
1
1
1
1
1
1
1
1
1
1
1
1
1
1
1
1
1
1
1
1
1
1
1
1
1
1
1
1
1
1
1
1
1
1
1
0.98828
0.628486
-4.42889e-19
0.0119693
-4.17894e-21
1.27958e-20
0.000302089
0.000307102
0.000149498
6.29967e-26
-4.52361e-22
0.000288232
-2.05459e-21
1.86522e-39
-1.3154e-22
-2.79867e-23
0.000595727
0.000659426
0.444657
0.994072
1
1
0.073391
-8.86766e-21
-2.44209e-23
0.018366
0.0623575
0.124795
0.195516
0.0885909
4.30461e-17
0.00011601
0.0070052
0.027334
0.000592031
1.67625e-21
5.30426e-36
6.81263e-36
5.05236e-36
5.74356e-36
8.21551e-35
6.1887e-37
2.29261e-35
7.87798e-36
5.56754e-36
-1.57045e-36
1.72897e-36
-1.1465e-38
-1.49181e-36
2.42987e-37
2.21702e-37
-3.68181e-37
2.04568e-37
6.1664e-39
-4.49292e-38
2.72567e-40
4.64924e-38
6.41849e-41
0
-1.28133e-21
-3.08382e-21
-3.63891e-21
-3.23054e-21
-2.53036e-21
-2.12789e-21
-2.06276e-21
-2.03016e-21
-1.85465e-21
-1.6394e-21
-1.61008e-21
-2.02997e-21
-3.34344e-21
-5.79272e-21
-6.83666e-21
-4.28576e-21
-6.75167e-22
0.000713973
0.0321471
0.0718439
0.116813
0.165089
0.215581
0.266728
0.316814
0.364955
0.410746
0.454197
0.496961
0.541645
0.590537
0.645719
0.707921
0.770263
0.812354
0.850172
0.885423
0.917407
0.945496
0.968366
0.985028
0.995338
0.999674
1
1
1
1
1
1
1
1
1
1
1
1
1
1
1
1
1
1
1
1
1
1
1
1
1
1
1
1
1
1
1
1
1
1
1
1
1
1
1
1
1
1
1
1
1
1
1
1
1
1
1
1
1
1
1
1
1
1
1
1
1
1
1
1
1
1
1
1
1
1
1
1
1
1
1
1
1
1
1
1
1
1
1
1
1
1
1
1
1
1
1
1
1
1
1
1
1
1
1
1
1
1
1
1
1
1
1
1
1
1
1
1
1
1
1
1
1
1
1
1
1
1
1
1
1
1
1
1
1
1
1
1
1
1
1
1
1
1
1
1
1
1
1
1
1
1
1
1
1
1
1
1
1
1
1
1
1
1
1
1
1
1
1
1
1
1
1
1
1
1
1
1
1
1
1
1
1
1
1
1
1
1
1
1
1
1
1
1
1
1
1
1
1
1
1
1
1
1
1
1
1
1
1
1
1
1
1
1
1
1
1
1
1
1
1
1
1
1
1
1
1
1
1
1
1
1
1
1
1
1
1
1
1
1
1
1
1
1
1
1
1
1
1
1
1
1
1
1
1
1
1
1
1
1
1
1
1
1
1
1
1
1
1
1
1
1
1
1
1
1
1
1
1
1
1
1
1
1
1
1
1
1
1
1
1
1
1
1
1
1
1
1
1
1
1
1
1
1
1
1
1
1
1
1
1
1
1
1
1
1
1
1
1
1
1
1
1
1
1
1
1
1
1
1
1
1
1
1
1
1
1
1
1
1
1
1
1
1
1
1
1
1
1
1
1
1
1
1
0.922469
0.444502
3.3799e-36
6.24581e-21
7.54453e-06
0.000184719
0.000307102
8.24737e-05
1.20821e-08
9.04663e-09
-8.44073e-21
0.00186555
0.00732469
-9.01201e-23
-1.66859e-21
-1.34793e-19
0.0868801
0.743175
0.74333
0.609734
0.210293
0.0857138
1.05509e-20
-2.53058e-34
-6.54597e-33
9.93619e-36
3.13576e-21
-8.80966e-21
-1.32672e-21
-8.04037e-20
4.16082e-17
2.85784e-18
2.8561e-18
2.79996e-18
2.7736e-18
2.73326e-18
2.11588e-17
3.67337e-17
3.8262e-17
3.19387e-17
2.39646e-17
1.7046e-17
1.1791e-17
8.01736e-18
5.38702e-18
3.59572e-18
2.40447e-18
1.62881e-18
1.12664e-18
7.97195e-19
5.7419e-19
4.17328e-19
3.03146e-19
2.18166e-19
1.54516e-19
1.07207e-19
7.26083e-20
4.77728e-20
3.0252e-20
1.80587e-20
9.61583e-21
3.80435e-21
-4.9621e-23
-2.37503e-21
-3.68011e-21
-4.46194e-21
-5.04729e-21
-5.73895e-21
-6.65166e-21
-7.53344e-21
-8.21306e-21
-8.87004e-21
-9.58025e-21
-1.05131e-20
-1.18004e-20
-1.30214e-20
-1.39144e-20
-1.40467e-20
-1.3877e-20
-1.33708e-20
-1.2461e-20
-1.14254e-20
-1.04271e-20
-9.48124e-21
-9.56864e-21
-9.90039e-21
-1.15795e-20
-2.52891e-20
-3.21568e-20
-8.03641e-21
1.51496e-39
0
0.00734169
0.0376461
0.0748297
0.119915
0.178185
0.252536
0.34123
0.440139
0.545622
0.654387
0.763833
0.849645
0.902919
0.944076
0.973797
0.991733
0.999311
1
1
1
1
1
1
1
1
1
1
1
1
1
1
1
1
1
1
1
1
1
1
1
1
1
1
1
1
1
1
1
1
1
1
1
1
1
1
1
1
1
1
1
1
1
1
1
1
1
1
1
1
1
1
1
1
1
1
1
1
1
1
1
1
1
1
1
1
1
1
1
1
1
1
1
1
1
1
1
1
1
1
1
1
1
1
1
1
1
1
1
1
1
1
1
1
1
1
1
1
1
1
1
1
1
1
1
1
1
1
1
1
1
1
1
1
1
1
1
1
1
1
1
1
1
1
1
1
1
1
1
1
1
1
1
1
1
1
1
1
1
1
1
1
1
1
1
1
1
1
1
1
1
1
1
1
1
1
1
1
1
1
1
1
1
1
1
1
1
1
1
1
1
1
1
1
1
1
1
1
1
1
1
1
1
1
1
1
1
1
1
1
1
1
1
1
1
1
1
1
1
1
1
1
1
1
1
1
1
1
1
1
1
1
1
1
1
1
1
1
1
1
1
1
1
1
1
1
1
1
1
1
1
1
1
1
1
1
1
1
1
1
1
1
1
1
1
1
1
1
1
1
1
1
1
1
1
1
1
1
1
1
1
1
1
1
1
1
1
1
1
1
1
1
1
1
1
1
1
1
1
1
1
1
1
1
1
1
1
1
1
1
1
1
1
1
1
1
1
1
1
1
1
1
1
1
1
1
1
1
1
1
1
1
1
1
1
1
1
1
1
1
1
1
1
1
1
1
1
1
1
1
1
1
1
1
1
1
1
1
1
0.837617
0.244508
-4.68297e-21
1.11149e-23
9.31024e-06
9.27135e-05
5.59197e-05
3.75799e-07
3.17498e-07
5.91585e-23
8.0388e-22
0.00335469
0.161986
0.305941
0.3059
0.306049
0.168239
9.99367e-31
8.58331e-31
2.33213e-32
-4.58072e-20
2.30516e-19
2.71254e-12
6.78176e-13
2.82586e-35
1.0425e-16
4.15359e-16
9.35589e-17
2.28988e-34
3.19098e-17
2.90837e-16
3.78708e-16
4.62976e-16
3.4744e-16
1.96243e-16
1.71516e-16
1.67423e-16
1.56304e-16
1.31866e-16
1.00746e-16
7.19274e-17
4.96402e-17
3.38654e-17
2.30961e-17
1.58311e-17
1.09421e-17
7.6451e-18
5.40791e-18
3.87319e-18
2.80532e-18
2.05009e-18
1.50685e-18
1.10996e-18
8.1658e-19
5.98385e-19
4.35982e-19
3.15474e-19
2.26504e-19
1.61222e-19
1.13664e-19
7.92843e-20
5.46064e-20
3.69893e-20
2.44572e-20
1.5557e-20
9.23423e-21
4.73639e-21
1.53105e-21
-7.67066e-22
-2.45002e-21
-3.75699e-21
-4.89211e-21
-6.00195e-21
-7.15683e-21
-8.41952e-21
-1.00066e-20
-1.23286e-20
-1.54632e-20
-1.87814e-20
-2.17352e-20
-2.41217e-20
-2.56411e-20
-2.58619e-20
-2.48003e-20
-2.27061e-20
-1.97686e-20
-1.6149e-20
-1.18607e-20
-7.234e-21
-2.96267e-21
2.41879e-22
1.69672e-21
1.10186e-36
-4.05586e-37
3.29348e-37
8.90701e-39
2.1183e-36
-1.76886e-36
-1.0795e-36
-5.9496e-36
-6.95455e-36
-2.91073e-18
-2.15661e-18
0.0310403
0.113567
0.224
0.354832
0.495141
0.634463
0.766648
0.876752
0.937462
0.974036
0.993927
0.999935
1
1
1
1
1
1
1
1
1
1
1
1
1
1
1
1
1
1
1
1
1
1
1
1
1
1
1
1
1
1
1
1
1
1
1
1
1
1
1
1
1
1
1
1
1
1
1
1
1
1
1
1
1
1
1
1
1
1
1
1
1
1
1
1
1
1
1
1
1
1
1
1
1
1
1
1
1
1
1
1
1
1
1
1
1
1
1
1
1
1
1
1
1
1
1
1
1
1
1
1
1
1
1
1
1
1
1
1
1
1
1
1
1
1
1
1
1
1
1
1
1
1
1
1
1
1
1
1
1
1
1
1
1
1
1
1
1
1
1
1
1
1
1
1
1
1
1
1
1
1
1
1
1
1
1
1
1
1
1
1
1
1
1
1
1
1
1
1
1
1
1
1
1
1
1
1
1
1
1
1
1
1
1
1
1
1
1
1
1
1
1
1
1
1
1
1
1
1
1
1
1
1
1
1
1
1
1
1
1
1
1
1
1
1
1
1
1
1
1
1
1
1
1
1
1
1
1
1
1
1
1
1
1
1
1
1
1
1
1
1
1
1
1
1
1
1
1
1
1
1
1
1
1
1
1
1
1
1
1
1
1
1
1
1
1
1
1
1
1
1
1
1
1
1
1
1
1
1
1
1
1
1
1
1
1
1
1
1
1
1
1
1
1
1
1
1
1
1
1
1
1
1
1
1
1
1
1
1
1
1
1
1
1
1
1
1
1
1
1
1
1
1
1
1
1
1
1
1
1
1
1
1
1
1
1
0.834219
0.135875
2.67826e-27
1.25865e-08
1.84981e-06
4.37386e-06
9.15499e-08
5.47588e-07
5.29144e-07
3.71623e-24
-8.34798e-21
0.00125666
0.0520882
0.142676
0.135959
0.0200451
-1.23543e-20
3.1316e-13
2.15417e-12
4.32105e-12
5.1647e-12
6.87796e-12
6.82906e-12
3.85162e-12
5.47848e-31
6.20445e-14
2.46978e-13
1.07661e-13
3.3548e-14
3.0758e-14
1.58223e-14
1.71305e-15
1.01948e-15
9.54732e-16
7.92399e-16
6.21953e-16
4.93988e-16
3.86172e-16
2.88158e-16
2.03361e-16
1.37501e-16
9.09122e-17
5.97852e-17
3.95546e-17
2.65248e-17
1.81094e-17
1.26143e-17
8.96508e-18
6.48926e-18
4.76865e-18
3.54344e-18
2.6513e-18
1.98968e-18
1.49259e-18
1.11629e-18
8.30621e-19
6.13917e-19
4.50097e-19
3.26978e-19
2.35219e-19
1.67539e-19
1.18167e-19
8.25308e-20
5.70459e-20
3.89585e-20
2.61926e-20
1.72167e-20
1.09253e-20
6.52741e-21
3.45708e-21
1.30893e-21
-2.07595e-22
-1.29962e-21
-2.11645e-21
-2.77089e-21
-3.35506e-21
-3.95059e-21
-4.62988e-21
-5.46675e-21
-6.56488e-21
-8.05211e-21
-1.00379e-20
-1.25533e-20
-1.55035e-20
-1.86351e-20
-2.15216e-20
-2.36145e-20
-2.41951e-20
-2.21317e-20
-1.56029e-20
-1.5878e-21
2.5376e-20
7.87419e-20
1.9343e-19
4.0642e-19
7.66671e-19
1.30014e-18
2.01236e-18
2.79026e-18
3.50294e-18
3.87578e-18
-6.26903e-18
-4.40811e-17
-8.00565e-17
-8.38529e-17
-6.25766e-17
-3.52474e-17
-1.49838e-17
-4.12497e-18
-3.55345e-19
0.0272983
0.161202
0.342533
0.520185
0.679437
0.823561
0.927206
0.975884
0.99629
1
1
1
1
1
1
1
1
1
1
1
1
1
1
1
1
1
1
1
1
1
1
1
1
1
1
1
1
1
1
1
1
1
1
1
1
1
1
1
1
1
1
1
1
1
1
1
1
1
1
1
1
1
1
1
1
1
1
1
1
1
1
1
1
1
1
1
1
1
1
1
1
1
1
1
1
1
1
1
1
1
1
1
1
1
1
1
1
1
1
1
1
1
1
1
1
1
1
1
1
1
1
1
1
1
1
1
1
1
1
1
1
1
1
1
1
1
1
1
1
1
1
1
1
1
1
1
1
1
1
1
1
1
1
1
1
1
1
1
1
1
1
1
1
1
1
1
1
1
1
1
1
1
1
1
1
1
1
1
1
1
1
1
1
1
1
1
1
1
1
1
1
1
1
1
1
1
1
1
1
1
1
1
1
1
1
1
1
1
1
1
1
1
1
1
1
1
1
1
1
1
1
1
1
1
1
1
1
1
1
1
1
1
1
1
1
1
1
1
1
1
1
1
1
1
1
1
1
1
1
1
1
1
1
1
1
1
1
1
1
1
1
1
1
1
1
1
1
1
1
1
1
1
1
1
1
1
1
1
1
1
1
1
1
1
1
1
1
1
1
1
1
1
1
1
1
1
1
1
1
1
1
1
1
1
1
1
1
1
1
1
1
1
1
1
1
1
1
1
1
1
1
1
1
1
1
1
1
1
1
1
1
1
1
1
1
1
1
1
1
1
1
1
1
1
1
1
1
1
1
1
0.77123
0.102722
-1.40238e-28
2.91586e-10
1.95677e-23
-2.33221e-23
1.05655e-07
6.35014e-07
3.83281e-07
-9.6437e-29
-2.93598e-22
1.27267e-23
-3.95265e-21
2.00541e-22
4.09501e-05
2.15338e-20
-2.49071e-21
3.86017e-31
-5.00577e-23
1.25772e-12
2.93709e-12
5.8725e-12
6.25673e-12
2.3147e-12
2.32669e-13
7.7854e-13
1.15697e-12
8.86989e-13
5.64135e-13
4.41033e-13
2.94099e-13
1.33352e-13
2.23561e-14
1.91987e-15
1.46318e-15
1.22965e-15
1.02736e-15
7.99104e-16
5.85722e-16
4.0802e-16
2.74093e-16
1.80667e-16
1.18718e-16
7.87447e-17
5.31658e-17
3.66909e-17
2.58961e-17
1.86577e-17
1.36809e-17
1.01751e-17
7.65104e-18
5.79879e-18
4.4172e-18
3.37246e-18
2.57364e-18
1.95782e-18
1.48077e-18
1.11087e-18
8.24971e-19
6.05615e-19
4.3914e-19
3.14455e-19
2.22389e-19
1.55368e-19
1.07242e-19
7.31192e-20
4.92061e-20
3.26321e-20
2.1266e-20
1.35476e-20
8.34925e-21
4.86647e-21
2.53504e-21
9.64917e-22
-1.10864e-22
-8.72811e-22
-1.44103e-21
-1.89452e-21
-2.28782e-21
-2.66506e-21
-3.06776e-21
-3.54006e-21
-4.13412e-21
-4.91275e-21
-5.94481e-21
-7.28572e-21
-8.93011e-21
-1.06833e-20
-1.18191e-20
-1.02707e-20
-8.49399e-22
2.83914e-20
1.02954e-19
2.72993e-19
6.30062e-19
1.33115e-18
2.61489e-18
4.7765e-18
8.06845e-18
1.25876e-17
1.81478e-17
2.12882e-17
9.52471e-18
-2.85464e-17
-7.40838e-17
-9.22184e-17
-7.47564e-17
-4.07362e-17
-1.09111e-17
6.01578e-19
0
-8.50281e-21
-7.98838e-28
9.47851e-27
-1.27454e-27
1.14841e-26
0.0805251
0.317332
0.543675
0.716124
0.863278
0.957652
0.993808
1
1
1
1
1
1
1
1
1
1
1
1
1
1
1
1
1
1
1
1
1
1
1
1
1
1
1
1
1
1
1
1
1
1
1
1
1
1
1
1
1
1
1
1
1
1
1
1
1
1
1
1
1
1
1
1
1
1
1
1
1
1
1
1
1
1
1
1
1
1
1
1
1
1
1
1
1
1
1
1
1
1
1
1
1
1
1
1
1
1
1
1
1
1
1
1
1
1
1
1
1
1
1
1
1
1
1
1
1
1
1
1
1
1
1
1
1
1
1
1
1
1
1
1
1
1
1
1
1
1
1
1
1
1
1
1
1
1
1
1
1
1
1
1
1
1
1
1
1
1
1
1
1
1
1
1
1
1
1
1
1
1
1
1
1
1
1
1
1
1
1
1
1
1
1
1
1
1
1
1
1
1
1
1
1
1
1
1
1
1
1
1
1
1
1
1
1
1
1
1
1
1
1
1
1
1
1
1
1
1
1
1
1
1
1
1
1
1
1
1
1
1
1
1
1
1
1
1
1
1
1
1
1
1
1
1
1
1
1
1
1
1
1
1
1
1
1
1
1
1
1
1
1
1
1
1
1
1
1
1
1
1
1
1
1
1
1
1
1
1
1
1
1
1
1
1
1
1
1
1
1
1
1
1
1
1
1
1
1
1
1
1
1
1
1
1
1
1
1
1
1
1
1
1
1
1
1
1
1
1
1
1
1
1
1
1
1
1
1
1
1
1
1
1
1
1
1
0.398036
0.0937815
-9.21116e-24
0
1.96375e-06
-2.78761e-24
6.12416e-25
6.1348e-08
-9.16313e-29
2.93524e-11
-4.12542e-24
6.90869e-06
0.000398484
0.000763684
0.000747473
0.000111001
1.67693e-05
0.000157414
0.000128084
4.96311e-21
1.38672e-21
5.90115e-13
1.50937e-12
6.27041e-13
6.95945e-13
1.03266e-12
9.55378e-13
8.66337e-13
6.84194e-13
6.10152e-13
6.20816e-13
5.64919e-13
3.48849e-13
9.65358e-14
7.41839e-15
1.71119e-15
1.50597e-15
1.29386e-15
9.94984e-16
7.04086e-16
4.74961e-16
3.13506e-16
2.06582e-16
1.37917e-16
9.4145e-17
6.59287e-17
4.73053e-17
3.46544e-17
2.58187e-17
1.95012e-17
1.48994e-17
1.14972e-17
8.94725e-18
7.00723e-18
5.50577e-18
4.32304e-18
3.3776e-18
2.61545e-18
2.00077e-18
1.50856e-18
1.11958e-18
8.17402e-19
5.87101e-19
4.14998e-19
2.8885e-19
1.98079e-19
1.33895e-19
8.92506e-20
5.86779e-20
3.80436e-20
2.43002e-20
1.5252e-20
9.35219e-21
5.53389e-21
3.07412e-21
1.49111e-21
4.67754e-22
-2.03981e-22
-6.6166e-22
-9.96718e-22
-1.26961e-21
-1.52129e-21
-1.78293e-21
-2.08333e-21
-2.45231e-21
-2.91287e-21
-3.4391e-21
-3.81195e-21
-3.20584e-21
8.4444e-22
1.47539e-20
5.35812e-20
1.49818e-19
3.68771e-19
8.34543e-19
1.77207e-18
3.56444e-18
6.80265e-18
1.22734e-17
2.08391e-17
3.32515e-17
4.95292e-17
6.71087e-17
7.96077e-17
8.05775e-17
7.02044e-17
5.71375e-17
5.03369e-17
4.83957e-17
3.76154e-17
1.05978e-17
-2.85179e-34
3.14019e-10
2.62256e-09
5.73068e-09
1.92902e-11
1.0534e-25
0
-1.5768e-18
-1.57407e-18
-1.06087e-18
0.156137
0.467926
0.691115
0.846541
0.957475
0.996865
1
1
1
1
1
1
1
1
1
1
1
1
1
1
1
1
1
1
1
1
1
1
1
1
1
1
1
1
1
1
1
1
1
1
1
1
1
1
1
1
1
1
1
1
1
1
1
1
1
1
1
1
1
1
1
1
1
1
1
1
1
1
1
1
1
1
1
1
1
1
1
1
1
1
1
1
1
1
1
1
1
1
1
1
1
1
1
1
1
1
1
1
1
1
1
1
1
1
1
1
1
1
1
1
1
1
1
1
1
1
1
1
1
1
1
1
1
1
1
1
1
1
1
1
1
1
1
1
1
1
1
1
1
1
1
1
1
1
1
1
1
1
1
1
1
1
1
1
1
1
1
1
1
1
1
1
1
1
1
1
1
1
1
1
1
1
1
1
1
1
1
1
1
1
1
1
1
1
1
1
1
1
1
1
1
1
1
1
1
1
1
1
1
1
1
1
1
1
1
1
1
1
1
1
1
1
1
1
1
1
1
1
1
1
1
1
1
1
1
1
1
1
1
1
1
1
1
1
1
1
1
1
1
1
1
1
1
1
1
1
1
1
1
1
1
1
1
1
1
1
1
1
1
1
1
1
1
1
1
1
1
1
1
1
1
1
1
1
1
1
1
1
1
1
1
1
1
1
1
1
1
1
1
1
1
1
1
1
1
1
1
1
1
1
1
1
1
1
1
1
1
1
1
1
1
1
1
1
1
1
1
1
1
1
1
1
1
1
1
1
1
1
1
0.336357
0.0627444
2.99511e-24
1.27602e-05
3.74347e-05
2.80697e-05
8.3459e-06
2.16913e-07
-3.74736e-26
-5.80662e-26
2.58903e-07
1.09711e-06
1.06369e-06
5.34388e-05
0.00179823
0.0029634
0.00297324
0.00297571
0.00203867
0.000846647
0.00100359
2.81468e-14
2.81468e-14
2.81468e-14
2.81468e-14
2.81468e-14
2.81468e-14
2.81468e-14
2.81468e-14
2.81468e-14
2.81468e-14
4.23568e-13
7.78109e-13
7.34354e-13
3.54293e-13
7.41579e-14
2.17721e-15
1.63283e-15
1.37822e-15
1.03862e-15
7.22477e-16
4.84607e-16
3.22975e-16
2.18209e-16
1.51102e-16
1.07531e-16
7.84154e-17
5.83207e-17
4.40704e-17
3.37764e-17
2.62617e-17
2.07405e-17
1.66455e-17
1.35443e-17
1.11125e-17
9.12462e-18
7.44214e-18
5.99182e-18
4.7413e-18
3.67766e-18
2.79283e-18
2.07589e-18
1.51083e-18
1.07744e-18
7.5359e-19
5.17439e-19
3.49124e-19
2.31683e-19
1.51348e-19
9.73984e-20
6.17807e-20
3.86301e-20
2.37959e-20
1.4414e-20
8.55217e-21
4.93165e-21
2.7195e-21
1.37887e-21
5.66494e-22
6.56086e-23
-2.57896e-22
-4.85654e-22
-6.67882e-22
-8.37349e-22
-1.01694e-21
-1.21635e-21
-1.39632e-21
-1.32977e-21
-1.71419e-22
4.69347e-21
2.0364e-20
6.4141e-20
1.74417e-19
4.29796e-19
9.80621e-19
2.09782e-18
4.24018e-18
8.12642e-18
1.47704e-17
2.54147e-17
4.13217e-17
6.34232e-17
9.18062e-17
1.25114e-16
1.60252e-16
1.92681e-16
2.17129e-16
2.28393e-16
2.2161e-16
1.92927e-16
1.37453e-16
6.35521e-17
3.89883e-17
3.89934e-17
3.07554e-08
8.48208e-08
3.19352e-08
-9.28357e-25
4.40932e-26
-1.47005e-26
1.21911e-16
-6.10295e-32
1.11532e-33
2.49569e-28
-2.92504e-29
0.127276
0.503789
0.750846
0.89922
0.98303
1
1
1
1
1
1
1
1
1
1
1
1
1
1
1
1
1
1
1
1
1
1
1
1
1
1
1
1
1
1
1
1
1
1
1
1
1
1
1
1
1
1
1
1
1
1
1
1
1
1
1
1
1
1
1
1
1
1
1
1
1
1
1
1
1
1
1
1
1
1
1
1
1
1
1
1
1
1
1
1
1
1
1
1
1
1
1
1
1
1
1
1
1
1
1
1
1
1
1
1
1
1
1
1
1
1
1
1
1
1
1
1
1
1
1
1
1
1
1
1
1
1
1
1
1
1
1
1
1
1
1
1
1
1
1
1
1
1
1
1
1
1
1
1
1
1
1
1
1
1
1
1
1
1
1
1
1
1
1
1
1
1
1
1
1
1
1
1
1
1
1
1
1
1
1
1
1
1
1
1
1
1
1
1
1
1
1
1
1
1
1
1
1
1
1
1
1
1
1
1
1
1
1
1
1
1
1
1
1
1
1
1
1
1
1
1
1
1
1
1
1
1
1
1
1
1
1
1
1
1
1
1
1
1
1
1
1
1
1
1
1
1
1
1
1
1
1
1
1
1
1
1
1
1
1
1
1
1
1
1
1
1
1
1
1
1
1
1
1
1
1
1
1
1
1
1
1
1
1
1
1
1
1
1
1
1
1
1
1
1
1
1
1
1
1
1
1
1
1
1
1
1
1
1
1
1
1
1
1
1
1
1
1
1
1
1
1
1
1
1
0.605453
0.0364177
-8.02841e-25
1.25749e-05
3.77436e-05
3.78626e-05
2.52394e-05
3.02493e-06
7.16975e-24
2.14738e-25
6.17571e-07
2.84852e-06
1.5463e-06
1.85704e-21
1.81743e-21
1.79348e-21
1.81572e-21
5.37028e-06
0.00231218
0.00466458
0.00466219
0.00155434
2.81468e-14
9.39931e-05
3.69787e-05
4.77039e-05
5.58584e-05
2.52086e-05
4.711e-05
5.87717e-05
1.00092e-05
4.39518e-13
4.55858e-13
1.10422e-12
1.37858e-12
8.7382e-13
2.44762e-13
1.11501e-14
1.50952e-15
1.24711e-15
9.45094e-16
6.67881e-16
4.60083e-16
3.18423e-16
2.24853e-16
1.6263e-16
1.2016e-16
9.03429e-17
6.90023e-17
5.36507e-17
4.26778e-17
3.49328e-17
2.94746e-17
2.54707e-17
2.22477e-17
1.93604e-17
1.65953e-17
1.39117e-17
1.13639e-17
9.03384e-18
6.98984e-18
5.2684e-18
3.8728e-18
2.7802e-18
1.95164e-18
1.34134e-18
9.03644e-19
5.97367e-19
3.87881e-19
2.47602e-19
1.55503e-19
9.61391e-20
5.85295e-20
3.50881e-20
2.07056e-20
1.20167e-20
6.84752e-21
3.81708e-21
2.06197e-21
1.05197e-21
4.68417e-22
1.2384e-22
-9.04412e-23
-2.37281e-22
-3.53074e-22
-4.54707e-22
-5.22621e-22
-4.11412e-22
4.58474e-22
3.9964e-21
1.57165e-20
4.9855e-20
1.39666e-19
3.56106e-19
8.38576e-19
1.84042e-18
3.78775e-18
7.34072e-18
1.34301e-17
2.32253e-17
3.79895e-17
5.8799e-17
8.61179e-17
1.19279e-16
1.56114e-16
1.9302e-16
2.25469e-16
2.48654e-16
2.58234e-16
2.50751e-16
2.21759e-16
1.70587e-16
1.05617e-16
4.2636e-17
3.51523e-17
1.77479e-07
1.7493e-06
1.2873e-06
2.13954e-07
-4.07873e-24
7.2996e-15
3.43885e-13
1.72889e-16
5.12876e-11
6.30539e-12
-1.11763e-26
5.04791e-26
3.83177e-27
5.6869e-28
0.278624
0.677195
0.868108
0.9721
0.999866
1
1
1
1
1
1
1
1
1
1
1
1
1
1
1
1
1
1
1
1
1
1
1
1
1
1
1
1
1
1
1
1
1
1
1
1
1
1
1
1
1
1
1
1
1
1
1
1
1
1
1
1
1
1
1
1
1
1
1
1
1
1
1
1
1
1
1
1
1
1
1
1
1
1
1
1
1
1
1
1
1
1
1
1
1
1
1
1
1
1
1
1
1
1
1
1
1
1
1
1
1
1
1
1
1
1
1
1
1
1
1
1
1
1
1
1
1
1
1
1
1
1
1
1
1
1
1
1
1
1
1
1
1
1
1
1
1
1
1
1
1
1
1
1
1
1
1
1
1
1
1
1
1
1
1
1
1
1
1
1
1
1
1
1
1
1
1
1
1
1
1
1
1
1
1
1
1
1
1
1
1
1
1
1
1
1
1
1
1
1
1
1
1
1
1
1
1
1
1
1
1
1
1
1
1
1
1
1
1
1
1
1
1
1
1
1
1
1
1
1
1
1
1
1
1
1
1
1
1
1
1
1
1
1
1
1
1
1
1
1
1
1
1
1
1
1
1
1
1
1
1
1
1
1
1
1
1
1
1
1
1
1
1
1
1
1
1
1
1
1
1
1
1
1
1
1
1
1
1
1
1
1
1
1
1
1
1
1
1
1
1
1
1
1
1
1
1
1
1
1
1
1
1
1
1
1
1
1
1
1
1
1
1
1
1
1
0.626253
0.0163873
6.10023e-24
1.65899e-06
7.59609e-06
4.6463e-06
3.66641e-06
1.69762e-06
1.99633e-07
-3.00152e-24
8.4703e-25
1.82675e-06
2.71669e-06
4.4715e-08
3.72153e-06
1.81961e-21
1.79348e-21
1.81555e-21
1.85277e-21
2.12973e-05
0.00240531
0.00401109
0.00401935
0.00268668
0.00230885
0.00187346
0.00154999
0.00109464
0.0011367
0.00125695
0.000696823
0.000137278
6.55958e-07
1.16112e-12
1.66034e-12
1.9019e-12
1.43813e-12
4.51255e-13
2.7709e-14
1.17066e-15
9.84298e-16
7.86161e-16
5.81594e-16
4.20548e-16
3.0486e-16
2.23668e-16
1.66488e-16
1.25777e-16
9.67861e-17
7.6849e-17
6.38746e-17
5.59541e-17
5.14829e-17
4.86801e-17
4.59886e-17
4.25086e-17
3.80373e-17
3.28382e-17
2.73618e-17
2.20457e-17
1.72152e-17
1.30583e-17
9.6411e-18
6.94072e-18
4.87971e-18
3.35491e-18
2.25828e-18
1.48983e-18
9.64177e-19
6.12626e-19
3.82435e-19
2.34693e-19
1.41652e-19
8.41158e-20
4.91585e-20
2.82837e-20
1.60286e-20
8.95174e-21
4.92707e-21
2.6676e-21
1.41071e-21
7.13957e-22
3.25374e-22
1.03511e-22
-3.01723e-23
-1.17195e-22
-1.67203e-22
-1.20434e-22
3.15801e-22
2.19004e-21
8.73794e-21
2.88274e-20
8.43181e-20
2.2405e-19
5.47441e-19
1.23944e-18
2.61468e-18
5.16166e-18
9.56775e-18
1.66973e-17
2.74967e-17
4.28172e-17
6.31586e-17
8.8365e-17
1.17373e-16
1.48163e-16
1.77938e-16
2.03432e-16
2.21218e-16
2.27963e-16
2.20343e-16
1.9452e-16
1.47374e-16
7.92284e-17
3.5495e-17
2.24844e-17
2.57346e-06
4.34485e-06
3.84725e-06
7.67183e-07
7.92417e-15
1.88725e-14
5.96121e-13
1.86794e-10
1.13644e-27
5.13243e-09
9.43887e-09
1.33816e-09
-1.24989e-27
-5.37153e-19
-9.42624e-19
-4.04379e-19
0.154928
0.633046
0.876815
0.978737
1
1
1
1
1
1
1
1
1
1
1
1
1
1
1
1
1
1
1
1
1
1
1
1
1
1
1
1
1
1
1
1
1
1
1
1
1
1
1
1
1
1
1
1
1
1
1
1
1
1
1
1
1
1
1
1
1
1
1
1
1
1
1
1
1
1
1
1
1
1
1
1
1
1
1
1
1
1
1
1
1
1
1
1
1
1
1
1
1
1
1
1
1
1
1
1
1
1
1
1
1
1
1
1
1
1
1
1
1
1
1
1
1
1
1
1
1
1
1
1
1
1
1
1
1
1
1
1
1
1
1
1
1
1
1
1
1
1
1
1
1
1
1
1
1
1
1
1
1
1
1
1
1
1
1
1
1
1
1
1
1
1
1
1
1
1
1
1
1
1
1
1
1
1
1
1
1
1
1
1
1
1
1
1
1
1
1
1
1
1
1
1
1
1
1
1
1
1
1
1
1
1
1
1
1
1
1
1
1
1
1
1
1
1
1
1
1
1
1
1
1
1
1
1
1
1
1
1
1
1
1
1
1
1
1
1
1
1
1
1
1
1
1
1
1
1
1
1
1
1
1
1
1
1
1
1
1
1
1
1
1
1
1
1
1
1
1
1
1
1
1
1
1
1
1
1
1
1
1
1
1
1
1
1
1
1
1
1
1
1
1
1
1
1
1
1
1
1
1
1
1
1
1
1
1
1
1
1
1
1
1
1
1
1
0.626595
0.00808381
1.98165e-22
-4.81883e-24
-9.63261e-24
4.05418e-05
7.77121e-05
1.70383e-05
7.83982e-22
-2.6752e-22
-7.59549e-21
6.25839e-21
2.81687e-20
0.000454013
0.000446773
0.000145749
1.95329e-06
2.96318e-09
4.83736e-09
4.63226e-10
4.61643e-10
0.00107807
0.00407315
0.00419636
0.00419945
0.00351607
0.00235758
0.00231468
0.00210058
0.00166971
0.00138719
0.000786283
0.000327047
1.3284e-05
1.66447e-12
1.65781e-12
2.21699e-12
1.79999e-12
5.55513e-13
3.01749e-14
8.80915e-16
7.69406e-16
6.38811e-16
4.93797e-16
3.69489e-16
2.72027e-16
2.0194e-16
1.52139e-16
1.17736e-16
9.87814e-17
9.40618e-17
9.38528e-17
9.73765e-17
1.01422e-16
1.02206e-16
9.80093e-17
8.92797e-17
7.76033e-17
6.47372e-17
5.20948e-17
4.06026e-17
3.07445e-17
2.26697e-17
1.63072e-17
1.146e-17
7.87727e-18
5.30123e-18
3.49586e-18
2.26063e-18
1.43445e-18
8.9365e-19
5.46883e-19
3.28893e-19
1.94454e-19
1.13074e-19
6.47003e-20
3.64546e-20
2.02442e-20
1.10923e-20
6.00238e-21
3.20859e-21
1.6915e-21
8.73841e-22
4.34273e-22
1.96468e-22
6.53504e-23
-5.64827e-24
-1.64223e-23
1.42324e-22
9.31041e-22
3.87896e-21
1.34162e-20
4.09875e-20
1.13218e-19
2.86219e-19
6.67491e-19
1.4446e-18
2.91554e-18
5.50998e-18
9.78588e-18
1.63849e-17
2.59373e-17
3.89199e-17
5.54894e-17
7.5344e-17
9.76743e-17
1.21226e-16
1.44418e-16
1.65415e-16
1.82026e-16
1.91324e-16
1.89146e-16
1.69877e-16
1.26843e-16
5.99645e-17
2.38599e-17
9.22056e-25
3.93704e-06
4.50204e-06
4.50204e-06
1.62583e-06
3.72728e-14
6.32616e-12
2.18093e-11
1.95004e-26
8.19388e-09
2.44054e-08
6.86664e-09
-4.89741e-23
-3.62622e-24
-5.67437e-25
-1.81302e-18
-7.13977e-19
-2.26196e-31
3.2757e-29
0.151959
0.6668
0.914813
0.993237
1
1
1
1
1
1
1
1
1
1
1
1
1
1
1
1
1
1
1
1
1
1
1
1
1
1
1
1
1
1
1
1
1
1
1
1
1
1
1
1
1
1
1
1
1
1
1
1
1
1
1
1
1
1
1
1
1
1
1
1
1
1
1
1
1
1
1
1
1
1
1
1
1
1
1
1
1
1
1
1
1
1
1
1
1
1
1
1
1
1
1
1
1
1
1
1
1
1
1
1
1
1
1
1
1
1
1
1
1
1
1
1
1
1
1
1
1
1
1
1
1
1
1
1
1
1
1
1
1
1
1
1
1
1
1
1
1
1
1
1
1
1
1
1
1
1
1
1
1
1
1
1
1
1
1
1
1
1
1
1
1
1
1
1
1
1
1
1
1
1
1
1
1
1
1
1
1
1
1
1
1
1
1
1
1
1
1
1
1
1
1
1
1
1
1
1
1
1
1
1
1
1
1
1
1
1
1
1
1
1
1
1
1
1
1
1
1
1
1
1
1
1
1
1
1
1
1
1
1
1
1
1
1
1
1
1
1
1
1
1
1
1
1
1
1
1
1
1
1
1
1
1
1
1
1
1
1
1
1
1
1
1
1
1
1
1
1
1
1
1
1
1
1
1
1
1
1
1
1
1
1
1
1
1
1
1
1
1
1
1
1
1
1
1
1
1
1
1
1
1
1
1
1
1
1
1
1
1
1
1
1
0.290633
0.0070196
-5.86505e-21
-4.6146e-23
0.0002918
0.000325976
8.1922e-05
0.000481349
0.000449418
0.00116526
0.00387062
0.0250139
0.0394908
0.0200151
0.000949157
3.84435e-20
3.81646e-07
4.416e-07
7.72464e-08
1.06453e-09
2.48637e-08
1.89526e-13
4.00453e-26
5.03602e-44
-1.06163e-23
1.91073e-21
2.81849e-05
-7.85995e-21
-1.2283e-21
9.8412e-41
-2.57666e-26
0.000649825
0.000828038
0.000404559
7.77438e-06
1.66447e-12
1.72114e-12
2.37148e-12
1.80697e-12
4.86687e-13
1.61957e-14
6.89292e-16
6.14163e-16
5.1298e-16
4.04358e-16
3.13195e-16
2.38976e-16
1.81909e-16
1.41057e-16
1.37485e-16
2.09671e-16
2.14231e-16
2.25702e-16
2.40347e-16
2.44006e-16
2.32123e-16
2.07968e-16
1.77381e-16
1.45405e-16
1.15333e-16
8.89109e-17
6.68066e-17
4.9018e-17
3.51653e-17
2.46884e-17
1.69745e-17
1.1436e-17
7.55342e-18
4.89328e-18
3.11047e-18
1.94084e-18
1.18919e-18
7.1575e-19
4.23323e-19
2.46122e-19
1.40734e-19
7.91927e-20
4.38878e-20
2.39764e-20
1.29259e-20
6.88338e-21
3.62351e-21
1.88555e-21
9.6812e-22
4.87336e-22
2.36214e-22
1.05791e-22
4.67149e-23
7.16611e-23
3.38734e-22
1.44057e-21
5.18829e-21
1.64468e-20
4.69139e-20
1.21984e-19
2.91695e-19
6.45812e-19
1.33113e-18
2.5662e-18
4.64606e-18
7.92905e-18
1.28021e-17
1.96307e-17
2.87107e-17
4.02518e-17
5.44203e-17
7.14423e-17
9.17148e-17
1.15795e-16
1.44029e-16
1.75453e-16
2.05955e-16
2.26291e-16
2.19661e-16
1.62252e-16
5.88519e-17
-8.02275e-35
4.06577e-07
4.38864e-06
4.08537e-06
5.22492e-07
5.171e-14
5.45099e-11
1.5261e-10
1.12609e-10
1.27991e-27
1.98287e-28
3.27934e-06
2.23604e-05
1.5557e-05
1.32117e-06
4.86481e-25
-3.40945e-20
1.43603e-11
3.1783e-11
7.71455e-28
7.99951e-29
-2.51822e-44
0.260721
0.773157
0.969799
0.99933
1
1
1
1
1
1
1
1
1
1
1
1
1
1
1
1
1
1
1
1
1
1
1
1
1
1
1
1
1
1
1
1
1
1
1
1
1
1
1
1
1
1
1
1
1
1
1
1
1
1
1
1
1
1
1
1
1
1
1
1
1
1
1
1
1
1
1
1
1
1
1
1
1
1
1
1
1
1
1
1
1
1
1
1
1
1
1
1
1
1
1
1
1
1
1
1
1
1
1
1
1
1
1
1
1
1
1
1
1
1
1
1
1
1
1
1
1
1
1
1
1
1
1
1
1
1
1
1
1
1
1
1
1
1
1
1
1
1
1
1
1
1
1
1
1
1
1
1
1
1
1
1
1
1
1
1
1
1
1
1
1
1
1
1
1
1
1
1
1
1
1
1
1
1
1
1
1
1
1
1
1
1
1
1
1
1
1
1
1
1
1
1
1
1
1
1
1
1
1
1
1
1
1
1
1
1
1
1
1
1
1
1
1
1
1
1
1
1
1
1
1
1
1
1
1
1
1
1
1
1
1
1
1
1
1
1
1
1
1
1
1
1
1
1
1
1
1
1
1
1
1
1
1
1
1
1
1
1
1
1
1
1
1
1
1
1
1
1
1
1
1
1
1
1
1
1
1
1
1
1
1
1
1
1
1
1
1
1
1
1
1
1
1
1
1
1
1
1
1
1
1
1
1
1
1
1
1
1
0.533604
-7.9913e-19
-5.27964e-21
8.21534e-05
9.50446e-05
9.61802e-05
0.01592
0.0500898
0.0316815
0.0706626
0.119795
0.119033
0.119795
0.0358991
-7.11613e-20
-1.25956e-20
3.47203e-20
2.28291e-08
7.52422e-09
7.48925e-10
2.95851e-11
5.35445e-08
6.11076e-07
9.03264e-08
3.37289e-26
0.000844029
0.0050141
0.00330272
0.000352768
-1.01638e-22
1.32216e-26
0
0.000603195
0.000701403
0.000270158
1.34785e-05
1.79801e-12
2.17269e-12
2.30765e-12
1.46589e-12
3.12136e-13
2.43513e-15
5.32632e-16
5.08763e-16
6.54539e-16
4.00725e-14
7.24097e-14
6.91035e-14
4.11846e-14
1.415e-14
2.65727e-15
8.46091e-16
6.48507e-16
6.21733e-16
5.94954e-16
5.37001e-16
4.58492e-16
3.75487e-16
2.98206e-16
2.31122e-16
1.75361e-16
1.30437e-16
9.51681e-17
6.81218e-17
4.78413e-17
3.29642e-17
2.22851e-17
1.47822e-17