/*--------------------------------*- C++ -*----------------------------------*\
| =========                 |                                                 |
| \\      /  F ield         | OpenFOAM: The Open Source CFD Toolbox           |
|  \\    /   O peration     | Version:  v2006                                 |
|   \\  /    A nd           | Website:  www.openfoam.com                      |
|    \\/     M anipulation  |                                                 |
\*---------------------------------------------------------------------------*/
FoamFile
{
    version     2.0;
    format      ascii;
    class       volScalarField;
    location    "0";
    object      shifted_f;
}
// * * * * * * * * * * * * * * * * * * * * * * * * * * * * * * * * * * * * * //

dimensions      [0 0 0 0 0 0 0];


internalField   nonuniform List<scalar> 
2500
(
0.000267401
0.000267487
0.000267521
0.000267472
0.000267569
0.000267569
0.000267595
0.000267621
0.000267614
0.000267658
0.000267662
0.00026767
0.000267681
0.000267725
0.000267763
0.000267725
0.000267792
0.00026783
0.000267856
0.000267815
0.00026783
0.000267867
0.000267837
0.000267919
0.000267878
0.000267845
0.000267956
0.000267927
0.000267889
0.000268001
0.000267968
0.000268064
0.000268012
0.000268027
0.000268094
0.000268094
0.000268001
0.00026815
0.000268102
0.000268072
0.00026818
0.000268131
0.000268158
0.000268146
0.000268165
0.000268225
0.000268284
0.000268254
0.000268277
0.000268273
0.00026831
0.000268325
0.000268329
0.00026834
0.000268381
0.000268389
0.000268459
0.000268418
0.0002684
0.000268482
0.000268538
0.000268497
0.000268545
0.000268538
0.000268523
0.000268616
0.000268627
0.000268541
0.000268571
0.000268653
0.000268675
0.000268728
0.000268716
0.000268739
0.00026875
0.000268798
0.000268798
0.000268824
0.000268802
0.000268884
0.000268862
0.000268865
0.000268854
0.000268891
0.000268932
0.000268936
0.00026891
0.000268973
0.000268999
0.000268962
0.000269003
0.000269011
0.000269067
0.000269059
0.00026913
0.000269111
0.000269134
0.000269122
0.000278953
0.000278939
0.000278983
0.00027898
0.000278946
0.00027898
0.000279009
0.000279065
0.000279102
0.000279121
0.000279076
0.000279129
0.000279166
0.00027917
0.000279162
0.000279225
0.000279263
0.000279218
0.000279229
0.000279292
0.00027927
0.000279229
0.000279278
0.000279304
0.000279333
0.0002794
0.000279408
0.000279386
0.000279471
0.000279505
0.000279441
0.000279516
0.000279445
0.00027955
0.000279494
0.000279602
0.000279564
0.000279624
0.000279624
0.000279702
0.00027965
0.000279687
0.000279702
0.000279676
0.000279751
0.000279743
0.000279784
0.000279814
0.000279821
0.000279795
0.000279877
0.000279848
0.0002799
0.000279874
0.000279885
0.0002799
0.000279915
0.00028
0.000280004
0.000279941
0.00028
0.000280064
0.000280052
0.000280101
0.000280075
0.000280146
0.000280108
0.000280101
0.000280187
0.00028019
0.00028025
0.000280231
0.000280257
0.000280272
0.000280276
0.000280317
0.00028035
0.000280324
0.000280358
0.000280406
0.000280403
0.000280451
0.000280466
0.000280511
0.000280481
0.000280514
0.000280585
0.00028057
0.000280607
0.000280548
0.000280652
0.000280555
0.00028063
0.000280634
0.000280712
0.000280675
0.000280764
0.000280648
0.000280771
0.000280742
0.000280742
0.000291295
0.000291348
0.000291295
0.00029134
0.000291385
0.000291418
0.000291448
0.000291433
0.000291448
0.000291478
0.000291482
0.000291515
0.000291575
0.000291545
0.000291567
0.000291537
0.000291608
0.000291605
0.000291701
0.00029166
0.000291694
0.000291727
0.000291698
0.000291776
0.000291716
0.000291828
0.000291869
0.000291888
0.000291906
0.000291921
0.000291917
0.000291917
0.000291906
0.000291999
0.000292014
0.000291999
0.000292048
0.000292014
0.000292066
0.000292029
0.000292081
0.000292134
0.0002921
0.000292156
0.000292141
0.000292178
0.000292171
0.000292238
0.000292294
0.00029226
0.00029229
0.000292297
0.000292387
0.000292324
0.000292409
0.000292413
0.000292432
0.000292487
0.000292443
0.000292528
0.000292532
0.000292577
0.000292592
0.000292622
0.000292618
0.000292636
0.000292618
0.000292685
0.000292681
0.000292677
0.000292685
0.000292752
0.000292785
0.000292774
0.000292797
0.000292733
0.000292797
0.00029289
0.000292864
0.000292949
0.000292927
0.000292942
0.000292946
0.000292957
0.000293035
0.000292975
0.000293095
0.000293057
0.00029305
0.000293124
0.000293087
0.000293184
0.000293184
0.000293259
0.000293199
0.000293244
0.000293296
0.000293285
0.000293318
0.000293385
0.000293385
0.000287268
0.000287227
0.000287153
0.000287108
0.000287026
0.000286978
0.000286896
0.000286851
0.000286855
0.000286762
0.00028675
0.000286665
0.00028662
0.000286549
0.000286482
0.000286449
0.000286426
0.000286289
0.000286274
0.000286199
0.000286151
0.000286084
0.000286061
0.000286009
0.000285946
0.000285927
0.00028586
0.000285797
0.000285726
0.000285707
0.000285659
0.000285596
0.000285488
0.000285443
0.000285413
0.000285354
0.000285361
0.000285227
0.000285257
0.000285223
0.000285164
0.000285078
0.000284992
0.000284974
0.000284966
0.000284877
0.000284757
0.000284757
0.000284698
0.000284702
0.000284668
0.000284571
0.000284512
0.000284482
0.000284407
0.000284385
0.00028434
0.000284288
0.000284217
0.000284191
0.000284102
0.000284068
0.000284035
0.000284072
0.000283968
0.000283912
0.000283815
0.000283774
0.000283789
0.000283729
0.000283673
0.000283625
0.000283599
0.000283577
0.00028358
0.000283457
0.000283409
0.000283375
0.000283331
0.00028326
0.000283305
0.000283238
0.000283178
0.000283118
0.000283122
0.000283044
0.000282992
0.000282984
0.000282917
0.000282865
0.000282791
0.000282768
0.000282727
0.000282735
0.000282716
0.000282649
0.000282601
0.000282597
0.000282582
0.000282556
0.000282455
0.000265196
0.000265211
0.000265136
0.000265073
0.000264939
0.000264902
0.000264831
0.000264771
0.000264663
0.000264611
0.000264499
0.00026441
0.000264384
0.000264335
0.000264212
0.000264168
0.000264119
0.000263996
0.000263982
0.000263873
0.000263821
0.000263728
0.000263702
0.000263583
0.000263557
0.000263438
0.000263374
0.000263344
0.000263259
0.000263188
0.000263177
0.00026308
0.000262976
0.000262897
0.000262853
0.000262734
0.000262745
0.000262637
0.000262536
0.000262517
0.000262477
0.000262406
0.000262376
0.000262268
0.000262164
0.000262093
0.000262067
0.000261977
0.000261918
0.000261813
0.000261828
0.000261705
0.000261668
0.000261676
0.000261564
0.000261474
0.000261452
0.00026131
0.000261258
0.000261266
0.000261188
0.000261143
0.000261072
0.000261012
0.000260945
0.000260897
0.000260826
0.000260774
0.00026067
0.00026067
0.000260565
0.000260532
0.000260483
0.000260357
0.000260342
0.000260282
0.000260208
0.000260159
0.000260111
0.000260092
0.000259999
0.000259999
0.00025991
0.000259835
0.000259764
0.000259742
0.000259664
0.000259649
0.000259634
0.000259522
0.000259455
0.000259485
0.000259381
0.000259344
0.000259299
0.000259217
0.000259209
0.000259157
0.00025909
0.000259049
0.000258993
0.00024024
0.000240058
0.000239968
0.000239957
0.00023989
0.000239868
0.000239741
0.000239681
0.000239618
0.000239503
0.000239421
0.000239421
0.000239357
0.000239216
0.000239179
0.000239149
0.000239063
0.000239022
0.000238933
0.000238847
0.000238784
0.000238709
0.000238668
0.000238601
0.000238519
0.000238471
0.000238393
0.000238366
0.000238266
0.000238225
0.000238072
0.000238098
0.000238001
0.000237986
0.000237867
0.000237826
0.000237789
0.0002377
0.000237647
0.000237603
0.000237502
0.000237469
0.000237375
0.00023732
0.000237305
0.000237234
0.000237174
0.000237115
0.000237029
0.000236977
0.000236999
0.000236917
0.000236791
0.000236761
0.000236709
0.000236668
0.000236604
0.000236552
0.000236515
0.000236444
0.000236377
0.000236351
0.00023631
0.000236277
0.000236209
0.00023612
0.00023612
0.000236057
0.000235979
0.000235926
0.000235844
0.000235844
0.000235777
0.000235707
0.000235692
0.000235613
0.000235569
0.000235546
0.000235494
0.000235446
0.000235368
0.000235401
0.000235301
0.00023526
0.000235211
0.000235166
0.000235099
0.000235055
0.00023507
0.000234999
0.000234932
0.000234865
0.000234872
0.00023482
0.000234775
0.000234816
0.000234731
0.000234634
0.000234604
0.000234649
0.000234541
0.000221007
0.000220969
0.000220977
0.000220891
0.000220861
0.000220809
0.000220735
0.000220735
0.000220686
0.00022066
0.000220601
0.000220548
0.000220541
0.000220466
0.000220437
0.000220414
0.00022034
0.000220332
0.000220269
0.000220224
0.000220165
0.000220146
0.000220086
0.000220105
0.000220034
0.000219915
0.000219963
0.000219882
0.000219915
0.000219837
0.000219829
0.000219762
0.000219729
0.000219718
0.000219669
0.000219613
0.00021958
0.000219535
0.000219505
0.000219513
0.00021942
0.000219394
0.00021939
0.000219353
0.000219349
0.000219285
0.000219267
0.000219245
0.00021917
0.000219215
0.00021914
0.000219118
0.000219084
0.000219088
0.000219069
0.000219021
0.000219002
0.000218991
0.000218973
0.000218924
0.000218876
0.000218838
0.000218913
0.000218842
0.000218794
0.000218771
0.000218768
0.000218786
0.000218693
0.000218708
0.000218667
0.000218611
0.000218604
0.000218574
0.000218537
0.00021857
0.000218526
0.000218481
0.000218455
0.000218499
0.00021844
0.000218388
0.000218358
0.00021841
0.00021841
0.000218377
0.000218373
0.000218343
0.000218332
0.000218328
0.000218287
0.000218246
0.000218261
0.000218194
0.000218246
0.000218213
0.000218239
0.000218179
0.000218194
0.000218201
0.000218201
0.000213195
0.000213224
0.00021315
0.000213157
0.000213109
0.000213113
0.000213109
0.000213113
0.000213079
0.000213031
0.000213038
0.000213031
0.000213012
0.000213008
0.000213068
0.000213042
0.000213008
0.000213016
0.000212938
0.000212938
0.000212975
0.000212926
0.000212956
0.000212952
0.000212915
0.000212878
0.000212852
0.000212897
0.000212926
0.000212859
0.000212859
0.000212859
0.000212826
0.000212863
0.000212837
0.000212837
0.000212748
0.000212751
0.000212796
0.000212811
0.000212792
0.000212796
0.000212766
0.000212792
0.000212744
0.00021277
0.000212748
0.000212751
0.000212744
0.000212725
0.000212718
0.000212759
0.00021274
0.000212815
0.000212777
0.000212815
0.000212759
0.000212789
0.000212766
0.000212803
0.0002128
0.000212733
0.000212807
0.000212818
0.000212759
0.000212774
0.00021277
0.000212803
0.000212803
0.000212807
0.000212815
0.00021283
0.000212837
0.000212844
0.000212763
0.000212796
0.000212856
0.000212818
0.000212841
0.000212856
0.000212878
0.000212833
0.0002129
0.000212844
0.000212874
0.000212885
0.000212956
0.000212923
0.000212941
0.000212964
0.00021299
0.000212956
0.000212908
0.000212979
0.000212938
0.000213049
0.000213034
0.000213046
0.000213023
0.000213109
0.000213098
0.000214089
0.000214178
0.000214104
0.000214092
0.000214107
0.000214096
0.000214122
0.000214074
0.000214148
0.000214159
0.000214141
0.000214119
0.00021413
0.000214104
0.000214133
0.000214208
0.000214219
0.000214119
0.000214186
0.000214133
0.000214212
0.000214115
0.00021413
0.000214197
0.000214133
0.000214227
0.000214223
0.000214156
0.000214223
0.000214208
0.0002142
0.00021423
0.000214215
0.000214212
0.000214275
0.000214223
0.000214256
0.000214279
0.00021429
0.000214301
0.000214294
0.000214294
0.000214305
0.000214253
0.000214312
0.000214346
0.000214294
0.000214338
0.000214398
0.000214335
0.000214394
0.000214394
0.000214424
0.000214413
0.000214439
0.000214428
0.000214435
0.000214446
0.000214506
0.000214428
0.000214454
0.000214517
0.000214513
0.000214558
0.000214603
0.000214554
0.000214644
0.000214636
0.000214629
0.000214763
0.000214644
0.00021467
0.000214741
0.000214741
0.000214778
0.000214759
0.0002148
0.000214793
0.000214823
0.000214823
0.00021486
0.000214871
0.000214856
0.000214882
0.000214949
0.000214931
0.000214942
0.000214957
0.000214972
0.000215031
0.000215001
0.00021502
0.000215042
0.000215098
0.000215154
0.00021518
0.000215191
0.00021524
0.000215251
0.000215273
0.000215277
0.000218611
0.000218593
0.000218578
0.000218604
0.00021866
0.000218622
0.000218626
0.000218667
0.000218671
0.000218611
0.000218641
0.000218708
0.000218663
0.000218652
0.000218634
0.000218622
0.000218675
0.000218689
0.000218663
0.000218708
0.000218738
0.000218745
0.000218682
0.000218712
0.00021879
0.000218745
0.000218797
0.000218753
0.000218753
0.000218809
0.000218797
0.000218853
0.00021882
0.000218861
0.000218846
0.000218835
0.000218917
0.000218835
0.000218891
0.000218887
0.000218984
0.000218965
0.000218894
0.000218887
0.000218939
0.000218946
0.000218909
0.000218891
0.000219006
0.000218973
0.000219043
0.000219025
0.000219017
0.000219002
0.000219081
0.000219129
0.000219133
0.000219095
0.000219136
0.00021917
0.000219204
0.000219207
0.000219196
0.000219189
0.000219222
0.000219256
0.000219271
0.000219289
0.000219334
0.000219356
0.000219394
0.000219367
0.000219386
0.000219397
0.000219446
0.000219423
0.000219397
0.000219479
0.000219483
0.000219535
0.00021958
0.000219587
0.000219572
0.000219613
0.000219617
0.000219692
0.00021968
0.000219747
0.000219692
0.000219718
0.000219792
0.000219822
0.000219833
0.000219829
0.000219889
0.000219878
0.0002199
0.000220008
0.000219982
0.000219952
0.000220049
0.00022392
0.000223935
0.00022395
0.000223968
0.000223931
0.00022392
0.000223923
0.000223897
0.000223961
0.000223964
0.000223957
0.00022392
0.000223972
0.000223979
0.000223994
0.000224039
0.000224013
0.000224013
0.000223987
0.000223994
0.000224013
0.00022402
0.000224013
0.000224035
0.000224072
0.000224087
0.000224054
0.000224076
0.000224087
0.00022411
0.00022411
0.000224065
0.000224117
0.00022408
0.000224125
0.000224132
0.000224121
0.000224158
0.000224192
0.000224203
0.000224192
0.000224229
0.000224177
0.000224207
0.000224303
0.000224255
0.000224307
0.000224296
0.0002243
0.000224322
0.000224374
0.000224333
0.000224348
0.000224408
0.000224393
0.000224382
0.000224404
0.000224423
0.000224445
0.000224441
0.000224512
0.000224546
0.00022452
0.000224587
0.000224598
0.000224594
0.000224583
0.000224583
0.000224594
0.00022465
0.000224646
0.00022471
0.000224736
0.000224818
0.000224758
0.000224829
0.000224803
0.000224821
0.000224836
0.00022487
0.000224859
0.000224881
0.000224937
0.00022494
0.000224981
0.000224985
0.000224989
0.000224993
0.000225049
0.000225056
0.000225104
0.000225063
0.000225149
0.000225142
0.000225153
0.000225216
0.000225212
0.000225246
0.000225287
0.000225265
0.000225298
0.000229236
0.000229266
0.000229232
0.000229251
0.000229288
0.000229258
0.000229295
0.000229213
0.000229273
0.000229266
0.000229254
0.000229213
0.00022934
0.00022928
0.000229239
0.000229251
0.000229288
0.000229325
0.000229284
0.000229307
0.000229314
0.000229292
0.000229325
0.000229325
0.000229329
0.000229303
0.000229329
0.000229288
0.000229314
0.000229362
0.000229307
0.000229366
0.000229415
0.000229314
0.000229381
0.000229422
0.000229474
0.000229411
0.000229504
0.000229381
0.000229429
0.000229549
0.000229504
0.000229482
0.000229504
0.000229541
0.000229534
0.000229567
0.00022959
0.000229549
0.000229608
0.000229631
0.000229638
0.000229646
0.000229616
0.000229631
0.000229631
0.000229642
0.000229664
0.00022972
0.000229649
0.000229742
0.000229754
0.000229795
0.000229791
0.000229847
0.00022988
0.000229839
0.000229869
0.000229828
0.00022988
0.000229903
0.000229929
0.000229947
0.000229944
0.000229996
0.000229999
0.000229996
0.000229973
0.000230063
0.00023004
0.000230078
0.000230081
0.000230078
0.000230081
0.000230171
0.000230141
0.000230178
0.000230234
0.000230219
0.000230201
0.00023023
0.000230201
0.00023029
0.000230301
0.000230297
0.000230342
0.000230316
0.000230361
0.000230398
0.000230424
0.000233665
0.000233609
0.000233646
0.000233617
0.000233665
0.000233669
0.000233661
0.000233676
0.000233643
0.000233646
0.00023362
0.000233702
0.000233669
0.000233669
0.000233632
0.000233684
0.000233673
0.00023368
0.000233721
0.00023368
0.000233643
0.00023368
0.000233699
0.000233676
0.000233602
0.000233643
0.000233617
0.000233654
0.000233646
0.000233665
0.000233676
0.000233676
0.000233684
0.000233669
0.000233695
0.000233717
0.000233736
0.000233725
0.000233702
0.000233751
0.000233781
0.000233743
0.000233728
0.000233755
0.000233777
0.000233773
0.000233795
0.00023374
0.000233795
0.000233762
0.000233766
0.000233803
0.000233877
0.000233844
0.000233825
0.000233829
0.00023384
0.000233844
0.00023387
0.000233922
0.000233945
0.00023393
0.000233945
0.000233952
0.000234
0.000233937
0.000233978
0.000233952
0.000233974
0.000234
0.000233967
0.000233956
0.000234023
0.000234067
0.000234012
0.000234082
0.000234101
0.000234105
0.000234153
0.00023412
0.000234108
0.000234131
0.000234123
0.000234179
0.000234179
0.000234134
0.000234164
0.000234216
0.000234187
0.000234168
0.000234209
0.000234254
0.000234265
0.000234302
0.000234302
0.000234317
0.000234347
0.000234351
0.000234392
0.000234388
0.000234373
0.000236366
0.000236314
0.000236321
0.000236306
0.000236325
0.000236299
0.000236269
0.000236265
0.000236321
0.000236325
0.000236314
0.000236262
0.000236329
0.000236277
0.000236254
0.00023625
0.000236254
0.000236299
0.000236284
0.000236273
0.000236306
0.000236217
0.000236265
0.000236232
0.000236254
0.000236306
0.000236291
0.000236243
0.000236239
0.000236224
0.000236277
0.000236277
0.00023631
0.000236206
0.000236217
0.000236314
0.000236284
0.000236258
0.000236284
0.000236284
0.000236254
0.000236213
0.000236243
0.000236236
0.000236262
0.000236232
0.000236258
0.000236277
0.000236306
0.000236299
0.000236262
0.000236284
0.000236284
0.000236243
0.000236265
0.00023631
0.000236321
0.000236262
0.000236277
0.000236303
0.000236291
0.000236314
0.000236358
0.000236303
0.000236299
0.000236314
0.000236344
0.000236344
0.000236385
0.000236366
0.000236381
0.000236366
0.000236358
0.000236399
0.000236396
0.000236392
0.000236418
0.000236411
0.000236399
0.000236396
0.000236411
0.000236388
0.000236444
0.000236429
0.000236463
0.000236433
0.000236426
0.000236448
0.000236508
0.000236496
0.0002365
0.000236489
0.000236455
0.000236463
0.0002365
0.000236519
0.0002365
0.000236515
0.000236534
0.000236537
0.000236519
0.000237148
0.000237111
0.000237092
0.000237063
0.000237111
0.000237118
0.000237081
0.000237126
0.00023707
0.000237085
0.000237025
0.000237089
0.000237025
0.000236984
0.00023701
0.000237022
0.000237066
0.000236999
0.000237003
0.000237059
0.000237048
0.000237003
0.00023704
0.000237003
0.000237022
0.000236996
0.000236966
0.000236988
0.000236977
0.000236966
0.000236973
0.000236981
0.000236988
0.000236928
0.000236955
0.000236928
0.000236928
0.000236943
0.000236958
0.000236984
0.000236955
0.000236895
0.000236902
0.00023691
0.000236936
0.000236899
0.000236921
0.000236902
0.000236947
0.000236943
0.000236921
0.00023694
0.000236984
0.000236955
0.000236873
0.00023691
0.000236955
0.000236925
0.000236928
0.000236928
0.000236858
0.000236884
0.000236887
0.000236873
0.000236869
0.000236873
0.000236876
0.000236843
0.000236902
0.000236876
0.000236887
0.00023688
0.000236887
0.00023688
0.000236925
0.000236917
0.000236884
0.000236914
0.000236936
0.000236899
0.000236928
0.000236899
0.000236951
0.000236914
0.000236876
0.000236899
0.000236902
0.00023694
0.000236955
0.000236999
0.000236969
0.000236969
0.000236966
0.000236951
0.000236955
0.000236962
0.000236921
0.00023694
0.000236966
0.000236969
0.000236962
0.000236515
0.000236496
0.000236448
0.000236426
0.000236414
0.000236414
0.00023647
0.000236463
0.000236455
0.000236493
0.000236396
0.000236426
0.000236467
0.000236437
0.000236411
0.000236355
0.00023637
0.000236347
0.000236377
0.000236373
0.00023634
0.000236291
0.000236329
0.000236299
0.000236325
0.000236265
0.000236284
0.00023625
0.000236265
0.00023628
0.000236243
0.000236303
0.000236262
0.000236202
0.000236209
0.000236228
0.000236224
0.000236206
0.000236217
0.000236209
0.000236239
0.000236202
0.000236135
0.000236142
0.000236195
0.000236217
0.000236172
0.000236198
0.000236183
0.000236105
0.00023615
0.000236101
0.000236172
0.000236135
0.000236128
0.000236172
0.00023609
0.00023612
0.000236165
0.000236131
0.000236135
0.000236105
0.000236105
0.000236075
0.000236135
0.000236139
0.000236075
0.000236101
0.000236124
0.000236046
0.000236057
0.000236087
0.000236053
0.00023609
0.000236075
0.000236072
0.000236101
0.000236101
0.000236128
0.000236094
0.000236087
0.00023606
0.000236023
0.000236023
0.00023606
0.000236064
0.000236042
0.00023606
0.000236087
0.000236083
0.000236049
0.000236016
0.000236031
0.000236075
0.000235993
0.000236005
0.000236034
0.000236027
0.00023606
0.000236016
0.000236012
0.000234868
0.000234839
0.000234861
0.000234783
0.000234786
0.000234801
0.000234753
0.000234824
0.000234801
0.000234786
0.000234723
0.000234731
0.000234719
0.000234764
0.000234786
0.000234727
0.000234708
0.00023466
0.000234675
0.000234675
0.000234667
0.000234675
0.000234675
0.000234663
0.00023463
0.000234611
0.0002346
0.000234623
0.000234623
0.000234623
0.000234608
0.000234585
0.000234585
0.000234585
0.000234555
0.000234574
0.000234555
0.000234578
0.00023457
0.000234444
0.000234485
0.000234477
0.000234537
0.000234563
0.0002345
0.000234514
0.000234433
0.000234436
0.000234418
0.000234481
0.000234514
0.000234522
0.000234429
0.000234488
0.000234425
0.000234447
0.000234444
0.000234421
0.000234421
0.000234477
0.000234459
0.000234473
0.000234392
0.00023438
0.000234377
0.000234373
0.000234369
0.000234399
0.000234406
0.000234429
0.000234399
0.000234414
0.000234406
0.000234347
0.000234362
0.000234339
0.000234399
0.000234358
0.000234395
0.000234384
0.000234347
0.000234343
0.000234343
0.000234328
0.000234313
0.000234302
0.000234336
0.000234302
0.000234328
0.00023431
0.00023431
0.000234295
0.000234332
0.000234324
0.000234347
0.000234317
0.000234287
0.000234317
0.000234313
0.000234302
0.000234313
0.000232633
0.000232626
0.00023257
0.000232607
0.000232603
0.000232514
0.000232548
0.000232548
0.000232548
0.000232533
0.000232536
0.000232551
0.00023248
0.000232477
0.000232544
0.000232439
0.000232454
0.000232454
0.000232387
0.000232402
0.000232443
0.000232395
0.000232417
0.000232417
0.000232387
0.00023235
0.000232361
0.000232384
0.000232391
0.000232302
0.00023232
0.000232331
0.000232261
0.000232309
0.000232298
0.000232279
0.000232294
0.000232223
0.000232272
0.000232264
0.000232264
0.000232268
0.000232264
0.000232231
0.000232238
0.000232138
0.000232201
0.000232201
0.000232212
0.000232186
0.000232156
0.000232175
0.000232149
0.00023216
0.000232127
0.000232175
0.000232171
0.00023216
0.000232153
0.00023213
0.0002321
0.000232074
0.000232074
0.000232074
0.000232022
0.000232041
0.000232037
0.000232063
0.000232015
0.000232052
0.000232033
0.000232093
0.00023206
0.00023197
0.000231989
0.00023203
0.000231963
0.000232
0.000231996
0.00023194
0.000231996
0.000231981
0.000231992
0.000231978
0.000231985
0.000232004
0.000232041
0.000231955
0.00023194
0.000231985
0.000231985
0.000231978
0.00023194
0.000231922
0.000231907
0.000231948
0.000231918
0.00023191
0.000231951
0.00023197
0.00023197
0.000230011
0.000229958
0.000229951
0.000229962
0.000229917
0.000229906
0.000229977
0.000229958
0.000229921
0.00022985
0.000229854
0.000229869
0.000229917
0.000229865
0.000229884
0.000229899
0.00022978
0.000229795
0.000229776
0.000229783
0.000229802
0.000229795
0.000229813
0.000229776
0.000229776
0.000229772
0.000229772
0.000229787
0.000229709
0.000229709
0.000229713
0.000229735
0.000229683
0.000229701
0.000229679
0.000229616
0.000229646
0.000229638
0.000229642
0.000229653
0.000229638
0.000229679
0.000229634
0.000229642
0.000229638
0.000229616
0.00022959
0.000229608
0.00022956
0.000229545
0.000229552
0.000229537
0.000229534
0.000229534
0.000229586
0.000229534
0.000229504
0.000229519
0.000229497
0.00022953
0.000229534
0.00022953
0.000229441
0.000229444
0.000229448
0.000229441
0.000229437
0.000229485
0.000229497
0.000229467
0.000229459
0.000229426
0.000229381
0.000229385
0.000229415
0.0002294
0.000229381
0.000229351
0.000229347
0.000229385
0.00022937
0.000229359
0.00022934
0.000229344
0.000229359
0.000229347
0.00022928
0.000229355
0.000229295
0.000229295
0.000229329
0.000229307
0.000229299
0.000229277
0.000229262
0.00022931
0.000229277
0.000229277
0.000229277
0.000229258
0.000229284
0.000227232
0.000227157
0.000227172
0.000227179
0.000227123
0.000227187
0.000227146
0.000227164
0.000227194
0.000227153
0.000227168
0.000227049
0.000227049
0.000227064
0.000227068
0.000227038
0.000227056
0.000227064
0.000226997
0.000226934
0.00022696
0.00022696
0.000227004
0.000227015
0.000227015
0.000227034
0.000227015
0.000226989
0.000226919
0.000226919
0.000226904
0.00022687
0.000226919
0.000226904
0.000226874
0.000226863
0.000226866
0.000226881
0.000226881
0.000226822
0.000226825
0.000226822
0.000226855
0.000226859
0.000226814
0.000226818
0.000226818
0.000226807
0.000226688
0.000226669
0.000226788
0.000226747
0.000226717
0.000226688
0.00022671
0.000226665
0.000226676
0.000226695
0.000226669
0.000226714
0.000226695
0.000226729
0.00022668
0.000226673
0.00022671
0.000226662
0.000226639
0.000226598
0.000226554
0.000226583
0.000226613
0.000226628
0.000226524
0.000226557
0.000226539
0.000226527
0.000226542
0.000226494
0.000226501
0.000226531
0.000226542
0.000226516
0.000226524
0.000226531
0.000226505
0.000226509
0.000226539
0.000226494
0.000226505
0.000226498
0.00022652
0.000226494
0.000226416
0.000226416
0.000226449
0.000226419
0.000226434
0.000226423
0.000226468
0.000226412
0.000226371
0.000224181
0.00022421
0.000224195
0.000224143
0.000224132
0.000224181
0.000224132
0.000224132
0.000224102
0.000224069
0.000224106
0.000224117
0.000224061
0.00022405
0.00022408
0.000224072
0.000224043
0.000224061
0.00022405
0.00022405
0.000224024
0.000223976
0.000223987
0.000224013
0.000224002
0.000224005
0.000223953
0.000223953
0.000223953
0.000223987
0.000223957
0.000223991
0.000223946
0.000223916
0.000223953
0.000223905
0.00022383
0.000223838
0.000223853
0.000223842
0.000223823
0.000223864
0.000223879
0.000223797
0.000223804
0.000223804
0.000223823
0.000223763
0.000223815
0.000223827
0.000223804
0.000223789
0.000223771
0.000223786
0.000223793
0.000223733
0.000223722
0.000223722
0.000223767
0.000223689
0.000223685
0.000223685
0.00022367
0.000223652
0.000223622
0.000223629
0.000223663
0.000223663
0.000223685
0.000223663
0.000223663
0.000223663
0.000223685
0.000223614
0.000223584
0.000223596
0.000223584
0.000223551
0.000223596
0.000223558
0.000223558
0.000223596
0.000223577
0.000223581
0.000223506
0.00022357
0.00022348
0.000223491
0.000223495
0.000223484
0.000223484
0.000223506
0.000223506
0.000223499
0.000223529
0.000223495
0.000223458
0.000223447
0.000223454
0.000223439
0.000223447
0.000221096
0.000221141
0.000221115
0.000221085
0.000221055
0.000221059
0.000221018
0.000221085
0.000221096
0.000221096
0.000221021
0.000221025
0.000221025
0.000221003
0.000221018
0.000221003
0.000221044
0.00022098
0.000220954
0.000220925
0.000220958
0.000220913
0.000220913
0.00022091
0.000220906
0.000220921
0.000220887
0.000220902
0.000220902
0.00022085
0.000220846
0.000220906
0.000220835
0.000220831
0.000220861
0.000220858
0.000220817
0.00022082
0.000220846
0.000220776
0.000220768
0.000220779
0.000220753
0.000220757
0.000220742
0.000220735
0.000220764
0.00022075
0.000220712
0.000220709
0.000220705
0.000220697
0.000220712
0.000220634
0.000220608
0.000220671
0.000220671
0.000220668
0.000220697
0.000220705
0.000220742
0.000220649
0.000220649
0.00022066
0.000220653
0.000220608
0.000220597
0.000220574
0.000220582
0.000220612
0.000220612
0.000220615
0.00022056
0.000220619
0.00022056
0.000220563
0.000220552
0.000220522
0.000220556
0.000220533
0.000220507
0.000220463
0.000220466
0.000220485
0.000220481
0.000220507
0.000220463
0.000220478
0.000220478
0.000220481
0.000220407
0.000220418
0.000220396
0.000220466
0.000220422
0.000220414
0.000220418
0.000220452
0.000220455
0.000220396
0.00022047
0.000217989
0.000218008
0.000217941
0.000217963
0.000217959
0.000217926
0.000217974
0.000217889
0.000217889
0.000217892
0.000217866
0.000217915
0.000217941
0.000217885
0.000217885
0.000217933
0.000217855
0.000217866
0.000217807
0.000217836
0.000217877
0.000217807
0.000217792
0.000217766
0.000217762
0.000217799
0.000217803
0.00021781
0.000217795
0.000217788
0.000217743
0.000217702
0.000217695
0.000217646
0.000217736
0.000217728
0.000217684
0.000217654
0.000217672
0.000217658
0.000217605
0.000217669
0.000217699
0.000217654
0.00021765
0.000217665
0.000217613
0.000217635
0.000217624
0.000217609
0.000217605
0.00021759
0.00021762
0.000217546
0.000217516
0.000217523
0.000217509
0.000217542
0.000217546
0.000217542
0.000217531
0.00021755
0.000217553
0.000217512
0.000217449
0.000217471
0.000217505
0.000217464
0.000217449
0.000217438
0.000217412
0.000217427
0.000217427
0.00021743
0.000217438
0.000217453
0.000217374
0.000217397
0.000217389
0.000217319
0.000217307
0.000217345
0.000217326
0.000217307
0.000217374
0.000217382
0.000217348
0.000217319
0.00021733
0.00021727
0.0002173
0.0002173
0.000217251
0.000217263
0.000217307
0.000217307
0.000217281
0.000217278
0.000217278
0.000217251
0.000217218
0.000214722
0.0002147
0.000214715
0.000214681
0.000214662
0.000214659
0.000214659
0.000214666
0.000214733
0.000214651
0.000214621
0.000214633
0.000214629
0.000214655
0.000214662
0.000214696
0.000214629
0.000214625
0.000214618
0.000214577
0.000214573
0.00021458
0.000214558
0.000214573
0.000214573
0.000214506
0.000214506
0.000214566
0.000214528
0.000214547
0.000214484
0.000214458
0.000214495
0.000214439
0.000214472
0.000214487
0.000214465
0.000214465
0.000214454
0.000214428
0.000214431
0.000214439
0.000214435
0.000214405
0.000214387
0.000214405
0.000214394
0.000214383
0.000214349
0.000214349
0.000214357
0.000214342
0.000214305
0.000214364
0.000214338
0.000214349
0.000214312
0.000214316
0.000214309
0.000214305
0.000214323
0.000214331
0.000214282
0.000214305
0.000214275
0.000214268
0.000214253
0.000214227
0.00021423
0.000214238
0.000214234
0.00021423
0.000214208
0.000214208
0.000214215
0.000214204
0.000214279
0.000214159
0.000214178
0.000214171
0.000214174
0.000214133
0.000214137
0.000214092
0.000214145
0.000214133
0.000214081
0.000214089
0.000214074
0.000214089
0.000214037
0.000214055
0.000214055
0.000214025
0.000214051
0.000214037
0.000214048
0.000214048
0.000214059
0.000214081
0.000214055
0.000211347
0.00021141
0.000211406
0.000211377
0.000211377
0.000211306
0.000211358
0.000211332
0.000211325
0.000211403
0.000211392
0.000211373
0.000211354
0.000211265
0.000211272
0.000211261
0.000211254
0.00021131
0.000211246
0.000211243
0.000211213
0.000211235
0.000211272
0.000211198
0.000211194
0.000211235
0.000211213
0.000211202
0.000211161