/*--------------------------------*- C++ -*----------------------------------*\
| =========                 |                                                 |
| \\      /  F ield         | OpenFOAM: The Open Source CFD Toolbox           |
|  \\    /   O peration     | Version:  v2006                                 |
|   \\  /    A nd           | Website:  www.openfoam.com                      |
|    \\/     M anipulation  |                                                 |
\*---------------------------------------------------------------------------*/
FoamFile
{
    version     2.0;
    format      ascii;
    class       volScalarField;
    location    "8.25";
    object      r;
}
// * * * * * * * * * * * * * * * * * * * * * * * * * * * * * * * * * * * * * //

dimensions      [1 2 0 0 0 0 0];


internalField   nonuniform List<scalar> 
500
(
1.76699e-54
7.90384e-54
2.30219e-53
6.01092e-53
1.50791e-52
3.7184e-52
9.09071e-52
2.21085e-51
5.35582e-51
1.2931e-50
3.1122e-50
7.46743e-50
1.7863e-49
4.26013e-49
1.01292e-48
2.40107e-48
5.67433e-48
1.3369e-47
3.1402e-47
7.35332e-47
1.71663e-46
3.99514e-46
9.2693e-46
2.14397e-45
4.94362e-45
1.13638e-44
2.60403e-44
5.94861e-44
1.35465e-43
3.07521e-43
6.95921e-43
1.56992e-42
3.53041e-42
7.91404e-42
1.76846e-41
3.93926e-41
8.74684e-41
1.93599e-40
4.27136e-40
9.39377e-40
2.0593e-39
4.4999e-39
9.80137e-39
2.12799e-38
4.60517e-38
9.93381e-38
2.13587e-37
4.57744e-37
9.77807e-37
2.08193e-36
4.41832e-36
9.34599e-36
1.97046e-35
4.14076e-35
8.67284e-35
1.81054e-34
3.7672e-34
7.81251e-34
1.61481e-33
3.32665e-33
6.8304e-33
1.39777e-32
2.85086e-32
5.79511e-32
1.17406e-31
2.37062e-31
4.7706e-31
9.56799e-31
1.91251e-30
3.80994e-30
7.56422e-30
1.49671e-29
2.95147e-29
5.80046e-29
1.13608e-28
2.21756e-28
4.31379e-28
8.36295e-28
1.61575e-27
3.111e-27
5.96948e-27
1.14151e-26
2.17537e-26
4.13132e-26
7.81893e-26
1.47471e-25
2.77184e-25
5.19189e-25
9.69125e-25
1.80272e-24
3.34172e-24
6.17311e-24
1.13639e-23
2.08469e-23
3.81101e-23
6.94266e-23
1.26036e-22
2.28008e-22
4.11041e-22
7.38417e-22
1.3219e-21
2.35816e-21
4.19203e-21
7.42596e-21
1.31086e-20
2.30587e-20
4.0419e-20
7.06007e-20
1.22887e-19
2.13143e-19
3.68389e-19
6.3447e-19
1.08889e-18
1.8622e-18
3.17348e-18
5.38903e-18
9.1191e-18
1.53766e-17
2.58364e-17
4.32582e-17
7.21723e-17
1.19988e-16
1.98777e-16
3.2814e-16
5.39779e-16
8.84781e-16
1.44517e-15
2.35215e-15
3.81482e-15
6.1652e-15
9.92848e-15
1.59324e-14
2.54768e-14
4.05949e-14
6.44558e-14
1.01981e-13
1.60782e-13
2.52593e-13
3.95433e-13
6.16864e-13
9.58898e-13
1.48533e-12
2.29267e-12
3.52637e-12
5.40485e-12
8.25487e-12
1.25634e-11
1.90535e-11
2.8795e-11
4.33643e-11
6.50762e-11
9.73167e-11
1.45021e-10
2.15353e-10
3.18676e-10
4.69926e-10
6.90544e-10
1.0112e-09
1.47559e-09
2.14576e-09
3.10945e-09
4.4903e-09
6.46186e-09
9.26685e-09
1.32434e-08
1.8861e-08
2.67686e-08
3.78606e-08
5.33641e-08
7.49574e-08
1.04926e-07
1.46373e-07
2.03493e-07
2.81934e-07
3.89277e-07
5.35656e-07
7.34568e-07
1.00392e-06
1.36737e-06
1.8561e-06
2.51098e-06
3.38544e-06
4.54905e-06
6.09202e-06
8.13094e-06
1.08159e-05
1.43392e-05
1.89468e-05
2.49515e-05
3.27499e-05
4.28429e-05
5.58607e-05
7.25932e-05
9.40267e-05
0.000121388
0.000156196
0.000200327
0.000256088
0.000326302
0.000414416
0.000524618
0.000661976
0.000832604
0.00104384
0.00130448
0.00162498
0.00201776
0.00249752
0.00308155
0.00379014
0.00464697
0.00567961
0.00692
0.00840498
0.0101769
0.0122842
0.014782
0.0177331
0.0212081
0.0252867
0.0300579
0.0356213
0.0420871
0.0495771
0.0582256
0.0681791
0.0795976
0.0926543
0.107536
0.124444
0.143591
0.165205
0.189526
0.216806
0.247306
0.281299
0.319065
0.36089
0.407063
0.457877
0.513622
0.574584
0.641045
0.713273
0.791524
0.876039
0.967034
1.0647
1.16922
1.2807
1.39927
1.52497
1.65784
1.79785
1.94494
2.09899
2.25986
2.42732
2.60113
2.78099
2.96655
3.15741
3.35314
3.55326
3.75728
3.96463
4.17476
4.38707
4.60094
4.81576
5.03088
5.24568
5.45951
5.67176
5.8818
6.08904
6.2929
6.49284
6.68833
6.87889
7.06405
7.2434
7.41655
7.58316
7.74293
7.89559
8.0409
8.17867
8.30873
8.43095
8.54523
8.65148
8.74965
8.8397
8.9216
8.99534
9.06092
9.11834
9.1676
9.20872
9.24169
9.26651
9.28319
9.2917
9.29203
9.28415
9.26804
9.24365
9.21095
9.1699
9.12046
9.06258
8.99623
8.9214
8.83808
8.74626
8.64598
8.53728
8.42023
8.29496
8.16157
8.02026
7.87123
7.71471
7.55101
7.38043
7.20336
7.02018
6.83135
6.63735
6.43867
6.23588
6.02953
5.82023
5.60858
5.39522
5.18078
4.9659
4.75122
4.53738
4.32501
4.11471
3.90707
3.70264
3.50197
3.30555
3.11384
2.92726
2.7462
2.57098
2.4019
2.23921
2.08311
1.93374
1.79121
1.6556
1.52692
1.40516
1.29027
1.18215
1.08069
0.985738
0.897117
0.814633
0.738067
0.667189
0.601753
0.541504
0.48618
0.435513
0.389237
0.347083
0.308786
0.274085
0.242726
0.214461
0.189052
0.166271
0.145898
0.127727
0.111561
0.0972172
0.0845225
0.0733162
0.0634494
0.054784
0.0471932
0.0405607
0.0347802
0.029755
0.0253974
0.0216283
0.0183763
0.0155775
0.0131748
0.0111172
0.00935957
0.00786185
0.00658875
0.00550925
0.00459615
0.00382569
0.00317718
0.00263262
0.00217648
0.00179531
0.00147757
0.00121333
0.000994104
0.000812666
0.000662859
0.00053946
0.000438055
0.000354921
0.000286926
0.000231443
0.000186276
0.000149593
0.00011987
9.58408e-05
7.64607e-05
6.0866e-05
4.83461e-05
3.83178e-05
3.03036e-05
2.39136e-05
1.88301e-05
1.47952e-05
1.15999e-05
9.07509e-06
7.08459e-06
5.51883e-06
4.28994e-06
3.32758e-06
2.57561e-06
1.98935e-06
1.53328e-06
1.17927e-06
9.05081e-07
6.93185e-07
5.29785e-07
4.04055e-07
3.0752e-07
2.33562e-07
1.77022e-07
1.33892e-07
1.0106e-07
7.61221e-08
5.72199e-08
4.29232e-08
3.21327e-08
2.40057e-08
1.78977e-08
1.33167e-08
9.88818e-09
7.32752e-09
5.41903e-09
3.99955e-09
2.94598e-09
2.1656e-09
1.58877e-09
1.16326e-09
8.50023e-10
6.19903e-10
4.51188e-10
3.27745e-10
2.37607e-10
1.71922e-10
1.24152e-10
8.94807e-11
6.43664e-11
4.6211e-11
3.31125e-11
2.36809e-11
1.69032e-11
1.20422e-11
8.56268e-12
6.07693e-12
4.30458e-12
3.04335e-12
2.14758e-12
1.5126e-12
1.06336e-12
7.46143e-13
5.22573e-13
3.65308e-13
2.54895e-13
1.77523e-13
1.23408e-13
8.56299e-14
5.93071e-14
4.10004e-14
2.82925e-14
1.94877e-14
1.33988e-14
9.1964e-15
6.3038e-15
4.32501e-15
3.00543e-15
2.24354e-15
)
;

boundaryField
{
    right
    {
        type            zeroGradient;
    }
    left
    {
        type            inletOutlet;
        inletValue      uniform 0;
        value           uniform 0;
    }
    top
    {
        type            zeroGradient;
    }
    bottom
    {
        type            zeroGradient;
    }
    empty
    {
        type            empty;
    }
}


// ************************************************************************* //
