/*--------------------------------*- C++ -*----------------------------------*\
| =========                 |                                                 |
| \\      /  F ield         | OpenFOAM: The Open Source CFD Toolbox           |
|  \\    /   O peration     | Version:  v2006                                 |
|   \\  /    A nd           | Website:  www.openfoam.com                      |
|    \\/     M anipulation  |                                                 |
\*---------------------------------------------------------------------------*/
FoamFile
{
    version     2.0;
    format      ascii;
    class       volScalarField;
    location    "5.9";
    object      p;
}
// * * * * * * * * * * * * * * * * * * * * * * * * * * * * * * * * * * * * * //

dimensions      [1 -1 -2 0 0 0 0];


internalField   nonuniform List<scalar> 
52500
(
30688.6
30688.9
30689.5
30690.3
30691.5
30692.9
30694.6
30696.6
30698.8
30701.3
30704
30707.1
30710.3
30713.8
30717.6
30721.5
30725.7
30730.1
30734.7
30739.5
30744.5
30749.7
30755
30760.5
30766.1
30771.8
30777.7
30783.7
30789.8
30795.9
30802.2
30808.5
30814.9
30821.3
30827.7
30834.2
30840.6
30847
30853.5
30859.9
30866.2
30872.5
30878.8
30884.9
30891
30896.9
30902.8
30908.5
30914.1
30919.6
30924.9
30930
30935
30939.8
30944.4
30948.8
30953
30957
30960.7
30964.2
30967.5
30970.6
30973.4
30975.9
30978.2
30980.1
30981.9
30983.3
30984.4
30985.3
30985.9
30986.1
30986.1
30985.7
30985.1
30984.1
30982.8
30981.2
30979.3
30977
30974.4
30971.5
30968.2
30964.6
30960.7
30956.5
30951.9
30947
30941.8
30936.3
30930.4
30924.2
30917.6
30910.8
30903.6
30896.1
30888.2
30880.1
30871.6
30862.8
30853.8
30844.4
30834.7
30824.7
30814.4
30803.8
30792.9
30781.8
30770.3
30758.6
30746.6
30734.4
30721.8
30709.1
30696
30682.8
30669.2
30655.5
30641.5
30627.3
30612.9
30598.2
30583.4
30568.3
30553.1
30537.6
30522
30506.2
30490.3
30474.1
30457.9
30441.4
30424.9
30408.1
30391.3
30374.3
30357.3
30340.1
30322.8
30305.4
30287.9
30270.4
30252.7
30235
30217.3
30199.5
30181.6
30163.7
30145.8
30127.8
30109.8
30091.8
30073.9
30055.9
30037.9
30019.9
30001.9
29984
29966.1
29948.3
29930.5
29912.7
29895.1
29877.4
29859.9
29842.4
29825
29807.8
29790.6
29773.5
29756.5
29739.6
29722.9
29706.3
29689.8
29673.4
29657.2
29641.2
29625.2
29609.5
29593.9
29578.5
29563.2
29548.2
29533.3
29518.6
29504.1
29489.7
29475.6
29461.7
29448
29434.5
29421.2
29408.1
29395.3
29382.7
29370.3
29358.1
29346.1
29334.5
29323
29311.8
29300.8
29290.1
29279.6
29269.4
29259.4
29249.7
29240.2
29231
29222
29213.3
29204.9
29196.7
29188.8
29181.2
29173.8
29166.7
29159.8
29153.3
29146.9
29140.9
29135.1
29129.6
29124.3
29119.3
29114.6
29110.1
29105.9
29102
29098.3
29094.8
29091.7
29088.7
29086.1
29083.7
29081.5
29079.6
29077.9
29076.4
29075.2
29074.3
29073.6
29073.1
29072.8
29072.7
29072.9
29073.3
29073.9
29074.7
29075.8
29077
29078.4
29080.1
29081.9
29083.9
29086.1
29088.4
29091
29093.7
29096.6
29099.6
29102.8
29106.1
29109.6
29113.3
29117
29120.9
29125
29129.1
29133.4
29137.7
29142.2
29146.8
29151.5
29156.3
29161.1
29166.1
29171.1
29176.1
29181.3
29186.5
29191.8
29197.1
29202.5
29207.9
29213.3
29218.8
29224.2
29229.8
29235.3
29240.8
29246.3
29251.9
29257.4
29262.9
29268.4
29273.9
29279.4
29284.9
29290.3
29295.7
29301.1
29306.4
29311.7
29316.9
29322.1
29327.2
29332.3
29337.2
29342.2
29347
29351.8
29356.5
29361.1
29365.7
29370.1
29374.5
29378.7
29382.9
29386.9
29390.9
29394.7
29398.5
29402.1
29405.6
29409
29412.3
29415.4
29418.5
29421.4
29424.1
29426.8
29429.3
29431.6
29433.9
29435.9
29437.9
29439.7
29441.3
29442.9
29444.2
29445.4
29446.5
29447.4
29448.2
29448.8
29449.3
29449.6
29449.7
30230.1
30230.3
30230.9
30231.8
30232.9
30234.3
30236
30238
30240.3
30242.8
30245.5
30248.6
30251.9
30255.4
30259.1
30263.1
30267.3
30271.8
30276.4
30281.2
30286.2
30291.4
30296.7
30302.3
30307.9
30313.7
30319.6
30325.6
30331.7
30337.9
30344.2
30350.5
30356.9
30363.4
30369.8
30376.3
30382.8
30389.3
30395.7
30402.2
30408.6
30414.9
30421.1
30427.3
30433.4
30439.4
30445.3
30451.1
30456.7
30462.2
30467.5
30472.7
30477.7
30482.5
30487.1
30491.5
30495.7
30499.7
30503.5
30507.1
30510.4
30513.4
30516.2
30518.8
30521.1
30523.1
30524.8
30526.3
30527.4
30528.3
30528.9
30529.2
30529.1
30528.8
30528.1
30527.2
30525.9
30524.3
30522.3
30520.1
30517.5
30514.5
30511.3
30507.7
30503.8
30499.6
30495
30490.1
30484.9
30479.3
30473.5
30467.2
30460.7
30453.8
30446.6
30439.1
30431.3
30423.1
30414.7
30405.9
30396.8
30387.4
30377.7
30367.7
30357.4
30346.8
30335.9
30324.7
30313.2
30301.5
30289.5
30277.2
30264.7
30251.9
30238.9
30225.6
30212.1
30198.3
30184.3
30170.1
30155.6
30141
30126.1
30111
30095.8
30080.3
30064.7
30048.9
30032.9
30016.8
30000.5
29984
29967.4
29950.7
29933.8
29916.9
29899.8
29882.5
29865.2
29847.8
29830.3
29812.8
29795.1
29777.4
29759.6
29741.8
29723.9
29706
29688
29670.1
29652.1
29634.1
29616
29598
29580
29562
29544.1
29526.1
29508.2
29490.4
29472.5
29454.8
29437.1
29419.4
29401.9
29384.4
29367
29349.7
29332.5
29315.4
29298.4
29281.5
29264.7
29248.1
29231.6
29215.2
29199
29182.9
29167
29151.3
29135.7
29120.2
29105
29089.9
29075
29060.3
29045.7
29031.4
29017.3
29003.4
28989.6
28976.1
28962.8
28949.7
28936.9
28924.2
28911.8
28899.7
28887.7
28876
28864.5
28853.3
28842.3
28831.6
28821.1
28810.9
28800.9
28791.2
28781.7
28772.5
28763.5
28754.8
28746.4
28738.2
28730.3
28722.7
28715.3
28708.2
28701.3
28694.7
28688.4
28682.4
28676.6
28671.1
28665.8
28660.8
28656.1
28651.6
28647.4
28643.5
28639.8
28636.4
28633.2
28630.3
28627.6
28625.2
28623
28621.1
28619.4
28618
28616.8
28615.8
28615.1
28614.6
28614.4
28614.3
28614.5
28614.9
28615.5
28616.4
28617.4
28618.7
28620.1
28621.7
28623.6
28625.6
28627.8
28630.2
28632.7
28635.4
28638.3
28641.4
28644.6
28647.9
28651.4
28655.1
28658.9
28662.8
28666.8
28671
28675.3
28679.7
28684.2
28688.8
28693.5
28698.2
28703.1
28708.1
28713.1
28718.2
28723.4
28728.6
28733.9
28739.2
28744.6
28750
28755.4
28760.9
28766.4
28771.9
28777.4
28782.9
28788.5
28794
28799.6
28805.1
28810.7
28816.2
28821.7
28827.2
28832.6
28838
28843.4
28848.7
28854
28859.3
28864.4
28869.6
28874.6
28879.6
28884.6
28889.4
28894.2
28898.9
28903.5
28908.1
28912.5
28916.9
28921.2
28925.3
28929.4
28933.3
28937.2
28940.9
28944.6
28948.1
28951.5
28954.8
28957.9
28960.9
28963.8
28966.6
28969.2
28971.7
28974.1
28976.3
28978.4
28980.4
28982.2
28983.8
28985.3
28986.7
28987.9
28989
28989.9
28990.7
28991.3
28991.8
28992.1
28992.2
29770.6
29770.9
29771.5
29772.4
29773.5
29775
29776.7
29778.7
29780.9
29783.5
29786.3
29789.4
29792.7
29796.2
29800
29804.1
29808.3
29812.8
29817.5
29822.3
29827.4
29832.6
29838.1
29843.6
29849.3
29855.2
29861.1
29867.2
29873.4
29879.7
29886
29892.4
29898.9
29905.4
29911.9
29918.5
29925
29931.5
29938.1
29944.6
29951
29957.4
29963.7
29970
29976.1
29982.2
29988.1
29993.9
29999.6
30005.2
30010.5
30015.8
30020.8
30025.7
30030.3
30034.8
30039.1
30043.1
30046.9
30050.5
30053.9
30057
30059.8
30062.4
30064.7
30066.7
30068.5
30070
30071.1
30072
30072.6
30072.9
30072.9
30072.6
30071.9
30070.9
30069.6
30067.9
30066.1
30063.9
30061.3
30058.5
30055.2
30051.7
30047.8
30043.5
30039
30034.1
30028.8
30023.3
30017.4
30011.2
30004.6
29997.7
29990.5
29983
29975.2
29967
29958.5
29949.7
29940.6
29931.2
29921.4
29911.4
29901.1
29890.5
29879.6
29868.4
29856.9
29845.2
29833.1
29820.8
29808.3
29795.5
29782.4
29769.1
29755.5
29741.7
29727.7
29713.4
29698.9
29684.3
29669.4
29654.3
29639
29623.5
29607.8
29592
29576
29559.8
29543.5
29527
29510.3
29493.6
29476.7
29459.7
29442.5
29425.3
29407.9
29390.5
29373
29355.4
29337.7
29319.9
29302.1
29284.2
29266.3
29248.4
29230.4
29212.4
29194.3
29176.3
29158.2
29140.2
29122.2
29104.1
29086.1
29068.2
29050.2
29032.3
29014.5
28996.7
28978.9
28961.3
28943.7
28926.2
28908.7
28891.4
28874.1
28857
28840
28823.1
28806.3
28789.6
28773.1
28756.7
28740.5
28724.3
28708.4
28692.6
28677
28661.5
28646.2
28631.1
28616.2
28601.4
28586.9
28572.5
28558.4
28544.4
28530.7
28517.2
28503.8
28490.7
28477.9
28465.2
28452.8
28440.6
28428.6
28416.9
28405.4
28394.2
28383.2
28372.5
28362
28351.7
28341.7
28332
28322.5
28313.3
28304.3
28295.6
28287.2
28279
28271.1
28263.4
28256.1
28248.9
28242.1
28235.5
28229.2
28223.1
28217.4
28211.8
28206.6
28201.6
28196.9
28192.4
28188.2
28184.3
28180.6
28177.2
28174
28171.1
28168.4
28166
28163.9
28162
28160.3
28158.9
28157.7
28156.8
28156.1
28155.6
28155.4
28155.4
28155.6
28156
28156.6
28157.5
28158.5
28159.8
28161.2
28162.9
28164.8
28166.8
28169
28171.4
28174
28176.8
28179.7
28182.7
28186
28189.4
28192.9
28196.6
28200.4
28204.3
28208.4
28212.6
28216.9
28221.3
28225.8
28230.4
28235.2
28240
28244.9
28249.9
28254.9
28260
28265.2
28270.5
28275.8
28281.1
28286.5
28292
28297.4
28302.9
28308.5
28314
28319.6
28325.1
28330.7
28336.3
28341.9
28347.4
28353
28358.5
28364
28369.5
28375
28380.4
28385.8
28391.2
28396.5
28401.7
28406.9
28412.1
28417.1
28422.2
28427.1
28432
28436.8
28441.5
28446.2
28450.7
28455.2
28459.6
28463.8
28468
28472.1
28476.1
28479.9
28483.7
28487.3
28490.9
28494.3
28497.5
28500.7
28503.7
28506.6
28509.4
28512.1
28514.6
28517
28519.2
28521.3
28523.2
28525
28526.7
28528.2
28529.6
28530.8
28531.9
28532.8
28533.6
28534.2
28534.7
28535
28535.1
29310.4
29310.7
29311.3
29312.1
29313.3
29314.8
29316.5
29318.6
29320.9
29323.5
29326.3
29329.4
29332.8
29336.4
29340.3
29344.4
29348.7
29353.2
29358
29362.9
29368.1
29373.4
29378.9
29384.6
29390.4
29396.3
29402.3
29408.5
29414.8
29421.2
29427.6
29434.1
29440.7
29447.3
29453.9
29460.6
29467.2
29473.8
29480.5
29487.1
29493.6
29500.1
29506.5
29512.8
29519.1
29525.2
29531.3
29537.2
29542.9
29548.5
29554
29559.3
29564.4
29569.4
29574.1
29578.7
29583
29587.1
29591
29594.6
29598
29601.2
29604.1
29606.7
29609.1
29611.1
29613
29614.5
29615.7
29616.6
29617.3
29617.6
29617.6
29617.3
29616.7
29615.8
29614.5
29613
29611.2
29608.8
29606.2
29603.3
29600.1
29596.5
29592.6
29588.4
29583.8
29578.9
29573.7
29568.1
29562.2
29556
29549.4
29542.5
29535.3
29527.8
29519.9
29511.7
29503.2
29494.4
29485.3
29475.8
29466.1
29456
29445.6
29435
29424.1
29412.8
29401.3
29389.5
29377.5
29365.1
29352.5
29339.7
29326.6
29313.2
29299.6
29285.7
29271.7
29257.4
29242.8
29228.1
29213.2
29198
29182.7
29167.1
29151.4
29135.5
29119.5
29103.2
29086.8
29070.3
29053.6
29036.8
29019.8
29002.8
28985.6
28968.3
28950.9
28933.4
28915.8
28898.1
28880.4
28862.6
28844.7
28826.8
28808.8
28790.8
28772.8
28754.7
28736.6
28718.5
28700.4
28682.3
28664.2
28646.1
28628.1
28610.1
28592.1
28574.1
28556.2
28538.4
28520.6
28502.9
28485.2
28467.6
28450.2
28432.8
28415.5
28398.3
28381.2
28364.3
28347.5
28330.7
28314.2
28297.7
28281.4
28265.3
28249.3
28233.5
28217.8
28202.3
28187
28171.9
28156.9
28142.1
28127.5
28113.2
28099
28085
28071.2
28057.6
28044.3
28031.2
28018.3
28005.6
27993.1
27980.9
27968.9
27957.2
27945.7
27934.4
27923.4
27912.7
27902.1
27891.9
27881.9
27872.1
27862.6
27853.4
27844.4
27835.7
27827.3
27819.1
27811.2
27803.5
27796.1
27789
27782.1
27775.5
27769.2
27763.2
27757.4
27751.9
27746.6
27741.6
27736.9
27732.5
27728.3
27724.4
27720.7
27717.3
27714.1
27711.2
27708.6
27706.2
27704.1
27702.2
27700.5
27699.2
27698
27697.1
27696.4
27696
27695.7
27695.7
27696
27696.4
27697.1
27698
27699.1
27700.4
27701.9
27703.6
27705.4
27707.5
27709.8
27712.2
27714.8
27717.6
27720.6
27723.7
27726.9
27730.4
27733.9
27737.7
27741.5
27745.5
27749.6
27753.8
27758.2
27762.6
27767.2
27771.9
27776.6
27781.5
27786.4
27791.4
27796.5
27801.7
27806.9
27812.2
27817.6
27823
27828.4
27833.9
27839.4
27844.9
27850.5
27856
27861.6
27867.2
27872.8
27878.5
27884.1
27889.7
27895.2
27900.8
27906.4
27911.9
27917.4
27922.9
27928.3
27933.7
27939
27944.3
27949.5
27954.7
27959.8
27964.8
27969.8
27974.7
27979.5
27984.3
27989
27993.5
27998
28002.4
28006.7
28010.9
28015
28019
28022.9
28026.7
28030.3
28033.9
28037.3
28040.6
28043.8
28046.8
28049.8
28052.6
28055.2
28057.7
28060.1
28062.4
28064.5
28066.4
28068.3
28069.9
28071.5
28072.8
28074.1
28075.1
28076.1
28076.8
28077.5
28077.9
28078.2
28078.4
28849.3
28849.6
28850.2
28851.1
28852.3
28853.8
28855.6
28857.7
28860
28862.7
28865.6
28868.8
28872.2
28875.9
28879.8
28884
28888.5
28893.1
28897.9
28903
28908.3
28913.7
28919.3
28925.1
28931
28937
28943.2
28949.5
28955.9
28962.4
28969
28975.6
28982.3
28989.1
28995.8
29002.6
29009.4
29016.2
29022.9
29029.7
29036.3
29042.9
29049.5
29055.9
29062.3
29068.6
29074.7
29080.7
29086.6
29092.4
29097.9
29103.3
29108.6
29113.6
29118.4
29123.1
29127.5
29131.7
29135.6
29139.4
29142.8
29146.1
29149
29151.7
29154.2
29156.3
29158.2
29159.7
29161
29162
29162.7
29163
29163.1
29162.8
29162.2
29161.3
29160.1
29158.5
29156.6
29154.4
29151.9
29149
29145.8
29142.2
29138.3
29134.1
29129.5
29124.6
29119.4
29113.8
29107.9
29101.7
29095.1
29088.2
29080.9
29073.4
29065.5
29057.3
29048.7
29039.9
29030.7
29021.2
29011.4
29001.4
28991
28980.3
28969.3
28958
28946.4
28934.6
28922.5
28910.1
28897.5
28884.5
28871.4
28858
28844.3
28830.4
28816.3
28801.9
28787.3
28772.5
28757.5
28742.3
28726.9
28711.3
28695.5
28679.5
28663.4
28647.1
28630.6
28614
28597.3
28580.4
28563.3
28546.2
28528.9
28511.6
28494.1
28476.5
28458.9
28441.1
28423.3
28405.4
28387.5
28369.5
28351.4
28333.4
28315.2
28297.1
28278.9
28260.8
28242.6
28224.4
28206.3
28188.1
28170
28151.9
28133.8
28115.8
28097.8
28079.9
28062.1
28044.3
28026.6
28008.9
27991.4
27974
27956.6
27939.4
27922.2
27905.2
27888.3
27871.5
27854.9
27838.4
27822.1
27805.9
27789.8
27773.9
27758.2
27742.7
27727.3
27712.1
27697.1
27682.3
27667.7
27653.2
27639
27625
27611.2
27597.5
27584.2
27571
27558.1
27545.3
27532.9
27520.6
27508.6
27496.8
27485.3
27474
27463
27452.2
27441.6
27431.4
27421.3
27411.6
27402
27392.8
27383.8
27375.1
27366.6
27358.4
27350.5
27342.8
27335.4
27328.3
27321.5
27314.9
27308.5
27302.5
27296.7
27291.2
27286
27281
27276.3
27271.8
27267.7
27263.7
27260.1
27256.7
27253.6
27250.7
27248.1
27245.7
27243.6
27241.7
27240.1
27238.7
27237.6
27236.7
27236.1
27235.7
27235.5
27235.5
27235.8
27236.3
27237
27237.9
27239.1
27240.4
27241.9
27243.7
27245.6
27247.7
27250
27252.5
27255.2
27258
27261
27264.2
27267.5
27271
27274.6
27278.4
27282.3
27286.3
27290.5
27294.8
27299.2
27303.7
27308.3
27313
27317.9
27322.8
27327.8
27332.8
27338
27343.2
27348.5
27353.8
27359.2
27364.7
27370.1
27375.7
27381.2
27386.8
27392.4
27398
27403.7
27409.3
27415
27420.7
27426.3
27431.9
27437.6
27443.2
27448.8
27454.3
27459.9
27465.4
27470.8
27476.3
27481.6
27487
27492.2
27497.4
27502.6
27507.7
27512.7
27517.6
27522.5
27527.3
27532
27536.6
27541.1
27545.5
27549.8
27554.1
27558.2
27562.2
27566.1
27569.9
27573.6
27577.2
27580.7
27584
27587.2
27590.3
27593.2
27596
27598.7
27601.2
27603.6
27605.9
27608
27610
27611.8
27613.5
27615.1
27616.4
27617.7
27618.8
27619.7
27620.5
27621.1
27621.6
27621.9
27622
28387.4
28387.7
28388.3
28389.2
28390.4
28392
28393.8
28396
28398.4
28401.1
28404.1
28407.3
28410.9
28414.7
28418.7
28423
28427.6
28432.3
28437.3
28442.5
28447.9
28453.5
28459.2
28465.1
28471.2
28477.4
28483.8
28490.2
28496.8
28503.5
28510.2
28517
28523.9
28530.8
28537.7
28544.7
28551.6
28558.6
28565.5
28572.4
28579.2
28586
28592.7
28599.3
28605.8
28612.2
28618.5
28624.7
28630.7
28636.6
28642.3
28647.8
28653.2
28658.3
28663.3
28668
28672.6
28676.9
28680.9
28684.8
28688.3
28691.7
28694.7
28697.5
28700
28702.2
28704.2
28705.8
28707.1
28708.2
28708.9
28709.3
28709.4
28709.2
28708.7
28707.8
28706.6
28705.1
28703.2
28701
28698.5
28695.6
28692.4
28688.9
28685
28680.8
28676.2
28671.3
28666
28660.5
28654.5
28648.3
28641.7
28634.7
28627.5
28619.9
28611.9
28603.7
28595.1
28586.2
28577
28567.5
28557.7
28547.5
28537.1
28526.3
28515.3
28504
28492.3
28480.4
28468.3
28455.8
28443.1
28430.1
28416.9
28403.4
28389.6
28375.7
28361.4
28347
28332.3
28317.4
28302.4
28287.1
28271.6
28255.9
28240
28223.9
28207.7
28191.3
28174.8
28158.1
28141.2
28124.3
28107.2
28089.9
28072.6
28055.1
28037.5
28019.9
28002.1
27984.3
27966.4
27948.4
27930.4
27912.3
27894.1
27876
27857.8
27839.5
27821.3
27803
27784.7
27766.5
27748.2
27730
27711.8
27693.6
27675.4
27657.3
27639.3
27621.3
27603.3
27585.5
27567.7
27550
27532.4
27514.8
27497.4
27480.1
27462.9
27445.8
27428.8
27412
27395.3
27378.7
27362.3
27346
27329.9
27314
27298.2
27282.6
27267.1
27251.9
27236.8
27221.9
27207.2
27192.8
27178.5
27164.4
27150.5
27136.9
27123.4
27110.2
27097.2
27084.5
27072
27059.7
27047.6
27035.8
27024.2
27012.9
27001.8
26991
26980.5
26970.1
26960.1
26950.3
26940.8
26931.5
26922.5
26913.7
26905.3
26897
26889.1
26881.4
26874
26866.9
26860
26853.4
26847.1
26841.1
26835.3
26829.8
26824.6
26819.6
26814.9
26810.5
26806.3
26802.4
26798.8
26795.4
26792.3
26789.4
26786.8
26784.5
26782.4
26780.6
26779
26777.7
26776.6
26775.8
26775.1
26774.8
26774.6
26774.7
26775
26775.6
26776.3
26777.3
26778.5
26779.9
26781.5
26783.3
26785.3
26787.5
26789.8
26792.4
26795.1
26798
26801.1
26804.3
26807.7
26811.2
26814.9
26818.8
26822.7
26826.8
26831.1
26835.4
26839.9
26844.5
26849.2
26854
26858.8
26863.8
26868.9
26874
26879.2
26884.5
26889.9
26895.3
26900.7
26906.2
26911.8
26917.4
26923
26928.6
26934.3
26940
26945.7
26951.4
26957.1
26962.8
26968.5
26974.2
26979.9
26985.6
26991.2
26996.9
27002.4
27008
27013.5
27019
27024.4
27029.8
27035.1
27040.3
27045.5
27050.7
27055.7
27060.7
27065.6
27070.4
27075.2
27079.8
27084.4
27088.8
27093.2
27097.5
27101.6
27105.7
27109.6
27113.5
27117.2
27120.8
27124.3
27127.6
27130.9
27134
27136.9
27139.8
27142.5
27145.1
27147.5
27149.8
27151.9
27153.9
27155.8
27157.5
27159
27160.4
27161.7
27162.8
27163.7
27164.5
27165.1
27165.6
27165.9
27166.1
27924.6
27924.9
27925.5
27926.5
27927.7
27929.3
27931.2
27933.4
27935.9
27938.7
27941.8
27945.2
27948.8
27952.7
27956.9
27961.4
27966
27970.9
27976.1
27981.4
27987
27992.7
27998.7
28004.8
28011
28017.4
28024
28030.6
28037.4
28044.3
28051.2
28058.2
28065.3
28072.4
28079.5
28086.7
28093.8
28101
28108.1
28115.2
28122.2
28129.2
28136
28142.9
28149.6
28156.2
28162.6
28169
28175.2
28181.2
28187.1
28192.8
28198.3
28203.6
28208.7
28213.6
28218.2
28222.7
28226.9
28230.8
28234.5
28237.9
28241.1
28244
28246.6
28248.9
28250.9
28252.6
28254.1
28255.2
28256
28256.5
28256.6
28256.5
28256
28255.1
28254
28252.5
28250.7
28248.5
28246
28243.1
28239.9
28236.4
28232.5
28228.3
28223.7
28218.8
28213.6
28208
28202
28195.7
28189.1
28182.2
28174.9
28167.2
28159.3
28151
28142.4
28133.4
28124.2
28114.6
28104.7
28094.5
28084
28073.2
28062.1
28050.7
28039
28027
28014.7
28002.2
27989.4
27976.3
27963
27949.4
27935.6
27921.5
27907.2
27892.7
27877.9
27862.9
27847.8
27832.4
27816.8
27801
27785
27768.8
27752.5
27736
27719.4
27702.6
27685.6
27668.5
27651.3
27633.9
27616.5
27598.9
27581.2
27563.5
27545.6
27527.6
27509.6
27491.5
27473.4
27455.2
27436.9
27418.7
27400.3
27382
27363.6
27345.3
27326.9
27308.5
27290.2
27271.8
27253.5
27235.2
27217
27198.7
27180.6
27162.5
27144.5
27126.5
27108.6
27090.8
27073.1
27055.4
27037.9
27020.5
27003.2
26986
26969
26952
26935.3
26918.6
26902.1
26885.8
26869.6
26853.5
26837.7
26822
26806.5
26791.1
26776
26761
26746.3
26731.7
26717.4
26703.2
26689.3
26675.6
26662.1
26648.8
26635.8
26623
26610.4
26598.1
26586
26574.1
26562.5
26551.1
26540
26529.2
26518.6
26508.2
26498.1
26488.3
26478.8
26469.5
26460.4
26451.7
26443.2
26434.9
26427
26419.3
26411.9
26404.8
26397.9
26391.3
26385
26378.9
26373.2
26367.7
26362.4
26357.5
26352.8
26348.4
26344.2
26340.3
26336.7
26333.4
26330.3
26327.5
26324.9
26322.6
26320.6
26318.8
26317.2
26316
26314.9
26314.1
26313.6
26313.2
26313.1
26313.3
26313.7
26314.3
26315.1
26316.1
26317.4
26318.8
26320.5
26322.4
26324.4
26326.7
26329.1
26331.7
26334.6
26337.5
26340.7
26344
26347.5
26351.1
26354.8
26358.8
26362.8
26367
26371.3
26375.8
26380.3
26385
26389.7
26394.6
26399.6
26404.6
26409.8
26415
26420.3
26425.7
26431.1
26436.6
26442.1
26447.7
26453.3
26459
26464.7
26470.4
26476.1
26481.9
26487.7
26493.5
26499.2
26505
26510.8
26516.6
26522.3
26528
26533.8
26539.4
26545.1
26550.7
26556.3
26561.8
26567.3
26572.7
26578.1
26583.4
26588.6
26593.8
26598.9
26603.9
26608.9
26613.8
26618.6
26623.3
26627.9
26632.4
26636.8
26641.1
26645.3
26649.4
26653.4
26657.3
26661
26664.7
26668.2
26671.6
26674.9
26678
26681
26683.9
26686.6
26689.2
26691.6
26694
26696.1
26698.1
26700
26701.7
26703.3
26704.7
26706
26707.1
26708.1
26708.8
26709.5
26710
26710.3
26710.4
27460.9
27461.2
27461.8
27462.8
27464.1
27465.8
27467.7
27470
27472.6
27475.5
27478.7
27482.2
27486
27490.1
27494.4
27499
27503.8
27508.9
27514.2
27519.8
27525.5
27531.5
27537.6
27543.9
27550.4
27557.1
27563.8
27570.7
27577.7
27584.8
27592
27599.2
27606.5
27613.9
27621.3
27628.6
27636
27643.4
27650.8
27658.1
27665.3
27672.5
27679.7
27686.7
27693.6
27700.4
27707.1
27713.6
27720
27726.3
27732.3
27738.2
27743.9
27749.4
27754.7
27759.7
27764.5
27769.1
27773.5
27777.6
27781.4
27784.9
27788.2
27791.2
27793.9
27796.4
27798.5
27800.3
27801.8
27803
27803.9
27804.4
27804.7
27804.6
27804.1
27803.4
27802.2
27800.8
27799
27796.9
27794.4
27791.6
27788.4
27784.9
27781
27776.8
27772.2
27767.3
27762
27756.4
27750.4
27744.1
27737.5
27730.5
27723.1
27715.5
27707.5
27699.1
27690.5
27681.5
27672.1
27662.5
27652.5
27642.3
27631.7
27620.8
27609.6
27598.1
27586.3
27574.3
27561.9
27549.3
27536.4
27523.2
27509.8
27496.1
27482.2
27468
27453.6
27439
27424.1
27409
27393.7
27378.2
27362.5
27346.6
27330.5
27314.2
27297.7
27281.1
27264.3
27247.4
27230.3
27213.1
27195.8
27178.3
27160.7
27143
27125.2
27107.3
27089.3
27071.2
27053
27034.8
27016.6
26998.2
26979.8
26961.4
26943
26924.5
26906
26887.5
26869
26850.5
26832
26813.6
26795.1
26776.7
26758.3
26740
26721.7
26703.5
26685.4
26667.3
26649.3
26631.4
26613.5
26595.8
26578.2
26560.6
26543.2
26525.9
26508.8
26491.7
26474.9
26458.1
26441.5
26425.1
26408.8
26392.7
26376.7
26360.9
26345.3
26329.9
26314.7
26299.6
26284.8
26270.2
26255.8
26241.5
26227.5
26213.8
26200.2
26186.9
26173.8
26160.9
26148.2
26135.8
26123.7
26111.8
26100.1
26088.7
26077.5
26066.6
26056
26045.6
26035.5
26025.6
26016
26006.7
25997.7
25988.9
25980.4
25972.1
25964.1
25956.4
25949
25941.9
25935
25928.4
25922.1
25916
25910.3
25904.8
25899.6
25894.6
25890
25885.6
25881.4
25877.6
25874
25870.7
25867.6
25864.8
25862.3
25860
25858
25856.3
25854.8
25853.6
25852.6
25851.8
25851.3
25851.1
25851
25851.2
25851.7
25852.4
25853.2
25854.4
25855.7
25857.2
25859
25860.9
25863.1
25865.4
25867.9
25870.6
25873.5
25876.6
25879.8
25883.2
25886.8
25890.5
25894.4
25898.4
25902.5
25906.8
25911.2
25915.8
25920.4
25925.2
25930
25935
25940.1
25945.2
25950.5
25955.8
25961.2
25966.6
25972.2
25977.7
25983.4
25989
25994.7
26000.5
26006.3
26012.1
26017.9
26023.8
26029.6
26035.5
26041.3
26047.2
26053.1
26058.9
26064.7
26070.5
26076.3
26082.1
26087.8
26093.5
26099.1
26104.7
26110.3
26115.8
26121.2
26126.6
26131.9
26137.1
26142.3
26147.4
26152.4
26157.3
26162.2
26166.9
26171.6
26176.2
26180.6
26185
26189.2
26193.4
26197.4
26201.4
26205.2
26208.8
26212.4
26215.8
26219.2
26222.3
26225.4
26228.3
26231
26233.7
26236.2
26238.5
26240.7
26242.7
26244.6
26246.4
26248
26249.4
26250.7
26251.8
26252.8
26253.6
26254.2
26254.7
26255
26255.2
26996.2
26996.5
26997.2
26998.3
26999.6
27001.3
27003.4
27005.8
27008.5
27011.5
27014.8
27018.4
27022.4
27026.6
27031.1
27035.9
27040.9
27046.2
27051.8
27057.5
27063.5
27069.7
27076.1
27082.6
27089.4
27096.3
27103.3
27110.5
27117.7
27125.1
27132.5
27140.1
27147.7
27155.3
27162.9
27170.6
27178.3
27185.9
27193.5
27201.1
27208.6
27216.1
27223.5
27230.8
27237.9
27245
27251.9
27258.7
27265.3
27271.8
27278.1
27284.1
27290
27295.7
27301.2
27306.4
27311.5
27316.2
27320.7
27325
27329
27332.7
27336.1
27339.2
27342.1
27344.6
27346.9
27348.8
27350.4
27351.7
27352.7
27353.3
27353.6
27353.6
27353.2
27352.5
27351.4
27350
27348.3
27346.2
27343.7
27340.9
27337.8
27334.2
27330.4
27326.2
27321.6
27316.6
27311.4
27305.7
27299.7
27293.4
27286.7
27279.7
27272.3
27264.6
27256.5
27248.1
27239.4
27230.4
27221
27211.2
27201.2
27190.9
27180.2
27169.2
27157.9
27146.4
27134.5
27122.3
27109.9
27097.1
27084.1
27070.9
27057.3
27043.5
27029.5
27015.2
27000.6
26985.9
26970.9
26955.6
26940.2
26924.5
26908.7
26892.6
26876.4
26860
26843.4
26826.6
26809.7
26792.6
26775.4
26758
26740.5
26722.9
26705.2
26687.3
26669.4
26651.3
26633.2
26614.9
26596.6
26578.3
26559.9
26541.4
26522.8
26504.3
26485.7
26467.1
26448.4
26429.8
26411.2
26392.5
26373.9
26355.3
26336.7
26318.1
26299.6
26281.1
26262.7
26244.4
26226.1
26207.9
26189.7
26171.7
26153.7
26135.9
26118.1
26100.5
26082.9
26065.5
26048.2
26031.1
26014.1
25997.2
25980.5
25963.9
25947.5
25931.3
25915.3
25899.4
25883.7
25868.2
25852.8
25837.7
25822.8
25808.1
25793.6
25779.3
25765.2
25751.3
25737.7
25724.3
25711.1
25698.1
25685.4
25673
25660.7
25648.8
25637.1
25625.6
25614.4
25603.4
25592.7
25582.3
25572.1
25562.2
25552.6
25543.3
25534.2
25525.3
25516.8
25508.5
25500.6
25492.8
25485.4
25478.2
25471.4
25464.8
25458.4
25452.4
25446.6
25441.2
25436
25431
25426.4
25422
25417.9
25414.1
25410.5
25407.2
25404.2
25401.5
25399
25396.8
25394.8
25393.1
25391.7
25390.5
25389.6
25388.9
25388.4
25388.2
25388.3
25388.6
25389.1
25389.8
25390.8
25392
25393.4
25395
25396.9
25398.9
25401.2
25403.6
25406.2
25409
25412
25415.2
25418.5
25422.1
25425.7
25429.6
25433.5
25437.6
25441.9
25446.3
25450.8
25455.5
25460.2
25465.1
25470.1
25475.2
25480.3
25485.6
25490.9
25496.4
25501.9
25507.4
25513.1
25518.7
25524.5
25530.3
25536.1
25541.9
25547.8
25553.7
25559.6
25565.6
25571.5
25577.5
25583.4
25589.4
25595.3
25601.3
25607.2
25613.1
25619
25624.8
25630.6
25636.4
25642.1
25647.7
25653.4
25658.9
25664.4
25669.9
25675.3
25680.6
25685.8
25691
25696.1
25701.1
25706
25710.8
25715.5
25720.2
25724.7
25729.1
25733.4
25737.6
25741.7
25745.7
25749.6
25753.3
25756.9
25760.4
25763.8
25767
25770.1
25773
25775.8
25778.5
25781
25783.4
25785.6
25787.7
25789.6
25791.4
25793
25794.5
25795.8
25796.9
25797.9
25798.7
25799.4
25799.8
25800.2
25800.3
26530.6
26530.9
26531.7
26532.7
26534.2
26536
26538.1
26540.6
26543.4
26546.5
26550
26553.8
26557.9
26562.4
26567.1
26572.1
26577.3
26582.8
26588.6
26594.6
26600.9
26607.3
26614
26620.9
26627.9
26635.1
26642.4
26649.9
26657.4
26665.1
26672.9
26680.7
26688.6
26696.6
26704.5
26712.5
26720.5
26728.5
26736.4
26744.3
26752.1
26759.9
26767.5
26775.1
26782.6
26789.9
26797.1
26804.1
26811
26817.7
26824.3
26830.6
26836.7
26842.7
26848.3
26853.8
26859
26864
26868.7
26873.1
26877.3
26881.1
26884.7
26888
26891
26893.7
26896.1
26898.1
26899.8
26901.2
26902.3
26903
26903.4
26903.5
26903.2
26902.5
26901.5
26900.2
26898.5
26896.4
26894
26891.2
26888.1
26884.6
26880.7
26876.5
26871.9
26867
26861.7
26856
26850
26843.6
26836.9
26829.8
26822.4
26814.6
26806.5
26798.1
26789.3
26780.1
26770.7
26760.9
26750.7
26740.3
26729.5
26718.5
26707.1
26695.4
26683.4
26671.1
26658.6
26645.7
26632.6
26619.2
26605.5
26591.6
26577.4
26562.9
26548.3
26533.3
26518.2
26502.8
26487.2
26471.4
26455.4
26439.2
26422.8
26406.2
26389.5
26372.6
26355.5
26338.2
26320.9
26303.3
26285.7
26267.9
26250
26231.9
26213.8
26195.6
26177.3
26158.9
26140.4
26121.9
26103.3
26084.6
26065.9
26047.2
26028.5
26009.7
25990.9
25972.1
25953.3
25934.4
25915.7
25896.9
25878.1
25859.4
25840.8
25822.1
25803.6
25785.1
25766.6
25748.2
25730
25711.8
25693.7
25675.7
25657.8
25640
25622.3
25604.7
25587.3
25570
25552.9
25535.9
25519.1
25502.4
25485.9
25469.5
25453.4
25437.4
25421.5
25405.9
25390.5
25375.3
25360.2
25345.4
25330.8
25316.4
25302.2
25288.2
25274.5
25261
25247.8
25234.7
25222
25209.4
25197.1
25185.1
25173.3
25161.8
25150.5
25139.5
25128.7
25118.3
25108.1
25098.1
25088.4
25079
25069.9
25061.1
25052.5
25044.2
25036.2
25028.5
25021
25013.9
25007
25000.4
24994.1
24988
24982.3
24976.8
24971.6
24966.7
24962
24957.7
24953.6
24949.8
24946.3
24943
24940.1
24937.4
24934.9
24932.8
24930.9
24929.2
24927.8
24926.7
24925.9
24925.3
24924.9
24924.8
24924.9
24925.3
24925.9
24926.7
24927.8
24929.1
24930.6
24932.3
24934.2
24936.4
24938.7
24941.3
24944
24946.9
24950.1
24953.3
24956.8
24960.4
24964.2
24968.2
24972.3
24976.5
24980.9
24985.4
24990.1
24994.8
24999.7
25004.7
25009.8
25015
25020.3
25025.7
25031.2
25036.8
25042.4
25048.1
25053.8
25059.6
25065.5
25071.4
25077.3
25083.3
25089.3
25095.3
25101.3
25107.4
25113.4
25119.5
25125.5
25131.6
25137.6
25143.7
25149.7
25155.7
25161.6
25167.6
25173.5
25179.3
25185.1
25190.9
25196.6
25202.2
25207.8
25213.4
25218.8
25224.2
25229.5
25234.8
25239.9
25245
25250
25254.9
25259.7
25264.4
25269
25273.5
25277.9
25282.1
25286.3
25290.3
25294.3
25298.1
25301.7
25305.3
25308.7
25312
25315.1
25318.1
25320.9
25323.6
25326.2
25328.6
25330.9
25333
25335
25336.8
25338.4
25339.9
25341.2
25342.4
25343.4
25344.2
25344.9
25345.4
25345.7
25345.9
26064
26064.3
26065.1
26066.2
26067.7
26069.6
26071.8
26074.4
26077.4
26080.7
26084.3
26088.3
26092.6
26097.3
26102.2
26107.4
26113
26118.7
26124.8
26131.1
26137.7
26144.4
26151.4
26158.6
26165.9
26173.4
26181.1
26188.9
26196.9
26204.9
26213
26221.2
26229.5
26237.8
26246.1
26254.4
26262.8
26271.1
26279.4
26287.6
26295.8
26303.9
26311.9
26319.7
26327.5
26335.2
26342.7
26350
26357.2
26364.2
26371
26377.6
26384
26390.2
26396.1
26401.8
26407.2
26412.4
26417.3
26422
26426.3
26430.4
26434.1
26437.6
26440.8
26443.6
26446.1
26448.3
26450.1
26451.7
26452.8
26453.7
26454.2
26454.3
26454.1
26453.5
26452.6
26451.3
26449.6
26447.6
26445.2
26442.5
26439.3
26435.9
26432
26427.8
26423.2
26418.2
26412.9
26407.2
26401.2
26394.8
26388
26380.9
26373.4
26365.6
26357.4
26348.9
26340
26330.8
26321.2
26311.3
26301.1
26290.6
26279.7
26268.5
26257
26245.2
26233.1
26220.7
26208
26195
26181.7
26168.2
26154.4
26140.3
26125.9
26111.3
26096.5
26081.4
26066.1
26050.6
26034.8
26018.9
26002.7
25986.3
25969.7
25953
25936
25918.9
25901.7
25884.2
25866.7
25849
25831.1
25813.1
25795
25776.8
25758.5
25740.1
25721.6
25703
25684.4
25665.6
25646.9
25628
25609.1
25590.2
25571.3
25552.3
25533.3
25514.3
25495.3
25476.4
25457.4
25438.4
25419.5
25400.6
25381.8
25363
25344.2
25325.6
25306.9
25288.4
25270
25251.6
25233.3
25215.2
25197.1
25179.2
25161.3
25143.6
25126.1
25108.6
25091.3
25074.2
25057.2
25040.4
25023.8
25007.3
24991
24974.8
24958.9
24943.1
24927.6
24912.2
24897.1
24882.2
24867.4
24852.9
24838.6
24824.6
24810.8
24797.2
24783.8
24770.7
24757.8
24745.2
24732.8
24720.7
24708.9
24697.3
24685.9
24674.9
24664
24653.5
24643.2
24633.3
24623.5
24614.1
24604.9
24596.1
24587.5
24579.1
24571.1
24563.4
24555.9
24548.7
24541.8
24535.2
24528.9
24522.8
24517.1
24511.6
24506.5
24501.6
24496.9
24492.6
24488.6
24484.8
24481.3
24478.1
24475.2
24472.5