/*--------------------------------*- C++ -*----------------------------------*\
| =========                 |                                                 |
| \\      /  F ield         | OpenFOAM: The Open Source CFD Toolbox           |
|  \\    /   O peration     | Version:  v2006                                 |
|   \\  /    A nd           | Website:  www.openfoam.com                      |
|    \\/     M anipulation  |                                                 |
\*---------------------------------------------------------------------------*/
FoamFile
{
    version     2.0;
    format      ascii;
    class       surfaceScalarField;
    location    "5.9";
    object      phi;
}
// * * * * * * * * * * * * * * * * * * * * * * * * * * * * * * * * * * * * * //

dimensions      [0 3 -1 0 0 0 0];
oriented        oriented;


internalField   nonuniform List<scalar> 
104500
(
-3.16664e-05
3.16664e-05
-4.9651e-05
1.79846e-05
-7.05424e-05
2.08913e-05
-9.43958e-05
2.38535e-05
-0.000118854
2.44578e-05
-0.000143183
2.43294e-05
-0.000167351
2.41678e-05
-0.000191416
2.40654e-05
-0.000215397
2.39803e-05
-0.000239281
2.38841e-05
-0.000263055
2.37739e-05
-0.000286707
2.36525e-05
-0.000310226
2.35189e-05
-0.000333603
2.33771e-05
-0.000356828
2.32246e-05
-0.000379893
2.30653e-05
-0.000402788
2.28946e-05
-0.000425506
2.2718e-05
-0.000448039
2.25332e-05
-0.000470381
2.23421e-05
-0.000492526
2.21452e-05
-0.000514468
2.19419e-05
-0.000536202
2.17342e-05
-0.000557725
2.15224e-05
-0.000579029
2.13043e-05
-0.000600113
2.10841e-05
-0.000620977
2.08638e-05
-0.000641616
2.06388e-05
-0.000662028
2.04124e-05
-0.000682213
2.01844e-05
-0.00070217
1.9958e-05
-0.000721903
1.97326e-05
-0.000741412
1.95092e-05
-0.000760702
1.92902e-05
-0.000779781
1.90783e-05
-0.000798658
1.88771e-05
-0.000817349
1.86909e-05
-0.000835873
1.85238e-05
-0.000854248
1.83758e-05
-0.000872475
1.8227e-05
-0.000890518
1.80425e-05
-0.000908321
1.78029e-05
-0.000925837
1.75161e-05
-0.000943032
1.71954e-05
-0.000959881
1.68487e-05
-0.000976363
1.64822e-05
-0.00099246
1.60964e-05
-0.00100815
1.56897e-05
-0.00102341
1.52641e-05
-0.00103823
1.48192e-05
-0.00105258
1.43514e-05
-0.00106644
1.38523e-05
-0.00107972
1.32856e-05
-0.00109232
1.25933e-05
-0.00110405
1.17362e-05
-0.00111479
1.07399e-05
-0.00112449
9.69687e-06
-0.0011332
8.71221e-06
-0.00114104
7.84455e-06
-0.00114814
7.09029e-06
-0.00115455
6.41259e-06
-0.00116033
5.77824e-06
-0.00116549
5.16739e-06
-0.00117007
4.5718e-06
-0.00117405
3.9873e-06
-0.00117746
3.41006e-06
-0.0011803
2.83636e-06
-0.00118256
2.26604e-06
-0.00118427
1.70006e-06
-0.0011854
1.13724e-06
-0.00118598
5.77196e-07
-0.00118601
3.31314e-08
-0.0011855
-5.0989e-07
-0.00118444
-1.06245e-06
-0.00118283
-1.61436e-06
-0.00118067
-2.15875e-06
-0.00117796
-2.70643e-06
-0.0011747
-3.26088e-06
-0.00117091
-3.79285e-06
-0.00116659
-4.31263e-06
-0.0011618
-4.79752e-06
-0.00115658
-5.21527e-06
-0.00115104
-5.54191e-06
-0.00114526
-5.77701e-06
-0.00113932
-5.94481e-06
-0.00113324
-6.08196e-06
-0.00112702
-6.21951e-06
-0.00112064
-6.37511e-06
-0.00111409
-6.55425e-06
-0.00110733
-6.75708e-06
-0.00110035
-6.98182e-06
-0.00109312
-7.22534e-06
-0.00108564
-7.48289e-06
-0.00107789
-7.7492e-06
-0.00106987
-8.0186e-06
-0.00106159
-8.28632e-06
-0.00105304
-8.54865e-06
-0.00104423
-8.80302e-06
-0.00103519
-9.0477e-06
-0.0010259
-9.2815e-06
-0.0010164
-9.50367e-06
-0.00100669
-9.71377e-06
-0.000996776
-9.91106e-06
-0.000986682
-1.00947e-05
-0.000976418
-1.02637e-05
-0.000966
-1.04177e-05
-0.000955445
-1.05558e-05
-0.000944767
-1.06775e-05
-0.000933985
-1.07821e-05
-0.000923116
-1.08691e-05
-0.000912178
-1.0938e-05
-0.000901189
-1.09889e-05
-0.000890167
-1.10216e-05
-0.000879131
-1.10361e-05
-0.000868099
-1.10325e-05
-0.000857088
-1.1011e-05
-0.000846115
-1.09724e-05
-0.000835198
-1.09177e-05
-0.00082435
-1.08477e-05
-0.000813587
-1.07631e-05
-0.000802922
-1.06644e-05
-0.00079237
-1.05527e-05
-0.000781941
-1.04286e-05
-0.000771649
-1.02926e-05
-0.000761504
-1.0145e-05
-0.000751518
-9.98577e-06
-0.000741703
-9.81495e-06
-0.000732072
-9.63115e-06
-0.000722633
-9.43902e-06
-0.000713396
-9.23614e-06
-0.000704373
-9.02342e-06
-0.000695572
-8.80062e-06
-0.000687004
-8.56852e-06
-0.000678676
-8.32767e-06
-0.000670598
-8.07842e-06
-0.000662776
-7.82137e-06
-0.000655219
-7.557e-06
-0.000647934
-7.28581e-06
-0.000640925
-7.00828e-06
-0.000634201
-6.72479e-06
-0.000627765
-6.43556e-06
-0.000621624
-6.14076e-06
-0.000615784
-5.84049e-06
-0.000610249
-5.53491e-06
-0.000605025
-5.22424e-06
-0.000600116
-4.90881e-06
-0.000595527
-4.58908e-06
-0.000591261
-4.26556e-06
-0.000587322
-3.93872e-06
-0.000583713
-3.60896e-06
-0.000580437
-3.27661e-06
-0.000577495
-2.94199e-06
-0.000574889
-2.60542e-06
-0.000572622
-2.26721e-06
-0.000570695
-1.92769e-06
-0.000569107
-1.58721e-06
-0.000567861
-1.24611e-06
-0.000566957
-9.04515e-07
-0.000566394
-5.62737e-07
-0.000566172
-2.2247e-07
-0.000566281
1.09196e-07
-0.000566727
4.46072e-07
-0.000567501
7.73804e-07
-0.000568587
1.08605e-06
-0.000569959
1.37271e-06
-0.00057158
1.62088e-06
-0.000573397
1.81661e-06
-0.000575352
1.95519e-06
-0.000577399
2.04715e-06
-0.000579515
2.11605e-06
-0.000581709
2.19341e-06
-0.000584014
2.30581e-06
-0.000586484
2.4695e-06
-0.000589174
2.69032e-06
-0.000592138
2.96414e-06
-0.000595423
3.28503e-06
-0.00059907
3.64702e-06
-0.000603108
4.03746e-06
-0.000607567
4.45921e-06
-0.000612473
4.9063e-06
-0.000617848
5.37425e-06
-0.000623707
5.85903e-06
-0.000630061
6.35464e-06
-0.000636919
6.85792e-06
-0.000644284
7.36429e-06
-0.000652152
7.86859e-06
-0.000660519
8.36684e-06
-0.000669373
8.85376e-06
-0.000678691
9.31829e-06
-0.000688432
9.74096e-06
-0.000698523
1.00914e-05
-0.000708856
1.0333e-05
-0.000719286
1.04296e-05
-0.000729643
1.03566e-05
-0.00073976
1.01172e-05
-0.000749517
9.75752e-06
-0.00075887
9.3525e-06
-0.000767866
8.9959e-06
-0.000776637
8.77078e-06
-0.000785367
8.73058e-06
-0.000794257
8.89001e-06
-0.000803486
9.22867e-06
-0.000813183
9.69754e-06
-0.000823415
1.02314e-05
-0.000834188
1.07735e-05
-0.00084547
1.12822e-05
-0.000857206
1.17355e-05
-0.000869335
1.21286e-05
-0.000881802
1.24671e-05
-0.000894562
1.27602e-05
-0.000907579
1.30171e-05
-0.00092082
1.32408e-05
-0.000934252
1.34327e-05
-0.000947844
1.35919e-05
-0.000961563
1.37186e-05
-0.000975372
1.38089e-05
-0.00098924
1.3868e-05
-0.00100314
1.38966e-05
-0.00101703
1.38963e-05
-0.0010309
1.38716e-05
-0.00104473
1.38252e-05
-0.00105849
1.37581e-05
-0.00107216
1.36724e-05
-0.00108573
1.35683e-05
-0.00109918
1.34486e-05
-0.00111249
1.33135e-05
-0.00112565
1.31632e-05
-0.00113865
1.29986e-05
-0.00115147
1.28198e-05
-0.0011641
1.26276e-05
-0.00117652
1.24219e-05
-0.00118873
1.22038e-05
-0.0012007
1.19728e-05
-0.00121243
1.17297e-05
-0.0012239
1.14751e-05
-0.00123511
1.12092e-05
-0.00124604
1.09314e-05
-0.00125669
1.0643e-05
-0.00126703
1.03439e-05
-0.00127706
1.00332e-05
-0.00128678
9.71355e-06
-0.00129616
9.38319e-06
-0.0013052
9.04373e-06
-0.0013139
8.69515e-06
-0.00132224
8.33802e-06
-0.00133021
7.97265e-06
-0.00133781
7.59942e-06
-0.00134503
7.21958e-06
-0.00135186
6.83209e-06
-0.0013583
6.43984e-06
-0.00136434
6.04147e-06
-0.00136998
5.63898e-06
-0.00137521
5.2331e-06
-0.00138004
4.82462e-06
-0.00138445
4.41483e-06
-0.00138846
4.00392e-06
-0.00139205
3.59485e-06
-0.00139524
3.18781e-06
-0.00139803
2.7854e-06
-0.00140042
2.39006e-06
-0.00140242
2.00439e-06
-0.00140405
1.63247e-06
-0.00140533
1.27495e-06
-0.00140627
9.39534e-07
-0.0014069
6.29575e-07
-0.00140725
3.50324e-07
-0.00140736
1.10147e-07
-0.00140729
-6.98858e-08
-0.00140709
-2.00914e-07
-0.00140682
-2.71116e-07
-0.00140655
-2.68264e-07
-0.00140637
-1.81904e-07
-0.00140637
3.08603e-09
-0.00140667
2.98587e-07
-0.00140735
6.84042e-07
-0.00140852
1.1662e-06
-0.00141025
1.7353e-06
-0.00141264
2.38304e-06
-0.00141574
3.10207e-06
-0.00141962
3.88583e-06
-0.00142435
4.72528e-06
-0.00142995
5.60284e-06
-0.00143644
6.4842e-06
-0.00144375
7.31136e-06
-0.00145175
8.00353e-06
-0.00146022
8.47108e-06
-0.00146886
8.64029e-06
-0.00147734
8.4779e-06
-0.00148534
7.99988e-06
-0.0014926
7.25867e-06
-0.00149885
6.24721e-06
-0.00150378
4.93538e-06
-0.00150702
3.23836e-06
-0.00150807
1.05022e-06
-0.0015066
-1.46775e-06
-0.00150255
-4.04941e-06
-0.00149606
-6.49336e-06
-0.00148748
-8.58116e-06
-0.00147728
-1.01971e-05
-0.00146596
-1.13261e-05
-0.00145391
-1.20496e-05
-0.00144139
-1.25128e-05
-0.00142852
-1.28696e-05
-0.00141528
-1.32382e-05
-0.0014016
-1.36877e-05
-0.00138735
-1.42459e-05
-0.00137244
-1.49157e-05
-0.00135675
-1.56842e-05
-0.00134022
-1.65264e-05
-0.00132281
-1.74125e-05
-0.00130449
-1.83188e-05
-0.00128526
-1.9229e-05
-0.00126513
-2.01364e-05
-0.00124409
-2.10412e-05
-0.00122214
-2.1946e-05
-0.00119929
-2.28502e-05
-0.00117554
-2.37506e-05
-0.00115089
-2.46487e-05
-0.00112535
-2.55413e-05
-0.00109892
-2.6426e-05
-0.00107163
-2.72987e-05
-0.00104347
-2.81568e-05
-0.00101447
-2.8998e-05
-0.000984647
-2.98238e-05
-0.000954016
-3.06308e-05
-0.000922596
-3.14203e-05
-0.000890406
-3.21897e-05
-0.000857471
-3.29353e-05
-0.000823817
-3.36538e-05
-0.000789468
-3.4349e-05
-0.000754449
-3.50194e-05
-0.000718784
-3.56646e-05
-0.000682501
-3.62833e-05
-0.00064563
-3.68712e-05
-0.000608201
-3.74292e-05
-0.000570242
-3.79589e-05
-0.000531783
-3.8459e-05
-0.000492855
-3.89279e-05
-0.000453489
-3.93655e-05
-0.000413719
-3.97702e-05
-0.000373578
-4.01414e-05
-0.000333098
-4.04797e-05
-0.000292318
-4.07802e-05
-0.000251288
-4.10297e-05
-0.000210068
-4.12202e-05
-0.000168642
-4.14255e-05
-0.000126903
-4.17396e-05
-8.32698e-05
-4.3633e-05
-3.70846e-05
-4.61852e-05
-3.70846e-05
-3.83127e-05
6.99791e-05
-6.26357e-05
4.23076e-05
-9.05824e-05
4.88381e-05
-0.00012138
5.46515e-05
-0.000152715
5.57928e-05
-0.000183779
5.53925e-05
-0.000214598
5.49875e-05
-0.000245246
5.47129e-05
-0.000275727
5.44614e-05
-0.000306018
5.41751e-05
-0.00033609
5.38461e-05
-0.000365922
5.34841e-05
-0.000395492
5.30895e-05
-0.000424781
5.26657e-05
-0.000453768
5.22123e-05
-0.000482433
5.17301e-05
-0.000510759
5.12205e-05
-0.000538725
5.06842e-05
-0.000566316
5.01242e-05
-0.000593514
4.95402e-05
-0.000620302
4.89333e-05
-0.000646665
4.8305e-05
-0.00067259
4.76582e-05
-0.000698057
4.69902e-05
-0.000723059
4.63063e-05
-0.00074758
4.56047e-05
-0.000771602
4.48857e-05
-0.000795117
4.41539e-05
-0.000818109
4.34048e-05
-0.00084057
4.26452e-05
-0.000862488
4.18754e-05
-0.00088385
4.10955e-05
-0.000904645
4.03041e-05
-0.000924858
3.95025e-05
-0.000944472
3.86927e-05
-0.000963471
3.78759e-05
-0.000981834
3.7054e-05
-0.000999537
3.62269e-05
-0.00101656
3.5396e-05
-0.00103289
3.45632e-05
-0.00104858
3.37293e-05
-0.00106367
3.28943e-05
-0.00107822
3.20604e-05
-0.00109225
3.12265e-05
-0.00110579
3.0389e-05
-0.00111885
2.95485e-05
-0.00113146
2.87041e-05
-0.00114362
2.78531e-05
-0.00115536
2.69965e-05
-0.00116667
2.61346e-05
-0.00117758
2.52625e-05
-0.00118811
2.43747e-05
-0.00119828
2.34607e-05
-0.00120819
2.25068e-05
-0.00121796
2.1505e-05
-0.00122769
2.04621e-05
-0.00123739
1.94012e-05
-0.00124703
1.8348e-05
-0.0012565
1.73182e-05
-0.00126572
1.63126e-05
-0.00127464
1.53271e-05
-0.00128321
1.43561e-05
-0.00129144
1.3397e-05
-0.00129932
1.24484e-05
-0.00130684
1.15069e-05
-0.001314
1.05729e-05
-0.00132081
9.64554e-06
-0.00132727
8.72411e-06
-0.00133338
7.80945e-06
-0.00133914
6.90142e-06
-0.00134457
6.00061e-06
-0.00134964
5.1083e-06
-0.00135437
4.22057e-06
-0.00135877
3.3367e-06
-0.00136285
2.45992e-06
-0.00136659
1.58988e-06
-0.00137002
7.20029e-07
-0.00137304
-2.39784e-07
-0.00137578
-1.05568e-06
-0.00137819
-1.90079e-06
-0.00138024
-2.74733e-06
-0.00138189
-3.56616e-06
-0.00138308
-4.35015e-06
-0.00138377
-5.08851e-06
-0.00138393
-5.78235e-06
-0.00138357
-6.44024e-06
-0.00138272
-7.07187e-06
-0.00138141
-7.68588e-06
-0.00137968
-8.28837e-06
-0.00137755
-8.88337e-06
-0.00137506
-9.47127e-06
-0.00137223
-1.00537e-05
-0.00136909
-1.06305e-05
-0.00136563
-1.12005e-05
-0.00136189
-1.17617e-05
-0.00135786
-1.23127e-05
-0.00135356
-1.2852e-05
-0.00134899
-1.3378e-05
-0.00134414
-1.389e-05
-0.00133904
-1.43874e-05
-0.00133367
-1.48695e-05
-0.00132805
-1.53352e-05
-0.00132218
-1.57842e-05
-0.00131606
-1.62162e-05
-0.00130969
-1.66306e-05
-0.00130308
-1.70271e-05
-0.00129623
-1.74051e-05
-0.00128914
-1.77642e-05
-0.00128182
-1.8104e-05
-0.00127427
-1.84237e-05
-0.00126648
-1.8724e-05
-0.00125847
-1.9004e-05
-0.00125022
-1.92636e-05
-0.00124176
-1.95026e-05
-0.00123307
-1.97216e-05
-0.00122416
-1.99204e-05
-0.00121503
-2.00997e-05
-0.00120569
-2.02585e-05
-0.00119614
-2.0397e-05
-0.00118639
-2.05157e-05
-0.00117644
-2.06156e-05
-0.00116629
-2.06966e-05
-0.00115596
-2.07587e-05
-0.00114545
-2.08021e-05
-0.00113477
-2.08273e-05
-0.00112392
-2.08344e-05
-0.00111292
-2.08234e-05
-0.00110175
-2.07949e-05
-0.00109044
-2.07495e-05
-0.00107899
-2.0689e-05
-0.0010674
-2.0611e-05
-0.00105569
-2.05121e-05
-0.00104386
-2.03954e-05
-0.00103193
-2.02615e-05
-0.0010199
-2.01105e-05
-0.00100778
-1.99425e-05
-0.000995575
-1.97577e-05
-0.000983304
-1.95564e-05
-0.000970974
-1.93386e-05
-0.000958594
-1.91045e-05
-0.000946175
-1.88543e-05
-0.000933728
-1.85879e-05
-0.000921263
-1.83054e-05
-0.000908791
-1.80069e-05
-0.000896323
-1.76925e-05
-0.00088387
-1.73621e-05
-0.000871443
-1.70158e-05
-0.000859055
-1.66537e-05
-0.000846718
-1.62757e-05
-0.000834445
-1.5882e-05
-0.000822249
-1.54726e-05
-0.000810143
-1.50477e-05
-0.000798141
-1.46072e-05
-0.000786257
-1.41512e-05
-0.000774505
-1.36797e-05
-0.0007629
-1.31926e-05
-0.000751456
-1.269e-05
-0.000740189
-1.21718e-05
-0.000729114
-1.1638e-05
-0.000718247
-1.10887e-05
-0.000707614
-1.05236e-05
-0.000697227
-9.94091e-06
-0.000687112
-9.34201e-06
-0.000677298
-8.72739e-06
-0.000667828
-8.09732e-06
-0.000658755
-7.45213e-06
-0.000650146
-6.79239e-06
-0.000642072
-6.11861e-06
-0.000634594
-5.43114e-06
-0.000627748
-4.72998e-06
-0.00062154
-4.01479e-06
-0.000615949
-3.28514e-06
-0.000610939
-2.54068e-06
-0.000606467
-1.78134e-06
-0.000602496
-1.00715e-06
-0.000598996
-2.14405e-07
-0.000595946
5.97053e-07
-0.000593308
1.399e-06
-0.000591069
2.22002e-06
-0.000589216
3.05377e-06
-0.000587737
3.89532e-06
-0.000586623
4.7448e-06
-0.000585859
5.59068e-06
-0.000585441
6.44011e-06
-0.00058536
7.28332e-06
-0.000585606
8.1142e-06
-0.000586171
8.93149e-06
-0.000587043
9.72639e-06
-0.000588214
1.04886e-05
-0.000589686
1.12137e-05
-0.000591481
1.18863e-05
-0.000593652
1.25041e-05
-0.000596282
1.30596e-05
-0.000599495
1.3569e-05
-0.000603432
1.40544e-05
-0.000608211
1.45372e-05
-0.000613908
1.50493e-05
-0.000620525
1.56122e-05
-0.000627992
1.62386e-05
-0.000636184
1.69225e-05
-0.000644948
1.76534e-05
-0.000654125
1.84064e-05
-0.000663596
1.91681e-05
-0.000673271
1.99066e-05
-0.000683106
2.06081e-05
-0.000693094
2.127e-05
-0.000703245
2.18873e-05
-0.00071358
2.24637e-05
-0.000724113
2.30001e-05
-0.000734858
2.35044e-05
-0.000745819
2.39786e-05
-0.000757004
2.44256e-05
-0.000768412
2.48409e-05
-0.000780051
2.52306e-05
-0.000791927
2.55942e-05
-0.000804044
2.59266e-05
-0.00081641
2.62339e-05
-0.000829027
2.65139e-05
-0.000841897
2.67661e-05
-0.00085502
2.69942e-05
-0.000868391
2.71961e-05
-0.000882005
2.73724e-05
-0.000895854
2.75218e-05
-0.000909932
2.76456e-05
-0.000924224
2.77405e-05
-0.000938717
2.78067e-05
-0.000953399
2.78459e-05
-0.000968256
2.78552e-05
-0.000983272
2.78362e-05
-0.000998432
2.77874e-05
-0.00101372
2.7708e-05
-0.00102911
2.75981e-05
-0.0010446
2.74571e-05
-0.00106015
2.72844e-05
-0.00107576
2.70801e-05
-0.00109139
2.68428e-05
-0.00110703
2.65735e-05
-0.00112266
2.62705e-05
-0.00113825
2.59334e-05
-0.00115378
2.55625e-05
-0.00116922
2.51567e-05
-0.00118456
2.4717e-05
-0.00119975
2.42412e-05
-0.00121479
2.37311e-05
-0.00122964
2.31852e-05
-0.00124427
2.26034e-05
-0.00125865
2.1986e-05
-0.00127277
2.13332e-05
-0.00128658
2.06446e-05
-0.00130006
1.99205e-05
-0.00131318
1.91606e-05
-0.00132591
1.83673e-05
-0.00133821
1.75393e-05
-0.00135007
1.66775e-05
-0.00136143
1.57822e-05
-0.00137229
1.48559e-05
-0.00138259
1.38997e-05
-0.00139232
1.29131e-05
-0.00140143
1.18988e-05
-0.0014099
1.08576e-05
-0.00141769
9.79322e-06
-0.00142476
8.70863e-06
-0.00143109
7.60355e-06
-0.00143664
6.48421e-06
-0.00144136
5.35187e-06
-0.00144522
4.21607e-06
-0.00144819
3.08044e-06
-0.00145022
1.95209e-06
-0.00145126
8.44384e-07
-0.00145126
-2.69742e-07
-0.0014502
-1.3352e-06
-0.00144804
-2.34154e-06
-0.00144475
-3.28442e-06
-0.0014403
-4.14932e-06
-0.00143469
-4.92925e-06
-0.00142791
-5.61366e-06
-0.00141998
-6.19565e-06
-0.00141092
-6.67332e-06
-0.00140077
-7.05012e-06
-0.00138955
-7.33498e-06
-0.00137728
-7.54367e-06
-0.00136397
-7.70127e-06
-0.00134965
-7.84454e-06
-0.00133431
-8.02257e-06
-0.00131801
-8.29377e-06
-0.00130082
-8.71903e-06
-0.00128283
-9.3528e-06
-0.00126412
-1.02355e-05
-0.00124472
-1.13952e-05
-0.00122467
-1.27936e-05
-0.00120402
-1.44054e-05
-0.00118285
-1.62291e-05
-0.00116138
-1.8239e-05
-0.00113995
-2.03721e-05
-0.00111888
-2.25436e-05
-0.00109824
-2.46852e-05
-0.00107803
-2.67055e-05
-0.00105811
-2.84956e-05
-0.00103831
-2.99978e-05
-0.00101842
-3.12161e-05
-0.000998271
-3.22031e-05
-0.000977739
-3.30444e-05
-0.000956782
-3.38264e-05
-0.000935408
-3.46129e-05
-0.000913643
-3.54522e-05
-0.000891522
-3.63672e-05
-0.000869099
-3.73385e-05
-0.000846422
-3.83611e-05
-0.00082353
-3.94184e-05
-0.000800455
-4.04874e-05
-0.000777227
-4.15476e-05
-0.000753871
-4.25849e-05
-0.000730417
-4.35902e-05
-0.000706895
-4.45625e-05
-0.000683339
-4.55029e-05
-0.000659775
-4.64133e-05
-0.000636231
-4.72953e-05
-0.000612736
-4.81437e-05
-0.00058932
-4.89575e-05
-0.000566012
-4.97336e-05
-0.000542842
-5.04685e-05
-0.00051984
-5.11588e-05
-0.00049703
-5.18083e-05
-0.000474447
-5.24067e-05
-0.000452116
-5.29623e-05
-0.000430064
-5.34714e-05
-0.000408324
-5.393e-05
-0.000386927
-5.43326e-05
-0.000365884
-5.46964e-05
-0.000345206
-5.5027e-05
-0.0003249
-5.5325e-05
-0.000304975
-5.55898e-05
-0.000285439
-5.58196e-05
-0.00026629
-5.60203e-05
-0.000247527
-5.61916e-05
-0.000229147
-5.63389e-05
-0.000211145
-5.64612e-05
-0.000193516
-5.65568e-05
-0.000176244
-5.66377e-05
-0.000159306
-5.67088e-05
-0.000142682
-5.67646e-05
-0.000126351
-5.68116e-05
-0.000110272
-5.68588e-05
-9.4389e-05
-5.69128e-05
-7.86574e-05
-5.69517e-05
-6.32e-05
-5.68829e-05
-4.81572e-05
-5.67824e-05
-3.23985e-05
-5.93916e-05
-1.29087e-05
-6.56749e-05
-4.99933e-05
-3.6586e-05
0.000106565
-5.85932e-05
6.43148e-05
-8.38983e-05
7.41431e-05
-0.000112397
8.31504e-05
-0.000141616
8.50114e-05
-0.00017061
8.43869e-05
-0.000199344
8.37217e-05
-0.000227911
8.32792e-05
-0.000256329
8.28799e-05
-0.000284587
8.24332e-05
-0.000312664
8.19228e-05
-0.000340538
8.13582e-05
-0.000368192
8.07437e-05
-0.000395609
8.00828e-05
-0.000422772
7.93751e-05
-0.000449667
7.86244e-05
-0.000476276
7.78296e-05
-0.000502586
7.69945e-05
-0.000528582
7.61206e-05
-0.000554249
7.52069e-05
-0.000579576
7.42598e-05
-0.000604548
7.32776e-05
-0.000629154
7.22643e-05
-0.000653386
7.12222e-05
-0.00067723
7.01499e-05
-0.000700676
6.90509e-05
-0.00072372
6.79292e-05
-0.00074635
6.67846e-05
-0.000768565
6.56198e-05
-0.000790358
6.4438e-05
-0.000811718
6.32359e-05
-0.000832639
6.20166e-05
-0.000853116
6.07805e-05
-0.000873144
5.95307e-05
-0.000892719
5.82679e-05
-0.000911835
5.69912e-05
-0.000930482
5.57009e-05
-0.000948651
5.43959e-05
-0.000966334
5.30794e-05
-0.000983529
5.17586e-05
-0.00100024
5.0441e-05
-0.00101648
4.91299e-05
-0.00103224
4.78198e-05
-0.00104751
4.65038e-05
-0.0010623
4.51798e-05
-0.0010766
4.38492e-05
-0.00109041
4.25131e-05
-0.00110373
4.11705e-05
-0.00111656
3.98219e-05
-0.00112889
3.8469e-05
-0.00114074
3.71119e-05
-0.00115212
3.5754e-05
-0.00116306
3.44053e-05
-0.00117364
3.30781e-05
-0.00118391
3.17769e-05
-0.00119393
3.04887e-05
-0.00120372
2.91873e-05
-0.00121322
2.78517e-05
-0.00122239
2.64813e-05
-0.00123116
2.50896e-05
-0.00123953
2.36915e-05
-0.00124747
2.22978e-05
-0.00125499
2.09122e-05
-0.00126207
1.95334e-05
-0.00126873
1.81652e-05
-0.00127496
1.68072e-05
-0.00128078
1.54586e-05
-0.00128617
1.41194e-05
-0.00129115
1.27893e-05
-0.00129572
1.14684e-05
-0.00129988
1.01577e-05
-0.00130362
8.85639e-06
-0.00130697
7.56285e-06
-0.00130991
6.27652e-06
-0.00131244
4.99711e-06
-0.00131457
3.72189e-06
-0.0013163
2.44769e-06
-0.00131772
1.17805e-06
-0.00131878
6.19954e-09
-0.00131949
-1.18842e-06
-0.00131979
-2.45564e-06
-0.00131966
-3.69464e-06
-0.00131909
-4.91344e-06
-0.00131807
-6.10874e-06
-0.00131659
-7.26429e-06
-0.00131466
-8.37633e-06
-0.00131228
-9.44903e-06
-0.00130948
-1.04869e-05
-0.00130627
-1.14944e-05
-0.00130268
-1.24751e-05
-0.00129872
-1.34325e-05
-0.0012944
-1.4369e-05
-0.00128975
-1.52854e-05
-0.00128477
-1.61831e-05
-0.00127947
-1.70615e-05
-0.00127386
-1.79201e-05
-0.00126795
-1.87581e-05
-0.00126175
-1.95769e-05
-0.00125527
-2.03741e-05
-0.00124851
-2.11474e-05
-0.00124148
-2.18971e-05
-0.00123419
-2.26234e-05
-0.00122665
-2.33254e-05
-0.00121886
-2.40043e-05
-0.00121084
-2.46568e-05
-0.00120258
-2.52832e-05
-0.0011941
-2.58836e-05
-0.00118541
-2.64592e-05
-0.00117651
-2.7008e-05
-0.0011674
-2.75312e-05
-0.0011581
-2.80265e-05
-0.0011486
-2.84942e-05
-0.00113893
-2.89343e-05
-0.00112909
-2.93467e-05
-0.00111908
-2.97306e-05
-0.00110892
-3.00856e-05
-0.0010986
-3.04111e-05
-0.00108816
-3.07074e-05
-0.00107758
-3.09767e-05
-0.00106687
-3.12168e-05
-0.00105606
-3.14266e-05
-0.00104515
-3.16073e-05
-0.00103415
-3.17586e-05
-0.00102307
-3.18805e-05
-0.00101193
-3.19727e-05
-0.00100073
-3.20359e-05
-0.000989481
-3.20701e-05
-0.000978201
-3.20754e-05
-0.000966899
-3.20509e-05
-0.000955591
-3.19973e-05
-0.000944289
-3.19128e-05
-0.000933005
-3.17965e-05
-0.000921745
-3.16548e-05
-0.000910521
-3.14859e-05
-0.000899343
-3.12886e-05
-0.000888222
-3.10629e-05
-0.000877171
-3.08087e-05
-0.000866202
-3.05259e-05
-0.000855325
-3.0215e-05
-0.000844554
-2.9876e-05
-0.000833899
-2.95091e-05
-0.000823372
-2.91144e-05
-0.000812986
-2.86922e-05
-0.00080275
-2.82427e-05
-0.000792676
-2.77659e-05
-0.000782777
-2.7262e-05
-0.000773061
-2.67313e-05
-0.000763541
-2.61741e-05
-0.000754226
-2.55908e-05
-0.000745126
-2.49816e-05
-0.000736252
-2.43468e-05
-0.000727613
-2.36869e-05
-0.000719218
-2.30021e-05
-0.000711076
-2.22927e-05
-0.000703197
-2.15592e-05
-0.000695587
-2.0802e-05
-0.000688256
-2.00215e-05
-0.000681209
-1.92185e-05
-0.000674453
-1.83937e-05
-0.000667994
-1.75477e-05
-0.000661837
-1.6681e-05
-0.000655984
-1.57941e-05
-0.000650439
-1.48873e-05
-0.000645205
-1.39607e-05
-0.00064029
-1.30129e-05
-0.0006357
-1.20415e-05
-0.000631448
-1.10445e-05
-0.000627545
-1.00214e-05
-0.000624002
-8.97483e-06
-0.000620822
-7.90967e-06
-0.000618006
-6.83127e-06
-0.000615547
-5.74345e-06
-0.00061344
-4.64752e-06
-0.000611679
-3.54259e-06
-0.00061026
-2.42673e-06
-0.000609175
-1.29881e-06
-0.000608405
-1.7277e-07
-0.00060796
9.53974e-07
-0.000607863
2.12303e-06
-0.000608108
3.29829e-06
-0.000608685
4.47265e-06
-0.000609592
5.65154e-06
-0.000610828
6.82669e-06
-0.000612394
8.00597e-06
-0.000614296
9.18539e-06
-0.000616533
1.03514e-05
-0.000619104
1.15022e-05
-0.000622008
1.26307e-05
-0.000625261
1.37414e-05
-0.000628862
1.48152e-05
-0.000632831
1.58548e-05
-0.000637184
1.68574e-05
-0.000641971
1.78464e-05
-0.000647226
1.88242e-05
-0.000652999
1.98268e-05
-0.000659315
2.0854e-05
-0.000666199
2.19332e-05
-0.000673644
2.30572e-05
-0.000681608
2.42023e-05
-0.000690052
2.53667e-05
-0.000698906
2.6507e-05
-0.000708109
2.76096e-05
-0.0007176
2.86588e-05
-0.000727349
2.96553e-05
-0.000737336
3.05952e-05
-0.000747559
3.14933e-05
-0.000758027
3.23555e-05
-0.000768749
3.31853e-05
-0.000779735
3.39867e-05
-0.000790989
3.47577e-05
-0.000802508
3.54977e-05
-0.000814287
3.6205e-05
-0.000826324
3.6878e-05
-0.000838616
3.75222e-05
-0.000851155
3.81336e-05
-0.000863938
3.87096e-05
-0.000876955
3.92501e-05
-0.000890203
3.97619e-05
-0.000903677
4.02402e-05
-0.00091736
4.06771e-05
-0.000931247
4.10839e-05
-0.000945323
4.14478e-05
-0.000959579
4.17781e-05
-0.000973999
4.20653e-05
-0.00098857
4.23118e-05
-0.00100328
4.25183e-05
-0.00101812
4.26826e-05
-0.00103307
4.28035e-05
-0.00104811
4.28797e-05
-0.00106323
4.29077e-05
-0.00107842
4.2893e-05
-0.00109364
4.28272e-05
-0.0011089
4.27151e-05
-0.00112417
4.25534e-05
-0.00113943
4.23406e-05
-0.00115467
4.20762e-05
-0.00116985
4.17581e-05
-0.00118497
4.13878e-05
-0.0012
4.0964e-05
-0.00121492
4.04839e-05
-0.00122971
3.99467e-05
-0.00124435
3.93536e-05
-0.00125881
3.87042e-05
-0.00127307
3.79942e-05
-0.00128711
3.7228e-05
-0.00130091
3.64018e-05
-0.00131444
3.55162e-05
-0.00132768
3.45697e-05
-0.0013406
3.35665e-05
-0.00135318
3.25014e-05
-0.0013654
3.13784e-05
-0.00137723
3.01968e-05
-0.00138865
2.89572e-05
-0.00139963
2.76624e-05
-0.00141016
2.63093e-05
-0.00142021
2.49048e-05
-0.00142975
2.34441e-05
-0.00143878
2.19358e-05
-0.00144725
2.03774e-05
-0.00145517
1.87707e-05
-0.0014625
1.71218e-05
-0.00146922
1.54324e-05
-0.00147532
1.37051e-05
-0.00148078
1.19445e-05
-0.00148559
1.01562e-05
-0.00148971
8.3415e-06
-0.00149314
6.50697e-06
-0.00149584
4.65816e-06
-0.0014978
2.79867e-06
-0.00149899
9.24375e-07
-0.00149943
-8.94391e-07
-0.00149905
-2.72908e-06
-0.00149779
-4.5369e-06
-0.00149564
-6.30319e-06
-0.00149255
-8.01906e-06
-0.00148849
-9.67611e-06
-0.00148341
-1.12683e-05
-0.00147729
-1.27935e-05
-0.00147009
-1.42545e-05
-0.00146177
-1.56575e-05
-0.0014523
-1.7014e-05
-0.00144166
-1.83402e-05
-0.00142985
-1.9657e-05
-0.00141688
-2.09883e-05
-0.00140282
-2.23582e-05
-0.00138775
-2.3787e-05
-0.0013718
-2.52993e-05
-0.00135512
-2.69136e-05
-0.00133788
-2.86406e-05
-0.00132019
-3.04859e-05
-0.00130213
-3.24585e-05
-0.0012838
-3.4561e-05
-0.00126527
-3.67704e-05
-0.00124661
-3.90331e-05
-0.00122786
-4.12897e-05
-0.00120906
-4.34844e-05
-0.00119023
-4.55346e-05
-0.00117137
-4.73569e-05
-0.00115244
-4.89253e-05
-0.00113338
-5.02765e-05
-0.00111409
-5.14933e-05
-0.00109446
-5.2682e-05
-0.00107436
-5.39269e-05
-0.0010537
-5.52655e-05
-0.00103246
-5.66915e-05
-0.00101067
-5.81637e-05
-0.000988369
-5.96371e-05
-0.000965647
-6.10826e-05
-0.000942579
-6.24867e-05
-0.000919219
-6.38473e-05
-0.000895603
-6.51633e-05
-0.00087175
-6.64382e-05
-0.000847672
-6.76679e-05
-0.000823386
-6.88484e-05
-0.00079891
-6.99792e-05
-0.000774267
-7.10567e-05
-0.000749483
-7.20787e-05
-0.000724588
-7.30386e-05
-0.000699606
-7.39396e-05
-0.000674563
-7.47764e-05
-0.000649489
-7.55427e-05
-0.000624406
-7.62422e-05
-0.000599344
-7.687e-05
-0.000574327
-7.74237e-05
-0.000549387
-7.79022e-05
-0.000524554
-7.83047e-05
-0.000499845
-7.86385e-05
-0.000475276
-7.89018e-05
-0.000450874
-7.9099e-05
-0.000426675
-7.92257e-05
-0.000402708
-7.92914e-05
-0.000379001
-7.92973e-05
-0.000355572
-7.92485e-05
-0.000332447
-7.91453e-05
-0.000309639
-7.89995e-05
-0.000287162
-7.8816e-05
-0.000265023
-7.86e-05
-0.000243221
-7.83589e-05
-0.000221759
-7.80994e-05
-0.000200636
-7.78328e-05
-0.000179835
-7.7565e-05
-0.000159342
-7.7305e-05
-0.00013913
-7.70708e-05
-0.000119177
-7.68655e-05
-9.95309e-05
-7.65978e-05
-8.03675e-05
-7.60464e-05
-6.11837e-05
-7.59662e-05
-3.9983e-05
-8.05923e-05
-1.48999e-05
-9.07581e-05
-6.48932e-05
-3.58286e-05
0.000142394
-5.71763e-05
8.56626e-05
-8.15918e-05
9.85586e-05
-0.000109209
0.000110768
-0.000137554
0.000113356
-0.00016571
0.000112543
-0.000193623
0.000111635
-0.000221384
0.00011104
-0.000249017
0.000110513
-0.000276506
0.000109923
-0.000303832
0.000109248
-0.000330973
0.000108499
-0.000357916
0.000107686
-0.000384643
0.00010681
-0.000411141
0.000105872
-0.000437395
0.000104879
-0.00046339
0.000103824
-0.000489112
0.000102716
-0.000514544
0.000101553
-0.000539682
0.000100345
-0.000564508
9.90865e-05
-0.000589013
9.77826e-05
-0.000613188
9.64386e-05
-0.000637019
9.50532e-05
-0.000660498
9.36295e-05
-0.000683618
9.21707e-05
-0.000706367
9.06783e-05
-0.000728737
8.91544e-05
-0.000750717
8.76002e-05
-0.000772304
8.60247e-05
-0.000793489
8.44212e-05
-0.000814268
8.27948e-05
-0.000834637
8.11499e-05
-0.000854591
7.94848e-05
-0.000874126
7.78033e-05
-0.000893242
7.61063e-05
-0.000911936
7.43957e-05
-0.000930214
7.26732e-05
-0.000948076
7.09414e-05
-0.000965518
6.92013e-05
-0.000982531
6.74533e-05
-0.000999098
6.56974e-05
-0.00101521
6.39313e-05
-0.00103086
6.21544e-05
-0.00104605
6.03701e-05
-0.00106078
5.85792e-05
-0.00107505
5.67822e-05
-0.00108886
5.4981e-05
-0.00110221
5.31759e-05
-0.00111511
5.13667e-05
-0.00112756
4.95565e-05
-0.00113955
4.7747e-05
-0.00115109
4.59415e-05
-0.00116215
4.41446e-05
-0.00117273
4.2356e-05
-0.00118281
4.057e-05
-0.0011924
3.87783e-05
-0.00120153
3.6974e-05
-0.0012102
3.5153e-05
-0.00121843
3.33213e-05
-0.00122622
3.14869e-05
-0.00123358
2.96535e-05
-0.00124049
2.78254e-05
-0.00124696
2.60043e-05
-0.00125299
2.41902e-05
-0.00125857
2.23853e-05
-0.0012637
2.05893e-05
-0.00126838
1.88036e-05
-0.00127262
1.70279e-05
-0.00127642
1.52639e-05
-0.00127977
1.3512e-05
-0.00128269
1.17715e-05
-0.00128517
1.00435e-05
-0.00128722
8.32823e-06
-0.00128885
6.62627e-06
-0.00129007
4.94038e-06
-0.00129089
3.27336e-06
-0.00129134
1.62743e-06
-0.0012913
-3.90553e-08
-0.00129078
-1.70589e-06
-0.00128993
-3.30202e-06
-0.00128872
-4.90502e-06
-0.00128715
-6.4833e-06
-0.00128522
-8.03897e-06
-0.00128294
-9.5467e-06
-0.00128028
-1.10324e-05
-0.00127725
-1.2479e-05
-0.00127385
-1.3885e-05
-0.00127009
-1.52573e-05
-0.00126597
-1.6598e-05
-0.0012615
-1.79035e-05
-0.00125669
-1.91816e-05
-0.00125154
-2.04319e-05
-0.00124607
-2.16525e-05
-0.00124029
-2.28451e-05
-0.0012342
-2.4005e-05
-0.00122782
-2.51378e-05
-0.00122116
-2.62382e-05
-0.00121423
-2.73083e-05
-0.00120702
-2.83495e-05
-0.00119957
-2.93554e-05
-0.00119186
-3.0328e-05
-0.00118392
-3.1266e-05
-0.00117575
-3.21722e-05
-0.00116737
-3.30437e-05
-0.00115877
-3.38798e-05
-0.00114997
-3.46807e-05
-0.00114099
-3.5445e-05
-0.00113182
-3.61739e-05
-0.00112249
-3.68663e-05
-0.00111299
-3.75206e-05
-0.00110335
-3.814e-05
-0.00109356
-3.87202e-05
-0.00108364
-3.92621e-05
-0.00107361
-3.97659e-05
-0.00106346
-4.0233e-05
-0.00105321
-4.06616e-05
-0.00104287
-4.10509e-05
-0.00103244
-4.13994e-05
-0.00102195
-4.17085e-05
-0.0010114
-4.19808e-05
-0.00100079
-4.22121e-05
-0.000990147
-4.24055e-05
-0.000979469
-4.25588e-05
-0.000968767
-4.26745e-05
-0.000958053
-4.27501e-05
-0.000947336