/*--------------------------------*- C++ -*----------------------------------*\
| =========                 |                                                 |
| \\      /  F ield         | OpenFOAM: The Open Source CFD Toolbox           |
|  \\    /   O peration     | Version:  v2006                                 |
|   \\  /    A nd           | Website:  www.openfoam.com                      |
|    \\/     M anipulation  |                                                 |
\*---------------------------------------------------------------------------*/
FoamFile
{
    version     2.0;
    format      ascii;
    class       volVectorField;
    location    "0";
    object      U;
}
// * * * * * * * * * * * * * * * * * * * * * * * * * * * * * * * * * * * * * //

dimensions      [0 1 -1 0 0 0 0];


internalField   nonuniform List<vector> 
20000
(
(1 2.33322e-12 0)
(1 6.92741e-12 0)
(1 1.2068e-11 0)
(1 1.80286e-11 0)
(1 2.4871e-11 0)
(1 3.27391e-11 0)
(1 4.18623e-11 0)
(1 5.24676e-11 0)
(1 6.47752e-11 0)
(1 7.90507e-11 0)
(1 9.56245e-11 0)
(1 1.1484e-10 0)
(1 1.36992e-10 0)
(1 1.62264e-10 0)
(1 1.90707e-10 0)
(1 2.22229e-10 0)
(1 2.56604e-10 0)
(1 2.93461e-10 0)
(1 3.32272e-10 0)
(1 3.72313e-10 0)
(1 4.12647e-10 0)
(1 4.52111e-10 0)
(1 4.89337e-10 0)
(1 5.22834e-10 0)
(1 5.51095e-10 0)
(1 5.72741e-10 0)
(1 5.86664e-10 0)
(1 5.92153e-10 0)
(1 5.88953e-10 0)
(1 5.77239e-10 0)
(1 5.57506e-10 0)
(1 5.30526e-10 0)
(1 4.97315e-10 0)
(1 4.58968e-10 0)
(1 4.16497e-10 0)
(1 3.70728e-10 0)
(1 3.22281e-10 0)
(1 2.71622e-10 0)
(1 2.19128e-10 0)
(1 1.65167e-10 0)
(1 1.10168e-10 0)
(1 5.46898e-11 0)
(1 -5.1171e-13 0)
(1 -5.44682e-11 0)
(1 -1.06058e-10 0)
(1 -1.53951e-10 0)
(1 -1.96394e-10 0)
(1 -2.31253e-10 0)
(1 -2.56015e-10 0)
(1 -2.68229e-10 0)
(1 -2.66366e-10 0)
(1 -2.50038e-10 0)
(1 -2.22707e-10 0)
(1 -2.00894e-10 0)
(1 -2.26208e-10 0)
(1 -3.22732e-10 0)
(1 -4.93237e-10 0)
(1 -7.40783e-10 0)
(1 -1.07346e-09 0)
(1 -1.50392e-09 0)
(1 -2.04921e-09 0)
(1 -2.73101e-09 0)
(1 -3.57633e-09 0)
(1 -4.61855e-09 0)
(1 -5.89839e-09 0)
(1 -7.46484e-09 0)
(1 -9.37619e-09 0)
(1 -1.17011e-08 0)
(1 -1.45198e-08 0)
(1 -1.79259e-08 0)
(1 -2.20291e-08 0)
(1 -2.69533e-08 0)
(1 -3.28223e-08 0)
(1 -3.97407e-08 0)
(1 -4.78246e-08 0)
(1 -5.73251e-08 0)
(1 -6.87012e-08 0)
(1 -8.22112e-08 0)
(1 -9.68311e-08 0)
(1 -1.10072e-07 0)
(1 -1.22111e-07 0)
(1.00001 -1.44135e-07 0)
(1.00001 -1.96169e-07 0)
(1.00001 -2.67193e-07 0)
(1.00001 -2.49303e-07 0)
(1.00001 7.06922e-09 0)
(1.00001 4.18553e-07 0)
(1.00001 8.03069e-07 0)
(1.00001 1.08333e-06 0)
(1.00001 1.26262e-06 0)
(1 1.37154e-06 0)
(1 1.43805e-06 0)
(1 1.48114e-06 0)
(0.999998 1.51379e-06 0)
(0.999995 1.54634e-06 0)
(0.999993 1.588e-06 0)
(0.99999 1.6461e-06 0)
(0.999987 1.72388e-06 0)
(0.999985 1.81764e-06 0)
(0.999982 1.91465e-06 0)
(0.999979 1.99372e-06 0)
(0.999977 2.02895e-06 0)
(0.999974 1.99591e-06 0)
(0.999971 1.87811e-06 0)
(0.999967 1.6717e-06 0)
(0.999964 1.38636e-06 0)
(0.999961 1.04054e-06 0)
(0.999957 6.55061e-07 0)
(0.999954 2.48836e-07 0)
(0.999951 -1.62333e-07 0)
(0.999948 -5.64517e-07 0)
(0.999945 -9.43571e-07 0)
(0.999943 -1.28411e-06 0)
(0.999941 -1.57003e-06 0)
(0.999939 -1.78606e-06 0)
(0.999937 -1.91949e-06 0)
(0.999936 -1.96133e-06 0)
(0.999935 -1.90815e-06 0)
(0.999935 -1.76556e-06 0)
(0.999934 -1.55564e-06 0)
(0.999934 -1.32478e-06 0)
(0.999935 -1.14932e-06 0)
(0.999936 -1.05045e-06 0)
(0.999939 -1.01884e-06 0)
(0.999942 -1.03063e-06 0)
(0.999947 -1.0478e-06 0)
(0.999953 -1.01779e-06 0)
(0.999959 -8.76285e-07 0)
(0.999967 -5.54975e-07 0)
(0.999974 6.19216e-09 0)
(0.999981 8.41082e-07 0)
(0.999986 1.92865e-06 0)
(0.999988 3.12264e-06 0)
(0.999989 4.08244e-06 0)
(0.999988 4.65097e-06 0)
(0.999985 4.89855e-06 0)
(0.999983 4.91691e-06 0)
(0.99998 4.75797e-06 0)
(0.999976 4.44436e-06 0)
(0.999973 3.98775e-06 0)
(0.999968 3.39984e-06 0)
(0.999964 2.69688e-06 0)
(0.999959 1.90107e-06 0)
(0.999955 1.04157e-06 0)
(0.99995 1.5398e-07 0)
(0.999945 -7.21796e-07 0)
(0.99994 -1.54436e-06 0)
(0.999936 -2.27418e-06 0)
(0.999932 -2.87689e-06 0)
(0.999929 -3.32616e-06 0)
(0.999926 -3.60627e-06 0)
(0.999923 -3.71373e-06 0)
(0.999921 -3.65678e-06 0)
(0.99992 -3.45329e-06 0)
(0.999918 -3.12928e-06 0)
(0.999918 -2.71834e-06 0)
(0.999917 -2.26808e-06 0)
(0.999917 -1.84152e-06 0)
(0.999918 -1.51358e-06 0)
(0.999919 -1.29025e-06 0)
(0.999921 -1.15206e-06 0)
(0.999924 -1.07247e-06 0)
(0.999928 -1.02166e-06 0)
(0.999932 -9.72081e-07 0)
(0.999937 -9.05375e-07 0)
(0.999942 -8.16964e-07 0)
(0.999946 -7.15456e-07 0)
(0.99995 -6.16503e-07 0)
(0.999954 -5.34169e-07 0)
(0.999957 -4.75089e-07 0)
(0.99996 -4.38292e-07 0)
(0.999962 -4.18483e-07 0)
(0.999965 -4.09185e-07 0)
(0.999968 -4.04512e-07 0)
(0.99997 -4e-07 0)
(0.999973 -3.92837e-07 0)
(0.999975 -3.81662e-07 0)
(0.999978 -3.66187e-07 0)
(0.99998 -3.46834e-07 0)
(0.999983 -3.24416e-07 0)
(0.999985 -2.99898e-07 0)
(0.999987 -2.74245e-07 0)
(0.999988 -2.48319e-07 0)
(0.99999 -2.22838e-07 0)
(0.999991 -1.98357e-07 0)
(0.999993 -1.75274e-07 0)
(0.999994 -1.53847e-07 0)
(0.999995 -1.34217e-07 0)
(0.999995 -1.16429e-07 0)
(0.999996 -1.00458e-07 0)
(0.999997 -8.62265e-08 0)
(0.999997 -7.36206e-08 0)
(0.999998 -6.25047e-08 0)
(0.999998 -5.27312e-08 0)
(0.999998 -4.4148e-08 0)
(0.999999 -3.65999e-08 0)
(0.999999 -2.996e-08 0)
(0.999999 -2.39657e-08 0)
(0.999999 -1.91144e-08 0)
(0.999999 -1.19904e-08 0)
(1 4.32532e-12 0)
(1 1.22708e-11 0)
(1 2.00853e-11 0)
(1 2.83228e-11 0)
(1 3.71033e-11 0)
(1 4.64582e-11 0)
(1 5.65208e-11 0)
(1 6.74979e-11 0)
(1 7.9616e-11 0)
(1 9.30733e-11 0)
(1 1.08021e-10 0)
(1 1.24566e-10 0)
(1 1.42807e-10 0)
(1 1.6284e-10 0)
(1 1.8473e-10 0)
(1 2.08471e-10 0)
(1 2.33952e-10 0)
(1 2.60946e-10 0)
(1 2.89137e-10 0)
(1 3.18147e-10 0)
(1 3.47577e-10 0)
(1 3.77019e-10 0)
(1 4.06063e-10 0)
(1 4.34308e-10 0)
(1 4.61396e-10 0)
(1 4.87059e-10 0)
(1 5.11176e-10 0)
(1 5.33823e-10 0)
(1 5.55293e-10 0)
(1 5.76073e-10 0)
(1 5.96792e-10 0)
(1 6.18205e-10 0)
(1 6.41082e-10 0)
(1 6.65993e-10 0)
(1 6.93272e-10 0)
(1 7.2301e-10 0)
(1 7.55083e-10 0)
(1 7.89184e-10 0)
(1 8.2483e-10 0)
(1 8.61356e-10 0)
(1 8.97892e-10 0)
(1 9.3335e-10 0)
(1 9.66374e-10 0)
(1 9.95246e-10 0)
(1 1.01778e-09 0)
(1 1.03135e-09 0)
(1 1.03296e-09 0)
(1 1.01908e-09 0)
(1 9.85513e-10 0)
(1 9.27184e-10 3.12536e-43)
(1 8.3788e-10 3.33142e-43)
(1 7.11382e-10 0)
(1 5.38159e-10 0)
(1 2.9858e-10 0)
(1 -4.8976e-11 0)
(1 -5.34625e-10 0)
(1 -1.17951e-09 0)
(1 -2.0126e-09 0)
(1 -3.07207e-09 0)
(1 -4.40515e-09 0)
(1 -6.06911e-09 0)
(1 -8.13304e-09 0)
(1 -1.06808e-08 0)
(1 -1.38143e-08 0)
(1 -1.76572e-08 0)
(1 -2.23571e-08 0)
(1 -2.80888e-08 0)
(1 -3.50588e-08 0)
(1 -4.35106e-08 0)
(1 -5.37275e-08 0)
(1 -6.60305e-08 0)
(1 -8.07721e-08 0)
(1 -9.83304e-08 0)
(1 -1.19112e-07 0)
(1 -1.43569e-07 0)
(1 -1.72216e-07 0)
(1 -2.05605e-07 0)
(1 -2.44133e-07 0)
(1 -2.87701e-07 0)
(1 -3.35784e-07 0)
(1 -3.88795e-07 0)
(1.00001 -4.50271e-07 0)
(1.00001 -5.24121e-07 0)
(1.00001 -5.96723e-07 0)
(1.00001 -6.09695e-07 0)
(1.00001 -4.95867e-07 0)
(1.00001 -3.4027e-07 0)
(1.00002 -2.43497e-07 0)
(1.00002 -2.0921e-07 0)
(1.00003 -2.05225e-07 0)
(1.00003 -2.02536e-07 0)
(1.00004 -1.87376e-07 0)
(1.00004 -1.58701e-07 0)
(1.00005 -1.23478e-07 0)
(1.00006 -9.36282e-08 0)
(1.00006 -8.3413e-08 0)
(1.00006 -1.05743e-07 0)
(1.00007 -1.66557e-07 0)
(1.00008 -2.58116e-07 0)
(1.00008 -3.54295e-07 0)
(1.00009 -4.14083e-07 0)
(1.0001 -3.94662e-07 0)
(1.0001 -2.70215e-07 0)
(1.00011 -4.06312e-08 0)
(1.00011 2.70864e-07 0)
(1.00012 6.29285e-07 0)
(1.00012 1.00563e-06 0)
(1.00011 1.3812e-06 0)
(1.00011 1.74469e-06 0)
(1.0001 2.08613e-06 0)
(1.00009 2.39299e-06 0)
(1.00008 2.65033e-06 0)
(1.00007 2.84204e-06 0)
(1.00005 2.95221e-06 0)
(1.00004 2.96835e-06 0)
(1.00002 2.88524e-06 0)
(1.00001 2.70604e-06 0)
(0.999993 2.43909e-06 0)
(0.99998 2.09476e-06 0)
(0.999969 1.68142e-06 0)
(0.99996 1.19881e-06 0)
(0.999954 6.26423e-07 0)
(0.99995 -1.82496e-08 0)
(0.999949 -7.07602e-07 0)
(0.999949 -1.4151e-06 0)
(0.999952 -2.11459e-06 0)
(0.999957 -2.77775e-06 0)
(0.999964 -3.3732e-06 0)
(0.999974 -3.867e-06 0)
(0.999986 -4.22377e-06 0)
(1 -4.40971e-06 0)
(1.00002 -4.40232e-06 0)
(1.00004 -4.23594e-06 0)
(1.00007 -4.07434e-06 0)
(1.0001 -3.94814e-06 0)
(1.00012 -3.76749e-06 0)
(1.00015 -3.47082e-06 0)
(1.00017 -3.03595e-06 0)
(1.0002 -2.46233e-06 0)
(1.00022 -1.76033e-06 0)
(1.00023 -9.46548e-07 0)
(1.00024 -4.55708e-08 0)
(1.00024 9.12025e-07 0)
(1.00024 1.8823e-06 0)
(1.00024 2.82143e-06 0)
(1.00022 3.6827e-06 0)
(1.00021 4.42011e-06 0)
(1.00018 4.99374e-06 0)
(1.00016 5.37474e-06 0)
(1.00013 5.54885e-06 0)
(1.0001 5.5174e-06 0)
(1.00007 5.29544e-06 0)
(1.00005 4.90926e-06 0)
(1.00002 4.39336e-06 0)
(0.999997 3.78675e-06 0)
(0.999978 3.12822e-06 0)
(0.999962 2.44534e-06 0)
(0.99995 1.74872e-06 0)
(0.999941 1.02736e-06 0)
(0.999936 3.10021e-07 0)
(0.999933 -3.69423e-07 0)
(0.999932 -9.72561e-07 0)
(0.999934 -1.45488e-06 0)
(0.999936 -1.77613e-06 0)
(0.99994 -1.91814e-06 0)
(0.999944 -1.898e-06 0)
(0.999947 -1.76665e-06 0)
(0.999951 -1.59087e-06 0)
(0.999954 -1.4279e-06 0)
(0.999957 -1.3086e-06 0)
(0.99996 -1.23781e-06 0)
(0.999962 -1.20516e-06 0)
(0.999965 -1.19517e-06 0)
(0.999968 -1.19296e-06 0)
(0.99997 -1.18709e-06 0)
(0.999973 -1.17052e-06 0)
(0.999976 -1.14008e-06 0)
(0.999978 -1.09556e-06 0)
(0.99998 -1.03866e-06 0)
(0.999983 -9.7209e-07 0)
(0.999985 -8.98937e-07 0)
(0.999987 -8.22206e-07 0)
(0.999988 -7.44559e-07 0)
(0.99999 -6.68191e-07 0)
(0.999991 -5.94792e-07 0)
(0.999993 -5.25572e-07 0)
(0.999994 -4.61314e-07 0)
(0.999995 -4.02442e-07 0)
(0.999995 -3.49098e-07 0)
(0.999996 -3.01204e-07 0)
(0.999997 -2.58526e-07 0)
(0.999997 -2.20724e-07 0)
(0.999998 -1.8739e-07 0)
(0.999998 -1.58081e-07 0)
(0.999998 -1.32343e-07 0)
(0.999999 -1.0971e-07 0)
(0.999999 -8.98166e-08 0)
(0.999999 -7.18751e-08 0)
(0.999999 -5.73738e-08 0)
(0.999999 -3.6251e-08 0)
(1 4.8277e-12 0)
(1 1.38406e-11 0)
(1 2.206e-11 0)
(1 3.01496e-11 0)
(1 3.83575e-11 0)
(1 4.65843e-11 0)
(1 5.48132e-11 0)
(1 6.31899e-11 0)
(1 7.1912e-11 0)
(1 8.10766e-11 0)
(1 9.06477e-11 0)
(1 1.00545e-10 0)
(1 1.10774e-10 0)
(1 1.21482e-10 0)
(1 1.32934e-10 0)
(1 1.45438e-10 0)
(1 1.59281e-10 0)
(1 1.74708e-10 0)
(1 1.91963e-10 0)
(1 2.11362e-10 0)
(1 2.33357e-10 0)
(1 2.58567e-10 0)
(1 2.87746e-10 0)
(1 3.21715e-10 0)
(1 3.61269e-10 0)
(1 4.07076e-10 0)
(1 4.59612e-10 0)
(1 5.19118e-10 0)
(1 5.85604e-10 0)
(1 6.58888e-10 0)
(1 7.38655e-10 0)
(1 8.24479e-10 0)
(1 9.15791e-10 0)
(1 1.01191e-09 0)
(1 1.11218e-09 0)
(1 1.21601e-09 0)
(1 1.32283e-09 0)
(1 1.432e-09 0)
(1 1.54267e-09 0)
(1 1.6537e-09 0)
(1 1.76351e-09 0)
(1 1.87002e-09 0)
(1 1.9705e-09 0)
(1 2.06147e-09 0)
(1 2.13864e-09 0)
(1 2.19677e-09 0)
(1 2.22927e-09 0)
(1 2.22784e-09 0)
(1 2.18212e-09 0)
(1 2.07929e-09 0)
(1 1.90408e-09 0)
(1 1.63836e-09 0)
(1 1.26037e-09 0)
(1 7.46688e-10 0)
(1 7.46538e-11 0)
(1 -7.89964e-10 0)
(1 -1.89551e-09 0)
(1 -3.30074e-09 0)
(1 -5.07482e-09 0)
(1 -7.29955e-09 0)
(1 -1.0072e-08 0)
(1 -1.35082e-08 0)
(1 -1.77481e-08 0)
(1 -2.2962e-08 0)
(1 -2.93559e-08 0)
(1 -3.71757e-08 0)
(1 -4.6712e-08 0)
(1 -5.83086e-08 0)
(1 -7.23714e-08 0)
(1 -8.93728e-08 0)
(1 -1.09846e-07 0)
(1 -1.34373e-07 0)
(1 -1.63589e-07 0)
(1 -1.98191e-07 0)
(1 -2.38948e-07 0)
(1 -2.86652e-07 0)
(1 -3.42037e-07 0)
(1 -4.05782e-07 0)
(1 -4.78684e-07 0)
(1 -5.61517e-07 0)
(1 -6.53563e-07 0)
(1.00001 -7.49848e-07 0)
(1.00001 -8.41672e-07 0)
(1.00001 -9.29282e-07 0)
(1.00001 -1.04256e-06 0)
(1.00001 -1.2215e-06 0)
(1.00001 -1.43281e-06 0)
(1.00001 -1.60591e-06 0)
(1.00002 -1.70461e-06 0)
(1.00002 -1.72881e-06 0)
(1.00002 -1.69216e-06 0)
(1.00002 -1.60991e-06 0)
(1.00002 -1.4982e-06 0)
(1.00002 -1.37769e-06 0)
(1.00003 -1.27625e-06 0)
(1.00003 -1.22754e-06 0)
(1.00003 -1.26372e-06 0)
(1.00003 -1.40168e-06 0)
(1.00003 -1.62522e-06 0)
(1.00003 -1.87164e-06 0)
(1.00003 -2.03713e-06 0)
(1.00004 -2.00938e-06 0)
(1.00004 -1.71427e-06 0)
(1.00004 -1.14431e-06 0)
(1.00004 -3.53029e-07 0)
(1.00004 5.77955e-07 0)
(1.00004 1.57241e-06 0)
(1.00004 2.57601e-06 0)
(1.00003 3.55533e-06 0)
(1.00003 4.48441e-06 0)
(1.00002 5.33342e-06 0)
(1.00001 6.06611e-06 0)
(1.00001 6.6411e-06 0)
(0.999997 7.01541e-06 0)
(0.999989 7.15328e-06 0)
(0.99998 7.03578e-06 0)
(0.999972 6.66276e-06 0)
(0.999964 6.04783e-06 0)
(0.999957 5.2145e-06 0)
(0.999951 4.19669e-06 0)
(0.999947 3.03939e-06 0)
(0.999944 1.79598e-06 0)
(0.999943 5.05812e-07 0)
(0.999943 -8.03878e-07 0)
(0.999945 -2.11235e-06 0)
(0.999949 -3.40261e-06 0)
(0.999954 -4.66081e-06 0)
(0.999961 -5.87519e-06 0)
(0.99997 -7.03393e-06 0)
(0.99998 -8.12267e-06 0)
(0.999991 -9.12078e-06 0)
(1 -9.99394e-06 0)
(1.00002 -1.06746e-05 0)
(1.00003 -1.10473e-05 0)
(1.00004 -1.10449e-05 0)
(1.00005 -1.06704e-05 0)
(1.00007 -9.94245e-06 0)
(1.00008 -8.87144e-06 0)
(1.00009 -7.46666e-06 0)
(1.00009 -5.74636e-06 0)
(1.0001 -3.74456e-06 0)
(1.0001 -1.51474e-06 0)
(1.0001 8.706e-07 0)
(1.0001 3.31712e-06 0)
(1.00009 5.71553e-06 0)
(1.00009 7.94675e-06 0)
(1.00007 9.89258e-06 0)
(1.00006 1.14482e-05 0)
(1.00005 1.25343e-05 0)
(1.00003 1.31066e-05 0)
(1.00001 1.31598e-05 0)
(0.999998 1.27251e-05 0)
(0.999983 1.18626e-05 0)
(0.999969 1.06538e-05 0)
(0.999957 9.19305e-06 0)
(0.999947 7.57773e-06 0)
(0.999939 5.89824e-06 0)
(0.999933 4.23182e-06 0)
(0.999929 2.64158e-06 0)
(0.999927 1.16399e-06 0)
(0.999927 -1.71263e-07 0)
(0.999928 -1.32175e-06 0)
(0.999931 -2.22832e-06 0)
(0.999934 -2.83414e-06 0)
(0.999938 -3.11659e-06 0)
(0.999943 -3.11069e-06 0)
(0.999947 -2.9075e-06 0)
(0.999951 -2.6238e-06 0)
(0.999954 -2.35878e-06 0)
(0.999957 -2.16552e-06 0)
(0.99996 -2.05239e-06 0)
(0.999962 -2.00199e-06 0)
(0.999965 -1.98841e-06 0)
(0.999968 -1.9869e-06 0)
(0.99997 -1.97851e-06 0)
(0.999973 -1.95163e-06 0)
(0.999976 -1.9012e-06 0)
(0.999978 -1.82702e-06 0)
(0.99998 -1.73201e-06 0)
(0.999983 -1.62082e-06 0)
(0.999985 -1.49863e-06 0)
(0.999987 -1.37049e-06 0)
(0.999988 -1.24086e-06 0)
(0.99999 -1.1134e-06 0)
(0.999991 -9.90945e-07 0)
(0.999993 -8.75491e-07 0)
(0.999994 -7.68342e-07 0)
(0.999995 -6.70202e-07 0)
(0.999995 -5.81296e-07 0)
(0.999996 -5.01491e-07 0)
(0.999997 -4.30392e-07 0)
(0.999997 -3.67426e-07 0)
(0.999998 -3.11911e-07 0)
(0.999998 -2.63106e-07 0)
(0.999998 -2.20254e-07 0)
(0.999999 -1.82576e-07 0)
(0.999999 -1.49469e-07 0)
(0.999999 -1.19605e-07 0)
(0.999999 -9.54978e-08 0)
(0.999999 -6.03692e-08 0)
(1 6.65157e-12 0)
(1 1.99438e-11 0)
(1 3.28244e-11 0)
(1 4.60448e-11 0)
(1 5.99712e-11 0)
(1 7.45369e-11 0)
(1 8.97981e-11 0)
(1 1.06026e-10 0)
(1 1.23575e-10 0)
(1 1.42707e-10 0)
(1 1.63557e-10 0)
(1 1.86215e-10 0)
(1 2.10845e-10 0)
(1 2.37739e-10 0)
(1 2.67271e-10 0)
(1 2.99802e-10 0)
(1 3.35586e-10 0)
(1 3.74735e-10 0)
(1 4.17262e-10 0)
(1 4.63165e-10 0)
(1 5.12511e-10 0)
(1 5.65478e-10 0)
(1 6.22337e-10 0)
(1 6.83382e-10 0)
(1 7.48861e-10 0)
(1 8.18906e-10 0)
(1 8.93517e-10 0)
(1 9.72573e-10 0)
(1 1.05588e-09 0)
(1 1.14321e-09 0)
(1 1.23435e-09 0)
(1 1.32909e-09 0)
(1 1.42732e-09 0)
(1 1.52908e-09 0)
(1 1.63444e-09 0)
(1 1.74345e-09 0)
(1 1.85597e-09 0)
(1 1.97159e-09 0)
(1 2.08952e-09 0)
(1 2.20847e-09 0)
(1 2.3266e-09 0)
(1 2.44138e-09 0)
(1 2.54952e-09 0)
(1 2.64686e-09 0)
(1 2.72822e-09 0)
(1 2.78712e-09 0)
(1 2.81547e-09 0)
(1 2.80326e-09 0)
(1 2.73808e-09 0)
(1 2.60452e-09 0)
(1 2.3832e-09 0)
(1 2.04916e-09 0)
(1 1.57147e-09 0)
(1 9.12007e-10 0)
(1 2.49313e-11 0)
(1 -1.14522e-09 0)
(1 -2.66424e-09 0)
(1 -4.60987e-09 0)
(1 -7.07565e-09 0)
(1 -1.0174e-08 0)
(1 -1.40392e-08 0)
(1 -1.88325e-08 0)
(1 -2.4749e-08 0)
(1 -3.20262e-08 0)
(1 -4.09519e-08 0)
(1 -5.18694e-08 0)
(1 -6.51849e-08 0)
(1 -8.13777e-08 0)
(1 -1.01015e-07 0)
(1 -1.24757e-07 0)
(1 -1.53351e-07 0)
(1 -1.87616e-07 0)
(1 -2.28434e-07 0)
(1 -2.76764e-07 0)
(1 -3.33675e-07 0)
(1 -4.00338e-07 0)
(1 -4.77942e-07 0)
(1 -5.67465e-07 0)
(1 -6.6935e-07 0)
(1 -7.83368e-07 0)
(1 -9.09137e-07 0)
(1.00001 -1.04705e-06 0)
(1.00001 -1.19745e-06 0)
(1.00001 -1.35513e-06 0)
(1.00001 -1.50193e-06 0)
(1.00001 -1.61139e-06 0)
(1.00001 -1.66255e-06 0)
(1.00001 -1.66416e-06 0)
(1.00002 -1.6346e-06 0)
(1.00002 -1.57965e-06 0)
(1.00002 -1.49628e-06 0)
(1.00002 -1.38168e-06 0)
(1.00002 -1.24108e-06 0)
(1.00002 -1.092e-06 0)
(1.00003 -9.65246e-07 0)
(1.00003 -9.01446e-07 0)
(1.00003 -9.4127e-07 0)
(1.00003 -1.10773e-06 0)
(1.00003 -1.38293e-06 0)
(1.00003 -1.69006e-06 0)
(1.00003 -1.89919e-06 0)
(1.00004 -1.86993e-06 0)
(1.00004 -1.51213e-06 0)
(1.00004 -8.23786e-07 0)
(1.00004 1.21676e-07 0)
(1.00004 1.22005e-06 0)
(1.00004 2.37718e-06 0)
(1.00004 3.53159e-06 0)
(1.00003 4.64941e-06 0)
(1.00003 5.70412e-06 0)
(1.00002 6.66202e-06 0)
(1.00001 7.48049e-06 0)
(1.00001 8.11046e-06 0)
(0.999997 8.50089e-06 0)
(0.999988 8.61007e-06 0)
(0.99998 8.41793e-06 0)
(0.999971 7.92808e-06 0)
(0.999964 7.16045e-06 0)
(0.999957 6.14329e-06 0)
(0.999951 4.90967e-06 0)
(0.999947 3.49597e-06 0)
(0.999944 1.94237e-06 0)
(0.999942 2.87136e-07 0)
(0.999943 -1.42929e-06 0)
(0.999945 -3.16562e-06 0)
(0.999949 -4.88022e-06 0)
(0.999954 -6.53051e-06 0)
(0.999961 -8.07207e-06 0)
(0.99997 -9.45905e-06 0)
(0.99998 -1.06463e-05 0)
(0.999991 -1.15934e-05 0)
(1 -1.22706e-05 0)
(1.00002 -1.26622e-05 0)
(1.00003 -1.27535e-05 0)
(1.00004 -1.25363e-05 0)
(1.00005 -1.19893e-05 0)
(1.00007 -1.10805e-05 0)
(1.00008 -9.78856e-06 0)
(1.00009 -8.11063e-06 0)
(1.0001 -6.06492e-06 0)
(1.0001 -3.69222e-06 0)
(1.0001 -1.05644e-06 0)
(1.0001 1.75327e-06 0)
(1.0001 4.62625e-06 0)
(1.00009 7.43107e-06 0)
(1.00009 1.00261e-05 0)
(1.00007 1.22716e-05 0)
(1.00006 1.40443e-05 0)
(1.00005 1.52523e-05 0)
(1.00003 1.58467e-05 0)
(1.00001 1.58263e-05 0)
(0.999998 1.52331e-05 0)
(0.999983 1.41422e-05 0)
(0.999969 1.26529e-05 0)
(0.999957 1.08794e-05 0)
(0.999947 8.93612e-06 0)
(0.999939 6.92114e-06 0)
(0.999933 4.90725e-06 0)
(0.999929 2.94803e-06 0)
(0.999927 1.08414e-06 0)
(0.999926 -6.35844e-07 0)
(0.999928 -2.14086e-06 0)
(0.99993 -3.33564e-06 0)
(0.999934 -4.12898e-06 0)
(0.999938 -4.48032e-06 0)
(0.999943 -4.43416e-06 0)
(0.999947 -4.11767e-06 0)
(0.999951 -3.69638e-06 0)
(0.999954 -3.31033e-06 0)
(0.999957 -3.03261e-06 0)
(0.99996 -2.87217e-06 0)
(0.999962 -2.80212e-06 0)
(0.999965 -2.78451e-06 0)
(0.999968 -2.78373e-06 0)
(0.99997 -2.77284e-06 0)
(0.999973 -2.73551e-06 0)
(0.999976 -2.66476e-06 0)
(0.999978 -2.56044e-06 0)
(0.99998 -2.42681e-06 0)
(0.999983 -2.27047e-06 0)
(0.999985 -2.09877e-06 0)
(0.999987 -1.91882e-06 0)
(0.999988 -1.73689e-06 0)
(0.99999 -1.55811e-06 0)
(0.999991 -1.38642e-06 0)
(0.999993 -1.22463e-06 0)
(0.999994 -1.07454e-06 0)
(0.999995 -9.37119e-07 0)
(0.999995 -8.12671e-07 0)
(0.999996 -7.00996e-07 0)
(0.999997 -6.0153e-07 0)
(0.999997 -5.13465e-07 0)
(0.999998 -4.35838e-07 0)
(0.999998 -3.67606e-07 0)
(0.999998 -3.07708e-07 0)
(0.999999 -2.55051e-07 0)
(0.999999 -2.08784e-07 0)
(0.999999 -1.67053e-07 0)
(0.999999 -1.33371e-07 0)
(0.999999 -8.42557e-08 0)
(1 8.60489e-12 0)
(1 2.57403e-11 0)
(1 4.21878e-11 0)
(1 5.88093e-11 0)
(1 7.60508e-11 0)
(1 9.37934e-11 0)
(1 1.12056e-10 0)
(1 1.31144e-10 0)
(1 1.51478e-10 0)
(1 1.73338e-10 0)
(1 1.96796e-10 0)
(1 2.2184e-10 0)
(1 2.4856e-10 0)
(1 2.7724e-10 0)
(1 3.08305e-10 0)
(1 3.4219e-10 0)
(1 3.79219e-10 0)
(1 4.19576e-10 0)
(1 4.63373e-10 0)
(1 5.10782e-10 0)
(1 5.62154e-10 0)
(1 6.18067e-10 0)
(1 6.79292e-10 0)
(1 7.4669e-10 0)
(1 8.21094e-10 0)
(1 9.03199e-10 0)
(1 9.93505e-10 0)
(1 1.0923e-09 0)
(1 1.19968e-09 0)
(1 1.3156e-09 0)
(1 1.43993e-09 0)
(1 1.57252e-09 0)
(1 1.71318e-09 0)
(1 1.86168e-09 0)
(1 2.01767e-09 0)
(1 2.18064e-09 0)
(1 2.34986e-09 0)
(1 2.52427e-09 0)
(1 2.7024e-09 0)
(1 2.88221e-09 0)
(1 3.06088e-09 0)
(1 3.23475e-09 0)
(1 3.39911e-09 0)
(1 3.54802e-09 0)
(1 3.67408e-09 0)
(1 3.76813e-09 0)
(1 3.81895e-09 0)
(1 3.81271e-09 0)
(1 3.73237e-09 0)
(1 3.55696e-09 0)
(1 3.26085e-09 0)
(1 2.81299e-09 0)
(1 2.17586e-09 0)
(1 1.30416e-09 0)
(1 1.42358e-10 0)
(1 -1.3766e-09 0)
(1 -3.3359e-09 0)
(1 -5.83649e-09 0)
(1 -8.99984e-09 0)
(1 -1.29711e-08 0)
(1 -1.79233e-08 0)
(1 -2.40634e-08 0)
(1 -3.16417e-08 0)
(1 -4.09631e-08 0)
(1 -5.2397e-08 0)
(1 -6.63838e-08 0)
(1 -8.34437e-08 0)
(1 -1.04191e-07 0)
(1 -1.29352e-07 0)
(1 -1.59777e-07 0)
(1 -1.96425e-07 0)
(1 -2.40345e-07 0)
(1 -2.9267e-07 0)
(1 -3.54644e-07 0)
(1 -4.2765e-07 0)
(1 -5.13173e-07 0)
(1 -6.12663e-07 0)
(1 -7.27391e-07 0)
(1 -8.58378e-07 0)
(1 -1.00627e-06 0)
(1 -1.17059e-06 0)
(1.00001 -1.34817e-06 0)
(1.00001 -1.53223e-06 0)
(1.00001 -1.71528e-06 0)
(1.00001 -1.89544e-06 0)
(1.00001 -2.07668e-06 0)
(1.00001 -2.25164e-06 0)
(1.00001 -2.40024e-06 0)
(1.00002 -2.49821e-06 0)
(1.00002 -2.52709e-06 0)
(1.00002 -2.48006e-06 0)
(1.00002 -2.362e-06 0)
(1.00002 -2.19029e-06 0)
(1.00002 -1.99699e-06 0)
(1.00003 -1.82999e-06 0)
(1.00003 -1.74908e-06 0)
(1.00003 -1.81318e-06 0)
(1.00003 -2.05623e-06 0)
(1.00003 -2.45455e-06 0)
(1.00003 -2.90057e-06 0)
(1.00003 -3.21051e-06 0)
(1.00004 -3.1838e-06 0)
(1.00004 -2.69e-06 0)
(1.00004 -1.72168e-06 0)
(1.00004 -3.79506e-07 0)
(1.00004 1.18941e-06 0)
(1.00004 2.85209e-06 0)
(1.00004 4.52064e-06 0)
(1.00003 6.14541e-06 0)
(1.00003 7.68688e-06 0)
(1.00002 9.09566e-06 0)
(1.00001 1.03104e-05 0)
(1.00001 1.12606e-05 0)
(0.999997 1.18725e-05 0)
(0.999989 1.20848e-05 0)
(0.99998 1.18667e-05 0)
(0.999971 1.12216e-05 0)
(0.999963 1.01765e-05 0)
(0.999956 8.77209e-06 0)
(0.99995 7.06057e-06 0)
(0.999946 5.1045e-06 0)
(0.999943 2.97206e-06 0)
(0.999942 7.25314e-07 0)
(0.999942 -1.58052e-06 0)
(0.999944 -3.89746e-06 0)
(0.999948 -6.18373e-06 0)
(0.999953 -8.40105e-06 0)
(0.999961 -1.05117e-05 0)
(0.999969 -1.24761e-05 0)
(0.999979 -1.425e-05 0)
(0.99999 -1.57829e-05 0)
(1 -1.7016e-05 0)
(1.00002 -1.78819e-05 0)
(1.00003 -1.83032e-05 0)
(1.00004 -1.82177e-05 0)
(1.00005 -1.75839e-05 0)
(1.00007 -1.63784e-05 0)
(1.00008 -1.45943e-05 0)
(1.00009 -1.22415e-05 0)
(1.0001 -9.3519e-06 0)
(1.0001 -5.98469e-06 0)
(1.0001 -2.23092e-06 0)
(1.0001 1.78361e-06 0)
(1.0001 5.8997e-06 0)
(1.0001 9.93103e-06 0)
(1.00009 1.36758e-05 0)
(1.00008 1.69337e-05 0)
(1.00006 1.95268e-05 0)
(1.00005 2.13215e-05 0)
(1.00003 2.22449e-05 0)
(1.00001 2.22914e-05 0)
(0.999998 2.1517e-05 0)
(0.999982 2.00262e-05 0)
(0.999968 1.79588e-05 0)
(0.999956 1.54772e-05 0)
(0.999946 1.27475e-05 0)
(0.999938 9.91627e-06 0)
(0.999932 7.09779e-06 0)
(0.999928 4.37643e-06 0)
(0.999926 1.8129e-06 0)
(0.999926 -5.32683e-07 0)
(0.999927 -2.57365e-06 0)
(0.99993 -4.18972e-06 0)
(0.999934 -5.26337e-06 0)
(0.999938 -5.74297e-06 0)
(0.999943 -5.69006e-06 0)
(0.999947 -5.277e-06 0)
(0.999951 -4.72707e-06 0)
(0.999954 -4.22738e-06 0)
(0.999957 -3.87311e-06 0)
(0.99996 -3.67333e-06 0)
(0.999962 -3.59073e-06 0)
(0.999965 -3.57477e-06 0)
(0.999968 -3.5788e-06 0)
(0.99997 -3.56799e-06 0)
(0.999973 -3.52158e-06 0)
(0.999976 -3.43099e-06 0)
(0.999978 -3.29645e-06 0)
(0.99998 -3.12378e-06 0)
(0.999983 -2.92171e-06 0)
(0.999985 -2.69989e-06 0)
(0.999987 -2.46756e-06 0)
(0.999988 -2.23283e-06 0)
(0.99999 -2.00233e-06 0)
(0.999991 -1.78113e-06 0)
(0.999993 -1.57281e-06 0)
(0.999994 -1.37966e-06 0)
(0.999995 -1.2029e-06 0)
(0.999996 -1.04291e-06 0)
(0.999996 -8.99405e-07 0)
(0.999997 -7.71636e-07 0)
(0.999997 -6.58551e-07 0)
(0.999998 -5.58901e-07 0)
(0.999998 -4.71337e-07 0)
(0.999999 -3.94487e-07 0)
(0.999999 -3.26944e-07 0)
(0.999999 -2.6761e-07 0)
(0.999999 -2.14109e-07 0)
(0.999999 -1.70926e-07 0)
(0.999999 -1.08001e-07 0)
(1 1.05394e-11 0)
(1 3.14228e-11 0)
(1 5.14552e-11 0)
(1 7.17309e-11 0)
(1 9.28328e-11 0)
(1 1.14661e-10 0)
(1 1.3728e-10 0)
(1 1.61097e-10 0)
(1 1.86648e-10 0)
(1 2.14307e-10 0)
(1 2.44211e-10 0)
(1 2.76421e-10 0)
(1 3.11128e-10 0)
(1 3.48745e-10 0)
(1 3.89849e-10 0)
(1 4.35018e-10 0)
(1 4.84698e-10 0)
(1 5.39153e-10 0)
(1 5.98537e-10 0)
(1 6.6303e-10 0)
(1 7.32969e-10 0)
(1 8.08905e-10 0)
(1 8.91567e-10 0)
(1 9.81752e-10 0)
(1 1.08018e-09 0)
(1 1.1874e-09 0)
(1 1.3037e-09 0)
(1 1.4291e-09 0)
(1 1.56345e-09 0)
(1 1.70644e-09 0)
(1 1.85769e-09 0)
(1 2.01681e-09 0)
(1 2.18341e-09 0)
(1 2.35711e-09 0)
(1 2.53757e-09 0)
(1 2.72434e-09 0)
(1 2.91684e-09 0)
(1 3.11414e-09 0)
(1 3.31484e-09 0)
(1 3.51682e-09 0)
(1 3.71708e-09 0)
(1 3.91157e-09 0)
(1 4.09504e-09 0)
(1 4.2608e-09 0)
(1 4.40048e-09 0)
(1 4.50368e-09 0)
(1 4.55752e-09 0)
(1 4.54593e-09 0)
(1 4.44885e-09 0)
(1 4.24132e-09 0)
(1 3.89243e-09 0)
(1 3.36399e-09 0)
(1 2.60894e-09 0)
(1 1.56969e-09 0)
(1 1.77664e-10 0)
(1 -1.65158e-09 0)
(1 -4.01995e-09 0)
(1 -7.04982e-09 0)
(1 -1.08883e-08 0)
(1 -1.57117e-08 0)
(1 -2.173e-08 0)
(1 -2.91945e-08 0)
(1 -3.84095e-08 0)
(1 -4.97464e-08 0)
(1 -6.36553e-08 0)
(1 -8.06729e-08 0)
(1 -1.01432e-07 0)
(1 -1.26679e-07 0)
(1 -1.573e-07 0)
(1 -1.9433e-07 0)
(1 -2.38944e-07 0)
(1 -2.92425e-07 0)
(1 -3.56149e-07 0)
(1 -4.31624e-07 0)
(1 -5.20537e-07 0)
(1 -6.24749e-07 0)
(1 -7.46158e-07 0)
(1 -8.86404e-07 0)
(1 -1.04652e-06 0)
(1 -1.22662e-06 0)
(1 -1.42584e-06 0)
(1.00001 -1.64235e-06 0)
(1.00001 -1.87308e-06 0)
(1.00001 -2.11238e-06 0)
(1.00001 -2.34982e-06 0)
(1.00001 -2.56818e-06 0)
(1.00001 -2.742e-06 0)
(1.00001 -2.8502e-06 0)
(1.00002 -2.88339e-06 0)
(1.00002 -2.83931e-06 0)
(1.00002 -2.71937e-06 0)
(1.00002 -2.52979e-06 0)
(1.00002 -2.28714e-06 0)
(1.00002 -2.02485e-06 0)
(1.00003 -1.79682e-06 0)
(1.00003 -1.67393e-06 0)
(1.00003 -1.72914e-06 0)
(1.00003 -2.00782e-06 0)
(1.00003 -2.48608e-06 0)
(1.00003 -3.035e-06 0)
(1.00003 -3.42716e-06 0)
(1.00004 -3.41218e-06 0)
(1.00004 -2.82952e-06 0)
(1.00004 -1.67695e-06 0)
(1.00004 -8.7063e-08 0)
(1.00004 1.75579e-06 0)
(1.00004 3.68973e-06 0)
(1.00004 5.61373e-06 0)
(1.00003 7.4768e-06 0)
(1.00003 9.23909e-06 0)
(1.00002 1.08461e-05 0)
(1.00001 1.22274e-05 0)
(1.00001 1.33006e-05 0)
(0.999998 1.39778e-05 0)
(0.999989 1.41858e-05 0)
(0.99998 1.38897e-05 0)
(0.999971 1.30968e-05 0)
(0.999963 1.18411e-05 0)
(0.999956 1.01704e-05 0)
(0.99995 8.14319e-06 0)
(0.999945 5.82816e-06 0)
(0.999942 3.2981e-06 0)
(0.999941 6.2197e-07 0)
(0.999941 -2.13633e-06 0)
(0.999943 -4.91697e-06 0)
(0.999947 -7.66227e-06 0)
(0.999953 -1.03147e-05 0)
(0.99996 -1.28152e-05 0)
(0.999969 -1.5102e-05 0)
(0.999979 -1.7112e-05 0)
(0.99999 -1.87828e-05 0)
(1 -2.00548e-05 0)
(1.00002 -2.08722e-05 0)
(1.00003 -2.11797e-05 0)
(1.00004 -2.09312e-05 0)
(1.00006 -2.0088e-05 0)
(1.00007 -1.8618e-05 0)
(1.00008 -1.65022e-05 0)
(1.00009 -1.37428e-05 0)
(1.0001 -1.03709e-05 0)
(1.0001 -6.45231e-06 0)
(1.00011 -2.09042e-06 0)
(1.00011 2.56955e-06 0)
(1.0001 7.34334e-06 0)
(1.0001 1.20131e-05 0)
(1.00009 1.6342e-05 0)
(1.00008 2.00948e-05 0)
(1.00006 2.30628e-05 0)
(1.00005 2.50902e-05 0)
(1.00003 2.60943e-05 0)
(1.00001 2.60728e-05 0)
(0.999997 2.5096e-05 0)
(0.999982 2.32902e-05 0)
(0.999968 2.08215e-05 0)
(0.999955 1.78822e-05 0)
(0.999945 1.46669e-05 0)
(0.999937 1.13438e-05 0)
(0.999931 8.03891e-06 0)
(0.999927 4.84105e-06 0)
(0.999925 1.81451e-06 0)
(0.999925 -9.72826e-07 0)
(0.999927 -3.41376e-06 0)
(0.99993 -5.35197e-06 0)
(0.999934 -6.63064e-06 0)
(0.999938 -7.1765e-06 0)
(0.999943 -7.0627e-06 0)
(0.999947 -6.50701e-06 0)
(0.999951 -5.79371e-06 0)
(0.999954 -5.15875e-06 0)
(0.999957 -4.71744e-06 0)
(0.99996 -4.4749e-06 0)
(0.999962 -4.37983e-06 0)
(0.999965 -4.36685e-06 0)
(0.999968 -4.37701e-06 0)
(0.99997 -4.36706e-06 0)
(0.999973 -4.31172e-06 0)
(0.999976 -4.20094e-06 0)
(0.999978 -4.03548e-06 0)
(0.999981 -3.82293e-06 0)
(0.999983 -3.57429e-06 0)
(0.999985 -3.30156e-06 0)
(0.999987 -3.01619e-06 0)
(0.999989 -2.72814e-06 0)
(0.99999 -2.44554e-06 0)
(0.999992 -2.17456e-06 0)
(0.999993 -1.91954e-06 0)
(0.999994 -1.68326e-06 0)
(0.999995 -1.46717e-06 0)
(0.999996 -1.27168e-06 0)
(0.999996 -1.09642e-06 0)
(0.999997 -9.40453e-07 0)
(0.999997 -8.02464e-07 0)
(0.999998 -6.80913e-07 0)
(0.999998 -5.7414e-07 0)
(0.999999 -4.8046e-07 0)
(0.999999 -3.98145e-07 0)
(0.999999 -3.25852e-07 0)
(0.999999 -2.60676e-07 0)
(0.999999 -2.08079e-07 0)
(0.999999 -1.31435e-07 0)
(1 1.24563e-11 0)
(1 3.70893e-11 0)
(1 6.07352e-11 0)
(1 8.46914e-11 0)
(1 1.09625e-10 0)
(1 1.35403e-10 0)
(1 1.62081e-10 0)
(1 1.90114e-10 0)
(1 2.20118e-10 0)
(1 2.52514e-10 0)
(1 2.87444e-10 0)
(1 3.2494e-10 0)
(1 3.65183e-10 0)
(1 4.08617e-10 0)
(1 4.55884e-10 0)
(1 5.07634e-10 0)
(1 5.64347e-10 0)
(1 6.26286e-10 0)
(1 6.93581e-10 0)
(1 7.66416e-10 0)
(1 8.45192e-10 0)
(1 9.30607e-10 0)
(1 1.02361e-09 0)
(1 1.12526e-09 0)
(1 1.23655e-09 0)
(1 1.35829e-09 0)
(1 1.49098e-09 0)
(1 1.63488e-09 0)
(1 1.78997e-09 0)
(1 1.95609e-09 0)
(1 2.13299e-09 0)
(1 2.32038e-09 0)
(1 2.51802e-09 0)
(1 2.72567e-09 0)
(1 2.94304e-09 0)
(1 3.1697e-09 0)
(1 3.40489e-09 0)
(1 3.64741e-09 0)
(1 3.89543e-09 0)
(1 4.14621e-09 0)
(1 4.39595e-09 0)
(1 4.63958e-09 0)
(1 4.87055e-09 0)
(1 5.0806e-09 0)
(1 5.25941e-09 0)
(1 5.3942e-09 0)
(1 5.46923e-09 0)
(1 5.46504e-09 0)
(1 5.3576e-09 0)
(1 5.11727e-09 -1.55432e-43)
(1 4.70769e-09 -1.65779e-43)
(1 4.08432e-09 0)
(1 3.19281e-09 0)
(1 1.96684e-09 0)
(1 3.2626e-10 0)
(1 -1.82702e-09 0)
(1 -4.61197e-09 0)
(1 -8.17244e-09 0)
(1 -1.26819e-08 0)
(1 -1.83479e-08 0)
(1 -2.54177e-08 0)
(1 -3.4187e-08 0)
(1 -4.50134e-08 0)
(1 -5.83343e-08 0)
(1 -7.46803e-08 0)
(1 -9.46837e-08 0)
(1 -1.19088e-07 0)
(1 -1.48769e-07 0)
(1 -1.8477e-07 0)
(1 -2.28314e-07 0)
(1 -2.80789e-07 0)
(1 -3.43707e-07 0)
(1 -4.18686e-07 0)
(1 -5.07507e-07 0)
(1 -6.12182e-07 0)
(1 -7.34932e-07 0)
(1 -8.77995e-07 0)
(1 -1.04331e-06 0)
(1 -1.23226e-06 0)
(1 -1.44548e-06 0)
(1 -1.6825e-06 0)
(1.00001 -1.94083e-06 0)
(1.00001 -2.21467e-06 0)
(1.00001 -2.49439e-06 0)
(1.00001 -2.76796e-06 0)
(1.00001 -3.02191e-06 0)
(1.00001 -3.23885e-06 0)
(1.00001 -3.4003e-06 0)
(1.00002 -3.48952e-06 0)
(1.00002 -3.49195e-06 0)
(1.00002 -3.39873e-06 0)
(1.00002 -3.21154e-06 0)
(1.00002 -2.94879e-06 0)
(1.00002 -2.6519e-06 0)
(1.00003 -2.38878e-06 0)
(1.00003 -2.24949e-06 0)
(1.00003 -2.32833e-06 0)
(1.00003 -2.68717e-06 0)
(1.00003 -3.30214e-06 0)
(1.00003 -4.01555e-06 0)
(1.00003 -4.54068e-06 0)
(1.00004 -4.55783e-06 0)
(1.00004 -3.8617e-06 0)
(1.00004 -2.44885e-06 0)
(1.00004 -4.88849e-07 0)
(1.00004 1.78426e-06 0)
(1.00004 4.16877e-06 0)
(1.00004 6.54264e-06 0)
(1.00003 8.84727e-06 0)
(1.00003 1.10358e-05 0)
(1.00002 1.3041e-05 0)
(1.00001 1.47752e-05 0)
(1.00001 1.61359e-05 0)
(0.999998 1.7012e-05 0)
(0.999989 1.73102e-05 0)
(0.999979 1.69864e-05 0)
(0.999971 1.60499e-05 0)
(0.999962 1.45431e-05 0)