/*--------------------------------*- C++ -*----------------------------------*\
| =========                 |                                                 |
| \\      /  F ield         | OpenFOAM: The Open Source CFD Toolbox           |
|  \\    /   O peration     | Version:  v2006                                 |
|   \\  /    A nd           | Website:  www.openfoam.com                      |
|    \\/     M anipulation  |                                                 |
\*---------------------------------------------------------------------------*/
FoamFile
{
    version     2.0;
    format      ascii;
    class       volScalarField;
    location    "0";
    object      f;
}
// * * * * * * * * * * * * * * * * * * * * * * * * * * * * * * * * * * * * * //

dimensions      [0 0 0 0 0 0 0];


internalField   nonuniform List<scalar> 
2500
(
7.50474e-59
-2.42404e-58
-2.91001e-58
3.10556e-55
1.12962e-54
1.83078e-54
2.1767e-54
1.77784e-54
1.04884e-54
4.6699e-55
1.63106e-55
4.62491e-56
1.09615e-56
2.22444e-57
3.94173e-58
6.19806e-59
8.76373e-60
1.12663e-60
1.32914e-61
1.45037e-62
1.47382e-63
1.40284e-64
1.25714e-65
1.06539e-66
8.57224e-68
6.57149e-69
4.81469e-70
3.38079e-71
2.28087e-72
1.48182e-73
9.28939e-75
5.62957e-76
3.3036e-77
1.88013e-78
1.03914e-79
5.58476e-81
2.922e-82
1.48993e-83
7.41117e-85
3.59946e-86
1.70837e-87
7.92971e-89
3.60226e-90
1.60261e-91
6.98695e-93
2.98682e-94
1.25266e-95
5.15681e-97
2.08482e-98
8.2813e-100
2.34001e-57
-7.30185e-57
-1.11691e-56
9.13531e-54
3.31417e-53
5.35314e-53
6.35056e-53
5.16757e-53
3.04053e-53
1.35053e-53
4.7033e-54
1.32885e-54
3.13635e-55
6.33518e-56
1.11706e-56
1.74752e-57
2.45806e-58
3.14354e-59
3.68942e-60
4.00549e-61
4.05009e-62
3.83649e-63
3.42203e-64
2.8871e-65
2.31304e-66
1.76591e-67
1.28875e-68
9.01563e-70
6.06085e-71
3.92425e-72
2.45215e-73
1.48149e-74
8.66833e-76
4.9194e-77
2.71161e-78
1.45353e-79
7.58588e-81
3.85858e-82
1.91474e-83
9.27773e-85
4.3932e-86
2.03451e-87
9.22123e-89
4.09311e-90
1.78042e-91
7.5936e-93
3.17736e-94
1.30497e-95
5.26333e-97
2.08568e-98
7.14845e-56
-2.14939e-55
-4.03004e-55
2.627e-52
9.50547e-52
1.53015e-51
1.81125e-51
1.46832e-51
8.61811e-52
3.81965e-52
1.32661e-52
3.73524e-53
8.77985e-54
1.76537e-54
3.09763e-55
4.82135e-56
6.74681e-57
8.58382e-58
1.0023e-58
1.08273e-59
1.08946e-60
1.02714e-61
9.12026e-63
7.66117e-64
6.11238e-65
4.64811e-66
3.37943e-67
2.3557e-68
1.5783e-69
1.01863e-70
6.3458e-72
3.8228e-73
2.23059e-74
1.26256e-75
6.94175e-77
3.712e-78
1.9327e-79
9.80815e-81
4.85615e-82
2.34781e-83
1.1093e-84
5.12605e-86
2.31828e-87
1.02679e-88
4.45649e-90
1.8965e-91
7.91757e-93
3.24439e-94
1.30552e-95
5.16109e-97
2.13777e-54
-6.17561e-54
-1.38307e-53
7.37799e-51
2.66266e-50
4.27168e-50
5.04526e-50
4.07459e-50
2.38613e-50
1.05555e-50
3.65691e-51
1.02625e-51
2.40263e-52
4.80929e-53
8.39804e-54
1.30058e-54
1.81071e-55
2.29201e-56
2.66286e-57
2.86241e-58
2.86647e-59
2.69011e-60
2.37812e-61
1.98928e-62
1.5808e-63
1.19756e-64
8.67583e-66
6.02728e-67
4.02536e-68
2.59017e-69
1.60902e-70
9.66688e-72
5.62618e-73
3.17676e-74
1.74254e-75
9.29699e-77
4.82999e-78
2.44591e-79
1.20846e-80
5.83043e-82
2.74911e-83
1.26773e-84
5.72148e-86
2.52879e-87
1.09523e-88
4.65079e-90
1.93737e-91
7.921e-93
3.18006e-94
1.25423e-95
6.25281e-53
-1.72968e-52
-4.54438e-52
2.02167e-49
7.27711e-49
1.16348e-48
1.37115e-48
1.10314e-48
6.44709e-49
2.84742e-49
9.8425e-50
2.75349e-50
6.42141e-51
1.27969e-51
2.22399e-52
3.4272e-53
4.74752e-54
5.97933e-55
6.91255e-56
7.39486e-57
7.371e-58
6.8867e-59
6.06218e-60
5.05055e-61
3.99821e-62
3.01807e-63
2.17911e-64
1.50909e-65
1.00487e-66
6.44799e-68
3.99501e-69
2.39425e-70
1.3902e-71
7.83211e-73
4.28694e-74
2.28248e-75
1.18342e-76
5.98103e-78
2.94933e-79
1.42021e-80
6.68346e-82
3.07603e-83
1.38552e-84
6.11151e-86
2.6415e-87
1.11935e-88
4.65286e-90
1.89816e-91
7.60339e-93
2.99186e-94
1.78708e-51
-4.71571e-51
-1.43509e-50
5.39882e-48
1.93831e-47
3.0884e-47
3.63165e-47
2.91061e-47
1.69809e-47
7.49026e-48
2.58395e-48
7.2074e-49
1.67454e-49
3.3227e-50
5.74756e-51
8.81392e-52
1.21491e-52
1.52262e-53
1.75177e-54
1.86523e-55
1.85085e-56
1.72183e-57
1.50953e-58
1.25282e-59
9.88215e-61
7.43456e-62
5.35111e-63
3.69497e-64
2.45372e-65
1.57049e-66
9.70726e-68
5.80467e-69
3.36333e-70
1.89103e-71
1.03307e-72
5.49008e-74
2.8413e-75
1.43343e-76
7.05583e-78
3.39156e-79
1.59318e-80
7.3191e-82
3.29055e-83
1.44867e-84
6.24909e-86
2.64271e-87
1.09621e-88
4.46239e-90
1.7835e-91
7.00176e-93
4.98564e-50
-1.24944e-49
-4.36551e-49
1.40343e-46
5.02573e-46
7.98023e-46
9.36333e-46
7.47536e-46
4.35501e-46
1.91928e-46
6.60977e-47
1.83859e-47
4.25626e-48
8.40988e-49
1.44806e-49
2.20998e-50
3.03149e-51
3.78102e-52
4.32963e-53
4.58918e-54
4.53411e-55
4.20077e-56
3.66862e-57
3.03377e-58
2.38502e-59
1.78874e-60
1.28377e-61
8.84107e-63
5.85672e-64
3.74008e-65
2.30689e-66
1.37674e-67
7.96224e-69
4.46884e-70
2.43718e-71
1.29307e-72
6.6812e-74
3.36521e-75
1.65379e-76
7.93634e-78
3.72185e-79
1.70689e-80
7.66034e-82
3.3663e-83
1.44935e-84
6.11715e-86
2.53223e-87
1.02861e-88
4.10201e-90
1.6067e-91
1.35622e-48
-3.21116e-48
-1.28078e-47
3.54673e-45
1.26687e-44
2.00469e-44
2.34697e-44
1.86647e-44
1.08622e-44
4.78481e-45
1.64556e-45
4.56574e-46
1.05329e-46
2.07264e-47
3.55276e-48
5.39672e-49
7.36779e-50
9.14649e-51
1.0426e-51
1.10029e-52
1.0826e-53
9.99123e-55
8.69408e-56
7.16559e-57
5.61599e-58
4.20009e-59
3.00665e-60
2.06577e-61
1.36552e-62
8.70304e-64
5.35833e-65
3.19242e-66
1.84338e-67
1.03304e-68
5.62573e-70
2.98051e-71
1.53783e-72
7.73477e-74
3.79566e-75
1.81877e-76
8.51626e-78
3.89942e-79
1.74709e-80
7.66405e-82
3.29368e-83
1.38746e-84
5.73193e-86
2.32345e-87
9.24538e-89
3.613e-90
3.59294e-47
-7.98823e-47
-3.626e-46
8.70185e-44
3.10041e-43
4.88914e-43
5.71136e-43
4.52429e-43
2.6313e-43
1.15912e-43
3.9823e-44
1.10239e-44
2.53475e-45
4.96798e-46
8.47844e-47
1.28201e-47
1.7422e-48
2.15301e-49
2.44348e-50
2.56799e-51
2.51686e-52
2.31439e-53
2.00722e-54
1.64931e-55
1.28908e-56
9.61688e-58
6.86893e-59
4.70993e-60
3.10776e-61
1.97746e-62
1.21567e-63
7.23283e-65
4.171e-66
2.33457e-67
1.26982e-68
6.71951e-70
3.46284e-71
1.73954e-72
8.52548e-74
4.07971e-75
1.90759e-76
8.72145e-78
3.90136e-79
1.70856e-80
7.32964e-82
3.08181e-83
1.27064e-84
5.13983e-86
2.04074e-87
7.9567e-89
9.25815e-46
-1.91857e-45
-9.90592e-45
2.06961e-42
7.35554e-42
1.1559e-41
1.34733e-41
1.06309e-41
6.18197e-42
2.72477e-42
9.35556e-43
2.58456e-43
5.92419e-44
1.15665e-44
1.96558e-45
2.95896e-46
4.00321e-47
4.92568e-48
5.56703e-49
5.82783e-50
5.69112e-51
5.21596e-52
4.51011e-53
3.69596e-54
2.88181e-55
2.14537e-56
1.5295e-57
1.04705e-58
6.89883e-60
4.38411e-61
2.69211e-62
1.60003e-63
9.2179e-65
5.1545e-66
2.80102e-67
1.4808e-68
7.62366e-70
3.82574e-71
1.87291e-72
8.9518e-74
4.18032e-75
1.90858e-76
8.52485e-78
3.72737e-79
1.59626e-80
6.69923e-82
2.7567e-83
1.11278e-84
4.40853e-86
1.71489e-87
2.3171e-44
-4.4352e-44
-2.61038e-43
4.76373e-41
1.68892e-40
2.64485e-40
3.07613e-40
2.41755e-40
1.40642e-40
6.20634e-41
2.13059e-41
5.87569e-42
1.34285e-42
2.61216e-43
4.4208e-44
6.62658e-45
8.92696e-46
1.09387e-46
1.23147e-47
1.28449e-48
1.25022e-49
1.14244e-50
9.85255e-52
8.0555e-53
6.26862e-54
4.6588e-55
3.31665e-56
2.26772e-57
1.49263e-58
9.47708e-60
5.815e-61
3.45368e-62
1.98839e-63
1.11116e-64
6.03418e-66
3.18782e-67
1.63995e-68
8.2227e-70
4.0217e-71
1.9202e-72
8.95655e-74
4.08396e-75
1.82155e-76
7.95214e-78
3.39979e-79
1.42424e-80
5.84922e-82
2.35621e-83
9.314e-85
3.61464e-86
5.62407e-43
-9.8311e-43
-6.6303e-42
1.05928e-39
3.74653e-39
5.8466e-39
6.78514e-39
5.31119e-39
3.09318e-39
1.36757e-39
4.69626e-40
1.29327e-40
2.94766e-41
5.71375e-42
9.63187e-43
1.43788e-43
1.92919e-44
2.35479e-45
2.64144e-46
2.74613e-47
2.66504e-48
2.42908e-49
2.09028e-50
1.70589e-51
1.32549e-52
9.83899e-54
6.99774e-55
4.78104e-56
3.14508e-57
1.99599e-58
1.22426e-59
7.26883e-61
4.18359e-62
2.33712e-63
1.2687e-64
6.69949e-66
3.44463e-67
1.72602e-68
8.43536e-70
4.0239e-71
1.87493e-72
8.53892e-74
3.80345e-75
1.65793e-76
7.07643e-78
2.95909e-79
1.2129e-80
4.87561e-82
1.923e-83
7.44523e-85
1.32165e-41
-2.07927e-41
-1.62157e-40
2.27108e-38
8.01362e-38
1.24618e-37
1.44308e-37
1.12505e-37
6.56444e-38
2.91017e-38
1.00022e-38
2.75145e-39
6.25563e-40
1.20857e-40
2.0297e-41
3.01828e-42
4.03426e-43
4.90669e-44
5.48607e-45
5.68705e-46
5.50542e-47
5.00754e-48
4.30188e-49
3.5062e-50
2.72169e-51
2.01891e-52
1.43527e-53
9.80379e-55
6.44855e-56
4.09251e-57
2.51033e-58
1.49058e-59
8.57953e-61
4.79285e-62
2.60157e-63
1.37352e-64
7.05988e-66
3.5359e-67
1.727e-68
8.23184e-70
3.83196e-71
1.74322e-72
7.75469e-74
3.37532e-75
1.4383e-76
6.00357e-78
2.45595e-79
9.85146e-81
3.87671e-82
1.49731e-83
3.00158e-40
-4.16817e-40
-3.81367e-39
4.68457e-37
1.64921e-36
2.55566e-36
2.95301e-36
2.29289e-36
1.34161e-36
5.96929e-37
2.05466e-37
5.64798e-38
1.28126e-38
2.46766e-39
4.12968e-40
6.11891e-41
8.15011e-42
9.88082e-43
1.10162e-43
1.13922e-44
1.10067e-45
9.99613e-47
8.57805e-48
6.98649e-49
5.42125e-50
4.02107e-51
2.85905e-52
1.95353e-53
1.28551e-54
8.16248e-56
5.00942e-57
2.97595e-58
1.71364e-59
9.5762e-61
5.19907e-62
2.74506e-63
1.41082e-64
7.06402e-66
3.44859e-67
1.64271e-68
7.64032e-70
3.47204e-71
1.54259e-72
6.70457e-74
2.8523e-75
1.1884e-76
4.85183e-78
1.94198e-79
7.62426e-81
2.93745e-82
6.5746e-39
-7.84318e-39
-8.61114e-38
9.27445e-36
3.2579e-35
5.03081e-35
5.80036e-35
4.48537e-35
2.63469e-35
1.17778e-35
4.06271e-36
1.11643e-36
2.52773e-37
4.85441e-38
8.0975e-39
1.19584e-39
1.58784e-40
1.91968e-41
2.13527e-42
2.20406e-43
2.12659e-44
1.92966e-45
1.65521e-46
1.34807e-47
1.04638e-48
7.76575e-50
5.52593e-51
3.77925e-52
2.48942e-53
1.5823e-54
9.72046e-56
5.77997e-57
3.33098e-58
1.86268e-59
1.01179e-60
5.3438e-62
2.74673e-63
1.37515e-64
6.71115e-66
3.19502e-67
1.48486e-68
6.74092e-70
2.99124e-71
1.29821e-72
5.5138e-74
2.29306e-75
9.34267e-77
3.73118e-78
1.46137e-79
5.61599e-81
1.3858e-37
-1.36397e-37
-1.86326e-36
1.75766e-34
6.1613e-34
9.48074e-34
1.09073e-33
8.39986e-34
4.95977e-34
2.23031e-34
7.71562e-35
2.12054e-35
4.79326e-36
9.18151e-37
1.52702e-37
2.24848e-38
2.97756e-39
3.59174e-40
3.98815e-41
4.11176e-42
3.96472e-43
3.59715e-44
3.08664e-45
2.51578e-46
1.95486e-47
1.45273e-48
1.03527e-49
7.09156e-51
4.67881e-52
2.97859e-53
1.83257e-54
1.09117e-55
6.29596e-57
3.52424e-58
1.91584e-59
1.01242e-60
5.20549e-62
2.60626e-63
1.27167e-64
6.05126e-66
2.81022e-67
1.27453e-68
5.64873e-70
2.44799e-71
1.03797e-72
4.30849e-74
1.75174e-75
6.97991e-77
2.72705e-78
1.04524e-79
2.80382e-36
-2.13034e-36
-3.85508e-35
3.17923e-33
1.11225e-32
1.70545e-32
1.95783e-32
1.50151e-32
8.92598e-33
4.04332e-33
1.40398e-33
3.86102e-34
8.71608e-35
1.66579e-35
2.76329e-36
4.05866e-37
5.36321e-38
6.45899e-39
7.16454e-40
7.38369e-41
7.12116e-42
6.46591e-43
5.55517e-44
4.53518e-45
3.53084e-46
2.62951e-47
1.87812e-48
1.28946e-49
8.5267e-51
5.43996e-52
3.35365e-53
2.00052e-54
1.15613e-55
6.48026e-57
3.52656e-58
1.86506e-59
9.59411e-61
4.80445e-62
2.34396e-63
1.11493e-64
5.17418e-66
2.34439e-67
1.03775e-68
4.49058e-70
1.90075e-71
7.87431e-73
3.19457e-74
1.26988e-75
4.94871e-77
1.89159e-78
5.42964e-35
-2.79795e-35
-7.60735e-34
5.4702e-32
1.91026e-31
2.91875e-31
3.34344e-31
2.55348e-31
1.53117e-31
6.99829e-32
2.44137e-32
6.72147e-33
1.51593e-33
2.89169e-34
4.78652e-35
7.01656e-36
9.25805e-37
1.11401e-37
1.23551e-38
1.274e-39
1.23019e-40
1.119e-41
9.63564e-43
7.88715e-44
6.15824e-45
4.60014e-46
3.29578e-47
2.26968e-48
1.50526e-49
9.63003e-51
5.95187e-52
3.5585e-53
2.06059e-54
1.15692e-55
6.30435e-57
3.33744e-58
1.71793e-59
8.60552e-61
4.19825e-62
1.99622e-63
9.25778e-65
4.19051e-66
1.85257e-67
8.00413e-69
3.38184e-70
1.39814e-71
5.65934e-73
2.24409e-74
8.72193e-76
3.3244e-77
1.00305e-33
-2.44224e-34
-1.42754e-32
8.91948e-31
3.10973e-30
4.73471e-30
5.41195e-30
4.11593e-30
2.49528e-30
1.15292e-30
4.04485e-31
1.11549e-31
2.51453e-32
4.7895e-33
7.91493e-34
1.15873e-34
1.52784e-35
1.83858e-36
2.04092e-37
2.10805e-38
2.04041e-39
1.86151e-40
1.60845e-41
1.32152e-42
1.0359e-43
7.76914e-45
5.58834e-46
3.86328e-47
2.57149e-48
1.6507e-49
1.02336e-50
6.13519e-52
3.56104e-53
2.0033e-54
1.09337e-55
5.79501e-57
2.98528e-58
1.49598e-59
7.29836e-61
3.46907e-62
1.60772e-63
7.26981e-65
3.20961e-66
1.38447e-67
5.83846e-69
2.4086e-70
9.72625e-72
3.84675e-73
1.49092e-74
5.66587e-76
1.76067e-32
1.21127e-33
-2.5386e-31
1.37235e-29
4.77798e-29
7.2491e-29
8.26821e-29
6.26163e-29
3.84881e-29
1.8017e-29
6.36413e-30
1.75914e-30
3.96521e-31
7.54529e-32
1.24566e-32
1.82272e-33
2.40405e-34
2.89653e-35
3.22226e-36
3.33832e-37
3.24338e-38
2.97186e-39
2.58007e-40
2.13042e-41
1.67849e-42
1.26522e-43
9.14546e-45
6.35195e-46
4.2465e-47
2.73686e-48
1.70285e-49
1.02412e-50
5.96048e-52
3.3607e-53
1.83752e-54
9.75208e-56
5.02821e-57
2.52086e-58
1.22988e-59
5.84372e-61
2.70622e-62
1.22237e-63
5.38906e-65
2.32057e-66
9.76641e-68
4.0199e-69
1.61922e-70
6.38661e-72
2.4681e-73
9.35031e-75
2.92194e-31
1.30451e-31
-4.26048e-30
1.98256e-28
6.89508e-28
1.04244e-27
1.18645e-27
8.94696e-28
5.59522e-28
2.66062e-28
9.47409e-29
2.62653e-29
5.92303e-30
1.12666e-30
1.85961e-31
2.72249e-32
3.59627e-33
4.34439e-34
4.85084e-35
5.04885e-36
4.93168e-37
4.54557e-38
3.97094e-39
3.29981e-40
2.61633e-41
1.98433e-42
1.44281e-43
1.00765e-44
6.77095e-46
4.38409e-47
2.739e-48
1.6532e-49
9.65114e-51
5.45527e-52
2.98866e-53
1.58845e-54
8.19786e-56
4.11188e-57
2.00612e-58
9.52804e-60
4.40882e-61
1.98903e-62
8.75558e-64
3.76322e-65
1.58041e-66
6.48935e-68
2.60699e-69
1.02531e-70
3.95013e-72
1.49163e-73
4.55359e-30
4.27838e-30
-6.71429e-29
2.67382e-27
9.29287e-27
1.40005e-26
1.59005e-26
1.19393e-26
7.6297e-27
3.69679e-27
1.32888e-27
3.69758e-28
8.34701e-29
1.5883e-29
2.62362e-30
3.84786e-31
5.09842e-32
6.18599e-33
6.94562e-34
7.27649e-35
7.15925e-36
6.64959e-37
5.85488e-38
4.9037e-39
3.9179e-40
2.99336e-41
2.19156e-42
1.54039e-43
1.04112e-44
6.77649e-46
4.25323e-47
2.57738e-48
1.50968e-49
8.55665e-51
4.69765e-52
2.50058e-53
1.29179e-54
6.48222e-56
3.16242e-57
1.50123e-58
6.94002e-60
3.12685e-61
1.3741e-62
5.89417e-64
2.46962e-65
1.01145e-66
4.05189e-68
1.58874e-69
6.10106e-71
2.29601e-72
6.59556e-29
1.09185e-28
-9.87392e-28
3.34384e-26
1.16197e-25
1.74453e-25
1.97708e-25
1.47815e-25
9.70516e-26
4.80929e-26
1.74794e-26
4.88512e-27
1.10467e-27
2.10464e-28
3.48358e-29
5.12654e-30
6.8267e-31
8.33715e-32
9.43436e-33
9.97093e-34
9.90283e-35
9.28728e-36
8.25686e-37
6.98117e-38
5.62852e-39
4.33723e-40
3.20076e-41
2.26614e-42
1.54172e-43
1.00933e-44
6.36718e-46
3.87512e-47
2.27798e-48
1.29485e-49
7.12446e-51
3.79827e-52
1.96402e-53
9.85922e-55
4.80921e-56
2.28152e-57
1.05359e-58
4.73993e-60
2.07912e-61
8.89888e-63
3.71932e-64
1.51908e-65
6.06727e-67
2.37134e-68
9.07537e-70
3.40313e-71
8.71901e-28
2.48266e-27
-1.34386e-26
3.84656e-25
1.3374e-24
2.00101e-24
2.26295e-24
1.68456e-24
1.14423e-24
5.82527e-25
2.14442e-25
6.02456e-26
1.36572e-26
2.60822e-27
4.33286e-28
6.41151e-29
8.60168e-30
1.06019e-30
1.21242e-31
1.29609e-32
1.30257e-33
1.23621e-34
1.11192e-35
9.50677e-37
7.74589e-38
6.02756e-39
4.48832e-40
3.20366e-41
2.19539e-42
1.44644e-43
9.17475e-45
5.60965e-46
3.3101e-47
1.88715e-48
1.04065e-49
5.55646e-51
2.87563e-52
1.44391e-53
7.04114e-55
3.33768e-56
1.53937e-57
6.91379e-59
3.02646e-60
1.29227e-61
5.38661e-63
2.19357e-64
8.7333e-66
3.40174e-67
1.29722e-68
4.84612e-70
1.0117e-26
5.28974e-26
-1.67359e-25
4.03065e-24
1.40353e-23
2.09287e-23
2.36185e-23
1.75056e-23
1.24091e-23
6.52708e-24
2.43852e-24
6.89258e-25
1.56782e-25
3.00571e-26
5.02204e-27
7.49261e-28
1.0159e-28
1.26789e-29
1.47009e-30
1.59443e-31
1.62597e-32
1.56537e-33
1.42743e-34
1.23633e-35
1.01953e-36
8.02171e-38
6.03334e-39
4.34522e-40
3.00128e-41
1.99099e-42
1.27025e-43
7.80425e-45
4.62304e-46
2.64361e-47
1.46098e-48
7.81188e-50
4.04579e-51
2.03165e-52
9.90229e-54
4.68919e-55
2.15949e-56
9.68056e-58
4.22797e-59
1.80061e-60
7.48379e-62
3.03797e-63
1.20541e-64
4.67838e-66
1.77732e-67
6.61358e-69
9.20901e-26
1.07917e-24
-1.87497e-24
3.80093e-23
1.32749e-22
1.97296e-22
2.22188e-22
1.63965e-22
1.22656e-22
6.71462e-23
2.55177e-23
7.26312e-24
1.65955e-24
3.19992e-25
5.39268e-26
8.14103e-27
1.12003e-27
1.4212e-28
1.6772e-29
1.85199e-30
1.9222e-31
1.88208e-32
1.74375e-33
1.53278e-34
1.28124e-35
1.02056e-36
7.76099e-38
5.6442e-39
3.9317e-40
2.62722e-41
1.68639e-42
1.04125e-43
6.19234e-45
3.55146e-46
1.96675e-47
1.05294e-48
5.45602e-50
2.73942e-51
1.33422e-52
6.31015e-54
2.90095e-55
1.29764e-56
5.65317e-58
2.40073e-59
9.94685e-61
4.02418e-62
1.59097e-63
6.15134e-65
2.32763e-66
8.62569e-68
3.24145e-25
2.11779e-23
-1.83834e-23
3.17546e-22
1.1152e-21
1.6522e-21
1.85683e-21
1.3643e-21
1.09239e-21
6.28651e-22
2.43673e-22
6.99018e-23
1.60654e-23
3.12359e-24
5.32994e-25
8.18048e-26
1.14783e-26
1.48814e-27
1.7955e-28
2.02634e-29
2.14752e-30
2.14433e-31
2.02313e-32
1.8082e-33
1.53444e-34
1.23889e-35
9.53476e-37
7.00705e-38
4.92508e-39
3.316e-40
2.14183e-41
1.32907e-42
7.93449e-44
4.5634e-45
2.53185e-46
1.35684e-47
7.03249e-49
3.52944e-50
1.71723e-51
8.10901e-53
3.72042e-54
1.66017e-55
7.21242e-57
3.05342e-58
1.26085e-59
5.08257e-61
2.00174e-62
7.70856e-64
2.90473e-65
1.0718e-66
-1.21292e-23
3.97082e-22
-1.50737e-22
2.29878e-21
8.16557e-21
1.20623e-20
1.35301e-20
9.89815e-21
8.63639e-21
5.30199e-21
2.10261e-21
6.08323e-22
1.4086e-22
2.77154e-23
4.81404e-24
7.55954e-25
1.08878e-25
1.45084e-26
1.79874e-27
2.08344e-28
2.26234e-29
2.31016e-30
2.22465e-31
2.02547e-32
1.74759e-33
1.43189e-34
1.11627e-35
8.29462e-37
5.88485e-38
3.993e-39
2.59529e-40
1.61836e-41
9.69691e-43
5.59126e-44
3.10697e-45
1.6662e-46
8.63515e-48
4.33048e-49
2.10412e-50
9.91736e-52
4.53953e-53
2.02018e-54
8.74956e-56
3.69174e-57
1.51892e-58
6.09934e-60
2.39249e-61
9.17456e-63
3.4421e-64
1.26439e-65
-4.27769e-22
7.02827e-21
-1.00846e-21
1.3872e-20
5.07964e-20
7.48647e-20
8.38609e-20
6.10871e-20
5.93864e-20
3.98127e-20
1.62062e-20
4.72948e-21
1.10571e-21
2.21305e-22
3.94251e-23
6.38787e-24
9.5197e-25
1.31274e-25
1.68164e-26
2.00788e-27
2.24178e-28
2.34776e-29
2.31303e-30
2.14938e-31
1.88833e-32
1.57184e-33
1.24215e-34
9.33692e-36
6.68794e-37
4.57323e-38
2.99065e-39
1.87358e-40
1.12637e-41
6.5089e-43
3.62114e-44
1.94251e-45
1.00624e-46
5.04046e-48
2.44488e-49
1.14979e-50
5.24906e-52
2.32887e-53
1.00528e-54
4.22625e-56
1.73211e-57
6.92714e-59
2.70564e-60
1.03297e-61
3.8579e-63
1.41054e-64
-9.41829e-21
1.16087e-19
-9.80538e-21
6.27021e-20
2.58301e-19
3.80858e-19
4.27515e-19
3.09963e-19
3.44742e-19
2.62822e-19
1.10055e-19
3.23573e-20
7.66028e-21
1.57194e-21
2.90357e-22
4.90864e-23
7.64243e-24
1.09887e-24
1.46287e-25
1.80862e-26
2.08377e-27
2.24478e-28
2.26805e-29
2.15513e-30
1.93062e-31
1.63419e-32
1.30985e-33
9.96209e-35
7.20416e-36
4.96359e-37
3.26478e-38
2.05401e-39
1.23842e-40
7.16867e-42
3.99101e-43
2.14056e-44
1.10782e-45
5.54067e-47
2.68185e-48
1.25798e-49
5.72584e-51
2.53195e-52
1.08897e-53
4.56031e-55
1.86135e-56
7.41203e-58
2.88214e-59
1.0953e-60
4.07141e-62
1.48144e-63
-1.65481e-19
1.77663e-18
-3.42044e-19
9.25877e-20
9.86948e-19
1.49236e-18
1.72914e-18
1.23218e-18
1.6119e-18
1.50784e-18
6.47377e-19
1.90939e-19
4.59934e-20
9.80159e-21
1.90724e-21
3.41282e-22
5.61236e-23
8.4808e-24
1.18011e-24
1.51771e-25
1.81125e-26
2.01335e-27
2.09134e-28
2.03578e-29
1.86188e-30
1.60375e-31
1.30413e-32
1.00353e-33
7.32456e-35
5.08261e-36
3.36072e-37
2.12215e-38
1.28246e-39
7.43217e-41
4.13838e-42
2.2181e-43
1.14635e-44
5.72199e-46
2.76268e-47
1.29208e-48
5.86156e-50
2.58255e-51
1.1064e-52
4.61414e-54
1.87517e-55
7.43347e-57
2.87706e-58
1.08816e-59
4.02519e-61
1.45736e-62
-2.3949e-18
2.5379e-17
-1.35063e-17
-2.59475e-18
1.54611e-18
3.88224e-18
6.85075e-18
3.64714e-18
5.59651e-18
7.47865e-18
3.22134e-18
9.4327e-19
2.33539e-19
5.28607e-20
1.109e-20
2.13737e-21
3.75527e-22
6.00971e-23
8.7923e-24
1.18198e-24
1.4672e-25
1.68851e-26
1.80768e-27
1.80562e-28
1.68745e-29
1.47954e-30
1.22045e-31
9.49774e-33
6.99246e-34
4.88342e-35
3.2437e-36
2.05432e-37
1.24348e-38
7.20991e-40
4.01289e-41
2.14823e-42
1.10816e-43
5.51791e-45
2.65642e-46
1.2383e-47
5.59717e-49
2.45642e-50
1.048e-51
4.35153e-53
1.76044e-54
6.94601e-56
2.67548e-57
1.00695e-58
3.70618e-60
1.33506e-61
-2.78688e-17
3.806e-16
-8.17826e-16
-5.34655e-17
-2.97608e-17
7.67936e-18
3.08852e-16
1.22363e-17
1.26089e-17
3.23889e-17
1.30038e-17
3.70338e-18
9.68919e-19
2.4295e-19
5.67608e-20
1.2005e-20
2.27755e-21
3.88888e-22
6.02014e-23
8.50814e-24
1.10373e-24
1.31973e-25
1.45949e-26
1.49765e-27
1.43063e-28
1.27646e-29
1.06739e-30
8.39348e-32
6.22728e-33
4.37289e-34
2.91515e-35
1.85013e-36
1.12084e-37
6.49762e-39
3.61267e-40
1.93058e-41
9.93548e-43
4.93314e-44
2.36716e-45
1.09947e-46
4.95027e-48
2.16349e-49
9.18996e-51
3.79857e-52
1.52952e-53
6.00583e-55
2.30194e-56
8.6202e-58
3.15658e-59
1.13121e-60
-2.12475e-16
3.13238e-15
-1.11516e-14
7.5366e-14
-3.65993e-16
1.6584e-13
1.22083e-14
1.43724e-15
5.83227e-16
1.63133e-16
3.83661e-17
1.03375e-17
3.13947e-18
9.43445e-19
2.54953e-19
6.01003e-20
1.24223e-20
2.2819e-21
3.76854e-22
5.63931e-23
7.6861e-24
9.57978e-25
1.09603e-25
1.15566e-26
1.12772e-27
1.02283e-28
8.65935e-30
6.87149e-31
5.13104e-32
3.61865e-33
2.41859e-34
1.53681e-35
9.31076e-37
5.39283e-38
2.99352e-39
1.5961e-40
8.19133e-42
4.05409e-43
1.93841e-44
8.96847e-46
4.02133e-47
1.74988e-48
7.39946e-50
3.0442e-51
1.21989e-52
4.7665e-54
1.81779e-55
6.77258e-57
2.46724e-58
8.79578e-60
5.34335e-13
-2.67497e-12
1.48673e-11
3.52911e-11
1.95568e-11
1.85198e-12
-1.14443e-12
1.27746e-13
5.43586e-14
5.73088e-15
2.41933e-17
1.48601e-17
7.80751e-18
3.1337e-18
1.0018e-18
2.64937e-19
6.02262e-20
1.20517e-20
2.14857e-21
3.43381e-22
4.9414e-23
6.43206e-24
7.61222e-25
8.23689e-26
8.19598e-27
7.54178e-28
6.45226e-29
5.15803e-30
3.87068e-31
2.73806e-32
1.83278e-33
1.16491e-34
7.0527e-36
4.07888e-37
2.25931e-38
1.20142e-39
6.1466e-41
3.03153e-42
1.44401e-43
6.65404e-45
2.97088e-46
1.28704e-47
5.41734e-49
2.21821e-50
8.84595e-52
3.43936e-53
1.30508e-54
4.83768e-56
1.75331e-57
6.21815e-59
8.88743e-12
-1.82191e-10
1.32681e-09
9.03283e-10
1.58229e-10
-1.80059e-09
-5.15397e-11
1.5657e-11
5.657e-12
4.31399e-13
5.47631e-17
2.42806e-17
1.85545e-17
9.1641e-18
3.37996e-18
1.00404e-18
2.56037e-19
5.70859e-20
1.11633e-20
1.92063e-21
2.92422e-22
3.97015e-23
4.84683e-24
5.36492e-25
5.42664e-26
5.05232e-27
4.35787e-28
3.50284e-29
2.63752e-30
1.86907e-31
1.25175e-32
7.95215e-34
4.80821e-35
2.77536e-36
1.53347e-37
8.13057e-39
4.14601e-40
2.03748e-41
9.66768e-43
4.43676e-44
1.97248e-45
8.5074e-47
3.56458e-48
1.45275e-49
5.76574e-51
2.23086e-52
8.42336e-54
3.10676e-55
1.12028e-56
3.95285e-58
-1.08557e-08
-8.60004e-10
6.69609e-09
-2.03602e-07
-4.82409e-07
-2.9233e-08
2.44064e-09
1.7194e-09
5.38135e-10
3.89164e-11
1.37311e-14
8.50873e-17
3.53216e-17
2.12974e-17
9.18311e-18
3.14802e-18
9.49359e-19
2.44663e-19
5.32438e-20
9.8715e-21
1.58273e-21
2.22751e-22
2.78869e-23
3.14188e-24
3.21767e-25
3.02152e-26
2.62126e-27
2.11467e-28
1.59553e-29
1.13156e-30
7.57677e-32
4.80869e-33
2.90284e-34
1.67198e-35
9.21445e-37
4.87124e-38
2.47594e-39
1.2125e-40
5.73177e-42
2.62016e-43
1.1601e-44
4.98238e-46
2.07849e-47
8.43302e-49
3.33162e-50
1.28305e-51
4.8216e-53
1.76979e-54
6.35069e-56
2.22977e-57
-2.25221e-06
1.1827e-05
-1.84098e-05
-4.74402e-05
-4.83514e-06
2.09376e-07
2.53588e-07
1.68575e-07
5.2579e-08
3.51074e-09
1.00783e-12
1.88184e-14
1.00932e-16
3.53059e-17
1.86289e-17
7.86328e-18
3.16287e-18
9.75822e-19
2.3511e-19
4.62841e-20
7.70562e-21
1.11183e-21
1.4159e-22
1.61435e-23
1.66715e-24
1.5746e-25
1.37132e-26
1.10897e-27
8.37807e-29
5.9441e-30
3.97873e-31
2.52277e-32
1.52071e-33
8.74257e-35
4.80732e-36
2.5349e-37
1.28478e-38
6.27229e-40
2.95528e-41
1.34622e-42
5.93867e-44
2.54078e-45
1.05573e-46
4.26588e-48
1.67823e-49
6.43525e-51
2.40769e-52
8.79794e-54
3.14268e-55
1.09832e-56
-1.08176e-05
0.000120561
-0.000909283
-0.000219798
0.00699899
0.011025
0.0135641
0.00921038
0.00141677
1.92387e-08
6.42341e-11
1.27084e-12
1.88768e-14
8.59181e-17
2.44663e-17
1.50074e-17
1.04031e-17
3.72343e-18
9.48007e-19
1.91843e-19
3.25016e-20
4.74929e-21
6.10716e-22
7.01605e-23
7.28849e-24
6.91538e-25
6.0435e-26
4.89976e-27
3.70817e-28
2.63373e-29
1.76378e-30
1.11832e-31
6.73789e-33
3.87013e-34
2.12538e-35
1.1189e-36
5.66008e-38
2.75716e-39
1.29588e-40
5.88723e-42
2.5895e-43
1.10444e-44
4.57404e-46
1.84185e-47
7.21989e-49
2.75815e-50
1.02795e-51
3.7413e-53
1.33096e-54
4.6321e-56
9.38112e-05
0.000123703
-0.00419911
0.0256854
0.110658
0.17064
0.199976
0.178096
0.0905275
0.0187123
0.000150392
6.52425e-11
1.02496e-12
1.3971e-14
5.62476e-17
2.44531e-17
3.848e-17
1.30382e-17
3.23018e-18
6.49199e-19
1.10363e-19
1.62502e-20
2.1081e-21
2.44282e-22
2.55787e-23
2.44409e-24
2.14912e-25
1.75162e-26
1.33157e-27
9.49252e-29
6.37608e-30
4.05219e-31
2.44565e-32
1.40637e-33
7.72832e-35
4.06919e-36
2.05785e-37
1.00173e-38
4.70315e-40
2.13363e-41
9.36859e-43
3.98771e-44
1.64775e-45
6.61833e-47
2.58722e-48
9.85469e-50
3.66134e-51
1.32819e-52
4.70877e-54
1.63291e-55
0.00208044
-0.0071723
-0.00366692
0.128994
0.368177
0.552996
0.632762
0.615673
0.415911
0.152378
0.0187124
1.93061e-08
3.52653e-09
3.91145e-11
4.33121e-13
5.74922e-15
1.63228e-16
3.23924e-17
7.48345e-18
1.50936e-18
2.63141e-19
3.98651e-20
5.30919e-21
6.29509e-22
6.72369e-23
6.53574e-24
5.83284e-25
4.81538e-26
3.70134e-27
2.6638e-28
1.8038e-29
1.15423e-30
7.00598e-32
4.04764e-33
2.23262e-34
1.17897e-35
5.97516e-37
2.91296e-38
1.36885e-39
6.21199e-41
2.72719e-42
1.16012e-43
4.78887e-45
1.92087e-46
7.49632e-48
2.84967e-49
1.05637e-50
3.82255e-52
1.35153e-53
4.67329e-55
0.00640357
-0.0265856
0.0343908
0.294773
0.629942
0.885219
0.968952
1.01363
0.847256
0.415911
0.0905278
0.00141681
5.26364e-08
5.38701e-10
5.66248e-12
5.44104e-14
5.83632e-16
1.25937e-17
5.59215e-18
1.61131e-18
3.44725e-19
5.93969e-20
8.63924e-21
1.09286e-21
1.22716e-22
1.24156e-23
1.14485e-24
9.71045e-26
7.63384e-27
5.59822e-28
3.85084e-29
2.49656e-30
1.53194e-31
8.93038e-33
4.96215e-34
2.63592e-35
1.34222e-36
6.56735e-38
3.09451e-39
1.40701e-40
6.1845e-42
2.63235e-43
1.08664e-44
4.35666e-46
1.69872e-47
6.44941e-49
2.38696e-50
8.62106e-52
3.04155e-53
1.04918e-54
0.00714436
-0.0291788
0.0308449
0.371425
0.778591
0.994059
1.01415
1.06967
1.01363
0.615673
0.178096
0.00921038
1.68582e-07
1.71945e-09
1.56583e-11
1.27699e-13
1.43749e-15
1.22384e-17
3.64711e-18
1.23224e-18
3.09981e-19
6.10904e-20
9.89866e-21
1.36437e-21
1.63973e-22
1.75063e-23
1.68463e-24
1.4782e-25
1.19396e-26
8.9472e-28
6.26178e-29
4.11601e-30
2.55352e-31
1.50153e-32
8.39993e-34
4.48539e-35
2.2929e-36
1.12505e-37
5.31116e-39
2.41753e-40
1.06308e-41
4.52423e-43
1.86644e-44
7.47521e-46
2.91054e-47
1.10311e-48
4.07447e-50
1.46828e-51
5.1674e-53
1.77778e-54
0.00384787
-0.0136508
-0.00804588
0.289062
0.757216
0.975596
0.990791
1.01415
0.968952
0.632762
0.199976
0.0135639
2.53442e-07
2.43935e-09
-5.15553e-11
-1.14424e-12
1.22033e-14
3.0877e-16
6.85069e-18
1.72868e-18
4.27393e-19
8.38372e-20
1.35263e-20
1.85631e-21
2.22127e-22
2.3612e-23
2.26233e-24
1.97655e-25
1.58963e-26
1.18613e-27
8.26601e-29
5.41052e-30
3.34256e-31
1.95731e-32
1.09045e-33
5.79886e-35
2.95225e-36
1.44271e-37
6.78342e-39
3.07536e-40
1.34699e-41
5.70994e-43
2.34639e-44
9.36103e-46
3.63077e-47
1.37082e-48
5.04405e-50
1.81082e-51
6.34906e-53
2.17619e-54
3.14368e-05
0.0024423
-0.028434
0.089059
0.469576
0.826
0.975596
0.994059
0.885219
0.552996
0.17064
0.011025
2.0945e-07
-2.92297e-08
-1.80022e-09
1.85172e-12
1.65807e-13
7.74097e-18
3.88271e-18
1.49232e-18
3.80838e-19
7.48606e-20
1.20616e-20
1.65211e-21
1.97285e-22
2.09276e-23
2.0009e-24
1.74444e-25
1.39997e-26
1.04239e-27
7.24873e-29
4.73446e-30
2.9186e-31
1.70537e-32
9.48027e-34
5.03056e-35
2.55554e-36
1.24612e-37
5.84632e-39
2.64472e-40
1.15584e-41
4.88891e-43
2.0046e-44
7.97986e-46
3.08826e-47
1.16342e-48
4.27149e-50
1.53008e-51
5.35291e-53
1.8307e-54
-0.000719097
0.00357741
-0.00881087
-0.0371264
0.12024
0.469576
0.757216
0.778591
0.629942
0.368177
0.110658
0.00699896
-4.83474e-06
-4.82365e-07
1.58172e-10
1.95506e-11
-3.61213e-16
-2.95927e-17
1.54862e-18
9.86968e-19
2.58303e-19
5.07966e-20
8.16558e-21
1.1152e-21
1.3275e-22
1.40354e-23
1.33741e-24
1.16198e-25
9.29298e-27
6.89517e-28
4.77805e-29
3.10978e-30
1.9103e-31
1.11227e-32
6.16144e-34
3.25798e-35
1.64925e-36
8.01383e-38
3.74664e-39
1.68897e-40
7.35577e-42
3.10051e-43
1.26691e-44
5.02592e-46
1.93839e-47
7.27739e-49
2.66277e-50
9.50588e-52
3.31432e-53
1.12967e-54
0.000240843
-0.00156359
0.00785668
-0.0151988
-0.0371264
0.089059
0.289062
0.371425
0.294773
0.128994
0.0256856
-0.000219764
-4.74361e-05
-2.03684e-07
9.02475e-10
3.52602e-11
7.53933e-14
-5.36005e-17
-2.61949e-18
9.15705e-20
6.27257e-20
1.3882e-20
2.30037e-21
3.17755e-22
3.80338e-23
4.03322e-24
3.849e-25
3.34596e-26
2.6755e-27
1.98381e-28
1.37321e-29
8.92508e-31
5.47362e-32
3.18122e-33
1.75876e-34
9.28024e-36
4.68749e-37
2.2725e-38
1.05994e-39
4.7667e-41
2.0709e-42
8.70726e-44
3.54893e-45
1.4043e-46
5.40217e-48
2.02292e-49
7.38257e-51
2.62863e-52
9.14097e-54
3.10749e-55
-4.37154e-05
0.000327399
-0.0020906
0.00785668
-0.00881086
-0.028434
-0.00804583
0.0308448
0.0343908
-0.00366681
-0.00419918
-0.000909308
-1.8412e-05
6.69304e-09
1.32564e-09
1.48471e-11
-1.10764e-14
-8.11789e-16
-1.35193e-17
-3.42744e-19
-9.79498e-21
-1.00552e-21
-1.50511e-22
-1.83705e-23
-1.87429e-24
-1.67321e-25
-1.34361e-26
-9.87203e-28
-6.71288e-29
-4.25948e-30
-2.53795e-31
-1.42714e-32
-7.60501e-34
-3.85381e-35
-1.86261e-36
-8.60793e-38
-3.81217e-39
-1.6209e-40
-6.62741e-42
-2.60918e-43
-9.90114e-45
-3.62416e-46
-1.28009e-47
-4.36302e-49
-1.43421e-50
-4.54139e-52
-1.38207e-53
-4.02683e-55
-1.1159e-56
-2.90691e-58
5.46741e-06
-4.4941e-05
0.000327399
-0.00156359
0.00357742
0.00244228
-0.0136507
-0.0291789
-0.0265856
-0.00717223
0.000123726
0.000120568
1.18274e-05
-8.59398e-10
-1.82028e-10
-2.67225e-12
3.11996e-15
3.79439e-16
2.53478e-17
1.77588e-18
1.1609e-19
7.03024e-21
3.97268e-22
2.11934e-23
1.08048e-24
5.30046e-26
2.49103e-27
1.09793e-28
4.31957e-30
1.33059e-31
1.36655e-33
-2.35487e-34
-2.75128e-35
-2.10657e-36
-1.35238e-37
-7.78899e-39
-4.14379e-40
-2.06869e-41
-9.7867e-43
-4.41716e-44
-1.91146e-45
-7.961e-47
-3.20101e-48
-1.24576e-49
-4.70268e-51
-1.72518e-52
-6.16038e-54
-2.14435e-55
-7.28555e-57
-2.41887e-58
-6.18606e-07
5.46741e-06
-4.37154e-05
0.000240843
-0.000719099