/*--------------------------------*- C++ -*----------------------------------*\
| =========                 |                                                 |
| \\      /  F ield         | OpenFOAM: The Open Source CFD Toolbox           |
|  \\    /   O peration     | Version:  v2006                                 |
|   \\  /    A nd           | Website:  www.openfoam.com                      |
|    \\/     M anipulation  |                                                 |
\*---------------------------------------------------------------------------*/
FoamFile
{
    version     2.0;
    format      ascii;
    class       volScalarField;
    location    "0";
    object      p;
}
// * * * * * * * * * * * * * * * * * * * * * * * * * * * * * * * * * * * * * //

dimensions      [1 -1 -2 0 0 0 0];


internalField   nonuniform List<scalar> 
67500
(
7.64438
6.71817
6.30843
4.95906
4.84001
5.31366
3.93887
5.17538
6.97863
6.38679
2.68068
1.2666
0.838849
0.126556
-0.865398
-1.9627
-1.56533
1.05158
1.26725
-0.309427
-0.830565
-0.341705
0.295865
0.86946
1.13418
1.2571
1.40164
1.55112
1.59851
1.44548
1.16076
0.943441
0.839824
0.78536
0.749761
0.73689
0.773263
0.873623
1.01476
1.15874
1.2687
1.31547
1.2908
1.20598
1.08706
0.965331
0.867513
0.807911
0.788724
0.802162
0.831676
0.85648
0.85971
0.834105
0.784346
0.723141
0.665424
0.624228
0.608644
0.62233
0.665016
0.733887
0.82541
0.936876
1.06692
1.21549
1.37432
1.47424
1.40347
1.25671
1.13073
1.03108
0.959076
0.918738
0.909714
0.931238
0.982525
1.06214
1.16649
1.28141
1.36511
1.37775
1.35339
1.32954
1.31566
1.31874
1.34499
1.39723
1.47575
1.57777
1.69666
1.81834
1.91478
1.9635
1.98813
2.02373
2.07847
2.1488
2.2272
2.29913
2.35241
2.39328
2.43798
2.49251
2.55341
2.61491
2.673
2.72905
2.78556
2.84118
2.89362
2.94298
2.99112
3.03893
3.08532
3.12883
3.16839
3.20286
3.23103
3.25226
3.2667
3.27479
3.277
3.27377
3.2654
3.25194
3.23332
3.20941
3.18014
3.14551
3.10568
3.06088
3.01145
2.95776
2.9002
2.83918
2.77506
2.70819
2.6389
2.5675
2.4943
2.41957
2.34363
2.26677
2.1893
2.11152
2.03373
1.95624
1.87934
1.80332
1.72844
1.65494
1.58306
1.51296
1.44483
1.37878
1.31492
1.25331
1.194
1.13699
1.08229
1.02987
0.979692
0.931707
0.885855
0.842069
0.800277
0.760403
0.72237
0.686098
0.651508
0.61852
0.587056
0.557039
0.528395
0.50105
0.474933
0.449978
0.426119
0.403296
0.381449
0.360525
0.340473
0.321245
0.302798
0.28509
0.268084
0.251743
0.236036
0.220932
0.206401
0.192416
0.178952
0.165982
0.153484
0.141434
0.129809
0.118588
0.107751
0.0972753
0.0871422
0.0773319
0.0678257
0.0586058
0.049655
0.040957
0.0324967
0.0242601
0.0162345
0.00840849
0.000772153
-0.00668287
-0.0139634
-0.0210746
-0.0280202
-0.0348022
-0.0414214
-0.047877
-0.0541671
-0.0602889
-0.0662384
-0.072011
-0.0776015
-0.0830045
-0.0882142
-0.0932247
-0.0980305
-0.102626
-0.107006
-0.111167
-0.115103
-0.118812
-0.12229
-0.125536
-0.128549
-0.131327
-0.133871
-0.136183
-0.138263
-0.140114
-0.141741
-0.143146
-0.144334
-0.145311
-0.146083
-0.146655
-0.147035
-0.14723
-0.147248
-0.147096
-0.146783
-0.146316
-0.145705
-0.144957
-0.144081
-0.143086
-0.141979
-0.14077
-0.139466
-0.138075
-0.136605
-0.135063
-0.133456
-0.131792
-0.130077
-0.128318
-0.12652
-0.124689
-0.122832
-0.120952
-0.119056
-0.117148
-0.115233
-0.113314
-0.111395
-0.10948
-0.107573
-0.105677
-0.103794
-0.101928
-0.100081
-0.0982557
-0.0964537
-0.0946773
-0.0929283
-0.0912084
-0.0895191
-0.0878618
-0.0862377
-0.084648
-0.0830934
-0.081575
-0.0800934
-0.0786491
-0.0772427
-0.0758744
-0.0745446
-0.0732532
-0.0720004
-0.0707859
-0.0696096
-0.0684712
-0.0673701
-0.0663058
-0.0652777
-0.0642848
-0.0633264
-0.0624014
-0.0615088
-0.0606473
-0.0598156
-0.0590123
-0.0582361
-0.0574853
-0.0567584
-0.0560537
-0.0553695
-0.0547042
-0.054056
-0.0534232
-0.052804
-0.0521968
-0.0515998
-0.0510115
-0.0504301
-0.0498542
-0.0492824
-0.0487132
-0.0481453
-0.0475774
-0.0470085
-0.0464376
-0.0458637
-0.0452859
-0.0447037
-0.0441164
-0.0435236
-0.042925
-0.0423204
-0.0417099
-0.0410935
-0.0404714
-0.0398439
-0.0392116
-0.0385749
-0.0379343
-0.0372906
-0.0366441
-0.0359956
-0.0353457
-0.0346947
-0.0340432
-0.0333916
-0.0327403
-0.0320898
-0.0314403
-0.0307924
-0.0301465
-0.0295032
-0.0288629
-0.0282264
-0.0275944
-0.0269676
-0.0263467
-0.0257325
-0.0251259
-0.0245276
-0.0239383
-0.0233586
-0.0227892
-0.0222306
-0.0216833
-0.0211475
-0.0206236
-0.0201118
-0.0196122
-0.0191248
-0.0186497
-0.0181866
-0.0177355
-0.0172963
-0.0168685
-0.0164521
-0.0160466
-0.0156518
-0.0152673
-0.0148928
-0.0145279
-0.0141722
-0.0138254
-0.0134871
-0.0131569
-0.0128345
-0.0125196
-0.0122117
-0.0119105
-0.0116158
-0.0113272
-0.0110444
-0.0107671
-0.010495
-0.0102279
-0.00996549
-0.00970754
-0.00945381
-0.00920408
-0.00895813
-0.00871576
-0.00847677
-0.00824099
-0.00800823
-0.00777833
-0.00755113
-0.00732648
-0.00710424
-0.00688427
-0.00666644
-0.00645064
-0.00623674
-0.00602464
-0.00581422
-0.00560541
-0.00539809
-0.00519218
-0.00498759
-0.00478426
-0.00458209
-0.00438101
-0.00418097
-0.00398189
-0.00378371
-0.00358636
-0.0033898
-0.00319397
-0.00299881
-0.00280427
-0.00261032
-0.00241689
-0.00222395
-0.00203145
-0.00183934
-0.0016476
-0.00145618
-0.00126503
-0.00107419
-0.000883303
-0.00069336
-0.000500454
-0.000315505
-8.76493e-05
7.31163
5.66579
4.56296
4.68427
4.68072
4.42331
2.53213
0.911468
2.38504
1.84706
-1.0881
-0.162364
-0.748469
-1.61066
-2.8827
-3.70186
-3.12838
-1.74568
-0.208981
0.658476
0.952091
0.0729934
0.0192939
0.592296
1.07961
1.36193
1.45132
1.4806
1.46305
1.27162
0.944425
0.772531
0.70175
0.636888
0.580288
0.556241
0.612359
0.736817
0.887574
1.0318
1.14045
1.19392
1.18732
1.13093
1.04336
0.944519
0.85244
0.780746
0.740208
0.730367
0.740158
0.755614
0.761379
0.747177
0.708993
0.651045
0.584978
0.525036
0.484113
0.471863
0.492245
0.543574
0.621443
0.720876
0.837807
0.978289
1.17724
1.37592
1.24835
1.04152
0.903181
0.808551
0.750074
0.728359
0.740579
0.786133
0.864426
0.972801
1.10992
1.2701
1.39028
1.37094
1.30581
1.25635
1.22193
1.20824
1.22127
1.26396
1.33759
1.44048
1.56867
1.71147
1.82734
1.86425
1.86916
1.8991
1.95719
2.0378
2.13239
2.21781
2.26978
2.30088
2.34129
2.39778
2.46361
2.52973
2.58906
2.64565
2.7048
2.76365
2.81808
2.86845
2.9183
2.96912
3.01903
3.066
3.10906
3.14695
3.17799
3.2015
3.21794
3.22798
3.23218
3.23111
3.22508
3.21407
3.19788
3.17632
3.14925
3.11665
3.07866
3.03555
2.98768
2.93546
2.8793
2.81961
2.75676
2.6911
2.62296
2.55264
2.48043
2.40663
2.33153
2.25544
2.17866
2.1015
2.02427
1.94728
1.87084
1.79523
1.72073
1.64759
1.57603
1.50626
1.43844
1.3727
1.30913
1.24781
1.18878
1.13205
1.07762
1.02546
0.97554
0.927799
0.882181
0.838618
0.797039
0.757368
0.719526
0.683436
0.649017
0.616191
0.58488
0.555007
0.526498
0.49928
0.473282
0.448438
0.424683
0.401955
0.380198
0.359356
0.33938
0.320222
0.301838
0.28419
0.267237
0.250947
0.235287
0.220225
0.205735
0.191787
0.178358
0.165422
0.152955
0.140935
0.129339
0.118146
0.107335
0.0968842
0.0867749
0.0769875
0.0675031
0.0583038
0.0493722
0.0406922
0.0322484
0.0240268
0.0160146
0.00820039
0.000574109
-0.00687259
-0.0141465
-0.0212528
-0.0281951
-0.0349755
-0.0415944
-0.048051
-0.0543434
-0.0604682
-0.0664217
-0.0721988
-0.0777943
-0.0832025
-0.0884175
-0.0934333
-0.0982441
-0.102844
-0.107229
-0.111393
-0.115332
-0.119044
-0.122524
-0.125771
-0.128784
-0.131562
-0.134105
-0.136414
-0.138492
-0.14034
-0.141962
-0.143363
-0.144546
-0.145517
-0.146282
-0.146848
-0.147221
-0.147408
-0.147418
-0.147258
-0.146936
-0.146461
-0.145841
-0.145085
-0.144201
-0.143197
-0.142082
-0.140865
-0.139553
-0.138154
-0.136677
-0.135128
-0.133514
-0.131843
-0.130122
-0.128356
-0.126552
-0.124716
-0.122853
-0.120969
-0.119069
-0.117156
-0.115236
-0.113313
-0.111391
-0.109473
-0.107563
-0.105663
-0.103778
-0.101909
-0.10006
-0.0982322
-0.0964282
-0.0946499
-0.0928993
-0.0911778
-0.0894872
-0.0878287
-0.0862035
-0.0846128
-0.0830574
-0.0815383
-0.0800561
-0.0786114
-0.0772046
-0.0758361
-0.0745061
-0.0732148
-0.071962
-0.0707478
-0.0695719
-0.0684339
-0.0673334
-0.0662698
-0.0652424
-0.0642504
-0.063293
-0.0623692
-0.0614777
-0.0606175
-0.0597872
-0.0589854
-0.0582106
-0.0574614
-0.0567361
-0.0560331
-0.0553507
-0.0546871
-0.0540406
-0.0534095
-0.052792
-0.0521865
-0.0515911
-0.0510044
-0.0504246
-0.0498502
-0.0492797
-0.0487118
-0.0481451
-0.0475784
-0.0470105
-0.0464404
-0.0458672
-0.0452901
-0.0447083
-0.0441213
-0.0435287
-0.0429302
-0.0423256
-0.0417148
-0.0410982
-0.0404757
-0.039848
-0.0392152
-0.0385781
-0.0379373
-0.0372932
-0.0366465
-0.0359978
-0.0353477
-0.0346967
-0.0340451
-0.0333935
-0.0327422
-0.0320915
-0.0314418
-0.0307936
-0.0301472
-0.0295033
-0.0288623
-0.028225
-0.0275921
-0.0269643
-0.0263424
-0.0257272
-0.0251196
-0.0245203
-0.0239301
-0.0233496
-0.0227795
-0.0222203
-0.0216724
-0.0211362
-0.020612
-0.0200999
-0.0196002
-0.0191127
-0.0186376
-0.0181746
-0.0177237
-0.0172846
-0.0168571
-0.016441
-0.0160358
-0.0156413
-0.0152572
-0.014883
-0.0145185
-0.0141632
-0.0138167
-0.0134788
-0.013149
-0.012827
-0.0125123
-0.0122048
-0.011904
-0.0116096
-0.0113213
-0.0110387
-0.0107617
-0.0104899
-0.0102231
-0.00996092
-0.0097032
-0.0094497
-0.00920018
-0.00895444
-0.00871227
-0.00847347
-0.00823786
-0.00800527
-0.00777553
-0.00754849
-0.00732398
-0.00710188
-0.00688204
-0.00666434
-0.00644865
-0.00623486
-0.00602286
-0.00581255
-0.00560383
-0.0053966
-0.00519077
-0.00498627
-0.00478301
-0.00458092
-0.00437991
-0.00417994
-0.00398092
-0.0037828
-0.00358552
-0.00338901
-0.00319323
-0.00299812
-0.00280364
-0.00260973
-0.00241634
-0.00222345
-0.00203099
-0.00183893
-0.00164723
-0.00145585
-0.00126473
-0.00107393
-0.000883081
-0.000693174
-0.000500304
-0.000315393
-8.76012e-05
6.46254
5.19417
5.07093
4.73181
5.07939
4.19153
-0.305391
-0.0144797
0.194233
-0.359485
-0.430288
0.0577819
0.543602
-0.991791
-2.45771
-3.08836
-2.74713
-1.8682
-0.966212
-0.586179
-0.0365154
1.06797
0.982288
0.522968
0.779398
1.39335
1.89252
2.25361
2.35717
1.60491
0.628016
0.519815
0.578267
0.506358
0.417826
0.338919
0.478011
0.727205
0.902378
0.966293
0.939738
0.836997
0.680692
0.512539
0.366583
0.279262
0.272499
0.329535
0.423777
0.519294
0.581513
0.589237
0.541468
0.455479
0.358377
0.275548
0.224623
0.208578
0.220321
0.250334
0.291746
0.341919
0.405856
0.497739
0.635915
0.848087
1.25246
1.77903
1.33207
1.04384
0.904783
0.782515
0.689699
0.62806
0.592759
0.584664
0.603314
0.649114
0.740274
0.942293
1.19694
1.11714
0.999085
0.943082
0.911236
0.902362
0.921407
0.972234
1.05987
1.18568
1.35157
1.5632
1.74608
1.72963
1.66438
1.67061
1.72204
1.80967
1.93004
2.04331
2.0865
2.0922
2.12655
2.19252
2.27608
2.35902
2.42268
2.48041
2.54613
2.61217
2.66972
2.72015
2.77221
2.82901
2.8861
2.94007
2.99046
3.03563
3.07255
3.10043
3.12065
3.13442
3.14249
3.14571
3.14445
3.13843
3.12722
3.11044
3.0878
3.05923
3.0249
2.98515
2.94038
2.89108
2.83769
2.78065
2.72034
2.65711
2.59126
2.5231
2.45289
2.38093
2.30751
2.23294
2.15754
2.08161
2.00549
1.92949
1.85394
1.77915
1.7054
1.63295
1.56206
1.49292
1.42571
1.36057
1.29759
1.23685
1.17838
1.12221
1.06832
1.01669
0.967268
0.920014
0.874861
0.831744
0.790589
0.75132
0.713861
0.678132
0.644054
0.61155
0.580543
0.550956
0.522716
0.49575
0.469988
0.445365
0.421815
0.399279
0.377699
0.357022
0.337197
0.318179
0.299925
0.282395
0.265553
0.249364
0.233797
0.218823
0.204414
0.190542
0.177184
0.164315
0.151912
0.139952
0.128413
0.117274
0.106515
0.0961143
0.0860526
0.0763103
0.0668687
0.0577098
0.0488162
0.0401714
0.03176
0.0235679
0.0155819
0.0077906
0.000183894
-0.00724666
-0.0145079
-0.0216049
-0.0285411
-0.0353185
-0.0419373
-0.0483964
-0.0546935
-0.060825
-0.0667867
-0.0725732
-0.078179
-0.083598
-0.0888238
-0.0938504
-0.0986716
-0.103282
-0.107675
-0.111847
-0.115793
-0.119509
-0.122993
-0.126243
-0.129256
-0.132033
-0.134574
-0.13688
-0.138952
-0.140793
-0.142407
-0.143798
-0.14497
-0.145929
-0.146682
-0.147233
-0.147592
-0.147764
-0.147758
-0.147581
-0.147243
-0.146751
-0.146114
-0.145341
-0.14444
-0.143419
-0.142288
-0.141055
-0.139727
-0.138313
-0.13682
-0.135257
-0.133629
-0.131945
-0.130211
-0.128433
-0.126617
-0.12477
-0.122897
-0.121003
-0.119093
-0.117171
-0.115243
-0.113312
-0.111383
-0.109458
-0.107541
-0.105636
-0.103745
-0.101871
-0.100017
-0.098185
-0.096377
-0.0945951
-0.0928411
-0.0911166
-0.0894232
-0.0877623
-0.0861349
-0.0845423
-0.0829853
-0.0814648
-0.0799814
-0.0785357
-0.0771283
-0.0757593
-0.0744291
-0.0731378
-0.0718853
-0.0706715
-0.0694963
-0.0683592
-0.0672598
-0.0661975
-0.0651717
-0.0641816
-0.0632262
-0.0623045
-0.0614155
-0.0605578
-0.0597303
-0.0589314
-0.0581597
-0.0574137
-0.0566917
-0.055992
-0.055313
-0.0546529
-0.0540099
-0.0533823
-0.0527682
-0.052166
-0.051574
-0.0509904
-0.0504136
-0.0498422
-0.0492745
-0.0487093
-0.0481451
-0.0475807
-0.0470149
-0.0464468
-0.0458754
-0.0452998
-0.0447194
-0.0441335
-0.0435418
-0.0429438
-0.0423394
-0.0417287
-0.0411116
-0.0404884
-0.0398596
-0.0392256
-0.038587
-0.0379444
-0.0372985
-0.03665
-0.0359994
-0.0353474
-0.0346946
-0.0340413
-0.0333881
-0.0327353
-0.0320832
-0.0314322
-0.0307828
-0.0301352
-0.0294901
-0.028848
-0.0282096
-0.0275755
-0.0269466
-0.0263236
-0.0257074
-0.0250988
-0.0244987
-0.0239076
-0.0233264
-0.0227557
-0.022196
-0.0216478
-0.0211113
-0.020587
-0.020075
-0.0195753
-0.0190881
-0.0186133
-0.0181507
-0.0177003
-0.0172617
-0.0168348
-0.0164193
-0.0160148
-0.015621
-0.0152376
-0.0148642
-0.0145004
-0.0141458
-0.0138001
-0.0134629
-0.0131338
-0.0128124
-0.0124985
-0.0121916
-0.0118914
-0.0115977
-0.01131
-0.011028
-0.0107515
-0.0104803
-0.0102139
-0.00995226
-0.00969501
-0.00944195
-0.00919285
-0.00894751
-0.00870572
-0.00846729
-0.00823203
-0.00799977
-0.00777034
-0.00754359
-0.00731937
-0.00709753
-0.00687794
-0.00666048
-0.00644502
-0.00623144
-0.00601965
-0.00580953
-0.00560099
-0.00539394
-0.00518828
-0.00498394
-0.00478083
-0.00457888
-0.00437801
-0.00417816
-0.00397927
-0.00378126
-0.00358409
-0.00338769
-0.00319201
-0.002997
-0.00280261
-0.00260879
-0.0024155
-0.00222269
-0.00203031
-0.00183833
-0.00164671
-0.0014554
-0.00126436
-0.00107363
-0.000882853
-0.000693016
-0.000500218
-0.000315363
-8.76446e-05
6.48607
5.41421
4.19711
2.56318
0.387914
-0.138101
-0.250794
-0.235371
-0.226821
-0.316764
-0.372505
-0.381043
-0.531203
-0.821727
-1.02581
-0.608799
-0.642368
-0.516712
-0.0388401
0.751978
0.85225
0.357508
-0.802381
-0.0580664
0.331476
0.471685
0.496805
0.834895
1.56366
1.21952
0.274676
0.245859
0.365282
0.464873
0.525047
0.381025
0.328443
0.322353
0.319938
0.315246
0.308638
0.299412
0.288695
0.278365
0.271809
0.271018
0.273806
0.27499
0.273445
0.270947
0.268246
0.265165
0.261424
0.257428
0.254281
0.253394
0.255422
0.259253
0.262394
0.262508
0.259047
0.253655
0.24937
0.251914
0.274318
0.346761
0.664301
2.1331
0.758396
0.23857
0.153143
0.08616
0.034044
0.018175
0.0432443
0.118911
0.259573
0.472826
0.745152
1.24323
1.8776
1.39321
1.1114
0.964255
0.839737
0.756373
0.711659
0.699919
0.728534
0.800227
0.91352
1.15502
1.52348
1.3869
1.19284
1.18559
1.27101
1.42276
1.64203
1.85553
1.86649
1.79927
1.81827
1.89218
1.99704
2.10496
2.16496
2.21816
2.29607
2.37796
2.44324
2.49285
2.54894
2.61758
2.68724
2.75182
2.8135
2.87022
2.91562
2.94908
2.97435
2.99342
3.0071
3.01681
3.02297
3.0247
3.02116
3.01173
2.99582
2.97329
2.94441
2.90962
2.86946
2.82449
2.77524
2.72218
2.6657
2.60613
2.54375
2.47884
2.41165
2.34247
2.27158
2.19929
2.12594
2.05186
1.97738
1.90287
1.82865
1.75506
1.68242
1.61101
1.5411
1.4729
1.40661
1.34236
1.28027
1.2204
1.16279
1.10745
1.05437
1.00353
0.954873
0.908351
0.8639
0.821451
0.780933
0.74227
0.705383
0.670197
0.636632
0.604612
0.57406
0.544903
0.517066
0.490479
0.465073
0.440781
0.41754
0.39529
0.373975
0.353542
0.333942
0.315131
0.297067
0.279712
0.263031
0.24699
0.231561
0.216714
0.202423
0.188663
0.175409
0.162639
0.15033
0.138459
0.127006
0.115949
0.105269
0.0949431
0.0849534
0.07528
0.065904
0.0568071
0.0479718
0.0393813
0.03102
0.0228733
0.014928
0.00717235
-0.000403973
-0.00780946
-0.0150509
-0.0221334
-0.0290602
-0.0358329
-0.0424514
-0.0489142
-0.0552184
-0.0613601
-0.0673342
-0.0731351
-0.0787564
-0.0841917
-0.089434
-0.0944769
-0.0993136
-0.103938
-0.108345
-0.112528
-0.116484
-0.120208
-0.123698
-0.126951
-0.129966
-0.132741
-0.135279
-0.137578
-0.139642
-0.141473
-0.143075
-0.144452
-0.145608
-0.146549
-0.147282
-0.147813
-0.148149
-0.148298
-0.148268
-0.148067
-0.147703
-0.147186
-0.146524
-0.145725
-0.144798
-0.143753
-0.142597
-0.141339
-0.139987
-0.13855
-0.137035
-0.135449
-0.133801
-0.132097
-0.130343
-0.128547
-0.126714
-0.12485
-0.122961
-0.121052
-0.119128
-0.117193
-0.115253
-0.11331
-0.111369
-0.109434
-0.107508
-0.105594
-0.103695
-0.101814
-0.0999525
-0.0981138
-0.0962998
-0.0945124
-0.0927534
-0.0910244
-0.0893269
-0.0876623
-0.0860317
-0.0844362
-0.0828767
-0.0813541
-0.079869
-0.078422
-0.0770135
-0.0756439
-0.0743133
-0.073022
-0.0717698
-0.0705568
-0.0693825
-0.0682468
-0.0671491
-0.0660889
-0.0650655
-0.064078
-0.0631256
-0.0622073
-0.0613219
-0.0604681
-0.0596447
-0.0588502
-0.0580831
-0.0573419
-0.0566248
-0.0559302
-0.0552564
-0.0546014
-0.0539637
-0.0533412
-0.0527323
-0.0521352
-0.0515481
-0.0509693
-0.0503972
-0.0498302
-0.0492668
-0.0487054
-0.0481448
-0.0475838
-0.047021
-0.0464554
-0.0458862
-0.0453124
-0.0447333
-0.0441483
-0.043557
-0.0429592
-0.0423546
-0.0417433
-0.0411255
-0.0405014
-0.0398716
-0.0392365
-0.0385969
-0.0379534
-0.0373067
-0.0366576
-0.0360068
-0.0353547
-0.0347019
-0.0340488
-0.0333957
-0.0327428
-0.0320905
-0.031439
-0.0307886
-0.0301397
-0.0294927
-0.0288483
-0.0282073
-0.0275703
-0.0269382
-0.0263119
-0.0256925
-0.0250806
-0.0244773
-0.0238834
-0.0232996
-0.0227265
-0.0221648
-0.0216149
-0.0210771
-0.0205517
-0.020039
-0.0195389
-0.0190515
-0.0185768
-0.0181145
-0.0176645
-0.0172266
-0.0168005
-0.0163858
-0.0159822
-0.0155895
-0.0152071
-0.0148348
-0.0144721
-0.0141186
-0.013774
-0.0134379
-0.0131099
-0.0127897
-0.0124768
-0.0121709
-0.0118717
-0.0115789
-0.0112921
-0.0110111
-0.0107355
-0.010465
-0.0101994
-0.00993851
-0.00968198
-0.0094296
-0.00918116
-0.00893643
-0.00869523
-0.00845736
-0.00822263
-0.00799088
-0.00776193
-0.00753564
-0.00731184
-0.00709042
-0.00687122
-0.00665413
-0.00643902
-0.00622578
-0.0060143
-0.00580448
-0.00559623
-0.00538945
-0.00518405
-0.00497995
-0.00477707
-0.00457534
-0.00437469
-0.00417504
-0.00397634
-0.00377852
-0.00358152
-0.00338529
-0.00318977
-0.00299491
-0.00280067
-0.00260699
-0.00241383
-0.00222115
-0.00202891
-0.00183705
-0.00164555
-0.00145437
-0.00126344
-0.00107282
-0.000882155
-0.000692427
-0.00049974
-0.000314998
-8.74805e-05
7.0547
6.56055
2.4354
0.115779
-0.230477
-0.298164
-0.295979
-0.274916
-0.300208
-0.362474
-0.421922
-0.506665
-0.65013
-0.858195
-1.09816
-1.27293
-1.28498
-2.49932
-3.31991
0.405184
3.17965
5.51923
0.504161
0.473253
0.404426
0.351623
0.365899
0.306189
0.293064
0.442513
0.403575
0.353704
0.341989
0.354047
0.371514
0.361607
0.335945
0.317509
0.311429
0.307781
0.303528
0.298514
0.293093
0.287607
0.282418
0.277902
0.274385
0.271909
0.270173
0.268867
0.267775
0.266759
0.265716
0.264559
0.26334
0.262209
0.261314
0.260726
0.260503
0.26072
0.261336
0.262107
0.263171
0.267039
0.28191
0.318856
0.36225
0.287312
0.0670145
0.137342
0.170361
0.183707
0.190086
0.193983
0.1972
0.202294
0.214105
0.242039
0.313419
0.587682
2.42107
0.850324
0.39465
0.323527
0.226898
0.142499
0.104513
0.106938
0.171913
0.34802
0.6356
1.22895
2.17089
1.42729
1.06935
1.01341
0.975253
1.02929
1.25188
1.63949
1.51744
1.28047
1.28243
1.40395
1.59996
1.80044
1.83838
1.87431
1.97597
2.08113
2.14847
2.18155
2.2376
2.32482
2.41496
2.49532
2.57558
2.65214
2.70962
2.74865
2.77933
2.80461
2.82499
2.84338
2.86009
2.8728
2.88005
2.88079
2.87394
2.85938
2.83762
2.8093
2.77515
2.73589
2.69212
2.64436
2.59301
2.53836
2.48066
2.42013
2.35699
2.29152
2.224
2.15475
2.08413
2.01248
1.94017
1.86759
1.79511
1.7231
1.6519
1.58185
1.51322
1.44627
1.38118
1.31813
1.25721
1.1985
1.14204
1.08782
1.03583
0.986043
0.938404
0.892859
0.849343
0.807787
0.768116
0.730257
0.694133
0.659666
0.626781
0.595403
0.565456
0.536868
0.509566
0.483481
0.458545
0.434693
0.411861
0.389992
0.36903
0.348923
0.329625
0.311092
0.293284
0.276164
0.259699
0.243859
0.228615
0.21394
0.199809
0.186199
0.173086
0.160448
0.148264
0.136512
0.125172
0.114223
0.103646
0.093419
0.0835238
0.0739404
0.06465
0.055634
0.0468747
0.0383549
0.0300587
0.0219711
0.0140784
0.00636871
-0.00116855
-0.00854204
-0.0157586
-0.0228231
-0.0297387
-0.0365065
-0.043126
-0.0495952
-0.0559104
-0.062067
-0.0680592
-0.0738804
-0.0795238
-0.084982
-0.0902474
-0.0953129
-0.100171
-0.104816
-0.109241
-0.11344
-0.11741
-0.121145
-0.124642
-0.1279
-0.130916
-0.133691
-0.136223
-0.138515
-0.140568
-0.142385
-0.14397
-0.145327
-0.146461
-0.147378
-0.148085
-0.148587
-0.148894
-0.149012
-0.14895
-0.148715
-0.148318
-0.147767
-0.14707
-0.146237
-0.145276
-0.144197
-0.143007
-0.141717
-0.140333
-0.138865
-0.13732
-0.135705
-0.134029
-0.132298
-0.130519
-0.128698
-0.126842
-0.124956
-0.123046
-0.121117
-0.119174
-0.117222
-0.115264
-0.113306
-0.111351
-0.109402
-0.107463
-0.105538
-0.103627
-0.101736
-0.0998653
-0.098018
-0.096196
-0.0944014
-0.0926357
-0.0909007
-0.0891979
-0.0875284
-0.0858935
-0.0842942
-0.0827315
-0.081206
-0.0797186
-0.0782698
-0.0768599
-0.0754894
-0.0741584
-0.0728671
-0.0716154
-0.0704033
-0.0692304
-0.0680965
-0.0670011
-0.0659436
-0.0649233
-0.0639395
-0.0629911
-0.0620773
-0.0611967
-0.0603482
-0.0595303
-0.0587418
-0.0579809
-0.0572461
-0.0565357
-0.0558479
-0.055181
-0.0545331
-0.0539024
-0.053287
-0.052685
-0.0520947
-0.0515143
-0.0509419
-0.050376
-0.049815
-0.0492572
-0.0487013
-0.0481458
-0.0475895
-0.0470312
-0.0464698
-0.0459043
-0.0453339
-0.0447577
-0.0441752
-0.0435857
-0.0429891
-0.042385
-0.0417734
-0.0411546
-0.0405287
-0.0398964
-0.0392582
-0.0386149
-0.0379674
-0.0373164
-0.0366628
-0.0360075
-0.0353511
-0.0346942
-0.0340373
-0.0333808
-0.0327248
-0.0320697
-0.0314156
-0.0307628
-0.0301117
-0.0294626
-0.0288162
-0.028173
-0.027534
-0.0269
-0.0262718
-0.0256505
-0.025037
-0.0244321
-0.0238367
-0.0232517
-0.0226776
-0.0221151
-0.0215646
-0.0210265
-0.0205011
-0.0199885
-0.0194887
-0.0190019
-0.0185279
-0.0180665
-0.0176175
-0.0171807
-0.0167558
-0.0163425
-0.0159403
-0.015549
-0.0151681
-0.0147972
-0.014436
-0.0140841
-0.0137409
-0.0134063
-0.0130797
-0.0127609
-0.0124494
-0.0121448
-0.0118469
-0.0115553
-0.0112697
-0.0109898
-0.0107153
-0.0104459
-0.0101814
-0.00992142
-0.00966581
-0.00941431
-0.00916671
-0.00892278
-0.00868234
-0.00844519
-0.00821115
-0.00798005
-0.00775172
-0.00752601
-0.00730278
-0.00708188
-0.00686318
-0.00664656
-0.0064319
-0.00621909
-0.00600802
-0.00579859
-0.0055907
-0.00538426
-0.00517919
-0.0049754
-0.00477282
-0.00457137
-0.00437099
-0.0041716
-0.00397314
-0.00377555
-0.00357877
-0.00338275
-0.00318743
-0.00299277
-0.00279871
-0.00260522
-0.00241223
-0.00221972
-0.00202764
-0.00183594
-0.00164459
-0.00145355
-0.00126277
-0.00107229
-0.000881768
-0.000692177
-0.000499632
-0.000314998
-8.76086e-05
6.27997
3.96231
0.333823
-0.234826
-0.279166
-0.292914
-0.316827
-0.329434
-0.362085
-0.417677
-0.480411
-0.568061
-0.725691
-0.934331
-1.20365
-1.60081
-1.61625
-1.73515
-0.897558
-1.29044
-0.516342
0.0219549
0.320168
0.387015
0.369671
0.358907
0.360342
0.357912
0.356933
0.360655
0.345113
0.335079
0.3509
0.358945
0.357193
0.339772
0.32021
0.312259
0.309304
0.30553
0.300849
0.295973
0.291271
0.286903
0.282848
0.27905
0.275512
0.272266
0.269401
0.267039
0.265185
0.263758
0.262705
0.261922
0.261297
0.260834
0.260508
0.260259
0.260002
0.259728
0.259471
0.259099
0.258624
0.259103
0.263843
0.275068
0.280702
0.271411
0.232195
0.222366
0.22008
0.218979
0.217962
0.216951
0.215987
0.215588
0.218315
0.234555
0.272952
0.323914
0.276242
0.0688895
0.127812
0.1584
0.170804
0.17551
0.179093
0.182573
0.185615
0.203695
0.262745
0.402648
3.3243
0.630128
-0.277041
-0.0738736
0.112141
0.383897
1.03325
2.18978
1.45651
1.03166
1.03893
1.02199
1.17017
1.52234
1.42736
1.37598
1.51533
1.69936
1.78794
1.77713
1.83726
1.96141
2.08055
2.17347
2.27735
2.38313
2.45347
2.49473
2.53151
2.56517
2.59368
2.62371
2.65504
2.68239
2.70398
2.71816
2.72279
2.71799
2.70485
2.68432
2.65745
2.62518
2.58821
2.5471
2.50222
2.45382
2.40206
2.34708
2.28905
2.22824
2.16494
2.09949
2.03225
1.96361
1.89397
1.82376
1.7534
1.68331
1.61388
1.54548
1.47842
1.413
1.34942
1.28785
1.22841
1.17116
1.11613
1.06332
1.0127
0.964241
0.917882
0.873564
0.831221
0.790781
0.752172
0.715319
0.680146
0.646579
0.614544
0.583966
0.554774
0.526897
0.500264
0.474807
0.450458
0.427154
0.404832
0.383435
0.362909
0.343203
0.324273
0.306077
0.288578
0.271742
0.255538
0.239938
0.224916
0.210448
0.19651
0.183081
0.170138
0.157663
0.145633
0.134029
0.12283
0.112018
0.101571
0.09147
0.0816958
0.0722285
0.0630489
0.0541381
0.045478
0.0370508
0.0288399
0.0208299
0.0130067
0.00535756
-0.00212817
-0.00945941
-0.016643
-0.0236838
-0.0305845
-0.0373459
-0.0439666
-0.0504439
-0.0567732
-0.0629489
-0.0689643
-0.0748117
-0.0804832
-0.0859706
-0.0912655
-0.0963598
-0.101246
-0.105916
-0.110364
-0.114584
-0.11857
-0.122319
-0.125826
-0.12909
-0.132108
-0.13488
-0.137407
-0.139689
-0.141728
-0.143528
-0.145092
-0.146424
-0.147531
-0.148417
-0.149091
-0.149558
-0.149827
-0.149906
-0.149803
-0.149527
-0.149087
-0.148493
-0.147752
-0.146876
-0.145872
-0.14475
-0.143519
-0.142188
-0.140764
-0.139257
-0.137674
-0.136023
-0.134312
-0.132547
-0.130736
-0.128885
-0.126999
-0.125086
-0.123149
-0.121195
-0.119229
-0.117255
-0.115277
-0.113299
-0.111326
-0.10936
-0.107406
-0.105465
-0.103541
-0.101637
-0.099755
-0.0978969
-0.0960651
-0.0942614
-0.0924875
-0.0907451
-0.0890355
-0.0873599
-0.0857197
-0.0841157
-0.0825489
-0.08102
-0.0795298
-0.0780786
-0.0766671
-0.0752955
-0.0739639
-0.0726726
-0.0714215
-0.0702105
-0.0690394
-0.0679077
-0.0668152
-0.0657611
-0.0647448
-0.0637655
-0.0628222
-0.0619138
-0.0610394
-0.0601974
-0.0593866
-0.0586054
-0.0578523
-0.0571256
-0.0564236
-0.0557444
-0.0550862
-0.0544471
-0.0538252
-0.0532186
-0.0526254
-0.0520437
-0.0514716
-0.0509074
-0.0503494
-0.0497958
-0.049245
-0.0486956
-0.0481462
-0.0475953
-0.0470417
-0.0464845
-0.0459224
-0.0453546
-0.0447805
-0.0441992
-0.0436105
-0.0430139
-0.0424093
-0.0417969
-0.0411769
-0.0405496
-0.0399158
-0.0392762
-0.0386316
-0.0379831
-0.0373316
-0.036678
-0.036023
-0.0353674
-0.0347116
-0.0340558
-0.0334003
-0.0327451
-0.0320901
-0.0314355
-0.0307812
-0.0301276
-0.0294751
-0.0288243
-0.0281761
-0.0275313
-0.0268911
-0.0262566
-0.0256289
-0.0250091
-0.0243983
-0.0237975
-0.0232075
-0.0226291
-0.0220628
-0.0215092
-0.0209687
-0.0204414
-0.0199275
-0.019427
-0.0189399
-0.0184661
-0.0180052
-0.0175571
-0.0171214
-0.0166978
-0.0162859
-0.0158854
-0.0154958
-0.0151168
-0.0147478
-0.0143885
-0.0140384
-0.0136972
-0.0133645
-0.0130398
-0.0127227
-0.012413
-0.0121101
-0.0118139
-0.0115239
-0.0112399
-0.0109615
-0.0106884
-0.0104204
-0.0101571
-0.00989842
-0.009644
-0.00939364
-0.00914712
-0.00890423
-0.00866477
-0.00842855
-0.0081954
-0.00796514
-0.00773761
-0.00751266
-0.00729015
-0.00706993
-0.00685189
-0.00663588
-0.00642181
-0.00620955
-0.00599901
-0.00579007
-0.00558266
-0.00537667
-0.00517203
-0.00496865
-0.00476646
-0.00456538
-0.00436534
-0.00416629
-0.00396815
-0.00377086
-0.00357438
-0.00337863
-0.00318359
-0.00298918
-0.00279537
-0.00260211
-0.00240935
-0.00221706
-0.00202519
-0.0018337
-0.00164255
-0.00145171
-0.00126112
-0.00107084
-0.000880499
-0.000691089
-0.000498729
-0.000314292
-8.72643e-05
4.26431
0.0624461
-0.12587
-0.201325
-0.272585
-0.316037
-0.360807
-0.403778
-0.456473
-0.514096
-0.575408
-0.652378
-0.781259
-0.960751
-1.25041
-1.63118
-1.99005
-2.77493
-0.844828
-0.0479164
-0.0638403
-0.0349152
0.0790076
0.198111
0.262179
0.308339
0.335982
0.353317
0.367124
0.372219
0.362993
0.351663
0.349005
0.349163
0.349492
0.342761
0.33179
0.321663
0.314841
0.309127
0.30357
0.298156
0.292928
0.287971
0.283381
0.279205
0.275502
0.272288
0.269521
0.267157
0.265158
0.263473
0.26206
0.260898
0.259951
0.259169
0.25854
0.258042
0.25761
0.257168
0.256672
0.256079
0.255357
0.254615
0.254215
0.253993
0.250428
0.24126
0.233292
0.229591
0.226554
0.223734
0.220781
0.217816
0.214733
0.211806
0.211353
0.218637
0.234503
0.258069
0.248827
0.210735
0.200498
0.200042
0.201165
0.201105
0.201386
0.203522
0.205917
0.214147
0.250826
0.295679
0.262186
0.0212916
0.124988
0.17447
0.209035
0.266426
0.370463
3.64552
0.862233
-0.454674
-0.0511152
0.267994
0.759641
1.68549
1.14992
1.10699
1.24258
1.42948
1.46401
1.28757
1.30653
1.48619
1.6704
1.77181
1.92124
2.08556
2.16432
2.1912
2.22964
2.27043
2.30548
2.35179
2.40526
2.45291
2.49389
2.52549
2.54361
2.54989
2.54662
2.53498
2.51654
2.49247
2.46354
2.43043
2.39346
2.35273
2.30824
2.26003
2.20821
2.15302
2.09478
2.03386
1.97065
1.90557
1.83907
1.77163
1.70374
1.63587
1.56847
1.50198
1.43676
1.37313
1.31133
1.25154
1.19388
1.13839
1.08511
1.034
0.985047
0.938191
0.893374
0.850533
0.809598
0.770498
0.73316
0.697511
0.663476
0.630983
0.59996
0.570337
0.542045
0.515014
0.489178
0.464468
0.440821
0.418171
0.39646
0.375631
0.35563
0.33641
0.317927
0.300142
0.283021
0.266533
0.250648
0.235343
0.220592
0.206375
0.192671
0.17946
0.166723
0.15444
0.142594
0.131163
0.120131
0.109477
0.0991823
0.0892277
0.0795935
0.0702601
0.0612083
0.0524187
0.0438727
0.0355519
0.0274391
0.0195182
0.0117742
0.00419414
-0.00323333
-0.0105174
-0.017665
-0.0246807
-0.0315671
-0.0383241
-0.0449499
-0.0514405
-0.0577903
-0.0639926
-0.0700392
-0.0759213
-0.0816298
-0.0871552
-0.0924881
-0.0976194
-0.10254
-0.107243
-0.111721
-0.115966
-0.119974
-0.123739
-0.127259
-0.13053
-0.133551
-0.136321
-0.13884
-0.14111
-0.143132
-0.14491
-0.146448
-0.14775
-0.148823
-0.149672
-0.150305
-0.150728
-0.150952
-0.150982
-0.15083
-0.150503
-0.150011
-0.149365
-0.148572
-0.147643
-0.146587
-0.145414
-0.144132
-0.142751
-0.141279
-0.139725
-0.138097
-0.136402
-0.134649
-0.132843
-0.130994
-0.129105
-0.127185
-0.125238
-0.12327
-0.121287
-0.119292
-0.117292
-0.115289
-0.113288
-0.111293
-0.109308
-0.107334
-0.105376
-0.103436
-0.101517
-0.0996206
-0.0977497
-0.0959061
-0.0940917
-0.092308
-0.0905567
-0.088839