/*--------------------------------*- C++ -*----------------------------------*\
| =========                 |                                                 |
| \\      /  F ield         | OpenFOAM: The Open Source CFD Toolbox           |
|  \\    /   O peration     | Version:  v2006                                 |
|   \\  /    A nd           | Website:  www.openfoam.com                      |
|    \\/     M anipulation  |                                                 |
\*---------------------------------------------------------------------------*/
FoamFile
{
    version     2.0;
    format      ascii;
    class       volScalarField;
    location    "6.5";
    object      r;
}
// * * * * * * * * * * * * * * * * * * * * * * * * * * * * * * * * * * * * * //

dimensions      [1 2 0 0 0 0 0];


internalField   nonuniform List<scalar> 
350
(
-5.3158e-138
3.25146e-136
-1.0573e-134
3.45804e-133
-1.12307e-131
3.62268e-130
-1.1605e-128
3.69145e-127
-1.16584e-125
3.65526e-124
-1.13757e-122
3.51368e-121
-1.07699e-119
3.27546e-118
-9.88275e-117
2.95779e-115
-8.7796e-114
2.58425e-112
-7.54182e-111
2.18187e-109
-6.25634e-108
1.77776e-106
-5.00507e-105
1.39589e-103
-3.85576e-102
1.05463e-100
-2.85586e-99
7.6546e-98
-2.03031e-96
5.32791e-95
-1.38294e-93
3.54971e-92
-9.00775e-91
2.25921e-89
-5.59877e-88
1.37057e-86
-3.31322e-85
7.90686e-84
-1.86217e-82
4.32665e-81
-9.91384e-80
2.23939e-78
-4.98477e-77
1.09297e-75
-2.35958e-74
5.01334e-73
-1.0478e-71
2.15313e-70
-4.34782e-69
8.62265e-68
-1.67849e-66
3.20504e-65
-5.99921e-64
1.09999e-62
-1.9742e-61
3.46533e-60
-5.94387e-59
9.9531e-58
-1.62543e-56
2.58597e-55
-4.00315e-54
6.02194e-53
-8.79024e-52
1.2431e-50
-1.70016e-49
2.24434e-48
-2.85326e-47
3.48453e-46
-4.07595e-45
4.5511e-44
-4.83114e-43
4.85185e-42
-4.58205e-41
4.03779e-40
-3.28606e-39
2.43406e-38
-1.60481e-37
9.05996e-37
-4.02838e-36
1.05567e-35
2.35599e-35
-4.76756e-34
2.82381e-33
-5.8691e-33
-4.15984e-32
3.94284e-31
-8.22096e-31
-7.32844e-30
5.08628e-29
4.3925e-29
-1.55734e-27
1.76004e-27
4.28487e-26
-7.93478e-26
-1.27092e-24
1.51899e-24
4.05721e-23
3.56651e-23
-1.1579e-21
-5.02803e-21
1.59544e-20
2.34003e-19
7.52334e-19
-2.90484e-18
-4.31734e-17
-2.20192e-16
-3.53614e-16
3.98629e-15
4.65659e-14
3.13448e-13
1.65472e-12
7.46895e-12
2.9989e-11
1.09566e-10
3.69659e-10
1.16378e-09
3.44571e-09
9.65324e-09
2.57154e-08
6.54047e-08
1.59371e-07
3.73141e-07
8.41606e-07
1.83271e-06
3.86094e-06
7.88276e-06
1.56224e-05
3.00978e-05
5.64435e-05
0.000103161
0.000183959
0.000320396
0.000545541
0.00090893
0.00148307
0.00237169
0.00372
0.00572686
0.00865892
0.0128663
0.0187994
0.0270257
0.038246
0.0533078
0.0732158
0.099136
0.132393
0.174461
0.226938
0.291521
0.369961
0.464014
0.575381
0.705642
0.856192
1.02817
1.22239
1.43929
1.6789
1.94078
2.22402
2.52724
2.84862
3.18591
3.53652
3.89756
4.26591
4.63834
5.01155
5.38231
5.74749
6.10417
6.44969
6.78171
7.09821
7.39757
7.67855
7.94028
8.18225
8.40428
8.60651
8.7893
8.95323
9.09902
9.22749
9.33951
9.43591
9.51748
9.58487
9.6386
9.67898
9.70612
9.71989
9.71992
9.7056
9.67614
9.63053
9.56765
9.48628
9.38521
9.26326
9.11937
8.95272
8.76274
8.54918
8.3122
8.05239
7.77075
7.46878
7.14836
6.81181
6.46176
6.10115
5.73313
5.36095
4.98792
4.6173
4.25222
3.89561
3.55015
3.21817
2.90168
2.60232
2.32131
2.05951
1.81741
1.59516
1.39257
1.20921
1.04439
0.897257
0.766777
0.651829
0.55122
0.463722
0.388103
0.323155
0.26771
0.220662
0.180974
0.14769
0.119936
0.0969244
0.0779504
0.0623917
0.0497024
0.0394086
0.0311018
0.0244334
0.0191074
0.0148752
0.0115289
0.0088959
0.00683431
0.00522781
0.00398184
0.00302
0.00228091
0.00171556
0.00128505
0.00095866
0.0007123
0.000527147
0.000388586
0.000285331
0.000208706
0.000152075
0.000110393
7.98358e-05
5.75235e-05
4.12952e-05
2.95377e-05
2.1052e-05
1.49509e-05
1.05806e-05
7.4617e-06
5.24407e-06
3.67293e-06
2.56384e-06
1.78366e-06
1.23678e-06
8.54779e-07
5.88821e-07
4.04341e-07
2.76751e-07
1.88831e-07
1.28455e-07
8.70792e-08
5.88907e-08
3.96738e-08
2.66582e-08
1.78751e-08
1.19124e-08
7.96222e-09
5.26786e-09
3.49143e-09
2.31972e-09
1.50034e-09
1.01502e-09
6.42358e-10
4.26255e-10
2.88241e-10
1.63203e-10
1.34295e-10
6.35739e-11
5.10209e-11
3.86497e-11
5.80358e-12
2.8643e-11
-3.90033e-12
9.70645e-12
7.28413e-12
-8.4447e-12
1.44e-11
-1.03141e-11
6.27234e-12
1.32349e-12
-6.55742e-12
9.8943e-12
-9.25331e-12
6.02846e-12
-1.08768e-12
-3.49875e-12
6.49214e-12
-7.03653e-12
5.34732e-12
-2.21428e-12
-1.15776e-12
3.70023e-12
-4.73656e-12
4.17812e-12
-2.43797e-12
2.368e-13
1.68136e-12
-2.77993e-12
2.86506e-12
-2.08497e-12
8.25568e-13
4.51253e-13
-1.36238e-12
1.70586e-12
-1.48787e-12
8.80858e-13
-1.3899e-13
-4.9436e-13
8.572e-13
-9.00384e-13
6.78551e-13
-3.13108e-13
-9.14346e-14
)
;

boundaryField
{
    right
    {
        type            zeroGradient;
    }
    left
    {
        type            inletOutlet;
        inletValue      uniform 0;
        value           uniform 0;
    }
    top
    {
        type            zeroGradient;
    }
    bottom
    {
        type            zeroGradient;
    }
    empty
    {
        type            empty;
    }
}


// ************************************************************************* //
