/*--------------------------------*- C++ -*----------------------------------*\
| =========                 |                                                 |
| \\      /  F ield         | OpenFOAM: The Open Source CFD Toolbox           |
|  \\    /   O peration     | Version:  v2006                                 |
|   \\  /    A nd           | Website:  www.openfoam.com                      |
|    \\/     M anipulation  |                                                 |
\*---------------------------------------------------------------------------*/
FoamFile
{
    version     2.0;
    format      ascii;
    class       volScalarField;
    location    "0";
    object      alpha.water;
}
// * * * * * * * * * * * * * * * * * * * * * * * * * * * * * * * * * * * * * //

dimensions      [0 0 0 0 0 0 0];


internalField   nonuniform List<scalar> 
67500
(
0.996865
0.962509
0.402511
0.0476082
0.0877749
0.236522
0.374579
0.490562
0.510185
0.578156
0.686036
0.769981
0.805531
0.805531
0.76745
0.744298
0.760746
0.761133
0.383513
0.345528
0.88635
0.999983
0.999983
0.998113
0.947066
0.932645
0.969935
0.997071
1
1
1
1
1
1
1
1
1
1
1
1
1
1
1
1
1
1
1
1
1
1
1
1
1
1
1
1
1
1
1
1
1
1
1
1
1
1
1
1
1
1
1
1
1
1
1
1
1
1
1
1
1
1
1
1
1
1
1
1
1
1
1
1
1
1
1
1
1
1
1
1
1
1
1
1
1
1
1
1
1
1
1
1
1
1
1
1
1
1
1
1
1
1
1
1
1
1
1
1
1
1
1
1
1
1
1
1
1
1
1
1
1
1
1
1
1
1
1
1
1
1
1
1
1
1
1
1
1
1
1
1
1
1
1
1
1
1
1
1
1
1
1
1
1
1
1
1
1
1
1
1
1
1
1
1
1
1
1
1
1
1
1
1
1
1
1
1
1
1
1
1
1
1
1
1
1
1
1
1
1
1
1
1
1
1
1
1
1
1
1
1
1
1
1
1
1
1
1
1
1
1
1
1
1
1
1
1
1
1
1
1
1
1
1
1
1
1
1
1
1
1
1
1
1
1
1
1
1
1
1
1
1
1
1
1
1
1
1
1
1
1
1
1
1
1
1
1
1
1
1
1
1
1
1
1
1
1
1
1
1
1
1
1
1
1
1
1
1
1
1
1
1
1
1
1
1
1
1
1
1
1
1
1
1
1
1
1
1
1
1
1
1
1
1
1
1
1
1
1
1
1
1
1
1
1
1
1
1
1
1
1
1
1
1
1
1
1
1
1
1
1
1
1
1
1
1
1
1
1
1
1
1
1
1
1
1
1
1
1
1
1
1
1
1
1
1
1
1
1
1
1
1
1
1
1
1
1
1
1
1
1
1
1
1
1
1
1
1
1
1
1
1
1
1
1
1
1
1
1
1
1
1
1
1
1
1
1
1
1
1
1
1
1
1
1
1
1
1
1
1
1
1
1
1
1
1
1
1
1
1
1
1
1
1
1
1
1
1
1
1
1
0.996865
0.867022
0.0437149
0.0437081
0.146004
0.303533
0.221337
1.85059e-21
7.21129e-25
4.6401e-25
2.72964e-25
0.0614192
0.433418
0.382402
0.18774
0.125079
0.123782
0.197475
0.172369
0.126388
0.125282
0.385322
0.690659
0.359466
0.19922
0.198669
0.407538
0.954351
1
1
1
1
1
1
1
1
1
1
1
1
1
1
1
1
1
1
0.999392
0.998443
0.997723
0.997594
0.997905
0.998491
0.999102
0.999585
0.999884
0.999996
1
1
1
1
1
1
1
1
1
1
1
1
1
1
1
1
1
1
1
1
1
1
1
1
1
1
1
1
1
1
1
1
1
1
1
1
1
1
1
1
1
1
1
1
1
1
1
1
1
1
1
1
1
1
1
1
1
1
1
1
1
1
1
1
1
1
1
1
1
1
1
1
1
1
1
1
1
1
1
1
1
1
1
1
1
1
1
1
1
1
1
1
1
1
1
1
1
1
1
1
1
1
1
1
1
1
1
1
1
1
1
1
1
1
1
1
1
1
1
1
1
1
1
1
1
1
1
1
1
1
1
1
1
1
1
1
1
1
1
1
1
1
1
1
1
1
1
1
1
1
1
1
1
1
1
1
1
1
1
1
1
1
1
1
1
1
1
1
1
1
1
1
1
1
1
1
1
1
1
1
1
1
1
1
1
1
1
1
1
1
1
1
1
1
1
1
1
1
1
1
1
1
1
1
1
1
1
1
1
1
1
1
1
1
1
1
1
1
1
1
1
1
1
1
1
1
1
1
1
1
1
1
1
1
1
1
1
1
1
1
1
1
1
1
1
1
1
1
1
1
1
1
1
1
1
1
1
1
1
1
1
1
1
1
1
1
1
1
1
1
1
1
1
1
1
1
1
1
1
1
1
1
1
1
1
1
1
1
1
1
1
1
1
1
1
1
1
1
1
1
1
1
1
1
1
1
1
1
1
1
1
1
1
1
1
1
1
1
1
1
1
1
1
1
1
1
1
1
1
1
1
1
1
1
1
1
1
1
1
1
1
1
1
1
1
1
1
1
1
1
1
1
1
1
1
1
1
1
1
1
1
1
1
1
1
1
1
1
1
1
1
1
1
1
1
1
1
1
1
1
1
1
1
1
1
1
1
1
1
1
1
1
1
1
0.989845
0.653846
0.245712
0.153958
0.0761115
0.0480425
1.08993e-20
-1.66786e-21
2.98834e-07
1.47003e-06
1.4506e-06
8.35842e-09
0.00274706
-4.24419e-21
0.00989369
0.0197266
1.18001e-19
0
0.305669
0.31258
0.166571
0.152238
0.152268
0.152238
0.648412
0.978509
0.999637
1
1
1
1
0.989351
0.973593
0.947877
0.902962
0.829967
0.793008
0.799136
0.79155
0.760295
0.733714
0.725979
0.72929
0.732026
0.722267
0.68982
0.643129
0.60242
0.579165
0.574199
0.58201
0.599497
0.621938
0.646163
0.670161
0.691362
0.707329
0.717768
0.723579
0.726683
0.731249
0.738852
0.748287
0.765607
0.787363
0.80904
0.827687
0.842251
0.852937
0.860412
0.865495
0.869354
0.873709
0.880436
0.89064
0.904019
0.919169
0.934437
0.948581
0.960999
0.971599
0.980496
0.987783
0.993444
0.99738
0.999522
1
1
1
1
1
1
1
1
1
1
1
1
1
1
1
1
1
1
1
1
1
1
1
1
1
1
1
1
1
1
1
1
1
1
1
1
1
1
1
1
1
1
1
1
1
1
1
1
1
1
1
1
1
1
1
1
1
1
1
1
1
1
1
1
1
1
1
1
1
1
1
1
1
1
1
1
1
1
1
1
1
1
1
1
1
1
1
1
1
1
1
1
1
1
1
1
1
1
1
1
1
1
1
1
1
1
1
1
1
1
1
1
1
1
1
1
1
1
1
1
1
1
1
1
1
1
1
1
1
1
1
1
1
1
1
1
1
1
1
1
1
1
1
1
1
1
1
1
1
1
1
1
1
1
1
1
1
1
1
1
1
1
1
1
1
1
1
1
1
1
1
1
1
1
1
1
1
1
1
1
1
1
1
1
1
1
1
1
1
1
1
1
1
1
1
1
1
1
1
1
1
1
1
1
1
1
1
1
1
1
1
1
1
1
1
1
1
1
1
1
1
1
1
1
1
1
1
1
1
1
1
1
1
1
1
1
1
1
1
1
1
1
1
1
1
1
1
1
1
1
1
1
1
1
1
1
1
1
1
1
1
1
1
1
1
1
1
1
1
1
1
1
1
1
1
1
1
1
1
1
1
1
1
1
1
1
1
1
1
1
1
1
1
1
1
1
1
1
1
1
1
1
1
1
1
1
1
1
1
1
1
1
1
1
1
1
1
1
1
1
1
1
1
1
1
1
1
1
1
1
1
1
1
1
1
1
1
1
1
1
1
1
1
1
1
1
1
1
1
1
1
1
1
1
1
1
1
1
1
1
1
1
1
1
0.985794
0.484139
-1.83774e-19
0.0333385
0.0192436
1.08854e-06
6.62003e-06
2.97612e-21
8.31167e-23
-9.71548e-24
7.8471e-08
9.66405e-09
-1.83623e-21
4.16878e-23
-8.4808e-22
2.14194e-23
1.38379e-21
4.45944e-23
0.219047
0.824295
0.871266
0.845803
0.855858
0.944378
0.948395
0.981091
1
1
1
1
0.789765
0.491657
0.146928
-3.27266e-14
-3.89716e-14
-3.0293e-14
-1.81579e-14
-8.8797e-15
-3.35352e-15
-7.10172e-16
1.11932e-35
-2.80784e-35
1.67644e-36
-2.73661e-36
-1.24398e-37
-1.64315e-37
-1.20904e-39
-5.98176e-40
-2.99328e-40
2.12753e-37
3.48342e-37
-1.3237e-37
-8.68182e-40
2.64366e-38
-1.5088e-40
6.63554e-38
4.64717e-38
1.32186e-38
-1.27097e-21
-3.70094e-21
3.11502e-22
0.00478568
0.0187496
0.0330777
0.0456627
0.0549915
0.0614459
0.066682
0.0722043
0.0789544
0.0876232
0.0989453
0.113698
0.132487
0.155786
0.183727
0.216058
0.251976
0.290181
0.330183
0.372788
0.418963
0.469445
0.524608
0.583732
0.64585
0.710381
0.768486
0.805577
0.836918
0.863462
0.88484
0.902022
0.916109
0.928218
0.939392
0.950227
0.96068
0.970326
0.978822
0.986092
0.992126
0.996712
0.999406
1
1
1
1
1
1
1
1
1
1
1
1
1
1
1
1
1
1
1
1
1
1
1
1
1
1
1
1
1
1
1
1
1
1
1
1
1
1
1
1
1
1
1
1
1
1
1
1
1
1
1
1
1
1
1
1
1
1
1
1
1
1
1
1
1
1
1
1
1
1
1
1
1
1
1
1
1
1
1
1
1
1
1
1
1
1
1
1
1
1
1
1
1
1
1
1
1
1
1
1
1
1
1
1
1
1
1
1
1
1
1
1
1
1
1
1
1
1
1
1
1
1
1
1
1
1
1
1
1
1
1
1
1
1
1
1
1
1
1
1
1
1
1
1
1
1
1
1
1
1
1
1
1
1
1
1
1
1
1
1
1
1
1
1
1
1
1
1
1
1
1
1
1
1
1
1
1
1
1
1
1
1
1
1
1
1
1
1
1
1
1
1
1
1
1
1
1
1
1
1
1
1
1
1
1
1
1
1
1
1
1
1
1
1
1
1
1
1
1
1
1
1
1
1
1
1
1
1
1
1
1
1
1
1
1
1
1
1
1
1
1
1
1
1
1
1
1
1
1
1
1
1
1
1
1
1
1
1
1
1
1
1
1
1
1
1
1
1
1
1
1
1
1
1
1
1
1
1
1
1
1
1
1
1
1
1
1
1
1
1
1
1
1
1
1
1
1
1
1
1
1
1
1
1
1
1
1
1
1
1
1
1
1
1
1
1
1
1
1
1
1
1
1
1
1
1
1
1
1
1
1
1
1
1
1
1
1
1
1
1
1
1
1
1
1
1
0.98316
0.36952
-6.07649e-16
-4.71216e-21
-1.67168e-25
8.22105e-07
0.00021112
0.0029312
1.143e-20
3.27987e-27
3.15101e-09
3.11609e-23
7.15788e-06
0.000263247
0.000233156
0.00361315
0.014514
0.0269987
0.0268325
0.508616
0.989126
0.999535
0.481069
0.00903941
8.4027e-21
6.18013e-20
0.0459975
0.397078
0.756057
0.522346
0.0584053
0.0771979
4.87681e-19
-1.47141e-14
-1.50105e-14
-5.93862e-15
-1.73802e-16
9.92043e-17
1.20595e-16
1.0236e-16
6.50724e-17
3.82174e-17
2.10881e-17
1.09295e-17
5.34801e-18
2.50945e-18
1.17138e-18
6.83621e-19
5.89423e-19
5.87098e-19
5.40088e-19
4.31073e-19
3.15153e-19
2.18131e-19
1.44948e-19
9.77258e-20
6.61551e-20
4.49789e-20
2.91279e-20
1.74066e-20
6.41808e-21
-2.77772e-37
-3.28841e-38
-1.12792e-40
-9.97957e-39
-6.80441e-39
-5.20553e-22
-2.08041e-21
-3.41299e-21
-4.46766e-21
-5.07023e-21
-5.22731e-21
-5.26933e-21
-5.57187e-21
-6.15997e-21
-6.51085e-21
-6.05904e-21
-5.00206e-21
-4.24593e-21
-4.25575e-21
-4.81867e-21
-6.17904e-21
-8.53872e-21
-1.13487e-20
-4.9851e-21
-6.9093e-22
-1.33434e-21
0.0101417
0.0394505
0.0720104
0.103825
0.133619
0.161056
0.186823
0.213424
0.243873
0.27932
0.318137
0.357954
0.399023
0.445122
0.500571
0.566371
0.639952
0.71733
0.791405
0.839831
0.880774
0.916861
0.946398
0.969154
0.985362
0.995362
0.999642
1
1
1
1
1
1
1
1
1
1
1
1
1
1
1
1
1
1
1
1
1
1
1
1
1
1
1
1
1
1
1
1
1
1
1
1
1
1
1
1
1
1
1
1
1
1
1
1
1
1
1
1
1
1
1
1
1
1
1
1
1
1
1
1
1
1
1
1
1
1
1
1
1
1
1
1
1
1
1
1
1
1
1
1
1
1
1
1
1
1
1
1
1
1
1
1
1
1
1
1
1
1
1
1
1
1
1
1
1
1
1
1
1
1
1
1
1
1
1
1
1
1
1
1
1
1
1
1
1
1
1
1
1
1
1
1
1
1
1
1
1
1
1
1
1
1
1
1
1
1
1
1
1
1
1
1
1
1
1
1
1
1
1
1
1
1
1
1
1
1
1
1
1
1
1
1
1
1
1
1
1
1
1
1
1
1
1
1
1
1
1
1
1
1
1
1
1
1
1
1
1
1
1
1
1
1
1
1
1
1
1
1
1
1
1
1
1
1
1
1
1
1
1
1
1
1
1
1
1
1
1
1
1
1
1
1
1
1
1
1
1
1
1
1
1
1
1
1
1
1
1
1
1
1
1
1
1
1
1
1
1
1
1
1
1
1
1
1
1
1
1
1
1
1
1
1
1
1
1
1
1
1
1
1
1
1
1
1
1
1
1
1
1
1
1
1
1
1
1
1
1
1
1
1
1
1
1
1
1
1
1
1
1
1
1
1
1
1
1
1
1
1
1
1
1
1
1
1
1
1
1
1
1
1
1
1
0.983281
0.33655
-4.54673e-17
2.4617e-25
5.31495e-08
8.26466e-21
0.00117051
0.0287814
0.0353732
-5.0369e-20
2.7538e-27
5.48536e-23
0.00618197
0.00115202
0.00635246
0.266775
0.587657
0.587378
0.546785
0.421703
0.205208
0.0181859
3.01341e-20
-5.68506e-34
5.42696e-19
1.07054e-19
-9.45525e-20
0.0289426
0.116702
0.0299935
1.40421e-19
1.29948e-20
-5.7349e-23
-3.46985e-15
-4.48349e-15
-1.42529e-17
6.64234e-18
1.68455e-16
2.62535e-16
2.74721e-16
2.37022e-16
1.82492e-16
1.31802e-16
9.19937e-17
6.31346e-17
4.29831e-17
2.91507e-17
1.97556e-17
1.34244e-17
9.18222e-18
6.33027e-18
4.39668e-18
3.08028e-18
2.18155e-18
1.56305e-18
1.13194e-18
8.25595e-19
6.02822e-19
4.36412e-19
3.09312e-19
2.10142e-19
1.36985e-19
9.10346e-20
5.99366e-20
3.89228e-20
2.49887e-20
1.58521e-20
9.82395e-21
5.69813e-21
2.65809e-21
2.16747e-22
-1.82758e-21
-3.52942e-21
-4.98238e-21
-6.30169e-21
-7.57016e-21
-8.78712e-21
-9.88366e-21
-1.08272e-20
-1.16479e-20
-1.23409e-20
-1.29102e-20
-1.33934e-20
-1.38724e-20
-1.45424e-20
-1.58112e-20
-1.79644e-20
-1.89454e-20
-1.44446e-20
-7.41289e-21
-4.75632e-21
-4.25793e-21
-3.51472e-21
-5.30063e-22
-1.97296e-23
1.11631e-40
2.31221e-38
-2.48255e-38
-1.0548e-19
1.46324e-37
-1.86497e-37
4.68848e-37
-1.83494e-19
-6.56204e-19
-8.6082e-19
0.00661672
0.0469295
0.100785
0.166517
0.245621
0.337215
0.43814
0.544407
0.652044
0.757412
0.848811
0.904249
0.944857
0.9741
0.991668
0.999197
1
1
1
1
1
1
1
1
1
1
1
1
1
1
1
1
1
1
1
1
1
1
1
1
1
1
1
1
1
1
1
1
1
1
1
1
1
1
1
1
1
1
1
1
1
1
1
1
1
1
1
1
1
1
1
1
1
1
1
1
1
1
1
1
1
1
1
1
1
1
1
1
1
1
1
1
1
1
1
1
1
1
1
1
1
1
1
1
1
1
1
1
1
1
1
1
1
1
1
1
1
1
1
1
1
1
1
1
1
1
1
1
1
1
1
1
1
1
1
1
1
1
1
1
1
1
1
1
1
1
1
1
1
1
1
1
1
1
1
1
1
1
1
1
1
1
1
1
1
1
1
1
1
1
1
1
1
1
1
1
1
1
1
1
1
1
1
1
1
1
1
1
1
1
1
1
1
1
1
1
1
1
1
1
1
1
1
1
1
1
1
1
1
1
1
1
1
1
1
1
1
1
1
1
1
1
1
1
1
1
1
1
1
1
1
1
1
1
1
1
1
1
1
1
1
1
1
1
1
1
1
1
1
1
1
1
1
1
1
1
1
1
1
1
1
1
1
1
1
1
1
1
1
1
1
1
1
1
1
1
1
1
1
1
1
1
1
1
1
1
1
1
1
1
1
1
1
1
1
1
1
1
1
1
1
1
1
1
1
1
1
1
1
1
1
1
1
1
1
1
1
1
1
1
1
1
1
1
1
1
1
1
1
1
1
1
1
1
1
1
1
1
1
1
1
1
1
1
1
0.924234
0.282492
-1.2565e-23
1.38584e-05
2.94501e-06
-2.71557e-21
-7.80259e-19
0.0632348
0.231673
0.232001
0.229993
0.224283
0.0578483
-3.13438e-23
-5.23224e-23
2.5979e-40
-2.36537e-24
1.99249e-31
2.78194e-21
0.0011522
1.15462e-14
1.08377e-14
8.6731e-14
2.50786e-15
6.35907e-15
7.40488e-16
2.74259e-21
2.02609e-20
4.25502e-20
1.99009e-20
1.37826e-33
1.15538e-15
8.3469e-35
1.60434e-18
1.9381e-15
4.07664e-15
2.62113e-15
4.93997e-16
4.26637e-16
4.68528e-16
4.54684e-16
3.6918e-16
2.7226e-16
1.90284e-16
1.29368e-16
8.69591e-17
5.83935e-17
3.94403e-17
2.69083e-17
1.8583e-17
1.29924e-17
9.19289e-18
6.58429e-18
4.77516e-18
3.50477e-18
2.59961e-18
1.94451e-18
1.46302e-18
1.10389e-18
8.32171e-19
6.23979e-19
4.6377e-19
3.42107e-19
2.51683e-19
1.85279e-19
1.3668e-19
1.01049e-19
7.47773e-20
5.52332e-20
4.0544e-20
2.94106e-20
2.09313e-20
1.44557e-20
9.50277e-21
5.70926e-21
2.79324e-21
5.28692e-22
-1.26886e-21
-2.7524e-21
-4.05284e-21
-5.27985e-21
-6.52251e-21
-7.84945e-21
-9.29466e-21
-1.08391e-20
-1.243e-20
-1.39907e-20
-1.53648e-20
-1.62211e-20
-1.62285e-20
-1.52878e-20
-1.34352e-20
-1.06909e-20
-6.88999e-21
-1.57829e-21
6.16576e-21
1.90789e-20
4.0542e-20
7.43144e-20
1.23463e-19
1.89363e-19
2.64744e-19
-1.71337e-19
-2.79511e-18
-7.9008e-18
-1.35693e-17
-1.72768e-17
-1.70179e-17
-1.35076e-17
-8.51574e-18
-3.8205e-18
-6.96487e-19
8.44609e-37
2.90095e-37
2.67016e-36
0.0165241
0.0983685
0.216329
0.353366
0.493645
0.627995
0.753419
0.867571
0.93324
0.971306
0.992185
0.999672
1
1
1
1
1
1
1
1
1
1
1
1
1
1
1
1
1
1
1
1
1
1
1
1
1
1
1
1
1
1
1
1
1
1
1
1
1
1
1
1
1
1
1
1
1
1
1
1
1
1
1
1
1
1
1
1
1
1
1
1
1
1
1
1
1
1
1
1
1
1
1
1
1
1
1
1
1
1
1
1
1
1
1
1
1
1
1
1
1
1
1
1
1
1
1
1
1
1
1
1
1
1
1
1
1
1
1
1
1
1
1
1
1
1
1
1
1
1
1
1
1
1
1
1
1
1
1
1
1
1
1
1
1
1
1
1
1
1
1
1
1
1
1
1
1
1
1
1
1
1
1
1
1
1
1
1
1
1
1
1
1
1
1
1
1
1
1
1
1
1
1
1
1
1
1
1
1
1
1
1
1
1
1
1
1
1
1
1
1
1
1
1
1
1
1
1
1
1
1
1
1
1
1
1
1
1
1
1
1
1
1
1
1
1
1
1
1
1
1
1
1
1
1
1
1
1
1
1
1
1
1
1
1
1
1
1
1
1
1
1
1
1
1
1
1
1
1
1
1
1
1
1
1
1
1
1
1
1
1
1
1
1
1
1
1
1
1
1
1
1
1
1
1
1
1
1
1
1
1
1
1
1
1
1
1
1
1
1
1
1
1
1
1
1
1
1
1
1
1
1
1
1
1
1
1
1
1
1
1
1
1
1
1
1
1
1
1
1
1
1
1
1
1
0.813718
0.165316
-8.41681e-24
4.68163e-05
6.73133e-06
1.88585e-27
2.38845e-09
2.67868e-20
0.00915862
0.157681
0.229925
0.0938593
2.40892e-06
6.55765e-06
1.89404e-05
2.53706e-22
-2.63494e-22
4.09767e-14
4.8423e-14
3.45926e-14
1.58979e-12
1.81642e-13
7.11927e-14
1.21189e-13
2.40456e-13
7.45319e-14
1.00552e-14
4.20543e-14
3.43699e-14
3.70547e-14
5.97739e-14
6.22064e-14
4.39749e-14
4.53789e-14
5.04559e-14
6.63116e-14
7.24987e-14
4.13255e-14
7.67879e-15
8.78975e-16
6.90722e-16
6.0952e-16
4.86974e-16
3.56979e-16
2.48609e-16
1.67969e-16
1.11679e-16
7.3885e-17
4.90876e-17
3.29936e-17
2.25519e-17
1.57203e-17
1.11867e-17
8.12295e-18
6.00873e-18
4.51733e-18
3.44204e-18
2.6501e-18
2.05463e-18
1.59787e-18
1.24137e-18
9.60366e-19
7.39397e-19
5.67426e-19
4.3476e-19
3.3286e-19
2.54613e-19
1.94349e-19
1.47723e-19
1.11511e-19
8.33712e-20
6.15836e-20
4.48332e-20
3.20788e-20
2.24821e-20
1.5357e-20
1.01356e-20
6.35131e-21
3.62822e-21
1.66945e-21
2.45297e-22
-8.2029e-22
-1.66405e-21
-2.39479e-21
-3.10274e-21
-3.86992e-21
-4.77507e-21
-5.88196e-21
-7.2083e-21
-8.70857e-21
-1.02761e-20
-1.17024e-20
-1.25863e-20
-1.21556e-20
-8.89739e-21
1.70248e-22
2.08144e-20
6.3695e-20
1.47255e-19
3.0109e-19
5.67885e-19
9.96841e-19
1.58737e-18
2.08069e-18
1.63659e-18
-1.26262e-18
-7.32818e-18
-1.4285e-17
-1.82233e-17
-1.65762e-17
-9.57922e-18
-1.44846e-18
3.5798e-18
5.02852e-18
2.65242e-18
3.30906e-36
8.97933e-35
-8.92428e-37
-9.10498e-32
1.57578e-45
-7.61093e-28
-3.62682e-28
0.00506843
0.128087
0.317208
0.49821
0.652066
0.788857
0.905669
0.966091
0.992423
0.999876
1
1
1
1
1
1
1
1
1
1
1
1
1
1
1
1
1
1
1
1
1
1
1
1
1
1
1
1
1
1
1
1
1
1
1
1
1
1
1
1
1
1
1
1
1
1
1
1
1
1
1
1
1
1
1
1
1
1
1
1
1
1
1
1
1
1
1
1
1
1
1
1
1
1
1
1
1
1
1
1
1
1
1
1
1
1
1
1
1
1
1
1
1
1
1
1
1
1
1
1
1
1
1
1
1
1
1
1
1
1
1
1
1
1
1
1
1
1
1
1
1
1
1
1
1
1
1
1
1
1
1
1
1
1
1
1
1
1
1
1
1
1
1
1
1
1
1
1
1
1
1
1
1
1
1
1
1
1
1
1
1
1
1
1
1
1
1
1
1
1
1
1
1
1
1
1
1
1
1
1
1
1
1
1
1
1
1
1
1
1
1
1
1
1
1
1
1
1
1
1
1
1
1
1
1
1
1
1
1
1
1
1
1
1
1
1
1
1
1
1
1
1
1
1
1
1
1
1
1
1
1
1
1
1
1
1
1
1
1
1
1
1
1
1
1
1
1
1
1
1
1
1
1
1
1
1
1
1
1
1
1
1
1
1
1
1
1
1
1
1
1
1
1
1
1
1
1
1
1
1
1
1
1
1
1
1
1
1
1
1
1
1
1
1
1
1
1
1
1
1
1
1
1
1
1
1
1
1
1
1
1
1
1
1
1
1
1
1
0.766263
0.0563188
1.54969e-22
4.74613e-05
3.45581e-05
-1.12724e-25
9.84104e-09
-9.09245e-24
-1.51882e-23
-3.74317e-23
4.44764e-22
2.05355e-05
3.42613e-05
1.65514e-05
7.21505e-05
0.000127233
6.0263e-05
1.66262e-14
1.65041e-14
3.43504e-14
1.76105e-12
9.13061e-13
5.38083e-13
8.18895e-13
7.8879e-13
5.16601e-13
2.19477e-13
1.01342e-13
3.56744e-14
3.70082e-14
3.83238e-14
3.96664e-14
4.0986e-14
1.01046e-13
1.12564e-13
1.42349e-13
2.53506e-13
2.86087e-13
1.77369e-13
4.97595e-14
2.48015e-15
8.05782e-16
7.08946e-16
5.74017e-16
4.272e-16
3.02193e-16
2.07649e-16
1.40745e-16
9.51948e-17
6.48183e-17
4.4717e-17
3.13871e-17
2.24668e-17
1.64147e-17
1.22394e-17
9.30507e-18
7.20219e-18
5.66331e-18
4.51091e-18
3.62566e-18
2.92759e-18
2.36482e-18
1.90512e-18
1.5281e-18
1.21919e-18
9.66793e-19
7.61237e-19
5.9441e-19
4.59586e-19
3.51278e-19
2.65025e-19
1.97131e-19
1.44432e-19
1.04166e-19
7.39192e-20
5.15972e-20
3.54114e-20
2.38689e-20
1.5761e-20
1.01378e-20
6.27499e-21
3.63492e-21
1.82711e-21
5.73101e-22
-3.23561e-22
-1.0026e-21
-1.56534e-21
-2.08539e-21
-2.6128e-21
-3.17071e-21
-3.73279e-21
-4.15625e-21
-4.02946e-21
-2.35375e-21
3.08812e-21
1.69323e-20
4.84174e-20
1.1511e-19
2.48851e-19
5.04528e-19
9.71071e-19
1.78161e-18
3.11585e-18
5.17514e-18
8.09438e-18
1.1775e-17
1.57381e-17
1.92592e-17
2.18496e-17
2.3751e-17
2.60135e-17
2.96643e-17
3.45571e-17
3.87335e-17
3.86023e-17
3.38805e-17
2.73683e-17
1.60678e-17
1.45617e-18
0
3.90925e-10
1.08534e-09
1.28681e-25
1.41215e-25
4.85977e-28
-1.28633e-26
-8.18929e-20
-2.79021e-20
0.022233
0.233921
0.479904
0.659826
0.803908
0.926149
0.984215
0.999538
1
1
1
1
1
1
1
1
1
1
1
1
1
1
1
1
1
1
1
1
1
1
1
1
1
1
1
1
1
1
1
1
1
1
1
1
1
1
1
1
1
1
1
1
1
1
1
1
1
1
1
1
1
1
1
1
1
1
1
1
1
1
1
1
1
1
1
1
1
1
1
1
1
1
1
1
1
1
1
1
1
1
1
1
1
1
1
1
1
1
1
1
1
1
1
1
1
1
1
1
1
1
1
1
1
1
1
1
1
1
1
1
1
1
1
1
1
1
1
1
1
1
1
1
1
1
1
1
1
1
1
1
1
1
1
1
1
1
1
1
1
1
1
1
1
1
1
1
1
1
1
1
1
1
1
1
1
1
1
1
1
1
1
1
1
1
1
1
1
1
1
1
1
1
1
1
1
1
1
1
1
1
1
1
1
1
1
1
1
1
1
1
1
1
1
1
1
1
1
1
1
1
1
1
1
1
1
1
1
1
1
1
1
1
1
1
1
1
1
1
1
1
1
1
1
1
1
1
1
1
1
1
1
1
1
1
1
1
1
1
1
1
1
1
1
1
1
1
1
1
1
1
1
1
1
1
1
1
1
1
1
1
1
1
1
1
1
1
1
1
1
1
1
1
1
1
1
1
1
1
1
1
1
1
1
1
1
1
1
1
1
1
1
1
1
1
1
1
1
1
1
1
1
1
1
1
1
1
1
1
1
1
1
1
0.774154
5.91761e-19
7.5712e-07
4.00621e-05
2.04485e-05
8.29766e-26
2.2918e-08
1.99777e-23
1.23602e-24
-3.60124e-23
0.000125359
0.000582176
0.000914262
0.000935673
0.00141064
0.0020939
0.00119345
1.19656e-05
9.99808e-06
1.70921e-07
2.81467e-14
5.05299e-13
5.40128e-13
5.03456e-13
2.52234e-13
9.03167e-14
9.25417e-14
9.48419e-14
7.97908e-06
6.62608e-05
5.51878e-05
3.24218e-05
1.42456e-05
1.02948e-13
1.04885e-13
1.06868e-13
2.25749e-13
4.64426e-13
6.17067e-13
4.29664e-13
1.45092e-13
1.34029e-14
8.19173e-16
7.17001e-16
5.90177e-16
4.47447e-16
3.22311e-16
2.25687e-16
1.56211e-16
1.08219e-16
7.57176e-17
5.38292e-17
3.90282e-17
2.89221e-17
2.19366e-17
1.70443e-17
1.35677e-17
1.10499e-17
9.17572e-18
7.72634e-18
6.55322e-18
5.56192e-18
4.69853e-18
3.93605e-18
3.26206e-18
2.67048e-18
2.15709e-18
1.71761e-18
1.34705e-18
1.03973e-18
7.89377e-19
5.89274e-19
4.32484e-19
3.12092e-19
2.21503e-19
1.54693e-19
1.06367e-19
7.20497e-20
4.80954e-20
3.16351e-20
2.04824e-20
1.30184e-20
8.07403e-21
4.82414e-21
2.69734e-21
1.30336e-21
3.78243e-22
-2.54773e-22
-7.10649e-22
-1.05063e-21
-1.26018e-21
-1.16726e-21
-2.37055e-22
2.88341e-21
1.12987e-20
3.16578e-20
7.74041e-20
1.74307e-19
3.69198e-19
7.42648e-19
1.42538e-18
2.6158e-18
4.59299e-18
7.7157e-18
1.23919e-17
1.90057e-17
2.78053e-17
3.88056e-17
5.17597e-17
6.61616e-17
8.12747e-17
9.61488e-17
1.0956e-16
1.19907e-16
1.25111e-16
1.22743e-16
1.10462e-16
8.86386e-17
6.03455e-17
3.0398e-17
2.8708e-17
8.46179e-09
4.78406e-08
5.73933e-08
6.29188e-09
7.432e-25
-3.52009e-26
-5.75048e-27
-8.15709e-32
-6.23787e-30
7.60729e-33
2.16219e-34
-1.57977e-27
0.0337487
0.33174
0.610005
0.774393
0.907765
0.983362
0.999946
1
1
1
1
1
1
1
1
1
1
1
1
1
1
1
1
1
1
1
1
1
1
1
1
1
1
1
1
1
1
1
1
1
1
1
1
1
1
1
1
1
1
1
1
1
1
1
1
1
1
1
1
1
1
1
1
1
1
1
1
1
1
1
1
1
1
1
1
1
1
1
1
1
1
1
1
1
1
1
1
1
1
1
1
1
1
1
1
1
1
1
1
1
1
1
1
1
1
1
1
1
1
1
1
1
1
1
1
1
1
1
1
1
1
1
1
1
1
1
1
1
1
1
1
1
1
1
1
1
1
1
1
1
1
1
1
1
1
1
1
1
1
1
1
1
1
1
1
1
1
1
1
1
1
1
1
1
1
1
1
1
1
1
1
1
1
1
1
1
1
1
1
1
1
1
1
1
1
1
1
1
1
1
1
1
1
1
1
1
1
1
1
1
1
1
1
1
1
1
1
1
1
1
1
1
1
1
1
1
1
1
1
1
1
1
1
1
1
1
1
1
1
1
1
1
1
1
1
1
1
1
1
1
1
1
1
1
1
1
1
1
1
1
1
1
1
1
1
1
1
1
1
1
1
1
1
1
1
1
1
1
1
1
1
1
1
1
1
1
1
1
1
1
1
1
1
1
1
1
1
1
1
1
1
1
1
1
1
1
1
1
1
1
1
1
1
1
1
1
1
1
1
1
1
1
1
1
1
1
1
0.774277
2.31393e-27
8.74344e-08
2.428e-06
8.83261e-07
1.70993e-08
1.32499e-07
6.45366e-06
1.49708e-06
1.27699e-25
-8.06978e-24
-6.16581e-22
0.000407237
0.00241764
0.00242312
0.00242671
0.00240789
0.00152389
0.00183639
0.000870888
2.81467e-14
2.81467e-14
7.33134e-14
4.15269e-14
2.81467e-14
2.81467e-14
4.27867e-07
1.00122e-05
0.000480697
0.00105025
0.000927534
0.000623543
0.000351006
7.78197e-05
2.24511e-05
1.27161e-05
2.37032e-13
2.48855e-13
6.53065e-13
8.75554e-13
7.01377e-13
2.71977e-13
3.59793e-14
7.55391e-16
6.5244e-16
5.56063e-16
4.33725e-16
3.20642e-16
2.3036e-16
1.6378e-16
1.16759e-16
8.42543e-17
6.19668e-17
4.6709e-17
3.62617e-17
2.91078e-17
2.41937e-17
2.0764e-17
1.82665e-17
1.63032e-17
1.46059e-17
1.30168e-17
1.1466e-17
9.94396e-18
8.47319e-18
7.08714e-18
5.81676e-18
4.68425e-18
3.70128e-18
2.86977e-18
2.18362e-18
1.63093e-18
1.19605e-18
8.61577e-19
6.09925e-19
4.24569e-19
2.90797e-19
1.96107e-19
1.30294e-19
8.53309e-20
5.50993e-20
3.50738e-20
2.1992e-20
1.35568e-20
8.1844e-21
4.80207e-21
2.69431e-21
1.39039e-21
5.86279e-22
9.80091e-23
-1.47849e-22
-6.40779e-23
7.67405e-22
3.51564e-21
1.10146e-20
2.95904e-20
7.24672e-20
1.65698e-19
3.57733e-19
7.33564e-19
1.43356e-18
2.67502e-18
4.77129e-18
8.1402e-18
1.32906e-17
2.07734e-17
3.10928e-17
4.45934e-17
6.13553e-17
8.10961e-17
1.03079e-16
1.26056e-16
1.4827e-16
1.67531e-16
1.81361e-16
1.87313e-16
1.83075e-16
1.67787e-16
1.61808e-16
1.21054e-16
5.56398e-17
2.87328e-17
2.86683e-17
9.11341e-07
1.6131e-06
7.26207e-07
4.62188e-08
1.62934e-25
1.24296e-13
5.62103e-12
1.3437e-14
1.13872e-10
3.65271e-10
1.41926e-26
6.38628e-27
4.034e-43
4.79037e-43
0
0.29415
0.649112
0.822217
0.941044
0.994842
1
1
1
1
1
1
1
1
1
1
1
1
1
1
1
1
1
1
1
1
1
1
1
1
1
1
1
1
1
1
1
1
1
1
1
1
1
1
1
1
1
1
1
1
1
1
1
1
1
1
1
1
1
1
1
1
1
1
1
1
1
1
1
1
1
1
1
1
1
1
1
1
1
1
1
1
1
1
1
1
1
1
1
1
1
1
1
1
1
1
1
1
1
1
1
1
1
1
1
1
1
1
1
1
1
1
1
1
1
1
1
1
1
1
1
1
1
1
1
1
1
1
1
1
1
1
1
1
1
1
1
1
1
1
1
1
1
1
1
1
1
1
1
1
1
1
1
1
1
1
1
1
1
1
1
1
1
1
1
1
1
1
1
1
1
1
1
1
1
1
1
1
1
1
1
1
1
1
1
1
1
1
1
1
1
1
1
1
1
1
1
1
1
1
1
1
1
1
1
1
1
1
1
1
1
1
1
1
1
1
1
1
1
1
1
1
1
1
1
1
1
1
1
1
1
1
1
1
1
1
1
1
1
1
1
1
1
1
1
1
1
1
1
1
1
1
1
1
1
1
1
1
1
1
1
1
1
1
1
1
1
1
1
1
1
1
1
1
1
1
1
1
1
1
1
1
1
1
1
1
1
1
1
1
1
1
1
1
1
1
1
1
1
1
1
1
1
1
1
1
1
1
1
1
1
1
1
0.331882
-1.86732e-27
1.04645e-24
4.35546e-24
-1.05525e-25
1.65561e-28
1.49221e-05
3.129e-05
1.51337e-05
1.43644e-07
1.46206e-25
1.24695e-08
2.36281e-14
2.08785e-22
2.08785e-22
-4.45754e-22
-3.19513e-21
2.03415e-22
0.00376714
0.00376825
0.00251255
2.86868e-06
2.81467e-14
2.81467e-14
4.22706e-05
0.00073015
0.00101704
0.00059238
0.00146989
0.00146548
0.00111376
0.000695793
0.000451269
0.000350693
0.00031143
0.000303759
0.000136073
6.70402e-06
6.79002e-13
7.52031e-13
1.01163e-12
8.95775e-13
3.8212e-13
5.95065e-14
6.61365e-16
5.66327e-16
4.97675e-16
3.99995e-16
3.04062e-16
2.2452e-16
1.64239e-16
1.20874e-16
9.07023e-17
7.02303e-17
5.66853e-17
4.79999e-17
4.26066e-17
3.92654e-17
3.69895e-17
3.50411e-17
3.2942e-17
3.04627e-17
2.75759e-17
2.43872e-17
2.10636e-17
1.77775e-17
1.46736e-17
1.18549e-17
9.38186e-18
7.27758e-18
5.53649e-18
4.13282e-18
3.02852e-18
2.17967e-18
1.54148e-18
1.07175e-18
7.32967e-19
4.93333e-19
3.26945e-19
2.1344e-19
1.37303e-19
8.70487e-20
5.43872e-20
3.34766e-20
2.02864e-20
1.20886e-20
7.06926e-21
4.04116e-21
2.24045e-21
1.18902e-21
6.13885e-22
4.28228e-22
8.09391e-22
2.46494e-21
7.27267e-21
1.96305e-20
4.90631e-20
1.14873e-19
2.53797e-19
5.31544e-19
1.05851e-18
2.00852e-18
3.63697e-18
6.29183e-18
1.04084e-17
1.64774e-17
2.49801e-17
3.62984e-17
5.06175e-17
6.78386e-17
8.7509e-17
1.08784e-16
1.30432e-16
1.50872e-16
1.68245e-16
1.80506e-16
1.84363e-16
1.73844e-16
2.52301e-16
1.57894e-15
6.71875e-16
1.55449e-16
2.87328e-17
2.86683e-17
4.3256e-06
4.52548e-06
2.61513e-06
2.18738e-07
4.10093e-10
4.63057e-14
1.72159e-14
1.79291e-14
5.23578e-09
6.76656e-09
7.8165e-09
-9.72656e-25
3.14723e-26
-1.30974e-20
-8.463e-21
1.01419e-32
3.11764e-29
0.0328798
0.461862
0.778593
0.915014
0.987802
1
1
1
1
1
1
1
1
1
1
1
1
1
1
1
1
1
1
1
1
1
1
1
1
1
1
1
1
1
1
1
1
1
1
1
1
1
1
1
1
1
1
1
1
1
1
1
1
1
1
1
1
1
1
1
1
1
1
1
1
1
1
1
1
1
1
1
1
1
1
1
1
1
1
1
1
1
1
1
1
1
1
1
1
1
1
1
1
1
1
1
1
1
1
1
1
1
1
1
1
1
1
1
1
1
1
1
1
1
1
1
1
1
1
1
1
1
1
1
1
1
1
1
1
1
1
1
1
1
1
1
1
1
1
1
1
1
1
1
1
1
1
1
1
1
1
1
1
1
1
1
1
1
1
1
1
1
1
1
1
1
1
1
1
1
1
1
1
1
1
1
1
1
1
1
1
1
1
1
1
1
1
1
1
1
1
1
1
1
1
1
1
1
1
1
1
1
1
1
1
1
1
1
1
1
1
1
1
1
1
1
1
1
1
1
1
1
1
1
1
1
1
1
1
1
1
1
1
1
1
1
1
1
1
1
1
1
1
1
1
1
1
1
1
1
1
1
1
1
1
1
1
1
1
1
1
1
1
1
1
1
1
1
1
1
1
1
1
1
1
1
1
1
1
1
1
1
1
1
1
1
1
1
1
1
1
1
1
1
1
1
1
1
1
1
1
1
1
1
1
1
1
1
1
0.0825399
-7.09101e-42
-2.67571e-27
-7.01629e-23
-1.86683e-23
8.97882e-06
3.129e-05
3.13891e-05
1.14338e-05
8.97263e-09
3.53119e-22
-2.19106e-23
1.1454e-22
-2.89999e-21
0.00015956
0.00234479
0.00232275
0.000638807
9.93429e-22
7.66442e-26
0.00020221
0.00378915
0.0037806
0.00217993
0.00259041
0.00290597
0.00290207
0.00228962
0.0013947
0.0001987
2.09494e-21
-1.62985e-22
4.88892e-23
0.000113267
0.000339744
0.00043312
0.000428143
0.000243763
1.4878e-05
7.82715e-13
8.23362e-13
1.0423e-12
9.61816e-13
4.20988e-13
6.51781e-14
6.18395e-16
4.86946e-16
4.34489e-16
3.54899e-16
2.74635e-16
2.07244e-16
1.56479e-16
1.21439e-16
9.92046e-17
8.62435e-17
7.97132e-17
7.7374e-17
7.72092e-17
7.7429e-17
7.66672e-17
7.41445e-17
6.96823e-17
6.35675e-17
5.63438e-17
4.86166e-17
4.09217e-17
3.36637e-17
2.71064e-17
2.13889e-17
1.65536e-17
1.25739e-17
9.37868e-18
6.87212e-18
4.94851e-18
3.50303e-18
2.43864e-18
1.67006e-18
1.12552e-18
7.46697e-19
4.87797e-19
3.13865e-19
1.98943e-19
1.24231e-19
7.64274e-20
4.63185e-20
2.76508e-20
1.62583e-20
9.41501e-21
5.3679e-21
3.01221e-21
1.6741e-21
9.8206e-22
8.29722e-22
1.47151e-21
3.85563e-21
1.03989e-20
2.65495e-20
6.36512e-20
1.43758e-19
3.07041e-19
6.22099e-19
1.19869e-18
2.20095e-18
3.85734e-18
6.46188e-18
1.03605e-17
1.59181e-17
2.34687e-17
3.32565e-17
4.53816e-17
5.97576e-17
7.60908e-17
9.3879e-17
1.12413e-16
1.30748e-16
1.47682e-16
1.58319e-16
1.42357e-16
6.95808e-17
7.57342e-15
1.60669e-13
1.86307e-13
6.972e-14
6.92782e-14
1.24706e-06
4.52548e-06
4.52548e-06
4.33597e-06
3.13898e-07
4.90056e-14
3.42883e-13
1.86579e-14
3.97604e-10
2.08285e-15
3.0224e-08
1.21192e-06
9.95598e-07
-3.3129e-23
1.22921e-25
1.28187e-12
9.60802e-12
5.0135e-28
0
-2.33905e-45
-1.48166e-20
0.304196
0.751675
0.92167
0.990879
1
1
1
1
1
1
1
1
1
1
1
1
1
1
1
1
1
1
1
1
1
1
1
1
1
1
1
1
1
1
1
1
1
1
1
1
1
1
1
1
1
1
1
1
1
1
1
1
1
1
1
1
1
1
1
1
1
1
1
1
1
1
1
1
1
1
1
1
1
1
1
1
1
1
1
1
1
1
1
1
1
1
1
1
1
1
1
1
1
1
1
1
1
1
1
1
1
1
1
1
1
1
1
1
1
1
1
1
1
1
1
1
1
1
1
1
1
1
1
1
1
1
1
1
1
1
1
1
1
1
1
1
1
1
1
1
1
1
1
1
1
1
1
1
1
1
1
1
1
1
1
1
1
1
1
1
1
1
1
1
1
1
1
1
1
1
1
1
1
1
1
1
1
1
1
1
1
1
1
1
1
1
1
1
1
1
1
1
1
1
1
1
1
1
1
1
1
1
1
1
1
1
1
1
1
1
1
1
1
1
1
1
1
1
1
1
1
1
1
1
1
1
1
1
1
1
1
1
1
1
1
1
1
1
1
1
1
1
1
1
1
1
1
1
1
1
1
1
1
1
1
1
1
1
1
1
1
1
1
1
1
1
1
1
1
1
1
1
1
1
1
1
1
1
1
1
1
1
1
1
1
1
1
1
1
1
1
1
1
1
1
1
1
1
1
1
1
1
1
1
1
0.533665
0.0113846
-2.23682e-21
7.34362e-07
9.51902e-07
1.0022e-06
1.15507e-05
7.83044e-07
3.46594e-05
6.90897e-21
0.000535917
0.000524681
0.00079984
0.00558986
0.0261154
0.0814765
0.0500683
0.00363883
1.4245e-20
-3.41389e-21
4.59752e-22
1.9361e-07
0.001326
0.00360788
0.00360764
0.00313284
0.00073845
0.000308065
-1.42427e-21
0.000231238
0.000775421
0.000536026
3.32428e-07
3.91947e-24
3.65847e-28
5.90618e-05
0.00034284
0.000398109
0.000293853
2.44903e-05
8.30257e-13
8.01794e-13
9.93485e-13
8.86704e-13
3.5778e-13
4.28914e-14
4.6556e-16
4.18872e-16
3.69485e-16
2.99013e-16
2.32207e-16
1.80655e-16
1.49499e-16
1.39803e-16
1.41819e-16
1.46974e-16
1.54406e-16
1.62163e-16
1.67396e-16
1.67746e-16
1.62211e-16
1.51248e-16
1.3631e-16
1.19181e-16
1.01477e-16
8.44115e-17
6.87632e-17
5.49506e-17
4.31263e-17
3.32644e-17
2.52276e-17
1.88169e-17
1.38061e-17
9.96539e-18
7.07725e-18
4.94572e-18
3.40129e-18
2.30235e-18
1.53419e-18
1.00655e-18
6.50279e-19
4.13742e-19
2.59278e-19
1.60046e-19
9.73201e-20
5.83044e-20
3.44229e-20
2.0036e-20
1.15032e-20
6.5188e-21
3.65325e-21
2.04963e-21
1.24236e-21
1.0937e-21
1.88154e-21
4.62957e-21
1.18525e-20
2.89867e-20
6.68646e-20
1.45612e-19
3.00216e-19
5.87661e-19
1.09486e-18
1.94578e-18
3.30535e-18
5.37764e-18
8.3966e-18
1.26105e-17
1.82653e-17
2.55935e-17
3.48169e-17
4.61654e-17
5.99073e-17
7.63686e-17
9.58882e-17
1.18853e-16
1.40406e-16
1.37822e-16
7.56579e-17
4.0398e-17
2.72056e-12
6.33818e-12
6.92782e-14
9.52441e-11
8.32377e-11
2.11747e-06
4.5043e-06
2.22925e-06
4.69555e-08
4.67995e-14
7.12691e-12
7.21249e-12
2.08285e-15
8.97267e-15
-4.68433e-32
2.49347e-05
4.7056e-05
1.58636e-05
3.04515e-07
3.99975e-26
6.61373e-11
2.60399e-10
1.06188e-10
2.43955e-27
-6.42e-19
-9.75368e-19
-8.11615e-19
-7.82889e-18
0.286669
0.776247
0.955569
0.998703
1
1
1
1
1
1
1
1
1
1
1
1
1
1
1
1
1
1
1
1
1
1
1
1
1
1
1
1
1
1
1
1
1
1
1
1
1
1
1
1
1
1
1
1
1
1
1
1
1
1
1
1
1
1
1
1
1
1
1
1
1
1
1
1
1
1
1
1
1
1
1
1
1
1
1
1
1
1
1
1
1
1
1
1
1
1
1
1
1
1
1
1
1
1
1
1
1
1
1
1
1
1
1
1
1
1
1
1
1
1
1
1
1
1
1
1
1
1
1
1
1
1
1
1
1
1
1
1
1
1
1
1
1
1
1
1
1
1
1
1
1
1
1
1
1
1
1
1
1
1
1
1
1
1
1
1
1
1
1
1
1
1
1
1
1
1
1
1
1
1
1
1
1
1
1
1
1
1
1
1
1
1
1
1
1
1
1
1
1
1
1
1
1
1
1
1
1
1
1
1
1
1
1
1
1
1
1
1
1
1
1
1
1
1
1
1
1
1
1
1
1
1
1
1
1
1
1
1
1
1
1
1
1
1
1
1
1
1
1
1
1
1
1
1
1
1
1
1
1
1
1
1
1
1
1
1
1
1
1
1
1
1
1
1
1
1
1
1
1
1
1
1
1
1
1
1
1
1
1
1
1
1
1
1
1
1
1
1
1
1
1
1
1
1
1
1
1
1
0.589353
0.0177528
-1.41923e-22
-6.03044e-24
1.2013e-05
1.18898e-05
7.28514e-20
5.75434e-08
0.0178988
0.00607434
0.0201859
0.036742
0.0602493
0.0875564
0.0873159
0.0868644
0.0549767
0.00539259
-1.65295e-20
-4.22995e-37
1.49981e-08
1.84058e-08
8.61587e-09
0.000585179
0.000698041
0.000101613
6.29902e-22
5.5045e-28
2.844e-28
2.06399e-28
0.0106727
0.0155382
0.00421815
1.40268e-05
-1.86108e-23
4.96711e-11
5.67865e-11
0.000253642
0.000365783
0.000291068
2.25028e-05
7.71315e-13
7.57696e-13
8.68035e-13
6.89792e-13
2.0718e-13
1.0386e-14
4.02224e-16
3.76745e-16
3.31208e-16
2.79623e-16
2.59021e-16
3.09644e-16
4.01905e-16
3.98708e-16
3.77343e-16
3.68181e-16
3.67868e-16
3.66437e-16
3.55947e-16
3.33684e-16
3.01591e-16
2.63862e-16
2.24685e-16
1.87123e-16
1.52957e-16
1.2299e-16
9.74025e-17
7.60195e-17
5.84813e-17
4.43434e-17
3.31355e-17
2.43961e-17
1.76936e-17
1.26384e-17
8.88963e-18
6.15658e-18
4.19791e-18
2.8181e-18
1.86259e-18
1.21209e-18
7.76671e-19
4.90075e-19
3.04548e-19
1.86412e-19
1.12411e-19
6.68007e-20
3.91354e-20
2.26153e-20
1.28988e-20
7.26761e-21
4.05534e-21
2.27239e-21
1.37958e-21
1.19165e-21
1.9237e-21
4.43575e-21
1.07808e-20
2.52101e-20
5.58137e-20
1.16948e-19
2.32483e-19
4.39694e-19
7.9341e-19
1.36991e-18
2.27041e-18
3.62506e-18
5.59992e-18
8.41196e-18
1.23586e-17
1.78685e-17
2.55778e-17
3.64307e-17
5.17903e-17
7.34997e-17
1.04369e-16
1.40865e-16
1.5631e-16
1.02199e-16
4.05591e-17
8.07777e-12
2.08072e-11
6.27207e-14
2.83003e-09
3.00641e-08
1.15486e-10