/*--------------------------------*- C++ -*----------------------------------*\
| =========                 |                                                 |
| \\      /  F ield         | OpenFOAM: The Open Source CFD Toolbox           |
|  \\    /   O peration     | Version:  v2006                                 |
|   \\  /    A nd           | Website:  www.openfoam.com                      |
|    \\/     M anipulation  |                                                 |
\*---------------------------------------------------------------------------*/
FoamFile
{
    version     2.0;
    format      ascii;
    class       surfaceScalarField;
    location    "0.9";
    object      alphaPhi0.water;
}
// * * * * * * * * * * * * * * * * * * * * * * * * * * * * * * * * * * * * * //

dimensions      [0 3 -1 0 0 0 0];
oriented        oriented;


internalField   nonuniform List<scalar> 
104500
(
-2.37401e-05
2.37401e-05
-4.74945e-05
2.37545e-05
-7.12565e-05
2.3762e-05
-9.50297e-05
2.37731e-05
-0.000118818
2.37879e-05
-0.000142624
2.38064e-05
-0.000166453
2.38286e-05
-0.000190307
2.38545e-05
-0.000214191
2.3884e-05
-0.000238108
2.39172e-05
-0.000262062
2.39542e-05
-0.000286057
2.39948e-05
-0.000310096
2.40391e-05
-0.000334183
2.4087e-05
-0.000358322
2.41387e-05
-0.000382516
2.4194e-05
-0.000406769
2.4253e-05
-0.000431085
2.43157e-05
-0.000455467
2.4382e-05
-0.000479919
2.44519e-05
-0.000504444
2.45256e-05
-0.000529047
2.46028e-05
-0.000553731
2.46837e-05
-0.000578499
2.47682e-05
-0.000603355
2.48563e-05
-0.000628303
2.49481e-05
-0.000653347
2.50434e-05
-0.000678489
2.51424e-05
-0.000703734
2.52449e-05
-0.000729085
2.5351e-05
-0.000754546
2.54606e-05
-0.00078012
2.55738e-05
-0.00080581
2.56906e-05
-0.000831621
2.58108e-05
-0.000857556
2.59346e-05
-0.000883617
2.60618e-05
-0.00090981
2.61926e-05
-0.000936137
2.63267e-05
-0.000962601
2.64643e-05
-0.000989206
2.66054e-05
-0.00101596
2.67498e-05
-0.00104285
2.68976e-05
-0.0010699
2.70488e-05
-0.00109711
2.72033e-05
-0.00112447
2.73611e-05
-0.00115199
2.75221e-05
-0.00117968
2.76864e-05
-0.00120753
2.7854e-05
-0.00123555
2.80247e-05
-0.00126375
2.81985e-05
-0.00129213
2.83755e-05
-0.00132068
2.85556e-05
-0.00134942
2.87387e-05
-0.00137835
2.89248e-05
-0.00140746
2.91139e-05
-0.00143677
2.93059e-05
-0.00146627
2.95007e-05
-0.00149597
2.96984e-05
-0.00152587
2.98988e-05
-0.00155597
3.0102e-05
-0.00158627
3.03078e-05
-0.00161679
3.05162e-05
-0.00164752
3.07272e-05
-0.00167846
3.09406e-05
-0.00170962
3.11564e-05
-0.00174099
3.13746e-05
-0.00177258
3.15951e-05
-0.0018044
3.18177e-05
-0.00183645
3.20425e-05
-0.00186871
3.22693e-05
-0.00190121
3.24981e-05
-0.00193394
3.27287e-05
-0.0019669
3.29611e-05
-0.0020001
3.31951e-05
-0.00203353
3.34308e-05
-0.0020672
3.36679e-05
-0.0021011
3.39063e-05
-0.00213525
3.41461e-05
-0.00216964
3.43869e-05
-0.00220426
3.46288e-05
-0.00223914
3.48716e-05
-0.00227425
3.51151e-05
-0.00230961
3.53593e-05
-0.00234521
3.5604e-05
-0.00238106
3.5849e-05
-0.00241716
3.60942e-05
-0.0024535
3.63395e-05
-0.00249008
3.65847e-05
-0.00252691
3.68296e-05
-0.00256399
3.7074e-05
-0.0026013
3.73179e-05
-0.00263886
3.7561e-05
-0.00267667
3.78031e-05
-0.00271471
3.80441e-05
-0.00275299
3.82837e-05
-0.00279152
3.85217e-05
-0.00283027
3.8758e-05
-0.00286927
3.89922e-05
-0.00290849
3.92243e-05
-0.00294795
3.9454e-05
-0.00298763
3.9681e-05
-0.00302753
3.99051e-05
-0.00306766
4.01261e-05
-0.003108
4.03437e-05
-0.00314856
4.05576e-05
-0.00318933
4.07676e-05
-0.0032303
4.09734e-05
-0.00327147
4.11748e-05
-0.00331285
4.13714e-05
-0.00335441
4.1563e-05
-0.00339616
4.17493e-05
-0.00343809
4.19299e-05
-0.00348019
4.21046e-05
-0.00352247
4.2273e-05
-0.0035649
4.24348e-05
-0.00360749
4.25897e-05
-0.00365023
4.27373e-05
-0.0036931
4.28774e-05
-0.00373611
4.30095e-05
-0.00377925
4.31333e-05
-0.0038225
4.32484e-05
-0.00386585
4.33546e-05
-0.0039093
4.34513e-05
-0.00395284
4.35382e-05
-0.00399646
4.36149e-05
-0.00404014
4.36811e-05
-0.00408387
4.37364e-05
-0.00412765
4.37803e-05
-0.00417147
4.38124e-05
-0.0042153
4.38323e-05
-0.00425914
4.38397e-05
-0.00430297
4.38341e-05
-0.00434679
4.3815e-05
-0.00439057
4.3782e-05
-0.0044343
4.37348e-05
-0.00447798
4.36728e-05
-0.00452157
4.35957e-05
-0.00456507
4.35029e-05
-0.00460847
4.33941e-05
-0.00465174
4.32689e-05
-0.00469486
4.31266e-05
-0.00473783
4.2967e-05
-0.00478062
4.27896e-05
-0.00482321
4.25938e-05
-0.00486559
4.23793e-05
-0.00490774
4.21457e-05
-0.00494963
4.18924e-05
-0.00499125
4.1619e-05
-0.00503258
4.13252e-05
-0.00507359
4.10103e-05
-0.00511426
4.06741e-05
-0.00515458
4.03161e-05
-0.00519451
3.99359e-05
-0.00523405
3.95333e-05
-0.00527315
3.91078e-05
-0.00531181
3.86591e-05
-0.00535
3.81864e-05
-0.00538769
3.76893e-05
-0.00542486
3.71674e-05
-0.00546148
3.66205e-05
-0.00549752
3.6048e-05
-0.00553297
3.54498e-05
-0.0055678
3.48254e-05
-0.00560197
3.41745e-05
-0.00563547
3.34969e-05
-0.00566826
3.27922e-05
-0.00570032
3.20603e-05
-0.00573162
3.13007e-05
-0.00576214
3.05133e-05
-0.00579184
2.96979e-05
-0.00582069
2.88542e-05
-0.00584867
2.79822e-05
-0.00587575
2.70815e-05
-0.00590191
2.61522e-05
-0.0059271
2.51941e-05
-0.00595131
2.42071e-05
-0.0059745
2.31912e-05
-0.00599664
2.21464e-05
-0.00601772
2.10727e-05
-0.00603769
1.99702e-05
-0.00605653
1.88389e-05
-0.00607421
1.7679e-05
-0.0060907
1.64904e-05
-0.00610597
1.52735e-05
-0.00612
1.4028e-05
-0.00613275
1.27537e-05
-0.0061442
1.14499e-05
-0.00615432
1.01148e-05
-0.00616306
8.74582e-06
-0.0061704
7.33736e-06
-0.00617628
5.87667e-06
-0.0061806
4.32798e-06
-0.00618319
2.59043e-06
-0.00618372
5.23467e-07
-0.00618206
-1.66188e-06
-0.00617821
-3.84267e-06
-0.00617232
-5.8925e-06
-0.00616451
-7.81293e-06
-0.00615486
-9.64379e-06
-0.00614345
-1.14147e-05
-0.0061303
-1.31463e-05
-0.00611545
-1.48538e-05
-0.0060989
-1.65481e-05
-0.00608066
-1.8236e-05
-0.00606074
-1.99216e-05
-0.00603914
-2.16067e-05
-0.00601584
-2.3292e-05
-0.00599087
-2.49771e-05
-0.00596421
-2.66612e-05
-0.00593586
-2.83432e-05
-0.00590584
-3.0022e-05
-0.00587414
-3.1696e-05
-0.00584078
-3.3364e-05
-0.00580576
-3.50244e-05
-0.00576908
-3.66758e-05
-0.00573076
-3.83166e-05
-0.00569082
-3.99455e-05
-0.00564926
-4.15608e-05
-0.0056061
-4.31611e-05
-0.00556135
-4.4745e-05
-0.00551504
-4.63108e-05
-0.00546718
-4.78572e-05
-0.0054178
-4.93826e-05
-0.00536692
-5.08857e-05
-0.00531455
-5.23649e-05
-0.00526073
-5.38188e-05
-0.00520549
-5.5246e-05
-0.00514884
-5.6645e-05
-0.00509083
-5.80146e-05
-0.00503147
-5.93534e-05
-0.00497081
-6.06599e-05
-0.00490888
-6.19329e-05
-0.00484571
-6.31711e-05
-0.00478134
-6.43732e-05
-0.0047158
-6.55379e-05
-0.00464913
-6.66641e-05
-0.00458138
-6.77506e-05
-0.00451259
-6.87962e-05
-0.00444279
-6.97998e-05
-0.00437203
-7.07603e-05
-0.00430035
-7.16766e-05
-0.0042278
-7.25478e-05
-0.00415443
-7.33729e-05
-0.00408028
-7.41509e-05
-0.0040054
-7.48809e-05
-0.00392984
-7.55621e-05
-0.00385364
-7.61938e-05
-0.00377687
-7.67751e-05
-0.00369956
-7.73054e-05
-0.00362178
-7.7784e-05
-0.00354357
-7.82103e-05
-0.00346498
-7.85839e-05
-0.00338608
-7.89042e-05
-0.00330691
-7.91707e-05
-0.00322752
-7.93833e-05
-0.00314798
-7.95415e-05
-0.00306834
-7.96452e-05
-0.00298864
-7.96941e-05
-0.00290896
-7.96883e-05
-0.00282933
-7.96276e-05
-0.00274982
-7.9512e-05
-0.00267047
-7.93418e-05
-0.00259136
-7.91171e-05
-0.00251252
-7.88381e-05
-0.00243401
-7.85052e-05
-0.0023559
-7.81186e-05
-0.00227822
-7.76789e-05
-0.00220103
-7.71866e-05
-0.00212439
-7.66423e-05
-0.00204834
-7.60466e-05
-0.00197294
-7.54002e-05
-0.00189824
-7.47038e-05
-0.00182428
-7.39583e-05
-0.00175111
-7.31649e-05
-0.00167879
-7.23245e-05
-0.00160735
-7.14373e-05
-0.00153685
-7.05034e-05
-0.00146732
-6.95269e-05
-0.00139881
-6.85091e-05
-0.00133136
-6.74506e-05
-0.00126501
-6.63514e-05
-0.0011998
-6.52093e-05
-0.00113577
-6.40308e-05
-0.00107295
-6.28253e-05
-0.00101138
-6.15622e-05
-0.0009511
-6.02835e-05
-0.000892125
-5.89747e-05
-0.000834503
-5.76217e-05
-0.000778251
-5.62522e-05
-0.000723402
-5.48487e-05
-0.000669958
-5.34445e-05
-0.000617998
-5.19592e-05
-0.000567481
-5.05179e-05
-0.000518486
-4.89945e-05
-0.000470992
-4.74939e-05
-0.000425001
-4.59917e-05
-0.000380577
-4.44234e-05
-0.000337703
-4.28746e-05
-0.000296398
-4.13048e-05
-0.000256687
-3.97107e-05
-0.000218544
-3.81428e-05
-0.000182022
-3.65224e-05
-0.000147096
-3.49262e-05
-0.000113786
-3.33099e-05
-8.20752e-05
-3.17106e-05
-5.196e-05
-3.01151e-05
-2.34506e-05
-2.85094e-05
3.45749e-06
-2.69081e-05
2.87688e-05
-2.53113e-05
5.24838e-05
-2.3715e-05
7.46055e-05
-2.21218e-05
9.5138e-05
-2.05324e-05
0.000114087
-1.8949e-05
0.000131462
-1.73748e-05
0.000147276
-1.58143e-05
0.000161549
-1.42732e-05
0.000174305
-1.27562e-05
0.000185573
-1.12672e-05
0.000195382
-9.80894e-06
0.000203766
-8.38447e-06
0.000210762
-6.99561e-06
0.000216406
-5.64452e-06
0.000220739
-4.33229e-06
0.0002238
-3.06099e-06
0.000225632
-1.8326e-06
0.000226283
-6.51269e-07
0.00022576
5.23367e-07
0.000224119
1.64143e-06
0.000221412
2.70694e-06
0.000217684
3.72766e-06
0.00021298
4.70365e-06
0.000207347
5.63327e-06
0.000200829
6.51808e-06
0.000193467
7.36185e-06
0.000185306
8.16131e-06
0.000176391
8.91449e-06
0.000166771
9.62025e-06
0.000156493
1.02779e-05
0.000145606
1.08868e-05
0.00013416
1.14465e-05
0.000122203
1.19566e-05
0.000109787
1.24168e-05
9.69599e-05
1.28266e-05
8.3774e-05
1.31859e-05
7.02799e-05
1.34942e-05
5.65285e-05
1.37514e-05
4.25713e-05
1.39572e-05
2.84597e-05
1.41116e-05
1.42454e-05
1.42143e-05
1.42454e-05
-2.40254e-05
4.77655e-05
-4.80664e-05
4.77955e-05
-7.2115e-05
4.78106e-05
-9.61752e-05
4.78333e-05
-0.000120251
4.78637e-05
-0.000144346
4.79017e-05
-0.000168465
4.79473e-05
-0.000192611
4.80006e-05
-0.000216789
4.80614e-05
-0.000241001
4.81298e-05
-0.000265253
4.82058e-05
-0.000289547
4.82895e-05
-0.000313889
4.83807e-05
-0.000338281
4.84795e-05
-0.000362729
4.85858e-05
-0.000387234
4.86998e-05
-0.000411803
4.88213e-05
-0.000436437
4.89503e-05
-0.000461142
4.90869e-05
-0.000485921
4.92311e-05
-0.000510778
4.93827e-05
-0.000535718
4.95419e-05
-0.000560742
4.97086e-05
-0.000585857
4.98829e-05
-0.000611065
5.00645e-05
-0.000636371
5.02537e-05
-0.000661778
5.04503e-05
-0.00068729
5.06543e-05
-0.000712911
5.08658e-05
-0.000738644
5.10847e-05
-0.000764495
5.13109e-05
-0.000790465
5.15445e-05
-0.00081656
5.17855e-05
-0.000842783
5.20337e-05
-0.000869138
5.22893e-05
-0.000895628
5.25521e-05
-0.000922258
5.28221e-05
-0.00094903
5.30993e-05
-0.00097595
5.33837e-05
-0.00100302
5.36752e-05
-0.00103024
5.39738e-05
-0.00105763
5.42795e-05
-0.00108517
5.45921e-05
-0.00111288
5.49117e-05
-0.00114075
5.52383e-05
-0.0011688
5.55716e-05
-0.00119703
5.59118e-05
-0.00122543
5.62588e-05
-0.00125402
5.66124e-05
-0.0012828
5.69727e-05
-0.00131176
5.73395e-05
-0.00134092
5.77128e-05
-0.00137027
5.80925e-05
-0.00139982
5.84786e-05
-0.00142958
5.88709e-05
-0.00145955
5.92694e-05
-0.00148972
5.96739e-05
-0.0015201
6.00845e-05
-0.00155071
6.05009e-05
-0.00158153
6.09231e-05
-0.00161257
6.13509e-05
-0.00164384
6.17844e-05
-0.00167534
6.22232e-05
-0.00170706
6.26673e-05
-0.00173902
6.31166e-05
-0.00177122
6.3571e-05
-0.00180365
6.40302e-05
-0.00183633
6.44941e-05
-0.00186925
6.49627e-05
-0.00190242
6.54356e-05
-0.00193583
6.59128e-05
-0.0019695
6.6394e-05
-0.00200341
6.68791e-05
-0.00203759
6.73678e-05
-0.00207202
6.786e-05
-0.0021067
6.83555e-05
-0.00214165
6.8854e-05
-0.00217686
6.93552e-05
-0.00221233
6.98591e-05
-0.00224807
7.03652e-05
-0.00228407
7.08734e-05
-0.00232034
7.13834e-05
-0.00235687
7.18948e-05
-0.00239368
7.24075e-05
-0.00243075
7.29211e-05
-0.00246809
7.34352e-05
-0.0025057
7.39497e-05
-0.00254358
7.4464e-05
-0.00258173
7.4978e-05
-0.00262015
7.54911e-05
-0.00265883
7.60032e-05
-0.00269778
7.65137e-05
-0.002737
7.70222e-05
-0.00277649
7.75284e-05
-0.00281624
7.80319e-05
-0.00285625
7.85322e-05
-0.00289652
7.90287e-05
-0.00293705
7.95212e-05
-0.00297783
8.00091e-05
-0.00301887
8.04918e-05
-0.00306016
8.0969e-05
-0.00310169
8.144e-05
-0.00314347
8.19043e-05
-0.00318549
8.23614e-05
-0.00322774
8.28107e-05
-0.00327022
8.32516e-05
-0.00331293
8.36835e-05
-0.00335587
8.41058e-05
-0.00339901
8.45178e-05
-0.00344237
8.49189e-05
-0.00348593
8.53084e-05
-0.00352968
8.56857e-05
-0.00357363
8.605e-05
-0.00361776
8.64006e-05
-0.00366206
8.67368e-05
-0.00370653
8.70578e-05
-0.00375115
8.73629e-05
-0.00379593
8.76513e-05
-0.00384084
8.79222e-05
-0.00388588
8.81747e-05
-0.00393104
8.84081e-05
-0.00397631
8.86215e-05
-0.00402167
8.88141e-05
-0.00406712
8.89849e-05
-0.00411263
8.91331e-05
-0.00415821
8.92577e-05
-0.00420383
8.9358e-05
-0.00424948
8.94329e-05
-0.00429515
8.94814e-05
-0.00434082
8.95028e-05
-0.00438648
8.94959e-05
-0.00443211
8.94598e-05
-0.00447768
8.93936e-05
-0.0045232
8.92962e-05
-0.00456863
8.91667e-05
-0.00461396
8.9004e-05
-0.00465917
8.88072e-05
-0.00470425
8.85752e-05
-0.00474916
8.8307e-05
-0.00479389
8.80016e-05
-0.00483842
8.7658e-05
-0.00488273
8.72752e-05
-0.00492679
8.68521e-05
-0.00497059
8.63878e-05
-0.00501409
8.58811e-05
-0.00505727
8.53312e-05
-0.00510012
8.47371e-05
-0.0051426
8.40977e-05
-0.00518469
8.34122e-05
-0.00522635
8.26795e-05
-0.00526758
8.18987e-05
-0.00530833
8.10689e-05
-0.00534859
8.01892e-05
-0.00538831
7.92588e-05
-0.00542748
7.82767e-05
-0.00546606
7.72421e-05
-0.00550403
7.61542e-05
-0.00554135
7.50123e-05
-0.005578
7.38156e-05
-0.00561394
7.25634e-05
-0.00564915
7.12552e-05
-0.00568359
6.98903e-05
-0.00571723
6.84682e-05
-0.00575005
6.69882e-05
-0.005782
6.54501e-05
-0.00581306
6.38533e-05
-0.0058432
6.21976e-05
-0.00587238
6.04826e-05
-0.00590058
5.87082e-05
-0.00592775
5.68741e-05
-0.00595388
5.49802e-05
-0.00597892
5.30266e-05
-0.00600286
5.10132e-05
-0.00602564
4.89403e-05
-0.00604726
4.68079e-05
-0.00606767
4.46163e-05
-0.00608684
4.2366e-05
-0.00610475
4.00572e-05
-0.00612137
3.76905e-05
-0.00613667
3.52665e-05
-0.00615061
3.27857e-05
-0.00616318
3.02488e-05
-0.00617435
2.76567e-05
-0.00618409
2.50102e-05
-0.00619237
2.23104e-05
-0.00619917
1.95586e-05
-0.00620448
1.67566e-05
-0.00620827
1.3907e-05
-0.00621054
1.10131e-05
-0.00621128
8.08229e-06
-0.00621053
5.12535e-06
-0.00620836
2.15849e-06
-0.00620496
-8.16551e-07
-0.0062004
-4.03573e-06
-0.00619487
-7.1855e-06
-0.00618838
-1.034e-05
-0.00618075
-1.35203e-05
-0.00617183
-1.67271e-05
-0.00616152
-1.99619e-05
-0.00614971
-2.32246e-05
-0.00613634
-2.65134e-05
-0.00612137
-2.98251e-05
-0.00610476
-3.31557e-05
-0.00608649
-3.65012e-05
-0.00606656
-3.9858e-05
-0.00604494
-4.32229e-05
-0.00602164
-4.65927e-05
-0.00599665
-4.99646e-05
-0.00596998
-5.33359e-05
-0.00594162
-5.67036e-05
-0.00591158
-6.00651e-05
-0.00587985
-6.34174e-05
-0.00584646
-6.67575e-05
-0.0058114
-7.00827e-05
-0.00577469
-7.33898e-05
-0.00573633
-7.66758e-05
-0.00569634
-7.99379e-05
-0.00565472
-8.3173e-05
-0.00561151
-8.6378e-05
-0.0055667
-8.955e-05
-0.00552033
-9.2686e-05
-0.0054724
-9.57831e-05
-0.00542295
-9.88382e-05
-0.00537198
-0.000101848
-0.00531954
-0.000104811
-0.00526563
-0.000107723
-0.0052103
-0.000110581
-0.00515356
-0.000113383
-0.00509545
-0.000116127
-0.00503599
-0.000118808
-0.00497523
-0.000121425
-0.00491319
-0.000123974
-0.0048499
-0.000126454
-0.00478541
-0.000128862
-0.00471976
-0.000131195
-0.00465297
-0.000133451
-0.00458509
-0.000135627
-0.00451617
-0.000137722
-0.00444624
-0.000139732
-0.00437534
-0.000141656
-0.00430353
-0.000143491
-0.00423084
-0.000145237
-0.00415732
-0.000146889
-0.00408302
-0.000148448
-0.00400799
-0.00014991
-0.00393228
-0.000151275
-0.00385593
-0.00015254
-0.003779
-0.000153705
-0.00370154
-0.000154767
-0.0036236
-0.000155726
-0.00354523
-0.00015658
-0.00346649
-0.000157329
-0.00338742
-0.00015797
-0.00330809
-0.000158504
-0.00322854
-0.00015893
-0.00314883
-0.000159247
-0.00306902
-0.000159455
-0.00298916
-0.000159553
-0.00290931
-0.000159542
-0.00282952
-0.00015942
-0.00274984
-0.000159189
-0.00267034
-0.000158848
-0.00259106
-0.000158397
-0.00251206
-0.000157838
-0.00243339
-0.000157171
-0.00235511
-0.000156397
-0.00227727
-0.000155516
-0.00219993
-0.00015453
-0.00212313
-0.000153439
-0.00204693
-0.000152246
-0.00197138
-0.000150951
-0.00189653
-0.000149556
-0.00182243
-0.000148062
-0.00174912
-0.000146473
-0.00167666
-0.000144788
-0.00160508
-0.00014301
-0.00153444
-0.000141144
-0.00146479
-0.000139185
-0.00139615
-0.000137143
-0.00132858
-0.000135027
-0.0012621
-0.000132823
-0.00119679
-0.000130529
-0.00113264
-0.000128173
-0.00106973
-0.000125738
-0.00100804
-0.000123252
-0.000947659
-0.000120664
-0.000888588
-0.000118046
-0.000830863
-0.000115346
-0.000774526
-0.000112589
-0.00071958
-0.000109795
-0.000666103
-0.000106922
-0.000614039
-0.000104023
-0.000563486
-0.00010107
-0.000514387
-9.80939e-05
-0.000466823
-9.50574e-05
-0.000420822
-9.19933e-05
-0.000376324
-8.89208e-05
-0.000333436
-8.5763e-05
-0.000292118
-8.26225e-05
-0.00025236
-7.94687e-05
-0.000214243
-7.62604e-05
-0.000177682
-7.30829e-05
-0.000142742
-6.98666e-05
-0.000109378
-6.6674e-05
-7.76431e-05
-6.34451e-05
-4.7536e-05
-6.02222e-05
-1.903e-05
-5.70155e-05
7.87742e-06
-5.38155e-05
3.31916e-05
-5.06255e-05
5.69259e-05
-4.74494e-05
7.90991e-05
-4.42949e-05
9.97311e-05
-4.11644e-05
0.000118843
-3.80608e-05
0.000136456
-3.49875e-05
0.000152589
-3.19477e-05
0.00016726
-2.89446e-05
0.000180486
-2.59822e-05
0.000192283
-2.3064e-05
0.000202669
-2.01947e-05
0.000211661
-1.73768e-05
0.00021928
-1.4614e-05
0.000225542
-1.19074e-05
0.000230474
-9.26344e-06
0.000234093
-6.68015e-06
0.000236423
-4.16333e-06
0.000237482
-1.71005e-06
0.000237378
6.27365e-07
0.000236117
2.90288e-06
0.000233705
5.11873e-06
0.000230178
7.25453e-06
0.000225577
9.30434e-06
0.000219945
1.12653e-05
0.000213327
1.31361e-05
0.000205774
1.49156e-05
0.000197333
1.66022e-05
0.000188053
1.81938e-05
0.000177986
1.96879e-05
0.000167181
2.10824e-05
0.000155692
2.23758e-05
0.000143572
2.35666e-05
0.000130875
2.46534e-05
0.000117657
2.56351e-05
0.000103973
2.65105e-05
8.98804e-05
2.72786e-05
7.54362e-05
2.79385e-05
6.06981e-05
2.84894e-05
4.57246e-05
2.89308e-05
3.05741e-05
2.92621e-05
1.53052e-05
2.94832e-05
2.95506e-05
-2.38642e-05
7.16297e-05
-4.77436e-05
7.16749e-05
-7.16306e-05
7.16976e-05
-9.55291e-05
7.17317e-05
-0.000119443
7.17774e-05
-0.000143375
7.18344e-05
-0.000167331
7.19029e-05
-0.000191313
7.19828e-05
-0.000215326
7.20741e-05
-0.000239373
7.21768e-05
-0.000263458
7.22909e-05
-0.000287585
7.24164e-05
-0.000311757
7.25533e-05
-0.000335979
7.27016e-05
-0.000360255
7.28613e-05
-0.000384587
7.30323e-05
-0.000408981
7.32147e-05
-0.000433439
7.34084e-05
-0.000457965
7.36135e-05
-0.000482564
7.38299e-05
-0.000507239
7.40576e-05
-0.000531994
7.42965e-05
-0.000556832
7.45468e-05
-0.000581757
7.48083e-05
-0.000606774
7.50811e-05
-0.000631885
7.5365e-05
-0.000657095
7.56602e-05
-0.000682407
7.59665e-05
-0.000707826
7.6284e-05
-0.000733353
7.66126e-05
-0.000758995
7.69523e-05
-0.000784753
7.7303e-05
-0.000810633
7.76648e-05
-0.000836636
7.80375e-05
-0.000862768
7.84212e-05
-0.000889032
7.88158e-05
-0.000915431
7.92213e-05
-0.00094197
7.96375e-05
-0.00096865
8.00646e-05
-0.000995477
8.05023e-05
-0.00102245
8.09507e-05
-0.00104958
8.14097e-05
-0.00107687
8.18792e-05
-0.00110432
8.23592e-05
-0.00113193
8.28496e-05
-0.00115971
8.33503e-05
-0.00118766
8.38612e-05
-0.00121578
8.43823e-05
-0.00124408
8.49134e-05
-0.00127256
8.54545e-05
-0.00130123
8.60055e-05
-0.00133008
8.65662e-05
-0.00135913
8.71366e-05
-0.00138837
8.77166e-05
-0.0014178
8.83059e-05
-0.00144744
8.89046e-05
-0.00147727
8.95123e-05
-0.00150732
9.01291e-05
-0.00153757
9.07548e-05
-0.00156804
9.13892e-05
-0.00159872
9.20321e-05
-0.00162962
9.26833e-05
-0.00166074
9.33428e-05
-0.00169208
9.40102e-05
-0.00172365
9.46855e-05
-0.00175545
9.53683e-05
-0.00178748
9.60585e-05
-0.00181974
9.67558e-05
-0.00185224
9.74601e-05
-0.00188497
9.8171e-05
-0.00191795
9.88883e-05
-0.00195116
9.96117e-05
-0.00198463
0.000100341
-0.00201833
0.000101076
-0.00205229
0.000101816
-0.0020865
0.000102561
-0.00212095
0.000103311
-0.00215566
0.000104064
-0.00219062
0.000104822
-0.00222584
0.000105584
-0.00226132
0.000106348
-0.00229705
0.000107115
-0.00233304
0.000107885
-0.00236929
0.000108656
-0.0024058
0.000109429
-0.00244256
0.000110202
-0.00247959
0.000110976
-0.00251688
0.00011175
-0.00255442
0.000112524
-0.00259223
0.000113296
-0.00263029
0.000114067
-0.00266861
0.000114836
-0.00270719
0.000115601
-0.00274603
0.000116364
-0.00278512
0.000117122
-0.00282446
0.000117875
-0.00286406
0.000118623
-0.0029039
0.000119365
-0.00294399
0.0001201
-0.00298433
0.000120827
-0.0030249
0.000121546
-0.00306572
0.000122256
-0.00310677
0.000122956
-0.00314805
0.000123645
-0.00318957
0.000124322
-0.0032313
0.000124987
-0.00327326
0.000125638
-0.00331543
0.000126275
-0.00335781
0.000126897
-0.00340039
0.000127502
-0.00344317
0.00012809
-0.00348614
0.000128659
-0.0035293
0.000129209
-0.00357264
0.000129738
-0.00361615
0.000130246
-0.00365982
0.000130731
-0.00370365
0.000131192
-0.00374763
0.000131628
-0.00379174
0.000132037
-0.00383599
0.000132419
-0.00388035
0.000132772
-0.00392483
0.000133095
-0.0039694
0.000133387
-0.00401406
0.000133646
-0.0040588
0.000133871
-0.0041036
0.00013406
-0.00414845
0.000134213
-0.00419335
0.000134327
-0.00423827
0.000134402
-0.0042832
0.000134436
-0.00432813
0.000134427
-0.00437305
0.000134374
-0.00441793
0.000134276
-0.00446276
0.00013413
-0.00450753
0.000133937
-0.00455222
0.000133693
-0.00459681
0.000133398
-0.00464129
0.000133049
-0.00468563
0.000132647
-0.00472981
0.000132188
-0.00477382
0.000131671
-0.00481765
0.000131095
-0.00486125
0.000130459
-0.00490462
0.00012976
-0.00494774
0.000128998
-0.00499058
0.00012817
-0.00503312
0.000127275
-0.00507533
0.000126313
-0.0051172
0.00012528
-0.0051587
0.000124177
-0.0051998
0.000123001
-0.00524048
0.000121752
-0.00528072
0.000120427
-0.00532049
0.000119025
-0.00535976
0.000117546
-0.0053985
0.000115988
-0.0054367
0.00011435
-0.00547432
0.000112631
-0.00551133
0.000110829
-0.00554771
0.000108945
-0.00558343
0.000106975
-0.00561846
0.000104921
-0.00565278
0.000102781
-0.00568634
0.000100554
-0.00571913
9.824e-05
-0.00575112
9.58381e-05
-0.00578227
9.33479e-05
-0.00581255
9.07691e-05
-0.00584195
8.81013e-05
-0.00587042
8.53443e-05
-0.00589794
8.24982e-05
-0.00592447
7.95628e-05
-0.00595
7.65384e-05
-0.00597448
7.34253e-05
-0.0059979
7.02237e-05
-0.00602022
6.69342e-05
-0.00604141
6.35573e-05
-0.00606144
6.00939e-05
-0.0060803
5.65449e-05
-0.00609794
5.29111e-05
-0.00611435
4.91939e-05
-0.0061295
4.53944e-05
-0.00614335
4.1514e-05
-0.0061559
3.75543e-05
-0.0061671
3.35167e-05
-0.00617695
2.94025e-05
-0.0061854
2.52128e-05
-0.00619244
2.09478e-05
-0.00619804
1.66071e-05
-0.00620214
1.2186e-05
-0.00620469
7.67631e-06
-0.00620561
3.07372e-06
-0.00620483
-1.59607e-06
-0.00620278
-6.08962e-06
-0.0061993
-1.06586e-05
-0.00619433
-1.53139e-05
-0.00618778
-2.0071e-05
-0.0061796
-2.49082e-05
-0.00616976
-2.98009e-05
-0.00615825
-3.47337e-05
-0.00614506
-3.96975e-05
-0.0061302
-4.46868e-05
-0.00611366
-4.96975e-05
-0.00609544
-5.47264e-05
-0.00607552
-5.97702e-05
-0.00605392
-6.48254e-05
-0.00603063
-6.98882e-05
-0.00600564
-7.49546e-05
-0.00597895
-8.00204e-05
-0.00595057
-8.50814e-05
-0.00592051
-9.01332e-05
-0.00588875
-9.51714e-05
-0.00585532
-0.000100192
-0.00582021
-0.000105189
-0.00578344
-0.00011016
-0.00574502
-0.000115099
-0.00570495
-0.000120003
-0.00566326
-0.000124865
-0.00561995
-0.000129683
-0.00557505
-0.000134451
-0.00552857
-0.000139165
-0.00548054
-0.000143821
-0.00543096
-0.000148413
-0.00537987
-0.000152939
-0.00532729
-0.000157392
-0.00527324
-0.00016177
-0.00521776
-0.000166067
-0.00516086
-0.000170279
-0.00510258
-0.000174403
-0.00504296
-0.000178434
-0.00498201
-0.000182369
-0.00491979
-0.000186202
-0.00485631
-0.000189931
-0.00479162
-0.000193551
-0.00472576
-0.000197058
-0.00465876
-0.00020045
-0.00459066
-0.000203722
-0.00452151
-0.000206871
-0.00445135
-0.000209894
-0.00438022
-0.000212787
-0.00430817
-0.000215547
-0.00423523
-0.000218171
-0.00416146
-0.000220657
-0.00408691
-0.000223001
-0.00401162
-0.0002252
-0.00393564
-0.000227252
-0.00385903
-0.000229155
-0.00378183
-0.000230907
-0.00370409
-0.000232505
-0.00362587
-0.000233947
-0.00354722
-0.000235232
-0.00346819
-0.000236358
-0.00338884
-0.000237323
-0.00330921
-0.000238126
-0.00322938
-0.000238767
-0.00314938
-0.000239244
-0.00306928
-0.000239557
-0.00298913
-0.000239705
-0.00290898
-0.000239687
-0.0028289
-0.000239504
-0.00274893
-0.000239157
-0.00266913
-0.000238644
-0.00258956
-0.000237967
-0.00251028
-0.000237126
-0.00243132
-0.000236123
-0.00235276
-0.000234958
-0.00227464
-0.000233634
-0.00219702
-0.00023215
-0.00211995
-0.00023051
-0.00204348
-0.000228715
-0.00196767
-0.000226767
-0.00189255
-0.000224669
-0.00181819
-0.000222423
-0.00174464
-0.000220031
-0.00167193
-0.000217498
-0.00160011
-0.000214826
-0.00152924
-0.000212015
-0.00145935
-0.000209073
-0.00139049
-0.000206005
-0.0013227
-0.000202812
-0.00125604
-0.000199483
-0.00119051
-0.000196065
-0.00112616
-0.000192516
-0.00106306
-0.000188846
-0.00100121
-0.000185094
-0.000940654
-0.000181223
-0.000881438
-0.000177263
-0.00082356
-0.000173224
-0.000767058
-0.000169091
-0.000712008
-0.000164845
-0.000658366
-0.000160564
-0.000606181
-0.000156208
-0.000555489
-0.000151762
-0.000506321
-0.000147261
-0.000458675
-0.000142704
-0.000412567
-0.000138101
-0.000368051
-0.000133437
-0.000325049
-0.000128764
-0.000283651
-0.000124021
-0.000243856
-0.000119264
-0.000205652
-0.000114464
-0.000169094
-0.000109641
-0.000134131
-0.000104829
-0.000100807
-9.9998e-05
-6.91012e-05
-9.51512e-05
-3.89854e-05
-9.0338e-05
-1.05013e-05
-8.54996e-05
1.63756e-05
-8.06924e-05
4.16423e-05
-7.58921e-05
6.53077e-05
-7.11148e-05
8.73811e-05
-6.63683e-05
0.000107872
-6.16555e-05
0.0001268
-5.69891e-05
0.000144178
-5.23655e-05
0.000160024
-4.7793e-05
0.000174356
-4.32771e-05
0.0001872
-3.88256e-05
0.000198579
-3.4443e-05
0.000208513
-3.01291e-05
0.000217031
-2.5895e-05
0.000224155
-2.17371e-05
0.000229917
-1.76698e-05
0.000234346
-1.36925e-05
0.000237486
-9.82e-06
0.000239364
-6.04143e-06
0.000240033
-2.37888e-06
0.000239464
1.19673e-06
0.000237736
4.63009e-06
0.000234902
7.95262e-06
0.000231
1.11568e-05
0.000226069
1.4236e-05
0.000220148
1.71856e-05
0.000213283
2.00015e-05
0.000205518
2.26805e-05
0.000196901
2.52194e-05
0.00018748
2.7615e-05
0.000177303
2.98643e-05
0.000166421
3.19644e-05
0.000154884
3.39127e-05
0.000142744
3.57069e-05
0.000130053
3.73448e-05
0.000116863
3.88245e-05
0.00010323
4.01441e-05
8.92061e-05
4.1302e-05
7.48477e-05
4.22969e-05
6.02096e-05
4.31275e-05
4.53474e-05
4.37929e-05
3.03172e-05
4.42923e-05
1.51751e-05
4.46253e-05
4.47256e-05
-2.38298e-05
9.54595e-05
-4.76746e-05
9.55198e-05
-7.1527e-05
9.555e-05
-9.53909e-05
9.55956e-05
-0.00011927
9.56564e-05
-0.000143168
9.57325e-05
-0.000167089
9.58238e-05
-0.000191036
9.59303e-05
-0.000215014
9.6052e-05
-0.000239027
9.6189e-05
-0.000263077
9.63412e-05
-0.000287169
9.65085e-05
-0.000311307
9.66911e-05
-0.000335494
9.68888e-05
-0.000359735
9.71018e-05
-0.000384032
9.73298e-05
-0.000408391
9.7573e-05
-0.000432814
9.78314e-05
-0.000457305
9.81048e-05
-0.000481868
9.83934e-05
-0.000506508
9.8697e-05
-0.000531227
9.90157e-05
-0.00055603
9.93495e-05
-0.00058092
9.96982e-05
-0.000605901
0.000100062
-0.000630976
0.000100441
-0.00065615
0.000100834
-0.000681426
0.000101243
-0.000706809
0.000101666
-0.0007323
0.000102104
-0.000757906
0.000102557
-0.000783628
0.000103025
-0.000809471
0.000103508
-0.000835438
0.000104005
-0.000861533
0.000104516
-0.00088776
0.000105043
-0.000914122
0.000105583
-0.000940623
0.000106139
-0.000967267
0.000106708
-0.000994057
0.000107292
-0.001021
0.00010789
-0.00104809
0.000108502
-0.00107534
0.000109129
-0.00110275
0.000109769
-0.00113032
0.000110423
-0.00115806
0.000111091
-0.00118597
0.000111772
-0.00121406
0.000112467
-0.00124232
0.000113176
-0.00127076
0.000113898
-0.00129939
0.000114633
-0.0013282
0.000115381
-0.00135721
0.000116142
-0.00138641
0.000116915
-0.0014158
0.000117702
-0.0014454
0.0001185
-0.0014752
0.000119311
-0.0015052
0.000120134
-0.00153542
0.000120969
-0.00156584
0.000121815
-0.00159648
0.000122673
-0.00162734
0.000123542
-0.00165842
0.000124422
-0.00168972
0.000125313
-0.00172125
0.000126214
-0.00175301
0.000127125
-0.001785
0.000128046
-0.00181722
0.000128977
-0.00184967
0.000129916
-0.00188237
0.000130865
-0.0019153
0.000131823
-0.00194848
0.000132788
-0.0019819
0.000133762
-0.00201557
0.000134743
-0.00204948
0.000135731
-0.00208364
0.000136725
-0.00211806
0.000137726
-0.00215273
0.000138732
-0.00218765
0.000139744
-0.00222283
0.000140761
-0.00225826
0.000141781
-0.00229395
0.000142806
-0.0023299
0.000143833
-0.00236611
0.000144863
-0.00240257
0.000145895
-0.0024393
0.000146929
-0.00247628
0.000147963
-0.00251353
0.000148997
-0.00255104
0.00015003
-0.0025888
0.000151062
-0.00262683
0.000152092
-0.00266511
0.000153119
-0.00270365
0.000154142
-0.00274245
0.000155161
-0.0027815
0.000156174
-0.00282081
0.000157181
-0.00286037
0.000158181
-0.00290017
0.000159173
-0.00294023
0.000160156
-0.00298053
0.000161129
-0.00302108
0.000162091
-0.00306186
0.00016304
-0.00310288
0.000163977
-0.00314413
0.000164899
-0.00318562
0.000165805
-0.00322732
0.000166695
-0.00326925
0.000167567
-0.0033114
0.00016842
-0.00335375
0.000169252
-0.00339631
0.000170063
-0.00343908
0.000170851
-0.00348203
0.000171614
-0.00352517
0.000172352
-0.0035685
0.000173062
-0.003612
0.000173744
-0.00365566
0.000174395
-0.00369948
0.000175014
-0.00374345
0.0001756
-0.00378757
0.000176151
-0.00383181
0.000176666
-0.00387618
0.000177142
-0.00392067
0.000177578
-0.00396525
0.000177972
-0.00400993
0.000178323
-0.00405469
0.000178628
-0.00409951
0.000178887
-0.0041444
0.000179096
-0.00418932
0.000179255
-0.00423428
0.00017936
-0.00427926
0.000179412
-0.00432424
0.000179406
-0.0043692
0.000179342
-0.00441415
0.000179218
-0.00445905
0.000179031
-0.00450389
0.000178779
-0.00454866
0.000178461
-0.00459333
0.000178074
-0.0046379
0.000177617
-0.00468234
0.000177086
-0.00472663
0.000176481
-0.00477076
0.0001758
-0.00481471
0.000175039
-0.00485845
0.000174198
-0.00490196
0.000173273
-0.00494522
0.000172264
-0.00498822
0.000171167
-0.00503093
0.000169982
-0.00507332
0.000168705
-0.00511538
0.000167336
-0.00515707
0.000165872