/*--------------------------------*- C++ -*----------------------------------*\
| =========                 |                                                 |
| \\      /  F ield         | OpenFOAM: The Open Source CFD Toolbox           |
|  \\    /   O peration     | Version:  v2006                                 |
|   \\  /    A nd           | Website:  www.openfoam.com                      |
|    \\/     M anipulation  |                                                 |
\*---------------------------------------------------------------------------*/
FoamFile
{
    version     2.0;
    format      ascii;
    class       surfaceScalarField;
    location    "9";
    object      phi;
}
// * * * * * * * * * * * * * * * * * * * * * * * * * * * * * * * * * * * * * //

dimensions      [0 3 -1 0 0 0 0];
oriented        oriented;


internalField   nonuniform List<scalar> 
104500
(
-2.76842e-05
2.76842e-05
-3.93762e-05
1.1692e-05
-5.33462e-05
1.397e-05
-7.10537e-05
1.77074e-05
-9.03328e-05
1.92792e-05
-0.000109808
1.94753e-05
-0.000129052
1.92439e-05
-0.000148062
1.90103e-05
-0.000166898
1.88358e-05
-0.000185584
1.86856e-05
-0.000204118
1.85343e-05
-0.000222497
1.83788e-05
-0.000240722
1.82249e-05
-0.000258801
1.80794e-05
-0.000276749
1.79483e-05
-0.000294586
1.78363e-05
-0.000312334
1.77482e-05
-0.000330023
1.7689e-05
-0.000347685
1.76622e-05
-0.000365356
1.76705e-05
-0.000383072
1.77167e-05
-0.000400875
1.78027e-05
-0.000418805
1.793e-05
-0.000436905
1.80994e-05
-0.000455215
1.831e-05
-0.000473775
1.85599e-05
-0.000492622
1.88472e-05
-0.000511792
1.91704e-05
-0.000531319
1.95268e-05
-0.000551232
1.99132e-05
-0.000571558
2.03259e-05
-0.000592319
2.07606e-05
-0.000613531
2.12129e-05
-0.00063521
2.16787e-05
-0.000657365
2.21551e-05
-0.000680005
2.26398e-05
-0.000703138
2.31325e-05
-0.000726773
2.36352e-05
-0.000750923
2.41504e-05
-0.000775601
2.4678e-05
-0.000800814
2.52131e-05
-0.00082656
2.57455e-05
-0.000852821
2.62617e-05
-0.00087957
2.67486e-05
-0.000906766
2.71962e-05
-0.000934367
2.76005e-05
-0.000962328
2.79616e-05
-0.000990611
2.82828e-05
-0.00101918
2.85695e-05
-0.00104801
2.8829e-05
-0.00107708
2.90679e-05
-0.00110636
2.92871e-05
-0.00113584
2.94754e-05
-0.00116545
2.96058e-05
-0.00119508
2.96378e-05
-0.00122461
2.9528e-05
-0.00125386
2.92462e-05
-0.00128265
2.87887e-05
-0.00131083
2.81854e-05
-0.00133833
2.74938e-05
-0.00136511
2.67843e-05
-0.00139123
2.61187e-05
-0.00141676
2.55355e-05
-0.00144181
2.50483e-05
-0.00146647
2.46528e-05
-0.0014908
2.43364e-05
-0.00151489
2.40845e-05
-0.00153877
2.38847e-05
-0.0015625
2.37277e-05
-0.0015861
2.36061e-05
-0.00160962
2.35146e-05
-0.00163307
2.34485e-05
-0.00165647
2.34041e-05
-0.00167985
2.33784e-05
-0.00170322
2.33694e-05
-0.0017266
2.33769e-05
-0.00175
2.34017e-05
-0.00177344
2.34439e-05
-0.00179694
2.35025e-05
-0.00182052
2.35737e-05
-0.00184417
2.36518e-05
-0.0018679
2.37308e-05
-0.00189171
2.38066e-05
-0.00191558
2.3877e-05
-0.00193953
2.39432e-05
-0.00196354
2.40088e-05
-0.00198762
2.40795e-05
-0.00201178
2.41628e-05
-0.00203604
2.42654e-05
-0.00206044
2.4392e-05
-0.00208498
2.4543e-05
-0.00210969
2.47148e-05
-0.0021346
2.49019e-05
-0.00215969
2.50924e-05
-0.00218497
2.52806e-05
-0.00221043
2.54574e-05
-0.00223604
2.56172e-05
-0.0022618
2.57563e-05
-0.00228767
2.58736e-05
-0.00231364
2.59696e-05
-0.00233969
2.60465e-05
-0.00236579
2.61053e-05
-0.00239194
2.61468e-05
-0.00241811
2.6171e-05
-0.00244429
2.6179e-05
-0.00247046
2.61712e-05
-0.00249661
2.615e-05
-0.00252273
2.61146e-05
-0.00254879
2.6065e-05
-0.00257479
2.60019e-05
-0.00260072
2.5924e-05
-0.00262655
2.58314e-05
-0.00265227
2.57244e-05
-0.00267788
2.56031e-05
-0.00270334
2.54672e-05
-0.00272866
2.53163e-05
-0.00275381
2.51502e-05
-0.00277878
2.49693e-05
-0.00280355
2.47741e-05
-0.00282812
2.45649e-05
-0.00285246
2.43421e-05
-0.00287657
2.41057e-05
-0.00290042
2.38559e-05
-0.00292402
2.35938e-05
-0.00294734
2.33207e-05
-0.00297037
2.30353e-05
-0.00299311
2.27381e-05
-0.00301554
2.243e-05
-0.00303765
2.21115e-05
-0.00305944
2.17831e-05
-0.00308088
2.14461e-05
-0.00310198
2.1099e-05
-0.00312272
2.0743e-05
-0.0031431
2.03786e-05
-0.00316311
2.00063e-05
-0.00318274
1.96278e-05
-0.00320198
1.92438e-05
-0.00322083
1.88523e-05
-0.00323929
1.84566e-05
-0.00325734
1.80548e-05
-0.00327499
1.76499e-05
-0.00329223
1.72396e-05
-0.00330906
1.68253e-05
-0.00332546
1.64062e-05
-0.00334145
1.59834e-05
-0.00335701
1.55658e-05
-0.00337219
1.51737e-05
-0.00338703
1.48393e-05
-0.00340162
1.45954e-05
-0.00341609
1.44667e-05
-0.00343054
1.44479e-05
-0.00344504
1.45009e-05
-0.0034596
1.45645e-05
-0.00347418
1.4577e-05
-0.00348868
1.44983e-05
-0.003503
1.432e-05
-0.00351706
1.40611e-05
-0.00353081
1.37524e-05
-0.00354423
1.34226e-05
-0.00355732
1.30897e-05
-0.00357009
1.27615e-05
-0.00358252
1.24397e-05
-0.00359465
1.21254e-05
-0.00360647
1.18224e-05
-0.00361801
1.15371e-05
-0.00362928
1.12743e-05
-0.00364032
1.10317e-05
-0.00365111
1.07977e-05
-0.00366167
1.05567e-05
-0.00367197
1.02956e-05
-0.00368197
1.00072e-05
-0.00369166
9.68868e-06
-0.003701
9.33901e-06
-0.00370996
8.95818e-06
-0.00371851
8.54676e-06
-0.00372661
8.10528e-06
-0.00373424
7.63347e-06
-0.00374138
7.1307e-06
-0.00374797
6.59502e-06
-0.00375398
6.01191e-06
-0.00375937
5.3853e-06
-0.00376408
4.71552e-06
-0.00376809
4.00535e-06
-0.00377135
3.26399e-06
-0.00377386
2.50701e-06
-0.00377561
1.7539e-06
-0.00377664
1.0232e-06
-0.00377696
3.24056e-07
-0.00377663
-3.31406e-07
-0.00377574
-8.91913e-07
-0.00377433
-1.40938e-06
-0.00377244
-1.88387e-06
-0.00377012
-2.32224e-06
-0.00376738
-2.73866e-06
-0.00376424
-3.14275e-06
-0.0037607
-3.54041e-06
-0.00375676
-3.93842e-06
-0.00375242
-4.34412e-06
-0.00374765
-4.76417e-06
-0.00374244
-5.2086e-06
-0.00373676
-5.68424e-06
-0.00373055
-6.20673e-06
-0.00372377
-6.78797e-06
-0.00371631
-7.45173e-06
-0.0037081
-8.21427e-06
-0.00369901
-9.09391e-06
-0.00368891
-1.00909e-05
-0.00367773
-1.11878e-05
-0.00366539
-1.23411e-05
-0.0036519
-1.34871e-05
-0.00363734
-1.45541e-05
-0.00362187
-1.54751e-05
-0.00360566
-1.6206e-05
-0.00358893
-1.67321e-05
-0.00357186
-1.70719e-05
-0.00355459
-1.72703e-05
-0.0035372
-1.7389e-05
-0.00351971
-1.74883e-05
-0.00350209
-1.76205e-05
-0.00348427
-1.78175e-05
-0.00346618
-1.80892e-05
-0.00344776
-1.84289e-05
-0.00342894
-1.88207e-05
-0.00340969
-1.92473e-05
-0.00338999
-1.96969e-05
-0.00336983
-2.01606e-05
-0.0033492
-2.06327e-05
-0.00332809
-2.11124e-05
-0.00330649
-2.15988e-05
-0.0032844
-2.20903e-05
-0.00326181
-2.25844e-05
-0.00323873
-2.30773e-05
-0.00321517
-2.35659e-05
-0.00319112
-2.40469e-05
-0.0031666
-2.45179e-05
-0.00314163
-2.4977e-05
-0.0031162
-2.54231e-05
-0.00309035
-2.58555e-05
-0.00306408
-2.62729e-05
-0.0030374
-2.66742e-05
-0.00301034
-2.70584e-05
-0.00298292
-2.74249e-05
-0.00295515
-2.77726e-05
-0.00292705
-2.81001e-05
-0.00289864
-2.84062e-05
-0.00286995
-2.86894e-05
-0.002841
-2.89486e-05
-0.00281182
-2.91822e-05
-0.00278243
-2.93888e-05
-0.00275286
-2.9567e-05
-0.00272315
-2.97149e-05
-0.00269332
-2.98304e-05
-0.00266341
-2.99106e-05
-0.00263345
-2.9952e-05
-0.0026035
-2.99502e-05
-0.0025736
-2.99005e-05
-0.00254381
-2.97983e-05
-0.00251417
-2.96395e-05
-0.00248475
-2.94207e-05
-0.00245561
-2.9139e-05
-0.00242681
-2.87923e-05
-0.00239843
-2.83827e-05
-0.00237051
-2.79195e-05
-0.00234309
-2.74227e-05
-0.00231617
-2.69205e-05
-0.00228973
-2.64406e-05
-0.00226373
-2.59978e-05
-0.00223815
-2.55853e-05
-0.00221297
-2.5176e-05
-0.00218824
-2.47331e-05
-0.00216401
-2.42232e-05
-0.00214039
-2.36243e-05
-0.00211746
-2.29256e-05
-0.00209534
-2.21238e-05
-0.00207412
-2.12166e-05
-0.00205392
-2.02007e-05
-0.00203485
-1.90722e-05
-0.00201702
-1.78292e-05
-0.00200055
-1.64743e-05
-0.00198553
-1.5016e-05
-0.00197206
-1.34696e-05
-0.0019602
-1.18589e-05
-0.00194999
-1.02142e-05
-0.00194142
-8.56989e-06
-0.00193445
-6.9644e-06
-0.00192901
-5.44098e-06
-0.00192496
-4.05211e-06
-0.0019221
-2.86404e-06
-0.00192014
-1.95748e-06
-0.00191872
-1.42273e-06
-0.00191737
-1.34597e-06
-0.00191556
-1.80742e-06
-0.00191267
-2.88946e-06
-0.00190801
-4.66214e-06
-0.00190088
-7.1276e-06
-0.00189069
-1.01884e-05
-0.00187709
-1.3609e-05
-0.00186006
-1.70304e-05
-0.00183999
-2.00626e-05
-0.00181759
-2.24077e-05
-0.00179364
-2.39428e-05
-0.0017689
-2.47393e-05
-0.00174389
-2.5012e-05
-0.00171886
-2.50283e-05
-0.00169384
-2.50274e-05
-0.00166866
-2.51726e-05
-0.00164312
-2.5539e-05
-0.001617
-2.61283e-05
-0.00159011
-2.68893e-05
-0.00156236
-2.77465e-05
-0.00153373
-2.86326e-05
-0.00150422
-2.95058e-05
-0.00147387
-3.035e-05
-0.00144271
-3.11652e-05
-0.00141075
-3.19544e-05
-0.00137803
-3.27182e-05
-0.00134458
-3.34518e-05
-0.00131043
-3.41473e-05
-0.00127563
-3.48005e-05
-0.00124022
-3.54117e-05
-0.00120424
-3.5985e-05
-0.00116771
-3.65286e-05
-0.00113066
-3.70487e-05
-0.00109311
-3.75458e-05
-0.00105509
-3.80209e-05
-0.00101662
-3.84749e-05
-0.000977715
-3.89038e-05
-0.000938406
-3.9309e-05
-0.000898711
-3.9695e-05
-0.000858651
-4.00597e-05
-0.000818245
-4.04061e-05
-0.000777509
-4.07359e-05
-0.000736457
-4.10521e-05
-0.000695098
-4.13583e-05
-0.000653442
-4.16561e-05
-0.000611496
-4.19464e-05
-0.000569266
-4.223e-05
-0.000526762
-4.25043e-05
-0.000483994
-4.27681e-05
-0.000440971
-4.3023e-05
-0.000397706
-4.3265e-05
-0.000354215
-4.34902e-05
-0.000310532
-4.3683e-05
-0.000266696
-4.38361e-05
-0.000222723
-4.39735e-05
-0.000178527
-4.41961e-05
-0.000133875
-4.46515e-05
-8.79347e-05
-4.59405e-05
-4.03694e-05
-4.75653e-05
-4.03694e-05
-3.8258e-05
6.59423e-05
-5.98143e-05
3.32482e-05
-8.48535e-05
3.90093e-05
-0.000114182
4.70359e-05
-0.000145096
5.01935e-05
-0.000175943
5.03218e-05
-0.00020634
4.9641e-05
-0.000236371
4.90419e-05
-0.000266129
4.85937e-05
-0.000295627
4.81834e-05
-0.000324845
4.77525e-05
-0.000353767
4.73004e-05
-0.000382386
4.68435e-05
-0.000410703
4.63965e-05
-0.000438724
4.59698e-05
-0.000466459
4.55717e-05
-0.000493921
4.52096e-05
-0.000521121
4.48895e-05
-0.000548075
4.4616e-05
-0.000574797
4.43926e-05
-0.000601302
4.42217e-05
-0.000627604
4.41043e-05
-0.000653714
4.40403e-05
-0.000679643
4.40285e-05
-0.000705399
4.40659e-05
-0.000730988
4.41488e-05
-0.000756414
4.42733e-05
-0.000781678
4.44348e-05
-0.00080678
4.46281e-05
-0.000831715
4.48482e-05
-0.000856478
4.50894e-05
-0.000881064
4.5346e-05
-0.000905463
4.5612e-05
-0.000929666
4.58822e-05
-0.000953664
4.61523e-05
-0.000977443
4.64191e-05
-0.00100099
4.66805e-05
-0.00102429
4.69368e-05
-0.00104733
4.7189e-05
-0.00107009
4.74379e-05
-0.00109256
4.76823e-05
-0.00111473
4.79179e-05
-0.00113661
4.81383e-05
-0.0011582
4.83365e-05
-0.00117951
4.85072e-05
-0.00120056
4.86487e-05
-0.00122136
4.87612e-05
-0.00124192
4.88459e-05
-0.00126225
4.89052e-05
-0.00128237
4.89426e-05
-0.00130226
4.89611e-05
-0.00132194
4.89619e-05
-0.0013414
4.89433e-05
-0.0013607
4.89007e-05
-0.00137989
4.88284e-05
-0.00139908
4.87219e-05
-0.00141842
4.8581e-05
-0.00143804
4.84119e-05
-0.00145808
4.82262e-05
-0.00147863
4.80388e-05
-0.00149971
4.78646e-05
-0.0015213
4.77149e-05
-0.00154336
4.75963e-05
-0.00156583
4.7511e-05
-0.00158863
4.74581e-05
-0.00161173
4.74353e-05
-0.00163509
4.74396e-05
-0.00165867
4.74683e-05
-0.00168246
4.75193e-05
-0.00170645
4.75911e-05
-0.00173061
4.76823e-05
-0.00175496
4.7792e-05
-0.00177947
4.79192e-05
-0.00180416
4.8063e-05
-0.00182901
4.82224e-05
-0.00185403
4.83965e-05
-0.00187921
4.85851e-05
-0.00190456
4.87852e-05
-0.00193005
4.89977e-05
-0.0019557
4.92185e-05
-0.00198149
4.94475e-05
-0.00200744
4.96802e-05
-0.00203355
4.99135e-05
-0.00205981
5.01432e-05
-0.00208624
5.03677e-05
-0.00211281
5.05853e-05
-0.00213953
5.07972e-05
-0.00216638
5.1008e-05
-0.00219333
5.12202e-05
-0.00222038
5.1442e-05
-0.00224751
5.16744e-05
-0.00227472
5.19235e-05
-0.00230201
5.21874e-05
-0.00232938
5.24636e-05
-0.00235684
5.27462e-05
-0.00238441
5.30263e-05
-0.0024121
5.3302e-05
-0.00243991
5.35666e-05
-0.00246785
5.38105e-05
-0.00249591
5.40348e-05
-0.0025241
5.42359e-05
-0.00255241
5.44113e-05
-0.00258082
5.45596e-05
-0.00260933
5.46796e-05
-0.00263792
5.47704e-05
-0.00266658
5.48312e-05
-0.00269529
5.48618e-05
-0.00272404
5.48616e-05
-0.0027528
5.48304e-05
-0.00278157
5.47676e-05
-0.00281032
5.46731e-05
-0.00283903
5.45466e-05
-0.0028677
5.43872e-05
-0.00289629
5.41945e-05
-0.00292479
5.39661e-05
-0.00295317
5.37022e-05
-0.00298143
5.34057e-05
-0.00300953
5.30753e-05
-0.00303747
5.27101e-05
-0.00306521
5.23105e-05
-0.00309275
5.18741e-05
-0.00312005
5.14044e-05
-0.00314709
5.09016e-05
-0.00317386
5.03653e-05
-0.00320034
4.9797e-05
-0.0032265
4.9195e-05
-0.00325232
4.8563e-05
-0.00327779
4.79002e-05
-0.00330289
4.72081e-05
-0.00332759
4.64852e-05
-0.00335188
4.57354e-05
-0.00337574
4.49581e-05
-0.00339915
4.41547e-05
-0.0034221
4.33231e-05
-0.00344456
4.24668e-05
-0.00346651
4.15854e-05
-0.00348795
4.06788e-05
-0.00350884
3.97473e-05
-0.00352918
3.87915e-05
-0.00354894
3.781e-05
-0.00356809
3.68021e-05
-0.00358661
3.57671e-05
-0.00360449
3.47034e-05
-0.0036217
3.36096e-05
-0.0036382
3.24858e-05
-0.00365397
3.13348e-05
-0.00366896
3.01652e-05
-0.00368311
2.89948e-05
-0.00369637
2.78484e-05
-0.00370865
2.67509e-05
-0.00371993
2.57235e-05
-0.0037302
2.47711e-05
-0.00373951
2.38776e-05
-0.00374795
2.30166e-05
-0.00375561
2.21594e-05
-0.00376258
2.12838e-05
-0.0037689
2.03811e-05
-0.0037746
1.94543e-05
-0.00377968
1.85102e-05
-0.00378415
1.75574e-05
-0.00378799
1.6602e-05
-0.0037912
1.5647e-05
-0.00379377
1.46948e-05
-0.00379569
1.37463e-05
-0.00379696
1.28034e-05
-0.00379755
1.18671e-05
-0.00379746
1.09379e-05
-0.00379668
1.0015e-05
-0.00379522
9.09728e-06
-0.0037931
8.18328e-06
-0.00379037
7.27198e-06
-0.00378704
6.36263e-06
-0.00378316
5.45446e-06
-0.00377875
4.54617e-06
-0.00377384
3.63592e-06
-0.00376845
2.72209e-06
-0.00376262
1.80448e-06
-0.00375638
8.88505e-07
-0.00374979
6.63275e-09
-0.00374284
-9.42965e-07
-0.00373555
-1.90009e-06
-0.00372798
-2.85541e-06
-0.00372017
-3.81058e-06
-0.00371214
-4.7626e-06
-0.00370393
-5.70562e-06
-0.00369554
-6.63392e-06
-0.00368697
-7.54119e-06
-0.00367823
-8.422e-06
-0.00366929
-9.2698e-06
-0.0036601
-1.00837e-05
-0.00365063
-1.08744e-05
-0.00364087
-1.16497e-05
-0.00363078
-1.24084e-05
-0.00362036
-1.31606e-05
-0.00360959
-1.3908e-05
-0.00359848
-1.46543e-05
-0.00358701
-1.54039e-05
-0.0035752
-1.61608e-05
-0.00356303
-1.69319e-05
-0.00355051
-1.77269e-05
-0.00353764
-1.85522e-05
-0.00352443
-1.94173e-05
-0.00351089
-2.03326e-05
-0.00349703
-2.13057e-05
-0.00348291
-2.23437e-05
-0.00346856
-2.3444e-05
-0.00345405
-2.45965e-05
-0.00343946
-2.578e-05
-0.00342483
-2.69639e-05
-0.00341021
-2.81106e-05
-0.00339558
-2.91813e-05
-0.00338091
-3.01442e-05
-0.00336614
-3.09828e-05
-0.00335117
-3.16979e-05
-0.00333593
-3.23101e-05
-0.00332035
-3.28509e-05
-0.00330438
-3.33646e-05
-0.00328798
-3.38856e-05
-0.00327116
-3.4443e-05
-0.00325392
-3.50525e-05
-0.00323629
-3.57186e-05
-0.00321829
-3.64347e-05
-0.00319992
-3.7191e-05
-0.00318119
-3.79715e-05
-0.00316212
-3.87663e-05
-0.00314272
-3.95637e-05
-0.00312299
-4.03606e-05
-0.00310295
-4.1152e-05
-0.00308261
-4.19371e-05
-0.00306199
-4.27119e-05
-0.0030411
-4.34742e-05
-0.00301996
-4.42218e-05
-0.00299857
-4.49517e-05
-0.00297696
-4.56613e-05
-0.00295513
-4.63489e-05
-0.00293309
-4.70134e-05
-0.00291086
-4.7654e-05
-0.00288845
-4.827e-05
-0.00286586
-4.88613e-05
-0.0028431
-4.94284e-05
-0.00282019
-4.9971e-05
-0.00279713
-5.04889e-05
-0.00277392
-5.09823e-05
-0.00275057
-5.14508e-05
-0.00272708
-5.18949e-05
-0.00270345
-5.2315e-05
-0.00267969
-5.27111e-05
-0.00265579
-5.30842e-05
-0.00263174
-5.34345e-05
-0.00260755
-5.37619e-05
-0.00258319
-5.40671e-05
-0.00255867
-5.43504e-05
-0.00253397
-5.46122e-05
-0.00250907
-5.48526e-05
-0.00248395
-5.50719e-05
-0.00245858
-5.52699e-05
-0.00243293
-5.54467e-05
-0.00240697
-5.56025e-05
-0.00238065
-5.57375e-05
-0.00235394
-5.58511e-05
-0.00232679
-5.59431e-05
-0.00229916
-5.60139e-05
-0.00227101
-5.6064e-05
-0.00224234
-5.60933e-05
-0.00221316
-5.61011e-05
-0.00218352
-5.60855e-05
-0.00215347
-5.60433e-05
-0.00212309
-5.59693e-05
-0.00209241
-5.58562e-05
-0.00206145
-5.56957e-05
-0.00203019
-5.54787e-05
-0.00199862
-5.51961e-05
-0.00196671
-5.48395e-05
-0.00193443
-5.44002e-05
-0.00190178
-5.3868e-05
-0.00186875
-5.32308e-05
-0.00183534
-5.24765e-05
-0.00180158
-5.15934e-05
-0.00176748
-5.05705e-05
-0.0017331
-4.93994e-05
-0.00169849
-4.80767e-05
-0.00166375
-4.66056e-05
-0.00162896
-4.49994e-05
-0.00159425
-4.32836e-05
-0.00155971
-4.14986e-05
-0.00152545
-3.97011e-05
-0.00149154
-3.79653e-05
-0.00145802
-3.63836e-05
-0.00142492
-3.50618e-05
-0.00139222
-3.41215e-05
-0.00135989
-3.36692e-05
-0.00132803
-3.36727e-05
-0.00129672
-3.41975e-05
-0.0012661
-3.52799e-05
-0.00123633
-3.68973e-05
-0.00120755
-3.89668e-05
-0.00117982
-4.13429e-05
-0.00115302
-4.38334e-05
-0.00112685
-4.62328e-05
-0.00110089
-4.83647e-05
-0.00107472
-5.01116e-05
-0.00104804
-5.14239e-05
-0.00102074
-5.23124e-05
-0.000992926
-5.28384e-05
-0.000964852
-5.31017e-05
-0.0009368
-5.3224e-05
-0.000909016
-5.33235e-05
-0.000881651
-5.34924e-05
-0.000854758
-5.37829e-05
-0.000828297
-5.42078e-05
-0.000802175
-5.47539e-05
-0.000776286
-5.53949e-05
-0.000750535
-5.61013e-05
-0.000724856
-5.68446e-05
-0.000699213
-5.75971e-05
-0.000673597
-5.83338e-05
-0.000648019
-5.90297e-05
-0.000622504
-5.96625e-05
-0.000597083
-6.02217e-05
-0.000571789
-6.07056e-05
-0.000546655
-6.11192e-05
-0.000521712
-6.14713e-05
-0.000496993
-6.1768e-05
-0.00047253
-6.20084e-05
-0.000448362
-6.21898e-05
-0.000424527
-6.23096e-05
-0.000401065
-6.23659e-05
-0.000378016
-6.23573e-05
-0.000355424
-6.22874e-05
-0.000333326
-6.21579e-05
-0.000311759
-6.19729e-05
-0.000290756
-6.17388e-05
-0.000270341
-6.14669e-05
-0.000250533
-6.11669e-05
-0.000231336
-6.08524e-05
-0.000212753
-6.05294e-05
-0.000194779
-6.02041e-05
-0.000177401
-5.98825e-05
-0.0001606
-5.95695e-05
-0.000144347
-5.92761e-05
-0.000128608
-5.90041e-05
-0.000113335
-5.87624e-05
-9.84647e-05
-5.85536e-05
-8.39083e-05
-5.83924e-05
-6.9592e-05
-5.82898e-05
-5.55591e-05
-5.8229e-05
-4.21401e-05
-5.80704e-05
-2.90768e-05
-5.90038e-05
-1.4085e-05
-6.25571e-05
-5.44544e-05
-3.64452e-05
0.000102387
-5.53397e-05
5.21428e-05
-7.72595e-05
6.0929e-05
-0.000103724
7.35002e-05
-0.00013214
7.86102e-05
-0.000160609
7.87907e-05
-0.000188581
7.76127e-05
-0.000216107
7.65679e-05
-0.000243319
7.58054e-05
-0.000270263
7.5128e-05
-0.000296933
7.44225e-05
-0.000323315
7.36823e-05
-0.000349403
7.29316e-05
-0.000375202
7.21948e-05
-0.00040072
7.14884e-05
-0.000425972
7.08235e-05
-0.000450971
7.02089e-05
-0.000475735
6.96528e-05
-0.000500279
6.91607e-05
-0.000524624
6.87367e-05
-0.000548784
6.83822e-05
-0.000572777
6.80973e-05
-0.000596617
6.78799e-05
-0.000620316
6.77274e-05
-0.000643886
6.7636e-05
-0.000667337
6.76e-05
-0.000690677
6.76134e-05
-0.000713912
6.76695e-05
-0.000737045
6.77617e-05
-0.000760081
6.78841e-05
-0.000783022
6.80301e-05
-0.00080587
6.81939e-05
-0.000828627
6.83689e-05
-0.000851294
6.85495e-05
-0.000873873
6.8731e-05
-0.000896363
6.89098e-05
-0.000918766
6.90835e-05
-0.000941081
6.92512e-05
-0.000963305
6.94134e-05
-0.000985439
6.95717e-05
-0.00100748
6.97269e-05
-0.00102944
6.9878e-05
-0.00105133
7.00216e-05
-0.00107314
7.01531e-05
-0.00109491
7.02688e-05
-0.00111662
7.03669e-05
-0.00113831
7.04466e-05
-0.00115997
7.05082e-05
-0.00118162
7.05527e-05
-0.00120326
7.0582e-05
-0.0012249
7.05989e-05
-0.00124654
7.06075e-05
-0.00126821
7.06131e-05
-0.00128993
7.06215e-05
-0.00131174
7.06372e-05
-0.00133368
7.06614e-05
-0.00135579
7.0692e-05
-0.0013781
7.07239e-05
-0.00140063
7.07509e-05
-0.00142336
7.07677e-05
-0.00144626
7.07723e-05
-0.00146932
7.07671e-05
-0.00149248
7.07593e-05
-0.00151573
7.07581e-05
-0.00153904
7.07717e-05
-0.00156241
7.08064e-05
-0.00158584
7.08661e-05
-0.00160932
7.09523e-05
-0.00163287
7.10655e-05
-0.00165648
7.12057e-05
-0.00168017
7.13722e-05
-0.00170395
7.15647e-05
-0.00172781
7.17821e-05
-0.00175177
7.20235e-05
-0.00177583
7.22875e-05
-0.00180001
7.25724e-05
-0.0018243
7.28764e-05
-0.00184871
7.31983e-05
-0.00187325
7.3537e-05
-0.00189793
7.38903e-05
-0.00192274
7.42573e-05
-0.00194769
7.46353e-05
-0.0019728
7.50211e-05
-0.00199806
7.54099e-05
-0.00202349
7.5798e-05
-0.00204909
7.61823e-05
-0.00207486
7.65615e-05
-0.00210078
7.6936e-05
-0.00212687
7.73093e-05
-0.00215312
7.76849e-05
-0.00217951
7.80654e-05
-0.00220604
7.84538e-05
-0.0022327
7.88504e-05
-0.00225949
7.92519e-05
-0.0022864
7.96537e-05
-0.00231342
8.00492e-05
-0.00234055
8.04322e-05
-0.00236778
8.07973e-05
-0.00239511
8.11388e-05
-0.00242253
8.14517e-05
-0.00245002
8.17331e-05
-0.00247759
8.19802e-05
-0.00250522
8.21907e-05
-0.00253291
8.23626e-05
-0.00256063
8.2494e-05
-0.00258838
8.25836e-05
-0.00261615
8.263e-05
-0.00264392
8.26323e-05
-0.00267168
8.25893e-05
-0.00269941
8.25002e-05
-0.0027271
8.23636e-05
-0.00275473
8.21784e-05
-0.00278229
8.19457e-05
-0.00280976
8.16599e-05
-0.00283712
8.13253e-05
-0.00286436
8.09396e-05
-0.00289145
8.0502e-05
-0.00291839
8.00123e-05
-0.00294515
7.94719e-05
-0.00297172
7.88773e-05
-0.00299808
7.82325e-05
-0.00302421
7.75358e-05
-0.00305009
7.67892e-05
-0.00307572
7.59901e-05
-0.00310107
7.51431e-05
-0.00312612
7.42469e-05
-0.00315086
7.33034e-05
-0.00317527
7.23121e-05
-0.00319934
7.12767e-05
-0.00322305
7.01964e-05
-0.00324639
6.90735e-05
-0.00326934
6.79082e-05
-0.00329189
6.67036e-05
-0.00331402
6.54597e-05
-0.00333573
6.41779e-05
-0.00335701
6.286e-05
-0.00337784
6.1507e-05
-0.00339821
6.01198e-05
-0.00341812
5.86994e-05
-0.00343755
5.72477e-05
-0.00345652
5.57659e-05
-0.00347501
5.42544e-05
-0.00349302
5.27152e-05
-0.00351056
5.11489e-05
-0.00352763
4.95563e-05
-0.00354423
4.79356e-05
-0.00356035
4.62889e-05
-0.00357598
4.46213e-05
-0.00359108
4.29527e-05
-0.00360563
4.13032e-05
-0.00361961
3.97013e-05
-0.003633
3.8161e-05
-0.0036458
3.66789e-05
-0.00365802
3.52365e-05
-0.00366967
3.38088e-05
-0.00368076
3.23696e-05
-0.00369129
3.09071e-05
-0.00370125
2.9417e-05
-0.00371064
2.79064e-05
-0.00371947
2.63828e-05
-0.00372772
2.48529e-05
-0.00373539
2.33213e-05
-0.00374249
2.17889e-05
-0.003749
2.02569e-05
-0.00375492
1.87247e-05
-0.00376025
1.71929e-05
-0.00376497
1.5663e-05
-0.00376909
1.41375e-05
-0.00377261
1.26183e-05
-0.00377554
1.11058e-05
-0.00377786
9.59896e-06
-0.0037796
8.09669e-06
-0.00378074
6.59806e-06
-0.0037813
5.10275e-06
-0.00378127
3.61082e-06
-0.00378067
2.12158e-06
-0.0037795
6.29412e-07
-0.00377773
-8.80289e-07
-0.00377539
-2.33426e-06
-0.00377253
-3.80394e-06
-0.00376916
-5.26793e-06
-0.0037653
-6.71958e-06
-0.00376095
-8.1571e-06
-0.00375613
-9.57793e-06
-0.00375086
-1.098e-05
-0.00374513
-1.2363e-05
-0.00373894
-1.37267e-05
-0.00373229
-1.50764e-05
-0.00372515
-1.64054e-05
-0.00371752
-1.77176e-05
-0.00370938
-1.90137e-05
-0.00370074
-2.02938e-05
-0.00369158
-2.15613e-05
-0.00368193
-2.28159e-05
-0.00367178
-2.40582e-05
-0.00366114
-2.52911e-05
-0.00365003
-2.65181e-05
-0.00363845
-2.77426e-05
-0.00362641
-2.89684e-05
-0.00361393
-3.02021e-05
-0.00360104
-3.14483e-05
-0.00358774
-3.27117e-05
-0.00357408
-3.39979e-05
-0.00356008
-3.5309e-05
-0.00354577
-3.66478e-05
-0.0035312
-3.80121e-05
-0.00351641
-3.9392e-05
-0.00350142
-4.07698e-05
-0.00348626
-4.21217e-05
-0.00347095
-4.34219e-05
-0.00345548
-4.46456e-05
-0.00343985
-4.57769e-05
-0.00342402
-4.68128e-05
-0.00340795
-4.77658e-05
-0.0033916
-4.86607e-05
-0.00337493
-4.95277e-05
-0.00335789
-5.03985e-05
-0.00334048
-5.12993e-05
-0.00332268
-5.22457e-05
-0.00330449
-5.32385e-05
-0.00328594
-5.42693e-05
-0.00326704
-5.53298e-05
-0.00324783
-5.64047e-05
-0.00322832
-5.74847e-05
-0.00320852
-5.85627e-05
-0.00318845
-5.96335e-05
-0.00316812
-6.06929e-05
-0.00314753
-6.17377e-05
-0.00312671
-6.27647e-05
-0.00310565
-6.37705e-05
-0.00308437
-6.47526e-05
-0.00306288
-6.57069e-05
-0.0030412
-6.66319e-05
-0.00301934
-6.75269e-05
-0.0029973
-6.83884e-05
-0.00297509
-6.92189e-05
-0.00295273
-7.00149e-05
-0.00293022
-7.07796e-05
-0.00290757
-7.15096e-05
-0.0028848
-7.22071e-05
-0.00286189
-7.28718e-05
-0.00283888
-7.35032e-05
-0.00281576
-7.41022e-05
-0.00279254
-7.46701e-05
-0.00276923
-7.52071e-05
-0.00274583
-7.5714e-05
-0.00272235
-7.61915e-05
-0.00269879
-7.66406e-05
-0.00267516
-7.70629e-05
-0.00265147
-7.74592e-05
-0.0026277
-7.78306e-05
-0.00260387
-7.81795e-05
-0.00257998
-7.85064e-05
-0.00255602
-7.8813e-05
-0.00253199
-7.91023e-05
-0.00250788
-7.93759e-05
-0.00248369
-7.96363e-05
-0.00245941
-7.98851e-05
-0.00243502
-8.01247e-05
-0.00241052
-8.03571e-05
-0.00238588
-8.05844e-05
-0.00236108
-8.08081e-05
-0.00233612
-8.10277e-05
-0.00231097
-8.12393e-05
-0.00228564
-8.14355e-05
-0.00226012
-8.16069e-05
-0.00223441
-8.17457e-05
-0.00220854
-8.18482e-05
-0.00218248
-8.19154e-05
-0.00215622
-8.19512e-05
-0.00212974
-8.19587e-05
-0.002103
-8.19379e-05
-0.00207595
-8.18858e-05
-0.00204856
-8.17972e-05
-0.00202076
-8.16662e-05
-0.0019925
-8.1487e-05
-0.00196372
-8.12539e-05
-0.00193436
-8.09605e-05
-0.00190433
-8.05999e-05
-0.00187356
-8.01652e-05
-0.00184199
-7.96504e-05
-0.00180955
-7.90485e-05
-0.00177619
-7.83547e-05
-0.0017419
-7.75711e-05
-0.00170669
-7.67084e-05
-0.00167061
-7.57875e-05
-0.00163373
-7.48405e-05
-0.00159621
-7.39077e-05
-0.00155824
-7.30322e-05
-0.0015201
-7.22613e-05
-0.0014821
-7.16665e-05
-0.00144446
-7.13091e-05
-0.00140743
-7.12343e-05
-0.00137123
-7.14721e-05
-0.00133609
-7.20365e-05
-0.00130215
-7.29155e-05
-0.00126943
-7.40613e-05
-0.00123787
-7.53932e-05
-0.00120729
-7.68137e-05
-0.00117742
-7.82279e-05
-0.00114798
-7.95546e-05
-0.00111868
-8.07289e-05
-0.00108929
-8.16995e-05
-0.0010597
-8.24313e-05
-0.00102988
-8.29138e-05
-0.000999933
-8.31749e-05
-0.000969996
-8.32609e-05
-0.000940227
-8.32614e-05
-0.000910731
-8.32783e-05
-0.000881549
-8.33903e-05
-0.000852659
-8.36438e-05
-0.000824013
-8.40406e-05
-0.000795565
-8.45497e-05
-0.000767286
-8.51232e-05
-0.000739171
-8.57122e-05
-0.000711228
-8.62773e-05
-0.000683464
-8.67936e-05
-0.000655879
-8.72476e-05
-0.000628467
-8.76338e-05
-0.000601226
-8.79457e-05
-0.000574165
-8.81809e-05
-0.000547296
-8.83402e-05
-0.000520644
-8.84198e-05
-0.00049424
-8.84123e-05
-0.000468115
-8.83147e-05
-0.000442303
-8.81223e-05
-0.000416839
-8.783e-05
-0.000391761
-8.74347e-05
-0.000367116
-8.69324e-05
-0.000342945
-8.63293e-05
-0.0003193
-8.5618e-05
-0.00029623
-8.48082e-05
-0.000273786
-8.39113e-05
-0.000252013
-8.29398e-05
-0.000230965
-8.19007e-05
-0.00021068
-8.08137e-05
-0.00019119
-7.96947e-05
-0.000172516
-7.85559e-05
-0.000154674
-7.74123e-05
-0.000137662
-7.62874e-05
-0.000121466
-7.52004e-05
-0.000106057
-7.41719e-05
-9.1387e-05
-7.32232e-05
-7.73952e-05
-7.23842e-05
-6.40321e-05
-7.16529e-05
-5.13565e-05
-7.09047e-05
-3.91416e-05
-7.02853e-05
-2.61902e-05
-7.19553e-05
-1.06319e-05
-7.81154e-05
-6.50863e-05
-3.50981e-05
0.000137486
-5.24868e-05
6.95315e-05
-7.24377e-05
8.08799e-05
-9.68203e-05
9.78828e-05
-0.000123236
0.000105026
-0.00014984
0.000105394
-0.000175998
0.00010377
-0.000201709
0.00010228
-0.000227082
0.000101178
-0.000252168
0.000100214
-0.000276966
9.92207e-05
-0.000301468
9.81838e-05
-0.000325674
9.71377e-05
-0.000349594
9.61151e-05
-0.000373244
9.51389e-05
-0.000396645
9.42242e-05
-0.000419822
9.33853e-05
-0.000442801
9.26322e-05
-0.000465611
9.19703e-05
-0.000488279
9.14052e-05
-0.000510836
9.0939e-05
-0.00053331
9.05715e-05
-0.000555729
9.02985e-05
-0.000578117
9.01152e-05
-0.000600495
9.00145e-05
-0.000622884
8.99893e-05
-0.000645302
9.00307e-05
-0.000667762
9.01295e-05
-0.000690276
9.02764e-05
-0.000712855
9.04624e-05
-0.000735503
9.06788e-05
-0.000758227
9.09172e-05
-0.000781028
9.117e-05
-0.000803908
9.14302e-05
-0.000826869
9.16921e-05
-0.00084991
9.19504e-05
-0.000873028
9.22016e-05
-0.00089622
9.24432e-05
-0.000919481
9.2674e-05
-0.000942802
9.28929e-05
-0.000966174
9.30988e-05
-0.000989585
9.32891e-05
-0.00101302
9.3461e-05
-0.00103648
9.36116e-05
-0.00105995
9.37392e-05
-0.00108343
9.38433e-05
-0.00110691
9.39248e-05
-0.00113039
9.39854e-05
-0.00115386
9.40276e-05
-0.00117733
9.40538e-05
-0.0012008
9.40673e-05
-0.00122426
9.40714e-05
-0.00124772
9.40692e-05
-0.00127116
9.40633e-05
-0.00129458
9.4055e-05
-0.00131796
9.40447e-05
-0.0013413
9.40315e-05
-0.00136459
9.40149e-05
-0.00138784
9.39951e-05
-0.00141104
9.39736e-05
-0.00143423
9.39542e-05
-0.0014574
9.39416e-05
-0.00148058
9.39418e-05
-0.00150378
9.396e-05
-0.00152701
9.4001e-05
-0.00155028
9.40683e-05
-0.00157357
9.4165e-05
-0.00159691
9.42922e-05
-0.0016203
9.44516e-05
-0.00164374
9.46436e-05
-0.00166724
9.48686e-05
-0.0016908
9.51259e-05
-0.00171443
9.54155e-05
-0.00173814
9.57363e-05
-0.00176194
9.60873e-05
-0.00178584
9.64674e-05
-0.00180984
9.68751e-05
-0.00183395
9.73079e-05
-0.00185817
9.77644e-05
-0.00188252
9.82415e-05
-0.001907
9.87378e-05
-0.00193162
9.92497e-05
-0.00195637
9.9776e-05
-0.00198127
0.00010031
-0.00200633
0.000100852
-0.00203155
0.000101399
-0.00205693
0.00010195
-0.0020825
0.000102501
-0.00210824
0.000103054
-0.00213417
0.00010361
-0.00216027
0.000104162
-0.00218653
0.000104715
-0.00221294
0.000105267
-0.0022395
0.000105807
-0.00226618
0.000106338
-0.00229299
0.000106855
-0.0023199
0.000107349
-0.00234692
0.000107817
-0.00237404
0.000108257
-0.00240125
0.000108657
-0.00242853
0.00010902
-0.0024559
0.000109341
-0.00248332
0.000109616
-0.0025108
0.000109842
-0.00253832
0.000110017
-0.00256588
0.000110138
-0.00259345
0.000110204
-0.00262103
0.000110212
-0.0026486
0.00011016
-0.00267615
0.000110047
-0.00270366
0.000109872
-0.00273111
0.000109633
-0.0027585
0.00010933
-0.0027858
0.00010896
-0.00281299
0.000108524
-0.00284007
0.00010802
-0.00286702
0.000107447
-0.00289381
0.000106807
-0.00292044
0.000106099
-0.00294689
0.000105321
-0.00297313
0.000104475
-0.00299916
0.000103562
-0.00302495
0.000102582
-0.00305049
0.000101536
-0.00307577
0.000100423
-0.00310077
9.92464e-05
-0.00312548
9.80073e-05
-0.00314987
9.67056e-05
-0.00317394
9.53431e-05
-0.00319766
9.39221e-05
-0.00322103
9.24438e-05
-0.00324403
9.09097e-05
-0.00326665
8.93214e-05
-0.00328887
8.76805e-05
-0.00331068
8.59895e-05
-0.00333208
8.42503e-05
-0.00335303
8.24634e-05
-0.00337354
8.06316e-05
-0.0033936
7.87564e-05
-0.00341319
7.68395e-05
-0.00343231
7.48835e-05
-0.00345095
7.28903e-05
-0.00346909
7.08625e-05
-0.00348675