/*--------------------------------*- C++ -*----------------------------------*\
| =========                 |                                                 |
| \\      /  F ield         | OpenFOAM: The Open Source CFD Toolbox           |
|  \\    /   O peration     | Version:  v2006                                 |
|   \\  /    A nd           | Website:  www.openfoam.com                      |
|    \\/     M anipulation  |                                                 |
\*---------------------------------------------------------------------------*/
FoamFile
{
    version     2.0;
    format      ascii;
    class       surfaceScalarField;
    location    "12.2";
    object      phi;
}
// * * * * * * * * * * * * * * * * * * * * * * * * * * * * * * * * * * * * * //

dimensions      [0 3 -1 0 0 0 0];
oriented        oriented;


internalField   nonuniform List<scalar> 
104500
(
-1.58632e-05
1.58632e-05
-1.67489e-05
8.85749e-07
-1.96979e-05
2.94893e-06
-2.64305e-05
6.73264e-06
-3.49603e-05
8.52982e-06
-4.40491e-05
9.08876e-06
-5.33205e-05
9.27142e-06
-6.27771e-05
9.45656e-06
-7.2485e-05
9.70791e-06
-8.24989e-05
1.00139e-05
-9.28396e-05
1.03407e-05
-0.000103524
1.06846e-05
-0.00011455
1.10256e-05
-0.000125918
1.1368e-05
-0.000137621
1.17032e-05
-0.000149648
1.20274e-05
-0.000161993
1.2345e-05
-0.00017463
1.26368e-05
-0.000187541
1.29112e-05
-0.000200711
1.317e-05
-0.000214107
1.33951e-05
-0.000227704
1.35971e-05
-0.000241471
1.37676e-05
-0.00025538
1.39091e-05
-0.0002694
1.40192e-05
-0.000283496
1.40969e-05
-0.000297643
1.4147e-05
-0.000311798
1.41541e-05
-0.000325939
1.41409e-05
-0.00034003
1.4091e-05
-0.000354053
1.40237e-05
-0.000367971
1.39179e-05
-0.000381762
1.37907e-05
-0.000395406
1.36446e-05
-0.000408878
1.34716e-05
-0.000422154
1.32764e-05
-0.000435221
1.30668e-05
-0.000448092
1.28708e-05
-0.000460743
1.26509e-05
-0.00047318
1.24368e-05
-0.000485414
1.22342e-05
-0.000497461
1.20473e-05
-0.00050934
1.18789e-05
-0.00052104
1.16996e-05
-0.000532576
1.15365e-05
-0.000543931
1.13553e-05
-0.000555099
1.11673e-05
-0.000566065
1.09664e-05
-0.000576823
1.07578e-05
-0.000587369
1.05461e-05
-0.000597701
1.03318e-05
-0.000607827
1.01258e-05
-0.000617767
9.9401e-06
-0.00062755
9.7836e-06
-0.000637134
9.58399e-06
-0.000646481
9.34697e-06
-0.000655517
9.0356e-06
-0.000664127
8.60986e-06
-0.000672178
8.0513e-06
-0.000679516
7.33772e-06
-0.000686004
6.48814e-06
-0.000691541
5.53761e-06
-0.000696065
4.52303e-06
-0.000699543
3.47848e-06
-0.000701976
2.43268e-06
-0.000703394
1.41787e-06
-0.000703832
4.3872e-07
-0.000703318
-5.14706e-07
-0.000701905
-1.41253e-06
-0.000699633
-2.2717e-06
-0.000696529
-3.10425e-06
-0.000692619
-3.91042e-06
-0.000687924
-4.69428e-06
-0.000682465
-5.45921e-06
-0.000676257
-6.20801e-06
-0.000669319
-6.93784e-06
-0.000661643
-7.67653e-06
-0.000653265
-8.37741e-06
-0.000644171
-9.09401e-06
-0.000634396
-9.77552e-06
-0.000623941
-1.04544e-05
-0.000612815
-1.11259e-05
-0.000601022
-1.17932e-05
-0.000588591
-1.24315e-05
-0.000575495
-1.30958e-05
-0.000561733
-1.37618e-05
-0.000547307
-1.44262e-05
-0.000532215
-1.50916e-05
-0.000516459
-1.57563e-05
-0.000500044
-1.64155e-05
-0.00048298
-1.70637e-05
-0.000465284
-1.76956e-05
-0.00044698
-1.83048e-05
-0.000428093
-1.88862e-05
-0.000408629
-1.94644e-05
-0.000388633
-1.99955e-05
-0.000368157
-2.04763e-05
-0.000347195
-2.09625e-05
-0.00032577
-2.14249e-05
-0.000303902
-2.18676e-05
-0.000281616
-2.22866e-05
-0.00025892
-2.26958e-05
-0.000235831
-2.30892e-05
-0.000212359
-2.34713e-05
-0.000188523
-2.38358e-05
-0.000164338
-2.41855e-05
-0.00013982
-2.45181e-05
-0.000114984
-2.48354e-05
-8.98566e-05
-2.51278e-05
-6.44527e-05
-2.5404e-05
-3.88033e-05
-2.56494e-05
-1.29292e-05
-2.58741e-05
1.3129e-05
-2.60582e-05
3.9308e-05
-2.6179e-05
6.55225e-05
-2.62144e-05
9.16858e-05
-2.61633e-05
0.000117741
-2.60555e-05
0.000143674
-2.59326e-05
0.000169499
-2.58254e-05
0.000195242
-2.57422e-05
0.000220917
-2.56753e-05
0.000246529
-2.56119e-05
0.000272072
-2.55437e-05
0.000297536
-2.54638e-05
0.000322906
-2.53701e-05
0.000348167
-2.52609e-05
0.000373301
-2.51341e-05
0.00039829
-2.49887e-05
0.000423113
-2.48235e-05
0.000447751
-2.46378e-05
0.000472182
-2.44312e-05
0.000496386
-2.42033e-05
0.00052034
-2.39539e-05
0.000544022
-2.36827e-05
0.000567412
-2.33898e-05
0.000590487
-2.30752e-05
0.000613227
-2.27391e-05
0.000635608
-2.23817e-05
0.000657611
-2.20032e-05
0.000679216
-2.16042e-05
0.000700401
-2.11853e-05
0.000721149
-2.07478e-05
0.000741443
-2.02937e-05
0.000761268
-1.9825e-05
0.000780612
-1.93442e-05
0.000799465
-1.88534e-05
0.000817818
-1.83533e-05
0.00083566
-1.78417e-05
0.000852972
-1.73115e-05
0.000869721
-1.67496e-05
0.000885857
-1.61362e-05
0.000901304
-1.54466e-05
0.000915961
-1.46569e-05
0.000929711
-1.37498e-05
0.000942431
-1.27201e-05
0.000954009
-1.15784e-05
0.00096436
-1.03507e-05
0.00097343
-9.07019e-06
0.000981201
-7.77065e-06
0.000987677
-6.47648e-06
0.000992877
-5.20003e-06
0.000996816
-3.93839e-06
0.000999499
-2.68328e-06
0.00100093
-1.43022e-06
0.00100112
-1.93807e-07
0.000999906
1.2172e-06
0.000997348
2.55745e-06
0.000993468
3.88028e-06
0.000988326
5.14164e-06
0.000982052
6.27396e-06
0.000974842
7.21047e-06
0.000966936
7.90557e-06
0.0009586
8.33659e-06
0.000949981
8.61895e-06
0.000941176
8.80522e-06
0.00093228
8.89564e-06
0.000923402
8.87825e-06
0.000914679
8.72312e-06
0.000906272
8.40717e-06
0.000898336
7.93525e-06
0.000891003
7.33312e-06
0.000884319
6.68399e-06
0.000878227
6.09259e-06
0.000872573
5.65363e-06
0.000867143
5.42982e-06
0.000861712
5.43142e-06
0.000856088
5.62328e-06
0.000850143
5.94524e-06
0.000843809
6.33394e-06
0.000837071
6.73804e-06
0.000829948
7.12345e-06
0.000822477
7.47101e-06
0.000814705
7.77145e-06
0.000806685
8.02074e-06
0.000798467
8.21729e-06
0.000790107
8.36035e-06
0.000781658
8.44916e-06
0.000773175
8.48245e-06
0.000764717
8.45848e-06
0.000756341
8.37547e-06
0.000748109
8.23258e-06
0.000740077
8.0315e-06
0.000732299
7.77845e-06
0.000724813
7.48608e-06
0.000717637
7.17587e-06
0.000710757
6.88032e-06
0.000704118
6.6388e-06
0.000697633
6.48459e-06
0.000691199
6.43424e-06
0.000684709
6.48964e-06
0.000678062
6.64732e-06
0.00067116
6.90232e-06
0.000663916
7.24327e-06
0.000656271
7.64575e-06
0.000648198
8.07236e-06
0.000639717
8.48078e-06
0.000630884
8.83395e-06
0.000621776
9.10733e-06
0.000612484
9.29194e-06
0.000603091
9.39325e-06
0.000593664
9.42673e-06
0.000584252
9.41215e-06
0.000574884
9.36845e-06
0.000565573
9.31054e-06
0.000556325
9.24801e-06
0.00054714
9.18547e-06
0.000538016
9.12384e-06
0.000528954
9.06209e-06
0.000519955
8.9988e-06
0.000511022
8.93306e-06
0.000502157
8.86496e-06
0.000493362
8.79532e-06
0.000484636
8.72522e-06
0.00047598
8.65596e-06
0.000467392
8.58857e-06
0.000458868
8.52367e-06
0.000450407
8.46157e-06
0.000442004
8.40251e-06
0.000433658
8.34653e-06
0.000425364
8.29361e-06
0.00041712
8.24397e-06
0.000408922
8.19811e-06
0.000400765
8.15657e-06
0.000392646
8.11918e-06
0.000384559
8.08708e-06
0.000376498
8.06115e-06
0.000368456
8.04152e-06
0.000360426
8.03014e-06
0.000352398
8.02818e-06
0.000344361
8.03657e-06
0.000336304
8.05782e-06
0.00032821
8.09368e-06
0.000320062
8.14778e-06
0.000311838
8.22385e-06
0.000303513
8.32573e-06
0.000295054
8.45863e-06
0.000286426
8.62746e-06
0.000277589
8.83728e-06
0.000268496
9.09355e-06
0.000259103
9.39248e-06
0.000249388
9.71563e-06
0.000239341
1.00463e-05
0.000228957
1.03839e-05
0.000218221
1.07362e-05
0.000207115
1.11059e-05
0.000195626
1.1489e-05
0.000183748
1.18786e-05
0.000171478
1.22697e-05
0.000158814
1.26636e-05
0.000145744
1.30707e-05
0.000132232
1.35113e-05
0.00011822
1.40122e-05
0.000103619
1.46016e-05
8.83158e-05
1.53027e-05
7.21855e-05
1.61303e-05
5.50963e-05
1.70892e-05
3.69199e-05
1.81764e-05
1.75364e-05
1.93835e-05
-3.15968e-06
2.06961e-05
-2.52572e-05
2.20975e-05
-4.88122e-05
2.3555e-05
-7.38357e-05
2.50235e-05
-0.000100316
2.64806e-05
-0.000128124
2.78073e-05
-0.000157095
2.89713e-05
-0.00018702
2.9925e-05
-0.000217664
3.06441e-05
-0.000248781
3.11174e-05
-0.000280079
3.12976e-05
-0.000311216
3.11373e-05
-0.000341813
3.05965e-05
-0.000371432
2.96191e-05
-0.000399546
2.81139e-05
-0.000425458
2.59123e-05
-0.000448257
2.27987e-05
-0.000467106
1.8849e-05
-0.000481556
1.44497e-05
-0.000491759
1.02037e-05
-0.000498436
6.67615e-06
-0.000502621
4.18509e-06
-0.000505321
2.69999e-06
-0.000507285
1.96404e-06
-0.000508921
1.63617e-06
-0.000510385
1.46432e-06
-0.000511629
1.24354e-06
-0.000512437
8.07937e-07
-0.000512536
9.97397e-08
-0.000511833
-7.03824e-07
-0.000510252
-1.58088e-06
-0.000507756
-2.49593e-06
-0.000504339
-3.41697e-06
-0.000500003
-4.3358e-06
-0.000494755
-5.24809e-06
-0.000488615
-6.13966e-06
-0.000481629
-6.98582e-06
-0.000473868
-7.76168e-06
-0.000465418
-8.44971e-06
-0.000456367
-9.0505e-06
-0.000446791
-9.57611e-06
-0.000436753
-1.00385e-05
-0.000426302
-1.04509e-05
-0.000415478
-1.08238e-05
-0.000404318
-1.11598e-05
-0.000392857
-1.14615e-05
-0.000381121
-1.17362e-05
-0.00036913
-1.19903e-05
-0.0003569
-1.22301e-05
-0.00034444
-1.24599e-05
-0.000331761
-1.26796e-05
-0.000318868
-1.28924e-05
-0.000305765
-1.31034e-05
-0.000292447
-1.33182e-05
-0.000278902
-1.35443e-05
-0.000265115
-1.37876e-05
-0.000251061
-1.4054e-05
-0.000236716
-1.43446e-05
-0.000222058
-1.46583e-05
-0.00020706
-1.49982e-05
-0.000191696
-1.53638e-05
-0.000175949
-1.57474e-05
-0.000159812
-1.61368e-05
-0.000143296
-1.6516e-05
-0.000126429
-1.68668e-05
-0.000109239
-1.71906e-05
-9.17101e-05
-1.75285e-05
-7.37121e-05
-1.7998e-05
-5.50504e-05
-1.86617e-05
-3.53076e-05
-1.97428e-05
-1.48807e-05
-2.04269e-05
-1.48807e-05
-2.50349e-05
4.08981e-05
-3.70049e-05
1.28558e-05
-5.25489e-05
1.8493e-05
-7.20967e-05
2.62804e-05
-9.32008e-05
2.9634e-05
-0.000114444
3.03323e-05
-0.000135613
3.044e-05
-0.000156852
3.06954e-05
-0.000178257
3.11135e-05
-0.000199844
3.16009e-05
-0.000221607
3.21028e-05
-0.000243516
3.25938e-05
-0.000265555
3.30649e-05
-0.000287713
3.35262e-05
-0.000309975
3.3965e-05
-0.000332319
3.43715e-05
-0.000354712
3.4738e-05
-0.000377131
3.50556e-05
-0.000399542
3.53218e-05
-0.000421906
3.55347e-05
-0.00044418
3.56689e-05
-0.000466309
3.57258e-05
-0.00048827
3.57287e-05
-0.000509997
3.56359e-05
-0.000531464
3.54863e-05
-0.000552611
3.52437e-05
-0.000573385
3.49219e-05
-0.000593761
3.45296e-05
-0.000613687
3.4067e-05
-0.000633138
3.35419e-05
-0.000652057
3.29422e-05
-0.000670409
3.22705e-05
-0.000688183
3.1565e-05
-0.000705325
3.07861e-05
-0.000721833
2.998e-05
-0.000737699
2.91418e-05
-0.000752899
2.82673e-05
-0.000767408
2.738e-05
-0.000781246
2.64882e-05
-0.000794407
2.55985e-05
-0.000806891
2.47176e-05
-0.000818678
2.38344e-05
-0.000829757
2.29582e-05
-0.000840139
2.20816e-05
-0.000849815
2.12126e-05
-0.000858802
2.03416e-05
-0.000867106
1.9472e-05
-0.000874738
1.85985e-05
-0.000881708
1.77275e-05
-0.000888021
1.68593e-05
-0.000893677
1.59869e-05
-0.000898664
1.51133e-05
-0.000902988
1.42641e-05
-0.000906619
1.34143e-05
-0.000909572
1.2537e-05
-0.000911873
1.16487e-05
-0.000913559
1.07212e-05
-0.000914688
9.73855e-06
-0.000915347
8.71082e-06
-0.000915627
7.61728e-06
-0.000915589
6.45065e-06
-0.000915301
5.24934e-06
-0.000914789
4.01081e-06
-0.000914055
2.74444e-06
-0.000913074
1.45234e-06
-0.000911811
1.5478e-07
-0.000910282
-1.09052e-06
-0.000908427
-2.37016e-06
-0.000906189
-3.65025e-06
-0.00090354
-4.9202e-06
-0.000900461
-6.18319e-06
-0.000896932
-7.4396e-06
-0.000892935
-8.69197e-06
-0.000888453
-9.94094e-06
-0.000883473
-1.11878e-05
-0.000877973
-1.24383e-05
-0.000871986
-1.36635e-05
-0.000865446
-1.49173e-05
-0.000858402
-1.61379e-05
-0.000850794
-1.73837e-05
-0.000842628
-1.86203e-05
-0.000833895
-1.98585e-05
-0.000824595
-2.1093e-05
-0.000814702
-2.23248e-05
-0.000804238
-2.35599e-05
-0.000793197
-2.48027e-05
-0.000781588
-2.60357e-05
-0.000769414
-2.72649e-05
-0.000756689
-2.84819e-05
-0.000743422
-2.96822e-05
-0.000729623
-3.08626e-05
-0.000715303
-3.20156e-05
-0.000700472
-3.31357e-05
-0.000685135
-3.42233e-05
-0.000669351
-3.5249e-05
-0.000653086
-3.62599e-05
-0.000636335
-3.72272e-05
-0.000619137
-3.81605e-05
-0.0006015
-3.90623e-05
-0.000583439
-3.99287e-05
-0.000564965
-4.07607e-05
-0.000546098
-4.15622e-05
-0.000526854
-4.2333e-05
-0.000507265
-4.30612e-05
-0.00048733
-4.37705e-05
-0.000467069
-4.44459e-05
-0.000446498
-4.50894e-05
-0.000425628
-4.57057e-05
-0.000404471
-4.62849e-05
-0.000383034
-4.68403e-05
-0.000361315
-4.73689e-05
-0.000339319
-4.78701e-05
-0.000317034
-4.83427e-05
-0.000294433
-4.878e-05
-0.000271475
-4.91728e-05
-0.000248124
-4.95143e-05
-0.000224382
-4.97973e-05
-0.000200292
-5.00233e-05
-0.000175923
-5.01936e-05
-0.00015135
-5.03153e-05
-0.000126633
-5.03927e-05
-0.000101815
-5.04296e-05
-7.69326e-05
-5.04263e-05
-5.20113e-05
-5.0385e-05
-2.70763e-05
-5.03051e-05
-2.15093e-06
-5.01863e-05
2.27448e-05
-5.00298e-05
4.75918e-05
-4.98357e-05
7.23725e-05
-4.96042e-05
9.70703e-05
-4.93355e-05
0.000121669
-4.90299e-05
0.000146153
-4.86877e-05
0.000170509
-4.83097e-05
0.000194723
-4.78964e-05
0.000218782
-4.74486e-05
0.000242674
-4.69671e-05
0.000266387
-4.64525e-05
0.000289911
-4.59061e-05
0.000313237
-4.53293e-05
0.000336356
-4.47231e-05
0.000359261
-4.40897e-05
0.000381944
-4.34312e-05
0.000404401
-4.27505e-05
0.000426627
-4.20512e-05
0.00044862
-4.13374e-05
0.000470381
-4.06139e-05
0.000491913
-3.98851e-05
0.000513224
-3.91532e-05
0.000534329
-3.84162e-05
0.000555248
-3.76687e-05
0.000576011
-3.68999e-05
0.000596659
-3.60939e-05
0.000617234
-3.52319e-05
0.00063778
-3.42957e-05
0.00065833
-3.32702e-05
0.000678899
-3.21476e-05
0.000699477
-3.09285e-05
0.000720029
-2.96221e-05
0.000740502
-2.82441e-05
0.000760839
-2.68134e-05
0.000780987
-2.53482e-05
0.000800913
-2.38642e-05
0.000820602
-2.23723e-05
0.000840049
-2.08772e-05
0.000859229
-1.9374e-05
0.000878282
-1.78356e-05
0.00089712
-1.62808e-05
0.000915705
-1.47045e-05
0.000933952
-1.31051e-05
0.00095172
-1.14943e-05
0.000968822
-9.892e-06
0.000985059
-8.3315e-06
0.00100023
-6.83159e-06
0.00101429
-5.44321e-06
0.00102724
-4.14949e-06
0.00103911
-2.97187e-06
0.00104988
-1.89436e-06
0.00105953
-9.22108e-07
0.00106798
-3.8196e-08
0.0010751
8.07969e-07
0.00108094
1.49458e-06
0.00108554
2.08747e-06
0.00108901
2.61758e-06
0.00109157
3.09807e-06
0.00109341
3.59016e-06
0.00109472
4.12365e-06
0.00109563
4.71011e-06
0.00109622
5.35018e-06
0.00109652
6.03659e-06
0.0010965
6.75749e-06
0.00109613
7.49916e-06
0.00109535
8.24802e-06
0.00109413
8.99163e-06
0.00109243
9.71922e-06
0.00109023
1.04217e-05
0.00108749
1.10913e-05
0.00108422
1.17218e-05
0.0010804
1.23076e-05
0.00107601
1.28437e-05
0.00107106
1.33256e-05
0.00106554
1.37496e-05
0.00105946
1.41126e-05
0.00105283
1.44134e-05
0.00104566
1.46533e-05
0.001038
1.48375e-05
0.0010299
1.49762e-05
0.00102146
1.50844e-05
0.00101276
1.51807e-05
0.00100391
1.52859e-05
0.000994978
1.54222e-05
0.000986014
1.56112e-05
0.000977046
1.58703e-05
0.000968081
1.62087e-05
0.000959102
1.66247e-05
0.000950071
1.71033e-05
0.000940932
1.76202e-05
0.000931621
1.81448e-05
0.000922081
1.86467e-05
0.000912273
1.91001e-05
0.00090218
1.94868e-05
0.000891808
1.97984e-05
0.000881185
2.00347e-05
0.000870351
2.02027e-05
0.000859349
2.0313e-05
0.000848218
2.03784e-05
0.000836993
2.04106e-05
0.000825697
2.04199e-05
0.000814346
2.04135e-05
0.000802948
2.03968e-05
0.000791507
2.03732e-05
0.000780027
2.03451e-05
0.000768509
2.03139e-05
0.000756953
2.02812e-05
0.00074536
2.02483e-05
0.000733732
2.02165e-05
0.000722069
2.0187e-05
0.00071037
2.01603e-05
0.000698636
2.01374e-05
0.000686865
2.01174e-05
0.000675057
2.01013e-05
0.000663213
2.00876e-05
0.000651334
2.00774e-05
0.000639422
2.0069e-05
0.000627478
2.00628e-05
0.000615507
2.00577e-05
0.000603514
2.00543e-05
0.000591504
2.00514e-05
0.000579486
2.00486e-05
0.000567468
2.0046e-05
0.000555462
2.00425e-05
0.000543481
2.00385e-05
0.000531542
2.00331e-05
0.000519663
2.00263e-05
0.00050787
2.00172e-05
0.00049619
2.00056e-05
0.000484658
1.9991e-05
0.000473312
1.99734e-05
0.000462196
1.99532e-05
0.00045136
1.99295e-05
0.00044085
1.99023e-05
0.000430693
1.98726e-05
0.000420897
1.98422e-05
0.000411468
1.98127e-05
0.000402419
1.97859e-05
0.000393761
1.97638e-05
0.000385502
1.9748e-05
0.00037764
1.97406e-05
0.000370164
1.97455e-05
0.000363058
1.9769e-05
0.000356308
1.98207e-05
0.000349906
1.99142e-05
0.000343852
2.00656e-05
0.00033816
2.02935e-05
0.000332846
2.06166e-05
0.000327924
2.10529e-05
0.000323394
2.1619e-05
0.000319239
2.23311e-05
0.000315417
2.32057e-05
0.00031186
2.42529e-05
0.000308486
2.54713e-05
0.000305198
2.68433e-05
0.00030188
2.8341e-05
0.000298416
2.99453e-05
0.000294618
3.16047e-05
0.000290324
3.32663e-05
0.000285383
3.48658e-05
0.000279697
3.63294e-05
0.000273249
3.75661e-05
0.000266084
3.84627e-05
0.000258337
3.88837e-05
0.000250256
3.86776e-05
0.0002422
3.76747e-05
0.000234656
3.56588e-05
0.000227974
3.25943e-05
0.000222174
2.85984e-05
0.000217223
2.37998e-05
0.000213125
1.85482e-05
0.000209963
1.33655e-05
0.000207832
8.80749e-06
0.000206714
5.30226e-06
0.000206413
3.00158e-06
0.000206615
1.76164e-06
0.000207032
1.21906e-06
0.000207544
9.52701e-07
0.000208148
6.39068e-07
0.000208803
1.53745e-07
0.000209485
-5.82373e-07
0.000210278
-1.49728e-06
0.000211138
-2.44073e-06
0.000211986
-3.34348e-06
0.000212744
-4.17593e-06
0.000213354
-4.94485e-06
0.000213779
-5.67392e-06
0.000214021
-6.3809e-06
0.000214103
-7.06794e-06
0.000214066
-7.72498e-06
0.000213955
-8.33862e-06
0.000213802
-8.89774e-06
0.00021362
-9.39418e-06
0.000213402
-9.81986e-06
0.000213116
-1.01654e-05
0.000212718
-1.04257e-05
0.000212157
-1.05985e-05
0.000211377
-1.06815e-05
0.00021033
-1.069e-05
0.000208965
-1.06247e-05
0.00020724
-1.05055e-05
0.000205098
-1.03178e-05
0.000202483
-1.00641e-05
0.000199326
-9.73599e-06
0.000195575
-9.35272e-06
0.000191168
-8.91039e-06
0.000186042
-8.41815e-06
0.000180147
-7.8927e-06
0.000173452
-7.35901e-06
0.000165941
-6.83341e-06
0.000157589
-6.30674e-06
0.000148419
-5.82805e-06
0.000138481
-5.42613e-06
0.000127824
-5.09045e-06
0.000116513
-4.82504e-06
0.000104643
-4.64669e-06
9.2333e-05
-4.55663e-06
7.96911e-05
-4.54863e-06
6.67969e-05
-4.63433e-06
5.3611e-05
-4.81205e-06
3.98216e-05
-4.87229e-06
2.51472e-05
-5.06843e-06
1.1719e-05
-6.99867e-06
-3.1617e-06
-2.51469e-05
6.6045e-05
-3.43608e-05
2.20697e-05
-4.6677e-05
3.08092e-05
-6.38544e-05
4.34577e-05
-8.34272e-05
4.92068e-05
-0.00010337
5.02752e-05
-0.000123108
5.01779e-05
-0.000142712
5.02998e-05
-0.000162386
5.0787e-05
-0.000182218
5.14329e-05
-0.000202218
5.21028e-05
-0.000222368
5.27441e-05
-0.000242661
5.33577e-05
-0.000263085
5.39501e-05
-0.000283611
5.44908e-05
-0.000304224
5.49851e-05
-0.0003249
5.5414e-05
-0.000345589
5.57438e-05
-0.000366263
5.59965e-05
-0.000386901
5.61724e-05
-0.000407449
5.62166e-05
-0.000427882
5.61588e-05
-0.000448122
5.59691e-05
-0.000468155
5.56689e-05
-0.000487928
5.52593e-05
-0.000507386
5.4702e-05
-0.000526492
5.40274e-05
-0.000545181
5.32188e-05
-0.000563427
5.23134e-05
-0.000581194
5.13085e-05
-0.000598451
5.01993e-05
-0.000615181
4.90004e-05
-0.000631334
4.77184e-05
-0.000646916
4.63681e-05
-0.000661896
4.49591e-05
-0.000676256
4.35022e-05
-0.000689998
4.20096e-05
-0.000703113
4.04953e-05
-0.000715593
3.89682e-05
-0.000727432
3.7437e-05
-0.000738624
3.59098e-05
-0.000749155
3.43653e-05
-0.000759058
3.28609e-05
-0.000768333
3.1357e-05
-0.000776981
2.98608e-05
-0.000784998
2.83579e-05
-0.000792422
2.68966e-05
-0.000799251
2.5427e-05
-0.000805498
2.39745e-05
-0.00081117
2.25311e-05
-0.000816295
2.11121e-05
-0.000820859
1.96778e-05
-0.000824897
1.83018e-05
-0.000828412
1.69294e-05
-0.000831441
1.55662e-05
-0.000833993
1.42003e-05
-0.000836099
1.28273e-05
-0.000837793
1.14321e-05
-0.000839085
1.00029e-05
-0.000839998
8.53062e-06
-0.000840566
7.01903e-06
-0.000840775
5.45765e-06
-0.000840606
3.84187e-06
-0.000840035
2.17421e-06
-0.000839071
4.87615e-07
-0.000837681
-1.23498e-06
-0.000835816
-2.9557e-06
-0.00083349
-4.69624e-06
-0.000830688
-6.45191e-06
-0.000827386
-8.22178e-06
-0.000823574
-9.99536e-06
-0.000819236
-1.17778e-05
-0.000814363
-1.35648e-05
-0.000808945
-1.53595e-05
-0.000802974
-1.71586e-05
-0.000796449
-1.89629e-05
-0.000789345
-2.07676e-05
-0.000781676
-2.25867e-05
-0.000773415
-2.43987e-05
-0.000764582
-2.6217e-05
-0.000755164
-2.80379e-05
-0.000745165
-2.98576e-05
-0.000734581
-3.16767e-05
-0.00072341
-3.34965e-05
-0.000711657
-3.53129e-05
-0.000699345
-3.7114e-05
-0.000686465
-3.89165e-05
-0.000673019
-4.07106e-05
-0.00065902
-4.2481e-05
-0.000644475
-4.42272e-05
-0.000629396
-4.59418e-05
-0.000613791
-4.76204e-05
-0.000597665
-4.92612e-05
-0.000581032
-5.0857e-05
-0.000563877
-5.2404e-05
-0.00054623
-5.39063e-05
-0.000528097
-5.53608e-05
-0.000509489
-5.67679e-05
-0.000490427
-5.8124e-05
-0.000470916
-5.94402e-05
-0.000450974
-6.07023e-05
-0.00043062
-6.1916e-05
-0.000409874
-6.30795e-05
-0.000388743
-6.41917e-05
-0.000367261
-6.5253e-05
-0.000345445
-6.6262e-05
-0.000323317
-6.72176e-05
-0.000300909
-6.81134e-05
-0.00027824
-6.89542e-05
-0.000255337
-6.97432e-05
-0.00023224
-7.04655e-05
-0.000208979
-7.11308e-05
-0.000185583
-7.17391e-05
-0.000162067
-7.22963e-05
-0.000138432
-7.28077e-05
-0.000114683
-7.32632e-05
-9.08259e-05
-7.36543e-05
-6.68801e-05
-7.39691e-05
-4.28668e-05
-7.42069e-05
-1.88109e-05
-7.43713e-05
5.26631e-06
-7.44699e-05
2.93447e-05
-7.4508e-05
5.34063e-05
-7.44879e-05
7.74325e-05
-7.44112e-05
0.000101406
-7.42785e-05
0.00012531
-7.40904e-05
0.000149128
-7.38474e-05
0.000172842
-7.35496e-05
0.000196435
-7.31978e-05
0.000219893
-7.2793e-05
0.000243198
-7.23355e-05
0.000266337
-7.18262e-05
0.000289293
-7.12663e-05
0.000312053
-7.06563e-05
0.000334602
-6.9998e-05
0.000356928
-6.92928e-05
0.000379017
-6.85415e-05
0.000400858
-6.77465e-05
0.000422437
-6.69089e-05
0.000443745
-6.60313e-05
0.00046477
-6.51143e-05
0.000485499
-6.41606e-05
0.000505922
-6.31726e-05
0.00052602
-6.215e-05
0.000545778
-6.10955e-05
0.000565174
-6.00099e-05
0.000584182
-5.88922e-05
0.00060277
-5.77417e-05
0.000620912
-5.65585e-05
0.000638583
-5.53389e-05
0.000655761
-5.40784e-05
0.000672439
-5.2772e-05
0.000688622
-5.14145e-05
0.000704323
-4.99967e-05
0.000719566
-4.8513e-05
0.000734376
-4.69579e-05
0.000748776
-4.53287e-05
0.000762782
-4.36282e-05
0.000776403
-4.18651e-05
0.000789642
-4.00521e-05
0.000802498
-3.82039e-05
0.000814969
-3.63352e-05
0.000827053
-3.4457e-05
0.000838754
-3.2578e-05
0.000850083
-3.07029e-05
0.000861081
-2.88332e-05
0.00087177
-2.69704e-05
0.000882175
-2.51092e-05
0.000892307
-2.32375e-05
0.000902158
-2.13449e-05
0.0009117
-1.94337e-05
0.000920896
-1.75281e-05
0.00092971
-1.56458e-05
0.000938117
-1.38496e-05
0.000946077
-1.21099e-05
0.000953551
-1.04452e-05
0.000960519
-8.86253e-06
0.000966944
-7.34749e-06
0.000972791
-5.88534e-06
0.000978068
-4.46916e-06
0.000982665
-3.10237e-06
0.000986552
-1.79933e-06
0.000989708
-5.38088e-07
0.000992324
4.817e-07
0.000994349
1.56561e-06
0.000995834
2.63831e-06
0.00099685
3.69437e-06
0.000997451
4.7485e-06
0.000997677
5.81121e-06
0.000997549
6.88548e-06
0.00099708
7.96811e-06
0.000996275
9.05242e-06
0.000995137
1.01305e-05
0.000993661
1.11945e-05
0.000991846
1.22376e-05
0.000989683
1.32539e-05
0.000987166
1.42386e-05
0.000984286
1.51877e-05
0.000981032
1.60982e-05
0.00097739
1.69674e-05
0.000973346
1.7793e-05
0.000968886
1.85724e-05
0.000963997
1.93031e-05
0.000958667
1.99825e-05
0.000952896
2.06087e-05
0.000946692
2.1181e-05
0.000940075
2.1701e-05
0.000933081
2.21751e-05
0.000925748
2.26181e-05
0.000918117
2.30539e-05
0.000910218
2.35095e-05
0.00090208
2.40082e-05
0.000893726
2.45633e-05
0.000885174
2.51768e-05
0.000876437
2.58399e-05
0.000867522
2.65352e-05
0.000858428
2.72383e-05
0.000849154
2.79216e-05
0.000839695
2.85588e-05
0.000830053
2.91286e-05
0.000820233
2.96181e-05
0.000810245
3.00228e-05
0.0008001
3.03477e-05
0.00078981
3.06031e-05
0.000779386
3.08024e-05
0.000768838
3.09587e-05
0.000758174
3.10834e-05
0.000747403
3.11852e-05
0.00073653
3.12694e-05
0.000725563
3.13408e-05
0.000714506
3.14019e-05
0.000703365
3.14551e-05
0.000692143
3.15026e-05
0.000680845
3.15462e-05
0.000669474
3.15877e-05
0.000658033
3.16284e-05
0.000646524
3.16694e-05
0.00063495
3.17112e-05
0.000623313
3.17542e-05
0.000611616
3.17982e-05
0.000599861
3.18432e-05
0.000588049
3.18887e-05
0.000576184
3.19347e-05
0.000564266
3.19801e-05
0.0005523
3.20244e-05
0.000540288
3.20665e-05
0.000528232
3.21071e-05
0.000516135
3.21449e-05
0.000504003
3.21781e-05
0.00049184
3.22062e-05
0.000479651
3.22273e-05
0.000467443
3.22407e-05
0.000455225
3.2245e-05
0.000443003
3.2239e-05
0.000430787
3.22213e-05
0.000418588
3.21902e-05
0.000406418
3.21434e-05
0.000394294
3.20775e-05
0.000382234
3.19891e-05
0.00037026
3.18764e-05
0.000358391
3.17417e-05
0.000346644
3.15887e-05
0.000335039
3.14181e-05
0.000323597
3.12278e-05
0.000312344
3.10168e-05
0.000301306
3.07863e-05
0.000290506
3.05401e-05
0.000279968
3.02835e-05
0.000269714
3.00237e-05
0.000259766
2.97684e-05
0.000250154
2.95258e-05
0.000240916
2.93037e-05
0.000232101
2.91092e-05
0.000223769
2.89485e-05
0.000215995
2.8827e-05
0.000208867
2.87472e-05
0.000202475
2.87228e-05
0.00019691
2.87706e-05
0.000192267
2.88959e-05
0.000188636
2.91023e-05
0.000186087
2.93928e-05
0.000184658
2.97701e-05
0.000184372
3.02312e-05
0.000185213
3.07631e-05
0.000187133
3.13462e-05
0.000190047
3.1952e-05
0.000193838
3.25388e-05
0.000198356
3.3048e-05
0.000203421
3.33979e-05
0.00020882
3.34839e-05
0.000214315
3.31836e-05
0.000219624
3.23652e-05
0.000224372
3.09111e-05
0.00022817
2.87956e-05
0.000230939
2.58303e-05
0.000232653
2.20851e-05
0.000233355
1.78468e-05
0.000233185
1.35348e-05
0.000232358
9.63448e-06
0.000231104
6.55646e-06
0.00022962
4.48574e-06
0.00022807
3.31193e-06
0.000226592
2.6964e-06
0.000225301
2.24406e-06
0.000224282
1.65777e-06
0.000223655
7.8088e-07
0.000223499
-4.26349e-07
0.000223617
-1.61534e-06
0.000224022
-2.8458e-06
0.000224642
-3.96309e-06
0.000225359
-4.89327e-06
0.000226039
-5.625e-06
0.000226565
-6.1994e-06
0.000226867
-6.68347e-06
0.000226942
-7.14263e-06
0.000226836
-7.61899e-06
0.000226622
-8.1243e-06
0.000226368
-8.64409e-06
0.000226122
-9.14822e-06
0.000225904
-9.60123e-06
0.000225713
-9.97488e-06
0.00022554
-1.02531e-05
0.000225367
-1.04249e-05
0.000225164
-1.0479e-05
0.000224898
-1.04233e-05
0.000224525
-1.02516e-05
0.000223975
-9.95572e-06
0.000223184
-9.52699e-06
0.000222085
-8.96556e-06
0.000220602
-8.25201e-06
0.000218637
-7.38813e-06
0.000216096
-6.36965e-06
0.000212875
-5.19736e-06
0.000208874
-3.89144e-06
0.000203982
-2.46646e-06
0.000198109
-9.61185e-07
0.000191072
7.30181e-07
0.000182845
2.39895e-06
0.000173362
4.05768e-06
0.000162586
5.68476e-06
0.000150518
7.24293e-06
0.000137178
8.69395e-06
0.000122618
1.0003e-05
0.000106935
1.11351e-05
9.02419e-05
1.20583e-05
7.26734e-05
1.27564e-05
5.43393e-05
1.34618e-05
3.57719e-05
1.3499e-05
1.87962e-05
9.97704e-06
1.56345e-05
-2.30339e-05
8.90789e-05
-2.92861e-05
2.83218e-05
-3.78556e-05
3.93787e-05
-5.13916e-05
5.69937e-05
-6.75849e-05
6.54001e-05
-8.44747e-05
6.7165e-05
-0.000101262
6.69648e-05
-0.000117971
6.70091e-05
-0.000134795
6.76113e-05
-0.000151858
6.84961e-05
-0.000169188
6.94328e-05
-0.000186792
7.03473e-05
-0.000204656
7.12222e-05
-0.000222755
7.20488e-05
-0.000241097
7.28335e-05
-0.000259661
7.35488e-05
-0.000278422
7.41751e-05
-0.000297356
7.46779e-05
-0.000316448
7.50882e-05
-0.000335626
7.53501e-05
-0.00035486
7.5451e-05
-0.000374123
7.54216e-05
-0.000393363
7.52091e-05
-0.000412533
7.48385e-05
-0.000431571
7.42978e-05
-0.000450449
7.35796e-05
-0.000469115
7.2694e-05
-0.000487544
7.16474e-05
-0.000505667
7.04369e-05
-0.000523455
6.90963e-05
-0.000540873
6.76169e-05
-0.000557886
6.60134e-05
-0.000574458
6.42902e-05
-0.000590583
6.2494e-05
-0.000606227
6.06023e-05
-0.000621371
5.86461e-05
-0.000636
5.66395e-05
-0.000650101
5.4596e-05
-0.00066366
5.2527e-05
-0.000676662
5.04386e-05
-0.000689105
4.83533e-05
-0.000700989
4.62489e-05
-0.00071228
4.41526e-05
-0.000722994
4.20704e-05
-0.000733137
4.00044e-05
-0.000742729
3.79499e-05
-0.00075175
3.59168e-05
-0.000760218
3.38954e-05
-0.000768136
3.18927e-05
-0.000775513
2.99079e-05
-0.000782351
2.79499e-05
-0.000788665
2.59918e-05
-0.000794433
2.40698e-05
-0.000799661
2.21576e-05
-0.000804346
2.02509e-05
-0.000808495
1.835e-05
-0.000812096
1.64282e-05
-0.000815151
1.44868e-05
-0.000817665
1.25174e-05
-0.000819638
1.05029e-05
-0.000821074
8.45577e-06
-0.000821979
6.36228e-06
-0.000822352
4.21467e-06
-0.00082222
2.04248e-06
-0.000821573
-1.59061e-07
-0.000820414
-2.39482e-06
-0.000818719
-4.65036e-06
-0.000816488
-6.92697e-06
-0.000813715
-9.22493e-06
-0.000810401
-1.1536e-05
-0.000806529
-1.38673e-05
-0.000802097
-1.621e-05
-0.000797092
-1.85702e-05
-0.000791513
-2.0938e-05
-0.000785348
-2.33241e-05
-0.000778596
-2.57142e-05
-0.000771246
-2.81178e-05
-0.000763313
-3.05196e-05
-0.000754776
-3.2936e-05
-0.000745637
-3.5356e-05
-0.000735897
-3.77774e-05
-0.000725555
-4.01995e-05
-0.000714613
-4.26189e-05
-0.000703078
-4.50314e-05
-0.000690954
-4.74371e-05
-0.000678235
-4.98335e-05
-0.000664937
-5.22139e-05
-0.000651078
-5.45695e-05
-0.000636653
-5.69066e-05
-0.000621669
-5.92108e-05
-0.000606133
-6.14782e-05
-0.000590049
-6.3704e-05
-0.000573426
-6.5884e-05
-0.00055627
-6.80136e-05
-0.000538584
-7.00892e-05
-0.000520382
-7.21087e-05
-0.000501673
-7.40696e-05
-0.00048247
-7.59709e-05
-0.000462782
-7.7812e-05
-0.000442641
-7.95811e-05
-0.000422052
-8.12915e-05
-0.000401034
-8.29347e-05
-0.000379606
-8.45071e-05
-0.00035779
-8.60075e-05
-0.000335605
-8.74378e-05
-0.000313073
-8.87942e-05
-0.000290216
-9.00749e-05
-0.000267048
-9.12811e-05
-0.000243592
-9.24107e-05
-0.000219879
-9.34555e-05
-0.000195919
-9.44259e-05
-0.000171738
-9.53115e-05
-0.000147363
-9.61146e-05
-0.000122832
-9.68275e-05
-9.81649e-05
-9.74744e-05
-7.34116e-05
-9.80166e-05
-4.85906e-05
-9.84754e-05
-2.37127e-05
-9.8847e-05
1.21317e-06
-9.91328e-05
2.61748e-05
-9.9333e-05
5.11539e-05
-9.9449e-05
7.61287e-05
-9.94827e-05
0.000101076
-9.94353e-05
0.000125973
-9.9308e-05
0.000150796
-9.91017e-05
0.000175523
-9.88174e-05
0.000200132
-9.84564e-05
0.000224603
-9.80206e-05
0.000248915
-9.75102e-05
0.000273049
-9.69266e-05
0.000296985
-9.62716e-05
0.000320705
-9.55463e-05
0.000344191