/*--------------------------------*- C++ -*----------------------------------*\
| =========                 |                                                 |
| \\      /  F ield         | OpenFOAM: The Open Source CFD Toolbox           |
|  \\    /   O peration     | Version:  v2006                                 |
|   \\  /    A nd           | Website:  www.openfoam.com                      |
|    \\/     M anipulation  |                                                 |
\*---------------------------------------------------------------------------*/
FoamFile
{
    version     2.0;
    format      ascii;
    class       volScalarField;
    location    "3.1";
    object      p;
}
// * * * * * * * * * * * * * * * * * * * * * * * * * * * * * * * * * * * * * //

dimensions      [1 -1 -2 0 0 0 0];


internalField   nonuniform List<scalar> 
150000
(
13506
13507.5
13509.4
13513.8
13518.5
13524.7
13532.3
13541.2
13551.3
13562.8
13575.4
13589.4
13604.6
13621
13638.6
13657.5
13677.6
13698.9
13721.3
13744.9
13769.7
13795.6
13822.6
13850.7
13879.9
13910.2
13941.5
13973.8
14007.2
14041.6
14076.9
14113.3
14150.5
14188.7
14227.8
14267.7
14308.5
14350.2
14392.6
14435.9
14479.9
14524.6
14570.1
14616.3
14663.1
14710.5
14758.6
14807.2
14856.4
14906.1
14956.2
15006.9
15058
15109.4
15161.3
15213.4
15265.9
15318.7
15371.7
15424.9
15478.3
15531.8
15585.5
15639.2
15693.1
15746.9
15800.8
15854.7
15908.5
15962.2
16015.9
16069.4
16122.8
16176.1
16229.1
16281.9
16334.5
16386.9
16439
16490.8
16542.2
16593.4
16644.1
16694.5
16744.5
16794.1
16843.2
16891.9
16940.1
16987.8
17034.9
17081.5
17127.5
17172.9
17217.7
17261.8
17305.3
17348
17390
17431.3
17471.8
17511.5
17550.4
17588.5
17625.7
17662
17697.5
17732
17765.6
17798.2
17829.9
17860.6
17890.3
17919.1
17946.8
17973.5
17999.3
18024
18047.7
18070.4
18092.2
18112.9
18132.7
18151.5
18169.4
18186.3
18202.3
18217.4
18231.6
18245
18257.5
18269.3
18280.2
18290.5
18300
18308.8
18316.9
18324.5
18331.4
18337.8
18343.7
18349
18354
18358.5
18362.6
18366.5
18370
18373.2
18376.2
18379
18381.7
18384.3
18386.7
18389.2
18391.6
18394
18396.5
18399.1
18401.8
18404.7
18407.7
18411
18414.5
18418.3
18422.4
18426.8
18431.6
18436.8
18442.4
18448.3
18454.8
18461.7
18469.1
18477
18485.4
18494.3
18503.8
18513.8
18524.4
18535.5
18547.3
18559.6
18572.5
18586.1
18600.2
18614.9
18630.2
18646.2
18662.7
18679.9
18697.6
18716
18734.9
18754.4
18774.5
18795.2
18816.5
18838.3
18860.7
18883.6
18907.1
18931
18955.5
18980.5
19006
19032
19058.4
19085.3
19112.6
19140.4
19168.6
19197.1
19226.1
19255.4
19285.1
19315.2
19345.5
19376.2
19407.2
19438.4
19470
19501.8
19533.8
19566.1
19598.5
19631.2
19664
19697.1
19730.3
19763.6
19797.1
19830.7
19864.4
19898.2
19932.1
19966
20000
20034
20068.1
20102.1
20136.2
20170.3
20204.3
20238.4
20272.4
20306.4
20340.3
20374.2
20408
20441.7
20475.3
20508.9
20542.3
20575.7
20608.9
20642
20675
20707.8
20740.6
20773.1
20805.6
20837.8
20869.9
20901.9
20933.7
20965.3
20996.7
21028
21059.1
21090
21120.7
21151.3
21181.6
21211.8
21241.8
21271.6
21301.2
21330.6
21359.8
21388.9
21417.7
21446.4
21474.9
21503.2
21531.3
21559.2
21587
21614.6
21642
21669.3
21696.4
21723.4
21750.2
21776.8
21803.3
21829.7
21855.9
21882
21908
21933.8
21959.6
21985.2
22010.8
22036.2
22061.6
22086.9
22112.1
22137.2
22162.3
22187.3
22212.4
22237.4
22262.3
22287.2
22312
22336.9
22362
22387
22412.1
22437.2
22462.4
22487.6
22512.8
22538.2
22563.6
22589
22614.6
22640.2
22666
22691.8
22717.8
22743.8
22770
22796.3
22822.7
22849.3
22875.9
22902.7
22929.6
22956.7
22983.9
23011.2
23038.7
23066.3
23094
23121.9
23149.9
23178
23206.3
23234.7
23263.2
23291.9
23320.6
23349.5
23378.5
23407.7
23436.9
23466.2
23495.7
23525.3
23555
23584.7
23614.6
23644.6
23674.7
23704.9
23735.2
23765.6
23796.1
23826.7
23857.4
23888.1
23919
23950
23981.1
24012.3
24043.6
24075
24106.5
24138.1
24169.8
24201.7
24233.6
24265.7
24297.9
24330.1
24362.6
24395.1
24427.7
24460.5
24493.4
24526.4
24559.5
24592.7
24626.1
24659.5
24693.1
24726.7
24760.5
24794.3
24828.3
24862.3
24896.4
24930.6
24964.9
24999.1
25033.5
25067.9
25102.3
25136.7
25171.2
25205.6
25240
25274.4
25308.7
25343.1
25377.3
25411.5
25445.5
25479.5
25513.4
25547.1
25580.7
25614.1
25647.3
25680.4
25713.3
25745.9
25778.4
25810.6
25842.5
25874.2
25905.6
25936.8
25967.6
25998.1
26028.3
26058.2
26087.7
26116.9
26145.7
26174.1
26202.2
26229.9
26257.2
26284
26310.5
26336.6
26362.2
26387.4
26412.1
26436.4
26460.3
26483.7
26506.7
26529.1
26551.1
26572.6
26593.7
26614.3
26634.5
26654.1
26673.2
26691.9
26710.1
26727.7
26744.9
26761.6
26777.8
26793.5
26808.7
26823.3
26837.6
26851.3
26864.5
26877.1
26889.3
26901
26912.2
26922.8
26933
26942.7
26951.8
26960.4
26968.6
26976.2
26983.3
26989.9
26996
27001.7
27006.7
27011.4
27015.3
27019.1
27021.8
27024.7
27026.4
27028.4
27028.9
27029.7
13178.1
13179.6
13181.4
13185.9
13190.5
13196.8
13204.4
13213.3
13223.4
13234.8
13247.5
13261.5
13276.7
13293.1
13310.8
13329.7
13349.7
13371
13393.5
13417.1
13441.9
13467.8
13494.8
13522.9
13552.1
13582.4
13613.7
13646.1
13679.5
13713.9
13749.3
13785.6
13822.9
13861
13900.1
13940.1
13980.9
14022.6
14065.1
14108.3
14152.4
14197.1
14242.6
14288.8
14335.6
14383.1
14431.1
14479.8
14529
14578.7
14628.9
14679.6
14730.7
14782.2
14834
14886.2
14938.7
14991.5
15044.5
15097.7
15151.1
15204.7
15258.4
15312.2
15366
15419.9
15473.8
15527.7
15581.5
15635.3
15688.9
15742.5
15795.9
15849.2
15902.2
15955.1
16007.7
16060.1
16112.2
16164
16215.4
16266.6
16317.4
16367.8
16417.8
16467.4
16516.5
16565.2
16613.4
16661.1
16708.3
16754.9
16800.9
16846.3
16891.1
16935.3
16978.7
17021.5
17063.5
17104.8
17145.4
17185.1
17224
17262.1
17299.3
17335.6
17371.1
17405.6
17439.2
17471.8
17503.5
17534.3
17564
17592.7
17620.5
17647.2
17673
17697.7
17721.4
17744.1
17765.8
17786.6
17806.3
17825.1
17843
17859.9
17875.9
17891
17905.2
17918.5
17931.1
17942.8
17953.7
17963.9
17973.4
17982.2
17990.3
17997.8
18004.7
18011.1
18016.9
18022.3
18027.2
18031.7
18035.8
18039.6
18043.1
18046.3
18049.3
18052.1
18054.7
18057.3
18059.7
18062.1
18064.5
18066.9
18069.4
18071.9
18074.6
18077.5
18080.5
18083.7
18087.2
18091
18095.1
18099.5
18104.3
18109.4
18115
18121
18127.4
18134.3
18141.6
18149.5
18157.9
18166.8
18176.3
18186.3
18196.9
18208.1
18219.8
18232.1
18245
18258.6
18272.7
18287.4
18302.7
18318.7
18335.2
18352.4
18370.1
18388.5
18407.4
18427
18447.1
18467.8
18489
18510.9
18533.2
18556.2
18579.6
18603.6
18628.1
18653.1
18678.6
18704.6
18731
18757.9
18785.3
18813.1
18841.2
18869.8
18898.8
18928.1
18957.8
18987.9
19018.3
19049
19079.9
19111.2
19142.8
19174.6
19206.6
19238.9
19271.4
19304.1
19337
19370.1
19403.3
19436.6
19470.1
19503.7
19537.4
19571.1
19605
19638.9
19672.9
19706.9
19741
19775.1
19809.1
19843.2
19877.3
19911.4
19945.4
19979.4
20013.3
20047.2
20081
20114.7
20148.3
20181.9
20215.3
20248.7
20281.9
20315
20348
20380.9
20413.6
20446.2
20478.6
20510.9
20543
20574.9
20606.7
20638.3
20669.8
20701
20732.1
20763
20793.8
20824.3
20854.7
20884.8
20914.8
20944.6
20974.2
21003.6
21032.8
21061.9
21090.7
21119.4
21147.9
21176.2
21204.3
21232.2
21260
21287.6
21315
21342.3
21369.4
21396.3
21423.1
21449.8
21476.3
21502.6
21528.8
21554.9
21580.9
21606.8
21632.5
21658.1
21683.6
21709.1
21734.4
21759.7
21784.8
21809.9
21834.9
21860
21884.9
21909.7
21934.6
21959.6
21984.9
22010
22035
22060.1
22085.2
22110.3
22135.4
22160.6
22185.9
22211.2
22236.6
22262
22287.6
22313.2
22339
22364.8
22390.7
22416.8
22443
22469.2
22495.6
22522.2
22548.8
22575.6
22602.5
22629.6
22656.8
22684.1
22711.5
22739.1
22766.9
22794.7
22822.7
22850.8
22879.1
22907.5
22936
22964.6
22993.4
23022.3
23051.3
23080.4
23109.6
23139
23168.4
23198
23227.7
23257.4
23287.3
23317.3
23347.4
23377.6
23407.9
23438.3
23468.7
23499.3
23530
23560.8
23591.7
23622.7
23653.8
23684.9
23716.2
23747.6
23779.1
23810.8
23842.5
23874.3
23906.3
23938.3
23970.5
24002.8
24035.2
24067.8
24100.4
24133.2
24166.1
24199.1
24232.2
24265.4
24298.8
24332.2
24365.8
24399.5
24433.2
24467.1
24501.1
24535.1
24569.2
24603.4
24637.7
24672
24706.3
24740.7
24775.2
24809.6
24844.1
24878.5
24912.9
24947.3
24981.7
25016
25050.3
25084.4
25118.5
25152.5
25186.4
25220.1
25253.7
25287.1
25320.4
25353.5
25386.4
25419.1
25451.5
25483.7
25515.7
25547.4
25578.8
25609.9
25640.8
25671.3
25701.5
25731.4
25760.9
25790.1
25818.9
25847.4
25875.5
25903.1
25930.4
25957.3
25983.8
26009.8
26035.5
26060.7
26085.4
26109.7
26133.6
26157.1
26180
26202.5
26224.5
26246.1
26267.1
26287.7
26307.8
26327.4
26346.6
26365.2
26383.4
26401.1
26418.3
26435
26451.2
26466.9
26482.1
26496.8
26510.9
26524.6
26537.8
26550.5
26562.7
26574.4
26585.5
26596.2
26606.4
26616
26625.2
26633.8
26641.9
26649.6
26656.7
26663.3
26669.4
26675
26680.1
26684.7
26688.7
26692.4
26695.1
26698.2
26699.6
26701.8
26702.2
26703.1
12849.2
12850.8
12852.7
12857.1
12861.7
12868
12875.6
12884.5
12894.7
12906.1
12918.8
12932.7
12948
12964.4
12982.1
13001
13021.1
13042.4
13064.8
13088.5
13113.3
13139.2
13166.2
13194.4
13223.6
13253.9
13285.3
13317.7
13351.1
13385.5
13420.9
13457.2
13494.5
13532.8
13571.9
13611.9
13652.7
13694.4
13736.9
13780.2
13824.3
13869.1
13914.6
13960.8
14007.7
14055.2
14103.3
14152
14201.2
14250.9
14301.2
14351.9
14403
14454.6
14506.5
14558.7
14611.3
14664.1
14717.1
14770.4
14823.9
14877.5
14931.2
14985
15038.9
15092.8
15146.7
15200.7
15254.5
15308.3
15362
15415.6
15469.1
15522.4
15575.5
15628.4
15681
15733.4
15785.5
15837.4
15888.9
15940.1
15990.9
16041.3
16091.4
16141
16190.2
16238.9
16287.1
16334.8
16382
16428.7
16474.7
16520.2
16565
16609.2
16652.7
16695.5
16737.6
16778.9
16819.5
16859.2
16898.2
16936.3
16973.5
17009.9
17045.3
17079.9
17113.5
17146.2
17177.9
17208.6
17238.3
17267
17294.7
17321.5
17347.2
17372
17395.7
17418.4
17440.1
17460.8
17480.6
17499.4
17517.2
17534.1
17550
17565.1
17579.3
17592.6
17605.1
17616.8
17627.7
17637.8
17647.2
17656
17664.1
17671.5
17678.4
17684.7
17690.5
17695.8
17700.6
17705.1
17709.1
17712.8
17716.3
17719.4
17722.4
17725.1
17727.7
17730.2
17732.5
17734.9
17737.2
17739.6
17742
17744.5
17747.1
17749.9
17752.9
17756.1
17759.6
17763.3
17767.4
17771.7
17776.5
17781.6
17787.1
17793.1
17799.5
17806.3
17813.7
17821.5
17829.9
17838.8
17848.3
17858.3
17868.8
17880
17891.7
17904
17916.9
17930.5
17944.6
17959.3
17974.6
17990.6
18007.1
18024.3
18042.1
18060.4
18079.4
18098.9
18119
18139.7
18161
18182.9
18205.3
18228.2
18251.7
18275.7
18300.2
18325.2
18350.7
18376.7
18403.2
18430.1
18457.5
18485.3
18513.5
18542.1
18571.1
18600.4
18630.2
18660.2
18690.6
18721.3
18752.3
18783.6
18815.2
18847
18879.1
18911.4
18943.9
18976.6
19009.5
19042.5
19075.7
19109.1
19142.6
19176.2
19209.9
19243.7
19277.6
19311.6
19345.6
19379.6
19413.7
19447.8
19481.9
19516
19550.1
19584.2
19618.2
19652.2
19686.1
19720
19753.8
19787.6
19821.2
19854.8
19888.3
19921.6
19954.9
19988
20021
20053.9
20086.6
20119.2
20151.6
20183.9
20216
20248
20279.8
20311.4
20342.9
20374.2
20405.3
20436.2
20466.9
20497.5
20527.8
20558
20588
20617.8
20647.4
20676.8
20706
20735.1
20764
20792.6
20821.1
20849.4
20877.5
20905.5
20933.3
20960.9
20988.3
21015.6
21042.7
21069.6
21096.4
21123
21149.5
21175.9
21202.1
21228.2
21254.2
21280.1
21305.8
21331.4
21357
21382.4
21407.8
21433.1
21458.3
21483.4
21508.5
21533.5
21558.5
21583.4
21608.3
21633.2
21658.1
21683.1
21708.1
21733.1
21758.2
21783.3
21808.4
21833.6
21858.8
21884.1
21909.5
21934.9
21960.5
21986.1
22011.8
22037.6
22063.5
22089.6
22115.7
22142
22168.4
22194.9
22221.5
22248.3
22275.2
22302.2
22329.4
22356.7
22384.2
22411.7
22439.4
22467.3
22495.3
22523.4
22551.6
22580
22608.5
22637.1
22665.9
22694.7
22723.7
22752.8
22782.1
22811.4
22840.8
22870.4
22900.1
22929.8
22959.7
22989.7
23019.8
23050
23080.3
23110.6
23141.1
23171.7
23202.4
23233.2
23264.1
23295
23326.1
23357.3
23388.6
23420
23451.5
23483.1
23514.9
23546.7
23578.7
23610.7
23642.9
23675.2
23707.7
23740.2
23772.9
23805.6
23838.5
23871.6
23904.7
23937.9
23971.3
24004.8
24038.4
24072
24105.8
24139.7
24173.7
24207.8
24241.9
24276.1
24310.4
24344.7
24379.1
24413.5
24448
24482.4
24516.9
24551.4
24585.8
24620.3
24654.6
24689
24723.3
24757.5
24791.6
24825.6
24859.5
24893.2
24926.8
24960.3
24993.6
25026.7
25059.6
25092.3
25124.8
25157
25189
25220.7
25252.2
25283.3
25314.2
25344.7
25374.9
25404.8
25434.4
25463.6
25492.4
25520.9
25549
25576.7
25604
25630.9
25657.3
25683.4
25709
25734.3
25759
25783.3
25807.2
25830.6
25853.6
25876.1
25898.1
25919.7
25940.7
25961.3
25981.5
26001.1
26020.3
26038.9
26057.1
26074.8
26092
26108.7
26124.8
26140.5
26155.7
26170.4
26184.6
26198.3
26211.5
26224.2
26236.4
26248
26259.2
26269.9
26280
26289.7
26298.8
26307.5
26315.6
26323.2
26330.4
26337
26343.1
26348.7
26353.7
26358.4
26362.3
26366.1
26368.8
26371.9
26373.3
26375.5
26375.9
26376.8
12519.5
12521
12522.9
12527.3
12532
12538.3
12545.9
12554.8
12565
12576.4
12589.1
12603.1
12618.3
12634.8
12652.5
12671.4
12691.6
12712.9
12735.4
12759.1
12783.9
12809.8
12836.9
12865.1
12894.4
12924.7
12956.1
12988.5
13022
13056.4
13091.8
13128.2
13165.6
13203.8
13243
13283
13323.9
13365.7
13408.2
13451.6
13495.7
13540.5
13586.1
13632.3
13679.3
13726.8
13775
13823.7
13873
13922.8
13973.1
14023.9
14075.1
14126.7
14178.7
14231
14283.6
14336.5
14389.6
14442.9
14496.4
14550.1
14603.9
14657.8
14711.7
14765.7
14819.7
14873.7
14927.6
14981.4
15035.2
15088.8
15142.3
15195.7
15248.8
15301.7
15354.4
15406.9
15459
15510.9
15562.5
15613.7
15664.6
15715.1
15765.2
15814.8
15864.1
15912.8
15961.1
16008.9
16056.1
16102.8
16149
16194.5
16239.3
16283.6
16327.1
16370
16412.1
16453.5
16494.1
16533.9
16572.9
16611.1
16648.4
16684.8
16720.3
16754.8
16788.5
16821.2
16852.9
16883.7
16913.4
16942.2
16969.9
16996.7
17022.4
17047.1
17070.8
17093.5
17115.2
17135.9
17155.6
17174.3
17192.1
17209
17224.9
17239.9
17254
17267.3
17279.7
17291.3
17302.1
17312.2
17321.6
17330.2
17338.2
17345.6
17352.4
17358.6
17364.3
17369.5
17374.3
17378.6
17382.6
17386.2
17389.6
17392.6
17395.5
17398.1
17400.6
17403
17405.3
17407.6
17409.8
17412.1
17414.4
17416.9
17419.4
17422.2
17425.1
17428.2
17431.6
17435.3
17439.3
17443.6
17448.3
17453.3
17458.8
17464.7
17471.1
17477.9
17485.2
17493
17501.4
17510.3
17519.7
17529.7
17540.2
17551.4
17563.1
17575.4
17588.3
17601.8
17615.9
17630.7
17646
17662
17678.5
17695.7
17713.4
17731.8
17750.8
17770.4
17790.5
17811.2
17832.5
17854.4
17876.8
17899.8
17923.3
17947.3
17971.8
17996.9
18022.4
18048.5
18075
18101.9
18129.3
18157.1
18185.3
18214
18243
18272.4
18302.1
18332.2
18362.7
18393.4
18424.4
18455.8
18487.4
18519.2
18551.3
18583.6
18616.2
18648.9
18681.8
18714.9
18748.2
18781.6
18815.1
18848.7
18882.5
18916.3
18950.2
18984.2
19018.2
19052.3
19086.4
19120.5
19154.6
19188.7
19222.9
19256.9
19291
19325
19359
19392.9
19426.7
19460.5
19494.2
19527.8
19561.2
19594.6
19627.9
19661
19694
19726.9
19759.7
19792.3
19824.7
19857
19889.1
19921.1
19952.9
19984.6
20016
20047.3
20078.4
20109.3
20140.1
20170.6
20201
20231.2
20261.2
20291
20320.6
20350
20379.3
20408.3
20437.2
20465.8
20494.3
20522.6
20550.8
20578.7
20606.5
20634.1
20661.5
20688.8
20715.9
20742.8
20769.6
20796.2
20822.7
20849.1
20875.3
20901.3
20927.3
20953.1
20978.9
21004.5
21030
21055.4
21080.7
21106
21131.1
21156.2
21181.2
21206.2
21231.2
21256.1
21281.1
21306.1
21331.1
21356
21381
21406
21431.1
21456.1
21481.2
21506.4
21531.6
21556.9
21582.2
21607.7
21633.2
21658.8
21684.5
21710.2
21736.1
21762.2
21788.3
21814.5
21840.9
21867.4
21894
21920.7
21947.6
21974.6
22001.8
22029.1
22056.5
22084
22111.7
22139.6
22167.5
22195.6
22223.8
22252.2
22280.7
22309.3
22338
22366.9
22395.9
22425
22454.2
22483.5
22513
22542.5
22572.2
22601.9
22631.8
22661.8
22691.9
22722
22752.3
22782.7
22813.2
22843.8
22874.4
22905.2
22936.1
22967.1
22998.2
23029.4
23060.7
23092.1
23123.6
23155.3
23187
23218.8
23250.8
23282.9
23315.1
23347.4
23379.8
23412.4
23445.1
23477.9
23510.8
23543.8
23577
23610.3
23643.6
23677.1
23710.7
23744.5
23778.3
23812.2
23846.2
23880.3
23914.5
23948.7
23983
24017.4
24051.8
24086.2
24120.7
24155.2
24189.7
24224.2
24258.7
24293.2
24327.6
24362
24396.3
24430.5
24464.7
24498.7
24532.7
24566.4
24600.1
24633.6
24666.9
24700
24733
24765.7
24798.2
24830.5
24862.5
24894.2
24925.7
24956.9
24987.8
25018.4
25048.6
25078.5
25108.1
25137.3
25166.2
25194.7
25222.8
25250.5
25277.8
25304.7
25331.2
25357.3
25382.9
25408.2
25432.9
25457.3
25481.1
25504.6
25527.5
25550
25572.1
25593.6
25614.7
25635.3
25655.5
25675.1
25694.3
25712.9
25731.1
25748.8
25766
25782.7
25798.9
25814.6
25829.8
25844.5
25858.7
25872.4
25885.5
25898.2
25910.4
25922.1
25933.3
25943.9
25954.1
25963.7
25972.9
25981.5
25989.7
25997.3
26004.4
26011
26017.1
26022.7
26027.8
26032.4
26036.4
26040.2
26042.8
26045.9
26047.3
26049.5
26049.9
26050.8
12188.9
12190.4
12192.3
12196.7
12201.4
12207.7
12215.3
12224.2
12234.4
12245.9
12258.6
12272.6
12287.9
12304.4
12322.1
12341.1
12361.2
12382.6
12405.1
12428.8
12453.7
12479.7
12506.8
12535
12564.3
12594.7
12626.2
12658.6
12692.1
12726.6
12762.1
12798.6
12835.9
12874.2
12913.5
12953.6
12994.5
13036.3
13078.9
13122.3
13166.5
13211.4
13257.1
13303.4
13350.4
13398
13446.3
13495.1
13544.5
13594.3
13644.7
13695.6
13746.9
13798.6
13850.6
13903
13955.7
14008.7
14061.9
14115.3
14168.9
14222.6
14276.5
14330.5
14384.5
14438.6
14492.6
14546.7
14600.7
14654.6
14708.4
14762.1
14815.7
14869.1
14922.3
14975.3
15028
15080.6
15132.8
15184.7
15236.3
15287.6
15338.6
15389.1
15439.3
15489
15538.3
15587.1
15635.5
15683.3
15730.6
15777.4
15823.6
15869.2
15914.1
15958.4
16002.1
16045
16087.2
16128.6
16169.3
16209.2
16248.2
16286.4
16323.8
16360.2
16395.8
16430.4
16464.1
16496.8
16528.6
16559.4
16589.1
16617.9
16645.7
16672.4
16698.2
16722.9
16746.6
16769.3
16790.9
16811.6
16831.3
16850
16867.7
16884.5
16900.3
16915.3
16929.3
16942.5
16954.8
16966.4
16977.1
16987.1
16996.3
17004.9
17012.8
17020.1
17026.7
17032.8
17038.4
17043.5
17048.2
17052.4
17056.2
17059.8
17063
17065.9
17068.7
17071.2
17073.6
17075.8
17078
17080.2
17082.3
17084.5
17086.7
17089.1
17091.5
17094.1
17097
17100
17103.3
17106.9
17110.8
17115.1
17119.7
17124.7
17130.1
17135.9
17142.2
17149
17156.3
17164
17172.3
17181.2
17190.6
17200.5
17211.1
17222.2
17233.9
17246.2
17259.1
17272.6
17286.7
17301.5
17316.8
17332.8
17349.3
17366.5
17384.3
17402.7
17421.7
17441.3
17461.4
17482.2
17503.5
17525.4
17547.9
17570.9
17594.4
17618.5
17643
17668.1
17693.7
17719.8
17746.3
17773.3
17800.7
17828.6
17856.8
17885.5
17914.6
17944
17973.8
18003.9
18034.4
18065.2
18096.3
18127.6
18159.3
18191.2
18223.3
18255.7
18288.2
18321
18354
18387.1
18420.4
18453.8
18487.4
18521
18554.8
18588.7
18622.6
18656.6
18690.7
18724.8
18758.9
18793.1
18827.2
18861.4
18895.5
18929.6
18963.7
18997.8
19031.8
19065.7
19099.6
19133.4
19167.1
19200.7
19234.2
19267.6
19300.9
19334
19367.1
19400
19432.7
19465.4
19497.8
19530.1
19562.3
19594.3
19626.1
19657.8
19689.2
19720.5
19751.7
19782.6
19813.3
19843.9
19874.3
19904.5
19934.5
19964.3
19993.9
20023.4
20052.6
20081.7
20110.5
20139.2
20167.7
20196
20224.1
20252.1
20279.8
20307.4
20334.9
20362.1
20389.2
20416.2
20442.9
20469.6
20496
20522.4
20548.6
20574.7
20600.6
20626.5
20652.2
20677.8
20703.3
20728.7
20754
20779.3
20804.5
20829.6
20854.8
20879.6
20904.6
20929.4
20954.3
20979.2
21004.1
21029
21054
21079
21104
21129
21154.1
21179.2
21204.4
21229.6
21254.9
21280.3
21305.8
21331.3
21357
21382.8
21408.6
21434.6
21460.7
21486.9
21513.2
21539.7
21566.3
21593
21619.8
21646.8
21673.9
21701.2
21728.6
21756.1
21783.8
21811.6
21839.5
21867.6
21895.8
21924.1
21952.6
21981.2
22009.9
22038.8
22067.7
22096.8
22126
22155.3
22184.8
22214.3
22243.9
22273.7
22303.6
22333.5
22363.6
22393.8
22424.1
22454.4
22484.9
22515.5
22546.2
22577
22607.9
22638.9
22670
22701.2
22732.5
22763.9
22795.4
22827
22858.8
22890.7
22922.6
22954.7
22987
23019.3
23051.8
23084.3
23117
23149.9
23182.8
23215.9
23249
23282.3
23315.8
23349.3
23382.9
23416.7
23450.5
23484.5
23518.5
23552.7
23586.9
23621.2
23655.5
23689.9
23724.4
23758.9
23793.4
23827.9
23862.5
23897
23931.6
23966.1
24000.6
24035
24069.4
24103.6
24137.8
24171.9
24205.9
24239.7
24273.4
24307
24340.3
24373.5
24406.5
24439.3
24471.8
24504.1
24536.2
24568
24599.5
24630.7
24661.6
24692.2
24722.5
24752.5
24782.1
24811.3
24840.2
24868.7
24896.8
24924.6
24951.9
24978.9
25005.4
25031.5
25057.1
25082.4
25107.2
25131.5
25155.4
25178.9
25201.8
25224.3
25246.4
25268
25289.1
25309.7
25329.8
25349.5
25368.6
25387.3
25405.5
25423.2
25440.4
25457.1
25473.3
25489
25504.2
25518.9
25533.1
25546.8
25559.9
25572.6
25584.8
25596.5
25607.6
25618.3
25628.5
25638.1
25647.3
25655.9
25664
25671.7
25678.8
25685.4
25691.5
25697.1
25702.1
25706.8
25710.7
25714.5
25717.2
25720.3
25721.6
25723.9
25724.3
25725.2
11857.3
11858.8
11860.8
11865.1
11869.9
11876.2
11883.8
11892.7
11902.9
11914.4
11927.2
11941.2
11956.5
11973.1
11990.8
12009.8
12030.1
12051.5
12074
12097.8
12122.7
12148.8
12175.9
12204.2
12233.6
12264
12295.5
12328
12361.6
12396.1
12431.7
12468.2
12505.7
12544
12583.3
12623.5
12664.5
12706.4
12749.1
12792.6
12836.8
12881.8
12927.5
12974
13021
13068.8
13117.1
13166
13215.5
13265.5
13316
13366.9
13418.3
13470.1
13522.3
13574.8
13627.6
13680.6
13734
13787.5
13841.2
13895.1
13949
14003.1
14057.2
14111.4
14165.5
14219.7
14273.8
14327.8
14381.7
14435.5
14489.1
14542.6
14595.9
14648.9
14701.8
14754.4
14806.7
14858.7
14910.4
14961.7
15012.7
15063.4
15113.6
15163.4
15212.8
15261.7
15310.2
15358.1
15405.5
15452.3
15498.6
15544.3
15589.3
15633.7
15677.4
15720.5
15762.7
15804.3
15845
15885
15924.1
15962.4
15999.8
16036.4
16072
16106.7
16140.4
16173.2
16205
16235.8
16265.6
16294.4
16322.2
16348.9
16374.7
16399.4
16423.1
16445.7
16467.3
16488
16507.6
16526.2
16543.9
16560.6
16576.4
16591.2
16605.2
16618.3
16630.5
16641.9
16652.6
16662.4
16671.5
16680
16687.7
16694.9
16701.4
16707.4
16712.8
16717.8
16722.3
16726.3
16730
16733.4
16736.5
16739.3
16741.9
16744.2
16746.5
16748.6
16750.7
16752.7
16754.7
16756.7
16758.8
16761
16763.3
16765.9
16768.6
16771.5
16774.7
16778.2
16782
16786.1
16790.6
16795.6
16800.9
16806.7
16812.9
16819.6
16826.8
16834.5
16842.8
16851.6
16861
16870.9
16881.4
16892.5
16904.2
16916.5
16929.4
16942.9
16957
16971.7
16987.1
17003
17019.6
17036.8
17054.6
17073
17092.1
17111.7
17131.9
17152.6
17174
17195.9
17218.4
17241.5
17265
17289.1
17313.8
17338.9
17364.5
17390.6
17417.2
17444.2
17471.7
17499.6
17527.9
17556.7
17585.8
17615.3
17645.1
17675.3
17705.8
17736.7
17767.8
17799.2
17830.9
17862.8
17895
17927.4
17960.1
17992.9
18025.9
18059
18092.4
18125.8
18159.4
18193.2
18227
18260.9
18294.9
18328.9
18363
18397.2
18431.3
18465.5
18499.7
18533.9
18568.1
18602.3
18636.4
18670.5
18704.5
18738.5
18772.4
18806.2
18839.9
18873.6
18907.1
18940.5
18973.9
19007
19040.1
19073
19105.8
19138.5
19171
19203.3
19235.5
19267.5
19299.3
19331
19362.5
19393.8
19424.9
19455.9
19486.7
19517.2
19547.6
19577.8
19607.9
19637.7
19667.3
19696.8
19726
19755.1
19783.9
19812.6
19841.1
19869.4
19897.6
19925.5
19953.3
19980.9
20008.3
20035.5
20062.6
20089.6
20116.3
20143
20169.4
20195.8
20221.9
20248
20273.9
20299.8
20325.4
20351
20376.5
20401.9
20427.2
20452.4
20477.6
20502.6
20527.5
20552.6
20577.5
20602.4
20627.3
20652.2
20677.1
20702
20726.9
20751.9
20776.8
20801.8
20826.8
20851.9
20877.1
20902.3
20927.5
20952.9
20978.3
21003.8
21029.4
21055.2
21081
21106.9
21133
21159.1
21185.4
21211.9
21238.4
21265.1
21291.9
21318.8
21345.9
21373.1
21400.5
21428
21455.6
21483.4
21511.3
21539.4
21567.5
21595.8
21624.3
21652.9
21681.5
21710.4
21739.3
21768.4
21797.6
21826.9
21856.3
21885.8
21915.4
21945.2
21975
22005
22035.1
22065.2
22095.5
22125.9
22156.4
22186.9
22217.6
22248.4
22279.3
22310.3
22341.4
22372.6
22403.9
22435.3
22466.9
22498.5
22530.3
22562.2
22594.2
22626.3
22658.5
22690.9
22723.4
22756
22788.7
22821.6
22854.5
22887.6
22920.9
22954.2
22987.7
23021.2
23054.9
23088.7
23122.6
23156.6
23190.7
23224.9
23259.1
23293.5
23327.9
23362.3
23396.9
23431.4
23466
23500.6
23535.2
23569.8
23604.4
23639
23673.5
23708
23742.4
23776.8
23811
23845.2
23879.2
23913.1
23946.9
23980.5
24013.9
24047.1
24080.2
24113
24145.6
24177.9
24210
24241.9
24273.4
24304.7
24335.7
24366.3
24396.6
24426.6
24456.3
24485.6
24514.5
24543
24571.2
24599
24626.3
24653.3
24679.8
24706
24731.6
24756.9
24781.7
24806.1
24830
24853.5
24876.4
24899
24921
24942.6
24963.7
24984.4
25004.5
25024.2
25043.3
25062
25080.2
25097.9
25115.1
25131.8
25148
25163.7
25178.9
25193.6
25207.8
25221.5
25234.7
25247.4
25259.5
25271.2
25282.4
25293.1
25303.2
25312.9
25322
25330.6
25338.8
25346.4
25353.5
25360.1
25366.2
25371.8
25376.9
25381.5
25385.4
25389.3
25391.9
25395
25396.3
25398.6
25399
25399.9
11524.8
11526.3
11528.3
11532.6
11537.4
11543.7
11551.4
11560.3
11570.6
11582.1
11594.9
11609
11624.3
11640.9
11658.7
11677.8
11698
11719.5
11742.2
11766
11790.9
11817
11844.3
11872.6
11902
11932.6
11964.1
11996.7
12030.3
12065
12100.6
12137.2
12174.7
12213.2
12252.5
12292.8
12333.9
12375.9
12418.6
12462.2
12506.6
12551.7
12597.5
12644
12691.2
12739.1
12787.5
12836.5
12886.1
12936.3
12986.9
13038
13089.5
13141.4
13193.7
13246.3
13299.2
13352.4
13405.9
13459.5
13513.4
13567.4
13621.5
13675.6
13729.9
13784.2
13838.4
13892.7
13946.9
14001
14055
14108.9
14162.6
14216.2
14269.6
14322.7
14375.7
14428.4
14480.7
14532.9
14584.6
14636.1
14687.2
14737.9
14788.2
14838.2
14887.6
14936.7
14985.2
15033.2
15080.7
15127.7
15174.1
15219.8
15265
15309.5
15353.3
15396.4
15438.8
15480.5
15521.3
15561.4
15600.6
15639
15676.5
15713.1
15748.8
15783.6
15817.4
15850.2
15882.1
15912.9
15942.8
15971.6
15999.4
16026.2
16051.9
16076.6
16100.2
16122.9
16144.5
16165
16184.6
16203.2
16220.8
16237.4
16253.1
16267.8
16281.7
16294.6
16306.8
16318
16328.5
16338.2
16347.2
16355.5
16363.1
16370.1
16376.4
16382.2
16387.5
16392.3
16396.6
16400.5
16404
16407.2
16410.1
16412.7
16415.1
16417.3
16419.4
16421.3
16423.2
16425
16426.9
16428.8
16430.7
16432.7
16434.9
16437.3
16439.9
16442.7
16445.7
16449.1
16452.8
16456.8
16461.2
16466
16471.3
16476.9
16483.1
16489.7
16496.9
16504.5
16512.7
16521.5
16530.8
16540.7
16551.2
16562.2
16573.9
16586.2
16599.1
16612.6
16626.7
16641.4
16656.8
16672.8
16689.4
16706.6
16724.4
16742.8
16761.9
16781.5
16801.8
16822.6
16844
16866
16888.5
16911.6
16935.2
16959.4
16984
17009.2
17034.9
17061.1
17087.7
17114.8
17142.3
17170.3
17198.7
17227.5
17256.6
17286.2
17316.1
17346.3
17376.9
17407.8
17439
17470.5
17502.2
17534.2
17566.5
17599
17631.6
17664.5
17697.6
17730.8
17764.2
17797.7
17831.4
17865.1
17899
17933
17967
18001.1
18035.3
18069.5
18103.7
18137.9
18172.2
18206.4
18240.6
18274.8
18309
18343.1
18377.2
18411.2
18445.1
18479
18512.8
18546.4
18580
18613.5
18646.8
18680.1
18713.1
18746.1
18778.9
18811.6
18844.1
18876.5
18908.7
18940.7
18972.6
19004.3
19035.8
19067.1
19098.3
19129.3
19160
19190.6
19221.1
19251.3
19281.3
19311.1
19340.8
19370.2
19399.5
19428.6
19457.4
19486.1
19514.6
19542.9
19571.1
19599
19626.8
19654.4
19681.8
19709.1
19736.2
19763.1
19789.8
19816.5
19842.9
19869.2
19895.4
19921.5
19947.4
19973.2
19998.9
20024.4
20049.9
20075.3
20100.5
20125.7
20150.9
20175.9
20201
20225.9
20250.7
20275.6
20300.4
20325.3
20350.1
20375
20399.8
20424.7
20449.6
20474.6
20499.6
20524.6
20549.7
20574.8
20600.1
20625.4
20650.7
20676.2
20701.8
20727.4
20753.2
20779.1
20805.1
20831.2
20857.5
20883.8
20910.3
20937
20963.7
20990.6
21017.7
21044.9
21072.2
21099.6
21127.2
21155
21182.8
21210.8
21239
21267.3
21295.7
21324.2
21352.9
21381.7
21410.6
21439.6
21468.8
21498.1
21527.5
21557
21586.6
21616.3
21646.2
21676.1
21706.2
21736.3
21766.6
21797
21827.5
21858
21888.7
21919.5
21950.4
21981.4
22012.5
22043.7
22075.1
22106.5
22138.1
22169.7
22201.5
22233.4
22265.4
22297.6
22329.8
22362.2
22394.7
22427.4
22460.1
22493
22526
22559.2
22592.4
22625.8
22659.3
22693
22726.7
22760.5
22794.5
22828.5
22862.7
22896.9
22931.3
22965.7
23000.1
23034.7
23069.2
23103.9
23138.5
23173.2
23207.9
23242.6
23277.2
23311.9
23346.5
23381
23415.5
23449.9
23484.3
23518.5
23552.6
23586.6
23620.4
23654.1
23687.6
23720.9
23754
23786.8
23819.5
23851.9
23884.1
23916
23947.6
23978.9
24009.9
24040.6
24071
24101
24130.7
24160.1
24189
24217.6
24245.8
24273.6
24301
24328
24354.6
24380.7
24406.5
24431.7
24456.6
24481
24504.9
24528.4
24551.4
24573.9
24596
24617.6
24638.7
24659.4
24679.5
24699.2
24718.4
24737.1
24755.3
24773
24790.2
24806.9
24823.1
24838.8
24854
24868.7
24882.9
24896.6
24909.8
24922.5
24934.6
24946.3
24957.5
24968.1
24978.3
24987.9
24997.1
25005.7
25013.9
25021.5
25028.6
25035.2
25041.3
25046.9
25051.9
25056.6
25060.5
25064.3
25066.9
25070.1
25071.4
25073.7
25074.1
25074.9
11191.4
11192.9
11194.9
11199.2
11204
11210.4
11218.1
11227
11237.3
11248.9
11261.7
11275.8
11291.2
11307.9
11325.7
11344.9
11365.2
11386.7
11409.4
11433.3
11458.4
11484.5
11511.8
11540.3
11569.8
11600.4
11632
11664.7
11698.4
11733.1
11768.8
11805.5
11843.1
11881.6
11921.1
11961.5
12002.7
12044.7
12087.6
12131.3
12175.8
12221
12267
12313.6
12360.9
12408.9
12457.5
12506.6
12556.4
12606.6
12657.4
12708.6
12760.3
12812.4
12864.8
12917.6
12970.7
13024
13077.6
13131.4
13185.4
13239.5
13293.8
13348.1
13402.5
13456.9
13511.3
13565.7
13620
13674.2
13728.4
13782.4
13836.2
13889.9
13943.4
13996.7
14049.7
14102.5
14155
14207.2
14259.1
14310.7
14361.9
14412.7
14463.1
14513.2
14562.8
14611.9
14660.5
14708.7
14756.3
14803.4
14849.9
14895.8
14941.1
14985.7
15029.7
15072.9
15115.4
15157.2
15198.2
15238.3
15277.7
15316.2
15353.8
15390.5
15426.3
15461.1
15495
15527.9
15559.8
15590.8
15620.6
15649.5
15677.3
15704.1
15729.8
15754.5
15778.1
15800.7
15822.3
15842.8
15862.3
15880.8
15898.3
15914.8
15930.4
15945
15958.7
15971.6
15983.5
15994.7
16005
16014.5
16023.3
16031.4
16038.8
16045.6
16051.8
16057.4
16062.4
16067
16071.1
16074.8
16078.1
16081.1
16083.8
16086.2
16088.4
16090.4
16092.2
16094
16095.7
16097.3
16099
16100.6
16102.4
16104.3
16106.3
16108.5
16110.9
16113.5
16116.4
16119.6
16123.2
16127.1
16131.4
16136.1
16141.2
16146.8
16152.8
16159.4
16166.4
16174
16182.2
16190.9
16200.1
16210
16220.4
16231.4
16243.1
16255.3
16268.2
16281.7
16295.8
16310.6
16325.9
16341.9
16358.5
16375.8
16393.6
16412.1
16431.2
16450.9
16471.1
16492
16513.5
16535.5
16558.1
16581.2
16604.9
16629.1
16653.9
16679.1
16704.8
16731.1
16757.8
16784.9
16812.5
16840.6
16869
16897.9
16927.1
16956.8
16986.7
17017.1
17047.7
17078.7
17109.9
17141.5
17173.3
17205.4
17237.7
17270.2
17303
17335.9
17369.1
17402.4
17435.8
17469.4
17503.1
17536.9
17570.9
17604.9
17639
17673.2
17707.4