/*--------------------------------*- C++ -*----------------------------------*\
| =========                 |                                                 |
| \\      /  F ield         | OpenFOAM: The Open Source CFD Toolbox           |
|  \\    /   O peration     | Version:  v2006                                 |
|   \\  /    A nd           | Website:  www.openfoam.com                      |
|    \\/     M anipulation  |                                                 |
\*---------------------------------------------------------------------------*/
FoamFile
{
    version     2.0;
    format      ascii;
    class       volScalarField;
    location    "17.7";
    object      p_rgh;
}
// * * * * * * * * * * * * * * * * * * * * * * * * * * * * * * * * * * * * * //

dimensions      [1 -1 -2 0 0 0 0];


internalField   nonuniform List<scalar> 
52500
(
1962.6
1962.56
1962.48
1962.36
1962.21
1962.01
1961.77
1961.5
1961.19
1960.84
1960.45
1960.03
1959.57
1959.08
1958.55
1957.99
1957.41
1956.79
1956.15
1955.48
1954.78
1954.06
1953.32
1952.56
1951.78
1950.98
1950.16
1949.33
1948.48
1947.62
1946.76
1945.88
1945
1944.11
1943.22
1942.33
1941.43
1940.54
1939.66
1938.78
1937.91
1937.04
1936.2
1935.36
1934.55
1933.75
1932.98
1932.23
1931.51
1930.82
1930.15
1929.52
1928.92
1928.35
1927.81
1927.31
1926.84
1926.42
1926.03
1925.69
1925.39
1925.14
1924.94
1924.79
1924.69
1924.64
1924.65
1924.72
1924.84
1925.02
1925.26
1925.57
1925.94
1926.37
1926.87
1927.44
1928.07
1928.77
1929.55
1930.39
1931.3
1932.29
1933.34
1934.48
1935.68
1936.96
1938.31
1939.73
1941.23
1942.8
1944.45
1946.17
1947.96
1949.83
1951.76
1953.77
1955.85
1957.99
1960.21
1962.49
1964.84
1967.26
1969.74
1972.28
1974.88
1977.55
1980.27
1983.05
1985.89
1988.77
1991.71
1994.7
1997.74
2000.82
2003.94
2007.1
2010.31
2013.54
2016.81
2020.11
2023.44
2026.8
2030.18
2033.57
2036.99
2040.42
2043.86
2047.31
2050.77
2054.23
2057.68
2061.14
2064.59
2068.03
2071.45
2074.86
2078.25
2081.62
2084.96
2088.27
2091.54
2094.78
2097.98
2101.14
2104.25
2107.31
2110.32
2113.27
2116.17
2119
2121.76
2124.46
2127.08
2129.63
2132.11
2134.51
2136.82
2139.05
2141.2
2143.26
2145.23
2147.11
2148.88
2150.55
2152.12
2153.56
2154.89
2156.09
2157.17
2158.09
2158.87
2159.53
2160.08
2160.51
2160.8
2160.95
2160.97
2160.85
2160.58
2160.16
2159.59
2158.87
2158
2156.97
2155.77
2154.42
2152.9
2151.22
2149.37
2147.34
2145.15
2142.78
2140.23
2137.5
2134.59
2131.5
2128.23
2124.77
2121.13
2117.29
2113.27
2109.06
2104.66
2100.06
2095.28
2090.3
2085.13
2079.77
2074.21
2068.46
2062.52
2056.39
2050.07
2043.56
2036.86
2029.97
2022.89
2015.63
2008.19
2000.56
1992.75
1984.77
1976.61
1968.28
1959.78
1951.11
1942.28
1933.29
1924.14
1914.83
1905.38
1895.77
1886.02
1876.14
1866.11
1855.95
1845.67
1835.25
1824.72
1814.07
1803.31
1792.44
1781.47
1770.4
1759.23
1747.97
1736.62
1725.19
1713.69
1702.1
1690.45
1678.74
1666.96
1655.12
1643.24
1631.3
1619.32
1607.3
1595.25
1583.17
1571.06
1558.92
1546.77
1534.61
1522.44
1510.26
1498.08
1485.9
1473.73
1461.57
1449.42
1437.29
1425.18
1413.09
1401.03
1389.01
1377.02
1365.08
1353.18
1341.33
1329.53
1317.79
1306.14
1294.59
1283.16
1271.83
1260.6
1249.46
1238.41
1227.44
1216.57
1205.78
1195.09
1184.5
1174.02
1163.64
1153.39
1143.25
1133.24
1123.36
1113.61
1104
1094.54
1085.22
1076.04
1067.02
1058.16
1049.45
1040.9
1032.51
1024.29
1016.23
1008.35
1000.65
993.117
985.767
978.599
971.616
964.82
958.213
951.797
945.575
939.549
933.72
928.092
922.667
917.449
912.439
907.636
903.039
898.651
894.475
890.511
886.763
883.231
879.916
876.82
873.942
871.283
868.843
866.621
864.618
862.838
861.279
859.943
858.829
857.937
857.245
856.876
856.638
1962.72
1962.68
1962.6
1962.48
1962.32
1962.12
1961.89
1961.61
1961.3
1960.94
1960.55
1960.13
1959.67
1959.17
1958.64
1958.08
1957.49
1956.87
1956.23
1955.55
1954.85
1954.13
1953.38
1952.61
1951.83
1951.02
1950.2
1949.36
1948.51
1947.65
1946.78
1945.9
1945.01
1944.12
1943.22
1942.32
1941.43
1940.53
1939.64
1938.76
1937.88
1937.01
1936.16
1935.32
1934.5
1933.7
1932.92
1932.17
1931.44
1930.74
1930.07
1929.43
1928.81
1928.24
1927.69
1927.18
1926.71
1926.27
1925.88
1925.53
1925.23
1924.97
1924.76
1924.61
1924.5
1924.45
1924.45
1924.51
1924.63
1924.8
1925.04
1925.34
1925.71
1926.14
1926.63
1927.2
1927.83
1928.53
1929.3
1930.14
1931.05
1932.04
1933.1
1934.23
1935.43
1936.71
1938.06
1939.48
1940.98
1942.55
1944.2
1945.92
1947.71
1949.58
1951.52
1953.53
1955.61
1957.76
1959.98
1962.26
1964.62
1967.04
1969.52
1972.07
1974.67
1977.34
1980.07
1982.85
1985.69
1988.58
1991.52
1994.52
1997.56
2000.64
2003.77
2006.94
2010.14
2013.39
2016.66
2019.97
2023.3
2026.66
2030.05
2033.45
2036.88
2040.31
2043.76
2047.22
2050.68
2054.14
2057.61
2061.07
2064.53
2067.97
2071.4
2074.82
2078.21
2081.59
2084.94
2088.25
2091.54
2094.79
2098.01
2101.18
2104.3
2107.38
2110.4
2113.37
2116.28
2119.13
2121.92
2124.64
2127.28
2129.86
2132.35
2134.77
2137.1
2139.33
2141.48
2143.53
2145.48
2147.32
2149.05
2150.7
2152.23
2153.65
2154.95
2156.14
2157.22
2158.19
2159.06
2159.79
2160.38
2160.83
2161.14
2161.31
2161.34
2161.22
2160.96
2160.55
2159.99
2159.27
2158.4
2157.37
2156.18
2154.83
2153.31
2151.63
2149.78
2147.75
2145.56
2143.18
2140.64
2137.91
2135
2131.91
2128.64
2125.18
2121.53
2117.7
2113.68
2109.46
2105.06
2100.47
2095.68
2090.7
2085.53
2080.16
2074.6
2068.85
2062.91
2056.77
2050.44
2043.93
2037.22
2030.32
2023.24
2015.98
2008.53
2000.89
1993.08
1985.09
1976.93
1968.59
1960.08
1951.41
1942.57
1933.57
1924.41
1915.09
1905.63
1896.02
1886.26
1876.36
1866.33
1856.16
1845.87
1835.45
1824.91
1814.25
1803.48
1792.6
1781.62
1770.54
1759.36
1748.1
1736.74
1725.3
1713.79
1702.2
1690.54
1678.82
1667.03
1655.19
1643.3
1631.36
1619.37
1607.34
1595.28
1583.19
1571.07
1558.93
1546.77
1534.6
1522.42
1510.23
1498.04
1485.86
1473.68
1461.51
1449.35
1437.21
1425.1
1413.01
1400.95
1388.93
1376.93
1364.97
1353.05
1341.16
1329.32
1317.58
1305.94
1294.4
1282.97
1271.63
1260.38
1249.22
1238.15
1227.16
1216.26
1205.46
1194.75
1184.14
1173.65
1163.26
1152.99
1142.85
1132.83
1122.95
1113.19
1103.58
1094.11
1084.78
1075.6
1066.57
1057.7
1048.98
1040.42
1032.03
1023.8
1015.74
1007.85
1000.14
992.603
985.247
978.073
971.084
964.281
957.668
951.246
945.017
938.983
933.146
927.507
922.068
916.836
911.829
907.021
902.419
898.026
893.844
889.876
886.122
882.584
879.263
876.16
873.277
870.615
868.176
865.958
863.964
862.191
860.639
859.31
858.202
857.316
856.654
856.224
856.01
1962.85
1962.81
1962.73
1962.62
1962.46
1962.26
1962.02
1961.74
1961.42
1961.06
1960.67
1960.24
1959.78
1959.28
1958.74
1958.18
1957.58
1956.96
1956.3
1955.62
1954.92
1954.19
1953.44
1952.66
1951.87
1951.06
1950.23
1949.39
1948.53
1947.66
1946.78
1945.89
1945
1944.09
1943.19
1942.28
1941.38
1940.47
1939.57
1938.67
1937.79
1936.91
1936.05
1935.2
1934.36
1933.55
1932.75
1931.98
1931.23
1930.51
1929.82
1929.15
1928.52
1927.92
1927.36
1926.83
1926.34
1925.9
1925.49
1925.13
1924.81
1924.54
1924.32
1924.16
1924.04
1923.98
1923.97
1924.02
1924.13
1924.3
1924.54
1924.83
1925.19
1925.61
1926.1
1926.66
1927.29
1927.99
1928.75
1929.59
1930.5
1931.49
1932.54
1933.67
1934.87
1936.15
1937.5
1938.93
1940.43
1942
1943.65
1945.37
1947.17
1949.04
1950.98
1953
1955.08
1957.24
1959.46
1961.76
1964.12
1966.54
1969.04
1971.59
1974.21
1976.89
1979.62
1982.42
1985.27
1988.17
1991.13
1994.13
1997.18
2000.28
2003.42
2006.61
2009.83
2013.09
2016.38
2019.7
2023.06
2026.43
2029.84
2033.26
2036.7
2040.15
2043.62
2047.1
2050.58
2054.07
2057.55
2061.03
2064.51
2067.98
2071.43
2074.87
2078.29
2081.68
2085.05
2088.39
2091.7
2094.97
2098.2
2101.39
2104.53
2107.62
2110.67
2113.65
2116.58
2119.44
2122.24
2124.98
2127.63
2130.22
2132.73
2135.16
2137.5
2139.76
2141.93
2144.01
2146
2147.89
2149.68
2151.34
2152.91
2154.36
2155.7
2156.91
2158.01
2158.98
2159.83
2160.54
2161.12
2161.57
2161.88
2162.05
2162.08
2161.97
2161.71
2161.31
2160.75
2160.04
2159.17
2158.15
2156.96
2155.62
2154.1
2152.42
2150.57
2148.55
2146.36
2143.98
2141.44
2138.71
2135.8
2132.71
2129.44
2125.98
2122.33
2118.5
2114.47
2110.26
2105.85
2101.25
2096.46
2091.48
2086.3
2080.93
2075.37
2069.61
2063.66
2057.52
2051.19
2044.66
2037.95
2031.04
2023.95
2016.67
2009.21
2001.57
1993.74
1985.74
1977.56
1969.21
1960.69
1952
1943.14
1934.13
1924.95
1915.62
1906.14
1896.52
1886.74
1876.83
1866.78
1856.6
1846.28
1835.85
1825.29
1814.62
1803.83
1792.94
1781.94
1770.84
1759.65
1748.36
1736.99
1725.53
1714
1702.39
1690.72
1678.98
1667.17
1655.32
1643.4
1631.45
1619.44
1607.4
1595.32
1583.21
1571.07
1558.92
1546.74
1534.55
1522.35
1510.14
1497.93
1485.73
1473.53
1461.34
1449.17
1437.01
1424.88
1412.77
1400.7
1388.66
1376.65
1364.69
1352.78
1340.92
1329.12
1317.39
1305.73
1294.15
1282.66
1271.26
1259.96
1248.74
1237.62
1226.59
1215.66
1204.82
1194.09
1183.47
1172.95
1162.55
1152.27
1142.11
1132.08
1122.18
1112.41
1102.78
1093.29
1083.95
1074.76
1065.71
1056.82
1048.09
1039.52
1031.11
1022.87
1014.8
1006.9
999.174
991.626
984.259
977.074
970.075
963.262
956.639
950.209
943.973
937.933
932.093
926.455
921.021
915.787
910.74
905.91
901.294
896.889
892.698
888.721
884.959
881.414
878.088
874.98
872.093
869.428
866.985
864.764
862.767
860.992
859.439
858.109
857.001
856.115
855.451
855.01
854.791
1962.99
1962.95
1962.87
1962.75
1962.59
1962.39
1962.15
1961.87
1961.54
1961.18
1960.79
1960.35
1959.88
1959.38
1958.84
1958.27
1957.67
1957.04
1956.38
1955.69
1954.98
1954.25
1953.49
1952.71
1951.9
1951.08
1950.25
1949.39
1948.52
1947.64
1946.75
1945.85
1944.94
1944.03
1943.11
1942.18
1941.26
1940.34
1939.43
1938.51
1937.61
1936.72
1935.84
1934.97
1934.12
1933.28
1932.47
1931.68
1930.91
1930.17
1929.45
1928.77
1928.12
1927.5
1926.91
1926.37
1925.86
1925.39
1924.97
1924.59
1924.26
1923.97
1923.73
1923.55
1923.42
1923.34
1923.32
1923.36
1923.45
1923.61
1923.83
1924.11
1924.46
1924.88
1925.36
1925.91
1926.52
1927.21
1927.97
1928.8
1929.71
1930.69
1931.74
1932.86
1934.06
1935.34
1936.69
1938.12
1939.62
1941.19
1942.85
1944.57
1946.37
1948.25
1950.2
1952.22
1954.31
1956.47
1958.71
1961.01
1963.38
1965.82
1968.33
1970.9
1973.53
1976.22
1978.97
1981.78
1984.65
1987.57
1990.55
1993.57
1996.65
1999.77
2002.93
2006.14
2009.38
2012.66
2015.98
2019.33
2022.71
2026.11
2029.54
2032.99
2036.46
2039.95
2043.44
2046.95
2050.46
2053.98
2057.49
2061
2064.51
2068.01
2071.49
2074.96
2078.41
2081.83
2085.23
2088.6
2091.94
2095.24
2098.5
2101.72
2104.9
2108.02
2111.09
2114.11
2117.07
2119.96
2122.79
2125.56
2128.25
2130.86
2133.4
2135.85
2138.22
2140.5
2142.69
2144.79
2146.78
2148.68
2150.47
2152.16
2153.73
2155.19
2156.54
2157.77
2158.89
2159.88
2160.74
2161.48
2162.08
2162.55
2162.89
2163.08
2163.13
2163.03
2162.79
2162.4
2161.85
2161.15
2160.29
2159.28
2158.1
2156.76
2155.25
2153.58
2151.74
2149.72
2147.53
2145.16
2142.62
2139.9
2136.99
2133.9
2130.63
2127.17
2123.52
2119.69
2115.66
2111.45
2107.04
2102.43
2097.64
2092.65
2087.47
2082.09
2076.52
2070.75
2064.79
2058.64
2052.3
2045.76
2039.03
2032.11
2025.01
2017.71
2010.24
2002.57
1994.73
1986.71
1978.51
1970.14
1961.6
1952.89
1944.02
1934.98
1925.78
1916.43
1906.93
1897.27
1887.48
1877.54
1867.46
1857.26
1846.92
1836.46
1825.88
1815.18
1804.37
1793.45
1782.42
1771.3
1760.08
1748.77
1737.37
1725.89
1714.33
1702.7
1691
1679.23
1667.4
1655.52
1643.58
1631.59
1619.56
1607.49
1595.39
1583.25
1571.09
1558.9
1546.7
1534.48
1522.25
1510.02
1497.78
1485.55
1473.32
1461.1
1448.9
1436.72
1424.56
1412.43
1400.32
1388.25
1376.22
1364.24
1352.3
1340.41
1328.58
1316.82
1305.14
1293.53
1282.01
1270.57
1259.23
1247.98
1236.81
1225.75
1214.78
1203.91
1193.15
1182.49
1171.95
1161.52
1151.21
1141.03
1130.97
1121.05
1111.26
1101.61
1092.1
1082.73
1073.51
1064.45
1055.54
1046.78
1038.19
1029.76
1021.5
1013.41
1005.49
997.741
990.174
982.788
975.585
968.568
961.738
955.098
948.651
942.398
936.343
930.486
924.829
919.375
914.123
909.074
904.234
899.604
895.187
890.982
886.993
883.219
879.663
876.325
873.207
870.31
867.636
865.184
862.955
860.95
859.169
857.611
856.277
855.165
854.277
853.61
853.166
852.945
1963.16
1963.11
1963.03
1962.91
1962.75
1962.55
1962.3
1962.02
1961.7
1961.33
1960.93
1960.5
1960.02
1959.52
1958.97
1958.4
1957.79
1957.16
1956.49
1955.8
1955.08
1954.33
1953.56
1952.77
1951.96
1951.13
1950.27
1949.41
1948.52
1947.63
1946.72
1945.8
1944.87
1943.93
1943
1942.05
1941.11
1940.17
1939.23
1938.3
1937.37
1936.45
1935.55
1934.65
1933.78
1932.92
1932.08
1931.26
1930.46
1929.7
1928.96
1928.25
1927.57
1926.92
1926.31
1925.74
1925.21
1924.72
1924.27
1923.87
1923.51
1923.2
1922.95
1922.74
1922.59
1922.49
1922.45
1922.47
1922.55
1922.69
1922.89
1923.16
1923.49
1923.89
1924.36
1924.89
1925.5
1926.18
1926.93
1927.75
1928.65
1929.62
1930.67
1931.79
1932.98
1934.26
1935.61
1937.03
1938.54
1940.12
1941.77
1943.5
1945.31
1947.19
1949.15
1951.18
1953.28
1955.45
1957.7
1960.02
1962.4
1964.86
1967.38
1969.97
1972.62
1975.33
1978.1
1980.94
1983.83
1986.77
1989.77
1992.82
1995.93
1999.07
2002.27
2005.5
2008.78
2012.09
2015.44
2018.83
2022.24
2025.68
2029.14
2032.63
2036.14
2039.66
2043.19
2046.74
2050.29
2053.84
2057.4
2060.95
2064.5
2068.04
2071.56
2075.07
2078.56
2082.02
2085.47
2088.88
2092.26
2095.6
2098.9
2102.16
2105.38
2108.54
2111.65
2114.71
2117.7
2120.64
2123.5
2126.3
2129.02
2131.67
2134.24
2136.73
2139.14
2141.45
2143.68
2145.81
2147.84
2149.77
2151.6
2153.32
2154.92
2156.42
2157.8
2159.05
2160.19
2161.2
2162.09
2162.84
2163.46
2163.95
2164.3
2164.51
2164.57
2164.49
2164.26
2163.88
2163.35
2162.66
2161.82
2160.81
2159.64
2158.31
2156.81
2155.14
2153.31
2151.29
2149.11
2146.75
2144.2
2141.48
2138.58
2135.49
2132.22
2128.76
2125.11
2121.27
2117.24
2113.02
2108.61
2104
2099.2
2094.21
2089.01
2083.63
2078.05
2072.27
2066.3
2060.13
2053.77
2047.22
2040.48
2033.54
2026.41
2019.1
2011.6
2003.92
1996.05
1988.01
1979.79
1971.39
1962.82
1954.08
1945.18
1936.11
1926.88
1917.5
1907.97
1898.28
1888.46
1878.49
1868.38
1858.14
1847.77
1837.27
1826.66
1815.93
1805.08
1794.13
1783.07
1771.91
1760.66
1749.31
1737.88
1726.36
1714.77
1703.1
1691.37
1679.56
1667.7
1655.78
1643.81
1631.78
1619.72
1607.61
1595.47
1583.3
1571.1
1558.87
1546.63
1534.37
1522.11
1509.84
1497.56
1485.29
1473.03
1460.77
1448.53
1436.31
1424.11
1411.94
1399.8
1387.7
1375.64
1363.62
1351.64
1339.73
1327.87
1316.08
1304.36
1292.71
1281.15
1269.66
1258.27
1246.97
1235.76
1224.64
1213.63
1202.72
1191.91
1181.22
1170.64
1160.18
1149.84
1139.62
1129.53
1119.57
1109.74
1100.06
1090.52
1081.12
1071.87
1062.78
1053.83
1045.05
1036.43
1027.97
1019.68
1011.56
1003.61
995.843
988.251
980.839
973.611
966.569
959.715
953.053
946.583
940.308
934.23
928.353
922.677
917.202
911.932
906.868
902.012
897.366
892.932
888.712
884.707
880.918
877.347
873.995
870.863
867.953
865.264
862.8
860.559
858.542
856.75
855.183
853.841
852.723
851.83
851.159
850.712
850.488
1963.37
1963.33
1963.25
1963.13
1962.96
1962.76
1962.51
1962.23
1961.9
1961.54
1961.13
1960.69
1960.22
1959.7
1959.16
1958.57
1957.96
1957.32
1956.64
1955.94
1955.21
1954.45
1953.66
1952.86
1952.03
1951.18
1950.31
1949.42
1948.52
1947.6
1946.67
1945.72
1944.77
1943.81
1942.85
1941.88
1940.91
1939.94
1938.97
1938.01
1937.06
1936.11
1935.17
1934.25
1933.34
1932.45
1931.58
1930.73
1929.91
1929.11
1928.34
1927.6
1926.89
1926.21
1925.57
1924.97
1924.41
1923.88
1923.41
1922.97
1922.59
1922.25
1921.97
1921.74
1921.56
1921.44
1921.37
1921.37
1921.42
1921.54
1921.72
1921.97
1922.28
1922.66
1923.11
1923.63
1924.22
1924.89
1925.63
1926.44
1927.32
1928.29
1929.32
1930.44
1931.63
1932.9
1934.25
1935.67
1937.18
1938.76
1940.42
1942.15
1943.97
1945.86
1947.82
1949.86
1951.98
1954.17
1956.43
1958.76
1961.17
1963.64
1966.18
1968.79
1971.47
1974.2
1977
1979.86
1982.78
1985.76
1988.79
1991.87
1995.01
1998.19
2001.42
2004.7
2008.01
2011.37
2014.76
2018.18
2021.64
2025.12
2028.63
2032.17
2035.72
2039.29
2042.87
2046.46
2050.06
2053.67
2057.27
2060.88
2064.48
2068.06
2071.64
2075.2
2078.74
2082.26
2085.75
2089.22
2092.65
2096.04
2099.4
2102.71
2105.97
2109.19
2112.35
2115.45
2118.5
2121.48
2124.39
2127.24
2130.01
2132.7
2135.32
2137.85
2140.29
2142.65
2144.91
2147.08
2149.15
2151.12
2152.98
2154.73
2156.37
2157.9
2159.31
2160.59
2161.76
2162.8
2163.72
2164.5
2165.15
2165.66
2166.03
2166.26
2166.35
2166.29
2166.08
2165.72
2165.2
2164.53
2163.7
2162.71
2161.55
2160.23
2158.75
2157.09
2155.26
2153.26
2151.08
2148.72
2146.19
2143.47
2140.57
2137.48
2134.21
2130.75
2127.1
2123.26
2119.23
2115
2110.59
2105.97
2101.16
2096.16
2090.96
2085.56
2079.97
2074.17
2068.19
2062
2055.63
2049.05
2042.29
2035.33
2028.18
2020.84
2013.31
2005.6
1997.71
1989.63
1981.38
1972.95
1964.35
1955.57
1946.63
1937.53
1928.27
1918.85
1909.27
1899.55
1889.68
1879.67
1869.52
1859.24
1848.83
1838.29
1827.63
1816.86
1805.97
1794.97
1783.87
1772.67
1761.38
1749.99
1738.51
1726.95
1715.32
1703.61
1691.82
1679.98
1668.07
1656.1
1644.09
1632.02
1619.91
1607.76
1595.57
1583.35
1571.1
1558.83
1546.55
1534.24
1521.93
1509.61
1497.29
1484.97
1472.66
1460.36
1448.07
1435.8
1423.55
1411.33
1399.15
1387
1374.88
1362.82
1350.8
1338.84
1326.94
1315.1
1303.33
1291.64
1280.02
1268.49
1257.05
1245.69
1234.43
1223.25
1212.19
1201.24
1190.38
1179.64
1169.02
1158.51
1148.12
1137.86
1127.73
1117.72
1107.86
1098.13
1088.55
1079.11
1069.82
1060.69
1051.71
1042.89
1034.23
1025.74
1017.41
1009.26
1001.28
993.472
985.846
978.403
971.143
964.071
957.187
950.495
943.997
937.695
931.593
925.689
919.987
914.488
909.195
904.109
899.232
894.567
890.113
885.874
881.85
878.043
874.455
871.086
867.938
865.012
862.309
859.829
857.574
855.543
853.739
852.16
850.807
849.68
848.779
848.103
847.654
847.427
1963.66
1963.61
1963.53
1963.41
1963.24
1963.04
1962.79
1962.5
1962.17
1961.8
1961.39
1960.95
1960.47
1959.94
1959.39
1958.8
1958.17
1957.52
1956.83
1956.11
1955.36
1954.59
1953.79
1952.96
1952.11
1951.24
1950.34
1949.43
1948.5
1947.55
1946.6
1945.62
1944.64
1943.65
1942.66
1941.66
1940.66
1939.65
1938.65
1937.66
1936.67
1935.69
1934.72
1933.76
1932.81
1931.89
1930.98
1930.1
1929.23
1928.4
1927.59
1926.81
1926.06
1925.35
1924.67
1924.04
1923.44
1922.88
1922.37
1921.9
1921.48
1921.11
1920.79
1920.53
1920.32
1920.17
1920.07
1920.04
1920.07
1920.16
1920.31
1920.54
1920.82
1921.18
1921.61
1922.11
1922.69
1923.33
1924.06
1924.85
1925.73
1926.68
1927.71
1928.82
1930
1931.27
1932.61
1934.04
1935.54
1937.12
1938.79
1940.53
1942.35
1944.25
1946.23
1948.28
1950.41
1952.62
1954.9
1957.25
1959.67
1962.17
1964.74
1967.37
1970.08
1972.84
1975.67
1978.57
1981.52
1984.53
1987.6
1990.73
1993.9
1997.13
2000.4
2003.72
2007.08
2010.49
2013.93
2017.4
2020.91
2024.45
2028.01
2031.6
2035.21
2038.83
2042.47
2046.13
2049.79
2053.45
2057.12
2060.78
2064.44
2068.09
2071.73
2075.35
2078.96
2082.54
2086.1
2089.62
2093.11
2096.57
2099.99
2103.36
2106.69
2109.96
2113.18
2116.35
2119.45
2122.49
2125.46
2128.36
2131.19
2133.94
2136.61
2139.19
2141.69
2144.09
2146.41
2148.62
2150.74
2152.75
2154.65
2156.45
2158.13
2159.7
2161.15
2162.47
2163.68
2164.75
2165.7
2166.51
2167.19
2167.73
2168.13
2168.39
2168.5
2168.46
2168.28
2167.94
2167.44
2166.79
2165.97
2165
2163.86
2162.55
2161.08
2159.43
2157.61
2155.62
2153.45
2151.1
2148.57
2145.85
2142.96
2139.87
2136.6
2133.14
2129.49
2125.65
2121.61
2117.38
2112.96
2108.34
2103.52
2098.5
2093.29
2087.88
2082.27
2076.46
2070.46
2064.25
2057.85
2051.25
2044.46
2037.48
2030.3
2022.93
2015.37
2007.63
1999.7
1991.59
1983.29
1974.82
1966.18
1957.36
1948.38
1939.23
1929.92
1920.46
1910.84
1901.07
1891.15
1881.09
1870.89
1860.56
1850.1
1839.51
1828.8
1817.98
1807.04
1795.99
1784.84
1773.58
1762.23
1750.79
1739.27
1727.65
1715.97
1704.2
1692.37
1680.47
1668.51
1656.49
1644.42
1632.29
1620.13
1607.92
1595.68
1583.41
1571.11
1558.78
1546.44
1534.08
1521.71
1509.33
1496.96
1484.58
1472.21
1459.85
1447.5
1435.18
1422.87
1410.6
1398.35
1386.15
1373.98
1361.86
1349.78
1337.77
1325.81
1313.91
1302.09
1290.34
1278.66
1267.07
1255.57
1244.15
1232.83
1221.6
1210.48
1199.46
1188.55
1177.75
1167.07
1156.51
1146.07
1135.75
1125.56
1115.51
1105.6
1095.82
1086.19
1076.7
1067.37
1058.18
1049.16
1040.29
1031.59
1023.05
1014.68
1006.49
998.465
990.62
982.956
975.473
968.176
961.066
954.147
947.42
940.89
934.557
928.42
922.485
916.752
911.225
905.903
900.791
895.889
891.198
886.721
882.459
878.413
874.586
870.977
867.589
864.422
861.478
858.757
856.261
853.99
851.945
850.127
848.535
847.17
846.033
845.124
844.441
843.989
843.76
1964.02
1963.97
1963.89
1963.76
1963.6
1963.39
1963.14
1962.84
1962.51
1962.13
1961.72
1961.26
1960.77
1960.24
1959.67
1959.07
1958.43
1957.76
1957.05
1956.32
1955.55
1954.75
1953.93
1953.07
1952.2
1951.3
1950.38
1949.44
1948.48
1947.5
1946.51
1945.5
1944.49
1943.46
1942.43
1941.39
1940.36
1939.32
1938.28
1937.24
1936.21
1935.19
1934.18
1933.18
1932.19
1931.23
1930.28
1929.35
1928.44
1927.56
1926.71
1925.89
1925.1
1924.35
1923.63
1922.95
1922.31
1921.71
1921.15
1920.65
1920.19
1919.78
1919.42
1919.12
1918.88
1918.69
1918.56
1918.49
1918.48
1918.54
1918.67
1918.86
1919.12
1919.45
1919.86
1920.34
1920.89
1921.51
1922.22
1923
1923.86
1924.79
1925.81
1926.91
1928.09
1929.35
1930.69
1932.11
1933.62
1935.2
1936.87
1938.62
1940.45
1942.36
1944.35
1946.42
1948.56
1950.79
1953.09
1955.47
1957.92
1960.44
1963.04
1965.7
1968.44
1971.24
1974.11
1977.04
1980.03
1983.09
1986.2
1989.37
1992.59
1995.87
1999.2
2002.57
2005.98
2009.44
2012.94
2016.48
2020.04
2023.64
2027.27
2030.92
2034.6
2038.29
2042
2045.72
2049.45
2053.19
2056.92
2060.66
2064.39
2068.12
2071.83
2075.53
2079.2
2082.86
2086.49
2090.09
2093.65
2097.18
2100.67
2104.12
2107.52
2110.86
2114.15
2117.39
2120.56
2123.67
2126.7
2129.67
2132.56
2135.38
2138.11
2140.75
2143.31
2145.77
2148.14
2150.41
2152.58
2154.64
2156.6
2158.45
2160.18
2161.79
2163.28
2164.65
2165.9
2167.02
2168
2168.85
2169.57
2170.14
2170.57
2170.86
2171
2170.99
2170.83
2170.52
2170.04
2169.41
2168.62
2167.66
2166.54
2165.25
2163.79
2162.16
2160.35
2158.37
2156.21
2153.87
2151.34
2148.63
2145.74
2142.66
2139.39
2135.93
2132.28
2128.44
2124.4
2120.16
2115.73
2111.1
2106.27
2101.24
2096.01
2090.59
2084.96
2079.13
2073.11
2066.88
2060.45
2053.83
2047.01
2039.99
2032.78
2025.37
2017.78
2009.99
2002.02
1993.87
1985.53
1977.01
1968.32
1959.46
1950.42
1941.22
1931.86
1922.34
1912.66
1902.84
1892.86
1882.75
1872.49
1862.1
1851.58
1840.93
1830.16
1819.28
1808.28
1797.17
1785.95
1774.64
1763.23
1751.73
1740.14
1728.47
1716.72
1704.89
1693
1681.03
1669.01
1656.93
1644.79
1632.61
1620.38
1608.11
1595.81
1583.47
1571.11
1558.72
1546.31
1533.88
1521.45
1509.01
1496.56
1484.12
1471.68
1459.26
1446.84
1434.45
1422.08
1409.74
1397.43
1385.15
1372.92
1360.73
1348.59
1336.5
1324.48
1312.52
1300.63
1288.81
1277.07
1265.41
1253.83
1242.35
1230.96
1219.66
1208.47
1197.39
1186.41
1175.55
1164.8
1154.17
1143.67
1133.29
1123.04
1112.93
1102.95
1093.12
1083.43
1073.89
1064.49
1055.26
1046.18
1037.26
1028.5
1019.91
1011.5
1003.25
995.178
987.286
979.575
972.047
964.705
957.552
950.591
943.823
937.253
930.88
924.706
918.734
912.967
907.405
902.051
896.907
891.974
887.255
882.75
878.461
874.39
870.537
866.905
863.495
860.307
857.343
854.603
852.089
849.801
847.74
845.907
844.302
842.925
841.777
840.86
840.171
839.717
839.486
1964.45
1964.4
1964.32
1964.19
1964.02
1963.81
1963.55
1963.26
1962.91
1962.53
1962.11
1961.64
1961.13
1960.59
1960.01
1959.39
1958.73
1958.04
1957.31
1956.55
1955.76
1954.94
1954.08
1953.2
1952.3
1951.37
1950.41
1949.44
1948.44
1947.43
1946.4
1945.36
1944.3
1943.24
1942.17
1941.09
1940.01
1938.92
1937.84
1936.76
1935.69
1934.62
1933.56
1932.51
1931.48
1930.47
1929.47
1928.49
1927.54
1926.61
1925.71
1924.84
1924
1923.2
1922.43
1921.7
1921.01
1920.37
1919.77
1919.21
1918.71
1918.26
1917.85
1917.51
1917.22
1916.99
1916.82
1916.71
1916.67
1916.69
1916.78
1916.94
1917.17
1917.47
1917.84
1918.29
1918.82
1919.42
1920.1
1920.86
1921.7
1922.63
1923.63
1924.72
1925.89
1927.14
1928.48
1929.9
1931.4
1932.99
1934.66
1936.42
1938.26
1940.18
1942.19
1944.27
1946.44
1948.68
1951.01
1953.41
1955.89
1958.44
1961.07
1963.77
1966.55
1969.39
1972.3
1975.27
1978.32
1981.42
1984.58
1987.8
1991.08
1994.41
1997.8
2001.23
2004.71
2008.23
2011.8
2015.4
2019.04
2022.71
2026.41
2030.14
2033.89
2037.66
2041.45
2045.25
2049.06
2052.87
2056.69
2060.51
2064.33
2068.14
2071.93
2075.71
2079.48
2083.22
2086.93
2090.62
2094.27
2097.88
2101.45
2104.98
2108.46
2111.89
2115.27
2118.58
2121.83
2125.02
2128.13
2131.18
2134.14
2137.03
2139.83
2142.54
2145.17
2147.7
2150.14
2152.47
2154.7
2156.83
2158.84
2160.74
2162.53
2164.19
2165.74
2167.16
2168.45
2169.61
2170.64
2171.54
2172.29
2172.9
2173.37
2173.69
2173.87
2173.89
2173.76
2173.47
2173.03
2172.42
2171.65
2170.71
2169.61
2168.34
2166.9
2165.28
2163.48
2161.51
2159.36
2157.03
2154.52
2151.81
2148.93
2145.85
2142.58
2139.12
2135.47
2131.62
2127.58
2123.34
2118.9
2114.26
2109.42
2104.38
2099.13
2093.69
2088.04
2082.19
2076.14
2069.88
2063.43
2056.77
2049.92
2042.86
2035.61
2028.17
2020.53
2012.7
2004.68
1996.48
1988.09
1979.52
1970.77
1961.85
1952.76
1943.5
1934.07
1924.49
1914.75
1904.86
1894.82
1884.64
1874.32
1863.86
1853.27
1842.55
1831.72
1820.76
1809.69
1798.51
1787.23
1775.84
1764.36
1752.79
1741.13
1729.39
1717.57
1705.67
1693.71
1681.68
1669.58
1657.43
1645.22
1632.97
1620.67
1608.33
1595.95
1583.54
1571.1
1558.64
1546.16
1533.66
1521.15
1508.63
1496.11
1483.59
1471.08
1458.58
1446.09
1433.62
1421.17
1408.75
1396.36
1384.01
1371.7
1359.43
1347.22
1335.06
1322.96
1310.92
1298.95
1287.05
1275.23
1263.5
1251.85
1240.28
1228.81
1217.44
1206.17
1195.01
1183.96
1173.02
1162.2
1151.5
1140.92
1130.47
1120.16
1109.97
1099.93
1090.03
1080.27
1070.66
1061.21
1051.91
1042.76
1033.78
1024.97
1016.32
1007.84
999.539
991.413
983.466
975.701
968.121
960.728
953.525
946.515
939.703
933.085
926.667
920.449
914.436
908.627
903.026
897.635
892.454
887.486
882.733
878.196
873.876
869.775
865.895
862.236
858.8
855.588
852.602
849.841
847.307
845.001
842.924
841.075
839.456
838.067
836.909
835.983
835.289
834.832
834.599
1964.97
1964.92
1964.83
1964.7
1964.53
1964.31
1964.05
1963.74
1963.39
1962.99
1962.56
1962.08
1961.56
1961
1960.39
1959.75
1959.08
1958.36
1957.61
1956.82
1956
1955.15
1954.27
1953.35
1952.41
1951.45
1950.46
1949.44
1948.41
1947.36
1946.28
1945.2
1944.1
1942.99
1941.87
1940.75
1939.62
1938.48
1937.35
1936.22
1935.09
1933.97
1932.86
1931.76
1930.68
1929.61
1928.56
1927.53
1926.52
1925.53
1924.58
1923.65
1922.76
1921.9
1921.08
1920.3
1919.55
1918.85
1918.2
1917.6
1917.04
1916.53
1916.08
1915.69
1915.35
1915.07
1914.86
1914.71
1914.62
1914.6
1914.65
1914.77
1914.96
1915.22
1915.56
1915.98
1916.48
1917.05
1917.71
1918.45
1919.27
1920.17
1921.16
1922.23
1923.39
1924.64
1925.97
1927.39
1928.89
1930.48
1932.16
1933.92
1935.77
1937.71
1939.73
1941.83
1944.02
1946.29
1948.64
1951.07
1953.59
1956.17
1958.84
1961.58
1964.4
1967.28
1970.24
1973.26
1976.36
1979.52
1982.74
1986.02
1989.36
1992.75
1996.2
1999.7
2003.25
2006.85
2010.49
2014.17
2017.89
2021.64
2025.42
2029.23
2033.07
2036.93
2040.8
2044.69
2048.6
2052.51
2056.42
2060.33
2064.24
2068.15
2072.04
2075.92
2079.78
2083.61
2087.42
2091.2
2094.95
2098.66
2102.33
2105.95
2109.53
2113.05
2116.51
2119.92
2123.26
2126.53
2129.74
2132.86
2135.91
2138.88
2141.77
2144.56
2147.26
2149.87
2152.38
2154.78
2157.09
2159.28
2161.36
2163.32
2165.17
2166.9
2168.5
2169.98
2171.32
2172.54
2173.61
2174.55
2175.35
2176.01
2176.52
2176.88
2177.09
2177.15
2177.05
2176.79
2176.38
2175.8
2175.05
2174.14
2173.06
2171.81
2170.39
2168.79
2167.01
2165.05
2162.91
2160.59
2158.08
2155.39
2152.51
2149.44
2146.17
2142.71
2139.06
2135.21
2131.16
2126.91
2122.46
2117.81
2112.96
2107.9
2102.64
2097.18
2091.51
2085.63
2079.55
2073.27
2066.78
2060.09
2053.2
2046.1
2038.81
2031.32
2023.63
2015.75
2007.68
1999.42
1990.97
1982.34
1973.53
1964.54
1955.38
1946.06
1936.56
1926.91
1917.1
1907.13
1897.02
1886.76
1876.36
1865.83
1855.16
1844.37
1833.46
1822.42
1811.27
1800.02
1788.66
1777.19
1765.63
1753.98
1742.25
1730.43
1718.52
1706.55
1694.5
1682.39
1670.22
1657.99
1645.7
1633.37
1620.99
1608.56
1596.1
1583.61
1571.09
1558.55
1545.98
1533.4
1520.81
1508.21
1495.6
1483
1470.4
1457.81
1445.23
1432.68
1420.14
1407.64
1395.16
1382.72
1370.32
1357.97
1345.67
1333.42
1321.23
1309.11
1297.05
1285.07
1273.16
1261.34
1249.59
1237.95
1226.39
1214.94
1203.58
1192.34
1181.2
1170.18
1159.27
1148.49
1137.83
1127.3
1116.9
1106.64
1096.52
1086.54
1076.71
1067.03
1057.5
1048.13
1038.91
1029.86
1020.98
1012.26
1003.72
995.355
987.165
979.156
971.331
963.692
956.242
948.984
941.922
935.052
928.382
921.912
915.646
909.584
903.73
898.084
892.65
887.428
882.42
877.629
873.055
868.701
864.567
860.655
856.966
853.502
850.263
847.251
844.467
841.912
839.586
837.49
835.626
833.993
832.591
831.423
830.488
829.788
829.327
829.093
1965.57
1965.52
1965.43
1965.3
1965.12
1964.89
1964.62
1964.3
1963.94
1963.53
1963.08
1962.58
1962.04
1961.46
1960.84
1960.17
1959.47
1958.73
1957.95
1957.13
1956.28
1955.39
1954.48
1953.53
1952.55
1951.54
1950.51
1949.46
1948.38
1947.28
1946.16
1945.03
1943.88
1942.72
1941.55
1940.37
1939.19
1938
1936.81
1935.62
1934.44
1933.26
1932.09
1930.93
1929.79
1928.66
1927.55
1926.45
1925.38
1924.34
1923.32
1922.34
1921.38
1920.46
1919.58
1918.73
1917.93
1917.17
1916.46
1915.79
1915.18
1914.62
1914.11
1913.66
1913.27
1912.94
1912.67
1912.46
1912.33
1912.26
1912.26
1912.34
1912.49
1912.71
1913.01
1913.39
1913.86
1914.4
1915.03
1915.74
1916.53
1917.42
1918.39
1919.44
1920.59
1921.83
1923.15
1924.57
1926.07
1927.66
1929.35
1931.12
1932.98
1934.93
1936.97
1939.1
1941.31
1943.6
1945.98
1948.45
1951
1953.62
1956.33
1959.11
1961.98
1964.91
1967.92
1971
1974.15
1977.37
1980.66
1984
1987.41
1990.88
1994.4
1997.98
2001.61
2005.29
2009.01
2012.78
2016.58
2020.43
2024.3
2028.21
2032.14
2036.09
2040.07
2044.06
2048.07
2052.08
2056.1
2060.12
2064.13
2068.14
2072.14
2076.13
2080.1
2084.04
2087.96
2091.85
2095.7
2099.52
2103.3
2107.03
2110.7
2114.33
2117.9
2121.41
2124.85
2128.22
2131.52
2134.75
2137.89
2140.95
2143.93
2146.81
2149.6
2152.29
2154.88
2157.37
2159.75
2162.01
2164.17
2166.2
2168.12
2169.91
2171.58
2173.12
2174.52
2175.79
2176.93
2177.92
2178.77
2179.47
2180.03
2180.43
2180.68
2180.78
2180.71
2180.49
2180.11
2179.56
2178.84
2177.96
2176.9
2175.67
2174.27
2172.68
2170.92
2168.98
2166.86
2164.55
2162.05
2159.36
2156.49
2153.42