/*--------------------------------*- C++ -*----------------------------------*\
| =========                 |                                                 |
| \\      /  F ield         | OpenFOAM: The Open Source CFD Toolbox           |
|  \\    /   O peration     | Version:  v2006                                 |
|   \\  /    A nd           | Website:  www.openfoam.com                      |
|    \\/     M anipulation  |                                                 |
\*---------------------------------------------------------------------------*/
FoamFile
{
    version     2.0;
    format      ascii;
    class       surfaceScalarField;
    location    "17.7";
    object      phi;
}
// * * * * * * * * * * * * * * * * * * * * * * * * * * * * * * * * * * * * * //

dimensions      [0 3 -1 0 0 0 0];
oriented        oriented;


internalField   nonuniform List<scalar> 
104500
(
-1.39738e-05
1.39738e-05
-2.15538e-05
7.58002e-06
-3.02871e-05
8.73338e-06
-4.00665e-05
9.77936e-06
-5.01714e-05
1.01049e-05
-6.04354e-05
1.02641e-05
-7.07795e-05
1.03441e-05
-8.12004e-05
1.04209e-05
-9.17318e-05
1.05314e-05
-0.000102413
1.06814e-05
-0.000113275
1.08623e-05
-0.00012434
1.10646e-05
-0.000135622
1.12822e-05
-0.000147134
1.15117e-05
-0.000158886
1.1752e-05
-0.000170889
1.20027e-05
-0.000183153
1.22643e-05
-0.00019569
1.25373e-05
-0.000208513
1.28222e-05
-0.000221632
1.31197e-05
-0.000235063
1.34309e-05
-0.000248819
1.37561e-05
-0.000262914
1.40948e-05
-0.00027736
1.44457e-05
-0.000292167
1.48076e-05
-0.000307348
1.51808e-05
-0.000322916
1.55678e-05
-0.000338887
1.59713e-05
-0.000355281
1.63934e-05
-0.000372116
1.68354e-05
-0.000389414
1.72976e-05
-0.000407193
1.77791e-05
-0.000425471
1.82787e-05
-0.000444269
1.87973e-05
-0.000463606
1.93377e-05
-0.000483511
1.99049e-05
-0.000504016
2.05049e-05
-0.00052516
2.11433e-05
-0.000546983
2.18239e-05
-0.000569532
2.25488e-05
-0.000592853
2.33206e-05
-0.000616998
2.41454e-05
-0.000642034
2.50355e-05
-0.000668042
2.60081e-05
-0.000695122
2.70797e-05
-0.000723378
2.82563e-05
-0.0007529
2.95218e-05
-0.000783733
3.08334e-05
-0.00081586
3.21267e-05
-0.00084919
3.33304e-05
-0.000883576
3.43856e-05
-0.000918836
3.52605e-05
-0.000954792
3.59556e-05
-0.000991287
3.64954e-05
-0.0010282
3.69146e-05
-0.00106545
3.72471e-05
-0.00110297
3.75206e-05
-0.00114072
3.77546e-05
-0.00117868
3.79602e-05
-0.00121683
3.81409e-05
-0.00125512
3.82942e-05
-0.00129353
3.84147e-05
-0.00133203
3.84974e-05
-0.00137057
3.85399e-05
-0.00140912
3.85438e-05
-0.00144763
3.85138e-05
-0.00148609
3.8456e-05
-0.00152446
3.83766e-05
-0.00156274
3.82802e-05
-0.00160091
3.81698e-05
-0.00163896
3.80467e-05
-0.00167687
3.79111e-05
-0.00171463
3.77631e-05
-0.00175224
3.76032e-05
-0.00178967
3.74329e-05
-0.00182692
3.72549e-05
-0.001864
3.70726e-05
-0.00190089
3.68899e-05
-0.0019376
3.67107e-05
-0.00197414
3.65383e-05
-0.00201051
3.63755e-05
-0.00204673
3.6224e-05
-0.00208282
3.60848e-05
-0.00211878
3.59579e-05
-0.00215462
3.58425e-05
-0.00219036
3.57375e-05
-0.002226
3.56413e-05
-0.00226155
3.55518e-05
-0.00229702
3.54661e-05
-0.0023324
3.53805e-05
-0.00236769
3.52915e-05
-0.00240288
3.51963e-05
-0.00243798
3.5093e-05
-0.00247296
3.49804e-05
-0.00250782
3.48575e-05
-0.00254254
3.47248e-05
-0.00257713
3.45854e-05
-0.00261157
3.44455e-05
-0.00264588
3.43124e-05
-0.00268008
3.41919e-05
-0.00271416
3.40859e-05
-0.00274815
3.39915e-05
-0.00278206
3.39028e-05
-0.00281587
3.38125e-05
-0.00284958
3.37135e-05
-0.00288318
3.36003e-05
-0.00291665
3.34691e-05
-0.00294997
3.33177e-05
-0.00298311
3.3145e-05
-0.00301606
3.29506e-05
-0.0030488
3.27345e-05
-0.0030813
3.24967e-05
-0.00311353
3.22376e-05
-0.00314549
3.19578e-05
-0.00317715
3.16579e-05
-0.00320849
3.13386e-05
-0.00323949
3.10007e-05
-0.00327013
3.06451e-05
-0.00330041
3.02725e-05
-0.00333029
2.98838e-05
-0.00335977
2.94797e-05
-0.00338883
2.90612e-05
-0.00341746
2.86288e-05
-0.00344564
2.81833e-05
-0.00347337
2.77253e-05
-0.00350062
2.72553e-05
-0.0035274
2.67735e-05
-0.00355368
2.62797e-05
-0.00357945
2.57731e-05
-0.0036047
2.52519e-05
-0.00362941
2.47132e-05
-0.00365357
2.41526e-05
-0.00367713
2.35652e-05
-0.00370008
2.2946e-05
-0.00372237
2.2291e-05
-0.00374397
2.15988e-05
-0.00376484
2.0871e-05
-0.00378495
2.01136e-05
-0.00380429
1.93365e-05
-0.00382284
1.85523e-05
-0.00384062
1.77751e-05
-0.00385764
1.70183e-05
-0.00387393
1.62922e-05
-0.00388953
1.56033e-05
-0.00390448
1.49539e-05
-0.00391883
1.43424e-05
-0.00393259
1.37648e-05
-0.00394581
1.32171e-05
-0.00395851
1.26984e-05
-0.00397072
1.22142e-05
-0.0039825
1.17786e-05
-0.00399392
1.14176e-05
-0.00400508
1.11629e-05
-0.00401612
1.10396e-05
-0.00402718
1.10582e-05
-0.00403839
1.1208e-05
-0.00404984
1.14562e-05
-0.0040616
1.17533e-05
-0.00407364
1.20399e-05
-0.00408589
1.22532e-05
-0.00409822
1.2333e-05
-0.00411045
1.22294e-05
-0.00412234
1.18892e-05
-0.00413358
1.1238e-05
-0.00414384
1.02603e-05
-0.00415281
8.9695e-06
-0.0041602
7.38996e-06
-0.00416576
5.55786e-06
-0.00416926
3.50844e-06
-0.00417049
1.22834e-06
-0.00416929
-1.20158e-06
-0.00416578
-3.5148e-06
-0.00415998
-5.79563e-06
-0.00415206
-7.9215e-06
-0.00414219
-9.86731e-06
-0.00413054
-1.16505e-05
-0.00411723
-1.33075e-05
-0.00410236
-1.48785e-05
-0.00408596
-1.63998e-05
-0.00406806
-1.79004e-05
-0.00404865
-1.94005e-05
-0.00402774
-2.09124e-05
-0.0040053
-2.24411e-05
-0.00398132
-2.39858e-05
-0.00395578
-2.55403e-05
-0.00392868
-2.70939e-05
-0.00390005
-2.86326e-05
-0.00386991
-3.01399e-05
-0.00383831
-3.15984e-05
-0.00380532
-3.29912e-05
-0.00377102
-3.43035e-05
-0.00373549
-3.55238e-05
-0.00369885
-3.6645e-05
-0.00366118
-3.76641e-05
-0.0036226
-3.85823e-05
-0.0035832
-3.9404e-05
-0.00354306
-4.01364e-05
-0.00350227
-4.07889e-05
-0.0034609
-4.13725e-05
-0.003419
-4.18996e-05
-0.00337662
-4.23829e-05
-0.00333378
-4.28353e-05
-0.00329051
-4.3269e-05
-0.00324682
-4.36946e-05
-0.0032027
-4.41199e-05
-0.00315815
-4.45496e-05
-0.00311316
-4.49844e-05
-0.00306774
-4.54216e-05
-0.00302189
-4.58555e-05
-0.00297561
-4.62788e-05
-0.00292892
-4.6684e-05
-0.00288186
-4.70639e-05
-0.00283445
-4.74127e-05
-0.00278672
-4.77266e-05
-0.00273872
-4.8003e-05
-0.00269048
-4.82408e-05
-0.00264204
-4.844e-05
-0.00259344
-4.86011e-05
-0.00254471
-4.87251e-05
-0.0024959
-4.88127e-05
-0.00244703
-4.88648e-05
-0.00239815
-4.8882e-05
-0.00234929
-4.88646e-05
-0.00230047
-4.88134e-05
-0.00225174
-4.87288e-05
-0.00220313
-4.86117e-05
-0.00215467
-4.84628e-05
-0.00210639
-4.82831e-05
-0.00205831
-4.80735e-05
-0.00201048
-4.7835e-05
-0.00196291
-4.75685e-05
-0.00191563
-4.72749e-05
-0.00186868
-4.69548e-05
-0.00182207
-4.6609e-05
-0.00177583
-4.62381e-05
-0.00172999
-4.58424e-05
-0.00168457
-4.54223e-05
-0.00163959
-4.49779e-05
-0.00159508
-4.45091e-05
-0.00155107
-4.40153e-05
-0.00150757
-4.34961e-05
-0.00146462
-4.29503e-05
-0.00142224
-4.23763e-05
-0.00138047
-4.17715e-05
-0.00133934
-4.11326e-05
-0.00129888
-4.0455e-05
-0.00125915
-3.9733e-05
-0.00122019
-3.8959e-05
-0.00118207
-3.81221e-05
-0.00114486
-3.72069e-05
-0.00110867
-3.61926e-05
-0.00107361
-3.50554e-05
-0.00103984
-3.37779e-05
-0.00100747
-3.23622e-05
-0.000976636
-3.08383e-05
-0.000947375
-2.92615e-05
-0.000919681
-2.76934e-05
-0.000893503
-2.61782e-05
-0.000868776
-2.47269e-05
-0.000845458
-2.33188e-05
-0.00082354
-2.19174e-05
-0.000803054
-2.04866e-05
-0.000784054
-1.89999e-05
-0.000766613
-1.7441e-05
-0.000750812
-1.5801e-05
-0.000736734
-1.40773e-05
-0.000724461
-1.22737e-05
-0.000714059
-1.04018e-05
-0.000705577
-8.48214e-06
-0.00069903
-6.54719e-06
-0.000694386
-4.64396e-06
-0.000691551
-2.8342e-06
-0.000690375
-1.17642e-06
-0.0006907
3.25323e-07
-0.000692292
1.59125e-06
-0.00069512
2.82829e-06
-0.000699209
4.08905e-06
-0.000704604
5.39545e-06
-0.000711193
6.58908e-06
-0.000718185
6.99153e-06
-0.000723242
5.05663e-06
-0.00072318
-6.1813e-08
-0.000716584
-6.59578e-06
-0.000703137
-1.34467e-05
-0.000683854
-1.92832e-05
-0.000660309
-2.35452e-05
-0.000634107
-2.62017e-05
-0.000606584
-2.75229e-05
-0.000578719
-2.78657e-05
-0.000551174
-2.7545e-05
-0.000524373
-2.68011e-05
-0.000498564
-2.5809e-05
-0.000473889
-2.46741e-05
-0.000450337
-2.35528e-05
-0.000427851
-2.24856e-05
-0.000406339
-2.15119e-05
-0.000385704
-2.06351e-05
-0.000365833
-1.98713e-05
-0.000346634
-1.91988e-05
-0.000328035
-1.85985e-05
-0.000309983
-1.80526e-05
-0.000292433
-1.75497e-05
-0.000275368
-1.70651e-05
-0.000258788
-1.65796e-05
-0.000242713
-1.60757e-05
-0.000227168
-1.55444e-05
-0.000212188
-1.498e-05
-0.000197791
-1.43968e-05
-0.000183991
-1.38002e-05
-0.000170788
-1.32034e-05
-0.000158169
-1.26185e-05
-0.000146124
-1.20458e-05
-0.00013463
-1.14937e-05
-0.000123676
-1.09542e-05
-0.000113255
-1.04202e-05
-0.000103362
-9.89354e-06
-9.39993e-05
-9.36255e-06
-8.51618e-05
-8.83752e-06
-7.68506e-05
-8.31125e-06
-6.90666e-05
-7.78399e-06
-6.1811e-05
-7.25559e-06
-5.50825e-05
-6.7285e-06
-4.88802e-05
-6.20231e-06
-4.32013e-05
-5.67892e-06
-3.80424e-05
-5.15891e-06
-3.3402e-05
-4.64033e-06
-2.9278e-05
-4.12399e-06
-2.5646e-05
-3.63204e-06
-2.24898e-05
-3.15616e-06
-1.97951e-05
-2.69472e-06
-1.75422e-05
-2.25295e-06
-1.57072e-05
-1.83502e-06
-1.42593e-05
-1.44783e-06
-1.31655e-05
-1.09386e-06
-1.23765e-05
-7.88995e-07
-1.18366e-05
-5.39855e-07
-1.14876e-05
-3.49052e-07
-1.12686e-05
-2.18955e-07
-1.11184e-05
-1.50186e-07
-1.09786e-05
-1.39841e-07
-1.07914e-05
-1.87157e-07
-1.04901e-05
-3.01349e-07
-9.99224e-06
-4.9785e-07
-9.18953e-06
-8.02706e-07
-7.95144e-06
-1.2381e-06
-6.146e-06
-1.80544e-06
-3.64093e-06
-2.50507e-06
-5.98703e-08
-3.58106e-06
4.32845e-06
-4.38832e-06
4.32845e-06
-3.40975e-05
4.80712e-05
-6.76104e-05
4.1093e-05
-0.000103363
4.44864e-05
-0.000139059
4.54746e-05
-0.000174397
4.54429e-05
-0.000209658
4.55253e-05
-0.00024495
4.56362e-05
-0.000280252
4.57228e-05
-0.000315508
4.57878e-05
-0.000350665
4.58379e-05
-0.000385677
4.58741e-05
-0.000420507
4.58947e-05
-0.000455121
4.58966e-05
-0.000489486
4.58763e-05
-0.000523565
4.58316e-05
-0.000557325
4.57624e-05
-0.000590731
4.56707e-05
-0.000623754
4.556e-05
-0.000656367
4.54354e-05
-0.000688551
4.53038e-05
-0.000720293
4.51728e-05
-0.000751589
4.50515e-05
-0.000782443
4.49493e-05
-0.000812874
4.48764e-05
-0.000842909
4.48427e-05
-0.000872585
4.48565e-05
-0.000901941
4.49241e-05
-0.000931019
4.50494e-05
-0.00095986
4.52345e-05
-0.000988505
4.54798e-05
-0.00101699
4.57847e-05
-0.00104536
4.61464e-05
-0.00107364
4.65601e-05
-0.00110186
4.70197e-05
-0.00113004
4.75192e-05
-0.00115819
4.80552e-05
-0.00118632
4.86299e-05
-0.00121443
4.92521e-05
-0.00124254
4.99361e-05
-0.00127069
5.06994e-05
-0.00129893
5.15589e-05
-0.00132731
5.25293e-05
-0.0013559
5.36215e-05
-0.00138473
5.48406e-05
-0.00141384
5.61834e-05
-0.00144321
5.7634e-05
-0.00147285
5.91587e-05
-0.00150272
6.07068e-05
-0.00153281
6.22129e-05
-0.00156309
6.36096e-05
-0.00159355
6.48445e-05
-0.00162418
6.58892e-05
-0.00165496
6.67419e-05
-0.00168589
6.74216e-05
-0.00171693
6.79598e-05
-0.00174808
6.83915e-05
-0.00177931
6.87482e-05
-0.00181061
6.90542e-05
-0.00184197
6.93246e-05
-0.0018734
6.95663e-05
-0.00190488
6.97796e-05
-0.00193643
6.99619e-05
-0.00196804
7.01106e-05
-0.00199973
7.02252e-05
-0.00203149
7.03083e-05
-0.00206334
7.03652e-05
-0.00209529
7.04026e-05
-0.00212734
7.04276e-05
-0.00215951
7.04456e-05
-0.0021918
7.04604e-05
-0.00222422
7.04736e-05
-0.0022568
7.04854e-05
-0.00228953
7.0495e-05
-0.00232243
7.05014e-05
-0.0023555
7.05041e-05
-0.00238875
7.05029e-05
-0.00242217
7.04985e-05
-0.00245577
7.04918e-05
-0.00248955
7.0484e-05
-0.00252349
7.04758e-05
-0.00255758
7.04677e-05
-0.00259181
7.04594e-05
-0.00262618
7.04498e-05
-0.00266066
7.04368e-05
-0.00269523
7.04173e-05
-0.00272988
7.03872e-05
-0.00276458
7.03422e-05
-0.00279931
7.02771e-05
-0.00283403
7.01868e-05
-0.00286871
7.00668e-05
-0.00290334
6.99142e-05
-0.00293787
6.97295e-05
-0.00297229
6.95158e-05
-0.00300659
6.92789e-05
-0.00304076
6.90252e-05
-0.0030748
6.87608e-05
-0.0031087
6.84914e-05
-0.00314248
6.82213e-05
-0.00317612
6.79536e-05
-0.00320962
6.7689e-05
-0.00324296
6.74253e-05
-0.00327612
6.7158e-05
-0.0033091
6.68807e-05
-0.00334187
6.65868e-05
-0.00337443
6.62703e-05
-0.00340676
6.59263e-05
-0.00343884
6.55509e-05
-0.00347066
6.51417e-05
-0.00350221
6.46968e-05
-0.00353348
6.42151e-05
-0.00356444
6.36957e-05
-0.00359508
6.3138e-05
-0.00362539
6.25418e-05
-0.00365533
6.19069e-05
-0.00368491
6.12333e-05
-0.00371409
6.05212e-05
-0.00374286
5.97707e-05
-0.0037712
5.89819e-05
-0.00379908
5.81551e-05
-0.00382649
5.72901e-05
-0.0038534
5.6387e-05
-0.00387978
5.54455e-05
-0.00390562
5.4465e-05
-0.00393088
5.34451e-05
-0.00395554
5.2385e-05
-0.00397957
5.12843e-05
-0.00400294
5.01427e-05
-0.00402562
4.89599e-05
-0.00404758
4.77363e-05
-0.0040688
4.64721e-05
-0.00408925
4.51676e-05
-0.00410892
4.38235e-05
-0.0041278
4.24405e-05
-0.00414587
4.10204e-05
-0.00416315
3.95659e-05
-0.00417963
3.80809e-05
-0.00419533
3.6571e-05
-0.00421026
3.50428e-05
-0.00422443
3.3504e-05
-0.00423784
3.19625e-05
-0.00425049
3.04252e-05
-0.00426237
2.88976e-05
-0.00427346
2.73831e-05
-0.00428374
2.58835e-05
-0.00429318
2.43991e-05
-0.00430177
2.29308e-05
-0.00430949
2.14808e-05
-0.00431633
2.00541e-05
-0.00432229
1.86594e-05
-0.00432738
1.73095e-05
-0.00433162
1.60196e-05
-0.00433501
1.4804e-05
-0.00433752
1.36711e-05
-0.0043391
1.26174e-05
-0.00433966
1.1624e-05
-0.00433911
1.06544e-05
-0.00433731
9.65768e-06
-0.00433413
8.57297e-06
-0.00432942
7.3363e-06
-0.00432306
5.88729e-06
-0.0043149
4.17588e-06
-0.00430483
2.15358e-06
-0.00429286
-7.61834e-08
-0.00427901
-2.61572e-06
-0.00426332
-5.43051e-06
-0.00424593
-8.41501e-06
-0.00422704
-1.1503e-05
-0.00420686
-1.46244e-05
-0.00418563
-1.7714e-05
-0.00416369
-2.07132e-05
-0.00414133
-2.35662e-05
-0.00411857
-2.62732e-05
-0.00409548
-2.88866e-05
-0.00407198
-3.14232e-05
-0.00404794
-3.38996e-05
-0.00402326
-3.63338e-05
-0.00399783
-3.87424e-05
-0.00397157
-4.11379e-05
-0.00394444
-4.35278e-05
-0.00391642
-4.59149e-05
-0.00388753
-4.82978e-05
-0.00385777
-5.06715e-05
-0.00382718
-5.30288e-05
-0.00379581
-5.53603e-05
-0.00376369
-5.76552e-05
-0.00373088
-5.99019e-05
-0.00369743
-6.20884e-05
-0.00366336
-6.42029e-05
-0.00362873
-6.62355e-05
-0.00359354
-6.81787e-05
-0.00355781
-7.00282e-05
-0.00352155
-7.17841e-05
-0.00348475
-7.34499e-05
-0.00344738
-7.50325e-05
-0.00340942
-7.65411e-05
-0.00337084
-7.79853e-05
-0.0033316
-7.93743e-05
-0.00329168
-8.07152e-05
-0.00325104
-8.20122e-05
-0.00320967
-8.32668e-05
-0.00316757
-8.44782e-05
-0.00312477
-8.56439e-05
-0.00308127
-8.67604e-05
-0.00303714
-8.78241e-05
-0.00299243
-8.88315e-05
-0.0029472
-8.97794e-05
-0.00290152
-9.06655e-05
-0.00285546
-9.14883e-05
-0.00280906
-9.22472e-05
-0.0027624
-9.29425e-05
-0.00271551
-9.35755e-05
-0.00266843
-9.41476e-05
-0.00262118
-9.46608e-05
-0.00257379
-9.51163e-05
-0.00252628
-9.55151e-05
-0.00247866
-9.58574e-05
-0.00243096
-9.61425e-05
-0.00238319
-9.63689e-05
-0.00233538
-9.65351e-05
-0.00228755
-9.6639e-05
-0.00223974
-9.66792e-05
-0.00219197
-9.66546e-05
-0.00214427
-9.65645e-05
-0.00209667
-9.64092e-05
-0.00204921
-9.61893e-05
-0.00200192
-9.59057e-05
-0.00195482
-9.55598e-05
-0.00190795
-9.5153e-05
-0.00186133
-9.46871e-05
-0.00181501
-9.41635e-05
-0.00176899
-9.35839e-05
-0.00172332
-9.29498e-05
-0.00167801
-9.22631e-05
-0.00163309
-9.15254e-05
-0.00158859
-9.07385e-05
-0.00154453
-8.99039e-05
-0.00150093
-8.90233e-05
-0.00145781
-8.80976e-05
-0.00141519
-8.71283e-05
-0.00137309
-8.61164e-05
-0.00133152
-8.50623e-05
-0.00129051
-8.39665e-05
-0.00125005
-8.28288e-05
-0.00121018
-8.16486e-05
-0.00117088
-8.04249e-05
-0.00113218
-7.91559e-05
-0.00109408
-7.78394e-05
-0.00105656
-7.64729e-05
-0.00101963
-7.50534e-05
-0.00098326
-7.35785e-05
-0.000947406
-7.20468e-05
-0.000912001
-7.04597e-05
-0.000876957
-6.88221e-05
-0.000842176
-6.71435e-05
-0.00080758
-6.54344e-05
-0.000773138
-6.37032e-05
-0.000738881
-6.19503e-05
-0.000704893
-6.01668e-05
-0.000671284
-5.83352e-05
-0.000638169
-5.64343e-05
-0.000605643
-5.44427e-05
-0.000573788
-5.2342e-05
-0.000542671
-5.01166e-05
-0.000512358
-4.77544e-05
-0.000482912
-4.52467e-05
-0.000454399
-4.25905e-05
-0.000426883
-3.97901e-05
-0.000400423
-3.68613e-05
-0.000375072
-3.38333e-05
-0.000350868
-3.07508e-05
-0.000327837
-2.76753e-05
-0.00030599
-2.46813e-05
-0.000285318
-2.18483e-05
-0.000265729
-1.92637e-05
-0.000247094
-1.70434e-05
-0.000228978
-1.52886e-05
-0.000210771
-1.41179e-05
-0.000191583
-1.37921e-05
-0.000170649
-1.4345e-05
-0.000147557
-1.61005e-05
-0.000123231
-1.92695e-05
-9.96553e-05
-2.36372e-05
-7.75993e-05
-2.86518e-05
-5.73116e-05
-3.37344e-05
-3.82333e-05
-3.83614e-05
-1.95163e-05
-4.22622e-05
-3.23834e-07
-4.53942e-05
1.99639e-05
-4.78107e-05
4.1634e-05
-4.95357e-05
6.46143e-05
-5.05253e-05
8.85176e-05
-5.07044e-05
0.000112763
-5.00545e-05
0.000136797
-4.87082e-05
0.000160022
-4.67774e-05
0.000182047
-4.45105e-05
0.000202633
-4.20985e-05
0.000221708
-3.97101e-05
0.00023923
-3.73929e-05
0.000255241
-3.52102e-05
0.000269839
-3.31967e-05
0.000283171
-3.13843e-05
0.000295389
-2.97682e-05
0.000306665
-2.83405e-05
0.000317144
-2.70586e-05
0.000326943
-2.58744e-05
0.000336121
-2.47232e-05
0.000344708
-2.35661e-05
0.000352667
-2.23558e-05
0.000359957
-2.10905e-05
0.000366529
-1.97753e-05
0.000372353
-1.84421e-05
0.000377425
-1.71179e-05
0.000381746
-1.58148e-05
0.000385343
-1.45518e-05
0.000388262
-1.33386e-05
0.00039053
-1.21621e-05
0.000392187
-1.1019e-05
0.000393253
-9.9035e-06
0.000393743
-8.80117e-06
0.000393659
-7.70046e-06
0.000392991
-6.58738e-06
0.000391728
-5.46545e-06
0.000389853
-4.32787e-06
0.000387342
-3.16725e-06
0.000384167
-1.98402e-06
0.00038029
-7.63771e-07
0.000375602
5.64496e-07
0.000370128
1.84215e-06
0.000363804
3.16777e-06
0.000356564
4.54511e-06
0.000348352
5.95911e-06
0.000339061
7.4556e-06
0.000328631
8.98257e-06
0.00031699
1.05469e-05
0.000304087
1.2114e-05
0.000289881
1.36659e-05
0.000274366
1.51666e-05
0.000257577
1.65699e-05
0.000239559
1.78674e-05
0.000220427
1.89927e-05
0.000200323
1.9916e-05
0.000179395
2.06267e-05
0.000157799
2.10982e-05
0.00013569
2.13065e-05
0.000113175
2.12772e-05
9.02455e-05
2.11239e-05
6.67838e-05
2.09567e-05
4.30925e-05
2.01102e-05
2.15456e-05
1.71586e-05
2.58741e-05
-3.99844e-05
8.80556e-05
-7.77364e-05
7.88449e-05
-0.000118253
8.5003e-05
-0.000159411
8.66324e-05
-0.000200337
8.6369e-05
-0.000240972
8.61604e-05
-0.000281321
8.59854e-05
-0.000321318
8.57197e-05
-0.000360889
8.53591e-05
-0.000399971
8.49194e-05
-0.000438504
8.44066e-05
-0.000476433
8.38239e-05
-0.00051371
8.31737e-05
-0.000550294
8.24601e-05
-0.00058615
8.16879e-05
-0.000621252
8.08648e-05
-0.000655583
8.00014e-05
-0.000689135
7.91118e-05
-0.000721912
7.8212e-05
-0.000753928
7.73202e-05
-0.000785211
7.6456e-05
-0.0008158
7.56403e-05
-0.000845745
7.48942e-05
-0.000875105
7.4237e-05
-0.000903945
7.36826e-05
-0.000932328
7.32387e-05
-0.00096031
7.29062e-05
-0.000987941
7.26812e-05
-0.00101526
7.25574e-05
-0.00104231
7.2529e-05
-0.00106912
7.25916e-05
-0.00109572
7.27416e-05
-0.00112213
7.29751e-05
-0.0011484
7.32863e-05
-0.00117455
7.36674e-05
-0.0012006
7.41097e-05
-0.00122658
7.46064e-05
-0.00125248
7.51558e-05
-0.00127831
7.57628e-05
-0.00130405
7.64383e-05
-0.00132968
7.71974e-05
-0.00135521
7.8056e-05
-0.00138062
7.90266e-05
-0.00140589
8.01144e-05
-0.00143102
8.13134e-05
-0.00145599
8.26039e-05
-0.00148078
8.39518e-05
-0.00150539
8.53123e-05
-0.00152981
8.66367e-05
-0.00155408
8.78805e-05
-0.00157825
8.90137e-05
-0.00160239
9.00237e-05
-0.00162656
9.09128e-05
-0.00165083
9.16961e-05
-0.00167527
9.23952e-05
-0.00169991
9.30335e-05
-0.00172479
9.36309e-05
-0.00174994
9.42012e-05
-0.00177537
9.47503e-05
-0.00180108
9.52784e-05
-0.00182708
9.57823e-05
-0.00185338
9.62584e-05
-0.00187997
9.67053e-05
-0.00190687
9.71246e-05
-0.00193408
9.75203e-05
-0.00196162
9.78984e-05
-0.00198948
9.8265e-05
-0.00201768
9.86252e-05
-0.00204621
9.89825e-05
-0.00207509
9.9338e-05
-0.00210431
9.96911e-05
-0.00213386
0.00010004
-0.00216375
0.000100381
-0.00219396
0.000100711
-0.00222448
0.000101029
-0.00225531
0.000101332
-0.00228643
0.000101619
-0.00231783
0.00010189
-0.00234949
0.000102145
-0.0023814
0.000102384
-0.00241354
0.000102605
-0.00244589
0.000102808
-0.00247843
0.000102991
-0.00251114
0.000103153
-0.00254401
0.000103289
-0.00257703
0.000103399
-0.00261016
0.00010348
-0.00264341
0.000103527
-0.00267677
0.00010354
-0.00271022
0.000103515
-0.00274375
0.000103452
-0.00277738
0.000103352
-0.00281108
0.000103216
-0.00284485
0.000103049
-0.00287868
0.000102854
-0.00291255
0.000102634
-0.00294645
0.000102392
-0.00298035
0.000102127
-0.00301424
0.000101839
-0.00304808
0.000101527
-0.00308184
0.000101188
-0.0031155
0.000100817
-0.00314903
0.00010041
-0.00318241
9.99621e-05
-0.00321561
9.947e-05
-0.00324861
9.89304e-05
-0.0032814
9.8341e-05
-0.00331396
9.76998e-05
-0.00334627
9.70056e-05
-0.00337831
9.62574e-05
-0.00341007
9.54543e-05
-0.00344152
9.45959e-05
-0.00347266
9.36818e-05
-0.00350347
9.27115e-05
-0.00353392
9.1685e-05
-0.003564
9.0602e-05
-0.00359369
8.94624e-05
-0.00362298
8.82658e-05
-0.00365183
8.70121e-05
-0.00368025
8.57011e-05
-0.00370819
8.43324e-05
-0.00373565
8.2906e-05
-0.00376261
8.14218e-05
-0.00378904
7.98803e-05
-0.00381494
7.82821e-05
-0.00384028
7.66286e-05
-0.00386506
7.49215e-05
-0.00388927
7.31631e-05
-0.00391289
7.13562e-05
-0.00393592
6.95033e-05
-0.00395836
6.76066e-05
-0.0039802
6.56677e-05
-0.00400145
6.36878e-05
-0.0040221
6.16672e-05
-0.00404214
5.96063e-05
-0.00406156
5.75054e-05
-0.00408035
5.53653e-05
-0.0040985
5.31876e-05
-0.00411597
5.0975e-05
-0.00413274
4.87307e-05
-0.00414877
4.64582e-05
-0.00416404
4.41613e-05
-0.0041785
4.18431e-05
-0.00419212
3.95063e-05
-0.00420487
3.71529e-05
-0.00421673
3.47849e-05
-0.00422765
3.24044e-05
-0.00423761
3.0015e-05
-0.00424657
2.76219e-05
-0.0042545
2.52319e-05
-0.00426133
2.28529e-05
-0.00426702
2.04915e-05
-0.0042715
1.81502e-05
-0.0042747
1.58247e-05
-0.00427658
1.35018e-05
-0.00427708
1.11585e-05
-0.00427619
8.76388e-06
-0.0042739
6.28188e-06
-0.00427024
3.67662e-06
-0.00426527
9.18977e-07
-0.0042591
-1.99446e-06
-0.0042518
-5.14823e-06
-0.00424342
-8.45305e-06
-0.00423408
-1.19554e-05
-0.0042239
-1.56091e-05
-0.00421295
-1.93738e-05
-0.00420124
-2.32055e-05
-0.00418881
-2.70608e-05
-0.00417562
-3.09045e-05
-0.00416163
-3.47041e-05
-0.00414676
-3.84316e-05
-0.00413094
-4.20898e-05
-0.00411413
-4.5704e-05
-0.00409626
-4.9292e-05
-0.00407729
-5.28623e-05
-0.00405721
-5.64182e-05
-0.00403599
-5.99598e-05
-0.00401365
-6.34851e-05
-0.00399018
-6.69908e-05
-0.00396562
-7.04723e-05
-0.00394
-7.39246e-05
-0.00391333
-7.73415e-05
-0.00388564
-8.0716e-05
-0.00385696
-8.40402e-05
-0.00382731
-8.73054e-05
-0.00379671
-9.05025e-05
-0.00376518
-9.36223e-05
-0.00373272
-9.66558e-05
-0.00369936
-9.95952e-05
-0.00366511
-0.000102434
-0.00362997
-0.00010517
-0.00359395
-0.000107801
-0.00355707
-0.000110331
-0.00351933
-0.000112765
-0.00348077
-0.000115109
-0.00344138
-0.000117371
-0.0034012
-0.000119557
-0.00336024
-0.000121671
-0.00331854
-0.000123715
-0.00327612
-0.000125689
-0.00323301
-0.000127588
-0.00318924
-0.000129408
-0.00314486
-0.000131142
-0.0030999
-0.000132782
-0.00305441
-0.000134324
-0.00300843
-0.000135763
-0.002962
-0.000137094
-0.00291517
-0.000138318
-0.00286798
-0.000139435
-0.00282048
-0.000140447
-0.0027727
-0.000141358
-0.00272467
-0.000142172
-0.00267644
-0.000142893
-0.00262803
-0.000143525
-0.00257948
-0.000144069
-0.00253081
-0.000144527
-0.00248205
-0.000144898
-0.00243324
-0.00014518
-0.0023844
-0.000145372
-0.00233557
-0.000145471
-0.00228678
-0.000145476
-0.00223804
-0.000145386
-0.00218941
-0.0001452
-0.0021409
-0.000144918
-0.00209255
-0.000144541
-0.00204438
-0.000144071
-0.00199644
-0.000143508
-0.00194873
-0.000142856
-0.0019013
-0.000142116
-0.00185418
-0.00014129
-0.00180738
-0.000140381
-0.00176094
-0.000139391
-0.00171488
-0.000138323
-0.00166922
-0.00013718
-0.001624
-0.000135962
-0.00157923
-0.000134675
-0.00153493
-0.000133319
-0.00149113
-0.000131898
-0.00144785
-0.000130413
-0.0014051
-0.000128868
-0.0013629
-0.000127263
-0.00132126
-0.000125602
-0.0012802
-0.000123886
-0.00123973
-0.000122117
-0.00119986
-0.000120296
-0.0011606
-0.000118424
-0.00112193
-0.000116502
-0.00108387
-0.000114532
-0.00104641
-0.000112517
-0.00100953
-0.000110458
-0.000973215
-0.000108362
-0.000937434
-0.00010624
-0.000902149
-0.000104108
-0.000867312
-0.00010198
-0.00083288
-9.9867e-05
-0.000798817
-9.77662e-05
-0.000765105
-9.56621e-05
-0.000731741
-9.35308e-05
-0.000698726
-9.135e-05
-0.000666055
-8.91055e-05
-0.000633705
-8.67926e-05
-0.000601636
-8.44108e-05
-0.000569794
-8.1959e-05
-0.000538116
-7.94321e-05
-0.00050654
-7.68229e-05
-0.000475005
-7.4125e-05
-0.00044346
-7.13357e-05
-0.000411862
-6.84588e-05
-0.00038019
-6.5506e-05
-0.000348441
-6.24993e-05
-0.000316645
-5.94714e-05
-0.000284861
-5.64653e-05
-0.000253177
-5.35321e-05
-0.000221709
-5.07316e-05
-0.000190624
-4.81289e-05
-0.000160123
-4.5789e-05
-0.000130445
-4.37961e-05
-0.000101872
-4.23652e-05
-7.44803e-05
-4.17366e-05
-4.84372e-05
-4.21436e-05
-2.40604e-05
-4.36464e-05
-1.7609e-06
-4.59367e-05
1.81646e-05
-4.85773e-05
3.57137e-05
-5.12835e-05
5.11911e-05
-5.38388e-05
6.50773e-05
-5.61484e-05
7.78728e-05
-5.81897e-05
8.9988e-05
-5.9926e-05
0.000101708
-6.12553e-05
0.000113208
-6.20258e-05
0.000124612
-6.21078e-05
0.000136021
-6.14639e-05
0.000147476
-6.01628e-05
0.000159047
-5.83488e-05
0.00017073
-5.6193e-05
0.000182476
-5.38448e-05
0.000194155
-5.13892e-05
0.000205627
-4.88651e-05
0.000216756
-4.63389e-05
0.000227416
-4.38565e-05
0.0002375
-4.14688e-05
0.000246978
-3.92457e-05
0.000255844
-3.72067e-05
0.000264135
-3.53497e-05
0.000271894
-3.36332e-05
0.000279138
-3.19671e-05
0.000285906
-3.03345e-05
0.000292206
-2.86557e-05
0.00029802
-2.69045e-05
0.000303331
-2.5086e-05
0.000308103
-2.32141e-05
0.000312299
-2.13141e-05
0.000315931
-1.94468e-05
0.000319006
-1.76269e-05
0.00032154
-1.5873e-05
0.000323566
-1.41875e-05
0.000325125
-1.25787e-05
0.000326237
-1.10154e-05
0.000326928
-9.49209e-06
0.000327224
-7.99611e-06
0.000327121
-6.48465e-06
0.000326647
-4.99157e-06
0.0003258
-3.48046e-06
0.000324579
-1.94679e-06
0.000322971
-3.75668e-07
0.000320971
1.23663e-06
0.000318626
2.90879e-06
0.000315809
4.659e-06
0.000312485
6.49177e-06
0.000308607
8.4237e-06
0.000304093
1.04728e-05
0.000298889
1.26602e-05
0.000292861
1.50106e-05
0.000285918
1.74889e-05
0.000277919
2.01138e-05
0.000268729
2.28551e-05
0.000258218
2.56783e-05
0.000246257
2.85306e-05
0.000232768
3.13566e-05
0.000217668
3.40925e-05
0.00020091
3.66742e-05
0.00018254
3.89961e-05
0.000162608
4.10305e-05
0.000141231
4.26837e-05
0.000118577
4.3931e-05
9.49186e-05
4.47824e-05
7.08425e-05
4.50327e-05
4.76647e-05
4.3288e-05
2.62795e-05
3.85439e-05
5.21535e-05
-3.72123e-05
0.000125268
-6.96645e-05
0.000111297
-0.000105389
0.000120727
-0.000142748
0.000123992
-0.000179905
0.000123526
-0.000216501
0.000122756
-0.000252628
0.000122113
-0.000288282
0.000121373
-0.000323397
0.000120475
-0.000357915
0.000119437
-0.000391791
0.000118283
-0.000424991
0.000117023
-0.000457488
0.000115671
-0.000489264
0.000114236
-0.000520315
0.000112739
-0.000550648
0.000111198
-0.000580282
0.000109635
-0.000609247
0.000108077
-0.000637584
0.000106549
-0.000665339
0.000105075
-0.000692564
0.000103682
-0.00071932
0.000102396
-0.000745664
0.000101238
-0.000771656
0.000100229
-0.000797353
9.93796e-05
-0.000822808
9.86935e-05
-0.000848068
9.81663e-05
-0.000873175
9.77879e-05
-0.000898163
9.75457e-05
-0.000923061
9.74273e-05
-0.000947893
9.74233e-05
-0.000972678
9.75266e-05
-0.000997435
9.7732e-05
-0.00102218
9.80353e-05
-0.00104695
9.84317e-05
-0.00107175
9.89154e-05
-0.00109663
9.94804e-05
-0.00112159
0.000100121
-0.00114666
0.000100833
-0.00117184
0.000101615
-0.00119711
0.000102468
-0.00122245
0.000103395
-0.00124782
0.000104396
-0.00127318
0.000105472
-0.00129848
0.000106617
-0.0013237
0.00010782
-0.00134881
0.000109061
-0.00137381
0.000110317
-0.00139874
0.000111566
-0.00142364
0.000112784
-0.00144859
0.000113956
-0.00147363
0.000115073
-0.00149886
0.000116134
-0.0015243
0.000117141
-0.00155001
0.000118104
-0.00157601
0.000119031
-0.0016023
0.000119929
-0.00162891
0.000120803
-0.00165581
0.000121654
-0.00168301
0.000122483
-0.00171052
0.000123288
-0.00173833
0.000124068
-0.00176645
0.000124824
-0.00179488
0.000125556
-0.00182363
0.000126269
-0.00185269
0.000126964
-0.00188207
0.000127646
-0.00191177
0.000128317
-0.00194176
0.000128978
-0.00197205
0.000129628
-0.00200263
0.000130267
-0.00203348
0.00013089
-0.0020646
0.000131497
-0.00209597
0.000132084
-0.00212759
0.000132648
-0.00215944
0.000133188
-0.00219153
0.000133702
-0.00222382
0.000134189
-0.00225633
0.000134648
-0.00228902
0.000135079
-0.0023219
0.00013548
-0.00235494
0.00013585
-0.00238814
0.000136188
-0.00242148
0.000136492
-0.00245495
0.00013676
-0.00248854
0.00013699
-0.00252224
0.00013718
-0.00255604
0.000137328
-0.00258993
0.000137435
-0.00262392
0.000137499
-0.00265798
0.000137521
-0.00269213
0.000137501
-0.00272636
0.00013744
-0.00276065
0.000137338
-0.00279499
0.000137194
-0.00282936
0.000137009
-0.00286375
0.00013678
-0.00289813
0.000136507
-0.00293248
0.000136188
-0.00296677
0.000135821
-0.00300099
0.000135403
-0.0030351
0.000134933
-0.0030691
0.000134407
-0.00310296
0.000133822
-0.00313666
0.000133176
-0.0031702
0.000132466
-0.00320355
0.000131692
-0.0032367
0.000130851
-0.00326964
0.000129942
-0.00330234
0.000128964
-0.00333481
0.000127915
-0.00336701
0.000126796
-0.00339893
0.000125606
-0.00343056
0.000124343
-0.00346188
0.000123008
-0.00349288
0.0001216
-0.00352354
0.000120119
-0.00355384
0.000118564
-0.00358376
0.000116936
-0.00361329
0.000115234
-0.00364242
0.000113458
-0.00367112
0.000111609
-0.00369939
0.000109685
-0.00372719
0.000107689
-0.00375453
0.00010562
-0.00378138
0.000103481
-0.00380774
0.000101272
-0.00383357
9.89965e-05
-0.00385887
9.66561e-05
-0.00388362
9.42528e-05
-0.0039078
9.17882e-05
-0.0039314
8.92635e-05
-0.00395439
8.66791e-05
-0.00397675
8.4035e-05
-0.00399848
8.13308e-05
-0.00401954
7.85663e-05
-0.00403992
7.57412e-05
-0.00405958
7.28562e-05
-0.00407852
6.99123e-05
-0.0040967
6.69115e-05
-0.0041141
6.38562e-05
-0.00413069