/*--------------------------------*- C++ -*----------------------------------*\
| =========                 |                                                 |
| \\      /  F ield         | OpenFOAM: The Open Source CFD Toolbox           |
|  \\    /   O peration     | Version:  v2006                                 |
|   \\  /    A nd           | Website:  www.openfoam.com                      |
|    \\/     M anipulation  |                                                 |
\*---------------------------------------------------------------------------*/
FoamFile
{
    version     2.0;
    format      ascii;
    class       volScalarField;
    location    "0";
    object      shifted_f;
}
// * * * * * * * * * * * * * * * * * * * * * * * * * * * * * * * * * * * * * //

dimensions      [0 0 0 0 0 0 0];


internalField   nonuniform List<scalar> 
2500
(
0.000361074
0.000361014
0.000361037
0.000361081
0.000361029
0.00036104
0.000361063
0.000361037
0.000361118
0.000361096
0.000361096
0.000361111
0.0003611
0.000361107
0.000361107
0.000361145
0.000361137
0.000361096
0.000361141
0.000361118
0.000361077
0.000361081
0.000361126
0.000361197
0.000361145
0.000361197
0.000361141
0.0003612
0.000361189
0.000361122
0.000361193
0.000361223
0.000361182
0.000361197
0.000361197
0.000361245
0.000361178
0.000361182
0.000361193
0.000361238
0.00036126
0.000361208
0.000361234
0.00036123
0.000361279
0.000361186
0.00036126
0.000361253
0.000361253
0.000361271
0.000361253
0.000361256
0.000361294
0.000361249
0.000361279
0.000361238
0.000361234
0.000361275
0.000361271
0.000361279
0.00031995
0.000319965
0.000319935
0.000319932
0.000319913
0.000319891
0.000319865
0.000319909
0.000319872
0.00031985
0.000319842
0.000319883
0.000319775
0.000319798
0.000319794
0.000319794
0.000319742
0.000319745
0.000319716
0.000319693
0.000319719
0.000319637
0.000319693
0.000319637
0.000319649
0.000319608
0.000319596
0.000319585
0.000319596
0.000319567
0.000319574
0.000319522
0.000319541
0.000319485
0.000319518
0.000319503
0.000319522
0.000319455
0.000319459
0.000319395
0.000319455
0.00031938
0.00031944
0.000319365
0.000319388
0.000319339
0.000319317
0.000319283
0.000319276
0.000319265
0.000319242
0.000319224
0.000319235
0.000319257
0.000319175
0.000319179
0.000319172
0.00031909
0.000319153
0.000319075
0.000319097
0.000319049
0.000319019
0.000319105
0.000319097
0.000319049
0.000318989
0.000318985
0.00031893
0.000318956
0.000318941
0.000318952
0.000318881
0.000318903
0.000318862
0.000318788
0.000318859
0.000318814
0.000318818
0.000318751
0.000318788
0.000318732
0.000318788
0.000318762
0.000318721
0.000318673
0.000318721
0.000318602
0.000318624
0.000318583
0.000318561
0.000318535
0.00031852
0.000318501
0.000318479
0.000318497
0.000318445
0.000318412
0.000318382
0.000318386
0.00031836
0.000221606
0.000221588
0.000221543
0.000221532
0.000221562
0.000221502
0.000221547
0.000221442
0.000221454
0.000221465
0.00022142
0.00022145
0.000221387
0.000221349
0.000221338
0.000221334
0.000221256
0.000221297
0.000221264
0.000221275
0.000221312
0.000221238
0.00022123
0.000221208
0.000221185
0.000221211
0.000221159
0.000221159
0.000221141
0.000221141
0.000221163
0.000221096
0.000221096
0.000221111
0.000221074
0.000221033
0.000221003
0.000220969
0.000220999
0.000220932
0.000220966
0.00022094
0.000220891
0.000220947
0.000220921
0.000220854
0.000220809
0.000220869
0.000220876
0.00022085
0.00022085
0.000220865
0.000220798
0.000220742
0.000220716
0.000220705
0.000220671
0.000220675
0.000220697
0.000220645
0.000220563
0.000220671
0.000220582
0.000220571
0.000220552
0.000220537
0.000220552
0.000220459
0.00022047
0.000220403
0.000220452
0.000220437
0.000220418
0.000220377
0.00022037
0.000220317
0.000220351
0.000220265
0.000220276
0.000220206
0.000220191
0.000220247
0.000220187
0.000220206
0.000220209
0.000220113
0.000220072
0.000220086
0.000220038
0.000220086
0.000220023
0.000220004
0.000220068
0.000220008
0.000219952
0.000219937
0.000219889
0.000219885
0.000219848
0.000219855
0.000219844
0.00013366
0.000133615
0.000133645
0.000133678
0.000133634
0.000133626
0.000133671
0.000133667
0.000133641
0.000133637
0.000133585
0.000133652
0.000133634
0.000133634
0.000133563
0.000133529
0.000133574
0.000133537
0.000133611
0.000133552
0.000133578
0.000133578
0.00013357
0.000133589
0.000133567
0.000133481
0.000133526
0.000133503
0.000133537
0.000133503
0.000133552
0.000133514
0.000133477
0.000133455
0.000133488
0.000133503
0.00013347
0.000133466
0.000133496
0.000133492
0.000133432
0.000133503
0.0001335
0.000133511
0.000133455
0.000133418
0.000133403
0.000133466
0.000133492
0.000133429
0.000133451
0.000133451
0.000133429
0.00013344
0.000133485
0.000133395
0.000133473
0.00013347
0.00013335
0.000133369
0.000133358
0.000133377
0.000133324
0.00013335
0.000133384
0.000133377
0.000133339
0.000133365
0.000133339
0.000133373
0.000133317
0.000133347
0.00013328
0.000133283
0.000133283
0.000133272
0.000133287
0.000133265
0.000133332
0.000133276
0.000133254
0.000133298
0.000133235
0.00013325
0.000133324
0.000133201
0.000133228
0.000133224
0.000133179
0.000133179
0.000133168
0.000133175
0.000133205
0.000133209
0.000133183
0.000133134
0.00013319
0.000133157
0.000133179
0.000133116
0.000133101
0.00010648
0.000106502
0.00010645
0.00010648
0.000106458
0.00010645
0.00010645
0.000106465
0.00010648
0.00010648
0.00010642
0.000106487
0.000106454
0.000106502
0.000106528
0.000106543
0.000106521
0.000106569
0.000106569
0.000106499
0.000106439
0.000106532
0.000106469
0.000106521
0.000106528
0.000106517
0.00010654
0.000106532
0.000106487
0.000106547
0.000106622
0.000106573
0.000106554
0.000106584
0.000106525
0.000106543
0.000106595
0.000106592
0.000106629
0.000106592
0.000106607
0.000106595
0.000106603
0.000106614
0.000106573
0.000106614
0.000106532
0.000106644
0.000106514
0.000106644
0.000106629
0.000106603
0.000106633
0.000106581
0.0001067
0.000106659
0.000106595
0.000106625
0.000106636
0.000106663
0.000106681
0.000106677
0.000106692
0.00010673
0.000106696
0.000106651
0.000106659
0.000106677
0.000106722
0.000106711
0.000106655
0.000106674
0.000106599
0.000106733
0.000106689
0.000106718
0.00010664
0.000106726
0.000106696
0.000106711
0.000106707
0.000106741
0.000106778
0.000106763
0.000106771
0.000106789
0.000106812
0.000106726
0.000106715
0.000106789
0.0001068
0.000106864
0.000106756
0.0001068
0.000106771
0.000106853
0.000106867
0.000106808
0.00010683
0.0001068
0.000106793
0.000168055
0.000168044
0.000168096
0.00016804
0.000168037
0.000168048
0.000168085
0.000168085
0.000168059
0.000168171
0.000168074
0.000168171
0.000168134
0.000168245
0.000168193
0.000168171
0.00016826
0.000168186
0.000168134
0.000168201
0.000168227
0.000168245
0.000168301
0.000168271
0.00016829
0.000168312
0.000168305
0.000168309
0.000168335
0.00016826
0.000168268
0.000168338
0.000168361
0.000168368
0.000168316
0.000168387
0.000168394
0.000168335
0.000168342
0.000168391
0.000168398
0.00016842
0.000168476
0.000168417
0.000168469
0.000168432
0.000168432
0.000168428
0.000168499
0.000168525
0.000168454
0.000168521
0.000168551
0.000168584
0.000168599
0.000168577
0.000168506
0.000168502
0.000168588
0.00016864
0.000168618
0.000168622
0.00016861
0.000168614
0.000168614
0.000168651
0.000168651
0.000168744
0.000168737
0.000168778
0.000168711
0.000168756
0.00016873
0.000168722
0.0001687
0.000168774
0.000168804
0.000168819
0.000168826
0.000168826
0.000168853
0.00016889
0.000168864
0.000168879
0.000168897
0.000168845
0.000168964
0.000168983
0.000168983
0.000168938
0.000168946
0.000168927
0.000168975
0.000168949
0.000169005
0.000169069
0.000169076
0.000169113
0.000169117
0.000169199
0.000169117
0.000359535
0.000359524
0.000359491
0.000359546
0.000359576
0.000359576
0.000359584
0.000359569
0.000359606
0.000359599
0.000359651
0.000359703
0.000359714
0.000359718
0.000359692
0.000359792
0.000359744
0.000359721
0.000359703
0.000359714
0.000359703
0.000359774
0.000359744
0.000359755
0.000359807
0.000359863
0.000359863
0.000359859
0.000359926
0.000359859
0.000359897
0.0003599
0.000359934
0.000359885
0.000359975
0.000359975
0.000360012
0.000359915
0.00035996
0.000359986
0.000359941
0.000359997
0.000360008
0.000360008
0.000360038
0.000359982
0.000359926
0.000360083
0.000360001
0.000360057
0.000360131
0.000360172
0.000360057
0.000360068
0.00036009
0.000360172
0.00036015
0.000360154
0.000360198
0.000360202
0.000360169
0.000360176
0.00036025
0.000360265
0.00036031
0.000360262
0.000360299
0.000360265
0.00036028
0.000360314
0.000360306
0.00036037
0.000360344
0.00036037
0.000360392
0.000360388
0.000360426
0.000360422
0.000360481
0.000360508
0.000360552
0.000360474
0.0003605
0.000360515
0.000360508
0.000360571
0.000360589
0.000360653
0.000360645
0.000360593
0.000360612
0.000360642
0.000360701
0.000360698
0.000360686
0.000360798
0.000360761
0.00036075
0.000360761
0.000360791
0.000360847
0.000551164
0.000551116
0.000551127
0.000551146
0.000551172
0.00055109
0.000551142
0.000551149
0.000551153
0.000551146
0.00055119
0.000551187
0.000551205
0.00055109
0.000551108
0.000551175
0.000551149
0.00055116
0.000551168
0.000551179
0.000551183
0.000551172
0.000551149
0.000551134
0.000551213
0.000551153
0.000551149
0.000551142
0.000551131
0.000551175
0.000551168
0.00055116
0.000551201
0.000551101
0.000551183
0.000551108
0.000551131
0.000551127
0.000551209
0.000551175
0.000551164
0.000551168
0.000551004
0.000551093
0.000551071
0.000551086
0.000551105
0.00055109
0.000551078
0.00055103
0.000551082
0.000551041
0.000551123
0.000551116
0.000551056
0.000551041
0.000551075
0.000551052
0.000551049
0.000551026
0.000551056
0.000550982
0.000551078
0.000551064
0.000551019
0.000551026
0.000551086
0.000551019
0.000550963
0.000550974
0.000550974
0.000550985
0.000550997
0.000550959
0.000551008
0.000550948
0.000550978
0.000551067
0.000551019
0.000550929
0.000550941
0.000550922
0.000550941
0.000550941
0.000551023
0.000551008
0.000550989
0.000550918
0.000550922
0.000550982
0.000550978
0.000550985
0.000550967
0.000550982
0.000550974
0.000550963
0.000550888
0.000550944
0.000550948
0.000550959
0.000550941
0.000747226
0.000747349
0.000747304
0.000747409
0.000747375
0.000747405
0.000747409
0.000747468
0.000747476
0.000747468
0.000747509
0.000747506
0.000747427
0.000747524
0.00074758
0.000747573
0.000747573
0.000747558
0.00074758
0.000747614
0.000747614
0.000747625
0.000747729
0.000747714
0.000747718
0.000747699
0.000747677
0.000747781
0.000747744
0.000747699
0.000747722
0.000747733
0.000747733
0.000747796
0.000747774
0.000747815
0.000747882
0.000747848
0.000747886
0.000747837
0.000747871
0.000747915
0.000747949
0.000747871
0.000747908
0.000747923
0.000747956
0.000747822
0.000747919
0.000747912
0.000748012
0.000747912
0.000747982
0.000748042
0.000747893
0.00074799
0.000747971
0.00074802
0.000748046
0.000748083
0.000748064
0.000748023
0.000748057
0.000748098
0.000748076
0.000748146
0.000748154
0.00074818
0.000748131
0.00074815
0.00074812
0.000748228
0.000748232
0.000748221
0.000748236
0.000748176
0.000748258
0.000748288
0.000748288
0.000748318
0.00074834
0.000748344
0.000748366
0.000748288
0.000748347
0.000748377
0.000748359
0.000748388
0.000748444
0.000748452
0.000748448
0.000748523
0.000748456
0.000748515
0.000748497
0.000748631
0.00074853
0.000748575
0.000748631
0.000748616
0.000748608
0.00110957
0.00110965
0.00110969
0.00110967
0.0011098
0.00110975
0.00110986
0.00110981
0.00110989
0.00110979
0.00110995
0.00110997
0.00111009
0.00111
0.0011101
0.0011101
0.00111016
0.00111017
0.00111014
0.00111032
0.00111023
0.0011103
0.00111032
0.00111037
0.00111042
0.00111049
0.00111045
0.00111046
0.00111057
0.00111052
0.00111054
0.00111062
0.00111062
0.00111073
0.00111065
0.00111067
0.00111075
0.00111069
0.0011108
0.00111077
0.00111084
0.00111083
0.00111085
0.00111083
0.00111091
0.00111089
0.00111098
0.00111093
0.00111101
0.00111102
0.001111
0.00111104
0.00111108
0.00111106
0.00111106
0.00111113
0.00111109
0.00111116
0.00111123
0.00111118
0.00111128
0.00111127
0.00111128
0.00111137
0.00111138
0.00111141
0.00111137
0.00111142
0.00111146
0.00111154
0.00111149
0.00111153
0.0011115
0.00111149
0.00111159
0.00111159
0.00111164
0.00111168
0.00111169
0.00111172
0.00111184
0.00111179
0.00111179
0.00111182
0.00111181
0.00111189
0.00111187
0.00111189
0.00111199
0.001112
0.00111207
0.00111208
0.00111217
0.00111213
0.00111208
0.00111216
0.00111222
0.00111229
0.00111234
0.00111236
0.00111239
0.00140933
0.00140933
0.00140926
0.00140925
0.00140926
0.00140932
0.0014093
0.00140933
0.00140925
0.00140933
0.00140934
0.00140937
0.00140924
0.00140928
0.00140921
0.00140926
0.0014092
0.00140921
0.00140921
0.00140925
0.0014092
0.0014092
0.00140912
0.00140925
0.00140916
0.00140912
0.00140918
0.00140915
0.00140913
0.00140911
0.0014092
0.00140909
0.00140901
0.00140904
0.00140906
0.00140905
0.00140898
0.00140896
0.00140895
0.001409
0.00140894
0.00140896
0.00140895
0.00140881
0.00140886
0.00140881
0.0014088
0.00140877
0.00140882
0.00140874
0.00140866
0.00140876
0.00140875
0.00140864
0.0014086
0.00140867
0.00140864
0.00140857
0.00140856
0.00140858
0.00140856
0.00140857
0.00140848
0.00140845
0.00140847
0.00140842
0.00140835
0.00140845
0.00140839
0.00140831
0.00140828
0.00140831
0.00140822
0.0014082
0.00140816
0.00140816
0.00140812
0.00140808
0.00140811
0.00140806
0.001408
0.00140803
0.00140804
0.00140793
0.00140791
0.0014079
0.00140784
0.00140788
0.00140785
0.00140782
0.00140786
0.00140777
0.00140778
0.00140772
0.00140768
0.00140776
0.00140772
0.00140762
0.00140762
0.00140758
0.00140759
0.00108217
0.00108196
0.00108198
0.0010818
0.0010816
0.00108149
0.0010814
0.00108138
0.00108122
0.00108116
0.00108097
0.00108088
0.00108081
0.00108071
0.00108063
0.00108053
0.0010804
0.00108025
0.00108018
0.00108002
0.00107994
0.0010798
0.0010798
0.00107955
0.00107947
0.00107932
0.00107927
0.00107923
0.00107909
0.00107902
0.00107884
0.00107877
0.00107857
0.00107846
0.00107836
0.00107829
0.00107808
0.00107802
0.00107801
0.00107783
0.00107772
0.00107758
0.0010775
0.00107738
0.00107727
0.00107722
0.00107707
0.00107694
0.00107687
0.00107674
0.00107662
0.00107647
0.00107639
0.00107625
0.00107609
0.00107599
0.00107587
0.00107579
0.00107574
0.0010756
0.00107544
0.00107533
0.00107523
0.00107513
0.00107501
0.00107487
0.00107474
0.00107466
0.00107455
0.00107436
0.00107422
0.00107416
0.00107394
0.00107392
0.00107366
0.00107359
0.00107342
0.0010733
0.00107329
0.00107313
0.001073
0.00107291
0.00107271
0.00107259
0.00107248
0.00107232
0.00107217
0.00107203
0.00107184
0.00107176
0.00107174
0.00107155
0.00107131
0.00107125
0.00107108
0.00107098
0.00107088
0.00107063
0.00107045
0.00107044
0.00107023
-0.000130963
-0.000131212
-0.000131499
-0.000131618
-0.000131804
-0.000131961
-0.000132252
-0.00013246
-0.000132624
-0.000132833
-0.000133116
-0.000133224
-0.000133429
-0.00013366
-0.000133805
-0.000134073
-0.000134178
-0.000134356
-0.00013449
-0.000134703
-0.000134926
-0.000135154
-0.000135239
-0.000135433
-0.000135593
-0.000135753
-0.000135954
-0.000136074
-0.000136282
-0.000136431
-0.000136565
-0.000136692
-0.000136841
-0.000137117
-0.000137258
-0.000137392
-0.000137605
-0.000137635
-0.000137862
-0.000138026
-0.000138164
-0.000138275
-0.000138436
-0.00013864
-0.00013886
-0.000138965
-0.000139099
-0.000139229
-0.000139337
-0.000139516
-0.000139676
-0.000139803
-0.000139903
-0.000140104
-0.000140276
-0.000140406
-0.000140607
-0.000140745
-0.000140894
-0.000141084
-0.000141311
-0.000141334
-0.000141561
-0.000141647
-0.000141777
-0.00014196
-0.000142124
-0.00014228
-0.000142325
-0.000142563
-0.00014266
-0.000142917
-0.00014298
-0.000143163
-0.000143301
-0.000143424
-0.000143614
-0.000143792
-0.000144016
-0.000143994
-0.000144191
-0.00014447
-0.000144489
-0.000144739
-0.000144925
-0.000145111
-0.000145212
-0.000145447
-0.000145603
-0.000145752
-0.000145923
-0.000146098
-0.000146255
-0.000146367
-0.000146557
-0.000146691
-0.000146944
-0.000147041
-0.000147246
-0.000147499
-0.000147637
-0.00101453
-0.00101459
-0.00101473
-0.00101479
-0.0010149
-0.00101489
-0.00101489
-0.00101505
-0.00101505
-0.00101509
-0.00101514
-0.00101519
-0.00101515
-0.00101529
-0.0010153
-0.00101531
-0.00101529
-0.00101539
-0.00101544
-0.00101548
-0.00101552
-0.00101552
-0.00101551
-0.00101553
-0.0010155
-0.00101551
-0.00101559
-0.0010155
-0.00101552
-0.00101554
-0.00101544
-0.00101546
-0.00101548
-0.00101538
-0.00101537
-0.00101535
-0.00101538
-0.00101537
-0.00101541
-0.00101532
-0.00101528
-0.00101536
-0.00101529
-0.00101518
-0.00101516
-0.00101509
-0.00101515
-0.0010151
-0.00101503
-0.00101497
-0.0010149
-0.00101483
-0.00101484
-0.00101486
-0.00101477
-0.00101478
-0.00101471
-0.00101468
-0.00101461
-0.00101447
-0.00101443
-0.00101442
-0.00101436
-0.00101432
-0.00101425
-0.00101417
-0.00101424
-0.00101418
-0.00101408
-0.00101397
-0.00101393
-0.00101386
-0.00101382
-0.0010138
-0.00101372
-0.00101363
-0.0010136
-0.00101351
-0.00101349
-0.00101343
-0.00101335
-0.00101331
-0.00101322
-0.00101312
-0.00101297
-0.00101302
-0.00101291
-0.00101282
-0.00101276
-0.00101276
-0.00101273
-0.00101258
-0.00101251
-0.00101254
-0.00101243
-0.00101235
-0.00101226
-0.0010122
-0.00101215
-0.00101211
-0.00101194
-0.000562057
-0.000562049
-0.000561852
-0.000561818
-0.000561733
-0.000561681
-0.000561539
-0.000561524
-0.000561383
-0.000561263
-0.000561185
-0.000561059
-0.000561059
-0.000560813
-0.000560835
-0.000560731
-0.000560585
-0.000560526
-0.000560325
-0.000560265
-0.000560168
-0.00056003
-0.000560019
-0.000559803
-0.000559676
-0.000559583
-0.000559423
-0.000559386
-0.000559237
-0.000559133
-0.000559028
-0.000558861
-0.000558775
-0.000558611
-0.000558529
-0.000558306
-0.000558201
-0.000558022
-0.000558
-0.000557739
-0.000557654
-0.000557508
-0.000557419
-0.000557218
-0.000557102
-0.000556927
-0.000556823
-0.000556681
-0.00055654
-0.000556398
-0.000556294
-0.00055616
-0.000556018
-0.000555865
-0.000555694
-0.000555601
-0.000555389
-0.000555199
-0.000555027
-0.000554908
-0.000554804
-0.000554595
-0.000554502
-0.000554305
-0.000554159
-0.000553962
-0.000553884
-0.000553757
-0.000553515
-0.000553403
-0.000553213
-0.000553112
-0.000552949
-0.000552669
-0.00055261
-0.000552468
-0.000552285
-0.000552144
-0.000551969
-0.000551719
-0.000551589
-0.000551444
-0.000551298
-0.000551064
-0.000550985
-0.000550818
-0.000550602
-0.000550393
-0.00055027
-0.000550035
-0.000549961
-0.000549782
-0.000549573
-0.000549421
-0.000549141
-0.000549067
-0.000548873
-0.000548631
-0.000548553
-0.000548355
-0.000548176
0.000273824
0.000273969
0.000273984
0.0002742
0.000274293
0.00027442
0.000274625
0.000274707
0.000274792
0.000274979
0.000275049
0.000275131
0.00027531
0.000275377
0.000275474
0.000275586
0.000275705
0.000275735
0.000275921
0.000276111
0.000276122
0.000276253
0.000276435
0.000276513
0.000276554
0.000276674
0.000276808
0.000276808
0.00027699
0.000277054
0.000277121
0.000277292
0.000277277
0.000277448
0.000277597
0.00027762
0.000277683
0.000277903
0.000277948
0.000277996
0.000278119
0.000278119
0.00027829
0.000278383
0.000278473
0.000278659
0.00027867
0.000278734
0.000278872
0.000278976
0.000279028
0.000279047
0.000279188
0.000279363
0.000279352
0.000279423
0.000279531
0.000279732
0.000279777
0.000279788
0.0002799
0.000280026
0.000280067
0.00028016
0.000280302
0.000280287
0.000280458
0.000280507
0.000280641
0.000280675
0.000280749
0.000280816
0.000280939
0.000280995
0.00028111
0.000281155
0.000281338
0.000281349
0.00028142
0.000281531
0.000281584
0.000281725
0.0002818
0.000281807
0.000282023
0.00028206
0.000282086
0.000282217
0.000282381
0.000282418
0.000282478
0.000282556
0.000282731
0.000282709
0.000282865
0.000282954
0.000283007
0.000283103
0.000283152
0.000283368
0.000283215
0.000567004
0.00056709
0.000567231
0.000567343
0.000567473
0.000567503
0.000567574
0.000567734
0.000567749
0.000567917
0.000567958
0.000568144
0.000568192
0.000568252
0.000568356
0.000568397
0.000568483
0.000568643
0.000568513
0.000568666
0.000568714
0.00056871
0.000568967
0.000568904
0.000568934
0.000568945
0.000568993
0.00056909
0.000569135
0.000569135
0.00056918
0.00056928
0.000569228
0.000569269
0.000569347
0.000569366
0.000569355
0.000569526
0.000569444
0.000569426
0.000569429
0.000569418
0.000569459
0.000569519
0.000569526
0.00056956
0.00056956
0.000569586
0.000569504
0.00056956
0.000569563
0.000569556
0.000569608
0.00056956
0.000569645
0.000569634
0.000569623
0.000569563
0.000569496
0.000569489
0.000569548
0.000569619
0.000569563
0.000569526
0.000569444
0.000569556
0.000569481
0.000569426
0.00056947
0.000569407
0.000569478
0.000569463
0.000569414
0.000569399
0.000569347
0.000569385
0.00056931
0.000569332
0.000569358
0.000569254
0.000569277
0.000569273
0.000569284
0.000569228
0.000569191
0.000569198
0.00056928
0.000569228
0.000569172
0.000569109
0.000569128
0.000568997
0.00056906
0.000569005
0.00056899
0.000568938
0.000568952
0.000568952
0.000568945
0.00056887
0.000568859
0.000403412
0.000403613
0.000403762
0.000403985
0.000404131
0.000404257
0.000404373
0.00040457
0.000404768
0.000404838
0.000404961
0.000405159
0.000405256
0.000405382
0.000405442
0.00040555
0.000405703
0.00040577
0.00040596
0.000406038
0.000406135
0.000406202
0.000406303
0.000406478
0.000406608
0.000406541
0.000406649
0.000406731
0.000406798
0.000406828
0.000406887
0.000407059
0.000407044
0.000407096
0.000407252
0.000407185
0.000407223
0.000407334
0.000407379
0.00040739
0.000407435
0.000407521
0.000407528
0.000407536
0.00040764
0.000407588
0.000407647
0.000407703
0.000407755
0.000407688
0.000407796
0.000407722
0.000407714
0.000407849
0.000407849
0.000407904
0.000407819
0.000407826
0.000407901
0.000408005
0.000407975
0.000407871
0.000407904
0.000407971
0.00040796
0.000408042
0.000407938
0.000407852
0.000407908
0.000408009
0.00040793
0.000407949
0.000407867
0.000407815
0.000407919
0.000407856
0.000407904
0.000407822
0.000407841
0.000407781
0.000407878
0.000407826
0.000407767
0.000407737
0.000407744
0.000407681
0.000407849
0.000407662
0.000407759
0.000407692
0.000407599
0.000407584
0.000407569
0.000407625
0.000407558
0.000407517
0.000407573
0.000407521
0.000407547
0.000407442
0.000407401
0.000407387
0.000407621
0.000407834
0.000408277
0.000408482
0.000408683
0.00040894
0.00040929
0.000409469
0.000409741
0.000410046
0.000410259
0.000410598
0.000410687
0.000410944
0.000411194
0.000411436
0.000411626
0.000411756
0.00041208
0.000412229
0.000412457
0.000412609
0.000412788
0.000412967
0.000413131
0.000413325
0.000413522
0.000413738
0.000413861
0.000414018
0.000414219
0.000414357
0.000414569
0.000414666
0.000414815
0.000415031
0.000415139
0.000415239
0.000415359
0.000415485
0.000415657
0.000415843
0.000415917
0.000416014
0.000416156
0.00041623
0.000416379
0.000416514
0.000416677
0.000416711
0.000416815
0.000416819
0.000416998
0.000417151
0.000417244
0.000417348
0.000417463
0.000417557
0.000417549
0.000417802
0.00041784
0.000417907
0.000417992
0.000418063
0.000418223
0.00041819
0.00041829
0.00041841
0.000418488
0.000418562
0.000418622
0.000418723
0.0004187
0.000418853
0.000418931
0.000419021
0.000419058
0.000419144
0.000419233
0.000419196
0.000419252
0.000419363
0.000419389
0.000419486
0.000419538
0.000419721
0.000419661
0.000419762
0.000419784
0.000419866
0.000419848
0.000419904
0.000420045
0.00042012
0.000420157
0.00042025
0.000420373
0.000420403
0.000420358
0.000420392
0.000645805
0.000646096
0.00064642
0.000646695
0.000647005
0.000647198
0.000647426
0.00064778
0.000648066
0.000648368
0.000648629
0.000648793
0.000649046
0.000649411
0.000649564
0.000649828
0.000650119
0.000650279
0.000650492
0.000650708
0.000651088
0.000651199
0.000651367
0.000651576
0.000651851
0.000652019
0.000652324
0.000652377
0.00065266
0.000652838
0.000652954
0.000653293
0.000653345
0.00065355
0.000653729
0.000653882
0.000654038
0.000654187
0.00065431
0.000654574
0.000654656
0.00065488
0.00065504
0.000655163
0.000655208
0.000655416
0.000655625
0.000655781
0.000655774
0.00065605
0.000656135
0.000656277
0.000656333
0.000656534
0.000656608
0.000656735
0.000656907
0.000657018
0.000657003
0.000657182
0.000657249
0.000657436
0.000657551
0.000657711
0.000657767
0.000657901
0.000658032
0.000658173
0.000658169
0.000658322
0.000658419
0.00065849
0.000658553
0.000658702
0.000658762
0.000658832
0.000658955
0.000659153
0.000659171
0.000659395
0.000659384
0.000659477
0.000659589
0.000659656
0.000659849
0.000659857
0.000659924
0.000660036
0.000660021
0.000660177
0.000660241
0.000660349
0.00066039
0.000660535
0.000660561
0.000660669
0.000660714
0.000660878
0.000660967
0.000660945
0.00066103
0.000663947
0.00066404
0.000664171
0.000664245
0.000664424
0.000664596
0.000664745
0.000664923
0.000664916
0.000665035
0.000665132
0.0006653
0.000665348
0.000665475
0.000665553
0.000665817
0.000665784
0.000665888
0.000665948
0.000666052
0.000666235
0.000666201
0.000666272
0.000666354
0.000666507
0.000666637
0.000666667
0.000666726
0.000666838
0.000666849
0.000666898
0.000667151
0.000667058
0.000667255
0.000667378
0.000667367
0.000667471
0.000667464
0.000667524
0.000667576
0.000667606
0.00066768
0.000667665
0.000667874
0.000667844
0.000667926
0.000667971
0.00066809
0.000668075
0.000668194
0.000668209
0.000668157
0.000668224
0.00066825
0.000668429
0.00066838
0.000668351
0.000668492
0.000668451
0.000668462
0.000668537
0.000668596
0.000668574
0.000668641
0.000668671
0.000668768
0.000668805
0.000668798
0.000668857
0.000668962
0.000668865
0.000668894
0.000669029
0.000668984
0.000668939
0.000668939
0.000669029
0.000669103
0.000669029
0.0006692
0.000669096
0.000669222
0.000669222
0.00066923
0.00066923
0.000669263
0.000669379
0.000669304
0.000669319
0.00066936
0.00066942
0.000669394
0.000669416
0.000669379
0.000669483
0.000669539
0.000669491
0.000669479
0.000669479
0.000669587
0.000669558
0.000265136
0.000265062
0.000264935
0.000264838
0.00026463
0.000264566
0.000264548
0.000264354
0.000264227
0.000264209
0.000264075
0.000264
0.000263825
0.000263762
0.00026362
0.000263456
0.000263367
0.000263274
0.000263203
0.000263143
0.000262972
0.00026289
0.000262778
0.000262741
0.000262622
0.00026251
0.000262424
0.000262298
0.000262305
0.000262108
0.000262011
0.000261921
0.000261892
0.000261739
0.000261687
0.000261627
0.000261515
0.000261378
0.000261281
0.000261262
0.000261061
0.000261065
0.00026096
0.000260856
0.000260759
0.000260685
0.000260625
0.000260513
0.000260521
0.000260282
0.00026026
0.000260245
0.000260111
0.000260029
0.000259925
0.000259843
0.000259776
0.000259679
0.000259545
0.0002595
0.000259425
0.000259295
0.00025928
0.000259157
0.00025912
0.000259057
0.00025899
0.000258904
0.000258707
0.00025874
0.000258632
0.00025852
0.000258461
0.000258408
0.000258304
0.000258289
0.000258144
0.00025798
0.00025795
0.000257976
0.000257879
0.000257704
0.000257637
0.000257615
0.000257533
0.000257544
0.000257406
0.000257358
0.00025722
0.000257153
0.000257108
0.000256997
0.000256937
0.000256885
0.000256814
0.000256751
0.00025671
0.000256617
0.00025652
0.000256415
0.000256486
-0.000290807
-0.000291094
-0.000291441
-0.000291649
-0.00029204
-0.000292297
-0.000292636
-0.000292789
-0.000293132
-0.000293393
-0.000293691
-0.000293959
-0.000294175
-0.000294447
-0.000294741
-0.000295017
-0.000295166
-0.000295456
-0.000295691
-0.000295956
-0.000296231
-0.000296433
-0.000296701
-0.000296988
-0.000297125
-0.000297371
-0.000297617
-0.000297893
-0.000297997
-0.000298258
-0.000298481
-0.000298735
-0.000298854
-0.000299107
-0.000299286
-0.000299495
-0.000299674
-0.000299901
-0.000300255
-0.000300404
-0.000300534
-0.000300732
-0.000300948
-0.000301134
-0.000301328
-0.000301473
-0.000301667
-0.000301857
-0.00030205
-0.000302248
-0.000302356
-0.000302572
-0.00030278
-0.000302918
-0.000303138
-0.000303254
-0.000303462
-0.000303589
-0.000303756
-0.000304025
-0.000304122
-0.000304241
-0.000304457
-0.000304665
-0.000304796
-0.000304904
-0.000305019
-0.000305239
-0.000305358
-0.000305515
-0.000305746
-0.000305846
-0.000305954
-0.000306182
-0.000306293
-0.000306454
-0.000306625
-0.000306766
-0.000306863
-0.000307072
-0.000307165
-0.000307322
-0.000307437
-0.000307545
-0.000307716
-0.000307884
-0.000308055
-0.000308134
-0.000308339
-0.000308428
-0.00030861
-0.000308689
-0.000308808
-0.000308979
-0.000309084
-0.000309236
-0.00030937
-0.000309486
-0.000309695
-0.000309791
-0.000309888
-0.000644382
-0.000644721
-0.000644997
-0.000645343
-0.000645731
-0.000645984
-0.000646457
-0.000646647
-0.00064702
-0.00064737
-0.000647645
-0.000647996
-0.000648346
-0.000648547
-0.000648897
-0.000649307
-0.000649568
-0.000649739
-0.00065003
-0.00065032
-0.000650685
-0.000650909
-0.000651229
-0.00065149
-0.000651691
-0.000652093
-0.00065241
-0.000652526
-0.000652675
-0.000653047
-0.000653371
-0.000653524
-0.000653856
-0.000654079
-0.000654209
-0.000654493
-0.000654694
-0.000654958
-0.000655226
-0.000655491
-0.00065564
-0.000655767
-0.000656005
-0.000656281
-0.000656504
-0.000656735
-0.000656959
-0.000657212
-0.000657398
-0.000657476
-0.000657659
-0.000658039
-0.000658203
-0.000658374
-0.000658605
-0.000658695
-0.000658941
-0.000659108
-0.000659276
-0.000659592
-0.000659693
-0.000659849
-0.000660088
-0.000660229
-0.000660423
-0.000660628
-0.000660699
-0.000660881
-0.000661109
-0.000661284
-0.000661429
-0.00066166
-0.000661869
-0.000661969
-0.000662122
-0.000662263
-0.000662487
-0.000662543
-0.00066286
-0.000662867
-0.000663035
-0.000663243
-0.000663381
-0.000663508
-0.000663679
-0.000663817
-0.000664052
-0.000664238
-0.000664283
-0.000664521
-0.000664677
-0.000664711
-0.000664953
-0.00066502
-0.000665117
-0.000665311
-0.000665434
-0.000665728
-0.00066584
-0.000665884
-0.000666089
-0.000628691
-0.000629086
-0.000629332
-0.00062966
-0.000629995
-0.000630252
-0.00063052
-0.000630699
-0.000631139
-0.000631411
-0.000631761
-0.000631902
-0.000632051
-0.00063239
-0.000632595
-0.000632893
-0.000633266
-0.000633374
-0.000633694
-0.000633813
-0.000634115
-0.000634324
-0.000634521
-0.000634868
-0.000635099
-0.000635121
-0.000635628
-0.000635657
-0.000636034
-0.00063616
-0.000636365
-0.000636563
-0.000636701
-0.000637002
-0.00063714
-0.000637386
-0.000637587
-0.000637811
-0.000637848
-0.000638198
-0.000638288
-0.000638533
-0.000638824
-0.000638749
-0.000638992
-0.000639182
-0.000639323
-0.000639617
-0.000639755
-0.000639934
-0.000640143
-0.000640262
-0.000640355
-0.000640582
-0.000640713