/*--------------------------------*- C++ -*----------------------------------*\
| =========                 |                                                 |
| \\      /  F ield         | OpenFOAM: The Open Source CFD Toolbox           |
|  \\    /   O peration     | Version:  v2006                                 |
|   \\  /    A nd           | Website:  www.openfoam.com                      |
|    \\/     M anipulation  |                                                 |
\*---------------------------------------------------------------------------*/
FoamFile
{
    version     2.0;
    format      ascii;
    class       volScalarField;
    location    "0";
    object      f;
}
// * * * * * * * * * * * * * * * * * * * * * * * * * * * * * * * * * * * * * //

dimensions      [0 0 0 0 0 0 0];


internalField   nonuniform List<scalar> 
2500
(
-4.33733e-30
7.12825e-25
3.76328e-23
-3.81001e-19
6.70193e-18
1.06374e-17
-5.56062e-16
2.70846e-14
-1.03105e-12
3.16506e-11
-8.61028e-10
1.47948e-08
-1.51589e-07
7.0329e-07
7.47818e-07
-6.54006e-05
0.000542936
-0.00020029
-0.0117525
0.00832306
0.126585
0.172943
-0.00912108
-0.266168
-0.386581
-0.290998
-0.113674
-0.00820326
0.00210184
0.00344331
0.00117213
0.000162423
-4.78215e-05
2.22767e-07
4.49856e-06
1.11565e-06
-1.19911e-07
-6.83454e-08
-1.07152e-08
-1.12742e-09
-3.24938e-10
-1.93909e-11
9.10172e-12
4.39529e-12
4.46779e-13
2.30463e-14
1.09612e-15
-2.57766e-16
-4.69494e-16
-4.80975e-17
-4.36665e-28
1.90021e-23
4.85068e-21
-3.81363e-18
2.38915e-17
4.47538e-17
-1.30369e-15
4.45694e-14
-1.56844e-12
7.69816e-11
-2.99333e-09
7.22069e-08
-1.00503e-06
7.46657e-06
-1.72435e-05
-6.10727e-05
0.00118958
-0.00261477
-0.0102224
0.0229072
0.0165949
-0.195136
-0.510997
-0.674108
-0.588073
-0.334596
-0.104852
-0.00255355
0.00389001
0.00218066
0.000259415
-0.000129618
-3.42186e-05
7.91436e-06
4.40731e-06
4.77283e-07
3.17297e-08
1.29476e-08
2.50444e-09
-6.06437e-10
-2.70046e-10
-1.00001e-11
5.27964e-12
1.10694e-12
1.55767e-14
-1.75223e-14
-9.98205e-16
-3.51266e-16
-2.10679e-16
-2.54953e-17
-3.38209e-26
3.79498e-22
1.17827e-19
-2.94398e-17
2.11977e-17
-3.38454e-17
5.03328e-14
-2.32304e-12
3.49348e-11
-5.72862e-11
-2.19915e-09
1.17174e-07
-2.13189e-06
2.0873e-05
-9.70667e-05
3.50483e-05
0.00164041
-0.00596405
-0.00685694
0.0269353
-0.0549492
-0.363893
-0.75631
-0.896007
-0.729823
-0.397226
-0.112299
-0.000599252
0.00564949
0.00253694
0.000307511
-0.000180772
-3.44181e-05
9.21436e-06
5.25291e-06
6.69392e-07
-4.90132e-09
-7.0233e-09
-5.77514e-10
-5.99583e-10
-2.46784e-10
-5.84269e-12
7.31684e-12
1.75708e-12
1.3513e-14
-1.73428e-14
-1.51967e-15
-5.31205e-16
-2.66052e-16
-2.94261e-17
-2.45647e-24
7.02004e-21
1.97022e-18
-2.34776e-16
6.0873e-15
-1.92734e-13
4.52337e-12
-7.89527e-11
1.02651e-09
-9.16426e-09
3.34832e-08
2.57722e-08
-1.91874e-06
3.2326e-05
-0.000227524
0.000423713
0.00144475
-0.00817815
0.00456834
0.0135534
-0.207635
-0.698829
-1.13601
-1.17318
-0.86098
-0.416604
-0.0913994
0.0040856
0.00775021
0.00202808
-0.00025846
-0.000349755
-2.01681e-05
1.40615e-05
5.69471e-06
4.87541e-07
4.27884e-08
2.31065e-08
4.51605e-09
-4.81982e-10
-2.81318e-10
-8.08269e-12
6.26462e-12
6.47799e-13
-2.12182e-13
-3.56911e-14
-2.50128e-15
-6.71097e-16
-2.75141e-16
-2.86148e-17
-1.6696e-22
1.17491e-19
2.4931e-17
-1.71171e-15
4.79392e-14
-1.02677e-12
1.76109e-11
-2.59398e-10
3.34512e-09
-3.88309e-08
3.39819e-07
-1.61944e-06
2.52241e-06
2.02192e-05
-0.000331723
0.00124831
-5.03367e-05
-0.00526448
0.0232647
-0.0268494
-0.39552
-0.987343
-1.34392
-1.25603
-0.827444
-0.332227
-0.0377818
0.00928303
0.00812633
0.000556567
-0.000927611
-0.000443395
3.70311e-06
1.64602e-05
4.74522e-06
2.18738e-07
5.48887e-08
3.85998e-08
6.36547e-09
-2.32205e-10
-2.37435e-10
-9.61824e-12
4.20272e-12
-5.31806e-13
-3.76678e-13
-4.72074e-14
-3.14162e-15
-7.07725e-16
-2.35165e-16
-1.97968e-17
-1.05624e-20
1.74142e-18
1.51322e-16
-5.1619e-15
8.9885e-14
-1.23769e-12
1.57294e-11
-2.13439e-10
3.65892e-09
-6.79646e-08
8.97138e-07
-7.66946e-06
3.28005e-05
-3.91158e-05
-0.000271473
0.00168783
-0.00288963
0.00544098
0.0445492
-0.0887351
-0.582635
-1.18725
-1.40854
-1.17739
-0.635217
-0.16513
0.0254064
0.0151929
0.00607669
-0.0014805
-0.00171481
-0.000455118
2.54608e-05
1.68997e-05
2.97038e-06
-1.37425e-07
8.74104e-08
6.26683e-08
8.54559e-09
-1.25499e-10
-2.57917e-10
-1.67522e-11
1.70089e-12
-1.6101e-12
-4.66168e-13
-5.13663e-14
-3.31157e-15
-5.68809e-16
-1.25102e-16
6.06041e-19
-6.19143e-19
2.44526e-17
2.9984e-16
-2.54082e-15
-2.95145e-13
1.19148e-11
-2.08522e-10
1.94453e-09
-7.19561e-09
-2.69297e-08
1.2262e-06
-1.48148e-05
9.02887e-05
-0.000217136
9.19276e-05
0.000802389
-0.00582138
0.0243983
0.0608515
-0.158004
-0.703128
-1.20477
-1.21293
-0.81541
-0.26237
0.0657342
0.0806019
0.019409
0.00128545
-0.00403628
-0.00231214
-0.0003392
3.88359e-05
1.35278e-05
1.71961e-07
-4.54591e-07
1.20113e-07
8.08276e-08
8.26176e-09
-3.04769e-10
-2.2822e-10
-1.28663e-11
6.73309e-13
-2.02562e-12
-4.13411e-13
-4.12882e-14
-2.87006e-15
-1.82528e-16
6.82112e-17
3.51664e-17
-3.59193e-17
1.74106e-15
-5.9055e-14
1.43359e-12
-2.60178e-11
3.66387e-10
-4.05014e-09
3.43677e-08
-2.0659e-07
6.55216e-07
1.94925e-07
-1.47484e-05
0.000117811
-0.000428561
0.000724753
-0.00195919
-0.00636306
0.0483134
0.0655479
-0.207545
-0.68533
-0.974159
-0.71805
-0.209697
0.221038
0.300748
0.111584
0.016889
-0.00554917
-0.00666426
-0.00247709
-0.000137246
4.39656e-05
6.31369e-06
-3.12056e-06
-5.48601e-07
1.68731e-07
8.86302e-08
6.79182e-09
-7.85038e-10
-1.72354e-10
1.17979e-11
2.55459e-12
-1.58004e-12
-2.33601e-13
-1.91782e-14
-1.48025e-15
5.28877e-16
3.43964e-16
8.41259e-17
-1.16634e-15
2.12152e-14
-4.28903e-13
7.06298e-12
-9.69281e-11
1.12054e-09
-1.08753e-08
9.05327e-08
-5.96215e-07
3.00717e-06
-8.88188e-06
4.22599e-06
4.61192e-05
-0.000252028
0.00124217
-0.00653875
-0.00286639
0.0692379
0.0572357
-0.198752
-0.481902
-0.429858
0.0511668
0.562405
0.726045
0.4757
0.116446
0.00624526
-0.0129639
-0.00837472
-0.00203116
6.25868e-05
3.98308e-05
-3.91212e-06
-6.06287e-06
-3.83298e-07
2.36832e-07
8.15134e-08
3.67378e-09
-1.07111e-09
-4.81769e-11
5.1751e-11
6.68354e-12
-8.971e-13
-1.49568e-14
5.41895e-15
2.06787e-15
1.65667e-15
6.77475e-16
1.44144e-16
-6.44097e-15
5.78409e-14
-7.88488e-13
9.54228e-12
-1.03974e-10
1.02158e-09
-9.68633e-09
9.74721e-08
-7.59777e-07
5.19482e-06
-2.33176e-05
5.32348e-05
-0.000148995
0.000504136
0.00117061
-0.0115081
0.00663053
0.0764504
0.0432752
-0.0929643
-0.0680851
0.398967
1.00067
1.35728
1.13817
0.54231
0.0947698
-0.00993631
-0.0187762
-0.00822213
-0.00103689
0.000203758
2.06948e-05
-1.694e-05
-7.58706e-06
-5.6958e-08
2.9376e-07
6.01394e-08
-1.66296e-09
-8.70915e-10
2.05668e-10
8.68653e-11
8.56229e-12
-7.35582e-13
1.44192e-13
2.79583e-14
9.87157e-15
3.18139e-15
1.00941e-15
2.07727e-16
-1.01416e-14
-7.29556e-15
2.21205e-12
-4.88825e-11
5.76539e-10
-4.32254e-09
1.85853e-08
-3.15071e-08
-1.01489e-07
4.42745e-06
-2.30488e-05
9.79788e-05
-0.000372006
0.00176389
-0.000986672
-0.0147476
0.014206
0.0605775
0.0415182
0.12705
0.544385
1.38011
1.9789
2.00995
1.35421
0.498006
0.0523935
-0.0269471
-0.0209392
-0.00595812
0.000121616
0.000278686
-1.1498e-05
-3.03863e-05
-7.13946e-06
2.67299e-07
2.86446e-07
2.72731e-08
-6.49386e-09
-1.70338e-10
5.24808e-10
9.85718e-11
-1.04757e-14
-1.54065e-12
1.90306e-13
5.94503e-14
2.32531e-14
4.74209e-15
1.25617e-15
2.64224e-16
5.31195e-13
-5.38093e-12
7.07852e-11
-7.3825e-10
6.33084e-09
-4.42095e-08
2.47639e-07
-9.67872e-07
1.41994e-06
-2.31825e-06
1.1591e-05
-4.10499e-05
-0.000442675
0.00293776
-0.00390856
-0.0140931
0.0126513
0.0225507
0.0804258
0.451091
1.28508
2.34061
2.78182
2.36691
1.31815
0.370542
0.00204763
-0.0378777
-0.0178208
-0.00215045
0.00108937
0.00024275
-5.12384e-05
-3.78487e-05
-4.90454e-06
5.77737e-07
1.93809e-07
-1.59909e-08
-7.58722e-09
1.11788e-09
7.16074e-10
6.42258e-11
-1.83696e-11
-2.92507e-12
2.28699e-13
1.1268e-13
3.89303e-14
5.63015e-15
1.35538e-15
3.03719e-16
4.14505e-12
-2.01273e-11
2.01412e-10
-1.72002e-09
1.29264e-08
-7.86826e-08
4.3782e-07
-1.66036e-06
4.57964e-06
-9.53062e-06
8.38259e-05
-0.000347658
4.5314e-05
0.00335027
-0.00549188
-0.00981562
-0.0038186
-0.024929
0.162113
0.843968
2.04093
3.07641
3.19982
2.33139
1.05365
0.199905
-0.0403255
-0.0381719
-0.00966607
0.0019681
0.00162303
0.000103914
-9.0539e-05
-3.53377e-05
-1.98496e-06
7.33097e-07
4.39347e-08
-5.27712e-08
-4.40671e-09
2.79914e-09
6.66362e-10
-4.57385e-11
-3.62703e-11
-3.85117e-12
4.40561e-13
1.82712e-13
4.77567e-14
5.05304e-15
1.30167e-15
3.22512e-16
9.76006e-12
-2.11808e-11
1.70681e-10
-1.24592e-09
7.63483e-09
-3.80798e-08
3.02707e-07
-1.58652e-07
-3.07226e-06
-1.02723e-05
0.000151134
-0.000755355
0.00100694
0.00266135
-0.00432162
-0.00523814
-0.038257
-0.065294
0.276626
1.24086
2.63512
3.39461
3.09754
1.90309
0.647482
0.0324376
-0.0627945
-0.0274311
0.000915127
0.00516819
0.00155767
-6.04143e-05
-0.000110939
-2.40507e-05
1.00767e-06
5.35407e-07
-1.48514e-07
-6.36698e-08
1.56437e-09
3.76305e-09
3.32103e-10
-1.77661e-10
-4.43659e-11
-2.0164e-12
7.12818e-13
2.28443e-13
3.98782e-14
2.70871e-15
1.1131e-15
3.25676e-16
-3.24672e-12
1.98537e-10
-2.17416e-09
1.4143e-08
-5.51789e-08
1.15996e-07
-2.19561e-07
3.4149e-06
-2.07433e-05
4.49011e-05
0.000165888
-0.000976471
0.00140874
0.00137321
0.00122013
-0.00478201
-0.0855042
-0.0879978
0.396673
1.53769
2.84216
3.17391
2.47373
1.1861
0.206548
-0.0908325
-0.0606937
-0.00835156
0.0106585
0.00656556
0.00101856
-0.000177814
-9.45285e-05
-7.62232e-06
2.79992e-06
4.54328e-08
-3.2481e-07
-4.76728e-08
8.93848e-09
3.22321e-09
-3.27291e-10
-2.50005e-10
-3.35439e-11
2.17662e-12
9.31921e-13
1.70405e-13
9.62589e-15
-2.4093e-16
8.63522e-16
3.25096e-16
-5.67356e-10
1.80006e-09
-1.01667e-08
3.81748e-08
-9.31889e-08
1.89968e-07
-1.15169e-06
6.2635e-06
-3.8749e-05
0.000118777
-2.11954e-05
-0.000811279
0.000923236
0.00108523
0.0108376
-0.0189851
-0.133289
-0.0947366
0.469796
1.597
2.50924
2.38939
1.44977
0.355437
-0.167652
-0.146917
-0.0379724
0.0129656
0.0169513
0.00599088
0.000337919
-0.000216305
-4.84961e-05
8.25981e-06
2.48491e-06
-6.32314e-07
-3.74963e-07
-1.56045e-08
1.34594e-08
1.24941e-09
-9.42909e-10
-2.28159e-10
1.41419e-12
5.51378e-12
9.12079e-13
-7.97686e-15
-2.77499e-14
-2.52113e-15
7.69978e-16
3.35875e-16
-2.61224e-09
2.66887e-09
-9.24564e-09
-8.62001e-10
1.76438e-07
-1.09333e-06
2.91199e-06
2.33006e-06
-4.39606e-05
0.000185198
-0.000147828
-0.00042013
-0.000918428
0.00525789
0.0202002
-0.0395921
-0.16561
-0.0992335
0.425389
1.29571
1.61816
1.15096
0.226992
-0.400678
-0.400432
-0.137019
-0.00360888
0.0296013
0.0181766
0.00399217
-0.000165505
-0.000156322
8.61738e-06
1.60165e-05
4.99952e-07
-1.2712e-06
-2.87249e-07
2.40312e-08
1.13904e-08
-1.59234e-09
-1.10013e-09
-8.3302e-11
3.60774e-11
6.25521e-12
6.35768e-14
-1.96233e-13
-5.07571e-14
-2.46977e-15
9.29412e-16
3.64492e-16
-5.46029e-09
-7.84868e-10
1.35949e-08
-1.29049e-07
7.27328e-07
-3.28368e-06
1.02876e-05
-1.61301e-05
-3.90956e-05
0.000184113
-9.2024e-05
-0.000219719
-0.00334713
0.0119345
0.0241867
-0.0574626
-0.176734
-0.150479
0.186563
0.567985
0.304401
-0.329597
-0.92812
-0.926543
-0.466149
-0.0824741
0.0309045
0.0369843
0.0146042
0.00162288
-0.000357996
-2.68938e-05
5.47944e-05
1.354e-05
-2.05902e-06
-1.41204e-06
-1.13835e-07
4.85006e-08
4.05353e-09
-3.71929e-09
-7.23889e-10
1.3013e-10
4.83462e-11
2.34501e-12
-1.05197e-12
-3.09746e-13
-4.4216e-14
4.97172e-16
1.24515e-15
3.99346e-16
-4.92375e-09
-8.04714e-09
4.35038e-08
-2.22215e-07
1.06153e-06
-4.5029e-06
1.54228e-05
-2.74798e-05
-1.90618e-05
0.000134044
0.000306559
-0.00151744
-0.00444437
0.0194073
0.0232303
-0.0614789
-0.185493
-0.279633
-0.298411
-0.547948
-1.18578
-1.7531
-1.76663
-1.14117
-0.390898
-0.0114073
0.0534046
0.03368
0.00833332
-0.000165688
-0.000236416
0.000107906
6.862e-05
4.6043e-06
-3.87633e-06
-9.61061e-07
9.6395e-08
4.42255e-08
-5.45064e-09
-3.57953e-09
8.97037e-11
2.56622e-10
3.33976e-11
-5.07253e-12
-1.6766e-12
-2.62663e-13
-1.60327e-14
4.4055e-15
1.52747e-15
4.10339e-16
1.91786e-08
-1.32755e-08
1.68328e-08
8.35188e-08
3.96652e-08
-3.13802e-06
1.26344e-05
-2.17667e-05
-6.07093e-05
0.000186816
0.000758705
-0.00345236
-0.00337019
0.0247665
0.0235052
-0.0435148
-0.204437
-0.51697
-1.02332
-1.8572
-2.58499
-2.76461
-2.13362
-1.05757
-0.234747
0.0476535
0.0569971
0.0220669
0.00203153
-0.00090871
5.89476e-05
0.000193998
5.03528e-05
-4.96027e-06
-3.77716e-06
-1.84169e-07
2.0356e-07
1.66781e-08
-1.23316e-08
-1.57507e-09
8.53519e-10
2.31164e-10
-8.70155e-12
-9.43603e-12
-1.48808e-12
-8.89389e-14
1.26335e-14
6.55336e-15
1.51339e-15
3.65238e-16
6.95655e-08
7.23637e-08
-3.10481e-07
1.30146e-06
-3.16223e-06
3.27783e-06
8.09189e-06
-1.1498e-05
-0.0001369
0.000506146
0.000692072
-0.00566361
-0.000134609
0.0264505
0.0421773
-0.00594926
-0.25255
-0.861303
-1.86913
-3.02922
-3.53931
-3.18568
-2.01917
-0.766569
-0.0686839
0.0751745
0.0427289
0.0076695
-0.00216136
-0.000685577
0.000326178
0.000192202
1.69912e-05
-9.69724e-06
-1.94627e-06
5.15765e-07
1.57412e-07
-2.37546e-08
-1.15184e-08
1.1263e-09
9.97851e-10
6.40358e-11
-4.26074e-11
-8.64426e-12
-2.50281e-13
4.07468e-14
2.55583e-14
5.79105e-15
1.12656e-15
2.55011e-16
8.5377e-08
2.10417e-07
-6.81907e-07
2.3506e-06
-5.53527e-06
7.52054e-06
7.74891e-06
-2.65808e-05
-0.000185774
0.0010342
-0.000136132
-0.00678368
-0.000359836
0.02783
0.0792748
0.0364732
-0.339081
-1.24885
-2.61174
-3.71117
-3.84531
-2.96112
-1.52982
-0.400152
0.049038
0.0684741
0.0182857
-0.00415169
-0.00344409
-1.36742e-05
0.000438455
0.000117795
-1.17807e-05
-7.77831e-06
4.92673e-07
7.10119e-07
2.23427e-08
-4.60515e-08
-4.41618e-09
3.0514e-09
5.69338e-10
-1.26822e-10
-4.44164e-11
-1.3842e-12
7.10769e-13
8.60247e-14
1.25375e-14
2.98444e-15
4.75069e-16
9.84156e-17
2.38127e-08
2.15354e-07
-5.98525e-07
2.1144e-06
-6.48984e-06
4.88833e-06
4.59589e-05
-0.000190809
-8.75022e-05
0.00160562
-0.000888984
-0.00842667
-0.00550436
0.0357937
0.135607
0.0765132
-0.424845
-1.54345
-2.97342
-3.70705
-3.4109
-2.20605
-0.867826
-0.085343
0.0930192
0.0382002
-0.00559252
-0.0100964
-0.00250116
0.000523876
0.000354459
2.37555e-05
-2.12407e-05
-1.77145e-06
2.06663e-06
4.11853e-07
-1.13307e-07
-3.60402e-08
4.83703e-09
2.79852e-09
-1.07684e-10
-1.81329e-10
-1.38299e-11
5.68707e-12
8.49193e-13
-4.81677e-14
-5.37266e-15
-2.31476e-16
-2.62162e-16
-6.51933e-17
-1.0793e-07
-3.71608e-07
7.95463e-07
1.05066e-07
-8.67871e-06
1.04111e-05
9.76237e-05
-0.000434146
0.000182417
0.0022392
-0.00113185
-0.0127058
-0.0153396
0.0603172
0.195855
0.111667
-0.43704
-1.56737
-2.7206
-2.98724
-2.3403
-1.18447
-0.249532
0.100459
0.074775
-0.000275495
-0.0208685
-0.0100269
-0.000823015
0.000643611
0.000150404
-3.81887e-05
-1.22953e-05
4.11007e-06
1.95021e-06
-7.55573e-08
-1.48866e-07
-6.58776e-09
9.77626e-09
1.07373e-09
-5.60346e-10
-9.6802e-11
2.50598e-11
6.51729e-12
-1.16753e-13
-1.70643e-13
-1.73091e-14
-2.21409e-15
-8.28381e-16
-1.87149e-16
1.38221e-07
-1.50181e-06
2.15062e-06
2.532e-06
-2.88478e-05
5.58493e-05
0.000113259
-0.000696397
0.000440376
0.00332083
-0.000875385
-0.0218397
-0.0235192
0.0830963
0.240027
0.190627
-0.263043
-1.13722
-1.76984
-1.66379
-0.984983
-0.209748
0.170957
0.14549
0.0235233
-0.03026
-0.0244153
-0.00646631
0.000314415
0.000376573
-4.04522e-05
-4.4289e-05
3.54466e-06
6.0967e-06
6.96418e-07
-4.02027e-07
-8.29729e-08
2.28974e-08
7.37887e-09
-9.36199e-10
-4.71718e-10
4.98165e-11
3.55389e-11
1.42891e-12
-1.14608e-12
-1.80722e-13
-3.19504e-15
-3.40298e-15
-1.11387e-15
-2.37214e-16
6.39241e-07
-2.72521e-06
2.39353e-06
9.74979e-06
-6.13444e-05
0.000133685
0.000102141
-0.00104853
0.000615695
0.00587466
-0.00119125
-0.034592
-0.0294689
0.0939613
0.279485
0.376924
0.205033
-0.193365
-0.312505
-0.084882
0.30878
0.487773
0.338835
0.0925499
-0.0263374
-0.0424931
-0.019136
-0.002631
0.000490554
-1.95497e-05
-0.000118854
-1.37004e-05
1.38886e-05
3.95751e-06
-6.34565e-07
-3.63282e-07
1.94453e-08
2.94413e-08
1.00107e-09
-1.80307e-09
-9.44447e-11
1.29224e-10
1.69011e-11
-4.81649e-12
-1.10211e-12
6.1374e-15
9.33793e-15
-3.42651e-15
-1.13706e-15
-2.16615e-16
-6.23782e-07
-5.03305e-06
2.83758e-06
1.1474e-05
-9.41398e-05
0.000250741
6.91222e-05
-0.00171021
0.000919968
0.00985641
-0.00315354
-0.0461446
-0.0429914
0.0820031
0.362028
0.736603
0.994933
1.13891
1.28001
1.36968
1.21813
0.790391
0.296731
0.0103987
-0.0549875
-0.0381535
-0.0106518
-0.000468
3.27239e-05
-0.00026269
-8.40528e-05
1.89868e-05
1.28129e-05
2.16638e-07
-1.07712e-06
-9.28932e-08
8.26958e-08
1.49058e-08
-4.71315e-09
-1.14621e-09
2.78981e-10
9.18328e-11
-1.13164e-11
-5.47454e-12
1.0489e-15
1.83747e-13
1.08986e-14
-4.5324e-15
-9.45685e-16
-1.48686e-16
-5.40657e-06
-9.69674e-06
1.20233e-05
-4.06842e-06
-0.000129242
0.000417189
2.45823e-05
-0.00282825
0.0018011
0.0144093
-0.0043504
-0.0556471
-0.0786657
0.0652774
0.544504
1.2824
2.00677
2.5302
2.63146
2.30671
1.57646
0.741641
0.151039
-0.0501117
-0.0582422
-0.024706
-0.00384208
-6.55121e-05
-0.000468789
-0.000268374
-7.39493e-06
2.92586e-05
4.62997e-06
-2.21297e-06
-6.05224e-07
1.64621e-07
6.74048e-08
-6.26634e-09
-5.33507e-09
1.2248e-10
3.56461e-10
8.36589e-12
-2.09602e-11
-9.67402e-13
1.14178e-12
1.7073e-13
-1.31985e-14
-4.49724e-15
-6.43011e-16
-6.5871e-17
-1.25197e-05
-1.53601e-05
3.7627e-05
-4.8549e-05
-0.000160865
0.000725577
-4.77411e-05
-0.00443629
0.0034138
0.0195588
-0.0022526
-0.0796442
-0.13345
0.0933698
0.812625
1.89592
2.95489
3.51299
3.37859
2.56499
1.43935
0.485816
0.00689339
-0.0717989
-0.0430237
-0.0110977
-0.00062371
-0.000498381
-0.000594768
-0.000128907
4.17396e-05
1.69977e-05
-2.8762e-06
-1.9906e-06
1.58734e-07
2.13733e-07
8.81538e-09
-1.67368e-08
-2.02963e-09
1.01903e-09
1.65409e-10
-5.60275e-11
-9.24886e-12
4.15786e-12
1.07933e-12
-3.07009e-14
-3.3726e-14
-3.66615e-15
-2.36117e-16
5.59608e-18
-1.26226e-05
-1.80338e-05
8.55052e-05
-0.000111454
-0.000211032
0.00126525
-0.000484067
-0.00647929
0.00548218
0.0275975
-0.00186517
-0.120072
-0.179668
0.164166
1.06572
2.34311
3.46588
3.80967
3.31538
2.19082
0.986971
0.191125
-0.070373
-0.0620556
-0.0223753
-0.00265724
-2.23081e-05
-0.000881722
-0.000403553
8.19291e-06
3.96793e-05
-5.00454e-07
-4.67139e-06
-2.91261e-07
5.23572e-07
8.91808e-08
-3.80136e-08
-1.11172e-08
1.90789e-09
8.50334e-10
-7.89078e-11
-4.96851e-11
7.40953e-12
4.69708e-12
7.79361e-14
-2.03458e-13
-3.05928e-14
-6.88247e-16
8.0211e-17
4.12103e-17
-9.91226e-06
-1.31831e-05
0.000155173
-0.000231793
-0.000258065
0.00204299
-0.00145105
-0.00877413
0.00835512
0.039698
-0.0115543
-0.17258
-0.207027
0.156324
1.06887
2.31392
3.21359
3.27981
2.56895
1.44078
0.469769
-0.0134199
-0.0788981
-0.0353854
-0.00638855
0.000369344
-0.000444863
-0.000778943
-0.000136054
5.4957e-05
9.60181e-06
-8.55728e-06
-1.86816e-06
9.8984e-07
3.46133e-07
-5.81488e-08
-3.74659e-08
1.18384e-09
3.02021e-09
1.04215e-10
-1.89765e-10
-8.03491e-12
1.46868e-11
1.51048e-12
-8.02596e-13
-1.72395e-13
-3.24155e-15
1.50293e-15
2.15245e-16
3.26221e-17
-2.59826e-05
2.50224e-05
0.000248206
-0.00048778
-0.000163397
0.00310086
-0.00316017
-0.0116962
0.0166061
0.0512325
-0.0318818
-0.217474
-0.332076
-0.123538
0.596653
1.60053
2.15306
2.09308
1.45749
0.642204
0.0823877
-0.0839317
-0.0457287
-0.0075109
0.00163069
0.000508883
-0.00089705
-0.000422446
1.64155e-05
2.78665e-05
-1.178e-05
-5.59299e-06
1.36756e-06
9.70317e-07
-2.53912e-08
-9.82302e-08
-7.88482e-09
7.93103e-09
1.24431e-09
-5.27637e-10
-1.09238e-10
2.92532e-11
8.15002e-12
-1.91664e-12
-7.36657e-13
-6.1141e-16
1.84574e-14
1.93443e-15
7.57423e-17
-1.20588e-17
-5.25621e-05
8.7419e-05
0.000335469
-0.000924524
0.000208575
0.0042488
-0.00666619
-0.0140648
0.030053
0.0655983
-0.0525378
-0.347737
-0.706704
-0.838945
-0.435807
0.233626
0.59381
0.66326
0.391085
0.0573233
-0.0875252
-0.0525868
-0.000525444
0.0104251
0.00287944
-0.000156383
-0.000755401
-0.000122394
3.44758e-05
-1.07966e-05
-1.25127e-05
7.85061e-07
2.10406e-06
1.81881e-07
-2.15e-07
-4.33233e-08
1.60251e-08
5.18741e-09
-1.02021e-09
-4.99727e-10
2.61979e-11
3.14718e-11
-9.66006e-13
-2.32588e-12
-6.11461e-14
1.19259e-13
1.71968e-14
2.45116e-16
-1.72748e-16
-6.23449e-17
-4.02263e-05
0.000280878
0.000378803
-0.00160022
0.00137645
0.00516291
-0.0122965
-0.0135551
0.0543786
0.0903701
-0.0986553
-0.659545
-1.40792
-1.92643
-1.83263
-1.4595
-0.929091
-0.525938
-0.3181
-0.195382
-0.0694807
0.0175273
0.0364482
0.0175808
0.00151085
-0.000659773
-0.000340193
9.27635e-06
-1.45145e-06
-2.13303e-05
-2.23183e-06
3.575e-06
8.17217e-07
-3.83531e-07
-1.39091e-07
2.45077e-08
1.56072e-08
-9.52702e-10
-1.57201e-09
-8.12122e-11
9.35194e-11
9.74128e-12
-5.84063e-12
-6.75251e-13
4.33248e-13
9.09617e-14
4.86157e-17
-1.34847e-15
-3.52877e-16
-8.89042e-17
8.02667e-05
0.00065557
8.08587e-05
-0.00237769
0.00370782
0.00451256
-0.0224639
-0.00793696
0.100754
0.118271
-0.275784
-1.14208
-2.23697
-3.03403
-3.14889
-2.76885
-1.98286
-1.17949
-0.560009
-0.164409
0.0347259
0.0822793
0.0557808
0.0156384
-0.000165698
-0.000510756
-2.83248e-05
2.10143e-05
-2.53905e-05
-9.63295e-06
4.25929e-06
2.02944e-06
-5.10421e-07
-3.45055e-07
2.30068e-08
3.94568e-08
1.93559e-09
-3.70399e-09
-5.78659e-10
2.33914e-10
5.26213e-11
-1.09834e-11
-3.38791e-12
9.29434e-13
3.47952e-13
-1.09161e-14
-1.11455e-14
-1.7396e-15
-3.33736e-16
-7.85135e-17
0.000288422
0.0011057
-0.00094428
-0.00266362
0.00823765
-0.00112297
-0.0375088
0.0211473
0.175782
0.133731
-0.39784
-1.44992
-2.72124
-3.6479
-3.84271
-3.28603
-2.27293
-1.22718
-0.433281
-0.0031067
0.128781
0.116331
0.0542567
0.00997802
-0.000749738
5.62834e-05
0.00011263
-3.34141e-06
-2.0864e-05
1.8608e-06
3.46517e-06
-3.87391e-07
-6.78922e-07
-1.88878e-08
8.58067e-08
1.25433e-08
-7.2978e-09
-2.03157e-09
4.50039e-10
1.87475e-10
-1.88924e-11
-1.32409e-11
6.7351e-13
1.03304e-12
3.74198e-15
-6.09834e-14
-9.43454e-15
-8.90995e-16
-1.73634e-16
-4.60612e-17
0.0006406
0.00101033
-0.003394
-0.000145391
0.0139832
-0.0184832
-0.0513789
0.0782881
0.346405
0.387905
-0.0937133
-1.12912
-2.42395
-3.3618
-3.52964
-2.96153
-1.91894
-0.882156
-0.170617
0.130594
0.170525
0.11279
0.041917
0.00465712
0.000243142
0.0003557
8.87381e-05
-2.59636e-05
-7.80391e-06
3.27338e-06
-1.74464e-08
-1.09673e-06
-1.50781e-07
1.55387e-07
4.0094e-08
-1.28143e-08
-5.49455e-09
5.76943e-10
5.27478e-10
-1.56962e-11
-4.15065e-11
-2.6526e-12
2.55679e-12
2.35e-13
-1.92172e-13
-3.75311e-14
-9.40816e-16
7.79697e-17
-8.47557e-18
-1.70419e-17
0.000840558
-0.000714437
-0.00624254
0.00921823
0.0125136
-0.0586748
-0.06083
0.295428
0.862015
1.17625
0.918648
0.00789279
-1.23758
-2.17196
-2.48851
-2.06413
-1.2227
-0.443488
0.0226675
0.155054
0.147807
0.0822561
0.0272738
0.00247374
0.000919233
0.000392101
2.08384e-05
-2.59049e-05
-2.01212e-06
9.65527e-08
-1.44488e-06
-3.74018e-07
2.25539e-07
9.43951e-08
-2.01446e-08
-1.33629e-08
3.16412e-10
1.24638e-09
6.13758e-11
-1.1453e-10
-1.66705e-11
5.44703e-12
1.17564e-12
-3.90695e-13
-1.13177e-13
8.06426e-15
3.59209e-15
5.05594e-16
5.41159e-17
-8.84469e-18
0.000258269
-0.00613428
-0.00327554
0.0271685
-0.0144977
-0.135935
0.0454738
0.779832
1.74923
2.40303
2.39658
1.63287
0.445628
-0.611013
-1.12917
-1.03461
-0.579855
-0.169926
0.025527
0.0907549
0.0824058
0.0502481
0.0173625
0.00249193
0.00120034
0.000226731
-4.17568e-05
-1.67897e-05
-1.07998e-06
-1.37189e-06
-6.2104e-07
2.64623e-07
1.68403e-07
-2.36932e-08
-2.83247e-08
-6.76293e-10
2.74695e-09
3.818e-10
-2.34454e-10
-5.50849e-11
1.28517e-11
4.35133e-12
-5.72237e-13
-3.24266e-13
2.8029e-14
2.21059e-14
3.00762e-15
3.2412e-16
1.10668e-17
-1.87342e-17
-0.00546567
-0.0137287
0.0201052
0.0396248
-0.177842
-0.372328
0.00893519
1.08928
2.38046
3.33043
3.60785
3.03685
1.90899
0.737259
-0.00312509
-0.265335
-0.227408
-0.157019
-0.0889361
-0.0201927
0.0257654
0.0315555
0.0115466
0.00228034
0.000764314
-1.06082e-05
-4.8446e-05
-6.08364e-06
-9.45153e-08
-5.7127e-07
2.72701e-07
2.39097e-07
-2.01734e-08
-5.06349e-08
-4.31359e-09
5.5968e-09
1.15837e-09
-4.00448e-10
-1.56488e-10
2.10528e-11
1.18722e-11
-9.15313e-13
-8.82079e-13
2.97814e-14
7.37002e-14
1.06294e-14
3.9383e-16
-7.55899e-17
-6.52204e-17
-3.16406e-17
-0.0152572
-0.0136227
0.0822525
-0.181305
-0.943396
-1.38132
-0.929746
0.323975
1.87557
3.21962
3.88774
3.61533
2.6403
1.51614
0.648364
0.0946902
-0.191493
-0.293894
-0.224711
-0.0974461
-0.00230584
0.0233933
0.00559602
0.00191373
0.000174261
-0.00010804
-1.49514e-05
3.70779e-06
5.02746e-07
1.56927e-07
2.63774e-07
-2.41987e-08
-7.55606e-08
-1.18975e-08
1.00785e-08
2.79021e-09
-6.57845e-10
-3.49262e-10
2.44953e-11
3.21201e-11
-3.20659e-13
-2.19392e-12
-5.65776e-14
1.88583e-13
2.93867e-14
-3.33263e-15
-1.10305e-15
-3.21097e-16
-1.04222e-16
-3.45985e-17
0.00823185
0.0813758
-0.0354334
-0.751801
-1.91575
-2.64231
-2.21973
-1.21294
0.286234
2.07722
3.20795
3.30083
2.62233
1.67532
0.807847
0.140755
-0.289063
-0.412586
-0.303538
-0.121272
-0.00300415
0.015404
0.0013775
0.000171245
-0.000103725
-1.82085e-05
1.05644e-05
3.11023e-06
-3.15273e-07
7.73881e-08
-3.73235e-08
-9.69377e-08
-1.84579e-08
1.42691e-08
5.33345e-09
-1.23245e-09
-7.06945e-10
1.25723e-11
6.63734e-11
1.855e-12
-6.11e-12
-4.74378e-13
4.41173e-13
8.22023e-14
-1.63905e-14
-5.76329e-15
-1.17093e-15
-3.06475e-16
-8.69787e-17
-2.57448e-17
0.00983047
0.127631
-0.123098
-1.19454
-2.54268
-3.24416
-2.8788
-2.23969
-1.13506
0.659074
2.05332
2.38099
2.02397
1.38541
0.717416
0.107385
-0.319766
-0.420271
-0.271615
-0.0916927
0.00487988
0.00119173
0.000317211
-8.07361e-05
-5.1134e-05
1.57754e-05
9.53566e-06
-3.31675e-07
-5.00181e-07
-7.59593e-08
-9.64617e-08
-1.92413e-08
1.81512e-08
7.34585e-09
-2.07671e-09
-1.3028e-09
4.75723e-11
1.36529e-10
1.31452e-11
-1.22451e-11
-1.54128e-12
1.0102e-12
2.01363e-13
-5.06977e-14
-2.04508e-14
-2.8494e-15
-5.60288e-16
-1.47358e-16
-4.12455e-17
-1.2137e-17
-0.00976637
0.0746326
-0.0870307
-1.19616
-2.62823
-3.28907
-3.22399
-2.84615
-2.02472
-0.561778
0.588058
1.03907
1.14947
0.991976
0.689794
0.190161
-0.222192
-0.30509
-0.194941
-0.0589719
-0.00297588
-0.00153695
-0.0011672
-0.000290405
3.35305e-05
2.50524e-05
-7.89695e-07
-2.41062e-06
-3.60674e-07
8.99054e-09
1.32431e-08
2.69008e-08
8.58263e-09
-3.57386e-09
-2.04604e-09
1.73279e-10
2.83922e-10
3.0514e-11
-2.41909e-11
-5.51651e-12
1.72775e-12
4.50772e-13
-1.28235e-13
-5.20516e-14
-4.24103e-15
3.03869e-17
1.04354e-17
-2.52654e-18
-2.84195e-18
-1.62291e-18
-0.0182
-0.00887994
0.00322594
-0.719674
-2.00103
-2.92612
-3.35827
-3.26634
-2.61724
-1.69342
-0.987364
-0.281158
0.409025
0.778998
0.822981
0.397297
-0.00869323
-0.16077
-0.123144
-0.0399532
-0.00736256
-0.00221327
-0.000174314
0.000153969
5.11814e-05
-3.75044e-06
-5.49444e-06
-5.68647e-07
3.42797e-07
1.07213e-07
2.71887e-08
4.24058e-09
-6.8499e-09
-3.15243e-09
5.46267e-10
5.41311e-10
5.93687e-11
-4.57692e-11
-1.24273e-11
3.16512e-12
1.21285e-12
-1.96254e-13
-1.00456e-13
5.99053e-16
4.17531e-15
9.67526e-16
2.35238e-16
5.8069e-17
1.35502e-17
2.93752e-18
-0.00218036
-0.023647
0.0265891
-0.112426
-0.913333
-2.068
-2.87968
-2.65809
-2.13839
-2.14981
-2.11765
-1.18915
-0.26484
0.838483
1.04082
0.594727
0.123217
-0.0785602
-0.0855097
-0.0320377
-0.00196152
-0.000178687
0.000104087
5.08321e-05
-2.06571e-06
-5.90923e-06
-6.03042e-07
7.23252e-07
2.19755e-07
2.45084e-08
-4.13457e-09
-8.34098e-09
-3.86582e-09
1.11271e-09
9.37881e-10
6.37055e-11
-8.05759e-11
-2.48873e-11
5.02981e-12
2.5865e-12
-2.99715e-13
-1.95145e-13
1.8603e-14
1.66509e-14
3.38568e-15
7.62748e-16
2.01211e-16
5.26184e-17
1.30683e-17
3.1205e-18
0.00693595
0.00869468
-0.0184102
0.0570594
-0.0827086
-0.890482
-1.19027
-0.419262
-0.144154
-1.72276
-2.75025
-2.21959
-0.514427
0.824063
1.03174
0.571669
0.127299
-0.0501088
-0.0693432
-0.0111093
-0.000595358
0.00036975
0.000226806
3.91557e-05
-1.00756e-05
-2.94185e-06
4.3604e-07
3.68822e-07
4.24296e-08
-1.71977e-08
-1.44465e-08
-5.05057e-09
9.0373e-10
1.25113e-09
6.33177e-11
-1.27972e-10
-3.18381e-11
7.88988e-12
5.03016e-12
-2.93704e-13
-3.52013e-13
4.07045e-14
3.70771e-14
5.6055e-15
9.87884e-16
3.00449e-16
9.25455e-17
2.65963e-17
7.05694e-18
1.78757e-18
0.00312348
-0.0159885
-0.00112515
0.0915403
-0.258869
-1.02203
0.351652
2.48594
3.09543
-1.37462
-3.38157
-2.87554
-0.923223
0.490732
0.759252
0.405658
0.0833827
-0.032813
-0.0424133
-7.39428e-05
0.000757759
0.000124076
-6.15099e-05
-4.04168e-05
-5.31303e-06
2.31159e-06
9.32813e-07
-1.63592e-09
-9.21519e-08
-2.80914e-08
-1.39583e-09
3.06917e-09
1.66044e-09
1.71645e-10
-1.62736e-10
-2.43212e-11
1.36948e-11
6.60561e-12
-5.76744e-13
-7.7725e-13
1.9929e-14
5.6332e-14
3.1981e-15
-8.00883e-16
-4.0945e-17
3.93118e-17
2.24669e-17
8.3059e-18
2.51249e-18
6.9202e-19
-0.0710932
-0.294
0.550115
0.99473
-2.37096
-3.33587
0.803265
5.75088
4.57536
-0.118937
-3.46317
-3.17812
-1.13621
0.27896
0.537298
0.287278
0.0676236
-0.0142188
-0.0149951
-0.000992884
-0.000324911
-0.000131942
-2.16292e-05
8.81867e-06
6.87995e-06
1.61038e-06
-1.62986e-07
-1.69731e-07
-1.96108e-08
1.19887e-08
5.0745e-09
6.56025e-10
-3.2959e-10
-1.79604e-10
8.11352e-12
2.93959e-11
6.06518e-12
-1.24465e-12
-1.18242e-12
-9.66843e-16
8.54893e-14
1.51944e-15
-3.95665e-15
-7.25954e-16
-1.26373e-16
-1.46348e-17
1.39741e-18
1.55429e-18
6.14598e-19
1.92335e-19
-1.29506
-1.68981
2.54281
4.09815
-8.34335
-7.62023
1.77401
8.69321
6.68923
0.249722
-3.51786
-3.02797
-1.03472
0.174961
0.373471
0.191477
0.0453277
-0.008888
-0.00447138
-0.000581313
-0.000192222
-0.000111682
-4.38282e-05
-5.85334e-06
1.7979e-06
7.0167e-07
2e-07
5.2263e-08
2.52167e-08
3.65249e-09
-1.03484e-09
-3.73806e-10
8.84188e-11
1.36374e-10
5.61492e-11
4.68953e-12
-2.43516e-12
-1.31025e-12
-3.16942e-14
9.4599e-14
5.48986e-15
-4.04313e-15
-5.95541e-16
-1.69987e-16
-4.31856e-17
-7.69566e-18
-6.15502e-19
1.96162e-19
1.19518e-19
4.249e-20
)
;

boundaryField
{
    movingWall
    {
        type            zeroGradient;
    }
    fixedWalls
    {
        type            zeroGradient;
    }
    frontAndBack
    {
        type            empty;
    }
}

