/*--------------------------------*- C++ -*----------------------------------*\
| =========                 |                                                 |
| \\      /  F ield         | OpenFOAM: The Open Source CFD Toolbox           |
|  \\    /   O peration     | Version:  v2006                                 |
|   \\  /    A nd           | Website:  www.openfoam.com                      |
|    \\/     M anipulation  |                                                 |
\*---------------------------------------------------------------------------*/
FoamFile
{
    version     2.0;
    format      ascii;
    class       volScalarField;
    location    "0";
    object      f;
}
// * * * * * * * * * * * * * * * * * * * * * * * * * * * * * * * * * * * * * //

dimensions      [0 0 0 0 0 0 0];


internalField   nonuniform List<scalar> 
2500
(
-5.64837e-09
-7.75862e-09
2.54955e-08
3.5866e-08
-6.09772e-08
-1.45062e-07
2.29069e-07
2.59684e-07
-7.4538e-08
-4.91131e-07
-8.08994e-07
-2.46971e-07
1.28276e-06
8.27888e-07
-5.71919e-06
-1.86175e-05
-3.22771e-05
3.56296e-05
4.54394e-05
6.28944e-06
-0.000108671
-0.000112381
-6.14164e-05
-2.89845e-05
-1.12904e-05
-2.99602e-06
-1.93595e-07
9.50557e-09
5.15574e-09
3.84869e-10
1.01783e-09
-1.76581e-08
2.44388e-07
3.55269e-08
-6.74732e-11
-9.31751e-12
-3.35597e-13
-1.24632e-13
6.04066e-14
1.27509e-13
6.72742e-14
1.67398e-14
-5.99714e-15
-3.83719e-15
-8.58532e-16
-9.90818e-17
2.28568e-17
2.59599e-17
1.49228e-17
1.02703e-17
-1.10251e-08
4.71814e-08
7.51021e-08
-2.01682e-07
-3.35928e-07
3.52051e-07
1.24559e-06
-4.38395e-07
-2.81323e-06
-1.08921e-06
4.59817e-06
4.54337e-06
1.65486e-06
-1.73364e-07
-7.49913e-06
6.7545e-05
0.000287618
0.000284835
-8.34065e-07
-0.000533772
-0.000538772
-0.000193068
0.000381085
0.00128037
0.00210486
0.0023951
0.00224795
0.00177085
0.00116609
0.00062998
0.000263186
6.96205e-05
3.85144e-06
-3.10943e-09
-5.64251e-10
-2.29364e-12
-3.37529e-13
9.15498e-13
1.16701e-12
5.65643e-13
1.18994e-13
-8.69968e-14
-5.01116e-14
-8.80541e-15
2.72261e-16
4.89132e-16
2.1172e-16
7.83332e-17
2.77761e-17
1.25922e-17
-5.88655e-09
2.42527e-07
1.28665e-07
-1.12513e-06
-7.21347e-07
3.28859e-06
3.17952e-06
-7.07958e-06
-1.11653e-05
9.43174e-06
3.11993e-05
1.29108e-05
1.53935e-07
4.51706e-05
0.000484982
0.00124944
0.00161418
0.000938733
-0.000769852
-0.00217085
-0.00163009
0.00157205
0.00792883
0.0152813
0.0205183
0.0214459
0.0191686
0.0145655
0.00931224
0.00487501
0.00194246
0.00046137
1.47298e-05
-1.24367e-09
-3.44802e-10
-5.67475e-12
1.01968e-11
9.38023e-12
4.67192e-12
1.07653e-12
-9.09136e-13
-6.23074e-13
-1.39009e-13
-6.29265e-16
6.55974e-15
2.07658e-15
4.41623e-16
1.15349e-16
3.15669e-17
9.96637e-18
5.56601e-08
7.63911e-07
-1.95314e-07
-3.59791e-06
-8.35962e-08
1.11505e-05
4.71118e-06
-2.68893e-05
-2.18419e-05
5.24018e-05
8.97446e-05
3.57531e-06
-1.68333e-06
0.000794917
0.00268316
0.00467534
0.00479397
0.00200455
-0.00285207
-0.00583147
-0.00294308
0.00988965
0.0309881
0.0534348
0.06823
0.0697029
0.061529
0.0463038
0.0293704
0.0152433
0.00599273
0.00137766
3.55996e-05
5.34352e-10
7.72457e-11
6.09054e-11
5.723e-11
3.26045e-11
8.69238e-12
-8.84134e-12
-6.89545e-12
-1.86266e-12
-1.19747e-13
7.56894e-14
2.97423e-14
3.48097e-15
2.31824e-16
3.15145e-17
-2.74216e-18
-8.84246e-18
1.92331e-07
1.69237e-06
-1.14251e-06
-7.85953e-06
2.33283e-06
2.64256e-05
1.25096e-06
-6.80484e-05
-2.33342e-05
0.000156766
0.000166321
-7.72441e-05
0.000312734
0.00278127
0.00737893
0.0111802
0.0104176
0.00328834
-0.00715953
-0.0120065
-0.00194469
0.0289688
0.0765918
0.125799
0.156986
0.158893
0.139426
0.104479
0.0660341
0.0341268
0.0133226
0.00300798
6.8532e-05
6.88848e-10
3.46818e-10
2.51854e-10
1.6554e-10
5.70834e-11
-7.76587e-11
-6.96028e-11
-2.18714e-11
-2.207e-12
7.02827e-13
3.20735e-13
4.70152e-14
-1.06361e-15
-5.59113e-16
-2.22834e-16
-8.51855e-17
-4.38733e-17
4.40416e-07
3.04396e-06
-3.04857e-06
-1.38728e-05
7.64688e-06
4.97245e-05
-1.21373e-05
-0.000130164
-2.80808e-06
0.000318951
0.00024125
-0.000184594
0.000972463
0.00625823
0.0150018
0.0211111
0.0182154
0.0041805
-0.014122
-0.0198315
0.00188444
0.0608291
0.148311
0.236896
0.291669
0.293763
0.256885
0.192026
0.121099
0.0624025
0.0242347
0.00539608
0.000110597
2.36026e-09
1.02198e-09
6.83371e-10
2.84567e-10
-5.98036e-10
-6.6333e-10
-2.32725e-10
-2.89536e-11
5.7599e-12
2.90627e-12
5.59477e-13
1.93878e-15
-4.25593e-15
-1.72138e-15
-4.98253e-16
-1.60018e-16
-7.05794e-17
7.97881e-07
4.62125e-06
-5.83805e-06
-2.07809e-05
1.58711e-05
7.79284e-05
-3.65684e-05
-0.000206063
4.49471e-05
0.000533682
0.000306114
-0.000325524
0.00199736
0.0110761
0.0249414
0.033267
0.0268936
0.00394579
-0.0231214
-0.0282868
0.00951996
0.104336
0.241569
0.37879
0.462387
0.464281
0.405138
0.302351
0.190339
0.0978238
0.0378015
0.00830116
0.000152973
1.26302e-08
1.4852e-09
1.27435e-09
-5.37635e-09
-6.25349e-09
-2.38774e-09
-3.27341e-10
4.18664e-11
2.42214e-11
6.06826e-12
3.23889e-13
-3.75117e-14
-1.77496e-14
-3.14528e-15
-5.00872e-16
-1.37668e-16
-5.15975e-17
1.20267e-06
6.10673e-06
-8.97488e-06
-2.73102e-05
2.57876e-05
0.000105036
-6.70162e-05
-0.000279968
0.000108346
0.000755771
0.000347428
-0.000443008
0.00325466
0.0163494
0.0351529
0.0448948
0.0341822
0.0021361
-0.0327218
-0.0358424
0.0199592
0.152383
0.340826
0.527863
0.640782
0.642383
0.559686
0.41712
0.262114
0.134309
0.0515984
0.0111525
0.000179053
5.02244e-08
-2.23361e-08
-7.3887e-08
-6.11151e-08
-2.4087e-08
-3.68564e-09
2.51822e-10
1.72966e-10
6.02505e-11
7.42337e-12
-2.73349e-13
-1.67387e-13
-3.89355e-14
-2.15141e-15
6.97375e-17
4.22837e-17
3.36597e-17
1.53447e-06
7.13935e-06
-1.1514e-05
-3.19685e-05
3.44428e-05
0.00012416
-9.31879e-05
-0.000334468
0.000166038
0.000926245
0.000370834
-0.00049159
0.00438676
0.020529
0.0425814
0.0524626
0.0377539
-0.00119491
-0.040732
-0.0411399
0.0300853
0.192801
0.422055
0.648924
0.785337
0.786609
0.684588
0.509463
0.319413
0.163044
0.0621795
0.0131739
0.000177391
-6.82248e-07
-7.80146e-07
-5.55859e-07
-2.35232e-07
-4.62326e-08
3.19245e-10
9.96952e-10
4.95711e-10
1.02958e-10
7.93991e-13
-1.05234e-12
-4.31879e-13
-4.92454e-14
1.63101e-15
8.3288e-16
3.09129e-16
1.52426e-16
1.67225e-06
7.48811e-06
-1.26307e-05
-3.36131e-05
3.88508e-05
0.000130448
-0.000105069
-0.000355498
0.000192172
0.000991009
0.000382261
-0.000421841
0.00495903
0.0220682
0.0444743
0.0533564
0.0361506
-0.00533354
-0.0452015
-0.0433403
0.0358273
0.212892
0.461602
0.707927
0.855982
0.857074
0.745279
0.553664
0.346139
0.175867
0.0664731
0.0136935
0.00013455
-4.22806e-06
-3.46281e-06
-1.78007e-06
-5.1337e-07
-3.6986e-08
5.3148e-09
3.49581e-09
1.02142e-09
7.51866e-11
-7.38493e-12
-3.82424e-12
-7.20323e-13
3.21592e-15
5.75538e-15
1.97832e-15
5.25446e-16
2.21232e-16
1.56382e-06
6.96341e-06
-1.17937e-05
-3.12664e-05
3.68625e-05
0.000120928
-9.65329e-05
-0.000334382
0.000169131
0.000914103
0.000417816
-0.000221404
0.00474669
0.0197891
0.0387612
0.0449968
0.0284753
-0.00929385
-0.0453328
-0.0423365
0.0346357
0.206527
0.449307
0.690969
0.836987
0.838129
0.727689
0.539026
0.335198
0.168709
0.0626132
0.0122376
5.1366e-05
-1.36515e-05
-9.51544e-06
-3.79456e-06
-6.98133e-07
2.08138e-08
1.92518e-08
7.87418e-09
1.26066e-09
-4.69983e-11
-3.0585e-11
-8.25696e-12
-4.20757e-13
4.6871e-14
2.05975e-14
3.15168e-15
4.32483e-16
1.49193e-16
1.14653e-06
5.38235e-06
-8.15372e-06
-2.42944e-05
2.5619e-05
9.24123e-05
-6.04102e-05
-0.000257804
7.78159e-05
0.000670567
0.000443925
0.000104083
0.00326662
0.0128558
0.024942
0.0285181
0.0166121
-0.0114779
-0.0394758
-0.0380661
0.0223833
0.162318
0.364291
0.567907
0.691629
0.692752
0.599795
0.441399
0.271599
0.134416
0.0483384
0.00859502
-3.50977e-05
-3.67758e-05
-1.96984e-05
-5.64826e-06
-3.86913e-07
8.54519e-08
5.04115e-08
1.24948e-08
4.42777e-10
-1.51809e-10
-7.24566e-11
-1.07774e-11
3.5667e-13
2.01114e-13
4.15572e-14
1.22779e-15
-1.48783e-16
-1.10658e-16
5.63784e-07
3.18353e-06
-3.10438e-06
-1.45051e-05
9.34886e-06
5.32424e-05
-1.25379e-05
-0.000149113
-3.70457e-05
0.000339596
0.000459027
0.000333703
0.00110598
0.00404758
0.00842547
0.0103757
0.00516384
-0.00983066
-0.0286137
-0.0316382
0.00353602
0.0955849
0.234886
0.378342
0.466072
0.466891
0.401646
0.291804
0.175937
0.0842611
0.0284257
0.00406622
-0.000104051
-8.15433e-05
-3.08391e-05
-5.18711e-06
4.01061e-07
2.83841e-07
9.42567e-08
9.47411e-09
-8.697e-10
-4.74384e-10
-1.01819e-10
-7.7228e-13
1.06519e-12
4.33466e-13
4.57866e-14
-1.62155e-15
-8.29388e-16
-4.35803e-16
-2.96806e-09
1.01784e-06
1.2996e-06
-4.51461e-06
-5.73492e-06
1.55338e-05
2.60987e-05
-4.07294e-05
-0.000114847
2.4182e-05
0.00039718
0.000418219
-0.000781636
-0.00314237
-0.00450681
-0.00345236
-0.00206075
-0.00544923
-0.0156712
-0.0241739
-0.0137122
0.0296691
0.10327
0.18197
0.229987
0.230031
0.194424
0.136607
0.0780696
0.034097
0.0092544
0.00030757
-0.000265086
-0.000137898
-3.22648e-05
-2.57193e-07
1.13057e-06
5.74036e-07
1.16912e-07
-1.40281e-09
-2.10485e-09
-7.22059e-10
-5.6553e-11
5.34015e-12
2.83835e-12
5.81482e-13
3.85871e-16
-5.11823e-15
-1.69062e-15
-6.38872e-16
-3.65153e-07
-6.21238e-07
3.53654e-06
3.45805e-06
-1.40593e-05
-1.24984e-05
4.24001e-05
3.79393e-05
-0.000126655
-0.000170501
0.000239861
0.00033626
-0.00167384
-0.00633141
-0.010289
-0.00943421
-0.0039436
-0.000136307
-0.0043818
-0.0153654
-0.0222743
-0.0155645
0.00550317
0.030725
0.0453769
0.0444715
0.0329961
0.0172921
0.0044169
-0.00238305
-0.00376617
-0.00181062
-0.000579808
-0.000113374
8.38906e-07
4.72632e-06
2.65912e-06
7.03627e-07
3.7916e-08
-7.21855e-09
-3.51133e-09
-6.60642e-10
1.97502e-11
1.4861e-11
4.22861e-12
2.3053e-13
-4.43291e-14
-1.56891e-14
-2.02889e-15
-4.33214e-16
-4.29128e-07
-1.37321e-06
3.22958e-06
7.39043e-06
-1.33645e-05
-2.59474e-05
3.48796e-05
7.29802e-05
-7.68102e-05
-0.000215864
3.54534e-05
0.000162768
-0.00150666
-0.00564007
-0.00932605
-0.00843847
-0.00234615
0.00356947
0.0028578
-0.0061564
-0.0201339
-0.0326452
-0.0424914
-0.0502692
-0.0559268
-0.0576204
-0.0542663
-0.0451802
-0.0322752
-0.0190147
-0.00856912
-0.00280124
-0.000478076
3.62828e-05
2.3344e-05
9.96541e-06
2.85306e-06
2.53473e-07
-4.30946e-08
-1.87238e-08
-3.60496e-09
9.49348e-12
4.7717e-11
2.17912e-11
3.00171e-12
-4.31656e-13
-1.65814e-13
-1.99208e-14
1.03204e-15
3.6368e-16
-1.95588e-07
-1.33642e-06
1.09276e-06
7.16914e-06
-5.2569e-06
-2.53006e-05
9.65295e-06
6.59273e-05
4.03195e-06
-0.000148053
-0.000128472
-1.92176e-05
-0.000574412
-0.00227321
-0.00392914
-0.00340327
4.75464e-05
0.00441847
0.00564575
0.00138788
-0.00972902
-0.0271417
-0.0476809
-0.0674775
-0.0802238
-0.0812126
-0.0724792
-0.055656
-0.0360829
-0.0191229
-0.00780514
-0.00195858
-2.84425e-05
4.53268e-05
2.87289e-05
1.01098e-05
1.3207e-06
-2.28747e-07
-1.02623e-07
-1.89939e-08
6.7565e-10
3.293e-10
8.3359e-11
1.13014e-11
-3.18386e-12
-1.35383e-12
-1.92325e-13
1.49065e-14
4.88439e-15
1.01196e-15
1.70765e-07
-7.437e-07
-1.28653e-06
3.87664e-06
4.11092e-06
-1.35275e-05
-1.68098e-05
3.10308e-05
6.69692e-05
-2.84123e-05
-0.000196221
-0.000142091
0.000302782
0.000854622
0.000979962
0.000809349
0.00116035
0.00283858
0.00516815
0.00539367
0.000801756
-0.010855
-0.0280814
-0.045259
-0.0554395
-0.0553013
-0.0472518
-0.0340516
-0.0202527
-0.00960479
-0.00324471
-0.000383896
0.000107799
5.92033e-05
1.7713e-05
2.63057e-06
-8.5586e-07
-4.14176e-07
-7.95307e-08
6.20403e-09
3.21852e-09
6.32735e-10
8.38847e-12
-2.12813e-11
-9.64479e-12
-1.61563e-12
1.00309e-13
4.45011e-14
6.5877e-15
4.96927e-16
4.03428e-07
-9.97524e-08
-2.64762e-06
2.26694e-07
9.6866e-06
-4.33067e-07
-3.03068e-05
-5.41333e-06
8.36389e-05
6.28963e-05
-0.000157583
-0.000172269
0.000590045
0.00196521
0.00268193
0.00198783
0.000585241
0.000506761
0.00264523
0.00547248
0.00560999
0.00174763
-0.00519309
-0.0115739
-0.0140733
-0.0125496
-0.00850176
-0.00399958
-0.00075285
0.000761265
0.000978765
0.000533498
0.000177346
2.68925e-05
-8.40807e-06
-5.28357e-06
-1.72581e-06
-2.57249e-07
4.49376e-08
2.18037e-08
4.75398e-09
1.05986e-10
-9.2023e-11
-4.75928e-11
-1.03613e-11
9.00725e-14
1.78084e-13
5.21481e-14
2.61118e-15
-3.52737e-16
3.97497e-07
2.27692e-07
-2.7177e-06
-1.47874e-06
9.82609e-06
6.0685e-06
-2.78817e-05
-2.35784e-05
5.91825e-05
9.00745e-05
-5.97994e-05
-0.000138387
0.000316725
0.00118029
0.00154237
0.000742838
-0.000586156
-0.000939365
0.000273613
0.00240409
0.0041919
0.00535289
0.00723321
0.0108084
0.0148013
0.017378
0.0173184
0.0146833
0.0103392
0.00590995
0.00261949
0.000764632
7.53346e-05
-3.55013e-05
-2.19861e-05
-7.53784e-06
-1.14463e-06
1.4934e-07
8.18099e-08
2.32868e-08
1.75471e-09
-3.19965e-10
-1.81073e-10
-4.71353e-11
-1.79166e-12
5.86369e-13
2.63829e-13
3.30408e-14
-1.61781e-15
-9.86255e-16
2.16468e-07
2.04156e-07
-1.78114e-06
-1.20176e-06
6.20292e-06
5.46433e-06
-1.62816e-05
-2.1366e-05
2.36895e-05
6.24023e-05
1.32147e-05
-8.80251e-05
-0.000143371
-0.000257324
-0.000522883
-0.000909846
-0.00109481
-0.000974544
-0.000842192
-0.000954288
-0.000376099
0.00247354
0.00853714
0.0163441
0.0228788
0.0251061
0.0229559
0.0175689
0.0111172
0.00563824
0.00204758
0.000381437
-5.46625e-05
-4.02879e-05
-1.71967e-05
-4.13701e-06
5.15825e-08
1.33885e-07
6.30884e-08
1.17767e-08
-7.79236e-10
-5.22995e-10
-1.55343e-10
-9.04198e-12
2.6627e-12
1.23029e-12
1.9308e-13
-1.28846e-14
-4.38169e-15
-1.42167e-15
5.76262e-08
-2.97918e-08
-6.20966e-07
3.89994e-08
2.17919e-06
8.41605e-07
-5.8433e-06
-6.51763e-06
2.98187e-06
1.82057e-05
2.55729e-05
-5.11627e-05
-0.000364128
-0.000954973
-0.00150557
-0.00143996
-0.000738313
-0.000180522
-0.000798638
-0.00244624
-0.00330263
-0.00140779
0.00392424
0.0108027
0.0159026
0.0166711
0.014379
0.0100819
0.00561011
0.00229153
0.000500308
-0.00010607
-6.11924e-05
-2.3234e-05
-5.76414e-06
5.14637e-08
3.72993e-07
1.97511e-07
4.50052e-08
5.74704e-11
-9.23716e-10
-4.04389e-10
-4.95962e-11
1.14201e-11
5.51328e-12
1.01218e-12
-5.51401e-14
-2.55039e-14
-4.70227e-15
-1.01846e-15
-2.55431e-09
-1.79426e-07
1.72208e-08
9.0933e-07
5.13019e-08
-2.69324e-06
-9.92087e-07
5.12153e-06
1.33687e-06
-9.99953e-06
-6.88188e-07
-3.03573e-05
-0.000261223
-0.000739849
-0.00109277
-0.000835251
-3.26916e-05
0.000448179
-0.000183895
-0.0018343
-0.00306163
-0.00256525
-0.000434743
0.00223389
0.00363993
0.00344337
0.00224158
0.00078907
-0.000241482
-0.000633853
-0.000530609
-0.000242408
-6.80375e-05
-5.50921e-06
4.34907e-06
2.23909e-06
7.08847e-07
1.41521e-07
-1.00679e-08
-5.73685e-09
-1.4463e-09
-1.61332e-10
4.45327e-11
2.08513e-11
4.00786e-12
-1.95654e-13
-9.60068e-14
-1.98427e-14
-1.34309e-15
-1.8561e-16
-3.74141e-09
-1.67202e-07
9.96886e-08
8.96622e-07
-2.56073e-07
-2.96033e-06
-5.28057e-07
7.59769e-06
5.45332e-06
-1.36516e-05
-2.18289e-05
-1.41872e-05
-4.06817e-05
-0.000112648
-0.000137117
6.24293e-06
0.000293476
0.0004472
0.000240642
-0.000233785
-0.000735177
-0.00123962
-0.00186212
-0.00285527
-0.00401807
-0.00466178
-0.00457309
-0.00382417
-0.00268808
-0.00152095
-0.000635466
-0.000181906
-1.649e-05
1.59687e-05
9.40292e-06
2.84412e-06
2.91593e-07
-1.36211e-07
-6.34025e-08
-1.22056e-08
4.96183e-12
1.77277e-10
7.2939e-11
1.17423e-11
-1.70758e-12
-6.74685e-13
-9.53738e-14
5.61468e-15
1.70791e-15
5.33148e-16
9.87948e-09
-4.4161e-08
-1.2125e-08
2.68151e-07
5.41971e-08
-9.64589e-07
-6.59456e-07
2.81768e-06
4.94014e-06
-2.60769e-06
-1.63773e-05
-7.63115e-06
7.41692e-05
0.00023049
0.000361357
0.00034237
0.00016855
4.42555e-05
0.000239266
0.000724376
0.000990418
0.000439156
-0.00118792
-0.00331611
-0.00496043
-0.00538457
-0.00479068
-0.00351057
-0.0020368
-0.000890781
-0.000257999
-1.6796e-05
3.48546e-05
2.20514e-05
7.77095e-06
1.06909e-06
-4.13241e-07
-2.27244e-07
-5.84363e-08
-2.50775e-09
6.18474e-10
2.91958e-10
4.21086e-11
-8.76716e-12
-4.00589e-12
-7.35692e-13
2.50977e-14
1.21753e-14
2.5718e-15
7.35312e-16
1.0656e-08
5.74102e-08
-4.15723e-08
-2.87753e-07
1.18466e-07
9.58666e-07
-3.2463e-08
-2.39311e-06
-2.19046e-07
5.79468e-06
2.35839e-06
-1.39052e-06
5.0007e-05
0.000181818
0.000280482
0.000187797
-8.13879e-05
-0.000235363
1.23812e-05
0.000641267
0.00110294
0.000896385
-3.6375e-05
-0.00123187
-0.00197278
-0.00197169
-0.00150569
-0.000821258
-0.000252131
4.18993e-05
0.000115573
7.7341e-05
3.61167e-05
9.60128e-06
4.84891e-07
-9.96413e-07
-5.06803e-07
-1.13004e-07
6.50362e-09
3.65748e-09
9.13869e-10
1.14077e-10
-2.81999e-11
-1.25565e-11
-2.42237e-12
8.70196e-14
3.6144e-14
8.22616e-15
1.36526e-15
4.52969e-16
-5.12288e-09
6.35524e-08
2.64026e-08
-3.49976e-07
-1.12521e-07
1.17068e-06
7.53713e-07
-3.06429e-06
-3.41485e-06
4.5917e-06
1.03407e-05
3.34236e-06
-8.23436e-06
-6.28719e-06
3.84574e-06
-2.81438e-05
-0.000116392
-0.00018091
-0.000122638
5.25784e-05
0.000243015
0.000368423
0.000486168
0.000639836
0.000906825
0.00110303
0.0011498
0.00100639
0.000725626
0.000427201
0.000193703
6.59279e-05
8.82605e-06
-5.76598e-06
-3.53824e-06
-1.16522e-06
-1.62653e-07
5.87564e-08
2.78439e-08
5.57066e-09
-5.63834e-11
-1.2037e-10
-4.06274e-11
-5.26334e-12
1.14463e-12
4.12139e-13
5.01269e-14
-8.76466e-16
-2.48754e-16
-4.17246e-17
-1.51209e-08
1.17552e-08
6.843e-08
-7.10135e-08
-2.47838e-07
1.78841e-07
7.83985e-07
-2.43287e-07
-2.69182e-06
-1.38908e-06
5.64176e-06
5.3315e-06
-2.16649e-05
-6.86956e-05
-9.94179e-05
-7.28606e-05
-2.561e-06
2.27325e-05
-7.69857e-05
-0.000271519
-0.000372693
-0.000191551
0.000333161
0.00102236
0.0015283
0.00166215
0.00146373
0.00105633
0.000612023
0.000264907
7.33059e-05
4.24326e-07
-1.3378e-05
-8.22981e-06
-2.89036e-06
-3.8624e-07
1.82699e-07
9.85447e-08
2.34603e-08
-7.61081e-12
-4.60733e-10
-1.84826e-10
-1.95859e-11
4.61939e-12
2.16541e-12
4.05063e-13
-8.72964e-15
-4.39428e-15
-1.13512e-15
-3.85186e-16
-4.25618e-09
-2.69281e-08
3.56004e-08
1.48643e-07
-1.32197e-07
-5.51105e-07
2.47412e-07
1.51996e-06
1.62888e-07
-3.47423e-06
-2.68535e-06
3.49826e-06
2.14196e-06
-2.03682e-05
-3.71053e-05
-6.35603e-06
7.20373e-05
0.000113613
2.73028e-05
-0.000175122
-0.000330796
-0.000276563
-3.28202e-07
0.000346572
0.000556651
0.000546458
0.000397965
0.000197127
4.00462e-05
-3.51721e-05
-4.70869e-05
-2.89272e-05
-1.22282e-05
-2.92203e-06
5.66595e-08
4.01235e-07
2.03579e-07
4.53366e-08
-3.44044e-09
-1.95032e-09
-5.53292e-10
-6.79057e-11
1.41756e-11
6.68928e-12
1.41531e-12
-3.18756e-15
-1.28815e-14
-4.76985e-15
-1.13065e-15
-3.80401e-16
4.93377e-09
-2.2885e-08
-1.7141e-08
1.12268e-07
7.03295e-08
-3.69898e-07
-3.50324e-07
9.40833e-07
1.57828e-06
-1.30775e-06
-4.39925e-06
4.91582e-07
1.37808e-05
2.57879e-05
2.65502e-05
2.58972e-05
3.58878e-05
5.20931e-05
5.72708e-05
4.28192e-05
2.75936e-06
-5.86383e-05
-0.000154106
-0.000271539
-0.000394667
-0.000452917
-0.000436704
-0.000360991
-0.000249155
-0.000139046
-5.86455e-05
-1.62169e-05
-9.47086e-07
2.25737e-06
1.3891e-06
4.60148e-07
6.21243e-08
-2.42954e-08
-1.18829e-08
-2.5417e-09
-2.70372e-11
4.85586e-11
2.08769e-11
3.45482e-12
-4.79762e-13
-1.94025e-13
-2.86821e-14
-8.78811e-16
-1.0529e-16
-3.39615e-17
3.56148e-09
4.47125e-09
-3.73175e-08
-2.59916e-08
1.46862e-07
1.15176e-07
-4.26519e-07
-3.54589e-07
8.32292e-07
1.30764e-06
-5.82943e-07
-2.21846e-06
3.20554e-06
1.59142e-05
2.15524e-05
6.13511e-06
-2.46824e-05
-3.24865e-05
1.44815e-05
0.000100021
0.000148131
8.70116e-05
-8.9175e-05
-0.000314781
-0.00047266
-0.000493587
-0.000424782
-0.000292491
-0.000156836
-6.02981e-05
-1.12028e-05
5.09768e-06
4.44576e-06
2.37386e-06
7.9068e-07
1.15261e-07
-5.66562e-08
-3.31816e-08
-8.8474e-09
-3.31521e-10
1.17329e-10
5.88202e-11
9.99685e-12
-2.00237e-12
-1.01148e-12
-2.16193e-13
-6.77373e-16
1.49287e-15
6.31157e-16
3.157e-16
2.10601e-09
1.26054e-08
-1.51055e-08
-6.00703e-08
4.67062e-08
2.1794e-07
-3.48423e-08
-6.63438e-07
-3.61821e-07
1.469e-06
1.80949e-06
-2.19633e-06
-7.88368e-06
-9.30296e-06
-8.1817e-06
-1.47972e-05
-3.21437e-05
-4.21045e-05
-2.35053e-05
2.30325e-05
6.48352e-05
6.6691e-05
2.29882e-05
-2.98852e-05
-5.26429e-05
-4.20359e-05
-9.33427e-06
2.1619e-05
3.60706e-05
3.26009e-05
2.07894e-05
9.25721e-06
2.65667e-06
2.67353e-07
-2.59223e-07
-1.55888e-07
-5.84982e-08
-1.17619e-08
1.6629e-09
7.37037e-10
1.43065e-10
8.72644e-12
-5.64011e-12
-2.36096e-12
-4.45891e-13
3.23708e-14
1.23872e-14
2.49203e-15
6.68068e-16
3.3326e-16
-1.92999e-09
2.11633e-09
1.48419e-08
-1.12682e-08
-6.03925e-08
3.7311e-08
2.04749e-07
-9.65141e-08
-5.62093e-07
-5.67978e-08
1.06231e-06
1.24382e-08
-5.13666e-06
-1.11504e-05
-1.1885e-05
-6.74988e-06
4.59608e-08
-2.21744e-06
-1.79895e-05
-3.70569e-05
-3.80588e-05
-9.44171e-06
5.34111e-05
0.000130274
0.000186231
0.000203662
0.000184027
0.000138495
8.55701e-05
4.19623e-05
1.51118e-05
2.5331e-06
-1.13155e-06
-8.59318e-07
-4.04708e-07
-1.17256e-07
-8.70923e-09
8.11919e-09
3.89649e-09
8.28985e-10
-3.69311e-11
-2.86766e-11
-7.75638e-12
-5.99139e-13
2.26753e-13
9.90661e-14
1.78798e-14
8.51945e-16
1.68921e-16
1.21632e-16
-2.24628e-09
-4.57185e-09
1.73388e-08
2.11417e-08
-5.55212e-08
-8.53199e-08
1.14057e-07
2.93057e-07
-8.50756e-08
-7.71949e-07
-4.69119e-07
1.31756e-06
2.74474e-06
1.99113e-06
1.67247e-06
6.70205e-06
1.66403e-05
1.91366e-05
4.51319e-06
-2.35581e-05
-4.22269e-05
-3.03756e-05
1.35851e-05
6.79953e-05
0.000103148
0.000103166
8.16152e-05
4.92149e-05
2.08355e-05
3.76496e-06
-2.71835e-06
-3.02191e-06
-1.64605e-06
-5.45391e-07
-7.56906e-08
4.65444e-08
2.60771e-08
7.09324e-09
9.64877e-10
-2.75918e-10
-1.24184e-10
-2.78202e-11
-5.06742e-13
6.10417e-13
2.26997e-13
3.40178e-14
-2.66987e-15
-7.36528e-16
-1.90546e-16
-6.18177e-17
3.44014e-10
-1.9255e-09
-2.37492e-09
1.32943e-08
9.55217e-09
-5.12354e-08
-4.90282e-08
1.58355e-07
2.16096e-07
-2.80037e-07
-6.35714e-07
6.18752e-07
3.66096e-06
6.29417e-06
6.54528e-06
5.84906e-06
5.7778e-06
8.02848e-06
1.0289e-05
8.77656e-06
2.58003e-06
-7.09194e-06
-1.94329e-05
-3.22426e-05
-4.56799e-05
-5.19186e-05
-5.02752e-05
-4.16908e-05
-2.94368e-05
-1.69592e-05
-7.51793e-06
-2.35379e-06
-3.02166e-07
2.22225e-07
1.53494e-07
6.22897e-08
1.42992e-08
-1.26021e-09
-1.13399e-09
-4.32179e-10
-8.49957e-11
8.57773e-12
4.67582e-12
9.36595e-13
-3.92845e-14
-2.4738e-14
-5.43728e-15
-9.03881e-16
-2.40143e-16
-9.41673e-17
1.20275e-09
6.46496e-10
-8.81402e-09
-5.42372e-09
3.0186e-08
2.3847e-08
-7.20113e-08
-9.15782e-08
1.11274e-07
2.83647e-07
2.13471e-08
-4.42929e-07
-2.37092e-07
6.74469e-07
6.12444e-07
-2.26308e-06
-6.16453e-06
-6.00665e-06
1.25199e-06
1.28259e-05
1.81441e-05
9.4396e-06
-1.31273e-05
-4.06829e-05
-5.91087e-05
-6.09983e-05
-5.21396e-05
-3.62317e-05
-1.96715e-05
-7.8201e-06
-1.57387e-06
5.70715e-07
5.33247e-07
2.78582e-07
8.56367e-08
7.49921e-09
-8.13125e-09
-4.05634e-09
-1.03645e-09
-3.2369e-11
4.46291e-11
1.85246e-11
3.68367e-12
-2.06743e-13
-1.1435e-13
-2.55051e-14
-1.41925e-15
1.48706e-17
-5.27141e-18
-6.72178e-18
7.2993e-11
1.28595e-09
-1.42477e-09
-7.36446e-09
6.05117e-09
3.04642e-08
-6.0888e-09
-1.02185e-07
-5.04209e-08
2.31707e-07
2.7174e-07
-4.79538e-07
-1.82917e-06
-2.85458e-06
-3.17189e-06
-3.40388e-06
-4.49338e-06
-5.38596e-06
-4.19279e-06
-5.04613e-07
3.78738e-06
5.79485e-06
4.45511e-06
2.51302e-06
2.4653e-06
3.7257e-06
5.93807e-06
7.19574e-06
6.65655e-06
4.75809e-06
2.72961e-06
1.1088e-06
2.50434e-07
-2.48072e-08
-4.79395e-08
-2.49762e-08
-6.33387e-09
-6.27075e-10
3.76393e-10
1.85652e-10
4.1107e-11
-7.61872e-14
-1.63021e-12
-6.13675e-13
-1.06931e-13
6.73058e-15
2.29414e-15
5.27549e-16
1.52844e-16
6.5342e-17
-3.90658e-10
1.76913e-10
3.35316e-09
5.04035e-10
-1.21886e-08
-4.77784e-09
3.03237e-08
2.11271e-08
-6.39441e-08
-7.88096e-08
5.80706e-08
6.8306e-08
-3.61409e-07
-9.56763e-07
-8.44422e-07
4.22845e-07
1.75677e-06
1.32244e-06
-1.65393e-06
-5.47585e-06
-6.33162e-06
-2.22129e-06
6.97624e-06
1.77535e-05
2.51447e-05
2.61841e-05
2.29132e-05
1.66738e-05
9.92161e-06
4.70081e-06
1.49575e-06
1.6962e-07
-1.71777e-07
-1.13766e-07
-4.47276e-08
-9.08339e-09
1.68287e-09
1.15311e-09
3.72472e-10
6.249e-11
-1.0069e-11
-4.92921e-12
-1.10488e-12
2.87767e-14
4.3592e-14
1.1902e-14
1.82157e-15
4.00289e-16
1.34722e-16
6.64203e-17
-2.21396e-10
-6.61379e-10
1.63213e-09
3.13678e-09
-6.39194e-09
-1.31826e-08
1.28925e-08
4.78212e-08
1.77003e-09
-1.17599e-07
-1.00491e-07
2.3514e-07
7.44201e-07
1.12217e-06
1.30265e-06
1.63157e-06
2.27053e-06
2.46115e-06
1.39247e-06
-8.79483e-07
-2.86568e-06
-2.67959e-06
-2.51413e-07
2.79676e-06
4.56963e-06
4.40944e-06
2.90533e-06
1.01806e-06
-3.22282e-07
-8.39189e-07
-7.07336e-07
-3.79944e-07
-1.30601e-07
-2.48711e-08
7.02182e-09
6.52265e-09
2.68727e-09
5.01259e-10
-9.30534e-11
-5.98783e-11
-1.79326e-11
-2.90124e-12
4.74721e-13
2.48411e-13
5.40797e-14
6.66595e-16
-1.70157e-16
-2.44614e-17
1.02839e-17
1.84147e-17
1.41796e-10
-1.72171e-10
-1.08264e-09
4.74294e-10
4.04853e-09
-3.1282e-10
-1.01057e-08
-1.01871e-09
2.53833e-08
1.16774e-08
-3.76852e-08
2.26381e-08
3.03347e-07
5.92198e-07
5.42651e-07
8.53149e-08
-3.16676e-07
-6.03963e-08
9.79601e-07
2.02592e-06
1.97059e-06
2.46235e-07
-3.01149e-06
-6.64099e-06
-9.12912e-06
-9.64402e-06
-8.59364e-06
-6.45655e-06
-4.03868e-06
-2.03727e-06
-7.74593e-07
-1.53099e-07
3.88916e-08
3.49917e-08
1.7942e-08
5.29984e-09
4.80405e-10
-3.21995e-10
-1.60765e-10
-3.62258e-11
1.71215e-12
1.57672e-12
4.82739e-13
6.01041e-14
-1.08938e-14
-2.80746e-15
-5.4555e-16
-1.55611e-16
-4.58229e-17
-1.21722e-17
1.23418e-10
2.73515e-10
-8.96969e-10
-1.21922e-09
3.35732e-09
5.22396e-09
-8.15464e-09
-1.94914e-08
5.17198e-09
5.08839e-08
3.50791e-08
-9.57522e-08
-2.71226e-07
-3.9082e-07
-4.7321e-07
-6.79548e-07
-9.71552e-07
-9.85875e-07
-4.11266e-07
6.39401e-07
1.35618e-06
1.01376e-06
-3.76523e-07
-2.12093e-06
-3.23235e-06
-3.2384e-06
-2.53491e-06
-1.49107e-06
-5.88938e-07
-5.9173e-08
1.2349e-07
1.13167e-07
5.53963e-08
1.71651e-08
2.03841e-09
-1.60091e-09
-8.45111e-10
-2.19767e-10
-2.43214e-11
1.28007e-11
5.44734e-12
1.09386e-12
-7.64458e-14
-4.7332e-14
-1.12774e-14
-1.70068e-15
-3.89274e-16
-1.25746e-16
-4.05235e-17
-1.41541e-17
-3.81228e-11
8.84788e-11
3.04972e-10
-3.43623e-10
-1.11598e-09
6.57184e-10
3.06802e-09
-1.87069e-09
-8.54156e-09
2.24986e-09
1.63932e-08
-2.42302e-08
-1.5575e-07
-2.82556e-07
-2.66789e-07
-1.14746e-07
2.04365e-09
-1.03216e-07
-4.27193e-07
-6.91554e-07
-5.64468e-07
7.88894e-08
1.1377e-06
2.26185e-06
3.05429e-06
3.25086e-06
2.93018e-06
2.24821e-06
1.4515e-06
7.69215e-07
3.11976e-07
7.48308e-08
-1.36997e-09
-1.11609e-08
-6.75178e-09
-2.22156e-09
-3.91106e-10
8.4286e-11
5.47053e-11
1.50443e-11
1.36021e-12
-5.37477e-13
-2.3235e-13
-4.70233e-14
1.64984e-16
2.20952e-16
4.70291e-17
2.56778e-18
-2.54661e-18
-1.20908e-18
-5.32899e-11
-8.97153e-11
3.91377e-10
4.12828e-10
-1.50738e-09
-1.78157e-09
3.49211e-09
7.10033e-09
-3.25335e-09
-1.96603e-08
-1.10983e-08
3.4278e-08
8.94599e-08
1.29051e-07
1.66941e-07
2.59988e-07
3.71003e-07
3.58744e-07
1.1389e-07
-2.91686e-07
-5.33001e-07
-3.53343e-07
2.51001e-07
1.00289e-06
1.48736e-06
1.50625e-06
1.23065e-06
7.93928e-07
3.86629e-07
1.17834e-07
-4.27501e-09
-3.43958e-08
-2.03277e-08
-7.39955e-09
-1.49665e-09
3.3497e-10
2.91168e-10
1.08088e-10
1.91164e-11
-3.5965e-12
-1.84134e-12
-3.68258e-13
4.29732e-15
1.41201e-14
3.78426e-15
6.35969e-16
1.58176e-16
4.6948e-17
1.45068e-17
6.24617e-18
1.13242e-11
-3.18854e-11
-9.04727e-11
1.2949e-10
3.32655e-10
-4.00328e-10
-9.46174e-10
1.08454e-09
2.60068e-09
-1.92887e-09
-6.18632e-09
1.17849e-08
6.41288e-08
1.11528e-07
1.06299e-07
5.79434e-08
2.35712e-08
5.96017e-08
1.60406e-07
2.2606e-07
1.60142e-07
-5.96586e-08
-3.95454e-07
-7.42461e-07
-9.82142e-07
-1.03696e-06
-9.40077e-07
-7.32297e-07
-4.83981e-07
-2.64018e-07
-1.10427e-07
-2.84602e-08
-8.59583e-10
3.7606e-09
2.35347e-09
8.26894e-10
1.57959e-10
-2.89031e-11
-1.94094e-11
-5.62089e-12
-8.12101e-13
1.45352e-13
6.84476e-14
1.56765e-14
1.41414e-15
1.85937e-16
5.97084e-17
2.03721e-17
7.06061e-18
3.51847e-18
2.2881e-11
3.30153e-11
-1.39488e-10
-1.25214e-10
5.1951e-10
5.94905e-10
-1.19769e-09
-2.41421e-09
1.30431e-09
6.7897e-09
3.60853e-09
-1.11943e-08
-2.85606e-08
-4.19383e-08
-5.65723e-08
-8.98703e-08
-1.261e-07
-1.17457e-07
-3.01517e-08
1.05919e-07
1.79875e-07
1.08576e-07
-1.06594e-07
-3.69958e-07
-5.40293e-07
-5.50654e-07
-4.59001e-07
-3.05472e-07
-1.56499e-07
-5.51692e-08
-5.40117e-09
9.87203e-09
6.09271e-09
2.23117e-09
4.3365e-10
-1.41059e-10
-1.05988e-10
-3.78798e-11
-7.09939e-12
1.25436e-12
7.29857e-13
1.71074e-13
5.38103e-15
-4.17398e-15
-1.31026e-15
-3.19302e-16
-9.07072e-17
-2.73328e-17
-8.22552e-18
-2.85588e-18
-5.63093e-12
7.42165e-12
2.79009e-11
-5.34609e-11
-9.26888e-11
1.55824e-10
2.64982e-10
-3.58467e-10
-7.75316e-10
6.19288e-10
1.83215e-09
-4.26769e-09
-2.14967e-08
-3.65111e-08
-3.47536e-08
-2.00454e-08
-9.68082e-09
-2.13025e-08
-5.12965e-08
-7.02891e-08
-4.76527e-08
2.14434e-08
1.25983e-07
2.32348e-07
3.02358e-07
3.1687e-07
2.87135e-07
2.244e-07
1.48912e-07
8.20476e-08
3.47432e-08
9.19291e-09
4.68656e-10
-1.13173e-09
-7.24801e-10
-2.64605e-10
-5.04887e-11
9.85576e-12
6.55771e-12
1.89448e-12
2.78846e-13
-4.77444e-14
-2.19538e-14
-4.91024e-15
-9.75926e-16
-3.11608e-16
-1.1195e-16
-3.97528e-17
-1.36653e-17
-5.78056e-18
-5.86558e-12
-1.05712e-11
4.08651e-11
4.7435e-11
-1.53346e-10
-1.8728e-10
3.70908e-10
7.37381e-10
-4.18913e-10
-2.05885e-09
-1.0962e-09
3.35301e-09
8.73421e-09
1.29243e-08
1.73126e-08
2.70165e-08
3.73359e-08
3.49764e-08
9.69272e-09
-2.96908e-08
-5.15029e-08
-3.06076e-08
3.1198e-08
1.05922e-07
1.55851e-07
1.59197e-07
1.32698e-07
8.8561e-08
4.62053e-08
1.71067e-08
2.38393e-09
-2.46264e-09
-1.56028e-09
-6.2288e-10
-1.5704e-10
8.59569e-12
2.65729e-11
1.18565e-11
2.51966e-12
-2.06761e-13
-1.4691e-13
-4.51198e-14
-7.71688e-15
-8.92141e-16
-3.42791e-16
-1.55583e-16
-6.62445e-17
-2.65245e-17
-1.00295e-17
-4.70485e-18
1.09579e-12
6.64274e-13
-3.90567e-12
1.04781e-11
2.46701e-11
-3.47579e-11
-6.3137e-11
7.58205e-11
1.98424e-10
-8.30579e-11
-3.59666e-10
1.16878e-09
5.33711e-09
9.04051e-09
8.52803e-09
4.47788e-09
1.59818e-09
4.45862e-09
1.25918e-08
1.82712e-08
1.30556e-08
-5.19091e-09
-3.27812e-08
-6.10061e-08
-7.99783e-08
-8.39069e-08
-7.57011e-08
-5.86314e-08
-3.85251e-08
-2.09995e-08
-8.86108e-09
-2.4117e-09
-2.12382e-10
2.28715e-10
1.51921e-10
6.03451e-11
1.19483e-11
-1.02933e-12
-1.19239e-12
-4.71929e-13
-8.3202e-14
6.63348e-15
2.70687e-15
5.24291e-16
6.97565e-17
-1.19425e-17
-1.63851e-17
-9.45439e-18
-4.31205e-18
-2.32494e-18
1.31972e-12
1.41264e-12
-1.00518e-11
-1.18106e-11
2.70744e-11
4.63811e-11
-5.57561e-11
-1.53022e-10
6.25254e-11
4.43528e-10
3.00816e-10
-7.18166e-10