/*--------------------------------*- C++ -*----------------------------------*\
| =========                 |                                                 |
| \\      /  F ield         | OpenFOAM: The Open Source CFD Toolbox           |
|  \\    /   O peration     | Version:  v2006                                 |
|   \\  /    A nd           | Website:  www.openfoam.com                      |
|    \\/     M anipulation  |                                                 |
\*---------------------------------------------------------------------------*/
FoamFile
{
    version     2.0;
    format      ascii;
    class       volScalarField;
    location    "0";
    object      f;
}
// * * * * * * * * * * * * * * * * * * * * * * * * * * * * * * * * * * * * * //

dimensions      [0 0 0 0 0 0 0];


internalField   nonuniform List<scalar> 
2500
(
-1.35977e-103
5.8243e-88
8.31471e-79
-7.8442e-73
-7.87435e-69
-1.19579e-66
7.43888e-64
9.0892e-62
2.99553e-60
-4.6911e-59
-3.29905e-57
-5.78326e-56
-5.33755e-55
-3.32951e-54
-1.61386e-53
-6.27574e-53
-1.91258e-52
-4.41242e-52
-7.43886e-52
-8.39421e-52
-3.77606e-52
8.10305e-52
2.53437e-51
4.3465e-51
5.79777e-51
6.62646e-51
6.78993e-51
6.39765e-51
5.62728e-51
4.66361e-51
3.66345e-51
2.73934e-51
1.95628e-51
1.33795e-51
8.78314e-52
5.54327e-52
3.36662e-52
1.96792e-52
1.10654e-52
5.97812e-53
3.09781e-53
1.53635e-53
7.27278e-54
3.27489e-54
1.39628e-54
5.59855e-55
2.08801e-55
7.09986e-56
2.10833e-56
2.97698e-57
-8.72538e-101
1.05556e-85
1.1803e-76
-7.0833e-71
-5.90139e-67
-9.70975e-65
3.34268e-62
3.89505e-60
1.26468e-58
-1.24436e-57
-1.01184e-55
-1.70988e-54
-1.49716e-53
-8.82126e-53
-4.04437e-52
-1.49479e-51
-4.35356e-51
-9.63565e-51
-1.56137e-50
-1.69088e-50
-7.12767e-51
1.56803e-50
4.64741e-50
7.63296e-50
9.76961e-50
1.07319e-49
1.05921e-49
9.63806e-50
8.20928e-50
6.6049e-50
5.0478e-50
3.67842e-50
2.56338e-50
1.71249e-50
1.09901e-50
6.78583e-51
4.03492e-51
2.3109e-51
1.27414e-51
6.75515e-52
3.43783e-52
1.6757e-52
7.80129e-53
3.4567e-53
1.45081e-53
5.72774e-54
2.10314e-54
7.03568e-55
2.05074e-55
2.89727e-56
-5.15938e-98
1.61742e-83
1.56181e-74
-5.93445e-69
-4.14419e-65
-7.01571e-63
1.36621e-60
1.56414e-58
5.04268e-57
-2.67968e-56
-2.93689e-54
-4.83811e-53
-4.04263e-52
-2.25952e-51
-9.83259e-51
-3.46466e-50
-9.67293e-50
-2.0602e-49
-3.21811e-49
-3.3513e-49
-1.31284e-49
3.04005e-49
8.52746e-49
1.34329e-48
1.65254e-48
1.74746e-48
1.66362e-48
1.46397e-48
1.20933e-48
9.46162e-49
7.04778e-49
5.01469e-49
3.41681e-49
2.23412e-49
1.40444e-49
8.50052e-50
4.95815e-50
2.78754e-50
1.50986e-50
7.86979e-51
3.94044e-51
1.89099e-51
8.67271e-52
3.78755e-52
1.56734e-52
6.10146e-53
2.20853e-53
7.27576e-54
2.08199e-54
2.92826e-55
-2.96001e-95
2.00809e-81
2.00691e-72
-4.81139e-67
-2.82994e-63
-4.73195e-61
5.1749e-59
6.04988e-57
1.94506e-55
-3.5377e-55
-8.21274e-53
-1.33101e-51
-1.06444e-50
-5.65161e-50
-2.33578e-49
-7.84896e-49
-2.1013e-48
-4.30887e-48
-6.49131e-48
-6.49849e-48
-2.33738e-48
5.83709e-48
1.54574e-47
2.3342e-47
2.75879e-47
2.80627e-47
2.57476e-47
2.18919e-47
1.75242e-47
1.33245e-47
9.66967e-48
6.71642e-48
4.47397e-48
2.86308e-48
1.76301e-48
1.04601e-48
5.98481e-49
3.30295e-49
1.75747e-49
9.00569e-50
4.4363e-50
2.09598e-50
9.46958e-51
4.07579e-51
1.66269e-51
6.38082e-52
2.27579e-52
7.37656e-53
2.06808e-53
2.87272e-54
-1.64543e-92
1.22277e-79
2.50214e-70
-3.76731e-65
-1.87726e-61
-3.01734e-59
1.7535e-57
2.24528e-55
7.25337e-54
6.49867e-54
-2.20334e-51
-3.55525e-50
-2.73036e-49
-1.37932e-48
-5.41811e-48
-1.7368e-47
-4.46013e-47
-8.80989e-47
-1.28075e-46
-1.23239e-46
-4.01433e-47
1.10765e-46
2.76587e-46
4.00351e-46
4.54495e-46
4.44481e-46
3.92686e-46
3.22277e-46
2.49759e-46
1.84417e-46
1.3032e-46
8.83355e-47
5.75165e-47
3.60204e-47
2.17256e-47
1.2635e-47
7.09107e-48
3.84142e-48
2.00783e-48
1.01142e-48
4.90153e-49
2.27976e-49
1.01455e-49
4.30306e-50
1.73015e-50
6.54329e-51
2.29812e-51
7.32037e-52
2.00538e-52
2.71935e-53
-8.84785e-90
-3.45058e-77
3.02383e-68
-2.84158e-63
-1.20834e-59
-1.832e-57
4.85536e-56
7.95287e-54
2.61273e-52
7.88366e-52
-5.63774e-50
-9.20508e-49
-6.8154e-48
-3.28183e-47
-1.22629e-46
-3.75116e-46
-9.24335e-46
-1.75968e-45
-2.47027e-45
-2.28485e-45
-6.63339e-46
2.07256e-45
4.88068e-45
6.77403e-45
7.38715e-45
6.9431e-45
5.90188e-45
4.67052e-45
3.50057e-45
2.50785e-45
1.72458e-45
1.1403e-45
7.25552e-46
4.44605e-46
2.62636e-46
1.49707e-46
8.24065e-47
4.38154e-47
2.24939e-47
1.11378e-47
5.30942e-48
2.43076e-48
1.06538e-48
4.45193e-49
1.76376e-49
6.57041e-50
2.2706e-50
7.09683e-51
1.89282e-51
2.46219e-52
-4.59272e-87
-1.84549e-74
3.53834e-66
-2.0579e-61
-7.53756e-58
-1.06358e-55
7.2211e-55
2.66727e-52
9.07936e-51
4.25712e-50
-1.36376e-48
-2.30569e-47
-1.65348e-46
-7.60515e-46
-2.70585e-45
-7.90166e-45
-1.86893e-44
-3.43104e-44
-4.65467e-44
-4.13966e-44
-1.05112e-44
3.81484e-44
8.48337e-44
1.1299e-43
1.18409e-43
1.06945e-43
8.74095e-44
6.66314e-44
4.82437e-44
3.35e-44
2.24003e-44
1.444e-44
8.97543e-45
5.38034e-45
3.11225e-45
1.73852e-45
9.38466e-46
4.89667e-46
2.46871e-46
1.20132e-46
5.63224e-47
2.53767e-47
1.09517e-47
4.50755e-48
1.75889e-48
6.45002e-49
2.19084e-49
6.70492e-50
1.73237e-50
2.10229e-51
-2.29506e-84
-5.77818e-72
4.00419e-64
-1.4245e-59
-4.55039e-56
-5.91882e-54
-3.23217e-53
8.36304e-51
3.03881e-49
1.83018e-48
-3.0744e-47
-5.57383e-46
-3.89338e-45
-1.7146e-44
-5.81547e-44
-1.62193e-43
-3.68353e-43
-6.52513e-43
-8.56228e-43
-7.32649e-43
-1.59028e-43
6.89089e-43
1.45046e-42
1.85616e-42
1.8707e-42
1.62386e-42
1.27557e-42
9.35731e-43
6.53703e-43
4.39462e-43
2.85463e-43
1.79286e-43
1.0881e-43
6.37873e-44
3.61222e-44
1.97699e-44
1.04632e-44
5.35626e-45
2.65129e-45
1.26764e-45
5.84356e-46
2.59042e-46
1.10044e-46
4.45932e-47
1.7129e-47
6.17805e-48
2.05952e-48
6.1541e-49
1.52923e-49
1.64884e-50
-1.09996e-81
-1.49656e-69
4.37645e-62
-9.36404e-58
-2.6544e-54
-3.16176e-52
-4.08523e-51
2.39569e-49
9.77471e-48
6.95058e-47
-6.29112e-46
-1.29657e-44
-8.88303e-44
-3.75614e-43
-1.21615e-42
-3.24115e-42
-7.07026e-42
-1.20928e-41
-1.5364e-41
-1.26609e-41
-2.28393e-42
1.21867e-41
2.43574e-41
2.9998e-41
2.91068e-41
2.42948e-41
1.83371e-41
1.29342e-41
8.70777e-42
5.66016e-42
3.56778e-42
2.18128e-42
1.29186e-42
7.40287e-43
4.10266e-43
2.19928e-43
1.14084e-43
5.72793e-44
2.78274e-44
1.30678e-44
5.92094e-45
2.5814e-45
1.07896e-45
4.30243e-46
1.62559e-46
5.75988e-47
1.88069e-47
5.46469e-48
1.29172e-48
1.11952e-49
-5.02847e-79
-3.47326e-67
4.61282e-60
-5.78726e-56
-1.49355e-52
-1.62225e-50
-2.80053e-49
5.9673e-48
3.01319e-46
2.42021e-45
-1.10149e-44
-2.89113e-43
-1.96003e-42
-7.9841e-42
-2.47174e-41
-6.29876e-41
-1.32024e-40
-2.1817e-40
-2.68689e-40
-2.13534e-40
-3.08878e-41
2.10537e-40
4.01083e-40
4.76328e-40
4.45583e-40
3.57907e-40
2.59587e-40
1.75941e-40
1.14014e-40
7.15589e-41
4.37144e-41
2.59908e-41
1.50098e-41
8.40301e-42
4.55536e-42
2.39077e-42
1.215e-42
5.98034e-43
2.85018e-43
1.31398e-43
5.8487e-44
2.50646e-44
1.03015e-44
4.03903e-45
1.49949e-45
5.21092e-46
1.66171e-46
4.66713e-47
1.03089e-47
5.39923e-49
-2.17383e-76
-7.44871e-65
4.68064e-58
-3.30606e-54
-8.08965e-51
-7.99505e-49
-1.56421e-47
1.11441e-46
8.86813e-45
7.85771e-44
-1.35775e-43
-6.14812e-42
-4.17283e-41
-1.644e-40
-4.87604e-40
-1.18903e-39
-2.39559e-39
-3.82744e-39
-4.57509e-39
-3.51308e-39
-3.88788e-40
3.54523e-39
6.46481e-39
7.42029e-39
6.70336e-39
5.18726e-39
3.61675e-39
2.35451e-39
1.46705e-39
8.87799e-40
5.24871e-40
3.03117e-40
1.70536e-40
9.32039e-41
4.93943e-41
2.53651e-41
1.26216e-41
6.08658e-42
2.84389e-42
1.28623e-42
5.6204e-43
2.36579e-43
9.55269e-44
3.67873e-44
1.3399e-44
4.55603e-45
1.41295e-45
3.80013e-46
7.59719e-47
-5.8189e-49
-8.75695e-74
-1.49758e-62
4.56334e-56
-1.68876e-52
-4.20802e-49
-3.78307e-47
-7.76758e-46
3.52278e-46
2.47889e-43
2.3986e-42
3.20351e-43
-1.23786e-40
-8.5475e-40
-3.27296e-39
-9.32244e-39
-2.17742e-38
-4.21849e-38
-6.5211e-38
-7.57664e-38
-5.63477e-38
-4.47323e-39
5.80628e-38
1.01811e-37
1.13223e-37
9.89646e-38
7.38818e-38
4.95567e-38
3.09841e-38
1.85456e-38
1.08058e-38
6.17304e-39
3.45795e-39
1.89313e-39
1.00916e-39
5.22405e-40
2.62288e-40
1.27688e-40
6.0277e-41
2.75864e-41
1.22288e-41
5.24062e-42
2.16437e-42
8.57536e-43
3.23846e-43
1.15468e-43
3.82807e-44
1.14697e-44
2.90768e-45
4.92076e-46
-6.39513e-47
-3.1946e-71
-2.84338e-60
4.26471e-54
-7.10695e-51
-2.09632e-47
-1.71715e-45
-3.54389e-44
-1.04789e-43
6.53178e-42
6.911e-41
9.71031e-41
-2.33389e-39
-1.67864e-38
-6.2858e-38
-1.72445e-37
-3.86246e-37
-7.19893e-37
-1.07752e-36
-1.21883e-36
-8.80529e-37
-4.56312e-38
9.22912e-37
1.56358e-36
1.6892e-36
1.43154e-36
1.03272e-36
6.67101e-37
4.00669e-37
2.3023e-37
1.28984e-37
7.10835e-38
3.85624e-38
2.05161e-38
1.06545e-38
5.38189e-39
2.6392e-39
1.25567e-39
5.79586e-40
2.59496e-40
1.12598e-40
4.72569e-41
1.91196e-41
7.41956e-42
2.74132e-42
9.53598e-43
3.06526e-43
8.77576e-44
2.0354e-44
2.41534e-45
-1.16862e-45
-9.86081e-69
-5.11651e-58
3.80984e-52
-1.74804e-49
-9.96804e-46
-7.46694e-44
-1.50832e-42
-7.12807e-42
1.60358e-40
1.88183e-39
4.32728e-39
-4.04535e-38
-3.14632e-37
-1.16141e-36
-3.08023e-36
-6.62588e-36
-1.18865e-35
-1.72402e-35
-1.9019e-35
-1.33953e-35
-3.8917e-37
1.42064e-35
2.33699e-35
2.45948e-35
2.02531e-35
1.41446e-35
8.81097e-36
5.08671e-36
2.80504e-36
1.50923e-36
8.01022e-37
4.20097e-37
2.16846e-37
1.09554e-37
5.39266e-38
2.57941e-38
1.19762e-38
5.39655e-39
2.35961e-39
1.0003e-39
4.10303e-40
1.62246e-40
6.14955e-41
2.21477e-41
7.4756e-42
2.3079e-42
6.18538e-43
1.22636e-43
2.01051e-45
-1.61366e-44
-2.00525e-66
-8.73794e-56
3.24193e-50
7.76123e-48
-4.50536e-44
-3.1052e-42
-6.03447e-41
-3.37654e-40
3.59551e-39
4.83888e-38
1.42694e-37
-6.21882e-37
-5.59347e-36
-2.05768e-35
-5.30078e-35
-1.09717e-34
-1.89559e-34
-2.66633e-34
-2.87432e-34
-1.98197e-34
-2.41144e-36
2.11293e-34
3.39228e-34
3.48772e-34
2.79706e-34
1.89482e-34
1.14002e-34
6.33222e-35
3.35116e-35
1.72996e-35
8.82816e-36
4.4674e-36
2.23312e-36
1.09563e-36
5.24643e-37
2.4433e-37
1.10487e-37
4.84938e-38
2.06552e-38
8.53085e-39
3.40908e-39
1.31275e-39
4.83805e-40
1.68808e-40
5.47579e-41
1.59457e-41
3.82343e-42
5.17195e-43
-1.62867e-43
-1.94985e-43
2.91099e-64
-1.41611e-53
2.61561e-48
1.64435e-45
-1.92529e-42
-1.23215e-40
-2.27777e-39
-1.35482e-38
7.07459e-38
1.17196e-36
4.03358e-36
-7.75036e-36
-9.34786e-35
-3.48114e-34
-8.76534e-34
-1.75005e-33
-2.91396e-33
-3.9782e-33
-4.19968e-33
-2.84901e-33
-6.32708e-36
3.02904e-33
4.77149e-33
4.80668e-33
3.76285e-33
2.47758e-33
1.44228e-33
7.71736e-34
3.92126e-34
1.94098e-34
9.50896e-35
4.63361e-35
2.23819e-35
1.06411e-35
4.94593e-36
2.23717e-36
9.82561e-37
4.18706e-37
1.73077e-37
6.93396e-38
2.68595e-38
1.00108e-38
3.55921e-39
1.18951e-39
3.6372e-40
9.58527e-41
1.7903e-41
-6.52875e-43
-3.01532e-42
-2.16221e-42
6.6684e-61
-2.17515e-51
1.988e-46
1.6625e-43
-7.72326e-41
-4.65187e-39
-8.12167e-38
-4.87044e-37
1.09996e-36
2.66111e-35
1.0229e-34
-5.22939e-35
-1.44814e-33
-5.59293e-33
-1.38835e-32
-2.68252e-32
-4.30841e-32
-5.71361e-32
-5.92063e-32
-3.97338e-32
-7.28726e-36
4.17433e-32
6.48803e-32
6.42325e-32
4.91974e-32
3.15492e-32
1.78031e-32
9.19065e-33
4.48713e-33
2.12918e-33
1.00008e-33
4.68303e-34
2.18056e-34
1.00196e-34
4.50737e-35
1.97366e-35
8.38543e-36
3.45254e-36
1.37683e-36
5.3122e-37
1.97706e-37
7.05185e-38
2.38109e-38
7.43484e-39
2.04132e-39
4.24636e-40
1.53236e-41
-5.06201e-41
-3.93953e-41
-2.24711e-41
5.18039e-58
-3.15923e-49
1.40981e-44
1.33219e-41
-2.87888e-39
-1.665e-37
-2.73431e-36
-1.60435e-35
7.77008e-36
5.62257e-34
2.36884e-33
9.45032e-34
-2.02875e-32
-8.46924e-32
-2.09827e-31
-3.94082e-31
-6.11198e-31
-7.87984e-31
-8.03568e-31
-5.36792e-31
-3.69563e-33
5.5135e-31
8.50647e-31
8.30233e-31
6.23602e-31
3.90272e-31
2.13888e-31
1.0671e-31
5.01174e-32
2.28012e-32
1.02579e-32
4.60661e-33
2.06211e-33
9.12849e-34
3.95946e-34
1.67055e-34
6.82546e-35
2.69444e-35
1.0263e-35
3.76388e-36
1.32257e-36
4.40469e-37
1.35885e-37
3.68306e-38
7.43285e-39
7.37487e-41
-1.0583e-39
-8.03306e-40
-4.42048e-40
-2.21227e-40
3.10982e-55
-4.32374e-47
9.18261e-43
9.30644e-40
-9.81658e-38
-5.62392e-36
-8.67574e-35
-4.89048e-34
-3.11014e-34
1.09208e-32
5.04017e-32
5.25855e-32
-2.43834e-31
-1.19525e-30
-3.01144e-30
-5.53151e-30
-8.29646e-30
-1.04067e-29
-1.04735e-29
-7.01146e-30
-1.61063e-31
6.95537e-30
1.07235e-29
1.0352e-29
7.64287e-30
4.67723e-30
2.49421e-30
1.20474e-30
5.4508e-31
2.37913e-31
1.02455e-31
4.40423e-32
1.88976e-32
8.02787e-33
3.34047e-33
1.34891e-33
5.25102e-34
1.96162e-34
7.00353e-35
2.37492e-35
7.55083e-36
2.18425e-36
5.29589e-37
7.4603e-38
-2.31972e-38
-2.89842e-38
-1.85244e-38
-9.6615e-39
-4.51077e-39
-2.07534e-39
1.62344e-52
-5.54773e-45
5.33447e-41
5.85521e-38
-2.97994e-36
-1.78215e-34
-2.58596e-33
-1.38454e-32
-1.89192e-32
1.90927e-31
9.84396e-31
1.52476e-30
-2.14589e-30
-1.54344e-29
-4.07858e-29
-7.39193e-29
-1.07431e-28
-1.31204e-28
-1.3072e-28
-8.83493e-29
-4.31804e-30
8.346e-29
1.29573e-28
1.24154e-28
9.03102e-29
5.41459e-29
2.81463e-29
1.31857e-29
5.75644e-30
2.41285e-30
9.94453e-31
4.0853e-31
1.67489e-31
6.79515e-32
2.69385e-32
1.03057e-32
3.76306e-33
1.29746e-33
4.16353e-34
1.20973e-34
2.96485e-35
4.5655e-36
-9.02575e-37
-1.35146e-36
-8.8954e-37
-4.73919e-37
-2.27021e-37
-1.01383e-37
-4.28744e-38
-1.86111e-38
7.65596e-50
-6.62235e-43
2.58456e-39
3.35925e-36
-7.60745e-35
-5.25712e-33
-7.20677e-32
-3.63997e-31
-6.74187e-31
2.88125e-30
1.75217e-29
3.50969e-29
-2.00664e-30
-1.76097e-28
-5.16744e-28
-9.36423e-28
-1.32252e-27
-1.57363e-27
-1.55734e-27
-1.07118e-27
-9.08273e-29
9.47817e-28
1.49532e-27
1.42766e-27
1.02561e-27
6.03532e-28
3.06334e-28
1.39428e-28
5.88341e-29
2.37131e-29
9.3563e-30
3.66826e-30
1.4321e-30
5.51576e-31
2.06293e-31
7.35479e-32
2.44622e-32
7.35043e-33
1.86069e-33
3.05369e-34
-4.37161e-35
-7.64357e-35
-5.04709e-35
-2.66005e-35
-1.26053e-35
-5.60092e-36
-2.377e-36
-9.71748e-37
-3.84082e-37
-1.59806e-37
3.30888e-47
-7.26167e-41
8.25799e-38
1.76317e-34
-1.37618e-33
-1.42825e-31
-1.86538e-30
-8.85933e-30
-1.92993e-29
3.36658e-29
2.79717e-28
6.97385e-28
4.80651e-28
-1.63078e-27
-6.04438e-27
-1.11861e-26
-1.54174e-26
-1.78834e-26
-1.76444e-26
-1.24585e-26
-1.62817e-27
1.0123e-26
1.64145e-26
1.56843e-26
1.11557e-26
6.45447e-27
3.20373e-27
1.41898e-27
5.7972e-28
2.25019e-28
8.50533e-29
3.17926e-29
1.17761e-29
4.27286e-30
1.48569e-30
4.79405e-31
1.35968e-31
2.93922e-32
1.47443e-33
-3.30322e-33
-2.68187e-33
-1.51208e-33
-7.35276e-34
-3.29032e-34
-1.39505e-34
-5.69068e-35
-2.25191e-35
-8.67953e-36
-3.26286e-36
-1.3146e-36
1.31635e-44
-7.1414e-39
-1.36941e-36
8.44628e-33
-8.06068e-34
-3.51852e-30
-4.44215e-29
-1.98452e-28
-4.75572e-28
1.72015e-28
3.8732e-27
1.2268e-26
1.45293e-26
-8.58354e-27
-6.38237e-26
-1.25117e-25
-1.69412e-25
-1.91681e-25
-1.89294e-25
-1.38507e-25
-2.5806e-26
1.00835e-25
1.70578e-25
1.63963e-25
1.15779e-25
6.59727e-26
3.20653e-26
1.38395e-26
5.48294e-27
2.05282e-27
7.44066e-28
2.64982e-28
9.27462e-29
3.13783e-29
9.90561e-30
2.72325e-30
5.32207e-31
-2.08909e-32
-9.88193e-32
-7.16099e-32
-3.89888e-32
-1.85743e-32
-8.15932e-33
-3.39104e-33
-1.35356e-33
-5.23817e-34
-1.97667e-34
-7.29588e-35
-2.63682e-35
-1.0358e-35
4.81472e-42
-5.96069e-37
-5.33514e-34
3.66713e-31
1.36927e-30
-7.66978e-29
-9.59772e-28
-4.05336e-27
-1.02654e-26
-5.1244e-27
4.28184e-26
1.91486e-25
3.01845e-25
8.72833e-26
-5.81033e-25
-1.29709e-24
-1.74461e-24
-1.92708e-24
-1.91292e-24
-1.46579e-24
-3.6831e-25
9.25983e-25
1.66857e-24
1.62364e-24
1.14167e-24
6.41736e-25
3.0576e-25
1.28737e-25
4.95268e-26
1.79139e-26
6.23376e-27
2.11392e-27
6.95818e-28
2.16296e-28
5.93926e-29
1.17837e-29
-3.77858e-31
-2.17677e-30
-1.61227e-30
-8.91169e-31
-4.28926e-31
-1.89391e-31
-7.86991e-32
-3.12503e-32
-1.19799e-32
-4.46531e-33
-1.62598e-33
-5.80053e-34
-2.02971e-34
-7.81056e-35
1.61115e-39
-3.5154e-35
-5.83456e-32
1.42571e-29
7.73321e-29
-1.41591e-27
-1.84101e-26
-7.44242e-26
-1.92225e-25
-2.11837e-25
2.69406e-25
2.60928e-24
5.12628e-24
3.79039e-24
-4.00568e-24
-1.22583e-23
-1.67073e-23
-1.8049e-23
-1.809e-23
-1.46929e-23
-4.77696e-24
7.70329e-24
1.52569e-23
1.51503e-23
1.06462e-23
5.91267e-24
2.76383e-24
1.13604e-24
4.24836e-25
1.48656e-25
4.97219e-26
1.60455e-26
4.93596e-27
1.37752e-27
2.99673e-28
1.36127e-29
-3.77476e-29
-3.14868e-29
-1.8277e-29
-9.06777e-30
-4.08783e-30
-1.72209e-30
-6.89033e-31
-2.64713e-31
-9.84217e-32
-3.56234e-32
-1.26046e-32
-4.37171e-33
-1.4883e-33
-5.62887e-34
4.89206e-37
2.23909e-34
-4.6543e-30
4.86847e-28
2.8665e-27
-2.00659e-26
-3.02488e-25
-1.20171e-24
-2.97281e-24
-4.84543e-24
-2.71687e-24
2.95849e-23
7.38476e-23
7.88988e-23
-8.08918e-24
-1.02333e-22
-1.47102e-22
-1.56093e-22
-1.58724e-22
-1.38675e-22
-5.65252e-23
5.63467e-23
1.29263e-22
1.32403e-22
9.33909e-23
5.13302e-23
2.35505e-23
9.45246e-24
3.43808e-24
1.16503e-24
3.74908e-25
1.15e-25
3.27595e-26
7.87592e-27
1.00747e-27
-4.72819e-28
-5.31502e-28
-3.36765e-28
-1.75388e-28
-8.17275e-29
-3.52676e-29
-1.43566e-29
-5.57898e-30
-2.08735e-30
-7.56863e-31
-2.67314e-31
-9.23127e-32
-3.12512e-32
-1.03865e-32
-3.86978e-33
1.33191e-34
5.0204e-31
-3.02792e-28
1.41429e-26
7.7362e-26
-1.50309e-25
-4.02301e-24
-1.64839e-23
-3.13534e-23
-7.94472e-23
-1.33466e-22
2.38478e-22
8.95011e-22
1.28149e-21
3.67961e-22
-7.00213e-22
-1.16957e-21
-1.2315e-21
-1.27721e-21
-1.22333e-21
-6.10594e-22
3.40534e-22
1.00315e-21
1.07591e-21
7.66207e-22
4.1747e-22
1.87985e-22
7.36453e-23
2.60518e-23
8.55367e-24
2.64945e-24
7.7066e-25
2.00201e-25
3.79273e-26
-1.7833e-27
-7.45346e-27
-5.52366e-27
-3.09053e-27
-1.50738e-27
-6.7236e-28
-2.8064e-28
-1.11127e-28
-4.2141e-29
-1.54137e-29
-5.46866e-30
-1.89054e-30
-6.39051e-31
-2.11744e-31
-6.88753e-32
-2.53193e-32
3.19661e-32
1.02564e-28
-1.63704e-26
3.29329e-25
1.2326e-24
1.80476e-24
-4.31479e-23
-1.83115e-22
6.51377e-23
-8.48854e-22
-2.79488e-21
1.60327e-22
8.65027e-21
1.77712e-20
9.04465e-21
-2.96718e-21
-8.15704e-21
-8.71777e-21
-9.27429e-21
-9.99022e-21
-6.01102e-21
1.40339e-21
7.01802e-21
8.05761e-21
5.84182e-21
3.16108e-21
1.39584e-21
5.32994e-22
1.83203e-22
5.82707e-23
1.73652e-23
4.76604e-24
1.0969e-24
1.24274e-25
-7.52611e-26
-7.86391e-26
-4.91413e-26
-2.54984e-26
-1.187e-26
-5.11685e-27
-2.07756e-27
-8.0326e-28
-2.98092e-28
-1.06839e-28
-3.7168e-29
-1.26023e-29
-4.17802e-30
-1.35754e-30
-4.32957e-31
-1.57199e-31
6.58646e-30
1.48446e-26
-7.20777e-25
5.32516e-24
-1.49615e-23
7.73655e-23
-8.13868e-22
-1.69654e-21
1.46564e-20
-2.09931e-22
-3.97022e-20
-4.36299e-20
5.49839e-20
2.12923e-19
1.45174e-19
1.15945e-20
-4.79737e-20
-5.43212e-20
-5.94199e-20
-7.44758e-20
-5.37575e-20
-6.55525e-22
4.32255e-20
5.49801e-20
4.11159e-20
2.21416e-20
9.56671e-21
3.54999e-21
1.18299e-21
3.64046e-22
1.04176e-22
2.67032e-23
5.10817e-24
-1.33227e-25
-9.13142e-25
-6.92361e-25
-3.9201e-25
-1.92823e-25
-8.65218e-26
-3.62384e-26
-1.43598e-26
-5.43323e-27
-1.97652e-27
-6.95155e-28
-2.37452e-28
-7.90702e-29
-2.57448e-29
-8.21424e-30
-2.57197e-30
-9.22881e-31
1.10777e-27
1.73398e-24
-2.41648e-23
2.77474e-23
-2.11499e-21
8.43803e-22
-4.73663e-20
-2.62457e-20
4.41604e-19
2.61716e-19
-3.66642e-19
-1.10974e-18
-5.43528e-20
2.07062e-18
1.90317e-18
4.41887e-19
-2.41967e-19
-2.98116e-19
-3.26217e-19
-4.95015e-19
-4.35453e-19
-8.7347e-20
2.2539e-19
3.36235e-19
2.65543e-19
1.42634e-19
6.00138e-20
2.15206e-20
6.92312e-21
2.0555e-21
5.6225e-22
1.31691e-22
1.73943e-23
-7.04637e-24
-8.34748e-24
-5.40054e-24
-2.85793e-24
-1.34805e-24
-5.86267e-25
-2.39311e-25
-9.27244e-26
-3.43776e-26
-1.22716e-26
-4.23897e-27
-1.42289e-27
-4.6573e-28
-1.49058e-28
-4.67441e-29
-1.43822e-29
-5.10111e-30
1.30817e-25
1.64994e-22
-4.99369e-22
-1.24389e-21
-9.08643e-20
3.94213e-21
-2.61228e-18
-1.04415e-18
7.11394e-18
8.25628e-18
-1.38337e-18
-1.74061e-17
-8.33929e-18
1.2996e-17
2.23171e-17
5.90422e-18
-1.57213e-18
-1.62343e-18
-1.49186e-18
-2.80186e-18
-3.20618e-18
-1.09503e-18
9.20764e-19
1.79363e-18
1.5711e-18
8.42633e-19
3.41628e-19
1.17149e-19
3.61081e-20
1.02906e-20
2.66522e-21
5.41646e-22
1.07226e-23
-7.97883e-23
-6.51831e-23
-3.82005e-23
-1.92007e-23
-8.74091e-24
-3.69586e-24
-1.47275e-24
-5.58517e-25
-2.03035e-25
-7.11531e-26
-2.41504e-26
-7.96978e-27
-2.56537e-27
-8.07509e-28
-2.49034e-28
-7.53347e-29
-2.64066e-29
9.56842e-25
1.22944e-20
6.60138e-22
-3.57548e-20
-1.88521e-18
2.17657e-18
-1.62512e-16
-4.11195e-17
1.39974e-15
1.99512e-16
1.03556e-17
-1.25967e-15
-1.69952e-16
2.05218e-16
3.63994e-16
5.2254e-17
-1.72355e-17
-1.17348e-17
-5.68149e-18
-1.21766e-17
-2.21301e-17
-9.47716e-18
2.35604e-18
7.91685e-18
8.63374e-18
4.59139e-18
1.75016e-18
5.6256e-19
1.64002e-19
4.44847e-20
1.06923e-20
1.6123e-21
-4.72513e-22
-6.63092e-22
-4.52848e-22
-2.47506e-22
-1.19226e-22
-5.25674e-23
-2.16417e-23
-8.42429e-24
-3.12784e-24
-1.11505e-24
-3.83667e-25
-1.27969e-25
-4.15239e-26
-1.31469e-26
-4.07091e-27
-1.23492e-27
-3.67366e-28
-1.27184e-28
-5.83604e-21
6.67643e-19
3.55792e-19
-1.63308e-18
1.79288e-16
2.16667e-16
-6.41087e-15
8.73031e-14
3.51341e-14
-1.72528e-13
-1.57193e-13
-2.49961e-14
2.97112e-14
4.97231e-14
5.98151e-15
-4.88621e-15
-1.18209e-15
-1.3419e-16
-2.3507e-17
-4.09142e-17
-1.71692e-16
-6.75343e-17
-8.87555e-19
2.57021e-17
4.64337e-17
2.36213e-17
7.98504e-18
2.31704e-18
6.25803e-19
1.59526e-19
3.39127e-20
1.20928e-21
-5.254e-21
-4.63636e-21
-2.84713e-21
-1.47456e-21
-6.84015e-22
-2.92506e-22
-1.17281e-22
-4.45884e-23
-1.62034e-23
-5.66289e-24
-1.91261e-24
-6.26765e-25
-1.99943e-25
-6.22593e-26
-1.89629e-26
-5.65765e-27
-1.65472e-27
-5.65141e-28
-2.55203e-18
2.95289e-17
5.95678e-17
-2.20102e-16
1.94211e-14
-3.42641e-13
2.1446e-12
1.80832e-12
-7.45347e-12
-3.63404e-12
-2.19062e-12
1.76565e-11
6.89026e-12
7.34508e-13
-1.40116e-12
-7.17504e-13
-5.10766e-14
-5.37802e-15
-7.45937e-15
-7.28702e-15
-2.53462e-15
-3.72943e-16
-3.25997e-17
8.27611e-17
3.03606e-16
1.19429e-16
3.11707e-17
7.6791e-18
1.87499e-18
4.43625e-19
7.13389e-20
-2.56014e-20
-3.89016e-20
-2.85374e-20
-1.63292e-20
-8.08049e-21
-3.61529e-21
-1.49887e-21
-5.84762e-22
-2.16924e-22
-7.70891e-23
-2.63932e-23
-8.74469e-24
-2.81403e-24
-8.82144e-25
-2.70033e-25
-8.08614e-26
-2.3714e-26
-6.81374e-27
-2.29096e-27
-6.10598e-16
5.10932e-16
6.36878e-14
1.00917e-13
-3.65409e-12
-5.81363e-12
4.64107e-11
-2.43473e-10
-2.43839e-10
-4.79435e-11
1.18627e-09
3.14831e-10
4.68421e-11
-1.4091e-10
-9.14185e-11
-7.74134e-12
-6.12274e-13
-5.93987e-13
-3.68612e-13
-1.31369e-13
-1.45467e-14
2.49648e-17
9.84984e-16
1.0321e-14
4.89222e-15
5.2738e-16
8.10766e-17
1.66122e-17
3.77507e-18
8.52479e-19
2.04172e-20
-2.31285e-19
-2.35742e-19
-1.58136e-19
-8.57574e-20
-4.06309e-20
-1.75054e-20
-7.02037e-21
-2.65941e-21
-9.60917e-22
-3.33469e-22
-1.11717e-22
-3.62749e-23
-1.14529e-23
-3.52504e-24
-1.05982e-24
-3.11695e-25
-8.97355e-26
-2.52868e-26
-8.33935e-27
1.28528e-13
-1.29193e-13
4.18158e-12
-3.98022e-11
-2.06477e-10
1.76543e-09
-2.84175e-09
-3.75124e-09
-4.31011e-09
5.08321e-08
1.6283e-08
1.51376e-09
-2.95898e-08
-1.23019e-08
-9.46975e-10
-1.28708e-12
-2.204e-12
-2.762e-12
-1.61616e-12
-4.21058e-13
-2.46795e-14
-3.2193e-14
2.08458e-12
7.61843e-13
4.06023e-14
4.6599e-18
2.81303e-17
1.15762e-17
4.17754e-18
1.22518e-18
-4.8896e-19
-1.32883e-18
-1.2563e-18
-8.01241e-19
-4.12806e-19
-1.86391e-19
-7.69259e-20
-2.97116e-20
-1.08917e-20
-3.82346e-21
-1.29314e-21
-4.23217e-22
-1.34482e-22
-4.16001e-23
-1.25531e-23
-3.7007e-24
-1.06677e-24
-3.00702e-25
-8.28102e-26
-2.65993e-26
4.04195e-11
-4.67649e-11
-1.8976e-10
-2.50856e-09
1.85951e-08
2.20147e-08
-7.41099e-08
-5.37654e-08
8.47857e-07
6.32152e-07
-4.27239e-07
-2.42395e-06
-9.41357e-07
-9.47649e-08
5.60353e-11
1.33088e-11
-2.27909e-12
-4.2989e-12
-2.53375e-12
-1.07424e-13
-2.70637e-12
1.3016e-10
5.53863e-11
5.22002e-12
-2.24683e-15
-1.75494e-16
4.60295e-16
7.38499e-17
1.73675e-17
5.60791e-18
-1.55329e-18
-6.17174e-18
-6.17841e-18
-3.76124e-18
-1.81571e-18
-7.71165e-19
-3.01931e-19
-1.11555e-19
-3.93898e-20
-1.33899e-20
-4.40239e-21
-1.4045e-21
-4.35842e-22
-1.31796e-22
-3.88886e-23
-1.12049e-23
-3.15254e-24
-8.65197e-25
-2.31035e-25
-7.11576e-26
1.04521e-09
-3.33347e-09
-1.64033e-08
2.52608e-08
5.22015e-07
-1.37653e-06
-1.108e-06
3.00906e-06
6.83238e-06
1.00291e-06
-3.46642e-05
-1.97324e-05
-4.00058e-06
1.35849e-05
2.35387e-05
6.94455e-07
1.13113e-09
5.73113e-10
2.12405e-10
1.47836e-09
2.03596e-09
1.04366e-09
2.02932e-10
5.47385e-13
-1.82105e-14
7.52515e-14
9.83172e-15
1.68286e-16
5.47958e-17
3.14147e-17
1.75908e-18
-2.42284e-17
-2.95127e-17
-1.65409e-17
-7.20559e-18
-2.80913e-18
-1.02793e-18
-3.60058e-19
-1.21787e-19
-3.99423e-20
-1.27291e-20
-3.94722e-21
-1.19218e-21
-3.50935e-22
-1.00698e-22
-2.81495e-23
-7.6527e-24
-2.0159e-24
-5.11069e-25
-1.44214e-25
-1.37596e-07
-3.14073e-07
9.37084e-07
2.13688e-06
-1.76563e-06
-2.7386e-05
2.39209e-05
0.000165295
-9.24046e-05
-0.00140158
-0.00232153
0.00177062
0.015336
0.0357838
0.0527366
0.0557549
0.046198
0.0289566
0.0127189
0.00299537
4.80606e-05
9.29567e-10
5.17703e-12
-1.89794e-12
2.96982e-11
6.10059e-12
3.25075e-14
2.59274e-17
1.05642e-16
1.88073e-16
6.54742e-17
-7.52262e-17
-1.54307e-16
-6.84719e-17
-2.4725e-17
-8.50777e-18
-2.85601e-18
-9.39997e-19
-3.0325e-19
-9.56865e-20
-2.94652e-20
-8.83966e-21
-2.58016e-21
-7.31649e-22
-2.01101e-22
-5.33608e-23
-1.35666e-23
-3.25775e-24
-7.16997e-25
-1.42153e-25
-2.6981e-05
8.30499e-07
0.000191042
2.54678e-05
-0.000687741
-0.000506508
0.00139317
0.00208239
-0.00323927
-0.0137226
-0.0144956
0.016653
0.0945615
0.203519
0.298375
0.330176
0.298072
0.219513
0.12857
0.0563029
0.015059
0.000821741
1.22547e-09
1.5518e-09
4.62297e-10
2.80753e-11
-3.78999e-15
-4.28006e-16
3.86384e-15
4.43953e-15
6.90641e-16
-3.02166e-15
-1.2688e-15
-2.42199e-16
-6.14285e-17
-1.79928e-17
-5.52051e-18
-1.71596e-18
-5.31091e-19
-1.61589e-19
-4.78696e-20
-1.37074e-20
-3.76873e-21
-9.86177e-22
-2.41867e-22
-5.38288e-23
-9.97289e-24
-1.02948e-24
2.97346e-25
4.04548e-25
-0.000143588
0.000143092
0.00101217
-0.00011535
-0.00313403
-0.00160943
0.00616847
0.00718706
-0.0103914
-0.0364257
-0.0335999
0.0393768
0.204803
0.436253
0.657427
0.769703
0.741813
0.599341
0.399315
0.21266
0.0839663
0.0191406
0.000491714
1.0225e-08
4.04935e-10
-5.39352e-13
-8.21377e-14
3.98054e-13
2.11104e-13
3.95227e-14
-2.05283e-13
-8.37304e-14
-7.14159e-15
-1.4342e-17
-1.46194e-17
-8.1476e-18
-3.27649e-18
-1.16755e-18
-3.84487e-19
-1.16511e-19
-3.18401e-20
-7.49927e-21
-1.3172e-21
-3.50778e-23
1.15821e-22
7.63477e-23
3.60047e-23
1.47948e-23
5.62554e-24
2.70021e-24
-7.04564e-05
0.000111512
0.000577485
-0.000747314
-0.00329602
0.000917037
0.013881
0.0155605
-0.0113387
-0.0492579
-0.0456412
0.0427902
0.233958
0.507388
0.802109
1.0209
1.06527
0.952496
0.715423
0.441375
0.214377
0.0736087
0.0116887
9.8487e-06
2.06113e-10
1.44039e-12
1.6267e-11
4.27542e-12
1.36169e-12
-1.08891e-11
-4.69086e-12
-4.39984e-13
2.56442e-15
1.43345e-15
2.58271e-16
5.3281e-17
1.17859e-17
2.67152e-18
6.52989e-19
1.86607e-19
6.35696e-20
2.41211e-20
9.42452e-21
3.62962e-21
1.35631e-21
4.90559e-22
1.72187e-22
5.88915e-23
1.97054e-23
8.45715e-24
-9.75878e-05
0.000162296
0.000929974
-0.000541721
-0.00493908
-0.00257323
0.0142593
0.0252652
0.00034098
-0.0522669
-0.0675801
0.00653999
0.18029
0.422358
0.693587
0.942116
1.07874
1.05397
0.882563
0.618135
0.350869
0.151715
0.0417321
0.00293661
4.12809e-10
1.74676e-09
1.99175e-10
2.03474e-11
-4.33746e-10
-1.88299e-10
-2.10735e-11
1.52408e-13
8.43573e-14
1.015e-14
6.83039e-17
2.06294e-17
6.7239e-18
2.09906e-18
7.6869e-19
3.22649e-19
1.39491e-19
5.84852e-20
2.33751e-20
8.90557e-21
3.25061e-21
1.14366e-21
3.90107e-22
1.29686e-22
4.22037e-23
1.75888e-23
-0.00012848
-0.00027068
0.000928217
0.00166646
-0.00272586
-0.00742238
0.00154863
0.0206291
0.0178669
-0.0241739
-0.0691682
-0.0552797
0.048034
0.234265
0.476627
0.735129
0.938269
0.994709
0.900627
0.684946
0.429518
0.214111
0.0757861
0.0125564
6.83095e-06
3.27452e-08
-1.553e-08
-1.86956e-08
-6.91929e-09
-7.24656e-10
8.79955e-12
4.31583e-12
5.44066e-13
-2.70174e-15
-1.21705e-15
-2.72791e-16
-6.67643e-17
-1.63448e-17
-3.68972e-18
-7.02888e-19
-7.93059e-20
1.81025e-20
1.8402e-20
9.39547e-21
3.92938e-21
1.48348e-21
5.24895e-22
1.77434e-22
5.79747e-23
2.40977e-23
1.74755e-05
-0.00037394
-0.000226251
0.00164358
0.00164001
-0.00359317
-0.00694978
0.00146633
0.0145669
0.010262
-0.0210818
-0.0590084
-0.0603144
0.0098041
0.177157
0.421345
0.665611
0.79831
0.777476
0.634758
0.425637
0.227046
0.0905939
0.0211221
0.000605668
-5.22975e-07
-4.8411e-07
-1.9287e-07
-2.52455e-08
2.14838e-10
1.23235e-10
2.2474e-11
-5.51478e-14
-5.26709e-14
-7.59171e-15
-3.78803e-16
-9.95923e-17
-2.82643e-17
-7.34986e-18
-1.78145e-18
-3.91376e-19
-7.03701e-20
-6.12431e-21
2.71104e-21
2.11237e-21
9.79533e-22
3.78566e-22
1.32185e-22
4.31088e-23
1.72929e-23
5.4516e-05
4.64382e-05
-0.000399395
-0.000404497
0.00122269
0.00210925
-0.00140143
-0.00594196
-0.00201489
0.011455
0.0166839
-0.00537491
-0.0505702
-0.0750759
-0.032616
0.0947033
0.266992
0.401363
0.426213
0.369768
0.262055
0.1493
0.0649581
0.018208
0.00129688
-4.63472e-06
-2.3719e-06
-5.31875e-07
-9.06761e-09
1.60297e-09
4.80643e-10
1.4689e-11
-1.09574e-12
-2.85483e-13
-6.61945e-15
2.24285e-16
6.93207e-17
1.7139e-17
3.8436e-18
8.34235e-19
1.92409e-19
5.24338e-20
1.71374e-20
6.10121e-21
2.14058e-21
6.97535e-22
2.0264e-22
4.93024e-23
8.18155e-24
-1.97554e-24
-2.61782e-05
6.45514e-05
0.000189981
-0.000227209
-0.000740361
0.000208634
0.00189524
0.000795922
-0.00310909
-0.00284596
0.00607005
0.0143829
0.00624187
-0.0204616
-0.043198
-0.0362
0.00409665
0.055193
0.0828177
0.0789551
0.0567072
0.0306465
0.0117199
0.00217942
-9.77445e-05
-3.00002e-05
-4.06826e-06
1.28241e-07
3.88711e-08
5.89997e-09
-1.42928e-10
-5.75825e-11
-7.33475e-12
4.0011e-14
1.33191e-14
1.57553e-15
2.46681e-16
6.39512e-17
1.78798e-17
5.18263e-18
1.52988e-18
4.54341e-19
1.34878e-19
3.97768e-20
1.15242e-20
3.21867e-21
8.4083e-22
1.94307e-22
3.41175e-23
-3.01588e-24
5.87894e-07
-2.43099e-05
-7.30036e-06
0.000120998
8.91494e-05
-0.000297157
-0.000372478
0.000323334
0.000578309
-0.000900103
-0.00254079
-0.00109284
0.00373365
0.00741199
0.00510852
-0.0043193
-0.0180069
-0.030818
-0.0374721
-0.0365215
-0.0298154
-0.0199872
-0.0105029
-0.00392181
-0.000803466
2.8055e-06
4.97836e-06
1.26658e-06
6.02134e-08
-3.48343e-09
-1.40084e-09
-1.67851e-10
8.77954e-13
3.13249e-13
3.81779e-14
1.18776e-18
2.33696e-17
1.91157e-17
1.03773e-17
4.62089e-18