/*--------------------------------*- C++ -*----------------------------------*\
| =========                 |                                                 |
| \\      /  F ield         | OpenFOAM: The Open Source CFD Toolbox           |
|  \\    /   O peration     | Version:  v2006                                 |
|   \\  /    A nd           | Website:  www.openfoam.com                      |
|    \\/     M anipulation  |                                                 |
\*---------------------------------------------------------------------------*/
FoamFile
{
    version     2.0;
    format      ascii;
    class       volScalarField;
    location    "2.25";
    object      r;
}
// * * * * * * * * * * * * * * * * * * * * * * * * * * * * * * * * * * * * * //

dimensions      [1 2 0 0 0 0 0];


internalField   nonuniform List<scalar> 
350
(
-1.85689e-192
3.40457e-190
1.48028e-185
-8.95674e-182
3.8781e-178
-1.44559e-174
4.90611e-171
-1.55674e-167
4.70325e-164
-1.3766e-160
3.97779e-157
-1.15624e-153
3.42507e-150
-1.03529e-146
3.15896e-143
-9.56718e-140
2.8311e-136
-8.1021e-133
2.23439e-129
-5.95416e-126
1.54484e-122
-3.94063e-119
9.9573e-116
-2.49609e-112
6.17817e-109
-1.50209e-105
3.60501e-102
-8.74966e-99
2.22561e-95
-5.99557e-92
1.6368e-88
-4.18537e-85
9.18004e-82
-1.51598e-78
1.09207e-75
3.50058e-72
-1.36182e-68
-1.39195e-65
3.60254e-61
-2.02889e-57
6.94781e-54
-1.59593e-50
2.01484e-47
-1.921e-45
-9.55007e-41
9.66665e-38
-8.35691e-34
-2.62541e-30
-1.57808e-26
-8.28448e-23
-4.50512e-19
1.1777e-16
-1.57745e-15
6.90599e-15
-2.01872e-14
5.3242e-14
-1.35271e-13
3.32101e-13
-7.93163e-13
1.84522e-12
-4.17533e-12
9.17305e-12
-1.95208e-11
4.01218e-11
-7.9369e-11
1.50489e-10
-2.72131e-10
4.66591e-10
-7.53701e-10
1.14085e-09
-1.62067e-09
2.22011e-09
-3.21669e-09
5.70169e-09
-1.23365e-08
2.72003e-08
-5.34226e-08
8.88613e-08
-1.22141e-07
1.30682e-07
-8.01234e-08
-1.95672e-07
5.49245e-07
-5.57062e-07
3.15086e-07
2.02236e-07
4.03089e-07
2.2946e-07
7.2312e-08
-7.32214e-06
1.26839e-05
4.89301e-06
-3.26776e-05
3.22117e-05
4.00321e-05
-4.5314e-05
-4.02027e-05
0.000133086
0.000118683
-0.000167784
-0.000769372
-5.03036e-05
0.00145268
0.000930863
-0.00247192
-0.00360454
0.00360354
0.00438611
-0.00138048
-0.020325
-0.00944283
0.0494686
0.202075
0.495269
0.965307
1.62607
2.46247
3.4316
4.47104
5.51136
6.48894
7.35558
8.08315
8.6634
9.10403
9.42318
9.64388
9.78961
9.88137
9.93658
9.96768
9.98517
9.99267
9.99841
9.99938
9.99998
9.99999
9.99997
10
10
9.99997
10
9.99996
10.0001
9.99992
9.99984
10.0002
10.0008
10.0001
9.99837
9.99895
10.0027
10.0039
9.99621
9.99518
10.0023
10.0196
10.0101
9.95314
9.80263
9.51112
9.04173
8.38026
7.54186
6.56983
5.52718
4.48392
3.50416
2.6364
1.90889
1.32982
0.891216
0.574471
0.356008
0.211867
0.120811
0.0656352
0.0338807
0.0160767
0.00749824
0.00234234
0.00092555
5.05503e-05
3.5527e-05
1.45518e-05
1.02925e-05
5.5613e-06
2.30639e-06
6.16687e-08
2.33456e-08
7.82428e-10
5.90897e-10
3.35657e-10
2.79261e-10
2.10041e-10
1.49021e-10
1.02301e-10
6.91082e-11
4.65323e-11
3.117e-11
2.17072e-11
1.1092e-11
9.17184e-12
6.72997e-12
4.45467e-12
2.56785e-12
1.11997e-12
2.1804e-13
-7.38661e-13
-8.22327e-13
-7.7326e-13
-6.47064e-13
-4.78629e-13
-3.04027e-13
-7.07382e-14
-6.16626e-14
-7.49512e-14
-1.11765e-13
-1.57076e-13
-1.56525e-13
-1.42902e-13
-1.16799e-13
-8.35223e-14
-4.96587e-14
-2.03227e-14
1.6056e-15
1.50775e-14
2.22227e-14
2.57725e-14
2.66189e-14
2.501e-14
2.03383e-14
1.35578e-14
5.58314e-15
-2.97114e-15
-1.27113e-14
-2.57759e-14
-4.18917e-14
-5.17681e-14
-5.14919e-14
-4.42031e-14
-3.06768e-14
-1.43481e-14
1.72107e-15
1.28916e-14
1.59762e-14
1.62758e-14
1.64761e-14
1.91804e-14
2.65573e-14
3.65013e-14
4.19018e-14
4.17027e-14
3.61781e-14
2.46999e-14
9.4469e-15
-5.89392e-15
-1.63735e-14
-1.93166e-14
-1.78499e-14
-1.19306e-14
-2.11203e-15
9.56556e-15
2.0052e-14
2.48848e-14
2.49607e-14
2.06993e-14
1.21868e-14
1.36216e-15
-9.2388e-15
-1.73888e-14
-2.17314e-14
-2.27233e-14
-2.18362e-14
-1.89128e-14
-1.46972e-14
-1.02216e-14
-6.33741e-15
-3.5044e-15
-1.78494e-15
-9.69824e-16
-7.84929e-16
-1.05415e-15
-1.63873e-15
-2.33384e-15
-2.98267e-15
-3.51543e-15
-3.90859e-15
-4.14308e-15
-4.2206e-15
-4.13352e-15
-3.90154e-15
-3.53057e-15
-2.98483e-15
-2.12886e-15
-8.00195e-16
9.3336e-16
2.64096e-15
3.82603e-15
4.31398e-15
4.1751e-15
3.4205e-15
2.2884e-15
1.1237e-15
1.67349e-16
-4.93821e-16
-8.71701e-16
-1.02321e-15
-1.00885e-15
-8.75634e-16
-6.88628e-16
-4.94581e-16
-3.32657e-16
-2.18855e-16
-1.52621e-16
-1.27644e-16
-1.23766e-16
-1.33123e-16
-1.38427e-16
-1.36234e-16
-1.23951e-16
-1.01506e-16
-7.61186e-17
-4.73586e-17
-2.40324e-17
-2.85643e-18
9.90235e-18
1.94402e-17
2.165e-17
2.28557e-17
1.87368e-17
1.67433e-17
1.10855e-17
9.51806e-18
5.78168e-18
5.65341e-18
4.68921e-18
4.75108e-18
5.36955e-18
4.09752e-18
5.22567e-18
2.25119e-18
3.80916e-18
-1.25846e-19
2.092e-18
-1.63373e-18
6.68113e-19
-1.34505e-18
-4.50936e-19
1.13684e-18
)
;

boundaryField
{
    right
    {
        type            zeroGradient;
    }
    left
    {
        type            inletOutlet;
        inletValue      uniform 0;
        value           uniform 0;
    }
    top
    {
        type            zeroGradient;
    }
    bottom
    {
        type            zeroGradient;
    }
    empty
    {
        type            empty;
    }
}


// ************************************************************************* //
