/*--------------------------------*- C++ -*----------------------------------*\
| =========                 |                                                 |
| \\      /  F ield         | OpenFOAM: The Open Source CFD Toolbox           |
|  \\    /   O peration     | Version:  v2006                                 |
|   \\  /    A nd           | Website:  www.openfoam.com                      |
|    \\/     M anipulation  |                                                 |
\*---------------------------------------------------------------------------*/
FoamFile
{
    version     2.0;
    format      ascii;
    class       volScalarField;
    location    "0";
    object      p;
}
// * * * * * * * * * * * * * * * * * * * * * * * * * * * * * * * * * * * * * //

dimensions      [1 -1 -2 0 0 0 0];


internalField   nonuniform List<scalar> 
20000
(
2.67594e-06
2.68915e-06
2.72084e-06
2.77073e-06
2.83771e-06
2.9216e-06
3.02307e-06
3.14293e-06
3.28196e-06
3.44095e-06
3.62082e-06
3.82266e-06
4.04772e-06
4.29737e-06
4.57314e-06
4.87674e-06
5.21003e-06
5.57505e-06
5.974e-06
6.40929e-06
6.88354e-06
7.39958e-06
7.96053e-06
8.56973e-06
9.23086e-06
9.94788e-06
1.07251e-05
1.15672e-05
1.24793e-05
1.34668e-05
1.45357e-05
1.56924e-05
1.69439e-05
1.82979e-05
1.97624e-05
2.13464e-05
2.30592e-05
2.49113e-05
2.69136e-05
2.90781e-05
3.14177e-05
3.39462e-05
3.66785e-05
3.96309e-05
4.28207e-05
4.62666e-05
4.9989e-05
5.40096e-05
5.83518e-05
6.30407e-05
6.81036e-05
7.35693e-05
7.94693e-05
8.58372e-05
9.27088e-05
0.000100123
0.000108121
0.000116746
0.000126047
0.000136074
0.00014688
0.000158522
0.000171063
0.000184567
0.000199102
0.00021474
0.000231559
0.000249639
0.000269066
0.000289935
0.000312355
0.000336396
0.000362136
0.00038969
0.000419161
0.000450653
0.000484268
0.000520104
0.000558255
0.000598808
0.000641841
0.000687422
0.000735599
0.000786392
0.000839784
0.000895722
0.000954117
0.00101484
0.0010777
0.00114239
0.0012085
0.00127547
0.00134275
0.00141036
0.00148844
0.00157535
0.00163076
0.00167263
0.00170836
0.00173878
0.0017613
0.00177334
0.00177305
0.00175924
0.00173151
0.00169091
0.00164079
0.00158743
0.00153999
0.00150908
0.00150331
0.00152329
0.00155529
0.00157041
0.00153579
0.00143345
0.00127145
0.00107949
0.000894517
0.000750027
0.000669532
0.000669033
0.000763387
0.000969345
0.00130369
0.00178155
0.00241552
0.00321219
0.00416822
0.00527065
0.00650094
0.00783961
0.00926015
0.010734
0.0122257
0.0137105
0.0151586
0.0165417
0.0178333
0.0190091
0.0200466
0.0209257
0.0216279
0.022137
0.022443
0.022586
0.0224255
0.0220319
0.0214059
0.0205488
0.0194629
0.0181545
0.0166348
0.0149213
0.0130371
0.0110143
0.0088986
0.00674657
0.00462387
0.00260142
0.000746926
-0.000884449
-0.00225757
-0.00336021
-0.00419984
-0.00479661
-0.00517704
-0.00537017
-0.00540237
-0.00529738
-0.00508023
-0.004775
-0.00439375
-0.0039576
-0.003495
-0.00304369
-0.00264227
-0.00231594
-0.0020661
-0.00186989
-0.00169201
-0.00150285
-0.00128951
-0.0010529
-0.000799325
-0.000535602
-0.000267343
2.22492e-06
0.000272798
0.000546664
0.000828204
0.00112354
0.00144022
0.00178707
0.00217388
0.00261235
0.00311256
0.00369722
0.00435403
0.00524424
2.67266e-06
2.68587e-06
2.71719e-06
2.76673e-06
2.83347e-06
2.91714e-06
3.01835e-06
3.13794e-06
3.27664e-06
3.43522e-06
3.61461e-06
3.81588e-06
4.04025e-06
4.28911e-06
4.56397e-06
4.86654e-06
5.19868e-06
5.56243e-06
5.96002e-06
6.39387e-06
6.86663e-06
7.38117e-06
7.94065e-06
8.54846e-06
9.20833e-06
9.92427e-06
1.07006e-05
1.15421e-05
1.24539e-05
1.34413e-05
1.45104e-05
1.56676e-05
1.69197e-05
1.82743e-05
1.97395e-05
2.13239e-05
2.30371e-05
2.48891e-05
2.6891e-05
2.90548e-05
3.13932e-05
3.39203e-05
3.66509e-05
3.96014e-05
4.2789e-05
4.62327e-05
4.99526e-05
5.39707e-05
5.83102e-05
6.29965e-05
6.80566e-05
7.35197e-05
7.9417e-05
8.57821e-05
9.26513e-05
0.000100063
0.000108059
0.000116683
0.000125982
0.000136008
0.000146814
0.000158457
0.000170999
0.000184505
0.000199042
0.000214684
0.000231507
0.000249592
0.000269023
0.000289884
0.00031226
0.000336254
0.000361976
0.000389518
0.00041898
0.000450462
0.000484068
0.000519896
0.00055804
0.000598586
0.000641613
0.000687189
0.000735364
0.000786159
0.000839556
0.000895503
0.000953914
0.00101465
0.00107752
0.00114221
0.00120836
0.0012757
0.00134394
0.00141084
0.00146498
0.00150898
0.00156445
0.00162203
0.00167337
0.00171373
0.00174146
0.001756
0.00175703
0.00174419
0.00171749
0.00167819
0.00162965
0.00157812
0.00153255
0.00150321
0.00149824
0.00151787
0.00154831
0.00156117
0.00152465
0.00142188
0.00126163
0.00107371
0.000894234
0.000755451
0.000680103
0.00068393
0.00078201
0.000991433
0.00132906
0.00180986
0.00244622
0.00324444
0.00420083
0.00530233
0.0065305
0.00786263
0.00927418
0.0107386
0.0122302
0.013716
0.0151657
0.0165505
0.0178437
0.0190208
0.0200593
0.0209384
0.0216394
0.0221452
0.0224393
0.0224855
0.022336
0.021959
0.0213476
0.0204989
0.0194187
0.0181158
0.0166027
0.0148969
0.0130214
0.0110086
0.00890334
0.00676179
0.00464943
0.00263674
0.000790963
-0.000833295
-0.0022015
-0.00330191
-0.00414227
-0.00474271
-0.00512931
-0.00533018
-0.00537363
-0.00528443
-0.00508059
-0.00477718
-0.00439576
-0.00395816
-0.00349297
-0.00303883
-0.00263558
-0.00230928
-0.00206135
-0.00186802
-0.00169259
-0.00150465
-0.00129142
-0.00105438
-0.000800252
-0.000536052
-0.000267519
2.0803e-06
0.000272459
0.00054594
0.000826937
0.0011216
0.00143749
0.00178345
0.00216926
0.00260662
0.00310561
0.00368894
0.00434431
0.00523288
2.66977e-06
2.6834e-06
2.71497e-06
2.76467e-06
2.83155e-06
2.91532e-06
3.01659e-06
3.13621e-06
3.27492e-06
3.43352e-06
3.61293e-06
3.81424e-06
4.03868e-06
4.28764e-06
4.56263e-06
4.86537e-06
5.19773e-06
5.56173e-06
5.95961e-06
6.39377e-06
6.86685e-06
7.38169e-06
7.94142e-06
8.54942e-06
9.20935e-06
9.9252e-06
1.07013e-05
1.15423e-05
1.24533e-05
1.34396e-05
1.45074e-05
1.56628e-05
1.6913e-05
1.82654e-05
1.9728e-05
2.13097e-05
2.302e-05
2.4869e-05
2.68679e-05
2.90285e-05
3.13638e-05
3.38876e-05
3.6615e-05
3.9562e-05
4.27461e-05
4.6186e-05
4.99019e-05
5.39157e-05
5.82506e-05
6.29319e-05
6.79866e-05
7.34438e-05
7.93347e-05
8.56929e-05
9.25545e-05
9.99579e-05
0.000107945
0.000116559
0.000125847
0.000135861
0.000146654
0.000158283
0.00017081
0.000184299
0.000198819
0.000214443
0.000231248
0.000249314
0.000268726
0.000289574
0.000311944
0.000335936
0.000361646
0.000389172
0.000418616
0.000450081
0.000483669
0.00051948
0.000557608
0.00059814
0.000641155
0.000686724
0.000734896
0.000785693
0.0008391
0.000895062
0.000953491
0.00101427
0.00107722
0.00114206
0.00120833
0.00127515
0.00134144
0.00140734
0.00147541
0.00154323
0.00160931
0.00166511
0.00170983
0.00174371
0.0017668
0.00177844
0.00177761
0.00176332
0.00173506
0.00169366
0.00164234
0.0015874
0.00153834
0.00150642
0.00150121
0.00152416
0.0015613
0.00158158
0.00154916
0.00144448
0.00127688
0.00107771
0.000886754
0.000737609
0.00065337
0.000649073
0.000739313
0.000941334
0.00127228
0.00174758
0.00238051
0.0031782
0.00413707
0.00524357
0.00647887
0.00782092
0.00924566
0.010724
0.0122253
0.0137187
0.015175
0.0165656
0.0178643
0.0190466
0.0200905
0.0209756
0.0216839
0.0221997
0.0225104
0.0225906
0.0224566
0.0220767
0.0214566
0.0206001
0.0195122
0.0182009
0.0166776
0.0149582
0.0130662
0.0110351
0.00890825
0.00674223
0.00460464
0.00256818
0.000702458
-0.000935858
-0.0023112
-0.00341214
-0.00424774
-0.0048397
-0.00521532
-0.00540371
-0.00543346
-0.00532909
-0.00511111
-0.00479851
-0.00441038
-0.00396563
-0.00349283
-0.0030316
-0.00262377
-0.00229695
-0.00205253
-0.00186479
-0.00169418
-0.00150855
-0.00129543
-0.00105746
-0.00080217
-0.000536989
-0.00026789
1.77664e-06
0.000271769
0.00054448
0.000824391
0.00111771
0.00143202
0.00177619
0.00216001
0.00259516
0.00309173
0.00367238
0.00432489
0.00521017
2.66543e-06
2.67898e-06
2.7104e-06
2.75989e-06
2.82653e-06
2.91002e-06
3.011e-06
3.1303e-06
3.26867e-06
3.42689e-06
3.60587e-06
3.80669e-06
4.03059e-06
4.27893e-06
4.55324e-06
4.85521e-06
5.1867e-06
5.54974e-06
5.94654e-06
6.37951e-06
6.85128e-06
7.36472e-06
7.92294e-06
8.52933e-06
9.18757e-06
9.90166e-06
1.06759e-05
1.15151e-05
1.24242e-05
1.34087e-05
1.44746e-05
1.56282e-05
1.68765e-05
1.82269e-05
1.96876e-05
2.12674e-05
2.29755e-05
2.48223e-05
2.68187e-05
2.89766e-05
3.13088e-05
3.38293e-05
3.65529e-05
3.94958e-05
4.26752e-05
4.61101e-05
4.98205e-05
5.38283e-05
5.81567e-05
6.2831e-05
6.78781e-05
7.33272e-05
7.92094e-05
8.55583e-05
9.24099e-05
9.98028e-05
0.000107778
0.00011638
0.000125656
0.000135656
0.000146435
0.000158049
0.00017056
0.000184033
0.000198535
0.00021414
0.000230924
0.000248968
0.000268356
0.000289176
0.000311517
0.000335478
0.000361158
0.000388655
0.000418071
0.000449508
0.000483069
0.000518856
0.00055696
0.000597471
0.000640469
0.000686024
0.000734191
0.000784993
0.000838414
0.000894402
0.000952875
0.00101371
0.00107671
0.00114156
0.00120786
0.00127525
0.00134332
0.00141108
0.00147551
0.00153294
0.00158784
0.00163897
0.00168443
0.00172145
0.00174793
0.00176236
0.00176366
0.00175089
0.00172358
0.0016825
0.00163079
0.00157479
0.00152427
0.00149125
0.0014865
0.00151281
0.00155622
0.00158328
0.00155439
0.00144828
0.00127546
0.0010707
0.000875371
0.000724571
0.000640419
0.000636293
0.000726096
0.000927429
0.00125773
0.00173261
0.00236606
0.00316588
0.00412812
0.00523829
0.00647682
0.00782173
0.00924868
0.0107294
0.0122346
0.0137333
0.0151954
0.0165919
0.0178958
0.0190826
0.0201298
0.0210167
0.0217245
0.0222365
0.0225377
0.0226099
0.0224634
0.0220819
0.0214646
0.0206118
0.0195271
0.0182183
0.0166968
0.0149783
0.0130859
0.0110522
0.0089198
0.00674589
0.00459902
0.0025535
0.000680845
-0.000960785
-0.00233547
-0.00343281
-0.00426368
-0.00485127
-0.00522367
-0.00541055
-0.00544067
-0.00533813
-0.00512206
-0.00480992
-0.00441926
-0.00396881
-0.00348719
-0.00301688
-0.00260324
-0.00227645
-0.00203802
-0.00185931
-0.00169633
-0.00151432
-0.00130135
-0.00106197
-0.000804928
-0.00053827
-0.000268329
1.42737e-06
0.000270825
0.00054237
0.000820642
0.00111192
0.00142387
0.00176536
0.00214618
0.00257802
0.00307095
0.00364759
0.00429578
0.00517612
2.6596e-06
2.67305e-06
2.70443e-06
2.75384e-06
2.82038e-06
2.90376e-06
3.00458e-06
3.12369e-06
3.26183e-06
3.41977e-06
3.59843e-06
3.7989e-06
4.0224e-06
4.2703e-06
4.54414e-06
4.84559e-06
5.17653e-06
5.53898e-06
5.93515e-06
6.36744e-06
6.83849e-06
7.35114e-06
7.90851e-06
8.51398e-06
9.17121e-06
9.88418e-06
1.06572e-05
1.14949e-05
1.24024e-05
1.33851e-05
1.44489e-05
1.56002e-05
1.68458e-05
1.81933e-05
1.96508e-05
2.12268e-05
2.2931e-05
2.47733e-05
2.67649e-05
2.89177e-05
3.12443e-05
3.37588e-05
3.64761e-05
3.94121e-05
4.25843e-05
4.60114e-05
4.97136e-05
5.37124e-05
5.80314e-05
6.26955e-05
6.77318e-05
7.31692e-05
7.9039e-05
8.53746e-05
9.22119e-05
9.95894e-05
0.000107548
0.000116133
0.00012539
0.000135371
0.000146128
0.00015772
0.000170207
0.000183654
0.000198129
0.000213706
0.000230461
0.000248474
0.000267831
0.000288619
0.000310929
0.000334857
0.000360503
0.000387965
0.000417344
0.000448744
0.00048227
0.000518023
0.000556097
0.000596579
0.000639553
0.000685091
0.000733251
0.000784059
0.0008375
0.000893518
0.000952032
0.00101293
0.00107606
0.00114116
0.00120778
0.00127522
0.00134256
0.00140915
0.00147425
0.00153728
0.0015999
0.00165744
0.00170629
0.00174426
0.00177031
0.00178382
0.00178411
0.00177024
0.00174145
0.00169815
0.00164322
0.0015831
0.00152816
0.00149181
0.00148695
0.00151846
0.00157227
0.0016107
0.00158762
0.00147782
0.00129344
0.00107314
0.000863222
0.000700478
0.000606622
0.000593227
0.000673472
0.000865641
0.00118772
0.00165585
0.00228548
0.00308572
0.00405247
0.00517003
0.00641806
0.00777467
0.00921503
0.0107101
0.0122293
0.0137411
0.0152152
0.0166226
0.0179368
0.0191333
0.02019
0.0210866
0.0218046
0.0223275
0.0226402
0.0227268
0.0225878
0.0222105
0.0215921
0.0207349
0.0196436
0.0183262
0.0167935
0.0150608
0.0131502
0.0110931
0.00893296
0.0067275
0.00454742
0.00247042
0.000571812
-0.00108718
-0.00246938
-0.00356545
-0.00438881
-0.00496522
-0.00532449
-0.00549756
-0.00551416
-0.00539875
-0.00517062
-0.0048474
-0.00444595
-0.00398261
-0.00348599
-0.00300113
-0.00257802
-0.00225031
-0.00201959
-0.001853
-0.00170023
-0.00152281
-0.00130975
-0.00106824
-0.000808725
-0.000540015
-0.000268915
9.67253e-07
0.00026957
0.000539555
0.000815638
0.00110421
0.001413
0.00175092
0.00212776
0.00255519
0.00304326
0.00361456
0.00425702
0.00513076
2.65229e-06
2.66569e-06
2.697e-06
2.74629e-06
2.81265e-06
2.89578e-06
2.99631e-06
3.11506e-06
3.25278e-06
3.41025e-06
3.58838e-06
3.78825e-06
4.01108e-06
4.25825e-06
4.53127e-06
4.83182e-06
5.16177e-06
5.52312e-06
5.91808e-06
6.34905e-06
6.81863e-06
7.32969e-06
7.88532e-06
8.48888e-06
9.14404e-06
9.85477e-06
1.06254e-05
1.14605e-05
1.23652e-05
1.3345e-05
1.44056e-05
1.55535e-05
1.67956e-05
1.81393e-05
1.95927e-05
2.11645e-05
2.28641e-05
2.47017e-05
2.66881e-05
2.88354e-05
3.11562e-05
3.36643e-05
3.63747e-05
3.93034e-05
4.24676e-05
4.5886e-05
4.95788e-05
5.35676e-05
5.78756e-05
6.25279e-05
6.75515e-05
7.29752e-05
7.88303e-05
8.515e-05
9.19703e-05
9.93296e-05
0.000107269
0.000115833
0.000125067
0.000135024
0.000145756
0.00015732
0.000169778
0.000183195
0.000197638
0.00021318
0.000229898
0.000247873
0.00026719
0.000287936
0.000310202
0.000334086
0.000359687
0.000387102
0.000416435
0.00044779
0.000481271
0.000516981
0.000555016
0.000595463
0.000638406
0.000683922
0.000732074
0.000782889
0.000836353
0.000892412
0.00095099
0.00101199
0.00107524
0.00114046
0.0012072
0.00127491
0.00134304
0.00141099
0.00147728
0.00154016
0.00159991
0.00165375
0.00169981
0.00173648
0.0017624
0.00177647
0.00177758
0.00176442
0.00173576
0.00169159
0.00163445
0.00157079
0.00151159
0.00147182
0.00146699
0.00150483
0.00157152
0.00162436
0.00160903
0.00149586
0.00129932
0.00106476
0.000842537
0.000672052
0.000573803
0.000556343
0.000631646
0.000818819
0.00113632
0.00160069
0.002229
0.00303193
0.00400486
0.0051303
0.00638688
0.00775283
0.00920333
0.0107092
0.0122395
0.0137626
0.0152479
0.016666
0.0179897
0.0191947
0.0202586
0.0211608
0.0218825
0.0224069
0.0227189
0.0228048
0.0226623
0.0222829
0.0216635
0.0208057
0.0197136
0.0183945
0.0168586
0.0151203
0.0132006
0.0111296
0.00895026
0.00672086
0.00451422
0.00241164
0.000492545
-0.00117849
-0.00256318
-0.0036539
-0.00446755
-0.00503296
-0.0053816
-0.00554543
-0.00555488
-0.00543408
-0.00520124
-0.00487302
-0.00446444
-0.00399021
-0.00347759
-0.002976
-0.00254207
-0.00221426
-0.00199447
-0.00184438
-0.00170521
-0.00153367
-0.0013203
-0.00107595
-0.000813231
-0.000541897
-0.000269341
6.75855e-07
0.000268251
0.000536251
0.000809567
0.00109473
0.00139956
0.001733
0.00210485
0.00252676
0.00300876
0.00357337
0.00420864
0.00507413
2.64353e-06
2.65687e-06
2.68809e-06
2.73723e-06
2.80336e-06
2.88622e-06
2.98642e-06
3.10478e-06
3.24205e-06
3.39901e-06
3.57657e-06
3.77579e-06
3.99791e-06
4.24429e-06
4.51644e-06
4.81605e-06
5.14495e-06
5.50516e-06
5.89888e-06
6.3285e-06
6.79662e-06
7.30609e-06
7.86001e-06
8.46172e-06
9.11488e-06
9.82344e-06
1.05917e-05
1.14243e-05
1.23263e-05
1.3303e-05
1.43603e-05
1.55047e-05
1.67429e-05
1.80824e-05
1.95312e-05
2.10979e-05
2.2792e-05
2.46236e-05
2.66035e-05
2.87437e-05
3.10569e-05
3.35567e-05
3.62581e-05
3.91771e-05
4.23309e-05
4.57381e-05
4.94188e-05
5.33946e-05
5.76887e-05
6.23261e-05
6.73336e-05
7.27402e-05
7.85768e-05
8.48768e-05
9.16759e-05
9.90126e-05
0.000106928
0.000115466
0.000124673
0.0001346
0.000145301
0.000156832
0.000169256
0.000182635
0.000197039
0.00021254
0.000229215
0.000247144
0.000266414
0.00028711
0.000309327
0.000333159
0.000358706
0.000386067
0.000415344
0.000446643
0.000480071
0.000515731
0.000553719
0.000594123
0.000637029
0.000682518
0.000730658
0.000781482
0.000834975
0.00089108
0.000949721
0.00101081
0.00107423
0.00113971
0.00120684
0.00127496
0.00134332
0.00141117
0.00147742
0.00154131
0.00160314
0.00166026
0.00170984
0.00174943
0.00177735
0.00179264
0.00179443
0.00178137
0.00175194
0.00170567
0.00164478
0.0015757
0.00151023
0.00146531
0.00145987
0.00150546
0.00158878
0.00166031
0.00165459
0.00153585
0.00132191
0.00106515
0.000823072
0.000638173
0.000529417
0.000501551
0.000565318
0.000741254
0.00104853
0.00150421
0.00212777
0.00293216
0.00391219
0.00504805
0.0063171
0.00769769
0.00916482
0.0106885
0.0122368
0.0137777
0.0152798
0.0167133
0.0180514
0.0192698
0.0203464
0.0212608
0.0219942
0.0225297
0.022852
0.0229478
0.0228114
0.0224354
0.0218162
0.0209554
0.0198577
0.01853
0.0169824
0.0152282
0.0132872
0.011188
0.00897345
0.00670274
0.00445177
0.00230679
0.000353002
-0.00134031
-0.00273308
-0.0038197
-0.00462155
-0.00517148
-0.00550315
-0.00565009
-0.00564417
-0.00550961
-0.00526384
-0.00492333
-0.00450178
-0.0040098
-0.0034742
-0.00294941
-0.00250027
-0.00217129
-0.00196485
-0.00183542
-0.00171304
-0.00154824
-0.00133387
-0.00108566
-0.000818818
-0.000544187
-0.000269829
3.46782e-07
0.000266673
0.000532277
0.000802267
0.00108335
0.00138343
0.00171152
0.00207741
0.00249271
0.00296745
0.00352404
0.0041507
0.00500627
2.63332e-06
2.6466e-06
2.6777e-06
2.72666e-06
2.79254e-06
2.87508e-06
2.9749e-06
3.0928e-06
3.22954e-06
3.38589e-06
3.56275e-06
3.7612e-06
3.98245e-06
4.22786e-06
4.49895e-06
4.79739e-06
5.12501e-06
5.48382e-06
5.87599e-06
6.30392e-06
6.7702e-06
7.27766e-06
7.82938e-06
8.42871e-06
9.07928e-06
9.78503e-06
1.05502e-05
1.13795e-05
1.22779e-05
1.32507e-05
1.43039e-05
1.54437e-05
1.6677e-05
1.80112e-05
1.94544e-05
2.10151e-05
2.27026e-05
2.45272e-05
2.64996e-05
2.86317e-05
3.09361e-05
3.34267e-05
3.61181e-05
3.90263e-05
4.21685e-05
4.55632e-05
4.92305e-05
5.31918e-05
5.74703e-05
6.20909e-05
6.70804e-05
7.24676e-05
7.82834e-05
8.4561e-05
9.13361e-05
9.86471e-05
0.000106535
0.000115043
0.000124219
0.000134112
0.000144777
0.00015627
0.000168652
0.000181988
0.000196346
0.000211799
0.000228423
0.000246299
0.000265512
0.000286151
0.000308307
0.000332078
0.000357562
0.000384859
0.000414072
0.000445306
0.000478671
0.000514272
0.000552205
0.000592558
0.000635419
0.000680875
0.000729002
0.000779836
0.000833361
0.000889519
0.00094824
0.00100946
0.00107306
0.0011388
0.00120621
0.00127467
0.0013435
0.00141211
0.00147956
0.00154492
0.00160757
0.00166479
0.00171387
0.00175273
0.00178002
0.00179497
0.00179674
0.00178368
0.00175362
0.00170535
0.0016405
0.00156538
0.00149258
0.00144127
0.00143461
0.00148928
0.00159318
0.00168846
0.00169539
0.00157068
0.00133662
0.00105567
0.000793201
0.000595567
0.000479336
0.000443864
0.000498244
0.000664934
0.000963702
0.0014119
0.00203198
0.00283977
0.00382911
0.00497706
0.0062594
0.00765487
0.00913863
0.0106799
0.0122462
0.0138049
0.015324
0.0167734
0.0181259
0.0193573
0.0204453
0.0213695
0.0221111
0.0226528
0.0229794
0.0230781
0.0229423
0.0225654
0.0219445
0.0210811
0.0199796
0.0186467
0.0170915
0.0153262
0.0133685
0.0112455
0.00899877
0.00668849
0.00439378
0.00220655
0.000218689
-0.00149496
-0.00289239
-0.00397079
-0.00475732
-0.00528972
-0.00560388
-0.0057348
-0.00571581
-0.00557071
-0.00531542
-0.00496583
-0.00453347
-0.00402456
-0.0034638
-0.0029124
-0.00244579
-0.00211639
-0.00192751
-0.00182459
-0.0017232
-0.00156621
-0.00135001
-0.00109678
-0.000824854
-0.000546221
-0.000269733
5.81165e-07
0.000265378
0.00052811
0.000794147
0.0010704
0.00136491
0.00168672
0.00204562
0.00245319
0.00291944
0.00346666
0.00408327
0.00492724
2.62166e-06
2.63488e-06
2.66585e-06
2.7146e-06
2.7802e-06
2.86237e-06
2.96175e-06
3.07913e-06
3.21526e-06
3.37091e-06
3.54699e-06
3.74455e-06
3.96482e-06
4.20916e-06
4.47906e-06
4.77619e-06
5.10237e-06
5.4596e-06
5.85006e-06
6.27611e-06
6.74034e-06
7.24559e-06
7.7949e-06
8.39162e-06
9.03936e-06
9.74204e-06
1.05039e-05
1.13296e-05
1.22241e-05
1.31928e-05
1.42414e-05
1.53763e-05
1.66043e-05
1.79328e-05
1.93697e-05
2.09237e-05
2.2604e-05
2.44206e-05
2.63846e-05
2.85074e-05
3.08019e-05
3.32817e-05
3.59615e-05
3.88572e-05
4.19858e-05
4.53659e-05
4.90174e-05
5.29618e-05
5.7222e-05
6.1823e-05
6.67914e-05
7.21559e-05
7.79474e-05
8.4199e-05
9.09462e-05
9.82272e-05
0.000106083
0.000114557
0.000123696
0.000133551
0.000144174
0.000155624
0.000167959
0.000181246
0.000195552
0.00021095
0.000227516
0.000245331
0.000264481
0.000285053
0.000307142
0.000330843
0.000356255
0.000383479
0.000412617
0.000443777
0.00047707
0.000512603
0.000550473
0.000590768
0.000633577
0.000678994
0.000727103
0.000777949
0.000831512
0.00088773
0.000946533
0.00100787
0.00107168
0.00113773
0.00120558
0.00127456
0.00134395
0.00141307
0.00148112
0.00154736
0.00161111
0.00166993
0.001721
0.00176191
0.00179105
0.00180764
0.00181083
0.0017987
0.00176847
0.00171818
0.00164878
0.00156644
0.00148458
0.00142503
0.00141612
0.00148128
0.00161058
0.00173561
0.00175806
0.00162501
0.00136499
0.00105261
0.000763545
0.000548897
0.000421934
0.000374895
0.000415143
0.000568082
0.000854125
0.00129077
0.00190451
0.00271503
0.00371489
0.00487705
0.00617535
0.00758923
0.00909402
0.0106578
0.012247
0.0138283
0.015369
0.0168383
0.0182091
0.0194574
0.0205611
0.0215
0.0222551
0.0228091
0.0231464
0.023254
0.023124
0.0227501
0.0221292
0.0212628
0.0201554
0.0188136
0.0172459
0.015463
0.0134808
0.011324
0.00903329
0.00666986
0.00431691
0.0020734
3.96495e-05
-0.00170238
-0.00310804
-0.00417797
-0.00494667
-0.00545789
-0.00574998
-0.00585967
-0.00582242
-0.00566173
-0.00539183
-0.00502862
-0.00458172
-0.00405043
-0.00345732
-0.00287178
-0.00238247
-0.00205168
-0.00188418
-0.00181399
-0.00173793
-0.00158938
-0.00136996
-0.00111024
-0.000832079
-0.00054865
-0.000269662
7.94809e-07
0.000263817
0.000523253
0.000784779
0.00105554
0.00134372
0.00165839
0.00200936
0.00240816
0.00286474
0.00340129
0.0040064
0.00483711
2.60856e-06
2.62172e-06
2.65254e-06
2.70105e-06
2.76633e-06
2.8481e-06
2.94697e-06
3.06377e-06
3.19922e-06
3.35409e-06
3.52928e-06
3.72586e-06
3.94503e-06
4.18814e-06
4.4567e-06
4.75235e-06
5.07691e-06
5.43236e-06
5.82087e-06
6.24479e-06
6.7067e-06
7.20942e-06
7.756e-06
8.34973e-06
8.99423e-06
9.6934e-06
1.04515e-05
1.12731e-05
1.21631e-05
1.31269e-05
1.41702e-05
1.52995e-05
1.65214e-05
1.78432e-05
1.9273e-05
2.08192e-05
2.24912e-05
2.42989e-05
2.62531e-05
2.83656e-05
3.06488e-05
3.31165e-05
3.57833e-05
3.86649e-05
4.17785e-05
4.51424e-05
4.87764e-05
5.27019e-05
5.6942e-05
6.15212e-05
6.64663e-05
7.18057e-05
7.75703e-05
8.37929e-05
9.05092e-05
9.7757e-05
0.000105577
0.000114013
0.000123112
0.000132923
0.0001435
0.0001549
0.000167183
0.000180414
0.000194662
0.000209997
0.000226498
0.000244244
0.000263322
0.00028382
0.000305832
0.000329454
0.000354786
0.000381927
0.000410981
0.000442057
0.000475268
0.000510724
0.000548523
0.000588751
0.0006315
0.000676871
0.00072496
0.000775819
0.000829424
0.000885706
0.000944598
0.00100608
0.00107012
0.00113652
0.00120482
0.0012743
0.00134422
0.00141401
0.00148307
0.00155079
0.00161616
0.00167657
0.00172886
0.00177046
0.00179985
0.00181658
0.00182005
0.00180809
0.00177714
0.00172422
0.00164939
0.00155843
0.00146551
0.00139538
0.00138258
0.00145946
0.00161972
0.00178203
0.00182412
0.00168118
0.00139028
0.00104168
0.000723233
0.000491917
0.000356288
0.000298899
0.000325156
0.000464629
0.000738091
0.00116268
0.00177007
0.00258497
0.00359804
0.00477674
0.00609263
0.00752641
0.00905389
0.0106418
0.0122555
0.013861
0.0154247
0.0169151
0.0183052
0.0195709
0.0206903
0.0216432
0.0224106
0.0229748
0.0233201
0.0234334
0.0233063
0.0229327
0.02231
0.0214398
0.0203266
0.018977
0.0173985
0.0156001
0.013595
0.0114054
0.00907012
0.0066511
0.00423603
0.00193198
-0.000150719
-0.00192159
-0.00333287
-0.00438971
-0.00513595
-0.00562265
-0.00589045
-0.00597768
-0.00592239
-0.00574727
-0.00546406
-0.00508895
-0.00462914
-0.00407525
-0.00344564
-0.00282021
-0.00230422
-0.0019724
-0.0018319
-0.00180258
-0.00175719
-0.00161749
-0.00139292
-0.00112488
-0.000839158
-0.000550056
-0.000268229
2.27444e-06
0.000263143
0.000518704
0.000775
0.00103946
0.0013204
0.00162698
0.00196897
0.00235784
0.00280353
0.00332803
0.0039202
0.00473591
2.59403e-06
2.60712e-06
2.63777e-06
2.68603e-06
2.75095e-06
2.83226e-06
2.93059e-06
3.04674e-06
3.18143e-06
3.33544e-06
3.50965e-06
3.70512e-06
3.92307e-06
4.16483e-06
4.4319e-06
4.72592e-06
5.04868e-06
5.40215e-06
5.7885e-06
6.21007e-06
6.66942e-06
7.16936e-06
7.7129e-06
8.30334e-06
8.94427e-06
9.63958e-06
1.03935e-05
1.12105e-05
1.20956e-05
1.30541e-05
1.40918e-05
1.52148e-05
1.643e-05
1.77446e-05
1.91665e-05
2.07043e-05
2.23671e-05
2.4165e-05
2.61086e-05
2.82096e-05
3.04804e-05
3.29348e-05
3.55871e-05
3.84532e-05
4.155e-05
4.48958e-05
4.85103e-05
5.24149e-05
5.66323e-05
6.11872e-05
6.61062e-05
7.14176e-05
7.7152e-05
8.33423e-05
9.00238e-05
9.72344e-05
0.000105015
0.000113408
0.000122462
0.000132224
0.00014275
0.000154095
0.00016632
0.00017949
0.000193672
0.000208938
0.000225366
0.000243037
0.000262035
0.00028245
0.000304377
0.000327911
0.000353153
0.000380202
0.000409163
0.000440144
0.000473263
0.000508634
0.000546354
0.000586508
0.000629188
0.000674504
0.000722569
0.000773442
0.000827097
0.000883448
0.000942433
0.00100406
0.00106835
0.00113514
0.00120395
0.00127404
0.00134463
0.00141515
0.00148517
0.00155419
0.0016211
0.00168321
0.00173722
0.00178034
0.00181105
0.00182912
0.00183411
0.00182352
0.00179279
0.00173773
0.0016573
0.00155666
0.0014507
0.00136733
0.00134854
0.00143833
0.00163624
0.00184497
0.00191125
0.00175535
0.0014262
0.0010334
0.000679729
0.00042943
0.000284541
0.000214659
0.000223306
0.000346147
0.000603918
0.00101273
0.00161113
0.00243048
0.00345879
0.00465629
0.00599183
0.00744819
0.0090018
0.0106177
0.0122598
0.0138934
0.0154837
0.0169986
0.0184109
0.019697
0.0208353
0.0218056
0.0225888
0.023167
0.0235242
0.0236469
0.0235258
0.0231549
0.0225317
0.0216579
0.0205382
0.019179
0.017587
0.0157695
0.0137367
0.0115074
0.00911838
0.00663224
0.00414187
0.00176407
-0.000378643
-0.00218524
-0.0036039
-0.00464541
-0.00536549
-0.00582402
-0.00606361
-0.00612416
-0.00604724
-0.00585452
-0.00555453
-0.00516482
-0.00469051
-0.00410989
-0.00343581
-0.00276129
-0.00221214
-0.00187848
-0.00177121
-0.00179246
-0.00178392
-0.00165316
-0.00142092
-0.00114249
-0.000847783
-0.000552065
-0.000267001
3.53798e-06
0.000262008
0.000513291
0.000763837
0.00102138
0.0012944
0.00159209
0.00192421
0.00230215
0.0027358
0.00324697
0.00382478
0.00462383
2.57807e-06
2.59109e-06
2.62156e-06
2.66953e-06
2.73406e-06
2.81488e-06
2.9126e-06
3.02804e-06
3.1619e-06
3.31496e-06
3.48809e-06
3.68236e-06
3.89896e-06
4.13924e-06
4.40468e-06
4.69689e-06
5.01768e-06
5.36899e-06
5.75297e-06
6.17195e-06
6.62849e-06
7.12535e-06
7.66556e-06
8.25239e-06
8.88939e-06
9.58044e-06
1.03297e-05
1.11418e-05
1.20215e-05
1.29741e-05
1.40054e-05
1.51216e-05
1.63293e-05
1.7636e-05
1.90492e-05
2.05777e-05
2.22304e-05
2.40173e-05
2.59492e-05
2.80375e-05
3.02947e-05
3.27343e-05
3.53708e-05
3.82198e-05
4.12981e-05
4.46241e-05
4.82173e-05
5.20988e-05
5.62915e-05
6.08198e-05
6.57101e-05
7.09908e-05
7.66923e-05
8.28472e-05
8.94908e-05
9.66609e-05
0.000104398
0.000112745
0.000121748
0.000131458
0.000141927
0.000153212
0.000165373
0.000178475
0.000192585
0.000207776
0.000224124
0.00024171
0.000260621
0.000280945
0.000302777
0.000326215
0.000351358
0.000378306
0.000407162
0.000438039
0.000471057
0.000506334
0.000543966
0.000584037
0.000626639
0.000671892
0.000719928
0.000770817
0.000824525
0.000880951
0.000940027
0.0010018
0.00106635
0.00113358
0.00120298
0.00127372
0.00134498
0.00141624
0.00148728
0.00155784
0.00162672
0.00169099
0.00174696
0.00179149
0.00182305
0.00184184
0.00184785
0.00183825
0.00180742
0.00174973
0.00166277
0.00155082
0.00142919
0.00132914
0.00130134
0.00140495
0.00164862
0.00191535
0.00201176
0.00183974
0.00146444
0.00101954
0.000625746
0.00035643
0.000204568
0.000122301
0.000111548
0.000216709
0.000457623
0.000848218
0.00143611
0.00226141
0.00330829
0.00452738
0.00588442
0.00736538
0.00894776
0.0105944
0.0122676
0.0139319
0.0155512
0.0170925
0.0185287
0.0198365
0.0209947
0.021983
0.0227823
0.0233743
0.0237426
0.0238734
0.0237571
0.0233874
0.0227623
0.0218838
0.0207569
0.0193881
0.0177831
0.0159471
0.0138868
0.0116171
0.00917126
0.00661246
0.00403922
0.00157959
-0.000629489
-0.00247417
-0.00389769
-0.00491799
-0.00560602
-0.00603233
-0.00624068
-0.00627219
-0.00617309
-0.00596326
-0.0056467
-0.00524364
-0.0047571
-0.00414911
-0.00342383
-0.00269107
-0.00210206
-0.00176603
-0.00169972
-0.00178335
-0.00181855
-0.00169571
-0.00145197
-0.00116038
-0.000854932
-0.00055156
-0.000262999
7.29342e-06
0.000262779
0.000509004
0.000752903
0.00100257
0.00126666
0.00155441
0.00187555
0.00224139
0.00266173
0.00315819
0.00372016
0.0045008
2.5607e-06
2.57363e-06
2.60391e-06
2.65157e-06
2.71568e-06
2.79596e-06
2.89302e-06
3.00768e-06
3.14064e-06
3.29266e-06
3.46462e-06
3.65758e-06
3.87272e-06
4.11139e-06
4.37504e-06
4.66529e-06
4.98393e-06
5.33288e-06
5.71428e-06
6.13045e-06
6.58392e-06
7.07745e-06
7.61403e-06
8.19692e-06
8.82966e-06
9.51608e-06
1.02603e-05
1.1067e-05
1.19408e-05
1.2887e-05
1.39115e-05
1.50202e-05
1.62199e-05
1.75178e-05
1.89217e-05
2.044e-05
2.20818e-05
2.38569e-05
2.5776e-05
2.78506e-05
3.0093e-05
3.25166e-05
3.51358e-05
3.79662e-05
4.10245e-05
4.43289e-05
4.78987e-05
5.17552e-05
5.59209e-05
6.04202e-05
6.52794e-05
7.05266e-05
7.61921e-05
8.23084e-05
8.89105e-05
9.60362e-05
0.000103726
0.000112022
0.000120971
0.000130623
0.00014103
0.000152249
0.000164341
0.000177369
0.0001914
0.000206508
0.000222769
0.000240264
0.000259079
0.000279303
0.000301032
0.000324365
0.0003494
0.000376238
0.00040498
0.000435741
0.000468648
0.000503821
0.000541359
0.000581339
0.000623851
0.000669031
0.000717033
0.000767941
0.000821711
0.000878216
0.000937385
0.000999301
0.00106414
0.00113184
0.00120189
0.00127336
0.00134536
0.00141741
0.00148955
0.00156175
0.00163274
0.00169936
0.00175749
0.00180364
0.00183631
0.00185627
0.00186403
0.00185639
0.00182634
0.0017665
0.00167277
0.00154809
0.00140794
0.0012869
0.00124573
0.00136334
0.00166219
0.00200108
0.0021345
0.00194173
0.00151016
0.0010032
0.000563042
0.000274675
0.000118567
2.33411e-05
-9.91079e-06
7.57122e-05
0.000297705
0.00066611
0.00124066
0.002073
0.00314191
0.00438532
0.0057654
0.00727308
0.00888728
0.0105678
0.0122755
0.013974
0.0156252
0.0171955
0.0186579
0.0199897
0.0211699
0.0221785
0.0229964
0.0236048
0.0239867
0.024128
0.0240182
0.0236512
0.023025
0.022142
0.0210076
0.0196283
0.0180092
0.0161531