/*--------------------------------*- C++ -*----------------------------------*\
| =========                 |                                                 |
| \\      /  F ield         | OpenFOAM: The Open Source CFD Toolbox           |
|  \\    /   O peration     | Version:  v2006                                 |
|   \\  /    A nd           | Website:  www.openfoam.com                      |
|    \\/     M anipulation  |                                                 |
\*---------------------------------------------------------------------------*/
FoamFile
{
    version     2.0;
    format      ascii;
    class       volScalarField;
    location    "14";
    object      p;
}
// * * * * * * * * * * * * * * * * * * * * * * * * * * * * * * * * * * * * * //

dimensions      [1 -1 -2 0 0 0 0];


internalField   nonuniform List<scalar> 
150000
(
21152.5
21153.9
21156.7
21160.9
21166.4
21173.4
21181.7
21191.3
21202.2
21214.4
21228
21242.7
21258.8
21276
21294.5
21314.2
21335
21357
21380
21404.2
21429.3
21455.5
21482.7
21510.8
21539.8
21569.6
21600.3
21631.8
21664.1
21697
21730.7
21765
21799.9
21835.3
21871.3
21907.8
21944.7
21982.1
22019.8
22057.8
22096.1
22134.7
22173.6
22212.6
22251.8
22291.1
22330.5
22370.1
22409.6
22449.2
22488.7
22528.2
22567.6
22606.8
22645.9
22684.8
22723.5
22761.9
22800.1
22837.9
22875.5
22912.7
22949.5
22985.9
23021.8
23057.4
23092.4
23126.9
23160.9
23194.3
23227.1
23259.3
23290.9
23321.8
23352.1
23381.6
23410.4
23438.5
23465.7
23492.2
23517.9
23542.8
23566.8
23590
23612.3
23633.7
23654.2
23673.9
23692.6
23710.4
23727.3
23743.3
23758.4
23772.5
23785.6
23797.8
23808.9
23819
23828.1
23836
23842.9
23848.8
23853.6
23857.4
23860.3
23862.2
23863.1
23863.1
23862.1
23860.2
23857.3
23853.5
23848.6
23842.9
23836.2
23828.5
23820
23810.5
23800.1
23788.7
23776.3
23762.9
23748.6
23733.4
23717.5
23700.8
23683.3
23664.9
23645.6
23625.1
23603.4
23580.6
23557.1
23532.9
23508
23482.5
23456.4
23429.8
23402.6
23374.7
23346.1
23316.7
23286.6
23255.6
23224
23191.7
23158.7
23125.1
23091
23056.2
23020.9
22985
22948.6
22911.7
22874.2
22836.2
22797.8
22758.8
22719.3
22679.4
22639.1
22598.3
22557.1
22515.5
22473.6
22431.3
22388.6
22345.7
22302.4
22258.8
22215
22171
22126.7
22082.3
22037.7
21993
21948.2
21903.3
21858.3
21813.3
21768.3
21723.2
21678
21632.9
21587.7
21542.6
21497.5
21452.6
21408
21363.6
21319.6
21275.8
21232.3
21189
21145.9
21103
21060.2
21017.8
20975.6
20933.8
20892.3
20851.3
20810.7
20770.6
20730.9
20691.9
20653.3
20615.4
20578
20541.1
20504.9
20469.1
20433.8
20399
20364.7
20330.9
20297.7
20265
20232.9
20201.4
20170.5
20140.1
20110.3
20081.1
20052.3
20024.1
19996.3
19969.1
19942.3
19916
19890.1
19864.8
19839.9
19815.5
19791.6
19768.1
19745
19722.4
19700.1
19678.3
19656.9
19635.9
19615.3
19595.1
19575.2
19555.7
19536.5
19517.6
19498.9
19480.6
19462.5
19444.8
19427.5
19410.5
19393.8
19377.1
19360.9
19345.1
19329.7
19314.5
19299.6
19285
19270.6
19256.5
19242.8
19229.3
19216
19203.1
19190.5
19178.1
19166
19154.1
19142.6
19131.3
19120.3
19109.5
19099
19088.7
19078.7
19068.9
19059.3
19050
19040.9
19032
19023.4
19014.9
19006.6
18998.6
18990.7
18983
18975.5
18968.1
18960.9
18953.8
18946.9
18940.1
18933.5
18927
18920.6
18914.3
18908.1
18902
18896.1
18890.2
18884.5
18878.9
18873.4
18868
18862.7
18857.5
18852.5
18847.6
18842.9
18838.3
18833.9
18829.7
18825.6
18821.8
18818.2
18814.9
18811.8
18808.9
18806.4
18804.2
18802.4
18800.8
18799.7
18799
18798.6
18798.7
18799.3
18800.3
18801.9
18803.9
18806.4
18809.5
18813.1
18817.3
18822
18827.4
18833.3
18839.7
18846.8
18854.5
18862.7
18871.5
18881
18891
18901.5
18912.6
18924.3
18936.6
18949.3
18962.6
18976.4
18990.7
19005.5
19020.7
19036.4
19052.5
19069.1
19086
19103.3
19121
19139
19157.4
19176
19195
19214.2
19233.6
19253.3
19273.2
19293.3
19313.6
19334
19354.6
19375.3
19396.1
19417
19438
19458.9
19480
19501
19522
19543
19563.9
19584.8
19605.6
19626.3
19646.8
19667.3
19687.6
19707.6
19727.6
19747.3
19766.7
19786
19804.9
19823.6
19842.1
19860.3
19878.1
19895.7
19912.9
19929.8
19946.3
19962.3
19978
19993.3
20008.1
20022.6
20036.7
20050.3
20063.5
20076.3
20088.7
20100.7
20112.2
20123.4
20134.2
20144.6
20154.6
20164.1
20173.2
20181.8
20190
20197.8
20205.2
20212.2
20218.9
20225.3
20231.3
20237
20242.4
20247.6
20252.4
20256.9
20261.2
20265.3
20269.1
20272.6
20275.9
20279
20281.9
20284.5
20286.9
20289.1
20291.1
20292.9
20294.5
20295.8
20296.9
20297.7
20298.3
20298.6
20298.7
20298.5
20298
20297.2
20296.1
20294.8
20293.1
20291.1
20288.8
20286.2
20283.3
20280.2
20276.7
20273
20269
20264.8
20260.4
20255.8
20251
20246.1
20241.1
20236
20230.8
20225.6
20220.4
20215.3
20210.2
20205.3
20200.4
20195.8
20191.3
20187
20183
20179.2
20175.7
20172.4
20169.5
20166.8
20164.5
20162.5
20160.8
20159.4
20158.4
20157.8
20157.5
20824.5
20825.9
20828.7
20832.9
20838.5
20845.4
20853.7
20863.4
20874.3
20886.5
20900.1
20914.9
20930.9
20948.2
20966.7
20986.4
21007.2
21029.2
21052.3
21076.4
21101.6
21127.8
21155
21183.1
21212.1
21242
21272.7
21304.2
21336.5
21369.5
21403.2
21437.5
21472.4
21507.9
21543.9
21580.5
21617.4
21654.8
21692.5
21730.6
21768.9
21807.6
21846.4
21885.4
21924.6
21964
22003.4
22043
22082.5
22122.1
22161.7
22201.2
22240.6
22279.8
22318.9
22357.9
22396.5
22435
22473.2
22511.1
22548.6
22585.8
22622.7
22659.1
22695.1
22730.7
22765.7
22800.3
22834.3
22867.7
22900.6
22932.8
22964.4
22995.3
23025.6
23055.1
23083.9
23112
23139.3
23165.8
23191.5
23216.4
23240.4
23263.6
23285.9
23307.4
23327.9
23347.6
23366.3
23384.1
23401
23417
23432
23446
23459.1
23471.2
23482.3
23492.4
23501.5
23509.5
23516.4
23522.4
23527.3
23531.2
23534.1
23536
23537
23536.9
23536
23534
23531.1
23527.2
23522.3
23516.5
23509.8
23502.1
23493.4
23483.9
23473.4
23461.9
23449.5
23436.2
23422
23406.9
23390.9
23374.1
23356.5
23338
23318.5
23298.1
23276.6
23254.1
23230.6
23206.4
23181.5
23156.1
23130.1
23103.4
23076.1
23048
23019.3
22989.8
22959.7
22928.8
22897.2
22864.9
22832
22798.4
22764.2
22729.5
22694.2
22658.3
22621.9
22584.9
22547.5
22509.5
22471
22432
22392.5
22352.6
22312.2
22271.4
22230.2
22188.6
22146.6
22104.3
22061.7
22018.7
21975.4
21931.9
21888
21844
21799.7
21755.3
21710.7
21665.9
21621.1
21576.2
21531.2
21486.2
21441.1
21396
21350.9
21305.8
21260.6
21215.5
21170.5
21125.7
21081
21036.6
20992.5
20948.6
20904.9
20861.5
20818.3
20775.4
20732.7
20690.2
20648.1
20606.4
20565
20524
20483.5
20443.5
20403.9
20364.9
20326.4
20288.5
20251
20214.2
20177.7
20141.8
20106.5
20071.7
20037.4
20003.5
19970.2
19937.4
19905.3
19873.8
19842.9
19812.5
19782.8
19753.6
19724.9
19696.7
19668.9
19641.7
19614.9
19588.7
19562.9
19537.6
19512.8
19488.4
19464.5
19441
19418
19395.4
19373.2
19351.4
19330
19309
19288.4
19268.1
19248.1
19228.5
19209.2
19190.2
19171.6
19153.4
19135.4
19117.6
19100
19082.6
19065.5
19049.3
19033.5
19017.8
19002.4
18987.3
18972.4
18957.7
18943.4
18929.3
18915.5
18902
18888.8
18875.9
18863.2
18850.9
18838.8
18826.9
18815.4
18804.1
18793
18782.3
18771.8
18761.5
18751.5
18741.7
18732.2
18722.9
18713.8
18704.9
18696.3
18687.8
18679.6
18671.5
18663.6
18656
18648.4
18641.1
18633.9
18626.8
18619.9
18613.1
18606.5
18600
18593.6
18587.3
18581.1
18575.1
18569.1
18563.3
18557.5
18551.9
18546.4
18541
18535.7
18530.5
18525.5
18520.6
18515.8
18511.2
18506.8
18502.5
18498.5
18494.6
18491
18487.7
18484.5
18481.7
18479.2
18476.9
18475.1
18473.5
18472.4
18471.6
18471.3
18471.4
18471.9
18472.9
18474.4
18476.4
18479
18482
18485.6
18489.8
18494.6
18499.9
18505.8
18512.2
18519.3
18527
18535.2
18544
18553.5
18563.5
18574
18585.2
18596.8
18609.1
18621.9
18635.2
18649
18663.3
18678.1
18693.3
18709
18725.1
18741.7
18758.6
18776
18793.7
18811.7
18830
18848.7
18867.7
18886.9
18906.4
18926.1
18946
18966.2
18986.5
19006.9
19027.5
19048.3
19069.1
19090
19110.9
19131.9
19153
19174
19195
19216
19237
19257.9
19278.7
19299.4
19320
19340.4
19360.7
19380.8
19400.7
19420.5
19439.9
19459.2
19478.1
19496.8
19515.3
19533.4
19551.3
19568.9
19586.2
19603.1
19619.5
19635.6
19651.3
19666.6
19681.4
19695.9
19710
19723.6
19736.8
19749.6
19762
19773.9
19785.5
19796.6
19807.4
19817.8
19827.7
19837.2
19846.2
19854.9
19863.1
19870.9
19878.3
19885.3
19892
19898.3
19904.3
19910.1
19915.4
19920.6
19925.4
19929.9
19934.2
19938.2
19942
19945.5
19948.8
19951.9
19954.8
19957.4
19959.8
19962.1
19964
19965.8
19967.4
19968.7
19969.8
19970.6
19971.2
19971.6
19971.6
19971.4
19970.9
19970.2
19969.1
19967.7
19966
19964
19961.8
19959.2
19956.3
19953.1
19949.7
19945.9
19942
19937.7
19933.3
19928.7
19923.9
19919
19913.9
19908.8
19903.6
19898.4
19893.2
19888.1
19883
19878.1
19873.2
19868.5
19864.1
19859.8
19855.7
19852
19848.4
19845.2
19842.3
19839.6
19837.3
19835.3
19833.6
19832.2
19831.2
19830.5
19830.2
20495.4
20496.8
20499.7
20503.9
20509.5
20516.5
20524.8
20534.4
20545.4
20557.6
20571.2
20586
20602.1
20619.4
20637.9
20657.6
20678.5
20700.5
20723.7
20747.9
20773.1
20799.4
20826.6
20854.7
20883.8
20913.8
20944.5
20976.1
21008.4
21041.5
21075.2
21109.5
21144.5
21180.1
21216.1
21252.7
21289.7
21327.1
21364.9
21403
21441.4
21480
21518.9
21558
21597.2
21636.6
21676.1
21715.7
21755.3
21794.9
21834.5
21874
21913.4
21952.7
21991.8
22030.7
22069.5
22108
22146.2
22184.1
22221.7
22259
22295.8
22332.3
22368.3
22403.9
22439
22473.6
22507.6
22541.1
22574
22606.3
22637.9
22668.9
22699.1
22728.7
22757.6
22785.6
22813
22839.5
22865.2
22890.1
22914.2
22937.4
22959.7
22981.2
23001.7
23021.4
23040.2
23058
23074.9
23090.9
23105.9
23120
23133.1
23145.2
23156.3
23166.4
23175.5
23183.5
23190.4
23196.4
23201.3
23205.2
23208.1
23210.1
23211
23211
23210
23208.1
23205.2
23201.3
23196.4
23190.6
23183.8
23176.1
23167.4
23157.8
23147.3
23135.9
23123.6
23110.4
23096.2
23081.2
23065.3
23048.5
23030.8
23012.1
22992.5
22971.8
22950.1
22927.6
22904.2
22880.1
22855.4
22830
22804.1
22777.4
22750
22722
22693.2
22663.7
22633.5
22602.5
22570.9
22538.7
22505.7
22472.2
22438
22403.2
22367.9
22332
22295.6
22258.6
22221.1
22183
22144.5
22105.5
22066
22026
21985.6
21944.7
21903.5
21861.9
21819.9
21777.5
21734.8
21691.8
21648.5
21604.9
21561.1
21517
21472.7
21428.3
21383.6
21338.9
21294
21249
21204
21158.9
21113.8
21068.6
21023.4
20978.3
20933.1
20888
20843
20798.2
20753.6
20709.1
20665
20621
20577.3
20533.8
20490.6
20447.7
20404.9
20362.5
20320.4
20278.7
20237.3
20196.4
20155.8
20115.8
20076.2
20037.1
19998.6
19960.5
19923.1
19886.1
19849.9
19814.1
19778.7
19743.9
19709.5
19675.7
19642.4
19609.8
19577.7
19546.2
19515.3
19485
19455.2
19425.9
19397.2
19368.9
19341.2
19314
19287.2
19261
19235.2
19209.9
19185.1
19160.7
19136.8
19113.3
19090.2
19067.6
19045.4
19023.6
19002.3
18981.3
18960.7
18940.4
18920.6
18901
18881.7
18862.8
18844.2
18825.8
18807.9
18790.2
18772.8
18755.8
18739
18722.5
18706.3
18690.5
18675
18659.8
18644.9
18630.3
18615.9
18601.9
18588.1
18574.6
18561.4
18548.5
18535.8
18523.4
18511.3
18499.5
18488
18476.7
18465.6
18454.9
18444.4
18434.1
18424.1
18414.3
18404.8
18395.5
18386.4
18377.6
18368.9
18360.5
18352.2
18344.2
18336.3
18328.6
18321.1
18313.7
18306.5
18299.5
18292.6
18285.8
18279.2
18272.7
18266.3
18260
18253.8
18247.8
18241.8
18236
18230.2
18224.6
18219.1
18213.7
18208.4
18203.2
18198.1
18193.2
18188.5
18183.9
18179.4
18175.2
18171.1
18167.2
18163.6
18160.2
18157.1
18154.2
18151.7
18149.4
18147.5
18145.9
18144.8
18144
18143.6
18143.7
18144.2
18145.2
18146.7
18148.7
18151.2
18154.3
18157.9
18162
18166.8
18172.1
18178
18184.4
18191.5
18199.2
18207.4
18216.3
18225.7
18235.7
18246.3
18257.4
18269.1
18281.4
18294.2
18307.5
18321.3
18335.6
18350.5
18365.7
18381.5
18397.6
18414.2
18431.2
18448.5
18466.2
18484.3
18502.7
18521.4
18540.4
18559.6
18579.1
18598.9
18618.8
18639
18659.3
18679.8
18700.4
18721.1
18742
18762.9
18783.9
18804.9
18826
18847
18868.1
18889.1
18910.1
18931
18951.8
18972.5
18993.1
19013.6
19033.9
19054.1
19074
19093.7
19113.2
19132.5
19151.5
19170.3
19188.8
19207
19224.9
19242.4
19259.7
19276.5
19293
19309.1
19324.8
19340.1
19355
19369.4
19383.5
19397.1
19410.4
19423.1
19435.5
19447.5
19459
19470.1
19480.8
19491.1
19501
19510.4
19519.4
19528
19536.2
19544
19551.4
19558.4
19565.1
19571.4
19577.5
19583.1
19588.5
19593.6
19598.4
19603
19607.2
19611.2
19615
19618.5
19621.8
19624.9
19627.8
19630.4
19632.8
19635
19637
19638.8
19640.3
19641.7
19642.8
19643.6
19644.2
19644.6
19644.6
19644.4
19643.9
19643.2
19642.1
19640.7
19639
19637.1
19634.8
19632.2
19629.3
19626.1
19622.7
19618.9
19614.9
19610.7
19606.3
19601.6
19596.8
19591.9
19586.8
19581.7
19576.5
19571.3
19566.1
19560.9
19555.8
19550.8
19545.9
19541.2
19536.7
19532.4
19528.3
19524.5
19521
19517.8
19514.8
19512.2
19509.8
19507.8
19506.1
19504.7
19503.7
19503
19502.7
20165.4
20166.7
20169.6
20173.9
20179.5
20186.5
20194.8
20204.5
20215.5
20227.7
20241.3
20256.2
20272.3
20289.7
20308.2
20328
20349
20371
20394.2
20418.5
20443.8
20470.1
20497.4
20525.6
20554.8
20584.8
20615.6
20647.3
20679.7
20712.8
20746.6
20781
20816.1
20851.7
20887.8
20924.5
20961.6
20999
21036.9
21075
21113.5
21152.2
21191.1
21230.2
21269.6
21309
21348.6
21388.2
21427.9
21467.6
21507.2
21546.7
21586.2
21625.5
21664.7
21703.7
21742.4
21781
21819.2
21857.2
21894.9
21932.2
21969.1
22005.6
22041.7
22077.3
22112.5
22147.1
22181.2
22214.7
22247.7
22280
22311.6
22342.7
22373
22402.6
22431.5
22459.6
22487
22513.6
22539.3
22564.3
22588.4
22611.6
22634
22655.5
22676.1
22695.9
22714.7
22732.5
22749.5
22765.5
22780.5
22794.6
22807.7
22819.8
22830.9
22841
22850
22858.1
22865.1
22871.1
22876
22880
22882.9
22884.9
22885.9
22885.9
22884.9
22882.9
22880
22876.1
22871.2
22865.4
22858.6
22850.9
22842.2
22832.6
22822.1
22810.7
22798.4
22785.2
22771
22755.9
22739.9
22723
22705.2
22686.4
22666.7
22646
22624.3
22601.9
22578.6
22554.6
22530
22504.6
22478.6
22451.9
22424.5
22396.4
22367.5
22338
22307.8
22276.8
22245.2
22212.9
22179.9
22146.4
22112.2
22077.4
22042
22006.1
21969.6
21932.5
21895
21856.9
21818.3
21779.2
21739.6
21699.6
21659.2
21618.3
21577
21535.3
21493.3
21450.9
21408.1
21365.1
21321.7
21278.1
21234.2
21190.1
21145.7
21101.2
21056.5
21011.7
20966.7
20921.7
20876.6
20831.5
20786.3
20741.1
20695.9
20650.7
20605.6
20560.5
20515.5
20470.7
20426
20381.5
20337.2
20293.2
20249.4
20205.8
20162.5
20119.5
20076.8
20034.3
19992.2
19950.5
19909.1
19868.2
19827.7
19787.7
19748.2
19709.1
19670.6
19632.5
19595
19558.1
19521.7
19485.8
19450.5
19415.7
19381.5
19347.7
19314.5
19281.8
19249.7
19218.1
19187.2
19156.8
19127
19097.7
19069
19040.8
19013.1
18985.8
18959.1
18932.9
18907.1
18881.8
18857.1
18832.7
18808.8
18785.4
18762.4
18739.8
18717.6
18695.8
18674.5
18653.5
18632.8
18612.6
18592.7
18573.1
18553.9
18534.9
18516.4
18498.1
18480.1
18462.4
18445
18427.8
18411
18394.6
18378.6
18362.8
18347.4
18332.2
18317.3
18302.6
18288.3
18274.3
18260.5
18247
18233.8
18220.9
18208.2
18195.8
18183.8
18171.9
18160.4
18149.1
18138.1
18127.3
18116.8
18106.6
18096.6
18086.8
18077.3
18068
18059
18050.1
18041.5
18033.1
18024.8
18016.8
18008.9
18001.3
17993.8
17986.4
17979.2
17972.2
17965.3
17958.5
17951.9
17945.4
17939
17932.7
17926.5
17920.5
17914.5
17908.7
17902.9
17897.3
17891.7
17886.3
17881
17875.8
17870.7
17865.8
17861
17856.4
17851.9
17847.6
17843.5
17839.6
17835.9
17832.5
17829.3
17826.4
17823.8
17821.5
17819.6
17818
17816.8
17816
17815.6
17815.6
17816.1
17817
17818.5
17820.5
17823
17826
17829.6
17833.7
17838.4
17843.7
17849.6
17856.1
17863.2
17870.8
17879.1
17888
17897.4
17907.4
17918
17929.2
17940.9
17953.2
17966
17979.4
17993.3
18007.6
18022.5
18037.8
18053.5
18069.7
18086.3
18103.3
18120.7
18138.5
18156.6
18175
18193.8
18212.8
18232.1
18251.6
18271.4
18291.4
18311.6
18332
18352.5
18373.1
18393.9
18414.8
18435.7
18456.8
18477.8
18498.9
18520
18541.1
18562.2
18583.2
18604.1
18625
18645.8
18666.4
18686.9
18707.3
18727.5
18747.5
18767.3
18786.8
18806.1
18825.1
18843.9
18862.4
18880.6
18898.4
18916
18933.3
18950.1
18966.6
18982.7
18998.5
19013.8
19028.7
19043.1
19057.2
19070.8
19084
19096.8
19109.2
19121.1
19132.6
19143.7
19154.3
19164.6
19174.4
19183.8
19192.8
19201.4
19209.5
19217.3
19224.7
19231.7
19238.4
19244.7
19250.7
19256.3
19261.7
19266.8
19271.5
19276
19280.3
19284.3
19288
19291.5
19294.8
19297.9
19300.7
19303.3
19305.8
19308
19310
19311.7
19313.3
19314.6
19315.7
19316.6
19317.2
19317.5
19317.6
19317.4
19316.9
19316.2
19315.1
19313.7
19312.1
19310.1
19307.8
19305.2
19302.3
19299.1
19295.7
19291.9
19287.9
19283.7
19279.2
19274.6
19269.8
19264.8
19259.7
19254.5
19249.3
19244.1
19238.8
19233.6
19228.5
19223.4
19218.6
19213.8
19209.3
19204.9
19200.8
19197
19193.4
19190.1
19187.1
19184.5
19182.1
19180.1
19178.3
19177
19175.9
19175.3
19175
19834.2
19835.6
19838.5
19842.8
19848.4
19855.4
19863.8
19873.5
19884.5
19896.8
19910.5
19925.4
19941.6
19959
19977.7
19997.5
20018.5
20040.7
20064
20088.3
20113.7
20140.1
20167.5
20195.8
20225.1
20255.2
20286.1
20317.8
20350.3
20383.5
20417.4
20452
20487.1
20522.8
20559.1
20595.8
20633
20670.5
20708.4
20746.7
20785.2
20824.1
20863.1
20902.3
20941.7
20981.3
21020.9
21060.6
21100.4
21140.1
21179.8
21219.4
21258.9
21298.3
21337.5
21376.5
21415.4
21454
21492.3
21530.3
21568
21605.4
21642.4
21678.9
21715.1
21750.8
21786
21820.7
21854.8
21888.4
21921.4
21953.8
21985.6
22016.6
22047
22076.7
22105.7
22133.9
22161.3
22187.9
22213.7
22238.7
22262.9
22286.2
22308.6
22330.2
22350.9
22370.6
22389.5
22407.4
22424.4
22440.4
22455.5
22469.6
22482.7
22494.8
22505.9
22516
22525.1
22533.2
22540.2
22546.2
22551.2
22555.2
22558.2
22560.2
22561.2
22561.2
22560.2
22558.3
22555.4
22551.5
22546.6
22540.8
22534
22526.3
22517.6
22508
22497.5
22486.1
22473.8
22460.6
22446.4
22431.2
22415.2
22398.2
22380.3
22361.4
22341.6
22320.9
22299.3
22276.8
22253.7
22229.8
22205.2
22179.9
22153.8
22127.1
22099.6
22071.4
22042.5
22012.9
21982.6
21951.6
21920
21887.6
21854.6
21821
21786.8
21751.9
21716.5
21680.5
21644
21606.9
21569.2
21531.1
21492.4
21453.3
21413.6
21373.6
21333
21292.1
21250.7
21209
21166.8
21124.4
21081.6
21038.4
20995
20951.3
20907.3
20863.2
20818.8
20774.2
20729.4
20684.5
20639.5
20594.4
20549.3
20504.1
20458.8
20413.5
20368.3
20323
20277.8
20232.7
20187.7
20142.8
20098
20053.5
20009.2
19965.1
19921.2
19877.6
19834.3
19791.2
19748.4
19706
19663.8
19622.1
19580.7
19539.8
19499.3
19459.3
19419.7
19380.6
19342.1
19304.1
19266.6
19229.6
19193.2
19157.4
19122.1
19087.3
19053
19019.3
18986.1
18953.4
18921.3
18889.7
18858.8
18828.4
18798.5
18769.2
18740.5
18712.3
18684.6
18657.4
18630.6
18604.4
18578.7
18553.5
18528.7
18504.4
18480.5
18457.1
18434.1
18411.5
18389.4
18367.7
18346.3
18325.4
18304.8
18284.5
18264.6
18245.1
18225.9
18207
18188.4
18170.1
18152.2
18134.5
18117.2
18100.1
18083.4
18066.9
18050.8
18035
18019.5
18004.3
17989.4
17974.8
17960.5
17946.4
17932.7
17919.2
17906
17893.1
17880.4
17868.1
17856
17844.2
17832.6
17821.4
17810.4
17799.6
17789.1
17778.9
17768.9
17759.2
17749.7
17740.4
17731.4
17722.5
17713.9
17705.5
17697.3
17689.3
17681.4
17673.8
17666.3
17659
17651.8
17644.8
17637.9
17631.1
17624.5
17618
17611.6
17605.3
17599.2
17593.1
17587.1
17581.3
17575.5
17569.9
17564.3
17558.9
17553.5
17548.3
17543.2
17538.2
17533.4
17528.7
17524.2
17519.9
17515.8
17511.8
17508.1
17504.6
17501.4
17498.4
17495.8
17493.4
17491.4
17489.8
17488.5
17487.6
17487.2
17487.2
17487.6
17488.5
17489.9
17491.9
17494.3
17497.3
17500.9
17505
17509.7
17515
17520.9
17527.3
17534.4
17542.1
17550.4
17559.2
17568.7
17578.7
17589.4
17600.6
17612.3
17624.7
17637.5
17650.9
17664.8
17679.2
17694.1
17709.5
17725.3
17741.5
17758.2
17775.3
17792.7
17810.5
17828.7
17847.2
17865.9
17885
17904.4
17924
17943.8
17963.9
17984.1
18004.5
18025.1
18045.8
18066.6
18087.5
18108.5
18129.6
18150.7
18171.9
18193
18214.2
18235.3
18256.3
18277.3
18298.2
18319
18339.7
18360.3
18380.7
18400.9
18420.9
18440.7
18460.3
18479.7
18498.7
18517.6
18536.1
18554.3
18572.2
18589.8
18607.1
18624
18640.5
18656.6
18672.3
18687.6
18702.5
18717
18731.1
18744.7
18757.9
18770.7
18783
18794.9
18806.4
18817.5
18828.1
18838.3
18848.1
18857.5
18866.4
18874.9
18883.1
18890.8
18898.2
18905.2
18911.8
18918.1
18924
18929.7
18935
18940
18944.8
18949.2
18953.4
18957.4
18961.1
18964.6
18967.9
18970.9
18973.7
18976.3
18978.7
18980.9
18982.9
18984.7
18986.2
18987.6
18988.7
18989.5
18990.1
18990.5
18990.6
18990.4
18989.9
18989.2
18988.1
18986.8
18985.1
18983.1
18980.8
18978.2
18975.4
18972.2
18968.7
18964.9
18960.9
18956.7
18952.2
18947.5
18942.7
18937.7
18932.6
18927.4
18922.1
18916.8
18911.5
18906.3
18901.1
18896
18891.1
18886.3
18881.8
18877.3
18873.2
18869.3
18865.7
18862.3
18859.3
18856.6
18854.2
18852.1
18850.3
18849
18847.9
18847.3
18847
19502.1
19503.5
19506.3
19510.6
19516.3
19523.4
19531.8
19541.5
19552.6
19565
19578.7
19593.7
19610
19627.5
19646.2
19666.2
19687.3
19709.6
19732.9
19757.4
19782.9
19809.4
19836.9
19865.3
19894.7
19924.9
19956
19987.8
20020.4
20053.7
20087.7
20122.4
20157.7
20193.5
20229.8
20266.7
20304
20341.6
20379.7
20418
20456.7
20495.6
20534.8
20574.2
20613.7
20653.3
20693.1
20732.9
20772.7
20812.5
20852.3
20891.9
20931.5
20971
21010.3
21049.4
21088.3
21126.9
21165.3
21203.4
21241.2
21278.6
21315.7
21352.3
21388.6
21424.3
21459.6
21494.4
21528.6
21562.3
21595.4
21627.9
21659.7
21690.8
21721.3
21751.1
21780.1
21808.4
21835.9
21862.6
21888.5
21913.6
21937.8
21961.2
21983.7
22005.3
22026
22045.8
22064.7
22082.7
22099.7
22115.8
22130.9
22145
22158.2
22170.3
22181.5
22191.6
22200.7
22208.8
22215.9
22222
22227
22231.1
22234.1
22236.1
22237.1
22237.2
22236.2
22234.3
22231.4
22227.5
22222.7
22216.8
22210.1
22202.3
22193.7
22184.1
22173.6
22162.1
22149.8
22136.5
22122.2
22107.1
22091
22073.9
22056
22037.1
22017.3
21996.6
21975
21952.6
21929.5
21905.6
21881
21855.7
21829.6
21802.8
21775.3
21747
21718.1
21688.4
21658.1
21627
21595.3
21562.9
21529.8
21496.2
21461.8
21426.9
21391.4
21355.4
21318.7
21281.6
21243.8
21205.6
21166.9
21127.6
21087.9
21047.7
21007.1
20966.1
20924.6
20882.8
20840.6
20798
20755.1
20711.9
20668.4
20624.6
20580.6
20536.3
20491.8
20447.2
20402.3
20357.4
20312.3
20267.1
20221.8
20176.5
20131.2
20085.9
20040.5
19995.2
19950
19904.8
19859.7
19814.8
19770
19725.4
19681
19636.8
19592.9
19549.2
19505.7
19462.6
19419.8
19377.3
19335.1
19293.3
19251.9
19211
19170.5
19130.4
19090.9
19051.8
19013.2
18975.2
18937.7
18900.7
18864.3
18828.5
18793.2
18758.4
18724.1
18690.4
18657.2
18624.5
18592.4
18560.8
18529.9
18499.5
18469.6
18440.3
18411.6
18383.4
18355.7
18328.5
18301.8
18275.6
18249.9
18224.7
18200
18175.7
18151.9
18128.5
18105.5
18083
18060.9
18039.2
18017.8
17996.9
17976.3
17956.1
17936.3
17916.7
17897.5
17878.7
17860.1
17841.9
17823.9
17806.3
17789
17771.9
17755.2
17738.8
17722.7
17706.9
17691.5
17676.3
17661.4
17646.8
17632.4
17618.4
17604.6
17591.2
17578
17565.1
17552.4
17540.1
17528
17516.2
17504.7
17493.4
17482.4
17471.7
17461.2
17451
17441.1
17431.3
17421.9
17412.6
17403.6
17394.8
17386.2
17377.8
17369.6
17361.6
17353.8
17346.2
17338.7
17331.4
17324.2
17317.2
17310.3
17303.6
17297
17290.5
17284.1
17277.8
17271.7
17265.6
17259.6
17253.8
17248
17242.3
17236.7
17231.3
17225.9
17220.7
17215.5
17210.5
17205.7
17201
17196.4
17192
17187.8
17183.8
17180
17176.5
17173.2
17170.2
17167.4
17165
17162.9
17161.2
17159.9
17158.9
17158.4
17158.3
17158.7
17159.6
17161
17162.8
17165.3
17168.2
17171.7
17175.8
17180.5
17185.8
17191.7
17198.1
17205.2
17212.9
17221.2
17230.1
17239.5
17249.6
17260.3
17271.5
17283.3
17295.7
17308.6
17322.1
17336
17350.5
17365.4
17380.9
17396.7
17413
17429.8
17446.9
17464.4
17482.3
17500.5
17519.1
17537.9
17557.1
17576.5
17596.2
17616.1
17636.2
17656.5
17676.9
17697.6
17718.4
17739.2
17760.2
17781.3
17802.4
17823.6
17844.8
17866
17887.2
17908.4
17929.5
17950.6
17971.5
17992.4
18013.1
18033.7
18054.2
18074.5
18094.6
18114.4
18134.1
18153.4
18172.6
18191.4
18210
18228.2
18246.2
18263.8
18281.1
18298
18314.5
18330.6
18346.4
18361.7
18376.6
18391.1
18405.2
18418.8
18432
18444.8
18457.1
18469
18480.4
18491.4
18502
18512.2
18522
18531.3
18540.2
18548.7
18556.8
18564.5
18571.8
18578.7
18585.3
18591.6
18597.5
18603.1
18608.3
18613.3
18618
18622.5
18626.6
18630.6
18634.2
18637.7
18640.9
18643.9
18646.7
18649.3
18651.7
18653.9
18655.9
18657.6
18659.2
18660.5
18661.6
18662.5
18663.1
18663.5
18663.6
18663.4
18662.9
18662.2
18661.1
18659.8
18658.1
18656.2
18653.9
18651.3
18648.4
18645.2
18641.7
18638
18633.9
18629.7
18625.2
18620.5
18615.6
18610.5
18605.4
18600.1
18594.8
18589.5
18584.1
18578.8
18573.6
18568.5
18563.5
18558.7
18554
18549.5
18545.4
18541.4
18537.7
18534.3
18531.3
18528.5
18526
18523.9
18522.1
18520.7
18519.7
18519
18518.7
19168.9
19170.3
19173.2
19177.5
19183.2
19190.3
19198.7
19208.5
19219.7
19232.2
19246
19261.1
19277.4
19295.1
19313.9
19334
19355.2
19377.6
19401.1
19425.7
19451.3
19477.9
19505.6
19534.1
19563.6
19594
19625.2
19657.1
19689.9
19723.4
19757.5
19792.3
19827.7
19863.7
19900.2
19937.1
19974.6
20012.4
20050.6
20089.1
20127.9
20166.9
20206.2
20245.7
20285.4
20325.2
20365
20404.9
20444.8
20484.7
20524.6
20564.4
20604
20643.6
20683
20722.2
20761.1
20799.9
20838.4
20876.6
20914.4
20952
20989.1
21025.9
21062.2
21098
21133.4
21168.3
21202.6
21236.4
21269.6
21302.1
21334
21365.3
21395.8
21425.7
21454.8
21483.2
21510.8
21537.6
21563.6
21588.7
21613
21636.5
21659.1
21680.8
21701.6
21721.4
21740.4
21758.4
21775.5
21791.6
21806.8
21820.9
21834.1
21846.3
21857.5
21867.7
21876.9
21885
21892.2
21898.3
21903.4
21907.4
21910.5
21912.6
21913.7
21913.7
21912.8
21910.9
21908
21904.1
21899.3
21893.5
21886.7
21879
21870.3
21860.7
21850.2
21838.7
21826.3
21812.9
21798.6
21783.4
21767.3
21750.2
21732.2
21713.3
21693.6
21672.9
21651.4
21629.1
21606
21582.1
21557.4
21532.1
21505.9
21479.1
21451.5
21423.2
21394.1
21364.4
21334
21302.8
21271
21238.6
21205.4
21171.7
21137.3
21102.3
21066.7
21030.6
20993.8
20956.6
20918.8
20880.4
20841.6
20802.2
20762.4
20722.1
20681.4
20640.3
20598.7
20556.8
20514.5
20471.8
20428.8
20385.5
20341.9
20298
20253.9
20209.5
20165
20120.2
20075.3
20030.2
19985
19939.8
19894.4
19849
19803.6
19758.1
19712.7
19667.3
19622
19576.7
19531.6
19486.6
19441.7
19397
19352.5
19308.2
19264.2
19220.4
19176.9
19133.7
19090.8
19048.3
19006.1
18964.3
18922.8
18881.9
18841.3
18801.2
18761.6
18722.5
18684
18645.9
18608.4
18571.4
18535
18499.2
18463.8
18429
18394.7
18361
18327.8
18295.1
18263
18231.5
18200.5
18170.1
18140.3
18111
18082.3
18054.1
18026.4
17999.3
17972.6
17946.5
17920.8
17895.6
17870.9
17846.7
17822.9
17799.6
17776.7
17754.2
17732.1
17710.4
17689.1
17668.2
17647.7
17627.5
17607.7
17588.2
17569
17550.2
17531.7
17513.5
17495.6
17478
17460.7
17443.7
17427
17410.6
17394.5
17378.7
17363.2
17348
17333.1
17318.5
17304.2
17290.2
17276.4
17263
17249.8
17236.9
17224.2
17211.9
17199.8
17188.1
17176.6
17165.3
17154.3
17143.6
17133.2
17123
17113
17103.3
17093.9
17084.7
17075.7
17066.9
17058.3
17050
17041.8
17033.8
17026
17018.4
17011
17003.7
16996.6
16989.6
16982.7
16976
16969.4
16962.9
16956.5
16950.2
16944.1
16938
16932
16926.2
16920.4
16914.7
16909.1
16903.6
16898.2
16892.9
16887.7
16882.7
16877.8
16873
16868.4
16863.9
16859.7
16855.6
16851.7
16848.1
16844.7
16841.6
16838.8
16836.3
16834.2
16832.4
16830.9
16829.9
16829.3
16829.2
16829.5
16830.3
16831.6
16833.4
16835.8
16838.7
16842.2
16846.3
16850.9
16856.2
16862
16868.5
16875.6
16883.3
16891.6
16900.5
16910
16920.1
16930.8
16942.1
16954
16966.4
16979.3
16992.8
17006.9
17021.4
17036.4
17051.9
17067.9
17084.3
17101.1
17118.3
17135.9
17153.8
17172.1
17190.8
17209.7
17228.9
17248.4
17268.2
17288.1
17308.3
17328.7
17349.3
17370
17390.8
17411.8
17432.9
17454
17475.2
17496.5
17517.7
17539
17560.3
17581.5
17602.7
17623.8
17644.8
17665.8
17686.6
17707.2
17727.8
17748.1
17768.2
17788.2
17807.8
17827.3
17846.5
17865.4
17884
17902.3
17920.3
17938
17955.3
17972.2
17988.7
18004.9
18020.7
18036
18050.9
18065.4
18079.5
18093.1
18106.3
18119.1
18131.4
18143.2
18154.7
18165.7
18176.2
18186.3
18196
18205.3
18214.2
18222.6
18230.7
18238.3
18245.6
18252.5
18259
18265.2
18271.1
18276.6
18281.8
18286.8
18291.4
18295.8
18299.9
18303.8
18307.4
18310.8
18314
18317
18319.8
18322.3
18324.7
18326.8
18328.8
18330.6
18332.1
18333.4
18334.6
18335.4
18336.1
18336.4
18336.5
18336.4
18335.9
18335.2
18334.2
18332.8
18331.2
18329.2
18326.9
18324.4
18321.5
18318.3
18314.8
18311
18306.9
18302.6
18298.1
18293.4
18288.4
18283.3
18278.1
18272.8
18267.4
18262
18256.6
18251.3
18246
18240.8
18235.7
18230.8
18226.1
18221.6
18217.3
18213.3
18209.6
18206.1
18203
18200.1
18197.6
18195.4
18193.6
18192.2
18191.1
18190.5
18190.2
18834.7
18836.1
18839
18843.3
18849.1
18856.2
18864.7
18874.6
18885.9
18898.4
18912.3
18927.5
18944
18961.8
18980.7
19000.9
19022.3
19044.8
19068.4
19093.2
19118.9
19145.7
19173.5
19202.2
19231.9
19262.4
19293.7
19325.9
19358.8
19392.4
19426.8
19461.7
19497.3
19533.4
19570.1
19607.2
19644.8
19682.7
19721.1
19759.8
19798.7
19838
19877.4
19917.1
19956.8
19996.7
20036.7
20076.8
20116.8
20156.8
20196.8
20236.7
20276.5
20316.1
20355.6
20394.9
20434
20472.9
20511.5
20549.7
20587.7
20625.4
20662.6
20699.5
20735.9
20771.9
20807.4
20842.3
20876.8
20910.6
20943.9
20976.6
21008.6
21040
21070.6
21100.6
21129.8
21158.3
21186
21212.9
21238.9
21264.2
21288.6
21312.2
21334.8
21356.6
21377.5
21397.4
21416.4
21434.5
21451.7
21467.8
21483.1
21497.3
21510.6
21522.8
21534.1
21544.3
21553.5
21561.7
21568.9
21575.1
21580.2
21584.4
21587.5
21589.6
21590.7
21590.8
21589.9
21588.1
21585.2
21581.3
21576.5
21570.7
21563.9
21556.2
21547.5
21537.9
21527.3
21515.8
21503.4
21490
21475.7
21460.4
21444.3
21427.2
21409.2
21390.3
21370.5
21349.9
21328.4
21306.1
21283
21259.1
21234.4
21208.9
21182.8
21155.8
21128.2
21099.8
21070.7
21040.9
21010.4
20979.1
20947.3
20914.7
20881.5
20847.6
20813.2
20778.1
20742.4
20706.1
20669.3
20631.9
20594
20555.5
20516.6
20477.1
20437.2
20396.8
20356
20314.7
20273
20231
20188.6
20145.8
20102.7
20059.2
20015.5
19971.5
19927.3
19882.8
19838.1
19793.3
19748.2
19703.1
19657.8
19612.4
19566.9
19521.4
19475.9
19430.3
19384.8
19339.3
19293.9
19248.5
19203.3
19158.2
19113.2
19068.4
19023.8
18979.5
18935.3
18891.5
18847.9
18804.6
18761.6
18719
18676.7
18634.9
18593.4
18552.4
18511.8
18471.7
18432
18392.9
18354.3
18316.2
18278.7
18241.7
18205.2
18169.3
18134
18099.2
18064.9
18031.2
17998
17965.3
17933.2
17901.7
17870.8
17840.4
17810.6
17781.3
17752.6
17724.4
17696.8
17669.7
17643.1
17616.9
17591.3
17566.2
17541.6
17517.4
17493.6
17470.3
17447.5
17425
17403
17381.3
17360.1
17339.2
17318.7
17298.6
17278.8
17259.4
17240.2