/*--------------------------------*- C++ -*----------------------------------*\
| =========                 |                                                 |
| \\      /  F ield         | OpenFOAM: The Open Source CFD Toolbox           |
|  \\    /   O peration     | Version:  v2006                                 |
|   \\  /    A nd           | Website:  www.openfoam.com                      |
|    \\/     M anipulation  |                                                 |
\*---------------------------------------------------------------------------*/
FoamFile
{
    version     2.0;
    format      ascii;
    class       volScalarField;
    location    "14";
    object      p_rgh;
}
// * * * * * * * * * * * * * * * * * * * * * * * * * * * * * * * * * * * * * //

dimensions      [1 -1 -2 0 0 0 0];


internalField   nonuniform List<scalar> 
150000
(
1695.97
1697.36
1700.15
1704.36
1709.94
1716.88
1725.17
1734.78
1745.71
1757.94
1771.46
1786.24
1802.28
1819.55
1838.02
1857.69
1878.52
1900.47
1923.53
1947.67
1972.84
1999.02
2026.17
2054.27
2083.26
2113.12
2143.82
2175.31
2207.55
2240.52
2274.17
2308.47
2343.37
2378.84
2414.84
2451.32
2488.25
2525.59
2563.29
2601.32
2639.65
2678.23
2717.05
2756.07
2795.27
2834.6
2874.04
2913.56
2953.11
2992.68
3032.22
3071.69
3111.07
3150.32
3189.4
3228.3
3266.98
3305.41
3343.57
3381.43
3418.97
3456.15
3492.96
3529.37
3565.34
3600.86
3635.89
3670.41
3704.39
3737.81
3770.63
3802.85
3834.42
3865.34
3895.57
3925.1
3953.91
3981.96
4009.24
4035.73
4061.41
4086.27
4110.29
4133.45
4155.76
4177.19
4197.74
4217.39
4236.12
4253.94
4270.84
4286.82
4301.87
4315.98
4329.13
4341.3
4352.44
4362.54
4371.57
4379.53
4386.42
4392.27
4397.1
4400.93
4403.78
4405.68
4406.62
4406.61
4405.64
4403.71
4400.82
4396.96
4392.14
4386.37
4379.66
4372.02
4363.46
4353.98
4343.55
4332.16
4319.77
4306.4
4292.09
4276.91
4260.96
4244.25
4226.77
4208.41
4189.05
4168.56
4146.87
4124.13
4100.61
4076.37
4051.47
4025.96
3999.92
3973.34
3946.13
3918.23
3889.6
3860.22
3830.08
3799.13
3767.49
3735.19
3702.23
3668.64
3634.47
3599.71
3564.39
3528.53
3492.12
3455.18
3417.72
3379.74
3341.25
3302.28
3262.82
3222.91
3182.56
3141.78
3100.59
3059.02
3017.07
2974.76
2932.12
2889.15
2845.88
2802.33
2758.52
2714.47
2670.22
2625.78
2581.19
2536.48
2491.67
2446.79
2401.84
2356.84
2311.79
2266.68
2221.54
2176.37
2131.19
2086.05
2041.01
1996.14
1951.5
1907.14
1863.08
1819.31
1775.79
1732.48
1689.37
1646.45
1603.74
1561.28
1519.11
1477.27
1435.81
1394.77
1354.17
1314.06
1274.44
1235.36
1196.82
1158.86
1121.47
1084.65
1048.38
1012.6
977.315
942.491
908.21
874.444
841.207
808.53
776.428
744.91
713.976
683.617
653.819
624.56
595.822
567.584
539.833
512.561
485.768
459.451
433.617
408.266
383.38
359.001
335.068
311.579
288.511
265.854
243.612
221.794
200.4
179.419
158.832
138.614
118.749
99.2175
79.9966
61.0715
42.4244
24.0569
5.99985
-11.6973
-29.017
-45.967
-62.7312
-79.4065
-95.6151
-111.357
-126.814
-142.001
-156.913
-171.544
-185.891
-199.955
-213.736
-227.235
-240.452
-253.389
-266.046
-278.427
-290.532
-302.363
-313.925
-325.219
-336.249
-347.02
-357.536
-367.802
-377.823
-387.604
-397.157
-406.49
-415.597
-424.478
-433.143
-441.601
-449.859
-457.924
-465.804
-473.506
-481.036
-488.403
-495.614
-502.674
-509.591
-516.371
-523.02
-529.543
-535.945
-542.229
-548.401
-554.461
-560.412
-566.255
-571.99
-577.615
-583.129
-588.528
-593.809
-598.965
-603.99
-608.876
-613.615
-618.196
-622.607
-626.836
-630.869
-634.693
-638.29
-641.645
-644.74
-647.557
-650.078
-652.281
-654.149
-655.661
-656.798
-657.538
-657.864
-657.755
-657.193
-656.16
-654.639
-652.614
-650.07
-646.994
-643.372
-639.194
-634.45
-629.133
-623.237
-616.756
-609.688
-602.031
-593.786
-584.955
-575.541
-565.548
-554.983
-543.854
-532.169
-519.938
-507.173
-493.886
-480.09
-465.798
-451.026
-435.788
-420.102
-403.982
-387.446
-370.512
-353.197
-335.518
-317.495
-299.146
-280.489
-261.544
-242.329
-222.864
-203.168
-183.263
-163.168
-142.895
-122.457
-101.877
-81.177
-60.3764
-39.4939
-18.548
2.44287
23.4605
44.4865
65.5024
86.4898
107.43
128.304
149.093
169.78
190.347
210.776
231.05
251.15
271.056
290.751
310.221
329.45
348.426
367.138
385.582
403.751
421.635
439.208
456.439
473.297
489.765
505.834
521.501
536.767
551.633
566.098
580.155
593.798
607.019
619.813
632.187
644.156
655.736
666.934
677.742
688.137
698.097
707.605
716.664
725.283
733.482
741.278
748.69
755.735
762.429
768.785
774.816
780.533
785.944
791.06
795.892
800.448
804.738
808.772
812.558
816.104
819.415
822.499
825.36
828.001
830.426
832.635
834.628
836.401
837.952
839.274
840.36
841.203
841.796
842.129
842.195
841.985
841.493
840.712
839.636
838.26
836.581
834.599
832.314
829.728
826.847
823.676
820.227
816.51
812.541
808.337
803.919
799.309
794.531
789.613
784.581
779.464
774.299
769.111
763.932
758.79
753.726
748.768
743.942
739.276
734.794
730.522
726.483
722.696
719.177
715.937
712.988
710.34
708.002
705.985
704.287
702.94
701.947
701.291
700.978
1694.97
1696.36
1699.17
1703.39
1708.98
1715.94
1724.24
1733.86
1744.8
1757.04
1770.56
1785.36
1801.41
1818.69
1837.18
1856.86
1877.7
1899.68
1922.76
1946.91
1972.1
1998.3
2025.48
2053.6
2082.62
2112.51
2143.23
2174.74
2207.01
2240
2273.67
2307.99
2342.92
2378.42
2414.44
2450.95
2487.91
2525.28
2563.02
2601.09
2639.45
2678.06
2716.9
2755.94
2795.14
2834.49
2873.94
2913.47
2953.05
2992.64
3032.2
3071.69
3111.08
3150.34
3189.44
3228.35
3267.05
3305.5
3343.68
3381.56
3419.12
3456.33
3493.17
3529.61
3565.61
3601.15
3636.21
3670.76
3704.77
3738.21
3771.06
3803.29
3834.89
3865.82
3896.08
3925.62
3954.44
3982.51
4009.81
4036.31
4062.01
4086.89
4110.92
4134.1
4156.42
4177.86
4198.41
4218.07
4236.81
4254.63
4271.52
4287.48
4302.48
4316.54
4329.62
4341.72
4352.82
4362.9
4371.95
4379.97
4386.94
4392.87
4397.79
4401.69
4404.6
4406.52
4407.47
4407.44
4406.45
4404.49
4401.57
4397.69
4392.84
4387.04
4380.29
4372.59
4363.95
4354.37
4343.86
4332.41
4320.03
4306.72
4292.49
4277.38
4261.42
4244.63
4226.99
4208.47
4189
4168.56
4147.1
4124.59
4101.1
4076.87
4052.04
4026.65
4000.61
3973.92
3946.57
3918.55
3889.8
3860.34
3830.18
3799.33
3767.74
3735.44
3702.49
3668.92
3634.74
3599.99
3564.67
3528.8
3492.38
3455.43
3417.96
3379.97
3341.48
3302.49
3263.02
3223.09
3182.72
3141.92
3100.71
3059.12
3017.15
2974.83
2932.17
2889.19
2845.91
2802.36
2758.54
2714.49
2670.23
2625.78
2581.17
2536.43
2491.59
2446.67
2401.69
2356.67
2311.61
2266.52
2221.4
2176.26
2131.13
2086.04
2041.04
1996.19
1951.54
1907.13
1862.98
1819.09
1775.44
1732.03
1688.85
1645.89
1603.18
1560.75
1518.63
1476.85
1435.47
1394.5
1353.99
1313.96
1274.42
1235.4
1196.91
1158.96
1121.55
1084.7
1048.19
1012.34
977.016
942.211
907.865
874.023
840.71
807.949
775.795
744.271
713.355
683.031
653.275
624.06
595.363
567.161
539.444
512.204
485.441
459.162
433.367
408.06
383.252
358.891
334.99
311.524
288.486
265.872
243.679
221.895
200.506
179.497
158.854
138.559
118.604
98.9884
79.7026
60.7469
42.133
23.8536
5.86674
-11.8855
-29.4701
-46.9437
-63.9775
-80.2149
-96.0246
-111.66
-127.075
-142.245
-157.149
-171.775
-186.12
-200.182
-213.961
-227.458
-240.674
-253.609
-266.266
-278.644
-290.748
-302.578
-314.138
-325.431
-336.46
-347.23
-357.745
-368.009
-378.028
-387.806
-397.344
-406.64
-415.721
-424.584
-433.235
-441.682
-449.929
-457.984
-465.855
-473.548
-481.07
-488.428
-495.631
-502.685
-509.596
-516.37
-523.015
-529.534
-535.934
-542.217
-548.388
-554.45
-560.403
-566.249
-571.988
-577.619
-583.14
-588.548
-593.838
-599.005
-604.042
-608.942
-613.695
-618.291
-622.718
-626.964
-631.016
-634.858
-638.474
-641.848
-644.962
-647.798
-650.338
-652.562
-654.449
-655.981
-657.136
-657.896
-658.239
-658.147
-657.601
-656.583
-655.076
-653.063
-650.53
-647.463
-643.85
-639.68
-634.943
-629.631
-623.739
-617.262
-610.196
-602.541
-594.296
-585.463
-576.046
-566.05
-555.48
-544.344
-532.652
-520.413
-507.638
-494.34
-480.532
-466.227
-451.442
-436.191
-420.491
-404.359
-387.811
-370.864
-353.538
-335.848
-317.814
-299.454
-280.784
-261.825
-242.593
-223.108
-203.388
-183.452
-163.316
-143.009
-122.551
-101.957
-81.245
-60.4322
-39.5374
-18.5792
2.42409
23.454
44.4923
65.5206
86.5205
107.474
128.361
149.165
169.869
190.455
210.905
231.201
251.321
271.244
290.95
310.424
329.652
348.623
367.331
385.773
403.949
421.845
439.433
456.68
473.555
490.04
506.124
521.803
537.077
551.947
566.413
580.471
594.114
607.331
620.118
632.478
644.425
655.976
667.139
677.91
688.271
698.202
707.692
716.74
725.356
733.554
741.35
748.76
755.8
762.486
768.831
774.849
780.551
785.949
791.052
795.871
800.416
804.697
808.722
812.499
816.037
819.343
822.422
825.279
827.919
830.343
832.553
834.547
836.323
837.875
839.199
840.288
841.133
841.728
842.063
842.131
841.924
841.434
840.655
839.58
838.204
836.526
834.543
832.257
829.668
826.783
823.608
820.152
816.429
812.453
808.243
803.817
799.198
794.412
789.485
784.443
779.31
774.135
768.937
763.748
758.591
753.52
748.554
743.722
739.05
734.563
730.285
726.244
722.457
718.939
715.701
712.755
710.11
707.775
705.755
704.056
702.699
701.689
701.033
700.734
1692.94
1694.32
1697.15
1701.4
1707.02
1714
1722.31
1731.94
1742.89
1755.15
1768.69
1783.51
1799.59
1816.9
1835.42
1855.14
1876.02
1898.04
1921.16
1945.36
1970.6
1996.85
2024.08
2052.25
2081.32
2111.26
2142.02
2173.59
2205.91
2238.95
2272.68
2307.05
2342.03
2377.58
2413.65
2450.21
2487.21
2524.62
2562.4
2600.5
2638.88
2677.53
2716.4
2755.47
2794.71
2834.09
2873.59
2913.16
2952.78
2992.39
3031.97
3071.48
3110.89
3150.18
3189.3
3228.24
3266.97
3305.46
3343.68
3381.6
3419.2
3456.45
3493.33
3529.8
3565.84
3601.43
3636.52
3671.1
3705.14
3738.61
3771.5
3803.76
3835.39
3866.35
3896.64
3926.21
3955.06
3983.15
4010.47
4037
4062.72
4087.61
4111.66
4134.86
4157.2
4178.67
4199.25
4218.92
4237.69
4255.53
4272.44
4288.41
4303.44
4317.52
4330.62
4342.73
4353.84
4363.91
4372.96
4380.97
4387.94
4393.88
4398.8
4402.72
4405.64
4407.58
4408.54
4408.52
4407.54
4405.58
4402.66
4398.77
4393.91
4388.09
4381.31
4373.58
4364.91
4355.33
4344.83
4333.43
4321.12
4307.89
4293.75
4278.7
4262.77
4245.97
4228.28
4209.63
4189.97
4169.28
4147.62
4125.06
4101.68
4077.6
4052.88
4027.54
4001.55
3974.89
3947.53
3919.46
3890.65
3861.16
3830.95
3800.05
3768.44
3736.15
3703.22
3669.66
3635.49
3600.74
3565.41
3529.51
3493.07
3456.08
3418.57
3380.53
3341.99
3302.96
3263.45
3223.49
3183.08
3142.25
3101.01
3059.39
3017.39
2975.04
2932.35
2889.34
2846.04
2802.45
2758.6
2714.53
2670.24
2625.76
2581.13
2536.36
2491.49
2446.53
2401.5
2356.41
2311.28
2266.12
2220.94
2175.76
2130.61
2085.53
2040.55
1995.71
1951.07
1906.64
1862.45
1818.51
1774.81
1731.35
1688.13
1645.15
1602.45
1560.03
1517.92
1476.17
1434.81
1393.86
1353.34
1313.29
1273.71
1234.64
1196.07
1158.04
1120.56
1083.63
1047.39
1011.58
976.237
941.383
907.023
873.185
839.919
807.272
775.209
743.719
712.806
682.46
652.665
623.405
594.665
566.433
538.701
511.463
484.714
458.452
432.674
407.375
382.551
358.181
334.263
310.783
287.736
265.115
242.917
221.136
199.763
178.785
158.186
137.946
118.05
98.4808
79.2321
60.2936
41.661
23.3424
5.35277
-12.3104
-29.6617
-46.7188
-63.5163
-80.0159
-96.1748
-111.984
-127.476
-142.675
-157.586
-172.213
-186.555
-200.615
-214.391
-227.886
-241.098
-254.03
-266.683
-279.058
-291.158
-302.984
-314.539
-325.827
-336.851
-347.615
-358.123
-368.38
-378.391
-388.16
-397.693
-407.001
-416.079
-424.942
-433.593
-442.038
-450.284
-458.337
-466.204
-473.893
-481.411
-488.765
-495.963
-503.011
-509.917
-516.687
-523.327
-529.842
-536.237
-542.517
-548.685
-554.744
-560.696
-566.541
-572.281
-577.913
-583.436
-588.847
-594.142
-599.314
-604.359
-609.267
-614.03
-618.637
-623.077
-627.338
-631.405
-635.264
-638.898
-642.292
-645.426
-648.284
-650.845
-653.09
-655
-656.554
-657.732
-658.513
-658.878
-658.808
-658.282
-657.284
-655.796
-653.801
-651.284
-648.231
-644.63
-640.469
-635.74
-630.434
-624.545
-618.068
-611
-603.341
-595.089
-586.249
-576.821
-566.813
-556.23
-545.079
-533.371
-521.115
-508.322
-495.005
-481.176
-466.851
-452.044
-436.771
-421.047
-404.89
-388.317
-371.344
-353.991
-336.274
-318.212
-299.825
-281.129
-262.144
-242.889
-223.383
-203.643
-183.687
-163.535
-143.207
-122.725
-102.107
-81.3695
-60.532
-39.6127
-18.63
2.39776
23.4522
44.5149
65.5675
86.5917
107.569
128.481
149.308
170.034
190.639
211.106
231.416
251.551
271.493
291.228
310.739
330.014
349.043
367.809
386.298
404.493
422.381
439.944
457.162
474.018
490.496
506.585
522.279
537.572
552.459
566.936
580.998
594.639
607.856
620.645
633.011
644.958
656.492
667.616
678.326
688.615
698.477
707.911
716.919
725.509
733.691
741.478
748.883
755.919
762.601
768.942
774.953
780.646
786.032
791.123
795.929
800.461
804.729
808.743
812.51
816.039
819.337
822.409
825.261
827.896
830.317
832.525
834.518
836.293
837.847
839.172
840.264
841.113
841.711
842.051
842.124
841.921
841.435
840.66
839.588
838.215
836.539
834.557
832.27
829.68
826.793
823.614
820.153
816.423
812.439
808.217
803.779
799.145
794.342
789.395
784.333
779.184
773.984
768.764
763.559
758.355
753.269
748.281
743.424
738.728
734.218
729.91
725.847
722.043
718.511
715.26
712.303
709.652
707.312
705.29
703.586
702.223
701.209
700.542
700.238
1689.85
1691.24
1694.09
1698.35
1704
1710.99
1719.32
1728.98
1739.95
1752.24
1765.82
1780.68
1796.79
1814.16
1832.74
1852.51
1873.45
1895.53
1918.72
1942.99
1968.3
1994.62
2021.91
2050.15
2079.29
2109.3
2140.14
2171.77
2204.16
2237.28
2271.08
2305.53
2340.58
2376.2
2412.35
2448.98
2486.06
2523.53
2561.37
2599.53
2637.97
2676.68
2715.61
2754.74
2794.05
2833.51
2873.08
2912.72
2952.4
2992.06
3031.69
3071.25
3110.7
3150.02
3189.19
3228.17
3266.94
3305.47
3343.74
3381.71
3419.36
3456.66
3493.58
3530.11
3566.2
3601.83
3636.97
3671.61
3705.7
3739.22
3772.15
3804.47
3836.15
3867.16
3897.49
3927.11
3956
3984.14
4011.5
4038.07
4063.83
4088.76
4112.86
4136.11
4158.5
4180.01
4200.64
4220.36
4239.16
4257.03
4273.97
4289.96
4305
4319.07
4332.17
4344.29
4355.39
4365.48
4374.55
4382.58
4389.59
4395.57
4400.53
4404.48
4407.43
4409.39
4410.37
4410.36
4409.39
4407.43
4404.51
4400.61
4395.74
4389.9
4383.11
4375.38
4366.71
4357.13
4346.64
4335.24
4322.92
4309.67
4295.48
4280.37
4264.37
4247.48
4229.69
4210.94
4191.21
4170.49
4148.85
4126.35
4103.09
4079.12
4054.47
4029.14
4003.13
3976.42
3949
3920.86
3892.04
3862.51
3832.26
3801.33
3769.7
3737.39
3704.44
3670.85
3636.66
3601.86
3566.49
3530.55
3494.06
3457.02
3419.46
3381.37
3342.78
3303.7
3264.14
3224.13
3183.67
3142.79
3101.5
3059.82
3017.77
2975.37
2932.62
2889.57
2846.21
2802.58
2758.68
2714.56
2670.22
2625.69
2581
2536.18
2491.24
2446.22
2401.13
2355.99
2310.81
2265.61
2220.41
2175.23
2130.08
2084.99
2040.01
1995.17
1950.49
1906
1861.73
1817.69
1773.89
1730.34
1687.04
1644.01
1601.26
1558.82
1516.72
1474.99
1433.64
1392.71
1352.23
1312.2
1272.66
1233.6
1195.06
1157.03
1119.53
1082.57
1046.19
1010.34
975.037
940.248
905.97
872.192
838.955
806.275
774.172
742.649
711.703
681.33
651.515
622.245
593.504
565.279
537.559
510.337
483.609
457.372
431.62
406.349
381.553
357.218
333.337
309.896
286.887
264.3
242.123
220.348
198.965
177.966
157.338
137.076
117.165
97.5922
78.3526
59.441
40.8524
22.5754
4.59435
-13.1072
-30.5466
-47.7084
-64.5143
-80.9075
-96.9454
-112.688
-128.149
-143.331
-158.233
-172.853
-187.19
-201.245
-215.016
-228.505
-241.712
-254.638
-267.285
-279.653
-291.746
-303.565
-315.113
-326.392
-337.407
-348.162
-358.66
-368.907
-378.908
-388.664
-398.186
-407.477
-416.541
-425.387
-434.02
-442.448
-450.676
-458.713
-466.565
-474.239
-481.744
-489.087
-496.274
-503.313
-510.212
-516.975
-523.61
-530.121
-536.515
-542.794
-548.964
-555.026
-560.983
-566.836
-572.585
-578.229
-583.766
-589.193
-594.506
-599.699
-604.766
-609.699
-614.489
-619.125
-623.596
-627.889
-631.991
-635.886
-639.558
-642.991
-646.166
-649.064
-651.667
-653.954
-655.905
-657.5
-658.718
-659.539
-659.943
-659.908
-659.418
-658.452
-656.993
-655.025
-652.533
-649.501
-645.918
-641.773
-637.055
-631.757
-625.872
-619.396
-612.327
-604.661
-596.401
-587.548
-578.105
-568.079
-557.475
-546.301
-534.567
-522.282
-509.46
-496.111
-482.25
-467.89
-453.048
-437.738
-421.977
-405.781
-389.169
-372.156
-354.762
-337.005
-318.902
-300.472
-281.734
-262.707
-243.41
-223.862
-204.081
-184.087
-163.898
-143.535
-123.015
-102.359
-81.5833
-60.7079
-39.7508
-18.7303
2.33515
23.4271
44.5273
65.6174
86.6792
107.694
128.645
149.513
170.281
190.93
211.444
231.804
251.99
271.983
291.763
311.31
330.608
349.64
368.396
386.87
405.057
422.945
440.516
457.751
474.63
491.133
507.248
522.962
538.268
553.162
567.639
581.696
595.329
608.534
621.311
633.659
645.582
657.083
668.167
678.832
689.08
698.906
708.312
717.299
725.872
734.038
741.809
749.196
756.212
762.871
769.187
775.171
780.836
786.195
791.259
796.039
800.546
804.791
808.782
812.529
816.04
819.321
822.38
825.222
827.85
830.266
832.47
834.462
836.238
837.793
839.121
840.217
841.071
841.675
842.022
842.102
841.907
841.429
840.66
839.595
838.229
836.557
834.579
832.294
829.704
826.815
823.632
820.166
816.429
812.435
808.201
803.747
799.097
794.273
789.304
784.217
779.042
773.813
768.56
763.316
758.102
752.973
747.948
743.055
738.323
733.782
729.412
725.318
721.476
717.917
714.635
711.647
708.966
706.6
704.555
702.827
701.464
700.448
699.783
699.486
1685.73
1687.13
1689.98
1694.25
1699.92
1706.94
1715.29
1724.98
1736
1748.33
1761.97
1776.89
1793.08
1810.51
1829.17
1849.02
1870.04
1892.21
1915.48
1939.83
1965.23
1991.64
2019.02
2047.34
2076.58
2106.68
2137.61
2169.34
2201.83
2235.04
2268.94
2303.48
2338.63
2374.34
2410.58
2447.3
2484.46
2522.02
2559.95
2598.2
2636.75
2675.55
2714.59
2753.83
2793.24
2832.79
2872.43
2912.14
2951.88
2991.6
3031.29
3070.9
3110.41
3149.78
3189.01
3228.04
3266.87
3305.45
3343.77
3381.8
3419.51
3456.87
3493.85
3530.44
3566.59
3602.28
3637.49
3672.19
3706.34
3739.93
3772.93
3805.31
3837.06
3868.14
3898.53
3928.21
3957.16
3985.36
4012.78
4039.41
4065.24
4090.23
4114.39
4137.7
4160.15
4181.71
4202.38
4222.15
4240.99
4258.9
4275.88
4291.9
4306.97
4321.07
4334.19
4346.31
4357.43
4367.53
4376.61
4384.67
4391.71
4397.72
4402.72
4406.71
4409.7
4411.69
4412.69
4412.71
4411.75
4409.8
4406.88
4402.99
4398.13
4392.3
4385.52
4377.79
4369.13
4359.55
4349.05
4337.64
4325.31
4312.05
4297.86
4282.73
4266.67
4249.69
4231.77
4212.91
4193.1
4172.36
4150.75
4128.34
4105.17
4081.29
4056.69
4031.38
4005.34
3978.59
3951.12
3922.93
3894.04
3864.44
3834.14
3803.14
3771.47
3739.13
3706.14
3672.52
3638.28
3603.44
3568.02
3532.03
3495.48
3458.38
3420.74
3382.59
3343.93
3304.77
3265.14
3225.06
3184.53
3143.57
3102.21
3060.46
3018.34
2975.86
2933.05
2889.93
2846.5
2802.8
2758.85
2714.66
2670.26
2625.67
2580.92
2536.04
2491.03
2445.94
2400.77
2355.55
2310.3
2265.03
2219.76
2174.51
2129.31
2084.19
2039.17
1994.28
1949.55
1905.01
1860.68
1816.58
1772.72
1729.11
1685.76
1642.69
1599.91
1557.45
1515.33
1473.58
1432.22
1391.29
1350.79
1310.75
1271.2
1232.14
1193.59
1155.56
1118.07
1081.12
1044.74
1008.9
973.589
938.804
904.52
870.768
837.552
804.881
772.772
741.231
710.264
679.866
650.03
620.742
591.991
563.766
536.056
508.852
482.148
455.936
430.211
404.966
380.192
355.879
332.017
308.597
285.611
263.05
240.905
219.167
197.823
176.86
156.267
136.033
116.147
96.5964
77.3738
58.4721
39.8878
21.6198
3.66616
-13.9789
-31.3254
-48.3793
-65.1315
-81.5638
-97.6725
-113.466
-128.956
-144.153
-159.06
-173.68
-188.015
-202.066
-215.832
-229.316
-242.516
-255.436
-268.075
-280.436
-292.52
-304.329
-315.867
-327.136
-338.139
-348.88
-359.363
-369.593
-379.576
-389.32
-398.824
-408.096
-417.142
-425.969
-434.584
-442.993
-451.203
-459.223
-467.058
-474.716
-482.206
-489.534
-496.708
-503.734
-510.622
-517.375
-524.002
-530.507
-536.896
-543.173
-549.342
-555.407
-561.368
-567.228
-572.987
-578.644
-584.197
-589.642
-594.977
-600.195
-605.291
-610.255
-615.079
-619.752
-624.263
-628.599
-632.746
-636.688
-640.409
-643.893
-647.12
-650.072
-652.73
-655.072
-657.078
-658.728
-660.001
-660.875
-661.329
-661.345
-660.901
-659.98
-658.563
-656.633
-654.175
-651.173
-647.617
-643.493
-638.792
-633.506
-627.629
-621.157
-614.085
-606.414
-598.143
-589.275
-579.813
-569.763
-559.132
-547.928
-536.161
-523.84
-510.978
-497.588
-483.683
-469.278
-454.388
-439.029
-423.218
-406.972
-390.308
-373.243
-355.797
-337.986
-319.831
-301.348
-282.557
-263.477
-244.127
-224.526
-204.692
-184.646
-164.406
-143.99
-123.418
-102.71
-81.8843
-60.9587
-39.9518
-18.8822
2.23183
23.3718
44.5195
65.6564
86.7642
107.824
128.819
149.729
170.537
191.223
211.771
232.162
252.377
272.401
292.215
311.803
331.152
350.245
369.065
387.598
405.828
423.744
441.331
458.574
475.457
491.966
508.088
523.811
539.129
554.032
568.517
582.578
596.211
609.413
622.183
634.521
646.43
657.912
668.969
679.602
689.811
699.597
708.962
717.909
726.444
734.577
742.316
749.673
756.66
763.29
769.575
775.528
781.161
786.487
791.517
796.263
800.736
804.948
808.908
812.625
816.109
819.366
822.403
825.226
827.838
830.241
832.435
834.42
836.191
837.745
839.074
840.172
841.032
841.643
841.998
842.087
841.901
841.432
840.673
839.616
838.257
836.592
834.617
832.335
829.746
826.854
823.667
820.193
816.445
812.438
808.187
803.714
799.041
794.191
789.193
784.075
778.866
773.6
768.309
763.023
757.774
752.6
747.531
742.597
737.828
733.272
728.774
724.673
720.802
717.178
713.844
710.807
708.078
705.666
703.586
701.807
700.46
699.438
698.777
698.483
1680.59
1681.98
1684.84
1689.12
1694.8
1701.85
1710.26
1720
1731.08
1743.48
1757.19
1772.19
1788.46
1805.98
1824.73
1844.68
1865.8
1888.06
1911.44
1935.89
1961.39
1987.91
2015.4
2043.84
2073.18
2103.4
2134.45
2166.3
2198.91
2232.24
2266.25
2300.91
2336.17
2371.99
2408.34
2445.17
2482.45
2520.13
2558.17
2596.55
2635.21
2674.15
2713.31
2752.67
2792.19
2831.84
2871.58
2911.37
2951.19
2990.99
3030.75
3070.43
3110.02
3149.47
3188.76
3227.87
3266.77
3305.42
3343.81
3381.91
3419.69
3457.13
3494.19
3530.84
3567.07
3602.84
3638.13
3672.9
3707.14
3740.81
3773.89
3806.35
3838.18
3869.34
3899.81
3929.57
3958.6
3986.88
4014.38
4041.09
4066.99
4092.06
4116.3
4139.68
4162.18
4183.81
4204.53
4224.35
4243.24
4261.2
4278.22
4294.28
4309.39
4323.52
4336.67
4348.83
4359.98
4370.12
4379.24
4387.34
4394.42
4400.48
4405.53
4409.56
4412.59
4414.61
4415.65
4415.69
4414.75
4412.82
4409.91
4406.02
4401.17
4395.35
4388.57
4380.85
4372.19
4362.59
4352.07
4340.63
4328.26
4314.96
4300.73
4285.56
4269.46
4252.43
4234.47
4215.58
4195.76
4175.06
4153.5
4131.14
4108.01
4084.14
4059.53
4034.19
4008.12
3981.32
3953.79
3925.55
3896.6
3866.94
3836.57
3805.52
3773.79
3741.39
3708.34
3674.65
3640.35
3605.44
3569.94
3533.87
3497.23
3460.05
3422.33
3384.1
3345.35
3306.11
3266.4
3226.22
3185.61
3144.56
3103.11
3061.27
3019.06
2976.5
2933.6
2890.39
2846.88
2803.1
2759.07
2714.8
2670.32
2625.65
2580.83
2535.86
2490.77
2445.59
2400.34
2355.04
2309.71
2264.37
2219.04
2173.74
2128.48
2083.31
2038.24
1993.29
1948.5
1903.9
1859.49
1815.3
1771.35
1727.66
1684.23
1641.09
1598.25
1555.75
1513.6
1471.82
1430.44
1389.48
1348.97
1308.92
1269.35
1230.28
1191.72
1153.69
1116.19
1079.24
1042.84
1006.98
971.658
936.868
902.6
868.863
835.659
802.997
770.89
739.348
708.375
677.971
648.13
618.841
590.095
561.879
534.185
507.002
480.323
454.141
428.447
403.234
378.494
354.215
330.389
307.003
284.049
261.515
239.394
217.675
196.349
175.404
154.83
134.617
114.754
95.23
76.0382
57.1708
38.6204
20.3795
2.44165
-15.1985
-32.5427
-49.584
-66.3062
-82.7013
-98.7786
-114.551
-130.028
-145.215
-160.114
-174.727
-189.055
-203.098
-216.857
-230.333
-243.526
-256.437
-269.067
-281.418
-293.492
-305.29
-316.815
-328.071
-339.06
-349.786
-360.254
-370.469
-380.433
-390.155
-399.638
-408.889
-417.913
-426.718
-435.311
-443.697
-451.885
-459.882
-467.695
-475.332
-482.802
-490.111
-497.267
-504.278
-511.151
-517.892
-524.508
-531.005
-537.388
-543.662
-549.831
-555.897
-561.865
-567.734
-573.505
-579.178
-584.75
-590.219
-595.581
-600.831
-605.961
-610.964
-615.83
-620.55
-625.111
-629.5
-633.703
-637.704
-641.488
-645.035
-648.328
-651.348
-654.073
-656.484
-658.56
-660.278
-661.618
-662.558
-663.078
-663.155
-662.77
-661.904
-660.538
-658.655
-656.239
-653.275
-649.75
-645.653
-640.973
-635.702
-629.834
-623.365
-616.29
-608.611
-600.326
-591.438
-581.953
-571.874
-561.209
-549.967
-538.157
-525.791
-512.88
-499.437
-485.478
-471.015
-456.066
-440.647
-424.773
-408.463
-391.734
-374.603
-357.09
-339.212
-320.989
-302.439
-283.581
-264.434
-245.016
-225.349
-205.449
-185.337
-165.032
-144.552
-123.917
-103.146
-82.2569
-61.2686
-40.1996
-19.0684
2.10665
23.3072
44.5148
65.7114
86.8785
107.998
129.052
150.022
170.89
191.638
212.248
232.701
252.978
273.059
292.926
312.56
331.945
351.067
369.912
388.47
406.728
424.673
442.289
459.559
476.469
493.001
509.143
524.884
540.215
555.128
569.617
583.678
597.308
610.502
623.26
635.581
647.467
658.92
669.943
680.539
690.708
700.454
709.779
718.688
727.185
735.279
742.979
750.296
757.242
763.829
770.071
775.979
781.568
786.848
791.834
796.536
800.967
805.138
809.059
812.74
816.189
819.416
822.426
825.226
827.818
830.205
832.388
834.364
836.13
837.681
839.012
840.115
840.981
841.601
841.966
842.067
841.893
841.436
840.688
839.642
838.292
836.633
834.665
832.385
829.795
826.9
823.707
820.223
816.462
812.436
808.164
803.665
798.961
794.077
789.041
783.881
778.629
773.315
767.974
762.637
757.337
752.109
746.983
741.991
737.16
732.512
728.043
723.851
719.912
716.239
712.849
709.754
706.965
704.495
702.36
700.569
699.178
698.163
697.509
697.222
1674.42
1675.82
1678.68
1682.97
1688.68
1695.77
1704.23
1714.04
1725.19
1737.68
1751.47
1766.57
1782.94
1800.56
1819.42
1839.48
1860.71
1883.09
1906.59
1931.17
1956.8
1983.44
2011.06
2039.63
2069.11
2099.47
2130.66
2162.65
2195.4
2228.87
2263.02
2297.82
2333.22
2369.18
2405.67
2442.64
2480.05
2517.87
2556.05
2594.57
2633.38
2672.45
2711.75
2751.24
2790.89
2830.66
2870.51
2910.41
2950.33
2990.23
3030.09
3069.87
3109.54
3149.08
3188.47
3227.66
3266.65
3305.4
3343.88
3382.07
3419.93
3457.46
3494.61
3531.36
3567.68
3603.54
3638.92
3673.79
3708.12
3741.88
3775.06
3807.61
3839.53
3870.78
3901.35
3931.2
3960.32
3988.68
4016.27
4043.07
4069.06
4094.22
4118.54
4141.99
4164.57
4186.27
4207.06
4226.93
4245.89
4263.9
4280.98
4297.1
4312.25
4326.43
4339.63
4351.83
4363.02
4373.21
4382.38
4390.53
4397.66
4403.77
4408.87
4412.95
4416.02
4418.09
4419.15
4419.22
4418.3
4416.4
4413.51
4409.64
4404.8
4398.99
4392.21
4384.49
4375.82
4366.2
4355.65
4344.17
4331.76
4318.42
4304.14
4288.93
4272.79
4255.72
4237.74
4218.85
4199.06
4178.4
4156.89
4134.58
4111.47
4087.59
4062.95
4037.56
4011.43
3984.57
3956.98
3928.67
3899.64
3869.91
3839.47
3808.35
3776.54
3744.07
3710.95
3677.19
3642.8
3607.81
3572.23
3536.07
3499.35
3462.07
3424.26
3385.92
3347.08
3307.74
3267.93
3227.65
3186.93
3145.78
3104.23
3062.29
3019.97
2977.31
2934.31
2891
2847.39
2803.51
2759.38
2715.02
2670.45
2625.69
2580.77
2535.71
2490.53
2445.25
2399.91
2354.51
2309.08
2263.65
2218.22
2172.83
2127.49
2082.24
2037.08
1992.06
1947.19
1902.5
1858.01
1813.74
1769.71
1725.94
1682.44
1639.23
1596.34
1553.78
1511.58
1469.76
1428.34
1387.35
1346.81
1306.73
1267.14
1228.05
1189.47
1151.42
1113.91
1076.95
1040.53
1004.66
969.318
934.511
900.232
866.488
833.284
800.628
768.529
736.995
706.029
675.631
645.797
616.518
587.786
559.59
531.92
504.767
478.121
451.976
426.321
401.148
376.448
352.211
328.426
305.084
282.174
259.686
237.61
215.934
194.648
173.742
153.203
133.023
113.19
93.6955
74.5311
55.6899
37.1663
18.9555
1.05272
-16.547
-33.8479
-50.85
-67.5477
-83.936
-100.016
-115.793
-131.272
-146.458
-161.355
-175.964
-190.287
-204.324
-218.076
-231.545
-244.729
-257.631
-270.251
-282.591
-294.652
-306.437
-317.948
-329.188
-340.16
-350.869
-361.316
-371.511
-381.454
-391.152
-400.611
-409.837
-418.836
-427.615
-436.181
-444.541
-452.703
-460.674
-468.462
-476.075
-483.521
-490.808
-497.943
-504.935
-511.79
-518.516
-525.119
-531.606
-537.981
-544.251
-550.419
-556.489
-562.462
-568.342
-574.127
-579.819
-585.414
-590.911
-596.306
-601.592
-606.763
-611.813
-616.73
-621.504
-626.124
-630.577
-634.847
-638.919
-642.776
-646.4
-649.772
-652.872
-655.68
-658.174
-660.332
-662.133
-663.554
-664.574
-665.171
-665.323
-665.009
-664.21
-662.906
-661.08
-658.715
-655.796
-652.31
-648.245
-643.59
-638.337
-632.481
-626.015
-618.938
-611.248
-602.946
-594.035
-584.52
-574.405
-563.699
-552.411
-540.55
-528.128
-515.157
-501.652
-487.626
-473.094
-458.073
-442.58
-426.631
-410.244
-393.437
-376.228
-358.635
-340.678
-322.374
-303.744
-284.806
-265.579
-246.082
-226.335
-206.357
-186.166
-165.783
-145.226
-124.515
-103.668
-82.7034
-61.6407
-40.498
-19.294
1.95308
23.2247
44.5026
65.7684
87.0037
108.19
129.31
150.343
171.273
192.081
212.748
233.257
253.588
273.725
293.651
313.346
332.796
351.983
370.891
389.506
407.814
425.8
443.451
460.752
477.687
494.243
510.406
526.166
541.512
556.437
570.935
584.999
598.627
611.816
624.563
636.869
648.734
660.161
671.153
681.711
691.838
701.539
710.816
719.676
728.124
736.169
743.82
751.088
757.984
764.521
770.711
776.567
782.102
787.329
792.261
796.91
801.289
805.408
809.28
812.915
816.322
819.509
822.484
825.252
827.818
830.183
832.348
834.311
836.069
837.617
838.949
840.055
840.929
841.559
841.936
842.05
841.89
841.447
840.712
839.678
838.338
836.687
834.724
832.446
829.856
826.956
823.754
820.257
816.477
812.428
808.127
803.594
798.852
793.925
788.84
783.628
778.319
772.947
767.543
762.142
756.777
751.482
746.288
741.226
736.321
731.609
727.099
722.836
718.831
715.092
711.637
708.476
705.622
703.088
700.897
699.073
697.656
696.633
695.985
695.705
1667.23
1668.63
1671.51
1675.82
1681.56
1688.71
1697.23
1707.12
1718.35
1730.93
1744.82
1760.02
1776.51
1794.25
1813.23
1833.42
1854.78
1877.3
1900.93
1925.65
1951.43
1978.22
2006
2034.73
2064.37
2094.88
2126.23
2158.39
2191.3
2224.93
2259.25
2294.21
2329.78
2365.91
2402.55
2439.69
2477.26
2515.24
2553.59
2592.26
2631.23
2670.46
2709.91
2749.55
2789.34
2829.25
2869.23
2909.26
2949.3
2989.33
3029.3
3069.19
3108.97
3148.62
3188.12
3227.42
3266.51
3305.36
3343.95
3382.25
3420.22
3457.85
3495.11
3531.97
3568.39
3604.37
3639.85
3674.83
3709.27
3743.14
3776.43
3809.09
3841.12
3872.47
3903.14
3933.09
3962.31