/*--------------------------------*- C++ -*----------------------------------*\
| =========                 |                                                 |
| \\      /  F ield         | OpenFOAM: The Open Source CFD Toolbox           |
|  \\    /   O peration     | Version:  v2006                                 |
|   \\  /    A nd           | Website:  www.openfoam.com                      |
|    \\/     M anipulation  |                                                 |
\*---------------------------------------------------------------------------*/
FoamFile
{
    version     2.0;
    format      ascii;
    class       surfaceScalarField;
    location    "14";
    object      phi;
}
// * * * * * * * * * * * * * * * * * * * * * * * * * * * * * * * * * * * * * //

dimensions      [0 3 -1 0 0 0 0];
oriented        oriented;


internalField   nonuniform List<scalar> 
299200
(
-0.000313998
0.000313998
-0.000484425
0.000170426
-0.000627478
0.000143053
-0.000779431
0.000151953
-0.000938821
0.000159391
-0.00111389
0.000175066
-0.00130709
0.000193203
-0.00151804
0.000210948
-0.00174613
0.000228095
-0.00199032
0.000244192
-0.00224996
0.000259631
-0.00252464
0.000274687
-0.00281334
0.000288699
-0.00311586
0.000302516
-0.00343146
0.000315608
-0.0037589
0.000327439
-0.00409731
0.000338409
-0.00444562
0.000348306
-0.00480307
0.000357449
-0.0051693
0.000366233
-0.00554442
0.000375116
-0.005929
0.000384584
-0.00632365
0.000394646
-0.00672801
0.00040436
-0.00714127
0.00041326
-0.00756367
0.000422405
-0.00799561
0.000431942
-0.00843788
0.000442263
-0.00889106
0.000453188
-0.00935571
0.000464644
-0.00983224
0.000476532
-0.0103211
0.000488866
-0.0108225
0.000501381
-0.0113365
0.000513994
-0.011863
0.000526504
-0.0124018
0.000538824
-0.0129526
0.000550834
-0.0135153
0.000562622
-0.0140894
0.000574095
-0.0146749
0.000585565
-0.0152728
0.000597896
-0.0158843
0.000611458
-0.0165108
0.000626522
-0.0171535
0.000642691
-0.0178131
0.000659647
-0.0184901
0.000676936
-0.0191846
0.000694483
-0.0198968
0.000712257
-0.0206261
0.000729299
-0.02137
0.000743871
-0.0221244
0.000754388
-0.0228844
0.000759988
-0.0236451
0.000760696
-0.0244021
0.000757076
-0.025152
0.000749836
-0.0258917
0.000739743
-0.0266194
0.000727663
-0.0273339
0.00071449
-0.0280349
0.000701005
-0.0287227
0.000687803
-0.029398
0.000675291
-0.0300617
0.000663702
-0.0307148
0.000653136
-0.0313584
0.000643603
-0.0319935
0.000635073
-0.032621
0.000627505
-0.0332419
0.000620876
-0.033857
0.000615183
-0.0344675
0.00061044
-0.0350741
0.000606666
-0.035678
0.000603859
-0.03628
0.000601976
-0.0368809
0.000600901
-0.0374813
0.000600437
-0.0380816
0.000600303
-0.0386818
0.000600164
-0.0392815
0.000599702
-0.0398802
0.000598711
-0.0404774
0.000597204
-0.0410729
0.000595473
-0.0416669
0.000594064
-0.0422606
0.000593645
-0.0428554
0.000594798
-0.0434532
0.000597807
-0.0440557
0.000602555
-0.0446643
0.000608587
-0.0452797
0.000615355
-0.0459022
0.000622499
-0.0465322
0.000630002
-0.0471702
0.000638021
-0.0478166
0.0006464
-0.0484707
0.000654097
-0.0491296
0.0006589
-0.0497874
0.000657753
-0.050435
0.000647669
-0.0510619
0.000626915
-0.0516576
0.000595652
-0.0522138
0.000556202
-0.0527268
0.000512986
-0.0531981
0.000471283
-0.0536339
0.000435791
-0.0540436
0.000409728
-0.0544386
0.000395036
-0.0548296
0.000390956
-0.0552248
0.000395209
-0.0556298
0.000404995
-0.0560475
0.000417676
-0.0564786
0.000431107
-0.0569223
0.000443725
-0.0573768
0.000454506
-0.0578397
0.000462927
-0.0583086
0.000468921
-0.0587814
0.000472733
-0.059256
0.0004746
-0.0597303
0.000474313
-0.0602012
0.000470904
-0.060664
0.00046276
-0.0611123
0.000448396
-0.0615397
0.000427373
-0.061941
0.000401265
-0.0623155
0.000374546
-0.0626689
0.000353337
-0.0630115
0.000342663
-0.0633546
0.000343046
-0.063703
0.000348464
-0.0640502
0.000347132
-0.0643755
0.000325343
-0.0646491
0.000273625
-0.0648413
0.000192182
-0.0649333
9.19298e-05
-0.0649258
-7.4125e-06
-0.0648511
-7.47544e-05
-0.0647551
-9.59454e-05
-0.0646772
-7.79846e-05
-0.0646388
-3.8401e-05
-0.0646478
9.03557e-06
-0.0646977
4.99192e-05
-0.0647771
7.9358e-05
-0.0648693
9.2233e-05
-0.0649586
8.93434e-05
-0.0650309
7.22818e-05
-0.065076
4.50573e-05
-0.0650857
9.76378e-06
-0.0650565
-2.92097e-05
-0.0649906
-6.59105e-05
-0.0648943
-9.63581e-05
-0.0647756
-0.000118694
-0.0646419
-0.00013364
-0.064499
-0.000142947
-0.0643504
-0.000148603
-0.0641979
-0.000152465
-0.0640418
-0.00015611
-0.063881
-0.000160781
-0.0637137
-0.000167373
-0.0635372
-0.000176427
-0.0633491
-0.000188137
-0.0631467
-0.000202395
-0.0629278
-0.000218867
-0.0626907
-0.000237101
-0.0624341
-0.000256617
-0.0621571
-0.000276996
-0.0618592
-0.000297915
-0.0615401
-0.000319137
-0.0611996
-0.000340474
-0.0608379
-0.000361728
-0.0604552
-0.000382655
-0.0600523
-0.000402946
-0.05963
-0.000422231
-0.0591899
-0.000440098
-0.0587338
-0.000456117
-0.0582639
-0.000469871
-0.0577829
-0.000481008
-0.0572936
-0.000489312
-0.0567988
-0.000494793
-0.0563011
-0.000497779
-0.0558021
-0.000498977
-0.0553026
-0.000499501
-0.0548018
-0.000500822
-0.0542971
-0.000504628
-0.0537846
-0.000512557
-0.0532588
-0.000525763
-0.0527145
-0.000544305
-0.052148
-0.000566476
-0.0515598
-0.000588248
-0.0509562
-0.000603623
-0.05035
-0.000606143
-0.0497587
-0.000591273
-0.0491997
-0.000559009
-0.0486842
-0.000515491
-0.0482118
-0.000472426
-0.0477679
-0.000443878
-0.0473266
-0.000441322
-0.0468575
-0.000469109
-0.0463349
-0.00052258
-0.0457445
-0.000590411
-0.0450863
-0.000658167
-0.0443738
-0.00071255
-0.043629
-0.000744792
-0.0428776
-0.000751361
-0.0421447
-0.000732911
-0.0414522
-0.00069258
-0.0408176
-0.000634512
-0.0402548
-0.000562877
-0.0397738
-0.000480987
-0.0393814
-0.00039234
-0.0390803
-0.000301124
-0.0388679
-0.000212391
-0.038736
-0.000131914
-0.0386705
-6.55066e-05
-0.0386528
-1.76686e-05
-0.0386631
1.02408e-05
-0.0386813
1.82587e-05
-0.0386945
1.321e-05
-0.0386938
-7.80057e-07
-0.0386737
-2.00887e-05
-0.0386351
-3.85311e-05
-0.0385823
-5.28188e-05
-0.0385195
-6.28309e-05
-0.0384518
-6.7734e-05
-0.0383842
-6.75154e-05
-0.0383213
-6.29413e-05
-0.0382651
-5.62178e-05
-0.0382147
-5.04056e-05
-0.0381663
-4.83844e-05
-0.0381145
-5.17917e-05
-0.0380543
-6.02174e-05
-0.0379832
-7.10874e-05
-0.0379028
-8.04112e-05
-0.0378187
-8.40812e-05
-0.0377401
-7.86331e-05
-0.0376773
-6.27526e-05
-0.0376397
-3.76121e-05
-0.037633
-6.67056e-06
-0.0376565
2.34737e-05
-0.0377066
5.00448e-05
-0.0377802
7.3626e-05
-0.0378764
9.62448e-05
-0.0379988
0.000122368
-0.0381547
0.000155876
-0.0383516
0.000196917
-0.0385932
0.000241586
-0.0388777
0.000284485
-0.039199
0.00032133
-0.0395486
0.000349572
-0.0399161
0.000367519
-0.0402896
0.000373475
-0.0406565
0.000366959
-0.0410054
0.000348924
-0.0413305
0.000325044
-0.041639
0.000308485
-0.0419512
0.000312206
-0.0422877
0.000336491
-0.0426423
0.000354656
-0.0429554
0.00031313
-0.0431226
0.000167106
-0.0430849
-3.7668e-05
-0.0429177
-0.000167153
-0.042713
-0.000204743
-0.0425135
-0.000199456
-0.0423257
-0.00018779
-0.0421478
-0.000177931
-0.0419777
-0.000170141
-0.0418144
-0.000163311
-0.0416577
-0.000156634
-0.0415079
-0.000149846
-0.0413649
-0.00014296
-0.0412289
-0.000136034
-0.0410998
-0.000129075
-0.0409778
-0.000122036
-0.0408629
-0.000114836
-0.0407556
-0.000107375
-0.040656
-9.95533e-05
-0.0405647
-9.12797e-05
-0.0404822
-8.24839e-05
-0.0404091
-7.31202e-05
-0.040346
-6.31712e-05
-0.0402933
-5.2649e-05
-0.0402517
-4.15968e-05
-0.0402216
-3.00866e-05
-0.0402034
-1.8263e-05
-0.0401968
-6.54617e-06
-0.0402011
4.27822e-06
-0.0402155
1.4438e-05
-0.0402397
2.41904e-05
-0.0402735
3.37917e-05
-0.0403168
4.33069e-05
-0.0403696
5.27722e-05
-0.0404318
6.22495e-05
-0.0405036
7.18011e-05
-0.0405851
8.14706e-05
-0.0406764
9.12857e-05
-0.0407777
0.000101266
-0.0408891
0.000111418
-0.0410108
0.000121742
-0.0411431
0.000132227
-0.0412859
0.00014286
-0.0414395
0.00015362
-0.041604
0.000164483
-0.0417794
0.00017542
-0.0419658
0.000186399
-0.0421632
0.000197387
-0.0423716
0.000208349
-0.0425908
0.000219246
-0.0428208
0.000230035
-0.0430615
0.000240676
-0.0433127
0.000251133
-0.043574
0.00026137
-0.0438454
0.000271352
-0.0441264
0.000281036
-0.0444168
0.000290384
-0.0447162
0.000299361
-0.0450241
0.000307935
-0.0453402
0.000316075
-0.0456639
0.00032375
-0.0459948
0.000330924
-0.0463324
0.000337563
-0.046676
0.000343637
-0.0470252
0.000349126
-0.0473792
0.000354016
-0.0477375
0.000358285
-0.0480994
0.000361905
-0.0484642
0.000364852
-0.0488313
0.000367118
-0.0492
0.000368702
-0.0495697
0.000369607
-0.0499395
0.000369841
-0.0503089
0.000369416
-0.0506773
0.000368349
-0.0510439
0.000366665
-0.0514083
0.000364394
-0.0517699
0.000361573
-0.0521281
0.000358239
-0.0524826
0.00035443
-0.0528327
0.000350179
-0.0531783
0.00034552
-0.0535187
0.000340479
-0.0538538
0.000335073
-0.0541831
0.000329307
-0.0545063
0.000323178
-0.054823
0.000316677
-0.0551328
0.000309795
-0.0554353
0.000302528
-0.0557302
0.000294871
-0.056017
0.000286825
-0.0562954
0.000278396
-0.056565
0.000269597
-0.0568254
0.000260454
-0.0570764
0.000251002
-0.0573177
0.000241285
-0.0575491
0.000231352
-0.0577703
0.000221257
-0.0579814
0.00021106
-0.0581822
0.000200829
-0.0583729
0.000190629
-0.0585534
0.000180516
-0.0587239
0.000170535
-0.0588846
0.00016072
-0.0590357
0.000151085
-0.0591773
0.000141617
-0.0593096
0.000132274
-0.0594326
0.000122989
-0.0595463
0.000113674
-0.0596505
0.000104228
-0.059745
9.45469e-05
-0.0598296
8.45492e-05
-0.0599038
7.41976e-05
-0.0599673
6.35124e-05
-0.0600199
5.25873e-05
-0.0600615
4.15811e-05
-0.0600922
3.07015e-05
-0.0601123
2.01735e-05
-0.0601226
1.02819e-05
-0.0601238
1.18139e-06
-0.0601178
-6.05976e-06
-0.0601054
-1.23379e-05
-0.0600876
-1.78198e-05
-0.0600648
-2.27639e-05
-0.0600375
-2.73316e-05
-0.0600059
-3.1629e-05
-0.0599701
-3.5737e-05
-0.0599304
-3.97175e-05
-0.0598868
-4.36021e-05
-0.0598394
-4.737e-05
-0.0597885
-5.09423e-05
-0.0597343
-5.42458e-05
-0.0596769
-5.73638e-05
-0.0596162
-6.06887e-05
-0.0595513
-6.48885e-05
-0.0594808
-7.05302e-05
-0.0594033
-7.7497e-05
-0.0593187
-8.45885e-05
-0.059229
-8.97473e-05
-0.059138
-9.0911e-05
-0.059051
-8.69911e-05
-0.0589726
-7.84739e-05
-0.0589049
-6.76716e-05
-0.0588459
-5.90003e-05
-0.0587868
-5.90619e-05
-0.0587118
-7.49935e-05
-0.0586013
-0.000110522
-0.0584407
-0.000160609
-0.0582281
-0.00021261
-0.0579739
-0.000254203
-0.0576936
-0.000280334
-0.0573999
-0.000293653
-0.0570994
-0.000300474
-0.0567926
-0.000306856
-0.0564755
-0.00031707
-0.0561423
-0.000333217
-0.0557869
-0.000355366
-0.0554049
-0.000381997
-0.054994
-0.000410897
-0.0545535
-0.000440575
-0.0540818
-0.000471628
-0.0535748
-0.000507044
-0.0530241
-0.000550648
-0.05242
-0.000604124
-0.0517555
-0.000664473
-0.0510315
-0.000724063
-0.0502578
-0.000773638
-0.0494514
-0.00080643
-0.0486305
-0.000820898
-0.04781
-0.000820467
-0.0469991
-0.000810978
-0.0462011
-0.000797952
-0.0454159
-0.000785188
-0.0446411
-0.000774808
-0.0438733
-0.000767839
-0.0431087
-0.000764589
-0.042344
-0.000764718
-0.0415766
-0.000767381
-0.040805
-0.000771548
-0.0400287
-0.00077632
-0.0392476
-0.000781084
-0.0384621
-0.000785535
-0.0376725
-0.000789604
-0.0368791
-0.00079336
-0.0360822
-0.000796919
-0.0352818
-0.000800381
-0.034478
-0.000803823
-0.0336707
-0.000807305
-0.0328598
-0.000810897
-0.0320451
-0.000814688
-0.0312264
-0.000818766
-0.0304032
-0.000823191
-0.0295752
-0.000827967
-0.0287422
-0.000833049
-0.0279038
-0.00083836
-0.02706
-0.000843794
-0.0262108
-0.000849215
-0.0253563
-0.00085447
-0.0244969
-0.000859419
-0.023633
-0.000863944
-0.022765
-0.000867944
-0.0218937
-0.000871315
-0.0210198
-0.000873947
-0.020144
-0.00087572
-0.0192675
-0.000876508
-0.0183913
-0.000876186
-0.0175167
-0.000874641
-0.0166449
-0.00087177
-0.0157774
-0.000867479
-0.0149158
-0.000861678
-0.0140615
-0.000854267
-0.0132164
-0.000845118
-0.0123823
-0.000834059
-0.0115614
-0.000820913
-0.0107558
-0.000805563
-0.00996783
-0.000788017
-0.00919939
-0.000768441
-0.00845233
-0.00074706
-0.0077283
-0.000724026
-0.00702894
-0.000699363
-0.00635595
-0.000672994
-0.00571099
-0.000644958
-0.00509575
-0.000615239
-0.00451195
-0.000583802
-0.00396241
-0.000549535
-0.00344768
-0.000514734
-0.00296887
-0.000478808
-0.00252759
-0.000441278
-0.00212458
-0.000403014
-0.00176045
-0.000364126
-0.00143531
-0.00032514
-0.0011494
-0.000285914
-0.000902508
-0.00024689
-0.000694031
-0.000208477
-0.000523183
-0.000170848
-0.000388492
-0.00013469
-0.000288239
-0.000100253
-0.000219462
-6.87772e-05
-0.000177216
-4.22457e-05
-0.000154031
-2.31849e-05
-0.000140242
-1.3789e-05
-0.000122291
-1.79516e-05
-8.43046e-05
-3.79863e-05
-2.00452e-06
-8.23001e-05
0.000133882
-0.000135887
0.000224868
-9.09856e-05
0.000224868
-0.000514456
0.000828454
-0.000897727
0.000553697
-0.00132716
0.000572483
-0.00180941
0.000634203
-0.00232064
0.000670619
-0.00285717
0.000711599
-0.00341654
0.000752575
-0.00399411
0.000788517
-0.0045843
0.000818282
-0.00518351
0.000843408
-0.0057882
0.000864315
-0.00639476
0.000881252
-0.00700014
0.000894081
-0.00760108
0.000903453
-0.00819547
0.000909997
-0.0087823
0.000914272
-0.00936136
0.000917461
-0.00993307
0.000920019
-0.0104984
0.000922753
-0.011058
0.000925891
-0.0116129
0.000929986
-0.0121638
0.000935481
-0.0127121
0.00094296
-0.0132601
0.00095234
-0.01381
0.000963133
-0.0143626
0.000975051
-0.0149183
0.000987614
-0.0154765
0.0010005
-0.0160366
0.00101326
-0.0165977
0.00102578
-0.0171595
0.00103829
-0.017722
0.00105134
-0.0182862
0.00106564
-0.018854
0.0010818
-0.019428
0.00110044
-0.0200114
0.00112226
-0.0206082
0.0011477
-0.0212225
0.00117685
-0.0218577
0.00120929
-0.0225161
0.00124396
-0.0231973
0.00127909
-0.0238979
0.00131214
-0.0246113
0.00133991
-0.0253278
0.0013592
-0.0260369
0.00136873
-0.0267306
0.00137064
-0.0274065
0.00137032
-0.0280678
0.00137365
-0.0287223
0.00138374
-0.0293782
0.00139978
-0.0300424
0.00141855
-0.0307191
0.00143672
-0.0314105
0.00145211
-0.0321171
0.00146369
-0.0328385
0.00147121
-0.0335737
0.00147494
-0.0343217
0.00147561
-0.0350813
0.00147415
-0.0358518
0.00147148
-0.0366324
0.00146844
-0.0374228
0.00146569
-0.0382228
0.00146366
-0.0390323
0.00146263
-0.0398513
0.00146267
-0.04068
0.00146375
-0.0415183
0.00146576
-0.0423659
0.00146851
-0.0432226
0.00147183
-0.0440876
0.00147547
-0.0449601
0.00147917
-0.0458389
0.00148267
-0.0467226
0.00148569
-0.0476098
0.00148805
-0.048499
0.0014897
-0.0493895
0.00149079
-0.0502811
0.00149171
-0.0511744
0.001493
-0.0520708
0.00149514
-0.0529719
0.00149833
-0.0538786
0.00150216
-0.0547901
0.00150557
-0.0557035
0.00150707
-0.056614
0.00150529
-0.0575159
0.00149962
-0.0584037
0.00149044
-0.059274
0.00147881
-0.0601244
0.00146582
-0.0609538
0.00145189
-0.0617604
0.00143655
-0.0625412
0.00141882
-0.0632926
0.00139786
-0.064012
0.0013735
-0.0646994
0.00134631
-0.0653591
0.00131739
-0.0659994
0.00128796
-0.0666317
0.0012592
-0.0672681
0.00123209
-0.0679193
0.00120743
-0.0685923
0.00118594
-0.0692892
0.00116819
-0.0700078
0.0011544
-0.0707424
0.00114436
-0.0714849
0.00113753
-0.0722266
0.00113262
-0.0729592
0.00112785
-0.0736757
0.0011215
-0.0743704
0.00111238
-0.0750396
0.00110028
-0.0756818
0.00108591
-0.0762979
0.00107061
-0.0768906
0.00105563
-0.0774629
0.00104123
-0.0780159
0.00102571
-0.0785461
0.00100479
-0.0790434
0.000971687
-0.079491
0.000918455
-0.0798669
0.000838651
-0.0801495
0.000731008
-0.0803248
0.000602715
-0.0803943
0.000470729
-0.0803794
0.000359613
-0.0803211
0.000295094
-0.0802737
0.000295237
-0.0802932
0.000362577
-0.080427
0.000482197
-0.0807068
0.000626956
-0.0811479
0.000766455
-0.081749
0.000874699
-0.0824903
0.00093349
-0.0833316
0.00093323
-0.0842135
0.000874508
-0.0850572
0.0007689
-0.0857894
0.000636292
-0.0863717
0.000504296
-0.0868032
0.000393124
-0.0871036
0.000309454
-0.0873017
0.000248036
-0.0874229
0.000200538
-0.0874889
0.00015823
-0.0875141
0.000114498
-0.0875078
6.59986e-05
-0.0874747
1.19342e-05
-0.087418
-4.69297e-05
-0.0873379
-0.000109296
-0.0872319
-0.000171872
-0.0870951
-0.000233188
-0.0869223
-0.000291514
-0.0867102
-0.000345738
-0.0864575
-0.000395607
-0.0861647
-0.000441409
-0.0858335
-0.000483658
-0.0854668
-0.000522825
-0.0850683
-0.000559281
-0.0846423
-0.000593336
-0.0841934
-0.000625361
-0.0837257
-0.000655878
-0.0832425
-0.000685609
-0.0827459
-0.000715412
-0.0822368
-0.000746161
-0.0817149
-0.000778582
-0.0811788
-0.000813106
-0.0806269
-0.000849783
-0.0800578
-0.000888263
-0.0794704
-0.000927851
-0.0788645
-0.000967606
-0.0782407
-0.00100645
-0.0776004
-0.00104331
-0.0769455
-0.00107714
-0.0762784
-0.00110713
-0.0756018
-0.00113273
-0.0749177
-0.00115393
-0.0742273
-0.00117143
-0.0735298
-0.0011868
-0.0728222
-0.00120242
-0.0720989
-0.00122106
-0.0713527
-0.00124517
-0.0705763
-0.00127597
-0.0697643
-0.00131279
-0.0689161
-0.00135281
-0.0680372
-0.00139144
-0.0671399
-0.00142313
-0.0662418
-0.00144231
-0.0653642
-0.00144415
-0.0645274
-0.00142507
-0.0637479
-0.00138312
-0.0630351
-0.00131891
-0.0623895
-0.00123683
-0.0618023
-0.00114623
-0.0612565
-0.00106128
-0.0607303
-0.000998626
-0.0602013
-0.000972944
-0.0596508
-0.000991762
-0.0590678
-0.00105209
-0.0584495
-0.00114089
-0.0578003
-0.00123959
-0.0571286
-0.00132988
-0.0564427
-0.00139848
-0.0557486
-0.00143891
-0.0550495
-0.00145045
-0.0543469
-0.0014355
-0.0536425
-0.00139696
-0.0529407
-0.00133631
-0.0522509
-0.00125269
-0.0515889
-0.00114295
-0.050978
-0.00100332
-0.050447
-0.000832128
-0.0500268
-0.000632533
-0.0497437
-0.000415044
-0.0496113
-0.00019786
-0.0496229
-6.12529e-06
-0.0497666
0.000153927
-0.0500146
0.000266261
-0.0503306
0.000329224
-0.0506742
0.000342832
-0.0510031
0.000308806
-0.0512757
0.000234124
-0.0514595
0.00013093
-0.0515368
1.45192e-05
-0.0515066
-9.79673e-05
-0.0513769
-0.000197184
-0.051161
-0.000278908
-0.0508757
-0.000341482
-0.0505403
-0.000385807
-0.0501738
-0.000414896
-0.049793
-0.000432636
-0.0494106
-0.000442543
-0.0490349
-0.000446804
-0.0486693
-0.000446062
-0.0483135
-0.000439834
-0.047965
-0.00042714
-0.0476203
-0.000407458
-0.0472768
-0.00038115
-0.0469341
-0.000349308
-0.046596
-0.000314656
-0.0462653
-0.000280645
-0.0459415
-0.000250162
-0.045621
-0.000224304
-0.0452962
-0.000202388
-0.0449573
-0.00018305
-0.0445947
-0.00016564
-0.0442024
-0.000150782
-0.0437781
-0.000139728
-0.0433234
-0.000133404
-0.0428418
-0.000132016
-0.042339
-0.00013532
-0.0418223
-0.0001432
-0.0413023
-0.000153012
-0.0407906
-0.000162779
-0.0402926
-0.000173
-0.0397969
-0.000187183
-0.0392695
-0.000215175
-0.0386593
-0.000273769
-0.0379297
-0.000374939
-0.037114
-0.000502599
-0.0363349
-0.000611931
-0.035718
-0.000654624
-0.0352569
-0.000628238
-0.0348898
-0.000571813
-0.0345743
-0.000514966
-0.0342927
-0.000469385
-0.0340353
-0.000435323
-0.0337964
-0.000409062
-0.0335727
-0.000386986
-0.0333625
-0.000366822
-0.0331649
-0.000347498
-0.0329792
-0.000328599
-0.0328053
-0.000309963
-0.0326429
-0.000291492
-0.0324918
-0.000273097
-0.032352
-0.000254683
-0.0322232
-0.000236148
-0.0321054
-0.000217393
-0.0319983
-0.000198317
-0.031902
-0.000178825
-0.0318163
-0.000158828
-0.0317412
-0.000138247
-0.0316768
-0.000117014
-0.0316234
-9.50768e-05
-0.0315811
-7.23816e-05
-0.0315504
-4.89113e-05
-0.0315323
-2.47016e-05
-0.0315284
4.48605e-07
-0.0315408
2.6763e-05
-0.0315705
5.39461e-05
-0.0316184
8.16983e-05
-0.031685
0.000109909
-0.0317707
0.000138428
-0.0318755
0.000167075
-0.0319994
0.000195668
-0.0321419
0.00022404
-0.0323027
0.00025205
-0.032481
0.000279586
-0.0326762
0.000306573
-0.0328874
0.00033297
-0.0331139
0.000358763
-0.033355
0.000383949
-0.03361
0.000408536
-0.033878
0.000432531
-0.0341585
0.000455937
-0.0344509
0.000478749
-0.0347544
0.000500948
-0.0350686
0.000522507
-0.0353927
0.000543392
-0.0357263
0.000563564
-0.0360686
0.000582979
-0.036419
0.000601591
-0.036777
0.000619351
-0.0371419
0.000636215
-0.037513
0.000652138
-0.0378897
0.000667082
-0.0382713
0.000681007
-0.0386573
0.000693877
-0.0390468
0.00070566
-0.0394394
0.000716328
-0.0398344
0.000725861
-0.040231
0.000734246
-0.0406289
0.000741476
-0.0410273
0.000747556
-0.0414258
0.000752503
-0.0418238
0.000756329
-0.042221
0.000759044
-0.0426168
0.000760671
-0.0430109
0.000761244
-0.043403
0.000760798
-0.0437928
0.00075937
-0.0441799
0.000757
-0.0445643
0.000753728
-0.0449455
0.000749597
-0.0453235
0.000744648
-0.045698
0.000738919
-0.0460689
0.000732442
-0.0464359
0.000725246
-0.0467988
0.000717349
-0.0471574
0.000708765
-0.0475114
0.000699499
-0.0478604
0.000689548
-0.0482043
0.000678907
-0.0485425
0.000667566
-0.0488749
0.000655513
-0.0492009
0.000642739
-0.0495204
0.000629237
-0.0498328
0.000615008
-0.050138
0.000600061
-0.0504356
0.000584418
-0.0507254
0.000568117
-0.051007
0.000551209
-0.0512803
0.000533764
-0.0515451
0.000515862
-0.0518014
0.000497592
-0.0520491
0.000479055
-0.0522882
0.000460348
-0.0525187
0.000441565
-0.0527407
0.000422796
-0.0529542
0.000404119
-0.0531593
0.000385602
-0.053356
0.000367288
-0.0535445
0.000349196
-0.0537247
0.000331321
-0.0538967
0.000313617
-0.0540605
0.000296008
-0.0542159
0.000278364
-0.0543627
0.000260527
-0.0545008
0.000242305
-0.0546297
0.000223498
-0.0547491
0.000203924
-0.0548584
0.000183443
-0.0549569
0.00016201
-0.0550439
0.000139682
-0.055119
0.000116644
-0.0551815
9.32036e-05
-0.0552311
6.97714e-05
-0.0552676
4.68061e-05
-0.0552912
2.47163e-05
-0.0553013
4.04763e-06
-0.055298
-1.558e-05
-0.0552826
-3.3245e-05
-0.0552564
-4.89732e-05
-0.0552209
-6.28146e-05
-0.0551777
-7.48759e-05
-0.0551281
-8.53021e-05
-0.0550736
-9.42279e-05
-0.0550155
-0.000101735
-0.054955
-0.00010783
-0.0548935
-0.000112459
-0.0548322
-0.000115577
-0.0547723
-0.000117263
-0.0547151
-0.000117805
-0.0546623
-0.000117721
-0.0546151
-0.000117713
-0.0545739
-0.000118708
-0.0545364
-0.000122088
-0.0544961
-0.000130079
-0.0544411
-0.000145937
-0.0543544
-0.000173606
-0.0542161
-0.000216774
-0.0540061
-0.000277735
-0.0537086
-0.00035646
-0.0533178
-0.000449873
-0.0528416
-0.000551158
-0.0523027
-0.000649444
-0.0517313
-0.000732068
-0.0511538
-0.000790066
-0.0505862
-0.000821839
-0.0500331
-0.000833358
-0.0494919
-0.000834943
-0.0489552
-0.000837128
-0.0484143
-0.000847759
-0.0478604
-0.000870936
-0.0472866
-0.000907067
-0.0466883
-0.000953611
-0.0460639
-0.00100645
-0.0454133
-0.00106144
-0.0447379
-0.00111598
-0.0440396
-0.00116992
-0.0433213
-0.00122542
-0.0425866
-0.00128535
-0.0418399
-0.00135079
-0.0410855
-0.00141888
-0.0403269
-0.00148265
-0.0395671
-0.00153341
-0.038809
-0.00156454
-0.0380553
-0.0015746
-0.0373079
-0.00156784
-0.0365672
-0.00155175
-0.0358316
-0.00153349
-0.0350994
-0.00151747
-0.034369
-0.00150516
-0.0336402
-0.00149661
-0.0329132
-0.00149157
-0.0321882
-0.00148973
-0.0314652
-0.00149041
-0.0307442
-0.00149256
-0.0300254
-0.00149513
-0.0293092
-0.00149731
-0.0285959
-0.00149877
-0.027886
-0.00149953
-0.0271794
-0.00149993
-0.026476
-0.00150036
-0.0257753
-0.00150102
-0.0250773
-0.00150191
-0.0243817
-0.00150288
-0.0236888
-0.00150376
-0.022999
-0.00150452
-0.0223124
-0.00150533
-0.0216291
-0.00150652
-0.0209485
-0.00150853
-0.0202698
-0.00151179
-0.0195915
-0.00151668
-0.0189118
-0.00152341
-0.0182291
-0.00153194
-0.0175416
-0.00154203
-0.0168478
-0.00155321
-0.0161468
-0.00156495
-0.015438
-0.00157672
-0.0147213
-0.00158801
-0.0139969
-0.00159831
-0.0132654
-0.00160721
-0.0125276
-0.00161437
-0.0117843
-0.0016195
-0.0110366
-0.00162232
-0.0102858
-0.00162253
-0.00953346
-0.00161984
-0.00878117
-0.00161396
-0.00803084
-0.0016046
-0.00728451
-0.00159145
-0.00654439
-0.00157417
-0.005813
-0.0015523
-0.0050932
-0.00152537
-0.00438815
-0.00149306
-0.0037012
-0.00145539
-0.00303558
-0.00141269
-0.00239424
-0.00136536
-0.00177998
-0.00131362
-0.00119563
-0.00125735
-0.000643966
-0.00119662
-0.000127952
-0.00113125
0.000349242
-0.001061
0.000787638
-0.000987931
0.00118261
-0.000909708
0.0015319
-0.000828096
0.00183308
-0.000742456
0.00208435
-0.000654285
0.00228471
-0.000564486
0.00243313
-0.000473559
0.00252853
-0.000381317
0.00257111
-0.00028947
0.00256139
-0.000198752
0.00250024
-0.000109703
0.00238932
-2.37725e-05
0.00222937
5.96955e-05
0.00202183
0.000138764
0.00176992
0.000209668
0.00148009
0.000266647
0.00116558
0.000300721
0.000851473
0.000296152
0.000585708
0.000227779
0.000430168
7.32401e-05
0.000412009
-0.000117727
0.000401119
-8.00961e-05
0.000625987
-0.000535118
0.00136357
-0.0009015
0.000920079
-0.0013472
0.00101818
-0.0019112
0.0011982
-0.0025356
0.00129502
-0.00318106
0.00135706
-0.00383427
0.00140579
-0.00448646
0.0014407
-0.0051316
0.00146342
-0.00576502
0.00147683
-0.00638372
0.00148301
-0.00698555
0.00148309
-0.00756952
0.00147805
-0.00813565
0.00146958
-0.00868539
0.00145974
-0.00922097
0.00144985
-0.00974527
0.00144175
-0.0102614
0.0014362
-0.0107729
0.00143422
-0.0112825
0.00143549
-0.011793
0.00144044
-0.0123061
0.00144858
-0.0128233
0.00146017
-0.0133455
0.00147453
-0.0138731
0.00149079
-0.0144064
0.00150828
-0.0149445
0.00152575
-0.0154867
0.00154269
-0.0160325
0.00155908
-0.0165818
0.0015751
-0.0171355
0.00159193
-0.0176948
0.0016107
-0.0182619
0.00163268
-0.018839
0.00165896
-0.0194289
0.00169032
-0.0200337
0.00172704
-0.0206545
0.00176854
-0.0212907
0.001813
-0.0219392
0.00185779
-0.0225945
0.0018993
-0.0232487
0.00193332
-0.0238924
0.00195581
-0.0245165
0.00196395
-0.025115
0.00195769
-0.0256874
0.00194118
-0.0262394
0.00192263
-0.0267807
0.00191161
-0.027322
0.00191496
-0.0278725
0.0019342
-0.0284388
0.0019661
-0.0290256
0.00200536
-0.029636
0.0020471
-0.0302718
0.00208792
-0.0309338
0.00212578
-0.0316223
0.00215966
-0.0323367
0.00218934
-0.0330762
0.00221514
-0.0338398
0.00223771
-0.0346261
0.00225782
-0.0354339
0.00227624
-0.0362619
0.00229366
-0.0371088
0.00231059
-0.0379735
0.00232733
-0.0388548
0.00234395
-0.0397513
0.00236029
-0.0406616
0.00237604
-0.0415839
0.00239075
-0.042516
0.00240397
-0.0434558
0.00241526
-0.0444009
0.0024243
-0.0453492
0.00243093
-0.0462986
0.00243515
-0.0472478
0.00243723
-0.0481958
0.00243766
-0.0491421
0.00243714
-0.0500868
0.00243642
-0.0510299
0.00243603
-0.0519707
0.00243595
-0.0529076
0.00243528
-0.0538378
0.00243233
-0.0547574
0.00242515
-0.0556627
0.00241237
-0.0565514
0.00239405
-0.0574237
0.00237191
-0.0582819
0.0023486
-0.0591294
0.00232635
-0.0599694
0.00230576
-0.0608029
0.00228544
-0.0616292
0.00226287
-0.0624463
0.00223591
-0.0632524
0.002204
-0.0640475
0.00216853
-0.0648332
0.00213204
-0.0656129
0.00209713
-0.0663904
0.00206544
-0.0671686
0.00203732
-0.0679485
0.00201207
-0.0687296
0.00198846
-0.069509
0.00196538
-0.0702829
0.00194204
-0.0710465
0.00191807
-0.0717954
0.00189323
-0.072525
0.00186715
-0.0732315
0.00183909
-0.0739117
0.00180812
-0.0745639
0.0017737
-0.0751877
0.00173615
-0.0757842
0.0016968
-0.0763559
0.00165763
-0.0769057
0.00162038
-0.0774356
0.00158548
-0.0779454
0.00155103
-0.0784318
0.00151214
-0.0788881
0.00146106
-0.0793046
0.00138824
-0.0796707
0.00128452
-0.0799766
0.00114453
-0.0802163
0.00097071
-0.0803906
0.00077706
-0.0805107
0.00059084
-0.0806012
0.000450135
-0.0807017
0.000395568
-0.0808635
0.000457037
-0.0811405
0.000639583
-0.0815739
0.000915564
-0.0821761
0.0012292
-0.0829217
0.001512
-0.0837495
0.00170253
-0.0845784
0.00176235
-0.0853292
0.00168407
-0.0859457
0.00149105
-0.0864057
0.00122883
-0.0867201
0.000950675
-0.0869172
0.000701409
-0.0870278
0.000503721
-0.0870758
0.000357493
-0.0870767
0.000248935
-0.0870373
0.000161174
-0.0869595
8.03436e-05
-0.0868427
-2.25637e-06
-0.0866876
-8.90541e-05
-0.0864967
-0.000178991
-0.0862729
-0.000270736
-0.0860197
-0.000362463
-0.0857389
-0.000452724
-0.0854317
-0.000540342
-0.0850992
-0.000624065
-0.084742
-0.000702953
-0.0843609
-0.000776656
-0.0839572
-0.000845179
-0.083532
-0.000908775
-0.083087
-0.000967849
-0.0826233
-0.00102295
-0.0821419
-0.00107481
-0.0816428
-0.00112439
-0.0811259
-0.00117285
-0.08059
-0.00122144
-0.0800342
-0.00127129
-0.0794571
-0.00132318
-0.0788584
-0.00137738
-0.078238
-0.00143348
-0.0775972
-0.00149052
-0.0769384
-0.00154709
-0.0762647
-0.00160161
-0.0755797
-0.00165252
-0.0748876
-0.00169855
-0.0741921
-0.00173881
-0.0734964
-0.0017729
-0.0728026
-0.00180094
-0.0721117
-0.00182366
-0.0714231
-0.00184248
-0.070735
-0.00185956
-0.0700441
-0.00187765
-0.0693469
-0.00189962
-0.0686403
-0.00192773
-0.0679228
-0.00196262
-0.0671962
-0.00200258
-0.0664658
-0.00204325
-0.0657403
-0.00207826
-0.0650312
-0.00210053
-0.0643504
-0.00210395
-0.0637078
-0.00208492
-0.0631087
-0.0020432
-0.0625519
-0.00198194
-0.0620279
-0.00190705
-0.0615205
-0.00182638
-0.0610084
-0.00174892
-0.0604706
-0.00168406
-0.0598911
-0.00164073
-0.0592637
-0.00162602
-0.0585934
-0.00164324
-0.0578949
-0.00169026
-0.0571879
-0.00175913
-0.056491
-0.00183778
-0.0558172
-0.00191334
-0.0551718
-0.00197533
-0.0545527
-0.00201762
-0.053953
-0.00203861
-0.0533634
-0.00204004
-0.0527738
-0.00202511
-0.0521742
-0.00199654
-0.0515556
-0.00195488
-0.0509112
-0.00189715
-0.0502379
-0.00181621
-0.0495397
-0.00170145
-0.0488308
-0.00154112
-0.0481371
-0.00132618
-0.0474968
-0.00105531
-0.0469552
-0.000739493
-0.0465575
-0.000403847
-0.0463207
-8.29003e-05
-0.0462336
0.000179243
-0.046254
0.000349622
-0.0463247
0.00041353
-0.0463923
0.000376393
-0.0464175
0.000259297
-0.0463792
9.2672e-05
-0.0462691
-9.56437e-05
-0.0460839
-0.000283186
-0.0458286
-0.000452394
-0.0455147
-0.000592807
-0.0451569
-0.000699344
-0.0447705
-0.000772197
-0.0443701
-0.00081532
-0.0439679
-0.000834782
-0.0435734
-0.000837037
-0.0431927
-0.000827577
-0.0428284
-0.000810293
-0.0424808
-0.000787511
-0.0421474
-0.000760469
-0.0418249
-0.000729999
-0.0415091
-0.000696894
-0.0411964
-0.00066207
-0.0408839
-0.000627124
-0.0405705
-0.000594024
-0.0402561
-0.000564546
-0.0399408
-0.000539611
-0.0396242
-0.000519012
-0.0393054
-0.000501818
-0.0389839
-0.000487177
-0.0386598
-0.000474863
-0.0383344
-0.000465176
-0.0380094
-0.000458362
-0.0376873
-0.000454114
-0.0373698
-0.000452847
-0.0370592
-0.000453757
-0.0367577
-0.000454565
-0.0364666
-0.000453833
-0.0361868
-0.000452792
-0.0359164
-0.000457585
-0.0356522
-0.000479384
-0.0353966
-0.000529366
-0.0351625
-0.000609075
-0.034965
-0.000700082
-0.0348117
-0.000765208
-0.0346911
-0.000775268
-0.0345771
-0.000742233
-0.0344521
-0.00069684
-0.0343139
-0.000653134
-0.0341687
-0.000614603
-0.0340227
-0.000581301
-0.0338801
-0.000551693
-0.033743