/*--------------------------------*- C++ -*----------------------------------*\
| =========                 |                                                 |
| \\      /  F ield         | OpenFOAM: The Open Source CFD Toolbox           |
|  \\    /   O peration     | Version:  v2006                                 |
|   \\  /    A nd           | Website:  www.openfoam.com                      |
|    \\/     M anipulation  |                                                 |
\*---------------------------------------------------------------------------*/
FoamFile
{
    version     2.0;
    format      ascii;
    class       volVectorField;
    location    "14";
    object      U;
}
// * * * * * * * * * * * * * * * * * * * * * * * * * * * * * * * * * * * * * //

dimensions      [0 1 -1 0 0 0 0];


internalField   nonuniform List<vector> 
150000
(
(-0.00333209 0.00105814 0)
(-0.00612285 -6.55195e-05 0)
(-0.00836401 -0.000555266 0)
(-0.0104841 -0.000605607 0)
(-0.0128464 -0.000602646 0)
(-0.015337 -0.000542204 0)
(-0.0180886 -0.000465397 0)
(-0.021121 -0.000383688 0)
(-0.0244231 -0.000293678 0)
(-0.0279722 -0.000205677 0)
(-0.0317527 -0.000113857 0)
(-0.0357535 -1.13758e-05 0)
(-0.039976 9.96121e-05 0)
(-0.0444198 0.000226214 0)
(-0.0490559 0.000364494 0)
(-0.0538819 0.000504027 0)
(-0.0588785 0.000644571 0)
(-0.0640302 0.000778625 0)
(-0.0693265 0.000905144 0)
(-0.0747522 0.00102641 0)
(-0.0803097 0.00114026 0)
(-0.0860085 0.00125768 0)
(-0.0918443 0.00138248 0)
(-0.0978353 0.00149654 0)
(-0.103974 0.00158931 0)
(-0.110243 0.00167254 0)
(-0.116648 0.00175008 0)
(-0.1232 0.00183335 0)
(-0.129912 0.00192502 0)
(-0.136795 0.00203077 0)
(-0.143852 0.00215231 0)
(-0.151086 0.00228869 0)
(-0.15851 0.00243493 0)
(-0.166127 0.00259235 0)
(-0.173931 0.00275257 0)
(-0.181921 0.00290762 0)
(-0.190094 0.00304601 0)
(-0.198441 0.00315708 0)
(-0.206967 0.0032313 0)
(-0.215669 0.00326683 0)
(-0.224541 0.00326158 0)
(-0.233605 0.00322267 0)
(-0.242887 0.00318741 0)
(-0.252407 0.00319331 0)
(-0.262177 0.00327837 0)
(-0.2722 0.00345677 0)
(-0.282484 0.00372153 0)
(-0.293034 0.00404776 0)
(-0.303849 0.00439329 0)
(-0.314908 0.00470598 0)
(-0.32616 0.00494314 0)
(-0.337538 0.00508552 0)
(-0.348962 0.00513679 0)
(-0.360362 0.00511256 0)
(-0.371677 0.00502945 0)
(-0.382858 0.00490254 0)
(-0.39387 0.00474684 0)
(-0.404689 0.00457657 0)
(-0.415305 0.00440319 0)
(-0.425719 0.00423454 0)
(-0.435939 0.00407511 0)
(-0.445978 0.00392662 0)
(-0.45585 0.00378894 0)
(-0.465571 0.00366091 0)
(-0.475158 0.00354108 0)
(-0.484624 0.00342828 0)
(-0.493983 0.00332186 0)
(-0.503251 0.00322194 0)
(-0.51244 0.00312951 0)
(-0.521565 0.00304632 0)
(-0.530641 0.00297451 0)
(-0.539682 0.00291595 0)
(-0.548701 0.00287135 0)
(-0.557709 0.00283945 0)
(-0.566714 0.00281629 0)
(-0.575718 0.00279502 0)
(-0.584719 0.00276656 0)
(-0.59371 0.00272172 0)
(-0.602681 0.00265467 0)
(-0.611627 0.00256739 0)
(-0.620547 0.00247301 0)
(-0.629451 0.00239545 0)
(-0.638358 0.00236371 0)
(-0.647296 0.00240171 0)
(-0.656292 0.00251854 0)
(-0.665372 0.00270492 0)
(-0.674549 0.00293903 0)
(-0.683832 0.0031988 0)
(-0.693226 0.00347255 0)
(-0.702735 0.00375985 0)
(-0.712368 0.00406061 0)
(-0.722127 0.00435849 0)
(-0.731989 0.00461041 0)
(-0.741889 0.00475149 0)
(-0.751715 0.00471577 0)
(-0.761316 0.00446449 0)
(-0.770523 0.00400696 0)
(-0.779188 0.00339837 0)
(-0.787215 0.00272235 0)
(-0.794586 0.00207269 0)
(-0.801361 0.00153056 0)
(-0.807663 0.0011442 0)
(-0.813657 0.000926838 0)
(-0.819514 0.000868261 0)
(-0.825382 0.000940019 0)
(-0.831366 0.00110734 0)
(-0.837528 0.00133849 0)
(-0.843893 0.00160715 0)
(-0.850459 0.00189002 0)
(-0.857205 0.00216391 0)
(-0.864095 0.00240592 0)
(-0.871094 0.00259722 0)
(-0.878165 0.00272828 0)
(-0.885278 0.00280252 0)
(-0.892405 0.00283695 0)
(-0.899507 0.00286005 0)
(-0.906528 0.00290786 0)
(-0.913385 0.00301943 0)
(-0.919976 0.00323065 0)
(-0.926204 0.00355865 0)
(-0.932019 0.003984 0)
(-0.937454 0.00444797 0)
(-0.942636 0.00485832 0)
(-0.947744 0.00509341 0)
(-0.952921 0.00500377 0)
(-0.958175 0.00442482 0)
(-0.963304 0.00321979 0)
(-0.96791 0.00135747 0)
(-0.971502 -0.00100435 0)
(-0.973684 -0.00349142 0)
(-0.974316 -0.00557134 0)
(-0.973537 -0.00670647 0)
(-0.972059 -0.00664625 0)
(-0.970639 -0.00562123 0)
(-0.969727 -0.00408736 0)
(-0.969496 -0.00247616 0)
(-0.969936 -0.00110308 0)
(-0.970961 -0.000173775 0)
(-0.972315 0.000292909 0)
(-0.973739 0.000402973 0)
(-0.975001 0.000289446 0)
(-0.975916 4.88277e-05 0)
(-0.976355 -0.000257778 0)
(-0.976226 -0.000602636 0)
(-0.975491 -0.000909047 0)
(-0.974243 -0.00109894 0)
(-0.972599 -0.00115539 0)
(-0.970681 -0.00109536 0)
(-0.968588 -0.000950064 0)
(-0.96639 -0.000753657 0)
(-0.964128 -0.000537845 0)
(-0.961815 -0.000329717 0)
(-0.959443 -0.000151354 0)
(-0.956991 -2.02583e-05 0)
(-0.954422 5.09511e-05 0)
(-0.951699 5.5753e-05 0)
(-0.948779 -5.37573e-06 0)
(-0.945628 -0.000125172 0)
(-0.942214 -0.000290885 0)
(-0.938516 -0.000486496 0)
(-0.934516 -0.000695485 0)
(-0.930206 -0.000903337 0)
(-0.925579 -0.00109919 0)
(-0.920632 -0.00127639 0)
(-0.915365 -0.00143207 0)
(-0.90978 -0.00156613 0)
(-0.903885 -0.00168019 0)
(-0.897692 -0.00177673 0)
(-0.891219 -0.00185862 0)
(-0.88449 -0.00192888 0)
(-0.877536 -0.00199009 0)
(-0.870395 -0.00204331 0)
(-0.863107 -0.00208636 0)
(-0.855717 -0.00211181 0)
(-0.848264 -0.00210584 0)
(-0.840783 -0.00204942 0)
(-0.833294 -0.00192313 0)
(-0.825796 -0.00171564 0)
(-0.818266 -0.00143405 0)
(-0.810654 -0.00111121 0)
(-0.802887 -0.000804925 0)
(-0.79488 -0.000585564 0)
(-0.786559 -0.000514839 0)
(-0.777891 -0.000623037 0)
(-0.76892 -0.000892604 0)
(-0.759792 -0.00125968 0)
(-0.750745 -0.00163794 0)
(-0.742059 -0.00195568 0)
(-0.733972 -0.00218933 0)
(-0.726583 -0.00237649 0)
(-0.719782 -0.00260045 0)
(-0.713249 -0.00295162 0)
(-0.706531 -0.00348232 0)
(-0.699175 -0.00417309 0)
(-0.69086 -0.00492778 0)
(-0.681474 -0.00561175 0)
(-0.671129 -0.00609935 0)
(-0.660109 -0.00630414 0)
(-0.648792 -0.00619147 0)
(-0.637571 -0.00577464 0)
(-0.626804 -0.00510209 0)
(-0.616791 -0.00424424 0)
(-0.607764 -0.00328732 0)
(-0.599901 -0.00232776 0)
(-0.593332 -0.00145563 0)
(-0.588129 -0.000743262 0)
(-0.584295 -0.000236718 0)
(-0.581752 4.97487e-05 0)
(-0.58033 0.000131076 0)
(-0.57978 4.06149e-05 0)
(-0.579799 -0.00017375 0)
(-0.580072 -0.000560269 0)
(-0.580358 -0.00113439 0)
(-0.580482 -0.0017982 0)
(-0.580332 -0.00240042 0)
(-0.579886 -0.00282559 0)
(-0.579187 -0.00300334 0)
(-0.578301 -0.00292148 0)
(-0.577299 -0.002628 0)
(-0.576262 -0.00217087 0)
(-0.575267 -0.00159642 0)
(-0.574367 -0.00098097 0)
(-0.573575 -0.0004106 0)
(-0.572851 4.10924e-05 0)
(-0.572122 0.000333579 0)
(-0.571299 0.000473171 0)
(-0.570319 0.000510701 0)
(-0.569172 0.000524269 0)
(-0.567911 0.000592171 0)
(-0.566653 0.000769099 0)
(-0.565553 0.00107861 0)
(-0.564767 0.00150312 0)
(-0.564425 0.00197911 0)
(-0.564562 0.00244281 0)
(-0.565123 0.00284592 0)
(-0.56606 0.00318237 0)
(-0.567333 0.00350721 0)
(-0.568955 0.00391241 0)
(-0.571013 0.00446737 0)
(-0.573633 0.0051651 0)
(-0.576913 0.00592575 0)
(-0.580871 0.00664929 0)
(-0.585442 0.00726161 0)
(-0.590511 0.00772135 0)
(-0.595931 0.00800406 0)
(-0.601535 0.0080972 0)
(-0.607137 0.0080204 0)
(-0.612546 0.00785303 0)
(-0.617609 0.00775706 0)
(-0.622314 0.00796243 0)
(-0.62688 0.00861037 0)
(-0.631683 0.00949509 0)
(-0.636954 0.00997545 0)
(-0.642262 0.009225 0)
(-0.6463 0.00680182 0)
(-0.647434 0.00347977 0)
(-0.645277 0.00104887 0)
(-0.642191 0.000172403 0)
(-0.639142 -2.58556e-05 0)
(-0.636251 -0.000110502 0)
(-0.633521 -0.000186529 0)
(-0.630916 -0.000254374 0)
(-0.628416 -0.000307134 0)
(-0.626016 -0.000343522 0)
(-0.623716 -0.000366751 0)
(-0.62152 -0.000380583 0)
(-0.619427 -0.000387376 0)
(-0.617439 -0.000388099 0)
(-0.615555 -0.000382951 0)
(-0.613778 -0.000371841 0)
(-0.61211 -0.00035464 0)
(-0.610556 -0.000331318 0)
(-0.609123 -0.00030202 0)
(-0.607818 -0.000267104 0)
(-0.606648 -0.000227146 0)
(-0.605624 -0.000182906 0)
(-0.604753 -0.000135279 0)
(-0.604044 -8.52295e-05 0)
(-0.603505 -3.36761e-05 0)
(-0.603141 1.82187e-05 0)
(-0.602956 6.68908e-05 0)
(-0.602946 0.000103745 0)
(-0.603087 0.000123994 0)
(-0.603377 0.00013361 0)
(-0.603812 0.000136819 0)
(-0.60439 0.000136892 0)
(-0.605111 0.000136799 0)
(-0.605973 0.00013935 0)
(-0.606978 0.000146834 0)
(-0.608128 0.000160667 0)
(-0.609423 0.000181538 0)
(-0.610866 0.000209587 0)
(-0.612461 0.000244491 0)
(-0.614209 0.000285692 0)
(-0.616113 0.000332527 0)
(-0.618176 0.000384294 0)
(-0.620399 0.000440313 0)
(-0.622785 0.000499957 0)
(-0.625334 0.00056265 0)
(-0.628048 0.000627892 0)
(-0.630927 0.000695256 0)
(-0.63397 0.000764339 0)
(-0.637178 0.000834731 0)
(-0.640548 0.000906023 0)
(-0.644079 0.000977832 0)
(-0.647769 0.00104982 0)
(-0.651614 0.00112164 0)
(-0.655611 0.00119293 0)
(-0.659755 0.00126322 0)
(-0.664043 0.00133206 0)
(-0.668468 0.00139907 0)
(-0.673024 0.00146389 0)
(-0.677706 0.00152617 0)
(-0.682507 0.00158551 0)
(-0.687419 0.00164152 0)
(-0.692435 0.00169386 0)
(-0.697547 0.00174226 0)
(-0.702745 0.00178653 0)
(-0.708021 0.00182651 0)
(-0.713366 0.00186198 0)
(-0.71877 0.00189274 0)
(-0.724224 0.00191858 0)
(-0.729716 0.00193919 0)
(-0.735237 0.00195432 0)
(-0.740777 0.00196382 0)
(-0.746326 0.00196765 0)
(-0.751873 0.00196591 0)
(-0.757408 0.00195877 0)
(-0.762923 0.00194651 0)
(-0.768408 0.00192948 0)
(-0.773854 0.00190813 0)
(-0.779254 0.00188294 0)
(-0.784601 0.00185444 0)
(-0.789887 0.00182319 0)
(-0.795105 0.00178971 0)
(-0.800251 0.00175444 0)
(-0.805319 0.00171769 0)
(-0.810303 0.00167962 0)
(-0.815197 0.00164024 0)
(-0.819997 0.00159943 0)
(-0.824696 0.00155709 0)
(-0.82929 0.00151311 0)
(-0.833771 0.00146735 0)
(-0.838135 0.00141962 0)
(-0.842375 0.00136972 0)
(-0.846486 0.00131751 0)
(-0.850462 0.00126291 0)
(-0.854298 0.00120587 0)
(-0.857991 0.00114639 0)
(-0.861536 0.0010845 0)
(-0.864931 0.00102032 0)
(-0.868173 0.00095402 0)
(-0.871262 0.000885867 0)
(-0.874197 0.000816166 0)
(-0.87698 0.000745238 0)
(-0.879612 0.000673439 0)
(-0.882096 0.000601171 0)
(-0.884433 0.000528894 0)
(-0.886628 0.000457124 0)
(-0.888681 0.000386397 0)
(-0.890596 0.000317299 0)
(-0.892371 0.000250487 0)
(-0.894006 0.000186592 0)
(-0.895498 0.00012602 0)
(-0.896842 6.89709e-05 0)
(-0.898034 1.54386e-05 0)
(-0.899068 -3.48675e-05 0)
(-0.899939 -8.23911e-05 0)
(-0.900645 -0.000127684 0)
(-0.901187 -0.00017134 0)
(-0.901567 -0.000213922 0)
(-0.901793 -0.000255081 0)
(-0.901875 -0.000294218 0)
(-0.901829 -0.000332795 0)
(-0.901689 -0.000370739 0)
(-0.901461 -0.000412814 0)
(-0.901155 -0.000460522 0)
(-0.900778 -0.00051398 0)
(-0.900335 -0.000573096 0)
(-0.89983 -0.000638186 0)
(-0.899263 -0.000710258 0)
(-0.898638 -0.000790767 0)
(-0.897955 -0.000880911 0)
(-0.897217 -0.000981079 0)
(-0.896427 -0.00109141 0)
(-0.895589 -0.00121352 0)
(-0.894706 -0.00135129 0)
(-0.893769 -0.00150721 0)
(-0.89276 -0.00167284 0)
(-0.891653 -0.00181738 0)
(-0.890435 -0.00188382 0)
(-0.889115 -0.00179969 0)
(-0.887742 -0.00150122 0)
(-0.886388 -0.000960152 0)
(-0.885133 -0.000201486 0)
(-0.884035 0.00069082 0)
(-0.883103 0.00157429 0)
(-0.882265 0.00225715 0)
(-0.881335 0.00254547 0)
(-0.880017 0.00234324 0)
(-0.878017 0.00173474 0)
(-0.875194 0.000957995 0)
(-0.871634 0.000264027 0)
(-0.867566 -0.000206613 0)
(-0.863225 -0.000440199 0)
(-0.85876 -0.00049672 0)
(-0.854216 -0.000455821 0)
(-0.849558 -0.000389372 0)
(-0.844705 -0.000352261 0)
(-0.839562 -0.000374623 0)
(-0.834043 -0.000456798 0)
(-0.8281 -0.000577227 0)
(-0.821715 -0.000716871 0)
(-0.814883 -0.000888126 0)
(-0.807569 -0.00114512 0)
(-0.799677 -0.00155827 0)
(-0.791054 -0.00216124 0)
(-0.781553 -0.0029067 0)
(-0.771114 -0.00366972 0)
(-0.759823 -0.00430385 0)
(-0.747898 -0.00471052 0)
(-0.735628 -0.00487295 0)
(-0.723276 -0.0048409 0)
(-0.711022 -0.00469001 0)
(-0.698954 -0.00448893 0)
(-0.687088 -0.00428817 0)
(-0.6754 -0.00412298 0)
(-0.663844 -0.0040165 0)
(-0.652365 -0.00397917 0)
(-0.640906 -0.00400885 0)
(-0.629422 -0.00409435 0)
(-0.617883 -0.00422039 0)
(-0.606275 -0.00437154 0)
(-0.594593 -0.0045348 0)
(-0.582842 -0.00470083 0)
(-0.571028 -0.00486433 0)
(-0.559154 -0.00502362 0)
(-0.547227 -0.0051792 0)
(-0.535247 -0.00533223 0)
(-0.523215 -0.00548342 0)
(-0.511132 -0.00563242 0)
(-0.498996 -0.00577775 0)
(-0.486805 -0.00591716 0)
(-0.474555 -0.00604807 0)
(-0.462241 -0.00616812 0)
(-0.449858 -0.00627563 0)
(-0.437401 -0.00636988 0)
(-0.424865 -0.00645123 0)
(-0.412249 -0.0065208 0)
(-0.39955 -0.00658008 0)
(-0.386771 -0.00663043 0)
(-0.373915 -0.00667278 0)
(-0.360988 -0.00670764 0)
(-0.347997 -0.00673525 0)
(-0.33495 -0.00675558 0)
(-0.321858 -0.00676831 0)
(-0.308732 -0.00677282 0)
(-0.295587 -0.00676856 0)
(-0.282439 -0.00675517 0)
(-0.269304 -0.00673252 0)
(-0.256202 -0.00670074 0)
(-0.243154 -0.00666026 0)
(-0.230181 -0.00661155 0)
(-0.217307 -0.00655491 0)
(-0.204557 -0.00649057 0)
(-0.191959 -0.006419 0)
(-0.179541 -0.0063411 0)
(-0.167337 -0.00625781 0)
(-0.155381 -0.00616948 0)
(-0.143705 -0.00607508 0)
(-0.132336 -0.00597229 0)
(-0.121301 -0.00585906 0)
(-0.110623 -0.00573466 0)
(-0.100328 -0.00559929 0)
(-0.0904412 -0.00545333 0)
(-0.0809869 -0.00529779 0)
(-0.0719906 -0.00513243 0)
(-0.063489 -0.00494506 0)
(-0.0555057 -0.00475548 0)
(-0.0480527 -0.00455881 0)
(-0.0411511 -0.0043508 0)
(-0.0348179 -0.00414188 0)
(-0.0290645 -0.00393037 0)
(-0.0238945 -0.00372092 0)
(-0.0193111 -0.00351013 0)
(-0.0153146 -0.00329962 0)
(-0.011899 -0.00309233 0)
(-0.00905407 -0.00289216 0)
(-0.00676289 -0.00270363 0)
(-0.00500347 -0.00253232 0)
(-0.00374484 -0.00239154 0)
(-0.0029299 -0.00229193 0)
(-0.00246607 -0.00223055 0)
(-0.00222553 -0.00220109 0)
(-0.00203268 -0.00221725 0)
(-0.00170358 -0.00227656 0)
(-0.000793418 -0.00241779 0)
(0.000747921 -0.00247278 0)
(0.00327641 -0.0018166 0)
(0.00348073 0.000292215 0)
(-0.00513659 0.00683819 0)
(-0.0103586 0.00434558 0)
(-0.0165075 0.00414538 0)
(-0.0233159 0.00442455 0)
(-0.0308983 0.00461118 0)
(-0.0387318 0.00495358 0)
(-0.0469713 0.00533736 0)
(-0.0555161 0.00571399 0)
(-0.0642937 0.00605932 0)
(-0.0732353 0.0063777 0)
(-0.0822785 0.00667378 0)
(-0.0913764 0.00694726 0)
(-0.100478 0.00718801 0)
(-0.109535 0.00740309 0)
(-0.118503 0.00758631 0)
(-0.127364 0.00773642 0)
(-0.136105 0.00786349 0)
(-0.144733 0.00796865 0)
(-0.153255 0.00806172 0)
(-0.161688 0.00814802 0)
(-0.170045 0.00823993 0)
(-0.178336 0.0083438 0)
(-0.18657 0.00845862 0)
(-0.194778 0.00858058 0)
(-0.203007 0.0087085 0)
(-0.211274 0.00885089 0)
(-0.219587 0.00900849 0)
(-0.227943 0.00917902 0)
(-0.236333 0.00935549 0)
(-0.244743 0.0095313 0)
(-0.253164 0.00970212 0)
(-0.261593 0.00986894 0)
(-0.270037 0.0100318 0)
(-0.278517 0.0101899 0)
(-0.287068 0.0103465 0)
(-0.295734 0.0105096 0)
(-0.30457 0.0106903 0)
(-0.313638 0.0109035 0)
(-0.322998 0.0111608 0)
(-0.332697 0.0114691 0)
(-0.342752 0.0118308 0)
(-0.353136 0.0122386 0)
(-0.363775 0.0126659 0)
(-0.374542 0.0130664 0)
(-0.385272 0.0133944 0)
(-0.395814 0.0136265 0)
(-0.406081 0.0137752 0)
(-0.416085 0.0138754 0)
(-0.425918 0.0139568 0)
(-0.435715 0.0140272 0)
(-0.445596 0.0140771 0)
(-0.455643 0.0140949 0)
(-0.465901 0.0140742 0)
(-0.476388 0.0140146 0)
(-0.487102 0.0139187 0)
(-0.498031 0.0137924 0)
(-0.509159 0.0136442 0)
(-0.52047 0.0134836 0)
(-0.531949 0.0133195 0)
(-0.543585 0.0131595 0)
(-0.555369 0.0130092 0)
(-0.567297 0.0128724 0)
(-0.579367 0.0127513 0)
(-0.591581 0.0126472 0)
(-0.60394 0.0125604 0)
(-0.616442 0.012491 0)
(-0.629088 0.0124388 0)
(-0.641872 0.0124035 0)
(-0.654788 0.0123844 0)
(-0.667823 0.0123798 0)
(-0.680964 0.0123872 0)
(-0.694189 0.0124034 0)
(-0.707476 0.0124243 0)
(-0.720804 0.0124461 0)
(-0.734154 0.0124657 0)
(-0.747519 0.012482 0)
(-0.760901 0.012497 0)
(-0.774318 0.0125159 0)
(-0.787794 0.0125459 0)
(-0.801352 0.0125931 0)
(-0.814996 0.0126574 0)
(-0.828699 0.0127301 0)
(-0.8424 0.0127947 0)
(-0.856015 0.012833 0)
(-0.869455 0.0128327 0)
(-0.882651 0.0127928 0)
(-0.895561 0.012723 0)
(-0.908165 0.0126376 0)
(-0.920443 0.0125477 0)
(-0.932362 0.0124553 0)
(-0.943868 0.0123525 0)
(-0.954906 0.0122244 0)
(-0.96545 0.0120542 0)
(-0.975527 0.0118277 0)
(-0.985237 0.0115377 0)
(-0.994735 0.0111872 0)
(-1.00421 0.0107924 0)
(-1.01383 0.0103792 0)
(-1.02374 0.0099797 0)
(-1.03402 0.00962923 0)
(-1.04465 0.0093585 0)
(-1.05558 0.0091845 0)
(-1.06669 0.00910792 0)
(-1.07786 0.00911617 0)
(-1.08894 0.00918381 0)
(-1.09984 0.00927846 0)
(-1.11044 0.00936824 0)
(-1.12068 0.00942831 0)
(-1.13051 0.00944575 0)
(-1.13994 0.00942156 0)
(-1.14899 0.0093692 0)
(-1.15772 0.00930889 0)
(-1.16616 0.00925749 0)
(-1.17431 0.00921549 0)
(-1.18207 0.00915504 0)
(-1.18923 0.00901541 0)
(-1.1955 0.00871261 0)
(-1.20051 0.00816733 0)
(-1.20397 0.0073467 0)
(-1.20577 0.00630107 0)
(-1.20606 0.0051759 0)
(-1.20532 0.00418332 0)
(-1.20432 0.00352923 0)
(-1.2039 0.00332739 0)
(-1.2049 0.0035502 0)
(-1.20791 0.00405218 0)
(-1.21328 0.00464583 0)
(-1.22113 0.00517122 0)
(-1.23131 0.00551523 0)
(-1.24338 0.0055943 0)
(-1.25656 0.00537215 0)
(-1.26985 0.00491811 0)
(-1.28192 0.00436106 0)
(-1.29183 0.00376596 0)
(-1.29935 0.00320234 0)
(-1.30473 0.0027548 0)
(-1.30838 0.0024549 0)
(-1.31067 0.00223913 0)
(-1.31201 0.00202518 0)
(-1.31265 0.00175579 0)
(-1.31277 0.00140521 0)
(-1.31246 0.00096261 0)
(-1.31178 0.00043025 0)
(-1.31075 -0.000175963 0)
(-1.30938 -0.000797827 0)
(-1.30759 -0.00137184 0)
(-1.30528 -0.00187613 0)
(-1.3024 -0.0023124 0)
(-1.29891 -0.00269226 0)
(-1.29482 -0.00303091 0)
(-1.29013 -0.00334323 0)
(-1.28488 -0.0036415 0)
(-1.27913 -0.00393435 0)
(-1.27293 -0.00422623 0)
(-1.26635 -0.00451792 0)
(-1.25946 -0.00480809 0)
(-1.25232 -0.00509519 0)
(-1.24496 -0.00537928 0)
(-1.23742 -0.00566297 0)
(-1.22969 -0.00595143 0)
(-1.22176 -0.00625127 0)
(-1.21361 -0.00656887 0)
(-1.20521 -0.00690851 0)
(-1.19653 -0.00727094 0)
(-1.18758 -0.00765277 0)
(-1.17836 -0.00804675 0)
(-1.16887 -0.00844261 0)
(-1.15915 -0.00882796 0)
(-1.14922 -0.0091893 0)
(-1.13914 -0.00951293 0)
(-1.12893 -0.00978643 0)
(-1.11862 -0.0100011 0)
(-1.10821 -0.010156 0)
(-1.09769 -0.0102614 0)
(-1.08699 -0.0103423 0)
(-1.07599 -0.0104369 0)
(-1.0646 -0.0105915 0)
(-1.0527 -0.0108498 0)
(-1.04024 -0.0112401 0)
(-1.02725 -0.0117634 0)
(-1.01387 -0.0123858 0)
(-1.00033 -0.0130356 0)
(-0.986931 -0.0136092 0)
(-0.974002 -0.0139832 0)
(-0.961831 -0.0140367 0)
(-0.950623 -0.0136806 0)
(-0.940454 -0.0128932 0)
(-0.931259 -0.01175 0)
(-0.922836 -0.0104305 0)
(-0.914878 -0.00919086 0)
(-0.907039 -0.0082983 0)
(-0.898997 -0.00794827 0)
(-0.890522 -0.0081973 0)
(-0.881507 -0.00894494 0)
(-0.871976 -0.00997558 0)
(-0.862039 -0.0110421 0)
(-0.851831 -0.0119385 0)
(-0.841466 -0.0125368 0)
(-0.831012 -0.0127875 0)
(-0.820495 -0.0126969 0)
(-0.809933 -0.0122956 0)
(-0.799362 -0.0116147 0)
(-0.788877 -0.0106755 0)
(-0.778664 -0.00949158 0)
(-0.769016 -0.00807777 0)
(-0.760333 -0.00647175 0)
(-0.753083 -0.00475639 0)
(-0.747724 -0.00306422 0)
(-0.744586 -0.00155384 0)
(-0.743733 -0.00036123 0)
(-0.744978 0.000468687 0)
(-0.748025 0.00105725 0)
(-0.752397 0.00149378 0)
(-0.757508 0.0017981 0)
(-0.762722 0.0019416 0)
(-0.767379 0.00188024 0)
(-0.770905 0.00162132 0)
(-0.772908 0.00122725 0)
(-0.77322 0.00077692 0)
(-0.771977 0.000317515 0)
(-0.769326 -0.00013488 0)
(-0.765494 -0.000564985 0)
(-0.760764 -0.000968888 0)
(-0.75543 -0.00134942 0)
(-0.749769 -0.00170809 0)
(-0.744008 -0.00203878 0)
(-0.738304 -0.00232488 0)
(-0.732741 -0.00254211 0)
(-0.727338 -0.00266597 0)
(-0.722069 -0.00267923 0)
(-0.716883 -0.00257536 0)
(-0.711729 -0.00236798 0)
(-0.70657 -0.00209429 0)
(-0.701444 -0.00178798 0)
(-0.696426 -0.00148209 0)
(-0.691526 -0.00119689 0)
(-0.686715 -0.000926957 0)
(-0.68191 -0.000644771 0)
(-0.676971 -0.000321655 0)
(-0.67174 4.56502e-05 0)
(-0.666093 0.00042804 0)
(-0.659968 0.000781883 0)
(-0.653366 0.00107069 0)
(-0.646328 0.00127064 0)
(-0.638923 0.00136265 0)
(-0.631242 0.00132365 0)
(-0.623423 0.00112351 0)
(-0.61565 0.000757973 0)
(-0.608073 0.000265437 0)
(-0.60069 -0.000259022 0)
(-0.593186 -0.000688093 0)
(-0.584852 -0.000974514 0)
(-0.574873 -0.00128252 0)
(-0.563092 -0.00194575 0)
(-0.550578 -0.00316293 0)
(-0.539523 -0.00460634 0)
(-0.531776 -0.00546346 0)
(-0.525862 -0.00544876 0)
(-0.520835 -0.00505366 0)
(-0.516404 -0.00463777 0)
(-0.512387 -0.00429585 0)
(-0.508679 -0.00402391 0)
(-0.505217 -0.00379576 0)
(-0.501966 -0.00359019 0)
(-0.49891 -0.00339627 0)
(-0.496037 -0.00320997 0)
(-0.493341 -0.00303002 0)
(-0.490818 -0.00285548 0)
(-0.488468 -0.00268495 0)
(-0.486286 -0.00251649 0)
(-0.484272 -0.0023478 0)
(-0.482423 -0.00217644 0)
(-0.480737 -0.00200002 0)
(-0.479212 -0.00181636 0)
(-0.477846 -0.00162368 0)
(-0.47664 -0.00142064 0)
(-0.475594 -0.00120646 0)
(-0.474709 -0.000980951 0)
(-0.473989 -0.000744504 0)
(-0.473441 -0.000498406 0)
(-0.473071 -0.000246337 0)
(-0.472895 6.70524e-06 0)
(-0.472953 0.000257024 0)
(-0.473266 0.00050655 0)
(-0.473846 0.000755963 0)
(-0.474703 0.0010045 0)
(-0.475844 0.00125089 0)
(-0.477273 0.00149425 0)
(-0.478989 0.00173405 0)
(-0.480989 0.00197002 0)
(-0.483266 0.00220219 0)
(-0.485812 0.00243088 0)
(-0.488616 0.00265654 0)
(-0.491667 0.0028797 0)
(-0.494953 0.00310075 0)
(-0.498463 0.00331998 0)
(-0.502186 0.00353757 0)
(-0.506111 0.00375351 0)
(-0.510228 0.00396758 0)
(-0.514527 0.00417945 0)
(-0.518999 0.00438867 0)
(-0.523635 0.00459475 0)
(-0.528424 0.00479706 0)
(-0.53336 0.00499493 0)
(-0.538431 0.0051877 0)
(-0.543629 0.00537479 0)
(-0.548945 0.00555563 0)
(-0.55437 0.00572965 0)
(-0.559892 0.00589625 0)
(-0.565503 0.00605488 0)
(-0.571194 0.00620504 0)
(-0.576954 0.00634628 0)
(-0.582773 0.00647815 0)
(-0.588642 0.00660023 0)
(-0.594551 0.00671209 0)
(-0.600491 0.0068133 0)
(-0.606452 0.0069035 0)
(-0.612426 0.00698247 0)
(-0.618406 0.00705009 0)
(-0.624382 0.00710644 0)
(-0.630347 0.00715171 0)
(-0.636296 0.0071861 0)
(-0.642222 0.00720973 0)
(-0.64812 0.00722275 0)
(-0.653985 0.00722538 0)
(-0.659813 0.00721788 0)
(-0.6656 0.00720049 0)
(-0.671342 0.00717352 0)
(-0.677037 0.00713731 0)
(-0.682682 0.00709223 0)
(-0.688272 0.00703868 0)
(-0.693807 0.00697703 0)
(-0.699282 0.00690759 0)
(-0.704694 0.0068306 0)
(-0.710039 0.0067462 0)
(-0.715312 0.00665445 0)
(-0.72051 0.00655531 0)
(-0.725626 0.00644864 0)
(-0.730656 0.00633428 0)
(-0.735595 0.00621204 0)
(-0.740437 0.00608178 0)
(-0.745177 0.00594346 0)
(-0.74981 0.00579715 0)
(-0.754332 0.00564308 0)
(-0.758737 0.00548168 0)
(-0.763022 0.00531353 0)
(-0.767184 0.00513943 0)
(-0.77122 0.00496036 0)
(-0.775129 0.00477747 0)
(-0.778909 0.004592 0)
(-0.782559 0.00440524 0)
(-0.78608 0.00421853 0)
(-0.789473 0.00403323 0)
(-0.792739 0.00385061 0)
(-0.795877 0.00367164 0)
(-0.798891 0.00349701 0)
(-0.801779 0.00332704 0)
(-0.804545 0.00316144 0)
(-0.807186 0.00299923 0)
(-0.809704 0.00283868 0)
(-0.812098 0.00267745 0)
(-0.814365 0.00251272 0)
(-0.816503 0.00234146 0)
(-0.818508 0.00216097 0)
(-0.820372 0.0019694 0)
(-0.822089 0.00176627 0)
(-0.823649 0.00155284 0)
(-0.825044 0.00133227 0)
(-0.826262 0.00110936 0)
(-0.827295 0.000890077 0)
(-0.828137 0.000680837 0)
(-0.828782 0.000488344 0)
(-0.829233 0.000318342 0)
(-0.829489 0.000174086 0)
(-0.829537 5.7737e-05 0)
(-0.829392 -3.72007e-05 0)
(-0.829074 -0.000113768 0)
(-0.828606 -0.000175049 0)
(-0.82801 -0.000223611 0)
(-0.827308 -0.000261205 0)
(-0.826523 -0.000288471 0)
(-0.825673 -0.000304841 0)
(-0.824779 -0.000308631 0)
(-0.823859 -0.000297434 0)
(-0.822933 -0.000269157 0)
(-0.822019 -0.000224074 0)
(-0.821136 -0.000167789 0)
(-0.820306 -0.000113884 0)
(-0.819552 -8.42688e-05 0)
(-0.81889 -0.000106052 0)
(-0.818315 -0.000206315 0)
(-0.817765 -0.000407492 0)
(-0.817104 -0.00072448 0)
(-0.816114 -0.00116151 0)
(-0.814507 -0.00170811 0)
(-0.811967 -0.00233855 0)
(-0.808206 -0.00302016 0)
(-0.803044 -0.00372731 0)
(-0.796483 -0.0044469 0)
(-0.788763 -0.00516127 0)
(-0.780316 -0.00582071 0)
(-0.771612 -0.00634431 0)
(-0.762984 -0.00667517 0)
(-0.754579 -0.00683124 0)
(-0.746395 -0.00689708 0)
(-0.738345 -0.00697767 0)
(-0.730301 -0.00715474 0)
(-0.722122 -0.00746513 0)
(-0.713687 -0.00790352 0)
(-0.704908 -0.00843766 0)
(-0.695739 -0.00902542 0)
(-0.686172 -0.00963021 0)
(-0.67622 -0.0102329 0)
(-0.665909 -0.0108379 0)
(-0.655274 -0.0114703 0)
(-0.644364 -0.0121597 0)
(-0.633239 -0.0129164 0)
(-0.621965 -0.0137103 0)
(-0.610602 -0.0144673 0)
(-0.599199 -0.0150933 0)
(-0.587801 -0.0155144 0)
(-0.576453 -0.0157107 0)
(-0.565193 -0.0157216 0)
(-0.554039 -0.0156207 0)
(-0.542977 -0.0154802 0)
(-0.531977 -0.0153465 0)
(-0.521011 -0.0152401 0)
(-0.510068 -0.0151658 0)
(-0.499149 -0.0151218 0)
(-0.488259 -0.0151022 0)
(-0.477399 -0.0150963 0)
(-0.466568 -0.0150922 0)
(-0.455767 -0.0150798 0)
(-0.445003 -0.0150538 0)
(-0.43428 -0.0150145 0)
(-0.423606 -0.0149653 0)
(-0.412982 -0.0149103 0)
(-0.402409 -0.0148527 0)
(-0.391879 -0.0147945 0)
(-0.381389 -0.0147369 0)
(-0.370936 -0.0146819 0)
(-0.360522 -0.0146324 0)
(-0.35015 -0.0145927 0)
(-0.339826 -0.0145672 0)
(-0.329552 -0.0145598 0)
(-0.319325 -0.0145725 0)
(-0.309134 -0.0146052 0)
(-0.298961 -0.014656 0)
(-0.288783 -0.0147215 0)
(-0.278571 -0.0147973 0)
(-0.268299 -0.0148787 0)
(-0.257944 -0.0149611 0)
(-0.247485 -0.0150411 0)
(-0.236913 -0.0151158 0)
(-0.226222 -0.0151825 0)
(-0.215413 -0.0152388 0)
(-0.204493 -0.0152821 0)
(-0.19347 -0.0153098 0)
(-0.182359 -0.0153191 0)
(-0.171173 -0.0153075 0)
(-0.159932 -0.0152722 0)
(-0.148654 -0.0152107 0)
(-0.137365 -0.0151201 0)
(-0.126091 -0.0149977 0)
(-0.114861 -0.0148403 0)
(-0.103708 -0.0146435 0)
(-0.092667 -0.0144018 0)
(-0.0817766 -0.0141104 0)
(-0.0710823 -0.0137683 0)
(-0.0606341 -0.0133795 0)
(-0.050483 -0.0129521 0)
(-0.0406757 -0.0124924 0)
(-0.0312537 -0.0120021 0)
(-0.0222578 -0.0114787 0)
(-0.0137299 -0.0109227 0)
(-0.00570921 -0.010332 0)
(0.00177811 -0.00970533 0)
(0.00866759 -0.00904478 0)
(0.0149122 -0.00835556 0)
(0.0205014 -0.0076456 0)
(0.0253823 -0.00690196 0)
(0.0295264 -0.0061426 0)
(0.0329154 -0.00536794 0)
(0.0355291 -0.00458749 0)
(0.0373596 -0.00379942 0)
(0.038396 -0.00301606 0)
(0.0386387 -0.0022438 0)
(0.0381023 -0.00148358 0)
(0.03681 -0.000749845 0)
(0.0347793 -4.11472e-05 0)
(0.0320179 0.000624129 0)
(0.0285609 0.00120518 0)
(0.0244794 0.00163448 0)
(0.0198709 0.00184783 0)
(0.0150664 0.00175773 0)
(0.0104185 0.00130934 0)
(0.00714657 0.000315279 0)
(0.00577576 -0.000985971 0)
(0.00655824 -0.000502313 0)
(0.00553003 0.00532823 0)
(-0.00555981 0.013861 0)
(-0.0105641 0.0095043 0)
(-0.0164003 0.0102091 0)
(-0.0240142 0.0115034 0)
(-0.0332537 0.0122456 0)
(-0.0428302 0.0129342 0)
(-0.052619 0.0135714 0)
(-0.0624341 0.0140857 0)
(-0.0721823 0.0144743 0)
(-0.0817853 0.014773 0)
(-0.0911848 0.0149901 0)
(-0.100344 0.0151333 0)
(-0.109238 0.0152079 0)
(-0.117858 0.0152278 0)
(-0.126218 0.0152106 0)
(-0.134346 0.0151713 0)
(-0.142282 0.0151284 0)
(-0.150071 0.0150941 0)
(-0.157766 0.0150785 0)
(-0.165413 0.0150825 0)
(-0.173054 0.0151086 0)
(-0.180724 0.0151592 0)
(-0.188446 0.0152456 0)
(-0.196238 0.0153677 0)
(-0.20411 0.0155161 0)
(-0.212068 0.0156786 0)
(-0.220106 0.0158423 0)
(-0.228211 0.0160007 0)
(-0.236372 0.0161502 0)
(-0.244582 0.0162933 0)
(-0.252849 0.0164411 0)
(-0.261189 0.0166064 0)
(-0.269627 0.0168057 0)
(-0.278197 0.0170538 0)
(-0.286939 0.0173623 0)
(-0.295891 0.0177394 0)
(-0.305082 0.018184 0)
(-0.314516 0.0186832 0)
(-0.324168 0.0192137 0)
(-0.333974 0.0197407 0)
(-0.343832 0.0202184 0)
(-0.353605 0.0205946 0)
(-0.363146 0.0208201 0)
(-0.372329 0.0208686 0)
(-0.3811 0.0207611 0)
(-0.3895 0.0205754 0)
(-0.397655 0.0204264 0)
(-0.405733 0.0204134 0)
(-0.413892 0.0205741 0)
(-0.422248 0.0208794 0)
(-0.430884 0.0212657 0)
(-0.439855 0.021671 0)
(-0.449198 0.0220534 0)
(-0.458931 0.0223893 0)
(-0.469062 0.0226682 0)
(-0.479586 0.0228901 0)
(-0.490494 0.0230623 0)
(-0.501772 0.0231963 0)
(-0.513401 0.0233048 0)
(-0.525362 0.0233995 0)
(-0.537635 0.0234903 0)
(-0.550201 0.0235838 0)
(-0.563043 0.0236842 0)
(-0.576143 0.0237924 0)
(-0.589482 0.0239071 0)
(-0.603039 0.0240255 0)
(-0.616791 0.0241437 0)
(-0.630707 0.0242573 0)
(-0.644756 0.0243616 0)
(-0.658902 0.0244523 0)
(-0.673111 0.0245256 0)
(-0.68735 0.0245789 0)
(-0.701595 0.024612 0)
(-0.715826 0.0246281 0)
(-0.730034 0.0246344 0)
(-0.744217 0.024641 0)
(-0.758376 0.0246585 0)
(-0.772508 0.0246926 0)
(-0.7866 0.0247391 0)
(-0.800618 0.0247811 0)
(-0.814507 0.024792 0)
(-0.828207 0.0247451 0)
(-0.841667 0.0246253 0)
(-0.85487 0.0244375 0)
(-0.867836 0.0242041 0)
(-0.880614 0.023952 0)
(-0.893261 0.0236968 0)
(-0.905813 0.0234331 0)
(-0.918269 0.0231383 0)
(-0.930603 0.0227885 0)
(-0.942782 0.0223747 0)
(-0.954787 0.0219117 0)
(-0.966632 0.0214342 0)
(-0.978357 0.0209832 0)
(-0.990022 0.0205921 0)
(-1.00168 0.0202769 0)
(-1.01337 0.0200344 0)
(-1.02508 0.0198484 0)
(-1.0368 0.0196987 0)
(-1.04847 0.0195666 0)
(-1.06002 0.0194386 0)
(-1.07138 0.0193066 0)
(-1.08249 0.0191618 0)
(-1.09327 0.0189902 0)
(-1.10368 0.0187758 0)
(-1.11368 0.0185078 0)
(-1.12324 0.0181874 0)
(-1.13239 0.0178312 0)
(-1.14114 0.0174673 0)
(-1.14954 0.0171248 0)
(-1.15763 0.016818 0)
(-1.16543 0.0165301 0)
(-1.17293 0.0162004 0)
(-1.18003 0.0157218 0)
(-1.18662 0.014956 0)
(-1.19253 0.0137698 0)
(-1.1976 0.0120911 0)
(-1.2017 0.00996956 0)
(-1.20479 0.00761867 0)
(-1.20693 0.00541146 0)
(-1.20839 0.0038118 0)
(-1.20965 0.00324453 0)
(-1.21141 0.00394888 0)
(-1.2145 0.00587977 0)
(-1.21972 0.00870316 0)
(-1.2275 0.0118882 0)
(-1.23777 0.0148485 0)
(-1.24986 0.0170652 0)
(-1.26261 0.0181616 0)
(-1.27474 0.0179529 0)
(-1.28515 0.016491 0)
(-1.29324 0.0140876 0)
(-1.29896 0.0112658 0)
(-1.30267 0.00858535 0)
(-1.30486 0.00639518 0)
(-1.30597 0.00476495 0)
(-1.3063 0.00358075 0)
(-1.306 0.00267997 0)
(-1.30512 0.00190125 0)
(-1.30366 0.00112415 0)
(-1.30162 0.00028674 0)
(-1.29901 -0.000622784 0)
(-1.29589 -0.00157846 0)
(-1.2923 -0.00254369 0)
(-1.28829 -0.00351523 0)
(-1.28388 -0.00448772 0)
(-1.27908 -0.00543694 0)
(-1.2739 -0.00634184 0)
(-1.26836 -0.00719122 0)
(-1.26247 -0.00798146 0)
(-1.25625 -0.00871228 0)
(-1.24972 -0.0093842 0)
(-1.2429 -0.00999853 0)
(-1.23581 -0.0105591 0)
(-1.22845 -0.0110741 0)
(-1.22084 -0.0115571 0)
(-1.21294 -0.0120259 0)
(-1.20476 -0.0124998 0)