/*--------------------------------*- C++ -*----------------------------------*\
| =========                 |                                                 |
| \\      /  F ield         | OpenFOAM: The Open Source CFD Toolbox           |
|  \\    /   O peration     | Version:  v2006                                 |
|   \\  /    A nd           | Website:  www.openfoam.com                      |
|    \\/     M anipulation  |                                                 |
\*---------------------------------------------------------------------------*/
FoamFile
{
    version     2.0;
    format      ascii;
    class       volVectorField;
    location    "0";
    object      U;
}
// * * * * * * * * * * * * * * * * * * * * * * * * * * * * * * * * * * * * * //

dimensions      [0 1 -1 0 0 0 0];


internalField   nonuniform List<vector> 
20000
(
(1 7.84723e-12 0)
(1 2.22772e-11 0)
(1 3.9338e-11 0)
(1 5.96051e-11 0)
(1 8.2064e-11 0)
(1 1.06132e-10 0)
(1 1.31541e-10 0)
(1 1.58076e-10 0)
(1 1.8528e-10 0)
(1 2.12247e-10 0)
(1 2.37529e-10 0)
(1 2.59167e-10 0)
(1 2.74926e-10 0)
(1 2.82681e-10 0)
(1 2.80676e-10 0)
(1 2.67431e-10 0)
(1 2.42301e-10 0)
(1 2.06125e-10 0)
(1 1.61205e-10 0)
(1 1.10953e-10 0)
(1 5.93068e-11 0)
(1 1.01812e-11 0)
(1 -3.32451e-11 0)
(1 -6.86905e-11 0)
(1 -9.43088e-11 0)
(1 -1.09243e-10 0)
(1 -1.11525e-10 0)
(1 -1.02836e-10 0)
(1 -1.05532e-10 0)
(1 -1.32575e-10 0)
(1 -1.89804e-10 0)
(1 -2.80903e-10 0)
(1 -4.10267e-10 0)
(1 -5.84018e-10 0)
(1 -8.10345e-10 0)
(1 -1.09976e-09 0)
(1 -1.46539e-09 0)
(1 -1.92335e-09 0)
(1 -2.49309e-09 0)
(1 -3.19788e-09 0)
(1 -4.06572e-09 0)
(1 -5.13068e-09 0)
(1 -6.43471e-09 0)
(1 -8.02944e-09 0)
(1 -9.97745e-09 0)
(1 -1.23534e-08 0)
(1 -1.52441e-08 0)
(1 -1.87479e-08 0)
(1 -2.29718e-08 0)
(1 -2.80274e-08 0)
(1 -3.4029e-08 0)
(1 -4.10935e-08 0)
(1 -4.93404e-08 0)
(1 -5.88863e-08 0)
(1 -6.98359e-08 0)
(1 -8.22629e-08 0)
(1 -9.61556e-08 0)
(1 -1.11341e-07 0)
(1 -1.27563e-07 0)
(1.00001 -1.44715e-07 0)
(1.00001 -1.62359e-07 0)
(1.00001 -1.7793e-07 0)
(1.00001 -1.87008e-07 0)
(1.00001 -1.91511e-07 0)
(1.00001 -2.06843e-07 0)
(1.00001 -2.35533e-07 0)
(1.00001 -2.0678e-07 0)
(1.00002 -1.12906e-08 0)
(1.00002 2.77974e-07 0)
(1.00001 5.418e-07 0)
(1.00001 7.40823e-07 0)
(1.00001 8.89754e-07 0)
(1.00001 1.01747e-06 0)
(1.00001 1.14563e-06 0)
(1.00001 1.28157e-06 0)
(1 1.41829e-06 0)
(1 1.53767e-06 0)
(0.999999 1.61672e-06 0)
(0.999997 1.63529e-06 0)
(0.999994 1.58195e-06 0)
(0.999991 1.45639e-06 0)
(0.999988 1.2693e-06 0)
(0.999985 1.03774e-06 0)
(0.999982 7.77788e-07 0)
(0.999979 5.01628e-07 0)
(0.999976 2.1864e-07 0)
(0.999974 -6.26235e-08 0)
(0.999971 -3.32526e-07 0)
(0.999969 -5.79789e-07 0)
(0.999967 -7.92028e-07 0)
(0.999965 -9.57054e-07 0)
(0.999963 -1.06448e-06 0)
(0.999962 -1.10735e-06 0)
(0.999961 -1.08424e-06 0)
(0.999961 -9.99012e-07 0)
(0.99996 -8.64459e-07 0)
(0.99996 -7.18575e-07 0)
(0.99996 -6.13188e-07 0)
(0.999961 -5.64184e-07 0)
(0.999963 -5.63912e-07 0)
(0.999965 -6.01213e-07 0)
(0.999969 -6.65368e-07 0)
(0.999973 -7.41888e-07 0)
(0.999978 -8.00915e-07 0)
(0.999984 -7.83261e-07 0)
(0.999991 -5.93374e-07 0)
(0.999997 -1.19985e-07 0)
(1 7.03867e-07 0)
(1 1.77116e-06 0)
(1.00001 2.69488e-06 0)
(1 3.27055e-06 0)
(1 3.54424e-06 0)
(0.999999 3.60785e-06 0)
(0.999996 3.51983e-06 0)
(0.999992 3.30672e-06 0)
(0.999988 2.98192e-06 0)
(0.999984 2.55548e-06 0)
(0.99998 2.03907e-06 0)
(0.999975 1.45226e-06 0)
(0.99997 8.19831e-07 0)
(0.999965 1.70469e-07 0)
(0.999961 -4.63695e-07 0)
(0.999956 -1.04963e-06 0)
(0.999952 -1.55671e-06 0)
(0.999948 -1.95965e-06 0)
(0.999945 -2.24085e-06 0)
(0.999942 -2.39168e-06 0)
(0.99994 -2.41345e-06 0)
(0.999938 -2.31644e-06 0)
(0.999937 -2.11939e-06 0)
(0.999936 -1.84737e-06 0)
(0.999935 -1.52857e-06 0)
(0.999935 -1.20759e-06 0)
(0.999935 -9.56599e-07 0)
(0.999936 -7.99748e-07 0)
(0.999937 -7.22577e-07 0)
(0.99994 -7.00936e-07 0)
(0.999943 -7.07679e-07 0)
(0.999946 -7.15632e-07 0)
(0.99995 -7.03263e-07 0)
(0.999955 -6.60227e-07 0)
(0.999958 -5.89827e-07 0)
(0.999962 -5.06202e-07 0)
(0.999965 -4.26834e-07 0)
(0.999967 -3.64486e-07 0)
(0.99997 -3.23496e-07 0)
(0.999972 -3.014e-07 0)
(0.999974 -2.92578e-07 0)
(0.999976 -2.90969e-07 0)
(0.999977 -2.91462e-07 0)
(0.999979 -2.90501e-07 0)
(0.999981 -2.86114e-07 0)
(0.999983 -2.77591e-07 0)
(0.999985 -2.65099e-07 0)
(0.999987 -2.49314e-07 0)
(0.999988 -2.31149e-07 0)
(0.99999 -2.11551e-07 0)
(0.999991 -1.91386e-07 0)
(0.999992 -1.71374e-07 0)
(0.999993 -1.5207e-07 0)
(0.999994 -1.3387e-07 0)
(0.999995 -1.17027e-07 0)
(0.999996 -1.01677e-07 0)
(0.999997 -8.78651e-08 0)
(0.999997 -7.55681e-08 0)
(0.999998 -6.47174e-08 0)
(0.999998 -5.52148e-08 0)
(0.999998 -4.69455e-08 0)
(0.999999 -3.97882e-08 0)
(0.999999 -3.36222e-08 0)
(0.999999 -2.83317e-08 0)
(0.999999 -2.38084e-08 0)
(0.999999 -1.99527e-08 0)
(1 -1.66733e-08 0)
(1 -1.3887e-08 0)
(1 -1.15177e-08 0)
(1 -9.49596e-09 0)
(1 -7.75929e-09 0)
(1 -6.25346e-09 0)
(1 -4.93363e-09 0)
(1 -3.76531e-09 0)
(1 -2.72563e-09 0)
(1 -1.80392e-09 0)
(1 -9.99963e-10 0)
(1 -3.24465e-10 0)
(1 2.03307e-10 0)
(1 5.63575e-10 0)
(1 7.442e-10 0)
(1 7.59833e-10 0)
(1 6.46399e-10 0)
(1 4.65332e-10 0)
(1 2.68563e-10 0)
(1 8.67995e-11 0)
(1 -6.85992e-11 0)
(1 -1.9374e-10 0)
(1 -2.91742e-10 0)
(1 -3.74807e-10 0)
(1 -4.18925e-10 0)
(1 -5.20505e-10 0)
(1 -4.85401e-10 0)
(1 1.46531e-11 0)
(1 3.75242e-11 0)
(1 6.18338e-11 0)
(1 8.92965e-11 0)
(1 1.18325e-10 0)
(1 1.48306e-10 0)
(1 1.78943e-10 0)
(1 2.09968e-10 0)
(1 2.40971e-10 0)
(1 2.71294e-10 0)
(1 3.0001e-10 0)
(1 3.26023e-10 0)
(1 3.48276e-10 0)
(1 3.65954e-10 0)
(1 3.78538e-10 0)
(1 3.85812e-10 0)
(1 3.88385e-10 0)
(1 3.87473e-10 0)
(1 3.84349e-10 0)
(1 3.79986e-10 0)
(1 3.74684e-10 0)
(1 3.67798e-10 0)
(1 3.57465e-10 0)
(1 3.40909e-10 0)
(1 3.14946e-10 0)
(1 2.75763e-10 0)
(1 2.20868e-10 0)
(1 1.45227e-10 0)
(1 2.68617e-11 0)
(1 -1.47936e-10 0)
(1 -3.90756e-10 0)
(1 -7.15643e-10 0)
(1 -1.14042e-09 0)
(1 -1.68738e-09 0)
(1 -2.38407e-09 0)
(1 -3.26423e-09 0)
(1 -4.36886e-09 0)
(1 -5.74742e-09 0)
(1 -7.4591e-09 0)
(1 -9.57429e-09 0)
(1 -1.21773e-08 0)
(1 -1.53706e-08 0)
(1 -1.92802e-08 0)
(1 -2.4061e-08 0)
(1 -2.99007e-08 0)
(1 -3.70229e-08 0)
(1 -4.56883e-08 0)
(1 -5.61917e-08 0)
(1 -6.88542e-08 0)
(1 -8.40113e-08 7.11308e-43)
(1 -1.02007e-07 5.77445e-43)
(1 -1.2319e-07 0)
(1 -1.47919e-07 0)
(1 -1.76541e-07 0)
(1 -2.09359e-07 0)
(1 -2.46574e-07 0)
(1 -2.88199e-07 0)
(1 -3.33938e-07 0)
(1 -3.83075e-07 0)
(1.00001 -4.34319e-07 0)
(1.00001 -4.8538e-07 0)
(1.00001 -5.32337e-07 0)
(1.00001 -5.70237e-07 0)
(1.00001 -5.96528e-07 0)
(1.00001 -6.12373e-07 0)
(1.00001 -6.09208e-07 0)
(1.00001 -5.43456e-07 0)
(1.00002 -3.66923e-07 0)
(1.00002 -1.62907e-07 0)
(1.00002 -1.11807e-08 0)
(1.00002 7.43091e-08 0)
(1.00003 9.91632e-08 0)
(1.00003 6.81929e-08 0)
(1.00003 -1.22258e-08 0)
(1.00004 -1.24811e-07 0)
(1.00004 -2.36835e-07 0)
(1.00005 -3.05555e-07 0)
(1.00006 -2.94946e-07 0)
(1.00006 -1.90252e-07 0)
(1.00007 -2.46298e-09 0)
(1.00007 2.44307e-07 0)
(1.00007 5.19647e-07 0)
(1.00007 7.95964e-07 0)
(1.00007 1.06324e-06 0)
(1.00007 1.31657e-06 0)
(1.00007 1.55022e-06 0)
(1.00006 1.75585e-06 0)
(1.00005 1.92316e-06 0)
(1.00004 2.04043e-06 0)
(1.00003 2.09628e-06 0)
(1.00002 2.08302e-06 0)
(1.00001 1.99922e-06 0)
(1 1.84877e-06 0)
(0.999993 1.63788e-06 0)
(0.999985 1.37548e-06 0)
(0.999978 1.07037e-06 0)
(0.999972 7.17625e-07 0)
(0.999969 3.05414e-07 0)
(0.999967 -1.56959e-07 0)
(0.999967 -6.47645e-07 0)
(0.999968 -1.14976e-06 0)
(0.999971 -1.64938e-06 0)
(0.999975 -2.13196e-06 0)
(0.99998 -2.57743e-06 0)
(0.999987 -2.95513e-06 0)
(0.999995 -3.22002e-06 0)
(1 -3.31854e-06 0)
(1.00002 -3.2078e-06 0)
(1.00003 -2.9234e-06 0)
(1.00005 -2.66855e-06 0)
(1.00007 -2.4943e-06 0)
(1.00009 -2.31491e-06 0)
(1.00011 -2.06235e-06 0)
(1.00013 -1.70854e-06 0)
(1.00014 -1.24887e-06 0)
(1.00015 -6.95855e-07 0)
(1.00016 -5.76511e-08 0)
(1.00017 6.43688e-07 0)
(1.00017 1.37025e-06 0)
(1.00017 2.08885e-06 0)
(1.00016 2.76341e-06 0)
(1.00015 3.35639e-06 0)
(1.00013 3.83322e-06 0)
(1.00011 4.16603e-06 0)
(1.00009 4.33679e-06 0)
(1.00007 4.33952e-06 0)
(1.00005 4.18072e-06 0)
(1.00003 3.87791e-06 0)
(1.00001 3.45827e-06 0)
(0.999991 2.9554e-06 0)
(0.999976 2.40637e-06 0)
(0.999964 1.84709e-06 0)
(0.999955 1.29328e-06 0)
(0.999948 7.27613e-07 0)
(0.999945 1.59483e-07 0)
(0.999943 -3.87997e-07 0)
(0.999943 -8.88178e-07 0)
(0.999945 -1.30811e-06 0)
(0.999948 -1.60891e-06 0)
(0.999951 -1.75981e-06 0)
(0.999955 -1.75568e-06 0)
(0.999959 -1.6259e-06 0)
(0.999962 -1.42725e-06 0)
(0.999965 -1.22245e-06 0)
(0.999968 -1.05675e-06 0)
(0.99997 -9.47518e-07 0)
(0.999972 -8.9007e-07 0)
(0.999974 -8.69254e-07 0)
(0.999976 -8.67983e-07 0)
(0.999977 -8.71653e-07 0)
(0.999979 -8.70077e-07 0)
(0.999981 -8.57655e-07 0)
(0.999983 -8.3248e-07 0)
(0.999985 -7.95187e-07 0)
(0.999987 -7.47902e-07 0)
(0.999988 -6.93414e-07 0)
(0.99999 -6.34601e-07 0)
(0.999991 -5.74076e-07 0)
(0.999992 -5.14013e-07 0)
(0.999993 -4.56082e-07 0)
(0.999994 -4.0147e-07 0)
(0.999995 -3.50936e-07 0)
(0.999996 -3.04887e-07 0)
(0.999997 -2.63455e-07 0)
(0.999997 -2.26573e-07 0)
(0.999998 -1.94031e-07 0)
(0.999998 -1.65535e-07 0)
(0.999998 -1.4074e-07 0)
(0.999999 -1.1928e-07 0)
(0.999999 -1.00792e-07 0)
(0.999999 -8.49271e-08 0)
(0.999999 -7.13595e-08 0)
(0.999999 -5.97907e-08 0)
(1 -4.99521e-08 0)
(1 -4.16038e-08 0)
(1 -3.45341e-08 0)
(1 -2.85572e-08 0)
(1 -2.35112e-08 0)
(1 -1.92558e-08 0)
(1 -1.56707e-08 0)
(1 -1.26532e-08 0)
(1 -1.01167e-08 0)
(1 -7.98938e-09 0)
(1 -6.212e-09 0)
(1 -4.73757e-09 0)
(1 -3.53013e-09 0)
(1 -2.56165e-09 0)
(1 -1.80925e-09 0)
(1 -1.24358e-09 0)
(1 -8.3425e-10 0)
(1 -5.38019e-10 0)
(1 -3.1793e-10 0)
(1 -1.55039e-10 0)
(1 -3.6059e-11 0)
(1 5.04578e-11 0)
(1 1.09398e-10 0)
(1 1.39902e-10 0)
(1 1.62869e-10 0)
(1 1.1935e-10 0)
(1 1.70047e-10 0)
(1 1.749e-11 0)
(1 4.0646e-11 0)
(1 6.39831e-11 0)
(1 9.04684e-11 0)
(1 1.1846e-10 0)
(1 1.47622e-10 0)
(1 1.77693e-10 0)
(1 2.08459e-10 0)
(1 2.3992e-10 0)
(1 2.72314e-10 0)
(1 3.06081e-10 0)
(1 3.41848e-10 0)
(1 3.80346e-10 0)
(1 4.22251e-10 0)
(1 4.68025e-10 0)
(1 5.17945e-10 0)
(1 5.71852e-10 0)
(1 6.28367e-10 0)
(1 6.84737e-10 0)
(1 7.37203e-10 0)
(1 7.81297e-10 0)
(1 8.12098e-10 0)
(1 8.2454e-10 0)
(1 8.13421e-10 0)
(1 7.7287e-10 0)
(1 6.9602e-10 0)
(1 5.73784e-10 0)
(1 3.95116e-10 0)
(1 1.50549e-10 0)
(1 -1.74461e-10 0)
(1 -6.01023e-10 0)
(1 -1.15608e-09 0)
(1 -1.87209e-09 0)
(1 -2.78798e-09 0)
(1 -3.95079e-09 0)
(1 -5.41737e-09 0)
(1 -7.25646e-09 0)
(1 -9.55067e-09 0)
(1 -1.23987e-08 0)
(1 -1.59179e-08 0)
(1 -2.02486e-08 0)
(1 -2.55614e-08 0)
(1 -3.20661e-08 0)
(1 -4.00205e-08 0)
(1 -4.9737e-08 0)
(1 -6.15879e-08 0)
(1 -7.60068e-08 0)
(1 -9.34852e-08 0)
(1 -1.14558e-07 0)
(1 -1.39784e-07 0)
(1 -1.69736e-07 0)
(1 -2.04998e-07 0)
(1 -2.46167e-07 0)
(1 -2.93826e-07 0)
(1 -3.48487e-07 0)
(1 -4.10488e-07 0)
(1 -4.79874e-07 0)
(1 -5.5623e-07 0)
(1 -6.38362e-07 0)
(1.00001 -7.23834e-07 0)
(1.00001 -8.08733e-07 0)
(1.00001 -8.87977e-07 0)
(1.00001 -9.5521e-07 0)
(1.00001 -1.00064e-06 0)
(1.00001 -1.01016e-06 0)
(1.00001 -9.76696e-07 0)
(1.00001 -9.22048e-07 0)
(1.00002 -8.86591e-07 0)
(1.00002 -8.62194e-07 0)
(1.00002 -8.26391e-07 0)
(1.00002 -7.91765e-07 0)
(1.00002 -8.0026e-07 0)
(1.00002 -8.94801e-07 0)
(1.00002 -1.09418e-06 0)
(1.00002 -1.37432e-06 0)
(1.00002 -1.6616e-06 0)
(1.00003 -1.84994e-06 0)
(1.00003 -1.8411e-06 0)
(1.00003 -1.5881e-06 0)
(1.00003 -1.11013e-06 0)
(1.00003 -4.71017e-07 0)
(1.00003 2.52672e-07 0)
(1.00003 1.00188e-06 0)
(1.00003 1.74302e-06 0)
(1.00003 2.45866e-06 0)
(1.00002 3.13389e-06 0)
(1.00002 3.74842e-06 0)
(1.00001 4.27545e-06 0)
(1.00001 4.68254e-06 0)
(1 4.93582e-06 0)
(0.999994 5.00933e-06 0)
(0.999988 4.89233e-06 0)
(0.999982 4.58845e-06 0)
(0.999977 4.1109e-06 0)
(0.999973 3.47924e-06 0)
(0.999969 2.71947e-06 0)
(0.999966 1.86739e-06 0)
(0.999964 9.6324e-07 0)
(0.999964 3.69004e-08 0)
(0.999964 -8.92736e-07 0)
(0.999966 -1.81036e-06 0)
(0.999969 -2.70131e-06 0)
(0.999974 -3.55206e-06 0)
(0.999979 -4.35266e-06 0)
(0.999985 -5.09978e-06 0)
(0.999992 -5.79857e-06 0)
(1 -6.4574e-06 0)
(1.00001 -7.07063e-06 0)
(1.00002 -7.58231e-06 0)
(1.00003 -7.86377e-06 0)
(1.00004 -7.83442e-06 0)
(1.00005 -7.49391e-06 0)
(1.00005 -6.8649e-06 0)
(1.00006 -5.96244e-06 0)
(1.00007 -4.79814e-06 0)
(1.00007 -3.38863e-06 0)
(1.00007 -1.76667e-06 0)
(1.00008 1.9008e-08 0)
(1.00007 1.901e-06 0)
(1.00007 3.79716e-06 0)
(1.00006 5.61203e-06 0)
(1.00006 7.2458e-06 0)
(1.00005 8.60451e-06 0)
(1.00003 9.60992e-06 0)
(1.00002 1.02083e-05 0)
(1.00001 1.03761e-05 0)
(0.999996 1.01219e-05 0)
(0.999984 9.48439e-06 0)
(0.999973 8.52747e-06 0)
(0.999963 7.33481e-06 0)
(0.999955 5.99971e-06 0)
(0.999949 4.6093e-06 0)
(0.999944 3.23488e-06 0)
(0.999941 1.9335e-06 0)
(0.99994 7.3574e-07 0)
(0.99994 -3.44628e-07 0)
(0.999941 -1.29138e-06 0)
(0.999944 -2.0669e-06 0)
(0.999947 -2.61749e-06 0)
(0.999951 -2.89907e-06 0)
(0.999955 -2.90823e-06 0)
(0.999959 -2.69848e-06 0)
(0.999962 -2.36891e-06 0)
(0.999965 -2.02776e-06 0)
(0.999968 -1.7524e-06 0)
(0.99997 -1.57212e-06 0)
(0.999972 -1.47858e-06 0)
(0.999974 -1.44601e-06 0)
(0.999976 -1.4456e-06 0)
(0.999977 -1.45291e-06 0)
(0.999979 -1.45097e-06 0)
(0.999981 -1.43054e-06 0)
(0.999983 -1.38858e-06 0)
(0.999985 -1.32626e-06 0)
(0.999987 -1.2472e-06 0)
(0.999988 -1.15612e-06 0)
(0.99999 -1.05784e-06 0)
(0.999991 -9.56757e-07 0)
(0.999992 -8.56486e-07 0)
(0.999994 -7.59815e-07 0)
(0.999994 -6.68718e-07 0)
(0.999995 -5.84452e-07 0)
(0.999996 -5.07689e-07 0)
(0.999997 -4.38642e-07 0)
(0.999997 -3.7719e-07 0)
(0.999998 -3.22983e-07 0)
(0.999998 -2.75523e-07 0)
(0.999998 -2.34233e-07 0)
(0.999999 -1.98503e-07 0)
(0.999999 -1.67724e-07 0)
(0.999999 -1.41314e-07 0)
(0.999999 -1.1873e-07 0)
(0.999999 -9.94745e-08 0)
(1 -8.31004e-08 0)
(1 -6.92109e-08 0)
(1 -5.7457e-08 0)
(1 -4.7534e-08 0)
(1 -3.91775e-08 0)
(1 -3.21588e-08 0)
(1 -2.62807e-08 0)
(1 -2.13731e-08 0)
(1 -1.72889e-08 0)
(1 -1.3901e-08 0)
(1 -1.10988e-08 0)
(1 -8.78528e-09 0)
(1 -6.87493e-09 0)
(1 -5.29399e-09 0)
(1 -3.98035e-09 0)
(1 -2.88779e-09 0)
(1 -1.98412e-09 0)
(1 -1.24919e-09 0)
(1 -6.6468e-10 0)
(1 -2.14225e-10 0)
(1 1.22765e-10 0)
(1 3.65075e-10 0)
(1 5.28672e-10 0)
(1 6.31716e-10 0)
(1 6.72598e-10 0)
(1 7.11281e-10 0)
(1 6.5377e-10 0)
(1 2.50414e-11 0)
(1 5.9577e-11 0)
(1 9.6855e-11 0)
(1 1.40548e-10 0)
(1 1.87918e-10 0)
(1 2.38138e-10 0)
(1 2.90585e-10 0)
(1 3.44815e-10 0)
(1 4.00636e-10 0)
(1 4.57974e-10 0)
(1 5.16708e-10 0)
(1 5.76625e-10 0)
(1 6.37431e-10 0)
(1 6.9876e-10 0)
(1 7.60119e-10 0)
(1 8.20686e-10 0)
(1 8.7903e-10 0)
(1 9.33202e-10 0)
(1 9.80955e-10 0)
(1 1.01982e-09 0)
(1 1.04697e-09 0)
(1 1.059e-09 0)
(1 1.05179e-09 0)
(1 1.01999e-09 0)
(1 9.56641e-10 0)
(1 8.52601e-10 0)
(1 6.95351e-10 0)
(1 4.68352e-10 0)
(1 1.51778e-10 0)
(1 -2.80842e-10 0)
(1 -8.60679e-10 0)
(1 -1.62442e-09 0)
(1 -2.61609e-09 0)
(1 -3.88908e-09 0)
(1 -5.50834e-09 0)
(1 -7.55281e-09 0)
(1 -1.01181e-08 0)
(1 -1.33194e-08 0)
(1 -1.72944e-08 0)
(1 -2.22069e-08 0)
(1 -2.82527e-08 0)
(1 -3.56702e-08 0)
(1 -4.47524e-08 0)
(1 -5.58597e-08 0)
(1 -6.94284e-08 0)
(1 -8.59784e-08 0)
(1 -1.06116e-07 0)
(1 -1.30528e-07 0)
(1 -1.59964e-07 0)
(1 -1.95205e-07 0)
(1 -2.37053e-07 0)
(1 -2.86327e-07 0)
(1 -3.43866e-07 0)
(1 -4.10499e-07 0)
(1 -4.86959e-07 0)
(1 -5.73742e-07 0)
(1 -6.70929e-07 0)
(1 -7.77933e-07 0)
(1 -8.93134e-07 0)
(1.00001 -1.01339e-06 0)
(1.00001 -1.13337e-06 0)
(1.00001 -1.24495e-06 0)
(1.00001 -1.33743e-06 0)
(1.00001 -1.39971e-06 0)
(1.00001 -1.42346e-06 0)
(1.00001 -1.40242e-06 0)
(1.00001 -1.32785e-06 0)
(1.00002 -1.19156e-06 0)
(1.00002 -9.96851e-07 0)
(1.00002 -7.84538e-07 0)
(1.00002 -6.13765e-07 0)
(1.00002 -5.39661e-07 0)
(1.00002 -6.03282e-07 0)
(1.00002 -8.16823e-07 0)
(1.00002 -1.14351e-06 0)
(1.00002 -1.48673e-06 0)
(1.00003 -1.70994e-06 0)
(1.00003 -1.68969e-06 0)
(1.00003 -1.37098e-06 0)
(1.00003 -7.83325e-07 0)
(1.00003 -1.41091e-08 0)
(1.00003 8.40981e-07 0)
(1.00003 1.71195e-06 0)
(1.00003 2.56132e-06 0)
(1.00003 3.37328e-06 0)
(1.00002 4.13314e-06 0)
(1.00002 4.81764e-06 0)
(1.00001 5.39522e-06 0)
(1.00001 5.82733e-06 0)
(1 6.07381e-06 0)
(0.999994 6.10532e-06 0)
(0.999988 5.9126e-06 0)
(0.999982 5.50433e-06 0)
(0.999977 4.89886e-06 0)
(0.999972 4.11894e-06 0)
(0.999969 3.19134e-06 0)
(0.999966 2.1463e-06 0)
(0.999964 1.01424e-06 0)
(0.999964 -1.76512e-07 0)
(0.999964 -1.39821e-06 0)
(0.999966 -2.62387e-06 0)
(0.999969 -3.82841e-06 0)
(0.999973 -4.98684e-06 0)
(0.999979 -6.07103e-06 0)
(0.999985 -7.04665e-06 0)
(0.999992 -7.87285e-06 0)
(1 -8.50691e-06 0)
(1.00001 -8.91583e-06 0)
(1.00002 -9.08743e-06 0)
(1.00003 -9.01815e-06 0)
(1.00004 -8.7174e-06 0)
(1.00005 -8.17571e-06 0)
(1.00005 -7.36612e-06 0)
(1.00006 -6.26722e-06 0)
(1.00007 -4.87409e-06 0)
(1.00007 -3.19976e-06 0)
(1.00007 -1.2833e-06 0)
(1.00008 8.16685e-07 0)
(1.00007 3.02236e-06 0)
(1.00007 5.23278e-06 0)
(1.00006 7.33402e-06 0)
(1.00006 9.20868e-06 0)
(1.00005 1.0747e-05 0)
(1.00003 1.18584e-05 0)
(1.00002 1.24822e-05 0)
(1.00001 1.25942e-05 0)
(0.999996 1.22088e-05 0)
(0.999984 1.13755e-05 0)
(0.999973 1.01737e-05 0)
(0.999963 8.70539e-06 0)
(0.999955 7.08188e-06 0)
(0.999949 5.40334e-06 0)
(0.999944 3.7438e-06 0)
(0.999941 2.15023e-06 0)
(0.99994 6.46944e-07 0)
(0.99994 -7.44604e-07 0)
(0.999941 -1.99009e-06 0)
(0.999943 -3.02486e-06 0)
(0.999947 -3.76271e-06 0)
(0.999951 -4.13241e-06 0)
(0.999955 -4.12319e-06 0)
(0.999959 -3.80828e-06 0)
(0.999962 -3.32834e-06 0)
(0.999965 -2.83781e-06 0)
(0.999968 -2.4461e-06 0)
(0.99997 -2.19274e-06 0)
(0.999972 -2.06368e-06 0)
(0.999974 -2.02092e-06 0)
(0.999976 -2.02303e-06 0)
(0.999977 -2.03521e-06 0)
(0.999979 -2.0336e-06 0)
(0.999981 -2.0054e-06 0)
(0.999983 -1.94654e-06 0)
(0.999985 -1.85886e-06 0)
(0.999987 -1.7476e-06 0)
(0.999988 -1.61949e-06 0)
(0.99999 -1.48136e-06 0)
(0.999991 -1.33939e-06 0)
(0.999992 -1.19866e-06 0)
(0.999994 -1.06306e-06 0)
(0.999994 -9.35365e-07 0)
(0.999995 -8.17304e-07 0)
(0.999996 -7.09804e-07 0)
(0.999997 -6.13149e-07 0)
(0.999997 -5.27158e-07 0)
(0.999998 -4.51329e-07 0)
(0.999998 -3.84956e-07 0)
(0.999998 -3.27226e-07 0)
(0.999999 -2.77278e-07 0)
(0.999999 -2.34261e-07 0)
(0.999999 -1.97357e-07 0)
(0.999999 -1.65803e-07 0)
(0.999999 -1.38902e-07 0)
(1 -1.16029e-07 0)
(1 -9.66261e-08 0)
(1 -8.02021e-08 0)
(1 -6.63274e-08 0)
(1 -5.46283e-08 0)
(1 -4.47819e-08 0)
(1 -3.65103e-08 0)
(1 -2.95756e-08 0)
(1 -2.37755e-08 0)
(1 -1.89383e-08 0)
(1 -1.49192e-08 0)
(1 -1.15966e-08 0)
(1 -8.86815e-09 0)
(1 -6.64716e-09 0)
(1 -4.85796e-09 0)
(1 -3.43355e-09 0)
(1 -2.31201e-09 0)
(1 -1.43957e-09 0)
(1 -7.70882e-10 0)
(1 -2.66293e-10 0)
(1 1.0444e-10 0)
(1 3.65054e-10 0)
(1 5.35643e-10 0)
(1 6.3527e-10 0)
(1 6.7121e-10 0)
(1 6.91102e-10 0)
(1 5.90441e-10 0)
(1 3.2336e-11 0)
(1 7.68567e-11 0)
(1 1.24356e-10 0)
(1 1.79166e-10 0)
(1 2.37719e-10 0)
(1 2.99019e-10 0)
(1 3.62333e-10 0)
(1 4.27137e-10 0)
(1 4.93227e-10 0)
(1 5.60582e-10 0)
(1 6.29238e-10 0)
(1 6.9931e-10 0)
(1 7.71024e-10 0)
(1 8.44646e-10 0)
(1 9.20269e-10 0)
(1 9.97604e-10 0)
(1 1.07578e-09 0)
(1 1.15324e-09 0)
(1 1.22746e-09 0)
(1 1.29467e-09 0)
(1 1.34973e-09 0)
(1 1.38617e-09 0)
(1 1.39626e-09 0)
(1 1.37099e-09 0)
(1 1.29984e-09 0)
(1 1.17019e-09 0)
(1 9.66334e-10 0)
(1 6.68637e-10 0)
(1 2.53244e-10 0)
(1 -3.10631e-10 0)
(1 -1.06108e-09 0)
(1 -2.04477e-09 0)
(1 -3.31845e-09 0)
(1 -4.95101e-09 0)
(1 -7.02607e-09 0)
(1 -9.64509e-09 0)
(1 -1.29308e-08 0)
(1 -1.7031e-08 0)
(1 -2.21223e-08 0)
(1 -2.84149e-08 0)
(1 -3.61596e-08 0)
(1 -4.56619e-08 0)
(1 -5.72977e-08 0)
(1 -7.15292e-08 0)
(1 -8.89161e-08 0)
(1 -1.10124e-07 0)
(1 -1.35932e-07 0)
(1 -1.67221e-07 0)
(1 -2.04953e-07 0)
(1 -2.50135e-07 0)
(1 -3.03794e-07 0)
(1 -3.66986e-07 0)
(1 -4.40797e-07 0)
(1 -5.26311e-07 0)
(1 -6.24494e-07 0)
(1 -7.36016e-07 0)
(1 -8.61031e-07 0)
(1 -9.98874e-07 0)
(1 -1.14754e-06 0)
(1.00001 -1.30294e-06 0)
(1.00001 -1.45813e-06 0)
(1.00001 -1.60312e-06 0)
(1.00001 -1.72523e-06 0)
(1.00001 -1.80943e-06 0)
(1.00001 -1.83902e-06 0)
(1.00001 -1.79983e-06 0)
(1.00001 -1.68959e-06 0)
(1.00002 -1.5242e-06 0)
(1.00002 -1.3287e-06 0)
(1.00002 -1.13915e-06 0)
(1.00002 -1.00401e-06 0)
(1.00002 -9.83399e-07 0)
(1.00002 -1.13498e-06 0)
(1.00002 -1.48297e-06 0)
(1.00002 -1.98246e-06 0)
(1.00002 -2.5017e-06 0)
(1.00003 -2.84927e-06 0)
(1.00003 -2.85037e-06 0)
(1.00003 -2.42492e-06 0)
(1.00003 -1.61208e-06 0)
(1.00003 -5.30806e-07 0)
(1.00003 6.83355e-07 0)
(1.00003 1.92784e-06 0)
(1.00003 3.14983e-06 0)
(1.00003 4.32638e-06 0)
(1.00002 5.43541e-06 0)
(1.00002 6.44314e-06 0)
(1.00001 7.30452e-06 0)
(1.00001 7.9644e-06 0)
(1 8.36467e-06 0)
(0.999994 8.46187e-06 0)
(0.999988 8.24068e-06 0)
(0.999982 7.71097e-06 0)
(0.999977 6.89678e-06 0)
(0.999972 5.83067e-06 0)
(0.999968 4.55434e-06 0)
(0.999965 3.11726e-06 0)
(0.999964 1.57042e-06 0)
(0.999963 -4.07596e-08 0)
(0.999964 -1.67691e-06 0)
(0.999966 -3.30441e-06 0)
(0.999969 -4.89349e-06 0)
(0.999973 -6.41607e-06 0)
(0.999978 -7.84494e-06 0)
(0.999985 -9.15399e-06 0)
(0.999992 -1.03183e-05 0)
(1 -1.13113e-05 0)
(1.00001 -1.20998e-05 0)
(1.00002 -1.26355e-05 0)
(1.00003 -1.28498e-05 0)
(1.00004 -1.26829e-05 0)
(1.00005 -1.20933e-05 0)
(1.00005 -1.10577e-05 0)
(1.00006 -9.56931e-06 0)
(1.00007 -7.63635e-06 0)
(1.00007 -5.28997e-06 0)
(1.00008 -2.5814e-06 0)
(1.00008 4.05718e-07 0)
(1.00007 3.5543e-06 0)
(1.00007 6.72178e-06 0)
(1.00006 9.74741e-06 0)
(1.00006 1.24635e-05 0)
(1.00005 1.47121e-05 0)
(1.00003 1.63619e-05 0)
(1.00002 1.73235e-05 0)
(1.00001 1.75594e-05 0)
(0.999996 1.70867e-05 0)
(0.999983 1.59726e-05 0)
(0.999972 1.43274e-05 0)
(0.999962 1.22945e-05 0)
(0.999954 1.0033e-05 0)
(0.999948 7.6899e-06 0)
(0.999943 5.37828e-06 0)
(0.99994 3.17164e-06 0)
(0.999939 1.10978e-06 0)
(0.999939 -7.78821e-07 0)
(0.999941 -2.45648e-06 0)
(0.999943 -3.84505e-06 0)
(0.999947 -4.83423e-06 0)
(0.999951 -5.33111e-06 0)
(0.999955 -5.32227e-06 0)
(0.999959 -4.90664e-06 0)
(0.999962 -4.27374e-06 0)
(0.999965 -3.63088e-06 0)
(0.999968 -3.12285e-06 0)
(0.99997 -2.79938e-06 0)
(0.999972 -2.63911e-06 0)
(0.999974 -2.59047e-06 0)
(0.999976 -2.5986e-06 0)
(0.999977 -2.61807e-06 0)
(0.999979 -2.61817e-06 0)
(0.999981 -2.58273e-06 0)
(0.999983 -2.50692e-06 0)
(0.999985 -2.39349e-06 0)
(0.999987 -2.2495e-06 0)
(0.999988 -2.08377e-06 0)
(0.99999 -1.90526e-06 0)
(0.999991 -1.72194e-06 0)
(0.999993 -1.54039e-06 0)
(0.999994 -1.36563e-06 0)
(0.999995 -1.20117e-06 0)
(0.999995 -1.04922e-06 0)
(0.999996 -9.10956e-07 0)
(0.999997 -7.86706e-07 0)
(0.999997 -6.76218e-07 0)
(0.999998 -5.78826e-07 0)
(0.999998 -4.93613e-07 0)
(0.999998 -4.19517e-07 0)
(0.999999 -3.5543e-07 0)
(0.999999 -3.00248e-07 0)
(0.999999 -2.52915e-07 0)
(0.999999 -2.12452e-07 0)
(0.999999 -1.77961e-07 0)
(1 -1.48638e-07 0)
(1 -1.23769e-07 0)
(1 -1.02724e-07 0)
(1 -8.49544e-08 0)
(1 -6.9984e-08 0)
(1 -5.74007e-08 0)
(1 -4.68494e-08 0)
(1 -3.80249e-08 0)
(1 -3.06648e-08 0)
(1 -2.45441e-08 0)
(1 -1.94699e-08 0)
(1 -1.52766e-08 0)
(1 -1.18223e-08 0)
(1 -8.98621e-09 0)
(1 -6.66696e-09 0)
(1 -4.78103e-09 0)
(1 -3.25993e-09 0)
(1 -2.04832e-09 0)
(1 -1.09916e-09 0)
(1 -3.71288e-10 0)
(1 1.70848e-10 0)
(1 5.58957e-10 0)
(1 8.20168e-10 0)
(1 9.8046e-10 0)
(1 1.05055e-09 0)
(1 1.08532e-09 0)
(1 9.72279e-10 0)
(1 3.95459e-11 0)
(1 9.38418e-11 0)
(1 1.51704e-10 0)
(1 2.18641e-10 0)
(1 2.9043e-10 0)
(1 3.65971e-10 0)
(1 4.44436e-10 0)
(1 5.25224e-10 0)
(1 6.08124e-10 0)
(1 6.9315e-10 0)
(1 7.80361e-10 0)
(1 8.69834e-10 0)
(1 9.61652e-10 0)
(1 1.05582e-09 0)
(1 1.15205e-09 0)
(1 1.2496e-09 0)
(1 1.34691e-09 0)
(1 1.44143e-09 0)
(1 1.52944e-09 0)
(1 1.60601e-09 0)
(1 1.66509e-09 0)
(1 1.69963e-09 0)
(1 1.70159e-09 0)
(1 1.66163e-09 0)
(1 1.56846e-09 0)
(1 1.40776e-09 0)
(1 1.16082e-09 0)
(1 8.03368e-10 0)
(1 3.04905e-10 0)
(1 -3.73335e-10 0)
(1 -1.27888e-09 0)
(1 -2.46902e-09 0)
(1 -4.01285e-09 0)
(1 -5.99408e-09 0)
(1 -8.51435e-09 0)
(1 -1.1697e-08 0)
(1 -1.56911e-08 0)
(1 -2.06767e-08 0)
(1 -2.68687e-08 0)
(1 -3.45229e-08 0)
(1 -4.39447e-08 0)
(1 -5.55056e-08 0)
(1 -6.96639e-08 0)
(1 -8.69828e-08 0)
(1 -1.08144e-07 0)
(1 -1.33957e-07 0)
(1 -1.65372e-07 0)
(1 -2.03463e-07 0)
(1 -2.49408e-07 0)
(1 -3.04434e-07 0)
(1 -3.69794e-07 0)
(1 -4.46782e-07 0)
(1 -5.36738e-07 0)
(1 -6.41014e-07 0)
(1 -7.60831e-07 0)
(1 -8.97059e-07 0)
(1 -1.04995e-06 0)
(1 -1.21877e-06 0)
(1 -1.40119e-06 0)
(1.00001 -1.59239e-06 0)
(1.00001 -1.78412e-06 0)
(1.00001 -1.96386e-06 0)
(1.00001 -2.11499e-06 0)
(1.00001 -2.21837e-06 0)
(1.00001 -2.25592e-06 0)
(1.00001 -2.21483e-06 0)
(1.00001 -2.09094e-06 0)
(1.00002 -1.89023e-06 0)
(1.00002 -1.62949e-06 0)
(1.00002 -1.34963e-06 0)
(1.00002 -1.12034e-06 0)
(1.00002 -1.02842e-06 0)
(1.00002 -1.1533e-06 0)
(1.00002 -1.5299e-06 0)
(1.00002 -2.10614e-06 0)
(1.00002 -2.71944e-06 0)
(1.00003 -3.13037e-06 0)
(1.00003 -3.11927e-06 0)
(1.00003 -2.58948e-06 0)
(1.00003 -1.59749e-06 0)
(1.00003 -2.9873e-07 0)
(1.00003 1.13802e-06 0)
(1.00003 2.59279e-06 0)
(1.00003 4.00815e-06 0)
(1.00003 5.3634e-06 0)
(1.00002 6.63709e-06 0)
(1.00002 7.79147e-06 0)
(1.00001 8.77444e-06 0)
(1.00001 9.52048e-06 0)
(1 9.95916e-06 0)
(0.999994 1.00385e-05 0)
(0.999988 9.74233e-06 0)
(0.999982 9.08564e-06 0)
(0.999976 8.09875e-06 0)
(0.999972 6.82024e-06 0)
(0.999968 5.2978e-06 0)
(0.999965 3.5867e-06 0)
(0.999963 1.74296e-06 0)
(0.999963 -1.82342e-07 0)
(0.999963 -2.1446e-06 0)
(0.999965 -4.10365e-06 0)
(0.999968 -6.02286e-06 0)
(0.999973 -7.86662e-06 0)
(0.999978 -9.59732e-06 0)
(0.999984 -1.1173e-05 0)
(0.999992 -1.25465e-05 0)
(1 -1.36675e-05 0)
(1.00001 -1.44861e-05 0)
(1.00002 -1.49552e-05 0)
(1.00003 -1.50289e-05 0)
(1.00004 -1.46724e-05 0)
(1.00005 -1.38579e-05 0)
(1.00005 -1.25603e-05 0)
(1.00006 -1.07636e-05 0)
(1.00007 -8.46936e-06 0)
(1.00007 -5.70338e-06 0)
(1.00008 -2.52696e-06 0)
(1.00008 9.6329e-07 0)
(1.00008 4.63652e-06 0)
(1.00007 8.32678e-06 0)
(1.00007 1.18441e-05 0)
(1.00006 1.49907e-05 0)
(1.00005 1.7581e-05 0)
(1.00003 1.94614e-05 0)
(1.00002 2.05284e-05 0)
(1.00001 2.07402e-05 0)
(0.999995 2.012e-05 0)
(0.999983 1.87499e-05 0)
(0.999972 1.67621e-05 0)
(0.999962 1.43283e-05 0)
(0.999954 1.16386e-05 0)
(0.999947 8.86666e-06 0)
(0.999943 6.14007e-06 0)
(0.99994 3.53709e-06 0)
(0.999938 1.09938e-06 0)
(0.999939 -1.15102e-06 0)
(0.99994 -3.16536e-06 0)
(0.999943 -4.84421e-06 0)
(0.999946 -6.04206e-06 0)
(0.999951 -6.63322e-06 0)
(0.999955 -6.59427e-06 0)
(0.999959 -6.04808e-06 0)
(0.999963 -5.23614e-06 0)
(0.999966 -4.42299e-06 0)
(0.999968 -3.79024e-06 0)
(0.99997 -3.3955e-06 0)
(0.999972 -3.20664e-06 0)
(0.999974 -3.1559e-06 0)
(0.999976 -3.17351e-06 0)
(0.999977 -3.20274e-06 0)
(0.999979 -3.20588e-06 0)
(0.999981 -3.16362e-06 0)
(0.999983 -3.07064e-06 0)
(0.999985 -2.93086e-06 0)
(0.999987 -2.75334e-06 0)
(0.999989 -2.54922e-06 0)
(0.99999 -2.3296e-06 0)
(0.999991 -2.10435e-06 0)
(0.999993 -1.88154e-06 0)
(0.999994 -1.66729e-06 0)
(0.999995 -1.46586e-06 0)
(0.999995 -1.27993e-06 0)
(0.999996 -1.11086e-06 0)
(0.999997 -9.59033e-07 0)
(0.999997 -8.24104e-07 0)
(0.999998 -7.05232e-07 0)
(0.999998 -6.01271e-07 0)
(0.999998 -5.1091e-07 0)
(0.999999 -4.3278e-07 0)
(0.999999 -3.65526e-07 0)
(0.999999 -3.07855e-07 0)
(0.999999 -2.58564e-07 0)
(0.999999 -2.16558e-07 0)
(1 -1.80851e-07 0)
(1 -1.5057e-07 0)
(1 -1.24947e-07 0)
(1 -1.03309e-07 0)
(1 -8.50735e-08 0)
(1 -6.97363e-08 0)
(1 -5.68636e-08 0)
(1 -4.60838e-08 0)
(1 -3.70796e-08 0)
(1 -2.95807e-08 0)
(1 -2.33576e-08 0)
(1 -1.82152e-08 0)
(1 -1.39877e-08 0)
(1 -1.05338e-08 0)
(1 -7.7329e-09 0)
(1 -5.48114e-09 0)
(1 -3.68916e-09 0)
(1 -2.28079e-09 0)
(1 -1.19119e-09 0)
(1 -3.65178e-10 0)
(1 2.43341e-10 0)
(1 6.73089e-10 0)
(1 9.56066e-10 0)
(1 1.12283e-09 0)
(1 1.18566e-09 0)
(1 1.20905e-09 0)
(1 1.05654e-09 0)
(1 4.67088e-11 0)
(1 1.10807e-10 0)
(1 1.79149e-10 0)
(1 2.58277e-10 0)
(1 3.43134e-10 0)
(1 4.32366e-10 0)
(1 5.24944e-10 0)
(1 6.20113e-10 0)
(1 7.1758e-10 0)
(1 8.17315e-10 0)
(1 9.19335e-10 0)
(1 1.02369e-09 0)
(1 1.13048e-09 0)
(1 1.23979e-09 0)
(1 1.35147e-09 0)
(1 1.46481e-09 0)
(1 1.57823e-09 0)
(1 1.68906e-09 0)
(1 1.79337e-09 0)
(1 1.88581e-09 0)
(1 1.95958e-09 0)
(1 2.00639e-09 0)
(1 2.01632e-09 0)
(1 1.97759e-09 0)
(1 1.87587e-09 0)
(1 1.69346e-09 0)
(1 1.40791e-09 0)
(1 9.90762e-10 0)
(1 4.06404e-10 0)
(1 -3.90026e-10 0)
(1 -1.45366e-09 0)
(1 -2.85139e-09 0)
(1 -4.66426e-09 0)
(1 -6.99069e-09 0)
(1 -9.95031e-09 0)
(1 -1.36881e-08 0)
(1 -1.83796e-08 0)
(1 -2.42364e-08 0)
(1 -3.15118e-08 0)
(1 -4.05063e-08 0)
(1 -5.15792e-08 0)
(1 -6.51675e-08 0)
(1 -8.18106e-08 0)
(1 -1.02172e-07 0)
(1 -1.27054e-07 0)
(1 -1.57409e-07 0)
(1 -1.94353e-07 0)
(1 -2.39158e-07 0)
(1 -2.93211e-07 0)
(1 -3.57962e-07 -3.88238e-43)
(1 -4.34891e-07 -3.27704e-43)
(1 -5.25526e-07 0)
(1 -6.31469e-07 0)
(1 -7.54356e-07 0)
(1 -8.95682e-07 0)
(1 -1.05655e-06 0)
(1 -1.23736e-06 0)
(1 -1.43737e-06 0)
(1 -1.65404e-06 0)
(1.00001 -1.88182e-06 0)
(1.00001 -2.11094e-06 0)
(1.00001 -2.32653e-06 0)
(1.00001 -2.50907e-06 0)
(1.00001 -2.6361e-06 0)
(1.00001 -2.685e-06 0)
(1.00001 -2.6371e-06 0)
(1.00001 -2.48368e-06 0)
(1.00002 -2.23235e-06 0)
(1.00002 -1.91122e-06 0)
(1.00002 -1.57655e-06 0)
(1.00002 -1.31349e-06 0)
(1.00002 -1.22517e-06 0)
(1.00002 -1.40818e-06 0)
(1.00002 -1.90859e-06 0)
(1.00002 -2.66558e-06 0)
(1.00002 -3.47697e-06 0)
(1.00003 -4.0384e-06 0)
(1.00003 -4.06932e-06 0)
(1.00003 -3.44705e-06 0)
(1.00003 -2.24406e-06 0)
(1.00003 -6.5646e-07 0)
(1.00003 1.10291e-06 0)
(1.00003 2.88271e-06 0)
(1.00003 4.61552e-06 0)
(1.00003 6.28044e-06 0)
(1.00002 7.8527e-06 0)
(1.00002 9.2857e-06 0)
(1.00001 1.05152e-05 0)
(1.00001 1.14594e-05 0)
(1 1.2029e-05 0)
(0.999994 1.21577e-05 0)
(0.999988 1.18257e-05 0)
(0.999982 1.10518e-05 0)
(0.999976 9.87309e-06 0)
(0.999971 8.33662e-06 0)
(0.999967 6.50148e-06 0)
(0.999964 4.4371e-06 0)
(0.999962 2.21359e-06 0)
(0.999962 -1.0455e-07 0)
(0.999963 -2.46239e-06 0)
(0.999964 -4.8117e-06 0)
(0.999968 -7.10947e-06 0)
(0.999972 -9.31478e-06 0)
(0.999977 -1.13859e-05 0)
(0.999984 -1.32786e-05 0)
(0.999991 -1.49459e-05 0)
(1 -1.63379e-05 0)
(1.00001 -1.74004e-05 0)
(1.00002 -1.80732e-05 0)
(1.00003 -1.82891e-05 0)
(1.00004 -1.79853e-05 0)
(1.00005 -1.71093e-05 0)
(1.00006 -1.56212e-05 0)
(1.00006 -1.34998e-05 0)
(1.00007 -1.07486e-05 0)