/*--------------------------------*- C++ -*----------------------------------*\
| =========                 |                                                 |
| \\      /  F ield         | OpenFOAM: The Open Source CFD Toolbox           |
|  \\    /   O peration     | Version:  v2006                                 |
|   \\  /    A nd           | Website:  www.openfoam.com                      |
|    \\/     M anipulation  |                                                 |
\*---------------------------------------------------------------------------*/
FoamFile
{
    version     2.0;
    format      ascii;
    class       volScalarField;
    location    "6";
    object      p;
}
// * * * * * * * * * * * * * * * * * * * * * * * * * * * * * * * * * * * * * //

dimensions      [1 -1 -2 0 0 0 0];


internalField   nonuniform List<scalar> 
50000
(
22255.5
22255.9
22256.7
22257.9
22259.5
22261.6
22264
22266.8
22270.1
22273.7
22277.7
22282.2
22287
22292.2
22297.8
22303.8
22310.1
22316.8
22323.9
22331.4
22339.2
22347.4
22355.9
22364.8
22374
22383.6
22393.5
22403.7
22414.2
22425
22436.1
22447.5
22459.1
22471.1
22483.3
22495.7
22508.4
22521.3
22534.4
22547.8
22561.3
22575
22588.9
22602.9
22617.1
22631.4
22645.9
22660.5
22675.1
22689.9
22704.7
22719.5
22734.5
22749.4
22764.4
22779.4
22794.3
22809.3
22824.2
22839.1
22854
22868.7
22883.4
22898.1
22912.6
22927
22941.3
22955.4
22969.5
22983.3
22997.1
23010.6
23024
23037.2
23050.2
23063.1
23075.7
23088.1
23100.3
23112.3
23124.1
23135.7
23147
23158.1
23168.9
23179.6
23189.9
23200.1
23210
23219.7
23229.1
23238.3
23247.2
23255.9
23264.4
23272.6
23280.6
23288.4
23295.9
23303.2
23310.2
23317.1
23323.7
23330.1
23336.3
23342.3
23348.1
23353.7
23359.1
23364.3
23369.3
23374.1
23378.7
23383.2
23387.5
23391.6
23395.6
23399.4
23403
23406.5
23409.9
23413.1
23416.2
23419.1
23421.9
23424.6
23427.2
23429.6
23431.9
23434.1
23436.2
23438.2
23440
23441.8
23443.4
23445
23446.4
23447.7
23448.9
23450
23451
23451.9
23452.8
23453.5
23454.1
23454.6
23455
23455.3
23455.5
23455.6
21803.4
21803.8
21804.6
21805.9
21807.5
21809.5
21812
21814.8
21818
21821.7
21825.7
21830.1
21835
21840.2
21845.8
21851.7
21858.1
21864.8
21871.9
21879.4
21887.3
21895.4
21904
21912.9
21922.1
21931.7
21941.6
21951.8
21962.3
21973.1
21984.2
21995.7
22007.3
22019.3
22031.5
22044
22056.7
22069.6
22082.8
22096.1
22109.7
22123.4
22137.3
22151.4
22165.6
22179.9
22194.4
22209
22223.7
22238.4
22253.3
22268.2
22283.1
22298.1
22313.1
22328.1
22343.1
22358.1
22373
22387.9
22402.8
22417.6
22432.3
22446.9
22461.5
22475.9
22490.2
22504.4
22518.4
22532.3
22546.1
22559.6
22573
22586.2
22599.3
22612.1
22624.8
22637.2
22649.4
22661.4
22673.2
22684.8
22696.1
22707.2
22718.1
22728.7
22739.1
22749.3
22759.2
22768.8
22778.3
22787.4
22796.4
22805.1
22813.6
22821.8
22829.8
22837.5
22845
22852.3
22859.4
22866.2
22872.9
22879.3
22885.5
22891.4
22897.2
22902.8
22908.1
22913.3
22918.3
22923.1
22927.7
22932.2
22936.5
22940.6
22944.6
22948.4
22952
22955.5
22958.9
22962.1
22965.1
22968.1
22970.9
22973.6
22976.1
22978.6
22980.9
22983.1
22985.1
22987.1
22989
22990.7
22992.4
22993.9
22995.3
22996.6
22997.8
22998.9
23000
23000.9
23001.7
23002.4
23003
23003.5
23003.9
23004.2
23004.4
23004.5
21350.5
21350.9
21351.7
21353
21354.6
21356.6
21359.1
21361.9
21365.2
21368.8
21372.8
21377.3
21382.1
21387.4
21393
21399
21405.3
21412.1
21419.2
21426.7
21434.6
21442.8
21451.4
21460.3
21469.6
21479.1
21489.1
21499.3
21509.9
21520.7
21531.9
21543.3
21555
21567
21579.3
21591.8
21604.5
21617.5
21630.7
21644.1
21657.7
21671.5
21685.4
21699.5
21713.8
21728.2
21742.7
21757.3
21772.1
21786.9
21801.8
21816.7
21831.7
21846.7
21861.7
21876.8
21891.8
21906.9
21921.9
21936.8
21951.7
21966.5
21981.3
21996
22010.5
22025
22039.3
22053.5
22067.6
22081.5
22095.3
22108.9
22122.3
22135.6
22148.6
22161.5
22174.2
22186.6
22198.9
22210.9
22222.7
22234.3
22245.6
22256.7
22267.6
22278.3
22288.7
22298.8
22308.7
22318.4
22327.8
22337
22346
22354.7
22363.1
22371.4
22379.4
22387.1
22394.6
22401.9
22409
22415.8
22422.4
22428.8
22435
22440.9
22446.7
22452.2
22457.6
22462.8
22467.8
22472.5
22477.2
22481.6
22485.9
22490
22493.9
22497.7
22501.3
22504.8
22508.1
22511.3
22514.4
22517.3
22520.1
22522.8
22525.3
22527.7
22530
22532.2
22534.3
22536.2
22538
22539.8
22541.4
22542.9
22544.3
22545.7
22546.9
22548
22549
22549.9
22550.7
22551.4
22552
22552.5
22552.9
22553.2
22553.3
22553.5
20896.8
20897.2
20898
20899.2
20900.8
20902.9
20905.3
20908.2
20911.5
20915.1
20919.2
20923.7
20928.5
20933.8
20939.4
20945.4
20951.8
20958.6
20965.8
20973.3
20981.2
20989.5
20998.1
21007
21016.3
21026
21035.9
21046.2
21056.8
21067.8
21079
21090.5
21102.2
21114.3
21126.6
21139.2
21152
21165
21178.3
21191.7
21205.4
21219.2
21233.2
21247.4
21261.7
21276.2
21290.8
21305.5
21320.3
21335.2
21350.1
21365.1
21380.2
21395.3
21410.4
21425.5
21440.6
21455.7
21470.7
21485.7
21500.7
21515.6
21530.4
21545.1
21559.8
21574.3
21588.7
21602.9
21617
21631
21644.8
21658.5
21671.9
21685.2
21698.3
21711.2
21723.9
21736.4
21748.7
21760.7
21772.6
21784.2
21795.5
21806.7
21817.6
21828.2
21838.6
21848.8
21858.7
21868.4
21877.9
21887
21896
21904.7
21913.2
21921.4
21929.4
21937.1
21944.6
21951.9
21958.9
21965.7
21972.3
21978.7
21984.9
21990.8
21996.6
22002.1
22007.4
22012.6
22017.5
22022.3
22026.9
22031.3
22035.5
22039.6
22043.5
22047.3
22050.9
22054.4
22057.7
22060.8
22063.9
22066.8
22069.5
22072.2
22074.7
22077.1
22079.4
22081.5
22083.6
22085.5
22087.3
22089
22090.6
22092.1
22093.5
22094.8
22096
22097.1
22098.1
22099
22099.8
22100.5
22101
22101.5
22101.9
22102.2
22102.4
22102.5
20442.2
20442.6
20443.4
20444.6
20446.3
20448.3
20450.8
20453.7
20457
20460.6
20464.7
20469.2
20474.1
20479.4
20485.1
20491.1
20497.6
20504.4
20511.6
20519.2
20527.1
20535.4
20544.1
20553.1
20562.5
20572.2
20582.2
20592.6
20603.2
20614.2
20625.5
20637.1
20648.9
20661
20673.4
20686.1
20699
20712.1
20725.4
20739
20752.7
20766.6
20780.7
20795
20809.4
20824
20838.7
20853.4
20868.3
20883.3
20898.3
20913.4
20928.6
20943.7
20958.9
20974.1
20989.3
21004.5
21019.6
21034.7
21049.8
21064.7
21079.6
21094.4
21109.1
21123.7
21138.2
21152.5
21166.7
21180.7
21194.6
21208.3
21221.8
21235.2
21248.3
21261.3
21274
21286.5
21298.8
21310.9
21322.8
21334.4
21345.8
21357
21367.9
21378.6
21389
21399.2
21409.1
21418.8
21428.3
21437.5
21446.4
21455.1
21463.6
21471.8
21479.8
21487.5
21495
21502.3
21509.3
21516.1
21522.7
21529
21535.2
21541.1
21546.8
21552.3
21557.6
21562.7
21567.7
21572.4
21577
21581.4
21585.6
21589.7
21593.5
21597.2
21600.8
21604.2
21607.5
21610.6
21613.6
21616.5
21619.2
21621.8
21624.3
21626.7
21628.9
21631
21633.1
21635
21636.7
21638.4
21640
21641.5
21642.9
21644.1
21645.3
21646.4
21647.3
21648.2
21649
21649.7
21650.2
21650.7
21651.1
21651.4
21651.6
21651.7
19986.7
19987.1
19987.9
19989.2
19990.9
19992.9
19995.4
19998.3
20001.6
20005.3
20009.5
20014
20018.9
20024.2
20029.9
20036.1
20042.6
20049.4
20056.7
20064.3
20072.3
20080.7
20089.4
20098.5
20108
20117.7
20127.8
20138.3
20149
20160.1
20171.5
20183.1
20195.1
20207.3
20219.8
20232.5
20245.5
20258.7
20272.2
20285.8
20299.7
20313.7
20327.9
20342.3
20356.8
20371.5
20386.3
20401.2
20416.2
20431.3
20446.4
20461.6
20476.9
20492.2
20507.5
20522.8
20538.1
20553.4
20568.6
20583.8
20598.9
20614
20629
20643.9
20658.7
20673.4
20687.9
20702.3
20716.6
20730.7
20744.6
20758.4
20772
20785.4
20798.6
20811.6
20824.4
20837
20849.4
20861.5
20873.4
20885.1
20896.5
20907.7
20918.7
20929.4
20939.8
20950
20960
20969.7
20979.1
20988.3
20997.3
21006
21014.5
21022.7
21030.6
21038.3
21045.8
21053.1
21060.1
21066.9
21073.4
21079.7
21085.8
21091.7
21097.4
21102.9
21108.2
21113.3
21118.2
21122.9
21127.4
21131.7
21135.9
21139.9
21143.7
21147.4
21150.9
21154.3
21157.6
21160.6
21163.6
21166.4
21169.1
21171.7
21174.1
21176.5
21178.7
21180.7
21182.7
21184.6
21186.4
21188
21189.6
21191
21192.3
21193.6
21194.7
21195.8
21196.7
21197.6
21198.3
21199
21199.5
21200
21200.4
21200.7
21200.8
21201
19530.4
19530.9
19531.7
19532.9
19534.6
19536.7
19539.2
19542.1
19545.5
19549.2
19553.4
19557.9
19562.9
19568.3
19574
19580.2
19586.8
19593.7
19601
19608.7
19616.8
19625.3
19634.1
19643.2
19652.8
19662.6
19672.8
19683.4
19694.2
19705.4
19716.9
19728.6
19740.7
19753
19765.6
19778.5
19791.6
19805
19818.5
19832.3
19846.3
19860.5
19874.8
19889.3
19904
19918.8
19933.7
19948.7
19963.9
19979.1
19994.4
20009.7
20025.1
20040.5
20056
20071.4
20086.8
20102.2
20117.6
20132.9
20148.2
20163.4
20178.5
20193.5
20208.4
20223.2
20237.8
20252.3
20266.7
20280.9
20295
20308.8
20322.5
20336
20349.3
20362.3
20375.2
20387.9
20400.3
20412.5
20424.4
20436.1
20447.6
20458.8
20469.8
20480.6
20491.1
20501.3
20511.3
20521
20530.4
20539.6
20548.6
20557.3
20565.8
20574
20581.9
20589.6
20597.1
20604.3
20611.3
20618
20624.6
20630.8
20636.9
20642.8
20648.4
20653.9
20659.1
20664.1
20669
20673.6
20678.1
20682.4
20686.5
20690.5
20694.3
20697.9
20701.4
20704.7
20707.9
20710.9
20713.8
20716.6
20719.2
20721.8
20724.2
20726.4
20728.6
20730.6
20732.6
20734.4
20736.1
20737.7
20739.2
20740.6
20742
20743.2
20744.3
20745.3
20746.2
20747
20747.8
20748.4
20749
20749.4
20749.8
20750
20750.2
20750.3
19073.3
19073.7
19074.5
19075.8
19077.5
19079.6
19082.1
19085.1
19088.5
19092.3
19096.5
19101.1
19106.1
19111.5
19117.3
19123.6
19130.2
19137.2
19144.6
19152.4
19160.6
19169.1
19178
19187.3
19196.9
19206.9
19217.2
19227.8
19238.8
19250.1
19261.7
19273.6
19285.8
19298.2
19311
19324
19337.2
19350.7
19364.5
19378.4
19392.5
19406.9
19421.4
19436
19450.9
19465.8
19480.9
19496.1
19511.4
19526.8
19542.2
19557.7
19573.3
19588.8
19604.4
19620
19635.6
19651.2
19666.7
19682.1
19697.6
19712.9
19728.1
19743.3
19758.3
19773.2
19788
19802.6
19817.1
19831.4
19845.5
19859.5
19873.3
19886.9
19900.2
19913.4
19926.3
19939.1
19951.5
19963.8
19975.8
19987.6
19999.1
20010.4
20021.4
20032.2
20042.7
20053
20063
20072.7
20082.2
20091.4
20100.3
20109
20117.5
20125.7
20133.6
20141.3
20148.7
20155.9
20162.9
20169.6
20176.1
20182.4
20188.4
20194.2
20199.8
20205.2
20210.4
20215.4
20220.2
20224.8
20229.2
20233.4
20237.5
20241.4
20245.1
20248.7
20252.1
20255.3
20258.5
20261.4
20264.3
20267
20269.6
20272
20274.4
20276.6
20278.7
20280.7
20282.6
20284.3
20286
20287.6
20289
20290.4
20291.7
20292.9
20293.9
20294.9
20295.8
20296.6
20297.3
20297.9
20298.5
20298.9
20299.3
20299.5
20299.7
20299.8
18615.3
18615.7
18616.5
18617.8
18619.5
18621.7
18624.2
18627.2
18630.6
18634.4
18638.7
18643.4
18648.4
18653.9
18659.8
18666.1
18672.8
18679.9
18687.4
18695.3
18703.5
18712.2
18721.2
18730.6
18740.3
18750.4
18760.8
18771.6
18782.7
18794.2
18805.9
18818
18830.3
18842.9
18855.8
18869
18882.4
18896.1
18910
18924.1
18938.4
18952.9
18967.6
18982.4
18997.4
19012.6
19027.9
19043.2
19058.7
19074.3
19089.9
19105.6
19121.3
19137.1
19152.9
19168.6
19184.4
19200.1
19215.8
19231.4
19247
19262.5
19277.9
19293.2
19308.4
19323.4
19338.3
19353.1
19367.7
19382.1
19396.4
19410.5
19424.4
19438.1
19451.5
19464.8
19477.8
19490.6
19503.2
19515.5
19527.6
19539.5
19551
19562.4
19573.4
19584.2
19594.8
19605.1
19615.1
19624.9
19634.3
19643.6
19652.5
19661.2
19669.7
19677.8
19685.8
19693.4
19700.8
19708
19714.9
19721.6
19728.1
19734.3
19740.3
19746
19751.6
19756.9
19762
19767
19771.7
19776.2
19780.6
19784.7
19788.7
19792.5
19796.2
19799.7
19803
19806.2
19809.3
19812.2
19815
19817.6
19820.1
19822.5
19824.8
19826.9
19829
19830.9
19832.7
19834.4
19836.1
19837.6
19839
19840.3
19841.5
19842.7
19843.7
19844.7
19845.5
19846.3
19847
19847.6
19848.1
19848.5
19848.8
19849.1
19849.2
19849.3
18156.4
18156.8
18157.6
18158.9
18160.7
18162.8
18165.4
18168.4
18171.9
18175.8
18180.1
18184.8
18189.9
18195.5
18201.5
18207.9
18214.6
18221.8
18229.4
18237.4
18245.8
18254.5
18263.7
18273.2
18283
18293.3
18303.9
18314.8
18326
18337.6
18349.5
18361.7
18374.3
18387.1
18400.2
18413.5
18427.1
18441
18455
18469.4
18483.9
18498.6
18513.5
18528.5
18543.7
18559.1
18574.6
18590.2
18605.8
18621.6
18637.5
18653.4
18669.3
18685.3
18701.2
18717.2
18733.2
18749.1
18765
18780.8
18796.5
18812.2
18827.8
18843.2
18858.6
18873.8
18888.9
18903.8
18918.6
18933.2
18947.6
18961.8
18975.8
18989.6
19003.2
19016.5
19029.7
19042.6
19055.2
19067.7
19079.8
19091.7
19103.4
19114.8
19125.9
19136.7
19147.3
19157.6
19167.7
19177.5
19187
19196.2
19205.2
19213.9
19222.3
19230.5
19238.4
19246
19253.4
19260.5
19267.4
19274
19280.4
19286.6
19292.5
19298.2
19303.7
19309
19314
19318.9
19323.6
19328
19332.3
19336.4
19340.3
19344
19347.6
19351
19354.3
19357.4
19360.4
19363.2
19365.9
19368.4
19370.9
19373.2
19375.4
19377.5
19379.4
19381.3
19383
19384.7
19386.2
19387.7
19389.1
19390.3
19391.5
19392.6
19393.6
19394.5
19395.3
19396
19396.7
19397.2
19397.7
19398.1
19398.4
19398.7
19398.8
19399
17696.5
17697
17697.8
17699.2
17700.9
17703.1
17705.7
17708.8
17712.3
17716.2
17720.6
17725.4
17730.6
17736.2
17742.3
17748.8
17755.7
17763
17770.7
17778.8
17787.2
17796.1
17805.4
17815
17825.1
17835.4
17846.2
17857.3
17868.7
17880.5
17892.6
17905
17917.7
17930.7
17943.9
17957.5
17971.3
17985.4
17999.7
18014.2
18029
18043.9
18059
18074.3
18089.7
18105.3
18121
18136.9
18152.8
18168.8
18184.9
18201
18217.2
18233.4
18249.6
18265.8
18281.9
18298.1
18314.2
18330.2
18346.2
18362.1
18377.8
18393.5
18409
18424.4
18439.7
18454.8
18469.7
18484.4
18499
18513.4
18527.5
18541.4
18555.2
18568.7
18581.9
18594.9
18607.7
18620.2
18632.4
18644.4
18656.1
18667.6
18678.8
18689.7
18700.3
18710.7
18720.7
18730.5
18740.1
18749.3
18758.3
18767
18775.4
18783.5
18791.4
18799
18806.4
18813.5
18820.3
18826.9
18833.2
18839.3
18845.2
18850.8
18856.3
18861.5
18866.4
18871.2
18875.8
18880.1
18884.3
18888.3
18892.2
18895.8
18899.3
18902.6
18905.8
18908.8
18911.7
18914.4
18917
18919.5
18921.8
18924
18926.1
18928.1
18930
18931.8
18933.5
18935.1
18936.6
18937.9
18939.2
18940.4
18941.6
18942.6
18943.5
18944.4
18945.2
18945.9
18946.5
18947
18947.5
18947.8
18948.1
18948.3
18948.5
18948.6
17235.8
17236.3
17237.1
17238.5
17240.3
17242.5
17245.2
17248.3
17251.8
17255.8
17260.2
17265.1
17270.4
17276.1
17282.3
17288.8
17295.8
17303.2
17311.1
17319.3
17327.9
17336.9
17346.4
17356.2
17366.3
17376.9
17387.8
17399.1
17410.7
17422.7
17434.9
17447.5
17460.5
17473.7
17487.2
17501
17515
17529.3
17543.9
17558.7
17573.6
17588.8
17604.2
17619.8
17635.5
17651.3
17667.3
17683.4
17699.6
17715.8
17732.2
17748.5
17765
17781.4
17797.9
17814.3
17830.7
17847.1
17863.5
17879.7
17895.9
17912
17928
17943.9
17959.6
17975.3
17990.7
18006
18021.1
18036
18050.7
18065.3
18079.6
18093.7
18107.5
18121.1
18134.5
18147.7
18160.5
18173.1
18185.5
18197.5
18209.3
18220.9
18232.1
18243.1
18253.7
18264.1
18274.2
18284.1
18293.6
18302.9
18311.8
18320.5
18328.9
18337
18344.9
18352.5
18359.8
18366.8
18373.6
18380.2
18386.5
18392.5
18398.3
18403.8
18409.2
18414.3
18419.2
18423.9
18428.3
18432.6
18436.7
18440.6
18444.3
18447.9
18451.2
18454.5
18457.5
18460.4
18463.2
18465.8
18468.3
18470.7
18472.9
18475.1
18477.1
18479
18480.8
18482.5
18484.1
18485.6
18487
18488.3
18489.5
18490.6
18491.7
18492.7
18493.5
18494.3
18495.1
18495.7
18496.3
18496.8
18497.2
18497.6
18497.8
18498.1
18498.2
18498.3
16774.2
16774.6
16775.5
16776.9
16778.7
16780.9
16783.7
16786.8
16790.4
16794.5
16799
16803.9
16809.3
16815.1
16821.4
16828.1
16835.2
16842.7
16850.6
16859
16867.8
16877
16886.5
16896.5
16906.9
16917.6
16928.7
16940.2
16952
16964.2
16976.7
16989.5
17002.7
17016.1
17029.9
17043.9
17058.2
17072.8
17087.6
17102.7
17117.9
17133.4
17149
17164.9
17180.9
17197
17213.3
17229.6
17246.1
17262.7
17279.3
17296
17312.7
17329.4
17346.1
17362.9
17379.6
17396.2
17412.8
17429.3
17445.8
17462.1
17478.4
17494.5
17510.5
17526.3
17542
17557.5
17572.8
17587.9
17602.8
17617.5
17632
17646.2
17660.2
17674
17687.5
17700.8
17713.8
17726.5
17738.9
17751.1
17763
17774.6
17785.9
17796.9
17807.7
17818.1
17828.2
17838.1
17847.6
17856.9
17865.9
17874.5
17882.9
17891
17898.9
17906.4
17913.7
17920.7
17927.4
17933.9
17940.1
17946.1
17951.8
17957.3
17962.5
17967.5
17972.3
17976.9
17981.3
17985.4
17989.4
17993.2
17996.8
18000.2
18003.5
18006.6
18009.5
18012.3
18015
18017.5
18019.9
18022.1
18024.2
18026.3
18028.2
18030
18031.7
18033.3
18034.8
18036.2
18037.5
18038.7
18039.8
18040.9
18041.9
18042.8
18043.6
18044.4
18045
18045.6
18046.2
18046.6
18047
18047.3
18047.6
18047.8
18047.9
18048
16311.6
16312
16312.9
16314.3
16316.1
16318.5
16321.2
16324.4
16328.1
16332.2
16336.8
16341.8
16347.3
16353.2
16359.6
16366.4
16373.6
16381.3
16389.4
16397.9
16406.8
16416.2
16425.9
16436.1
16446.6
16457.6
16468.9
16480.6
16492.6
16505
16517.8
16530.9
16544.3
16558
16572
16586.3
16600.9
16615.8
16630.9
16646.2
16661.8
16677.5
16693.5
16709.6
16725.9
16742.4
16759
16775.7
16792.5
16809.3
16826.3
16843.3
16860.3
16877.3
16894.4
16911.4
16928.4
16945.3
16962.2
16979
16995.8
17012.4
17028.9
17045.3
17061.5
17077.6
17093.5
17109.2
17124.7
17140.1
17155.2
17170.1
17184.7
17199.2
17213.4
17227.3
17241
17254.4
17267.5
17280.3
17292.9
17305.1
17317.1
17328.8
17340.2
17351.3
17362
17372.5
17382.7
17392.6
17402.1
17411.4
17420.4
17429
17437.4
17445.5
17453.3
17460.8
17468
17475
17481.6
17488
17494.2
17500
17505.7
17511.1
17516.2
17521.1
17525.8
17530.3
17534.5
17538.6
17542.4
17546.1
17549.5
17552.8
17556
17558.9
17561.8
17564.4
17566.9
17569.3
17571.6
17573.7
17575.7
17577.6
17579.4
17581.1
17582.7
17584.2
17585.5
17586.8
17588.1
17589.2
17590.3
17591.2
17592.1
17593
17593.7
17594.4
17595
17595.5
17596
17596.4
17596.8
17597.1
17597.3
17597.5
17597.6
17597.7
15848
15848.5
15849.4
15850.8
15852.6
15855
15857.8
15861.1
15864.8
15869
15873.7
15878.8
15884.4
15890.4
15896.9
15903.8
15911.2
15919
15927.2
15935.9
15945
15954.5
15964.5
15974.8
15985.6
15996.7
16008.3
16020.2
16032.5
16045.1
16058.2
16071.5
16085.2
16099.2
16113.5
16128.1
16143
16158.2
16173.6
16189.3
16205.2
16221.3
16237.6
16254.1
16270.7
16287.5
16304.4
16321.5
16338.6
16355.8
16373.1
16390.4
16407.8
16425.2
16442.5
16459.9
16477.2
16494.5
16511.7
16528.8
16545.9
16562.8
16579.6
16596.2
16612.7
16629.1
16645.2
16661.2
16677
16692.5
16707.9
16723
16737.9
16752.5
16766.8
16781
16794.8
16808.3
16821.6
16834.6
16847.3
16859.6
16871.7
16883.5
16894.9
16906.1
16916.9
16927.5
16937.7
16947.6
16957.2
16966.4
16975.4
16984.1
16992.4
17000.5
17008.2
17015.7
17022.8
17029.7
17036.3
17042.6
17048.7
17054.5
17060
17065.3
17070.3
17075.1
17079.6
17084
17088.1
17092
17095.7
17099.3
17102.6
17105.7
17108.7
17111.6
17114.2
17116.7
17119.1
17121.4
17123.5
17125.5
17127.3
17129.1
17130.8
17132.3
17133.8
17135.1
17136.4
17137.6
17138.7
17139.7
17140.7
17141.6
17142.4
17143.1
17143.8
17144.4
17145
17145.5
17145.9
17146.3
17146.6
17146.8
17147
17147.2
17147.3
17147.4
15383.4
15383.9
15384.8
15386.3
15388.2
15390.6
15393.4
15396.8
15400.6
15404.8
15409.6
15414.8
15420.5
15426.6
15433.2
15440.3
15447.8
15455.8
15464.2
15473
15482.3
15492
15502.2
15512.7
15523.7
15535.1
15546.9
15559.1
15571.6
15584.5
15597.8
15611.5
15625.5
15639.8
15654.4
15669.4
15684.6
15700.1
15715.9
15731.9
15748.1
15764.6
15781.3
15798.1
15815.1
15832.3
15849.6
15867
15884.5
15902.1
15919.8
15937.5
15955.2
15973
15990.7
16008.4
16026.1
16043.7
16061.3
16078.7
16096.1
16113.3
16130.4
16147.4
16164.2
16180.8
16197.3
16213.5
16229.5
16245.3
16260.9
16276.3
16291.3
16306.2
16320.7
16335.1
16349.1
16362.8
16376.2
16389.3
16402.1
16414.6
16426.8
16438.6
16450.2
16461.4
16472.3
16482.9
16493.1
16503.1
16512.7
16522
16530.9
16539.6
16547.9
16555.9
16563.6
16571
16578.1
16584.9
16591.4
16597.7
16603.6
16609.3
16614.7
16619.9
16624.8
16629.5
16633.9
16638.1
16642.1
16645.8
16649.4
16652.7
16655.9
16658.9
16661.7
16664.4
16666.9
16669.3
16671.5
16673.6
16675.5
16677.4
16679.1
16680.7
16682.2
16683.6
16685
16686.2
16687.3
16688.4
16689.4
16690.3
16691.2
16692
16692.7
16693.3
16693.9
16694.4
16694.9
16695.3
16695.7
16696
16696.3
16696.5
16696.6
16696.8
16696.9
16697
14917.9
14918.3
14919.2
14920.7
14922.7
14925.1
14928
14931.4
14935.3
14939.7
14944.5
14949.8
14955.6
14961.9
14968.6
14975.8
14983.5
14991.6
15000.2
15009.2
15018.7
15028.6
15039
15049.8
15061
15072.6
15084.7
15097.1
15110
15123.2
15136.8
15150.7
15165.1
15179.7
15194.7
15210
15225.6
15241.4
15257.6
15274
15290.6
15307.5
15324.5
15341.8
15359.2
15376.8
15394.5
15412.3
15430.2
15448.2
15466.3
15484.4
15502.5
15520.7
15538.8
15556.9
15575
15593
15610.9
15628.7
15646.4
15664
15681.5
15698.7
15715.9
15732.8
15749.6
15766.1
15782.4
15798.5
15814.3
15829.9
15845.2
15860.3
15875
15889.7
15903.8
15917.7
15931.2
15944.5
15957.4
15970.1
15982.4
15994.3
16006
16017.3
16028.2
16038.8
16049.1
16059.1
16068.7
16078
16087
16095.6
16103.9
16111.9
16119.5
16126.9
16133.9
16140.6
16147
16153.2
16159
16164.6
16169.9
16174.9
16179.7
16184.2
16188.5
16192.5
16196.3
16199.9
16203.3
16206.5
16209.5
16212.3
16215
16217.5
16219.8
16222
16224
16225.9
16227.7
16229.4
16231
16232.4
16233.8
16235
16236.2
16237.3
16238.3
16239.2
16240.1
16240.9
16241.6
16242.3
16242.9
16243.5
16244
16244.4
16244.8
16245.1
16245.4
16245.7
16245.9
16246.1
16246.2
16246.3
16246.4
16246.5
14451.2
14451.7
14452.6
14454.1
14456.1
14458.6
14461.6
14465.1
14469
14473.5
14478.4
14483.9
14489.8
14496.2
14503
14510.4
14518.2
14526.5
14535.3
14544.5
14554.2
14564.3
14574.9
14585.9
14597.4
14609.3
14621.6
14634.4
14647.5
14661
14675
14689.3
14703.9
14718.9
14734.3
14749.9
14765.9
14782.2
14798.7
14815.6
14832.6
14849.9
14867.4
14885.1
14902.9
14920.9
14939.1
14957.3
14975.7
14994.1
15012.6
15031.2
15049.7
15068.3
15086.9
15105.4
15123.9
15142.3
15160.6
15178.8
15196.9
15214.9
15232.7
15250.3
15267.8
15285.1
15302.1
15319
15335.6
15352
15368.1
15383.9
15399.5
15414.8
15429.8
15444.6
15459
15473
15486.8
15500.2
15513.3
15526
15538.4
15550.5
15562.2
15573.6
15584.7
15595.3
15605.7
15615.7
15625.3
15634.6
15643.5
15652.1
15660.4
15668.3
15675.9
15683.2
15690.2
15696.8
15703.1
15709.2
15714.9
15720.3
15725.5
15730.4
15735
15739.3
15743.4
15747.3
15751
15754.4
15757.6
15760.6
15763.4
15766
15768.5
15770.8
15772.9
15774.9
15776.7
15778.5
15780.1
15781.5
15782.9
15784.2
15785.4
15786.5
15787.5
15788.4
15789.3
15790.1
15790.8
15791.5
15792.1
15792.6
15793.1
15793.6
15793.9
15794.3
15794.6
15794.9
15795.1
15795.3
15795.4
15795.6
15795.6
15795.7
15795.7
15795.8
13983.5
13984
13984.9
13986.5
13988.5
13991.1
13994.1
13997.6
14001.7
14006.2
14011.3
14016.8
14022.8
14029.4
14036.4
14043.9
14051.9
14060.4
14069.3
14078.7
14088.6
14099
14109.8
14121.1
14132.9
14145.1
14157.7
14170.7
14184.2
14198.1
14212.3
14227
14242
14257.4
14273.2
14289.2
14305.6
14322.3
14339.3
14356.6
14374.1
14391.8
14409.8
14427.9
14446.2
14464.7
14483.3
14502.1
14520.9
14539.8
14558.8
14577.8
14596.8
14615.9
14634.9
14653.9
14672.8
14691.6
14710.4
14729
14747.5
14765.9
14784.1
14802.1
14820
14837.6
14855
14872.2
14889.2
14905.8
14922.3
14938.4
14954.2
14969.8
14985
15000
15014.6
15028.9
15042.8
15056.4
15069.6
15082.5
15095.1
15107.3
15119.1
15130.5
15141.6
15152.4
15162.8
15172.8
15182.4
15191.7
15200.6
15209.2
15217.5
15225.3
15232.9
15240.1
15246.9
15253.5
15259.7
15265.6
15271.2
15276.5
15281.5
15286.2
15290.7
15294.9
15298.8
15302.5
15305.9
15309.1
15312.1
15314.9
15317.5
15319.9
15322.2
15324.3
15326.2
15328
15329.6
15331.1
15332.5
15333.8
15335
15336
15337
15338
15338.8
15339.6
15340.2
15340.9
15341.5
15342
15342.4
15342.8
15343.2
15343.5
15343.8
15344.1
15344.3
15344.4
15344.6
15344.7
15344.8
15344.9
15344.9
15344.9
15345
15345
13514.7
13515.2
13516.2
13517.7
13519.8
13522.4
13525.5
13529.1
13533.3
13537.9
13543
13548.7
13554.9
13561.5
13568.7
13576.4
13584.5
13593.2
13602.3
13612
13622.1
13632.7
13643.8
13655.4
13667.4
13679.9
13692.8
13706.2
13720
13734.2
13748.9
13763.9
13779.3
13795.2
13811.3
13827.8
13844.7
13861.8
13879.3
13897
13915
13933.2
13951.7
13970.3
13989.2
14008.1
14027.3
14046.5
14065.9
14085.3
14104.8
14124.3
14143.8
14163.4
14182.9
14202.3
14221.7
14241
14260.3
14279.3
14298.3
14317.1
14335.7
14354.2
14372.4
14390.4
14408.2
14425.8
14443.1
14460.1
14476.8
14493.2
14509.4
14525.2
14540.7
14555.9
14570.7
14585.2
14599.3
14613.1
14626.5
14639.6
14652.3
14664.6
14676.5
14688
14699.2
14710
14720.4
14730.5
14740.1
14749.4
14758.3
14766.9
14775.1
14782.9
14790.4
14797.5
14804.2
14810.7
14816.8
14822.5
14828
14833.1
14838
14842.5
14846.8
14850.8
14854.5
14858
14861.2
14864.2
14867
14869.5
14871.9
14874.1
14876.1
14877.9
14879.6
14881.2
14882.6
14883.9
14885
14886.1
14887
14887.9
14888.7
14889.4
14890.1
14890.6
14891.2
14891.6
14892
14892.4
14892.7
14893
14893.2
14893.4
14893.5
14893.7
14893.8
14893.9
14893.9
14893.9
14894
14894
14893.9
14893.9
14893.9
14894
13044.8
13045.2
13046.2
13047.8
13050
13052.6
13055.8
13059.5
13063.7
13068.4
13073.7
13079.5
13085.8
13092.6
13099.9
13107.7
13116.1
13124.9
13134.3
13144.2
13154.5
13165.4
13176.7
13188.6
13200.9
13213.7
13227
13240.7
13254.9
13269.5
13284.5
13300
13315.8
13332.1
13348.7
13365.7
13383
13400.6
13418.6
13436.8
13455.3
13474.1
13493.1
13512.3
13531.7
13551.2
13570.9
13590.7
13610.6
13630.5
13650.6
13670.6
13690.7
13710.8
13730.8
13750.8
13770.7
13790.5
13810.2
13829.8
13849.2
13868.5
13887.6
13906.5
13925.1
13943.6
13961.7
13979.7
13997.3
14014.7
14031.8
14048.5
14065
14081.1
14096.9
14112.3
14127.4
14142.1
14156.4
14170.4
14184
14197.2
14210
14222.4
14234.5
14246.1
14257.4
14268.2
14278.7
14288.7
14298.4
14307.7
14316.6
14325.1
14333.2
14341
14348.4
14355.4
14362.1
14368.4
14374.3
14380
14385.3
14390.2
14394.9
14399.2
14403.3
14407.1
14410.6
14413.8
14416.8
14419.6
14422.1
14424.4
14426.5
14428.5
14430.2
14431.8
14433.2
14434.5
14435.6
14436.7
14437.6
14438.4
14439.1
14439.8
14440.4
14440.8
14441.3
14441.7
14442
14442.3
14442.5
14442.7
14442.8
14442.9
14443
14443.1
14443.1
14443.1
14443.1
14443
14443
14442.9
14442.9
14442.8
14442.7
14442.7
14442.7
14442.7
12573.7
12574.1
12575.2
12576.8
12578.9
12581.7
12584.9
12588.7
12593
12597.8
12603.2
12609.1
12615.5
12622.5
12630
12638
12646.5
12655.6
12665.1
12675.2
12685.8
12697
12708.6
12720.7
12733.4
12746.5
12760.1
12774.2
12788.7
12803.8
12819.2
12835.1
12851.4
12868.1
12885.3
12902.7
12920.6
12938.7
12957.2
12976
12995.1
13014.4
13034
13053.7
13073.7
13093.8
13114.1
13134.5
13155
13175.5
13196.2
13216.8
13237.5
13258.1
13278.7
13299.2
13319.7
13340.1
13360.3
13380.4
13400.3
13420.1
13439.6
13459
13478.1
13497
13515.6
13533.9
13552
13569.7
13587.2
13604.3
13621
13637.5
13653.5
13669.2
13684.6
13699.5
13714.1
13728.2
13742
13755.4
13768.3
13780.9
13793
13804.8
13816.1
13827
13837.5
13847.6
13857.3
13866.6
13875.4
13883.9
13892
13899.7
13907
13913.9
13920.4
13926.6
13932.4
13937.9
13943
13947.8
13952.3
13956.4
13960.2
13963.8
13967.1
13970
13972.8
13975.3
13977.5
13979.6
13981.4
13983
13984.5
13985.8
13986.9
13987.9
13988.8
13989.5
13990.2
13990.7
13991.2
13991.6
13991.9
13992.2
13992.4
13992.6
13992.7
13992.7
13992.8
13992.8
13992.7
13992.7
13992.6
13992.5
13992.4
13992.2
13992.1
13991.9
13991.8
13991.6
13991.5
13991.3
13991.2
13991.1
13991
13991.1
12101.4
12101.8
12102.9
12104.5
12106.7
12109.5
12112.8
12116.7
12121.1
12126
12131.5
12137.5
12144.1
12151.2
12158.8
12167
12175.7
12185
12194.8
12205.1
12216
12227.4
12239.3
12251.7
12264.7
12278.2
12292.2
12306.6
12321.6
12337
12352.9
12369.3
12386.1
12403.3
12420.9
12439
12457.3
12476.1
12495.2
12514.5
12534.2
12554.1
12574.3
12594.7
12615.3
12636
12656.9
12678
12699.1
12720.3
12741.5
12762.8
12784.1
12805.3
12826.5
12847.7
12868.7
12889.7
12910.5
12931.1
12951.6
12971.9
12992
13011.8
13031.4
13050.7
13069.8
13088.6
13107.1
13125.2
13143
13160.5
13177.6
13194.3
13210.7
13226.7
13242.3
13257.5
13272.3
13286.7
13300.6
13314.2
13327.3
13340
13352.2
13364.1
13375.5
13386.4
13397
13407.1
13416.8
13426
13434.9
13443.3
13451.3
13458.9
13466.1
13472.9
13479.4
13485.4
13491
13496.3
13501.3
13505.8
13510.1
13514
13517.6
13520.9
13523.9
13526.6
13529.1
13531.2
13533.2
13534.9
13536.5
13537.8
13538.9
13539.9
13540.7
13541.4
13542
13542.4
13542.8
13543.1
13543.2
13543.4
13543.4
13543.4
13543.4
13543.3
13543.2
13543
13542.9
13542.7
13542.4
13542.2
13541.9
13541.7
13541.4
13541.1
13540.8
13540.5
13540.2
13539.9
13539.7
13539.4
13539.2
13539.1
13539
13539
11627.8
11628.3
11629.3
11631
11633.3
11636.1
11639.5
11643.5
11647.9
11653
11658.6
11664.7
11671.4
11678.7
11686.5
11694.8
11703.7
11713.2
11723.2
11733.8
11744.9
11756.6
11768.8
11781.6
11794.9
11808.7
11823.1
11838
11853.3
11869.2
11885.6
11902.5
11919.8
11937.5
11955.7
11974.3
11993.3
12012.6
12032.3
12052.3
12072.6
12093.2
12114
12135.1
12156.4
12177.8
12199.4
12221.1
12242.9
12264.8
12286.7
12308.6
12330.6
12352.5
12374.3
12396.1
12417.8
12439.3
12460.7
12482
12503
12523.9
12544.5
12564.9
12585
12604.8
12624.4
12643.6
12662.5
12681.1
12699.3
12717.2
12734.7
12751.7
12768.4
12784.7
12800.6
12816.1
12831.1
12845.7
12859.9
12873.6
12886.9
12899.7
12912.1
12924
12935.5
12946.5
12957.1
12967.2
12976.9
12986.2
12995
13003.4
13011.3
13018.8
13025.9
13032.6
13038.9
13044.7
13050.2
13055.3
13060
13064.4
13068.4
13072.1
13075.4
13078.4
13081.1
13083.5
13085.6
13087.5
13089.1
13090.5
13091.7
13092.7
13093.5
13094.1
13094.6
13095
13095.2
13095.3
13095.3
13095.3
13095.2
13095
13094.7
13094.5
13094.2
13093.8
13093.5
13093.1
13092.7
13092.3
13091.8
13091.4
13090.9
13090.5
13090
13089.5
13089.1
13088.6
13088.2
13087.8
13087.4
13087.1
13086.8
13086.6
13086.5
13086.5
11153
11153.5
11154.5
11156.2
11158.6
11161.5
11164.9
11168.9
11173.5
11178.7
11184.4
11190.6
11197.5
11204.9
11212.8
11221.4
11230.5
11240.1
11250.4
11261.2
11272.6
11284.5
11297.1
11310.1
11323.8
11338
11352.8
11368.1
11383.9
11400.3
11417.2
11434.5
11452.4
11470.7
11489.5
11508.7
11528.3
11548.3
11568.6
11589.3
11610.3
11631.6
11653.1
11674.9
11696.9
11719.1
11741.4
11763.8
11786.3
11808.9
11831.6
11854.2
11876.9
11899.5
11922
11944.5
11966.8
11989.1
12011.1
12033
12054.7
12076.1
12097.3
12118.3
12138.9
12159.3
12179.4
12199.1
12218.5
12237.5
12256.1
12274.4
12292.2
12309.7
12326.7
12343.3
12359.5
12375.3
12390.5
12405.4
12419.7
12433.7
12447.1
12460.1
12472.6
12484.6
12496.2
12507.3
12517.9
12528
12537.7
12547
12555.7
12564
12571.9
12579.3
12586.3
12592.8
12598.9
12604.6
12609.9
12614.8
12619.3
12623.4
12627.2
12630.6
12633.6
12636.3
12638.7
12640.8
12642.6
12644.1
12645.3
12646.4
12647.2
12647.8
12648.2
12648.4
12648.5
12648.5
12648.3
12648.1
12647.8
12647.4
12646.9
12646.4
12645.9
12645.3
12644.7
12644.1
12643.5
12642.8
12642.2
12641.5
12640.9
12640.2