/*--------------------------------*- C++ -*----------------------------------*\
| =========                 |                                                 |
| \\      /  F ield         | OpenFOAM: The Open Source CFD Toolbox           |
|  \\    /   O peration     | Version:  v2006                                 |
|   \\  /    A nd           | Website:  www.openfoam.com                      |
|    \\/     M anipulation  |                                                 |
\*---------------------------------------------------------------------------*/
FoamFile
{
    version     2.0;
    format      ascii;
    class       volScalarField;
    location    "0";
    object      f;
}
// * * * * * * * * * * * * * * * * * * * * * * * * * * * * * * * * * * * * * //

dimensions      [0 0 0 0 0 0 0];


internalField   nonuniform List<scalar> 
2500
(
5.82182e-34
4.14162e-28
-5.79212e-24
7.58796e-22
2.05806e-19
-2.15863e-18
-3.75238e-17
7.71603e-16
-3.44873e-15
1.81944e-14
1.08385e-13
-1.07887e-11
6.11818e-10
-1.6303e-08
2.38884e-07
-8.45104e-07
-4.46474e-06
0.000110638
-0.000224677
-0.00283305
0.00786012
0.0841406
0.21728
0.311849
0.277763
0.15566
0.0435121
0.000353814
-0.00155788
-0.000760582
-5.71031e-05
4.3932e-05
1.53263e-05
-1.40619e-06
-1.61859e-06
-3.41155e-07
1.49868e-08
1.15144e-08
2.57194e-09
3.2698e-10
7.30222e-11
-1.94339e-12
-2.98067e-12
-7.35385e-13
-4.40108e-15
1.67657e-15
2.39438e-16
-8.48324e-18
-3.59663e-17
-5.83017e-18
3.85263e-32
1.68491e-26
-9.35973e-23
8.73926e-22
1.81511e-18
-7.75562e-18
-1.95591e-16
7.06903e-15
-2.00927e-13
4.42192e-12
-5.54115e-11
1.0786e-10
9.98786e-10
-3.91387e-08
8.99834e-07
-9.04059e-06
3.33391e-06
0.000257616
-0.00159044
-0.00420023
0.0291298
0.137218
0.258197
0.284989
0.220434
0.109414
0.0275567
-6.83484e-05
-0.0010144
-0.000333232
3.86498e-05
3.77472e-05
7.07009e-06
-1.6279e-06
-8.16554e-07
-9.65386e-08
-5.89811e-09
-4.03917e-09
-5.6135e-10
1.89644e-10
6.65574e-11
2.73205e-12
-5.74895e-13
-1.61984e-13
-1.14737e-15
6.05413e-16
2.91153e-17
-2.7374e-17
-2.46924e-17
-4.07417e-18
1.51566e-30
5.38349e-25
-1.16318e-21
-7.13106e-20
1.23902e-17
-1.5756e-17
-7.43194e-16
3.10754e-14
-9.03096e-13
2.29405e-11
-4.57253e-10
6.08641e-09
-3.45702e-08
-1.71625e-08
1.58938e-06
-2.96483e-05
0.00012223
0.000380529
-0.00447352
-0.00505003
0.0632264
0.229408
0.39871
0.438926
0.332003
0.16092
0.0388508
-0.000768685
-0.00164427
-0.000490075
8.22315e-05
7.34682e-05
1.15684e-05
-2.41652e-06
-1.36698e-06
-1.98399e-07
-4.75346e-09
-6.81133e-10
4.15011e-10
2.75738e-10
8.98491e-11
1.75331e-12
-1.67659e-12
-3.76967e-13
1.86264e-15
1.42569e-15
1.11047e-16
-1.9655e-17
-2.9372e-17
-5.77828e-18
2.29709e-29
1.59688e-23
-1.32503e-20
-1.28829e-18
7.75937e-17
-2.02003e-17
-1.48478e-15
5.26737e-14
-1.50566e-12
4.31825e-11
-1.37392e-09
2.80778e-08
-3.39845e-07
1.94459e-06
6.21969e-07
-6.3779e-05
0.000470914
0.000280512
-0.00966959
-0.00211434
0.115316
0.344969
0.536666
0.541838
0.37764
0.168322
0.0353661
-0.0020084
-0.00186418
-0.000298919
0.000196254
0.000100709
9.24996e-06
-3.09132e-06
-1.35151e-06
-1.46144e-07
-1.69427e-08
-5.72764e-09
-3.43389e-10
2.60943e-10
9.27317e-11
1.78217e-12
-1.53833e-12
-2.47364e-13
1.01347e-14
2.44162e-15
2.05463e-16
-6.9045e-18
-3.51217e-17
-8.16192e-18
-4.36417e-27
4.47876e-22
-1.32996e-19
-1.61421e-17
6.28443e-16
-1.07982e-14
2.6218e-13
-4.87622e-12
6.03078e-11
-3.369e-10
-2.05095e-09
6.5373e-08
-1.1017e-06
9.286e-06
-2.89645e-05
-8.72211e-05
0.00117732
-0.00148948
-0.0175308
0.00970912
0.185383
0.477148
0.674792
0.638648
0.416207
0.171203
0.0282187
-0.00345506
-0.00208395
-1.39945e-05
0.000325656
0.000127197
5.7986e-06
-3.49356e-06
-1.33654e-06
-1.21963e-07
-2.44276e-08
-7.83705e-09
-3.01332e-10
2.44306e-10
7.66941e-11
-1.52898e-12
-1.85368e-12
-1.44601e-13
2.31232e-14
3.9689e-15
3.20444e-16
7.5805e-18
-4.37611e-17
-1.16172e-17
-7.52321e-25
1.19739e-20
-1.06866e-18
-1.626e-16
6.66337e-15
-1.63754e-13
3.19128e-12
-5.13769e-11
6.64188e-10
-6.23337e-09
3.16095e-08
7.17045e-08
-2.05455e-06
2.38683e-05
-0.000120025
-3.61216e-06
0.00228153
-0.00574179
-0.0273767
0.0287592
0.269707
0.611648
0.790199
0.698956
0.420977
0.150695
0.0145223
-0.00465549
-0.00194041
0.000452763
0.000484232
0.000137364
-1.86292e-07
-3.71363e-06
-1.00567e-06
-6.84512e-08
-3.26351e-08
-1.17506e-08
-6.47225e-10
2.02231e-10
5.24685e-11
-4.39054e-12
-1.88211e-12
3.6851e-14
4.35962e-14
5.4126e-15
4.3799e-16
1.6182e-17
-5.81661e-17
-1.67148e-17
-8.73793e-23
3.06158e-19
-6.27363e-18
-8.09642e-16
2.60207e-14
-5.50282e-13
9.77749e-12
-1.5127e-10
2.02652e-09
-2.27491e-08
1.88735e-07
-8.22802e-07
-1.83188e-06
4.00332e-05
-0.000303473
0.000582905
0.00350863
-0.0128693
-0.03756
0.0543457
0.359614
0.729935
0.867652
0.713349
0.38822
0.111967
0.000579038
-0.00538048
-0.00104177
0.00100233
0.000639612
0.000129043
-5.0752e-06
-3.62706e-06
-5.24346e-07
-2.98696e-08
-3.92448e-08
-1.48792e-08
-7.51146e-10
1.62313e-10
2.85709e-11
-6.02955e-12
-1.44182e-12
2.341e-13
7.33752e-14
6.09045e-15
5.60204e-16
8.43836e-18
-8.20594e-17
-2.41639e-17
-8.81131e-21
7.56152e-18
-5.13542e-17
-1.52691e-15
3.91259e-14
-7.26679e-13
1.25399e-11
-2.03248e-10
2.87314e-09
-3.85516e-08
5.14551e-07
-4.10254e-06
1.42223e-05
3.97663e-05
-0.000570982
0.00181396
0.00427219
-0.0230815
-0.046373
0.085969
0.443677
0.813697
0.89349
0.674817
0.315814
0.0649421
-0.0092529
-0.00584001
0.0003955
0.00156233
0.000731461
9.38738e-05
-6.86201e-06
-2.50979e-06
3.01087e-08
-3.79765e-09
-4.54046e-08
-1.67259e-08
-7.16536e-10
1.40471e-10
1.35038e-11
-5.55905e-12
-1.86578e-13
4.62957e-13
9.41558e-14
6.12818e-15
6.76415e-16
-2.93919e-17
-1.19457e-16
-3.46777e-17
-7.90988e-19
2.06001e-16
-7.44746e-15
1.71634e-13
-3.15307e-12
4.64333e-11
-5.41e-10
4.80631e-09
-2.73622e-08
3.38317e-08
7.54779e-07
-1.03869e-05
6.26732e-05
-9.10027e-05
-0.000816821
0.00384449
0.0040148
-0.0356773
-0.0522896
0.120246
0.509794
0.849704
0.861318
0.576471
0.223108
0.0207202
-0.013181
-0.00511149
0.00199197
0.00200412
0.00070456
4.46876e-05
-4.75886e-06
-2.8984e-07
5.63423e-07
2.33825e-08
-5.31753e-08
-1.68104e-08
-2.70108e-10
1.48321e-10
4.87968e-12
-3.42556e-12
1.24634e-12
6.78246e-13
8.62523e-14
5.83e-15
7.12441e-16
-1.14868e-16
-1.73674e-16
-4.87295e-17
-4.02374e-17
2.40195e-15
-5.96706e-14
1.1266e-12
-1.84793e-11
2.62414e-10
-3.05958e-09
2.93652e-08
-2.08494e-07
9.47647e-07
-9.34178e-07
-1.59082e-05
0.000149628
-0.000436378
-0.000854019
0.00658698
0.00134532
-0.0490313
-0.0543824
0.151697
0.548531
0.830351
0.762949
0.441769
0.127857
-0.0112198
-0.013458
-0.00144927
0.00346383
0.00225278
0.000546409
2.41972e-06
-2.22974e-06
2.11782e-06
9.8336e-07
3.87025e-09
-5.98834e-08
-1.3797e-08
3.72162e-10
1.89468e-10
-3.02601e-12
-1.14659e-12
2.30154e-12
7.84605e-13
5.05705e-14
5.33442e-15
5.90146e-16
-2.6536e-16
-2.45777e-16
-6.62223e-17
-2.56983e-16
6.51527e-15
-1.26422e-13
2.15441e-12
-3.43859e-11
5.04343e-10
-6.58836e-09
7.19091e-08
-5.80595e-07
3.42514e-06
-1.16815e-05
-8.40391e-06
0.000251668
-0.00101856
-0.000248964
0.00964278
-0.00275031
-0.0608553
-0.0532773
0.175448
0.556037
0.746353
0.613815
0.294534
0.0459946
-0.0249348
-0.0127988
0.00252876
0.00441451
0.00215303
0.000320939
-1.51787e-05
6.6716e-07
4.1824e-06
1.16249e-06
-8.1914e-08
-6.51792e-08
-7.80063e-09
9.49551e-10
2.10829e-10
-1.47865e-11
-7.72854e-14
2.62478e-12
5.80915e-13
-1.17286e-15
2.65126e-15
1.92073e-16
-4.91162e-16
-3.32393e-16
-8.61617e-17
1.42357e-15
-5.81377e-14
1.32794e-12
-1.85403e-11
1.66542e-10
-7.70149e-10
-2.77473e-09
8.61583e-08
-8.93429e-07
7.43178e-06
-3.69825e-05
6.66096e-05
0.000297586
-0.00178253
0.001033
0.0124276
-0.00824802
-0.0704433
-0.0494324
0.189073
0.526709
0.619822
0.437238
0.157213
-0.0114091
-0.0261894
-0.00696793
0.00534758
0.00457023
0.00152464
7.99022e-05
-9.96393e-06
7.137e-06
5.62008e-06
8.96411e-07
-1.53501e-07
-6.4727e-08
-9.59538e-10
1.23607e-09
9.68289e-11
-3.48123e-11
-5.24945e-13
1.84418e-12
7.88776e-14
-5.59864e-14
-3.11764e-15
-7.87233e-16
-7.89426e-16
-4.22899e-16
-1.065e-16
1.73145e-13
-1.63162e-12
2.1301e-11
-2.33544e-10
2.19278e-09
-1.70191e-08
9.7958e-08
-3.55032e-07
-1.88404e-07
1.05588e-05
-7.79424e-05
0.000225953
0.000151496
-0.00254903
0.00292018
0.0144365
-0.0145906
-0.077468
-0.0432493
0.191886
0.452538
0.461226
0.267613
0.0485879
-0.039134
-0.0233474
0.000797171
0.00666719
0.00394217
0.000760642
-6.70221e-05
-6.74557e-06
1.41544e-05
6.26269e-06
2.95335e-07
-1.74108e-07
-3.75837e-08
5.13726e-09
1.52777e-09
-1.36737e-10
-6.18408e-11
-1.01137e-12
2.61486e-13
-3.84213e-13
-9.75122e-14
-5.36731e-15
-2.01571e-15
-1.10139e-15
-4.99329e-16
-1.24418e-16
1.14964e-12
-6.40483e-12
6.98203e-11
-6.94104e-10
6.48205e-09
-5.51011e-08
3.71565e-07
-1.94457e-06
5.69881e-06
5.72249e-06
-0.000119328
0.000471002
-0.000288004
-0.00310347
0.00539949
0.0153133
-0.020784
-0.0810051
-0.035829
0.17852
0.344143
0.302062
0.123793
-0.022741
-0.0431786
-0.0163856
0.00516318
0.00613487
0.00225287
5.73991e-05
-8.82658e-05
4.23871e-06
1.80107e-05
5.03789e-06
-2.29891e-07
-1.66157e-07
1.02624e-09
8.8751e-09
1.16545e-09
-3.32648e-10
-8.04967e-11
-7.42205e-14
-7.16677e-13
-5.52383e-13
-9.54884e-14
-5.01499e-15
-2.84721e-15
-1.30291e-15
-5.43058e-16
-1.37174e-16
2.67116e-12
-9.8772e-12
9.62741e-11
-8.11631e-10
7.84379e-09
-8.14988e-08
6.78932e-07
-4.5847e-06
1.83747e-05
-2.74506e-05
-0.000129308
0.000738998
-0.000939434
-0.00325404
0.00807105
0.0149683
-0.0261868
-0.0812517
-0.0278376
0.142375
0.227374
0.159755
0.0177202
-0.0552669
-0.0374429
-0.00549086
0.00649978
0.00405381
0.000481003
-0.000350282
-7.71001e-05
3.29091e-05
1.94623e-05
2.29644e-06
-4.84681e-07
-1.22897e-07
2.98109e-08
1.02794e-08
-5.87791e-10
-4.60608e-10
-4.48081e-11
5.54951e-12
-7.01547e-14
-2.93557e-13
-2.50602e-14
-5.11128e-15
-3.09251e-15
-1.32334e-15
-5.44187e-16
-1.43009e-16
-1.52984e-11
1.85323e-10
-1.96388e-09
1.43561e-08
-6.92031e-08
1.58907e-07
5.73945e-07
-6.65377e-06
3.54384e-05
-9.01204e-05
-4.37002e-05
0.000925068
-0.00174856
-0.0029643
0.0103579
0.0139095
-0.0302656
-0.0766536
-0.0219401
0.0944584
0.123473
0.0455814
-0.0441562
-0.0565212
-0.0252732
0.00224673
0.00550245
0.00154298
-0.000662137
-0.00039253
-2.44614e-05
4.36339e-05
1.61089e-05
-1.41836e-07
-4.36548e-07
2.46105e-08
4.79656e-08
7.57665e-09
-1.69348e-09
-4.84942e-10
3.69754e-11
1.68265e-11
1.89354e-12
2.54951e-13
3.04285e-14
-5.12594e-15
-2.9061e-15
-1.16484e-15
-5.03904e-16
-1.41612e-16
-3.61181e-10
1.59732e-09
-1.22772e-08
7.42703e-08
-3.54312e-07
1.2427e-06
-2.32452e-06
-4.73775e-06
4.90557e-05
-0.000177562
0.000145913
0.000951128
-0.0025642
-0.00228268
0.0120347
0.0126391
-0.0323277
-0.067034
-0.0209716
0.0457541
0.0375023
-0.0244196
-0.0629609
-0.042905
-0.00892413
0.00546368
0.00277542
-0.000832974
-0.00109246
-0.000299902
5.38166e-05
3.9016e-05
4.32372e-06
-1.80884e-06
-3.41131e-07
1.39689e-07
5.12668e-08
-1.9228e-09
-2.08281e-09
-1.31872e-10
1.08886e-10
2.86833e-11
3.1528e-12
5.52276e-13
1.70802e-14
-6.54692e-15
-2.04394e-15
-8.39947e-16
-4.32208e-16
-1.34162e-16
-1.64966e-09
4.6601e-09
-3.15521e-08
1.76215e-07
-8.36202e-07
3.24836e-06
-9.06575e-06
1.06435e-05
4.9628e-05
-0.00026018
0.000413876
0.000745998
-0.00318537
-0.00140867
0.0132212
0.0108729
-0.0318284
-0.0540197
-0.0231346
0.00329727
-0.0153271
-0.0524028
-0.0526696
-0.0225061
0.0027448
0.00486721
-1.90694e-06
-0.0020016
-0.00104376
-0.000104208
7.02963e-05
2.20921e-05
-4.5962e-06
-2.09102e-06
5.71371e-08
1.70522e-07
2.58622e-08
-7.58659e-09
-2.02488e-09
3.78482e-10
1.58645e-10
2.25526e-11
2.43408e-12
3.82029e-13
-2.52565e-14
-7.1343e-15
-3.9091e-17
-4.3026e-16
-3.50003e-16
-1.233e-16
-3.39181e-09
6.67112e-09
-4.24981e-08
2.33433e-07
-1.19328e-06
5.30299e-06
-1.8124e-05
3.80754e-05
3.74336e-06
-0.000297231
0.000689172
0.000409225
-0.0036723
-0.000351531
0.0138049
0.00892008
-0.0260329
-0.0389306
-0.0234219
-0.0188221
-0.0371498
-0.0499926
-0.0296394
-0.00228294
0.00704658
0.0020103
-0.0024117
-0.00210502
-0.000618501
6.34602e-05
4.17574e-05
-6.51505e-06
-8.17533e-06
-1.40437e-06
4.78905e-07
1.74914e-07
-1.12234e-08
-8.1505e-09
5.95743e-11
6.65432e-10
1.48143e-10
-1.89962e-13
-3.43108e-13
-1.43405e-14
-2.70853e-14
4.30758e-15
3.37423e-15
-1.07348e-16
-2.88432e-16
-1.1262e-16
-9.37718e-10
-5.65576e-09
2.98297e-08
-3.90911e-08
-6.36618e-07
5.6427e-06
-2.48757e-05
7.03531e-05
-7.06862e-05
-0.000253819
0.00091692
-2.16811e-05
-0.00398707
0.000577585
0.0136301
0.00741691
-0.0169818
-0.0237307
-0.018861
-0.0230318
-0.0354366
-0.0279907
-0.00583155
0.00916018
0.00587998
-0.00106281
-0.00309845
-0.00156393
-0.000138001
9.3469e-05
7.68649e-06
-2.19006e-05
-7.97987e-06
4.50039e-07
5.62559e-07
7.19922e-08
-2.67265e-08
-5.04516e-09
2.18962e-09
7.3955e-10
-3.21754e-12
-2.32181e-11
-3.95396e-12
-1.94378e-13
5.3192e-14
4.02877e-14
7.18103e-15
-1.73326e-16
-2.7579e-16
-1.04785e-16
3.58182e-08
-6.58465e-08
3.30111e-07
-1.1221e-06
2.45183e-06
-2.49569e-07
-2.49897e-05
9.76814e-05
-0.000171955
-0.00013857
0.00108708
-0.000455761
-0.00418318
0.00119019
0.0119863
0.00710828
-0.00709388
-0.00942247
-0.0100086
-0.0165064
-0.0177981
-0.00458322
0.00986495
0.0103998
0.00224585
-0.0029969
-0.00234473
-0.000516326
0.000166558
4.21545e-05
-3.60886e-05
-2.20144e-05
-2.13828e-06
1.59174e-06
4.81671e-07
-6.70105e-08
-2.82222e-08
3.07884e-09
2.70095e-09
2.93847e-10
-1.3442e-10
-3.86154e-11
-3.78598e-12
2.64328e-14
1.82795e-13
7.3768e-14
7.67757e-15
-5.74672e-16
-3.00207e-16
-9.85808e-17
1.2105e-07
-1.53917e-07
7.60303e-07
-2.70669e-06
7.6001e-06
-1.40533e-05
-2.23988e-06
0.000107578
-0.000270325
1.07535e-05
0.00120393
-0.000815496
-0.00420358
0.0012515
0.00939291
0.00752343
0.00231177
0.00251382
0.000623801
-0.00345499
0.000346516
0.00980534
0.0133215
0.00636995
-0.00121278
-0.00275193
-0.000934422
0.000285931
0.000191972
-1.66351e-05
-4.97455e-05
-1.36882e-05
2.95216e-06
1.51476e-06
9.08185e-09
-1.11248e-07
-1.42259e-08
7.89426e-09
2.05843e-09
-4.44606e-10
-1.89318e-10
-2.67437e-11
-8.60128e-14
5.35146e-13
2.818e-13
7.28765e-14
2.21496e-15
-9.28924e-16
-3.16807e-16
-8.90859e-17
1.65022e-07
-1.82261e-07
9.11464e-07
-3.64222e-06
1.2401e-05
-3.08228e-05
3.33839e-05
8.26801e-05
-0.000350914
0.000163101
0.00126906
-0.00104466
-0.00386802
0.000422985
0.00617034
0.007544
0.00901525
0.0102881
0.00830275
0.00672493
0.00970303
0.0128774
0.00877877
0.00119399
-0.00235223
-0.00102639
0.000474358
0.00051917
8.38028e-05
-7.47443e-05
-3.51535e-05
1.72498e-06
3.96442e-06
5.90772e-07
-3.56167e-07
-1.08906e-07
1.42728e-08
6.95991e-09
-6.30567e-10
-7.43067e-10
-1.54555e-10
7.36471e-12
3.42575e-12
8.67634e-13
2.45627e-13
2.56104e-14
-6.1099e-15
-1.32816e-15
-2.80718e-16
-7.15811e-17
-1.89265e-07
2.73512e-08
-9.34026e-08
-2.17622e-06
1.38643e-05
-4.42689e-05
7.14488e-05
4.29955e-05
-0.000398623
0.000296231
0.00128119
-0.00105835
-0.00332218
-0.00113019
0.0027156
0.0068788
0.0117287
0.0133381
0.0108354
0.009277
0.00976936
0.0077681
0.00210728
-0.00181438
-0.00114325
0.000633128
0.00103025
0.000378596
-5.31345e-05
-6.94026e-05
-8.82144e-06
8.56771e-06
2.42227e-06
-6.90235e-07
-3.51125e-07
-6.93543e-09
2.53139e-08
2.8069e-09
-2.27181e-09
-6.89745e-10
3.19944e-11
2.6316e-11
5.03332e-12
6.20659e-13
5.46643e-14
-3.06766e-14
-9.87304e-15
-1.22351e-15
-1.77653e-16
-4.60482e-17
-1.22701e-06
6.16358e-07
-2.69339e-06
3.26921e-06
7.93424e-06
-5.13206e-05
0.000108475
-5.7368e-06
-0.000434707
0.000383733
0.0012494
-0.00071335
-0.00280503
-0.0026025
-4.75479e-05
0.00560674
0.0114378
0.0120173
0.00892905
0.00608524
0.00391654
0.000380513
-0.00239787
-0.0018458
0.00049462
0.00145625
0.000823962
7.58416e-05
-9.44406e-05
-2.26338e-05
1.61945e-05
6.91057e-06
-6.90942e-07
-1.0575e-06
-1.61706e-07
7.6534e-08
2.17012e-08
-4.1639e-09
-1.96119e-09
4.26168e-12
1.37713e-10
2.87056e-11
8.90587e-13
5.12635e-14
-8.8164e-14
-4.65717e-14
-9.24697e-15
-3.49534e-16
-2.8013e-17
-1.7844e-17
-1.85981e-06
1.75407e-06
-5.24785e-06
1.08697e-05
-4.27292e-06
-4.59652e-05
0.000136842
-4.77918e-05
-0.000458756
0.000393228
0.00119402
-8.82928e-05
-0.00236845
-0.00358048
-0.00153934
0.00426574
0.00874063
0.00778747
0.00392989
0.000351203
-0.00243664
-0.00423961
-0.00353085
-0.000732006
0.00121227
0.00110106
0.00029172
-8.77899e-05
-2.83195e-05
2.71363e-05
1.83231e-05
1.14865e-06
-2.47992e-06
-6.96069e-07
1.39242e-07
7.04085e-08
-8.79365e-10
-5.79331e-09
-5.79925e-10
5.10777e-10
1.40437e-10
-9.86693e-13
-3.10586e-12
-4.87987e-13
-1.11023e-13
-2.72234e-14
-9.44396e-16
6.11507e-16
1.028e-16
2.84859e-18
3.37453e-06
5.23268e-06
-5.4611e-06
1.88555e-05
-2.03387e-05
-3.48395e-05
0.000156831
-7.6552e-05
-0.000468697
0.00030139
0.00117763
0.000458879
-0.00199597
-0.00373168
-0.00161129
0.00354469
0.00563464
0.00332264
-0.000720192
-0.00388988
-0.0057208
-0.00554944
-0.00327562
-0.000454547
0.00056348
0.000230852
-9.45326e-05
-3.52281e-05
4.99758e-05
4.31918e-05
7.39055e-06
-4.6829e-06
-2.01207e-06
1.02099e-07
2.18794e-07
2.99661e-08
-1.57331e-08
-3.39491e-09
1.21693e-09
4.81765e-10
8.68261e-12
-2.37001e-11
-4.62794e-12
-3.29259e-13
-5.721e-14
7.93691e-15
6.94523e-15
1.2306e-15
1.44528e-16
6.68658e-18
1.53697e-05
9.61734e-06
-2.47661e-06
2.41082e-05
-3.59725e-05
-2.50904e-05
0.000172958
-8.43377e-05
-0.000469458
0.000159825
0.00117548
0.000680333
-0.00170795
-0.00286295
-0.000259752
0.00353902
0.00340608
0.000530735
-0.00268819
-0.00513946
-0.0063158
-0.00575647
-0.00368447
-0.00177772
-0.000878625
-0.000447949
-0.000109327
8.48188e-05
8.51151e-05
2.3455e-05
-6.75141e-06
-4.81296e-06
-3.70596e-07
5.37554e-07
1.3225e-07
-3.26613e-08
-1.27027e-08
1.21482e-09
1.25189e-09
9.20147e-11
-1.04295e-10
-2.58296e-11
-5.42354e-13
1.17613e-13
2.89401e-14
2.60429e-14
8.24212e-15
1.01359e-15
8.20661e-17
-5.62412e-18
2.31069e-05
6.85968e-06
-2.46538e-06
2.11904e-05
-5.21102e-05
-1.62537e-05
0.000185603
-7.55977e-05
-0.000469481
6.9832e-05
0.00107747
0.000462951
-0.00143682
-0.00102889
0.00196646
0.0036807
0.00247607
-0.000164986
-0.00255453
-0.00492678
-0.00690522
-0.00757246
-0.00640894
-0.00418115
-0.00200428
-0.00055793
7.02443e-05
0.000141058
5.65719e-05
-5.60419e-06
-1.00204e-05
-1.76223e-06
1.0714e-06
3.99416e-07
-3.89166e-08
-4.18972e-08
-3.57101e-09
3.29986e-09
5.0381e-10
-3.03022e-10
-1.02159e-10
-2.89005e-12
2.93023e-12
4.85644e-13
6.14797e-14
2.11657e-14
4.38171e-15
2.96649e-16
-2.32635e-17
-2.29359e-17
-6.96136e-06
-2.1455e-05
-1.74259e-05
1.00154e-05
-6.32833e-05
-2.61916e-06
0.00019292
-6.63001e-05
-0.000433344
7.50171e-05
0.00071815
-0.000164892
-0.000877901
0.00119642
0.00396599
0.00396981
0.00211681
0.00023585
-0.00203764
-0.00563137
-0.0108416
-0.0126632
-0.010552
-0.00623225
-0.00232475
-0.000278329
0.000174429
9.90976e-05
2.38749e-06
-1.65261e-05
-4.33553e-06
1.82397e-06
9.92064e-07
8.40932e-09
-1.19789e-07
-2.21069e-08
7.52605e-09
2.05986e-09
-5.11454e-10
-2.61606e-10
-1.26278e-11
1.65618e-11
3.33546e-12
3.42484e-14
2.13039e-14
6.42703e-15
-4.82433e-16
-3.04079e-16
-1.06359e-16
-3.20043e-17
-6.68542e-05
-6.49025e-05
-3.35762e-05
6.54034e-06
-5.62582e-05
2.06917e-05
0.000182337
-7.12268e-05
-0.000287701
0.000126294
5.55033e-05
-0.000797614
3.49647e-05
0.00332115
0.0048205
0.00374487
0.00211599
0.000612474
-0.00316777
-0.0119547
-0.0194565
-0.0200247
-0.0146654
-0.00724415
-0.00196693
7.56244e-06
0.000100282
1.45248e-05
-2.23561e-05
-7.69702e-06
2.76491e-06
2.19848e-06
2.01798e-07
-2.67756e-07
-7.42858e-08
1.39296e-08
7.28157e-09
-4.99498e-11
-6.31467e-10
-5.93484e-11
6.01388e-11
1.5535e-11
-3.35328e-13
-4.20596e-13
-5.58597e-14
-6.22579e-15
-1.74185e-15
-4.47369e-16
-1.07866e-16
-2.48428e-17
-8.18054e-05
-7.0712e-05
-4.47921e-06
4.74296e-05
-1.99147e-05
3.77209e-05
0.000131725
-6.83612e-05
-4.22472e-05
-2.96699e-05
-0.000709143
-0.00101217
0.00145776
0.00466526
0.00460121
0.00319305
0.00226804
-0.000365363
-0.0108768
-0.0246244
-0.0319905
-0.0287264
-0.0181138
-0.00744086
-0.00135108
4.88225e-05
5.25562e-06
-3.13156e-05
-1.29061e-05
3.5952e-06
4.22423e-06
6.34005e-07
-5.09842e-07
-1.87886e-07
2.10335e-08
2.36366e-08
2.80818e-09
-1.57909e-09
-2.64912e-10
1.38071e-10
4.50378e-11
-1.91741e-12
-2.90569e-12
-5.45334e-13
-2.35312e-14
-6.70349e-15
-1.36512e-15
-2.36446e-16
-4.15458e-17
-6.3525e-18
7.12382e-05
5.98059e-05
0.000109603
0.000115001
3.12195e-06
8.03772e-06
5.01996e-05
1.94416e-05
0.000137594
-0.000377553
-0.00132357
-0.000408274
0.00308612
0.00473749
0.00368409
0.00312232
0.00248237
-0.00694004
-0.0261311
-0.043808
-0.0478969
-0.0375829
-0.020827
-0.0072027
-0.000844405
-4.64011e-05
-3.96007e-05
-1.54724e-05
5.51818e-06
6.92026e-06
1.24149e-06
-9.55171e-07
-4.53268e-07
1.15584e-08
5.90247e-08
1.05351e-08
-3.79754e-09
-1.07245e-09
1.89745e-10
1.01751e-10
-4.21551e-12
-1.2137e-11
-2.63296e-12
5.69714e-14
2.47923e-14
8.44832e-17
-1.62929e-16
4.14081e-17
3.04312e-17
1.03911e-17
0.000208729
0.0001589
0.000162881
9.80786e-05
-6.03055e-05
-6.96354e-05
1.30767e-05
0.000157647
0.000128915
-0.000916696
-0.00140291
0.00106671
0.00421095
0.0040221
0.00310155
0.00432958
-0.000144087
-0.0205737
-0.050214
-0.0688619
-0.0656837
-0.0460717
-0.0227325
-0.00666551
-0.000530751
-3.02441e-05
-4.42885e-06
1.21775e-05
1.09232e-05
2.08259e-06
-1.6783e-06
-9.49964e-07
-3.21873e-08
1.23896e-07
2.76982e-08
-8.91415e-09
-3.92616e-09
-3.83729e-11
2.77007e-10
1.77221e-11
-3.13491e-11
-7.73652e-12
6.36999e-13
3.62158e-13
5.67365e-14
1.9421e-15
5.4493e-16
1.99834e-16
6.18189e-17
1.58483e-17
2.3451e-05
3.35668e-06
1.07102e-05
-6.23928e-05
-0.000149011
-9.72534e-05
9.3356e-05
0.000217311
-0.000351507
-0.00131343
-0.000100682
0.00293615
0.00409652
0.00304931
0.00440928
0.00605693
-0.00772387
-0.0443249
-0.0837572
-0.0974309
-0.0837706
-0.0528089
-0.0232095
-0.00564128
-0.000217206
2.42401e-05
3.19412e-05
1.94652e-05
3.80049e-06
-2.63812e-06
-1.6817e-06
-1.02701e-07
2.4316e-07
6.66404e-08
-1.66708e-08
-1.02717e-08
-6.95335e-10
8.43348e-10
1.31671e-10
-5.68599e-11
-1.4893e-11
3.34198e-12
1.90075e-12
3.20231e-13
-1.53814e-15
1.38344e-15
5.48402e-16
1.71504e-16
4.65258e-17
1.07443e-17
-0.000251332
-0.00021069
-0.000138297
-0.000124268
-5.26846e-05
5.14264e-05
0.000164385
-0.000190175
-0.00106084
-0.000760432
0.0020253
0.00391506
0.00245879
0.00266853
0.00797752
0.00676366
-0.0253934
-0.0814087
-0.125146
-0.127195
-0.0985824
-0.0561023
-0.0216771
-0.00402786
4.69907e-05
4.75722e-05
2.64902e-05
4.77737e-06
-4.07723e-06
-2.63795e-06
-1.402e-07
4.69127e-07
1.54995e-07
-2.49989e-08
-2.26619e-08
-2.19654e-09
2.21783e-09
5.32929e-10
-8.17156e-11
-3.05635e-11
7.40223e-12
5.91912e-12
1.01459e-12
-1.2212e-13
-2.63075e-14
-6.72407e-16
2.02107e-16
6.5328e-17
1.53851e-17
3.22501e-18
-9.88306e-05
-4.07674e-05
7.99704e-05
0.000182773
0.000229415
0.000121678
-0.000315475
-0.0010214
-0.00126192
0.00129494
0.00403502
0.00307813
0.000553291
0.00529784
0.0121711
-0.00321744
-0.0618968
-0.133845
-0.168466
-0.155378
-0.107217
-0.0551249
-0.0180362
-0.00208995
4.72878e-05
3.20143e-05
5.36156e-06
-5.83608e-06
-3.77072e-06
-1.50259e-07
7.98074e-07
2.87986e-07
-4.14278e-08
-4.76248e-08
-5.53819e-09
5.0119e-09
1.51192e-09
-1.52208e-10
-1.10894e-10
6.15801e-13
1.27135e-11
2.04852e-12
-7.58793e-13
-2.34132e-13
-2.34044e-14
2.64641e-16
3.57293e-18
-8.61595e-18
-2.25699e-18
3.45147e-19
0.000617312
0.000570848
0.000597153
0.00043125
6.06318e-05
-0.000795032
-0.00127054
-0.00138266
0.000754021
0.00410532
0.00421081
0.000912276
0.000104523
0.0106993
0.012707
-0.0369779
-0.127948
-0.200611
-0.213926
-0.173345
-0.107426
-0.0474851
-0.0125757
-0.000626651
2.01669e-05
1.91497e-06
-8.6561e-06
-5.01069e-06
6.78781e-08
1.28982e-06
4.62578e-07
-8.46748e-08
-9.73426e-08
-1.46368e-08
9.19345e-09
3.04578e-09
-4.09658e-10
-3.70401e-10
-3.48447e-11
2.50035e-11
3.44852e-12
-2.53509e-12
-9.21383e-13
-9.49696e-14
1.12221e-14
7.85213e-16
-1.01131e-17
-8.99662e-18
1.8231e-18
3.09123e-18
0.000688471
0.000502167
-1.03751e-05
-0.000850959
-0.00163819
-0.00191019
-0.00138044
0.000820302
0.00381872
0.00455291
0.00151639
6.50412e-05
0.00485725
0.0151354
-0.0262062
-0.122937
-0.233422
-0.279034
-0.252757
-0.178398
-0.0958071
-0.0363759
-0.0070882
7.2541e-06
9.34146e-06
-6.43461e-06
-3.55912e-06
1.05178e-06
1.93384e-06
6.45083e-07
-1.65749e-07
-1.72385e-07
-2.84504e-08
1.7031e-08
6.14815e-09
-8.27769e-10
-9.22159e-10
-1.22887e-10
5.71664e-11
1.03295e-11
-4.57932e-12
-1.99668e-12
-1.31911e-13
9.83958e-14
1.61295e-14
2.91555e-16
2.74268e-17
2.14577e-17
1.4298e-17
7.34676e-18
-0.0029603
-0.00295852
-0.00311598
-0.0029798
-0.00228289
-0.000492341
0.00204303
0.00419217
0.00476191
0.00125964
-5.01597e-05
0.00761584
0.0133427
-0.0211441
-0.140696
-0.289281
-0.380492
-0.364734
-0.278139
-0.167129
-0.0764878
-0.0237143
-0.0026086
-1.57823e-05
-8.77574e-06
-1.99067e-06
2.40841e-06
2.60054e-06
7.78372e-07
-2.88245e-07
-2.59067e-07
-3.552e-08
3.48064e-08
1.33947e-08
-1.16999e-09
-1.81291e-09
-2.30694e-10
1.58652e-10
4.24434e-11
-5.91105e-12
-3.5748e-12
3.90329e-14
4.30877e-13
9.92465e-14
4.25953e-15
-2.41735e-16
1.60335e-17
3.46045e-17
1.99582e-17
8.92223e-18
-0.00252431
-0.00221673
-0.00126346
0.000276843
0.00232989
0.00399989
0.00475519
0.00459796
0.00083544
-0.00221211
0.0126609
0.0284186
0.00714973
-0.168925
-0.398822
-0.560567
-0.557334
-0.444365
-0.283995
-0.141753
-0.0535407
-0.0124879
-0.000401597
4.07812e-05
1.53099e-05
5.50827e-06
2.86243e-06
5.88462e-07
-5.08711e-07
-3.53824e-07
-2.71261e-08
6.52828e-08
2.48211e-08
-2.06824e-09
-3.40972e-09
-4.06592e-10
3.4901e-10
1.0189e-10
-1.20866e-11
-8.55714e-12
6.54581e-14
1.1059e-12
2.5955e-13
-5.87152e-15
-5.60719e-15
-5.9387e-16
1.89603e-18
2.9036e-17
1.64423e-17
7.17619e-18
0.00407233
0.0044067
0.00485145
0.00514058
0.0050116
0.00411728
0.00319494
-0.000137616
-0.0058208
0.00912077
0.0525954
0.0468573
-0.188824
-0.553855
-0.846845
-0.911452
-0.755684
-0.493566
-0.257999
-0.105824
-0.0318727
-0.00447976
0.000191298
6.38433e-05
8.97466e-06
1.26832e-06
-5.6294e-07
-9.76977e-07
-4.76808e-07
9.21971e-09
1.07174e-07
3.60936e-08
-6.20794e-09
-6.61024e-09
-8.55841e-10
6.34452e-10
1.82885e-10
-3.30229e-11
-2.23522e-11
-8.34868e-13
2.26468e-12
4.46332e-13
-9.83557e-14
-4.1525e-14
-5.4597e-15
-7.90808e-17
2.20467e-17
1.80526e-17
9.25333e-18
4.05661e-18
0.0023799
0.00236471
0.00217423
0.00156216
0.000908577
-0.00072735
0.0011968
-0.0070501
-0.00704625
0.0594088
0.0958257
-0.17934
-0.727335
-1.25689
-1.47513
-1.30583
-0.903955
-0.499311
-0.214429
-0.0699203
-0.0146807
-0.0001711
5.22923e-05
1.35519e-05
1.06243e-06
-1.24971e-06
-1.24817e-06
-5.00193e-07
6.28724e-08
1.43315e-07
3.82123e-08
-1.57495e-08
-1.13506e-08
-1.26131e-09
1.19948e-09
3.24538e-10
-7.71601e-11
-4.92324e-11
-2.55124e-12
4.80616e-12
9.1733e-13
-2.76693e-13
-1.20001e-13
-1.80563e-14
4.52413e-16
1.26372e-16
3.42652e-17
9.99942e-18
3.63531e-18
1.53479e-18
0.000181986
0.000159688
-0.000113906
-1.0314e-05
-0.00116518
-0.00110211
0.00255477
-0.0146339
0.046483
0.129391
-0.187802
-0.947718
-1.82589
-2.30055
-2.18823
-1.6339
-0.961505
-0.442514
-0.155146
-0.0378372
-0.00313096
0.000404015
0.000143834
1.25661e-05
-3.02093e-06
-1.66218e-06
-3.38778e-07
1.99925e-07
1.74945e-07
2.93969e-08
-3.03452e-08
-1.65535e-08
-5.56373e-10
2.47961e-09
6.56255e-10
-1.34576e-10
-8.59622e-11
-2.65475e-12
9.59823e-12
1.55185e-12
-7.50546e-13
-2.84563e-13
-1.77156e-14
1.17902e-14
1.93977e-15
2.08992e-16
3.51037e-17
5.48726e-18
8.37218e-19
2.42036e-19
-0.000411044
-0.000176548
-0.000860154
0.00139988
-0.00547415
0.00959917
-0.000459041
0.0108885
0.135941
-0.361806
-1.416
-2.7145
-3.56536
-3.51445
-2.81155
-1.79166
-0.900947
-0.348831
-0.097612
-0.0144201
0.00122707
0.000325231
5.91745e-06
-2.46691e-06
-4.01813e-08
6.06844e-07
4.72118e-07
2.00632e-07
-8.21787e-09
-5.39139e-08
-2.16857e-08
2.15625e-09
4.56755e-09
1.11809e-09
-2.58612e-10
-1.45853e-10
-1.95046e-12
1.66898e-11
1.91656e-12
-1.84556e-12
-6.40616e-13
-2.33725e-16
4.25487e-14
9.2979e-15
7.2954e-16
9.74481e-17
1.70212e-17
1.7578e-18
-2.11824e-19
-1.68733e-19
-0.000911821
0.000470619
-0.00266907
0.00656513
-0.0161842
0.0538354
-0.00108727
0.092053
-1.00903
-2.73858
-4.49308
-5.70149
-5.60834
-4.64084
-3.14195
-1.71497
-0.73713
-0.238303
-0.0501012
-0.000589114
0.000198226
0.000117349
3.53734e-05
1.68285e-06
6.25073e-07
3.56932e-07
9.27135e-08
-7.08561e-08
-7.59172e-08
-2.35717e-08
5.82443e-09
6.18047e-09
1.17521e-09
-5.90054e-10
-2.51316e-10
5.9305e-12
2.92156e-11
3.0026e-12
-3.08855e-12
-8.97365e-13
1.41033e-13
1.11419e-13
1.97137e-14
-2.66945e-16
-9.86572e-17
-1.24218e-17
-2.03635e-18
-1.00163e-18
-5.05057e-19
-1.99146e-19
-0.00325884
0.00294761
-0.00960493
0.0249636
-0.035396
0.149765
-0.422442
-3.03665
-6.34466
-8.76724
-9.84596
-9.31561
-7.56796
-5.21794
-3.01113
-1.41428
-0.519745
-0.139415
-0.0177513
0.0007
0.000326335
-6.88565e-06
-1.85939e-05
-3.62659e-06
1.79632e-07
5.11162e-08
-9.60808e-08
-8.49321e-08
-2.4266e-08
7.12417e-09
5.99364e-09
4.56791e-10
-1.10458e-09
-3.80023e-10
3.44175e-11
4.89922e-11
5.80922e-12
-3.95327e-12
-6.19927e-13
5.51873e-13
2.5884e-13
3.36593e-14
-6.8986e-15
-1.43637e-15
-2.47703e-16
-4.69837e-17
-8.76385e-18
-1.8111e-18
-4.55545e-19
-1.32701e-19
-0.00938473
0.00847062
-0.0320399
0.0686879
-0.966369
-4.4048
-9.95885
-15.4083
-19.0146
-18.8744
-16.4623
-12.6218
-8.50427
-4.97681
-2.46583
-1.0009
-0.317429
-0.0713362
-0.00309322
-0.000617905
-0.000157919
-3.49063e-06
6.33896e-06
2.20107e-06
7.93181e-08
-1.59373e-07
-9.23631e-08
-1.33633e-08
1.15633e-08
5.43824e-09
-5.04921e-10
-1.38471e-09
-3.49502e-10
1.08392e-10
6.61553e-11
4.16903e-12
-6.88016e-12
-1.02743e-12
6.82651e-13
2.61211e-13
-1.08992e-14
-2.76173e-14
-5.33971e-15
-5.66617e-16
-1.16277e-16
-2.59597e-17
-5.42528e-18
-1.14024e-18
-2.57916e-19
-6.55254e-20
-0.616883
-2.57941
-7.17509
-14.6726
-23.2269
-31.5949
-38.3142
-40.8369
-37.8558
-30.7441
-22.0527
-14.1172
-8.08443
-4.08593
-1.77457
-0.637944
-0.179541
-0.0338455
-0.00083211
5.99979e-05
1.35535e-05
-3.1978e-06
-1.18808e-06
-1.51243e-07
1.6493e-08
2.48104e-08
2.0643e-08
9.3271e-09
5.28659e-10
-1.95895e-09
-1.04727e-09
3.38132e-12
2.3447e-10
8.93926e-11
-2.42844e-12
-1.00098e-11
-1.79337e-12
5.21921e-13
3.59781e-14
-1.32535e-13
-6.43984e-14
-1.01788e-14
-1.15609e-16
-4.63842e-17
-2.14109e-17
-6.67136e-18
-1.71797e-18
-4.07761e-19
-9.54667e-20
-2.3645e-20
-45.299
-56.3852
-69.885
-80.756
-86.3925
-87.224
-82.6449
-71.7674
-55.9812
-38.8687