/*--------------------------------*- C++ -*----------------------------------*\
| =========                 |                                                 |
| \\      /  F ield         | OpenFOAM: The Open Source CFD Toolbox           |
|  \\    /   O peration     | Version:  v2006                                 |
|   \\  /    A nd           | Website:  www.openfoam.com                      |
|    \\/     M anipulation  |                                                 |
\*---------------------------------------------------------------------------*/
FoamFile
{
    version     2.0;
    format      ascii;
    class       volScalarField;
    location    "4.75";
    object      r;
}
// * * * * * * * * * * * * * * * * * * * * * * * * * * * * * * * * * * * * * //

dimensions      [1 2 0 0 0 0 0];


internalField   nonuniform List<scalar> 
350
(
4.47005e-181
-7.76081e-178
1.10302e-174
-1.87041e-171
1.14739e-168
-3.67736e-165
-9.93877e-162
-1.35381e-158
-1.14125e-154
-1.63426e-151
-9.5705e-148
-1.97114e-144
-7.88119e-141
-1.99827e-137
-6.55768e-134
-1.80397e-130
-5.38001e-127
-1.50185e-123
-4.24854e-120
-1.16814e-116
-3.18044e-113
-8.5032e-110
-2.23443e-106
-5.77159e-103
-1.46106e-99
-3.62897e-96
-8.81599e-93
-2.09554e-89
-4.86044e-86
-1.09941e-82
-2.41913e-79
-5.17067e-76
-1.07073e-72
-2.14317e-69
-4.13354e-66
-7.6565e-63
-1.35649e-59
-2.2878e-56
-3.65228e-53
-5.48041e-50
-7.66395e-47
-9.87853e-44
-1.15724e-40
-1.20851e-37
-1.0955e-34
-8.27181e-32
-4.8689e-29
-1.95492e-26
-3.73238e-24
4.04625e-22
-1.5763e-21
5.80861e-22
-2.24859e-20
4.64129e-20
-4.45764e-19
8.61883e-19
-9.04579e-19
-9.61131e-18
1.02181e-16
-1.60009e-16
4.99392e-17
-1.06687e-16
1.58634e-16
4.24356e-17
-1.31499e-16
-9.42164e-17
-1.32562e-15
5.36285e-15
-5.06272e-15
1.53442e-14
-1.73986e-14
1.32477e-14
5.17065e-14
-1.75875e-13
3.17757e-13
-5.27776e-13
8.55929e-13
-1.09899e-12
9.50792e-13
4.49177e-13
-5.52203e-12
8.64533e-12
-1.00027e-11
4.62955e-12
2.79306e-12
4.70086e-12
-1.12916e-11
2.37201e-11
-1.29921e-11
-2.09974e-11
-6.395e-12
5.50774e-11
1.11146e-10
-3.03783e-10
1.21962e-10
-2.77085e-10
9.20778e-10
-6.87519e-10
5.71812e-10
6.23292e-11
1.85107e-10
1.43033e-09
-3.49673e-09
8.16212e-09
-3.02423e-08
3.30928e-08
-5.31914e-08
-2.87326e-08
2.37763e-09
8.03837e-09
-1.52401e-07
-1.38404e-07
-2.60323e-07
1.51231e-07
-6.60448e-07
-4.74316e-07
-1.97562e-06
-1.32144e-06
4.85998e-06
5.12236e-06
3.65866e-07
-1.23069e-05
-1.79955e-05
2.28212e-05
-3.30487e-05
-1.00634e-05
-9.11706e-05
-3.74158e-05
5.93381e-05
6.95545e-05
-0.000223895
-0.00101
-0.000332161
0.00315891
0.0131832
0.0356463
0.0789616
0.153955
0.273244
0.450075
0.696733
1.02276
1.43328
1.92777
2.49948
3.13566
3.81863
4.52737
5.23955
5.93353
6.59014
7.19407
7.73461
8.20579
8.60614
8.93794
9.20634
9.41835
9.58197
9.70539
9.79642
9.86209
9.90842
9.9404
9.96201
9.97628
9.98551
9.99134
9.99495
9.99713
9.99841
9.99917
9.99957
9.99995
9.99996
9.99991
9.99993
10.0002
10.001
10.0004
9.99697
9.98712
9.96492
9.92197
9.8474
9.72857
9.55215
9.30578
8.97986
8.5692
8.07432
7.50198
6.86498
6.1811
5.47146
4.75849
4.06392
3.40696
2.80294
2.26256
1.79173
1.39185
1.06057
0.792693
0.581141
0.41789
0.294735
0.203878
0.138304
0.0919963
0.0599906
0.0383395
0.0240038
0.0147143
0.00882453
0.00517232
0.00295848
0.001648
0.000890854
0.000466392
0.000233868
0.000114124
4.85689e-05
2.02259e-05
5.51582e-07
2.15169e-07
1.23273e-08
8.52035e-09
4.91549e-09
3.37529e-09
2.00757e-09
1.04169e-09
4.41602e-10
1.70554e-10
6.97476e-12
5.06183e-12
3.26208e-12
2.44279e-12
1.62992e-12
9.68699e-13
4.89175e-13
1.75096e-13
-5.55929e-15
-1.64786e-13
-1.66141e-13
-1.6215e-13
-1.52543e-13
-1.39001e-13
-1.23308e-13
-1.06617e-13
-8.96412e-14
-7.29314e-14
-5.70299e-14
-4.24897e-14
-2.98583e-14
-1.96008e-14
-1.20745e-14
-7.37818e-15
-5.09981e-15
-4.48884e-15
-4.97292e-15
-6.6171e-15
-9.06974e-15
-1.17226e-14
-1.39772e-14
-1.5465e-14
-1.6137e-14
-1.61261e-14
-1.52853e-14
-1.34549e-14
-1.06357e-14
-6.96823e-15
-2.696e-15
1.85048e-15
6.2717e-15
1.01376e-14
1.30993e-14
1.49932e-14
1.59211e-14
1.61081e-14
1.56214e-14
1.44657e-14
1.28606e-14
1.11363e-14
9.57754e-15
8.34666e-15
7.45869e-15
6.85567e-15
6.44794e-15
6.13974e-15
5.83342e-15
5.42399e-15
4.80125e-15
3.87091e-15
2.59305e-15
1.01279e-15
-7.41386e-16
-2.49498e-15
-4.08135e-15
-5.38547e-15
-6.35865e-15
-7.00746e-15
-7.37046e-15
-7.49824e-15
-7.43431e-15
-7.20703e-15
-6.85698e-15
-6.43342e-15
-5.97955e-15
-5.52971e-15
-5.10754e-15
-4.72199e-15
-4.37529e-15
-4.06121e-15
-3.76948e-15
-3.488e-15
-3.20381e-15
-2.90607e-15
-2.58702e-15
-2.24377e-15
-1.87934e-15
-1.50209e-15
-1.12497e-15
-7.62909e-16
-4.30592e-16
-1.40246e-16
9.97803e-17
2.85345e-16
4.1642e-16
4.96172e-16
5.30283e-16
5.25733e-16
4.89858e-16
4.30711e-16
3.56599e-16
2.75422e-16
1.93496e-16
1.16236e-16
4.70393e-17
-1.18911e-17
-5.95602e-17
-9.60388e-17
-1.21979e-16
-1.38458e-16
-1.46913e-16
-1.48699e-16
-1.45226e-16
-1.379e-16
-1.27627e-16
-1.15794e-16
)
;

boundaryField
{
    right
    {
        type            zeroGradient;
    }
    left
    {
        type            inletOutlet;
        inletValue      uniform 0;
        value           uniform 0;
    }
    top
    {
        type            zeroGradient;
    }
    bottom
    {
        type            zeroGradient;
    }
    empty
    {
        type            empty;
    }
}


// ************************************************************************* //
