/*--------------------------------*- C++ -*----------------------------------*\
| =========                 |                                                 |
| \\      /  F ield         | OpenFOAM: The Open Source CFD Toolbox           |
|  \\    /   O peration     | Version:  v2006                                 |
|   \\  /    A nd           | Website:  www.openfoam.com                      |
|    \\/     M anipulation  |                                                 |
\*---------------------------------------------------------------------------*/
FoamFile
{
    version     2.0;
    format      ascii;
    class       volVectorField;
    location    "13.9";
    object      U;
}
// * * * * * * * * * * * * * * * * * * * * * * * * * * * * * * * * * * * * * //

dimensions      [0 1 -1 0 0 0 0];


internalField   nonuniform List<vector> 
50000
(
(0.000253923 -0.0014716 0)
(0.00299468 -0.00286934 0)
(0.00637809 -0.0029178 0)
(0.00902746 -0.00266905 0)
(0.0116068 -0.00244137 0)
(0.0139634 -0.00235059 0)
(0.016287 -0.00229768 0)
(0.0185738 -0.00226554 0)
(0.0208038 -0.00222954 0)
(0.0229761 -0.00218509 0)
(0.0250867 -0.0021341 0)
(0.0271305 -0.00207998 0)
(0.029107 -0.00202343 0)
(0.0310144 -0.00196491 0)
(0.0328506 -0.00190418 0)
(0.034616 -0.00184107 0)
(0.0363096 -0.00177552 0)
(0.037931 -0.00170679 0)
(0.0394787 -0.00163583 0)
(0.040952 -0.0015639 0)
(0.0423512 -0.00148752 0)
(0.0436759 -0.00140695 0)
(0.0449251 -0.00132631 0)
(0.0460983 -0.00124191 0)
(0.0471942 -0.00115306 0)
(0.0482113 -0.00106101 0)
(0.0491489 -0.000964971 0)
(0.0500056 -0.000864534 0)
(0.0507793 -0.00075801 0)
(0.0514674 -0.000643086 0)
(0.0520661 -0.000521944 0)
(0.0525719 -0.000388564 0)
(0.0529776 -0.000241377 0)
(0.0532753 -7.88473e-05 0)
(0.0534572 9.67483e-05 0)
(0.0535196 0.000282192 0)
(0.0534515 0.000472081 0)
(0.0532487 0.000661127 0)
(0.0529158 0.000842148 0)
(0.052454 0.00102341 0)
(0.0518621 0.00120283 0)
(0.0511408 0.00137755 0)
(0.0503009 0.00152343 0)
(0.0493661 0.00162694 0)
(0.0483608 0.00168895 0)
(0.0473029 0.00171871 0)
(0.0462057 0.00172163 0)
(0.0450899 0.00169152 0)
(0.0439838 0.00161797 0)
(0.0429155 0.00150191 0)
(0.0419094 0.00135495 0)
(0.0409797 0.00119574 0)
(0.0401285 0.0010438 0)
(0.0393483 0.000912151 0)
(0.0386266 0.000804308 0)
(0.0379521 0.000717647 0)
(0.0373163 0.000644452 0)
(0.0367113 0.000578892 0)
(0.0361354 0.00051862 0)
(0.0355877 0.000461264 0)
(0.0350653 0.000407859 0)
(0.0345665 0.000358086 0)
(0.0340885 0.000311648 0)
(0.0336299 0.000269189 0)
(0.0331898 0.000230597 0)
(0.0327666 0.000195428 0)
(0.0323589 0.000163479 0)
(0.0319655 0.000134281 0)
(0.0315847 0.000107925 0)
(0.0312154 8.47104e-05 0)
(0.0308568 6.434e-05 0)
(0.0305078 4.66881e-05 0)
(0.0301675 3.16764e-05 0)
(0.0298353 1.94521e-05 0)
(0.0295103 9.48171e-06 0)
(0.0291916 1.87936e-06 0)
(0.0288788 -3.2286e-06 0)
(0.0285713 -5.51486e-06 0)
(0.0282681 -4.51122e-06 0)
(0.0279677 2.92359e-07 0)
(0.0276685 9.38561e-06 0)
(0.0273684 2.32352e-05 0)
(0.0270647 4.22146e-05 0)
(0.0267542 6.64758e-05 0)
(0.0264334 9.61329e-05 0)
(0.0260984 0.000131381 0)
(0.0257445 0.00017247 0)
(0.0253668 0.000220037 0)
(0.0249603 0.00027489 0)
(0.0245181 0.000337821 0)
(0.0240327 0.000410571 0)
(0.0234947 0.000495005 0)
(0.0228921 0.000594081 0)
(0.0222104 0.000712092 0)
(0.0214325 0.000855853 0)
(0.020535 0.0010351 0)
(0.0194963 0.00126663 0)
(0.0182579 0.00155976 0)
(0.016781 0.00188532 0)
(0.0150681 0.00219253 0)
(0.0131375 0.00244621 0)
(0.0110249 0.00262963 0)
(0.0087885 0.00273865 0)
(0.00649448 0.00278373 0)
(0.00420374 0.00278602 0)
(0.00196488 0.00276534 0)
(-0.000187178 0.00273149 0)
(-0.0022247 0.00268194 0)
(-0.00412265 0.00259942 0)
(-0.00585388 0.00245909 0)
(-0.00738326 0.00224452 0)
(-0.00867795 0.00196385 0)
(-0.00972196 0.00165348 0)
(-0.0105242 0.00135705 0)
(-0.0111174 0.0011024 0)
(-0.0115378 0.000897284 0)
(-0.0118299 0.000729371 0)
(-0.0120302 0.000587092 0)
(-0.0121628 0.000455394 0)
(-0.0122435 0.000327464 0)
(-0.0122786 0.00019701 0)
(-0.012276 6.6244e-05 0)
(-0.0122389 -6.26546e-05 0)
(-0.0121709 -0.000186267 0)
(-0.0120748 -0.000304064 0)
(-0.0119574 -0.000416048 0)
(-0.0118109 -0.000519162 0)
(-0.0116344 -0.000620756 0)
(-0.0114365 -0.000719497 0)
(-0.011212 -0.000815527 0)
(-0.0109607 -0.00090947 0)
(-0.0106832 -0.00100049 0)
(-0.0103775 -0.00108829 0)
(-0.0100428 -0.00117262 0)
(-0.00967976 -0.00125294 0)
(-0.00928669 -0.00132872 0)
(-0.0088618 -0.00140065 0)
(-0.00840472 -0.00146916 0)
(-0.00791399 -0.00153511 0)
(-0.00738788 -0.00159901 0)
(-0.00682553 -0.00166035 0)
(-0.006226 -0.00171806 0)
(-0.00558806 -0.00177407 0)
(-0.0049128 -0.00183884 0)
(-0.0041988 -0.00191892 0)
(-0.00340428 -0.00201823 0)
(-0.00262395 -0.00209938 0)
(-0.00169845 -0.00211519 0)
(-0.000850142 -0.0019292 0)
(8.08493e-05 -0.00130705 0)
(0.000155118 -0.00300197 0)
(0.00212978 -0.0057116 0)
(0.00468715 -0.00536207 0)
(0.00635413 -0.00469149 0)
(0.008034 -0.0043143 0)
(0.00942027 -0.00418924 0)
(0.0108813 -0.00409075 0)
(0.0122724 -0.00399159 0)
(0.0136155 -0.00387626 0)
(0.0149028 -0.00375105 0)
(0.016125 -0.00362262 0)
(0.0172838 -0.00349098 0)
(0.0183836 -0.00335657 0)
(0.019422 -0.00322177 0)
(0.0204002 -0.00308617 0)
(0.0213214 -0.00294977 0)
(0.0221872 -0.00281605 0)
(0.0229995 -0.00268157 0)
(0.0237617 -0.00254867 0)
(0.0244792 -0.00241566 0)
(0.0251528 -0.00228498 0)
(0.0257823 -0.00215746 0)
(0.0263803 -0.00203031 0)
(0.0269465 -0.00190502 0)
(0.0274768 -0.00177743 0)
(0.0279827 -0.00165026 0)
(0.0284671 -0.00152632 0)
(0.0289309 -0.00140006 0)
(0.0293781 -0.00127479 0)
(0.0298087 -0.00114839 0)
(0.0302361 -0.00101924 0)
(0.0306638 -0.000885361 0)
(0.0310895 -0.000744888 0)
(0.0315212 -0.000597333 0)
(0.0319626 -0.000441858 0)
(0.0324187 -0.000280215 0)
(0.0328889 -0.000114291 0)
(0.0333632 5.21351e-05 0)
(0.0338474 0.000219295 0)
(0.0343331 0.000393979 0)
(0.0348236 0.000571729 0)
(0.0353235 0.000745321 0)
(0.0358174 0.000901978 0)
(0.0362922 0.00104147 0)
(0.0367252 0.00116318 0)
(0.0371065 0.00126631 0)
(0.0374282 0.00134691 0)
(0.0376802 0.00139666 0)
(0.0378546 0.0014105 0)
(0.0379438 0.00139082 0)
(0.0379425 0.00134661 0)
(0.0378576 0.00129062 0)
(0.0377008 0.00123426 0)
(0.0374835 0.0011841 0)
(0.0372171 0.00114307 0)
(0.0369114 0.00111133 0)
(0.0365708 0.00108551 0)
(0.0361993 0.00106395 0)
(0.0357988 0.00104556 0)
(0.0353712 0.00102924 0)
(0.0349175 0.00101429 0)
(0.0344374 0.00100112 0)
(0.0339341 0.00098941 0)
(0.0334105 0.000978441 0)
(0.032868 0.00096799 0)
(0.0323084 0.000958231 0)
(0.0317335 0.000949177 0)
(0.0311459 0.000940284 0)
(0.030548 0.000931627 0)
(0.0299413 0.00092301 0)
(0.0293275 0.000914438 0)
(0.0287088 0.000905941 0)
(0.0280876 0.00089743 0)
(0.0274653 0.000888897 0)
(0.0268436 0.00087984 0)
(0.0262247 0.00086996 0)
(0.0256112 0.000859478 0)
(0.0250053 0.000848626 0)
(0.024409 0.000837871 0)
(0.0238243 0.000827801 0)
(0.0232534 0.000819145 0)
(0.0226982 0.000812641 0)
(0.0221607 0.000809133 0)
(0.021642 0.000809389 0)
(0.0211435 0.000814089 0)
(0.0206659 0.000824249 0)
(0.0202094 0.000840862 0)
(0.0197741 0.000865803 0)
(0.0193597 0.000900142 0)
(0.018966 0.00094546 0)
(0.0185928 0.00100388 0)
(0.0182403 0.0010779 0)
(0.017909 0.0011706 0)
(0.0176014 0.0012866 0)
(0.0173204 0.00143112 0)
(0.0170732 0.0016104 0)
(0.0168623 0.00183576 0)
(0.0167247 0.00211443 0)
(0.0166719 0.0024319 0)
(0.0166793 0.00275711 0)
(0.016722 0.00305725 0)
(0.0167832 0.00329954 0)
(0.016853 0.00345255 0)
(0.0169319 0.00349752 0)
(0.0170356 0.00343407 0)
(0.0171896 0.00327592 0)
(0.0174204 0.00304291 0)
(0.017748 0.00275432 0)
(0.0181811 0.00242302 0)
(0.0187145 0.00205775 0)
(0.0193291 0.0016674 0)
(0.0199942 0.00126717 0)
(0.0206769 0.000881589 0)
(0.0213498 0.000536688 0)
(0.0219967 0.000256083 0)
(0.0226104 5.31884e-05 0)
(0.0231839 -8.15925e-05 0)
(0.02371 -0.000156684 0)
(0.0241843 -0.000187867 0)
(0.0246026 -0.000186245 0)
(0.0249601 -0.000164438 0)
(0.0252492 -0.000129997 0)
(0.0254637 -8.86994e-05 0)
(0.0255993 -4.43858e-05 0)
(0.0256519 -1.13945e-07 0)
(0.0256197 4.14119e-05 0)
(0.0255006 8.14706e-05 0)
(0.0252929 0.00011453 0)
(0.0249964 0.000143233 0)
(0.0246112 0.000168299 0)
(0.0241366 0.000188958 0)
(0.0235712 0.000205213 0)
(0.0229132 0.000216962 0)
(0.0221624 0.000222998 0)
(0.0213201 0.000222112 0)
(0.0203878 0.000214045 0)
(0.0193679 0.000198957 0)
(0.0182642 0.000177196 0)
(0.0170811 0.000148815 0)
(0.015824 0.000113951 0)
(0.0144985 7.31615e-05 0)
(0.0131123 2.70593e-05 0)
(0.011669 -2.06623e-05 0)
(0.0101872 -7.30069e-05 0)
(0.00863383 -0.000123135 0)
(0.00708411 -0.000173749 0)
(0.00536088 -0.000208864 0)
(0.00375619 -0.000335074 0)
(0.00205388 -0.0004753 0)
(0.00118511 0.000249272 0)
(0.000123148 -0.00457541 0)
(0.0023429 -0.00911175 0)
(0.00534531 -0.00862965 0)
(0.00749785 -0.00730699 0)
(0.00948744 -0.00657002 0)
(0.0111244 -0.00629475 0)
(0.0128022 -0.00616873 0)
(0.0144302 -0.00601994 0)
(0.0160173 -0.00582916 0)
(0.0175419 -0.00561487 0)
(0.0189925 -0.0053937 0)
(0.0203704 -0.00517005 0)
(0.021676 -0.00494644 0)
(0.0229091 -0.00472351 0)
(0.0240736 -0.00450273 0)
(0.0251679 -0.00428458 0)
(0.0261971 -0.00407118 0)
(0.0271641 -0.00386388 0)
(0.0280686 -0.00366087 0)
(0.0289146 -0.00346271 0)
(0.0297014 -0.00327106 0)
(0.0304373 -0.00308738 0)
(0.0311211 -0.00290496 0)
(0.0317562 -0.00273156 0)
(0.0323467 -0.00256296 0)
(0.0328864 -0.00239888 0)
(0.0333864 -0.00223919 0)
(0.0338474 -0.00208665 0)
(0.034264 -0.00193785 0)
(0.0346428 -0.00179365 0)
(0.0349834 -0.00165132 0)
(0.0352882 -0.0015144 0)
(0.0355568 -0.00137754 0)
(0.035792 -0.00124017 0)
(0.0359964 -0.00109356 0)
(0.0361737 -0.000936725 0)
(0.0363239 -0.000772967 0)
(0.0364446 -0.000602155 0)
(0.036548 -0.000429043 0)
(0.0366385 -0.000261854 0)
(0.0367167 -9.69579e-05 0)
(0.0367814 7.1789e-05 0)
(0.0368355 0.000248961 0)
(0.0368766 0.000422817 0)
(0.0368969 0.000591213 0)
(0.0369001 0.000754588 0)
(0.0368849 0.000916796 0)
(0.0368497 0.00107356 0)
(0.0367879 0.00121591 0)
(0.0366885 0.00133376 0)
(0.0365446 0.00142261 0)
(0.0363542 0.00148285 0)
(0.0361173 0.00152024 0)
(0.0358383 0.0015437 0)
(0.0355247 0.00156087 0)
(0.0351816 0.00157671 0)
(0.0348126 0.00159391 0)
(0.0344198 0.00161386 0)
(0.0340061 0.00163464 0)
(0.0335729 0.00165536 0)
(0.0331223 0.00167466 0)
(0.0326562 0.00169222 0)
(0.0321739 0.0017089 0)
(0.0316777 0.00172406 0)
(0.0311709 0.00173663 0)
(0.0306552 0.0017472 0)
(0.0301309 0.00175548 0)
(0.0295997 0.00176143 0)
(0.0290631 0.00176456 0)
(0.0285225 0.0017646 0)
(0.02798 0.00176182 0)
(0.0274371 0.00175625 0)
(0.0268951 0.00174771 0)
(0.0263553 0.00173587 0)
(0.0258183 0.00172103 0)
(0.0252861 0.00170327 0)
(0.0247608 0.00168233 0)
(0.0242439 0.00165807 0)
(0.0237365 0.00163048 0)
(0.0232399 0.00160014 0)
(0.0227554 0.00156803 0)
(0.0222843 0.00153515 0)
(0.021828 0.00150266 0)
(0.0213877 0.00147206 0)
(0.0209647 0.00144485 0)
(0.0205603 0.00142219 0)
(0.0201758 0.00140513 0)
(0.0198115 0.00139497 0)
(0.0194678 0.001393 0)
(0.0191458 0.00140052 0)
(0.0188465 0.00141948 0)
(0.0185714 0.00145128 0)
(0.0183223 0.00149746 0)
(0.0181007 0.00155891 0)
(0.0179076 0.00163618 0)
(0.0177482 0.0017302 0)
(0.0176319 0.00183851 0)
(0.0175698 0.00195997 0)
(0.0175766 0.00210257 0)
(0.017666 0.00226903 0)
(0.0178442 0.00243823 0)
(0.0181061 0.00257423 0)
(0.0184374 0.00264021 0)
(0.0188167 0.00261238 0)
(0.0192181 0.00248478 0)
(0.0196164 0.00226657 0)
(0.019991 0.00197668 0)
(0.0203257 0.00163731 0)
(0.0206086 0.00126795 0)
(0.0208306 0.000885113 0)
(0.020984 0.000505852 0)
(0.0210638 0.000150576 0)
(0.0210716 -0.000158452 0)
(0.0210198 -0.000403198 0)
(0.0209288 -0.000574001 0)
(0.0208124 -0.000677641 0)
(0.0206837 -0.000727328 0)
(0.020561 -0.000739695 0)
(0.020457 -0.000729362 0)
(0.0203791 -0.000704352 0)
(0.0203297 -0.000666554 0)
(0.0203086 -0.000613209 0)
(0.0203133 -0.000539961 0)
(0.0203379 -0.000446909 0)
(0.0203729 -0.000337399 0)
(0.0204067 -0.000217246 0)
(0.0204311 -9.1242e-05 0)
(0.0204364 3.93708e-05 0)
(0.020411 0.000175622 0)
(0.0203454 0.000318438 0)
(0.0202302 0.000468213 0)
(0.020056 0.000624508 0)
(0.0198132 0.000786636 0)
(0.0194919 0.000952734 0)
(0.0190822 0.00112027 0)
(0.0185753 0.00128637 0)
(0.0179644 0.00144879 0)
(0.0172429 0.001605 0)
(0.016406 0.00175216 0)
(0.0154513 0.0018875 0)
(0.0143772 0.00200891 0)
(0.013187 0.00211543 0)
(0.011881 0.00220694 0)
(0.0104788 0.00228227 0)
(0.00894724 0.00234835 0)
(0.00736541 0.00241708 0)
(0.00555692 0.00249364 0)
(0.00389338 0.00232379 0)
(0.0022388 0.00171967 0)
(0.00151038 0.00301408 0)
(0.00012474 -0.00639408 0)
(0.00261174 -0.0130007 0)
(0.00590577 -0.0124795 0)
(0.00843263 -0.0105069 0)
(0.0107338 -0.00930113 0)
(0.0126812 -0.00882835 0)
(0.0146061 -0.0086536 0)
(0.0164837 -0.00846224 0)
(0.0183112 -0.00819541 0)
(0.0200706 -0.00788166 0)
(0.0217475 -0.00755048 0)
(0.0233386 -0.00721699 0)
(0.0248461 -0.00688441 0)
(0.0262696 -0.00655426 0)
(0.0276095 -0.00622682 0)
(0.0288673 -0.00590538 0)
(0.0300419 -0.00558846 0)
(0.0311379 -0.00528174 0)
(0.0321578 -0.00498161 0)
(0.0331036 -0.00469088 0)
(0.0339736 -0.00440891 0)
(0.0347759 -0.00413464 0)
(0.0355145 -0.00387061 0)
(0.0361859 -0.00361087 0)
(0.0367944 -0.00336071 0)
(0.0373453 -0.00311986 0)
(0.0378386 -0.00288172 0)
(0.0382791 -0.0026493 0)
(0.038671 -0.00241978 0)
(0.0390093 -0.00219275 0)
(0.0392985 -0.0019678 0)
(0.0395417 -0.00174018 0)
(0.0397351 -0.00151171 0)
(0.0398849 -0.00128327 0)
(0.0399966 -0.00105282 0)
(0.0400675 -0.000818098 0)
(0.0401042 -0.000585074 0)
(0.0401114 -0.000354172 0)
(0.0400931 -0.000122764 0)
(0.0400362 9.85996e-05 0)
(0.0399448 0.00031782 0)
(0.039833 0.000528187 0)
(0.0396948 0.000730925 0)
(0.0395353 0.000918579 0)
(0.0393544 0.00109294 0)
(0.0391541 0.00125262 0)
(0.0389361 0.00139716 0)
(0.0387009 0.00152819 0)
(0.0384533 0.00164537 0)
(0.0381926 0.00174785 0)
(0.0379118 0.00183654 0)
(0.0376076 0.00191237 0)
(0.0372795 0.00197636 0)
(0.0369252 0.00203174 0)
(0.0365445 0.00208126 0)
(0.0361402 0.00212618 0)
(0.0357169 0.0021681 0)
(0.0352766 0.00220752 0)
(0.0348209 0.0022449 0)
(0.0343532 0.00227951 0)
(0.0338749 0.00231161 0)
(0.0333882 0.00234027 0)
(0.0328944 0.00236527 0)
(0.0323935 0.00238711 0)
(0.0318877 0.00240603 0)
(0.0313787 0.00242136 0)
(0.0308667 0.00243263 0)
(0.0303528 0.00243997 0)
(0.0298381 0.00244301 0)
(0.0293239 0.0024419 0)
(0.028811 0.00243648 0)
(0.0283004 0.00242677 0)
(0.0277927 0.00241283 0)
(0.0272891 0.00239452 0)
(0.0267906 0.00237198 0)
(0.0262976 0.00234518 0)
(0.0258105 0.00231405 0)
(0.0253299 0.00227904 0)
(0.0248561 0.00224024 0)
(0.0243899 0.00219789 0)
(0.0239315 0.00215283 0)
(0.0234809 0.00210606 0)
(0.023039 0.0020585 0)
(0.0226066 0.00201145 0)
(0.0221842 0.00196643 0)
(0.0217721 0.00192459 0)
(0.0213712 0.001887 0)
(0.0209827 0.00185469 0)
(0.0206071 0.00182945 0)
(0.0202462 0.00181143 0)
(0.0199011 0.00180308 0)
(0.0195732 0.00180557 0)
(0.0192643 0.00182071 0)
(0.0189772 0.00184889 0)
(0.0187168 0.00189168 0)
(0.0184865 0.00195083 0)
(0.0182887 0.00202531 0)
(0.0181263 0.00211095 0)
(0.018004 0.00220162 0)
(0.0179279 0.00228704 0)
(0.0179045 0.00235566 0)
(0.0179321 0.00239608 0)
(0.0179974 0.00240083 0)
(0.0180813 0.00236541 0)
(0.0181607 0.00228899 0)
(0.0182137 0.00217517 0)
(0.0182246 0.00203052 0)
(0.0181827 0.00186163 0)
(0.0180809 0.00167458 0)
(0.0179166 0.00147501 0)
(0.0176896 0.00126825 0)
(0.0174027 0.00106036 0)
(0.0170633 0.000858369 0)
(0.0166833 0.000669246 0)
(0.0162739 0.000497318 0)
(0.0158523 0.000343914 0)
(0.0154358 0.000213374 0)
(0.0150303 0.000105763 0)
(0.0146388 1.88882e-05 0)
(0.0142615 -4.94469e-05 0)
(0.0138988 -0.000100403 0)
(0.0135522 -0.00013247 0)
(0.0132239 -0.00014339 0)
(0.0129166 -0.000130516 0)
(0.0126323 -9.29919e-05 0)
(0.0123707 -3.06716e-05 0)
(0.0121306 5.57792e-05 0)
(0.0119087 0.000163737 0)
(0.0117007 0.000292287 0)
(0.0115029 0.000441433 0)
(0.0113108 0.00061155 0)
(0.011119 0.000803179 0)
(0.0109212 0.00101607 0)
(0.0107104 0.00124893 0)
(0.0104786 0.00149942 0)
(0.0102164 0.00176443 0)
(0.00991446 0.0020402 0)
(0.00956348 0.00232279 0)
(0.00915491 0.00260771 0)
(0.00868087 0.00288924 0)
(0.00813394 0.00316234 0)
(0.00750986 0.00342248 0)
(0.00680484 0.0036635 0)
(0.00602784 0.00388838 0)
(0.00513998 0.00411342 0)
(0.00419769 0.00435871 0)
(0.00303415 0.00450782 0)
(0.00215667 0.00405444 0)
(0.00141171 0.00290434 0)
(0.00139842 0.00529211 0)
(0.000124954 -0.00832467 0)
(0.00273241 -0.0171357 0)
(0.00614382 -0.0166105 0)
(0.00882108 -0.0140462 0)
(0.011268 -0.0123621 0)
(0.0133533 -0.0116634 0)
(0.0153762 -0.0113931 0)
(0.0173477 -0.0111322 0)
(0.0192537 -0.0107765 0)
(0.0210837 -0.0103511 0)
(0.0228256 -0.00989829 0)
(0.0244754 -0.00944059 0)
(0.0260326 -0.00898311 0)
(0.0274975 -0.00852869 0)
(0.0288715 -0.00807934 0)
(0.0301556 -0.00763591 0)
(0.0313497 -0.00720163 0)
(0.0324581 -0.00677682 0)
(0.0334833 -0.00636447 0)
(0.0344246 -0.00596426 0)
(0.0352863 -0.00557843 0)
(0.0360716 -0.00520237 0)
(0.0367879 -0.0048402 0)
(0.0374358 -0.00449243 0)
(0.0380127 -0.00415423 0)
(0.0385269 -0.00382623 0)
(0.038986 -0.00351023 0)
(0.0393876 -0.00320299 0)
(0.0397308 -0.00290611 0)
(0.0400195 -0.00261728 0)
(0.0402623 -0.00233812 0)
(0.0404615 -0.00206395 0)
(0.0406104 -0.00179443 0)
(0.0407186 -0.0015267 0)
(0.0407959 -0.00126301 0)
(0.0408378 -0.00100273 0)
(0.0408425 -0.000744037 0)
(0.0408205 -0.000489327 0)
(0.0407695 -0.000238221 0)
(0.0407002 5.21888e-06 0)
(0.0406164 0.000248544 0)
(0.0405071 0.000484915 0)
(0.0403757 0.000718185 0)
(0.0402236 0.000946718 0)
(0.0400512 0.00116777 0)
(0.0398568 0.00137961 0)
(0.0396419 0.00157945 0)
(0.0394076 0.00176619 0)
(0.0391518 0.00193784 0)
(0.0388746 0.00209227 0)
(0.0385774 0.00222977 0)
(0.0382585 0.00235124 0)
(0.0379172 0.00245745 0)
(0.0375551 0.00255061 0)
(0.0371722 0.002634 0)
(0.0367694 0.0027091 0)
(0.0363489 0.00277759 0)
(0.0359121 0.00283927 0)
(0.0354611 0.00289577 0)
(0.0349979 0.0029473 0)
(0.0345242 0.0029933 0)
(0.0340411 0.00303385 0)
(0.0335497 0.00306872 0)
(0.0330522 0.00309878 0)
(0.0325502 0.00312424 0)
(0.0320438 0.0031441 0)
(0.0315341 0.00315843 0)
(0.0310222 0.00316724 0)
(0.0305088 0.00317058 0)
(0.029995 0.00316866 0)
(0.0294819 0.00316134 0)
(0.0289702 0.00314849 0)
(0.0284605 0.00313028 0)
(0.0279534 0.00310698 0)
(0.027449 0.00307865 0)
(0.0269481 0.00304533 0)
(0.0264526 0.00300687 0)
(0.0259628 0.0029638 0)
(0.0254781 0.00291667 0)
(0.0249992 0.00286607 0)
(0.0245265 0.00281261 0)
(0.02406 0.00275714 0)
(0.0236001 0.00270065 0)
(0.0231478 0.00264412 0)
(0.0227037 0.00258853 0)
(0.0222684 0.002535 0)
(0.0218428 0.00248471 0)
(0.0214286 0.00243877 0)
(0.0210249 0.00239814 0)
(0.0206341 0.0023644 0)
(0.0202586 0.00233773 0)
(0.0198992 0.00231963 0)
(0.0195567 0.00230977 0)
(0.0192328 0.00231044 0)
(0.0189307 0.00232131 0)
(0.0186528 0.00234006 0)
(0.0184009 0.00236525 0)
(0.0181781 0.00239563 0)
(0.0179872 0.00242874 0)
(0.017829 0.00246052 0)
(0.0177018 0.00248476 0)
(0.0176012 0.00249186 0)
(0.0175206 0.0024731 0)
(0.0174502 0.00242262 0)
(0.0173801 0.00233744 0)
(0.0173014 0.00221837 0)
(0.0172055 0.00206909 0)
(0.0170844 0.00189537 0)
(0.0169344 0.001705 0)
(0.016753 0.00150601 0)
(0.0165378 0.00130654 0)
(0.0162868 0.00111513 0)
(0.0159993 0.00093963 0)
(0.015676 0.000785839 0)
(0.0153187 0.000657314 0)
(0.0149312 0.000557787 0)
(0.0145176 0.000484145 0)
(0.014081 0.000432228 0)
(0.0136243 0.000397721 0)
(0.0131491 0.000377129 0)
(0.0126569 0.000368497 0)
(0.0121491 0.000371006 0)
(0.0116286 0.000385385 0)
(0.0110992 0.000413119 0)
(0.0105653 0.000455412 0)
(0.0100319 0.00051322 0)
(0.00950328 0.000587235 0)
(0.00898304 0.000677725 0)
(0.00847424 0.00078549 0)
(0.00797954 0.000911889 0)
(0.00750107 0.00105865 0)
(0.00704057 0.00122788 0)
(0.00659929 0.00142137 0)
(0.00617784 0.00163989 0)
(0.00577569 0.00188288 0)
(0.00539102 0.0021489 0)
(0.0050211 0.00243565 0)
(0.00466229 0.00274007 0)
(0.00431001 0.00305781 0)
(0.00395912 0.00338282 0)
(0.00360413 0.00370862 0)
(0.0032396 0.00402755 0)
(0.00286329 0.00433267 0)
(0.00247477 0.00463666 0)
(0.00203188 0.0049733 0)
(0.00157759 0.00533438 0)
(0.000984058 0.00540905 0)
(0.000784926 0.00450756 0)
(0.000741483 0.00297341 0)
(0.00117089 0.00684345 0)
(0.000131728 -0.0103171 0)
(0.00282021 -0.0213737 0)
(0.00634687 -0.020854 0)
(0.00914501 -0.0176756 0)
(0.0116718 -0.0154968 0)
(0.0138204 -0.0145561 0)
(0.0158792 -0.01417 0)
(0.0178776 -0.0138254 0)
(0.0198025 -0.013369 0)
(0.0216464 -0.0128248 0)
(0.0233938 -0.0122436 0)
(0.0250425 -0.0116544 0)
(0.0265937 -0.011067 0)
(0.028045 -0.010482 0)
(0.0294015 -0.00990429 0)
(0.0306649 -0.00933356 0)
(0.0318355 -0.00877562 0)
(0.0329172 -0.00822959 0)
(0.0339133 -0.00770245 0)
(0.0348264 -0.00718987 0)
(0.0356608 -0.00669517 0)
(0.0364221 -0.00621792 0)
(0.0371079 -0.00575613 0)
(0.0377279 -0.00531342 0)
(0.0382864 -0.00488902 0)
(0.0387809 -0.00447565 0)
(0.039217 -0.00407612 0)
(0.0395996 -0.00369179 0)
(0.0399325 -0.00332018 0)
(0.0402113 -0.00295916 0)
(0.0404452 -0.00260564 0)
(0.0406406 -0.00226085 0)
(0.0407923 -0.00192534 0)
(0.0409042 -0.00159284 0)
(0.0409794 -0.0012685 0)
(0.0410214 -0.000951881 0)
(0.0410322 -0.000638904 0)
(0.0410141 -0.00033267 0)
(0.0409685 -3.3358e-05 0)
(0.0408922 0.000260448 0)
(0.0407868 0.000542354 0)
(0.0406621 0.000812817 0)
(0.0405195 0.00106988 0)
(0.0403548 0.00131676 0)
(0.0401685 0.00155093 0)
(0.0399624 0.00177202 0)
(0.0397384 0.0019805 0)
(0.0394958 0.00217539 0)
(0.039235 0.00235582 0)
(0.0389564 0.00252328 0)
(0.0386574 0.00267717 0)
(0.0383359 0.00281734 0)
(0.0379936 0.00294588 0)
(0.0376323 0.00306392 0)
(0.0372509 0.00317213 0)
(0.0368499 0.00327135 0)
(0.0364311 0.0033614 0)
(0.0359966 0.00344299 0)
(0.0355482 0.00351699 0)
(0.0350865 0.00358378 0)
(0.0346127 0.00364303 0)
(0.0341293 0.00369539 0)
(0.0336387 0.00374162 0)
(0.0331413 0.00378159 0)
(0.0326368 0.00381456 0)
(0.0321266 0.0038405 0)
(0.0316123 0.00385962 0)
(0.0310946 0.0038718 0)
(0.030575 0.00387721 0)
(0.0300543 0.00387617 0)
(0.0295326 0.00386854 0)
(0.0290112 0.00385422 0)
(0.0284913 0.00383338 0)
(0.0279735 0.00380632 0)
(0.0274585 0.00377315 0)
(0.0269465 0.00373474 0)
(0.0264384 0.00369086 0)
(0.0259358 0.00364141 0)
(0.0254388 0.00358698 0)
(0.0249481 0.00352849 0)
(0.0244642 0.00346652 0)
(0.0239876 0.00340159 0)
(0.0235191 0.00333465 0)
(0.0230598 0.00326662 0)
(0.0226102 0.00319832 0)
(0.0221713 0.00313063 0)
(0.021744 0.00306458 0)
(0.0213296 0.00300109 0)
(0.0209295 0.00294099 0)
(0.0205444 0.00288691 0)
(0.0201758 0.00283711 0)
(0.0198242 0.00279327 0)
(0.0194925 0.00275675 0)
(0.0191836 0.00272709 0)
(0.0188959 0.00270511 0)
(0.0186309 0.00269001 0)
(0.018392 0.00268071 0)
(0.0181802 0.00267613 0)
(0.0179957 0.00267261 0)
(0.0178388 0.00266741 0)
(0.0177083 0.00265584 0)
(0.0176007 0.00263399 0)
(0.0175116 0.00259804 0)
(0.0174347 0.00254563 0)
(0.0173613 0.00247634 0)
(0.0172831 0.00239096 0)
(0.0171929 0.00229144 0)
(0.0170858 0.00218111 0)
(0.0169557 0.00206338 0)
(0.0167964 0.00194176 0)
(0.0166049 0.00181982 0)
(0.0163798 0.00170118 0)
(0.0161202 0.00158945 0)
(0.015827 0.00148805 0)
(0.0155031 0.00139989 0)
(0.0151511 0.00132703 0)
(0.0147733 0.00127016 0)
(0.0143713 0.00122916 0)
(0.0139462 0.00120303 0)
(0.0134983 0.00119057 0)
(0.013027 0.00119085 0)
(0.012532 0.0012033 0)
(0.0120135 0.0012276 0)
(0.0114723 0.0012637 0)
(0.0109101 0.00131176 0)
(0.0103297 0.00137192 0)
(0.00973447 0.00144423 0)
(0.00912759 0.00152906 0)
(0.00851269 0.00162703 0)
(0.00789369 0.00173901 0)
(0.00727483 0.0018662 0)
(0.00666079 0.00201034 0)
(0.00605661 0.00217338 0)
(0.00546751 0.0023567 0)
(0.00489843 0.00256096 0)
(0.00435358 0.00278619 0)
(0.0038365 0.00303173 0)
(0.00334992 0.00329591 0)
(0.00289516 0.00357602 0)
(0.0024728 0.00386795 0)
(0.00208296 0.0041653 0)
(0.00172393 0.00445939 0)
(0.00139574 0.00474636 0)
(0.00109666 0.00504831 0)
(0.000794003 0.00541176 0)
(0.000529424 0.00578351 0)
(0.000198926 0.00568388 0)
(0.000253404 0.00433486 0)
(0.000435945 0.00255718 0)
(0.000974211 0.00790321 0)
(0.000136674 -0.0123717 0)
(0.00291262 -0.0257602 0)
(0.00660354 -0.0253003 0)
(0.00959151 -0.0214774 0)
(0.0122371 -0.0187418 0)
(0.0144619 -0.017509 0)
(0.0165603 -0.0169873 0)
(0.0185886 -0.0165484 0)
(0.0205369 -0.015982 0)
(0.0223958 -0.0153077 0)
(0.0241514 -0.0145876 0)
(0.0257984 -0.013857 0)
(0.0273402 -0.0131296 0)
(0.028776 -0.0124089 0)
(0.0301115 -0.011696 0)
(0.0313495 -0.0109951 0)
(0.0324922 -0.0103108 0)
(0.0335424 -0.00964415 0)
(0.0345077 -0.00900058 0)
(0.035392 -0.0083774 0)
(0.0361945 -0.00777595 0)
(0.0369257 -0.0071997 0)
(0.0375876 -0.00664637 0)
(0.0381789 -0.00611119 0)
(0.0387123 -0.00560257 0)
(0.0391909 -0.00511079 0)
(0.0396107 -0.00463786 0)
(0.0399767 -0.00418305 0)
(0.0402929 -0.00374451 0)
(0.0405634 -0.00332118 0)
(0.0407924 -0.00290957 0)
(0.0409774 -0.00251194 0)
(0.0411215 -0.00212584 0)
(0.0412274 -0.00175141 0)
(0.041297 -0.00138576 0)
(0.0413376 -0.00102915 0)
(0.041343 -0.00068196 0)
(0.041317 -0.000345014 0)
(0.0412634 -1.51972e-05 0)
(0.0411842 0.000300832 0)
(0.0410817 0.000612162 0)
(0.0409507 0.000915225 0)
(0.0407988 0.00120684 0)
(0.0406264 0.00148612 0)
(0.0404293 0.00175619 0)
(0.0402101 0.00201485 0)
(0.0399702 0.00226067 0)
(0.0397085 0.00249299 0)
(0.0394264 0.00271099 0)
(0.0391241 0.00291404 0)
(0.0388005 0.00310183 0)
(0.0384573 0.00327521 0)
(0.0380957 0.0034351 0)
(0.0377155 0.00358205 0)
(0.0373164 0.00371686 0)
(0.0368983 0.00384112 0)
(0.0364633 0.00395421 0)
(0.0360142 0.00405711 0)
(0.0355522 0.00415007 0)
(0.0350776 0.004234 0)
(0.0345923 0.00430935 0)
(0.0340989 0.00437631 0)
(0.0335972 0.00443487 0)
(0.0330873 0.00448448 0)
(0.0325708 0.0045255 0)
(0.0320492 0.00455833 0)
(0.0315234 0.00458294 0)
(0.0309944 0.00459928 0)
(0.0304635 0.00460762 0)
(0.0299314 0.00460796 0)
(0.0293986 0.00460048 0)
(0.0288664 0.00458536 0)
(0.0283358 0.00456263 0)
(0.0278075 0.00453241 0)
(0.0272825 0.00449509 0)
(0.0267611 0.00445092 0)
(0.026244 0.00440019 0)
(0.025733 0.00434299 0)
(0.0252291 0.00427995 0)
(0.0247329 0.00421171 0)
(0.0242446 0.00413878 0)
(0.0237651 0.00406191 0)
(0.0232957 0.00398191 0)
(0.0228372 0.0038995 0)
(0.0223906 0.00381546 0)
(0.0219566 0.0037307 0)
(0.0215364 0.00364615 0)
(0.0211314 0.00356262 0)
(0.0207434 0.00348113 0)
(0.0203711 0.00340226 0)
(0.0200157 0.00332832 0)
(0.0196821 0.00325863 0)
(0.0193683 0.00319386 0)
(0.0190751 0.00313453 0)
(0.0188051 0.00307989 0)
(0.018558 0.00303094 0)
(0.0183348 0.00298658 0)
(0.0181351 0.00294508 0)
(0.0179596 0.00290553 0)
(0.0178076 0.00286494 0)
(0.0176763 0.00282073 0)
(0.0175632 0.00276992 0)
(0.017464 0.00271087 0)
(0.017374 0.00264141 0)
(0.0172876 0.0025611 0)
(0.0171995 0.00247084 0)
(0.017104 0.00237286 0)
(0.0169946 0.00226978 0)
(0.0168671 0.00216433 0)
(0.016719 0.00206017 0)
(0.0165477 0.00196139 0)
(0.0163512 0.00187173 0)
(0.0161282 0.00179436 0)
(0.0158786 0.00173199 0)
(0.0156022 0.00168662 0)
(0.0153 0.00165903 0)
(0.0149729 0.00164893 0)
(0.0146214 0.00165541 0)
(0.0142461 0.00167716 0)
(0.0138475 0.00171258 0)
(0.0134257 0.00176022 0)
(0.0129805 0.00181894 0)
(0.0125122 0.00188773 0)
(0.0120212 0.00196581 0)
(0.0115081 0.00205262 0)
(0.0109735 0.00214764 0)
(0.0104187 0.00225044 0)
(0.00984533 0.00236096 0)
(0.00925537 0.00247943 0)
(0.00865121 0.00260621 0)
(0.0080359 0.00274196 0)
(0.00741339 0.00288753 0)
(0.00678811 0.00304393 0)
(0.00616486 0.00321225 0)
(0.0055491 0.00339332 0)
(0.0049465 0.00358759 0)
(0.00436258 0.00379494 0)
(0.00380257 0.00401467 0)
(0.00327108 0.00424539 0)
(0.00277197 0.00448486 0)
(0.00230844 0.00472787 0)
(0.00188227 0.00496628 0)
(0.00149617 0.00519881 0)
(0.00115187 0.00545389 0)
(0.00082679 0.00578555 0)
(0.000562007 0.00611289 0)
(0.000254361 0.00584937 0)
(0.00024976 0.00413662 0)
(0.000365704 0.00212547 0)
(0.000857406 0.00874107 0)
(0.000129356 -0.0144891 0)
(0.00300916 -0.0303454 0)
(0.00691415 -0.0300401 0)
(0.0101642 -0.0255441 0)
(0.0129917 -0.0221577 0)
(0.0153339 -0.020554 0)
(0.0174922 -0.0198611 0)
(0.0195609 -0.0193151 0)
(0.0215443 -0.0186321 0)
(0.0234298 -0.0178181 0)
(0.0252021 -0.0169442 0)
(0.0268567 -0.0160585 0)
(0.0283937 -0.0151801 0)
(0.0298173 -0.0143125 0)
(0.0311342 -0.0134574 0)
(0.0323461 -0.0126215 0)
(0.0334591 -0.0118074 0)
(0.0344763 -0.0110176 0)
(0.0354061 -0.0102543 0)
(0.0362567 -0.00952135 0)
(0.0370239 -0.00881671 0)
(0.0377181 -0.00814185 0)
(0.0383485 -0.00749534 0)
(0.0389097 -0.0068759 0)
(0.039413 -0.00628117 0)
(0.0398642 -0.00571294 0)
(0.0402564 -0.00516817 0)
(0.0405997 -0.00464385 0)
(0.0408981 -0.0041387 0)
(0.0411497 -0.00365227 0)
(0.0413591 -0.00318097 0)
(0.0415302 -0.00272731 0)
(0.0416608 -0.00228523 0)
(0.0417552 -0.00185719 0)
(0.0418162 -0.00143946 0)
(0.0418427 -0.00103372 0)
(0.0418355 -0.000639889 0)
(0.0418015 -0.000256674 0)
(0.0417344 0.000116544 0)
(0.041639 0.000479402 0)
(0.0415208 0.000828202 0)
(0.0413733 0.00116688 0)
(0.0412011 0.00149243 0)
(0.0410088 0.00180155 0)
(0.040795 0.00209743 0)
(0.0405554 0.00238157 0)
(0.040294 0.00265289 0)
(0.0400115 0.00290891 0)
(0.039708 0.00315038 0)
(0.0393846 0.00337687 0)
(0.0390408 0.00358879 0)
(0.0386766 0.00378705 0)
(0.0382934 0.00397107 0)
(0.0378927 0.00414105 0)
(0.0374752 0.00429763 0)
(0.0370398 0.00444194 0)
(0.0365874 0.00457516 0)
(0.036121 0.00469721 0)
(0.0356424 0.00480816 0)
(0.0351526 0.0049082 0)
(0.0346519 0.00499814 0)
(0.0341419 0.0050776 0)
(0.0336242 0.0051463 0)
(0.0330994 0.00520473 0)
(0.0325686 0.00525352 0)
(0.0320328 0.0052926 0)
(0.0314929 0.0053219 0)
(0.0309502 0.00534165 0)
(0.0304059 0.00535215 0)
(0.0298608 0.00535316 0)
(0.0293156 0.00534506 0)
(0.0287714 0.00532817 0)
(0.0282291 0.00530235 0)
(0.0276898 0.00526781 0)
(0.0271546 0.00522492 0)
(0.0266235 0.00517374 0)
(0.0260975 0.00511492 0)
(0.0255784 0.00504869 0)
(0.0250673 0.00497537 0)
(0.0245646 0.00489552 0)
(0.0240712 0.00480964 0)
(0.0235882 0.00471855 0)
(0.0231166 0.00462299 0)
(0.0226571 0.00452368 0)
(0.0222108 0.00442149 0)
(0.0217786 0.00431721 0)
(0.0213615 0.0042117 0)
(0.0209606 0.00410579 0)
(0.0205771 0.00400043 0)
(0.0202133 0.00389589 0)
(0.0198689 0.00379467 0)
(0.019542 0.00369663 0)
(0.0192371 0.00360252 0)