/*--------------------------------*- C++ -*----------------------------------*\
| =========                 |                                                 |
| \\      /  F ield         | OpenFOAM: The Open Source CFD Toolbox           |
|  \\    /   O peration     | Version:  v2006                                 |
|   \\  /    A nd           | Website:  www.openfoam.com                      |
|    \\/     M anipulation  |                                                 |
\*---------------------------------------------------------------------------*/
FoamFile
{
    version     2.0;
    format      ascii;
    class       volScalarField;
    location    "0";
    object      p;
}
// * * * * * * * * * * * * * * * * * * * * * * * * * * * * * * * * * * * * * //

dimensions      [1 -1 -2 0 0 0 0];


internalField   nonuniform List<scalar> 
67500
(
23.9572
23.0244
21.7688
20.6192
19.9725
19.3064
20.9981
22.2613
16.8385
7.04322
-0.0853771
-1.39928
-0.379666
0.960877
2.648
4.78684
3.70832
2.24777
1.63873
2.15982
2.89786
2.98409
2.60848
2.10038
1.52235
1.10796
0.933489
1.01021
1.20401
1.35065
1.395
1.40804
1.42779
1.45726
1.50478
1.58123
1.66354
1.71158
1.71326
1.67288
1.60831
1.54565
1.51473
1.53628
1.62024
1.76259
1.93025
2.03079
1.96193
1.81077
1.66495
1.55181
1.48401
1.46143
1.47112
1.49456
1.51569
1.52696
1.53086
1.53741
1.55936
1.60674
1.68315
1.78393
1.88856
1.93768
1.87174
1.75765
1.67854
1.64772
1.666
1.7356
1.85101
2.00117
2.16884
2.32634
2.44143
2.51427
2.58392
2.67652
2.79509
2.93355
3.07686
3.20218
3.29161
3.35469
3.42041
3.50245
3.59564
3.68982
3.7782
3.86294
3.9484
4.03282
4.11237
4.18673
4.25801
4.32675
4.39127
4.45035
4.50379
4.55092
4.59024
4.62046
4.64073
4.65034
4.6489
4.63656
4.61379
4.58127
4.53983
4.49032
4.43358
4.37035
4.30129
4.22694
4.14778
4.06424
3.97669
3.88551
3.79107
3.69377
3.59399
3.49216
3.38868
3.28398
3.17847
3.07254
2.9666
2.86102
2.75615
2.65233
2.54984
2.44895
2.3499
2.25289
2.1581
2.06566
1.97569
1.8883
1.80354
1.72149
1.64216
1.56559
1.49177
1.42071
1.35237
1.28674
1.22377
1.16341
1.1056
1.05028
0.997377
0.946815
0.89851
0.852376
0.808325
0.766264
0.726099
0.687736
0.651082
0.616044
0.58253
0.550454
0.51973
0.490279
0.462022
0.43489
0.408814
0.383732
0.359587
0.336324
0.313895
0.292254
0.271359
0.251173
0.231659
0.212785
0.194521
0.176841
0.15972
0.143134
0.127064
0.111491
0.0963994
0.0817742
0.0676032
0.053876
0.0405837
0.0277194
0.0152778
0.00325528
-0.00835032
-0.0195397
-0.0303121
-0.0406659
-0.0505981
-0.0601051
-0.0691828
-0.0778266
-0.0860318
-0.0937943
-0.10111
-0.107976
-0.11439
-0.120353
-0.125864
-0.130927
-0.135546
-0.139728
-0.143482
-0.146818
-0.149749
-0.15229
-0.154457
-0.156266
-0.157738
-0.158891
-0.159747
-0.160325
-0.160648
-0.160735
-0.160607
-0.160285
-0.159787
-0.159132
-0.158338
-0.157421
-0.156395
-0.155275
-0.154073
-0.1528
-0.151467
-0.150083
-0.148655
-0.14719
-0.145694
-0.144171
-0.142627
-0.141064
-0.139485
-0.137893
-0.13629
-0.134676
-0.133054
-0.131424
-0.129787
-0.128143
-0.126494
-0.124839
-0.12318
-0.121518
-0.119851
-0.118182
-0.116512
-0.11484
-0.113168
-0.111496
-0.109826
-0.10816
-0.106497
-0.104839
-0.103188
-0.101544
-0.0999094
-0.098285
-0.0966721
-0.0950721
-0.0934862
-0.0919156
-0.0903616
-0.0888252
-0.0873077
-0.0858101
-0.0843333
-0.0828782
-0.0814456
-0.0800363
-0.078651
-0.0772901
-0.0759541
-0.0746434
-0.0733582
-0.0720986
-0.0708648
-0.0696565
-0.0684737
-0.0673161
-0.0661833
-0.0650748
-0.0639901
-0.0629284
-0.0618892
-0.0608715
-0.0598746
-0.0588976
-0.0579395
-0.0569994
-0.0560764
-0.0551696
-0.054278
-0.0534009
-0.0525376
-0.0516872
-0.0508492
-0.0500231
-0.0492086
-0.0484053
-0.047613
-0.0468318
-0.0460616
-0.0453025
-0.0445548
-0.0438187
-0.0430944
-0.0423823
-0.0416827
-0.0409958
-0.0403219
-0.039661
-0.0390134
-0.0383791
-0.0377578
-0.0371496
-0.0365541
-0.0359709
-0.0353997
-0.0348398
-0.0342909
-0.0337522
-0.0332229
-0.0327025
-0.03219
-0.0316847
-0.0311857
-0.030692
-0.030203
-0.0297177
-0.0292353
-0.0287551
-0.0282767
-0.0277994
-0.0273229
-0.0268472
-0.0263721
-0.0258978
-0.0254246
-0.0249528
-0.024483
-0.0240157
-0.0235516
-0.0230912
-0.0226353
-0.0221844
-0.0217393
-0.0213003
-0.0208681
-0.020443
-0.0200254
-0.0196157
-0.019214
-0.0188206
-0.0184355
-0.0180587
-0.0176904
-0.0173303
-0.0169785
-0.0166348
-0.0162991
-0.0159711
-0.0156507
-0.0153377
-0.0150318
-0.0147327
-0.0144404
-0.0141544
-0.0138745
-0.0136006
-0.0133323
-0.0130694
-0.0128118
-0.012559
-0.012311
-0.0120675
-0.0118282
-0.0115931
-0.0113618
-0.0111343
-0.0109103
-0.0106896
-0.0104722
-0.0102577
-0.0100462
-0.00983735
-0.00963113
-0.00942738
-0.00922597
-0.0090268
-0.00882974
-0.00863469
-0.00844154
-0.00825021
-0.00806059
-0.00787261
-0.00768618
-0.00750122
-0.00731767
-0.00713544
-0.00695447
-0.0067747
-0.00659607
-0.00641851
-0.00624198
-0.00606641
-0.00589177
-0.00571801
-0.00554508
-0.00537294
-0.00520155
-0.00503086
-0.00486085
-0.00469147
-0.0045227
-0.0043545
-0.00418684
-0.00401969
-0.00385302
-0.00368681
-0.00352103
-0.00335566
-0.00319066
-0.00302602
-0.00286172
-0.00269773
-0.00253403
-0.00237061
-0.00220744
-0.0020445
-0.00188178
-0.00171925
-0.00155691
-0.00139472
-0.00123268
-0.00107076
-0.000908992
-0.000747135
-0.000585935
-0.000422461
-0.000264956
-7.51233e-05
23.5442
22.6996
19.7878
19.8945
19.8556
19.8509
19.6583
17.6456
8.19362
0.850202
-1.06535
-1.28957
-0.749471
0.985584
2.36954
3.16959
3.89556
3.4456
2.00899
2.2796
2.84588
3.08097
2.98158
2.55064
1.8672
1.55175
1.43381
1.448
1.49147
1.48172
1.35018
1.17995
1.07933
1.08057
1.17448
1.32713
1.48652
1.60353
1.64022
1.59563
1.49876
1.38848
1.29702
1.25996
1.30727
1.45883
1.71181
1.93282
1.81103
1.58434
1.39042
1.24888
1.17414
1.16362
1.19701
1.24641
1.28703
1.30673
1.30966
1.31217
1.33509
1.39485
1.49759
1.64158
1.81513
1.92531
1.81315
1.63852
1.53643
1.49077
1.49794
1.56364
1.6821
1.84346
2.03235
2.21513
2.33224
2.3802
2.43129
2.51816
2.64057
2.7931
2.95756
3.09994
3.18453
3.22809
3.28414
3.36948
3.4715
3.57349
3.66371
3.74876
3.83814
3.92781
4.01096
4.08756
4.16203
4.23528
4.30412
4.36698
4.42459
4.47638
4.52028
4.55478
4.57911
4.5924
4.59416
4.58466
4.56448
4.53436
4.4952
4.44795
4.39346
4.33247
4.26565
4.19351
4.11651
4.03504
3.94946
3.86013
3.76741
3.6717
3.57339
3.47291
3.37068
3.26712
3.16265
3.05769
2.95263
2.84786
2.74375
2.64062
2.53878
2.43851
2.34003
2.24356
2.14928
2.05732
1.9678
1.88083
1.79647
1.71479
1.63581
1.55957
1.48607
1.41531
1.34726
1.28189
1.21918
1.15906
1.10149
1.04639
0.993705
0.943351
0.895246
0.849305
0.80544
0.763557
0.723563
0.685364
0.648866
0.613975
0.580602
0.548658
0.518058
0.488721
0.460572
0.433539
0.407554
0.382557
0.358489
0.335297
0.312932
0.291351
0.27051
0.250373
0.230904
0.212071
0.193845
0.176199
0.159108
0.14255
0.126505
0.110955
0.0958825
0.0812745
0.0671184
0.0534038
0.040122
0.0272661
0.0148311
0.00281324
-0.00878935
-0.0199772
-0.0307496
-0.0411045
-0.0510388
-0.0605486
-0.0696295
-0.0782767
-0.0864853
-0.0942506
-0.101568
-0.108436
-0.11485
-0.12081
-0.126318
-0.131376
-0.135987
-0.14016
-0.143903
-0.147226
-0.150143
-0.152667
-0.154816
-0.156607
-0.158059
-0.159191
-0.160026
-0.160583
-0.160884
-0.160951
-0.160803
-0.160461
-0.159945
-0.159273
-0.158462
-0.15753
-0.15649
-0.155357
-0.154144
-0.152861
-0.151519
-0.150127
-0.148692
-0.147221
-0.14572
-0.144193
-0.142646
-0.14108
-0.139499
-0.137905
-0.1363
-0.134685
-0.133062
-0.131431
-0.129793
-0.128149
-0.126499
-0.124844
-0.123185
-0.121521
-0.119854
-0.118184
-0.116513
-0.11484
-0.113167
-0.111494
-0.109824
-0.108156
-0.106492
-0.104833
-0.10318
-0.101535
-0.0998993
-0.0982735
-0.0966594
-0.0950581
-0.0934709
-0.0918991
-0.0903439
-0.0888065
-0.0872879
-0.0857893
-0.0843116
-0.0828557
-0.0814224
-0.0800125
-0.0786266
-0.0772652
-0.0759289
-0.0746179
-0.0733326
-0.072073
-0.0708392
-0.0696311
-0.0684486
-0.0672914
-0.066159
-0.0650511
-0.063967
-0.0629061
-0.0618676
-0.0608508
-0.0598548
-0.0588787
-0.0579215
-0.0569823
-0.0560603
-0.0551543
-0.0542636
-0.0533873
-0.0525245
-0.0516747
-0.0508372
-0.0500116
-0.0491973
-0.0483941
-0.047602
-0.0468207
-0.0460504
-0.0452911
-0.0445432
-0.0438068
-0.0430822
-0.0423698
-0.0416699
-0.0409828
-0.0403087
-0.0396477
-0.0390001
-0.0383657
-0.0377446
-0.0371365
-0.0365413
-0.0359585
-0.0353877
-0.0348285
-0.0342802
-0.0337422
-0.0332138
-0.0326943
-0.0321828
-0.0316785
-0.0311806
-0.0306881
-0.0302001
-0.0297157
-0.0292342
-0.0287549
-0.028277
-0.0278001
-0.0273239
-0.0268482
-0.026373
-0.0258984
-0.0254247
-0.0249523
-0.0244818
-0.0240138
-0.0235488
-0.0230877
-0.022631
-0.0221794
-0.0217336
-0.021294
-0.0208612
-0.0204357
-0.0200178
-0.0196078
-0.0192059
-0.0188123
-0.0184271
-0.0180503
-0.017682
-0.017322
-0.0169703
-0.0166268
-0.0162912
-0.0159635
-0.0156433
-0.0153305
-0.0150248
-0.014726
-0.0144339
-0.0141481
-0.0138686
-0.0135949
-0.0133268
-0.0130642
-0.0128067
-0.0125542
-0.0123064
-0.0120631
-0.0118241
-0.0115891
-0.0113581
-0.0111307
-0.0109069
-0.0106864
-0.0104691
-0.0102548
-0.0100434
-0.00983469
-0.00962861
-0.00942498
-0.0092237
-0.00902463
-0.00882768
-0.00863273
-0.00843968
-0.00824844
-0.00805892
-0.00787102
-0.00768467
-0.00749979
-0.0073163
-0.00713414
-0.00695324
-0.00677353
-0.00659495
-0.00641745
-0.00624097
-0.00606545
-0.00589086
-0.00571715
-0.00554426
-0.00537216
-0.0052008
-0.00503016
-0.00486018
-0.00469084
-0.0045221
-0.00435393
-0.0041863
-0.00401918
-0.00385254
-0.00368636
-0.0035206
-0.00335525
-0.00319028
-0.00302566
-0.00286138
-0.00269741
-0.00253374
-0.00237033
-0.00220718
-0.00204426
-0.00188156
-0.00171905
-0.00155672
-0.00139455
-0.00123253
-0.00107062
-0.000908877
-0.000747036
-0.000585853
-0.000422395
-0.000264906
-7.51027e-05
21.9721
21.6259
19.6852
19.9492
19.9553
19.7371
17.9608
11.3554
3.3865
-0.873556
-1.654
-1.52046
-0.508786
0.739776
1.55945
1.53608
1.45791
2.17758
2.5834
3.15155
2.97861
2.44082
2.28964
1.59478
0.158693
-0.370005
-0.476007
0.259596
1.06838
1.50976
1.56783
1.55036
1.55718
1.50497
1.38537
1.24445
1.11084
0.994443
0.901003
0.839027
0.81545
0.834427
0.898989
1.00968
1.17186
1.4269
1.88163
2.35931
1.90933
1.57935
1.37557
1.22637
1.13424
1.08715
1.06522
1.05226
1.03802
1.01899
0.99717
0.978975
0.974805
0.995997
1.05016
1.15918
1.40422
1.70595
1.47255
1.17942
1.07728
1.06456
1.1094
1.21404
1.37264
1.57965
1.82887
2.08249
2.1908
2.1455
2.13684
2.20069
2.3211
2.49579
2.70305
2.88593
2.95261
2.9453
2.98461
3.08418
3.21406
3.3419
3.43734
3.52164
3.62013
3.72164
3.81115
3.89001
3.96998
4.0526
4.12991
4.19981
4.26579
4.3274
4.38069
4.42386
4.45643
4.4771
4.48517
4.48125
4.46618
4.44078
4.40616
4.3634
4.31339
4.2569
4.19457
4.12688
4.05421
3.97691
3.89529
3.80965
3.72037
3.62783
3.53245
3.43467
3.33491
3.23362
3.13123
3.02817
2.92486
2.82171
2.71908
2.61734
2.51679
2.41773
2.3204
2.225
2.13173
2.04071
1.95209
1.86596
1.78239
1.70145
1.62318
1.5476
1.47472
1.40455
1.33706
1.27223
1.21002
1.15039
1.09329
1.03864
0.986384
0.936444
0.888738
0.843182
0.799685
0.758158
0.718505
0.680632
0.644444
0.609849
0.576755
0.545074
0.51472
0.485614
0.457679
0.430843
0.405042
0.380213
0.356299
0.333249
0.311014
0.289551
0.268819
0.248781
0.229402
0.210652
0.192501
0.174923
0.157894
0.141391
0.125396
0.109889
0.0948558
0.0802819
0.0661551
0.0524653
0.0392041
0.0263647
0.0139422
0.00193334
-0.0096637
-0.0208491
-0.0316218
-0.0419793
-0.0519182
-0.0614341
-0.0705219
-0.0791764
-0.087392
-0.0951634
-0.102486
-0.109356
-0.11577
-0.121727
-0.127228
-0.132275
-0.136873
-0.141027
-0.144748
-0.148045
-0.150932
-0.153423
-0.155536
-0.157288
-0.1587
-0.159791
-0.160584
-0.161098
-0.161357
-0.161382
-0.161194
-0.160813
-0.16026
-0.159553
-0.158709
-0.157747
-0.156679
-0.155521
-0.154285
-0.152982
-0.151622
-0.150214
-0.148766
-0.147283
-0.145772
-0.144237
-0.142683
-0.141111
-0.139526
-0.137928
-0.13632
-0.134703
-0.133078
-0.131445
-0.129806
-0.12816
-0.126509
-0.124853
-0.123193
-0.121528
-0.11986
-0.118188
-0.116515
-0.114841
-0.113166
-0.111491
-0.109818
-0.108148
-0.106481
-0.10482
-0.103165
-0.101517
-0.0998789
-0.0982506
-0.0966338
-0.09503
-0.0934403
-0.0918661
-0.0903086
-0.088769
-0.0872483
-0.0857477
-0.0842682
-0.0828107
-0.0813759
-0.0799647
-0.0785777
-0.0772154
-0.0758784
-0.074567
-0.0732813
-0.0720217
-0.070788
-0.0695803
-0.0683983
-0.0672418
-0.0661104
-0.0650036
-0.0639208
-0.0628614
-0.0618245
-0.0608094
-0.0598151
-0.0588408
-0.0578855
-0.0569482
-0.056028
-0.0551238
-0.0542347
-0.0533599
-0.0524986
-0.05165
-0.0508135
-0.0499886
-0.0491749
-0.0483721
-0.04758
-0.0467987
-0.0460281
-0.0452684
-0.04452
-0.043783
-0.0430578
-0.0423448
-0.0416444
-0.0409569
-0.0402825
-0.0396214
-0.0389739
-0.0383398
-0.0377192
-0.0371118
-0.0365174
-0.0359356
-0.0353659
-0.0348079
-0.0342608
-0.0337241
-0.0331971
-0.0326789
-0.0321687
-0.0316657
-0.0311691
-0.0306778
-0.0301909
-0.0297076
-0.0292271
-0.0287485
-0.0282713
-0.0277948
-0.0273188
-0.0268431
-0.0263676
-0.0258926
-0.0254183
-0.0249452
-0.0244738
-0.0240049
-0.023539
-0.0230769
-0.0226192
-0.0221667
-0.02172
-0.0212797
-0.0208462
-0.0204202
-0.0200018
-0.0195914
-0.0191893
-0.0187956
-0.0184104
-0.0180337
-0.0176655
-0.0173057
-0.0169543
-0.0166111
-0.0162759
-0.0159485
-0.0156288
-0.0153164
-0.0150112
-0.0147129
-0.0144213
-0.014136
-0.0138569
-0.0135837
-0.0133162
-0.013054
-0.012797
-0.0125449
-0.0122976
-0.0120547
-0.011816
-0.0115815
-0.0113508
-0.0111238
-0.0109003
-0.0106801
-0.0104631
-0.0102491
-0.010038
-0.00982961
-0.00962378
-0.0094204
-0.00921935
-0.00902051
-0.00882377
-0.00862902
-0.00843616
-0.0082451
-0.00805575
-0.00786801
-0.00768181
-0.00749708
-0.00731373
-0.00713171
-0.00695093
-0.00677134
-0.00659288
-0.00641548
-0.0062391
-0.00606369
-0.00588919
-0.00571556
-0.00554276
-0.00537074
-0.00519946
-0.00502888
-0.00485898
-0.0046897
-0.00452102
-0.00435291
-0.00418534
-0.00401827
-0.00385169
-0.00368556
-0.00351985
-0.00335455
-0.00318962
-0.00302505
-0.00286081
-0.00269688
-0.00253325
-0.00236988
-0.00220677
-0.00204389
-0.00188122
-0.00171875
-0.00155645
-0.00139432
-0.00123233
-0.00107045
-0.000908738
-0.000746929
-0.000585777
-0.000422351
-0.000264888
-7.51198e-05
21.0384
20.9975
19.9502
19.9282
19.704
15.2771
1.89161
0.466863
0.76055
1.44602
2.7685
1.40887
0.752575
0.534287
1.75935
1.76189
1.22762
1.34601
2.28336
3.02295
3.20057
4.29863
5.45863
3.10916
-2.18689
-0.234838
-0.0480896
0.046816
0.174072
0.209287
0.244993
0.308582
0.354264
0.355278
0.339217
0.321593
0.310476
0.308231
0.30921
0.3111
0.31572
0.324817
0.338739
0.362497
0.410385
0.544048
1.01914
2.22084
0.99529
0.577549
0.474976
0.464774
0.522677
0.607622
0.666583
0.665268
0.595687
0.482525
0.371914
0.310565
0.331325
0.453373
0.683653
1.02835
1.66648
2.53132
1.68918
1.24635
1.09081
0.93611
0.848733
0.843973
0.908444
1.04998
1.29835
1.68789
1.82423
1.62635
1.54324
1.59888
1.75297
2.0083
2.34523
2.66797
2.67659
2.52683
2.53142
2.6538
2.82607
2.99706
3.08647
3.16027
3.27701
3.40433
3.50745
3.58822
3.67829
3.77937
3.87018
3.9487
4.02691
4.10413
4.17162
4.22764
4.27291
4.30481
4.32211
4.32637
4.31879
4.30025
4.27227
4.2362
4.19291
4.14322
4.08772
4.02678
3.96072
3.88975
3.81411
3.73406
3.64994
3.56217
3.47117
3.37742
3.28137
3.18348
3.0842
2.98399
2.88329
2.78253
2.68213
2.58246
2.48385
2.38661
2.29099
2.1972
2.10543
2.01584
1.92856
1.84369
1.7613
1.68148
1.60426
1.52967
1.45773
1.38844
1.32179
1.25776
1.19631
1.13741
1.081
1.02703
0.975416
0.926096
0.878989
0.834009
0.791068
0.750075
0.710935
0.673552
0.637833
0.603682
0.571009
0.539723
0.50974
0.480979
0.453364
0.426825
0.401296
0.376717
0.353033
0.330193
0.308151
0.286863
0.266292
0.2464
0.227155
0.208526
0.190486
0.173009
0.156071
0.139651
0.12373
0.108289
0.0933146
0.0787919
0.0647093
0.051057
0.0378269
0.0250124
0.0126091
0.000613794
-0.0109748
-0.0221565
-0.0329297
-0.0432914
-0.0532374
-0.0627628
-0.0718616
-0.0805275
-0.0887542
-0.0965354
-0.103865
-0.110739
-0.117154
-0.123107
-0.128599
-0.13363
-0.138206
-0.142333
-0.14602
-0.149277
-0.152119
-0.15456
-0.156619
-0.158313
-0.159664
-0.160692
-0.161421
-0.161871
-0.162066
-0.162027
-0.161778
-0.161339
-0.160729
-0.159969
-0.159077
-0.158068
-0.156959
-0.155763
-0.154493
-0.15316
-0.151773
-0.150342
-0.148873
-0.147374
-0.145848
-0.144301
-0.142737
-0.141157
-0.139565
-0.137962
-0.136349
-0.134729
-0.133101
-0.131466
-0.129825
-0.128178
-0.126525
-0.124867
-0.123205
-0.121538
-0.119868
-0.118195
-0.116519
-0.114842
-0.113164
-0.111486
-0.10981
-0.108136
-0.106466
-0.104801
-0.103142
-0.101491
-0.0998483
-0.0982161
-0.0965954
-0.0949877
-0.0933943
-0.0918165
-0.0902555
-0.0887125
-0.0871887
-0.0856852
-0.0842029
-0.0827429
-0.0813059
-0.0798928
-0.0785041
-0.0771405
-0.0758024
-0.0744902
-0.0732042
-0.0719444
-0.0707109
-0.0695037
-0.0683226
-0.0671673
-0.0660373
-0.0649322
-0.0638514
-0.0627941
-0.0617596
-0.0607471
-0.0597555
-0.0587841
-0.0578316
-0.0568971
-0.0559797
-0.0550782
-0.0541916
-0.0533192
-0.0524599
-0.0516131
-0.0507781
-0.0499544
-0.0491415
-0.0483392
-0.0475473
-0.0467658
-0.0459948
-0.0452345
-0.0444853
-0.0437474
-0.0430212
-0.0423073
-0.0416059
-0.0409175
-0.0402425
-0.0395809
-0.0389331
-0.038299
-0.0376786
-0.0370718
-0.0364782
-0.0358975
-0.0353293
-0.0347731
-0.0342281
-0.0336938
-0.0331695
-0.0326542
-0.0321473
-0.0316478
-0.0311546
-0.0306669
-0.0301835
-0.0297035
-0.0292259
-0.0287498
-0.0282745
-0.0277994
-0.0273241
-0.0268484
-0.0263723
-0.0258961
-0.0254202
-0.0249451
-0.0244714
-0.0239999
-0.0235315
-0.0230668
-0.0226066
-0.0221518
-0.021703
-0.0212607
-0.0208257
-0.0203982
-0.0199786
-0.0195674
-0.0191646
-0.0187705
-0.018385
-0.0180082
-0.0176402
-0.0172806
-0.0169296
-0.0165868
-0.0162522
-0.0159254
-0.0156064
-0.0152947
-0.0149902
-0.0146927
-0.0144018
-0.0141173
-0.0138389
-0.0135665
-0.0132997
-0.0130382
-0.0127819
-0.0125305
-0.0122838
-0.0120416
-0.0118035
-0.0115696
-0.0113395
-0.011113
-0.01089
-0.0106704
-0.0104539
-0.0102403
-0.0100296
-0.00982164
-0.0096162
-0.0094132
-0.0092125
-0.009014
-0.00881758
-0.00862314
-0.00843057
-0.00823979
-0.0080507
-0.00786321
-0.00767725
-0.00749274
-0.00730961
-0.00712779
-0.0069472
-0.0067678
-0.00658951
-0.00641228
-0.00623606
-0.00606079
-0.00588644
-0.00571294
-0.00554027
-0.00536837
-0.00519721
-0.00502675
-0.00485695
-0.00468778
-0.0045192
-0.00435118
-0.0041837
-0.00401672
-0.00385022
-0.00368416
-0.00351853
-0.0033533
-0.00318845
-0.00302394
-0.00285977
-0.00269591
-0.00253234
-0.00236903
-0.00220598
-0.00204315
-0.00188054
-0.00171812
-0.00155588
-0.0013938
-0.00123186
-0.00107004
-0.000908374
-0.000746615
-0.000585511
-0.000422135
-0.000264724
-7.5047e-05
20.5365
20.4164
18.2112
18.507
14.2411
1.37931
0.917604
0.694725
0.533065
0.192163
-0.594111
-0.73922
-0.758283
-0.576998
-0.33056
-0.206604
-0.121679
-0.19029
1.09903
2.08953
1.8552
3.04635
6.94252
8.03909
0.617289
0.419694
0.29219
0.158347
0.146252
0.202262
0.255883
0.279116
0.287599
0.295194
0.304085
0.31244
0.318261
0.322029
0.325093
0.328051
0.33149
0.336664
0.345682
0.363216
0.401342
0.475772
0.537298
0.37304
0.0967109
0.168484
0.20916
0.230872
0.245897
0.257245
0.265232
0.27004
0.272706
0.273898
0.274651
0.276756
0.281371
0.292534
0.326359
0.430563
0.907478
3.37847
0.572034
-0.32395
-0.174319
-0.0697078
0.0371931
0.215391
0.475715
0.872581
1.4867
2.45133
2.28533
1.57162
1.34962
1.26898
1.30147
1.48224
1.84731
2.42134
2.21794
1.78696
1.7652
1.97018
2.28733
2.60424
2.64683
2.67499
2.82659
2.99517
3.10653
3.17121
3.27422
3.40833
3.51858
3.60533
3.70253
3.80602
3.89409
3.96742
4.0306
4.07737
4.10591
4.12054
4.12263
4.11281
4.09347
4.06623
4.03189
3.99134
3.9451
3.89335
3.83626
3.77389
3.70632
3.63376
3.55654
3.47509
3.38991
3.30152
3.21039
3.11702
3.02186
2.92542
2.82816
2.73057
2.6331
2.53617
2.44012
2.34529
2.25193
2.16028
2.07053
1.98283
1.89733
1.81412
1.73331
1.65497
1.57914
1.50586
1.43516
1.36704
1.3015
1.23853
1.1781
1.12016
1.06468
1.01159
0.960837
0.912343
0.86603
0.821817
0.779615
0.739332
0.700874
0.664145
0.629049
0.59549
0.563376
0.532616
0.503126
0.474825
0.447637
0.421492
0.396327
0.372083
0.348705
0.326146
0.30436
0.283307
0.262949
0.243253
0.224186
0.20572
0.187828
0.170485
0.153669
0.137358
0.121535
0.106182
0.0912837
0.076828
0.0628032
0.0491996
0.0360095
0.0232269
0.0108476
-0.00113098
-0.0127098
-0.0238881
-0.0346635
-0.0450324
-0.0549897
-0.0645294
-0.0736445
-0.0823275
-0.0905707
-0.0983666
-0.105708
-0.11259
-0.119006
-0.124954
-0.130434
-0.135445
-0.139993
-0.144083
-0.147725
-0.150929
-0.15371
-0.156084
-0.158068
-0.159684
-0.160953
-0.161896
-0.162538
-0.162901
-0.163009
-0.162886
-0.162554
-0.162035
-0.161351
-0.16052
-0.159561
-0.158492
-0.157327
-0.156081
-0.154765
-0.153392
-0.15197
-0.150508
-0.149013
-0.147491
-0.145946
-0.144383
-0.142806
-0.141215
-0.139615
-0.138005
-0.136387
-0.134762
-0.133131
-0.131493
-0.12985
-0.1282
-0.126546
-0.124886
-0.123221
-0.121552
-0.11988
-0.118203
-0.116524
-0.114844
-0.113162
-0.11148
-0.1098
-0.108121
-0.106446
-0.104776
-0.103112
-0.101455
-0.0998076
-0.0981701
-0.0965442
-0.0949313
-0.0933328
-0.0917501
-0.0901844
-0.0886369
-0.0871089
-0.0856014
-0.0841155
-0.0826522
-0.0812122
-0.0797965
-0.0784056
-0.0770401
-0.0757006
-0.0743874
-0.0731008
-0.0718409
-0.0706077
-0.0694012
-0.0682212
-0.0670674
-0.0659394
-0.0648366
-0.0637584
-0.0627041
-0.0616729
-0.0606638
-0.059676
-0.0587083
-0.0577597
-0.0568291
-0.0559154
-0.0550176
-0.0541345
-0.0532652
-0.0524088
-0.0515645
-0.0507315
-0.0499094
-0.0490976
-0.0482959
-0.0475042
-0.0467224
-0.0459508
-0.0451896
-0.0444391
-0.0436999
-0.0429724
-0.0422571
-0.0415547
-0.0408654
-0.0401898
-0.0395282
-0.0388806
-0.0382472
-0.037628
-0.0370226
-0.0364309
-0.0358523
-0.0352863
-0.0347323
-0.0341897
-0.0336578
-0.0331358
-0.0326229
-0.0321182
-0.0316209
-0.03113
-0.0306444
-0.0301632
-0.0296851
-0.0292093
-0.0287348
-0.0282607
-0.0277865
-0.0273116
-0.026836
-0.0263596
-0.0258827
-0.0254057
-0.0249292
-0.0244539
-0.0239807
-0.0235104
-0.0230438
-0.0225819
-0.0221253
-0.0216749
-0.0212312
-0.0207949
-0.0203663
-0.019946
-0.0195342
-0.019131
-0.0187367
-0.0183512
-0.0179746
-0.0176069
-0.0172479
-0.0168974
-0.0165553
-0.0162215
-0.0158956
-0.0155774
-0.0152667
-0.0149632
-0.0146666
-0.0143767
-0.0140932
-0.0138159
-0.0135444
-0.0132785
-0.013018
-0.0127626
-0.0125121
-0.0122663
-0.0120248
-0.0117876
-0.0115545
-0.0113251
-0.0110993
-0.010877
-0.010658
-0.0104421
-0.0102292
-0.0100191
-0.00981161
-0.00960668
-0.00940417
-0.00920394
-0.00900587
-0.00880987
-0.00861583
-0.00842364
-0.00823322
-0.00804447
-0.0078573
-0.00767165
-0.00748743
-0.00730458
-0.00712302
-0.00694268
-0.00676351
-0.00658545
-0.00640843
-0.00623241
-0.00605734
-0.00588316
-0.00570985
-0.00553734
-0.0053656
-0.00519459
-0.00502427
-0.00485461
-0.00468556
-0.00451711
-0.00434921
-0.00418184
-0.00401497
-0.00384858
-0.00368262
-0.00351709
-0.00335195
-0.00318719
-0.00302277
-0.00285869
-0.00269491
-0.00253141
-0.00236818
-0.0022052
-0.00204245
-0.00187991
-0.00171756
-0.00155538
-0.00139337
-0.0012315
-0.00106974
-0.000908135
-0.000746438
-0.000585396
-0.000422085
-0.000264723
-7.5106e-05
18.9456
16.1264
16.2693
15.2928
9.92813
1.82282
0.433942
0.201937
0.110793
-0.0729466
-0.31496
-0.453543
-0.477626
-0.416381
-0.319004
-0.264051
-0.308611
-0.38288
-0.197692
0.0483952
0.152275
0.916247
1.55217
-0.195647
0.0286116
0.0582739
-0.0266576
-0.0297722
0.0703673
0.185124
0.263687
0.297454
0.304071
0.30243
0.301871
0.305173
0.310242
0.314969
0.319119
0.3231
0.327453
0.332791
0.33984
0.349971
0.366038
0.38633
0.386811
0.346748
0.285924
0.270152
0.268094
0.269769
0.272812
0.276561
0.280672
0.284794
0.288496
0.291527
0.29415
0.296934
0.300369
0.307769
0.330156
0.379499
0.441279
0.348585
0.0723615
0.186674
0.241438
0.268979
0.288353
0.308242
0.345043
0.42786
0.660064
2.33439
2.15431
0.242009
-0.0715907
-0.0152633
0.209404
0.704111
1.71725
3.61477
2.22451
1.31282
1.35412
1.41342
1.6692
2.24228
2.08128
1.96554
2.18542
2.48503
2.62706
2.62935
2.76018
2.96142
3.08792
3.1642
3.28557
3.42963
3.54313
3.63821
3.72844
3.79562
3.83715
3.86449
3.87813
3.87802
3.86896
3.85272
3.82961
3.80073
3.76636
3.72639
3.68082
3.62947
3.57216
3.50903
3.4404
3.36682
3.28889
3.20717
3.12218
3.03443
2.9444
2.85261
2.7596
2.66592
2.57207
2.47852
2.38566
2.29382
2.20329
2.11431
2.02707
1.94173
1.85845
1.77733
1.69848
1.62197
1.54787
1.47622
1.40705
1.34039
1.27624
1.21458
1.1554
1.09867
1.04434
0.992356
0.942668
0.895202
0.849883
0.806629
0.765352
0.72596
0.688359
0.65245
0.618137
0.585322
0.55391
0.523811
0.494938
0.467211
0.440554
0.414898
0.390182
0.366349
0.343347
0.321131
0.299659
0.278892
0.258795
0.239337
0.220489
0.202222
0.184511
0.167333
0.150666
0.134491
0.11879
0.103545
0.0887435
0.0743719
0.0604197
0.0468776
0.0337384
0.0209964
0.00864779
-0.0033095
-0.0148758
-0.0260499
-0.0368285
-0.0472071
-0.0571795
-0.0667385
-0.0758756
-0.0845817
-0.0928476
-0.100664
-0.108022
-0.114914
-0.121335
-0.127278
-0.132744
-0.137731
-0.142243
-0.146287
-0.149871
-0.153007
-0.155711
-0.157998
-0.159889
-0.161405
-0.162568
-0.163403
-0.163934
-0.164186
-0.164184
-0.163953
-0.163517
-0.162898
-0.162119
-0.161199
-0.160157
-0.159011
-0.157777
-0.156467
-0.155096
-0.153673
-0.152207
-0.150707
-0.14918
-0.14763
-0.146063
-0.144481
-0.142887
-0.141285
-0.139674
-0.138056
-0.136432
-0.134802
-0.133167
-0.131526
-0.12988
-0.128229
-0.126572
-0.124909
-0.123242
-0.121571
-0.119894
-0.118215
-0.116532
-0.114847
-0.11316
-0.111473
-0.109787
-0.108103
-0.106422
-0.104745
-0.103074
-0.101411
-0.0997567
-0.0981125
-0.0964799
-0.0948605
-0.0932557
-0.0916668
-0.0900951
-0.088542
-0.0870086
-0.0854962
-0.0840057
-0.0825381
-0.0810944
-0.0796754
-0.0782817
-0.0769139
-0.0755726
-0.0742581
-0.0729708
-0.0717106
-0.0704778
-0.0692722
-0.0680937
-0.0669418
-0.0658162
-0.0647164
-0.0636416
-0.0625911
-0.061564
-0.0605594
-0.0595763
-0.0586134
-0.0576698
-0.0567441
-0.0558353
-0.0549421
-0.0540635
-0.0531983
-0.0523455
-0.0515043
-0.0506739
-0.0498537
-0.0490433
-0.0482424
-0.0474509
-0.0466688
-0.0458963
-0.0451338
-0.0443817
-0.0436407
-0.0429112
-0.0421939
-0.0414895
-0.0407985
-0.0401213
-0.0394584
-0.03881
-0.0381763
-0.0375572
-0.0369527
-0.0363623
-0.0357857
-0.0352223
-0.0346717
-0.0341331
-0.0336058
-0.033089
-0.032582
-0.0320837
-0.0315931
-0.0311092
-0.0306307
-0.0301563
-0.0296847
-0.0292146
-0.0287449
-0.0282744
-0.0278026
-0.0273287
-0.0268528
-0.0263748
-0.0258952
-0.0254147
-0.0249339
-0.0244539
-0.0239756
-0.0235002
-0.0230287
-0.022562
-0.022101
-0.0216466
-0.0211994
-0.02076
-0.020329
-0.0199066
-0.0194932
-0.0190889
-0.0186939
-0.018308
-0.0179314
-0.0175639
-0.0172053
-0.0168555
-0.0165143
-0.0161814
-0.0158566
-0.0155396
-0.0152301
-0.0149278
-0.0146325
-0.0143439
-0.0140617
-0.0137857
-0.0135155
-0.0132508
-0.0129915
-0.0127373
-0.012488
-0.0122432
-0.0120029
-0.0117667
-0.0115345
-0.0113061
-0.0110813
-0.0108599
-0.0106417
-0.0104266
-0.0102144
-0.010005
-0.00979825
-0.00959398
-0.00939209
-0.00919245
-0.00899495
-0.00879949
-0.00860596
-0.00841425
-0.00822429
-0.00803598
-0.00784923
-0.00766398
-0.00748013
-0.00729763
-0.00711641
-0.00693639
-0.00675753
-0.00657975
-0.00640301
-0.00622726
-0.00605243
-0.0058785
-0.00570541
-0.00553312
-0.00536158
-0.00519077
-0.00502064
-0.00485115
-0.00468228
-0.00451399
-0.00434625
-0.00417903
-0.0040123
-0.00384604
-0.00368022
-0.00351482
-0.0033498
-0.00318516
-0.00302086
-0.00285688
-0.00269321
-0.00252982
-0.00236669
-0.00220381
-0.00204115
-0.0018787
-0.00171645
-0.00155437
-0.00139244
-0.00123066
-0.00106898
-0.000907462
-0.000745848
-0.000584888
-0.000421661
-0.00026439
-7.49421e-05
25.9203
13.774
14.4711
11.0063
1.91165
0.297837
-0.0934496
-0.0748945
-0.19273
-0.324267
-0.418612
-0.462775
-0.453967
-0.386769
-0.300681
-0.237258
-0.196896
-0.138672
-0.0475959
0.0560704
0.121793
0.179821
0.237532
0.150021
0.0564411
-0.0605905
-0.178104
-0.124857
0.0180438
0.151052
0.237723
0.274551
0.283662
0.289054
0.293913
0.299179
0.304639
0.309414
0.31345
0.317215
0.321186
0.325705
0.330994
0.336993
0.342799
0.345105
0.335799
0.312
0.289894
0.279975
0.27614
0.275435
0.276451
0.27854
0.281371
0.284666
0.288101
0.291456
0.294574
0.297381
0.300244
0.304441
0.313344
0.330493
0.342239
0.337443
0.294641
0.290271
0.295721
0.302971
0.311852
0.326444
0.35503
0.419331
0.531342
0.425429
-0.228173
0.0221232
0.136273
0.189798
0.251056
0.367097
0.603189
5.28
1.18529
-1.04994
-0.365084
0.360619
1.30331
2.79833
1.74537
1.53895
1.75849
2.0795
2.15258
1.94355
2.09126
2.4298
2.57547
2.5983
2.76972
2.99257
3.12972
3.24344
3.37087
3.45963
3.51145
3.55549
3.5841
3.5947
3.59807
3.59509
3.58528
3.57081
3.55123
3.52592
3.49478
3.45708
3.41231
3.36051
3.30213
3.23788
3.16856
3.09481
3.01719
2.93615
2.85221
2.76593
2.67793
2.58884
2.49927
2.40972
2.32064
2.23238
2.14524
2.05945
1.97521
1.8927
1.81207
1.73344
1.65692
1.58261
1.51056
1.44085
1.37352
1.30859
1.24607
1.18598
1.12829
1.07299
1.02003
0.969371
0.920956
0.874718
0.830585
0.788477
0.748307
0.709982
0.673407
0.638482
0.605107
0.573184
0.542615
0.513308
0.485175
0.458136
0.432117
0.407049
0.382873
0.359535
0.336986
0.315183
0.294088
0.273665
0.253883
0.234713
0.216126
0.198097
0.180603
0.163623
0.147134
0.13112
0.115562
0.100445
0.0857558
0.0714821
0.0576137
0.0441421
0.0310604
0.0183635
0.00604811
-0.00588725
-0.0174423
-0.028615
-0.0394013
-0.0497956
-0.0597903
-0.0693766
-0.0785444
-0.0872827
-0.0955801
-0.103425
-0.110807
-0.117716
-0.124144
-0.130085
-0.135536
-0.140495
-0.144966
-0.148954
-0.152469
-0.155523
-0.158131
-0.160313
-0.162088
-0.163481
-0.164515
-0.165217
-0.165612
-0.165728
-0.165592
-0.165229
-0.164665
-0.163924
-0.163029
-0.162001
-0.160859
-0.159621
-0.158302
-0.156918
-0.155479
-0.153996
-0.152479
-0.150935
-0.149369
-0.147788
-0.146194
-0.14459
-0.142979
-0.141362
-0.13974
-0.138114
-0.136483
-0.134848
-0.133209
-0.131565
-0.129916
-0.128262
-0.126603
-0.124938
-0.123268
-0.121593
-0.119913
-0.118229
-0.116541
-0.114851
-0.113159
-0.111465
-0.109772
-0.108081
-0.106392
-0.104708
-0.10303
-0.101358
-0.0996956
-0.0980432
-0.0964026
-0.0947753
-0.0931627
-0.0915662
-0.0899874
-0.0884274
-0.0868875
-0.085369
-0.0838729
-0.0824003
-0.080952
-0.079529
-0.0781319
-0.0767613
-0.0754178
-0.0741018
-0.0728136
-0.0715532