/*--------------------------------*- C++ -*----------------------------------*\
| =========                 |                                                 |
| \\      /  F ield         | OpenFOAM: The Open Source CFD Toolbox           |
|  \\    /   O peration     | Version:  v2006                                 |
|   \\  /    A nd           | Website:  www.openfoam.com                      |
|    \\/     M anipulation  |                                                 |
\*---------------------------------------------------------------------------*/
FoamFile
{
    version     2.0;
    format      ascii;
    class       volScalarField;
    location    "17.8";
    object      p;
}
// * * * * * * * * * * * * * * * * * * * * * * * * * * * * * * * * * * * * * //

dimensions      [1 -1 -2 0 0 0 0];


internalField   nonuniform List<scalar> 
52500
(
31419.4
31419.3
31419.3
31419.2
31419
31418.8
31418.6
31418.3
31418
31417.7
31417.3
31416.9
31416.5
31416
31415.5
31415
31414.4
31413.9
31413.2
31412.6
31411.9
31411.2
31410.5
31409.8
31409
31408.2
31407.4
31406.6
31405.8
31404.9
31404
31403.2
31402.3
31401.4
31400.4
31399.5
31398.6
31397.6
31396.7
31395.7
31394.8
31393.8
31392.9
31391.9
31391
31390.1
31389.1
31388.2
31387.3
31386.4
31385.5
31384.6
31383.7
31382.9
31382
31381.2
31380.3
31379.5
31378.7
31377.9
31377.2
31376.4
31375.7
31374.9
31374.2
31373.6
31372.9
31372.2
31371.6
31371
31370.4
31369.9
31369.3
31368.8
31368.3
31367.8
31367.4
31366.9
31366.5
31366.1
31365.7
31365.4
31365
31364.7
31364.4
31364.1
31363.9
31363.6
31363.4
31363.1
31362.9
31362.7
31362.5
31362.4
31362.2
31362
31361.9
31361.7
31361.5
31361.4
31361.2
31361.1
31360.9
31360.8
31360.6
31360.4
31360.2
31360
31359.8
31359.6
31359.4
31359.1
31358.8
31358.5
31358.2
31357.8
31357.4
31357
31356.6
31356.1
31355.6
31355
31354.4
31353.8
31353.1
31352.4
31351.6
31350.8
31349.9
31349
31348.1
31347
31345.9
31344.8
31343.6
31342.3
31341
31339.6
31338.1
31336.6
31335
31333.3
31331.5
31329.7
31327.8
31325.8
31323.7
31321.6
31319.3
31317
31314.6
31312.1
31309.5
31306.9
31304.1
31301.3
31298.4
31295.4
31292.3
31289.1
31285.9
31282.5
31279
31275.5
31271.8
31268.1
31264.2
31260.2
31256.1
31251.9
31247.6
31243.3
31238.8
31234.2
31229.5
31224.8
31219.9
31214.9
31209.9
31204.7
31199.4
31194
31188.6
31183
31177.3
31171.5
31165.6
31159.6
31153.5
31147.3
31141
31134.6
31128.1
31121.4
31114.7
31107.9
31101
31093.9
31086.8
31079.6
31072.2
31064.8
31057.3
31049.6
31041.9
31034.1
31026.2
31018.2
31010.1
31001.9
30993.6
30985.2
30976.7
30968.2
30959.6
30950.9
30942.1
30933.2
30924.3
30915.3
30906.2
30897.1
30887.9
30878.7
30869.4
30860
30850.6
30841.2
30831.7
30822.1
30812.6
30803
30793.3
30783.7
30774
30764.3
30754.6
30744.9
30735.1
30725.4
30715.6
30705.9
30696.2
30686.4
30676.7
30667
30657.3
30647.6
30638
30628.3
30618.7
30609.1
30599.6
30590.1
30580.6
30571.1
30561.7
30552.3
30543
30533.7
30524.5
30515.3
30506.2
30497.1
30488.1
30479.1
30470.2
30461.4
30452.6
30443.8
30435.2
30426.6
30418
30409.5
30401.1
30392.8
30384.5
30376.3
30368.1
30360.1
30352.1
30344.2
30336.4
30328.7
30321.1
30313.6
30306.3
30299
30291.8
30284.7
30277.7
30270.8
30263.9
30257.2
30250.5
30243.9
30237.4
30231.1
30224.8
30218.6
30212.5
30206.5
30200.6
30194.9
30189.2
30183.7
30178.2
30172.9
30167.7
30162.6
30157.6
30152.7
30148
30143.3
30138.8
30134.4
30130.1
30125.9
30121.9
30117.9
30114.1
30110.5
30106.9
30103.4
30100.1
30096.9
30093.8
30090.9
30088.1
30085.4
30082.8
30080.4
30078
30075.9
30073.8
30071.9
30070.1
30068.4
30066.9
30065.5
30064.2
30063
30062
30061.1
30060.4
30059.7
30059.2
30058.8
30058.6
30058.5
30961.7
30961.6
30961.6
30961.5
30961.3
30961.1
30960.9
30960.6
30960.3
30960
30959.6
30959.2
30958.8
30958.3
30957.8
30957.3
30956.7
30956.1
30955.5
30954.9
30954.2
30953.5
30952.8
30952
30951.3
30950.5
30949.7
30948.8
30948
30947.1
30946.3
30945.4
30944.5
30943.6
30942.7
30941.7
30940.8
30939.9
30938.9
30938
30937
30936
30935.1
30934.1
30933.2
30932.2
30931.3
30930.4
30929.5
30928.5
30927.6
30926.8
30925.9
30925
30924.1
30923.3
30922.5
30921.6
30920.8
30920
30919.3
30918.5
30917.8
30917
30916.3
30915.7
30915
30914.3
30913.7
30913.1
30912.5
30912
30911.4
30910.9
30910.4
30909.9
30909.5
30909
30908.6
30908.2
30907.8
30907.5
30907.1
30906.8
30906.5
30906.2
30906
30905.7
30905.5
30905.3
30905
30904.8
30904.7
30904.5
30904.3
30904.1
30904
30903.8
30903.7
30903.5
30903.4
30903.2
30903.1
30902.9
30902.8
30902.6
30902.4
30902.2
30902
30901.8
30901.5
30901.3
30901
30900.7
30900.4
30900
30899.6
30899.2
30898.8
30898.3
30897.8
30897.2
30896.7
30896
30895.4
30894.6
30893.9
30893.1
30892.2
30891.3
30890.3
30889.3
30888.2
30887.1
30885.8
30884.6
30883.2
30881.9
30880.4
30878.9
30877.2
30875.6
30873.8
30872
30870.1
30868.1
30866.1
30863.9
30861.7
30859.4
30857
30854.5
30852
30849.3
30846.6
30843.8
30840.9
30837.9
30834.7
30831.5
30828.2
30824.8
30821.3
30817.8
30814.1
30810.3
30806.4
30802.5
30798.5
30794.3
30790
30785.7
30781.2
30776.7
30772
30767.2
30762.4
30757.4
30752.3
30747.1
30741.9
30736.5
30731
30725.4
30719.7
30713.9
30708
30702
30695.9
30689.7
30683.4
30677
30670.4
30663.8
30657.1
30650.3
30643.3
30636.3
30629.2
30621.9
30614.6
30607.1
30599.6
30592
30584.2
30576.4
30568.5
30560.5
30552.3
30544.1
30535.9
30527.5
30519
30510.5
30501.8
30493.1
30484.3
30475.5
30466.5
30457.5
30448.4
30439.3
30430.1
30420.9
30411.5
30402.2
30392.8
30383.3
30373.8
30364.3
30354.7
30345.1
30335.5
30325.8
30316.1
30306.4
30296.7
30287
30277.2
30267.5
30257.7
30248
30238.2
30228.5
30218.8
30209
30199.3
30189.7
30180
30170.4
30160.8
30151.2
30141.6
30132.1
30122.6
30113.2
30103.7
30094.4
30085.1
30075.8
30066.5
30057.4
30048.2
30039.1
30030.1
30021.1
30012.2
30003.4
29994.6
29985.9
29977.2
29968.6
29960
29951.6
29943.1
29934.8
29926.5
29918.3
29910.1
29902.1
29894
29886.1
29878.3
29870.7
29863.1
29855.6
29848.3
29841
29833.8
29826.7
29819.6
29812.7
29805.8
29799.1
29792.4
29785.8
29779.3
29772.9
29766.6
29760.5
29754.4
29748.4
29742.5
29736.8
29731.1
29725.6
29720.1
29714.8
29709.6
29704.5
29699.5
29694.6
29689.8
29685.2
29680.7
29676.2
29671.9
29667.7
29663.7
29659.8
29656
29652.3
29648.7
29645.3
29642
29638.8
29635.7
29632.7
29629.9
29627.2
29624.6
29622.2
29619.9
29617.7
29615.7
29613.7
29611.9
29610.3
29608.7
29607.3
29606
29604.9
29603.9
29603
29602.2
29601.6
29601.1
29600.7
29600.4
29600.3
30504
30504
30503.9
30503.8
30503.6
30503.5
30503.2
30503
30502.7
30502.3
30502
30501.6
30501.1
30500.6
30500.1
30499.6
30499
30498.4
30497.8
30497.2
30496.5
30495.8
30495
30494.3
30493.5
30492.7
30491.9
30491.1
30490.3
30489.4
30488.5
30487.6
30486.7
30485.8
30484.9
30483.9
30483
30482
30481.1
30480.1
30479.2
30478.2
30477.2
30476.3
30475.3
30474.4
30473.4
30472.5
30471.5
30470.6
30469.7
30468.8
30467.9
30467
30466.1
30465.3
30464.4
30463.6
30462.8
30462
30461.2
30460.4
30459.7
30459
30458.2
30457.6
30456.9
30456.2
30455.6
30455
30454.4
30453.9
30453.3
30452.8
30452.3
30451.8
30451.4
30450.9
30450.5
30450.1
30449.7
30449.4
30449.1
30448.7
30448.4
30448.2
30447.9
30447.7
30447.4
30447.2
30447
30446.8
30446.6
30446.5
30446.3
30446.1
30446
30445.9
30445.7
30445.6
30445.4
30445.3
30445.1
30445
30444.8
30444.7
30444.5
30444.3
30444.1
30443.9
30443.7
30443.4
30443.2
30442.9
30442.6
30442.2
30441.9
30441.5
30441
30440.6
30440.1
30439.5
30439
30438.4
30437.7
30437
30436.2
30435.4
30434.6
30433.7
30432.7
30431.7
30430.7
30429.5
30428.3
30427.1
30425.8
30424.4
30422.9
30421.4
30419.8
30418.1
30416.4
30414.6
30412.7
30410.7
30408.7
30406.5
30404.3
30402
30399.6
30397.2
30394.6
30392
30389.2
30386.4
30383.5
30380.5
30377.4
30374.2
30371
30367.6
30364.1
30360.6
30356.9
30353.1
30349.3
30345.3
30341.2
30337.1
30332.8
30328.4
30323.9
30319.4
30314.7
30309.9
30305
30300.1
30295
30289.8
30284.5
30279.1
30273.6
30268
30262.3
30256.5
30250.6
30244.6
30238.5
30232.3
30226
30219.5
30213
30206.4
30199.6
30192.8
30185.8
30178.8
30171.6
30164.4
30157
30149.6
30142.1
30134.4
30126.7
30118.8
30110.9
30102.8
30094.7
30086.5
30078.2
30069.8
30061.3
30052.8
30044.1
30035.4
30026.6
30017.7
30008.8
29999.8
29990.7
29981.5
29972.3
29963
29953.7
29944.3
29934.9
29925.4
29915.9
29906.4
29896.8
29887.2
29877.5
29867.8
29858.1
29848.4
29838.7
29828.9
29819.2
29809.4
29799.7
29789.9
29780.2
29770.4
29760.7
29751
29741.3
29731.6
29721.9
29712.3
29702.6
29693
29683.5
29674
29664.5
29655
29645.6
29636.2
29626.9
29617.6
29608.4
29599.2
29590
29581
29571.9
29563
29554
29545.2
29536.4
29527.6
29519
29510.4
29501.8
29493.3
29484.9
29476.6
29468.3
29460.1
29452
29443.9
29435.9
29428.1
29420.3
29412.6
29405
29397.4
29390
29382.7
29375.5
29368.3
29361.3
29354.3
29347.5
29340.7
29334
29327.4
29320.9
29314.5
29308.2
29302.1
29296
29290
29284.1
29278.4
29272.7
29267.1
29261.7
29256.4
29251.1
29246
29241
29236.2
29231.4
29226.8
29222.2
29217.8
29213.5
29209.4
29205.3
29201.3
29197.5
29193.8
29190.2
29186.8
29183.5
29180.3
29177.2
29174.2
29171.4
29168.7
29166.1
29163.7
29161.4
29159.2
29157.1
29155.2
29153.4
29151.7
29150.2
29148.8
29147.5
29146.4
29145.4
29144.5
29143.7
29143.1
29142.6
29142.2
29141.9
29141.8
30046.3
30046.3
30046.2
30046.1
30046
30045.8
30045.6
30045.3
30045
30044.6
30044.3
30043.9
30043.4
30042.9
30042.4
30041.9
30041.3
30040.7
30040.1
30039.4
30038.8
30038
30037.3
30036.6
30035.8
30035
30034.2
30033.3
30032.5
30031.6
30030.7
30029.8
30028.9
30028
30027.1
30026.1
30025.2
30024.2
30023.2
30022.3
30021.3
30020.3
30019.3
30018.4
30017.4
30016.4
30015.5
30014.5
30013.6
30012.6
30011.7
30010.8
30009.8
30009
30008.1
30007.2
30006.3
30005.5
30004.7
30003.9
30003.1
30002.3
30001.5
30000.8
30000.1
29999.4
29998.7
29998.1
29997.4
29996.8
29996.2
29995.7
29995.1
29994.6
29994.1
29993.6
29993.1
29992.7
29992.3
29991.9
29991.5
29991.2
29990.9
29990.5
29990.3
29990
29989.7
29989.5
29989.3
29989.1
29988.9
29988.7
29988.5
29988.4
29988.2
29988.1
29987.9
29987.8
29987.7
29987.5
29987.4
29987.3
29987.2
29987
29986.9
29986.8
29986.6
29986.4
29986.3
29986.1
29985.9
29985.6
29985.4
29985.1
29984.8
29984.5
29984.1
29983.8
29983.4
29982.9
29982.4
29981.9
29981.4
29980.8
29980.1
29979.5
29978.7
29978
29977.1
29976.2
29975.3
29974.3
29973.3
29972.2
29971
29969.7
29968.4
29967.1
29965.6
29964.1
29962.6
29960.9
29959.2
29957.4
29955.5
29953.5
29951.5
29949.4
29947.2
29944.9
29942.5
29940.1
29937.5
29934.9
29932.2
29929.4
29926.4
29923.4
29920.3
29917.2
29913.9
29910.5
29907
29903.4
29899.8
29896
29892.1
29888.2
29884.1
29879.9
29875.7
29871.3
29866.8
29862.3
29857.6
29852.8
29847.9
29842.9
29837.8
29832.7
29827.4
29822
29816.5
29810.8
29805.1
29799.3
29793.4
29787.4
29781.2
29775
29768.7
29762.2
29755.7
29749
29742.3
29735.4
29728.5
29721.4
29714.3
29707
29699.6
29692.2
29684.6
29676.9
29669.2
29661.3
29653.4
29645.3
29637.2
29629
29620.6
29612.2
29603.7
29595.1
29586.5
29577.7
29568.9
29560
29551
29542
29532.9
29523.7
29514.5
29505.2
29495.8
29486.5
29477
29467.5
29458
29448.4
29438.8
29429.2
29419.5
29409.8
29400.1
29390.3
29380.6
29370.8
29361.1
29351.3
29341.5
29331.8
29322
29312.2
29302.5
29292.7
29283
29273.3
29263.7
29254
29244.4
29234.8
29225.2
29215.7
29206.2
29196.7
29187.3
29177.9
29168.6
29159.3
29150
29140.8
29131.7
29122.6
29113.5
29104.6
29095.6
29086.8
29078
29069.2
29060.5
29051.9
29043.4
29034.9
29026.5
29018.1
29009.8
29001.6
28993.5
28985.4
28977.5
28969.6
28961.8
28954.1
28946.4
28938.9
28931.5
28924.2
28916.9
28909.8
28902.7
28895.7
28888.8
28882.1
28875.4
28868.8
28862.3
28855.9
28849.6
28843.4
28837.3
28831.3
28825.4
28819.7
28814
28808.4
28803
28797.7
28792.4
28787.3
28782.3
28777.4
28772.7
28768
28763.5
28759
28754.8
28750.6
28746.5
28742.6
28738.7
28735
28731.5
28728
28724.7
28721.5
28718.4
28715.4
28712.6
28709.9
28707.3
28704.9
28702.5
28700.3
28698.3
28696.3
28694.5
28692.9
28691.3
28689.9
28688.6
28687.5
28686.4
28685.5
28684.8
28684.1
28683.6
28683.3
28683
28682.9
29588.7
29588.7
29588.6
29588.5
29588.3
29588.1
29587.9
29587.6
29587.3
29587
29586.6
29586.2
29585.8
29585.3
29584.8
29584.2
29583.6
29583
29582.4
29581.8
29581.1
29580.4
29579.6
29578.9
29578.1
29577.3
29576.4
29575.6
29574.7
29573.8
29572.9
29572
29571.1
29570.2
29569.2
29568.3
29567.3
29566.3
29565.3
29564.3
29563.4
29562.4
29561.4
29560.4
29559.4
29558.4
29557.4
29556.5
29555.5
29554.5
29553.6
29552.6
29551.7
29550.8
29549.9
29549
29548.1
29547.3
29546.4
29545.6
29544.8
29544
29543.3
29542.5
29541.8
29541.1
29540.4
29539.7
29539.1
29538.5
29537.9
29537.3
29536.8
29536.2
29535.7
29535.3
29534.8
29534.4
29534
29533.6
29533.2
29532.9
29532.5
29532.2
29531.9
29531.7
29531.4
29531.2
29531
29530.8
29530.6
29530.4
29530.3
29530.1
29530
29529.9
29529.8
29529.7
29529.6
29529.4
29529.3
29529.2
29529.1
29529
29528.9
29528.8
29528.7
29528.5
29528.4
29528.2
29528
29527.8
29527.6
29527.3
29527.1
29526.8
29526.5
29526.1
29525.7
29525.3
29524.9
29524.4
29523.8
29523.3
29522.7
29522
29521.3
29520.6
29519.8
29518.9
29518
29517
29516
29514.9
29513.8
29512.6
29511.3
29509.9
29508.5
29507
29505.5
29503.9
29502.2
29500.4
29498.5
29496.6
29494.5
29492.4
29490.3
29488
29485.6
29483.2
29480.6
29478
29475.3
29472.5
29469.6
29466.6
29463.5
29460.4
29457.1
29453.7
29450.2
29446.7
29443
29439.2
29435.4
29431.4
29427.3
29423.2
29418.9
29414.5
29410
29405.4
29400.7
29396
29391.1
29386.1
29381
29375.8
29370.4
29365
29359.5
29353.9
29348.2
29342.3
29336.4
29330.3
29324.2
29318
29311.6
29305.1
29298.6
29291.9
29285.1
29278.3
29271.3
29264.2
29257
29249.7
29242.4
29234.9
29227.3
29219.6
29211.8
29203.9
29196
29187.9
29179.7
29171.5
29163.1
29154.7
29146.2
29137.6
29128.9
29120.1
29111.3
29102.3
29093.3
29084.3
29075.1
29065.9
29056.7
29047.3
29038
29028.5
29019.1
29009.6
29000
28990.4
28980.8
28971.1
28961.4
28951.7
28941.9
28932.2
28922.4
28912.6
28902.8
28893.1
28883.3
28873.5
28863.7
28853.9
28844.1
28834.4
28824.7
28814.9
28805.2
28795.6
28785.9
28776.3
28766.7
28757.2
28747.7
28738.2
28728.8
28719.4
28710
28700.7
28691.5
28682.3
28673.1
28664
28655
28646
28637
28628.2
28619.4
28610.6
28601.9
28593.3
28584.7
28576.2
28567.8
28559.4
28551.2
28543
28534.8
28526.8
28518.8
28510.9
28503.1
28495.4
28487.7
28480.2
28472.7
28465.4
28458.1
28451
28443.9
28436.9
28430
28423.2
28416.5
28409.9
28403.4
28397
28390.7
28384.5
28378.4
28372.4
28366.5
28360.7
28355
28349.5
28344
28338.7
28333.4
28328.3
28323.3
28318.4
28313.6
28309
28304.4
28300
28295.7
28291.5
28287.4
28283.5
28279.6
28275.9
28272.3
28268.9
28265.5
28262.3
28259.2
28256.3
28253.4
28250.7
28248.1
28245.7
28243.3
28241.1
28239.1
28237.1
28235.3
28233.6
28232.1
28230.7
28229.4
28228.2
28227.2
28226.3
28225.5
28224.9
28224.4
28224
28223.7
28223.6
29131.1
29131.1
29131
29130.9
29130.7
29130.5
29130.3
29130
29129.7
29129.4
29129
29128.6
29128.1
29127.7
29127.1
29126.6
29126
29125.4
29124.8
29124.1
29123.4
29122.7
29121.9
29121.2
29120.4
29119.6
29118.7
29117.9
29117
29116.1
29115.2
29114.2
29113.3
29112.3
29111.4
29110.4
29109.4
29108.4
29107.4
29106.4
29105.4
29104.4
29103.4
29102.4
29101.3
29100.3
29099.3
29098.3
29097.4
29096.4
29095.4
29094.4
29093.5
29092.6
29091.6
29090.7
29089.9
29089
29088.1
29087.3
29086.5
29085.7
29084.9
29084.1
29083.4
29082.7
29082
29081.3
29080.7
29080
29079.4
29078.8
29078.3
29077.8
29077.3
29076.8
29076.3
29075.9
29075.5
29075.1
29074.7
29074.4
29074.1
29073.8
29073.5
29073.2
29073
29072.8
29072.6
29072.4
29072.2
29072.1
29072
29071.8
29071.7
29071.6
29071.5
29071.4
29071.3
29071.3
29071.2
29071.1
29071
29070.9
29070.8
29070.8
29070.7
29070.5
29070.4
29070.3
29070.1
29070
29069.8
29069.6
29069.3
29069.1
29068.8
29068.5
29068.1
29067.7
29067.3
29066.9
29066.4
29065.8
29065.3
29064.7
29064
29063.3
29062.5
29061.7
29060.8
29059.9
29058.9
29057.8
29056.7
29055.5
29054.3
29053
29051.6
29050.1
29048.6
29047
29045.3
29043.6
29041.7
29039.8
29037.8
29035.7
29033.6
29031.3
29029
29026.5
29024
29021.4
29018.7
29015.9
29013
29010
29007
29003.8
29000.5
28997.1
28993.7
28990.1
28986.4
28982.7
28978.8
28974.8
28970.7
28966.6
28962.3
28957.9
28953.4
28948.8
28944.1
28939.3
28934.4
28929.4
28924.3
28919.1
28913.7
28908.3
28902.8
28897.1
28891.4
28885.5
28879.6
28873.5
28867.3
28861.1
28854.7
28848.2
28841.6
28834.9
28828.1
28821.2
28814.2
28807.1
28799.9
28792.6
28785.2
28777.7
28770.1
28762.4
28754.6
28746.7
28738.6
28730.6
28722.4
28714.1
28705.7
28697.2
28688.7
28680
28671.3
28662.5
28653.6
28644.7
28635.6
28626.5
28617.4
28608.1
28598.8
28589.5
28580.1
28570.6
28561.1
28551.6
28542
28532.3
28522.7
28513
28503.2
28493.5
28483.7
28473.9
28464.1
28454.3
28444.5
28434.7
28424.9
28415.1
28405.3
28395.5
28385.7
28375.9
28366.1
28356.4
28346.7
28337
28327.3
28317.7
28308.1
28298.6
28289
28279.5
28270.1
28260.7
28251.3
28242
28232.7
28223.5
28214.4
28205.2
28196.2
28187.2
28178.2
28169.4
28160.5
28151.8
28143.1
28134.4
28125.9
28117.3
28108.9
28100.5
28092.3
28084
28075.9
28067.8
28059.8
28051.9
28044.1
28036.4
28028.7
28021.2
28013.7
28006.3
27999.1
27991.9
27984.8
27977.8
27970.9
27964.1
27957.3
27950.7
27944.2
27937.8
27931.5
27925.3
27919.2
27913.2
27907.3
27901.5
27895.8
27890.2
27884.7
27879.4
27874.1
27869
27864
27859.1
27854.3
27849.6
27845.1
27840.6
27836.3
27832.1
27828
27824.1
27820.2
27816.5
27812.9
27809.4
27806.1
27802.9
27799.8
27796.8
27793.9
27791.2
27788.6
27786.2
27783.8
27781.6
27779.5
27777.6
27775.8
27774.1
27772.5
27771.1
27769.8
27768.6
27767.6
27766.7
27765.9
27765.2
27764.7
27764.3
27764.1
27763.9
28673.6
28673.5
28673.4
28673.3
28673.2
28673
28672.8
28672.5
28672.2
28671.8
28671.5
28671
28670.6
28670.1
28669.6
28669
28668.4
28667.8
28667.2
28666.5
28665.8
28665.1
28664.3
28663.5
28662.7
28661.9
28661
28660.1
28659.2
28658.3
28657.4
28656.4
28655.5
28654.5
28653.5
28652.5
28651.5
28650.5
28649.4
28648.4
28647.4
28646.3
28645.3
28644.3
28643.2
28642.2
28641.2
28640.2
28639.1
28638.1
28637.1
28636.2
28635.2
28634.2
28633.3
28632.4
28631.5
28630.6
28629.7
28628.8
28628
28627.2
28626.4
28625.6
28624.9
28624.1
28623.4
28622.7
28622.1
28621.4
28620.8
28620.2
28619.7
28619.2
28618.6
28618.2
28617.7
28617.3
28616.9
28616.5
28616.1
28615.8
28615.5
28615.2
28614.9
28614.7
28614.5
28614.3
28614.1
28613.9
28613.8
28613.6
28613.5
28613.4
28613.3
28613.2
28613.2
28613.1
28613
28613
28612.9
28612.9
28612.8
28612.8
28612.7
28612.7
28612.6
28612.5
28612.4
28612.3
28612.2
28612.1
28611.9
28611.8
28611.6
28611.4
28611.1
28610.8
28610.5
28610.2
28609.8
28609.4
28609
28608.5
28607.9
28607.4
28606.7
28606.1
28605.3
28604.6
28603.7
28602.8
28601.9
28600.9
28599.8
28598.6
28597.4
28596.2
28594.8
28593.4
28591.9
28590.3
28588.7
28586.9
28585.1
28583.2
28581.3
28579.2
28577.1
28574.8
28572.5
28570.1
28567.6
28565
28562.3
28559.5
28556.7
28553.7
28550.6
28547.5
28544.2
28540.8
28537.4
28533.8
28530.1
28526.4
28522.5
28518.5
28514.4
28510.2
28506
28501.6
28497.1
28492.5
28487.7
28482.9
28478
28473
28467.8
28462.6
28457.2
28451.8
28446.2
28440.6
28434.8
28428.9
28422.9
28416.9
28410.7
28404.4
28398
28391.4
28384.8
28378.1
28371.3
28364.4
28357.3
28350.2
28343
28335.6
28328.2
28320.6
28313
28305.3
28297.4
28289.5
28281.4
28273.3
28265.1
28256.7
28248.3
28239.8
28231.2
28222.6
28213.8
28205
28196
28187
28178
28168.8
28159.6
28150.3
28141
28131.6
28122.2
28112.7
28103.1
28093.5
28083.9
28074.2
28064.5
28054.8
28045
28035.2
28025.4
28015.6
28005.7
27995.9
27986.1
27976.2
27966.4
27956.5
27946.7
27936.8
27927
27917.2
27907.5
27897.7
27888
27878.3
27868.6
27858.9
27849.3
27839.7
27830.2
27820.7
27811.2
27801.8
27792.4
27783.1
27773.8
27764.6
27755.4
27746.3
27737.2
27728.2
27719.2
27710.3
27701.5
27692.7
27684
27675.3
27666.8
27658.2
27649.8
27641.4
27633.1
27624.9
27616.7
27608.7
27600.7
27592.7
27584.9
27577.2
27569.5
27561.9
27554.5
27547.1
27539.8
27532.6
27525.4
27518.4
27511.5
27504.7
27497.9
27491.3
27484.8
27478.3
27472
27465.8
27459.7
27453.6
27447.7
27441.9
27436.2
27430.6
27425.1
27419.8
27414.5
27409.4
27404.3
27399.4
27394.6
27389.9
27385.4
27380.9
27376.6
27372.4
27368.3
27364.3
27360.5
27356.7
27353.1
27349.7
27346.3
27343.1
27340
27337
27334.1
27331.4
27328.8
27326.3
27324
27321.7
27319.6
27317.7
27315.8
27314.1
27312.6
27311.1
27309.8
27308.6
27307.6
27306.7
27305.9
27305.2
27304.7
27304.3
27304.1
27303.9
28216.1
28216
28216
28215.9
28215.7
28215.5
28215.3
28215
28214.7
28214.3
28214
28213.5
28213.1
28212.6
28212.1
28211.5
28210.9
28210.3
28209.6
28208.9
28208.2
28207.5
28206.7
28205.9
28205
28204.2
28203.3
28202.4
28201.5
28200.5
28199.6
28198.6
28197.6
28196.6
28195.6
28194.6
28193.5
28192.5
28191.4
28190.4
28189.3
28188.2
28187.2
28186.1
28185.1
28184
28182.9
28181.9
28180.9
28179.8
28178.8
28177.8
28176.8
28175.8
28174.9
28173.9
28173
28172.1
28171.2
28170.3
28169.4
28168.6
28167.8
28167
28166.2
28165.5
28164.7
28164
28163.4
28162.7
28162.1
28161.5
28160.9
28160.4
28159.9
28159.4
28158.9
28158.5
28158.1
28157.7
28157.4
28157
28156.7
28156.5
28156.2
28156
28155.8
28155.6
28155.4
28155.3
28155.1
28155
28154.9
28154.9
28154.8
28154.7
28154.7
28154.7
28154.6
28154.6
28154.6
28154.6
28154.6
28154.6
28154.6
28154.5
28154.5
28154.5
28154.4
28154.4
28154.3
28154.2
28154.1
28154
28153.8
28153.7
28153.5
28153.2
28153
28152.7
28152.4
28152
28151.6
28151.2
28150.7
28150.2
28149.6
28149
28148.3
28147.5
28146.8
28145.9
28145
28144
28143
28141.9
28140.7
28139.5
28138.2
28136.8
28135.4
28133.8
28132.2
28130.5
28128.8
28126.9
28125
28122.9
28120.8
28118.6
28116.3
28113.9
28111.4
28108.9
28106.2
28103.4
28100.6
28097.6
28094.6
28091.4
28088.1
28084.8
28081.3
28077.8
28074.1
28070.3
28066.4
28062.4
28058.4
28054.2
28049.9
28045.5
28040.9
28036.3
28031.6
28026.8
28021.8
28016.8
28011.6
28006.3
28001
27995.5
27989.9
27984.2
27978.4
27972.5
27966.5
27960.4
27954.2
27947.8
27941.4
27934.9
27928.2
27921.5
27914.6
27907.6
27900.6
27893.4
27886.1
27878.8
27871.3
27863.7
27856
27848.2
27840.4
27832.4
27824.3
27816.1
27807.9
27799.5
27791
27782.5
27773.9
27765.1
27756.3
27747.4
27738.5
27729.4
27720.3
27711.1
27701.9
27692.5
27683.2
27673.7
27664.2
27654.7
27645.1
27635.4
27625.7
27616
27606.3
27596.5
27586.7
27576.8
27567
27557.1
27547.2
27537.4
27527.5
27517.6
27507.7
27497.8
27488
27478.1
27468.3
27458.4
27448.6
27438.8
27429.1
27419.3
27409.6
27400
27390.3
27380.7
27371.2
27361.7
27352.2
27342.7
27333.3
27324
27314.7
27305.4
27296.3
27287.1
27278
27269
27260
27251.1
27242.2
27233.4
27224.7
27216.1
27207.5
27198.9
27190.5
27182.1
27173.7
27165.5
27157.3
27149.2
27141.2
27133.3
27125.5
27117.7
27110
27102.4
27094.9
27087.5
27080.2
27073
27065.8
27058.8
27051.9
27045
27038.3
27031.6
27025.1
27018.6
27012.3
27006
26999.9
26993.8
26987.9
26982.1
26976.4
26970.8
26965.3
26959.9
26954.6
26949.5
26944.4
26939.5
26934.7
26930
26925.4
26920.9
26916.6
26912.3
26908.2
26904.2
26900.4
26896.6
26893
26889.5
26886.2
26882.9
26879.8
26876.8
26873.9
26871.2
26868.6
26866.1
26863.7
26861.5
26859.4
26857.4
26855.6
26853.9
26852.3
26850.8
26849.5
26848.3
26847.3
26846.3
26845.5
26844.9
26844.4
26844
26843.7
26843.6
27758.7
27758.6
27758.6
27758.5
27758.3
27758.1
27757.9
27757.6
27757.3
27756.9
27756.5
27756.1
27755.6
27755.1
27754.6
27754
27753.4
27752.8
27752.1
27751.4
27750.6
27749.9
27749.1
27748.2
27747.4
27746.5
27745.6
27744.7
27743.7
27742.8
27741.8
27740.8
27739.8
27738.7
27737.7
27736.6
27735.6
27734.5
27733.4
27732.3
27731.2
27730.1
27729
27727.9
27726.8
27725.7
27724.7
27723.6
27722.5
27721.4
27720.4
27719.4
27718.3
27717.3
27716.3
27715.3
27714.4
27713.4
27712.5
27711.6
27710.7
27709.9
27709
27708.2
27707.4
27706.7
27705.9
27705.2
27704.5
27703.9
27703.2
27702.6
27702
27701.5
27701
27700.5
27700
27699.6
27699.2
27698.8
27698.5
27698.1
27697.9
27697.6
27697.3
27697.1
27696.9
27696.8
27696.6
27696.5
27696.4
27696.3
27696.2
27696.2
27696.2
27696.1
27696.1
27696.1
27696.1
27696.2
27696.2
27696.2
27696.2
27696.3
27696.3
27696.3
27696.4
27696.4
27696.4
27696.4
27696.3
27696.3
27696.3
27696.2
27696.1
27696
27695.8
27695.7
27695.5
27695.2
27695
27694.7
27694.3
27693.9
27693.5
27693
27692.5
27691.9
27691.3
27690.6
27689.9
27689.1
27688.3
27687.4
27686.4
27685.3
27684.2
27683
27681.8
27680.4
27679
27677.5
27676
27674.3
27672.6
27670.8
27668.9
27666.9
27664.8
27662.6
27660.3
27658
27655.5
27653
27650.3
27647.6
27644.7
27641.8
27638.7
27635.6
27632.3
27629
27625.5
27622
27618.3
27614.5
27610.6
27606.6
27602.5
27598.3
27594
27589.6
27585.1
27580.4
27575.7
27570.8
27565.9
27560.8
27555.6
27550.3
27544.9
27539.4
27533.8
27528.1
27522.2
27516.3
27510.3
27504.1
27497.8
27491.5
27485
27478.4
27471.7
27465
27458.1
27451.1
27444
27436.7
27429.4
27422
27414.5
27406.9
27399.2
27391.3
27383.4
27375.4
27367.3
27359.1
27350.7
27342.3
27333.8
27325.2
27316.5
27307.8
27298.9
27290
27280.9
27271.8
27262.7
27253.4
27244.1
27234.7
27225.3
27215.8
27206.2
27196.6
27187
27177.3
27167.5
27157.7
27147.9
27138.1
27128.2
27118.4
27108.5
27098.6
27088.6
27078.7
27068.8
27058.8
27048.9
27039
27029.1
27019.2
27009.3
26999.5
26989.6
26979.8
26970
26960.3
26950.5
26940.8
26931.2
26921.6
26912
26902.4
26892.9
26883.5
26874.1
26864.7
26855.4
26846.1
26836.9
26827.7
26818.6
26809.6
26800.6
26791.7
26782.8
26774
26765.2
26756.5
26747.9
26739.4
26730.9
26722.5
26714.2
26705.9
26697.7
26689.6
26681.6
26673.6
26665.8
26658
26650.3
26642.7
26635.1
26627.7
26620.4
26613.1
26606
26598.9
26592
26585.1
26578.3
26571.6
26565.1
26558.6
26552.2
26546
26539.8
26533.8
26527.8
26522
26516.2
26510.6
26505.1
26499.7
26494.4
26489.2
26484.2
26479.2
26474.4
26469.7
26465.1
26460.6
26456.2
26452
26447.8
26443.8
26440
26436.2
26432.6
26429.1
26425.7
26422.4
26419.3
26416.3
26413.4
26410.6
26408
26405.5
26403.1
26400.9
26398.8
26396.8
26394.9
26393.2
26391.6
26390.2
26388.8
26387.6
26386.6
26385.7
26384.9
26384.2
26383.6
26383.2
26383
26382.9
27301.4
27301.3
27301.2
27301.1
27301
27300.8
27300.5
27300.2
27299.9
27299.6
27299.2
27298.7
27298.2
27297.7
27297.2
27296.6
27296
27295.3
27294.6
27293.9
27293.1
27292.3
27291.5
27290.6
27289.8
27288.9
27287.9
27287
27286
27285
27284
27282.9
27281.9
27280.8
27279.7
27278.7
27277.5
27276.4
27275.3
27274.2
27273.1
27271.9
27270.8
27269.7
27268.5
27267.4
27266.3
27265.2
27264.1
27263
27261.9
27260.8
27259.8
27258.7
27257.7
27256.7
27255.7
27254.7
27253.7
27252.8
27251.9
27251
27250.2
27249.3
27248.5
27247.7
27247
27246.2
27245.5
27244.9
27244.2
27243.6
27243
27242.5
27241.9
27241.4
27241
27240.5
27240.1
27239.8
27239.4
27239.1
27238.8
27238.6
27238.3
27238.1
27238
27237.8
27237.7
27237.6
27237.5
27237.5
27237.4
27237.4
27237.4
27237.4
27237.5
27237.5
27237.6
27237.6
27237.7
27237.8
27237.8
27237.9
27238
27238.1
27238.1
27238.2
27238.3
27238.3
27238.4
27238.4
27238.4
27238.4
27238.3
27238.3
27238.2
27238.1
27238
27237.8
27237.6
27237.3
27237.1
27236.8
27236.4
27236
27235.5
27235
27234.5
27233.9
27233.2
27232.5
27231.7
27230.8
27229.9
27228.9
27227.8
27226.7
27225.5
27224.2
27222.9
27221.4
27219.9
27218.3
27216.6
27214.8
27213
27211
27209
27206.8
27204.6
27202.3
27199.8
27197.3
27194.7
27192
27189.1
27186.2
27183.2
27180
27176.8
27173.4
27170
27166.4
27162.8
27159
27155.1
27151.1
27147
27142.8
27138.4
27134
27129.4
27124.8
27120
27115.1
27110.1
27105
27099.8
27094.5
27089.1
27083.5
27077.9
27072.1
27066.3
27060.3
27054.2
27048
27041.7
27035.3
27028.8
27022.2
27015.4
27008.6
27001.7
26994.6
26987.5
26980.2
26972.9
26965.4
26957.8
26950.2
26942.4
26934.5
26926.6
26918.5
26910.3
26902.1
26893.7
26885.2
26876.7
26868
26859.3
26850.4
26841.5
26832.5
26823.4
26814.3
26805
26795.7
26786.4
26776.9
26767.4
26757.8
26748.2
26738.5
26728.8
26719.1
26709.2
26699.4
26689.5
26679.6
26669.7
26659.8
26649.8
26639.9
26629.9
26619.9
26609.9
26600
26590
26580
26570.1
26560.1
26550.2
26540.3
26530.5
26520.6
26510.8
26501
26491.2
26481.5
26471.8
26462.2
26452.6
26443
26433.5
26424
26414.6
26405.2
26395.8
26386.6
26377.3
26368.2
26359
26350
26341
26332
26323.1
26314.3
26305.5
26296.8
26288.2
26279.6
26271.1
26262.7
26254.3
26246.1
26237.8
26229.7
26221.7
26213.7
26205.8
26198
26190.3
26182.7
26175.1
26167.7
26160.3
26153
26145.9
26138.8
26131.8
26124.9
26118.1
26111.4
26104.8
26098.3
26091.9
26085.6
26079.5
26073.4
26067.4
26061.5
26055.8
26050.1
26044.6
26039.2
26033.9
26028.7
26023.6
26018.6
26013.8
26009
26004.4
25999.9
25995.5
25991.3
25987.1
25983.1
25979.2
25975.4
25971.8
25968.3
25964.9
25961.6
25958.4
25955.4
25952.5
25949.7
25947.1
25944.6
25942.2
25939.9
25937.8
25935.8
25934
25932.2
25930.6
25929.1
25927.8
25926.6
25925.5
25924.6
25923.8
25923.1
25922.6
25922.2
25921.9
25921.8
26844.1
26844.1
26844
26843.9
26843.7
26843.5
26843.3
26843
26842.6
26842.3
26841.9
26841.4
26840.9
26840.4
26839.8
26839.2
26838.5
26837.9
26837.1
26836.4
26835.6
26834.8
26833.9
26833.1
26832.2
26831.2
26830.3
26829.3
26828.3
26827.2
26826.2
26825.1
26824
26822.9
26821.8
26820.7
26819.5
26818.4
26817.2
26816
26814.9
26813.7
26812.5
26811.4
26810.2
26809
26807.9
26806.7
26805.6
26804.4
26803.3
26802.2
26801.1
26800
26798.9
26797.9
26796.9
26795.9
26794.9
26793.9
26793
26792.1
26791.2
26790.3
26789.5
26788.6
26787.9
26787.1
26786.4
26785.7
26785
26784.4
26783.8
26783.2
26782.7
26782.2
26781.7
26781.3
26780.9
26780.5
26780.2
26779.9
26779.6
26779.4
26779.2
26779
26778.8
26778.7
26778.6
26778.5
26778.5
26778.5
26778.5
26778.5
26778.5
26778.6
26778.7
26778.7
26778.8
26779
26779.1
26779.2
26779.3
26779.5
26779.6
26779.7
26779.9
26780
26780.1
26780.2
26780.3
26780.4
26780.5
26780.5
26780.6
26780.6
26780.6
26780.5
26780.5
26780.4
26780.2
26780.1
26779.9
26779.6
26779.3
26779
26778.6
26778.2
26777.7
26777.2
26776.6
26775.9
26775.2
26774.4
26773.5
26772.6
26771.6
26770.6
26769.4
26768.2
26766.9
26765.5
26764.1
26762.5
26760.9
26759.1
26757.3
26755.4
26753.4
26751.3
26749.1
26746.8
26744.4
26741.9
26739.3
26736.6
26733.8
26730.9
26727.9
26724.7
26721.5
26718.2
26714.7
26711.1
26707.5
26703.7
26699.8
26695.8
26691.7
26687.4
26683.1
26678.6
26674.1
26669.4
26664.6
26659.7
26654.6
26649.5
26644.3
26638.9
26633.4
26627.9
26622.2
26616.4
26610.5
26604.4
26598.3
26592.1
26585.7
26579.3
26572.7
26566.1
26559.3
26552.4
26545.4
26538.3
26531.1
26523.8
26516.4
26508.9
26501.3
26493.6
26485.8
26477.8
26469.8
26461.7
26453.5
26445.1
26436.7
26428.2
26419.6
26410.9
26402
26393.2
26384.2
26375.1
26366
26356.7
26347.4
26338
26328.6
26319.1
26309.5
26299.8
26290.1
26280.4
26270.6
26260.8
26250.9
26241
26231.1
26221.1
26211.1
26201.1
26191.1
26181.1
26171
26161
26151
26140.9