/*--------------------------------*- C++ -*----------------------------------*\
| =========                 |                                                 |
| \\      /  F ield         | OpenFOAM: The Open Source CFD Toolbox           |
|  \\    /   O peration     | Version:  v2006                                 |
|   \\  /    A nd           | Website:  www.openfoam.com                      |
|    \\/     M anipulation  |                                                 |
\*---------------------------------------------------------------------------*/
FoamFile
{
    version     2.0;
    format      ascii;
    class       volVectorField;
    location    "0";
    object      U_new;
}
// * * * * * * * * * * * * * * * * * * * * * * * * * * * * * * * * * * * * * //

dimensions      [0 1 -1 0 0 0 0];


internalField   nonuniform List<vector> 
2500
(
(0.000512 -0.032768 0)
(0.000512 -0.098304 0)
(0.000512 -0.16384 0)
(0.000512 -0.229376 0)
(0.000512 -0.294912 0)
(0.000512 -0.360448 0)
(0.000512 -0.425984 0)
(0.000512 -0.49152 0)
(0.000512 -0.557056 0)
(0.000512 -0.622592 0)
(0.000512 -0.688128 0)
(0.000512 -0.753664 0)
(0.000512 -0.8192 0)
(0.000512 -0.884736 0)
(0.000512 -0.950272 0)
(0.000512 -1.01581 0)
(0.000512 -1.08134 0)
(0.000512 -1.14688 0)
(0.000512 -1.21242 0)
(0.000512 -1.27795 0)
(0.000512 -1.34349 0)
(0.000512 -1.40902 0)
(0.000512 -1.47456 0)
(0.000512 -1.5401 0)
(0.000512 -1.60563 0)
(0.000512 -1.67117 0)
(0.000512 -1.7367 0)
(0.000512 -1.80224 0)
(0.000512 -1.86778 0)
(0.000512 -1.93331 0)
(0.000512 -1.99885 0)
(0.000512 -2.06438 0)
(0.000512 -2.12992 0)
(0.000512 -2.19546 0)
(0.000512 -2.26099 0)
(0.000512 -2.32653 0)
(0.000512 -2.39206 0)
(0.000512 -2.4576 0)
(0.000512 -2.52314 0)
(0.000512 -2.58867 0)
(0.000512 -2.65421 0)
(0.000512 -2.71974 0)
(0.000512 -2.78528 0)
(0.000512 -2.85082 0)
(0.000512 -2.91635 0)
(0.000512 -2.98189 0)
(0.000512 -3.04742 0)
(0.000512 -3.11296 0)
(0.000512 -3.1785 0)
(0.000512 -3.24403 0)
(0.004608 -0.032768 0)
(0.004608 -0.098304 0)
(0.004608 -0.16384 0)
(0.004608 -0.229376 0)
(0.004608 -0.294912 0)
(0.004608 -0.360448 0)
(0.004608 -0.425984 0)
(0.004608 -0.49152 0)
(0.004608 -0.557056 0)
(0.004608 -0.622592 0)
(0.004608 -0.688128 0)
(0.004608 -0.753664 0)
(0.004608 -0.8192 0)
(0.004608 -0.884736 0)
(0.004608 -0.950272 0)
(0.004608 -1.01581 0)
(0.004608 -1.08134 0)
(0.004608 -1.14688 0)
(0.004608 -1.21242 0)
(0.004608 -1.27795 0)
(0.004608 -1.34349 0)
(0.004608 -1.40902 0)
(0.004608 -1.47456 0)
(0.004608 -1.5401 0)
(0.004608 -1.60563 0)
(0.004608 -1.67117 0)
(0.004608 -1.7367 0)
(0.004608 -1.80224 0)
(0.004608 -1.86778 0)
(0.004608 -1.93331 0)
(0.004608 -1.99885 0)
(0.004608 -2.06438 0)
(0.004608 -2.12992 0)
(0.004608 -2.19546 0)
(0.004608 -2.26099 0)
(0.004608 -2.32653 0)
(0.004608 -2.39206 0)
(0.004608 -2.4576 0)
(0.004608 -2.52314 0)
(0.004608 -2.58867 0)
(0.004608 -2.65421 0)
(0.004608 -2.71974 0)
(0.004608 -2.78528 0)
(0.004608 -2.85082 0)
(0.004608 -2.91635 0)
(0.004608 -2.98189 0)
(0.004608 -3.04742 0)
(0.004608 -3.11296 0)
(0.004608 -3.1785 0)
(0.004608 -3.24403 0)
(0.0128 -0.032768 0)
(0.0128 -0.098304 0)
(0.0128 -0.16384 0)
(0.0128 -0.229376 0)
(0.0128 -0.294912 0)
(0.0128 -0.360448 0)
(0.0128 -0.425984 0)
(0.0128 -0.49152 0)
(0.0128 -0.557056 0)
(0.0128 -0.622592 0)
(0.0128 -0.688128 0)
(0.0128 -0.753664 0)
(0.0128 -0.8192 0)
(0.0128 -0.884736 0)
(0.0128 -0.950272 0)
(0.0128 -1.01581 0)
(0.0128 -1.08134 0)
(0.0128 -1.14688 0)
(0.0128 -1.21242 0)
(0.0128 -1.27795 0)
(0.0128 -1.34349 0)
(0.0128 -1.40902 0)
(0.0128 -1.47456 0)
(0.0128 -1.5401 0)
(0.0128 -1.60563 0)
(0.0128 -1.67117 0)
(0.0128 -1.7367 0)
(0.0128 -1.80224 0)
(0.0128 -1.86778 0)
(0.0128 -1.93331 0)
(0.0128 -1.99885 0)
(0.0128 -2.06438 0)
(0.0128 -2.12992 0)
(0.0128 -2.19546 0)
(0.0128 -2.26099 0)
(0.0128 -2.32653 0)
(0.0128 -2.39206 0)
(0.0128 -2.4576 0)
(0.0128 -2.52314 0)
(0.0128 -2.58867 0)
(0.0128 -2.65421 0)
(0.0128 -2.71974 0)
(0.0128 -2.78528 0)
(0.0128 -2.85082 0)
(0.0128 -2.91635 0)
(0.0128 -2.98189 0)
(0.0128 -3.04742 0)
(0.0128 -3.11296 0)
(0.0128 -3.1785 0)
(0.0128 -3.24403 0)
(0.025088 -0.032768 0)
(0.025088 -0.098304 0)
(0.025088 -0.16384 0)
(0.025088 -0.229376 0)
(0.025088 -0.294912 0)
(0.025088 -0.360448 0)
(0.025088 -0.425984 0)
(0.025088 -0.49152 0)
(0.025088 -0.557056 0)
(0.025088 -0.622592 0)
(0.025088 -0.688128 0)
(0.025088 -0.753664 0)
(0.025088 -0.8192 0)
(0.025088 -0.884736 0)
(0.025088 -0.950272 0)
(0.025088 -1.01581 0)
(0.025088 -1.08134 0)
(0.025088 -1.14688 0)
(0.025088 -1.21242 0)
(0.025088 -1.27795 0)
(0.025088 -1.34349 0)
(0.025088 -1.40902 0)
(0.025088 -1.47456 0)
(0.025088 -1.5401 0)
(0.025088 -1.60563 0)
(0.025088 -1.67117 0)
(0.025088 -1.7367 0)
(0.025088 -1.80224 0)
(0.025088 -1.86778 0)
(0.025088 -1.93331 0)
(0.025088 -1.99885 0)
(0.025088 -2.06438 0)
(0.025088 -2.12992 0)
(0.025088 -2.19546 0)
(0.025088 -2.26099 0)
(0.025088 -2.32653 0)
(0.025088 -2.39206 0)
(0.025088 -2.4576 0)
(0.025088 -2.52314 0)
(0.025088 -2.58867 0)
(0.025088 -2.65421 0)
(0.025088 -2.71974 0)
(0.025088 -2.78528 0)
(0.025088 -2.85082 0)
(0.025088 -2.91635 0)
(0.025088 -2.98189 0)
(0.025088 -3.04742 0)
(0.025088 -3.11296 0)
(0.025088 -3.1785 0)
(0.025088 -3.24403 0)
(0.041472 -0.032768 0)
(0.041472 -0.098304 0)
(0.041472 -0.16384 0)
(0.041472 -0.229376 0)
(0.041472 -0.294912 0)
(0.041472 -0.360448 0)
(0.041472 -0.425984 0)
(0.041472 -0.49152 0)
(0.041472 -0.557056 0)
(0.041472 -0.622592 0)
(0.041472 -0.688128 0)
(0.041472 -0.753664 0)
(0.041472 -0.8192 0)
(0.041472 -0.884736 0)
(0.041472 -0.950272 0)
(0.041472 -1.01581 0)
(0.041472 -1.08134 0)
(0.041472 -1.14688 0)
(0.041472 -1.21242 0)
(0.041472 -1.27795 0)
(0.041472 -1.34349 0)
(0.041472 -1.40902 0)
(0.041472 -1.47456 0)
(0.041472 -1.5401 0)
(0.041472 -1.60563 0)
(0.041472 -1.67117 0)
(0.041472 -1.7367 0)
(0.041472 -1.80224 0)
(0.041472 -1.86778 0)
(0.041472 -1.93331 0)
(0.041472 -1.99885 0)
(0.041472 -2.06438 0)
(0.041472 -2.12992 0)
(0.041472 -2.19546 0)
(0.041472 -2.26099 0)
(0.041472 -2.32653 0)
(0.041472 -2.39206 0)
(0.041472 -2.4576 0)
(0.041472 -2.52314 0)
(0.041472 -2.58867 0)
(0.041472 -2.65421 0)
(0.041472 -2.71974 0)
(0.041472 -2.78528 0)
(0.041472 -2.85082 0)
(0.041472 -2.91635 0)
(0.041472 -2.98189 0)
(0.041472 -3.04742 0)
(0.041472 -3.11296 0)
(0.041472 -3.1785 0)
(0.041472 -3.24403 0)
(0.061952 -0.032768 0)
(0.061952 -0.098304 0)
(0.061952 -0.16384 0)
(0.061952 -0.229376 0)
(0.061952 -0.294912 0)
(0.061952 -0.360448 0)
(0.061952 -0.425984 0)
(0.061952 -0.49152 0)
(0.061952 -0.557056 0)
(0.061952 -0.622592 0)
(0.061952 -0.688128 0)
(0.061952 -0.753664 0)
(0.061952 -0.8192 0)
(0.061952 -0.884736 0)
(0.061952 -0.950272 0)
(0.061952 -1.01581 0)
(0.061952 -1.08134 0)
(0.061952 -1.14688 0)
(0.061952 -1.21242 0)
(0.061952 -1.27795 0)
(0.061952 -1.34349 0)
(0.061952 -1.40902 0)
(0.061952 -1.47456 0)
(0.061952 -1.5401 0)
(0.061952 -1.60563 0)
(0.061952 -1.67117 0)
(0.061952 -1.7367 0)
(0.061952 -1.80224 0)
(0.061952 -1.86778 0)
(0.061952 -1.93331 0)
(0.061952 -1.99885 0)
(0.061952 -2.06438 0)
(0.061952 -2.12992 0)
(0.061952 -2.19546 0)
(0.061952 -2.26099 0)
(0.061952 -2.32653 0)
(0.061952 -2.39206 0)
(0.061952 -2.4576 0)
(0.061952 -2.52314 0)
(0.061952 -2.58867 0)
(0.061952 -2.65421 0)
(0.061952 -2.71974 0)
(0.061952 -2.78528 0)
(0.061952 -2.85082 0)
(0.061952 -2.91635 0)
(0.061952 -2.98189 0)
(0.061952 -3.04742 0)
(0.061952 -3.11296 0)
(0.061952 -3.1785 0)
(0.061952 -3.24403 0)
(0.086528 -0.032768 0)
(0.086528 -0.098304 0)
(0.086528 -0.16384 0)
(0.086528 -0.229376 0)
(0.086528 -0.294912 0)
(0.086528 -0.360448 0)
(0.086528 -0.425984 0)
(0.086528 -0.49152 0)
(0.086528 -0.557056 0)
(0.086528 -0.622592 0)
(0.086528 -0.688128 0)
(0.086528 -0.753664 0)
(0.086528 -0.8192 0)
(0.086528 -0.884736 0)
(0.086528 -0.950272 0)
(0.086528 -1.01581 0)
(0.086528 -1.08134 0)
(0.086528 -1.14688 0)
(0.086528 -1.21242 0)
(0.086528 -1.27795 0)
(0.086528 -1.34349 0)
(0.086528 -1.40902 0)
(0.086528 -1.47456 0)
(0.086528 -1.5401 0)
(0.086528 -1.60563 0)
(0.086528 -1.67117 0)
(0.086528 -1.7367 0)
(0.086528 -1.80224 0)
(0.086528 -1.86778 0)
(0.086528 -1.93331 0)
(0.086528 -1.99885 0)
(0.086528 -2.06438 0)
(0.086528 -2.12992 0)
(0.086528 -2.19546 0)
(0.086528 -2.26099 0)
(0.086528 -2.32653 0)
(0.086528 -2.39206 0)
(0.086528 -2.4576 0)
(0.086528 -2.52314 0)
(0.086528 -2.58867 0)
(0.086528 -2.65421 0)
(0.086528 -2.71974 0)
(0.086528 -2.78528 0)
(0.086528 -2.85082 0)
(0.086528 -2.91635 0)
(0.086528 -2.98189 0)
(0.086528 -3.04742 0)
(0.086528 -3.11296 0)
(0.086528 -3.1785 0)
(0.086528 -3.24403 0)
(0.1152 -0.032768 0)
(0.1152 -0.098304 0)
(0.1152 -0.16384 0)
(0.1152 -0.229376 0)
(0.1152 -0.294912 0)
(0.1152 -0.360448 0)
(0.1152 -0.425984 0)
(0.1152 -0.49152 0)
(0.1152 -0.557056 0)
(0.1152 -0.622592 0)
(0.1152 -0.688128 0)
(0.1152 -0.753664 0)
(0.1152 -0.8192 0)
(0.1152 -0.884736 0)
(0.1152 -0.950272 0)
(0.1152 -1.01581 0)
(0.1152 -1.08134 0)
(0.1152 -1.14688 0)
(0.1152 -1.21242 0)
(0.1152 -1.27795 0)
(0.1152 -1.34349 0)
(0.1152 -1.40902 0)
(0.1152 -1.47456 0)
(0.1152 -1.5401 0)
(0.1152 -1.60563 0)
(0.1152 -1.67117 0)
(0.1152 -1.7367 0)
(0.1152 -1.80224 0)
(0.1152 -1.86778 0)
(0.1152 -1.93331 0)
(0.1152 -1.99885 0)
(0.1152 -2.06438 0)
(0.1152 -2.12992 0)
(0.1152 -2.19546 0)
(0.1152 -2.26099 0)
(0.1152 -2.32653 0)
(0.1152 -2.39206 0)
(0.1152 -2.4576 0)
(0.1152 -2.52314 0)
(0.1152 -2.58867 0)
(0.1152 -2.65421 0)
(0.1152 -2.71974 0)
(0.1152 -2.78528 0)
(0.1152 -2.85082 0)
(0.1152 -2.91635 0)
(0.1152 -2.98189 0)
(0.1152 -3.04742 0)
(0.1152 -3.11296 0)
(0.1152 -3.1785 0)
(0.1152 -3.24403 0)
(0.147968 -0.032768 0)
(0.147968 -0.098304 0)
(0.147968 -0.16384 0)
(0.147968 -0.229376 0)
(0.147968 -0.294912 0)
(0.147968 -0.360448 0)
(0.147968 -0.425984 0)
(0.147968 -0.49152 0)
(0.147968 -0.557056 0)
(0.147968 -0.622592 0)
(0.147968 -0.688128 0)
(0.147968 -0.753664 0)
(0.147968 -0.8192 0)
(0.147968 -0.884736 0)
(0.147968 -0.950272 0)
(0.147968 -1.01581 0)
(0.147968 -1.08134 0)
(0.147968 -1.14688 0)
(0.147968 -1.21242 0)
(0.147968 -1.27795 0)
(0.147968 -1.34349 0)
(0.147968 -1.40902 0)
(0.147968 -1.47456 0)
(0.147968 -1.5401 0)
(0.147968 -1.60563 0)
(0.147968 -1.67117 0)
(0.147968 -1.7367 0)
(0.147968 -1.80224 0)
(0.147968 -1.86778 0)
(0.147968 -1.93331 0)
(0.147968 -1.99885 0)
(0.147968 -2.06438 0)
(0.147968 -2.12992 0)
(0.147968 -2.19546 0)
(0.147968 -2.26099 0)
(0.147968 -2.32653 0)
(0.147968 -2.39206 0)
(0.147968 -2.4576 0)
(0.147968 -2.52314 0)
(0.147968 -2.58867 0)
(0.147968 -2.65421 0)
(0.147968 -2.71974 0)
(0.147968 -2.78528 0)
(0.147968 -2.85082 0)
(0.147968 -2.91635 0)
(0.147968 -2.98189 0)
(0.147968 -3.04742 0)
(0.147968 -3.11296 0)
(0.147968 -3.1785 0)
(0.147968 -3.24403 0)
(0.184832 -0.032768 0)
(0.184832 -0.098304 0)
(0.184832 -0.16384 0)
(0.184832 -0.229376 0)
(0.184832 -0.294912 0)
(0.184832 -0.360448 0)
(0.184832 -0.425984 0)
(0.184832 -0.49152 0)
(0.184832 -0.557056 0)
(0.184832 -0.622592 0)
(0.184832 -0.688128 0)
(0.184832 -0.753664 0)
(0.184832 -0.8192 0)
(0.184832 -0.884736 0)
(0.184832 -0.950272 0)
(0.184832 -1.01581 0)
(0.184832 -1.08134 0)
(0.184832 -1.14688 0)
(0.184832 -1.21242 0)
(0.184832 -1.27795 0)
(0.184832 -1.34349 0)
(0.184832 -1.40902 0)
(0.184832 -1.47456 0)
(0.184832 -1.5401 0)
(0.184832 -1.60563 0)
(0.184832 -1.67117 0)
(0.184832 -1.7367 0)
(0.184832 -1.80224 0)
(0.184832 -1.86778 0)
(0.184832 -1.93331 0)
(0.184832 -1.99885 0)
(0.184832 -2.06438 0)
(0.184832 -2.12992 0)
(0.184832 -2.19546 0)
(0.184832 -2.26099 0)
(0.184832 -2.32653 0)
(0.184832 -2.39206 0)
(0.184832 -2.4576 0)
(0.184832 -2.52314 0)
(0.184832 -2.58867 0)
(0.184832 -2.65421 0)
(0.184832 -2.71974 0)
(0.184832 -2.78528 0)
(0.184832 -2.85082 0)
(0.184832 -2.91635 0)
(0.184832 -2.98189 0)
(0.184832 -3.04742 0)
(0.184832 -3.11296 0)
(0.184832 -3.1785 0)
(0.184832 -3.24403 0)
(0.225792 -0.032768 0)
(0.225792 -0.098304 0)
(0.225792 -0.16384 0)
(0.225792 -0.229376 0)
(0.225792 -0.294912 0)
(0.225792 -0.360448 0)
(0.225792 -0.425984 0)
(0.225792 -0.49152 0)
(0.225792 -0.557056 0)
(0.225792 -0.622592 0)
(0.225792 -0.688128 0)
(0.225792 -0.753664 0)
(0.225792 -0.8192 0)
(0.225792 -0.884736 0)
(0.225792 -0.950272 0)
(0.225792 -1.01581 0)
(0.225792 -1.08134 0)
(0.225792 -1.14688 0)
(0.225792 -1.21242 0)
(0.225792 -1.27795 0)
(0.225792 -1.34349 0)
(0.225792 -1.40902 0)
(0.225792 -1.47456 0)
(0.225792 -1.5401 0)
(0.225792 -1.60563 0)
(0.225792 -1.67117 0)
(0.225792 -1.7367 0)
(0.225792 -1.80224 0)
(0.225792 -1.86778 0)
(0.225792 -1.93331 0)
(0.225792 -1.99885 0)
(0.225792 -2.06438 0)
(0.225792 -2.12992 0)
(0.225792 -2.19546 0)
(0.225792 -2.26099 0)
(0.225792 -2.32653 0)
(0.225792 -2.39206 0)
(0.225792 -2.4576 0)
(0.225792 -2.52314 0)
(0.225792 -2.58867 0)
(0.225792 -2.65421 0)
(0.225792 -2.71974 0)
(0.225792 -2.78528 0)
(0.225792 -2.85082 0)
(0.225792 -2.91635 0)
(0.225792 -2.98189 0)
(0.225792 -3.04742 0)
(0.225792 -3.11296 0)
(0.225792 -3.1785 0)
(0.225792 -3.24403 0)
(0.270848 -0.032768 0)
(0.270848 -0.098304 0)
(0.270848 -0.16384 0)
(0.270848 -0.229376 0)
(0.270848 -0.294912 0)
(0.270848 -0.360448 0)
(0.270848 -0.425984 0)
(0.270848 -0.49152 0)
(0.270848 -0.557056 0)
(0.270848 -0.622592 0)
(0.270848 -0.688128 0)
(0.270848 -0.753664 0)
(0.270848 -0.8192 0)
(0.270848 -0.884736 0)
(0.270848 -0.950272 0)
(0.270848 -1.01581 0)
(0.270848 -1.08134 0)
(0.270848 -1.14688 0)
(0.270848 -1.21242 0)
(0.270848 -1.27795 0)
(0.270848 -1.34349 0)
(0.270848 -1.40902 0)
(0.270848 -1.47456 0)
(0.270848 -1.5401 0)
(0.270848 -1.60563 0)
(0.270848 -1.67117 0)
(0.270848 -1.7367 0)
(0.270848 -1.80224 0)
(0.270848 -1.86778 0)
(0.270848 -1.93331 0)
(0.270848 -1.99885 0)
(0.270848 -2.06438 0)
(0.270848 -2.12992 0)
(0.270848 -2.19546 0)
(0.270848 -2.26099 0)
(0.270848 -2.32653 0)
(0.270848 -2.39206 0)
(0.270848 -2.4576 0)
(0.270848 -2.52314 0)
(0.270848 -2.58867 0)
(0.270848 -2.65421 0)
(0.270848 -2.71974 0)
(0.270848 -2.78528 0)
(0.270848 -2.85082 0)
(0.270848 -2.91635 0)
(0.270848 -2.98189 0)
(0.270848 -3.04742 0)
(0.270848 -3.11296 0)
(0.270848 -3.1785 0)
(0.270848 -3.24403 0)
(0.32 -0.032768 0)
(0.32 -0.098304 0)
(0.32 -0.16384 0)
(0.32 -0.229376 0)
(0.32 -0.294912 0)
(0.32 -0.360448 0)
(0.32 -0.425984 0)
(0.32 -0.49152 0)
(0.32 -0.557056 0)
(0.32 -0.622592 0)
(0.32 -0.688128 0)
(0.32 -0.753664 0)
(0.32 -0.8192 0)
(0.32 -0.884736 0)
(0.32 -0.950272 0)
(0.32 -1.01581 0)
(0.32 -1.08134 0)
(0.32 -1.14688 0)
(0.32 -1.21242 0)
(0.32 -1.27795 0)
(0.32 -1.34349 0)
(0.32 -1.40902 0)
(0.32 -1.47456 0)
(0.32 -1.5401 0)
(0.32 -1.60563 0)
(0.32 -1.67117 0)
(0.32 -1.7367 0)
(0.32 -1.80224 0)
(0.32 -1.86778 0)
(0.32 -1.93331 0)
(0.32 -1.99885 0)
(0.32 -2.06438 0)
(0.32 -2.12992 0)
(0.32 -2.19546 0)
(0.32 -2.26099 0)
(0.32 -2.32653 0)
(0.32 -2.39206 0)
(0.32 -2.4576 0)
(0.32 -2.52314 0)
(0.32 -2.58867 0)
(0.32 -2.65421 0)
(0.32 -2.71974 0)
(0.32 -2.78528 0)
(0.32 -2.85082 0)
(0.32 -2.91635 0)
(0.32 -2.98189 0)
(0.32 -3.04742 0)
(0.32 -3.11296 0)
(0.32 -3.1785 0)
(0.32 -3.24403 0)
(0.373248 -0.032768 0)
(0.373248 -0.098304 0)
(0.373248 -0.16384 0)
(0.373248 -0.229376 0)
(0.373248 -0.294912 0)
(0.373248 -0.360448 0)
(0.373248 -0.425984 0)
(0.373248 -0.49152 0)
(0.373248 -0.557056 0)
(0.373248 -0.622592 0)
(0.373248 -0.688128 0)
(0.373248 -0.753664 0)
(0.373248 -0.8192 0)
(0.373248 -0.884736 0)
(0.373248 -0.950272 0)
(0.373248 -1.01581 0)
(0.373248 -1.08134 0)
(0.373248 -1.14688 0)
(0.373248 -1.21242 0)
(0.373248 -1.27795 0)
(0.373248 -1.34349 0)
(0.373248 -1.40902 0)
(0.373248 -1.47456 0)
(0.373248 -1.5401 0)
(0.373248 -1.60563 0)
(0.373248 -1.67117 0)
(0.373248 -1.7367 0)
(0.373248 -1.80224 0)
(0.373248 -1.86778 0)
(0.373248 -1.93331 0)
(0.373248 -1.99885 0)
(0.373248 -2.06438 0)
(0.373248 -2.12992 0)
(0.373248 -2.19546 0)
(0.373248 -2.26099 0)
(0.373248 -2.32653 0)
(0.373248 -2.39206 0)
(0.373248 -2.4576 0)
(0.373248 -2.52314 0)
(0.373248 -2.58867 0)
(0.373248 -2.65421 0)
(0.373248 -2.71974 0)
(0.373248 -2.78528 0)
(0.373248 -2.85082 0)
(0.373248 -2.91635 0)
(0.373248 -2.98189 0)
(0.373248 -3.04742 0)
(0.373248 -3.11296 0)
(0.373248 -3.1785 0)
(0.373248 -3.24403 0)
(0.430592 -0.032768 0)
(0.430592 -0.098304 0)
(0.430592 -0.16384 0)
(0.430592 -0.229376 0)
(0.430592 -0.294912 0)
(0.430592 -0.360448 0)
(0.430592 -0.425984 0)
(0.430592 -0.49152 0)
(0.430592 -0.557056 0)
(0.430592 -0.622592 0)
(0.430592 -0.688128 0)
(0.430592 -0.753664 0)
(0.430592 -0.8192 0)
(0.430592 -0.884736 0)
(0.430592 -0.950272 0)
(0.430592 -1.01581 0)
(0.430592 -1.08134 0)
(0.430592 -1.14688 0)
(0.430592 -1.21242 0)
(0.430592 -1.27795 0)
(0.430592 -1.34349 0)
(0.430592 -1.40902 0)
(0.430592 -1.47456 0)
(0.430592 -1.5401 0)
(0.430592 -1.60563 0)
(0.430592 -1.67117 0)
(0.430592 -1.7367 0)
(0.430592 -1.80224 0)
(0.430592 -1.86778 0)
(0.430592 -1.93331 0)
(0.430592 -1.99885 0)
(0.430592 -2.06438 0)
(0.430592 -2.12992 0)
(0.430592 -2.19546 0)
(0.430592 -2.26099 0)
(0.430592 -2.32653 0)
(0.430592 -2.39206 0)
(0.430592 -2.4576 0)
(0.430592 -2.52314 0)
(0.430592 -2.58867 0)
(0.430592 -2.65421 0)
(0.430592 -2.71974 0)
(0.430592 -2.78528 0)
(0.430592 -2.85082 0)
(0.430592 -2.91635 0)
(0.430592 -2.98189 0)
(0.430592 -3.04742 0)
(0.430592 -3.11296 0)
(0.430592 -3.1785 0)
(0.430592 -3.24403 0)
(0.492032 -0.032768 0)
(0.492032 -0.098304 0)
(0.492032 -0.16384 0)
(0.492032 -0.229376 0)
(0.492032 -0.294912 0)
(0.492032 -0.360448 0)
(0.492032 -0.425984 0)
(0.492032 -0.49152 0)
(0.492032 -0.557056 0)
(0.492032 -0.622592 0)
(0.492032 -0.688128 0)
(0.492032 -0.753664 0)
(0.492032 -0.8192 0)
(0.492032 -0.884736 0)
(0.492032 -0.950272 0)
(0.492032 -1.01581 0)
(0.492032 -1.08134 0)
(0.492032 -1.14688 0)
(0.492032 -1.21242 0)
(0.492032 -1.27795 0)
(0.492032 -1.34349 0)
(0.492032 -1.40902 0)
(0.492032 -1.47456 0)
(0.492032 -1.5401 0)
(0.492032 -1.60563 0)
(0.492032 -1.67117 0)
(0.492032 -1.7367 0)
(0.492032 -1.80224 0)
(0.492032 -1.86778 0)
(0.492032 -1.93331 0)
(0.492032 -1.99885 0)
(0.492032 -2.06438 0)
(0.492032 -2.12992 0)
(0.492032 -2.19546 0)
(0.492032 -2.26099 0)
(0.492032 -2.32653 0)
(0.492032 -2.39206 0)
(0.492032 -2.4576 0)
(0.492032 -2.52314 0)
(0.492032 -2.58867 0)
(0.492032 -2.65421 0)
(0.492032 -2.71974 0)
(0.492032 -2.78528 0)
(0.492032 -2.85082 0)
(0.492032 -2.91635 0)
(0.492032 -2.98189 0)
(0.492032 -3.04742 0)
(0.492032 -3.11296 0)
(0.492032 -3.1785 0)
(0.492032 -3.24403 0)
(0.557568 -0.032768 0)
(0.557568 -0.098304 0)
(0.557568 -0.16384 0)
(0.557568 -0.229376 0)
(0.557568 -0.294912 0)
(0.557568 -0.360448 0)
(0.557568 -0.425984 0)
(0.557568 -0.49152 0)
(0.557568 -0.557056 0)
(0.557568 -0.622592 0)
(0.557568 -0.688128 0)
(0.557568 -0.753664 0)
(0.557568 -0.8192 0)
(0.557568 -0.884736 0)
(0.557568 -0.950272 0)
(0.557568 -1.01581 0)
(0.557568 -1.08134 0)
(0.557568 -1.14688 0)
(0.557568 -1.21242 0)
(0.557568 -1.27795 0)
(0.557568 -1.34349 0)
(0.557568 -1.40902 0)
(0.557568 -1.47456 0)
(0.557568 -1.5401 0)
(0.557568 -1.60563 0)
(0.557568 -1.67117 0)
(0.557568 -1.7367 0)
(0.557568 -1.80224 0)
(0.557568 -1.86778 0)
(0.557568 -1.93331 0)
(0.557568 -1.99885 0)
(0.557568 -2.06438 0)
(0.557568 -2.12992 0)
(0.557568 -2.19546 0)
(0.557568 -2.26099 0)
(0.557568 -2.32653 0)
(0.557568 -2.39206 0)
(0.557568 -2.4576 0)
(0.557568 -2.52314 0)
(0.557568 -2.58867 0)
(0.557568 -2.65421 0)
(0.557568 -2.71974 0)
(0.557568 -2.78528 0)
(0.557568 -2.85082 0)
(0.557568 -2.91635 0)
(0.557568 -2.98189 0)
(0.557568 -3.04742 0)
(0.557568 -3.11296 0)
(0.557568 -3.1785 0)
(0.557568 -3.24403 0)
(0.6272 -0.032768 0)
(0.6272 -0.098304 0)
(0.6272 -0.16384 0)
(0.6272 -0.229376 0)
(0.6272 -0.294912 0)
(0.6272 -0.360448 0)
(0.6272 -0.425984 0)
(0.6272 -0.49152 0)
(0.6272 -0.557056 0)
(0.6272 -0.622592 0)
(0.6272 -0.688128 0)
(0.6272 -0.753664 0)
(0.6272 -0.8192 0)
(0.6272 -0.884736 0)
(0.6272 -0.950272 0)
(0.6272 -1.01581 0)
(0.6272 -1.08134 0)
(0.6272 -1.14688 0)
(0.6272 -1.21242 0)
(0.6272 -1.27795 0)
(0.6272 -1.34349 0)
(0.6272 -1.40902 0)
(0.6272 -1.47456 0)
(0.6272 -1.5401 0)
(0.6272 -1.60563 0)
(0.6272 -1.67117 0)
(0.6272 -1.7367 0)
(0.6272 -1.80224 0)
(0.6272 -1.86778 0)
(0.6272 -1.93331 0)
(0.6272 -1.99885 0)
(0.6272 -2.06438 0)
(0.6272 -2.12992 0)
(0.6272 -2.19546 0)
(0.6272 -2.26099 0)
(0.6272 -2.32653 0)
(0.6272 -2.39206 0)
(0.6272 -2.4576 0)
(0.6272 -2.52314 0)
(0.6272 -2.58867 0)
(0.6272 -2.65421 0)
(0.6272 -2.71974 0)
(0.6272 -2.78528 0)
(0.6272 -2.85082 0)
(0.6272 -2.91635 0)
(0.6272 -2.98189 0)
(0.6272 -3.04742 0)
(0.6272 -3.11296 0)
(0.6272 -3.1785 0)
(0.6272 -3.24403 0)
(0.700928 -0.032768 0)
(0.700928 -0.098304 0)
(0.700928 -0.16384 0)
(0.700928 -0.229376 0)
(0.700928 -0.294912 0)
(0.700928 -0.360448 0)
(0.700928 -0.425984 0)
(0.700928 -0.49152 0)
(0.700928 -0.557056 0)
(0.700928 -0.622592 0)
(0.700928 -0.688128 0)
(0.700928 -0.753664 0)
(0.700928 -0.8192 0)
(0.700928 -0.884736 0)
(0.700928 -0.950272 0)
(0.700928 -1.01581 0)
(0.700928 -1.08134 0)
(0.700928 -1.14688 0)
(0.700928 -1.21242 0)
(0.700928 -1.27795 0)
(0.700928 -1.34349 0)
(0.700928 -1.40902 0)
(0.700928 -1.47456 0)
(0.700928 -1.5401 0)
(0.700928 -1.60563 0)
(0.700928 -1.67117 0)
(0.700928 -1.7367 0)
(0.700928 -1.80224 0)
(0.700928 -1.86778 0)
(0.700928 -1.93331 0)
(0.700928 -1.99885 0)
(0.700928 -2.06438 0)
(0.700928 -2.12992 0)
(0.700928 -2.19546 0)
(0.700928 -2.26099 0)
(0.700928 -2.32653 0)
(0.700928 -2.39206 0)
(0.700928 -2.4576 0)
(0.700928 -2.52314 0)
(0.700928 -2.58867 0)
(0.700928 -2.65421 0)
(0.700928 -2.71974 0)
(0.700928 -2.78528 0)
(0.700928 -2.85082 0)
(0.700928 -2.91635 0)
(0.700928 -2.98189 0)
(0.700928 -3.04742 0)
(0.700928 -3.11296 0)
(0.700928 -3.1785 0)
(0.700928 -3.24403 0)
(0.778752 -0.032768 0)
(0.778752 -0.098304 0)
(0.778752 -0.16384 0)
(0.778752 -0.229376 0)
(0.778752 -0.294912 0)
(0.778752 -0.360448 0)
(0.778752 -0.425984 0)
(0.778752 -0.49152 0)
(0.778752 -0.557056 0)
(0.778752 -0.622592 0)
(0.778752 -0.688128 0)
(0.778752 -0.753664 0)
(0.778752 -0.8192 0)
(0.778752 -0.884736 0)
(0.778752 -0.950272 0)
(0.778752 -1.01581 0)
(0.778752 -1.08134 0)
(0.778752 -1.14688 0)
(0.778752 -1.21242 0)
(0.778752 -1.27795 0)
(0.778752 -1.34349 0)
(0.778752 -1.40902 0)
(0.778752 -1.47456 0)
(0.778752 -1.5401 0)
(0.778752 -1.60563 0)
(0.778752 -1.67117 0)
(0.778752 -1.7367 0)
(0.778752 -1.80224 0)
(0.778752 -1.86778 0)
(0.778752 -1.93331 0)
(0.778752 -1.99885 0)
(0.778752 -2.06438 0)
(0.778752 -2.12992 0)
(0.778752 -2.19546 0)
(0.778752 -2.26099 0)
(0.778752 -2.32653 0)
(0.778752 -2.39206 0)
(0.778752 -2.4576 0)
(0.778752 -2.52314 0)
(0.778752 -2.58867 0)
(0.778752 -2.65421 0)
(0.778752 -2.71974 0)
(0.778752 -2.78528 0)
(0.778752 -2.85082 0)
(0.778752 -2.91635 0)
(0.778752 -2.98189 0)
(0.778752 -3.04742 0)
(0.778752 -3.11296 0)
(0.778752 -3.1785 0)
(0.778752 -3.24403 0)
(0.860672 -0.032768 0)
(0.860672 -0.098304 0)
(0.860672 -0.16384 0)
(0.860672 -0.229376 0)
(0.860672 -0.294912 0)
(0.860672 -0.360448 0)
(0.860672 -0.425984 0)
(0.860672 -0.49152 0)
(0.860672 -0.557056 0)
(0.860672 -0.622592 0)
(0.860672 -0.688128 0)
(0.860672 -0.753664 0)
(0.860672 -0.8192 0)
(0.860672 -0.884736 0)
(0.860672 -0.950272 0)
(0.860672 -1.01581 0)
(0.860672 -1.08134 0)
(0.860672 -1.14688 0)
(0.860672 -1.21242 0)
(0.860672 -1.27795 0)
(0.860672 -1.34349 0)
(0.860672 -1.40902 0)
(0.860672 -1.47456 0)
(0.860672 -1.5401 0)
(0.860672 -1.60563 0)
(0.860672 -1.67117 0)
(0.860672 -1.7367 0)
(0.860672 -1.80224 0)
(0.860672 -1.86778 0)
(0.860672 -1.93331 0)
(0.860672 -1.99885 0)
(0.860672 -2.06438 0)
(0.860672 -2.12992 0)
(0.860672 -2.19546 0)
(0.860672 -2.26099 0)
(0.860672 -2.32653 0)
(0.860672 -2.39206 0)
(0.860672 -2.4576 0)
(0.860672 -2.52314 0)
(0.860672 -2.58867 0)
(0.860672 -2.65421 0)
(0.860672 -2.71974 0)
(0.860672 -2.78528 0)
(0.860672 -2.85082 0)
(0.860672 -2.91635 0)
(0.860672 -2.98189 0)
(0.860672 -3.04742 0)
(0.860672 -3.11296 0)
(0.860672 -3.1785 0)
(0.860672 -3.24403 0)
(0.946688 -0.032768 0)
(0.946688 -0.098304 0)
(0.946688 -0.16384 0)
(0.946688 -0.229376 0)
(0.946688 -0.294912 0)
(0.946688 -0.360448 0)
(0.946688 -0.425984 0)
(0.946688 -0.49152 0)
(0.946688 -0.557056 0)
(0.946688 -0.622592 0)
(0.946688 -0.688128 0)
(0.946688 -0.753664 0)
(0.946688 -0.8192 0)
(0.946688 -0.884736 0)
(0.946688 -0.950272 0)
(0.946688 -1.01581 0)
(0.946688 -1.08134 0)
(0.946688 -1.14688 0)
(0.946688 -1.21242 0)
(0.946688 -1.27795 0)
(0.946688 -1.34349 0)
(0.946688 -1.40902 0)
(0.946688 -1.47456 0)
(0.946688 -1.5401 0)
(0.946688 -1.60563 0)
(0.946688 -1.67117 0)
(0.946688 -1.7367 0)
(0.946688 -1.80224 0)
(0.946688 -1.86778 0)
(0.946688 -1.93331 0)
(0.946688 -1.99885 0)
(0.946688 -2.06438 0)
(0.946688 -2.12992 0)
(0.946688 -2.19546 0)
(0.946688 -2.26099 0)
(0.946688 -2.32653 0)
(0.946688 -2.39206 0)
(0.946688 -2.4576 0)
(0.946688 -2.52314 0)
(0.946688 -2.58867 0)
(0.946688 -2.65421 0)
(0.946688 -2.71974 0)
(0.946688 -2.78528 0)
(0.946688 -2.85082 0)
(0.946688 -2.91635 0)
(0.946688 -2.98189 0)
(0.946688 -3.04742 0)
(0.946688 -3.11296 0)
(0.946688 -3.1785 0)
(0.946688 -3.24403 0)
(1.0368 -0.032768 0)
(1.0368 -0.098304 0)
(1.0368 -0.16384 0)
(1.0368 -0.229376 0)
(1.0368 -0.294912 0)
(1.0368 -0.360448 0)
(1.0368 -0.425984 0)
(1.0368 -0.49152 0)
(1.0368 -0.557056 0)
(1.0368 -0.622592 0)
(1.0368 -0.688128 0)
(1.0368 -0.753664 0)
(1.0368 -0.8192 0)
(1.0368 -0.884736 0)
(1.0368 -0.950272 0)
(1.0368 -1.01581 0)
(1.0368 -1.08134 0)
(1.0368 -1.14688 0)
(1.0368 -1.21242 0)
(1.0368 -1.27795 0)
(1.0368 -1.34349 0)
(1.0368 -1.40902 0)
(1.0368 -1.47456 0)
(1.0368 -1.5401 0)
(1.0368 -1.60563 0)
(1.0368 -1.67117 0)
(1.0368 -1.7367 0)
(1.0368 -1.80224 0)
(1.0368 -1.86778 0)
(1.0368 -1.93331 0)
(1.0368 -1.99885 0)
(1.0368 -2.06438 0)
(1.0368 -2.12992 0)
(1.0368 -2.19546 0)
(1.0368 -2.26099 0)
(1.0368 -2.32653 0)
(1.0368 -2.39206 0)
(1.0368 -2.4576 0)
(1.0368 -2.52314 0)
(1.0368 -2.58867 0)
(1.0368 -2.65421 0)
(1.0368 -2.71974 0)
(1.0368 -2.78528 0)
(1.0368 -2.85082 0)
(1.0368 -2.91635 0)
(1.0368 -2.98189 0)
(1.0368 -3.04742 0)
(1.0368 -3.11296 0)
(1.0368 -3.1785 0)
(1.0368 -3.24403 0)
(1.13101 -0.032768 0)
(1.13101 -0.098304 0)
(1.13101 -0.16384 0)
(1.13101 -0.229376 0)
(1.13101 -0.294912 0)
(1.13101 -0.360448 0)
(1.13101 -0.425984 0)
(1.13101 -0.49152 0)
(1.13101 -0.557056 0)
(1.13101 -0.622592 0)
(1.13101 -0.688128 0)
(1.13101 -0.753664 0)
(1.13101 -0.8192 0)
(1.13101 -0.884736 0)
(1.13101 -0.950272 0)
(1.13101 -1.01581 0)
(1.13101 -1.08134 0)
(1.13101 -1.14688 0)
(1.13101 -1.21242 0)
(1.13101 -1.27795 0)
(1.13101 -1.34349 0)
(1.13101 -1.40902 0)
(1.13101 -1.47456 0)
(1.13101 -1.5401 0)
(1.13101 -1.60563 0)
(1.13101 -1.67117 0)
(1.13101 -1.7367 0)
(1.13101 -1.80224 0)
(1.13101 -1.86778 0)
(1.13101 -1.93331 0)
(1.13101 -1.99885 0)
(1.13101 -2.06438 0)
(1.13101 -2.12992 0)
(1.13101 -2.19546 0)
(1.13101 -2.26099 0)
(1.13101 -2.32653 0)
(1.13101 -2.39206 0)
(1.13101 -2.4576 0)
(1.13101 -2.52314 0)
(1.13101 -2.58867 0)
(1.13101 -2.65421 0)
(1.13101 -2.71974 0)
(1.13101 -2.78528 0)
(1.13101 -2.85082 0)
(1.13101 -2.91635 0)
(1.13101 -2.98189 0)
(1.13101 -3.04742 0)
(1.13101 -3.11296 0)
(1.13101 -3.1785 0)
(1.13101 -3.24403 0)
(1.22931 -0.032768 0)
(1.22931 -0.098304 0)
(1.22931 -0.16384 0)
(1.22931 -0.229376 0)
(1.22931 -0.294912 0)
(1.22931 -0.360448 0)
(1.22931 -0.425984 0)
(1.22931 -0.49152 0)
(1.22931 -0.557056 0)
(1.22931 -0.622592 0)
(1.22931 -0.688128 0)
(1.22931 -0.753664 0)
(1.22931 -0.8192 0)
(1.22931 -0.884736 0)
(1.22931 -0.950272 0)
(1.22931 -1.01581 0)
(1.22931 -1.08134 0)
(1.22931 -1.14688 0)
(1.22931 -1.21242 0)
(1.22931 -1.27795 0)
(1.22931 -1.34349 0)
(1.22931 -1.40902 0)
(1.22931 -1.47456 0)
(1.22931 -1.5401 0)
(1.22931 -1.60563 0)
(1.22931 -1.67117 0)
(1.22931 -1.7367 0)
(1.22931 -1.80224 0)
(1.22931 -1.86778 0)
(1.22931 -1.93331 0)
(1.22931 -1.99885 0)
(1.22931 -2.06438 0)
(1.22931 -2.12992 0)
(1.22931 -2.19546 0)
(1.22931 -2.26099 0)
(1.22931 -2.32653 0)
(1.22931 -2.39206 0)
(1.22931 -2.4576 0)
(1.22931 -2.52314 0)
(1.22931 -2.58867 0)
(1.22931 -2.65421 0)
(1.22931 -2.71974 0)
(1.22931 -2.78528 0)
(1.22931 -2.85082 0)
(1.22931 -2.91635 0)
(1.22931 -2.98189 0)
(1.22931 -3.04742 0)
(1.22931 -3.11296 0)
(1.22931 -3.1785 0)
(1.22931 -3.24403 0)
(1.33171 -0.032768 0)
(1.33171 -0.098304 0)
(1.33171 -0.16384 0)
(1.33171 -0.229376 0)
(1.33171 -0.294912 0)
(1.33171 -0.360448 0)
(1.33171 -0.425984 0)
(1.33171 -0.49152 0)
(1.33171 -0.557056 0)
(1.33171 -0.622592 0)
(1.33171 -0.688128 0)
(1.33171 -0.753664 0)
(1.33171 -0.8192 0)
(1.33171 -0.884736 0)
(1.33171 -0.950272 0)
(1.33171 -1.01581 0)
(1.33171 -1.08134 0)
(1.33171 -1.14688 0)
(1.33171 -1.21242 0)
(1.33171 -1.27795 0)
(1.33171 -1.34349 0)
(1.33171 -1.40902 0)
(1.33171 -1.47456 0)
(1.33171 -1.5401 0)
(1.33171 -1.60563 0)
(1.33171 -1.67117 0)
(1.33171 -1.7367 0)
(1.33171 -1.80224 0)
(1.33171 -1.86778 0)
(1.33171 -1.93331 0)
(1.33171 -1.99885 0)
(1.33171 -2.06438 0)
(1.33171 -2.12992 0)
(1.33171 -2.19546 0)
(1.33171 -2.26099 0)
(1.33171 -2.32653 0)
(1.33171 -2.39206 0)
(1.33171 -2.4576 0)
(1.33171 -2.52314 0)
(1.33171 -2.58867 0)
(1.33171 -2.65421 0)
(1.33171 -2.71974 0)
(1.33171 -2.78528 0)
(1.33171 -2.85082 0)
(1.33171 -2.91635 0)
(1.33171 -2.98189 0)
(1.33171 -3.04742 0)
(1.33171 -3.11296 0)
(1.33171 -3.1785 0)
(1.33171 -3.24403 0)
(1.43821 -0.032768 0)
(1.43821 -0.098304 0)
(1.43821 -0.16384 0)
(1.43821 -0.229376 0)
(1.43821 -0.294912 0)
(1.43821 -0.360448 0)
(1.43821 -0.425984 0)
(1.43821 -0.49152 0)
(1.43821 -0.557056 0)
(1.43821 -0.622592 0)
(1.43821 -0.688128 0)
(1.43821 -0.753664 0)
(1.43821 -0.8192 0)
(1.43821 -0.884736 0)
(1.43821 -0.950272 0)
(1.43821 -1.01581 0)
(1.43821 -1.08134 0)
(1.43821 -1.14688 0)
(1.43821 -1.21242 0)
(1.43821 -1.27795 0)
(1.43821 -1.34349 0)
(1.43821 -1.40902 0)
(1.43821 -1.47456 0)
(1.43821 -1.5401 0)
(1.43821 -1.60563 0)
(1.43821 -1.67117 0)
(1.43821 -1.7367 0)
(1.43821 -1.80224 0)
(1.43821 -1.86778 0)
(1.43821 -1.93331 0)
(1.43821 -1.99885 0)
(1.43821 -2.06438 0)
(1.43821 -2.12992 0)
(1.43821 -2.19546 0)
(1.43821 -2.26099 0)
(1.43821 -2.32653 0)
(1.43821 -2.39206 0)
(1.43821 -2.4576 0)
(1.43821 -2.52314 0)
(1.43821 -2.58867 0)
(1.43821 -2.65421 0)
(1.43821 -2.71974 0)
(1.43821 -2.78528 0)
(1.43821 -2.85082 0)
(1.43821 -2.91635 0)
(1.43821 -2.98189 0)
(1.43821 -3.04742 0)
(1.43821 -3.11296 0)
(1.43821 -3.1785 0)
(1.43821 -3.24403 0)
(1.5488 -0.032768 0)
(1.5488 -0.098304 0)