/*--------------------------------*- C++ -*----------------------------------*\
| =========                 |                                                 |
| \\      /  F ield         | OpenFOAM: The Open Source CFD Toolbox           |
|  \\    /   O peration     | Version:  v2006                                 |
|   \\  /    A nd           | Website:  www.openfoam.com                      |
|    \\/     M anipulation  |                                                 |
\*---------------------------------------------------------------------------*/
FoamFile
{
    version     2.0;
    format      ascii;
    class       volScalarField;
    location    "12.8";
    object      p;
}
// * * * * * * * * * * * * * * * * * * * * * * * * * * * * * * * * * * * * * //

dimensions      [1 -1 -2 0 0 0 0];


internalField   nonuniform List<scalar> 
150000
(
18940.1
18939.5
18938.4
18936.9
18934.9
18932.3
18929.1
18925.4
18921.1
18916.2
18910.8
18904.8
18898.3
18891.3
18883.8
18875.8
18867.2
18858.2
18848.7
18838.8
18828.4
18817.6
18806.4
18794.7
18782.7
18770.3
18757.5
18744.4
18730.9
18717.2
18703.1
18688.8
18674.2
18659.4
18644.4
18629.2
18613.8
18598.3
18582.6
18566.8
18550.9
18535
18519
18503
18487
18471
18455
18439.1
18423.3
18407.7
18392.1
18376.7
18361.5
18346.4
18331.6
18317
18302.6
18288.4
18274.5
18260.9
18247.6
18234.5
18221.8
18209.4
18197.3
18185.6
18174.3
18163.3
18152.8
18142.6
18132.9
18123.6
18114.7
18106.3
18098.3
18090.8
18083.8
18077.3
18071.2
18065.7
18060.6
18056.1
18052.1
18048.6
18045.6
18043.2
18041.3
18039.9
18039.1
18038.8
18039
18039.7
18041
18042.9
18045.2
18048.1
18051.5
18055.5
18060
18064.9
18070.4
18076.4
18082.9
18089.9
18097.3
18105.2
18113.5
18122.3
18131.5
18141.1
18151.1
18161.5
18172.4
18183.6
18195.1
18207.1
18219.5
18232.3
18245.4
18258.8
18272.6
18286.7
18301.2
18315.9
18331
18346.3
18362
18377.9
18394.2
18410.7
18427.5
18444.5
18461.9
18479.5
18497.4
18515.6
18534.1
18552.9
18572
18591.3
18611.1
18631.1
18651.5
18672.1
18693.1
18714.4
18735.9
18757.8
18780
18802.6
18825.6
18849.2
18873.3
18898
18923.1
18948.7
18974.6
19000.8
19027.2
19054
19081.2
19108.9
19137
19165.7
19194.9
19224.5
19254.7
19285.4
19316.6
19348.2
19380.4
19413.1
19446.3
19479.9
19514
19548.6
19583.7
19619.2
19655.1
19691.5
19728.4
19765.6
19803.3
19841.5
19880
19918.8
19958.1
19997.7
20037.7
20078
20118.6
20159.5
20200.6
20242
20283.7
20325.5
20367.6
20409.8
20452.1
20494.6
20537.2
20579.9
20622.7
20665.5
20708.2
20751
20793.7
20836.4
20878.9
20921.3
20963.5
21005.6
21047.4
21089
21130.3
21171.3
21212
21252.3
21292.3
21332.1
21371.5
21410.6
21449.1
21487
21524
21560
21595
21629.6
21664.1
21698.7
21733.4
21767.7
21801.3
21833.9
21865.5
21896
21925.5
21954.2
21982.2
22009.5
22036.1
22062
22087.3
22111.8
22135.6
22158.6
22180.9
22202.4
22223.2
22243.2
22262.4
22280.8
22298.4
22314.9
22330.5
22345.2
22359.2
22372.7
22385.7
22398.3
22410.3
22421.9
22432.8
22443
22452.4
22461.2
22469.3
22476.7
22483.5
22489.7
22495.4
22500.7
22505.4
22509.6
22513.5
22517
22520
22522.6
22524.9
22526.8
22528.4
22529.6
22530.6
22531.2
22531.5
22531.3
22531.1
22530.8
22530.4
22529.9
22529.2
22528.4
22527.5
22526.5
22525.4
22524.1
22522.8
22521.5
22520
22518.6
22517.1
22515.5
22514
22512.4
22510.8
22509.2
22507.5
22505.9
22504.2
22502.5
22500.8
22499.1
22497.4
22495.6
22493.8
22492
22490.2
22488.3
22486.4
22484.4
22482.4
22480.3
22478.1
22475.8
22473.5
22471.1
22468.6
22465.9
22463.2
22460.3
22457.4
22454.3
22451.1
22447.7
22444.2
22440.6
22436.8
22432.9
22428.9
22424.7
22420.4
22415.9
22411.3
22406.5
22401.7
22396.7
22391.5
22386.3
22380.9
22375.4
22369.8
22364.1
22358.3
22352.5
22346.5
22340.5
22334.4
22328.2
22322
22315.8
22309.5
22303.2
22296.9
22290.5
22284.2
22277.9
22271.6
22265.3
22259.1
22252.8
22246.7
22240.5
22234.5
22228.5
22222.5
22216.6
22210.9
22205.2
22199.5
22194
22188.6
22183.3
22178.1
22173
22168.1
22163.2
22158.5
22153.9
22149.4
22145.1
22140.9
22136.8
22132.9
22129.2
22125.6
22122.2
22118.9
22115.9
22113
22110.3
22107.7
22105.4
22103.3
22101.3
22099.6
22098
22096.7
22095.6
22094.8
22094.2
22093.9
22093.8
22094
22094.5
22095.2
22096.2
22097.5
22099
22100.8
22102.8
22105.1
22107.8
22110.7
22113.9
22117.3
22121.1
22125.1
22129.4
22134
22138.8
22143.9
22149.4
22155.2
22161.3
22167.7
22174.4
22181.2
22188.3
22195.5
22202.9
22210.5
22218.3
22226.2
22234.3
22242.6
22251
22259.5
22268.2
22277.1
22286
22295
22304.1
22313.3
22322.5
22331.8
22341.1
22350.5
22359.8
22369.1
22378.4
22387.6
22396.8
22405.9
22414.9
22423.9
22432.6
22441.3
22449.8
22458.2
22466.4
22474.4
22482.2
22489.8
22497.2
22504.3
22511.3
22517.9
22524.4
22530.5
22536.4
22542.1
22547.4
22552.5
22557.2
22561.7
22565.9
22569.8
22573.4
22576.6
22579.6
22582.3
22584.7
22586.8
22588.7
22590.2
22591.5
22592.6
22593.3
22593.9
22594.1
18613.4
18612.8
18611.8
18610.2
18608.2
18605.6
18602.5
18598.7
18594.4
18589.6
18584.2
18578.2
18571.7
18564.7
18557.1
18549.1
18540.5
18531.5
18522
18512
18501.7
18490.8
18479.6
18467.9
18455.9
18443.5
18430.7
18417.5
18404.1
18390.3
18376.2
18361.9
18347.3
18332.5
18317.5
18302.2
18286.8
18271.3
18255.6
18239.8
18223.9
18208
18192
18176
18159.9
18143.9
18127.9
18112
18096.2
18080.5
18064.9
18049.5
18034.3
18019.2
18004.4
17989.7
17975.3
17961.2
17947.3
17933.7
17920.3
17907.3
17894.5
17882.1
17870.1
17858.4
17847
17836.1
17825.5
17815.3
17805.6
17796.3
17787.4
17779
17771
17763.5
17756.5
17749.9
17743.9
17738.3
17733.3
17728.7
17724.7
17721.2
17718.2
17715.8
17713.9
17712.5
17711.7
17711.4
17711.6
17712.4
17713.7
17715.5
17717.9
17720.8
17724.2
17728.2
17732.6
17737.6
17743.1
17749.1
17755.6
17762.5
17770
17777.9
17786.2
17795
17804.2
17813.8
17823.9
17834.3
17845.1
17856.3
17867.9
17879.9
17892.3
17905.1
17918.2
17931.6
17945.4
17959.5
17974
17988.7
18003.8
18019.2
18034.8
18050.7
18067
18083.5
18100.3
18117.3
18134.7
18152.3
18170.2
18188.4
18206.9
18225.7
18244.8
18264.2
18283.8
18303.9
18324.2
18344.8
18365.8
18387.1
18408.7
18430.6
18452.8
18475.5
18498.7
18522.3
18546.3
18570.9
18596
18621.4
18647.2
18673.3
18699.8
18726.6
18753.8
18781.5
18809.6
18838.3
18867.5
18897.2
18927.4
18958.1
18989.3
19020.9
19053.1
19085.8
19118.9
19152.5
19186.6
19221.2
19256.2
19291.8
19327.7
19364.1
19401
19438.3
19476
19514.1
19552.6
19591.5
19630.8
19670.4
19710.4
19750.7
19791.3
19832.2
19873.3
19914.8
19956.4
19998.3
20040.3
20082.6
20125
20167.5
20210.1
20252.8
20295.5
20338.3
20381.1
20423.9
20466.6
20509.3
20551.8
20594.2
20636.5
20678.5
20720.4
20762
20803.3
20844.4
20885.1
20925.5
20965.5
21005.2
21044.4
21083.3
21121.7
21159.6
21197
21233.7
21269.9
21305.4
21340.2
21374.6
21408.4
21441.6
21474.3
21506.3
21537.6
21568.1
21597.9
21627
21655.3
21682.7
21709.4
21735.4
21760.6
21785.1
21808.9
21832
21854.4
21876.1
21896.9
21916.8
21935.8
21954
21971.3
21987.9
22003.8
22018.9
22033.3
22047
22060.1
22072.4
22084.2
22095.3
22105.8
22115.6
22124.8
22133.4
22141.4
22148.9
22155.7
22162.1
22167.9
22173.3
22178.1
22182.4
22186.4
22189.9
22192.9
22195.5
22197.8
22199.6
22201.1
22202.3
22203.1
22203.5
22203.8
22204.1
22204.1
22203.9
22203.5
22203
22202.3
22201.5
22200.6
22199.5
22198.4
22197.1
22195.8
22194.4
22193
22191.5
22190
22188.4
22186.8
22185.2
22183.6
22181.9
22180.3
22178.6
22177
22175.3
22173.6
22171.8
22170.1
22168.3
22166.5
22164.7
22162.9
22161
22159.1
22157.1
22155
22152.9
22150.8
22148.5
22146.2
22143.8
22141.2
22138.6
22135.9
22133
22130.1
22127
22123.7
22120.4
22116.9
22113.3
22109.5
22105.6
22101.6
22097.4
22093
22088.6
22084
22079.2
22074.4
22069.4
22064.2
22059
22053.6
22048.1
22042.5
22036.8
22031
22025.2
22019.2
22013.2
22007.1
22000.9
21994.7
21988.5
21982.2
21975.9
21969.6
21963.3
21956.9
21950.6
21944.3
21938
21931.8
21925.5
21919.4
21913.2
21907.2
21901.2
21895.2
21889.4
21883.6
21877.9
21872.3
21866.8
21861.4
21856.1
21850.9
21845.8
21840.8
21836
21831.3
21826.7
21822.2
21817.9
21813.7
21809.6
21805.7
21802
21798.4
21795
21791.7
21788.7
21785.8
21783.1
21780.6
21778.2
21776.1
21774.2
21772.5
21770.9
21769.6
21768.5
21767.6
21767
21766.7
21766.6
21766.8
21767.3
21768.1
21769.1
21770.3
21771.8
21773.6
21775.6
21778
21780.6
21783.5
21786.7
21790.1
21793.9
21797.9
21802.2
21806.8
21811.7
21816.8
21822.3
21828.1
21834.2
21840.6
21847.2
21854
21861.1
21868.3
21875.7
21883.3
21891.1
21899
21907.1
21915.4
21923.8
21932.4
21941.1
21949.9
21958.9
21967.9
21977
21986.2
21995.5
22004.8
22014.1
22023.4
22032.8
22042.1
22051.4
22060.7
22069.9
22079
22088
22096.9
22105.7
22114.4
22122.9
22131.3
22139.5
22147.5
22155.3
22162.9
22170.3
22177.5
22184.4
22191.1
22197.5
22203.7
22209.6
22215.2
22220.6
22225.6
22230.4
22234.9
22239.1
22243
22246.6
22249.8
22252.8
22255.5
22257.9
22260
22261.9
22263.4
22264.7
22265.7
22266.5
22267
22267.3
18286.9
18286.2
18285.2
18283.7
18281.7
18279.1
18276
18272.2
18267.9
18263
18257.6
18251.6
18245.1
18238.1
18230.5
18222.4
18213.9
18204.9
18195.4
18185.4
18175
18164.2
18152.9
18141.3
18129.2
18116.8
18104
18090.8
18077.4
18063.6
18049.5
18035.1
18020.5
18005.7
17990.6
17975.4
17960
17944.4
17928.7
17912.9
17897
17881
17865
17848.9
17832.8
17816.8
17800.8
17784.9
17769
17753.3
17737.7
17722.3
17707
17691.9
17677.1
17662.4
17648
17633.8
17619.9
17606.2
17592.9
17579.8
17567
17554.6
17542.5
17530.8
17519.4
17508.5
17497.9
17487.7
17478
17468.6
17459.7
17451.3
17443.3
17435.8
17428.8
17422.2
17416.1
17410.6
17405.5
17401
17397
17393.5
17390.5
17388.1
17386.2
17384.8
17383.9
17383.6
17383.9
17384.6
17386
17387.8
17390.2
17393.1
17396.5
17400.5
17404.9
17409.9
17415.4
17421.4
17427.9
17434.9
17442.3
17450.2
17458.5
17467.3
17476.6
17486.2
17496.3
17506.7
17517.6
17528.9
17540.5
17552.5
17564.9
17577.7
17590.8
17604.2
17618
17632.2
17646.6
17661.4
17676.4
17691.8
17707.4
17723.4
17739.6
17756.1
17772.9
17790
17807.3
17824.9
17842.8
17861
17879.5
17898.3
17917.3
17936.7
17956.4
17976.4
17996.7
18017.4
18038.3
18059.6
18081.2
18103.1
18125.3
18147.9
18171
18194.5
18218.5
18243
18268
18293.5
18319.2
18345.3
18371.8
18398.6
18425.8
18453.5
18481.7
18510.4
18539.6
18569.3
18599.4
18630.1
18661.3
18692.9
18725.1
18757.7
18790.9
18824.5
18858.6
18893.1
18928.2
18963.7
18999.6
19036
19072.9
19110.2
19147.9
19186
19224.6
19263.5
19302.8
19342.4
19382.4
19422.7
19463.4
19504.3
19545.5
19586.9
19628.6
19670.5
19712.6
19754.9
19797.3
19839.8
19882.5
19925.2
19968
20010.8
20053.7
20096.5
20139.3
20182
20224.5
20267
20309.3
20351.4
20393.3
20434.9
20476.3
20517.4
20558.2
20598.6
20638.7
20678.5
20717.9
20756.9
20795.3
20833.1
20870.2
20906.7
20942.6
20977.9
21012.8
21047.4
21081.7
21115.4
21148.3
21180.4
21211.7
21242.2
21271.9
21300.8
21329
21356.5
21383.2
21409.2
21434.4
21458.8
21482.6
21505.6
21527.9
21549.5
21570.3
21590.3
21609.5
21627.8
21645.1
21661.6
21677.2
21692.2
21706.5
21720.2
21733.3
21745.9
21757.9
21769.2
21779.9
21789.9
21799.2
21807.9
21815.9
21823.3
21830.1
21836.4
21842.1
21847.4
21852.2
21856.5
21860.3
21863.7
21866.7
21869.4
21871.6
21873.5
21875
21876.2
21877.1
21877.6
21877.9
21877.9
21877.8
21877.4
21877
21876.3
21875.6
21874.7
21873.7
21872.6
21871.4
21870.1
21868.7
21867.3
21865.8
21864.3
21862.7
21861.1
21859.5
21857.9
21856.2
21854.6
21852.9
21851.2
21849.5
21847.8
21846.1
21844.4
21842.6
21840.8
21839
21837.2
21835.4
21833.5
21831.5
21829.5
21827.5
21825.4
21823.2
21821
21818.6
21816.2
21813.7
21811.1
21808.3
21805.5
21802.5
21799.4
21796.2
21792.9
21789.4
21785.8
21782
21778.1
21774.1
21769.9
21765.6
21761.1
21756.5
21751.7
21746.9
21741.9
21736.7
21731.5
21726.1
21720.6
21715
21709.3
21703.6
21697.7
21691.7
21685.7
21679.6
21673.4
21667.2
21661
21654.7
21648.4
21642.1
21635.8
21629.4
21623.1
21616.8
21610.5
21604.3
21598.1
21591.9
21585.8
21579.7
21573.7
21567.7
21561.9
21556.1
21550.4
21544.8
21539.3
21533.9
21528.6
21523.4
21518.4
21513.4
21508.6
21503.8
21499.2
21494.8
21490.5
21486.3
21482.2
21478.3
21474.6
21471
21467.6
21464.4
21461.3
21458.4
21455.7
21453.2
21450.8
21448.7
21446.8
21445
21443.5
21442.2
21441.1
21440.2
21439.6
21439.3
21439.2
21439.4
21439.9
21440.6
21441.6
21442.8
21444.3
21446.1
21448.2
21450.5
21453.1
21456
21459.2
21462.7
21466.5
21470.5
21474.9
21479.5
21484.4
21489.6
21495.1
21500.9
21507
21513.3
21519.9
21526.7
21533.7
21541
21548.4
21556
21563.8
21571.8
21579.9
21588.2
21596.7
21605.3
21614
21622.9
21631.8
21640.9
21650
21659.2
21668.5
21677.8
21687.1
21696.5
21705.9
21715.2
21724.5
21733.8
21743
21752.1
21761.2
21770.1
21778.9
21787.6
21796.1
21804.5
21812.7
21820.7
21828.6
21836.2
21843.6
21850.8
21857.7
21864.4
21870.8
21877
21882.9
21888.6
21893.9
21899
21903.8
21908.3
21912.5
21916.4
21919.9
21923.2
21926.2
21928.9
21931.3
21933.4
21935.3
21936.8
21938.1
21939.1
21939.8
21940.3
21940.6
17960.5
17959.8
17958.8
17957.3
17955.3
17952.7
17949.6
17945.8
17941.5
17936.6
17931.2
17925.2
17918.7
17911.6
17904.1
17896
17887.5
17878.5
17869
17859
17848.6
17837.7
17826.5
17814.8
17802.7
17790.3
17777.5
17764.3
17750.8
17737
17722.9
17708.5
17693.9
17679
17663.9
17648.7
17633.2
17617.6
17601.9
17586
17570.1
17554
17538
17521.9
17505.8
17489.7
17473.7
17457.7
17441.8
17426.1
17410.4
17395
17379.7
17364.5
17349.6
17334.9
17320.5
17306.2
17292.3
17278.6
17265.2
17252.1
17239.3
17226.9
17214.7
17203
17191.6
17180.6
17170
17159.8
17150
17140.7
17131.8
17123.3
17115.3
17107.8
17100.7
17094.2
17088.1
17082.5
17077.5
17072.9
17068.9
17065.4
17062.4
17059.9
17058
17056.7
17055.8
17055.5
17055.8
17056.5
17057.8
17059.7
17062.1
17065
17068.4
17072.4
17076.9
17081.9
17087.4
17093.4
17099.9
17106.9
17114.3
17122.2
17130.6
17139.4
17148.7
17158.3
17168.4
17178.9
17189.8
17201.1
17212.7
17224.8
17237.2
17250
17263.1
17276.6
17290.4
17304.5
17319
17333.7
17348.8
17364.2
17379.8
17395.8
17412
17428.5
17445.3
17462.4
17479.7
17497.3
17515.2
17533.4
17551.9
17570.6
17589.7
17609
17628.7
17648.7
17669
17689.6
17710.5
17731.8
17753.4
17775.4
17797.7
17820.4
17843.5
17867
17891
17915.3
17940.1
17965.3
17990.9
18016.8
18043.2
18070
18097.3
18125
18153.3
18182
18211.2
18240.9
18271
18301.7
18332.8
18364.5
18396.6
18429.2
18462.3
18495.9
18530
18564.6
18599.6
18635.1
18671.1
18707.5
18744.4
18781.7
18819.4
18857.5
18896.1
18935
18974.3
19014
19054
19094.4
19135.1
19176
19217.2
19258.7
19300.5
19342.4
19384.5
19426.9
19469.3
19511.9
19554.6
19597.4
19640.3
19683.2
19726.1
19769
19811.8
19854.6
19897.2
19939.7
19982.1
20024.3
20066.3
20108
20149.4
20190.6
20231.5
20272
20312.2
20352
20391.4
20430.5
20469
20507
20544.4
20581.1
20617.2
20652.7
20687.6
20722.1
20756
20789.4
20822.2
20854.3
20885.7
20916.3
20946.1
20975.2
21003.4
21030.9
21057.6
21083.5
21108.6
21133
21156.6
21179.6
21201.8
21223.3
21244.1
21264.2
21283.5
21301.9
21319.5
21336.1
21352
21367.1
21381.5
21395.2
21408.2
21420.5
21432.3
21443.4
21453.9
21463.7
21473
21481.6
21489.6
21497
21503.8
21510
21515.9
21521.2
21526
21530.3
21534
21537.4
21540.3
21542.9
21545
21546.8
21548.3
21549.4
21550.2
21550.7
21551
21551
21550.9
21550.6
21550.1
21549.4
21548.6
21547.7
21546.6
21545.4
21544.2
21542.8
21541.4
21540
21538.4
21536.8
21535.2
21533.6
21531.9
21530.3
21528.6
21526.9
21525.2
21523.5
21521.7
21520
21518.3
21516.5
21514.8
21513
21511.2
21509.3
21507.5
21505.6
21503.7
21501.7
21499.6
21497.5
21495.4
21493.1
21490.8
21488.4
21485.9
21483.2
21480.5
21477.7
21474.7
21471.6
21468.4
21465.1
21461.6
21458
21454.2
21450.3
21446.3
21442.1
21437.8
21433.4
21428.8
21424
21419.2
21414.2
21409
21403.8
21398.4
21392.9
21387.3
21381.6
21375.9
21370
21364
21358
21351.9
21345.8
21339.6
21333.3
21327
21320.7
21314.4
21308.1
21301.8
21295.4
21289.1
21282.8
21276.6
21270.4
21264.2
21258.1
21252
21246
21240.1
21234.2
21228.5
21222.8
21217.2
21211.7
21206.3
21201
21195.8
21190.8
21185.8
21181
21176.3
21171.7
21167.2
21162.9
21158.7
21154.7
21150.8
21147
21143.5
21140
21136.8
21133.7
21130.8
21128.1
21125.6
21123.3
21121.1
21119.2
21117.5
21115.9
21114.6
21113.5
21112.7
21112.1
21111.7
21111.6
21111.8
21112.3
21113
21113.9
21115.2
21116.7
21118.5
21120.5
21122.9
21125.5
21128.4
21131.6
21135.1
21138.9
21143
21147.3
21152
21156.9
21162.1
21167.6
21173.4
21179.5
21185.8
21192.4
21199.2
21206.2
21213.4
21220.9
21228.5
21236.3
21244.3
21252.5
21260.8
21269.3
21277.9
21286.7
21295.5
21304.5
21313.6
21322.8
21332
21341.3
21350.7
21360.1
21369.5
21378.8
21388.2
21397.6
21406.9
21416.1
21425.3
21434.4
21443.3
21452.2
21460.9
21469.5
21477.9
21486.1
21494.2
21502
21509.6
21517
21524.3
21531.2
21537.9
21544.4
21550.6
21556.5
21562.1
21567.5
21572.6
21577.3
21581.8
21586
21589.9
21593.5
21596.8
21599.8
21602.5
21604.8
21606.9
21608.8
21610.3
21611.6
21612.6
21613.3
21613.8
21614.1
17634.3
17633.6
17632.6
17631.1
17629.1
17626.5
17623.4
17619.6
17615.3
17610.4
17605
17599
17592.5
17585.5
17577.9
17569.9
17561.4
17552.3
17542.8
17532.9
17522.4
17511.6
17500.3
17488.6
17476.5
17464.1
17451.2
17438
17424.5
17410.7
17396.6
17382.1
17367.5
17352.6
17337.4
17322.1
17306.6
17291
17275.2
17259.3
17243.3
17227.2
17211.1
17194.9
17178.8
17162.6
17146.6
17130.5
17114.6
17098.8
17083.1
17067.6
17052.2
17037
17022.1
17007.3
16992.8
16978.5
16964.5
16950.8
16937.3
16924.2
16911.4
16898.9
16886.7
16874.9
16863.5
16852.5
16841.8
16831.6
16821.8
16812.4
16803.5
16795
16787
16779.4
16772.3
16765.8
16759.7
16754.1
16749
16744.4
16740.4
16736.9
16733.9
16731.5
16729.5
16728.2
16727.3
16727
16727.3
16728
16729.4
16731.2
16733.6
16736.5
16740
16744
16748.5
16753.5
16759
16765
16771.5
16778.5
16786
16793.9
16802.3
16811.2
16820.5
16830.1
16840.3
16850.8
16861.7
16873
16884.7
16896.8
16909.2
16922
16935.2
16948.7
16962.5
16976.7
16991.1
17005.9
17021
17036.3
17052
17068
17084.2
17100.7
17117.5
17134.5
17151.9
17169.5
17187.4
17205.6
17224
17242.8
17261.8
17281.2
17300.8
17320.7
17341
17361.6
17382.5
17403.7
17425.3
17447.2
17469.5
17492.2
17515.2
17538.7
17562.6
17586.9
17611.6
17636.7
17662.2
17688.1
17714.5
17741.3
17768.6
17796.3
17824.5
17853.2
17882.4
17912
17942.1
17972.8
18003.9
18035.5
18067.6
18100.2
18133.3
18166.9
18201
18235.5
18270.6
18306.1
18342
18378.5
18415.3
18452.6
18490.4
18528.5
18567.1
18606.1
18645.4
18685.1
18725.2
18765.6
18806.3
18847.3
18888.6
18930.1
18971.9
19013.9
19056.1
19098.5
19141.1
19183.7
19226.5
19269.4
19312.3
19355.3
19398.3
19441.2
19484.2
19527
19569.7
19612.4
19654.8
19697.1
19739.1
19781
19822.5
19863.8
19904.8
19945.4
19985.7
20025.6
20065.1
20104.1
20142.6
20180.5
20217.9
20254.7
20290.9
20326.6
20361.9
20396.5
20430.6
20464.1
20496.9
20528.9
20560.2
20590.8
20620.7
20649.7
20678.1
20705.6
20732.4
20758.3
20783.5
20808
20831.6
20854.4
20876.6
20898
20918.8
20938.8
20958.1
20976.5
20994
21010.7
21026.6
21041.7
21056.1
21069.9
21083
21095.5
21107.2
21118.4
21128.9
21138.7
21147.9
21156.4
21164.4
21171.7
21178.6
21184.9
21190.5
21195.6
21200.3
21204.5
21208.3
21211.6
21214.5
21217
21219.2
21220.9
21222.3
21223.4
21224.1
21224.6
21224.8
21224.7
21224.5
21224.1
21223.4
21222.7
21221.8
21220.7
21219.6
21218.3
21217
21215.6
21214.1
21212.5
21210.9
21209.3
21207.6
21205.9
21204.2
21202.5
21200.8
21199
21197.3
21195.5
21193.8
21192
21190.2
21188.5
21186.7
21184.9
21183.1
21181.2
21179.4
21177.5
21175.5
21173.6
21171.5
21169.4
21167.2
21165
21162.7
21160.3
21157.8
21155.2
21152.4
21149.6
21146.7
21143.6
21140.4
21137.1
21133.6
21130
21126.2
21122.4
21118.3
21114.2
21109.9
21105.4
21100.8
21096.1
21091.2
21086.2
21081.1
21075.9
21070.5
21065
21059.4
21053.7
21048
21042.1
21036.1
21030.1
21024
21017.9
21011.7
21005.4
20999.2
20992.9
20986.5
20980.2
20973.9
20967.6
20961.3
20955
20948.7
20942.5
20936.3
20930.2
20924.2
20918.2
20912.3
20906.4
20900.7
20895
20889.4
20883.9
20878.5
20873.2
20868.1
20863
20858
20853.2
20848.5
20843.9
20839.5
20835.1
20831
20826.9
20823.1
20819.3
20815.7
20812.3
20809.1
20806
20803.1
20800.4
20797.9
20795.5
20793.4
20791.4
20789.7
20788.2
20786.9
20785.8
20784.9
20784.3
20784
20783.9
20784
20784.5
20785.1
20786.1
20787.4
20788.9
20790.6
20792.7
20795.1
20797.7
20800.6
20803.8
20807.4
20811.1
20815.2
20819.6
20824.3
20829.2
20834.4
20840
20845.8
20851.9
20858.2
20864.8
20871.6
20878.7
20885.9
20893.4
20901
20908.9
20916.9
20925.1
20933.4
20942
20950.6
20959.4
20968.3
20977.3
20986.4
20995.6
21004.9
21014.2
21023.6
21033
21042.5
21051.9
21061.3
21070.7
21080
21089.3
21098.5
21107.6
21116.7
21125.5
21134.3
21142.9
21151.4
21159.6
21167.7
21175.6
21183.3
21190.8
21198
21204.9
21211.7
21218.1
21224.3
21230.3
21235.9
21241.3
21246.4
21251.2
21255.6
21259.8
21263.7
21267.3
21270.6
21273.5
21276.2
21278.6
21280.7
21282.5
21284
21285.3
21286.3
21287
21287.5
21287.7
17308.3
17307.7
17306.6
17305.1
17303.1
17300.5
17297.4
17293.7
17289.4
17284.5
17279.1
17273.1
17266.6
17259.6
17252.1
17244
17235.5
17226.5
17216.9
17207
17196.5
17185.7
17174.4
17162.7
17150.6
17138.1
17125.2
17112
17098.4
17084.5
17070.4
17055.9
17041.2
17026.2
17011
16995.7
16980.1
16964.4
16948.5
16932.5
16916.5
16900.3
16884.1
16867.9
16851.7
16835.5
16819.4
16803.3
16787.3
16771.4
16755.6
16740
16724.6
16709.4
16694.3
16679.5
16664.9
16650.6
16636.5
16622.7
16609.2
16596
16583.2
16570.6
16558.4
16546.6
16535.1
16524.1
16513.4
16503.1
16493.3
16483.9
16474.9
16466.4
16458.3
16450.7
16443.6
16437
16430.9
16425.3
16420.2
16415.6
16411.6
16408
16405
16402.6
16400.7
16399.3
16398.4
16398.1
16398.4
16399.2
16400.5
16402.4
16404.8
16407.7
16411.2
16415.2
16419.7
16424.7
16430.3
16436.3
16442.9
16449.9
16457.4
16465.3
16473.8
16482.6
16491.9
16501.7
16511.8
16522.4
16533.4
16544.7
16556.4
16568.5
16581
16593.9
16607
16620.6
16634.4
16648.6
16663.1
16677.9
16692.9
16708.3
16724
16740
16756.2
16772.7
16789.5
16806.5
16823.9
16841.5
16859.4
16877.5
16896
16914.7
16933.7
16953
16972.6
16992.5
17012.8
17033.3
17054.2
17075.4
17096.9
17118.8
17141.1
17163.7
17186.7
17210.1
17233.9
17258.1
17282.7
17307.8
17333.2
17359.1
17385.4
17412.2
17439.4
17467.1
17495.3
17523.9
17553.1
17582.7
17612.8
17643.4
17674.5
17706.1
17738.1
17770.7
17803.8
17837.4
17871.4
17906
17941
17976.5
18012.5
18048.9
18085.8
18123.1
18160.9
18199
18237.6
18276.6
18316
18355.8
18395.9
18436.3
18477.1
18518.1
18559.5
18601.1
18643
18685
18727.3
18769.8
18812.4
18855.2
18898.1
18941.1
18984.1
19027.2
19070.2
19113.3
19156.3
19199.3
19242.1
19284.8
19327.4
19369.8
19412
19453.9
19495.6
19537
19578.1
19618.8
19659.2
19699.2
19738.8
19777.9
19816.5
19854.6
19892.1
19929
19965.4
20001.2
20036.4
20071.1
20105.3
20138.8
20171.6
20203.8
20235.2
20265.8
20295.7
20324.8
20353.2
20380.8
20407.6
20433.6
20458.9
20483.3
20507
20529.9
20552
20573.4
20594.1
20614
20633.2
20651.6
20669.2
20685.9
20701.9
20717.1
20731.5
20745.2
20758.3
20770.7
20782.4
20793.5
20803.9
20813.7
20822.8
20831.3
20839.2
20846.6
20853.3
20859.6
20865.2
20870.3
20874.9
20879.1
20882.7
20886
20888.8
20891.2
20893.2
20894.8
20896.1
20897.1
20897.8
20898.2
20898.3
20898.2
20897.9
20897.4
20896.7
20895.8
20894.9
20893.7
20892.5
20891.1
20889.7
20888.2
20886.6
20885
20883.3
20881.6
20879.9
20878.1
20876.3
20874.5
20872.7
20870.9
20869.1
20867.4
20865.6
20863.8
20862
20860.2
20858.4
20856.6
20854.7
20852.9
20851
20849.1
20847.2
20845.2
20843.1
20841
20838.9
20836.6
20834.3
20831.9
20829.4
20826.8
20824.1
20821.3
20818.4
20815.3
20812.1
20808.8
20805.3
20801.7
20798
20794.1
20790.1
20786
20781.7
20777.2
20772.6
20767.9
20763.1
20758.1
20753
20747.7
20742.4
20736.9
20731.3
20725.6
20719.8
20714
20708
20702
20695.9
20689.7
20683.5
20677.3
20671
20664.7
20658.4
20652.1
20645.8
20639.4
20633.1
20626.9
20620.6
20614.4
20608.3
20602.2
20596.1
20590.1
20584.2
20578.4
20572.6
20567
20561.4
20555.9
20550.5
20545.2
20540.1
20535
20530.1
20525.3
20520.6
20516
20511.5
20507.2
20503.1
20499
20495.1
20491.4
20487.8
20484.4
20481.2
20478.1
20475.2
20472.5
20470
20467.6
20465.5
20463.5
20461.8
20460.3
20458.9
20457.8
20457
20456.4
20456
20455.9
20456
20456.5
20457.1
20458.1
20459.3
20460.8
20462.6
20464.7
20467.1
20469.7
20472.6
20475.9
20479.4
20483.2
20487.3
20491.7
20496.3
20501.3
20506.6
20512.1
20517.9
20524
20530.3
20536.9
20543.8
20550.9
20558.1
20565.6
20573.3
20581.2
20589.3
20597.5
20605.9
20614.4
20623.1
20632
20640.9
20650
20659.1
20668.4
20677.7
20687.1
20696.5
20706
20715.4
20724.9
20734.4
20743.8
20753.2
20762.6
20771.8
20781
20790
20799
20807.8
20816.5
20825
20833.3
20841.4
20849.3
20857.1
20864.6
20871.8
20878.8
20885.6
20892.1
20898.3
20904.2
20909.9
20915.3
20920.4
20925.2
20929.6
20933.8
20937.7
20941.3
20944.5
20947.5
20950.1
20952.5
20954.6
20956.3
20957.9
20959.1
20960.1
20960.8
20961.3
20961.5
16982.6
16981.9
16980.9
16979.3
16977.3
16974.8
16971.7
16968
16963.7
16958.8
16953.4
16947.5
16941
16934
16926.5
16918.4
16909.9
16900.8
16891.3
16881.3
16870.9
16860
16848.7
16836.9
16824.8
16812.2
16799.3
16786.1
16772.5
16758.5
16744.3
16729.8
16715
16700
16684.7
16669.3
16653.7
16637.9
16621.9
16605.9
16589.7
16573.5
16557.2
16540.9
16524.6
16508.4
16492.1
16476
16459.9
16443.9
16428.1
16412.4
16396.9
16381.5
16366.4
16351.5
16336.9
16322.5
16308.3
16294.5
16280.9
16267.7
16254.7
16242.1
16229.9
16218
16206.5
16195.4
16184.6
16174.3
16164.4
16155
16146
16137.4
16129.3
16121.7
16114.6
16107.9
16101.8
16096.2
16091
16086.4
16082.4
16078.8
16075.8
16073.4
16071.4
16070
16069.2
16068.9
16069.1
16069.9
16071.3
16073.2
16075.6
16078.5
16082
16086
16090.6
16095.6
16101.2
16107.3
16113.8
16120.9
16128.4
16136.4
16144.9
16153.8
16163.1
16172.9
16183.1
16193.7
16204.7
16216.1
16227.9
16240
16252.6
16265.4
16278.6
16292.2
16306.1
16320.3
16334.8
16349.6
16364.7
16380.1
16395.8
16411.8
16428
16444.5
16461.3
16478.4
16495.7
16513.3
16531.1
16549.3
16567.7
16586.4
16605.4
16624.7
16644.3
16664.1
16684.3
16704.8
16725.6
16746.8
16768.3
16790.1
16812.3
16834.9
16857.8
16881.1
16904.9
16929
16953.6
16978.5
17003.9
17029.7
17056
17082.7
17109.9
17137.6
17165.7
17194.3
17223.4
17252.9
17283
17313.5
17344.6
17376.1
17408.2
17440.7
17473.8
17507.3
17541.4
17575.9
17610.9
17646.4
17682.4
17718.8
17755.7
17793.1
17830.9
17869.1
17907.7
17946.7
17986.1
18025.9
18066.1
18106.6
18147.4
18188.6
18230
18271.7
18313.6
18355.8
18398.2
18440.7
18483.5
18526.3
18569.3
18612.4
18655.6
18698.7
18741.9
18785.1
18828.2
18871.3
18914.3
18957.1
18999.8
19042.4
19084.7
19126.8
19168.6
19210.1
19251.3
19292.2
19332.7
19372.9
19412.5
19451.8
19490.5
19528.7
19566.3
19603.4
19639.9
19675.9
19711.3
19746.1
19780.3
19813.8
19846.7
19878.9
19910.4
19941.1
19971.1
20000.3
20028.7
20056.3
20083.2
20109.3
20134.6
20159.1
20182.8
20205.7
20227.9
20249.3
20269.9
20289.8
20308.9
20327.3
20344.8
20361.6
20377.6
20392.8
20407.3
20421.1
20434.1
20446.5
20458.2
20469.2
20479.6
20489.3
20498.3
20506.8
20514.6
20521.9
20528.6
20534.7
20540.3
20545.3
20549.9
20553.9
20557.5
20560.7
20563.4
20565.7
20567.6
20569.2
20570.4
20571.3
20571.9
20572.1
20572.2
20571.9
20571.5
20570.9
20570.1
20569.1
20568
20566.8
20565.4
20564
20562.4
20560.8
20559.1
20557.4
20555.6
20553.8
20552
20550.1
20548.3
20546.4
20544.6
20542.7
20540.9
20539
20537.2
20535.3
20533.5
20531.7
20529.8
20528
20526.2
20524.3
20522.4
20520.5
20518.5
20516.6
20514.5
20512.4
20510.3
20508
20505.7
20503.3
20500.8
20498.3
20495.6
20492.8
20489.8
20486.8
20483.6
20480.3
20476.9
20473.3
20469.6
20465.7
20461.7
20457.6
20453.3
20448.8
20444.3
20439.5
20434.7
20429.7
20424.6
20419.4
20414
20408.5
20402.9
20397.3
20391.5
20385.6
20379.7
20373.6
20367.5
20361.4
20355.2
20348.9
20342.7
20336.4
20330.1
20323.7
20317.4
20311.1
20304.8
20298.5
20292.3
20286.1
20279.9
20273.8
20267.8
20261.8
20255.9
20250.1
20244.4
20238.7
20233.1
20227.7
20222.3
20217
20211.9
20206.8
20201.9
20197.1
20192.4
20187.8
20183.4
20179.1
20174.9
20170.9
20167
20163.3
20159.8
20156.3
20153.1
20150
20147.1
20144.4
20141.9
20139.5
20137.4
20135.4
20133.7
20132.1
20130.8
20129.7
20128.8
20128.2
20127.8
20127.7
20127.9
20128.3
20128.9
20129.9
20131.1
20132.6
20134.4
20136.5
20138.8
20141.5
20144.4
20147.7
20151.2
20155
20159.1
20163.5
20168.2
20173.2
20178.5
20184.1
20189.9
20196
20202.4
20209
20215.9
20223
20230.3
20237.8
20245.5
20253.4
20261.5
20269.8
20278.3
20286.9
20295.6
20304.5
20313.5
20322.6
20331.8
20341.1
20350.5
20359.9
20369.4
20378.9
20388.4
20398
20407.5
20417
20426.5
20435.8
20445.2
20454.4
20463.5
20472.5
20481.4
20490.1
20498.7
20507.1
20515.3
20523.2
20531
20538.5
20545.8
20552.9
20559.7
20566.2
20572.4
20578.4
20584.1
20589.5
20594.6
20599.4
20603.9
20608
20611.9
20615.5
20618.7
20621.7
20624.3
20626.6
20628.7
20630.4
20631.9
20633.1
20634.1
20634.8
20635.2
20635.4
16657.2
16656.5
16655.4
16653.9
16651.9
16649.3
16646.2
16642.5
16638.3
16633.4
16628
16622.1
16615.6
16608.6
16601.1
16593
16584.5
16575.4
16565.9
16555.9
16545.4
16534.5
16523.1
16511.4
16499.2
16486.6
16473.6
16460.3
16446.7
16432.7
16418.4
16403.8
16389
16373.9
16358.5
16343
16327.3
16311.4
16295.4
16279.2
16263
16246.7
16230.3
16213.9
16197.5
16181.2
16164.8
16148.6
16132.4
16116.3
16100.4
16084.6
16069
16053.6
16038.4
16023.4
16008.6
15994.2
15979.9
15966
15952.4
15939.1
15926.1
15913.4
15901.1
15889.1
15877.6
15866.4
15855.6
15845.2
15835.3
15825.8
15816.7
15808.1
15800
15792.3
15785.1
15778.5
15772.3
15766.6
15761.5
15756.9
15752.8
15749.2
15746.2
15743.7
15741.8
15740.4
15739.6
15739.3
15739.5
15740.3
15741.7
15743.6
15746
15749
15752.5
15756.5
15761.1
15766.2
15771.8
15777.9
15784.5
15791.6
15799.1
15807.2
15815.7
15824.6
15834
15843.9
15854.1
15864.8
15875.8
15887.3
15899.1
15911.3
15923.9
15936.8
15950
15963.6
15977.5
15991.8
16006.3
16021.1
16036.3
16051.7
16067.4
16083.4
16099.6
16116.1
16132.9
16150
16167.3
16184.9
16202.7
16220.8
16239.2
16257.9
16276.9
16296.1
16315.6
16335.5
16355.6
16376.1
16396.8
16417.9
16439.4
16461.2
16483.3
16505.8
16528.6
16551.9
16575.5
16599.6
16624.1
16648.9
16674.3
16700
16726.2
16752.9
16780
16807.6
16835.6
16864.2
16893.2
16922.7
16952.7
16983.2
17014.2
17045.8
17077.8
17110.3
17143.3
17176.8
17210.8
17245.4
17280.4
17315.9
17351.8
17388.3
17425.2
17462.5
17500.4
17538.6
17577.3
17616.3
17655.8
17695.7
17735.9
17776.4
17817.3
17858.5
17900
17941.8
17983.9
18026.1
18068.6
18111.3
18154.1
18197.1
18240.2
18283.4
18326.7
18370
18413.4
18456.7
18500
18543.2
18586.3
18629.3
18672.1
18714.8
18757.3
18799.5
18841.5
18883.2
18924.6
18965.6
19006.3
19046.6
19086.4
19125.7
19164.6
19202.9
19240.7
19278
19314.7
19350.8
19386.3
19421.2
19455.5
19489.2
19522.2
19554.4
19586
19616.8
19646.8