/*--------------------------------*- C++ -*----------------------------------*\
| =========                 |                                                 |
| \\      /  F ield         | OpenFOAM: The Open Source CFD Toolbox           |
|  \\    /   O peration     | Version:  v2006                                 |
|   \\  /    A nd           | Website:  www.openfoam.com                      |
|    \\/     M anipulation  |                                                 |
\*---------------------------------------------------------------------------*/
FoamFile
{
    version     2.0;
    format      ascii;
    class       volVectorField;
    location    "0.1";
    object      U;
}
// * * * * * * * * * * * * * * * * * * * * * * * * * * * * * * * * * * * * * //

dimensions      [0 1 -1 0 0 0 0];


internalField   nonuniform List<vector> 
52500
(
(-2.82982e-07 4.62215e-07 0)
(-8.49e-07 4.6229e-07 0)
(-1.41504e-06 4.6233e-07 0)
(-1.98115e-06 4.62389e-07 0)
(-2.54735e-06 4.62465e-07 0)
(-3.11365e-06 4.6256e-07 0)
(-3.68008e-06 4.62672e-07 0)
(-4.24665e-06 4.62803e-07 0)
(-4.8134e-06 4.62951e-07 0)
(-5.38035e-06 4.63118e-07 0)
(-5.94751e-06 4.63302e-07 0)
(-6.51491e-06 4.63505e-07 0)
(-7.08257e-06 4.63725e-07 0)
(-7.65051e-06 4.63963e-07 0)
(-8.21875e-06 4.64219e-07 0)
(-8.78732e-06 4.64493e-07 0)
(-9.35624e-06 4.64784e-07 0)
(-9.92552e-06 4.65093e-07 0)
(-1.04952e-05 4.65419e-07 0)
(-1.10653e-05 4.65761e-07 0)
(-1.16358e-05 4.6612e-07 0)
(-1.22068e-05 4.66496e-07 0)
(-1.27782e-05 4.66887e-07 0)
(-1.33501e-05 4.67294e-07 0)
(-1.39226e-05 4.67717e-07 0)
(-1.44955e-05 4.68156e-07 0)
(-1.5069e-05 4.68609e-07 0)
(-1.56431e-05 4.69078e-07 0)
(-1.62178e-05 4.69561e-07 0)
(-1.6793e-05 4.70059e-07 0)
(-1.73689e-05 4.7057e-07 0)
(-1.79454e-05 4.71095e-07 0)
(-1.85225e-05 4.71632e-07 0)
(-1.91004e-05 4.72183e-07 0)
(-1.96789e-05 4.72745e-07 0)
(-2.02581e-05 4.7332e-07 0)
(-2.0838e-05 4.73906e-07 0)
(-2.14187e-05 4.74504e-07 0)
(-2.20001e-05 4.75113e-07 0)
(-2.25822e-05 4.75731e-07 0)
(-2.31651e-05 4.7636e-07 0)
(-2.37488e-05 4.76998e-07 0)
(-2.43333e-05 4.77644e-07 0)
(-2.49186e-05 4.78298e-07 0)
(-2.55046e-05 4.7896e-07 0)
(-2.60915e-05 4.7963e-07 0)
(-2.66793e-05 4.80307e-07 0)
(-2.72678e-05 4.8099e-07 0)
(-2.78572e-05 4.81679e-07 0)
(-2.84474e-05 4.82373e-07 0)
(-2.90385e-05 4.83071e-07 0)
(-2.96305e-05 4.83772e-07 0)
(-3.02233e-05 4.84475e-07 0)
(-3.0817e-05 4.85181e-07 0)
(-3.14116e-05 4.85887e-07 0)
(-3.2007e-05 4.86594e-07 0)
(-3.26033e-05 4.87301e-07 0)
(-3.32004e-05 4.88007e-07 0)
(-3.37985e-05 4.88712e-07 0)
(-3.43973e-05 4.89414e-07 0)
(-3.49971e-05 4.90114e-07 0)
(-3.55977e-05 4.90811e-07 0)
(-3.61991e-05 4.91502e-07 0)
(-3.68014e-05 4.92187e-07 0)
(-3.74045e-05 4.92865e-07 0)
(-3.80085e-05 4.93535e-07 0)
(-3.86133e-05 4.94197e-07 0)
(-3.92188e-05 4.94849e-07 0)
(-3.98252e-05 4.9549e-07 0)
(-4.04324e-05 4.96119e-07 0)
(-4.10403e-05 4.96736e-07 0)
(-4.16489e-05 4.97339e-07 0)
(-4.22583e-05 4.97927e-07 0)
(-4.28684e-05 4.98498e-07 0)
(-4.34792e-05 4.99052e-07 0)
(-4.40906e-05 4.99588e-07 0)
(-4.47027e-05 5.00103e-07 0)
(-4.53154e-05 5.00597e-07 0)
(-4.59288e-05 5.01069e-07 0)
(-4.65426e-05 5.01518e-07 0)
(-4.7157e-05 5.01942e-07 0)
(-4.7772e-05 5.0234e-07 0)
(-4.83873e-05 5.02711e-07 0)
(-4.90032e-05 5.03053e-07 0)
(-4.96194e-05 5.03365e-07 0)
(-5.0236e-05 5.03646e-07 0)
(-5.08529e-05 5.03893e-07 0)
(-5.14701e-05 5.04105e-07 0)
(-5.20876e-05 5.04282e-07 0)
(-5.27052e-05 5.0442e-07 0)
(-5.3323e-05 5.0452e-07 0)
(-5.39409e-05 5.04578e-07 0)
(-5.45588e-05 5.04593e-07 0)
(-5.51767e-05 5.04564e-07 0)
(-5.57946e-05 5.04488e-07 0)
(-5.64123e-05 5.04365e-07 0)
(-5.70298e-05 5.04192e-07 0)
(-5.76471e-05 5.03968e-07 0)
(-5.82641e-05 5.03691e-07 0)
(-5.88808e-05 5.03359e-07 0)
(-5.94969e-05 5.0297e-07 0)
(-6.01126e-05 5.02523e-07 0)
(-6.07277e-05 5.02014e-07 0)
(-6.13421e-05 5.01442e-07 0)
(-6.19558e-05 5.00806e-07 0)
(-6.25687e-05 5.00103e-07 0)
(-6.31806e-05 4.99331e-07 0)
(-6.37916e-05 4.98489e-07 0)
(-6.44015e-05 4.97573e-07 0)
(-6.50102e-05 4.96582e-07 0)
(-6.56177e-05 4.95514e-07 0)
(-6.62238e-05 4.94366e-07 0)
(-6.68285e-05 4.93137e-07 0)
(-6.74316e-05 4.91823e-07 0)
(-6.80331e-05 4.90424e-07 0)
(-6.86328e-05 4.88937e-07 0)
(-6.92306e-05 4.87359e-07 0)
(-6.98264e-05 4.85689e-07 0)
(-7.04201e-05 4.83923e-07 0)
(-7.10116e-05 4.82059e-07 0)
(-7.16007e-05 4.80096e-07 0)
(-7.21874e-05 4.7803e-07 0)
(-7.27715e-05 4.75859e-07 0)
(-7.33528e-05 4.73581e-07 0)
(-7.39313e-05 4.71194e-07 0)
(-7.45069e-05 4.68696e-07 0)
(-7.50792e-05 4.66083e-07 0)
(-7.56484e-05 4.63354e-07 0)
(-7.6214e-05 4.60506e-07 0)
(-7.67762e-05 4.57536e-07 0)
(-7.73346e-05 4.54441e-07 0)
(-7.78892e-05 4.5122e-07 0)
(-7.84397e-05 4.4787e-07 0)
(-7.89861e-05 4.44389e-07 0)
(-7.95281e-05 4.40775e-07 0)
(-8.00656e-05 4.37025e-07 0)
(-8.05984e-05 4.33137e-07 0)
(-8.11264e-05 4.29109e-07 0)
(-8.16493e-05 4.24938e-07 0)
(-8.21671e-05 4.20621e-07 0)
(-8.26794e-05 4.16157e-07 0)
(-8.31863e-05 4.11542e-07 0)
(-8.36873e-05 4.06776e-07 0)
(-8.41825e-05 4.01855e-07 0)
(-8.46715e-05 3.96778e-07 0)
(-8.51542e-05 3.91542e-07 0)
(-8.56304e-05 3.86146e-07 0)
(-8.60999e-05 3.80588e-07 0)
(-8.65625e-05 3.74864e-07 0)
(-8.70179e-05 3.68974e-07 0)
(-8.74661e-05 3.62915e-07 0)
(-8.79067e-05 3.56686e-07 0)
(-8.83396e-05 3.50285e-07 0)
(-8.87645e-05 3.43711e-07 0)
(-8.91813e-05 3.36962e-07 0)
(-8.95897e-05 3.30038e-07 0)
(-8.99896e-05 3.22937e-07 0)
(-9.03806e-05 3.15658e-07 0)
(-9.07626e-05 3.08198e-07 0)
(-9.11354e-05 3.00557e-07 0)
(-9.14987e-05 2.92734e-07 0)
(-9.18523e-05 2.84727e-07 0)
(-9.2196e-05 2.76537e-07 0)
(-9.25295e-05 2.68162e-07 0)
(-9.28527e-05 2.59604e-07 0)
(-9.31653e-05 2.50861e-07 0)
(-9.34671e-05 2.41934e-07 0)
(-9.37578e-05 2.32822e-07 0)
(-9.40372e-05 2.23525e-07 0)
(-9.43052e-05 2.14043e-07 0)
(-9.45614e-05 2.04378e-07 0)
(-9.48057e-05 1.94528e-07 0)
(-9.50379e-05 1.84497e-07 0)
(-9.52576e-05 1.74283e-07 0)
(-9.54647e-05 1.6389e-07 0)
(-9.56589e-05 1.53318e-07 0)
(-9.58401e-05 1.42569e-07 0)
(-9.60081e-05 1.31643e-07 0)
(-9.61625e-05 1.20543e-07 0)
(-9.63033e-05 1.09271e-07 0)
(-9.64301e-05 9.78289e-08 0)
(-9.65429e-05 8.62198e-08 0)
(-9.66413e-05 7.44467e-08 0)
(-9.67252e-05 6.25126e-08 0)
(-9.67944e-05 5.04208e-08 0)
(-9.68487e-05 3.81747e-08 0)
(-9.68879e-05 2.57776e-08 0)
(-9.69118e-05 1.32342e-08 0)
(-9.69203e-05 5.51316e-10 0)
(-9.69132e-05 -1.2275e-08 0)
(-9.68903e-05 -2.52326e-08 0)
(-9.68514e-05 -3.83183e-08 0)
(-9.67965e-05 -5.15275e-08 0)
(-9.67252e-05 -6.4855e-08 0)
(-9.66376e-05 -7.82954e-08 0)
(-9.65335e-05 -9.18432e-08 0)
(-9.64127e-05 -1.05492e-07 0)
(-9.62751e-05 -1.19236e-07 0)
(-9.61207e-05 -1.33069e-07 0)
(-9.59493e-05 -1.46982e-07 0)
(-9.57608e-05 -1.60968e-07 0)
(-9.55551e-05 -1.7502e-07 0)
(-9.53322e-05 -1.89131e-07 0)
(-9.50919e-05 -2.03292e-07 0)
(-9.48343e-05 -2.17497e-07 0)
(-9.45593e-05 -2.31736e-07 0)
(-9.42668e-05 -2.46002e-07 0)
(-9.39569e-05 -2.60286e-07 0)
(-9.36295e-05 -2.74578e-07 0)
(-9.32845e-05 -2.88871e-07 0)
(-9.29221e-05 -3.03154e-07 0)
(-9.25422e-05 -3.17418e-07 0)
(-9.21448e-05 -3.31653e-07 0)
(-9.173e-05 -3.45849e-07 0)
(-9.12979e-05 -3.59998e-07 0)
(-9.08485e-05 -3.74087e-07 0)
(-9.03819e-05 -3.88109e-07 0)
(-8.98981e-05 -4.02052e-07 0)
(-8.93974e-05 -4.15905e-07 0)
(-8.88797e-05 -4.2966e-07 0)
(-8.83453e-05 -4.43304e-07 0)
(-8.77942e-05 -4.56826e-07 0)
(-8.72267e-05 -4.70217e-07 0)
(-8.66428e-05 -4.83464e-07 0)
(-8.60429e-05 -4.96559e-07 0)
(-8.5427e-05 -5.0949e-07 0)
(-8.47953e-05 -5.22247e-07 0)
(-8.41482e-05 -5.34819e-07 0)
(-8.34857e-05 -5.47196e-07 0)
(-8.28083e-05 -5.59366e-07 0)
(-8.21161e-05 -5.71318e-07 0)
(-8.14094e-05 -5.83041e-07 0)
(-8.06884e-05 -5.94527e-07 0)
(-7.99536e-05 -6.05764e-07 0)
(-7.92051e-05 -6.16744e-07 0)
(-7.84434e-05 -6.27457e-07 0)
(-7.76687e-05 -6.37892e-07 0)
(-7.68815e-05 -6.4804e-07 0)
(-7.60819e-05 -6.57891e-07 0)
(-7.52705e-05 -6.67436e-07 0)
(-7.44477e-05 -6.76667e-07 0)
(-7.36137e-05 -6.85575e-07 0)
(-7.2769e-05 -6.94153e-07 0)
(-7.1914e-05 -7.02392e-07 0)
(-7.10491e-05 -7.10284e-07 0)
(-7.01748e-05 -7.17821e-07 0)
(-6.92914e-05 -7.24998e-07 0)
(-6.83995e-05 -7.31808e-07 0)
(-6.74995e-05 -7.38244e-07 0)
(-6.65918e-05 -7.44302e-07 0)
(-6.5677e-05 -7.49975e-07 0)
(-6.47554e-05 -7.55259e-07 0)
(-6.38276e-05 -7.60148e-07 0)
(-6.28941e-05 -7.64639e-07 0)
(-6.19553e-05 -7.68729e-07 0)
(-6.10117e-05 -7.72415e-07 0)
(-6.00639e-05 -7.75696e-07 0)
(-5.91123e-05 -7.78569e-07 0)
(-5.81575e-05 -7.8103e-07 0)
(-5.71999e-05 -7.83078e-07 0)
(-5.624e-05 -7.84711e-07 0)
(-5.52784e-05 -7.85932e-07 0)
(-5.43155e-05 -7.86742e-07 0)
(-5.33519e-05 -7.87142e-07 0)
(-5.23881e-05 -7.87133e-07 0)
(-5.14245e-05 -7.86714e-07 0)
(-5.04617e-05 -7.85888e-07 0)
(-4.95002e-05 -7.84659e-07 0)
(-4.85404e-05 -7.8303e-07 0)
(-4.75828e-05 -7.81006e-07 0)
(-4.6628e-05 -7.78592e-07 0)
(-4.56763e-05 -7.75792e-07 0)
(-4.47283e-05 -7.72612e-07 0)
(-4.37844e-05 -7.69057e-07 0)
(-4.28451e-05 -7.65134e-07 0)
(-4.19109e-05 -7.60849e-07 0)
(-4.0982e-05 -7.56209e-07 0)
(-4.00591e-05 -7.51224e-07 0)
(-3.91425e-05 -7.45901e-07 0)
(-3.82326e-05 -7.40249e-07 0)
(-3.73299e-05 -7.34274e-07 0)
(-3.64346e-05 -7.27987e-07 0)
(-3.55472e-05 -7.21399e-07 0)
(-3.46681e-05 -7.14519e-07 0)
(-3.37975e-05 -7.07359e-07 0)
(-3.29359e-05 -6.99929e-07 0)
(-3.20836e-05 -6.92238e-07 0)
(-3.12408e-05 -6.84301e-07 0)
(-3.04079e-05 -6.76129e-07 0)
(-2.95851e-05 -6.67732e-07 0)
(-2.87728e-05 -6.59123e-07 0)
(-2.79711e-05 -6.50314e-07 0)
(-2.71803e-05 -6.41318e-07 0)
(-2.64006e-05 -6.32148e-07 0)
(-2.56323e-05 -6.22817e-07 0)
(-2.48754e-05 -6.13337e-07 0)
(-2.41303e-05 -6.03722e-07 0)
(-2.3397e-05 -5.93985e-07 0)
(-2.26757e-05 -5.84141e-07 0)
(-2.19665e-05 -5.74203e-07 0)
(-2.12696e-05 -5.64183e-07 0)
(-2.05849e-05 -5.54097e-07 0)
(-1.99126e-05 -5.43956e-07 0)
(-1.92528e-05 -5.33773e-07 0)
(-1.86055e-05 -5.23564e-07 0)
(-1.79706e-05 -5.13342e-07 0)
(-1.73483e-05 -5.0312e-07 0)
(-1.67385e-05 -4.92911e-07 0)
(-1.61412e-05 -4.8273e-07 0)
(-1.55563e-05 -4.7259e-07 0)
(-1.49838e-05 -4.62504e-07 0)
(-1.44236e-05 -4.52485e-07 0)
(-1.38756e-05 -4.42542e-07 0)
(-1.33397e-05 -4.32692e-07 0)
(-1.28159e-05 -4.22947e-07 0)
(-1.23039e-05 -4.13321e-07 0)
(-1.18036e-05 -4.03825e-07 0)
(-1.13148e-05 -3.94467e-07 0)
(-1.08375e-05 -3.85262e-07 0)
(-1.03713e-05 -3.76222e-07 0)
(-9.91601e-06 -3.67356e-07 0)
(-9.4715e-06 -3.58675e-07 0)
(-9.0375e-06 -3.50191e-07 0)
(-8.61377e-06 -3.41917e-07 0)
(-8.20004e-06 -3.33863e-07 0)
(-7.79604e-06 -3.26034e-07 0)
(-7.40149e-06 -3.18438e-07 0)
(-7.01608e-06 -3.11088e-07 0)
(-6.63951e-06 -3.03994e-07 0)
(-6.27147e-06 -2.97162e-07 0)
(-5.91163e-06 -2.906e-07 0)
(-5.55966e-06 -2.8432e-07 0)
(-5.21521e-06 -2.78328e-07 0)
(-4.87791e-06 -2.72629e-07 0)
(-4.54742e-06 -2.67229e-07 0)
(-4.22335e-06 -2.62134e-07 0)
(-3.90532e-06 -2.5735e-07 0)
(-3.59296e-06 -2.52884e-07 0)
(-3.28587e-06 -2.48742e-07 0)
(-2.98365e-06 -2.44929e-07 0)
(-2.68589e-06 -2.4145e-07 0)
(-2.39219e-06 -2.38309e-07 0)
(-2.10213e-06 -2.35506e-07 0)
(-1.81529e-06 -2.3304e-07 0)
(-1.53124e-06 -2.30923e-07 0)
(-1.24958e-06 -2.29159e-07 0)
(-9.69862e-07 -2.27742e-07 0)
(-6.91664e-07 -2.2668e-07 0)
(-4.14553e-07 -2.2597e-07 0)
(-1.38099e-07 -2.25586e-07 0)
(-2.82939e-07 1.38669e-06 0)
(-8.48933e-07 1.38696e-06 0)
(-1.41495e-06 1.38707e-06 0)
(-1.98104e-06 1.38724e-06 0)
(-2.54721e-06 1.38747e-06 0)
(-3.11348e-06 1.38775e-06 0)
(-3.67988e-06 1.38809e-06 0)
(-4.24643e-06 1.38848e-06 0)
(-4.81315e-06 1.38892e-06 0)
(-5.38007e-06 1.38942e-06 0)
(-5.9472e-06 1.38998e-06 0)
(-6.51458e-06 1.39059e-06 0)
(-7.08221e-06 1.39125e-06 0)
(-7.65013e-06 1.39196e-06 0)
(-8.21834e-06 1.39273e-06 0)
(-8.78689e-06 1.39356e-06 0)
(-9.35578e-06 1.39443e-06 0)
(-9.92504e-06 1.39536e-06 0)
(-1.04947e-05 1.39634e-06 0)
(-1.10647e-05 1.39737e-06 0)
(-1.16352e-05 1.39844e-06 0)
(-1.22062e-05 1.39957e-06 0)
(-1.27776e-05 1.40075e-06 0)
(-1.33495e-05 1.40197e-06 0)
(-1.39219e-05 1.40324e-06 0)
(-1.44949e-05 1.40456e-06 0)
(-1.50684e-05 1.40593e-06 0)
(-1.56424e-05 1.40734e-06 0)
(-1.6217e-05 1.40879e-06 0)
(-1.67923e-05 1.41028e-06 0)
(-1.73681e-05 1.41182e-06 0)
(-1.79446e-05 1.41339e-06 0)
(-1.85218e-05 1.41501e-06 0)
(-1.90996e-05 1.41666e-06 0)
(-1.96781e-05 1.41835e-06 0)
(-2.02573e-05 1.42007e-06 0)
(-2.08372e-05 1.42183e-06 0)
(-2.14179e-05 1.42363e-06 0)
(-2.19993e-05 1.42546e-06 0)
(-2.25814e-05 1.42731e-06 0)
(-2.31643e-05 1.4292e-06 0)
(-2.3748e-05 1.43112e-06 0)
(-2.43325e-05 1.43306e-06 0)
(-2.49178e-05 1.43503e-06 0)
(-2.55039e-05 1.43702e-06 0)
(-2.60908e-05 1.43903e-06 0)
(-2.66785e-05 1.44106e-06 0)
(-2.72671e-05 1.44312e-06 0)
(-2.78565e-05 1.44518e-06 0)
(-2.84468e-05 1.44727e-06 0)
(-2.90379e-05 1.44936e-06 0)
(-2.96298e-05 1.45147e-06 0)
(-3.02227e-05 1.45358e-06 0)
(-3.08164e-05 1.4557e-06 0)
(-3.1411e-05 1.45782e-06 0)
(-3.20064e-05 1.45994e-06 0)
(-3.26028e-05 1.46207e-06 0)
(-3.32e-05 1.46419e-06 0)
(-3.3798e-05 1.46631e-06 0)
(-3.43969e-05 1.46842e-06 0)
(-3.49967e-05 1.47052e-06 0)
(-3.55974e-05 1.47262e-06 0)
(-3.61989e-05 1.47469e-06 0)
(-3.68012e-05 1.47675e-06 0)
(-3.74044e-05 1.47879e-06 0)
(-3.80084e-05 1.4808e-06 0)
(-3.86133e-05 1.48279e-06 0)
(-3.92189e-05 1.48475e-06 0)
(-3.98253e-05 1.48668e-06 0)
(-4.04326e-05 1.48857e-06 0)
(-4.10405e-05 1.49043e-06 0)
(-4.16493e-05 1.49224e-06 0)
(-4.22587e-05 1.49401e-06 0)
(-4.28689e-05 1.49573e-06 0)
(-4.34798e-05 1.49739e-06 0)
(-4.40914e-05 1.499e-06 0)
(-4.47035e-05 1.50055e-06 0)
(-4.53164e-05 1.50204e-06 0)
(-4.59298e-05 1.50346e-06 0)
(-4.65438e-05 1.50481e-06 0)
(-4.71583e-05 1.50608e-06 0)
(-4.77733e-05 1.50728e-06 0)
(-4.83889e-05 1.5084e-06 0)
(-4.90048e-05 1.50943e-06 0)
(-4.96212e-05 1.51037e-06 0)
(-5.02379e-05 1.51121e-06 0)
(-5.0855e-05 1.51196e-06 0)
(-5.14723e-05 1.5126e-06 0)
(-5.20899e-05 1.51313e-06 0)
(-5.27077e-05 1.51355e-06 0)
(-5.33257e-05 1.51385e-06 0)
(-5.39437e-05 1.51403e-06 0)
(-5.45618e-05 1.51408e-06 0)
(-5.51799e-05 1.514e-06 0)
(-5.5798e-05 1.51378e-06 0)
(-5.64159e-05 1.51341e-06 0)
(-5.70336e-05 1.5129e-06 0)
(-5.76511e-05 1.51223e-06 0)
(-5.82684e-05 1.51141e-06 0)
(-5.88852e-05 1.51042e-06 0)
(-5.95016e-05 1.50926e-06 0)
(-6.01175e-05 1.50792e-06 0)
(-6.07328e-05 1.50639e-06 0)
(-6.13475e-05 1.50468e-06 0)
(-6.19614e-05 1.50278e-06 0)
(-6.25745e-05 1.50067e-06 0)
(-6.31868e-05 1.49836e-06 0)
(-6.3798e-05 1.49584e-06 0)
(-6.44082e-05 1.49309e-06 0)
(-6.50172e-05 1.49012e-06 0)
(-6.5625e-05 1.48692e-06 0)
(-6.62314e-05 1.48349e-06 0)
(-6.68364e-05 1.4798e-06 0)
(-6.74398e-05 1.47587e-06 0)
(-6.80415e-05 1.47168e-06 0)
(-6.86416e-05 1.46722e-06 0)
(-6.92397e-05 1.46249e-06 0)
(-6.98358e-05 1.45749e-06 0)
(-7.04299e-05 1.45219e-06 0)
(-7.10217e-05 1.44661e-06 0)
(-7.16112e-05 1.44072e-06 0)
(-7.21983e-05 1.43453e-06 0)
(-7.27827e-05 1.42802e-06 0)
(-7.33645e-05 1.42119e-06 0)
(-7.39434e-05 1.41404e-06 0)
(-7.45193e-05 1.40655e-06 0)
(-7.50921e-05 1.39871e-06 0)
(-7.56616e-05 1.39053e-06 0)
(-7.62278e-05 1.38199e-06 0)
(-7.67903e-05 1.37308e-06 0)
(-7.73492e-05 1.36381e-06 0)
(-7.79042e-05 1.35415e-06 0)
(-7.84552e-05 1.34411e-06 0)
(-7.9002e-05 1.33367e-06 0)
(-7.95445e-05 1.32283e-06 0)
(-8.00825e-05 1.31159e-06 0)
(-8.06158e-05 1.29993e-06 0)
(-8.11442e-05 1.28785e-06 0)
(-8.16677e-05 1.27534e-06 0)
(-8.21859e-05 1.26239e-06 0)
(-8.26988e-05 1.24901e-06 0)
(-8.32062e-05 1.23517e-06 0)
(-8.37078e-05 1.22088e-06 0)
(-8.42035e-05 1.20612e-06 0)
(-8.4693e-05 1.19089e-06 0)
(-8.51763e-05 1.17519e-06 0)
(-8.5653e-05 1.15901e-06 0)
(-8.6123e-05 1.14234e-06 0)
(-8.65862e-05 1.12517e-06 0)
(-8.70422e-05 1.1075e-06 0)
(-8.74909e-05 1.08932e-06 0)
(-8.79321e-05 1.07064e-06 0)
(-8.83656e-05 1.05144e-06 0)
(-8.87912e-05 1.03172e-06 0)
(-8.92085e-05 1.01148e-06 0)
(-8.96176e-05 9.90709e-07 0)
(-9.0018e-05 9.69408e-07 0)
(-9.04096e-05 9.4757e-07 0)
(-9.07923e-05 9.25192e-07 0)
(-9.11656e-05 9.02269e-07 0)
(-9.15296e-05 8.78799e-07 0)
(-9.18838e-05 8.5478e-07 0)
(-9.22281e-05 8.3021e-07 0)
(-9.25622e-05 8.05088e-07 0)
(-9.28861e-05 7.79413e-07 0)
(-9.31993e-05 7.53184e-07 0)
(-9.35016e-05 7.26401e-07 0)
(-9.3793e-05 6.99064e-07 0)
(-9.40731e-05 6.71172e-07 0)
(-9.43416e-05 6.42726e-07 0)
(-9.45985e-05 6.13727e-07 0)
(-9.48434e-05 5.84177e-07 0)
(-9.50761e-05 5.5408e-07 0)
(-9.52964e-05 5.23438e-07 0)
(-9.55041e-05 4.92255e-07 0)
(-9.5699e-05 4.60535e-07 0)
(-9.58808e-05 4.28281e-07 0)
(-9.60493e-05 3.95499e-07 0)
(-9.62043e-05 3.62193e-07 0)
(-9.63456e-05 3.2837e-07 0)
(-9.6473e-05 2.94038e-07 0)
(-9.65863e-05 2.59203e-07 0)
(-9.66853e-05 2.23876e-07 0)
(-9.67697e-05 1.88066e-07 0)
(-9.68394e-05 1.51782e-07 0)
(-9.68942e-05 1.15035e-07 0)
(-9.69339e-05 7.78341e-08 0)
(-9.69583e-05 4.01922e-08 0)
(-9.69673e-05 2.12527e-09 0)
(-9.69606e-05 -3.63594e-08 0)
(-9.69381e-05 -7.52442e-08 0)
(-9.68997e-05 -1.14516e-07 0)
(-9.68451e-05 -1.5416e-07 0)
(-9.67742e-05 -1.94161e-07 0)
(-9.6687e-05 -2.345e-07 0)
(-9.65832e-05 -2.75162e-07 0)
(-9.64627e-05 -3.16128e-07 0)
(-9.63254e-05 -3.57379e-07 0)
(-9.61712e-05 -3.98893e-07 0)
(-9.60001e-05 -4.40651e-07 0)
(-9.58118e-05 -4.8263e-07 0)
(-9.56063e-05 -5.24808e-07 0)
(-9.53835e-05 -5.67163e-07 0)
(-9.51434e-05 -6.09671e-07 0)
(-9.48859e-05 -6.52309e-07 0)
(-9.4611e-05 -6.95052e-07 0)
(-9.43186e-05 -7.37875e-07 0)
(-9.40087e-05 -7.80751e-07 0)
(-9.36812e-05 -8.23656e-07 0)
(-9.33363e-05 -8.66559e-07 0)
(-9.29737e-05 -9.09435e-07 0)
(-9.25937e-05 -9.52255e-07 0)
(-9.21962e-05 -9.94988e-07 0)
(-9.17813e-05 -1.03761e-06 0)
(-9.1349e-05 -1.08008e-06 0)
(-9.08994e-05 -1.12238e-06 0)
(-9.04325e-05 -1.16448e-06 0)
(-8.99484e-05 -1.20634e-06 0)
(-8.94473e-05 -1.24793e-06 0)
(-8.89293e-05 -1.28922e-06 0)
(-8.83945e-05 -1.33019e-06 0)
(-8.7843e-05 -1.37078e-06 0)
(-8.72749e-05 -1.41099e-06 0)
(-8.66906e-05 -1.45076e-06 0)
(-8.609e-05 -1.49008e-06 0)
(-8.54735e-05 -1.5289e-06 0)
(-8.48413e-05 -1.56721e-06 0)
(-8.41935e-05 -1.60495e-06 0)
(-8.35304e-05 -1.64211e-06 0)
(-8.28522e-05 -1.67865e-06 0)
(-8.21592e-05 -1.71453e-06 0)
(-8.14517e-05 -1.74973e-06 0)
(-8.07299e-05 -1.78422e-06 0)
(-7.99942e-05 -1.81796e-06 0)
(-7.92449e-05 -1.85093e-06 0)
(-7.84822e-05 -1.8831e-06 0)
(-7.77066e-05 -1.91443e-06 0)
(-7.69183e-05 -1.94491e-06 0)
(-7.61177e-05 -1.97448e-06 0)
(-7.53053e-05 -2.00315e-06 0)
(-7.44813e-05 -2.03086e-06 0)
(-7.36462e-05 -2.05761e-06 0)
(-7.28004e-05 -2.08337e-06 0)
(-7.19442e-05 -2.10811e-06 0)
(-7.10781e-05 -2.1318e-06 0)
(-7.02026e-05 -2.15443e-06 0)
(-6.9318e-05 -2.17598e-06 0)
(-6.84248e-05 -2.19643e-06 0)
(-6.75236e-05 -2.21575e-06 0)
(-6.66146e-05 -2.23394e-06 0)
(-6.56984e-05 -2.25098e-06 0)
(-6.47755e-05 -2.26684e-06 0)
(-6.38464e-05 -2.28152e-06 0)
(-6.29115e-05 -2.29501e-06 0)
(-6.19713e-05 -2.3073e-06 0)
(-6.10264e-05 -2.31837e-06 0)
(-6.00772e-05 -2.32822e-06 0)
(-5.91242e-05 -2.33684e-06 0)
(-5.8168e-05 -2.34422e-06 0)
(-5.7209e-05 -2.35037e-06 0)
(-5.62477e-05 -2.35527e-06 0)
(-5.52847e-05 -2.35894e-06 0)
(-5.43205e-05 -2.36137e-06 0)
(-5.33555e-05 -2.36257e-06 0)
(-5.23902e-05 -2.36254e-06 0)
(-5.14253e-05 -2.36127e-06 0)
(-5.04611e-05 -2.35879e-06 0)
(-4.94982e-05 -2.35509e-06 0)
(-4.8537e-05 -2.35019e-06 0)
(-4.75781e-05 -2.34411e-06 0)
(-4.6622e-05 -2.33686e-06 0)
(-4.5669e-05 -2.32845e-06 0)
(-4.47197e-05 -2.31889e-06 0)
(-4.37746e-05 -2.30821e-06 0)
(-4.2834e-05 -2.29642e-06 0)
(-4.18985e-05 -2.28355e-06 0)
(-4.09685e-05 -2.26961e-06 0)
(-4.00445e-05 -2.25463e-06 0)
(-3.91267e-05 -2.23864e-06 0)
(-3.82157e-05 -2.22166e-06 0)
(-3.73119e-05 -2.20371e-06 0)
(-3.64155e-05 -2.18482e-06 0)
(-3.55271e-05 -2.16503e-06 0)
(-3.4647e-05 -2.14436e-06 0)
(-3.37755e-05 -2.12285e-06 0)
(-3.2913e-05 -2.10053e-06 0)
(-3.20598e-05 -2.07744e-06 0)
(-3.12162e-05 -2.05359e-06 0)
(-3.03825e-05 -2.02904e-06 0)
(-2.95589e-05 -2.00382e-06 0)
(-2.87459e-05 -1.97796e-06 0)
(-2.79435e-05 -1.95149e-06 0)
(-2.71521e-05 -1.92447e-06 0)
(-2.63718e-05 -1.89692e-06 0)
(-2.56029e-05 -1.86889e-06 0)
(-2.48456e-05 -1.84042e-06 0)
(-2.41e-05 -1.81154e-06 0)
(-2.33663e-05 -1.7823e-06 0)
(-2.26446e-05 -1.75273e-06 0)
(-2.19351e-05 -1.72287e-06 0)
(-2.12379e-05 -1.69278e-06 0)
(-2.0553e-05 -1.66248e-06 0)
(-1.98805e-05 -1.63202e-06 0)
(-1.92205e-05 -1.60143e-06 0)
(-1.85731e-05 -1.57076e-06 0)
(-1.79382e-05 -1.54006e-06 0)
(-1.73159e-05 -1.50936e-06 0)
(-1.67061e-05 -1.47869e-06 0)
(-1.61088e-05 -1.44811e-06 0)
(-1.55241e-05 -1.41766e-06 0)
(-1.49517e-05 -1.38736e-06 0)
(-1.43918e-05 -1.35727e-06 0)
(-1.3844e-05 -1.32741e-06 0)
(-1.33085e-05 -1.29782e-06 0)
(-1.27849e-05 -1.26856e-06 0)
(-1.22733e-05 -1.23964e-06 0)
(-1.17734e-05 -1.21112e-06 0)
(-1.12851e-05 -1.18301e-06 0)
(-1.08082e-05 -1.15537e-06 0)
(-1.03426e-05 -1.12822e-06 0)
(-9.88788e-06 -1.10159e-06 0)
(-9.44398e-06 -1.07552e-06 0)
(-9.01061e-06 -1.05004e-06 0)
(-8.58755e-06 -1.02519e-06 0)
(-8.17453e-06 -1.001e-06 0)
(-7.77127e-06 -9.7748e-07 0)
(-7.37748e-06 -9.5467e-07 0)
(-6.99286e-06 -9.32599e-07 0)
(-6.61712e-06 -9.11293e-07 0)
(-6.24994e-06 -8.90776e-07 0)
(-5.89098e-06 -8.71075e-07 0)
(-5.53991e-06 -8.52215e-07 0)
(-5.19638e-06 -8.34216e-07 0)
(-4.86004e-06 -8.17097e-07 0)
(-4.53052e-06 -8.00878e-07 0)
(-4.20744e-06 -7.85576e-07 0)
(-3.89043e-06 -7.71209e-07 0)
(-3.57911e-06 -7.57795e-07 0)
(-3.27306e-06 -7.45357e-07 0)
(-2.97189e-06 -7.33909e-07 0)
(-2.67521e-06 -7.23458e-07 0)
(-2.3826e-06 -7.14018e-07 0)
(-2.09364e-06 -7.05596e-07 0)
(-1.80791e-06 -6.98201e-07 0)
(-1.52499e-06 -6.91849e-07 0)
(-1.24445e-06 -6.86547e-07 0)
(-9.65868e-07 -6.82298e-07 0)
(-6.88805e-07 -6.79109e-07 0)
(-4.12833e-07 -6.7698e-07 0)
(-1.37517e-07 -6.75822e-07 0)
(-2.82886e-07 2.31106e-06 0)
(-8.4876e-07 2.31151e-06 0)
(-1.41464e-06 2.3117e-06 0)
(-1.98061e-06 2.31198e-06 0)
(-2.54665e-06 2.31235e-06 0)
(-3.1128e-06 2.31282e-06 0)
(-3.67908e-06 2.31338e-06 0)
(-4.24551e-06 2.31403e-06 0)
(-4.81212e-06 2.31477e-06 0)
(-5.37892e-06 2.31561e-06 0)
(-5.94593e-06 2.31653e-06 0)
(-6.51319e-06 2.31755e-06 0)
(-7.0807e-06 2.31865e-06 0)
(-7.6485e-06 2.31985e-06 0)
(-8.21661e-06 2.32113e-06 0)
(-8.78504e-06 2.3225e-06 0)
(-9.35381e-06 2.32396e-06 0)
(-9.92296e-06 2.32551e-06 0)
(-1.04925e-05 2.32714e-06 0)
(-1.10625e-05 2.32886e-06 0)
(-1.16328e-05 2.33066e-06 0)
(-1.22037e-05 2.33254e-06 0)
(-1.2775e-05 2.3345e-06 0)
(-1.33468e-05 2.33655e-06 0)
(-1.39191e-05 2.33867e-06 0)
(-1.44919e-05 2.34087e-06 0)
(-1.50653e-05 2.34315e-06 0)
(-1.56393e-05 2.3455e-06 0)
(-1.62138e-05 2.34792e-06 0)
(-1.6789e-05 2.35041e-06 0)
(-1.73647e-05 2.35297e-06 0)
(-1.79412e-05 2.3556e-06 0)
(-1.85182e-05 2.3583e-06 0)
(-1.9096e-05 2.36105e-06 0)
(-1.96744e-05 2.36387e-06 0)
(-2.02535e-05 2.36675e-06 0)
(-2.08333e-05 2.36969e-06 0)
(-2.14139e-05 2.37269e-06 0)
(-2.19952e-05 2.37574e-06 0)
(-2.25773e-05 2.37884e-06 0)
(-2.31602e-05 2.38199e-06 0)
(-2.37438e-05 2.38519e-06 0)
(-2.43282e-05 2.38843e-06 0)
(-2.49135e-05 2.39171e-06 0)
(-2.54995e-05 2.39504e-06 0)
(-2.60864e-05 2.3984e-06 0)
(-2.6674e-05 2.40179e-06 0)
(-2.72626e-05 2.40521e-06 0)
(-2.7852e-05 2.40867e-06 0)
(-2.84422e-05 2.41214e-06 0)
(-2.90333e-05 2.41563e-06 0)
(-2.96252e-05 2.41915e-06 0)
(-3.02181e-05 2.42267e-06 0)
(-3.08118e-05 2.42621e-06 0)
(-3.14064e-05 2.42975e-06 0)
(-3.20018e-05 2.4333e-06 0)
(-3.25981e-05 2.43685e-06 0)
(-3.31953e-05 2.4404e-06 0)
(-3.37934e-05 2.44394e-06 0)
(-3.43923e-05 2.44746e-06 0)
(-3.49921e-05 2.45098e-06 0)
(-3.55928e-05 2.45447e-06 0)
(-3.61944e-05 2.45793e-06 0)
(-3.67967e-05 2.46137e-06 0)
(-3.74e-05 2.46478e-06 0)
(-3.8004e-05 2.46814e-06 0)
(-3.86089e-05 2.47147e-06 0)
(-3.92146e-05 2.47475e-06 0)
(-3.98212e-05 2.47797e-06 0)
(-4.04285e-05 2.48113e-06 0)
(-4.10365e-05 2.48424e-06 0)
(-4.16454e-05 2.48727e-06 0)
(-4.22549e-05 2.49022e-06 0)
(-4.28652e-05 2.4931e-06 0)
(-4.34762e-05 2.49588e-06 0)
(-4.40879e-05 2.49857e-06 0)
(-4.47002e-05 2.50117e-06 0)
(-4.53132e-05 2.50366e-06 0)
(-4.59267e-05 2.50604e-06 0)
(-4.65409e-05 2.5083e-06 0)
(-4.71556e-05 2.51043e-06 0)
(-4.77708e-05 2.51244e-06 0)
(-4.83865e-05 2.51431e-06 0)
(-4.90026e-05 2.51604e-06 0)
(-4.96192e-05 2.51762e-06 0)
(-5.02362e-05 2.51904e-06 0)
(-5.08535e-05 2.5203e-06 0)
(-5.1471e-05 2.52138e-06 0)
(-5.20889e-05 2.52229e-06 0)
(-5.27069e-05 2.523e-06 0)
(-5.33251e-05 2.52351e-06 0)
(-5.39435e-05 2.52382e-06 0)
(-5.45618e-05 2.52392e-06 0)
(-5.51802e-05 2.5238e-06 0)
(-5.57986e-05 2.52345e-06 0)
(-5.64168e-05 2.52286e-06 0)
(-5.70349e-05 2.52202e-06 0)
(-5.76527e-05 2.52092e-06 0)
(-5.82703e-05 2.51956e-06 0)
(-5.88875e-05 2.51793e-06 0)
(-5.95043e-05 2.51601e-06 0)
(-6.01206e-05 2.51379e-06 0)
(-6.07363e-05 2.51127e-06 0)
(-6.13514e-05 2.50844e-06 0)
(-6.19658e-05 2.50528e-06 0)
(-6.25793e-05 2.50179e-06 0)
(-6.3192e-05 2.49795e-06 0)
(-6.38037e-05 2.49376e-06 0)
(-6.44144e-05 2.4892e-06 0)
(-6.50239e-05 2.48427e-06 0)
(-6.56322e-05 2.47896e-06 0)
(-6.62391e-05 2.47325e-06 0)
(-6.68446e-05 2.46713e-06 0)
(-6.74486e-05 2.4606e-06 0)
(-6.80509e-05 2.45363e-06 0)
(-6.86515e-05 2.44622e-06 0)
(-6.92502e-05 2.43836e-06 0)
(-6.9847e-05 2.43004e-06 0)
(-7.04417e-05 2.42124e-06 0)
(-7.10342e-05 2.41195e-06 0)
(-7.16244e-05 2.40216e-06 0)
(-7.22121e-05 2.39186e-06 0)
(-7.27972e-05 2.38103e-06 0)
(-7.33797e-05 2.36967e-06 0)
(-7.39593e-05 2.35777e-06 0)
(-7.4536e-05 2.3453e-06 0)
(-7.51095e-05 2.33227e-06 0)
(-7.56798e-05 2.31865e-06 0)
(-7.62467e-05 2.30444e-06 0)
(-7.68101e-05 2.28962e-06 0)
(-7.73698e-05 2.27417e-06 0)
(-7.79256e-05 2.2581e-06 0)
(-7.84775e-05 2.24138e-06 0)
(-7.90251e-05 2.22401e-06 0)
(-7.95685e-05 2.20597e-06 0)
(-8.01074e-05 2.18725e-06 0)
(-8.06416e-05 2.16784e-06 0)
(-8.1171e-05 2.14772e-06 0)
(-8.16954e-05 2.1269e-06 0)
(-8.22146e-05 2.10534e-06 0)
(-8.27284e-05 2.08305e-06 0)
(-8.32368e-05 2.06001e-06 0)
(-8.37394e-05 2.0362e-06 0)
(-8.42361e-05 2.01163e-06 0)
(-8.47267e-05 1.98627e-06 0)
(-8.5211e-05 1.96012e-06 0)
(-8.56888e-05 1.93316e-06 0)
(-8.61599e-05 1.90539e-06 0)
(-8.66241e-05 1.87679e-06 0)
(-8.70812e-05 1.84736e-06 0)
(-8.7531e-05 1.81709e-06 0)
(-8.79734e-05 1.78596e-06 0)
(-8.8408e-05 1.75397e-06 0)
(-8.88346e-05 1.72112e-06 0)
(-8.92532e-05 1.6874e-06 0)
(-8.96634e-05 1.6528e-06 0)
(-9.0065e-05 1.6173e-06 0)
(-9.04578e-05 1.58091e-06 0)
(-9.08416e-05 1.54362e-06 0)
(-9.12161e-05 1.50543e-06 0)
(-9.15812e-05 1.46632e-06 0)
(-9.19367e-05 1.42629e-06 0)
(-9.22822e-05 1.38534e-06 0)
(-9.26175e-05 1.34348e-06 0)
(-9.29425e-05 1.30069e-06 0)
(-9.3257e-05 1.25698e-06 0)
(-9.35606e-05 1.21234e-06 0)
(-9.38531e-05 1.16678e-06 0)
(-9.41344e-05 1.12029e-06 0)
(-9.44042e-05 1.07287e-06 0)
(-9.46622e-05 1.02454e-06 0)
(-9.49083e-05 9.75284e-07 0)
(-9.51422e-05 9.25114e-07 0)
(-9.53638e-05 8.74035e-07 0)
(-9.55726e-05 8.22052e-07 0)
(-9.57686e-05 7.69172e-07 0)
(-9.59516e-05 7.15401e-07 0)
(-9.61213e-05 6.60747e-07 0)
(-9.62774e-05 6.05219e-07 0)
(-9.64198e-05 5.48828e-07 0)
(-9.65483e-05 4.91585e-07 0)
(-9.66627e-05 4.33505e-07 0)
(-9.67627e-05 3.74601e-07 0)
(-9.68482e-05 3.1489e-07 0)
(-9.69189e-05 2.54388e-07 0)
(-9.69747e-05 1.93111e-07 0)
(-9.70154e-05 1.31076e-07 0)
(-9.70407e-05 6.83e-08 0)
(-9.70506e-05 4.79315e-09 0)
(-9.70449e-05 -5.93704e-08 0)
(-9.70232e-05 -1.24218e-07 0)
(-9.69856e-05 -1.89717e-07 0)
(-9.69318e-05 -2.55841e-07 0)
(-9.68617e-05 -3.22561e-07 0)
(-9.67752e-05 -3.89849e-07 0)
(-9.66721e-05 -4.57674e-07 0)
(-9.65522e-05 -5.26007e-07 0)
(-9.64156e-05 -5.94815e-07 0)
(-9.62619e-05 -6.64066e-07 0)
(-9.60913e-05 -7.33723e-07 0)
(-9.59034e-05 -8.03753e-07 0)
(-9.56983e-05 -8.74117e-07 0)
(-9.54759e-05 -9.44779e-07 0)
(-9.52362e-05 -1.0157e-06 0)
(-9.49789e-05 -1.08684e-06 0)
(-9.47042e-05 -1.15815e-06 0)
(-9.44119e-05 -1.2296e-06 0)
(-9.41021e-05 -1.30114e-06 0)
(-9.37747e-05 -1.37273e-06 0)
(-9.34297e-05 -1.44432e-06 0)
(-9.30671e-05 -1.51586e-06 0)
(-9.26869e-05 -1.58731e-06 0)
(-9.22892e-05 -1.65862e-06 0)
(-9.1874e-05 -1.72975e-06 0)
(-9.14413e-05 -1.80063e-06 0)
(-9.09913e-05 -1.87122e-06 0)
(-9.05239e-05 -1.94148e-06 0)
(-9.00393e-05 -2.01134e-06 0)
(-8.95376e-05 -2.08076e-06 0)
(-8.90189e-05 -2.14967e-06 0)
(-8.84833e-05 -2.21804e-06 0)
(-8.7931e-05 -2.2858e-06 0)
(-8.73621e-05 -2.3529e-06 0)
(-8.67767e-05 -2.41929e-06 0)
(-8.61752e-05 -2.48491e-06 0)
(-8.55576e-05 -2.54972e-06 0)
(-8.49241e-05 -2.61365e-06 0)
(-8.42751e-05 -2.67666e-06 0)
(-8.36106e-05 -2.73868e-06 0)
(-8.29311e-05 -2.79967e-06 0)
(-8.22366e-05 -2.85957e-06 0)
(-8.15276e-05 -2.91833e-06 0)
(-8.08043e-05 -2.9759e-06 0)
(-8.00669e-05 -3.03223e-06 0)
(-7.93158e-05 -3.08728e-06 0)
(-7.85514e-05 -3.14097e-06 0)
(-7.77739e-05 -3.19328e-06 0)
(-7.69837e-05 -3.24415e-06 0)
(-7.61812e-05 -3.29353e-06 0)
(-7.53667e-05 -3.34137e-06 0)
(-7.45407e-05 -3.38765e-06 0)
(-7.37034e-05 -3.4323e-06 0)
(-7.28554e-05 -3.4753e-06 0)
(-7.1997e-05 -3.51659e-06 0)
(-7.11286e-05 -3.55615e-06 0)
(-7.02507e-05 -3.59393e-06 0)
(-6.93638e-05 -3.6299e-06 0)
(-6.84682e-05 -3.66403e-06 0)
(-6.75644e-05 -3.6963e-06 0)
(-6.6653e-05 -3.72666e-06 0)
(-6.57343e-05 -3.75509e-06 0)
(-6.48088e-05 -3.78158e-06 0)
(-6.38771e-05 -3.80608e-06 0)
(-6.29396e-05 -3.8286e-06 0)
(-6.19968e-05 -3.8491e-06 0)
(-6.10492e-05 -3.86758e-06 0)
(-6.00973e-05 -3.88402e-06 0)
(-5.91417e-05 -3.8984e-06 0)
(-5.81827e-05 -3.91071e-06 0)
(-5.7221e-05 -3.92096e-06 0)
(-5.62571e-05 -3.92914e-06 0)
(-5.52913e-05 -3.93525e-06 0)
(-5.43244e-05 -3.9393e-06 0)
(-5.33567e-05 -3.94128e-06 0)
(-5.23888e-05 -3.94121e-06 0)
(-5.14212e-05 -3.93908e-06 0)
(-5.04544e-05 -3.93491e-06 0)
(-4.94888e-05 -3.92872e-06 0)
(-4.85251e-05 -3.92053e-06 0)
(-4.75636e-05 -3.91035e-06 0)
(-4.66049e-05 -3.89822e-06 0)
(-4.56494e-05 -3.88415e-06 0)
(-4.46977e-05 -3.86817e-06 0)
(-4.37501e-05 -3.85031e-06 0)
(-4.28072e-05 -3.8306e-06 0)
(-4.18693e-05 -3.80908e-06 0)
(-4.0937e-05 -3.78578e-06 0)
(-4.00107e-05 -3.76074e-06 0)
(-3.90908e-05 -3.73401e-06 0)
(-3.81776e-05 -3.70562e-06 0)
(-3.72717e-05 -3.67562e-06 0)
(-3.63734e-05 -3.64406e-06 0)
(-3.54831e-05 -3.61098e-06 0)
(-3.46011e-05 -3.57645e-06 0)
(-3.37278e-05 -3.54051e-06 0)
(-3.28635e-05 -3.50321e-06 0)
(-3.20086e-05 -3.46461e-06 0)
(-3.11635e-05 -3.42477e-06 0)
(-3.03282e-05 -3.38375e-06 0)
(-2.95033e-05 -3.3416e-06 0)
(-2.86888e-05 -3.29838e-06 0)
(-2.78852e-05 -3.25417e-06 0)
(-2.70926e-05 -3.20902e-06 0)
(-2.63113e-05 -3.16299e-06 0)
(-2.55414e-05 -3.11616e-06 0)
(-2.47831e-05 -3.06859e-06 0)
(-2.40367e-05 -3.02034e-06 0)