/*--------------------------------*- C++ -*----------------------------------*\
| =========                 |                                                 |
| \\      /  F ield         | OpenFOAM: The Open Source CFD Toolbox           |
|  \\    /   O peration     | Version:  v2006                                 |
|   \\  /    A nd           | Website:  www.openfoam.com                      |
|    \\/     M anipulation  |                                                 |
\*---------------------------------------------------------------------------*/
FoamFile
{
    version     2.0;
    format      ascii;
    class       volScalarField;
    location    "0";
    object      f;
}
// * * * * * * * * * * * * * * * * * * * * * * * * * * * * * * * * * * * * * //

dimensions      [0 0 0 0 0 0 0];


internalField   nonuniform List<scalar> 
2500
(
-8.89055e-17
-8.93423e-17
-8.87031e-17
-8.92791e-17
-9.67084e-17
-6.93291e-17
-2.01513e-17
1.69516e-16
2.52772e-15
-1.83557e-14
-2.75072e-14
1.0857e-13
2.22345e-13
-5.09001e-16
-3.64191e-13
-3.19323e-13
2.66728e-13
8.57859e-13
9.08487e-13
-1.45082e-12
-9.8561e-12
-1.47621e-11
-1.36981e-11
7.17705e-13
1.67011e-11
1.39175e-11
3.96753e-12
-2.76596e-12
-8.74117e-12
-6.88357e-12
-3.63116e-12
-1.38021e-12
-3.16704e-13
3.41089e-13
5.2574e-13
2.72461e-13
5.20442e-14
1.15863e-15
-2.48305e-16
7.04907e-16
8.16091e-16
5.80732e-16
3.46925e-16
1.93686e-16
1.06528e-16
5.96589e-17
3.45289e-17
2.0527e-17
1.22852e-17
7.24136e-18
2.77068e-13
2.70206e-13
2.88065e-13
2.85688e-13
2.28951e-13
2.4517e-13
3.39006e-13
3.55005e-13
2.5234e-13
1.52636e-14
3.27236e-13
1.06162e-12
5.98348e-13
-4.55801e-13
-1.10372e-12
-7.39798e-13
2.15781e-12
1.67893e-12
-8.95336e-13
-3.58335e-11
-5.39455e-11
-6.72655e-11
-3.56052e-11
1.02015e-10
1.03112e-10
3.78428e-11
-1.63412e-11
-8.63642e-11
-6.60521e-11
-3.00086e-11
-9.2055e-12
-2.68511e-12
4.81757e-12
6.19731e-12
3.14849e-12
6.97678e-13
-3.01362e-14
-2.95972e-14
-5.02667e-15
1.65526e-15
1.99979e-15
1.19994e-15
6.31124e-16
3.24858e-16
1.70556e-16
9.41068e-17
5.50741e-17
3.35279e-17
2.05303e-17
1.22845e-17
3.15037e-12
3.14207e-12
3.1848e-12
3.14549e-12
3.00527e-12
3.15949e-12
3.45795e-12
3.25477e-12
2.64626e-12
2.45196e-12
3.9643e-12
3.30968e-12
-6.47298e-13
-1.51068e-12
4.59558e-13
1.28599e-11
9.09068e-12
-4.25073e-11
-1.94948e-10
-1.65831e-10
-9.61428e-11
-1.09275e-10
5.24399e-10
4.73581e-10
2.04286e-10
-1.60255e-10
-5.58723e-10
-3.90763e-10
-1.44106e-10
-4.36201e-11
2.84793e-11
6.80699e-11
5.33658e-11
2.42962e-11
5.74023e-12
-8.08197e-13
-5.7732e-13
-1.17639e-13
3.35965e-15
1.3908e-14
6.31302e-15
2.32064e-15
9.97464e-16
4.68674e-16
2.37672e-16
1.33047e-16
8.17499e-17
5.25619e-17
3.35265e-17
2.05251e-17
1.16404e-11
1.17126e-11
1.1616e-11
1.15917e-11
1.17892e-11
1.19621e-11
1.21723e-11
1.1141e-11
1.02632e-11
1.35188e-11
1.50304e-11
4.75945e-12
-7.93396e-12
-1.5791e-12
8.29502e-11
1.54222e-10
-2.04782e-11
-6.20979e-10
-9.43548e-10
-3.40161e-10
1.81531e-09
3.87051e-09
3.21777e-09
9.0519e-10
-2.30067e-09
-4.03923e-09
-2.6528e-09
-7.54629e-10
9.79368e-11
9.52733e-10
8.558e-10
4.69436e-10
1.85492e-10
4.11728e-11
-1.45052e-11
-8.90999e-12
-1.86061e-12
3.64772e-14
1.7477e-13
7.42213e-14
1.37167e-14
2.79384e-15
1.10799e-15
5.14412e-16
2.69733e-16
1.66387e-16
1.15557e-16
8.17469e-17
5.50701e-17
3.45249e-17
2.58908e-11
2.62479e-11
2.56514e-11
2.58066e-11
2.71026e-11
2.6894e-11
2.63418e-11
2.38742e-11
2.37334e-11
3.76718e-11
3.64432e-11
-1.37006e-11
-2.16988e-11
1.14274e-10
4.05563e-10
5.80564e-10
-2.90313e-10
-2.24047e-09
-1.98983e-09
7.49502e-09
2.1255e-08
2.27269e-08
8.02252e-09
-1.35881e-08
-2.2647e-08
-1.65197e-08
-5.26637e-09
3.92484e-09
1.05877e-08
7.40761e-09
3.4818e-09
1.26552e-09
2.99229e-10
-1.88987e-10
-1.1295e-10
-2.49474e-11
-9.75228e-14
1.68357e-12
8.28638e-13
1.64603e-13
8.82094e-15
9.59148e-16
5.88237e-16
3.43268e-16
2.29167e-16
1.90193e-16
1.66381e-16
1.33039e-16
9.40983e-17
5.96515e-17
3.96301e-11
4.05177e-11
3.90182e-11
3.91161e-11
4.27435e-11
4.20464e-11
3.95494e-11
3.49164e-11
3.64336e-11
7.57871e-11
6.12406e-11
-5.9138e-11
1.76802e-11
3.84275e-10
1.04192e-09
1.40793e-09
-9.34127e-10
-3.82957e-09
1.61089e-08
4.42015e-08
6.86146e-08
6.29227e-08
-9.75652e-09
-7.62448e-08
-7.21568e-08
-3.03245e-08
2.82708e-08
7.43101e-08
5.09688e-08
2.04633e-08
6.08542e-09
1.70761e-09
-2.1744e-09
-1.26076e-09
-2.74285e-10
-6.42824e-12
1.22564e-11
6.83961e-12
1.66894e-12
1.08315e-13
-5.23991e-15
-1.42789e-15
-2.18156e-16
2.44786e-17
1.32129e-16
2.29159e-16
2.69719e-16
2.37656e-16
1.70541e-16
1.06516e-16
3.79632e-11
3.92957e-11
3.69219e-11
3.60245e-11
4.31789e-11
4.25211e-11
3.68277e-11
2.96188e-11
3.35805e-11
1.07076e-10
7.96154e-11
-1.39941e-10
-4.5737e-11
6.01563e-10
1.71793e-09
2.27262e-09
-5.96128e-09
2.95956e-08
8.53341e-08
1.11815e-07
1.11976e-07
9.17929e-08
-1.35495e-07
-1.76991e-07
-1.21681e-07
1.67616e-07
4.63579e-07
3.13164e-07
1.0122e-07
2.66286e-08
-1.01204e-08
-2.89307e-08
-1.43131e-08
-2.78374e-09
-5.16605e-11
7.90233e-11
4.62077e-11
1.27377e-11
1.16852e-12
-7.17748e-14
-2.42669e-14
-3.22227e-15
-5.72096e-16
-2.47565e-16
2.44743e-17
3.43252e-16
5.14386e-16
4.68646e-16
3.24833e-16
1.93667e-16
-7.07326e-08
-7.07521e-08
-7.06177e-08
-7.05556e-08
-7.08741e-08
-7.12985e-08
-7.05575e-08
-6.88687e-08
-6.97954e-08
-7.62386e-08
-7.70993e-08
-6.17447e-08
-5.09782e-08
-5.85213e-08
-1.32366e-07
-2.49311e-07
-1.06875e-07
1.45029e-07
1.73124e-07
1.33001e-07
-6.6296e-07
-1.65193e-06
-8.04812e-07
-4.88248e-08
1.37666e-06
2.85142e-06
1.84419e-06
5.70445e-07
-2.23518e-07
-5.62799e-07
-4.3266e-07
-1.77128e-07
-3.29228e-08
-2.63122e-10
4.57907e-10
2.81492e-10
8.64526e-11
9.95855e-12
-6.09292e-13
-2.583e-13
-3.67289e-14
9.12843e-16
2.27331e-16
-5.7208e-16
-2.1815e-16
5.88219e-16
1.10795e-15
9.97416e-16
6.31085e-16
3.46898e-16
-1.62432e-06
-1.62443e-06
-1.62364e-06
-1.62364e-06
-1.62599e-06
-1.62627e-06
-1.61955e-06
-1.61676e-06
-1.63319e-06
-1.6527e-06
-1.6255e-06
-1.53267e-06
-1.55457e-06
-1.78492e-06
-2.10229e-06
-1.88736e-06
-6.11127e-07
2.78437e-07
-1.01328e-07
-5.26091e-06
-1.1628e-05
-1.10234e-05
-2.07682e-06
1.05345e-05
1.56151e-05
1.16761e-05
3.03138e-06
-4.98582e-06
-6.78695e-06
-4.50208e-06
-1.89056e-06
-4.37588e-07
-1.9433e-08
2.20791e-09
1.45236e-09
5.30009e-10
9.1533e-11
-2.21959e-12
-1.37847e-12
-3.27963e-13
-1.05451e-15
6.9614e-15
9.12886e-16
-3.22213e-15
-1.42782e-15
9.59145e-16
2.79376e-15
2.32055e-15
1.19988e-15
5.80694e-16
-7.43163e-06
-7.43206e-06
-7.43195e-06
-7.43217e-06
-7.43424e-06
-7.42635e-06
-7.41906e-06
-7.4497e-06
-7.48296e-06
-7.40257e-06
-7.29892e-06
-7.32377e-06
-7.75491e-06
-8.39093e-06
-8.09877e-06
-5.61819e-06
-1.70213e-06
3.70411e-08
-1.27628e-05
-3.17796e-05
-4.39114e-05
-3.25261e-05
1.15575e-05
5.25529e-05
5.39734e-05
2.29891e-05
-2.36421e-05
-3.8159e-05
-2.78399e-05
-1.33824e-05
-4.20346e-06
-5.5905e-07
8.36132e-09
5.66245e-09
2.52836e-09
6.71751e-10
4.08348e-11
-2.32424e-12
-9.9969e-13
3.40603e-14
3.26616e-14
-1.05343e-15
-3.67274e-14
-2.42659e-14
-5.23966e-15
8.82059e-15
1.37162e-14
6.31275e-15
1.9997e-15
8.16048e-16
-1.75725e-05
-1.75739e-05
-1.75775e-05
-1.7576e-05
-1.75718e-05
-1.75465e-05
-1.7559e-05
-1.7671e-05
-1.76848e-05
-1.73149e-05
-1.71776e-05
-1.7745e-05
-1.8916e-05
-2.00243e-05
-1.76766e-05
-9.75093e-06
-3.38966e-06
-1.56498e-05
-4.85317e-05
-8.44392e-05
-9.77062e-05
-5.32734e-05
5.8745e-05
0.000122694
0.000102803
-4.37345e-06
-0.000123809
-0.000105329
-5.8937e-05
-2.35701e-05
-5.93441e-06
-3.89018e-07
1.01891e-08
7.47978e-09
3.2002e-09
7.01908e-10
2.79052e-11
3.21879e-12
1.78702e-12
9.56046e-13
3.4067e-14
-3.27953e-13
-2.58292e-13
-7.17722e-14
1.0831e-13
1.64597e-13
7.42182e-14
1.39074e-14
1.6552e-15
7.04877e-16
-2.41923e-05
-2.41943e-05
-2.42037e-05
-2.42025e-05
-2.41882e-05
-2.41315e-05
-2.41661e-05
-2.44169e-05
-2.44309e-05
-2.36261e-05
-2.32818e-05
-2.45219e-05
-2.70685e-05
-2.94157e-05
-2.44335e-05
-1.04352e-05
-7.04445e-06
-4.21618e-05
-9.23338e-05
-0.000132552
-0.000143071
6.39596e-05
0.00016748
0.000164543
3.46864e-05
-0.000476602
-0.000276375
-0.000149695
-7.13419e-05
-2.63923e-05
-5.89387e-06
-2.07609e-07
1.05021e-08
7.75976e-09
3.37852e-09
1.03592e-09
2.93457e-10
2.91063e-11
6.85776e-12
1.78702e-12
-9.99675e-13
-1.37844e-12
-6.09274e-13
1.16848e-12
1.66888e-12
8.28609e-13
1.74763e-13
3.35939e-15
-5.02653e-15
-2.48287e-16
1.02957e-05
1.0304e-05
1.02624e-05
1.02075e-05
1.03273e-05
1.06192e-05
1.03868e-05
9.20884e-06
9.30755e-06
1.2746e-05
1.50962e-05
9.1656e-06
-2.39323e-06
-5.64725e-06
1.93352e-05
7.3381e-05
5.55509e-05
-4.50437e-05
-8.84761e-05
-5.56663e-05
0.000582676
0.000994334
0.000267868
-0.00178068
-0.00406212
-0.00303089
5.96908e-05
0.00502821
0.00993551
0.0125159
0.0122939
0.0101246
0.0069447
0.00391006
0.00172582
0.000522096
6.40869e-05
2.10448e-11
2.9106e-11
3.21874e-12
-2.32423e-12
-2.21959e-12
9.95821e-12
1.27373e-11
6.83939e-12
1.68351e-12
3.64744e-14
-1.17638e-13
-2.95966e-14
1.15864e-15
0.000840915
0.000840979
0.000840381
0.000840039
0.000842452
0.00084412
0.00083726
0.000828938
0.000844101
0.000874847
0.000860245
0.000776428
0.00072889
0.000871349
0.0011344
0.00113416
0.000592837
4.30458e-05
0.000242011
0.00280965
0.00537989
0.00413736
-0.00381404
-0.0152665
-0.019722
-0.00928387
0.0221723
0.0677842
0.110676
0.133562
0.131902
0.112194
0.0814507
0.0498319
0.024842
0.00924257
0.0019471
6.4087e-05
2.93451e-10
2.79024e-11
4.08322e-11
9.15299e-11
8.645e-11
4.62063e-11
1.2256e-11
-9.754e-14
-1.8606e-12
-5.77315e-13
-3.01366e-14
5.20427e-14
0.00418378
0.00418381
0.00418139
0.00418136
0.00419172
0.00419322
0.00416109
0.00414495
0.00422507
0.00431066
0.00417229
0.00386476
0.00392353
0.00465959
0.0052652
0.00446463
0.0020869
0.000475906
0.00413005
0.0124455
0.0178873
0.00981445
-0.0162357
-0.0483772
-0.0559718
-0.0099754
0.103022
0.259388
0.405128
0.483824
0.479809
0.412737
0.305042
0.191264
0.0986575
0.0387577
0.00924257
0.000522097
1.03589e-09
7.01881e-10
6.7173e-10
5.29994e-10
2.81484e-10
7.9021e-11
-6.42808e-12
-2.4947e-11
-8.90991e-12
-8.08199e-13
6.97658e-13
2.72453e-13
0.0108464
0.0108464
0.0108403
0.0108409
0.0108677
0.0108684
0.0107843
0.0107549
0.0109691
0.0111535
0.0107465
0.010035
0.0103785
0.0122678
0.0133667
0.010585
0.00468012
0.00273444
0.0119126
0.031132
0.0419874
0.0237381
-0.0366717
-0.108119
-0.126804
-0.0288188
0.219534
0.570997
0.906937
1.09836
1.1053
0.965385
0.725255
0.463038
0.244001
0.0986575
0.024842
0.00172583
3.37848e-09
3.20014e-09
2.5283e-09
1.45232e-09
4.57894e-10
-5.16574e-11
-2.7428e-10
-1.12948e-10
-1.45052e-11
5.74007e-12
3.1484e-12
5.25724e-13
0.0191234
0.0191233
0.0191097
0.0191105
0.0191703
0.0191738
0.018987
0.0189169
0.0193892
0.0198049
0.0189163
0.0173466
0.0180849
0.0221831
0.0244904
0.018652
0.00624065
0.00151478
0.0206642
0.0594004
0.0859308
0.0540984
-0.059742
-0.206947
-0.28154
-0.157041
0.245651
0.860776
1.48057
1.86652
1.93215
1.72733
1.32453
0.862
0.463038
0.191264
0.0498319
0.00391007
7.75977e-09
7.47972e-09
5.66234e-09
2.20785e-09
-2.63078e-10
-2.78368e-09
-1.26073e-09
-1.88985e-10
4.11716e-11
2.42956e-11
6.19715e-12
3.41078e-13
0.0243684
0.0243682
0.0243418
0.0243443
0.0244605
0.0244645
0.024099
0.0239707
0.0249011
0.0257015
0.023928
0.0208465
0.0223413
0.0303572
0.0352948
0.0238916
0.000103423
-0.0096822
0.0240885
0.0961417
0.152113
0.110284
-0.0800699
-0.362202
-0.578584
-0.512625
-0.00276468
0.889018
1.85748
2.52775
2.73834
2.53061
1.99154
1.32453
0.725255
0.305042
0.0814507
0.0069447
1.05022e-08
1.01891e-08
8.36114e-09
-1.94319e-08
-3.29219e-08
-1.43128e-08
-2.17437e-09
2.99222e-10
1.85488e-10
5.33646e-11
4.81744e-12
-3.1669e-13
0.0212794
0.0212789
0.0212346
0.0212394
0.0214342
0.0214399
0.0208253
0.0206162
0.0221827
0.0235098
0.0205156
0.0153274
0.0178736
0.0316338
0.0400006
0.0221878
-0.0179316
-0.0373746
0.011359
0.128124
0.235468
0.201095
-0.069276
-0.533715
-0.994492
-1.1261
-0.642371
0.440314
1.74124
2.75014
3.20626
3.10803
2.53061
1.72733
0.965385
0.412737
0.112194
0.0101246
-2.07593e-07
-3.88997e-07
-5.59031e-07
-4.37577e-07
-1.77124e-07
-2.89302e-08
1.70757e-09
1.2655e-09
4.69428e-10
6.80684e-11
-2.68502e-12
-1.38016e-12
0.00877847
0.00877798
0.00870785
0.00871252
0.00902114
0.00904375
0.00807783
0.00769766
0.0101153
0.0123431
0.00787787
-0.000401585
0.00285862
0.0235641
0.0394653
0.0151454
-0.0475857
-0.0894655
-0.0329612
0.13923
0.331315
0.364068
0.069933
-0.570802
-1.35302
-1.84124
-1.59032
-0.515949
0.983185
2.30065
3.06919
3.20626
2.73834
1.93215
1.1053
0.479809
0.131902
0.0122939
-5.89372e-06
-5.93429e-06
-4.20338e-06
-1.89053e-06
-4.32652e-07
-1.01202e-08
6.08535e-09
3.48176e-09
8.55786e-10
2.84786e-11
-9.20521e-12
-3.63103e-12
-0.00954504
-0.00954657
-0.00965337
-0.00964178
-0.0091715
-0.00914524
-0.0106205
-0.0112098
-0.00753533
-0.004039
-0.0105408
-0.0234308
-0.0203444
0.0111167
0.0383908
0.00839802
-0.0852561
-0.165809
-0.117316
0.116342
0.450028
0.656766
0.465089
-0.262355
-1.36579
-2.32536
-2.52225
-1.72077
-0.258722
1.23385
2.30065
2.75014
2.52775
1.86652
1.09836
0.483824
0.133562
0.0125159
-2.63919e-05
-2.35698e-05
-1.33822e-05
-4.50201e-06
-5.62788e-07
2.66284e-08
2.04631e-08
7.40752e-09
9.52715e-10
-4.3619e-11
-3.00078e-11
-6.88333e-12
-0.0237989
-0.0238029
-0.0239542
-0.023927
-0.0232621
-0.0232541
-0.0253431
-0.0261267
-0.0209197
-0.0159384
-0.0250573
-0.0439507
-0.0406901
0.00239085
0.046423
0.016443
-0.11156
-0.2535
-0.241986
0.043001
0.55967
1.05911
1.15328
0.524095
-0.783557
-2.22424
-3.03361
-2.79143
-1.6826
-0.258722
0.983185
1.74124
1.85748
1.48057
0.906937
0.405128
0.110676
0.0099355
-7.13412e-05
-5.89364e-05
-2.78395e-05
-6.78685e-06
-2.23511e-07
1.01219e-07
5.09682e-08
1.05876e-08
9.79317e-11
-1.44103e-10
-6.60502e-11
-8.74083e-12
-0.0216946
-0.021702
-0.0219169
-0.0218717
-0.0209321
-0.0209218
-0.0238476
-0.0250019
-0.0178501
-0.0107532
-0.0227159
-0.0492506
-0.0490699
0.00861361
0.0785177
0.0601425
-0.104281
-0.331113
-0.417466
-0.152952
0.520888
1.38424
1.94129
1.65806
0.395542
-1.36073
-2.77921
-3.26753
-2.79143
-1.72076
-0.515949
0.440314
0.889018
0.860776
0.570997
0.259387
0.0677842
0.00502821
-0.000149694
-0.000105328
-3.81586e-05
-4.98574e-06
5.70439e-07
3.1316e-07
7.4309e-08
3.92477e-09
-7.54613e-10
-3.90754e-10
-8.63616e-11
-2.76579e-12
-0.00156514
-0.0015827
-0.00189362
-0.00178964
-0.000425421
-0.000510785
-0.00475296
-0.00630285
0.00387737
0.0143367
-0.00193659
-0.0404512
-0.0445865
0.0312401
0.139208
0.148145
-0.0474973
-0.401248
-0.684467
-0.581072
0.121085
1.30624
2.42095
2.72959
1.86265
0.148944
-1.62925
-2.77921
-3.03361
-2.52225
-1.59032
-0.642371
-0.0027646
0.245651
0.219534
0.103022
0.0221723
5.96943e-05
-0.000276373
-0.000123808
-2.36419e-05
3.03136e-06
1.84417e-06
4.63573e-07
2.827e-08
-5.26628e-09
-2.65275e-09
-5.58709e-10
-1.63398e-11
3.96738e-12
0.0207639
0.0207289
0.0202943
0.0205063
0.0224094
0.0220915
0.0161081
0.0143174
0.0290083
0.043346
0.021296
-0.0329725
-0.0449319
0.0501717
0.211614
0.270904
0.0582716
-0.443924
-1.02154
-1.26383
-0.75607
0.568744
2.18697
3.22808
3.09099
1.86057
0.148944
-1.36073
-2.22424
-2.32536
-1.84124
-1.1261
-0.512625
-0.157041
-0.0288187
-0.00997537
-0.00928385
-0.00303088
-0.0004766
-4.37308e-06
2.29889e-05
1.1676e-05
2.85138e-06
1.67611e-07
-3.03241e-08
-1.65194e-08
-4.03915e-09
-1.60246e-10
3.78421e-11
1.39171e-11
0.0241243
0.0240701
0.0234429
0.0237639
0.0264791
0.0259964
0.0175873
0.0152319
0.0353411
0.0568458
0.0281134
-0.0484852
-0.0802939
0.0343904
0.266135
0.42343
0.265322
-0.336321
-1.24302
-1.98403
-1.93262
-0.779334
1.08865
2.77636
3.509
3.09099
1.86265
0.395542
-0.783557
-1.36579
-1.35302
-0.994492
-0.578584
-0.28154
-0.126804
-0.0559717
-0.019722
-0.00406211
3.4687e-05
0.000102803
5.39731e-05
1.56149e-05
1.37663e-06
-1.21679e-07
-7.21557e-08
-2.26467e-08
-2.30062e-09
2.04281e-10
1.03109e-10
1.67007e-11
0.00180409
0.00170903
0.000765522
0.00131608
0.00537411
0.00458206
-0.00774362
-0.011934
0.0178835
0.0504818
0.0133954
-0.098522
-0.164852
-0.037679
0.293253
0.63661
0.674615
0.12777
-1.01778
-2.30311
-2.93068
-2.32735
-0.64479
1.33711
2.77636
3.22808
2.72959
1.65806
0.524094
-0.262355
-0.570802
-0.533715
-0.362202
-0.206947
-0.108119
-0.0483772
-0.0152665
-0.00178068
0.000164541
0.000122693
5.25525e-05
1.05344e-05
-4.88213e-08
-1.76988e-07
-7.62434e-08
-1.35878e-08
9.05177e-10
4.7357e-10
1.02012e-10
7.17349e-13
-0.026091
-0.0262504
-0.0275884
-0.0266682
-0.0208538
-0.0223513
-0.0406071
-0.0457232
-0.00373834
0.0454637
0.00100529
-0.157245
-0.282665
-0.162154
0.28156
0.894668
1.30634
1.05122
-0.107819
-1.81734
-3.19742
-3.44369
-2.41416
-0.64479
1.08865
2.18698
2.42095
1.94129
1.15328
0.465088
0.0699329
-0.0692761
-0.08007
-0.0597421
-0.0366718
-0.0162357
-0.00381406
0.000267859
0.000167475
5.87437e-05
1.15572e-05
-2.07683e-06
-8.04806e-07
-1.35491e-07
-9.75554e-09
8.0225e-09
3.21773e-09
5.24386e-10
-3.56058e-11
-1.36981e-11
-0.0292363
-0.0294446
-0.0313996
-0.0301692
-0.0219081
-0.024029
-0.0494692
-0.0595466
-0.00056719
0.0768902
0.0329422
-0.18454
-0.407774
-0.368216
0.119102
1.00373
1.90998
2.19653
1.36113
-0.44714
-2.394
-3.53629
-3.44369
-2.32735
-0.779334
0.568744
1.30624
1.38424
1.05911
0.656766
0.364068
0.201095
0.110284
0.0540982
0.023738
0.00981436
0.00413732
0.000994317
6.39558e-05
-5.32737e-05
-3.25263e-05
-1.10234e-05
-1.65191e-06
9.17933e-08
6.29225e-08
2.27267e-08
3.87042e-09
-1.09275e-10
-6.72644e-11
-1.47618e-11
-0.000277753
-0.000596861
-0.00358942
-0.00188563
0.0104747
0.00854333
-0.0302968
-0.0477142
0.0347537
0.158011
0.128931
-0.157748
-0.560675
-0.751225
-0.405838
0.607191
1.99456
3.00115
2.86003
1.43292
-0.633452
-2.394
-3.19742
-2.93068
-1.93262
-0.75607
0.121085
0.520888
0.55967
0.450028
0.331315
0.235468
0.152113
0.0859307
0.0419873
0.0178872
0.00537983
0.000582658
-0.000143071
-9.77066e-05
-4.39118e-05
-1.16281e-05
-6.62951e-07
1.11976e-07
6.86142e-08
2.12547e-08
1.81526e-09
-9.61425e-11
-5.39454e-11
-9.85607e-12
0.0300144
0.0295325
0.0251933
0.0279009
0.0464268
0.0427147
-0.0136746
-0.0434087
0.0672466
0.259798
0.269562
-0.0903368
-0.731854
-1.31547
-1.36593
-0.503077
1.16609
2.8807
3.66879
3.07231
1.43292
-0.44714
-1.81734
-2.30311
-1.98403
-1.26383
-0.581072
-0.152952
0.0430012
0.116342
0.13923
0.128124
0.0961416
0.0594003
0.0311319
0.0124454
0.00280958
-5.56749e-05
-0.000132552
-8.444e-05
-3.17802e-05
-5.26104e-06
1.32989e-07
1.11813e-07
4.42017e-08
7.49503e-09
-3.40155e-10
-1.65831e-10
-3.58337e-11
-1.45088e-12
0.022534
0.0219854
0.0158183
0.0193987
0.0456112
0.0432022
-0.0381057
-0.0956373
0.0463826
0.331928
0.456138
0.123327
-0.703018
-1.74307
-2.41195
-2.06282
-0.520043
1.59729
3.23929
3.66879
2.86003
1.36113
-0.107819
-1.01778
-1.24302
-1.02154
-0.684467
-0.417466
-0.241985
-0.117316
-0.0329609
0.0113592
0.0240885
0.0206641
0.0119125
0.00412997
0.00024195
-8.84734e-05
-9.23344e-05
-4.85334e-05
-1.27635e-05
-1.01487e-07
1.73107e-07
8.53343e-08
1.61101e-08
-1.98964e-09
-9.43511e-10
-1.94948e-10
-8.96134e-13
9.0842e-13
-0.0199322
-0.0205778
-0.0299426
-0.0261002
0.0151643
0.0153355
-0.106226
-0.21215
-0.0451658
0.403738
0.788397
0.698642
-0.0945734
-1.4771
-2.85656
-3.35803
-2.4588
-0.486728
1.59729
2.8807
3.00115
2.19653
1.05122
0.12777
-0.336321
-0.443924
-0.401248
-0.331113
-0.2535
-0.165809
-0.0894653
-0.0373744
-0.0096822
0.00151468
0.00273432
0.000475802
4.30322e-05
-4.50576e-05
-4.21713e-05
-1.56535e-05
3.64246e-08
2.78345e-07
1.45022e-07
2.96007e-08
-3.82857e-09
-2.24028e-09
-6.21005e-10
-4.25195e-11
1.67898e-12
8.57841e-13
-0.0453775
-0.0463457
-0.0603825
-0.0536302
0.0078158
0.0146635
-0.161477
-0.346062
-0.164711
0.473553
1.24619
1.64672
1.21671
-0.196102
-2.12953
-3.589
-3.71889
-2.4588
-0.520043
1.16609
1.99456
1.90998
1.30634
0.674615
0.265322
0.0582712
-0.0474977
-0.104282
-0.11156
-0.085256
-0.0475855
-0.0179315
0.000103417
0.00624053
0.00467997
0.00208682
0.000592797
5.55382e-05
-7.04931e-06
-3.39204e-06
-1.70282e-06
-6.11237e-07
-1.06853e-07
-5.95628e-09
-9.33502e-10
-2.90329e-10
-2.05397e-11
9.08889e-12
2.15819e-12
2.66758e-13
-0.0121425
-0.0131667
-0.032412
-0.0259289
0.0664854
0.094855
-0.14979
-0.47887
-0.410134
0.297274
1.42389
2.45153
2.7298
1.77394
-0.24691
-2.39639
-3.589
-3.35803
-2.06282
-0.503077
0.607191
1.00373
0.894668
0.636611
0.42343
0.270904
0.148144
0.0601422
0.0164429
0.00839815
0.0151456
0.0221879
0.0238916
0.0186519
0.0105849
0.00446453
0.00113412
7.3372e-05
-1.04378e-05
-9.75296e-06
-5.61908e-06
-1.88753e-06
-2.49291e-07
2.27249e-09
1.40762e-09
5.80477e-10
1.54216e-10
1.28615e-11
-7.39637e-13
-3.19262e-13
0.0469875
0.0465283
0.0146891
0.0205369
0.165769
0.239597
-0.105934
-0.724381
-1.00911
-0.529198
0.698881
2.28569
3.49199
3.48542
2.0088
-0.24691
-2.12953
-2.85656
-2.41195
-1.36593
-0.405837
0.119102
0.28156
0.293254
0.266135
0.211614
0.139208
0.0785175
0.046423
0.0383909
0.0394655
0.0400008
0.0352948
0.0244903
0.0133665
0.0052651
0.00113436
1.93285e-05
-2.44363e-05
-1.76787e-05
-8.09967e-06
-2.10249e-06
-1.32378e-07
1.71771e-09
1.04182e-09
4.05545e-10
8.29551e-11
4.61728e-13
-1.10349e-12
-3.6416e-13
0.049497
0.0448047
-0.00197128
0.00209262
0.225571
0.379413
-0.0685132
-1.05388
-1.89245
-1.97819
-1.06863
0.725575
2.74851
3.9087
3.48542
1.77394
-0.196102
-1.4771
-1.74307
-1.31547
-0.751225
-0.368216
-0.162153
-0.0376786
0.0343907
0.0501717
0.0312399
0.00861342
0.00239083
0.0111168
0.0235643
0.031634
0.0303572
0.022183
0.0122677
0.00465949
0.000871309
-5.65414e-06
-2.94199e-05
-2.00269e-05
-8.3919e-06
-1.78509e-06
-5.85209e-08
6.01699e-10
3.8433e-10
1.14282e-10
-1.58232e-12
-1.51145e-12
-4.55808e-13
-4.76585e-16
-0.0271554
-0.0316807
-0.0989965
-0.113642
0.215633
0.604924
0.267611
-0.906871
-2.26234
-3.13764
-3.0505
-1.6738
0.651445
2.74851
3.49199
2.7298
1.21671
-0.0945736
-0.703018
-0.731855
-0.560676
-0.407774
-0.282665
-0.164851
-0.0802936
-0.0449319
-0.0445867
-0.0490701
-0.0406902
-0.0203443
0.00285882
0.0178738
0.0223414
0.0180848
0.0103783
0.00392344
0.00072885
-2.40102e-06
-2.70735e-05
-1.8919e-05
-7.75597e-06
-1.55473e-06
-5.09756e-08
-4.56988e-11
1.76875e-11
-2.1699e-11
-7.93375e-12
-6.46841e-13
5.98378e-13
2.22354e-13
-0.0757716
-0.078782
-0.202069
-0.254509
0.308097
1.22346
1.39343
0.441673
-1.11748
-2.76273
-3.86217
-3.5535
-1.6738
0.725575
2.28569
2.45153
1.64672
0.698642
0.123327
-0.0903371
-0.157749
-0.184541
-0.157245
-0.0985218
-0.048485
-0.0329725
-0.0404514
-0.0492508
-0.0439508
-0.0234307
-0.000401404
0.0153276
0.0208465
0.0173465
0.0100349
0.00386467
0.000776387
9.15741e-06
-2.45268e-05
-1.7748e-05
-7.32483e-06
-1.53283e-06
-6.17426e-08
-1.39944e-10
-5.91379e-11
-1.36992e-11
4.75996e-12
3.30981e-12
1.06165e-12
1.08575e-13
0.00449779
-0.00714916
-0.222617
-0.335502
0.402224
1.96301
2.8767
2.55234
1.37803
-0.576629
-2.77721
-3.86217
-3.0505
-1.06863
0.698882
1.42389
1.24619
0.788398
0.456138
0.269562
0.128931
0.0329418
0.00100525
0.0133956
0.0281136
0.021296
-0.00193677
-0.0227161
-0.0250573
-0.0105407
0.00787805
0.0205158
0.023928
0.0189162
0.0107464
0.0041722
0.000860204
1.50885e-05
-2.32862e-05
-1.71804e-05
-7.29994e-06
-1.62566e-06
-7.70975e-08
7.96276e-11
6.12484e-11
3.64454e-11
1.50302e-11
3.96392e-12
3.27113e-13
-2.75134e-14
0.133403
0.114427
-0.187151
-0.789547
-0.501818
1.26311
2.71944
3.28637
3.34555
2.03683
-0.576629
-2.76273
-3.13764
-1.97819
-0.529197
0.297274
0.473553
0.403739
0.331928
0.259798
0.158011
0.07689
0.0454638
0.050482
0.056846
0.043346
0.0143365
-0.0107534
-0.0159384
-0.00403888
0.0123432
0.02351
0.0257015
0.0198048
0.0111533
0.00431057
0.000874807
1.27392e-05
-2.363e-05
-1.73174e-05
-7.4035e-06
-1.65285e-06
-7.62384e-08
1.07102e-10
7.58032e-11
3.76775e-11
1.35199e-11
2.45165e-12
1.51928e-14
-1.83659e-14
0.124381
0.18397
-0.534284
-1.77091
-2.02819
-0.692476
1.01037
1.84524
2.98619
3.34555
1.37803
-1.11748
-2.26234
-1.89245
-1.00911
-0.410134
-0.164711
-0.0451654
0.046383
0.0672468
0.0347535
-0.000567467
-0.00373831
0.0178837
0.0353412
0.0290083
0.00387723
-0.0178502
-0.0209197
-0.00753521
0.0101155
0.0221829
0.0249011
0.0193891
0.010969
0.00422498
0.000844062
9.30115e-06
-2.44345e-05
-1.76871e-05
-7.4838e-06
-1.63333e-06
-6.97959e-08
3.36081e-11
3.64497e-11
2.3739e-11
1.02642e-11
2.64611e-12
2.52268e-13
2.52885e-15
-0.00800427
0.134738
-0.750486
-2.67357
-3.46486
-2.37111
-0.530029
0.49051
1.84524
3.28637
2.55234
0.441672
-0.906872
-1.05388
-0.724382
-0.47887
-0.346062
-0.21215
-0.095637
-0.0434086
-0.0477144
-0.0595469
-0.0457232
-0.0119338
0.0152319
0.0143174
-0.00630297
-0.025002
-0.0261267
-0.0112097
0.00769784
0.0206164
0.0239708
0.0189168
0.0107548
0.00414485
0.000828899
9.20231e-06
-2.44204e-05
-1.76732e-05
-7.45053e-06
-1.6169e-06
-6.88692e-08
2.96294e-11
3.49231e-11
2.38766e-11
1.11416e-11
3.25485e-12
3.55003e-13
1.69732e-16
-0.0588644
0.0464483
-0.549955
-2.7497
-4.34294
-3.69699
-2.07096
-0.530029
1.01037
2.71944
2.8767
1.39343
0.26761
-0.0685132
-0.105935
-0.149791
-0.161477
-0.106226
-0.0381054
-0.0136745
-0.0302971
-0.0494696
-0.040607
-0.00774341
0.0175874
0.016108
-0.00475311
-0.0238478
-0.0253431
-0.0106203
0.00807801
0.0208254
0.024099
0.0189869
0.0107842
0.00416099
0.00083722
1.03799e-05
-2.41698e-05
-1.75613e-05
-7.41992e-06
-1.6197e-06
-7.05577e-08
3.68414e-11
3.95573e-11
2.63445e-11
1.2173e-11
3.45808e-12
3.38997e-13
-2.00153e-17
-0.0116277
-0.00245051
-0.12571
-1.72379
-3.91138
-4.5123
-3.69699
-2.37111
-0.692476
1.26311
1.96301
1.22346
0.604924
0.379413
0.239597
0.0948546
0.0146632
0.0153357
0.0432026
0.0427149
0.00854321
-0.0240294
-0.0223509
0.00458228
0.0259964
0.0220915
-0.000510987
-0.020922
-0.0232542
-0.00914513
0.00904394
0.02144
0.0244645
0.0191737
0.0108682
0.00419312
0.00084408
1.06122e-05
-2.41353e-05
-1.75489e-05
-7.42723e-06
-1.62642e-06
-7.12989e-08
4.2543e-11
4.20592e-11
2.68986e-11
1.19631e-11
3.15941e-12
2.45079e-13
-6.92652e-17
0.01638
-0.00911613
0.072208
-0.353248
-2.14531
-3.91138
-4.34294
-3.46486
-2.02819
-0.501818
0.402224
0.308097
0.215633
0.225572
0.165769
0.0664849
0.00781547
0.0151644
0.0456116
0.046427
0.0104746
-0.0219085
-0.0208533
0.00537413
0.0264792
0.0224094
-0.00042562
-0.0209323
-0.0232621
-0.00917138
0.00902133
0.0214343
0.0244605
0.0191703
0.0108676
0.00419162
0.000842412
1.03204e-05
-2.4192e-05
-1.75742e-05
-7.43512e-06
-1.62614e-06
-7.08741e-08
4.32005e-11
4.27564e-11
2.71072e-11
1.17901e-11
3.00514e-12
2.2887e-13
-9.6665e-17
-0.00386305
0.000627755
-0.0342128
0.104029
-0.353247
-1.72379
-2.7497
-2.67357
-1.77091
-0.789547
-0.335503
-0.254509
-0.113641
0.00209316
0.020537
-0.0259293
-0.0536305
-0.0261001
0.0193991
0.0279011
-0.00188581
-0.0301694
-0.0266684
0.00131625
0.0237642
0.0205063
-0.0017898
-0.0218719
-0.0239271
-0.00964166
0.00871271
0.0212396
0.0243443
0.0191104
0.0108407
0.00418127
0.000839999
1.02006e-05
-2.42062e-05
-1.75784e-05
-7.43303e-06
-1.62379e-06
-7.05558e-08
3.60418e-11
3.91268e-11
2.58105e-11
1.15925e-11
3.14548e-12
2.85636e-13
-8.92163e-17
-0.0096652
-0.00732273
-0.0075342
-0.0342128
0.072208
-0.12571
-0.549956
-0.750486
-0.534284
-0.187151
-0.222617
-0.202069
-0.0989964
-0.00197073
0.0146892
-0.0324124
-0.0603829
-0.0299425
0.0158187
0.0251935
-0.00358959
-0.0314
-0.0275885
0.000765714
0.0234431
0.0202943
-0.0018938
-0.0219171
-0.0239542
-0.00965325
0.00870804
0.0212348
0.0243418
0.0191096
0.0108401
0.00418129
0.000840341
1.02555e-05
-2.42074e-05
-1.75798e-05
-7.43282e-06
-1.62379e-06
-7.06179e-08
3.69385e-11
3.90286e-11
2.56552e-11
1.16169e-11
3.18483e-12
2.88017e-13
-8.86438e-17
0.00225267
-0.00273353
-0.00732271
0.000627736
-0.00911614
-0.00245035
0.0464478
0.134739
0.18397
0.114427
-0.00714967
-0.0787824
-0.0316804
0.0448053
0.0465285
-0.0131671
-0.0463461
-0.0205778
0.0219858
0.0295327
-0.000597014
-0.0294449
-0.0262504
0.00170924
0.0240703
0.020729
-0.00158288
-0.0217022
-0.0238029
-0.00954646
0.00877817
0.021279
0.0243682
0.0191232
0.0108463
0.00418372
0.000840939
1.02971e-05
-2.4198e-05
-1.75762e-05
-7.43293e-06
-1.62458e-06
-7.07523e-08
3.93132e-11
4.05285e-11
2.62519e-11
1.17135e-11
3.14208e-12
2.70154e-13
-8.92834e-17
0.000634368
0.00225267
-0.00966519
-0.00386306
0.01638
-0.0116275
-0.0588646
-0.00800443
0.124382
0.133403
0.00449719
-0.0757723
-0.0271552
0.0494977
0.0469877
-0.0121428
-0.0453779
-0.0199322
0.0225343
0.0300146
-0.000277918
-0.0292365
-0.026091
0.00180429
0.0241245
0.0207639
-0.00156531
-0.0216948
-0.0237989
-0.00954492
0.00877866
0.0212796
0.0243685
0.0191233
0.0108463
0.00418368
0.000840875
1.02888e-05
-2.41961e-05
-1.75749e-05
-7.4325e-06
-1.62446e-06
-7.07328e-08
3.79806e-11
3.96409e-11
2.58948e-11
1.16414e-11
3.15038e-12
2.77015e-13
-8.88467e-17
)
;

boundaryField
{
    movingWall
    {
        type            zeroGradient;
    }
    fixedWalls
    {
        type            zeroGradient;
    }
    frontAndBack
    {
        type            empty;
    }
}

