/*--------------------------------*- C++ -*----------------------------------*\
| =========                 |                                                 |
| \\      /  F ield         | OpenFOAM: The Open Source CFD Toolbox           |
|  \\    /   O peration     | Version:  v2006                                 |
|   \\  /    A nd           | Website:  www.openfoam.com                      |
|    \\/     M anipulation  |                                                 |
\*---------------------------------------------------------------------------*/
FoamFile
{
    version     2.0;
    format      ascii;
    class       volVectorField;
    location    "0";
    object      U;
}
// * * * * * * * * * * * * * * * * * * * * * * * * * * * * * * * * * * * * * //

dimensions      [0 1 -1 0 0 0 0];


internalField   nonuniform List<vector> 
67500
(
(0.0220787 -0.00960926 0)
(0.0236318 -0.0197441 0)
(0.0833847 -0.0203669 0)
(0.122286 -0.0186798 0)
(0.154306 -0.0174573 0)
(0.187979 -0.0168608 0)
(0.222221 -0.0165927 0)
(0.25543 -0.0163844 0)
(0.287829 -0.0161088 0)
(0.319698 -0.015759 0)
(0.350883 -0.0153619 0)
(0.381216 -0.014933 0)
(0.410648 -0.0144779 0)
(0.439145 -0.0140007 0)
(0.466668 -0.0135062 0)
(0.493183 -0.0129991 0)
(0.518672 -0.0124843 0)
(0.543123 -0.0119664 0)
(0.566536 -0.0114495 0)
(0.588916 -0.0109374 0)
(0.610277 -0.0104331 0)
(0.630638 -0.00993938 0)
(0.650021 -0.00945835 0)
(0.668456 -0.0089917 0)
(0.685972 -0.00854072 0)
(0.702602 -0.00810632 0)
(0.71838 -0.00768909 0)
(0.733341 -0.00728935 0)
(0.747519 -0.00690721 0)
(0.760952 -0.00654257 0)
(0.773672 -0.0061952 0)
(0.785715 -0.00586472 0)
(0.797114 -0.00555071 0)
(0.807902 -0.00525263 0)
(0.818109 -0.00496992 0)
(0.827767 -0.00470199 0)
(0.836903 -0.00444822 0)
(0.845546 -0.00420798 0)
(0.853722 -0.00398065 0)
(0.861456 -0.00376562 0)
(0.868772 -0.00356227 0)
(0.875694 -0.00337 0)
(0.882242 -0.00318826 0)
(0.888437 -0.00301648 0)
(0.894298 -0.00285414 0)
(0.899844 -0.00270072 0)
(0.905092 -0.00255574 0)
(0.910059 -0.00241875 0)
(0.91476 -0.00228929 0)
(0.919209 -0.00216695 0)
(0.92342 -0.00205133 0)
(0.927408 -0.00194207 0)
(0.931183 -0.00183881 0)
(0.934757 -0.0017412 0)
(0.938142 -0.00164893 0)
(0.941348 -0.0015617 0)
(0.944384 -0.00147923 0)
(0.94726 -0.00140124 0)
(0.949984 -0.00132749 0)
(0.952566 -0.00125772 0)
(0.955011 -0.00119171 0)
(0.957329 -0.00112925 0)
(0.959525 -0.00107013 0)
(0.961606 -0.00101416 0)
(0.963579 -0.000961169 0)
(0.965448 -0.000910977 0)
(0.96722 -0.000863428 0)
(0.968899 -0.000818374 0)
(0.970491 -0.000775674 0)
(0.971999 -0.000735197 0)
(0.973429 -0.000696822 0)
(0.974784 -0.000660435 0)
(0.976069 -0.000625929 0)
(0.977286 -0.000593204 0)
(0.97844 -0.000562169 0)
(0.979533 -0.000532736 0)
(0.980569 -0.000504823 0)
(0.981551 -0.000478355 0)
(0.982481 -0.000453257 0)
(0.983363 -0.000429461 0)
(0.984198 -0.000406903 0)
(0.984989 -0.000385519 0)
(0.985739 -0.000365251 0)
(0.986449 -0.000346042 0)
(0.987122 -0.000327839 0)
(0.987759 -0.00031059 0)
(0.988363 -0.000294246 0)
(0.988935 -0.000278762 0)
(0.989477 -0.000264093 0)
(0.989991 -0.000250199 0)
(0.990477 -0.000237039 0)
(0.990938 -0.000224576 0)
(0.991375 -0.000212775 0)
(0.991789 -0.000201603 0)
(0.992181 -0.000191026 0)
(0.992552 -0.000181016 0)
(0.992904 -0.000171543 0)
(0.993238 -0.000162579 0)
(0.993554 -0.000154098 0)
(0.993854 -0.000146075 0)
(0.994138 -0.000138486 0)
(0.994407 -0.000131307 0)
(0.994663 -0.000124517 0)
(0.994905 -0.000118095 0)
(0.995135 -0.00011202 0)
(0.995352 -0.000106274 0)
(0.995559 -0.000100838 0)
(0.995756 -9.56951e-05 0)
(0.995942 -9.08289e-05 0)
(0.996119 -8.62238e-05 0)
(0.996286 -8.18654e-05 0)
(0.996446 -7.77398e-05 0)
(0.996597 -7.3834e-05 0)
(0.996741 -7.01358e-05 0)
(0.996877 -6.66338e-05 0)
(0.997007 -6.33171e-05 0)
(0.997131 -6.01757e-05 0)
(0.997248 -5.72e-05 0)
(0.997359 -5.4381e-05 0)
(0.997465 -5.17104e-05 0)
(0.997566 -4.91801e-05 0)
(0.997662 -4.67828e-05 0)
(0.997753 -4.45113e-05 0)
(0.99784 -4.2359e-05 0)
(0.997922 -4.03196e-05 0)
(0.998001 -3.8387e-05 0)
(0.998076 -3.65556e-05 0)
(0.998147 -3.48201e-05 0)
(0.998215 -3.31753e-05 0)
(0.998279 -3.16164e-05 0)
(0.998341 -3.01388e-05 0)
(0.9984 -2.87381e-05 0)
(0.998456 -2.74103e-05 0)
(0.998509 -2.61514e-05 0)
(0.998561 -2.49577e-05 0)
(0.998609 -2.38256e-05 0)
(0.998656 -2.27519e-05 0)
(0.9987 -2.17333e-05 0)
(0.998743 -2.07668e-05 0)
(0.998783 -1.98497e-05 0)
(0.998822 -1.89793e-05 0)
(0.998859 -1.8153e-05 0)
(0.998895 -1.73685e-05 0)
(0.998928 -1.66234e-05 0)
(0.998961 -1.59157e-05 0)
(0.998992 -1.52435e-05 0)
(0.999022 -1.46047e-05 0)
(0.99905 -1.39976e-05 0)
(0.999078 -1.34207e-05 0)
(0.999104 -1.28722e-05 0)
(0.999129 -1.23508e-05 0)
(0.999154 -1.18551e-05 0)
(0.999177 -1.13837e-05 0)
(0.999199 -1.09354e-05 0)
(0.99922 -1.05091e-05 0)
(0.999241 -1.01038e-05 0)
(0.999261 -9.71834e-06 0)
(0.99928 -9.35183e-06 0)
(0.999298 -9.00336e-06 0)
(0.999316 -8.67206e-06 0)
(0.999333 -8.35715e-06 0)
(0.999349 -8.05784e-06 0)
(0.999365 -7.77342e-06 0)
(0.99938 -7.5032e-06 0)
(0.999395 -7.24653e-06 0)
(0.999409 -7.00278e-06 0)
(0.999423 -6.77136e-06 0)
(0.999436 -6.55169e-06 0)
(0.999449 -6.34323e-06 0)
(0.999462 -6.14546e-06 0)
(0.999474 -5.95788e-06 0)
(0.999486 -5.78e-06 0)
(0.999497 -5.61136e-06 0)
(0.999508 -5.45151e-06 0)
(0.999519 -5.30001e-06 0)
(0.999529 -5.15645e-06 0)
(0.999539 -5.02042e-06 0)
(0.999549 -4.89153e-06 0)
(0.999559 -4.76941e-06 0)
(0.999568 -4.65368e-06 0)
(0.999578 -4.54399e-06 0)
(0.999587 -4.44e-06 0)
(0.999595 -4.34137e-06 0)
(0.999604 -4.24778e-06 0)
(0.999612 -4.15892e-06 0)
(0.999621 -4.07448e-06 0)
(0.999629 -3.99417e-06 0)
(0.999637 -3.91771e-06 0)
(0.999644 -3.84481e-06 0)
(0.999652 -3.77522e-06 0)
(0.999659 -3.70866e-06 0)
(0.999667 -3.6449e-06 0)
(0.999674 -3.58369e-06 0)
(0.999681 -3.5248e-06 0)
(0.999688 -3.46799e-06 0)
(0.999695 -3.41306e-06 0)
(0.999702 -3.3598e-06 0)
(0.999708 -3.30799e-06 0)
(0.999715 -3.25745e-06 0)
(0.999721 -3.208e-06 0)
(0.999728 -3.15944e-06 0)
(0.999734 -3.11162e-06 0)
(0.99974 -3.06438e-06 0)
(0.999746 -3.01755e-06 0)
(0.999752 -2.97101e-06 0)
(0.999758 -2.92462e-06 0)
(0.999764 -2.87827e-06 0)
(0.99977 -2.83184e-06 0)
(0.999775 -2.78524e-06 0)
(0.999781 -2.73839e-06 0)
(0.999786 -2.69123e-06 0)
(0.999792 -2.64369e-06 0)
(0.999797 -2.59574e-06 0)
(0.999802 -2.54736e-06 0)
(0.999807 -2.49852e-06 0)
(0.999812 -2.44924e-06 0)
(0.999817 -2.39953e-06 0)
(0.999822 -2.34941e-06 0)
(0.999826 -2.29893e-06 0)
(0.999831 -2.24813e-06 0)
(0.999835 -2.19708e-06 0)
(0.99984 -2.14586e-06 0)
(0.999844 -2.09454e-06 0)
(0.999848 -2.04322e-06 0)
(0.999852 -1.99199e-06 0)
(0.999856 -1.94096e-06 0)
(0.99986 -1.89023e-06 0)
(0.999863 -1.83992e-06 0)
(0.999867 -1.79012e-06 0)
(0.999871 -1.74094e-06 0)
(0.999874 -1.69247e-06 0)
(0.999877 -1.64478e-06 0)
(0.999881 -1.59795e-06 0)
(0.999884 -1.55201e-06 0)
(0.999887 -1.50699e-06 0)
(0.99989 -1.46288e-06 0)
(0.999893 -1.41967e-06 0)
(0.999895 -1.37733e-06 0)
(0.999898 -1.33579e-06 0)
(0.999901 -1.29504e-06 0)
(0.999903 -1.25501e-06 0)
(0.999906 -1.21571e-06 0)
(0.999908 -1.17713e-06 0)
(0.999911 -1.13931e-06 0)
(0.999913 -1.10231e-06 0)
(0.999915 -1.06622e-06 0)
(0.999917 -1.03115e-06 0)
(0.999919 -9.97213e-07 0)
(0.999921 -9.64508e-07 0)
(0.999923 -9.33129e-07 0)
(0.999925 -9.0314e-07 0)
(0.999927 -8.7457e-07 0)
(0.999928 -8.47413e-07 0)
(0.99993 -8.21627e-07 0)
(0.999932 -7.97142e-07 0)
(0.999933 -7.73861e-07 0)
(0.999935 -7.51674e-07 0)
(0.999936 -7.3046e-07 0)
(0.999938 -7.10098e-07 0)
(0.999939 -6.90474e-07 0)
(0.99994 -6.71484e-07 0)
(0.999942 -6.53037e-07 0)
(0.999943 -6.35057e-07 0)
(0.999944 -6.17486e-07 0)
(0.999945 -6.00279e-07 0)
(0.999947 -5.83406e-07 0)
(0.999948 -5.66848e-07 0)
(0.999949 -5.50598e-07 0)
(0.99995 -5.34655e-07 0)
(0.999951 -5.19024e-07 0)
(0.999952 -5.03716e-07 0)
(0.999953 -4.88741e-07 0)
(0.999954 -4.74112e-07 0)
(0.999955 -4.59843e-07 0)
(0.999956 -4.45945e-07 0)
(0.999957 -4.32429e-07 0)
(0.999958 -4.19302e-07 0)
(0.999958 -4.06573e-07 0)
(0.999959 -3.94244e-07 0)
(0.99996 -3.82317e-07 0)
(0.999961 -3.70793e-07 0)
(0.999961 -3.59669e-07 0)
(0.999962 -3.48941e-07 0)
(0.999963 -3.38604e-07 0)
(0.999963 -3.28651e-07 0)
(0.999964 -3.19073e-07 0)
(0.999965 -3.09861e-07 0)
(0.999965 -3.01006e-07 0)
(0.999966 -2.92497e-07 0)
(0.999967 -2.84322e-07 0)
(0.999967 -2.76471e-07 0)
(0.999968 -2.68931e-07 0)
(0.999968 -2.61691e-07 0)
(0.999969 -2.54739e-07 0)
(0.999969 -2.48064e-07 0)
(0.99997 -2.41653e-07 0)
(0.99997 -2.35496e-07 0)
(0.999971 -2.29582e-07 0)
(0.999971 -2.239e-07 0)
(0.999972 -2.18439e-07 0)
(0.999972 -2.13188e-07 0)
(0.999972 -2.0814e-07 0)
(0.999973 -2.03283e-07 0)
(0.999973 -1.98609e-07 0)
(0.999974 -1.9411e-07 0)
(0.999974 -1.89776e-07 0)
(0.999974 -1.856e-07 0)
(0.999975 -1.81575e-07 0)
(0.999975 -1.77693e-07 0)
(0.999975 -1.73947e-07 0)
(0.999976 -1.7033e-07 0)
(0.999976 -1.66837e-07 0)
(0.999976 -1.63462e-07 0)
(0.999977 -1.60198e-07 0)
(0.999977 -1.57041e-07 0)
(0.999977 -1.53985e-07 0)
(0.999978 -1.51025e-07 0)
(0.999978 -1.48157e-07 0)
(0.999978 -1.45377e-07 0)
(0.999979 -1.4268e-07 0)
(0.999979 -1.40062e-07 0)
(0.999979 -1.3752e-07 0)
(0.999979 -1.35051e-07 0)
(0.99998 -1.3265e-07 0)
(0.99998 -1.30314e-07 0)
(0.99998 -1.28042e-07 0)
(0.99998 -1.25829e-07 0)
(0.999981 -1.23673e-07 0)
(0.999981 -1.21573e-07 0)
(0.999981 -1.19524e-07 0)
(0.999981 -1.17526e-07 0)
(0.999982 -1.15575e-07 0)
(0.999982 -1.1367e-07 0)
(0.999982 -1.11809e-07 0)
(0.999982 -1.09989e-07 0)
(0.999983 -1.0821e-07 0)
(0.999983 -1.0647e-07 0)
(0.999983 -1.04766e-07 0)
(0.999983 -1.03098e-07 0)
(0.999983 -1.01464e-07 0)
(0.999984 -9.98626e-08 0)
(0.999984 -9.82929e-08 0)
(0.999984 -9.67535e-08 0)
(0.999984 -9.52432e-08 0)
(0.999984 -9.37611e-08 0)
(0.999985 -9.2306e-08 0)
(0.999985 -9.08771e-08 0)
(0.999985 -8.94733e-08 0)
(0.999985 -8.80938e-08 0)
(0.999985 -8.67376e-08 0)
(0.999985 -8.5404e-08 0)
(0.999986 -8.40922e-08 0)
(0.999986 -8.28016e-08 0)
(0.999986 -8.15315e-08 0)
(0.999986 -8.02812e-08 0)
(0.999986 -7.905e-08 0)
(0.999986 -7.78375e-08 0)
(0.999987 -7.6643e-08 0)
(0.999987 -7.54661e-08 0)
(0.999987 -7.43061e-08 0)
(0.999987 -7.31625e-08 0)
(0.999987 -7.20349e-08 0)
(0.999987 -7.09228e-08 0)
(0.999987 -6.98258e-08 0)
(0.999988 -6.87434e-08 0)
(0.999988 -6.76753e-08 0)
(0.999988 -6.66211e-08 0)
(0.999988 -6.55805e-08 0)
(0.999988 -6.4553e-08 0)
(0.999988 -6.35384e-08 0)
(0.999988 -6.25362e-08 0)
(0.999989 -6.15463e-08 0)
(0.999989 -6.05682e-08 0)
(0.999989 -5.96017e-08 0)
(0.999989 -5.86466e-08 0)
(0.999989 -5.77026e-08 0)
(0.999989 -5.67694e-08 0)
(0.999989 -5.58467e-08 0)
(0.999989 -5.49343e-08 0)
(0.999989 -5.4032e-08 0)
(0.99999 -5.31394e-08 0)
(0.99999 -5.22565e-08 0)
(0.99999 -5.1383e-08 0)
(0.99999 -5.05187e-08 0)
(0.99999 -4.96633e-08 0)
(0.99999 -4.88169e-08 0)
(0.99999 -4.7979e-08 0)
(0.99999 -4.71496e-08 0)
(0.99999 -4.63285e-08 0)
(0.99999 -4.55154e-08 0)
(0.999991 -4.47102e-08 0)
(0.999991 -4.39127e-08 0)
(0.999991 -4.31226e-08 0)
(0.999991 -4.234e-08 0)
(0.999991 -4.15646e-08 0)
(0.999991 -4.07964e-08 0)
(0.999991 -4.0035e-08 0)
(0.999991 -3.92805e-08 0)
(0.999991 -3.85325e-08 0)
(0.999991 -3.77911e-08 0)
(0.999991 -3.7056e-08 0)
(0.999991 -3.63272e-08 0)
(0.999991 -3.56045e-08 0)
(0.999992 -3.48877e-08 0)
(0.999992 -3.41768e-08 0)
(0.999992 -3.34716e-08 0)
(0.999992 -3.2772e-08 0)
(0.999992 -3.20778e-08 0)
(0.999992 -3.1389e-08 0)
(0.999992 -3.07053e-08 0)
(0.999992 -3.00267e-08 0)
(0.999992 -2.93531e-08 0)
(0.999992 -2.86842e-08 0)
(0.999992 -2.80201e-08 0)
(0.999992 -2.73605e-08 0)
(0.999992 -2.67055e-08 0)
(0.999992 -2.60549e-08 0)
(0.999992 -2.54086e-08 0)
(0.999992 -2.47666e-08 0)
(0.999992 -2.41288e-08 0)
(0.999993 -2.34949e-08 0)
(0.999993 -2.28649e-08 0)
(0.999993 -2.22386e-08 0)
(0.999993 -2.16159e-08 0)
(0.999993 -2.09967e-08 0)
(0.999993 -2.03808e-08 0)
(0.999993 -1.97683e-08 0)
(0.999993 -1.91591e-08 0)
(0.999993 -1.85531e-08 0)
(0.999993 -1.79502e-08 0)
(0.999993 -1.73502e-08 0)
(0.999993 -1.67531e-08 0)
(0.999993 -1.61588e-08 0)
(0.999993 -1.55672e-08 0)
(0.999993 -1.49781e-08 0)
(0.999993 -1.43914e-08 0)
(0.999993 -1.38072e-08 0)
(0.999993 -1.32252e-08 0)
(0.999993 -1.26453e-08 0)
(0.999993 -1.20676e-08 0)
(0.999993 -1.14918e-08 0)
(0.999993 -1.0918e-08 0)
(0.999993 -1.03461e-08 0)
(0.999993 -9.77587e-09 0)
(0.999993 -9.20765e-09 0)
(0.999993 -8.63961e-09 0)
(0.999993 -8.07889e-09 0)
(0.999993 -7.49517e-09 0)
(0.999993 -7.01544e-09 0)
(0.999993 -6.10483e-09 0)
(0.0216816 -0.0288144 0)
(0.0236559 -0.0591483 0)
(0.0834232 -0.0612711 0)
(0.122261 -0.0561328 0)
(0.154582 -0.0523591 0)
(0.188482 -0.0505892 0)
(0.222768 -0.0498142 0)
(0.256014 -0.0491885 0)
(0.288491 -0.0483556 0)
(0.32044 -0.0473042 0)
(0.35169 -0.0461103 0)
(0.38208 -0.0448193 0)
(0.411561 -0.0434491 0)
(0.440098 -0.0420127 0)
(0.46765 -0.0405243 0)
(0.494185 -0.0389985 0)
(0.519684 -0.0374499 0)
(0.544137 -0.0358924 0)
(0.567544 -0.0343386 0)
(0.589911 -0.0327995 0)
(0.611254 -0.0312846 0)
(0.631592 -0.0298017 0)
(0.650949 -0.0283574 0)
(0.669354 -0.0269566 0)
(0.686838 -0.0256032 0)
(0.703435 -0.0242998 0)
(0.719179 -0.0230481 0)
(0.734105 -0.0218491 0)
(0.748249 -0.0207031 0)
(0.761647 -0.0196097 0)
(0.774334 -0.0185681 0)
(0.786345 -0.0175774 0)
(0.797712 -0.016636 0)
(0.808469 -0.0157425 0)
(0.818647 -0.0148951 0)
(0.828276 -0.014092 0)
(0.837386 -0.0133314 0)
(0.846003 -0.0126113 0)
(0.854154 -0.01193 0)
(0.861865 -0.0112856 0)
(0.869159 -0.0106761 0)
(0.87606 -0.0100999 0)
(0.882588 -0.00955524 0)
(0.888764 -0.00904044 0)
(0.894607 -0.00855391 0)
(0.900137 -0.00809414 0)
(0.905369 -0.00765966 0)
(0.91032 -0.00724908 0)
(0.915007 -0.0068611 0)
(0.919443 -0.00649447 0)
(0.923642 -0.00614799 0)
(0.927617 -0.00582054 0)
(0.93138 -0.00551105 0)
(0.934944 -0.00521853 0)
(0.938319 -0.00494201 0)
(0.941515 -0.0046806 0)
(0.944542 -0.00443343 0)
(0.94741 -0.00419971 0)
(0.950126 -0.00397866 0)
(0.9527 -0.00376956 0)
(0.955138 -0.00357174 0)
(0.957449 -0.00338455 0)
(0.959639 -0.00320737 0)
(0.961714 -0.00303964 0)
(0.963681 -0.00288082 0)
(0.965545 -0.00273039 0)
(0.967311 -0.00258788 0)
(0.968986 -0.00245285 0)
(0.970573 -0.00232487 0)
(0.972078 -0.00220356 0)
(0.973503 -0.00208854 0)
(0.974855 -0.00197948 0)
(0.976136 -0.00187606 0)
(0.97735 -0.00177797 0)
(0.9785 -0.00168495 0)
(0.97959 -0.00159673 0)
(0.980623 -0.00151306 0)
(0.981602 -0.00143372 0)
(0.98253 -0.0013585 0)
(0.983409 -0.00128717 0)
(0.984242 -0.00121956 0)
(0.98503 -0.00115546 0)
(0.985778 -0.00109471 0)
(0.986486 -0.00103714 0)
(0.987157 -0.000982577 0)
(0.987793 -0.000930876 0)
(0.988395 -0.000881891 0)
(0.988965 -0.000835481 0)
(0.989506 -0.000791515 0)
(0.990018 -0.00074987 0)
(0.990503 -0.000710426 0)
(0.990962 -0.000673073 0)
(0.991398 -0.000637703 0)
(0.99181 -0.000604217 0)
(0.992201 -0.000572518 0)
(0.992572 -0.000542515 0)
(0.992923 -0.000514123 0)
(0.993255 -0.000487257 0)
(0.99357 -0.000461839 0)
(0.993869 -0.000437794 0)
(0.994152 -0.000415048 0)
(0.994421 -0.000393534 0)
(0.994676 -0.000373185 0)
(0.994917 -0.000353938 0)
(0.995146 -0.000335733 0)
(0.995364 -0.000318512 0)
(0.99557 -0.000302222 0)
(0.995766 -0.000286809 0)
(0.995951 -0.000272226 0)
(0.996128 -0.000258426 0)
(0.996295 -0.000245364 0)
(0.996454 -0.000233 0)
(0.996605 -0.000221295 0)
(0.996748 -0.000210212 0)
(0.996884 -0.000199716 0)
(0.997014 -0.000189776 0)
(0.997137 -0.000180362 0)
(0.997253 -0.000171443 0)
(0.997365 -0.000162995 0)
(0.99747 -0.000154991 0)
(0.997571 -0.000147408 0)
(0.997666 -0.000140223 0)
(0.997757 -0.000133415 0)
(0.997844 -0.000126964 0)
(0.997926 -0.000120852 0)
(0.998004 -0.00011506 0)
(0.998079 -0.000109571 0)
(0.99815 -0.00010437 0)
(0.998218 -9.94399e-05 0)
(0.998282 -9.47678e-05 0)
(0.998344 -9.03394e-05 0)
(0.998403 -8.61416e-05 0)
(0.998459 -8.21621e-05 0)
(0.998512 -7.8389e-05 0)
(0.998563 -7.48114e-05 0)
(0.998611 -7.14185e-05 0)
(0.998658 -6.82004e-05 0)
(0.998702 -6.51476e-05 0)
(0.998745 -6.22512e-05 0)
(0.998785 -5.95025e-05 0)
(0.998824 -5.68938e-05 0)
(0.998861 -5.44173e-05 0)
(0.998896 -5.20658e-05 0)
(0.99893 -4.98328e-05 0)
(0.998962 -4.77118e-05 0)
(0.998993 -4.56968e-05 0)
(0.999023 -4.37823e-05 0)
(0.999052 -4.19628e-05 0)
(0.999079 -4.02335e-05 0)
(0.999105 -3.85896e-05 -6.48636e-42)
(0.99913 -3.70267e-05 -6.31124e-42)
(0.999154 -3.55408e-05 0)
(0.999178 -3.41278e-05 0)
(0.9992 -3.27842e-05 0)
(0.999221 -3.15065e-05 0)
(0.999242 -3.02915e-05 0)
(0.999262 -2.91361e-05 0)
(0.999281 -2.80375e-05 0)
(0.999299 -2.69929e-05 0)
(0.999317 -2.59998e-05 0)
(0.999334 -2.50558e-05 0)
(0.99935 -2.41586e-05 0)
(0.999366 -2.33061e-05 0)
(0.999381 -2.24961e-05 0)
(0.999396 -2.17267e-05 0)
(0.99941 -2.0996e-05 0)
(0.999424 -2.03023e-05 0)
(0.999437 -1.96438e-05 0)
(0.99945 -1.9019e-05 0)
(0.999462 -1.84262e-05 0)
(0.999474 -1.78639e-05 0)
(0.999486 -1.73308e-05 0)
(0.999497 -1.68253e-05 0)
(0.999508 -1.63462e-05 0)
(0.999519 -1.58921e-05 0)
(0.99953 -1.54618e-05 0)
(0.99954 -1.50541e-05 0)
(0.99955 -1.46678e-05 0)
(0.999559 -1.43018e-05 0)
(0.999569 -1.3955e-05 0)
(0.999578 -1.36263e-05 0)
(0.999587 -1.33146e-05 0)
(0.999596 -1.30191e-05 0)
(0.999604 -1.27386e-05 0)
(0.999612 -1.24723e-05 0)
(0.999621 -1.22193e-05 0)
(0.999629 -1.19787e-05 0)
(0.999637 -1.17496e-05 0)
(0.999644 -1.15311e-05 0)
(0.999652 -1.13226e-05 0)
(0.99966 -1.11232e-05 0)
(0.999667 -1.09322e-05 0)
(0.999674 -1.07488e-05 0)
(0.999681 -1.05723e-05 0)
(0.999688 -1.04021e-05 0)
(0.999695 -1.02375e-05 0)
(0.999702 -1.00779e-05 0)
(0.999708 -9.92271e-06 0)
(0.999715 -9.77128e-06 0)
(0.999721 -9.62309e-06 0)
(0.999728 -9.47759e-06 0)
(0.999734 -9.3343e-06 0)
(0.99974 -9.19271e-06 0)
(0.999746 -9.05238e-06 0)
(0.999752 -8.91288e-06 0)
(0.999758 -8.77383e-06 0)
(0.999764 -8.63487e-06 0)
(0.99977 -8.49567e-06 0)
(0.999775 -8.35596e-06 0)
(0.999781 -8.21549e-06 0)
(0.999786 -8.07405e-06 0)
(0.999792 -7.93148e-06 0)
(0.999797 -7.78766e-06 0)
(0.999802 -7.64252e-06 0)
(0.999807 -7.49602e-06 0)
(0.999812 -7.34816e-06 0)
(0.999817 -7.19899e-06 0)
(0.999822 -7.04859e-06 0)
(0.999826 -6.89708e-06 0)
(0.999831 -6.74463e-06 0)
(0.999835 -6.59142e-06 0)
(0.99984 -6.43766e-06 0)
(0.999844 -6.28362e-06 0)
(0.999848 -6.12956e-06 0)
(0.999852 -5.97577e-06 0)
(0.999856 -5.82258e-06 0)
(0.99986 -5.67029e-06 0)
(0.999864 -5.51924e-06 0)
(0.999867 -5.36974e-06 0)
(0.999871 -5.22211e-06 0)
(0.999874 -5.07662e-06 0)
(0.999877 -4.93351e-06 0)
(0.999881 -4.79297e-06 0)
(0.999884 -4.65513e-06 0)
(0.999887 -4.52006e-06 0)
(0.99989 -4.38776e-06 0)
(0.999893 -4.25817e-06 0)
(0.999896 -4.13116e-06 0)
(0.999898 -4.00661e-06 0)
(0.999901 -3.88436e-06 0)
(0.999903 -3.76431e-06 0)
(0.999906 -3.64639e-06 0)
(0.999908 -3.53062e-06 0)
(0.999911 -3.41709e-06 0)
(0.999913 -3.30601e-06 0)
(0.999915 -3.19765e-06 0)
(0.999917 -3.09233e-06 0)
(0.999919 -2.99041e-06 0)
(0.999921 -2.89221e-06 0)
(0.999923 -2.79801e-06 0)
(0.999925 -2.70802e-06 0)
(0.999927 -2.62231e-06 0)
(0.999928 -2.54088e-06 0)
(0.99993 -2.46359e-06 0)
(0.999932 -2.39023e-06 0)
(0.999933 -2.3205e-06 0)
(0.999935 -2.25405e-06 0)
(0.999936 -2.19053e-06 0)
(0.999938 -2.12955e-06 0)
(0.999939 -2.07078e-06 0)
(0.99994 -2.0139e-06 0)
(0.999942 -1.95864e-06 0)
(0.999943 -1.90476e-06 0)
(0.999944 -1.85209e-06 0)
(0.999945 -1.8005e-06 0)
(0.999947 -1.7499e-06 0)
(0.999948 -1.70023e-06 0)
(0.999949 -1.65148e-06 0)
(0.99995 -1.60365e-06 0)
(0.999951 -1.55675e-06 0)
(0.999952 -1.51081e-06 0)
(0.999953 -1.46588e-06 0)
(0.999954 -1.42198e-06 0)
(0.999955 -1.37916e-06 0)
(0.999956 -1.33746e-06 0)
(0.999957 -1.2969e-06 0)
(0.999958 -1.25751e-06 0)
(0.999958 -1.21932e-06 0)
(0.999959 -1.18233e-06 0)
(0.99996 -1.14655e-06 0)
(0.999961 -1.11198e-06 0)
(0.999961 -1.07861e-06 0)
(0.999962 -1.04643e-06 0)
(0.999963 -1.01543e-06 0)
(0.999964 -9.85576e-07 0)
(0.999964 -9.56851e-07 0)
(0.999965 -9.29227e-07 0)
(0.999965 -9.02673e-07 0)
(0.999966 -8.77156e-07 0)
(0.999967 -8.52644e-07 0)
(0.999967 -8.29101e-07 0)
(0.999968 -8.06494e-07 0)
(0.999968 -7.84786e-07 0)
(0.999969 -7.63942e-07 0)
(0.999969 -7.43927e-07 0)
(0.99997 -7.24707e-07 0)
(0.99997 -7.06247e-07 0)
(0.999971 -6.88515e-07 0)
(0.999971 -6.71478e-07 0)
(0.999972 -6.55104e-07 0)
(0.999972 -6.39364e-07 0)
(0.999972 -6.24227e-07 0)
(0.999973 -6.09666e-07 0)
(0.999973 -5.95653e-07 0)
(0.999974 -5.82162e-07 0)
(0.999974 -5.69169e-07 0)
(0.999974 -5.5665e-07 0)
(0.999975 -5.44582e-07 0)
(0.999975 -5.32942e-07 0)
(0.999975 -5.21711e-07 0)
(0.999976 -5.10868e-07 0)
(0.999976 -5.00395e-07 0)
(0.999976 -4.90274e-07 0)
(0.999977 -4.80488e-07 0)
(0.999977 -4.71021e-07 0)
(0.999977 -4.61858e-07 0)
(0.999978 -4.52983e-07 0)
(0.999978 -4.44384e-07 0)
(0.999978 -4.36047e-07 0)
(0.999979 -4.2796e-07 0)
(0.999979 -4.20111e-07 0)
(0.999979 -4.12489e-07 0)
(0.999979 -4.05083e-07 0)
(0.99998 -3.97883e-07 0)
(0.99998 -3.9088e-07 0)
(0.99998 -3.84066e-07 0)
(0.99998 -3.7743e-07 0)
(0.999981 -3.70967e-07 0)
(0.999981 -3.64667e-07 0)
(0.999981 -3.58524e-07 0)
(0.999981 -3.5253e-07 0)
(0.999982 -3.46679e-07 0)
(0.999982 -3.40966e-07 0)
(0.999982 -3.35383e-07 0)
(0.999982 -3.29927e-07 0)
(0.999983 -3.24591e-07 0)
(0.999983 -3.19371e-07 0)
(0.999983 -3.14262e-07 0)
(0.999983 -3.09259e-07 0)
(0.999983 -3.04359e-07 0)
(0.999984 -2.99557e-07 0)
(0.999984 -2.94849e-07 0)
(0.999984 -2.90232e-07 0)
(0.999984 -2.85702e-07 0)
(0.999984 -2.81256e-07 0)
(0.999985 -2.76892e-07 0)
(0.999985 -2.72606e-07 0)
(0.999985 -2.68395e-07 0)
(0.999985 -2.64257e-07 0)
(0.999985 -2.6019e-07 0)
(0.999985 -2.5619e-07 0)
(0.999986 -2.52256e-07 0)
(0.999986 -2.48385e-07 0)
(0.999986 -2.44575e-07 0)
(0.999986 -2.40825e-07 0)
(0.999986 -2.37132e-07 0)
(0.999986 -2.33496e-07 0)
(0.999987 -2.29913e-07 0)
(0.999987 -2.26382e-07 0)
(0.999987 -2.22903e-07 0)
(0.999987 -2.19472e-07 0)
(0.999987 -2.1609e-07 0)
(0.999987 -2.12754e-07 0)
(0.999987 -2.09463e-07 0)
(0.999988 -2.06216e-07 0)
(0.999988 -2.03013e-07 0)
(0.999988 -1.9985e-07 0)
(0.999988 -1.96729e-07 0)
(0.999988 -1.93647e-07 0)
(0.999988 -1.90603e-07 0)
(0.999988 -1.87597e-07 0)
(0.999989 -1.84627e-07 0)
(0.999989 -1.81693e-07 0)
(0.999989 -1.78794e-07 0)
(0.999989 -1.75929e-07 0)
(0.999989 -1.73097e-07 0)
(0.999989 -1.70298e-07 0)
(0.999989 -1.6753e-07 0)
(0.999989 -1.64793e-07 0)
(0.999989 -1.62086e-07 0)
(0.99999 -1.59408e-07 0)
(0.99999 -1.5676e-07 0)
(0.99999 -1.5414e-07 0)
(0.99999 -1.51547e-07 0)
(0.99999 -1.48982e-07 0)
(0.99999 -1.46442e-07 0)
(0.99999 -1.43929e-07 0)
(0.99999 -1.41441e-07 0)
(0.99999 -1.38977e-07 0)
(0.99999 -1.36538e-07 0)
(0.999991 -1.34123e-07 0)
(0.999991 -1.3173e-07 0)
(0.999991 -1.2936e-07 0)
(0.999991 -1.27012e-07 0)
(0.999991 -1.24686e-07 0)
(0.999991 -1.22382e-07 0)
(0.999991 -1.20098e-07 0)
(0.999991 -1.17834e-07 0)
(0.999991 -1.15591e-07 0)
(0.999991 -1.13367e-07 0)
(0.999991 -1.11162e-07 0)
(0.999991 -1.08976e-07 0)
(0.999991 -1.06808e-07 0)
(0.999992 -1.04657e-07 0)
(0.999992 -1.02525e-07 0)
(0.999992 -1.00409e-07 0)
(0.999992 -9.83099e-08 0)
(0.999992 -9.62274e-08 0)
(0.999992 -9.4161e-08 0)
(0.999992 -9.21102e-08 0)
(0.999992 -9.00747e-08 0)
(0.999992 -8.8054e-08 0)
(0.999992 -8.60478e-08 0)
(0.999992 -8.40558e-08 0)
(0.999992 -8.20776e-08 0)
(0.999992 -8.01129e-08 0)
(0.999992 -7.81614e-08 0)
(0.999992 -7.62228e-08 0)
(0.999992 -7.42969e-08 0)
(0.999992 -7.23831e-08 0)
(0.999993 -7.04812e-08 0)
(0.999993 -6.85909e-08 0)
(0.999993 -6.67118e-08 0)
(0.999993 -6.48436e-08 0)
(0.999993 -6.2986e-08 0)
(0.999993 -6.11389e-08 0)
(0.999993 -5.93018e-08 0)
(0.999993 -5.74746e-08 0)
(0.999993 -5.56569e-08 0)
(0.999993 -5.38484e-08 0)
(0.999993 -5.20487e-08 0)
(0.999993 -5.02576e-08 0)
(0.999993 -4.84746e-08 0)
(0.999993 -4.66996e-08 0)
(0.999993 -4.49323e-08 0)
(0.999993 -4.31723e-08 0)
(0.999993 -4.14195e-08 0)
(0.999993 -3.96734e-08 0)
(0.999993 -3.7934e-08 0)
(0.999993 -3.62008e-08 0)
(0.999993 -3.44738e-08 0)
(0.999993 -3.27527e-08 0)
(0.999993 -3.10372e-08 0)
(0.999993 -2.93267e-08 0)
(0.999993 -2.76223e-08 0)
(0.999993 -2.59183e-08 0)
(0.999993 -2.42362e-08 0)
(0.999993 -2.24851e-08 0)
(0.999993 -2.10459e-08 0)
(0.999993 -1.83138e-08 0)
(0.021013 -0.04778 0)
(0.0235064 -0.098534 0)
(0.0833811 -0.102587 0)
(0.122327 -0.0938783 0)
(0.155181 -0.0873793 0)
(0.189441 -0.0844229 0)
(0.223841 -0.0831584 0)
(0.257193 -0.0821096 0)
(0.289826 -0.080712 0)
(0.321932 -0.0789541 0)
(0.353318 -0.0769548 0)
(0.383827 -0.0747888 0)
(0.413408 -0.0724892 0)
(0.442026 -0.0700788 0)
(0.469638 -0.0675816 0)
(0.496213 -0.0650226 0)
(0.521733 -0.0624267 0)
(0.546189 -0.0598173 0)
(0.569584 -0.0572156 0)
(0.591926 -0.05464 0)
(0.613231 -0.0521064 0)
(0.633522 -0.0496279 0)
(0.652825 -0.0472151 0)
(0.671169 -0.0448762 0)
(0.688589 -0.0426175 0)
(0.705119 -0.0404432 0)
(0.720793 -0.0383561 0)
(0.73565 -0.0363575 0)
(0.749724 -0.0344477 0)
(0.763054 -0.0326262 0)
(0.775673 -0.0308914 0)
(0.787617 -0.0292416 0)
(0.798921 -0.0276744 0)
(0.809616 -0.026187 0)
(0.819734 -0.0247767 0)
(0.829306 -0.0234402 0)
(0.838361 -0.0221746 0)
(0.846926 -0.0209766 0)
(0.855028 -0.0198431 0)
(0.862691 -0.018771 0)
(0.869941 -0.0177572 0)
(0.876799 -0.0167987 0)
(0.883286 -0.0158928 0)
(0.889424 -0.0150365 0)
(0.895232 -0.0142273 0)
(0.900727 -0.0134626 0)
(0.905927 -0.0127399 0)
(0.910848 -0.0120571 0)
(0.915505 -0.0114118 0)
(0.919914 -0.0108021 0)
(0.924087 -0.0102258 0)
(0.928038 -0.00968122 0)
(0.931778 -0.00916651 0)
(0.93532 -0.00868001 0)
(0.938675 -0.00822013 0)
(0.941851 -0.00778537 0)
(0.94486 -0.00737431 0)
(0.947711 -0.0069856 0)
(0.950411 -0.00661798 0)
(0.952969 -0.00627023 0)
(0.955393 -0.00594123 0)
(0.95769 -0.0056299 0)
(0.959867 -0.00533523 0)
(0.96193 -0.00505627 0)
(0.963886 -0.00479212 0)
(0.965739 -0.00454193 0)
(0.967495 -0.00430491 0)
(0.96916 -0.00408032 0)
(0.970739 -0.00386745 0)
(0.972234 -0.00366566 0)
(0.973652 -0.00347434 0)
(0.974996 -0.00329292 0)
(0.97627 -0.00312087 0)
(0.977477 -0.0029577 0)
(0.97862 -0.00280295 0)
(0.979704 -0.00265618 0)
(0.980732 -0.00251699 0)
(0.981705 -0.002385 0)
(0.982627 -0.00225985 0)
(0.983501 -0.00214119 0)
(0.984329 -0.0020287 0)
(0.985113 -0.00192207 0)
(0.985857 -0.00182101 0)
(0.986561 -0.00172523 0)
(0.987228 -0.00163446 0)
(0.98786 -0.00154846 0)
(0.988458 -0.00146696 0)
(0.989025 -0.00138976 0)
(0.989563 -0.00131662 0)
(0.990072 -0.00124734 0)
(0.990554 -0.00118173 0)
(0.991011 -0.00111959 0)
(0.991444 -0.00106075 0)
(0.991854 -0.00100505 0)
(0.992242 -0.000952315 0)
(0.99261 -0.000902407 0)
(0.992959 -0.000855177 0)
(0.99329 -0.000810488 0)
(0.993603 -0.000768209 0)
(0.9939 -0.000728213 0)
(0.994182 -0.000690381 0)
(0.994449 -0.000654597 0)
(0.994702 -0.000620752 0)
(0.994942 -0.00058874 0)
(0.99517 -0.000558462 0)
(0.995386 -0.000529821 0)
(0.995591 -0.000502727 0)
(0.995785 -0.000477094 0)
(0.99597 -0.00045284 0)
(0.996145 -0.000429888 0)
(0.996312 -0.000408165 0)
(0.99647 -0.000387601 0)
(0.99662 -0.000368133 0)
(0.996762 -0.000349699 0)
(0.996898 -0.000332243 0)
(0.997027 -0.00031571 0)
(0.997149 -0.000300051 0)
(0.997265 -0.000285217 0)
(0.997376 -0.000271164 0)
(0.997481 -0.00025785 0)
(0.997581 -0.000245236 0)
(0.997676 -0.000233285 0)
(0.997766 -0.000221961 0)
(0.997852 -0.000211231 0)
(0.997934 -0.000201064 0)
(0.998012 -0.000191429 0)
(0.998086 -0.000182299 0)
(0.998157 -0.000173647 0)
(0.998224 -0.000165447 0)
(0.998289 -0.000157675 0)
(0.99835 -0.000150309 0)
(0.998408 -0.000143327 0)
(0.998464 -0.000136707 0)
(0.998517 -0.000130431 0)
(0.998567 -0.00012448 0)
(0.998616 -0.000118836 0)
(0.998662 -0.000113483 0)
(0.998706 -0.000108405 0)
(0.998748 -0.000103587 0)
(0.998789 -9.90153e-05 0)
(0.998827 -9.46758e-05 0)
(0.998864 -9.05562e-05 0)
(0.998899 -8.66447e-05 0)
(0.998933 -8.293e-05 0)
(0.998965 -7.94017e-05 0)
(0.998996 -7.60497e-05 0)
(0.999026 -7.28646e-05 0)
(0.999054 -6.98378e-05 0)
(0.999081 -6.69607e-05 0)
(0.999107 -6.42258e-05 0)
(0.999132 -6.16257e-05 0)
(0.999156 -5.91534e-05 0)
(0.999179 -5.68025e-05 0)
(0.999202 -5.4567e-05 0)
(0.999223 -5.24411e-05 0)
(0.999243 -5.04194e-05 0)
(0.999263 -4.8497e-05 0)
(0.999282 -4.66689e-05 0)
(0.9993 -4.49308e-05 0)
(0.999318 -4.32784e-05 0)
(0.999335 -4.17076e-05 0)
(0.999351 -4.02147e-05 0)
(0.999367 -3.87961e-05 0)
(0.999382 -3.74483e-05 0)
(0.999397 -3.6168e-05 0)
(0.999411 -3.49523e-05 0)
(0.999424 -3.3798e-05 0)
(0.999438 -3.27024e-05 0)
(0.999451 -3.16627e-05 0)
(0.999463 -3.06764e-05 0)
(0.999475 -2.97409e-05 0)
(0.999487 -2.88538e-05 0)
(0.999498 -2.80128e-05 0)
(0.999509 -2.72157e-05 0)
(0.99952 -2.64603e-05 0)
(0.99953 -2.57446e-05 0)
(0.99954 -2.50664e-05 0)
(0.99955 -2.44238e-05 0)
(0.99956 -2.3815e-05 0)
(0.999569 -2.32382e-05 0)
(0.999578 -2.26915e-05 0)
(0.999587 -2.21732e-05 0)
(0.999596 -2.16817e-05 0)
(0.999604 -2.12153e-05 0)
(0.999613 -2.07725e-05 0)
(0.999621 -2.03518e-05 0)
(0.999629 -1.99516e-05 0)
(0.999637 -1.95707e-05 0)
(0.999645 -1.92076e-05 0)
(0.999652 -1.88609e-05 0)
(0.99966 -1.85293e-05 0)
(0.999667 -1.82117e-05 0)
(0.999674 -1.79069e-05 0)
(0.999681 -1.76135e-05 0)
(0.999688 -1.73306e-05 0)
(0.999695 -1.7057e-05 0)
(0.999702 -1.67917e-05 0)
(0.999709 -1.65336e-05 0)
(0.999715 -1.62819e-05 0)
(0.999722 -1.60355e-05 0)
(0.999728 -1.57935e-05 0)
(0.999734 -1.55552e-05 0)
(0.99974 -1.53198e-05 0)
(0.999747 -1.50863e-05 0)
(0.999753 -1.48543e-05 0)
(0.999758 -1.46229e-05 0)
(0.999764 -1.43917e-05 0)
(0.99977 -1.416e-05 0)
(0.999776 -1.39274e-05 0)
(0.999781 -1.36935e-05 0)
(0.999787 -1.3458e-05 0)
(0.999792 -1.32205e-05 0)
(0.999797 -1.29809e-05 0)
(0.999802 -1.2739e-05 0)
(0.999807 -1.24948e-05 0)
(0.999812 -1.22484e-05 0)
(0.999817 -1.19997e-05 0)
(0.999822 -1.17489e-05 0)
(0.999827 -1.14962e-05 0)
(0.999831 -1.12419e-05 0)
(0.999836 -1.09863e-05 0)
(0.99984 -1.07298e-05 0)
(0.999844 -1.04727e-05 0)
(0.999848 -1.02156e-05 0)
(0.999852 -9.95896e-06 0)
(0.999856 -9.70328e-06 0)
(0.99986 -9.44911e-06 0)
(0.999864 -9.19701e-06 0)
(0.999867 -8.94751e-06 0)
(0.999871 -8.70116e-06 0)
(0.999874 -8.45841e-06 0)
(0.999878 -8.21968e-06 0)
(0.999881 -7.98531e-06 0)
(0.999884 -7.75551e-06 0)
(0.999887 -7.5304e-06 0)
(0.99989 -7.30996e-06 0)
(0.999893 -7.09408e-06 0)
(0.999896 -6.88255e-06 0)
(0.999898 -6.6751e-06 0)
(0.999901 -6.47148e-06 0)
(0.999904 -6.27145e-06 0)
(0.999906 -6.07489e-06 0)
(0.999908 -5.88182e-06 0)