/*--------------------------------*- C++ -*----------------------------------*\
| =========                 |                                                 |
| \\      /  F ield         | OpenFOAM: The Open Source CFD Toolbox           |
|  \\    /   O peration     | Version:  v2006                                 |
|   \\  /    A nd           | Website:  www.openfoam.com                      |
|    \\/     M anipulation  |                                                 |
\*---------------------------------------------------------------------------*/
FoamFile
{
    version     2.0;
    format      ascii;
    class       surfaceScalarField;
    location    "1.5";
    object      phi;
}
// * * * * * * * * * * * * * * * * * * * * * * * * * * * * * * * * * * * * * //

dimensions      [0 3 -1 0 0 0 0];
oriented        oriented;


internalField   nonuniform List<scalar> 
99450
(
4.68955e-06
-4.68955e-06
2.09548e-05
-1.62652e-05
2.49134e-05
-3.95862e-06
3.97578e-05
-1.48445e-05
4.25441e-05
-2.78623e-06
5.60288e-05
-1.34848e-05
5.80856e-05
-2.05673e-06
6.90877e-05
-1.10021e-05
7.0664e-05
-1.57628e-06
7.81579e-05
-7.49394e-06
7.9576e-05
-1.41809e-06
8.25469e-05
-2.97097e-06
8.33961e-05
-8.49129e-07
8.28641e-05
5.31928e-07
8.14246e-05
1.43954e-06
7.83366e-05
3.08802e-06
7.38299e-05
4.50668e-06
6.77497e-05
6.08021e-06
6.01179e-05
7.63182e-06
5.0879e-05
9.23885e-06
4.00213e-05
1.08578e-05
2.74848e-05
1.25365e-05
1.32615e-05
1.42233e-05
-2.58424e-06
1.58457e-05
-2.01488e-05
1.75646e-05
-3.94215e-05
1.92727e-05
-6.0387e-05
2.09654e-05
-8.30246e-05
2.26377e-05
-0.000107311
2.42868e-05
-0.00013322
2.59083e-05
-0.000160716
2.74965e-05
-0.000189762
2.9046e-05
-0.000220315
3.05525e-05
-0.000252328
3.20133e-05
-0.000285755
3.34273e-05
-0.000320551
3.47953e-05
-0.000356671
3.61205e-05
-0.000394078
3.7407e-05
-0.000432738
3.86597e-05
-0.00047262
3.9882e-05
-0.000513695
4.10753e-05
-0.000555935
4.22396e-05
-0.00059931
4.33749e-05
-0.000643791
4.44818e-05
-0.000689352
4.55601e-05
-0.000735959
4.66075e-05
-0.00078358
4.7621e-05
-0.000832177
4.85965e-05
-0.000881707
4.95303e-05
-0.000932126
5.04191e-05
-0.000983385
5.12594e-05
-0.00103543
5.20475e-05
-0.00108821
5.27798e-05
-0.00114167
5.34529e-05
-0.00119573
5.40639e-05
-0.00125034
5.46096e-05
-0.00130543
5.50875e-05
-0.00136092
5.5495e-05
-0.00141675
5.58301e-05
-0.00147284
5.60907e-05
-0.00152912
5.62749e-05
-0.0015855
5.6381e-05
-0.00164191
5.64074e-05
-0.00169826
5.63526e-05
-0.00175447
5.62155e-05
-0.00181047
5.59951e-05
-0.00186616
5.56904e-05
-0.00192146
5.53004e-05
-0.00197628
5.48241e-05
-0.00203054
5.42606e-05
-0.00208415
5.36088e-05
-0.00213702
5.28685e-05
-0.00218906
5.20421e-05
-0.0022402
5.1136e-05
-0.00229036
5.01601e-05
-0.00233949
4.91255e-05
-0.00238753
4.80403e-05
-0.00243443
4.69065e-05
-0.00248015
4.57207e-05
-0.00252463
4.44766e-05
-0.0025678
4.31682e-05
-0.00260959
4.17923e-05
-0.00264994
4.03473e-05
-0.00268877
3.88329e-05
-0.00272602
3.72486e-05
-0.00276161
3.55937e-05
-0.00279548
3.38671e-05
-0.00282755
3.20678e-05
-0.00285774
3.01953e-05
-0.00288599
2.82487e-05
-0.00291222
2.62268e-05
-0.00293635
2.41279e-05
-0.0029583
2.19492e-05
-0.00297798
1.96868e-05
-0.00299532
1.73363e-05
-0.00301021
1.48935e-05
-0.00302257
1.2356e-05
-0.00303229
9.7254e-06
-0.0030393
7.00998e-06
-0.00304352
4.21575e-06
-0.00304488
1.36091e-06
-0.00304346
-1.4177e-06
-0.00303931
-4.15102e-06
-0.00303245
-6.85708e-06
-0.00302288
-9.57409e-06
-0.00301056
-1.2317e-05
-0.00299547
-1.50897e-05
-0.00297758
-1.78916e-05
-0.00295686
-2.07202e-05
-0.00293329
-2.35716e-05
-0.00290685
-2.64408e-05
-0.00287753
-2.93227e-05
-0.00284531
-3.22121e-05
-0.00281021
-3.51035e-05
-0.00277222
-3.79911e-05
-0.00273135
-4.08698e-05
-0.00268762
-4.37343e-05
-0.00264104
-4.65804e-05
-0.00259163
-4.94042e-05
-0.00253943
-5.21994e-05
-0.00248447
-5.49585e-05
-0.0024268
-5.76754e-05
-0.00236645
-6.03461e-05
-0.00230348
-6.29673e-05
-0.00223795
-6.55356e-05
-0.0021699
-6.80461e-05
-0.00209941
-7.04941e-05
-0.00202653
-7.28751e-05
-0.00195135
-7.51841e-05
-0.00187393
-7.74231e-05
-0.00179435
-7.95791e-05
-0.00171272
-8.16291e-05
-0.00162909
-8.36259e-05
-0.00154351
-8.55814e-05
-0.00145618
-8.73331e-05
-0.00136717
-8.90063e-05
-0.00127639
-9.07773e-05
-0.00118431
-9.20801e-05
-0.00109078
-9.35308e-05
-0.000995702
-9.50811e-05
-0.000900348
-9.53541e-05
-0.000802302
-9.80465e-05
-0.00070538
-9.69211e-05
-0.000604953
-0.000100427
-0.000505742
-9.92116e-05
-0.000404113
-0.000101628
-0.000303002
-0.000101111
-0.000198018
-0.000104984
-9.82562e-05
-9.97614e-05
-9.82562e-05
-2.28053e-06
-2.40902e-06
-4.66432e-06
-1.38814e-05
-4.48383e-06
-4.13911e-06
-8.82596e-06
-1.05023e-05
-1.05475e-05
-1.06465e-06
-1.32046e-05
-1.08277e-05
-1.72023e-05
1.94094e-06
-1.84372e-05
-9.76714e-06
-2.45785e-05
4.565e-06
-2.53475e-05
-6.72498e-06
-3.31425e-05
6.37694e-06
-3.47276e-05
-1.38581e-06
-4.32048e-05
7.62804e-06
-4.72274e-05
4.55455e-06
-5.44764e-05
8.68852e-06
-6.18208e-05
1.04324e-05
-7.00362e-05
1.2722e-05
-7.90095e-05
1.50536e-05
-8.8854e-05
1.74763e-05
-9.96067e-05
1.99915e-05
-0.000111334
2.25846e-05
-0.000124055
2.52582e-05
-0.000137827
2.79945e-05
-0.000152761
3.07799e-05
-0.00016883
3.36337e-05
-0.000186096
3.65388e-05
-0.000204615
3.94842e-05
-0.000224439
4.24617e-05
-0.000245616
4.5464e-05
-0.00026819
4.84822e-05
-0.000292202
5.15087e-05
-0.000317692
5.45359e-05
-0.000344696
5.75568e-05
-0.000373247
6.05645e-05
-0.000403372
6.35524e-05
-0.000435091
6.65139e-05
-0.000468414
6.94432e-05
-0.000503341
7.23344e-05
-0.000539863
7.51814e-05
-0.000577958
7.79775e-05
-0.000617598
8.07153e-05
-0.000658747
8.33878e-05
-0.00070136
8.59882e-05
-0.000745387
8.85095e-05
-0.000790772
9.09445e-05
-0.00083745
9.32857e-05
-0.000885355
9.55262e-05
-0.000934418
9.76592e-05
-0.000984565
9.9678e-05
-0.00103572
0.000101576
-0.00108781
0.000103347
-0.00114075
0.000104986
-0.00119446
0.000106487
-0.00124885
0.000107843
-0.00130383
0.000109051
-0.00135933
0.000110107
-0.00141525
0.000111005
-0.00147149
0.000111742
-0.00152798
0.000112314
-0.00158461
0.000112718
-0.00164128
0.000112952
-0.00169791
0.000113012
-0.0017544
0.000112897
-0.00181066
0.000112606
-0.00186658
0.000112136
-0.00192207
0.000111486
-0.00197704
0.000110657
-0.00203138
0.000109647
-0.00208502
0.000108457
-0.00213784
0.000107087
-0.00218977
0.000105538
-0.00224071
0.000103811
-0.00229058
0.000101908
-0.00233928
9.98319e-05
-0.0023867
9.7584e-05
-0.00243274
9.51675e-05
-0.00247729
9.25848e-05
-0.00252022
8.98387e-05
-0.00256143
8.6932e-05
-0.00260082
8.38685e-05
-0.00263831
8.06516e-05
-0.0026738
7.72861e-05
-0.00270723
7.37763e-05
-0.00273852
7.01264e-05
-0.00276761
6.63416e-05
-0.00279445
6.24269e-05
-0.00281897
5.83871e-05
-0.00284113
5.42271e-05
-0.00286088
4.9953e-05
-0.00287821
4.55713e-05
-0.00289307
4.10881e-05
-0.00290545
3.65096e-05
-0.00291534
3.18425e-05
-0.00292275
2.70943e-05
-0.00292769
2.22724e-05
-0.00293018
1.73849e-05
-0.00293026
1.24415e-05
-0.002928
7.45675e-06
-0.00292347
2.48488e-06
-0.00291651
-2.74076e-06
-0.00290724
-7.91236e-06
-0.0028956
-1.30569e-05
-0.00288147
-1.82822e-05
-0.00286477
-2.35573e-05
-0.00284549
-2.88569e-05
-0.00282363
-3.41696e-05
-0.00279924
-3.94879e-05
-0.00277232
-4.48055e-05
-0.00274293
-5.01168e-05
-0.00271108
-5.54161e-05
-0.00267683
-6.06968e-05
-0.0026402
-6.59522e-05
-0.00260123
-7.11759e-05
-0.00255997
-7.63614e-05
-0.00251646
-8.15025e-05
-0.00247074
-8.65927e-05
-0.00242285
-9.16242e-05
-0.00237284
-9.65906e-05
-0.00232076
-0.000101486
-0.00226665
-0.000106306
-0.00221057
-0.000111041
-0.00215256
-0.000115683
-0.00209268
-0.000120226
-0.00203098
-0.000124665
-0.00196752
-0.000128994
-0.00190236
-0.00013321
-0.00183555
-0.0001373
-0.00176717
-0.000141258
-0.00169727
-0.000145087
-0.00162591
-0.000148779
-0.00155318
-0.000152311
-0.00147912
-0.000155692
-0.00140378
-0.000158962
-0.0013273
-0.000162059
-0.00124972
-0.000164914
-0.00117101
-0.000167715
-0.00109134
-0.000170455
-0.00101078
-0.000172635
-0.000929209
-0.000175102
-0.000847219
-0.000177072
-0.00076376
-0.000178813
-0.000680866
-0.000180941
-0.000596011
-0.000181776
-0.000512526
-0.000183912
-0.000427526
-0.000184211
-0.000343498
-0.000185657
-0.000258714
-0.000185895
-0.000175157
-0.000188542
-7.99712e-05
-0.000194947
-0.000178227
7.84203e-07
-3.19322e-06
2.41848e-06
-1.55157e-05
6.33234e-06
-8.05297e-06
4.29653e-06
-8.46651e-06
8.5191e-06
-5.28723e-06
5.43027e-06
-7.73889e-06
9.37674e-06
-2.00554e-06
5.19781e-06
-5.58821e-06
8.50857e-06
1.25425e-06
3.79808e-06
-2.01449e-06
5.85397e-06
4.32104e-06
8.13457e-07
3.65471e-06
6.53392e-07
7.78811e-06
-4.11842e-06
9.32636e-06
-8.92605e-06
1.34962e-05
-1.3886e-05
1.53924e-05
-2.03129e-05
1.91489e-05
-2.76763e-05
2.24169e-05
-3.61301e-05
2.59301e-05
-4.5706e-05
2.95674e-05
-5.64575e-05
3.33362e-05
-6.84256e-05
3.72263e-05
-8.16603e-05
4.12292e-05
-9.62172e-05
4.53368e-05
-0.000112127
4.95434e-05
-0.000129426
5.38378e-05
-0.000148149
5.82077e-05
-0.000168329
6.26414e-05
-0.000189993
6.71282e-05
-0.000213169
7.16574e-05
-0.000237877
7.62167e-05
-0.000264134
8.07934e-05
-0.000291953
8.53757e-05
-0.000321341
8.99521e-05
-0.000352299
9.45105e-05
-0.000384824
9.90389e-05
-0.000418905
0.000103525
-0.000454525
0.000107954
-0.00049166
0.000112316
-0.000530279
0.000116597
-0.000570349
0.000120786
-0.000611834
0.000124872
-0.00065469
0.000128845
-0.000698871
0.000132691
-0.000744326
0.0001364
-0.000791003
0.000139962
-0.000838843
0.000143367
-0.000887789
0.000146604
-0.000937776
0.000149666
-0.000988741
0.00015254
-0.00104061
0.000155221
-0.00109332
0.000157697
-0.0011468
0.000159962
-0.00120097
0.000162009
-0.00125575
0.00016383
-0.00131106
0.000165419
-0.00136682
0.000166768
-0.00142295
0.000167872
-0.00147936
0.000168727
-0.00153597
0.000169329
-0.00159269
0.000169672
-0.00164944
0.000169754
-0.00170611
0.000169572
-0.00176263
0.000169123
-0.0018189
0.000168406
-0.00187483
0.000167419
-0.00193034
0.000166162
-0.00198533
0.000164635
-0.00203971
0.000162837
-0.00209339
0.000160772
-0.00214629
0.000158439
-0.00219832
0.000155842
-0.00224939
0.000152982
-0.00229943
0.000149863
-0.00234833
0.000146486
-0.00239601
0.000142852
-0.00244239
0.000138966
-0.00248739
0.000134834
-0.00253092
0.00013046
-0.0025729
0.000125853
-0.00261327
0.000121019
-0.00265195
0.000115965
-0.00268887
0.000110696
-0.00272396
0.00010522
-0.00275716
9.95423e-05
-0.00278841
9.36705e-05
-0.00281763
8.76113e-05
-0.00284478
8.13731e-05
-0.00286979
7.49618e-05
-0.0028926
6.83854e-05
-0.00291316
6.16509e-05
-0.00293142
5.47662e-05
-0.00294732
4.77394e-05
-0.0029608
4.05793e-05
-0.00297182
3.32943e-05
-0.00298033
2.58939e-05
-0.00298628
1.83876e-05
-0.0029896
1.07768e-05
-0.00299012
3.00178e-06
-0.00298823
-4.62212e-06
-0.00298367
-1.24742e-05
-0.00297633
-2.03982e-05
-0.00296625
-2.83626e-05
-0.00295344
-3.6364e-05
-0.00293791
-4.43942e-05
-0.00291963
-5.24427e-05
-0.00289862
-6.04985e-05
-0.00287488
-6.85502e-05
-0.00284841
-7.65871e-05
-0.00281923
-8.45985e-05
-0.00278735
-9.25734e-05
-0.0027528
-0.000100501
-0.00271561
-0.00010837
-0.0026758
-0.000116169
-0.00263341
-0.00012389
-0.00258848
-0.00013152
-0.00254106
-0.000139051
-0.00249118
-0.00014647
-0.0024389
-0.000153768
-0.00238427
-0.000160934
-0.00232735
-0.000167959
-0.0022682
-0.000174834
-0.00220688
-0.000181548
-0.00214345
-0.000188093
-0.00207798
-0.000194461
-0.00201055
-0.000200646
-0.00194121
-0.000206638
-0.00187004
-0.00021243
-0.00179711
-0.000218015
-0.00172251
-0.000223383
-0.00164629
-0.000228528
-0.00156853
-0.000233456
-0.00148932
-0.000238166
-0.00140876
-0.000242618
-0.00132686
-0.000246811
-0.00124378
-0.000250797
-0.00115971
-0.000254527
-0.00107438
-0.000257966
-0.00098831
-0.000261172
-0.00090118
-0.000264202
-0.000813257
-0.000266735
-0.000724779
-0.00026942
-0.00063535
-0.000271205
-0.000545842
-0.00027342
-0.000455541
-0.000274512
-0.000365335
-0.000275863
-0.000274509
-0.00027672
-0.000183503
-0.000279548
-8.53152e-05
-0.000293135
-0.000263543
1.68844e-06
-4.88166e-06
7.30533e-06
-2.11326e-05
1.1273e-05
-1.20207e-05
1.38425e-05
-1.1036e-05
1.80711e-05
-9.5158e-06
1.94806e-05
-9.14846e-06
2.3522e-05
-6.04688e-06
2.37791e-05
-5.84532e-06
2.68564e-05
-1.82308e-06
2.57472e-05
-9.053e-07
2.62821e-05
3.7862e-06
2.48877e-05
5.04908e-06
2.28666e-05
9.80922e-06
1.98357e-05
1.23573e-05
1.64848e-05
1.6847e-05
1.13045e-05
2.05726e-05
5.55247e-06
2.4901e-05
-1.40653e-06
2.93759e-05
-9.60879e-06
3.41324e-05
-1.90533e-05
3.90119e-05
-2.97935e-05
4.40764e-05
-4.18662e-05
4.9299e-05
-5.53123e-05
5.46753e-05
-7.01688e-05
6.01934e-05
-8.64666e-05
6.58413e-05
-0.000104232
7.16033e-05
-0.00012349
7.74658e-05
-0.000144264
8.34152e-05
-0.000166572
8.94359e-05
-0.000190425
9.55102e-05
-0.00021583
0.000101623
-0.000242795
0.000107758
-0.00027132
0.000113901
-0.000301404
0.000120035
-0.000333037
0.000126144
-0.000366209
0.000132211
-0.000400904
0.000138219
-0.000437102
0.000144153
-0.000474783
0.000149997
-0.000513921
0.000155734
-0.000554484
0.000161349
-0.000596439
0.000166827
-0.000639745
0.000172151
-0.000684363
0.000177308
-0.000730247
0.000182284
-0.000777347
0.000187062
-0.000825612
0.000191631
-0.000874984
0.000195976
-0.000925403
0.000200085
-0.000976807
0.000203945
-0.00102913
0.000207544
-0.0010823
0.000210871
-0.00113626
0.000213916
-0.00119092
0.000216666
-0.0012462
0.000219115
-0.00130203
0.000221252
-0.00135833
0.000223069
-0.00141502
0.00022456
-0.00147201
0.000225717
-0.00152922
0.000226533
-0.00158655
0.000227004
-0.00164392
0.000227124
-0.00170124
0.000226891
-0.00175841
0.000226301
-0.00181536
0.000225351
-0.00187198
0.00022404
-0.00192818
0.000222368
-0.00198388
0.000220333
-0.00203898
0.000217936
-0.00209339
0.000215178
-0.00214701
0.000212062
-0.00219976
0.00020859
-0.00225154
0.000204765
-0.00230227
0.000200592
-0.00235186
0.000196073
-0.00240022
0.000191215
-0.00244728
0.000186022
-0.00249294
0.000180501
-0.00253714
0.000174659
-0.00257979
0.000168503
-0.00262081
0.000162041
-0.00266013
0.000155283
-0.00269767
0.000148234
-0.00273335
0.000140905
-0.00276712
0.000133307
-0.00279889
0.000125446
-0.00282862
0.000117334
-0.00285622
0.00010898
-0.00288166
0.000100395
-0.00290486
9.15891e-05
-0.00292578
8.25733e-05
-0.00294438
7.33608e-05
-0.0029606
6.39616e-05
-0.00297441
5.43882e-05
-0.00298577
4.46526e-05
-0.00299464
3.4767e-05
-0.003001
2.47431e-05
-0.00300482
1.46e-05
-0.00300622
4.40032e-06
-0.00300475
-6.0915e-06
-0.00300068
-1.65441e-05
-0.00299401
-2.70703e-05
-0.0029847
-3.76719e-05
-0.00297273
-4.83298e-05
-0.0029581
-5.90274e-05
-0.00294079
-6.97498e-05
-0.00292081
-8.04826e-05
-0.00289815
-9.12116e-05
-0.00287281
-0.000101923
-0.00284481
-0.000112602
-0.00281415
-0.000123234
-0.00278084
-0.000133806
-0.00274491
-0.000144303
-0.00270636
-0.000154712
-0.00266524
-0.000165018
-0.00262155
-0.000175207
-0.00257534
-0.000185264
-0.00252663
-0.000195177
-0.00247547
-0.000204932
-0.00242188
-0.000214519
-0.00236592
-0.000223922
-0.00230762
-0.000233129
-0.00224704
-0.000242129
-0.00218423
-0.000250908
-0.00211923
-0.000259455
-0.00205212
-0.000267759
-0.00198295
-0.000275808
-0.00191179
-0.000283593
-0.0018387
-0.000291105
-0.00176375
-0.000298332
-0.00168701
-0.000305266
-0.00160856
-0.000311902
-0.0015285
-0.000318228
-0.00144689
-0.00032423
-0.00136378
-0.000329919
-0.00127929
-0.000335287
-0.00119351
-0.000340307
-0.00110647
-0.00034501
-0.00101833
-0.000349315
-0.000929133
-0.000353394
-0.000838967
-0.000356902
-0.00074805
-0.000360337
-0.000656129
-0.000363125
-0.000563914
-0.000365635
-0.000470381
-0.000368046
-0.000377274
-0.00036897
-0.000282574
-0.000371419
-0.000187392
-0.00037473
-8.8949e-05
-0.000391578
-0.000352492
2.27014e-06
-7.15181e-06
8.96258e-06
-2.7825e-05
1.36983e-05
-1.67565e-05
1.71436e-05
-1.44813e-05
2.16478e-05
-1.40199e-05
2.40966e-05
-1.15973e-05
2.79132e-05
-9.86348e-06
2.92012e-05
-7.13328e-06
3.16619e-05
-4.28375e-06
3.19575e-05
-1.20091e-06
3.31131e-05
2.63055e-06
3.18728e-05
6.2894e-06
3.10261e-05
1.0656e-05
2.82419e-05
1.51414e-05
2.51366e-05
1.99524e-05
2.05716e-05
2.51376e-05
1.50171e-05
3.04555e-05
8.25964e-06
3.61334e-05
3.97836e-07
4.19942e-05
-8.77883e-06
4.81886e-05
-1.93239e-05
5.46215e-05
-3.12192e-05
6.11943e-05
-4.45081e-05
6.79641e-05
-5.92293e-05
7.49146e-05
-7.54133e-05
8.20253e-05
-9.30886e-05
8.92786e-05
-0.000112279
9.66562e-05
-0.000133004
0.00010414
-0.000155279
0.000111711
-0.000179119
0.000119351
-0.000204535
0.000127039
-0.000231534
0.000134756
-0.000260114
0.000142482
-0.000290275
0.000150196
-0.000322008
0.000157878
-0.000355306
0.000165509
-0.000390155
0.000173068
-0.000426536
0.000180534
-0.000464427
0.000187888
-0.000503801
0.000195108
-0.000544627
0.000202176
-0.000586873
0.000209073
-0.000630501
0.000215779
-0.000675468
0.000222276
-0.000721728
0.000228544
-0.000769231
0.000234565
-0.000817923
0.000240323
-0.000867747
0.0002458
-0.000918643
0.000250981
-0.000970546
0.000255849
-0.00102339
0.000260389
-0.00107711
0.000264586
-0.00113162
0.000268429
-0.00118686
0.000271903
-0.00124274
0.000274997
-0.00129918
0.000277699
-0.00135611
0.000279998
-0.00141344
0.000281886
-0.00147108
0.000283354
-0.00152894
0.000284394
-0.00158693
0.000284999
-0.00164498
0.000285165
-0.00170297
0.000284886
-0.00176083
0.000284158
-0.00181845
0.000282977
-0.00187576
0.000281343
-0.00193264
0.000279254
-0.00198902
0.000276708
-0.00204479
0.000273708
-0.00209987
0.000270256
-0.00215416
0.000266352
-0.00220757
0.000262001
-0.00226001
0.000257207
-0.00231139
0.000251973
-0.00236162
0.000246306
-0.00241062
0.000240212
-0.0024583
0.000233698
-0.00250457
0.000226771
-0.00254935
0.00021944
-0.00259256
0.000211715
-0.00263412
0.000203604
-0.00267396
0.00019512
-0.002712
0.000186271
-0.00274816
0.000177071
-0.00278239
0.00016753
-0.0028146
0.000157661
-0.00284474
0.000147475
-0.00287275
0.000136985
-0.00289856
0.000126207
-0.00292212
0.000115151
-0.00294338
0.000103834
-0.00296229
9.22668e-05
-0.00297879
8.04686e-05
-0.00299285
6.84496e-05
-0.00300443
5.62275e-05
-0.00301348
4.38151e-05
-0.00301997
3.12389e-05
-0.00302387
1.84931e-05
-0.00302503
5.56851e-06
-0.00302377
-7.35538e-06
-0.00301982
-2.04968e-05
-0.00301316
-3.37239e-05
-0.00300381
-4.70207e-05
-0.00299177
-6.03758e-05
-0.00297702
-7.37744e-05
-0.00295957
-8.71999e-05
-0.00293942
-0.000100635
-0.00291657
-0.000114063
-0.00289102
-0.000127466
-0.0028628
-0.000140826
-0.00283191
-0.000154128
-0.00279836
-0.000167353
-0.00276218
-0.000180485
-0.00272338
-0.000193507
-0.002682
-0.000206402
-0.00263805
-0.000219152
-0.00259157
-0.000231743
-0.0025426
-0.000244156
-0.00249115
-0.000256375
-0.00243729
-0.000268383
-0.00238105
-0.000280164
-0.00232247
-0.000291706
-0.00226161
-0.000302992
-0.00219851
-0.000314008
-0.00213323
-0.000324736
-0.00206582
-0.000335166
-0.00199634
-0.000345283
-0.00192486
-0.000355076
-0.00185144
-0.000364526
-0.00177614
-0.000373628
-0.00169904
-0.000382368
-0.00162021
-0.000390738
-0.00153972
-0.000398717
-0.00145764
-0.000406309
-0.00137405
-0.000413505
-0.00128906
-0.000420279
-0.00120274
-0.00042663
-0.00111517
-0.000432574
-0.00102645
-0.000438039
-0.000936685
-0.000443158
-0.000845902
-0.000447685
-0.000754317
-0.000451921
-0.000661745
-0.000455698
-0.000568807
-0.000458574
-0.000474676
-0.000462177
-0.000380829
-0.000462817
-0.000285551
-0.000466698
-0.000189871
-0.00047041
-8.99181e-05
-0.000491531
-0.00044241
3.08451e-06
-1.02363e-05
1.00799e-05
-3.48204e-05
1.55182e-05
-2.21947e-05
1.94242e-05
-1.83873e-05
2.46507e-05
-1.92464e-05
2.75951e-05
-1.45418e-05
3.21385e-05
-1.44068e-05
3.39949e-05
-8.98967e-06
3.72948e-05
-7.58367e-06
3.80151e-05
-1.92119e-06
3.9702e-05
9.43622e-07
3.90256e-05
6.96575e-06
3.86469e-05
1.10347e-05
3.64965e-05
1.72919e-05
3.37933e-05
2.26556e-05
2.98259e-05
2.91049e-05
2.47476e-05
3.55338e-05
1.84931e-05
4.23879e-05
1.09371e-05
4.95501e-05
2.17457e-06
5.69511e-05
-7.87343e-06
6.46695e-05
-1.93636e-05
7.26845e-05
-3.2279e-05
8.08796e-05
-4.66612e-05
8.92968e-05
-6.25371e-05
9.79011e-05
-7.99348e-05
0.000106676
-9.88805e-05
0.000115602
-0.000119396
0.000124655
-0.000141499
0.000133815
-0.000165205
0.000143056
-0.000190523
0.000152357
-0.00021746
0.000161693
-0.00024602
0.000171041
-0.000276201
0.000180377
-0.000307999
0.000189676
-0.000341403
0.000198912
-0.000376397
0.000208063
-0.000412965
0.000217102
-0.000451084
0.000226007
-0.000490728
0.000234752
-0.000531867
0.000243314
-0.000574464
0.000251669
-0.000618479
0.000259794
-0.000663868
0.000267665
-0.000710586
0.000275262
-0.000758582
0.000282561
-0.000807801
0.000289542
-0.000858184
0.000296183
-0.00090967
0.000302466
-0.000962192
0.000308371
-0.00101568
0.000313879
-0.00107007
0.000318974
-0.00112528
0.000323639
-0.00118124
0.000327858
-0.00123786
0.000331618
-0.00129506
0.000334903
-0.00135276
0.000337702
-0.00141088
0.000340004
-0.00146933
0.000341798
-0.00152801
0.000343075
-0.00158684
0.000343827
-0.00164572
0.000344047
-0.00170456
0.000343728
-0.00176327
0.000342867
-0.00182175
0.000341459
-0.00187991
0.000339503
-0.00193765
0.000336997
-0.00199488
0.00033394
-0.00205151
0.000330333
-0.00210743
0.000326181
-0.00216256
0.000321481
-0.00221681
0.000316243
-0.00227007
0.000310468
-0.00232226
0.000304163
-0.00237328
0.000297334
-0.00242306
0.000289991
-0.0024715
0.000282139
-0.00251852
0.000273791
-0.00256404
0.000264954
-0.00260797
0.000255643
-0.00265023
0.000245866
-0.00269075
0.000235638
-0.00272945
0.00022497
-0.00276625
0.000213878
-0.0028011
0.000202373
-0.00283391
0.000190474
-0.00286463
0.000178192
-0.00289319
0.000165545
-0.00291953
0.000152548
-0.00294359
0.000139218
-0.00296533
0.000125571
-0.00298469
0.000111625
-0.00300162
9.73998e-05
-0.00301608
8.29118e-05
-0.00302803
6.81797e-05
-0.00303744
5.32199e-05
-0.00304426
3.80568e-05
-0.00304847
2.27041e-05
-0.00305011
7.21284e-06
-0.00304893
-8.5331e-06
-0.0030451
-2.43354e-05
-0.00303857
-4.02521e-05
-0.00302932
-5.62644e-05
-0.00301735
-7.23498e-05
-0.00300264
-8.84869e-05
-0.00298518
-0.000104655
-0.00296498
-0.000120834
-0.00294204
-0.000137002
-0.00291637
-0.00015314
-0.00288797
-0.000169226
-0.00285686
-0.00018524
-0.00282305
-0.000201161
-0.00278657
-0.00021697
-0.00274743
-0.000232645
-0.00270566
-0.000248167
-0.0026613
-0.000263516
-0.00261437
-0.000278671
-0.00256491
-0.000293613
-0.00251297
-0.000308323
-0.00245857
-0.000322783
-0.00240176
-0.000336972
-0.00234259
-0.000350874
-0.00228111
-0.000364469
-0.00221738
-0.000377741
-0.00215145
-0.000390671
-0.00208337
-0.000403243
-0.00201321
-0.000415443
-0.00194103
-0.00042725
-0.00186691
-0.000438655
-0.00179089
-0.000449641
-0.00171307
-0.000460193
-0.00163351
-0.000470298
-0.00155228
-0.000479942
-0.00146948
-0.000489115
-0.00138517
-0.00049781
-0.00129945
-0.000506002
-0.00121239
-0.000513691
-0.00112407
-0.000520895
-0.00103458
-0.000527523
-0.000944032
-0.000533708
-0.000852458
-0.000539258
-0.000760094
-0.000544285
-0.000666711
-0.000549081
-0.000573022
-0.000552263
-0.000478132
-0.000557067
-0.000383574
-0.000557374
-0.000287724
-0.000562549
-0.000191389
-0.000566744
-9.04551e-05
-0.000592465
-0.000532865
3.93096e-06
-1.41673e-05
1.17803e-05
-4.26698e-05
1.79815e-05
-2.83959e-05
2.27338e-05
-2.31396e-05
2.86228e-05
-2.51354e-05
3.25109e-05
-1.84299e-05
3.76387e-05
-1.95346e-05
4.04759e-05
-1.18269e-05
4.43435e-05
-1.14512e-05
4.6015e-05
-3.59275e-06
4.81797e-05
-1.22103e-06
4.85333e-05
6.61209e-06
4.86221e-05
1.0946e-05
4.7353e-05
1.85609e-05
4.52051e-05
2.48035e-05
4.19273e-05
3.23828e-05
3.74649e-05
3.99961e-05
3.17889e-05
4.8064e-05
2.48553e-05
5.64837e-05
1.65525e-05
6.5254e-05
6.93082e-06
7.42912e-05
-4.05031e-06
8.36656e-05
-1.65122e-05
9.33414e-05
-3.05152e-05
0.0001033
-4.60499e-05
0.000113436
-6.31453e-05
0.000123772
-8.18311e-05
0.000134288
-0.00010213
0.000144955
-0.000124062
0.000155746
-0.000147642
0.000166636
-0.000172882
0.000177597
-0.000199789
0.0001886
-0.000228366
0.000199618
-0.000258611
0.000210623
-0.00029052
0.000221585
-0.000324082
0.000232475
-0.000359284
0.000243264
-0.000396107
0.000253925
-0.000434527
0.000264427
-0.000474517
0.000274742
-0.000516045
0.000284842
-0.000559075
0.0002947
-0.000603569
0.000304288
-0.000649482
0.000313579
-0.000696766
0.000322545
-0.000745367
0.000331162
-0.000795229
0.000339404
-0.000846292
0.000347247
-0.000898493
0.000354668
-0.000951767
0.000361644
-0.00100604
0.000368155
-0.00106125
0.000374178
-0.0011173
0.000379695
-0.00117413
0.000384688
-0.00123165
0.000389139
-0.00128978
0.000393032
-0.00134843
0.000396353
-0.00140752
0.000399088
-0.00146694
0.000401225
-0.00152662
0.000402755
-0.00158646
0.000403666
-0.00164636
0.00040395
-0.00170624
0.000403601
-0.00176598
0.000402614
-0.00182551
0.000400984
-0.00188471
0.000398709
-0.0019435
0.000395786
-0.00200178
0.000392216
-0.00205945
0.000388
-0.00211641
0.000383141
-0.00217257
0.000377641
-0.00222783
0.000371506
-0.0022821
0.00036474
-0.00233529
0.000357351
-0.0023873
0.000349347
-0.00243805
0.000340738
-0.00248744
0.000331533
-0.0025354
0.000321744
-0.00258182
0.000311382
-0.00262664
0.00030046
-0.00266977
0.000288994
-0.00271113
0.000276995
-0.00275064
0.000264481
-0.00278823
0.000251469
-0.00282383
0.000237974
-0.00285737
0.000224014
-0.00288879
0.000209606
-0.00291801
0.000194769
-0.00294498
0.000179522
-0.00296965
0.000163884
-0.00299196
0.000147876
-0.00301185
0.000131518
-0.00302928
0.00011483
-0.0030442
9.78333e-05
-0.00305657
8.05526e-05
-0.00306636
6.30072e-05
-0.00307352
4.52209e-05
-0.00307804
2.72162e-05
-0.00307984
9.01264e-06
-0.00307898
-9.38403e-06
-0.00307539
-2.79278e-05
-0.00306905
-4.65964e-05
-0.00305994
-6.53699e-05
-0.00304807
-8.42254e-05
-0.00303341
-0.000103139
-0.00301598
-0.000122089
-0.00299576
-0.000141049
-0.00297277
-0.000159997
-0.002947
-0.000178908
-0.00291847
-0.000197758
-0.00288719
-0.000216523
-0.00285317
-0.000235179
-0.00281644
-0.000253704
-0.00277701
-0.000272073
-0.00273491
-0.000290262
-0.00269018
-0.000308248
-0.00264284
-0.00032601
-0.00259293
-0.000343523
-0.00254049
-0.000360765
-0.00248556
-0.000377714
-0.00242818
-0.000394348
-0.00236841
-0.000410646
-0.00230629
-0.000426586
-0.00224188
-0.000442148
-0.00217524
-0.000457313
-0.00210643
-0.00047206
-0.0020355
-0.000486371
-0.00196252
-0.000500228
-0.00188756
-0.000513611
-0.0018107
-0.000526503
-0.001732
-0.000538892
-0.00165154
-0.00055076
-0.0015694
-0.000562083
-0.00148566
-0.000572856
-0.00140039
-0.000583078
-0.00131369
-0.000592705
-0.00122564
-0.000601736
-0.00113634
-0.000610205
-0.00104585
-0.000618005
-0.000954316
-0.000625245
-0.000861727
-0.000631847
-0.000768353
-0.000637659
-0.000673973
-0.000643461
-0.000579227
-0.000647009
-0.000483374
-0.00065292
-0.000387743
-0.000653005
-0.000290904
-0.000659387
-0.000193502
-0.000664147
-9.12596e-05
-0.000694707
-0.000624124
4.92578e-06
-1.90931e-05
1.38372e-05
-5.15812e-05
2.09129e-05
-3.54716e-05
2.68043e-05
-2.9031e-05
3.34679e-05
-3.1799e-05
3.85464e-05
-2.35084e-05
4.43499e-05
-2.53381e-05
4.84186e-05
-1.58955e-05
5.29044e-05
-1.5937e-05
5.58071e-05
-6.4954e-06
5.85862e-05
-4.00015e-06
6.00256e-05
5.17263e-06
6.07847e-05
1.0187e-05
6.04281e-05
1.89175e-05
5.90154e-05
2.62162e-05
5.64714e-05
3.49268e-05
5.27669e-05
4.37006e-05
4.78074e-05
5.30234e-05
4.15109e-05
6.27802e-05
3.38541e-05
7.29108e-05
2.47634e-05
8.33819e-05
1.42219e-05
9.42071e-05
2.19801e-06
0.000105365
-1.12921e-05
0.00011679
-2.64339e-05
0.000128578
-4.31818e-05
0.00014052
-6.15808e-05
0.000152687
-8.16435e-05
0.000165017
-0.000103389
0.000177492
-0.000126835
0.000190082
-0.000151994
0.000202755
-0.000178874
0.00021548
-0.000207479
0.000228223
-0.000237807
0.000240951
-0.000269853
0.000253631
-0.000303607
0.000266229
-0.000339056
0.000278713
-0.00037618
0.000291048
-0.000414955
0.000303202
-0.000455355
0.000315141
-0.000497346
0.000326834
-0.000540893
0.000338247
-0.000585953
0.000349348
-0.000632481
0.000360106
-0.000680427
0.000370491
-0.000729738
0.000380473
-0.000780358
0.000390023
-0.000832225
0.000399113
-0.000885273
0.000407716
-0.000939433
0.000415805
-0.000994634
0.000423355
-0.0010508
0.000430344
-0.00110785
0.000436748
-0.00116571
0.000442547
-0.00122429
0.000447719
-0.00128351
0.000452249
-0.00134327
0.000456117
-0.00140349
0.000459309
-0.00146408
0.00046181
-0.00152493
0.000463609
-0.00158596
0.000464694
-0.00164707
0.000465056
-0.00170816
0.000464689
-0.00176913
0.000463583
-0.00182988
0.000461736
-0.00189031
0.000459145
-0.00195034
0.000455807
-0.00200984
0.000451723
-0.00206873
0.000446893
-0.00212691
0.00044132
-0.00218428
0.00043501
-0.00224074
0.000427966
-0.0022962
0.000420197
-0.00235056
0.000411709
-0.00240372
0.000402512
-0.0024556
0.000392618
-0.00250611
0.000382038
-0.00255515
0.000370785
-0.00260264
0.000358872
-0.00264849
0.000346315
-0.00269263
0.000333131
-0.00273497
0.000319334
-0.00277543
0.000304944
-0.00281394
0.00028998
-0.00285043
0.000274462
-0.00288482
0.000258406
-0.00291705
0.000241837
-0.00294706
0.000224776
-0.00297478
0.000207241
-0.00300015
0.000189258
-0.00302313
0.000170849
-0.00304365
0.000152038
-0.00306167
0.000132849
-0.00307714
0.000113306
-0.00309003
9.34394e-05
-0.00310028
7.32625e-05
-0.00310787
5.28117e-05
-0.00311277
3.21094e-05
-0.00311494
1.11834e-05
-0.00311435
-9.97196e-06
-0.003111
-3.12826e-05
-0.00310485
-5.27393e-05
-0.00309591
-7.43164e-05
-0.00308414
-9.59872e-05
-0.00306956
-0.000117724
-0.00305215
-0.000139501
-0.00303191
-0.000161289
-0.00300884
-0.000183061
-0.00298296
-0.000204791
-0.00295427
-0.000226451
-0.00292278
-0.000248012
-0.00288851
-0.000269449
-0.00285148
-0.000290734
-0.00281171
-0.00031184
-0.00276923
-0.000332741
-0.00272407
-0.00035341
-0.00267626
-0.00037382
-0.00262584
-0.000393945
-0.00257284
-0.000413761
-0.00251732
-0.00043324
-0.00245931
-0.000452359
-0.00239886
-0.000471093
-0.00233603
-0.000489418
-0.00227087
-0.000507311
-0.00220343
-0.000524748
-0.00213378
-0.000541707
-0.00206199
-0.000558166
-0.00198811
-0.000574103
-0.00191222
-0.000589499
-0.0018344
-0.000604332
-0.0017547
-0.000618586
-0.00167321
-0.000632246
-0.00159002
-0.000645279
-0.00150519
-0.000657678
-0.00141882
-0.000669449
-0.00133099
-0.000680534
-0.0012418
-0.000690934
-0.00115131
-0.000700694
-0.00105963
-0.000709678
-0.000966871
-0.000718009
-0.000873075
-0.000725643
-0.000778447