/*--------------------------------*- C++ -*----------------------------------*\
| =========                 |                                                 |
| \\      /  F ield         | OpenFOAM: The Open Source CFD Toolbox           |
|  \\    /   O peration     | Version:  v2006                                 |
|   \\  /    A nd           | Website:  www.openfoam.com                      |
|    \\/     M anipulation  |                                                 |
\*---------------------------------------------------------------------------*/
FoamFile
{
    version     2.0;
    format      ascii;
    class       volScalarField;
    location    "10.3";
    object      p;
}
// * * * * * * * * * * * * * * * * * * * * * * * * * * * * * * * * * * * * * //

dimensions      [1 -1 -2 0 0 0 0];


internalField   nonuniform List<scalar> 
150000
(
16811.6
16811.7
16812.1
16812.6
16813.3
16814.3
16815.4
16816.7
16818.1
16819.8
16821.6
16823.6
16825.7
16828
16830.5
16833.2
16836
16838.9
16842.1
16845.3
16848.7
16852.3
16856
16859.9
16863.8
16868
16872.2
16876.6
16881.1
16885.7
16890.5
16895.4
16900.4
16905.5
16910.8
16916.2
16921.7
16927.3
16933.1
16939
16945
16951.2
16957.5
16963.9
16970.5
16977.2
16984
16991
16998.1
17005.4
17012.8
17020.3
17028
17035.8
17043.7
17052
17060.3
17068.7
17077.3
17086
17094.9
17104
17113.2
17122.5
17132
17141.6
17151.4
17161.2
17171.2
17181.4
17191.6
17201.9
17212.4
17223
17233.7
17244.5
17255.4
17266.5
17277.6
17288.9
17300.2
17311.7
17323.2
17334.9
17346.6
17358.5
17370.4
17382.4
17394.5
17406.7
17419
17431.4
17443.9
17456.5
17469.2
17482
17495
17508
17521.2
17534.5
17548
17561.6
17575.4
17589.4
17603.5
17617.9
17632.4
17647.2
17662.2
17677.4
17692.9
17708.6
17724.6
17740.9
17757.6
17774.6
17792
17809.8
17828
17846.7
17865.8
17885.4
17905.4
17925.9
17946.9
17968.3
17990.3
18012.9
18036
18059.6
18083.8
18108.5
18133.9
18159.8
18186.4
18213.5
18241.2
18269.6
18298.5
18328.1
18358.2
18389
18420.4
18452.4
18485
18518.2
18552
18586.4
18621.3
18656.8
18692.7
18729.2
18766.2
18803.7
18841.7
18880.2
18919.2
18958.6
18998.4
19038.5
19079.1
19120
19161.2
19202.7
19244.4
19286.3
19328.4
19370.6
19412.9
19455.3
19497.8
19540.4
19582.9
19625.5
19668
19710.3
19752.6
19794.7
19836.5
19878.2
19919.6
19960.6
20001.4
20041.8
20081.8
20121.5
20160.6
20199.3
20237.5
20275.2
20312.4
20349
20385
20420.4
20455.1
20489.2
20522.6
20555.4
20587.4
20618.8
20649.4
20679.3
20708.5
20736.9
20764.5
20791.4
20817.5
20842.9
20867.4
20891.2
20914.3
20936.5
20958
20978.6
20998.5
21017.7
21036.1
21053.7
21070.6
21086.7
21102.2
21117.1
21131.2
21144.7
21157.5
21169.7
21181.3
21192.3
21202.6
21212.3
21221.1
21228.8
21235.7
21241.7
21247.2
21252.7
21258.1
21263.4
21268.2
21272.5
21276.1
21279.4
21282.2
21284.8
21287
21288.9
21290.4
21291.6
21292.5
21293.1
21293.5
21293.6
21293.4
21292.9
21292.1
21291
21289.6
21287.9
21285.9
21283.7
21281.4
21278.8
21276
21273
21269.9
21266.5
21263
21259.4
21255.8
21252
21248.2
21244.3
21240.3
21236.1
21231.9
21227.4
21222.9
21218.3
21213.5
21208.7
21203.7
21198.7
21193.5
21188.1
21182.7
21177.1
21171.4
21165.7
21159.8
21153.8
21147.7
21141.5
21135.3
21128.9
21122.5
21116
21109.4
21102.7
21096
21089.1
21082.3
21075.4
21068.5
21061.5
21054.5
21047.5
21040.5
21033.5
21026.5
21019.5
21012.6
21005.6
20998.8
20992
20985.2
20978.6
20972
20965.6
20959.2
20953
20946.9
20940.9
20935.1
20929.5
20924
20918.7
20913.5
20908.6
20903.8
20899.3
20895
20890.9
20887
20883.4
20880
20876.9
20874.1
20871.5
20869.2
20867.2
20865.5
20864
20862.9
20862.1
20861.7
20861.5
20861.7
20862.3
20863.2
20864.4
20866
20868.1
20870.4
20873.2
20876.4
20880
20884.1
20888.5
20893.5
20898.8
20904.7
20911
20917.8
20925
20932.8
20941.2
20950
20959.4
20969.4
20979.9
20991
21002.7
21014.9
21027.8
21041.4
21055.5
21070.3
21085.8
21101.9
21118.7
21136.2
21154.4
21173.3
21192.9
21213.3
21234.4
21256.2
21278.8
21302.2
21326.3
21351.1
21376.8
21403.2
21430.3
21458.3
21487.1
21516.6
21546.9
21578
21609.9
21642.5
21675.9
21710.1
21745.1
21780.8
21817.3
21854.5
21892.5
21931.1
21970.5
22010.6
22051.4
22092.8
22135
22177.7
22221.1
22265.1
22309.7
22354.8
22400.5
22446.7
22493.4
22540.7
22588.4
22636.6
22685.3
22734.5
22784.1
22834
22884.4
22935
22986
23037.3
23088.8
23140.6
23192.7
23244.9
23297.3
23349.9
23402.6
23455.5
23508.4
23561.3
23614.3
23667.3
23720.2
23773
23825.8
23878.4
23930.8
23983
24034.9
24086.6
24138
24189.1
24239.8
24290.1
24339.9
24389.3
24438.1
24486.4
24534
24581
24627.4
24673
24717.9
24761.9
24805.2
24847.5
24889
24929.5
24969.1
25007.6
25045.1
25081.6
25116.9
25151.1
25184.1
25215.9
25246.6
25275.9
25304
25330.7
25356.2
25380.2
25402.9
25424.2
25444
25462.4
25479.4
25494.8
25508.8
25521.2
25532.1
25541.4
25549.3
25555.4
25560.1
25563.2
25564.9
16484.5
16484.6
16484.9
16485.5
16486.2
16487.1
16488.2
16489.5
16491
16492.6
16494.4
16496.4
16498.6
16500.9
16503.4
16506
16508.9
16511.8
16514.9
16518.2
16521.6
16525.2
16528.9
16532.8
16536.7
16540.9
16545.1
16549.5
16554
16558.6
16563.4
16568.3
16573.3
16578.4
16583.7
16589.1
16594.6
16600.2
16606
16611.9
16617.9
16624
16630.3
16636.8
16643.3
16650
16656.9
16663.8
16671
16678.2
16685.6
16693.2
16700.8
16708.7
16716.6
16724.8
16733.1
16741.5
16750.1
16758.8
16767.7
16776.7
16785.9
16795.3
16804.8
16814.4
16824.1
16834
16844
16854.1
16864.4
16874.7
16885.2
16895.8
16906.5
16917.3
16928.2
16939.3
16950.4
16961.7
16973
16984.5
16996
17007.7
17019.4
17031.3
17043.2
17055.2
17067.3
17079.6
17091.9
17104.3
17116.8
17129.4
17142.1
17154.9
17167.8
17180.8
17194
17207.3
17220.8
17234.4
17248.2
17262.1
17276.3
17290.6
17305.1
17319.9
17334.8
17350.1
17365.5
17381.3
17397.3
17413.6
17430.3
17447.3
17464.7
17482.5
17500.7
17519.4
17538.5
17558
17578
17598.5
17619.5
17641
17663
17685.5
17708.5
17732.2
17756.3
17781.1
17806.4
17832.4
17858.9
17886
17913.8
17942.1
17971
18000.6
18030.8
18061.6
18093
18125
18157.6
18190.8
18224.6
18258.9
18293.9
18329.3
18365.3
18401.8
18438.9
18476.4
18514.4
18552.9
18591.9
18631.3
18671.1
18711.3
18751.9
18792.8
18834.1
18875.6
18917.3
18959.2
19001.3
19043.5
19085.8
19128.2
19170.8
19213.3
19255.9
19298.5
19341
19383.4
19425.7
19467.8
19509.7
19551.3
19592.8
19633.9
19674.6
19715.1
19755.1
19794.8
19833.9
19872.7
19910.9
19948.6
19985.7
20022.4
20058.4
20093.8
20128.5
20162.6
20196
20228.8
20260.9
20292.3
20322.9
20352.8
20382
20410.4
20438.1
20465
20491.1
20516.4
20541
20564.8
20587.8
20610
20631.5
20652.2
20672.1
20691.2
20709.6
20727.2
20744.1
20760.2
20775.5
20790
20803.8
20817.2
20829.8
20841.6
20852.9
20863.6
20873.9
20883.9
20893.2
20901.8
20909.3
20916
20922
20927.4
20932.4
20937.3
20941.8
20945.9
20949.7
20953
20955.9
20958.4
20960.5
20962.3
20963.8
20964.9
20965.8
20966.4
20966.8
20966.9
20966.6
20966.1
20965.2
20964
20962.5
20960.7
20958.7
20956.5
20954.1
20951.6
20948.9
20946
20943
20939.7
20936.4
20932.9
20929.2
20925.4
20921.6
20917.6
20913.5
20909.4
20905.1
20900.6
20896.1
20891.5
20886.7
20881.8
20876.9
20871.8
20866.6
20861.2
20855.8
20850.3
20844.6
20838.8
20832.9
20826.9
20820.9
20814.7
20808.4
20802.1
20795.6
20789.1
20782.5
20775.8
20769.1
20762.3
20755.4
20748.5
20741.5
20734.6
20727.6
20720.5
20713.5
20706.5
20699.5
20692.5
20685.5
20678.6
20671.7
20664.9
20658.2
20651.5
20644.9
20638.5
20632.1
20625.9
20619.8
20613.8
20608
20602.3
20596.8
20591.5
20586.4
20581.4
20576.6
20572.1
20567.8
20563.7
20559.8
20556.2
20552.8
20549.7
20546.8
20544.2
20541.9
20539.9
20538.2
20536.8
20535.6
20534.8
20534.4
20534.2
20534.4
20534.9
20535.8
20537.1
20538.7
20540.7
20543.1
20545.9
20549.1
20552.7
20556.7
20561.2
20566.1
20571.4
20577.3
20583.6
20590.3
20597.6
20605.4
20613.7
20622.6
20632
20641.9
20652.4
20663.5
20675.2
20687.4
20700.3
20713.8
20728
20742.8
20758.2
20774.3
20791.1
20808.6
20826.8
20845.7
20865.3
20885.7
20906.8
20928.6
20951.2
20974.5
20998.6
21023.5
21049.1
21075.5
21102.7
21130.6
21159.4
21188.9
21219.2
21250.3
21282.2
21314.8
21348.2
21382.4
21417.4
21453.1
21489.6
21526.8
21564.8
21603.5
21642.9
21682.9
21723.7
21765.2
21807.3
21850.1
21893.5
21937.5
21982.1
22027.2
22072.9
22119.2
22166
22213.2
22261
22309.3
22358
22407.2
22456.7
22506.7
22557
22607.7
22658.7
22710
22761.6
22813.4
22865.5
22917.7
22970.2
23022.8
23075.5
23128.4
23181.3
23234.3
23287.3
23340.3
23393.2
23446.1
23498.8
23551.5
23603.9
23656.1
23708.1
23759.8
23811.3
23862.4
23913.1
23963.4
24013.3
24062.7
24111.5
24159.8
24207.5
24254.6
24300.9
24346.6
24391.5
24435.6
24478.8
24521.2
24562.7
24603.3
24642.8
24681.4
24719
24755.4
24790.8
24825
24858
24889.9
24920.5
24949.9
24978
25004.8
25030.2
25054.3
25077
25098.3
25118.2
25136.6
25153.6
25169
25183
25195.5
25206.4
25215.8
25223.5
25229.9
25234.5
25237.5
25239.1
16157.2
16157.3
16157.6
16158.2
16158.9
16159.9
16161
16162.2
16163.7
16165.4
16167.2
16169.2
16171.3
16173.6
16176.1
16178.8
16181.6
16184.6
16187.7
16191
16194.4
16198
16201.7
16205.5
16209.5
16213.7
16217.9
16222.3
16226.8
16231.4
16236.2
16241.1
16246.1
16251.2
16256.5
16261.9
16267.4
16273.1
16278.8
16284.7
16290.7
16296.9
16303.2
16309.6
16316.1
16322.8
16329.7
16336.6
16343.7
16351
16358.4
16365.9
16373.6
16381.4
16389.4
16397.6
16405.8
16414.3
16422.9
16431.6
16440.5
16449.5
16458.7
16468
16477.5
16487.1
16496.8
16506.7
16516.7
16526.8
16537
16547.4
16557.9
16568.4
16579.2
16590
16600.9
16611.9
16623.1
16634.3
16645.7
16657.1
16668.7
16680.3
16692.1
16703.9
16715.9
16727.9
16740
16752.2
16764.5
16776.9
16789.4
16802
16814.7
16827.5
16840.4
16853.5
16866.6
16879.9
16893.4
16907
16920.7
16934.7
16948.8
16963.1
16977.6
16992.3
17007.2
17022.4
17037.9
17053.6
17069.6
17086
17102.6
17119.6
17137
17154.8
17173
17191.7
17210.7
17230.3
17250.2
17270.7
17291.6
17313.1
17335.1
17357.6
17380.6
17404.3
17428.4
17453.2
17478.5
17504.4
17531
17558.1
17585.8
17614.1
17643.1
17672.7
17702.8
17733.6
17765.1
17797.1
17829.7
17862.9
17896.7
17931.1
17966
18001.5
18037.5
18074.1
18111.2
18148.7
18186.8
18225.4
18264.4
18303.8
18343.6
18383.8
18424.4
18465.4
18506.6
18548.2
18590
18631.9
18674
18716.3
18758.7
18801.2
18843.8
18886.4
18929.1
18971.7
19014.2
19056.7
19099
19141.1
19183
19224.8
19266.2
19307.4
19348.2
19388.7
19428.7
19468.4
19507.7
19546.4
19584.7
19622.4
19659.6
19696.3
19732.3
19767.7
19802.5
19836.7
19870.1
19902.9
19935
19966.3
19997
20026.9
20056
20084.4
20112.1
20139
20165.1
20190.4
20215
20238.8
20261.8
20284
20305.5
20326.2
20346.1
20365.2
20383.6
20401.2
20418.1
20434.3
20449.8
20464.6
20478.8
20492.1
20504.8
20517
20528.6
20539.5
20549.6
20559.1
20567.8
20575.7
20582.8
20589.2
20594.9
20600.3
20605.3
20610.1
20614.7
20618.9
20622.7
20626.2
20629.2
20631.7
20633.8
20635.6
20637
20638
20638.9
20639.4
20639.8
20639.9
20639.7
20639.2
20638.4
20637.2
20635.8
20634.1
20632.1
20629.9
20627.5
20624.9
20622.2
20619.2
20616.2
20612.9
20609.5
20606
20602.3
20598.6
20594.7
20590.8
20586.7
20582.5
20578.2
20573.8
20569.3
20564.6
20559.9
20555
20550
20544.9
20539.7
20534.4
20529
20523.4
20517.7
20512
20506.1
20500.1
20494
20487.8
20481.5
20475.2
20468.7
20462.2
20455.6
20448.9
20442.1
20435.3
20428.4
20421.5
20414.5
20407.5
20400.5
20393.5
20386.5
20379.4
20372.4
20365.4
20358.4
20351.5
20344.6
20337.8
20331
20324.4
20317.8
20311.3
20304.9
20298.7
20292.6
20286.6
20280.7
20275.1
20269.5
20264.2
20259.1
20254.1
20249.3
20244.8
20240.4
20236.3
20232.4
20228.8
20225.4
20222.3
20219.4
20216.8
20214.5
20212.5
20210.7
20209.3
20208.2
20207.4
20206.9
20206.7
20206.9
20207.4
20208.3
20209.5
20211.1
20213.1
20215.5
20218.3
20221.5
20225.1
20229.1
20233.5
20238.4
20243.8
20249.6
20255.9
20262.6
20269.9
20277.7
20286
20294.8
20304.1
20314.1
20324.6
20335.6
20347.3
20359.5
20372.4
20385.9
20400
20414.8
20430.2
20446.3
20463.1
20480.6
20498.8
20517.7
20537.3
20557.6
20578.7
20600.5
20623.1
20646.4
20670.5
20695.3
20720.9
20747.3
20774.5
20802.5
20831.2
20860.7
20891
20922.1
20954
20986.6
21020.1
21054.3
21089.2
21125
21161.4
21198.7
21236.6
21275.3
21314.7
21354.8
21395.6
21437.1
21479.2
21522
21565.4
21609.4
21654
21699.2
21744.9
21791.2
21838
21885.4
21933.2
21981.5
22030.2
22079.4
22129
22179
22229.4
22280.1
22331.1
22382.5
22434.1
22485.9
22538
22590.4
22642.8
22695.5
22748.3
22801.2
22854.1
22907.1
22960.2
23013.2
23066.2
23119.1
23171.9
23224.6
23277.1
23329.4
23381.5
23433.2
23484.7
23535.9
23586.7
23637
23687
23736.4
23785.3
23833.7
23881.4
23928.5
23974.9
24020.6
24065.5
24109.7
24153
24195.4
24236.9
24277.5
24317.2
24355.8
24393.3
24429.8
24465.2
24499.5
24532.6
24564.4
24595.1
24624.5
24652.6
24679.4
24704.9
24729
24751.7
24773.1
24792.9
24811.4
24828.4
24843.8
24857.8
24870.3
24881.2
24890.6
24898.4
24904.7
24909.3
24912.3
24914
15829.7
15829.8
15830.2
15830.7
15831.5
15832.4
15833.5
15834.8
15836.3
15837.9
15839.7
15841.7
15843.9
15846.2
15848.8
15851.4
15854.2
15857.2
15860.4
15863.6
15867.1
15870.7
15874.4
15878.2
15882.2
15886.4
15890.6
15895
15899.5
15904.2
15908.9
15913.8
15918.8
15924
15929.2
15934.6
15940.1
15945.8
15951.5
15957.4
15963.4
15969.6
15975.9
15982.3
15988.8
15995.5
16002.4
16009.3
16016.4
16023.7
16031.1
16038.6
16046.3
16054.1
16062.1
16070.2
16078.5
16086.9
16095.5
16104.2
16113.1
16122.1
16131.3
16140.6
16150.1
16159.6
16169.4
16179.2
16189.2
16199.3
16209.5
16219.9
16230.4
16240.9
16251.6
16262.5
16273.4
16284.4
16295.6
16306.8
16318.2
16329.6
16341.2
16352.9
16364.6
16376.4
16388.4
16400.4
16412.5
16424.7
16437
16449.4
16461.9
16474.5
16487.2
16500
16512.9
16525.9
16539.1
16552.4
16565.8
16579.3
16593.1
16607
16621
16635.3
16649.8
16664.5
16679.4
16694.5
16710
16725.7
16741.7
16758
16774.6
16791.6
16809
16826.8
16845
16863.6
16882.6
16902.1
16922.1
16942.5
16963.4
16984.8
17006.8
17029.3
17052.3
17075.9
17100.1
17124.8
17150.1
17176
17202.5
17229.7
17257.4
17285.7
17314.7
17344.2
17374.4
17405.2
17436.7
17468.7
17501.3
17534.6
17568.4
17602.8
17637.7
17673.2
17709.3
17745.9
17783
17820.7
17858.8
17897.4
17936.5
17976
18016
18056.3
18097
18138
18179.3
18220.8
18262.6
18304.6
18346.7
18389
18431.5
18474
18516.7
18559.4
18602.1
18644.8
18687.4
18729.9
18772.3
18814.5
18856.5
18898.2
18939.8
18981
19021.9
19062.4
19102.6
19142.3
19181.6
19220.4
19258.7
19296.4
19333.5
19370.2
19406.4
19441.9
19476.7
19511
19544.5
19577.3
19609.4
19640.8
19671.5
19701.4
19730.6
19759
19786.7
19813.6
19839.7
19865.1
19889.7
19913.5
19936.5
19958.7
19980.2
20000.9
20020.8
20039.9
20058.2
20075.8
20092.7
20108.8
20124.2
20138.7
20152.6
20165.7
20178.1
20190
20201.2
20211.8
20222
20231.7
20240.7
20249.1
20256.7
20263.6
20269.8
20275.5
20280.9
20285.6
20290
20293.9
20297.5
20300.6
20303.4
20305.8
20307.9
20309.6
20310.9
20312
20312.7
20313.2
20313.4
20313.4
20313
20312.4
20311.5
20310.3
20308.8
20307
20305
20302.8
20300.5
20297.9
20295.2
20292.3
20289.2
20286
20282.7
20279.2
20275.6
20271.9
20268
20264.1
20260
20255.8
20251.5
20247.1
20242.6
20237.9
20233.2
20228.3
20223.3
20218.2
20213
20207.6
20202.2
20196.6
20191
20185.2
20179.3
20173.3
20167.2
20161
20154.7
20148.3
20141.9
20135.3
20128.7
20122
20115.2
20108.4
20101.5
20094.5
20087.5
20080.5
20073.5
20066.5
20059.4
20052.3
20045.3
20038.3
20031.3
20024.3
20017.4
20010.6
20003.8
19997.1
19990.5
19984
19977.6
19971.3
19965.2
19959.2
19953.3
19947.6
19942.1
19936.7
19931.6
19926.6
19921.8
19917.2
19912.9
19908.8
19904.9
19901.2
19897.8
19894.7
19891.8
19889.2
19886.8
19884.8
19883
19881.6
19880.5
19879.6
19879.1
19879
19879.1
19879.6
19880.5
19881.7
19883.3
19885.3
19887.7
19890.4
19893.6
19897.2
19901.1
19905.6
19910.5
19915.8
19921.6
19927.8
19934.6
19941.8
19949.6
19957.8
19966.6
19976
19985.9
19996.3
20007.4
20019
20031.2
20044.1
20057.5
20071.6
20086.4
20101.8
20117.9
20134.6
20152.1
20170.3
20189.1
20208.7
20229
20250.1
20271.9
20294.4
20317.7
20341.8
20366.6
20392.2
20418.6
20445.8
20473.7
20502.4
20531.9
20562.2
20593.3
20625.2
20657.9
20691.3
20725.5
20760.5
20796.2
20832.7
20869.9
20907.9
20946.6
20986
21026.1
21066.9
21108.4
21150.6
21193.4
21236.8
21280.8
21325.5
21370.7
21416.5
21462.8
21509.7
21557.1
21604.9
21653.3
21702.1
21751.3
21801
21851
21901.4
21952.2
22003.3
22054.7
22106.3
22158.3
22210.4
22262.8
22315.3
22368.1
22420.9
22473.9
22526.9
22580
22633.1
22686.2
22739.2
22792.2
22845.1
22897.9
22950.4
23002.8
23055
23106.8
23158.4
23209.6
23260.5
23311
23361
23410.5
23459.5
23507.9
23555.7
23602.9
23649.4
23695.2
23740.2
23784.4
23827.7
23870.2
23911.8
23952.5
23992.2
24030.9
24068.5
24105
24140.5
24174.8
24207.9
24239.8
24270.6
24300
24328.2
24355
24380.5
24404.7
24427.4
24448.8
24468.7
24487.2
24504.2
24519.7
24533.7
24546.1
24557.1
24566.5
24574.3
24580.6
24585.2
24588.3
24589.9
15502.1
15502.3
15502.6
15503.1
15503.9
15504.8
15505.9
15507.2
15508.7
15510.4
15512.2
15514.2
15516.4
15518.7
15521.3
15523.9
15526.8
15529.8
15532.9
15536.2
15539.7
15543.3
15547
15550.9
15554.9
15559
15563.3
15567.7
15572.2
15576.8
15581.6
15586.5
15591.5
15596.7
15601.9
15607.3
15612.8
15618.5
15624.2
15630.1
15636.1
15642.2
15648.5
15654.9
15661.5
15668.2
15675
15681.9
15689
15696.3
15703.7
15711.2
15718.9
15726.7
15734.7
15742.8
15751.1
15759.5
15768
15776.7
15785.6
15794.6
15803.8
15813.1
15822.5
15832.1
15841.8
15851.6
15861.6
15871.7
15881.9
15892.3
15902.7
15913.3
15924
15934.8
15945.7
15956.8
15967.9
15979.2
15990.5
16002
16013.6
16025.2
16037
16048.8
16060.7
16072.8
16084.9
16097.1
16109.4
16121.8
16134.2
16146.8
16159.5
16172.3
16185.2
16198.2
16211.3
16224.6
16238
16251.5
16265.2
16279.1
16293.1
16307.3
16321.8
16336.4
16351.3
16366.4
16381.8
16397.5
16413.5
16429.7
16446.4
16463.3
16480.7
16498.4
16516.5
16535.1
16554.1
16573.5
16593.5
16613.9
16634.7
16656.1
16678.1
16700.5
16723.5
16747.1
16771.2
16795.9
16821.2
16847.1
16873.7
16900.8
16928.5
16956.8
16985.8
17015.4
17045.6
17076.4
17107.8
17139.9
17172.5
17205.8
17239.6
17274.1
17309.1
17344.6
17380.8
17417.4
17454.6
17492.3
17530.5
17569.1
17608.3
17647.8
17687.8
17728.1
17768.9
17809.9
17851.3
17893
17934.9
17977
18019.2
18061.7
18104.2
18146.9
18189.6
18232.4
18275.2
18318
18360.7
18403.3
18445.7
18488
18530.1
18572
18613.6
18654.9
18695.9
18736.5
18776.7
18816.5
18855.9
18894.8
18933.2
18971.1
19008.6
19045.2
19081.3
19116.7
19151.6
19185.8
19219.4
19252.2
19284.4
19315.8
19346.5
19376.5
19405.7
19434.1
19461.8
19488.7
19514.9
19540.2
19564.8
19588.6
19611.6
19633.8
19655.3
19675.9
19695.8
19714.9
19733.3
19750.9
19767.7
19783.8
19799.2
19813.9
19827.9
19841.3
19854
19866.1
19877.6
19888.4
19898.5
19907.8
19916.4
19924.3
19931.5
19938
19943.9
19949.4
19954.5
19959.3
19963.7
19967.7
19971.4
19974.6
19977.3
19979.7
19981.8
19983.4
19984.7
19985.7
19986.5
19986.9
19987
19986.9
19986.5
19985.9
19984.9
19983.7
19982.2
19980.4
19978.5
19976.3
19974
19971.4
19968.7
19965.8
19962.7
19959.5
19956.1
19952.6
19949
19945.3
19941.4
19937.4
19933.4
19929.2
19924.9
19920.4
19915.9
19911.3
19906.5
19901.6
19896.6
19891.5
19886.3
19881
19875.5
19869.9
19864.3
19858.5
19852.6
19846.6
19840.5
19834.2
19827.9
19821.5
19815.1
19808.5
19801.8
19795.1
19788.3
19781.4
19774.5
19767.5
19760.5
19753.5
19746.4
19739.4
19732.3
19725.2
19718.1
19711.1
19704.1
19697.1
19690.1
19683.3
19676.5
19669.8
19663.1
19656.6
19650.2
19643.9
19637.7
19631.7
19625.8
19620.1
19614.5
19609.1
19603.9
19598.9
19594.1
19589.6
19585.2
19581
19577.1
19573.4
19570
19566.9
19564
19561.3
19559
19556.9
19555.2
19553.7
19552.5
19551.7
19551.2
19551
19551.1
19551.6
19552.5
19553.7
19555.3
19557.2
19559.6
19562.3
19565.4
19569
19572.9
19577.4
19582.2
19587.5
19593.3
19599.5
19606.2
19613.4
19621.1
19629.4
19638.1
19647.4
19657.3
19667.7
19678.7
19690.3
19702.5
19715.3
19728.8
19742.8
19757.5
19772.9
19789
19805.7
19823.1
19841.2
19860.1
19879.6
19899.9
19920.9
19942.7
19965.2
19988.5
20012.5
20037.3
20062.9
20089.3
20116.4
20144.4
20173.1
20202.6
20232.9
20264
20295.8
20328.5
20361.9
20396.1
20431.1
20466.9
20503.4
20540.6
20578.6
20617.3
20656.8
20696.9
20737.7
20779.3
20821.5
20864.3
20907.8
20951.9
20996.5
21041.8
21087.7
21134
21181
21228.4
21276.3
21324.7
21373.6
21422.9
21472.6
21522.7
21573.2
21624
21675.2
21726.6
21778.4
21830.4
21882.6
21935.1
21987.7
22040.5
22093.4
22146.4
22199.6
22252.7
22305.9
22359.1
22412.3
22465.3
22518.3
22571.2
22623.9
22676.3
22728.6
22780.6
22832.3
22883.6
22934.6
22985.1
23035.3
23084.9
23134
23182.5
23230.4
23277.7
23324.3
23370.2
23415.3
23459.6
23503
23545.6
23587.3
23628.1
23667.8
23706.6
23744.3
23780.9
23816.4
23850.8
23884
23916
23946.8
23976.3
24004.5
24031.4
24056.9
24081.1
24103.9
24125.3
24145.3
24163.8
24180.8
24196.3
24210.4
24222.9
24233.8
24243.2
24251.1
24257.3
24262
24265.1
24266.7
15174.4
15174.5
15174.8
15175.4
15176.1
15177.1
15178.2
15179.5
15181
15182.7
15184.5
15186.6
15188.8
15191.1
15193.7
15196.4
15199.2
15202.2
15205.4
15208.7
15212.2
15215.8
15219.5
15223.4
15227.4
15231.5
15235.8
15240.2
15244.8
15249.4
15254.2
15259.1
15264.1
15269.2
15274.5
15279.9
15285.4
15291
15296.8
15302.6
15308.7
15314.8
15321.1
15327.5
15334
15340.7
15347.5
15354.4
15361.5
15368.8
15376.1
15383.7
15391.3
15399.1
15407.1
15415.2
15423.5
15431.9
15440.4
15449.1
15458
15467
15476.1
15485.4
15494.8
15504.4
15514.1
15523.9
15533.8
15543.9
15554.1
15564.5
15574.9
15585.5
15596.2
15607
15617.9
15629
15640.1
15651.4
15662.7
15674.2
15685.8
15697.4
15709.2
15721
15732.9
15745
15757.1
15769.3
15781.6
15794
15806.4
15819
15831.7
15844.4
15857.3
15870.3
15883.4
15896.6
15910
15923.5
15937.1
15951
15965
15979.1
15993.5
16008.1
16023
16038
16053.4
16069
16084.9
16101.2
16117.7
16134.7
16152
16169.6
16187.7
16206.2
16225.2
16244.6
16264.5
16284.8
16305.7
16327
16348.9
16371.3
16394.3
16417.8
16441.9
16466.6
16491.9
16517.8
16544.3
16571.4
16599.1
16627.5
16656.4
16686
16716.2
16747
16778.5
16810.6
16843.3
16876.5
16910.4
16944.9
16979.9
17015.6
17051.7
17088.4
17125.7
17163.5
17201.8
17240.5
17279.7
17319.4
17359.5
17400
17440.8
17482
17523.4
17565.2
17607.1
17649.3
17691.7
17734.2
17776.9
17819.7
17862.5
17905.4
17948.3
17991.2
18034
18076.7
18119.3
18161.7
18203.9
18245.9
18287.6
18329
18370.1
18410.8
18451.1
18491
18530.5
18569.4
18607.9
18645.9
18683.3
18720
18756.3
18791.9
18826.8
18861.1
18894.7
18927.6
18959.8
18991.3
19022
19052
19081.3
19109.7
19137.4
19164.4
19190.5
19215.9
19240.5
19264.3
19287.3
19309.5
19330.9
19351.6
19371.5
19390.6
19408.9
19426.4
19443.3
19459.3
19474.7
19489.3
19503.2
19516.3
19528.8
19540.5
19551.6
19562.1
19572
19581.4
19590.1
19598.2
19605.7
19612.6
19618.9
19624.7
19629.9
19634.7
19638.9
19642.8
19646.2
19649.3
19652
19654.3
19656.2
19657.8
19659
19659.9
19660.6
19660.9
19661
19660.7
19660.3
19659.5
19658.5
19657.2
19655.7
19653.9
19651.9
19649.7
19647.3
19644.8
19642
19639.1
19636
19632.8
19629.5
19626
19622.4
19618.7
19614.8
19610.9
19606.8
19602.6
19598.3
19593.9
19589.3
19584.7
19579.9
19575
19570
19564.9
19559.7
19554.4
19548.9
19543.3
19537.6
19531.8
19525.9
19519.9
19513.8
19507.5
19501.2
19494.8
19488.3
19481.7
19475
19468.3
19461.4
19454.5
19447.6
19440.6
19433.6
19426.5
19419.4
19412.3
19405.2
19398
19390.9
19383.9
19376.8
19369.8
19362.8
19355.9
19349.1
19342.3
19335.6
19329.1
19322.6
19316.3
19310.1
19304
19298.1
19292.4
19286.8
19281.4
19276.2
19271.1
19266.3
19261.7
19257.3
19253.1
19249.2
19245.5
19242
19238.9
19235.9
19233.3
19230.9
19228.8
19227
19225.6
19224.4
19223.5
19223
19222.8
19222.9
19223.4
19224.2
19225.4
19226.9
19228.9
19231.2
19233.9
19237
19240.5
19244.4
19248.8
19253.6
19258.9
19264.6
19270.8
19277.5
19284.7
19292.3
19300.5
19309.3
19318.5
19328.3
19338.7
19349.7
19361.2
19373.4
19386.1
19399.5
19413.6
19428.2
19443.6
19459.6
19476.2
19493.6
19511.7
19530.5
19550
19570.2
19591.2
19613
19635.4
19658.7
19682.7
19707.5
19733.1
19759.4
19786.5
19814.5
19843.2
19872.7
19902.9
19934
19965.9
19998.6
20032
20066.2
20101.2
20137
20173.5
20210.7
20248.8
20287.5
20327
20367.1
20408
20449.6
20491.8
20534.7
20578.2
20622.4
20667.1
20712.4
20758.3
20804.8
20851.8
20899.3
20947.3
20995.8
21044.7
21094.1
21143.9
21194.1
21244.6
21295.6
21346.8
21398.3
21450.2
21502.3
21554.6
21607.1
21659.8
21712.7
21765.8
21818.9
21872.1
21925.4
21978.7
22032
22085.3
22138.5
22191.6
22244.6
22297.4
22350
22402.4
22454.5
22506.3
22557.8
22608.9
22659.6
22709.9
22759.6
22808.8
22857.5
22905.6
22953
22999.7
23045.7
23090.9
23135.3
23178.9
23221.6
23263.4
23304.3
23344.2
23383
23420.8
23457.5
23493.1
23527.6
23560.9
23593
23623.8
23653.4
23681.7
23708.6
23734.2
23758.5
23781.3
23802.8
23822.8
23841.3
23858.4
23873.9
23888
23900.5
23911.5
23920.9
23928.8
23935.1
23939.8
23942.8
23944.5
14846.5
14846.6
14846.9
14847.5
14848.2
14849.2
14850.3
14851.7
14853.2
14854.9
14856.7
14858.8
14861
14863.4
14865.9
14868.6
14871.5
14874.6
14877.7
14881.1
14884.5
14888.2
14891.9
14895.8
14899.8
14904
14908.3
14912.7
14917.2
14921.9
14926.7
14931.6
14936.6
14941.7
14947
14952.4
14957.9
14963.5
14969.2
14975.1
14981.1
14987.3
14993.5
14999.9
15006.4
15013.1
15019.9
15026.8
15033.9
15041.1
15048.5
15056
15063.7
15071.5
15079.4
15087.5
15095.8
15104.1
15112.7
15121.4
15130.2
15139.2
15148.3
15157.6
15167
15176.5
15186.2
15196
15205.9
15216
15226.2
15236.5
15247
15257.6
15268.2
15279.1
15290
15301
15312.2
15323.4
15334.8
15346.2
15357.8
15369.5
15381.2
15393.1
15405
15417
15429.1
15441.3
15453.6
15466
15478.4
15491
15503.6
15516.4
15529.2
15542.2
15555.3
15568.5
15581.8
15595.2
15608.9
15622.6
15636.6
15650.7
15665
15679.6
15694.4
15709.4
15724.7
15740.3
15756.1
15772.3
15788.8
15805.7
15822.9
15840.5
15858.6
15877
15895.9
15915.3
15935.1
15955.4
15976.2
15997.5
16019.3
16041.7
16064.6
16088.1
16112.2
16136.9
16162.1
16188
16214.5
16241.6
16269.3
16297.6
16326.6
16356.2
16386.4
16417.2
16448.7
16480.8
16513.5
16546.9
16580.8
16615.3
16650.4
16686.1
16722.4
16759.2
16796.5
16834.3
16872.7
16911.5
16950.9
16990.6
17030.8
17071.3
17112.3
17153.5
17195.1
17237
17279.1
17321.4
17363.9
17406.6
17449.4
17492.4
17535.4
17578.4
17621.4
17664.4
17707.4
17750.2
17793
17835.5
17877.8
17920
17961.8
18003.3
18044.5
18085.4
18125.8
18165.9
18205.4
18244.5
18283.1
18321.2
18358.7
18395.8
18431.9
18467.5
18502.5
18536.9
18570.5
18603.5
18635.8
18667.3
18698.1
18728.1
18757.4
18785.9
18813.6
18840.6
18866.7
18892.1
18916.7
18940.5
18963.5
18985.7
19007.1
19027.8
19047.6
19066.7
19085
19102.5
19119.3
19135.3
19150.6
19165.2
19179.1
19192.3
19204.8
19216.7
19228
19238.6
19248.6
19257.8
19266.4
19274.3
19281.5
19288.1
19294.1
19299.7
19304.8
19309.4
19313.7
19317.5
19320.9
19323.9
19326.5
19328.7
19330.6
19332.1
19333.3
19334.2
19334.7
19335
19335
19334.7
19334.1
19333.3
19332.2
19330.9
19329.3
19327.6
19325.5
19323.3
19320.9
19318.4
19315.6
19312.7
19309.6
19306.4
19303.1
19299.6
19296
19292.2
19288.4
19284.4
19280.3
19276.1
19271.8
19267.4
19262.8
19258.2
19253.4
19248.5
19243.5
19238.4
19233.2
19227.8
19222.3
19216.8
19211.1
19205.2
19199.3
19193.3
19187.1
19180.9
19174.6
19168.1
19161.6
19154.9
19148.2
19141.5
19134.6
19127.7
19120.7
19113.7
19106.6
19099.5
19092.3
19085.2
19078
19070.9
19063.7
19056.6
19049.5
19042.4
19035.4
19028.5
19021.6
19014.8
19008.1
19001.5
18995
18988.6
18982.4
18976.3
18970.3
18964.5
18958.9
18953.5
18948.2
18943.2
18938.3
18933.6
18929.2
18925
18921
18917.3
18913.9
18910.6
18907.7
18905
18902.6
18900.5
18898.7
18897.2
18896
18895.1
18894.5
18894.3
18894.4
18894.9
18895.6
18896.8
18898.3
18900.2
18902.5
18905.2
18908.2
18911.7
18915.6
18920
18924.7
18930
18935.6
18941.8
18948.4
18955.6
18963.2
18971.3
18980
18989.2
18999
19009.3
19020.2
19031.7
19043.8
19056.5
19069.9
19083.8
19098.4
19113.7
19129.7
19146.3
19163.6
19181.7
19200.4
19219.9
19240.1
19261
19282.7
19305.1
19328.3
19352.3
19377.1
19402.6
19428.9
19456.1
19484
19512.6
19542.1
19572.4
19603.5
19635.4
19668
19701.5
19735.7
19770.7
19806.5
19843
19880.3
19918.3
19957.1
19996.6
20036.8
20077.8
20119.4
20161.7
20204.6
20248.2
20292.4
20337.2
20382.6
20428.6
20475.1
20522.2
20569.8
20617.9
20666.4
20715.5
20764.9
20814.8
20865.1
20915.8
20966.8
21018.1
21069.8
21121.7
21173.9
21226.3
21279
21331.8
21384.8
21438
21491.2
21544.6
21598
21651.4
21704.9
21758.3
21811.6
21864.9
21918
21971
22023.8
22076.3
22128.6
22180.6
22232.2
22283.5
22334.3
22384.8
22434.7
22484.1
22532.9
22581.1
22628.7
22675.5
22721.7
22767.1
22811.6
22855.4
22898.2
22940.2
22981.1
23021.1
23060.1
23098
23134.9
23170.6
23205.2
23238.6
23270.7
23301.7
23331.3
23359.7
23386.7
23412.4
23436.7
23459.7
23481.2
23501.2
23519.8
23536.9
23552.5
23566.6
23579.2
23590.2
23599.7
23607.5
23613.8
23618.5
23621.6
23623.3
14518.4
14518.6
14518.9
14519.5
14520.2
14521.2
14522.3
14523.7
14525.2
14526.9
14528.8
14530.9
14533.1
14535.5
14538.1
14540.8
14543.7
14546.8
14550
14553.3
14556.8
14560.5
14564.2
14568.1
14572.2
14576.4
14580.7
14585.1
14589.6
14594.3
14599.1
14604
14609
14614.1
14619.4
14624.8
14630.2
14635.9
14641.6
14647.5
14653.5
14659.6
14665.9
14672.2
14678.8
14685.4
14692.2
14699.1
14706.2
14713.4
14720.7
14728.2
14735.9
14743.7
14751.6
14759.7
14767.9
14776.3
14784.8
14793.5
14802.3
14811.3
14820.4
14829.6
14839
14848.5
14858.2
14868
14877.9
14887.9
14898.1
14908.4
14918.9
14929.4
14940.1
14950.9
14961.9
14972.9
14984
14995.3
15006.7
15018.1
15029.7
15041.4
15053.1
15065
15076.9
15088.9
15101
15113.2
15125.5
15137.9
15150.3
15162.8
15175.5
15188.2
15201
15213.9
15227
15240.1
15253.4
15266.8
15280.4
15294.1
15308
15322.1
15336.3
15350.8
15365.5
15380.5
15395.7
15411.2
15427
15443.1
15459.6
15476.4
15493.5
15511.1
15529
15547.4
15566.2
15585.5
15605.3
15625.5
15646.2
15667.5
15689.3
15711.6
15734.5
15758
15782
15806.6
15831.9
15857.7
15884.2
15911.2
15938.9
15967.3
15996.2
16025.8
16056.1
16087
16118.5
16150.6
16183.3
16216.7
16250.7
16285.3
16320.5
16356.2
16392.5
16429.4
16466.9
16504.8
16543.3
16582.2
16621.7
16661.5
16701.8
16742.5
16783.6
16825
16866.7
16908.7
16951
16993.5
17036.1
17079
17121.9
17165
17208.2
17251.4
17294.6
17337.7
17380.8
17423.8
17466.7
17509.4
17551.9
17594.2
17636.2
17677.9
17719.2
17760.2
17800.8
17841
17880.7
17919.9
17958.6
17996.8
18034.4
18071.3
18107.8
18143.6
18178.7
18213.1
18246.8
18279.9
18312.2
18343.8
18374.6
18404.7
18434
18462.6
18490.3
18517.3
18543.5
18568.9
18593.5
18617.3
18640.3
18662.5
18683.9
18704.5
18724.3
18743.3
18761.6
18779.1
18795.8
18811.8
18827.1
18841.6
18855.4
18868.5
18881
18892.7
18903.7
18914.1
18923.8
18932.9
18941.4
18949.3
18956.7
18963.4
18969.5
18975.1
18980.2