/*--------------------------------*- C++ -*----------------------------------*\
| =========                 |                                                 |
| \\      /  F ield         | OpenFOAM: The Open Source CFD Toolbox           |
|  \\    /   O peration     | Version:  v2006                                 |
|   \\  /    A nd           | Website:  www.openfoam.com                      |
|    \\/     M anipulation  |                                                 |
\*---------------------------------------------------------------------------*/
FoamFile
{
    version     2.0;
    format      ascii;
    class       volScalarField;
    location    "10.3";
    object      p_rgh;
}
// * * * * * * * * * * * * * * * * * * * * * * * * * * * * * * * * * * * * * //

dimensions      [1 -1 -2 0 0 0 0];


internalField   nonuniform List<scalar> 
150000
(
-2644.91
-2644.77
-2644.45
-2643.91
-2643.17
-2642.25
-2641.14
-2639.85
-2638.38
-2636.74
-2634.93
-2632.95
-2630.79
-2628.47
-2625.98
-2623.33
-2620.53
-2617.56
-2614.44
-2611.17
-2607.76
-2604.19
-2600.49
-2596.64
-2592.66
-2588.55
-2584.3
-2579.92
-2575.41
-2570.77
-2566.01
-2561.12
-2556.11
-2550.97
-2545.71
-2540.32
-2534.81
-2529.17
-2523.4
-2517.51
-2511.48
-2505.32
-2499.03
-2492.6
-2486.03
-2479.33
-2472.49
-2465.51
-2458.39
-2451.13
-2443.73
-2436.19
-2428.51
-2420.69
-2412.75
-2404.45
-2396.21
-2387.8
-2379.21
-2370.47
-2361.57
-2352.52
-2343.32
-2333.97
-2324.49
-2314.87
-2305.13
-2295.26
-2285.26
-2275.15
-2264.91
-2254.56
-2244.09
-2233.5
-2222.8
-2211.98
-2201.05
-2190.02
-2178.87
-2167.62
-2156.27
-2144.81
-2133.26
-2121.61
-2109.87
-2098.03
-2086.1
-2074.08
-2061.96
-2049.76
-2037.46
-2025.06
-2012.57
-1999.97
-1987.27
-1974.46
-1961.52
-1948.47
-1935.28
-1921.95
-1908.48
-1894.85
-1881.06
-1867.1
-1852.95
-1838.61
-1824.06
-1809.29
-1794.3
-1779.08
-1763.61
-1747.89
-1731.89
-1715.59
-1698.95
-1681.94
-1664.53
-1646.72
-1628.48
-1609.8
-1590.69
-1571.13
-1551.11
-1530.62
-1509.64
-1488.16
-1466.16
-1443.62
-1420.55
-1396.92
-1372.72
-1347.96
-1322.61
-1296.68
-1270.15
-1243.02
-1215.28
-1186.94
-1157.99
-1128.43
-1098.26
-1067.48
-1036.08
-1004.08
-971.476
-938.272
-904.482
-870.119
-835.201
-799.746
-763.77
-727.283
-690.287
-652.782
-614.774
-576.279
-537.324
-497.937
-458.139
-417.953
-377.392
-336.477
-295.258
-253.772
-212.063
-170.169
-128.116
-85.9201
-43.601
-1.18084
41.317
83.8671
126.44
168.99
211.477
253.847
296.087
338.159
380.032
421.676
463.057
504.145
544.91
585.32
625.346
664.96
704.132
742.835
781.044
818.732
855.881
892.483
928.49
963.874
998.61
1032.67
1066.1
1098.86
1130.93
1162.28
1192.91
1222.81
1251.97
1280.38
1308.03
1334.91
1361.03
1386.38
1410.95
1434.74
1457.75
1479.99
1501.45
1522.13
1542.05
1561.19
1579.57
1597.19
1614.06
1630.22
1645.69
1660.58
1674.71
1688.19
1700.98
1713.17
1724.77
1735.77
1746.14
1755.78
1764.56
1772.35
1779.17
1785.15
1790.73
1796.18
1801.62
1806.89
1811.72
1815.97
1819.64
1822.87
1825.74
1828.3
1830.53
1832.4
1833.91
1835.08
1835.96
1836.58
1836.95
1837.06
1836.9
1836.42
1835.62
1834.49
1833.06
1831.36
1829.41
1827.24
1824.87
1822.29
1819.51
1816.53
1813.36
1810.02
1806.53
1802.93
1799.26
1795.51
1791.69
1787.79
1783.77
1779.63
1775.35
1770.95
1766.42
1761.78
1757.04
1752.19
1747.23
1742.15
1736.95
1731.63
1726.18
1720.62
1714.94
1709.17
1703.29
1697.3
1691.22
1685.04
1678.78
1672.43
1665.99
1659.47
1652.87
1646.19
1639.45
1632.65
1625.79
1618.89
1611.95
1604.98
1597.99
1590.99
1583.99
1576.98
1569.99
1563.01
1556.06
1549.15
1542.29
1535.48
1528.75
1522.09
1515.53
1509.06
1502.71
1496.48
1490.39
1484.43
1478.61
1472.96
1467.47
1462.15
1457.02
1452.08
1447.34
1442.81
1438.49
1434.4
1430.54
1426.92
1423.55
1420.44
1417.59
1415.01
1412.71
1410.69
1408.97
1407.55
1406.44
1405.64
1405.17
1405.03
1405.22
1405.76
1406.66
1407.92
1409.55
1411.55
1413.95
1416.74
1419.93
1423.54
1427.58
1432.05
1436.96
1442.33
1448.16
1454.47
1461.26
1468.55
1476.35
1484.67
1493.52
1502.91
1512.86
1523.37
1534.47
1546.16
1558.45
1571.35
1584.87
1599.02
1613.82
1629.28
1645.4
1662.21
1679.71
1697.91
1716.81
1736.44
1756.8
1777.89
1799.73
1822.31
1845.65
1869.75
1894.62
1920.25
1946.66
1973.85
2001.81
2030.55
2060.08
2090.39
2121.48
2153.36
2186.01
2219.44
2253.63
2288.6
2324.32
2360.79
2398.01
2435.96
2474.64
2514.02
2554.12
2594.9
2636.35
2678.46
2721.22
2764.6
2808.58
2853.16
2898.29
2943.98
2990.19
3036.91
3084.15
3131.89
3180.13
3228.84
3278
3327.57
3377.53
3427.85
3478.51
3529.49
3580.76
3632.31
3684.12
3736.15
3788.4
3840.83
3893.43
3946.15
3998.98
4051.88
4104.84
4157.81
4210.77
4263.69
4316.53
4369.26
4421.85
4474.27
4526.47
4578.43
4630.13
4681.52
4732.58
4783.28
4833.57
4883.41
4932.77
4981.6
5029.87
5077.53
5124.54
5170.88
5216.5
5261.36
5305.42
5348.66
5391.02
5432.49
5473.01
5512.57
5551.11
5588.62
5625.06
5660.39
5694.58
5727.61
5759.45
5790.05
5819.4
5847.47
5874.23
5899.66
5923.73
5946.41
5967.68
5987.53
6005.93
6022.87
6038.31
6052.26
6064.68
6075.57
6084.91
6092.77
6098.89
6103.64
6106.71
6108.38
-2645.04
-2644.92
-2644.59
-2644.04
-2643.31
-2642.38
-2641.27
-2639.98
-2638.51
-2636.87
-2635.06
-2633.07
-2630.92
-2628.59
-2626.11
-2623.46
-2620.65
-2617.68
-2614.56
-2611.29
-2607.87
-2604.3
-2600.6
-2596.75
-2592.77
-2588.65
-2584.4
-2580.02
-2575.51
-2570.87
-2566.11
-2561.22
-2556.21
-2551.08
-2545.82
-2540.43
-2534.93
-2529.3
-2523.53
-2517.63
-2511.61
-2505.45
-2499.16
-2492.74
-2486.18
-2479.48
-2472.64
-2465.66
-2458.54
-2451.28
-2443.88
-2436.34
-2428.66
-2420.83
-2412.85
-2404.67
-2396.4
-2387.98
-2379.41
-2370.68
-2361.8
-2352.75
-2343.56
-2334.21
-2324.73
-2315.11
-2305.36
-2295.48
-2285.48
-2275.36
-2265.12
-2254.77
-2244.3
-2233.71
-2223
-2212.19
-2201.26
-2190.22
-2179.07
-2167.82
-2156.47
-2145.01
-2133.46
-2121.81
-2110.06
-2098.22
-2086.29
-2074.27
-2062.15
-2049.94
-2037.64
-2025.24
-2012.75
-2000.15
-1987.45
-1974.63
-1961.71
-1948.65
-1935.47
-1922.16
-1908.7
-1895.08
-1881.31
-1867.37
-1853.24
-1838.92
-1824.39
-1809.64
-1794.66
-1779.45
-1763.98
-1748.25
-1732.23
-1715.9
-1699.24
-1682.22
-1664.8
-1646.99
-1628.75
-1610.09
-1591
-1571.45
-1551.45
-1530.98
-1510.01
-1488.54
-1466.55
-1444.03
-1420.96
-1397.34
-1373.15
-1348.39
-1323.05
-1297.13
-1270.6
-1243.47
-1215.74
-1187.4
-1158.45
-1128.89
-1098.71
-1067.93
-1036.53
-1004.52
-971.913
-938.71
-904.922
-870.562
-835.644
-800.184
-764.192
-727.678
-690.648
-653.107
-615.067
-576.551
-537.589
-498.205
-458.417
-418.223
-377.632
-336.671
-295.406
-253.887
-212.163
-170.266
-128.211
-86.0137
-43.6905
-1.26042
41.2535
83.8211
126.42
168.999
211.51
253.921
296.185
338.28
380.178
421.846
463.25
504.36
545.146
585.576
625.621
665.251
704.438
743.154
781.372
819.067
856.228
892.869
928.891
964.284
999.027
1033.06
1066.54
1099.32
1131.4
1162.77
1193.41
1223.32
1252.49
1280.91
1308.57
1335.46
1361.58
1386.93
1411.5
1435.3
1458.31
1480.55
1502
1522.68
1542.59
1561.73
1580.1
1597.71
1614.57
1630.65
1645.96
1660.45
1674.34
1687.71
1700.27
1712.15
1723.41
1734.15
1744.44
1754.36
1763.73
1772.29
1779.82
1786.5
1792.51
1797.88
1802.94
1807.76
1812.29
1816.45
1820.17
1823.47
1826.37
1828.89
1831.03
1832.82
1834.27
1835.42
1836.29
1836.91
1837.27
1837.36
1837.15
1836.6
1835.72
1834.5
1832.99
1831.22
1829.22
1827.02
1824.65
1822.1
1819.39
1816.51
1813.45
1810.23
1806.87
1803.35
1799.7
1795.94
1792.08
1788.12
1784.05
1779.86
1775.56
1771.15
1766.61
1761.97
1757.21
1752.35
1747.37
1742.28
1737.07
1731.75
1726.31
1720.75
1715.08
1709.31
1703.42
1697.44
1691.36
1685.19
1678.92
1672.57
1666.13
1659.6
1652.99
1646.31
1639.56
1632.75
1625.89
1618.98
1612.03
1605.06
1598.06
1591.04
1584.02
1577
1569.99
1562.99
1556.03
1549.1
1542.23
1535.41
1528.67
1522.01
1515.44
1508.97
1502.61
1496.38
1490.27
1484.3
1478.48
1472.82
1467.32
1461.99
1456.85
1451.9
1447.15
1442.61
1438.28
1434.18
1430.31
1426.69
1423.31
1420.19
1417.33
1414.75
1412.44
1410.42
1408.69
1407.26
1406.15
1405.34
1404.86
1404.72
1404.91
1405.44
1406.33
1407.59
1409.21
1411.21
1413.6
1416.38
1419.57
1423.18
1427.21
1431.67
1436.58
1441.94
1447.76
1454.06
1460.85
1468.13
1475.92
1484.24
1493.08
1502.47
1512.41
1522.92
1534
1545.67
1557.94
1570.83
1584.33
1598.48
1613.27
1628.72
1644.84
1661.64
1679.13
1697.33
1716.23
1735.85
1756.2
1777.28
1799.11
1821.69
1845.02
1869.11
1893.97
1919.6
1946
1973.18
2001.13
2029.87
2059.39
2089.7
2120.79
2152.66
2185.32
2218.74
2252.94
2287.91
2323.63
2360.11
2397.33
2435.28
2473.96
2513.35
2553.45
2594.23
2635.69
2677.81
2720.57
2763.96
2807.96
2852.55
2897.72
2943.43
2989.69
3036.46
3083.74
3131.52
3179.78
3228.5
3277.67
3327.24
3377.21
3427.54
3478.22
3529.22
3580.51
3632.08
3683.91
3735.97
3788.24
3840.69
3893.3
3946.04
3998.89
4051.81
4104.79
4157.78
4210.77
4263.71
4316.58
4369.34
4421.95
4474.39
4526.63
4578.62
4630.35
4681.77
4732.86
4783.59
4833.91
4883.79
4933.18
4982.05
5030.34
5078.03
5125.08
5171.44
5217.08
5261.97
5306.07
5349.33
5391.72
5433.21
5473.76
5513.34
5551.92
5589.45
5625.91
5661.27
5695.49
5728.55
5760.41
5791.04
5820.41
5848.51
5875.29
5900.74
5924.83
5947.53
5968.83
5988.7
6007.12
6024.07
6039.54
6053.5
6065.95
6076.87
6086.26
6094.05
6100.38
6105
6108.02
6109.65
-2645.33
-2645.2
-2644.87
-2644.31
-2643.57
-2642.64
-2641.54
-2640.25
-2638.79
-2637.15
-2635.33
-2633.34
-2631.18
-2628.85
-2626.36
-2623.7
-2620.89
-2617.92
-2614.79
-2611.51
-2608.09
-2604.52
-2600.81
-2596.96
-2592.97
-2588.85
-2584.59
-2580.21
-2575.7
-2571.06
-2566.3
-2561.41
-2556.39
-2551.26
-2545.99
-2540.61
-2535.1
-2529.45
-2523.69
-2517.8
-2511.78
-2505.63
-2499.34
-2492.92
-2486.37
-2479.67
-2472.84
-2465.87
-2458.75
-2451.5
-2444.11
-2436.57
-2428.89
-2421.06
-2413.08
-2404.93
-2396.65
-2388.22
-2379.65
-2370.91
-2362.03
-2352.99
-2343.8
-2334.47
-2325
-2315.39
-2305.65
-2295.79
-2285.8
-2275.69
-2265.46
-2255.11
-2244.64
-2234.05
-2223.35
-2212.53
-2201.61
-2190.57
-2179.42
-2168.17
-2156.82
-2145.36
-2133.81
-2122.16
-2110.41
-2098.57
-2086.64
-2074.62
-2062.5
-2050.29
-2037.99
-2025.59
-2013.1
-2000.5
-1987.8
-1974.99
-1962.07
-1949.03
-1935.86
-1922.56
-1909.12
-1895.52
-1881.77
-1867.85
-1853.74
-1839.44
-1824.94
-1810.22
-1795.26
-1780.07
-1764.61
-1748.89
-1732.87
-1716.54
-1699.88
-1682.86
-1665.46
-1647.67
-1629.46
-1610.83
-1591.76
-1572.24
-1552.26
-1531.8
-1510.85
-1489.4
-1467.42
-1444.91
-1421.86
-1398.25
-1374.07
-1349.33
-1323.99
-1298.07
-1271.55
-1244.43
-1216.7
-1188.36
-1159.4
-1129.83
-1099.65
-1068.85
-1037.45
-1005.43
-972.812
-939.598
-905.797
-871.42
-836.48
-800.988
-764.957
-728.4
-691.327
-653.751
-615.682
-577.142
-538.15
-498.728
-458.893
-418.664
-378.063
-337.122
-295.85
-254.298
-212.525
-170.57
-128.454
-86.1928
-43.7993
-1.29829
41.2839
83.917
126.554
169.167
211.709
254.151
296.457
338.598
380.54
422.251
463.699
504.853
545.682
586.156
626.245
665.921
705.155
743.919
782.188
819.931
857.108
893.799
929.817
965.23
1000.02
1034.22
1067.65
1100.41
1132.48
1163.84
1194.48
1224.38
1253.54
1281.94
1309.59
1336.47
1362.58
1387.92
1412.49
1436.28
1459.3
1481.53
1502.99
1523.68
1543.59
1562.73
1581.11
1598.74
1615.63
1631.8
1647.29
1662.12
1676.25
1689.57
1702.34
1714.52
1726.09
1737
1747.1
1756.56
1765.28
1773.19
1780.32
1786.72
1792.42
1797.84
1802.81
1807.62
1812.16
1816.39
1820.24
1823.67
1826.66
1829.2
1831.32
1833.06
1834.45
1835.54
1836.36
1836.94
1837.29
1837.4
1837.21
1836.72
1835.89
1834.74
1833.28
1831.55
1829.58
1827.39
1825
1822.43
1819.68
1816.75
1813.66
1810.41
1807.02
1803.49
1799.85
1796.1
1792.25
1788.28
1784.21
1780.03
1775.73
1771.31
1766.79
1762.14
1757.39
1752.52
1747.53
1742.44
1737.23
1731.9
1726.46
1720.9
1715.23
1709.45
1703.57
1697.58
1691.5
1685.31
1679.04
1672.67
1666.21
1659.67
1653.05
1646.36
1639.61
1632.79
1625.91
1618.99
1612.04
1605.05
1598.04
1591.01
1583.98
1576.94
1569.92
1562.92
1555.95
1549.01
1542.13
1535.3
1528.54
1521.87
1515.29
1508.8
1502.43
1496.18
1490.06
1484.07
1478.24
1472.56
1467.05
1461.71
1456.55
1451.59
1446.83
1442.27
1437.94
1433.82
1429.94
1426.31
1422.92
1419.79
1416.92
1414.32
1412
1409.97
1408.23
1406.8
1405.67
1404.86
1404.37
1404.21
1404.39
1404.91
1405.79
1407.04
1408.65
1410.64
1413.01
1415.79
1418.97
1422.56
1426.57
1431.02
1435.91
1441.26
1447.07
1453.35
1460.12
1467.39
1475.17
1483.46
1492.28
1501.65
1511.57
1522.05
1533.12
1544.77
1557.03
1569.9
1583.39
1597.52
1612.3
1627.73
1643.84
1660.63
1678.1
1696.28
1715.17
1734.78
1755.11
1776.19
1798
1820.57
1843.89
1867.97
1892.82
1918.44
1944.84
1972.01
1999.97
2028.7
2058.22
2088.52
2119.61
2151.48
2184.13
2217.56
2251.76
2286.73
2322.46
2358.94
2396.16
2434.12
2472.81
2512.21
2552.31
2593.11
2634.58
2676.7
2719.48
2762.88
2806.9
2851.51
2896.7
2942.44
2988.73
3035.54
3082.86
3130.67
3178.97
3227.72
3276.91
3326.52
3376.52
3426.88
3477.59
3528.63
3579.96
3631.57
3683.44
3735.54
3787.85
3840.34
3892.99
3945.78
3998.66
4051.63
4104.65
4157.69
4210.71
4263.7
4316.62
4369.43
4422.1
4474.6
4526.89
4578.95
4630.74
4682.23
4733.38
4784.16
4834.53
4884.45
4933.89
4982.81
5031.16
5078.9
5126
5172.41
5218.11
5263.04
5307.17
5350.48
5392.91
5434.44
5475.04
5514.65
5553.26
5590.83
5627.33
5662.72
5696.97
5730.06
5761.94
5792.6
5822
5850.12
5876.93
5902.4
5926.51
5949.24
5970.56
5990.45
6008.89
6025.86
6041.34
6055.33
6067.79
6078.72
6088.11
6095.92
6102.19
6106.83
6109.85
6111.48
-2645.78
-2645.65
-2645.32
-2644.76
-2644.03
-2643.1
-2641.99
-2640.7
-2639.23
-2637.58
-2635.75
-2633.76
-2631.59
-2629.25
-2626.75
-2624.08
-2621.26
-2618.28
-2615.14
-2611.85
-2608.42
-2604.84
-2601.12
-2597.26
-2593.27
-2589.14
-2584.88
-2580.49
-2575.97
-2571.33
-2566.56
-2561.67
-2556.66
-2551.52
-2546.26
-2540.88
-2535.38
-2529.75
-2523.98
-2518.09
-2512.07
-2505.92
-2499.64
-2493.22
-2486.67
-2479.97
-2473.14
-2466.17
-2459.06
-2451.81
-2444.42
-2436.88
-2429.2
-2421.38
-2413.4
-2405.27
-2396.99
-2388.57
-2380
-2371.28
-2362.41
-2353.39
-2344.22
-2334.9
-2325.44
-2315.85
-2306.12
-2296.27
-2286.29
-2276.18
-2265.96
-2255.61
-2245.14
-2234.55
-2223.85
-2213.04
-2202.11
-2191.07
-2179.92
-2168.67
-2157.31
-2145.86
-2134.3
-2122.65
-2110.9
-2099.06
-2087.12
-2075.1
-2062.98
-2050.77
-2038.47
-2026.08
-2013.59
-2001
-1988.31
-1975.52
-1962.61
-1949.58
-1936.43
-1923.15
-1909.72
-1896.15
-1882.43
-1868.53
-1854.46
-1840.19
-1825.72
-1811.03
-1796.12
-1780.95
-1765.53
-1749.83
-1733.83
-1717.52
-1700.87
-1683.86
-1666.48
-1648.71
-1630.53
-1611.93
-1592.89
-1573.4
-1553.45
-1533.02
-1512.09
-1490.66
-1468.71
-1446.22
-1423.19
-1399.6
-1375.44
-1350.71
-1325.39
-1299.47
-1272.96
-1245.85
-1218.12
-1189.78
-1160.82
-1131.25
-1101.06
-1070.25
-1038.83
-1006.8
-974.171
-940.943
-907.128
-872.738
-837.781
-802.269
-766.209
-729.61
-692.481
-654.836
-616.692
-578.067
-538.984
-499.469
-459.543
-419.229
-378.55
-337.538
-296.234
-254.687
-212.917
-170.94
-128.782
-86.4628
-44.0114
-1.45065
41.1898
83.8783
126.579
169.255
211.866
254.377
296.752
338.961
380.97
422.748
464.261
505.48
546.371
586.905
627.052
666.782
706.067
744.878
783.184
820.937
858.011
894.717
930.875
966.38
1001.24
1035.45
1068.96
1101.78
1133.89
1165.29
1195.96
1225.9
1255.08
1283.51
1311.18
1338.09
1364.22
1389.58
1414.16
1437.96
1460.98
1483.22
1504.68
1525.35
1545.25
1564.38
1582.74
1600.34
1617.2
1633.31
1648.66
1663.23
1677.05
1690.15
1702.64
1714.46
1725.65
1736.27
1746.51
1756.16
1765.2
1773.55
1781.19
1788.05
1794.32
1800.04
1805.38
1810.14
1814.48
1818.42
1821.97
1825.13
1827.92
1830.33
1832.38
1834.07
1835.42
1836.46
1837.21
1837.68
1837.9
1837.86
1837.54
1836.93
1836.01
1834.79
1833.28
1831.52
1829.53
1827.34
1824.96
1822.4
1819.68
1816.79
1813.75
1810.55
1807.2
1803.72
1800.11
1796.38
1792.53
1788.58
1784.5
1780.32
1776.02
1771.6
1767.06
1762.41
1757.65
1752.78
1747.79
1742.69
1737.48
1732.14
1726.7
1721.13
1715.46
1709.68
1703.79
1697.79
1691.7
1685.5
1679.22
1672.83
1666.37
1659.81
1653.18
1646.47
1639.7
1632.86
1625.97
1619.03
1612.05
1605.04
1598
1590.95
1583.9
1576.84
1569.79
1562.76
1555.77
1548.81
1541.9
1535.06
1528.28
1521.59
1514.98
1508.48
1502.09
1495.82
1489.68
1483.68
1477.82
1472.13
1466.6
1461.24
1456.07
1451.08
1446.3
1441.73
1437.38
1433.25
1429.36
1425.71
1422.31
1419.16
1416.28
1413.67
1411.34
1409.3
1407.55
1406.1
1404.96
1404.13
1403.63
1403.46
1403.62
1404.14
1405
1406.23
1407.83
1409.8
1412.16
1414.92
1418.08
1421.65
1425.65
1430.08
1434.95
1440.28
1446.07
1452.33
1459.08
1466.32
1474.07
1482.34
1491.14
1500.48
1510.37
1520.83
1531.87
1543.5
1555.73
1568.57
1582.04
1596.14
1610.9
1626.31
1642.39
1659.15
1676.6
1694.75
1713.62
1733.2
1753.51
1774.56
1796.36
1818.9
1842.21
1866.28
1891.11
1916.72
1943.1
1970.26
1998.21
2026.94
2056.45
2086.75
2117.83
2149.7
2182.35
2215.78
2249.99
2284.96
2320.69
2357.18
2394.42
2432.39
2471.09
2510.5
2550.62
2591.43
2632.92
2675.07
2717.87
2761.3
2805.35
2849.99
2895.21
2941
2987.33
3034.19
3081.56
3129.43
3177.78
3226.58
3275.82
3325.47
3375.52
3425.93
3476.7
3527.78
3579.17
3630.84
3682.77
3734.93
3787.29
3839.84
3892.56
3945.4
3998.35
4051.38
4104.47
4157.57
4210.67
4263.73
4316.72
4369.6
4422.35
4474.93
4527.31
4579.46
4631.33
4682.91
4734.14
4785
4835.45
4885.46
4934.98
4983.97
5032.4
5080.23
5127.4
5173.89
5219.66
5264.66
5308.87
5352.24
5394.75
5436.35
5477
5516.68
5555.35
5592.98
5629.53
5664.98
5699.28
5732.42
5764.35
5795.05
5824.5
5852.66
5879.51
5905.02
5929.16
5951.92
5973.27
5993.19
6011.66
6028.65
6044.16
6058.16
6070.64
6081.58
6090.98
6098.81
6105.07
6109.73
6112.76
6114.39
-2646.37
-2646.24
-2645.91
-2645.36
-2644.62
-2643.69
-2642.57
-2641.27
-2639.79
-2638.13
-2636.3
-2634.29
-2632.1
-2629.75
-2627.24
-2624.56
-2621.72
-2618.72
-2615.57
-2612.27
-2608.83
-2605.24
-2601.5
-2597.64
-2593.63
-2589.49
-2585.23
-2580.83
-2576.31
-2571.67
-2566.89
-2562
-2556.98
-2551.84
-2546.58
-2541.19
-2535.65
-2530.03
-2524.29
-2518.41
-2512.4
-2506.26
-2499.98
-2493.57
-2487.03
-2480.34
-2473.52
-2466.56
-2459.46
-2452.22
-2444.83
-2437.3
-2429.63
-2421.81
-2413.84
-2405.71
-2397.45
-2389.03
-2380.47
-2371.76
-2362.9
-2353.89
-2344.74
-2335.44
-2326
-2316.42
-2306.71
-2296.87
-2286.9
-2276.81
-2266.59
-2256.25
-2245.78
-2235.2
-2224.5
-2213.69
-2202.76
-2191.72
-2180.58
-2169.32
-2157.97
-2146.51
-2134.95
-2123.29
-2111.54
-2099.7
-2087.77
-2075.74
-2063.63
-2051.42
-2039.13
-2026.74
-2014.26
-2001.68
-1989
-1976.22
-1963.32
-1950.31
-1937.19
-1923.93
-1910.53
-1896.99
-1883.29
-1869.43
-1855.39
-1841.16
-1826.72
-1812.07
-1797.19
-1782.06
-1766.67
-1751
-1735.04
-1718.76
-1702.15
-1685.18
-1667.84
-1650.1
-1631.97
-1613.4
-1594.41
-1574.96
-1555.04
-1534.65
-1513.76
-1492.36
-1470.44
-1447.98
-1424.97
-1401.4
-1377.27
-1352.55
-1327.25
-1301.35
-1274.85
-1247.74
-1220.02
-1191.68
-1162.72
-1133.14
-1102.94
-1072.12
-1040.69
-1008.64
-975.983
-942.726
-908.876
-874.441
-839.434
-803.865
-767.746
-731.089
-693.908
-656.217
-618.03
-579.367
-540.248
-500.692
-460.72
-420.355
-379.622
-338.552
-297.174
-255.522
-213.631
-171.533
-129.257
-86.8266
-44.2631
-1.59379
41.15
83.9353
126.727
169.488
212.185
254.781
297.244
339.541
381.638
423.503
465.104
506.407
547.383
588
628.229
668.04
707.405
746.299
784.699
822.597
860.054
896.718
932.764
968.241
1003.11
1037.33
1070.87
1103.73
1135.87
1167.3
1198
1227.96
1257.16
1285.61
1313.3
1340.21
1366.35
1391.71
1416.29
1440.08
1463.09
1485.32
1506.76
1527.43
1547.31
1566.43
1584.78
1602.37
1619.21
1635.31
1650.68
1665.36
1679.38
1692.76
1705.5
1717.6
1729.06
1739.88
1750.01
1759.34
1767.94
1775.82
1782.98
1789.49
1795.42
1800.87
1806.02
1810.81
1815.22
1819.24
1822.85
1826.06
1828.85
1831.25
1833.26
1834.92
1836.24
1837.24
1837.96
1838.39
1838.54
1838.43
1838.03
1837.36
1836.4
1835.17
1833.67
1831.94
1829.98
1827.81
1825.45
1822.9
1820.17
1817.27
1814.21
1810.99
1807.63
1804.13
1800.51
1796.76
1792.91
1788.93
1784.85
1780.66
1776.35
1771.93
1767.4
1762.75
1757.99
1753.11
1748.12
1743.02
1737.79
1732.46
1727
1721.44
1715.76
1709.97
1704.07
1698.06
1691.96
1685.75
1679.44
1673.04
1666.55
1659.98
1653.32
1646.59
1639.79
1632.93
1626.01
1619.05
1612.05
1605.01
1597.95
1590.87
1583.79
1576.71
1569.63
1562.58
1555.56
1548.58
1541.65
1534.77
1527.97
1521.25
1514.62
1508.09
1501.67
1495.38
1489.21
1483.18
1477.3
1471.58
1466.02
1460.64
1455.45
1450.44
1445.64
1441.05
1436.68
1432.53
1428.62
1424.95
1421.53
1418.36
1415.46
1412.84
1410.49
1408.43
1406.66
1405.2
1404.04
1403.2
1402.68
1402.49
1402.64
1403.13
1403.98
1405.19
1406.76
1408.72
1411.06
1413.79
1416.93
1420.48
1424.45
1428.85
1433.7
1439
1444.76
1450.99
1457.71
1464.92
1472.64
1480.87
1489.64
1498.94
1508.81
1519.23
1530.23
1541.83
1554.02
1566.83
1580.26
1594.32
1609.04
1624.41
1640.46
1657.18
1674.6
1692.72
1711.55
1731.11
1751.39
1772.41
1794.17
1816.69
1839.97
1864.02
1888.83
1914.42
1940.78
1967.93
1995.87
2024.59
2054.09
2084.39
2115.47
2147.34
2179.99
2213.43
2247.64
2282.62
2318.36
2354.86
2392.11
2430.1
2468.82
2508.26
2548.41
2589.25
2630.77
2672.96
2715.79
2759.26
2803.35
2848.04
2893.32
2939.16
2985.54
3032.46
3079.9
3127.83
3176.23
3225.1
3274.4
3324.11
3374.22
3424.7
3475.53
3526.69
3578.15
3629.89
3681.89
3734.12
3786.56
3839.19
3891.98
3944.9
3997.94
4051.05
4104.22
4157.41
4210.6
4263.75
4316.84
4369.82
4422.67
4475.36
4527.85
4580.1
4632.09
4683.77
4735.11
4786.08
4836.64
4886.75
4936.38
4985.48
5034.01
5081.93
5129.21
5175.8
5221.67
5266.77
5311.08
5354.54
5397.14
5438.83
5479.57
5519.33
5558.09
5595.79
5632.42
5667.93
5702.31
5735.51
5767.5
5798.26
5827.77
5855.98
5882.88
5908.43
5932.63
5955.43
5976.82
5996.77
6015.27
6032.3
6047.83
6061.85
6074.35
6085.31
6094.72
6102.56
6108.83
6113.51
6116.56
6118.2
-2647.12
-2646.99
-2646.67
-2646.12
-2645.38
-2644.43
-2643.3
-2641.99
-2640.5
-2638.82
-2636.97
-2634.94
-2632.75
-2630.38
-2627.84
-2625.15
-2622.29
-2619.28
-2616.11
-2612.8
-2609.34
-2605.73
-2601.99
-2598.11
-2594.1
-2589.95
-2585.68
-2581.27
-2576.75
-2572.09
-2567.32
-2562.42
-2557.41
-2552.27
-2547
-2541.62
-2536.12
-2530.49
-2524.73
-2518.85
-2512.85
-2506.71
-2500.44
-2494.04
-2487.5
-2480.83
-2474.02
-2467.07
-2459.97
-2452.74
-2445.36
-2437.84
-2430.17
-2422.36
-2414.4
-2406.29
-2398.03
-2389.63
-2381.08
-2372.38
-2363.53
-2354.54
-2345.4
-2336.12
-2326.7
-2317.14
-2307.45
-2297.62
-2287.66
-2277.58
-2267.37
-2257.04
-2246.58
-2236
-2225.31
-2214.49
-2203.57
-2192.53
-2181.38
-2170.13
-2158.77
-2147.31
-2135.75
-2124.09
-2112.34
-2100.5
-2088.56
-2076.54
-2064.42
-2052.22
-2039.93
-2027.55
-2015.08
-2002.51
-1989.85
-1977.08
-1964.21
-1951.22
-1938.12
-1924.89
-1911.53
-1898.03
-1884.37
-1870.55
-1856.55
-1842.36
-1827.98
-1813.37
-1798.54
-1783.46
-1768.12
-1752.5
-1736.58
-1720.34
-1703.77
-1686.84
-1669.54
-1651.86
-1633.77
-1615.25
-1596.31
-1576.9
-1557.04
-1536.69
-1515.84
-1494.48
-1472.59
-1450.17
-1427.2
-1403.66
-1379.55
-1354.86
-1329.58
-1303.69
-1277.21
-1250.1
-1222.39
-1194.05
-1165.09
-1135.5
-1105.29
-1074.46
-1043
-1010.93
-978.246
-944.958
-911.074
-876.604
-841.556
-805.942
-769.77
-733.052
-695.799
-658.026
-619.749
-580.988
-541.763
-502.097
-462.015
-421.542
-380.707
-339.54
-298.072
-256.338
-214.365
-172.181
-129.81
-87.2765
-44.6089
-1.83655
41.0101
83.8995
126.797
169.669
212.477
255.187
297.764
340.173
382.382
424.357
466.065
507.475
548.554
589.272
629.598
669.503
708.959
747.937
786.413
824.369
861.796
898.524
934.765
970.355
1005.3
1039.59
1073.19
1106.1
1138.3
1169.78
1200.52
1230.51
1259.75
1288.23
1315.94
1342.87
1369.02
1394.39
1418.97
1442.77
1465.78
1488
1509.43
1530.08
1549.95
1569.05
1587.38
1604.94
1621.76
1637.83
1653.17
1667.79
1681.68
1694.84
1707.28
1719.04
1730.15
1740.64
1750.53
1759.85
1768.59
1776.72
1784.23
1791.12
1797.39
1803.17
1808.43
1813.17
1817.45
1821.3
1824.74
1827.79
1830.46
1832.75
1834.68
1836.26
1837.51
1838.44
1839.06
1839.39
1839.45
1839.24
1838.76
1838.01
1836.99
1835.71
1834.18
1832.41
1830.42
1828.22
1825.83
1823.25
1820.51
1817.6
1814.54
1811.34
1807.99
1804.51
1800.9
1797.18
1793.33
1789.37
1785.29
1781.1
1776.79
1772.37
1767.83
1763.18
1758.41
1753.53
1748.54
1743.42
1738.2
1732.85
1727.39
1721.82
1716.13
1710.33
1704.41
1698.39
1692.27
1686.04
1679.72
1673.3
1666.79
1660.19
1653.51
1646.76
1639.93
1633.04
1626.1
1619.1
1612.06
1604.99
1597.9
1590.79
1583.67
1576.55
1569.44
1562.35
1555.29
1548.28
1541.31
1534.4
1527.57
1520.81
1514.15
1507.58
1501.13
1494.8
1488.6
1482.54
1476.63
1470.88
1465.29
1459.88
1454.66
1449.62
1444.8
1440.18
1435.78
1431.61
1427.67
1423.98
1420.54
1417.35
1414.43
1411.78
1409.41
1407.33
1405.55
1404.06
1402.88
1402.02
1401.48
1401.27
1401.39
1401.87
1402.69
1403.87
1405.43
1407.35
1409.67
1412.37
1415.48
1419
1422.94
1427.32
1432.13
1437.39
1443.12
1449.31
1455.99
1463.17
1470.84
1479.04
1487.76
1497.03
1506.85
1517.23
1528.19
1539.74
1551.89
1564.65
1578.03
1592.06
1606.73
1622.06
1638.06
1654.74
1672.12
1690.19
1708.99
1728.5
1748.74
1769.73
1791.46
1813.94
1837.19
1861.21
1886
1911.56
1937.91
1965.04
1992.96
2021.66
2051.16
2081.45
2112.53
2144.4
2177.05
2210.49
2244.7
2279.7
2315.45
2351.97
2389.24
2427.26
2466
2505.47
2545.65
2586.52
2628.08
2670.31
2713.19
2756.71
2800.85
2845.6
2890.93
2936.83
2983.29
3030.28
3077.78
3125.78
3174.27
3223.21
3272.59
3322.38
3372.57
3423.14
3474.05
3525.29
3576.84
3628.67
3680.76
3733.08
3785.62
3838.35
3891.23
3944.26
3997.4
4050.62
4103.89
4157.2
4210.5
4263.77
4316.97
4370.08
4423.06
4475.87
4528.49
4580.88
4633
4684.82
4736.31
4787.42
4838.11
4888.36
4938.12
4987.35
5036.01
5084.07
5131.47
5178.19
5224.18
5269.41
5313.84
5357.43
5400.14
5441.94
5482.79
5522.66
5561.52
5599.32
5636.04
5671.65
5706.11
5739.39
5771.47
5802.3
5831.88
5860.16
5887.12
5912.74
5936.99
5959.84
5981.28
6001.28
6019.82
6036.88
6052.45
6066.5
6079.03
6090.01
6099.44
6107.29
6113.57
6118.27
6121.34
6122.99
-2648.01
-2647.89
-2647.56
-2647.01
-2646.27
-2645.31
-2644.17
-2642.84
-2641.33
-2639.64
-2637.77
-2635.73
-2633.51
-2631.12
-2628.57
-2625.86
-2622.98
-2619.95
-2616.76
-2613.43
-2609.95
-2606.33
-2602.58
-2598.68
-2594.65
-2590.5
-2586.21
-2581.8
-2577.26
-2572.61
-2567.83
-2562.93
-2557.91
-2552.77
-2547.5
-2542.11
-2536.57
-2530.99
-2525.25
-2519.38
-2513.38
-2507.25
-2500.99
-2494.6
-2488.07
-2481.41
-2474.61
-2467.67
-2460.59
-2453.37
-2446
-2438.49
-2430.83
-2423.03
-2415.08
-2406.99
-2398.74
-2390.35
-2381.82
-2373.13
-2364.3
-2355.33
-2346.21
-2336.94
-2327.54
-2318
-2308.32
-2298.51
-2288.57
-2278.49
-2268.29
-2257.97
-2247.52
-2236.95
-2226.26
-2215.45
-2204.53
-2193.49
-2182.34
-2171.09
-2159.73
-2148.26
-2136.7
-2125.04
-2113.29
-2101.44
-2089.51
-2077.48
-2065.37
-2053.17
-2040.89
-2028.52
-2016.06
-2003.5
-1990.86
-1978.11
-1965.27
-1952.31
-1939.24
-1926.04
-1912.72
-1899.26
-1885.64
-1871.87
-1857.92
-1843.79
-1829.45
-1814.9
-1800.12
-1785.1
-1769.81
-1754.25
-1738.38
-1722.2
-1705.69
-1688.82
-1671.59
-1653.96
-1635.93
-1617.48
-1598.59
-1579.24
-1559.43
-1539.13
-1518.34
-1497.03
-1475.19
-1452.81
-1429.87
-1406.37
-1382.29
-1357.63
-1332.37
-1306.51
-1280.04
-1252.95
-1225.24
-1196.9
-1167.94
-1138.34
-1108.12
-1077.27
-1045.79
-1013.69
-980.968
-947.64
-913.708
-879.181
-844.07
-808.384
-772.136
-735.338
-698.005
-660.151
-621.794
-582.953
-543.648
-503.901
-463.734
-423.171
-382.238
-340.965
-299.382
-257.519
-215.408
-173.078
-130.558
-87.8758
-45.0602
-2.14025
40.8534
83.8877
126.928
169.94
212.887
255.736
298.451
340.998
383.344
425.455
467.298
508.839
550.049
590.894
631.344
671.369
710.942
750.034
788.622
826.685
864.214
901.254
937.376
973.004
1008.01
1042.37
1076.03
1109
1141.26
1172.78
1203.57
1233.6
1262.88
1291.39
1319.12
1346.07
1372.24
1397.62
1422.2
1446
1469
1491.21
1512.63
1533.26
1553.11
1572.18
1590.48
1608.02
1624.8
1640.84
1656.14
1670.71
1684.58
1697.76
1710.3
1722.21
1733.48
1744.1
1754.05
1763.32
1771.88
1779.76
1786.97
1793.58
1799.64
1805.18
1810.26
1814.91
1819.16
1822.98
1826.4
1829.4
1832.02
1834.25
1836.11
1837.62
1838.8
1839.66
1840.21
1840.48
1840.46
1840.18
1839.62
1838.81
1837.73
1836.41
1834.84
1833.05
1831.05
1828.84
1826.44
1823.87
1821.12
1818.21
1815.15
1811.94
1808.58
1805.09
1801.48
1797.74
1793.88
1789.91
1785.82
1781.62
1777.3
1772.87
1768.33
1763.68
1758.9
1754.02
1749.02
1743.9
1738.66
1733.31
1727.84
1722.26
1716.56
1710.75
1704.82
1698.79
1692.65
1686.4
1680.05
1673.61
1667.07
1660.45
1653.74
1646.95
1640.09
1633.17
1626.19
1619.16
1612.08
1604.98
1597.84
1590.69
1583.53
1576.37
1569.22
1562.09
1554.99
1547.93
1540.92
1533.97
1527.1
1520.3
1513.59
1506.99
1500.5
1494.13
1487.89
1481.79
1475.84
1470.04
1464.42
1458.98
1453.72
1448.65
1443.79
1439.14
1434.72
1430.51
1426.55
1422.83
1419.36
1416.14
1413.2
1410.52
1408.13
1406.02
1404.21
1402.7
1401.5
1400.61
1400.04
1399.81
1399.91
1400.35
1401.15
1402.3
1403.82
1405.72
1408
1410.67
1413.75
1417.23
1421.14
1425.47
1430.24
1435.47
1441.15
1447.3
1453.93
1461.06
1468.69
1476.84
1485.51
1494.73
1504.5
1514.83
1525.73
1537.23
1549.32
1562.03
1575.36
1589.33
1603.94
1619.22
1635.17
1651.8
1669.13
1687.15
1705.9
1725.36
1745.56
1766.5
1788.19
1810.64
1833.85
1857.83
1882.59
1908.12
1934.44
1961.55
1989.45
2018.15
2047.63
2077.91
2108.99
2140.85
2173.51
2206.96
2241.18
2276.19
2311.96
2348.5
2385.8
2423.84
2462.62
2502.13
2542.35
2583.27
2624.87
2667.15
2710.09
2753.67
2797.88
2842.69
2888.1
2934.08
2980.61
3027.69
3075.28
3123.37
3171.94
3220.97
3270.44
3320.33
3370.62
3421.28
3472.29
3523.63
3575.28
3627.21
3679.41
3731.85
3784.5
3837.34
3890.34
3943.49
3996.75
4050.09
4103.5
4156.93
4210.37
4263.78
4317.13
4370.38
4423.51
4476.48
4529.25
4581.8
4634.08
4686.07
4737.71
4788.98
4839.85
4890.25
4940.17
4989.56
5038.39
5086.6
5134.16
5181.03
5227.18
5272.56
5317.13
5360.86
5403.72
5445.65
5486.64
5526.64
5565.62
5603.55
5640.39
5676.1
5710.67
5744.06
5776.23
5807.17
5836.83
5865.19
5892.24
5917.93
5942.25
5965.17
5986.67
6006.72
6025.32
6042.43
6058.04
6072.14
6084.7
6095.71
6105.16
6113.04
6119.33
6124.04
6127.14
6128.8
-2649.06
-2648.93
-2648.6
-2648.05
-2647.3
-2646.33
-2645.18
-2643.83
-2642.3
-2640.59
-2638.71
-2636.64
-2634.4
-2632
-2629.42
-2626.68
-2623.79
-2620.73
-2617.53
-2614.17
-2610.68
-2607.04
-2603.26
-2599.35
-2595.31
-2591.14
-2586.84
-2582.42
-2577.88
-2573.21
-2568.43
-2563.52
-2558.5
-2553.36
-2548.1
-2542.73
-2537.27
-2531.61
-2525.86
-2520
-2514
-2507.89
-2501.64
-2495.26