/*--------------------------------*- C++ -*----------------------------------*\
| =========                 |                                                 |
| \\      /  F ield         | OpenFOAM: The Open Source CFD Toolbox           |
|  \\    /   O peration     | Version:  v2006                                 |
|   \\  /    A nd           | Website:  www.openfoam.com                      |
|    \\/     M anipulation  |                                                 |
\*---------------------------------------------------------------------------*/
FoamFile
{
    version     2.0;
    format      ascii;
    class       volVectorField;
    location    "0";
    object      U;
}
// * * * * * * * * * * * * * * * * * * * * * * * * * * * * * * * * * * * * * //

dimensions      [0 1 -1 0 0 0 0];


internalField   nonuniform List<vector> 
67500
(
(0.0119085 -0.00550539 0)
(0.0149206 -0.0176546 0)
(0.0701423 -0.0203442 0)
(0.109552 -0.0189415 0)
(0.142504 -0.0172342 0)
(0.17512 -0.0162056 0)
(0.20773 -0.0157947 0)
(0.239475 -0.0156611 0)
(0.270576 -0.0155388 0)
(0.30141 -0.015338 0)
(0.331884 -0.0150682 0)
(0.361765 -0.0147516 0)
(0.390942 -0.0143984 0)
(0.419374 -0.014013 0)
(0.447009 -0.0135991 0)
(0.473789 -0.0131609 0)
(0.499666 -0.0127027 0)
(0.524607 -0.0122298 0)
(0.548588 -0.0117471 0)
(0.571595 -0.0112598 0)
(0.593623 -0.0107722 0)
(0.614676 -0.0102883 0)
(0.634766 -0.0098114 0)
(0.653909 -0.00934432 0)
(0.672128 -0.00888927 0)
(0.68945 -0.00844798 0)
(0.705903 -0.00802172 0)
(0.721518 -0.0076114 0)
(0.73633 -0.00721758 0)
(0.75037 -0.00684054 0)
(0.763673 -0.00648035 0)
(0.776273 -0.00613688 0)
(0.788203 -0.00580988 0)
(0.799495 -0.00549896 0)
(0.810182 -0.00520367 0)
(0.820294 -0.0049235 0)
(0.82986 -0.00465787 0)
(0.83891 -0.00440621 0)
(0.847471 -0.00416791 0)
(0.855569 -0.00394238 0)
(0.863228 -0.003729 0)
(0.870473 -0.00352719 0)
(0.877325 -0.00333637 0)
(0.883807 -0.00315597 0)
(0.889939 -0.00298546 0)
(0.895739 -0.0028243 0)
(0.901227 -0.00267201 0)
(0.906419 -0.00252809 0)
(0.911331 -0.0023921 0)
(0.91598 -0.00226359 0)
(0.920378 -0.00214216 0)
(0.924541 -0.00202741 0)
(0.928482 -0.00191897 0)
(0.932211 -0.00181648 0)
(0.935742 -0.00171962 0)
(0.939084 -0.00162806 0)
(0.942249 -0.00154152 0)
(0.945245 -0.00145971 0)
(0.948083 -0.00138236 0)
(0.950771 -0.00130923 0)
(0.953316 -0.00124008 0)
(0.955727 -0.00117467 0)
(0.958011 -0.00111281 0)
(0.960175 -0.00105429 0)
(0.962225 -0.00099891 0)
(0.964167 -0.000946503 0)
(0.966008 -0.000896896 0)
(0.967752 -0.000849929 0)
(0.969405 -0.000805453 0)
(0.970972 -0.000763326 0)
(0.972456 -0.000723414 0)
(0.973863 -0.000685594 0)
(0.975197 -0.00064975 0)
(0.97646 -0.000615772 0)
(0.977658 -0.000583559 0)
(0.978793 -0.000553017 0)
(0.979868 -0.000524056 0)
(0.980887 -0.000496595 0)
(0.981853 -0.000470555 0)
(0.982768 -0.000445865 0)
(0.983635 -0.000422456 0)
(0.984457 -0.000400263 0)
(0.985235 -0.000379225 0)
(0.985972 -0.000359285 0)
(0.986671 -0.000340386 0)
(0.987333 -0.000322477 0)
(0.98796 -0.000305507 0)
(0.988554 -0.000289429 0)
(0.989117 -0.000274196 0)
(0.98965 -0.000259767 0)
(0.990155 -0.0002461 0)
(0.990634 -0.000233157 0)
(0.991087 -0.0002209 0)
(0.991516 -0.000209295 0)
(0.991923 -0.000198309 0)
(0.992309 -0.00018791 0)
(0.992675 -0.000178069 0)
(0.993021 -0.000168757 0)
(0.993349 -0.000159948 0)
(0.99366 -0.000151614 0)
(0.993955 -0.000143733 0)
(0.994235 -0.000136279 0)
(0.9945 -0.000129231 0)
(0.994751 -0.000122567 0)
(0.99499 -0.000116266 0)
(0.995216 -0.000110309 0)
(0.99543 -0.000104675 0)
(0.995634 -9.9348e-05 0)
(0.995828 -9.43097e-05 0)
(0.996011 -8.95439e-05 0)
(0.996185 -8.5035e-05 0)
(0.996351 -8.07684e-05 0)
(0.996508 -7.67301e-05 0)
(0.996658 -7.2907e-05 0)
(0.9968 -6.92868e-05 0)
(0.996935 -6.5858e-05 0)
(0.997063 -6.26098e-05 0)
(0.997185 -5.95319e-05 0)
(0.997301 -5.6615e-05 0)
(0.997411 -5.38501e-05 0)
(0.997516 -5.1229e-05 0)
(0.997616 -4.87437e-05 0)
(0.997711 -4.63871e-05 0)
(0.997801 -4.41523e-05 0)
(0.997887 -4.20328e-05 0)
(0.997969 -4.00225e-05 0)
(0.998047 -3.81157e-05 0)
(0.998122 -3.6307e-05 0)
(0.998193 -3.45912e-05 0)
(0.99826 -3.29636e-05 0)
(0.998324 -3.14195e-05 0)
(0.998386 -2.99545e-05 0)
(0.998444 -2.85645e-05 0)
(0.9985 -2.72456e-05 0)
(0.998553 -2.59941e-05 0)
(0.998604 -2.48064e-05 0)
(0.998652 -2.36791e-05 0)
(0.998698 -2.2609e-05 0)
(0.998742 -2.15932e-05 0)
(0.998785 -2.06286e-05 0)
(0.998825 -1.97127e-05 0)
(0.998863 -1.88427e-05 0)
(0.9989 -1.80164e-05 0)
(0.998935 -1.72312e-05 0)
(0.998969 -1.64851e-05 0)
(0.999001 -1.5776e-05 0)
(0.999032 -1.51019e-05 0)
(0.999062 -1.4461e-05 0)
(0.99909 -1.38515e-05 0)
(0.999117 -1.32719e-05 0)
(0.999143 -1.27204e-05 0)
(0.999168 -1.21958e-05 0)
(0.999192 -1.16967e-05 0)
(0.999215 -1.12217e-05 0)
(0.999237 -1.07697e-05 0)
(0.999258 -1.03394e-05 0)
(0.999278 -9.92999e-06 0)
(0.999297 -9.54029e-06 0)
(0.999316 -9.16941e-06 0)
(0.999334 -8.81645e-06 0)
(0.999351 -8.48058e-06 0)
(0.999368 -8.16101e-06 0)
(0.999384 -7.85699e-06 0)
(0.999399 -7.56782e-06 0)
(0.999414 -7.29282e-06 0)
(0.999429 -7.03137e-06 0)
(0.999442 -6.78285e-06 0)
(0.999456 -6.54669e-06 0)
(0.999469 -6.32234e-06 0)
(0.999481 -6.10927e-06 0)
(0.999493 -5.90698e-06 0)
(0.999505 -5.71498e-06 0)
(0.999516 -5.53282e-06 0)
(0.999527 -5.36003e-06 0)
(0.999537 -5.19619e-06 0)
(0.999548 -5.04088e-06 0)
(0.999557 -4.8937e-06 0)
(0.999567 -4.75425e-06 0)
(0.999576 -4.62215e-06 0)
(0.999586 -4.49704e-06 0)
(0.999594 -4.37857e-06 0)
(0.999603 -4.26638e-06 0)
(0.999611 -4.16014e-06 0)
(0.99962 -4.05953e-06 0)
(0.999628 -3.96422e-06 0)
(0.999636 -3.87392e-06 0)
(0.999643 -3.78832e-06 0)
(0.999651 -3.70713e-06 0)
(0.999658 -3.63008e-06 0)
(0.999665 -3.55688e-06 0)
(0.999672 -3.48728e-06 0)
(0.999679 -3.42103e-06 0)
(0.999686 -3.35786e-06 0)
(0.999693 -3.29754e-06 0)
(0.999699 -3.23984e-06 0)
(0.999706 -3.18454e-06 0)
(0.999712 -3.1314e-06 0)
(0.999718 -3.08023e-06 0)
(0.999724 -3.03082e-06 0)
(0.99973 -2.98298e-06 0)
(0.999736 -2.93651e-06 0)
(0.999742 -2.89123e-06 0)
(0.999748 -2.84697e-06 0)
(0.999753 -2.80357e-06 0)
(0.999759 -2.76086e-06 0)
(0.999764 -2.7187e-06 0)
(0.99977 -2.67693e-06 0)
(0.999775 -2.63544e-06 0)
(0.99978 -2.5941e-06 0)
(0.999785 -2.55279e-06 0)
(0.999791 -2.51143e-06 0)
(0.999795 -2.46991e-06 0)
(0.9998 -2.42817e-06 0)
(0.999805 -2.38613e-06 0)
(0.99981 -2.34376e-06 0)
(0.999815 -2.30101e-06 0)
(0.999819 -2.25786e-06 0)
(0.999824 -2.2143e-06 0)
(0.999828 -2.17032e-06 0)
(0.999832 -2.12595e-06 0)
(0.999836 -2.08121e-06 0)
(0.999841 -2.03613e-06 0)
(0.999845 -1.99078e-06 0)
(0.999849 -1.94519e-06 0)
(0.999852 -1.89946e-06 0)
(0.999856 -1.85365e-06 0)
(0.99986 -1.80787e-06 0)
(0.999863 -1.7622e-06 0)
(0.999867 -1.71675e-06 0)
(0.99987 -1.67163e-06 0)
(0.999874 -1.62695e-06 0)
(0.999877 -1.58282e-06 0)
(0.99988 -1.53935e-06 0)
(0.999883 -1.49662e-06 0)
(0.999886 -1.45473e-06 0)
(0.999889 -1.41371e-06 0)
(0.999892 -1.37362e-06 0)
(0.999894 -1.33445e-06 0)
(0.999897 -1.2962e-06 0)
(0.999899 -1.25881e-06 0)
(0.999902 -1.22223e-06 0)
(0.999904 -1.18638e-06 0)
(0.999907 -1.1512e-06 0)
(0.999909 -1.11662e-06 0)
(0.999911 -1.0826e-06 0)
(0.999913 -1.04915e-06 0)
(0.999915 -1.01629e-06 0)
(0.999917 -9.84094e-07 0)
(0.999919 -9.52669e-07 0)
(0.999921 -9.22142e-07 0)
(0.999923 -8.92653e-07 0)
(0.999925 -8.64334e-07 0)
(0.999926 -8.37302e-07 0)
(0.999928 -8.11639e-07 0)
(0.99993 -7.87387e-07 0)
(0.999931 -7.64545e-07 0)
(0.999933 -7.43069e-07 0)
(0.999934 -7.22874e-07 0)
(0.999936 -7.03849e-07 0)
(0.999937 -6.8586e-07 0)
(0.999938 -6.68763e-07 0)
(0.99994 -6.52413e-07 0)
(0.999941 -6.36671e-07 0)
(0.999942 -6.21412e-07 0)
(0.999943 -6.06528e-07 0)
(0.999945 -5.91928e-07 0)
(0.999946 -5.77545e-07 0)
(0.999947 -5.63327e-07 0)
(0.999948 -5.49242e-07 0)
(0.999949 -5.35273e-07 0)
(0.99995 -5.21416e-07 0)
(0.999951 -5.07676e-07 0)
(0.999952 -4.94068e-07 0)
(0.999953 -4.80611e-07 0)
(0.999954 -4.67327e-07 0)
(0.999955 -4.54239e-07 0)
(0.999956 -4.41372e-07 0)
(0.999957 -4.28748e-07 0)
(0.999958 -4.16389e-07 0)
(0.999958 -4.04314e-07 0)
(0.999959 -3.92539e-07 0)
(0.99996 -3.81076e-07 0)
(0.999961 -3.69938e-07 0)
(0.999962 -3.59131e-07 0)
(0.999962 -3.4866e-07 0)
(0.999963 -3.38529e-07 0)
(0.999964 -3.28736e-07 0)
(0.999964 -3.19282e-07 0)
(0.999965 -3.10161e-07 0)
(0.999965 -3.0137e-07 0)
(0.999966 -2.92903e-07 0)
(0.999967 -2.84751e-07 0)
(0.999967 -2.76907e-07 0)
(0.999968 -2.69363e-07 0)
(0.999968 -2.62108e-07 0)
(0.999969 -2.55134e-07 0)
(0.999969 -2.4843e-07 0)
(0.99997 -2.41986e-07 0)
(0.99997 -2.35793e-07 0)
(0.999971 -2.2984e-07 0)
(0.999971 -2.24118e-07 0)
(0.999972 -2.18617e-07 0)
(0.999972 -2.13327e-07 0)
(0.999973 -2.08238e-07 0)
(0.999973 -2.03343e-07 0)
(0.999973 -1.98632e-07 0)
(0.999974 -1.94096e-07 0)
(0.999974 -1.89728e-07 0)
(0.999974 -1.8552e-07 0)
(0.999975 -1.81464e-07 0)
(0.999975 -1.77553e-07 0)
(0.999976 -1.7378e-07 0)
(0.999976 -1.70139e-07 0)
(0.999976 -1.66622e-07 0)
(0.999977 -1.63225e-07 0)
(0.999977 -1.59942e-07 0)
(0.999977 -1.56767e-07 0)
(0.999978 -1.53695e-07 0)
(0.999978 -1.5072e-07 0)
(0.999978 -1.47839e-07 0)
(0.999978 -1.45047e-07 0)
(0.999979 -1.4234e-07 0)
(0.999979 -1.39713e-07 0)
(0.999979 -1.37164e-07 0)
(0.99998 -1.34687e-07 0)
(0.99998 -1.32281e-07 0)
(0.99998 -1.29941e-07 0)
(0.99998 -1.27665e-07 0)
(0.999981 -1.2545e-07 0)
(0.999981 -1.23293e-07 0)
(0.999981 -1.21191e-07 0)
(0.999981 -1.19143e-07 0)
(0.999982 -1.17145e-07 0)
(0.999982 -1.15195e-07 0)
(0.999982 -1.13292e-07 0)
(0.999982 -1.11433e-07 0)
(0.999982 -1.09617e-07 0)
(0.999983 -1.07841e-07 0)
(0.999983 -1.06104e-07 0)
(0.999983 -1.04405e-07 0)
(0.999983 -1.02742e-07 0)
(0.999983 -1.01113e-07 0)
(0.999984 -9.9517e-08 0)
(0.999984 -9.79529e-08 0)
(0.999984 -9.64194e-08 0)
(0.999984 -9.49153e-08 0)
(0.999984 -9.34395e-08 0)
(0.999985 -9.19911e-08 0)
(0.999985 -9.0569e-08 0)
(0.999985 -8.91722e-08 0)
(0.999985 -8.77998e-08 0)
(0.999985 -8.6451e-08 0)
(0.999986 -8.51249e-08 0)
(0.999986 -8.38207e-08 0)
(0.999986 -8.25377e-08 0)
(0.999986 -8.12753e-08 0)
(0.999986 -8.00328e-08 0)
(0.999986 -7.88095e-08 0)
(0.999987 -7.76049e-08 0)
(0.999987 -7.64183e-08 0)
(0.999987 -7.52492e-08 0)
(0.999987 -7.40972e-08 0)
(0.999987 -7.29616e-08 0)
(0.999987 -7.18421e-08 0)
(0.999987 -7.07381e-08 0)
(0.999988 -6.96492e-08 0)
(0.999988 -6.8575e-08 0)
(0.999988 -6.75151e-08 0)
(0.999988 -6.6469e-08 0)
(0.999988 -6.54365e-08 0)
(0.999988 -6.44172e-08 0)
(0.999988 -6.34106e-08 0)
(0.999988 -6.24166e-08 0)
(0.999989 -6.14348e-08 0)
(0.999989 -6.04649e-08 0)
(0.999989 -5.95066e-08 0)
(0.999989 -5.85596e-08 0)
(0.999989 -5.76237e-08 0)
(0.999989 -5.66985e-08 0)
(0.999989 -5.57838e-08 0)
(0.999989 -5.48794e-08 0)
(0.99999 -5.39851e-08 0)
(0.99999 -5.31006e-08 0)
(0.99999 -5.22257e-08 0)
(0.99999 -5.13601e-08 0)
(0.99999 -5.05038e-08 0)
(0.99999 -4.96564e-08 0)
(0.99999 -4.88178e-08 0)
(0.99999 -4.79878e-08 0)
(0.99999 -4.71663e-08 0)
(0.99999 -4.6353e-08 0)
(0.999991 -4.55477e-08 0)
(0.999991 -4.47503e-08 0)
(0.999991 -4.39606e-08 0)
(0.999991 -4.31784e-08 0)
(0.999991 -4.24037e-08 0)
(0.999991 -4.16362e-08 0)
(0.999991 -4.08758e-08 0)
(0.999991 -4.01224e-08 0)
(0.999991 -3.93757e-08 0)
(0.999991 -3.86356e-08 0)
(0.999991 -3.7902e-08 0)
(0.999991 -3.71748e-08 0)
(0.999991 -3.64539e-08 0)
(0.999992 -3.5739e-08 0)
(0.999992 -3.50302e-08 0)
(0.999992 -3.43271e-08 0)
(0.999992 -3.36298e-08 0)
(0.999992 -3.29381e-08 0)
(0.999992 -3.22518e-08 0)
(0.999992 -3.15709e-08 0)
(0.999992 -3.08952e-08 0)
(0.999992 -3.02246e-08 0)
(0.999992 -2.9559e-08 0)
(0.999992 -2.88982e-08 0)
(0.999992 -2.82422e-08 0)
(0.999992 -2.75908e-08 0)
(0.999992 -2.6944e-08 0)
(0.999992 -2.63016e-08 0)
(0.999992 -2.56635e-08 0)
(0.999993 -2.50297e-08 0)
(0.999993 -2.44e-08 0)
(0.999993 -2.37743e-08 0)
(0.999993 -2.31524e-08 0)
(0.999993 -2.25344e-08 0)
(0.999993 -2.192e-08 0)
(0.999993 -2.13092e-08 0)
(0.999993 -2.07019e-08 0)
(0.999993 -2.0098e-08 0)
(0.999993 -1.94973e-08 0)
(0.999993 -1.88999e-08 0)
(0.999993 -1.83056e-08 0)
(0.999993 -1.77143e-08 0)
(0.999993 -1.71259e-08 0)
(0.999993 -1.65404e-08 0)
(0.999993 -1.59575e-08 0)
(0.999993 -1.53773e-08 0)
(0.999993 -1.47996e-08 0)
(0.999993 -1.42244e-08 0)
(0.999993 -1.36515e-08 0)
(0.999993 -1.30808e-08 0)
(0.999993 -1.25124e-08 0)
(0.999993 -1.19461e-08 0)
(0.999993 -1.13818e-08 0)
(0.999993 -1.08197e-08 0)
(0.999993 -1.0258e-08 0)
(0.999993 -9.70379e-09 0)
(0.999993 -9.12727e-09 0)
(0.999993 -8.65316e-09 0)
(0.999993 -7.7553e-09 0)
(0.0114792 -0.0164526 0)
(0.0147522 -0.052862 0)
(0.0699521 -0.0611945 0)
(0.109325 -0.0569446 0)
(0.142611 -0.0517005 0)
(0.175484 -0.0486149 0)
(0.208124 -0.0474137 0)
(0.239864 -0.0470149 0)
(0.271016 -0.046642 0)
(0.301923 -0.0460411 0)
(0.332465 -0.0452348 0)
(0.362412 -0.0442846 0)
(0.391657 -0.043222 0)
(0.420151 -0.0420619 0)
(0.44784 -0.0408157 0)
(0.474664 -0.0394958 0)
(0.500576 -0.0381162 0)
(0.525541 -0.0366922 0)
(0.549536 -0.0352397 0)
(0.572548 -0.0337735 0)
(0.594573 -0.0323071 0)
(0.615615 -0.0308524 0)
(0.635688 -0.0294194 0)
(0.65481 -0.0280163 0)
(0.673004 -0.0266499 0)
(0.690297 -0.0253252 0)
(0.706719 -0.024046 0)
(0.722303 -0.0228149 0)
(0.737082 -0.0216335 0)
(0.751089 -0.0205027 0)
(0.764359 -0.0194225 0)
(0.776927 -0.0183927 0)
(0.788825 -0.0174123 0)
(0.800086 -0.0164803 0)
(0.810743 -0.0155952 0)
(0.820826 -0.0147554 0)
(0.830365 -0.0139593 0)
(0.839388 -0.013205 0)
(0.847923 -0.0124908 0)
(0.855997 -0.0118149 0)
(0.863633 -0.0111755 0)
(0.870856 -0.0105707 0)
(0.877688 -0.00999883 0)
(0.88415 -0.00945823 0)
(0.890263 -0.00894724 0)
(0.896046 -0.0084643 0)
(0.901517 -0.00800792 0)
(0.906693 -0.00757664 0)
(0.91159 -0.0071691 0)
(0.916224 -0.00678399 0)
(0.92061 -0.00642008 0)
(0.92476 -0.00607619 0)
(0.928688 -0.0057512 0)
(0.932407 -0.00544406 0)
(0.935927 -0.00515378 0)
(0.939259 -0.00487941 0)
(0.942414 -0.00462005 0)
(0.945402 -0.00437487 0)
(0.948231 -0.00414307 0)
(0.950911 -0.0039239 0)
(0.953449 -0.00371665 0)
(0.955852 -0.00352064 0)
(0.95813 -0.00333524 0)
(0.960287 -0.00315984 0)
(0.962331 -0.00299388 0)
(0.964268 -0.00283682 0)
(0.966103 -0.00268815 0)
(0.967843 -0.00254739 0)
(0.969491 -0.0024141 0)
(0.971053 -0.00228784 0)
(0.972533 -0.00216822 0)
(0.973936 -0.00205487 0)
(0.975266 -0.00194744 0)
(0.976526 -0.0018456 0)
(0.97772 -0.00174906 0)
(0.978852 -0.00165751 0)
(0.979924 -0.00157071 0)
(0.98094 -0.0014884 0)
(0.981903 -0.00141035 0)
(0.982816 -0.00133634 0)
(0.983681 -0.00126618 0)
(0.9845 -0.00119966 0)
(0.985276 -0.0011366 0)
(0.986011 -0.00107683 0)
(0.986708 -0.00102019 0)
(0.987368 -0.000966508 0)
(0.987993 -0.000915644 0)
(0.988585 -0.000867452 0)
(0.989146 -0.000821798 0)
(0.989678 -0.00077855 0)
(0.990182 -0.000737587 0)
(0.990659 -0.000698793 0)
(0.991111 -0.000662056 0)
(0.991539 -0.000627274 0)
(0.991945 -0.000594346 0)
(0.992329 -0.000563179 0)
(0.992694 -0.000533683 0)
(0.993039 -0.000505774 0)
(0.993366 -0.00047937 0)
(0.993676 -0.000454394 0)
(0.99397 -0.000430773 0)
(0.994249 -0.000408435 0)
(0.994513 -0.000387312 0)
(0.994764 -0.000367341 0)
(0.995002 -0.000348457 0)
(0.995227 -0.000330603 0)
(0.995441 -0.000313721 0)
(0.995645 -0.000297756 0)
(0.995837 -0.000282658 0)
(0.99602 -0.000268376 0)
(0.996194 -0.000254864 0)
(0.996359 -0.000242077 0)
(0.996516 -0.000229976 0)
(0.996665 -0.000218519 0)
(0.996807 -0.00020767 0)
(0.996941 -0.000197394 0)
(0.997069 -0.000187659 0)
(0.997191 -0.000178435 0)
(0.997307 -0.000169693 0)
(0.997417 -0.000161407 0)
(0.997521 -0.000153551 0)
(0.997621 -0.000146103 0)
(0.997716 -0.00013904 0)
(0.997806 -0.000132342 0)
(0.997892 -0.000125989 0)
(0.997973 -0.000119964 0)
(0.998051 -0.000114249 0)
(0.998125 -0.000108828 0)
(0.998196 -0.000103686 0)
(0.998263 -9.88072e-05 0)
(0.998327 -9.41792e-05 0)
(0.998388 -8.97884e-05 0)
(0.998447 -8.56225e-05 0)
(0.998502 -8.16696e-05 0)
(0.998555 -7.79185e-05 0)
(0.998606 -7.43587e-05 0)
(0.998654 -7.098e-05 0)
(0.9987 -6.77728e-05 0)
(0.998744 -6.47281e-05 0)
(0.998787 -6.18372e-05 0)
(0.998827 -5.9092e-05 0)
(0.998865 -5.64846e-05 0)
(0.998902 -5.40078e-05 0)
(0.998937 -5.16546e-05 0)
(0.998971 -4.94184e-05 0)
(0.999003 -4.7293e-05 0)
(0.999034 -4.52726e-05 0)
(0.999063 -4.33516e-05 0)
(0.999091 -4.15248e-05 0)
(0.999118 -3.97873e-05 -5.72024e-42)
(0.999144 -3.81345e-05 -5.65523e-42)
(0.999169 -3.65621e-05 0)
(0.999193 -3.50659e-05 0)
(0.999216 -3.36421e-05 0)
(0.999238 -3.22871e-05 0)
(0.999259 -3.09976e-05 0)
(0.999279 -2.97702e-05 0)
(0.999298 -2.86021e-05 0)
(0.999317 -2.74903e-05 0)
(0.999335 -2.64323e-05 0)
(0.999352 -2.54254e-05 0)
(0.999369 -2.44675e-05 0)
(0.999385 -2.35561e-05 0)
(0.9994 -2.26893e-05 0)
(0.999415 -2.18649e-05 0)
(0.999429 -2.10812e-05 0)
(0.999443 -2.03362e-05 0)
(0.999456 -1.96282e-05 0)
(0.999469 -1.89557e-05 0)
(0.999481 -1.8317e-05 0)
(0.999493 -1.77106e-05 0)
(0.999505 -1.71351e-05 0)
(0.999516 -1.65891e-05 0)
(0.999527 -1.60711e-05 0)
(0.999538 -1.558e-05 0)
(0.999548 -1.51145e-05 0)
(0.999558 -1.46734e-05 0)
(0.999567 -1.42554e-05 0)
(0.999577 -1.38595e-05 0)
(0.999586 -1.34845e-05 0)
(0.999595 -1.31294e-05 0)
(0.999603 -1.27932e-05 0)
(0.999612 -1.24748e-05 0)
(0.99962 -1.21733e-05 0)
(0.999628 -1.18877e-05 0)
(0.999636 -1.1617e-05 0)
(0.999643 -1.13605e-05 0)
(0.999651 -1.11173e-05 0)
(0.999658 -1.08864e-05 0)
(0.999665 -1.0667e-05 0)
(0.999672 -1.04585e-05 0)
(0.999679 -1.026e-05 0)
(0.999686 -1.00707e-05 0)
(0.999693 -9.89001e-06 0)
(0.999699 -9.71714e-06 0)
(0.999706 -9.55143e-06 0)
(0.999712 -9.39224e-06 0)
(0.999718 -9.23894e-06 0)
(0.999724 -9.09091e-06 0)
(0.99973 -8.94756e-06 0)
(0.999736 -8.80833e-06 0)
(0.999742 -8.67268e-06 0)
(0.999748 -8.54007e-06 0)
(0.999753 -8.41002e-06 0)
(0.999759 -8.28204e-06 0)
(0.999764 -8.15568e-06 0)
(0.99977 -8.03053e-06 0)
(0.999775 -7.90617e-06 0)
(0.99978 -7.78226e-06 0)
(0.999786 -7.65844e-06 0)
(0.999791 -7.53443e-06 0)
(0.999796 -7.40995e-06 0)
(0.9998 -7.28479e-06 0)
(0.999805 -7.15874e-06 0)
(0.99981 -7.03166e-06 0)
(0.999815 -6.90343e-06 0)
(0.999819 -6.77399e-06 0)
(0.999824 -6.6433e-06 0)
(0.999828 -6.51136e-06 0)
(0.999832 -6.37822e-06 0)
(0.999837 -6.24396e-06 0)
(0.999841 -6.10868e-06 0)
(0.999845 -5.97255e-06 0)
(0.999849 -5.83573e-06 0)
(0.999853 -5.69845e-06 0)
(0.999856 -5.56094e-06 0)
(0.99986 -5.42348e-06 0)
(0.999864 -5.28637e-06 0)
(0.999867 -5.14991e-06 0)
(0.99987 -5.01445e-06 0)
(0.999874 -4.8803e-06 0)
(0.999877 -4.74782e-06 0)
(0.99988 -4.61731e-06 0)
(0.999883 -4.48906e-06 0)
(0.999886 -4.3633e-06 0)
(0.999889 -4.24023e-06 0)
(0.999892 -4.11994e-06 0)
(0.999894 -4.00246e-06 0)
(0.999897 -3.88773e-06 0)
(0.9999 -3.77563e-06 0)
(0.999902 -3.66596e-06 0)
(0.999904 -3.55848e-06 0)
(0.999907 -3.45299e-06 0)
(0.999909 -3.34928e-06 0)
(0.999911 -3.24723e-06 0)
(0.999913 -3.14684e-06 0)
(0.999915 -3.04819e-06 0)
(0.999917 -2.9515e-06 0)
(0.999919 -2.8571e-06 0)
(0.999921 -2.76539e-06 0)
(0.999923 -2.67679e-06 0)
(0.999925 -2.59173e-06 0)
(0.999926 -2.51055e-06 0)
(0.999928 -2.43353e-06 0)
(0.99993 -2.36077e-06 0)
(0.999931 -2.29229e-06 0)
(0.999933 -2.22794e-06 0)
(0.999934 -2.16746e-06 0)
(0.999936 -2.11052e-06 0)
(0.999937 -2.05669e-06 0)
(0.999938 -2.00554e-06 0)
(0.99994 -1.95663e-06 0)
(0.999941 -1.90952e-06 0)
(0.999942 -1.86385e-06 0)
(0.999943 -1.81929e-06 0)
(0.999945 -1.77556e-06 0)
(0.999946 -1.73246e-06 0)
(0.999947 -1.68984e-06 0)
(0.999948 -1.6476e-06 0)
(0.999949 -1.6057e-06 0)
(0.99995 -1.56413e-06 0)
(0.999951 -1.52289e-06 0)
(0.999952 -1.48205e-06 0)
(0.999953 -1.44166e-06 0)
(0.999954 -1.40178e-06 0)
(0.999955 -1.3625e-06 0)
(0.999956 -1.32387e-06 0)
(0.999957 -1.28598e-06 0)
(0.999958 -1.24889e-06 0)
(0.999959 -1.21264e-06 0)
(0.999959 -1.1773e-06 0)
(0.99996 -1.14291e-06 0)
(0.999961 -1.10948e-06 0)
(0.999962 -1.07706e-06 0)
(0.999962 -1.04564e-06 0)
(0.999963 -1.01525e-06 0)
(0.999964 -9.85872e-07 0)
(0.999964 -9.57511e-07 0)
(0.999965 -9.30155e-07 0)
(0.999966 -9.03788e-07 0)
(0.999966 -8.78392e-07 0)
(0.999967 -8.53945e-07 0)
(0.999967 -8.30423e-07 0)
(0.999968 -8.07798e-07 0)
(0.999968 -7.86044e-07 0)
(0.999969 -7.65131e-07 0)
(0.999969 -7.45029e-07 0)
(0.99997 -7.25708e-07 0)
(0.99997 -7.07139e-07 0)
(0.999971 -6.8929e-07 0)
(0.999971 -6.72134e-07 0)
(0.999972 -6.55639e-07 0)
(0.999972 -6.39778e-07 0)
(0.999973 -6.24522e-07 0)
(0.999973 -6.09844e-07 0)
(0.999973 -5.95719e-07 0)
(0.999974 -5.82121e-07 0)
(0.999974 -5.69025e-07 0)
(0.999974 -5.56408e-07 0)
(0.999975 -5.44247e-07 0)
(0.999975 -5.32521e-07 0)
(0.999976 -5.21208e-07 0)
(0.999976 -5.1029e-07 0)
(0.999976 -4.99748e-07 0)
(0.999977 -4.89563e-07 0)
(0.999977 -4.79718e-07 0)
(0.999977 -4.70198e-07 0)
(0.999978 -4.60986e-07 0)
(0.999978 -4.52067e-07 0)
(0.999978 -4.43429e-07 0)
(0.999978 -4.35057e-07 0)
(0.999979 -4.26939e-07 0)
(0.999979 -4.19063e-07 0)
(0.999979 -4.11418e-07 0)
(0.99998 -4.03992e-07 0)
(0.99998 -3.96776e-07 0)
(0.99998 -3.89761e-07 0)
(0.99998 -3.82936e-07 0)
(0.999981 -3.76293e-07 0)
(0.999981 -3.69824e-07 0)
(0.999981 -3.63522e-07 0)
(0.999981 -3.57378e-07 0)
(0.999982 -3.51386e-07 0)
(0.999982 -3.4554e-07 0)
(0.999982 -3.39832e-07 0)
(0.999982 -3.34257e-07 0)
(0.999982 -3.28809e-07 0)
(0.999983 -3.23484e-07 0)
(0.999983 -3.18275e-07 0)
(0.999983 -3.13179e-07 0)
(0.999983 -3.08191e-07 0)
(0.999983 -3.03305e-07 0)
(0.999984 -2.98519e-07 0)
(0.999984 -2.93828e-07 0)
(0.999984 -2.89229e-07 0)
(0.999984 -2.84718e-07 0)
(0.999984 -2.80292e-07 0)
(0.999985 -2.75948e-07 0)
(0.999985 -2.71682e-07 0)
(0.999985 -2.67492e-07 0)
(0.999985 -2.63376e-07 0)
(0.999985 -2.5933e-07 0)
(0.999986 -2.55352e-07 0)
(0.999986 -2.51441e-07 0)
(0.999986 -2.47593e-07 0)
(0.999986 -2.43806e-07 0)
(0.999986 -2.4008e-07 0)
(0.999986 -2.3641e-07 0)
(0.999987 -2.32797e-07 0)
(0.999987 -2.29238e-07 0)
(0.999987 -2.25731e-07 0)
(0.999987 -2.22276e-07 0)
(0.999987 -2.18869e-07 0)
(0.999987 -2.15511e-07 0)
(0.999987 -2.122e-07 0)
(0.999988 -2.08934e-07 0)
(0.999988 -2.05711e-07 0)
(0.999988 -2.02532e-07 0)
(0.999988 -1.99394e-07 0)
(0.999988 -1.96297e-07 0)
(0.999988 -1.93239e-07 0)
(0.999988 -1.9022e-07 0)
(0.999988 -1.87238e-07 0)
(0.999989 -1.84293e-07 0)
(0.999989 -1.81384e-07 0)
(0.999989 -1.78509e-07 0)
(0.999989 -1.75668e-07 0)
(0.999989 -1.72861e-07 0)
(0.999989 -1.70085e-07 0)
(0.999989 -1.67341e-07 0)
(0.999989 -1.64628e-07 0)
(0.99999 -1.61946e-07 0)
(0.99999 -1.59292e-07 0)
(0.99999 -1.56668e-07 0)
(0.99999 -1.54071e-07 0)
(0.99999 -1.51502e-07 0)
(0.99999 -1.4896e-07 0)
(0.99999 -1.46445e-07 0)
(0.99999 -1.43955e-07 0)
(0.99999 -1.4149e-07 0)
(0.99999 -1.39051e-07 0)
(0.999991 -1.36635e-07 0)
(0.999991 -1.34243e-07 0)
(0.999991 -1.31874e-07 0)
(0.999991 -1.29528e-07 0)
(0.999991 -1.27204e-07 0)
(0.999991 -1.24901e-07 0)
(0.999991 -1.2262e-07 0)
(0.999991 -1.2036e-07 0)
(0.999991 -1.1812e-07 0)
(0.999991 -1.159e-07 0)
(0.999991 -1.137e-07 0)
(0.999991 -1.11518e-07 0)
(0.999991 -1.09355e-07 0)
(0.999992 -1.07211e-07 0)
(0.999992 -1.05085e-07 0)
(0.999992 -1.02976e-07 0)
(0.999992 -1.00884e-07 0)
(0.999992 -9.88084e-08 0)
(0.999992 -9.67497e-08 0)
(0.999992 -9.47071e-08 0)
(0.999992 -9.26801e-08 0)
(0.999992 -9.06685e-08 0)
(0.999992 -8.86719e-08 0)
(0.999992 -8.66899e-08 0)
(0.999992 -8.47221e-08 0)
(0.999992 -8.27683e-08 0)
(0.999992 -8.0828e-08 0)
(0.999992 -7.89011e-08 0)
(0.999992 -7.6987e-08 0)
(0.999993 -7.50856e-08 0)
(0.999993 -7.31965e-08 0)
(0.999993 -7.13193e-08 0)
(0.999993 -6.94538e-08 0)
(0.999993 -6.75996e-08 0)
(0.999993 -6.57565e-08 0)
(0.999993 -6.39241e-08 0)
(0.999993 -6.21023e-08 0)
(0.999993 -6.02907e-08 0)
(0.999993 -5.8489e-08 0)
(0.999993 -5.66969e-08 0)
(0.999993 -5.49141e-08 0)
(0.999993 -5.31403e-08 0)
(0.999993 -5.13752e-08 0)
(0.999993 -4.96186e-08 0)
(0.999993 -4.78701e-08 0)
(0.999993 -4.61295e-08 0)
(0.999993 -4.43966e-08 0)
(0.999993 -4.26709e-08 0)
(0.999993 -4.09524e-08 0)
(0.999993 -3.92407e-08 0)
(0.999993 -3.75355e-08 0)
(0.999993 -3.58368e-08 0)
(0.999993 -3.41438e-08 0)
(0.999993 -3.24576e-08 0)
(0.999993 -3.07728e-08 0)
(0.999993 -2.91103e-08 0)
(0.999993 -2.73809e-08 0)
(0.999993 -2.59588e-08 0)
(0.999993 -2.32653e-08 0)
(0.0107294 -0.0269785 0)
(0.014205 -0.087935 0)
(0.0694569 -0.102412 0)
(0.108973 -0.0952908 0)
(0.142874 -0.0863283 0)
(0.176157 -0.0811262 0)
(0.208876 -0.0791251 0)
(0.240647 -0.078447 0)
(0.271905 -0.077823 0)
(0.30295 -0.0768364 0)
(0.33363 -0.0755051 0)
(0.363717 -0.0739224 0)
(0.3931 -0.0721444 0)
(0.421722 -0.0701995 0)
(0.449523 -0.0681083 0)
(0.476438 -0.0658924 0)
(0.50242 -0.063576 0)
(0.527434 -0.0611859 0)
(0.551458 -0.0587489 0)
(0.57448 -0.0562907 0)
(0.596497 -0.0538338 0)
(0.617518 -0.0513983 0)
(0.637557 -0.0490008 0)
(0.656634 -0.046655 0)
(0.674776 -0.0443719 0)
(0.692012 -0.0421598 0)
(0.708372 -0.0400248 0)
(0.723892 -0.0379711 0)
(0.738604 -0.0360011 0)
(0.752544 -0.0341162 0)
(0.765748 -0.0323164 0)
(0.77825 -0.0306009 0)
(0.790083 -0.0289681 0)
(0.801282 -0.0274162 0)
(0.811878 -0.0259427 0)
(0.821902 -0.0245449 0)
(0.831385 -0.0232199 0)
(0.840354 -0.0219648 0)
(0.848838 -0.0207765 0)
(0.856862 -0.0196519 0)
(0.864452 -0.0185881 0)
(0.87163 -0.017582 0)
(0.87842 -0.0166307 0)
(0.884842 -0.0157315 0)
(0.890917 -0.0148816 0)
(0.896664 -0.0140783 0)
(0.902101 -0.0133192 0)
(0.907245 -0.0126019 0)
(0.912113 -0.0119241 0)
(0.916718 -0.0112836 0)
(0.921077 -0.0106783 0)
(0.925201 -0.0101064 0)
(0.929106 -0.00956587 0)
(0.932801 -0.00905506 0)
(0.9363 -0.00857227 0)
(0.939612 -0.00811595 0)
(0.942748 -0.0076846 0)
(0.945717 -0.00727683 0)
(0.948529 -0.00689132 0)
(0.951193 -0.00652681 0)
(0.953715 -0.00618212 0)
(0.956105 -0.00585612 0)
(0.958368 -0.00554777 0)
(0.960513 -0.00525606 0)
(0.962545 -0.00498005 0)
(0.964471 -0.00471883 0)
(0.966295 -0.00447157 0)
(0.968024 -0.00423746 0)
(0.969663 -0.00401576 0)
(0.971216 -0.00380577 0)
(0.972688 -0.00360681 0)
(0.974083 -0.00341828 0)
(0.975405 -0.00323958 0)
(0.976657 -0.00307019 0)
(0.977845 -0.00290958 0)
(0.97897 -0.0027573 0)
(0.980036 -0.0026129 0)
(0.981047 -0.00247597 0)
(0.982004 -0.00234612 0)
(0.982912 -0.00222301 0)
(0.983771 -0.00210627 0)
(0.984586 -0.00199561 0)
(0.985357 -0.0018907 0)
(0.986088 -0.00179127 0)
(0.986781 -0.00169704 0)
(0.987437 -0.00160773 0)
(0.988059 -0.00152312 0)
(0.988648 -0.00144295 0)
(0.989205 -0.001367 0)
(0.989734 -0.00129506 0)
(0.990235 -0.00122691 0)
(0.990709 -0.00116238 0)
(0.991158 -0.00110126 0)
(0.991584 -0.0010434 0)
(0.991987 -0.000988626 0)
(0.99237 -0.00093678 0)
(0.992732 -0.000887714 0)
(0.993075 -0.000841288 0)
(0.9934 -0.000797367 0)
(0.993709 -0.000755823 0)
(0.994001 -0.000716532 0)
(0.994278 -0.000679376 0)
(0.994541 -0.000644244 0)
(0.99479 -0.000611027 0)
(0.995026 -0.00057962 0)
(0.99525 -0.000549926 0)
(0.995463 -0.000521849 0)
(0.995665 -0.000495299 0)
(0.995857 -0.000470189 0)
(0.996039 -0.000446437 0)
(0.996212 -0.000423966 0)
(0.996376 -0.000402702 0)
(0.996532 -0.000382576 0)
(0.99668 -0.000363522 0)
(0.996821 -0.000345479 0)
(0.996955 -0.000328389 0)
(0.997082 -0.000312198 0)
(0.997203 -0.000296856 0)
(0.997318 -0.000282316 0)
(0.997427 -0.000268533 0)
(0.997531 -0.000255466 0)
(0.99763 -0.000243076 0)
(0.997725 -0.000231327 0)
(0.997814 -0.000220185 0)
(0.9979 -0.000209618 0)
(0.997981 -0.000199595 0)
(0.998059 -0.000190088 0)
(0.998132 -0.00018107 0)
(0.998203 -0.000172516 0)
(0.998269 -0.0001644 0)
(0.998333 -0.000156702 0)
(0.998394 -0.000149397 0)
(0.998452 -0.000142467 0)
(0.998507 -0.000135891 0)
(0.99856 -0.000129652 0)
(0.998611 -0.00012373 0)
(0.998659 -0.000118109 0)
(0.998705 -0.000112774 0)
(0.998748 -0.000107709 0)
(0.99879 -0.0001029 0)
(0.99883 -9.83333e-05 0)
(0.998869 -9.39959e-05 0)
(0.998905 -8.98756e-05 0)
(0.99894 -8.59608e-05 0)
(0.998973 -8.22407e-05 0)
(0.999005 -7.87049e-05 0)
(0.999036 -7.53437e-05 0)
(0.999065 -7.21478e-05 0)
(0.999094 -6.91086e-05 0)
(0.99912 -6.62179e-05 0)
(0.999146 -6.34681e-05 0)
(0.999171 -6.08519e-05 0)
(0.999195 -5.83626e-05 0)
(0.999217 -5.59936e-05 0)
(0.999239 -5.37391e-05 0)
(0.99926 -5.15934e-05 0)
(0.99928 -4.95511e-05 0)
(0.9993 -4.76074e-05 0)
(0.999318 -4.57574e-05 0)
(0.999336 -4.39968e-05 0)
(0.999353 -4.23214e-05 0)
(0.99937 -4.07273e-05 0)
(0.999386 -3.92107e-05 0)
(0.999401 -3.77682e-05 0)
(0.999416 -3.63964e-05 0)
(0.99943 -3.50921e-05 0)
(0.999444 -3.38524e-05 0)
(0.999457 -3.26744e-05 0)
(0.99947 -3.15552e-05 0)
(0.999482 -3.04924e-05 0)
(0.999494 -2.94834e-05 0)
(0.999506 -2.85258e-05 0)
(0.999517 -2.76172e-05 0)
(0.999528 -2.67554e-05 0)
(0.999538 -2.59383e-05 0)
(0.999548 -2.51638e-05 0)
(0.999558 -2.44298e-05 0)
(0.999568 -2.37344e-05 0)
(0.999577 -2.30758e-05 0)
(0.999586 -2.2452e-05 0)
(0.999595 -2.18614e-05 0)
(0.999604 -2.13021e-05 0)
(0.999612 -2.07726e-05 0)
(0.99962 -2.02711e-05 0)
(0.999628 -1.97961e-05 0)
(0.999636 -1.93461e-05 0)
(0.999644 -1.89195e-05 0)
(0.999651 -1.8515e-05 0)
(0.999658 -1.81311e-05 0)
(0.999666 -1.77664e-05 0)
(0.999673 -1.74197e-05 0)
(0.99968 -1.70897e-05 0)
(0.999686 -1.6775e-05 0)
(0.999693 -1.64746e-05 0)
(0.999699 -1.61872e-05 0)
(0.999706 -1.59118e-05 0)
(0.999712 -1.56472e-05 0)
(0.999718 -1.53924e-05 0)
(0.999724 -1.51463e-05 0)
(0.99973 -1.4908e-05 0)
(0.999736 -1.46766e-05 0)
(0.999742 -1.44511e-05 0)
(0.999748 -1.42306e-05 0)
(0.999754 -1.40144e-05 0)
(0.999759 -1.38016e-05 0)
(0.999765 -1.35915e-05 0)
(0.99977 -1.33833e-05 0)
(0.999775 -1.31765e-05 0)
(0.999781 -1.29703e-05 0)
(0.999786 -1.27643e-05 0)
(0.999791 -1.25579e-05 0)
(0.999796 -1.23507e-05 0)
(0.999801 -1.21423e-05 0)
(0.999805 -1.19324e-05 0)
(0.99981 -1.17207e-05 0)
(0.999815 -1.1507e-05 0)
(0.999819 -1.12913e-05 0)
(0.999824 -1.10735e-05 0)
(0.999828 -1.08536e-05 0)
(0.999833 -1.06316e-05 0)
(0.999837 -1.04077e-05 0)
(0.999841 -1.01821e-05 0)
(0.999845 -9.95498e-06 0)
(0.999849 -9.72672e-06 0)
(0.999853 -9.49765e-06 0)
(0.999856 -9.26817e-06 0)
(0.99986 -9.03875e-06 0)
(0.999864 -8.80987e-06 0)
(0.999867 -8.58209e-06 0)
(0.999871 -8.35594e-06 0)
(0.999874 -8.13201e-06 0)
(0.999877 -7.91086e-06 0)
(0.99988 -7.69303e-06 0)
(0.999883 -7.47902e-06 0)
(0.999886 -7.26924e-06 0)
(0.999889 -7.064e-06 0)
(0.999892 -6.86349e-06 0)
(0.999894 -6.66775e-06 0)
(0.999897 -6.47668e-06 0)
(0.9999 -6.29004e-06 0)
(0.999902 -6.10748e-06 0)
(0.999905 -5.92859e-06 0)
(0.999907 -5.75296e-06 0)
(0.999909 -5.58023e-06 0)