/*--------------------------------*- C++ -*----------------------------------*\
| =========                 |                                                 |
| \\      /  F ield         | OpenFOAM: The Open Source CFD Toolbox           |
|  \\    /   O peration     | Version:  v2006                                 |
|   \\  /    A nd           | Website:  www.openfoam.com                      |
|    \\/     M anipulation  |                                                 |
\*---------------------------------------------------------------------------*/
FoamFile
{
    version     2.0;
    format      ascii;
    class       volScalarField;
    location    "4.5";
    object      r;
}
// * * * * * * * * * * * * * * * * * * * * * * * * * * * * * * * * * * * * * //

dimensions      [1 2 0 0 0 0 0];


internalField   nonuniform List<scalar> 
350
(
1.96979e-181
-5.23797e-178
1.23604e-174
-2.79404e-171
5.65598e-168
-1.17123e-164
1.97268e-161
-4.05169e-158
4.24745e-155
-1.24952e-151
-8.4195e-149
-5.01553e-145
-1.99768e-141
-4.11222e-138
-2.00502e-134
-4.46584e-131
-1.78411e-127
-4.5814e-124
-1.54449e-120
-4.26914e-117
-1.30163e-113
-3.6589e-110
-1.04989e-106
-2.90836e-103
-7.9812e-100
-2.14486e-96
-5.64981e-93
-1.4602e-89
-3.68393e-86
-9.09721e-83
-2.18694e-79
-5.12547e-76
-1.16562e-72
-2.57151e-69
-5.48001e-66
-1.12584e-62
-2.21986e-59
-4.18478e-56
-7.50064e-53
-1.27021e-49
-2.0162e-46
-2.96889e-43
-4.00327e-40
-4.85204e-37
-5.15811e-34
-4.62159e-31
-3.27926e-28
-1.61409e-25
-3.99883e-23
4.09004e-21
-2.28041e-20
3.75985e-20
-2.45261e-19
8.36908e-19
-5.34381e-18
1.6441e-17
-2.76497e-17
6.28394e-18
4.3908e-16
-1.67233e-15
2.43666e-15
-2.2977e-15
2.73414e-15
-3.00969e-15
9.06574e-16
8.65748e-16
5.35722e-15
5.86116e-15
-1.17493e-14
2.38265e-14
-5.26958e-14
1.16357e-13
-1.76855e-13
1.31015e-13
1.29565e-13
-6.67257e-13
1.64942e-12
-3.84834e-12
5.63105e-12
-1.08712e-11
1.08003e-11
-6.74395e-12
-1.81874e-11
6.71666e-11
-6.42512e-11
3.18673e-11
-2.27535e-12
1.20558e-11
-1.1388e-10
1.64824e-10
1.06492e-11
-2.0261e-10
-3.4347e-10
6.61281e-10
1.83195e-10
-6.9588e-11
8.83503e-10
-2.81363e-09
5.89097e-09
-6.20104e-09
3.25565e-09
-6.07045e-09
-5.01183e-09
-2.47558e-08
4.60413e-09
-1.43227e-08
-2.01253e-07
2.86519e-07
-3.33486e-07
-2.02604e-07
-3.04337e-07
7.19982e-08
-4.05429e-07
-1.04423e-06
-2.65902e-06
3.03644e-07
3.0407e-06
1.31808e-05
-1.10621e-05
-1.56358e-05
-1.41303e-05
8.30962e-06
1.90407e-05
-8.86265e-05
-9.16289e-05
-6.83102e-05
9.99664e-05
0.000164779
-0.000800173
-0.00110896
0.000121458
0.00593651
0.0215024
0.0547681
0.116545
0.220024
0.379646
0.609403
0.920811
1.32091
1.81066
2.38414
3.02862
3.72558
4.45253
5.18526
5.90017
6.57634
7.19708
7.75079
8.2312
8.63697
8.97085
9.23868
9.44824
9.60827
9.72757
9.81444
9.87624
9.91919
9.94836
9.96772
9.98027
9.98823
9.99314
9.99611
9.99786
9.99885
9.99942
9.99972
10
10.0001
10.0001
9.9999
9.99983
10.0008
10.0011
9.99994
9.99427
9.97895
9.94604
9.88472
9.78174
9.6226
9.39322
9.08199
8.68183
8.19171
7.61758
6.97223
6.27428
5.54633
4.81271
4.09711
3.42054
2.7997
2.24616
1.76614
1.3609
1.0276
0.760346
0.551281
0.391652
0.272627
0.185928
0.124214
0.0812741
0.0520674
0.0326456
0.0200204
0.0119992
0.00702071
0.00400416
0.00222099
0.00119465
0.000618211
0.000307817
0.000140078
6.5188e-05
1.72759e-05
6.31555e-06
4.18447e-08
2.91623e-08
1.26723e-08
9.4921e-09
5.99039e-09
3.35841e-09
1.65235e-09
7.15073e-10
3.49121e-11
1.89284e-11
6.56986e-12
5.36472e-12
3.88058e-12
2.56291e-12
1.54518e-12
8.31342e-13
3.42847e-13
9.14143e-14
-1.62179e-13
-1.79862e-13
-1.80366e-13
-1.72519e-13
-1.58979e-13
-1.42909e-13
-1.25891e-13
-1.08532e-13
-9.11126e-14
-7.39492e-14
-5.75003e-14
-4.23334e-14
-2.90535e-14
-1.81862e-14
-1.01428e-14
-5.09288e-15
-2.66873e-15
-2.05881e-15
-2.69763e-15
-4.73909e-15
-7.83932e-15
-1.12998e-14
-1.4358e-14
-1.64493e-14
-1.74753e-14
-1.76401e-14
-1.68942e-14
-1.50415e-14
-1.2095e-14
-8.22551e-15
-3.68521e-15
1.20569e-15
6.05609e-15
1.04253e-14
1.388e-14
1.61622e-14
1.73172e-14
1.75875e-14
1.70625e-14
1.56729e-14
1.36421e-14
1.1409e-14
9.4054e-15
7.89368e-15
6.90909e-15
6.35307e-15
6.08231e-15
5.963e-15
5.87405e-15
5.69545e-15
5.28642e-15
4.51055e-15
3.27848e-15
1.61362e-15
-3.3827e-16
-2.35144e-15
-4.19673e-15
-5.70932e-15
-6.819e-15
-7.53402e-15
-7.90831e-15
-8.00789e-15
-7.8811e-15
-7.5645e-15
-7.11132e-15
-6.58867e-15
-6.04926e-15
-5.53579e-15
-5.0716e-15
-4.66621e-15
-4.31749e-15
-4.0157e-15
-3.74621e-15
-3.49254e-15
-3.23732e-15
-2.96521e-15
-2.66424e-15
-2.32814e-15
-1.95809e-15
-1.56279e-15
-1.15773e-15
-7.62022e-16
-3.95191e-16
-7.38026e-17
1.90545e-16
3.92023e-16
5.30143e-16
6.08814e-16
6.34911e-16
6.16838e-16
5.63568e-16
4.85054e-16
3.91801e-16
2.93014e-16
1.96394e-16
1.07598e-16
3.03275e-17
-3.36e-17
-8.35828e-17
-1.203e-16
-1.44955e-16
-1.59133e-16
-1.64787e-16
-1.63461e-16
-1.57058e-16
-1.46796e-16
-1.34169e-16
-1.20038e-16
-1.05421e-16
-9.08118e-17
-7.68218e-17
)
;

boundaryField
{
    right
    {
        type            zeroGradient;
    }
    left
    {
        type            inletOutlet;
        inletValue      uniform 0;
        value           uniform 0;
    }
    top
    {
        type            zeroGradient;
    }
    bottom
    {
        type            zeroGradient;
    }
    empty
    {
        type            empty;
    }
}


// ************************************************************************* //
