/*--------------------------------*- C++ -*----------------------------------*\
| =========                 |                                                 |
| \\      /  F ield         | OpenFOAM: The Open Source CFD Toolbox           |
|  \\    /   O peration     | Version:  v2006                                 |
|   \\  /    A nd           | Website:  www.openfoam.com                      |
|    \\/     M anipulation  |                                                 |
\*---------------------------------------------------------------------------*/
FoamFile
{
    version     2.0;
    format      ascii;
    class       volVectorField;
    location    "16.8";
    object      U;
}
// * * * * * * * * * * * * * * * * * * * * * * * * * * * * * * * * * * * * * //

dimensions      [0 1 -1 0 0 0 0];


internalField   nonuniform List<vector> 
150000
(
(-0.00700731 0.00273645 0)
(-0.00992685 -0.000981259 0)
(-0.00863529 -0.00139723 0)
(-0.00993914 -0.000867766 0)
(-0.011742 -0.000484838 0)
(-0.0146063 -0.000239198 0)
(-0.0178936 -0.000118695 0)
(-0.021642 -3.19645e-05 0)
(-0.0257568 1.91712e-05 0)
(-0.030153 4.33335e-05 0)
(-0.0347315 3.66893e-05 0)
(-0.0393655 9.91216e-06 0)
(-0.0439651 -4.542e-05 0)
(-0.0484733 -0.000104127 0)
(-0.0528248 -0.000167607 0)
(-0.0569689 -0.000228015 0)
(-0.0608637 -0.000287826 0)
(-0.0644978 -0.000344339 0)
(-0.0678276 -0.00038796 0)
(-0.0708599 -0.000446792 0)
(-0.0735869 -0.000489384 0)
(-0.0760041 -0.000545881 0)
(-0.0781423 -0.000609664 0)
(-0.0799946 -0.000668709 0)
(-0.0815787 -0.000732843 0)
(-0.0829046 -0.000794826 0)
(-0.0839785 -0.00086109 0)
(-0.0848017 -0.000923048 0)
(-0.0853838 -0.000987426 0)
(-0.0857064 -0.00104652 0)
(-0.0857682 -0.00111712 0)
(-0.0855719 -0.00119893 0)
(-0.0851007 -0.00127924 0)
(-0.0843342 -0.00136167 0)
(-0.0832609 -0.00144859 0)
(-0.0818888 -0.00155434 0)
(-0.0802121 -0.00166449 0)
(-0.0782514 -0.00179142 0)
(-0.0760337 -0.00193259 0)
(-0.0735854 -0.00207986 0)
(-0.0709495 -0.00223105 0)
(-0.0681557 -0.00237421 0)
(-0.065237 -0.00250874 0)
(-0.0622225 -0.00261941 0)
(-0.0591049 -0.00271343 0)
(-0.0558599 -0.00277477 0)
(-0.0524768 -0.0028146 0)
(-0.0488934 -0.00283662 0)
(-0.045067 -0.00286137 0)
(-0.0409676 -0.00289391 0)
(-0.0365624 -0.00294282 0)
(-0.0318415 -0.00300996 0)
(-0.0268089 -0.00309266 0)
(-0.0214769 -0.00318372 0)
(-0.0158661 -0.00327752 0)
(-0.010018 -0.00336682 0)
(-0.00391929 -0.00344154 0)
(0.00241888 -0.00350823 0)
(0.0089475 -0.00355743 0)
(0.0156796 -0.00359008 0)
(0.022613 -0.00360917 0)
(0.0297459 -0.00361156 0)
(0.0370702 -0.00359644 0)
(0.0445774 -0.00356509 0)
(0.0522571 -0.00351819 0)
(0.0600963 -0.00345804 0)
(0.0680807 -0.00338849 0)
(0.0761954 -0.00331537 0)
(0.0844274 -0.0032467 0)
(0.0927663 -0.00319101 0)
(0.101204 -0.00315509 0)
(0.109747 -0.00315958 0)
(0.118401 -0.0031881 0)
(0.127162 -0.00325293 0)
(0.136043 -0.00335213 0)
(0.145062 -0.00348011 0)
(0.154235 -0.00363199 0)
(0.163587 -0.00380247 0)
(0.17314 -0.00398641 0)
(0.182918 -0.0041782 0)
(0.192936 -0.00437056 0)
(0.203199 -0.0045543 0)
(0.213696 -0.00471965 0)
(0.2244 -0.0048588 0)
(0.235278 -0.00496814 0)
(0.246289 -0.00504896 0)
(0.257402 -0.00510662 0)
(0.26859 -0.00514846 0)
(0.279842 -0.00518161 0)
(0.291156 -0.00521115 0)
(0.302538 -0.00523931 0)
(0.313995 -0.00526563 0)
(0.325537 -0.00528782 0)
(0.33717 -0.00530282 0)
(0.348896 -0.0053075 0)
(0.360722 -0.00529885 0)
(0.372653 -0.00527372 0)
(0.384693 -0.00522836 0)
(0.396849 -0.00515789 0)
(0.409121 -0.00505577 0)
(0.421502 -0.0049131 0)
(0.433968 -0.00471805 0)
(0.446475 -0.0044562 0)
(0.458942 -0.00411422 0)
(0.471249 -0.00368981 0)
(0.48325 -0.0032075 0)
(0.494795 -0.00273167 0)
(0.505781 -0.00236301 0)
(0.516198 -0.00221255 0)
(0.526137 -0.0023613 0)
(0.535766 -0.00282242 0)
(0.545286 -0.00353178 0)
(0.554877 -0.00437071 0)
(0.564662 -0.00520364 0)
(0.574687 -0.00591431 0)
(0.58492 -0.00643079 0)
(0.595272 -0.00673441 0)
(0.60563 -0.00685199 0)
(0.615893 -0.00683561 0)
(0.626009 -0.00673675 0)
(0.635992 -0.00658073 0)
(0.645916 -0.00635101 0)
(0.655898 -0.00599977 0)
(0.666038 -0.00547129 0)
(0.676392 -0.00473149 0)
(0.686996 -0.00380533 0)
(0.697968 -0.00275005 0)
(0.70948 -0.00132569 0)
(0.721215 0.00172716 0)
(0.730888 0.00838755 0)
(0.732463 0.0175684 0)
(0.724111 0.0241526 0)
(0.710134 0.0241654 0)
(0.697165 0.0167773 0)
(0.690597 0.0054026 0)
(0.691209 -0.00541765 0)
(0.699257 -0.0138803 0)
(0.712833 -0.0195897 0)
(0.728749 -0.0219448 0)
(0.744231 -0.0205651 0)
(0.757065 -0.0156497 0)
(0.765647 -0.0083888 0)
(0.769405 -0.00110642 0)
(0.769293 0.00368074 0)
(0.767806 0.00531751 0)
(0.7665 0.00493095 0)
(0.765945 0.00351859 0)
(0.766214 0.0017131 0)
(0.767322 -2.37262e-05 0)
(0.769218 -0.00135003 0)
(0.771639 -0.00207524 0)
(0.774164 -0.00216054 0)
(0.776386 -0.00170985 0)
(0.778052 -0.000944984 0)
(0.779103 -0.000147069 0)
(0.779648 0.000453191 0)
(0.77989 0.000754939 0)
(0.780027 0.000763545 0)
(0.780213 0.000515286 0)
(0.780566 7.06591e-05 0)
(0.781166 -0.000483965 0)
(0.782064 -0.00106116 0)
(0.783279 -0.00159452 0)
(0.7848 -0.00204422 0)
(0.786603 -0.00239129 0)
(0.788654 -0.00263239 0)
(0.790918 -0.00277587 0)
(0.793356 -0.00283854 0)
(0.795937 -0.00284307 0)
(0.798632 -0.00281511 0)
(0.801428 -0.00277803 0)
(0.804327 -0.00274629 0)
(0.807348 -0.0027206 0)
(0.81052 -0.00268827 0)
(0.813877 -0.00262959 0)
(0.81745 -0.00252757 0)
(0.821256 -0.00237611 0)
(0.825296 -0.00218364 0)
(0.829563 -0.00197282 0)
(0.834033 -0.00177783 0)
(0.838684 -0.00163981 0)
(0.843491 -0.00160215 0)
(0.848445 -0.00170137 0)
(0.853551 -0.00194996 0)
(0.858834 -0.00231827 0)
(0.864326 -0.00272863 0)
(0.870031 -0.0030696 0)
(0.875882 -0.00322741 0)
(0.881709 -0.00313068 0)
(0.887265 -0.00279885 0)
(0.892312 -0.00235643 0)
(0.896735 -0.00198499 0)
(0.900617 -0.00183664 0)
(0.904206 -0.0019595 0)
(0.907835 -0.00228563 0)
(0.911803 -0.00268536 0)
(0.916312 -0.00303595 0)
(0.921427 -0.00326025 0)
(0.927064 -0.00332711 0)
(0.933043 -0.00323874 0)
(0.939197 -0.00303393 0)
(0.945509 -0.00280125 0)
(0.952178 -0.00266869 0)
(0.959528 -0.00275954 0)
(0.967792 -0.00314659 0)
(0.976917 -0.00382639 0)
(0.986518 -0.00470369 0)
(0.995992 -0.005555 0)
(1.00462 -0.0059741 0)
(1.01164 -0.00537392 0)
(1.01625 -0.00332167 0)
(1.01753 -0.000408414 0)
(1.01585 0.0017276 0)
(1.01291 0.0025912 0)
(1.00963 0.00264498 0)
(1.00629 0.00235101 0)
(1.00298 0.0019815 0)
(0.99974 0.00160882 0)
(0.996607 0.00122928 0)
(0.993617 0.000854261 0)
(0.9908 0.000498804 0)
(0.988175 0.000186148 0)
(0.98573 -4.77938e-05 0)
(0.983416 -0.000161716 0)
(0.981135 -0.000128862 0)
(0.97876 5.40467e-05 0)
(0.976165 0.000400195 0)
(0.973228 0.000913666 0)
(0.969812 0.001594 0)
(0.965751 0.00245146 0)
(0.96084 0.00349942 0)
(0.954822 0.00472837 0)
(0.947421 0.00608175 0)
(0.938389 0.00745674 0)
(0.927571 0.00873808 0)
(0.914934 0.00984235 0)
(0.900559 0.0107275 0)
(0.884629 0.011351 0)
(0.867482 0.0116578 0)
(0.849687 0.0115611 0)
(0.832015 0.0107828 0)
(0.815415 0.00916978 0)
(0.800854 0.00698821 0)
(0.789027 0.00480731 0)
(0.780116 0.00317501 0)
(0.773803 0.00234405 0)
(0.769477 0.00220636 0)
(0.766477 0.00243281 0)
(0.764258 0.00268937 0)
(0.762447 0.00278921 0)
(0.760804 0.00271116 0)
(0.759174 0.00252446 0)
(0.757455 0.00232822 0)
(0.755589 0.00218086 0)
(0.753557 0.00207784 0)
(0.751373 0.00199597 0)
(0.749066 0.001922 0)
(0.746663 0.00185436 0)
(0.744184 0.00179536 0)
(0.741635 0.00174525 0)
(0.739019 0.00170099 0)
(0.736339 0.00165804 0)
(0.733598 0.00161235 0)
(0.730801 0.00156117 0)
(0.727954 0.00150294 0)
(0.725064 0.00143692 0)
(0.72214 0.00136299 0)
(0.719189 0.00128167 0)
(0.71622 0.00119411 0)
(0.713241 0.0011019 0)
(0.710258 0.00100691 0)
(0.707278 0.000911115 0)
(0.704304 0.000816487 0)
(0.70134 0.000724828 0)
(0.698389 0.000637538 0)
(0.695452 0.000555588 0)
(0.692532 0.000479609 0)
(0.689628 0.00040985 0)
(0.686742 0.000346144 0)
(0.683877 0.000288091 0)
(0.681035 0.000235362 0)
(0.678216 0.000187827 0)
(0.675423 0.000145434 0)
(0.672659 0.000108062 0)
(0.669924 7.55568e-05 0)
(0.667221 4.77883e-05 0)
(0.664551 2.45713e-05 0)
(0.661915 5.67999e-06 0)
(0.659316 -9.00224e-06 0)
(0.656754 -1.94873e-05 0)
(0.65423 -2.58416e-05 0)
(0.651744 -2.82192e-05 0)
(0.649296 -2.67626e-05 0)
(0.646886 -2.15546e-05 0)
(0.644512 -1.26883e-05 0)
(0.642174 -3.44087e-07 0)
(0.639871 1.52942e-05 0)
(0.6376 3.41572e-05 0)
(0.63536 5.61951e-05 0)
(0.633147 8.12464e-05 0)
(0.630959 0.000109132 0)
(0.628792 0.000139774 0)
(0.626641 0.000173114 0)
(0.624503 0.000208977 0)
(0.622374 0.000247104 0)
(0.620248 0.000287244 0)
(0.618119 0.000329183 0)
(0.615984 0.000372708 0)
(0.613835 0.000417633 0)
(0.611668 0.000463815 0)
(0.609476 0.000511153 0)
(0.607254 0.000559568 0)
(0.604996 0.000609031 0)
(0.602697 0.000659606 0)
(0.60035 0.00071146 0)
(0.59795 0.000764824 0)
(0.595491 0.000819948 0)
(0.592968 0.000877086 0)
(0.590375 0.000936519 0)
(0.587708 0.000998523 0)
(0.584961 0.00106334 0)
(0.582131 0.00113112 0)
(0.579212 0.00120193 0)
(0.576202 0.0012757 0)
(0.573098 0.00135215 0)
(0.569895 0.00143082 0)
(0.566593 0.00151114 0)
(0.56319 0.00159227 0)
(0.559684 0.00167333 0)
(0.556074 0.00175353 0)
(0.552361 0.00183203 0)
(0.548545 0.00190786 0)
(0.544627 0.00198017 0)
(0.540607 0.00204815 0)
(0.536489 0.00211116 0)
(0.532272 0.00216908 0)
(0.52796 0.00222257 0)
(0.523554 0.00227202 0)
(0.519057 0.00231766 0)
(0.514473 0.00236089 0)
(0.509805 0.00240345 0)
(0.505058 0.00244721 0)
(0.500239 0.00249418 0)
(0.495359 0.00254424 0)
(0.490433 0.0025925 0)
(0.485487 0.00262828 0)
(0.480556 0.00263661 0)
(0.475685 0.00260505 0)
(0.470918 0.00253543 0)
(0.466275 0.00245048 0)
(0.461743 0.00238285 0)
(0.45728 0.00235436 0)
(0.452841 0.0023666 0)
(0.448394 0.00240479 0)
(0.443933 0.0024412 0)
(0.439484 0.00243386 0)
(0.435108 0.0023356 0)
(0.430885 0.00211985 0)
(0.426885 0.00180274 0)
(0.423139 0.00143832 0)
(0.41962 0.00108874 0)
(0.416265 0.000794762 0)
(0.413008 0.00056522 0)
(0.409802 0.000384334 0)
(0.406629 0.000225947 0)
(0.403497 6.57746e-05 0)
(0.400427 -0.000111934 0)
(0.397443 -0.000312199 0)
(0.394568 -0.000526909 0)
(0.391812 -0.000730645 0)
(0.389169 -0.000876214 0)
(0.386603 -0.000891738 0)
(0.384034 -0.00068651 0)
(0.381332 -0.000170672 0)
(0.378323 0.000705514 0)
(0.374848 0.0018737 0)
(0.370874 0.00310663 0)
(0.366592 0.00410187 0)
(0.362374 0.0046287 0)
(0.358627 0.00463278 0)
(0.355667 0.00420669 0)
(0.353634 0.00350244 0)
(0.352492 0.00269399 0)
(0.352063 0.00195003 0)
(0.352095 0.00139039 0)
(0.352317 0.00105389 0)
(0.352506 0.000911424 0)
(0.352565 0.000905158 0)
(0.352508 0.000984075 0)
(0.352412 0.00110633 0)
(0.352391 0.00123397 0)
(0.352561 0.00132617 0)
(0.353032 0.00135101 0)
(0.353911 0.00127364 0)
(0.355301 0.00105334 0)
(0.357302 0.000666232 0)
(0.359987 0.000148195 0)
(0.363351 -0.000396632 0)
(0.367277 -0.000840684 0)
(0.371537 -0.00109949 0)
(0.375866 -0.00117307 0)
(0.380052 -0.00113019 0)
(0.383985 -0.00105467 0)
(0.387658 -0.000999343 0)
(0.391114 -0.000974189 0)
(0.394398 -0.0009635 0)
(0.397531 -0.0009495 0)
(0.400514 -0.000924732 0)
(0.403344 -0.000891111 0)
(0.406024 -0.000853508 0)
(0.408568 -0.00081515 0)
(0.410992 -0.000776759 0)
(0.413315 -0.00073763 0)
(0.415547 -0.000696743 0)
(0.41769 -0.000653301 0)
(0.419742 -0.000606896 0)
(0.421689 -0.000557522 0)
(0.423517 -0.000505517 0)
(0.425209 -0.000451379 0)
(0.426748 -0.000395534 0)
(0.42812 -0.000338183 0)
(0.42931 -0.000279322 0)
(0.430308 -0.000218876 0)
(0.431103 -0.00015681 0)
(0.431688 -9.21225e-05 0)
(0.432054 -2.28758e-05 0)
(0.432199 5.24137e-05 0)
(0.432112 0.000131696 0)
(0.431769 0.000214119 0)
(0.431167 0.000297869 0)
(0.430304 0.000377486 0)
(0.429192 0.000440801 0)
(0.42785 0.000470454 0)
(0.426314 0.000452019 0)
(0.424616 0.00038573 0)
(0.422774 0.000290278 0)
(0.420782 0.00019215 0)
(0.418619 0.000108208 0)
(0.416268 3.68304e-05 0)
(0.41373 -3.52409e-05 0)
(0.411021 -0.000118242 0)
(0.40817 -0.000210198 0)
(0.405211 -0.00029994 0)
(0.402177 -0.000379437 0)
(0.399104 -0.000449406 0)
(0.39603 -0.000514743 0)
(0.393002 -0.000580969 0)
(0.390071 -0.000651493 0)
(0.387298 -0.000726468 0)
(0.384745 -0.000803636 0)
(0.382481 -0.00087969 0)
(0.38057 -0.000951283 0)
(0.379076 -0.00101604 0)
(0.378051 -0.00107424 0)
(0.377533 -0.00113219 0)
(0.377558 -0.00119456 0)
(0.378203 -0.00127015 0)
(0.379434 -0.00133301 0)
(0.381146 -0.00135183 0)
(0.38319 -0.00130397 0)
(0.385376 -0.00116563 0)
(0.38746 -0.000923374 0)
(0.389223 -0.000515159 0)
(0.390371 0.000276707 0)
(0.390121 0.00140612 0)
(0.388313 0.00246894 0)
(0.385082 0.00323077 0)
(0.380595 0.00376794 0)
(0.375004 0.00417033 0)
(0.368428 0.00449357 0)
(0.360943 0.00477634 0)
(0.3526 0.00504551 0)
(0.343434 0.00531708 0)
(0.333469 0.00559762 0)
(0.322726 0.0058855 0)
(0.311224 0.00617184 0)
(0.298995 0.00644108 0)
(0.286082 0.00667358 0)
(0.27255 0.00685002 0)
(0.258481 0.00695492 0)
(0.243981 0.00697781 0)
(0.229156 0.00690594 0)
(0.214115 0.00673614 0)
(0.198968 0.00647548 0)
(0.183828 0.00613583 0)
(0.168804 0.0057294 0)
(0.154004 0.00526659 0)
(0.139536 0.004756 0)
(0.125507 0.00420577 0)
(0.112025 0.00362446 0)
(0.0991978 0.00302041 0)
(0.087126 0.00240678 0)
(0.0758981 0.00181418 0)
(0.0655539 0.00130662 0)
(0.0560297 0.000994215 0)
(0.0470964 0.00100161 0)
(0.0381917 0.00138213 0)
(0.0286797 0.00204849 0)
(0.0182219 0.00294545 0)
(0.00714756 0.0038045 0)
(-0.00803546 0.0114011 0)
(-0.0128692 0.00206006 0)
(-0.0143897 0.00167231 0)
(-0.0190061 0.00325753 0)
(-0.0245013 0.00443946 0)
(-0.0313616 0.00530252 0)
(-0.038957 0.00599599 0)
(-0.0472211 0.00661453 0)
(-0.0559825 0.007115 0)
(-0.0650479 0.00746424 0)
(-0.0742287 0.00766215 0)
(-0.0833318 0.00773142 0)
(-0.0922023 0.0076698 0)
(-0.100733 0.00750257 0)
(-0.108835 0.00724905 0)
(-0.116443 0.00692403 0)
(-0.123522 0.00654077 0)
(-0.130066 0.00611598 0)
(-0.136085 0.0056657 0)
(-0.141603 0.00520607 0)
(-0.146656 0.00475988 0)
(-0.151288 0.00431562 0)
(-0.155524 0.00389585 0)
(-0.1594 0.0034984 0)
(-0.162945 0.00312381 0)
(-0.166164 0.00276461 0)
(-0.16906 0.00240844 0)
(-0.17163 0.00206288 0)
(-0.173869 0.00171051 0)
(-0.175765 0.0013454 0)
(-0.177318 0.000953396 0)
(-0.178518 0.000537848 0)
(-0.179383 0.000118559 0)
(-0.179941 -0.000288648 0)
(-0.180228 -0.000705712 0)
(-0.180289 -0.00110973 0)
(-0.180178 -0.00147863 0)
(-0.179953 -0.00180277 0)
(-0.179644 -0.00206335 0)
(-0.179277 -0.00225702 0)
(-0.178848 -0.00238613 0)
(-0.178317 -0.00246182 0)
(-0.177616 -0.00251629 0)
(-0.176657 -0.00257844 0)
(-0.175319 -0.00268579 0)
(-0.173516 -0.00286701 0)
(-0.17121 -0.00313636 0)
(-0.16837 -0.00348669 0)
(-0.165035 -0.00390699 0)
(-0.161275 -0.0043652 0)
(-0.157179 -0.00483221 0)
(-0.15284 -0.00528325 0)
(-0.148333 -0.00570253 0)
(-0.143711 -0.00608197 0)
(-0.139 -0.00642767 0)
(-0.134205 -0.00675211 0)
(-0.129279 -0.00703861 0)
(-0.124191 -0.0073382 0)
(-0.118934 -0.00763723 0)
(-0.11346 -0.00794063 0)
(-0.107739 -0.00826351 0)
(-0.101754 -0.00858031 0)
(-0.0955012 -0.00890375 0)
(-0.08898 -0.00922546 0)
(-0.0821934 -0.00953927 0)
(-0.0751511 -0.00984159 0)
(-0.0678673 -0.0101265 0)
(-0.0603625 -0.0103889 0)
(-0.0526608 -0.0106267 0)
(-0.044788 -0.010837 0)
(-0.0367855 -0.011018 0)
(-0.0286512 -0.0111841 0)
(-0.0204058 -0.0113201 0)
(-0.0120939 -0.0114412 0)
(-0.00370822 -0.011558 0)
(0.00474886 -0.0116805 0)
(0.0132799 -0.0118194 0)
(0.0218928 -0.0119824 0)
(0.0305959 -0.0121718 0)
(0.0393975 -0.0123834 0)
(0.0483058 -0.0126071 0)
(0.057329 -0.012829 0)
(0.0664765 -0.0130347 0)
(0.0757592 -0.0132125 0)
(0.0851889 -0.0133568 0)
(0.0947768 -0.0134691 0)
(0.104531 -0.013557 0)
(0.114456 -0.0136322 0)
(0.124547 -0.0137065 0)
(0.134797 -0.0137894 0)
(0.145193 -0.0138863 0)
(0.155722 -0.0139989 0)
(0.166371 -0.0141275 0)
(0.177133 -0.0142724 0)
(0.188005 -0.0144358 0)
(0.198987 -0.0146211 0)
(0.210085 -0.0148326 0)
(0.221305 -0.0150732 0)
(0.232661 -0.0153429 0)
(0.244172 -0.0156367 0)
(0.255865 -0.0159422 0)
(0.26778 -0.0162372 0)
(0.279958 -0.0164876 0)
(0.292428 -0.0166469 0)
(0.305182 -0.0166625 0)
(0.318137 -0.0164872 0)
(0.331109 -0.0160968 0)
(0.343808 -0.0155017 0)
(0.355872 -0.0147491 0)
(0.366949 -0.0139137 0)
(0.37678 -0.0130804 0)
(0.385257 -0.0123254 0)
(0.392454 -0.011703 0)
(0.398607 -0.0112353 0)
(0.404054 -0.0109069 0)
(0.409162 -0.0106716 0)
(0.414267 -0.0104741 0)
(0.419651 -0.0102789 0)
(0.425556 -0.0100948 0)
(0.432215 -0.00998166 0)
(0.439865 -0.0100344 0)
(0.448714 -0.0103446 0)
(0.458871 -0.0109572 0)
(0.470293 -0.0118569 0)
(0.482801 -0.0130162 0)
(0.496246 -0.0144776 0)
(0.510815 -0.0163374 0)
(0.527394 -0.018442 0)
(0.5478 -0.0197954 0)
(0.574616 -0.0185129 0)
(0.610396 -0.0137856 0)
(0.649767 -0.00737017 0)
(0.682233 -0.00163821 0)
(0.698753 0.00138805 0)
(0.696613 0.000725846 0)
(0.681158 -0.00143119 0)
(0.658047 -0.00313203 0)
(0.632833 -0.0037152 0)
(0.610964 -0.0033 0)
(0.595951 -0.00268816 0)
(0.589526 -0.00232382 0)
(0.591569 -0.00229234 0)
(0.600267 -0.00245204 0)
(0.612671 -0.00281394 0)
(0.625096 -0.00322819 0)
(0.635351 -0.00335449 0)
(0.642548 -0.00315699 0)
(0.646849 -0.00278539 0)
(0.648911 -0.00240695 0)
(0.649576 -0.0021116 0)
(0.649798 -0.00189229 0)
(0.650434 -0.00169895 0)
(0.652038 -0.00151702 0)
(0.654768 -0.00136076 0)
(0.658452 -0.0012414 0)
(0.662704 -0.00115983 0)
(0.667036 -0.00110143 0)
(0.671006 -0.00103818 0)
(0.674315 -0.000948429 0)
(0.676815 -0.000835788 0)
(0.678471 -0.000722643 0)
(0.679334 -0.000636547 0)
(0.679522 -0.000599801 0)
(0.679202 -0.000624656 0)
(0.678558 -0.000712467 0)
(0.677769 -0.0008552 0)
(0.677003 -0.0010381 0)
(0.676401 -0.00124325 0)
(0.676082 -0.00145439 0)
(0.676136 -0.0016619 0)
(0.676632 -0.00186746 0)
(0.677625 -0.00208604 0)
(0.679168 -0.00234322 0)
(0.681304 -0.00266733 0)
(0.684059 -0.00307853 0)
(0.687425 -0.00357925 0)
(0.691344 -0.00414984 0)
(0.695699 -0.00475131 0)
(0.700317 -0.00533391 0)
(0.704993 -0.00584728 0)
(0.709515 -0.00624774 0)
(0.713711 -0.00650566 0)
(0.717504 -0.00661517 0)
(0.720964 -0.00660434 0)
(0.724326 -0.00653492 0)
(0.727947 -0.00647759 0)
(0.732201 -0.00646625 0)
(0.737336 -0.0064619 0)
(0.743351 -0.00636237 0)
(0.74998 -0.00606754 0)
(0.756766 -0.00556032 0)
(0.763216 -0.00493545 0)
(0.768976 -0.00436173 0)
(0.773961 -0.00401334 0)
(0.778386 -0.00401007 0)
(0.78265 -0.0043763 0)
(0.787121 -0.00502307 0)
(0.791888 -0.00577564 0)
(0.796655 -0.00645868 0)
(0.800872 -0.00700787 0)
(0.804062 -0.00753139 0)
(0.806123 -0.0082458 0)
(0.807341 -0.00928628 0)
(0.808074 -0.0105369 0)
(0.808418 -0.0115943 0)
(0.808161 -0.0119367 0)
(0.807114 -0.0112268 0)
(0.805537 -0.00947359 0)
(0.804283 -0.00705236 0)
(0.804492 -0.00440987 0)
(0.807038 -0.00183859 0)
(0.812333 0.000295035 0)
(0.819141 0.00152205 0)
(0.825352 0.00210309 0)
(0.830037 0.00250241 0)
(0.833012 0.00296574 0)
(0.834404 0.00342164 0)
(0.834342 0.00379041 0)
(0.833065 0.00404589 0)
(0.830805 0.00420245 0)
(0.827724 0.00427417 0)
(0.823995 0.00427527 0)
(0.819862 0.00422557 0)
(0.81563 0.00414926 0)
(0.81164 0.00406719 0)
(0.808187 0.00400324 0)
(0.805471 0.00398614 0)
(0.803584 0.00402467 0)
(0.802575 0.00413606 0)
(0.802524 0.00436192 0)
(0.803546 0.00476607 0)
(0.805745 0.0054275 0)
(0.809122 0.00641918 0)
(0.813512 0.00777064 0)
(0.818616 0.00943839 0)
(0.824134 0.0113138 0)
(0.829882 0.0132617 0)
(0.835753 0.0151466 0)
(0.841484 0.0168133 0)
(0.846421 0.0180321 0)
(0.849732 0.0185097 0)
(0.850835 0.0180093 0)
(0.849674 0.0164206 0)
(0.846817 0.0138652 0)
(0.843324 0.0107095 0)
(0.840324 0.00745525 0)
(0.838563 0.0045786 0)
(0.838204 0.00239505 0)
(0.838934 0.00100165 0)
(0.840238 0.000309355 0)
(0.841646 0.000133502 0)
(0.842865 0.00028487 0)
(0.843773 0.000605884 0)
(0.844314 0.000980885 0)
(0.844468 0.00134242 0)
(0.844247 0.00165902 0)
(0.843685 0.00192331 0)
(0.84283 0.00214261 0)
(0.841727 0.00232996 0)
(0.84041 0.00249763 0)
(0.838903 0.00265421 0)
(0.837217 0.00280454 0)
(0.835359 0.0029508 0)
(0.833334 0.00309357 0)
(0.831144 0.00323256 0)
(0.828789 0.00336707 0)
(0.826271 0.00349623 0)
(0.82359 0.0036192 0)
(0.820744 0.00373525 0)
(0.817733 0.00384381 0)
(0.814556 0.00394449 0)
(0.811214 0.00403706 0)
(0.807705 0.00412141 0)
(0.804032 0.00419751 0)
(0.800199 0.00426534 0)
(0.796211 0.0043249 0)
(0.792076 0.00437618 0)
(0.787803 0.0044191 0)
(0.783403 0.00445348 0)
(0.778888 0.0044792 0)
(0.774274 0.00449624 0)
(0.769574 0.00450475 0)
(0.764803 0.00450486 0)
(0.759978 0.0044967 0)
(0.755114 0.00448049 0)
(0.750224 0.00445652 0)
(0.745324 0.00442518 0)
(0.740425 0.00438679 0)
(0.735542 0.00434182 0)
(0.730685 0.00429086 0)
(0.725866 0.00423461 0)
(0.721094 0.00417385 0)
(0.716379 0.00410938 0)
(0.711729 0.00404192 0)
(0.707152 0.00397212 0)
(0.702653 0.00390063 0)
(0.698239 0.00382818 0)
(0.693913 0.00375562 0)
(0.689681 0.00368382 0)
(0.685545 0.00361366 0)
(0.681507 0.00354595 0)
(0.677569 0.00348144 0)
(0.67373 0.00342084 0)
(0.669991 0.00336488 0)
(0.66635 0.00331434 0)
(0.662804 0.00326996 0)
(0.65935 0.00323243 0)
(0.655983 0.00320228 0)
(0.652699 0.00317995 0)
(0.649492 0.00316578 0)
(0.646356 0.00316006 0)
(0.643283 0.00316298 0)
(0.640267 0.00317463 0)
(0.6373 0.0031949 0)
(0.634375 0.00322358 0)
(0.631483 0.00326039 0)
(0.628619 0.00330489 0)
(0.625774 0.00335655 0)
(0.622944 0.00341478 0)
(0.620122 0.00347896 0)
(0.617303 0.00354842 0)
(0.614482 0.00362244 0)
(0.611657 0.00370033 0)
(0.608822 0.00378146 0)
(0.605975 0.00386536 0)
(0.603113 0.00395174 0)
(0.600232 0.00404037 0)
(0.597329 0.00413107 0)
(0.594401 0.00422372 0)
(0.591444 0.00431833 0)
(0.588454 0.00441488 0)
(0.585426 0.00451347 0)
(0.582356 0.00461407 0)
(0.579239 0.00471653 0)
(0.576071 0.0048208 0)
(0.572847 0.00492683 0)
(0.569564 0.00503419 0)
(0.566219 0.00514169 0)
(0.56281 0.00524787 0)
(0.559337 0.00535104 0)
(0.555801 0.00544813 0)
(0.552208 0.00553475 0)
(0.548567 0.00560603 0)
(0.544888 0.00565599 0)
(0.541185 0.00567733 0)
(0.537471 0.00566295 0)
(0.533754 0.00560902 0)
(0.530039 0.00551823 0)
(0.526328 0.00540249 0)
(0.522622 0.00528328 0)
(0.518927 0.00518417 0)
(0.515257 0.00511803 0)
(0.511629 0.00508061 0)
(0.50806 0.0050558 0)
(0.504568 0.0050257 0)
(0.501164 0.00497728 0)
(0.497847 0.00490608 0)
(0.494601 0.00481962 0)
(0.491386 0.00473825 0)
(0.488136 0.00468892 0)
(0.484769 0.00469201 0)
(0.481202 0.00474971 0)
(0.477384 0.00484542 0)
(0.47331 0.00495396 0)
(0.469012 0.0050541 0)
(0.46454 0.0051354 0)
(0.459935 0.00519709 0)
(0.455216 0.00524243 0)
(0.450382 0.00527301 0)
(0.445427 0.00528523 0)
(0.440359 0.00526913 0)
(0.435223 0.0052096 0)
(0.430129 0.00508901 0)
(0.42528 0.00489192 0)
(0.420966 0.00460992 0)
(0.417517 0.00422955 0)
(0.415203 0.00371861 0)
(0.414137 0.00303455 0)
(0.414294 0.00215856 0)
(0.415578 0.00114519 0)
(0.417838 0.000110511 0)
(0.42085 -0.000761399 0)
(0.424324 -0.00135273 0)
(0.427907 -0.00162467 0)
(0.431247 -0.00160046 0)
(0.434126 -0.00137553 0)
(0.436522 -0.0010911 0)
(0.438525 -0.000884684 0)
(0.440298 -0.00084184 0)
(0.442042 -0.000991868 0)
(0.443952 -0.00132548 0)
(0.446187 -0.00181676 0)
(0.448848 -0.00242615 0)
(0.451968 -0.0031116 0)
(0.455517 -0.00383355 0)
(0.459415 -0.00455047 0)
(0.463543 -0.00520591 0)
(0.467774 -0.00572729 0)
(0.471997 -0.00604547 0)
(0.476129 -0.00612398 0)
(0.480102 -0.00598077 0)
(0.483852 -0.00568511 0)
(0.487334 -0.00532774 0)
(0.490536 -0.00498173 0)
(0.493483 -0.00467963 0)
(0.496221 -0.00441771 0)
(0.498785 -0.00417713 0)
(0.501188 -0.00394433 0)
(0.50343 -0.00371917 0)
(0.505508 -0.00351103 0)
(0.507428 -0.00333006 0)
(0.509205 -0.00318044 0)
(0.510859 -0.00305812 0)
(0.512407 -0.00295258 0)
(0.513855 -0.00285043 0)
(0.515202 -0.00273898 0)
(0.516438 -0.00260864 0)
(0.517545 -0.00245375 0)
(0.518506 -0.00227235 0)
(0.519303 -0.00206519 0)
(0.519919 -0.00183459 0)
(0.520342 -0.00158356 0)
(0.520565 -0.0013153 0)
(0.520581 -0.00103404 0)
(0.520389 -0.000740706 0)
(0.519983 -0.000437027 0)
(0.519351 -0.000121745 0)
(0.518497 0.000201521 0)
(0.517432 0.000531441 0)
(0.516149 0.000865714 0)
(0.514641 0.00120072 0)
(0.512892 0.00153143 0)
(0.510878 0.00185443 0)
(0.508561 0.00217167 0)
(0.50589 0.00249237 0)
(0.50281 0.002829 0)
(0.499273 0.00318867 0)
(0.495253 0.00356742 0)
(0.490744 0.00395295 0)
(0.485753 0.00433094 0)
(0.480292 0.0046877 0)
(0.474385 0.00500884 0)
(0.468069 0.00527936 0)
(0.461408 0.0054854 0)
(0.454481 0.00561726 0)
(0.447379 0.00567022 0)
(0.440197 0.0056397 0)
(0.433039 0.00551788 0)
(0.426025 0.00529455 0)
(0.419293 0.00495976 0)
(0.412995 0.00450669 0)
(0.407294 0.00393399 0)
(0.402354 0.00324778 0)
(0.398328 0.00246251 0)
(0.395342 0.00159934 0)
(0.393452 0.000691247 0)
(0.392575 -0.000226703 0)
(0.392658 -0.0010763 0)
(0.3936 -0.00177424 0)
(0.395227 -0.00225327 0)
(0.397327 -0.00246189 0)
(0.399689 -0.00237359 0)
(0.40207 -0.0019641 0)
(0.404327 -0.00115632 0)
(0.406821 1.78381e-06 0)
(0.409296 0.00133448 0)
(0.411383 0.00278524 0)
(0.412806 0.00419563 0)
(0.413291 0.00553226 0)
(0.412711 0.00680259 0)
(0.411038 0.0080101 0)
(0.408295 0.00915976 0)
(0.404532 0.0102589 0)
(0.399813 0.0113145 0)
(0.394201 0.0123321 0)
(0.387744 0.0133146 0)
(0.380472 0.0142618 0)
(0.372394 0.01517 0)
(0.363501 0.0160311 0)
(0.353765 0.0168334 0)
(0.343144 0.017563 0)
(0.331596 0.0182028 0)
(0.319087 0.018739 0)
(0.305594 0.0191627 0)
(0.291106 0.0194672 0)
(0.27563 0.0196464 0)
(0.25919 0.0196936 0)
(0.241833 0.019601 0)
(0.22363 0.0193587 0)
(0.204675 0.0189579 0)
(0.185092 0.0183942 0)
(0.165024 0.0176695 0)
(0.144643 0.0167998 0)
(0.124171 0.0158403 0)
(0.103906 0.0149231 0)
(0.0841526 0.0143138 0)
(0.0648505 0.0144207 0)
(0.0458654 0.0151364 0)
(0.0276899 0.0160553 0)
(0.0110531 0.0177604 0)
(-0.00853965 0.0202782 0)
(-0.0132159 0.00432218 0)
(-0.0138535 0.00418183 0)
(-0.0180806 0.00746524 0)
(-0.0242427 0.0101357 0)
(-0.0324504 0.0119391 0)
(-0.0415851 0.0132923 0)
(-0.0512276 0.0143316 0)
(-0.0610426 0.0150403 0)
(-0.0707438 0.0153813 0)
(-0.0800862 0.0153693 0)
(-0.0888883 0.0150747 0)
(-0.0970359 0.0145398 0)
(-0.104471 0.0138193 0)
(-0.11119 0.0129827 0)
(-0.117228 0.0120768 0)
(-0.122637 0.0111325 0)
(-0.127496 0.0102064 0)
(-0.131857 0.0093101 0)
(-0.135792 0.00846159 0)
(-0.139374 0.00767279 0)
(-0.142636 0.00694221 0)
(-0.145614 0.00626663 0)
(-0.148325 0.00562263 0)
(-0.15078 0.00501148 0)
(-0.152983 0.00440695 0)
(-0.154908 0.00380799 0)
(-0.156555 0.00319676 0)
(-0.157938 0.00257258 0)
(-0.159048 0.00193909 0)
(-0.159902 0.0013052 0)
(-0.160511 0.000692838 0)
(-0.160895 9.00212e-05 0)
(-0.161124 -0.000462443 0)
(-0.161223 -0.00096079 0)
(-0.161195 -0.00138958 0)
(-0.161063 -0.00175838 0)
(-0.160826 -0.00206971 0)
(-0.160453 -0.00234148 0)
(-0.159891 -0.00261259 0)
(-0.159057 -0.00292081 0)
(-0.157862 -0.00330268 0)
(-0.156216 -0.0038002 0)
(-0.154051 -0.00442245 0)
(-0.151317 -0.00515923 0)
(-0.148018 -0.00599213 0)
(-0.14421 -0.00685944 0)
(-0.139962 -0.00770483 0)
(-0.135382 -0.00847564 0)
(-0.130583 -0.00913681 0)
(-0.125662 -0.00967355 0)
(-0.120699 -0.0100962 0)
(-0.115743 -0.0104321 0)
(-0.11082 -0.0107129 0)
(-0.105931 -0.0109779 0)
(-0.101049 -0.0112558 0)
(-0.0961337 -0.0115505 0)
(-0.0911578 -0.0119025 0)
(-0.0860894 -0.0122934 0)
(-0.0809127 -0.0127158 0)
(-0.0755886 -0.0131592 0)
(-0.0701082 -0.0136067 0)
(-0.0644895 -0.0140536 0)
(-0.0587186 -0.0144841 0)
(-0.0528012 -0.0148914 0)
(-0.0467393 -0.0152725 0)
(-0.0405316 -0.0156184 0)
(-0.0341794 -0.0159303 0)
(-0.0276804 -0.0162089 0)
(-0.0210274 -0.0164578 0)
(-0.0142268 -0.0166846 0)
(-0.0072436 -0.0168835 0)
(-6.39274e-05 -0.01709 0)
(0.00729294 -0.0172993 0)
(0.0148443 -0.0175219 0)
(0.0225909 -0.0177654 0)
(0.0305214 -0.0180325 0)
(0.0386166 -0.0183241 0)
(0.0468512 -0.018639 0)
(0.0551989 -0.0189739 0)
(0.0636392 -0.0193238 0)
(0.0721629 -0.0196822 0)
(0.0807748 -0.0200427 0)
(0.0894924 -0.0204003 0)
(0.0983411 -0.0207516 0)
(0.107345 -0.0210938 0)
(0.11652 -0.021424 0)
(0.125863 -0.0217387 0)
(0.135353 -0.0220345 0)
(0.144952 -0.0223086 0)
(0.15461 -0.0225594 0)
(0.164276 -0.0227879 0)
(0.1739 -0.0229964 0)
(0.183442 -0.0231887 0)
(0.192867 -0.023368 0)
(0.202148 -0.023537 0)
(0.211253 -0.0236977 0)
(0.220152 -0.0238531 0)
(0.228811 -0.0240088 0)
(0.237196 -0.0241738 0)
(0.245284 -0.0243572 0)
(0.253064 -0.0245602 0)
(0.260545 -0.024762 0)
(0.267767 -0.0249066 0)
(0.2748 -0.0248978 0)
(0.281743 -0.0246178 0)
(0.288716 -0.0239676 0)
(0.29583 -0.0229139 0)
(0.303144 -0.0215123 0)
(0.310642 -0.0199004 0)
(0.318247 -0.0182753 0)
(0.325861 -0.0168451 0)
(0.333401 -0.0157739 0)
(0.340829 -0.015145 0)
(0.348172 -0.0149569 0)
(0.355525 -0.0151491 0)
(0.363046 -0.0156487 0)
(0.370928 -0.0164104 0)
(0.37934 -0.0174308 0)
(0.388364 -0.0187228 0)
(0.397943 -0.0202651 0)
(0.407862 -0.0219465 0)
(0.417754 -0.0235421 0)
(0.427104 -0.0247898 0)
(0.435252 -0.0256063 0)
(0.441435 -0.0263701 0)
(0.444952 -0.0279924 0)
(0.445564 -0.0314035 0)
(0.444102 -0.0364689 0)
(0.442938 -0.0409866 0)
(0.445614 -0.0406689 0)
(0.454847 -0.0320992 0)
(0.469322 -0.0162117 0)
(0.482896 0.00209993 0)
(0.488598 0.0165862 0)
(0.484547 0.0236719 0)
(0.473476 0.0233613 0)
(0.460625 0.0173577 0)
(0.450527 0.00778053 0)
(0.445613 -0.00260998 0)
(0.445412 -0.0109557 0)
(0.448001 -0.0156969 0)
(0.452423 -0.0169524 0)
(0.458205 -0.0156377 0)
(0.464986 -0.0128924 0)
(0.472309 -0.00963519 0)
(0.47953 -0.00644371 0)
(0.486096 -0.00395696 0)
(0.491801 -0.00261838 0)
(0.496772 -0.00243514 0)
(0.501284 -0.0030937 0)
(0.50562 -0.00416149 0)
(0.510026 -0.00524346 0)
(0.514681 -0.00606641 0)
(0.519662 -0.00647864 0)
(0.524979 -0.00644451 0)
(0.530615 -0.00602185 0)
(0.536512 -0.00531492 0)
(0.542554 -0.00444171 0)
(0.548617 -0.00354147 0)
(0.55461 -0.00273687 0)
(0.560481 -0.00210268 0)
(0.566208 -0.00166899 0)
(0.571786 -0.00143915 0)
(0.577231 -0.00140403 0)
(0.58258 -0.00154743 0)
(0.587887 -0.00184884 0)
(0.593225 -0.00228654 0)
(0.598684 -0.00284139 0)
(0.604359 -0.00350036 0)
(0.610336 -0.00425704 0)
(0.616667 -0.0051059 0)
(0.62335 -0.00603044 0)
(0.63031 -0.0069914 0)
(0.6374 -0.00792282 0)
(0.644423 -0.00873979 0)
(0.65116 -0.00935503 0)
(0.657413 -0.0096975 0)
(0.66304 -0.00972845 0)
(0.667981 -0.00945625 0)
(0.672276 -0.00895385 0)
(0.676083 -0.00837375 0)
(0.679661 -0.00794294 0)