/*--------------------------------*- C++ -*----------------------------------*\
| =========                 |                                                 |
| \\      /  F ield         | OpenFOAM: The Open Source CFD Toolbox           |
|  \\    /   O peration     | Version:  v2006                                 |
|   \\  /    A nd           | Website:  www.openfoam.com                      |
|    \\/     M anipulation  |                                                 |
\*---------------------------------------------------------------------------*/
FoamFile
{
    version     2.0;
    format      ascii;
    class       volScalarField;
    location    "7.3";
    object      p_rgh;
}
// * * * * * * * * * * * * * * * * * * * * * * * * * * * * * * * * * * * * * //

dimensions      [1 -1 -2 0 0 0 0];


internalField   nonuniform List<scalar> 
150000
(
5561.56
5562.15
5563.26
5564.96
5567.22
5570.04
5573.42
5577.35
5581.84
5586.88
5592.48
5598.62
5605.31
5612.53
5620.29
5628.58
5637.38
5646.69
5656.53
5666.88
5677.72
5689.03
5700.82
5713.07
5725.76
5738.89
5752.42
5766.36
5780.69
5795.39
5810.46
5825.88
5841.63
5857.69
5874.04
5890.65
5907.51
5924.58
5941.84
5959.26
5976.82
5994.52
6012.33
6030.25
6048.25
6066.33
6084.48
6102.69
6120.93
6139.18
6157.39
6175.53
6193.58
6211.51
6229.3
6246.86
6264.14
6281.04
6297.48
6313.42
6328.88
6343.97
6358.84
6373.57
6388.14
6402.49
6416.39
6429.81
6442.73
6455.13
6467.02
6478.36
6489.15
6499.35
6508.97
6517.98
6526.38
6534.15
6541.29
6547.77
6553.59
6558.74
6563.22
6567
6570.1
6572.49
6574.17
6575.14
6575.38
6574.89
6573.66
6571.7
6569.02
6565.63
6561.51
6556.63
6550.98
6544.53
6537.28
6529.27
6520.57
6511.24
6501.31
6490.6
6479.18
6467.05
6454.27
6440.65
6426.23
6411.01
6395.03
6378.3
6360.83
6342.64
6323.73
6304.11
6283.8
6262.79
6241.1
6218.73
6195.69
6171.97
6147.6
6122.58
6096.91
6070.6
6043.66
6016.09
5987.91
5959.11
5929.71
5899.72
5869.13
5837.97
5806.23
5773.92
5741.06
5707.64
5673.67
5639.16
5604.11
5568.52
5532.4
5495.76
5458.61
5420.96
5382.83
5344.22
5305.13
5265.58
5225.55
5185.03
5144.01
5102.5
5060.5
5018.03
4975.13
4931.88
4888.33
4844.49
4800.03
4755
4709.45
4663.38
4616.77
4569.59
4521.92
4473.72
4424.99
4375.7
4325.84
4275.42
4224.41
4172.79
4120.57
4067.73
4014.24
3960.09
3905.25
3849.7
3793.42
3736.37
3678.53
3619.88
3560.45
3500.21
3439.19
3377.38
3314.79
3251.39
3187.19
3122.18
3056.35
2989.71
2922.25
2853.97
2784.86
2714.94
2644.2
2572.64
2500.27
2427.1
2353.13
2278.38
2202.85
2126.56
2049.53
1971.77
1893.3
1814.15
1734.32
1653.86
1572.78
1491.12
1408.9
1326.15
1242.91
1159.22
1075.11
990.621
905.795
820.675
735.304
649.731
564.002
478.167
392.275
306.376
220.518
134.752
49.1287
-36.3002
-121.481
-206.36
-290.883
-374.994
-458.64
-541.771
-624.336
-706.287
-787.579
-868.165
-948
-1027.05
-1105.26
-1182.59
-1259
-1334.45
-1408.91
-1482.34
-1554.71
-1626
-1696.16
-1765.18
-1833.02
-1899.68
-1965.12
-2029.34
-2092.31
-2154.02
-2214.46
-2273.61
-2331.48
-2388.06
-2443.33
-2497.31
-2549.98
-2601.35
-2651.42
-2700.19
-2747.67
-2793.87
-2838.8
-2882.46
-2924.86
-2966.01
-3005.93
-3044.63
-3082.12
-3118.41
-3153.53
-3187.49
-3220.3
-3251.97
-3282.53
-3311.98
-3340.4
-3367.75
-3394.05
-3419.33
-3443.6
-3466.88
-3489.19
-3510.56
-3530.99
-3550.51
-3569.13
-3586.88
-3603.76
-3619.81
-3635.02
-3649.43
-3663.05
-3675.89
-3687.97
-3699.31
-3709.92
-3719.82
-3729.02
-3737.53
-3745.38
-3752.57
-3759.11
-3765.03
-3770.32
-3775.02
-3779.11
-3782.62
-3785.56
-3787.93
-3789.75
-3791.03
-3791.77
-3791.97
-3791.66
-3790.83
-3789.5
-3787.66
-3785.33
-3782.5
-3779.19
-3775.4
-3771.13
-3766.39
-3761.17
-3755.49
-3749.35
-3742.74
-3735.68
-3728.16
-3720.19
-3711.77
-3702.91
-3693.6
-3683.85
-3673.67
-3663.06
-3652.01
-3640.55
-3628.66
-3616.36
-3603.65
-3590.53
-3577.02
-3563.12
-3548.83
-3534.17
-3519.14
-3503.75
-3488
-3471.9
-3455.47
-3438.7
-3421.61
-3404.21
-3386.5
-3368.5
-3350.21
-3331.63
-3312.79
-3293.69
-3274.33
-3254.73
-3234.89
-3214.82
-3194.53
-3174.03
-3153.32
-3132.42
-3111.32
-3090.05
-3068.6
-3046.98
-3025.2
-3003.27
-2981.19
-2958.96
-2936.61
-2914.12
-2891.5
-2868.77
-2845.91
-2822.95
-2799.89
-2776.72
-2753.45
-2730.1
-2706.65
-2683.11
-2659.49
-2635.79
-2612.02
-2588.16
-2564.24
-2540.25
-2516.19
-2492.06
-2467.87
-2443.62
-2419.31
-2394.95
-2370.53
-2346.05
-2321.53
-2296.95
-2272.32
-2247.65
-2222.94
-2198.18
-2173.38
-2148.54
-2123.66
-2098.75
-2073.81
-2048.84
-2023.84
-1998.82
-1973.78
-1948.72
-1923.64
-1898.56
-1873.47
-1848.38
-1823.3
-1798.22
-1773.16
-1748.12
-1723.1
-1698.11
-1673.17
-1648.26
-1623.42
-1598.64
-1573.92
-1549.29
-1524.74
-1500.29
-1475.94
-1451.7
-1427.59
-1403.62
-1379.8
-1356.13
-1332.64
-1309.32
-1286.21
-1263.31
-1240.63
-1218.18
-1195.99
-1174.06
-1152.41
-1131.06
-1110.02
-1089.31
-1068.93
-1048.91
-1029.25
-1009.98
-991.109
-972.654
-954.63
-937.052
-919.934
-903.292
-887.139
-871.491
-856.362
-841.765
-827.715
-814.225
-801.308
-788.977
-777.246
-766.126
-755.63
-745.768
-736.552
-727.993
-720.101
-712.886
-706.357
-700.521
-695.388
-690.961
-687.251
-684.271
-682.019
-680.554
-679.833
5561.13
5561.69
5562.82
5564.52
5566.78
5569.6
5572.98
5576.91
5581.41
5586.45
5592.05
5598.19
5604.88
5612.1
5619.87
5628.16
5636.96
5646.26
5656.12
5666.47
5677.32
5688.64
5700.43
5712.69
5725.39
5738.54
5752.07
5766.01
5780.35
5795.07
5810.15
5825.58
5841.33
5857.4
5873.75
5890.37
5907.23
5924.3
5941.58
5959.02
5976.62
5994.36
6012.22
6030.19
6048.24
6066.34
6084.49
6102.67
6120.87
6139.07
6157.24
6175.36
6193.4
6211.32
6229.08
6246.64
6263.93
6280.87
6297.38
6313.43
6329.01
6344.22
6359.19
6373.98
6388.56
6402.97
6416.82
6430.21
6443.11
6455.5
6467.37
6478.71
6489.5
6499.7
6509.32
6518.34
6526.75
6534.53
6541.67
6548.17
6554
6559.16
6563.65
6567.44
6570.54
6572.94
6574.64
6575.61
6575.86
6575.38
6574.16
6572.21
6569.53
6566.14
6562.03
6557.15
6551.5
6545.05
6537.81
6529.79
6521.07
6511.68
6501.67
6491.11
6479.84
6467.79
6454.87
6441.19
6426.72
6411.46
6395.43
6378.67
6361.17
6342.96
6324.03
6304.41
6284.08
6263.07
6241.37
6218.99
6195.94
6172.22
6147.85
6122.82
6097.15
6070.84
6043.89
6016.33
5988.14
5959.35
5929.95
5899.95
5869.37
5838.21
5806.47
5774.17
5741.3
5707.89
5673.92
5639.41
5604.37
5568.79
5532.69
5496.07
5458.94
5421.31
5383.19
5344.59
5305.51
5265.95
5225.92
5185.4
5144.39
5102.89
5060.91
5018.47
4975.58
4932.27
4888.52
4844.33
4799.82
4754.82
4709.28
4663.2
4616.56
4569.22
4521.55
4473.34
4424.62
4375.34
4325.51
4275.1
4224.11
4172.53
4120.34
4067.53
4014.09
3960
3905.25
3849.82
3793.68
3736.83
3679.21
3620.78
3561.5
3501.34
3440.32
3378.46
3315.76
3252.27
3187.98
3122.89
3057.01
2990.33
2922.83
2854.53
2785.41
2715.47
2644.71
2573.14
2500.76
2427.57
2353.59
2278.83
2203.28
2126.98
2049.93
1972.16
1893.67
1814.49
1734.65
1654.16
1573.06
1491.37
1409.12
1326.34
1243.07
1159.35
1075.2
990.681
905.826
820.679
735.284
649.684
563.928
478.064
392.139
306.206
220.314
134.514
48.8566
-36.6069
-121.823
-206.739
-291.297
-375.443
-459.123
-542.284
-624.879
-706.859
-788.179
-868.794
-948.659
-1027.73
-1105.97
-1183.32
-1259.75
-1335.23
-1409.71
-1483.16
-1555.55
-1626.85
-1697.03
-1766.06
-1833.92
-1900.59
-1966.04
-2030.27
-2093.24
-2154.96
-2215.4
-2274.56
-2332.43
-2389.01
-2444.28
-2498.26
-2550.92
-2602.29
-2652.36
-2701.12
-2748.6
-2794.8
-2839.71
-2883.36
-2925.75
-2966.89
-3006.8
-3045.49
-3082.97
-3119.26
-3154.36
-3188.31
-3221.1
-3252.77
-3283.32
-3312.79
-3341.17
-3368.49
-3394.77
-3420.03
-3444.29
-3467.56
-3489.86
-3511.21
-3531.63
-3551.14
-3569.75
-3587.48
-3604.36
-3620.39
-3635.6
-3649.99
-3663.6
-3676.43
-3688.5
-3699.83
-3710.43
-3720.32
-3729.51
-3738.02
-3745.85
-3753.03
-3759.57
-3765.48
-3770.76
-3775.45
-3779.53
-3783.04
-3785.97
-3788.34
-3790.15
-3791.42
-3792.15
-3792.35
-3792.03
-3791.2
-3789.86
-3788.02
-3785.68
-3782.85
-3779.54
-3775.74
-3771.47
-3766.72
-3761.5
-3755.82
-3749.67
-3743.06
-3736
-3728.48
-3720.5
-3712.08
-3703.21
-3693.9
-3684.15
-3673.97
-3663.35
-3652.31
-3640.84
-3628.95
-3616.65
-3603.94
-3590.82
-3577.31
-3563.4
-3549.12
-3534.45
-3519.41
-3504.01
-3488.26
-3472.16
-3455.72
-3438.95
-3421.85
-3404.44
-3386.73
-3368.72
-3350.42
-3331.84
-3312.99
-3293.88
-3274.52
-3254.91
-3235.06
-3214.99
-3194.69
-3174.18
-3153.47
-3132.56
-3111.47
-3090.19
-3068.73
-3047.11
-3025.33
-3003.39
-2981.31
-2959.08
-2936.71
-2914.22
-2891.6
-2868.86
-2846
-2823.04
-2799.97
-2776.8
-2753.53
-2730.17
-2706.72
-2683.18
-2659.56
-2635.86
-2612.08
-2588.23
-2564.3
-2540.31
-2516.25
-2492.12
-2467.93
-2443.68
-2419.37
-2395
-2370.58
-2346.1
-2321.58
-2297
-2272.37
-2247.7
-2222.98
-2198.22
-2173.42
-2148.58
-2123.7
-2098.79
-2073.84
-2048.87
-2023.87
-1998.85
-1973.8
-1948.74
-1923.66
-1898.58
-1873.49
-1848.39
-1823.3
-1798.22
-1773.16
-1748.11
-1723.09
-1698.1
-1673.14
-1648.24
-1623.38
-1598.6
-1573.88
-1549.24
-1524.69
-1500.23
-1475.87
-1451.63
-1427.51
-1403.53
-1379.69
-1356.02
-1332.52
-1309.2
-1286.08
-1263.16
-1240.47
-1218.02
-1195.82
-1173.88
-1152.23
-1130.87
-1109.8
-1089.06
-1068.67
-1048.63
-1028.97
-1009.69
-990.807
-972.342
-954.309
-936.721
-919.595
-902.944
-886.783
-871.127
-855.99
-841.385
-827.328
-813.831
-800.907
-788.571
-776.833
-765.707
-755.204
-745.337
-736.116
-727.552
-719.654
-712.435
-705.902
-700.064
-694.928
-690.499
-686.784
-683.798
-681.539
-680.078
-679.352
5560.32
5560.88
5562.02
5563.72
5565.98
5568.8
5572.18
5576.12
5580.61
5585.66
5591.26
5597.4
5604.1
5611.33
5619.1
5627.41
5636.24
5645.62
5655.47
5665.81
5676.66
5687.98
5699.79
5712.05
5724.77
5737.96
5751.47
5765.43
5779.79
5794.52
5809.62
5825.07
5840.85
5856.94
5873.32
5889.97
5906.86
5923.97
5941.27
5958.74
5976.36
5994.11
6011.98
6029.95
6048.02
6066.17
6084.39
6102.65
6120.92
6139.18
6157.39
6175.52
6193.54
6211.42
6229.14
6246.64
6263.89
6280.84
6297.42
6313.63
6329.44
6344.9
6360.03
6374.87
6389.43
6403.69
6417.52
6430.89
6443.77
6456.16
6468.03
6479.39
6490.17
6500.39
6510.02
6519.06
6527.48
6535.28
6542.44
6548.95
6554.8
6559.98
6564.48
6568.29
6571.41
6573.82
6575.53
6576.52
6576.78
6576.32
6575.13
6573.2
6570.54
6567.14
6563.01
6558.12
6552.48
6546.07
6538.91
6531.01
6522.39
6513.06
6503.02
6492.29
6480.83
6468.63
6455.65
6441.91
6427.39
6412.11
6396.08
6379.31
6361.81
6343.6
6324.68
6305.05
6284.73
6263.71
6242.01
6219.64
6196.58
6172.87
6148.49
6123.46
6097.79
6071.48
6044.53
6016.96
5988.78
5959.98
5930.59
5900.59
5870.01
5838.85
5807.12
5774.82
5741.97
5708.56
5674.6
5640.11
5605.07
5569.5
5533.41
5496.8
5459.68
5422.06
5383.96
5345.38
5306.33
5266.81
5226.82
5186.36
5145.42
5104.01
5062.12
5019.78
4977
4933.79
4890.14
4846.02
4801.44
4756.36
4710.78
4664.69
4618.1
4571.14
4523.44
4475.21
4426.54
4377.17
4327.26
4276.79
4225.72
4174.06
4121.79
4068.9
4015.37
3961.18
3906.32
3850.77
3794.5
3737.48
3679.69
3621.11
3561.74
3501.56
3440.58
3378.8
3316.23
3252.85
3188.66
3123.66
3057.84
2991.2
2923.73
2855.44
2786.33
2716.39
2645.62
2574.04
2501.64
2428.44
2354.43
2279.64
2204.06
2127.72
2050.64
1972.82
1894.29
1815.06
1735.17
1654.63
1573.48
1491.73
1409.42
1326.59
1243.26
1159.47
1075.27
990.683
905.766
820.559
735.106
649.452
563.643
477.723
391.742
305.748
219.794
133.93
48.2119
-37.3089
-122.579
-207.545
-292.154
-376.355
-460.094
-543.319
-625.98
-708.027
-789.411
-870.087
-950.01
-1029.14
-1107.42
-1184.82
-1261.3
-1336.82
-1411.34
-1484.83
-1557.25
-1628.58
-1698.78
-1767.84
-1835.72
-1902.4
-1967.87
-2032.11
-2095.09
-2156.82
-2217.27
-2276.43
-2334.3
-2390.87
-2446.15
-2500.11
-2552.77
-2604.13
-2654.18
-2702.94
-2750.4
-2796.58
-2841.48
-2885.11
-2927.48
-2968.61
-3008.5
-3047.16
-3084.62
-3120.88
-3155.96
-3189.88
-3222.66
-3254.3
-3284.82
-3314.24
-3342.49
-3369.88
-3396.17
-3421.41
-3445.65
-3468.89
-3491.17
-3512.5
-3532.9
-3552.38
-3570.97
-3588.68
-3605.53
-3621.54
-3636.73
-3651.11
-3664.69
-3677.5
-3689.56
-3700.87
-3711.45
-3721.32
-3730.49
-3738.98
-3746.8
-3753.96
-3760.48
-3766.37
-3771.65
-3776.32
-3780.39
-3783.88
-3786.8
-3789.16
-3790.96
-3792.22
-3792.94
-3793.13
-3792.81
-3791.96
-3790.62
-3788.77
-3786.42
-3783.59
-3780.27
-3776.47
-3772.19
-3767.44
-3762.22
-3756.53
-3750.38
-3743.76
-3736.69
-3729.17
-3721.19
-3712.77
-3703.89
-3694.58
-3684.82
-3674.63
-3664.01
-3652.95
-3641.48
-3629.58
-3617.27
-3604.54
-3591.42
-3577.9
-3563.98
-3549.68
-3535
-3519.95
-3504.54
-3488.78
-3472.66
-3456.21
-3439.42
-3422.31
-3404.89
-3387.16
-3369.14
-3350.83
-3332.24
-3313.37
-3294.25
-3274.87
-3255.25
-3235.39
-3215.3
-3194.99
-3174.48
-3153.75
-3132.83
-3111.72
-3090.43
-3068.97
-3047.34
-3025.54
-3003.6
-2981.5
-2959.27
-2936.9
-2914.4
-2891.77
-2869.03
-2846.17
-2823.2
-2800.13
-2776.95
-2753.68
-2730.31
-2706.86
-2683.32
-2659.69
-2635.99
-2612.21
-2588.35
-2564.42
-2540.43
-2516.36
-2492.24
-2468.04
-2443.79
-2419.48
-2395.11
-2370.69
-2346.21
-2321.68
-2297.1
-2272.48
-2247.8
-2223.08
-2198.32
-2173.51
-2148.67
-2123.79
-2098.87
-2073.93
-2048.95
-2023.94
-1998.91
-1973.86
-1948.8
-1923.71
-1898.62
-1873.52
-1848.42
-1823.33
-1798.24
-1773.16
-1748.1
-1723.07
-1698.07
-1673.11
-1648.19
-1623.33
-1598.52
-1573.79
-1549.13
-1524.56
-1500.08
-1475.71
-1451.45
-1427.31
-1403.31
-1379.46
-1355.77
-1332.25
-1308.91
-1285.76
-1262.83
-1240.12
-1217.64
-1195.42
-1173.46
-1151.78
-1130.39
-1109.32
-1088.57
-1068.16
-1048.11
-1028.42
-1009.12
-990.218
-971.734
-953.681
-936.075
-918.93
-902.261
-886.083
-870.409
-855.255
-840.635
-826.561
-813.049
-800.11
-787.758
-776.007
-764.867
-754.351
-744.47
-735.237
-726.661
-718.753
-711.523
-704.98
-699.132
-693.988
-689.551
-685.829
-682.835
-680.57
-679.112
-678.39
5559.06
5559.62
5560.76
5562.46
5564.73
5567.55
5570.93
5574.87
5579.37
5584.43
5590.03
5596.19
5602.89
5610.14
5617.93
5626.25
5635.1
5644.48
5654.35
5664.72
5675.59
5686.94
5698.77
5711.05
5723.77
5736.88
5750.53
5764.54
5778.94
5793.71
5808.85
5824.33
5840.14
5856.27
5872.68
5889.37
5906.3
5923.45
5940.8
5958.33
5976
5993.81
6011.73
6029.76
6047.89
6066.09
6084.35
6102.65
6120.96
6139.25
6157.49
6175.65
6193.69
6211.58
6229.31
6246.82
6264.08
6281.06
6297.71
6314.01
6329.96
6345.56
6360.84
6375.78
6390.39
6404.63
6418.46
6431.83
6444.73
6457.14
6469.03
6480.39
6491.2
6501.43
6511.09
6520.14
6528.59
6536.4
6543.58
6550.11
6555.98
6561.18
6565.7
6569.53
6572.67
6575.1
6576.82
6577.82
6578.1
6577.65
6576.48
6574.57
6571.92
6568.53
6564.39
6559.49
6553.84
6547.44
6540.29
6532.42
6523.83
6514.55
6504.56
6493.86
6482.43
6470.23
6457.23
6443.43
6428.85
6413.51
6397.44
6380.63
6363.1
6344.86
6325.92
6306.27
6285.93
6264.9
6243.19
6220.79
6197.73
6174
6149.61
6124.57
6098.88
6072.56
6045.6
6018.02
5989.82
5961.02
5931.61
5901.61
5871.02
5839.85
5808.11
5775.8
5742.94
5709.53
5675.57
5641.07
5606.03
5570.46
5534.37
5497.76
5460.65
5423.04
5384.94
5346.37
5307.32
5267.8
5227.81
5187.35
5146.42
5105.01
5063.14
5020.81
4978.03
4934.81
4891.14
4847.02
4802.43
4757.36
4711.78
4665.69
4619.09
4572
4524.34
4476.1
4427.02
4378.03
4328.27
4277.89
4226.9
4175.29
4123.07
4070.21
4016.7
3962.52
3907.67
3852.11
3795.84
3738.83
3681.06
3622.51
3563.17
3503.03
3442.08
3380.31
3317.74
3254.36
3190.17
3125.17
3059.34
2992.69
2925.22
2856.92
2787.79
2717.83
2647.05
2575.44
2503.01
2429.77
2355.73
2280.89
2205.27
2128.89
2051.75
1973.87
1895.28
1815.99
1736.03
1655.42
1574.19
1492.37
1409.99
1327.07
1243.66
1159.79
1075.51
990.842
905.84
820.545
734.999
649.249
563.339
477.318
391.233
305.136
219.078
133.111
47.2894
-38.3344
-123.708
-208.776
-293.487
-377.788
-461.624
-544.946
-627.701
-709.84
-791.314
-872.078
-952.083
-1031.29
-1109.65
-1187.13
-1263.67
-1339.25
-1413.83
-1487.37
-1559.84
-1631.21
-1701.46
-1770.55
-1838.46
-1905.17
-1970.66
-2034.92
-2097.92
-2159.66
-2220.11
-2279.28
-2337.15
-2393.72
-2448.99
-2502.94
-2555.59
-2606.93
-2656.97
-2705.71
-2753.15
-2799.3
-2844.17
-2887.78
-2930.12
-2971.21
-3011.07
-3049.7
-3087.13
-3123.35
-3158.4
-3192.29
-3225.02
-3256.63
-3287.13
-3316.54
-3344.92
-3372.12
-3398.32
-3423.52
-3447.71
-3470.92
-3493.16
-3514.45
-3534.81
-3554.26
-3572.82
-3590.49
-3607.31
-3623.29
-3638.44
-3652.79
-3666.34
-3679.12
-3691.14
-3702.42
-3712.98
-3722.82
-3731.96
-3740.43
-3748.22
-3755.36
-3761.85
-3767.72
-3772.97
-3777.62
-3781.67
-3785.14
-3788.04
-3790.38
-3792.16
-3793.41
-3794.11
-3794.29
-3793.95
-3793.1
-3791.74
-3789.88
-3787.52
-3784.68
-3781.35
-3777.54
-3773.25
-3768.49
-3763.26
-3757.56
-3751.4
-3744.79
-3737.71
-3730.18
-3722.19
-3713.76
-3704.88
-3695.55
-3685.79
-3675.59
-3664.96
-3653.89
-3642.41
-3630.5
-3618.17
-3605.44
-3592.3
-3578.76
-3564.83
-3550.52
-3535.82
-3520.76
-3505.33
-3489.54
-3473.41
-3456.93
-3440.13
-3423
-3405.56
-3387.81
-3369.77
-3351.44
-3332.82
-3313.94
-3294.8
-3275.4
-3255.76
-3235.88
-3215.77
-3195.45
-3174.91
-3154.17
-3133.23
-3112.11
-3090.8
-3069.32
-3047.67
-3025.87
-3003.91
-2981.8
-2959.55
-2937.17
-2914.66
-2892.02
-2869.27
-2846.4
-2823.42
-2800.34
-2777.15
-2753.88
-2730.5
-2707.04
-2683.5
-2659.87
-2636.16
-2612.38
-2588.52
-2564.59
-2540.59
-2516.53
-2492.4
-2468.2
-2443.95
-2419.64
-2395.27
-2370.84
-2346.36
-2321.83
-2297.25
-2272.62
-2247.95
-2223.23
-2198.46
-2173.65
-2148.81
-2123.92
-2099
-2074.05
-2049.07
-2024.06
-1999.02
-1973.96
-1948.88
-1923.79
-1898.69
-1873.58
-1848.47
-1823.36
-1798.26
-1773.17
-1748.1
-1723.05
-1698.04
-1673.06
-1648.12
-1623.24
-1598.42
-1573.67
-1548.99
-1524.39
-1499.89
-1475.49
-1451.21
-1427.05
-1403.02
-1379.14
-1355.42
-1331.87
-1308.5
-1285.33
-1262.37
-1239.62
-1217.12
-1194.86
-1172.87
-1151.16
-1129.75
-1108.64
-1087.86
-1067.42
-1047.33
-1027.61
-1008.28
-989.35
-970.835
-952.753
-935.117
-917.944
-901.246
-885.04
-869.339
-854.158
-839.512
-825.413
-811.876
-798.913
-786.538
-774.764
-763.602
-753.065
-743.164
-733.91
-725.316
-717.39
-710.144
-703.585
-697.724
-692.567
-688.118
-684.385
-681.382
-679.109
-677.65
-676.928
5557.38
5557.95
5559.09
5560.79
5563.06
5565.89
5569.28
5573.23
5577.74
5582.81
5588.43
5594.61
5601.33
5608.6
5616.4
5624.75
5633.62
5643.02
5652.92
5663.32
5674.22
5685.6
5697.46
5709.77
5722.53
5735.71
5749.37
5763.42
5777.86
5792.68
5807.86
5823.4
5839.26
5855.43
5871.9
5888.64
5905.62
5922.83
5940.23
5957.81
5975.55
5993.42
6011.42
6029.53
6047.75
6066.03
6084.36
6102.73
6121.11
6139.45
6157.74
6175.94
6194.02
6211.96
6229.72
6247.27
6264.57
6281.6
6298.31
6314.7
6330.74
6346.45
6361.82
6376.84
6391.51
6405.79
6419.65
6433.06
6446
6458.44
6470.36
6481.76
6492.6
6502.87
6512.56
6521.65
6530.12
6537.97
6545.18
6551.73
6557.63
6562.85
6567.4
6571.25
6574.4
6576.85
6578.59
6579.61
6579.9
6579.47
6578.31
6576.4
6573.76
6570.37
6566.24
6561.35
6555.72
6549.34
6542.21
6534.35
6525.77
6516.47
6506.44
6495.68
6484.17
6471.9
6458.85
6445.04
6430.46
6415.14
6399.08
6382.28
6364.75
6346.51
6327.56
6307.91
6287.55
6266.51
6244.78
6222.37
6199.29
6175.54
6151.13
6126.07
6100.37
6074.02
6047.05
6019.45
5991.24
5962.42
5932.99
5902.97
5872.37
5841.19
5809.43
5777.12
5744.24
5710.82
5676.85
5642.35
5607.31
5571.74
5535.65
5499.05
5461.95
5424.35
5386.27
5347.71
5308.67
5269.17
5229.2
5188.77
5147.86
5106.49
5064.66
5022.37
4979.63
4936.43
4892.78
4848.66
4804.08
4759.01
4713.44
4667.37
4620.8
4573.71
4526.09
4477.96
4429.43
4379.94
4330.06
4279.64
4228.64
4177.03
4124.81
4071.95
4018.45
3964.27
3909.42
3853.87
3797.6
3740.6
3682.83
3624.29
3564.97
3504.84
3443.92
3382.18
3319.64
3256.29
3192.12
3127.12
3061.31
2994.66
2927.18
2858.87
2789.72
2719.74
2648.93
2577.29
2504.83
2431.54
2357.45
2282.56
2206.89
2130.44
2053.23
1975.28
1896.61
1817.24
1737.19
1656.49
1575.16
1493.24
1410.75
1327.73
1244.21
1160.23
1075.82
991.04
905.916
820.494
734.818
648.935
562.89
476.732
390.51
304.275
218.079
131.975
46.0165
-39.7443
-125.254
-210.457
-295.302
-379.734
-463.701
-547.149
-630.029
-712.29
-793.882
-874.759
-954.873
-1034.18
-1112.64
-1190.22
-1266.85
-1342.51
-1417.16
-1490.77
-1563.31
-1634.74
-1705.04
-1774.17
-1842.13
-1908.87
-1974.4
-2038.68
-2101.7
-2163.45
-2223.91
-2283.08
-2340.95
-2397.52
-2452.78
-2506.72
-2559.35
-2610.67
-2660.69
-2709.4
-2756.81
-2802.93
-2847.77
-2891.33
-2933.64
-2974.69
-3014.5
-3053.09
-3090.47
-3126.65
-3161.65
-3195.49
-3228.18
-3259.73
-3290.18
-3319.54
-3347.82
-3375.02
-3401.18
-3426.32
-3450.46
-3473.62
-3495.81
-3517.06
-3537.37
-3556.77
-3575.28
-3592.91
-3609.68
-3625.61
-3640.72
-3655.03
-3668.54
-3681.28
-3693.26
-3704.5
-3715.02
-3724.82
-3733.93
-3742.36
-3750.11
-3757.22
-3763.68
-3769.52
-3774.74
-3779.36
-3783.38
-3786.83
-3789.7
-3792.01
-3793.78
-3794.99
-3795.68
-3795.84
-3795.48
-3794.61
-3793.23
-3791.36
-3788.99
-3786.13
-3782.79
-3778.96
-3774.67
-3769.9
-3764.66
-3758.95
-3752.78
-3746.16
-3739.07
-3731.53
-3723.54
-3715.09
-3706.2
-3696.87
-3687.09
-3676.88
-3666.23
-3655.16
-3643.65
-3631.73
-3619.39
-3606.64
-3593.48
-3579.92
-3565.97
-3551.63
-3536.92
-3521.83
-3506.37
-3490.56
-3474.41
-3457.91
-3441.07
-3423.92
-3406.45
-3388.68
-3370.61
-3352.25
-3333.61
-3314.7
-3295.53
-3276.1
-3256.44
-3236.53
-3216.4
-3196.05
-3175.49
-3154.72
-3133.76
-3112.62
-3091.29
-3069.79
-3048.12
-3026.3
-3004.32
-2982.19
-2959.93
-2937.53
-2915
-2892.35
-2869.58
-2846.7
-2823.71
-2800.62
-2777.43
-2754.14
-2730.76
-2707.3
-2683.74
-2660.11
-2636.4
-2612.61
-2588.75
-2564.81
-2540.81
-2516.74
-2492.61
-2468.41
-2444.16
-2419.85
-2395.47
-2371.05
-2346.57
-2322.04
-2297.45
-2272.82
-2248.14
-2223.42
-2198.65
-2173.84
-2148.99
-2124.1
-2099.17
-2074.21
-2049.22
-2024.2
-1999.16
-1974.09
-1949
-1923.9
-1898.79
-1873.66
-1848.54
-1823.41
-1798.3
-1773.19
-1748.1
-1723.03
-1698
-1672.99
-1648.04
-1623.13
-1598.28
-1573.5
-1548.79
-1524.17
-1499.64
-1475.21
-1450.89
-1426.7
-1402.64
-1378.72
-1354.96
-1331.37
-1307.97
-1284.76
-1261.75
-1238.97
-1216.42
-1194.13
-1172.1
-1150.34
-1128.89
-1107.74
-1086.92
-1066.43
-1046.3
-1026.54
-1007.17
-988.199
-969.644
-951.522
-933.848
-916.635
-899.9
-883.656
-867.919
-852.703
-838.022
-823.889
-810.318
-797.323
-784.916
-773.111
-761.919
-751.353
-741.425
-732.145
-723.525
-715.576
-708.306
-701.727
-695.845
-690.67
-686.205
-682.459
-679.446
-677.165
-675.701
-674.978
5555.29
5555.86
5557.01
5558.72
5560.99
5563.83
5567.23
5571.2
5575.73
5580.81
5586.46
5592.65
5599.4
5606.69
5614.53
5622.9
5631.8
5641.23
5651.16
5661.6
5672.54
5683.96
5695.85
5708.21
5721.02
5734.28
5747.95
5762.05
5776.54
5791.42
5806.66
5822.25
5838.17
5854.4
5870.93
5887.74
5904.79
5922.07
5939.55
5957.21
5975.04
5993.01
6011.09
6029.28
6047.62
6065.97
6084.38
6102.82
6121.25
6139.66
6158.01
6176.27
6194.41
6212.4
6230.22
6247.83
6265.2
6282.29
6299.09
6315.58
6331.73
6347.54
6363.01
6378.12
6392.86
6407.2
6421.11
6434.58
6447.56
6460.06
6472.03
6483.47
6494.36
6504.67
6514.4
6523.53
6532.05
6539.93
6547.17
6553.77
6559.69
6564.95
6569.52
6573.4
6576.58
6579.05
6580.8
6581.84
6582.15
6581.73
6580.58
6578.69
6576.05
6572.68
6568.55
6563.67
6558.04
6551.66
6544.54
6536.69
6528.1
6518.79
6508.75
6497.98
6486.46
6474.18
6461.13
6447.32
6432.74
6417.4
6401.31
6384.49
6366.94
6348.67
6329.7
6310.01
6289.63
6268.56
6246.81
6224.37
6201.26
6177.49
6153.06
6127.97
6102.25
6075.88
6048.88
6021.26
5993.02
5964.18
5934.73
5904.69
5874.07
5842.87
5811.09
5778.76
5745.87
5712.43
5678.45
5643.93
5608.89
5573.31
5537.23
5500.63
5463.53
5425.93
5387.86
5349.3
5310.27
5270.77
5230.81
5190.38
5149.48
5108.13
5066.31
5024.04
4981.32
4938.14
4894.5
4850.41
4805.84
4760.79
4715.24
4669.2
4622.65
4575.59
4528.01
4479.89
4431.23
4381.95
4332.13
4281.74
4230.76
4179.17
4126.97
4074.13
4020.64
3966.49
3911.65
3856.11
3799.85
3742.85
3685.1
3626.59
3567.29
3507.19
3446.3
3384.6
3322.08
3258.75
3194.59
3129.61
3063.8
2997.15
2929.66
2861.34
2792.17
2722.16
2651.31
2579.63
2507.12
2433.78
2359.63
2284.67
2208.92
2132.39
2055.1
1977.06
1898.29
1818.81
1738.65
1657.84
1576.39
1494.34
1411.71
1328.56
1244.9
1160.77
1076.21
991.275
905.993
820.41
734.569
648.519
562.305
475.977
389.584
303.177
216.808
130.532
44.4012
-41.5312
-127.211
-212.583
-297.593
-382.19
-466.318
-549.926
-632.96
-715.371
-797.109
-878.126
-958.374
-1037.81
-1116.39
-1194.09
-1270.83
-1346.59
-1421.34
-1495.03
-1567.65
-1639.15
-1709.51
-1778.71
-1846.71
-1913.51
-1979.07
-2043.38
-2106.42
-2168.19
-2228.66
-2287.84
-2345.71
-2402.27
-2457.51
-2511.44
-2564.05
-2615.35
-2665.33
-2714.01
-2761.38
-2807.47
-2852.26
-2895.78
-2938.03
-2979.03
-3018.79
-3057.33
-3094.65
-3130.77
-3165.71
-3199.49
-3232.11
-3263.61
-3293.99
-3323.28
-3351.5
-3378.64
-3404.74
-3429.82
-3453.9
-3476.99
-3499.12
-3520.31
-3540.56
-3559.9
-3578.35
-3595.93
-3612.64
-3628.52
-3643.58
-3657.82
-3671.29
-3683.97
-3695.91
-3707.1
-3717.57
-3727.32
-3736.38
-3744.77
-3752.48
-3759.55
-3765.97
-3771.77
-3776.95
-3781.53
-3785.52
-3788.93
-3791.77
-3794.06
-3795.79
-3796.98
-3797.64
-3797.77
-3797.39
-3796.5
-3795.1
-3793.21
-3790.82
-3787.95
-3784.59
-3780.75
-3776.44
-3771.66
-3766.41
-3760.69
-3754.51
-3747.87
-3740.77
-3733.22
-3725.22
-3716.76
-3707.86
-3698.51
-3688.72
-3678.49
-3667.83
-3656.73
-3645.22
-3633.27
-3620.91
-3608.14
-3594.96
-3581.37
-3567.4
-3553.03
-3538.29
-3523.17
-3507.69
-3491.84
-3475.65
-3459.12
-3442.26
-3425.07
-3407.57
-3389.76
-3371.65
-3353.26
-3334.59
-3315.65
-3296.44
-3276.99
-3257.28
-3237.35
-3217.19
-3196.81
-3176.21
-3155.42
-3134.43
-3113.26
-3091.9
-3070.37
-3048.68
-3026.83
-3004.83
-2982.68
-2960.4
-2937.98
-2915.43
-2892.77
-2869.98
-2847.09
-2824.08
-2800.98
-2777.77
-2754.48
-2731.09
-2707.61
-2684.05
-2660.41
-2636.69
-2612.9
-2589.03
-2565.09
-2541.09
-2517.01
-2492.88
-2468.68
-2444.42
-2420.11
-2395.74
-2371.31
-2346.82
-2322.29
-2297.71
-2273.07
-2248.39
-2223.66
-2198.89
-2174.07
-2149.22
-2124.32
-2099.39
-2074.42
-2049.42
-2024.39
-1999.33
-1974.25
-1949.15
-1924.04
-1898.91
-1873.77
-1848.62
-1823.48
-1798.34
-1773.21
-1748.1
-1723.01
-1697.94
-1672.91
-1647.93
-1622.99
-1598.11
-1573.29
-1548.55
-1523.89
-1499.32
-1474.85
-1450.49
-1426.26
-1402.15
-1378.19
-1354.39
-1330.76
-1307.3
-1284.04
-1260.99
-1238.16
-1215.56
-1193.21
-1171.13
-1149.32
-1127.81
-1106.61
-1085.74
-1065.2
-1045.02
-1025.21
-1005.78
-986.761
-968.156
-949.984
-932.26
-914.999
-898.217
-881.927
-866.144
-850.883
-836.157
-821.982
-808.37
-795.334
-782.887
-771.044
-759.815
-749.213
-739.25
-729.937
-721.285
-713.306
-706.008
-699.402
-693.496
-688.299
-683.815
-680.053
-677.026
-674.735
-673.264
-672.538
5552.8
5553.38
5554.52
5556.24
5558.52
5561.37
5564.79
5568.78
5573.32
5578.43
5584.1
5590.33
5597.1
5604.42
5612.29
5620.7
5629.63
5639.09
5649.07
5659.55
5670.52
5681.99
5693.93
5706.34
5719.21
5732.51
5746.25
5760.41
5774.96
5789.9
5805.21
5820.87
5836.87
5853.18
5869.78
5886.66
5903.8
5921.16
5938.74
5956.5
5974.42
5992.49
6010.68
6028.98
6047.4
6065.86
6084.36
6102.89
6121.42
6139.91
6158.33
6176.67
6194.89
6212.97
6230.86
6248.55
6266
6283.19
6300.08
6316.67
6332.93
6348.86
6364.43
6379.63
6394.45
6408.87
6422.86
6436.39
6449.44
6462
6474.03
6485.53
6496.47
6506.84
6516.63
6525.81
6534.37
6542.3
6549.59
6556.22
6562.18
6567.47
6572.08
6575.99
6579.2
6581.69
6583.47
6584.53
6584.86
6584.46
6583.32
6581.44
6578.82
6575.44
6571.32
6566.45
6560.83
6554.46
6547.34
6539.49
6530.9
6521.57
6511.51
6500.71
6489.15
6476.84
6463.76
6449.92
6435.32
6419.96
6403.87
6387.03
6369.47
6351.19
6332.19
6312.49
6292.09
6270.99
6249.21
6226.75
6203.62
6179.82
6155.36
6130.25
6104.49
6078.1
6051.07
6023.42
5995.16
5966.29
5936.82
5906.75
5876.11
5844.88
5813.09
5780.74
5747.83
5714.37
5680.38
5645.85
5610.79
5575.21
5539.12
5502.52
5465.43
5427.84
5389.77
5351.22
5312.2
5272.72
5232.77
5192.36
5151.49
5110.16
5068.37
5026.13
4983.43
4940.27
4896.66
4852.58
4808.03
4763
4717.48
4671.47
4624.95
4577.92
4530.36
4482.27
4433.63
4384.41
4334.62
4284.27
4233.32
4181.77
4129.6
4076.79
4023.32
3969.19
3914.38
3858.86
3802.62
3745.65
3687.92
3629.43
3570.16
3510.09
3449.22
3387.55
3325.06
3261.75
3197.61
3132.63
3066.82
3000.17
2932.67
2864.32
2795.12
2725.08
2654.19
2582.46
2509.89
2436.49
2362.26
2287.23
2211.39
2134.76
2057.36
1979.21
1900.32
1820.72
1740.42
1659.47
1577.87
1495.67
1412.88
1329.56
1245.73
1161.42
1076.69
991.564
906.09
820.311
734.272
648.019
561.601
475.067
388.466
301.851
215.273
128.788
42.4481
-43.692
-129.577
-215.153
-300.365
-385.159
-469.482
-553.279
-636.498
-719.09
-801.002
-882.186
-962.594
-1042.18
-1120.9
-1198.75
-1275.62
-1351.5
-1426.36
-1500.16
-1572.87
-1644.46
-1714.9
-1784.17
-1852.23
-1919.08
-1984.68
-2049.03
-2112.1
-2173.88
-2234.37
-2293.56
-2351.43
-2407.98
-2463.21
-2517.12
-2569.7
-2620.97
-2670.91
-2719.55
-2766.88
-2812.91
-2857.65
-2901.12
-2943.31
-2984.25
-3023.94
-3062.41
-3099.66
-3135.71
-3170.58
-3204.28
-3236.84
-3268.26
-3298.57
-3327.78
-3355.91
-3382.98
-3409.01
-3434.01
-3458.02
-3481.04
-3503.1
-3524.21
-3544.39
-3563.66
-3582.04
-3599.54
-3616.19
-3632.01
-3647
-3661.18
-3674.58
-3687.21
-3699.08
-3710.21
-3720.62
-3730.32
-3739.33
-3747.66
-3755.32
-3762.34
-3768.71
-3774.46
-3779.6
-3784.14
-3788.08
-3791.45
-3794.26
-3796.5
-3798.2
-3799.36
-3799.99
-3800.09
-3799.68
-3798.76
-3797.34
-3795.43
-3793.02
-3790.12
-3786.75
-3782.89
-3778.57
-3773.77
-3768.5
-3762.77
-3756.58
-3749.93
-3742.82
-3735.25
-3727.23
-3718.76
-3709.85
-3700.48
-3690.68
-3680.43
-3669.75
-3658.63
-3647.09
-3635.12
-3622.74
-3609.94
-3596.73
-3583.12
-3569.11
-3554.71
-3539.93
-3524.78
-3509.26
-3493.38
-3477.15
-3460.58
-3443.68
-3426.45
-3408.91
-3391.06
-3372.91
-3354.48
-3335.77
-3316.78
-3297.54
-3278.04
-3258.3
-3238.33
-3218.13
-3197.71
-3177.08
-3156.25
-3135.23
-3114.02
-3092.63
-3071.08
-3049.35
-3027.48
-3005.45
-2983.27
-2960.96
-2938.52
-2915.95
-2893.26
-2870.46
-2847.55
-2824.53
-2801.41
-2778.19
-2754.88
-2731.48
-2707.99
-2684.42
-2660.77
-2637.04
-2613.24
-2589.37
-2565.43
-2541.42
-2517.34
-2493.2
-2469
-2444.74
-2420.42
-2396.05
-2371.62
-2347.13
-2322.6
-2298.01
-2273.37
-2248.69
-2223.95
-2199.18
-2174.36
-2149.49
-2124.59
-2099.65
-2074.67
-2049.66
-2024.62
-1999.55
-1974.45
-1949.34
-1924.2
-1899.05
-1873.89
-1848.73
-1823.56
-1798.39
-1773.24
-1748.1
-1722.98
-1697.88
-1672.82
-1647.8
-1622.82
-1597.9
-1573.05
-1548.26
-1523.56
-1498.94
-1474.43
-1450.02
-1425.73
-1401.58
-1377.56
-1353.7
-1330.01
-1306.5
-1283.18
-1260.07
-1237.18
-1214.52