/*--------------------------------*- C++ -*----------------------------------*\
| =========                 |                                                 |
| \\      /  F ield         | OpenFOAM: The Open Source CFD Toolbox           |
|  \\    /   O peration     | Version:  v2006                                 |
|   \\  /    A nd           | Website:  www.openfoam.com                      |
|    \\/     M anipulation  |                                                 |
\*---------------------------------------------------------------------------*/
FoamFile
{
    version     2.0;
    format      ascii;
    class       volVectorField;
    location    "0";
    object      U;
}
// * * * * * * * * * * * * * * * * * * * * * * * * * * * * * * * * * * * * * //

dimensions      [0 1 -1 0 0 0 0];


internalField   nonuniform List<vector> 
20000
(
(1 5.18553e-12 0)
(1 1.41253e-11 0)
(1 2.439e-11 0)
(1 3.70051e-11 0)
(1 5.23985e-11 0)
(1 7.11577e-11 0)
(1 9.35059e-11 0)
(1 1.19086e-10 0)
(1 1.47127e-10 0)
(1 1.76773e-10 0)
(1 2.07309e-10 0)
(1 2.38132e-10 0)
(1 2.68595e-10 0)
(1 2.97817e-10 0)
(1 3.2457e-10 0)
(1 3.47293e-10 0)
(1 3.64237e-10 0)
(1 3.7372e-10 0)
(1 3.74378e-10 0)
(1 3.65197e-10 0)
(1 3.45507e-10 0)
(1 3.15492e-10 0)
(1 2.7631e-10 0)
(1 2.29874e-10 0)
(1 1.78488e-10 0)
(1 1.24465e-10 0)
(1 6.98262e-11 0)
(1 1.61791e-11 0)
(1 -3.50858e-11 0)
(1 -8.22992e-11 0)
(1 -1.23111e-10 0)
(1 -1.54318e-10 0)
(1 -1.72724e-10 0)
(1 -1.76801e-10 0)
(1 -1.66428e-10 0)
(1 -1.47276e-10 0)
(1 -1.46377e-10 0)
(1 -1.77625e-10 0)
(1 -2.46911e-10 0)
(1 -3.58305e-10 0)
(1 -5.1686e-10 0)
(1 -7.29612e-10 0)
(1 -1.00596e-09 0)
(1 -1.35799e-09 0)
(1 -1.80079e-09 0)
(1 -2.3528e-09 0)
(1 -3.03628e-09 0)
(1 -3.87817e-09 0)
(1 -4.91135e-09 0)
(1 -6.17612e-09 0)
(1 -7.72156e-09 0)
(1 -9.60673e-09 0)
(1 -1.19019e-08 0)
(1 -1.46894e-08 0)
(1 -1.8064e-08 0)
(1 -2.21315e-08 0)
(1 -2.70055e-08 0)
(1 -3.28047e-08 0)
(1 -3.96542e-08 0)
(1 -4.76909e-08 0)
(1 -5.7064e-08 0)
(1 -6.78966e-08 0)
(1 -8.02291e-08 0)
(1 -9.4075e-08 0)
(1 -1.09632e-07 0)
(1 -1.27144e-07 0)
(1.00001 -1.45707e-07 0)
(1.00001 -1.62242e-07 0)
(1.00001 -1.75096e-07 0)
(1.00001 -1.92815e-07 0)
(1.00001 -2.31896e-07 0)
(1.00001 -2.76853e-07 0)
(1.00001 -2.2451e-07 0)
(1.00001 4.12141e-08 0)
(1.00001 4.00624e-07 0)
(1.00001 7.05983e-07 0)
(1.00001 9.11355e-07 0)
(1.00001 1.03686e-06 0)
(1.00001 1.11971e-06 0)
(1.00001 1.19157e-06 0)
(1 1.27327e-06 0)
(1 1.37447e-06 0)
(1 1.49329e-06 0)
(0.999997 1.61649e-06 0)
(0.999995 1.72206e-06 0)
(0.999992 1.78453e-06 0)
(0.99999 1.78181e-06 0)
(0.999987 1.70083e-06 0)
(0.999984 1.54083e-06 0)
(0.999981 1.31342e-06 0)
(0.999977 1.03651e-06 0)
(0.999974 7.27805e-07 0)
(0.999971 4.02031e-07 0)
(0.999968 7.1352e-08 0)
(0.999965 -2.52945e-07 0)
(0.999963 -5.58792e-07 0)
(0.99996 -8.33123e-07 0)
(0.999958 -1.06282e-06 0)
(0.999956 -1.23602e-06 0)
(0.999955 -1.34324e-06 0)
(0.999954 -1.37848e-06 0)
(0.999953 -1.33942e-06 0)
(0.999952 -1.22836e-06 0)
(0.999952 -1.06325e-06 0)
(0.999952 -8.88928e-07 0)
(0.999952 -7.6308e-07 0)
(0.999953 -7.00717e-07 0)
(0.999955 -6.96282e-07 0)
(0.999958 -7.38623e-07 0)
(0.999962 -8.09594e-07 0)
(0.999967 -8.76379e-07 0)
(0.999973 -8.82437e-07 0)
(0.99998 -7.45306e-07 0)
(0.999986 -3.69775e-07 0)
(0.999993 3.18013e-07 0)
(0.999997 1.31203e-06 0)
(1 2.44435e-06 0)
(1 3.30225e-06 0)
(0.999998 3.80228e-06 0)
(0.999996 4.01911e-06 0)
(0.999993 4.03778e-06 0)
(0.99999 3.90615e-06 0)
(0.999986 3.64468e-06 0)
(0.999982 3.26298e-06 0)
(0.999978 2.77124e-06 0)
(0.999974 2.18231e-06 0)
(0.999969 1.51649e-06 0)
(0.999964 8.00713e-07 0)
(0.999959 6.70204e-08 0)
(0.999955 -6.49051e-07 0)
(0.99995 -1.3106e-06 0)
(0.999946 -1.88329e-06 0)
(0.999943 -2.33877e-06 0)
(0.999939 -2.65753e-06 0)
(0.999936 -2.83059e-06 0)
(0.999934 -2.85972e-06 0)
(0.999932 -2.75635e-06 0)
(0.999931 -2.5396e-06 0)
(0.99993 -2.23405e-06 0)
(0.999929 -1.87196e-06 0)
(0.999929 -1.5018e-06 0)
(0.999929 -1.19891e-06 0)
(0.99993 -9.95433e-07 0)
(0.999931 -8.79933e-07 0)
(0.999934 -8.28357e-07 0)
(0.999937 -8.12695e-07 0)
(0.999941 -8.04417e-07 0)
(0.999945 -7.80375e-07 0)
(0.999949 -7.28762e-07 0)
(0.999953 -6.51751e-07 0)
(0.999957 -5.62745e-07 0)
(0.99996 -4.78843e-07 0)
(0.999963 -4.12652e-07 0)
(0.999966 -3.68446e-07 0)
(0.999968 -3.43704e-07 0)
(0.99997 -3.32732e-07 0)
(0.999972 -3.29367e-07 0)
(0.999975 -3.28385e-07 0)
(0.999977 -3.26106e-07 0)
(0.999979 -3.20445e-07 0)
(0.999981 -3.10603e-07 0)
(0.999983 -2.96685e-07 0)
(0.999985 -2.79336e-07 0)
(0.999987 -2.59463e-07 0)
(0.999988 -2.38031e-07 0)
(0.99999 -2.15934e-07 0)
(0.999991 -1.93932e-07 0)
(0.999992 -1.72625e-07 0)
(0.999994 -1.52446e-07 0)
(0.999995 -1.33686e-07 0)
(0.999995 -1.16509e-07 0)
(0.999996 -1.00984e-07 0)
(0.999997 -8.71014e-08 0)
(0.999997 -7.48017e-08 0)
(0.999998 -6.39891e-08 0)
(0.999998 -5.45472e-08 0)
(0.999998 -4.63494e-08 0)
(0.999999 -3.92672e-08 0)
(0.999999 -3.31751e-08 0)
(0.999999 -2.7954e-08 0)
(0.999999 -2.34928e-08 0)
(0.999999 -1.96891e-08 0)
(1 -1.64488e-08 0)
(1 -1.36866e-08 0)
(1 -1.13256e-08 0)
(1 -9.29775e-09 0)
(1 -7.5448e-09 0)
(1 -6.01866e-09 0)
(1 -4.68215e-09 0)
(1 -3.50963e-09 0)
(1 -2.48746e-09 0)
(1 -1.61355e-09 0)
(1 -8.94799e-10 0)
(1 -3.40938e-10 0)
(1 4.30699e-11 0)
(1 2.6694e-10 0)
(1 3.50286e-10 0)
(1 3.35305e-10 0)
(1 2.6952e-10 0)
(1 8.52027e-11 0)
(1 1.01378e-11 0)
(1 2.47959e-11 0)
(1 3.9929e-11 0)
(1 5.69817e-11 0)
(1 7.5509e-11 0)
(1 9.56755e-11 0)
(1 1.17656e-10 0)
(1 1.41524e-10 0)
(1 1.67265e-10 0)
(1 1.94765e-10 0)
(1 2.23788e-10 0)
(1 2.53941e-10 0)
(1 2.84659e-10 0)
(1 3.15185e-10 0)
(1 3.44604e-10 0)
(1 3.71936e-10 0)
(1 3.96269e-10 0)
(1 4.16912e-10 0)
(1 4.33501e-10 0)
(1 4.46005e-10 0)
(1 4.54838e-10 0)
(1 4.61119e-10 0)
(1 4.6615e-10 0)
(1 4.71049e-10 0)
(1 4.7648e-10 0)
(1 4.82457e-10 0)
(1 4.88227e-10 0)
(1 4.92369e-10 0)
(1 4.93105e-10 0)
(1 4.88615e-10 0)
(1 4.7706e-10 0)
(1 4.56352e-10 0)
(1 4.23408e-10 0)
(1 3.73714e-10 0)
(1 3.02653e-10 0)
(1 2.02277e-10 0)
(1 4.71666e-11 0)
(1 -1.7769e-10 0)
(1 -4.85524e-10 0)
(1 -8.92947e-10 0)
(1 -1.4211e-09 0)
(1 -2.09634e-09 0)
(1 -2.95103e-09 0)
(1 -4.02455e-09 0)
(1 -5.36447e-09 0)
(1 -7.02772e-09 0)
(1 -9.08229e-09 0)
(1 -1.16098e-08 0)
(1 -1.47093e-08 0)
(1 -1.85023e-08 1.3388e-42)
(1 -2.3136e-08 1.39525e-42)
(1 -2.87877e-08 0)
(1 -3.56679e-08 0)
(1 -4.40239e-08 0)
(1 -5.41403e-08 0)
(1 -6.63339e-08 0)
(1 -8.09456e-08 0)
(1 -9.83341e-08 0)
(1 -1.18877e-07 0)
(1 -1.42976e-07 0)
(1 -1.71043e-07 0)
(1 -2.03463e-07 0)
(1 -2.40525e-07 0)
(1 -2.8238e-07 0)
(1 -3.29016e-07 0)
(1 -3.80056e-07 0)
(1.00001 -4.34239e-07 0)
(1.00001 -4.89117e-07 0)
(1.00001 -5.42401e-07 0)
(1.00001 -5.94373e-07 0)
(1.00001 -6.45025e-07 0)
(1.00001 -6.76217e-07 0)
(1.00001 -6.29448e-07 0)
(1.00002 -4.54131e-07 0)
(1.00002 -2.56374e-07 0)
(1.00002 -1.14117e-07 0)
(1.00003 -2.77298e-08 0)
(1.00003 2.23549e-08 0)
(1.00003 4.61961e-08 0)
(1.00004 4.07742e-08 0)
(1.00004 -1.71094e-09 0)
(1.00005 -8.31228e-08 0)
(1.00005 -1.90668e-07 0)
(1.00006 -2.93517e-07 0)
(1.00006 -3.50065e-07 0)
(1.00007 -3.23649e-07 0)
(1.00008 -1.99378e-07 0)
(1.00008 1.34797e-08 0)
(1.00008 2.89336e-07 0)
(1.00009 5.93352e-07 0)
(1.00009 9.01361e-07 0)
(1.00009 1.2017e-06 0)
(1.00008 1.48813e-06 0)
(1.00008 1.75401e-06 0)
(1.00007 1.98987e-06 0)
(1.00006 2.18386e-06 0)
(1.00005 2.32239e-06 0)
(1.00004 2.39177e-06 0)
(1.00003 2.38217e-06 0)
(1.00001 2.29085e-06 0)
(1 2.12175e-06 0)
(0.999992 1.88348e-06 0)
(0.999982 1.5872e-06 0)
(0.999974 1.23994e-06 0)
(0.999967 8.35869e-07 0)
(0.999963 3.61624e-07 0)
(0.999961 -1.67974e-07 0)
(0.99996 -7.30232e-07 0)
(0.999962 -1.30612e-06 0)
(0.999965 -1.87732e-06 0)
(0.999969 -2.42221e-06 0)
(0.999975 -2.91209e-06 0)
(0.999983 -3.30952e-06 0)
(0.999993 -3.5707e-06 0)
(1 -3.65434e-06 0)
(1.00002 -3.54149e-06 0)
(1.00004 -3.28403e-06 0)
(1.00006 -3.10263e-06 0)
(1.00008 -2.9635e-06 0)
(1.0001 -2.78064e-06 0)
(1.00012 -2.49947e-06 0)
(1.00014 -2.10135e-06 0)
(1.00016 -1.58768e-06 0)
(1.00018 -9.68443e-07 0)
(1.00019 -2.65451e-07 0)
(1.00019 5.11697e-07 0)
(1.0002 1.31799e-06 0)
(1.00019 2.11669e-06 0)
(1.00018 2.87052e-06 0)
(1.00017 3.54022e-06 0)
(1.00016 4.08907e-06 0)
(1.00014 4.48683e-06 0)
(1.00011 4.71294e-06 0)
(1.00009 4.75884e-06 0)
(1.00006 4.62865e-06 0)
(1.00004 4.33851e-06 0)
(1.00002 3.91512e-06 0)
(0.999997 3.39362e-06 0)
(0.99998 2.8139e-06 0)
(0.999966 2.21165e-06 0)
(0.999955 1.6056e-06 0)
(0.999947 9.83852e-07 0)
(0.999942 3.56151e-07 0)
(0.99994 -2.51052e-07 0)
(0.999939 -8.08413e-07 0)
(0.99994 -1.28019e-06 0)
(0.999943 -1.62555e-06 0)
(0.999946 -1.81258e-06 0)
(0.99995 -1.83574e-06 0)
(0.999954 -1.72479e-06 0)
(0.999958 -1.53765e-06 0)
(0.999961 -1.33868e-06 0)
(0.999963 -1.17486e-06 0)
(0.999966 -1.0651e-06 0)
(0.999968 -1.00583e-06 0)
(0.99997 -9.82596e-07 0)
(0.999972 -9.78691e-07 0)
(0.999975 -9.79627e-07 0)
(0.999977 -9.7517e-07 0)
(0.999979 -9.596e-07 0)
(0.999981 -9.30886e-07 0)
(0.999983 -8.8957e-07 0)
(0.999985 -8.37745e-07 0)
(0.999987 -7.78224e-07 0)
(0.999988 -7.13958e-07 0)
(0.99999 -6.47669e-07 0)
(0.999991 -5.81655e-07 0)
(0.999992 -5.1772e-07 0)
(0.999994 -4.57177e-07 0)
(0.999995 -4.00893e-07 0)
(0.999995 -3.49366e-07 0)
(0.999996 -3.02795e-07 0)
(0.999997 -2.61158e-07 0)
(0.999997 -2.2427e-07 0)
(0.999998 -1.91845e-07 0)
(0.999998 -1.63532e-07 0)
(0.999998 -1.38951e-07 0)
(0.999999 -1.17713e-07 0)
(0.999999 -9.9442e-08 0)
(0.999999 -8.37812e-08 0)
(0.999999 -7.04009e-08 0)
(0.999999 -5.90015e-08 0)
(1 -4.93138e-08 0)
(1 -4.10988e-08 0)
(1 -3.41461e-08 0)
(1 -2.82715e-08 0)
(1 -2.33153e-08 0)
(1 -1.91397e-08 0)
(1 -1.56267e-08 0)
(1 -1.26764e-08 0)
(1 -1.02052e-08 0)
(1 -8.14406e-09 0)
(1 -6.43629e-09 0)
(1 -5.03422e-09 0)
(1 -3.89582e-09 0)
(1 -2.9796e-09 0)
(1 -2.25002e-09 0)
(1 -1.65444e-09 0)
(1 -1.20603e-09 0)
(1 -6.51822e-10 0)
(1 1.25162e-11 0)
(1 2.80907e-11 0)
(1 4.31709e-11 0)
(1 5.91556e-11 0)
(1 7.458e-11 0)
(1 8.93334e-11 0)
(1 1.03969e-10 0)
(1 1.19555e-10 0)
(1 1.37308e-10 0)
(1 1.58121e-10 0)
(1 1.8235e-10 0)
(1 2.09932e-10 0)
(1 2.40634e-10 0)
(1 2.74271e-10 0)
(1 3.10829e-10 0)
(1 3.50501e-10 0)
(1 3.93627e-10 0)
(1 4.40592e-10 0)
(1 4.91731e-10 0)
(1 5.47323e-10 0)
(1 6.07608e-10 0)
(1 6.72459e-10 0)
(1 7.4092e-10 0)
(1 8.11314e-10 0)
(1 8.81474e-10 0)
(1 9.48849e-10 0)
(1 1.01056e-09 0)
(1 1.06347e-09 0)
(1 1.10405e-09 0)
(1 1.12809e-09 0)
(1 1.13029e-09 0)
(1 1.10389e-09 0)
(1 1.04068e-09 0)
(1 9.31296e-10 0)
(1 7.64744e-10 0)
(1 5.28425e-10 0)
(1 2.11141e-10 0)
(1 -2.04995e-10 0)
(1 -7.45266e-10 0)
(1 -1.44152e-09 0)
(1 -2.33215e-09 0)
(1 -3.46321e-09 0)
(1 -4.89e-09 0)
(1 -6.67901e-09 0)
(1 -8.91001e-09 0)
(1 -1.16782e-08 0)
(1 -1.50969e-08 0)
(1 -1.93022e-08 0)
(1 -2.44591e-08 0)
(1 -3.07695e-08 0)
(1 -3.84791e-08 0)
(1 -4.78827e-08 0)
(1 -5.93306e-08 0)
(1 -7.32344e-08 0)
(1 -9.00682e-08 0)
(1 -1.1036e-07 0)
(1 -1.34677e-07 0)
(1 -1.63618e-07 0)
(1 -1.97813e-07 0)
(1 -2.37929e-07 0)
(1 -2.8465e-07 0)
(1 -3.38631e-07 0)
(1 -4.00404e-07 0)
(1 -4.70238e-07 0)
(1 -5.47929e-07 0)
(1 -6.32655e-07 0)
(1.00001 -7.2302e-07 0)
(1.00001 -8.1687e-07 0)
(1.00001 -9.0963e-07 0)
(1.00001 -9.91433e-07 0)
(1.00001 -1.0487e-06 0)
(1.00001 -1.07851e-06 0)
(1.00001 -1.10733e-06 0)
(1.00001 -1.16706e-06 0)
(1.00002 -1.2213e-06 0)
(1.00002 -1.22066e-06 0)
(1.00002 -1.15796e-06 0)
(1.00002 -1.06378e-06 0)
(1.00002 -9.83893e-07 0)
(1.00002 -9.65124e-07 0)
(1.00002 -1.04417e-06 0)
(1.00002 -1.23306e-06 0)
(1.00002 -1.50293e-06 0)
(1.00003 -1.77667e-06 0)
(1.00003 -1.94468e-06 0)
(1.00003 -1.90569e-06 0)
(1.00003 -1.61035e-06 0)
(1.00003 -1.07567e-06 0)
(1.00003 -3.67037e-07 0)
(1.00003 4.36679e-07 0)
(1.00003 1.27332e-06 0)
(1.00003 2.10476e-06 0)
(1.00003 2.90942e-06 0)
(1.00002 3.66831e-06 0)
(1.00002 4.35693e-06 0)
(1.00001 4.94437e-06 0)
(1.00001 5.39451e-06 0)
(0.999999 5.6706e-06 0)
(0.999992 5.74481e-06 0)
(0.999985 5.60568e-06 0)
(0.999978 5.25727e-06 0)
(0.999972 4.71343e-06 0)
(0.999967 3.99459e-06 0)
(0.999962 3.12998e-06 0)
(0.999959 2.16057e-06 0)
(0.999957 1.13189e-06 0)
(0.999957 7.62579e-08 0)
(0.999957 -9.84301e-07 0)
(0.99996 -2.03167e-06 0)
(0.999963 -3.05023e-06 0)
(0.999968 -4.02825e-06 0)
(0.999974 -4.95932e-06 0)
(0.999981 -5.84232e-06 0)
(0.999989 -6.67805e-06 0)
(0.999998 -7.46071e-06 0)
(1.00001 -8.1611e-06 0)
(1.00002 -8.70619e-06 0)
(1.00003 -8.96664e-06 0)
(1.00004 -8.89327e-06 0)
(1.00005 -8.49581e-06 0)
(1.00006 -7.79426e-06 0)
(1.00007 -6.79991e-06 0)
(1.00007 -5.52242e-06 0)
(1.00008 -3.9805e-06 0)
(1.00008 -2.20861e-06 0)
(1.00008 -2.56128e-07 0)
(1.00008 1.80273e-06 0)
(1.00008 3.88118e-06 0)
(1.00007 5.87979e-06 0)
(1.00006 7.69317e-06 0)
(1.00005 9.22079e-06 0)
(1.00004 1.03774e-05 0)
(1.00003 1.11026e-05 0)
(1.00001 1.13672e-05 0)
(1 1.1176e-05 0)
(0.999987 1.05656e-05 0)
(0.999975 9.59952e-06 0)
(0.999964 8.36227e-06 0)
(0.999954 6.94911e-06 0)
(0.999947 5.45273e-06 0)
(0.999941 3.9531e-06 0)
(0.999938 2.51629e-06 0)
(0.999935 1.18218e-06 0)
(0.999935 -2.92541e-08 0)
(0.999936 -1.09567e-06 0)
(0.999938 -1.97601e-06 0)
(0.999942 -2.61456e-06 0)
(0.999946 -2.96624e-06 0)
(0.99995 -3.02783e-06 0)
(0.999954 -2.85427e-06 0)
(0.999957 -2.54709e-06 0)
(0.999961 -2.21774e-06 0)
(0.999963 -1.94688e-06 0)
(0.999966 -1.76659e-06 0)
(0.999968 -1.67056e-06 0)
(0.99997 -1.63432e-06 0)
(0.999972 -1.62976e-06 0)
(0.999975 -1.63266e-06 0)
(0.999977 -1.62602e-06 0)
(0.999979 -1.60042e-06 0)
(0.999981 -1.5526e-06 0)
(0.999983 -1.4836e-06 0)
(0.999985 -1.39698e-06 0)
(0.999987 -1.29751e-06 0)
(0.999988 -1.19014e-06 0)
(0.99999 -1.07943e-06 0)
(0.999991 -9.69231e-07 0)
(0.999993 -8.62542e-07 0)
(0.999994 -7.61548e-07 0)
(0.999995 -6.6769e-07 0)
(0.999995 -5.81789e-07 0)
(0.999996 -5.04171e-07 0)
(0.999997 -4.34791e-07 0)
(0.999997 -3.7334e-07 0)
(0.999998 -3.19332e-07 0)
(0.999998 -2.72181e-07 0)
(0.999998 -2.3125e-07 0)
(0.999999 -1.9589e-07 0)
(0.999999 -1.65473e-07 0)
(0.999999 -1.39404e-07 0)
(0.999999 -1.17133e-07 0)
(0.999999 -9.81634e-08 0)
(1 -8.20486e-08 0)
(1 -6.8394e-08 0)
(1 -5.68529e-08 0)
(1 -4.71225e-08 0)
(1 -3.89396e-08 0)
(1 -3.20764e-08 0)
(1 -2.63354e-08 0)
(1 -2.1546e-08 0)
(1 -1.75598e-08 0)
(1 -1.42474e-08 0)
(1 -1.14958e-08 0)
(1 -9.20695e-09 0)
(1 -7.29766e-09 0)
(1 -5.69952e-09 0)
(1 -4.35792e-09 0)
(1 -3.21841e-09 0)
(1 -2.31958e-09 0)
(1 -1.1632e-09 0)
(1 1.77148e-11 0)
(1 4.08101e-11 0)
(1 6.45205e-11 0)
(1 9.08437e-11 0)
(1 1.18103e-10 0)
(1 1.46548e-10 0)
(1 1.77034e-10 0)
(1 2.10704e-10 0)
(1 2.48631e-10 0)
(1 2.91429e-10 0)
(1 3.39146e-10 0)
(1 3.91415e-10 0)
(1 4.47673e-10 0)
(1 5.07314e-10 0)
(1 5.69751e-10 0)
(1 6.34427e-10 0)
(1 7.0082e-10 0)
(1 7.68442e-10 0)
(1 8.36866e-10 0)
(1 9.057e-10 0)
(1 9.74451e-10 0)
(1 1.04245e-09 0)
(1 1.10897e-09 0)
(1 1.17326e-09 0)
(1 1.23444e-09 0)
(1 1.29114e-09 0)
(1 1.34136e-09 0)
(1 1.38222e-09 0)
(1 1.4098e-09 0)
(1 1.41911e-09 0)
(1 1.40404e-09 0)
(1 1.35727e-09 0)
(1 1.26985e-09 0)
(1 1.13022e-09 0)
(1 9.22679e-10 0)
(1 6.26513e-10 0)
(1 2.17526e-10 0)
(1 -3.35712e-10 0)
(1 -1.06954e-09 0)
(1 -2.02699e-09 0)
(1 -3.26006e-09 0)
(1 -4.83178e-09 0)
(1 -6.81843e-09 0)
(1 -9.31221e-09 0)
(1 -1.24241e-08 0)
(1 -1.62868e-08 0)
(1 -2.10584e-08 0)
(1 -2.69285e-08 0)
(1 -3.41278e-08 0)
(1 -4.29383e-08 0)
(1 -5.37033e-08 0)
(1 -6.68344e-08 0)
(1 -8.2821e-08 0)
(1 -1.02238e-07 0)
(1 -1.25749e-07 0)
(1 -1.54092e-07 0)
(1 -1.88061e-07 0)
(1 -2.28494e-07 0)
(1 -2.7627e-07 0)
(1 -3.32329e-07 0)
(1 -3.97645e-07 0)
(1 -4.73141e-07 0)
(1 -5.59549e-07 0)
(1 -6.57257e-07 0)
(1 -7.66151e-07 0)
(1 -8.85305e-07 0)
(1.00001 -1.01237e-06 0)
(1.00001 -1.14287e-06 0)
(1.00001 -1.27033e-06 0)
(1.00001 -1.38763e-06 0)
(1.00001 -1.48735e-06 0)
(1.00001 -1.55794e-06 0)
(1.00001 -1.57939e-06 0)
(1.00001 -1.53036e-06 0)
(1.00002 -1.40011e-06 0)
(1.00002 -1.21388e-06 0)
(1.00002 -1.00845e-06 0)
(1.00002 -8.18418e-07 0)
(1.00002 -6.80633e-07 0)
(1.00002 -6.35729e-07 0)
(1.00002 -7.19528e-07 0)
(1.00002 -9.43438e-07 0)
(1.00002 -1.27064e-06 0)
(1.00003 -1.60425e-06 0)
(1.00003 -1.80647e-06 0)
(1.00003 -1.75186e-06 0)
(1.00003 -1.38288e-06 0)
(1.00003 -7.29318e-07 0)
(1.00003 1.20625e-07 0)
(1.00003 1.06884e-06 0)
(1.00003 2.03933e-06 0)
(1.00003 2.99028e-06 0)
(1.00003 3.9017e-06 0)
(1.00002 4.75474e-06 0)
(1.00002 5.522e-06 0)
(1.00001 6.16781e-06 0)
(1.00001 6.64983e-06 0)
(0.999999 6.9245e-06 0)
(0.999992 6.95947e-06 0)
(0.999985 6.74332e-06 0)
(0.999978 6.28383e-06 0)
(0.999972 5.59993e-06 0)
(0.999967 4.71678e-06 0)
(0.999962 3.66494e-06 0)
(0.999959 2.47779e-06 0)
(0.999957 1.18922e-06 0)
(0.999956 -1.68909e-07 0)
(0.999957 -1.56467e-06 0)
(0.999959 -2.96678e-06 0)
(0.999963 -4.34473e-06 0)
(0.999968 -5.66645e-06 0)
(0.999974 -6.89563e-06 0)
(0.999981 -7.99082e-06 0)
(0.999989 -8.90823e-06 0)
(0.999998 -9.6085e-06 0)
(1.00001 -1.00665e-05 0)
(1.00002 -1.02775e-05 0)
(1.00003 -1.02307e-05 0)
(1.00004 -9.9323e-06 0)
(1.00005 -9.35994e-06 0)
(1.00006 -8.48377e-06 0)
(1.00007 -7.28387e-06 0)
(1.00007 -5.75849e-06 0)
(1.00008 -3.92708e-06 0)
(1.00008 -1.82863e-06 0)
(1.00008 4.68015e-07 0)
(1.00008 2.8832e-06 0)
(1.00008 5.3109e-06 0)
(1.00007 7.63098e-06 0)
(1.00006 9.71935e-06 0)
(1.00005 1.14587e-05 0)
(1.00004 1.27507e-05 0)
(1.00003 1.35268e-05 0)
(1.00001 1.37563e-05 0)
(1 1.34487e-05 0)
(0.999987 1.26503e-05 0)
(0.999974 1.14393e-05 0)
(0.999963 9.91848e-06 0)
(0.999954 8.20308e-06 0)
(0.999947 6.40094e-06 0)
(0.999941 4.59513e-06 0)
(0.999937 2.8418e-06 0)
(0.999935 1.17484e-06 0)
(0.999935 -3.7675e-07 0)
(0.999936 -1.77084e-06 0)
(0.999938 -2.93777e-06 0)
(0.999941 -3.78767e-06 0)
(0.999945 -4.24725e-06 0)
(0.99995 -4.30535e-06 0)
(0.999954 -4.03663e-06 0)
(0.999958 -3.58477e-06 0)
(0.999961 -3.10841e-06 0)
(0.999963 -2.72133e-06 0)
(0.999966 -2.46683e-06 0)
(0.999968 -2.33356e-06 0)
(0.99997 -2.28521e-06 0)
(0.999972 -2.28123e-06 0)
(0.999975 -2.28711e-06 0)
(0.999977 -2.27885e-06 0)
(0.999979 -2.24337e-06 0)
(0.999981 -2.17629e-06 0)
(0.999983 -2.07925e-06 0)
(0.999985 -1.9574e-06 0)
(0.999987 -1.81752e-06 0)
(0.999988 -1.66664e-06 0)
(0.99999 -1.51117e-06 0)
(0.999991 -1.3565e-06 0)
(0.999993 -1.20686e-06 0)
(0.999994 -1.06528e-06 0)
(0.999995 -9.33778e-07 0)
(0.999995 -8.13472e-07 0)
(0.999996 -7.0481e-07 0)
(0.999997 -6.07715e-07 0)
(0.999997 -5.21741e-07 0)
(0.999998 -4.46203e-07 0)
(0.999998 -3.80271e-07 0)
(0.999998 -3.23048e-07 0)
(0.999999 -2.73624e-07 0)
(0.999999 -2.31115e-07 0)
(0.999999 -1.94688e-07 0)
(0.999999 -1.63572e-07 0)
(0.999999 -1.37069e-07 0)
(1 -1.14552e-07 0)
(1 -9.54679e-08 0)
(1 -7.93271e-08 0)
(1 -6.5704e-08 0)
(1 -5.42283e-08 0)
(1 -4.45805e-08 0)
(1 -3.64859e-08 0)
(1 -2.97094e-08 0)
(1 -2.40504e-08 0)
(1 -1.93387e-08 0)
(1 -1.54297e-08 0)
(1 -1.21998e-08 0)
(1 -9.54248e-09 0)
(1 -7.36349e-09 0)
(1 -5.58149e-09 0)
(1 -4.10603e-09 0)
(1 -2.963e-09 0)
(1 -1.53348e-09 0)
(1 2.28585e-11 0)
(1 5.25997e-11 0)
(1 8.28698e-11 0)
(1 1.16014e-10 0)
(1 1.49676e-10 0)
(1 1.83896e-10 0)
(1 2.19522e-10 0)
(1 2.57976e-10 0)
(1 3.00817e-10 0)
(1 3.4913e-10 0)
(1 4.03247e-10 0)
(1 4.62879e-10 0)
(1 5.27416e-10 0)
(1 5.96181e-10 0)
(1 6.68595e-10 0)
(1 7.44258e-10 0)
(1 8.22966e-10 0)
(1 9.04679e-10 0)
(1 9.89457e-10 0)
(1 1.07739e-09 0)
(1 1.16854e-09 0)
(1 1.26282e-09 0)
(1 1.35985e-09 0)
(1 1.45865e-09 0)
(1 1.55736e-09 0)
(1 1.65304e-09 0)
(1 1.74162e-09 0)
(1 1.8179e-09 0)
(1 1.87561e-09 0)
(1 1.90732e-09 0)
(1 1.9043e-09 0)
(1 1.85596e-09 0)
(1 1.74932e-09 0)
(1 1.56832e-09 0)
(1 1.2932e-09 0)
(1 8.99734e-10 0)
(1 3.59584e-10 0)
(1 -3.63659e-10 0)
(1 -1.31488e-09 0)
(1 -2.54921e-09 0)
(1 -4.13385e-09 0)
(1 -6.15021e-09 0)
(1 -8.6966e-09 0)
(1 -1.18916e-08 0)
(1 -1.58778e-08 0)
(1 -2.08255e-08 0)
(1 -2.69375e-08 0)
(1 -3.44568e-08 0)
(1 -4.36792e-08 0)
(1 -5.49664e-08 0)
(1 -6.87588e-08 0)
(1 -8.55842e-08 0)
(1 -1.06069e-07 0)
(1 -1.30952e-07 0)
(1 -1.61083e-07 0)
(1 -1.97412e-07 0)
(1 -2.4096e-07 0)
(1 -2.92799e-07 0)
(1 -3.54063e-07 0)
(1 -4.25962e-07 0)
(1 -5.09759e-07 0)
(1 -6.06669e-07 0)
(1 -7.17683e-07 0)
(1 -8.43344e-07 0)
(1 -9.83466e-07 0)
(1 -1.13679e-06 0)
(1.00001 -1.30057e-06 0)
(1.00001 -1.47009e-06 0)
(1.00001 -1.63757e-06 0)
(1.00001 -1.79073e-06 0)
(1.00001 -1.91293e-06 0)
(1.00001 -1.98816e-06 0)
(1.00001 -2.00959e-06 0)
(1.00002 -1.98086e-06 0)
(1.00002 -1.90136e-06 0)
(1.00002 -1.77209e-06 0)
(1.00002 -1.60316e-06 0)
(1.00002 -1.42481e-06 0)
(1.00002 -1.28998e-06 0)
(1.00002 -1.26478e-06 0)
(1.00002 -1.40878e-06 0)
(1.00002 -1.74512e-06 0)
(1.00002 -2.22682e-06 0)
(1.00003 -2.71953e-06 0)
(1.00003 -3.02882e-06 0)
(1.00003 -2.97522e-06 0)
(1.00003 -2.47446e-06 0)
(1.00003 -1.56377e-06 0)
(1.00004 -3.63555e-07 0)
(1.00003 9.85761e-07 0)
(1.00003 2.37595e-06 0)
(1.00003 3.74793e-06 0)
(1.00003 5.0723e-06 0)
(1.00002 6.32078e-06 0)
(1.00002 7.4532e-06 0)
(1.00001 8.41805e-06 0)
(1.00001 9.15408e-06 0)
(0.999999 9.59767e-06 0)
(0.999992 9.70089e-06 0)
(0.999985 9.44575e-06 0)
(0.999978 8.84188e-06 0)
(0.999972 7.91535e-06 0)
(0.999966 6.70253e-06 0)
(0.999962 5.2503e-06 0)
(0.999959 3.61383e-06 0)
(0.999957 1.85035e-06 0)
(0.999956 1.12788e-08 0)
(0.999957 -1.85798e-06 0)
(0.999959 -3.71839e-06 0)
(0.999962 -5.53589e-06 0)
(0.999967 -7.27966e-06 0)
(0.999973 -8.92093e-06 0)
(0.99998 -1.04318e-05 0)
(0.999989 -1.17825e-05 0)
(0.999998 -1.29376e-05 0)
(1.00001 -1.3851e-05 0)
(1.00002 -1.44633e-05 0)
(1.00003 -1.4698e-05 0)
(1.00004 -1.45016e-05 0)
(1.00005 -1.38359e-05 0)
(1.00006 -1.26808e-05 0)
(1.00007 -1.10316e-05 0)
(1.00008 -8.90018e-06 0)
(1.00008 -6.31921e-06 0)
(1.00008 -3.34643e-06 0)
(1.00009 -7.444e-08 0)
(1.00008 3.37695e-06 0)
(1.00008 6.85779e-06 0)
(1.00007 1.01983e-05 0)
(1.00007 1.32213e-05 0)
(1.00005 1.57581e-05 0)
(1.00004 1.76661e-05 0)
(1.00003 1.88446e-05 0)
(1.00001 1.92466e-05 0)
(1 1.88822e-05 0)
(0.999986 1.78146e-05 0)
(0.999974 1.61528e-05 0)
(0.999963 1.4042e-05 0)
(0.999953 1.16469e-05 0)
(0.999946 9.12471e-06 0)
(0.99994 6.60107e-06 0)
(0.999937 4.1641e-06 0)
(0.999935 1.86913e-06 0)
(0.999934 -2.4554e-07 0)
(0.999935 -2.13101e-06 0)
(0.999938 -3.70255e-06 0)
(0.999941 -4.84568e-06 0)
(0.999945 -5.46531e-06 0)
(0.99995 -5.54803e-06 0)
(0.999954 -5.19506e-06 0)
(0.999958 -4.60027e-06 0)
(0.999961 -3.97677e-06 0)
(0.999964 -3.47537e-06 0)
(0.999966 -3.15084e-06 0)
(0.999968 -2.98542e-06 0)
(0.99997 -2.9298e-06 0)
(0.999972 -2.93028e-06 0)
(0.999975 -2.94181e-06 0)
(0.999977 -2.93349e-06 0)
(0.999979 -2.88878e-06 0)
(0.999981 -2.80248e-06 0)
(0.999983 -2.67704e-06 0)
(0.999985 -2.51942e-06 0)
(0.999987 -2.33855e-06 0)
(0.999989 -2.14359e-06 0)
(0.99999 -1.94288e-06 0)
(0.999991 -1.74337e-06 0)
(0.999993 -1.5505e-06 0)
(0.999994 -1.36815e-06 0)
(0.999995 -1.19888e-06 0)
(0.999995 -1.04413e-06 0)
(0.999996 -9.0442e-07 0)
(0.999997 -7.79644e-07 0)
(0.999997 -6.69207e-07 0)
(0.999998 -5.7221e-07 0)
(0.999998 -4.87576e-07 0)
(0.999998 -4.14141e-07 0)
(0.999999 -3.50731e-07 0)
(0.999999 -2.96204e-07 0)
(0.999999 -2.49487e-07 0)
(0.999999 -2.09588e-07 0)
(0.999999 -1.7561e-07 0)
(1 -1.46751e-07 0)
(1 -1.22298e-07 0)
(1 -1.01628e-07 0)
(1 -8.41962e-08 0)
(1 -6.95285e-08 0)
(1 -5.72158e-08 0)
(1 -4.69045e-08 0)
(1 -3.82904e-08 0)
(1 -3.11114e-08 0)
(1 -2.51417e-08 0)
(1 -2.01868e-08 0)
(1 -1.60797e-08 0)
(1 -1.26767e-08 0)
(1 -9.85533e-09 0)
(1 -7.51523e-09 0)
(1 -5.54609e-09 0)
(1 -4.00506e-09 0)
(1 -2.04385e-09 0)
(1 2.79524e-11 0)
(1 6.42192e-11 0)
(1 1.01088e-10 0)
(1 1.41504e-10 0)
(1 1.82675e-10 0)
(1 2.24808e-10 0)
(1 2.69135e-10 0)
(1 3.1754e-10 0)
(1 3.71966e-10 0)
(1 4.33681e-10 0)
(1 5.02985e-10 0)
(1 5.79439e-10 0)
(1 6.62246e-10 0)
(1 7.50554e-10 0)
(1 8.4363e-10 0)
(1 9.40904e-10 0)
(1 1.04196e-09 0)
(1 1.14649e-09 0)
(1 1.25422e-09 0)
(1 1.36491e-09 0)
(1 1.47822e-09 0)
(1 1.59353e-09 0)
(1 1.70982e-09 0)
(1 1.82544e-09 0)
(1 1.93797e-09 0)
(1 2.04413e-09 0)
(1 2.13967e-09 0)
(1 2.21922e-09 0)
(1 2.27622e-09 0)
(1 2.30269e-09 0)
(1 2.28885e-09 0)
(1 2.22268e-09 0)
(1 2.08928e-09 0)
(1 1.86998e-09 0)
(1 1.54099e-09 0)
(1 1.07244e-09 0)
(1 4.26891e-10 0)
(1 -4.41277e-10 0)
(1 -1.58781e-09 0)
(1 -3.0803e-09 0)
(1 -5.0005e-09 0)
(1 -7.44722e-09 0)
(1 -1.05398e-08 0)
(1 -1.44222e-08 0)
(1 -1.9268e-08 0)
(1 -2.52843e-08 0)
(1 -3.27179e-08 0)
(1 -4.18645e-08 0)
(1 -5.30838e-08 0)
(1 -6.68169e-08 0)
(1 -8.36002e-08 0)
(1 -1.04077e-07 0)
(1 -1.29009e-07 0)
(1 -1.59294e-07 0)
(1 -1.95973e-07 0)
(1 -2.40204e-07 0)
(1 -2.93234e-07 0)
(1 -3.56371e-07 0)
(1 -4.30997e-07 0)
(1 -5.18602e-07 0)
(1 -6.20755e-07 0)
(1 -7.38975e-07 0)
(1 -8.74502e-07 0)
(1 -1.02804e-06 0)
(1 -1.19949e-06 0)
(1 -1.38755e-06 0)
(1.00001 -1.58893e-06 0)
(1.00001 -1.7973e-06 0)
(1.00001 -2.00242e-06 0)
(1.00001 -2.19035e-06 0)
(1.00001 -2.34503e-06 0)
(1.00001 -2.45014e-06 0)
(1.00001 -2.49034e-06 0)
(1.00002 -2.45144e-06 0)
(1.00002 -2.32077e-06 0)
(1.00002 -2.10262e-06 0)
(1.00002 -1.82506e-06 0)
(1.00002 -1.53885e-06 0)
(1.00002 -1.31425e-06 0)
(1.00002 -1.23257e-06 0)
(1.00002 -1.36664e-06 0)
(1.00002 -1.74648e-06 0)
(1.00002 -2.31672e-06 0)
(1.00003 -2.91207e-06 0)
(1.00003 -3.28913e-06 0)
(1.00003 -3.22335e-06 0)
(1.00003 -2.61333e-06 0)
(1.00003 -1.51381e-06 0)
(1.00004 -8.1803e-08 0)
(1.00004 1.50865e-06 0)
(1.00003 3.12913e-06 0)
(1.00003 4.71436e-06 0)
(1.00003 6.23648e-06 0)
(1.00002 7.667e-06 0)
(1.00002 8.96095e-06 0)
(1.00001 1.00589e-05 0)
(1.00001 1.08887e-05 0)
(0.999999 1.13738e-05 0)
(0.999992 1.14574e-05 0)
(0.999984 1.11205e-05 0)
(0.999978 1.03773e-05 0)
(0.999971 9.26015e-06 0)
(0.999966 7.81156e-06 0)
(0.999961 6.08433e-06 0)
(0.999958 4.14015e-06 0)
(0.999956 2.04204e-06 0)
(0.999955 -1.5264e-07 0)
(0.999956 -2.39302e-06 0)
(0.999958 -4.63282e-06 0)
(0.999962 -6.82874e-06 0)
(0.999967 -8.93764e-06 0)
(0.999973 -1.09136e-05 0)
(0.99998 -1.27064e-05 0)
(0.999988 -1.42622e-05 0)
(0.999998 -1.55264e-05 0)
(1.00001 -1.64474e-05 0)
(1.00002 -1.69779e-05 0)
(1.00003 -1.70699e-05 0)
(1.00004 -1.66887e-05 0)
(1.00005 -1.58024e-05 0)
(1.00006 -1.43832e-05 0)
(1.00007 -1.24153e-05 0)
(1.00008 -9.90288e-06 0)
(1.00008 -6.87835e-06 0)
(1.00009 -3.40922e-06 0)
(1.00009 4.0537e-07 0)
(1.00009 4.42277e-06 0)
(1.00008 8.46856e-06 0)
(1.00008 1.23441e-05 0)
(1.00007 1.58413e-05 0)
(1.00006 1.8762e-05 0)
(1.00004 2.09393e-05 0)
(1.00003 2.22566e-05 0)
(1.00001 2.2661e-05 0)
(1 2.21674e-05 0)
(0.999986 2.08533e-05 0)
(0.999973 1.88488e-05 0)
(0.999962 1.63272e-05 0)
(0.999953 1.34847e-05 0)
(0.999945 1.05064e-05 0)
(0.99994 7.53544e-06 0)
(0.999936 4.66661e-06 0)
(0.999934 1.95681e-06 0)
(0.999934 -5.54656e-07 0)
(0.999935 -2.81101e-06 0)
(0.999937 -4.704e-06 0)
(0.999941 -6.08241e-06 0)
(0.999945 -6.81754e-06 0)
(0.99995 -6.88564e-06 0)
(0.999954 -6.41204e-06 0)
(0.999958 -5.64342e-06 0)
(0.999961 -4.85132e-06 0)
(0.999964 -4.22469e-06 0)
(0.999966 -3.82726e-06 0)
(0.999968 -3.63117e-06 0)
(0.99997 -3.57133e-06 0)
(0.999972 -3.5793e-06 0)
(0.999975 -3.59868e-06 0)
(0.999977 -3.5915e-06 0)
(0.999979 -3.53792e-06 0)
(0.999981 -3.43212e-06 0)
(0.999983 -3.27766e-06 0)
(0.999985 -3.08348e-06 0)
(0.999987 -2.8608e-06 0)
(0.999989 -2.62103e-06 0)
(0.99999 -2.37446e-06 0)
(0.999991 -2.12964e-06 0)
(0.999993 -1.89319e-06 0)
(0.999994 -1.66984e-06 0)
(0.999995 -1.46269e-06 0)
(0.999995 -1.27343e-06 0)
(0.999996 -1.10269e-06 0)
(0.999997 -9.50291e-07 0)
(0.999997 -8.1547e-07 0)
(0.999998 -6.97111e-07 0)
(0.999998 -5.93877e-07 0)
(0.999998 -5.04336e-07 0)
(0.999999 -4.27042e-07 0)
(0.999999 -3.60594e-07 0)
(0.999999 -3.03677e-07 0)
(0.999999 -2.55076e-07 0)
(0.999999 -2.13695e-07 0)
(1 -1.7855e-07 0)
(1 -1.48772e-07 0)
(1 -1.23597e-07 0)
(1 -1.0236e-07 0)
(1 -8.44807e-08 0)
(1 -6.94606e-08 0)
(1 -5.68698e-08 0)
(1 -4.63397e-08 0)
(1 -3.75547e-08 0)
(1 -3.02453e-08 0)
(1 -2.41809e-08 0)
(1 -1.9164e-08 0)
(1 -1.50248e-08 0)
(1 -1.16156e-08 0)
(1 -8.81205e-09 0)
(1 -6.47662e-09 0)
(1 -4.66166e-09 0)
(1 -2.38057e-09 0)
(1 3.30149e-11 0)
(1 7.58107e-11 0)
(1 1.19332e-10 0)
(1 1.67085e-10 0)
(1 2.15758e-10 0)
(1 2.65568e-10 0)
(1 3.17896e-10 0)
(1 3.74861e-10 0)
(1 4.38671e-10 0)
(1 5.10779e-10 0)
(1 5.91546e-10 0)
(1 6.80481e-10 0)
(1 7.76664e-10 0)
(1 8.79098e-10 0)
(1 9.86909e-10 0)
(1 1.09942e-09 0)
(1 1.21617e-09 0)
(1 1.33686e-09 0)
(1 1.46134e-09 0)
(1 1.58948e-09 0)
(1 1.72112e-09 0)
(1 1.85583e-09 0)
(1 1.99277e-09 0)
(1 2.13043e-09 0)
(1 2.26637e-09 0)
(1 2.3969e-09 0)
(1 2.51697e-09 0)
(1 2.61989e-09 0)
(1 2.69734e-09 0)
(1 2.73919e-09 0)
(1 2.73321e-09 0)
(1 2.66463e-09 0)
(1 2.51534e-09 0)
(1 2.26288e-09 0)
(1 1.8791e-09 0)
(1 1.32923e-09 0)
(1 5.6975e-10 0)
(1 -4.51933e-10 0)
(1 -1.80037e-09 0)
(1 -3.55457e-09 0)
(1 -5.81053e-09 0)
(1 -8.68449e-09 0)
(1 -1.23168e-08 0)
(1 -1.68771e-08 0)
(1 -2.25695e-08 0)
(1 -2.96379e-08 0)
(1 -3.83726e-08 0)
(1 -4.91211e-08 0)
(1 -6.23067e-08 0)
(1 -7.84488e-08 -6.72039e-43)
(1 -9.81793e-08 -7.01741e-43)
(1 -1.22254e-07 0)
(1 -1.51571e-07 0)
(1 -1.87184e-07 0)
(1 -2.30321e-07 0)
(1 -2.82353e-07 0)
(1 -3.44749e-07 0)
(1 -4.1905e-07 0)
(1 -5.06888e-07 0)
(1 -6.10033e-07 0)
(1 -7.30368e-07 0)
(1 -8.69742e-07 0)
(1 -1.02969e-06 0)
(1 -1.21114e-06 0)
(1 -1.41406e-06 0)
(1 -1.63695e-06 0)
(1.00001 -1.87607e-06 0)
(1.00001 -2.12438e-06 0)
(1.00001 -2.37042e-06 0)
(1.00001 -2.59761e-06 0)
(1.00001 -2.7848e-06 0)
(1.00001 -2.90913e-06 0)
(1.00001 -2.95107e-06 0)
(1.00002 -2.89834e-06 0)
(1.00002 -2.74605e-06 0)
(1.00002 -2.50354e-06 0)
(1.00002 -2.19965e-06 0)
(1.00002 -1.88704e-06 0)
(1.00002 -1.64513e-06 0)
(1.00002 -1.57266e-06 0)
(1.00002 -1.76329e-06 0)
(1.00002 -2.2608e-06 0)
(1.00002 -3.00234e-06 0)
(1.00003 -3.78337e-06 0)
(1.00003 -4.29579e-06 0)
(1.00003 -4.25302e-06 0)
(1.00003 -3.52595e-06 0)
(1.00004 -2.18437e-06 0)
(1.00004 -4.26715e-07 0)
(1.00004 1.52632e-06 0)
(1.00003 3.51464e-06 0)
(1.00003 5.46143e-06 0)
(1.00003 7.33687e-06 0)
(1.00002 9.10755e-06 0)
(1.00002 1.07179e-05 0)
(1.00001 1.20946e-05 0)
(1.00001 1.31474e-05 0)
(0.999999 1.37794e-05 0)
(0.999992 1.3918e-05 0)
(0.999984 1.3539e-05 0)
(0.999977 1.26607e-05 0)
(0.999971 1.13229e-05 0)
(0.999965 9.5775e-06 0)
(0.999961 7.49126e-06 0)
(0.999957 5.14183e-06 0)
(0.999955 2.60798e-06 0)
(0.999955 -3.83731e-08 0)
(0.999955 -2.7332e-06 0)
(0.999957 -5.42034e-06 0)
(0.999961 -8.04964e-06 0)
(0.999966 -1.05737e-05 0)
(0.999972 -1.29449e-05 0)
(0.999979 -1.51136e-05 0)