/*--------------------------------*- C++ -*----------------------------------*\
| =========                 |                                                 |
| \\      /  F ield         | OpenFOAM: The Open Source CFD Toolbox           |
|  \\    /   O peration     | Version:  v2006                                 |
|   \\  /    A nd           | Website:  www.openfoam.com                      |
|    \\/     M anipulation  |                                                 |
\*---------------------------------------------------------------------------*/
FoamFile
{
    version     2.0;
    format      ascii;
    class       volScalarField;
    location    "0";
    object      f;
}
// * * * * * * * * * * * * * * * * * * * * * * * * * * * * * * * * * * * * * //

dimensions      [0 0 0 0 0 0 0];


internalField   nonuniform List<scalar> 
2500
(
-2.05405e-47
3.92915e-38
-1.24396e-32
2.97617e-29
4.3241e-27
-4.63303e-25
-6.84113e-23
5.65048e-22
2.19968e-20
-2.40662e-19
-4.23364e-19
-1.48097e-18
4.23643e-18
3.5683e-17
-5.28324e-17
-4.58045e-16
-1.53571e-16
1.3421e-15
5.89024e-15
-2.37417e-14
-2.31912e-13
-1.89843e-13
2.46754e-12
1.17935e-11
1.29245e-11
1.75102e-12
-9.7109e-11
-9.93239e-12
8.933e-11
1.58045e-11
-6.51576e-11
-2.53689e-11
-1.70077e-12
9.96541e-12
8.44179e-13
-9.4721e-13
-3.27497e-13
1.3327e-14
1.81424e-14
1.24956e-15
-2.09989e-15
-7.39087e-16
-8.50034e-17
1.87136e-17
1.7889e-17
8.21705e-18
2.98304e-18
9.4542e-19
2.71288e-19
2.18827e-20
-1.99145e-45
1.37391e-36
-2.15088e-31
2.57816e-28
5.17546e-26
1.18845e-24
-4.99258e-22
1.76673e-21
1.12496e-19
-6.57448e-19
-1.63295e-18
-1.05835e-17
7.68231e-18
1.37786e-16
-3.97741e-17
-1.19409e-15
-4.733e-16
3.05433e-14
1.33036e-14
-1.4779e-12
-8.09293e-13
1.7295e-11
5.66503e-11
1.89138e-11
1.44257e-11
-3.4444e-10
-2.66232e-10
3.03407e-11
5.93756e-10
2.28746e-11
-1.76297e-10
-2.87694e-11
2.73127e-11
2.17005e-11
-1.9468e-12
-2.78145e-12
-5.59099e-13
2.14977e-14
1.7415e-14
1.45717e-15
-1.67208e-15
-5.60326e-16
-4.02613e-17
2.00799e-17
1.38422e-17
5.75706e-18
1.9715e-18
6.01337e-19
1.69111e-19
1.71691e-20
-1.65758e-43
3.98426e-35
-2.8605e-30
1.1694e-27
4.51604e-25
4.37967e-23
-2.95173e-21
1.4871e-21
5.08352e-19
-1.31242e-18
-4.74793e-18
-4.95377e-17
6.3571e-18
5.18472e-16
1.82881e-17
-7.28465e-15
-1.11298e-15
1.52771e-13
-6.35802e-13
-6.63071e-12
-2.72356e-13
3.12325e-10
2.16376e-10
-9.28992e-12
-3.61359e-09
-5.4335e-09
-4.67714e-10
7.36776e-09
1.94772e-09
2.75661e-11
-4.01361e-10
-3.40754e-11
1.67536e-10
5.40463e-11
-8.6094e-12
-7.12113e-12
-1.20355e-12
7.61421e-14
5.16663e-14
3.01529e-15
-2.75466e-15
-8.63949e-16
-4.08408e-17
3.38229e-17
2.06707e-17
8.25309e-18
2.76464e-18
8.32487e-19
2.32857e-19
2.60232e-20
-1.48875e-41
1.11023e-33
-3.25024e-29
-4.75396e-27
3.052e-24
5.2324e-22
-1.54068e-20
-2.81195e-20
2.08042e-18
-6.08965e-19
-9.20933e-18
-1.97393e-16
-2.93873e-17
3.33757e-15
-7.60101e-16
-3.67808e-14
1.23481e-12
3.35872e-13
-2.48755e-11
-1.23834e-11
6.18253e-10
1.15211e-09
3.92892e-10
-2.52098e-08
-4.33607e-08
-2.16389e-08
3.139e-09
3.85804e-08
4.63679e-09
-7.78098e-10
-7.60378e-10
4.03439e-10
6.01148e-10
1.2174e-10
-2.45256e-11
-1.60063e-11
-2.25989e-12
2.05356e-13
1.20119e-13
5.6339e-15
-4.46819e-15
-1.3193e-15
-2.8956e-17
5.4994e-17
3.01699e-17
1.15774e-17
3.79628e-18
1.12903e-18
3.14112e-19
3.80924e-20
-1.40445e-39
2.84805e-32
-2.42901e-28
-2.15031e-25
1.1958e-23
4.8242e-21
-7.09546e-20
-2.9363e-19
7.51689e-18
1.07102e-17
4.66717e-20
-9.56849e-16
-1.71303e-16
1.99719e-14
-4.91647e-13
-2.32352e-14
7.27431e-12
-6.23671e-11
-1.17232e-10
1.2547e-09
3.32531e-09
1.95266e-09
-3.18691e-08
-1.38822e-07
-1.51639e-07
-5.57481e-08
2.27006e-07
1.15147e-07
7.58435e-09
-4.67213e-09
-1.13311e-09
2.5324e-09
1.75841e-09
2.55091e-10
-5.53963e-11
-3.23023e-11
-3.83612e-12
5.26552e-13
2.68447e-13
9.06141e-15
-7.68401e-15
-2.0279e-15
6.89561e-18
8.63565e-17
4.29557e-17
1.5867e-17
5.09778e-18
1.49828e-18
4.14677e-19
5.39679e-20
-1.33775e-37
6.16658e-31
1.4e-27
-3.57141e-24
-6.7553e-23
3.85895e-20
-2.82659e-19
-2.05756e-18
2.24353e-17
6.48979e-17
1.04325e-16
-7.23416e-15
9.96912e-14
4.86425e-14
-2.76048e-12
4.97938e-11
1.74858e-11
-1.0454e-09
-2.73533e-10
1.74113e-08
7.13592e-09
-6.55959e-08
-3.71038e-07
-3.85119e-07
-3.29724e-07
-8.45951e-08
1.14087e-06
2.42369e-07
8.19436e-09
-2.15808e-08
-1.02739e-09
8.12819e-09
4.40611e-09
4.99487e-10
-1.10308e-10
-6.00266e-11
-5.69906e-12
1.30129e-12
5.60035e-13
1.06915e-14
-1.44981e-14
-3.13392e-15
8.50831e-17
1.30815e-16
5.95224e-17
2.12107e-17
6.68612e-18
1.94358e-18
5.35263e-19
7.41046e-20
-1.2372e-35
8.05091e-30
1.1387e-25
-4.43057e-23
-2.27586e-21
2.77342e-19
-9.20387e-19
-1.22715e-17
4.28374e-17
3.21932e-16
4.04182e-16
-2.29799e-14
7.358e-13
-9.91096e-12
-6.09577e-12
2.76133e-10
-1.93559e-09
-4.04345e-09
5.56248e-08
6.58438e-08
-1.4035e-07
-1.72231e-06
-1.34485e-06
-7.23431e-07
-4.33138e-07
1.86203e-06
3.96548e-06
3.20475e-07
-9.9657e-08
-8.27664e-08
5.26545e-09
2.09055e-08
9.71581e-09
9.00777e-10
-2.06576e-10
-1.04891e-10
-7.02752e-12
3.08088e-12
1.08163e-12
-4.07939e-15
-2.89593e-14
-4.79705e-15
2.28701e-16
1.907e-16
8.00731e-17
2.76143e-17
8.55639e-18
2.46241e-18
6.75003e-19
9.87035e-20
-1.0667e-33
-1.77573e-28
3.23036e-24
-4.4784e-22
-3.43393e-20
1.80903e-18
-1.95925e-18
-6.72214e-17
-6.70747e-17
8.35775e-15
-1.24453e-13
2.74358e-13
1.72127e-12
-6.5147e-11
5.53435e-10
5.95709e-10
-2.13705e-08
-3.61637e-09
3.97024e-07
1.41862e-07
-6.57582e-06
-7.23583e-06
-2.80627e-06
-9.87031e-07
4.08525e-05
6.34377e-05
1.08234e-05
-2.75977e-07
-6.36296e-07
-2.63485e-07
2.27753e-08
4.62029e-08
1.93151e-08
1.45238e-09
-3.80408e-10
-1.74617e-10
-6.32579e-12
6.94019e-12
1.90091e-12
-6.05599e-14
-5.68853e-14
-7.04185e-15
4.47525e-16
2.66445e-16
1.04325e-16
3.49699e-17
1.06756e-17
3.04495e-18
8.31023e-19
1.27584e-19
-8.03773e-32
-2.08455e-26
7.00713e-23
-3.6099e-21
-4.08632e-19
1.06932e-17
2.59141e-18
-4.08468e-16
-8.07644e-16
5.71161e-14
-1.32963e-12
1.7185e-11
-7.74448e-11
-1.58036e-10
5.91883e-09
-2.70999e-08
-7.10791e-08
9.18901e-07
1.05665e-06
-1.31837e-05
-2.99461e-05
-1.39135e-05
1.8985e-05
0.000580328
0.000743922
0.000288435
2.03075e-05
-2.68512e-06
-2.18214e-06
-6.99789e-07
5.85371e-08
9.14133e-08
3.48973e-08
1.9905e-09
-7.04234e-10
-2.77132e-10
5.10303e-12
1.47509e-11
2.97719e-12
-1.83338e-13
-1.0528e-13
-9.52535e-15
6.90255e-16
3.54064e-16
1.31391e-16
4.30432e-17
1.29805e-17
3.6732e-18
9.9814e-19
1.60065e-19
-4.36663e-30
-1.15653e-24
1.29585e-21
-1.9072e-20
-4.25475e-18
5.72718e-17
6.57168e-17
-4.0108e-15
5.40604e-14
1.16981e-13
-3.19807e-12
8.11798e-11
-1.04741e-09
3.36533e-09
1.65682e-08
-2.70848e-07
-4.00591e-08
4.82256e-06
-1.16172e-06
-8.72013e-05
-6.96754e-05
0.000155245
0.00278505
0.00436754
0.0029609
0.000842537
2.77408e-05
-8.38883e-06
-5.96114e-06
-1.62755e-06
1.28568e-07
1.65605e-07
5.73061e-08
2.13812e-09
-1.32685e-09
-4.12204e-10
3.28793e-11
2.92103e-11
4.13828e-12
-4.01668e-13
-1.78197e-13
-1.14334e-14
9.22766e-16
4.47556e-16
1.59887e-16
5.14944e-17
1.53806e-17
4.32119e-18
1.16875e-18
1.94868e-19
3.8196e-29
-5.13634e-23
2.09523e-20
3.90386e-20
-4.07301e-17
4.03657e-16
1.87003e-16
-1.78501e-14
6.99028e-13
-9.64897e-12
5.42903e-11
1.4326e-10
-3.38449e-09
4.5131e-08
-2.09183e-08
-9.23871e-07
6.67296e-06
1.17912e-05
-0.00012615
-0.000252376
1.64321e-05
0.00632788
0.0138755
0.0140314
0.00782724
0.00195357
3.17886e-05
-2.1668e-05
-1.39177e-05
-3.32689e-06
2.60949e-07
2.7887e-07
8.52198e-08
5.61224e-10
-2.52612e-09
-5.53116e-10
9.19196e-11
5.321e-11
4.87411e-12
-7.44226e-13
-2.77268e-13
-1.18641e-14
1.17399e-15
5.4186e-16
1.88211e-16
5.99317e-17
1.77666e-17
4.95591e-18
1.3329e-18
2.3006e-19
6.16251e-26
-2.01086e-21
2.92716e-19
2.86203e-18
-3.9023e-16
7.46793e-15
-9.01502e-14
6.10666e-13
2.18991e-12
-6.60228e-11
9.15561e-10
-6.96505e-09
-6.10314e-10
1.73018e-07
-1.59094e-06
-1.42701e-06
3.26231e-05
-1.216e-06
-0.000563816
-0.000431251
0.00776206
0.0273701
0.0389962
0.0331477
0.0166987
0.00385362
2.52709e-05
-4.9125e-05
-2.87211e-05
-5.98121e-06
5.02549e-07
4.4324e-07
1.13344e-07
-4.12786e-09
-4.72202e-09
-6.4039e-10
2.01239e-10
8.62971e-11
4.48054e-12
-1.33576e-12
-3.92886e-13
-8.58157e-15
1.4327e-15
6.29133e-16
2.1483e-16
6.79851e-17
2.00213e-17
5.53855e-18
1.4785e-18
2.63047e-19
1.28032e-23
-7.1765e-20
3.31696e-18
3.72433e-17
-2.22397e-15
3.98338e-14
-5.13243e-13
5.52962e-12
-3.39877e-11
-1.40782e-10
2.755e-09
-3.92347e-08
2.42938e-07
2.68189e-07
-6.89396e-06
2.72936e-05
8.8429e-05
-0.000520829
-0.00147898
0.00358208
0.03509
0.0726422
0.0848233
0.064772
0.0304671
0.0066117
-1.01397e-05
-0.000100489
-5.30526e-05
-9.38866e-06
9.19815e-07
6.67833e-07
1.31195e-07
-1.41433e-08
-8.35929e-09
-5.39621e-10
3.81632e-10
1.24025e-10
1.02229e-12
-2.25636e-12
-4.85759e-13
-1.11058e-15
1.66557e-15
6.99865e-16
2.38799e-16
7.53794e-17
2.20263e-17
6.02529e-18
1.59163e-18
2.9064e-19
1.98814e-21
-2.38131e-18
2.78252e-17
1.18685e-16
-4.33289e-15
6.90306e-14
-9.52206e-13
1.44577e-11
-2.85922e-10
2.4572e-09
-6.81518e-10
-7.69176e-08
1.0931e-06
-4.02782e-06
-1.40863e-05
0.000145764
0.000110579
-0.00217868
-0.00224378
0.0275172
0.0934451
0.151346
0.155716
0.109577
0.048592
0.00988683
-0.000110044
-0.000187967
-8.83804e-05
-1.25072e-05
1.58227e-06
9.53814e-07
1.27309e-07
-3.20071e-08
-1.30374e-08
1.51793e-10
6.86138e-10
1.56036e-10
-4.38984e-12
-3.48325e-12
-5.16356e-13
3.64424e-15
1.82369e-15
7.48487e-16
2.6048e-16
8.19682e-17
2.36599e-17
6.36686e-18
1.65697e-18
3.09205e-19
2.61858e-19
-8.19909e-17
2.66039e-15
-4.76614e-14
6.67486e-13
-7.13791e-12
5.20903e-11
-1.89361e-10
-7.96266e-10
1.68569e-08
-1.41041e-07
2.80559e-07
2.06802e-06
-2.06867e-05
-4.60905e-07
0.000401387
-0.000993666
-0.00556931
0.00588266
0.0807037
0.193952
0.266608
0.250358
0.163582
0.0682965
0.0127942
-0.000311086
-0.000323761
-0.000131878
-1.32699e-05
2.63682e-06
1.2724e-06
5.05792e-08
-6.10861e-08
-1.703e-08
1.46976e-09
1.15021e-09
1.73379e-10
-9.67202e-12
-4.63961e-12
-5.1119e-13
1.87956e-15
1.7088e-15
7.96885e-16
2.81966e-16
8.76667e-17
2.47797e-17
6.50735e-18
1.65849e-18
3.14956e-19
2.36782e-17
-1.62865e-15
3.4144e-14
-5.00106e-13
6.0899e-12
-6.25716e-11
5.15369e-10
-3.24888e-09
1.12398e-08
3.77406e-08
-6.00515e-07
3.81339e-06
-1.96486e-06
-5.53295e-05
0.000235641
0.000641187
-0.00476056
-0.00945635
0.0377013
0.175023
0.339749
0.412259
0.356857
0.216999
0.0846005
0.0141263
-0.00062478
-0.00051402
-0.000173342
-8.17498e-06
4.55711e-06
1.51878e-06
-9.85232e-08
-1.09744e-07
-1.7525e-08
3.4952e-09
1.71094e-09
1.59917e-10
-1.11597e-11
-4.95744e-12
-4.31893e-13
4.04724e-17
1.63622e-15
8.59011e-16
3.05094e-16
9.22527e-17
2.51946e-17
6.3838e-18
1.58092e-18
3.04428e-19
1.92168e-16
-5.24741e-15
8.59941e-14
-1.13984e-12
1.33144e-11
-1.40011e-10
1.34966e-09
-1.17086e-08
7.14878e-08
-1.97881e-07
-1.07332e-06
1.28122e-05
-5.33518e-05
-7.4113e-05
0.000873743
-3.85053e-05
-0.0126778
-0.00933796
0.0972003
0.313617
0.520258
0.568777
0.454182
0.256534
0.0920931
0.0126442
-0.00102599
-0.000737244
-0.000193583
4.43873e-06
7.8467e-06
1.49855e-06
-3.32269e-07
-1.73785e-07
-1.16699e-08
5.73193e-09
2.11147e-09
1.03517e-10
-1.17064e-11
-4.42919e-12
-3.27314e-13
-8.33696e-15
1.64296e-15
9.60936e-16
3.31817e-16
9.51482e-17
2.46411e-17
5.93036e-18
1.41239e-18
2.75174e-19
-4.18953e-15
6.38264e-14
-9.34168e-13
1.05262e-11
-8.95861e-11
4.97863e-10
-3.03117e-10
-1.87451e-08
1.66606e-07
-1.57158e-06
4.53957e-06
2.07594e-05
-0.000188149
0.000232476
0.0020507
-0.00467662
-0.0244625
0.00986608
0.191805
0.486233
0.707605
0.704535
0.520096
0.270736
0.0870914
0.00744845
-0.00160697
-0.000935453
-0.000160521
2.36029e-05
1.2412e-05
7.08926e-07
-6.32811e-07
-2.18879e-07
5.29128e-10
8.223e-09
2.17861e-09
3.79499e-11
-8.62006e-12
-2.68565e-12
-2.74871e-13
-3.43924e-14
1.65332e-15
1.12084e-15
3.61414e-16
9.51175e-17
2.2784e-17
5.09142e-18
1.14878e-18
2.26647e-19
-1.52863e-13
1.58637e-12
-2.04329e-11
2.26231e-10
-2.11817e-09
1.57369e-08
-8.68669e-08
3.03789e-07
-6.555e-08
-4.66135e-06
3.18557e-05
-2.71148e-05
-0.000396979
0.00123435
0.00307503
-0.0138286
-0.0351444
0.0465112
0.31586
0.667443
0.857845
0.793915
0.536486
0.25129
0.0643818
0.00051745
-0.00238414
-0.000982476
-3.71494e-05
4.84747e-05
1.53742e-05
-7.43435e-07
-9.87075e-07
-2.15729e-07
1.48838e-08
1.04914e-08
1.86534e-09
5.82462e-12
1.52217e-13
-7.76535e-13
-3.82708e-13
-8.71831e-14
1.17809e-15
1.34946e-15
3.88507e-16
9.0139e-17
1.92806e-17
3.84729e-18
7.99217e-19
1.61046e-19
-5.24486e-13
4.97151e-12
-6.39695e-11
7.34293e-10
-7.39148e-09
5.96703e-08
-3.81742e-07
1.88261e-06
-4.91294e-06
-6.08017e-06
8.75004e-05
-0.00024637
-0.000498338
0.00324975
0.00250713
-0.0278269
-0.0385699
0.103572
0.451396
0.820356
0.948931
0.805141
0.489787
0.19204
0.0319455
-0.0049878
-0.00317417
-0.000667817
0.000131002
8.15015e-05
1.21967e-05
-2.59927e-06
-1.36895e-06
-1.55343e-07
2.24616e-08
1.06187e-08
1.27535e-09
6.1711e-11
1.28682e-11
-3.074e-13
-5.58163e-13
-1.41066e-13
1.09079e-15
1.69524e-15
3.99845e-16
7.76241e-17
1.39345e-17
2.25082e-18
3.91331e-19
8.37304e-20
1.38539e-12
-4.179e-12
-3.34627e-12
6.00824e-10
-9.50002e-09
9.46929e-08
-7.3647e-07
4.89562e-06
-1.87176e-05
2.69855e-05
0.000127963
-0.000677123
5.18396e-05
0.00610425
-0.00344277
-0.0436848
-0.0311657
0.176386
0.5728
0.910463
0.955274
0.7284
0.378678
0.112814
0.00161763
-0.00708796
-0.00314629
-5.38998e-05
0.000288715
0.000106596
3.39274e-06
-3.93361e-06
-1.42193e-06
-5.8485e-08
2.01024e-08
7.03186e-09
6.29635e-10
1.34166e-10
2.81219e-11
-5.72865e-13
-6.99221e-13
-1.42316e-13
4.48123e-15
2.22194e-15
3.70547e-16
5.5317e-17
6.9386e-18
4.63863e-19
-2.73867e-20
2.59028e-21
2.31259e-11
-1.3477e-10
1.28882e-09
-9.70773e-09
5.71268e-08
-1.91567e-07
-2.68272e-07
6.7309e-06
-4.09508e-05
0.000121041
2.21138e-05
-0.00123251
0.00167845
0.0084936
-0.0131306
-0.0569612
-0.0116877
0.24991
0.652602
0.916063
0.862571
0.56822
0.23792
0.037669
-0.0142429
-0.00824633
-0.00134401
0.000740519
0.000435747
8.38004e-05
-7.27575e-06
-4.9975e-06
-1.00422e-06
2.10226e-08
1.48716e-08
2.42304e-09
3.11316e-10
2.24053e-10
4.75895e-11
-1.29826e-12
-9.30189e-13
-9.96132e-14
1.02504e-14
2.69948e-15
2.70906e-16
2.33724e-17
-8.47498e-19
-1.22983e-18
-3.96394e-19
-7.41413e-20
4.62617e-11
-3.02581e-10
3.55186e-09
-3.43653e-08
2.7815e-07
-1.46673e-06
5.10989e-06
-4.0367e-06
-5.31798e-05
0.000281911
-0.000390333
-0.00155982
0.00458805
0.00894247
-0.0263017
-0.0658445
0.0162866
0.307887
0.674706
0.821841
0.679438
0.370334
0.10475
-0.0133722
-0.0163143
-0.00627274
0.000880459
0.00131217
0.00049313
3.51354e-05
-1.16536e-05
-5.14913e-06
-5.18371e-07
1.27684e-08
-1.59118e-09
-1.50113e-09
5.0168e-10
3.37149e-10
5.09902e-11
-2.95239e-12
-1.14647e-12
-3.48628e-14
1.32893e-14
2.47036e-15
9.51771e-17
-1.3195e-17
-7.76051e-18
-2.46897e-18
-6.60698e-19
-1.41627e-19
-8.23449e-10
1.77963e-09
-4.34261e-09
-3.29495e-08
4.59125e-07
-3.09185e-06
1.55103e-05
-4.11973e-05
5.01538e-06
0.000409437
-0.00112396
-0.00109049
0.00821182
0.00498818
-0.040416
-0.0687274
0.0447638
0.33611
0.625829
0.649744
0.449444
0.181494
0.00777845
-0.029821
-0.0155774
-3.90473e-05
0.00312366
0.00167307
0.000344753
-1.56572e-05
-1.14808e-05
-2.76688e-06
-5.12818e-08
-3.51265e-08
-2.16187e-08
-2.81891e-09
8.80549e-10
3.93277e-10
2.79284e-11
-4.63679e-12
-1.19937e-12
2.21408e-14
1.51815e-14
9.40918e-16
-1.2979e-16
-4.47219e-17
-1.16315e-17
-2.94709e-18
-7.99845e-19
-2.02526e-19
-3.93431e-09
8.51869e-09
-4.39714e-08
1.80915e-07
-2.91843e-07
-2.1744e-06
2.1366e-05
-9.69314e-05
0.000180184
0.00030401
-0.00192781
0.000625176
0.0109913
-0.0012469
-0.0532277
-0.0659906
0.0654778
0.331048
0.489912
0.434509
0.232426
0.0396029
-0.040362
-0.0262699
-0.00461668
0.00517949
0.00404924
0.00150836
0.000136278
-2.58957e-05
-1.06884e-05
-7.18014e-07
4.33156e-09
-7.21484e-08
-3.07652e-08
-7.97707e-10
1.19234e-09
3.22333e-10
-7.51999e-12
-6.69993e-12
-6.89881e-13
5.90907e-14
1.03149e-14
-1.3522e-15
-3.13964e-16
-5.57763e-17
-1.06978e-17
-2.61976e-18
-8.54756e-19
-2.68795e-19
-4.04854e-09
8.48375e-09
-6.98556e-08
5.71669e-07
-3.35939e-06
1.04011e-05
-1.5654e-06
-0.000126282
0.000464717
-0.000276906
-0.00249252
0.0036025
0.0122529
-0.00952338
-0.0618315
-0.0613738
0.0737604
0.265558
0.319849
0.223619
0.0613919
-0.0422448
-0.0442703
-0.0153717
0.00628316
0.0079574
0.00410543
0.000849231
-3.56748e-05
-1.55737e-05
-5.57357e-09
8.4168e-07
-1.06081e-07
-1.3272e-07
-3.13125e-08
2.12782e-09
1.3582e-09
1.29123e-10
-2.67672e-11
-7.31806e-12
1.72952e-13
5.98298e-14
-9.75745e-15
-3.43009e-15
-3.49848e-16
-3.55399e-17
-5.2405e-18
-1.87048e-18
-9.29856e-19
-3.58124e-19
8.49485e-08
-1.40397e-07
4.29674e-07
1.03536e-07
-6.94053e-06
3.43489e-05
-7.52436e-05
-3.98593e-05
0.000695747
-0.00120433
-0.00233065
0.00697675
0.0121642
-0.0167786
-0.0649024
-0.0540411
0.0620034
0.166216
0.152752
0.0551205
-0.0413118
-0.0632899
-0.0314385
0.00160019
0.0112467
0.00781918
0.00257921
0.000202469
-4.15597e-05
-5.72528e-06
5.04475e-06
1.09304e-06
-2.5666e-07
-1.47206e-07
-1.49687e-08
3.14578e-09
9.83311e-10
-4.28614e-11
-2.5772e-11
-9.95093e-13
7.12934e-13
7.02022e-14
-2.35858e-14
-4.12712e-15
-9.63553e-17
1.07823e-17
1.55712e-18
-1.45836e-18
-1.15088e-18
-4.8403e-19
3.37479e-07
-5.58811e-07
1.92892e-06
-3.70187e-06
-2.66731e-06
5.16919e-05
-0.000181105
0.00020374
0.000689994
-0.00228354
-0.00138278
0.00985565
0.0118059
-0.020492
-0.06186
-0.0436848
0.02703
0.0603723
0.0255023
-0.0424402
-0.0738673
-0.0489451
-0.00958846
0.012169
0.0111297
0.00504184
0.000830286
-0.000127919
-1.20206e-05
1.94134e-05
7.31568e-06
4.44267e-08
-4.37377e-07
-1.26775e-07
3.49823e-09
2.86888e-09
7.08684e-11
-1.46286e-10
-2.84727e-11
3.44869e-12
9.12809e-13
-8.92664e-14
-3.0095e-14
-9.68365e-16
2.63267e-16
5.16658e-17
4.0876e-18
-2.16276e-18
-1.58419e-18
-6.43666e-19
2.55723e-07
-1.03577e-06
3.64109e-06
-1.21051e-05
2.21809e-05
1.77624e-05
-0.000253631
0.000590472
0.000310079
-0.00332757
-0.000160593
0.0119125
0.0113504
-0.020495
-0.047818
-0.0338107
-0.00485627
-0.00940894
-0.0440266
-0.0725428
-0.0591888
-0.0211414
0.00855339
0.0133088
0.00734297
0.00154708
-0.00025987
-5.81625e-05
3.31012e-05
2.38995e-05
4.2697e-06
-9.77761e-07
-4.7521e-07
-2.94716e-08
1.1904e-08
2.87702e-09
-4.34238e-10
-1.56536e-10
6.48964e-12
4.4026e-12
2.08608e-13
-1.71515e-13
-2.29293e-14
2.96017e-15
4.7887e-16
4.86924e-17
-1.73561e-18
-4.14681e-18
-2.15898e-18
-8.12331e-19
-2.1773e-06
-8.83822e-07
2.60885e-06
-2.12046e-05
6.91761e-05
-9.62745e-05
-0.000210021
0.00101418
-0.000284638
-0.00408341
0.000643945
0.0124709
0.0107737
-0.0128317
-0.0278297
-0.023431
-0.0222561
-0.0365366
-0.0563285
-0.0533272
-0.0249837
0.00403483
0.0137831
0.00840051
0.00180052
-0.000650648
-0.00030723
3.82657e-05
7.8372e-05
2.47336e-05
-1.31907e-06
-1.3679e-06
-3.02381e-07
2.49111e-08
1.02033e-08
-1.0527e-09
-6.52622e-10
-6.65972e-11
2.00192e-11
3.27243e-12
-8.91516e-13
-1.98703e-13
1.93878e-14
4.93016e-15
2.90727e-16
-8.38766e-18
-1.40511e-17
-6.55129e-18
-2.67015e-18
-9.53918e-19
-7.22795e-06
2.48881e-06
-7.01052e-06
-1.38685e-05
0.000112161
-0.000254818
-4.8364e-05
0.00133697
-0.000838566
-0.00449781
0.000613833
0.0113073
0.0104034
-0.000601322
-0.00713763
-0.00977771
-0.0182839
-0.0308153
-0.0332011
-0.0174688
0.00335578
0.0131436
0.00807562
0.00102823
-0.00184385
-0.00101979
-2.65339e-05
0.00017238
7.74707e-05
5.72118e-06
-3.27509e-06
-1.13663e-06
4.46549e-08
4.14317e-08
4.06148e-09
-2.28385e-09
-4.87126e-10
8.35295e-11
2.2095e-11
-3.14346e-12
-1.18306e-12
6.60778e-16
3.35272e-14
4.25453e-15
-2.21717e-16
-8.39684e-17
-2.45721e-17
-7.87959e-18
-2.91136e-18
-1.04664e-18
-4.87496e-06
1.34402e-05
-2.34156e-05
2.71951e-05
0.000112025
-0.000419583
0.000181188
0.00156191
-0.00115724
-0.00463264
-0.000351475
0.00836525
0.011407
0.01029
0.00797126
0.00257121
-0.004594
-0.00856188
-0.00298542
0.0077389
0.0130788
0.00757943
-0.000672481
-0.00407588
-0.0025079
-0.000406613
0.000284273
0.000175403
3.27589e-05
-7.35208e-06
-3.19888e-06
-6.43718e-08
1.66643e-07
3.30288e-08
-7.36149e-09
-2.37288e-09
2.66438e-10
1.21203e-10
5.05179e-12
-4.74844e-12
-6.9118e-13
2.07608e-13
3.80599e-14
-2.66062e-15
-6.54979e-16
-1.13118e-16
-2.38224e-17
-7.22673e-18
-2.87222e-18
-1.10534e-18
2.78721e-05
3.48154e-05
-3.83347e-05
9.43946e-05
6.14531e-05
-0.000558512
0.000427482
0.00168922
-0.00122806
-0.00458665
-0.00187245
0.00544767
0.0120816
0.0153843
0.0139805
0.00960735
0.00603737
0.00755948
0.0119664
0.0134331
0.00721173
-0.00221206
-0.00622916
-0.00437666
-0.00117358
0.000348989
0.000310614
8.4744e-05
-1.5174e-05
-8.53109e-06
-9.62837e-07
5.58575e-07
1.67925e-07
-9.06019e-09
-5.64271e-09
2.56924e-10
5.51082e-10
1.0882e-10
-1.30792e-11
-2.67099e-12
1.00308e-12
2.60053e-13
-9.66933e-15
-4.89554e-15
-5.98841e-16
-5.78917e-17
-1.16848e-17
-5.51455e-18
-2.82046e-18
-1.17317e-18
7.31619e-05
3.75352e-05
-5.63005e-05
0.000158828
-3.2867e-05
-0.000642683
0.000635812
0.00170417
-0.00123732
-0.0044876
-0.00263074
0.00416195
0.0115941
0.0141562
0.0116425
0.00838058
0.00815236
0.0103574
0.0110853
0.00606918
-0.00239208
-0.00706394
-0.00564066
-0.00188106
0.000362409
0.00049847
0.000150539
-3.12246e-05
-2.33643e-05
-4.04365e-06
1.62245e-06
5.93803e-07
8.12089e-09
-2.66718e-08
-3.81229e-09
1.68431e-09
4.72382e-10
-4.22847e-11
-1.05588e-11
3.31727e-12
1.41468e-12
8.35769e-14
-3.47707e-14
-5.47786e-15
1.14602e-16
4.1633e-17
1.3118e-19
-5.10276e-18
-3.09921e-18
-1.27282e-18
2.30789e-05
-5.56319e-05
-9.75987e-05
0.00019199
-0.000147787
-0.000610513
0.000774004
0.00129343
-0.00145276
-0.00377546
-0.00144368
0.00470734
0.00902379
0.00775677
0.00386692
0.00191413
0.00300823
0.00470308
0.00337412
-0.00152592
-0.00547293
-0.00484674
-0.00168947
0.000559857
0.000702257
0.000180384
-8.3506e-05
-6.00173e-05
-1.11856e-05
4.25558e-06
1.83335e-06
1.34919e-07
-1.00666e-07
-2.34663e-08
3.07135e-09
1.0404e-09
-1.80986e-10
-8.27898e-11
-3.91776e-12
4.15219e-12
7.76996e-13
-1.76455e-13
-3.47429e-14
2.73938e-15
6.61697e-16
7.68144e-17
-4.35374e-18
-7.73601e-18
-3.73816e-18
-1.35179e-18
-0.000111848
-0.000193231
-0.000107816
0.000235648
-0.00020034
-0.000443645
0.000600021
0.000340297
-0.00167389
-0.00129379
0.00234311
0.00598221
0.004985
0.000866066
-0.00296955
-0.00349967
-0.00198068
-0.000515757
-0.00100317
-0.00246894
-0.00211146
-0.000138726
0.00119139
0.000913203
0.000134961
-0.000202062
-0.000134304
-2.76021e-05
9.005e-06
4.8283e-06
6.06416e-07
-3.25657e-07
-1.04167e-07
2.89969e-10
2.44261e-09
-1.87637e-10
-3.80052e-10
-7.44603e-11
7.51621e-12
9.53025e-13
-9.10155e-13
-2.06497e-13
1.36096e-14
5.6227e-15
5.96639e-16
-5.27676e-18
-2.64208e-17
-1.20715e-17
-4.22079e-18
-1.28362e-18
-0.000128849
-0.000176119
8.17613e-05
0.000373174
-0.000139713
-0.000349448
-0.000173268
-0.000776913
-0.000341583
0.00288959
0.00626787
0.00552242
0.0014717
-0.00273263
-0.00464319
-0.00459989
-0.00337901
-0.00172194
-0.000534148
0.000703791
0.00196409
0.00219409
0.00122982
3.72694e-05
-0.000388815
-0.000253883
-5.34593e-05
2.05193e-05
1.22903e-05
1.88555e-06
-8.81098e-07
-3.28446e-07
-1.05791e-08
1.37352e-08
1.75386e-09
-9.78519e-10
-2.63332e-10
2.79639e-11
5.36468e-12
-2.22209e-12
-8.89409e-13
-8.84741e-15
3.40423e-14
5.46781e-15
-3.12727e-16
-1.49694e-16
-4.86864e-17
-1.40648e-17
-3.79369e-18
-9.58406e-19
0.000241591
0.000225488
0.000456622
0.000463405
-0.000173486
-0.00104105
-0.00137831
-0.000682592
0.00282148
0.00704859
0.00695438
0.00334876
-0.000604127
-0.00240185
-0.00264306
-0.00306551
-0.00283378
-0.0013405
0.000874719
0.00257077
0.00261291
0.00139426
-3.70083e-05
-0.000564698
-0.000368844
-6.90815e-05
4.29593e-05
2.54773e-05
3.91553e-06
-2.05531e-06
-7.91722e-07
-1.43351e-08
5.81162e-08
1.22873e-08
-1.34697e-09
-3.10384e-10
1.5977e-10
5.21519e-11
1.66586e-12
-1.54256e-12
-8.33377e-14
1.54215e-13
2.2378e-14
-4.26686e-15
-1.00775e-15
-2.05702e-16
-4.68943e-17
-1.04344e-17
-2.16791e-18
-4.03493e-19
0.000675986
0.000474692
0.000286359
-0.0005244
-0.00159638
-0.00206827
-0.00125123
0.00222413
0.00661287
0.00766136
0.00435611
0.000338362
-0.000876257
5.78114e-05
-0.000773334
-0.00287601
-0.00384759
-0.00253827
6.61242e-05
0.00137909
0.000959585
-8.1351e-05
-0.000562534
-0.000348065
-3.14922e-05
8.21948e-05
4.46127e-05
5.09169e-06
-4.98328e-06
-1.96678e-06
-3.13904e-08
1.93671e-07
5.38309e-08
-8.90647e-10
-5.57728e-10
4.07348e-10
2.35156e-10
3.50363e-11
-2.5259e-12
4.82177e-13
6.30882e-13
9.42908e-14
-2.22731e-14
-5.95291e-15
-7.82684e-16
-1.19669e-16
-2.01369e-17
-2.57527e-18
2.98418e-20
1.85334e-19
-0.00234888
-0.00247566
-0.00264114
-0.00275836
-0.00234238
-0.000315445
0.00327161
0.00655355
0.00757362
0.00435604
9.50471e-05
-0.00128539
0.000233959
0.000727357
-0.00243023
-0.00677885
-0.00813134
-0.00590777
-0.00248576
-0.000555171
-0.00030028
-0.000345928
-0.00013042
0.000100957
0.000147907
6.60446e-05
5.39825e-07
-1.224e-05
-4.65908e-06
-4.75637e-08
4.73994e-07
1.25361e-07
-9.81155e-09
-5.60334e-09
2.84588e-11
6.61063e-10
1.52239e-10
-1.22738e-11
-4.87595e-14
1.2977e-12
2.3344e-13
-7.5846e-14
-2.57985e-14
-3.16388e-15
-8.55046e-17
1.5281e-17
1.10128e-17
4.65056e-18
1.6928e-18
5.66816e-19
-0.00344881
-0.00296422
-0.00190274
0.000100288
0.0029068
0.00565245
0.00739767
0.00701098
0.00352204
-0.00038896
-0.00170897
-0.000695935
8.11253e-05
-0.00398392
-0.0108
-0.014583
-0.0135305
-0.0089217
-0.00403434
-0.0011565
-0.000144017
0.000181591
0.000277179
0.000208381
6.79133e-05
-1.55632e-05
-2.35055e-05
-7.84687e-06
5.22527e-07
1.08204e-06
2.40661e-07
-5.08944e-08
-2.62452e-08
-2.97198e-09
1.07875e-09
1.577e-10
-1.13372e-10
-2.59238e-11
4.42645e-13
2.59994e-13
-1.57891e-13
-7.71385e-14
-1.00926e-14
1.31928e-15
3.39547e-16
8.85812e-17
2.49633e-17
7.23639e-18
2.12825e-18
6.29774e-19
0.00544507
0.00595576
0.00673904
0.00751371
0.00769737
0.00699981
0.00469391
0.00113876
-0.00166582
-0.00134154
0.000507881
8.02673e-05
-0.00737741
-0.0181829
-0.025458
-0.0247088
-0.0185315
-0.0103569
-0.00395599
-0.0006347
0.000324647
0.000379655
0.000224661
3.76988e-05
-4.446e-05
-3.5673e-05
-9.6633e-06
2.49516e-06
2.27487e-06
5.07897e-07
-1.14788e-07
-6.23076e-08
-8.99732e-09
2.48436e-09
1.49158e-10
-3.71318e-10
-1.31856e-10
-1.08056e-11
1.21328e-12
-7.94322e-14
-1.61653e-13
-2.40847e-14
6.7105e-15
1.44527e-15
2.80644e-16
7.21747e-17
1.95552e-17
5.44882e-18
1.56067e-18
4.58911e-19
0.00442902
0.0045119
0.00432872
0.00359663
0.00234952
0.000626281
-0.00120417
-0.00244873
-0.00171141
0.00263164
0.00278332
-0.00810199
-0.0271991
-0.0433827
-0.045711
-0.0369467
-0.0228585
-0.0106226
-0.0030803
-8.44267e-05
0.000275688
0.000150104
-1.24005e-05
-7.07129e-05
-4.3353e-05
-6.65629e-06
6.51852e-06
3.92205e-06
6.38189e-07
-3.35241e-07
-1.46058e-07
-1.13967e-08
1.11662e-08
2.51299e-09
-5.27125e-10
-2.84328e-10
-3.00651e-11
1.29365e-11
1.93532e-12
-1.47369e-13
-9.3807e-15
2.14187e-14
4.38035e-15
4.92499e-16
1.06814e-16
2.79438e-17
7.76781e-18
2.31292e-18
7.21765e-19
2.32023e-19
0.000716538
0.000594707
0.000249662
-0.000349229
-0.000919064
-0.00119369
-0.00138641
-0.00132474
0.00248401
0.00595821
-0.00381179
-0.0319881
-0.0639249
-0.0785845
-0.071085
-0.0487491
-0.0255446
-0.00983301
-0.00204782
2.84501e-05
8.21148e-06
-5.6944e-05
-6.77957e-05
-2.90676e-05
4.97257e-06
1.26308e-05
5.6624e-06
1.80223e-07
-8.59788e-07
-3.12209e-07
-2.47691e-09
2.88428e-08
6.38217e-09
-9.90053e-10
-4.60639e-10
1.72573e-11
6.56565e-11
1.55807e-11
4.20045e-13
1.00717e-13
4.85596e-14
5.96601e-15
-3.69609e-16
-9.1281e-17
-2.19572e-17
-4.13992e-18
-3.16719e-19
2.14321e-19
1.58667e-19
7.54927e-20
-0.000491358
-0.000543066
-0.000662229
-0.000705832
-0.00069399
0.00010998
-0.000213376
-1.20662e-05
0.00467545
-0.00212623
-0.0321532
-0.0799051
-0.118453
-0.119756
-0.0936384
-0.0559766
-0.0257746
-0.00805596
-0.000944861
-5.08455e-05
-5.09811e-05
-3.39399e-05
6.51896e-07
2.04919e-05
1.67944e-05
5.38398e-06
-1.04038e-06
-1.52338e-06
-4.55419e-07
4.81525e-08
6.31755e-08
1.40225e-08
-1.97645e-09
-7.99085e-10
6.95383e-11
1.49815e-10
3.874e-11
-2.84906e-13
-7.57217e-13
-1.40616e-13
-1.22183e-14
-3.53961e-15
-8.10919e-16
-2.09911e-16
-5.09381e-17
-1.14278e-17
-2.34974e-18
-4.07875e-19
-4.06193e-20
1.00448e-20
-0.000113024
-4.84587e-05
-0.000114968
0.000183844
-0.000161227
0.00242633
0.000459041
0.000287011
-0.0193451
-0.0527969
-0.101767
-0.154462
-0.17816
-0.157409
-0.106542
-0.0564909
-0.0218709
-0.00516997
-0.000197058
2.00833e-05
1.97387e-05
2.6597e-05
2.65073e-05
1.45584e-05
1.40901e-06
-3.33643e-06
-2.02995e-06
-3.58154e-07
1.98972e-07
1.11646e-07
1.73811e-08
-7.12629e-09
-2.4341e-09
-1.09917e-10
1.60217e-10
1.94532e-11
-1.77254e-11
-5.32539e-12
-6.62685e-13
3.06756e-15
-2.09636e-14
-6.32759e-15
-7.29759e-16
-1.26339e-16
-2.9825e-17
-6.93366e-18
-1.52125e-18
-3.01797e-19
-4.81619e-20
-3.12223e-21
-1.20663e-05
0.0002545
-0.000243067
0.000777891
-0.000629883
0.00675988
-0.0189636
-0.0930764
-0.155081
-0.193396
-0.224052
-0.243362
-0.229022
-0.174769
-0.106167
-0.0481782
-0.0157125
-0.0025005
6.00303e-05
3.28751e-05
2.61349e-05
1.84776e-05
5.06555e-06
-3.90009e-06
-4.99838e-06
-2.14645e-06
7.23215e-09
4.37931e-07
1.74071e-07
2.52606e-09
-2.11359e-08
-6.76451e-09
-2.43495e-10
1.9301e-10
-3.4838e-11
-6.10859e-11
-1.73236e-11
-3.15938e-13
4.26266e-13
5.12972e-14
-4.36449e-15
-1.27271e-15
-1.96418e-16
-4.21608e-17
-1.00859e-17
-2.31943e-18
-5.02008e-19
-9.93037e-20
-1.60489e-20
-1.09565e-21
-0.000303377
0.000619704
-0.00146638
0.00065573
-0.0142134
-0.117259
-0.295318
-0.444339
-0.483061
-0.438974
-0.376601
-0.319226
-0.249484
-0.16587
-0.0872514
-0.0347919
-0.00972449
-0.00096685
5.54919e-06
8.53565e-06
4.1168e-06
-2.71931e-06
-5.83642e-06
-3.97939e-06
-8.59822e-07
6.0945e-07
5.21406e-07
1.35755e-07
-3.51948e-08
-2.98046e-08
-5.89996e-09
1.65472e-09
7.82539e-10
3.73541e-11
-4.30429e-11
-6.40432e-12
5.79786e-12
1.88486e-12
2.22871e-13
-4.53905e-15
2.8191e-15
6.01762e-16
5.11723e-17
3.29261e-18
1.86708e-19
4.02677e-20
1.18925e-20
3.29287e-21
1.43857e-21
8.25347e-22
-0.0150421
-0.0710141
-0.196215
-0.365664
-0.554569
-0.81471
-1.0848
-1.15104
-0.993639
-0.72962
-0.503229
-0.349069
-0.232786
-0.134445
-0.0624485
-0.0221102
-0.00540207
-0.000350293
-2.4573e-06
-3.28925e-06
-4.38253e-06
-3.56421e-06
-1.34727e-06
4.48413e-07
9.00432e-07
4.57703e-07
3.19672e-08
-7.88452e-08
-3.68283e-08
-3.00539e-09