/*--------------------------------*- C++ -*----------------------------------*\
| =========                 |                                                 |
| \\      /  F ield         | OpenFOAM: The Open Source CFD Toolbox           |
|  \\    /   O peration     | Version:  v2006                                 |
|   \\  /    A nd           | Website:  www.openfoam.com                      |
|    \\/     M anipulation  |                                                 |
\*---------------------------------------------------------------------------*/
FoamFile
{
    version     2.0;
    format      ascii;
    class       volVectorField;
    location    "0";
    object      U;
}
// * * * * * * * * * * * * * * * * * * * * * * * * * * * * * * * * * * * * * //

dimensions      [0 1 -1 0 0 0 0];


internalField   nonuniform List<vector> 
67500
(
(-0.00545342 0.00425473 0)
(-0.0099459 -0.0107547 0)
(0.0342115 -0.0187004 0)
(0.0713463 -0.0193612 0)
(0.106817 -0.0172078 0)
(0.138726 -0.0148673 0)
(0.167176 -0.013384 0)
(0.193382 -0.0127908 0)
(0.218726 -0.0127365 0)
(0.244202 -0.0128912 0)
(0.270158 -0.0130717 0)
(0.296497 -0.0132048 0)
(0.323027 -0.0132691 0)
(0.349601 -0.013263 0)
(0.3761 -0.0131917 0)
(0.402402 -0.0130604 0)
(0.428385 -0.0128729 0)
(0.453934 -0.0126326 0)
(0.47895 -0.0123442 0)
(0.503342 -0.0120143 0)
(0.527033 -0.0116504 0)
(0.549962 -0.0112601 0)
(0.572085 -0.0108511 0)
(0.593372 -0.0104302 0)
(0.613806 -0.0100033 0)
(0.633381 -0.00957541 0)
(0.652099 -0.00915059 0)
(0.669971 -0.0087321 0)
(0.687013 -0.00832249 0)
(0.703245 -0.00792371 0)
(0.71869 -0.0075372 0)
(0.733375 -0.00716398 0)
(0.747327 -0.00680474 0)
(0.760575 -0.00645987 0)
(0.773147 -0.00612954 0)
(0.785074 -0.00581375 0)
(0.796384 -0.00551235 0)
(0.807106 -0.00522507 0)
(0.817268 -0.00495158 0)
(0.826896 -0.00469147 0)
(0.836018 -0.00444429 0)
(0.844659 -0.00420957 0)
(0.852842 -0.0039868 0)
(0.860592 -0.0037755 0)
(0.867932 -0.00357514 0)
(0.874881 -0.00338523 0)
(0.881461 -0.00320529 0)
(0.887692 -0.00303482 0)
(0.893591 -0.00287337 0)
(0.899176 -0.00272048 0)
(0.904464 -0.00257572 0)
(0.90947 -0.00243868 0)
(0.914211 -0.00230895 0)
(0.918699 -0.00218616 0)
(0.922948 -0.00206994 0)
(0.926972 -0.00195995 0)
(0.930782 -0.00185586 0)
(0.93439 -0.00175734 0)
(0.937806 -0.00166412 0)
(0.941041 -0.00157589 0)
(0.944105 -0.00149241 0)
(0.947006 -0.0014134 0)
(0.949754 -0.00133863 0)
(0.952356 -0.00126786 0)
(0.954821 -0.00120089 0)
(0.957156 -0.00113751 0)
(0.959368 -0.00107752 0)
(0.961463 -0.00102074 0)
(0.963448 -0.000966996 0)
(0.965328 -0.00091612 0)
(0.96711 -0.000867959 0)
(0.968797 -0.000822364 0)
(0.970397 -0.000779194 0)
(0.971912 -0.000738318 0)
(0.973348 -0.000699608 0)
(0.974708 -0.000662947 0)
(0.975997 -0.00062822 0)
(0.977219 -0.000595321 0)
(0.978377 -0.000564149 0)
(0.979474 -0.000534611 0)
(0.980514 -0.000506616 0)
(0.981499 -0.000480081 0)
(0.982433 -0.000454929 0)
(0.983317 -0.000431085 0)
(0.984156 -0.00040848 0)
(0.98495 -0.000387052 0)
(0.985703 -0.000366738 0)
(0.986416 -0.000347483 0)
(0.987092 -0.000329232 0)
(0.987732 -0.000311936 0)
(0.988339 -0.000295545 0)
(0.988913 -0.000280014 0)
(0.989458 -0.0002653 0)
(0.989974 -0.000251361 0)
(0.990462 -0.000238159 0)
(0.990926 -0.000225655 0)
(0.991364 -0.000213814 0)
(0.99178 -0.000202603 0)
(0.992174 -0.000191989 0)
(0.992548 -0.000181943 0)
(0.992901 -0.000172435 0)
(0.993237 -0.000163438 0)
(0.993555 -0.000154926 0)
(0.993856 -0.000146876 0)
(0.994142 -0.000139262 0)
(0.994413 -0.000132064 0)
(0.99467 -0.000125259 0)
(0.994913 -0.000118826 0)
(0.995144 -0.000112747 0)
(0.995364 -0.000107003 0)
(0.995572 -0.000101574 0)
(0.99577 -9.64434e-05 0)
(0.995958 -9.15949e-05 0)
(0.996136 -8.7012e-05 0)
(0.996305 -8.26794e-05 0)
(0.996466 -7.85823e-05 0)
(0.99662 -7.47069e-05 0)
(0.996765 -7.10399e-05 0)
(0.996903 -6.75688e-05 0)
(0.997035 -6.42818e-05 0)
(0.99716 -6.11678e-05 0)
(0.99728 -5.82165e-05 0)
(0.997393 -5.54182e-05 0)
(0.997501 -5.27639e-05 0)
(0.997604 -5.02452e-05 0)
(0.997702 -4.78543e-05 0)
(0.997795 -4.5584e-05 0)
(0.997884 -4.34276e-05 0)
(0.997969 -4.13788e-05 0)
(0.99805 -3.94318e-05 0)
(0.998127 -3.75813e-05 0)
(0.9982 -3.58221e-05 0)
(0.99827 -3.41496e-05 0)
(0.998336 -3.25594e-05 0)
(0.9984 -3.10473e-05 0)
(0.998461 -2.96095e-05 0)
(0.998518 -2.82421e-05 0)
(0.998573 -2.69419e-05 0)
(0.998626 -2.57054e-05 0)
(0.998676 -2.45295e-05 0)
(0.998724 -2.34113e-05 0)
(0.99877 -2.23479e-05 0)
(0.998813 -2.13366e-05 0)
(0.998855 -2.03748e-05 0)
(0.998895 -1.946e-05 0)
(0.998933 -1.859e-05 0)
(0.998969 -1.77625e-05 0)
(0.999004 -1.69753e-05 0)
(0.999037 -1.62264e-05 0)
(0.999069 -1.5514e-05 0)
(0.999099 -1.48361e-05 0)
(0.999128 -1.4191e-05 0)
(0.999156 -1.35771e-05 0)
(0.999182 -1.29928e-05 0)
(0.999208 -1.24366e-05 0)
(0.999232 -1.1907e-05 0)
(0.999255 -1.14029e-05 0)
(0.999278 -1.09229e-05 0)
(0.999299 -1.04658e-05 0)
(0.999319 -1.00305e-05 0)
(0.999339 -9.61595e-06 0)
(0.999358 -9.22118e-06 0)
(0.999376 -8.84523e-06 0)
(0.999393 -8.4872e-06 0)
(0.99941 -8.14628e-06 0)
(0.999426 -7.82167e-06 0)
(0.999441 -7.51263e-06 0)
(0.999456 -7.21844e-06 0)
(0.99947 -6.93846e-06 0)
(0.999484 -6.67204e-06 0)
(0.999497 -6.41858e-06 0)
(0.999509 -6.17752e-06 0)
(0.999521 -5.94832e-06 0)
(0.999533 -5.73045e-06 0)
(0.999544 -5.52343e-06 0)
(0.999555 -5.32678e-06 0)
(0.999566 -5.14006e-06 0)
(0.999576 -4.96281e-06 0)
(0.999585 -4.79464e-06 0)
(0.999595 -4.63513e-06 0)
(0.999604 -4.48389e-06 0)
(0.999613 -4.34056e-06 0)
(0.999621 -4.20476e-06 0)
(0.99963 -4.07614e-06 0)
(0.999638 -3.95436e-06 0)
(0.999645 -3.8391e-06 0)
(0.999653 -3.73002e-06 0)
(0.99966 -3.62682e-06 0)
(0.999667 -3.5292e-06 0)
(0.999674 -3.43684e-06 0)
(0.999681 -3.34948e-06 0)
(0.999688 -3.26683e-06 0)
(0.999694 -3.18862e-06 0)
(0.999701 -3.11458e-06 0)
(0.999707 -3.04447e-06 0)
(0.999713 -2.97802e-06 0)
(0.999719 -2.915e-06 0)
(0.999724 -2.85517e-06 0)
(0.99973 -2.79831e-06 0)
(0.999736 -2.74419e-06 0)
(0.999741 -2.69261e-06 0)
(0.999746 -2.64335e-06 0)
(0.999752 -2.59621e-06 0)
(0.999757 -2.55102e-06 0)
(0.999762 -2.50757e-06 0)
(0.999767 -2.46569e-06 0)
(0.999772 -2.42521e-06 0)
(0.999776 -2.38597e-06 0)
(0.999781 -2.3478e-06 0)
(0.999786 -2.31057e-06 0)
(0.99979 -2.27411e-06 0)
(0.999795 -2.23831e-06 0)
(0.999799 -2.20303e-06 0)
(0.999804 -2.16815e-06 0)
(0.999808 -2.13356e-06 0)
(0.999812 -2.09916e-06 0)
(0.999816 -2.06486e-06 0)
(0.999821 -2.03057e-06 0)
(0.999825 -1.99623e-06 0)
(0.999829 -1.96177e-06 0)
(0.999832 -1.92713e-06 0)
(0.999836 -1.89229e-06 0)
(0.99984 -1.8572e-06 0)
(0.999844 -1.82184e-06 0)
(0.999847 -1.78621e-06 0)
(0.999851 -1.75029e-06 0)
(0.999854 -1.71411e-06 0)
(0.999858 -1.67766e-06 0)
(0.999861 -1.64097e-06 0)
(0.999864 -1.60408e-06 0)
(0.999867 -1.56702e-06 0)
(0.999871 -1.52986e-06 0)
(0.999874 -1.49264e-06 0)
(0.999876 -1.45546e-06 0)
(0.999879 -1.41839e-06 0)
(0.999882 -1.38153e-06 0)
(0.999885 -1.345e-06 0)
(0.999888 -1.3089e-06 0)
(0.99989 -1.27335e-06 0)
(0.999893 -1.23848e-06 0)
(0.999895 -1.20438e-06 0)
(0.999897 -1.17116e-06 0)
(0.9999 -1.13888e-06 0)
(0.999902 -1.10758e-06 0)
(0.999904 -1.07728e-06 0)
(0.999906 -1.04794e-06 0)
(0.999908 -1.01948e-06 0)
(0.99991 -9.91803e-07 0)
(0.999912 -9.64789e-07 0)
(0.999914 -9.38301e-07 0)
(0.999916 -9.12216e-07 0)
(0.999918 -8.86437e-07 0)
(0.99992 -8.60907e-07 0)
(0.999921 -8.35629e-07 0)
(0.999923 -8.1066e-07 0)
(0.999925 -7.86118e-07 0)
(0.999926 -7.6217e-07 0)
(0.999928 -7.39009e-07 0)
(0.999929 -7.16844e-07 0)
(0.99993 -6.95867e-07 0)
(0.999932 -6.76238e-07 0)
(0.999933 -6.58067e-07 0)
(0.999934 -6.41404e-07 0)
(0.999936 -6.26235e-07 0)
(0.999937 -6.12485e-07 0)
(0.999938 -6.00029e-07 0)
(0.999939 -5.88699e-07 0)
(0.999941 -5.78304e-07 0)
(0.999942 -5.68642e-07 0)
(0.999943 -5.59511e-07 0)
(0.999944 -5.50722e-07 0)
(0.999945 -5.42108e-07 0)
(0.999946 -5.33525e-07 0)
(0.999947 -5.24859e-07 0)
(0.999948 -5.16027e-07 0)
(0.999949 -5.06969e-07 0)
(0.99995 -4.97655e-07 0)
(0.999951 -4.88073e-07 0)
(0.999952 -4.78232e-07 0)
(0.999953 -4.68154e-07 0)
(0.999954 -4.57871e-07 0)
(0.999955 -4.47424e-07 0)
(0.999956 -4.36857e-07 0)
(0.999957 -4.26217e-07 0)
(0.999958 -4.1555e-07 0)
(0.999958 -4.04901e-07 0)
(0.999959 -3.94312e-07 0)
(0.99996 -3.83823e-07 0)
(0.999961 -3.73468e-07 0)
(0.999961 -3.63277e-07 0)
(0.999962 -3.53278e-07 0)
(0.999963 -3.43492e-07 0)
(0.999964 -3.33938e-07 0)
(0.999964 -3.24629e-07 0)
(0.999965 -3.15578e-07 0)
(0.999965 -3.06791e-07 0)
(0.999966 -2.98274e-07 0)
(0.999967 -2.90029e-07 0)
(0.999967 -2.82058e-07 0)
(0.999968 -2.74357e-07 0)
(0.999968 -2.66926e-07 0)
(0.999969 -2.59758e-07 0)
(0.999969 -2.5285e-07 0)
(0.99997 -2.46195e-07 0)
(0.99997 -2.39786e-07 0)
(0.999971 -2.33616e-07 0)
(0.999971 -2.27677e-07 0)
(0.999972 -2.21961e-07 0)
(0.999972 -2.16461e-07 0)
(0.999973 -2.11168e-07 0)
(0.999973 -2.06074e-07 0)
(0.999973 -2.01171e-07 0)
(0.999974 -1.9645e-07 0)
(0.999974 -1.91905e-07 0)
(0.999975 -1.87528e-07 0)
(0.999975 -1.8331e-07 0)
(0.999975 -1.79246e-07 0)
(0.999976 -1.75327e-07 0)
(0.999976 -1.71548e-07 0)
(0.999976 -1.67901e-07 0)
(0.999977 -1.64381e-07 0)
(0.999977 -1.60982e-07 0)
(0.999977 -1.57698e-07 0)
(0.999978 -1.54524e-07 0)
(0.999978 -1.51454e-07 0)
(0.999978 -1.48484e-07 0)
(0.999979 -1.45608e-07 0)
(0.999979 -1.42823e-07 0)
(0.999979 -1.40124e-07 0)
(0.999979 -1.37507e-07 0)
(0.99998 -1.34968e-07 0)
(0.99998 -1.32504e-07 0)
(0.99998 -1.30111e-07 0)
(0.99998 -1.27785e-07 0)
(0.999981 -1.25525e-07 0)
(0.999981 -1.23326e-07 0)
(0.999981 -1.21186e-07 0)
(0.999981 -1.19102e-07 0)
(0.999982 -1.17072e-07 0)
(0.999982 -1.15094e-07 0)
(0.999982 -1.13164e-07 0)
(0.999982 -1.11282e-07 0)
(0.999983 -1.09444e-07 0)
(0.999983 -1.07649e-07 0)
(0.999983 -1.05896e-07 0)
(0.999983 -1.04182e-07 0)
(0.999983 -1.02505e-07 0)
(0.999984 -1.00865e-07 0)
(0.999984 -9.92598e-08 0)
(0.999984 -9.76877e-08 0)
(0.999984 -9.61476e-08 0)
(0.999984 -9.46383e-08 0)
(0.999985 -9.31587e-08 0)
(0.999985 -9.17074e-08 0)
(0.999985 -9.02835e-08 0)
(0.999985 -8.8886e-08 0)
(0.999985 -8.75138e-08 0)
(0.999985 -8.61661e-08 0)
(0.999986 -8.4842e-08 0)
(0.999986 -8.35406e-08 0)
(0.999986 -8.22612e-08 0)
(0.999986 -8.1003e-08 0)
(0.999986 -7.97653e-08 0)
(0.999986 -7.85474e-08 0)
(0.999987 -7.73487e-08 0)
(0.999987 -7.61686e-08 0)
(0.999987 -7.50064e-08 0)
(0.999987 -7.38616e-08 0)
(0.999987 -7.27338e-08 0)
(0.999987 -7.16223e-08 0)
(0.999988 -7.05267e-08 0)
(0.999988 -6.94465e-08 0)
(0.999988 -6.83812e-08 0)
(0.999988 -6.73305e-08 0)
(0.999988 -6.62939e-08 0)
(0.999988 -6.52711e-08 0)
(0.999988 -6.42616e-08 0)
(0.999988 -6.32652e-08 0)
(0.999989 -6.22815e-08 0)
(0.999989 -6.13102e-08 0)
(0.999989 -6.03509e-08 0)
(0.999989 -5.94033e-08 0)
(0.999989 -5.84671e-08 0)
(0.999989 -5.75421e-08 0)
(0.999989 -5.66279e-08 0)
(0.999989 -5.57244e-08 0)
(0.99999 -5.48313e-08 0)
(0.99999 -5.39483e-08 0)
(0.99999 -5.30753e-08 0)
(0.99999 -5.22118e-08 0)
(0.99999 -5.13578e-08 0)
(0.99999 -5.05131e-08 0)
(0.99999 -4.96774e-08 0)
(0.99999 -4.88505e-08 0)
(0.99999 -4.80322e-08 0)
(0.99999 -4.72224e-08 0)
(0.999991 -4.64209e-08 0)
(0.999991 -4.56275e-08 0)
(0.999991 -4.4842e-08 0)
(0.999991 -4.40642e-08 0)
(0.999991 -4.3294e-08 0)
(0.999991 -4.25313e-08 0)
(0.999991 -4.17757e-08 0)
(0.999991 -4.10273e-08 0)
(0.999991 -4.02859e-08 0)
(0.999991 -3.95513e-08 0)
(0.999991 -3.88233e-08 0)
(0.999991 -3.81019e-08 0)
(0.999992 -3.73868e-08 0)
(0.999992 -3.6678e-08 0)
(0.999992 -3.59754e-08 0)
(0.999992 -3.52787e-08 0)
(0.999992 -3.45879e-08 0)
(0.999992 -3.39029e-08 0)
(0.999992 -3.32235e-08 0)
(0.999992 -3.25496e-08 0)
(0.999992 -3.18811e-08 0)
(0.999992 -3.12178e-08 0)
(0.999992 -3.05596e-08 0)
(0.999992 -2.99065e-08 0)
(0.999992 -2.92582e-08 0)
(0.999992 -2.86148e-08 0)
(0.999992 -2.79761e-08 0)
(0.999993 -2.73419e-08 0)
(0.999993 -2.67122e-08 0)
(0.999993 -2.60869e-08 0)
(0.999993 -2.54659e-08 0)
(0.999993 -2.48491e-08 0)
(0.999993 -2.42363e-08 0)
(0.999993 -2.36275e-08 0)
(0.999993 -2.30225e-08 0)
(0.999993 -2.24213e-08 0)
(0.999993 -2.18237e-08 0)
(0.999993 -2.12297e-08 0)
(0.999993 -2.06392e-08 0)
(0.999993 -2.00521e-08 0)
(0.999993 -1.94682e-08 0)
(0.999993 -1.88875e-08 0)
(0.999993 -1.831e-08 0)
(0.999993 -1.77354e-08 0)
(0.999993 -1.71638e-08 0)
(0.999993 -1.6595e-08 0)
(0.999993 -1.60289e-08 0)
(0.999993 -1.54654e-08 0)
(0.999993 -1.49048e-08 0)
(0.999993 -1.43453e-08 0)
(0.999993 -1.37938e-08 0)
(0.999993 -1.32212e-08 0)
(0.999993 -1.27498e-08 0)
(0.999994 -1.18614e-08 0)
(-0.00586164 0.0128993 0)
(-0.0103598 -0.0321559 0)
(0.0336168 -0.0562173 0)
(0.0707344 -0.0582057 0)
(0.106558 -0.0516481 0)
(0.138741 -0.0446063 0)
(0.167218 -0.0401626 0)
(0.193348 -0.0383736 0)
(0.218631 -0.0381993 0)
(0.244079 -0.0386689 0)
(0.27003 -0.0392284 0)
(0.296396 -0.039646 0)
(0.32299 -0.0398518 0)
(0.349657 -0.0398414 0)
(0.376266 -0.0396309 0)
(0.402683 -0.0392365 0)
(0.428778 -0.0386698 0)
(0.454432 -0.0379423 0)
(0.47954 -0.0370694 0)
(0.504008 -0.0360712 0)
(0.52776 -0.0349708 0)
(0.550735 -0.0337921 0)
(0.57289 -0.032558 0)
(0.594195 -0.0312892 0)
(0.614637 -0.0300036 0)
(0.63421 -0.0287159 0)
(0.652919 -0.0274384 0)
(0.670776 -0.0261806 0)
(0.687799 -0.0249502 0)
(0.704008 -0.0237528 0)
(0.719428 -0.0225927 0)
(0.734086 -0.0214728 0)
(0.748011 -0.0203951 0)
(0.76123 -0.0193608 0)
(0.773774 -0.0183703 0)
(0.785673 -0.0174235 0)
(0.796955 -0.0165199 0)
(0.80765 -0.0156588 0)
(0.817785 -0.014839 0)
(0.827388 -0.0140595 0)
(0.836485 -0.0133187 0)
(0.845102 -0.0126153 0)
(0.853263 -0.0119477 0)
(0.860991 -0.0113145 0)
(0.86831 -0.0107141 0)
(0.87524 -0.010145 0)
(0.881801 -0.0096058 0)
(0.888014 -0.00909499 0)
(0.893896 -0.00861119 0)
(0.899465 -0.00815304 0)
(0.904737 -0.00771926 0)
(0.90973 -0.00730859 0)
(0.914456 -0.00691984 0)
(0.918931 -0.00655188 0)
(0.923169 -0.0062036 0)
(0.927181 -0.00587398 0)
(0.930979 -0.00556203 0)
(0.934577 -0.00526681 0)
(0.937983 -0.00498743 0)
(0.941209 -0.00472304 0)
(0.944263 -0.00447284 0)
(0.947156 -0.00423605 0)
(0.949896 -0.00401197 0)
(0.952491 -0.0037999 0)
(0.954949 -0.0035992 0)
(0.957277 -0.00340924 0)
(0.959483 -0.00322945 0)
(0.961572 -0.00305928 0)
(0.963551 -0.00289821 0)
(0.965425 -0.00274573 0)
(0.967202 -0.00260139 0)
(0.968885 -0.00246474 0)
(0.970479 -0.00233536 0)
(0.97199 -0.00221285 0)
(0.973422 -0.00209684 0)
(0.974779 -0.00198696 0)
(0.976064 -0.00188288 0)
(0.977282 -0.00178428 0)
(0.978437 -0.00169086 0)
(0.979531 -0.00160233 0)
(0.980568 -0.00151843 0)
(0.98155 -0.0014389 0)
(0.982481 -0.00136351 0)
(0.983363 -0.00129204 0)
(0.984199 -0.00122429 0)
(0.984992 -0.00116006 0)
(0.985742 -0.00109918 0)
(0.986453 -0.00104146 0)
(0.987127 -0.000986761 0)
(0.987765 -0.000934917 0)
(0.98837 -0.000885789 0)
(0.988943 -0.000839238 0)
(0.989486 -0.000795137 0)
(0.990001 -0.000753359 0)
(0.990488 -0.000713788 0)
(0.99095 -0.00067631 0)
(0.991387 -0.000640821 0)
(0.991802 -0.000607219 0)
(0.992195 -0.000575407 0)
(0.992567 -0.000545295 0)
(0.99292 -0.000516798 0)
(0.993254 -0.000489833 0)
(0.993571 -0.000464323 0)
(0.993872 -0.000440193 0)
(0.994156 -0.000417375 0)
(0.994427 -0.000395801 0)
(0.994683 -0.000375405 0)
(0.994926 -0.000356128 0)
(0.995156 -0.00033791 0)
(0.995375 -0.000320693 0)
(0.995583 -0.000304424 0)
(0.99578 -0.00028905 0)
(0.995967 -0.00027452 0)
(0.996145 -0.000260787 0)
(0.996314 -0.000247803 0)
(0.996474 -0.000235526 0)
(0.996627 -0.000223913 0)
(0.996772 -0.000212924 0)
(0.99691 -0.000202523 0)
(0.997042 -0.000192673 0)
(0.997166 -0.000183341 0)
(0.997285 -0.000174497 0)
(0.997399 -0.000166111 0)
(0.997506 -0.000158156 0)
(0.997609 -0.000150608 0)
(0.997707 -0.000143443 0)
(0.9978 -0.000136638 0)
(0.997888 -0.000130175 0)
(0.997973 -0.000124035 0)
(0.998053 -0.000118199 0)
(0.99813 -0.000112652 0)
(0.998203 -0.00010738 0)
(0.998273 -0.000102367 0)
(0.998339 -9.76001e-05 0)
(0.998403 -9.30678e-05 0)
(0.998463 -8.87579e-05 0)
(0.998521 -8.46594e-05 0)
(0.998576 -8.07619e-05 0)
(0.998628 -7.70556e-05 0)
(0.998678 -7.35309e-05 0)
(0.998726 -7.01791e-05 0)
(0.998772 -6.69915e-05 0)
(0.998815 -6.39602e-05 0)
(0.998857 -6.10772e-05 0)
(0.998897 -5.83354e-05 0)
(0.998935 -5.57275e-05 0)
(0.998971 -5.32471e-05 0)
(0.999005 -5.08876e-05 0)
(0.999038 -4.86429e-05 0)
(0.99907 -4.65074e-05 -4.1572e-42)
(0.9991 -4.44755e-05 -4.05216e-42)
(0.999129 -4.25419e-05 0)
(0.999157 -4.07017e-05 0)
(0.999183 -3.89502e-05 0)
(0.999209 -3.7283e-05 0)
(0.999233 -3.56957e-05 0)
(0.999256 -3.41846e-05 0)
(0.999279 -3.27457e-05 0)
(0.9993 -3.13755e-05 0)
(0.99932 -3.00707e-05 0)
(0.99934 -2.88281e-05 0)
(0.999359 -2.76447e-05 0)
(0.999377 -2.65177e-05 0)
(0.999394 -2.54445e-05 0)
(0.999411 -2.44225e-05 0)
(0.999426 -2.34494e-05 0)
(0.999442 -2.2523e-05 0)
(0.999456 -2.16411e-05 0)
(0.999471 -2.08018e-05 0)
(0.999484 -2.00031e-05 0)
(0.999497 -1.92433e-05 0)
(0.99951 -1.85207e-05 0)
(0.999522 -1.78336e-05 0)
(0.999533 -1.71805e-05 0)
(0.999545 -1.65599e-05 0)
(0.999556 -1.59704e-05 0)
(0.999566 -1.54107e-05 0)
(0.999576 -1.48794e-05 0)
(0.999586 -1.43753e-05 0)
(0.999595 -1.38971e-05 0)
(0.999604 -1.34438e-05 0)
(0.999613 -1.30141e-05 0)
(0.999622 -1.26071e-05 0)
(0.99963 -1.22216e-05 0)
(0.999638 -1.18566e-05 0)
(0.999646 -1.15111e-05 0)
(0.999653 -1.11842e-05 0)
(0.999661 -1.08749e-05 0)
(0.999668 -1.05823e-05 0)
(0.999675 -1.03055e-05 0)
(0.999681 -1.00437e-05 0)
(0.999688 -9.79606e-06 0)
(0.999694 -9.56169e-06 0)
(0.999701 -9.33983e-06 0)
(0.999707 -9.12973e-06 0)
(0.999713 -8.93062e-06 0)
(0.999719 -8.7418e-06 0)
(0.999725 -8.56254e-06 0)
(0.99973 -8.39218e-06 0)
(0.999736 -8.23004e-06 0)
(0.999741 -8.07549e-06 0)
(0.999746 -7.92791e-06 0)
(0.999752 -7.78671e-06 0)
(0.999757 -7.6513e-06 0)
(0.999762 -7.52113e-06 0)
(0.999767 -7.39567e-06 0)
(0.999772 -7.2744e-06 0)
(0.999777 -7.15683e-06 0)
(0.999781 -7.04249e-06 0)
(0.999786 -6.93092e-06 0)
(0.999791 -6.82169e-06 0)
(0.999795 -6.71441e-06 0)
(0.999799 -6.60868e-06 0)
(0.999804 -6.50415e-06 0)
(0.999808 -6.40049e-06 0)
(0.999812 -6.29738e-06 0)
(0.999817 -6.19456e-06 0)
(0.999821 -6.09177e-06 0)
(0.999825 -5.9888e-06 0)
(0.999829 -5.88546e-06 0)
(0.999832 -5.7816e-06 0)
(0.999836 -5.6771e-06 0)
(0.99984 -5.57185e-06 0)
(0.999844 -5.4658e-06 0)
(0.999847 -5.3589e-06 0)
(0.999851 -5.25116e-06 0)
(0.999854 -5.14258e-06 0)
(0.999858 -5.0332e-06 0)
(0.999861 -4.92311e-06 0)
(0.999864 -4.81239e-06 0)
(0.999867 -4.70117e-06 0)
(0.999871 -4.58961e-06 0)
(0.999874 -4.4779e-06 0)
(0.999877 -4.36626e-06 0)
(0.999879 -4.25496e-06 0)
(0.999882 -4.14428e-06 0)
(0.999885 -4.03456e-06 0)
(0.999888 -3.92614e-06 0)
(0.99989 -3.81939e-06 0)
(0.999893 -3.71466e-06 0)
(0.999895 -3.61228e-06 0)
(0.999898 -3.51254e-06 0)
(0.9999 -3.41567e-06 0)
(0.999902 -3.32178e-06 0)
(0.999904 -3.2309e-06 0)
(0.999906 -3.14293e-06 0)
(0.999908 -3.05766e-06 0)
(0.99991 -2.97475e-06 0)
(0.999912 -2.89384e-06 0)
(0.999914 -2.81449e-06 0)
(0.999916 -2.73633e-06 0)
(0.999918 -2.65904e-06 0)
(0.99992 -2.58245e-06 0)
(0.999921 -2.50655e-06 0)
(0.999923 -2.43153e-06 0)
(0.999925 -2.35775e-06 0)
(0.999926 -2.28572e-06 0)
(0.999928 -2.21604e-06 0)
(0.999929 -2.14936e-06 0)
(0.999931 -2.08627e-06 0)
(0.999932 -2.02728e-06 0)
(0.999933 -1.97272e-06 0)
(0.999935 -1.92275e-06 0)
(0.999936 -1.87731e-06 0)
(0.999937 -1.83618e-06 0)
(0.999938 -1.79897e-06 0)
(0.999939 -1.76517e-06 0)
(0.999941 -1.73418e-06 0)
(0.999942 -1.70539e-06 0)
(0.999943 -1.67818e-06 0)
(0.999944 -1.65198e-06 0)
(0.999945 -1.62628e-06 0)
(0.999946 -1.60064e-06 0)
(0.999947 -1.57473e-06 0)
(0.999948 -1.54829e-06 0)
(0.999949 -1.52115e-06 0)
(0.99995 -1.49322e-06 0)
(0.999951 -1.46447e-06 0)
(0.999952 -1.43493e-06 0)
(0.999953 -1.40466e-06 0)
(0.999954 -1.37378e-06 0)
(0.999955 -1.34239e-06 0)
(0.999956 -1.31065e-06 0)
(0.999957 -1.27868e-06 0)
(0.999958 -1.24663e-06 0)
(0.999958 -1.21464e-06 0)
(0.999959 -1.18284e-06 0)
(0.99996 -1.15134e-06 0)
(0.999961 -1.12024e-06 0)
(0.999961 -1.08964e-06 0)
(0.999962 -1.05962e-06 0)
(0.999963 -1.03025e-06 0)
(0.999964 -1.00157e-06 0)
(0.999964 -9.73632e-07 0)
(0.999965 -9.4647e-07 0)
(0.999965 -9.20104e-07 0)
(0.999966 -8.9455e-07 0)
(0.999967 -8.69816e-07 0)
(0.999967 -8.45902e-07 0)
(0.999968 -8.22804e-07 0)
(0.999968 -8.00513e-07 0)
(0.999969 -7.79016e-07 0)
(0.999969 -7.58297e-07 0)
(0.99997 -7.38338e-07 0)
(0.99997 -7.19119e-07 0)
(0.999971 -7.00616e-07 0)
(0.999971 -6.82808e-07 0)
(0.999972 -6.65669e-07 0)
(0.999972 -6.49177e-07 0)
(0.999973 -6.33305e-07 0)
(0.999973 -6.18031e-07 0)
(0.999973 -6.03329e-07 0)
(0.999974 -5.89176e-07 0)
(0.999974 -5.75548e-07 0)
(0.999975 -5.62423e-07 0)
(0.999975 -5.49777e-07 0)
(0.999975 -5.37591e-07 0)
(0.999976 -5.25841e-07 0)
(0.999976 -5.1451e-07 0)
(0.999976 -5.03577e-07 0)
(0.999977 -4.93023e-07 0)
(0.999977 -4.82831e-07 0)
(0.999977 -4.72985e-07 0)
(0.999978 -4.63467e-07 0)
(0.999978 -4.54262e-07 0)
(0.999978 -4.45356e-07 0)
(0.999979 -4.36734e-07 0)
(0.999979 -4.28382e-07 0)
(0.999979 -4.20289e-07 0)
(0.999979 -4.12442e-07 0)
(0.99998 -4.0483e-07 0)
(0.99998 -3.97441e-07 0)
(0.99998 -3.90264e-07 0)
(0.99998 -3.83292e-07 0)
(0.999981 -3.76513e-07 0)
(0.999981 -3.69919e-07 0)
(0.999981 -3.63502e-07 0)
(0.999981 -3.57253e-07 0)
(0.999982 -3.51166e-07 0)
(0.999982 -3.45232e-07 0)
(0.999982 -3.39446e-07 0)
(0.999982 -3.338e-07 0)
(0.999983 -3.28289e-07 0)
(0.999983 -3.22907e-07 0)
(0.999983 -3.17648e-07 0)
(0.999983 -3.12507e-07 0)
(0.999983 -3.0748e-07 0)
(0.999984 -3.02561e-07 0)
(0.999984 -2.97746e-07 0)
(0.999984 -2.93031e-07 0)
(0.999984 -2.88412e-07 0)
(0.999984 -2.83886e-07 0)
(0.999985 -2.79448e-07 0)
(0.999985 -2.75095e-07 0)
(0.999985 -2.70824e-07 0)
(0.999985 -2.66633e-07 0)
(0.999985 -2.62517e-07 0)
(0.999985 -2.58475e-07 0)
(0.999986 -2.54503e-07 0)
(0.999986 -2.506e-07 0)
(0.999986 -2.46762e-07 0)
(0.999986 -2.42989e-07 0)
(0.999986 -2.39276e-07 0)
(0.999986 -2.35623e-07 0)
(0.999987 -2.32028e-07 0)
(0.999987 -2.28488e-07 0)
(0.999987 -2.25002e-07 0)
(0.999987 -2.21568e-07 0)
(0.999987 -2.18185e-07 0)
(0.999987 -2.14851e-07 0)
(0.999988 -2.11565e-07 0)
(0.999988 -2.08325e-07 0)
(0.999988 -2.05129e-07 0)
(0.999988 -2.01977e-07 0)
(0.999988 -1.98868e-07 0)
(0.999988 -1.958e-07 0)
(0.999988 -1.92772e-07 0)
(0.999988 -1.89783e-07 0)
(0.999989 -1.86833e-07 0)
(0.999989 -1.83919e-07 0)
(0.999989 -1.81041e-07 0)
(0.999989 -1.78199e-07 0)
(0.999989 -1.7539e-07 0)
(0.999989 -1.72616e-07 0)
(0.999989 -1.69873e-07 0)
(0.999989 -1.67163e-07 0)
(0.99999 -1.64484e-07 0)
(0.99999 -1.61835e-07 0)
(0.99999 -1.59216e-07 0)
(0.99999 -1.56626e-07 0)
(0.99999 -1.54064e-07 0)
(0.99999 -1.5153e-07 0)
(0.99999 -1.49023e-07 0)
(0.99999 -1.46543e-07 0)
(0.99999 -1.44088e-07 0)
(0.99999 -1.41659e-07 0)
(0.999991 -1.39255e-07 0)
(0.999991 -1.36875e-07 0)
(0.999991 -1.34518e-07 0)
(0.999991 -1.32185e-07 0)
(0.999991 -1.29875e-07 0)
(0.999991 -1.27586e-07 0)
(0.999991 -1.2532e-07 0)
(0.999991 -1.23075e-07 0)
(0.999991 -1.20851e-07 0)
(0.999991 -1.18647e-07 0)
(0.999991 -1.16463e-07 0)
(0.999991 -1.14299e-07 0)
(0.999992 -1.12154e-07 0)
(0.999992 -1.10028e-07 0)
(0.999992 -1.0792e-07 0)
(0.999992 -1.0583e-07 0)
(0.999992 -1.03758e-07 0)
(0.999992 -1.01703e-07 0)
(0.999992 -9.96649e-08 0)
(0.999992 -9.76432e-08 0)
(0.999992 -9.56377e-08 0)
(0.999992 -9.36479e-08 0)
(0.999992 -9.16736e-08 0)
(0.999992 -8.97143e-08 0)
(0.999992 -8.77697e-08 0)
(0.999992 -8.58396e-08 0)
(0.999992 -8.39235e-08 0)
(0.999993 -8.20212e-08 0)
(0.999993 -8.01324e-08 0)
(0.999993 -7.82567e-08 0)
(0.999993 -7.63938e-08 0)
(0.999993 -7.45433e-08 0)
(0.999993 -7.27051e-08 0)
(0.999993 -7.08787e-08 0)
(0.999993 -6.90639e-08 0)
(0.999993 -6.72603e-08 0)
(0.999993 -6.54677e-08 0)
(0.999993 -6.36858e-08 0)
(0.999993 -6.19144e-08 0)
(0.999993 -6.0153e-08 0)
(0.999993 -5.84016e-08 0)
(0.999993 -5.66597e-08 0)
(0.999993 -5.49271e-08 0)
(0.999993 -5.32035e-08 0)
(0.999993 -5.14887e-08 0)
(0.999993 -4.97823e-08 0)
(0.999993 -4.80842e-08 0)
(0.999993 -4.63938e-08 0)
(0.999993 -4.4712e-08 0)
(0.999993 -4.30338e-08 0)
(0.999993 -4.13793e-08 0)
(0.999993 -3.96616e-08 0)
(0.999993 -3.82474e-08 0)
(0.999994 -3.55824e-08 0)
(-0.00647146 0.0221894 0)
(-0.0113568 -0.0532438 0)
(0.032369 -0.0938948 0)
(0.0695842 -0.0973275 0)
(0.106037 -0.0863012 0)
(0.138658 -0.0744905 0)
(0.167206 -0.0669951 0)
(0.193241 -0.0639162 0)
(0.218422 -0.0635797 0)
(0.243806 -0.0643891 0)
(0.269744 -0.0653885 0)
(0.296169 -0.0661533 0)
(0.3229 -0.0665494 0)
(0.349763 -0.0665673 0)
(0.376599 -0.0662354 0)
(0.403254 -0.065582 0)
(0.429581 -0.0646294 0)
(0.45545 -0.0634 0)
(0.480745 -0.0619227 0)
(0.50537 -0.0602337 0)
(0.529246 -0.0583739 0)
(0.552312 -0.0563848 0)
(0.574527 -0.0543056 0)
(0.595869 -0.0521715 0)
(0.616324 -0.0500122 0)
(0.635893 -0.0478526 0)
(0.654583 -0.0457125 0)
(0.67241 -0.0436077 0)
(0.689393 -0.0415504 0)
(0.705556 -0.0395498 0)
(0.720925 -0.0376127 0)
(0.735529 -0.0357439 0)
(0.749397 -0.0339464 0)
(0.762559 -0.0322218 0)
(0.775046 -0.0305708 0)
(0.786887 -0.0289932 0)
(0.798113 -0.027488 0)
(0.808753 -0.0260539 0)
(0.818834 -0.0246889 0)
(0.828385 -0.023391 0)
(0.837432 -0.0221579 0)
(0.846001 -0.0209871 0)
(0.854116 -0.0198761 0)
(0.861801 -0.0188224 0)
(0.869077 -0.0178233 0)
(0.875967 -0.0168764 0)
(0.88249 -0.0159793 0)
(0.888666 -0.0151294 0)
(0.894514 -0.0143245 0)
(0.90005 -0.0135623 0)
(0.905292 -0.0128407 0)
(0.910255 -0.0121575 0)
(0.914953 -0.0115108 0)
(0.919402 -0.0108986 0)
(0.923614 -0.0103193 0)
(0.927602 -0.00977098 0)
(0.931379 -0.00925206 0)
(0.934955 -0.00876097 0)
(0.938341 -0.00829624 0)
(0.941547 -0.00785644 0)
(0.944584 -0.00744024 0)
(0.94746 -0.00704638 0)
(0.950184 -0.00667364 0)
(0.952763 -0.00632088 0)
(0.955207 -0.00598703 0)
(0.957521 -0.00567106 0)
(0.959713 -0.005372 0)
(0.96179 -0.00508894 0)
(0.963758 -0.00482101 0)
(0.965622 -0.00456738 0)
(0.967387 -0.00432729 0)
(0.969061 -0.00409999 0)
(0.970646 -0.00388478 0)
(0.972148 -0.00368101 0)
(0.973571 -0.00348804 0)
(0.97492 -0.00330528 0)
(0.976198 -0.00313216 0)
(0.97741 -0.00296815 0)
(0.978557 -0.00281275 0)
(0.979645 -0.00266549 0)
(0.980676 -0.00252592 0)
(0.981653 -0.00239362 0)
(0.982579 -0.00226821 0)
(0.983456 -0.00214933 0)
(0.984287 -0.00203662 0)
(0.985075 -0.00192977 0)
(0.985821 -0.00182848 0)
(0.986528 -0.00173246 0)
(0.987198 -0.00164146 0)
(0.987832 -0.00155521 0)
(0.988434 -0.00147348 0)
(0.989004 -0.00139603 0)
(0.989543 -0.00132267 0)
(0.990055 -0.00125317 0)
(0.990539 -0.00118734 0)
(0.990998 -0.00112499 0)
(0.991433 -0.00106595 0)
(0.991845 -0.00101005 0)
(0.992236 -0.000957133 0)
(0.992606 -0.000907042 0)
(0.992957 -0.000859636 0)
(0.993289 -0.000814779 0)
(0.993604 -0.000772343 0)
(0.993903 -0.000732206 0)
(0.994186 -0.000694249 0)
(0.994455 -0.000658362 0)
(0.994709 -0.000624438 0)
(0.994951 -0.000592375 0)
(0.99518 -0.000562073 0)
(0.995397 -0.000533439 0)
(0.995604 -0.000506382 0)
(0.9958 -0.000480814 0)
(0.995986 -0.000456651 0)
(0.996163 -0.000433813 0)
(0.996331 -0.000412223 0)
(0.99649 -0.000391807 0)
(0.996642 -0.000372495 0)
(0.996786 -0.000354222 0)
(0.996924 -0.000336925 0)
(0.997054 -0.000320545 0)
(0.997179 -0.000305027 0)
(0.997297 -0.000290319 0)
(0.997409 -0.000276372 0)
(0.997517 -0.000263142 0)
(0.997619 -0.000250588 0)
(0.997716 -0.000238669 0)
(0.997809 -0.000227351 0)
(0.997897 -0.0002166 0)
(0.997981 -0.000206385 0)
(0.998061 -0.000196677 0)
(0.998137 -0.00018745 0)
(0.99821 -0.000178677 0)
(0.99828 -0.000170337 0)
(0.998346 -0.000162407 0)
(0.998409 -0.000154866 0)
(0.998469 -0.000147695 0)
(0.998526 -0.000140876 0)
(0.998581 -0.000134391 0)
(0.998633 -0.000128224 0)
(0.998683 -0.00012236 0)
(0.998731 -0.000116783 0)
(0.998776 -0.000111479 0)
(0.998819 -0.000106435 0)
(0.998861 -0.000101639 0)
(0.9989 -9.70766e-05 0)
(0.998938 -9.27377e-05 0)
(0.998974 -8.86106e-05 0)
(0.999008 -8.46849e-05 0)
(0.999041 -8.09503e-05 0)
(0.999073 -7.73972e-05 0)
(0.999103 -7.40164e-05 0)
(0.999132 -7.07992e-05 0)
(0.999159 -6.77375e-05 0)
(0.999186 -6.48233e-05 0)
(0.999211 -6.20492e-05 0)
(0.999235 -5.94083e-05 0)
(0.999258 -5.68939e-05 0)
(0.99928 -5.44997e-05 0)
(0.999302 -5.22198e-05 0)
(0.999322 -5.00486e-05 0)
(0.999341 -4.79809e-05 0)
(0.99936 -4.60118e-05 0)
(0.999378 -4.41364e-05 0)
(0.999395 -4.23505e-05 0)
(0.999412 -4.06498e-05 0)
(0.999428 -3.90305e-05 0)
(0.999443 -3.74888e-05 0)
(0.999458 -3.60212e-05 0)
(0.999472 -3.46244e-05 0)
(0.999485 -3.32953e-05 0)
(0.999498 -3.20309e-05 0)
(0.999511 -3.08283e-05 0)
(0.999523 -2.96849e-05 0)
(0.999534 -2.8598e-05 0)
(0.999545 -2.75653e-05 0)
(0.999556 -2.65843e-05 0)
(0.999567 -2.56528e-05 0)
(0.999577 -2.47687e-05 0)
(0.999586 -2.39299e-05 0)
(0.999596 -2.31343e-05 0)
(0.999605 -2.238e-05 0)
(0.999614 -2.16651e-05 0)
(0.999622 -2.09879e-05 0)
(0.99963 -2.03465e-05 0)
(0.999638 -1.97393e-05 0)
(0.999646 -1.91646e-05 0)
(0.999654 -1.86207e-05 0)
(0.999661 -1.81063e-05 0)
(0.999668 -1.76196e-05 0)
(0.999675 -1.71593e-05 0)
(0.999682 -1.67239e-05 0)
(0.999688 -1.6312e-05 0)
(0.999695 -1.59222e-05 0)
(0.999701 -1.55533e-05 0)
(0.999707 -1.5204e-05 0)
(0.999713 -1.48729e-05 0)
(0.999719 -1.4559e-05 0)
(0.999725 -1.4261e-05 0)
(0.99973 -1.39778e-05 0)
(0.999736 -1.37083e-05 0)
(0.999741 -1.34514e-05 0)
(0.999747 -1.32061e-05 0)
(0.999752 -1.29714e-05 0)
(0.999757 -1.27463e-05 0)
(0.999762 -1.253e-05 0)
(0.999767 -1.23214e-05 0)
(0.999772 -1.21199e-05 0)
(0.999777 -1.19245e-05 0)
(0.999781 -1.17344e-05 0)
(0.999786 -1.15489e-05 0)
(0.999791 -1.13673e-05 0)
(0.999795 -1.11889e-05 0)
(0.9998 -1.10131e-05 0)
(0.999804 -1.08393e-05 0)
(0.999808 -1.06668e-05 0)
(0.999812 -1.04953e-05 0)
(0.999817 -1.03242e-05 0)
(0.999821 -1.01531e-05 0)
(0.999825 -9.98173e-06 0)
(0.999829 -9.80967e-06 0)
(0.999833 -9.63671e-06 0)
(0.999836 -9.46263e-06 0)
(0.99984 -9.28729e-06 0)
(0.999844 -9.11058e-06 0)
(0.999847 -8.93243e-06 0)
(0.999851 -8.75284e-06 0)
(0.999854 -8.57182e-06 0)
(0.999858 -8.38946e-06 0)
(0.999861 -8.20586e-06 0)
(0.999864 -8.02119e-06 0)
(0.999868 -7.83565e-06 0)
(0.999871 -7.6495e-06 0)
(0.999874 -7.46306e-06 0)
(0.999877 -7.27671e-06 0)
(0.99988 -7.09088e-06 0)
(0.999882 -6.90606e-06 0)
(0.999885 -6.72281e-06 0)
(0.999888 -6.54173e-06 0)
(0.99989 -6.36342e-06 0)
(0.999893 -6.18851e-06 0)
(0.999895 -6.01757e-06 0)
(0.999898 -5.85111e-06 0)
(0.9999 -5.68952e-06 0)