/*--------------------------------*- C++ -*----------------------------------*\
| =========                 |                                                 |
| \\      /  F ield         | OpenFOAM: The Open Source CFD Toolbox           |
|  \\    /   O peration     | Version:  v2006                                 |
|   \\  /    A nd           | Website:  www.openfoam.com                      |
|    \\/     M anipulation  |                                                 |
\*---------------------------------------------------------------------------*/
FoamFile
{
    version     2.0;
    format      ascii;
    class       surfaceScalarField;
    location    "15.9";
    object      alphaPhi0.water;
}
// * * * * * * * * * * * * * * * * * * * * * * * * * * * * * * * * * * * * * //

dimensions      [0 3 -1 0 0 0 0];
oriented        oriented;


internalField   nonuniform List<scalar> 
104500
(
3.53938e-05
-3.53938e-05
7.8678e-05
-4.32842e-05
0.000120238
-4.15596e-05
0.000160349
-4.01116e-05
0.000200004
-3.96546e-05
0.000239491
-3.94877e-05
0.000278885
-3.9394e-05
0.000318194
-3.93084e-05
0.000357389
-3.91951e-05
0.000396435
-3.9046e-05
0.000435302
-3.8867e-05
0.000473969
-3.86671e-05
0.000512419
-3.845e-05
0.000550634
-3.82151e-05
0.000588596
-3.79623e-05
0.000626287
-3.76904e-05
0.000663685
-3.73982e-05
0.000700769
-3.70842e-05
0.000737515
-3.67457e-05
0.000773895
-3.638e-05
0.00080988
-3.59849e-05
0.000845439
-3.55591e-05
0.000880539
-3.51005e-05
0.000915151
-3.46118e-05
0.000949248
-3.40969e-05
0.000982807
-3.35595e-05
0.00101581
-3.30022e-05
0.00104823
-3.24253e-05
0.00108006
-3.18276e-05
0.00111127
-3.12078e-05
0.00114184
-3.05657e-05
0.00117174
-2.99014e-05
0.00120095
-2.92141e-05
0.00122945
-2.85022e-05
0.00125722
-2.77634e-05
0.00128421
-2.69951e-05
0.00131041
-2.61957e-05
0.00133577
-2.53656e-05
0.00136028
-2.45081e-05
0.00138391
-2.36278e-05
0.00140663
-2.27256e-05
0.00142843
-2.17962e-05
0.00144926
-2.08301e-05
0.00146908
-1.98161e-05
0.00148782
-1.8741e-05
0.00150541
-1.75946e-05
0.00152179
-1.63772e-05
0.00153689
-1.51044e-05
0.0015507
-1.38102e-05
0.00156325
-1.25451e-05
0.00157461
-1.13654e-05
0.00158494
-1.03203e-05
0.00159438
-9.44264e-06
0.00160312
-8.74255e-06
0.00161133
-8.20622e-06
0.00161913
-7.80259e-06
0.00162662
-7.49387e-06
0.00163387
-7.24468e-06
0.0016409
-7.02794e-06
0.00164772
-6.82588e-06
0.00165435
-6.6279e-06
0.00166078
-6.43012e-06
0.00166702
-6.23573e-06
0.00167307
-6.05266e-06
0.00167896
-5.88921e-06
0.00168471
-5.75058e-06
0.00169035
-5.63768e-06
0.00169589
-5.54785e-06
0.00170137
-5.47621e-06
0.00170679
-5.4171e-06
0.00171215
-5.36518e-06
0.00171747
-5.31606e-06
0.00172273
-5.26664e-06
0.00172795
-5.21564e-06
0.00173311
-5.16316e-06
0.00173822
-5.10917e-06
0.00174328
-5.05296e-06
0.00174827
-4.99319e-06
0.0017532
-4.92734e-06
0.00175805
-4.8518e-06
0.00176281
-4.76297e-06
0.00176747
-4.65757e-06
0.001772
-4.53238e-06
0.00177639
-4.38487e-06
0.0017806
-4.21402e-06
0.00178462
-4.02018e-06
0.00178842
-3.8044e-06
0.00179199
-3.56814e-06
0.00179531
-3.31313e-06
0.00179835
-3.04147e-06
0.0018011
-2.75559e-06
0.00180356
-2.45799e-06
0.00180571
-2.15104e-06
0.00180755
-1.83732e-06
0.00180907
-1.52013e-06
0.00181027
-1.20344e-06
0.00181116
-8.91255e-07
0.00181175
-5.86222e-07
0.00181204
-2.87897e-07
0.00181203
9.77704e-09
0.00181172
3.06002e-07
0.00181111
6.08677e-07
0.00181019
9.24297e-07
0.00180893
1.26049e-06
0.00180731
1.62073e-06
0.0018053
2.00317e-06
0.0018029
2.40112e-06
0.0018001
2.80453e-06
0.00179689
3.20444e-06
0.0017933
3.59229e-06
0.00178934
3.96339e-06
0.00178502
4.31593e-06
0.00178037
4.64877e-06
0.00177541
4.96201e-06
0.00177016
5.25694e-06
0.00176462
5.53354e-06
0.00175883
5.79174e-06
0.0017528
6.03288e-06
0.00174654
6.2574e-06
0.00174007
6.46466e-06
0.00173342
6.65587e-06
0.00172659
6.83188e-06
0.00171959
6.9929e-06
0.00171245
7.13963e-06
0.00170518
7.27237e-06
0.00169779
7.39036e-06
0.0016903
7.49636e-06
0.00168271
7.5891e-06
0.00167504
7.67102e-06
0.0016673
7.73999e-06
0.0016595
7.79857e-06
0.00165165
7.84638e-06
0.00164377
7.88351e-06
0.00163586
7.90828e-06
0.00162794
7.91971e-06
0.00162002
7.915e-06
0.00161213
7.89259e-06
0.00160428
7.84899e-06
0.0015965
7.77845e-06
0.00158882
7.67976e-06
0.00158127
7.55063e-06
0.00157388
7.39229e-06
0.00156667
7.20999e-06
0.00155966
7.0125e-06
0.00155285
6.8133e-06
0.00154622
6.62759e-06
0.00153975
6.47144e-06
0.00153339
6.35865e-06
0.00152709
6.29945e-06
0.00152079
6.29947e-06
0.00151443
6.35788e-06
0.00150796
6.46964e-06
0.00150134
6.62503e-06
0.00149452
6.8202e-06
0.00148746
7.05291e-06
0.00148014
7.32629e-06
0.00147249
7.6498e-06
0.00146445
8.04032e-06
0.00145593
8.5146e-06
0.00144685
9.08577e-06
0.00143709
9.75673e-06
0.00142658
1.05128e-05
0.00141526
1.13189e-05
0.00140314
1.21209e-05
0.00139029
1.2852e-05
0.00137684
1.34412e-05
0.00136303
1.38108e-05
0.00134912
1.3914e-05
0.00133534
1.3779e-05
0.00132198
1.33619e-05
0.00130932
1.2656e-05
0.00129764
1.16811e-05
0.00128716
1.04783e-05
0.00127805
9.11309e-06
0.00127039
7.65768e-06
0.00126421
6.18123e-06
0.00125946
4.75018e-06
0.00125604
3.41782e-06
0.00125382
2.21886e-06
0.00125266
1.16658e-06
0.0012524
2.58306e-07
0.00125301
-6.07995e-07
0.00125439
-1.37881e-06
0.00125648
-2.09132e-06
0.00125926
-2.77926e-06
0.00126273
-3.47073e-06
0.00126691
-4.18571e-06
0.00127185
-4.93672e-06
0.00127758
-5.73008e-06
0.00128415
-6.56726e-06
0.00129159
-7.44614e-06
0.00129996
-8.36187e-06
0.00130926
-9.30718e-06
0.00131953
-1.02723e-05
0.00133078
-1.12444e-05
0.00134299
-1.22081e-05
0.00135613
-1.31452e-05
0.00137017
-1.4036e-05
0.00138503
-1.48613e-05
0.00140063
-1.56043e-05
0.00141689
-1.62527e-05
0.00143369
-1.67996e-05
0.00145093
-1.72441e-05
0.00146852
-1.7591e-05
0.00148637
-1.78493e-05
0.0015044
-1.8032e-05
0.00152256
-1.81547e-05
0.00154079
-1.82353e-05
0.00155909
-1.82925e-05
0.00157743
-1.83448e-05
0.00159584
-1.84083e-05
0.00161433
-1.84953e-05
0.00163295
-1.86123e-05
0.00165171
-1.87598e-05
0.00167064
-1.8933e-05
0.00168976
-1.91224e-05
0.00170908
-1.93169e-05
0.00172858
-1.95048e-05
0.00174826
-1.96765e-05
0.00176808
-1.98245e-05
0.00178803
-1.99442e-05
0.00180806
-2.00335e-05
0.00182815
-2.00922e-05
0.00184827
-2.0121e-05
0.0018684
-2.01211e-05
0.00188849
-2.00934e-05
0.00190853
-2.00388e-05
0.00192848
-1.99573e-05
0.00194833
-1.9849e-05
0.00196805
-1.97137e-05
0.0019876
-1.95513e-05
0.00200696
-1.93618e-05
0.00202611
-1.91453e-05
0.00204501
-1.89019e-05
0.00206364
-1.8632e-05
0.00208198
-1.83357e-05
0.00209999
-1.80132e-05
0.00211765
-1.76647e-05
0.00213494
-1.72904e-05
0.00215183
-1.68902e-05
0.0021683
-1.6464e-05
0.00218431
-1.60113e-05
0.00219984
-1.55318e-05
0.00221487
-1.50248e-05
0.00222936
-1.44896e-05
0.00224328
-1.3925e-05
0.00225661
-1.33298e-05
0.00226931
-1.27019e-05
0.00228135
-1.2039e-05
0.00229269
-1.1338e-05
0.00230328
-1.05948e-05
0.00231309
-9.80446e-06
0.00232205
-8.96012e-06
0.0023301
-8.05328e-06
0.00233718
-7.07365e-06
0.00234319
-6.00943e-06
0.00234803
-4.84792e-06
0.00235161
-3.57598e-06
0.0023538
-2.18592e-06
0.00235447
-6.78565e-07
0.00235342
1.05018e-06
0.00235049
2.93267e-06
0.0023458
4.68738e-06
0.00233952
6.28414e-06
0.00233172
7.80012e-06
0.0023224
9.31499e-06
0.00231154
1.08655e-05
0.00229907
1.24726e-05
0.00228491
1.41557e-05
0.00226898
1.59306e-05
0.00225117
1.78098e-05
0.00223137
1.97989e-05
0.00220948
2.18943e-05
0.00218539
2.40821e-05
0.00215906
2.63382e-05
0.00213043
2.86298e-05
0.00209951
3.09163e-05
0.00206636
3.31499e-05
0.00203108
3.52766e-05
0.00199385
3.72372e-05
0.00195487
3.89726e-05
0.00191444
4.04338e-05
0.00187285
4.15925e-05
0.00183041
4.24396e-05
0.00178742
4.29867e-05
0.00174417
4.32469e-05
0.00170118
4.29952e-05
0.00165932
4.186e-05
0.00161984
3.94774e-05
0.0015841
3.57429e-05
0.00155311
3.0989e-05
0.00152718
2.59343e-05
0.00150576
2.14191e-05
0.00148766
1.80953e-05
0.00147142
1.62418e-05
0.00145565
1.57654e-05
0.00143934
1.63095e-05
0.00142199
1.73596e-05
0.00140346
1.85251e-05
0.0013839
1.9561e-05
0.00136355
2.03462e-05
0.00134269
2.08665e-05
0.00132151
2.11746e-05
0.00130016
2.13526e-05
0.00127868
2.14828e-05
0.00125704
2.16319e-05
0.00123521
2.18394e-05
0.00121309
2.21201e-05
0.00119062
2.24688e-05
0.00116775
2.2867e-05
0.00114446
2.32907e-05
0.00112074
2.3718e-05
0.00109661
2.41341e-05
0.00107207
2.45339e-05
0.00104715
2.49211e-05
0.00102185
2.53042e-05
0.000996156
2.56914e-05
0.000970068
2.60881e-05
0.000943573
2.64952e-05
0.000916661
2.69111e-05
0.000889329
2.73326e-05
0.000861572
2.77568e-05
0.000833391
2.81812e-05
0.000804787
2.86036e-05
0.000775765
2.90222e-05
0.00074633
2.9435e-05
0.00071649
2.98397e-05
0.000686257
3.02334e-05
0.000655644
3.06131e-05
0.000624669
3.09747e-05
0.000593357
3.13127e-05
0.000561736
3.162e-05
0.000529849
3.18878e-05
0.000497742
3.21062e-05
0.000465477
3.22657e-05
0.000433118
3.23583e-05
0.00040074
3.23782e-05
0.000368417
3.23231e-05
0.000336222
3.21955e-05
0.000304217
3.20046e-05
0.000272453
3.17641e-05
0.000240965
3.14877e-05
0.000209786
3.11797e-05
0.000178962
3.08236e-05
0.000148586
3.03761e-05
0.000118805
2.97807e-05
8.97352e-05
2.90699e-05
6.15248e-05
2.82105e-05
3.38456e-05
2.76791e-05
3.38456e-05
1.70273e-05
-5.24211e-05
3.67817e-05
-6.30386e-05
5.35738e-05
-5.83516e-05
6.96417e-05
-5.61796e-05
8.59629e-05
-5.59757e-05
0.000102405
-5.59297e-05
0.000118812
-5.58014e-05
0.00013517
-5.56665e-05
0.000151525
-5.55492e-05
0.000167919
-5.54404e-05
0.000184386
-5.53343e-05
0.000200948
-5.52294e-05
0.000217623
-5.51244e-05
0.000234427
-5.50196e-05
0.000251377
-5.4912e-05
0.000268492
-5.48054e-05
0.000285788
-5.46935e-05
0.000303279
-5.45757e-05
0.000320985
-5.44518e-05
0.000338918
-5.43127e-05
0.000357092
-5.41593e-05
0.000375513
-5.39798e-05
0.000394183
-5.37708e-05
0.000413103
-5.35314e-05
0.000432262
-5.32553e-05
0.000451641
-5.29386e-05
0.000471215
-5.25765e-05
0.000490954
-5.21641e-05
0.000510821
-5.16951e-05
0.000530782
-5.1168e-05
0.000550799
-5.05834e-05
0.000570841
-4.99427e-05
0.000590874
-4.92479e-05
0.000610873
-4.85009e-05
0.000630812
-4.77026e-05
0.000650672
-4.68543e-05
0.000670434
-4.59585e-05
0.000690088
-4.50195e-05
0.000709624
-4.40434e-05
0.000729032
-4.30362e-05
0.000748307
-4.20005e-05
0.000767444
-4.09326e-05
0.000786436
-3.9823e-05
0.000805279
-3.86588e-05
0.000823967
-3.74286e-05
0.000842498
-3.61262e-05
0.000860878
-3.47567e-05
0.000879113
-3.33392e-05
0.000897207
-3.19049e-05
0.000915157
-3.04944e-05
0.000932941
-2.915e-05
0.000950531
-2.79101e-05
0.000967892
-2.68041e-05
0.000984998
-2.58481e-05
0.00100183
-2.50414e-05
0.0010184
-2.43676e-05
0.0010347
-2.37996e-05
0.00105077
-2.33076e-05
0.0010666
-2.28652e-05
0.00108223
-2.24516e-05
0.00109765
-2.20493e-05
0.00111287
-2.16447e-05
0.00112786
-2.12307e-05
0.00114262
-2.08072e-05
0.0011571
-2.0378e-05
0.0011713
-1.99477e-05
0.00118518
-1.95197e-05
0.00119873
-1.90954e-05
0.00121193
-1.86745e-05
0.00122477
-1.82548e-05
0.00123723
-1.7833e-05
0.00124932
-1.74048e-05
0.00126102
-1.69659e-05
0.00127232
-1.65129e-05
0.0012832
-1.60432e-05
0.00129365
-1.55555e-05
0.00130364
-1.50492e-05
0.00131317
-1.45242e-05
0.00132223
-1.39811e-05
0.0013308
-1.342e-05
0.00133887
-1.28408e-05
0.00134646
-1.22438e-05
0.00135356
-1.16292e-05
0.00136017
-1.0997e-05
0.0013663
-1.03471e-05
0.00137196
-9.68042e-06
0.00137716
-8.99797e-06
0.00138189
-8.30125e-06
0.00138617
-7.59164e-06
0.00139
-6.87091e-06
0.00139338
-6.14147e-06
0.00139633
-5.40669e-06
0.00139885
-4.67015e-06
0.00140095
-3.93528e-06
0.00140263
-3.2058e-06
0.00140392
-2.48549e-06
0.0014048
-1.778e-06
0.0014053
-1.08596e-06
0.00140542
-4.09387e-07
0.00140517
2.59055e-07
0.00140458
9.05215e-07
0.00140363
1.55177e-06
0.00140235
2.204e-06
0.00140075
2.86227e-06
0.00139884
3.52974e-06
0.00139664
4.20411e-06
0.00139416
4.88259e-06
0.0013914
5.56035e-06
0.00138838
6.23068e-06
0.00138508
6.8887e-06
0.00138151
7.52935e-06
0.00137768
8.14847e-06
0.00137359
8.74304e-06
0.00136924
9.31092e-06
0.00136465
9.8503e-06
0.00135982
1.03599e-05
0.00135477
1.08387e-05
0.00134952
1.12861e-05
0.00134408
1.17012e-05
0.00133846
1.20836e-05
0.00133268
1.2433e-05
0.00132676
1.27492e-05
0.00132072
1.30319e-05
0.00131458
1.32809e-05
0.00130836
1.34965e-05
0.00130207
1.3678e-05
0.00129574
1.38256e-05
0.00128939
1.39388e-05
0.00128304
1.40173e-05
0.00127672
1.40607e-05
0.00127045
1.40684e-05
0.00126426
1.40394e-05
0.00125817
1.3973e-05
0.00125221
1.38682e-05
0.00124641
1.37249e-05
0.00124078
1.35424e-05
0.00123535
1.3321e-05
0.00123014
1.3062e-05
0.00122515
1.27672e-05
0.00122039
1.2438e-05
0.00121586
1.20822e-05
0.00121155
1.17005e-05
0.00120746
1.13021e-05
0.00120358
1.0894e-05
0.00119991
1.04839e-05
0.00119645
1.00822e-05
0.00119323
9.69289e-06
0.00119026
9.32467e-06
0.00118758
8.98084e-06
0.00118522
8.66218e-06
0.00118321
8.36778e-06
0.00118158
8.09598e-06
0.00118037
7.84321e-06
0.00117958
7.60584e-06
0.00117925
7.38184e-06
0.00117941
7.17105e-06
0.00118008
6.97749e-06
0.00118131
6.81035e-06
0.00118315
6.67379e-06
0.00118566
6.57335e-06
0.00118891
6.50821e-06
0.00119295
6.47169e-06
0.00119782
6.44804e-06
0.00120353
6.41313e-06
0.00121005
6.33694e-06
0.0012173
6.18555e-06
0.00122519
5.92635e-06
0.00123356
5.5441e-06
0.00124235
4.9875e-06
0.0012515
4.21335e-06
0.00126093
3.21858e-06
0.00127061
2.00792e-06
0.0012805
5.8106e-07
0.00129051
-8.90451e-07
0.00130061
-2.44586e-06
0.00131085
-4.05981e-06
0.00132127
-5.67069e-06
0.00133192
-7.23479e-06
0.00134287
-8.72587e-06
0.00135417
-1.01321e-05
0.00136588
-1.14506e-05
0.00137796
-1.26926e-05
0.00139045
-1.38704e-05
0.00140337
-1.50097e-05
0.00141672
-1.61309e-05
0.0014305
-1.72477e-05
0.00144468
-1.83686e-05
0.00145924
-1.94974e-05
0.00147415
-2.06346e-05
0.00148936
-2.17779e-05
0.00150484
-2.2923e-05
0.00152054
-2.40643e-05
0.00153643
-2.51946e-05
0.00155246
-2.63058e-05
0.0015686
-2.73888e-05
0.00158483
-2.84345e-05
0.00160112
-2.94341e-05
0.00161746
-3.03808e-05
0.00163387
-3.12701e-05
0.00165037
-3.21009e-05
0.00166699
-3.28752e-05
0.00168379
-3.35971e-05
0.00170082
-3.42721e-05
0.00171813
-3.4905e-05
0.00173578
-3.5499e-05
0.0017538
-3.60553e-05
0.00177222
-3.65726e-05
0.00179104
-3.70489e-05
0.00181022
-3.74818e-05
0.00182975
-3.78698e-05
0.00184955
-3.82128e-05
0.00186957
-3.85122e-05
0.00188973
-3.87708e-05
0.00190996
-3.8992e-05
0.00193021
-3.91793e-05
0.00195042
-3.93365e-05
0.00197057
-3.94662e-05
0.00199064
-3.95706e-05
0.00201061
-3.96505e-05
0.00203049
-3.97057e-05
0.00205028
-3.97345e-05
0.00206998
-3.97345e-05
0.00208959
-3.97022e-05
0.00210911
-3.96337e-05
0.00212851
-3.95249e-05
0.00214779
-3.93723e-05
0.00216692
-3.91725e-05
0.00218589
-3.89231e-05
0.00220466
-3.86223e-05
0.00222322
-3.82689e-05
0.00224153
-3.78623e-05
0.00225957
-3.74021e-05
0.00227731
-3.68884e-05
0.00229473
-3.63211e-05
0.0023118
-3.57005e-05
0.00232849
-3.50269e-05
0.00234478
-3.43006e-05
0.00236064
-3.35221e-05
0.00237604
-3.2692e-05
0.00239096
-3.18111e-05
0.00240537
-3.08801e-05
0.00241926
-2.98996e-05
0.0024326
-2.88706e-05
0.00244537
-2.77937e-05
0.00245755
-2.66698e-05
0.00246912
-2.54996e-05
0.00248008
-2.42837e-05
0.0024904
-2.30226e-05
0.00250008
-2.17168e-05
0.00250911
-2.03666e-05
0.00251748
-1.89724e-05
0.00252521
-1.7534e-05
0.0025323
-1.60515e-05
0.00253878
-1.4525e-05
0.00254466
-1.29553e-05
0.00254999
-1.13443e-05
0.00255484
-9.69476e-06
0.00255927
-8.01008e-06
0.00256338
-6.28989e-06
0.00256722
-4.52617e-06
0.00257097
-2.69071e-06
0.00257463
-7.34081e-07
0.00257811
1.21439e-06
0.00258124
3.14566e-06
0.00258388
5.16743e-06
0.00258594
7.24979e-06
0.00258741
9.4013e-06
0.00258824
1.16406e-05
0.00258841
1.39808e-05
0.00258791
1.64383e-05
0.00258668
1.90344e-05
0.00258469
2.17909e-05
0.00258186
2.47277e-05
0.00257808
2.78594e-05
0.00257322
3.11928e-05
0.00256713
3.47238e-05
0.00255961
3.84349e-05
0.00255047
4.2292e-05
0.0025395
4.62421e-05
0.00252653
5.02106e-05
0.0025114
5.41007e-05
0.00249404
5.77933e-05
0.00247449
6.11487e-05
0.00245288
6.40431e-05
0.00242952
6.63529e-05
0.00240483
6.79341e-05
0.00237924
6.85813e-05
0.00235307
6.80314e-05
0.00232653
6.60193e-05
0.00229987
6.2398e-05
0.00227358
5.7284e-05
0.00224837
5.11401e-05
0.00222507
4.47273e-05
0.00220424
3.89247e-05
0.002186
3.4483e-05
0.00216993
3.1826e-05
0.00215526
3.09875e-05
0.00214097
3.16481e-05
0.00212616
3.33284e-05
0.00211015
3.55709e-05
0.00209248
3.80242e-05
0.00207289
4.0455e-05
0.00205135
4.27166e-05
0.00202798
4.47207e-05
0.00200303
4.64277e-05
0.00197682
4.78495e-05
0.00194961
4.90462e-05
0.00192162
5.01092e-05
0.00189296
5.11334e-05
0.00186363
5.21915e-05
0.0018336
5.33192e-05
0.0018028
5.45157e-05
0.00177118
5.57559e-05
0.00173871
5.70068e-05
0.00170539
5.82405e-05
0.00167125
5.94407e-05
0.00163634
6.06027e-05
0.0016007
6.17309e-05
0.00156436
6.28347e-05
0.00152735
6.39258e-05
0.00148966
6.50165e-05
0.0014513
6.61185e-05
0.00141224
6.72409e-05
0.00137245
6.839e-05
0.00133191
6.95685e-05
0.00129057
7.07769e-05
0.00124839
7.20152e-05
0.00120534
7.32842e-05
0.00116137
7.45866e-05
0.00111641
7.59255e-05
0.00107042
7.73027e-05
0.00102333
7.87155e-05
0.000975062
8.01556e-05
0.00092556
8.16078e-05
0.000874775
8.3051e-05
0.000822674
8.44586e-05
0.000769253
8.58e-05
0.000714534
8.70418e-05
0.000658578
8.81515e-05
0.000601483
8.91001e-05
0.000543383
8.98637e-05
0.000484444
9.04261e-05
0.000424846
9.07777e-05
0.000364755
9.09144e-05
0.000304289
9.0843e-05
0.000243458
9.06114e-05
0.000182076
9.04519e-05
0.000120097
9.01899e-05
5.93303e-05
8.84453e-05
9.31759e-05
1.40203e-05
-6.64414e-05
3.30015e-05
-8.20198e-05
4.85173e-05
-7.38674e-05
6.24002e-05
-7.00626e-05
7.62372e-05
-6.98126e-05
9.03698e-05
-7.00623e-05
0.000104709
-7.0141e-05
0.000119238
-7.01949e-05
0.000133991
-7.03029e-05
0.000149013
-7.04621e-05
0.000164337
-7.06582e-05
0.000179993
-7.0885e-05
0.000196004
-7.11354e-05
0.000212397
-7.14127e-05
0.000229196
-7.17109e-05
0.000246414
-7.20238e-05
0.000264064
-7.23434e-05
0.000282157
-7.26684e-05
0.000300694
-7.29893e-05
0.000319679
-7.32974e-05
0.000339105
-7.35859e-05
0.000358963
-7.38371e-05
0.000379238
-7.40459e-05
0.000399906
-7.41994e-05
0.000420939
-7.42886e-05
0.000442302
-7.43012e-05
0.000463951
-7.42264e-05
0.000485844
-7.40568e-05
0.000507937
-7.37882e-05
0.000530189
-7.34194e-05
0.000552565
-7.29599e-05
0.000575037
-7.24148e-05
0.000597581
-7.17921e-05
0.000620178
-7.10976e-05
0.000642809
-7.03333e-05
0.000665455
-6.9501e-05
0.000688099
-6.86017e-05
0.000710717
-6.76377e-05
0.000733288
-6.66145e-05
0.000755791
-6.55397e-05
0.000778213
-6.44221e-05
0.000800549
-6.32689e-05
0.00082281
-6.2084e-05
0.000845018
-6.08668e-05
0.000867203
-5.96133e-05
0.000889396
-5.8319e-05
0.00091162
-5.6981e-05
0.000933885
-5.56042e-05
0.000956182
-5.42021e-05
0.000978483
-5.27954e-05
0.00100074
-5.14088e-05
0.0010229
-5.00668e-05
0.00104488
-4.87887e-05
0.00106662
-4.75862e-05
0.00108804
-4.64618e-05
0.00110908
-4.54091e-05
0.0011297
-4.44158e-05
0.00114986
-4.34673e-05
0.00116954
-4.25494e-05
0.00118874
-4.16495e-05
0.00120745
-4.07567e-05
0.00122567
-3.98616e-05
0.00124339
-3.89587e-05
0.00126063
-3.80474e-05
0.00127739
-3.71307e-05
0.00129365
-3.6213e-05
0.00130943
-3.5298e-05
0.00132472
-3.43874e-05
0.00133953
-3.34809e-05
0.00135385
-3.25761e-05
0.00136769
-3.16692e-05
0.00138104
-3.07554e-05
0.0013939
-2.983e-05
0.00140628
-2.88893e-05
0.00141817
-2.79309e-05
0.00142956
-2.69533e-05
0.00144047
-2.59562e-05
0.00145089
-2.49399e-05
0.00146081
-2.39055e-05
0.00147025
-2.28547e-05
0.00147919
-2.17885e-05
0.00148766
-2.07082e-05
0.00149564
-1.96144e-05
0.00150315
-1.85072e-05
0.00151019
-1.73868e-05
0.00151677
-1.62534e-05
0.00152288
-1.51077e-05
0.00152852
-1.39507e-05
0.00153372
-1.27835e-05
0.00153845
-1.16079e-05
0.00154274
-1.04255e-05
0.00154657
-9.23856e-06
0.00154995
-8.04952e-06
0.00155287
-6.8608e-06
0.00155534
-5.67483e-06
0.00155735
-4.494e-06
0.00155889
-3.32049e-06
0.00155996
-2.15588e-06
0.00156056
-1.0015e-06
0.00156069
1.24735e-07
0.00156033
1.26676e-06
0.00155949
2.3919e-06
0.00155819
3.50759e-06
0.00155643
4.61593e-06
0.00155425
5.71428e-06
0.00155165
6.80327e-06
0.00154865
7.87574e-06
0.00154529
8.92909e-06
0.00154156
9.95852e-06
0.00153749
1.09596e-05
0.00153309
1.1928e-05
0.00152837
1.28624e-05
0.00152336
1.37577e-05
0.00151806
1.46126e-05
0.00151248
1.54245e-05
0.00150665
1.6192e-05
0.00150058
1.69136e-05
0.00149428
1.75881e-05
0.00148776
1.82139e-05
0.00148105
1.87911e-05
0.00147417
1.93186e-05
0.00146712
1.97955e-05
0.00145993
2.02215e-05
0.00145262
2.0596e-05
0.0014452
2.09182e-05
0.00143769
2.11888e-05
0.0014301
2.14067e-05
0.00142247
2.15719e-05
0.0014148
2.16841e-05
0.00140712
2.17432e-05
0.00139944
2.17489e-05
0.00139178
2.17006e-05
0.00138415
2.16006e-05
0.00137657
2.14467e-05
0.00136905
2.12448e-05
0.0013616
2.09927e-05
0.00135423
2.06946e-05
0.00134694
2.03539e-05
0.00133973
1.99743e-05
0.00133261
1.95597e-05
0.00132558
1.91147e-05
0.00131863
1.86431e-05
0.00131179
1.81493e-05
0.00130504
1.76371e-05
0.00129842
1.71093e-05
0.00129194
1.65644e-05
0.00128562
1.60091e-05
0.0012795
1.54414e-05
0.00127362
1.48639e-05
0.00126801
1.42767e-05
0.00126269
1.36829e-05
0.00125771
1.30756e-05
0.00125309
1.24627e-05
0.00124885
1.18435e-05
0.00124502
1.12178e-05
0.00124161
1.05831e-05
0.00123864
9.94631e-06
0.00123614
9.31321e-06
0.00123414
8.66858e-06
0.0012327
8.01765e-06
0.00123185
7.35478e-06
0.00123165
6.67601e-06
0.00123212
5.97631e-06
0.00123329
5.24423e-06
0.00123516
4.46523e-06
0.00123772
3.62252e-06
0.00124095
2.69746e-06
0.00124482
1.67334e-06
0.00124929
5.20095e-07
0.00125422
-7.19652e-07
0.00125958
-2.14207e-06
0.00126526
-3.6734e-06
0.00127116
-5.3169e-06
0.00127731
-7.04282e-06
0.00128369
-8.82362e-06
0.00129027
-1.06348e-05
0.00129705
-1.24518e-05
0.00130407
-1.42577e-05
0.00131139
-1.60439e-05
0.00131906
-1.7805e-05
0.00132715
-1.95396e-05
0.00133571
-2.12503e-05
0.00134478
-2.29407e-05
0.00135438
-2.4616e-05
0.00136453
-2.628e-05
0.00137522
-2.79342e-05
0.00138643
-2.95788e-05
0.00139815
-3.1213e-05
0.00141035
-3.28348e-05
0.00142301
-3.44416e-05
0.00143612
-3.60294e-05
0.00144964
-3.75935e-05
0.00146358
-3.91282e-05
0.0014779
-4.06271e-05
0.00149259
-4.20831e-05
0.00150765
-4.34896e-05
0.00152306
-4.48404e-05
0.00153881
-4.61312e-05
0.0015549
-4.73603e-05
0.00157132
-4.85286e-05
0.00158809
-4.96395e-05
0.00160519
-5.06983e-05
0.00162263
-5.17101e-05
0.0016404
-5.26788e-05
0.00165851
-5.36054e-05
0.00167694
-5.44881e-05
0.00169569
-5.5322e-05
0.00171474
-5.61004e-05
0.00173408
-5.68158e-05
0.00175367
-5.7462e-05
0.00177349
-5.80343e-05
0.00179351
-5.85307e-05
0.00181369
-5.8952e-05
0.001834
-5.93013e-05
0.0018544
-5.95833e-05
0.00187487
-5.9804e-05
0.00189537
-5.99693e-05
0.00191589
-6.00845e-05
0.00193639
-6.01536e-05
0.00195686
-6.01786e-05
0.00197729
-6.01593e-05
0.00199765
-6.00937e-05
0.00201792
-5.99781e-05
0.0020381
-5.98079e-05
0.00205815
-5.95781e-05
0.00207806
-5.92841e-05
0.00209781
-5.89217e-05
0.00211738
-5.84877e-05
0.00213673
-5.79797e-05
0.00215586
-5.7396e-05
0.00217473
-5.67355e-05
0.00219333
-5.59974e-05
0.00221162
-5.51815e-05
0.00222959
-5.42874e-05
0.0022472
-5.33152e-05
0.00226444
-5.2265e-05
0.00228128
-5.11371e-05
0.00229769
-4.99319e-05
0.00231364
-4.865e-05
0.00232913
-4.72922e-05
0.00234411
-4.58595e-05
0.00235856
-4.43529e-05
0.00237246
-4.27736e-05
0.00238579
-4.11227e-05
0.00239852
-3.94016e-05
0.00241063
-3.76115e-05
0.0024221
-3.57541e-05
0.00243291
-3.38306e-05
0.00244304
-3.18429e-05
0.00245246
-2.97927e-05
0.00246117
-2.76818e-05
0.00246915
-2.55124e-05
0.00247639
-2.32867e-05
0.00248287
-2.10077e-05
0.00248859
-1.86784e-05
0.00249355
-1.63024e-05
0.00249774
-1.3884e-05
0.00250116
-1.14281e-05
0.00250381
-8.94207e-06
0.00250573
-6.44372e-06
0.002507
-3.96404e-06
0.00250779
-1.52304e-06
0.00250807
9.30325e-07
0.00250761
3.61223e-06
0.00250647
6.30379e-06
0.00250468
9.04026e-06
0.00250227
1.1814e-05
0.00249928
1.46256e-05
0.00249577
1.749e-05
0.00249179
2.0425e-05
0.00248738
2.34473e-05
0.00248259
2.6574e-05
0.0024775
2.98215e-05
0.00247215
3.32033e-05
0.00246662
3.6729e-05
0.00246094
4.04031e-05
0.00245515
4.42222e-05
0.00244927
4.81721e-05
0.00244329
5.22248e-05
0.00243717
5.63329e-05
0.00243084
6.04229e-05
0.00242424
6.43966e-05
0.00241725
6.81349e-05
0.00240979
7.15064e-05
0.00240177
7.43722e-05
0.00239312
7.65875e-05
0.00238371
7.79924e-05
0.00237334
7.84035e-05
0.00236172
7.76369e-05
0.00234853
7.55824e-05
0.0023335
7.23169e-05
0.00231645
6.8195e-05
0.00229734
6.38365e-05
0.00227628
5.99775e-05
0.00225353
5.7239e-05
0.00222942
5.59356e-05
0.00220437
5.6031e-05
0.00217879
5.723e-05
0.00215296
5.91575e-05
0.00212703
6.1505e-05
0.00210098
6.4075e-05
0.00207469
6.67482e-05
0.00204797
6.94279e-05
0.00202068
7.20105e-05
0.00199272
7.43947e-05
0.00196405
7.65149e-05
0.00193473
7.83673e-05
0.00190483
8.00126e-05
0.00187441
8.1552e-05
0.00184351
8.30917e-05
0.00181212
8.47111e-05
0.00178019
8.64452e-05
0.00174766
8.82854e-05
0.00171447
9.01918e-05
0.0016806
9.2112e-05
0.00164604
9.39978e-05
0.00161083
9.5817e-05
0.001575
9.75572e-05
0.00153861
9.92245e-05
0.0015017
0.000100837
0.0014643
0.000102419
0.00142642
0.000103995
0.00138808
0.000105585
0.00134927
0.000107204
0.00130997
0.000108866
0.00127017
0.000110578
0.00122983
0.000112349
0.00118893
0.000114191
0.0011474
0.000116115
0.00110519
0.000118137
0.00106222
0.000120272
0.0010184
0.000122531
0.000973635
0.000124922
0.0009278
0.000127443
0.000880766
0.000130085
0.000832397
0.000132827
0.000782563
0.000135634
0.000731144
0.000138461
0.000678045
0.00014125
0.000623205
0.00014394
0.000566601
0.000146467
0.00050826
0.000148767
0.000448257
0.000150781
0.000386714
0.000152457
0.000323789
0.000153768
0.000259639
0.000154761
0.000194518
0.000155572
0.000129184
0.000155525
6.52641e-05
0.000152365
0.00015844
1.71534e-05
-8.35948e-05
4.19306e-05
-0.000106797
6.32252e-05
-9.51619e-05
8.17968e-05
-8.86342e-05
9.99951e-05
-8.80109e-05
0.000118652
-8.87192e-05
0.000137689
-8.91775e-05
0.000156967
-8.94729e-05
0.000176468
-8.98048e-05
0.000196232
-9.02254e-05
0.000216284
-9.07104e-05
0.000236639
-9.12399e-05
0.00025731
-9.18067e-05
0.000278308
-9.2411e-05
0.000299643
-9.3045e-05
0.000321311
-9.36919e-05
0.000343314
-9.43467e-05
0.000365641
-9.49958e-05
0.000388279
-9.56273e-05
0.000411205
-9.62235e-05
0.000434393
-9.67735e-05
0.000457818
-9.72624e-05
0.000481452
-9.76792e-05
0.000505258
-9.80056e-05
0.000529202
-9.82323e-05
0.000553247
-9.8347e-05
0.00057736
-9.83394e-05
0.000601507
-9.82036e-05
0.000625657
-9.7938e-05
0.000649784
-9.75461e-05
0.000673859
-9.70356e-05
0.000697861
-9.64162e-05
0.000721767
-9.56981e-05
0.000745558
-9.48891e-05
0.00076922
-9.3995e-05
0.000792738
-9.30193e-05
0.000816101
-9.19647e-05
0.000839297
-9.08333e-05
0.00086231
-8.9627e-05
0.00088512
-8.83505e-05
0.000907708
-8.70099e-05
0.000930051
-8.5612e-05
0.000952133
-8.41656e-05
0.000973943
-8.26773e-05
0.000995484
-8.11539e-05
0.00101676
-7.95998e-05
0.0010378
-7.80197e-05
0.00105862
-7.6419e-05
0.00107922
-7.48049e-05
0.00109961
-7.31871e-05
0.00111978
-7.15767e-05
0.0011397
-6.99851e-05
0.00115933
-6.84221e-05
0.00117864
-6.68944e-05
0.00119758
-6.54048e-05
0.00121613
-6.39529e-05
0.00123425
-6.25354e-05
0.00125193
-6.11473e-05
0.00126916
-5.97825e-05
0.00128595
-5.84348e-05
0.00130229
-5.70981e-05
0.00131819
-5.57674e-05
0.00133367
-5.44396e-05
0.00134874
-5.31137e-05
0.0013634
-5.17896e-05
0.00137765
-5.04681e-05
0.0013915
-4.91493e-05
0.00140495
-4.7833e-05
0.00141799
-4.65181e-05
0.00143061
-4.52017e-05
0.00144283
-4.38811e-05
0.00145462
-4.25531e-05
0.00146601
-4.12145e-05
0.00147698
-3.98625e-05
0.00148754
-3.84949e-05
0.0014977
-3.71104e-05
0.00150745
-3.57086e-05
0.0015168
-3.42892e-05
0.00152575
-3.28526e-05
0.00153429
-3.13992e-05
0.00154244
-2.99294e-05
0.00155017
-2.84436e-05
0.0015575
-2.69418e-05
0.00156442
-2.54245e-05
0.00157092
-2.38918e-05
0.00157701
-2.23439e-05
0.00158269
-2.07814e-05
0.00158794
-1.92051e-05
0.00159277
-1.76163e-05
0.00159718
-1.60166e-05
0.00160116
-1.44079e-05
0.00160472
-1.27922e-05
0.00160784
-1.11716e-05
0.00161053
-9.54846e-06
0.00161278
-7.92504e-06
0.00161459
-6.30363e-06
0.00161595
-4.68652e-06
0.00161687
-3.07603e-06
0.00161735
-1.47446e-06
0.00161735
1.17091e-07
0.00161692
1.69812e-06
0.00161605
3.26591e-06
0.00161474
4.81792e-06
0.001613
6.35187e-06
0.00161085
7.8656e-06
0.0016083
9.35442e-06
0.00160536
1.08162e-05
0.00160204
1.22463e-05
0.00159836
1.36413e-05
0.00159432
1.49973e-05
0.00158994
1.63118e-05
0.00158522
1.75771e-05
0.00158019
1.87941e-05
0.00157484
1.99586e-05
0.0015692
2.1068e-05
0.00156327
2.21199e-05
0.00155707
2.31125e-05
0.00155061
2.40462e-05
0.00154391
2.49136e-05
0.00153698
2.57189e-05
0.00152984
2.64588e-05
0.00152251
2.71325e-05
0.00151499
2.77396e-05
0.0015073
2.82815e-05
0.00149947
2.87512e-05
0.0014915
2.91562e-05
0.00148342
2.94894e-05
0.00147524
2.97546e-05
0.00146697
2.99507e-05
0.00145864
3.00778e-05
0.00145025
3.01361e-05
0.00144182
3.01273e-05
0.00143337
3.00495e-05
0.00142491
2.99066e-05
0.00141646
2.97003e-05
0.00140802
2.9432e-05
0.00139961
2.91049e-05
0.00139124
2.8723e-05
0.00138292
2.82906e-05
0.00137467
2.78095e-05
0.00136651
2.72815e-05
0.00135844
2.67102e-05
0.00135049
2.60943e-05
0.00134269
2.54399e-05
0.00133505
2.47464e-05
0.0013276
2.40158e-05
0.00132036
2.32482e-05
0.00131336
2.24461e-05
0.00130661
2.16105e-05
0.00130015
2.07434e-05
0.00129398
1.98465e-05
0.00128814
1.89211e-05
0.00128263
1.79694e-05
0.00127748
1.6992e-05
0.00127271
1.59897e-05
0.00126833
1.49623e-05
0.00126437
1.39108e-05
0.00126084
1.28371e-05
0.00125777
1.17391e-05
0.00125517
1.06159e-05
0.00125306
9.46985e-06
0.00125144
8.29552e-06
0.00125033
7.08817e-06
0.00124974
5.83369e-06
0.00124967
4.5279e-06
0.00125014
3.15581e-06
0.00125113
1.70855e-06
0.0012526
2.04881e-07
0.00125462
-1.5049e-06
0.00125716
-3.25596e-06
0.00126012
-5.10248e-06
0.00126349
-7.04706e-06
0.00126726
-9.08346e-06
0.00127142
-1.11972e-05
0.00127596
-1.33718e-05
0.00128092
-1.55903e-05
0.0012863
-1.78349e-05
0.00129213
-2.00899e-05
0.00129843
-2.23431e-05
0.00130521
-2.45847e-05
0.00131248
-2.68086e-05
0.00132024
-2.90119e-05
0.0013285
-3.11943e-05
0.00133724
-3.33572e-05
0.00134646
-3.55026e-05
0.00135616
-3.76318e-05
0.00136633
-3.97455e-05
0.00137696
-4.18428e-05
0.00138804