/*--------------------------------*- C++ -*----------------------------------*\
| =========                 |                                                 |
| \\      /  F ield         | OpenFOAM: The Open Source CFD Toolbox           |
|  \\    /   O peration     | Version:  v2006                                 |
|   \\  /    A nd           | Website:  www.openfoam.com                      |
|    \\/     M anipulation  |                                                 |
\*---------------------------------------------------------------------------*/
FoamFile
{
    version     2.0;
    format      ascii;
    class       volScalarField;
    location    "0";
    object      shifted_f;
}
// * * * * * * * * * * * * * * * * * * * * * * * * * * * * * * * * * * * * * //

dimensions      [0 0 0 0 0 0 0];


internalField   nonuniform List<scalar> 
2500
(
-1.48073e-25
-6.86152e-33
-1.48073e-25
2.2211e-25
-1.37196e-32
-6.83678e-33
0
2.79491e-32
-1.47276e-25
2.92469e-32
0
3.17405e-48
0
-7.18026e-25
-1.1323e-24
0
-5.09989e-33
-8.44446e-25
-1.21058e-33
-1.59957e-49
1.84444e-23
0
1.02686e-33
-5.16237e-35
-4.71472e-34
-3.5223e-34
-1.76467e-22
6.18542e-35
6.43282e-35
3.62503e-36
0
6.33248e-24
-6.49398e-35
-4.89406e-35
-3.20655e-35
-1.89204e-35
-1.02599e-35
-5.17842e-36
0
0
-4.64829e-37
-1.87209e-37
0
-2.63368e-38
-9.26262e-39
-3.1475e-39
-2.01186e-29
-3.47753e-40
-1.18861e-40
-4.30127e-41
0
3.99275e-48
-7.54622e-33
-2.31736e-25
-1.40258e-24
9.24682e-25
0
9.47379e-25
0
6.76507e-32
-1.78566e-24
0
0
-3.72663e-47
0
-2.04195e-47
-2.0376e-25
0
1.56569e-23
3.43972e-24
0
-9.16461e-23
-3.51682e-23
3.16526e-34
4.12248e-22
3.353e-22
-3.30201e-22
-2.58426e-22
0
-2.67335e-22
-7.40379e-23
2.20984e-23
1.10163e-22
9.22352e-23
4.52387e-56
1.85014e-23
4.02655e-24
-1.64753e-24
0
0
-3.10993e-60
0
8.16163e-27
1.41566e-27
0
8.88633e-29
-8.19622e-65
-1.3022e-65
1.33543e-29
9.41547e-30
-6.33491e-32
-6.33491e-32
1.95574e-24
-4.88936e-25
-2.98231e-24
0
0
1.30272e-31
2.06769e-24
1.53603e-31
-3.58943e-24
-1.96916e-32
1.75145e-32
-6.41079e-24
-1.81692e-46
8.17177e-24
2.7847e-31
2.91978e-23
-2.26435e-32
0
-1.15304e-47
0
-4.80751e-21
-1.47909e-20
0
0
1.47232e-20
0
-1.57756e-21
8.00327e-34
0
0
0
0
2.85821e-55
0
0
0
0
0
-3.84629e-36
5.87494e-59
4.0113e-36
1.15253e-61
0
0
0
0
7.56239e-39
0
-1.26434e-31
-1.26434e-31
-3.16084e-32
2.3069e-24
1.5724e-24
0
-1.24303e-31
2.63077e-31
0
0
-5.47353e-24
-7.76814e-33
-2.15128e-23
-1.07322e-23
4.5213e-32
-8.35845e-32
6.8512e-31
-1.64805e-31
-7.02733e-32
5.75453e-32
0
0
-2.11451e-31
-1.70237e-32
-4.20547e-32
0
2.44714e-20
7.2231e-33
0
3.09349e-33
-3.09339e-34
0
-1.77442e-33
-1.31736e-33
0
-4.52702e-34
-1.33675e-22
0
1.1598e-23
-1.81473e-35
0
-2.31208e-36
0
0
1.33937e-27
0
-6.08739e-39
-3.36279e-39
0
-1.25969e-39
0
-5.97531e-32
-1.79259e-31
-8.61509e-25
1.76536e-24
3.425e-24
0
0
0
0
-6.09315e-24
7.24376e-32
-2.60085e-23
-1.25416e-23
0
0
1.61756e-30
-3.26077e-22
0
0
0
0
-3.49229e-20
0
0
0
4.9207e-20
0
0
0
0
-7.43498e-20
0
0
3.56437e-33
0
-4.54153e-34
3.61629e-23
-6.10133e-23
0
0
2.26746e-57
4.87533e-36
0
0
0
0
0
0
0
0
2.64036e-44
-3.19383e-31
-7.71964e-21
-4.3166e-31
0
0
-1.03112e-20
-1.03703e-20
0
0
0
0
0
0
0
0
0
0
3.02311e-20
4.39673e-45
0
-1.58648e-30
0
0
0
-5.2881e-20
0
0
-3.45431e-19
0
6.84246e-20
0
0
0
0
0
0
0
0
0
1.2362e-25
0
0
-2.49523e-28
0
0
0
0
0
0
5.52784e-44
-1.10702e-43
-1.25981e-19
-8.39957e-20
0
0
0
-1.68111e-19
0
0
0
0
0
0
0
0
5.42349e-30
0
0
0
0
0
4.23654e-18
0
0
-3.91614e-18
0
0
0
0
0
0
0
0
0
0
0
0
0
0
0
-5.61601e-35
0
0
0
0
0
0
0
2.20003e-30
1.00161e-42
2.20003e-30
-4.58355e-19
2.34195e-30
-6.11233e-19
0
0
-6.1066e-19
0
0
0
0
0
0
0
0
0
0
0
1.19072e-43
0
0
1.39971e-17
0
0
0
0
0
0
0
0
0
0
0
0
0
0
0
0
0
0
0
0
0
0
0
0
0
0
0
2.58686e-18
-3.90088e-31
-9.70072e-19
2.58692e-18
0
2.58791e-18
0
-1.29126e-18
4.09003e-29
2.60113e-18
0
0
0
0
0
0
5.50116e-18
0
0
2.21165e-18
0
0
5.83837e-17
0
0
-3.35117e-17
0
-3.14524e-18
0
0
0
0
0
0
0
0
-5.50932e-22
0
0
0
0
0
0
0
0
1.56802e-26
0
0
-1.63226e-26
6.80149e-18
3.21344e-41
6.80149e-18
-1.27528e-18
-8.50184e-19
1.70104e-18
0
-1.70042e-18
-1.69615e-18
0
0
0
0
6.51837e-18
1.28495e-40
7.56368e-18
0
7.0399e-18
0
0
1.34767e-17
0
3.51338e-17
0
0
0
-4.5578e-17
0
0
0
0
2.21263e-17
0
0
1.21661e-19
0
0
0
-4.26339e-22
0
0
-2.25393e-24
-1.21261e-33
0
0
2.47232e-25
0
0
0
0
0
4.46253e-30
4.46253e-30
-5.77e-19
-9.23701e-18
0
0
0
2.34367e-18
-9.25025e-18
-4.38078e-18
0
0
0
0
2.04034e-26
0
-1.79238e-17
0
0
1.07474e-41
0
0
-5.44306e-16
0
0
0
0
0
1.33864e-29
0
0
5.31736e-31
0
0
-5.03868e-32
0
0
0
0
0
0
-6.16939e-34
0
0
0
0
0
0
0
0
2.83031e-40
3.72648e-27
6.47907e-17
1.29594e-16
0
0
0
8.67054e-17
0
0
0
0
0
0
0
0
2.69111e-40
0
0
3.93585e-41
0
4.17933e-26
0
0
0
4.75982e-15
0
0
0
0
3.76993e-46
0
0
0
0
0
0
0
0
0
0
0
0
0
0
0
0
0
0
0
1.33853e-39
-3.22089e-39
2.58985e-16
-1.38132e-15
0
0
-5.37061e-27
3.46273e-16
0
0
0
0
0
0
0
0
-1.72872e-15
0
0
-1.52593e-16
0
0
-5.68593e-15
0
3.30276e-15
1.37265e-14
0
0
0
0
0
0
0
0
-1.06676e-13
0
0
0
-8.79522e-15
0
0
-2.93961e-22
0
0
0
0
2.89941e-24
1.08887e-23
3.98021e-24
-4.98913e-25
5.95012e-39
-3.11821e-26
6.16996e-16
4.11345e-16
0
0
8.23874e-16
8.24665e-16
-6.11236e-25
0
0
0
0
0
0
0
-8.12342e-15
3.15263e-23
0
-9.03141e-16
0
0
-1.20577e-14
0
0
2.89673e-14
0
0
0
0
0
0
0
-3.62862e-30
0
0
0
0
-2.20866e-14
0
0
0
0
0
0
0
0
0
0
-8.60996e-25
2.47903e-38
-5.38123e-26
1.09839e-15
-7.32281e-16
-2.2776e-25
0
-1.60045e-24
0
0
1.22323e-37
8.40782e-24
-6.0146e-15
-2.91662e-15
0
0
1.7714e-22
0
1.91745e-22
-1.14287e-38
-1.98455e-15
-6.63773e-15
-4.07759e-23
-4.06591e-14
-3.04494e-25
0
0
0
-2.08791e-26
0
0
0
0
-8.14691e-30
0
0
-4.1475e-30
0
0
0
0
0
-4.51451e-21
-3.80883e-21
0
0
1.81872e-33
0
0
0
0
9.75538e-38
-6.2921e-26
1.55786e-15
1.0386e-15
2.07616e-15
0
2.08044e-15
2.08183e-15
-3.58186e-24
0
0
0
0
0
0
0
0
0
0
-5.98952e-15
0
0
-2.84569e-14
0
0
6.99411e-14
0
0
0
0
0
0
0
0
0
0
0
0
-6.63063e-14
0
0
0
0
0
0
0
0
0
0
0
3.80426e-37
-5.51179e-26
1.79246e-15
-1.195e-15
2.38876e-15
0
0
2.39557e-15
0
0
0
0
0
0
0
0
0
0
0
-3.30329e-15
0
0
-3.35362e-14
0
0
8.5272e-14
0
0
0
0
0
0
0
0
0
0
0
0
-8.80391e-14
0
0
0
0
0
0
0
0
0
0
-2.72816e-35
0
3.16554e-23
1.67011e-15
-1.11344e-15
0
0
7.32762e-22
0
1.08116e-21
0
0
0
-4.41097e-15
0
0
-3.18778e-20
-1.57827e-35
0
0
-2.31411e-15
-1.21097e-14
9.94259e-21
-6.73646e-14
6.73526e-39
0
1.56155e-39
5.67301e-40
0
0
0
-1.68491e-12
-2.17325e-12
0
0
0
-1.62879e-29
-6.72363e-13
0
0
0
0
3.90855e-31
3.33217e-18
1.54917e-18
0
0
0
0
0
0
1.06304e-35
6.93718e-16
1.04057e-15
-6.93767e-16
0
0
0
1.39311e-15
0
0
0
-5.8017e-15
-2.75292e-15
0
0
-4.81031e-19
0
-5.21031e-15
0
2.76987e-16
0
4.06827e-20
0
0
0
8.14337e-14
0
0
0
0
0
0
0
0
0
0
0
0
0
0
0
8.322e-31
0
3.6425e-18
0
0
5.32044e-52
-2.97303e-21
-4.40643e-22
0
2.808e-19
1.755e-20
1.77313e-16
1.18288e-16
0
2.90814e-19
0
2.40693e-16
8.60563e-20
0
0
-1.10669e-15
0
0
0
-1.52771e-15
-1.02046e-18
-1.21874e-15
0
3.2347e-15
0
-9.80124e-15
0
0
3.62618e-14
5.87092e-14
0
0
0
-5.98824e-26
0
0
0
0
-6.39074e-13
0
0
0
0
0
1.82927e-30
0
2.03586e-17
5.51991e-18
0
0
-1.99508e-20
-4.4174e-21
0
6.54205e-19
6.54205e-19
4.08878e-20
1.62376e-16
3.24702e-16
0
0
3.24064e-19
0
0
-1.67723e-32
0
0
1.25632e-15
0
0
2.68237e-15
-1.05277e-18
5.28481e-18
3.75602e-18
4.85125e-15
5.33544e-15
7.69896e-20
-1.15227e-14
0
0
0
0
9.43064e-14
0
0
0
0
0
0
0
-1.78761e-27
0
0
3.0147e-29
0
0
1.26959e-30
2.71147e-17
0
0
0
0
0
5.9229e-22
0
5.90488e-33
5.27019e-20
-6.69947e-16
4.46531e-16
0
0
0
-8.92762e-16
0
0
0
0
0
0
0
0
4.61326e-17
0
0
4.2647e-15
0
0
-1.78984e-17
0
0
6.13084e-15
0
0
0
0
0
0
0
0
-1.44446e-13
0
0
0
-1.18674e-14
0
0
0
0
0
0
0
0
0
0
0
4.11357e-32
-2.44371e-19
-4.18104e-16
2.79066e-16
0
0
-5.59386e-16
-5.5915e-16
-2.69821e-18
0
0
0
0
0
0
0
4.96743e-16
0
0
7.03287e-16
0
0
1.8301e-15
0
0
-7.7474e-15
0
0
0
0
0
0
0
0
0
0
0
0
8.46388e-15
0
0
0
0
0
0
0
0
0
0
-4.31445e-30
2.69653e-31
-3.61096e-18
-9.95607e-18
-1.15192e-17
0
0
-2.36381e-17
-2.4457e-17
0
0
0
0
0
0
0
0
1.26996e-15
0
0
0
0
0
0
1.03305e-35
0
-1.08887e-14
0
2.50608e-37
0
0
0
0
5.692e-40
1.91884e-13
0
0
0
0
1.23461e-43
0
0
-3.89996e-29
0
-1.18141e-17
0
0
4.95024e-20
1.66248e-20
5.48786e-51
0
3.26625e-30
-1.24091e-17
1.93922e-16
1.12587e-16
0
0
0
2.2419e-16
0
0
0
0
0
0
0
0
0
0
0
-1.61764e-15
0
0
-1.94693e-14
0
0
-7.33492e-15
0
0
0
0
0
0
0
0
0
0
0
0
9.51963e-15
0
0
0
0
0
0
0
0
0
0
0
8.45089e-30
-2.63663e-17
1.05584e-16
-3.49851e-17
0
0
0
6.97406e-17
0
0
0
-1.34207e-15
0
0
0
2.82469e-15
3.992e-15
-4.11132e-15
-3.11925e-14
-5.56675e-16
0
-4.30483e-14
0
0
-3.24098e-14
-2.02708e-15
0
0
0
-1.60974e-22
0
0
0
0
5.02429e-14
0
0
6.60555e-15
0
0
0
0
-1.88625e-18
0
0
0
4.33766e-48
-6.76591e-21
-2.68237e-21
2.31601e-15
3.32878e-15
-4.07264e-17
-1.35164e-16
-1.44759e-16
2.89681e-16
2.31644e-15
-2.88854e-16
0
0
2.32811e-15
2.27647e-15
-5.47535e-16
2.38557e-15
0
2.28112e-15
5.76436e-15
2.0519e-15
-5.67741e-15
-4.59199e-14
1.22583e-15
0
-6.50148e-14
-5.85847e-14
0
-5.38404e-14
9.83503e-16
-2.14784e-14
0
-1.48747e-14
-2.24552e-22
0
-2.42706e-14
0
0
-5.54453e-14
-4.43536e-14
0
-8.28887e-15
-6.88671e-15
0
-6.50845e-17
3.62775e-17
2.43485e-17
0
1.50374e-18
0
1.29257e-47
-3.45148e-20
-6.59586e-21
0
2.5862e-15
-4.75119e-17
-2.89359e-16
4.10667e-15
0
0
0
-5.13145e-16
0
0
0
0
0
0
0
0
5.06915e-15
-7.01768e-15
0
2.17329e-15
0
-1.58465e-13
-7.39681e-14
0
0
9.94287e-16
0
3.66023e-15
0
0
0
0
0
0
-5.69137e-14
0
0
0
0
0
0
0
2.79944e-17
0
0
-5.65562e-20
3.6345e-47
0
0
0
-3.56654e-25
4.04987e-17
2.81715e-15
9.47594e-17
0
0
0
0
-2.23963e-16
0
0
0
-3.55679e-16
0
0
0
4.73658e-15
0
0
5.19142e-31
2.54667e-15
0
0
0
0
0
0
0
0
0
0
0
-5.59305e-14
0
0
-3.1242e-14
0
0
0
0
0
0
0
0
0
0
0
0
0
0
1.6134e-25
-1.7138e-17
-2.91181e-16
2.17312e-16
0
0
-4.34239e-16
-4.34958e-16
0
0
-3.78285e-16
0
0
1.74709e-15
0
0
0
0
0
1.60913e-15
0
0
-7.18699e-14
0
0
-1.60759e-15
0
0
0
0
0
0
0
0
0
0
0
0
-9.89187e-17
0
0
0
0
0
0
0
0
0
0
0
0
7.99541e-18
-3.22388e-16
-2.04445e-16
0
0
-4.08383e-16
-4.09148e-16
0
0
0
0
0
0
0
0
0
0
0
-5.77872e-14
0
0
0
0
-5.99002e-14
-1.61764e-15
0
0
0
0
0
0
0
0
0
0
0
0
9.36841e-18
0
0
8.84916e-18
0
0
0
0
1.78633e-21
1.34035e-21
4.15499e-22
0
4.08074e-15
1.8749e-17
-3.63811e-16
2.17566e-16
0
0
-4.34596e-16
-4.35237e-16
1.07081e-16
0
0
0
0
0
0
0
7.13341e-15
0
0
1.68023e-15
0
0
-2.71452e-14
0
0
-1.01544e-15
0
0
0
0
0
0
0
0
0
0
0
0
0
0
0
0
0
0
0
0
0
0
0
0
3.56239e-15
-1.20973e-17
3.53798e-15
2.22661e-16
0
0
-4.44832e-16
-4.45374e-16
4.92768e-17
0
0
0
0
0
0
0
4.36804e-15
3.75329e-15
0
0
0
0
-4.93204e-15
0
0
-5.91861e-16
-1.24687e-16
0
0
0
-2.43754e-15
0
0
-1.79581e-14
0
-1.15638e-14
0
0
-8.89873e-16
0
1.2521e-17
6.03196e-18
0
0
0
-1.20381e-21
-8.26734e-22
-4.08648e-22
-1.25254e-22
0
3.33237e-15
-1.48246e-18
-3.13938e-16
-2.11489e-16
4.14883e-16
0
3.37643e-15
0
0
3.10596e-15
0
0
0
0
0
0
2.53529e-15
0
0
1.66246e-15
0
0
5.06915e-15
0
3.36356e-15
-6.68328e-16
2.53993e-15
5.90701e-15
0
0
0
0
0
-2.36277e-14
-2.03647e-14
-1.43645e-14
0
0
-9.02716e-16
0
0
1.10035e-17
0
0
0
-6.5212e-22
-5.25502e-22
-2.33569e-22
-5.6544e-23
0
4.89134e-20
7.08691e-18
3.95535e-17
-2.05068e-16
0
7.28962e-16
-4.03924e-16
-4.04523e-16
0
0
0
0
0
1.64038e-15
0
0
0
0
0
1.55447e-15
0
5.97486e-15
7.77742e-15
0
5.64936e-15
0
0
0
0
0
0
0
0
0
-1.88395e-14
-1.31233e-14
0
0
0
0
1.5648e-40
0
0
0
0
0
0
-5.49128e-23
0
0
-5.63495e-19
3.30531e-15
-3.11288e-16
2.06687e-16
-4.08448e-16
0
0
0
0
0
0
3.96831e-15
0
0
0
0
0
-2.02843e-15
0
1.58296e-15
1.69346e-15
0
5.77217e-15
4.0318e-15
0
-1.02605e-15
5.58437e-16
0
0
0
0
0
0
0
0
-1.11668e-14
0
0
0
0
0
0
0
0
0
0
1.04753e-23
1.63434e-23
5.91204e-24
0
3.71464e-15
5.76422e-18
0
-2.37814e-16
-0.95587
-2.96823
-4.12533
-4.22595
-3.27008
-1.25772
-0.100618
0
0
0
0
3.59414e-15
2.72798e-15
1.19823e-15
3.55311e-15
1.66099e-15
0
4.06279e-15
1.96418e-15
0
0
-9.31335e-16
-4.03858e-16
0
0
0
0
0
0
0
-1.54183e-14
-1.09098e-14
0
0
0
0
0
1.03426e-17
4.83041e-18
0
0
6.03659e-23
1.76713e-44
5.95771e-24
-3.24645e-24
0
-6.91883e-18
7.40187e-18
0
-2.23329
-4.92977
-5.32351
-7.05536
-7.67984
-7.09634
-6.90383
-3.26024
-0.201236
0
0
0
0
0
0
0
0
0
0
0
0
0
-8.56056e-16
0
0
0
0
0
0
0
0
0
0
0
0
-7.06317e-16
0
0
0
0
0
0
0
0
0
0
3.36585e-15
-8.26518e-18
3.33898e-15
-0.123949
-2.6488
-5.15355
-2.50194
-1.47469
-2.32167
-0.945597
-4.74555
-7.6798
-3.26024
-0.100618
1.70966e-15
0
-1.08196e-16
5.00724e-16
1.21488e-15
0
0
0
-1.9903e-15
2.00541e-15
0
0
-8.75949e-16
3.0362e-16
9.18699e-15
7.20124e-15
5.08289e-15
-2.21346e-15
-1.16037e-14
-1.83966e-14
-3.93315e-14
1.61808e-35
-1.20291e-14
-6.76036e-15
-2.84248e-15
0
-4.11123e-17
8.86103e-40
0
4.86576e-18
0
0
-1.04062e-22
-4.30357e-23
-2.29311e-23
-8.85756e-24
3.55194e-15
7.23579e-15
1.37967
0.414391
-1.17731
0.811661
2.10939
2.71859
-0.233287
2.11861
4.88534
-4.74555
-6.90383
-1.25772
0
3.08883e-15
2.81311e-15
0
2.11997e-15
4.54654e-15
0
0
2.75769e-15
0
-1.34791e-15
0
-9.13133e-16
1.65895e-16
4.55606e-15
7.24155e-15
5.23409e-15
0
-1.12469e-14
-1.80134e-14
-1.93099e-14
0
-1.18124e-14
-6.62772e-15
0
0
-1.77356e-17
0
2.08987e-17
0
0
0
0
-2.12634e-23
-1.36471e-23
-6.48029e-24
7.09321e-15
0.226199
3.02907
1.55681
-3.08961
2.17422
5.49946
0.704648
-5.19607
-5.18108
2.11861
-0.945597
-7.09634
-3.27008
0
0
4.16601e-15
-2.16378e-16
1.78332e-16
0
-5.93217e-21
0
3.8754e-15
-5.24478e-16
-4.99336e-16
0
-9.12535e-16
1.22962e-16
0
7.14504e-15
5.24381e-15
-1.77867e-15
0
0
-1.89503e-14
-1.64761e-14
-1.16165e-14
0
-2.73502e-15
-6.82268e-16
0
3.40314e-40
0
0
1.34049e-18
0
0
0
-1.4359e-23
0
0
0.678597
2.64125
2.35071
-4.34445
-2.16616
7.08661
0.532731
-7.81809
-5.19607
-0.233287
-2.32167
-7.67984
-4.22595
0
0
0
0
0
0
3.53168e-15
0
0
0
0
0
-8.98275e-16
0
0
0
0
-1.856e-15
0
0
0
0
0
0
0
0
0
0
0
0
0
0
0
0
0
0
0
0.904796
1.28263
1.84058
-2.0686
-5.98471
3.26745
6.81215
0.532731
0.704648
2.71859
-1.47469
-7.05536
-4.12533
3.3232e-15
0
-8.12043e-17
4.23302e-17
1.98788e-15
0
1.63659e-15
0
1.28085e-15
0
0
0
-8.96765e-16
0
0
0
9.11166e-19
0
0
0
0
0
0
0
0
-6.93614e-16
0
0
0
4.88588e-18
1.34502e-18
0
0
0
0
0
0
0.678597
0.538029
-0.822085
0.630418
-1.70495
-3.59263
3.26745
7.08661
5.49946
2.10939
-2.50194
-5.32351
-2.96823
0
0
0
-2.11633e-17
0
0
1.63353e-15
0
0
1.19639e-15
0
0
-9.0143e-16
0
4.46586e-15
0
0
0
0
0
0
0
0
0
0
-6.92028e-16
0
0
1.035e-17
0
0
0
-2.96298e-23
0
0
0
0
0.226199
0.925847
-1.28832
-1.26208
2.65658
-1.70495
-5.98471
-2.16616
2.17422
0.811661
-5.15355
-4.92977
-0.95587
0
0
3.23407e-15
3.37928e-15
3.90871e-16
3.4803e-15
1.635e-15
0
0
1.31783e-15
0
-5.60817e-16
-9.02128e-16
1.80762e-16
0
7.14621e-15
5.19881e-15
-1.88207e-15
-1.10869e-14
-1.78012e-14
0
-1.6607e-14
-1.17089e-14
-6.57687e-15
0
-6.90353e-16
-3.67476e-17
1.36139e-17
2.07061e-17
0
1.34344e-18
8.21407e-20
-5.394e-23
-2.40993e-23
-1.53986e-23
-7.35432e-24
0
0
0.678597
0.946898
-1.67614
-1.26208
0.630418
-2.0686
-4.34445
-3.08961
-1.17731
-2.6488
-2.23329
9.11909e-15
0
0
0
-6.15387e-17
0
0
1.63591e-15
0
0
1.32351e-15
0
0
-9.00848e-16
0
4.45548e-15
0
0
0
0
0
-3.82201e-14
0
0
0
0
0
0
1.36104e-17
0
0
0
0
-5.4819e-23
0
0
0
0
2.84494e-19
-6.61574e-18
0.904796
0.946898
-1.28832
-0.822085
1.84058
2.35071
1.55681
0.414391
-0.123949
0
0
0
0
6.09037e-15
1.66746e-15
0
0
5.80731e-22
1.7385e-15
-6.51772e-16
3.34363e-15
1.00803e-15
0
-9.00698e-16
0
0
0
0
0
0
0
0
0
-1.17164e-14
0
0
0
0
1.3605e-17
1.03491e-17
0
1.34406e-18
8.23682e-20
0
-2.51654e-23
5.06585e-31
0
0
1.25011e-19
7.04868e-18
-3.30891e-16
0.678597
0.925847
0.538029
1.28263
2.64125
3.02907
1.37967
0
0
0
0
0
0
0
0
0
1.63544e-15
0
0
1.28822e-15
0
0
-9.00888e-16
0
0
0
0
-1.89122e-15
0
0
0
0
0
0
0
0
0
0
0
0
0
0
1.91048e-30
0
0
0
0
1.6903e-18
7.06695e-18
-3.30762e-16
-2.10109e-16
0.226199
0.678597
0.904796
0.678597
0.226199
-1.52109e-16
0
1.9463e-15
0
0
0
1.50634e-15
-5.88271e-18
1.97514e-15
2.34036e-15
3.49461e-21
0
-6.47982e-16
0
0
-1.40376e-15
-9.00888e-16
-2.72312e-30
0
0
1.30859e-18
0
0
0
0
0
0
0
-2.76245e-15
0
0
0
0
4.88972e-18
0
0
-4.17682e-44
-6.11e-45
0
-1.19253e-46
0
1.99928e-18
7.06695e-18
-3.30456e-16
-2.10517e-16
0
0
-4.21707e-16
0
0
0
0
1.91193e-15
0
0
0
1.50796e-15
1.66614e-15
1.9753e-15
2.34035e-15
0
0
-6.47982e-16
3.34639e-15
0
-1.40376e-15
-9.00888e-16
0
0
0
1.30859e-18
0
0
0
0
0
0
0
-2.76245e-15
0
0
0
0
4.88972e-18
0
0
0
-6.38773e-45
0
0
)
;

boundaryField
{
    movingWall
    {
        type            zeroGradient;
    }
    fixedWalls
    {
        type            zeroGradient;
    }
    frontAndBack
    {
        type            empty;
    }
}

