/*--------------------------------*- C++ -*----------------------------------*\
| =========                 |                                                 |
| \\      /  F ield         | OpenFOAM: The Open Source CFD Toolbox           |
|  \\    /   O peration     | Version:  v2006                                 |
|   \\  /    A nd           | Website:  www.openfoam.com                      |
|    \\/     M anipulation  |                                                 |
\*---------------------------------------------------------------------------*/
FoamFile
{
    version     2.0;
    format      ascii;
    class       volScalarField;
    location    "0";
    object      shifted_f;
}
// * * * * * * * * * * * * * * * * * * * * * * * * * * * * * * * * * * * * * //

dimensions      [0 0 0 0 0 0 0];


internalField   nonuniform List<scalar> 
2500
(
0.0127474
0.0127468
0.0127462
0.0127455
0.0127448
0.0127443
0.0127436
0.0127429
0.0127423
0.0127414
0.0127408
0.0127401
0.0127393
0.0127386
0.0127379
0.012737
0.0127363
0.0127355
0.0127346
0.0127339
0.0127331
0.0127323
0.0127315
0.0127306
0.0127297
0.0127289
0.012728
0.0127271
0.0135938
0.0135941
0.0135943
0.0135945
0.0135948
0.0135948
0.0135951
0.0135953
0.0135955
0.0135957
0.0135958
0.0135961
0.0135963
0.0135964
0.0135967
0.0135967
0.013597
0.0135972
0.0135974
0.0135976
0.0135976
0.0135978
0.0135979
0.013598
0.0135983
0.0135984
0.0135985
0.0135986
0.0135987
0.0135988
0.013599
0.013599
0.0135992
0.0135994
0.0135994
0.0135995
0.0135996
0.0135997
0.0135998
0.0136
0.0135999
0.0136002
0.0136
0.0136002
0.0136001
0.0136003
0.0136002
0.0136003
0.0136003
0.0136005
0.0136005
0.0136003
0.0136002
0.0136004
0.0136004
0.0136004
0.0136004
0.0136003
0.0136003
0.0136002
0.0136002
0.0136004
0.0136002
0.0136001
0.0135999
0.0135999
0.0135998
0.0135998
0.0135998
0.0135998
0.0135995
0.0135995
0.0135993
0.0135992
0.0135991
0.013599
0.0135988
0.0135986
0.0135984
0.0135984
0.0135982
0.0135981
0.0135978
0.0135976
0.0135975
0.0135973
0.0135971
0.0135968
0.0135966
0.0135963
0.0135962
0.0135959
0.0135958
0.0135954
0.0135951
0.0135949
0.0135947
0.0135943
0.0135941
0.0135938
0.0135936
0.0118024
0.0118028
0.011803
0.0118032
0.0118035
0.0118037
0.011804
0.0118042
0.0118045
0.0118047
0.011805
0.0118052
0.0118055
0.0118057
0.0118059
0.0118062
0.0118065
0.0118067
0.0118069
0.0118072
0.0118075
0.0118078
0.0118079
0.0118081
0.0118085
0.0118089
0.0118089
0.0118092
0.0118094
0.0118097
0.01181
0.0118104
0.0118104
0.0118107
0.011811
0.0118112
0.0118114
0.0118117
0.0118121
0.0118122
0.0118125
0.0118127
0.011813
0.0118133
0.0118135
0.0118138
0.0118141
0.0118141
0.0118145
0.0118149
0.0118152
0.0118154
0.0118155
0.0118158
0.0118161
0.0118164
0.0118168
0.0118167
0.0118171
0.0118173
0.0118176
0.0118179
0.011818
0.0118185
0.0118187
0.0118188
0.0118191
0.0118197
0.0118199
0.01182
0.0118204
0.0118207
0.0118209
0.0118211
0.0118214
0.0118217
0.0118219
0.0118223
0.0118226
0.0118227
0.0118231
0.0118233
0.0118236
0.0118237
0.0118243
0.0118244
0.0118246
0.011825
0.0118253
0.0118255
0.0118258
0.0118261
0.0118263
0.0118266
0.011827
0.0118272
0.0118275
0.0118278
0.0118279
0.0118284
0.0118286
0.00977306
0.009773
0.00977333
0.00977304
0.00977324
0.00977307
0.00977325
0.00977347
0.00977339
0.00977339
0.00977343
0.00977362
0.00977347
0.00977355
0.00977371
0.00977385
0.00977381
0.00977391
0.00977414
0.00977403
0.0097742
0.0097743
0.00977454
0.00977456
0.00977456
0.00977463
0.00977461
0.00977487
0.00977498
0.0097749
0.00977528
0.0097752
0.00977529
0.00977543
0.00977575
0.00977584
0.00977607
0.0097761
0.00977628
0.00977654
0.00977643
0.00977672
0.00977698
0.00977717
0.00977726
0.00977753
0.00977756
0.00977781
0.00977803
0.00977828
0.00977834
0.00977867
0.00977883
0.00977912
0.00977928
0.0097795
0.0097799
0.00978015
0.00978034
0.00978063
0.00978085
0.00978114
0.00978144
0.00978167
0.00978192
0.00978236
0.00978273
0.00978293
0.0097833
0.0097836
0.00978384
0.00978423
0.00978448
0.00978497
0.00978538
0.00978583
0.00978607
0.00978644
0.00978689
0.00978721
0.00978744
0.009788
0.00978855
0.00978871
0.00978928
0.00978968
0.00979026
0.0097906
0.00979112
0.00979147
0.00979201
0.00979242
0.009793
0.00979361
0.00979399
0.00979438
0.00979496
0.00979567
0.00979609
0.00979663
0.00979719
0.00964557
0.00964525
0.00964494
0.00964474
0.00964456
0.00964445
0.00964419
0.00964386
0.00964358
0.0096433
0.00964313
0.00964286
0.00964264
0.00964245
0.00964229
0.00964214
0.0096419
0.0096418
0.00964158
0.00964147
0.00964098
0.00964079
0.0096407
0.00964051
0.00964041
0.00964021
0.00963998
0.00963977
0.00963977
0.00963943
0.00963925
0.00963918
0.0096391
0.00963889
0.00963875
0.00963869
0.00963863
0.00963852
0.00963825
0.0096381
0.00963813
0.00963784
0.00963787
0.0096376
0.00963777
0.00963759
0.00963756
0.00963743
0.00963757
0.00963763
0.00963748
0.00963752
0.00963736
0.00963738
0.00963749
0.00963758
0.0096375
0.00963732
0.00963765
0.00963763
0.00963758
0.0096376
0.00963771
0.00963783
0.00963805
0.00963802
0.00963804
0.0096383
0.0096383
0.0096386
0.00963866
0.00963901
0.009639
0.00963924
0.00963939
0.00963971
0.00963988
0.00964022
0.0096402
0.00964052
0.00964076
0.00964112
0.0096412
0.00964153
0.00964189
0.00964225
0.00964257
0.00964276
0.0096432
0.00964354
0.00964401
0.00964434
0.00964478
0.00964489
0.00964539
0.00964599
0.00964626
0.0096468
0.00964729
0.00964763
0.00964822
0.0117866
0.0117864
0.0117858
0.0117856
0.0117852
0.0117848
0.0117845
0.0117842
0.0117836
0.0117834
0.011783
0.0117827
0.0117822
0.0117819
0.0117815
0.0117812
0.0117809
0.0117805
0.0117801
0.0117798
0.0117793
0.0117791
0.0117787
0.0117783
0.0117778
0.0117775
0.0117772
0.0117769
0.0117765
0.011776
0.0117758
0.0117755
0.0117751
0.0117748
0.0117743
0.0117742
0.0117739
0.0117736
0.0117734
0.0117728
0.0117727
0.0117723
0.0117719
0.0117717
0.0117714
0.0117713
0.0117711
0.0117707
0.0117704
0.0117703
0.0117701
0.0117698
0.0117696
0.0117693
0.0117691
0.0117689
0.0117688
0.0117686
0.0117685
0.0117682
0.0117682
0.0117679
0.0117679
0.0117677
0.0117676
0.0117674
0.0117672
0.0117672
0.011767
0.0117671
0.011767
0.011767
0.011767
0.0117669
0.0117669
0.0117668
0.0117669
0.0117669
0.0117667
0.0117668
0.011767
0.0117668
0.0117672
0.0117669
0.0117671
0.0117671
0.0117672
0.0117673
0.0117675
0.0117675
0.0117677
0.0117678
0.0117681
0.0117683
0.0117684
0.0117684
0.0117689
0.011769
0.0117693
0.0117693
0.0117696
0.0145291
0.0145288
0.0145285
0.0145282
0.0145282
0.014528
0.0145276
0.0145272
0.014527
0.0145269
0.0145267
0.0145262
0.014526
0.0145257
0.0145256
0.0145252
0.0145249
0.0145249
0.0145244
0.0145241
0.014524
0.0145237
0.0145235
0.0145231
0.0145229
0.0145228
0.0145224
0.0145223
0.014522
0.0145218
0.0145215
0.0145212
0.0145209
0.0145207
0.0145204
0.0145202
0.0145201
0.0145198
0.0145195
0.0145193
0.014519
0.0145189
0.0145187
0.0145184
0.0145182
0.0145179
0.0145178
0.0145175
0.0145175
0.0145172
0.0145171
0.0145167
0.0145166
0.0145164
0.0145163
0.014516
0.0145157
0.0145157
0.0145156
0.0145152
0.0145152
0.014515
0.0145149
0.0145149
0.0145146
0.0145144
0.0145144
0.0145142
0.0145141
0.014514
0.0145141
0.0145139
0.014514
0.0145136
0.0145137
0.0145137
0.0145135
0.0145135
0.0145133
0.0145133
0.0145131
0.0145133
0.014513
0.0145132
0.0145132
0.0145131
0.0145131
0.0145132
0.0145131
0.0145131
0.0145131
0.0145131
0.0145132
0.0145132
0.0145132
0.0145132
0.0145134
0.0145134
0.0145136
0.0145136
0.0145136
0.0154848
0.0154848
0.015485
0.0154849
0.015485
0.015485
0.015485
0.0154852
0.0154853
0.0154854
0.0154854
0.0154854
0.0154854
0.0154855
0.0154856
0.0154854
0.0154857
0.0154858
0.0154858
0.0154858
0.0154859
0.0154861
0.0154858
0.0154861
0.015486
0.015486
0.0154862
0.0154862
0.0154864
0.0154863
0.0154865
0.0154866
0.0154866
0.0154866
0.0154867
0.0154867
0.0154868
0.0154868
0.0154869
0.015487
0.015487
0.0154871
0.0154873
0.0154873
0.0154873
0.0154873
0.0154874
0.0154875
0.0154875
0.0154875
0.0154876
0.0154876
0.0154877
0.0154878
0.0154879
0.015488
0.0154882
0.0154881
0.0154881
0.0154882
0.0154883
0.0154884
0.0154885
0.0154884
0.0154887
0.0154886
0.0154888
0.0154889
0.0154889
0.015489
0.0154891
0.0154891
0.0154892
0.0154892
0.0154894
0.0154894
0.0154893
0.0154894
0.0154895
0.0154896
0.0154898
0.0154898
0.01549
0.0154902
0.0154901
0.0154903
0.0154903
0.0154903
0.0154904
0.0154904
0.0154906
0.0154908
0.0154909
0.015491
0.0154912
0.015491
0.0154912
0.0154912
0.0154913
0.0154915
0.0154915
0.013653
0.0136534
0.0136537
0.0136539
0.0136543
0.0136546
0.0136551
0.0136553
0.0136557
0.013656
0.0136565
0.0136565
0.013657
0.0136574
0.0136576
0.013658
0.0136585
0.0136587
0.0136591
0.0136595
0.01366
0.0136602
0.0136608
0.0136612
0.0136613
0.0136617
0.0136621
0.0136625
0.0136628
0.0136632
0.0136635
0.0136637
0.0136642
0.0136647
0.013665
0.0136653
0.0136657
0.0136661
0.0136666
0.0136668
0.0136672
0.0136676
0.0136681
0.0136683
0.0136685
0.013669
0.0136693
0.0136697
0.01367
0.0136704
0.0136707
0.0136711
0.0136716
0.0136719
0.0136722
0.0136726
0.0136729
0.0136733
0.0136735
0.013674
0.0136742
0.0136745
0.0136749
0.0136751
0.0136756
0.0136759
0.0136763
0.0136765
0.0136769
0.0136773
0.0136776
0.0136777
0.0136782
0.0136785
0.0136787
0.013679
0.0136792
0.0136797
0.01368
0.0136801
0.0136806
0.0136809
0.0136812
0.0136815
0.0136817
0.013682
0.0136822
0.0136825
0.0136827
0.013683
0.0136833
0.0136836
0.013684
0.0136843
0.0136844
0.0136847
0.013685
0.0136851
0.0136854
0.0136856
0.0136857
0.00967083
0.00967128
0.00967178
0.00967223
0.00967247
0.00967297
0.00967344
0.00967388
0.00967443
0.00967484
0.00967521
0.00967577
0.00967622
0.00967685
0.00967719
0.00967767
0.00967807
0.00967862
0.0096791
0.00967969
0.00968003
0.00968056
0.00968122
0.00968166
0.00968211
0.0096826
0.00968304
0.00968349
0.00968404
0.00968454
0.00968485
0.00968552
0.00968603
0.00968665
0.00968697
0.00968742
0.00968812
0.00968847
0.00968906
0.0096895
0.00969015
0.00969052
0.00969119
0.00969162
0.00969209
0.00969271
0.00969312
0.00969357
0.00969427
0.00969468
0.00969507
0.00969562
0.00969614
0.00969649
0.00969715
0.0096976
0.00969805
0.00969851
0.00969913
0.00969962
0.00969998
0.00970048
0.00970089
0.00970149
0.00970198
0.00970235
0.0097029
0.00970337
0.00970381
0.00970436
0.00970472
0.00970533
0.00970582
0.00970614
0.00970662
0.00970711
0.00970733
0.00970785
0.00970838
0.00970887
0.0097092
0.0097096
0.00971011
0.00971048
0.00971095
0.00971132
0.00971184
0.00971207
0.00971264
0.00971295
0.00971318
0.00971379
0.00971415
0.00971447
0.00971498
0.00971538
0.00971565
0.00971607
0.00971638
0.00971681
0.0097172
0.00611554
0.00611579
0.00611609
0.00611637
0.0061166
0.00611696
0.00611715
0.00611751
0.00611765
0.00611787
0.00611829
0.00611851
0.00611859
0.006119
0.00611924
0.00611961
0.00611984
0.00612021
0.00612039
0.00612073
0.00612088
0.00612133
0.00612159
0.00612186
0.00612218
0.00612233
0.00612279
0.00612311
0.00612333
0.00612369
0.006124
0.00612425
0.0061245
0.00612484
0.00612516
0.00612557
0.0061258
0.00612606
0.00612643
0.00612678
0.00612695
0.00612734
0.00612767
0.0061279
0.00612816
0.00612848
0.00612894
0.00612923
0.00612943
0.00612976
0.00613014
0.00613032
0.00613068
0.00613099
0.00613138
0.00613156
0.00613185
0.00613219
0.0061324
0.0061328
0.006133
0.00613323
0.00613371
0.00613393
0.00613411
0.00613452
0.00613485
0.00613507
0.00613542
0.00613558
0.00613599
0.00613613
0.00613653
0.00613683
0.00613718
0.0061374
0.00613776
0.00613794
0.00613822
0.00613857
0.00613873
0.0061391
0.00613944
0.00613961
0.00613988
0.00614021
0.00614049
0.00614062
0.00614112
0.00614117
0.00614155
0.00614171
0.00614195
0.0061422
0.00614244
0.00614271
0.00614296
0.00614329
0.00614346
0.00614382
0.00614395
0.00423834
0.0042384
0.00423872
0.00423873
0.00423879
0.00423897
0.00423903
0.00423914
0.00423928
0.00423942
0.00423941
0.00423964
0.00423983
0.00423999
0.00424013
0.00424032
0.00424049
0.00424058
0.00424053
0.0042407
0.00424087
0.00424094
0.00424107
0.00424125
0.00424148
0.00424149
0.00424169
0.00424197
0.00424206
0.00424219
0.00424235
0.00424252
0.00424261
0.00424271
0.00424291
0.00424307
0.00424332
0.00424352
0.00424355
0.00424371
0.00424393
0.00424398
0.00424425
0.00424438
0.00424458
0.00424466
0.00424479
0.00424505
0.00424511
0.00424534
0.0042455
0.00424563
0.00424577
0.004246
0.00424613
0.00424626
0.0042464
0.00424659
0.00424678
0.00424689
0.00424708
0.00424726
0.0042474
0.00424766
0.00424777
0.00424796
0.00424804
0.0042482
0.00424842
0.00424848
0.00424867
0.00424875
0.00424896
0.00424909
0.00424913
0.00424936
0.00424956
0.00424968
0.00424977
0.00425
0.00425008
0.00425018
0.00425037
0.00425055
0.00425065
0.00425078
0.00425094
0.00425115
0.00425127
0.00425148
0.00425154
0.00425157
0.00425163
0.00425197
0.00425205
0.00425231
0.0042523
0.00425241
0.00425264
0.00425259
0.00425285
0.00305168
0.00305166
0.00305169
0.0030518
0.00305187
0.00305198
0.003052
0.00305197
0.00305225
0.00305226
0.00305231
0.00305246
0.00305256
0.00305265
0.0030528
0.00305278
0.00305295
0.00305292
0.00305312
0.00305322
0.0030533
0.00305337
0.00305344
0.00305357
0.00305373
0.00305376
0.0030539
0.00305416
0.00305403
0.00305416
0.00305423
0.0030544
0.00305447
0.00305464
0.00305473
0.00305481
0.003055
0.00305499
0.00305516
0.00305532
0.00305529
0.00305547
0.00305574
0.00305584
0.00305573
0.00305589
0.003056
0.00305626
0.00305634
0.00305641
0.0030565
0.00305677
0.00305685
0.00305689
0.00305705
0.00305716
0.00305727
0.00305741
0.00305755
0.00305765
0.00305772
0.00305788
0.00305793
0.00305809
0.00305818
0.00305836
0.0030583
0.00305855
0.00305865
0.00305891
0.00305882
0.00305895
0.0030591
0.0030592
0.00305933
0.00305949
0.0030596
0.00305964
0.00305983
0.00305991
0.00306002
0.00306019
0.00306026
0.00306033
0.0030605
0.00306052
0.00306071
0.00306076
0.00306078
0.00306105
0.00306099
0.00306126
0.00306124
0.00306141
0.00306137
0.00306151
0.00306157
0.00306178
0.00306178
0.00306192
0.00306195
0.0021417
0.00214159
0.00214176
0.00214175
0.00214185
0.00214196
0.00214204
0.00214214
0.0021422
0.00214221
0.0021423
0.00214232
0.00214241
0.00214253
0.00214254
0.00214261
0.00214266
0.00214272
0.00214281
0.00214297
0.00214301
0.00214305
0.00214309
0.00214322
0.00214332
0.00214343
0.00214349
0.00214354
0.00214368
0.00214379
0.00214383
0.00214393
0.00214399
0.00214402
0.00214419
0.00214426
0.00214424
0.00214442
0.00214456
0.00214469
0.00214475
0.00214467
0.0021449
0.00214488
0.00214517
0.00214518
0.00214537
0.0021454
0.00214552
0.0021456
0.0021456
0.00214571
0.00214588
0.00214591
0.00214601
0.00214615
0.00214613
0.00214638
0.0021464
0.00214646
0.00214649
0.00214668
0.00214676
0.00214697
0.00214693
0.00214707
0.00214712
0.00214718
0.00214735
0.00214741
0.00214758
0.00214752
0.00214767
0.00214775
0.00214795
0.002148
0.00214821
0.00214826
0.0021482
0.00214835
0.00214844
0.00214861
0.00214871
0.00214883
0.00214894
0.00214886
0.00214913
0.00214908
0.00214913
0.0021493
0.00214941
0.0021494
0.00214954
0.00214965
0.00214962
0.00214987
0.00214995
0.00215005
0.00215019
0.00215027
0.00215028
0.00147229
0.00147244
0.00147252
0.00147264
0.00147261
0.00147274
0.00147271
0.00147283
0.00147289
0.00147294
0.00147292
0.00147304
0.00147311
0.00147315
0.00147329
0.00147318
0.00147324
0.00147332
0.00147342
0.00147352
0.00147358
0.00147375
0.00147377
0.00147374
0.00147387
0.00147403
0.00147405
0.00147414
0.00147415
0.00147421
0.00147425
0.00147437
0.00147436
0.00147446
0.00147449
0.00147449
0.00147461
0.00147476
0.00147483
0.00147492
0.00147492
0.00147497
0.00147508
0.00147524
0.00147526
0.00147529
0.00147535
0.00147549
0.00147558
0.00147568
0.00147561
0.00147575
0.00147596
0.00147595
0.00147597
0.00147603
0.00147622
0.00147621
0.00147621
0.00147631
0.00147642
0.00147646
0.0014766
0.00147676
0.0014768
0.00147683
0.0014769
0.00147693
0.0014771
0.00147718
0.00147717
0.00147718
0.00147746
0.00147745
0.00147736
0.00147763
0.00147768
0.00147765
0.00147778
0.00147779
0.00147804
0.00147799
0.00147806
0.00147822
0.00147833
0.00147849
0.00147849
0.00147849
0.00147857
0.00147874
0.00147885
0.00147886
0.00147888
0.0014789
0.00147912
0.00147913
0.00147923
0.00147934
0.00147935
0.00147942
0.00147939
0.00102057
0.00102063
0.00102066
0.00102072
0.00102087
0.00102082
0.001021
0.00102102
0.00102108
0.00102103
0.00102124
0.0010212
0.00102137
0.0010214
0.00102136
0.00102142
0.00102139
0.00102146
0.00102161
0.00102152
0.00102161
0.00102167
0.00102175
0.00102174
0.00102184
0.00102191
0.00102192
0.0010219
0.00102197
0.0010221
0.00102207
0.0010222
0.00102227
0.00102243
0.00102233
0.00102245
0.00102241
0.00102247
0.00102247
0.0010226
0.00102269
0.0010227
0.00102276
0.00102293
0.00102297
0.00102296
0.0010231
0.00102302
0.00102318
0.00102311
0.00102326
0.00102319
0.00102337
0.00102348
0.00102345
0.00102355
0.0010236
0.00102366
0.00102372
0.00102377
0.00102371
0.0010238
0.00102391
0.0010239
0.00102412
0.00102413
0.00102419
0.00102431
0.00102423
0.0010244
0.00102443
0.00102442
0.0010245
0.0010247
0.00102479
0.00102479
0.00102479
0.00102483
0.00102484
0.00102488
0.00102491
0.00102498
0.00102517
0.00102526
0.00102523
0.00102526
0.00102531
0.00102535
0.00102541
0.00102545
0.00102548
0.00102558
0.0010256
0.0010258
0.0010258
0.00102584
0.00102592
0.00102603
0.00102601
0.00102607
0.0010262
0.000736948
0.000736974
0.000737045
0.000737086
0.000737086
0.000737146
0.000737138
0.000737127
0.000737112
0.000737336
0.000737291
0.000737302
0.00073747
0.000737432
0.00073754
0.00073744
0.000737626
0.000737578
0.000737671
0.000737671
0.000737797
0.000737738
0.000737805
0.000737738
0.000737824
0.000737946
0.000737939
0.000738066
0.000738062
0.00073798
0.00073814
0.000738185
0.000738103
0.000738148
0.000738248
0.000738379
0.000738192
0.000738315
0.000738442
0.000738565
0.000738554
0.000738468
0.000738509
0.000738624
0.000738658
0.000738725
0.000738766
0.000738814
0.000738755
0.000738695
0.000738781
0.000738885
0.000738885
0.000738975
0.000739068
0.000739135
0.000739172
0.000739217
0.000739139
0.000739358
0.000739347
0.000739269
0.000739355
0.000739362
0.000739481
0.000739511
0.000739574
0.00073966
0.000739619
0.000739682
0.000739694
0.000739865
0.000739869
0.000739861
0.000739899
0.00073979
0.000740055
0.000740062
0.000740103
0.000740103
0.00074013
0.000740238
0.000740204
0.000740282
0.000740275
0.000740331
0.000740346
0.000740405
0.000740487
0.000740536
0.000740554
0.000740521
0.000740614
0.000740688
0.000740714
0.000740748
0.000740763
0.000740804
0.000740696
0.000740834
0.000740767
0.000569589
0.000569593
0.000569697
0.000569656
0.000569668
0.000569716
0.000569742
0.000569627
0.000569727
0.00056982
0.000569846
0.000569783
0.000569813
0.00056975
0.000569902
0.000569943
0.000569914
0.000570089
0.000569977
0.000570018
0.000569981
0.000570029
0.000570141
0.000570063
0.000570167
0.000570249
0.000570204
0.000570178
0.000570301
0.000570189
0.000570279
0.000570189
0.000570271
0.000570353
0.000570223
0.000570327
0.000570413
0.000570405
0.000570465
0.000570439
0.000570539
0.000570513
0.000570606
0.000570547
0.000570513
0.000570562
0.000570629
0.000570599
0.000570636
0.0005707
0.000570737
0.000570752
0.000570703
0.000570763
0.000570763
0.000570852
0.000570882
0.000570755
0.000570793
0.000570852
0.000570942
0.000570916
0.000570927
0.000571053
0.000571121
0.000571001
0.000570986
0.000571001
0.000571176
0.000571318
0.000571236
0.000571296
0.000571255
0.000571381
0.00057143
0.000571359
0.00057127
0.000571381
0.000571329
0.000571426
0.000571381
0.000571437
0.000571474
0.000571501
0.000571609
0.00057156
0.000571568
0.00057159
0.000571616
0.000571631
0.000571769
0.000571694
0.000571556
0.000571661
0.000571646
0.000571728
0.00057181
0.000571758
0.000571828
0.000571724
0.000571948
0.000481751
0.000481766
0.000481788
0.000481728
0.00048187
0.000481799
0.000481803
0.000481743
0.000481721
0.000481736
0.000481755
0.00048168
0.000481695
0.000481818
0.000481796
0.000481747
0.000481747
0.000481758
0.000481904
0.00048184
0.000481825
0.000481907
0.00048181
0.000481773
0.000481989
0.000481926
0.000481959
0.000481915
0.000481892
0.000482019
0.00048187
0.000481997
0.000481941
0.000481892
0.000481989
0.000482
0.000481945
0.000482008
0.000481963
0.000482082
0.000481926
0.000481967
0.000481997
0.000482034
0.000481989
0.000482075
0.000481967
0.000482008
0.000482105
0.00048193
0.000482023
0.000482079
0.000481959
0.000482086
0.000482019
0.00048209
0.000482
0.000482023
0.00048209
0.000482112
0.000482105
0.000482079
0.000482108
0.000482175
0.000482105
0.000482056
0.000482034
0.000482164
0.000482131
0.000482146
0.000482205
0.000482131
0.000482161
0.000482056
0.000482168
0.000482097
0.000482231
0.000482272
0.000482183
0.000482228
0.000482291
0.000482228
0.000482291
0.000482377
0.000482347
0.00048231
0.000482373
0.000482246
0.000482377
0.000482306
0.000482276
0.000482395
0.000482365
0.000482421
0.000482351
0.000482317
0.000482235
0.000482373
0.000482343
0.000482436
0.000482377
0.00045668
0.000456687
0.000456508
0.000456505
0.000456546
0.000456527
0.000456471
0.000456449
0.000456404
0.000456519
0.000456449
0.000456423
0.000456356
0.000456251
0.000456322
0.000456408
0.000456274
0.000456233
0.000456423
0.000456303
0.000456318
0.00045621
0.000456166
0.000456229
0.000456117
0.000456158
0.000456203
0.000456192
0.00045611
0.000456184
0.000456106
0.00045611
0.000456125
0.000456102
0.000456095
0.000456017
0.000456069
0.000455964
0.000455946
0.000455968
0.000455972
0.000455938
0.000456061
0.000455923
0.000455964
0.00045586
0.000455964
0.000455841
0.0004558
0.000455931
0.000455845
0.000455879
0.000455823
0.000455827
0.000455782
0.000455778
0.000455748
0.000455745
0.000455804
0.000455622
0.000455722
0.000455726
0.000455812
0.000455685
0.000455715
0.000455767
0.000455532
0.000455618
0.000455622
0.0004557
0.00045561
0.000455577
0.000455596
0.000455629
0.000455622
0.000455577
0.000455562
0.000455525
0.000455514
0.000455532
0.00045548
0.000455555
0.000455469
0.000455379
0.000455469
0.000455476
0.000455439
0.000455499
0.000455428
0.000455443
0.000455499
0.000455443
0.000455465
0.000455394
0.000455432
0.000455286
0.000455294
0.000455368
0.000455275
0.000455327
0.000455361
0.000493344
0.000493284
0.000493195
0.000493176
0.000493143
0.000493113
0.00049315
0.000493061
0.00049299
0.000492848
0.000492774
0.000492737
0.000492729
0.000492744
0.000492606
0.000492614
0.000492528
0.000492472
0.000492539
0.000492517
0.000492498
0.000492368
0.000492405
0.000492331
0.000492185
0.000492238
0.000492174
0.000492021
0.000492025
0.000492126
0.000492018
0.000492014
0.000492088
0.000491943
0.000491872
0.000491928
0.000491779
0.000491936
0.000491776
0.000491623
0.000491772
0.000491638
0.000491645
0.000491552
0.000491571
0.000491481
0.0004916
0.000491362
0.000491444
0.000491209
0.000491332
0.000491355
0.000491176
0.000491209
0.000491045
0.00049115
0.000491131
0.000491031
0.000491016
0.000491038
0.00049096
0.000490882
0.000490882
0.000490788
0.000490744
0.000490785
0.000490632
0.000490677
0.000490703
0.000490475
0.000490475
0.000490565
0.000490505
0.000490583
0.000490416
0.000490446
0.000490397
0.000490431
0.000490289
0.000490203
0.00049023
0.000490271
0.000490118
0.00049011
0.00049011
0.000490125
0.000490181
0.000490133
0.000490051
0.000490051
0.000489987
0.000489894
0.000489961
0.000489812
0.000489835
0.000489745
0.000489831
0.000489771
0.000489704
0.000489645
0.000489611
0.000601236
0.000601213
0.000601102
0.000600994
0.000600923
0.000600919
0.000600766
0.000600703
0.00060067
0.000600591
0.000600595
0.000600427
0.000600543
0.00060039
0.00060017
0.000600144
0.000600066
0.000600059
0.000600044
0.000599954
0.000599869
0.000599828
0.000599694
0.000599537
0.000599444
0.00059941
0.000599325
0.000599366
0.000599265
0.000599191
0.00059903
0.000599083
0.000598922
0.000598829
0.000598878
0.000598725
0.000598628
0.000598762
0.000598606
0.000598494
0.00059849
0.00059833
0.000598203
0.000598263
0.000598162
0.000598073
0.000597913
0.000597987
0.000597823
0.000597831
0.000597693
0.000597697
0.000597581
0.000597581
0.00059747
0.000597421
0.000597473
0.000597395
0.000597391
0.00059719
0.000597145
0.000597212
0.000597093
0.000597082
0.00059687
0.000596918
0.000596896
0.000596721
0.000596743
0.000596717
0.000596493
0.000596438
0.000596378
0.000596374
0.000596274
0.000596214
0.000596195
0.000596002
0.000595983
0.000595987
0.000595909
0.000595793
0.000595763
0.000595726
0.000595812
0.000595648
0.000595529
0.000595529
0.000595469
0.000595402
0.000595249
0.000595231
0.000595223
0.000595171
0.000595205
0.000595096
0.000594888
0.000594772
0.000594813
0.000594795
0.000594702
0.000795033
0.000794936
0.00079485
0.000794753
0.000794657
0.000794522
0.000794318
0.000794258
0.000794042
0.000793967
0.000793952
0.000793841
0.000793647
0.000793539
0.000793383
0.000793226
0.000793193
0.000793118
0.000793006
0.000792883
0.000792816
0.000792779
0.00079257
0.000792529
0.000792515
0.000792403
0.00079228
0.000792176
0.000792015
0.000791937
0.000791926
0.000791702
0.000791583
0.000791524
0.000791363
0.000791352
0.000791267
0.000791088
0.000791073
0.000790901
0.000790823
0.000790726
0.0007906
0.000790428
0.000790432
0.000790164
0.000790227
0.000790052
0.000790026
0.000789925
0.000789724
0.000789698
0.000789531
0.000789497
0.000789355
0.000789288
0.000789087
0.000789039
0.000789061
0.000788853
0.000788882
0.000788685
0.000788588
0.000788476
0.00078845
0.000788379
0.000788163
0.000788067
0.000788048
0.000787918
0.000788022
0.000787772
0.000787649
0.000787623
0.000787545
0.000787374
0.000787389
0.000787321
0.000787195
0.000787102
0.000787057
0.000786841
0.000786733
0.000786696
0.000786602
0.000786435
0.000786375
0.000786304
0.000786271
0.000786036
0.000786018
0.000785928
0.000785865
0.000785839
0.000785682
0.000785593
0.000785474
0.000785429
0.000785228
0.000785224
0.000785124
0.000707369
0.000707366
0.000707362
0.000707354
0.000707414
0.000707347
0.000707339
0.000707407
0.000707339
0.000707392
0.000707358
0.000707384
0.000707295
0.000707358
0.000707325
0.000707325
0.000707354
0.000707291
0.000707202
0.000707272
0.000707299
0.000707302
0.000707246
0.000707213
0.00070719
0.000707161
0.000707164
0.000707168
0.000707116
0.00070712
0.000707161
0.000707138
0.000707146
0.00070706
0.000707068
0.000707019
0.000707023
0.000707012
0.000706993
0.000707038
0.000706982
0.000707
0.000706974
0.000706937
0.000706919
0.000706907
0.000706859
0.000706911
0.000706863
0.000706881
0.000706837
0.000706859
0.000706848
0.000706743
0.000706825
0.000706788
0.000706725
0.000706747
0.000706766
0.000706762
0.000706632
0.000706725
0.000706628
0.000706594
0.000706624
0.000706654
0.000706524
0.000706624
0.000706591
0.000706565
0.000706565
0.000706475
0.000706423
0.000706419
0.000706431
0.000706434
0.000706326
0.000706442
0.000706363
0.000706438
0.000706352
0.000706263
0.000706311
0.000706229
0.000706185
0.000706162
0.000706147
0.000706192
0.000706114
0.000706106
0.000706088
0.000706043
0.000706032
0.000706017
0.00070595
0.000705939
0.000705961
0.000705864
0.000705887
0.000705812
0.000705808
0.000454195
0.000454202
0.000454288
0.000454266
0.000454351
0.000454474
0.000454474
0.000454508
0.000454605
0.000454605
0.000454582
0.000454679
0.000454776
0.000454783
0.00045485
0.000454921
0.000454955
0.000454988
0.000455033
0.000455096
0.000455141
0.000455208
0.000455257
0.000455268
0.000455309
0.000455417
0.000455458
0.00045551
0.000455547
0.000455532
0.000455614
0.000455692
0.000455685
0.000455767
0.000455782
0.000455827
0.000455853
0.000455905
0.000455957
0.000455987
0.000456069
0.000456035
0.000456121
0.000456121
0.00045624
0.000456244
0.00045627
0.0004563
0.0004563
0.000456423
0.000456363
0.000456437
0.000456437
0.000456505
0.000456542
0.000456516
0.000456616
0.000456624
0.000456635
0.000456739
0.00045675
0.000456762
0.000456814
0.000456851
0.000456873
0.000456885
0.000456907
0.000456922
0.000456937
0.000456959
0.000456952
0.000456948
0.000457056
0.000457082
0.000457048
0.000457041
0.000457067
0.00045716
0.00045725
0.000457183
0.000457186
0.000457216
0.000457246
0.000457257
0.000457261
0.000457291
0.000457305
0.000457399
0.000457402
0.000457358
0.000457395
0.000457402
0.000457358
0.000457402
0.000457443
0.000457432
0.000457473
0.000457402
0.00045751
0.000457499
0.000457458
0.000165489
0.000165544
0.000165667
0.000165638
0.000165734
0.000165913
0.000165887
0.000166036
0.000166103
0.0001662
0.000166241
0.000166275
0.000166371
0.000166498
0.000166535
0.00016658
0.00016674
0.000166714
0.000166826
0.000166867
0.000166938
0.000167079
0.000167098
0.000167169
0.00016728
0.000167325
0.000167441
0.000167456
0.000167482
0.000167657
0.000167705
0.000167701
0.000167757
0.000167873
0.000167903
0.000167958
0.000168048
0.000168078
0.000168111
0.000168145
0.000168268
0.000168342
0.000168376
0.000168473
0.000168573
0.000168554
0.000168618
0.000168692
)
;

boundaryField
{
    movingWall
    {
        type            zeroGradient;
    }
    fixedWalls
    {
        type            zeroGradient;
    }
    frontAndBack
    {
        type            empty;
    }
}

