/*--------------------------------*- C++ -*----------------------------------*\
| =========                 |                                                 |
| \\      /  F ield         | OpenFOAM: The Open Source CFD Toolbox           |
|  \\    /   O peration     | Version:  v2006                                 |
|   \\  /    A nd           | Website:  www.openfoam.com                      |
|    \\/     M anipulation  |                                                 |
\*---------------------------------------------------------------------------*/
FoamFile
{
    version     2.0;
    format      ascii;
    class       volVectorField;
    location    "0.5";
    object      U;
}
// * * * * * * * * * * * * * * * * * * * * * * * * * * * * * * * * * * * * * //

dimensions      [0 1 -1 0 0 0 0];


internalField   nonuniform List<vector> 
52500
(
(-1.37416e-05 2.24451e-05 0)
(-4.12306e-05 2.24516e-05 0)
(-6.87286e-05 2.24605e-05 0)
(-9.62404e-05 2.24739e-05 0)
(-0.000123771 2.24919e-05 0)
(-0.000151327 2.25143e-05 0)
(-0.000178913 2.25412e-05 0)
(-0.000206534 2.25726e-05 0)
(-0.000234197 2.26085e-05 0)
(-0.000261906 2.26489e-05 0)
(-0.000289668 2.26938e-05 0)
(-0.000317487 2.27432e-05 0)
(-0.00034537 2.27971e-05 0)
(-0.000373321 2.28556e-05 0)
(-0.000401347 2.29186e-05 0)
(-0.000429453 2.29862e-05 0)
(-0.000457644 2.30583e-05 0)
(-0.000485927 2.3135e-05 0)
(-0.000514306 2.32163e-05 0)
(-0.000542787 2.33022e-05 0)
(-0.000571376 2.33926e-05 0)
(-0.000600079 2.34877e-05 0)
(-0.000628902 2.35874e-05 0)
(-0.000657849 2.36918e-05 0)
(-0.000686927 2.38008e-05 0)
(-0.000716141 2.39145e-05 0)
(-0.000745497 2.40329e-05 0)
(-0.000775002 2.4156e-05 0)
(-0.00080466 2.42839e-05 0)
(-0.000834477 2.44165e-05 0)
(-0.000864459 2.45538e-05 0)
(-0.000894613 2.46959e-05 0)
(-0.000924944 2.48429e-05 0)
(-0.000955457 2.49946e-05 0)
(-0.00098616 2.51512e-05 0)
(-0.00101706 2.53127e-05 0)
(-0.00104815 2.5479e-05 0)
(-0.00107946 2.56502e-05 0)
(-0.00111098 2.58264e-05 0)
(-0.00114271 2.60075e-05 0)
(-0.00117467 2.61936e-05 0)
(-0.00120686 2.63846e-05 0)
(-0.00123929 2.65807e-05 0)
(-0.00127196 2.67819e-05 0)
(-0.00130489 2.6988e-05 0)
(-0.00133806 2.71993e-05 0)
(-0.0013715 2.74157e-05 0)
(-0.00140521 2.76372e-05 0)
(-0.00143919 2.78639e-05 0)
(-0.00147345 2.80957e-05 0)
(-0.001508 2.83328e-05 0)
(-0.00154284 2.85751e-05 0)
(-0.00157798 2.88226e-05 0)
(-0.00161343 2.90754e-05 0)
(-0.00164919 2.93335e-05 0)
(-0.00168527 2.9597e-05 0)
(-0.00172168 2.98657e-05 0)
(-0.00175842 3.01399e-05 0)
(-0.0017955 3.04194e-05 0)
(-0.00183292 3.07044e-05 0)
(-0.0018707 3.09948e-05 0)
(-0.00190883 3.12906e-05 0)
(-0.00194733 3.15919e-05 0)
(-0.00198621 3.18987e-05 0)
(-0.00202546 3.22111e-05 0)
(-0.00206509 3.25289e-05 0)
(-0.00210513 3.28523e-05 0)
(-0.00214555 3.31813e-05 0)
(-0.00218639 3.35159e-05 0)
(-0.00222764 3.3856e-05 0)
(-0.00226931 3.42018e-05 0)
(-0.0023114 3.45531e-05 0)
(-0.00235393 3.49101e-05 0)
(-0.0023969 3.52727e-05 0)
(-0.00244032 3.5641e-05 0)
(-0.00248419 3.60149e-05 0)
(-0.00252853 3.63945e-05 0)
(-0.00257333 3.67797e-05 0)
(-0.0026186 3.71705e-05 0)
(-0.00266436 3.7567e-05 0)
(-0.00271061 3.79691e-05 0)
(-0.00275735 3.83769e-05 0)
(-0.0028046 3.87902e-05 0)
(-0.00285236 3.92091e-05 0)
(-0.00290063 3.96336e-05 0)
(-0.00294942 4.00637e-05 0)
(-0.00299875 4.04993e-05 0)
(-0.00304861 4.09404e-05 0)
(-0.00309902 4.13869e-05 0)
(-0.00314997 4.18389e-05 0)
(-0.00320148 4.22962e-05 0)
(-0.00325356 4.27589e-05 0)
(-0.0033062 4.32268e-05 0)
(-0.00335943 4.37e-05 0)
(-0.00341323 4.41783e-05 0)
(-0.00346762 4.46617e-05 0)
(-0.00352261 4.51501e-05 0)
(-0.0035782 4.56435e-05 0)
(-0.00363439 4.61417e-05 0)
(-0.0036912 4.66446e-05 0)
(-0.00374863 4.71522e-05 0)
(-0.00380668 4.76643e-05 0)
(-0.00386536 4.81808e-05 0)
(-0.00392468 4.87016e-05 0)
(-0.00398464 4.92266e-05 0)
(-0.00404524 4.97555e-05 0)
(-0.00410649 5.02883e-05 0)
(-0.0041684 5.08248e-05 0)
(-0.00423097 5.13648e-05 0)
(-0.0042942 5.19082e-05 0)
(-0.00435809 5.24546e-05 0)
(-0.00442266 5.3004e-05 0)
(-0.0044879 5.35561e-05 0)
(-0.00455382 5.41106e-05 0)
(-0.00462042 5.46673e-05 0)
(-0.0046877 5.5226e-05 0)
(-0.00475567 5.57863e-05 0)
(-0.00482433 5.6348e-05 0)
(-0.00489367 5.69108e-05 0)
(-0.0049637 5.74743e-05 0)
(-0.00503443 5.80382e-05 0)
(-0.00510584 5.86022e-05 0)
(-0.00517794 5.91658e-05 0)
(-0.00525074 5.97287e-05 0)
(-0.00532422 6.02904e-05 0)
(-0.00539839 6.08505e-05 0)
(-0.00547324 6.14085e-05 0)
(-0.00554878 6.19641e-05 0)
(-0.00562499 6.25166e-05 0)
(-0.00570188 6.30655e-05 0)
(-0.00577944 6.36102e-05 0)
(-0.00585766 6.41503e-05 0)
(-0.00593654 6.46851e-05 0)
(-0.00601607 6.52139e-05 0)
(-0.00609624 6.57362e-05 0)
(-0.00617705 6.62511e-05 0)
(-0.00625849 6.67581e-05 0)
(-0.00634054 6.72563e-05 0)
(-0.0064232 6.7745e-05 0)
(-0.00650644 6.82233e-05 0)
(-0.00659027 6.86905e-05 0)
(-0.00667466 6.91456e-05 0)
(-0.0067596 6.95877e-05 0)
(-0.00684507 7.0016e-05 0)
(-0.00693106 7.04293e-05 0)
(-0.00701754 7.08268e-05 0)
(-0.0071045 7.12072e-05 0)
(-0.00719192 7.15696e-05 0)
(-0.00727977 7.19128e-05 0)
(-0.00736802 7.22357e-05 0)
(-0.00745666 7.25369e-05 0)
(-0.00754565 7.28153e-05 0)
(-0.00763497 7.30696e-05 0)
(-0.00772459 7.32985e-05 0)
(-0.00781446 7.35004e-05 0)
(-0.00790457 7.36742e-05 0)
(-0.00799487 7.38181e-05 0)
(-0.00808533 7.39309e-05 0)
(-0.00817591 7.40108e-05 0)
(-0.00826657 7.40564e-05 0)
(-0.00835726 7.4066e-05 0)
(-0.00844793 7.40378e-05 0)
(-0.00853855 7.39703e-05 0)
(-0.00862906 7.38615e-05 0)
(-0.00871941 7.37099e-05 0)
(-0.00880955 7.35134e-05 0)
(-0.00889942 7.32702e-05 0)
(-0.00898896 7.29785e-05 0)
(-0.00907811 7.26362e-05 0)
(-0.00916681 7.22413e-05 0)
(-0.009255 7.1792e-05 0)
(-0.0093426 7.1286e-05 0)
(-0.00942954 7.07215e-05 0)
(-0.00951576 7.00962e-05 0)
(-0.00960117 6.9408e-05 0)
(-0.0096857 6.86549e-05 0)
(-0.00976927 6.78347e-05 0)
(-0.00985179 6.69452e-05 0)
(-0.00993318 6.59843e-05 0)
(-0.0100133 6.49498e-05 0)
(-0.0100922 6.38396e-05 0)
(-0.0101696 6.26515e-05 0)
(-0.0102456 6.13834e-05 0)
(-0.0103199 6.00332e-05 0)
(-0.0103925 5.85989e-05 0)
(-0.0104634 5.70783e-05 0)
(-0.0105323 5.54696e-05 0)
(-0.0105992 5.37707e-05 0)
(-0.0106639 5.19797e-05 0)
(-0.0107264 5.0095e-05 0)
(-0.0107865 4.81146e-05 0)
(-0.0108442 4.6037e-05 0)
(-0.0108992 4.38606e-05 0)
(-0.0109515 4.15841e-05 0)
(-0.011001 3.9206e-05 0)
(-0.0110475 3.67252e-05 0)
(-0.0110909 3.41405e-05 0)
(-0.0111311 3.14511e-05 0)
(-0.0111679 2.86561e-05 0)
(-0.0112012 2.57551e-05 0)
(-0.0112309 2.27477e-05 0)
(-0.0112568 1.96337e-05 0)
(-0.0112789 1.6413e-05 0)
(-0.011297 1.30854e-05 0)
(-0.0113109 9.65282e-06 0)
(-0.0113206 6.11414e-06 0)
(-0.0113258 2.47332e-06 0)
(-0.0113266 -1.27117e-06 0)
(-0.0113227 -5.11811e-06 0)
(-0.011314 -9.06458e-06 0)
(-0.0113004 -1.31083e-05 0)
(-0.0112819 -1.7247e-05 0)
(-0.0112582 -2.14776e-05 0)
(-0.0112292 -2.57973e-05 0)
(-0.0111949 -3.02025e-05 0)
(-0.0111552 -3.46895e-05 0)
(-0.0111099 -3.9254e-05 0)
(-0.011059 -4.38917e-05 0)
(-0.0110024 -4.85976e-05 0)
(-0.01094 -5.33666e-05 0)
(-0.0108717 -5.8193e-05 0)
(-0.0107974 -6.30709e-05 0)
(-0.0107172 -6.79939e-05 0)
(-0.0106309 -7.29555e-05 0)
(-0.0105385 -7.79487e-05 0)
(-0.01044 -8.2966e-05 0)
(-0.0103353 -8.79998e-05 0)
(-0.0102244 -9.30422e-05 0)
(-0.0101074 -9.80849e-05 0)
(-0.00998424 -0.000103119 0)
(-0.0098549 -0.000108136 0)
(-0.00971943 -0.000113127 0)
(-0.00957787 -0.000118083 0)
(-0.00943027 -0.000122993 0)
(-0.00927669 -0.000127848 0)
(-0.00911721 -0.000132639 0)
(-0.0089519 -0.000137356 0)
(-0.00878088 -0.000141987 0)
(-0.00860423 -0.000146525 0)
(-0.0084221 -0.000150957 0)
(-0.00823461 -0.000155274 0)
(-0.00804191 -0.000159467 0)
(-0.00784415 -0.000163524 0)
(-0.00764152 -0.000167437 0)
(-0.00743419 -0.000171195 0)
(-0.00722236 -0.000174789 0)
(-0.00700624 -0.00017821 0)
(-0.00678603 -0.00018145 0)
(-0.00656198 -0.000184498 0)
(-0.00633432 -0.000187347 0)
(-0.00610329 -0.00018999 0)
(-0.00586916 -0.000192418 0)
(-0.00563219 -0.000194624 0)
(-0.00539266 -0.000196603 0)
(-0.00515085 -0.000198348 0)
(-0.00490705 -0.000199853 0)
(-0.00466155 -0.000201114 0)
(-0.00441467 -0.000202127 0)
(-0.00416669 -0.000202888 0)
(-0.00391795 -0.000203393 0)
(-0.00366874 -0.000203641 0)
(-0.00341938 -0.00020363 0)
(-0.0031702 -0.000203359 0)
(-0.00292151 -0.000202827 0)
(-0.00267363 -0.000202034 0)
(-0.00242688 -0.000200983 0)
(-0.00218158 -0.000199674 0)
(-0.00193803 -0.00019811 0)
(-0.00169656 -0.000196293 0)
(-0.00145746 -0.000194228 0)
(-0.00122103 -0.00019192 0)
(-0.000987586 -0.000189372 0)
(-0.000757399 -0.00018659 0)
(-0.000530756 -0.000183582 0)
(-0.000307928 -0.000180353 0)
(-8.90933e-05 -0.000176905 0)
(0.00012538 -0.000173212 0)
(0.000335099 -0.000169389 0)
(0.000539939 -0.000165345 0)
(0.000739773 -0.00016112 0)
(0.000934368 -0.000156719 0)
(0.00112347 -0.000152155 0)
(0.00130689 -0.000147436 0)
(0.00148453 -0.000142569 0)
(0.00165606 -0.000137603 0)
(0.00182134 -0.000132477 0)
(0.00198035 -0.000127242 0)
(0.00213289 -0.000121903 0)
(0.00227883 -0.000116473 0)
(0.00241808 -0.000110959 0)
(0.00255053 -0.000105374 0)
(0.0026761 -9.97252e-05 0)
(0.00279473 -9.40247e-05 0)
(0.00290635 -8.82812e-05 0)
(0.00301091 -8.25061e-05 0)
(0.0031084 -7.67071e-05 0)
(0.00319877 -7.08959e-05 0)
(0.00328201 -6.50793e-05 0)
(0.00335814 -5.92661e-05 0)
(0.00342716 -5.34675e-05 0)
(0.0034891 -4.76898e-05 0)
(0.00354398 -4.19427e-05 0)
(0.00359184 -3.6233e-05 0)
(0.00363274 -3.05689e-05 0)
(0.00366674 -2.49567e-05 0)
(0.0036939 -1.94047e-05 0)
(0.0037143 -1.39184e-05 0)
(0.00372803 -8.5077e-06 0)
(0.00373517 -3.15842e-06 0)
(0.0037358 2.09019e-06 0)
(0.00373007 7.25477e-06 0)
(0.00371807 1.23287e-05 0)
(0.00369992 1.73024e-05 0)
(0.00367576 2.21744e-05 0)
(0.00364569 2.69353e-05 0)
(0.00360985 3.15913e-05 0)
(0.00356839 3.61378e-05 0)
(0.00352145 4.05615e-05 0)
(0.00346913 4.48601e-05 0)
(0.00341162 4.90489e-05 0)
(0.00334907 5.31101e-05 0)
(0.00328162 5.7046e-05 0)
(0.00320944 6.08531e-05 0)
(0.00313267 6.45299e-05 0)
(0.00305148 6.80762e-05 0)
(0.00296603 7.14904e-05 0)
(0.00287648 7.47692e-05 0)
(0.00278299 7.79188e-05 0)
(0.00268573 8.09308e-05 0)
(0.00258487 8.38041e-05 0)
(0.00248057 8.65439e-05 0)
(0.002373 8.91449e-05 0)
(0.00226232 9.16109e-05 0)
(0.00214871 9.39404e-05 0)
(0.00203234 9.61327e-05 0)
(0.00191336 9.81854e-05 0)
(0.00179195 0.000100103 0)
(0.00166828 0.000101884 0)
(0.00154251 0.000103525 0)
(0.00141482 0.000105029 0)
(0.00128537 0.000106396 0)
(0.00115433 0.000107626 0)
(0.00102187 0.000108719 0)
(0.000888158 0.000109674 0)
(0.000753356 0.000110494 0)
(0.000617635 0.000111176 0)
(0.000481162 0.000111722 0)
(0.000344104 0.000112131 0)
(0.000206629 0.000112404 0)
(6.89035e-05 0.000112539 0)
(-1.37344e-05 6.73254e-05 0)
(-4.12107e-05 6.73463e-05 0)
(-6.8695e-05 6.73729e-05 0)
(-9.61934e-05 6.74132e-05 0)
(-0.000123711 6.74669e-05 0)
(-0.000151253 6.75342e-05 0)
(-0.000178826 6.76148e-05 0)
(-0.000206434 6.7709e-05 0)
(-0.000234083 6.78166e-05 0)
(-0.000261779 6.79378e-05 0)
(-0.000289527 6.80725e-05 0)
(-0.000317333 6.82207e-05 0)
(-0.000345202 6.83825e-05 0)
(-0.00037314 6.85579e-05 0)
(-0.000401152 6.87469e-05 0)
(-0.000429244 6.89496e-05 0)
(-0.000457422 6.91659e-05 0)
(-0.000485691 6.93959e-05 0)
(-0.000514056 6.96397e-05 0)
(-0.000542524 6.98973e-05 0)
(-0.000571099 7.01687e-05 0)
(-0.000599788 7.04539e-05 0)
(-0.000628597 7.0753e-05 0)
(-0.00065753 7.10661e-05 0)
(-0.000686594 7.13932e-05 0)
(-0.000715794 7.17342e-05 0)
(-0.000745137 7.20894e-05 0)
(-0.000774627 7.24587e-05 0)
(-0.00080427 7.28422e-05 0)
(-0.000834073 7.32399e-05 0)
(-0.000864042 7.36519e-05 0)
(-0.000894181 7.40782e-05 0)
(-0.000924497 7.45189e-05 0)
(-0.000954997 7.49742e-05 0)
(-0.000985684 7.54439e-05 0)
(-0.00101657 7.59282e-05 0)
(-0.00104765 7.64272e-05 0)
(-0.00107894 7.69408e-05 0)
(-0.00111044 7.74693e-05 0)
(-0.00114216 7.80126e-05 0)
(-0.00117411 7.85707e-05 0)
(-0.00120629 7.91439e-05 0)
(-0.0012387 7.97321e-05 0)
(-0.00127136 8.03354e-05 0)
(-0.00130426 8.0954e-05 0)
(-0.00133742 8.15877e-05 0)
(-0.00137085 8.22368e-05 0)
(-0.00140454 8.29013e-05 0)
(-0.0014385 8.35813e-05 0)
(-0.00147275 8.42768e-05 0)
(-0.00150728 8.49879e-05 0)
(-0.00154211 8.57147e-05 0)
(-0.00157724 8.64573e-05 0)
(-0.00161267 8.72157e-05 0)
(-0.00164842 8.799e-05 0)
(-0.00168448 8.87802e-05 0)
(-0.00172087 8.95865e-05 0)
(-0.00175759 9.04089e-05 0)
(-0.00179466 9.12475e-05 0)
(-0.00183206 9.21023e-05 0)
(-0.00186982 9.29734e-05 0)
(-0.00190794 9.38609e-05 0)
(-0.00194643 9.47648e-05 0)
(-0.00198528 9.56852e-05 0)
(-0.00202452 9.66222e-05 0)
(-0.00206414 9.75757e-05 0)
(-0.00210415 9.8546e-05 0)
(-0.00214457 9.95329e-05 0)
(-0.00218539 0.000100537 0)
(-0.00222662 0.000101557 0)
(-0.00226827 0.000102594 0)
(-0.00231035 0.000103648 0)
(-0.00235286 0.000104719 0)
(-0.00239582 0.000105807 0)
(-0.00243922 0.000106912 0)
(-0.00248307 0.000108034 0)
(-0.00252739 0.000109172 0)
(-0.00257217 0.000110328 0)
(-0.00261743 0.000111501 0)
(-0.00266318 0.00011269 0)
(-0.00270941 0.000113897 0)
(-0.00275613 0.00011512 0)
(-0.00280336 0.00011636 0)
(-0.0028511 0.000117617 0)
(-0.00289936 0.00011889 0)
(-0.00294814 0.000120181 0)
(-0.00299745 0.000121488 0)
(-0.00304729 0.000122811 0)
(-0.00309768 0.000124151 0)
(-0.00314862 0.000125507 0)
(-0.00320012 0.000126879 0)
(-0.00325218 0.000128267 0)
(-0.00330481 0.000129671 0)
(-0.00335802 0.000131091 0)
(-0.00341181 0.000132526 0)
(-0.00346619 0.000133976 0)
(-0.00352116 0.000135442 0)
(-0.00357674 0.000136922 0)
(-0.00363292 0.000138417 0)
(-0.00368971 0.000139926 0)
(-0.00374713 0.000141449 0)
(-0.00380517 0.000142986 0)
(-0.00386384 0.000144536 0)
(-0.00392314 0.000146099 0)
(-0.00398309 0.000147674 0)
(-0.00404368 0.000149261 0)
(-0.00410492 0.00015086 0)
(-0.00416682 0.00015247 0)
(-0.00422938 0.000154091 0)
(-0.0042926 0.000155721 0)
(-0.00435649 0.000157361 0)
(-0.00442105 0.00015901 0)
(-0.00448629 0.000160667 0)
(-0.0045522 0.000162331 0)
(-0.0046188 0.000164002 0)
(-0.00468608 0.000165679 0)
(-0.00475404 0.00016736 0)
(-0.0048227 0.000169046 0)
(-0.00489204 0.000170736 0)
(-0.00496207 0.000172427 0)
(-0.0050328 0.00017412 0)
(-0.00510422 0.000175813 0)
(-0.00517633 0.000177505 0)
(-0.00524913 0.000179194 0)
(-0.00532261 0.000180881 0)
(-0.00539679 0.000182562 0)
(-0.00547166 0.000184238 0)
(-0.0055472 0.000185906 0)
(-0.00562343 0.000187565 0)
(-0.00570034 0.000189213 0)
(-0.00577791 0.000190849 0)
(-0.00585615 0.000192471 0)
(-0.00593505 0.000194077 0)
(-0.00601461 0.000195665 0)
(-0.00609481 0.000197233 0)
(-0.00617565 0.00019878 0)
(-0.00625711 0.000200303 0)
(-0.0063392 0.0002018 0)
(-0.00642189 0.000203268 0)
(-0.00650517 0.000204705 0)
(-0.00658904 0.000206109 0)
(-0.00667347 0.000207477 0)
(-0.00675846 0.000208806 0)
(-0.00684398 0.000210093 0)
(-0.00693002 0.000211336 0)
(-0.00701657 0.000212531 0)
(-0.00710359 0.000213675 0)
(-0.00719107 0.000214765 0)
(-0.00727898 0.000215798 0)
(-0.00736731 0.00021677 0)
(-0.00745602 0.000217677 0)
(-0.00754509 0.000218516 0)
(-0.00763449 0.000219282 0)
(-0.0077242 0.000219972 0)
(-0.00781417 0.000220582 0)
(-0.00790437 0.000221107 0)
(-0.00799478 0.000221543 0)
(-0.00808535 0.000221885 0)
(-0.00817604 0.000222129 0)
(-0.00826681 0.00022227 0)
(-0.00835762 0.000222303 0)
(-0.00844842 0.000222223 0)
(-0.00853918 0.000222025 0)
(-0.00862983 0.000221703 0)
(-0.00872032 0.000221253 0)
(-0.00881061 0.000220669 0)
(-0.00890064 0.000219944 0)
(-0.00899034 0.000219074 0)
(-0.00907966 0.000218052 0)
(-0.00916854 0.000216873 0)
(-0.00925691 0.00021553 0)
(-0.0093447 0.000214018 0)
(-0.00943184 0.000212329 0)
(-0.00951826 0.000210459 0)
(-0.00960388 0.0002084 0)
(-0.00968863 0.000206146 0)
(-0.00977241 0.000203691 0)
(-0.00985516 0.000201028 0)
(-0.00993679 0.000198151 0)
(-0.0100172 0.000195053 0)
(-0.0100963 0.000191727 0)
(-0.010174 0.000188169 0)
(-0.0102502 0.00018437 0)
(-0.0103248 0.000180324 0)
(-0.0103977 0.000176026 0)
(-0.0104688 0.00017147 0)
(-0.010538 0.000166648 0)
(-0.0106052 0.000161556 0)
(-0.0106703 0.000156188 0)
(-0.0107331 0.000150538 0)
(-0.0107935 0.000144601 0)
(-0.0108515 0.000138372 0)
(-0.0109068 0.000131847 0)
(-0.0109595 0.00012502 0)
(-0.0110093 0.000117889 0)
(-0.0110561 0.000110449 0)
(-0.0110998 0.000102697 0)
(-0.0111403 9.46302e-05 0)
(-0.0111775 8.62469e-05 0)
(-0.0112111 7.75448e-05 0)
(-0.0112412 6.85226e-05 0)
(-0.0112674 5.918e-05 0)
(-0.0112899 4.95185e-05 0)
(-0.0113083 3.95355e-05 0)
(-0.0113225 2.92359e-05 0)
(-0.0113325 1.86201e-05 0)
(-0.0113381 7.69531e-06 0)
(-0.0113392 -3.54412e-06 0)
(-0.0113357 -1.50906e-05 0)
(-0.0113273 -2.6936e-05 0)
(-0.011314 -3.9074e-05 0)
(-0.0112958 -5.14974e-05 0)
(-0.0112724 -6.41979e-05 0)
(-0.0112437 -7.71663e-05 0)
(-0.0112097 -9.03922e-05 0)
(-0.0111702 -0.000103864 0)
(-0.0111252 -0.00011757 0)
(-0.0110745 -0.000131496 0)
(-0.0110181 -0.000145628 0)
(-0.0109559 -0.00015995 0)
(-0.0108877 -0.000174446 0)
(-0.0108137 -0.000189096 0)
(-0.0107335 -0.000203883 0)
(-0.0106474 -0.000218787 0)
(-0.0105551 -0.000233786 0)
(-0.0104566 -0.000248859 0)
(-0.010352 -0.000263982 0)
(-0.0102411 -0.000279131 0)
(-0.0101241 -0.000294282 0)
(-0.0100009 -0.000309409 0)
(-0.00987146 -0.000324485 0)
(-0.00973588 -0.000339482 0)
(-0.00959419 -0.000354374 0)
(-0.00944643 -0.000369131 0)
(-0.00929265 -0.000383724 0)
(-0.00913294 -0.000398123 0)
(-0.00896737 -0.000412299 0)
(-0.00879605 -0.000426222 0)
(-0.00861907 -0.00043986 0)
(-0.00843658 -0.000453184 0)
(-0.00824869 -0.000466163 0)
(-0.00805556 -0.000478767 0)
(-0.00785735 -0.000490966 0)
(-0.00765423 -0.00050273 0)
(-0.00744638 -0.00051403 0)
(-0.00723399 -0.000524838 0)
(-0.00701728 -0.000535125 0)
(-0.00679647 -0.000544866 0)
(-0.00657177 -0.000554033 0)
(-0.00634344 -0.000562602 0)
(-0.00611172 -0.000570549 0)
(-0.00587688 -0.000577852 0)
(-0.00563917 -0.000584489 0)
(-0.00539888 -0.000590441 0)
(-0.0051563 -0.00059569 0)
(-0.0049117 -0.00060022 0)
(-0.0046654 -0.000604015 0)
(-0.00441769 -0.000607063 0)
(-0.00416889 -0.000609353 0)
(-0.0039193 -0.000610876 0)
(-0.00366924 -0.000611625 0)
(-0.00341904 -0.000611594 0)
(-0.003169 -0.00061078 0)
(-0.00291946 -0.000609184 0)
(-0.00267073 -0.000606804 0)
(-0.00242313 -0.000603645 0)
(-0.00217698 -0.000599711 0)
(-0.0019326 -0.000595011 0)
(-0.00169031 -0.000589551 0)
(-0.0014504 -0.000583345 0)
(-0.00121319 -0.000576405 0)
(-0.000978962 -0.000568746 0)
(-0.00074802 -0.000560386 0)
(-0.00052064 -0.000551345 0)
(-0.000297091 -0.000541648 0)
(-7.74966e-05 -0.000531323 0)
(0.000137593 -0.000520158 0)
(0.000347889 -0.000508646 0)
(0.000553387 -0.000496527 0)
(0.000753808 -0.000483825 0)
(0.00094896 -0.000470609 0)
(0.00113858 -0.00045689 0)
(0.0013225 -0.000442712 0)
(0.00150055 -0.000428098 0)
(0.00167251 -0.000413125 0)
(0.00183822 -0.000397733 0)
(0.00199759 -0.000382004 0)
(0.00215045 -0.000365964 0)
(0.00229668 -0.000349646 0)
(0.00243618 -0.000333078 0)
(0.00256886 -0.000316295 0)
(0.00269462 -0.000299322 0)
(0.0028134 -0.000282194 0)
(0.00292514 -0.000264937 0)
(0.0030298 -0.000247585 0)
(0.00312735 -0.000230162 0)
(0.00321775 -0.000212705 0)
(0.003301 -0.00019523 0)
(0.0033771 -0.000177768 0)
(0.00344607 -0.000160351 0)
(0.00350792 -0.000142993 0)
(0.00356269 -0.000125732 0)
(0.00361042 -0.000108582 0)
(0.00365116 -9.15705e-05 0)
(0.00368497 -7.47151e-05 0)
(0.00371193 -5.80399e-05 0)
(0.0037321 -4.15589e-05 0)
(0.00374561 -2.52984e-05 0)
(0.00375248 -9.27334e-06 0)
(0.00375282 6.50273e-06 0)
(0.0037468 2.20127e-05 0)
(0.00373449 3.72387e-05 0)
(0.00371602 5.21736e-05 0)
(0.00369151 6.67984e-05 0)
(0.0036611 8.10986e-05 0)
(0.00362491 9.50735e-05 0)
(0.00358307 0.000108714 0)
(0.00353573 0.000121995 0)
(0.00348303 0.000134911 0)
(0.00342513 0.000147476 0)
(0.00336217 0.000159668 0)
(0.00329431 0.000171476 0)
(0.00322171 0.000182904 0)
(0.00314451 0.000193938 0)
(0.00306289 0.000204581 0)
(0.00297701 0.000214828 0)
(0.00288703 0.00022467 0)
(0.0027931 0.000234111 0)
(0.00269539 0.000243151 0)
(0.00259409 0.000251778 0)
(0.00248934 0.000259998 0)
(0.00238132 0.000267806 0)
(0.0022702 0.000275205 0)
(0.00215614 0.000282193 0)
(0.00203931 0.000288768 0)
(0.00191988 0.00029493 0)
(0.00179803 0.00030068 0)
(0.0016739 0.000306018 0)
(0.00154768 0.000310943 0)
(0.00141954 0.000315455 0)
(0.00128964 0.000319556 0)
(0.00115815 0.000323246 0)
(0.00102524 0.000326525 0)
(0.000891077 0.000329392 0)
(0.000755826 0.00033185 0)
(0.000619654 0.000333897 0)
(0.000482732 0.000335534 0)
(0.000345227 0.000336762 0)
(0.000207303 0.00033758 0)
(6.91276e-05 0.000337984 0)
(-1.37198e-05 0.00011217 0)
(-4.11668e-05 0.000112205 0)
(-6.86217e-05 0.000112249 0)
(-9.60907e-05 0.000112316 0)
(-0.000123579 0.000112406 0)
(-0.000151092 0.000112518 0)
(-0.000178635 0.000112652 0)
(-0.000206213 0.000112809 0)
(-0.000233833 0.000112989 0)
(-0.000261499 0.000113191 0)
(-0.000289218 0.000113415 0)
(-0.000316994 0.000113662 0)
(-0.000344833 0.000113932 0)
(-0.000372742 0.000114224 0)
(-0.000400724 0.000114539 0)
(-0.000428786 0.000114876 0)
(-0.000456934 0.000115237 0)
(-0.000485173 0.00011562 0)
(-0.000513508 0.000116026 0)
(-0.000541946 0.000116455 0)
(-0.000570491 0.000116908 0)
(-0.00059915 0.000117383 0)
(-0.000627928 0.000117881 0)
(-0.000656831 0.000118403 0)
(-0.000685864 0.000118948 0)
(-0.000715033 0.000119516 0)
(-0.000744345 0.000120108 0)
(-0.000773804 0.000120723 0)
(-0.000803417 0.000121362 0)
(-0.000833189 0.000122025 0)
(-0.000863126 0.000122712 0)
(-0.000893233 0.000123422 0)
(-0.000923518 0.000124156 0)
(-0.000953986 0.000124915 0)
(-0.000984642 0.000125698 0)
(-0.00101549 0.000126505 0)
(-0.00104654 0.000127336 0)
(-0.0010778 0.000128192 0)
(-0.00110927 0.000129073 0)
(-0.00114096 0.000129978 0)
(-0.00117287 0.000130908 0)
(-0.00120502 0.000131863 0)
(-0.0012374 0.000132843 0)
(-0.00127002 0.000133848 0)
(-0.00130289 0.000134879 0)
(-0.00133602 0.000135935 0)
(-0.00136941 0.000137017 0)
(-0.00140307 0.000138124 0)
(-0.001437 0.000139257 0)
(-0.00147121 0.000140416 0)
(-0.00150571 0.000141601 0)
(-0.0015405 0.000142812 0)
(-0.0015756 0.00014405 0)
(-0.00161099 0.000145313 0)
(-0.0016467 0.000146604 0)
(-0.00168273 0.000147921 0)
(-0.00171909 0.000149264 0)
(-0.00175578 0.000150635 0)
(-0.0017928 0.000152032 0)
(-0.00183018 0.000153457 0)
(-0.0018679 0.000154908 0)
(-0.00190598 0.000156387 0)
(-0.00194443 0.000157894 0)
(-0.00198325 0.000159428 0)
(-0.00202245 0.000160989 0)
(-0.00206203 0.000162578 0)
(-0.00210201 0.000164195 0)
(-0.00214239 0.00016584 0)
(-0.00218317 0.000167512 0)
(-0.00222437 0.000169213 0)
(-0.00226598 0.000170942 0)
(-0.00230802 0.000172698 0)
(-0.0023505 0.000174483 0)
(-0.00239342 0.000176297 0)
(-0.00243678 0.000178138 0)
(-0.0024806 0.000180007 0)
(-0.00252488 0.000181905 0)
(-0.00256963 0.000183831 0)
(-0.00261485 0.000185786 0)
(-0.00266055 0.000187768 0)
(-0.00270675 0.000189779 0)
(-0.00275344 0.000191818 0)
(-0.00280063 0.000193885 0)
(-0.00284833 0.00019598 0)
(-0.00289655 0.000198103 0)
(-0.00294529 0.000200254 0)
(-0.00299457 0.000202432 0)
(-0.00304438 0.000204638 0)
(-0.00309473 0.000206871 0)
(-0.00314564 0.000209132 0)
(-0.0031971 0.000211419 0)
(-0.00324912 0.000213733 0)
(-0.00330172 0.000216074 0)
(-0.00335489 0.00021844 0)
(-0.00340865 0.000220833 0)
(-0.00346299 0.000223251 0)
(-0.00351793 0.000225694 0)
(-0.00357347 0.000228162 0)
(-0.00362963 0.000230655 0)
(-0.00368639 0.000233171 0)
(-0.00374377 0.00023571 0)
(-0.00380178 0.000238272 0)
(-0.00386043 0.000240857 0)
(-0.0039197 0.000243463 0)
(-0.00397962 0.000246089 0)
(-0.00404019 0.000248736 0)
(-0.0041014 0.000251403 0)
(-0.00416328 0.000254087 0)
(-0.00422581 0.00025679 0)
(-0.00428901 0.000259509 0)
(-0.00435288 0.000262245 0)
(-0.00441742 0.000264994 0)
(-0.00448264 0.000267758 0)
(-0.00454854 0.000270534 0)
(-0.00461512 0.000273321 0)
(-0.00468239 0.000276118 0)
(-0.00475034 0.000278924 0)
(-0.00481899 0.000281737 0)
(-0.00488833 0.000284555 0)
(-0.00495836 0.000287377 0)
(-0.00502908 0.000290201 0)
(-0.0051005 0.000293026 0)
(-0.00517261 0.00029585 0)
(-0.00524541 0.00029867 0)
(-0.00531891 0.000301484 0)
(-0.0053931 0.000304291 0)
(-0.00546798 0.000307088 0)
(-0.00554354 0.000309872 0)
(-0.00561979 0.000312642 0)
(-0.00569672 0.000315393 0)
(-0.00577432 0.000318125 0)
(-0.00585259 0.000320834 0)
(-0.00593153 0.000323516 0)
(-0.00601113 0.000326169 0)
(-0.00609137 0.000328789 0)
(-0.00617226 0.000331374 0)
(-0.00625378 0.000333918 0)
(-0.00633592 0.00033642 0)
(-0.00641867 0.000338874 0)
(-0.00650203 0.000341277 0)
(-0.00658597 0.000343624 0)
(-0.00667048 0.000345912 0)
(-0.00675556 0.000348135 0)
(-0.00684117 0.00035029 0)
(-0.00692732 0.00035237 0)
(-0.00701396 0.000354371 0)
(-0.0071011 0.000356288 0)
(-0.0071887 0.000358115 0)
(-0.00727674 0.000359847 0)
(-0.0073652 0.000361477 0)
(-0.00745406 0.000363 0)
(-0.00754328 0.000364409 0)
(-0.00763285 0.000365698 0)
(-0.00772272 0.000366861 0)
(-0.00781287 0.000367889 0)
(-0.00790326 0.000368777 0)
(-0.00799387 0.000369517 0)
(-0.00808464 0.000370101 0)
(-0.00817555 0.000370522 0)
(-0.00826655 0.000370771 0)
(-0.0083576 0.000370841 0)
(-0.00844866 0.000370723 0)
(-0.00853967 0.000370409 0)
(-0.0086306 0.000369889 0)
(-0.00872138 0.000369155 0)
(-0.00881197 0.000368197 0)
(-0.0089023 0.000367007 0)
(-0.00899233 0.000365573 0)
(-0.00908199 0.000363888 0)
(-0.00917122 0.00036194 0)
(-0.00925995 0.00035972 0)
(-0.00934812 0.000357218 0)
(-0.00943565 0.000354423 0)
(-0.00952247 0.000351324 0)
(-0.00960851 0.000347911 0)
(-0.00969368 0.000344174 0)
(-0.00977792 0.000340101 0)
(-0.00986113 0.000335681 0)
(-0.00994323 0.000330905 0)
(-0.0100241 0.000325761 0)
(-0.0101037 0.000320238 0)
(-0.0101819 0.000314325 0)
(-0.0102587 0.000308012 0)
(-0.0103338 0.000301288 0)
(-0.0104073 0.000294143 0)
(-0.010479 0.000286566 0)
(-0.0105488 0.000278548 0)
(-0.0106165 0.000270078 0)
(-0.0106822 0.000261147 0)
(-0.0107456 0.000251745 0)
(-0.0108067 0.000241865 0)
(-0.0108653 0.000231497 0)
(-0.0109213 0.000220635 0)
(-0.0109746 0.000209269 0)
(-0.0110251 0.000197393 0)
(-0.0110726 0.000185003 0)
(-0.011117 0.000172091 0)
(-0.0111582 0.000158653 0)
(-0.011196 0.000144686 0)
(-0.0112304 0.000130186 0)
(-0.0112611 0.000115151 0)
(-0.0112881 9.95792e-05 0)
(-0.0113112 8.34722e-05 0)
(-0.0113303 6.68323e-05 0)
(-0.0113453 4.96597e-05 0)
(-0.011356 3.19569e-05 0)
(-0.0113623 1.37287e-05 0)
(-0.0113641 -5.00917e-06 0)
(-0.0113611 -2.42668e-05 0)
(-0.0113534 -4.40272e-05 0)
(-0.0113408 -6.42786e-05 0)
(-0.0113231 -8.50086e-05 0)
(-0.0113003 -0.000106204 0)
(-0.0112722 -0.000127848 0)
(-0.0112388 -0.000149925 0)
(-0.0111998 -0.000172415 0)
(-0.0111553 -0.000195298 0)
(-0.0111051 -0.000218552 0)
(-0.0110491 -0.000242152 0)
(-0.0109873 -0.000266072 0)
(-0.0109195 -0.000290283 0)
(-0.0108457 -0.000314757 0)
(-0.0107659 -0.000339462 0)
(-0.0106799 -0.000364364 0)
(-0.0105878 -0.000389428 0)
(-0.0104895 -0.000414617 0)
(-0.010385 -0.000439893 0)
(-0.0102742 -0.000465216 0)
(-0.0101571 -0.000490544 0)
(-0.0100338 -0.000515834 0)
(-0.00990423 -0.000541041 0)
(-0.00976846 -0.000566121 0)
(-0.0096265 -0.000591025 0)
(-0.00947841 -0.000615706 0)
(-0.00932425 -0.000640115 0)
(-0.00916408 -0.000664203 0)
(-0.00899799 -0.00068792 0)
(-0.00882609 -0.000711214 0)
(-0.00864846 -0.000734035 0)
(-0.00846525 -0.000756332 0)
(-0.00827658 -0.000778053 0)
(-0.0080826 -0.000799149 0)
(-0.00788347 -0.000819568 0)
(-0.00767937 -0.000839261 0)
(-0.00747048 -0.000858179 0)
(-0.00725699 -0.000876274 0)
(-0.00703912 -0.0008935 0)
(-0.00681708 -0.000909811 0)
(-0.00659111 -0.000925163 0)
(-0.00636145 -0.000939516 0)
(-0.00612835 -0.000952828 0)
(-0.00589208 -0.000965061 0)
(-0.0056529 -0.000976182 0)
(-0.0054111 -0.000986155 0)
(-0.00516696 -0.000994952 0)
(-0.00492078 -0.00100254 0)
(-0.00467286 -0.00100891 0)
(-0.00442351 -0.00101402 0)
(-0.00417305 -0.00101786 0)
(-0.00392178 -0.00102042 0)
(-0.00367003 -0.00102169 0)
(-0.00341812 -0.00102164 0)
(-0.00316638 -0.00102029 0)
(-0.00291512 -0.00101763 0)
(-0.00266469 -0.00101365 0)
(-0.0024154 -0.00100837 0)
(-0.00216757 -0.0010018 0)
(-0.00192153 -0.000993934 0)
(-0.00167759 -0.000984803 0)
(-0.00143607 -0.00097442 0)
(-0.00119727 -0.000962807 0)
(-0.000961502 -0.000949991 0)
(-0.000729055 -0.000935998 0)
(-0.000500223 -0.000920861 0)
(-0.000275294 -0.000904617 0)
(-5.40593e-05 -0.000887313 0)
(0.000162354 -0.000868813 0)
(0.000373635 -0.000849471 0)
(0.000580424 -0.000829171 0)
(0.000782052 -0.000807924 0)
(0.00097831 -0.000785815 0)
(0.00116898 -0.000762881 0)
(0.00135387 -0.000739154 0)
(0.00153281 -0.000714722 0)
(0.00170562 -0.000689625 0)
(0.00187213 -0.000663892 0)
(0.00203221 -0.000637591 0)
(0.00218571 -0.000610768 0)
(0.00233252 -0.000583482 0)
(0.00247253 -0.000555778 0)
(0.00260564 -0.000527715 0)
(0.00273178 -0.000499337 0)
(0.00285087 -0.000470701 0)
(0.00296286 -0.000441853 0)
(0.0030677 -0.000412846 0)
(0.00316536 -0.000383725 0)
(0.00325582 -0.000354545 0)
(0.00333907 -0.000325337 0)
(0.0034151 -0.000296161 0)
(0.00348396 -0.000267054 0)
(0.00354564 -0.000238059 0)
(0.00360018 -0.000209218 0)
(0.00364764 -0.000180569 0)
(0.00368806 -0.000152151 0)
(0.0037215 -0.000123997 0)
(0.00374805 -9.6143e-05 0)
(0.00376778 -6.86229e-05 0)
(0.00378077 -4.14633e-05 0)
(0.00378712 -1.47167e-05 0)
(0.00378691 1.1631e-05 0)
(0.00378028 3.7525e-05 0)
(0.00376734 6.29387e-05 0)
(0.00374821 8.78625e-05 0)
(0.00372302 0.000112271 0)
(0.00369189 0.000136142 0)
(0.00365497 0.00015947 0)
(0.00361238 0.000182215 0)
(0.00356426 0.000204379 0)
(0.00351078 0.000225943 0)
(0.00345208 0.000246896 0)
(0.0033883 0.000267233 0)
(0.0033196 0.000286935 0)
(0.00324615 0.000305991 0)
(0.00316811 0.000324396 0)
(0.00308563 0.000342145 0)
(0.00299887 0.00035923 0)
(0.00290801 0.000375646 0)
(0.0028132 0.000391385 0)
(0.00271462 0.000406454 0)
(0.00261242 0.000420841 0)
(0.00250678 0.000434544 0)
(0.00239787 0.000447563 0)
(0.00228585 0.000459897 0)
(0.00217089 0.000471543 0)
(0.00205316 0.000482502 0)
(0.00193284 0.000492776 0)
(0.00181008 0.000502359 0)
(0.00168506 0.000511252 0)
(0.00155795 0.00051946 0)
(0.00142891 0.000526981 0)
(0.00129811 0.000533816 0)
(0.00116573 0.000539965 0)
(0.00103193 0.000545428 0)
(0.000896869 0.000550207 0)
(0.000760725 0.0005543 0)
(0.000623661 0.000557711 0)