/*--------------------------------*- C++ -*----------------------------------*\
| =========                 |                                                 |
| \\      /  F ield         | OpenFOAM: The Open Source CFD Toolbox           |
|  \\    /   O peration     | Version:  v2006                                 |
|   \\  /    A nd           | Website:  www.openfoam.com                      |
|    \\/     M anipulation  |                                                 |
\*---------------------------------------------------------------------------*/
FoamFile
{
    version     2.0;
    format      ascii;
    class       volScalarField;
    location    "0";
    object      f;
}
// * * * * * * * * * * * * * * * * * * * * * * * * * * * * * * * * * * * * * //

dimensions      [0 0 0 0 0 0 0];


internalField   nonuniform List<scalar> 
2500
(
4.71482e-83
4.76721e-68
-8.34259e-61
6.61756e-55
-8.13022e-51
7.28337e-48
-3.03193e-45
-1.35583e-42
-4.50302e-41
1.23136e-40
2.6596e-38
3.58743e-37
2.41581e-36
1.93033e-35
8.79668e-35
4.73864e-34
3.96145e-33
2.24451e-32
7.33275e-32
1.06867e-31
-2.62686e-31
-2.14801e-30
-6.68799e-30
-1.14224e-29
-5.20944e-30
3.42861e-29
1.49979e-28
4.21847e-28
9.33485e-28
1.6784e-27
2.503e-27
3.16352e-27
3.45737e-27
3.31689e-27
2.80946e-27
2.06446e-27
1.19166e-27
2.50367e-28
-7.19604e-28
-1.64384e-27
-2.3905e-27
-2.81436e-27
-2.84426e-27
-2.53314e-27
-2.02724e-27
-1.48608e-27
-1.01742e-27
-6.62018e-28
-4.14786e-28
-1.54652e-28
9.84494e-81
2.65936e-66
-3.16973e-60
1.55606e-53
-2.22902e-49
1.49424e-46
-4.11171e-44
-1.85157e-41
-5.66742e-40
3.15918e-40
2.55588e-37
3.21068e-36
2.03365e-35
1.53152e-34
5.48285e-34
1.99539e-33
1.93128e-32
1.24174e-31
4.43915e-31
8.21071e-31
-4.42375e-31
-8.35971e-30
-2.82713e-29
-5.14108e-29
-3.83483e-29
8.26308e-29
4.47813e-28
1.33233e-27
3.03971e-27
5.55989e-27
8.3594e-27
1.05879e-26
1.15523e-26
1.10416e-26
9.3194e-27
6.86534e-27
4.08689e-27
1.19915e-27
-1.68847e-27
-4.39605e-27
-6.5751e-27
-7.8158e-27
-7.90798e-27
-7.00434e-27
-5.53954e-27
-3.9907e-27
-2.67482e-27
-1.70183e-27
-1.0439e-27
-4.05477e-28
1.92871e-78
1.08614e-64
1.27787e-57
3.32231e-52
-5.75825e-48
2.82503e-45
-5.24334e-43
-2.44024e-40
-6.96673e-39
-8.71921e-39
2.41976e-36
2.85522e-35
1.72519e-34
1.27839e-33
3.80309e-33
6.80889e-33
8.88266e-32
6.97863e-31
2.74798e-30
5.85509e-30
1.76012e-30
-3.48257e-29
-1.31906e-28
-2.53632e-28
-2.37565e-28
1.83844e-28
1.51509e-27
4.87518e-27
1.15817e-26
2.16856e-26
3.3033e-26
4.21121e-26
4.60658e-26
4.40433e-26
3.71688e-26
2.74809e-26
1.67307e-26
5.83851e-27
-4.82033e-27
-1.47198e-26
-2.27142e-26
-2.73445e-26
-2.78059e-26
-2.46095e-26
-1.93391e-26
-1.3772e-26
-9.09105e-27
-5.6886e-27
-3.43521e-27
-1.37827e-27
3.84274e-76
1.66746e-63
1.04771e-55
6.86426e-51
-1.43795e-46
5.02242e-44
-6.33017e-42
-3.10157e-39
-8.28256e-38
-2.275e-37
2.1947e-35
2.42507e-34
1.39954e-33
1.0558e-32
2.78945e-32
3.69834e-33
2.97947e-31
3.56992e-30
1.59564e-29
3.80947e-29
3.10982e-29
-1.30009e-28
-5.88785e-28
-1.20166e-27
-1.3108e-27
3.63029e-29
4.60616e-27
1.68288e-26
4.23258e-26
8.17727e-26
1.26748e-25
1.63073e-25
1.7918e-25
1.7162e-25
1.44966e-25
1.07589e-25
6.6799e-26
2.64599e-26
-1.21497e-26
-4.76673e-26
-7.65119e-26
-9.36155e-26
-9.59196e-26
-8.50081e-26
-6.64819e-26
-4.68376e-26
-3.04491e-26
-1.87276e-26
-1.11266e-26
-4.60963e-27
7.82504e-74
-2.9788e-61
6.0317e-54
1.42038e-49
-3.47054e-45
8.37768e-43
-7.1667e-41
-3.78859e-38
-9.49426e-37
-3.74226e-36
1.90405e-34
1.95535e-33
1.07303e-32
8.54089e-32
2.16511e-31
-2.01287e-31
4.72118e-32
1.58963e-29
8.64168e-29
2.2993e-28
2.69968e-28
-3.98462e-28
-2.49786e-27
-5.4657e-27
-6.67008e-27
-2.88977e-27
1.16333e-26
5.39246e-26
1.47493e-25
2.97234e-25
4.71325e-25
6.13863e-25
6.78903e-25
6.52474e-25
5.52299e-25
4.11584e-25
2.59965e-25
1.13389e-25
-2.37464e-26
-1.48648e-25
-2.50838e-25
-3.13202e-25
-3.24279e-25
-2.88472e-25
-2.24933e-25
-1.5693e-25
-1.00473e-25
-6.06963e-26
-3.54494e-26
-1.51518e-26
1.62681e-71
-4.72154e-59
2.95936e-52
3.13991e-48
-8.09197e-44
1.30252e-41
-7.51027e-40
-4.42887e-37
-1.04588e-35
-5.07849e-35
1.57939e-33
1.48504e-32
7.64493e-32
6.69924e-31
1.74091e-30
-2.27254e-30
-1.11118e-29
5.39764e-29
4.3085e-28
1.29556e-27
1.88158e-27
-6.77449e-28
-9.96428e-27
-2.38364e-26
-3.18259e-26
-2.36227e-26
1.7728e-26
1.55532e-25
4.85865e-25
1.03759e-24
1.69481e-24
2.24245e-24
2.50193e-24
2.41695e-24
2.05292e-24
1.53691e-24
9.85539e-25
4.63432e-25
-1.3787e-26
-4.43758e-25
-7.98605e-25
-1.0224e-24
-1.07309e-24
-9.60811e-25
-7.48568e-25
-5.17815e-25
-3.26526e-25
-1.93581e-25
-1.1102e-25
-4.88907e-26
3.42899e-69
-4.80522e-57
1.30938e-50
7.94632e-47
-1.82123e-42
1.86248e-40
-7.15561e-39
-4.92861e-36
-1.10314e-34
-6.0775e-34
1.25504e-32
1.05085e-31
4.91637e-31
5.04496e-30
1.40675e-29
-1.66517e-29
-1.33075e-28
4.92262e-29
1.92272e-27
6.81375e-27
1.15716e-26
2.92944e-27
-3.66652e-26
-9.9418e-26
-1.43667e-25
-1.38137e-25
-4.07786e-26
3.75185e-25
1.49225e-24
3.46161e-24
5.87757e-24
7.93387e-24
8.95262e-24
8.70983e-24
7.43489e-24
5.5957e-24
3.63698e-24
1.81557e-24
1.89865e-25
-1.25724e-24
-2.46259e-24
-3.25053e-24
-3.47088e-24
-3.13762e-24
-2.44872e-24
-1.68206e-24
-1.04488e-24
-6.07289e-25
-3.41514e-25
-1.54673e-25
7.2507e-67
-4.09225e-55
5.34855e-49
2.31959e-45
-3.95201e-41
2.38385e-39
-6.06296e-38
-5.18449e-35
-1.10936e-33
-6.56499e-33
9.61957e-32
6.8155e-31
2.67784e-30
3.61099e-29
1.1123e-28
-8.97838e-29
-1.13807e-27
-1.3459e-27
7.16018e-27
3.32421e-26
6.48929e-26
4.23063e-26
-1.19583e-25
-3.94826e-25
-6.16596e-25
-6.93375e-25
-5.57056e-25
5.70579e-25
4.16832e-24
1.09631e-23
1.95964e-23
2.71259e-23
3.10448e-23
3.04815e-23
2.61957e-23
1.98405e-23
1.30552e-23
6.83857e-24
1.42136e-24
-3.33399e-24
-7.33086e-24
-1.00436e-23
-1.09544e-23
-1.00333e-23
-7.86731e-24
-5.37682e-24
-3.29148e-24
-1.87322e-24
-1.03105e-24
-4.79134e-25
1.52072e-64
-3.12339e-53
2.03954e-47
7.32211e-44
-8.25505e-40
2.56089e-38
-4.52837e-37
-5.10346e-34
-1.05829e-32
-6.44119e-32
7.2223e-31
3.94119e-30
9.96957e-30
2.42837e-28
8.44578e-28
-2.89762e-28
-8.28033e-27
-1.69141e-26
1.69785e-26
1.48194e-25
3.36053e-25
3.19158e-25
-3.10115e-25
-1.48173e-24
-2.52216e-24
-3.15743e-24
-3.46807e-24
-9.15827e-25
1.00323e-23
3.26373e-23
6.2569e-23
8.93903e-23
1.04094e-22
1.0339e-22
8.96395e-23
6.84178e-23
4.55445e-23
2.48107e-23
7.16642e-24
-8.07255e-24
-2.09816e-23
-3.00822e-23
-3.36666e-23
-3.13703e-23
-2.48018e-23
-1.69054e-23
-1.02049e-23
-5.67926e-24
-3.05238e-24
-1.4512e-24
3.13161e-62
-2.19583e-51
7.2983e-46
2.32549e-42
-1.65644e-38
1.83686e-37
-3.35422e-36
-4.62764e-33
-9.51735e-32
-5.71082e-31
5.45822e-30
1.92427e-29
-1.29927e-29
1.51055e-27
6.08307e-27
7.60322e-28
-5.40559e-26
-1.43657e-25
-3.76075e-26
5.83798e-25
1.61117e-24
1.94364e-24
-3.45524e-25
-5.18392e-24
-9.83706e-24
-1.33632e-23
-1.71833e-23
-1.35209e-23
1.75844e-23
8.98927e-23
1.90368e-22
2.83063e-22
3.36628e-22
3.39104e-22
2.97325e-22
2.29121e-22
1.54281e-22
8.67976e-23
3.06593e-23
-1.6913e-23
-5.74294e-23
-8.70696e-23
-1.00511e-22
-9.57295e-23
-7.66335e-23
-5.22533e-23
-3.11354e-23
-1.69194e-23
-8.85277e-24
-4.29068e-24
6.28006e-60
-1.44048e-49
2.45512e-44
7.1157e-41
-3.18459e-37
-6.50186e-37
-3.94074e-35
-3.7584e-32
-8.00399e-31
-4.48989e-30
4.30179e-29
6.86587e-29
-7.68014e-28
8.47201e-27
4.11975e-26
2.33845e-26
-3.23989e-25
-1.03126e-24
-8.95918e-25
1.8596e-24
7.11444e-24
1.0438e-23
2.88441e-24
-1.64624e-23
-3.65208e-23
-5.32357e-23
-7.50819e-23
-8.01168e-23
7.905e-25
2.22491e-22
5.48304e-22
8.58197e-22
1.04676e-21
1.07255e-21
9.53744e-22
7.4391e-22
5.06996e-22
2.9299e-22
1.18585e-22
-2.59756e-23
-1.49257e-22
-2.42598e-22
-2.90619e-22
-2.84499e-22
-2.31762e-22
-1.5868e-22
-9.34746e-23
-4.95229e-23
-2.51291e-23
-1.23608e-23
1.2186e-57
-8.87485e-48
7.75883e-43
2.05659e-39
-5.84698e-36
-6.04414e-35
-8.19412e-34
-2.57096e-31
-6.22737e-30
-2.98442e-29
3.6277e-28
6.83429e-29
-1.02322e-26
4.06461e-26
2.60343e-25
2.56504e-25
-1.80429e-24
-6.66354e-24
-8.16039e-24
3.17089e-24
2.85007e-23
5.09735e-23
3.0016e-23
-4.4573e-23
-1.28471e-22
-2.01095e-22
-3.00456e-22
-3.71685e-22
-1.86122e-22
4.63161e-22
1.48132e-21
2.48022e-21
3.11857e-21
3.26062e-21
2.95056e-21
2.33725e-21
1.61466e-21
9.5466e-22
4.25701e-22
-1.82391e-24
-3.64631e-22
-6.47517e-22
-8.10742e-22
-8.21224e-22
-6.84917e-22
-4.73072e-22
-2.76131e-22
-1.4242e-22
-6.97429e-23
-3.46205e-23
2.2766e-55
-5.1504e-46
2.29705e-41
5.56613e-38
-1.02094e-34
-1.56068e-33
-1.81558e-32
-1.21165e-30
-4.4158e-29
-1.44495e-28
3.25681e-27
-1.26401e-27
-1.017e-25
1.42737e-25
1.52172e-24
2.12506e-24
-9.40485e-24
-3.97927e-23
-5.79379e-23
-1.54643e-23
1.00058e-22
2.28908e-22
1.92525e-22
-8.27229e-23
-4.24274e-22
-7.23456e-22
-1.12143e-21
-1.50801e-21
-1.16597e-21
6.43644e-22
3.70202e-21
6.79534e-21
8.86292e-21
9.48911e-21
8.77361e-21
7.08992e-21
4.97853e-21
3.00363e-21
1.43719e-21
2.0581e-22
-8.24649e-22
-1.64509e-21
-2.17153e-21
-2.29475e-21
-1.97389e-21
-1.38333e-21
-8.02647e-22
-4.02528e-22
-1.8906e-22
-9.4017e-23
4.07807e-53
-2.81763e-44
6.33815e-40
1.40332e-36
-1.6861e-33
-3.03702e-32
-3.53277e-31
1.26794e-30
-2.79265e-28
-1.0857e-28
3.00867e-26
-8.62019e-27
-8.63431e-25
6.25967e-26
8.12583e-24
1.49379e-23
-4.61337e-23
-2.22487e-22
-3.59144e-22
-2.18852e-22
2.80646e-22
9.46462e-22
1.02173e-21
6.114e-23
-1.29198e-21
-2.48472e-21
-3.94537e-21
-5.56414e-21
-5.22987e-21
-4.47703e-22
8.35983e-21
1.75263e-20
2.38971e-20
2.62995e-20
2.49674e-20
2.07082e-20
1.48463e-20
9.12968e-21
4.59788e-21
1.13653e-21
-1.68356e-21
-3.94421e-21
-5.54779e-21
-6.1809e-21
-5.5335e-21
-3.96286e-21
-2.29579e-21
-1.11869e-21
-5.00058e-22
-2.46666e-22
6.97897e-51
-1.45194e-42
1.61677e-38
3.27568e-35
-2.61416e-32
-5.06317e-31
-5.98049e-30
1.24892e-28
-1.52566e-27
8.54621e-27
2.74545e-25
3.94142e-26
-6.53508e-24
-4.86332e-24
3.88441e-23
9.25914e-23
-2.14004e-22
-1.17205e-21
-2.02042e-21
-1.64439e-21
4.04979e-22
3.57925e-21
4.81372e-21
1.70736e-21
-3.4928e-21
-8.15336e-21
-1.31786e-20
-1.90119e-20
-1.99268e-20
-7.98057e-21
1.62726e-20
4.21522e-20
6.07057e-20
6.89437e-20
6.7606e-20
5.80388e-20
4.27756e-20
2.68306e-20
1.40096e-20
4.47621e-21
-2.95695e-21
-8.81552e-21
-1.33948e-20
-1.59579e-20
-1.50412e-20
-1.11044e-20
-6.46127e-21
-3.05968e-21
-1.28904e-21
-6.22049e-22
1.13706e-48
-7.03245e-41
3.76585e-37
7.00652e-34
-3.7632e-31
-7.54391e-30
-8.95098e-29
2.00768e-27
-6.89914e-27
1.37465e-25
2.39619e-24
1.54731e-24
-4.48284e-23
-5.82673e-23
1.59821e-22
5.13264e-22
-9.43478e-22
-5.82789e-21
-1.04808e-20
-9.89838e-21
-1.918e-21
1.21767e-20
2.06378e-20
1.16908e-20
-7.58227e-21
-2.55423e-20
-4.20508e-20
-6.0761e-20
-6.78957e-20
-3.97109e-20
2.39938e-20
9.32722e-20
1.43945e-19
1.69324e-19
1.72773e-19
1.5539e-19
1.18965e-19
7.63444e-20
4.08236e-20
1.49338e-20
-3.96999e-21
-1.80329e-20
-3.01422e-20
-3.91929e-20
-3.94796e-20
-3.03732e-20
-1.78889e-20
-8.24485e-21
-3.23399e-21
-1.49575e-21
1.75741e-46
-3.19049e-39
7.86156e-36
1.34629e-32
-4.94013e-30
-1.02341e-28
-1.19963e-27
2.34555e-26
-2.57706e-26
1.48503e-24
1.95727e-23
2.16294e-23
-2.80084e-22
-4.78236e-22
5.12785e-22
2.55027e-21
-3.97451e-21
-2.72823e-20
-5.04104e-20
-5.19445e-20
-2.24642e-20
3.59648e-20
8.11503e-20
6.03828e-20
-7.9313e-21
-7.61988e-20
-1.29045e-19
-1.82857e-19
-2.11329e-19
-1.48251e-19
1.10321e-20
1.85942e-19
3.14484e-19
3.84065e-19
4.11576e-19
3.94989e-19
3.19104e-19
2.10795e-19
1.14256e-19
4.43428e-20
-2.31293e-21
-3.27652e-20
-6.17789e-20
-9.05784e-20
-9.95153e-20
-8.08661e-20
-4.86971e-20
-2.19199e-20
-7.88187e-21
-3.38072e-21
2.56656e-44
-1.34897e-37
1.43165e-34
2.22531e-31
-5.71459e-29
-1.27721e-27
-1.45021e-26
2.3081e-25
-1.19531e-25
1.29719e-23
1.47325e-22
2.19951e-22
-1.58939e-21
-3.22505e-21
8.04721e-22
1.12855e-20
-1.60983e-20
-1.19229e-19
-2.24519e-19
-2.44341e-19
-1.41226e-19
8.43587e-20
2.92227e-19
2.68367e-19
3.94381e-20
-2.15296e-19
-3.84423e-19
-5.2139e-19
-6.07058e-19
-4.71018e-19
-9.23992e-20
3.21681e-19
6.2075e-19
7.85728e-19
8.94807e-19
9.44672e-19
8.25057e-19
5.66614e-19
3.08742e-19
1.19294e-19
6.21648e-21
-5.00899e-20
-1.10319e-19
-1.93736e-19
-2.39063e-19
-2.08748e-19
-1.3021e-19
-5.75939e-20
-1.86084e-20
-6.975e-21
3.52579e-42
-5.27719e-36
2.2117e-33
2.79537e-30
-5.35569e-28
-1.47853e-26
-1.58736e-25
2.02156e-24
-1.29218e-24
9.56711e-23
1.00771e-21
1.83316e-21
-8.09826e-21
-1.87118e-20
-4.51715e-21
4.37578e-20
-6.32989e-20
-4.77285e-19
-9.18715e-19
-1.03787e-18
-6.98177e-19
1.07374e-19
9.55042e-19
1.06927e-18
3.5678e-19
-5.69038e-19
-1.12756e-18
-1.41976e-18
-1.61832e-18
-1.32545e-18
-4.69738e-19
4.43633e-19
1.07089e-18
1.385e-18
1.7016e-18
2.09528e-18
2.05594e-18
1.48906e-18
8.10841e-19
2.92175e-19
1.80379e-20
-5.75126e-20
-1.53365e-19
-3.72822e-19
-5.41096e-19
-5.1952e-19
-3.4143e-19
-1.4987e-19
-4.23723e-20
-1.21861e-20
4.53136e-40
-1.88989e-34
3.09349e-32
1.14835e-29
-2.84213e-27
-1.60366e-25
-1.57945e-24
1.64027e-23
-1.56389e-23
5.9752e-22
6.15765e-21
1.29874e-20
-3.60767e-20
-9.42008e-20
-5.39838e-20
1.43753e-19
-2.46523e-19
-1.67692e-18
-3.39635e-18
-3.96329e-18
-2.92342e-18
-2.95586e-19
2.78242e-18
3.87256e-18
1.88657e-18
-1.36196e-18
-3.32491e-18
-3.73532e-18
-4.01932e-18
-3.35509e-18
-1.51036e-18
3.52855e-19
1.50841e-18
1.87228e-18
2.52449e-18
4.19796e-18
4.94056e-18
3.84491e-18
2.08569e-18
6.49518e-19
-2.89766e-20
-3.84999e-20
-9.25354e-20
-6.09727e-19
-1.13205e-18
-1.23583e-18
-8.7576e-19
-3.87341e-19
-9.24689e-20
-1.31983e-20
5.41106e-38
-6.09408e-33
6.63276e-31
-7.60476e-28
3.00676e-26
-1.65192e-24
-1.44553e-23
1.28573e-22
-1.26272e-22
3.09281e-21
3.27132e-20
7.85392e-20
-1.31878e-19
-4.05613e-19
-3.35609e-19
3.68835e-19
-9.87866e-19
-4.61323e-18
-1.09824e-17
-1.33982e-17
-1.05319e-17
-2.85967e-18
7.00289e-18
1.27108e-17
8.26078e-18
-2.66497e-18
-1.01208e-17
-9.63742e-18
-9.33646e-18
-7.68432e-18
-3.8443e-18
-3.75129e-19
1.41011e-18
1.04378e-18
1.49144e-18
7.16212e-18
1.14705e-17
9.80094e-18
5.2926e-18
1.29691e-18
-4.35217e-19
-4.89763e-20
3.33998e-19
-7.21852e-19
-2.10714e-18
-2.76972e-18
-2.18895e-18
-9.98466e-19
-1.91946e-19
2.10533e-20
5.94844e-36
-1.71964e-31
2.99292e-29
-3.37611e-26
1.32677e-24
-1.63829e-23
-1.26191e-22
1.00528e-21
-3.23467e-22
1.26362e-20
1.4299e-19
3.95143e-19
-3.21967e-19
-1.42396e-18
-1.52672e-18
5.12904e-19
-4.23104e-18
-5.82491e-18
-2.90787e-17
-3.88578e-17
-3.22513e-17
-1.28973e-17
1.43877e-17
3.67851e-17
3.29008e-17
-2.37423e-18
-3.27276e-17
-2.45935e-17
-2.03551e-17
-1.59515e-17
-7.89335e-18
-2.27062e-18
-2.30138e-19
-3.95705e-18
-8.0612e-18
8.54101e-18
2.58259e-17
2.47448e-17
1.32982e-17
2.27127e-18
-2.23425e-18
-5.52101e-19
1.57687e-18
-1.28656e-19
-3.152e-18
-5.69022e-18
-5.29921e-18
-2.58256e-18
-3.77907e-19
2.15697e-19
5.93966e-34
-4.00765e-30
1.45387e-27
-9.57367e-25
2.85683e-23
-1.56544e-22
-1.14367e-21
7.71511e-21
8.067e-21
3.76429e-20
4.39223e-19
1.50317e-18
1.35096e-19
-3.45738e-18
-5.20541e-18
-1.81342e-18
-1.88737e-17
2.76347e-17
-5.35964e-17
-9.06596e-17
-8.02516e-17
-4.08973e-17
2.16518e-17
8.61878e-17
1.27448e-16
1.41214e-17
-1.16668e-16
-6.04028e-17
-4.16631e-17
-3.00739e-17
-1.07057e-17
-4.91358e-18
-4.42742e-18
-1.73099e-17
-4.55046e-17
-2.33982e-18
5.67338e-17
6.19317e-17
3.29706e-17
3.25857e-18
-8.26191e-18
-3.47178e-18
3.70652e-18
2.31987e-18
-2.21187e-18
-1.00508e-17
-1.22977e-17
-6.75498e-18
-7.23995e-19
1.0147e-18
5.27291e-32
-6.5531e-29
5.90018e-26
-2.22138e-23
4.87471e-22
-1.39295e-21
-1.2047e-20
5.21576e-20
1.53469e-19
8.72862e-20
2.33692e-19
2.48377e-18
6.80632e-18
3.14158e-19
-1.19899e-17
-2.50739e-17
-7.55427e-17
1.33251e-16
1.74038e-16
-1.45023e-16
-1.43381e-16
-8.80516e-17
2.04023e-17
1.77315e-16
6.11663e-16
1.19246e-16
-5.19047e-16
-1.32529e-16
-8.16806e-17
-5.23857e-17
1.26326e-17
-2.01294e-18
-1.03626e-17
-3.9472e-17
-1.61858e-16
-6.16191e-17
1.22508e-16
1.5351e-16
7.95993e-17
2.65304e-18
-2.48079e-17
-1.49891e-17
3.17444e-18
7.42093e-18
8.4413e-18
-1.21836e-17
-2.68468e-17
-1.80151e-17
-1.5204e-18
3.87372e-18
4.00335e-30
-1.42883e-28
2.00145e-24
-4.55215e-22
7.25338e-21
-1.0453e-20
-1.50923e-19
2.10087e-19
1.51311e-18
4.88243e-19
-7.38885e-18
-2.38795e-17
4.36241e-17
8.52649e-17
-1.41167e-17
-2.39724e-16
-1.56936e-16
-5.16769e-15
3.68568e-14
5.69899e-14
3.55766e-14
9.60739e-15
1.26117e-14
1.29922e-14
5.66956e-15
5.40571e-16
-3.45532e-15
-3.08858e-15
-2.40522e-16
-9.18655e-17
2.37536e-16
4.06742e-17
-1.3218e-17
-5.89188e-17
-5.41049e-16
-2.90496e-16
2.61221e-16
3.77044e-16
1.82229e-16
-6.26164e-18
-6.2542e-17
-5.30621e-17
-2.05866e-17
9.88015e-18
5.197e-17
6.87999e-18
-5.31396e-17
-4.93264e-17
-4.3888e-18
1.33086e-17
2.38592e-28
3.7973e-26
5.8795e-23
-8.72528e-21
9.70176e-20
-4.91729e-20
-2.02394e-18
-1.61127e-18
8.79447e-18
5.0499e-18
-4.33546e-17
-3.86622e-16
1.51891e-15
1.65208e-15
-9.57416e-15
-4.29993e-15
2.30152e-14
-3.01959e-14
1.6154e-13
6.73281e-13
8.47305e-13
6.71427e-13
5.15405e-13
2.31856e-13
2.49391e-14
-9.62775e-14
-1.4054e-14
-4.00616e-14
-5.68162e-15
-2.32999e-16
2.76429e-15
2.73558e-16
-4.8579e-15
-4.68393e-15
-4.40587e-15
-1.15271e-15
5.50799e-16
9.2287e-16
3.72352e-16
-5.30082e-17
-1.31481e-16
-1.76074e-16
-1.59951e-16
-2.38517e-17
1.83954e-16
1.21639e-16
-8.78624e-17
-1.39532e-16
-1.79495e-17
4.2875e-17
8.25918e-27
1.58629e-24
1.60079e-21
-1.68271e-19
1.1652e-18
1.43536e-19
-2.58375e-17
-5.7823e-17
4.21702e-17
3.23267e-17
-4.08797e-16
-2.77303e-15
2.27832e-14
1.31257e-14
-2.00412e-13
-2.97465e-14
3.2707e-13
9.08075e-13
-2.2417e-12
8.96329e-13
2.39583e-12
2.53549e-12
1.68485e-12
8.44707e-13
-8.37005e-12
-2.34063e-12
2.4132e-13
-8.35679e-14
-6.97145e-14
-9.03544e-15
1.47854e-14
-2.58472e-13
-1.88021e-13
-9.07636e-14
-2.94599e-14
-3.23295e-15
1.2415e-15
2.21952e-15
5.33456e-16
-4.6466e-16
-2.52291e-16
-9.76254e-16
-9.642e-16
-2.37517e-16
7.83058e-16
6.622e-16
-9.5489e-17
-4.22838e-16
-8.35498e-17
1.33456e-16
-2.85003e-25
3.31267e-23
4.67851e-20
-3.52122e-18
1.24374e-17
5.52488e-18
-2.73761e-16
-9.35322e-16
1.20566e-14
-4.28615e-16
-1.32143e-13
5.99399e-14
2.63325e-13
-1.29355e-12
-1.0375e-12
1.24309e-11
1.56468e-12
5.91776e-12
-4.62039e-11
-3.53196e-10
-2.70964e-10
-5.12886e-11
-1.35221e-10
-2.09283e-10
-8.3785e-11
-1.37933e-11
2.76282e-11
5.26803e-12
-5.29569e-12
-5.70242e-12
-4.90228e-12
-1.97998e-12
-7.67068e-13
-3.43437e-13
-8.58102e-14
-4.48716e-15
5.7085e-15
5.22052e-15
-7.08508e-15
-9.79909e-15
-6.16333e-15
-1.1241e-14
-6.24413e-15
-1.01503e-15
1.38537e-14
3.36238e-15
-4.71567e-18
-2.16553e-15
-3.9043e-16
4.25584e-16
-8.50418e-23
-1.7358e-22
1.72736e-18
-8.93584e-17
5.34114e-16
-1.32621e-15
-3.50965e-16
4.87039e-15
1.5571e-13
-9.06993e-13
-1.35359e-12
1.19107e-11
3.65873e-12
-7.36612e-11
5.60194e-11
2.69325e-10
-2.05379e-10
-7.43559e-11
-1.2288e-10
-1.72087e-09
-5.42665e-09
-6.21195e-09
-4.84269e-09
-1.86034e-09
-2.27613e-10
-3.31165e-10
7.92006e-10
1.83678e-10
-1.39359e-10
-1.40154e-10
-5.24151e-11
-6.45726e-12
-1.60355e-12
-7.56666e-13
-1.28946e-13
3.87488e-14
4.18647e-14
1.88812e-14
-4.81597e-14
-4.92184e-14
-6.1279e-14
-5.08879e-14
-1.92242e-14
1.8692e-13
8.97933e-14
8.75104e-15
-2.10358e-14
-1.66439e-14
-1.34582e-15
1.97453e-15
-1.3727e-20
-8.01607e-20
6.74133e-17
-1.87439e-15
1.58892e-14
-6.05626e-14
4.85605e-14
3.07005e-13
3.9037e-13
-4.64994e-12
9.80938e-12
5.91369e-11
-2.14482e-10
-3.18876e-10
1.16616e-09
8.89475e-10
-1.50188e-09
-1.56619e-09
-3.39608e-10
1.76099e-09
-1.13418e-08
-2.70195e-08
-1.89823e-08
-5.47637e-09
-2.29051e-10
-1.89993e-09
2.46652e-08
5.53013e-09
-4.47102e-10
-4.99765e-10
-1.64307e-10
-1.00722e-11
-1.08564e-11
-1.31712e-12
6.14868e-14
2.39148e-13
3.96053e-13
1.15498e-13
-1.17016e-13
-8.77489e-14
-2.47734e-13
-1.05661e-13
6.15328e-13
1.42589e-12
2.3642e-13
-7.30735e-13
-5.50925e-13
-5.84307e-14
2.65343e-14
1.32332e-14
-1.61727e-17
9.69835e-16
-7.44179e-15
1.37446e-14
3.12471e-14
-1.83639e-13
-5.57103e-13
1.31269e-11
-7.27703e-11
-1.18418e-11
4.64031e-10
4.48422e-11
-2.53792e-09
1.10546e-09
9.43584e-09
-5.89049e-09
-9.28135e-09
-7.51005e-09
6.84048e-08
6.89576e-08
2.14897e-07
-1.99757e-08
-2.80477e-08
7.01445e-08
2.44316e-07
8.45059e-07
8.94794e-07
1.76297e-07
-2.36791e-10
-7.03902e-10
-2.3055e-10
4.46595e-11
-1.50088e-09
6.62309e-10
2.90488e-10
4.63081e-11
1.60118e-11
2.73363e-12
-1.139e-13
3.89126e-12
2.05018e-12
2.23659e-11
2.91178e-11
4.82473e-12
-1.17713e-11
-1.15828e-11
-2.59633e-12
5.50105e-15
2.39612e-13
4.96752e-14
-1.40774e-14
7.11258e-14
-3.70312e-13
1.9109e-12
-6.58018e-12
8.46563e-12
-1.61654e-12
5.64988e-11
-4.16478e-10
1.40011e-09
2.72725e-09
-1.11575e-08
-1.19477e-08
5.42565e-08
4.31818e-08
-2.30111e-07
-3.8338e-07
3.60936e-07
1.16654e-06
2.3354e-07
7.85248e-07
2.55657e-07
7.33512e-08
2.06589e-05
0.000259768
0.000854372
0.00165868
0.00221028
0.00212223
0.00143884
0.000582646
5.7657e-05
-6.49034e-09
9.10796e-08
2.39913e-08
9.74521e-10
2.08956e-10
2.55339e-10
3.27399e-10
2.90666e-10
3.30194e-10
2.88147e-10
1.40218e-10
2.29467e-12
-1.31419e-10
-4.9097e-11
-4.76514e-12
2.59154e-12
1.03017e-12
8.15014e-14
-8.7968e-14
1.95049e-13
-1.11105e-12
8.20238e-12
-3.28481e-11
7.28461e-11
2.93042e-10
-1.93381e-09
-3.62338e-10
1.12689e-08
-7.26129e-09
-1.01983e-07
1.46555e-07
6.42355e-07
-2.3156e-07
-2.78047e-06
-1.84927e-06
8.0161e-06
4.36556e-06
-1.40092e-05
-0.00011582
0.000464503
0.00350795
0.0109507
0.0229595
0.0368246
0.0478446
0.0517777
0.0480717
0.0379827
0.0250957
0.0133397
0.00517085
0.00115637
2.99107e-05
1.01637e-07
6.67632e-09
4.64212e-09
1.78719e-09
1.29385e-09
1.50111e-09
1.09877e-09
2.97952e-10
-9.7716e-10
-5.71659e-10
-9.10043e-11
2.91866e-11
1.71715e-11
2.13843e-12
-3.65848e-13
2.43997e-12
-1.2418e-11
5.65647e-11
-1.71847e-10
1.37206e-10
2.31679e-10
1.64225e-09
-1.33152e-08
4.16612e-08
5.60915e-08
-3.00967e-07
-4.06684e-07
1.85646e-06
2.4291e-06
-7.22033e-06
-1.08926e-05
3.5187e-05
9.06718e-05
-0.000333387
-0.0017756
-0.00250337
0.00272616
0.0216319
0.0581431
0.108171
0.159086
0.194952
0.203718
0.188791
0.154337
0.110727
0.0690901
0.0366772
0.015747
0.00476593
0.000587829
1.23482e-07
1.83626e-08
3.08849e-09
3.04749e-09
2.52534e-09
2.23383e-09
-1.35995e-08
-8.33766e-09
-1.30177e-09
3.04924e-10
2.83558e-10
6.16387e-11
1.85878e-13
-2.44172e-12
2.07596e-11
-5.229e-11
3.16355e-10
-1.49475e-09
3.76449e-09
1.95028e-09
-2.76316e-08
-2.31458e-08
2.40506e-07
-2.84923e-08
-1.61254e-06
1.01589e-06
7.86898e-06
-9.08001e-06
-6.42997e-05
8.01786e-05
0.0006297
0.000548374
-0.00246645
-0.00861619
-0.0107574
0.00433584
0.0528584
0.140696
0.255146
0.367968
0.446686
0.466843
0.43785
0.368653
0.277933
0.186834
0.110751
0.0565239
0.023587
0.00703171
0.0008272
6.0626e-08
3.75157e-09
6.2394e-09
-7.10734e-08
-1.91564e-07
-1.24396e-07
-3.2097e-08
-6.55133e-10
3.08854e-09
1.18416e-09
9.71392e-11
-2.28839e-11
-1.03024e-11
-5.53417e-11
3.80936e-10
-9.73227e-10
-3.12094e-09
1.73009e-08
-3.26628e-09
-1.77876e-07
4.27134e-07
7.89719e-07
-2.60617e-06
-4.19245e-06
2.76249e-05
2.15208e-05
-0.00020308
-0.000325012
0.000608826
0.00247224
0.0019221
-0.00583231
-0.020304
-0.0268902
-0.00244149
0.0757394
0.216402
0.39907
0.580896
0.71495
0.76326
0.733211
0.63977
0.505668
0.360822
0.230401
0.129361
0.0617324
0.023247
0.00552889
0.000229524
-9.17696e-07
-1.57159e-06
-1.85131e-06
-1.22453e-06
-4.23936e-07
-5.648e-08
2.33192e-08
1.4018e-08
2.36087e-09
-1.75073e-10
-1.24337e-10
-2.54854e-11
1.94375e-10
1.04713e-09
-1.47049e-08
4.31938e-08
5.59458e-08
-3.01378e-07
-1.05633e-07
3.50424e-06
-5.09435e-06
-2.75446e-05
3.40742e-05
0.000179351
3.03443e-06
-0.000788458
-0.00100479
0.00130704
0.00554652
0.00528438
-0.00686535
-0.0301756
-0.0457409
-0.0234524
0.0651865
0.226572
0.440884
0.664321
0.845421
0.937922
0.933009
0.853104
0.709016
0.53445
0.362644
0.21823
0.113335
0.0481326
0.0145301
0.00166936
-8.10571e-06
-1.01088e-05
-7.9619e-06
-3.56784e-06
-7.11761e-07
1.37948e-07
1.38501e-07
3.94843e-08
1.10287e-09
-9.66374e-10
-4.09398e-10
-3.76833e-11
1.155e-08
-5.30072e-08
-3.06204e-09
5.84988e-07
-1.10342e-06
-3.23605e-06
1.0808e-05
1.74455e-05
-5.45408e-05
-0.000107226
0.000141591
0.000531407
9.51243e-05
-0.00159938
-0.00234103
0.00113178
0.00818292
0.0105199
-0.00152253
-0.0291853
-0.0538832
-0.0472311
0.0149705
0.144048
0.328344
0.537545
0.733827
0.879253
0.929422
0.889733
0.780129
0.619606
0.441338
0.279412
0.153889
0.0704417
0.0240656
0.00401072
-2.90467e-05
-3.3854e-05
-2.04531e-05
-5.67642e-06
4.64188e-07
1.28908e-06
5.43687e-07
6.18043e-08
-6.40732e-09
-3.69742e-09
-8.0152e-10
-4.09831e-12
-9.94217e-08
-5.82727e-07
1.54679e-06
2.31037e-06
-9.92637e-06
-9.12104e-06
4.41018e-05
5.10666e-05
-0.000133151
-0.000266832
0.000186574
0.000964906
0.000551598
-0.001893
-0.00383141
-0.000915683
0.00763211
0.0141139
0.00861862
-0.0127706
-0.0404093
-0.0522234
-0.0329933
0.0250887
0.122808
0.253411
0.403777
0.550983
0.660694
0.693113
0.652902
0.552208
0.415443
0.273753
0.155257
0.0733377
0.0263062
0.00503567
-8.34071e-05
-8.87619e-05
-3.19311e-05
2.36573e-06
1.03377e-05
5.56215e-06
1.14686e-06
-6.99475e-09
-1.9633e-08
-8.07651e-09
-1.00236e-09
1.53134e-11
-6.27644e-07
-1.02782e-06
5.31933e-06
4.66085e-06
-2.29159e-05
-2.24817e-05
7.04012e-05
0.000109617
-0.000136783
-0.000414636
-1.60172e-05
0.00105527
0.00118466
-0.000954609
-0.00399421
-0.00356351
0.00268009
0.0115945
0.0140153
0.00589925
-0.0113562
-0.0301657
-0.0418628
-0.0410199
-0.0245381
0.0178085
0.0915715
0.191081
0.293207
0.360161
0.364111
0.323253
0.249485
0.165952
0.0935528
0.0429232
0.0142253
0.00210791
-0.000369666
-0.000159047
2.81144e-05
7.11533e-05
4.38671e-05
1.35659e-05
1.11429e-06
-6.81903e-08
-4.37406e-08
-1.29258e-08
-8.09875e-10
2.04143e-11
-7.64958e-07
-1.4775e-06
5.87263e-06
8.50476e-06
-1.98153e-05
-3.72519e-05
3.7064e-05
0.000131474
8.08218e-06
-0.000337509
-0.000338473
0.000421826
0.00127347
0.000663276
-0.00183021
-0.00388283
-0.00244238
0.00285388
0.00883752
0.0108386
0.00762773
-0.000841467
-0.0155203
-0.0357845
-0.0553574
-0.0640452
-0.0513279
-0.0145769
0.0370214
0.0809567
0.093702
0.0821533
0.0564286
0.0284058
0.00767311
-0.00281908
-0.00532631
-0.00309945
-0.000914537
0.000137781
0.000365633
0.000254332
0.000104882
2.10057e-05
-3.75139e-08
-1.41116e-07
-6.45097e-08
-1.40489e-08
-1.6057e-10
1.78877e-11
4.63693e-08
-1.68996e-06
-3.43155e-07
8.53736e-06
5.10999e-06
-2.7689e-05
-3.26458e-05
5.64692e-05
0.000135283
-2.82733e-05
-0.000361393
-0.000303416
0.000440826
0.00114955
0.000681832
-0.0010666
-0.00277871
-0.00286724
-0.00109382
0.00246147
0.00704534
0.0101394
0.00830187
-0.00174134
-0.0195675
-0.0393085
-0.0526358
-0.0540779
-0.0490731
-0.0432858
-0.0450072
-0.0490573
-0.0512252
-0.0476403
-0.0382586
-0.0254767
-0.0130491
-0.00432135
8.37976e-05
0.00125803
0.00100522
0.000514916
0.000167868
1.97303e-05
-1.97425e-07
-1.59145e-07
-6.70806e-08
-1.11003e-08
3.15181e-11
8.2542e-12
3.81878e-07
-6.99126e-07
-2.87168e-06
2.50897e-06
1.25785e-05
-2.09436e-06
-3.9951e-05
-2.31361e-05
8.42893e-05
0.000130451
-4.68112e-05
-0.000332404
-0.000319311
0.000167876
0.000862116
0.00111234
0.000430621
-0.00133519
-0.00339373
-0.00394193
-0.00163716
0.00356372
0.00917051
0.0113464
0.00876313
0.00216905
-0.00711335
-0.0177191
-0.0297227
-0.0425167
-0.0524743
-0.0563265
-0.0528927
-0.0427878
-0.0281927
-0.0140887
-0.0035299
0.00199403
0.00341942
0.00279
0.00162871
0.000698275
0.000185942
1.04649e-05
-1.87287e-07
-1.24571e-07
-3.90356e-08
-3.64047e-09
1.25036e-10
5.14074e-12
2.39431e-07
7.55833e-07
-1.82238e-06
-3.97662e-06
4.83905e-06
1.50012e-05
-2.44275e-06
-3.9969e-05
-3.40831e-05
5.10419e-05
0.000137934
7.85985e-05
-0.000177646
-0.000434853
-0.000329705
0.000315256
0.00114348
0.00131369
0.000365507
-0.00144553
-0.0028841
-0.00277088
-0.000803501
0.00274759
0.00709473
0.0107983
0.012792
0.0115183
0.00676282
-0.000661342
-0.00759322
-0.00973572
-0.00708692
-0.00130537
0.00497381
0.00912627
0.0102445
0.00868847
0.00604998
0.00353224
0.00171381
0.000635434
0.000130933
8.73411e-07
-1.25802e-07
-3.61312e-08
2.96534e-09
2.14421e-09
4.69668e-10
-5.01352e-11
-9.19244e-08
2.88711e-07
7.50935e-07
-9.19649e-07
-3.58048e-06
-1.52408e-07
1.09254e-05
1.23443e-05
-1.52212e-05
-5.02975e-05
-2.74842e-05
7.97077e-05
0.000169902
7.94618e-05
-0.000216642
-0.000479886
-0.000377638
0.000199306
0.000967962
0.00128761
0.000719082
-0.000736512
-0.00250173
-0.00345813
-0.00278357
-0.000274787
0.00353315
0.00744284
0.0100863
0.0111788
0.0118415
0.0127431
0.014279
0.0157103
0.0156784
0.0141406
0.011119
0.0076675
0.00452876
0.00227724
0.000930856
0.000269623
2.52439e-05
-9.30931e-07
-1.65676e-07
3.97256e-08
2.64182e-08
6.8495e-09
1.21577e-10
-1.19905e-10
3.71037e-08
-1.98428e-07
-2.54597e-07
9.26824e-07
1.37211e-06
-2.41128e-06
-5.8239e-06
1.59715e-06
1.71032e-05
1.45822e-05
-2.30251e-05
-6.22909e-05
-3.35168e-05
8.56398e-05
0.000188074
0.00011459
-0.000162277
-0.000448778
-0.000432281
-7.72794e-06
0.000670045
0.00109518
0.000856486
-0.000203179
-0.00179103
-0.00313176
-0.00361171
-0.00316991
-0.00203031
-0.000556647
0.000939451
0.00221191
0.00332603
0.00387482
0.00368638
0.00286235
0.00181767
0.000881091
0.000242162
-6.5668e-05
-0.000132242
-9.26258e-05
-3.40722e-05
-5.09982e-06
9.33902e-08
6.97477e-08
2.98494e-08
5.35355e-09
-8.67573e-11
-7.56063e-11
1.39296e-09
1.05467e-07
-2.64027e-08
-5.46169e-07
-5.63979e-08
1.83255e-06
1.3616e-06
-4.18229e-06
-7.106e-06
3.34146e-06
2.0035e-05
1.59946e-05
-2.12409e-05
-6.19693e-05
-4.85287e-05
4.73941e-05
0.000171461
0.000174407
-2.48717e-05
-0.000339203
-0.00047095
-0.000212612
0.000350703
0.000864361
0.000992286
0.000733036
0.000158033
-0.000664472
-0.00172402
-0.00282762
-0.00392997
-0.00478762
-0.00526782
-0.00526621
-0.00488953
-0.00420892
-0.0033401
-0.00240907
-0.00154933
-0.000870173
-0.000416132
-0.000158183
-4.12507e-05
-2.61951e-06
7.98247e-08
5.25446e-08
1.91953e-08
3.18975e-09
3.71114e-11
1.26657e-11
2.65131e-09
-4.64879e-08
3.83435e-09
2.32486e-07
-1.20466e-08
-8.06497e-07
-2.97592e-07
2.2724e-06
2.32103e-06
-3.99424e-06
-9.59109e-06
-1.15938e-07
2.19954e-05
2.38909e-05
-1.264e-05
-6.03282e-05
-5.53703e-05
1.71422e-05
0.000104872
0.000125136
6.54289e-05
-6.24941e-05
-0.000215312
-0.000320662
-0.000252126
8.56027e-05
0.000696485
0.00135961
0.00173982
0.0016005
0.000966017
5.67071e-05
-0.000874176
-0.00153584
-0.00173753
-0.00159275
-0.00123285
-0.000815731
-0.000461762
-0.000221104
-8.6318e-05
-2.56225e-05
-3.15796e-06
4.98052e-07
1.05857e-07
3.17338e-09