/*--------------------------------*- C++ -*----------------------------------*\
| =========                 |                                                 |
| \\      /  F ield         | OpenFOAM: The Open Source CFD Toolbox           |
|  \\    /   O peration     | Version:  v2006                                 |
|   \\  /    A nd           | Website:  www.openfoam.com                      |
|    \\/     M anipulation  |                                                 |
\*---------------------------------------------------------------------------*/
FoamFile
{
    version     2.0;
    format      ascii;
    class       surfaceScalarField;
    location    "1.4";
    object      alphaPhi0.water;
}
// * * * * * * * * * * * * * * * * * * * * * * * * * * * * * * * * * * * * * //

dimensions      [0 3 -1 0 0 0 0];
oriented        oriented;


internalField   nonuniform List<scalar> 
299200
(
-0.000699746
0.000699746
-0.00125459
0.000554842
-0.0018835
0.000628909
-0.00249773
0.000614236
-0.00312296
0.00062523
-0.00374007
0.000617111
-0.00436006
0.000619992
-0.00497408
0.000614018
-0.00558818
0.0006141
-0.0061971
0.000608916
-0.00680379
0.000606694
-0.00740524
0.000601453
-0.00800236
0.00059712
-0.00859394
0.000591574
-0.00917963
0.000585688
-0.00975873
0.000579106
-0.0103306
0.000571863
-0.0108945
0.000563891
-0.0114497
0.000555165
-0.0119953
0.000545623
-0.0125305
0.000535218
-0.0130544
0.000523929
-0.0135662
0.000511762
-0.014065
0.00049878
-0.0145497
0.000484708
-0.0150192
0.000469491
-0.0154724
0.000453186
-0.0159082
0.0004358
-0.0163255
0.000417326
-0.0167232
0.000397756
-0.0171003
0.00037709
-0.0174556
0.000355325
-0.0177881
0.00033247
-0.0180967
0.000308541
-0.0183802
0.000283564
-0.0186378
0.00025757
-0.0188684
0.000230632
-0.0190714
0.000202943
-0.0192461
0.000174772
-0.0193921
0.000145974
-0.019507
0.000114888
-0.0195829
7.59432e-05
-0.0196047
2.17177e-05
-0.0195656
-3.90314e-05
-0.019475
-9.0617e-05
-0.0193458
-0.000129259
-0.0191834
-0.000162311
-0.0189896
-0.000193892
-0.018765
-0.000224588
-0.0185103
-0.000254639
-0.018226
-0.000284275
-0.0179125
-0.000313508
-0.0175702
-0.000342303
-0.0171996
-0.000370623
-0.0168012
-0.000398428
-0.0163755
-0.000425679
-0.0159232
-0.000452339
-0.0154448
-0.000478371
-0.0149411
-0.000503741
-0.0144126
-0.000528418
-0.0138603
-0.000552371
-0.0132847
-0.000575573
-0.0126867
-0.000597999
-0.0120671
-0.000619623
-0.0114267
-0.000640422
-0.0107663
-0.000660379
-0.0100868
-0.000679476
-0.0093891
-0.000697696
-0.00867407
-0.000715026
-0.00794262
-0.000731455
-0.00719565
-0.000746971
-0.00643408
-0.000761565
-0.00565885
-0.000775229
-0.00487089
-0.000787965
-0.00407113
-0.000799765
-0.0032605
-0.000810625
-0.00243996
-0.000820543
-0.00161043
-0.000829529
-0.000772851
-0.000837578
7.18427e-05
-0.000844694
0.000922728
-0.000850885
0.00177889
-0.000856165
0.00263956
-0.000860664
0.00350344
-0.000863884
0.00436995
-0.000866506
0.00523829
-0.000868341
0.00610729
-0.000868999
0.00697631
-0.000869026
0.00784444
-0.000868133
0.00871094
-0.000866497
0.00957467
-0.00086373
0.0104357
-0.000860986
0.0112926
-0.000856896
0.0121446
-0.000852093
0.0129912
-0.000846536
0.0138316
-0.000840412
0.0146652
-0.000833589
0.0154913
-0.000826125
0.0163094
-0.000818049
0.0171187
-0.000809388
0.0179189
-0.00080017
0.0187093
-0.000790417
0.0194895
-0.000780159
0.0202589
-0.000769423
0.0210172
-0.000758237
0.0217638
-0.000746631
0.0224984
-0.000734632
0.0232207
-0.000722269
0.0239303
-0.000709572
0.0246268
-0.000696569
0.0253101
-0.000683289
0.0259799
-0.00066976
0.0266359
-0.000656011
0.027278
-0.000642068
0.0279059
-0.000627961
0.0285196
-0.000613717
0.029119
-0.000599361
0.0297039
-0.000584922
0.0302743
-0.000570424
0.0308302
-0.000555893
0.0313716
-0.000541354
0.0318984
-0.000526832
0.0324108
-0.00051235
0.0329087
-0.000497931
0.0333923
-0.000483597
0.0338617
-0.000469371
0.0343169
-0.000455273
0.0347583
-0.000441324
0.0351858
-0.000427544
0.0355998
-0.000413952
0.0360003
-0.000400566
0.0363877
-0.000387405
0.0367622
-0.000374485
0.037124
-0.000361823
0.0374735
-0.000349435
0.0378108
-0.000337337
0.0381364
-0.000325543
0.0384504
-0.000314069
0.0387534
-0.000302927
0.0390455
-0.000292131
0.0393272
-0.000281694
0.0395988
-0.000271627
0.0398607
-0.000261943
0.0401134
-0.000252651
0.0403572
-0.000243763
0.0405924
-0.000235288
0.0408197
-0.000227235
0.0410393
-0.000219614
0.0412517
-0.000212431
0.0414574
-0.000205694
0.0416568
-0.000199411
0.0418504
-0.000193588
0.0420387
-0.000188231
0.042222
-0.000183344
0.0424009
-0.000178933
0.0425759
-0.000175002
0.0427475
-0.000171554
0.0429161
-0.000168593
0.0430822
-0.000166122
0.0432463
-0.000164142
0.043409
-0.000162656
0.0435707
-0.000161664
0.0437318
-0.000161168
0.043893
-0.000161166
0.0440547
-0.000161659
0.0442173
-0.000162646
0.0443814
-0.000164124
0.0445475
-0.000166091
0.0447161
-0.000168545
0.0448875
-0.000171481
0.0450624
-0.000174894
0.0452412
-0.000178781
0.0454244
-0.000183133
0.0456123
-0.000187944
0.0458055
-0.000193207
0.0460044
-0.000198913
0.0462095
-0.000205051
0.0464211
-0.000211611
0.0466397
-0.000218581
0.0468656
-0.000225949
0.0470993
-0.0002337
0.0473411
-0.000241821
0.0475914
-0.000250294
0.0478505
-0.000259103
0.0481188
-0.000268231
0.0483964
-0.000277658
0.0486838
-0.000287365
0.0489811
-0.000297331
0.0492886
-0.000307534
0.0496066
-0.000317952
0.0499352
-0.000328561
0.0502745
-0.000339339
0.0506248
-0.00035026
0.0509861
-0.000361299
0.0513585
-0.000372431
0.0517421
-0.00038363
0.052137
-0.00039487
0.0525431
-0.000406123
0.0529605
-0.000417364
0.053389
-0.000428565
0.0538287
-0.000439701
0.0542795
-0.000450743
0.0547412
-0.000461666
0.0552136
-0.000472444
0.0556966
-0.000483049
0.0561901
-0.00049345
0.0566937
-0.000503615
0.0572072
-0.000513523
0.0577304
-0.000523169
0.058263
-0.000532567
0.0588047
-0.000541723
0.0593552
-0.000550546
0.059914
-0.000558714
0.0604795
-0.000565535
0.0610494
-0.000569895
0.0616198
-0.000570395
0.0621855
-0.000565731
0.0627407
-0.000555229
0.0632801
-0.000539335
0.0637999
-0.000519801
0.0642993
-0.000499385
0.0647804
-0.000481115
0.0652478
-0.000467395
0.0657071
-0.00045936
0.0661639
-0.000456741
0.0666221
-0.000458251
0.0670843
-0.000462225
0.0675515
-0.000467201
0.0680238
-0.000472216
0.0685006
-0.000476821
0.0689815
-0.000480904
0.069466
-0.000484503
0.0699537
-0.000487662
0.070444
-0.000490391
0.0709367
-0.00049266
0.0714311
-0.000494429
0.0719268
-0.000495658
0.0724231
-0.00049632
0.0729195
-0.000496392
0.0734154
-0.000495861
0.0739101
-0.000494716
0.074403
-0.000492947
0.0748936
-0.00049055
0.0753811
-0.00048752
0.075865
-0.000483855
0.0763445
-0.000479554
0.0768191
-0.000474619
0.0772882
-0.000469052
0.077751
-0.000462857
0.0782071
-0.00045604
0.0786557
-0.000448606
0.0790962
-0.000440561
0.0795282
-0.000431913
0.0799508
-0.000422674
0.0803637
-0.000412854
0.0807661
-0.000402464
0.0811577
-0.000391517
0.0815377
-0.00038002
0.0819057
-0.000367987
0.0822611
-0.000355429
0.0826035
-0.000342361
0.0829323
-0.000328801
0.083247
-0.000314765
0.0835473
-0.000300268
0.0838326
-0.000285323
0.0841026
-0.000269943
0.0843567
-0.000254142
0.0845946
-0.000237933
0.084816
-0.000221335
0.0850203
-0.000204367
0.0852074
-0.000187051
0.0853768
-0.00016941
0.0855283
-0.000151466
0.0856615
-0.000133241
0.0857763
-0.000114763
0.0858723
-9.60688e-05
0.0859495
-7.72061e-05
0.0860078
-5.82115e-05
0.0860469
-3.91944e-05
0.0860675
-2.05091e-05
0.0860708
-3.35597e-06
0.0860557
1.51526e-05
0.0860248
3.08518e-05
0.0859786
4.62406e-05
0.085917
6.15787e-05
0.0858401
7.68641e-05
0.085748
9.20879e-05
0.0856408
0.000107216
0.0855186
0.000122226
0.0853815
0.000137102
0.0852297
0.000151831
0.0850633
0.000166408
0.0848824
0.000180827
0.0846873
0.000195082
0.0844782
0.000209169
0.0842551
0.00022308
0.0840183
0.00023681
0.0837679
0.00025035
0.0835042
0.000263695
0.0832274
0.00027684
0.0829376
0.000289781
0.0826351
0.000302513
0.0823201
0.000315036
0.0819927
0.000327344
0.0816533
0.000339438
0.081302
0.000351315
0.080939
0.000362973
0.0805646
0.000374413
0.080179
0.000385633
0.0797823
0.000396634
0.0793749
0.000407417
0.0789569
0.000417981
0.0785286
0.000428329
0.0780901
0.000438461
0.0776418
0.00044838
0.0771837
0.000458086
0.0767161
0.000467583
0.0762392
0.000476873
0.0757533
0.000485958
0.0752584
0.000494841
0.0747549
0.000503525
0.0742429
0.000512014
0.0737226
0.000520309
0.0731941
0.000528415
0.0726578
0.000536335
0.0721137
0.000544072
0.0715621
0.000551631
0.0710031
0.000559013
0.0704369
0.000566223
0.0698636
0.000573263
0.0692835
0.000580139
0.0686966
0.000586852
0.0681032
0.000593406
0.0675034
0.000599805
0.0668974
0.000606051
0.0662852
0.000612148
0.0656671
0.000618098
0.0650432
0.000623905
0.0644136
0.000629571
0.0637785
0.000635099
0.063138
0.000640491
0.0624923
0.00064575
0.0618414
0.000650877
0.0611855
0.000655875
0.0605248
0.000660745
0.0598593
0.00066549
0.0591892
0.00067011
0.0585146
0.000674606
0.0578356
0.000678981
0.0571524
0.000683234
0.056465
0.000687366
0.0557736
0.000691378
0.0550784
0.000695271
0.0543793
0.000699043
0.0536766
0.000702695
0.0529704
0.000706227
0.0522608
0.000709637
0.0515478
0.000712926
0.0508317
0.000716092
0.0501126
0.000719134
0.0493906
0.000722051
0.0486657
0.00072484
0.0479382
0.000727501
0.0472082
0.00073003
0.0464758
0.000732427
0.0457411
0.000734688
0.0450043
0.000736812
0.0442655
0.000738794
0.0435248
0.000740633
0.0427825
0.000742325
0.0420386
0.000743867
0.0412934
0.000745256
0.0405469
0.000746488
0.0397993
0.000747558
0.0390509
0.000748465
0.0383017
0.000749203
0.0375519
0.000749768
0.0368017
0.000750157
0.0360514
0.000750364
0.035301
0.000750386
0.0345508
0.000750219
0.0338009
0.000749857
0.0330516
0.000749296
0.0323031
0.000748532
0.0315555
0.000747559
0.0308092
0.000746374
0.0300642
0.000744972
0.0293208
0.000743347
0.0285793
0.000741497
0.0278399
0.000739415
0.0271028
0.000737097
0.0263683
0.00073454
0.0256366
0.000731739
0.0249079
0.00072869
0.0241825
0.000725389
0.0234606
0.000721831
0.0227426
0.000718014
0.0220287
0.000713934
0.0213191
0.000709588
0.0206141
0.000704972
0.0199141
0.000700084
0.0192191
0.000694922
0.0185296
0.000689484
0.0178459
0.000683766
0.0171681
0.00067777
0.0164966
0.000671492
0.0158317
0.000664933
0.0151736
0.000658091
0.0145226
0.000650968
0.0138791
0.000643564
0.0132432
0.00063588
0.0126153
0.000627918
0.0119956
0.000619679
0.0113844
0.000611166
0.010782
0.000602383
0.0101887
0.000593332
0.00960468
0.000584019
0.00903024
0.000574447
0.00846561
0.000564623
0.00791106
0.000554552
0.00736682
0.00054424
0.00683313
0.000533695
0.0063102
0.000522925
0.00579827
0.000511937
0.00529753
0.00050074
0.00480818
0.000489344
0.00433042
0.000477758
0.00386443
0.000465992
0.00341037
0.000454058
0.00296841
0.000441966
0.00253868
0.000429728
0.00212132
0.000417356
0.00171646
0.000404862
0.0013242
0.000392257
0.00094465
0.000379554
0.000577888
0.000366762
0.000224003
0.000353886
-0.000116914
0.000340916
-0.000444915
0.000328002
-0.000759869
0.000314954
-0.00106196
0.000302086
-0.00135112
0.000289165
-0.00162723
0.000276112
-0.00189039
0.000263161
-0.00214059
0.0002502
-0.0023779
0.000237302
-0.00260236
0.000224468
-0.00281405
0.000211685
-0.00301302
0.000198966
-0.00319948
0.000186466
-0.00337339
0.000173907
-0.00353488
0.000161495
-0.00368425
0.000149371
-0.00382146
0.000137203
-0.00394659
0.000125127
-0.00405988
0.000113293
-0.00416144
0.000101558
-0.00425139
8.9958e-05
-0.0043299
7.85044e-05
-0.00439709
6.71883e-05
-0.00445319
5.61069e-05
-0.00449835
4.51542e-05
-0.00453267
3.43222e-05
-0.00455626
2.35905e-05
-0.00456945
1.31866e-05
-0.00457218
2.73781e-06
-0.00456452
-7.6655e-06
-0.00454628
-1.82408e-05
-0.00451775
-2.85296e-05
-0.00447908
-3.86701e-05
-0.00443043
-4.86482e-05
-0.0043721
-5.83269e-05
-0.0043044
-6.77052e-05
-0.00422756
-7.68364e-05
-0.00414188
-8.56861e-05
-0.00404755
-9.43306e-05
-0.00394485
-0.000102696
-0.00383406
-0.000110785
-0.00371554
-0.000118529
-0.00358971
-0.000125823
-0.00345668
-0.000133037
-0.00331666
-0.000140014
-0.00317028
-0.00014638
-0.00301752
-0.000152761
-0.00286088
-0.000156639
-0.00268145
-0.000179427
-0.00255885
-0.000122608
-0.00229747
-0.000261372
-0.00223893
-5.85476e-05
-0.0019094
-0.000329526
-0.00187729
-3.21062e-05
-0.00153931
-0.000337985
-0.00147561
-6.37025e-05
-0.00118585
-0.000289755
-0.00105553
-0.000130317
-0.000775897
-0.000279637
-0.000615931
-0.000159966
-0.000224106
-0.000391825
-0.000208438
-1.5668e-05
-0.000208438
-0.000836241
0.00153599
-0.00162425
0.00134285
-0.00242516
0.00142983
-0.00323839
0.00142747
-0.00404079
0.00142763
-0.00483627
0.00141259
-0.00562481
0.00140853
-0.00640435
0.00139356
-0.00717383
0.00138358
-0.00793207
0.00136716
-0.00867767
0.00135229
-0.00940956
0.00133335
-0.0101263
0.00131386
-0.0108268
0.00129203
-0.0115096
0.00126857
-0.0121737
0.0012432
-0.0128178
0.00121596
-0.0134408
0.00118683
-0.0140414
0.00115579
-0.0146186
0.00112282
-0.0151713
0.00108792
-0.0156984
0.00105109
-0.0161991
0.00101237
-0.0166721
0.000971791
-0.0171167
0.000929296
-0.0175321
0.000884891
-0.0179176
0.000838685
-0.0182725
0.000790727
-0.0185962
0.00074107
-0.0188882
0.000689778
-0.0191481
0.000636923
-0.0193753
0.000582585
-0.0195697
0.000526852
-0.019731
0.000469821
-0.019859
0.000411587
-0.0199537
0.000352254
-0.020015
0.000291929
-0.0200428
0.000230699
-0.0200367
0.00016876
-0.0199973
0.000106538
-0.0199269
4.44322e-05
-0.019835
-1.59498e-05
-0.019731
-8.22701e-05
-0.0196256
-0.00014445
-0.0195106
-0.000205603
-0.019373
-0.000266817
-0.0192072
-0.000328084
-0.019012
-0.00038918
-0.0187867
-0.000449857
-0.0185314
-0.000509922
-0.0182464
-0.000569242
-0.0179322
-0.00062775
-0.0175891
-0.000685384
-0.0172177
-0.000742065
-0.0168184
-0.000797715
-0.0163918
-0.000852257
-0.0159385
-0.000905615
-0.0154592
-0.000957715
-0.0149544
-0.00100849
-0.014425
-0.00105788
-0.0138715
-0.00110582
-0.0132948
-0.00115226
-0.0126957
-0.00119713
-0.0120749
-0.00124041
-0.0114333
-0.00128203
-0.0107717
-0.00132197
-0.010091
-0.00136019
-0.00939205
-0.00139665
-0.00867574
-0.00143133
-0.00794299
-0.00146421
-0.00719471
-0.00149525
-0.00643182
-0.00152446
-0.00565524
-0.0015518
-0.00486592
-0.00157729
-0.00406478
-0.0016009
-0.00325279
-0.00162262
-0.00243085
-0.00164248
-0.00159992
-0.00166046
-0.000760939
-0.00167656
8.51617e-05
-0.0016908
0.000937454
-0.00170318
0.001795
-0.00171371
0.00265666
-0.00172232
0.00352228
-0.0017295
0.00439034
-0.00173457
0.00525988
-0.00173788
0.00613051
-0.00173962
0.00700103
-0.00173954
0.00787065
-0.00173775
0.00873855
-0.0017344
0.00960422
-0.0017294
0.0104663
-0.00172303
0.0113244
-0.00171506
0.0121778
-0.00170549
0.0130259
-0.00169459
0.0138677
-0.00168222
0.0147027
-0.00166857
0.0155302
-0.00165364
0.0163496
-0.00163749
0.0171604
-0.00162016
0.0179619
-0.00160171
0.0187537
-0.0015822
0.0195352
-0.00156167
0.020306
-0.00154018
0.0210655
-0.0015178
0.0218135
-0.00149458
0.0225494
-0.00147057
0.023273
-0.00144583
0.0239838
-0.00142042
0.0246817
-0.0013944
0.0253662
-0.00136783
0.0260372
-0.00134076
0.0266944
-0.00131325
0.0273377
-0.00128535
0.0279669
-0.00125713
0.0285818
-0.00122863
0.0291824
-0.0011999
0.0297684
-0.00117101
0.03034
-0.00114201
0.0308971
-0.00111294
0.0314396
-0.00108385
0.0319675
-0.00105479
0.032481
-0.00102582
0.03298
-0.000996973
0.0334647
-0.000968297
0.0339352
-0.000939837
0.0343916
-0.000911634
0.034834
-0.000883729
0.0352626
-0.000856162
0.0356776
-0.000828971
0.0360792
-0.000802193
0.0364677
-0.000775864
0.0368432
-0.000750019
0.0372061
-0.00072469
0.0375566
-0.000699911
0.0378949
-0.000675711
0.0382215
-0.00065212
0.0385366
-0.000629169
0.0388406
-0.000606882
0.0391337
-0.000585289
0.0394165
-0.000564412
0.0396891
-0.000544278
0.0399521
-0.000524908
0.0402057
-0.000506324
0.0404505
-0.000488547
0.0406868
-0.000471598
0.0409151
-0.000455493
0.0411357
-0.00044025
0.0413492
-0.000425886
0.0415559
-0.000412416
0.0417563
-0.000399852
0.041951
-0.000388208
0.0421402
-0.000377496
0.0423246
-0.000367725
0.0425046
-0.000358907
0.0426806
-0.000351048
0.0428532
-0.000344157
0.0430229
-0.00033824
0.0431901
-0.000333302
0.0433553
-0.000329347
0.043519
-0.00032638
0.0436817
-0.000324402
0.043844
-0.000323414
0.0440062
-0.000323416
0.044169
-0.000324408
0.0443327
-0.000326387
0.0444979
-0.00032935
0.0446651
-0.000333291
0.0448348
-0.000338204
0.0450074
-0.000344083
0.0451834
-0.000350917
0.0453633
-0.000358697
0.0455476
-0.000367409
0.0457367
-0.00037704
0.0459311
-0.000387574
0.0461312
-0.000398994
0.0463374
-0.000411279
0.0465502
-0.000424408
0.04677
-0.000438359
0.0469971
-0.000453104
0.047232
-0.000468617
0.0474751
-0.000484868
0.0477266
-0.000501826
0.047987
-0.000519456
0.0482565
-0.000537723
0.0485354
-0.000556589
0.048824
-0.000576015
0.0491227
-0.000595959
0.0494315
-0.000616378
0.0497508
-0.000637226
0.0500807
-0.000658459
0.0504214
-0.000680028
0.050773
-0.000701883
0.0511357
-0.000723975
0.0515095
-0.000746253
0.0518945
-0.000768665
0.0522908
-0.000791158
0.0526984
-0.000813679
0.0531172
-0.000836174
0.0535472
-0.00085859
0.0539884
-0.000880874
0.0544406
-0.000902972
0.0549038
-0.00092483
0.0553777
-0.000946395
0.0558623
-0.000967614
0.0563573
-0.000988436
0.0568625
-0.00100881
0.0573776
-0.00102868
0.0579024
-0.00104799
0.0584366
-0.00106669
0.0589796
-0.00108472
0.059531
-0.00110202
0.0600908
-0.0011185
0.0606594
-0.00113409
0.0612382
-0.00114869
0.0618299
-0.00116216
0.0624386
-0.00117437
0.0630685
-0.00118517
0.0637237
-0.00119452
0.0644064
-0.00120254
0.0651166
-0.00120954
0.0658514
-0.00121592
0.066606
-0.00122205
0.0673748
-0.00122812
0.0681521
-0.00123408
0.0689336
-0.00123968
0.069716
-0.00124462
0.0704974
-0.00124864
0.0712768
-0.00125159
0.0720534
-0.00125342
0.0728266
-0.00125413
0.0735958
-0.00125373
0.0743604
-0.00125222
0.0751196
-0.0012496
0.0758728
-0.00124584
0.0766193
-0.00124094
0.0773585
-0.00123488
0.0780899
-0.00122767
0.0788128
-0.0012193
0.0795267
-0.00120977
0.0802311
-0.00119909
0.0809254
-0.00118726
0.0816091
-0.0011743
0.0822818
-0.0011602
0.0829429
-0.00114499
0.0835921
-0.00112867
0.0842287
-0.00111126
0.0848524
-0.00109278
0.0854628
-0.00107323
0.0860594
-0.00105265
0.0866419
-0.00103105
0.0872097
-0.00100846
0.0877627
-0.000984893
0.0883004
-0.00096038
0.0888225
-0.000934947
0.0893287
-0.000908621
0.0898186
-0.000881428
0.090292
-0.0008534
0.0907486
-0.000824566
0.0911881
-0.000794959
0.0916103
-0.000764614
0.0920151
-0.000733566
0.0924022
-0.000701848
0.0927714
-0.000669498
0.0931226
-0.00063655
0.0934557
-0.000603043
0.0937706
-0.000569015
0.0940672
-0.000534509
0.0943454
-0.000499568
0.0946053
-0.000464231
0.0948468
-0.000428545
0.0950699
-0.000392551
0.0952748
-0.000356295
0.0954613
-0.000319818
0.0956297
-0.000283172
0.0957801
-0.000246399
0.0959124
-0.000209539
0.0960268
-0.000172635
0.0961234
-0.000135754
0.0962019
-9.89903e-05
0.0962608
-6.23142e-05
0.0963002
-2.42046e-05
0.0963198
1.12576e-05
0.0963188
4.72096e-05
0.0962973
8.3065e-05
0.0962555
0.000118637
0.0961938
0.000153879
0.0961122
0.000188784
0.0960111
0.000223339
0.0958907
0.000257525
0.0957512
0.000291316
0.0955929
0.000324692
0.0954161
0.00035763
0.0952211
0.00039011
0.0950081
0.000422114
0.0947776
0.000453624
0.0945298
0.000484624
0.094265
0.000515099
0.0939837
0.000545035
0.0936861
0.000574422
0.0933726
0.000603248
0.0930436
0.000631506
0.0926995
0.000659189
0.0923405
0.000686291
0.0919672
0.000712808
0.0915797
0.000738739
0.0911786
0.000764081
0.0907642
0.000788834
0.0903368
0.000813
0.0898969
0.00083658
0.0894447
0.000859578
0.0889807
0.000881999
0.0885052
0.000903846
0.0880185
0.000925127
0.0875211
0.000945847
0.0870131
0.000966015
0.0864951
0.000985638
0.0859672
0.00100473
0.0854299
0.00102329
0.0848834
0.00104133
0.0843281
0.00105887
0.0837642
0.00107591
0.083192
0.00109246
0.0826119
0.00110854
0.082024
0.00112416
0.0814288
0.00113933
0.0808264
0.00115405
0.080217
0.00116834
0.079601
0.00118222
0.0789786
0.00119569
0.07835
0.00120876
0.0777154
0.00122145
0.0770751
0.00123376
0.0764291
0.00124571
0.0757779
0.00125731
0.0751215
0.00126857
0.0744601
0.00127949
0.0737939
0.00129009
0.0731231
0.00130037
0.0724478
0.00131036
0.0717683
0.00132004
0.0710846
0.00132944
0.0703969
0.00133855
0.0697054
0.00134739
0.0690102
0.00135597
0.0683114
0.00136429
0.0676091
0.00137235
0.0669036
0.00138016
0.0661948
0.00138773
0.065483
0.00139506
0.0647682
0.00140216
0.0640506
0.00140902
0.0633302
0.00141566
0.0626072
0.00142207
0.0618816
0.00142825
0.0611536
0.00143422
0.0604233
0.00143996
0.0596907
0.00144548
0.0589561
0.00145077
0.0582193
0.00145585
0.0574807
0.00146071
0.0567402
0.00146534
0.0559979
0.00146974
0.0552541
0.00147391
0.0545086
0.00147786
0.0537618
0.00148157
0.0530135
0.00148503
0.0522641
0.00148826
0.0515135
0.00149124
0.0507618
0.00149396
0.0500093
0.00149642
0.0492559
0.00149862
0.0485018
0.00150055
0.0477472
0.0015022
0.0469921
0.00150356
0.0462367
0.00150463
0.0454811
0.00150539
0.0447254
0.00150585
0.0439697
0.00150599
0.0432143
0.0015058
0.0424593
0.00150528
0.0417047
0.00150441
0.0409508
0.00150318
0.0401978
0.00150159
0.0394457
0.00149963
0.0386948
0.00149728
0.0379453
0.00149453
0.0371972
0.00149138
0.0364509
0.00148782
0.0357065
0.00148383
0.0349642
0.0014794
0.0342242
0.00147453
0.0334867
0.0014692
0.032752
0.0014634
0.0320203
0.00145713
0.0312917
0.00145038
0.0305666
0.00144313
0.0298452
0.00143537
0.0291277
0.00142711
0.0284143
0.00141832
0.0277054
0.00140901
0.0270011
0.00139916
0.0263018
0.00138878
0.0256078
0.00137784
0.0249192
0.00136635
0.0242364
0.00135431
0.0235596
0.0013417
0.0228892
0.00132853
0.0222253
0.00131479
0.0215684
0.00130049
0.0209187
0.00128562
0.0202764
0.00127018
0.0196419
0.00125418
0.0190155
0.00123762
0.0183973
0.0012205
0.0177878
0.00120283
0.0171872
0.00118462
0.0165958
0.00116587
0.0160138
0.0011466
0.0154416
0.00112681
0.0148793
0.00110652
0.0143273
0.00108574
0.0137857
0.00106448
0.0132549
0.00104277
0.012735
0.00102061
0.0122263
0.000998041
0.011729
0.000975069
0.0112433
0.00095172
0.0107693
0.000928016
0.0103073
0.000903984
0.00985737
0.000879648
0.00941969
0.000855035
0.00899438
0.000830174
0.00858155
0.000805093
0.00818128
0.000779821
0.00779365
0.000754387
0.00741872
0.00072882
0.00705648
0.000703152
0.00670703
0.000677455
0.00637027
0.00065172
0.0060463
0.000626052
0.00573506
0.000600408
0.00543638
0.000574786
0.00515026
0.000549283
0.00487655
0.000523911
0.00461514
0.000498713
0.00436588
0.000473723
0.0041286
0.000448966
0.00390309
0.000424482
0.00368922
0.000400331
0.00348666
0.000376465
0.00329518
0.000352974
0.00311464
0.000329919
0.00294463
0.000307206
0.00278485
0.000284907
0.00263504
0.000263111
0.00249482
0.000241768
0.00236387
0.000220912
0.0022418
0.000200576
0.00212821
0.000180778
0.00202276
0.000161558
0.00192504
0.000142873
0.00183463
0.000124736
0.00175103
0.000107192
0.0016739
9.03102e-05
0.00160266
7.39782e-05
0.0015367
5.82943e-05
0.00147523
4.32309e-05
0.00141787
2.88306e-05
0.00136415
1.50528e-05
0.00131363
1.86997e-06
0.00126605
-1.07496e-05
0.0012208
-2.24516e-05
0.00117737
-3.3404e-05
0.00113571
-4.40333e-05
0.00109538
-5.39938e-05
0.00105604
-6.33582e-05
0.00101732
-7.20712e-05
0.000979079
-8.02837e-05
0.000941012
-8.77561e-05
0.000902783
-9.48075e-05
0.000864166
-0.000101397
0.000825048
-0.000107262
0.000785984
-0.000113698
0.000738907
-0.000109562
0.000708185
-0.000148705
0.000657306
-7.17301e-05
0.000619279
-0.000223345
0.000571893
-1.11615e-05
0.000529569
-0.000287202
0.000473001
2.44617e-05
0.000444871
-0.000309855
0.000371569
9.59867e-06
0.000362789
-0.000280975
0.000278105
-4.56321e-05
0.000231876
-0.000233408
0.000168
-9.60899e-05
-2.00739e-05
-0.000203751
4.71347e-05
-8.28766e-05
-0.000161304
-0.00079382
0.00232981
-0.00152352
0.00207255
-0.00227772
0.00218402
-0.00304097
0.00219072
-0.00379434
0.002181
-0.00454255
0.0021608
-0.00528315
0.00214912
-0.00601574
0.00212615
-0.00673903
0.00210687
-0.00745183
0.00207997
-0.00815323
0.00205369
-0.00884201
0.00202213
-0.00951721
0.00198906
-0.0101778
0.00195261
-0.0108227
0.00191351
-0.0114511
0.00187158
-0.012062
0.00182686
-0.0126545
0.00177935
-0.0132278
0.00172909
-0.0137811
0.00167613
-0.0143137
0.00162048
-0.0148248
0.00156219
-0.0153138
0.00150133
-0.0157799
0.00143794
-0.0162227
0.00137207
-0.0166416
0.00130377
-0.0170361
0.00123315
-0.0174056
0.00116029
-0.0177498
0.0010853
-0.0180683
0.00100826
-0.0183607
0.00092928
-0.0186266
0.000848475
-0.0188657
0.000765963
-0.0190777
0.00068187
-0.0192625
0.000596327
-0.0194197
0.000509473
-0.0195492
0.000421446
-0.0196509
0.000332379
-0.0197244
0.000242262
-0.0197686
0.000150754
-0.019782
5.78647e-05
-0.0197614
-3.6567e-05
-0.0197187
-0.000125031
-0.0196486
-0.000214486
-0.019548
-0.000306186
-0.0194151
-0.000399735
-0.0192504
-0.000492852
-0.0190547
-0.000584797
-0.0188289
-0.000675741
-0.018573
-0.000765772
-0.0182875
-0.000854766
-0.0179726
-0.000942588
-0.0176289
-0.00102911
-0.0172568
-0.00111421
-0.0168567
-0.00119776
-0.0164294
-0.00127964
-0.0159752
-0.00135975
-0.015495
-0.00143796
-0.0149893
-0.00151419
-0.0144588
-0.00158833
-0.0139043
-0.0016603
-0.0133266
-0.00173
-0.0127264
-0.00179736
-0.0121045
-0.00186232
-0.0114617
-0.0019248
-0.0107989
-0.00198474
-0.010117
-0.0020421
-0.00941685
-0.00209682
-0.00869932
-0.00214887
-0.00796532
-0.0021982
-0.00721578
-0.00224479
-0.00645162
-0.00228861
-0.00567378
-0.00232965
-0.00488318
-0.00236789
-0.00408077
-0.00240331
-0.00326748
-0.00243591
-0.00244428
-0.00246568
-0.00161209
-0.00249265
-0.000771847
-0.0025168
7.55105e-05
-0.00253815
0.000929051
-0.00255672
0.00178786
-0.00257252
0.0026511
-0.00258556
0.00351762
-0.00259603
0.00438678
-0.00260372
0.00525761
-0.00260871
0.00612924
-0.00261126
0.00700086
-0.00261116
0.00787157
-0.00260847
0.00874057
-0.00260341
0.00960715
-0.00259597
0.0104703
-0.00258622
0.0113295
-0.0025742
0.0121838
-0.00255984
0.0130327
-0.00254349
0.0138755
-0.00252499
0.0147113
-0.00250441
0.0155397
-0.00248198
0.0163599
-0.00245771
0.0171714
-0.00243168
0.0179737
-0.00240396
0.0187661
-0.00237465
0.0195483
-0.00234381
0.0203196
-0.00231154
0.0210797
-0.00227791
0.0218282
-0.00224303
0.0225646
-0.00220697
0.0232886
-0.00216981
0.0239998
-0.00213166
0.024698
-0.00209258
0.0253828
-0.00205268
0.0260541
-0.00201202
0.0267116
-0.00197071
0.027355
-0.00192882
0.0279843
-0.00188644
0.0285994
-0.00184364
0.0292
-0.00180052
0.0297861
-0.00175714
0.0303577
-0.00171359
0.0309147
-0.00166994
0.0314571
-0.00162627
0.0319849
-0.00158265
0.0324983
-0.00153915
0.0329971
-0.00149584
0.0334816
-0.00145279
0.0339519
-0.00141007
0.034408
-0.00136773
0.0348501
-0.00132584
0.0352784
-0.00128446
0.0356931
-0.00124365
0.0360943
-0.00120345
0.0364824
-0.00116393
0.0368575
-0.00112514
0.0372199
-0.00108712
0.0375699
-0.00104993
0.0379078
-0.0010136
0.0382339
-0.000978196
0.0385485
-0.000943748
0.0388519
-0.000910299
0.0391445
-0.00087789
0.0394267
-0.000846558
0.0396987
-0.000816339
0.0399611
-0.000787269
0.0402141
-0.000759379
0.0404583
-0.000732701
0.040694
-0.000707264
0.0409216
-0.000683096
0.0411415
-0.000660222
0.0413543
-0.000638667
0.0415603
-0.000618453
0.0417601
-0.0005996
0.041954
-0.000582128
0.0421426
-0.000566055
0.0423262
-0.000551395
0.0425055
-0.000538164
0.0426808
-0.000526373
0.0428527
-0.000516035
0.0430216
-0.000507159
0.0431881
-0.000499752
0.0433525
-0.000493821
0.0435155
-0.000489372
0.0436775
-0.000486408
0.0438391
-0.00048493
0.0440006
-0.000484938
0.0441626
-0.000486432
0.0443256
-0.000489407
0.0444901
-0.000493858
0.0446566
-0.000499779
0.0448256
-0.000507159
0.0449975
-0.000515988
0.0451728
-0.000526252
0.0453521
-0.000537935
0.0455357
-0.000551019
0.0457241
-0.000565482
0.0459178
-0.000581301
0.0461173
-0.000598449
0.0463229
-0.000616898
0.0465351
-0.000636615
0.0467543
-0.000657564
0.0469809
-0.000679708
0.0472153
-0.000703005
0.0474579
-0.000727411
0.0477089
-0.000752878
0.0479688
-0.000779355
0.0482379
-0.00080679
0.0485164
-0.000835124
0.0488047
-0.0008643
0.049103
-0.000894254
0.0494115
-0.000924922
0.0497305
-0.000956236
0.0500602
-0.000988126
0.0504007
-0.00102052
0.0507522
-0.00105335
0.0511147
-0.00108653
0.0514885
-0.00111999
0.0518735
-0.00115366
0.0522697
-0.00118744
0.0526773
-0.00122127
0.0530962
-0.00125506
0.0535264
-0.00128873
0.0539677
-0.0013222
0.0544201
-0.0013554
0.0548835
-0.00138823
0.0553577
-0.00142062
0.0558426
-0.0014525
0.056338
-0.00148378
0.0568436
-0.00151439
0.0573591
-0.00154424
0.0578844
-0.00157326
0.058419
-0.00160134
0.0589627
-0.00162837
0.0595149
-0.00165423
0.0600752
-0.00167879
0.060643
-0.00170195
0.061218
-0.00172365
0.0617997
-0.00174385
0.0623879
-0.00176256
0.0629825
-0.00177981
0.0635836
-0.00179562
0.0641912
-0.00181007
0.0648049
-0.00182329
0.0654244
-0.00183542
0.066049
-0.00184663
0.0666779
-0.00185701
0.0673104
-0.00186657
0.0679459
-0.00187522
0.0685841
-0.00188282
0.0692247
-0.00188921
0.0698673
-0.00189427
0.0705118
-0.00189787
0.0711576
-0.00189995
0.0718043
-0.00190041
0.0724513
-0.00189922
0.073098
-0.00189631
0.0737438
-0.00189165
0.0743881
-0.00188523
0.0750302
-0.00187701
0.0756695
-0.00186698
0.0763054
-0.00185516
0.0769371
-0.00184152
0.0775641
-0.00182608
0.0781857
-0.00180884
0.0788012
-0.00178982
0.0794101
-0.00176903
0.0800116
-0.00174649
0.0806051
-0.00172222
0.0811901
-0.00169624
0.0817659
-0.00166858
0.0823319
-0.00163926
0.0828876
-0.00160833
0.0834324
-0.00157581
0.0839657
-0.00154174
0.0844869
-0.00150616
0.0849957
-0.00146911
0.0854913
-0.00143063
0.0859735
-0.00139077
0.0864416
-0.00134957
0.0868953
-0.00130709
0.0873341
-0.00126337
0.0877576
-0.00121847
0.0881655
-0.00117243
0.0885572
-0.00112533
0.0889326
-0.00107721
0.0892912
-0.00102814
0.0896328
-0.000978171
0.0899572
-0.000927368
0.090264
-0.000875794
0.090553
-0.000823517
0.090824
-0.000770595
0.0910769
-0.000717107
0.0913114
-0.000663112
0.0915276
-0.000608681
0.0917252
-0.000553891
0.0919041
-0.000498796
0.0920644
-0.000443469
0.092206
-0.000387989
0.0923289
-0.000332435
0.0924331
-0.000276831
0.0925186
-0.000221263
0.0925854
-0.000165779
0.0926334
-0.000110318
0.092664
-5.47971e-05
0.0926745
7.3995e-07
0.0926659
5.58256e-05
0.0926383
0.000110678
0.0925918
0.000165182
0.0925264
0.000219277
0.0924422
0.000272896
0.0923396
0.000325986
0.0922186
0.000378499
0.0920795
0.000430396
0.0919226