/*--------------------------------*- C++ -*----------------------------------*\
| =========                 |                                                 |
| \\      /  F ield         | OpenFOAM: The Open Source CFD Toolbox           |
|  \\    /   O peration     | Version:  v2006                                 |
|   \\  /    A nd           | Website:  www.openfoam.com                      |
|    \\/     M anipulation  |                                                 |
\*---------------------------------------------------------------------------*/
FoamFile
{
    version     2.0;
    format      ascii;
    class       volVectorField;
    location    "0";
    object      U;
}
// * * * * * * * * * * * * * * * * * * * * * * * * * * * * * * * * * * * * * //

dimensions      [0 1 -1 0 0 0 0];


internalField   nonuniform List<vector> 
20000
(
(1 3.80428e-12 0)
(1 1.01765e-11 0)
(1 1.77756e-11 0)
(1 2.75729e-11 0)
(1 3.96173e-11 0)
(1 5.38701e-11 0)
(1 7.04197e-11 0)
(1 8.96085e-11 0)
(1 1.11868e-10 0)
(1 1.37436e-10 0)
(1 1.6617e-10 0)
(1 1.97537e-10 0)
(1 2.30747e-10 0)
(1 2.64887e-10 0)
(1 2.98987e-10 0)
(1 3.32003e-10 0)
(1 3.62751e-10 0)
(1 3.89871e-10 0)
(1 4.11864e-10 0)
(1 4.27219e-10 0)
(1 4.34614e-10 0)
(1 4.33098e-10 0)
(1 4.22088e-10 0)
(1 4.01337e-10 0)
(1 3.71253e-10 0)
(1 3.32935e-10 0)
(1 2.87943e-10 0)
(1 2.38001e-10 0)
(1 1.84714e-10 0)
(1 1.29429e-10 0)
(1 7.32657e-11 0)
(1 1.73038e-11 0)
(1 -3.71384e-11 0)
(1 -8.8387e-11 0)
(1 -1.34546e-10 0)
(1 -1.73669e-10 0)
(1 -2.03464e-10 0)
(1 -2.20863e-10 0)
(1 -2.22667e-10 0)
(1 -2.07612e-10 0)
(1 -1.81564e-10 0)
(1 -1.75219e-10 0)
(1 -2.05131e-10 0)
(1 -2.78432e-10 0)
(1 -3.99615e-10 0)
(1 -5.73869e-10 0)
(1 -8.08548e-10 0)
(1 -1.11366e-09 0)
(1 -1.50215e-09 0)
(1 -1.99019e-09 0)
(1 -2.59758e-09 0)
(1 -3.34834e-09 0)
(1 -4.27183e-09 0)
(1 -5.40397e-09 0)
(1 -6.78861e-09 0)
(1 -8.47856e-09 0)
(1 -1.05367e-08 0)
(1 -1.30375e-08 0)
(1 -1.60681e-08 0)
(1 -1.97279e-08 0)
(1 -2.41262e-08 0)
(1 -2.93792e-08 0)
(1 -3.56137e-08 0)
(1 -4.2974e-08 0)
(1 -5.1608e-08 0)
(1 -6.16259e-08 0)
(1 -7.31032e-08 0)
(1 -8.62268e-08 0)
(1 -1.01384e-07 0)
(1 -1.18589e-07 0)
(1.00001 -1.36211e-07 0)
(1.00001 -1.51388e-07 0)
(1.00001 -1.65924e-07 0)
(1.00001 -1.93777e-07 0)
(1.00001 -2.48398e-07 0)
(1.00001 -2.8946e-07 0)
(1.00001 -1.8486e-07 0)
(1.00001 1.5139e-07 0)
(1.00001 5.33989e-07 0)
(1.00001 8.39918e-07 0)
(1.00001 1.03739e-06 0)
(1.00001 1.15175e-06 0)
(1.00001 1.21995e-06 0)
(1 1.27174e-06 0)
(1 1.3279e-06 0)
(1 1.40142e-06 0)
(0.999998 1.49722e-06 0)
(0.999995 1.61082e-06 0)
(0.999993 1.72771e-06 0)
(0.99999 1.82504e-06 0)
(0.999988 1.8764e-06 0)
(0.999985 1.85914e-06 0)
(0.999982 1.76023e-06 0)
(0.999979 1.57869e-06 0)
(0.999975 1.32638e-06 0)
(0.999972 1.02224e-06 0)
(0.999969 6.85494e-07 0)
(0.999966 3.32395e-07 0)
(0.999963 -2.37797e-08 0)
(0.99996 -3.71119e-07 0)
(0.999957 -6.97246e-07 0)
(0.999955 -9.88779e-07 0)
(0.999953 -1.23186e-06 0)
(0.999951 -1.41313e-06 0)
(0.99995 -1.52152e-06 0)
(0.999948 -1.55073e-06 0)
(0.999948 -1.50085e-06 0)
(0.999947 -1.37717e-06 0)
(0.999947 -1.1971e-06 0)
(0.999947 -1.00567e-06 0)
(0.999947 -8.66544e-07 0)
(0.999948 -7.96975e-07 0)
(0.99995 -7.91e-07 0)
(0.999953 -8.33532e-07 0)
(0.999958 -8.97862e-07 0)
(0.999963 -9.39685e-07 0)
(0.999969 -8.93849e-07 0)
(0.999976 -6.78492e-07 0)
(0.999983 -2.10771e-07 0)
(0.99999 5.61396e-07 0)
(0.999994 1.61074e-06 0)
(0.999996 2.75646e-06 0)
(0.999996 3.60395e-06 0)
(0.999995 4.08994e-06 0)
(0.999993 4.29448e-06 0)
(0.99999 4.30002e-06 0)
(0.999987 4.15132e-06 0)
(0.999983 3.86658e-06 0)
(0.999979 3.45579e-06 0)
(0.999975 2.92925e-06 0)
(0.999971 2.30039e-06 0)
(0.999966 1.59047e-06 0)
(0.999961 8.27798e-07 0)
(0.999956 4.6005e-08 0)
(0.999951 -7.17727e-07 0)
(0.999947 -1.42526e-06 0)
(0.999943 -2.041e-06 0)
(0.999939 -2.53512e-06 0)
(0.999935 -2.88636e-06 0)
(0.999932 -3.08366e-06 0)
(0.99993 -3.12699e-06 0)
(0.999928 -3.02747e-06 0)
(0.999927 -2.80599e-06 0)
(0.999926 -2.49052e-06 0)
(0.999925 -2.11352e-06 0)
(0.999925 -1.71526e-06 0)
(0.999925 -1.37654e-06 0)
(0.999926 -1.13889e-06 0)
(0.999927 -9.94761e-07 0)
(0.99993 -9.20649e-07 0)
(0.999933 -8.88184e-07 0)
(0.999937 -8.6803e-07 0)
(0.999941 -8.35862e-07 0)
(0.999946 -7.78553e-07 0)
(0.99995 -6.97101e-07 0)
(0.999954 -6.04117e-07 0)
(0.999957 -5.16405e-07 0)
(0.99996 -4.46664e-07 0)
(0.999963 -3.99368e-07 0)
(0.999965 -3.72112e-07 0)
(0.999968 -3.59191e-07 0)
(0.99997 -3.5436e-07 0)
(0.999973 -3.52272e-07 0)
(0.999975 -3.49112e-07 0)
(0.999977 -3.42673e-07 0)
(0.999979 -3.32063e-07 0)
(0.999982 -3.17322e-07 0)
(0.999984 -2.99059e-07 0)
(0.999986 -2.78169e-07 0)
(0.999987 -2.55621e-07 0)
(0.999989 -2.3233e-07 0)
(0.99999 -2.09081e-07 0)
(0.999992 -1.86499e-07 0)
(0.999993 -1.65049e-07 0)
(0.999994 -1.45044e-07 0)
(0.999995 -1.26673e-07 0)
(0.999996 -1.10016e-07 0)
(0.999996 -9.50803e-08 0)
(0.999997 -8.18111e-08 0)
(0.999997 -7.01165e-08 0)
(0.999998 -5.98804e-08 0)
(0.999998 -5.09737e-08 0)
(0.999999 -4.32635e-08 0)
(0.999999 -3.66185e-08 0)
(0.999999 -3.09128e-08 0)
(0.999999 -2.6028e-08 0)
(0.999999 -2.18546e-08 0)
(1 -1.82918e-08 0)
(1 -1.5248e-08 0)
(1 -1.26412e-08 0)
(1 -1.03988e-08 0)
(1 -8.45849e-09 0)
(1 -6.76866e-09 0)
(1 -5.28891e-09 0)
(1 -3.9906e-09 0)
(1 -2.85854e-09 0)
(1 -1.87859e-09 0)
(1 -1.08354e-09 0)
(1 -3.49208e-10 0)
(1 1.77597e-10 0)
(1 7.73164e-12 0)
(1 1.8236e-11 0)
(1 2.8887e-11 0)
(1 4.1134e-11 0)
(1 5.4876e-11 0)
(1 7.03439e-11 0)
(1 8.76965e-11 0)
(1 1.06959e-10 0)
(1 1.28045e-10 0)
(1 1.50798e-10 0)
(1 1.75058e-10 0)
(1 2.00703e-10 0)
(1 2.27654e-10 0)
(1 2.55795e-10 0)
(1 2.84875e-10 0)
(1 3.14438e-10 0)
(1 3.43816e-10 0)
(1 3.72178e-10 0)
(1 3.98652e-10 0)
(1 4.22473e-10 0)
(1 4.43117e-10 0)
(1 4.60396e-10 0)
(1 4.74445e-10 0)
(1 4.8577e-10 0)
(1 4.95431e-10 0)
(1 5.04594e-10 0)
(1 5.14224e-10 0)
(1 5.24905e-10 0)
(1 5.36696e-10 0)
(1 5.4912e-10 0)
(1 5.61275e-10 0)
(1 5.71982e-10 0)
(1 5.79913e-10 0)
(1 5.83472e-10 0)
(1 5.80563e-10 0)
(1 5.68537e-10 0)
(1 5.44462e-10 0)
(1 5.05332e-10 0)
(1 4.4763e-10 0)
(1 3.66533e-10 0)
(1 2.54078e-10 0)
(1 8.01176e-11 0)
(1 -1.71981e-10 0)
(1 -5.16298e-10 0)
(1 -9.71105e-10 0)
(1 -1.55941e-09 0)
(1 -2.3098e-09 0)
(1 -3.25743e-09 0)
(1 -4.44503e-09 0)
(1 -5.92393e-09 1.23051e-42)
(1 -7.75555e-09 1.30813e-42)
(1 -1.00135e-08 0)
(1 -1.27867e-08 0)
(1 -1.61837e-08 0)
(1 -2.03365e-08 0)
(1 -2.54037e-08 0)
(1 -3.15742e-08 0)
(1 -3.90713e-08 0)
(1 -4.81559e-08 0)
(1 -5.91264e-08 0)
(1 -7.23122e-08 0)
(1 -8.80664e-08 0)
(1 -1.06766e-07 0)
(1 -1.28817e-07 0)
(1 -1.5465e-07 0)
(1 -1.84694e-07 0)
(1 -2.19338e-07 0)
(1 -2.58908e-07 0)
(1 -3.036e-07 0)
(1 -3.53212e-07 0)
(1.00001 -4.06723e-07 0)
(1.00001 -4.62507e-07 0)
(1.00001 -5.20185e-07 0)
(1.00001 -5.82052e-07 0)
(1.00001 -6.45833e-07 0)
(1.00001 -6.82065e-07 0)
(1.00001 -6.21366e-07 0)
(1.00001 -4.34605e-07 0)
(1.00002 -2.64457e-07 0)
(1.00002 -1.54239e-07 0)
(1.00003 -9.1383e-08 0)
(1.00003 -5.05373e-08 0)
(1.00004 -1.888e-08 0)
(1.00004 8.70699e-10 0)
(1.00004 -2.53257e-09 0)
(1.00005 -4.06465e-08 0)
(1.00005 -1.17055e-07 0)
(1.00006 -2.19989e-07 0)
(1.00006 -3.19228e-07 0)
(1.00007 -3.72693e-07 0)
(1.00008 -3.42027e-07 0)
(1.00008 -2.11482e-07 0)
(1.00009 1.16068e-08 0)
(1.00009 3.01566e-07 0)
(1.0001 6.2322e-07 0)
(1.0001 9.52134e-07 0)
(1.00009 1.27529e-06 0)
(1.00009 1.58524e-06 0)
(1.00008 1.87411e-06 0)
(1.00008 2.13101e-06 0)
(1.00007 2.34272e-06 0)
(1.00006 2.49461e-06 0)
(1.00004 2.57269e-06 0)
(1.00003 2.56727e-06 0)
(1.00002 2.47551e-06 0)
(1 2.3003e-06 0)
(0.999991 2.04832e-06 0)
(0.99998 1.73053e-06 0)
(0.999971 1.35634e-06 0)
(0.999965 9.21473e-07 0)
(0.99996 4.09963e-07 0)
(0.999957 -1.61621e-07 0)
(0.999957 -7.69237e-07 0)
(0.999958 -1.39136e-06 0)
(0.999961 -2.00608e-06 0)
(0.999966 -2.58796e-06 0)
(0.999972 -3.10599e-06 0)
(0.999981 -3.52309e-06 0)
(0.999991 -3.79864e-06 0)
(1 -3.89669e-06 0)
(1.00002 -3.80269e-06 0)
(1.00004 -3.57206e-06 0)
(1.00006 -3.41199e-06 0)
(1.00009 -3.2793e-06 0)
(1.00011 -3.08846e-06 0)
(1.00013 -2.78865e-06 0)
(1.00016 -2.36303e-06 0)
(1.00017 -1.81337e-06 0)
(1.00019 -1.15325e-06 0)
(1.0002 -3.97619e-07 0)
(1.00021 4.30841e-07 0)
(1.00021 1.29369e-06 0)
(1.00021 2.15225e-06 0)
(1.0002 2.96546e-06 0)
(1.00019 3.69069e-06 0)
(1.00017 4.288e-06 0)
(1.00015 4.72451e-06 0)
(1.00013 4.97837e-06 0)
(1.0001 5.04127e-06 0)
(1.00007 4.91892e-06 0)
(1.00005 4.62926e-06 0)
(1.00002 4.19954e-06 0)
(1 3.66406e-06 0)
(0.999983 3.06153e-06 0)
(0.999967 2.43033e-06 0)
(0.999955 1.79828e-06 0)
(0.999946 1.1502e-06 0)
(0.999941 4.92019e-07 0)
(0.999937 -1.4837e-07 0)
(0.999937 -7.39803e-07 0)
(0.999937 -1.24503e-06 0)
(0.99994 -1.62191e-06 0)
(0.999943 -1.83697e-06 0)
(0.999947 -1.88304e-06 0)
(0.999951 -1.78864e-06 0)
(0.999955 -1.61144e-06 0)
(0.999958 -1.41676e-06 0)
(0.999961 -1.2534e-06 0)
(0.999963 -1.14212e-06 0)
(0.999966 -1.08062e-06 0)
(0.999968 -1.05515e-06 0)
(0.99997 -1.04926e-06 0)
(0.999973 -1.04847e-06 0)
(0.999975 -1.0424e-06 0)
(0.999977 -1.02517e-06 0)
(0.999979 -9.94575e-07 0)
(0.999982 -9.51058e-07 0)
(0.999984 -8.96655e-07 0)
(0.999986 -8.34183e-07 0)
(0.999987 -7.66633e-07 0)
(0.999989 -6.96796e-07 0)
(0.99999 -6.27059e-07 0)
(0.999992 -5.59315e-07 0)
(0.999993 -4.94964e-07 0)
(0.999994 -4.34953e-07 0)
(0.999995 -3.79842e-07 0)
(0.999996 -3.29881e-07 0)
(0.999996 -2.85084e-07 0)
(0.999997 -2.45289e-07 0)
(0.999997 -2.10219e-07 0)
(0.999998 -1.79523e-07 0)
(0.999998 -1.52814e-07 0)
(0.999999 -1.29692e-07 0)
(0.999999 -1.09763e-07 0)
(0.999999 -9.26503e-08 0)
(0.999999 -7.80048e-08 0)
(0.999999 -6.55062e-08 0)
(1 -5.48655e-08 0)
(1 -4.58247e-08 0)
(1 -3.81555e-08 0)
(1 -3.16572e-08 0)
(1 -2.61546e-08 0)
(1 -2.14957e-08 0)
(1 -1.75495e-08 0)
(1 -1.42036e-08 0)
(1 -1.13623e-08 0)
(1 -8.94512e-09 0)
(1 -6.87238e-09 0)
(1 -5.14519e-09 0)
(1 -3.06845e-09 0)
(1 9.86687e-12 0)
(1 2.10504e-11 0)
(1 3.09336e-11 0)
(1 4.12091e-11 0)
(1 5.18053e-11 0)
(1 6.34201e-11 0)
(1 7.62913e-11 0)
(1 9.00642e-11 0)
(1 1.04223e-10 0)
(1 1.18537e-10 0)
(1 1.33275e-10 0)
(1 1.49141e-10 0)
(1 1.67058e-10 0)
(1 1.87901e-10 0)
(1 2.12317e-10 0)
(1 2.40707e-10 0)
(1 2.73287e-10 0)
(1 3.10196e-10 0)
(1 3.51571e-10 0)
(1 3.97569e-10 0)
(1 4.4833e-10 0)
(1 5.03941e-10 0)
(1 5.64446e-10 0)
(1 6.29865e-10 0)
(1 7.00007e-10 0)
(1 7.74136e-10 0)
(1 8.51073e-10 0)
(1 9.29408e-10 0)
(1 1.00754e-09 0)
(1 1.08364e-09 0)
(1 1.15564e-09 0)
(1 1.22099e-09 0)
(1 1.27649e-09 0)
(1 1.31812e-09 0)
(1 1.34103e-09 0)
(1 1.33947e-09 0)
(1 1.30646e-09 0)
(1 1.23308e-09 0)
(1 1.10817e-09 0)
(1 9.18625e-10 0)
(1 6.50566e-10 0)
(1 2.9121e-10 0)
(1 -1.78101e-10 0)
(1 -7.84612e-10 0)
(1 -1.56338e-09 0)
(1 -2.55646e-09 0)
(1 -3.81411e-09 0)
(1 -5.39654e-09 0)
(1 -7.37599e-09 0)
(1 -9.83866e-09 0)
(1 -1.28872e-08 0)
(1 -1.66445e-08 0)
(1 -2.12586e-08 0)
(1 -2.69105e-08 0)
(1 -3.38198e-08 0)
(1 -4.22507e-08 0)
(1 -5.25176e-08 0)
(1 -6.49918e-08 0)
(1 -8.0108e-08 0)
(1 -9.83631e-08 0)
(1 -1.20306e-07 0)
(1 -1.46527e-07 0)
(1 -1.77651e-07 0)
(1 -2.1435e-07 0)
(1 -2.57343e-07 0)
(1 -3.07378e-07 0)
(1 -3.65136e-07 0)
(1 -4.31082e-07 0)
(1 -5.05321e-07 0)
(1 -5.87629e-07 0)
(1.00001 -6.77579e-07 0)
(1.00001 -7.73964e-07 0)
(1.00001 -8.72458e-07 0)
(1.00001 -9.63036e-07 0)
(1.00001 -1.03448e-06 0)
(1.00001 -1.09258e-06 0)
(1.00001 -1.17188e-06 0)
(1.00001 -1.29143e-06 0)
(1.00002 -1.39179e-06 0)
(1.00002 -1.42321e-06 0)
(1.00002 -1.3779e-06 0)
(1.00002 -1.27993e-06 0)
(1.00002 -1.16563e-06 0)
(1.00002 -1.0756e-06 0)
(1.00002 -1.05065e-06 0)
(1.00002 -1.12375e-06 0)
(1.00003 -1.3056e-06 0)
(1.00003 -1.5676e-06 0)
(1.00003 -1.83341e-06 0)
(1.00003 -1.99309e-06 0)
(1.00003 -1.94298e-06 0)
(1.00003 -1.6287e-06 0)
(1.00004 -1.06527e-06 0)
(1.00004 -3.18249e-07 0)
(1.00004 5.3264e-07 0)
(1.00003 1.4223e-06 0)
(1.00003 2.30883e-06 0)
(1.00003 3.1676e-06 0)
(1.00002 3.97736e-06 0)
(1.00002 4.71166e-06 0)
(1.00001 5.33779e-06 0)
(1.00001 5.81808e-06 0)
(0.999998 6.11421e-06 0)
(0.99999 6.19638e-06 0)
(0.999983 6.05114e-06 0)
(0.999976 5.68149e-06 0)
(0.999969 5.10213e-06 0)
(0.999963 4.33538e-06 0)
(0.999959 3.41183e-06 0)
(0.999955 2.37344e-06 0)
(0.999953 1.26829e-06 0)
(0.999952 1.31398e-07 0)
(0.999953 -1.01295e-06 0)
(0.999955 -2.14544e-06 0)
(0.999959 -3.25047e-06 0)
(0.999964 -4.31692e-06 0)
(0.999971 -5.33798e-06 0)
(0.999978 -6.30971e-06 0)
(0.999987 -7.22746e-06 0)
(0.999997 -8.0781e-06 0)
(1.00001 -8.826e-06 0)
(1.00002 -9.3947e-06 0)
(1.00003 -9.65941e-06 0)
(1.00004 -9.57634e-06 0)
(1.00005 -9.15593e-06 0)
(1.00006 -8.41619e-06 0)
(1.00007 -7.36636e-06 0)
(1.00008 -6.01628e-06 0)
(1.00009 -4.38476e-06 0)
(1.00009 -2.50809e-06 0)
(1.00009 -4.41327e-07 0)
(1.00009 1.74065e-06 0)
(1.00009 3.94701e-06 0)
(1.00008 6.0723e-06 0)
(1.00007 8.00502e-06 0)
(1.00006 9.63874e-06 0)
(1.00005 1.08835e-05 0)
(1.00003 1.16759e-05 0)
(1.00002 1.19866e-05 0)
(1 1.18213e-05 0)
(0.999989 1.12186e-05 0)
(0.999976 1.02435e-05 0)
(0.999964 8.98164e-06 0)
(0.999954 7.52971e-06 0)
(0.999946 5.98207e-06 0)
(0.99994 4.41798e-06 0)
(0.999935 2.90641e-06 0)
(0.999933 1.49372e-06 0)
(0.999932 2.05028e-07 0)
(0.999933 -9.34948e-07 0)
(0.999935 -1.88392e-06 0)
(0.999938 -2.58478e-06 0)
(0.999942 -2.99049e-06 0)
(0.999946 -3.09559e-06 0)
(0.99995 -2.95336e-06 0)
(0.999954 -2.66527e-06 0)
(0.999958 -2.34471e-06 0)
(0.999961 -2.07569e-06 0)
(0.999963 -1.89355e-06 0)
(0.999966 -1.79429e-06 0)
(0.999968 -1.75463e-06 0)
(0.99997 -1.74699e-06 0)
(0.999973 -1.74717e-06 0)
(0.999975 -1.73796e-06 0)
(0.999977 -1.70965e-06 0)
(0.999979 -1.65875e-06 0)
(0.999982 -1.5861e-06 0)
(0.999984 -1.4952e-06 0)
(0.999986 -1.39081e-06 0)
(0.999987 -1.27796e-06 0)
(0.999989 -1.16134e-06 0)
(0.999991 -1.04492e-06 0)
(0.999992 -9.31873e-07 0)
(0.999993 -8.24524e-07 0)
(0.999994 -7.24445e-07 0)
(0.999995 -6.32565e-07 0)
(0.999996 -5.49293e-07 0)
(0.999996 -4.74644e-07 0)
(0.999997 -4.08345e-07 0)
(0.999997 -3.49928e-07 0)
(0.999998 -2.98807e-07 0)
(0.999998 -2.54331e-07 0)
(0.999999 -2.15833e-07 0)
(0.999999 -1.82653e-07 0)
(0.999999 -1.54167e-07 0)
(0.999999 -1.29791e-07 0)
(0.999999 -1.08992e-07 0)
(1 -9.12934e-08 0)
(1 -7.62668e-08 0)
(1 -6.35354e-08 0)
(1 -5.27682e-08 0)
(1 -4.36757e-08 0)
(1 -3.60053e-08 0)
(1 -2.95367e-08 0)
(1 -2.40777e-08 0)
(1 -1.94568e-08 0)
(1 -1.5538e-08 0)
(1 -1.21191e-08 0)
(1 -9.43663e-09 0)
(1 -5.68556e-09 0)
(1 1.39021e-11 0)
(1 3.04594e-11 0)
(1 4.63425e-11 0)
(1 6.40444e-11 0)
(1 8.34935e-11 0)
(1 1.05552e-10 0)
(1 1.30524e-10 0)
(1 1.58135e-10 0)
(1 1.87997e-10 0)
(1 2.19979e-10 0)
(1 2.54326e-10 0)
(1 2.91603e-10 0)
(1 3.32507e-10 0)
(1 3.77651e-10 0)
(1 4.27395e-10 0)
(1 4.81776e-10 0)
(1 5.40537e-10 0)
(1 6.03204e-10 0)
(1 6.69178e-10 0)
(1 7.37818e-10 0)
(1 8.08514e-10 0)
(1 8.80736e-10 0)
(1 9.54036e-10 0)
(1 1.02798e-09 0)
(1 1.1021e-09 0)
(1 1.17602e-09 0)
(1 1.24947e-09 0)
(1 1.32213e-09 0)
(1 1.3934e-09 0)
(1 1.46212e-09 0)
(1 1.52643e-09 0)
(1 1.58358e-09 0)
(1 1.62996e-09 0)
(1 1.66109e-09 0)
(1 1.67155e-09 0)
(1 1.65462e-09 0)
(1 1.60191e-09 0)
(1 1.50286e-09 0)
(1 1.34417e-09 0)
(1 1.10869e-09 0)
(1 7.73305e-10 0)
(1 3.1223e-10 0)
(1 -3.09327e-10 0)
(1 -1.13139e-09 0)
(1 -2.2011e-09 0)
(1 -3.57518e-09 0)
(1 -5.32222e-09 0)
(1 -7.52521e-09 0)
(1 -1.02842e-08 0)
(1 -1.37191e-08 0)
(1 -1.79729e-08 0)
(1 -2.32168e-08 0)
(1 -2.96577e-08 0)
(1 -3.75479e-08 0)
(1 -4.71947e-08 0)
(1 -5.89671e-08 0)
(1 -7.33037e-08 0)
(1 -9.07234e-08 0)
(1 -1.11834e-07 0)
(1 -1.3733e-07 0)
(1 -1.67981e-07 0)
(1 -2.04609e-07 0)
(1 -2.48091e-07 0)
(1 -2.99371e-07 0)
(1 -3.59464e-07 0)
(1 -4.29404e-07 0)
(1 -5.1014e-07 0)
(1 -6.02403e-07 0)
(1 -7.06544e-07 0)
(1 -8.22242e-07 0)
(1.00001 -9.48023e-07 0)
(1.00001 -1.08094e-06 0)
(1.00001 -1.21695e-06 0)
(1.00001 -1.35168e-06 0)
(1.00001 -1.4789e-06 0)
(1.00001 -1.5846e-06 0)
(1.00001 -1.64406e-06 0)
(1.00001 -1.63446e-06 0)
(1.00002 -1.54555e-06 0)
(1.00002 -1.40323e-06 0)
(1.00002 -1.23166e-06 0)
(1.00002 -1.05011e-06 0)
(1.00002 -8.80947e-07 0)
(1.00002 -7.5634e-07 0)
(1.00002 -7.16706e-07 0)
(1.00002 -7.99122e-07 0)
(1.00003 -1.01689e-06 0)
(1.00003 -1.33574e-06 0)
(1.00003 -1.66087e-06 0)
(1.00003 -1.85459e-06 0)
(1.00003 -1.78844e-06 0)
(1.00003 -1.40067e-06 0)
(1.00004 -7.16432e-07 0)
(1.00004 1.77274e-07 0)
(1.00004 1.17955e-06 0)
(1.00003 2.21023e-06 0)
(1.00003 3.2239e-06 0)
(1.00003 4.1976e-06 0)
(1.00002 5.11014e-06 0)
(1.00002 5.93173e-06 0)
(1.00001 6.62415e-06 0)
(1.00001 7.14259e-06 0)
(0.999998 7.44115e-06 0)
(0.99999 7.48532e-06 0)
(0.999983 7.26233e-06 0)
(0.999976 6.77963e-06 0)
(0.999969 6.05633e-06 0)
(0.999963 5.11763e-06 0)
(0.999958 3.99435e-06 0)
(0.999955 2.72163e-06 0)
(0.999953 1.33628e-06 0)
(0.999952 -1.27528e-07 0)
(0.999953 -1.63471e-06 0)
(0.999955 -3.15033e-06 0)
(0.999959 -4.63959e-06 0)
(0.999964 -6.06592e-06 0)
(0.99997 -7.38927e-06 0)
(0.999978 -8.56635e-06 0)
(0.999987 -9.55355e-06 0)
(0.999997 -1.03128e-05 0)
(1.00001 -1.082e-05 0)
(1.00002 -1.10686e-05 0)
(1.00003 -1.10449e-05 0)
(1.00004 -1.075e-05 0)
(1.00005 -1.01579e-05 0)
(1.00006 -9.23782e-06 0)
(1.00007 -7.97076e-06 0)
(1.00008 -6.35659e-06 0)
(1.00009 -4.41578e-06 0)
(1.00009 -2.19208e-06 0)
(1.00009 2.47092e-07 0)
(1.00009 2.81368e-06 0)
(1.00009 5.39671e-06 0)
(1.00008 7.87004e-06 0)
(1.00007 1.01021e-05 0)
(1.00006 1.19682e-05 0)
(1.00005 1.33639e-05 0)
(1.00003 1.42172e-05 0)
(1.00002 1.44974e-05 0)
(1 1.42162e-05 0)
(0.999988 1.34235e-05 0)
(0.999975 1.22005e-05 0)
(0.999964 1.06507e-05 0)
(0.999954 8.88922e-06 0)
(0.999945 7.02416e-06 0)
(0.999939 5.14101e-06 0)
(0.999935 3.30122e-06 0)
(0.999932 1.54301e-06 0)
(0.999932 -1.00894e-07 0)
(0.999932 -1.58518e-06 0)
(0.999935 -2.8381e-06 0)
(0.999938 -3.76753e-06 0)
(0.999942 -4.29703e-06 0)
(0.999946 -4.41183e-06 0)
(0.999951 -4.1838e-06 0)
(0.999954 -3.75619e-06 0)
(0.999958 -3.2902e-06 0)
(0.999961 -2.90423e-06 0)
(0.999963 -2.64614e-06 0)
(0.999966 -2.50769e-06 0)
(0.999968 -2.45417e-06 0)
(0.99997 -2.44565e-06 0)
(0.999973 -2.44759e-06 0)
(0.999975 -2.43568e-06 0)
(0.999977 -2.3964e-06 0)
(0.999979 -2.32499e-06 0)
(0.999982 -2.22283e-06 0)
(0.999984 -2.09497e-06 0)
(0.999986 -1.9482e-06 0)
(0.999987 -1.78963e-06 0)
(0.999989 -1.62586e-06 0)
(0.999991 -1.46248e-06 0)
(0.999992 -1.30392e-06 0)
(0.999993 -1.15343e-06 0)
(0.999994 -1.0132e-06 0)
(0.999995 -8.84515e-07 0)
(0.999996 -7.67931e-07 0)
(0.999996 -6.63455e-07 0)
(0.999997 -5.70694e-07 0)
(0.999997 -4.88983e-07 0)
(0.999998 -4.17494e-07 0)
(0.999998 -3.55312e-07 0)
(0.999999 -3.01497e-07 0)
(0.999999 -2.55125e-07 0)
(0.999999 -2.15317e-07 0)
(0.999999 -1.81257e-07 0)
(0.999999 -1.52197e-07 0)
(1 -1.27465e-07 0)
(1 -1.06461e-07 0)
(1 -8.8655e-08 0)
(1 -7.3582e-08 0)
(1 -6.08355e-08 0)
(1 -5.00619e-08 0)
(1 -4.09549e-08 0)
(1 -3.32502e-08 0)
(1 -2.67163e-08 0)
(1 -2.11693e-08 0)
(1 -1.63583e-08 0)
(1 -1.25585e-08 0)
(1 -7.36612e-09 0)
(1 1.79319e-11 0)
(1 3.92798e-11 0)
(1 5.95517e-11 0)
(1 8.16967e-11 0)
(1 1.05491e-10 0)
(1 1.32015e-10 0)
(1 1.61651e-10 0)
(1 1.9394e-10 0)
(1 2.28178e-10 0)
(1 2.63977e-10 0)
(1 3.01567e-10 0)
(1 3.41775e-10 0)
(1 3.85764e-10 0)
(1 4.34648e-10 0)
(1 4.89199e-10 0)
(1 5.4973e-10 0)
(1 6.16157e-10 0)
(1 6.8815e-10 0)
(1 7.65299e-10 0)
(1 8.4724e-10 0)
(1 9.33704e-10 0)
(1 1.02452e-09 0)
(1 1.11961e-09 0)
(1 1.21892e-09 0)
(1 1.32243e-09 0)
(1 1.43002e-09 0)
(1 1.54124e-09 0)
(1 1.65509e-09 0)
(1 1.76985e-09 0)
(1 1.88295e-09 0)
(1 1.99094e-09 0)
(1 2.0894e-09 0)
(1 2.17291e-09 0)
(1 2.23484e-09 0)
(1 2.26714e-09 0)
(1 2.26e-09 0)
(1 2.20147e-09 0)
(1 2.07704e-09 0)
(1 1.86886e-09 0)
(1 1.5549e-09 0)
(1 1.1084e-09 0)
(1 4.98003e-10 0)
(1 -3.16481e-10 0)
(1 -1.38364e-09 0)
(1 -2.76381e-09 0)
(1 -4.53046e-09 0)
(1 -6.77233e-09 0)
(1 -9.59642e-09 0)
(1 -1.31315e-08 0)
(1 -1.75317e-08 0)
(1 -2.29807e-08 0)
(1 -2.96978e-08 0)
(1 -3.79482e-08 0)
(1 -4.80558e-08 0)
(1 -6.04147e-08 0)
(1 -7.54981e-08 0)
(1 -9.38682e-08 0)
(1 -1.1619e-07 0)
(1 -1.43242e-07 0)
(1 -1.75919e-07 0)
(1 -2.15207e-07 0)
(1 -2.62165e-07 0)
(1 -3.17916e-07 0)
(1 -3.83671e-07 0)
(1 -4.60742e-07 0)
(1 -5.50493e-07 0)
(1 -6.54185e-07 0)
(1 -7.72749e-07 0)
(1 -9.06546e-07 0)
(1 -1.05521e-06 0)
(1.00001 -1.21746e-06 0)
(1.00001 -1.39054e-06 0)
(1.00001 -1.56868e-06 0)
(1.00001 -1.74134e-06 0)
(1.00001 -1.89379e-06 0)
(1.00001 -2.01293e-06 0)
(1.00001 -2.09472e-06 0)
(1.00001 -2.14039e-06 0)
(1.00002 -2.13874e-06 0)
(1.00002 -2.07953e-06 0)
(1.00002 -1.9578e-06 0)
(1.00002 -1.78702e-06 0)
(1.00002 -1.60294e-06 0)
(1.00002 -1.4607e-06 0)
(1.00002 -1.42608e-06 0)
(1.00002 -1.55777e-06 0)
(1.00003 -1.87903e-06 0)
(1.00003 -2.34468e-06 0)
(1.00003 -2.82263e-06 0)
(1.00003 -3.11769e-06 0)
(1.00003 -3.04521e-06 0)
(1.00003 -2.51429e-06 0)
(1.00004 -1.55703e-06 0)
(1.00004 -2.92534e-07 0)
(1.00004 1.13603e-06 0)
(1.00004 2.61533e-06 0)
(1.00003 4.08047e-06 0)
(1.00003 5.49726e-06 0)
(1.00002 6.83365e-06 0)
(1.00002 8.04576e-06 0)
(1.00001 9.07835e-06 0)
(1.00001 9.86691e-06 0)
(0.999998 1.0345e-05 0)
(0.99999 1.04621e-05 0)
(0.999983 1.0198e-05 0)
(0.999975 9.56117e-06 0)
(0.999969 8.57744e-06 0)
(0.999963 7.28418e-06 0)
(0.999958 5.73038e-06 0)
(0.999954 3.97445e-06 0)
(0.999952 2.07772e-06 0)
(0.999951 9.57465e-08 0)
(0.999952 -1.92223e-06 0)
(0.999954 -3.93381e-06 0)
(0.999958 -5.90233e-06 0)
(0.999963 -7.79502e-06 0)
(0.99997 -9.58113e-06 0)
(0.999978 -1.12295e-05 0)
(0.999987 -1.27055e-05 0)
(0.999996 -1.39675e-05 0)
(1.00001 -1.49635e-05 0)
(1.00002 -1.56295e-05 0)
(1.00003 -1.58878e-05 0)
(1.00004 -1.56847e-05 0)
(1.00005 -1.49819e-05 0)
(1.00006 -1.37593e-05 0)
(1.00007 -1.20122e-05 0)
(1.00008 -9.75281e-06 0)
(1.00009 -7.01712e-06 0)
(1.00009 -3.86647e-06 0)
(1.00009 -3.93983e-07 0)
(1.00009 3.27215e-06 0)
(1.00009 6.97428e-06 0)
(1.00008 1.05338e-05 0)
(1.00007 1.37631e-05 0)
(1.00006 1.64827e-05 0)
(1.00005 1.85412e-05 0)
(1.00003 1.98331e-05 0)
(1.00002 2.03108e-05 0)
(1 1.99874e-05 0)
(0.999988 1.89307e-05 0)
(0.999975 1.7253e-05 0)
(0.999963 1.51004e-05 0)
(0.999953 1.26376e-05 0)
(0.999945 1.00234e-05 0)
(0.999938 7.388e-06 0)
(0.999934 4.82614e-06 0)
(0.999932 2.39957e-06 0)
(0.999931 1.53239e-07 0)
(0.999932 -1.85924e-06 0)
(0.999934 -3.55036e-06 0)
(0.999938 -4.80298e-06 0)
(0.999942 -5.5182e-06 0)
(0.999946 -5.67803e-06 0)
(0.999951 -5.38023e-06 0)
(0.999955 -4.81829e-06 0)
(0.999958 -4.20894e-06 0)
(0.999961 -3.70932e-06 0)
(0.999963 -3.38039e-06 0)
(0.999966 -3.20851e-06 0)
(0.999968 -3.14644e-06 0)
(0.99997 -3.14127e-06 0)
(0.999973 -3.14793e-06 0)
(0.999975 -3.13506e-06 0)
(0.999977 -3.08557e-06 0)
(0.99998 -2.99376e-06 0)
(0.999982 -2.86179e-06 0)
(0.999984 -2.69646e-06 0)
(0.999986 -2.50671e-06 0)
(0.999988 -2.30184e-06 0)
(0.999989 -2.09042e-06 0)
(0.999991 -1.87967e-06 0)
(0.999992 -1.6753e-06 0)
(0.999993 -1.48146e-06 0)
(0.999994 -1.30095e-06 0)
(0.999995 -1.1354e-06 0)
(0.999996 -9.85495e-07 0)
(0.999996 -8.51221e-07 0)
(0.999997 -7.32051e-07 0)
(0.999998 -6.27118e-07 0)
(0.999998 -5.3534e-07 0)
(0.999998 -4.55534e-07 0)
(0.999999 -3.86484e-07 0)
(0.999999 -3.26997e-07 0)
(0.999999 -2.75942e-07 0)
(0.999999 -2.32265e-07 0)
(0.999999 -1.95009e-07 0)
(1 -1.63309e-07 0)
(1 -1.36397e-07 0)
(1 -1.13595e-07 0)
(1 -9.43063e-08 0)
(1 -7.80109e-08 0)
(1 -6.42556e-08 0)
(1 -5.2646e-08 0)
(1 -4.28398e-08 0)
(1 -3.45346e-08 0)
(1 -2.74886e-08 0)
(1 -2.13685e-08 0)
(1 -1.65225e-08 0)
(1 -9.8448e-09 0)
(1 2.19276e-11 0)
(1 4.79486e-11 0)
(1 7.26173e-11 0)
(1 9.96262e-11 0)
(1 1.2879e-10 0)
(1 1.615e-10 0)
(1 1.98259e-10 0)
(1 2.38563e-10 0)
(1 2.8167e-10 0)
(1 3.27271e-10 0)
(1 3.75785e-10 0)
(1 4.28272e-10 0)
(1 4.86087e-10 0)
(1 5.50455e-10 0)
(1 6.22163e-10 0)
(1 7.01458e-10 0)
(1 7.88127e-10 0)
(1 8.81665e-10 0)
(1 9.81438e-10 0)
(1 1.0868e-09 0)
(1 1.19716e-09 0)
(1 1.31199e-09 0)
(1 1.43087e-09 0)
(1 1.55338e-09 0)
(1 1.67908e-09 0)
(1 1.80736e-09 0)
(1 1.93731e-09 0)
(1 2.06764e-09 0)
(1 2.19648e-09 0)
(1 2.32123e-09 0)
(1 2.43842e-09 0)
(1 2.54343e-09 0)
(1 2.63038e-09 0)
(1 2.69194e-09 0)
(1 2.71913e-09 0)
(1 2.70097e-09 0)
(1 2.62394e-09 0)
(1 2.47116e-09 0)
(1 2.22142e-09 0)
(1 1.84791e-09 0)
(1 1.31718e-09 0)
(1 5.89051e-10 0)
(1 -3.87205e-10 0)
(1 -1.67236e-09 0)
(1 -3.34039e-09 0)
(1 -5.48057e-09 0)
(1 -8.20049e-09 0)
(1 -1.163e-08 0)
(1 -1.59255e-08 0)
(1 -2.12746e-08 0)
(1 -2.79005e-08 0)
(1 -3.60699e-08 0)
(1 -4.61056e-08 0)
(1 -5.84019e-08 0)
(1 -7.34393e-08 0)
(1 -9.17941e-08 0)
(1 -1.1415e-07 0)
(1 -1.41317e-07 0)
(1 -1.74244e-07 0)
(1 -2.14023e-07 0)
(1 -2.6186e-07 0)
(1 -3.19044e-07 0)
(1 -3.86945e-07 0)
(1 -4.67046e-07 0)
(1 -5.60967e-07 0)
(1 -6.7039e-07 0)
(1 -7.96881e-07 0)
(1 -9.41645e-07 0)
(1 -1.10528e-06 0)
(1 -1.28747e-06 0)
(1.00001 -1.48644e-06 0)
(1.00001 -1.69812e-06 0)
(1.00001 -1.91545e-06 0)
(1.00001 -2.12818e-06 0)
(1.00001 -2.32329e-06 0)
(1.00001 -2.48541e-06 0)
(1.00001 -2.59715e-06 0)
(1.00001 -2.63886e-06 0)
(1.00002 -2.59011e-06 0)
(1.00002 -2.44729e-06 0)
(1.00002 -2.22364e-06 0)
(1.00002 -1.94858e-06 0)
(1.00002 -1.66899e-06 0)
(1.00002 -1.4499e-06 0)
(1.00002 -1.36879e-06 0)
(1.00002 -1.4969e-06 0)
(1.00003 -1.86512e-06 0)
(1.00003 -2.42119e-06 0)
(1.00003 -3.00325e-06 0)
(1.00003 -3.36805e-06 0)
(1.00003 -3.28571e-06 0)
(1.00004 -2.64444e-06 0)
(1.00004 -1.49355e-06 0)
(1.00004 1.05786e-08 0)
(1.00004 1.69101e-06 0)
(1.00004 3.41264e-06 0)
(1.00003 5.10308e-06 0)
(1.00003 6.7291e-06 0)
(1.00002 8.25829e-06 0)
(1.00002 9.6417e-06 0)
(1.00001 1.08159e-05 0)
(1.00001 1.17049e-05 0)
(0.999998 1.22291e-05 0)
(0.99999 1.23284e-05 0)
(0.999983 1.19806e-05 0)
(0.999975 1.11989e-05 0)
(0.999968 1.00154e-05 0)
(0.999962 8.47376e-06 0)
(0.999958 6.62915e-06 0)
(0.999954 4.5461e-06 0)
(0.999952 2.29137e-06 0)
(0.999951 -7.34019e-08 0)
(0.999952 -2.49233e-06 0)
(0.999954 -4.91413e-06 0)
(0.999958 -7.29032e-06 0)
(0.999963 -9.57253e-06 0)
(0.999969 -1.17099e-05 0)
(0.999977 -1.36479e-05 0)
(0.999986 -1.53299e-05 0)
(0.999996 -1.6699e-05 0)
(1.00001 -1.77022e-05 0)
(1.00002 -1.82896e-05 0)
(1.00003 -1.84105e-05 0)
(1.00004 -1.80271e-05 0)
(1.00005 -1.71045e-05 0)
(1.00006 -1.56128e-05 0)
(1.00007 -1.35357e-05 0)
(1.00008 -1.0879e-05 0)
(1.00009 -7.67635e-06 0)
(1.00009 -3.9988e-06 0)
(1.00009 4.4527e-08 0)
(1.00009 4.30773e-06 0)
(1.00009 8.60815e-06 0)
(1.00008 1.27359e-05 0)
(1.00007 1.647e-05 0)
(1.00006 1.95997e-05 0)
(1.00005 2.19478e-05 0)
(1.00003 2.3392e-05 0)
(1.00002 2.38793e-05 0)
(1 2.34292e-05 0)
(0.999988 2.21248e-05 0)
(0.999974 2.01009e-05 0)
(0.999962 1.75314e-05 0)
(0.999952 1.46121e-05 0)
(0.999944 1.15296e-05 0)
(0.999938 8.43091e-06 0)
(0.999933 5.41847e-06 0)
(0.999931 2.55735e-06 0)
(0.99993 -1.05753e-07 0)
(0.999931 -2.50907e-06 0)
(0.999934 -4.54153e-06 0)
(0.999937 -6.04874e-06 0)
(0.999942 -6.89703e-06 0)
(0.999946 -7.0566e-06 0)
(0.999951 -6.64802e-06 0)
(0.999955 -5.91717e-06 0)
(0.999958 -5.14006e-06 0)
(0.999961 -4.51369e-06 0)
(0.999963 -4.10952e-06 0)
(0.999966 -3.90468e-06 0)
(0.999968 -3.83649e-06 0)
(0.99997 -3.83733e-06 0)
(0.999973 -3.85069e-06 0)
(0.999975 -3.83795e-06 0)
(0.999977 -3.77855e-06 0)
(0.99998 -3.66606e-06 0)
(0.999982 -3.50362e-06 0)
(0.999984 -3.30001e-06 0)
(0.999986 -3.06646e-06 0)
(0.999988 -2.81455e-06 0)
(0.999989 -2.55485e-06 0)
(0.999991 -2.29625e-06 0)
(0.999992 -2.0457e-06 0)
(0.999993 -1.80828e-06 0)
(0.999994 -1.58736e-06 0)
(0.999995 -1.38488e-06 0)
(0.999996 -1.20166e-06 0)
(0.999996 -1.03764e-06 0)
(0.999997 -8.92139e-07 0)
(0.999998 -7.64079e-07 0)
(0.999998 -6.5212e-07 0)
(0.999998 -5.54799e-07 0)
(0.999999 -4.7062e-07 0)
(0.999999 -3.98121e-07 0)
(0.999999 -3.35911e-07 0)
(0.999999 -2.82704e-07 0)
(0.999999 -2.37324e-07 0)
(1 -1.98717e-07 0)
(1 -1.65941e-07 0)
(1 -1.38167e-07 0)
(1 -1.14667e-07 0)
(1 -9.48048e-08 0)
(1 -7.80281e-08 0)
(1 -6.38574e-08 0)
(1 -5.18779e-08 0)
(1 -4.17254e-08 0)
(1 -3.31098e-08 0)
(1 -2.56348e-08 0)
(1 -1.97124e-08 0)
(1 -1.16222e-08 0)
(1 2.58969e-11 0)
(1 5.65955e-11 0)
(1 8.57178e-11 0)
(1 1.1764e-10 0)
(1 1.52109e-10 0)
(1 1.90734e-10 0)
(1 2.34087e-10 0)
(1 2.81552e-10 0)
(1 3.32212e-10 0)
(1 3.8562e-10 0)
(1 4.42164e-10 0)
(1 5.03011e-10 0)
(1 5.69727e-10 0)
(1 6.43781e-10 0)
(1 7.26162e-10 0)
(1 8.17224e-10 0)
(1 9.16769e-10 0)
(1 1.02424e-09 0)
(1 1.13891e-09 0)
(1 1.2601e-09 0)
(1 1.3872e-09 0)
(1 1.51975e-09 0)
(1 1.65742e-09 0)
(1 1.79997e-09 0)
(1 1.94712e-09 0)
(1 2.09849e-09 0)
(1 2.25341e-09 0)
(1 2.41065e-09 0)
(1 2.56819e-09 0)
(1 2.72295e-09 0)
(1 2.87056e-09 0)
(1 3.00516e-09 0)
(1 3.11932e-09 0)
(1 3.2039e-09 0)
(1 3.24775e-09 0)
(1 3.23731e-09 0)
(1 3.15597e-09 0)
(1 2.98329e-09 0)
(1 2.69392e-09 0)
(1 2.25644e-09 0)
(1 1.63208e-09 0)
(1 7.7353e-10 0)
(1 -3.7593e-10 0)
(1 -1.88823e-09 0)
(1 -3.84956e-09 0)
(1 -6.36462e-09 0)
(1 -9.55999e-09 0)
(1 -1.35885e-08 0)
(1 -1.86343e-08 0)
(1 -2.49183e-08 -6.1278e-43)
(1 -3.27032e-08 -6.51904e-43)
(1 -4.23026e-08 0)
(1 -5.40958e-08 0)
(1 -6.85473e-08 0)
(1 -8.62232e-08 0)
(1 -1.07802e-07 0)
(1 -1.34088e-07 0)
(1 -1.6603e-07 0)
(1 -2.0475e-07 0)
(1 -2.51536e-07 0)
(1 -3.07812e-07 0)
(1 -3.75099e-07 0)
(1 -4.55009e-07 0)
(1 -5.49292e-07 0)
(1 -6.59877e-07 0)
(1 -7.88803e-07 0)
(1 -9.37991e-07 0)
(1 -1.10892e-06 0)
(1 -1.30232e-06 0)
(1 -1.51783e-06 0)
(1 -1.75362e-06 0)
(1.00001 -2.00556e-06 0)
(1.00001 -2.26587e-06 0)
(1.00001 -2.5217e-06 0)
(1.00001 -2.75484e-06 0)
(1.00001 -2.94421e-06 0)
(1.00001 -3.07034e-06 0)
(1.00001 -3.11753e-06 0)
(1.00002 -3.07267e-06 0)
(1.00002 -2.93218e-06 0)
(1.00002 -2.70384e-06 0)
(1.00002 -2.41261e-06 0)
(1.00002 -2.10839e-06 0)
(1.00002 -1.86877e-06 0)
(1.00002 -1.79118e-06 0)
(1.00002 -1.96878e-06 0)
(1.00002 -2.44674e-06 0)
(1.00003 -3.1663e-06 0)
(1.00003 -3.92744e-06 0)
(1.00003 -4.42228e-06 0)
(1.00003 -4.35648e-06 0)
(1.00004 -3.58998e-06 0)
(1.00004 -2.18349e-06 0)
(1.00004 -3.33896e-07 0)
(1.00004 1.73337e-06 0)
(1.00004 3.84956e-06 0)
(1.00003 5.92921e-06 0)
(1.00003 7.93603e-06 0)
(1.00003 9.8318e-06 0)
(1.00002 1.15559e-05 0)
(1.00001 1.30298e-05 0)
(1.00001 1.41585e-05 0)
(0.999998 1.4841e-05 0)
(0.99999 1.50005e-05 0)
(0.999982 1.46095e-05 0)
(0.999975 1.36847e-05 0)
(0.999968 1.22659e-05 0)
(0.999962 1.04067e-05 0)
(0.999957 8.17599e-06 0)
(0.999953 5.65567e-06 0)
(0.999951 2.93022e-06 0)
(0.99995 7.75683e-08 0)
(0.999951 -2.83257e-06 0)
(0.999953 -5.73854e-06 0)