/*--------------------------------*- C++ -*----------------------------------*\
| =========                 |                                                 |
| \\      /  F ield         | OpenFOAM: The Open Source CFD Toolbox           |
|  \\    /   O peration     | Version:  v2006                                 |
|   \\  /    A nd           | Website:  www.openfoam.com                      |
|    \\/     M anipulation  |                                                 |
\*---------------------------------------------------------------------------*/
FoamFile
{
    version     2.0;
    format      ascii;
    class       volScalarField;
    location    "12.5";
    object      p_rgh;
}
// * * * * * * * * * * * * * * * * * * * * * * * * * * * * * * * * * * * * * //

dimensions      [1 -1 -2 0 0 0 0];


internalField   nonuniform List<scalar> 
150000
(
-1571.61
-1571.38
-1570.77
-1569.78
-1568.45
-1566.82
-1564.93
-1562.8
-1560.43
-1557.83
-1555.01
-1551.97
-1548.71
-1545.25
-1541.58
-1537.71
-1533.64
-1529.4
-1524.98
-1520.39
-1515.64
-1510.75
-1505.73
-1500.58
-1495.33
-1489.98
-1484.54
-1479.03
-1473.47
-1467.86
-1462.22
-1456.57
-1450.91
-1445.26
-1439.63
-1434.04
-1428.49
-1423.01
-1417.59
-1412.25
-1407.01
-1401.88
-1396.86
-1391.97
-1387.22
-1382.63
-1378.19
-1373.93
-1369.83
-1365.92
-1362.19
-1358.64
-1355.28
-1352.11
-1349.13
-1346.36
-1343.78
-1341.42
-1339.28
-1337.39
-1335.71
-1334.26
-1333.04
-1332.06
-1331.32
-1330.8
-1330.51
-1330.44
-1330.6
-1330.97
-1331.55
-1332.34
-1333.32
-1334.49
-1335.84
-1337.37
-1339.06
-1340.91
-1342.91
-1345.04
-1347.3
-1349.68
-1352.16
-1354.73
-1357.39
-1360.12
-1362.92
-1365.76
-1368.64
-1371.56
-1374.49
-1377.42
-1380.36
-1383.27
-1386.16
-1389.02
-1391.82
-1394.57
-1397.24
-1399.84
-1402.35
-1404.78
-1407.1
-1409.33
-1411.45
-1413.47
-1415.38
-1417.18
-1418.88
-1420.48
-1421.98
-1423.38
-1424.68
-1425.87
-1426.94
-1427.89
-1428.7
-1429.38
-1429.94
-1430.38
-1430.71
-1430.95
-1431.09
-1431.16
-1431.15
-1431.06
-1430.91
-1430.7
-1430.43
-1430.11
-1429.73
-1429.31
-1428.84
-1428.32
-1427.76
-1427.16
-1426.51
-1425.81
-1425.05
-1424.22
-1423.32
-1422.32
-1421.23
-1420.04
-1418.74
-1417.34
-1415.85
-1414.26
-1412.57
-1410.72
-1408.68
-1406.39
-1403.8
-1400.87
-1397.56
-1393.85
-1389.76
-1385.35
-1380.65
-1375.69
-1370.45
-1364.86
-1358.85
-1352.37
-1345.38
-1337.85
-1329.76
-1321.1
-1311.83
-1301.95
-1291.42
-1280.23
-1268.37
-1255.81
-1242.55
-1228.56
-1213.84
-1198.35
-1182.09
-1165.03
-1147.16
-1128.47
-1108.95
-1088.57
-1067.33
-1045.22
-1022.23
-998.345
-973.57
-947.896
-921.319
-893.836
-865.449
-836.156
-805.96
-774.865
-742.875
-709.995
-676.234
-641.598
-606.098
-569.744
-532.547
-494.52
-455.678
-416.036
-375.609
-334.418
-292.479
-249.815
-206.445
-162.393
-117.679
-72.328
-26.3629
20.1927
67.3148
114.979
163.162
211.838
260.983
310.574
360.586
411.003
461.812
513.004
564.558
616.424
668.487
720.606
772.696
824.739
876.995
929.781
983.27
1037.35
1091.69
1145.89
1199.81
1253.4
1306.71
1359.85
1412.91
1465.98
1519.06
1572.15
1625.19
1678.16
1731.01
1783.7
1836.23
1888.58
1940.76
1992.77
2044.65
2096.42
2148.1
2199.67
2251.02
2302.02
2352.52
2402.43
2451.8
2500.72
2549.39
2597.92
2646.32
2694.52
2742.42
2789.97
2837.13
2883.89
2930.24
2976.19
3021.75
3066.94
3111.76
3156.23
3200.33
3244.05
3287.4
3330.34
3372.88
3415
3456.7
3497.96
3538.77
3579.11
3618.98
3658.36
3697.26
3735.64
3773.55
3810.89
3847.68
3883.91
3919.58
3954.62
3988.93
4022.78
4056.13
4088.89
4121.06
4152.59
4183.48
4213.69
4243.22
4272.05
4300.18
4327.58
4354.24
4380.17
4405.33
4429.72
4453.34
4476.16
4498.19
4519.4
4539.79
4559.36
4578.09
4595.99
4613.06
4629.27
4644.64
4659.16
4672.83
4685.64
4697.59
4708.69
4718.93
4728.32
4736.85
4744.54
4751.38
4757.37
4762.53
4766.86
4770.37
4773.05
4774.93
4775.99
4776.27
4775.76
4774.47
4772.41
4769.59
4766.03
4761.73
4756.71
4750.97
4744.54
4737.41
4729.61
4721.15
4712.04
4702.29
4691.93
4680.96
4669.4
4657.26
4644.57
4631.33
4617.57
4603.3
4588.54
4573.3
4557.61
4541.48
4524.93
4507.97
4490.63
4472.93
4454.88
4436.49
4417.8
4398.81
4379.56
4360.04
4340.3
4320.34
4300.18
4279.85
4259.37
4238.75
4218.02
4197.19
4176.27
4155.3
4134.28
4113.25
4092.21
4071.18
4050.2
4029.27
4008.41
3987.66
3967.01
3946.5
3926.14
3905.95
3885.94
3866.13
3846.53
3827.17
3808.04
3789.19
3770.61
3752.35
3734.41
3716.82
3699.61
3682.78
3666.35
3650.32
3634.67
3619.43
3604.61
3590.21
3576.26
3562.78
3549.77
3537.26
3525.24
3513.73
3502.73
3492.24
3482.26
3472.8
3463.87
3455.5
3447.7
3440.51
3433.93
3427.96
3422.57
3417.73
3413.41
3409.58
3406.25
3403.41
3401.06
3399.22
3397.88
3397.04
3396.7
3396.83
3397.43
3398.49
3400
3401.93
3404.28
3407.02
3410.15
3413.63
3417.44
3421.58
3426
3430.7
3435.65
3440.82
3446.2
3451.76
3457.49
3463.35
3469.32
3475.37
3481.5
3487.67
3493.86
3500.05
3506.23
3512.36
3518.44
3524.43
3530.33
3536.12
3541.78
3547.31
3552.68
3557.88
3562.91
3567.76
3572.41
3576.86
3581.09
3585.11
3588.89
3592.44
3595.74
3598.78
3601.56
3604.06
3606.26
3608.17
3609.77
3611.06
3612.05
3612.75
3613.14
-1571.9
-1571.7
-1571.07
-1570.06
-1568.7
-1567.06
-1565.16
-1563.02
-1560.65
-1558.05
-1555.23
-1552.19
-1548.93
-1545.47
-1541.79
-1537.92
-1533.85
-1529.6
-1525.18
-1520.58
-1515.83
-1510.93
-1505.9
-1500.75
-1495.48
-1490.12
-1484.67
-1479.16
-1473.58
-1467.96
-1462.32
-1456.65
-1450.98
-1445.32
-1439.69
-1434.08
-1428.53
-1423.03
-1417.61
-1412.26
-1407.02
-1401.88
-1396.85
-1391.96
-1387.2
-1382.6
-1378.16
-1373.88
-1369.78
-1365.86
-1362.12
-1358.57
-1355.21
-1352.04
-1349.07
-1346.3
-1343.73
-1341.38
-1339.24
-1337.31
-1335.61
-1334.16
-1332.94
-1331.95
-1331.21
-1330.69
-1330.4
-1330.34
-1330.49
-1330.87
-1331.45
-1332.24
-1333.23
-1334.4
-1335.76
-1337.29
-1338.99
-1340.85
-1342.85
-1344.99
-1347.26
-1349.64
-1352.13
-1354.71
-1357.37
-1360.11
-1362.91
-1365.76
-1368.65
-1371.57
-1374.5
-1377.44
-1380.38
-1383.3
-1386.19
-1389.05
-1391.86
-1394.61
-1397.29
-1399.9
-1402.42
-1404.85
-1407.19
-1409.42
-1411.55
-1413.58
-1415.49
-1417.29
-1418.99
-1420.59
-1422.08
-1423.47
-1424.76
-1425.93
-1426.99
-1427.92
-1428.72
-1429.4
-1429.95
-1430.39
-1430.73
-1430.96
-1431.11
-1431.18
-1431.17
-1431.08
-1430.93
-1430.72
-1430.45
-1430.13
-1429.76
-1429.33
-1428.87
-1428.35
-1427.79
-1427.19
-1426.54
-1425.83
-1425.08
-1424.26
-1423.36
-1422.38
-1421.32
-1420.15
-1418.87
-1417.49
-1416.01
-1414.42
-1412.69
-1410.81
-1408.74
-1406.41
-1403.79
-1400.86
-1397.58
-1393.95
-1389.97
-1385.65
-1381.02
-1376.08
-1370.83
-1365.24
-1359.25
-1352.79
-1345.81
-1338.29
-1330.2
-1321.53
-1312.27
-1302.39
-1291.87
-1280.7
-1268.86
-1256.33
-1243.09
-1229.12
-1214.41
-1198.94
-1182.69
-1165.64
-1147.78
-1129.1
-1109.58
-1089.21
-1067.97
-1045.87
-1022.88
-999.001
-974.228
-948.555
-921.977
-894.494
-866.104
-836.807
-806.607
-775.505
-743.507
-710.619
-676.848
-642.203
-606.693
-570.329
-533.123
-495.088
-456.238
-416.588
-376.154
-334.955
-293.008
-250.333
-206.952
-162.885
-118.156
-72.788
-26.8039
19.7717
66.9145
114.6
162.803
211.5
260.665
310.274
360.304
410.727
461.519
512.656
564.118
615.88
667.931
720.255
772.798
825.602
878.612
931.79
985.092
1038.44
1091.81
1145.24
1198.65
1252.09
1305.57
1359.09
1412.58
1465.95
1519.21
1572.33
1625.31
1678.18
1730.94
1783.59
1836.14
1888.55
1940.84
1993
2045.02
2096.86
2148.48
2199.81
2250.86
2301.66
2352.19
2402.4
2452.21
2501.56
2550.43
2598.86
2646.9
2694.65
2742.17
2789.4
2836.34
2882.98
2929.33
2975.36
3021.07
3066.43
3111.42
3156.03
3200.24
3244.05
3287.44
3330.41
3372.96
3415.07
3456.73
3497.93
3538.67
3578.93
3618.7
3657.99
3696.85
3735.18
3773.16
3810.52
3847.32
3883.58
3919.26
3954.41
3989.11
4023.15
4056.57
4089.37
4121.55
4153.09
4183.98
4214.2
4243.73
4272.56
4300.68
4328.08
4354.74
4380.65
4405.8
4430.19
4453.79
4476.61
4498.62
4519.83
4540.21
4559.77
4578.5
4596.39
4613.45
4629.65
4645.01
4659.52
4673.18
4685.98
4697.92
4709.01
4719.24
4728.62
4737.14
4744.82
4751.65
4757.64
4762.79
4767.11
4770.6
4773.28
4775.14
4776.21
4776.47
4775.95
4774.65
4772.59
4769.76
4766.19
4761.89
4756.86
4751.11
4744.67
4737.54
4729.73
4721.26
4712.14
4702.39
4692.02
4681.04
4669.48
4657.33
4644.63
4631.39
4617.62
4603.35
4588.58
4573.33
4557.63
4541.49
4524.93
4507.96
4490.61
4472.89
4454.83
4436.44
4417.74
4398.74
4379.48
4359.96
4340.2
4320.24
4300.08
4279.75
4259.26
4238.63
4217.89
4197.06
4176.14
4155.16
4134.14
4113.1
4092.05
4071.02
4050.03
4029.09
4008.24
3987.47
3966.82
3946.31
3925.94
3905.75
3885.74
3865.93
3846.33
3826.97
3807.85
3788.98
3770.4
3752.12
3734.17
3716.57
3699.35
3682.52
3666.08
3650.04
3634.39
3619.15
3604.32
3589.91
3575.96
3562.47
3549.46
3536.94
3524.92
3513.4
3502.4
3491.91
3481.94
3472.49
3463.56
3455.19
3447.39
3440.18
3433.58
3427.58
3422.16
3417.29
3412.95
3409.1
3405.76
3402.91
3400.57
3398.74
3397.42
3396.59
3396.25
3396.4
3397.02
3398.1
3399.62
3401.57
3403.94
3406.7
3409.84
3413.34
3417.17
3421.32
3425.76
3430.47
3435.44
3440.63
3446.03
3451.6
3457.35
3463.22
3469.21
3475.28
3481.42
3487.61
3493.82
3500.03
3506.23
3512.37
3518.46
3524.47
3530.39
3536.19
3541.86
3547.4
3552.78
3558
3563.03
3567.89
3572.54
3576.99
3581.24
3585.26
3589.05
3592.61
3595.91
3598.97
3601.75
3604.25
3606.47
3608.38
3609.98
3611.27
3612.26
3612.96
3613.36
-1572.62
-1572.43
-1571.8
-1570.77
-1569.39
-1567.73
-1565.82
-1563.68
-1561.31
-1558.71
-1555.88
-1552.83
-1549.56
-1546.08
-1542.39
-1538.5
-1534.42
-1530.15
-1525.7
-1521.08
-1516.3
-1511.38
-1506.32
-1501.14
-1495.85
-1490.46
-1484.98
-1479.44
-1473.83
-1468.19
-1462.51
-1456.82
-1451.12
-1445.43
-1439.77
-1434.14
-1428.56
-1423.04
-1417.59
-1412.22
-1406.95
-1401.79
-1396.74
-1391.83
-1387.06
-1382.45
-1377.99
-1373.7
-1369.59
-1365.65
-1361.91
-1358.34
-1354.97
-1351.79
-1348.8
-1346.01
-1343.43
-1341.06
-1338.92
-1337
-1335.32
-1333.87
-1332.65
-1331.67
-1330.93
-1330.42
-1330.13
-1330.08
-1330.24
-1330.62
-1331.21
-1332.01
-1333.01
-1334.2
-1335.57
-1337.11
-1338.82
-1340.69
-1342.71
-1344.86
-1347.14
-1349.54
-1352.04
-1354.64
-1357.32
-1360.08
-1362.89
-1365.75
-1368.66
-1371.59
-1374.53
-1377.48
-1380.43
-1383.36
-1386.27
-1389.13
-1391.95
-1394.71
-1397.4
-1400.02
-1402.55
-1405
-1407.34
-1409.59
-1411.73
-1413.77
-1415.69
-1417.51
-1419.21
-1420.81
-1422.29
-1423.66
-1424.92
-1426.06
-1427.09
-1428
-1428.79
-1429.45
-1430
-1430.44
-1430.78
-1431.01
-1431.16
-1431.22
-1431.21
-1431.13
-1430.98
-1430.77
-1430.5
-1430.18
-1429.8
-1429.38
-1428.92
-1428.41
-1427.85
-1427.25
-1426.61
-1425.91
-1425.16
-1424.35
-1423.46
-1422.5
-1421.46
-1420.31
-1419.06
-1417.7
-1416.23
-1414.64
-1412.92
-1411.05
-1408.99
-1406.71
-1404.17
-1401.31
-1398.1
-1394.52
-1390.58
-1386.31
-1381.72
-1376.84
-1371.63
-1366.06
-1360.08
-1353.62
-1346.64
-1339.13
-1331.05
-1322.4
-1313.16
-1303.31
-1292.83
-1281.7
-1269.89
-1257.4
-1244.19
-1230.25
-1215.57
-1200.13
-1183.9
-1166.88
-1149.04
-1130.38
-1110.87
-1090.52
-1069.3
-1047.2
-1024.23
-1000.36
-975.594
-949.928
-923.355
-895.875
-867.487
-838.19
-807.988
-776.883
-744.881
-711.987
-678.209
-643.555
-608.035
-571.658
-534.438
-496.387
-457.518
-417.848
-377.393
-336.17
-294.198
-251.498
-208.091
-163.998
-119.242
-73.8461
-27.8346
18.7687
65.9394
113.653
161.885
210.61
259.805
309.445
359.506
409.967
460.804
511.999
563.529
615.361
667.442
719.71
772.127
824.684
877.445
930.497
983.876
1037.53
1091.29
1145.01
1198.66
1252.19
1305.59
1358.92
1412.23
1465.52
1518.77
1571.94
1625.02
1677.97
1730.79
1783.46
1835.97
1888.31
1940.47
1992.47
2044.33
2096.08
2147.74
2199.25
2250.53
2301.48
2352
2402.06
2451.68
2500.9
2549.78
2598.4
2646.77
2694.84
2742.59
2790.01
2837.1
2883.83
2930.19
2976.19
3021.83
3067.11
3112.03
3156.59
3200.77
3244.58
3287.99
3330.99
3373.58
3415.75
3457.48
3498.78
3539.62
3580.01
3619.91
3659.33
3698.28
3736.74
3774.51
3811.87
3848.7
3884.97
3920.69
3955.82
3990.39
4024.35
4057.72
4090.49
4122.65
4154.17
4185.04
4215.24
4244.76
4273.58
4301.69
4329.08
4355.73
4381.63
4406.78
4431.16
4454.75
4477.55
4499.55
4520.74
4541.11
4560.65
4579.37
4597.24
4614.28
4630.47
4645.82
4660.31
4673.95
4686.74
4698.67
4709.74
4719.96
4729.32
4737.83
4745.49
4752.3
4758.28
4763.41
4767.72
4771.19
4773.85
4775.7
4776.75
4777
4776.46
4775.15
4773.07
4770.23
4766.64
4762.32
4757.28
4751.52
4745.06
4737.91
4730.09
4721.61
4712.47
4702.71
4692.32
4681.33
4669.75
4657.59
4644.88
4631.62
4617.83
4603.54
4588.75
4573.49
4557.77
4541.61
4525.03
4508.05
4490.68
4472.94
4454.86
4436.44
4417.72
4398.71
4379.42
4359.89
4340.12
4320.14
4299.96
4279.61
4259.11
4238.47
4217.71
4196.86
4175.92
4154.92
4133.89
4112.83
4091.76
4070.72
4049.71
4028.76
4007.89
3987.11
3966.44
3945.91
3925.53
3905.32
3885.29
3865.46
3845.85
3826.47
3807.33
3788.47
3769.88
3751.6
3733.64
3716.03
3698.79
3681.92
3665.44
3649.36
3633.68
3618.41
3603.56
3589.15
3575.19
3561.7
3548.68
3536.16
3524.13
3512.6
3501.59
3491.1
3481.13
3471.7
3462.8
3454.46
3446.68
3439.49
3432.89
3426.86
3421.39
3416.48
3412.1
3408.24
3404.9
3402.07
3399.76
3397.95
3396.66
3395.86
3395.56
3395.73
3396.37
3397.47
3399.02
3400.99
3403.38
3406.17
3409.34
3412.86
3416.72
3420.9
3425.37
3430.11
3435.11
3440.33
3445.76
3451.37
3457.14
3463.05
3469.06
3475.17
3481.34
3487.55
3493.78
3500.01
3506.23
3512.4
3518.51
3524.54
3530.48
3536.3
3541.99
3547.54
3552.94
3558.17
3563.22
3568.09
3572.76
3577.22
3581.48
3585.51
3589.32
3592.89
3596.21
3599.28
3602.09
3604.61
3606.85
3608.79
3610.41
3611.71
3612.7
3613.38
3613.78
-1573.74
-1573.57
-1572.94
-1571.9
-1570.51
-1568.83
-1566.91
-1564.76
-1562.37
-1559.75
-1556.91
-1553.84
-1550.54
-1547.03
-1543.31
-1539.39
-1535.27
-1530.96
-1526.47
-1521.81
-1516.99
-1512.02
-1506.92
-1501.7
-1496.36
-1490.93
-1485.41
-1479.82
-1474.17
-1468.48
-1462.76
-1457.03
-1451.29
-1445.56
-1439.85
-1434.18
-1428.56
-1423
-1417.51
-1412.11
-1406.81
-1401.61
-1396.54
-1391.6
-1386.8
-1382.16
-1377.68
-1373.37
-1369.23
-1365.28
-1361.51
-1357.93
-1354.54
-1351.35
-1348.34
-1345.54
-1342.96
-1340.6
-1338.46
-1336.54
-1334.86
-1333.42
-1332.21
-1331.23
-1330.5
-1329.99
-1329.72
-1329.67
-1329.85
-1330.24
-1330.85
-1331.66
-1332.67
-1333.88
-1335.26
-1336.83
-1338.56
-1340.45
-1342.48
-1344.66
-1346.96
-1349.38
-1351.9
-1354.52
-1357.22
-1360
-1362.83
-1365.72
-1368.65
-1371.6
-1374.57
-1377.54
-1380.5
-1383.45
-1386.38
-1389.26
-1392.09
-1394.87
-1397.58
-1400.21
-1402.76
-1405.22
-1407.58
-1409.84
-1411.99
-1414.04
-1415.97
-1417.79
-1419.5
-1421.09
-1422.57
-1423.94
-1425.18
-1426.31
-1427.32
-1428.21
-1428.98
-1429.63
-1430.17
-1430.6
-1430.92
-1431.16
-1431.3
-1431.35
-1431.32
-1431.24
-1431.09
-1430.87
-1430.6
-1430.27
-1429.9
-1429.48
-1429.01
-1428.5
-1427.95
-1427.35
-1426.71
-1426.03
-1425.29
-1424.5
-1423.63
-1422.7
-1421.68
-1420.57
-1419.36
-1418.04
-1416.59
-1415.01
-1413.28
-1411.37
-1409.27
-1406.95
-1404.38
-1401.54
-1398.41
-1394.97
-1391.2
-1387.11
-1382.69
-1377.93
-1372.82
-1367.29
-1361.32
-1354.86
-1347.89
-1340.39
-1332.34
-1323.72
-1314.53
-1304.72
-1294.29
-1283.2
-1271.44
-1258.99
-1245.83
-1231.94
-1217.29
-1201.89
-1185.7
-1168.71
-1150.91
-1132.27
-1112.8
-1092.47
-1071.27
-1049.2
-1026.24
-1002.39
-977.643
-951.988
-925.425
-897.952
-869.568
-840.273
-810.069
-778.961
-746.952
-714.049
-680.259
-645.591
-610.053
-573.658
-536.416
-498.34
-459.446
-419.748
-379.263
-338.009
-296.005
-253.271
-209.829
-165.699
-120.906
-75.4719
-29.4203
17.2246
64.4387
112.197
160.477
209.252
258.498
308.192
358.309
408.825
459.718
510.965
562.548
614.445
666.628
719.053
771.675
824.455
877.366
930.41
983.607
1036.97
1090.51
1144.14
1197.8
1251.46
1305.09
1358.64
1412.1
1465.47
1518.75
1571.93
1625
1677.95
1730.79
1783.5
1836.06
1888.44
1940.63
1992.61
2044.38
2095.97
2147.41
2198.74
2249.94
2300.95
2351.66
2401.96
2451.8
2501.18
2550.14
2598.74
2647.03
2695.04
2742.76
2790.17
2837.27
2884.04
2930.48
2976.58
3022.32
3067.7
3112.71
3157.33
3201.56
3245.39
3288.83
3331.85
3374.46
3416.63
3458.37
3499.65
3540.47
3580.83
3620.67
3660.16
3699.07
3737.49
3775.37
3812.76
3849.62
3885.92
3921.67
3956.85
3991.46
4025.48
4058.9
4091.7
4123.88
4155.41
4186.29
4216.49
4246.01
4274.83
4302.94
4330.32
4356.96
4382.85
4407.99
4432.35
4455.93
4478.72
4500.71
4521.89
4542.25
4561.78
4580.49
4598.36
4615.39
4631.57
4646.9
4661.38
4675.01
4687.78
4699.69
4710.75
4720.95
4730.3
4738.79
4746.43
4753.23
4759.19
4764.3
4768.59
4772.05
4774.69
4776.53
4777.55
4777.79
4777.23
4775.9
4773.8
4770.94
4767.34
4763
4757.94
4752.16
4745.68
4738.51
4730.67
4722.17
4713.02
4703.23
4692.82
4681.81
4670.21
4658.03
4645.29
4632.01
4618.2
4603.88
4589.07
4573.78
4558.04
4541.85
4525.24
4508.23
4490.83
4473.07
4454.96
4436.52
4417.77
4398.73
4379.42
4359.86
4340.06
4320.06
4299.85
4279.48
4258.95
4238.28
4217.49
4196.6
4175.64
4154.61
4133.54
4112.46
4091.37
4070.29
4049.26
4028.28
4007.38
3986.58
3965.89
3945.33
3924.92
3904.69
3884.63
3864.78
3845.14
3825.74
3806.59
3787.7
3769.09
3750.79
3732.8
3715.16
3697.88
3680.97
3664.45
3648.34
3632.63
3617.34
3602.46
3588.05
3574.08
3560.58
3547.55
3535.01
3522.97
3511.44
3500.43
3489.93
3479.97
3470.54
3461.66
3453.33
3445.56
3438.36
3431.74
3425.69
3420.21
3415.28
3410.88
3407.03
3403.69
3400.88
3398.59
3396.81
3395.54
3394.77
3394.5
3394.7
3395.38
3396.51
3398.09
3400.11
3402.54
3405.36
3408.57
3412.13
3416.04
3420.26
3424.78
3429.57
3434.61
3439.88
3445.36
3451.02
3456.84
3462.79
3468.86
3475.01
3481.23
3487.49
3493.77
3500.05
3506.3
3512.51
3518.66
3524.72
3530.69
3536.53
3542.25
3547.82
3553.23
3558.47
3563.53
3568.41
3573.09
3577.56
3581.83
3585.87
3589.69
3593.28
3596.62
3599.71
3602.54
3605.09
3607.35
3609.31
3610.95
3612.28
3613.27
3613.96
3614.4
-1575.23
-1575.08
-1574.46
-1573.43
-1572.02
-1570.33
-1568.38
-1566.2
-1563.78
-1561.13
-1558.25
-1555.14
-1551.81
-1548.25
-1544.48
-1540.51
-1536.34
-1531.98
-1527.43
-1522.72
-1517.85
-1512.83
-1507.67
-1502.39
-1497
-1491.5
-1485.93
-1480.28
-1474.58
-1468.83
-1463.05
-1457.26
-1451.46
-1445.67
-1439.91
-1434.19
-1428.51
-1422.9
-1417.36
-1411.91
-1406.57
-1401.33
-1396.22
-1391.24
-1386.41
-1381.73
-1377.21
-1372.87
-1368.7
-1364.71
-1360.91
-1357.3
-1353.88
-1350.67
-1347.67
-1344.88
-1342.3
-1339.94
-1337.8
-1335.9
-1334.22
-1332.79
-1331.59
-1330.62
-1329.89
-1329.4
-1329.14
-1329.11
-1329.3
-1329.71
-1330.33
-1331.17
-1332.2
-1333.43
-1334.84
-1336.43
-1338.19
-1340.11
-1342.17
-1344.37
-1346.7
-1349.15
-1351.71
-1354.36
-1357.09
-1359.89
-1362.76
-1365.68
-1368.63
-1371.61
-1374.61
-1377.61
-1380.61
-1383.58
-1386.53
-1389.44
-1392.3
-1395.1
-1397.83
-1400.48
-1403.05
-1405.53
-1407.9
-1410.18
-1412.34
-1414.4
-1416.34
-1418.17
-1419.88
-1421.47
-1422.94
-1424.29
-1425.53
-1426.64
-1427.64
-1428.51
-1429.26
-1429.9
-1430.42
-1430.84
-1431.15
-1431.37
-1431.5
-1431.55
-1431.53
-1431.42
-1431.25
-1431.02
-1430.74
-1430.41
-1430.03
-1429.61
-1429.14
-1428.64
-1428.09
-1427.5
-1426.87
-1426.2
-1425.48
-1424.7
-1423.86
-1422.95
-1421.95
-1420.88
-1419.7
-1418.42
-1417.02
-1415.49
-1413.81
-1411.97
-1409.93
-1407.68
-1405.18
-1402.4
-1399.33
-1395.95
-1392.26
-1388.25
-1383.91
-1379.22
-1374.15
-1368.66
-1362.73
-1356.32
-1349.41
-1341.98
-1334
-1325.46
-1316.33
-1306.59
-1296.22
-1285.19
-1273.5
-1261.11
-1248
-1234.17
-1219.58
-1204.23
-1188.09
-1171.15
-1153.39
-1134.8
-1115.37
-1095.08
-1073.92
-1051.87
-1028.94
-1005.12
-980.388
-954.751
-928.202
-900.74
-872.363
-843.072
-812.868
-781.756
-749.739
-716.825
-683.019
-648.331
-612.77
-576.348
-539.076
-500.968
-462.038
-422.302
-381.778
-340.483
-298.436
-255.659
-212.172
-167.996
-123.155
-77.6712
-31.5681
15.1305
62.4005
110.218
158.558
207.396
256.708
306.47
356.657
407.246
458.212
509.532
561.178
613.118
665.315
717.731
770.336
823.12
876.094
929.271
982.639
1036.15
1089.77
1143.43
1197.1
1250.76
1304.38
1357.96
1411.49
1464.95
1518.33
1571.6
1624.76
1677.78
1730.67
1783.41
1836
1888.41
1940.65
1992.69
2044.53
2096.17
2147.62
2198.88
2249.95
2300.8
2351.37
2401.62
2451.49
2500.99
2550.14
2598.94
2647.41
2695.56
2743.38
2790.87
2838.02
2884.83
2931.29
2977.39
3023.14
3068.54
3113.57
3158.22
3202.49
3246.37
3289.84
3332.91
3375.57
3417.79
3459.58
3500.93
3541.83
3582.26
3622.28
3661.72
3700.67
3739.12
3777.04
3814.45
3851.32
3887.65
3923.41
3958.61
3993.22
4027.24
4060.65
4093.45
4125.62
4157.14
4188
4218.2
4247.71
4276.52
4304.61
4331.99
4358.62
4384.5
4409.63
4433.98
4457.55
4480.32
4502.29
4523.46
4543.8
4563.32
4582.01
4599.86
4616.88
4633.04
4648.36
4662.82
4676.43
4689.18
4701.07
4712.11
4722.29
4731.61
4740.09
4747.71
4754.48
4760.42
4765.51
4769.78
4773.22
4775.84
4777.64
4778.65
4778.86
4778.28
4776.92
4774.8
4771.92
4768.29
4763.93
4758.84
4753.04
4746.53
4739.34
4731.47
4722.94
4713.76
4703.95
4693.52
4682.48
4670.84
4658.64
4645.87
4632.56
4618.72
4604.37
4589.53
4574.21
4558.43
4542.21
4525.57
4508.53
4491.1
4473.3
4455.15
4436.68
4417.89
4398.82
4379.47
4359.87
4340.03
4319.99
4299.75
4279.33
4258.76
4238.04
4217.22
4196.29
4175.28
4154.21
4133.11
4111.98
4090.85
4069.74
4048.67
4027.66
4006.72
3985.88
3965.16
3944.56
3924.12
3903.84
3883.75
3863.86
3844.18
3824.74
3805.55
3786.63
3767.99
3749.66
3731.64
3713.97
3696.66
3679.72
3663.17
3647.01
3631.27
3615.95
3601.06
3586.62
3572.63
3559.11
3546.07
3533.51
3521.47
3509.93
3498.9
3488.4
3478.44
3469.01
3460.13
3451.81
3444.05
3436.85
3430.23
3424.18
3418.69
3413.75
3409.36
3405.51
3402.2
3399.41
3397.14
3395.39
3394.15
3393.41
3393.17
3393.41
3394.12
3395.3
3396.92
3398.98
3401.46
3404.33
3407.59
3411.21
3415.17
3419.45
3424.02
3428.88
3433.98
3439.32
3444.86
3450.59
3456.48
3462.5
3468.64
3474.86
3481.15
3487.47
3493.81
3500.14
3506.45
3512.72
3518.91
3525.02
3531.02
3536.9
3542.64
3548.24
3553.67
3558.93
3564
3568.89
3573.58
3578.06
3582.33
3586.39
3590.23
3593.83
3597.19
3600.31
3603.17
3605.75
3608.04
3610.02
3611.7
3613.06
3614.1
3614.84
3615.24
-1577.09
-1576.94
-1576.34
-1575.31
-1573.9
-1572.18
-1570.19
-1567.97
-1565.51
-1562.82
-1559.89
-1556.73
-1553.35
-1549.74
-1545.91
-1541.88
-1537.65
-1533.22
-1528.62
-1523.84
-1518.9
-1513.81
-1508.59
-1503.24
-1497.78
-1492.22
-1486.57
-1480.86
-1475.08
-1469.26
-1463.41
-1457.55
-1451.68
-1445.82
-1439.99
-1434.2
-1428.46
-1422.79
-1417.19
-1411.69
-1406.29
-1401
-1395.84
-1390.81
-1385.93
-1381.21
-1376.65
-1372.26
-1368.06
-1364.04
-1360.21
-1356.57
-1353.14
-1349.92
-1346.9
-1344.1
-1341.51
-1339.15
-1337.01
-1335.11
-1333.44
-1332.01
-1330.82
-1329.87
-1329.15
-1328.67
-1328.42
-1328.41
-1328.62
-1329.05
-1329.7
-1330.56
-1331.62
-1332.88
-1334.32
-1335.94
-1337.73
-1339.68
-1341.78
-1344.02
-1346.38
-1348.87
-1351.46
-1354.15
-1356.92
-1359.76
-1362.66
-1365.62
-1368.61
-1371.63
-1374.66
-1377.7
-1380.73
-1383.74
-1386.72
-1389.66
-1392.55
-1395.37
-1398.13
-1400.81
-1403.4
-1405.9
-1408.3
-1410.59
-1412.77
-1414.84
-1416.79
-1418.62
-1420.33
-1421.92
-1423.39
-1424.74
-1425.96
-1427.06
-1428.03
-1428.89
-1429.62
-1430.24
-1430.75
-1431.14
-1431.44
-1431.64
-1431.76
-1431.79
-1431.75
-1431.63
-1431.45
-1431.21
-1430.92
-1430.58
-1430.19
-1429.77
-1429.3
-1428.8
-1428.26
-1427.68
-1427.06
-1426.41
-1425.7
-1424.95
-1424.14
-1423.26
-1422.31
-1421.28
-1420.15
-1418.91
-1417.56
-1416.08
-1414.45
-1412.66
-1410.67
-1408.47
-1406.04
-1403.35
-1400.38
-1397.12
-1393.55
-1389.64
-1385.39
-1380.78
-1375.79
-1370.37
-1364.51
-1358.18
-1351.35
-1344
-1336.1
-1327.64
-1318.59
-1308.93
-1298.63
-1287.69
-1276.07
-1263.75
-1250.72
-1236.96
-1222.44
-1207.15
-1191.08
-1174.2
-1156.49
-1137.96
-1118.57
-1098.33
-1077.21
-1055.21
-1032.31
-1008.51
-983.812
-958.197
-931.666
-904.217
-875.849
-846.562
-816.359
-785.242
-753.216
-720.288
-686.464
-651.753
-616.165
-579.712
-542.405
-504.259
-465.288
-425.509
-384.937
-343.593
-301.496
-258.665
-215.121
-170.888
-125.987
-80.4408
-34.2735
12.4912
59.8294
107.717
156.128
205.04
254.428
304.266
354.53
405.195
456.237
507.629
559.346
611.359
663.636
716.144
768.852
821.736
874.785
928.002
981.388
1034.93
1088.59
1142.32
1196.08
1249.84
1303.56
1357.23
1410.83
1464.36
1517.8
1571.14
1624.36
1677.47
1730.43
1783.25
1835.91
1888.39
1940.68
1992.77
2044.65
2096.31
2147.76
2199.01
2250.05
2300.87
2351.41
2401.66
2451.56
2501.13
2550.36
2599.25
2647.81
2696.05
2743.96
2791.53
2838.76
2885.65
2932.19
2978.38
3024.2
3069.66
3114.74
3159.45
3203.77
3247.7
3291.22
3334.34
3377.03
3419.3
3461.13
3502.51
3543.43
3583.9
3623.89
3663.38
3702.37
3740.85
3778.82
3816.27
3853.17
3889.53
3925.33
3960.55
3995.19
4029.24
4062.67
4095.49
4127.67
4159.2
4190.08
4220.28
4249.79
4278.59
4306.68
4334.05
4360.67
4386.55
4411.66
4435.99
4459.55
4482.31
4504.27
4525.41
4545.74
4565.25
4583.92
4601.76
4618.75
4634.89
4650.19
4664.63
4678.22
4690.94
4702.81
4713.83
4723.98
4733.28
4741.72
4749.32
4756.07
4761.97
4767.04
4771.27
4774.68
4777.28
4779.05
4780.03
4780.21
4779.6
4778.22
4776.06
4773.15
4769.49
4765.1
4759.97
4754.14
4747.6
4740.38
4732.48
4723.92
4714.7
4704.85
4694.38
4683.31
4671.64
4659.4
4646.59
4633.24
4619.37
4604.98
4590.1
4574.74
4558.92
4542.66
4525.98
4508.89
4491.41
4473.57
4455.38
4436.86
4418.03
4398.91
4379.52
4359.87
4339.99
4319.9
4299.61
4279.14
4258.52
4237.76
4216.88
4195.9
4174.84
4153.72
4132.57
4111.39
4090.22
4069.06
4047.94
4026.88
4005.9
3985.02
3964.24
3943.6
3923.11
3902.79
3882.65
3862.71
3842.99
3823.51
3804.27
3785.31
3766.63
3748.25
3730.2
3712.49
3695.13
3678.15
3661.56
3645.37
3629.59
3614.23
3599.32
3584.84
3570.83
3557.29
3544.22
3531.65
3519.59
3508.03
3497
3486.49
3476.52
3467.09
3458.21
3449.89
3442.13
3434.93
3428.31
3422.25
3416.76
3411.82
3407.44
3403.6
3400.29
3397.52
3395.28
3393.56
3392.36
3391.66
3391.46
3391.75
3392.52
3393.75
3395.43
3397.54
3400.08
3403.02
3406.34
3410.03
3414.06
3418.41
3423.06
3428
3433.18
3438.6
3444.23
3450.04
3456.02
3462.12
3468.34
3474.64
3481.01
3487.42
3493.84
3500.25
3506.63
3512.96
3519.22
3525.38
3531.44
3537.36
3543.14
3548.77
3554.23
3559.51
3564.6
3569.5
3574.2
3578.69
3582.98
3587.05
3590.9
3594.53
3597.92
3601.07
3603.96
3606.58
3608.91
3610.94
3612.65
3614.06
3615.13
3615.88
3616.31
-1579.3
-1579.16
-1578.55
-1577.52
-1576.1
-1574.35
-1572.33
-1570.06
-1567.56
-1564.81
-1561.83
-1558.62
-1555.17
-1551.5
-1547.61
-1543.51
-1539.21
-1534.71
-1530.03
-1525.18
-1520.17
-1515
-1509.7
-1504.27
-1498.73
-1493.09
-1487.36
-1481.56
-1475.7
-1469.79
-1463.86
-1457.91
-1451.96
-1446.02
-1440.11
-1434.24
-1428.42
-1422.67
-1417
-1411.43
-1405.96
-1400.61
-1395.38
-1390.3
-1385.37
-1380.59
-1375.99
-1371.55
-1367.3
-1363.24
-1359.38
-1355.71
-1352.25
-1349
-1345.96
-1343.15
-1340.56
-1338.19
-1336.06
-1334.16
-1332.49
-1331.07
-1329.89
-1328.94
-1328.24
-1327.78
-1327.55
-1327.55
-1327.79
-1328.25
-1328.93
-1329.82
-1330.91
-1332.2
-1333.69
-1335.34
-1337.17
-1339.17
-1341.31
-1343.59
-1346
-1348.52
-1351.16
-1353.89
-1356.71
-1359.6
-1362.55
-1365.55
-1368.59
-1371.65
-1374.73
-1377.81
-1380.88
-1383.93
-1386.95
-1389.92
-1392.85
-1395.71
-1398.5
-1401.21
-1403.83
-1406.35
-1408.77
-1411.09
-1413.28
-1415.37
-1417.33
-1419.16
-1420.88
-1422.47
-1423.93
-1425.26
-1426.47
-1427.56
-1428.51
-1429.35
-1430.06
-1430.66
-1431.14
-1431.52
-1431.79
-1431.98
-1432.07
-1432.08
-1432.02
-1431.88
-1431.68
-1431.43
-1431.12
-1430.77
-1430.38
-1429.95
-1429.48
-1428.98
-1428.45
-1427.88
-1427.28
-1426.64
-1425.96
-1425.24
-1424.46
-1423.62
-1422.72
-1421.73
-1420.66
-1419.49
-1418.2
-1416.79
-1415.23
-1413.52
-1411.61
-1409.5
-1407.16
-1404.57
-1401.7
-1398.55
-1395.08
-1391.28
-1387.14
-1382.63
-1377.72
-1372.4
-1366.63
-1360.39
-1353.65
-1346.4
-1338.6
-1330.23
-1321.28
-1311.72
-1301.52
-1290.67
-1279.14
-1266.91
-1253.97
-1240.29
-1225.86
-1210.65
-1194.65
-1177.84
-1160.21
-1141.73
-1122.41
-1102.22
-1081.15
-1059.2
-1036.34
-1012.58
-987.913
-962.325
-935.816
-908.384
-880.027
-850.746
-820.543
-789.421
-757.385
-724.441
-690.596
-655.86
-620.242
-583.753
-546.407
-508.217
-469.198
-429.367
-388.741
-347.339
-305.181
-262.286
-218.677
-174.374
-129.402
-83.7818
-37.5383
9.30494
56.7238
104.694
153.191
202.189
251.665
301.593
351.948
402.706
453.839
505.322
557.128
609.226
661.585
714.176
766.973
819.957
873.116
926.438
979.911
1033.52
1087.22
1141
1194.82
1248.65
1302.45
1356.22
1409.92
1463.55
1517.09
1570.52
1623.83
1677.02
1730.06
1782.95
1835.67
1888.22
1940.57
1992.73
2044.67
2096.39
2147.88
2199.14
2250.19
2301
2351.56
2401.85
2451.83
2501.49
2550.82
2599.81
2648.47
2696.8
2744.79
2792.44
2839.74
2886.7
2933.3
2979.55
3025.44
3070.96
3116.11
3160.88
3205.26
3249.24
3292.82
3335.99
3378.74
3421.07
3462.95
3504.39
3545.37
3585.89
3625.93
3665.47
3704.51
3743.04
3781.05
3818.54
3855.48
3891.87
3927.7
3962.96
3997.62
4031.69
4065.14
4097.97
4130.17
4161.71
4192.59
4222.79
4252.3
4281.1
4309.19
4336.55
4363.17
4389.04
4414.14
4438.46
4462
4484.75
4506.69
4527.82
4548.13
4567.61
4586.27
4604.08
4621.05
4637.17
4652.44
4666.85
4680.41
4693.11
4704.95
4715.93
4726.05
4735.32
4743.73
4751.29
4758
4763.87
4768.9
4773.1
4776.48
4779.03
4780.77
4781.71
4781.85
4781.21
4779.78
4777.59
4774.64
4770.94
4766.51
4761.35
4755.47
4748.89
4741.63
4733.69
4725.08
4715.82
4705.93
4695.42
4684.3
4672.59
4660.3
4647.45
4634.05
4620.13
4605.69
4590.76
4575.36
4559.49
4543.18
4526.45
4509.31
4491.78
4473.89
4455.65
4437.07
4418.19
4399.01
4379.56
4359.86
4339.92
4319.77
4299.42
4278.9
4258.21
4237.39
4216.45
4195.42
4174.3
4153.12
4131.91
4110.68
4089.44
4068.23
4047.06
4025.94
4004.9
3983.96
3963.13
3942.43
3921.88
3901.5
3881.31
3861.31
3841.54
3822
3802.72
3783.7
3764.97
3746.55
3728.45
3710.69
3693.29
3676.26
3659.63
3643.39
3627.57
3612.18
3597.22
3582.72
3568.67
3555.1
3542
3529.41
3517.33
3505.76
3494.71
3484.19
3474.21
3464.78
3455.9
3447.57
3439.81
3432.62
3425.99
3419.94
3414.45
3409.52
3405.14
3401.32
3398.04
3395.3
3393.09
3391.41
3390.24
3389.59
3389.44
3389.78
3390.6
3391.89
3393.64
3395.82
3398.43
3401.44
3404.84
3408.61
3412.73
3417.17
3421.92
3426.94
3432.23
3437.75
3443.47
3449.39
3455.46
3461.67
3467.99
3474.4
3480.87
3487.37
3493.88
3500.39
3506.85
3513.26
3519.59
3525.82
3531.94
3537.92
3543.75
3549.41
3554.9
3560.21
3565.32
3570.24
3574.95
3579.45
3583.75
3587.84
3591.71
3595.37
3598.79
3601.98
3604.92
3607.59
3609.98
3612.06
3613.82
3615.28
3616.38
3617.15
3617.59
-1581.87
-1581.72