/*--------------------------------*- C++ -*----------------------------------*\
| =========                 |                                                 |
| \\      /  F ield         | OpenFOAM: The Open Source CFD Toolbox           |
|  \\    /   O peration     | Version:  v2006                                 |
|   \\  /    A nd           | Website:  www.openfoam.com                      |
|    \\/     M anipulation  |                                                 |
\*---------------------------------------------------------------------------*/
FoamFile
{
    version     2.0;
    format      ascii;
    class       volScalarField;
    location    "0";
    object      p;
}
// * * * * * * * * * * * * * * * * * * * * * * * * * * * * * * * * * * * * * //

dimensions      [1 -1 -2 0 0 0 0];


internalField   nonuniform List<scalar> 
67500
(
72.4541
72.9207
74.4573
75.4523
73.6723
70.3109
66.7091
63.6113
61.32
59.8721
59.1827
59.1401
59.6294
60.5295
61.7172
63.0738
64.4868
65.851
67.0735
68.0803
68.8201
69.2649
69.4072
69.257
68.836
68.173
67.2989
66.244
65.0363
63.7009
62.2603
60.7341
59.1398
57.4932
55.8081
54.097
52.3708
50.6391
48.9105
47.1922
45.4906
43.8111
42.1583
40.5362
38.948
37.3966
35.8841
34.4125
32.9832
31.5972
30.2552
28.9578
27.705
26.4969
25.333
24.2129
23.136
22.1014
21.1082
20.1555
19.2421
18.367
17.5289
16.7267
15.9592
15.2251
14.5233
13.8525
13.2117
12.5995
12.015
11.4571
10.9246
10.4166
9.93196
9.46986
9.02932
8.60943
8.20933
7.82817
7.46515
7.11949
6.79042
6.47721
6.17917
5.89562
5.6259
5.36938
5.12547
4.89358
4.67316
4.46368
4.26464
4.07555
3.89594
3.72539
3.56346
3.40976
3.26391
3.12554
2.99431
2.86988
2.75194
2.64019
2.53434
2.43411
2.33924
2.24948
2.1646
2.08437
2.00856
1.93698
1.86942
1.80571
1.74566
1.68909
1.63586
1.5858
1.53876
1.49461
1.45319
1.41438
1.37805
1.34408
1.31233
1.2827
1.25506
1.22929
1.20529
1.18295
1.16214
1.14277
1.12472
1.10789
1.09218
1.07748
1.06369
1.05072
1.03848
1.02686
1.01579
1.00519
0.994962
0.98505
0.975379
0.965885
0.956512
0.947204
0.937914
0.9286
0.919224
0.909754
0.900162
0.890426
0.880526
0.870449
0.860184
0.849723
0.839064
0.828204
0.817147
0.805895
0.794455
0.782835
0.771043
0.759092
0.746992
0.734755
0.722396
0.709927
0.697363
0.684718
0.672006
0.659241
0.646438
0.63361
0.620771
0.607934
0.595112
0.582317
0.569562
0.556857
0.544214
0.531642
0.519152
0.506752
0.494452
0.482259
0.470182
0.458226
0.446399
0.434706
0.423153
0.411745
0.400487
0.389382
0.378435
0.367649
0.357027
0.346571
0.336283
0.326167
0.316223
0.306453
0.296858
0.28744
0.278198
0.269135
0.260249
0.251542
0.243014
0.234665
0.226495
0.218504
0.210691
0.203056
0.1956
0.188321
0.181219
0.174294
0.167545
0.160972
0.154573
0.148349
0.142298
0.136419
0.130711
0.125173
0.119803
0.114601
0.109565
0.104692
0.0999814
0.0954306
0.0910373
0.0867991
0.0827134
0.0787773
0.074988
0.0713422
0.0678369
0.0644686
0.061234
0.0581295
0.0551516
0.0522967
0.0495612
0.0469414
0.0444337
0.0420344
0.0397399
0.0375465
0.0354506
0.0334486
0.031537
0.0297123
0.0279711
0.02631
0.0247259
0.0232157
0.0217765
0.0204057
0.0191006
0.017859
0.0166785
0.0155571
0.0144928
0.0134838
0.0125282
0.0116242
0.01077
0.00996382
0.00920376
0.00848798
0.0078146
0.00718169
0.00658734
0.00602963
0.00550665
0.00501654
0.00455746
0.00412761
0.00372528
0.00334881
0.00299661
0.00266718
0.00235909
0.00207098
0.00180159
0.00154971
0.00131424
0.00109412
0.000888379
0.000696097
0.000516426
0.000348574
0.000191801
4.54181e-05
-9.12187e-05
-0.000218709
-0.000337613
-0.000448452
-0.000551713
-0.000647848
-0.000737282
-0.000820411
-0.000897606
-0.000969215
-0.00103556
-0.00109696
-0.00115369
-0.00120602
-0.0012542
-0.00129847
-0.00133905
-0.00137616
-0.00140999
-0.00144073
-0.00146857
-0.00149365
-0.00151615
-0.00153621
-0.00155397
-0.00156956
-0.00158311
-0.00159474
-0.00160456
-0.00161266
-0.00161915
-0.00162412
-0.00162767
-0.00162986
-0.00163079
-0.00163052
-0.00162913
-0.00162668
-0.00162324
-0.00161886
-0.0016136
-0.00160752
-0.00160067
-0.0015931
-0.00158484
-0.00157595
-0.00156647
-0.00155643
-0.00154588
-0.00153483
-0.00152333
-0.00151141
-0.0014991
-0.00148641
-0.00147339
-0.00146005
-0.00144642
-0.00143251
-0.00141835
-0.00140397
-0.00138937
-0.00137457
-0.00135959
-0.00134445
-0.00132917
-0.00131374
-0.0012982
-0.00128255
-0.0012668
-0.00125097
-0.00123505
-0.00121908
-0.00120304
-0.00118696
-0.00117083
-0.00115467
-0.00113849
-0.00112228
-0.00110605
-0.00108982
-0.00107358
-0.00105734
-0.00104111
-0.00102489
-0.00100868
-0.000992496
-0.00097633
-0.000960186
-0.000944066
-0.000927975
-0.000911915
-0.000895891
-0.000879905
-0.00086396
-0.000848057
-0.000832196
-0.000816379
-0.000800607
-0.00078488
-0.000769202
-0.000753573
-0.000737994
-0.000722465
-0.000706985
-0.000691553
-0.000676169
-0.000660831
-0.000645542
-0.000630301
-0.00061511
-0.000599968
-0.000584876
-0.000569832
-0.000554838
-0.000539891
-0.000524992
-0.00051014
-0.000495334
-0.000480574
-0.000465859
-0.000451188
-0.00043656
-0.000421972
-0.000407425
-0.000392915
-0.000378444
-0.000364009
-0.000349609
-0.000335245
-0.000320913
-0.000306611
-0.000292339
-0.000278095
-0.000263877
-0.000249684
-0.000235515
-0.00022137
-0.000207246
-0.000193143
-0.000179061
-0.000164997
-0.000150951
-0.000136919
-0.000122899
-0.000108891
-9.48894e-05
-8.09064e-05
-6.68959e-05
-5.30037e-05
-3.86662e-05
-2.54828e-05
-5.92528e-06
71.5066
71.8919
73.3716
74.2199
72.2617
68.7841
65.15
62.0865
59.8648
58.4944
57.8751
57.8893
58.4248
59.3686
60.6045
62.0164
63.4898
64.9149
66.1934
67.2485
68.0283
68.5052
68.6736
68.5459
68.1469
67.5073
66.659
65.6323
64.4548
63.1508
61.7418
60.2471
58.6835
57.0665
55.4096
53.7253
52.0244
50.3166
48.6103
46.9129
45.2308
43.5694
41.9334
40.3268
38.753
37.2148
35.7146
34.2542
32.8353
31.459
30.126
28.8369
27.5918
26.3908
25.2337
24.1198
23.0487
22.0196
21.0315
20.0835
19.1746
18.3036
17.4694
16.6708
15.9066
15.1757
14.4768
13.8088
13.1705
12.5607
11.9785
11.4226
10.892
10.3858
9.90293
9.44242
9.00338
8.5849
8.18612
7.80621
7.44436
7.0998
6.77177
6.45955
6.16244
5.87977
5.61088
5.35515
5.11198
4.88079
4.66104
4.45219
4.25373
4.0652
3.88612
3.71606
3.55461
3.40135
3.25592
3.11795
2.9871
2.86303
2.74543
2.634
2.52845
2.42851
2.33391
2.24442
2.15978
2.07978
2.0042
1.93282
1.86547
1.80194
1.74207
1.68568
1.63261
1.58271
1.53582
1.49181
1.45053
1.41186
1.37566
1.34181
1.31019
1.28067
1.25315
1.2275
1.20362
1.18138
1.16069
1.14142
1.12348
1.10676
1.09115
1.07655
1.06286
1.04999
1.03783
1.02631
1.01532
1.00479
0.994645
0.984801
0.975195
0.96576
0.95644
0.947181
0.937934
0.928658
0.919315
0.909872
0.900304
0.890586
0.880701
0.870635
0.860376
0.84992
0.839262
0.828401
0.817339
0.806081
0.794634
0.783004
0.771203
0.75924
0.747127
0.734877
0.722504
0.710022
0.697444
0.684784
0.672058
0.659279
0.646462
0.633621
0.620768
0.607919
0.595084
0.582278
0.569511
0.556795
0.544142
0.53156
0.519061
0.506653
0.494345
0.482144
0.47006
0.458097
0.446264
0.434566
0.423008
0.411595
0.400333
0.389225
0.378274
0.367485
0.35686
0.346402
0.336112
0.325994
0.316049
0.306278
0.296682
0.287262
0.27802
0.268956
0.260071
0.251364
0.242835
0.234486
0.226316
0.218325
0.210512
0.202878
0.195422
0.188144
0.181042
0.174118
0.16737
0.160797
0.154399
0.148176
0.142125
0.136247
0.130541
0.125004
0.119636
0.114436
0.109401
0.10453
0.0998216
0.0952731
0.0908822
0.0866467
0.0825638
0.0786306
0.0748444
0.0712019
0.0676998
0.064335
0.0611039
0.0580029
0.0550286
0.0521774
0.0494455
0.0468294
0.0443253
0.0419297
0.0396388
0.037449
0.0353567
0.0333582
0.0314501
0.0296288
0.0278909
0.026233
0.0246519
0.0231446
0.0217082
0.0203399
0.0190372
0.0177977
0.0166193
0.0154999
0.0144376
0.0134304
0.0124766
0.0115744
0.0107221
0.00991769
0.00915949
0.0084456
0.00777411
0.00714312
0.00655068
0.00599486
0.00547376
0.00498548
0.00452817
0.00410005
0.00369938
0.00332449
0.0029738
0.0026458
0.00233906
0.00205222
0.00178403
0.00153328
0.00129885
0.00107972
0.000874887
0.000683459
0.000504585
0.000337476
0.000181395
3.5657e-05
-0.000100379
-0.000227309
-0.000345691
-0.000456044
-0.000558849
-0.000654559
-0.000743595
-0.000826352
-0.000903198
-0.00097448
-0.00104052
-0.00110163
-0.00115809
-0.00121017
-0.00125811
-0.00130215
-0.00134253
-0.00137944
-0.00141308
-0.00144365
-0.00147131
-0.00149624
-0.00151859
-0.00153851
-0.00155614
-0.00157161
-0.00158504
-0.00159656
-0.00160627
-0.00161427
-0.00162067
-0.00162556
-0.00162902
-0.00163113
-0.00163199
-0.00163165
-0.00163019
-0.00162767
-0.00162417
-0.00161973
-0.00161442
-0.00160829
-0.00160139
-0.00159377
-0.00158548
-0.00157655
-0.00156703
-0.00155695
-0.00154636
-0.00153529
-0.00152376
-0.00151181
-0.00149946
-0.00148675
-0.00147371
-0.00146034
-0.00144669
-0.00143276
-0.00141858
-0.00140418
-0.00138956
-0.00137474
-0.00135975
-0.0013446
-0.0013293
-0.00131386
-0.00129831
-0.00128265
-0.00126689
-0.00125104
-0.00123512
-0.00121913
-0.00120309
-0.001187
-0.00117087
-0.0011547
-0.00113851
-0.00112229
-0.00110606
-0.00108982
-0.00107357
-0.00105733
-0.0010411
-0.00102487
-0.00100866
-0.000992475
-0.000976305
-0.000960158
-0.000944035
-0.00092794
-0.000911878
-0.000895852
-0.000879865
-0.000863919
-0.000848015
-0.000832153
-0.000816334
-0.00080056
-0.000784833
-0.000769154
-0.000753525
-0.000737946
-0.000722417
-0.000706937
-0.000691504
-0.000676119
-0.000660781
-0.000645492
-0.000630251
-0.00061506
-0.000599919
-0.000584827
-0.000569785
-0.000554791
-0.000539845
-0.000524947
-0.000510095
-0.000495291
-0.000480532
-0.000465818
-0.000451148
-0.00043652
-0.000421933
-0.000407386
-0.000392878
-0.000378407
-0.000363973
-0.000349575
-0.000335212
-0.000320881
-0.000306581
-0.000292311
-0.000278068
-0.000263851
-0.000249659
-0.000235491
-0.000221346
-0.000207224
-0.000193123
-0.000179042
-0.00016498
-0.000150935
-0.000136905
-0.000122886
-0.000108879
-9.48792e-05
-8.08974e-05
-6.68883e-05
-5.29975e-05
-3.86615e-05
-2.54796e-05
-5.92461e-06
69.5909
69.9014
71.1818
71.7393
69.4115
65.6878
61.9878
59.0086
56.9491
55.7524
55.2778
55.3976
56.0142
57.036
58.363
59.8842
61.4802
63.0299
64.4233
65.5767
66.4375
66.9791
67.1989
67.1158
66.7608
66.1686
65.3731
64.4045
63.2889
62.049
60.7046
59.2736
57.772
56.2145
54.6144
52.9838
51.3337
49.6736
48.0121
46.3565
44.7133
43.088
41.4855
39.9098
38.3646
36.8527
35.3768
33.939
32.5408
31.1837
29.8685
28.5959
27.3662
26.1795
25.0357
23.9343
22.8748
21.8565
20.8785
19.94
19.0399
18.1771
17.3506
16.5592
15.8018
15.0771
14.3841
13.7215
13.0883
12.4833
11.9055
11.3537
10.8271
10.3245
9.84499
9.38767
8.95161
8.53594
8.1398
7.76237
7.40286
7.0605
6.73455
6.4243
6.12905
5.84813
5.5809
5.32674
5.08505
4.85526
4.63683
4.42923
4.23196
4.04454
3.86651
3.69745
3.53693
3.38456
3.23997
3.1028
2.97269
2.84934
2.73241
2.62162
2.51668
2.41732
2.32327
2.2343
2.15015
2.07062
1.99548
1.92453
1.85757
1.79442
1.73491
1.67886
1.62612
1.57653
1.52994
1.48621
1.44521
1.40681
1.37087
1.33727
1.3059
1.27662
1.24934
1.22392
1.20026
1.17825
1.15778
1.13874
1.12101
1.1045
1.0891
1.0747
1.06121
1.04852
1.03655
1.0252
1.01438
1.00401
0.994014
0.98431
0.974832
0.965516
0.956303
0.94714
0.937979
0.928778
0.9195
0.910114
0.900591
0.890911
0.881055
0.87101
0.860766
0.850317
0.83966
0.828796
0.817726
0.806457
0.794993
0.783345
0.771522
0.759536
0.747398
0.735122
0.722722
0.710211
0.697605
0.684917
0.672162
0.659355
0.64651
0.633642
0.620763
0.607888
0.595029
0.582198
0.569409
0.556671
0.543997
0.531396
0.518879
0.506453
0.494129
0.481913
0.469815
0.45784
0.445994
0.434285
0.422717
0.411296
0.400025
0.388909
0.377952
0.367157
0.356527
0.346064
0.33577
0.325649
0.3157
0.305927
0.296329
0.286908
0.277665
0.2686
0.259713
0.251006
0.242477
0.234128
0.225958
0.217967
0.210155
0.202522
0.195067
0.187789
0.180689
0.173766
0.167019
0.160447
0.154051
0.147829
0.141781
0.135905
0.1302
0.124666
0.119301
0.114104
0.109073
0.104206
0.0995018
0.0949578
0.0905719
0.0863416
0.0822643
0.0783371
0.074557
0.070921
0.0674256
0.0640676
0.0608435
0.0577497
0.0547826
0.0519387
0.0492141
0.0466053
0.0441085
0.0417202
0.0394366
0.037254
0.0351689
0.0331775
0.0312764
0.0294619
0.0277306
0.0260791
0.0245041
0.0230026
0.0215716
0.0202084
0.0189105
0.0176755
0.0165012
0.0153857
0.0143271
0.0133236
0.0123735
0.0114749
0.0106261
0.0098254
0.00907093
0.00836081
0.00769314
0.00706598
0.00647737
0.00592536
0.00540801
0.0049234
0.00446966
0.00404499
0.00364763
0.00327592
0.00292825
0.00260311
0.00229907
0.00201479
0.00174898
0.00150047
0.00126814
0.00105097
0.000847965
0.000658243
0.000480959
0.000315331
0.00016063
1.61773e-05
-0.000118661
-0.000244475
-0.000361816
-0.000471196
-0.000573093
-0.000667955
-0.000756197
-0.000838211
-0.000914361
-0.000984991
-0.00105042
-0.00111096
-0.00116688
-0.00121845
-0.00126591
-0.00130951
-0.00134946
-0.00138598
-0.00141925
-0.00144946
-0.0014768
-0.00150141
-0.00152347
-0.00154311
-0.00156047
-0.0015757
-0.0015889
-0.00160019
-0.00160969
-0.0016175
-0.00162371
-0.00162841
-0.00163171
-0.00163367
-0.00163437
-0.00163389
-0.0016323
-0.00162965
-0.00162603
-0.00162148
-0.00161606
-0.00160983
-0.00160284
-0.00159513
-0.00158674
-0.00157774
-0.00156814
-0.00155799
-0.00154733
-0.00153619
-0.0015246
-0.00151259
-0.00150019
-0.00148743
-0.00147433
-0.00146092
-0.00144722
-0.00143325
-0.00141904
-0.0014046
-0.00138994
-0.0013751
-0.00136007
-0.00134489
-0.00132956
-0.0013141
-0.00129853
-0.00128284
-0.00126706
-0.00125119
-0.00123525
-0.00121925
-0.00120319
-0.00118708
-0.00117093
-0.00115475
-0.00113855
-0.00112232
-0.00110608
-0.00108982
-0.00107357
-0.00105732
-0.00104107
-0.00102484
-0.00100863
-0.000992429
-0.000976252
-0.000960099
-0.000943971
-0.000927872
-0.000911806
-0.000895777
-0.000879787
-0.000863838
-0.000847931
-0.000832066
-0.000816244
-0.000800468
-0.00078474
-0.00076906
-0.000753429
-0.000737849
-0.000722319
-0.000706838
-0.000691404
-0.000676019
-0.000660681
-0.000645391
-0.000630151
-0.000614962
-0.000599822
-0.000584732
-0.000569691
-0.000554699
-0.000539755
-0.000524858
-0.000510008
-0.000495205
-0.000480448
-0.000465735
-0.000451067
-0.00043644
-0.000421855
-0.000407309
-0.000392803
-0.000378334
-0.000363902
-0.000349507
-0.000335146
-0.000320818
-0.00030652
-0.000292252
-0.000278011
-0.000263797
-0.000249607
-0.000235442
-0.0002213
-0.00020718
-0.000193082
-0.000179004
-0.000164945
-0.000150903
-0.000136875
-0.00012286
-0.000108856
-9.48586e-05
-8.08798e-05
-6.68735e-05
-5.29855e-05
-3.86525e-05
-2.54733e-05
-5.92332e-06
66.7956
66.9896
67.9008
67.9585
64.9548
60.8328
57.0918
54.3185
52.5751
51.6857
51.4356
51.6896
52.3957
53.5101
54.9611
56.6449
58.4323
60.1799
61.7526
63.0554
64.0378
64.6749
64.9688
64.9498
64.66
64.1404
63.427
62.5492
61.5303
60.3899
59.1451
57.8117
56.4045
54.9373
53.423
51.8736
50.2999
48.7116
47.1173
45.5245
43.9397
42.3686
40.8163
39.2869
37.7844
36.3119
34.8724
33.468
32.1008
30.7723
29.4837
28.2357
27.029
25.8637
24.7398
23.657
22.6148
21.6127
20.6498
19.7254
18.8385
17.9881
17.1731
16.3925
15.645
14.9297
14.2454
13.591
12.9654
12.3675
11.7963
11.2508
10.7299
10.2328
9.75836
9.30579
8.87419
8.46271
8.0705
7.69678
7.34077
7.00171
6.67887
6.37155
6.07908
5.80078
5.53604
5.28422
5.04475
4.81706
4.60061
4.39488
4.19937
4.01362
3.83717
3.66959
3.51048
3.35944
3.2161
3.08012
2.95114
2.82885
2.71294
2.60311
2.49908
2.40058
2.30735
2.21915
2.13574
2.05691
1.98243
1.9121
1.84574
1.78316
1.72419
1.66865
1.6164
1.56727
1.52113
1.47784
1.43725
1.39924
1.36369
1.33047
1.29947
1.27055
1.24362
1.21855
1.19524
1.17357
1.15343
1.13471
1.11731
1.10111
1.08602
1.07193
1.05873
1.04634
1.03464
1.02355
1.01299
1.00286
0.993081
0.983586
0.974301
0.965162
0.95611
0.947092
0.93806
0.928972
0.919792
0.910487
0.901033
0.891408
0.881595
0.871581
0.861357
0.85092
0.840265
0.829395
0.818313
0.807024
0.795536
0.78386
0.772004
0.759982
0.747806
0.735491
0.723049
0.710496
0.697846
0.685115
0.672318
0.659468
0.646582
0.633672
0.620754
0.60784
0.594944
0.582078
0.569254
0.556484
0.543779
0.531149
0.518604
0.506152
0.493804
0.481566
0.469446
0.457452
0.445589
0.433863
0.42228
0.410845
0.399562
0.388435
0.377468
0.366664
0.356026
0.345556
0.335257
0.32513
0.315177
0.3054
0.295799
0.286376
0.277131
0.268064
0.259177
0.250469
0.24194
0.233591
0.225422
0.217431
0.20962
0.201987
0.194533
0.187257
0.180158
0.173237
0.166492
0.159923
0.153529
0.147309
0.141264
0.135391
0.12969
0.12416
0.118799
0.113607
0.108581
0.10372
0.0990216
0.0944845
0.090106
0.0858836
0.0818147
0.0778964
0.0741257
0.0704994
0.0670141
0.0636664
0.0604529
0.0573698
0.0544136
0.0515805
0.0488669
0.0462691
0.0437833
0.041406
0.0391333
0.0369616
0.0348873
0.0329066
0.031016
0.0292118
0.0274905
0.0258486
0.0242828
0.02279
0.0213672
0.0200116
0.0187208
0.0174924
0.0163243
0.0152146
0.0141616
0.0131635
0.0122187
0.0113255
0.0104821
0.00968691
0.00893802
0.00823358
0.00757166
0.00695028
0.00636745
0.00582118
0.00530947
0.0048304
0.00438204
0.00396256
0.0035702
0.00320325
0.00286012
0.00253928
0.00223929
0.00195882
0.0016966
0.00145144
0.00122225
0.001008
0.000807737
0.000620564
0.000445655
0.000282239
0.000129599
-1.29339e-05
-0.000145983
-0.00027013
-0.000385915
-0.000493844
-0.000594385
-0.000687979
-0.000775035
-0.000855939
-0.00093105
-0.00100071
-0.00106523
-0.0011249
-0.00118002
-0.00123083
-0.00127758
-0.00132051
-0.00135984
-0.00139576
-0.00142847
-0.00145816
-0.001485
-0.00150915
-0.00153076
-0.00154999
-0.00156696
-0.00158181
-0.00159466
-0.00160562
-0.00161481
-0.00162232
-0.00162825
-0.00163269
-0.00163573
-0.00163746
-0.00163793
-0.00163724
-0.00163545
-0.00163262
-0.00162881
-0.00162409
-0.00161851
-0.00161213
-0.00160499
-0.00159715
-0.00158864
-0.00157951
-0.0015698
-0.00155954
-0.00154878
-0.00153754
-0.00152586
-0.00151376
-0.00150128
-0.00148844
-0.00147527
-0.00146179
-0.00144802
-0.00143399
-0.00141972
-0.00140522
-0.00139052
-0.00137562
-0.00136055
-0.00134533
-0.00132996
-0.00131446
-0.00129885
-0.00128313
-0.00126731
-0.00125142
-0.00123545
-0.00121941
-0.00120333
-0.0011872
-0.00117103
-0.00115483
-0.0011386
-0.00112236
-0.0011061
-0.00108983
-0.00107356
-0.00105729
-0.00104103
-0.00102479
-0.00100857
-0.000992358
-0.000976172
-0.00096001
-0.000943875
-0.00092777
-0.000911698
-0.000895664
-0.000879669
-0.000863716
-0.000847804
-0.000831935
-0.00081611
-0.000800331
-0.0007846
-0.000768917
-0.000753285
-0.000737704
-0.000722172
-0.000706689
-0.000691254
-0.000675868
-0.000660529
-0.000645241
-0.000630002
-0.000614814
-0.000599676
-0.000584589
-0.000569551
-0.000554562
-0.00053962
-0.000524726
-0.000509878
-0.000495077
-0.000480321
-0.000465611
-0.000450945
-0.000436321
-0.000421737
-0.000407194
-0.00039269
-0.000378224
-0.000363796
-0.000349404
-0.000335047
-0.000320722
-0.000306429
-0.000292164
-0.000277927
-0.000263716
-0.00024953
-0.000235368
-0.000221229
-0.000207114
-0.00019302
-0.000178947
-0.000164892
-0.000150854
-0.000136831
-0.00012282
-0.000108821
-9.48278e-05
-8.08533e-05
-6.68513e-05
-5.29675e-05
-3.8639e-05
-2.54639e-05
-5.92141e-06
63.2516
63.1545
63.8574
63.2071
59.0429
54.0414
50.276
47.9466
46.7753
46.3925
46.4547
46.8274
47.579
48.7586
50.3395
52.2298
54.2864
56.3261
58.1585
59.668
60.8162
61.5787
61.962
62.0208
61.8165
61.3967
60.7996
60.0509
59.1685
58.1671
57.0601
55.8606
54.5818
53.2367
51.8381
50.3977
48.9265
47.4344
45.93
44.421
42.9141
41.4152
39.9295
38.4617
37.0158
35.5955
34.204
32.8439
31.5177
30.2271
28.9736
27.7583
26.5819
25.4449
24.3473
23.2891
22.27
21.2893
20.3465
19.4409
18.5715
17.7374
16.9376
16.1712
15.4371
14.7342
14.0615
13.4179
12.8024
12.2139
11.6515
11.1142
10.601
10.111
9.64335
9.19708
8.7714
8.36546
7.97848
7.60968
7.2583
6.92361
6.6049
6.30148
6.01269
5.73789
5.47643
5.22774
4.99122
4.76631
4.55249
4.34925
4.15609
3.97254
3.79818
3.63258
3.47533
3.32605
3.18438
3.04998
2.92249
2.80162
2.68706
2.5785
2.47568
2.37833
2.28619
2.19902
2.11659
2.03868
1.96508
1.89559
1.83002
1.76819
1.70993
1.65508
1.60347
1.55497
1.50942
1.46669
1.42666
1.38918
1.35414
1.32143
1.29091
1.26247
1.23601
1.21141
1.18855
1.16733
1.14763
1.12935
1.11238
1.09661
1.08193
1.06825
1.05545
1.04343
1.03211
1.02138
1.01115
1.00134
0.99186
0.982645
0.973618
0.964716
0.955879
0.947054
0.938192
0.929254
0.920203
0.911008
0.901644
0.892091
0.882333
0.872359
0.862162
0.851737
0.841083
0.830204
0.819104
0.807788
0.796268
0.784551
0.772652
0.760581
0.748354
0.735984
0.723486
0.710876
0.698169
0.68538
0.672525
0.659618
0.646676
0.633712
0.62074
0.607774
0.594828
0.581915
0.569045
0.556232
0.543486
0.530816
0.518234
0.505749
0.493368
0.4811
0.468952
0.456932
0.445045
0.433298
0.421695
0.410242
0.398943
0.387801
0.376821
0.366005
0.355357
0.344878
0.334571
0.324437
0.314479
0.304697
0.295092
0.285665
0.276418
0.26735
0.258461
0.249752
0.241223
0.232875
0.224705
0.216716
0.208906
0.201275
0.193822
0.186548
0.179451
0.172532
0.165789
0.159223
0.152832
0.146616
0.140574
0.134705
0.129009
0.123484
0.118129
0.112943
0.107924
0.10307
0.0983806
0.0938526
0.089484
0.0852722
0.0812146
0.0773082
0.07355
0.0699367
0.0664649
0.0631311
0.0599317
0.056863
0.0539213
0.0511029
0.048404
0.0458209
0.0433498
0.0409871
0.0387291
0.0365719
0.0345121
0.0325457
0.0306692
0.0288788
0.0271709
0.0255419
0.0239885
0.0225073
0.0210954
0.01975
0.0184686
0.0172489
0.0160889
0.0149869
0.0139412
0.0129502
0.0120124
0.0111262
0.01029
0.00950213
0.00876069
0.00806385
0.00740963
0.00679601
0.00622095
0.00568238
0.00517828
0.00470663
0.00426549
0.00385298
0.00346729
0.00310672
0.00276964
0.00245453
0.00215995
0.00188456
0.0016271
0.00138641
0.00116139
0.000951027
0.000754389
0.000570596
0.000398836
0.000238353
8.84436e-05
-5.15461e-05
-0.000182226
-0.000304163
-0.000417886
-0.00052389
-0.000622634
-0.000714548
-0.000800033
-0.000879466
-0.000953199
-0.00102157
-0.00108487
-0.00114341
-0.00119746
-0.00124727
-0.00129308
-0.00133512
-0.00137361
-0.00140875
-0.00144072
-0.00146972
-0.0014959
-0.00151942
-0.00154045
-0.00155912
-0.00157557
-0.00158993
-0.00160231
-0.00161283
-0.0016216
-0.00162872
-0.00163428
-0.00163837
-0.00164108
-0.00164249
-0.00164267
-0.00164169
-0.00163963
-0.00163655
-0.00163251
-0.00162756
-0.00162177
-0.00161519
-0.00160786
-0.00159983
-0.00159116
-0.00158187
-0.001572
-0.0015616
-0.0015507
-0.00153933
-0.00152753
-0.00151531
-0.00150272
-0.00148978
-0.00147651
-0.00146294
-0.00144909
-0.00143497
-0.00142062
-0.00140605
-0.00139128
-0.00137632
-0.00136119
-0.0013459
-0.00133048
-0.00131493
-0.00129927
-0.0012835
-0.00126765
-0.00125171
-0.0012357
-0.00121964
-0.00120352
-0.00118736
-0.00117116
-0.00115493
-0.00113868
-0.00112241
-0.00110612
-0.00108983
-0.00107354
-0.00105726
-0.00104098
-0.00102473
-0.00100848
-0.000992263
-0.000976065
-0.000959891
-0.000943746
-0.000927632
-0.000911554
-0.000895513
-0.000879511
-0.000863551
-0.000847633
-0.000831759
-0.00081593
-0.000800147
-0.000784412
-0.000768727
-0.000753092
-0.000737508
-0.000721974
-0.00070649
-0.000691054
-0.000675666
-0.000660328
-0.00064504
-0.000629803
-0.000614617
-0.000599483
-0.000584399
-0.000569364
-0.000554378
-0.000539439
-0.000524548
-0.000509703
-0.000494905
-0.000480152
-0.000465445
-0.000450782
-0.00043616
-0.00042158
-0.00040704
-0.00039254
-0.000378078
-0.000363655
-0.000349267
-0.000334915
-0.000320595
-0.000306306
-0.000292046
-0.000277814
-0.000263607
-0.000249426
-0.000235269
-0.000221136
-0.000207025
-0.000192937
-0.000178869
-0.000164821
-0.000150789
-0.000136772
-0.000122767
-0.000108773
-9.47866e-05
-8.0818e-05
-6.68217e-05
-5.29435e-05
-3.86211e-05
-2.54515e-05
-5.91893e-06
59.28
58.3752
58.9727
57.6713
52.1381
45.6739
41.6629
39.8892
39.56
39.9548
40.4251
40.8287
41.5292
42.729
44.444
46.5857
48.997
51.4397
53.6104
55.3697
56.7357
57.6663
58.1482
58.2894
58.1891
57.9005
57.462
56.8891
56.1902
55.3731
54.4461
53.4195
52.305
51.1152
49.8628
48.5598
47.2176
45.8462
44.4546
43.0506
41.6411
40.2323
38.8297
37.4383
36.0627
34.7071
33.375
32.0698
30.7942
29.5505
28.3405
27.1656
26.0268
24.9249
23.86
22.8324
21.8417
20.8877
19.9698
19.0874
18.2397
17.426
16.6452
15.8965
15.1789
14.4914
13.833
13.2028
12.5999
12.0231
11.4716
10.9445
10.4408
9.95972
9.50038
9.06193
8.64358
8.24454
7.86404
7.50133
7.1557
6.82644
6.51286
6.21429
5.93009
5.65962
5.40227
5.15746
4.9246
4.70317
4.49262
4.29246
4.10222
3.92143
3.74967
3.58651
3.43158
3.2845
3.1449
3.01246
2.88683
2.76773
2.65483
2.54786
2.44655
2.35062
2.25984
2.17396
2.09274
2.01599
1.94349
1.87503
1.81045
1.74955
1.69218
1.63817
1.58737
1.53963
1.49482
1.4528
1.41345
1.37663
1.34223
1.31014
1.28023
1.25239
1.22651
1.20248
1.1802
1.15954
1.1404
1.12266
1.10623
1.091
1.07684
1.06367
1.05137
1.03983
1.02897
1.01869
1.00888
0.999471
0.990372
0.981508
0.972805
0.964199
0.955631
0.947046
0.938398
0.929645
0.920754
0.911693
0.90244
0.892975
0.883285
0.873359
0.863191
0.85278
0.842126
0.831233
0.820107
0.808757
0.797193
0.785426
0.773469
0.761336
0.749043
0.736604
0.724036
0.711353
0.698573
0.68571
0.672782
0.659804
0.646791
0.633758
0.620719
0.607689
0.59468
0.581707
0.56878
0.555913
0.543115
0.530397
0.517769
0.50524
0.492819
0.480514
0.468331
0.456279
0.444363
0.432588
0.420961
0.409485
0.398165
0.387006
0.376009
0.365179
0.354518
0.344028
0.333711
0.323569
0.313604
0.303816
0.294206
0.284776
0.275526
0.266455
0.257565
0.248856
0.240327
0.231978
0.22381
0.215821
0.208012
0.200383
0.192932
0.18566
0.178566
0.17165
0.16491
0.158347
0.15196
0.145748
0.139711
0.133847
0.128156
0.122638
0.11729
0.112111
0.107101
0.102257
0.0975779
0.0930613
0.0887051
0.0845066
0.0804632
0.0765718
0.0728294
0.0692325
0.0657778
0.0624614
0.0592799
0.0562293
0.0533058
0.0505058
0.0478253
0.0452606
0.0428079
0.0404636
0.0382239
0.036085
0.0340433
0.032095
0.0302362
0.0284633
0.0267723
0.0251597
0.0236218
0.0221553
0.0207571
0.0194244
0.0181546
0.0169456
0.0157956
0.0147029
0.0136661
0.0126838
0.0117546
0.0108771
0.0100497
0.00927091
0.00853881
0.00785151
0.007207
0.00660318
0.00603792
0.00550909
0.00501458
0.0045523
0.00412025
0.0037165
0.00333921
0.00298664
0.00265715
0.0023492
0.00206137
0.00179232
0.0015408
0.00130566
0.00108582
0.0008803
0.000688168
0.000508572
0.000340719
0.000183873
3.73504e-05
-9.94853e-05
-0.000227226
-0.000346423
-0.00045759
-0.000561208
-0.000657723
-0.000747552
-0.000831088
-0.000908697
-0.000980722
-0.00104749
-0.00110929
-0.00116642
-0.00121914
-0.0012677
-0.00131235
-0.00135329
-0.00139074
-0.0014249
-0.00145596
-0.00148408
-0.00150944
-0.0015322
-0.0015525
-0.00157048
-0.00158628
-0.00160003
-0.00161183
-0.00162181
-0.00163006
-0.00163669
-0.00164178
-0.00164544
-0.00164773
-0.00164875
-0.00164855
-0.00164723
-0.00164484
-0.00164144
-0.0016371
-0.00163188
-0.00162582
-0.00161899
-0.00161142
-0.00160318
-0.00159428
-0.00158479
-0.00157474
-0.00156416
-0.00155309
-0.00154156
-0.0015296
-0.00151724
-0.00150452
-0.00149144
-0.00147805
-0.00146437
-0.00145041
-0.00143619
-0.00142174
-0.00140708
-0.00139222
-0.00137718
-0.00136198
-0.00134662
-0.00133113
-0.00131552
-0.00129979
-0.00128397
-0.00126806
-0.00125207
-0.00123602
-0.00121991
-0.00120375
-0.00118755
-0.00117131
-0.00115505
-0.00113876
-0.00112246
-0.00110615
-0.00108984
-0.00107352
-0.00105721
-0.00104092
-0.00102464
-0.00100838
-0.000992142
-0.000975928
-0.000959741
-0.000943584
-0.00092746
-0.000911372
-0.000895322
-0.000879312
-0.000863344
-0.000847419
-0.000831538
-0.000815703
-0.000799916
-0.000784177
-0.000768488
-0.00075285
-0.000737263
-0.000721727
-0.00070624
-0.000690803
-0.000675414
-0.000660076
-0.000644789
-0.000629554
-0.000614372
-0.000599241
-0.000584161
-0.00056913
-0.000554147
-0.000539212
-0.000524324
-0.000509483
-0.000494688
-0.00047994
-0.000465237
-0.000450577
-0.00043596
-0.000421384
-0.000406848
-0.000392352
-0.000377896
-0.000363477
-0.000349096
-0.000334749
-0.000320435
-0.000306153
-0.000291899
-0.000277672
-0.000263472
-0.000249296
-0.000235145
-0.000221018
-0.000206915
-0.000192833
-0.000178773
-0.000164731
-0.000150707
-0.000136697
-0.0001227
-0.000108714
-9.4735e-05
-8.07737e-05
-6.67846e-05
-5.29136e-05
-3.85988e-05
-2.54362e-05
-5.91591e-06
55.6151
54.8112
51.4203
46.9618
38.826
33.2128
30.9683
30.1778
30.8584
32.4277
33.421
33.464
33.798
34.8837
36.7487
39.278
42.29
45.4415
48.1145
50.1427
51.758
52.8868
53.4515
53.6792
53.7153
53.6006
53.3781
53.0412
52.5828
52.0021
51.3018
50.4899
49.5773
48.5769
47.5019
46.3653
45.1788
43.9531
42.6973
41.4196
40.1271
38.8261
37.5228
36.2225
34.9305
33.6516
32.39
31.1497
29.9341
28.7459
27.5874
26.4604
25.3663
24.306
23.28
22.2886
21.3319
20.4096
19.5214
18.6667
17.8449
17.0552
16.297
15.5693
14.8714
14.2022
13.561
12.9468
12.3587
11.7958
11.2573
10.7423
10.2499
9.77942
9.32998
8.90083
8.49119
8.10034
7.72754
7.3721
7.03332
6.71052
6.40305
6.11026
5.83152
5.56622
5.31377
5.07359
4.84512
4.62782
4.42118
4.22471
4.03794
3.86044
3.69177
3.53154
3.37937
3.23489
3.09777
2.96766
2.84426
2.72725
2.61635
2.51128
2.41176
2.31754
2.22838
2.14403
2.06427
1.98889
1.9177
1.85048
1.78707
1.72729
1.67097
1.61797
1.56813
1.5213
1.47737
1.43619
1.39765
1.36162
1.32798
1.29662
1.26744
1.24031
1.21513
1.1918
1.17019
1.1502
1.13173
1.11466
1.09888
1.08428
1.07076
1.0582
1.0465
1.03555
1.02525
1.0155
1.00621
0.997287
0.988643
0.980201
0.971889
0.96364
0.955393
0.947097
0.938703
0.930172
0.921469
0.912568
0.903445
0.894083
0.884469
0.874597
0.864462
0.854064
0.843406
0.832493
0.821334
0.809939
0.798319
0.786488
0.774461
0.762252
0.749877
0.737354
0.724698
0.711927
0.699057
0.686106
0.67309
0.660024
0.646926
0.633809
0.620689
0.607581
0.594497
0.581452
0.568456
0.555523
0.542663
0.529887
0.517204
0.504624
0.492154
0.479804
0.46758
0.45549
0.443538
0.431731
0.420074
0.408572
0.397228
0.386047
0.375031
0.364184
0.353507
0.343004
0.332676
0.322525
0.312551
0.302756
0.293141
0.283707
0.274453
0.26538
0.256489
0.247779
0.23925
0.230901
0.222734
0.214747
0.20694
0.199312
0.191864
0.184595
0.177504
0.170591
0.163855
0.157296
0.150913
0.144706
0.138674
0.132816
0.127132
0.121621
0.116281
0.111112
0.106112
0.101279
0.0966126
0.0921098
0.0877684
0.083586
0.0795597
0.0756866
0.0719632
0.0683863
0.0649522
0.061657
0.058497
0.0554683
0.052567
0.0497891
0.0471308
0.0445883
0.0421578
0.0398356
0.0376179
0.035501
0.0334813
0.0315547
0.0297175
0.0279657
0.0262954
0.0247027
0.0231837
0.021735
0.0203532
0.0190356