/*--------------------------------*- C++ -*----------------------------------*\
| =========                 |                                                 |
| \\      /  F ield         | OpenFOAM: The Open Source CFD Toolbox           |
|  \\    /   O peration     | Version:  v2006                                 |
|   \\  /    A nd           | Website:  www.openfoam.com                      |
|    \\/     M anipulation  |                                                 |
\*---------------------------------------------------------------------------*/
FoamFile
{
    version     2.0;
    format      ascii;
    class       volScalarField;
    location    "10.4";
    object      p_rgh;
}
// * * * * * * * * * * * * * * * * * * * * * * * * * * * * * * * * * * * * * //

dimensions      [1 -1 -2 0 0 0 0];


internalField   nonuniform List<scalar> 
150000
(
-2600.35
-2600.37
-2600.37
-2600.31
-2600.21
-2600.07
-2599.92
-2599.73
-2599.53
-2599.3
-2599.05
-2598.77
-2598.47
-2598.14
-2597.78
-2597.4
-2596.98
-2596.54
-2596.06
-2595.55
-2595.02
-2594.45
-2593.85
-2593.21
-2592.55
-2591.85
-2591.11
-2590.34
-2589.53
-2588.68
-2587.79
-2586.85
-2585.87
-2584.84
-2583.77
-2582.64
-2581.45
-2580.2
-2578.88
-2577.5
-2576.04
-2574.51
-2572.89
-2571.19
-2569.39
-2567.51
-2565.52
-2563.43
-2561.24
-2558.93
-2556.51
-2553.98
-2551.32
-2548.53
-2545.61
-2542.54
-2539.33
-2535.97
-2532.44
-2528.74
-2524.88
-2520.85
-2516.66
-2512.29
-2507.76
-2503.05
-2498.18
-2493.13
-2487.9
-2482.5
-2476.92
-2471.14
-2465.19
-2459.03
-2452.69
-2446.14
-2439.4
-2432.45
-2425.3
-2417.95
-2410.4
-2402.64
-2394.67
-2386.5
-2378.13
-2369.54
-2360.76
-2351.76
-2342.56
-2333.15
-2323.53
-2313.7
-2303.65
-2293.39
-2282.9
-2272.19
-2261.25
-2250.06
-2238.63
-2226.95
-2215.01
-2202.81
-2190.33
-2177.57
-2164.52
-2151.17
-2137.5
-2123.51
-2109.2
-2094.55
-2079.55
-2064.21
-2048.5
-2032.4
-2015.91
-1998.98
-1981.6
-1963.73
-1945.36
-1926.48
-1907.08
-1887.16
-1866.72
-1845.73
-1824.2
-1802.1
-1779.43
-1756.18
-1732.32
-1707.86
-1682.78
-1657.07
-1630.73
-1603.75
-1576.12
-1547.84
-1518.9
-1489.31
-1459.05
-1428.12
-1396.53
-1364.28
-1331.36
-1297.78
-1263.54
-1228.65
-1193.11
-1156.93
-1120.12
-1082.7
-1044.7
-1006.12
-966.989
-927.308
-887.081
-846.306
-804.984
-763.132
-720.844
-678.153
-635.028
-591.454
-547.458
-503.085
-458.419
-413.493
-368.345
-323.004
-277.493
-231.829
-186.032
-140.126
-94.1362
-48.0924
-2.02856
44.0116
89.9838
135.849
181.575
227.129
272.481
317.598
362.447
406.995
451.211
495.063
538.522
581.557
624.14
666.241
707.835
748.893
789.391
829.305
868.611
907.286
945.312
982.666
1019.33
1055.29
1090.53
1125.03
1158.78
1191.77
1223.99
1255.42
1286.06
1315.9
1344.94
1373.16
1400.56
1427.14
1452.9
1477.82
1501.91
1525.17
1547.6
1569.2
1589.98
1609.94
1629.08
1647.43
1665
1681.8
1697.91
1713.44
1728.15
1742.13
1755.4
1767.92
1779.6
1790.32
1799.96
1808.53
1816.09
1822.99
1829.54
1835.9
1842.05
1847.67
1852.63
1856.92
1860.61
1863.81
1866.57
1868.89
1870.74
1872.09
1872.96
1873.4
1873.45
1873.14
1872.47
1871.42
1869.97
1868.08
1865.75
1863
1859.85
1856.34
1852.5
1848.34
1843.88
1839.13
1834.1
1828.81
1823.27
1817.53
1811.63
1805.59
1799.44
1793.16
1786.75
1780.19
1773.46
1766.57
1759.53
1752.34
1745.02
1737.59
1730.05
1722.4
1714.63
1706.75
1698.76
1690.66
1682.47
1674.2
1665.84
1657.41
1648.92
1640.38
1631.78
1623.15
1614.49
1605.79
1597.07
1588.34
1579.61
1570.88
1562.16
1553.47
1544.82
1536.22
1527.68
1519.21
1510.83
1502.55
1494.37
1486.31
1478.39
1470.61
1462.98
1455.53
1448.26
1441.19
1434.33
1427.7
1421.3
1415.16
1409.29
1403.69
1398.39
1393.38
1388.69
1384.32
1380.28
1376.58
1373.23
1370.25
1367.64
1365.41
1363.56
1362.12
1361.08
1360.45
1360.24
1360.46
1361.12
1362.21
1363.75
1365.73
1368.18
1371.08
1374.45
1378.29
1382.61
1387.41
1392.69
1398.45
1404.71
1411.46
1418.72
1426.47
1434.73
1443.5
1452.79
1462.59
1472.92
1483.77
1495.16
1507.08
1519.54
1532.54
1546.09
1560.19
1574.85
1590.06
1605.83
1622.17
1639.07
1656.54
1674.59
1693.22
1712.42
1732.22
1752.6
1773.57
1795.13
1817.3
1840.06
1863.42
1887.39
1911.96
1937.13
1962.91
1989.29
2016.27
2043.86
2072.04
2100.82
2130.2
2160.16
2190.71
2221.85
2253.57
2285.86
2318.73
2352.17
2386.17
2420.72
2455.83
2491.48
2527.67
2564.38
2601.61
2639.36
2677.6
2716.33
2755.54
2795.21
2835.34
2875.91
2916.91
2958.32
3000.14
3042.33
3084.89
3127.8
3171.04
3214.6
3258.46
3302.61
3347.07
3391.81
3436.85
3482.15
3527.7
3573.47
3619.43
3665.57
3711.88
3758.33
3804.91
3851.61
3898.41
3945.3
3992.26
4039.28
4086.32
4133.38
4180.44
4227.46
4274.44
4321.34
4368.16
4414.85
4461.4
4507.79
4553.98
4599.95
4645.68
4691.15
4736.33
4781.23
4825.77
4869.94
4913.72
4957.06
4999.93
5042.31
5084.15
5125.43
5166.11
5206.16
5245.55
5284.24
5322.19
5359.39
5395.79
5431.37
5466.09
5499.93
5532.88
5564.86
5595.88
5625.9
5654.9
5682.84
5709.71
5735.47
5760.1
5783.58
5805.89
5827.01
5846.91
5865.57
5882.98
5899.12
5913.98
5927.53
5939.77
5950.68
5960.25
5968.47
5975.33
5980.82
5984.93
5987.65
5989.03
-2600.37
-2600.41
-2600.4
-2600.33
-2600.23
-2600.1
-2599.94
-2599.76
-2599.56
-2599.33
-2599.08
-2598.8
-2598.5
-2598.17
-2597.81
-2597.43
-2597.01
-2596.57
-2596.09
-2595.59
-2595.05
-2594.48
-2593.88
-2593.25
-2592.58
-2591.88
-2591.14
-2590.37
-2589.56
-2588.71
-2587.83
-2586.89
-2585.92
-2584.89
-2583.82
-2582.69
-2581.51
-2580.27
-2578.96
-2577.58
-2576.13
-2574.6
-2572.99
-2571.29
-2569.5
-2567.62
-2565.64
-2563.55
-2561.36
-2559.06
-2556.64
-2554.11
-2551.45
-2548.67
-2545.75
-2542.69
-2539.49
-2536.14
-2532.63
-2528.95
-2525.1
-2521.09
-2516.9
-2512.54
-2508
-2503.3
-2498.42
-2493.37
-2488.14
-2482.74
-2477.15
-2471.38
-2465.43
-2459.28
-2452.93
-2446.39
-2439.65
-2432.7
-2425.56
-2418.21
-2410.65
-2402.89
-2394.93
-2386.76
-2378.38
-2369.8
-2361.01
-2352.02
-2342.82
-2333.4
-2323.78
-2313.95
-2303.9
-2293.64
-2283.15
-2272.44
-2261.49
-2250.31
-2238.89
-2227.21
-2215.28
-2203.09
-2190.62
-2177.88
-2164.84
-2151.5
-2137.86
-2123.89
-2109.59
-2094.95
-2079.96
-2064.61
-2048.89
-2032.78
-2016.27
-1999.32
-1981.92
-1964.04
-1945.67
-1926.8
-1907.41
-1887.51
-1867.07
-1846.1
-1824.58
-1802.5
-1779.84
-1756.59
-1732.75
-1708.29
-1683.22
-1657.52
-1631.19
-1604.21
-1576.59
-1548.31
-1519.38
-1489.78
-1459.52
-1428.6
-1397.01
-1364.75
-1331.83
-1298.24
-1264
-1229.1
-1193.56
-1157.38
-1120.58
-1083.16
-1045.15
-1006.57
-967.415
-927.706
-887.448
-846.649
-805.334
-763.533
-721.23
-678.444
-635.221
-591.595
-547.587
-503.235
-458.551
-413.61
-368.456
-323.116
-277.604
-231.937
-186.133
-140.213
-94.2032
-48.1371
-2.04479
44.0251
90.026
135.918
181.668
227.247
272.623
317.764
362.636
407.207
451.445
495.319
538.799
581.855
624.457
666.577
708.188
749.264
789.778
829.708
869.028
907.719
945.758
983.126
1019.8
1055.78
1091.03
1125.54
1159.3
1192.3
1224.53
1255.97
1286.62
1316.46
1345.5
1373.73
1401.13
1427.71
1453.46
1478.39
1502.48
1525.74
1548.17
1569.77
1590.54
1610.5
1629.63
1647.94
1665.46
1682.17
1698.05
1713.04
1727.39
1741.1
1754.16
1766.63
1778.5
1789.68
1799.98
1809.18
1817.38
1824.59
1831.07
1837.15
1842.99
1848.35
1853.19
1857.5
1861.26
1864.51
1867.24
1869.48
1871.23
1872.51
1873.34
1873.77
1873.83
1873.52
1872.83
1871.74
1870.22
1868.25
1865.82
1862.98
1859.76
1856.2
1852.33
1848.18
1843.77
1839.09
1834.16
1828.98
1823.57
1817.94
1812.11
1806.09
1799.91
1793.58
1787.1
1780.48
1773.71
1766.79
1759.74
1752.53
1745.21
1737.77
1730.21
1722.54
1714.75
1706.86
1698.86
1690.76
1682.57
1674.29
1665.93
1657.51
1649.02
1640.48
1631.89
1623.25
1614.58
1605.88
1597.15
1588.41
1579.67
1570.93
1562.2
1553.5
1544.84
1536.23
1527.68
1519.2
1510.8
1502.5
1494.31
1486.23
1478.29
1470.49
1462.85
1455.38
1448.1
1441.01
1434.14
1427.5
1421.1
1414.96
1409.08
1403.47
1398.16
1393.14
1388.44
1384.06
1380.01
1376.3
1372.94
1369.95
1367.33
1365.09
1363.24
1361.79
1360.74
1360.1
1359.89
1360.1
1360.75
1361.84
1363.37
1365.35
1367.79
1370.69
1374.06
1377.9
1382.21
1387
1392.28
1398.04
1404.3
1411.05
1418.3
1426.05
1434.31
1443.08
1452.36
1462.16
1472.48
1483.33
1494.72
1506.64
1519.1
1532.1
1545.65
1559.74
1574.38
1589.58
1605.34
1621.67
1638.56
1656.03
1674.07
1692.69
1711.9
1731.69
1752.07
1773.04
1794.61
1816.77
1839.54
1862.9
1886.86
1911.43
1936.61
1962.38
1988.76
2015.74
2043.33
2071.51
2100.29
2129.66
2159.62
2190.17
2221.31
2253.03
2285.32
2318.19
2351.63
2385.63
2420.19
2455.3
2490.95
2527.14
2563.86
2601.1
2638.84
2677.09
2715.83
2755.04
2794.72
2834.85
2875.43
2916.43
2957.85
2999.67
3041.88
3084.45
3127.38
3170.64
3214.23
3258.13
3302.32
3346.81
3391.58
3436.63
3481.94
3527.5
3573.27
3619.24
3665.39
3711.71
3758.18
3804.77
3851.49
3898.31
3945.22
3992.2
4039.22
4086.29
4133.36
4180.43
4227.47
4274.46
4321.39
4368.22
4414.93
4461.51
4507.91
4554.12
4600.12
4645.87
4691.37
4736.57
4781.48
4826.04
4870.24
4914.05
4957.42
5000.32
5042.72
5084.59
5125.89
5166.6
5206.67
5246.08
5284.79
5322.77
5359.99
5396.42
5432.02
5466.77
5500.64
5533.59
5565.6
5596.63
5626.67
5655.68
5683.64
5710.52
5736.3
5760.95
5784.44
5806.77
5827.89
5847.8
5866.48
5883.9
5900.05
5914.92
5928.48
5940.72
5951.64
5961.21
5969.44
5976.31
5981.8
5985.91
5988.6
5990.01
-2600.43
-2600.48
-2600.46
-2600.39
-2600.28
-2600.15
-2600
-2599.82
-2599.62
-2599.4
-2599.15
-2598.87
-2598.57
-2598.24
-2597.89
-2597.5
-2597.08
-2596.64
-2596.16
-2595.66
-2595.12
-2594.55
-2593.95
-2593.32
-2592.65
-2591.95
-2591.21
-2590.44
-2589.63
-2588.79
-2587.9
-2586.97
-2586
-2584.98
-2583.91
-2582.78
-2581.6
-2580.36
-2579.05
-2577.67
-2576.23
-2574.71
-2573.1
-2571.41
-2569.63
-2567.76
-2565.79
-2563.71
-2561.53
-2559.24
-2556.83
-2554.31
-2551.66
-2548.88
-2545.97
-2542.92
-2539.72
-2536.37
-2532.86
-2529.19
-2525.35
-2521.35
-2517.17
-2512.83
-2508.31
-2503.63
-2498.77
-2493.73
-2488.52
-2483.13
-2477.56
-2471.8
-2465.85
-2459.71
-2453.37
-2446.83
-2440.1
-2433.16
-2426.02
-2418.67
-2411.12
-2403.36
-2395.4
-2387.23
-2378.86
-2370.28
-2361.49
-2352.5
-2343.3
-2333.89
-2324.27
-2314.44
-2304.39
-2294.13
-2283.64
-2272.93
-2261.99
-2250.82
-2239.4
-2227.74
-2215.82
-2203.64
-2191.19
-2178.46
-2165.44
-2152.12
-2138.5
-2124.55
-2110.27
-2095.65
-2080.67
-2065.34
-2049.62
-2033.51
-2016.99
-2000.04
-1982.64
-1964.77
-1946.42
-1927.57
-1908.2
-1888.32
-1867.91
-1846.96
-1825.45
-1803.38
-1780.74
-1757.5
-1733.67
-1709.22
-1684.16
-1658.47
-1632.14
-1605.18
-1577.56
-1549.29
-1520.35
-1490.76
-1460.5
-1429.57
-1397.98
-1365.71
-1332.79
-1299.19
-1264.94
-1230.04
-1194.48
-1158.29
-1121.47
-1084.04
-1046.01
-1007.39
-968.195
-928.443
-888.144
-847.311
-805.962
-764.113
-721.775
-678.98
-635.765
-592.149
-548.139
-503.748
-459.026
-414.042
-368.837
-323.438
-277.865
-232.135
-186.261
-140.279
-94.2082
-48.0842
-1.95318
44.1487
90.1824
136.113
181.907
227.531
272.951
318.136
363.051
407.665
451.946
495.862
539.383
582.479
625.12
667.278
708.926
750.037
790.586
830.548
869.9
908.621
946.688
984.083
1020.79
1056.78
1092.05
1126.58
1160.36
1193.37
1225.6
1257.05
1287.7
1317.56
1346.6
1374.83
1402.24
1428.82
1454.58
1479.51
1503.6
1526.87
1549.3
1570.9
1591.67
1611.63
1630.78
1649.15
1666.74
1683.59
1699.65
1714.98
1729.58
1743.46
1756.62
1769.02
1780.6
1791.28
1801.04
1809.88
1817.91
1825.17
1831.78
1837.91
1843.36
1848.35
1853.25
1857.69
1861.6
1864.96
1867.76
1870
1871.71
1872.93
1873.7
1874.06
1874.07
1873.73
1873.04
1871.97
1870.49
1868.58
1866.22
1863.43
1860.25
1856.7
1852.84
1848.66
1844.21
1839.49
1834.51
1829.29
1823.85
1818.19
1812.34
1806.33
1800.15
1793.82
1787.33
1780.7
1773.92
1766.99
1759.91
1752.72
1745.39
1737.94
1730.37
1722.69
1714.89
1706.99
1698.98
1690.88
1682.68
1674.4
1666.04
1657.61
1649.11
1640.55
1631.94
1623.29
1614.6
1605.88
1597.14
1588.38
1579.62
1570.86
1562.12
1553.41
1544.73
1536.1
1527.53
1519.04
1510.62
1502.31
1494.1
1486.01
1478.05
1470.24
1462.58
1455.1
1447.8
1440.7
1433.82
1427.16
1420.74
1414.58
1408.68
1403.06
1397.72
1392.69
1387.97
1383.57
1379.51
1375.79
1372.42
1369.41
1366.78
1364.53
1362.66
1361.2
1360.14
1359.5
1359.27
1359.48
1360.12
1361.19
1362.72
1364.69
1367.13
1370.02
1373.38
1377.21
1381.52
1386.31
1391.58
1397.34
1403.59
1410.33
1417.57
1425.32
1433.57
1442.34
1451.62
1461.41
1471.72
1482.56
1493.94
1505.85
1518.3
1531.28
1544.82
1558.9
1573.53
1588.73
1604.48
1620.8
1637.69
1655.15
1673.19
1691.8
1711
1730.79
1751.17
1772.13
1793.7
1815.86
1838.62
1861.98
1885.94
1910.5
1935.67
1961.44
1987.82
2014.8
2042.38
2070.56
2099.33
2128.71
2158.67
2189.22
2220.36
2252.08
2284.38
2317.25
2350.68
2384.69
2419.25
2454.36
2490.02
2526.21
2562.93
2600.18
2637.93
2676.18
2714.92
2754.14
2793.83
2833.97
2874.55
2915.56
2956.99
2998.82
3041.03
3083.62
3126.57
3169.85
3213.47
3257.4
3301.64
3346.17
3390.98
3436.06
3481.4
3526.98
3572.77
3618.77
3664.95
3711.3
3757.8
3804.44
3851.2
3898.05
3945
3992.01
4039.07
4086.17
4133.28
4180.38
4227.46
4274.49
4321.45
4368.32
4415.08
4461.69
4508.15
4554.41
4600.46
4646.28
4691.83
4737.1
4782.05
4826.67
4870.91
4914.75
4958.17
5001.11
5043.56
5085.48
5126.83
5167.58
5207.7
5247.14
5285.89
5323.91
5361.17
5397.63
5433.26
5468.05
5501.94
5534.92
5566.95
5598.01
5628.08
5657.11
5685.1
5712
5737.8
5762.47
5785.98
5808.32
5829.47
5849.4
5868.09
5885.53
5901.7
5916.58
5930.16
5942.42
5953.35
5962.94
5971.17
5978.04
5983.53
5987.63
5990.29
5991.71
-2600.55
-2600.6
-2600.59
-2600.51
-2600.41
-2600.28
-2600.13
-2599.96
-2599.76
-2599.53
-2599.28
-2599
-2598.7
-2598.36
-2598
-2597.61
-2597.19
-2596.74
-2596.27
-2595.76
-2595.22
-2594.64
-2594.04
-2593.4
-2592.74
-2592.04
-2591.3
-2590.53
-2589.72
-2588.88
-2588
-2587.07
-2586.1
-2585.08
-2584.02
-2582.9
-2581.73
-2580.51
-2579.21
-2577.84
-2576.4
-2574.89
-2573.29
-2571.61
-2569.84
-2567.97
-2566.01
-2563.95
-2561.77
-2559.49
-2557.1
-2554.58
-2551.94
-2549.17
-2546.27
-2543.23
-2540.05
-2536.71
-2533.22
-2529.57
-2525.76
-2521.78
-2517.63
-2513.31
-2508.82
-2504.14
-2499.31
-2494.29
-2489.1
-2483.72
-2478.16
-2472.41
-2466.48
-2460.34
-2454.01
-2447.48
-2440.75
-2433.82
-2426.68
-2419.34
-2411.79
-2404.04
-2396.08
-2387.91
-2379.54
-2370.96
-2362.18
-2353.18
-2343.99
-2334.58
-2324.96
-2315.13
-2305.09
-2294.83
-2284.36
-2273.66
-2262.73
-2251.56
-2240.16
-2228.51
-2216.61
-2204.45
-2192.02
-2179.31
-2166.32
-2153.03
-2139.43
-2125.51
-2111.25
-2096.66
-2081.71
-2066.4
-2050.7
-2034.6
-2018.1
-2001.15
-1983.76
-1965.91
-1947.57
-1928.74
-1909.4
-1889.54
-1869.15
-1848.22
-1826.74
-1804.69
-1782.07
-1758.85
-1735.04
-1710.61
-1685.56
-1659.89
-1633.57
-1606.62
-1579.01
-1550.74
-1521.82
-1492.22
-1461.97
-1431.04
-1399.44
-1367.17
-1334.23
-1300.62
-1266.36
-1231.44
-1195.87
-1159.67
-1122.83
-1085.38
-1047.33
-1008.68
-969.454
-929.653
-889.292
-848.389
-806.962
-765.028
-722.61
-679.732
-636.422
-592.707
-548.616
-504.196
-459.485
-414.505
-369.289
-323.858
-278.231
-232.435
-186.497
-140.438
-94.3
-48.1118
-1.91234
44.2588
90.3625
136.363
182.226
227.919
273.409
318.661
363.644
408.324
452.67
496.649
540.232
583.388
626.088
668.303
710.005
751.169
791.769
831.779
871.178
909.943
948.052
985.486
1022.23
1058.26
1093.56
1128.12
1161.92
1194.96
1227.22
1258.69
1289.36
1319.23
1348.29
1376.53
1403.95
1430.54
1456.31
1481.24
1505.33
1528.59
1551.02
1572.62
1593.39
1613.33
1632.46
1650.77
1668.3
1685.09
1700.98
1716.09
1730.46
1744.11
1757.07
1769.35
1780.9
1791.66
1801.64
1810.73
1819.22
1826.92
1833.79
1840.38
1845.99
1851.33
1855.89
1859.97
1863.57
1866.67
1869.28
1871.41
1873.05
1874.22
1874.94
1875.24
1875.15
1874.68
1873.84
1872.63
1871.02
1868.99
1866.54
1863.68
1860.45
1856.87
1852.99
1848.81
1844.37
1839.68
1834.73
1829.55
1824.14
1818.52
1812.7
1806.7
1800.53
1794.19
1787.7
1781.05
1774.26
1767.31
1760.23
1753.02
1745.68
1738.22
1730.63
1722.94
1715.13
1707.21
1699.19
1691.07
1682.86
1674.57
1666.19
1657.74
1649.23
1640.66
1632.03
1623.36
1614.65
1605.9
1597.14
1588.36
1579.57
1570.79
1562.03
1553.29
1544.58
1535.93
1527.33
1518.8
1510.36
1502.01
1493.77
1485.65
1477.66
1469.82
1462.13
1454.62
1447.3
1440.17
1433.26
1426.58
1420.14
1413.95
1408.03
1402.38
1397.03
1391.97
1387.23
1382.81
1378.73
1374.98
1371.6
1368.57
1365.92
1363.65
1361.77
1360.3
1359.22
1358.57
1358.33
1358.53
1359.15
1360.22
1361.74
1363.71
1366.13
1369.02
1372.37
1376.2
1380.5
1385.28
1390.54
1396.29
1402.54
1409.27
1416.51
1424.25
1432.5
1441.26
1450.53
1460.31
1470.61
1481.4
1492.81
1504.72
1517.16
1530.14
1543.66
1557.73
1572.36
1587.54
1603.28
1619.59
1636.47
1653.92
1671.94
1690.55
1709.73
1729.51
1749.87
1770.83
1792.38
1814.53
1837.28
1860.62
1884.58
1909.13
1934.29
1960.05
1986.42
2013.39
2040.97
2069.14
2097.91
2127.28
2157.25
2187.8
2218.94
2250.66
2282.96
2315.83
2349.27
2383.28
2417.85
2452.96
2488.63
2524.83
2561.56
2598.81
2636.58
2674.84
2713.59
2752.83
2792.53
2832.69
2873.29
2914.32
2955.77
2997.62
3039.86
3082.47
3125.45
3168.77
3212.43
3256.4
3300.68
3345.25
3390.11
3435.24
3480.62
3526.24
3572.07
3618.11
3664.34
3710.73
3757.28
3803.96
3850.76
3897.67
3944.66
3991.72
4038.83
4085.98
4133.14
4180.29
4227.43
4274.51
4321.53
4368.45
4415.27
4461.95
4508.47
4554.8
4600.93
4646.81
4692.44
4737.78
4782.81
4827.49
4871.8
4915.72
4959.2
5002.22
5044.74
5086.73
5128.15
5168.96
5209.15
5248.66
5287.47
5325.55
5362.87
5399.4
5435.09
5469.93
5503.88
5536.91
5569
5600.11
5630.22
5659.3
5687.33
5714.28
5740.11
5764.82
5788.37
5810.75
5831.93
5851.89
5870.61
5888.08
5904.27
5919.17
5932.77
5945.05
5955.99
5965.59
5973.83
5980.71
5986.21
5990.32
5993
5994.42
-2600.71
-2600.76
-2600.74
-2600.68
-2600.58
-2600.45
-2600.3
-2600.12
-2599.91
-2599.68
-2599.43
-2599.14
-2598.83
-2598.49
-2598.13
-2597.73
-2597.31
-2596.85
-2596.37
-2595.86
-2595.31
-2594.74
-2594.13
-2593.5
-2592.83
-2592.13
-2591.39
-2590.62
-2589.82
-2588.98
-2588.1
-2587.18
-2586.21
-2585.2
-2584.15
-2583.04
-2581.87
-2580.63
-2579.34
-2578
-2576.57
-2575.07
-2573.5
-2571.83
-2570.08
-2568.23
-2566.28
-2564.24
-2562.08
-2559.82
-2557.44
-2554.94
-2552.31
-2549.56
-2546.67
-2543.65
-2540.48
-2537.16
-2533.69
-2530.06
-2526.27
-2522.32
-2518.2
-2513.91
-2509.44
-2504.81
-2499.99
-2495
-2489.83
-2484.48
-2478.94
-2473.21
-2467.29
-2461.17
-2454.85
-2448.33
-2441.62
-2434.69
-2427.56
-2420.23
-2412.69
-2404.94
-2396.98
-2388.82
-2380.45
-2371.87
-2363.09
-2354.1
-2344.91
-2335.5
-2325.89
-2316.07
-2306.03
-2295.79
-2285.32
-2274.63
-2263.71
-2252.56
-2241.18
-2229.55
-2217.67
-2205.53
-2193.12
-2180.44
-2167.47
-2154.21
-2140.64
-2126.75
-2112.53
-2097.96
-2083.04
-2067.75
-2052.08
-2036.01
-2019.53
-2002.61
-1985.25
-1967.42
-1949.11
-1930.31
-1911.01
-1891.18
-1870.83
-1849.93
-1828.47
-1806.45
-1783.85
-1760.66
-1736.87
-1712.47
-1687.44
-1661.78
-1635.49
-1608.54
-1580.94
-1552.69
-1523.77
-1494.18
-1463.92
-1432.99
-1401.38
-1369.1
-1336.15
-1302.54
-1268.25
-1233.31
-1197.72
-1161.48
-1124.61
-1087.11
-1049.01
-1010.31
-971.023
-931.168
-890.758
-849.808
-808.336
-766.363
-723.907
-680.99
-637.64
-593.882
-549.744
-505.253
-460.439
-415.341
-369.997
-324.44
-278.697
-232.789
-186.741
-140.582
-94.3451
-48.0648
-1.77762
44.4796
90.6707
136.76
182.714
228.498
274.077
319.419
364.49
409.257
453.688
497.751
541.415
584.65
627.426
669.715
711.49
752.722
793.388
833.462
872.921
911.743
949.906
987.392
1024.18
1060.25
1095.6
1130.2
1164.03
1197.1
1229.39
1260.88
1291.58
1321.46
1350.53
1378.78
1406.21
1432.81
1458.57
1483.5
1507.6
1530.85
1553.28
1574.87
1595.63
1615.57
1634.69
1653.03
1670.62
1687.7
1703.66
1718.9
1733.42
1747.22
1760.32
1772.72
1784.15
1794.51
1804.11
1813.08
1821.02
1828.33
1835.11
1841.05
1846.88
1852.12
1856.89
1861.12
1864.82
1867.98
1870.61
1872.72
1874.33
1875.47
1876.16
1876.43
1876.29
1875.76
1874.84
1873.54
1871.83
1869.74
1867.24
1864.38
1861.15
1857.59
1853.72
1849.56
1845.11
1840.39
1835.42
1830.21
1824.77
1819.13
1813.28
1807.25
1801.05
1794.69
1788.17
1781.5
1774.69
1767.73
1760.63
1753.4
1746.05
1738.57
1730.97
1723.25
1715.42
1707.49
1699.45
1691.32
1683.09
1674.78
1666.38
1657.92
1649.38
1640.78
1632.13
1623.43
1614.69
1605.92
1597.12
1588.31
1579.49
1570.68
1561.88
1553.1
1544.36
1535.67
1527.04
1518.48
1510
1501.62
1493.34
1485.19
1477.16
1469.29
1461.57
1454.03
1446.67
1439.51
1432.57
1425.85
1419.38
1413.15
1407.2
1401.52
1396.13
1391.05
1386.28
1381.83
1377.71
1373.95
1370.53
1367.49
1364.81
1362.52
1360.62
1359.13
1358.04
1357.36
1357.11
1357.29
1357.91
1358.96
1360.47
1362.42
1364.83
1367.71
1371.06
1374.87
1379.16
1383.93
1389.19
1394.93
1401.17
1407.9
1415.13
1422.86
1431.1
1439.84
1449.11
1458.89
1469.2
1480.06
1491.37
1503.25
1515.67
1528.63
1542.14
1556.2
1570.81
1585.98
1601.7
1618
1634.86
1652.29
1670.3
1688.89
1708.06
1727.82
1748.17
1769.11
1790.64
1812.77
1835.51
1858.84
1882.78
1907.32
1932.47
1958.22
1984.58
2011.54
2039.1
2067.27
2096.03
2125.4
2155.36
2185.91
2217.05
2248.77
2281.07
2313.95
2347.4
2381.42
2415.99
2451.12
2486.8
2523.01
2559.76
2597.02
2634.8
2673.08
2711.86
2751.11
2790.84
2831.02
2871.65
2912.71
2954.19
2996.07
3038.35
3081.01
3124.02
3167.39
3211.09
3255.12
3299.45
3344.08
3388.99
3434.17
3479.61
3525.27
3571.16
3617.26
3663.54
3709.99
3756.59
3803.33
3850.19
3897.16
3944.21
3991.33
4038.51
4085.72
4132.94
4180.16
4227.36
4274.52
4321.6
4368.61
4415.5
4462.26
4508.86
4555.28
4601.49
4647.47
4693.19
4738.62
4783.75
4828.52
4872.93
4916.94
4960.51
5003.62
5046.23
5088.31
5129.82
5170.73
5211
5250.61
5289.51
5327.68
5365.08
5401.69
5437.46
5472.38
5506.4
5539.51
5571.67
5602.85
5633.02
5662.16
5690.25
5717.25
5743.14
5767.89
5791.49
5813.91
5835.13
5855.13
5873.89
5891.39
5907.61
5922.54
5936.16
5948.46
5959.42
5969.04
5977.29
5984.18
5989.69
5993.82
5996.5
5997.93
-2600.9
-2600.95
-2600.95
-2600.89
-2600.79
-2600.66
-2600.5
-2600.31
-2600.1
-2599.87
-2599.6
-2599.31
-2599
-2598.65
-2598.28
-2597.88
-2597.45
-2596.99
-2596.5
-2595.98
-2595.44
-2594.86
-2594.25
-2593.62
-2592.95
-2592.25
-2591.52
-2590.75
-2589.95
-2589.11
-2588.24
-2587.33
-2586.37
-2585.37
-2584.32
-2583.22
-2582.07
-2580.85
-2579.59
-2578.24
-2576.83
-2575.35
-2573.78
-2572.14
-2570.4
-2568.57
-2566.64
-2564.62
-2562.48
-2560.24
-2557.88
-2555.39
-2552.79
-2550.06
-2547.19
-2544.19
-2541.04
-2537.75
-2534.3
-2530.7
-2526.94
-2523.02
-2518.93
-2514.67
-2510.24
-2505.63
-2500.85
-2495.89
-2490.75
-2485.42
-2479.9
-2474.19
-2468.29
-2462.19
-2455.89
-2449.39
-2442.68
-2435.77
-2428.65
-2421.33
-2413.79
-2406.05
-2398.1
-2389.94
-2381.58
-2373
-2364.23
-2355.24
-2346.05
-2336.65
-2327.04
-2317.23
-2307.2
-2296.96
-2286.51
-2275.83
-2264.93
-2253.81
-2242.44
-2230.84
-2218.98
-2206.87
-2194.5
-2181.85
-2168.91
-2155.68
-2142.15
-2128.3
-2114.11
-2099.59
-2084.71
-2069.45
-2053.82
-2037.78
-2021.33
-2004.45
-1987.11
-1969.32
-1951.05
-1932.29
-1913.02
-1893.23
-1872.91
-1852.05
-1830.64
-1808.65
-1786.08
-1762.93
-1739.16
-1714.79
-1689.78
-1664.15
-1637.87
-1610.95
-1583.36
-1555.12
-1526.2
-1496.62
-1466.36
-1435.43
-1403.81
-1371.53
-1338.56
-1304.92
-1270.62
-1235.65
-1200.03
-1163.76
-1126.85
-1089.32
-1051.17
-1012.42
-973.075
-933.152
-892.666
-851.632
-810.069
-767.996
-725.436
-682.413
-638.954
-595.089
-550.846
-506.26
-461.364
-416.189
-370.764
-325.115
-279.269
-233.253
-187.097
-140.829
-94.4834
-48.093
-1.69362
44.678
90.9849
137.191
183.261
229.16
274.855
320.31
365.493
410.37
454.909
499.078
542.846
586.182
629.057
671.441
713.307
754.629
795.38
835.535
875.072
913.968
952.201
989.752
1026.6
1062.73
1098.13
1132.78
1166.66
1199.77
1232.1
1263.63
1294.35
1324.26
1353.36
1381.63
1409.07
1435.67
1461.44
1486.38
1510.47
1533.72
1556.14
1577.72
1598.47
1618.39
1637.48
1655.71
1673.05
1689.32
1705.16
1720.19
1734.42
1747.88
1760.57
1772.48
1783.86
1794.8
1804.96
1814.28
1822.85
1830.63
1837.74
1844.1
1849.88
1855.06
1859.65
1863.68
1867.19
1870.19
1872.68
1874.69
1876.22
1877.27
1877.88
1878.06
1877.82
1877.18
1876.15
1874.74
1872.94
1870.76
1868.2
1865.27
1862
1858.39
1854.47
1850.26
1845.77
1841.03
1836.04
1830.81
1825.37
1819.72
1813.87
1807.84
1801.64
1795.27
1788.74
1782.06
1775.23
1768.25
1761.13
1753.88
1746.5
1739
1731.38
1723.65
1715.8
1707.84
1699.78
1691.63
1683.38
1675.04
1666.62
1658.13
1649.56
1640.93
1632.25
1623.52
1614.75
1605.94
1597.11
1588.26
1579.4
1570.55
1561.71
1552.9
1544.12
1535.38
1526.7
1518.1
1509.57
1501.14
1492.82
1484.61
1476.54
1468.62
1460.86
1453.27
1445.86
1438.66
1431.68
1424.92
1418.4
1412.14
1406.14
1400.42
1395
1389.87
1385.06
1380.58
1376.43
1372.63
1369.19
1366.11
1363.41
1361.09
1359.17
1357.65
1356.54
1355.84
1355.57
1355.73
1356.33
1357.37
1358.86
1360.8
1363.2
1366.07
1369.4
1373.2
1377.48
1382.24
1387.49
1393.22
1399.45
1406.17
1413.39
1421.11
1429.34
1438.07
1447.32
1457.09
1467.39
1478.21
1489.54
1501.4
1513.8
1526.75
1540.24
1554.28
1568.88
1584.02
1599.73
1616.01
1632.85
1650.26
1668.25
1686.82
1705.97
1725.71
1746.04
1766.96
1788.48
1810.59
1833.31
1856.63
1880.55
1905.07
1930.2
1955.94
1982.28
2009.23
2036.78
2064.94
2093.7
2123.06
2153.01
2183.56
2214.7
2246.42
2278.73
2311.62
2345.07
2379.1
2413.68
2448.82
2484.51
2520.74
2557.51
2594.79
2632.59
2670.9
2709.7
2748.98
2788.73
2828.95
2869.61
2910.71
2952.22
2994.15
3036.47
3079.17
3122.24
3165.66
3209.42
3253.51
3297.9
3342.59
3387.57
3432.81
3478.31
3524.05
3570
3616.16
3662.51
3709.03
3755.71
3802.52
3849.45
3896.49
3943.62
3990.82
4038.08
4085.37
4132.67
4179.98
4227.26
4274.5
4321.68
4368.78
4415.76
4462.62
4509.32
4555.85
4602.17
4648.26
4694.09
4739.64
4784.88
4829.78
4874.31
4918.43
4962.12
5005.35
5048.08
5090.27
5131.9
5172.92
5213.31
5253.03
5292.04
5330.32
5367.83
5404.54
5440.42
5475.44
5509.56
5542.76
5575.01
5606.28
5636.54
5665.76
5693.92
5720.99
5746.95
5771.77
5795.43
5817.91
5839.18
5859.23
5878.04
5895.58
5911.84
5926.8
5940.46
5952.78
5963.77
5973.41
5981.68
5988.58
5994.1
5998.24
6000.94
6002.38
-2601.13
-2601.18
-2601.18
-2601.13
-2601.03
-2600.9
-2600.73
-2600.54
-2600.32
-2600.08
-2599.81
-2599.51
-2599.19
-2598.84
-2598.46
-2598.05
-2597.62
-2597.15
-2596.66
-2596.14
-2595.59
-2595.01
-2594.4
-2593.76
-2593.09
-2592.39
-2591.66
-2590.9
-2590.1
-2589.27
-2588.41
-2587.5
-2586.55
-2585.56
-2584.52
-2583.44
-2582.3
-2581.1
-2579.84
-2578.52
-2577.13
-2575.67
-2574.12
-2572.5
-2570.78
-2568.98
-2567.08
-2565.07
-2562.96
-2560.74
-2558.4
-2555.95
-2553.37
-2550.66
-2547.82
-2544.84
-2541.73
-2538.46
-2535.04
-2531.47
-2527.75
-2523.86
-2519.8
-2515.58
-2511.19
-2506.62
-2501.87
-2496.94
-2491.83
-2486.54
-2481.05
-2475.37
-2469.49
-2463.41
-2457.13
-2450.65
-2443.96
-2437.06
-2429.95
-2422.64
-2415.11
-2407.38
-2399.43
-2391.28
-2382.92
-2374.35
-2365.58
-2356.6
-2347.41
-2338.02
-2328.42
-2318.62
-2308.6
-2298.37
-2287.93
-2277.28
-2266.4
-2255.29
-2243.95
-2232.37
-2220.55
-2208.47
-2196.13
-2183.52
-2170.62
-2157.44
-2143.94
-2130.13
-2115.99
-2101.51
-2086.67
-2071.46
-2055.87
-2039.88
-2023.47
-2006.63
-1989.35
-1971.6
-1953.37
-1934.66
-1915.44
-1895.7
-1875.43
-1854.61
-1833.24
-1811.29
-1788.77
-1765.65
-1741.92
-1717.57
-1692.6
-1666.99
-1640.74
-1613.83
-1586.27
-1558.04
-1529.13
-1499.55
-1469.3
-1438.36
-1406.74
-1374.44
-1341.46
-1307.8
-1273.47
-1238.47
-1202.8
-1166.49
-1129.53
-1091.94
-1053.72
-1014.9
-975.482
-935.481
-894.915
-853.8
-812.155
-770.001
-727.36
-684.254
-640.708
-596.75
-552.408
-507.711
-462.691
-417.38
-371.809
-326.011
-280.016
-233.85
-187.544
-141.129
-94.6363
-48.1015
-1.55986
44.9527
91.4
137.746
183.957
229.996
275.829
321.422
366.741
411.752
456.422
500.719
544.612
588.07
631.062
673.56
715.536
756.963
797.814
838.066
877.694
916.677
954.992
992.62
1029.54
1065.74
1101.2
1135.91
1169.85
1203
1235.37
1266.94
1297.69
1327.63
1356.75
1385.04
1412.49
1439.11
1464.88
1489.81
1513.9
1537.15
1559.56
1581.13
1601.86
1621.75
1640.83
1659.1
1676.56
1693.19
1709.16
1724.38
1738.82
1752.47
1765.32
1777.36
1788.66
1799.2
1808.94
1817.86
1826
1833.46
1840.29
1846.47
1852.12
1857.25
1861.83
1865.87
1869.38
1872.35
1874.8
1876.74
1878.2
1879.18
1879.72
1879.82
1879.5
1878.78
1877.67
1876.17
1874.28
1872.02
1869.4
1866.41
1863.09
1859.45
1855.51
1851.27
1846.76
1842
1836.98
1831.73
1826.26
1820.58
1814.71
1808.65
1802.41
1796.01
1789.46
1782.73
1775.86
1768.85
1761.71
1754.44
1747.04
1739.51
1731.87
1724.1
1716.23
1708.25
1700.17
1691.98
1683.71
1675.34
1666.89
1658.37
1649.77
1641.11
1632.39
1623.63
1614.81
1605.97
1597.09
1588.2
1579.3
1570.4
1561.51
1552.64
1543.81
1535.03
1526.3
1517.64
1509.06
1500.57
1492.2
1483.94
1475.81
1467.84
1460.02
1452.37
1444.92
1437.66
1430.62
1423.81
1417.24
1410.93
1404.88
1399.12
1393.64
1388.48
1383.62
1379.1
1374.91
1371.07
1367.58
1364.47
1361.74
1359.39
1357.43
1355.88
1354.75
1354.03
1353.73
1353.87
1354.45
1355.47
1356.94
1358.86
1361.25
1364.09
1367.41
1371.2
1375.47
1380.22
1385.45
1391.17
1397.38
1404.09
1411.3
1419.01
1427.22
1435.94
1445.18
1454.93
1465.21
1476.01
1487.33
1499.18
1511.56
1524.49
1537.96
1551.98
1566.55
1581.68
1597.37
1613.62
1630.43
1647.83
1665.79
1684.34
1703.47
1723.18
1743.49
1764.38
1785.88
1807.97
1830.66
1853.96
1877.86
1902.37
1927.48
1953.2
1979.53
2006.46
2034
2062.15
2090.9
2120.25
2150.19
2180.74
2211.88
2243.6
2275.92
2308.81
2342.27
2376.31
2410.91
2446.06
2481.77
2518.02
2554.81
2592.12
2629.94
2668.28
2707.11
2746.43
2786.22
2826.47
2867.18
2908.32
2949.89
2991.87
3034.24
3077
3120.13
3163.62
3207.44
3251.6
3296.06
3340.83
3385.88
3431.2
3476.78
3522.59
3568.62
3614.86
3661.29
3707.89
3754.65
3801.55
3848.57
3895.7
3942.92
3990.21
4037.56
4084.94
4132.34
4179.75
4227.13
4274.48
4321.76
4368.97
4416.07
4463.04
4509.87
4556.52
4602.97
4649.19
4695.16
4740.84
4786.22
4831.26
4875.93
4920.19
4964.03
5007.39
5050.26
5092.6
5134.36
5175.53
5216.05
5255.91
5295.06
5333.47
5371.12
5407.96
5443.96
5479.1
5513.34
5546.66
5579.02
5610.39
5640.75
5670.07
5698.33
5725.49
5751.53
5776.43
5800.17
5822.72
5844.06
5864.18
5883.04
5900.64
5916.95
5931.96
5945.65
5958.02
5969.03
5978.7
5986.99
5993.92
5999.45
6003.6
6006.32
6007.77
-2601.4
-2601.45
-2601.45
-2601.4
-2601.3
-2601.16
-2600.99
-2600.79
-2600.57
-2600.32
-2600.04
-2599.74
-2599.41
-2599.05
-2598.67
-2598.25
-2597.81
-2597.34
-2596.85
-2596.32
-2595.77
-2595.18
-2594.57
-2593.93
-2593.27
-2592.57
-2591.84
-2591.08
-2590.29
-2589.47
-2588.61
-2587.71
-2586.77
-2585.79
-2584.77
-2583.7
-2582.58
-2581.4
-2580.16
-2578.86
-2577.49