/*--------------------------------*- C++ -*----------------------------------*\
| =========                 |                                                 |
| \\      /  F ield         | OpenFOAM: The Open Source CFD Toolbox           |
|  \\    /   O peration     | Version:  v2006                                 |
|   \\  /    A nd           | Website:  www.openfoam.com                      |
|    \\/     M anipulation  |                                                 |
\*---------------------------------------------------------------------------*/
FoamFile
{
    version     2.0;
    format      ascii;
    class       surfaceScalarField;
    location    "10.4";
    object      phi;
}
// * * * * * * * * * * * * * * * * * * * * * * * * * * * * * * * * * * * * * //

dimensions      [0 3 -1 0 0 0 0];
oriented        oriented;


internalField   nonuniform List<scalar> 
299200
(
-0.000343935
0.000343935
-0.000352052
8.11724e-06
-0.000334556
-1.74962e-05
-0.000380828
4.62721e-05
-0.000477593
9.67655e-05
-0.000607298
0.000129704
-0.000753024
0.000145726
-0.000906534
0.00015351
-0.00106265
0.00015612
-0.00121835
0.000155701
-0.00137213
0.000153773
-0.00152304
0.000150912
-0.00167048
0.000147442
-0.00181388
0.000143394
-0.00195274
0.000138868
-0.00208651
0.000133769
-0.00221454
0.000128029
-0.00233646
0.000121917
-0.00245172
0.00011526
-0.00255998
0.000108262
-0.00266084
0.000100861
-0.00275406
9.32183e-05
-0.00283948
8.54196e-05
-0.00291693
7.74531e-05
-0.00298633
6.93961e-05
-0.00304761
6.12819e-05
-0.00310091
5.33033e-05
-0.00314604
4.51232e-05
-0.00318303
3.69884e-05
-0.00321203
2.9001e-05
-0.00323302
2.09939e-05
-0.00324603
1.30096e-05
-0.003251
4.97031e-06
-0.00324803
-2.96805e-06
-0.00323702
-1.10113e-05
-0.00321798
-1.90381e-05
-0.00319094
-2.70453e-05
-0.00315582
-3.51227e-05
-0.00311272
-4.30956e-05
-0.00306155
-5.11654e-05
-0.003002
-5.95551e-05
-0.0029337
-6.8297e-05
-0.00285602
-7.76808e-05
-0.00276843
-8.75892e-05
-0.00267023
-9.81983e-05
-0.00256078
-0.000109458
-0.00243902
-0.000121751
-0.00230458
-0.000134443
-0.0021567
-0.000147884
-0.00199513
-0.000161568
-0.00181972
-0.000175411
-0.00163063
-0.000189088
-0.00142867
-0.000201965
-0.0012146
-0.000214067
-0.000989219
-0.000225381
-0.000753751
-0.000235468
-0.000508974
-0.000244777
-0.000255467
-0.000253506
6.96266e-06
-0.00026243
0.000279027
-0.000272064
0.000562264
-0.000283237
0.000858205
-0.000295941
0.00116895
-0.000310747
0.00149618
-0.000327225
0.00184121
-0.000345035
0.00220483
-0.000363619
0.00258742
-0.000382588
0.00298856
-0.00040114
0.00340736
-0.000418803
0.00384274
-0.000435378
0.00429342
-0.000450676
0.00475804
-0.000464627
0.00523531
-0.000477271
0.00572404
-0.000488724
0.00622319
-0.000499154
0.00673193
-0.000508738
0.00724942
-0.000517489
0.00777507
-0.000525647
0.00830833
-0.000533265
0.00884871
-0.000540384
0.00939574
-0.000547025
0.00994894
-0.0005532
0.0105078
-0.000558907
0.011072
-0.000564138
0.0116409
-0.000568879
0.012214
-0.000573107
0.0127908
-0.000576779
0.0133706
-0.000579827
0.0139527
-0.000582142
0.0145363
-0.000583573
0.0151202
-0.000583938
0.0157033
-0.00058305
0.016284
-0.000580747
0.016861
-0.000576947
0.0174327
-0.000571687
0.0179978
-0.000565188
0.0185557
-0.000557887
0.0191061
-0.000550395
0.0196496
-0.000543441
0.0201873
-0.000537769
0.0207213
-0.000533989
0.0212538
-0.000532437
0.0217869
-0.000533135
0.0223228
-0.000535874
0.0228632
-0.000540404
0.0234098
-0.000546654
0.0239647
-0.000554834
0.0245299
-0.000565277
0.025108
-0.000578019
0.0257002
-0.000592262
0.0263062
-0.000606007
0.0269224
-0.000616151
0.0275415
-0.000619158
0.0281535
-0.000611941
0.028746
-0.000592533
0.0293076
-0.000561554
0.0298296
-0.00052204
0.0303084
-0.000478789
0.0307455
-0.000437096
0.0311468
-0.000401283
0.0315204
-0.000373658
0.0318747
-0.000354261
0.0322161
-0.000341437
0.032549
-0.000332845
0.0328754
-0.000326382
0.0331961
-0.000320695
0.0335113
-0.000315216
0.0338212
-0.000309909
0.0341261
-0.000304954
0.0344267
-0.00030052
0.0347233
-0.000296676
0.0350167
-0.000293403
0.0353074
-0.000290642
0.0355957
-0.000288332
0.0358821
-0.000286407
0.0361669
-0.00028478
0.0364502
-0.000283315
0.036732
-0.000281805
0.037012
-0.000279989
0.0372896
-0.000277578
0.0375639
-0.000274319
0.037834
-0.000270063
0.0380988
-0.000264834
0.0383577
-0.000258886
0.0386104
-0.000252756
0.0388577
-0.000247296
0.0391014
-0.000243665
0.0393446
-0.000243223
0.0395915
-0.000246918
0.0398459
-0.000254314
0.0401085
-0.000262597
0.0403746
-0.000266151
0.0406322
-0.000257561
0.0408625
-0.000230293
0.0410446
-0.000182132
0.0411621
-0.000117541
0.0412086
-4.64843e-05
0.0411922
1.63811e-05
0.0411355
5.67598e-05
0.0410701
6.53361e-05
0.0410197
5.04437e-05
0.0409962
2.35065e-05
0.0410067
-1.04664e-05
0.0410553
-4.86061e-05
0.0411398
-8.45663e-05
0.0412517
-0.000111908
0.0413793
-0.000127544
0.041511
-0.000131685
0.0416374
-0.000126477
0.0417523
-0.000114833
0.0418506
-9.83334e-05
0.0419283
-7.77067e-05
0.0419827
-5.43678e-05
0.0420149
-3.22084e-05
0.0420318
-1.69489e-05
0.0420439
-1.20963e-05
0.0420598
-1.5847e-05
0.042083
-2.32379e-05
0.0421135
-3.05205e-05
0.0421503
-3.67152e-05
0.0421926
-4.22997e-05
0.0422404
-4.78018e-05
0.0422937
-5.33751e-05
0.0423527
-5.89776e-05
0.0424173
-6.45752e-05
0.0424875
-7.01861e-05
0.0425633
-7.58459e-05
0.0426449
-8.15784e-05
0.0427323
-8.73892e-05
0.0428256
-9.3267e-05
0.0429247
-9.91806e-05
0.0430298
-0.000105075
0.0431407
-0.000110871
0.0432572
-0.000116472
0.0433789
-0.000121767
0.0435056
-0.000126649
0.0436366
-0.000131024
0.0437714
-0.00013483
0.0439095
-0.000138057
0.0440502
-0.000140762
0.0441933
-0.000143071
0.0443385
-0.000145165
0.0444857
-0.000147259
0.0446353
-0.000149572
0.0447875
-0.000152154
0.0449426
-0.000155112
0.0451011
-0.000158514
0.0452634
-0.000162355
0.04543
-0.00016653
0.0456008
-0.00017085
0.0457759
-0.000175089
0.0459549
-0.00017903
0.0461374
-0.000182471
0.0463227
-0.000185254
0.0465099
-0.000187256
0.0466983
-0.000188386
0.0468869
-0.000188562
0.0470745
-0.000187596
0.0472594
-0.000184931
0.0474396
-0.000180236
0.0476118
-0.000172131
0.0477706
-0.000158862
0.047908
-0.000137424
0.0480114
-0.00010333
0.0480635
-5.21269e-05
0.0480477
1.5808e-05
0.0479429
0.0001048
0.0477298
0.00021309
0.0473778
0.000352026
0.0468543
0.000523519
0.0461381
0.000716174
0.0452366
0.000901528
0.0442014
0.00103512
0.0431209
0.00108052
0.042107
0.00101396
0.0412642
0.000842792
0.0406375
0.00062667
0.0401965
0.000441004
0.039857
0.000339496
0.0395387
0.000318336
0.0392036
0.000335029
0.0388587
0.000344912
0.0385337
0.000324999
0.0382532
0.000280498
0.0380219
0.000231282
0.0378281
0.000193829
0.0376556
0.000172526
0.0374937
0.000161873
0.0373401
0.000153574
0.0371979
0.000142259
0.0370705
0.000127371
0.0369583
0.000112221
0.0368563
0.000101998
0.0367545
0.000101822
0.0366395
0.00011493
0.0364969
0.000142645
0.0363171
0.000179808
0.0360931
0.000224012
0.0358205
0.000272551
0.035497
0.000323496
0.0351216
0.000375384
0.0346954
0.000426258
0.0342226
0.000472832
0.0337127
0.000509869
0.033182
0.000530723
0.0326513
0.000530645
0.032142
0.000509362
0.0316763
0.000465639
0.0312713
0.000404979
0.0309352
0.000336171
0.0306661
0.000269101
0.0304541
0.000212009
0.0302849
0.000169132
0.0301449
0.000140009
0.0300243
0.000120618
0.0299186
0.000105674
0.0298278
9.08756e-05
0.0297531
7.46244e-05
0.0296958
5.72938e-05
0.029655
4.08784e-05
0.0296276
2.73381e-05
0.02961
1.76621e-05
0.0295984
1.15602e-05
0.0295906
7.77445e-06
0.0295859
4.69175e-06
0.0295849
1.00314e-06
0.0295895
-4.53395e-06
0.0296016
-1.20905e-05
0.0296231
-2.15799e-05
0.0296559
-3.27851e-05
0.0297012
-4.52405e-05
0.0297595
-5.83096e-05
0.0298308
-7.1294e-05
0.0299144
-8.35937e-05
0.0300092
-9.48154e-05
0.030114
-0.000104831
0.0302278
-0.00011377
0.0303497
-0.000121951
0.0304795
-0.00012976
0.030617
-0.000137547
0.0307626
-0.000145555
0.0309165
-0.000153878
0.0310789
-0.000162469
0.0312501
-0.000171167
0.0314298
-0.000179744
0.0316178
-0.000187964
0.0318134
-0.000195628
0.032016
-0.000202607
0.0322249
-0.000208842
0.0324392
-0.000214344
0.0326584
-0.000219166
0.0328818
-0.000223388
0.0331089
-0.000227142
0.0333395
-0.000230591
0.0335733
-0.000233832
0.0338103
-0.000237001
0.0340506
-0.000240219
0.0342941
-0.000243557
0.0345411
-0.000247006
0.0347916
-0.000250483
0.0350455
-0.000253862
0.0353025
-0.000257015
0.0355623
-0.000259839
0.0358246
-0.000262274
0.0360889
-0.000264292
0.0363548
-0.000265888
0.0366219
-0.000267068
0.0368897
-0.000267839
0.0371579
-0.000268203
0.0374261
-0.00026816
0.0376938
-0.000267704
0.0379606
-0.000266835
0.0382261
-0.000265548
0.03849
-0.000263844
0.0387517
-0.000261725
0.0390109
-0.000259194
0.0392672
-0.000256253
0.0395201
-0.000252907
0.0397692
-0.000249158
0.0400142
-0.000245009
0.0402547
-0.000240463
0.0404902
-0.000235523
0.0407204
-0.000230193
0.0409449
-0.000224474
0.0411633
-0.000218371
0.0413751
-0.000211886
0.0415802
-0.000205024
0.041778
-0.000197788
0.0419681
-0.00019018
0.0421503
-0.000182204
0.0423242
-0.000173864
0.0424894
-0.000165163
0.0426455
-0.000156103
0.0427922
-0.000146691
0.0429291
-0.000136928
0.0430559
-0.000126819
0.0431723
-0.000116369
0.0432779
-0.00010558
0.0433723
-9.44531e-05
0.0434553
-8.29909e-05
0.0435265
-7.12113e-05
0.0435857
-5.92149e-05
0.0436326
-4.689e-05
0.0436669
-3.42449e-05
0.0436881
-2.12645e-05
0.043696
-7.92014e-06
0.0436902
5.81308e-06
0.0436696
2.06643e-05
0.0436338
3.57452e-05
0.0435827
5.10794e-05
0.0435161
6.66035e-05
0.0434339
8.22481e-05
0.043336
9.793e-05
0.0432224
0.000113554
0.0430934
0.000129012
0.0429492
0.000144192
0.0427902
0.000158982
0.0426169
0.000173286
0.0424299
0.000187032
0.0422297
0.000200191
0.0420169
0.000212782
0.0417921
0.000224878
0.0415554
0.000236601
0.0413073
0.000248111
0.0410478
0.000259587
0.0407765
0.000271206
0.0404934
0.000283131
0.0401979
0.00029549
0.0398896
0.000308371
0.0395677
0.000321822
0.0392319
0.000335851
0.0388814
0.000350434
0.0385159
0.000365521
0.0381349
0.000381048
0.0377379
0.000396935
0.0373248
0.000413101
0.0368954
0.00042946
0.0364494
0.000445933
0.035987
0.00046245
0.035508
0.00047896
0.0350126
0.000495431
0.0345008
0.000511853
0.0339725
0.000528232
0.0334279
0.000544587
0.032867
0.000560949
0.0322896
0.00057736
0.0316958
0.000593874
0.0310852
0.000610565
0.0304577
0.000627523
0.0298128
0.000644848
0.0291502
0.000662644
0.0284692
0.000681
0.0277692
0.000699973
0.0270496
0.000719573
0.0263099
0.000739739
0.0255496
0.000760288
0.0247687
0.000780865
0.0239678
0.000800923
0.0231482
0.00081965
0.0223124
0.000835738
0.0214653
0.000847107
0.0206141
0.000851216
0.0197673
0.00084681
0.0189331
0.000834201
0.0181171
0.000815992
0.0173207
0.000796347
0.0165418
0.000778952
0.0157762
0.000765557
0.0150204
0.00075586
0.014272
0.000748399
0.0135304
0.000741569
0.0127962
0.000734181
0.0120707
0.000725555
0.0113553
0.000715415
0.0106514
0.000703812
0.00996038
0.000691067
0.00928272
0.00067766
0.00861867
0.00066405
0.00796813
0.000650537
0.00733091
0.000637221
0.00670684
0.000624072
0.0060958
0.000611039
0.00549768
0.000598117
0.00491233
0.000585354
0.00433953
0.000572803
0.00377908
0.000560452
0.0032309
0.000548177
0.00269519
0.000535704
0.0021726
0.000522593
0.00166436
0.000508246
0.00117238
0.000491977
0.000699215
0.000473164
0.000247753
0.000451461
-0.000179236
0.000426989
-0.000580134
0.000400898
-0.000954037
0.000373903
-0.00130135
0.00034731
-0.00162441
0.000323059
-0.00192285
0.000298442
-0.00219875
0.000275902
-0.00245162
0.000252865
-0.00268141
0.000229797
-0.00288828
0.000206863
-0.00307244
0.000184166
-0.00323539
0.000162945
-0.00337733
0.000141946
-0.00349904
0.000121706
-0.00360096
0.000101916
-0.00368369
8.27342e-05
-0.00374817
6.44784e-05
-0.00379484
4.66761e-05
-0.00382371
2.88645e-05
-0.00383522
1.15085e-05
-0.00383071
-4.50744e-06
-0.00380965
-2.10587e-05
-0.00377284
-3.68093e-05
-0.00372114
-5.16983e-05
-0.00365518
-6.59631e-05
-0.00357669
-7.84874e-05
-0.00348583
-9.08641e-05
-0.00338356
-0.000102264
-0.00327042
-0.000113144
-0.00314799
-0.00012243
-0.00301635
-0.000131636
-0.0028761
-0.000140256
-0.00272768
-0.00014842
-0.00257181
-0.000155872
-0.00240808
-0.000163727
-0.00223632
-0.000171757
-0.00205642
-0.000179901
-0.00186832
-0.000188099
-0.00167255
-0.000195769
-0.00146793
-0.000204623
-0.00125185
-0.000216079
-0.0010208
-0.000231054
-0.000776415
-0.000244382
-0.000532435
-0.00024398
-0.000311843
-0.000220592
-0.000130778
-0.000181064
-0.000130778
-0.000455213
0.000799147
-0.000596099
0.000149003
-0.00075269
0.000139095
-0.000992904
0.000286486
-0.00129613
0.000399992
-0.0016286
0.000462174
-0.00197316
0.000490288
-0.00232017
0.000500519
-0.00266502
0.00050097
-0.00300537
0.000496055
-0.0033398
0.000488198
-0.00366722
0.000478335
-0.00398672
0.000466942
-0.00429733
0.000454
-0.00459793
0.000439471
-0.00488771
0.000423548
-0.00516607
0.000406393
-0.00543245
0.000388296
-0.00568663
0.000369435
-0.0059284
0.000350035
-0.00615797
0.000330432
-0.00637549
0.000310739
-0.0065812
0.000291129
-0.00677551
0.000271758
-0.00695877
0.000252655
-0.00713139
0.00023391
-0.00729378
0.000215686
-0.00744631
0.000197654
-0.00758928
0.000179955
-0.00772293
0.000162652
-0.00784742
0.000145485
-0.00796288
0.000128472
-0.00806947
0.000111555
-0.00816707
9.46373e-05
-0.00825567
7.75875e-05
-0.00833482
6.01096e-05
-0.00840404
4.21827e-05
-0.00846279
2.3624e-05
-0.00851026
4.36848e-06
-0.00854517
-1.6252e-05
-0.0085671
-3.76204e-05
-0.00857557
-5.98307e-05
-0.0085704
-8.28517e-05
-0.00855127
-0.000106715
-0.00851852
-0.000130948
-0.00847297
-0.000155011
-0.00841613
-0.000178594
-0.00834907
-0.000201498
-0.00827348
-0.000223478
-0.00819064
-0.000244405
-0.00810155
-0.000264504
-0.00800655
-0.00028409
-0.0079049
-0.000303607
-0.00779452
-0.000324448
-0.0076727
-0.000347206
-0.00753399
-0.000374178
-0.00737309
-0.000405674
-0.00718419
-0.000442406
-0.0069623
-0.000484318
-0.00670344
-0.000530932
-0.00640548
-0.000581196
-0.00606871
-0.000632708
-0.00569618
-0.000683273
-0.00529197
-0.000731439
-0.00486132
-0.000775689
-0.00441044
-0.000814499
-0.00394476
-0.000848259
-0.00346865
-0.000877259
-0.00298593
-0.000901515
-0.0024991
-0.000922209
-0.00200971
-0.000940074
-0.00151851
-0.000955822
-0.00102574
-0.000970038
-0.000531335
-0.000983133
-3.51576e-05
-0.000995332
0.000462841
-0.00100674
0.000962803
-0.00101745
0.00146442
-0.00102727
0.00196728
-0.00103612
0.00247084
-0.00104394
0.00297462
-0.0010508
0.00347818
-0.00105676
0.00398119
-0.00106192
0.00448347
-0.00106642
0.00498502
-0.00107043
0.00548598
-0.00107406
0.0059866
-0.0010774
0.00648721
-0.00108043
0.00698813
-0.00108307
0.00748968
-0.00108512
0.00799211
-0.00108637
0.00849561
-0.00108655
0.00900031
-0.00108545
0.00950629
-0.00108292
0.0100136
-0.00107898
0.0105222
-0.00107379
0.011032
-0.00106771
0.0115429
-0.00106126
0.0120545
-0.00105504
0.0125664
-0.00104968
0.0130781
-0.0010457
0.0135892
-0.00104353
0.0140996
-0.00104355
0.0146099
-0.00104618
0.0151215
-0.00105195
0.0156362
-0.00106138
0.0161561
-0.00107478
0.0166826
-0.00109176
0.0172154
-0.00111086
0.0177526
-0.00112946
0.0182907
-0.0011441
0.0188256
-0.00115106
0.0193537
-0.00114724
0.0198726
-0.00113081
0.0203817
-0.00110165
0.0208818
-0.00106161
0.0213739
-0.00101416
0.0218588
-0.000963713
0.0223364
-0.000914699
0.0228057
-0.000870605
0.0232654
-0.000833354
0.0237144
-0.000803198
0.024152
-0.000779109
0.0245786
-0.000759451
0.0249949
-0.000742617
0.0254016
-0.000727422
0.0257996
-0.000713204
0.0261894
-0.000699718
0.0265714
-0.000686952
0.0269459
-0.000674974
0.027313
-0.00066385
0.0276733
-0.000653628
0.028027
-0.000644343
0.0283746
-0.000636024
0.0287169
-0.000628673
0.0290544
-0.000622224
0.0293875
-0.000616493
0.0297169
-0.000611144
0.0300426
-0.00060568
0.0303645
-0.000599483
0.030682
-0.000591897
0.0309943
-0.000582363
0.0313001
-0.000570595
0.031598
-0.00055679
0.0318871
-0.000541857
0.0321675
-0.000527647
0.0324409
-0.000517088
0.0327117
-0.000514025
0.0329872
-0.000522408
0.0332776
-0.000544766
0.0335953
-0.00058032
0.0339528
-0.000623626
0.0343601
-0.000664865
0.0348221
-0.000692234
0.0353356
-0.000695647
0.035888
-0.000669936
0.0364576
-0.000616101
0.0370127
-0.000538759
0.0375094
-0.000439883
0.0378975
-0.000322785
0.0381408
-0.00019283
0.0382205
-5.62267e-05
0.0381307
7.93025e-05
0.0378872
0.000194963
0.0375276
0.000275019
0.0371021
0.000313615
0.0366615
0.000312976
0.0362484
0.000281433
0.035892
0.000229995
0.0356076
0.000169482
0.0354006
0.000108661
0.0352689
5.40428e-05
0.0352046
9.94022e-06
0.0351964
-2.40019e-05
0.0352275
-4.80685e-05
0.035282
-6.65666e-05
0.0353493
-8.31795e-05
0.0354256
-9.95053e-05
0.0355104
-0.000115352
0.0356038
-0.000130115
0.0357051
-0.000143562
0.035813
-0.000155777
0.0359266
-0.00016689
0.0360445
-0.000176954
0.0361659
-0.000185962
0.0362896
-0.000193895
0.0364145
-0.000200757
0.0365395
-0.000206577
0.0366636
-0.000211409
0.0367856
-0.000215331
0.0369049
-0.000218438
0.0370206
-0.000220835
0.0371324
-0.000222626
0.0372398
-0.000223888
0.0373427
-0.00022466
0.037441
-0.000224922
0.0375345
-0.000224587
0.0376232
-0.00022351
0.0377067
-0.000221516
0.0377844
-0.000218447
0.0378555
-0.000214229
0.0379193
-0.000208936
0.0379749
-0.000202825
0.0380216
-0.000196269
0.0380594
-0.000190022
0.0380892
-0.000184868
0.0381121
-0.000181447
0.03813
-0.000180207
0.0381447
-0.000181282
0.0381583
-0.000184486
0.0381726
-0.000189302
0.0381885
-0.000194975
0.0382067
-0.00020067
0.0382271
-0.000205637
0.0382492
-0.000209345
0.0382724
-0.000211571
0.0382962
-0.000212428
0.038321
-0.000212373
0.0383484
-0.000212284
0.0383817
-0.000213579
0.0384263
-0.000216693
0.0384904
-0.000223045
0.0385865
-0.00023348
0.0387317
-0.000248565
0.0389478
-0.000268179
0.0392547
-0.000291115
0.0396741
-0.000314546
0.0402294
-0.000342231
0.0409598
-0.000378403
0.0419048
-0.00042147
0.0430801
-0.00045911
0.0444547
-0.000473131
0.0459405
-0.000450626
0.0474082
-0.000387207
0.0487335
-0.000311332
0.0498024
-0.000226058
0.0505589
-0.000129827
0.0510161
-1.62492e-05
0.0512221
0.000133486
0.0512531
0.000287341
0.0511679
0.000420268
0.0509955
0.000517304
0.0507478
0.000572659
0.050432
0.000596267
0.0500572
0.000606119
0.0496322
0.000618801
0.04916
0.000644739
0.0486336
0.000688251
0.0480379
0.000749284
0.0473559
0.000824304
0.0465771
0.000906205
0.0457045
0.000984745
0.0447581
0.00104847
0.0437723
0.00108753
0.0427917
0.00109555
0.0418604
0.00107402
0.0410139
0.0010263
0.0402805
0.000957349
0.0396793
0.000873734
0.0392199
0.000782898
0.0389025
0.000692812
0.038718
0.000610726
0.0386493
0.000541547
0.0386727
0.000486529
0.0387602
0.000443146
0.0388842
0.000406737
0.039022
0.000371527
0.0391574
0.0003302
0.0392802
0.000282227
0.0393867
0.000229668
0.0394787
0.000177059
0.0395614
0.000129327
0.0396407
8.97897e-05
0.0397215
5.92275e-05
0.039806
3.61056e-05
0.039894
1.76784e-05
0.0399839
1.02045e-06
0.0400727
-1.41855e-05
0.0401594
-2.94092e-05
0.0402443
-4.40428e-05
0.0403289
-5.72537e-05
0.0404151
-6.85335e-05
0.0405046
-7.79241e-05
0.0405984
-8.59837e-05
0.0406967
-9.3617e-05
0.0407995
-0.000101866
0.0409068
-0.000111797
0.0410187
-0.000124029
0.0411362
-0.000139023
0.0412604
-0.000157047
0.0413933
-0.000178097
0.0415369
-0.000201904
0.0416936
-0.000227983
0.0418657
-0.000255688
0.0420551
-0.000284287
0.0422634
-0.000313036
0.0424908
-0.000341245
0.0427372
-0.000368344
0.0430014
-0.000393933
0.0432817
-0.000417836
0.0435762
-0.000440108
0.0438834
-0.000460993
0.0442017
-0.000480812
0.0445303
-0.00049982
0.0448687
-0.000518096
0.0452162
-0.000535505
0.0455723
-0.000551734
0.0459361
-0.000566379
0.0463063
-0.000579011
0.0466812
-0.000589229
0.0470587
-0.000596714
0.0474367
-0.000601327
0.0478126
-0.000603095
0.0481842
-0.000602211
0.0485494
-0.000599024
0.0489065
-0.000594064
0.0492543
-0.000587983
0.0495921
-0.000581453
0.0499202
-0.000575067
0.050239
-0.000569243
0.0505493
-0.000564184
0.0508522
-0.00055988
0.0511485
-0.000556154
0.0514389
-0.000552728
0.0517239
-0.000549293
0.0520036
-0.000545567
0.0522779
-0.000541331
0.0525465
-0.000536435
0.0528091
-0.000530797
0.0530653
-0.000524378
0.0533147
-0.00051717
0.0535571
-0.00050918
0.053792
-0.000500419
0.054019
-0.0004909
0.0542379
-0.000480638
0.0544484
-0.000469647
0.0546501
-0.000457941
0.0548427
-0.000445537
0.055026
-0.000432453
0.0551997
-0.000418706
0.0553635
-0.000404312
0.0555173
-0.00038929
0.0556608
-0.000373653
0.0557937
-0.000357418
0.0559159
-0.000340595
0.0560272
-0.000323196
0.0561274
-0.000305231
0.0562164
-0.000286708
0.0562938
-0.000267633
0.0563596
-0.000248012
0.0564136
-0.000227849
0.0564556
-0.000207148
0.0564854
-0.000185912
0.0565029
-0.000164144
0.0565078
-0.000141846
0.0565
-0.000119022
0.0564793
-9.56719e-05
0.0564455
-7.17973e-05
0.0563984
-4.73927e-05
0.0563379
-2.24517e-05
0.0562634
3.26917e-06
0.0561748
2.94355e-05
0.0560716
5.62935e-05
0.0559537
8.36358e-05
0.055821
0.000111443
0.0556734
0.000139657
0.0555111
0.000168161
0.0553346
0.000197095
0.0551441
0.000226306
0.0549394
0.000255762
0.0547206
0.000285413
0.0544876
0.000315191
0.0542406
0.000345015
0.0539793
0.000374788
0.0537039
0.000404403
0.0534144
0.000433738
0.0531107
0.000462666
0.0527929
0.000491069
0.0524611
0.000518848
0.0521154
0.000545944
0.0517558
0.000572354
0.0513825
0.000598132
0.0509957
0.000623387
0.0505956
0.000648255
0.0501823
0.000672859
0.0497563
0.000697256
0.049318
0.000721389
0.0488685
0.00074506
0.0484089
0.000767946
0.047941
0.00078966
0.047467
0.000809854
0.0469891
0.000828334
0.0465095
0.000845157
0.0460299
0.000860677
0.0455513
0.000875506
0.045074
0.000890403
0.0445973
0.000906112
0.0441201
0.000923197
0.0436406
0.000941919
0.0431574
0.000962192
0.0426692
0.000983636
0.0421753
0.0010057
0.0416758
0.00102779
0.0411709
0.00104943
0.0406616
0.00107031
0.0401486
0.00109032
0.039633
0.00110947
0.0391157
0.00112787
0.0385976
0.00114561
0.0380797
0.00116277
0.0375629
0.00117941
0.0370484
0.00119557
0.0365371
0.00121126
0.0360301
0.00122653
0.0355285
0.00124139
0.035033
0.00125575
0.0345444
0.00126942
0.0340634
0.00128199
0.0335902
0.00129284
0.0331249
0.00130099
0.032667
0.00130507
0.0322147
0.00130352
0.0317661
0.00129542
0.0313192
0.00128106
0.0308728
0.0012624
0.0304267
0.00124246
0.0299816
0.00122404
0.0295386
0.00120859
0.0290985
0.00119594
0.028662
0.00118487
0.0282296
0.00117395
0.0278018
0.00116206
0.0273788
0.00114851
0.0269612
0.00113298
0.0265496
0.00111547
0.0261443
0.00109633
0.0257458
0.00107619
0.025354
0.00105583
0.0249686
0.00103593
0.024589
0.00101687
0.0242143
0.000998683
0.0238442
0.000981162
0.0234783
0.000964055
0.0231165
0.000947171
0.0227589
0.000930396
0.0224057
0.000913631
0.0220572
0.000896715
0.0217135
0.000879356
0.021375
0.000861128
0.0210417
0.000841534
0.0207135
0.000820153
0.0203898
0.000796855
0.0200692
0.000772055
0.0197494
0.000746811
0.0194276
0.000722678
0.0191006
0.000700887
0.0187659
0.000682062
0.0184232
0.000665748
0.0180721
0.000649542
0.0177159
0.000632067
0.0173571
0.000611676
0.0169984
0.000588529
0.0166413
0.000563996
0.0162857
0.000539724
0.0159315
0.000517158
0.0155771
0.000496355
0.0152216
0.000477168
0.0148643
0.000459232
0.0145047
0.00044238
0.0141424
0.00042675
0.0137768
0.000412304
0.0134066
0.000398987
0.0130311
0.000387061
0.0126498
0.000376748
0.0122614
0.000367339
0.0118657
0.000358961
0.0114623
0.000351657
0.011051
0.000345309
0.0106322
0.00034038
0.0102051
0.000336213
0.00976977
0.00033305
0.00932581
0.000330809
0.00887347
0.000329914
0.00841213
0.000329701
0.00794162
0.000330255
0.00746163
0.000331571
0.00697209
0.00033367
0.0064725
0.000335868
0.00596277
0.000337968
0.00544318
0.000339687
0.0049145
0.00034058
0.00437825
0.000340483
0.0038353
0.00033833
0.00328558
0.000333641
0.00272709
0.000327428
0.0021582
0.000324513
0.00158688
0.000327343
0.00105177
0.000314517
0.000566614
0.000304088
0.000435835
-0.000487708
0.00128686
-0.000579076
0.000240372
-0.000665213
0.000225232
-0.000864367
0.00048564
-0.00116162
0.000697247
-0.00150273
0.000803282
-0.00185302
0.000840575
-0.00219539
0.000842895
-0.0025248
0.00083038
-0.00284093
0.000812177
-0.00314422
0.000791489
-0.00343462
0.000768739
-0.00371149
0.000743814
-0.00397402
0.00071653
-0.00422146
0.000686907
-0.00445345
0.000655542
-0.00466993
0.000622874
-0.00487113
0.000589489
-0.00505749
0.000555803
-0.00522958
0.000522125
-0.00538819
0.000489043
-0.00553405
0.000456593
-0.00566776
0.00042484
-0.00579018
0.00039418
-0.00590193
0.000364404
-0.0060035
0.000335475
-0.00609527
0.000307462
-0.0061778
0.000280182
-0.00625138
0.000253535
-0.00631604
0.000227313
-0.00637192
0.000201364
-0.00641899
0.000175541
-0.0064572
0.000149767
-0.00648631
0.00012375
-0.00650589
9.71666e-05
-0.0065156
6.98202e-05
-0.00651516
4.17403e-05
-0.00650401
1.24701e-05
-0.00648218
-1.7455e-05
-0.00644992
-4.85137e-05
-0.00640645
-8.10899e-05
-0.00635213
-0.000114148
-0.0062873
-0.000147683
-0.00621242
-0.000181599
-0.00612856
-0.000214805
-0.0060362
-0.000247378
-0.00593586
-0.000278934
-0.00582778
-0.000309576
-0.00571164
-0.000339617
-0.00558636
-0.000369687
-0.00544997
-0.000400894
-0.00530059
-0.000433469
-0.00513473
-0.000469459
-0.00494934
-0.000509847
-0.0047404
-0.000556145
-0.00450535
-0.000609225
-0.00424193
-0.000669092
-0.00394894
-0.000735394
-0.00362767
-0.000805586
-0.00327906
-0.000879544
-0.00290615
-0.000954108
-0.00251208
-0.00102678
-0.00210075
-0.0010946
-0.00167585
-0.00115635
-0.00124082
-0.00121072
-0.000797759
-0.00125756
-0.000349175
-0.00129684
0.000103375
-0.00132981
0.000559573
-0.00135771
0.00101859
-0.00138123
0.00147996
-0.00140144
0.00194342
-0.00141928
0.00240881
-0.00143543
0.00287605
-0.00145037
0.00334507
-0.00146435
0.0038158
-0.00147746
0.00428804
-0.00148969
0.00476166
-0.00150089
0.00523647
-0.00151093
0.00571228
-0.00151976
0.00618883
-0.00152735
0.00666586
-0.00153379
0.00714318
-0.00153924
0.00762067
-0.00154392
0.00809831
-0.00154807
0.00857615
-0.00155191
0.00905434
-0.00155559
0.00953307
-0.00155917
0.0100126
-0.0015626
0.0104932
-0.00156572
0.0109751
-0.0015683
0.0114586
-0.00157005
0.0119439
-0.00157074
0.0124312
-0.00157018
0.0129205
-0.00156827
0.0134118
-0.0015651
0.0139049
-0.00156085
0.0143995
-0.00155585
0.014895
-0.00155049
0.0153905
-0.00154518
0.0158851
-0.00154031
0.0163777
-0.00153621
0.0168674
-0.00153321
0.0173529
-0.00153169
0.017833
-0.00153199
0.0183059
-0.0015343
0.0187695
-0.00153839
0.0192211
-0.00154335
0.0196578
-0.00154755
0.0200772
-0.00154885
0.0204781
-0.001545
0.0208611
-0.00153414
0.0212291
-0.00151517
0.0215862
-0.00148796
0.0219379
-0.00145329
0.0222891
-0.00141281
0.0226437
-0.0013688
0.0230038
-0.00132382
0.0233694
-0.00128024
0.0237387
-0.0012399
0.0241091
-0.00120383
0.0244781
-0.00117218
0.0248434
-0.00114441
0.0252036
-0.00111967
0.0255581
-0.0010971
0.0259067
-0.00107601
0.0262495
-0.00105602
0.0265867
-0.00103692
0.0269184
-0.00101862
0.0272445
-0.00100108
0.0275649
-0.000984269
0.0278795
-0.000968169
0.0281879
-0.000952766
0.0284899
-0.000938067
0.0287853
-0.000924084
0.0290739
-0.000910802
0.0293556
-0.000898144
0.0296304
-0.000885932
0.0298985
-0.000873869
0.0301606
-0.000861556
0.0304172
-0.000848531
0.0306693
-0.000834367
0.0309175
-0.000818797
0.0311625
-0.000801866
0.0314048
-0.000784115
0.0316439
-0.000766744
0.0318785
-0.000751705
0.032106
-0.000741555
0.0323225
-0.000738876
0.0325229
-0.000745203
0.0327024
-0.000759794
0.0328577
-0.000778879
0.0329888
-0.000796037
0.0331005
-0.00080387
0.0332011
-0.000796267
0.0333011
-0.000769926
0.0334089
-0.000723908
0.0335288
-0.000658653
0.0336626
-0.000573683
0.0338081
-0.000468255
0.033959
-0.000343767
0.0341083
-0.000205518
0.0342517
-6.41594e-05
0.0343861
6.06142e-05
0.0345078
0.00015331
0.0346167
0.000204736
0.0347184
0.000211238
0.0348204
0.000179448
0.0349285
0.000121896
0.0350456
5.24053e-05
0.0351701
-1.58462e-05
0.0352983
-7.41959e-05
0.0354274
-0.000119097
0.0355539
-0.000150524
0.0356769
-0.00017107
0.0357953
-0.000185006
0.0359086
-0.000196461
0.0360167
-0.000207626
0.0361201
-0.000218698
0.0362191
-0.000229103
0.036314
-0.000238508
0.0364052
-0.000246963
0.0364929
-0.000254636
0.0365776
-0.000261614
0.0366595
-0.000267892
0.0367391
-0.000273426
0.0368165
-0.000278172
0.036892
-0.0002821
0.0369658
-0.000285192
0.0370379
-0.000287446
0.0371083
-0.000288873
0.037177
-0.00028949
0.0372437
-0.000289304
0.0373081
-0.000288316
0.0373699
-0.00028651
0.0374289
-0.000283856
0.0374846
-0.000280338
0.0375371
-0.000275982
0.0375865
-0.000270887
0.0376333
-0.000265271
0.0376785
-0.00025948
0.0377236
-0.000254029
0.0377704
-0.00024955
0.0378209
-0.000246811
0.0378771
-0.00024625
0.0379405
-0.000248198
0.0380116
-0.000252557
0.0380903
-0.000258971
0.0381757
-0.000266648
0.0382657
-0.000274447
0.0383574
-0.000281059
0.0384477
-0.00028522
0.0385329
-0.000285949
0.03861
-0.000282721
0.0386762
-0.000275526
0.0387295
-0.000264883
0.0387688
-0.000251717
0.0387937
-0.000237259
0.0388042
-0.00022278
0.0387998
-0.000209214
0.0387813
-0.000198129
0.0387493
-0.000191098
0.0387049
-0.000189082
0.0386489
-0.000192569
0.0385815
-0.000200786
0.0385013
-0.000210927
0.0384078
-0.000221006
0.038301
-0.000235424
0.0381834
-0.000260814
0.0380608
-0.000298918
0.0379433
-0.000341547
0.0378462
-0.000376016
0.0377945
-0.000398916
0.0378246
-0.000417351
0.0379582
-0.000444941
0.0381893
-0.00045718
0.0384932
-0.000433682
0.0388279
-0.000350949
0.0391642
-0.000202858
0.0394595
-7.89177e-06
0.0397148
0.000164891
0.0399088
0.000323304
0.0400383
0.000443178
0.0401094
0.000525161
0.0401367
0.00057889
0.0401377
0.00061773
0.0401265
0.000655982
0.0401069
0.000707855
0.0400704
0.000785806
0.0399976
0.000897063
0.0398643
0.00103955
0.0396491
0.00119993
0.0393417
0.00135585
0.0389477
0.00148149
0.0384897
0.0015536
0.0380028
0.00156091
0.037525
0.00150409
0.0370884
0.001394
0.0367138
0.00124835
0.0364097
0.00108695
0.0361747
0.000927842
0.036001
0.000784425
0.0358785
0.000663984
0.0357973
0.000567784
0.0357481
0.000492275
0.0357235
0.000431368
0.035716
0.000379082
0.0357162
0.000329927
0.0357175
0.000280932
0.0357158
0.000231437
0.0357103
0.000182495
0.0357039
0.00013576
0.035701
9.26797e-05
0.0357063
5.39577e-05
0.0357229
1.94897e-05
0.0357524
-1.18159e-05
0.0357951
-4.16453e-05
0.0358508
-6.99444e-05
0.035919
-9.76224e-05
0.0359996
-0.000124666