/*--------------------------------*- C++ -*----------------------------------*\
| =========                 |                                                 |
| \\      /  F ield         | OpenFOAM: The Open Source CFD Toolbox           |
|  \\    /   O peration     | Version:  v2006                                 |
|   \\  /    A nd           | Website:  www.openfoam.com                      |
|    \\/     M anipulation  |                                                 |
\*---------------------------------------------------------------------------*/
FoamFile
{
    version     2.0;
    format      ascii;
    class       surfaceScalarField;
    location    "14";
    object      alphaPhi0.water;
}
// * * * * * * * * * * * * * * * * * * * * * * * * * * * * * * * * * * * * * //

dimensions      [0 3 -1 0 0 0 0];
oriented        oriented;


internalField   nonuniform List<scalar> 
99450
(
1.98059e-05
-1.98059e-05
5.3374e-05
-3.35681e-05
8.60112e-05
-3.26372e-05
0.000115527
-2.95163e-05
0.000142918
-2.73905e-05
0.000169499
-2.65805e-05
0.000195485
-2.59866e-05
0.000220948
-2.54634e-05
0.000245814
-2.48656e-05
0.000270007
-2.41928e-05
0.000293484
-2.3477e-05
0.000316214
-2.27305e-05
0.000338172
-2.19572e-05
0.000359338
-2.11668e-05
0.000379697
-2.03585e-05
0.000399229
-1.95324e-05
0.000417929
-1.86997e-05
0.000435778
-1.78487e-05
0.000452765
-1.69872e-05
0.000468881
-1.61159e-05
0.000484114
-1.52327e-05
0.000498454
-1.43403e-05
0.000511895
-1.34415e-05
0.000524428
-1.25324e-05
0.000536027
-1.15997e-05
0.000546679
-1.06513e-05
0.000556374
-9.69507e-06
0.00056509
-8.71573e-06
0.000572806
-7.7165e-06
0.00057949
-6.68424e-06
0.000585108
-5.61771e-06
0.000589603
-4.49496e-06
0.000592906
-3.30274e-06
0.000594935
-2.02952e-06
0.000595616
-6.81081e-07
0.000594874
7.42116e-07
0.000592622
2.25236e-06
0.000588888
3.73339e-06
0.000583719
5.16898e-06
0.000577101
6.6187e-06
0.000569039
8.06151e-06
0.00055958
9.45905e-06
0.000548879
1.07009e-05
0.000537148
1.17314e-05
0.000524591
1.25566e-05
0.000511382
1.32096e-05
0.000497679
1.3703e-05
0.00048369
1.39889e-05
0.000469675
1.40145e-05
0.000455891
1.37839e-05
0.000442531
1.33601e-05
0.000429688
1.28433e-05
0.000417348
1.234e-05
0.000405433
1.19153e-05
0.000393842
1.15905e-05
0.000382479
1.13632e-05
0.000371286
1.11929e-05
0.00036023
1.10558e-05
0.000349292
1.09388e-05
0.000338459
1.08327e-05
0.000327732
1.07266e-05
0.0003171
1.06323e-05
0.000306552
1.05477e-05
0.000296084
1.04682e-05
0.000285694
1.03905e-05
0.000275383
1.0311e-05
0.000265146
1.02366e-05
0.00025498
1.01657e-05
0.000244887
1.00932e-05
0.000234865
1.0022e-05
0.000224916
9.94918e-06
0.000215042
9.87395e-06
0.000205247
9.79539e-06
0.000195536
9.71005e-06
0.00018591
9.62667e-06
0.000176375
9.53485e-06
0.000166936
9.43904e-06
0.000157595
9.34053e-06
0.000148354
9.24185e-06
0.000139207
9.14647e-06
0.000130148
9.05939e-06
0.000121164
8.98343e-06
0.00011224
8.92418e-06
0.000103353
8.88689e-06
9.44799e-05
8.87324e-06
8.55932e-05
8.8867e-06
7.66525e-05
8.94068e-06
6.76248e-05
9.02779e-06
5.84658e-05
9.15894e-06
4.91103e-05
9.35547e-06
3.9499e-05
9.61137e-06
2.95378e-05
9.96112e-06
1.91119e-05
1.04259e-05
8.08544e-06
1.10265e-05
-3.71506e-06
1.18005e-05
-1.65198e-05
1.28048e-05
-3.06598e-05
1.414e-05
-4.65121e-05
1.58522e-05
-6.43038e-05
1.77917e-05
-8.39693e-05
1.96655e-05
-0.000105227
2.12572e-05
-0.000127618
2.23916e-05
-0.00015058
2.29614e-05
-0.000173516
2.29362e-05
-0.000195923
2.24075e-05
-0.000217387
2.14637e-05
-0.000237632
2.02452e-05
-0.000256393
1.87613e-05
-0.000273431
1.70378e-05
-0.000288464
1.50328e-05
-0.000301188
1.27242e-05
-0.000311371
1.01832e-05
-0.000318963
7.59121e-06
-0.000324119
5.15664e-06
-0.000327179
3.05967e-06
-0.000328547
1.36817e-06
-0.000328522
-2.48591e-08
-0.000327448
-1.07427e-06
-0.000325508
-1.94004e-06
-0.000322825
-2.68277e-06
-0.000319453
-3.3719e-06
-0.000315434
-4.01918e-06
-0.000310815
-4.61948e-06
-0.000305624
-5.19046e-06
-0.000299889
-5.73561e-06
-0.00029362
-6.26855e-06
-0.000286851
-6.76899e-06
-0.000279557
-7.29452e-06
-0.000271749
-7.80733e-06
-0.000263435
-8.31375e-06
-0.000254621
-8.81415e-06
-0.000245307
-9.31468e-06
-0.000235497
-9.8099e-06
-0.000225195
-1.03015e-05
-0.000214408
-1.07871e-05
-0.000203133
-1.12756e-05
-0.000191366
-1.17661e-05
-0.000179116
-1.22505e-05
-0.000166378
-1.27381e-05
-0.000153156
-1.32223e-05
-0.000139448
-1.37074e-05
-0.000125262
-1.41858e-05
-0.000110618
-1.46443e-05
-9.54819e-05
-1.51363e-05
-7.98188e-05
-1.56631e-05
-6.35813e-05
-1.62375e-05
-4.68944e-05
-1.66869e-05
-2.96844e-05
-1.721e-05
-1.26243e-05
-1.70601e-05
-1.26243e-05
1.55753e-05
-3.53812e-05
4.19256e-05
-5.99184e-05
6.66071e-05
-5.73186e-05
8.75259e-05
-5.04351e-05
0.000106605
-4.64694e-05
0.000124895
-4.48703e-05
0.000142865
-4.39569e-05
0.000160346
-4.29446e-05
0.000177196
-4.1716e-05
0.000193358
-4.03547e-05
0.000208807
-3.89257e-05
0.000223543
-3.74669e-05
0.000237562
-3.5976e-05
0.000250866
-3.44709e-05
0.000263457
-3.29494e-05
0.000275348
-3.14235e-05
0.00028656
-2.99114e-05
0.000297109
-2.83982e-05
0.000307017
-2.68952e-05
0.0003163
-2.53986e-05
0.000324986
-2.39189e-05
0.000333112
-2.24664e-05
0.000340688
-2.10169e-05
0.000347749
-1.95937e-05
0.000354325
-1.81758e-05
0.000360441
-1.67666e-05
0.000366121
-1.53758e-05
0.000371398
-1.39928e-05
0.000376302
-1.26204e-05
0.000380873
-1.12552e-05
0.00038514
-9.88456e-06
0.000389157
-8.51226e-06
0.00039297
-7.11526e-06
0.000396632
-5.69202e-06
0.000400169
-4.2174e-06
0.000403592
-2.68153e-06
0.000406909
-1.06462e-06
0.000410008
6.34326e-07
0.000412955
2.22248e-06
0.000415718
3.85523e-06
0.000418282
5.49781e-06
0.000420596
7.14551e-06
0.000422521
8.77515e-06
0.000423914
1.03392e-05
0.00042465
1.18206e-05
0.000424633
1.3226e-05
0.00042379
1.45462e-05
0.000422037
1.57419e-05
0.000419307
1.67444e-05
0.000415563
1.75281e-05
0.000410807
1.81158e-05
0.000405113
1.85378e-05
0.000398602
1.88503e-05
0.000391398
1.91198e-05
0.000383607
1.93811e-05
0.000375306
1.96639e-05
0.00036655
1.99497e-05
0.000357375
2.02302e-05
0.000347785
2.05289e-05
0.000337825
2.0793e-05
0.000327488
2.10639e-05
0.000316813
2.13071e-05
0.000305835
2.15255e-05
0.000294578
2.17257e-05
0.000283067
2.19009e-05
0.000271332
2.20465e-05
0.000259403
2.2165e-05
0.000247313
2.22556e-05
0.000235096
2.23109e-05
0.000222767
2.23508e-05
0.000210365
2.23513e-05
0.000197916
2.23224e-05
0.000185451
2.22607e-05
0.000172995
2.21657e-05
0.00016058
2.20416e-05
0.000148236
2.18796e-05
0.000135993
2.16812e-05
0.000123883
2.14511e-05
0.000111936
2.11889e-05
0.000100182
2.09e-05
8.86521e-05
2.05895e-05
7.73721e-05
2.02634e-05
6.63684e-05
1.99278e-05
5.5661e-05
1.95943e-05
4.52707e-05
1.92636e-05
3.52121e-05
1.89453e-05
2.5494e-05
1.86588e-05
1.61302e-05
1.83916e-05
7.12006e-06
1.81691e-05
-1.52331e-06
1.79988e-05
-9.79702e-06
1.78851e-05
-1.76844e-05
1.78485e-05
-2.51704e-05
1.79119e-05
-3.22187e-05
1.80748e-05
-3.87723e-05
1.8354e-05
-4.47589e-05
1.87914e-05
-5.0056e-05
1.94371e-05
-5.44411e-05
2.02374e-05
-5.79414e-05
2.1292e-05
-6.07209e-05
2.2445e-05
-6.30258e-05
2.35621e-05
-6.49519e-05
2.43178e-05
-6.65299e-05
2.45394e-05
-6.76688e-05
2.40752e-05
-6.81527e-05
2.28914e-05
-6.77399e-05
2.10509e-05
-6.61922e-05
1.86975e-05
-6.33916e-05
1.59607e-05
-5.92681e-05
1.29143e-05
-5.39591e-05
9.7238e-06
-4.76897e-05
6.45484e-06
-4.07775e-05
3.27098e-06
-3.35906e-05
4.04329e-07
-2.62047e-05
-2.22927e-06
-1.87578e-05
-4.38723e-06
-1.13411e-05
-6.04857e-06
-4.05244e-06
-7.31347e-06
3.11281e-06
-8.23952e-06
1.00803e-05
-8.90751e-06
1.68149e-05
-9.41742e-06
2.3264e-05
-9.82097e-06
2.9407e-05
-1.01622e-05
3.51261e-05
-1.03386e-05
4.0438e-05
-1.05024e-05
4.52624e-05
-1.05599e-05
4.95804e-05
-1.05866e-05
5.34004e-05
-1.05891e-05
5.66763e-05
-1.05703e-05
5.94229e-05
-1.0554e-05
6.16236e-05
-1.05145e-05
6.32542e-05
-1.04447e-05
6.42897e-05
-1.03502e-05
6.47169e-05
-1.02371e-05
6.45271e-05
-1.01117e-05
6.37119e-05
-9.97186e-06
6.22843e-05
-9.84808e-06
6.02863e-05
-9.76801e-06
5.77026e-05
-9.66681e-06
5.4606e-05
-9.6415e-06
5.09916e-05
-9.60788e-06
4.69316e-05
-9.64731e-06
4.2481e-05
-9.73521e-06
3.76864e-05
-9.84969e-06
3.25512e-05
-1.00011e-05
2.70449e-05
-1.01568e-05
2.10909e-05
-1.02834e-05
1.4675e-05
-1.0271e-05
8.79047e-06
-1.13255e-05
5.51027e-06
-1.37799e-05
-7.11407e-06
1.64269e-05
-5.18081e-05
4.59738e-05
-8.94653e-05
7.50324e-05
-8.63772e-05
9.97244e-05
-7.5127e-05
0.000121466
-6.82107e-05
0.000141955
-6.53599e-05
0.000162073
-6.40744e-05
0.00018179
-6.26623e-05
0.000200909
-6.08349e-05
0.000219273
-5.8718e-05
0.00023682
-5.64728e-05
0.00025355
-5.41975e-05
0.000269457
-5.1883e-05
0.000284546
-4.95602e-05
0.000298834
-4.72365e-05
0.00031232
-4.49103e-05
0.000325014
-4.26048e-05
0.000336937
-4.0321e-05
0.000348109
-3.80678e-05
0.000358546
-3.58353e-05
0.000368269
-3.36422e-05
0.000377287
-3.14845e-05
0.000385625
-2.9355e-05
0.000393286
-2.72541e-05
0.000400295
-2.5185e-05
0.000406676
-2.31472e-05
0.000412422
-2.11221e-05
0.000417559
-1.91295e-05
0.000422089
-1.71506e-05
0.000426019
-1.51858e-05
0.000429362
-1.32272e-05
0.00043212
-1.127e-05
0.00043431
-9.30557e-06
0.00043595
-7.33219e-06
0.00043705
-5.31744e-06
0.00043762
-3.25126e-06
0.000437753
-1.19709e-06
0.000437588
7.98819e-07
0.000436862
2.94852e-06
0.000435719
4.99801e-06
0.000434207
7.00973e-06
0.000432345
9.00809e-06
0.000430117
1.10027e-05
0.000427522
1.29348e-05
0.000424548
1.47941e-05
0.000421198
1.65759e-05
0.000417464
1.82801e-05
0.000413294
1.99117e-05
0.000408616
2.14229e-05
0.00040336
2.27838e-05
0.00039748
2.3996e-05
0.000390967
2.50512e-05
0.000383834
2.59828e-05
0.000376154
2.67994e-05
0.000367992
2.7544e-05
0.000359397
2.8258e-05
0.0003504
2.8947e-05
0.000341044
2.95861e-05
0.000331366
3.02072e-05
0.000321364
3.0795e-05
0.000311085
3.1343e-05
0.000300543
3.18485e-05
0.000289754
3.23147e-05
0.000278754
3.2726e-05
0.000267574
3.3081e-05
0.000256235
3.33851e-05
0.00024476
3.36403e-05
0.000233172
3.38433e-05
0.000221492
3.3991e-05
0.000209759
3.40839e-05
0.00019799
3.41204e-05
0.000186212
3.41004e-05
0.000174448
3.40248e-05
0.00016272
3.38937e-05
0.000151048
3.37132e-05
0.000139464
3.34641e-05
0.000127994
3.31507e-05
0.000116665
3.27805e-05
0.000105493
3.23607e-05
9.45034e-05
3.18899e-05
8.3719e-05
3.13738e-05
7.31629e-05
3.08195e-05
6.28554e-05
3.02354e-05
5.28206e-05
2.9629e-05
4.30805e-05
2.90038e-05
3.36532e-05
2.83725e-05
2.45633e-05
2.77487e-05
1.58117e-05
2.71433e-05
7.42525e-06
2.65555e-05
-5.82689e-07
2.60068e-05
-8.18721e-06
2.54896e-05
-1.53805e-05
2.50418e-05
-2.21168e-05
2.46482e-05
-2.83822e-05
2.43402e-05
-3.41695e-05
2.41413e-05
-3.93343e-05
2.39562e-05
-4.37918e-05
2.38946e-05
-4.75196e-05
2.39652e-05
-5.0239e-05
2.40115e-05
-5.19131e-05
2.4119e-05
-5.25189e-05
2.41679e-05
-5.21145e-05
2.39134e-05
-5.09047e-05
2.33296e-05
-4.90936e-05
2.2264e-05
-4.69155e-05
2.07133e-05
-4.45877e-05
1.8723e-05
-4.2256e-05
1.63658e-05
-4.00372e-05
1.37419e-05
-3.81143e-05
1.09914e-05
-3.64906e-05
8.10011e-06
-3.52373e-05
5.20148e-06
-3.43302e-05
2.36387e-06
-3.35213e-05
-4.04541e-07
-3.29761e-05
-2.77444e-06
-3.2472e-05
-4.89134e-06
-3.17966e-05
-6.72397e-06
-3.08172e-05
-8.29294e-06
-2.94378e-05
-9.61891e-06
-2.7496e-05
-1.08493e-05
-2.49617e-05
-1.19517e-05
-2.17793e-05
-1.30033e-05
-1.8113e-05
-1.38284e-05
-1.38619e-05
-1.45898e-05
-9.24493e-06
-1.51193e-05
-4.24054e-06
-1.55643e-05
1.02269e-06
-1.58498e-05
6.45377e-06
-1.60201e-05
1.1969e-05
-1.60855e-05
1.74279e-05
-1.60129e-05
2.27552e-05
-1.58418e-05
2.78594e-05
-1.55489e-05
3.26238e-05
-1.51146e-05
3.69732e-05
-1.45865e-05
4.07685e-05
-1.39071e-05
4.39809e-05
-1.31842e-05
4.64521e-05
-1.23192e-05
4.81468e-05
-1.14627e-05
4.89805e-05
-1.05006e-05
4.89239e-05
-9.58487e-06
4.79358e-05
-8.61981e-06
4.60205e-05
-7.73203e-06
4.31608e-05
-6.87546e-06
3.94061e-05
-6.09499e-06
3.48224e-05
-5.41746e-06
2.93659e-05
-4.70033e-06
2.30062e-05
-3.92374e-06
1.60372e-05
-3.30191e-06
1.02789e-05
-5.56723e-06
7.88071e-06
-1.13817e-05
7.66637e-07
1.76716e-05
-6.94797e-05
4.98164e-05
-0.00012161
8.19697e-05
-0.000118531
0.000109908
-0.000103065
0.000134541
-9.28442e-05
0.000157616
-8.84342e-05
0.00018008
-8.65384e-05
0.000202071
-8.46541e-05
0.000223411
-8.21745e-05
0.000243929
-7.92357e-05
0.000263543
-7.60868e-05
0.000282226
-7.28807e-05
0.000299977
-6.96336e-05
0.000316793
-6.63768e-05
0.00033267
-6.31132e-05
0.000347619
-5.98592e-05
0.000361633
-5.66189e-05
0.000374739
-5.34276e-05
0.000386939
-5.02678e-05
0.000398266
-4.71621e-05
0.000408733
-4.41093e-05
0.000418345
-4.10966e-05
0.00042714
-3.81491e-05
0.000435129
-3.52438e-05
0.000442335
-3.23905e-05
0.000448774
-2.95866e-05
0.000454481
-2.68292e-05
0.000459455
-2.41029e-05
0.000463714
-2.14095e-05
0.000467269
-1.87412e-05
0.000470143
-1.61018e-05
0.000472339
-1.34657e-05
0.000473868
-1.0835e-05
0.000474743
-8.20704e-06
0.00047501
-5.5837e-06
0.000474715
-2.95634e-06
0.000473777
-2.59344e-07
0.000472207
2.36922e-06
0.000470192
4.96298e-06
0.000467663
7.52738e-06
0.00046461
1.00628e-05
0.000461069
1.25488e-05
0.000457081
1.4991e-05
0.000452658
1.73578e-05
0.000447805
1.96464e-05
0.000442537
2.18445e-05
0.000436882
2.39351e-05
0.00043088
2.5913e-05
0.000424537
2.77666e-05
0.000417819
2.9501e-05
0.000410698
3.11178e-05
0.000403163
3.25862e-05
0.000395204
3.39418e-05
0.000386802
3.52008e-05
0.000377989
3.63579e-05
0.000368802
3.74449e-05
0.000359283
3.84656e-05
0.000349451
3.94177e-05
0.00033935
4.03087e-05
0.000329004
4.1141e-05
0.000318438
4.19085e-05
0.000307677
4.26094e-05
0.000296752
4.32399e-05
0.000285674
4.38044e-05
0.00027447
4.42848e-05
0.000263156
4.4699e-05
0.000251755
4.50417e-05
0.000240288
4.53104e-05
0.000228776
4.55031e-05
0.00021724
4.56201e-05
0.000205698
4.56617e-05
0.00019417
4.56288e-05
0.000182678
4.55168e-05
0.000171236
4.53352e-05
0.000159869
4.50805e-05
0.00014859
4.4743e-05
0.000137414
4.43268e-05
0.000126354
4.38405e-05
0.00011543
4.3285e-05
0.000104651
4.26687e-05
9.40323e-05
4.19923e-05
8.35898e-05
4.1262e-05
7.33399e-05
4.04853e-05
6.3299e-05
3.96699e-05
5.34795e-05
3.88232e-05
4.38974e-05
3.79546e-05
3.45711e-05
3.7075e-05
2.55213e-05
3.61931e-05
1.67619e-05
3.53149e-05
8.32473e-06
3.44439e-05
2.18973e-07
3.35954e-05
-7.52174e-06
3.27825e-05
-1.48822e-05
3.20086e-05
-2.17936e-05
3.12516e-05
-2.81867e-05
3.05345e-05
-3.41415e-05
2.9911e-05
-3.95327e-05
2.92857e-05
-4.42893e-05
2.87218e-05
-4.84175e-05
2.81397e-05
-5.18208e-05
2.75223e-05
-5.4417e-05
2.67641e-05
-5.64214e-05
2.59179e-05
-5.78571e-05
2.47652e-05
-5.89339e-05
2.33408e-05
-5.98704e-05
2.16498e-05
-6.08345e-05
1.96871e-05
-6.19576e-05
1.74889e-05
-6.32835e-05
1.50678e-05
-6.48533e-05
1.25613e-05
-6.6722e-05
9.96878e-06
-6.88465e-05
7.32596e-06
-7.1152e-05
4.66935e-06
-7.36625e-05
2.10602e-06
-7.62749e-05
-1.62098e-07
-7.86217e-05
-2.54449e-06
-8.06224e-05
-4.72325e-06
-8.22594e-05
-6.65599e-06
-8.34305e-05
-8.44781e-06
-8.41078e-05
-1.01719e-05
-8.43205e-05
-1.17391e-05
-8.41648e-05
-1.3159e-05
-8.34681e-05
-1.45251e-05
-8.23051e-05
-1.57528e-05
-8.05727e-05
-1.68517e-05
-7.83313e-05
-1.78058e-05
-7.56095e-05
-1.85716e-05
-7.2356e-05
-1.92736e-05
-6.8715e-05
-1.97266e-05
-6.47015e-05
-2.00263e-05
-6.02873e-05
-2.0256e-05
-5.55844e-05
-2.02517e-05
-5.06384e-05
-2.00606e-05
-4.5545e-05
-1.96799e-05
-4.03632e-05
-1.90889e-05
-3.51916e-05
-1.83558e-05
-3.00881e-05
-1.74227e-05
-2.52335e-05
-1.63173e-05
-2.06308e-05
-1.51033e-05
-1.64458e-05
-1.37698e-05
-1.26912e-05
-1.23744e-05
-9.52003e-06
-1.09032e-05
-6.9109e-06
-9.48459e-06
-4.90569e-06
-8.10019e-06
-3.58723e-06
-6.73593e-06
-3.08132e-06
-5.20623e-06
-3.56263e-06
-3.44243e-06
-3.95795e-06
-2.90658e-06
-1.95476e-06
-7.57042e-06
3.32284e-06
-1.66593e-05
4.08948e-06
1.82846e-05
-8.77643e-05
5.16056e-05
-0.000154931
8.50949e-05
-0.00015202
0.000114504
-0.000132474
0.000140497
-0.000118838
0.000164759
-0.000112695
0.000188193
-0.000109973
0.000211028
-0.000107489
0.000233118
-0.000104264
0.000254326
-0.000100444
0.000274573
-9.63335e-05
0.000293808
-9.21154e-05
0.000312052
-8.78781e-05
0.000329282
-8.36069e-05
0.000345499
-7.93299e-05
0.000360707
-7.50672e-05
0.00037493
-7.08415e-05
0.000388156
-6.66537e-05
0.000400426
-6.25377e-05
0.000411743
-5.84797e-05
0.000422145
-5.45115e-05
0.000431653
-5.06044e-05
0.000440275
-4.67707e-05
0.000448057
-4.30263e-05
0.000455021
-3.9354e-05
0.000461175
-3.57411e-05
0.00046654
-3.21941e-05
0.00047115
-2.87128e-05
0.000475025
-2.52844e-05
0.000478192
-2.19076e-05
0.000480651
-1.85618e-05
0.000482439
-1.52533e-05
0.000483588
-1.19839e-05
0.000484103
-8.72163e-06
0.000484005
-5.48651e-06
0.000483331
-2.28227e-06
0.000482262
8.09597e-07
0.000480644
3.98727e-06
0.000478514
7.09325e-06
0.000475899
1.01428e-05
0.000472813
1.31489e-05
0.000469276
1.60853e-05
0.00046532
1.89469e-05
0.000460928
2.17501e-05
0.000456118
2.44569e-05
0.000450877
2.70851e-05
0.00044521
2.96018e-05
0.00043913
3.19936e-05
0.000432623
3.42735e-05
0.00042571
3.6414e-05
0.000418394
3.84339e-05
0.000410668
4.03117e-05
0.000402542
4.20679e-05
0.000394034
4.3709e-05
0.000385148
4.52439e-05
0.000375911
4.66818e-05
0.000366349
4.80275e-05
0.000356488
4.9279e-05
0.000346354
5.0443e-05
0.000335974
5.15207e-05
0.000325373
5.25092e-05
0.00031457
5.34128e-05
0.000303586
5.42238e-05
0.000292462
5.49277e-05
0.000281204
5.55437e-05
0.000269832
5.60706e-05
0.000258369
5.65048e-05
0.000246836
5.68435e-05
0.000235251
5.70876e-05
0.000223634
5.72378e-05
0.000212003
5.72921e-05
0.000200381
5.7251e-05
0.000188781
5.71165e-05
0.000177223
5.68932e-05
0.00016571
5.65937e-05
0.000154273
5.61805e-05
0.000142938
5.56613e-05
0.000131708
5.50708e-05
0.000120595
5.43984e-05
0.000109614
5.36495e-05
9.87793e-05
5.28268e-05
8.81048e-05
5.19365e-05
7.76051e-05
5.0985e-05
6.72957e-05
4.99793e-05
5.71932e-05
4.89257e-05
4.73155e-05
4.78323e-05
3.76832e-05
4.67073e-05
2.83166e-05
4.55597e-05
1.92122e-05
4.44193e-05
1.04322e-05
4.32239e-05
1.97689e-06
4.20506e-05
-6.11566e-06
4.08751e-05
-1.38384e-05
3.97314e-05
-2.11867e-05
3.85999e-05
-2.81288e-05
3.74766e-05
-3.4603e-05
3.63853e-05
-4.05591e-05
3.52418e-05
-4.59747e-05
3.41374e-05
-5.08574e-05
3.30223e-05
-5.51695e-05
3.18344e-05
-5.89868e-05
3.05815e-05
-6.2262e-05
2.91931e-05
-6.51144e-05
2.76176e-05
-6.76651e-05
2.58914e-05
-6.9959e-05
2.39437e-05
-7.20885e-05
2.18166e-05
-7.40586e-05
1.94591e-05
-7.60622e-05
1.70714e-05
-7.80274e-05
1.45265e-05
-7.99759e-05
1.19173e-05
-8.19472e-05
9.29726e-06
-8.39302e-05
6.65232e-06
-8.59586e-05
4.13438e-06
-8.78238e-05
1.7031e-06
-8.96121e-05
-7.56127e-07
-9.14407e-05
-2.89467e-06
-9.31573e-05
-4.93939e-06
-9.47255e-05
-6.87965e-06
-9.62224e-05
-8.675e-06
-9.75225e-05
-1.0439e-05
-9.86163e-05
-1.20652e-05
-9.95472e-05
-1.35942e-05
-0.000100223
-1.50767e-05
-0.000100654
-1.64212e-05
-0.000100781
-1.76782e-05
-0.000100544
-1.88091e-05
-0.000100015
-1.98022e-05
-9.90533e-05
-2.06886e-05
-9.76524e-05
-2.14272e-05
-9.59123e-05
-2.19961e-05
-9.37191e-05
-2.2445e-05
-9.10739e-05
-2.27058e-05
-8.79853e-05
-2.27684e-05
-8.44745e-05
-2.25997e-05
-8.05749e-05
-2.22555e-05
-7.63058e-05
-2.16918e-05
-7.16826e-05
-2.09404e-05
-6.67941e-05
-1.99918e-05
-6.17039e-05
-1.88601e-05
-5.64484e-05
-1.76299e-05
-5.1069e-05
-1.62826e-05
-4.56584e-05
-1.48952e-05
-4.02505e-05
-1.35082e-05
-3.49871e-05
-1.19993e-05
-3.00966e-05
-1.00968e-05
-2.55016e-05
-8.03737e-06
-2.00212e-05
-8.38706e-06
-1.14741e-05
-1.61175e-05
-7.91671e-07
-2.73417e-05
3.29781e-06
1.88095e-05
-0.000106574
5.31578e-05
-0.000189279
8.79153e-05
-0.000186777
0.000118426
-0.000162985
0.000145232
-0.000145643
0.000170048
-0.000137512
0.000193899
-0.000133824
0.000217043
-0.000130633
0.000239385
-0.000126607
0.000260771
-0.00012183
0.000281126
-0.000116689
0.000300423
-0.000111412
0.000318648
-0.000106104
0.000335808
-0.000100766
0.000351924
-9.54455e-05
0.000366997
-9.01408e-05
0.000381043
-8.48878e-05
0.000394087
-7.96973e-05
0.000406156
-7.46069e-05
0.000417279
-6.9602e-05
0.000427462
-6.46953e-05
0.000436759
-5.99015e-05
0.000445198
-5.52098e-05
0.000452787
-5.0615e-05
0.000459575
-4.6142e-05
0.000465575
-4.17405e-05
0.000470811
-3.74306e-05
0.000475322
-3.32237e-05
0.000479126
-2.90885e-05
0.000482239
-2.50202e-05
0.000484676
-2.09996e-05
0.000486468
-1.7045e-05
0.000487632
-1.31474e-05
0.000488198
-9.2882e-06
0.000488197
-5.48549e-06
0.000487648
-1.7329e-06
0.000486429
2.02807e-06
0.000484741
5.67531e-06
0.000482545
9.28952e-06
0.000479849
1.2839e-05
0.000476671
1.6327e-05
0.000473014
1.97424e-05
0.000468909
2.30515e-05
0.000464376
2.62827e-05
0.000459406
2.94273e-05
0.00045402
3.24707e-05
0.000448233
3.53893e-05
0.000442045
3.81812e-05
0.000435447
4.08722e-05
0.000428457
4.34038e-05
0.000421071
4.58195e-05
0.00041327
4.81127e-05
0.00040507
5.0268e-05
0.000396495
5.22841e-05
0.000387548
5.41904e-05
0.000378251
5.59791e-05
0.000368631
5.76478e-05
0.000358707
5.92027e-05
0.000348506
6.06443e-05
0.000338048
6.19788e-05
0.000327351
6.32055e-05
0.000316454
6.43103e-05
0.000305388
6.52902e-05
0.000294149
6.61666e-05
0.000282762
6.69302e-05
0.000271253
6.75796e-05
0.000259642
6.81158e-05
0.00024795
6.85354e-05
0.000236197
6.88404e-05
0.000224405
6.90305e-05
0.00021259
6.91068e-05
0.000200771
6.90697e-05
0.000188969
6.89187e-05
0.000177203
6.86592e-05
0.00016549
6.83063e-05
0.000153838
6.78323e-05
0.000142282
6.72178e-05
0.000130833
6.652e-05
0.000119506
6.57248e-05
0.000108318
6.4838e-05
9.72842e-05
6.38605e-05
8.64228e-05
6.27979e-05
7.57508e-05
6.1657e-05
6.52858e-05
6.04443e-05
5.50461e-05
5.91655e-05
4.50499e-05
5.78285e-05
3.53166e-05
5.64406e-05
2.58675e-05
5.50088e-05
1.67272e-05
5.35596e-05
7.9032e-06
5.20479e-05
-5.68222e-07
5.05221e-05
-8.69567e-06
4.90025e-05
-1.64047e-05
4.74404e-05
-2.36886e-05
4.58838e-05
-3.0541e-05
4.4329e-05
-3.68991e-05
4.27433e-05
-4.28629e-05
4.12057e-05
-4.82993e-05
3.95738e-05
-5.32087e-05
3.79317e-05
-5.76221e-05
3.62479e-05
-6.15314e-05
3.44908e-05
-6.4927e-05
3.25887e-05
-6.79528e-05
3.06434e-05
-7.06053e-05
2.85439e-05
-7.29471e-05
2.62855e-05
-7.50461e-05
2.39156e-05
-7.70779e-05
2.14909e-05
-7.89274e-05
1.89209e-05
-8.07066e-05
1.63057e-05
-8.24237e-05
1.36343e-05
-8.40984e-05
1.0972e-05
-8.58465e-05
8.40039e-06
-8.75307e-05
5.81857e-06
-8.91358e-05
3.30824e-06
-9.07973e-05
9.05328e-07
-9.24156e-05
-1.27633e-06
-9.38534e-05
-3.50167e-06
-9.51558e-05
-5.57716e-06
-9.63055e-05
-7.52539e-06
-9.73512e-05
-9.3933e-06
-9.8266e-05
-1.11504e-05
-9.9061e-05
-1.27992e-05
-9.97385e-05
-1.43992e-05
-0.000100287
-1.58725e-05
-0.000100729
-1.72361e-05
-0.000101001
-1.85375e-05
-0.000101072
-1.97308e-05
-0.000100944
-2.08167e-05
-0.000100568
-2.1803e-05
-9.99078e-05
-2.26567e-05
-9.89567e-05
-2.3396e-05
-9.76671e-05
-2.39954e-05
-9.60131e-05
-2.44225e-05
-9.39342e-05
-2.46786e-05
-9.14286e-05
-2.47611e-05
-8.84584e-05
-2.4662e-05
-8.50006e-05
-2.43982e-05
-8.10412e-05
-2.39512e-05
-7.66065e-05
-2.32948e-05
-7.17114e-05
-2.2525e-05
-6.63672e-05
-2.16268e-05
-6.05793e-05
-2.0683e-05
-5.44082e-05
-1.96793e-05
-4.79389e-05
-1.84685e-05
-4.13403e-05
-1.66955e-05
-3.45498e-05
-1.48278e-05
-2.65015e-05
-1.64354e-05
-1.56835e-05
-2.69354e-05
-3.27252e-06
-3.97527e-05
2.52822e-08
1.93603e-05
-0.000125934
5.501e-05
-0.000224929
9.16164e-05
-0.000223384
0.000123794
-0.000195163
0.000151714
-0.000173563
0.000177206
-0.000163003
0.000201511
-0.000158128
0.000225029
-0.000154151
0.00024767
-0.000149247
0.000269288
-0.000143449
0.000289784
-0.000137184
0.000309137
-0.000130766
0.00032735
-0.000124316
0.000344439
-0.000117855
0.000360418
-0.000111425
0.000375317
-0.000105039
0.000389171
-9.87424e-05
0.00040201
-9.25361e-05
0.000413846
-8.6443e-05
0.000424733
-8.04888e-05
0.000434707
-7.46693e-05
0.000443802
-6.89965e-05
0.000452042
-6.34499e-05
0.000459461
-5.80341e-05
0.000466082
-5.27623e-05
0.000471946
-4.76047e-05
0.000477078
-4.25624e-05
0.000481492
-3.76381e-05
0.000485208
-3.28046e-05
0.000488246
-2.80578e-05
0.000490634
-2.33879e-05
0.000492387
-1.87975e-05
0.000493508
-1.4269e-05
0.000494042
-9.82204e-06
0.000493969
-5.41237e-06
0.000493304
-1.06817e-06
0.000492153
3.17956e-06
0.000490435
7.39341e-06
0.000488204
1.15204e-05
0.000485463
1.55794e-05
0.00048222
1.95702e-05
0.000478491
2.34716e-05
0.00047427
2.72729e-05
0.000469588
3.09638e-05
0.000464461
3.45551e-05
0.000458896
3.80357e-05
0.000452892
4.13925e-05
0.00044645
4.46234e-05
0.000439596
4.7726e-05
0.000432312
5.06877e-05
0.000424625
5.35072e-05
0.000416551
5.61866e-05
0.000408094
5.87253e-05
0.000399252
6.11259e-05
0.000390047
6.33949e-05
0.000380508
6.55183e-05
0.000370649
6.75065e-05
0.000360492
6.936e-05
0.000350057
7.10794e-05
0.00033937
7.26656e-05
0.000328467
7.41084e-05
0.000317361
7.54164e-05
0.000306059
7.65927e-05
0.000294589
7.76359e-05
0.000282975
7.85444e-05
0.000271236
7.93184e-05
0.000259396
7.99562e-05
0.000247476
8.04558e-05
0.000235492
8.08239e-05
0.000223468
8.10545e-05
0.000211424
8.11508e-05
0.00019938
8.11141e-05
0.000187353
8.09451e-05
0.000175365
8.06476e-05
0.000163437
8.02343e-05
0.000151577
7.96922e-05
0.000139814
7.89812e-05
0.000128171
7.8163e-05
0.000116662
7.72331e-05
0.000105307
7.61935e-05
9.41221e-05
7.50453e-05
8.31257e-05
7.37943e-05
7.23369e-05
7.24458e-05
6.17749e-05
7.10062e-05
5.14587e-05
6.94818e-05
4.14085e-05
6.78786e-05
3.16429e-05
6.62062e-05
2.21821e-05
6.44697e-05
1.30626e-05
6.26791e-05
4.2478e-06
6.08627e-05
-4.18559e-06
5.89554e-05
-1.22179e-05
5.70348e-05
-1.98755e-05
5.5098e-05
-2.71013e-05
5.31096e-05
-3.39018e-05
5.11296e-05
-4.02544e-05
4.90959e-05
-4.60961e-05
4.70474e-05
-5.15209e-05
4.49986e-05
-5.64406e-05
4.28514e-05
-6.0904e-05
4.07113e-05
-6.48585e-05
3.84452e-05
-6.84863e-05
3.62165e-05
-7.16771e-05
3.38342e-05
-7.44924e-05
3.13592e-05
-7.70474e-05
2.88405e-05
-7.93504e-05
2.62186e-05
-8.14215e-05
2.35619e-05
-8.32853e-05
2.07847e-05
-8.50167e-05
1.80371e-05
-8.66807e-05
1.52984e-05
-8.82512e-05
1.25425e-05
-8.96899e-05
9.8391e-06
-9.10544e-05
7.18308e-06
-9.23324e-05
4.58626e-06
-9.35478e-05
2.12069e-06
-9.45253e-05
-2.98776e-07
-9.54338e-05
-2.59321e-06
-9.62556e-05
-4.75531e-06
-9.69328e-05
-6.84823e-06
-9.74892e-05
-8.83689e-06
-9.79501e-05
-1.06894e-05
-9.82611e-05
-1.24882e-05
-9.84596e-05
-1.42007e-05
-9.85431e-05
-1.5789e-05
-9.84835e-05
-1.72957e-05
-9.82764e-05
-1.87446e-05
-9.794e-05
-2.00672e-05
-9.74489e-05
-2.13077e-05
-9.68123e-05
-2.24396e-05
-9.59868e-05
-2.34822e-05
-9.49586e-05
-2.44243e-05
-9.37058e-05
-2.52482e-05
-9.21547e-05
-2.59736e-05
-9.03375e-05
-2.64957e-05
-8.81809e-05
-2.69177e-05
-8.56348e-05
-2.72081e-05
-8.2675e-05
-2.7358e-05
-7.93021e-05
-2.73241e-05
-7.54227e-05
-2.71743e-05
-7.10518e-05
-2.68958e-05
-6.61812e-05
-2.64974e-05
-6.08088e-05
-2.60554e-05
-5.4948e-05
-2.55401e-05
-4.86117e-05
-2.48048e-05
-4.19323e-05
-2.33749e-05
-3.48604e-05
-2.18997e-05
-2.679e-05
-2.45058e-05
-1.6428e-05
-3.72974e-05
-4.30582e-06
-5.18749e-05
-4.28054e-06
1.98785e-05
-0.000145813
5.71381e-05
-0.000262189
9.61924e-05
-0.000262438
0.000130715
-0.000229685
0.000160299
-0.000203147
0.000186772
-0.000189476
0.000211692
-0.000183049
0.000235693
-0.000178153
0.000258775
-0.000172329
0.000280733
-0.000165407
0.000301477
-0.000157928
0.000320962
-0.000150251
0.000339212
-0.000142567
0.000356265
-0.000134907
0.000372135
-0.000127296
0.00038688
-0.000119784
0.000400524
-0.000112387
0.000413123
-0.000105135
0.000424712
-9.80322e-05
0.000435346
-9.11226e-05
0.000445054
-8.43777e-05
0.000453887
-7.78291e-05
0.000461888
-7.14509e-05
0.00046909
-6.52365e-05
0.000475503
-5.91748e-05
0.000481174
-5.32758e-05
0.00048612
-4.75083e-05
0.000490365
-4.18831e-05
0.000493935
-3.6375e-05
0.000496856
-3.09792e-05
0.000499128
-2.56593e-05
0.000500772
-2.0442e-05
0.000501807
-1.53039e-05
0.000502228
-1.02429e-05
0.00050208
-5.2643e-06
0.00050137
-3.58114e-07
0.000500068
4.48159e-06
0.000498229
9.23174e-06
0.000495851
1.38984e-05
0.000492939
1.8492e-05
0.000489531
2.29785e-05
0.000485622
2.738e-05
0.000481218
3.16766e-05
0.000476309
3.58732e-05
0.000470938
3.99257e-05
0.000465115
4.38593e-05
0.000458853
4.76541e-05
0.000452149
5.13278e-05
0.000445013
5.48623e-05
0.000437454
5.82459e-05
0.00042949
6.14714e-05
0.000421124
6.45531e-05
0.000412369
6.74796e-05
0.000403243
7.02519e-05
0.000393768
7.28703e-05
0.000383946
7.53401e-05
0.000373805
7.76477e-05
0.000363367
7.97977e-05
0.000352652
8.17941e-05
0.000341697
8.36209e-05
0.000330514
8.52914e-05
0.000319118
8.68119e-05
0.000307535
8.81763e-05
0.000295786
8.93842e-05
0.000283894
9.04371e-05
0.00027188
9.1332e-05
0.000259766
9.20704e-05
0.000247572
9.265e-05
0.000235319
9.3077e-05
0.000223029
9.33444e-05
0.000210722
9.34576e-05
0.000198418
9.3418e-05
0.000186138
9.32247e-05
0.000173903
9.28826e-05
0.000161736
9.24022e-05
0.000149644
9.17833e-05
0.000137658
9.09673e-05
0.000125801
9.00202e-05
0.000114089
8.89454e-05
0.000102541
8.77415e-05
9.11767e-05
8.64094e-05
8.0016e-05
8.4955e-05
6.90778e-05
8.33841e-05
5.8381e-05
8.17029e-05
4.79452e-05
7.99177e-05
3.77887e-05
7.80351e-05
2.79326e-05
7.60624e-05
1.83943e-05
7.4008e-05
9.19553e-06
7.18779e-05
3.75878e-07
6.96823e-05
-8.09222e-06
6.74235e-05
-1.61968e-05
6.51394e-05
-2.38555e-05
6.27567e-05
-3.10959e-05
6.035e-05
-3.78899e-05
5.79236e-05
-4.42676e-05
5.54736e-05
-5.01992e-05
5.2979e-05
-5.55992e-05
5.03985e-05
-6.06061e-05
4.78582e-05
-6.5128e-05
4.52332e-05
-6.93012e-05
4.26184e-05
-7.29823e-05
3.98976e-05
-7.62896e-05
3.71414e-05
-7.92838e-05
3.43534e-05
-8.1951e-05
3.15078e-05
-8.43283e-05
2.85958e-05
-8.64351e-05
2.56687e-05
-8.84366e-05
2.27862e-05
-9.02425e-05
1.9843e-05
-9.1882e-05
1.69379e-05
-9.33412e-05
1.40016e-05
-9.46714e-05
1.11693e-05
-9.58873e-05
8.399e-06
-9.70216e-05
5.7206e-06
-9.79888e-05
3.08786e-06
-9.8845e-05
5.57464e-07
-9.95596e-05
-1.87864e-06
-0.000100092
-4.2231e-06
-0.000100497
-6.44282e-06
-0.000100755
-8.57945e-06
-0.000100822
-1.06223e-05
-0.000100724
-1.25859e-05
-0.000100489
-1.44363e-05
-0.000100087
-1.61901e-05
-9.95187e-05
-1.78645e-05
-9.88195e-05
-1.94438e-05
-9.79239e-05
-2.09627e-05
-9.68737e-05
-2.2358e-05
-9.5633e-05
-2.36802e-05
-9.42265e-05
-2.48887e-05
-9.26338e-05
-2.6017e-05
-9.08314e-05
-2.70506e-05
-8.88413e-05
-2.79637e-05
-8.6593e-05
-2.8744e-05
-8.40762e-05
-2.94345e-05
-8.12779e-05
-3.00064e-05
-7.81726e-05
-3.04634e-05