/*--------------------------------*- C++ -*----------------------------------*\
| =========                 |                                                 |
| \\      /  F ield         | OpenFOAM: The Open Source CFD Toolbox           |
|  \\    /   O peration     | Version:  v2006                                 |
|   \\  /    A nd           | Website:  www.openfoam.com                      |
|    \\/     M anipulation  |                                                 |
\*---------------------------------------------------------------------------*/
FoamFile
{
    version     2.0;
    format      ascii;
    class       surfaceScalarField;
    location    "14";
    object      phi;
}
// * * * * * * * * * * * * * * * * * * * * * * * * * * * * * * * * * * * * * //

dimensions      [0 3 -1 0 0 0 0];
oriented        oriented;


internalField   nonuniform List<scalar> 
99450
(
1.99619e-05
-1.99619e-05
5.36922e-05
-3.37302e-05
8.64947e-05
-3.28025e-05
0.000116173
-2.96785e-05
0.000143722
-2.75485e-05
0.000170456
-2.67343e-05
0.000196594
-2.61376e-05
0.000222205
-2.56113e-05
0.000247215
-2.50102e-05
0.000271549
-2.43336e-05
0.000295163
-2.36138e-05
0.000318025
-2.28629e-05
0.00034011
-2.20849e-05
0.0003614
-2.12895e-05
0.000381876
-2.04761e-05
0.000401521
-1.96447e-05
0.000420327
-1.88064e-05
0.000438277
-1.79496e-05
0.000455359
-1.70822e-05
0.000471564
-1.62048e-05
0.000486879
-1.53153e-05
0.000501296
-1.44166e-05
0.000514807
-1.35112e-05
0.000527402
-1.25955e-05
0.000539058
-1.16561e-05
0.000549759
-1.07009e-05
0.000559497
-9.73764e-06
0.000568248
-8.75127e-06
0.000575993
-7.74492e-06
0.000582699
-6.70552e-06
0.00058833
-5.63168e-06
0.000592832
-4.50159e-06
0.000596134
-3.30185e-06
0.000598154
-2.0207e-06
0.000598819
-6.64102e-07
0.000598049
7.69358e-07
0.000595761
2.28854e-06
0.000591984
3.77693e-06
0.000586762
5.22163e-06
0.000580082
6.67961e-06
0.000571952
8.13055e-06
0.000562416
9.53639e-06
0.000551628
1.0787e-05
0.000539802
1.18263e-05
0.000527142
1.26599e-05
0.000513822
1.33208e-05
0.0005
1.3822e-05
0.000485884
1.41159e-05
0.000471734
1.41494e-05
0.000457808
1.39264e-05
0.000444298
1.35098e-05
0.000431299
1.29995e-05
0.000418796
1.25022e-05
0.000406713
1.20831e-05
0.00039495
1.17638e-05
0.000383408
1.15418e-05
0.000372031
1.13768e-05
0.000360786
1.12447e-05
0.000349654
1.11324e-05
0.000338623
1.10308e-05
0.000327694
1.09289e-05
0.000316856
1.08383e-05
0.000306098
1.07573e-05
0.000295418
1.0681e-05
0.000284811
1.06062e-05
0.000274282
1.05293e-05
0.000263825
1.04571e-05
0.000253437
1.03879e-05
0.00024312
1.0317e-05
0.000232873
1.02469e-05
0.000222698
1.01749e-05
0.000212598
1.01001e-05
0.000202577
1.00215e-05
0.000192641
9.93591e-06
0.000182789
9.85185e-06
0.00017303
9.759e-06
0.000163368
9.6618e-06
0.000153807
9.56154e-06
0.000144346
9.46074e-06
0.000134983
9.3629e-06
0.00012571
9.273e-06
0.000116516
9.19388e-06
0.000107385
9.13114e-06
9.82949e-05
9.09003e-06
8.92226e-05
9.07228e-06
8.01412e-05
9.08137e-06
7.10104e-05
9.13077e-06
6.17972e-05
9.21324e-06
5.24574e-05
9.33979e-06
4.29261e-05
9.53133e-06
3.31498e-05
9.77626e-06
2.30304e-05
1.01195e-05
1.24526e-05
1.05778e-05
1.28106e-06
1.11715e-05
-1.06579e-05
1.19389e-05
-2.35957e-05
1.29378e-05
-3.78611e-05
1.42654e-05
-5.38307e-05
1.59696e-05
-7.17315e-05
1.79008e-05
-9.14974e-05
1.97659e-05
-0.000112846
2.13487e-05
-0.00013532
2.24737e-05
-0.000158354
2.30337e-05
-0.000181352
2.29985e-05
-0.000203812
2.24596e-05
-0.000225317
2.15055e-05
-0.000245594
2.02765e-05
-0.000264376
1.87819e-05
-0.000281423
1.70473e-05
-0.000296454
1.50312e-05
-0.000309166
1.27116e-05
-0.000319326
1.01598e-05
-0.000326882
7.5567e-06
-0.000331992
5.10954e-06
-0.000334994
3.00199e-06
-0.000336294
1.30047e-06
-0.000336179
-1.15507e-07
-0.000335016
-1.16299e-06
-0.000332971
-2.04465e-06
-0.000330173
-2.79817e-06
-0.000326675
-3.4977e-06
-0.00032252
-4.15545e-06
-0.000317754
-4.76583e-06
-0.000312407
-5.3469e-06
-0.000306505
-5.90182e-06
-0.00030006
-6.44492e-06
-0.000293103
-6.95697e-06
-0.000285611
-7.49208e-06
-0.000277597
-8.01392e-06
-0.000269068
-8.52917e-06
-0.00026003
-9.03824e-06
-0.000250483
-9.54713e-06
-0.000240432
-1.00504e-05
-0.000229883
-1.05497e-05
-0.00021884
-1.10428e-05
-0.000207302
-1.15383e-05
-0.000195266
-1.20353e-05
-0.00018274
-1.25259e-05
-0.000169721
-1.30193e-05
-0.000156212
-1.35088e-05
-0.000142214
-1.39987e-05
-0.000127732
-1.44815e-05
-0.000112788
-1.4944e-05
-9.73488e-05
-1.54394e-05
-8.13798e-05
-1.5969e-05
-6.48339e-05
-1.65459e-05
-4.78366e-05
-1.69973e-05
-3.03143e-05
-1.75224e-05
-1.29419e-05
-1.73724e-05
-1.29419e-05
1.57374e-05
-3.56994e-05
4.22586e-05
-6.02514e-05
6.71144e-05
-5.76583e-05
8.82038e-05
-5.07679e-05
0.000107447
-4.67918e-05
0.000125897
-4.51845e-05
0.000144024
-4.42648e-05
0.00016166
-4.32464e-05
0.00017866
-4.20108e-05
0.000194968
-4.06417e-05
0.000210558
-3.9204e-05
0.000225431
-3.77358e-05
0.000239582
-3.62351e-05
0.000253012
-3.47195e-05
0.000265723
-3.31872e-05
0.000277728
-3.16499e-05
0.000289048
-3.0126e-05
0.000299699
-2.86007e-05
0.000309702
-2.70853e-05
0.000319073
-2.55759e-05
0.000327841
-2.40832e-05
0.000336041
-2.26171e-05
0.000343684
-2.11541e-05
0.000350806
-1.9717e-05
0.000357435
-1.8285e-05
0.000363595
-1.68614e-05
0.000369314
-1.54561e-05
0.000374621
-1.40584e-05
0.000379547
-1.26711e-05
0.000384132
-1.12908e-05
0.000388406
-9.90508e-06
0.000392422
-8.51754e-06
0.000396225
-7.10531e-06
0.000399871
-5.66684e-06
0.000403384
-4.17702e-06
0.000406778
-2.62467e-06
0.000410054
-9.87435e-07
0.000413112
7.19409e-07
0.000416007
2.32619e-06
0.000418711
3.97528e-06
0.000421208
5.6343e-06
0.000423445
7.2986e-06
0.000425287
8.94497e-06
0.000426588
1.05258e-05
0.000427224
1.20237e-05
0.0004271
1.34452e-05
0.00042614
1.47813e-05
0.000424263
1.59927e-05
0.000421402
1.70108e-05
0.000417519
1.78096e-05
0.000412617
1.84116e-05
0.000406769
1.88472e-05
0.000400099
1.91726e-05
0.000392728
1.94542e-05
0.000384765
1.97271e-05
0.000376286
2.00209e-05
0.000367345
2.03174e-05
0.000357982
2.06081e-05
0.000348198
2.09163e-05
0.000338039
2.11896e-05
0.000327499
2.14689e-05
0.000316617
2.172e-05
0.000305429
2.19457e-05
0.000293957
2.21524e-05
0.00028223
2.23335e-05
0.000270275
2.24845e-05
0.000258125
2.26075e-05
0.00024581
2.2702e-05
0.000233367
2.27604e-05
0.000220811
2.28026e-05
0.000208181
2.28048e-05
0.000195505
2.27768e-05
0.000182811
2.27153e-05
0.000170127
2.26197e-05
0.000157485
2.24944e-05
0.000144913
2.23302e-05
0.000132446
2.21291e-05
0.000120112
2.18955e-05
0.000107944
2.16291e-05
9.59713e-05
2.13352e-05
8.42253e-05
2.1019e-05
7.27326e-05
2.06866e-05
6.15199e-05
2.03439e-05
5.06074e-05
2.00025e-05
4.00162e-05
1.96634e-05
2.97614e-05
1.93362e-05
1.98521e-05
1.90402e-05
1.03021e-05
1.87632e-05
1.11116e-06
1.85308e-05
-7.70916e-06
1.83516e-05
-1.61525e-05
1.82196e-05
-2.42001e-05
1.8167e-05
-3.18399e-05
1.82176e-05
-3.9036e-05
1.83677e-05
-4.57308e-05
1.86337e-05
-5.18501e-05
1.90572e-05
-5.72729e-05
1.96882e-05
-6.17772e-05
2.04739e-05
-6.53893e-05
2.15129e-05
-6.82731e-05
2.26497e-05
-7.06738e-05
2.37494e-05
-7.26869e-05
2.44868e-05
-7.43423e-05
2.4689e-05
-7.5548e-05
2.42043e-05
-7.60875e-05
2.29991e-05
-7.57187e-05
2.11367e-05
-7.42029e-05
1.87606e-05
-7.14216e-05
1.60007e-05
-6.73052e-05
1.29309e-05
-6.19906e-05
9.71661e-06
-5.57033e-05
6.42433e-06
-4.87623e-05
3.21873e-06
-4.15421e-05
3.36549e-07
-3.41036e-05
-2.32902e-06
-2.6594e-05
-4.50759e-06
-1.91028e-05
-6.19068e-06
-1.17398e-05
-7.47858e-06
-4.48116e-06
-8.42159e-06
2.58263e-06
-9.10844e-06
9.42573e-06
-9.64127e-06
1.59954e-05
-1.00673e-05
2.22699e-05
-1.043e-05
2.81321e-05
-1.0628e-05
3.35973e-05
-1.0812e-05
3.85845e-05
-1.0889e-05
4.3074e-05
-1.09345e-05
4.70836e-05
-1.09665e-05
5.05566e-05
-1.0965e-05
5.35092e-05
-1.09665e-05
5.5925e-05
-1.0945e-05
5.77798e-05
-1.0893e-05
5.90483e-05
-1.08157e-05
5.97171e-05
-1.07192e-05
5.9777e-05
-1.06096e-05
5.92192e-05
-1.0485e-05
5.80566e-05
-1.03756e-05
5.63301e-05
-1.03088e-05
5.40247e-05
-1.02205e-05
5.12122e-05
-1.02068e-05
4.78877e-05
-1.01842e-05
4.41226e-05
-1.02336e-05
3.99717e-05
-1.03306e-05
3.54809e-05
-1.04532e-05
3.06531e-05
-1.06116e-05
2.54573e-05
-1.07732e-05
1.9816e-05
-1.09046e-05
1.37149e-05
-1.08962e-05
8.14661e-06
-1.1954e-05
5.18622e-06
-1.4412e-05
-7.75568e-06
1.65897e-05
-5.22891e-05
4.63083e-05
-8.99699e-05
7.55436e-05
-8.68936e-05
0.00010041
-7.56342e-05
0.000122319
-6.8701e-05
0.000142971
-6.58364e-05
0.000163247
-6.45407e-05
0.00018312
-6.31195e-05
0.000202391
-6.12816e-05
0.000220902
-5.91527e-05
0.000238592
-5.68942e-05
0.000255461
-5.46044e-05
0.0002715
-5.22748e-05
0.000286717
-4.99359e-05
0.000301125
-4.75955e-05
0.000314727
-4.52519e-05
0.000327529
-4.29284e-05
0.000339555
-4.0626e-05
0.000350823
-3.83537e-05
0.000361349
-3.61017e-05
0.000371154
-3.38885e-05
0.000380248
-3.17104e-05
0.000388654
-2.95601e-05
0.000396375
-2.74381e-05
0.000403437
-2.53475e-05
0.000409864
-2.32879e-05
0.000415648
-2.12407e-05
0.000420816
-1.92258e-05
0.000425369
-1.72243e-05
0.000429315
-1.52366e-05
0.000432664
-1.3255e-05
0.000435422
-1.12746e-05
0.000437603
-9.28668e-06
0.000439226
-7.28957e-06
0.0004403
-5.251e-06
0.000440837
-3.16161e-06
0.000440937
-1.088e-06
0.000440717
9.39934e-07
0.000439933
3.11014e-06
0.000438724
5.18364e-06
0.000437139
7.21961e-06
0.000435195
9.24211e-06
0.00043288
1.12607e-05
0.000430189
1.32168e-05
0.000427113
1.50999e-05
0.000423653
1.69051e-05
0.000419802
1.86324e-05
0.000415508
2.02866e-05
0.000410698
2.18202e-05
0.000405305
2.3203e-05
0.00039928
2.44365e-05
0.000392615
2.55122e-05
0.000385324
2.64635e-05
0.000377479
2.7299e-05
0.000369145
2.80617e-05
0.000360373
2.87928e-05
0.000351192
2.94981e-05
0.000341647
3.01529e-05
0.000331775
3.07887e-05
0.000321574
3.13904e-05
0.000311091
3.19514e-05
0.000300342
3.24689e-05
0.000289342
3.29462e-05
0.000278127
3.33676e-05
0.000266729
3.37317e-05
0.000255169
3.40439e-05
0.000243471
3.4306e-05
0.000231658
3.45149e-05
0.000219751
3.46674e-05
0.000207789
3.4764e-05
0.000195791
3.4803e-05
0.000183783
3.47845e-05
0.000171789
3.47091e-05
0.000159832
3.45772e-05
0.000147932
3.43947e-05
0.000136119
3.41426e-05
0.000124423
3.3825e-05
0.000112869
3.34496e-05
0.000101475
3.30234e-05
9.02651e-05
3.25451e-05
7.92638e-05
3.20204e-05
6.84939e-05
3.14564e-05
5.79763e-05
3.08615e-05
4.77355e-05
3.02434e-05
3.77936e-05
2.96053e-05
2.81696e-05
2.89602e-05
1.88881e-05
2.83216e-05
9.95088e-06
2.77004e-05
1.38573e-06
2.70959e-05
-6.79254e-06
2.65299e-05
-1.45855e-05
2.60126e-05
-2.19321e-05
2.55135e-05
-2.88218e-05
2.51073e-05
-3.52351e-05
2.4781e-05
-4.11629e-05
2.45614e-05
-4.64604e-05
2.43547e-05
-5.10424e-05
2.42701e-05
-5.4885e-05
2.43165e-05
-5.77103e-05
2.43383e-05
-5.94809e-05
2.44203e-05
-6.0174e-05
2.44426e-05
-5.9848e-05
2.41608e-05
-5.87072e-05
2.35483e-05
-5.69559e-05
2.2453e-05
-5.48283e-05
2.08715e-05
-5.25413e-05
1.88497e-05
-5.02411e-05
1.64604e-05
-4.80445e-05
1.3804e-05
-4.61338e-05
1.10202e-05
-4.45132e-05
8.09598e-06
-4.32528e-05
5.16393e-06
-4.23244e-05
2.29032e-06
-4.14828e-05
-5.05011e-07
-4.08988e-05
-2.91302e-06
-4.03439e-05
-5.06253e-06
-3.96065e-05
-6.92811e-06
-3.85551e-05
-8.52996e-06
-3.70883e-05
-9.88842e-06
-3.50459e-05
-1.11508e-05
-3.24012e-05
-1.22859e-05
-2.90986e-05
-1.337e-05
-2.52999e-05
-1.42287e-05
-2.09054e-05
-1.50225e-05
-1.61322e-05
-1.55853e-05
-1.09579e-05
-1.60633e-05
-5.51077e-06
-1.63816e-05
9.56949e-08
-1.6573e-05
5.8014e-06
-1.66707e-05
1.14635e-05
-1.66286e-05
1.70049e-05
-1.64863e-05
2.2333e-05
-1.62211e-05
2.73308e-05
-1.58136e-05
3.19226e-05
-1.53109e-05
3.59691e-05
-1.46562e-05
3.94403e-05
-1.39563e-05
4.21784e-05
-1.31137e-05
4.41471e-05
-1.22775e-05
4.52618e-05
-1.13352e-05
4.54921e-05
-1.04371e-05
4.47971e-05
-9.4892e-06
4.318e-05
-8.61651e-06
4.06233e-05
-7.77399e-06
3.71763e-05
-7.00615e-06
3.29034e-05
-6.33873e-06
2.7761e-05
-5.63074e-06
2.17174e-05
-4.86095e-06
1.50667e-05
-4.24552e-06
9.62467e-06
-6.51205e-06
7.53582e-06
-1.23231e-05
-2.1986e-07
1.78345e-05
-7.01236e-05
5.01512e-05
-0.000122287
8.24819e-05
-0.000119224
0.000110596
-0.000103748
0.000135399
-9.35041e-05
0.000158637
-8.90744e-05
0.00018126
-8.7164e-05
0.000203408
-8.52673e-05
0.0002249
-8.27739e-05
0.000245567
-7.98191e-05
0.000265325
-7.66523e-05
0.000284147
-7.34268e-05
0.000302031
-7.01593e-05
0.000318976
-6.68809e-05
0.000334976
-6.35948e-05
0.000350041
-6.03174e-05
0.000364166
-5.7053e-05
0.000377376
-5.38367e-05
0.000389674
-5.06512e-05
0.000401091
-4.75192e-05
0.000411642
-4.44396e-05
0.000421331
-4.13995e-05
0.000430195
-3.8424e-05
0.000438248
-3.54903e-05
0.000445508
-3.26082e-05
0.000451995
-2.9775e-05
0.000457743
-2.6988e-05
0.000462749
-2.42317e-05
0.000467032
-2.15079e-05
0.000470605
-1.88091e-05
0.000473489
-1.61388e-05
0.000475686
-1.34716e-05
0.000477209
-1.08098e-05
0.00047807
-8.15084e-06
0.000478316
-5.49667e-06
0.000477992
-2.83775e-06
0.000476994
-9.05991e-08
0.000475384
2.55042e-06
0.000473315
5.1791e-06
0.000470722
7.77664e-06
0.000467597
1.03447e-05
0.000463976
1.28631e-05
0.000459899
1.53374e-05
0.00045538
1.77361e-05
0.000450424
2.00562e-05
0.000445043
2.22854e-05
0.000439269
2.44066e-05
0.000433141
2.64147e-05
0.000426663
2.82979e-05
0.000419805
3.00612e-05
0.000412536
3.1706e-05
0.000404846
3.32017e-05
0.000396726
3.45836e-05
0.000388157
3.58679e-05
0.00037917
3.70493e-05
0.000369803
3.81595e-05
0.000360099
3.92023e-05
0.000350076
4.01756e-05
0.000339778
4.10864e-05
0.000329231
4.19375e-05
0.00031846
4.27224e-05
0.00030749
4.34395e-05
0.000296351
4.40848e-05
0.000285056
4.46629e-05
0.000273632
4.51555e-05
0.000262095
4.55806e-05
0.000250469
4.59326e-05
0.000238775
4.62092e-05
0.000227034
4.64084e-05
0.000215267
4.65302e-05
0.000203495
4.65753e-05
0.000191735
4.65443e-05
0.000180012
4.64327e-05
0.000168339
4.625e-05
0.000156741
4.59926e-05
0.000145233
4.5651e-05
0.000133828
4.52292e-05
0.000122542
4.47358e-05
0.000111394
4.41718e-05
0.000100394
4.35454e-05
8.95566e-05
4.28574e-05
7.88988e-05
4.21142e-05
6.84373e-05
4.13231e-05
5.81887e-05
4.04919e-05
4.81661e-05
3.96279e-05
3.83856e-05
3.87408e-05
2.88661e-05
3.78411e-05
1.96289e-05
3.69376e-05
1.0689e-05
3.60358e-05
2.08031e-06
3.51386e-05
-6.1654e-06
3.42583e-05
-1.40944e-05
3.34426e-05
-2.16199e-05
3.26328e-05
-2.8684e-05
3.18451e-05
-3.52205e-05
3.1098e-05
-4.13095e-05
3.04437e-05
-4.68264e-05
2.97869e-05
-5.17003e-05
2.91905e-05
-5.59368e-05
2.85748e-05
-5.94392e-05
2.79227e-05
-6.21255e-05
2.71289e-05
-6.421e-05
2.62453e-05
-6.57165e-05
2.50547e-05
-6.68546e-05
2.35911e-05
-6.78431e-05
2.186e-05
-6.88496e-05
1.98563e-05
-7.00053e-05
1.76161e-05
-7.1354e-05
1.51527e-05
-7.29369e-05
1.2603e-05
-7.48074e-05
9.96656e-06
-7.69231e-05
7.27962e-06
-7.92125e-05
4.57971e-06
-8.16973e-05
1.97975e-06
-8.42643e-05
-3.46032e-07
-8.65589e-05
-2.76788e-06
-8.84963e-05
-4.99073e-06
-9.00574e-05
-6.96881e-06
-9.11408e-05
-8.80507e-06
-9.17189e-05
-1.05727e-05
-9.18207e-05
-1.21841e-05
-9.15422e-05
-1.36485e-05
-9.07125e-05
-1.50584e-05
-8.94051e-05
-1.63299e-05
-8.75186e-05
-1.74718e-05
-8.51134e-05
-1.84686e-05
-8.22189e-05
-1.92761e-05
-7.87752e-05
-2.00167e-05
-7.4936e-05
-2.051e-05
-7.07153e-05
-2.08493e-05
-6.60848e-05
-2.11169e-05
-6.11561e-05
-2.11498e-05
-5.59751e-05
-2.09945e-05
-5.06378e-05
-2.06482e-05
-4.52036e-05
-2.00904e-05
-3.97713e-05
-1.93885e-05
-3.43997e-05
-1.84853e-05
-2.92691e-05
-1.74081e-05
-2.4384e-05
-1.62204e-05
-1.99095e-05
-1.49115e-05
-1.586e-05
-1.35387e-05
-1.23878e-05
-1.20887e-05
-9.47295e-06
-1.06889e-05
-7.15786e-06
-9.32123e-06
-5.5254e-06
-7.9712e-06
-4.70222e-06
-6.45391e-06
-4.8628e-06
-4.70037e-06
-4.93295e-06
-4.17537e-06
-2.59833e-06
-8.84666e-06
3.0202e-06
-1.79417e-05
2.80034e-06
1.84493e-05
-8.85729e-05
5.19448e-05
-0.000155782
8.56148e-05
-0.000152894
0.000115203
-0.000133336
0.000141369
-0.00011967
0.000165796
-0.000113502
0.000189392
-0.00011076
0.000212385
-0.00010826
0.000234629
-0.000105018
0.000255988
-0.000101178
0.000276381
-9.7045e-05
0.000295757
-9.28026e-05
0.000314137
-8.85394e-05
0.000331497
-8.42411e-05
0.000347838
-7.99359e-05
0.000363165
-7.56439e-05
0.000377499
-7.13877e-05
0.000390831
-6.71686e-05
0.0004032
-6.30203e-05
0.000414611
-5.89293e-05
0.000425098
-5.49274e-05
0.000434685
-5.09858e-05
0.000443378
-4.71172e-05
0.000451225
-4.3337e-05
0.000458245
-3.96284e-05
0.000464449
-3.59788e-05
0.000469855
-3.23946e-05
0.000474499
-2.88756e-05
0.0004784
-2.5409e-05
0.000481585
-2.19936e-05
0.000484055
-1.86089e-05
0.000485844
-1.52611e-05
0.000486987
-1.19521e-05
0.000487486
-8.65e-06
0.000487364
-5.37472e-06
0.000486658
-2.132e-06
0.000485561
1.00633e-06
0.000483891
4.22059e-06
0.000481703
7.36657e-06
0.000479023
1.04567e-05
0.000475865
1.35033e-05
0.000472248
1.64802e-05
0.000468203
1.9382e-05
0.000463714
2.2225e-05
0.000458799
2.49713e-05
0.000453446
2.76384e-05
0.000447659
3.01934e-05
0.000441451
3.26231e-05
0.000434809
3.49399e-05
0.000427754
3.71166e-05
0.000420288
3.91716e-05
0.000412406
4.10836e-05
0.000404117
4.28728e-05
0.000395439
4.45458e-05
0.000386377
4.61113e-05
0.000376958
4.75784e-05
0.000367208
4.89521e-05
0.000357154
5.02302e-05
0.000346821
5.14193e-05
0.000336238
5.25205e-05
0.000325429
5.35311e-05
0.000314413
5.44551e-05
0.000303213
5.52848e-05
0.00029187
5.60058e-05
0.000280389
5.66371e-05
0.000268792
5.71776e-05
0.000257101
5.76236e-05
0.000245338
5.79722e-05
0.000233522
5.82243e-05
0.000221671
5.83807e-05
0.000209807
5.84393e-05
0.000197951
5.84007e-05
0.000186117
5.82667e-05
0.000174325
5.80419e-05
0.000162579
5.77391e-05
0.000150909
5.73206e-05
0.000139344
5.67945e-05
0.000127884
5.6195e-05
0.000116544
5.55119e-05
0.000105339
5.47504e-05
9.42835e-05
5.39132e-05
8.3391e-05
5.30066e-05
7.2677e-05
5.20371e-05
6.21573e-05
5.10116e-05
5.18488e-05
4.99365e-05
4.17697e-05
4.88198e-05
3.19411e-05
4.76697e-05
2.23833e-05
4.64954e-05
1.30928e-05
4.53263e-05
4.13017e-06
4.41012e-05
-4.50985e-06
4.28983e-05
-1.27544e-05
4.16871e-05
-2.06333e-05
4.05117e-05
-2.81329e-05
3.93447e-05
-3.5219e-05
3.81841e-05
-4.18295e-05
3.70542e-05
-4.79139e-05
3.58713e-05
-5.34492e-05
3.47258e-05
-5.84427e-05
3.35682e-05
-6.28566e-05
3.23366e-05
-6.67663e-05
3.10386e-05
-7.01248e-05
2.96038e-05
-7.3051e-05
2.79809e-05
-7.56657e-05
2.62058e-05
-7.80139e-05
2.42082e-05
-8.01878e-05
2.20301e-05
-8.21926e-05
1.9621e-05
-8.42202e-05
1.71804e-05
-8.61991e-05
1.45819e-05
-8.81513e-05
1.19188e-05
-9.01158e-05
9.2441e-06
-9.20814e-05
6.54534e-06
-9.40721e-05
3.97042e-06
-9.58908e-05
1.47269e-06
-9.76325e-05
-1.02626e-06
-9.93964e-05
-3.22677e-06
-0.000101037
-5.32796e-06
-0.000102518
-7.32427e-06
-0.000103915
-9.17602e-06
-0.000105103
-1.09954e-05
-0.000106075
-1.26772e-05
-0.000106871
-1.42617e-05
-0.000107403
-1.57987e-05
-0.000107677
-1.71974e-05
-0.000107638
-1.85077e-05
-0.000107223
-1.96908e-05
-0.000106505
-2.07351e-05
-0.000105343
-2.16716e-05
-0.000103733
-2.24595e-05
-0.000101773
-2.30765e-05
-9.93516e-05
-2.35717e-05
-9.64685e-05
-2.38775e-05
-9.31333e-05
-2.39834e-05
-8.93673e-05
-2.38563e-05
-8.52041e-05
-2.35517e-05
-8.06637e-05
-2.30257e-05
-7.5762e-05
-2.23098e-05
-7.05878e-05
-2.13946e-05
-6.52053e-05
-2.0294e-05
-5.96514e-05
-1.90926e-05
-5.39684e-05
-1.77717e-05
-4.8249e-05
-1.64083e-05
-4.25277e-05
-1.50426e-05
-3.69467e-05
-1.35521e-05
-3.17352e-05
-1.16654e-05
-2.68161e-05
-9.61943e-06
-2.10086e-05
-9.9829e-06
-1.21307e-05
-1.77246e-05
-1.11934e-06
-2.8953e-05
1.681e-06
1.89773e-05
-0.00010755
5.35043e-05
-0.000190309
8.84484e-05
-0.000187838
0.000119144
-0.000164032
0.000146127
-0.000146653
0.000171114
-0.000138488
0.00019513
-0.000134776
0.000218435
-0.000131565
0.000240935
-0.000127518
0.000262475
-0.000122718
0.000282979
-0.000117549
0.000302419
-0.000112243
0.000320783
-0.000106903
0.000338075
-0.000101533
0.000354317
-9.61781e-05
0.000369511
-9.08378e-05
0.000383672
-8.55481e-05
0.000396823
-8.03197e-05
0.000408993
-7.51903e-05
0.000420209
-7.01456e-05
0.00043048
-6.51982e-05
0.000439857
-6.03629e-05
0.000448369
-5.56289e-05
0.000456023
-5.09911e-05
0.000462869
-4.64744e-05
0.000468919
-4.20286e-05
0.000474198
-3.76737e-05
0.000478743
-3.34212e-05
0.000482574
-2.92399e-05
0.000485706
-2.5125e-05
0.000488154
-2.10575e-05
0.000489949
-1.70555e-05
0.000491106
-1.311e-05
0.000491659
-9.20287e-06
0.000491636
-5.35169e-06
0.000491053
-1.54848e-06
0.000489799
2.26011e-06
0.000488063
5.95622e-06
0.000485811
9.61908e-06
0.00048305
1.32174e-05
0.000479799
1.67541e-05
0.000476061
2.02182e-05
0.000471867
2.35758e-05
0.000467237
2.6855e-05
0.000462162
3.00471e-05
0.000456663
3.31373e-05
0.000450754
3.61022e-05
0.000444437
3.89397e-05
0.000437702
4.16752e-05
0.000430568
4.42504e-05
0.000423031
4.67086e-05
0.000415072
4.90429e-05
0.000406707
5.1238e-05
0.00039796
5.32927e-05
0.000388835
5.5236e-05
0.000379353
5.70602e-05
0.000369542
5.87628e-05
0.000359423
6.03498e-05
0.00034902
6.18218e-05
0.000338356
6.31848e-05
0.000327449
6.44382e-05
0.000316336
6.55677e-05
0.000305051
6.65704e-05
0.000293589
6.74675e-05
0.000281976
6.82497e-05
0.000270239
6.89155e-05
0.000258396
6.94659e-05
0.000246471
6.98974e-05
0.000234483
7.02123e-05
0.000222454
7.04098e-05
0.000210402
7.04914e-05
0.000198346
7.04572e-05
0.000186305
7.03068e-05
0.000174302
7.00456e-05
0.000162352
6.96886e-05
0.000150465
6.92083e-05
0.000138674
6.85855e-05
0.000126992
6.78768e-05
0.000115435
6.70687e-05
0.000104019
6.61666e-05
9.27604e-05
6.51717e-05
8.16775e-05
6.40895e-05
7.07877e-05
6.29269e-05
6.01089e-05
6.16904e-05
4.96596e-05
6.03858e-05
3.94586e-05
5.90208e-05
2.95254e-05
5.7603e-05
1.98817e-05
5.61391e-05
1.05525e-05
5.46555e-05
1.54706e-06
5.31066e-05
-7.09136e-06
5.15367e-05
-1.53932e-05
4.99889e-05
-2.32653e-05
4.83839e-05
-3.07043e-05
4.67837e-05
-3.77042e-05
4.5184e-05
-4.42017e-05
4.35518e-05
-5.02963e-05
4.19658e-05
-5.58549e-05
4.02844e-05
-6.08778e-05
3.85911e-05
-6.53956e-05
3.68545e-05
-6.94001e-05
3.50431e-05
-7.28817e-05
3.30854e-05
-7.59835e-05
3.10827e-05
-7.87022e-05
2.89245e-05
-8.11004e-05
2.66064e-05
-8.32457e-05
2.41754e-05
-8.53128e-05
2.1688e-05
-8.71872e-05
1.90548e-05
-8.89806e-05
1.63753e-05
-9.07009e-05
1.36391e-05
-9.23678e-05
1.0911e-05
-9.40942e-05
8.27169e-06
-9.57456e-05
5.62191e-06
-9.73169e-05
3.0439e-06
-9.89347e-05
5.91634e-07
-0.000100482
-1.67983e-06
-0.000101841
-3.96834e-06
-0.000103055
-6.1108e-06
-0.000104104
-8.1265e-06
-0.000105038
-1.00617e-05
-0.000105829
-1.1886e-05
-0.000106489
-1.36016e-05
-0.00010702
-1.52676e-05
-0.000107411
-1.68065e-05
-0.000107684
-1.82346e-05
-0.000107776
-1.95994e-05
-0.000107656
-2.08548e-05
-0.000107326
-2.20016e-05
-0.000106738
-2.30474e-05
-0.000105855
-2.39592e-05
-0.000104672
-2.47548e-05
-0.000103141
-2.54085e-05
-0.000101237
-2.5888e-05
-9.88987e-05
-2.61943e-05
-9.61255e-05
-2.63249e-05
-9.28799e-05
-2.62713e-05
-8.91392e-05
-2.60505e-05
-8.48899e-05
-2.56439e-05
-8.01585e-05
-2.50254e-05
-7.49607e-05
-2.42905e-05
-6.93081e-05
-2.34243e-05
-6.32068e-05
-2.25096e-05
-5.67175e-05
-2.15318e-05
-4.99261e-05
-2.03435e-05
-4.3002e-05
-1.85895e-05
-3.58828e-05
-1.67387e-05
-2.75032e-05
-1.83625e-05
-1.63518e-05
-2.88759e-05
-3.61275e-06
-4.16921e-05
-1.93175e-06
1.95313e-05
-0.000127081
5.53648e-05
-0.000226143
9.21651e-05
-0.000224639
0.000124536
-0.000196403
0.000152641
-0.000174758
0.000178309
-0.000164156
0.000202783
-0.00015925
0.000226467
-0.00015525
0.000249269
-0.000150321
0.000271046
-0.000144494
0.000291694
-0.000138197
0.000311194
-0.000131744
0.000329548
-0.000125257
0.000346772
-0.000118757
0.000362881
-0.000112287
0.000377902
-0.000105859
0.000391873
-9.95188e-05
0.000404821
-9.32678e-05
0.00041676
-8.7129e-05
0.000427742
-8.1128e-05
0.000437805
-7.52607e-05
0.000446981
-6.95391e-05
0.000455295
-6.39429e-05
0.000462781
-5.84768e-05
0.00046946
-5.31537e-05
0.000475376
-4.79441e-05
0.000480551
-4.28491e-05
0.000485001
-3.78714e-05
0.000488745
-3.29838e-05
0.000491802
-2.81823e-05
0.000494202
-2.34572e-05
0.000495958
-1.88111e-05
0.000497074
-1.42264e-05
0.000497594
-9.72276e-06
0.000497498
-5.25603e-06
0.000496805
-8.55131e-07
0.000495614
3.45067e-06
0.000493849
7.72159e-06
0.000491562
1.19061e-05
0.000488757
1.60225e-05
0.000485441
2.00705e-05
0.00048163
2.40289e-05
0.000477319
2.78871e-05
0.000472539
3.16344e-05
0.000467305
3.52815e-05
0.000461625
3.88172e-05
0.000455499
4.22282e-05
0.000448926
4.55125e-05
0.000441934
4.86675e-05
0.000434504
5.16803e-05
0.000426663
5.45497e-05
0.000418428
5.72775e-05
0.000409803
5.98632e-05
0.000400787
6.23091e-05
0.000391401
6.46216e-05
0.000381674
6.67869e-05
0.000371622
6.88149e-05
0.000361266
7.07063e-05
0.000350626
7.24615e-05
0.000339729
7.40814e-05
0.000328612
7.55557e-05
0.000317287
7.68928e-05
0.000305761
7.80959e-05
0.000294065
7.91635e-05
0.000282221
8.00939e-05
0.000270249
8.08872e-05
0.000258173
8.15417e-05
0.000246015
8.20555e-05
0.000233793
8.24351e-05
0.000221528
8.26745e-05
0.000209242
8.27769e-05
0.000196956
8.27437e-05
0.000184687
8.25755e-05
0.000172457
8.2276e-05
0.000160287
8.18579e-05
0.000148187
8.13084e-05
0.000136185
8.05875e-05
0.000124305
7.97567e-05
0.000112562
7.88116e-05
0.000100975
7.77541e-05
8.95609e-05
7.65856e-05
7.83389e-05
7.53115e-05
6.73282e-05
7.39377e-05
5.65485e-05
7.24701e-05
4.60188e-05
7.09154e-05
3.57599e-05
6.92797e-05
2.57905e-05
6.75724e-05
1.61308e-05
6.57988e-05
6.81705e-06
6.39693e-05
-2.18951e-06
6.21132e-05
-1.07995e-05
6.01468e-05
-1.89988e-05
5.81882e-05
-2.68199e-05
5.6205e-05
-3.4203e-05
5.41668e-05
-4.11535e-05
5.21344e-05
-4.76481e-05
5.00465e-05
-5.3624e-05
4.79417e-05
-5.9174e-05
4.58344e-05
-6.42101e-05
4.36273e-05
-6.87809e-05
4.14252e-05
-7.28336e-05
3.90958e-05
-7.65495e-05
3.68014e-05
-7.98189e-05
3.43521e-05
-8.27031e-05
3.18087e-05
-8.53164e-05
2.92198e-05
-8.76674e-05
2.65263e-05
-8.97762e-05
2.37968e-05
-9.16672e-05
2.09458e-05
-9.3415e-05
1.81231e-05
-9.5084e-05
1.53081e-05
-9.66481e-05
1.24751e-05
-9.80704e-05
9.69402e-06
-9.94084e-05
6.95989e-06
-0.00010065
4.2857e-06
-0.000101799
1.74071e-06
-0.000102712
-7.67505e-07
-0.000103547
-3.13288e-06
-0.000104282
-5.37626e-06
-0.000104859
-7.54907e-06
-0.000105304
-9.61718e-06
-0.00010564
-1.15494e-05
-0.000105815
-1.34267e-05
-0.000105866
-1.52169e-05
-0.00010579
-1.68826e-05
-0.000105559
-1.84652e-05
-0.00010517
-1.99888e-05
-0.00010464
-2.13849e-05
-0.000103944
-2.26972e-05
-0.000103092
-2.38993e-05
-0.000102041
-2.50103e-05
-0.000100777
-2.60186e-05
-9.92792e-05
-2.69066e-05
-9.74736e-05
-2.76936e-05
-9.53927e-05
-2.82752e-05
-9.29639e-05
-2.87537e-05
-9.01374e-05
-2.90977e-05
-8.68896e-05
-2.92984e-05
-8.32211e-05
-2.93123e-05
-7.90397e-05
-2.92069e-05
-7.43605e-05
-2.89696e-05
-6.91757e-05
-2.8609e-05
-6.3484e-05
-2.82013e-05
-5.72992e-05
-2.77167e-05
-5.06348e-05
-2.70079e-05
-4.36236e-05
-2.56007e-05
-3.62166e-05
-2.41457e-05
-2.78078e-05
-2.67713e-05
-1.7104e-05
-3.95797e-05
-4.63671e-06
-5.41594e-05
-6.56847e-06
2.00528e-05
-0.000147134
5.75016e-05
-0.000263591
9.67579e-05
-0.000263895
0.000131483
-0.000231128
0.000161261
-0.000204537
0.000187917
-0.000190812
0.000213013
-0.000184346
0.000237185
-0.000179422
0.000260433
-0.000173569
0.000282553
-0.000166614
0.000303454
-0.000159098
0.00032309
-0.00015138
0.000341485
-0.000143652
0.000358676
-0.000135948
0.000374679
-0.00012829
0.000389549
-0.000120729
0.000403312
-0.000113281
0.000416022
-0.000105978
0.000427716
-9.88228e-05
0.000438447
-9.18591e-05
0.000448245
-8.50594e-05
0.000457161
-7.84546e-05
0.000465237
-7.20193e-05
0.000472508
-6.57471e-05
0.00047898
-5.96265e-05
0.000484704
-5.36678e-05
0.000489695
-4.78398e-05
0.000493977
-4.21532e-05
0.000497576
-3.6583e-05
0.000500518
-3.11243e-05
0.000502802
-2.5741e-05
0.00050445
-2.04597e-05
0.000505481
-1.5257e-05
0.000505889
-1.0131e-05
0.00050572
-5.08704e-06
0.000504978
-1.13615e-07
0.000503638
4.79069e-06
0.000501753
9.60718e-06
0.000499319
1.43401e-05
0.000496341
1.89999e-05
0.000492859
2.35525e-05
0.000488869
2.80197e-05
0.000484374
3.23817e-05
0.000479365
3.6643e-05
0.000473887
4.07598e-05
0.000467947
4.4757e-05
0.000461561
4.86145e-05
0.000454724
5.23497e-05
0.000447447
5.59444e-05
0.00043974
5.9387e-05
0.00043162
6.26701e-05
0.00042309
6.58077e-05
0.000414165
6.87884e-05
0.000404861
7.1613e-05
0.000395201
7.42817e-05
0.000385188
7.67998e-05
0.000374849
7.91534e-05
0.000364208
8.13472e-05
0.000353285
8.3385e-05
0.000342115
8.52508e-05
0.000330713
8.69577e-05
0.000319094
8.85119e-05
0.000307283
8.99073e-05
0.000295303
9.11433e-05
0.000283176
9.22215e-05
0.000270924
9.31387e-05
0.000258569
9.38965e-05
0.000246132
9.44924e-05
0.000233635
9.49326e-05
0.000221099
9.52102e-05
0.000208546
9.53305e-05
0.000195994
9.52948e-05
0.000183467
9.51025e-05
0.000170985
9.47581e-05
0.000158571
9.42723e-05
0.000146235
9.36448e-05
0.000134005
9.28174e-05
0.000121906
9.18558e-05
0.000109954
9.07634e-05
9.81688e-05
8.9539e-05
8.6571e-05
8.81834e-05
7.518e-05
8.67025e-05
6.40153e-05
8.51024e-05
5.30963e-05
8.33891e-05
4.24426e-05
8.15691e-05
3.20732e-05
7.96491e-05
2.20091e-05
7.76365e-05
1.22684e-05
7.55394e-05
2.87555e-06
7.33622e-05
-6.1172e-06
7.11059e-05
-1.47824e-05
6.88119e-05
-2.30662e-05
6.6472e-05
-3.0895e-05
6.40337e-05
-3.82973e-05
6.15691e-05
-4.52454e-05
5.90826e-05
-5.17689e-05
5.65699e-05
-5.78378e-05
5.40105e-05
-6.33668e-05
5.13634e-05
-6.84935e-05
4.8754e-05
-7.31262e-05
4.60579e-05
-7.74002e-05
4.33698e-05
-8.1173e-05
4.05741e-05
-8.45619e-05
3.7741e-05
-8.76275e-05
3.48742e-05
-9.0356e-05
3.19483e-05
-9.27841e-05
2.89544e-05
-9.49311e-05
2.59439e-05
-9.69615e-05
2.29761e-05
-9.87851e-05
1.99467e-05
-0.000100431
1.69542e-05
-0.000101886
1.39297e-05
-0.0001032
1.1008e-05
-0.000104388
8.14754e-06
-0.00010548
5.37801e-06
-0.000106392
2.65314e-06
-0.000107193
3.33638e-08
-0.000107829
-2.49728e-06
-0.000108272
-4.93327e-06
-0.000108576
-7.24493e-06
-0.00010872
-9.47325e-06
-0.000108662
-1.16074e-05
-0.000108427
-1.36617e-05
-0.000108041
-1.56022e-05
-0.000107479
-1.74451e-05
-0.000106737
-1.92073e-05
-0.000105853
-2.08731e-05
-0.000104761
-2.24768e-05
-0.000103503
-2.39552e-05
-0.000102043
-2.53586e-05
-0.000100408
-2.66461e-05
-9.85751e-05
-2.78511e-05
-9.6523e-05
-2.89587e-05
-9.42733e-05
-2.99432e-05
-9.17563e-05
-3.07921e-05
-8.8962e-05
-3.15481e-05
-8.58776e-05
-3.21822e-05
-8.24782e-05
-3.26978e-05