/*--------------------------------*- C++ -*----------------------------------*\
| =========                 |                                                 |
| \\      /  F ield         | OpenFOAM: The Open Source CFD Toolbox           |
|  \\    /   O peration     | Version:  v2006                                 |
|   \\  /    A nd           | Website:  www.openfoam.com                      |
|    \\/     M anipulation  |                                                 |
\*---------------------------------------------------------------------------*/
FoamFile
{
    version     2.0;
    format      ascii;
    class       volVectorField;
    location    "14";
    object      U;
}
// * * * * * * * * * * * * * * * * * * * * * * * * * * * * * * * * * * * * * //

dimensions      [0 1 -1 0 0 0 0];


internalField   nonuniform List<vector> 
50000
(
(0.000538164 -0.00185322 0)
(0.00383923 -0.00325808 0)
(0.00779366 -0.00331501 0)
(0.0110303 -0.00306383 0)
(0.0141698 -0.00282883 0)
(0.0170831 -0.00272772 0)
(0.019947 -0.00266754 0)
(0.0227663 -0.00262773 0)
(0.0255182 -0.00258449 0)
(0.0282001 -0.00253196 0)
(0.0308073 -0.00247201 0)
(0.0333334 -0.00240799 0)
(0.0357768 -0.00234085 0)
(0.0381347 -0.00227111 0)
(0.0404042 -0.0021986 0)
(0.0425847 -0.00212318 0)
(0.0446746 -0.00204485 0)
(0.0466727 -0.00196294 0)
(0.0485768 -0.00187817 0)
(0.0503856 -0.00179191 0)
(0.0520986 -0.00170129 0)
(0.053715 -0.00160592 0)
(0.0552332 -0.00150957 0)
(0.0566522 -0.00140969 0)
(0.0579704 -0.00130512 0)
(0.0591857 -0.00119684 0)
(0.0602969 -0.00108436 0)
(0.0613024 -0.000967309 0)
(0.0621996 -0.000844286 0)
(0.0629859 -0.000712858 0)
(0.0636571 -0.00057462 0)
(0.0642094 -0.000424795 0)
(0.0646356 -0.000260898 0)
(0.064927 -8.07079e-05 0)
(0.0650763 0.00011535 0)
(0.0650753 0.000324073 0)
(0.0649074 0.000539218 0)
(0.0645768 0.000752067 0)
(0.0640871 0.000953549 0)
(0.063441 0.00115157 0)
(0.062637 0.00134829 0)
(0.0616747 0.0015412 0)
(0.0605643 0.00170904 0)
(0.0593287 0.00183592 0)
(0.0579935 0.00192038 0)
(0.0565786 0.00197082 0)
(0.0550982 0.00199374 0)
(0.0535723 0.00198451 0)
(0.0520287 0.00193265 0)
(0.0504968 0.00183724 0)
(0.0490021 0.00170865 0)
(0.0475609 0.00156506 0)
(0.046177 0.00142632 0)
(0.0448444 0.00130637 0)
(0.0435515 0.00120973 0)
(0.0422875 0.00113427 0)
(0.0410444 0.00107255 0)
(0.0398152 0.00101835 0)
(0.0385988 0.000968876 0)
(0.0373952 0.000921761 0)
(0.0362028 0.00087761 0)
(0.0350207 0.000836406 0)
(0.0338476 0.000797829 0)
(0.0326829 0.000762389 0)
(0.0315269 0.000730021 0)
(0.0303791 0.000700284 0)
(0.0292391 0.000672983 0)
(0.0281071 0.000647676 0)
(0.0269826 0.000624377 0)
(0.0258656 0.000603366 0)
(0.0247565 0.000584382 0)
(0.0236554 0.000567277 0)
(0.0225627 0.000551971 0)
(0.0214789 0.000538603 0)
(0.0204044 0.000526693 0)
(0.0193393 0.000516318 0)
(0.0182846 0.000507622 0)
(0.0172408 0.000500913 0)
(0.016208 0.000496656 0)
(0.015186 0.000495365 0)
(0.0141744 0.000497542 0)
(0.0131721 0.00050367 0)
(0.0121776 0.000514144 0)
(0.0111889 0.000529147 0)
(0.0102035 0.000548816 0)
(0.00921857 0.000573364 0)
(0.00823055 0.00060306 0)
(0.00723552 0.000638522 0)
(0.0062294 0.000680608 0)
(0.00520626 0.000730122 0)
(0.00415972 0.000788343 0)
(0.00308162 0.000857806 0)
(0.0019606 0.000941369 0)
(0.000783148 0.0010433 0)
(-0.000467056 0.00117041 0)
(-0.00181279 0.00133261 0)
(-0.00327509 0.00154682 0)
(-0.0049083 0.00182229 0)
(-0.00675013 0.00212989 0)
(-0.00880843 0.00241753 0)
(-0.0110523 0.00265062 0)
(-0.0134426 0.00281165 0)
(-0.0159322 0.0028974 0)
(-0.0184509 0.00291836 0)
(-0.0209331 0.00289746 0)
(-0.0233318 0.00285246 0)
(-0.0256096 0.00279602 0)
(-0.0277365 0.00272112 0)
(-0.0296916 0.00261212 0)
(-0.0314442 0.0024447 0)
(-0.0329598 0.00220346 0)
(-0.0342058 0.00189804 0)
(-0.035165 0.00156559 0)
(-0.0358443 0.00124876 0)
(-0.0362764 0.000974075 0)
(-0.0364994 0.000748686 0)
(-0.0365553 0.000559173 0)
(-0.0364802 0.000390378 0)
(-0.0363026 0.000231806 0)
(-0.036038 7.71684e-05 0)
(-0.0356931 -7.9751e-05 0)
(-0.0352767 -0.000236986 0)
(-0.0347918 -0.000389764 0)
(-0.0342413 -0.000536881 0)
(-0.0336294 -0.000677096 0)
(-0.0329632 -0.000810973 0)
(-0.0322355 -0.000936698 0)
(-0.0314461 -0.00106013 0)
(-0.0306044 -0.00118021 0)
(-0.0297058 -0.00129694 0)
(-0.0287512 -0.00141066 0)
(-0.027742 -0.00152076 0)
(-0.0266776 -0.00162686 0)
(-0.0255582 -0.00172856 0)
(-0.0243856 -0.00182514 0)
(-0.0231593 -0.00191659 0)
(-0.0218786 -0.00200361 0)
(-0.0205446 -0.00208583 0)
(-0.019157 -0.00216479 0)
(-0.0177158 -0.00224018 0)
(-0.0162215 -0.00231223 0)
(-0.0146746 -0.00237971 0)
(-0.0130753 -0.00244444 0)
(-0.0114266 -0.00251694 0)
(-0.00972755 -0.0026038 0)
(-0.00794071 -0.0027084 0)
(-0.00615846 -0.00279336 0)
(-0.00422801 -0.00281179 0)
(-0.0023724 -0.00262535 0)
(-0.000430692 -0.00200867 0)
(0.000444713 -0.0041684 0)
(0.00300347 -0.00691306 0)
(0.0061593 -0.00657901 0)
(0.00843815 -0.00588515 0)
(0.0106977 -0.00548008 0)
(0.0126608 -0.00533075 0)
(0.014677 -0.005213 0)
(0.0166197 -0.00509204 0)
(0.0185008 -0.00495268 0)
(0.0203134 -0.00480036 0)
(0.0220466 -0.00464229 0)
(0.0237003 -0.00447891 0)
(0.025278 -0.00431069 0)
(0.0267766 -0.00414004 0)
(0.0281963 -0.00396684 0)
(0.0295392 -0.00379113 0)
(0.0308062 -0.0036163 0)
(0.0319985 -0.0034395 0)
(0.0331186 -0.00326273 0)
(0.0341713 -0.00308468 0)
(0.0351571 -0.00290751 0)
(0.0360751 -0.00273232 0)
(0.0369366 -0.0025566 0)
(0.0377416 -0.00238165 0)
(0.038486 -0.00220386 0)
(0.0391795 -0.00202531 0)
(0.0398253 -0.00184899 0)
(0.0404241 -0.00167008 0)
(0.0409793 -0.00149119 0)
(0.041491 -0.00131089 0)
(0.041971 -0.00112749 0)
(0.0424237 -0.000939098 0)
(0.042847 -0.000743767 0)
(0.043249 -0.000540773 0)
(0.0436335 -0.000329159 0)
(0.0440083 -0.000111371 0)
(0.0443781 0.000109878 0)
(0.0447198 0.000331867 0)
(0.045043 0.000560946 0)
(0.0453475 0.000799763 0)
(0.0456298 0.00104043 0)
(0.0458906 0.00127481 0)
(0.0461173 0.00149189 0)
(0.0462968 0.00169031 0)
(0.0464075 0.00186974 0)
(0.0464386 0.0020296 0)
(0.0463831 0.00216623 0)
(0.0462315 0.00227144 0)
(0.0459763 0.0023394 0)
(0.0456109 0.00237153 0)
(0.045131 0.00237625 0)
(0.0445432 0.00236617 0)
(0.0438604 0.00235311 0)
(0.043095 0.00234431 0)
(0.0422597 0.00234294 0)
(0.0413654 0.0023493 0)
(0.0404181 0.00236006 0)
(0.0394223 0.00237325 0)
(0.0383812 0.00238766 0)
(0.0372972 0.00240206 0)
(0.0361726 0.00241568 0)
(0.0350083 0.00242882 0)
(0.0338082 0.00244117 0)
(0.0325764 0.00245201 0)
(0.0313156 0.00246102 0)
(0.0300285 0.00246828 0)
(0.0287183 0.0024738 0)
(0.0273886 0.00247707 0)
(0.0260431 0.00247809 0)
(0.0246845 0.00247668 0)
(0.0233158 0.0024728 0)
(0.0219405 0.00246648 0)
(0.0205619 0.00245761 0)
(0.019183 0.00244619 0)
(0.0178066 0.00243177 0)
(0.0164361 0.00241408 0)
(0.0150752 0.00239331 0)
(0.0137276 0.00236971 0)
(0.0123962 0.00234372 0)
(0.0110843 0.00231596 0)
(0.00979539 0.00228717 0)
(0.00853261 0.00225813 0)
(0.00729888 0.00222973 0)
(0.00609681 0.00220278 0)
(0.00492864 0.00217802 0)
(0.00379627 0.00215652 0)
(0.00270105 0.0021393 0)
(0.00164402 0.00212829 0)
(0.000625877 0.00212469 0)
(-0.000353367 0.0021302 0)
(-0.00129174 0.00214579 0)
(-0.00218753 0.00217539 0)
(-0.00304032 0.00222218 0)
(-0.00384678 0.00229068 0)
(-0.00460303 0.00238558 0)
(-0.00530121 0.00251368 0)
(-0.00593957 0.00268872 0)
(-0.00648002 0.00291119 0)
(-0.00691029 0.00317576 0)
(-0.00726188 0.00344508 0)
(-0.00754699 0.00369076 0)
(-0.00777933 0.00387186 0)
(-0.00797888 0.00396196 0)
(-0.00813891 0.00394151 0)
(-0.00824067 0.00381126 0)
(-0.00825687 0.00358246 0)
(-0.00816061 0.00327961 0)
(-0.00792965 0.00291742 0)
(-0.00755314 0.00250769 0)
(-0.00703577 0.00206525 0)
(-0.00639863 0.00159562 0)
(-0.00567402 0.00111481 0)
(-0.00489491 0.000649145 0)
(-0.00408948 0.000234087 0)
(-0.00327419 -0.000114393 0)
(-0.00245697 -0.000388287 0)
(-0.00164782 -0.000596985 0)
(-0.000852266 -0.000748954 0)
(-7.22492e-05 -0.00085378 0)
(0.000685299 -0.000925609 0)
(0.00141576 -0.000976925 0)
(0.00211543 -0.00101923 0)
(0.00277639 -0.00104667 0)
(0.00339279 -0.00107629 0)
(0.00396108 -0.00109886 0)
(0.00447599 -0.00112352 0)
(0.00493755 -0.00114858 0)
(0.00534416 -0.00117844 0)
(0.00569316 -0.00121075 0)
(0.00598461 -0.00124521 0)
(0.0062166 -0.00128233 0)
(0.00638624 -0.00132189 0)
(0.00649103 -0.00136431 0)
(0.00652989 -0.0014101 0)
(0.00650188 -0.00146145 0)
(0.00640713 -0.00151689 0)
(0.00624859 -0.00157728 0)
(0.0060277 -0.00164189 0)
(0.00574758 -0.00171092 0)
(0.005412 -0.00178392 0)
(0.00502412 -0.00186018 0)
(0.00459195 -0.00193867 0)
(0.00411727 -0.00201636 0)
(0.00361632 -0.00209647 0)
(0.00305446 -0.00217051 0)
(0.00250548 -0.00224109 0)
(0.00179259 -0.0022902 0)
(0.00120672 -0.00242485 0)
(0.000514476 -0.00256509 0)
(0.000660252 -0.00184916 0)
(0.000413688 -0.00653948 0)
(0.00322243 -0.0111415 0)
(0.00682641 -0.0106927 0)
(0.00960126 -0.00933456 0)
(0.0121826 -0.00854179 0)
(0.0144055 -0.00822156 0)
(0.016644 -0.00805998 0)
(0.018828 -0.0078761 0)
(0.0209583 -0.00764483 0)
(0.0230139 -0.00738438 0)
(0.0249809 -0.00711223 0)
(0.0268589 -0.00683391 0)
(0.0286473 -0.00655213 0)
(0.0303451 -0.00626783 0)
(0.0319549 -0.00598257 0)
(0.0334749 -0.00569714 0)
(0.0349087 -0.00541367 0)
(0.0362586 -0.00513377 0)
(0.037524 -0.00485601 0)
(0.0387079 -0.00458093 0)
(0.0398095 -0.0043102 0)
(0.0408357 -0.00404544 0)
(0.0417856 -0.00378072 0)
(0.0426615 -0.00352257 0)
(0.0434673 -0.0032682 0)
(0.0441972 -0.00301679 0)
(0.0448603 -0.00276831 0)
(0.045458 -0.00252538 0)
(0.0459849 -0.00228534 0)
(0.0464463 -0.00204879 0)
(0.0468421 -0.00181347 0)
(0.0471741 -0.00158239 0)
(0.0474417 -0.00135122 0)
(0.047647 -0.00111906 0)
(0.0477916 -0.000878421 0)
(0.0478789 -0.000626756 0)
(0.0479136 -0.000365617 0)
(0.0479028 -9.71917e-05 0)
(0.0478486 0.000172627 0)
(0.047742 0.000434598 0)
(0.047588 0.000693857 0)
(0.0473939 0.00095809 0)
(0.0471655 0.00123092 0)
(0.0468997 0.00150104 0)
(0.0465887 0.00176419 0)
(0.0462349 0.00202027 0)
(0.0458379 0.00227272 0)
(0.0453967 0.00251828 0)
(0.0449053 0.00274822 0)
(0.0443532 0.00295198 0)
(0.0437333 0.00312406 0)
(0.0430434 0.00326419 0)
(0.042284 0.00337758 0)
(0.04146 0.00347304 0)
(0.0405795 0.00355855 0)
(0.0396489 0.00363937 0)
(0.038673 0.00371829 0)
(0.0376553 0.00379659 0)
(0.0365993 0.00387257 0)
(0.0355077 0.00394504 0)
(0.0343837 0.00401266 0)
(0.0332301 0.00407486 0)
(0.0320479 0.00413225 0)
(0.0308399 0.00418426 0)
(0.0296109 0.00422978 0)
(0.0283634 0.00426919 0)
(0.0270994 0.00430224 0)
(0.0258217 0.0043288 0)
(0.0245328 0.00434841 0)
(0.0232357 0.00436078 0)
(0.0219335 0.0043661 0)
(0.0206291 0.00436442 0)
(0.0193249 0.00435555 0)
(0.0180236 0.00433919 0)
(0.0167271 0.0043156 0)
(0.0154386 0.00428487 0)
(0.0141614 0.00424679 0)
(0.0128982 0.00420123 0)
(0.0116512 0.00414823 0)
(0.010423 0.00408838 0)
(0.00921628 0.0040227 0)
(0.00803339 0.00395223 0)
(0.0068769 0.00387817 0)
(0.00574911 0.0038021 0)
(0.00465252 0.00372555 0)
(0.00358948 0.00364979 0)
(0.00256234 0.00357595 0)
(0.00157261 0.00350546 0)
(0.000621629 0.00343968 0)
(-0.000290386 0.00338016 0)
(-0.00115922 0.00332952 0)
(-0.00198074 0.00328518 0)
(-0.00275445 0.0032545 0)
(-0.00347854 0.00323592 0)
(-0.00415071 0.00323073 0)
(-0.00476052 0.00323512 0)
(-0.0053084 0.00325615 0)
(-0.00576978 0.00328808 0)
(-0.00612617 0.0033373 0)
(-0.00637883 0.00340972 0)
(-0.00651177 0.00348672 0)
(-0.00652693 0.00351847 0)
(-0.00644095 0.00348115 0)
(-0.0062779 0.00334564 0)
(-0.00606223 0.00310645 0)
(-0.00581632 0.00277243 0)
(-0.00556196 0.00236319 0)
(-0.00532065 0.00190116 0)
(-0.00509473 0.00140707 0)
(-0.00489452 0.000896564 0)
(-0.00473656 0.000389129 0)
(-0.0046193 -9.22612e-05 0)
(-0.00452653 -0.000522906 0)
(-0.00445302 -0.000895661 0)
(-0.0043974 -0.00119083 0)
(-0.00433784 -0.001419 0)
(-0.00425029 -0.00159505 0)
(-0.00411035 -0.0017285 0)
(-0.00391338 -0.00183995 0)
(-0.00365894 -0.00193606 0)
(-0.00334573 -0.0020241 0)
(-0.00295861 -0.00209055 0)
(-0.00251312 -0.00213681 0)
(-0.00201306 -0.00216231 0)
(-0.00145931 -0.00216911 0)
(-0.000881078 -0.00216198 0)
(-0.000277006 -0.00214647 0)
(0.000342414 -0.00212485 0)
(0.000962685 -0.00209189 0)
(0.00157363 -0.00205059 0)
(0.00216634 -0.00199879 0)
(0.0027294 -0.00193689 0)
(0.00325262 -0.00186457 0)
(0.00372421 -0.00178511 0)
(0.00413441 -0.00170044 0)
(0.00447312 -0.00161297 0)
(0.00472997 -0.00152382 0)
(0.00489835 -0.001438 0)
(0.00497149 -0.00135471 0)
(0.00494612 -0.00127987 0)
(0.00481907 -0.00121595 0)
(0.00459101 -0.00115883 0)
(0.0042598 -0.00111167 0)
(0.00384642 -0.0010758 0)
(0.00331692 -0.00104331 0)
(0.00274863 -0.00100794 0)
(0.00196421 -0.000954952 0)
(0.0013327 -0.00114764 0)
(0.000700267 -0.00174954 0)
(0.000988255 -0.000478285 0)
(0.000417055 -0.00915756 0)
(0.00349413 -0.015862 0)
(0.0073917 -0.0153955 0)
(0.010545 -0.0133799 0)
(0.0134453 -0.0120919 0)
(0.0159835 -0.0115496 0)
(0.0184745 -0.0113204 0)
(0.0209109 -0.0110796 0)
(0.0232852 -0.0107567 0)
(0.0255792 -0.0103782 0)
(0.0277765 -0.00997488 0)
(0.0298721 -0.00956355 0)
(0.0318669 -0.00914834 0)
(0.0337596 -0.00873106 0)
(0.0355497 -0.00831229 0)
(0.0372381 -0.00789533 0)
(0.0388228 -0.00747941 0)
(0.0403071 -0.00706977 0)
(0.0416932 -0.00666392 0)
(0.0429825 -0.00626419 0)
(0.0441732 -0.00587056 0)
(0.0452716 -0.00548203 0)
(0.0462818 -0.00510106 0)
(0.0472003 -0.00472265 0)
(0.0480303 -0.00435091 0)
(0.0487767 -0.0039865 0)
(0.0494396 -0.00362349 0)
(0.0500223 -0.00326404 0)
(0.0505293 -0.00290627 0)
(0.0509562 -0.00254947 0)
(0.0513061 -0.00219344 0)
(0.0515823 -0.00183397 0)
(0.0517814 -0.00147231 0)
(0.0519088 -0.00110962 0)
(0.0519707 -0.000744307 0)
(0.0519657 -0.000374391 0)
(0.0518926 -5.62739e-06 0)
(0.0517501 0.000364676 0)
(0.0515501 0.000731365 0)
(0.0512945 0.0010886 0)
(0.0509846 0.00143989 0)
(0.0506241 0.00178362 0)
(0.0502074 0.00211922 0)
(0.0497406 0.00243939 0)
(0.0492253 0.00274445 0)
(0.0486639 0.003033 0)
(0.0480587 0.00330416 0)
(0.0474107 0.00355904 0)
(0.0467248 0.00379714 0)
(0.0460016 0.00401739 0)
(0.0452354 0.00422017 0)
(0.0444229 0.00440616 0)
(0.043564 0.0045762 0)
(0.0426571 0.00473313 0)
(0.0417028 0.00487965 0)
(0.0407046 0.00501709 0)
(0.0396675 0.00514691 0)
(0.0385952 0.00526954 0)
(0.0374903 0.00538525 0)
(0.0363571 0.00549333 0)
(0.0351984 0.00559372 0)
(0.0340171 0.00568552 0)
(0.0328161 0.00576831 0)
(0.0315963 0.00584237 0)
(0.0303611 0.00590784 0)
(0.0291135 0.005964 0)
(0.0278549 0.00601035 0)
(0.0265877 0.00604692 0)
(0.0253142 0.00607333 0)
(0.0240369 0.00608966 0)
(0.022758 0.00609574 0)
(0.0214795 0.00609156 0)
(0.0202035 0.00607718 0)
(0.0189324 0.00605248 0)
(0.0176683 0.00601761 0)
(0.016413 0.00597257 0)
(0.0151683 0.00591731 0)
(0.0139357 0.00585229 0)
(0.0127169 0.00577769 0)
(0.0115137 0.0056938 0)
(0.0103277 0.00560149 0)
(0.00916006 0.00550184 0)
(0.00801268 0.00539584 0)
(0.00688762 0.00528488 0)
(0.00578645 0.00517055 0)
(0.00471064 0.0050541 0)
(0.00366214 0.00493672 0)
(0.00264317 0.00481954 0)
(0.00165549 0.00470442 0)
(0.000701723 0.00459168 0)
(-0.000220365 0.00448503 0)
(-0.001101 0.00438366 0)
(-0.00193635 0.00429026 0)
(-0.00272939 0.00420421 0)
(-0.00347741 0.00412957 0)
(-0.00416388 0.00406698 0)
(-0.00478656 0.0040151 0)
(-0.0053545 0.00397687 0)
(-0.00585047 0.00393344 0)
(-0.00626942 0.00388304 0)
(-0.00661526 0.00381162 0)
(-0.00687204 0.00370841 0)
(-0.00705249 0.00356408 0)
(-0.00718985 0.00337445 0)
(-0.00729953 0.00314121 0)
(-0.00740373 0.00286687 0)
(-0.00751859 0.00255707 0)
(-0.00765301 0.0022166 0)
(-0.00781381 0.00186322 0)
(-0.00800269 0.00149242 0)
(-0.00821752 0.0011139 0)
(-0.00845666 0.000732847 0)
(-0.00872936 0.000356438 0)
(-0.00900752 -1.72488e-05 0)
(-0.00926591 -0.000372559 0)
(-0.00950506 -0.000705424 0)
(-0.00969643 -0.00100668 0)
(-0.00983586 -0.00128228 0)
(-0.00992734 -0.00154644 0)
(-0.0099746 -0.00178592 0)
(-0.00996566 -0.00200747 0)
(-0.00989637 -0.00220692 0)
(-0.00978082 -0.00238842 0)
(-0.00960799 -0.00253779 0)
(-0.0093748 -0.00266601 0)
(-0.00908733 -0.00276534 0)
(-0.008747 -0.00284019 0)
(-0.00835008 -0.00288689 0)
(-0.00790729 -0.00290884 0)
(-0.00742584 -0.00290927 0)
(-0.00690571 -0.00287976 0)
(-0.00635463 -0.00282433 0)
(-0.00578175 -0.00274211 0)
(-0.00519522 -0.00263581 0)
(-0.00460251 -0.00250212 0)
(-0.00401367 -0.00234856 0)
(-0.00344179 -0.00217757 0)
(-0.00289484 -0.00199222 0)
(-0.00238401 -0.00179705 0)
(-0.00192437 -0.0015986 0)
(-0.00151451 -0.00140156 0)
(-0.00116242 -0.00120946 0)
(-0.000881147 -0.00102816 0)
(-0.000658381 -0.000854971 0)
(-0.000542413 -0.000674427 0)
(-0.000467079 -0.000470083 0)
(-0.000610017 -0.000350714 0)
(-0.000435039 -0.000829622 0)
(-0.000148729 -0.00198747 0)
(0.000858435 0.000360052 0)
(0.000421409 -0.0118939 0)
(0.0036262 -0.0208345 0)
(0.00765188 -0.0203858 0)
(0.0109663 -0.0177694 0)
(0.0140221 -0.0159792 0)
(0.0167073 -0.0151864 0)
(0.0193057 -0.0148425 0)
(0.0218431 -0.0145165 0)
(0.0243035 -0.0140886 0)
(0.0266753 -0.0135802 0)
(0.0289446 -0.0130343 0)
(0.0311059 -0.012476 0)
(0.0331574 -0.0119117 0)
(0.0350983 -0.0113446 0)
(0.0369293 -0.0107771 0)
(0.0386505 -0.0102103 0)
(0.040261 -0.00964776 0)
(0.0417642 -0.00909031 0)
(0.0431619 -0.00854099 0)
(0.0444533 -0.00799995 0)
(0.0456414 -0.00746948 0)
(0.0467292 -0.00694594 0)
(0.0477228 -0.00643257 0)
(0.048623 -0.00593054 0)
(0.0494273 -0.00543572 0)
(0.0501423 -0.00494829 0)
(0.0507751 -0.00447025 0)
(0.0513238 -0.00399905 0)
(0.0517871 -0.00353585 0)
(0.052168 -0.00307896 0)
(0.0524743 -0.00262974 0)
(0.0527085 -0.00218454 0)
(0.0528646 -0.00174287 0)
(0.0529496 -0.0013025 0)
(0.0529723 -0.000865286 0)
(0.0529288 -0.000431362 0)
(0.0528268 5.05338e-07 0)
(0.0526757 0.000427681 0)
(0.0524662 0.000854891 0)
(0.0521997 0.0012768 0)
(0.0518841 0.00169677 0)
(0.0515198 0.00210789 0)
(0.051106 0.00251313 0)
(0.050644 0.00291165 0)
(0.0501345 0.00330037 0)
(0.0495761 0.00367732 0)
(0.0489706 0.00403951 0)
(0.0483193 0.00438523 0)
(0.0476213 0.00471227 0)
(0.0468771 0.00501824 0)
(0.0460883 0.00530278 0)
(0.0452543 0.00556642 0)
(0.0443754 0.00580971 0)
(0.0434533 0.00603451 0)
(0.042489 0.00624375 0)
(0.0414844 0.00643886 0)
(0.0404424 0.00662133 0)
(0.0393658 0.00679102 0)
(0.0382575 0.00694909 0)
(0.0371205 0.00709571 0)
(0.0359578 0.00723019 0)
(0.0347717 0.00735236 0)
(0.0335644 0.00746188 0)
(0.0323392 0.00755934 0)
(0.0310988 0.00764488 0)
(0.0298448 0.00771749 0)
(0.0285795 0.00777708 0)
(0.0273051 0.00782361 0)
(0.0260238 0.00785705 0)
(0.0247378 0.00787755 0)
(0.0234495 0.00788496 0)
(0.0221608 0.00787915 0)
(0.0208737 0.00786027 0)
(0.01959 0.00782859 0)
(0.0183112 0.0077842 0)
(0.0170392 0.0077272 0)
(0.015777 0.00765752 0)
(0.0145263 0.00757569 0)
(0.0132877 0.00748232 0)
(0.0120631 0.00737805 0)
(0.0108541 0.00726359 0)
(0.00966181 0.00713988 0)
(0.00848782 0.00700801 0)
(0.00733424 0.00686907 0)
(0.0062029 0.00672416 0)
(0.00509535 0.00657451 0)
(0.00401379 0.00642141 0)
(0.0029607 0.00626608 0)
(0.00193661 0.00610957 0)
(0.000944442 0.00595353 0)
(-1.29984e-05 0.00579822 0)
(-0.000932811 0.00564729 0)
(-0.00181409 0.00549695 0)
(-0.0026528 0.00535142 0)
(-0.00344436 0.00521033 0)
(-0.00418512 0.00507709 0)
(-0.00487182 0.00493552 0)
(-0.00550539 0.00479977 0)
(-0.00607758 0.00466218 0)
(-0.00658825 0.00451589 0)
(-0.00703942 0.00435727 0)
(-0.00743104 0.00418159 0)
(-0.0077723 0.00396837 0)
(-0.00807007 0.00372177 0)
(-0.0083352 0.00343595 0)
(-0.00857887 0.00311266 0)
(-0.00881211 0.00274965 0)
(-0.00903049 0.00236406 0)
(-0.00923932 0.00195832 0)
(-0.00945153 0.00154109 0)
(-0.00966492 0.00112031 0)
(-0.00988019 0.000697858 0)
(-0.0100943 0.000294084 0)
(-0.0103002 -7.83728e-05 0)
(-0.0105013 -0.000425387 0)
(-0.0106928 -0.000749287 0)
(-0.0108716 -0.00104448 0)
(-0.0110519 -0.00132209 0)
(-0.0112094 -0.00158307 0)
(-0.0113403 -0.00182965 0)
(-0.0114621 -0.00205749 0)
(-0.0115591 -0.00227776 0)
(-0.0116297 -0.00248415 0)
(-0.0116754 -0.00267222 0)
(-0.0116888 -0.00284793 0)
(-0.0116715 -0.00300144 0)
(-0.0116112 -0.00313459 0)
(-0.0115037 -0.00324534 0)
(-0.0113616 -0.0033368 0)
(-0.0111686 -0.00340261 0)
(-0.0109239 -0.00344168 0)
(-0.0106371 -0.00345153 0)
(-0.0103031 -0.00343089 0)
(-0.00991696 -0.00337674 0)
(-0.00948279 -0.00329028 0)
(-0.00900966 -0.00317163 0)
(-0.00849607 -0.00302561 0)
(-0.00794779 -0.00285048 0)
(-0.00737328 -0.00265547 0)
(-0.00677801 -0.00244105 0)
(-0.00616645 -0.00221519 0)
(-0.00554671 -0.00198885 0)
(-0.00492516 -0.00176656 0)
(-0.00430226 -0.00153529 0)
(-0.00372635 -0.001261 0)
(-0.00314682 -0.000948586 0)
(-0.00270039 -0.000914933 0)
(-0.00183357 -0.00184218 0)
(-0.000848671 -0.00339919 0)
(0.000615119 0.000444107 0)
(0.000433583 -0.0147045 0)
(0.00373157 -0.0259268 0)
(0.00788953 -0.0255096 0)
(0.0113445 -0.0222695 0)
(0.0144981 -0.0199574 0)
(0.0172612 -0.0188953 0)
(0.019909 -0.0184158 0)
(0.0224851 -0.0179895 0)
(0.024976 -0.0174446 0)
(0.0273725 -0.0167983 0)
(0.0296581 -0.0161027 0)
(0.0318281 -0.0153895 0)
(0.0338828 -0.0146704 0)
(0.0358193 -0.0139468 0)
(0.037641 -0.0132237 0)
(0.0393492 -0.0125014 0)
(0.0409436 -0.0117858 0)
(0.0424269 -0.0110769 0)
(0.0438021 -0.0103812 0)
(0.0450712 -0.00969577 0)
(0.0462376 -0.00902347 0)
(0.0473063 -0.00836464 0)
(0.0482754 -0.00771755 0)
(0.0491523 -0.00708523 0)
(0.0499418 -0.00646781 0)
(0.0506415 -0.0058589 0)
(0.0512556 -0.00526045 0)
(0.0517886 -0.00467417 0)
(0.0522443 -0.00409804 0)
(0.0526188 -0.00353017 0)
(0.0529192 -0.00296789 0)
(0.0531518 -0.00241213 0)
(0.0533128 -0.00186385 0)
(0.0534051 -0.00131768 0)
(0.0534327 -0.000777431 0)
(0.053399 -0.000243273 0)
(0.0532988 0.000288973 0)
(0.0531356 0.000812314 0)
(0.0529174 0.00132594 0)
(0.0526444 0.00183034 0)
(0.0523163 0.00232509 0)
(0.0519374 0.0028078 0)
(0.0515107 0.00327569 0)
(0.0510335 0.003731 0)
(0.0505068 0.00417113 0)
(0.0499327 0.00459496 0)
(0.0493134 0.00500242 0)
(0.048649 0.00539229 0)
(0.0479402 0.00576332 0)
(0.0471882 0.00611621 0)
(0.0463911 0.00645029 0)
(0.0455477 0.00676495 0)
(0.0446601 0.00706167 0)
(0.0437308 0.00734133 0)
(0.0427598 0.00760437 0)
(0.0417485 0.00785134 0)
(0.0406995 0.00808194 0)
(0.039616 0.00829654 0)
(0.0385007 0.00849575 0)
(0.0373556 0.00867973 0)
(0.0361829 0.00884797 0)
(0.0349861 0.00900077 0)
(0.0337687 0.00913868 0)
(0.0325326 0.00926146 0)
(0.0312788 0.00936831 0)
(0.0300099 0.00945905 0)
(0.0287285 0.00953375 0)
(0.027437 0.00959225 0)
(0.0261379 0.00963459 0)
(0.0248332 0.00966104 0)
(0.0235247 0.00967146 0)
(0.0222146 0.00966574 0)
(0.0209054 0.00964404 0)
(0.0195992 0.00960667 0)
(0.0182979 0.00955378 0)
(0.0170029 0.0094862 0)
(0.0157165 0.00940388 0)
(0.0144414 0.00930678 0)
(0.0131789 0.00919557 0)
(0.0119309 0.00907122 0)
(0.0106992 0.00893442 0)
(0.00948551 0.00878582 0)
(0.00829175 0.00862648 0)
(0.00712006 0.00845745 0)
(0.0059723 0.00827969 0)
(0.00485038 0.00809422 0)
(0.0037565 0.00790221 0)
(0.00269283 0.00770472 0)
(0.00166192 0.00750267 0)
(0.000665529 0.00729875 0)
(-0.000295657 0.00709124 0)
(-0.00121737 0.00688265 0)
(-0.00209494 0.0066741 0)
(-0.00292672 0.00646639 0)
(-0.00371125 0.00625932 0)
(-0.00445412 0.00605309 0)
(-0.00513864 0.00584449 0)
(-0.00576258 0.00563256 0)
(-0.00633843 0.0054186 0)
(-0.00685635 0.00519516 0)
(-0.00731746 0.00496142 0)
(-0.00772757 0.00470644 0)
(-0.00808348 0.00443637 0)
(-0.00839294 0.00414435 0)
(-0.0086691 0.00382702 0)
(-0.00892466 0.0034899 0)
(-0.00915224 0.00313385 0)
(-0.00935425 0.00276643 0)
(-0.00955148 0.00238501 0)
(-0.00974174 0.00199467 0)
(-0.00993628 0.00160349 0)
(-0.0101205 0.00121525 0)
(-0.0102932 0.000834478 0)
(-0.0104688 0.000463217 0)
(-0.0106482 9.89031e-05 0)
(-0.0108207 -0.000253146 0)
(-0.0109739 -0.000589489 0)
(-0.0111155 -0.00090982 0)
(-0.0112397 -0.00120899 0)
(-0.0113463 -0.00150304 0)
(-0.0114403 -0.00177632 0)
(-0.0115204 -0.00203401 0)
(-0.011584 -0.00227961 0)
(-0.0116401 -0.00251065 0)
(-0.0116775 -0.00272595 0)
(-0.0116929 -0.00292629 0)
(-0.0116929 -0.00310631 0)
(-0.0116695 -0.00327065 0)
(-0.0116212 -0.00341754 0)
(-0.0115426 -0.00353892 0)
(-0.0114318 -0.00364198 0)
(-0.0112863 -0.00371934 0)
(-0.0111012 -0.0037692 0)
(-0.0108727 -0.00378675 0)
(-0.0105963 -0.00377706 0)
(-0.0102714 -0.00373544 0)
(-0.00989292 -0.00366618 0)
(-0.00945999 -0.00356387 0)
(-0.00897271 -0.00343603 0)
(-0.00843273 -0.00328352 0)
(-0.0078432 -0.00311294 0)
(-0.00720412 -0.0029351 0)
(-0.00651956 -0.00275099 0)
(-0.00579115 -0.00253954 0)
(-0.00505573 -0.00225239 0)
(-0.00427087 -0.00194365 0)
(-0.00354449 -0.00209985 0)
(-0.00241044 -0.00349056 0)
(-0.00118296 -0.00529467 0)
(0.000411033 3.69539e-05 0)
(0.00044424 -0.0175937 0)
(0.00384419 -0.0311903 0)
(0.00818671 -0.0308661 0)
(0.0118565 -0.026974 0)
(0.0151542 -0.0240737 0)
(0.0180142 -0.0226872 0)
(0.0207186 -0.0220488 0)
(0.0233391 -0.0215108 0)
(0.0258674 -0.0208389 0)
(0.0282928 -0.0200431 0)
(0.0305996 -0.0191862 0)
(0.0327806 -0.0183073 0)
(0.0348375 -0.0174224 0)
(0.036769 -0.016536 0)
(0.0385797 -0.0156497 0)
(0.0402716 -0.014768 0)
(0.0418464 -0.0138958 0)
(0.0433063 -0.0130351 0)
(0.0446577 -0.012191 0)
(0.0459045 -0.0113622 0)
(0.0470456 -0.0105499 0)
(0.0480899 -0.0097574 0)
(0.0490399 -0.00898348 0)
(0.0498943 -0.00822373 0)
(0.0506633 -0.00748532 0)
(0.0513507 -0.00676094 0)
(0.0519528 -0.00605133 0)
(0.0524734 -0.00535648 0)
(0.0529162 -0.00467476 0)
(0.0532846 -0.00400537 0)
(0.0535826 -0.00334549 0)
(0.0538079 -0.002697 0)
(0.0539626 -0.00205831 0)
(0.0540495 -0.0014297 0)
(0.0540696 -0.000809295 0)
(0.0540294 -0.000197844 0)
(0.0539274 0.000403198 0)
(0.0537656 0.000996575 0)
(0.0535445 0.00158371 0)
(0.053266 0.0021591 0)
(0.0529338 0.00272596 0)
(0.052545 0.00328238 0)
(0.0521054 0.00382507 0)
(0.0516164 0.00435273 0)
(0.0510744 0.00486757 0)
(0.0504818 0.00536725 0)
(0.0498407 0.00584969 0)
(0.049151 0.00631376 0)
(0.0484139 0.00675823 0)
(0.0476307 0.00718195 0)
(0.046801 0.00758416 0)
(0.0459269 0.00796514 0)
(0.0450104 0.00832537 0)
(0.0440522 0.00866501 0)
(0.0430531 0.00898446 0)
(0.042014 0.00928489 0)
(0.0409378 0.00956555 0)
(0.0398282 0.00982695 0)
(0.0386875 0.0100691 0)
(0.0375173 0.0102926 0)
(0.0363204 0.0104977 0)
(0.0351006 0.0106841 0)
(0.0338591 0.0108518 0)
(0.0325973 0.0110001 0)
(0.0313179 0.0111291 0)
(0.0300237 0.011239 0)
(0.028717 0.0113297 0)
(0.0274001 0.0114012 0)
(0.0260755 0.0114534 0)
(0.0247453 0.0114864 0)
(0.0234113 0.0115004 0)
(0.0220761 0.0114954 0)
(0.020742 0.0114716 0)
(0.0194109 0.0114291 0)
(0.0180853 0.0113682 0)
(0.0167668 0.0112894 0)
(0.0154574 0.0111931 0)
(0.0141599 0.0110792 0)
(0.0128766 0.0109487 0)
(0.0116094 0.0108023 0)
(0.0103598 0.0106405 0)
(0.00912983 0.0104643 0)
(0.00792193 0.0102747 0)
(0.00673821 0.0100724 0)
(0.00558061 0.00985849 0)
(0.00445112 0.00963399 0)
(0.00335207 0.00940002 0)
(0.00228571 0.00915755 0)
(0.00125489 0.00890776 0)
(0.000259013 0.00865148 0)
(-0.000699348 0.0083893 0)
(-0.00161346 0.00812513 0)
(-0.00248484 0.00785634 0)
(-0.00331129 0.00758472 0)
(-0.00408913 0.00730971 0)
(-0.0048191 0.00703109 0)
(-0.00549973 0.00675393 0)
(-0.00612587 0.00646702 0)
(-0.00669818 0.0061747 0)
(-0.0072192 0.00587662 0)
(-0.00769531 0.00556372 0)
(-0.00811631 0.00524052 0)
(-0.00848532 0.00490446 0)
(-0.00882206 0.00454752 0)
(-0.00912011 0.00417494 0)
(-0.00938477 0.00378605 0)
(-0.0096246 0.00339037 0)
(-0.00984081 0.00297399 0)
(-0.0100428 0.00255617 0)
(-0.010229 0.00213473 0)
(-0.0103993 0.00171345 0)
(-0.0105597 0.00130471 0)
(-0.0107095 0.000899054 0)
(-0.0108516 0.000503582 0)
(-0.0109845 0.00012418 0)
(-0.0110952 -0.000231053 0)
(-0.0111875 -0.000570188 0)
(-0.0112738 -0.000892627 0)
(-0.0113527 -0.00120105 0)
(-0.0114077 -0.00149108 0)
(-0.0114431 -0.00176815 0)
(-0.0114724 -0.00203093 0)
(-0.0114863 -0.00228233 0)
(-0.0114843 -0.00252168 0)
(-0.0114674 -0.00274296 0)
(-0.0114358 -0.00295457 0)
(-0.0113857 -0.00315516 0)
(-0.0113207 -0.00334002 0)
(-0.0112378 -0.00350916 0)
(-0.011134 -0.0036621 0)
(-0.0110098 -0.00379847 0)
(-0.0108613 -0.00391502 0)
(-0.0106832 -0.00401144 0)
(-0.0104742 -0.00408552 0)
(-0.0102307 -0.00413551 0)
(-0.00995141 -0.00416126 0)
(-0.0096232 -0.00416006 0)
(-0.00924453 -0.0041363 0)
(-0.0088198 -0.00408665 0)
(-0.00833904 -0.00401632 0)
(-0.00780533 -0.00392622 0)
(-0.00721545 -0.00382697 0)
(-0.00656971 -0.00371851 0)
(-0.00586751 -0.00357164 0)
(-0.00513397 -0.00333316 0)
(-0.004329 -0.00308528 0)
(-0.00355766 -0.00341775 0)
(-0.00246625 -0.00518275 0)
(-0.00128318 -0.00722056 0)
(0.000287276 -0.000619495 0)
(0.000442984 -0.0205633 0)
(0.00396258 -0.0366771 0)
(0.00854152 -0.0365503 0)
(0.0125027 -0.031982 0)
(0.0160131 -0.0283966 0)
(0.0190163 -0.0266001 0)
(0.0218017 -0.0257619 0)
(0.0244797 -0.025097 0)
(0.0270591 -0.0242909 0)
(0.0295269 -0.0233354 0)
(0.0318661 -0.0223016 0)
(0.034069 -0.021242 0)
(0.0361347 -0.0201789 0)
(0.0380663 -0.0191174 0)
(0.0398696 -0.0180595 0)
(0.041546 -0.0170124 0)
(0.0431009 -0.0159792 0)
(0.0445369 -0.0149633 0)
(0.0458613 -0.013967 0)
(0.0470817 -0.0129946 0)
(0.0481951 -0.0120449 0)
(0.0492096 -0.0111191 0)
(0.0501341 -0.0102164 0)
(0.0509644 -0.00933585 0)
(0.0517093 -0.00847539 0)
(0.0523746 -0.00763656 0)
(0.0529547 -0.00681703 0)
(0.0534569 -0.00601415 0)
(0.0538859 -0.00522669 0)
(0.0542398 -0.00445453 0)
(0.0545217 -0.00369466 0)
(0.0547359 -0.00294931 0)
(0.0548801 -0.00221381 0)
(0.0549576 -0.00148995 0)
(0.0549717 -0.000775178 0)
(0.0549211 -7.05696e-05 0)
(0.0548051 0.000623333 0)
(0.0546306 0.00130546 0)
(0.0543947 0.00197629 0)
(0.0540998 0.0026357 0)
(0.0537507 0.00328062 0)
(0.0533427 0.00391303 0)
(0.0528795 0.00453014 0)
(0.052366 0.00512803 0)
(0.0518017 0.00570855 0)
(0.0511829 0.00627272 0)
(0.0505135 0.00681906 0)
(0.049795 0.00734466 0)
(0.0490283 0.00784939 0)
(0.0482149 0.00833255 0)
(0.0473551 0.0087938 0)
(0.0464496 0.00923345 0)
(0.0455005 0.00965063 0)
(0.0445101 0.010045 0)
(0.0434803 0.0104166 0)
(0.042411 0.0107663 0)
(0.041304 0.0110945 0)
(0.0401633 0.0114011 0)
(0.0389919 0.0116857 0)
(0.0377917 0.0119482 0)
(0.0365644 0.012189 0)
(0.0353128 0.0124076 0)
(0.0340396 0.0126034 0)
(0.032747 0.0127766 0)
(0.0314371 0.0129277 0)
(0.0301124 0.0130565 0)
(0.0287752 0.0131626 0)
(0.0274279 0.0132464 0)
(0.0260732 0.0133078 0)
(0.0247132 0.0133468 0)