/*--------------------------------*- C++ -*----------------------------------*\
| =========                 |                                                 |
| \\      /  F ield         | OpenFOAM: The Open Source CFD Toolbox           |
|  \\    /   O peration     | Version:  v2006                                 |
|   \\  /    A nd           | Website:  www.openfoam.com                      |
|    \\/     M anipulation  |                                                 |
\*---------------------------------------------------------------------------*/
FoamFile
{
    version     2.0;
    format      ascii;
    class       volVectorField;
    location    "6.1";
    object      U;
}
// * * * * * * * * * * * * * * * * * * * * * * * * * * * * * * * * * * * * * //

dimensions      [0 1 -1 0 0 0 0];


internalField   nonuniform List<vector> 
52500
(
(-0.00259078 0.00261809 0)
(-0.00508567 0.00142938 0)
(-0.00749648 0.00162151 0)
(-0.0105939 0.00189153 0)
(-0.0136486 0.00195109 0)
(-0.0167777 0.00193798 0)
(-0.0198207 0.00191727 0)
(-0.0228565 0.00190071 0)
(-0.0258651 0.00188605 0)
(-0.0288452 0.00187028 0)
(-0.0317944 0.00185282 0)
(-0.0347084 0.00183368 0)
(-0.0375846 0.0018131 0)
(-0.0404198 0.00179112 0)
(-0.0432109 0.00176765 0)
(-0.045955 0.00174314 0)
(-0.0486496 0.00171683 0)
(-0.0512921 0.00168939 0)
(-0.0538798 0.00166069 0)
(-0.0564103 0.00163093 0)
(-0.0588811 0.00160018 0)
(-0.0612904 0.00156829 0)
(-0.0636363 0.00153551 0)
(-0.0659161 0.00150175 0)
(-0.0681287 0.00146693 0)
(-0.0702728 0.0014317 0)
(-0.0723461 0.0013961 0)
(-0.0743473 0.00135982 0)
(-0.0762756 0.00132336 0)
(-0.0781303 0.00128686 0)
(-0.0799102 0.00125091 0)
(-0.0816144 0.0012159 0)
(-0.0832426 0.00118228 0)
(-0.084795 0.00115057 0)
(-0.0862718 0.00112159 0)
(-0.087674 0.00109656 0)
(-0.0890031 0.00107689 0)
(-0.0902616 0.00106281 0)
(-0.0914512 0.00105089 0)
(-0.092572 0.00103378 0)
(-0.0936201 0.00100479 0)
(-0.0945889 0.000962636 0)
(-0.0954736 0.000910471 0)
(-0.0962715 0.000851818 0)
(-0.096981 0.000788642 0)
(-0.0976002 0.000721742 0)
(-0.0981275 0.000651461 0)
(-0.0985619 0.000578263 0)
(-0.0989029 0.000502908 0)
(-0.0991498 0.000426084 0)
(-0.0993009 0.000344802 0)
(-0.0993493 0.000253127 0)
(-0.0992879 0.00013548 0)
(-0.0991052 -1.74516e-05 0)
(-0.0987829 -0.000203987 0)
(-0.0983079 -0.000407103 0)
(-0.0976799 -0.000602872 0)
(-0.0969092 -0.000774391 0)
(-0.0960107 -0.00091827 0)
(-0.0949975 -0.00104097 0)
(-0.0938784 -0.00115034 0)
(-0.0926587 -0.00125168 0)
(-0.0913428 -0.00134776 0)
(-0.0899344 -0.00143978 0)
(-0.0884366 -0.00152871 0)
(-0.0868521 -0.00161534 0)
(-0.0851834 -0.00169986 0)
(-0.083433 -0.00178225 0)
(-0.0816031 -0.00186266 0)
(-0.0796958 -0.00194131 0)
(-0.0777133 -0.0020181 0)
(-0.0756579 -0.00209273 0)
(-0.073532 -0.00216522 0)
(-0.0713379 -0.00223571 0)
(-0.0690777 -0.00230421 0)
(-0.0667535 -0.00237079 0)
(-0.0643673 -0.00243575 0)
(-0.0619205 -0.00249897 0)
(-0.0594151 -0.00255877 0)
(-0.0568544 -0.00261085 0)
(-0.0542448 -0.00264879 0)
(-0.0515959 -0.00266691 0)
(-0.0489187 -0.00266378 0)
(-0.046224 -0.00264367 0)
(-0.0435195 -0.00261465 0)
(-0.0408092 -0.00258478 0)
(-0.0380941 -0.00255923 0)
(-0.0353737 -0.00253995 0)
(-0.0326469 -0.00252694 0)
(-0.0299129 -0.00251956 0)
(-0.0271708 -0.00251701 0)
(-0.0244203 -0.00251831 0)
(-0.0216613 -0.00252224 0)
(-0.0188944 -0.00252751 0)
(-0.0161205 -0.00253295 0)
(-0.0133411 -0.00253763 0)
(-0.0105581 -0.00254091 0)
(-0.00777345 -0.00254235 0)
(-0.00498932 -0.00254173 0)
(-0.00220794 -0.0025389 0)
(0.000568558 -0.00253376 0)
(0.00333776 -0.00252625 0)
(0.00609733 -0.00251616 0)
(0.00884474 -0.00250343 0)
(0.011578 -0.00248775 0)
(0.0142941 -0.00246934 0)
(0.0169906 -0.00244764 0)
(0.0196655 -0.00242274 0)
(0.0223159 -0.00239448 0)
(0.0249392 -0.00236278 0)
(0.0275326 -0.00232754 0)
(0.0300982 -0.00228848 0)
(0.0326252 -0.00224827 0)
(0.0351109 -0.0022025 0)
(0.0375615 -0.00215377 0)
(0.0399695 -0.00210197 0)
(0.0423326 -0.00204672 0)
(0.0446505 -0.00198904 0)
(0.0469182 -0.00192855 0)
(0.0491335 -0.00186575 0)
(0.0512996 -0.00179993 0)
(0.0534093 -0.00173377 0)
(0.0554613 -0.00166499 0)
(0.0574569 -0.00159212 0)
(0.0593924 -0.00151986 0)
(0.0612667 -0.00144576 0)
(0.0630842 -0.00136959 0)
(0.0648336 -0.0012947 0)
(0.0665134 -0.00121569 0)
(0.0681311 -0.00113557 0)
(0.0696816 -0.00105385 0)
(0.0711629 -0.000970987 0)
(0.0725735 -0.000886063 0)
(0.0739155 -0.000799655 0)
(0.0751841 -0.000713274 0)
(0.076378 -0.000624495 0)
(0.0775 -0.000535085 0)
(0.0785484 -0.000445401 0)
(0.0795214 -0.000352305 0)
(0.080418 -0.00026085 0)
(0.0812389 -0.00016865 0)
(0.0819833 -7.58134e-05 0)
(0.0826538 1.78582e-05 0)
(0.0832445 0.000110083 0)
(0.0837544 0.000203998 0)
(0.0841889 0.000298282 0)
(0.0845461 0.000392125 0)
(0.0848234 0.00048591 0)
(0.0850272 0.000579662 0)
(0.0851486 0.000669472 0)
(0.0851859 0.000764448 0)
(0.0851479 0.000856744 0)
(0.0850301 0.000948003 0)
(0.0848331 0.0010383 0)
(0.0845578 0.0011271 0)
(0.0842051 0.00121424 0)
(0.0837753 0.00129939 0)
(0.0832666 0.00138272 0)
(0.0826807 0.00146384 0)
(0.0820209 0.00154216 0)
(0.0812873 0.00161721 0)
(0.0804859 0.00168876 0)
(0.0796089 0.00175238 0)
(0.0786559 0.00181491 0)
(0.0776393 0.00186577 0)
(0.0765628 0.00190368 0)
(0.0754257 0.00192549 0)
(0.0742341 0.00193028 0)
(0.0730027 0.00192115 0)
(0.0717313 0.0019026 0)
(0.0704204 0.00188421 0)
(0.0690707 0.00187273 0)
(0.067677 0.00187261 0)
(0.0662338 0.00188538 0)
(0.0647358 0.00191066 0)
(0.0631787 0.0019471 0)
(0.0615587 0.00199301 0)
(0.0598729 0.00204687 0)
(0.0581185 0.00210642 0)
(0.0562926 0.00217221 0)
(0.0543938 0.00224129 0)
(0.0524216 0.00231351 0)
(0.0503753 0.00238769 0)
(0.0482538 0.00246405 0)
(0.0460578 0.00253908 0)
(0.0437882 0.0026155 0)
(0.0414458 0.00268868 0)
(0.0390328 0.00275965 0)
(0.0365521 0.0028253 0)
(0.0340075 0.00287955 0)
(0.031406 0.00291382 0)
(0.0287591 0.00291702 0)
(0.0260819 0.0028795 0)
(0.0233932 0.00279753 0)
(0.0207135 0.00267618 0)
(0.0180598 0.00252928 0)
(0.0154416 0.00237861 0)
(0.0128609 0.00224784 0)
(0.0103016 0.00215503 0)
(0.00774575 0.00211319 0)
(0.00517681 0.00212 0)
(0.00257097 0.00216616 0)
(-8.72098e-05 0.00223739 0)
(-0.00280608 0.00231876 0)
(-0.00558724 0.00239815 0)
(-0.00842727 0.00246816 0)
(-0.0113197 0.00252589 0)
(-0.014257 0.00257182 0)
(-0.0172323 0.00260783 0)
(-0.0202397 0.00263584 0)
(-0.0232742 0.002657 0)
(-0.0263315 0.00267151 0)
(-0.0294073 0.00267907 0)
(-0.0324974 0.00267934 0)
(-0.0355972 0.0026721 0)
(-0.0387022 0.00265752 0)
(-0.041808 0.00263612 0)
(-0.0449106 0.00260869 0)
(-0.048006 0.00257606 0)
(-0.0510909 0.00253903 0)
(-0.0541621 0.00249828 0)
(-0.0572168 0.00245432 0)
(-0.0602523 0.00240754 0)
(-0.063266 0.00235823 0)
(-0.0662555 0.00230668 0)
(-0.0692186 0.00225319 0)
(-0.0721529 0.002198 0)
(-0.0750565 0.00214132 0)
(-0.0779273 0.00208334 0)
(-0.0807632 0.00202422 0)
(-0.0835624 0.00196414 0)
(-0.0863229 0.00190325 0)
(-0.089043 0.00184168 0)
(-0.091721 0.00177956 0)
(-0.094355 0.00171705 0)
(-0.0969435 0.00165424 0)
(-0.0994849 0.00159125 0)
(-0.101978 0.0015282 0)
(-0.10442 0.00146519 0)
(-0.106811 0.00140235 0)
(-0.109148 0.00133981 0)
(-0.111431 0.00127771 0)
(-0.113659 0.00121617 0)
(-0.115829 0.00115534 0)
(-0.117941 0.00109535 0)
(-0.119994 0.00103635 0)
(-0.121986 0.000978516 0)
(-0.123917 0.000921996 0)
(-0.125786 0.000866962 0)
(-0.127592 0.00081362 0)
(-0.129334 0.000762159 0)
(-0.131012 0.000712778 0)
(-0.132625 0.000665693 0)
(-0.134173 0.000621146 0)
(-0.135656 0.000579408 0)
(-0.137073 0.000540771 0)
(-0.138425 0.000505584 0)
(-0.139712 0.000474258 0)
(-0.140934 0.000447274 0)
(-0.142092 0.000425188 0)
(-0.143187 0.000408618 0)
(-0.144221 0.000398261 0)
(-0.145195 0.000394918 0)
(-0.146112 0.000399542 0)
(-0.146975 0.00041321 0)
(-0.147787 0.00043712 0)
(-0.148552 0.000472622 0)
(-0.149277 0.00052117 0)
(-0.149966 0.000584269 0)
(-0.150628 0.00066349 0)
(-0.151271 0.00076019 0)
(-0.151903 0.000874638 0)
(-0.152536 0.00100603 0)
(-0.153182 0.00115302 0)
(-0.153851 0.00131345 0)
(-0.154553 0.00148459 0)
(-0.155298 0.00166393 0)
(-0.156094 0.00184986 0)
(-0.15695 0.00204163 0)
(-0.157872 0.00223873 0)
(-0.158868 0.00243907 0)
(-0.159941 0.00263674 0)
(-0.16109 0.00282041 0)
(-0.16231 0.00297436 0)
(-0.163581 0.00308046 0)
(-0.164878 0.00312702 0)
(-0.166168 0.00311289 0)
(-0.167416 0.00304892 0)
(-0.168593 0.00294843 0)
(-0.169665 0.00281021 0)
(-0.170598 0.00261035 0)
(-0.171352 0.00230219 0)
(-0.171882 0.00184853 0)
(-0.172114 0.00128689 0)
(-0.17196 0.000730573 0)
(-0.171532 0.000265003 0)
(-0.170844 -8.37432e-05 0)
(-0.169947 -0.000301919 0)
(-0.1689 -0.000401728 0)
(-0.167749 -0.000422114 0)
(-0.166529 -0.000413008 0)
(-0.165255 -0.000418197 0)
(-0.163928 -0.000463398 0)
(-0.16254 -0.000553936 0)
(-0.161083 -0.000680482 0)
(-0.159544 -0.000828454 0)
(-0.157912 -0.0009855 0)
(-0.156181 -0.0011443 0)
(-0.154343 -0.00130227 0)
(-0.152396 -0.00145962 0)
(-0.15034 -0.00161755 0)
(-0.148174 -0.00177724 0)
(-0.145901 -0.00193941 0)
(-0.14352 -0.00210386 0)
(-0.141032 -0.00226964 0)
(-0.138438 -0.00243584 0)
(-0.13574 -0.00260214 0)
(-0.132936 -0.00276836 0)
(-0.13003 -0.00293402 0)
(-0.127022 -0.00309847 0)
(-0.123914 -0.00326127 0)
(-0.120708 -0.0034224 0)
(-0.117406 -0.00358187 0)
(-0.114011 -0.0037395 0)
(-0.110525 -0.00389504 0)
(-0.10695 -0.00404865 0)
(-0.103288 -0.00419965 0)
(-0.0995437 -0.00434667 0)
(-0.0957189 -0.00448877 0)
(-0.0918167 -0.00462603 0)
(-0.0878401 -0.00475838 0)
(-0.0837919 -0.00488561 0)
(-0.0796752 -0.00500725 0)
(-0.0754936 -0.00512305 0)
(-0.0712503 -0.00523334 0)
(-0.0669483 -0.00533802 0)
(-0.0625911 -0.00543672 0)
(-0.0581823 -0.00552907 0)
(-0.0537252 -0.00561467 0)
(-0.0492232 -0.00569356 0)
(-0.0446797 -0.00576618 0)
(-0.0400986 -0.0058314 0)
(-0.0354836 -0.00588612 0)
(-0.0308394 -0.00592616 0)
(-0.0261707 -0.00595508 0)
(-0.0214841 -0.00600484 0)
(-0.0167934 -0.00615134 0)
(-0.011985 -0.0064767 0)
(-0.00679995 -0.00661464 0)
(-0.00163425 -0.00522539 0)
(-0.00311956 0.00994964 0)
(-0.00620703 0.00670998 0)
(-0.00953756 0.00754137 0)
(-0.0134742 0.00819239 0)
(-0.0173854 0.0082694 0)
(-0.0213404 0.00819496 0)
(-0.0251966 0.00812002 0)
(-0.0290422 0.0080521 0)
(-0.0328458 0.00797903 0)
(-0.0366087 0.00789567 0)
(-0.0403263 0.00780243 0)
(-0.0439931 0.00770016 0)
(-0.0476044 0.00758885 0)
(-0.0511557 0.00746943 0)
(-0.0546422 0.00734168 0)
(-0.0580609 0.00720607 0)
(-0.061407 0.00706278 0)
(-0.0646761 0.00691243 0)
(-0.067865 0.00675501 0)
(-0.07097 0.00659105 0)
(-0.0739876 0.00642077 0)
(-0.0769147 0.0062446 0)
(-0.079748 0.00606302 0)
(-0.0824841 0.00587615 0)
(-0.08512 0.00568448 0)
(-0.0876537 0.00548859 0)
(-0.0900827 0.00528849 0)
(-0.092404 0.00508445 0)
(-0.0946156 0.00487707 0)
(-0.0967153 0.00466674 0)
(-0.098701 0.00445361 0)
(-0.100571 0.00423778 0)
(-0.102325 0.00401981 0)
(-0.103959 0.00380039 0)
(-0.105472 0.00358032 0)
(-0.106861 0.00336064 0)
(-0.108125 0.00314241 0)
(-0.109261 0.00292583 0)
(-0.110266 0.00270924 0)
(-0.111141 0.00248964 0)
(-0.11189 0.00226557 0)
(-0.11252 0.00203822 0)
(-0.113037 0.00180931 0)
(-0.113444 0.00157946 0)
(-0.113745 0.00134886 0)
(-0.113942 0.00111775 0)
(-0.114036 0.000886094 0)
(-0.114031 0.000654074 0)
(-0.113928 0.000421812 0)
(-0.113732 0.000188759 0)
(-0.113445 -4.42192e-05 0)
(-0.113069 -0.000284506 0)
(-0.112612 -0.000542597 0)
(-0.112085 -0.000821696 0)
(-0.111505 -0.00111628 0)
(-0.110883 -0.0014133 0)
(-0.110221 -0.00169921 0)
(-0.109513 -0.00196695 0)
(-0.108752 -0.00221665 0)
(-0.10793 -0.00245199 0)
(-0.107043 -0.00267672 0)
(-0.106092 -0.00289328 0)
(-0.105075 -0.00310273 0)
(-0.103994 -0.0033058 0)
(-0.102849 -0.00350289 0)
(-0.101644 -0.00369435 0)
(-0.100378 -0.00388047 0)
(-0.0990545 -0.00406118 0)
(-0.0976751 -0.00423647 0)
(-0.0962417 -0.00440647 0)
(-0.0947559 -0.00457116 0)
(-0.0932198 -0.00473049 0)
(-0.0916354 -0.00488453 0)
(-0.0900045 -0.00503335 0)
(-0.0883289 -0.00517721 0)
(-0.0866104 -0.00531669 0)
(-0.0848508 -0.00545236 0)
(-0.0830521 -0.00558409 0)
(-0.0812159 -0.00571038 0)
(-0.0793425 -0.00582838 0)
(-0.0774306 -0.00593454 0)
(-0.0754769 -0.00602622 0)
(-0.0734775 -0.00610302 0)
(-0.0714297 -0.00616678 0)
(-0.0693336 -0.00622056 0)
(-0.0671922 -0.00626732 0)
(-0.0650102 -0.00630918 0)
(-0.0627929 -0.00634734 0)
(-0.0605454 -0.00638239 0)
(-0.0582723 -0.0064146 0)
(-0.0559781 -0.00644397 0)
(-0.0536663 -0.00647028 0)
(-0.0513404 -0.00649317 0)
(-0.0490032 -0.00651223 0)
(-0.0466572 -0.00652703 0)
(-0.0443045 -0.00653724 0)
(-0.041947 -0.00654261 0)
(-0.0395865 -0.00654298 0)
(-0.0372245 -0.00653826 0)
(-0.0348626 -0.0065284 0)
(-0.0325024 -0.00651338 0)
(-0.0301455 -0.00649331 0)
(-0.0277932 -0.00646809 0)
(-0.025447 -0.00643778 0)
(-0.0231081 -0.00640222 0)
(-0.020778 -0.00636176 0)
(-0.0184577 -0.00631598 0)
(-0.0161484 -0.00626512 0)
(-0.0138513 -0.00620918 0)
(-0.0115672 -0.00614814 0)
(-0.00929715 -0.00608191 0)
(-0.00704173 -0.00601061 0)
(-0.00480339 -0.00593585 0)
(-0.00258296 -0.00585492 0)
(-0.000379576 -0.00576964 0)
(0.00180584 -0.00568016 0)
(0.00397066 -0.00558398 0)
(0.00611585 -0.00548579 0)
(0.00823853 -0.00538387 0)
(0.0103381 -0.00527729 0)
(0.0124151 -0.00516641 0)
(0.0144658 -0.0050537 0)
(0.0164961 -0.00493618 0)
(0.0184963 -0.00481545 0)
(0.0204648 -0.00469135 0)
(0.0224095 -0.00456391 0)
(0.0243251 -0.00443312 0)
(0.0262096 -0.00430227 0)
(0.0280624 -0.0041652 0)
(0.0298839 -0.00402591 0)
(0.0316729 -0.00388406 0)
(0.0334286 -0.00374067 0)
(0.0351497 -0.00359509 0)
(0.0368346 -0.00344635 0)
(0.0384837 -0.00329852 0)
(0.0400949 -0.00314754 0)
(0.041667 -0.00299563 0)
(0.0432061 -0.00284236 0)
(0.0447013 -0.002688 0)
(0.0461513 -0.00253239 0)
(0.0475646 -0.00237572 0)
(0.0489355 -0.00221825 0)
(0.050263 -0.00205865 0)
(0.0515457 -0.00190092 0)
(0.0527839 -0.00174063 0)
(0.053976 -0.0015795 0)
(0.0551224 -0.0014178 0)
(0.0562212 -0.00125567 0)
(0.057271 -0.00109237 0)
(0.0582773 -0.000931818 0)
(0.0592297 -0.000767459 0)
(0.0601276 -0.000602845 0)
(0.0609808 -0.000438056 0)
(0.0617828 -0.000272732 0)
(0.062532 -0.000108286 0)
(0.0632278 5.52214e-05 0)
(0.0638685 0.000217381 0)
(0.0644505 0.000377648 0)
(0.0649726 0.000539256 0)
(0.0654363 0.000704281 0)
(0.06584 0.000870882 0)
(0.0661819 0.0010383 0)
(0.0664644 0.00120306 0)
(0.0666767 0.00137007 0)
(0.0668147 0.00153496 0)
(0.0668871 0.0016967 0)
(0.0668772 0.00185164 0)
(0.0667781 0.00200357 0)
(0.066588 0.00215146 0)
(0.0662988 0.0022968 0)
(0.0659107 0.00244386 0)
(0.0654252 0.00259398 0)
(0.064846 0.0027498 0)
(0.0641778 0.00290903 0)
(0.0634262 0.0030723 0)
(0.0625955 0.0032389 0)
(0.0616897 0.00340799 0)
(0.0607106 0.00357848 0)
(0.0596632 0.00374984 0)
(0.0585477 0.00392215 0)
(0.0573648 0.00409488 0)
(0.0561201 0.00426681 0)
(0.0548164 0.0044386 0)
(0.0534504 0.00460814 0)
(0.0520276 0.00477586 0)
(0.0505479 0.00494112 0)
(0.0490107 0.00510209 0)
(0.0474247 0.00525922 0)
(0.0457882 0.0054096 0)
(0.0441031 0.00555155 0)
(0.0423694 0.00568212 0)
(0.0405841 0.00579777 0)
(0.0387415 0.0058949 0)
(0.0368313 0.00597181 0)
(0.0348389 0.00603061 0)
(0.0327498 0.00607435 0)
(0.0305541 0.00611233 0)
(0.0282484 0.00615265 0)
(0.0258365 0.00620306 0)
(0.0233301 0.00627291 0)
(0.0207468 0.00636196 0)
(0.0181048 0.00646826 0)
(0.0154206 0.00658624 0)
(0.0127063 0.0067089 0)
(0.00996917 0.00682906 0)
(0.00721208 0.00694087 0)
(0.00443544 0.00704141 0)
(0.00163849 0.00712985 0)
(-0.00117972 0.00720704 0)
(-0.00401962 0.00727442 0)
(-0.00688131 0.00733337 0)
(-0.00976433 0.00738478 0)
(-0.0126681 0.00742902 0)
(-0.0155922 0.007466 0)
(-0.0185366 0.00749557 0)
(-0.0215009 0.00751768 0)
(-0.024485 0.00753254 0)
(-0.0274886 0.00754057 0)
(-0.0305111 0.00754204 0)
(-0.0335517 0.00753732 0)
(-0.0366093 0.00752673 0)
(-0.0396827 0.00751044 0)
(-0.0427703 0.00748855 0)
(-0.0458704 0.0074611 0)
(-0.0489813 0.0074282 0)
(-0.0521008 0.00738989 0)
(-0.0552269 0.00734622 0)
(-0.0583572 0.00729721 0)
(-0.0614897 0.00724288 0)
(-0.064622 0.0071833 0)
(-0.0677515 0.00711849 0)
(-0.0708758 0.0070485 0)
(-0.0739923 0.00697338 0)
(-0.0770983 0.00689317 0)
(-0.0801912 0.0068079 0)
(-0.0832681 0.00671759 0)
(-0.0863262 0.00662232 0)
(-0.0893627 0.00652212 0)
(-0.0923745 0.006417 0)
(-0.0953587 0.00630701 0)
(-0.0983123 0.00619223 0)
(-0.101232 0.00607271 0)
(-0.104115 0.00594852 0)
(-0.106958 0.00581973 0)
(-0.109757 0.00568643 0)
(-0.11251 0.00554869 0)
(-0.115213 0.0054066 0)
(-0.117863 0.00526027 0)
(-0.120456 0.00510982 0)
(-0.122989 0.00495535 0)
(-0.125459 0.00479698 0)
(-0.127862 0.00463488 0)
(-0.130195 0.0044692 0)
(-0.132454 0.00430011 0)
(-0.134636 0.00412779 0)
(-0.136738 0.00395247 0)
(-0.138756 0.00377443 0)
(-0.140687 0.00359393 0)
(-0.142527 0.00341131 0)
(-0.144273 0.00322696 0)
(-0.145923 0.00304135 0)
(-0.147471 0.00285508 0)
(-0.148915 0.00266882 0)
(-0.150252 0.00248342 0)
(-0.151477 0.00229984 0)
(-0.152588 0.00211931 0)
(-0.15358 0.00194331 0)
(-0.15445 0.00177358 0)
(-0.155194 0.00161217 0)
(-0.15581 0.00146149 0)
(-0.156293 0.00132414 0)
(-0.156642 0.00120264 0)
(-0.156854 0.00109935 0)
(-0.156927 0.00101617 0)
(-0.15686 0.000954192 0)
(-0.156655 0.000913875 0)
(-0.156315 0.000895015 0)
(-0.155842 0.000896703 0)
(-0.15524 0.000916911 0)
(-0.154511 0.000954641 0)
(-0.153654 0.00100605 0)
(-0.152669 0.00106457 0)
(-0.151554 0.00112014 0)
(-0.150313 0.00115885 0)
(-0.14895 0.00116706 0)
(-0.147468 0.00113026 0)
(-0.145872 0.00103698 0)
(-0.144164 0.000881832 0)
(-0.14235 0.000667907 0)
(-0.140435 0.000401623 0)
(-0.138432 8.71495e-05 0)
(-0.136362 -0.000280388 0)
(-0.134247 -0.000709574 0)
(-0.132142 -0.00118411 0)
(-0.130167 -0.00165549 0)
(-0.128212 -0.00209251 0)
(-0.126283 -0.00249177 0)
(-0.124364 -0.00284812 0)
(-0.122431 -0.00315643 0)
(-0.120462 -0.00341503 0)
(-0.118444 -0.00362596 0)
(-0.116367 -0.00379581 0)
(-0.114233 -0.0039354 0)
(-0.112041 -0.00405875 0)
(-0.109796 -0.00418139 0)
(-0.107501 -0.00431715 0)
(-0.105162 -0.00447397 0)
(-0.102781 -0.00465223 0)
(-0.100363 -0.00484601 0)
(-0.09791 -0.00504714 0)
(-0.0954259 -0.00524891 0)
(-0.0929131 -0.00544749 0)
(-0.0903747 -0.00564157 0)
(-0.0878139 -0.00583154 0)
(-0.0852328 -0.00601843 0)
(-0.082634 -0.00620296 0)
(-0.0800214 -0.00638505 0)
(-0.0773978 -0.00656412 0)
(-0.0747658 -0.00673937 0)
(-0.07213 -0.00691054 0)
(-0.0694931 -0.00707707 0)
(-0.0668563 -0.00723828 0)
(-0.064224 -0.00739402 0)
(-0.0615987 -0.00754402 0)
(-0.0589834 -0.00768849 0)
(-0.0563832 -0.00782702 0)
(-0.0538003 -0.0079588 0)
(-0.0512371 -0.00808403 0)
(-0.0486968 -0.00820423 0)
(-0.0461808 -0.00832027 0)
(-0.0436902 -0.00843162 0)
(-0.0412267 -0.00853805 0)
(-0.0387905 -0.00863945 0)
(-0.0363834 -0.00873545 0)
(-0.0340055 -0.00882606 0)
(-0.0316571 -0.00891168 0)
(-0.0293402 -0.00899209 0)
(-0.027052 -0.00906731 0)
(-0.0247916 -0.00913793 0)
(-0.0225595 -0.00920374 0)
(-0.0203542 -0.00926388 0)
(-0.0181743 -0.00931937 0)
(-0.0160151 -0.00937107 0)
(-0.0138752 -0.00941832 0)
(-0.011754 -0.00945914 0)
(-0.00961706 -0.00948516 0)
(-0.0075916 -0.00949538 0)
(-0.00546256 -0.00989407 0)
(-0.00328079 -0.0106576 0)
(-0.000338196 -0.00857056 0)
(-0.00303873 0.0175809 0)
(-0.00592546 0.0119376 0)
(-0.00896919 0.0133961 0)
(-0.0126563 0.0145387 0)
(-0.016348 0.0146936 0)
(-0.0200874 0.0145449 0)
(-0.0237293 0.014397 0)
(-0.0273569 0.0142673 0)
(-0.0309461 0.01413 0)
(-0.0344972 0.0139748 0)
(-0.0380054 0.013801 0)
(-0.0414668 0.0136107 0)
(-0.0448764 0.0134041 0)
(-0.0482304 0.013182 0)
(-0.0515248 0.0129447 0)
(-0.0547558 0.0126926 0)
(-0.0579195 0.0124262 0)
(-0.0610125 0.0121462 0)
(-0.0640313 0.0118532 0)
(-0.0669724 0.0115476 0)
(-0.0698328 0.0112297 0)
(-0.0726097 0.0109004 0)
(-0.0753001 0.0105606 0)
(-0.0779014 0.0102106 0)
(-0.0804112 0.00985091 0)
(-0.0828269 0.00948215 0)
(-0.085147 0.00910495 0)
(-0.0873697 0.00872009 0)
(-0.0894937 0.00832814 0)
(-0.0915171 0.00792995 0)
(-0.093438 0.00752612 0)
(-0.0952555 0.00711715 0)
(-0.0969688 0.00670336 0)
(-0.0985768 0.00628535 0)
(-0.100079 0.0058635 0)
(-0.101473 0.00543794 0)
(-0.102761 0.00500891 0)
(-0.103939 0.00457738 0)
(-0.105007 0.00414615 0)
(-0.105966 0.00371876 0)
(-0.106817 0.00329726 0)
(-0.107562 0.0028814 0)
(-0.108201 0.00246981 0)
(-0.108734 0.00206144 0)
(-0.109162 0.00165615 0)
(-0.109485 0.00125431 0)
(-0.109704 0.000856053 0)
(-0.109821 0.000461433 0)
(-0.109837 7.06756e-05 0)
(-0.109748 -0.000316456 0)
(-0.109558 -0.000699403 0)
(-0.109276 -0.00107583 0)
(-0.108908 -0.00144047 0)
(-0.10846 -0.00179293 0)
(-0.107942 -0.00213592 0)
(-0.107359 -0.00247489 0)
(-0.10671 -0.00281448 0)
(-0.105992 -0.00315529 0)
(-0.105199 -0.00349505 0)
(-0.104328 -0.00383032 0)
(-0.103379 -0.00415891 0)
(-0.102354 -0.00447973 0)
(-0.101254 -0.00479229 0)
(-0.100081 -0.00509657 0)
(-0.0988356 -0.00539252 0)
(-0.0975209 -0.00568006 0)
(-0.0961382 -0.00595913 0)
(-0.0946896 -0.00622979 0)
(-0.0931775 -0.00649212 0)
(-0.0916039 -0.00674594 0)
(-0.0899707 -0.00699131 0)
(-0.0882801 -0.00722846 0)
(-0.0865342 -0.00745738 0)
(-0.0847351 -0.00767797 0)
(-0.0828849 -0.00789029 0)
(-0.080986 -0.00809463 0)
(-0.0790406 -0.00829124 0)
(-0.0770513 -0.00848049 0)
(-0.0750202 -0.00866305 0)
(-0.0729487 -0.00883935 0)
(-0.0708372 -0.00900907 0)
(-0.0686848 -0.00917061 0)
(-0.0664907 -0.00932159 0)
(-0.0642546 -0.00945988 0)
(-0.0619779 -0.00958455 0)
(-0.059663 -0.00969589 0)
(-0.0573129 -0.00979498 0)
(-0.0549311 -0.00988314 0)
(-0.0525209 -0.00996148 0)
(-0.0500855 -0.0100308 0)
(-0.0476283 -0.0100917 0)
(-0.0451521 -0.0101447 0)
(-0.0426599 -0.0101901 0)
(-0.040154 -0.010228 0)
(-0.0376369 -0.0102585 0)
(-0.035111 -0.0102816 0)
(-0.0325782 -0.0102973 0)
(-0.0300407 -0.0103055 0)
(-0.0275003 -0.0103064 0)
(-0.0249592 -0.0102999 0)
(-0.0224194 -0.010286 0)
(-0.0198826 -0.0102647 0)
(-0.0173507 -0.0102362 0)
(-0.0148256 -0.0102006 0)
(-0.0123091 -0.0101578 0)
(-0.00980287 -0.0101079 0)
(-0.00730868 -0.010051 0)
(-0.00482809 -0.00998716 0)
(-0.00236266 -0.00991638 0)
(8.61548e-05 -0.00983881 0)
(0.00251662 -0.00975448 0)
(0.00492889 -0.00966336 0)
(0.00731777 -0.00956614 0)
(0.00968196 -0.00946265 0)
(0.0120236 -0.00935287 0)
(0.0143433 -0.00923695 0)
(0.0166325 -0.00911494 0)
(0.0188902 -0.00898681 0)
(0.0211211 -0.00885376 0)
(0.0233208 -0.00871355 0)
(0.025487 -0.00856874 0)
(0.027618 -0.00841813 0)
(0.0297144 -0.00826172 0)
(0.0317733 -0.00810289 0)
(0.0337928 -0.00793651 0)
(0.0357727 -0.00776548 0)
(0.0377116 -0.00758993 0)
(0.0396077 -0.00741014 0)
(0.0414598 -0.00722513 0)
(0.043266 -0.0070367 0)
(0.0450248 -0.00684426 0)
(0.0467352 -0.00664736 0)
(0.048399 -0.00644753 0)
(0.0500107 -0.00624074 0)
(0.0515695 -0.00603243 0)
(0.0530776 -0.00582015 0)
(0.0545318 -0.00560362 0)
(0.0559326 -0.00538267 0)
(0.0572771 -0.00516131 0)
(0.0585645 -0.00493386 0)
(0.0597941 -0.00470278 0)
(0.0609671 -0.00446895 0)
(0.0620793 -0.0042323 0)
(0.0631292 -0.00399273 0)
(0.0641193 -0.00375022 0)
(0.0650473 -0.00350494 0)
(0.0659124 -0.00325664 0)
(0.0667138 -0.00300618 0)
(0.0674507 -0.00275283 0)
(0.0681227 -0.00249693 0)
(0.0687283 -0.00224169 0)
(0.0692669 -0.00198152 0)
(0.0697394 -0.00171941 0)
(0.0701435 -0.00145556 0)
(0.0704781 -0.00118952 0)
(0.0707445 -0.000921123 0)
(0.0709409 -0.000650343 0)
(0.0710706 -0.000375716 0)
(0.0711386 -9.81948e-05 0)
(0.0711389 0.000177392 0)
(0.0710663 0.000453182 0)
(0.070924 0.000729773 0)
(0.0707126 0.00100792 0)
(0.0704316 0.00128601 0)
(0.0700825 0.00156898 0)
(0.0696658 0.00185628 0)
(0.069181 0.00214679 0)
(0.0686272 0.00244398 0)
(0.0680038 0.00274423 0)
(0.067311 0.00304598 0)
(0.0665483 0.00334927 0)
(0.0657192 0.00364681 0)
(0.0648217 0.0039401 0)
(0.0638565 0.00423109 0)
(0.0628292 0.00451714 0)
(0.0617393 0.0048016 0)
(0.0605873 0.00508258 0)
(0.0593746 0.0053611 0)
(0.0581032 0.00563818 0)
(0.0567733 0.00591285 0)
(0.0553836 0.00618549 0)
(0.0539378 0.00645527 0)
(0.0524357 0.00672117 0)
(0.050877 0.00698151 0)
(0.0492654 0.00723968 0)
(0.0475985 0.00748938 0)
(0.0458785 0.00773454 0)
(0.0441058 0.00797112 0)
(0.0422794 0.00819708 0)
(0.0404017 0.00841159 0)
(0.0384709 0.0086139 0)
(0.0364849 0.00880516 0)
(0.03444 0.00898875 0)
(0.0323335 0.00916951 0)
(0.0301585 0.00935324 0)
(0.027912 0.00954561 0)
(0.0255927 0.00974909 0)
(0.0231999 0.00996226 0)
(0.0207399 0.0101804 0)
(0.0182177 0.0103977 0)
(0.0156416 0.0106056 0)
(0.0130207 0.0107999 0)
(0.0103623 0.0109777 0)
(0.00767202 0.0111397 0)
(0.00495232 0.0112865 0)
(0.00220468 0.0114214 0)
(-0.00057047 0.0115466 0)
(-0.00337399 0.0116639 0)
(-0.00620624 0.0117741 0)
(-0.00906706 0.011877 0)
(-0.0119556 0.0119724 0)
(-0.0148707 0.0120599 0)
(-0.0178113 0.0121393 0)
(-0.0207763 0.0122107 0)
(-0.0237645 0.0122743 0)
(-0.0267747 0.0123304 0)
(-0.0298055 0.0123789 0)
(-0.0328558 0.0124198 0)
(-0.0359241 0.0124532 0)
(-0.0390087 0.0124788 0)
(-0.0421076 0.0124964 0)
(-0.0452191 0.0125059 0)
(-0.0483412 0.012507 0)
(-0.0514717 0.0124997 0)
(-0.0546086 0.0124839 0)
(-0.05775 0.0124594 0)
(-0.0608937 0.0124261 0)
(-0.0640374 0.012384 0)
(-0.0671789 0.0123329 0)
(-0.0703156 0.0122728 0)
(-0.0734453 0.0122035 0)
(-0.0765655 0.012125 0)
(-0.0796736 0.0120372 0)
(-0.0827672 0.0119399 0)
(-0.0858437 0.0118332 0)
(-0.0889002 0.0117169 0)
(-0.0919341 0.0115909 0)
(-0.0949427 0.0114552 0)
(-0.0979232 0.0113098 0)
(-0.100873 0.0111545 0)
(-0.103788 0.0109893 0)
(-0.106667 0.0108143 0)
(-0.109506 0.0106292 0)
(-0.112302 0.0104343 0)
(-0.115053 0.0102293 0)
(-0.117755 0.0100144 0)
(-0.120405 0.00978959 0)
(-0.123001 0.00955499 0)
(-0.125539 0.00931066 0)
(-0.128017 0.00905674 0)
(-0.130431 0.00879336 0)
(-0.132779 0.00852071 0)
(-0.135058 0.00823898 0)
(-0.137266 0.00794841 0)
(-0.139399 0.00764929 0)
(-0.141455 0.00734194 0)
(-0.143432 0.00702669 0)
(-0.145327 0.00670396 0)
(-0.147138 0.00637419 0)
(-0.148864 0.00603784 0)
(-0.150501 0.00569543 0)
(-0.152048 0.00534755 0)
(-0.153504 0.00499482 0)
(-0.154866 0.00463802 0)
(-0.156132 0.00427804 0)
(-0.157302 0.00391586 0)
(-0.158372 0.00355258 0)
(-0.159342 0.00318949 0)
(-0.160208 0.00282807 0)
(-0.160969 0.00247004 0)
(-0.16162 0.00211755 0)
(-0.16216 0.00177341 0)
(-0.162583 0.00144077 0)
(-0.162887 0.00112234 0)
(-0.163068 0.000820249 0)
(-0.163124 0.000535809 0)
(-0.163051 0.000269314 0)
(-0.162848 2.03483e-05 0)
(-0.162509 -0.000212356 0)
(-0.162029 -0.000434522 0)
(-0.161409 -0.000652367 0)
(-0.160647 -0.000873716 0)
(-0.159745 -0.00110734 0)
(-0.158705 -0.0013619 0)
(-0.157534 -0.0016414 0)
(-0.156249 -0.00194737 0)
(-0.154868 -0.00227875 0)
(-0.153407 -0.00263665 0)
(-0.151879 -0.00302391 0)
(-0.150295 -0.00344235 0)
(-0.148664 -0.00388998 0)
(-0.146997 -0.00435206 0)
(-0.145304 -0.00480032 0)
(-0.143594 -0.00521835 0)
(-0.141868 -0.00561541 0)
(-0.140123 -0.00598603 0)
(-0.138357 -0.00630324 0)
(-0.136567 -0.00655838 0)
(-0.134747 -0.00676299 0)
(-0.132889 -0.00694066 0)
(-0.130984 -0.00711904 0)
(-0.129021 -0.0073205 0)
(-0.126991 -0.00755506 0)
(-0.124886 -0.00782041 0)
(-0.122706 -0.00810652 0)
(-0.120455 -0.00840056 0)
(-0.118141 -0.00869154 0)
(-0.115772 -0.00897355 0)
(-0.113353 -0.00924447 0)
(-0.110891 -0.0095051 0)
(-0.108387 -0.00975684 0)
(-0.105843 -0.0100005 0)
(-0.103261 -0.010236 0)
(-0.100641 -0.0104634 0)
(-0.0979855 -0.0106824 0)
(-0.095296 -0.0108924 0)
(-0.0925759 -0.0110927 0)
(-0.0898279 -0.0112828 0)
(-0.0870543 -0.0114629 0)
(-0.0842573 -0.0116318 0)
(-0.0814392 -0.0117891 0)
(-0.0786037 -0.0119352 0)
(-0.075753 -0.0120694 0)
(-0.0728897 -0.012191 0)
(-0.070017 -0.0123007 0)
(-0.0671372 -0.0123977 0)
(-0.0642529 -0.0124821 0)
(-0.0613663 -0.0125547 0)
(-0.05848 -0.0126175 0)
(-0.0555976 -0.0126705 0)
(-0.0527227 -0.0127143 0)
(-0.0498591 -0.0127489 0)
(-0.0470082 -0.012775 0)
(-0.0441731 -0.0127933 0)
(-0.0413567 -0.0128049 0)
(-0.0385604 -0.0128103 0)
(-0.0357857 -0.0128098 0)
(-0.0330337 -0.012804 0)
(-0.0303055 -0.012795 0)
(-0.0276012 -0.0127838 0)
(-0.0249209 -0.0127708 0)
(-0.0222641 -0.0127575 0)
(-0.0196279 -0.0127461 0)
(-0.0170141 -0.0127378 0)
(-0.0144268 -0.0127214 0)
(-0.0118517 -0.0126684 0)
(-0.00938984 -0.0126815 0)
(-0.00669281 -0.0133787 0)
(-0.00381616 -0.0148221 0)
(-0.000282885 -0.01098 0)
(-0.00296417 0.0246067 0)
(-0.00582111 0.0165966 0)
(-0.00875776 0.018614 0)
(-0.012332 0.0202673 0)
(-0.0159214 0.0205076 0)
(-0.0195655 0.0202987 0)
(-0.0231118 0.0200871 0)
(-0.026647 0.0199039 0)
(-0.0301453 0.0197123 0)
(-0.0336086 0.0194965 0)
(-0.037032 0.0192553 0)
(-0.0404107 0.0189905 0)
(-0.0437411 0.0187035 0)
(-0.0470191 0.0183948 0)
(-0.0502406 0.0180651 0)
(-0.0534027 0.017715 0)
(-0.0565014 0.0173451 0)
(-0.0595326 0.0169564 0)
(-0.0624938 0.0165494 0)
(-0.0653823 0.0161252 0)
(-0.0681943 0.0156846 0)
(-0.0709266 0.0152283 0)
(-0.073577 0.0147573 0)
(-0.0761434 0.0142725 0)
(-0.0786227 0.0137747 0)
(-0.0810126 0.013265 0)
(-0.0833114 0.0127443 0)
(-0.0855168 0.0122133 0)
(-0.087627 0.0116732 0)
(-0.0896404 0.0111251 0)
(-0.0915553 0.01057 0)
(-0.0933711 0.0100089 0)
(-0.0950867 0.0094426 0)
(-0.0967009 0.00887211 0)
(-0.098213 0.00829831 0)
(-0.0996228 0.00772192 0)
(-0.100931 0.00714386 0)
(-0.102137 0.00656496 0)
(-0.103241 0.00598591 0)
(-0.104244 0.00540701 0)
(-0.105143 0.00482828 0)
(-0.105937 0.00424963 0)
(-0.106627 0.00367117 0)
(-0.107213 0.00309373 0)
(-0.107694 0.00251838 0)
(-0.108073 0.0019459 0)
(-0.10835 0.00137699 0)
(-0.108524 0.000812303 0)
(-0.108599 0.000252584 0)
(-0.108579 -0.000301211 0)
(-0.108464 -0.000848723 0)
(-0.108253 -0.0013886 0)
(-0.107945 -0.00191891 0)
(-0.107541 -0.00243907 0)
(-0.107042 -0.00295008 0)
(-0.106448 -0.00345399 0)
(-0.105763 -0.00395304 0)
(-0.104991 -0.00444695 0)
(-0.104136 -0.00493445 0)
(-0.103199 -0.00541364 0)
(-0.102182 -0.0058829 0)
(-0.101086 -0.00634127 0)
(-0.0999125 -0.00678863 0)
(-0.0986632 -0.00722442 0)
(-0.0973398 -0.00764861 0)
(-0.0959438 -0.00806104 0)
(-0.0944769 -0.0084617 0)
(-0.0929413 -0.00885061 0)
(-0.0913391 -0.00922758 0)
(-0.0896718 -0.00959255 0)
(-0.0879416 -0.0099455 0)
(-0.0861507 -0.0102865 0)
(-0.0843011 -0.0106155 0)
(-0.082395 -0.0109326 0)
(-0.080435 -0.0112377 0)
(-0.0784233 -0.0115309 0)
(-0.076362 -0.0118122 0)
(-0.0742534 -0.012082 0)
(-0.0721002 -0.0123407 0)
(-0.0699054 -0.0125886 0)
(-0.0676719 -0.0128258 0)
(-0.0654024 -0.0130515 0)