/*--------------------------------*- C++ -*----------------------------------*\
| =========                 |                                                 |
| \\      /  F ield         | OpenFOAM: The Open Source CFD Toolbox           |
|  \\    /   O peration     | Version:  v2006                                 |
|   \\  /    A nd           | Website:  www.openfoam.com                      |
|    \\/     M anipulation  |                                                 |
\*---------------------------------------------------------------------------*/
FoamFile
{
    version     2.0;
    format      ascii;
    class       volScalarField;
    location    "0";
    object      p;
}
// * * * * * * * * * * * * * * * * * * * * * * * * * * * * * * * * * * * * * //

dimensions      [1 -1 -2 0 0 0 0];


internalField   nonuniform List<scalar> 
20000
(
7.95257e-06
7.9949e-06
8.08862e-06
8.23175e-06
8.42431e-06
8.66566e-06
8.95725e-06
9.30119e-06
9.69937e-06
1.01537e-05
1.06662e-05
1.12394e-05
1.18763e-05
1.258e-05
1.33539e-05
1.42021e-05
1.51286e-05
1.6138e-05
1.7235e-05
1.84245e-05
1.97117e-05
2.11016e-05
2.25998e-05
2.42115e-05
2.59424e-05
2.77981e-05
2.97843e-05
3.19062e-05
3.41749e-05
3.65858e-05
3.91442e-05
4.18556e-05
4.47215e-05
4.77421e-05
5.09156e-05
5.42379e-05
5.77014e-05
6.12947e-05
6.50016e-05
6.88001e-05
7.26613e-05
7.65473e-05
8.04098e-05
8.41884e-05
8.78079e-05
9.11748e-05
9.41737e-05
9.66643e-05
9.84774e-05
9.94094e-05
9.92125e-05
9.75867e-05
9.41737e-05
8.85529e-05
8.02307e-05
6.86212e-05
5.30237e-05
3.26112e-05
6.43596e-06
-2.65604e-05
-6.75472e-05
-0.000117815
-0.000178768
-0.000251852
-0.0003384
-0.000439352
-0.000554963
-0.000683123
-0.000806071
-0.000942559
-0.00110069
-0.00125815
-0.00139659
-0.00150013
-0.00155557
-0.0015558
-0.00150633
-0.00142806
-0.00134888
-0.00128548
-0.00122971
-0.00115062
-0.00100116
-0.000745372
-0.000351155
0.000199909
0.000919249
0.00181434
0.00288689
0.00413077
0.00553206
0.00706798
0.00870491
0.0104005
0.0121101
0.0137935
0.0154184
0.0169558
0.0183862
0.0196842
0.0208431
0.0218519
0.022701
0.0233809
0.023882
0.0241949
0.0243109
0.0242221
0.0239217
0.0234143
0.022719
0.0217314
0.0205115
0.0190613
0.0173816
0.0154751
0.0133521
0.0110327
0.00855012
0.00595104
0.00329724
0.000662534
-0.00187163
-0.00422348
-0.00631964
-0.00810293
-0.00953774
-0.0106116
-0.0113326
-0.0117248
-0.0118237
-0.0116737
-0.0113235
-0.0108195
-0.0101877
-0.00948942
-0.00873945
-0.00796188
-0.00718432
-0.0064399
-0.00576351
-0.00517997
-0.0046931
-0.00428303
-0.00391508
-0.00355707
-0.00319318
-0.00282427
-0.00245921
-0.00210807
-0.00177951
-0.00147974
-0.00121198
-0.000976993
-0.000773779
-0.000600236
-0.000453635
-0.000330998
-0.000229348
-0.000145854
-7.79194e-05
-2.32119e-05
2.03242e-05
5.44804e-05
8.08027e-05
0.000100616
0.000115047
0.000125053
0.00013144
0.000134887
0.000135964
0.000135144
0.000132824
0.000129331
0.000124936
0.000119862
0.000114292
0.000108372
0.000102223
9.59402e-05
8.9599e-05
8.32585e-05
7.69639e-05
7.07489e-05
6.46382e-05
5.86487e-05
5.2791e-05
4.70712e-05
4.14914e-05
3.60506e-05
3.07461e-05
2.55734e-05
2.05276e-05
1.56042e-05
1.08007e-05
6.11076e-06
1.53877e-06
-2.92399e-06
-7.25417e-06
-1.1495e-05
7.94391e-06
7.98554e-06
8.07751e-06
8.21903e-06
8.41041e-06
8.65083e-06
8.94163e-06
9.2849e-06
9.68259e-06
1.01367e-05
1.06494e-05
1.12234e-05
1.18617e-05
1.25673e-05
1.33437e-05
1.41946e-05
1.51239e-05
1.6136e-05
1.72352e-05
1.84262e-05
1.9714e-05
2.11039e-05
2.26016e-05
2.42127e-05
2.5943e-05
2.77984e-05
2.97843e-05
3.19063e-05
3.41668e-05
3.65746e-05
3.91316e-05
4.18423e-05
4.47079e-05
4.77285e-05
5.09025e-05
5.42254e-05
5.769e-05
6.12847e-05
6.49936e-05
6.87948e-05
7.26594e-05
7.65498e-05
8.04178e-05
8.42033e-05
8.78313e-05
9.12087e-05
9.42204e-05
9.67263e-05
9.85581e-05
9.95125e-05
9.93429e-05
9.77495e-05
9.43747e-05
8.87988e-05
8.05299e-05
6.89839e-05
5.3461e-05
3.31336e-05
7.05308e-06
-2.58378e-05
-6.67051e-05
-0.000116844
-0.000177688
-0.000250711
-0.000337176
-0.000437745
-0.000552472
-0.000682725
-0.00083862
-0.00100332
-0.00115932
-0.00130373
-0.00142968
-0.00152482
-0.00157571
-0.0015745
-0.00152598
-0.00145013
-0.00137363
-0.00131188
-0.00125571
-0.00117433
-0.00102019
-0.000759119
-0.000359464
0.000197018
0.000921887
0.00182289
0.00290177
0.00415212
0.00555962
0.00710097
0.00874198
0.0104399
0.0121502
0.0138328
0.0154529
0.0169836
0.0184029
0.0196995
0.0208579
0.021867
0.0227166
0.0233972
0.0238991
0.0242127
0.0243285
0.0242376
0.0239304
0.0233936
0.022617
0.0216448
0.0204449
0.0190101
0.0173396
0.0154398
0.0133228
0.0110099
0.00853444
0.00594242
0.00329599
0.000668987
-0.0018574
-0.00420166
-0.0062907
-0.00806777
-0.0094978
-0.0105688
-0.0112891
-0.0116828
-0.011785
-0.0116397
-0.0112949
-0.0107955
-0.0101866
-0.00948988
-0.00873932
-0.00796047
-0.0071806
-0.00643357
-0.00575537
-0.00517165
-0.00468645
-0.00427919
-0.00391385
-0.00355721
-0.0031934
-0.00282385
-0.00245797
-0.00210608
-0.00177698
-0.00147692
-0.00120908
-0.000974166
-0.000771128
-0.000597822
-0.000451482
-0.000329108
-0.000227709
-0.000144448
-7.67228e-05
-2.22005e-05
2.11741e-05
5.51907e-05
8.13933e-05
0.000101104
0.000115449
0.000125382
0.000131707
0.000135103
0.000136136
0.000135281
0.000132931
0.000129413
0.000124998
0.000119908
0.000114324
0.000108393
0.000102235
9.59454e-05
8.95986e-05
8.32535e-05
7.69553e-05
7.07374e-05
6.46243e-05
5.86326e-05
5.27733e-05
4.70523e-05
4.14723e-05
3.60324e-05
3.07297e-05
2.55594e-05
2.0516e-05
1.55946e-05
1.07926e-05
6.10276e-06
1.53166e-06
-2.93416e-06
-7.23887e-06
-1.15467e-05
7.93651e-06
7.97846e-06
8.07132e-06
8.21366e-06
8.40576e-06
8.64674e-06
8.93795e-06
9.28149e-06
9.67932e-06
1.01334e-05
1.06459e-05
1.12193e-05
1.18566e-05
1.25608e-05
1.33354e-05
1.4184e-05
1.51108e-05
1.61199e-05
1.7216e-05
1.84041e-05
1.96894e-05
2.10773e-05
2.25734e-05
2.41834e-05
2.59128e-05
2.77672e-05
2.97523e-05
3.18737e-05
3.41354e-05
3.65439e-05
3.91026e-05
4.18138e-05
4.46797e-05
4.77009e-05
5.08758e-05
5.42002e-05
5.76668e-05
6.12646e-05
6.49775e-05
6.8784e-05
7.26556e-05
7.65547e-05
8.04338e-05
8.42329e-05
8.78779e-05
9.12763e-05
9.43135e-05
9.68501e-05
9.8719e-05
9.97185e-05
9.96033e-05
9.80746e-05
9.47761e-05
8.92899e-05
8.11275e-05
6.97083e-05
5.43341e-05
3.41774e-05
8.28841e-06
-2.43913e-05
-6.50317e-05
-0.000114928
-0.000175493
-0.000248197
-0.000334505
-0.00043575
-0.000552601
-0.000683321
-0.000825256
-0.000972147
-0.00112315
-0.00127275
-0.00140746
-0.00151066
-0.00156641
-0.00156558
-0.0015131
-0.0014313
-0.00135093
-0.00129079
-0.00124195
-0.00116775
-0.00103047
-0.000779778
-0.000389006
0.000160012
0.000878533
0.00177447
0.00284991
0.00409869
0.00550703
0.00705222
0.00869988
0.0104062
0.0121256
0.0138173
0.0154471
0.016988
0.0184174
0.0197201
0.0208823
0.0218942
0.0227462
0.0234288
0.0239325
0.0242479
0.0243664
0.0242806
0.023985
0.0234746
0.0227318
0.0217661
0.020559
0.0191144
0.0174347
0.0155252
0.0133968
0.0110698
0.00857578
0.00596295
0.00329248
0.000639361
-0.00191306
-0.00428111
-0.00638963
-0.00818034
-0.00961744
-0.0106891
-0.0114045
-0.0117886
-0.0118778
-0.0117172
-0.0113558
-0.0108401
-0.0102144
-0.00950641
-0.00874801
-0.0079625
-0.00717589
-0.00642247
-0.00573991
-0.00515545
-0.00467341
-0.00427173
-0.0039116
-0.00355767
-0.00319395
-0.00282307
-0.00245551
-0.0021021
-0.00177191
-0.00147126
-0.00120326
-0.000968502
-0.000765823
-0.000592991
-0.000447174
-0.000325329
-0.000224435
-0.000141639
-7.43321e-05
-2.01798e-05
2.28719e-05
5.66095e-05
8.25729e-05
0.00010208
0.000116251
0.000126038
0.000132241
0.000135534
0.000136481
0.000135554
0.000133144
0.000129577
0.000125122
0.000119999
0.000114388
0.000108436
0.000102261
9.59574e-05
8.96004e-05
8.32478e-05
7.69444e-05
7.07232e-05
6.46084e-05
5.86165e-05
5.2758e-05
4.70383e-05
4.14591e-05
3.60189e-05
3.07144e-05
2.55413e-05
2.04954e-05
1.55719e-05
1.07648e-05
6.07714e-06
1.50504e-06
-2.96e-06
-7.27685e-06
-1.15815e-05
7.92382e-06
7.96563e-06
8.05807e-06
8.19974e-06
8.39106e-06
8.63118e-06
8.92148e-06
9.26405e-06
9.66087e-06
1.01139e-05
1.06253e-05
1.11976e-05
1.18339e-05
1.25372e-05
1.33111e-05
1.41591e-05
1.50855e-05
1.60944e-05
1.71906e-05
1.83788e-05
1.9664e-05
2.10517e-05
2.25471e-05
2.41561e-05
2.58841e-05
2.7737e-05
2.97205e-05
3.18399e-05
3.41e-05
3.65076e-05
3.9063e-05
4.17731e-05
4.46387e-05
4.76601e-05
5.08361e-05
5.41625e-05
5.76322e-05
6.12343e-05
6.49532e-05
6.87677e-05
7.26496e-05
7.65619e-05
8.04574e-05
8.4277e-05
8.79475e-05
9.13772e-05
9.44525e-05
9.70352e-05
9.89595e-05
0.000100026
9.99926e-05
9.8561e-05
9.53766e-05
9.00247e-05
8.20217e-05
7.07925e-05
5.56419e-05
3.57409e-05
1.01367e-05
-2.22275e-05
-6.25128e-05
-0.000112018
-0.000172217
-0.000244692
-0.000330873
-0.000431648
-0.000547243
-0.000677651
-0.000824028
-0.000982187
-0.00114418
-0.00130022
-0.00143782
-0.00154214
-0.00159769
-0.00159444
-0.00153685
-0.00144911
-0.00136554
-0.00130739
-0.00126504
-0.00120196
-0.00106794
-0.000821557
-0.000432016
0.000117687
0.000838062
0.00173741
0.00281819
0.00407418
0.00549172
0.00704814
0.00870815
0.0104262
0.0121551
0.0138535
0.0154873
0.0170297
0.0184595
0.0197622
0.0209253
0.0219387
0.0227927
0.0234776
0.0239837
0.0243013
0.0244207
0.0243331
0.0240304
0.0235056
0.0227497
0.0217733
0.0205664
0.019126
0.0174506
0.015544
0.0134163
0.0110872
0.0085887
0.00596749
0.00328574
0.000619823
-0.00194551
-0.00432483
-0.00644136
-0.00823585
-0.00967242
-0.0107401
-0.0114493
-0.0118261
-0.0119074
-0.011739
-0.0113716
-0.0108524
-0.0102232
-0.00951298
-0.00875092
-0.00795963
-0.00716518
-0.00640342
-0.00571503
-0.00512995
-0.00465314
-0.00426027
-0.00390828
-0.00355851
-0.00319487
-0.00282192
-0.00245178
-0.00209608
-0.00176425
-0.00146272
-0.0011945
-0.000959981
-0.000757849
-0.000585737
-0.000440711
-0.000319662
-0.000219527
-0.00013743
-7.0751e-05
-1.71537e-05
2.5414e-05
5.87335e-05
8.43384e-05
0.00010354
0.000117452
0.000127021
0.000133039
0.000136178
0.000136996
0.000135962
0.000133463
0.000129823
0.000125307
0.000120134
0.000114483
0.000108499
0.000102297
9.5973e-05
8.95993e-05
8.32336e-05
7.69199e-05
7.06907e-05
6.45696e-05
5.85729e-05
5.27111e-05
4.69893e-05
4.14098e-05
3.59711e-05
3.06697e-05
2.55009e-05
2.04595e-05
1.554e-05
1.07392e-05
6.05048e-06
1.47869e-06
-2.98817e-06
-7.30937e-06
-1.16137e-05
7.90683e-06
7.9485e-06
8.04078e-06
8.18229e-06
8.3734e-06
8.6133e-06
8.90331e-06
9.24553e-06
9.6419e-06
1.00944e-05
1.06051e-05
1.11768e-05
1.18122e-05
1.25144e-05
1.3287e-05
1.41336e-05
1.50582e-05
1.60651e-05
1.7159e-05
1.83446e-05
1.9627e-05
2.10118e-05
2.25044e-05
2.41107e-05
2.58363e-05
2.7687e-05
2.96685e-05
3.17863e-05
3.40451e-05
3.64498e-05
3.90069e-05
4.17168e-05
4.45826e-05
4.76049e-05
5.07825e-05
5.41118e-05
5.75857e-05
6.11937e-05
6.49206e-05
6.87456e-05
7.26412e-05
7.6571e-05
8.04882e-05
8.43351e-05
8.80394e-05
9.15108e-05
9.46368e-05
9.72805e-05
9.92786e-05
0.000100435
0.000100509
9.92071e-05
9.61744e-05
9.10008e-05
8.32096e-05
7.22334e-05
5.73807e-05
3.78209e-05
1.2599e-05
-1.93419e-05
-5.91652e-05
-0.000108178
-0.000167854
-0.000239771
-0.000325472
-0.000426289
-0.000543011
-0.000675323
-0.000822159
-0.000978583
-0.00113829
-0.00129457
-0.00143543
-0.00154422
-0.00160253
-0.00159744
-0.00153258
-0.00143534
-0.00134648
-0.00129201
-0.00126181
-0.0012138
-0.00109858
-0.000865907
-0.000486123
5.61888e-05
0.000770846
0.00166685
0.0027473
0.00400606
0.00543007
0.00699732
0.00867168
0.0104054
0.0121492
0.013861
0.0155067
0.0170593
0.0184976
0.0198072
0.020976
0.0219941
0.0228523
0.0235411
0.0240509
0.024372
0.0244954
0.0244131
0.0241184
0.0236041
0.0228619
0.0218939
0.0206905
0.0192487
0.0175686
0.0156539
0.0135141
0.0111679
0.00864643
0.00599657
0.00328161
0.000579463
-0.0020221
-0.00443414
-0.00657669
-0.00838827
-0.00983228
-0.0108985
-0.0115992
-0.0119618
-0.0120246
-0.0118356
-0.0114476
-0.0109097
-0.0102634
-0.00953935
-0.00876506
-0.0079623
-0.00715493
-0.00638015
-0.00568275
-0.00509619
-0.00462625
-0.00424542
-0.00390452
-0.00356025
-0.00319645
-0.00282052
-0.00244681
-0.00208798
-0.00175395
-0.00145126
-0.00118276
-0.000948579
-0.000747195
-0.000576055
-0.000432094
-0.000312111
-0.000212991
-0.000131828
-6.59869e-05
-1.31292e-05
2.87938e-05
6.15569e-05
8.66848e-05
0.00010548
0.000119048
0.000128325
0.0001341
0.000137034
0.000137681
0.000136503
0.000133887
0.000130149
0.000125552
0.000120314
0.000114609
0.000108582
0.000102346
9.59952e-05
8.96009e-05
8.32197e-05
7.68948e-05
7.06579e-05
6.45322e-05
5.85332e-05
5.26706e-05
4.69492e-05
4.13702e-05
3.59319e-05
3.06305e-05
2.54613e-05
2.04191e-05
1.54986e-05
1.06955e-05
6.00643e-06
1.43291e-06
-3.037e-06
-7.36245e-06
-1.16723e-05
7.8856e-06
7.92717e-06
8.01928e-06
8.16049e-06
8.35114e-06
8.59043e-06
8.87969e-06
9.221e-06
9.61632e-06
1.00676e-05
1.0577e-05
1.11471e-05
1.17809e-05
1.24814e-05
1.32521e-05
1.40968e-05
1.50194e-05
1.60243e-05
1.71161e-05
1.82997e-05
1.95803e-05
2.09631e-05
2.24539e-05
2.40581e-05
2.57816e-05
2.763e-05
2.96091e-05
3.17245e-05
3.39812e-05
3.63844e-05
3.89393e-05
4.16481e-05
4.45135e-05
4.75365e-05
5.07159e-05
5.40484e-05
5.75274e-05
6.11426e-05
6.48794e-05
6.87175e-05
7.26302e-05
7.65815e-05
8.05259e-05
8.44066e-05
8.81529e-05
9.16762e-05
9.48654e-05
9.7585e-05
9.96747e-05
0.000100942
0.000101152
0.000100011
9.71671e-05
9.22153e-05
8.46878e-05
7.40273e-05
5.95474e-05
4.04146e-05
1.56684e-05
-1.57474e-05
-5.49844e-05
-0.000103344
-0.000162347
-0.000233704
-0.00031911
-0.00041987
-0.000536541
-0.000668894
-0.00081653
-0.000976352
-0.0011427
-0.00130765
-0.0014575
-0.00157393
-0.00163645
-0.00162953
-0.00155581
-0.00144669
-0.00135096
-0.00130041
-0.00128396
-0.00125518
-0.00115487
-0.000933602
-0.000560079
-2.09154e-05
0.000692469
0.00158995
0.00267536
0.00394246
0.00537877
0.006963
0.00865769
0.0104118
0.0121736
0.0138996
0.0155561
0.0171164
0.0185601
0.0198736
0.0210457
0.0220673
0.0229292
0.023622
0.0241359
0.0244608
0.0245872
0.0245063
0.0242106
0.0236929
0.022947
0.0219742
0.020768
0.0193251
0.0176441
0.0157267
0.0135809
0.0112238
0.00868585
0.00601326
0.00326981
0.00053578
-0.00209789
-0.00453854
-0.00670276
-0.00852684
-0.00997371
-0.0110345
-0.0117238
-0.0120709
-0.0121154
-0.011907
-0.0115015
-0.0109491
-0.0102903
-0.00955625
-0.00877303
-0.00795957
-0.00713793
-0.00634783
-0.00563964
-0.00505176
-0.00459128
-0.00422658
-0.00390035
-0.00356308
-0.00319882
-0.00281886
-0.00244053
-0.0020777
-0.0017409
-0.00143679
-0.00116797
-0.000934251
-0.000733832
-0.000563932
-0.000421317
-0.000302678
-0.000204833
-0.000124839
-6.00467e-05
-8.11352e-06
3.30045e-05
6.5073e-05
8.96061e-05
0.000107895
0.000121034
0.000129949
0.000135418
0.000138097
0.000138531
0.000137176
0.000134412
0.000130553
0.000125857
0.000120536
0.000114765
0.000108684
0.000102406
9.60202e-05
8.9599e-05
8.31968e-05
7.68558e-05
7.06069e-05
6.44724e-05
5.84674e-05
5.26013e-05
4.68784e-05
4.12997e-05
3.58631e-05
3.05647e-05
2.53992e-05
2.03608e-05
1.54438e-05
1.06438e-05
5.95587e-06
1.38231e-06
-3.08945e-06
-7.41879e-06
-1.1736e-05
7.86015e-06
7.90162e-06
7.99348e-06
8.1343e-06
8.32441e-06
8.56302e-06
8.85147e-06
9.19183e-06
9.58608e-06
1.00361e-05
1.05442e-05
1.11129e-05
1.1745e-05
1.24438e-05
1.32126e-05
1.40552e-05
1.49756e-05
1.59781e-05
1.70673e-05
1.82482e-05
1.95257e-05
2.09054e-05
2.23928e-05
2.39937e-05
2.57137e-05
2.75589e-05
2.95348e-05
3.16473e-05
3.39016e-05
3.63028e-05
3.88561e-05
4.15641e-05
4.44295e-05
4.74535e-05
5.06352e-05
5.39718e-05
5.74569e-05
6.10807e-05
6.48292e-05
6.8683e-05
7.26159e-05
7.65931e-05
8.05698e-05
8.44907e-05
8.82872e-05
9.18725e-05
9.5137e-05
9.79472e-05
0.000100146
0.000101547
0.000101918
0.000100969
9.83516e-05
9.36643e-05
8.64515e-05
7.61691e-05
6.21364e-05
4.35164e-05
1.93422e-05
-1.14399e-05
-4.99731e-05
-9.7565e-05
-0.000155774
-0.000226377
-0.000311164
-0.000411628
-0.000528651
-0.000662352
-0.000812204
-0.000975161
-0.00114565
-0.00131578
-0.00147197
-0.00159475
-0.00166064
-0.00164996
-0.00156352
-0.00143775
-0.00133227
-0.00128674
-0.00128875
-0.00128411
-0.00120817
-0.00100473
-0.000642612
-0.000111397
0.000596013
0.00149096
0.00257832
0.00385171
0.00529961
0.00690202
0.00861994
0.0103984
0.012182
0.0139265
0.0155982
0.0171706
0.0186239
0.019945
0.0211239
0.0221516
0.0230193
0.0237179
0.0242372
0.0245673
0.0246986
0.0246227
0.0243324
0.0238208
0.0230822
0.0221151
0.0209129
0.0194712
0.017788
0.0158638
0.0137054
0.0113285
0.0087622
0.00605247
0.00326465
0.000481631
-0.00220128
-0.00468628
-0.00688521
-0.00873111
-0.0101861
-0.0112428
-0.0119187
-0.0122457
-0.0122647
-0.0120282
-0.0115957
-0.0110199
-0.0103406
-0.00958946
-0.00879183
-0.00796263
-0.00712139
-0.00631065
-0.00558784
-0.00499763
-0.00454884
-0.00420458
-0.00389676
-0.00356784
-0.00320245
-0.00281714
-0.00243295
-0.00206519
-0.00172501
-0.00141922
-0.00115007
-0.000916965
-0.000717747
-0.000549366
-0.000408388
-0.000291374
-0.000195065
-0.000116478
-5.29445e-05
-2.11926e-06
3.80348e-05
6.92723e-05
9.30941e-05
0.000110777
0.000123403
0.000131885
0.000136991
0.000139365
0.000139544
0.000137977
0.000135038
0.000131033
0.000126218
0.0001208
0.00011495
0.000108805
0.000102475
9.605e-05
8.95978e-05
8.31722e-05
7.68139e-05
7.05528e-05
6.44103e-05
5.84005e-05
5.25321e-05
4.68087e-05
4.12307e-05
3.57955e-05
3.04986e-05
2.53347e-05
2.02977e-05
1.53818e-05
1.05821e-05
5.89395e-06
1.3187e-06
-3.1566e-06
-7.49135e-06
-1.18189e-05
7.8305e-06
7.87184e-06
7.96341e-06
8.10378e-06
8.29327e-06
8.5311e-06
8.8186e-06
9.15784e-06
9.55078e-06
9.99936e-06
1.05058e-05
1.10726e-05
1.17027e-05
1.23992e-05
1.31656e-05
1.40056e-05
1.49232e-05
1.59228e-05
1.70089e-05
1.81865e-05
1.94608e-05
2.08371e-05
2.23211e-05
2.39185e-05
2.56352e-05
2.74769e-05
2.94496e-05
3.15589e-05
3.38103e-05
3.6209e-05
3.87601e-05
4.14668e-05
4.43319e-05
4.73568e-05
5.05411e-05
5.38821e-05
5.73741e-05
6.10079e-05
6.47699e-05
6.86416e-05
7.2598e-05
7.66051e-05
8.06191e-05
8.45866e-05
8.84412e-05
9.20985e-05
9.54504e-05
9.83654e-05
0.000100691
0.000102246
0.000102805
0.00010208
9.97243e-05
9.53432e-05
8.84953e-05
7.86527e-05
6.51426e-05
4.71221e-05
2.36144e-05
-6.43271e-06
-4.41452e-05
-9.08186e-05
-0.00014805
-0.000217743
-0.000301892
-0.000402179
-0.000519565
-0.000654193
-0.000805639
-0.000971708
-0.00114787
-0.00132649
-0.00149342
-0.00162709
-0.00170003
-0.00168716
-0.00158659
-0.00144091
-0.00132366
-0.00128451
-0.00130895
-0.00133373
-0.00128381
-0.00109859
-0.000746515
-0.000221322
0.000482032
0.00137692
0.00246942
0.00375263
0.00521627
0.00684212
0.00858924
0.0103974
0.0122069
0.0139723
0.0156604
0.017245
0.0187072
0.0200351
0.0212197
0.0222529
0.0231263
0.0238307
0.024356
0.0246917
0.0248279
0.0247559
0.0244681
0.0239579
0.02322
0.0222521
0.0210489
0.0196058
0.0179196
0.0159895
0.0138198
0.0114244
0.00883072
0.00608419
0.00325094
0.000417071
-0.00231718
-0.00484809
-0.00708209
-0.00894859
-0.0104089
-0.011458
-0.012117
-0.0124205
-0.012411
-0.0121439
-0.0116832
-0.0110837
-0.0103847
-0.00961752
-0.00880648
-0.00796159
-0.0070986
-0.00626371
-0.00552355
-0.0049309
-0.00449714
-0.00417885
-0.00389408
-0.00357503
-0.00320756
-0.00281535
-0.00242397
-0.00205026
-0.00170611
-0.00139842
-0.00112897
-0.000896641
-0.000698888
-0.000532326
-0.00039329
-0.000278193
-0.000183691
-0.000106751
-4.46883e-05
4.84396e-06
4.38746e-05
7.41449e-05
9.71393e-05
0.000114119
0.000126149
0.000134128
0.000138812
0.000140832
0.000140716
0.000138903
0.00013576
0.000131588
0.000126634
0.000121104
0.000115162
0.000108942
0.000102554
9.60818e-05
8.9593e-05
8.31392e-05
7.67595e-05
7.04828e-05
6.43294e-05
5.83126e-05
5.24404e-05
4.67157e-05
4.11384e-05
3.57054e-05
3.04118e-05
2.52518e-05
2.02187e-05
1.53062e-05
1.05092e-05
5.82224e-06
1.24645e-06
-3.23178e-06
-7.57176e-06
-1.19108e-05
7.79665e-06
7.83785e-06
7.92908e-06
8.06894e-06
8.25772e-06
8.49465e-06
8.78106e-06
9.11902e-06
9.51048e-06
9.95738e-06
1.04619e-05
1.10266e-05
1.16544e-05
1.23485e-05
1.31122e-05
1.39493e-05
1.48639e-05
1.58602e-05
1.69429e-05
1.81169e-05
1.93874e-05
2.07598e-05
2.22398e-05
2.3833e-05
2.55454e-05
2.73829e-05
2.93515e-05
3.1457e-05
3.37049e-05
3.61008e-05
3.86495e-05
4.13548e-05
4.42196e-05
4.72456e-05
5.04327e-05
5.37788e-05
5.72787e-05
6.09237e-05
6.47009e-05
6.85929e-05
7.25759e-05
7.66168e-05
8.06731e-05
8.46932e-05
8.86136e-05
9.23527e-05
9.58038e-05
9.88376e-05
0.000101306
0.000103036
0.000103808
0.000103339
0.000101281
9.72468e-05
9.08125e-05
8.1471e-05
6.85587e-05
5.12242e-05
2.84776e-05
-7.29487e-07
-3.74987e-05
-8.31123e-05
-0.000139216
-0.000207848
-0.000291184
-0.000391088
-0.000508703
-0.000644418
-0.000798128
-0.000968316
-0.00115112
-0.00133899
-0.00151728
-0.00166244
-0.00174251
-0.00172558
-0.00160576
-0.00143321
-0.00129956
-0.00126734
-0.00131901
-0.00137922
-0.00136216
-0.00119964
-0.000860317
-0.00034376
0.000352527
0.00124498
0.00234125
0.00363351
0.00511327
0.00676502
0.00854553
0.0103879
0.0122272
0.0140168
0.0157241
0.0173235
0.0187968
0.0201334
0.0213257
0.0223662
0.0232471
0.023959
0.0244915
0.0248341
0.0249765
0.02491
0.0246273
0.0241219
0.023389
0.0224254
0.0212256
0.019784
0.0180961
0.0161592
0.0139757
0.011557
0.00892853
0.00613515
0.00324444
0.00034625
-0.00245311
-0.00504263
-0.00732193
-0.00921588
-0.0106847
-0.0117261
-0.012366
-0.0126421
-0.0125983
-0.0122935
-0.0117978
-0.0111688
-0.0104448
-0.0096574
-0.00882962
-0.00796553
-0.00707552
-0.00621029
-0.00544808
-0.00485182
-0.00443637
-0.00415027
-0.00389368
-0.00358578
-0.00321474
-0.00281366
-0.00241355
-0.0020328
-0.00168409
-0.00137429
-0.0011046
-0.000873263
-0.000677261
-0.000512834
-0.000376053
-0.000263168
-0.000170739
-9.56848e-05
-3.53019e-05
1.27564e-05
5.0508e-05
7.96776e-05
0.000101731
0.000117911
0.000129264
0.000136673
0.000140876
0.000142494
0.000142043
0.000139952
0.000136578
0.000132214
0.000127104
0.000121445
0.000115399
0.000109096
0.000102641
9.61162e-05
8.95865e-05
8.31016e-05
7.66989e-05
7.04058e-05
6.42414e-05
5.8218e-05
5.23425e-05
4.6617e-05
4.10408e-05
3.561e-05
3.03195e-05
2.51627e-05
2.01328e-05
1.5223e-05
1.04277e-05
5.7411e-06
1.16389e-06
-3.31831e-06
-7.66465e-06
-1.20175e-05
7.75863e-06
7.79966e-06
7.89051e-06
8.0298e-06
8.21779e-06
8.45371e-06
8.73889e-06
9.0754e-06
9.46519e-06
9.9102e-06
1.04126e-05
1.0975e-05
1.16002e-05
1.22915e-05
1.30522e-05
1.3886e-05
1.47971e-05
1.57897e-05
1.68685e-05
1.80384e-05
1.93045e-05
2.06725e-05
2.21478e-05
2.37364e-05
2.54442e-05
2.72771e-05
2.92413e-05
3.13425e-05
3.35867e-05
3.59792e-05
3.85252e-05
4.12288e-05
4.40931e-05
4.71201e-05
5.03102e-05
5.36619e-05
5.71704e-05
6.08277e-05
6.46218e-05
6.85363e-05
7.25488e-05
7.66274e-05
8.07307e-05
8.48093e-05
8.88032e-05
9.26335e-05
9.61955e-05
9.93615e-05
0.000101989
0.000103914
0.000104926
0.000104743
0.000103017
9.93689e-05
9.33953e-05
8.46156e-05
7.23772e-05
5.58167e-05
3.39261e-05
5.66006e-06
-3.00495e-05
-7.44562e-05
-0.000129248
-0.000196615
-0.000278975
-0.000378446
-0.000496356
-0.000633237
-0.000789236
-0.00096358
-0.00115342
-0.0013518
-0.00154388
-0.00170394
-0.00179456
-0.00177482
-0.0016328
-0.00142756
-0.00127394
-0.00125074
-0.00133583
-0.00143868
-0.0014595
-0.0013217
-0.000994654
-0.000486063
0.000203262
0.00109415
0.00219609
0.00349952
0.00499836
0.00668098
0.00850128
0.0103839
0.0122574
0.014074
0.0158025
0.0174178
0.0189026
0.0202479
0.0214477
0.0224957
0.0233842
0.0241039
0.0246444
0.0249943
0.0251434
0.0250826
0.0248043
0.0243026
0.0235726
0.0226109
0.0214122
0.0199704
0.0182797
0.0163356
0.0141376
0.0116944
0.00902905
0.00618537
0.00323209
0.000263269
-0.0026078
-0.00526165
-0.00758998
-0.00951242
-0.0109881
-0.0120183
-0.0126349
-0.0128794
-0.0127965
-0.0124491
-0.0119146
-0.011254
-0.0105037
-0.00969552
-0.0088516
-0.00796794
-0.00704743
-0.00614639
-0.00535777
-0.00475726
-0.00436459
-0.00411859
-0.00389648
-0.00360106
-0.00322439
-0.00281206
-0.00240149
-0.00201254
-0.00165863
-0.00134658
-0.00107676
-0.000846673
-0.000652755
-0.000490814
-0.000356628
-0.00024627
-0.000156198
-8.32788e-05
-2.47919e-05
2.16066e-05
5.79206e-05
8.58552e-05
0.000106855
0.000122139
0.000132735
0.000139505
0.000143173
0.000144343
0.000143518
0.000141116
0.000137484
0.000132908
0.000127623
0.000121822
0.00011566
0.000109264
0.000102734
9.61508e-05
8.95754e-05
8.30555e-05
7.66267e-05
7.03148e-05
6.41375e-05
5.8106e-05
5.22263e-05
4.64998e-05
4.09248e-05
3.5497e-05
3.02105e-05
2.50583e-05
2.00331e-05
1.51273e-05
1.03351e-05
5.6498e-06
1.07184e-06
-3.41407e-06
-7.76691e-06
-1.21346e-05
7.71645e-06
7.75729e-06
7.84773e-06
7.98637e-06
8.17348e-06
8.40828e-06
8.6921e-06
9.027e-06
9.41494e-06
9.85785e-06
1.03579e-05
1.09177e-05
1.15401e-05
1.22282e-05
1.29855e-05
1.38158e-05
1.4723e-05
1.57115e-05
1.67859e-05
1.79512e-05
1.92126e-05
2.05757e-05
2.2046e-05
2.36294e-05
2.53319e-05
2.71597e-05
2.91187e-05
3.12152e-05
3.3455e-05
3.58436e-05
3.83866e-05
4.10882e-05
4.39519e-05
4.698e-05
5.01733e-05
5.35309e-05
5.70489e-05
6.07197e-05
6.45321e-05
6.84712e-05
7.25161e-05
7.66361e-05
8.07909e-05
8.49336e-05
8.90081e-05
9.29393e-05
9.66235e-05
9.99348e-05
0.000102736
0.000104876
0.000106153
0.000106287
0.000104928
0.000101703
9.62352e-05
8.80769e-05
7.65888e-05
6.08907e-05
3.99495e-05
1.2724e-05
-2.1806e-05
-6.4849e-05
-0.000118137
-0.000184042
-0.000265258
-0.000364169
-0.000482274
-0.000620256
-0.000778637
-0.000957569
-0.00115539
-0.0013659
-0.00157407
-0.00175191
-0.00185559
-0.00183275
-0.0016627
-0.0014152
-0.0012351
-0.00122194
-0.00134693
-0.0015003
-0.00156572
-0.00145599
-0.00114186
-0.000642322
3.77331e-05
0.000925606
0.00203293
0.00334732
0.00486605
0.00658311
0.00844897
0.0103774
0.0122891
0.0141357
0.0158877
0.0175205
0.0190179
0.0203729
0.0215815
0.0226381
0.0235355
0.0242646
0.0248141
0.0251727
0.0253295
0.0252753
0.0250027
0.0245059
0.0237806
0.0228229
0.0216275
0.0201875
0.0184956
0.0165446
0.0143313
0.0118609
0.0091536
0.00625188
0.00322584
0.000174374
-0.00278102
-0.00551078
-0.00789716
-0.00985344
-0.0113374
-0.0123549
-0.0129452
-0.013154
-0.0130263
-0.0126293
-0.0120502
-0.0113536
-0.0105732
-0.00974131
-0.0088802
-0.00797505
-0.00701842
-0.00607378
-0.00525254
-0.00464617
-0.00428115
-0.00408464
-0.00390434
-0.00362239
-0.00323717
-0.00281072
-0.00238776
-0.00198936
-0.00162967
-0.00131529
-0.00104549
-0.000816953
-0.000625465
-0.000466363
-0.000335105
-0.000227577
-0.00014013
-6.95812e-05
-1.31943e-05
3.13688e-05
6.60948e-05
9.2666e-05
0.000112502
0.000126798
0.000136559
0.000142626
0.000145703
0.000146378
0.00014514
0.000142395
0.000138479
0.000133669
0.000128192
0.000122233
0.000115944
0.000109445
0.000102834
9.61858e-05
8.95605e-05
8.30026e-05
7.65457e-05
7.02137e-05
6.4023e-05
5.79834e-05
5.20998e-05
4.63727e-05
4.07993e-05
3.53749e-05
3.00928e-05
2.49454e-05
1.99248e-05
1.50232e-05
1.02338e-05
5.54968e-06
9.70608e-07
-3.51961e-06
-7.87976e-06
-1.22642e-05
7.67012e-06
7.71076e-06
7.80074e-06
7.93868e-06
8.12482e-06
8.35839e-06
8.64071e-06
8.97385e-06
9.35975e-06
9.80035e-06
1.02978e-05
1.08547e-05
1.1474e-05
1.21587e-05
1.29123e-05
1.37386e-05
1.46415e-05
1.56255e-05
1.66951e-05
1.78554e-05
1.91116e-05
2.04691e-05
2.19338e-05
2.35115e-05
2.52083e-05
2.70303e-05
2.89838e-05
3.1075e-05
3.33099e-05
3.56943e-05
3.82338e-05
4.09332e-05
4.37961e-05
4.68251e-05
5.00217e-05
5.33857e-05
5.69138e-05
6.0599e-05
6.44311e-05
6.83969e-05
7.2477e-05
7.6642e-05
8.08526e-05
8.50646e-05
8.92268e-05
9.32679e-05
9.70856e-05
0.000100555
0.000103545
0.000105918
0.000107485
0.000107966
0.000107007
0.000104241
9.93217e-05
9.18439e-05
8.11846e-05
6.64397e-05
4.65412e-05
2.04517e-05
-1.27857e-05
-5.43096e-05
-0.000105888
-0.000170097
-0.000249956
-0.000348164
-0.000466406
-0.000605489
-0.000766314
-0.000950039
-0.0011564
-0.00138034
-0.00160704
-0.00180631
-0.0019271
-0.00190239
-0.00169883
-0.00139862
-0.00118538
-0.00118487
-0.00135841
-0.00157198
-0.0016894
-0.00161041
-0.00130821
-0.00081744
-0.000148068
0.000736597
0.00185055
0.0031768
0.00471726
0.00647384
0.00839278
0.010374
0.0123286
0.014208
0.0159855
0.017637
0.0191474
0.0205125
0.0217301
0.0227957
0.0237026
0.0244417
0.0250013
0.0253692
0.0255343
0.0254872
0.0252204
0.0247285
0.0240074
0.0230533
0.0218607
0.0204223
0.0187288
0.0167708
0.0145414
0.0120421
0.00928952
0.00632433
0.00321781
7.42138e-05
-0.00297556
-0.0057902
-0.0082409
-0.0102336
-0.0117245
-0.0127253
-0.0132847
-0.0134532
-0.0132746
-0.012821
-0.0121922
-0.0114569
-0.010644
-0.0097874
-0.0089104
-0.00798386
-0.00698607
-0.00598959
-0.00512901
-0.00451521
-0.00418406
-0.00404881
-0.00391921
-0.00365136
-0.00325355
-0.00280941
-0.00237187
-0.00196264
-0.00159659
-0.00127985
-0.00101035
-0.000783737
-0.000595117
-0.000439285
-0.000311352
-0.000207008
-0.000122494
-5.45791e-05
-5.15837e-07
4.20234e-05
7.50036e-05
0.000100079
0.000118642
0.000131859
0.000140708
0.000146008
0.000148442
0.000148579
0.000146893
0.000143775
0.000139551
0.000134487
0.000128801
0.000122672
0.000116245
0.000109635
0.000102935
9.62179e-05
8.95386e-05
8.29397e-05
7.64523e-05
7.00986e-05
6.38933e-05
5.78449e-05
5.19571e-05
4.62293e-05
4.0658e-05
3.52375e-05
2.99606e-05
2.4819e-05
1.98042e-05
1.49076e-05
1.01221e-05
5.43984e-06
8.60124e-07
-3.63429e-06
-8.00197e-06
-1.24041e-05
7.61968e-06
7.66009e-06
7.74957e-06
7.88675e-06
8.07184e-06
8.30406e-06
8.58475e-06
8.91596e-06
9.29965e-06
9.73772e-06
1.02324e-05
1.07862e-05
1.1402e-05
1.2083e-05
1.28325e-05
1.36545e-05
1.45527e-05
1.55317e-05
1.65961e-05
1.77509e-05
1.90014e-05
2.0353e-05
2.18115e-05
2.3383e-05
2.50734e-05
2.68892e-05
2.88365e-05
3.09219e-05
3.31514e-05
3.5531e-05
3.80667e-05
4.07634e-05
4.36253e-05
4.66552e-05
4.98552e-05
5.32258e-05
5.67646e-05
6.04653e-05
6.43184e-05
6.83125e-05
7.24305e-05
7.6644e-05
8.09145e-05
8.52007e-05
8.94572e-05
9.36175e-05
9.75796e-05
0.000101218
0.00010441
0.000107034
0.000108916
0.000109776
0.000109249
0.000106974
0.000102644
9.59036e-05
8.61517e-05
7.24521e-05
5.36897e-05
2.88293e-05
-3.00088e-06
-4.28391e-05
-9.24814e-05
-0.000154742
-0.000233025
-0.00033039
-0.000448689
-0.000588772
-0.000751936
-0.000940522
-0.00115599
-0.00139485
-0.00164293
-0.00186803
-0.00201094
-0.00198599
-0.0017417
-0.00137471
-0.00111901
-0.00113363
-0.00136547
-0.0016501
-0.00182793
-0.00178235
-0.00149038
-0.00100833
-0.000352278
0.000528121
0.0016493
0.00298711
0.00454987
0.00635074