/*--------------------------------*- C++ -*----------------------------------*\
| =========                 |                                                 |
| \\      /  F ield         | OpenFOAM: The Open Source CFD Toolbox           |
|  \\    /   O peration     | Version:  v2006                                 |
|   \\  /    A nd           | Website:  www.openfoam.com                      |
|    \\/     M anipulation  |                                                 |
\*---------------------------------------------------------------------------*/
FoamFile
{
    version     2.0;
    format      ascii;
    class       volScalarField;
    location    "1";
    object      r;
}
// * * * * * * * * * * * * * * * * * * * * * * * * * * * * * * * * * * * * * //

dimensions      [1 2 0 0 0 0 0];


internalField   nonuniform List<scalar> 
350
(
-1.1247e-33
4.44318e-33
-1.41858e-32
4.59625e-32
-1.48148e-31
4.75915e-31
-1.52341e-30
4.85901e-30
-1.54422e-29
4.8897e-29
-1.5426e-28
4.84847e-28
-1.51816e-27
4.73559e-27
-1.47148e-26
4.5545e-26
-1.40414e-25
4.31161e-25
-1.31859e-24
4.01601e-24
-1.21807e-23
3.67887e-23
-1.10636e-22
3.31275e-22
-9.8756e-22
2.93083e-21
-8.6584e-21
2.54608e-20
-7.45178e-20
2.17052e-19
-6.29139e-19
1.81455e-18
-5.20701e-18
1.48649e-17
-4.22127e-17
1.1923e-16
-3.34917e-16
9.35502e-16
-2.59808e-15
7.17304e-15
-1.96848e-14
5.36876e-14
-1.45499e-13
3.91756e-13
-1.04776e-12
2.78305e-12
-7.34005e-12
1.92178e-11
-4.99388e-11
1.28763e-10
-3.29348e-10
8.35417e-10
-2.10091e-09
5.23631e-09
-1.29303e-08
3.16222e-08
-7.65602e-08
1.83421e-07
-4.34634e-07
1.01813e-06
-2.35636e-06
5.38481e-06
-1.21422e-05
2.69959e-05
-5.9131e-05
0.000127484
-0.000270257
0.000562721
-0.00114936
0.00229956
-0.00449951
0.00859456
-0.0159923
0.0289185
-0.0506757
0.0857714
-0.139665
0.217747
-0.323118
0.452949
-0.593927
0.718709
-0.787016
0.755859
-0.600935
0.343281
-0.0631551
-0.123776
0.137453
-0.0137772
-0.0939694
0.0535086
0.0702701
-0.0653332
-0.0820947
0.0653832
0.145575
-0.00565441
-0.266883
-0.327504
0.0789319
1.02315
2.37994
3.92282
5.42854
6.74118
7.78805
8.56412
9.10498
9.46241
9.68781
9.82434
9.90375
9.94906
9.97281
9.98762
9.99097
10.0012
9.98983
10.0153
9.97074
10.0505
9.91416
10.1396
9.78224
10.3231
9.54705
10.5939
9.28129
10.787
9.24414
10.6009
9.65672
10.0632
10.1238
9.86255
10.0138
10.094
9.94649
9.92973
10.0653
10.0821
9.93462
9.85442
10.0057
10.2669
10.3275
9.92107
8.97685
7.62006
6.07718
4.57146
3.25882
2.21195
1.43588
0.895015
0.537603
0.312167
0.17572
0.0961255
0.0512147
0.0266279
0.0135338
0.00673475
0.00328583
0.00157376
0.000740777
0.000343036
0.000156422
7.02946e-05
3.11565e-05
1.36295e-05
5.88837e-06
2.51389e-06
1.06112e-06
4.4307e-07
1.83089e-07
7.49062e-08
3.03537e-08
1.21871e-08
4.84986e-09
1.91354e-09
7.48774e-10
2.90662e-10
1.1196e-10
4.28033e-11
1.62454e-11
6.12228e-12
2.29147e-12
8.51951e-13
3.14696e-13
1.15509e-13
4.21365e-14
1.52786e-14
5.5075e-15
1.97391e-15
7.03493e-16
2.49347e-16
8.79041e-17
3.08265e-17
1.07546e-17
3.73304e-18
1.28935e-18
4.43157e-19
1.51587e-19
5.16081e-20
1.74889e-20
5.89966e-21
1.98127e-21
6.62432e-22
2.20521e-22
7.30969e-23
2.41275e-23
7.93079e-24
2.59619e-24
8.46437e-25
2.74862e-25
8.89032e-26
2.86434e-26
9.19295e-27
2.9392e-27
9.36191e-28
2.97084e-28
9.39273e-29
2.95881e-29
9.28689e-30
2.90448e-30
9.0516e-31
2.81096e-31
8.69903e-32
2.68279e-32
8.24545e-33
2.52561e-33
7.70998e-34
2.34578e-34
7.11344e-35
2.15e-35
6.47704e-36
1.94492e-36
5.82133e-37
1.73679e-37
5.16521e-38
1.53126e-38
4.52522e-39
1.33311e-39
3.91504e-40
1.14619e-40
3.34529e-41
9.73361e-42
2.82347e-42
8.16516e-43
2.35411e-43
6.76663e-44
1.93913e-44
5.54033e-45
1.5782e-45
4.48217e-46
1.26917e-46
3.58311e-47
1.00858e-47
2.83059e-48
7.92064e-49
2.20985e-49
6.14733e-50
1.70504e-50
4.71526e-51
1.30018e-51
3.57463e-52
9.79912e-53
2.67838e-53
7.2994e-54
1.9835e-54
5.37414e-55
1.45183e-55
3.91068e-56
1.05031e-56
2.81263e-57
7.50992e-58
1.99933e-58
5.3071e-59
1.4046e-59
3.70656e-60
9.75229e-61
2.55834e-61
6.69152e-62
1.74502e-62
4.53718e-63
1.17618e-63
3.03992e-64
7.83336e-65
2.01245e-65
5.15454e-66
1.31625e-66
3.35092e-67
8.50477e-68
2.15193e-68
5.42819e-69
1.36501e-69
3.4219e-70
8.55144e-71
2.13032e-71
5.29029e-72
1.30958e-72
3.23144e-73
7.94809e-74
1.9486e-74
4.76177e-75
1.15981e-75
2.81562e-76
6.8126e-77
1.64284e-77
3.9483e-78
9.45684e-79
2.2573e-79
5.36944e-80
1.27277e-80
3.00635e-81
7.07594e-82
1.65946e-82
3.87769e-83
9.02792e-84
2.09408e-84
4.83917e-85
1.11405e-85
2.5549e-86
5.83661e-87
1.32814e-87
3.01024e-88
6.79536e-89
1.52775e-89
3.42058e-90
7.62651e-91
1.6932e-91
3.74297e-92
8.23804e-93
1.8051e-93
3.93745e-94
8.54941e-95
1.84769e-95
3.97427e-96
8.50718e-97
1.81207e-97
3.84046e-98
8.09781e-99
1.69858e-99
3.54394e-100
7.35408e-101
1.51721e-101
3.13111e-102
5.49646e-103
)
;

boundaryField
{
    right
    {
        type            zeroGradient;
    }
    left
    {
        type            inletOutlet;
        inletValue      uniform 0;
        value           uniform 0;
    }
    top
    {
        type            zeroGradient;
    }
    bottom
    {
        type            zeroGradient;
    }
    empty
    {
        type            empty;
    }
}


// ************************************************************************* //
