/*--------------------------------*- C++ -*----------------------------------*\
| =========                 |                                                 |
| \\      /  F ield         | OpenFOAM: The Open Source CFD Toolbox           |
|  \\    /   O peration     | Version:  v2006                                 |
|   \\  /    A nd           | Website:  www.openfoam.com                      |
|    \\/     M anipulation  |                                                 |
\*---------------------------------------------------------------------------*/
FoamFile
{
    version     2.0;
    format      ascii;
    class       volVectorField;
    location    "1.8";
    object      U;
}
// * * * * * * * * * * * * * * * * * * * * * * * * * * * * * * * * * * * * * //

dimensions      [0 1 -1 0 0 0 0];


internalField   nonuniform List<vector> 
52500
(
(-0.0015873 0.00248105 0)
(-0.00476928 0.00248387 0)
(-0.00795059 0.0024814 0)
(-0.0111292 0.00247784 0)
(-0.0143036 0.00247321 0)
(-0.0174726 0.00246754 0)
(-0.0206348 0.00246086 0)
(-0.0237891 0.00245316 0)
(-0.0269342 0.00244445 0)
(-0.0300689 0.00243474 0)
(-0.0331919 0.00242403 0)
(-0.0363021 0.00241232 0)
(-0.0393982 0.0023996 0)
(-0.0424789 0.00238589 0)
(-0.0455431 0.00237116 0)
(-0.0485894 0.00235543 0)
(-0.0516167 0.0023387 0)
(-0.0546236 0.00232096 0)
(-0.0576091 0.00230221 0)
(-0.0605717 0.00228245 0)
(-0.0635103 0.00226168 0)
(-0.0664236 0.0022399 0)
(-0.0693104 0.00221711 0)
(-0.0721694 0.0021933 0)
(-0.0749994 0.00216848 0)
(-0.0777991 0.00214264 0)
(-0.0805672 0.00211579 0)
(-0.0833026 0.00208791 0)
(-0.0860039 0.00205902 0)
(-0.0886699 0.00202911 0)
(-0.0912993 0.00199817 0)
(-0.0938909 0.00196622 0)
(-0.0964434 0.00193325 0)
(-0.0989556 0.00189925 0)
(-0.101426 0.00186423 0)
(-0.103854 0.00182819 0)
(-0.106237 0.00179112 0)
(-0.108576 0.00175304 0)
(-0.110867 0.00171393 0)
(-0.113111 0.00167381 0)
(-0.115305 0.00163266 0)
(-0.11745 0.0015905 0)
(-0.119542 0.00154732 0)
(-0.121582 0.00150313 0)
(-0.123568 0.00145793 0)
(-0.125498 0.00141172 0)
(-0.127372 0.00136451 0)
(-0.129188 0.00131629 0)
(-0.130945 0.00126708 0)
(-0.132641 0.00121687 0)
(-0.134277 0.00116567 0)
(-0.13585 0.00111349 0)
(-0.137359 0.00106033 0)
(-0.138803 0.00100619 0)
(-0.140181 0.000951083 0)
(-0.141492 0.000895016 0)
(-0.142734 0.000837999 0)
(-0.143907 0.000780048 0)
(-0.14501 0.000721189 0)
(-0.146041 0.000661452 0)
(-0.146999 0.000600868 0)
(-0.147884 0.00053947 0)
(-0.148694 0.000477293 0)
(-0.149428 0.000414373 0)
(-0.150085 0.000350749 0)
(-0.150664 0.00028646 0)
(-0.151165 0.000221549 0)
(-0.151586 0.000156054 0)
(-0.151927 9.00017e-05 0)
(-0.152186 2.33748e-05 0)
(-0.152362 -4.39539e-05 0)
(-0.152453 -0.000112384 0)
(-0.152459 -0.000183084 0)
(-0.152377 -0.00025769 0)
(-0.152206 -0.000334149 0)
(-0.151947 -0.000411872 0)
(-0.151598 -0.000490406 0)
(-0.151157 -0.000569378 0)
(-0.150625 -0.00064834 0)
(-0.15 -0.00072705 0)
(-0.149284 -0.000805479 0)
(-0.148475 -0.000883699 0)
(-0.147575 -0.000961727 0)
(-0.146582 -0.00103956 0)
(-0.145497 -0.00111719 0)
(-0.14432 -0.00119459 0)
(-0.143051 -0.00127177 0)
(-0.14169 -0.00134868 0)
(-0.140237 -0.00142533 0)
(-0.138693 -0.00150166 0)
(-0.137058 -0.00157763 0)
(-0.135331 -0.00165316 0)
(-0.133515 -0.00172821 0)
(-0.131608 -0.0018027 0)
(-0.129612 -0.0018766 0)
(-0.127527 -0.00194984 0)
(-0.125353 -0.00202239 0)
(-0.123092 -0.00209419 0)
(-0.120744 -0.00216516 0)
(-0.11831 -0.00223522 0)
(-0.115791 -0.00230432 0)
(-0.113187 -0.0023724 0)
(-0.110501 -0.00243939 0)
(-0.107732 -0.00250525 0)
(-0.104883 -0.00256988 0)
(-0.101954 -0.00263323 0)
(-0.0989464 -0.00269523 0)
(-0.0958623 -0.00275583 0)
(-0.092703 -0.00281495 0)
(-0.08947 -0.00287252 0)
(-0.0861649 -0.00292846 0)
(-0.0827894 -0.00298269 0)
(-0.0793453 -0.00303519 0)
(-0.0758347 -0.00308587 0)
(-0.0722593 -0.0031346 0)
(-0.0686212 -0.00318135 0)
(-0.0649227 -0.00322603 0)
(-0.0611658 -0.00326856 0)
(-0.0573528 -0.00330891 0)
(-0.0534863 -0.00334701 0)
(-0.0495685 -0.00338278 0)
(-0.045602 -0.00341611 0)
(-0.0415894 -0.0034469 0)
(-0.0375334 -0.00347512 0)
(-0.0334367 -0.00350069 0)
(-0.0293022 -0.00352356 0)
(-0.0251327 -0.00354366 0)
(-0.0209314 -0.00356088 0)
(-0.0167011 -0.00357516 0)
(-0.0124452 -0.00358644 0)
(-0.00816672 -0.00359462 0)
(-0.00386905 -0.00359958 0)
(0.000444777 -0.00360122 0)
(0.00477314 -0.00359964 0)
(0.00910834 -0.0035958 0)
(0.0134477 -0.00358739 0)
(0.0177909 -0.00357582 0)
(0.0221321 -0.00356059 0)
(0.0264678 -0.00354202 0)
(0.0307939 -0.00351964 0)
(0.0351076 -0.00349353 0)
(0.0394042 -0.00346336 0)
(0.0436797 -0.00342964 0)
(0.0479305 -0.00339198 0)
(0.0521527 -0.00335051 0)
(0.0563418 -0.00330413 0)
(0.0604938 -0.00325401 0)
(0.0646052 -0.00319981 0)
(0.0686709 -0.00314164 0)
(0.0726869 -0.00307909 0)
(0.0766496 -0.00301227 0)
(0.0805544 -0.00294122 0)
(0.084397 -0.00286589 0)
(0.0881731 -0.00278635 0)
(0.0918784 -0.00270254 0)
(0.0955084 -0.00261448 0)
(0.0990592 -0.00252215 0)
(0.102526 -0.00242565 0)
(0.105905 -0.00232493 0)
(0.109191 -0.0022197 0)
(0.112381 -0.00211036 0)
(0.11547 -0.00199688 0)
(0.118453 -0.00187915 0)
(0.121328 -0.00175715 0)
(0.124088 -0.0016312 0)
(0.126731 -0.00150105 0)
(0.129252 -0.00136725 0)
(0.131646 -0.00122891 0)
(0.133911 -0.00108675 0)
(0.136042 -0.000941146 0)
(0.138035 -0.000792127 0)
(0.139886 -0.000638894 0)
(0.141591 -0.000482449 0)
(0.143148 -0.000323302 0)
(0.144552 -0.000161087 0)
(0.145801 4.01007e-06 0)
(0.146891 0.000170381 0)
(0.147814 0.000338318 0)
(0.148574 0.000508588 0)
(0.149166 0.000682253 0)
(0.149583 0.000864539 0)
(0.149816 0.00105868 0)
(0.149857 0.00125543 0)
(0.149704 0.00142378 0)
(0.149378 0.00150678 0)
(0.148928 0.0014585 0)
(0.148412 0.00129193 0)
(0.147866 0.00108233 0)
(0.147285 0.000920034 0)
(0.146628 0.000850236 0)
(0.145852 0.000865493 0)
(0.14493 0.000936991 0)
(0.143843 0.00104102 0)
(0.14258 0.00116588 0)
(0.141135 0.00130582 0)
(0.139505 0.0014556 0)
(0.137685 0.00161119 0)
(0.135674 0.00176971 0)
(0.13347 0.00192777 0)
(0.131077 0.00208252 0)
(0.128498 0.00223292 0)
(0.125734 0.00237952 0)
(0.122787 0.00252335 0)
(0.119658 0.00266559 0)
(0.11635 0.00280695 0)
(0.112864 0.0029472 0)
(0.1092 0.00308701 0)
(0.10536 0.00322564 0)
(0.101346 0.00336269 0)
(0.0971597 0.00349841 0)
(0.0928033 0.0036328 0)
(0.0882791 0.00376542 0)
(0.0835893 0.00389689 0)
(0.0787366 0.00402608 0)
(0.073724 0.00415316 0)
(0.0685545 0.00427763 0)
(0.0632313 0.00439897 0)
(0.0577573 0.00451721 0)
(0.0521359 0.00463299 0)
(0.0463701 0.00474513 0)
(0.0404684 0.00485476 0)
(0.0344312 0.00495811 0)
(0.0282537 0.00505851 0)
(0.0219499 0.00515864 0)
(0.015526 0.00525389 0)
(0.00898285 0.00534487 0)
(0.00232582 0.00543241 0)
(-0.0044407 0.00551589 0)
(-0.0113129 0.00559529 0)
(-0.0182833 0.0056709 0)
(-0.0253489 0.00574135 0)
(-0.0325059 0.00580798 0)
(-0.0397465 0.00586952 0)
(-0.0470638 0.00592944 0)
(-0.0544611 0.00598286 0)
(-0.0619307 0.00603092 0)
(-0.069458 0.00607528 0)
(-0.0770414 0.00611531 0)
(-0.084676 0.00615101 0)
(-0.0923562 0.00618238 0)
(-0.100076 0.00620938 0)
(-0.107829 0.00623195 0)
(-0.115611 0.00625009 0)
(-0.123413 0.0062638 0)
(-0.131231 0.00627302 0)
(-0.139057 0.00627773 0)
(-0.146886 0.00627791 0)
(-0.154711 0.00627356 0)
(-0.162526 0.00626462 0)
(-0.170323 0.006251 0)
(-0.178098 0.00623267 0)
(-0.185841 0.00620961 0)
(-0.193548 0.00618178 0)
(-0.201212 0.00614911 0)
(-0.208825 0.00611156 0)
(-0.21638 0.00606905 0)
(-0.223872 0.00602153 0)
(-0.231292 0.00596893 0)
(-0.238634 0.00591121 0)
(-0.245892 0.0058483 0)
(-0.253058 0.00578007 0)
(-0.260124 0.00570643 0)
(-0.267086 0.00562733 0)
(-0.273934 0.00554274 0)
(-0.280662 0.00545255 0)
(-0.287264 0.00535672 0)
(-0.293733 0.00525538 0)
(-0.300062 0.00514883 0)
(-0.306243 0.00503749 0)
(-0.312271 0.0049215 0)
(-0.318137 0.00480089 0)
(-0.323835 0.00467563 0)
(-0.329358 0.00454565 0)
(-0.3347 0.0044109 0)
(-0.339853 0.00427136 0)
(-0.344811 0.004127 0)
(-0.349567 0.00397781 0)
(-0.354116 0.00382374 0)
(-0.35845 0.00366471 0)
(-0.362564 0.00350071 0)
(-0.366451 0.00333175 0)
(-0.370105 0.00315779 0)
(-0.373521 0.0029788 0)
(-0.376692 0.00279471 0)
(-0.379612 0.0026054 0)
(-0.382277 0.00241063 0)
(-0.384679 0.00220988 0)
(-0.386813 0.00200219 0)
(-0.388672 0.00178566 0)
(-0.390248 0.0015568 0)
(-0.391531 0.00130954 0)
(-0.392503 0.00103224 0)
(-0.393145 0.000703712 0)
(-0.393439 0.000310119 0)
(-0.393335 -0.000103045 0)
(-0.39285 -0.000458512 0)
(-0.392051 -0.000756257 0)
(-0.390938 -0.00102594 0)
(-0.389515 -0.00127987 0)
(-0.387792 -0.00152507 0)
(-0.385772 -0.00176595 0)
(-0.383458 -0.00200413 0)
(-0.380854 -0.0022402 0)
(-0.377961 -0.00247413 0)
(-0.374782 -0.00270555 0)
(-0.371319 -0.00293402 0)
(-0.367574 -0.00315918 0)
(-0.363551 -0.00338089 0)
(-0.359253 -0.00359927 0)
(-0.354683 -0.00381461 0)
(-0.349845 -0.0040272 0)
(-0.344741 -0.00423734 0)
(-0.339375 -0.00444521 0)
(-0.333751 -0.00465095 0)
(-0.327871 -0.00485453 0)
(-0.321741 -0.00505587 0)
(-0.315364 -0.00525479 0)
(-0.308744 -0.00545107 0)
(-0.301886 -0.00564439 0)
(-0.294794 -0.00583443 0)
(-0.287475 -0.00602088 0)
(-0.279932 -0.0062035 0)
(-0.272172 -0.00638206 0)
(-0.2642 -0.00655629 0)
(-0.256023 -0.00672594 0)
(-0.247646 -0.00689078 0)
(-0.239075 -0.00705054 0)
(-0.230319 -0.00720501 0)
(-0.221382 -0.007354 0)
(-0.212272 -0.00749736 0)
(-0.202996 -0.00763491 0)
(-0.193562 -0.00776654 0)
(-0.183975 -0.00789209 0)
(-0.174245 -0.00801149 0)
(-0.164378 -0.00812465 0)
(-0.154383 -0.00823147 0)
(-0.144267 -0.00833182 0)
(-0.134037 -0.00842556 0)
(-0.123703 -0.00851258 0)
(-0.113271 -0.00859278 0)
(-0.102751 -0.00866604 0)
(-0.0921508 -0.00873224 0)
(-0.0814782 -0.00879147 0)
(-0.0707418 -0.00884358 0)
(-0.059949 -0.00888739 0)
(-0.049115 -0.00892031 0)
(-0.0382641 -0.00895086 0)
(-0.0273246 -0.00906744 0)
(-0.0159372 -0.00943359 0)
(-0.00500217 -0.00847842 0)
(-0.00175467 0.00800133 0)
(-0.00527697 0.00801486 0)
(-0.00879607 0.0080088 0)
(-0.0123125 0.00799988 0)
(-0.0158242 0.00798789 0)
(-0.01933 0.00797283 0)
(-0.0228286 0.0079547 0)
(-0.0263187 0.00793349 0)
(-0.029799 0.00790922 0)
(-0.0332682 0.00788187 0)
(-0.0367249 0.00785144 0)
(-0.0401678 0.00781793 0)
(-0.0435957 0.00778134 0)
(-0.0470073 0.00774166 0)
(-0.0504011 0.0076989 0)
(-0.0537759 0.00765304 0)
(-0.0571304 0.00760409 0)
(-0.0604632 0.00755204 0)
(-0.063773 0.00749689 0)
(-0.0670585 0.00743863 0)
(-0.0703184 0.00737726 0)
(-0.0735513 0.00731279 0)
(-0.0767559 0.00724519 0)
(-0.0799309 0.00717448 0)
(-0.083075 0.00710065 0)
(-0.0861868 0.00702369 0)
(-0.089265 0.00694362 0)
(-0.0923082 0.00686041 0)
(-0.0953152 0.00677407 0)
(-0.0982846 0.00668461 0)
(-0.101215 0.00659202 0)
(-0.104105 0.0064963 0)
(-0.106954 0.00639745 0)
(-0.10976 0.00629547 0)
(-0.112521 0.00619037 0)
(-0.115237 0.00608215 0)
(-0.117907 0.00597081 0)
(-0.120528 0.00585636 0)
(-0.123099 0.00573881 0)
(-0.12562 0.00561816 0)
(-0.128089 0.00549441 0)
(-0.130504 0.00536759 0)
(-0.132865 0.0052377 0)
(-0.135169 0.00510475 0)
(-0.137417 0.00496875 0)
(-0.139606 0.00482973 0)
(-0.141735 0.0046877 0)
(-0.143804 0.00454267 0)
(-0.14581 0.00439467 0)
(-0.147753 0.00424371 0)
(-0.149631 0.00408983 0)
(-0.151443 0.00393304 0)
(-0.153188 0.00377338 0)
(-0.154865 0.00361087 0)
(-0.156473 0.00344554 0)
(-0.15801 0.00327744 0)
(-0.159476 0.00310659 0)
(-0.160869 0.00293305 0)
(-0.162189 0.00275688 0)
(-0.163433 0.00257813 0)
(-0.164602 0.00239687 0)
(-0.165694 0.00221316 0)
(-0.166708 0.00202707 0)
(-0.167644 0.00183868 0)
(-0.168499 0.00164807 0)
(-0.169274 0.00145531 0)
(-0.169968 0.00126049 0)
(-0.170579 0.00106369 0)
(-0.171108 0.000864973 0)
(-0.171552 0.000664416 0)
(-0.171913 0.000462043 0)
(-0.172189 0.000257798 0)
(-0.172382 5.14173e-05 0)
(-0.172491 -0.000157588 0)
(-0.172514 -0.000371212 0)
(-0.172453 -0.000587656 0)
(-0.172307 -0.000806189 0)
(-0.172075 -0.00102621 0)
(-0.171758 -0.00124741 0)
(-0.171354 -0.00146945 0)
(-0.170863 -0.00169215 0)
(-0.170283 -0.00191532 0)
(-0.169616 -0.00213887 0)
(-0.168859 -0.00236268 0)
(-0.168013 -0.00258664 0)
(-0.167078 -0.00281063 0)
(-0.166053 -0.00303455 0)
(-0.164937 -0.00325828 0)
(-0.163732 -0.00348169 0)
(-0.162436 -0.00370468 0)
(-0.16105 -0.00392707 0)
(-0.159574 -0.00414873 0)
(-0.158007 -0.00436953 0)
(-0.156351 -0.00458935 0)
(-0.154606 -0.00480801 0)
(-0.152771 -0.00502535 0)
(-0.150847 -0.00524122 0)
(-0.148835 -0.00545545 0)
(-0.146735 -0.0056679 0)
(-0.144547 -0.00587841 0)
(-0.142274 -0.00608682 0)
(-0.139914 -0.00629295 0)
(-0.137469 -0.00649661 0)
(-0.13494 -0.00669762 0)
(-0.132328 -0.00689581 0)
(-0.129634 -0.00709101 0)
(-0.126858 -0.00728304 0)
(-0.124002 -0.00747171 0)
(-0.121068 -0.00765681 0)
(-0.118056 -0.00783816 0)
(-0.114969 -0.00801559 0)
(-0.111806 -0.00818887 0)
(-0.108571 -0.00835782 0)
(-0.105264 -0.00852227 0)
(-0.101887 -0.00868203 0)
(-0.0984419 -0.00883693 0)
(-0.0949307 -0.00898679 0)
(-0.0913552 -0.00913141 0)
(-0.0877173 -0.00927058 0)
(-0.084019 -0.0094041 0)
(-0.0802624 -0.00953178 0)
(-0.0764497 -0.00965344 0)
(-0.0725831 -0.00976892 0)
(-0.0686652 -0.00987802 0)
(-0.0646981 -0.00998054 0)
(-0.0606843 -0.0100763 0)
(-0.0566264 -0.0101651 0)
(-0.0525269 -0.0102469 0)
(-0.0483885 -0.0103214 0)
(-0.044214 -0.0103885 0)
(-0.0400061 -0.0104479 0)
(-0.0357676 -0.0104995 0)
(-0.0315014 -0.0105431 0)
(-0.0272104 -0.0105786 0)
(-0.022898 -0.010607 0)
(-0.0185672 -0.0106257 0)
(-0.0142207 -0.0106362 0)
(-0.00986199 -0.0106377 0)
(-0.0054943 -0.0106305 0)
(-0.00112069 -0.0106137 0)
(0.00325618 -0.0105882 0)
(0.00763156 -0.0105537 0)
(0.012002 -0.01051 0)
(0.016365 -0.0104568 0)
(0.0207185 -0.0103944 0)
(0.0250566 -0.0103229 0)
(0.029375 -0.0102411 0)
(0.0336728 -0.0101503 0)
(0.0379454 -0.0100503 0)
(0.0421891 -0.00994044 0)
(0.0464005 -0.00982103 0)
(0.0505757 -0.00969192 0)
(0.0547111 -0.00955312 0)
(0.0588033 -0.00940476 0)
(0.0628483 -0.00924674 0)
(0.0668426 -0.00907902 0)
(0.0707826 -0.00890161 0)
(0.0746645 -0.00871465 0)
(0.0784853 -0.00851798 0)
(0.0822405 -0.00831174 0)
(0.0859263 -0.00809609 0)
(0.0895399 -0.00787089 0)
(0.0930777 -0.00763634 0)
(0.0965357 -0.00739208 0)
(0.0999103 -0.00713902 0)
(0.103198 -0.00687669 0)
(0.106397 -0.00660567 0)
(0.109501 -0.00632466 0)
(0.112507 -0.00603512 0)
(0.115413 -0.00573756 0)
(0.118217 -0.00543021 0)
(0.120913 -0.00511464 0)
(0.123497 -0.00479103 0)
(0.125969 -0.00445869 0)
(0.128325 -0.00411817 0)
(0.130561 -0.00376898 0)
(0.132675 -0.00341324 0)
(0.134661 -0.00304885 0)
(0.136519 -0.00267512 0)
(0.138247 -0.00229126 0)
(0.139845 -0.00189516 0)
(0.141312 -0.00148477 0)
(0.142656 -0.00106282 0)
(0.143875 -0.00064167 0)
(0.144939 -0.000244567 0)
(0.145798 0.000112065 0)
(0.146388 0.000429992 0)
(0.146667 0.000742318 0)
(0.146641 0.00108049 0)
(0.146344 0.00145828 0)
(0.145816 0.00187089 0)
(0.145082 0.00230425 0)
(0.144155 0.00274658 0)
(0.143043 0.00319665 0)
(0.141748 0.00365208 0)
(0.140274 0.00411084 0)
(0.138622 0.00457179 0)
(0.136792 0.0050332 0)
(0.134781 0.00549409 0)
(0.132588 0.00595348 0)
(0.130209 0.00641027 0)
(0.127642 0.00686431 0)
(0.124883 0.00731552 0)
(0.12193 0.00776509 0)
(0.118785 0.00821295 0)
(0.115448 0.00865859 0)
(0.111919 0.00910119 0)
(0.108195 0.00954058 0)
(0.10428 0.00997726 0)
(0.100176 0.01041 0)
(0.0958811 0.0108383 0)
(0.0913989 0.0112618 0)
(0.0867297 0.0116798 0)
(0.0818739 0.0120922 0)
(0.0768351 0.0124981 0)
(0.0716142 0.0128972 0)
(0.0662146 0.0132891 0)
(0.0606402 0.0136729 0)
(0.0548925 0.0140484 0)
(0.0489739 0.0144137 0)
(0.0428899 0.0147729 0)
(0.0366413 0.0151181 0)
(0.0302353 0.0154526 0)
(0.0236744 0.0157812 0)
(0.01696 0.016097 0)
(0.0101026 0.0164007 0)
(0.00310561 0.0166929 0)
(-0.00402739 0.0169731 0)
(-0.0112904 0.0172406 0)
(-0.0186771 0.017495 0)
(-0.0261823 0.0177373 0)
(-0.0338009 0.0179647 0)
(-0.0415201 0.0181792 0)
(-0.0493376 0.0183792 0)
(-0.0572597 0.0185643 0)
(-0.0652656 0.0187354 0)
(-0.0733424 0.0188916 0)
(-0.0814895 0.0190325 0)
(-0.0896989 0.0191579 0)
(-0.0979632 0.0192675 0)
(-0.106274 0.019361 0)
(-0.114624 0.0194383 0)
(-0.123005 0.0194991 0)
(-0.131407 0.0195433 0)
(-0.139823 0.0195706 0)
(-0.148244 0.0195807 0)
(-0.156661 0.0195737 0)
(-0.165066 0.0195493 0)
(-0.173449 0.0195073 0)
(-0.181801 0.0194476 0)
(-0.190114 0.0193701 0)
(-0.198378 0.0192746 0)
(-0.206585 0.0191611 0)
(-0.214725 0.0190295 0)
(-0.22279 0.0188796 0)
(-0.230769 0.0187115 0)
(-0.238655 0.018525 0)
(-0.246438 0.0183201 0)
(-0.254109 0.0180969 0)
(-0.26166 0.0178553 0)
(-0.269082 0.0175953 0)
(-0.276365 0.0173169 0)
(-0.283502 0.0170201 0)
(-0.290484 0.0167051 0)
(-0.297302 0.0163719 0)
(-0.303949 0.0160206 0)
(-0.310417 0.0156513 0)
(-0.316696 0.0152646 0)
(-0.32278 0.0148607 0)
(-0.328661 0.01444 0)
(-0.334333 0.0140027 0)
(-0.339788 0.0135491 0)
(-0.345021 0.0130793 0)
(-0.350023 0.0125936 0)
(-0.35479 0.0120923 0)
(-0.359315 0.0115756 0)
(-0.363593 0.0110438 0)
(-0.367618 0.0104973 0)
(-0.371386 0.00993638 0)
(-0.374892 0.00936145 0)
(-0.378132 0.00877287 0)
(-0.381101 0.00817103 0)
(-0.383797 0.00755632 0)
(-0.386216 0.00692908 0)
(-0.388355 0.00628964 0)
(-0.390213 0.00563824 0)
(-0.391787 0.00497503 0)
(-0.393078 0.00429991 0)
(-0.394086 0.0036123 0)
(-0.394813 0.00291106 0)
(-0.395266 0.00219418 0)
(-0.395458 0.00145641 0)
(-0.395416 0.000689547 0)
(-0.395155 -0.000101444 0)
(-0.394704 -0.000894547 0)
(-0.394046 -0.00166502 0)
(-0.393121 -0.0024125 0)
(-0.391929 -0.00314844 0)
(-0.390464 -0.00387627 0)
(-0.388717 -0.00459795 0)
(-0.386682 -0.00531503 0)
(-0.384359 -0.00602807 0)
(-0.381745 -0.00673716 0)
(-0.378843 -0.00744199 0)
(-0.375653 -0.00814204 0)
(-0.372176 -0.00883671 0)
(-0.368414 -0.00952539 0)
(-0.36437 -0.0102075 0)
(-0.360044 -0.0108826 0)
(-0.35544 -0.0115501 0)
(-0.350561 -0.0122096 0)
(-0.34541 -0.0128606 0)
(-0.339992 -0.0135025 0)
(-0.334311 -0.0141349 0)
(-0.328371 -0.0147572 0)
(-0.322177 -0.0153689 0)
(-0.315734 -0.0159693 0)
(-0.309048 -0.016558 0)
(-0.302125 -0.0171345 0)
(-0.294969 -0.0176981 0)
(-0.287587 -0.0182485 0)
(-0.279985 -0.018785 0)
(-0.272168 -0.0193073 0)
(-0.264143 -0.0198149 0)
(-0.255916 -0.0203074 0)
(-0.247494 -0.0207842 0)
(-0.238883 -0.0212452 0)
(-0.23009 -0.0216899 0)
(-0.221121 -0.0221179 0)
(-0.211984 -0.0225289 0)
(-0.202686 -0.0229226 0)
(-0.193234 -0.0232986 0)
(-0.183636 -0.0236566 0)
(-0.173897 -0.0239962 0)
(-0.164027 -0.0243173 0)
(-0.154033 -0.0246195 0)
(-0.143921 -0.0249026 0)
(-0.133701 -0.0251664 0)
(-0.123379 -0.0254108 0)
(-0.112964 -0.0256355 0)
(-0.102463 -0.0258404 0)
(-0.0918851 -0.0260252 0)
(-0.0812376 -0.0261902 0)
(-0.0705285 -0.0263349 0)
(-0.0597651 -0.0264565 0)
(-0.0489619 -0.026547 0)
(-0.0381438 -0.0266314 0)
(-0.0272402 -0.0269703 0)
(-0.0158822 -0.0280503 0)
(-0.00497737 -0.0252239 0)
(-0.00169427 0.0137507 0)
(-0.00509615 0.0137741 0)
(-0.00849516 0.0137637 0)
(-0.0118919 0.0137487 0)
(-0.0152842 0.0137285 0)
(-0.0186708 0.0137032 0)
(-0.0220504 0.0136726 0)
(-0.0254217 0.0136369 0)
(-0.0287835 0.013596 0)
(-0.0321344 0.0135499 0)
(-0.0354731 0.0134986 0)
(-0.0387984 0.0134421 0)
(-0.042109 0.0133803 0)
(-0.0454036 0.0133133 0)
(-0.0486809 0.0132411 0)
(-0.0519396 0.0131637 0)
(-0.0551785 0.013081 0)
(-0.0583961 0.012993 0)
(-0.0615913 0.0128998 0)
(-0.0647628 0.0128014 0)
(-0.0679091 0.0126976 0)
(-0.0710291 0.0125886 0)
(-0.0741215 0.0124743 0)
(-0.0771848 0.0123548 0)
(-0.0802179 0.0122299 0)
(-0.0832194 0.0120998 0)
(-0.086188 0.0119643 0)
(-0.0891224 0.0118236 0)
(-0.0920213 0.0116775 0)
(-0.0948834 0.0115262 0)
(-0.0977074 0.0113696 0)
(-0.100492 0.0112076 0)
(-0.103236 0.0110404 0)
(-0.105937 0.0108679 0)
(-0.108596 0.0106901 0)
(-0.11121 0.010507 0)
(-0.113777 0.0103186 0)
(-0.116298 0.010125 0)
(-0.11877 0.00992615 0)
(-0.121192 0.00972205 0)
(-0.123563 0.00951274 0)
(-0.125881 0.00929823 0)
(-0.128146 0.00907854 0)
(-0.130355 0.0088537 0)
(-0.132509 0.00862373 0)
(-0.134604 0.00838866 0)
(-0.136641 0.00814853 0)
(-0.138618 0.00790336 0)
(-0.140534 0.0076532 0)
(-0.142387 0.00739809 0)
(-0.144176 0.00713807 0)
(-0.1459 0.00687319 0)
(-0.147558 0.00660351 0)
(-0.149149 0.00632907 0)
(-0.150671 0.00604994 0)
(-0.152123 0.00576618 0)
(-0.153505 0.00547786 0)
(-0.154814 0.00518505 0)
(-0.15605 0.00488782 0)
(-0.157213 0.00458625 0)
(-0.158299 0.0042804 0)
(-0.15931 0.00397037 0)
(-0.160243 0.00365623 0)
(-0.161098 0.00333807 0)
(-0.161873 0.00301598 0)
(-0.162568 0.00269004 0)
(-0.163181 0.00236033 0)
(-0.163713 0.00202691 0)
(-0.164161 0.00168984 0)
(-0.164525 0.00134916 0)
(-0.164805 0.00100488 0)
(-0.164998 0.000657037 0)
(-0.165104 0.000305865 0)
(-0.165128 -4.79549e-05 0)
(-0.165067 -0.000401768 0)
(-0.164917 -0.000757139 0)
(-0.164679 -0.00111438 0)
(-0.164352 -0.00147369 0)
(-0.163937 -0.00183493 0)
(-0.163432 -0.00219806 0)
(-0.162839 -0.00256293 0)
(-0.162155 -0.0029293 0)
(-0.161381 -0.00329693 0)
(-0.160517 -0.0036656 0)
(-0.159561 -0.00403509 0)
(-0.158515 -0.00440517 0)
(-0.157378 -0.00477567 0)
(-0.156149 -0.00514637 0)
(-0.154829 -0.00551693 0)
(-0.153418 -0.00588711 0)
(-0.151915 -0.00625673 0)
(-0.150321 -0.00662559 0)
(-0.148637 -0.00699338 0)
(-0.146862 -0.00735984 0)
(-0.144997 -0.00772471 0)
(-0.143042 -0.00808774 0)
(-0.140998 -0.00844867 0)
(-0.138865 -0.00880721 0)
(-0.136644 -0.0091631 0)
(-0.134335 -0.00951602 0)
(-0.13194 -0.00986568 0)
(-0.129458 -0.0102118 0)
(-0.126892 -0.0105541 0)
(-0.124241 -0.0108923 0)
(-0.121507 -0.0112262 0)
(-0.118692 -0.0115553 0)
(-0.115795 -0.0118794 0)
(-0.112819 -0.0121982 0)
(-0.109765 -0.0125114 0)
(-0.106634 -0.0128187 0)
(-0.103428 -0.0131197 0)
(-0.100148 -0.0134143 0)
(-0.0967956 -0.0137021 0)
(-0.0933731 -0.0139827 0)
(-0.0898821 -0.014256 0)
(-0.0863245 -0.0145214 0)
(-0.0827021 -0.0147787 0)
(-0.079017 -0.0150277 0)
(-0.0752713 -0.0152678 0)
(-0.0714672 -0.015499 0)
(-0.0676069 -0.0157209 0)
(-0.0636928 -0.0159332 0)
(-0.0597275 -0.0161356 0)
(-0.0557131 -0.0163279 0)
(-0.0516524 -0.0165096 0)
(-0.047548 -0.0166807 0)
(-0.0434028 -0.0168406 0)
(-0.0392194 -0.0169891 0)
(-0.0350006 -0.0171259 0)
(-0.0307493 -0.0172508 0)
(-0.0264686 -0.0173635 0)
(-0.0221615 -0.0174638 0)
(-0.0178311 -0.0175515 0)
(-0.0134806 -0.0176262 0)
(-0.00911338 -0.0176879 0)
(-0.00473269 -0.0177362 0)
(-0.000341506 -0.0177708 0)
(0.00405636 -0.0177914 0)
(0.00845796 -0.0177977 0)
(0.0128586 -0.0177895 0)
(0.0172544 -0.0177672 0)
(0.021643 -0.0177309 0)
(0.0260208 -0.0176795 0)
(0.0303833 -0.017613 0)
(0.0347264 -0.0175311 0)
(0.0390482 -0.0174349 0)
(0.0433433 -0.0173226 0)
(0.047607 -0.0171943 0)
(0.0518371 -0.0170507 0)
(0.0560294 -0.016891 0)
(0.0601799 -0.0167154 0)
(0.0642846 -0.0165237 0)
(0.068339 -0.0163158 0)
(0.0723394 -0.0160918 0)
(0.076282 -0.0158515 0)
(0.0801626 -0.015595 0)
(0.083977 -0.0153221 0)
(0.0877213 -0.015033 0)
(0.0913914 -0.0147275 0)
(0.0949832 -0.014406 0)
(0.0984927 -0.0140681 0)
(0.101916 -0.0137141 0)
(0.105249 -0.0133439 0)
(0.108488 -0.0129579 0)
(0.111628 -0.0125561 0)
(0.114665 -0.0121385 0)
(0.117598 -0.0117053 0)
(0.120421 -0.0112568 0)
(0.123127 -0.0107931 0)
(0.125717 -0.0103143 0)
(0.128187 -0.00982052 0)
(0.13053 -0.00931307 0)
(0.132744 -0.00879123 0)
(0.134827 -0.00825501 0)
(0.136774 -0.00770567 0)
(0.138582 -0.00714309 0)
(0.140247 -0.00656891 0)
(0.141767 -0.00598128 0)
(0.143138 -0.0053822 0)
(0.144358 -0.00477501 0)
(0.145423 -0.00416219 0)
(0.146334 -0.00354535 0)
(0.147093 -0.00292217 0)
(0.147695 -0.00228286 0)
(0.148138 -0.00160594 0)
(0.148408 -0.000874139 0)
(0.148497 -9.16727e-05 0)
(0.148398 0.000708959 0)
(0.148103 0.00149886 0)
(0.147622 0.00226293 0)
(0.146961 0.00300674 0)
(0.146119 0.00374225 0)
(0.145101 0.00447779 0)
(0.143909 0.00521644 0)
(0.142536 0.0059583 0)
(0.140982 0.00670346 0)
(0.139246 0.00745405 0)
(0.137326 0.00820776 0)
(0.135221 0.00896369 0)
(0.132932 0.00972341 0)
(0.130455 0.0104865 0)
(0.127791 0.0112514 0)
(0.12494 0.0120162 0)
(0.121902 0.0127807 0)
(0.118676 0.0135427 0)
(0.115264 0.0143034 0)
(0.111666 0.0150594 0)
(0.107883 0.01581 0)
(0.103915 0.0165564 0)
(0.0997644 0.0172972 0)
(0.0954318 0.0180308 0)
(0.0909189 0.0187569 0)
(0.0862278 0.0194731 0)
(0.0813602 0.0201825 0)
(0.0763183 0.0208813 0)
(0.0711051 0.0215681 0)
(0.0657227 0.0222444 0)
(0.0601735 0.0229088 0)
(0.054459 0.0235587 0)
(0.0485886 0.0241945 0)
(0.042562 0.0248162 0)
(0.0363751 0.0254214 0)
(0.030046 0.0260097 0)
(0.023572 0.0265811 0)
(0.0169513 0.0271339 0)
(0.0101985 0.0276678 0)
(0.00331615 0.0281815 0)
(-0.00369303 0.0286748 0)
(-0.0108246 0.0291469 0)
(-0.0180679 0.0295964 0)
(-0.0254231 0.0300237 0)
(-0.0328847 0.0304275 0)
(-0.0404416 0.0308079 0)
(-0.0480903 0.0311606 0)
(-0.0558299 0.0314902 0)
(-0.0636515 0.0317952 0)
(-0.0715415 0.0320725 0)
(-0.0794967 0.0323224 0)
(-0.0875107 0.0325442 0)
(-0.0955764 0.0327375 0)
(-0.103687 0.0329018 0)
(-0.111834 0.0330367 0)
(-0.120011 0.0331414 0)
(-0.128209 0.0332157 0)
(-0.136422 0.0332592 0)
(-0.144642 0.0332715 0)
(-0.152859 0.0332523 0)
(-0.161067 0.0332012 0)
(-0.169257 0.0331181 0)
(-0.177421 0.0330027 0)
(-0.185552 0.0328548 0)
(-0.19364 0.0326742 0)
(-0.201677 0.0324609 0)
(-0.209656 0.0322148 0)
(-0.217568 0.0319358 0)
(-0.225405 0.0316239 0)
(-0.233159 0.0312791 0)
(-0.240821 0.0309016 0)
(-0.248384 0.0304914 0)
(-0.255839 0.0300487 0)
(-0.263179 0.0295737 0)
(-0.270395 0.0290666 0)
(-0.27748 0.0285277 0)
(-0.284426 0.0279573 0)
(-0.291225 0.0273558 0)
(-0.29787 0.0267236 0)
(-0.304354 0.0260611 0)
(-0.310669 0.0253685 0)
(-0.316808 0.0246462 0)
(-0.322765 0.0238945 0)
(-0.328532 0.0231142 0)
(-0.334103 0.0223058 0)
(-0.339472 0.02147 0)
(-0.344632 0.0206075 0)
(-0.349578 0.0197191 0)
(-0.354303 0.0188056 0)
(-0.358803 0.0178677 0)
(-0.36307 0.0169064 0)
(-0.367102 0.0159225 0)
(-0.370891 0.014917 0)
(-0.374435 0.0138908 0)
(-0.377727 0.0128449 0)
(-0.380765 0.0117804 0)
(-0.383543 0.0106983 0)
(-0.386059 0.0095997 0)
(-0.388308 0.0084858 0)
(-0.390288 0.00735793 0)
(-0.391995 0.00621758 0)
(-0.393426 0.00506669 0)
(-0.394577 0.00390806 0)
(-0.395447 0.00274583 0)
(-0.396031 0.00158701 0)
(-0.396315 0.000443757 0)
(-0.396301 -0.000676449 0)
(-0.39602 -0.00179428 0)
(-0.395466 -0.00294071 0)
(-0.394616 -0.00411421 0)
(-0.393466 -0.00530001 0)
(-0.392017 -0.00649147 0)
(-0.390273 -0.00768425 0)
(-0.388236 -0.0088752 0)
(-0.385907 -0.0100625 0)
(-0.383286 -0.0112449 0)
(-0.380376 -0.0124212 0)
(-0.377177 -0.0135906 0)
(-0.373692 -0.014752 0)
(-0.369922 -0.0159045 0)
(-0.365869 -0.017047 0)
(-0.361538 -0.0181785 0)
(-0.356929 -0.0192976 0)
(-0.352047 -0.0204032 0)
(-0.346895 -0.0214942 0)
(-0.341477 -0.0225696 0)
(-0.335796 -0.0236282 0)
(-0.329857 -0.0246692 0)
(-0.323664 -0.0256915 0)
(-0.317222 -0.0266943 0)
(-0.310535 -0.0276768 0)
(-0.30361 -0.0286381 0)
(-0.29645 -0.0295775 0)
(-0.289061 -0.0304941 0)
(-0.281449 -0.0313874 0)
(-0.27362 -0.0322564 0)
(-0.26558 -0.0331007 0)
(-0.257335 -0.0339194 0)
(-0.248891 -0.0347119 0)
(-0.240255 -0.0354776 0)
(-0.231434 -0.0362158 0)
(-0.222434 -0.0369261 0)
(-0.213262 -0.0376078 0)
(-0.203926 -0.0382605 0)
(-0.194432 -0.0388836 0)
(-0.184788 -0.0394767 0)
(-0.175002 -0.0400393 0)
(-0.165081 -0.040571 0)
(-0.155032 -0.0410715 0)
(-0.144864 -0.0415403 0)
(-0.134584 -0.0419771 0)
(-0.124201 -0.0423815 0)
(-0.113722 -0.0427533 0)
(-0.103155 -0.0430923 0)
(-0.0925097 -0.0433981 0)
(-0.0817928 -0.0436709 0)
(-0.0710128 -0.0439101 0)
(-0.0601772 -0.0441109 0)
(-0.0493007 -0.04426 0)
(-0.0384094 -0.0444003 0)
(-0.0274325 -0.0449709 0)
(-0.0159853 -0.0467773 0)
(-0.00500137 -0.0420303 0)
(-0.00168477 0.0192418 0)
(-0.00506715 0.019274 0)
(-0.00844652 0.0192587 0)
(-0.0118236 0.0192365 0)
(-0.0151961 0.0192071 0)
(-0.018563 0.0191704 0)
(-0.021923 0.0191264 0)
(-0.0252747 0.0190751 0)
(-0.0286169 0.0190165 0)
(-0.0319484 0.0189506 0)
(-0.0352678 0.0188774 0)
(-0.0385738 0.0187969 0)
(-0.0418653 0.0187091 0)
(-0.0451408 0.0186139 0)
(-0.0483992 0.0185115 0)
(-0.0516391 0.0184016 0)
(-0.0548593 0.0182845 0)
(-0.0580585 0.0181599 0)
(-0.0612354 0.018028 0)
(-0.0643886 0.0178888 0)
(-0.067517 0.0177421 0)
(-0.0706191 0.017588 0)
(-0.0736938 0.0174266 0)
(-0.0767398 0.0172577 0)
(-0.0797556 0.0170815 0)
(-0.0827401 0.0168978 0)
(-0.0856919 0.0167067 0)
(-0.0886098 0.0165082 0)
(-0.0914924 0.0163022 0)
(-0.0943384 0.0160888 0)
(-0.0971465 0.015868 0)
(-0.0999155 0.0156397 0)
(-0.102644 0.015404 0)
(-0.105331 0.0151609 0)
(-0.107974 0.0149104 0)
(-0.110574 0.0146525 0)
(-0.113127 0.0143871 0)
(-0.115634 0.0141144 0)
(-0.118092 0.0138344 0)
(-0.120501 0.013547 0)
(-0.122859 0.0132522 0)
(-0.125165 0.0129502 0)
(-0.127417 0.0126409 0)
(-0.129615 0.0123243 0)
(-0.131757 0.0120006 0)
(-0.133842 0.0116697 0)
(-0.135868 0.0113316 0)
(-0.137834 0.0109865 0)
(-0.13974 0.0106344 0)
(-0.141583 0.0102753 0)
(-0.143363 0.00990932 0)
(-0.145078 0.00953649 0)
(-0.146728 0.00915689 0)
(-0.14831 0.00877059 0)
(-0.149825 0.00837769 0)
(-0.15127 0.00797826 0)
(-0.152644 0.0075724 0)
(-0.153947 0.0071602 0)
(-0.155177 0.00674177 0)
(-0.156334 0.00631721 0)
(-0.157415 0.00588664 0)
(-0.158421 0.00545017 0)
(-0.15935 0.00500793 0)
(-0.160201 0.00456004 0)
(-0.160973 0.00410665 0)
(-0.161665 0.0036479 0)
(-0.162276 0.00318392 0)
(-0.162806 0.00271487 0)
(-0.163254 0.00224093 0)
(-0.163619 0.00176225 0)
(-0.1639 0.00127904 0)
(-0.164097 0.000791569 0)
(-0.16421 0.000300165 0)
(-0.164231 -0.000194579 0)
(-0.164162 -0.000692544 0)
(-0.164007 -0.00119378 0)
(-0.163765 -0.00169799 0)
(-0.163435 -0.00220503 0)
(-0.163014 -0.00271468 0)
(-0.162504 -0.00322679 0)
(-0.161904 -0.00374102 0)
(-0.161213 -0.0042572 0)
(-0.160432 -0.00477498 0)
(-0.159559 -0.00529405 0)
(-0.158594 -0.00581415 0)
(-0.157538 -0.00633505 0)
(-0.15639 -0.00685634 0)
(-0.155151 -0.00737764 0)
(-0.153819 -0.00789878 0)
(-0.152395 -0.00841945 0)
(-0.15088 -0.00893922 0)
(-0.149274 -0.00945769 0)
(-0.147576 -0.00997455 0)
(-0.145787 -0.0104895 0)
(-0.143908 -0.011002 0)
(-0.141938 -0.0115119 0)
(-0.139879 -0.0120187 0)
(-0.13773 -0.012522 0)
(-0.135494 -0.0130215 0)
(-0.133169 -0.0135167 0)
(-0.130757 -0.0140073 0)
(-0.128259 -0.014493 0)
(-0.125676 -0.0149731 0)
(-0.123009 -0.0154474 0)
(-0.120258 -0.0159153 0)
(-0.117425 -0.0163766 0)
(-0.114512 -0.0168307 0)
(-0.111519 -0.0172772 0)
(-0.108447 -0.0177157 0)
(-0.105299 -0.0181458 0)
(-0.102076 -0.0185671 0)