/*--------------------------------*- C++ -*----------------------------------*\
| =========                 |                                                 |
| \\      /  F ield         | OpenFOAM: The Open Source CFD Toolbox           |
|  \\    /   O peration     | Version:  v2006                                 |
|   \\  /    A nd           | Website:  www.openfoam.com                      |
|    \\/     M anipulation  |                                                 |
\*---------------------------------------------------------------------------*/
FoamFile
{
    version     2.0;
    format      ascii;
    class       volScalarField;
    location    "6.3";
    object      p_rgh;
}
// * * * * * * * * * * * * * * * * * * * * * * * * * * * * * * * * * * * * * //

dimensions      [1 -1 -2 0 0 0 0];


internalField   nonuniform List<scalar> 
150000
(
7541.06
7540.43
7539.12
7537.13
7534.49
7531.2
7527.26
7522.67
7517.45
7511.6
7505.13
7498.05
7490.37
7482.1
7473.25
7463.83
7453.86
7443.34
7432.29
7420.72
7408.65
7396.08
7383.04
7369.53
7355.57
7341.19
7326.39
7311.19
7295.61
7279.66
7263.37
7246.74
7229.77
7212.49
7194.9
7177.02
7158.87
7140.48
7121.92
7103.23
7084.42
7065.5
7046.48
7027.33
7008.03
6988.53
6968.82
6948.86
6928.46
6908.16
6887.84
6867.6
6847.64
6828.07
6808.15
6788.2
6768.26
6748.34
6728.43
6708.52
6688.62
6668.73
6648.84
6628.97
6609.11
6589.27
6569.45
6549.64
6529.85
6510.08
6490.32
6470.58
6450.83
6431.09
6411.35
6391.58
6371.8
6351.98
6332.12
6312.2
6292.22
6272.16
6252.01
6231.75
6211.37
6190.85
6170.18
6149.36
6128.35
6107.15
6085.72
6064.05
6042.1
6019.84
5997.27
5974.39
5951.19
5927.69
5903.87
5879.7
5855.13
5830.11
5804.58
5778.48
5751.79
5724.48
5696.53
5667.94
5638.71
5608.83
5578.29
5547.09
5515.21
5482.63
5449.34
5415.32
5380.57
5345.05
5308.76
5271.68
5233.79
5195.08
5155.54
5115.14
5073.89
5031.76
4988.75
4944.85
4900.04
4854.33
4807.7
4760.15
4711.68
4662.28
4611.95
4560.69
4508.5
4455.38
4401.33
4346.36
4290.47
4233.67
4175.97
4117.37
4057.9
3997.55
3936.35
3874.32
3811.47
3747.83
3683.43
3618.28
3552.43
3485.9
3418.72
3350.93
3282.56
3213.64
3144.19
3074.26
3003.86
2933.04
2861.83
2790.26
2718.38
2646.23
2573.87
2501.33
2428.68
2355.96
2283.23
2210.54
2137.94
2065.48
1993.21
1921.17
1849.43
1778.02
1706.99
1636.39
1566.28
1496.7
1427.71
1359.35
1291.67
1224.72
1158.52
1093.1
1028.5
964.751
901.894
839.986
779.086
719.249
660.52
602.925
546.486
491.329
437.43
384.8
333.475
283.467
234.792
187.47
141.515
96.9442
53.7695
12.0021
-28.349
-67.2771
-104.777
-140.848
-175.487
-208.698
-240.485
-270.852
-299.809
-327.366
-353.535
-378.331
-401.771
-423.871
-444.654
-464.14
-482.355
-499.323
-515.073
-529.632
-543.033
-555.305
-566.483
-576.6
-585.692
-593.794
-600.944
-607.179
-612.538
-617.062
-620.791
-623.768
-626.034
-627.634
-628.61
-629.003
-628.857
-628.21
-627.102
-625.57
-623.651
-621.38
-618.796
-615.934
-612.831
-609.526
-606.054
-602.449
-598.745
-594.972
-591.161
-587.34
-583.538
-579.782
-576.098
-572.511
-569.045
-565.724
-562.569
-559.602
-556.841
-554.305
-552.011
-549.976
-548.215
-546.741
-545.567
-544.705
-544.166
-543.958
-544.091
-544.573
-545.409
-546.605
-548.166
-550.096
-552.399
-555.075
-558.127
-561.555
-565.359
-569.539
-574.093
-579.02
-584.316
-589.981
-596.008
-602.396
-609.14
-616.234
-623.675
-631.457
-639.574
-648.021
-656.792
-665.88
-675.28
-684.984
-694.987
-705.281
-715.859
-726.716
-737.844
-749.236
-760.885
-772.784
-784.927
-797.306
-809.915
-822.745
-835.792
-849.046
-862.502
-876.152
-889.989
-904.006
-918.196
-932.551
-947.064
-961.727
-976.534
-991.476
-1006.55
-1021.74
-1037.04
-1052.44
-1067.94
-1083.53
-1099.2
-1114.93
-1130.73
-1146.58
-1162.48
-1178.41
-1194.36
-1210.33
-1226.31
-1242.28
-1258.24
-1274.18
-1290.08
-1305.94
-1321.75
-1337.49
-1353.16
-1368.75
-1384.25
-1399.64
-1414.93
-1430.1
-1445.14
-1460.04
-1474.8
-1489.4
-1503.84
-1518.11
-1532.21
-1546.12
-1559.84
-1573.36
-1586.69
-1599.8
-1612.7
-1625.39
-1637.85
-1650.09
-1662.1
-1673.89
-1685.43
-1696.75
-1707.83
-1718.68
-1729.29
-1739.66
-1749.8
-1759.71
-1769.38
-1778.83
-1788.04
-1797.03
-1805.8
-1814.35
-1822.69
-1830.81
-1838.73
-1846.45
-1853.97
-1861.3
-1868.44
-1875.4
-1882.19
-1888.81
-1895.26
-1901.56
-1907.7
-1913.7
-1919.57
-1925.29
-1930.9
-1936.38
-1941.74
-1947
-1952.16
-1957.23
-1962.2
-1967.09
-1971.9
-1976.64
-1981.32
-1985.93
-1990.49
-1995.01
-1999.47
-2003.9
-2008.3
-2012.66
-2017
-2021.32
-2025.62
-2029.91
-2034.19
-2038.46
-2042.73
-2046.99
-2051.26
-2055.53
-2059.81
-2064.09
-2068.37
-2072.66
-2076.96
-2081.28
-2085.61
-2089.95
-2094.3
-2098.65
-2103.01
-2107.37
-2111.74
-2116.1
-2120.46
-2124.82
-2129.17
-2133.51
-2137.83
-2142.14
-2146.43
-2150.7
-2154.95
-2159.16
-2163.35
-2167.5
-2171.62
-2175.69
-2179.72
-2183.7
-2187.64
-2191.52
-2195.35
-2199.12
-2202.83
-2206.47
-2210.05
-2213.57
-2217.01
-2220.37
-2223.67
-2226.88
-2230.01
-2233.05
-2236.01
-2238.87
-2241.64
-2244.32
-2246.89
-2249.36
-2251.72
-2253.97
-2256.1
-2258.11
-2259.99
-2261.75
-2263.36
-2264.84
-2266.18
-2267.37
-2268.41
-2269.3
-2270.01
-2270.51
-2270.77
-2270.75
7541.38
7540.7
7539.4
7537.4
7534.77
7531.47
7527.52
7522.94
7517.71
7511.86
7505.39
7498.31
7490.63
7482.37
7473.52
7464.1
7454.13
7443.61
7432.56
7420.99
7408.92
7396.35
7383.31
7369.8
7355.84
7341.46
7326.65
7311.45
7295.87
7279.93
7263.63
7246.99
7230.02
7212.73
7195.13
7177.24
7159.1
7140.73
7122.18
7103.49
7084.7
7065.79
7046.76
7027.56
7008.18
6988.6
6968.85
6949.01
6928.26
6908.13
6887.83
6867.45
6847.05
6827.9
6807.86
6787.95
6768.07
6748.19
6728.32
6708.44
6688.56
6668.69
6648.81
6628.94
6609.08
6589.23
6569.41
6549.59
6529.8
6510.03
6490.27
6470.52
6450.78
6431.04
6411.29
6391.53
6371.75
6351.94
6332.09
6312.18
6292.21
6272.15
6252.01
6231.76
6211.39
6190.89
6170.23
6149.41
6128.41
6107.22
6085.81
6064.15
6042.22
6019.98
5997.42
5974.54
5951.34
5927.85
5904.03
5879.86
5855.3
5830.27
5804.72
5778.6
5751.9
5724.58
5696.65
5668.09
5638.9
5609.06
5578.57
5547.42
5515.58
5483.04
5449.79
5415.8
5381.07
5345.58
5309.31
5272.25
5234.38
5195.68
5156.15
5115.77
5074.53
5032.41
4989.41
4945.52
4900.72
4855.01
4808.39
4760.85
4712.38
4662.98
4612.65
4561.38
4509.19
4456.06
4402.01
4347.03
4291.13
4234.33
4176.62
4118.01
4058.52
3998.16
3936.95
3874.89
3812.02
3748.36
3683.92
3618.75
3552.86
3486.3
3419.09
3351.26
3282.85
3213.88
3144.38
3074.4
3003.95
2933.07
2861.81
2790.2
2718.29
2646.11
2573.71
2501.15
2428.47
2355.73
2282.97
2210.25
2137.61
2065.1
1992.78
1920.69
1848.89
1777.42
1706.33
1635.68
1565.49
1495.83
1426.74
1358.26
1290.43
1223.3
1156.92
1091.34
1026.62
962.82
899.992
838.178
777.41
717.714
659.116
601.631
545.22
490.266
436.449
383.857
332.533
282.515
233.829
186.495
140.53
95.9493
52.7663
10.9919
-29.3649
-68.2973
-105.801
-141.872
-176.512
-209.721
-241.505
-271.868
-300.819
-328.368
-354.528
-379.314
-402.741
-424.828
-445.596
-465.067
-483.264
-500.214
-515.943
-530.482
-543.86
-556.109
-567.262
-577.353
-586.418
-594.492
-601.613
-607.818
-613.145
-617.637
-621.332
-624.275
-626.507
-628.073
-629.016
-629.379
-629.204
-628.532
-627.402
-625.853
-623.919
-621.638
-619.045
-616.175
-613.064
-609.749
-606.265
-602.645
-598.924
-595.133
-591.303
-587.464
-583.644
-579.87
-576.169
-572.567
-569.086
-565.751
-562.583
-559.603
-556.831
-554.285
-551.981
-549.937
-548.167
-546.686
-545.505
-544.637
-544.091
-543.879
-544.007
-544.485
-545.317
-546.511
-548.07
-549.998
-552.298
-554.973
-558.025
-561.452
-565.257
-569.437
-573.992
-578.919
-584.217
-589.883
-595.912
-602.302
-609.047
-616.144
-623.587
-631.371
-639.49
-647.94
-656.713
-665.803
-675.205
-684.912
-694.916
-705.212
-715.793
-726.652
-737.782
-749.176
-760.827
-772.729
-784.874
-797.255
-809.865
-822.698
-835.747
-849.003
-862.461
-876.113
-889.952
-903.971
-918.163
-932.52
-947.036
-961.702
-976.511
-991.455
-1006.53
-1021.72
-1037.02
-1052.43
-1067.94
-1083.53
-1099.2
-1114.94
-1130.74
-1146.59
-1162.49
-1178.43
-1194.38
-1210.36
-1226.34
-1242.32
-1258.29
-1274.24
-1290.15
-1306.02
-1321.84
-1337.59
-1353.27
-1368.87
-1384.38
-1399.78
-1415.08
-1430.25
-1445.3
-1460.21
-1474.97
-1489.58
-1504.02
-1518.3
-1532.4
-1546.32
-1560.04
-1573.57
-1586.89
-1600.01
-1612.92
-1625.6
-1638.07
-1650.31
-1662.32
-1674.11
-1685.66
-1696.98
-1708.06
-1718.9
-1729.51
-1739.89
-1750.03
-1759.93
-1769.6
-1779.04
-1788.26
-1797.25
-1806.01
-1814.56
-1822.89
-1831.02
-1838.93
-1846.64
-1854.16
-1861.49
-1868.62
-1875.58
-1882.36
-1888.98
-1895.43
-1901.72
-1907.86
-1913.85
-1919.71
-1925.43
-1931.03
-1936.5
-1941.87
-1947.12
-1952.27
-1957.33
-1962.3
-1967.18
-1971.99
-1976.73
-1981.4
-1986.01
-1990.56
-1995.07
-1999.53
-2003.96
-2008.35
-2012.71
-2017.04
-2021.36
-2025.65
-2029.94
-2034.21
-2038.48
-2042.75
-2047.01
-2051.28
-2055.55
-2059.83
-2064.11
-2068.41
-2072.72
-2077.04
-2081.36
-2085.69
-2090.03
-2094.38
-2098.73
-2103.09
-2107.45
-2111.82
-2116.18
-2120.54
-2124.9
-2129.25
-2133.59
-2137.92
-2142.23
-2146.53
-2150.8
-2155.04
-2159.26
-2163.45
-2167.6
-2171.72
-2175.8
-2179.83
-2183.81
-2187.75
-2191.64
-2195.47
-2199.24
-2202.95
-2206.6
-2210.18
-2213.69
-2217.14
-2220.51
-2223.8
-2227.01
-2230.14
-2233.19
-2236.15
-2239.02
-2241.79
-2244.47
-2247.04
-2249.51
-2251.88
-2254.13
-2256.26
-2258.27
-2260.16
-2261.92
-2263.54
-2265.02
-2266.36
-2267.56
-2268.6
-2269.49
-2270.22
-2270.73
-2271
-2270.93
7542.12
7541.42
7540.17
7538.13
7535.5
7532.19
7528.24
7523.65
7518.43
7512.56
7506.09
7499.01
7491.33
7483.05
7474.2
7464.78
7454.8
7444.28
7433.22
7421.64
7409.56
7396.99
7383.93
7370.42
7356.45
7342.06
7327.24
7312.03
7296.43
7280.47
7264.16
7247.51
7230.53
7213.25
7195.67
7177.8
7159.67
7141.3
7122.71
7103.97
7085.08
7066.01
7046.83
7027.51
7008.06
6988.47
6968.76
6948.91
6928.72
6908.64
6888.54
6868.46
6848.46
6828.79
6808.77
6788.71
6768.66
6748.63
6728.64
6708.66
6688.71
6668.77
6648.86
6628.96
6609.09
6589.24
6569.41
6549.61
6529.82
6510.06
6490.31
6470.58
6450.85
6431.13
6411.39
6391.65
6371.88
6352.08
6332.23
6312.34
6292.37
6272.33
6252.19
6231.95
6211.59
6191.09
6170.45
6149.63
6128.64
6107.43
6086.01
6064.34
6042.41
6020.19
5997.68
5974.84
5951.68
5928.18
5904.31
5880.07
5855.4
5830.28
5804.66
5778.52
5751.82
5724.54
5696.66
5668.17
5639.05
5609.28
5578.85
5547.75
5515.96
5483.46
5450.25
5416.3
5381.6
5346.14
5309.9
5272.86
5235.01
5196.33
5156.82
5116.45
5075.22
5033.12
4990.13
4946.24
4901.45
4855.75
4809.13
4761.59
4713.12
4663.72
4613.38
4562.11
4509.91
4456.77
4402.71
4347.72
4291.81
4234.99
4177.26
4118.64
4059.12
3998.73
3937.48
3875.4
3812.49
3748.79
3684.32
3619.12
3553.21
3486.62
3419.38
3351.52
3283.07
3214.06
3144.52
3074.48
3003.98
2933.06
2861.74
2790.08
2718.11
2645.89
2573.44
2500.84
2428.11
2355.32
2282.52
2209.75
2137.06
2064.51
1992.15
1920.02
1848.18
1776.67
1705.55
1634.86
1564.65
1494.97
1425.87
1357.39
1289.58
1222.48
1156.13
1090.57
1025.85
962.002
899.089
837.158
776.258
716.432
657.73
600.206
543.987
488.699
434.749
382.095
330.732
280.682
231.967
184.605
138.615
94.0119
50.8091
9.01754
-31.3536
-70.2976
-107.81
-143.887
-178.529
-211.739
-243.519
-273.876
-302.818
-330.356
-356.502
-381.27
-404.677
-426.742
-447.484
-466.927
-485.094
-502.011
-517.705
-532.207
-545.546
-557.754
-568.866
-578.916
-587.939
-595.971
-603.05
-609.214
-614.502
-618.954
-622.61
-625.513
-627.704
-629.227
-630.124
-630.437
-630.208
-629.478
-628.287
-626.673
-624.676
-622.332
-619.678
-616.75
-613.585
-610.219
-606.685
-603.019
-599.252
-595.418
-591.546
-587.667
-583.809
-579.998
-576.263
-572.627
-569.116
-565.751
-562.555
-559.549
-556.752
-554.183
-551.858
-549.794
-548.005
-546.507
-545.31
-544.428
-543.87
-543.647
-543.765
-544.234
-545.059
-546.247
-547.8
-549.725
-552.023
-554.696
-557.747
-561.174
-564.98
-569.162
-573.719
-578.65
-583.953
-589.623
-595.657
-602.052
-608.804
-615.907
-623.357
-631.148
-639.275
-647.732
-656.512
-665.611
-675.02
-684.735
-694.748
-705.052
-715.641
-726.507
-737.645
-749.047
-760.706
-772.615
-784.767
-797.156
-809.773
-822.614
-835.669
-848.933
-862.398
-876.057
-889.903
-903.93
-918.129
-932.494
-947.017
-961.69
-976.507
-991.46
-1006.54
-1021.74
-1037.06
-1052.47
-1067.99
-1083.59
-1099.27
-1115.02
-1130.83
-1146.7
-1162.61
-1178.55
-1194.52
-1210.51
-1226.5
-1242.49
-1258.47
-1274.43
-1290.35
-1306.23
-1322.06
-1337.82
-1353.52
-1369.13
-1384.64
-1400.06
-1415.37
-1430.55
-1445.61
-1460.53
-1475.3
-1489.92
-1504.38
-1518.66
-1532.77
-1546.69
-1560.43
-1573.96
-1587.29
-1600.42
-1613.33
-1626.02
-1638.49
-1650.74
-1662.75
-1674.54
-1686.09
-1697.41
-1708.49
-1719.34
-1729.95
-1740.32
-1750.46
-1760.36
-1770.03
-1779.47
-1788.68
-1797.66
-1806.42
-1814.96
-1823.29
-1831.4
-1839.31
-1847.02
-1854.53
-1861.84
-1868.97
-1875.92
-1882.69
-1889.3
-1895.73
-1902.02
-1908.15
-1914.13
-1919.97
-1925.69
-1931.27
-1936.74
-1942.09
-1947.33
-1952.47
-1957.52
-1962.47
-1967.35
-1972.14
-1976.87
-1981.53
-1986.13
-1990.67
-1995.17
-1999.62
-2004.04
-2008.42
-2012.77
-2017.1
-2021.4
-2025.69
-2029.97
-2034.24
-2038.5
-2042.76
-2047.02
-2051.29
-2055.55
-2059.83
-2064.11
-2068.4
-2072.7
-2077.01
-2081.34
-2085.67
-2090.01
-2094.36
-2098.72
-2103.09
-2107.46
-2111.83
-2116.2
-2120.57
-2124.94
-2129.3
-2133.65
-2137.98
-2142.31
-2146.61
-2150.89
-2155.15
-2159.38
-2163.58
-2167.75
-2171.87
-2175.96
-2180.01
-2184
-2187.95
-2191.85
-2195.69
-2199.47
-2203.2
-2206.86
-2210.45
-2213.98
-2217.43
-2220.81
-2224.12
-2227.34
-2230.48
-2233.54
-2236.51
-2239.39
-2242.17
-2244.86
-2247.45
-2249.93
-2252.3
-2254.56
-2256.7
-2258.73
-2260.62
-2262.39
-2264.02
-2265.51
-2266.85
-2268.05
-2269.1
-2270
-2270.73
-2271.25
-2271.53
-2271.46
7543.31
7542.64
7541.35
7539.33
7536.7
7533.36
7529.41
7524.81
7519.58
7513.69
7507.22
7500.13
7492.43
7484.15
7475.28
7465.85
7455.85
7445.31
7434.24
7422.65
7410.55
7397.96
7384.88
7371.35
7357.36
7342.94
7328.1
7312.87
7297.24
7281.25
7264.91
7248.23
7231.24
7213.93
7196.34
7178.46
7160.33
7141.97
7123.42
7104.66
7085.75
7066.58
7047.3
7027.88
7008.35
6988.69
6968.9
6948.99
6928.91
6908.82
6888.7
6868.6
6848.48
6828.6
6808.68
6788.71
6768.72
6748.71
6728.71
6708.71
6688.73
6668.77
6648.83
6628.92
6609.03
6589.17
6569.34
6549.53
6529.75
6509.99
6490.25
6470.52
6450.8
6431.09
6411.36
6391.63
6371.87
6352.09
6332.26
6312.38
6292.43
6272.4
6252.28
6232.06
6211.72
6191.24
6170.61
6149.82
6128.84
6107.65
6086.24
6064.59
6042.67
6020.47
5997.98
5975.17
5952.03
5928.53
5904.67
5880.4
5855.71
5830.57
5804.94
5778.79
5752.1
5724.84
5697
5668.54
5639.46
5609.74
5579.35
5548.3
5516.55
5484.1
5450.93
5417.02
5382.35
5346.93
5310.72
5273.71
5235.89
5197.24
5157.75
5117.42
5076.21
5034.13
4991.16
4947.29
4902.52
4856.84
4810.24
4762.71
4714.25
4664.86
4614.53
4563.27
4511.07
4457.93
4403.87
4348.88
4292.96
4236.13
4178.39
4119.74
4060.21
3999.8
3938.53
3876.43
3813.5
3749.78
3685.29
3620.06
3554.12
3487.5
3420.22
3352.31
3283.8
3214.73
3145.12
3075.02
3004.45
2933.45
2862.06
2790.33
2718.28
2645.98
2573.46
2500.78
2427.97
2355.1
2282.21
2209.34
2136.56
2063.91
1991.44
1919.2
1847.25
1775.62
1704.38
1633.57
1563.23
1493.42
1424.19
1355.58
1287.64
1220.42
1153.96
1088.32
1023.53
959.647
896.716
834.777
773.869
714.029
655.297
597.713
541.314
486.099
432.115
379.405
327.991
277.894
229.135
181.734
135.708
91.0722
47.841
6.02509
-34.3663
-73.3263
-110.85
-146.935
-181.58
-214.788
-246.563
-276.909
-305.837
-333.356
-359.478
-384.218
-407.594
-429.622
-450.325
-469.724
-487.843
-504.709
-520.349
-534.793
-548.07
-560.215
-571.259
-581.238
-590.189
-598.147
-605.151
-611.24
-616.454
-620.831
-624.414
-627.243
-629.361
-630.811
-631.633
-631.872
-631.568
-630.763
-629.498
-627.812
-625.742
-623.326
-620.601
-617.604
-614.37
-610.934
-607.333
-603.599
-599.768
-595.87
-591.936
-587.998
-584.082
-580.218
-576.431
-572.746
-569.187
-565.778
-562.541
-559.495
-556.661
-554.056
-551.699
-549.604
-547.788
-546.263
-545.043
-544.139
-543.562
-543.32
-543.424
-543.879
-544.692
-545.869
-547.415
-549.333
-551.626
-554.296
-557.344
-560.771
-564.577
-568.762
-573.322
-578.257
-583.565
-589.241
-595.282
-601.685
-608.445
-615.557
-623.016
-630.818
-638.955
-647.422
-656.214
-665.323
-674.744
-684.47
-694.493
-704.809
-715.409
-726.287
-737.435
-748.848
-760.518
-772.437
-784.6
-796.999
-809.627
-822.478
-835.543
-848.817
-862.292
-875.962
-889.818
-903.855
-918.064
-932.44
-946.973
-961.658
-976.486
-991.451
-1006.54
-1021.76
-1037.08
-1052.51
-1068.04
-1083.66
-1099.35
-1115.12
-1130.94
-1146.82
-1162.75
-1178.71
-1194.7
-1210.7
-1226.71
-1242.72
-1258.72
-1274.69
-1290.63
-1306.53
-1322.38
-1338.16
-1353.87
-1369.5
-1385.04
-1400.47
-1415.79
-1431
-1446.07
-1461.01
-1475.8
-1490.43
-1504.9
-1519.2
-1533.32
-1547.26
-1561
-1574.55
-1587.89
-1601.03
-1613.94
-1626.65
-1639.12
-1651.37
-1663.4
-1675.19
-1686.74
-1698.06
-1709.15
-1719.99
-1730.6
-1740.97
-1751.11
-1761
-1770.67
-1780.1
-1789.3
-1798.28
-1807.03
-1815.57
-1823.88
-1831.99
-1839.88
-1847.58
-1855.07
-1862.38
-1869.49
-1876.42
-1883.18
-1889.77
-1896.19
-1902.46
-1908.57
-1914.54
-1920.37
-1926.06
-1931.63
-1937.08
-1942.41
-1947.64
-1952.76
-1957.79
-1962.73
-1967.59
-1972.37
-1977.07
-1981.72
-1986.3
-1990.83
-1995.31
-1999.75
-2004.15
-2008.51
-2012.85
-2017.17
-2021.46
-2025.74
-2030.01
-2034.26
-2038.52
-2042.77
-2047.02
-2051.28
-2055.54
-2059.81
-2064.09
-2068.38
-2072.68
-2077
-2081.32
-2085.66
-2090
-2094.36
-2098.72
-2103.09
-2107.47
-2111.85
-2116.23
-2120.61
-2124.99
-2129.36
-2133.72
-2138.07
-2142.41
-2146.73
-2151.03
-2155.3
-2159.55
-2163.76
-2167.95
-2172.09
-2176.2
-2180.26
-2184.27
-2188.24
-2192.16
-2196.02
-2199.82
-2203.56
-2207.24
-2210.85
-2214.39
-2217.87
-2221.27
-2224.59
-2227.83
-2230.99
-2234.07
-2237.05
-2239.95
-2242.75
-2245.45
-2248.06
-2250.55
-2252.94
-2255.22
-2257.38
-2259.42
-2261.33
-2263.1
-2264.75
-2266.25
-2267.61
-2268.82
-2269.88
-2270.79
-2271.53
-2272.04
-2272.31
-2272.25
7544.96
7544.3
7542.99
7540.97
7538.32
7534.99
7531.02
7526.41
7521.16
7515.27
7508.77
7501.66
7493.95
7485.64
7476.75
7467.29
7457.27
7446.71
7435.61
7423.99
7411.86
7399.23
7386.13
7372.56
7358.53
7344.08
7329.2
7313.93
7298.27
7282.24
7265.86
7249.14
7232.11
7214.77
7197.13
7179.22
7161.05
7142.64
7124.01
7105.17
7086.12
7067
7047.7
7028.26
7008.7
6989.01
6969.22
6949.31
6929.3
6909.24
6889.15
6869.07
6849.03
6828.97
6808.88
6788.8
6768.74
6748.69
6728.65
6708.62
6688.62
6668.64
6648.69
6628.77
6608.87
6589
6569.17
6549.36
6529.58
6509.82
6490.08
6470.36
6450.65
6430.95
6411.24
6391.52
6371.78
6352.01
6332.2
6312.34
6292.42
6272.41
6252.32
6232.12
6211.81
6191.36
6170.75
6149.99
6129.03
6107.87
6086.49
6064.87
6042.98
6020.81
5998.35
5975.56
5952.44
5928.96
5905.11
5880.85
5856.17
5831.03
5805.4
5779.27
5752.6
5725.36
5697.54
5669.12
5640.08
5610.39
5580.05
5549.04
5517.34
5484.93
5451.81
5417.94
5383.32
5347.93
5311.76
5274.79
5237.01
5198.4
5158.94
5118.64
5077.46
5035.41
4992.47
4948.63
4903.89
4858.22
4811.64
4764.13
4715.69
4666.31
4616
4564.74
4512.55
4459.42
4405.36
4350.36
4294.43
4237.59
4179.83
4121.18
4061.63
4001.2
3939.91
3877.79
3814.84
3751.09
3686.58
3621.31
3555.33
3488.65
3421.31
3353.33
3284.75
3215.6
3145.91
3075.71
3005.04
2933.95
2862.46
2790.62
2718.47
2646.07
2573.44
2500.65
2427.73
2354.75
2281.75
2208.77
2135.87
2063.11
1990.52
1918.17
1846.09
1774.35
1703
1632.07
1561.62
1491.71
1422.37
1353.66
1285.61
1218.28
1151.71
1085.95
1021.04
957.033
893.974
831.91
770.884
710.937
652.107
594.428
537.932
482.642
428.59
375.811
324.329
274.169
225.351
177.896
131.82
87.141
43.8709
2.02158
-38.3978
-77.38
-114.92
-151.016
-185.667
-218.874
-250.641
-280.976
-309.885
-337.379
-363.472
-388.176
-411.51
-433.492
-454.143
-473.485
-491.542
-508.341
-523.909
-538.277
-551.476
-563.537
-574.495
-584.386
-593.244
-601.109
-608.017
-614.007
-619.121
-623.397
-626.877
-629.603
-631.618
-632.962
-633.68
-633.812
-633.402
-632.489
-631.116
-629.321
-627.145
-624.624
-621.796
-618.699
-615.369
-611.841
-608.15
-604.33
-600.415
-596.436
-592.425
-588.41
-584.422
-580.488
-576.633
-572.884
-569.264
-565.797
-562.505
-559.407
-556.524
-553.873
-551.473
-549.339
-547.486
-545.927
-544.676
-543.744
-543.141
-542.877
-542.961
-543.398
-544.196
-545.361
-546.897
-548.806
-551.093
-553.759
-556.805
-560.232
-564.04
-568.227
-572.792
-577.733
-583.048
-588.732
-594.783
-601.196
-607.967
-615.091
-622.563
-630.377
-638.527
-647.009
-655.815
-664.938
-674.374
-684.114
-694.153
-704.483
-715.098
-725.99
-737.153
-748.581
-760.264
-772.198
-784.375
-796.788
-809.43
-822.294
-835.373
-848.66
-862.149
-875.832
-889.702
-903.753
-917.977
-932.366
-946.914
-961.614
-976.457
-991.437
-1006.55
-1021.78
-1037.12
-1052.57
-1068.11
-1083.75
-1099.46
-1115.24
-1131.09
-1146.99
-1162.94
-1178.92
-1194.93
-1210.96
-1226.99
-1243.03
-1259.05
-1275.04
-1291.01
-1306.93
-1322.8
-1338.61
-1354.35
-1370
-1385.56
-1401.02
-1416.36
-1431.59
-1446.69
-1461.64
-1476.45
-1491.11
-1505.6
-1519.92
-1534.06
-1548.01
-1561.77
-1575.34
-1588.69
-1601.84
-1614.77
-1627.48
-1639.97
-1652.23
-1664.26
-1676.05
-1687.61
-1698.94
-1710.02
-1720.87
-1731.48
-1741.84
-1751.97
-1761.87
-1771.53
-1780.95
-1790.15
-1799.11
-1807.85
-1816.37
-1824.68
-1832.77
-1840.65
-1848.32
-1855.8
-1863.09
-1870.18
-1877.1
-1883.84
-1890.4
-1896.81
-1903.05
-1909.14
-1915.09
-1920.89
-1926.57
-1932.11
-1937.54
-1942.85
-1948.05
-1953.15
-1958.16
-1963.07
-1967.91
-1972.66
-1977.35
-1981.97
-1986.53
-1991.04
-1995.5
-1999.92
-2004.3
-2008.64
-2012.96
-2017.26
-2021.54
-2025.8
-2030.05
-2034.3
-2038.54
-2042.78
-2047.03
-2051.27
-2055.53
-2059.79
-2064.07
-2068.35
-2072.65
-2076.96
-2081.29
-2085.63
-2089.98
-2094.34
-2098.71
-2103.09
-2107.48
-2111.87
-2116.26
-2120.66
-2125.05
-2129.44
-2133.82
-2138.19
-2142.54
-2146.88
-2151.2
-2155.5
-2159.76
-2164
-2168.21
-2172.38
-2176.51
-2180.59
-2184.63
-2188.62
-2192.56
-2196.45
-2200.27
-2204.04
-2207.74
-2211.38
-2214.94
-2218.44
-2221.86
-2225.21
-2228.47
-2231.66
-2234.76
-2237.77
-2240.68
-2243.51
-2246.23
-2248.86
-2251.38
-2253.79
-2256.09
-2258.27
-2260.32
-2262.25
-2264.05
-2265.71
-2267.23
-2268.6
-2269.83
-2270.91
-2271.83
-2272.57
-2273.09
-2273.36
-2273.3
7547.07
7546.42
7545.1
7543.07
7540.4
7537.06
7533.08
7528.45
7523.18
7517.27
7510.75
7503.61
7495.87
7487.53
7478.61
7469.12
7459.06
7448.46
7437.32
7425.66
7413.48
7400.81
7387.66
7374.05
7359.98
7345.48
7330.55
7315.23
7299.52
7283.44
7267.01
7250.24
7233.15
7215.76
7198.08
7180.12
7161.91
7143.46
7124.79
7105.92
7086.86
7067.66
7048.3
7028.79
7009.16
6989.42
6969.56
6949.61
6929.57
6909.47
6889.33
6869.17
6849.08
6829.01
6808.93
6788.83
6768.74
6748.65
6728.57
6708.52
6688.49
6668.49
6648.52
6628.58
6608.67
6588.79
6568.95
6549.14
6529.36
6509.6
6489.87
6470.16
6450.46
6430.77
6411.07
6391.37
6371.65
6351.91
6332.12
6312.28
6292.38
6272.41
6252.35
6232.18
6211.9
6191.48
6170.91
6150.18
6129.26
6108.13
6086.79
6065.2
6043.35
6021.22
5998.79
5976.03
5952.94
5929.49
5905.66
5881.42
5856.76
5831.64
5806.03
5779.92
5753.28
5726.08
5698.3
5669.92
5640.92
5611.28
5580.99
5550.03
5518.38
5486.03
5452.95
5419.13
5384.56
5349.22
5313.1
5276.17
5238.43
5199.86
5160.45
5120.18
5079.04
5037.02
4994.11
4950.31
4905.59
4859.96
4813.4
4765.91
4717.49
4668.13
4617.83
4566.59
4514.4
4461.27
4407.2
4352.2
4296.27
4239.41
4181.64
4122.96
4063.39
4002.94
3941.63
3879.47
3816.48
3752.7
3688.14
3622.82
3556.77
3490.02
3422.6
3354.54
3285.87
3216.62
3146.82
3076.51
3005.73
2934.52
2862.91
2790.95
2718.67
2646.14
2573.38
2500.45
2427.4
2354.27
2281.12
2207.99
2134.95
2062.02
1989.28
1916.77
1844.53
1772.63
1701.1
1630.01
1559.4
1489.32
1419.82
1350.95
1282.76
1215.28
1148.58
1082.7
1017.67
953.56
890.399
828.232
767.101
707.046
648.108
590.322
533.72
478.331
424.187
371.319
319.753
269.513
220.622
173.099
126.962
82.2279
38.9093
-2.9819
-43.4362
-82.4464
-120.007
-156.117
-190.773
-223.979
-255.739
-286.057
-314.943
-342.407
-368.461
-393.121
-416.403
-438.327
-458.912
-478.182
-496.161
-512.875
-528.354
-542.627
-555.724
-567.68
-578.528
-588.304
-597.044
-604.787
-611.572
-617.437
-622.424
-626.573
-629.925
-632.523
-634.408
-635.623
-636.21
-636.213
-635.673
-634.631
-633.129
-631.206
-628.903
-626.256
-623.305
-620.087
-616.637
-612.992
-609.187
-605.256
-601.233
-597.15
-593.038
-588.927
-584.846
-580.823
-576.883
-573.053
-569.357
-565.817
-562.455
-559.292
-556.348
-553.64
-551.186
-549.003
-547.104
-545.503
-544.213
-543.246
-542.612
-542.319
-542.378
-542.794
-543.573
-544.722
-546.245
-548.145
-550.424
-553.086
-556.129
-559.556
-563.366
-567.557
-572.128
-577.076
-582.4
-588.095
-594.157
-600.584
-607.369
-614.508
-621.996
-629.826
-637.994
-646.493
-655.317
-664.459
-673.913
-683.672
-693.73
-704.079
-714.712
-725.623
-736.804
-748.25
-759.951
-771.903
-784.098
-796.528
-809.187
-822.068
-835.164
-848.469
-861.975
-875.675
-889.562
-903.63
-917.871
-932.278
-946.845
-961.563
-976.426
-991.425
-1006.55
-1021.8
-1037.17
-1052.64
-1068.21
-1083.86
-1099.6
-1115.41
-1131.28
-1147.21
-1163.18
-1179.19
-1195.23
-1211.29
-1227.35
-1243.41
-1259.46
-1275.49
-1291.48
-1307.43
-1323.34
-1339.17
-1354.94
-1370.62
-1386.21
-1401.7
-1417.08
-1432.33
-1447.46
-1462.44
-1477.28
-1491.96
-1506.47
-1520.82
-1534.98
-1548.96
-1562.74
-1576.32
-1589.7
-1602.86
-1615.8
-1628.53
-1641.03
-1653.3
-1665.34
-1677.14
-1688.71
-1700.03
-1711.12
-1721.97
-1732.57
-1742.94
-1753.06
-1762.95
-1772.6
-1782.02
-1791.2
-1800.15
-1808.88
-1817.38
-1825.67
-1833.74
-1841.6
-1849.26
-1856.72
-1863.98
-1871.05
-1877.94
-1884.66
-1891.2
-1897.58
-1903.79
-1909.86
-1915.77
-1921.55
-1927.2
-1932.71
-1938.11
-1943.39
-1948.56
-1953.64
-1958.61
-1963.5
-1968.31
-1973.04
-1977.69
-1982.29
-1986.82
-1991.3
-1995.74
-2000.13
-2004.49
-2008.81
-2013.11
-2017.38
-2021.64
-2025.88
-2030.12
-2034.34
-2038.57
-2042.8
-2047.03
-2051.27
-2055.51
-2059.77
-2064.04
-2068.32
-2072.62
-2076.93
-2081.26
-2085.6
-2089.96
-2094.32
-2098.71
-2103.1
-2107.5
-2111.9
-2116.31
-2120.73
-2125.14
-2129.55
-2133.95
-2138.34
-2142.72
-2147.08
-2151.43
-2155.75
-2160.05
-2164.31
-2168.55
-2172.74
-2176.9
-2181.02
-2185.09
-2189.11
-2193.08
-2196.99
-2200.85
-2204.64
-2208.38
-2212.04
-2215.64
-2219.16
-2222.62
-2225.99
-2229.28
-2232.5
-2235.62
-2238.66
-2241.61
-2244.46
-2247.21
-2249.86
-2252.41
-2254.85
-2257.17
-2259.37
-2261.45
-2263.41
-2265.23
-2266.91
-2268.45
-2269.84
-2271.09
-2272.18
-2273.12
-2273.87
-2274.4
-2274.67
-2274.61
7549.64
7548.98
7547.64
7545.61
7542.92
7539.58
7535.57
7530.92
7525.63
7519.7
7513.14
7505.97
7498.19
7489.81
7480.85
7471.31
7461.21
7450.56
7439.37
7427.66
7415.43
7402.71
7389.5
7375.83
7361.7
7347.14
7332.16
7316.77
7301
7284.86
7268.37
7251.54
7234.38
7216.93
7199.19
7181.17
7162.9
7144.39
7125.66
7106.73
7087.62
7068.36
7048.93
7029.38
7009.69
6989.9
6970
6950.02
6929.96
6909.84
6889.69
6869.52
6849.34
6829.18
6809.02
6788.87
6768.73
6748.6
6728.49
6708.41
6688.35
6668.32
6648.32
6628.36
6608.44
6588.55
6568.7
6548.89
6529.1
6509.35
6489.63
6469.92
6450.23
6430.56
6410.88
6391.2
6371.5
6351.78
6332.02
6312.21
6292.35
6272.41
6252.38
6232.25
6212.01
6191.63
6171.1
6150.41
6129.53
6108.45
6087.15
6065.6
6043.8
6021.71
5999.32
5976.61
5953.56
5930.15
5906.35
5882.15
5857.51
5832.42
5806.85
5780.77
5754.17
5727.01
5699.28
5670.95
5642
5612.42
5582.19
5551.28
5519.69
5487.39
5454.37
5420.61
5386.09
5350.8
5314.73
5277.85
5240.16
5201.64
5162.27
5122.04
5080.95
5038.97
4996.1
4952.32
4907.64
4862.04
4815.51
4768.04
4719.64
4670.3
4620.01
4568.78
4516.6
4463.47
4409.4
4354.39
4298.45
4241.57
4183.78
4125.08
4065.48
4004.99
3943.64
3881.44
3818.41
3754.57
3689.95
3624.56
3558.44
3491.61
3424.1
3355.93
3287.15
3217.79
3147.87
3077.44
3006.52
2935.17
2863.42
2791.32
2718.9
2646.21
2573.3
2500.21
2427
2353.71
2280.39
2207.1
2133.88
2060.79
1987.87
1915.17
1842.76
1770.68
1698.98
1627.71
1556.92
1486.66
1416.98
1347.93
1279.56
1211.91
1145.03
1078.98
1013.78
949.501
886.177
823.856
762.577
702.381
643.306
585.387
528.657
473.148
418.891
365.914
314.246
263.91
214.93
167.325
121.113
76.3121
32.9345
-9.00751
-49.5043
-88.5486
-126.135
-162.261
-196.926
-230.131
-261.88
-292.18
-321.039
-348.466
-374.476
-399.082
-422.302
-444.155
-464.662
-483.845
-501.731
-518.344
-533.715
-547.873
-560.85
-572.68
-583.396
-593.035
-601.635
-609.233
-615.869
-621.582
-626.414
-630.405
-633.598
-636.036
-637.759
-638.812
-639.238
-639.079
-638.377
-637.174
-635.512
-633.432
-630.972
-628.173
-625.073
-621.708
-618.117
-614.334
-610.395
-606.335
-602.186
-597.981
-593.752
-589.527
-585.337
-581.208
-577.168
-573.242
-569.454
-565.827
-562.383
-559.142
-556.125
-553.349
-550.832
-548.589
-546.635
-544.984
-543.648
-542.64
-541.968
-541.643
-541.671
-542.062
-542.82
-543.951
-545.459
-547.347
-549.619
-552.274
-555.316
-558.743
-562.555
-566.752
-571.33
-576.288
-581.623
-587.331
-593.408
-599.85
-606.653
-613.81
-621.317
-629.168
-637.357
-645.877
-654.723
-663.887
-673.364
-683.145
-693.225
-703.596
-714.252
-725.185
-736.389
-747.856
-759.579
-771.552
-783.767
-796.218
-808.898
-821.8
-834.916
-848.241
-861.767
-875.487
-889.395
-903.484
-917.746
-932.174
-946.762
-961.502
-976.387
-991.41
-1006.56
-1021.84
-1037.23
-1052.72
-1068.32
-1084
-1099.77
-1115.6
-1131.51
-1147.47
-1163.47
-1179.51
-1195.58
-1211.67
-1227.77
-1243.87
-1259.95
-1276.01
-1292.04
-1308.03
-1323.97
-1339.85
-1355.65
-1371.37
-1387
-1402.52
-1417.93
-1433.22
-1448.38
-1463.4
-1478.27
-1492.98
-1507.53
-1521.9
-1536.09
-1550.09
-1563.9
-1577.5
-1590.9
-1604.08
-1617.05
-1629.79
-1642.3
-1654.59
-1666.63
-1678.45
-1690.02
-1701.35
-1712.44
-1723.29
-1733.89
-1744.25
-1754.37
-1764.25
-1773.89
-1783.3
-1792.46
-1801.4
-1810.11
-1818.6
-1826.87
-1834.92
-1842.75
-1850.39
-1857.82
-1865.05
-1872.1
-1878.96
-1885.64
-1892.16
-1898.5
-1904.68
-1910.72
-1916.6
-1922.34
-1927.95
-1933.44
-1938.8
-1944.05
-1949.18
-1954.22
-1959.16
-1964.02
-1968.79
-1973.48
-1978.11
-1982.67
-1987.17
-1991.62
-1996.02
-2000.39
-2004.71
-2009.01
-2013.28
-2017.52
-2021.76
-2025.98
-2030.19
-2034.4
-2038.6
-2042.81
-2047.03
-2051.26
-2055.49
-2059.74
-2064
-2068.28
-2072.58
-2076.89
-2081.22
-2085.56
-2089.93
-2094.31
-2098.7