/*--------------------------------*- C++ -*----------------------------------*\
| =========                 |                                                 |
| \\      /  F ield         | OpenFOAM: The Open Source CFD Toolbox           |
|  \\    /   O peration     | Version:  v2006                                 |
|   \\  /    A nd           | Website:  www.openfoam.com                      |
|    \\/     M anipulation  |                                                 |
\*---------------------------------------------------------------------------*/
FoamFile
{
    version     2.0;
    format      ascii;
    class       volScalarField;
    location    "6.2";
    object      p;
}
// * * * * * * * * * * * * * * * * * * * * * * * * * * * * * * * * * * * * * //

dimensions      [1 -1 -2 0 0 0 0];


internalField   nonuniform List<scalar> 
50000
(
22663.2
22663.2
22663.2
22663.3
22663.3
22663.4
22663.5
22663.6
22663.7
22663.9
22664.1
22664.3
22664.6
22664.9
22665.3
22665.7
22666.1
22666.6
22667.2
22667.9
22668.6
22669.4
22670.3
22671.3
22672.4
22673.6
22674.9
22676.3
22677.8
22679.5
22681.3
22683.3
22685.4
22687.7
22690.1
22692.7
22695.4
22698.4
22701.5
22704.8
22708.2
22711.9
22715.8
22719.8
22724.1
22728.6
22733.2
22738.1
22743.2
22748.5
22754
22759.7
22765.6
22771.8
22778.1
22784.7
22791.4
22798.4
22805.6
22812.9
22820.5
22828.2
22836.2
22844.3
22852.7
22861.2
22869.8
22878.7
22887.7
22896.9
22906.2
22915.7
22925.3
22935.1
22945
22955
22965.1
22975.4
22985.8
22996.3
23006.8
23017.5
23028.3
23039.1
23050
23061
23072
23083.1
23094.2
23105.4
23116.6
23127.8
23139.1
23150.3
23161.6
23172.8
23184.1
23195.3
23206.5
23217.7
23228.9
23240
23251
23262
23272.9
23283.8
23294.6
23305.2
23315.8
23326.3
23336.7
23346.9
23357
23367
23376.9
23386.6
23396.1
23405.5
23414.7
23423.7
23432.5
23441.1
23449.6
23457.8
23465.7
23473.5
23481
23488.3
23495.3
23502.1
23508.6
23514.8
23520.7
23526.4
23531.8
23536.8
23541.6
23546
23550.1
23553.9
23557.4
23560.5
23563.3
23565.8
23567.9
23569.6
23571
23572.1
23572.8
23573.2
22211.8
22211.8
22211.9
22211.9
22212
22212
22212.1
22212.2
22212.4
22212.5
22212.7
22212.9
22213.2
22213.5
22213.8
22214.2
22214.7
22215.2
22215.8
22216.4
22217.1
22217.9
22218.8
22219.8
22220.9
22222
22223.3
22224.8
22226.3
22228
22229.8
22231.7
22233.8
22236.1
22238.5
22241.1
22243.8
22246.7
22249.8
22253.1
22256.6
22260.2
22264.1
22268.1
22272.4
22276.9
22281.5
22286.4
22291.5
22296.8
22302.3
22308
22314
22320.1
22326.4
22333
22339.8
22346.7
22353.9
22361.3
22368.8
22376.6
22384.5
22392.7
22401
22409.5
22418.2
22427.1
22436.1
22445.3
22454.6
22464.1
22473.7
22483.5
22493.4
22503.4
22513.6
22523.9
22534.3
22544.8
22555.3
22566
22576.8
22587.6
22598.6
22609.6
22620.6
22631.7
22642.8
22654
22665.2
22676.5
22687.7
22699
22710.3
22721.6
22732.8
22744.1
22755.3
22766.5
22777.7
22788.8
22799.9
22810.9
22821.8
22832.7
22843.5
22854.2
22864.8
22875.2
22885.6
22895.9
22906
22916
22925.9
22935.6
22945.1
22954.5
22963.7
22972.7
22981.6
22990.2
22998.7
23006.9
23014.9
23022.7
23030.2
23037.5
23044.5
23051.3
23057.8
23064.1
23070
23075.7
23081.1
23086.1
23090.9
23095.3
23099.5
23103.3
23106.8
23109.9
23112.7
23115.2
23117.3
23119
23120.5
23121.5
23122.2
23122.6
21760.3
21760.3
21760.3
21760.4
21760.4
21760.5
21760.6
21760.7
21760.8
21761
21761.2
21761.4
21761.6
21761.9
21762.2
21762.6
21763.1
21763.5
21764.1
21764.7
21765.4
21766.2
21767.1
21768
21769.1
21770.3
21771.6
21773
21774.5
21776.1
21777.9
21779.8
21781.9
21784.2
21786.6
21789.1
21791.8
21794.8
21797.8
21801.1
21804.6
21808.2
21812.1
21816.1
21820.4
21824.8
21829.5
21834.4
21839.4
21844.7
21850.2
21855.9
21861.9
21868
21874.4
21880.9
21887.7
21894.6
21901.8
21909.2
21916.8
21924.5
21932.5
21940.7
21949
21957.5
21966.2
21975.1
21984.1
21993.3
22002.7
22012.2
22021.8
22031.6
22041.5
22051.6
22061.8
22072.1
22082.5
22093
22103.6
22114.3
22125.1
22136
22146.9
22157.9
22169
22180.1
22191.3
22202.5
22213.8
22225.1
22236.3
22247.6
22259
22270.3
22281.6
22292.8
22304.1
22315.3
22326.5
22337.7
22348.8
22359.8
22370.8
22381.7
22392.5
22403.2
22413.9
22424.4
22434.8
22445.1
22455.3
22465.3
22475.2
22484.9
22494.5
22503.9
22513.2
22522.2
22531.1
22539.7
22548.2
22556.5
22564.5
22572.3
22579.9
22587.2
22594.2
22601
22607.6
22613.8
22619.8
22625.5
22630.9
22636
22640.8
22645.3
22649.4
22653.2
22656.7
22659.9
22662.7
22665.2
22667.3
22669.1
22670.5
22671.6
22672.2
22672.6
21308.7
21308.7
21308.7
21308.7
21308.8
21308.8
21308.9
21309
21309.1
21309.3
21309.4
21309.6
21309.9
21310.1
21310.5
21310.8
21311.2
21311.7
21312.3
21312.9
21313.5
21314.3
21315.1
21316.1
21317.1
21318.3
21319.5
21320.9
21322.4
21324
21325.8
21327.7
21329.7
21332
21334.3
21336.9
21339.6
21342.5
21345.5
21348.8
21352.2
21355.8
21359.7
21363.7
21367.9
21372.4
21377
21381.9
21387
21392.2
21397.7
21403.4
21409.4
21415.5
21421.9
21428.4
21435.2
21442.2
21449.3
21456.7
21464.3
21472.1
21480.1
21488.2
21496.6
21505.1
21513.8
21522.7
21531.8
21541
21550.4
21559.9
21569.6
21579.4
21589.4
21599.4
21609.7
21620
21630.4
21641
21651.6
21662.4
21673.2
21684.1
21695.1
21706.2
21717.3
21728.4
21739.7
21750.9
21762.2
21773.5
21784.9
21796.2
21807.6
21818.9
21830.3
21841.6
21852.9
21864.2
21875.4
21886.6
21897.8
21908.9
21919.9
21930.8
21941.7
21952.5
21963.1
21973.7
21984.2
21994.5
22004.7
22014.8
22024.8
22034.6
22044.2
22053.6
22062.9
22072
22080.9
22089.6
22098.2
22106.5
22114.5
22122.4
22130
22137.4
22144.5
22151.3
22157.9
22164.2
22170.2
22175.9
22181.3
22186.4
22191.3
22195.7
22199.9
22203.8
22207.3
22210.4
22213.3
22215.8
22217.9
22219.7
22221.1
22222.2
22222.9
22223.3
20856.9
20856.9
20856.9
20856.9
20857
20857
20857.1
20857.2
20857.3
20857.4
20857.6
20857.7
20858
20858.2
20858.5
20858.9
20859.2
20859.7
20860.2
20860.8
20861.4
20862.2
20863
20863.9
20864.9
20866
20867.2
20868.6
20870
20871.6
20873.4
20875.2
20877.2
20879.4
20881.8
20884.3
20886.9
20889.8
20892.8
20896.1
20899.5
20903.1
20906.9
20910.9
20915.1
20919.5
20924.2
20929
20934.1
20939.4
20944.8
20950.5
20956.5
20962.6
20968.9
20975.5
20982.3
20989.3
20996.4
21003.8
21011.4
21019.2
21027.2
21035.4
21043.8
21052.3
21061.1
21070
21079.1
21088.3
21097.7
21107.3
21117
21126.9
21136.9
21147
21157.3
21167.6
21178.1
21188.7
21199.4
21210.2
21221.1
21232.1
21243.1
21254.2
21265.4
21276.6
21287.9
21299.2
21310.5
21321.9
21333.3
21344.7
21356.1
21367.5
21379
21390.4
21401.7
21413.1
21424.4
21435.6
21446.8
21458
21469.1
21480.1
21491
21501.9
21512.6
21523.3
21533.8
21544.2
21554.5
21564.6
21574.6
21584.5
21594.2
21603.7
21613.1
21622.2
21631.2
21640
21648.6
21656.9
21665.1
21673
21680.6
21688
21695.2
21702.1
21708.7
21715
21721.1
21726.8
21732.3
21737.5
21742.3
21746.8
21751
21754.9
21758.4
21761.6
21764.5
21767
21769.1
21770.9
21772.4
21773.5
21774.2
21774.6
20405
20405
20405
20405
20405
20405.1
20405.1
20405.2
20405.3
20405.4
20405.5
20405.7
20405.9
20406.1
20406.4
20406.7
20407.1
20407.5
20408
20408.5
20409.1
20409.8
20410.6
20411.5
20412.4
20413.5
20414.7
20416
20417.4
20418.9
20420.6
20422.5
20424.4
20426.6
20428.9
20431.3
20434
20436.8
20439.8
20443
20446.4
20449.9
20453.7
20457.7
20461.9
20466.3
20470.9
20475.7
20480.8
20486
20491.5
20497.2
20503.1
20509.3
20515.6
20522.2
20528.9
20535.9
20543.1
20550.5
20558.2
20566
20574
20582.2
20590.6
20599.2
20608
20616.9
20626
20635.3
20644.8
20654.4
20664.1
20674
20684.1
20694.3
20704.6
20715
20725.5
20736.2
20747
20757.8
20768.8
20779.8
20790.9
20802.1
20813.3
20824.6
20835.9
20847.3
20858.7
20870.2
20881.7
20893.2
20904.6
20916.1
20927.6
20939.1
20950.6
20962
20973.4
20984.7
20996
21007.2
21018.4
21029.5
21040.5
21051.4
21062.3
21073
21083.6
21094.1
21104.5
21114.7
21124.8
21134.7
21144.5
21154.1
21163.5
21172.8
21181.9
21190.7
21199.4
21207.8
21216
21224
21231.7
21239.2
21246.4
21253.3
21260
21266.4
21272.5
21278.4
21283.9
21289.1
21294
21298.5
21302.8
21306.7
21310.2
21313.5
21316.3
21318.9
21321
21322.9
21324.3
21325.4
21326.1
21326.5
19952.9
19952.9
19952.9
19952.9
19953
19953
19953
19953.1
19953.2
19953.3
19953.4
19953.5
19953.7
19953.9
19954.1
19954.4
19954.7
19955.1
19955.5
19956
19956.6
19957.2
19958
19958.8
19959.7
19960.7
19961.8
19963.1
19964.5
19966
19967.6
19969.4
19971.3
19973.4
19975.6
19978.1
19980.7
19983.4
19986.4
19989.5
19992.9
19996.4
20000.2
20004.1
20008.3
20012.6
20017.2
20022
20027.1
20032.3
20037.8
20043.4
20049.4
20055.5
20061.8
20068.4
20075.2
20082.2
20089.4
20096.8
20104.5
20112.3
20120.3
20128.6
20137
20145.6
20154.4
20163.4
20172.6
20181.9
20191.4
20201.1
20210.9
20220.9
20231
20241.2
20251.6
20262.1
20272.7
20283.4
20294.2
20305.2
20316.2
20327.3
20338.5
20349.7
20361.1
20372.4
20383.9
20395.3
20406.8
20418.4
20429.9
20441.5
20453.1
20464.7
20476.3
20487.8
20499.4
20510.9
20522.4
20533.8
20545.2
20556.6
20567.8
20579
20590.1
20601.2
20612.1
20622.9
20633.6
20644.2
20654.7
20665
20675.2
20685.3
20695.1
20704.8
20714.4
20723.7
20732.9
20741.8
20750.5
20759.1
20767.4
20775.4
20783.2
20790.8
20798.1
20805.1
20811.9
20818.3
20824.5
20830.4
20836
20841.2
20846.2
20850.8
20855.1
20859
20862.7
20865.9
20868.8
20871.4
20873.6
20875.4
20876.9
20878
20878.7
20879.1
19500.8
19500.7
19500.7
19500.8
19500.8
19500.8
19500.8
19500.8
19500.9
19501
19501
19501.2
19501.3
19501.4
19501.6
19501.9
19502.2
19502.5
19502.9
19503.3
19503.8
19504.4
19505.1
19505.9
19506.7
19507.7
19508.8
19509.9
19511.2
19512.7
19514.3
19516
19517.8
19519.9
19522.1
19524.4
19527
19529.7
19532.6
19535.7
19539
19542.5
19546.2
19550.1
19554.2
19558.6
19563.1
19567.9
19572.9
19578.1
19583.6
19589.2
19595.1
19601.3
19607.6
19614.2
19621
19628
19635.2
19642.7
19650.3
19658.2
19666.3
19674.5
19683
19691.7
19700.5
19709.6
19718.8
19728.2
19737.7
19747.4
19757.3
19767.3
19777.5
19787.8
19798.3
19808.8
19819.5
19830.3
19841.3
19852.3
19863.4
19874.6
19885.9
19897.2
19908.6
19920.1
19931.6
19943.2
19954.8
19966.5
19978.1
19989.8
20001.5
20013.2
20024.9
20036.6
20048.2
20059.9
20071.5
20083
20094.5
20106
20117.4
20128.7
20139.9
20151.1
20162.1
20173
20183.9
20194.6
20205.2
20215.6
20225.9
20236.1
20246.1
20255.9
20265.5
20275
20284.2
20293.3
20302.1
20310.8
20319.2
20327.3
20335.2
20342.9
20350.3
20357.4
20364.2
20370.8
20377.1
20383
20388.7
20394
20399
20403.7
20408
20412
20415.7
20419
20422
20424.5
20426.8
20428.6
20430.1
20431.2
20432
20432.4
19048.5
19048.5
19048.4
19048.4
19048.4
19048.4
19048.5
19048.5
19048.5
19048.5
19048.6
19048.6
19048.7
19048.9
19049
19049.2
19049.4
19049.7
19050
19050.4
19050.9
19051.4
19052
19052.7
19053.5
19054.4
19055.4
19056.5
19057.7
19059.1
19060.6
19062.3
19064.1
19066
19068.1
19070.4
19072.9
19075.6
19078.4
19081.5
19084.7
19088.1
19091.8
19095.7
19099.7
19104.1
19108.6
19113.3
19118.3
19123.5
19128.9
19134.6
19140.5
19146.6
19153
19159.5
19166.3
19173.4
19180.6
19188.1
19195.8
19203.6
19211.8
19220.1
19228.6
19237.3
19246.2
19255.3
19264.6
19274
19283.6
19293.4
19303.4
19313.5
19323.7
19334.1
19344.7
19355.3
19366.1
19377
19388
19399.1
19410.3
19421.7
19433
19444.5
19456
19467.6
19479.3
19490.9
19502.7
19514.4
19526.2
19538
19549.9
19561.7
19573.5
19585.3
19597.1
19608.9
19620.6
19632.3
19643.9
19655.5
19667
19678.5
19689.8
19701.1
19712.3
19723.4
19734.3
19745.2
19755.9
19766.5
19776.9
19787.2
19797.3
19807.3
19817
19826.6
19836
19845.2
19854.2
19862.9
19871.4
19879.7
19887.7
19895.5
19903
19910.2
19917.1
19923.8
19930.1
19936.2
19941.9
19947.3
19952.4
19957.2
19961.6
19965.7
19969.4
19972.7
19975.7
19978.4
19980.6
19982.5
19984
19985.1
19985.9
19986.3
18596.1
18596
18596
18596
18596
18596
18596
18596
18595.9
18595.9
18596
18596
18596
18596.1
18596.2
18596.3
18596.5
18596.7
18597
18597.3
18597.7
18598.2
18598.7
18599.3
18600
18600.8
18601.8
18602.8
18603.9
18605.2
18606.7
18608.2
18609.9
18611.8
18613.9
18616.1
18618.5
18621.1
18623.8
18626.8
18630
18633.4
18637
18640.8
18644.8
18649.1
18653.6
18658.3
18663.2
18668.4
18673.8
18679.5
18685.4
18691.5
18697.8
18704.4
18711.2
18718.3
18725.5
18733
18740.7
18748.7
18756.8
18765.2
18773.7
18782.5
18791.5
18800.6
18809.9
18819.5
18829.2
18839
18849.1
18859.3
18869.6
18880.1
18890.7
18901.5
18912.4
18923.4
18934.5
18945.7
18957.1
18968.5
18980
18991.6
19003.2
19014.9
19026.7
19038.5
19050.4
19062.3
19074.2
19086.2
19098.1
19110.1
19122.1
19134
19145.9
19157.8
19169.7
19181.6
19193.4
19205.1
19216.8
19228.3
19239.9
19251.3
19262.6
19273.9
19285
19296
19306.8
19317.6
19328.2
19338.6
19348.9
19359
19368.9
19378.6
19388.1
19397.5
19406.6
19415.4
19424.1
19432.5
19440.7
19448.5
19456.2
19463.5
19470.6
19477.3
19483.8
19489.9
19495.8
19501.3
19506.5
19511.3
19515.8
19519.9
19523.7
19527.1
19530.1
19532.8
19535.1
19537
19538.6
19539.7
19540.5
19540.9
18143.5
18143.5
18143.5
18143.4
18143.4
18143.4
18143.3
18143.3
18143.3
18143.2
18143.2
18143.2
18143.2
18143.2
18143.2
18143.3
18143.4
18143.6
18143.7
18144
18144.3
18144.7
18145.1
18145.7
18146.3
18147
18147.8
18148.8
18149.8
18151
18152.4
18153.8
18155.5
18157.3
18159.2
18161.4
18163.7
18166.2
18168.9
18171.8
18174.9
18178.2
18181.7
18185.5
18189.5
18193.7
18198.1
18202.8
18207.7
18212.9
18218.3
18223.9
18229.8
18235.9
18242.2
18248.8
18255.6
18262.7
18270
18277.5
18285.2
18293.2
18301.4
18309.8
18318.4
18327.3
18336.3
18345.5
18354.9
18364.5
18374.3
18384.3
18394.4
18404.7
18415.1
18425.7
18436.5
18447.3
18458.3
18469.5
18480.7
18492.1
18503.5
18515.1
18526.7
18538.4
18550.2
18562.1
18574
18586
18598
18610
18622.1
18634.2
18646.3
18658.4
18670.6
18682.7
18694.8
18706.9
18718.9
18730.9
18742.9
18754.8
18766.6
18778.4
18790
18801.6
18813.1
18824.5
18835.8
18847
18858
18868.9
18879.7
18890.3
18900.7
18911
18921.1
18931
18940.6
18950.1
18959.4
18968.4
18977.2
18985.8
18994.1
19002.1
19009.9
19017.3
19024.5
19031.4
19038
19044.3
19050.2
19055.8
19061.1
19066
19070.6
19074.8
19078.6
19082.1
19085.2
19088
19090.3
19092.3
19093.8
19095
19095.8
19096.2
17690.9
17690.8
17690.8
17690.8
17690.7
17690.7
17690.6
17690.5
17690.4
17690.4
17690.3
17690.2
17690.2
17690.1
17690.1
17690.1
17690.1
17690.2
17690.3
17690.5
17690.7
17691
17691.3
17691.8
17692.3
17692.9
17693.6
17694.5
17695.4
17696.5
17697.8
17699.1
17700.7
17702.3
17704.2
17706.2
17708.5
17710.9
17713.5
17716.3
17719.3
17722.6
17726
17729.7
17733.7
17737.8
17742.2
17746.8
17751.7
17756.8
17762.2
17767.8
17773.7
17779.8
17786.1
17792.7
17799.5
17806.6
17813.9
17821.5
17829.3
17837.3
17845.5
17854
17862.7
17871.6
17880.7
17890
17899.5
17909.2
17919
17929.1
17939.3
17949.7
17960.3
17971
17981.9
17992.9
18004
18015.2
18026.6
18038.1
18049.7
18061.4
18073.2
18085.1
18097
18109
18121.1
18133.2
18145.4
18157.6
18169.9
18182.2
18194.4
18206.7
18219
18231.3
18243.6
18255.9
18268.1
18280.3
18292.4
18304.5
18316.5
18328.5
18340.3
18352.1
18363.8
18375.4
18386.9
18398.2
18409.5
18420.6
18431.5
18442.3
18452.9
18463.3
18473.6
18483.7
18493.5
18503.2
18512.6
18521.8
18530.8
18539.5
18548
18556.2
18564.1
18571.7
18579
18586.1
18592.8
18599.2
18605.2
18610.9
18616.3
18621.4
18626
18630.3
18634.3
18637.8
18641
18643.8
18646.2
18648.2
18649.8
18651
18651.8
18652.2
17238.1
17238.1
17238
17238
17237.9
17237.8
17237.7
17237.6
17237.5
17237.4
17237.2
17237.1
17237
17236.9
17236.8
17236.7
17236.7
17236.6
17236.7
17236.7
17236.8
17237
17237.3
17237.6
17238
17238.5
17239.1
17239.9
17240.7
17241.7
17242.8
17244.1
17245.5
17247
17248.8
17250.7
17252.8
17255.2
17257.7
17260.4
17263.3
17266.5
17269.9
17273.5
17277.4
17281.4
17285.8
17290.4
17295.2
17300.3
17305.6
17311.2
17317.1
17323.2
17329.5
17336.1
17343
17350
17357.4
17365
17372.8
17380.9
17389.2
17397.7
17406.4
17415.4
17424.6
17434
17443.6
17453.4
17463.3
17473.5
17483.9
17494.4
17505.1
17515.9
17526.9
17538
17549.3
17560.7
17572.2
17583.9
17595.6
17607.5
17619.4
17631.5
17643.6
17655.8
17668
17680.3
17692.7
17705.1
17717.5
17730
17742.5
17755
17767.5
17779.9
17792.4
17804.9
17817.3
17829.7
17842
17854.3
17866.5
17878.7
17890.8
17902.8
17914.7
17926.4
17938.1
17949.7
17961.1
17972.4
17983.6
17994.5
18005.4
18016
18026.5
18036.7
18046.8
18056.6
18066.3
18075.7
18084.8
18093.7
18102.3
18110.7
18118.8
18126.6
18134.1
18141.2
18148.1
18154.6
18160.8
18166.7
18172.2
18177.3
18182.1
18186.5
18190.5
18194.2
18197.4
18200.3
18202.7
18204.7
18206.4
18207.6
18208.4
18208.9
16785.2
16785.2
16785.1
16785.1
16785
16784.9
16784.7
16784.6
16784.4
16784.2
16784
16783.9
16783.7
16783.5
16783.3
16783.1
16783
16782.9
16782.8
16782.8
16782.8
16782.9
16783
16783.2
16783.5
16783.9
16784.4
16785
16785.7
16786.5
16787.5
16788.6
16789.9
16791.4
16793
16794.8
16796.8
16799
16801.4
16804
16806.9
16809.9
16813.2
16816.8
16820.5
16824.6
16828.9
16833.4
16838.2
16843.2
16848.5
16854.1
16859.9
16866
16872.3
16879
16885.8
16892.9
16900.3
16908
16915.8
16923.9
16932.3
16940.9
16949.7
16958.8
16968
16977.5
16987.2
16997.1
17007.2
17017.5
17028
17038.6
17049.4
17060.4
17071.5
17082.8
17094.3
17105.8
17117.5
17129.3
17141.3
17153.3
17165.4
17177.6
17189.9
17202.3
17214.8
17227.3
17239.8
17252.4
17265.1
17277.7
17290.4
17303.1
17315.8
17328.5
17341.2
17353.9
17366.5
17379.1
17391.7
17404.2
17416.6
17429
17441.3
17453.5
17465.6
17477.7
17489.6
17501.3
17513
17524.5
17535.9
17547.1
17558.1
17569
17579.7
17590.2
17600.4
17610.5
17620.3
17629.9
17639.3
17648.4
17657.2
17665.7
17674
17682
17689.6
17697
17704
17710.7
17717
17723
17728.7
17733.9
17738.8
17743.3
17747.5
17751.2
17754.5
17757.4
17759.9
17762
17763.7
17765
17765.8
17766.3
16332.2
16332.2
16332.1
16332
16331.9
16331.8
16331.6
16331.4
16331.2
16331
16330.7
16330.5
16330.2
16329.9
16329.7
16329.4
16329.2
16329
16328.8
16328.6
16328.5
16328.4
16328.5
16328.5
16328.7
16328.9
16329.3
16329.7
16330.3
16331
16331.8
16332.8
16334
16335.3
16336.8
16338.4
16340.3
16342.4
16344.7
16347.2
16349.9
16352.9
16356.1
16359.5
16363.2
16367.2
16371.4
16375.9
16380.6
16385.6
16390.9
16396.4
16402.2
16408.3
16414.6
16421.3
16428.1
16435.3
16442.7
16450.4
16458.3
16466.5
16474.9
16483.6
16492.5
16501.6
16511
16520.6
16530.4
16540.4
16550.6
16561
16571.6
16582.4
16593.4
16604.5
16615.8
16627.3
16638.9
16650.6
16662.5
16674.5
16686.6
16698.8
16711.1
16723.5
16736
16748.6
16761.3
16774
16786.8
16799.6
16812.4
16825.3
16838.2
16851.1
16864.1
16877
16889.9
16902.8
16915.7
16928.5
16941.3
16954.1
16966.8
16979.4
16991.9
17004.4
17016.8
17029
17041.2
17053.2
17065.1
17076.9
17088.5
17099.9
17111.2
17122.3
17133.2
17143.9
17154.4
17164.7
17174.8
17184.6
17194.2
17203.5
17212.5
17221.3
17229.7
17237.9
17245.8
17253.3
17260.5
17267.4
17273.9
17280
17285.8
17291.2
17296.2
17300.9
17305.1
17308.9
17312.3
17315.3
17317.9
17320
17321.8
17323.1
17323.9
17324.4
15879.1
15879.1
15879
15878.9
15878.7
15878.6
15878.4
15878.1
15877.9
15877.6
15877.3
15876.9
15876.6
15876.2
15875.9
15875.5
15875.2
15874.8
15874.5
15874.2
15874
15873.8
15873.7
15873.6
15873.6
15873.7
15873.9
15874.2
15874.6
15875.1
15875.8
15876.6
15877.6
15878.8
15880.1
15881.6
15883.4
15885.3
15887.5
15889.8
15892.4
15895.3
15898.4
15901.7
15905.3
15909.2
15913.4
15917.8
15922.4
15927.4
15932.6
15938.1
15943.9
15950
15956.4
15963
15969.9
15977.1
15984.5
15992.2
16000.2
16008.5
16017
16025.7
16034.7
16043.9
16053.4
16063.1
16073
16083.2
16093.5
16104.1
16114.9
16125.8
16136.9
16148.2
16159.7
16171.3
16183.1
16195
16207.1
16219.3
16231.6
16244
16256.5
16269.2
16281.9
16294.7
16307.6
16320.5
16333.5
16346.6
16359.6
16372.8
16385.9
16399.1
16412.3
16425.4
16438.6
16451.8
16464.9
16478
16491
16504
16517
16529.9
16542.7
16555.4
16568
16580.5
16593
16605.2
16617.4
16629.4
16641.3
16653
16664.5
16675.9
16687.1
16698
16708.8
16719.3
16729.6
16739.7
16749.5
16759.1
16768.3
16777.3
16786
16794.4
16802.4
16810.2
16817.6
16824.6
16831.3
16837.6
16843.6
16849.1
16854.3
16859
16863.4
16867.3
16870.8
16873.9
16876.6
16878.8
16880.5
16881.9
16882.8
16883.2
15425.9
15425.9
15425.7
15425.6
15425.5
15425.3
15425
15424.7
15424.4
15424
15423.7
15423.2
15422.8
15422.4
15421.9
15421.4
15421
15420.5
15420.1
15419.6
15419.3
15418.9
15418.6
15418.4
15418.2
15418.1
15418.2
15418.3
15418.5
15418.9
15419.4
15420
15420.9
15421.8
15423
15424.4
15426
15427.7
15429.7
15432
15434.5
15437.2
15440.2
15443.4
15446.9
15450.7
15454.7
15459.1
15463.7
15468.6
15473.8
15479.3
15485
15491.1
15497.5
15504.1
15511
15518.2
15525.7
15533.5
15541.5
15549.9
15558.4
15567.3
15576.4
15585.7
15595.3
15605.1
15615.2
15625.5
15636
15646.7
15657.6
15668.7
15680
15691.5
15703.1
15715
15726.9
15739.1
15751.3
15763.7
15776.3
15788.9
15801.7
15814.5
15827.5
15840.5
15853.6
15866.8
15880.1
15893.3
15906.7
15920.1
15933.5
15946.9
15960.3
15973.8
15987.2
16000.6
16014
16027.4
16040.7
16054
16067.2
16080.4
16093.5
16106.5
16119.4
16132.2
16144.9
16157.5
16169.9
16182.2
16194.4
16206.4
16218.2
16229.8
16241.3
16252.5
16263.5
16274.3
16284.9
16295.2
16305.3
16315.1
16324.6
16333.8
16342.8
16351.4
16359.7
16367.6
16375.2
16382.5
16389.4
16395.9
16402
16407.7
16413
16417.9
16422.4
16426.5
16430.1
16433.2
16436
16438.2
16440.1
16441.4
16442.4
16442.9
14972.6
14972.5
14972.4
14972.3
14972.1
14971.8
14971.5
14971.2
14970.8
14970.4
14969.9
14969.4
14968.9
14968.3
14967.8
14967.2
14966.6
14966
14965.4
14964.8
14964.3
14963.8
14963.3
14962.9
14962.5
14962.3
14962.1
14962
14962.1
14962.3
14962.6
14963
14963.7
14964.5
14965.4
14966.6
14968
14969.6
14971.5
14973.6
14975.9
14978.5
14981.3
14984.4
14987.8
14991.5
14995.5
14999.7
15004.3
15009.1
15014.3
15019.7
15025.5
15031.6
15037.9
15044.6
15051.5
15058.8
15066.3
15074.1
15082.2
15090.6
15099.3
15108.2
15117.4
15126.9
15136.6
15146.6
15156.8
15167.2
15177.9
15188.8
15199.8
15211.1
15222.6
15234.3
15246.1
15258.2
15270.4
15282.7
15295.2
15307.8
15320.6
15333.5
15346.5
15359.6
15372.8
15386.1
15399.4
15412.9
15426.4
15439.9
15453.6
15467.2
15480.9
15494.6
15508.3
15522
15535.8
15549.5
15563.2
15576.8
15590.5
15604
15617.6
15631
15644.4
15657.7
15670.9
15684
15697
15709.9
15722.6
15735.2
15747.7
15760
15772.1
15784
15795.7
15807.3
15818.6
15829.7
15840.6
15851.2
15861.5
15871.6
15881.4
15890.9
15900
15908.9
15917.4
15925.6
15933.5
15940.9
15948
15954.7
15961
15966.9
15972.4
15977.5
15982.1
15986.3
15990
15993.3
15996.1
15998.5
16000.3
16001.7
16002.7
16003.2
14519.2
14519.1
14518.9
14518.8
14518.6
14518.3
14517.9
14517.6
14517.1
14516.6
14516.1
14515.5
14514.8
14514.2
14513.5
14512.8
14512
14511.3
14510.5
14509.8
14509.1
14508.4
14507.7
14507.1
14506.6
14506.1
14505.7
14505.4
14505.3
14505.2
14505.3
14505.6
14506
14506.6
14507.4
14508.4
14509.6
14511
14512.7
14514.6
14516.7
14519.2
14521.9
14524.9
14528.1
14531.7
14535.6
14539.8
14544.2
14549
14554.1
14559.6
14565.3
14571.3
14577.7
14584.4
14591.3
14598.6
14606.2
14614.1
14622.3
14630.8
14639.5
14648.6
14657.9
14667.5
14677.3
14687.5
14697.8
14708.4
14719.2
14730.3
14741.6
14753
14764.7
14776.6
14788.7
14800.9
14813.3
14825.9
14838.6
14851.5
14864.5
14877.7
14890.9
14904.3
14917.8
14931.3
14945
14958.7
14972.5
14986.3
15000.2
15014.2
15028.1
15042.2
15056.2
15070.2
15084.2
15098.2
15112.2
15126.2
15140.1
15154
15167.9
15181.7
15195.4
15209
15222.5
15235.9
15249.2
15262.4
15275.5
15288.4
15301.2
15313.8
15326.2
15338.5
15350.5
15362.4
15374
15385.4
15396.6
15407.5
15418.2
15428.5
15438.6
15448.4
15457.8
15467
15475.8
15484.2
15492.3
15500
15507.3
15514.3
15520.8
15526.9
15532.5
15537.8
15542.5
15546.9
15550.7
15554.1
15557
15559.4
15561.4
15562.8
15563.8
15564.3
14065.7
14065.5
14065.4
14065.2
14064.9
14064.6
14064.2
14063.8
14063.3
14062.7
14062.1
14061.4
14060.6
14059.9
14059
14058.2
14057.3
14056.4
14055.4
14054.5
14053.6
14052.7
14051.9
14051
14050.3
14049.6
14049
14048.5
14048.1
14047.8
14047.7
14047.7
14047.9
14048.2
14048.8
14049.6
14050.6
14051.8
14053.3
14055
14057
14059.2
14061.8
14064.6
14067.8
14071.2
14075
14079.1
14083.5
14088.2
14093.3
14098.6
14104.4
14110.4
14116.8
14123.4
14130.5
14137.8
14145.4
14153.4
14161.7
14170.2
14179.1
14188.3
14197.7
14207.4
14217.4
14227.7
14238.2
14249
14260
14271.3
14282.7
14294.4
14306.3
14318.4
14330.7
14343.2
14355.9
14368.7
14381.7
14394.8
14408.1
14421.5
14435
14448.7
14462.4
14476.3
14490.2
14504.2
14518.3
14532.5
14546.7
14560.9
14575.2
14589.5
14603.9
14618.2
14632.6
14646.9
14661.2
14675.5
14689.8
14704
14718.2
14732.3
14746.4
14760.3
14774.2
14788
14801.6
14815.2
14828.6
14841.8
14854.9
14867.9
14880.7
14893.3
14905.6
14917.8
14929.8
14941.5
14953
14964.3
14975.2
14985.9
14996.3
15006.4
15016.1
15025.6
15034.7
15043.4
15051.7
15059.7
15067.3
15074.4
15081.2
15087.5
15093.3
15098.7
15103.7
15108.1
15112.1
15115.6
15118.7
15121.2
15123.2
15124.7
15125.7
15126.3
13612
13611.9
13611.7
13611.5
13611.2
13610.9
13610.4
13609.9
13609.3
13608.7
13608
13607.2
13606.3
13605.4
13604.4
13603.4
13602.3
13601.3
13600.2
13599
13597.9
13596.8
13595.7
13594.7
13593.7
13592.7
13591.9
13591.1
13590.5
13589.9
13589.5
13589.3
13589.2
13589.3
13589.7
13590.2
13590.9
13591.9
13593.2
13594.7
13596.5
13598.6
13601
13603.7
13606.7
13610
13613.7
13617.7
13622
13626.6
13631.6
13637
13642.7
13648.7
13655.1
13661.8
13668.8
13676.2
13683.9
13691.9
13700.3
13709
13718
13727.3
13736.8
13746.7
13756.9
13767.3
13778
13789
13800.2
13811.6
13823.3
13835.2
13847.4
13859.7
13872.3
13885
13897.9
13911
13924.3
13937.7
13951.2
13964.9
13978.8
13992.7
14006.8
14020.9
14035.2
14049.5
14063.9
14078.4
14092.9
14107.5
14122.1
14136.8
14151.4
14166.1
14180.8
14195.5
14210.2
14224.8
14239.4
14254
14268.5
14283
14297.4
14311.7
14326
14340.1
14354.1
14368
14381.8
14395.4
14408.9
14422.2
14435.3
14448.3
14461
14473.6
14485.9
14498
14509.8
14521.4
14532.7
14543.7
14554.5
14564.9
14574.9
14584.7
14594.1
14603.1
14611.7
14620
14627.8
14635.2
14642.2
14648.7
14654.8
14660.4
14665.5
14670.2
14674.3
14678
14681.1
14683.7
14685.8
14687.3
14688.4
14689
13158.3
13158.1
13157.9
13157.7
13157.4
13157
13156.5
13155.9
13155.3
13154.5
13153.7
13152.8
13151.8
13150.8
13149.6
13148.5
13147.2
13146
13144.6
13143.3
13142
13140.6
13139.3
13138
13136.7
13135.5
13134.4
13133.3
13132.4
13131.6
13130.9
13130.4
13130
13129.9
13129.9
13130.2
13130.7
13131.5
13132.5
13133.8
13135.4
13137.3
13139.5
13142
13144.8
13148
13151.6
13155.4
13159.7
13164.2
13169.2
13174.5
13180.2
13186.2
13192.6
13199.3
13206.4
13213.8
13221.6
13229.7
13238.2
13247
13256.1
13265.5
13275.2
13285.3
13295.6
13306.2
13317.1
13328.3
13339.7
13351.4
13363.3
13375.5
13387.9
13400.5
13413.3
13426.3
13439.5
13452.8
13466.4
13480.1
13494
13508
13522.1
13536.3
13550.7
13565.2
13579.8
13594.4
13609.2
13624
13638.9
13653.8
13668.8
13683.8
13698.8
13713.8
13728.9
13744
13759
13774
13789
13803.9
13818.9
13833.7
13848.5
13863.2
13877.8
13892.3
13906.7
13921
13935.1
13949.1
13963
13976.7
13990.2
14003.5
14016.7
14029.6
14042.3
14054.8
14067
14078.9
14090.6
14102
14113.1
14123.8
14134.3
14144.3
14154.1
14163.4
14172.3
14180.9
14189
14196.7
14203.9
14210.7
14217
14222.8
14228.1
14233
14237.3
14241
14244.3
14247
14249.1
14250.7
14251.8
14252.4
12704.5
12704.3
12704.1
12703.8
12703.5
12703
12702.5
12701.9
12701.1
12700.3
12699.4
12698.3
12697.2
12696
12694.7
12693.4
12691.9
12690.5
12688.9
12687.4
12685.8
12684.2
12682.6
12681
12679.4
12677.9
12676.5
12675.1
12673.9
12672.8
12671.8
12670.9
12670.3
12669.8
12669.6
12669.6
12669.8
12670.3
12671
12672.1
12673.5
12675.1
12677.1
12679.5
12682.2
12685.2
12688.6
12692.4
12696.5
12701
12705.9
12711.2
12716.8
12722.8
12729.2
12736
12743.1
12750.6
12758.5
12766.7
12775.3
12784.2
12793.4
12803
12812.9
12823.1
12833.6
12844.4
12855.5
12866.9
12878.6
12890.5
12902.7
12915.1
12927.7
12940.6
12953.7
12967
12980.5
12994.2
13008
13022
13036.2
13050.5
13065
13079.6
13094.3
13109.1
13124.1
13139.1
13154.2
13169.3
13184.6
13199.9
13215.2
13230.6
13246
13261.4
13276.8
13292.3
13307.7
13323.1
13338.5
13353.8
13369.1
13384.4
13399.5
13414.6
13429.6
13444.6
13459.4
13474
13488.6
13503
13517.3
13531.4
13545.3
13559
13572.6
13585.9
13599
13611.9
13624.5
13636.8
13648.9
13660.6
13672.1
13683.2
13694
13704.5
13714.6
13724.2
13733.5
13742.4
13750.8
13758.8
13766.3
13773.4
13779.9
13786
13791.5
13796.5
13801
13804.9
13808.2
13811.1
13813.3
13815
13816.1
13816.7
12250.5
12250.3
12250.1
12249.8
12249.4
12248.9
12248.4
12247.7
12246.8
12245.9
12244.9
12243.7
12242.5
12241.1
12239.6
12238.1
12236.5
12234.7
12233
12231.2
12229.3
12227.4
12225.5
12223.6
12221.7
12219.9
12218.2
12216.5
12214.9
12213.4
12212.1
12210.9
12209.9
12209.1
12208.6
12208.2
12208.2
12208.4
12208.8
12209.6
12210.7
12212.2
12214
12216.1
12218.6
12221.5
12224.7
12228.4
12232.4
12236.9
12241.7
12246.9
12252.5
12258.5
12264.9
12271.7
12278.9
12286.5
12294.5
12302.8
12311.5
12320.5
12329.9
12339.7
12349.7
12360.1
12370.9
12381.9
12393.2
12404.8
12416.7
12428.9
12441.3
12454
12467
12480.1
12493.5
12507.1
12520.9
12534.9
12549.1
12563.5
12578
12592.6
12607.5
12622.4
12637.5
12652.7
12668
12683.3
12698.8
12714.4
12730
12745.7
12761.4
12777.1
12792.9
12808.8
12824.6
12840.4
12856.3
12872.1
12887.9
12903.6
12919.3
12935
12950.6
12966.1
12981.5
12996.9
13012.1
13027.2
13042.2
13057
13071.7
13086.2
13100.6
13114.8
13128.7
13142.5
13156
13169.3
13182.3
13195
13207.5
13219.7
13231.6
13243.1
13254.3
13265.1
13275.6
13285.6
13295.3
13304.5
13313.3
13321.6
13329.4
13336.7
13343.5
13349.8
13355.6
13360.8
13365.4
13369.5
13373
13375.9
13378.3
13380
13381.2
13381.8
11796.4
11796.2
11796
11795.7
11795.3
11794.8
11794.1
11793.3
11792.4
11791.4
11790.3
11789
11787.6
11786
11784.4
11782.6
11780.8
11778.8
11776.8
11774.7
11772.6
11770.4
11768.1
11765.9
11763.7
11761.5
11759.4
11757.3
11755.4
11753.5
11751.8
11750.3
11748.9
11747.8
11746.8
11746.2
11745.7
11745.6
11745.8
11746.3
11747.1
11748.3
11749.9
11751.8
11754.1
11756.8
11759.9
11763.4
11767.4
11771.7
11776.5
11781.7
11787.3
11793.3
11799.7
11806.6
11813.8
11821.5
11829.5
11837.9
11846.8
11856
11865.5
11875.4
11885.7
11896.3
11907.3
11918.5
11930.1
11942
11954.1
11966.6
11979.3
11992.3
12005.5
12019
12032.7
12046.6
12060.8
12075.1
12089.6
12104.3
12119.2
12134.3
12149.4
12164.8
12180.2
12195.8
12211.5
12227.2
12243.1
12259.1
12275.1
12291.2
12307.3
12323.5
12339.7
12355.9
12372.1
12388.4
12404.7
12420.9
12437.1
12453.3
12469.4
12485.5
12501.6
12517.5
12533.4
12549.2
12564.9
12580.4
12595.8
12611.1
12626.3
12641.2
12656
12670.6
12685.1
12699.2
12713.2
12726.9
12740.4
12753.6
12766.5
12779.1
12791.4
12803.4
12815
12826.2
12837.1
12847.6
12857.6
12867.2
12876.3
12884.9
12893.1
12900.7
12907.8
12914.4
12920.4
12925.8
12930.6
12934.9
12938.5