/*--------------------------------*- C++ -*----------------------------------*\
| =========                 |                                                 |
| \\      /  F ield         | OpenFOAM: The Open Source CFD Toolbox           |
|  \\    /   O peration     | Version:  v2006                                 |
|   \\  /    A nd           | Website:  www.openfoam.com                      |
|    \\/     M anipulation  |                                                 |
\*---------------------------------------------------------------------------*/
FoamFile
{
    version     2.0;
    format      ascii;
    class       volVectorField;
    location    "0";
    object      U;
}
// * * * * * * * * * * * * * * * * * * * * * * * * * * * * * * * * * * * * * //

dimensions      [0 1 -1 0 0 0 0];


internalField   nonuniform List<vector> 
67500
(
(-0.0141837 0.00989872 0)
(-0.0262649 -0.00489305 0)
(0.00844592 -0.0181403 0)
(0.0477387 -0.0220089 0)
(0.090866 -0.0201974 0)
(0.128125 -0.0160735 0)
(0.15635 -0.0118797 0)
(0.176703 -0.0087418 0)
(0.191863 -0.006925 0)
(0.204515 -0.00621905 0)
(0.216667 -0.00626268 0)
(0.229493 -0.00672327 0)
(0.243526 -0.00736122 0)
(0.258921 -0.00803316 0)
(0.275651 -0.00866855 0)
(0.293607 -0.00924001 0)
(0.312646 -0.0097391 0)
(0.332616 -0.0101624 0)
(0.35336 -0.0105062 0)
(0.374714 -0.0107664 0)
(0.396505 -0.010941 0)
(0.418561 -0.0110306 0)
(0.44071 -0.0110389 0)
(0.462793 -0.0109717 0)
(0.484666 -0.0108374 0)
(0.506201 -0.0106466 0)
(0.527299 -0.0104113 0)
(0.547881 -0.0101428 0)
(0.567894 -0.00985121 0)
(0.5873 -0.00954447 0)
(0.606078 -0.00922868 0)
(0.624215 -0.00890812 0)
(0.641706 -0.00858579 0)
(0.65855 -0.00826379 0)
(0.674751 -0.00794369 0)
(0.690313 -0.00762679 0)
(0.705245 -0.00731421 0)
(0.719556 -0.00700698 0)
(0.733258 -0.00670603 0)
(0.746365 -0.00641219 0)
(0.758892 -0.00612617 0)
(0.770855 -0.00584855 0)
(0.782271 -0.00557977 0)
(0.793159 -0.00532013 0)
(0.803536 -0.00506985 0)
(0.813423 -0.00482901 0)
(0.822838 -0.00459762 0)
(0.8318 -0.00437561 0)
(0.840328 -0.00416285 0)
(0.848439 -0.00395918 0)
(0.856152 -0.00376439 0)
(0.863485 -0.00357823 0)
(0.870454 -0.00340047 0)
(0.877076 -0.00323083 0)
(0.883368 -0.00306903 0)
(0.889343 -0.0029148 0)
(0.895018 -0.00276784 0)
(0.900406 -0.00262788 0)
(0.905521 -0.00249463 0)
(0.910377 -0.00236782 0)
(0.914986 -0.00224717 0)
(0.919359 -0.00213241 0)
(0.923509 -0.00202329 0)
(0.927446 -0.00191956 0)
(0.931181 -0.00182097 0)
(0.934725 -0.00172728 0)
(0.938085 -0.00163828 0)
(0.941273 -0.00155374 0)
(0.944296 -0.00147345 0)
(0.947162 -0.00139722 0)
(0.949881 -0.00132484 0)
(0.952458 -0.00125614 0)
(0.954901 -0.00119093 0)
(0.957218 -0.00112906 0)
(0.959414 -0.00107035 0)
(0.961496 -0.00101466 0)
(0.96347 -0.000961828 0)
(0.965341 -0.000911726 0)
(0.967114 -0.000864214 0)
(0.968795 -0.000819166 0)
(0.970389 -0.000776457 0)
(0.971899 -0.000735972 0)
(0.97333 -0.000697598 0)
(0.974687 -0.000661228 0)
(0.975973 -0.00062676 0)
(0.977192 -0.000594096 0)
(0.978348 -0.000563142 0)
(0.979443 -0.000533806 0)
(0.980482 -0.000506005 0)
(0.981466 -0.000479654 0)
(0.982399 -0.000454675 0)
(0.983283 -0.000430995 0)
(0.984122 -0.000408541 0)
(0.984916 -0.000387248 0)
(0.985669 -0.000367052 0)
(0.986383 -0.000347896 0)
(0.98706 -0.000329724 0)
(0.987701 -0.000312486 0)
(0.988309 -0.000296134 0)
(0.988885 -0.000280624 0)
(0.989431 -0.000265915 0)
(0.989948 -0.000251967 0)
(0.990438 -0.000238744 0)
(0.990902 -0.000226211 0)
(0.991342 -0.000214336 0)
(0.991759 -0.000203088 0)
(0.992154 -0.000192435 0)
(0.992528 -0.000182351 0)
(0.992883 -0.000172806 0)
(0.993219 -0.000163776 0)
(0.993537 -0.000155234 0)
(0.993839 -0.000147158 0)
(0.994126 -0.000139524 0)
(0.994397 -0.000132309 0)
(0.994654 -0.000125493 0)
(0.994899 -0.000119056 0)
(0.99513 -0.000112977 0)
(0.99535 -0.00010724 0)
(0.995559 -0.000101824 0)
(0.995757 -9.67133e-05 0)
(0.995945 -9.18907e-05 0)
(0.996124 -8.73399e-05 0)
(0.996294 -8.30453e-05 0)
(0.996456 -7.89918e-05 0)
(0.99661 -7.51648e-05 0)
(0.996757 -7.15504e-05 0)
(0.996896 -6.81351e-05 0)
(0.997029 -6.49062e-05 0)
(0.997156 -6.18516e-05 0)
(0.997276 -5.89599e-05 0)
(0.997391 -5.62202e-05 0)
(0.997501 -5.36226e-05 0)
(0.997606 -5.11575e-05 0)
(0.997706 -4.88163e-05 0)
(0.997801 -4.6591e-05 0)
(0.997892 -4.44742e-05 0)
(0.997979 -4.2459e-05 0)
(0.998062 -4.05393e-05 0)
(0.998141 -3.87094e-05 0)
(0.998216 -3.69642e-05 0)
(0.998288 -3.5299e-05 0)
(0.998357 -3.37094e-05 0)
(0.998423 -3.21916e-05 0)
(0.998486 -3.0742e-05 0)
(0.998546 -2.93573e-05 0)
(0.998603 -2.80345e-05 0)
(0.998658 -2.67707e-05 0)
(0.99871 -2.55633e-05 0)
(0.99876 -2.44099e-05 0)
(0.998808 -2.33082e-05 0)
(0.998854 -2.22559e-05 0)
(0.998897 -2.1251e-05 0)
(0.998939 -2.02916e-05 0)
(0.998978 -1.93756e-05 0)
(0.999016 -1.85013e-05 0)
(0.999052 -1.7667e-05 0)
(0.999087 -1.68709e-05 0)
(0.99912 -1.61113e-05 0)
(0.999151 -1.53868e-05 0)
(0.999181 -1.46958e-05 0)
(0.99921 -1.40369e-05 0)
(0.999237 -1.34085e-05 0)
(0.999263 -1.28094e-05 0)
(0.999288 -1.22382e-05 0)
(0.999312 -1.16938e-05 0)
(0.999335 -1.11748e-05 0)
(0.999357 -1.06801e-05 0)
(0.999378 -1.02087e-05 0)
(0.999398 -9.7594e-06 0)
(0.999417 -9.33127e-06 0)
(0.999435 -8.92335e-06 0)
(0.999453 -8.5347e-06 0)
(0.999469 -8.16447e-06 0)
(0.999485 -7.81181e-06 0)
(0.9995 -7.47595e-06 0)
(0.999515 -7.15614e-06 0)
(0.999529 -6.85167e-06 0)
(0.999542 -6.56185e-06 0)
(0.999555 -6.28605e-06 0)
(0.999568 -6.02366e-06 0)
(0.999579 -5.77409e-06 0)
(0.999591 -5.53678e-06 0)
(0.999602 -5.31122e-06 0)
(0.999612 -5.09689e-06 0)
(0.999622 -4.89331e-06 0)
(0.999631 -4.70001e-06 0)
(0.999641 -4.51656e-06 0)
(0.99965 -4.34252e-06 0)
(0.999658 -4.17749e-06 0)
(0.999666 -4.02106e-06 0)
(0.999674 -3.87285e-06 0)
(0.999682 -3.73251e-06 0)
(0.999689 -3.59966e-06 0)
(0.999696 -3.47396e-06 0)
(0.999703 -3.35508e-06 0)
(0.99971 -3.2427e-06 0)
(0.999716 -3.13649e-06 0)
(0.999722 -3.03615e-06 0)
(0.999728 -2.94138e-06 0)
(0.999734 -2.85189e-06 0)
(0.999739 -2.76739e-06 0)
(0.999745 -2.68762e-06 0)
(0.99975 -2.6123e-06 0)
(0.999755 -2.54118e-06 0)
(0.99976 -2.474e-06 0)
(0.999765 -2.41051e-06 0)
(0.99977 -2.35047e-06 0)
(0.999775 -2.29366e-06 0)
(0.999779 -2.23984e-06 0)
(0.999784 -2.18881e-06 0)
(0.999788 -2.14034e-06 0)
(0.999792 -2.09423e-06 0)
(0.999796 -2.0503e-06 0)
(0.9998 -2.00834e-06 0)
(0.999804 -1.96818e-06 0)
(0.999808 -1.92965e-06 0)
(0.999812 -1.89257e-06 0)
(0.999816 -1.8568e-06 0)
(0.999819 -1.82219e-06 0)
(0.999823 -1.78858e-06 0)
(0.999827 -1.75587e-06 0)
(0.99983 -1.72391e-06 0)
(0.999834 -1.69259e-06 0)
(0.999837 -1.66182e-06 0)
(0.99984 -1.63149e-06 0)
(0.999843 -1.60153e-06 0)
(0.999847 -1.57185e-06 0)
(0.99985 -1.5424e-06 0)
(0.999853 -1.51312e-06 0)
(0.999856 -1.48396e-06 0)
(0.999859 -1.45489e-06 0)
(0.999862 -1.42588e-06 0)
(0.999864 -1.39693e-06 0)
(0.999867 -1.36801e-06 0)
(0.99987 -1.33912e-06 0)
(0.999872 -1.31027e-06 0)
(0.999875 -1.28145e-06 0)
(0.999878 -1.25268e-06 0)
(0.99988 -1.22396e-06 0)
(0.999883 -1.19531e-06 0)
(0.999885 -1.16673e-06 0)
(0.999887 -1.13824e-06 0)
(0.999889 -1.10987e-06 0)
(0.999892 -1.08164e-06 0)
(0.999894 -1.0536e-06 0)
(0.999896 -1.0258e-06 0)
(0.999898 -9.983e-07 0)
(0.9999 -9.71194e-07 0)
(0.999902 -9.44575e-07 0)
(0.999904 -9.18553e-07 0)
(0.999905 -8.93246e-07 0)
(0.999907 -8.68775e-07 0)
(0.999909 -8.45251e-07 0)
(0.999911 -8.22766e-07 0)
(0.999912 -8.01386e-07 0)
(0.999914 -7.81134e-07 0)
(0.999915 -7.61983e-07 0)
(0.999917 -7.43855e-07 0)
(0.999918 -7.26616e-07 0)
(0.99992 -7.10089e-07 0)
(0.999921 -6.94063e-07 0)
(0.999922 -6.78317e-07 0)
(0.999924 -6.62644e-07 0)
(0.999925 -6.46878e-07 0)
(0.999926 -6.30915e-07 0)
(0.999928 -6.14736e-07 0)
(0.999929 -5.9841e-07 0)
(0.99993 -5.82097e-07 0)
(0.999931 -5.66032e-07 0)
(0.999932 -5.50502e-07 0)
(0.999933 -5.35816e-07 0)
(0.999934 -5.22275e-07 0)
(0.999935 -5.10133e-07 0)
(0.999937 -4.99583e-07 0)
(0.999937 -4.90728e-07 0)
(0.999938 -4.83583e-07 0)
(0.999939 -4.78072e-07 0)
(0.99994 -4.74039e-07 0)
(0.999941 -4.71267e-07 0)
(0.999942 -4.69496e-07 0)
(0.999943 -4.68441e-07 0)
(0.999944 -4.67816e-07 0)
(0.999945 -4.67347e-07 0)
(0.999946 -4.66787e-07 0)
(0.999947 -4.65923e-07 0)
(0.999948 -4.64584e-07 0)
(0.999949 -4.62637e-07 0)
(0.99995 -4.59996e-07 0)
(0.999951 -4.56607e-07 0)
(0.999952 -4.52454e-07 0)
(0.999952 -4.47548e-07 0)
(0.999953 -4.41921e-07 0)
(0.999954 -4.35626e-07 0)
(0.999955 -4.28725e-07 0)
(0.999956 -4.21292e-07 0)
(0.999957 -4.13402e-07 0)
(0.999958 -4.05134e-07 0)
(0.999958 -3.96564e-07 0)
(0.999959 -3.87764e-07 0)
(0.99996 -3.78804e-07 0)
(0.999961 -3.69747e-07 0)
(0.999961 -3.6065e-07 0)
(0.999962 -3.51564e-07 0)
(0.999963 -3.42534e-07 0)
(0.999963 -3.33599e-07 0)
(0.999964 -3.2479e-07 0)
(0.999965 -3.16137e-07 0)
(0.999965 -3.07661e-07 0)
(0.999966 -2.9938e-07 0)
(0.999967 -2.91309e-07 0)
(0.999967 -2.83457e-07 0)
(0.999968 -2.75834e-07 0)
(0.999968 -2.68442e-07 0)
(0.999969 -2.61285e-07 0)
(0.999969 -2.54362e-07 0)
(0.99997 -2.47673e-07 0)
(0.99997 -2.41215e-07 0)
(0.999971 -2.34983e-07 0)
(0.999971 -2.28974e-07 0)
(0.999972 -2.23182e-07 0)
(0.999972 -2.17601e-07 0)
(0.999973 -2.12224e-07 0)
(0.999973 -2.07044e-07 0)
(0.999973 -2.02056e-07 0)
(0.999974 -1.97251e-07 0)
(0.999974 -1.92623e-07 0)
(0.999975 -1.88164e-07 0)
(0.999975 -1.83869e-07 0)
(0.999975 -1.79729e-07 0)
(0.999976 -1.75739e-07 0)
(0.999976 -1.71891e-07 0)
(0.999976 -1.68179e-07 0)
(0.999977 -1.64598e-07 0)
(0.999977 -1.61141e-07 0)
(0.999977 -1.57803e-07 0)
(0.999978 -1.54578e-07 0)
(0.999978 -1.5146e-07 0)
(0.999978 -1.48446e-07 0)
(0.999979 -1.4553e-07 0)
(0.999979 -1.42707e-07 0)
(0.999979 -1.39973e-07 0)
(0.999979 -1.37325e-07 0)
(0.99998 -1.34757e-07 0)
(0.99998 -1.32266e-07 0)
(0.99998 -1.29849e-07 0)
(0.99998 -1.27502e-07 0)
(0.999981 -1.25222e-07 0)
(0.999981 -1.23006e-07 0)
(0.999981 -1.2085e-07 0)
(0.999981 -1.18753e-07 0)
(0.999982 -1.16711e-07 0)
(0.999982 -1.14722e-07 0)
(0.999982 -1.12784e-07 0)
(0.999982 -1.10894e-07 0)
(0.999983 -1.0905e-07 0)
(0.999983 -1.07251e-07 0)
(0.999983 -1.05494e-07 0)
(0.999983 -1.03777e-07 0)
(0.999983 -1.02099e-07 0)
(0.999984 -1.00458e-07 0)
(0.999984 -9.88526e-08 0)
(0.999984 -9.72813e-08 0)
(0.999984 -9.57427e-08 0)
(0.999984 -9.42356e-08 0)
(0.999985 -9.27586e-08 0)
(0.999985 -9.13106e-08 0)
(0.999985 -8.98904e-08 0)
(0.999985 -8.8497e-08 0)
(0.999985 -8.71294e-08 0)
(0.999985 -8.57866e-08 0)
(0.999986 -8.44677e-08 0)
(0.999986 -8.31718e-08 0)
(0.999986 -8.1898e-08 0)
(0.999986 -8.06457e-08 0)
(0.999986 -7.94141e-08 0)
(0.999986 -7.82025e-08 0)
(0.999987 -7.70103e-08 0)
(0.999987 -7.58367e-08 0)
(0.999987 -7.46812e-08 0)
(0.999987 -7.35431e-08 0)
(0.999987 -7.24219e-08 0)
(0.999987 -7.13172e-08 0)
(0.999988 -7.02283e-08 0)
(0.999988 -6.91549e-08 0)
(0.999988 -6.80965e-08 0)
(0.999988 -6.70526e-08 0)
(0.999988 -6.60228e-08 0)
(0.999988 -6.50067e-08 0)
(0.999988 -6.40039e-08 0)
(0.999988 -6.30141e-08 0)
(0.999989 -6.20369e-08 0)
(0.999989 -6.1072e-08 0)
(0.999989 -6.0119e-08 0)
(0.999989 -5.91776e-08 0)
(0.999989 -5.82476e-08 0)
(0.999989 -5.73288e-08 0)
(0.999989 -5.64207e-08 0)
(0.999989 -5.55231e-08 0)
(0.99999 -5.46358e-08 0)
(0.99999 -5.37584e-08 0)
(0.99999 -5.28909e-08 0)
(0.99999 -5.20329e-08 0)
(0.99999 -5.11843e-08 0)
(0.99999 -5.03449e-08 0)
(0.99999 -4.95143e-08 0)
(0.99999 -4.86925e-08 0)
(0.99999 -4.78791e-08 0)
(0.99999 -4.70741e-08 0)
(0.999991 -4.62773e-08 0)
(0.999991 -4.54884e-08 0)
(0.999991 -4.47074e-08 0)
(0.999991 -4.39339e-08 0)
(0.999991 -4.31679e-08 0)
(0.999991 -4.24093e-08 0)
(0.999991 -4.16578e-08 0)
(0.999991 -4.09133e-08 0)
(0.999991 -4.01757e-08 0)
(0.999991 -3.94448e-08 0)
(0.999991 -3.87205e-08 0)
(0.999991 -3.80026e-08 0)
(0.999992 -3.72909e-08 0)
(0.999992 -3.65854e-08 0)
(0.999992 -3.5886e-08 0)
(0.999992 -3.51925e-08 0)
(0.999992 -3.45047e-08 0)
(0.999992 -3.38226e-08 0)
(0.999992 -3.31461e-08 0)
(0.999992 -3.24749e-08 0)
(0.999992 -3.18091e-08 0)
(0.999992 -3.11484e-08 0)
(0.999992 -3.04927e-08 0)
(0.999992 -2.98421e-08 0)
(0.999992 -2.91963e-08 0)
(0.999992 -2.85552e-08 0)
(0.999992 -2.79188e-08 0)
(0.999992 -2.72869e-08 0)
(0.999993 -2.66595e-08 0)
(0.999993 -2.60363e-08 0)
(0.999993 -2.54174e-08 0)
(0.999993 -2.48026e-08 0)
(0.999993 -2.41918e-08 0)
(0.999993 -2.35849e-08 0)
(0.999993 -2.29819e-08 0)
(0.999993 -2.23826e-08 0)
(0.999993 -2.17872e-08 0)
(0.999993 -2.1194e-08 0)
(0.999993 -2.061e-08 0)
(0.999993 -2.00051e-08 0)
(0.999993 -1.95064e-08 0)
(0.999993 -1.85729e-08 0)
(-0.0157932 0.0296991 0)
(-0.0255876 -0.015283 0)
(0.009083 -0.0547204 0)
(0.0484361 -0.0661805 0)
(0.0918793 -0.0604644 0)
(0.129119 -0.0478609 0)
(0.156894 -0.0352899 0)
(0.176671 -0.0259831 0)
(0.191392 -0.0206267 0)
(0.203787 -0.0185745 0)
(0.215802 -0.0187483 0)
(0.228552 -0.0201562 0)
(0.242541 -0.0220862 0)
(0.257917 -0.0241149 0)
(0.274653 -0.0260354 0)
(0.292643 -0.0277665 0)
(0.31175 -0.0292814 0)
(0.331825 -0.0305673 0)
(0.352706 -0.0316104 0)
(0.374219 -0.0323969 0)
(0.39618 -0.0329195 0)
(0.418405 -0.0331822 0)
(0.440716 -0.0331978 0)
(0.462946 -0.0329851 0)
(0.484946 -0.0325691 0)
(0.506586 -0.0319832 0)
(0.527764 -0.0312645 0)
(0.548405 -0.0304479 0)
(0.568458 -0.0295638 0)
(0.58789 -0.0286366 0)
(0.606683 -0.0276842 0)
(0.624828 -0.026719 0)
(0.642321 -0.0257496 0)
(0.659164 -0.0247818 0)
(0.675361 -0.0238202 0)
(0.690916 -0.0228685 0)
(0.705839 -0.0219299 0)
(0.72014 -0.0210076 0)
(0.733829 -0.0201042 0)
(0.746922 -0.0192224 0)
(0.759433 -0.0183641 0)
(0.771379 -0.0175312 0)
(0.782778 -0.0167249 0)
(0.793648 -0.0159462 0)
(0.804008 -0.0151957 0)
(0.813877 -0.0144735 0)
(0.823274 -0.0137798 0)
(0.832217 -0.0131142 0)
(0.840727 -0.0124765 0)
(0.848821 -0.011866 0)
(0.856518 -0.0112821 0)
(0.863834 -0.0107242 0)
(0.870788 -0.0101914 0)
(0.877395 -0.00968297 0)
(0.883671 -0.00919807 0)
(0.889632 -0.00873584 0)
(0.895293 -0.00829543 0)
(0.900669 -0.00787597 0)
(0.905771 -0.00747664 0)
(0.910615 -0.00709659 0)
(0.915212 -0.00673501 0)
(0.919575 -0.00639109 0)
(0.923714 -0.00606407 0)
(0.927641 -0.00575319 0)
(0.931367 -0.00545771 0)
(0.934901 -0.00517694 0)
(0.938253 -0.0049102 0)
(0.941432 -0.00465682 0)
(0.944447 -0.00441619 0)
(0.947306 -0.0041877 0)
(0.950017 -0.00397078 0)
(0.952588 -0.00376487 0)
(0.955025 -0.00356944 0)
(0.957335 -0.00338399 0)
(0.959526 -0.00320804 0)
(0.961602 -0.00304111 0)
(0.96357 -0.00288278 0)
(0.965436 -0.00273261 0)
(0.967205 -0.00259021 0)
(0.968881 -0.00245519 0)
(0.97047 -0.00232718 0)
(0.971976 -0.00220584 0)
(0.973404 -0.00209082 0)
(0.974757 -0.00198182 0)
(0.976039 -0.00187851 0)
(0.977255 -0.00178061 0)
(0.978407 -0.00168784 0)
(0.9795 -0.00159992 0)
(0.980535 -0.00151659 0)
(0.981516 -0.00143762 0)
(0.982447 -0.00136275 0)
(0.983329 -0.00129178 0)
(0.984165 -0.00122448 0)
(0.984957 -0.00116066 0)
(0.985708 -0.00110014 0)
(0.98642 -0.00104272 0)
(0.987095 -0.000988255 0)
(0.987735 -0.000936587 0)
(0.988341 -0.000887574 0)
(0.988915 -0.000841084 0)
(0.989459 -0.000796993 0)
(0.989975 -0.000755185 0)
(0.990463 -0.00071555 0)
(0.990926 -0.000677984 0)
(0.991365 -0.00064239 0)
(0.991781 -0.000608673 0)
(0.992174 -0.000576744 0)
(0.992548 -0.000546517 0)
(0.992901 -0.000517909 0)
(0.993236 -0.000490843 0)
(0.993554 -0.000465243 0)
(0.993855 -0.000441036 0)
(0.99414 -0.000418154 0)
(0.994411 -0.000396531 0)
(0.994668 -0.000376103 0)
(0.994911 -0.000356811 0)
(0.995142 -0.000338594 0)
(0.995361 -0.000321398 0)
(0.995569 -0.000305169 0)
(0.995767 -0.000289853 0)
(0.995955 -0.000275402 0)
(0.996133 -0.000261765 0)
(0.996303 -0.000248896 0)
(0.996464 -0.00023675 0)
(0.996618 -0.000225283 0)
(0.996764 -0.000214453 0)
(0.996903 -0.000204219 0)
(0.997035 -0.000194545 0)
(0.997162 -0.000185392 0)
(0.997282 -0.000176728 0)
(0.997397 -0.000168519 0)
(0.997506 -0.000160735 0)
(0.99761 -0.000153349 0)
(0.99771 -0.000146333 0)
(0.997805 -0.000139665 0)
(0.997896 -0.000133321 0)
(0.997983 -0.000127282 0)
(0.998065 -0.000121528 0)
(0.998144 -0.000116044 0)
(0.99822 -0.000110813 0)
(0.998292 -0.000105821 0)
(0.998361 -0.000101056 0)
(0.998426 -9.65067e-05 0)
(0.998489 -9.21612e-05 0)
(0.998549 -8.80101e-05 0)
(0.998606 -8.40444e-05 0)
(0.998661 -8.02557e-05 0)
(0.998713 -7.6636e-05 0)
(0.998763 -7.31782e-05 0)
(0.99881 -6.98751e-05 -4.91967e-42)
(0.998856 -6.67204e-05 -4.73346e-42)
(0.998899 -6.37077e-05 0)
(0.99894 -6.08312e-05 0)
(0.99898 -5.80852e-05 0)
(0.999018 -5.54641e-05 0)
(0.999054 -5.29627e-05 0)
(0.999088 -5.0576e-05 0)
(0.999121 -4.8299e-05 0)
(0.999152 -4.6127e-05 0)
(0.999182 -4.40554e-05 0)
(0.999211 -4.20799e-05 0)
(0.999238 -4.01962e-05 0)
(0.999265 -3.84002e-05 0)
(0.99929 -3.6688e-05 0)
(0.999313 -3.50558e-05 0)
(0.999336 -3.35e-05 0)
(0.999358 -3.20171e-05 0)
(0.999379 -3.06038e-05 0)
(0.999399 -2.9257e-05 0)
(0.999418 -2.79736e-05 0)
(0.999436 -2.67507e-05 0)
(0.999453 -2.55857e-05 0)
(0.99947 -2.44758e-05 0)
(0.999486 -2.34186e-05 0)
(0.999501 -2.24118e-05 0)
(0.999516 -2.14531e-05 0)
(0.99953 -2.05403e-05 0)
(0.999543 -1.96715e-05 0)
(0.999556 -1.88447e-05 0)
(0.999568 -1.80581e-05 0)
(0.99958 -1.731e-05 0)
(0.999591 -1.65986e-05 0)
(0.999602 -1.59224e-05 0)
(0.999612 -1.52799e-05 0)
(0.999622 -1.46696e-05 0)
(0.999632 -1.40902e-05 0)
(0.999641 -1.35403e-05 0)
(0.99965 -1.30186e-05 0)
(0.999658 -1.25238e-05 0)
(0.999667 -1.20549e-05 0)
(0.999674 -1.16107e-05 0)
(0.999682 -1.119e-05 0)
(0.999689 -1.07918e-05 0)
(0.999696 -1.04151e-05 0)
(0.999703 -1.00588e-05 0)
(0.99971 -9.72192e-06 0)
(0.999716 -9.4036e-06 0)
(0.999722 -9.10287e-06 0)
(0.999728 -8.81885e-06 0)
(0.999734 -8.55066e-06 0)
(0.99974 -8.29746e-06 0)
(0.999745 -8.05841e-06 0)
(0.99975 -7.83272e-06 0)
(0.999755 -7.6196e-06 0)
(0.99976 -7.4183e-06 0)
(0.999765 -7.22807e-06 0)
(0.99977 -7.04819e-06 0)
(0.999775 -6.87798e-06 0)
(0.999779 -6.71675e-06 0)
(0.999784 -6.56385e-06 0)
(0.999788 -6.41865e-06 0)
(0.999792 -6.28053e-06 0)
(0.999796 -6.14891e-06 0)
(0.9998 -6.02322e-06 0)
(0.999804 -5.90291e-06 0)
(0.999808 -5.78748e-06 0)
(0.999812 -5.67641e-06 0)
(0.999816 -5.56925e-06 0)
(0.99982 -5.46554e-06 0)
(0.999823 -5.36487e-06 0)
(0.999827 -5.26683e-06 0)
(0.99983 -5.17107e-06 0)
(0.999834 -5.07723e-06 0)
(0.999837 -4.98501e-06 0)
(0.99984 -4.89411e-06 0)
(0.999843 -4.8043e-06 0)
(0.999847 -4.71533e-06 0)
(0.99985 -4.62703e-06 0)
(0.999853 -4.53922e-06 0)
(0.999856 -4.45177e-06 0)
(0.999859 -4.36459e-06 0)
(0.999862 -4.2776e-06 0)
(0.999864 -4.19074e-06 0)
(0.999867 -4.10398e-06 0)
(0.99987 -4.01732e-06 0)
(0.999873 -3.93076e-06 0)
(0.999875 -3.84431e-06 0)
(0.999878 -3.75799e-06 0)
(0.99988 -3.67183e-06 0)
(0.999883 -3.58584e-06 0)
(0.999885 -3.50008e-06 0)
(0.999887 -3.4146e-06 0)
(0.999889 -3.32945e-06 0)
(0.999892 -3.24473e-06 0)
(0.999894 -3.16055e-06 0)
(0.999896 -3.07708e-06 0)
(0.999898 -2.99451e-06 0)
(0.9999 -2.91309e-06 0)
(0.999902 -2.83312e-06 0)
(0.999904 -2.75494e-06 0)
(0.999905 -2.67891e-06 0)
(0.999907 -2.60539e-06 0)
(0.999909 -2.53473e-06 0)
(0.999911 -2.46721e-06 0)
(0.999912 -2.40305e-06 0)
(0.999914 -2.34232e-06 0)
(0.999915 -2.28495e-06 0)
(0.999917 -2.2307e-06 0)
(0.999918 -2.17915e-06 0)
(0.99992 -2.12977e-06 0)
(0.999921 -2.0819e-06 0)
(0.999923 -2.03486e-06 0)
(0.999924 -1.988e-06 0)
(0.999925 -1.94079e-06 0)
(0.999926 -1.89292e-06 0)
(0.999928 -1.84431e-06 0)
(0.999929 -1.79518e-06 0)
(0.99993 -1.74602e-06 0)
(0.999931 -1.69755e-06 0)
(0.999932 -1.65067e-06 0)
(0.999933 -1.60632e-06 0)
(0.999934 -1.56545e-06 0)
(0.999936 -1.52885e-06 0)
(0.999937 -1.49709e-06 0)
(0.999938 -1.47052e-06 0)
(0.999938 -1.44915e-06 0)
(0.999939 -1.43277e-06 0)
(0.99994 -1.42088e-06 0)
(0.999941 -1.41281e-06 0)
(0.999942 -1.40777e-06 0)
(0.999943 -1.40489e-06 0)
(0.999944 -1.40328e-06 0)
(0.999945 -1.40212e-06 0)
(0.999946 -1.40065e-06 0)
(0.999947 -1.39823e-06 0)
(0.999948 -1.39434e-06 0)
(0.999949 -1.38859e-06 0)
(0.99995 -1.38072e-06 0)
(0.999951 -1.37057e-06 0)
(0.999952 -1.35811e-06 0)
(0.999952 -1.34335e-06 0)
(0.999953 -1.32643e-06 0)
(0.999954 -1.30748e-06 0)
(0.999955 -1.28671e-06 0)
(0.999956 -1.26433e-06 0)
(0.999957 -1.24059e-06 0)
(0.999958 -1.21571e-06 0)
(0.999958 -1.18992e-06 0)
(0.999959 -1.16346e-06 0)
(0.99996 -1.13651e-06 0)
(0.999961 -1.10928e-06 0)
(0.999961 -1.08194e-06 0)
(0.999962 -1.05464e-06 0)
(0.999963 -1.02751e-06 0)
(0.999964 -1.00067e-06 0)
(0.999964 -9.74218e-07 0)
(0.999965 -9.48235e-07 0)
(0.999965 -9.22788e-07 0)
(0.999966 -8.97932e-07 0)
(0.999967 -8.73708e-07 0)
(0.999967 -8.50147e-07 0)
(0.999968 -8.27271e-07 0)
(0.999968 -8.05093e-07 0)
(0.999969 -7.8362e-07 0)
(0.999969 -7.62854e-07 0)
(0.99997 -7.42789e-07 0)
(0.99997 -7.23418e-07 0)
(0.999971 -7.04728e-07 0)
(0.999971 -6.86707e-07 0)
(0.999972 -6.69336e-07 0)
(0.999972 -6.52598e-07 0)
(0.999973 -6.36474e-07 0)
(0.999973 -6.20943e-07 0)
(0.999973 -6.05984e-07 0)
(0.999974 -5.91576e-07 0)
(0.999974 -5.77699e-07 0)
(0.999975 -5.64331e-07 0)
(0.999975 -5.51451e-07 0)
(0.999975 -5.39038e-07 0)
(0.999976 -5.27073e-07 0)
(0.999976 -5.15535e-07 0)
(0.999976 -5.04407e-07 0)
(0.999977 -4.93669e-07 0)
(0.999977 -4.83304e-07 0)
(0.999977 -4.73295e-07 0)
(0.999978 -4.63625e-07 0)
(0.999978 -4.54278e-07 0)
(0.999978 -4.4524e-07 0)
(0.999979 -4.36496e-07 0)
(0.999979 -4.28032e-07 0)
(0.999979 -4.19835e-07 0)
(0.999979 -4.11893e-07 0)
(0.99998 -4.04193e-07 0)
(0.99998 -3.96725e-07 0)
(0.99998 -3.89477e-07 0)
(0.99998 -3.82439e-07 0)
(0.999981 -3.75602e-07 0)
(0.999981 -3.68956e-07 0)
(0.999981 -3.62493e-07 0)
(0.999981 -3.56204e-07 0)
(0.999982 -3.50081e-07 0)
(0.999982 -3.44117e-07 0)
(0.999982 -3.38304e-07 0)
(0.999982 -3.32636e-07 0)
(0.999983 -3.27107e-07 0)
(0.999983 -3.2171e-07 0)
(0.999983 -3.1644e-07 0)
(0.999983 -3.11292e-07 0)
(0.999983 -3.06259e-07 0)
(0.999984 -3.01338e-07 0)
(0.999984 -2.96524e-07 0)
(0.999984 -2.91811e-07 0)
(0.999984 -2.87197e-07 0)
(0.999984 -2.82677e-07 0)
(0.999985 -2.78247e-07 0)
(0.999985 -2.73904e-07 0)
(0.999985 -2.69645e-07 0)
(0.999985 -2.65465e-07 0)
(0.999985 -2.61363e-07 0)
(0.999985 -2.57336e-07 0)
(0.999986 -2.5338e-07 0)
(0.999986 -2.49493e-07 0)
(0.999986 -2.45673e-07 0)
(0.999986 -2.41917e-07 0)
(0.999986 -2.38223e-07 0)
(0.999986 -2.34589e-07 0)
(0.999987 -2.31012e-07 0)
(0.999987 -2.27492e-07 0)
(0.999987 -2.24026e-07 0)
(0.999987 -2.20612e-07 0)
(0.999987 -2.1725e-07 0)
(0.999987 -2.13936e-07 0)
(0.999988 -2.1067e-07 0)
(0.999988 -2.0745e-07 0)
(0.999988 -2.04275e-07 0)
(0.999988 -2.01144e-07 0)
(0.999988 -1.98055e-07 0)
(0.999988 -1.95007e-07 0)
(0.999988 -1.91999e-07 0)
(0.999988 -1.8903e-07 0)
(0.999989 -1.86099e-07 0)
(0.999989 -1.83204e-07 0)
(0.999989 -1.80345e-07 0)
(0.999989 -1.77522e-07 0)
(0.999989 -1.74732e-07 0)
(0.999989 -1.71976e-07 0)
(0.999989 -1.69252e-07 0)
(0.999989 -1.66559e-07 0)
(0.99999 -1.63897e-07 0)
(0.99999 -1.61266e-07 0)
(0.99999 -1.58663e-07 0)
(0.99999 -1.5609e-07 0)
(0.99999 -1.53544e-07 0)
(0.99999 -1.51026e-07 0)
(0.99999 -1.48534e-07 0)
(0.99999 -1.46069e-07 0)
(0.99999 -1.43629e-07 0)
(0.99999 -1.41214e-07 0)
(0.999991 -1.38824e-07 0)
(0.999991 -1.36457e-07 0)
(0.999991 -1.34114e-07 0)
(0.999991 -1.31794e-07 0)
(0.999991 -1.29496e-07 0)
(0.999991 -1.27221e-07 0)
(0.999991 -1.24966e-07 0)
(0.999991 -1.22733e-07 0)
(0.999991 -1.20521e-07 0)
(0.999991 -1.18328e-07 0)
(0.999991 -1.16155e-07 0)
(0.999991 -1.14001e-07 0)
(0.999992 -1.11867e-07 0)
(0.999992 -1.0975e-07 0)
(0.999992 -1.07652e-07 0)
(0.999992 -1.05572e-07 0)
(0.999992 -1.03509e-07 0)
(0.999992 -1.01462e-07 0)
(0.999992 -9.94328e-08 0)
(0.999992 -9.74194e-08 0)
(0.999992 -9.54219e-08 0)
(0.999992 -9.344e-08 0)
(0.999992 -9.14733e-08 0)
(0.999992 -8.95214e-08 0)
(0.999992 -8.75842e-08 0)
(0.999992 -8.56611e-08 0)
(0.999992 -8.3752e-08 0)
(0.999992 -8.18565e-08 0)
(0.999993 -7.99742e-08 0)
(0.999993 -7.81049e-08 0)
(0.999993 -7.62482e-08 0)
(0.999993 -7.44038e-08 0)
(0.999993 -7.25715e-08 0)
(0.999993 -7.0751e-08 0)
(0.999993 -6.8942e-08 0)
(0.999993 -6.71441e-08 0)
(0.999993 -6.5358e-08 0)
(0.999993 -6.35786e-08 0)
(0.999993 -6.18266e-08 0)
(0.999993 -6.00121e-08 0)
(0.999993 -5.8516e-08 0)
(0.999993 -5.57157e-08 0)
(-0.0150014 0.0492583 0)
(-0.0244902 -0.0261873 0)
(0.00978138 -0.0916052 0)
(0.0492186 -0.110668 0)
(0.0927045 -0.101427 0)
(0.129593 -0.0796333 0)
(0.156779 -0.0580614 0)
(0.175883 -0.0425564 0)
(0.190047 -0.0338711 0)
(0.202112 -0.0306625 0)
(0.213977 -0.0310832 0)
(0.226666 -0.0334999 0)
(0.240625 -0.0367555 0)
(0.255988 -0.0401695 0)
(0.272738 -0.0434111 0)
(0.290792 -0.0463481 0)
(0.31003 -0.0489317 0)
(0.33031 -0.0511324 0)
(0.351463 -0.0529191 0)
(0.373296 -0.0542611 0)
(0.395598 -0.0551434 0)
(0.418159 -0.0555762 0)
(0.440787 -0.0555861 0)
(0.463306 -0.0552048 0)
(0.485556 -0.0544758 0)
(0.507399 -0.0534595 0)
(0.528733 -0.0522237 0)
(0.549487 -0.0508296 0)
(0.569617 -0.0493291 0)
(0.589098 -0.0477635 0)
(0.607919 -0.0461615 0)
(0.626077 -0.0445426 0)
(0.643575 -0.0429195 0)
(0.660415 -0.0413011 0)
(0.676603 -0.0396939 0)
(0.692145 -0.0381038 0)
(0.70705 -0.0365359 0)
(0.721328 -0.0349955 0)
(0.734992 -0.033487 0)
(0.748056 -0.0320148 0)
(0.760536 -0.0305823 0)
(0.772448 -0.0291925 0)
(0.783812 -0.0278475 0)
(0.794646 -0.0265489 0)
(0.804969 -0.0252975 0)
(0.814801 -0.0240938 0)
(0.824161 -0.0229376 0)
(0.833068 -0.0218287 0)
(0.841542 -0.0207662 0)
(0.849601 -0.0197493 0)
(0.857263 -0.0187768 0)
(0.864546 -0.0178477 0)
(0.871467 -0.0169605 0)
(0.878043 -0.016114 0)
(0.88429 -0.0153066 0)
(0.890222 -0.0145371 0)
(0.895855 -0.0138039 0)
(0.901204 -0.0131057 0)
(0.906281 -0.012441 0)
(0.9111 -0.0118084 0)
(0.915673 -0.0112066 0)
(0.920013 -0.0106342 0)
(0.924131 -0.0100899 0)
(0.928038 -0.0095725 0)
(0.931744 -0.00908076 0)
(0.93526 -0.0086135 0)
(0.938594 -0.00816959 0)
(0.941756 -0.00774794 0)
(0.944755 -0.00734751 0)
(0.947599 -0.00696729 0)
(0.950295 -0.00660632 0)
(0.952851 -0.00626368 0)
(0.955275 -0.00593849 0)
(0.957573 -0.0056299 0)
(0.959751 -0.00533712 0)
(0.961816 -0.00505937 0)
(0.963773 -0.00479591 0)
(0.965629 -0.00454605 0)
(0.967387 -0.00430912 0)
(0.969054 -0.00408446 0)
(0.970634 -0.00387149 0)
(0.972132 -0.0036696 0)
(0.973551 -0.00347824 0)
(0.974897 -0.00329689 0)
(0.976172 -0.00312502 0)
(0.977381 -0.00296215 0)
(0.978527 -0.00280781 0)
(0.979613 -0.00266155 0)
(0.980642 -0.00252294 0)
(0.981618 -0.00239157 0)
(0.982543 -0.00226703 0)
(0.98342 -0.00214897 0)
(0.984252 -0.00203702 0)
(0.98504 -0.00193086 0)
(0.985786 -0.00183017 0)
(0.986494 -0.00173465 0)
(0.987165 -0.00164404 0)
(0.987801 -0.00155808 0)
(0.988404 -0.00147653 0)
(0.988975 -0.00139918 0)
(0.989516 -0.00132582 0)
(0.990029 -0.00125626 0)
(0.990515 -0.00119031 0)
(0.990975 -0.00112781 0)
(0.991411 -0.00106859 0)
(0.991824 -0.00101249 0)
(0.992216 -0.00095937 0)
(0.992587 -0.00090908 0)
(0.992938 -0.000861487 0)
(0.993271 -0.000816458 0)
(0.993587 -0.000773869 0)
(0.993886 -0.0007336 0)
(0.99417 -0.000695536 0)
(0.994439 -0.000659567 0)
(0.994694 -0.000625587 0)
(0.994936 -0.000593496 0)
(0.995165 -0.000563197 0)
(0.995383 -0.000534597 0)
(0.99559 -0.000507605 0)
(0.995787 -0.000482134 0)
(0.995973 -0.000458102 0)
(0.996151 -0.000435425 0)
(0.996319 -0.000414027 0)
(0.99648 -0.000393832 0)
(0.996632 -0.000374766 0)
(0.996778 -0.00035676 0)
(0.996916 -0.000339747 0)
(0.997048 -0.000323663 0)
(0.997173 -0.000308447 0)
(0.997293 -0.000294041 0)
(0.997407 -0.000280393 0)
(0.997516 -0.000267451 0)
(0.99762 -0.000255169 0)
(0.997719 -0.000243504 0)
(0.997814 -0.000232414 0)
(0.997904 -0.000221863 0)
(0.99799 -0.000211818 0)
(0.998073 -0.000202248 0)
(0.998151 -0.000193124 0)
(0.998226 -0.000184422 0)
(0.998298 -0.000176117 0)
(0.998367 -0.000168189 0)
(0.998432 -0.000160618 0)
(0.998495 -0.000153386 0)
(0.998554 -0.000146478 0)
(0.998611 -0.000139878 0)
(0.998666 -0.000133572 0)
(0.998718 -0.000127547 0)
(0.998767 -0.000121792 0)
(0.998815 -0.000116294 0)
(0.99886 -0.000111043 0)
(0.998903 -0.000106028 0)
(0.998944 -0.000101241 0)
(0.998984 -9.66698e-05 0)
(0.999021 -9.23072e-05 0)
(0.999057 -8.81439e-05 0)
(0.999091 -8.41714e-05 0)
(0.999124 -8.03817e-05 0)
(0.999155 -7.67667e-05 0)
(0.999185 -7.3319e-05 0)
(0.999214 -7.00312e-05 0)
(0.999241 -6.68962e-05 0)
(0.999267 -6.39073e-05 0)
(0.999292 -6.10578e-05 0)
(0.999316 -5.83415e-05 0)
(0.999338 -5.57523e-05 0)
(0.99936 -5.32845e-05 0)
(0.999381 -5.09326e-05 0)
(0.9994 -4.86912e-05 0)
(0.999419 -4.65554e-05 0)
(0.999438 -4.45203e-05 0)
(0.999455 -4.25814e-05 0)
(0.999471 -4.07344e-05 0)
(0.999487 -3.89751e-05 0)
(0.999502 -3.72995e-05 0)
(0.999517 -3.5704e-05 0)
(0.999531 -3.4185e-05 0)
(0.999544 -3.27391e-05 0)
(0.999557 -3.13632e-05 0)
(0.999569 -3.00542e-05 0)
(0.999581 -2.88091e-05 0)
(0.999592 -2.76252e-05 0)
(0.999603 -2.64999e-05 0)
(0.999613 -2.54307e-05 0)
(0.999623 -2.44151e-05 0)
(0.999633 -2.34509e-05 0)
(0.999642 -2.25357e-05 0)
(0.999651 -2.16676e-05 0)
(0.999659 -2.08444e-05 0)
(0.999667 -2.00642e-05 0)
(0.999675 -1.9325e-05 0)
(0.999683 -1.8625e-05 0)
(0.99969 -1.79625e-05 0)
(0.999697 -1.73357e-05 0)
(0.999704 -1.6743e-05 0)
(0.99971 -1.61826e-05 0)
(0.999717 -1.56531e-05 0)
(0.999723 -1.51529e-05 0)
(0.999729 -1.46805e-05 0)
(0.999734 -1.42344e-05 0)
(0.99974 -1.38134e-05 0)
(0.999745 -1.34158e-05 0)
(0.999751 -1.30406e-05 0)
(0.999756 -1.26862e-05 0)
(0.999761 -1.23515e-05 0)
(0.999766 -1.20353e-05 0)
(0.99977 -1.17362e-05 0)
(0.999775 -1.14533e-05 0)
(0.999779 -1.11853e-05 0)
(0.999784 -1.09312e-05 0)
(0.999788 -1.06899e-05 0)
(0.999792 -1.04603e-05 0)
(0.999797 -1.02416e-05 0)
(0.999801 -1.00327e-05 0)
(0.999805 -9.83276e-06 0)
(0.999808 -9.64092e-06 0)
(0.999812 -9.45634e-06 0)
(0.999816 -9.27823e-06 0)
(0.99982 -9.10585e-06 0)
(0.999823 -8.9385e-06 0)
(0.999827 -8.77552e-06 0)
(0.99983 -8.61629e-06 0)
(0.999834 -8.46024e-06 0)
(0.999837 -8.30685e-06 0)
(0.99984 -8.15564e-06 0)
(0.999844 -8.0062e-06 0)
(0.999847 -7.85814e-06 0)
(0.99985 -7.71114e-06 0)
(0.999853 -7.56494e-06 0)
(0.999856 -7.41932e-06 0)
(0.999859 -7.2741e-06 0)
(0.999862 -7.12916e-06 0)
(0.999865 -6.98443e-06 0)
(0.999867 -6.83986e-06 0)
(0.99987 -6.69543e-06 0)
(0.999873 -6.55115e-06 0)
(0.999875 -6.40704e-06 0)
(0.999878 -6.26314e-06 0)
(0.99988 -6.1195e-06 0)
(0.999883 -5.97615e-06 0)
(0.999885 -5.83316e-06 0)
(0.999887 -5.69061e-06 0)
(0.99989 -5.54859e-06 0)
(0.999892 -5.40725e-06 0)
(0.999894 -5.26678e-06 0)