/*--------------------------------*- C++ -*----------------------------------*\
| =========                 |                                                 |
| \\      /  F ield         | OpenFOAM: The Open Source CFD Toolbox           |
|  \\    /   O peration     | Version:  v2006                                 |
|   \\  /    A nd           | Website:  www.openfoam.com                      |
|    \\/     M anipulation  |                                                 |
\*---------------------------------------------------------------------------*/
FoamFile
{
    version     2.0;
    format      ascii;
    class       surfaceScalarField;
    location    "7.7";
    object      alphaPhi0.water;
}
// * * * * * * * * * * * * * * * * * * * * * * * * * * * * * * * * * * * * * //

dimensions      [0 3 -1 0 0 0 0];
oriented        oriented;


internalField   nonuniform List<scalar> 
299200
(
-0.000103437
0.000103437
-9.75291e-05
-5.90794e-06
-8.75634e-05
-9.9657e-06
-9.08955e-05
3.33216e-06
-9.60989e-05
5.20332e-06
-0.000101557
5.45837e-06
-0.000106239
4.68192e-06
-0.000109493
3.2539e-06
-0.000111043
1.55006e-06
-0.000110864
-1.79613e-07
-0.000108401
-2.46286e-06
-0.000103528
-4.87224e-06
-9.56681e-05
-7.86036e-06
-8.42972e-05
-1.13709e-05
-6.87912e-05
-1.5506e-05
-4.84783e-05
-2.03129e-05
-2.29968e-05
-2.54815e-05
8.57754e-06
-3.15743e-05
4.67991e-05
-3.82215e-05
9.19438e-05
-4.51448e-05
0.000144679
-5.27356e-05
0.000205539
-6.08596e-05
0.000274852
-6.93134e-05
0.000353101
-7.8249e-05
0.000440525
-8.74239e-05
0.000537509
-9.6984e-05
0.000644174
-0.000106665
0.000760595
-0.00011642
0.000886794
-0.000126199
0.00102283
-0.000136033
0.00116885
-0.00014602
0.00132515
-0.000156302
0.00149259
-0.000167443
0.00167258
-0.000179986
0.00186696
-0.000194386
0.00207733
-0.000210363
0.00230498
-0.000227659
0.00255032
-0.00024534
0.00281235
-0.000262029
0.00308902
-0.000276662
0.00337912
-0.0002901
0.00368156
-0.00030244
0.00399413
-0.000312578
0.00431625
-0.000322112
0.00464822
-0.000331977
0.00499076
-0.000342536
0.00534217
-0.00035141
0.00570287
-0.000360699
0.00607455
-0.000371682
0.00645588
-0.000381332
0.00684428
-0.000388398
0.007237
-0.000392717
0.00763259
-0.000395592
0.00803209
-0.000399496
0.0084399
-0.000407819
0.00886392
-0.000424017
0.00931459
-0.000450666
0.0098052
-0.000490616
0.0103504
-0.000545223
0.0109626
-0.000612125
0.0116462
-0.000683627
0.0123935
-0.000747333
0.0131824
-0.000788874
0.0139792
-0.000796816
0.0147499
-0.000770653
0.0154708
-0.000720924
0.0161341
-0.0006633
0.0167479
-0.000613803
0.0173288
-0.000580927
0.0178928
-0.00056402
0.01845
-0.000557204
0.0190053
-0.000555222
0.0195608
-0.000555543
0.0201189
-0.000558096
0.020682
-0.00056314
0.0212524
-0.000570354
0.0218316
-0.000579191
0.0224205
-0.000588913
0.0230194
-0.000598932
0.0236283
-0.000608915
0.024247
-0.000618664
0.024875
-0.000627977
0.0255117
-0.000636685
0.0261562
-0.000644583
0.0268077
-0.000651451
0.0274648
-0.000657072
0.0281261
-0.000661296
0.0287903
-0.000664213
0.0294565
-0.000666207
0.0301243
-0.000667784
0.0307935
-0.000669242
0.0314638
-0.000670302
0.0321337
-0.000669927
0.0328003
-0.000666508
0.0334588
-0.00065858
0.0341048
-0.000645968
0.0347352
-0.000630449
0.0353509
-0.000615641
0.0359567
-0.000605783
0.0365604
-0.000603765
0.0371695
-0.000609091
0.0377861
-0.0006166
0.0384027
-0.00061659
0.0389998
-0.000597127
0.0395492
-0.000549396
0.0400242
-0.000474922
0.0404126
-0.000388403
0.0407241
-0.000311545
0.0409858
-0.000261725
0.0412314
-0.000245591
0.0414896
-0.000258157
0.0417788
-0.000289216
0.0421081
-0.000329264
0.0424801
-0.000372051
0.0428945
-0.000414417
0.0433499
-0.000455334
0.0438442
-0.00049435
0.0443753
-0.000531047
0.0449404
-0.000565173
0.0455369
-0.000596454
0.0461616
-0.000624682
0.0468113
-0.000649733
0.0474829
-0.000671621
0.0481734
-0.000690457
0.0488798
-0.000706407
0.0495995
-0.000719685
0.05033
-0.000730537
0.0510692
-0.000739215
0.0518152
-0.00074597
0.0525662
-0.000751034
0.0533209
-0.000754676
0.054078
-0.000757118
0.0548366
-0.00075856
0.0555958
-0.000759189
0.0563549
-0.000759142
0.0571134
-0.000758531
0.0578709
-0.000757414
0.0586267
-0.00075583
0.0593805
-0.000753807
0.0601319
-0.000751386
0.0608805
-0.00074862
0.0616261
-0.00074556
0.0623683
-0.00074228
0.0631072
-0.000738832
0.0638424
-0.000735263
0.064574
-0.000731534
0.0653015
-0.000727563
0.0660247
-0.000723206
0.066743
-0.000718307
0.0674558
-0.000712736
0.0681622
-0.000706397
0.0688615
-0.000699289
0.069553
-0.000691544
0.0702364
-0.000683382
0.0709114
-0.000675002
0.071578
-0.000666559
0.0722362
-0.000658279
0.0728866
-0.000650406
0.0735297
-0.000643065
0.0741659
-0.000636223
0.0747958
-0.000629828
0.0754194
-0.000623629
0.0760362
-0.000616811
0.0766439
-0.000607678
0.0772373
-0.000593387
0.0778071
-0.000569872
0.0783392
-0.000532058
0.0788137
-0.000474516
0.0792065
-0.000392766
0.0794917
-0.000285189
0.0796483
-0.000156649
0.0796797
-3.14152e-05
0.0796108
6.89122e-05
0.079488
0.000122862
0.0793264
0.000161568
0.079123
0.000203402
0.0788724
0.000250594
0.0785714
0.000300949
0.0782189
0.000352541
0.0778149
0.000404013
0.0773608
0.00045414
0.0768593
0.000501496
0.076315
0.000544251
0.0757348
0.000580174
0.075131
0.000603824
0.0745194
0.000611611
0.0739186
0.000600796
0.0733485
0.000570148
0.0728307
0.00051777
0.072386
0.000444668
0.0720295
0.000356556
0.0717656
0.0002639
0.0715884
0.000177178
0.0714839
0.000104498
0.071434
4.99015e-05
0.0714201
1.38803e-05
0.0714296
-9.48717e-06
0.0714544
-2.48072e-05
0.0714858
-3.13642e-05
0.0715185
-3.26922e-05
0.0715483
-2.98219e-05
0.0715721
-2.38638e-05
0.0715874
-1.52993e-05
0.0715922
-4.8068e-06
0.0715824
9.87721e-06
0.0715569
2.54488e-05
0.0715139
4.30387e-05
0.0714515
6.24267e-05
0.0713689
8.2571e-05
0.0712643
0.000104587
0.0711363
0.000127992
0.0709837
0.000152622
0.0708054
0.000178322
0.0706004
0.000204926
0.0703682
0.000232263
0.070108
0.000260146
0.0698196
0.000288401
0.0695027
0.00031693
0.0691569
0.000345752
0.0687819
0.000375004
0.0683771
0.00040485
0.0679417
0.000435354
0.0674755
0.000466252
0.0669787
0.000496783
0.066453
0.000525659
0.0659017
0.000551315
0.0653293
0.000572448
0.0647406
0.000588636
0.0641399
0.000600738
0.0635293
0.000610601
0.0629087
0.000620631
0.0622759
0.000632752
0.0616286
0.000647357
0.0609656
0.000662912
0.0602891
0.000676519
0.059604
0.000685104
0.0589172
0.000686799
0.0582352
0.000681988
0.0575619
0.000673342
0.056897
0.000664851
0.0562368
0.000660251
0.055575
0.000661765
0.0549054
0.000669631
0.0542228
0.000682603
0.053524
0.000698787
0.0528076
0.000716398
0.0520735
0.000734136
0.0513222
0.00075131
0.0505546
0.000767611
0.0497716
0.000782971
0.0489741
0.000797477
0.0481628
0.000811256
0.0473385
0.000824322
0.0465018
0.000836705
0.0456534
0.000848407
0.044794
0.000859376
0.0439244
0.000869602
0.0430454
0.000879066
0.0421576
0.000887735
0.041262
0.000895598
0.0403594
0.000902626
0.0394506
0.000908797
0.0385365
0.000914126
0.0376179
0.000918584
0.0366957
0.000922156
0.0357709
0.000924838
0.0348443
0.00092663
0.0339167
0.000927545
0.0329892
0.000927571
0.0320625
0.00092671
0.0311375
0.000925004
0.030215
0.00092244
0.029296
0.000919031
0.0283812
0.000914799
0.0274714
0.000909776
0.0265675
0.000903944
0.0256701
0.000897364
0.0247801
0.000890039
0.023898
0.000882041
0.0230247
0.000873359
0.0221606
0.000864028
0.0213065
0.000854101
0.0204631
0.000843437
0.0196304
0.000832661
0.0188093
0.000821094
0.0180003
0.000808992
0.0172038
0.000796553
0.0164201
0.000783727
0.0156495
0.000770541
0.0148925
0.000757016
0.0141492
0.000743287
0.0134199
0.000729274
0.012705
0.000714952
0.0120044
0.000700601
0.0113183
0.0006861
0.010647
0.000671342
0.00999032
0.000656633
0.0093484
0.000641915
0.0087214
0.000627006
0.00810923
0.000612172
0.00751175
0.000597477
0.00692902
0.000582729
0.00636088
0.000568142
0.00580736
0.000553519
0.00526812
0.000539238
0.00474334
0.000524779
0.0042325
0.000510846
0.00373552
0.000496975
0.00325227
0.000483249
0.00278244
0.000469834
0.00232587
0.000456568
0.00188236
0.000443512
0.0014511
0.000431258
0.00103234
0.000418763
0.000625569
0.000406768
0.000230797
0.000394773
-0.000152834
0.000383631
-0.000525247
0.000372413
-0.000887016
0.000361768
-0.0012385
0.000351487
-0.00158012
0.000341619
-0.00191222
0.000332101
-0.00223519
0.000322962
-0.00254946
0.00031428
-0.00285544
0.000305972
-0.00315352
0.000298089
-0.00344411
0.00029059
-0.00372759
0.000283478
-0.00400435
0.00027676
-0.00427475
0.000270394
-0.00453912
0.000264373
-0.00479782
0.000258704
-0.0050512
0.000253372
-0.0052996
0.0002484
-0.00554339
0.000243799
-0.00578299
0.000239594
-0.00601879
0.0002358
-0.00625125
0.000232456
-0.00648068
0.000229438
-0.00670732
0.000226639
-0.00693141
0.000224091
-0.0071529
0.000221482
-0.00737151
0.000218611
-0.00758675
0.000215243
-0.00779776
0.000211012
-0.00800348
0.00020572
-0.00820286
0.000199377
-0.00839482
0.000191957
-0.00857853
0.00018371
-0.00875361
0.00017508
-0.00892017
0.000166562
-0.00907883
0.000158658
-0.00923058
0.000151754
-0.00937665
0.000146066
-0.00951828
0.000141629
-0.00965648
0.000138207
-0.00979218
0.000135697
-0.00992582
0.000133641
-0.0100575
0.000131693
-0.0101873
0.000129747
-0.010315
0.000127745
-0.0104406
0.00012562
-0.0105641
0.000123479
-0.0106855
0.000121417
-0.0108052
0.000119683
-0.0109235
0.000118288
-0.0110407
0.00011725
-0.0111573
0.000116522
-0.0112733
0.000116041
-0.0113888
0.000115527
-0.0115039
0.000115074
-0.0116184
0.000114467
-0.0117323
0.000113889
-0.0118455
0.000113275
-0.0119582
0.000112695
-0.0120704
0.000112183
-0.0121822
0.000111812
-0.0122938
0.000111539
-0.0124051
0.00011137
-0.0125164
0.000111308
-0.0126278
0.000111347
-0.0127393
0.000111467
-0.012851
0.000111701
-0.0129629
0.000111956
-0.0130753
0.000112396
-0.0131883
0.000112943
-0.0133019
0.000113631
-0.0134164
0.000114496
-0.0135319
0.000115541
-0.0136486
0.000116682
-0.0137665
0.000117901
-0.0138856
0.000119117
-0.0140059
0.000120287
-0.0141273
0.000121383
-0.0142497
0.000122385
-0.014373
0.000123281
-0.014497
0.000124074
-0.0146218
0.000124758
-0.0147471
0.000125331
-0.0148729
0.000125808
-0.0149991
0.000126181
-0.0151256
0.000126446
-0.0152521
0.000126523
-0.0153787
0.000126571
-0.0155051
0.000126477
-0.0156314
0.000126259
-0.0157573
0.000125922
-0.0158827
0.00012544
-0.0160076
0.000124829
-0.0161316
0.000124057
-0.0162548
0.000123161
-0.0163769
0.000122131
-0.0164979
0.000120928
-0.0166174
0.000119586
-0.0167355
0.000118083
-0.0168519
0.000116424
-0.0169666
0.000114619
-0.0170792
0.000112647
-0.0171897
0.000110518
-0.0172979
0.000108206
-0.0174037
0.00010574
-0.0175068
0.000103101
-0.0176071
0.000100316
-0.0177044
9.73171e-05
-0.0177986
9.41695e-05
-0.0178894
9.0841e-05
-0.0179768
8.73364e-05
-0.0180604
8.36143e-05
-0.0181401
7.97198e-05
-0.0182158
7.56755e-05
-0.0182873
7.1485e-05
-0.0183543
6.70926e-05
-0.0184169
6.25826e-05
-0.0184749
5.79773e-05
-0.0185283
5.33528e-05
-0.0185771
4.88179e-05
-0.0186217
4.46043e-05
-0.0186631
4.14491e-05
-0.0187035
4.03327e-05
-0.0187451
4.16483e-05
-0.0187892
4.40536e-05
-0.0188345
4.52848e-05
-0.0188775
4.3018e-05
-0.0189144
3.68867e-05
-0.0189418
2.74513e-05
-0.0189591
1.72939e-05
-0.018966
6.92551e-06
-0.0189619
-4.13193e-06
-0.0189471
-1.47612e-05
-0.0189207
-2.64121e-05
-0.0188819
-3.88601e-05
-0.0188299
-5.19889e-05
-0.018764
-6.58688e-05
-0.0186837
-8.031e-05
-0.0185884
-9.52929e-05
-0.0184777
-0.000110727
-0.0183511
-0.000126528
-0.0182086
-0.000142557
-0.01805
-0.000158627
-0.0178753
-0.000174623
-0.0176848
-0.000190575
-0.0174783
-0.000206423
-0.0172561
-0.000222202
-0.0170184
-0.000237772
-0.0167652
-0.00025315
-0.0164968
-0.000268399
-0.0162133
-0.000283489
-0.015915
-0.000298331
-0.015602
-0.000312991
-0.0152746
-0.00032742
-0.0149329
-0.000341666
-0.0145772
-0.000355689
-0.0142077
-0.0003695
-0.0138248
-0.000382928
-0.0134286
-0.000396162
-0.0130195
-0.000409173
-0.0125976
-0.000421884
-0.0121633
-0.000434258
-0.0117171
-0.000446251
-0.0112591
-0.000457983
-0.0107898
-0.000469294
-0.0103096
-0.000480204
-0.00981887
-0.000490728
-0.00931793
-0.000500941
-0.00880711
-0.000510822
-0.00828669
-0.000520415
-0.00775668
-0.000530014
-0.00721729
-0.000539388
-0.00666866
-0.000548633
-0.00611124
-0.000557411
-0.00554531
-0.000565934
-0.00497029
-0.000575017
-0.00438437
-0.000585923
-0.00378503
-0.000599345
-0.00317031
-0.000614713
-0.00253629
-0.000634024
-0.00187222
-0.000664068
-0.00115963
-0.000712587
-0.000471871
-0.000687761
-0.000471871
-0.000468808
0.000572245
-0.000900277
0.000425561
-0.00136227
0.00045203
-0.00182622
0.000467276
-0.00228709
0.000466076
-0.00274623
0.000464602
-0.00320345
0.000461899
-0.00365824
0.000458039
-0.00410987
0.000453186
-0.00455721
0.000447164
-0.0049994
0.000439725
-0.00543507
0.000430792
-0.00586318
0.000420249
-0.00628266
0.000408115
-0.00669256
0.000394392
-0.00709208
0.000379203
-0.00748034
0.000362785
-0.00785709
0.000345178
-0.00822195
0.000326636
-0.0085746
0.000307498
-0.00891511
0.000287784
-0.00924355
0.000267575
-0.00955991
0.000247045
-0.00986446
0.0002263
-0.0101574
0.000205495
-0.0104392
0.000184808
-0.01071
0.000164121
-0.0109695
0.000143116
-0.0112165
0.000120786
-0.0114483
9.57893e-05
-0.011661
6.66731e-05
-0.0118497
3.2412e-05
-0.0120107
-6.47306e-06
-0.0121424
-4.82916e-05
-0.0122468
-8.99129e-05
-0.012329
-0.000128206
-0.0123971
-0.000159594
-0.0124622
-0.000180165
-0.0125373
-0.000186977
-0.012633
-0.000180942
-0.0127527
-0.000170458
-0.0128896
-0.000165542
-0.0130261
-0.000176007
-0.0131405
-0.000207731
-0.0132097
-0.000262789
-0.0132134
-0.000338848
-0.0131376
-0.000427226
-0.0129776
-0.000520704
-0.0127425
-0.000606705
-0.0124417
-0.00068212
-0.0120822
-0.000747986
-0.0116685
-0.000806345
-0.0112038
-0.00086033
-0.0106901
-0.000913196
-0.0101306
-0.000967319
-0.0095312
-0.00102341
-0.00890251
-0.00107936
-0.00825196
-0.00114117
-0.00759088
-0.0012063
-0.00693066
-0.00127235
-0.00627905
-0.00133523
-0.00563728
-0.0013891
-0.00500276
-0.00142339
-0.00436999
-0.00142958
-0.00373188
-0.00140877
-0.00308416
-0.00136864
-0.00242695
-0.00132051
-0.00176486
-0.00127589
-0.00110119
-0.0012446
-0.000435692
-0.00122951
0.000235103
-0.001228
0.00091362
-0.00123374
0.00160354
-0.00124546
0.00230696
-0.00126152
0.00302423
-0.00128041
0.00375495
-0.00130107
0.00449895
-0.0013232
0.00525606
-0.00134602
0.00602586
-0.00136873
0.00680772
-0.00139078
0.0076009
-0.00141184
0.00840458
-0.00143166
0.00921791
-0.00145001
0.0100399
-0.00146654
0.0108693
-0.00148088
0.011705
-0.00149278
0.0125462
-0.00150248
0.0133928
-0.00151078
0.0142454
-0.00151882
0.0151049
-0.00152731
0.0159715
-0.00153586
0.0168438
-0.0015426
0.0177183
-0.00154442
0.0185899
-0.00153809
0.0194533
-0.00152202
0.0203053
-0.00149799
0.0211467
-0.0014718
0.0219831
-0.00145205
0.0228242
-0.0014469
0.0236808
-0.00146035
0.0245613
-0.00148959
0.0254687
-0.00152397
0.0263982
-0.00154611
0.0273362
-0.00153512
0.0282601
-0.00147334
0.0291399
-0.00135465
0.0299412
-0.00118979
0.0306339
-0.00100421
0.0312015
-0.00082935
0.0316483
-0.000692375
0.0319969
-0.000606741
0.0322812
-0.000573501
0.0325371
-0.000585166
0.0327947
-0.000629641
0.0330739
-0.000693619
0.0333839
-0.000765324
0.0337255
-0.000836004
0.0340949
-0.000900392
0.0344859
-0.000956222
0.0348926
-0.00100318
0.03531
-0.00104204
0.0357342
-0.00107394
0.0361626
-0.00110002
0.0365934
-0.00112121
0.0370252
-0.00113829
0.0374574
-0.00115185
0.0378892
-0.00116234
0.0383201
-0.00117014
0.0387498
-0.00117566
0.0391781
-0.00117929
0.0396048
-0.00118135
0.0400298
-0.00118216
0.0404532
-0.00118201
0.0408751
-0.00118107
0.0412955
-0.00117951
0.0417144
-0.0011774
0.0421318
-0.00117487
0.042548
-0.00117198
0.042963
-0.00116888
0.0433773
-0.00116568
0.0437912
-0.00116248
0.0442049
-0.0011593
0.0446187
-0.00115604
0.0450323
-0.00115246
0.0454453
-0.00114825
0.0458568
-0.00114305
0.0462659
-0.00113662
0.0466716
-0.00112892
0.0470736
-0.00112033
0.0474725
-0.00111159
0.0478699
-0.0011038
0.0482688
-0.0010982
0.0486732
-0.00109595
0.0490877
-0.00109788
0.049517
-0.00110425
0.0499651
-0.00111467
0.0504352
-0.00112837
0.0509291
-0.00114436
0.0514476
-0.0011616
0.0519905
-0.00117911
0.0525568
-0.00119612
0.0531451
-0.00121191
0.0537538
-0.0012255
0.0543813
-0.00123524
0.0550266
-0.00123861
0.0556889
-0.00123216
0.0563687
-0.00121192
0.0570685
-0.00117424
0.0577927
-0.00111699
0.0585486
-0.00104116
0.0593445
-0.000952471
0.0601744
-0.000861376
0.0610183
-0.000774937
0.0618459
-0.000704717
0.0626593
-0.000651843
0.0634698
-0.000607144
0.0642827
-0.000562323
0.0650966
-0.000512873
0.0659055
-0.000456451
0.0667014
-0.000391848
0.0674742
-0.000318698
0.068213
-0.000237229
0.0689051
-0.000147865
0.0695351
-4.98233e-05
0.0700944
4.44933e-05
0.070561
0.000144979
0.0709123
0.000249529
0.0711341
0.000348339
0.0712157
0.000436158
0.071157
0.000503446
0.0709731
0.000540416
0.0706934
0.000543627
0.0703585
0.000512006
0.0700128
0.00045021
0.0696951
0.000367583
0.0694335
0.000275483
0.0692417
0.000182379
0.0691169
9.99467e-05
0.0690521
3.3415e-05
0.0690357
-1.62204e-05
0.0690531
-4.72548e-05
0.0690961
-6.68831e-05
0.0691555
-7.46716e-05
0.0692237
-7.30443e-05
0.0692966
-6.30026e-05
0.0693685
-4.64676e-05
0.0694355
-2.38965e-05
0.0694957
2.22228e-06
0.0695482
3.00218e-05
0.0695894
6.33625e-05
0.0696178
9.96469e-05
0.0696319
0.000138545
0.0696304
0.000179783
0.0696122
0.000223121
0.0695761
0.000268334
0.0695211
0.000315223
0.0694459
0.000363608
0.0693495
0.000413308
0.0692311
0.000464109
0.0690904
0.000515732
0.0689275
0.000567778
0.0687431
0.000619687
0.0685387
0.000670697
0.0683157
0.000719805
0.0680756
0.000765762
0.0678197
0.000807155
0.0675495
0.000842617
0.0672668
0.000871409
0.0669734
0.000894072
0.0666715
0.000912588
0.0663619
0.000930198
0.0660441
0.000950515
0.0657153
0.000976223
0.0653703
0.00100791
0.0650031
0.00104371
0.0646081
0.00108004
0.0641816
0.00111334
0.0637217
0.00114183
0.0632285
0.00116658
0.0627024
0.001191
0.0621434
0.00121927
0.0615506
0.00125452
0.0609226
0.00129765
0.0602579
0.0013473
0.0595559
0.00140076
0.0588172
0.00145507
0.0580435
0.00150786
0.0572371
0.00155767
0.0564009
0.00160384
0.0555376
0.00164633
0.0546496
0.0016854
0.0537395
0.00172141
0.0528091
0.00175469
0.0518603
0.0017855
0.0508947
0.00181399
0.0499139
0.00184026
0.0489191
0.00186436
0.0479118
0.00188632
0.0468934
0.00190615
0.0458652
0.00192383
0.0448284
0.00193939
0.0437844
0.00195281
0.0427344
0.0019641
0.0416798
0.00197324
0.0406217
0.00198025
0.0395614
0.00198513
0.0385001
0.00198791
0.037439
0.00198861
0.0363794
0.00198724
0.0353222
0.00198385
0.0342688
0.00197846
0.0332201
0.00197115
0.0321772
0.00196191
0.0311412
0.00195084
0.0301129
0.00193799
0.0290934
0.00192343
0.0280836
0.00190722
0.0270842
0.00188942
0.0260962
0.00187009
0.0251201
0.00184937
0.0241569
0.00182727
0.0232071
0.00180388
0.0222712
0.0017794
0.02135
0.0017538
0.020444
0.00172714
0.0195535
0.00169947
0.0186791
0.00167097
0.017821
0.00164178
0.0169798
0.0016118
0.0161555
0.00158124
0.0153487
0.00155015
0.0145594
0.00151858
0.0137876
0.00148669
0.0130338
0.00145444
0.0122978
0.00142211
0.0115801
0.00138906
0.0108802
0.00135644
0.0101983
0.00132388
0.0095347
0.00129059
0.00888882
0.00125805
0.00826087
0.00122543
0.00765069
0.0011929
0.0070581
0.00116074
0.00648316
0.00112846
0.00592562
0.00109678
0.00538473
0.00106567
0.00486093
0.00103464
0.00435375
0.00100415
0.00386293
0.000974071
0.00338823
0.000944537
0.00292932
0.000915479
0.00248582
0.000887006
0.0020578
0.000859286
0.00164455
0.000832007
0.00124608
0.000805237
0.00086127
0.000779586
0.000490579
0.000754322
0.000133104
0.000729889
-0.000211248
0.00070612
-0.000542853
0.000683092
-0.000862138
0.000660904
-0.00116951
0.000639468
-0.00146545
0.000618909
-0.00175021
0.000599038
-0.00202429
0.00058005
-0.00228802
0.000561818
-0.00254182
0.000544393
-0.0027861
0.000527757
-0.00302121
0.000511864
-0.00324756
0.000496744
-0.00346553
0.000482347
-0.00367547
0.000468648
-0.00387776
0.000455659
-0.00407274
0.00044338
-0.00426073
0.000431788
-0.00444192
0.000420787
-0.00461657
0.000410444
-0.00478477
0.000400664
-0.00494663
0.000391293
-0.00510221
0.000382219
-0.00525156
0.000373445
-0.00539464
0.000364559
-0.00553153
0.000355503
-0.00566226
0.000345969
-0.00578716
0.000335912
-0.00590665
0.00032521
-0.00602123
0.000313962
-0.00613161
0.000302331
-0.00623857
0.000290675
-0.00634297
0.000279481
-0.00644559
0.000269175
-0.00654706
0.00026013
-0.006648
0.000252692
-0.00674878
0.000246851
-0.00684979
0.000242644
-0.00695137
0.000239782
-0.00705351
0.000237843
-0.00715639
0.000236517
-0.00725999
0.000235295
-0.00736432
0.000234071
-0.00746938
0.000232804
-0.00757508
0.000231325
-0.00768136
0.000229762
-0.00778797
0.000228026
-0.0078949
0.000226609
-0.00800202
0.000225409
-0.00810933
0.00022456
-0.00821678
0.000223971
-0.00832439
0.000223652
-0.00843222
0.000223359
-0.00854012
0.000222969
-0.008648
0.000222349
-0.00875583
0.000221722
-0.00886353
0.000220975
-0.00897099
0.000220158
-0.0090783
0.00021949
-0.00918541
0.000218924
-0.00929245
0.000218581
-0.00939952
0.000218434
-0.00950672
0.000218509
-0.00961415
0.000218775
-0.00972192
0.000219245
-0.0098302
0.000219981
-0.00993929
0.000221042
-0.0100491
0.000222255
-0.0101599
0.000223744
-0.0102718
0.000225455
-0.0103846
0.000227371
-0.0104985
0.000229424
-0.0106134
0.000231555
-0.0107292
0.000233671
-0.0108458
0.000235758
-0.0109633
0.000237803
-0.0110817
0.000239788
-0.0112011
0.000241702
-0.0113213
0.000243535
-0.0114425
0.000245274
-0.0115647
0.000246917
-0.0116878
0.000248442
-0.0118118
0.000249844
-0.0119367
0.000251102
-0.0120625
0.000252175
-0.012189
0.000253058
-0.0123162
0.000253793
-0.012444
0.000254297
-0.0125723
0.000254566
-0.012701
0.000254593
-0.0128299
0.000254361
-0.0129589
0.000253832
-0.0130879
0.000253007
-0.0132166
0.00025188
-0.0133449
0.000250421
-0.0134726
0.000248614
-0.0135995
0.000246449
-0.0137253
0.000243929
-0.0138499
0.000241019
-0.013973
0.000237719
-0.0140944
0.000234023
-0.0142138
0.000229925
-0.014331
0.000225432
-0.0144458
0.000220492
-0.0145578
0.000215127
-0.0146668
0.000209352
-0.0147726
0.000203121
-0.0148749
0.000196433
-0.0149734
0.000189326
-0.0150678
0.000181763
-0.0151579
0.000173676
-0.0152433
0.000165204
-0.0153239
0.00015627
-0.0153994
0.000146917
-0.0154695
0.000137192
-0.0155339
0.000127049
-0.0155927
0.000116706
-0.0156454
0.000106113
-0.0156922
9.55629e-05
-0.0157328
8.52745e-05
-0.0157668
7.54433e-05
-0.0157926
6.60914e-05
-0.015807
5.60561e-05
-0.0158068
4.38432e-05
-0.0157899
2.83976e-05
-0.0157571
1.02509e-05
-0.0157129
-7.39008e-06
-0.0156573
-2.81299e-05
-0.015592
-4.79874e-05
-0.0155173
-6.77237e-05
-0.0154338
-8.76528e-05
-0.015341
-0.000107628
-0.0152391
-0.000128291
-0.0151284
-0.000149559
-0.0150092
-0.000171205
-0.0148818
-0.000193196
-0.0147465
-0.000215616
-0.0146034
-0.000238402
-0.0144527
-0.000261436
-0.0142946
-0.000284618
-0.0141291
-0.000308042
-0.0139562
-0.00033158
-0.0137755
-0.000355302
-0.0135871
-0.000379008
-0.0133908
-0.000402648
-0.0131866
-0.000426414
-0.0129743
-0.00045013
-0.0127538
-0.000473635
-0.0125251
-0.000497046
-0.0122884
-0.000520219
-0.0120435
-0.000543235
-0.0117905
-0.000565974
-0.0115295
-0.000588493
-0.0112605
-0.000610659
-0.0109836
-0.000632549
-0.0106989
-0.000654154
-0.0104065
-0.000675392
-0.0101065
-0.000696107
-0.00979892
-0.000716786
-0.00948381
-0.000736999
-0.00916116
-0.000756909
-0.00883099
-0.00077642
-0.00849335
-0.000795619
-0.00814811
-0.000814531
-0.00779534
-0.000832979
-0.00743497
-0.000851091
-0.00706709
-0.00086883
-0.00669162
-0.000886284
-0.0063086
-0.000903436
-0.00591791
-0.000920705
-0.00551939
-0.000937907
-0.00511269
-0.000955337
-0.00469724
-0.000972855
-0.00427333
-0.000989847
-0.00384318
-0.00100517
-0.00341234
-0.00101676
-0.00298869
-0.00102299
-0.00257249
-0.00103091
-0.00213907
-0.00106745
-0.00162716
-0.00117598
-0.000994895
-0.00134485
-0.000329431
-0.00135323
-0.000801302
-0.000589266
0.00116151
-0.00113007
0.000966368
-0.00172459
0.00104654
-0.00232853
0.00107122
-0.00292839
0.00106594
-0.00352082
0.00105703
-0.0041042
0.00104528
-0.00467626
0.0010301
-0.00523464
0.00101156
-0.00577712
0.000989649
-0.00630192
0.000964519
-0.0068074
0.000936271
-0.00729238
0.000905237
-0.00775614
0.000871873
-0.00819827
0.00083652
-0.00861882
0.000799757
-0.00901814
0.000762106
-0.00939694
0.000723976
-0.00975593
0.000685621
-0.0100958
0.000647379
-0.0104174
0.000609341
-0.0107213
0.000571529
-0.0110083
0.000533976
-0.0112784
0.0004965
-0.0115319
0.000458993
-0.0117683
0.000421202
-0.0119868
0.000382611
-0.0121862
0.000342512
-0.0123656
0.000300109
-0.0125246
0.000254807
-0.0126644
0.000206544
-0.0127881
0.000156071
-0.0128995
0.000104962
-0.013003
5.51724e-05
-0.0131008
7.8566e-06
-0.0131975
-3.1436e-05
-0.0132923
-6.47986e-05
-0.0133784
-9.41154e-05
-0.0134438
-0.000121525
-0.0134722
-0.000152534
-0.0134492
-0.000193523
-0.0133618
-0.000252955
-0.0132015
-0.000336232
-0.0129665
-0.000442796
-0.0126633
-0.000565984
-0.0123072
-0.000694968
-0.0119176
-0.000816811
-0.0115106
-0.000927723
-0.0110942
-0.00102307
-0.0106735
-0.00110284
-0.0102509
-0.00117056
-0.00982655
-0.00123068
-0.00940044
-0.00128644
-0.00897393
-0.00133971
-0.00854943
-0.00139181
-0.00812899
-0.00144384
-0.00771181
-0.00149654
-0.00730006
-0.00155292
-0.0068924
-0.00161396
-0.00648646
-0.00167829
-0.00607905
-0.00174265
-0.00566672
-0.00180144
-0.00524309
-0.00184703
-0.0047977
-0.00187497
-0.00432197
-0.0018845
-0.00380866
-0.00188195
-0.00325545
-0.00187372
-0.002666
-0.00186535
-0.00204689
-0.00186371
-0.00140557
-0.00187084
-0.000748046
-0.00188552
-7.59277e-05
-0.00190586
0.000608616
-0.00193001
0.00130343
-0.00195633
0.0020072
-0.00198418
0.00271955
-0.00201343
0.00343957
-0.00204321
0.00416639
-0.00207284
0.00489944
-0.00210178
0.00563831
-0.00212966
0.00638269
-0.00215621
0.00713231
-0.00218128
0.00788701
-0.00220471
0.00864679
-0.00222632
0.0094119
-0.00224599
0.0101828
-0.00226368
0.0109599
-0.00227962
0.0117433
-0.00229411
0.012532
-0.00230753
0.0133245
-0.00231986
0.014119
-0.00233036
0.0149139
-0.0023375
0.0157089
-0.00233936
0.0165052
-0.00233438
0.0173054
-0.00232231
0.0181124
-0.00230499
0.0189271
-0.00228651
0.0197474
-0.00227226
0.0205674
-0.00226692
0.021379
-0.00227196
0.0221736
-0.00228425
0.0229454
-0.00229571
0.0236936
-0.00229432
0.0244247
-0.0022662
0.0251508
-0.00219943
0.025885
-0.00208889
0.0266351
-0.00193983
0.0274001
-0.0017693
0.0281729
-0.00160209
0.0289426
-0.00146209
0.0297004
-0.00136454
0.0304403
-0.00131335
0.0311581
-0.001303
0.0318509
-0.00132245
0.0325167
-0.00135943
0.0331548
-0.00140343
0.033766
-0.0014472
0.0343523
-0.00148673
0.0349166
-0.00152053
0.0354621
-0.00154863
0.0359917
-0.00157167
0.0365082
-0.00159045
0.0370138
-0.0016056
0.0375102
-0.00161758
0.0379986
-0.00162666
0.0384798
-0.00163311
0.0389547
-0.00163716
0.0394236
-0.00163911
0.0398872
-0.00163928
0.0403459
-0.00163801
0.0408002
-0.00163564
0.0412505
-0.00163243
0.0416971
-0.00162857
0.0421402
-0.0016242
0.0425801
-0.00161941
0.0430169
-0.00161427
0.0434509
-0.00160884
0.0438821
-0.0016032
0.0443107
-0.0015974
0.0447364
-0.00159142
0.0451591
-0.00158516
0.0455782
-0.0015784
0.0459929
-0.00157082
0.0464026
-0.00156207
0.0468063
-0.00155195
0.0472038
-0.00154058
0.0475957
-0.00152855
0.0479838
-0.00151696
0.0483708
-0.00150733
0.0487605
-0.00150137
0.0491573
-0.0015006
0.049565
-0.00150591
0.0499864
-0.0015173
0.0504223
-0.00153377
0.0508715
-0.00155344
0.0513307
-0.00157393
0.0517952
-0.00159286
0.0522591
-0.0016083
0.0527166
-0.00161909
0.0531624
-0.00162484
0.0535921
-0.00162585
0.054003
-0.00162277
0.0543936
-0.00161611
0.0547641
-0.00160581
0.0551165
-0.00159096
0.0554542
-0.00156984
0.0557824
-0.00154012
0.0561077
-0.00149963
0.0564379
-0.00144719
0.0567805
-0.00138369
0.0571407
-0.00131265
0.0575185
-0.00123923
0.0579118
-0.0011682
0.0583133
-0.00110622
0.0587169
-0.00105543
0.0591206
-0.00101085
0.0595249
-0.000966652
0.0599313
-0.000919252
0.0603417
-0.000866869
0.0607586
-0.000808741
0.0611847
-0.000744786
0.0616228
-0.000675379
0.0620759
-0.000600954
0.0625476
-0.00052153
0.0630318
-0.000439706
0.063531
-0.000354243
0.0640446
-0.000264051
0.0645618
-0.000168803
0.0650681
-7.02304e-05
0.065553
1.85721e-05
0.0660081
8.53017e-05
0.0664238
0.000128002
0.0667969
0.000138829
0.0671289
0.000118291
0.0674227
7.37405e-05
0.0676798
1.84016e-05
0.0679066
-4.44053e-05
0.0681071
-0.000100626
0.068282
-0.000141479
0.068433
-0.000167169
0.0685641
-0.000178337
0.0686752
-0.000177987
0.0687682
-0.000167718
0.0688448
-0.000149598
0.0689068
-0.00012504
0.0689553
-9.49829e-05
0.0689917
-6.02563e-05
0.0690162
-2.23211e-05
0.0690245
2.17004e-05
0.0690206
6.73155e-05
0.0690043
0.000115972
0.0689754
0.0001674
0.0689339
0.000221326
0.0688795
0.000277481
0.0688122
0.00033567
0.0687316
0.000395748
0.0686376
0.000457611
0.0685298
0.000521152
0.0684077
0.000586208
0.068271
0.000652421
0.0681196
0.000719137
0.067954
0.000785356
0.0677749
0.000849804
0.0675836
0.000911082
0.0673814
0.000967955
0.0671688
0.00101971
0.0669451
0.0010664
0.0667075
0.00110901
0.0664521
0.00114942
0.0661746
0.0011901
0.0658712
0.00123357
0.0655399
0.00128181
0.0651805
0.00133563
0.064794
0.00139444
0.0643813
0.00145639
0.0639422
0.00151918
0.0634745
0.00158102
0.0629749
0.00164146
0.0624397
0.0017017
0.0618667
0.00176402
0.0612553
0.00183068
0.0606069
0.00190291
0.0599242
0.00198039
0.0592101
0.00206143
0.0584672
0.00214365
0.0576976
0.00222469
0.0569027
0.0023027
0.0560839
0.0023765
0.0552422
0.00244552
0.0543789
0.00250969
0.0534951
0.00256915
0.0525923
0.00262421
0.0516718
0.00267516
0.0507351
0.0027222
0.0497836
0.00276552
0.0488186
0.00280527
0.0478414
0.00284151
0.0468535
0.0028743
0.0458559
0.00290367
0.0448501
0.00292964
0.0438373
0.00295223
0.0428186
0.00297149
0.0417953
0.00298739
0.0407686
0.00299998
0.0397396
0.00300926
0.0387094
0.00301529
0.0376792
0.00301809
0.0366501
0.00301771
0.0356232
0.00301423
0.0345993
0.00300766
0.0335797
0.0029981
0.0325652
0.00298562
0.0315568
0.00297033
0.0305554
0.0029523
0.0295618
0.0029316
0.0285768
0.00290837
0.0276013
0.00288272
0.026636
0.0028547
0.0256816
0.00282449
0.0247388
0.00279221
0.0238081
0.00275793
0.0228902
0.00272179
0.0219857
0.00268397