/*--------------------------------*- C++ -*----------------------------------*\
| =========                 |                                                 |
| \\      /  F ield         | OpenFOAM: The Open Source CFD Toolbox           |
|  \\    /   O peration     | Version:  v2006                                 |
|   \\  /    A nd           | Website:  www.openfoam.com                      |
|    \\/     M anipulation  |                                                 |
\*---------------------------------------------------------------------------*/
FoamFile
{
    version     2.0;
    format      ascii;
    class       surfaceScalarField;
    location    "12";
    object      alphaPhi0.water;
}
// * * * * * * * * * * * * * * * * * * * * * * * * * * * * * * * * * * * * * //

dimensions      [0 3 -1 0 0 0 0];
oriented        oriented;


internalField   nonuniform List<scalar> 
104500
(
1.73864e-05
-1.73864e-05
4.96833e-05
-3.22969e-05
7.97487e-05
-3.00653e-05
0.000106093
-2.63441e-05
0.000130614
-2.4521e-05
0.000154525
-2.39111e-05
0.000178168
-2.36435e-05
0.000201533
-2.33643e-05
0.000224537
-2.30039e-05
0.000247116
-2.2579e-05
0.000269231
-2.21159e-05
0.000290862
-2.16305e-05
0.000311992
-2.11303e-05
0.000332612
-2.06202e-05
0.000352717
-2.01041e-05
0.000372303
-1.95863e-05
0.000391373
-1.90707e-05
0.000409934
-1.85606e-05
0.000427994
-1.80601e-05
0.000445566
-1.75722e-05
0.000462666
-1.70995e-05
0.00047931
-1.66443e-05
0.000495518
-1.62079e-05
0.000511309
-1.5791e-05
0.000526703
-1.53943e-05
0.000541722
-1.50181e-05
0.000556384
-1.46624e-05
0.00057071
-1.4326e-05
0.000584718
-1.40077e-05
0.000598424
-1.37064e-05
0.000611845
-1.34211e-05
0.000624996
-1.31504e-05
0.000637889
-1.28931e-05
0.000650536
-1.26475e-05
0.000662948
-1.24116e-05
0.000675131
-1.21828e-05
0.000687087
-1.19568e-05
0.000698815
-1.17273e-05
0.000710301
-1.14862e-05
0.000721529
-1.12279e-05
0.000732477
-1.09486e-05
0.000743125
-1.06478e-05
0.000753453
-1.0328e-05
0.000763448
-9.995e-06
0.000773104
-9.65581e-06
0.000782421
-9.31736e-06
0.000791406
-8.98453e-06
0.000800065
-8.65894e-06
0.000808403
-8.3384e-06
0.000816421
-8.01734e-06
0.000824109
-7.68845e-06
0.000831454
-7.34539e-06
0.000838441
-6.98681e-06
0.000845062
-6.62052e-06
0.000851328
-6.26647e-06
0.000857285
-5.95631e-06
0.000863013
-5.72852e-06
0.000868633
-5.61965e-06
0.000874287
-5.65443e-06
0.000880126
-5.83845e-06
0.000886282
-6.15638e-06
0.000892858
-6.57638e-06
0.000899917
-7.05866e-06
0.000907482
-7.56461e-06
0.000915545
-8.06358e-06
0.000924081
-8.53565e-06
0.000933052
-8.97103e-06
0.000942419
-9.36741e-06
0.000952146
-9.72692e-06
0.0009622
-1.00537e-05
0.000972552
-1.03524e-05
0.00098318
-1.06276e-05
0.000994063
-1.08834e-05
0.00100519
-1.11234e-05
0.00101654
-1.13504e-05
0.0010281
-1.15666e-05
0.00103988
-1.17732e-05
0.00105185
-1.19707e-05
0.00106401
-1.21593e-05
0.00107635
-1.23395e-05
0.00108886
-1.25124e-05
0.00110154
-1.268e-05
0.00111438
-1.28452e-05
0.0011274
-1.30113e-05
0.00114058
-1.31814e-05
0.00115393
-1.33578e-05
0.00116748
-1.35411e-05
0.00118121
-1.37301e-05
0.00119513
-1.39217e-05
0.00120924
-1.41113e-05
0.00122353
-1.42933e-05
0.00123799
-1.44622e-05
0.00125261
-1.46135e-05
0.00126735
-1.47438e-05
0.0012822
-1.48518e-05
0.00129714
-1.49382e-05
0.00131215
-1.50047e-05
0.0013272
-1.50542e-05
0.00134229
-1.509e-05
0.00135741
-1.51148e-05
0.00137254
-1.51311e-05
0.00138768
-1.51403e-05
0.00140282
-1.51434e-05
0.00141796
-1.51405e-05
0.00143309
-1.51311e-05
0.00144821
-1.51147e-05
0.0014633
-1.50897e-05
0.00147835
-1.50544e-05
0.00149336
-1.5006e-05
0.0015083
-1.49415e-05
0.00152316
-1.48589e-05
0.00153791
-1.47516e-05
0.00155251
-1.46004e-05
0.00156689
-1.43771e-05
0.00158095
-1.40674e-05
0.00159465
-1.3692e-05
0.00160794
-1.32972e-05
0.00162087
-1.29249e-05
0.00163346
-1.25917e-05
0.00164575
-1.22917e-05
0.00165776
-1.20107e-05
0.0016695
-1.1737e-05
0.00168096
-1.1464e-05
0.00169215
-1.1188e-05
0.00170306
-1.09066e-05
0.00171368
-1.0618e-05
0.001724
-1.03205e-05
0.00173401
-1.00128e-05
0.0017437
-9.69376e-06
0.00175307
-9.36313e-06
0.00176209
-9.02045e-06
0.00177075
-8.66517e-06
0.00177905
-8.29724e-06
0.00178696
-7.91629e-06
0.00179449
-7.52258e-06
0.0018016
-7.11614e-06
0.0018083
-6.69699e-06
0.00181457
-6.26558e-06
0.00182039
-5.82212e-06
0.00182576
-5.36767e-06
0.00183066
-4.90304e-06
0.00183509
-4.4299e-06
0.00183904
-3.95121e-06
0.00184251
-3.46873e-06
0.00184549
-2.98495e-06
0.00184799
-2.50125e-06
0.00185001
-2.01646e-06
0.00185154
-1.52582e-06
0.00185256
-1.02132e-06
0.00185305
-4.95213e-07
0.00185291
1.45789e-07
0.00185202
8.88066e-07
0.00185031
1.7073e-06
0.00184768
2.63365e-06
0.00184402
3.66241e-06
0.00183925
4.76919e-06
0.00183336
5.88545e-06
0.00182636
7.00219e-06
0.00181825
8.11005e-06
0.00180905
9.19964e-06
0.00179878
1.02735e-05
0.00178743
1.13433e-05
0.00177501
1.24242e-05
0.00176148
1.35293e-05
0.00174681
1.46655e-05
0.00173099
1.58282e-05
0.00171399
1.69933e-05
0.00169588
1.811e-05
0.00167678
1.91053e-05
0.00165687
1.99037e-05
0.00163641
2.04594e-05
0.00161562
2.07947e-05
0.00159465
2.09709e-05
0.00157362
2.10246e-05
0.00155265
2.09782e-05
0.00153182
2.08234e-05
0.00151129
2.05288e-05
0.00149123
2.00612e-05
0.00147182
1.94107e-05
0.00145321
1.86091e-05
0.00143548
1.77321e-05
0.0014186
1.68833e-05
0.00140243
1.61643e-05
0.00138679
1.56441e-05
0.00137145
1.53428e-05
0.00135621
1.52346e-05
0.00134095
1.52655e-05
0.00132557
1.5375e-05
0.00131006
1.55122e-05
0.00129442
1.56413e-05
0.00127868
1.57409e-05
0.00126288
1.5799e-05
0.00124707
1.58096e-05
0.0012313
1.57697e-05
0.00121562
1.56777e-05
0.00120009
1.55324e-05
0.00118476
1.53322e-05
0.00116968
1.50752e-05
0.00115492
1.47591e-05
0.00114054
1.43822e-05
0.00112659
1.39443e-05
0.00111315
1.34491e-05
0.00110024
1.29063e-05
0.00108791
1.2333e-05
0.00107615
1.1757e-05
0.00106493
1.12169e-05
0.00105418
1.07508e-05
0.0010438
1.0382e-05
0.00103368
1.01159e-05
0.00102373
9.95122e-06
0.00101385
9.88674e-06
0.00100393
9.91752e-06
0.000993902
1.00268e-05
0.000983719
1.01827e-05
0.000973374
1.03443e-05
0.000962903
1.04716e-05
0.000952369
1.05343e-05
0.000941852
1.05165e-05
0.000931435
1.04171e-05
0.000921188
1.02468e-05
0.000911165
1.00232e-05
0.0009014
9.76527e-06
0.00089191
9.48939e-06
0.000882703
9.20766e-06
0.000873776
8.92707e-06
0.000865125
8.65065e-06
0.000856746
8.37848e-06
0.000848637
8.10967e-06
0.000840793
7.84338e-06
0.000833214
7.57938e-06
0.000825895
7.3186e-06
0.000818833
7.06227e-06
0.000812022
6.81146e-06
0.000805454
6.56794e-06
0.000799121
6.33263e-06
0.000793015
6.10624e-06
0.000787126
5.88895e-06
0.000781444
5.68149e-06
0.000775961
5.48387e-06
0.000770664
5.29609e-06
0.000765546
5.11851e-06
0.000760594
4.95216e-06
0.000755796
4.79823e-06
0.00075114
4.65517e-06
0.000746615
4.52538e-06
0.000742205
4.41011e-06
0.000737897
4.30818e-06
0.000733673
4.22323e-06
0.000729517
4.15626e-06
0.00072541
4.10755e-06
0.000721329
4.08067e-06
0.000717252
4.07666e-06
0.000713152
4.09985e-06
0.000708998
4.15414e-06
0.000704755
4.24354e-06
0.000700381
4.37402e-06
0.00069583
4.55049e-06
0.000691052
4.7782e-06
0.000685991
5.06142e-06
0.000680599
5.39124e-06
0.000674853
5.74627e-06
0.000668738
6.11466e-06
0.000662237
6.50134e-06
0.000655324
6.91347e-06
0.000647973
7.35059e-06
0.000640167
7.80654e-06
0.000631892
8.27427e-06
0.000623142
8.75005e-06
0.000613905
9.23729e-06
0.000604156
9.74894e-06
0.000593849
1.03071e-05
0.00058291
1.0939e-05
0.000571238
1.16716e-05
0.000558712
1.2526e-05
0.000545198
1.35139e-05
0.000530561
1.46379e-05
0.000514666
1.58942e-05
0.000497392
1.72742e-05
0.000478626
1.87656e-05
0.000458276
2.03503e-05
0.000436276
2.2e-05
0.000412605
2.36713e-05
0.000387295
2.531e-05
0.00036044
2.68545e-05
0.000332194
2.82462e-05
0.000302757
2.94373e-05
0.000272372
3.03848e-05
0.000241267
3.11049e-05
0.000209714
3.15531e-05
0.000178045
3.16695e-05
0.000146642
3.14027e-05
0.000115957
3.06848e-05
8.65608e-05
2.93963e-05
5.91858e-05
2.7375e-05
3.46704e-05
2.45154e-05
1.37656e-05
2.09048e-05
-3.0959e-06
1.68615e-05
-1.60437e-05
1.29478e-05
-2.57792e-05
9.73544e-06
-3.33327e-05
7.55352e-06
-3.97115e-05
6.37881e-06
-4.56997e-05
5.98818e-06
-5.17193e-05
6.01958e-06
-5.78791e-05
6.15987e-06
-6.40821e-05
6.20301e-06
-7.01434e-05
6.06124e-06
-7.58698e-05
5.72639e-06
-8.1091e-05
5.22128e-06
-8.57202e-05
4.62921e-06
-8.97192e-05
3.99897e-06
-9.30713e-05
3.35204e-06
-9.57658e-05
2.69453e-06
-9.77982e-05
2.03239e-06
-9.91825e-05
1.38429e-06
-9.99604e-05
7.77874e-07
-0.000100202
2.41426e-07
-0.000100008
-1.93947e-07
-9.94404e-05
-5.67434e-07
-9.85625e-05
-8.77903e-07
-9.74345e-05
-1.12796e-06
-9.61026e-05
-1.33194e-06
-9.46004e-05
-1.50218e-06
-9.29605e-05
-1.6399e-06
-9.12122e-05
-1.74834e-06
-8.93765e-05
-1.83567e-06
-8.74695e-05
-1.90697e-06
-8.55016e-05
-1.96791e-06
-8.34746e-05
-2.02705e-06
-8.13962e-05
-2.07842e-06
-7.92681e-05
-2.12808e-06
-7.70876e-05
-2.18048e-06
-7.48463e-05
-2.24129e-06
-7.25245e-05
-2.32183e-06
-7.01019e-05
-2.42256e-06
-6.75486e-05
-2.55334e-06
-6.4834e-05
-2.71452e-06
-6.19252e-05
-2.90888e-06
-5.87886e-05
-3.13657e-06
-5.53936e-05
-3.39504e-06
-5.17134e-05
-3.68015e-06
-4.77329e-05
-3.98046e-06
-4.34541e-05
-4.27885e-06
-3.88978e-05
-4.55633e-06
-3.40841e-05
-4.81371e-06
-2.89937e-05
-5.09037e-06
-2.34865e-05
-5.50723e-06
-1.73619e-05
-6.12454e-06
-1.01511e-05
-7.21085e-06
-2.21171e-06
-7.93935e-06
-2.21171e-06
7.76159e-06
-2.5148e-05
2.89677e-05
-5.35031e-05
4.65654e-05
-4.7663e-05
6.00741e-05
-3.98528e-05
7.19899e-05
-3.64368e-05
8.36847e-05
-3.5606e-05
9.53916e-05
-3.53504e-05
0.000106957
-3.49297e-05
0.000118258
-3.43047e-05
0.000129261
-3.35823e-05
0.000139971
-3.28259e-05
0.000150395
-3.20549e-05
0.000160537
-3.12721e-05
0.000170399
-3.04821e-05
0.000179987
-2.96915e-05
0.000189309
-2.89091e-05
0.000198383
-2.81446e-05
0.000207228
-2.74057e-05
0.000215867
-2.66988e-05
0.000224325
-2.60305e-05
0.000232633
-2.54068e-05
0.000240819
-2.48308e-05
0.000248917
-2.43058e-05
0.000256961
-2.38346e-05
0.000264985
-2.34182e-05
0.000273023
-2.30566e-05
0.000281109
-2.27481e-05
0.000289273
-2.24902e-05
0.000297545
-2.22797e-05
0.000305952
-2.21135e-05
0.000314519
-2.19883e-05
0.000323269
-2.19e-05
0.00033222
-2.18436e-05
0.000341385
-2.18131e-05
0.000350775
-2.18014e-05
0.000360392
-2.18001e-05
0.000370236
-2.18007e-05
0.000380303
-2.17941e-05
0.000390589
-2.17721e-05
0.00040109
-2.17285e-05
0.000411801
-2.166e-05
0.000422719
-2.15663e-05
0.000433841
-2.14499e-05
0.000445161
-2.13145e-05
0.000456669
-2.11641e-05
0.000468354
-2.10025e-05
0.000480202
-2.08322e-05
0.000492197
-2.06542e-05
0.000504327
-2.04678e-05
0.000516581
-2.02714e-05
0.000528956
-2.00637e-05
0.000541455
-1.98447e-05
0.000554086
-1.96172e-05
0.000566853
-1.9388e-05
0.000579754
-1.91678e-05
0.000592768
-1.89704e-05
0.00060585
-1.88101e-05
0.00061893
-1.86997e-05
0.000631923
-1.86474e-05
0.00064474
-1.86556e-05
0.000657304
-1.87206e-05
0.000669562
-1.88338e-05
0.000681487
-1.89838e-05
0.000693081
-1.91586e-05
0.000704365
-1.93478e-05
0.000715373
-1.95434e-05
0.000726142
-1.97401e-05
0.00073671
-1.99353e-05
0.000747111
-2.01277e-05
0.000757375
-2.03177e-05
0.000767528
-2.05061e-05
0.000777595
-2.06939e-05
0.000787594
-2.08825e-05
0.000797543
-2.10729e-05
0.000807459
-2.12663e-05
0.000817356
-2.14632e-05
0.000827247
-2.16642e-05
0.000837145
-2.18693e-05
0.000847065
-2.20789e-05
0.000857018
-2.22929e-05
0.000867018
-2.25122e-05
0.000877076
-2.27375e-05
0.000887201
-2.29702e-05
0.0008974
-2.32111e-05
0.00090768
-2.34608e-05
0.000918041
-2.37186e-05
0.000928482
-2.39824e-05
0.000939
-2.42485e-05
0.00094959
-2.45119e-05
0.000960246
-2.47671e-05
0.000970961
-2.50081e-05
0.000981729
-2.523e-05
0.000992544
-2.54287e-05
0.0010034
-2.56019e-05
0.0010143
-2.57487e-05
0.00102523
-2.58696e-05
0.00103619
-2.59662e-05
0.00104718
-2.60404e-05
0.00105818
-2.60943e-05
0.0010692
-2.61298e-05
0.00108021
-2.61484e-05
0.00109123
-2.61512e-05
0.00110222
-2.61388e-05
0.00111319
-2.61116e-05
0.00112413
-2.60699e-05
0.00113503
-2.60141e-05
0.00114589
-2.59448e-05
0.00115669
-2.58627e-05
0.00116746
-2.5769e-05
0.00117818
-2.5666e-05
0.00118888
-2.55551e-05
0.00119956
-2.54354e-05
0.00121026
-2.53023e-05
0.00122103
-2.51488e-05
0.00123193
-2.49668e-05
0.00124299
-2.47509e-05
0.0012542
-2.44994e-05
0.00126548
-2.4214e-05
0.00127679
-2.38987e-05
0.00128806
-2.35577e-05
0.00129924
-2.31937e-05
0.00131031
-2.28087e-05
0.00132125
-2.24032e-05
0.00133204
-2.19776e-05
0.00134267
-2.15319e-05
0.00135311
-2.10663e-05
0.00136338
-2.05814e-05
0.00137344
-2.00778e-05
0.0013833
-1.95556e-05
0.00139295
-1.90142e-05
0.00140239
-1.84541e-05
0.0014116
-1.78761e-05
0.00142058
-1.72804e-05
0.00142933
-1.66678e-05
0.00143785
-1.6039e-05
0.00144613
-1.53946e-05
0.00145417
-1.47351e-05
0.00146196
-1.40616e-05
0.00146952
-1.33765e-05
0.00147683
-1.26798e-05
0.0014839
-1.19749e-05
0.00149073
-1.12634e-05
0.00149733
-1.05496e-05
0.0015037
-9.83704e-06
0.00150984
-9.12966e-06
0.00151578
-8.43177e-06
0.00152151
-7.74716e-06
0.00152706
-7.07554e-06
0.00153244
-6.40999e-06
0.00153769
-5.73965e-06
0.00154287
-5.03965e-06
0.00154805
-4.29171e-06
0.00155324
-3.48016e-06
0.00155847
-2.59695e-06
0.00156375
-1.61691e-06
0.00156902
-4.94754e-07
0.00157441
4.89449e-07
0.00157982
1.5904e-06
0.00158516
2.7779e-06
0.00159036
3.99389e-06
0.00159542
5.21504e-06
0.00160033
6.42937e-06
0.00160513
7.63156e-06
0.00160983
8.82158e-06
0.0016145
1.0004e-05
0.00161914
1.11872e-05
0.00162375
1.23803e-05
0.00162827
1.35889e-05
0.00163257
1.48093e-05
0.00163644
1.60291e-05
0.00163967
1.72278e-05
0.00164212
1.83462e-05
0.00164374
1.93539e-05
0.00164451
2.02573e-05
0.00164442
2.10616e-05
0.00164348
2.17688e-05
0.00164163
2.23745e-05
0.00163882
2.28694e-05
0.00163499
2.32449e-05
0.0016301
2.35001e-05
0.00162418
2.36478e-05
0.00161735
2.37144e-05
0.00160978
2.37359e-05
0.00160167
2.37494e-05
0.00159323
2.37855e-05
0.0015846
2.38631e-05
0.00157588
2.39886e-05
0.0015671
2.41584e-05
0.00155825
2.43623e-05
0.0015493
2.45872e-05
0.00154022
2.48198e-05
0.00153097
2.50475e-05
0.00152152
2.52594e-05
0.00151185
2.54465e-05
0.00150192
2.56011e-05
0.00149174
2.57169e-05
0.00148128
2.57884e-05
0.00147055
2.58108e-05
0.00145953
2.57793e-05
0.00144822
2.56897e-05
0.00143663
2.55382e-05
0.00142475
2.53224e-05
0.00141262
2.5042e-05
0.00140025
2.47003e-05
0.0013877
2.43056e-05
0.00137505
2.38719e-05
0.00136238
2.34182e-05
0.00134979
2.29666e-05
0.00133737
2.2541e-05
0.00132515
2.21648e-05
0.00131318
2.18584e-05
0.00130147
2.16351e-05
0.00128999
2.14975e-05
0.00127874
2.1436e-05
0.00126766
2.14288e-05
0.00125668
2.14477e-05
0.00124575
2.14618e-05
0.00123483
2.14429e-05
0.00122387
2.137e-05
0.00121289
2.12307e-05
0.00120189
2.10225e-05
0.00119091
2.07499e-05
0.00117997
2.04234e-05
0.00116912
2.0055e-05
0.00115839
1.9658e-05
0.0011478
1.92436e-05
0.00113736
1.88206e-05
0.00112707
1.83952e-05
0.00111694
1.79717e-05
0.00110697
1.75533e-05
0.00109715
1.71419e-05
0.00108747
1.67394e-05
0.00107793
1.63475e-05
0.00106853
1.59678e-05
0.00105926
1.56021e-05
0.00105012
1.52514e-05
0.00104109
1.49167e-05
0.00103217
1.45993e-05
0.00102336
1.42977e-05
0.00101464
1.4014e-05
0.00100602
1.37458e-05
0.000997471
1.34961e-05
0.000989008
1.32619e-05
0.000980618
1.3045e-05
0.0009723
1.28435e-05
0.00096405
1.26594e-05
0.000955868
1.24907e-05
0.000947753
1.23374e-05
0.000939709
1.22005e-05
0.000931739
1.20781e-05
0.000923848
1.19715e-05
0.000916045
1.18792e-05
0.000908343
1.1802e-05
0.000900759
1.17385e-05
0.000893314
1.16887e-05
0.000886036
1.16521e-05
0.000878957
1.1629e-05
0.000872116
1.16195e-05
0.000865554
1.16229e-05
0.000859306
1.16399e-05
0.00085338
1.16723e-05
0.000847772
1.17219e-05
0.000842484
1.17898e-05
0.00083752
1.18773e-05
0.000832885
1.19859e-05
0.000828574
1.21172e-05
0.000824575
1.22732e-05
0.000820868
1.24577e-05
0.000817428
1.26769e-05
0.000814237
1.29403e-05
0.000811283
1.32607e-05
0.000808568
1.36537e-05
0.000806103
1.41366e-05
0.000803902
1.47272e-05
0.000801974
1.54423e-05
0.000800314
1.62975e-05
0.000798902
1.73067e-05
0.000797693
1.8483e-05
0.000796621
1.98378e-05
0.000795586
2.1385e-05
0.000794452
2.31344e-05
0.000793097
2.50259e-05
0.000791371
2.70362e-05
0.000789096
2.91297e-05
0.000786088
3.12541e-05
0.000782178
3.33471e-05
0.000777227
3.53358e-05
0.000771199
3.71326e-05
0.00076413
3.86218e-05
0.000756135
3.96645e-05
0.00074743
4.01083e-05
0.000738322
3.97923e-05
0.000729166
3.85529e-05
0.000720304
3.62367e-05
0.000711974
3.28449e-05
0.000704208
2.86709e-05
0.00069703
2.40401e-05
0.000690499
1.94785e-05
0.000684679
1.55557e-05
0.000679535
1.26974e-05
0.000674871
1.10423e-05
0.000670431
1.04282e-05
0.000665987
1.04639e-05
0.000661447
1.06998e-05
0.000656801
1.0849e-05
0.000652067
1.07953e-05
0.000647236
1.05572e-05
0.000642248
1.02099e-05
0.000637033
9.84362e-06
0.000631515
9.51733e-06
0.000625619
9.2474e-06
0.000619295
9.01909e-06
0.000612519
8.80847e-06
0.000605301
8.60175e-06
0.000597678
8.40173e-06
0.000589696
8.22265e-06
0.000581421
8.08088e-06
0.00057287
7.98402e-06
0.00056405
7.94183e-06
0.000554958
7.964e-06
0.000545568
8.05848e-06
0.000535835
8.23085e-06
0.000525713
8.48202e-06
0.000515159
8.80588e-06
0.00050413
9.19302e-06
0.000492587
9.63559e-06
0.00048049
1.01296e-05
0.000467788
1.06753e-05
0.000454434
1.12755e-05
0.000440375
1.19308e-05
0.000425557
1.26377e-05
0.000409927
1.3388e-05
0.000393436
1.41698e-05
0.000376044
1.49691e-05
0.000357722
1.57683e-05
0.00033846
1.65482e-05
0.000318262
1.72891e-05
0.000297153
1.7972e-05
0.000275177
1.85807e-05
0.000252395
1.91028e-05
0.000228882
1.95322e-05
0.000204738
1.98655e-05
0.000180081
2.01006e-05
0.000155034
2.02332e-05
0.00012968
2.02629e-05
0.000103995
2.01787e-05
7.76692e-05
2.02009e-05
5.04262e-05
2.00322e-05
2.43803e-05
1.81065e-05
2.21686e-05
8.07376e-06
-3.32218e-05
3.18882e-05
-7.73175e-05
5.26224e-05
-6.83973e-05
6.84823e-05
-5.57127e-05
8.20194e-05
-4.99739e-05
9.51406e-05
-4.87271e-05
0.000108401
-4.86104e-05
0.000121689
-4.82184e-05
0.000134812
-4.74279e-05
0.000147673
-4.64432e-05
0.000160252
-4.54042e-05
0.000172549
-4.43525e-05
0.000184568
-4.32913e-05
0.000196309
-4.22228e-05
0.000207774
-4.11566e-05
0.000218973
-4.01077e-05
0.000229919
-3.90905e-05
0.000240629
-3.81158e-05
0.000251125
-3.71951e-05
0.000261434
-3.63389e-05
0.000271582
-3.55554e-05
0.000281602
-3.48508e-05
0.000291526
-3.42301e-05
0.000301388
-3.36963e-05
0.000311221
-3.3251e-05
0.000321057
-3.28926e-05
0.000330928
-3.26188e-05
0.000340863
-3.24258e-05
0.000350892
-3.23081e-05
0.000361037
-3.22591e-05
0.00037132
-3.22714e-05
0.000381757
-3.23367e-05
0.000392359
-3.24462e-05
0.000403136
-3.25901e-05
0.000414093
-3.27579e-05
0.000425231
-3.29385e-05
0.000436551
-3.312e-05
0.000448048
-3.32918e-05
0.000459721
-3.34444e-05
0.000471563
-3.35707e-05
0.000483569
-3.36666e-05
0.000495733
-3.37296e-05
0.000508042
-3.37596e-05
0.000520485
-3.37575e-05
0.000533046
-3.3725e-05
0.000545708
-3.36639e-05
0.000558451
-3.35757e-05
0.000571259
-3.34617e-05
0.000584113
-3.33224e-05
0.000597
-3.31581e-05
0.000609905
-3.29684e-05
0.000622813
-3.27532e-05
0.00063571
-3.25137e-05
0.000648575
-3.22531e-05
0.000661385
-3.19783e-05
0.000674114
-3.16989e-05
0.000686731
-3.14275e-05
0.000699209
-3.11777e-05
0.000711524
-3.09619e-05
0.000723658
-3.07897e-05
0.000735604
-3.06666e-05
0.000747363
-3.05932e-05
0.000758946
-3.05666e-05
0.000770369
-3.05812e-05
0.000781652
-3.06306e-05
0.000792817
-3.07085e-05
0.000803886
-3.08098e-05
0.000814882
-3.09308e-05
0.000825823
-3.10686e-05
0.000836726
-3.12215e-05
0.000847609
-3.13886e-05
0.000858484
-3.15691e-05
0.000869365
-3.17628e-05
0.000880261
-3.19698e-05
0.000891185
-3.21899e-05
0.000902145
-3.2423e-05
0.00091315
-3.26691e-05
0.000924208
-3.29276e-05
0.000935327
-3.31978e-05
0.000946513
-3.34792e-05
0.000957772
-3.3771e-05
0.000969107
-3.4073e-05
0.000980522
-3.43848e-05
0.000992017
-3.47059e-05
0.00100359
-3.50353e-05
0.00101524
-3.53713e-05
0.00102697
-3.57109e-05
0.00103877
-3.605e-05
0.00105065
-3.63835e-05
0.00106258
-3.6706e-05
0.00107459
-3.7012e-05
0.00108666
-3.72967e-05
0.00109878
-3.75564e-05
0.00111097
-3.77887e-05
0.00112321
-3.79924e-05
0.00113551
-3.81673e-05
0.00114786
-3.83138e-05
0.00116025
-3.84329e-05
0.00117268
-3.85255e-05
0.00118514
-3.85921e-05
0.00119763
-3.86332e-05
0.00121013
-3.8649e-05
0.00122263
-3.86393e-05
0.00123512
-3.86037e-05
0.00124759
-3.85416e-05
0.00126003
-3.84523e-05
0.00127242
-3.83348e-05
0.00128475
-3.81879e-05
0.00129699
-3.80106e-05
0.00130912
-3.78023e-05
0.00132113
-3.75624e-05
0.00133299
-3.7292e-05
0.00134468
-3.6996e-05
0.00135621
-3.66818e-05
0.0013676
-3.63505e-05
0.00137884
-3.59931e-05
0.00138994
-3.55959e-05
0.00140087
-3.51513e-05
0.00141164
-3.4661e-05
0.00142221
-3.41315e-05
0.00143258
-3.35689e-05
0.00144275
-3.29766e-05
0.00145271
-3.23562e-05
0.00146244
-3.17084e-05
0.00147194
-3.10339e-05
0.00148121
-3.03333e-05
0.00149023
-2.96064e-05
0.00149901
-2.88528e-05
0.00150752
-2.80738e-05
0.00151578
-2.72707e-05
0.00152377
-2.64426e-05
0.00153148
-2.55909e-05
0.00153892
-2.47163e-05
0.00154607
-2.38189e-05
0.00155293
-2.29013e-05
0.0015595
-2.19644e-05
0.00156577
-2.10074e-05
0.00157175
-2.00353e-05
0.00157742
-1.90463e-05
0.00158278
-1.80455e-05
0.00158784
-1.70299e-05
0.00159258
-1.60038e-05
0.001597
-1.49721e-05
0.00160109
-1.39289e-05
0.00160484
-1.28787e-05
0.00160823
-1.1821e-05
0.00161124
-1.07543e-05
0.00161384
-9.67264e-06
0.00161601
-8.58137e-06
0.00161774
-7.47408e-06
0.00161904
-6.33362e-06
0.0016199
-5.15775e-06
0.00162038
-3.96018e-06
0.0016205
-2.71237e-06
0.00162035
-1.46561e-06
0.00161995
-1.03248e-07
0.00161902
1.42863e-06
0.00161775
2.859e-06
0.00161622
4.30822e-06
0.00161443
5.77711e-06
0.0016124
7.25313e-06
0.0016101
8.72371e-06
0.00160755
1.01791e-05
0.00160476
1.1612e-05
0.00160175
1.30179e-05
0.00159854
1.43955e-05
0.00159517
1.57494e-05
0.00159167
1.70908e-05
0.00158805
1.84327e-05
0.00158429
1.97811e-05
0.0015804
2.11252e-05
0.00157631
2.24356e-05
0.00157198
2.36779e-05
0.0015674
2.48382e-05
0.00156256
2.59039e-05
0.00155745
2.68752e-05
0.00155207
2.77618e-05
0.00154636
2.85747e-05
0.00154029
2.93199e-05
0.00153379
2.99972e-05
0.00152683
3.06022e-05
0.00151942
3.11308e-05
0.00151157
3.15843e-05
0.00150335
3.19726e-05
0.00149482
3.23129e-05
0.00148606
3.26249e-05
0.00147712
3.29259e-05
0.00146805
3.32271e-05
0.00145888
3.35323e-05
0.00144963
3.38393e-05
0.00144031
3.41425e-05
0.00143092
3.44347e-05
0.00142147
3.47086e-05
0.00141196
3.49578e-05
0.00140238
3.51768e-05
0.00139274
3.53612e-05
0.00138302
3.55073e-05
0.00137322
3.56123e-05
0.00136332
3.5674e-05
0.00135332
3.56904e-05
0.0013432
3.56592e-05
0.00133295
3.55783e-05
0.00132254
3.54453e-05
0.00131198
3.52587e-05
0.00130127
3.50181e-05
0.00129042
3.47254e-05
0.00127945
3.43866e-05
0.0012684
3.40156e-05
0.00125731
3.3636e-05
0.0012462
3.32763e-05
0.00123509
3.29614e-05
0.00122402
3.27071e-05
0.001213
3.25182e-05
0.00120205
3.23884e-05
0.00119117
3.23028e-05
0.00118038
3.22396e-05
0.00116967
3.21724e-05
0.00115904
3.20748e-05
0.00114848
3.19248e-05
0.00113801
3.17075e-05
0.00112761
3.14182e-05
0.0011173
3.1059e-05
0.00110709
3.06403e-05
0.00109696
3.01753e-05
0.00108695
2.96777e-05
0.00107703
2.91598e-05
0.00106722
2.86312e-05
0.00105751
2.80995e-05
0.00104792
2.75681e-05
0.00103843
2.7042e-05
0.00102905
2.65237e-05
0.00101977
2.60158e-05
0.0010106
2.55208e-05
0.00100152
2.50408e-05
0.000992549
2.45781e-05
0.000983666
2.41342e-05
0.000974872
2.37104e-05
0.000966164
2.33076e-05
0.000957535
2.29262e-05
0.000948983
2.25665e-05
0.0009405
2.22288e-05
0.000932083
2.19129e-05
0.000923725
2.16197e-05
0.000915422
2.13478e-05
0.000907169
2.10974e-05
0.000898961
2.08672e-05
0.000890792
2.06591e-05
0.000882658
2.0472e-05
0.000874555
2.03036e-05
0.000866479
2.0154e-05
0.000858429
2.00212e-05
0.000850403
1.99055e-05
0.0008424
1.9805e-05
0.000834419
1.97194e-05
0.000826461
1.96469e-05
0.000818527
1.95862e-05
0.000810621
1.95349e-05
0.000802751
1.94896e-05
0.000794926
1.94475e-05
0.000787157
1.94084e-05
0.000779454
1.93755e-05
0.000771825
1.93515e-05
0.00076428
1.93349e-05
0.000756834
1.93234e-05
0.000749503
1.93166e-05
0.000742304
1.93165e-05
0.00073525
1.93271e-05
0.000728353
1.9354e-05
0.000721627
1.94037e-05
0.000715083
1.94839e-05
0.000708742
1.9602e-05
0.000702631
1.97647e-05
0.000696789
1.99783e-05
0.000691268
2.02485e-05
0.000686129
2.05804e-05
0.000681448
2.09786e-05
0.000677302
2.14529e-05
0.000673767
2.20181e-05
0.000670922
2.26826e-05
0.000668854
2.34536e-05
0.000667653
2.43347e-05
0.000667355
2.53238e-05
0.000667974
2.64178e-05
0.000669496
2.76071e-05
0.000671877
2.88735e-05
0.000675036
3.01883e-05
0.000678862
3.15094e-05
0.000683217
3.27776e-05
0.000687928
3.3911e-05
0.000692788
3.4805e-05
0.000697559
3.53368e-05
0.000701978
3.53738e-05
0.00070574
3.479e-05
0.000708477
3.35002e-05
0.000709912
3.14096e-05
0.000709991
2.85928e-05
0.000708717
2.53133e-05
0.000706208
2.19881e-05
0.00070266
1.91036e-05
0.000698304
1.70533e-05
0.000693365
1.59809e-05
0.000688062
1.57317e-05
0.000682575
1.59509e-05
0.000677013
1.62621e-05
0.000671448
1.64134e-05
0.000665926
1.63175e-05
0.000660468
1.60148e-05
0.000655064
1.56147e-05
0.000649663
1.52439e-05
0.000644176
1.50047e-05
0.000638476
1.49477e-05
0.00063243
1.50652e-05
0.000625932
1.53059e-05
0.000618933
1.56013e-05
0.000611442
1.58919e-05
0.000603521
1.61439e-05
0.000595248
1.63541e-05
0.00058669
1.65423e-05
0.00057789
1.67414e-05
0.00056887
1.69843e-05
0.000559632
1.72968e-05
0.000550168
1.76941e-05
0.000540467
1.81836e-05
0.000530505
1.87673e-05
0.000520252
1.94459e-05
0.000509667
2.02213e-05
0.000498698
2.10986e-05
0.000487287
2.20855e-05
0.000475372
2.31905e-05
0.000462883
2.44206e-05
0.000449741
2.57796e-05
0.00043586
2.72687e-05
0.000421145
2.88847e-05
0.000405496
3.06183e-05
0.000388812
3.24519e-05
0.000371
3.43602e-05
0.000351976
3.63129e-05
0.000331671
3.82776e-05
0.000310032
4.02198e-05
0.000287032
4.2103e-05
0.000262673
4.38904e-05
0.000236991
4.55474e-05
0.00021005
4.7042e-05
0.000181943
4.83403e-05
0.000152794
4.94121e-05
0.000122722
5.02503e-05
9.1841e-05
5.10819e-05
6.0738e-05
5.11352e-05
3.13397e-05
4.75047e-05
5.35084e-05
1.0315e-05
-4.35367e-05
3.72595e-05
-0.000104262
6.17746e-05
-9.29123e-05
8.13751e-05
-7.53132e-05
9.83347e-05
-6.69335e-05
0.000114616
-6.50081e-05
0.000130927
-6.49214e-05
0.00014722
-6.45115e-05
0.000163292
-6.35e-05
0.000179011
-6.21623e-05
0.000194335
-6.0728e-05
0.000209255
-5.9273e-05
0.000223772
-5.78076e-05
0.00023788
-5.63311e-05
0.000251581
-5.48572e-05
0.000264878
-5.34047e-05
0.00027778
-5.19927e-05
0.000290304
-5.06403e-05
0.000302471
-4.93615e-05
0.000314303
-4.81712e-05
0.000325829
-4.7081e-05
0.000337079
-4.61013e-05
0.000348086
-4.52375e-05
0.000358884
-4.44938e-05
0.000369506
-4.38731e-05
0.000379988
-4.33744e-05
0.000390363
-4.29936e-05
0.000400661
-4.27247e-05
0.000410914
-4.25605e-05
0.000421147
-4.24917e-05
0.000431383
-4.25075e-05
0.000441642
-4.2596e-05
0.000451941
-4.27448e-05
0.000462291
-4.29404e-05
0.000472702
-4.31694e-05
0.000483181
-4.34177e-05
0.000493734
-4.36721e-05
0.000504362
-4.39204e-05
0.00051507
-4.41521e-05
0.000525858
-4.43587e-05
0.000536725
-4.4534e-05
0.00054767
-4.4674e-05
0.000558686
-4.47761e-05
0.000569767
-4.48388e-05
0.000580904
-4.48619e-05
0.000592086
-4.48453e-05
0.0006033
-4.47898e-05
0.000614534
-4.46964e-05
0.000625779
-4.45665e-05
0.000637022
-4.44014e-05
0.000648256
-4.4203e-05
0.000659477
-4.39739e-05
0.000670682
-4.37182e-05
0.00068187
-4.34417e-05
0.000693045
-4.31528e-05
0.000704207
-4.28617e-05
0.00071536
-4.258e-05
0.000726502
-4.23194e-05
0.00073763
-4.20902e-05
0.00074874
-4.19002e-05
0.000759828
-4.17541e-05
0.000770888
-4.16532e-05
0.000781918
-4.15964e-05
0.000792917
-4.15805e-05
0.000803888
-4.16018e-05
0.000814836
-4.16567e-05
0.000825769
-4.1742e-05
0.000836693
-4.18552e-05
0.000847619
-4.19945e-05
0.000858556
-4.21586e-05
0.000869514
-4.23466e-05
0.000880503
-4.25577e-05
0.000891531
-4.27915e-05
0.000902609
-4.30472e-05
0.000913743
-4.33243e-05
0.000924942
-4.36219e-05
0.000936212
-4.39391e-05
0.000947559
-4.42748e-05
0.000958989
-4.46276e-05
0.000970506
-4.49961e-05
0.000982114
-4.53789e-05
0.000993815
-4.57743e-05
0.00100561
-4.61806e-05
0.0010175
-4.65959e-05
0.00102948
-4.70179e-05
0.00104156
-4.74438e-05
0.00105372
-4.78702e-05
0.00106596
-4.82929e-05
0.00107828
-4.87076e-05
0.00109069
-4.91096e-05
0.00110317
-4.94944e-05
0.00111573
-4.98576e-05
0.00112837
-5.01956e-05
0.00114109
-5.05057e-05
0.00115388
-5.07856e-05
0.00116674
-5.10337e-05
0.00117968
-5.1249e-05
0.00119268
-5.14308e-05
0.00120573
-5.15783e-05
0.00121883
-5.16911e-05
0.00123196
-5.17685e-05
0.00124513
-5.18098e-05
0.0012583
-5.18143e-05
0.00127148
-5.17812e-05
0.00128465
-5.17097e-05
0.00129779
-5.15991e-05
0.00131091
-5.14488e-05
0.00132398
-5.12585e-05
0.00133699
-5.10279e-05
0.00134995
-5.07554e-05
0.00136282
-5.0439e-05
0.00137561
-5.00774e-05
0.00138828
-4.967e-05
0.00140082
-4.92174e-05
0.00141319
-4.87202e-05
0.00142537
-4.81769e-05
0.00143736
-4.75875e-05
0.00144917
-4.69518e-05
0.00146077
-4.62708e-05
0.00147219
-4.55453e-05
0.0014834
-4.47763e-05
0.00149439
-4.39655e-05
0.00150514
-4.31136e-05
0.00151566
-4.22215e-05
0.00152591
-4.12899e-05
0.0015359
-4.0319e-05
0.0015456
-3.93106e-05
0.00155502
-3.82672e-05
0.00156413
-3.7187e-05
0.00157293
-3.60712e-05
0.00158141
-3.49225e-05
0.00158956
-3.37412e-05
0.00159737
-3.25281e-05
0.00160484
-3.12845e-05
0.00161195
-3.00146e-05
0.0016187
-2.87133e-05
0.00162508
-2.73861e-05
0.00163108
-2.60385e-05
0.0016367
-2.46652e-05
0.00164193
-2.32729e-05
0.00164676
-2.18605e-05
0.00165119
-2.04324e-05
0.0016552
-1.8988e-05
0.00165881
-1.75355e-05
0.00166198
-1.60514e-05
0.00166472
-1.45603e-05
0.00166703
-1.30667e-05
0.00166891
-1.15476e-05
0.00167031
-9.98716e-06
0.00167126
-8.42348e-06
0.00167175
-6.8158e-06
0.00167176
-5.17187e-06
0.00167129
-3.48988e-06
0.00167032
-1.74181e-06
0.00166891
-5.69986e-08
0.0016672
1.60639e-06
0.00166522
3.40903e-06
0.00166286
5.21936e-06
0.00166014
7.02824e-06
0.00165708
8.8345e-06
0.0016537
1.06356e-05
0.00165
1.2428e-05
0.00164597
1.42084e-05
0.0016416
1.59743e-05
0.0016369
1.77237e-05
0.00163184
1.94553e-05
0.00162642
2.11681e-05
0.00162065