/*--------------------------------*- C++ -*----------------------------------*\
| =========                 |                                                 |
| \\      /  F ield         | OpenFOAM: The Open Source CFD Toolbox           |
|  \\    /   O peration     | Version:  v2006                                 |
|   \\  /    A nd           | Website:  www.openfoam.com                      |
|    \\/     M anipulation  |                                                 |
\*---------------------------------------------------------------------------*/
FoamFile
{
    version     2.0;
    format      ascii;
    class       volScalarField;
    location    "12";
    object      p;
}
// * * * * * * * * * * * * * * * * * * * * * * * * * * * * * * * * * * * * * //

dimensions      [1 -1 -2 0 0 0 0];


internalField   nonuniform List<scalar> 
52500
(
27819
27819.5
27820.4
27821.7
27823.4
27825.6
27828.2
27831.3
27834.8
27838.7
27843.1
27847.9
27853.2
27858.9
27865
27871.5
27878.5
27885.9
27893.8
27902
27910.7
27919.8
27929.4
27939.3
27949.6
27960.4
27971.6
27983.1
27995.1
28007.5
28020.2
28033.3
28046.9
28060.7
28075
28089.6
28104.6
28119.9
28135.6
28151.6
28167.9
28184.5
28201.5
28218.8
28236.4
28254.3
28272.5
28290.9
28309.7
28328.7
28347.9
28367.5
28387.2
28407.2
28427.5
28447.9
28468.6
28489.5
28510.5
28531.8
28553.3
28574.9
28596.7
28618.6
28640.8
28663
28685.4
28708
28730.6
28753.4
28776.3
28799.2
28822.3
28845.5
28868.7
28892
28915.4
28938.8
28962.3
28985.9
29009.4
29033
29056.6
29080.2
29103.9
29127.5
29151.1
29174.7
29198.3
29221.9
29245.4
29268.9
29292.3
29315.7
29339
29362.3
29385.5
29408.5
29431.6
29454.5
29477.3
29500
29522.6
29545.1
29567.4
29589.6
29611.7
29633.7
29655.5
29677.2
29698.7
29720
29741.2
29762.2
29783.1
29803.7
29824.2
29844.6
29864.7
29884.6
29904.4
29923.9
29943.3
29962.4
29981.4
30000.1
30018.6
30036.9
30055
30072.9
30090.6
30108.1
30125.3
30142.3
30159.1
30175.7
30192
30208.2
30224.1
30239.8
30255.2
30270.5
30285.5
30300.3
30314.8
30329.2
30343.3
30357.2
30370.9
30384.4
30397.7
30410.8
30423.6
30436.2
30448.6
30460.8
30472.8
30484.5
30496.1
30507.5
30518.7
30529.7
30540.5
30551.1
30561.5
30571.8
30581.8
30591.7
30601.4
30610.9
30620.3
30629.5
30638.5
30647.3
30656
30664.6
30673
30681.3
30689.4
30697.4
30705.2
30712.9
30720.5
30728
30735.3
30742.6
30749.7
30756.7
30763.7
30770.5
30777.2
30783.8
30790.4
30796.8
30803.2
30809.5
30815.8
30821.9
30828.1
30834.1
30840.1
30846.1
30852
30857.8
30863.7
30869.5
30875.2
30881
30886.7
30892.4
30898.1
30903.7
30909.4
30915.1
30920.7
30926.4
30932.1
30937.7
30943.4
30949.1
30954.9
30960.6
30966.4
30972.2
30978
30983.9
30989.8
30995.7
31001.7
31007.7
31013.8
31019.9
31026.1
31032.3
31038.6
31044.9
31051.3
31057.8
31064.3
31070.9
31077.5
31084.2
31091
31097.8
31104.7
31111.7
31118.7
31125.8
31133
31140.3
31147.6
31155
31162.4
31169.9
31177.5
31185.2
31192.9
31200.7
31208.5
31216.4
31224.4
31232.4
31240.5
31248.7
31256.9
31265.2
31273.5
31281.9
31290.3
31298.8
31307.3
31315.8
31324.4
31333
31341.7
31350.4
31359.1
31367.8
31376.6
31385.4
31394.1
31402.9
31411.7
31420.5
31429.3
31438.1
31446.8
31455.6
31464.3
31473
31481.6
31490.2
31498.8
31507.4
31515.9
31524.3
31532.7
31541.1
31549.5
31557.8
31566
31574.1
31582.2
31590.2
31598
31605.8
31613.5
31621.1
31628.6
31635.9
31643.2
31650.3
31657.3
31664.2
31671
31677.6
31684.1
31690.4
31696.6
31702.7
31708.5
31714.3
31719.8
31725.2
31730.5
31735.5
31740.4
31745.1
31749.6
31754
31758.1
31762.1
31765.8
31769.4
31772.8
31776
31779
31781.7
31784.3
31786.7
31788.8
31790.8
31792.5
31794
31795.4
31796.5
31797.3
31798
31798.4
31798.6
27360
27360.5
27361.3
27362.6
27364.4
27366.6
27369.2
27372.3
27375.8
27379.7
27384.1
27388.9
27394.2
27399.9
27406
27412.6
27419.5
27427
27434.8
27443.1
27451.8
27460.9
27470.4
27480.4
27490.7
27501.5
27512.7
27524.3
27536.2
27548.6
27561.4
27574.5
27588
27601.9
27616.2
27630.8
27645.8
27661.2
27676.8
27692.9
27709.2
27725.9
27742.9
27760.2
27777.8
27795.7
27813.9
27832.4
27851.2
27870.2
27889.5
27909
27928.8
27948.8
27969.1
27989.5
28010.2
28031.1
28052.2
28073.5
28095
28116.6
28138.5
28160.4
28182.6
28204.8
28227.3
28249.8
28272.5
28295.3
28318.2
28341.2
28364.3
28387.5
28410.7
28434
28457.4
28480.9
28504.4
28527.9
28551.5
28575.1
28598.8
28622.4
28646.1
28669.7
28693.4
28717
28740.6
28764.2
28787.7
28811.2
28834.7
28858.1
28881.4
28904.7
28927.9
28951
28974
28996.9
29019.7
29042.5
29065.1
29087.6
29109.9
29132.2
29154.3
29176.3
29198.1
29219.8
29241.3
29262.6
29283.8
29304.9
29325.7
29346.4
29366.9
29387.2
29407.4
29427.3
29447.1
29466.6
29486
29505.1
29524.1
29542.8
29561.4
29579.7
29597.8
29615.7
29633.4
29650.8
29668.1
29685.1
29701.9
29718.5
29734.8
29751
29766.9
29782.6
29798
29813.3
29828.3
29843.1
29857.6
29872
29886.1
29900
29913.7
29927.1
29940.3
29953.4
29966.2
29978.8
29991.2
30003.4
30015.3
30027.1
30038.7
30050.1
30061.3
30072.3
30083.1
30093.7
30104.1
30114.4
30124.4
30134.3
30144
30153.5
30162.9
30172.1
30181.1
30190
30198.7
30207.2
30215.6
30223.9
30232
30240
30247.8
30255.5
30263.1
30270.5
30277.9
30285.1
30292.2
30299.2
30306.1
30312.9
30319.6
30326.3
30332.8
30339.3
30345.6
30351.9
30358.2
30364.3
30370.4
30376.5
30382.5
30388.4
30394.3
30400.2
30406
30411.8
30417.5
30423.2
30428.9
30434.6
30440.3
30446
30451.6
30457.3
30462.9
30468.6
30474.2
30479.9
30485.6
30491.3
30497
30502.7
30508.5
30514.3
30520.1
30526
30531.9
30537.8
30543.8
30549.8
30555.9
30562
30568.2
30574.4
30580.7
30587
30593.4
30599.8
30606.3
30612.9
30619.6
30626.3
30633
30639.8
30646.7
30653.7
30660.8
30667.9
30675
30682.3
30689.6
30697
30704.4
30711.9
30719.5
30727.2
30734.9
30742.7
30750.5
30758.5
30766.4
30774.5
30782.6
30790.7
30799
30807.2
30815.5
30823.9
30832.3
30840.8
30849.3
30857.9
30866.5
30875.1
30883.8
30892.5
30901.2
30909.9
30918.7
30927.5
30936.3
30945.1
30953.9
30962.7
30971.5
30980.3
30989
30997.8
31006.5
31015.2
31023.9
31032.5
31041.1
31049.7
31058.2
31066.7
31075.1
31083.5
31091.9
31100.2
31108.4
31116.6
31124.6
31132.6
31140.5
31148.3
31156
31163.6
31171.1
31178.4
31185.7
31192.9
31199.9
31206.8
31213.5
31220.2
31226.7
31233
31239.2
31245.3
31251.2
31256.9
31262.5
31267.9
31273.1
31278.2
31283.1
31287.8
31292.3
31296.7
31300.8
31304.8
31308.6
31312.1
31315.5
31318.7
31321.7
31324.5
31327.1
31329.4
31331.6
31333.6
31335.3
31336.8
31338.1
31339.2
31340.1
31340.8
31341.2
31341.4
26899.8
26900.3
26901.2
26902.5
26904.2
26906.4
26909
26912.1
26915.6
26919.6
26924
26928.8
26934
26939.7
26945.9
26952.4
26959.4
26966.9
26974.7
26983
26991.7
27000.9
27010.4
27020.4
27030.8
27041.5
27052.7
27064.3
27076.3
27088.7
27101.5
27114.7
27128.2
27142.2
27156.5
27171.1
27186.2
27201.5
27217.2
27233.3
27249.7
27266.4
27283.4
27300.8
27318.4
27336.4
27354.6
27373.1
27391.9
27411
27430.3
27449.9
27469.7
27489.8
27510.1
27530.6
27551.3
27572.3
27593.4
27614.7
27636.2
27657.9
27679.8
27701.8
27724
27746.3
27768.7
27791.3
27814.1
27836.9
27859.8
27882.9
27906
27929.2
27952.5
27975.9
27999.3
28022.8
28046.4
28069.9
28093.6
28117.2
28140.9
28164.6
28188.2
28211.9
28235.6
28259.3
28282.9
28306.5
28330.1
28353.7
28377.1
28400.6
28423.9
28447.2
28470.5
28493.6
28516.7
28539.6
28562.5
28585.2
28607.9
28630.4
28652.8
28675.1
28697.2
28719.2
28741.1
28762.8
28784.3
28805.7
28826.9
28848
28868.9
28889.6
28910.1
28930.4
28950.6
28970.5
28990.3
29009.9
29029.3
29048.4
29067.4
29086.2
29104.7
29123
29141.2
29159.1
29176.7
29194.2
29211.5
29228.5
29245.3
29261.9
29278.2
29294.4
29310.3
29326
29341.4
29356.7
29371.7
29386.5
29401
29415.4
29429.5
29443.4
29457.1
29470.5
29483.8
29496.8
29509.6
29522.2
29534.6
29546.9
29558.9
29570.7
29582.2
29593.5
29604.7
29615.6
29626.4
29637
29647.4
29657.6
29667.6
29677.5
29687.1
29696.6
29706
29715.1
29724.1
29733
29741.6
29750.2
29758.5
29766.8
29774.9
29782.8
29790.6
29798.3
29805.9
29813.3
29820.6
29827.8
29834.9
29841.9
29848.8
29855.6
29862.3
29868.9
29875.4
29881.8
29888.2
29894.5
29900.7
29906.8
29912.9
29918.9
29924.9
29930.8
29936.7
29942.5
29948.3
29954.1
29959.8
29965.5
29971.2
29976.9
29982.5
29988.2
29993.8
29999.5
30005.1
30010.7
30016.4
30022
30027.7
30033.4
30039.1
30044.8
30050.5
30056.3
30062.1
30068
30073.9
30079.8
30085.8
30091.8
30097.8
30103.9
30110.1
30116.3
30122.6
30128.9
30135.3
30141.7
30148.2
30154.8
30161.4
30168.1
30174.9
30181.7
30188.6
30195.5
30202.6
30209.7
30216.9
30224.1
30231.4
30238.8
30246.2
30253.8
30261.4
30269
30276.7
30284.5
30292.4
30300.3
30308.3
30316.4
30324.5
30332.6
30340.9
30349.1
30357.5
30365.9
30374.3
30382.8
30391.3
30399.9
30408.5
30417.1
30425.8
30434.5
30443.2
30452
30460.8
30469.6
30478.4
30487.2
30496
30504.8
30513.6
30522.4
30531.2
30540
30548.8
30557.5
30566.2
30574.9
30583.6
30592.2
30600.7
30609.3
30617.7
30626.2
30634.5
30642.8
30651.1
30659.2
30667.3
30675.3
30683.2
30691
30698.8
30706.4
30713.9
30721.3
30728.6
30735.7
30742.8
30749.7
30756.5
30763.1
30769.7
30776
30782.2
30788.3
30794.2
30800
30805.6
30811
30816.2
30821.3
30826.2
30830.9
30835.5
30839.8
30844
30848
30851.8
30855.4
30858.8
30862
30865
30867.8
30870.3
30872.7
30874.9
30876.9
30878.6
30880.1
30881.5
30882.6
30883.4
30884.1
30884.5
30884.8
26438.4
26438.9
26439.8
26441.1
26442.8
26445
26447.7
26450.7
26454.3
26458.2
26462.6
26467.5
26472.7
26478.4
26484.6
26491.2
26498.2
26505.6
26513.5
26521.8
26530.5
26539.7
26549.3
26559.2
26569.7
26580.5
26591.7
26603.3
26615.4
26627.8
26640.6
26653.8
26667.4
26681.4
26695.7
26710.5
26725.5
26740.9
26756.7
26772.8
26789.3
26806
26823.1
26840.5
26858.2
26876.2
26894.5
26913.1
26932
26951.1
26970.5
26990.1
27010
27030.1
27050.5
27071
27091.8
27112.8
27134
27155.4
27177
27198.7
27220.7
27242.7
27265
27287.4
27309.9
27332.5
27355.3
27378.2
27401.2
27424.3
27447.5
27470.8
27494.1
27517.5
27541
27564.6
27588.2
27611.8
27635.5
27659.2
27682.9
27706.7
27730.4
27754.2
27777.9
27801.6
27825.3
27849
27872.6
27896.2
27919.8
27943.2
27966.7
27990
28013.3
28036.5
28059.6
28082.6
28105.5
28128.3
28151
28173.6
28196
28218.3
28240.5
28262.5
28284.4
28306.2
28327.7
28349.2
28370.4
28391.5
28412.4
28433.2
28453.7
28474.1
28494.3
28514.3
28534.1
28553.7
28573.1
28592.2
28611.2
28630
28648.6
28666.9
28685.1
28703
28720.7
28738.1
28755.4
28772.4
28789.3
28805.8
28822.2
28838.3
28854.3
28869.9
28885.4
28900.6
28915.6
28930.4
28945
28959.3
28973.4
28987.3
29001
29014.4
29027.7
29040.7
29053.5
29066
29078.3
29090.4
29102.5
29114.3
29125.8
29137.2
29148.4
29159.3
29170.1
29180.6
29191
29201.2
29211.2
29221
29230.7
29240.2
29249.5
29258.6
29267.6
29276.4
29285
29293.5
29301.9
29310.1
29318.2
29326.1
29333.9
29341.5
29349.1
29356.5
29363.8
29370.9
29378
29384.9
29391.8
29398.5
29405.2
29411.8
29418.2
29424.6
29431
29437.2
29443.4
29449.5
29455.5
29461.5
29467.5
29473.4
29479.2
29485
29490.8
29496.5
29502.2
29507.9
29513.6
29519.2
29524.8
29530.4
29536
29541.6
29547.2
29552.9
29558.5
29564.1
29569.7
29575.4
29581.1
29586.8
29592.5
29598.3
29604.1
29609.9
29615.7
29621.6
29627.6
29633.6
29639.6
29645.7
29651.9
29658.1
29664.3
29670.6
29677
29683.4
29689.9
29696.5
29703.1
29709.8
29716.5
29723.3
29730.2
29737.2
29744.2
29751.3
29758.5
29765.7
29773
29780.4
29787.9
29795.4
29803
29810.7
29818.4
29826.2
29834.1
29842
29850
29858.1
29866.2
29874.4
29882.6
29890.9
29899.2
29907.6
29916.1
29924.6
29933.2
29941.7
29950.4
29959
29967.7
29976.5
29985.2
29994
30002.8
30011.6
30020.5
30029.3
30038.2
30047
30055.9
30064.7
30073.5
30082.3
30091.1
30099.9
30108.7
30117.4
30126.1
30134.7
30143.3
30151.9
30160.4
30168.9
30177.3
30185.6
30193.9
30202.1
30210.2
30218.2
30226.2
30234
30241.8
30249.4
30257
30264.4
30271.7
30278.9
30286
30293
30299.8
30306.5
30313
30319.4
30325.7
30331.8
30337.7
30343.5
30349.1
30354.5
30359.8
30364.9
30369.8
30374.6
30379.1
30383.5
30387.7
30391.7
30395.5
30399.1
30402.5
30405.7
30408.7
30411.5
30414.1
30416.5
30418.7
30420.7
30422.4
30424
30425.3
30426.4
30427.3
30427.9
30428.4
30428.6
25975.9
25976.3
25977.2
25978.5
25980.3
25982.5
25985.1
25988.2
25991.7
25995.7
26000.1
26004.9
26010.2
26015.9
26022.1
26028.7
26035.7
26043.2
26051.1
26059.4
26068.2
26077.4
26087
26097
26107.5
26118.3
26129.6
26141.3
26153.3
26165.8
26178.7
26192
26205.6
26219.6
26234
26248.8
26263.9
26279.4
26295.3
26311.4
26328
26344.8
26362
26379.4
26397.2
26415.3
26433.7
26452.3
26471.3
26490.5
26509.9
26529.7
26549.6
26569.8
26590.3
26610.9
26631.8
26652.9
26674.2
26695.6
26717.3
26739.1
26761.1
26783.3
26805.6
26828
26850.6
26873.4
26896.2
26919.2
26942.3
26965.5
26988.7
27012.1
27035.5
27059
27082.6
27106.2
27129.9
27153.6
27177.4
27201.2
27225
27248.8
27272.6
27296.4
27320.2
27344
27367.8
27391.5
27415.2
27438.9
27462.5
27486.1
27509.6
27533
27556.3
27579.6
27602.7
27625.8
27648.8
27671.7
27694.4
27717
27739.5
27761.9
27784.1
27806.2
27828.2
27850
27871.6
27893.1
27914.4
27935.5
27956.5
27977.3
27997.9
28018.3
28038.5
28058.5
28078.3
28098
28117.4
28136.6
28155.6
28174.4
28193
28211.4
28229.5
28247.5
28265.2
28282.7
28300
28317
28333.8
28350.4
28366.8
28382.9
28398.8
28414.5
28430
28445.2
28460.2
28475
28489.6
28503.9
28518
28531.9
28545.5
28559
28572.2
28585.2
28598
28610.6
28623
28635.1
28647
28658.7
28670.2
28681.6
28692.7
28703.6
28714.3
28724.9
28735.2
28745.4
28755.3
28765.1
28774.7
28784.2
28793.4
28802.5
28811.5
28820.2
28828.9
28837.3
28845.6
28853.8
28861.8
28869.7
28877.4
28885.1
28892.5
28899.9
28907.1
28914.3
28921.3
28928.2
28935
28941.7
28948.3
28954.9
28961.3
28967.7
28973.9
28980.1
28986.3
28992.3
28998.3
29004.3
29010.2
29016
29021.8
29027.6
29033.3
29039
29044.7
29050.3
29055.9
29061.5
29067.1
29072.7
29078.2
29083.8
29089.4
29095
29100.5
29106.1
29111.7
29117.4
29123
29128.7
29134.4
29140.1
29145.9
29151.7
29157.5
29163.4
29169.3
29175.3
29181.3
29187.4
29193.5
29199.6
29205.9
29212.2
29218.5
29224.9
29231.4
29238
29244.6
29251.2
29258
29264.8
29271.7
29278.6
29285.7
29292.8
29299.9
29307.2
29314.5
29321.9
29329.3
29336.9
29344.5
29352.1
29359.9
29367.7
29375.6
29383.5
29391.5
29399.6
29407.7
29415.9
29424.2
29432.5
29440.9
29449.3
29457.8
29466.3
29474.9
29483.5
29492.2
29500.9
29509.6
29518.4
29527.1
29536
29544.8
29553.7
29562.5
29571.4
29580.3
29589.2
29598.1
29607
29615.8
29624.7
29633.6
29642.4
29651.2
29659.9
29668.7
29677.4
29686
29694.7
29703.2
29711.7
29720.2
29728.6
29736.9
29745.1
29753.3
29761.4
29769.4
29777.3
29785.1
29792.8
29800.4
29807.9
29815.2
29822.5
29829.6
29836.6
29843.5
29850.2
29856.8
29863.2
29869.5
29875.6
29881.6
29887.4
29893.1
29898.5
29903.8
29909
29913.9
29918.7
29923.3
29927.7
29931.9
29935.9
29939.8
29943.4
29946.8
29950
29953.1
29955.9
29958.5
29960.9
29963.1
29965.1
29966.8
29968.4
29969.7
29970.8
29971.7
29972.4
29972.8
29973
25512.1
25512.5
25513.4
25514.7
25516.5
25518.7
25521.3
25524.4
25528
25532
25536.4
25541.2
25546.5
25552.3
25558.5
25565.1
25572.1
25579.6
25587.6
25595.9
25604.7
25613.9
25623.6
25633.6
25644.1
25655
25666.4
25678.1
25690.2
25702.8
25715.7
25729.1
25742.8
25756.9
25771.4
25786.2
25801.4
25817
25832.9
25849.2
25865.8
25882.7
25900
25917.5
25935.4
25953.6
25972.1
25990.8
26009.9
26029.2
26048.7
26068.6
26088.6
26108.9
26129.5
26150.2
26171.2
26192.4
26213.8
26235.3
26257.1
26279
26301.1
26323.4
26345.8
26368.4
26391.1
26413.9
26436.8
26459.9
26483.1
26506.4
26529.7
26553.2
26576.7
26600.3
26624
26647.7
26671.5
26695.3
26719.2
26743
26766.9
26790.9
26814.8
26838.7
26862.6
26886.5
26910.3
26934.2
26958
26981.7
27005.4
27029.1
27052.6
27076.1
27099.6
27122.9
27146.2
27169.3
27192.4
27215.3
27238.1
27260.8
27283.4
27305.9
27328.2
27350.3
27372.3
27394.2
27415.9
27437.4
27458.8
27480
27501
27521.8
27542.5
27562.9
27583.2
27603.3
27623.1
27642.8
27662.3
27681.5
27700.6
27719.4
27738
27756.4
27774.6
27792.5
27810.3
27827.8
27845.1
27862.1
27879
27895.6
27912
27928.1
27944
27959.7
27975.2
27990.4
28005.4
28020.2
28034.7
28049.1
28063.1
28077
28090.7
28104.1
28117.3
28130.3
28143
28155.6
28167.9
28180
28191.9
28203.6
28215.1
28226.4
28237.5
28248.4
28259.1
28269.6
28279.9
28290
28299.9
28309.7
28319.2
28328.6
28337.8
28346.9
28355.8
28364.5
28373.1
28381.5
28389.7
28397.9
28405.8
28413.7
28421.4
28428.9
28436.3
28443.7
28450.8
28457.9
28464.9
28471.7
28478.5
28485.1
28491.7
28498.2
28504.6
28510.9
28517.1
28523.2
28529.3
28535.3
28541.3
28547.2
28553
28558.8
28564.5
28570.2
28575.9
28581.6
28587.2
28592.8
28598.3
28603.9
28609.4
28614.9
28620.5
28626
28631.5
28637
28642.6
28648.1
28653.7
28659.3
28664.9
28670.5
28676.2
28681.8
28687.6
28693.3
28699.1
28705
28710.9
28716.8
28722.8
28728.8
28734.9
28741.1
28747.3
28753.6
28759.9
28766.3
28772.8
28779.3
28785.9
28792.5
28799.3
28806.1
28813
28819.9
28826.9
28834
28841.2
28848.4
28855.7
28863.1
28870.6
28878.1
28885.7
28893.4
28901.2
28909
28916.9
28924.8
28932.9
28941
28949.1
28957.4
28965.6
28974
28982.4
28990.8
28999.3
29007.9
29016.5
29025.2
29033.8
29042.6
29051.4
29060.2
29069
29077.9
29086.7
29095.6
29104.6
29113.5
29122.4
29131.4
29140.3
29149.3
29158.2
29167.1
29176
29184.9
29193.8
29202.6
29211.4
29220.2
29228.9
29237.6
29246.2
29254.8
29263.3
29271.7
29280.1
29288.4
29296.6
29304.8
29312.8
29320.8
29328.6
29336.4
29344.1
29351.6
29359
29366.3
29373.5
29380.6
29387.5
29394.3
29400.9
29407.4
29413.7
29419.9
29425.9
29431.8
29437.5
29443
29448.3
29453.5
29458.5
29463.3
29468
29472.4
29476.6
29480.7
29484.5
29488.2
29491.7
29494.9
29497.9
29500.8
29503.4
29505.8
29508
29510
29511.8
29513.3
29514.7
29515.8
29516.7
29517.3
29517.8
29518
25047.1
25047.5
25048.4
25049.8
25051.5
25053.7
25056.4
25059.5
25063
25067
25071.5
25076.3
25081.7
25087.4
25093.6
25100.3
25107.4
25114.9
25122.8
25131.2
25140.1
25149.3
25159
25169.2
25179.7
25190.7
25202.1
25213.9
25226.1
25238.7
25251.7
25265.1
25278.9
25293.1
25307.7
25322.6
25337.9
25353.6
25369.6
25386
25402.7
25419.8
25437.1
25454.8
25472.8
25491.1
25509.7
25528.6
25547.7
25567.1
25586.8
25606.8
25627
25647.4
25668.1
25688.9
25710
25731.3
25752.8
25774.5
25796.4
25818.5
25840.7
25863.1
25885.6
25908.3
25931.1
25954.1
25977.1
26000.3
26023.6
26047
26070.5
26094.1
26117.7
26141.5
26165.2
26189.1
26213
26236.9
26260.9
26284.9
26308.9
26332.9
26356.9
26381
26405
26429
26452.9
26476.9
26500.8
26524.6
26548.5
26572.2
26595.9
26619.5
26643
26666.5
26689.8
26713.1
26736.2
26759.3
26782.2
26805
26827.6
26850.2
26872.5
26894.8
26916.9
26938.8
26960.6
26982.2
27003.6
27024.9
27046
27066.9
27087.6
27108.1
27128.4
27148.5
27168.5
27188.2
27207.7
27227
27246.1
27264.9
27283.6
27302
27320.2
27338.2
27356
27373.5
27390.8
27407.9
27424.7
27441.4
27457.7
27473.9
27489.8
27505.5
27521
27536.2
27551.2
27566
27580.5
27594.8
27608.9
27622.7
27636.4
27649.8
27663
27675.9
27688.7
27701.2
27713.5
27725.6
27737.4
27749.1
27760.5
27771.8
27782.8
27793.7
27804.3
27814.8
27825
27835.1
27845
27854.7
27864.2
27873.5
27882.7
27891.7
27900.5
27909.2
27917.7
27926.1
27934.3
27942.3
27950.2
27958
27965.6
27973.1
27980.5
27987.7
27994.9
28001.9
28008.8
28015.5
28022.2
28028.8
28035.3
28041.7
28048
28054.3
28060.4
28066.5
28072.5
28078.5
28084.3
28090.2
28095.9
28101.7
28107.4
28113
28118.6
28124.2
28129.7
28135.3
28140.8
28146.2
28151.7
28157.2
28162.7
28168.1
28173.6
28179.1
28184.5
28190
28195.6
28201.1
28206.6
28212.2
28217.8
28223.5
28229.2
28234.9
28240.7
28246.5
28252.3
28258.2
28264.2
28270.2
28276.2
28282.4
28288.6
28294.8
28301.1
28307.5
28313.9
28320.4
28327
28333.6
28340.4
28347.2
28354
28361
28368
28375.1
28382.2
28389.5
28396.8
28404.2
28411.7
28419.2
28426.8
28434.5
28442.3
28450.1
28458
28466
28474
28482.2
28490.4
28498.6
28506.9
28515.3
28523.7
28532.2
28540.8
28549.4
28558
28566.7
28575.4
28584.2
28593
28601.9
28610.8
28619.7
28628.6
28637.6
28646.6
28655.5
28664.5
28673.6
28682.6
28691.6
28700.6
28709.6
28718.5
28727.5
28736.4
28745.3
28754.2
28763
28771.8
28780.6
28789.3
28797.9
28806.5
28815
28823.5
28831.9
28840.2
28848.4
28856.5
28864.5
28872.5
28880.3
28888
28895.6
28903.1
28910.5
28917.8
28924.9
28931.9
28938.7
28945.4
28951.9
28958.3
28964.6
28970.7
28976.6
28982.3
28987.9
28993.3
28998.5
29003.6
29008.4
29013.1
29017.6
29021.9
29026
29029.9
29033.5
29037
29040.3
29043.4
29046.2
29048.9
29051.3
29053.5
29055.6
29057.3
29058.9
29060.2
29061.4
29062.3
29062.9
29063.4
29063.6
24580.9
24581.3
24582.2
24583.6
24585.3
24587.5
24590.2
24593.3
24596.9
24600.9
24605.3
24610.2
24615.6
24621.4
24627.6
24634.3
24641.4
24649
24657
24665.4
24674.3
24683.6
24693.3
24703.5
24714.1
24725.2
24736.6
24748.5
24760.8
24773.5
24786.6
24800.1
24814
24828.3
24843
24858
24873.5
24889.3
24905.4
24921.9
24938.8
24955.9
24973.4
24991.2
25009.4
25027.8
25046.5
25065.6
25084.9
25104.4
25124.3
25144.3
25164.7
25185.2
25206
25227.1
25248.3
25269.8
25291.4
25313.2
25335.3
25357.5
25379.8
25402.4
25425
25447.9
25470.8
25493.9
25517.1
25540.4
25563.9
25587.4
25611
25634.8
25658.6
25682.4
25706.3
25730.3
25754.3
25778.4
25802.5
25826.6
25850.8
25874.9
25899.1
25923.2
25947.4
25971.5
25995.6
26019.7
26043.7
26067.7
26091.6
26115.5
26139.3
26163.1
26186.7
26210.3
26233.7
26257.1
26280.4
26303.5
26326.5
26349.4
26372.2
26394.8
26417.3
26439.7
26461.8
26483.9
26505.7
26527.4
26548.9
26570.3
26591.4
26612.4
26633.2
26653.8
26674.2
26694.3
26714.3
26734.1
26753.7
26773
26792.1
26811.1
26829.7
26848.2
26866.5
26884.5
26902.3
26919.8
26937.2
26954.3
26971.1
26987.7
27004.1
27020.3
27036.2
27051.9
27067.4
27082.6
27097.6
27112.4
27126.9
27141.2
27155.3
27169.1
27182.7
27196.1
27209.2
27222.1
27234.8
27247.3
27259.6
27271.6
27283.5
27295.1
27306.5
27317.7
27328.7
27339.5
27350.1
27360.5
27370.7
27380.7
27390.5
27400.2
27409.6
27418.9
27428
27436.9
27445.7
27454.3
27462.7
27471
27479.2
27487.1
27495
27502.7
27510.2
27517.6
27524.9
27532.1
27539.2
27546.1
27552.9
27559.6
27566.2
27572.7
27579.1
27585.5
27591.7
27597.9
27603.9
27609.9
27615.9
27621.7
27627.6
27633.3
27639
27644.7
27650.3
27655.8
27661.4
27666.9
27672.3
27677.8
27683.2
27688.6
27694.1
27699.5
27704.9
27710.3
27715.7
27721.1
27726.5
27731.9
27737.4
27742.8
27748.3
27753.9
27759.4
27765
27770.7
27776.3
27782.1
27787.8
27793.6
27799.5
27805.4
27811.4
27817.4
27823.5
27829.6
27835.9
27842.1
27848.5
27854.9
27861.4
27867.9
27874.6
27881.3
27888
27894.9
27901.8
27908.8
27915.9
27923.1
27930.3
27937.6
27945
27952.5
27960.1
27967.7
27975.4
27983.2
27991
27999
28007
28015
28023.2
28031.4
28039.7
28048
28056.4
28064.9
28073.4
28082
28090.7
28099.4
28108.1
28116.9
28125.7
28134.6
28143.5
28152.5
28161.4
28170.4
28179.5
28188.5
28197.6
28206.6
28215.7
28224.8
28233.9
28243
28252
28261.1
28270.1
28279.2
28288.1
28297.1
28306
28314.9
28323.7
28332.5
28341.3
28349.9
28358.5
28367.1
28375.6
28383.9
28392.2
28400.4
28408.6
28416.6
28424.5
28432.3
28440
28447.6
28455
28462.4
28469.5
28476.6
28483.5
28490.3
28496.9
28503.4
28509.7
28515.8
28521.8
28527.6
28533.3
28538.7
28544
28549.1
28554
28558.8
28563.3
28567.6
28571.8
28575.7
28579.4
28583
28586.3
28589.4
28592.3
28594.9
28597.4
28599.6
28601.7
28603.5
28605
28606.4
28607.5
28608.4
28609.1
28609.6
28609.8
24113.4
24113.9
24114.8
24116.1
24117.9
24120.1
24122.8
24125.9
24129.5
24133.5
24138
24142.9
24148.3
24154.1
24160.4
24167.1
24174.3
24181.9
24189.9
24198.4
24207.3
24216.7
24226.5
24236.8
24247.4
24258.5
24270.1
24282
24294.4
24307.2
24320.4
24334.1
24348.1
24362.5
24377.3
24392.5
24408
24424
24440.3
24456.9
24473.9
24491.2
24508.9
24526.9
24545.1
24563.7
24582.6
24601.8
24621.3
24641
24661
24681.2
24701.7
24722.5
24743.4
24764.6
24786
24807.6
24829.5
24851.5
24873.6
24896
24918.5
24941.2
24964.1
24987
25010.2
25033.4
25056.8
25080.3
25103.9
25127.6
25151.4
25175.2
25199.2
25223.2
25247.3
25271.4
25295.6
25319.8
25344.1
25368.3
25392.6
25416.9
25441.3
25465.6
25489.9
25514.1
25538.4
25562.6
25586.8
25610.9
25635
25659
25682.9
25706.8
25730.6
25754.3
25777.9
25801.4
25824.8
25848.1
25871.2
25894.2
25917.1
25939.9
25962.5
25984.9
26007.2
26029.3
26051.3
26073.1
26094.7
26116.1
26137.4
26158.4
26179.3
26200
26220.4
26240.7
26260.7
26280.6
26300.2
26319.6
26338.8
26357.8
26376.5
26395
26413.3
26431.3
26449.2
26466.8
26484.1
26501.2
26518.1
26534.8
26551.2
26567.3
26583.3
26599
26614.4
26629.6
26644.6
26659.4
26673.9
26688.2
26702.2
26716
26729.6
26743
26756.1
26769
26781.6
26794.1
26806.3
26818.3
26830.1
26841.7
26853
26864.2
26875.1
26885.9
26896.4
26906.7
26916.9
26926.8
26936.6
26946.1
26955.5
26964.7
26973.8
26982.6
26991.3
26999.8
27008.2
27016.4
27024.4
27032.3
27040.1
27047.7
27055.2
27062.5
27069.7
27076.8
27083.8
27090.6
27097.3
27104
27110.5
27116.9
27123.2
27129.5
27135.6
27141.7
27147.7
27153.6
27159.4
27165.2
27170.9
27176.6
27182.2
27187.7
27193.3
27198.8
27204.2
27209.6
27215
27220.4
27225.7
27231.1
27236.4
27241.7
27247
27252.4
27257.7
27263
27268.4
27273.7
27279.1
27284.5
27290
27295.4
27300.9
27306.5
27312
27317.7
27323.3
27329
27334.8
27340.6
27346.5
27352.4
27358.4
27364.4
27370.5
27376.7
27383
27389.3
27395.7
27402.1
27408.7
27415.3
27422
27428.7
27435.6
27442.5
27449.5
27456.6
27463.7
27471
27478.3
27485.7
27493.2
27500.7
27508.4
27516.1
27523.9
27531.8
27539.7
27547.7
27555.8
27564
27572.3
27580.6
27589
27597.4
27605.9
27614.5
27623.2
27631.8
27640.6
27649.4
27658.2
27667.1
27676.1
27685.1
27694.1
27703.1
27712.2
27721.3
27730.4
27739.6
27748.7
27757.9
27767.1
27776.2
27785.4
27794.6
27803.7
27812.8
27822
27831
27840.1
27849.1
27858.1
27867
27875.9
27884.8
27893.5
27902.2
27910.9
27919.4
27927.9
27936.3
27944.6
27952.8
27961
27969
27976.9
27984.7
27992.3
27999.9
28007.3
28014.6
28021.7
28028.7
28035.6
28042.3
28048.8
28055.2
28061.4
28067.5
28073.4
28079.1
28084.6
28090
28095.2
28100.1
28104.9
28109.5
28113.9
28118.1
28122.1
28125.8
28129.4
28132.8
28135.9
28138.8
28141.6
28144
28146.3
28148.4
28150.2
28151.8
28153.2
28154.3
28155.2
28155.9
28156.4
28156.6
23644.8
23645.3
23646.1
23647.5
23649.3
23651.5
23654.2
23657.3
23660.9
23665
23669.5
23674.4
23679.8
23685.7
23692
23698.7
23705.9
23713.6
23721.7
23730.2
23739.2
23748.6
23758.5
23768.8
23779.6
23790.8
23802.4
23814.5
23826.9
23839.9
23853.2
23866.9
23881.1
23895.6
23910.6
23925.9
23941.6
23957.7
23974.2
23991
24008.1
24025.6
24043.5
24061.6
24080.1
24098.9
24117.9
24137.3
24156.9
24176.8
24197
24217.5
24238.1
24259.1
24280.2
24301.6
24323.2
24345
24367
24389.2
24411.5
24434.1
24456.8
24479.7
24502.7
24525.9
24549.2
24572.6
24596.1
24619.8
24643.6
24667.5
24691.4
24715.5
24739.6
24763.8
24788
24812.4
24836.7
24861.1
24885.5
24910
24934.5
24958.9
24983.4
25007.9
25032.4
25056.8
25081.2
25105.6
25130
25154.2
25178.5
25202.7
25226.8
25250.8
25274.7
25298.6
25322.3
25346
25369.5
25392.9
25416.2
25439.4
25462.4
25485.3
25508
25530.6
25553
25575.2
25597.3
25619.2
25641
25662.5
25683.8
25705
25725.9
25746.7
25767.2
25787.6
25807.7
25827.6
25847.3
25866.8
25886
25905
25923.8
25942.4
25960.7
25978.8
25996.7
26014.3
26031.7
26048.8
26065.7
26082.4
26098.8
26115
26130.9
26146.6
26162.1
26177.3
26192.3
26207
26221.5
26235.8
26249.8
26263.6
26277.1
26290.5
26303.5
26316.4
26329
26341.4
26353.6
26365.6
26377.3
26388.8
26400.1
26411.2
26422.1
26432.8
26443.2
26453.5
26463.6
26473.4
26483.1
26492.6
26501.9
26511
26520
26528.8
26537.4
26545.8
26554.1
26562.2
26570.1
26577.9
26585.6
26593.1
26600.5
26607.7
26614.8
26621.8
26628.7
26635.4
26642.1
26648.6
26655
26661.3
26667.5
26673.7
26679.7
26685.7
26691.6
26697.4
26703.1
26708.8
26714.4
26720
26725.5
26730.9
26736.4
26741.8
26747.1
26752.4
26757.7
26763
26768.3
26773.5
26778.7
26784
26789.2
26794.5
26799.7
26804.9
26810.2
26815.5
26820.8
26826.1
26831.5
26836.9
26842.3
26847.8
26853.3
26858.9
26864.5
26870.1
26875.8
26881.6
26887.4
26893.3
26899.2
26905.2
26911.3
26917.4
26923.6
26929.9
26936.3
26942.7
26949.2
26955.8
26962.4
26969.2
26976
26982.9
26989.9
26997
27004.1
27011.4
27018.7
27026.1
27033.6
27041.2
27048.8
27056.6
27064.4
27072.3
27080.3
27088.3
27096.4
27104.7
27112.9
27121.3
27129.7
27138.2
27146.8
27155.4
27164.1
27172.9
27181.7
27190.6
27199.5
27208.4
27217.5
27226.5
27235.6
27244.7
27253.9
27263.1
27272.3
27281.5
27290.8
27300
27309.3
27318.6
27327.8
27337.1
27346.4
27355.6
27364.8
27374
27383.2
27392.3
27401.4
27410.5
27419.5
27428.4
27437.3
27446.1
27454.9
27463.5
27472.1
27480.6
27489.1
27497.4
27505.6
27513.7
27521.7
27529.6
27537.4
27545.1
27552.6
27560
27567.2
27574.3
27581.2
27588
27594.7
27601.2
27607.5
27613.6
27619.6
27625.4
27631
27636.4
27641.7
27646.7
27651.6
27656.2
27660.7
27664.9
27669
27672.8
27676.4
27679.8
27683
27686
27688.7
27691.3
27693.6
27695.6
27697.5
27699.1
27700.5
27701.7
27702.6
27703.3
27703.8
27704
23174.9
23175.3
23176.3
23177.6
23179.4
23181.6
23184.3
23187.5
23191.1
23195.2
23199.7
23204.7
23210.1
23216
23222.3
23229.1
23236.4
23244.1
23252.2
23260.8
23269.9
23279.4
23289.3
23299.7
23310.5
23321.8
23333.6
23345.7
23358.3
23371.4
23384.8
23398.7
23413
23427.7
23442.8
23458.3
23474.2
23490.5
23507.1
23524.1
23541.4
23559.1
23577.2
23595.5
23614.2
23633.2
23652.4
23672
23691.9
23712
23732.4
23753
23773.9
23795
23816.4
23838
23859.8
23881.8
23904
23926.4
23949
23971.7
23994.6
24017.7
24040.9
24064.3
24087.8
24111.4
24135.2
24159.1
24183
24207.1
24231.3
24255.5
24279.8
24304.2
24328.7
24353.2
24377.7
24402.3
24426.9
24451.6
24476.2
24500.9
24525.6
24550.3
24574.9
24599.5
24624.1
24648.7
24673.2
24697.7
24722.1
24746.5
24770.8
24795
24819.1
24843.1
24867
24890.8
24914.5
24938.1
24961.6
24984.9
25008.1
25031.1
25054
25076.7
25099.2
25121.6
25143.8
25165.8
25187.7
25209.3
25230.8
25252.1
25273.1
25294
25314.6
25335
25355.2
25375.2
25395
25414.5
25433.9
25452.9
25471.8
25490.4
25508.8
25526.9
25544.8
25562.5
25579.9
25597
25614
25630.7
25647.1
25663.3
25679.2
25694.9
25710.4
25725.6
25740.6
25755.3
25769.8
25784
25798
25811.8
25825.3
25838.6
25851.6
25864.4
25877
25889.4
25901.5
25913.4
25925.1
25936.5
25947.8
25958.8
25969.6
25980.2
25990.6
26000.8
26010.8
26020.5
26030.1
26039.5
26048.8
26057.8
26066.7
26075.3
26083.8
26092.2
26100.3
26108.4
26116.2
26123.9
26131.5
26138.9
26146.1
26153.3
26160.3
26167.1
26173.9
26180.5
26187
26193.5
26199.8
26206
26212.1
26218.1
26224
26229.9
26235.6
26241.3
26247
26252.5
26258
26263.5
26268.9
26274.2
26279.6
26284.8
26290.1
26295.3
26300.5
26305.7
26310.8
26316
26321.1
26326.2
26331.4
26336.5
26341.7
26346.8
26352
26357.2
26362.4
26367.7
26373
26378.3
26383.6
26389
26394.4
26399.9
26405.5
26411
26416.7
26422.4
26428.1
26434
26439.8
26445.8
26451.8
26457.9
26464.1