/*--------------------------------*- C++ -*----------------------------------*\
| =========                 |                                                 |
| \\      /  F ield         | OpenFOAM: The Open Source CFD Toolbox           |
|  \\    /   O peration     | Version:  v2006                                 |
|   \\  /    A nd           | Website:  www.openfoam.com                      |
|    \\/     M anipulation  |                                                 |
\*---------------------------------------------------------------------------*/
FoamFile
{
    version     2.0;
    format      ascii;
    class       surfaceScalarField;
    location    "12";
    object      phi;
}
// * * * * * * * * * * * * * * * * * * * * * * * * * * * * * * * * * * * * * //

dimensions      [0 3 -1 0 0 0 0];
oriented        oriented;


internalField   nonuniform List<scalar> 
104500
(
1.70451e-05
-1.70451e-05
4.90042e-05
-3.1959e-05
7.8735e-05
-2.97308e-05
0.000104743
-2.60081e-05
0.000128927
-2.41837e-05
0.0001525
-2.35735e-05
0.000175807
-2.33062e-05
0.000198834
-2.30278e-05
0.000221503
-2.26682e-05
0.000243747
-2.22442e-05
0.000265529
-2.17821e-05
0.000286827
-2.12978e-05
0.000307625
-2.07988e-05
0.000327915
-2.029e-05
0.000347691
-1.97751e-05
0.000366949
-1.92588e-05
0.000385694
-1.87448e-05
0.000403931
-1.82364e-05
0.000421668
-1.77377e-05
0.00043892
-1.72518e-05
0.000455701
-1.67811e-05
0.000472029
-1.63281e-05
0.000487923
-1.5894e-05
0.000503403
-1.54796e-05
0.000518488
-1.50855e-05
0.000533201
-1.47122e-05
0.00054756
-1.43594e-05
0.000561586
-1.40261e-05
0.000575297
-1.37111e-05
0.00058871
-1.34133e-05
0.000601842
-1.31316e-05
0.000614707
-1.28647e-05
0.000627318
-1.26114e-05
0.000639688
-1.237e-05
0.000651827
-1.21385e-05
0.000663741
-1.19141e-05
0.000675434
-1.16927e-05
0.000686902
-1.14682e-05
0.000698134
-1.12321e-05
0.000709113
-1.0979e-05
0.000719818
-1.0705e-05
0.000730227
-1.04095e-05
0.000740322
-1.00952e-05
0.00075009
-9.76765e-06
0.000759524
-9.43397e-06
0.000768625
-9.10103e-06
0.000777399
-8.77374e-06
0.000785853
-8.45373e-06
0.000793991
-8.13881e-06
0.000801815
-7.82347e-06
0.000809315
-7.50035e-06
0.000816478
-7.16312e-06
0.000823289
-6.81036e-06
0.000829738
-6.4498e-06
0.00083584
-6.10129e-06
0.000841636
-5.79638e-06
0.00084721
-5.57352e-06
0.000852679
-5.4693e-06
0.000858188
-5.50857e-06
0.000863885
-5.6971e-06
0.000869904
-6.01969e-06
0.000876349
-6.44462e-06
0.000883281
-6.93213e-06
0.000890725
-7.44358e-06
0.000898673
-7.94825e-06
0.000907099
-8.42614e-06
0.000915966
-8.86738e-06
0.000925236
-9.26962e-06
0.000934871
-9.63495e-06
0.000944839
-9.96751e-06
0.00095511
-1.0272e-05
0.000965663
-1.05529e-05
0.000976478
-1.08144e-05
0.000987538
-1.106e-05
0.00099883
-1.12926e-05
0.00101034
-1.15143e-05
0.00102207
-1.17264e-05
0.001034
-1.19294e-05
0.00104612
-1.21235e-05
0.00105843
-1.23092e-05
0.00107092
-1.24876e-05
0.00108358
-1.26606e-05
0.00109641
-1.28311e-05
0.00110941
-1.30025e-05
0.00112259
-1.31779e-05
0.00113595
-1.33594e-05
0.0011495
-1.35479e-05
0.00116324
-1.3742e-05
0.00117718
-1.39387e-05
0.00119131
-1.41334e-05
0.00120563
-1.43206e-05
0.00122013
-1.44947e-05
0.00123478
-1.46511e-05
0.00124957
-1.47866e-05
0.00126447
-1.48998e-05
0.00127946
-1.49912e-05
0.00129452
-1.50627e-05
0.00130964
-1.51171e-05
0.0013248
-1.51576e-05
0.00133998
-1.51872e-05
0.00135519
-1.5208e-05
0.00137041
-1.52217e-05
0.00138564
-1.52292e-05
0.00140087
-1.52306e-05
0.0014161
-1.52255e-05
0.00143131
-1.52132e-05
0.0014465
-1.51923e-05
0.00146166
-1.51611e-05
0.00147678
-1.51166e-05
0.00149184
-1.5056e-05
0.00150681
-1.49773e-05
0.00152169
-1.4874e-05
0.00153642
-1.4727e-05
0.00155092
-1.45081e-05
0.00156513
-1.42027e-05
0.00157896
-1.38311e-05
0.0015924
-1.34394e-05
0.00160547
-1.30695e-05
0.0016182
-1.27384e-05
0.00163065
-1.24406e-05
0.00164281
-1.21618e-05
0.0016547
-1.18904e-05
0.00166632
-1.16196e-05
0.00167766
-1.13457e-05
0.00168873
-1.10663e-05
0.00169951
-1.07796e-05
0.00170999
-1.0484e-05
0.00172017
-1.01779e-05
0.00173003
-9.86051e-06
0.00173956
-9.53137e-06
0.00174875
-9.19007e-06
0.00175759
-8.83605e-06
0.00176606
-8.46926e-06
0.00177415
-8.08934e-06
0.00178184
-7.69654e-06
0.00178913
-7.29088e-06
0.00179601
-6.87241e-06
0.00180245
-6.44154e-06
0.00180845
-5.9985e-06
0.00181399
-5.54431e-06
0.00181907
-5.07981e-06
0.00182368
-4.60665e-06
0.00182781
-4.12774e-06
0.00183145
-3.64484e-06
0.00183461
-3.1604e-06
0.00183729
-2.6757e-06
0.00183948
-2.18942e-06
0.00184117
-1.69633e-06
0.00184236
-1.18729e-06
0.00184301
-6.51294e-07
0.00184306
-5.31529e-08
0.00184235
7.18504e-07
0.00184081
1.53965e-06
0.00183834
2.4652e-06
0.00183485
3.49144e-06
0.00183025
4.59616e-06
0.00182453
5.72694e-06
0.00181768
6.84501e-06
0.00180973
7.95319e-06
0.00180068
9.04375e-06
0.00179056
1.01191e-05
0.00177937
1.11906e-05
0.0017671
1.22733e-05
0.00175372
1.33801e-05
0.0017392
1.45181e-05
0.00172352
1.56828e-05
0.00170667
1.68501e-05
0.0016887
1.79699e-05
0.00166973
1.89692e-05
0.00164996
1.97724e-05
0.00162963
2.0333e-05
0.00160895
2.06725e-05
0.0015881
2.08522e-05
0.00156719
2.09092e-05
0.00154633
2.08659e-05
0.00152561
2.07145e-05
0.00150519
2.04239e-05
0.00148523
1.99606e-05
0.00146591
1.93145e-05
0.0014474
1.85168e-05
0.00142975
1.76428e-05
0.00141296
1.67961e-05
0.00139688
1.60781e-05
0.00138132
1.55587e-05
0.00136606
1.52584e-05
0.00135091
1.51517e-05
0.00133572
1.51847e-05
0.00132043
1.5297e-05
0.00130499
1.54373e-05
0.00128942
1.55698e-05
0.00127375
1.56728e-05
0.00125801
1.57344e-05
0.00124227
1.57484e-05
0.00122655
1.5712e-05
0.00121093
1.56233e-05
0.00119545
1.54813e-05
0.00118016
1.52845e-05
0.00116513
1.50309e-05
0.00115041
1.47182e-05
0.00113607
1.43446e-05
0.00112216
1.391e-05
0.00110874
1.34182e-05
0.00109586
1.28786e-05
0.00108356
1.23083e-05
0.00107182
1.17351e-05
0.00106062
1.11975e-05
0.00104989
1.07337e-05
0.00103952
1.0367e-05
0.00102942
1.01031e-05
0.00101948
9.94061e-06
0.0010096
9.87832e-06
0.000999689
9.9113e-06
0.000989666
1.00228e-05
0.000979484
1.01813e-05
0.000969139
1.03457e-05
0.000958663
1.04759e-05
0.000948121
1.05416e-05
0.000937594
1.05268e-05
0.000927164
1.04302e-05
0.000916902
1.02626e-05
0.00090686
1.00415e-05
0.000897074
9.78586e-06
0.000887562
9.51214e-06
0.00087833
9.23245e-06
0.000869376
8.95384e-06
0.000860697
8.67932e-06
0.000852287
8.40902e-06
0.000844145
8.14202e-06
0.000836268
7.87748e-06
0.000828653
7.61517e-06
0.000821297
7.35599e-06
0.000814196
7.1012e-06
0.000807344
6.85184e-06
0.000800734
6.60968e-06
0.000794358
6.37567e-06
0.000788208
6.15048e-06
0.000782274
5.93433e-06
0.000776546
5.72791e-06
0.000771014
5.53125e-06
0.00076567
5.34436e-06
0.000760503
5.16758e-06
0.000755501
5.00194e-06
0.000750652
4.84862e-06
0.000745946
4.70611e-06
0.000741369
4.57676e-06
0.000736907
4.46183e-06
0.000732547
4.36017e-06
0.000728272
4.27539e-06
0.000724063
4.20849e-06
0.000719903
4.15976e-06
0.000715771
4.13276e-06
0.000711642
4.12853e-06
0.000707491
4.15141e-06
0.000703286
4.20527e-06
0.000698991
4.29413e-06
0.000694567
4.42396e-06
0.000689968
4.59966e-06
0.000685141
4.82646e-06
0.000680033
5.10869e-06
0.000674595
5.43751e-06
0.000668804
5.79157e-06
0.000662645
6.15892e-06
0.0006561
6.54441e-06
0.000649145
6.95524e-06
0.000641754
7.39098e-06
0.000633908
7.84553e-06
0.000625597
8.31182e-06
0.000616811
8.7861e-06
0.000607539
9.27173e-06
0.000597757
9.78164e-06
0.000587419
1.03378e-05
0.000576452
1.09677e-05
0.000564754
1.16981e-05
0.000552204
1.255e-05
0.000538668
1.35354e-05
0.000524011
1.4657e-05
0.0005081
1.59107e-05
0.000490812
1.72882e-05
0.000472035
1.8777e-05
0.000451676
2.03591e-05
0.00042967
2.20062e-05
0.000405995
2.36749e-05
0.000380684
2.53111e-05
0.000353831
2.68531e-05
0.000325589
2.82422e-05
0.000296158
2.94304e-05
0.000265783
3.03751e-05
0.000234691
3.10923e-05
0.000203153
3.15375e-05
0.000171502
3.16509e-05
0.000140121
3.13812e-05
0.000109461
3.06605e-05
8.0091e-05
2.93697e-05
5.27445e-05
2.73465e-05
2.82589e-05
2.44856e-05
7.38559e-06
2.08733e-05
-9.44012e-06
1.68257e-05
-2.23493e-05
1.29092e-05
-3.20405e-05
9.69123e-06
-3.95437e-05
7.50315e-06
-4.58656e-05
6.32188e-06
-5.17918e-05
5.92621e-06
-5.77453e-05
5.9535e-06
-6.38356e-05
6.09029e-06
-6.99659e-05
6.1303e-06
-7.59516e-05
5.98578e-06
-8.16e-05
5.64834e-06
-8.67401e-05
5.14015e-06
-9.1285e-05
4.54484e-06
-9.51964e-05
3.91141e-06
-9.84578e-05
3.26142e-06
-0.000101059
2.601e-06
-0.000102995
1.93607e-06
-0.00010428
1.28505e-06
-0.000104955
6.75289e-07
-0.000105091
1.36217e-07
-0.000104788
-3.03618e-07
-0.000104108
-6.80221e-07
-0.000103114
-9.9339e-07
-0.000101868
-1.24614e-06
-0.000100415
-1.45275e-06
-9.87899e-05
-1.62545e-06
-9.70243e-05
-1.76556e-06
-9.51479e-05
-1.87636e-06
-9.3182e-05
-1.96597e-06
-9.11425e-05
-2.03951e-06
-8.90398e-05
-2.10264e-06
-8.6876e-05
-2.16381e-06
-8.46588e-05
-2.21724e-06
-8.23899e-05
-2.2689e-06
-8.00667e-05
-2.32322e-06
-7.76807e-05
-2.38592e-06
-7.52126e-05
-2.46819e-06
-7.26419e-05
-2.57067e-06
-6.99388e-05
-2.70307e-06
-6.7073e-05
-2.86585e-06
-6.40112e-05
-3.06172e-06
-6.07204e-05
-3.29084e-06
-5.71697e-05
-3.5507e-06
-5.33326e-05
-3.83713e-06
-4.91939e-05
-4.13867e-06
-4.47557e-05
-4.43822e-06
-4.00389e-05
-4.71676e-06
-3.50638e-05
-4.97509e-06
-2.98112e-05
-5.25259e-06
-2.41411e-05
-5.6701e-06
-1.78532e-05
-6.28792e-06
-1.04792e-05
-7.37406e-06
-2.3774e-06
-8.10176e-06
-2.3774e-06
7.4258e-06
-2.44709e-05
2.83009e-05
-5.28341e-05
4.55696e-05
-4.69996e-05
5.87472e-05
-3.91857e-05
7.03299e-05
-3.57664e-05
8.16914e-05
-3.4935e-05
9.30655e-05
-3.46803e-05
0.000104299
-3.4261e-05
0.000115268
-3.36374e-05
0.00012594
-3.29165e-05
0.00013632
-3.21617e-05
0.000146414
-3.13925e-05
0.000156228
-3.06118e-05
0.000165762
-2.9824e-05
0.000175022
-2.90358e-05
0.000184019
-2.82561e-05
0.000192769
-2.74944e-05
0.000201291
-2.67585e-05
0.000209608
-2.6055e-05
0.000217747
-2.53903e-05
0.000225736
-2.47704e-05
0.000233607
-2.41986e-05
0.000241391
-2.36781e-05
0.000249123
-2.32117e-05
0.000256838
-2.28003e-05
0.00026457
-2.24441e-05
0.000272352
-2.21414e-05
0.000280215
-2.18896e-05
0.00028819
-2.16856e-05
0.000296302
-2.15262e-05
0.000304579
-2.14082e-05
0.000313042
-2.13274e-05
0.000321709
-2.12788e-05
0.000330596
-2.12566e-05
0.000339711
-2.12533e-05
0.000349057
-2.1261e-05
0.000358635
-2.12708e-05
0.000368441
-2.12737e-05
0.00037847
-2.12615e-05
0.000388719
-2.12279e-05
0.000399184
-2.11697e-05
0.000409861
-2.10865e-05
0.000420747
-2.09807e-05
0.000431835
-2.0856e-05
0.000443117
-2.07165e-05
0.000454582
-2.05659e-05
0.000466215
-2.04067e-05
0.000478001
-2.02398e-05
0.000489927
-2.00646e-05
0.000501983
-1.98795e-05
0.000514166
-1.96831e-05
0.000526478
-1.94756e-05
0.000538928
-1.92595e-05
0.000551519
-1.90415e-05
0.000564251
-1.88326e-05
0.0005771
-1.86463e-05
0.000590024
-1.84971e-05
0.000602952
-1.83976e-05
0.0006158
-1.83561e-05
0.000628478
-1.83752e-05
0.000640909
-1.84511e-05
0.00065304
-1.85753e-05
0.000664844
-1.87363e-05
0.000676323
-1.89224e-05
0.000687498
-1.91228e-05
0.000698401
-1.93297e-05
0.000709072
-1.95378e-05
0.000719546
-1.97443e-05
0.000729859
-1.99481e-05
0.000740041
-2.01493e-05
0.000750118
-2.03489e-05
0.000760113
-2.05479e-05
0.000770046
-2.07477e-05
0.000779936
-2.09492e-05
0.000789797
-2.11536e-05
0.000799644
-2.13616e-05
0.000809491
-2.15735e-05
0.000819351
-2.17897e-05
0.000829238
-2.20101e-05
0.000839164
-2.2235e-05
0.000849141
-2.24651e-05
0.000859182
-2.27011e-05
0.000869295
-2.29444e-05
0.000879488
-2.3196e-05
0.000889767
-2.34562e-05
0.000900132
-2.37245e-05
0.000910583
-2.39987e-05
0.000921116
-2.42752e-05
0.000931726
-2.4549e-05
0.000942407
-2.48145e-05
0.000953153
-2.50659e-05
0.000963956
-2.52981e-05
0.000974812
-2.5507e-05
0.000985716
-2.56903e-05
0.000996663
-2.58472e-05
0.00100765
-2.59781e-05
0.00101867
-2.60844e-05
0.00102972
-2.61683e-05
0.0010408
-2.62317e-05
0.00105189
-2.62765e-05
0.00106298
-2.63043e-05
0.00107408
-2.63161e-05
0.00108516
-2.63125e-05
0.00109622
-2.62939e-05
0.00110726
-2.62607e-05
0.00111826
-2.62131e-05
0.00112922
-2.61519e-05
0.00114013
-2.60777e-05
0.00115101
-2.59917e-05
0.00116185
-2.58961e-05
0.00117266
-2.57925e-05
0.00118347
-2.56798e-05
0.0011943
-2.55537e-05
0.0012052
-2.54069e-05
0.00121623
-2.52316e-05
0.00122742
-2.50222e-05
0.00123875
-2.47768e-05
0.00125018
-2.44973e-05
0.00126163
-2.41875e-05
0.00127304
-2.38516e-05
0.00128437
-2.34927e-05
0.00129559
-2.31124e-05
0.00130669
-2.27114e-05
0.00131763
-2.229e-05
0.00132841
-2.18483e-05
0.00133902
-2.13866e-05
0.00134944
-2.09052e-05
0.00135967
-2.04049e-05
0.00136969
-1.98857e-05
0.00137951
-1.93471e-05
0.00138911
-1.87896e-05
0.00139849
-1.82139e-05
0.00140764
-1.76203e-05
0.00141656
-1.70096e-05
0.00142524
-1.63824e-05
0.00143369
-1.57394e-05
0.0014419
-1.50809e-05
0.00144987
-1.44083e-05
0.00145759
-1.37239e-05
0.00146508
-1.30275e-05
0.00147232
-1.23227e-05
0.00147932
-1.16111e-05
0.00148609
-1.08968e-05
0.00149263
-1.01835e-05
0.00149895
-9.47503e-06
0.00150505
-8.77573e-06
0.00151095
-8.08937e-06
0.00151666
-7.41566e-06
0.00152223
-6.74794e-06
0.00152765
-6.07643e-06
0.00153298
-5.38075e-06
0.00153833
-4.62965e-06
0.00154368
-3.81604e-06
0.00154908
-2.93139e-06
0.00155452
-1.95492e-06
0.00155998
-8.62305e-07
0.0015655
2.09912e-07
0.00157107
1.27348e-06
0.00157657
2.45667e-06
0.00158194
3.67525e-06
0.00158716
4.90078e-06
0.00159223
6.12e-06
0.00159717
7.32726e-06
0.00160203
8.52243e-06
0.00160684
9.71005e-06
0.00161162
1.08984e-05
0.00161638
1.20966e-05
0.00162103
1.33103e-05
0.00162547
1.45361e-05
0.00162948
1.57614e-05
0.00163285
1.69663e-05
0.00163543
1.80918e-05
0.00163717
1.91062e-05
0.00163807
2.00163e-05
0.0016381
2.08272e-05
0.00163728
2.15409e-05
0.00163555
2.21533e-05
0.00163285
2.26549e-05
0.00162913
2.30371e-05
0.00162435
2.32991e-05
0.00161854
2.34534e-05
0.00161181
2.35265e-05
0.00160433
2.3554e-05
0.00159632
2.35733e-05
0.00158796
2.3615e-05
0.00157941
2.36981e-05
0.00157077
2.38292e-05
0.00156206
2.40047e-05
0.00155329
2.42144e-05
0.00154441
2.44453e-05
0.0015354
2.4684e-05
0.00152621
2.49179e-05
0.00151683
2.51362e-05
0.00150721
2.53297e-05
0.00149734
2.54907e-05
0.00148721
2.56129e-05
0.0014768
2.56909e-05
0.00146612
2.57198e-05
0.00145514
2.56948e-05
0.00144387
2.56117e-05
0.00143231
2.54667e-05
0.00142048
2.52574e-05
0.00140837
2.49835e-05
0.00139603
2.46482e-05
0.00138351
2.42598e-05
0.00137087
2.38322e-05
0.00135822
2.33845e-05
0.00134565
2.29386e-05
0.00133323
2.25184e-05
0.00132103
2.21473e-05
0.00130906
2.18458e-05
0.00129734
2.16273e-05
0.00128587
2.14943e-05
0.00127462
2.14375e-05
0.00126353
2.14351e-05
0.00125254
2.14589e-05
0.00124161
2.14781e-05
0.00123067
2.14645e-05
0.0012197
2.13967e-05
0.0012087
2.12627e-05
0.00119768
2.10595e-05
0.00118668
2.07919e-05
0.00117572
2.047e-05
0.00116485
2.0106e-05
0.00115409
1.97133e-05
0.00114346
1.93028e-05
0.00113299
1.88836e-05
0.00112267
1.84619e-05
0.00111251
1.80419e-05
0.00110249
1.76267e-05
0.00109263
1.72185e-05
0.00108291
1.6819e-05
0.00107334
1.64299e-05
0.00106389
1.60529e-05
0.00105458
1.56897e-05
0.00104539
1.53414e-05
0.00103631
1.50089e-05
0.00102735
1.46935e-05
0.00101848
1.43938e-05
0.00100972
1.41117e-05
0.00100104
1.38451e-05
0.000992445
1.35968e-05
0.00098393
1.33638e-05
0.000975488
1.3148e-05
0.000967117
1.29473e-05
0.000958815
1.27639e-05
0.000950579
1.25957e-05
0.000942412
1.24428e-05
0.000934314
1.2306e-05
0.000926291
1.21837e-05
0.000918346
1.20769e-05
0.000910491
1.19842e-05
0.000902736
1.19064e-05
0.000895099
1.18423e-05
0.000887601
1.17916e-05
0.000880271
1.1754e-05
0.000873141
1.17296e-05
0.000866249
1.17187e-05
0.000859637
1.17205e-05
0.000853339
1.17357e-05
0.000847364
1.17662e-05
0.00084171
1.18136e-05
0.000836375
1.18791e-05
0.000831366
1.19641e-05
0.000826687
1.20701e-05
0.000822334
1.21985e-05
0.000818295
1.23514e-05
0.000814548
1.25327e-05
0.000811071
1.27485e-05
0.000807844
1.30084e-05
0.000804857
1.33251e-05
0.000802111
1.37141e-05
0.000799616
1.41929e-05
0.000797387
1.47793e-05
0.000795432
1.549e-05
0.000793748
1.63407e-05
0.000792314
1.73453e-05
0.000791085
1.85168e-05
0.000789995
1.98668e-05
0.000788946
2.14091e-05
0.000787798
2.31534e-05
0.000786434
2.50394e-05
0.000784701
2.70441e-05
0.000782422
2.91318e-05
0.000779414
3.12504e-05
0.000775507
3.33373e-05
0.000770562
3.53198e-05
0.000764545
3.71102e-05
0.000757489
3.85929e-05
0.000749511
3.96293e-05
0.000740825
4.00667e-05
0.000731741
3.97444e-05
0.000722612
3.84987e-05
0.000713783
3.61755e-05
0.000705491
3.27779e-05
0.000697766
2.8598e-05
0.000690632
2.39602e-05
0.00068415
1.93906e-05
0.000678383
1.54583e-05
0.000673297
1.25897e-05
0.000668695
1.09241e-05
0.00066432
1.03008e-05
0.000659944
1.03296e-05
0.000655475
1.05597e-05
0.000650902
1.07033e-05
0.000646244
1.06438e-05
0.000641492
1.03995e-05
0.000636587
1.00457e-05
0.000631459
9.67251e-06
0.000626031
9.33932e-06
0.00062023
9.06266e-06
0.000614003
8.82793e-06
0.000607328
8.6112e-06
0.000600214
8.39861e-06
0.000592697
8.19284e-06
0.000584825
8.00816e-06
0.000576661
7.86063e-06
0.000568222
7.75819e-06
0.000559518
7.71054e-06
0.000550545
7.72734e-06
0.000541276
7.81657e-06
0.000531666
7.98385e-06
0.000521671
8.2301e-06
0.000511245
8.54914e-06
0.000500347
8.93161e-06
0.000488938
9.36965e-06
0.000476976
9.85929e-06
0.000464412
1.04007e-05
0.000451198
1.09969e-05
0.000437281
1.16483e-05
0.000422606
1.23514e-05
0.000407122
1.30981e-05
0.000390777
1.38765e-05
0.000373534
1.46725e-05
0.000355362
1.54687e-05
0.000336251
1.62458e-05
0.000316205
1.69839e-05
0.00029525
1.76644e-05
0.000273428
1.82706e-05
0.000250801
1.87905e-05
0.000227444
1.92177e-05
0.000203457
1.95488e-05
0.000178959
1.97821e-05
0.000154071
1.99129e-05
0.000128877
1.99412e-05
0.000103351
1.98558e-05
7.7186e-05
1.9877e-05
5.01038e-05
1.97081e-05
2.42189e-05
1.77832e-05
2.18415e-05
7.73732e-06
-3.22082e-05
3.12209e-05
-7.63177e-05
5.16281e-05
-6.74068e-05
6.7159e-05
-5.47165e-05
8.03642e-05
-4.89716e-05
9.31523e-05
-4.77231e-05
0.00010608
-4.76076e-05
0.000119036
-4.72177e-05
0.000131828
-4.64292e-05
0.000144358
-4.54465e-05
0.000156606
-4.44097e-05
0.000168574
-4.33604e-05
0.000180264
-4.2302e-05
0.000191677
-4.12366e-05
0.000202815
-4.01738e-05
0.000213687
-3.91285e-05
0.000224308
-3.81154e-05
0.000234695
-3.7145e-05
0.000244869
-3.62292e-05
0.000254857
-3.53781e-05
0.000264686
-3.46002e-05
0.00027439
-3.39016e-05
0.000283999
-3.32874e-05
0.000293548
-3.27606e-05
0.00030307
-3.23228e-05
0.000312599
-3.19724e-05
0.000322164
-3.17071e-05
0.000331798
-3.15232e-05
0.000341527
-3.14151e-05
0.000351377
-3.13762e-05
0.000361368
-3.13992e-05
0.000371517
-3.14757e-05
0.000381835
-3.1597e-05
0.000392332
-3.17532e-05
0.000403012
-3.19337e-05
0.000413878
-3.21275e-05
0.000424931
-3.23228e-05
0.000436166
-3.25088e-05
0.00044758
-3.26759e-05
0.000459169
-3.28172e-05
0.000470928
-3.29283e-05
0.000482848
-3.3007e-05
0.000494921
-3.30529e-05
0.000507131
-3.30669e-05
0.000519466
-3.30507e-05
0.000531906
-3.3006e-05
0.000544434
-3.29345e-05
0.000557031
-3.28372e-05
0.000569681
-3.27149e-05
0.000582369
-3.25676e-05
0.000595081
-3.2395e-05
0.000607803
-3.2197e-05
0.000620518
-3.19746e-05
0.000633207
-3.17313e-05
0.000645848
-3.14736e-05
0.000658413
-3.12114e-05
0.000670873
-3.0957e-05
0.0006832
-3.07241e-05
0.000695369
-3.05252e-05
0.000707364
-3.03699e-05
0.000719176
-3.02636e-05
0.000730808
-3.0207e-05
0.000742269
-3.01972e-05
0.000753575
-3.02287e-05
0.000764747
-3.0295e-05
0.000775808
-3.03898e-05
0.000786778
-3.0508e-05
0.000797679
-3.06458e-05
0.000808532
-3.08005e-05
0.000819353
-3.09703e-05
0.000830158
-3.11541e-05
0.000840961
-3.13513e-05
0.000851775
-3.15618e-05
0.000862612
-3.17853e-05
0.00087348
-3.2022e-05
0.00088439
-3.22717e-05
0.000895351
-3.25342e-05
0.00090637
-3.28091e-05
0.000917456
-3.30956e-05
0.000928614
-3.33933e-05
0.00093985
-3.37013e-05
0.000951168
-3.40194e-05
0.000962571
-3.43473e-05
0.00097406
-3.46843e-05
0.000985633
-3.50297e-05
0.00099729
-3.53815e-05
0.00100903
-3.57368e-05
0.00102084
-3.60916e-05
0.00103274
-3.64408e-05
0.0010447
-3.67788e-05
0.00105673
-3.71002e-05
0.00106884
-3.74003e-05
0.00108101
-3.76753e-05
0.00109324
-3.79228e-05
0.00110553
-3.81414e-05
0.00111789
-3.83311e-05
0.00113029
-3.84923e-05
0.00114275
-3.86258e-05
0.00115525
-3.87326e-05
0.00116779
-3.88132e-05
0.00118035
-3.8868e-05
0.00119293
-3.88973e-05
0.00120552
-3.89009e-05
0.00121811
-3.88783e-05
0.00123067
-3.8829e-05
0.00124321
-3.87522e-05
0.00125571
-3.86468e-05
0.00126814
-3.85119e-05
0.0012805
-3.83462e-05
0.00129275
-3.81492e-05
0.00130488
-3.79204e-05
0.00131686
-3.76607e-05
0.00132868
-3.7375e-05
0.00134034
-3.70706e-05
0.00135186
-3.67489e-05
0.00136324
-3.64008e-05
0.00137448
-3.60127e-05
0.00138556
-3.55768e-05
0.00139646
-3.50948e-05
0.00140718
-3.45732e-05
0.00141771
-3.40181e-05
0.00142803
-3.34328e-05
0.00143814
-3.2819e-05
0.00144803
-3.21776e-05
0.00145769
-3.1509e-05
0.00146711
-3.08139e-05
0.0014763
-3.00923e-05
0.00148524
-2.93436e-05
0.00149392
-2.85691e-05
0.00150235
-2.777e-05
0.0015105
-2.69457e-05
0.00151839
-2.60973e-05
0.00152599
-2.52257e-05
0.00153331
-2.4331e-05
0.00154035
-2.34156e-05
0.00154709
-2.24807e-05
0.00155353
-2.15253e-05
0.00155968
-2.05543e-05
0.00156552
-1.95662e-05
0.00157106
-1.85658e-05
0.00157628
-1.75503e-05
0.0015812
-1.6524e-05
0.00158579
-1.54916e-05
0.00159006
-1.44475e-05
0.00159398
-1.33961e-05
0.00159754
-1.23368e-05
0.00160072
-1.12681e-05
0.00160349
-1.01845e-05
0.00160583
-9.09107e-06
0.00160773
-7.98157e-06
0.00160919
-6.83941e-06
0.00161022
-5.66032e-06
0.00161086
-4.45594e-06
0.00161113
-3.19628e-06
0.00161109
-1.91216e-06
0.0016109
-6.80742e-07
0.00161018
9.38557e-07
0.00160906
2.38734e-06
0.00160768
3.84018e-06
0.00160604
5.31186e-06
0.00160415
6.79182e-06
0.001602
8.26747e-06
0.0015996
9.72868e-06
0.00159696
1.11681e-05
0.00159409
1.25809e-05
0.00159102
1.39656e-05
0.00158779
1.53268e-05
0.00158442
1.66756e-05
0.00158093
1.8025e-05
0.00157731
1.93809e-05
0.00157355
2.0733e-05
0.00156959
2.20519e-05
0.00156539
2.3303e-05
0.00156093
2.44726e-05
0.00155621
2.55478e-05
0.00155123
2.65286e-05
0.00154595
2.74246e-05
0.00154036
2.82469e-05
0.0015344
2.90015e-05
0.00152801
2.96884e-05
0.00152116
3.0303e-05
0.00151384
3.08412e-05
0.00150609
3.13045e-05
0.00149797
3.17025e-05
0.00148953
3.20522e-05
0.00148085
3.23734e-05
0.001472
3.26837e-05
0.00146301
3.2994e-05
0.00145392
3.33083e-05
0.00144474
3.36246e-05
0.00143548
3.39372e-05
0.00142616
3.42389e-05
0.00141678
3.45223e-05
0.00140732
3.47811e-05
0.0013978
3.50098e-05
0.00138821
3.52039e-05
0.00137855
3.53597e-05
0.00136879
3.54744e-05
0.00135894
3.55458e-05
0.00134898
3.55718e-05
0.0013389
3.55503e-05
0.00132867
3.5479e-05
0.0013183
3.53556e-05
0.00130777
3.51785e-05
0.00129708
3.49474e-05
0.00128625
3.4664e-05
0.0012753
3.43344e-05
0.00126427
3.39723e-05
0.00125319
3.36012e-05
0.00124208
3.32496e-05
0.00123099
3.29424e-05
0.00121992
3.26956e-05
0.0012089
3.25141e-05
0.00119794
3.23917e-05
0.00118707
3.23135e-05
0.00117627
3.22578e-05
0.00116555
3.21983e-05
0.0011549
3.21084e-05
0.00114433
3.19662e-05
0.00113384
3.17566e-05
0.00112342
3.14748e-05
0.00111309
3.11229e-05
0.00110285
3.07112e-05
0.00109271
3.02528e-05
0.00108266
2.97615e-05
0.00107271
2.92496e-05
0.00106287
2.87267e-05
0.00105313
2.82005e-05
0.0010435
2.76744e-05
0.00103397
2.71533e-05
0.00102455
2.66397e-05
0.00101523
2.61363e-05
0.00100602
2.56456e-05
0.000996899
2.51696e-05
0.000987878
2.47107e-05
0.000978949
2.42704e-05
0.000970108
2.38499e-05
0.000961351
2.34501e-05
0.000952673
2.30715e-05
0.000944071
2.27144e-05
0.000935537
2.2379e-05
0.000927069
2.20651e-05
0.000918659
2.17737e-05
0.000910303
2.15034e-05
0.000901996
2.12543e-05
0.000893735
2.10251e-05
0.000885513
2.08178e-05
0.000877325
2.06312e-05
0.000869168
2.0463e-05
0.000861038
2.03133e-05
0.000852935
2.01803e-05
0.000844855
2.0064e-05
0.000836799
1.99627e-05
0.000828765
1.9876e-05
0.000820754
1.98022e-05
0.000812769
1.97399e-05
0.000804812
1.96867e-05
0.000796891
1.96392e-05
0.000789017
1.95947e-05
0.0007812
1.95528e-05
0.000773449
1.9517e-05
0.000765773
1.94896e-05
0.000758182
1.94695e-05
0.000750692
1.94542e-05
0.000743319
1.94433e-05
0.000736079
1.94389e-05
0.000728985
1.94449e-05
0.000722051
1.94669e-05
0.000715288
1.95114e-05
0.00070871
1.95862e-05
0.000702337
1.96985e-05
0.000696196
1.98552e-05
0.000690326
2.00626e-05
0.000684779
2.03262e-05
0.000679618
2.06514e-05
0.000674916
2.10427e-05
0.000670751
2.15097e-05
0.000667201
2.20675e-05
0.000664343
2.27244e-05
0.000662265
2.34875e-05
0.000661058
2.43604e-05
0.000660756
2.53411e-05
0.000661373
2.64266e-05
0.000662898
2.76071e-05
0.000665284
2.88646e-05
0.000668451
3.01703e-05
0.000672288
3.14822e-05
0.000676657
3.27411e-05
0.000681385
3.38653e-05
0.000686264
3.47501e-05
0.000691058
3.52726e-05
0.000695502
3.53006e-05
0.000699293
3.47076e-05
0.00070206
3.34091e-05
0.000703528
3.13099e-05
0.000703642
2.84836e-05
0.000702409
2.51934e-05
0.000699944
2.18559e-05
0.000696444
1.89577e-05
0.000692141
1.68929e-05
0.000687259
1.58063e-05
0.000682015
1.55445e-05
0.000676592
1.5753e-05
0.000671096
1.6055e-05
0.000665602
1.61978e-05
0.000660152
1.60932e-05
0.000654771
1.57813e-05
0.000649445
1.53713e-05
0.000644127
1.499e-05
0.000638727
1.47402e-05
0.000633117
1.46725e-05
0.000627165
1.47798e-05
0.000620765
1.50108e-05
0.000613867
1.5297e-05
0.000606481
1.55788e-05
0.000598667
1.58224e-05
0.000590503
1.60242e-05
0.000582057
1.62042e-05
0.000573373
1.6395e-05
0.00056447
1.66298e-05
0.000555353
1.69342e-05
0.000546013
1.73237e-05
0.000536437
1.78054e-05
0.000526605
1.83817e-05
0.000516483
1.90531e-05
0.000506032
1.98215e-05
0.000495199
2.06921e-05
0.000483927
2.16725e-05
0.000472153
2.27713e-05
0.000459806
2.39953e-05
0.000446808
2.53487e-05
0.000433074
2.68324e-05
0.000418507
2.84433e-05
0.000403007
3.01722e-05
0.000386475
3.20014e-05
0.000368815
3.39056e-05
0.000349944
3.58546e-05
0.000329793
3.78159e-05
0.000308308
3.97549e-05
0.000285464
4.16353e-05
0.000261261
4.34201e-05
0.000235736
4.50747e-05
0.000208951
4.65671e-05
0.000181
4.78634e-05
0.000152008
4.89335e-05
0.000122093
4.97702e-05
9.13698e-05
5.06003e-05
6.04239e-05
5.0654e-05
3.11816e-05
4.70256e-05
5.3023e-05
9.97683e-06
-4.21851e-05
3.6588e-05
-0.000102929
6.07748e-05
-9.15936e-05
8.00451e-05
-7.39869e-05
9.66717e-05
-6.55983e-05
0.000112618
-6.36697e-05
0.000128595
-6.35842e-05
0.000144555
-6.31771e-05
0.000160294
-6.21685e-05
0.000175681
-6.08334e-05
0.000190673
-5.94019e-05
0.000205262
-5.795e-05
0.000219448
-5.64881e-05
0.000233227
-5.50155e-05
0.000246599
-5.35459e-05
0.000259569
-5.20982e-05
0.000272145
-5.06914e-05
0.000284345
-4.93447e-05
0.000296188
-4.80721e-05
0.000307698
-4.68885e-05
0.000318904
-4.58057e-05
0.000329836
-4.48338e-05
0.000340527
-4.39786e-05
0.00035101
-4.32441e-05
0.000361321
-4.26333e-05
0.000371494
-4.21452e-05
0.000381562
-4.17756e-05
0.000391558
-4.15188e-05
0.00040151
-4.13673e-05
0.000411446
-4.1312e-05
0.000421389
-4.1342e-05
0.000431358
-4.14455e-05
0.000441371
-4.16099e-05
0.00045144
-4.1822e-05
0.000461574
-4.2068e-05
0.000471781
-4.2334e-05
0.000482065
-4.26068e-05
0.00049243
-4.2874e-05
0.000502879
-4.31252e-05
0.000513414
-4.33517e-05
0.000524033
-4.35475e-05
0.000534734
-4.37083e-05
0.000545513
-4.38316e-05
0.000556362
-4.39159e-05
0.000567272
-4.39608e-05
0.000578233
-4.39663e-05
0.000589231
-4.39331e-05
0.000600256
-4.38622e-05
0.000611296
-4.37549e-05
0.000622341
-4.36126e-05
0.000633383
-4.34371e-05
0.000644417
-4.3231e-05
0.000655441
-4.29982e-05
0.000666454
-4.27447e-05
0.00067746
-4.24788e-05
0.000688459
-4.22107e-05
0.000699454
-4.19519e-05
0.000710444
-4.17141e-05
0.000721426
-4.15076e-05
0.000732396
-4.13403e-05
0.00074335
-4.12169e-05
0.000754281
-4.11386e-05
0.000765188
-4.11044e-05
0.000776071
-4.11111e-05
0.000786931
-4.1155e-05
0.000797774
-4.12325e-05
0.000808606
-4.13403e-05
0.000819436
-4.1476e-05
0.000830273
-4.16377e-05
0.000841127
-4.18242e-05
0.000852007
-4.20345e-05
0.000862924
-4.22679e-05
0.000873886
-4.25238e-05
0.000884902
-4.28017e-05
0.000895981
-4.31008e-05
0.00090713
-4.34204e-05
0.000918355
-4.37596e-05
0.000929663
-4.41171e-05
0.00094106
-4.44917e-05
0.000952548
-4.4882e-05
0.000964133
-4.52863e-05
0.000975817
-4.57033e-05
0.000987601
-4.6131e-05
0.000999484
-4.65677e-05
0.00101147
-4.7011e-05
0.00102354
-4.74581e-05
0.00103571
-4.79055e-05
0.00104797
-4.83493e-05
0.00106031
-4.87848e-05
0.00107274
-4.92076e-05
0.00108525
-4.96129e-05
0.00109785
-4.99966e-05
0.00111053
-5.0355e-05
0.00112329
-5.06852e-05
0.00113614
-5.0985e-05
0.00114906
-5.12529e-05
0.00116205
-5.14877e-05
0.00117512
-5.16887e-05
0.00118824
-5.18552e-05
0.00120141
-5.19867e-05
0.00121463
-5.20825e-05
0.00122787
-5.21419e-05
0.00124113
-5.21641e-05
0.0012544
-5.21484e-05
0.00126767
-5.2094e-05
0.00128092
-5.2e-05
0.00129414
-5.18661e-05
0.00130732
-5.16917e-05
0.00132045
-5.14766e-05
0.00133352
-5.12193e-05
0.00134651
-5.09177e-05
0.00135942
-5.05703e-05
0.00137223
-5.01768e-05
0.00138489
-4.97376e-05
0.0013974
-4.92534e-05
0.00140972
-4.87225e-05
0.00142185
-4.81451e-05
0.0014338
-4.75209e-05
0.00144555
-4.68509e-05
0.00145711
-4.61359e-05
0.00146847
-4.53768e-05
0.00147962
-4.45755e-05
0.00149053
-4.37325e-05
0.0015012
-4.2849e-05
0.00151162
-4.19253e-05
0.00152176
-4.09619e-05
0.00153163
-3.99605e-05
0.00154121
-3.89235e-05
0.00155049
-3.78493e-05
0.00155946
-3.6739e-05
0.00156811
-3.55953e-05
0.00157643
-3.44185e-05
0.00158442
-3.32094e-05
0.00159205
-3.19694e-05
0.00159934
-3.07024e-05
0.00160626
-2.94037e-05
0.00161282
-2.80786e-05
0.001619
-2.67325e-05
0.00162479
-2.53604e-05
0.00163019
-2.39687e-05
0.0016352
-2.25565e-05
0.0016398
-2.1128e-05
0.00164399
-1.96829e-05
0.00164778
-1.82291e-05
0.00165112
-1.67436e-05
0.00165404
-1.52507e-05
0.00165652
-1.37546e-05
0.00165857
-1.2233e-05
0.00166015
-1.06704e-05
0.00166127
-9.10395e-06
0.00166193
-7.49424e-06
0.00166212
-5.84933e-06
0.00166183
-4.16901e-06
0.00166107
-2.43377e-06
0.00165977
-6.16898e-07
0.00165815
9.42156e-07
0.00165634
2.74721e-06
0.00165416
4.57199e-06
0.0016516
6.39282e-06
0.00164871
8.20886e-06
0.00164548
1.00187e-05
0.00164193
1.18197e-05
0.00163805
1.36087e-05
0.00163383
1.53833e-05
0.00162927
1.71418e-05
0.00162436
1.88828e-05
0.00161908
2.06052e-05
0.00161345