/*--------------------------------*- C++ -*----------------------------------*\
| =========                 |                                                 |
| \\      /  F ield         | OpenFOAM: The Open Source CFD Toolbox           |
|  \\    /   O peration     | Version:  v2006                                 |
|   \\  /    A nd           | Website:  www.openfoam.com                      |
|    \\/     M anipulation  |                                                 |
\*---------------------------------------------------------------------------*/
FoamFile
{
    version     2.0;
    format      ascii;
    class       volVectorField;
    location    "2.4";
    object      U;
}
// * * * * * * * * * * * * * * * * * * * * * * * * * * * * * * * * * * * * * //

dimensions      [0 1 -1 0 0 0 0];


internalField   nonuniform List<vector> 
50000
(
(0.00603519 -0.00044711 0)
(-0.00634924 -0.00142634 0)
(0.007082 -0.00085506 0)
(-0.00559677 -0.00105103 0)
(0.00718832 -0.0010716 0)
(-0.00430087 -0.000839823 0)
(0.00691266 -0.00112532 0)
(-0.00268731 -0.000793165 0)
(0.0065291 -0.00102111 0)
(-0.000961387 -0.000860702 0)
(0.00624604 -0.000865491 0)
(0.00080105 -0.000928977 0)
(0.00614778 -0.000724916 0)
(0.00260091 -0.000944958 0)
(0.00626953 -0.000617674 0)
(0.00444123 -0.000900048 0)
(0.00666873 -0.000566266 0)
(0.00628768 -0.000800024 0)
(0.0074743 -0.000586182 0)
(0.0080356 -0.000681802 0)
(0.00888079 -0.000632346 0)
(0.00973064 -0.000651794 0)
(0.010672 -0.000656753 0)
(0.0116891 -0.000679702 0)
(0.0127889 -0.000707052 0)
(0.0139834 -0.000742205 0)
(0.0152771 -0.000787606 0)
(0.0166751 -0.000838755 0)
(0.0181859 -0.000899517 0)
(0.0198108 -0.000969276 0)
(0.0215625 -0.00104714 0)
(0.0234429 -0.00113646 0)
(0.0254595 -0.00123301 0)
(0.0276193 -0.00134033 0)
(0.0299247 -0.0014556 0)
(0.0323836 -0.00157811 0)
(0.0349986 -0.00170699 0)
(0.0377725 -0.00184109 0)
(0.0407069 -0.00197806 0)
(0.0438021 -0.00211577 0)
(0.0470574 -0.00225305 0)
(0.0504713 -0.0023888 0)
(0.0540414 -0.00252208 0)
(0.0577648 -0.00265186 0)
(0.0616376 -0.00277721 0)
(0.0656552 -0.00289752 0)
(0.0698129 -0.00301202 0)
(0.0741057 -0.00312156 0)
(0.078528 -0.00322474 0)
(0.0830739 -0.00332142 0)
(0.0877372 -0.00341184 0)
(0.0925118 -0.00349577 0)
(0.0973909 -0.00357295 0)
(0.102368 -0.00364362 0)
(0.107435 -0.00370737 0)
(0.112586 -0.00376392 0)
(0.117813 -0.00381325 0)
(0.123108 -0.00385524 0)
(0.128463 -0.00388974 0)
(0.133869 -0.00391659 0)
(0.139319 -0.00393566 0)
(0.144803 -0.0039469 0)
(0.150313 -0.00394993 0)
(0.15584 -0.00394553 0)
(0.161374 -0.00393299 0)
(0.166905 -0.00391228 0)
(0.172425 -0.00388327 0)
(0.177923 -0.00384622 0)
(0.18339 -0.00380059 0)
(0.188817 -0.0037469 0)
(0.194193 -0.00368642 0)
(0.199509 -0.00361858 0)
(0.204754 -0.00354232 0)
(0.209921 -0.00345693 0)
(0.214997 -0.00336092 0)
(0.219971 -0.00325187 0)
(0.224829 -0.00312702 0)
(0.229559 -0.00298613 0)
(0.234146 -0.00283034 0)
(0.238579 -0.00266028 0)
(0.242845 -0.00247755 0)
(0.246934 -0.00228441 0)
(0.250832 -0.00208178 0)
(0.254532 -0.00186964 0)
(0.258024 -0.00164885 0)
(0.261297 -0.00142088 0)
(0.264344 -0.0011863 0)
(0.267157 -0.000947317 0)
(0.269727 -0.000704896 0)
(0.272046 -0.000458581 0)
(0.274111 -0.000210017 0)
(0.275915 3.92595e-05 0)
(0.277451 0.000287962 0)
(0.278718 0.000535074 0)
(0.27971 0.000778672 0)
(0.280427 0.00101534 0)
(0.280869 0.00124231 0)
(0.281038 0.0014512 0)
(0.28093 0.00161941 0)
(0.280575 0.00174661 0)
(0.279981 0.00184481 0)
(0.279159 0.00192157 0)
(0.278115 0.0019771 0)
(0.276853 0.00202689 0)
(0.275373 0.00207917 0)
(0.273674 0.00213787 0)
(0.271751 0.00220548 0)
(0.269602 0.00228194 0)
(0.267222 0.00236525 0)
(0.264608 0.00245371 0)
(0.261762 0.00254613 0)
(0.258681 0.0026408 0)
(0.255363 0.00273644 0)
(0.251811 0.00283236 0)
(0.24803 0.00292731 0)
(0.244023 0.0030221 0)
(0.239787 0.00311578 0)
(0.235327 0.00320708 0)
(0.230649 0.00329699 0)
(0.225756 0.00338578 0)
(0.220649 0.00347321 0)
(0.215333 0.00355857 0)
(0.209812 0.00364242 0)
(0.20409 0.00372426 0)
(0.198172 0.00380251 0)
(0.192063 0.00387962 0)
(0.185768 0.00395352 0)
(0.179289 0.00402501 0)
(0.172633 0.00409363 0)
(0.165807 0.00416141 0)
(0.158817 0.00422598 0)
(0.151666 0.00428729 0)
(0.144364 0.00434552 0)
(0.136917 0.00440076 0)
(0.129333 0.00445309 0)
(0.12162 0.00450249 0)
(0.113774 0.00455241 0)
(0.105821 0.00460329 0)
(0.0977279 0.00465155 0)
(0.0896862 0.00470644 0)
(0.080997 0.00471113 0)
(0.0735722 0.0047845 0)
(0.0635833 0.00475484 0)
(0.0574537 0.00473849 0)
(0.0457363 0.0047445 0)
(0.0414239 0.00473862 0)
(0.0274673 0.00453482 0)
(0.0256287 0.00444527 0)
(0.0096299 0.00529546 0)
(0.00943711 0.00537799 0)
(0.00753066 0.000968571 0)
(-0.00944896 -0.000332437 0)
(0.0054708 0.000324751 0)
(-0.0106531 0.00018714 0)
(0.00282252 0.000213558 0)
(-0.0116415 0.000110021 0)
(0.00027855 0.000181117 0)
(-0.0123057 -0.000116839 0)
(-0.00214758 0.000194989 0)
(-0.0125577 -0.000437835 0)
(-0.00439135 0.000174846 0)
(-0.0123812 -0.000766104 0)
(-0.00631224 5.73649e-05 0)
(-0.0118166 -0.00105184 0)
(-0.00773488 -0.000191222 0)
(-0.0109355 -0.0012724 0)
(-0.00848659 -0.000578087 0)
(-0.00980709 -0.00142991 0)
(-0.00843967 -0.00107622 0)
(-0.00844764 -0.00158019 0)
(-0.00751697 -0.00158885 0)
(-0.00681046 -0.00186319 0)
(-0.0058168 -0.0020316 0)
(-0.00473022 -0.00225517 0)
(-0.00348265 -0.00247199 0)
(-0.00209734 -0.00269745 0)
(-0.000563397 -0.00293601 0)
(0.00111457 -0.00318002 0)
(0.00293141 -0.00343573 0)
(0.00488758 -0.00369809 0)
(0.00698238 -0.00396871 0)
(0.00921289 -0.00424876 0)
(0.0115778 -0.00453366 0)
(0.0140724 -0.00482749 0)
(0.0166964 -0.0051253 0)
(0.0194457 -0.00542821 0)
(0.022316 -0.00573392 0)
(0.025307 -0.00604087 0)
(0.0284179 -0.00634784 0)
(0.0316456 -0.0066528 0)
(0.0349888 -0.00695538 0)
(0.0384465 -0.00725422 0)
(0.0420172 -0.00754843 0)
(0.0456998 -0.00783658 0)
(0.0494929 -0.00811778 0)
(0.0533957 -0.00839131 0)
(0.057405 -0.00865608 0)
(0.0615214 -0.00891275 0)
(0.0657436 -0.0091593 0)
(0.070066 -0.00939535 0)
(0.0744867 -0.00962064 0)
(0.0790038 -0.00983448 0)
(0.0836129 -0.0100363 0)
(0.0883107 -0.0102255 0)
(0.0930938 -0.0104017 0)
(0.0979572 -0.0105643 0)
(0.102896 -0.0107127 0)
(0.107906 -0.0108465 0)
(0.112981 -0.0109651 0)
(0.118116 -0.0110682 0)
(0.123306 -0.011155 0)
(0.128544 -0.0112254 0)
(0.133825 -0.0112786 0)
(0.139141 -0.0113152 0)
(0.144487 -0.0113336 0)
(0.149855 -0.0113341 0)
(0.155237 -0.0113162 0)
(0.160628 -0.0112794 0)
(0.16602 -0.0112232 0)
(0.171403 -0.0111481 0)
(0.176771 -0.0110554 0)
(0.182116 -0.0109438 0)
(0.187429 -0.0108127 0)
(0.192702 -0.0106623 0)
(0.197927 -0.0104922 0)
(0.2031 -0.0103019 0)
(0.208215 -0.0100895 0)
(0.213264 -0.00985583 0)
(0.218243 -0.0096022 0)
(0.223146 -0.00932798 0)
(0.227965 -0.0090338 0)
(0.232694 -0.00872049 0)
(0.237326 -0.0083886 0)
(0.241853 -0.00803857 0)
(0.246268 -0.00767145 0)
(0.25056 -0.00728784 0)
(0.254723 -0.00688669 0)
(0.258751 -0.00647065 0)
(0.262634 -0.00603952 0)
(0.266364 -0.0055924 0)
(0.269935 -0.00513176 0)
(0.273337 -0.00465858 0)
(0.276563 -0.00417221 0)
(0.279606 -0.00367313 0)
(0.282455 -0.00316224 0)
(0.285101 -0.00263964 0)
(0.287537 -0.00210665 0)
(0.289752 -0.00156709 0)
(0.291739 -0.00103349 0)
(0.293456 -0.000507562 0)
(0.294881 1.80018e-05 0)
(0.295986 0.000549076 0)
(0.29677 0.00109724 0)
(0.297239 0.00164845 0)
(0.297375 0.00219887 0)
(0.297171 0.00275058 0)
(0.296627 0.0033045 0)
(0.295743 0.00386052 0)
(0.294522 0.00441838 0)
(0.292966 0.00497703 0)
(0.291079 0.00553552 0)
(0.288861 0.00609185 0)
(0.286312 0.00664511 0)
(0.283433 0.00719543 0)
(0.28023 0.00774128 0)
(0.276705 0.00828181 0)
(0.272855 0.00881589 0)
(0.268684 0.00934393 0)
(0.264198 0.00986532 0)
(0.259401 0.0103786 0)
(0.254293 0.0108841 0)
(0.248881 0.0113816 0)
(0.243171 0.0118705 0)
(0.237165 0.0123498 0)
(0.23087 0.0128184 0)
(0.224295 0.0132765 0)
(0.217444 0.0137213 0)
(0.210323 0.0141542 0)
(0.202943 0.0145743 0)
(0.195311 0.0149811 0)
(0.187433 0.0153737 0)
(0.17932 0.0157513 0)
(0.170982 0.0161127 0)
(0.162426 0.0164592 0)
(0.153659 0.0167913 0)
(0.1447 0.0171035 0)
(0.135555 0.0173983 0)
(0.12624 0.0176791 0)
(0.116748 0.0179337 0)
(0.107226 0.0181799 0)
(0.0970971 0.0183764 0)
(0.0881129 0.0185893 0)
(0.0764493 0.0187377 0)
(0.0689318 0.0188643 0)
(0.0548702 0.0189999 0)
(0.0497158 0.0191263 0)
(0.032538 0.0191004 0)
(0.0302492 0.0188504 0)
(0.0103055 0.0184593 0)
(0.0126568 0.0207001 0)
(0.00717537 0.00237086 0)
(-0.00858036 0.000898002 0)
(0.00602454 0.00162078 0)
(-0.0092964 0.00149694 0)
(0.00420715 0.00166034 0)
(-0.00973597 0.00106844 0)
(0.00235707 0.001566 0)
(-0.009807 0.000619156 0)
(0.000531224 0.00134328 0)
(-0.00948549 0.000168788 0)
(-0.00118018 0.000975391 0)
(-0.00880143 -0.000290813 0)
(-0.00262852 0.000471189 0)
(-0.0078341 -0.000774942 0)
(-0.00364011 -0.000155765 0)
(-0.00665233 -0.00129233 0)
(-0.00405532 -0.000899559 0)
(-0.00532262 -0.0018422 0)
(-0.00375895 -0.00172801 0)
(-0.00384786 -0.00243565 0)
(-0.00274241 -0.00259901 0)
(-0.00212779 -0.00311611 0)
(-0.00107649 -0.00346248 0)
(-4.68354e-05 -0.00389318 0)
(0.00117105 -0.00431497 0)
(0.00249895 -0.00474445 0)
(0.00396084 -0.00518013 0)
(0.00555669 -0.00562472 0)
(0.00728692 -0.00607607 0)
(0.00915158 -0.0065323 0)
(0.0111529 -0.00699328 0)
(0.0132901 -0.00745776 0)
(0.0155635 -0.00792514 0)
(0.0179731 -0.00839437 0)
(0.020518 -0.00886407 0)
(0.0231986 -0.00933408 0)
(0.0260139 -0.00980308 0)
(0.0289624 -0.0102695 0)
(0.0320441 -0.0107337 0)
(0.0352571 -0.0111947 0)
(0.0386004 -0.0116512 0)
(0.0420734 -0.0121021 0)
(0.0456747 -0.0125478 0)
(0.0494027 -0.0129861 0)
(0.053255 -0.0134164 0)
(0.0572299 -0.0138379 0)
(0.0613235 -0.0142503 0)
(0.0655347 -0.0146498 0)
(0.0698614 -0.0150372 0)
(0.0742981 -0.015412 0)
(0.0788411 -0.0157723 0)
(0.083487 -0.0161169 0)
(0.0882314 -0.0164453 0)
(0.0930694 -0.0167558 0)
(0.0979959 -0.017048 0)
(0.103006 -0.0173207 0)
(0.108093 -0.017573 0)
(0.113252 -0.017804 0)
(0.118477 -0.0180126 0)
(0.123762 -0.0181982 0)
(0.129098 -0.0183599 0)
(0.134481 -0.0184968 0)
(0.139902 -0.0186082 0)
(0.145354 -0.0186934 0)
(0.150829 -0.0187516 0)
(0.15632 -0.0187826 0)
(0.161818 -0.0187858 0)
(0.167316 -0.0187596 0)
(0.172805 -0.0187051 0)
(0.178274 -0.0186209 0)
(0.183715 -0.0185056 0)
(0.189122 -0.0183594 0)
(0.194484 -0.0181821 0)
(0.199791 -0.0179736 0)
(0.205033 -0.0177344 0)
(0.210203 -0.0174644 0)
(0.215291 -0.0171643 0)
(0.220287 -0.0168339 0)
(0.225182 -0.0164724 0)
(0.22997 -0.01608 0)
(0.234642 -0.0156568 0)
(0.239186 -0.0152019 0)
(0.243593 -0.0147157 0)
(0.247854 -0.0141995 0)
(0.25196 -0.0136539 0)
(0.255903 -0.0130786 0)
(0.259672 -0.0124742 0)
(0.26326 -0.0118419 0)
(0.266658 -0.0111824 0)
(0.269855 -0.0104974 0)
(0.272844 -0.00978692 0)
(0.275619 -0.00905217 0)
(0.278174 -0.00829549 0)
(0.280499 -0.00751827 0)
(0.282589 -0.00672126 0)
(0.284439 -0.00590494 0)
(0.286043 -0.00507076 0)
(0.287396 -0.00421786 0)
(0.288491 -0.00333692 0)
(0.289329 -0.0024285 0)
(0.289911 -0.00149803 0)
(0.290251 -0.000549124 0)
(0.290325 0.000413378 0)
(0.290103 0.00138769 0)
(0.289604 0.00237365 0)
(0.288835 0.00336815 0)
(0.287793 0.00436701 0)
(0.286476 0.00536635 0)
(0.284881 0.00636521 0)
(0.283006 0.00736255 0)
(0.280848 0.00835801 0)
(0.278406 0.00934945 0)
(0.275676 0.0103369 0)
(0.272659 0.0113209 0)
(0.269356 0.0122999 0)
(0.265765 0.0132708 0)
(0.261886 0.0142328 0)
(0.257722 0.015187 0)
(0.253272 0.0161306 0)
(0.248539 0.0170625 0)
(0.243527 0.0179811 0)
(0.238238 0.0188857 0)
(0.232676 0.0197739 0)
(0.226844 0.0206451 0)
(0.220748 0.0214981 0)
(0.214393 0.022332 0)
(0.207783 0.0231443 0)
(0.200926 0.0239354 0)
(0.193827 0.0247035 0)
(0.186494 0.0254462 0)
(0.178934 0.0261629 0)
(0.171155 0.0268524 0)
(0.163166 0.0275136 0)
(0.154974 0.0281455 0)
(0.146588 0.0287465 0)
(0.138021 0.0293143 0)
(0.129276 0.029849 0)
(0.120373 0.0303488 0)
(0.111297 0.0308126 0)
(0.102199 0.0312381 0)
(0.092512 0.0316336 0)
(0.0839195 0.0319876 0)
(0.0728088 0.032295 0)
(0.0656112 0.0326271 0)
(0.0523114 0.0328513 0)
(0.0473046 0.0331923 0)
(0.0311622 0.0332556 0)
(0.0288788 0.0328086 0)
(0.0103089 0.0309404 0)
(0.0119025 0.0361439 0)
(0.00667012 0.00311631 0)
(-0.00808235 0.000873711 0)
(0.00603802 0.00198348 0)
(-0.00859844 0.0018354 0)
(0.00462712 0.00191467 0)
(-0.00874298 0.00142832 0)
(0.00305658 0.00166937 0)
(-0.00852169 0.000949998 0)
(0.00145469 0.00129979 0)
(-0.00799612 0.000386556 0)
(-1.98652e-05 0.000788432 0)
(-0.00721886 -0.000244071 0)
(-0.00122094 0.000129894 0)
(-0.00623014 -0.000934959 0)
(-0.00203043 -0.000667327 0)
(-0.00508472 -0.00166914 0)
(-0.00233057 -0.00159013 0)
(-0.00378535 -0.00245503 0)
(-0.00204189 -0.0026116 0)
(-0.00232741 -0.00332356 0)
(-0.00111837 -0.00369048 0)
(-0.000649983 -0.00430216 0)
(0.00043005 -0.00480634 0)
(0.00136241 -0.00538753 0)
(0.00253447 -0.00596375 0)
(0.00380245 -0.00655589 0)
(0.00519978 -0.00716134 0)
(0.00672551 -0.00777875 0)
(0.00838494 -0.00840755 0)
(0.0101783 -0.00904596 0)
(0.0121077 -0.00969285 0)
(0.0141751 -0.0103471 0)
(0.0163818 -0.0110073 0)
(0.0187288 -0.0116721 0)
(0.0212175 -0.0123399 0)
(0.0238477 -0.0130095 0)
(0.0266198 -0.0136798 0)
(0.0295334 -0.0143497 0)
(0.0325879 -0.0150163 0)
(0.0357829 -0.0156799 0)
(0.0391176 -0.0163373 0)
(0.0425883 -0.0169874 0)
(0.0461946 -0.017629 0)
(0.0499357 -0.0182596 0)
(0.0538075 -0.0188785 0)
(0.0578068 -0.0194835 0)
(0.0619328 -0.0200735 0)
(0.0661826 -0.0206459 0)
(0.0705498 -0.0212002 0)
(0.0750309 -0.0217348 0)
(0.0796228 -0.0222477 0)
(0.0843205 -0.0227379 0)
(0.0891189 -0.023204 0)
(0.094013 -0.0236444 0)
(0.0989973 -0.0240578 0)
(0.104066 -0.0244428 0)
(0.109213 -0.0247982 0)
(0.114432 -0.0251226 0)
(0.119717 -0.0254147 0)
(0.12506 -0.0256735 0)
(0.130454 -0.0258976 0)
(0.135892 -0.026086 0)
(0.141367 -0.0262375 0)
(0.146871 -0.0263515 0)
(0.152395 -0.0264263 0)
(0.157931 -0.0264614 0)
(0.163471 -0.0264564 0)
(0.169007 -0.02641 0)
(0.17453 -0.0263222 0)
(0.180031 -0.0261916 0)
(0.185501 -0.0260171 0)
(0.190932 -0.025799 0)
(0.196313 -0.0255367 0)
(0.201636 -0.02523 0)
(0.206891 -0.024879 0)
(0.212069 -0.0244827 0)
(0.217162 -0.0240413 0)
(0.222159 -0.023554 0)
(0.22705 -0.0230202 0)
(0.231827 -0.0224407 0)
(0.236481 -0.0218156 0)
(0.241002 -0.0211449 0)
(0.245382 -0.0204295 0)
(0.249611 -0.0196703 0)
(0.253683 -0.0188677 0)
(0.257587 -0.0180223 0)
(0.261315 -0.017136 0)
(0.26486 -0.0162096 0)
(0.268213 -0.0152449 0)
(0.271366 -0.014244 0)
(0.274315 -0.0132066 0)
(0.277048 -0.0121349 0)
(0.279557 -0.0110328 0)
(0.281839 -0.00990194 0)
(0.283886 -0.00874393 0)
(0.285688 -0.00756121 0)
(0.287241 -0.00635635 0)
(0.288537 -0.00513397 0)
(0.289573 -0.00389513 0)
(0.290342 -0.00264105 0)
(0.29084 -0.00137409 0)
(0.29105 -9.68625e-05 0)
(0.290987 0.00118732 0)
(0.290668 0.0024837 0)
(0.290073 0.00379276 0)
(0.289189 0.00511464 0)
(0.288012 0.00644789 0)
(0.286541 0.0077917 0)
(0.284778 0.00914416 0)
(0.282724 0.0105017 0)
(0.280379 0.0118623 0)
(0.277742 0.0132238 0)
(0.274817 0.0145843 0)
(0.271602 0.0159412 0)
(0.268099 0.0172928 0)
(0.264312 0.0186365 0)
(0.260243 0.0199714 0)
(0.255895 0.0212949 0)
(0.251271 0.0226047 0)
(0.246375 0.0239 0)
(0.241209 0.0251781 0)
(0.235779 0.0264375 0)
(0.23009 0.0276755 0)
(0.224145 0.0288917 0)
(0.217953 0.0300827 0)
(0.211517 0.0312474 0)
(0.204843 0.0323841 0)
(0.197939 0.0334901 0)
(0.19081 0.0345639 0)
(0.183465 0.0356041 0)
(0.175911 0.0366081 0)
(0.168155 0.0375749 0)
(0.160207 0.0385029 0)
(0.152072 0.0393894 0)
(0.143761 0.0402346 0)
(0.135285 0.0410358 0)
(0.126648 0.0417906 0)
(0.117869 0.0424979 0)
(0.108926 0.0431575 0)
(0.0999875 0.0437639 0)
(0.0904528 0.0443269 0)
(0.0820285 0.0448296 0)
(0.0711373 0.0452781 0)
(0.064044 0.045715 0)
(0.0511377 0.0460247 0)
(0.0461129 0.0464844 0)
(0.0305549 0.0465134 0)
(0.0282692 0.0457991 0)
(0.010396 0.0433898 0)
(0.011218 0.050768 0)
(0.00660179 0.00434557 0)
(-0.00800172 0.00143926 0)
(0.00584931 0.00272254 0)
(-0.00856543 0.0028275 0)
(0.00434906 0.00252665 0)
(-0.00878955 0.00241055 0)
(0.00269901 0.00212141 0)
(-0.00867875 0.00186372 0)
(0.00103607 0.00157683 0)
(-0.00827093 0.00117732 0)
(-0.000497562 0.000871972 0)
(-0.00761459 0.000366731 0)
(-0.00177221 1.51206e-05 0)
(-0.00675508 -0.000563855 0)
(-0.0026319 -0.000984718 0)
(-0.00571371 -0.00161369 0)
(-0.00298203 -0.00211324 0)
(-0.00450861 -0.00277312 0)
(-0.00274471 -0.00336051 0)
(-0.00311799 -0.00403325 0)
(-0.00188865 -0.00470195 0)
(-0.00148306 -0.00539567 0)
(-0.000420907 -0.00611729 0)
(0.000471549 -0.00686039 0)
(0.00162897 -0.00761376 0)
(0.00286509 -0.00838879 0)
(0.00423571 -0.00918049 0)
(0.00573877 -0.00998474 0)
(0.00737667 -0.0108037 0)
(0.0091515 -0.0116331 0)
(0.0110656 -0.0124734 0)
(0.0131199 -0.0133212 0)
(0.0153161 -0.0141761 0)
(0.0176554 -0.0150356 0)
(0.0201381 -0.0158986 0)
(0.0227651 -0.0167633 0)
(0.0255356 -0.0176278 0)
(0.0284513 -0.0184903 0)
(0.0315103 -0.0193489 0)
(0.0347113 -0.0202021 0)
(0.0380544 -0.0210476 0)
(0.0415364 -0.0218842 0)
(0.0451578 -0.0227093 0)
(0.0489156 -0.02352 0)
(0.0528063 -0.0243151 0)
(0.0568284 -0.0250929 0)
(0.0609781 -0.0258503 0)
(0.0652527 -0.026587 0)
(0.0696486 -0.0273014 0)
(0.074161 -0.02799 0)
(0.0787858 -0.0286512 0)
(0.0835181 -0.0292834 0)
(0.0883533 -0.0298845 0)
(0.0932864 -0.0304528 0)
(0.0983117 -0.0309866 0)
(0.103423 -0.0314842 0)
(0.108615 -0.0319438 0)
(0.113881 -0.0323638 0)
(0.119213 -0.0327425 0)
(0.124606 -0.0330785 0)
(0.130053 -0.0333702 0)
(0.135544 -0.0336162 0)
(0.141074 -0.033815 0)
(0.146634 -0.0339655 0)
(0.152217 -0.0340662 0)
(0.157813 -0.0341162 0)
(0.163413 -0.0341137 0)
(0.169011 -0.0340581 0)
(0.174597 -0.033949 0)
(0.180162 -0.0337854 0)
(0.185697 -0.0335657 0)
(0.191193 -0.03329 0)
(0.19664 -0.0329588 0)
(0.20203 -0.032571 0)
(0.207352 -0.0321259 0)
(0.212598 -0.0316234 0)
(0.217759 -0.0310639 0)
(0.222824 -0.0304468 0)
(0.227783 -0.0297726 0)
(0.232628 -0.0290426 0)
(0.23735 -0.0282566 0)
(0.241941 -0.027415 0)
(0.246389 -0.0265185 0)
(0.250686 -0.0255683 0)
(0.254827 -0.0245646 0)
(0.258799 -0.0235086 0)
(0.262596 -0.0224025 0)
(0.26621 -0.0212463 0)
(0.269631 -0.0200411 0)
(0.272852 -0.0187892 0)
(0.275867 -0.0174925 0)
(0.278665 -0.0161522 0)
(0.28124 -0.0147691 0)
(0.283588 -0.0133453 0)
(0.285701 -0.0118832 0)
(0.287571 -0.0103833 0)
(0.28919 -0.00884691 0)
(0.290553 -0.00727648 0)
(0.291655 -0.00567282 0)
(0.292492 -0.00403702 0)
(0.29306 -0.00237067 0)
(0.293362 -0.000676098 0)
(0.293375 0.00104487 0)
(0.293079 0.00278644 0)
(0.29249 0.00454315 0)
(0.291615 0.00631059 0)
(0.290449 0.00808588 0)
(0.288992 0.00986748 0)
(0.28724 0.0116534 0)
(0.285191 0.0134413 0)
(0.282846 0.0152289 0)
(0.280205 0.0170139 0)
(0.277268 0.0187939 0)
(0.274035 0.0205668 0)
(0.27051 0.02233 0)
(0.266694 0.0240812 0)
(0.26259 0.0258178 0)
(0.2582 0.0275371 0)
(0.253529 0.0292374 0)
(0.248579 0.0309161 0)
(0.243355 0.032571 0)
(0.237864 0.0341989 0)
(0.232109 0.0357982 0)
(0.226096 0.0373666 0)
(0.219829 0.0389019 0)
(0.213318 0.0404011 0)
(0.206566 0.0418625 0)
(0.199581 0.0432837 0)
(0.192372 0.0446624 0)
(0.184945 0.0459974 0)
(0.177309 0.0472854 0)
(0.169471 0.0485252 0)
(0.161439 0.049714 0)
(0.153223 0.0508492 0)
(0.144833 0.0519299 0)
(0.136276 0.0529531 0)
(0.127559 0.0539181 0)
(0.118704 0.0548215 0)
(0.109684 0.0556611 0)
(0.10067 0.0564396 0)
(0.0910636 0.0571458 0)
(0.0825583 0.0577992 0)
(0.0716274 0.0583462 0)
(0.0644009 0.0589128 0)
(0.0515293 0.0592719 0)
(0.0462992 0.0598872 0)
(0.0308523 0.059813 0)
(0.028274 0.058953 0)
(0.0105512 0.0559391 0)
(0.0111201 0.0654478 0)
(0.00644665 0.0052592 0)
(-0.00801028 0.00167769 0)
(0.00555404 0.00321701 0)
(-0.00869708 0.00342455 0)
(0.00390725 0.00292598 0)
(-0.00905353 0.00298614 0)
(0.00215228 0.00238488 0)
(-0.00907583 0.00238532 0)
(0.000400141 0.00169862 0)
(-0.0088086 0.0015956 0)
(-0.0012122 0.000843547 0)
(-0.00828763 0.000634521 0)
(-0.00254642 -0.000177365 0)
(-0.00755421 -0.000490047 0)
(-0.00349879 -0.00134513 0)
(-0.00663303 -0.00177785 0)
(-0.00394907 -0.00265736 0)
(-0.00552933 -0.0032118 0)
(-0.00381327 -0.00410758 0)
(-0.00422223 -0.00478278 0)
(-0.00304931 -0.00568743 0)
(-0.00266459 -0.00647907 0)
(-0.00165912 -0.00739006 0)
(-0.000779304 -0.00828006 0)
(0.000342364 -0.00920798 0)
(0.00155123 -0.0101643 0)
(0.00290291 -0.0111361 0)
(0.00438652 -0.0121267 0)
(0.00600779 -0.0131344 0)
(0.00776909 -0.0141566 0)
(0.00967123 -0.0151909 0)
(0.0117169 -0.0162369 0)
(0.0139065 -0.0172906 0)
(0.0162421 -0.0183514 0)
(0.0187238 -0.0194165 0)
(0.0213523 -0.0204835 0)
(0.0241277 -0.02155 0)
(0.0270496 -0.0226137 0)
(0.0301172 -0.0236734 0)
(0.0333304 -0.0247259 0)
(0.0366878 -0.0257688 0)
(0.0401864 -0.0267994 0)
(0.0438276 -0.0278153 0)
(0.0476091 -0.028815 0)
(0.0515252 -0.0297959 0)
(0.0555751 -0.0307554 0)
(0.059756 -0.0316902 0)
(0.0640632 -0.0325985 0)
(0.0684946 -0.0334792 0)
(0.0730466 -0.0343287 0)
(0.0777138 -0.0351447 0)
(0.0824916 -0.0359252 0)
(0.0873752 -0.0366676 0)
(0.0923591 -0.0373696 0)
(0.0974377 -0.038029 0)
(0.102605 -0.0386436 0)
(0.107856 -0.0392116 0)
(0.113183 -0.0397306 0)
(0.11858 -0.0401987 0)
(0.12404 -0.040614 0)
(0.129555 -0.0409749 0)
(0.135118 -0.0412793 0)
(0.140722 -0.0415258 0)
(0.146357 -0.0417126 0)
(0.152017 -0.0418387 0)
(0.157693 -0.0419021 0)
(0.163377 -0.0419014 0)
(0.169058 -0.0418356 0)
(0.174728 -0.0417037 0)
(0.18038 -0.0415047 0)
(0.186004 -0.0412375 0)
(0.191588 -0.0409014 0)
(0.197124 -0.040496 0)
(0.202605 -0.0400206 0)
(0.208019 -0.0394746 0)
(0.213357 -0.038858 0)
(0.218611 -0.0381703 0)
(0.22377 -0.0374121 0)
(0.228823 -0.0365832 0)
(0.233761 -0.0356836 0)
(0.238577 -0.0347132 0)
(0.243261 -0.0336732 0)
(0.247802 -0.0325645 0)
(0.252192 -0.0313871 0)
(0.256423 -0.0301423 0)
(0.260483 -0.0288319 0)
(0.264365 -0.0274572 0)
(0.268063 -0.0260195 0)
(0.271565 -0.024521 0)
(0.274862 -0.0229637 0)
(0.277949 -0.0213501 0)
(0.280817 -0.0196823 0)
(0.283458 -0.0179619 0)
(0.285864 -0.0161919 0)
(0.28803 -0.0143757 0)
(0.289948 -0.0125158 0)
(0.291609 -0.0106149 0)
(0.293009 -0.00867628 0)
(0.294145 -0.006703 0)
(0.29501 -0.00469769 0)
(0.295599 -0.00266353 0)
(0.295895 -0.000604453 0)
(0.295913 0.00147273 0)
(0.295664 0.00357117 0)
(0.295129 0.0056921 0)
(0.294296 0.00783311 0)
(0.293164 0.00999093 0)
(0.291734 0.0121601 0)
(0.290005 0.0143375 0)
(0.287976 0.0165206 0)
(0.285648 0.0187064 0)
(0.28302 0.0208913 0)
(0.280093 0.0230708 0)
(0.276868 0.0252428 0)
(0.273345 0.0274037 0)
(0.269527 0.0295508 0)
(0.265416 0.0316809 0)
(0.261016 0.0337897 0)
(0.256331 0.0358751 0)
(0.251363 0.0379339 0)
(0.246116 0.0399634 0)
(0.240594 0.0419596 0)
(0.234804 0.0439212 0)
(0.228751 0.0458434 0)
(0.222441 0.0477246 0)
(0.215879 0.0495611 0)
(0.209072 0.0513504 0)
(0.202027 0.0530903 0)
(0.194753 0.0547779 0)
(0.187255 0.0564107 0)
(0.179543 0.057986 0)
(0.171625 0.0595007 0)
(0.163507 0.0609528 0)
(0.1552 0.0623401 0)
(0.146713 0.0636587 0)
(0.138058 0.0649071 0)
(0.129239 0.0660839 0)
(0.120273 0.0671857 0)
(0.111143 0.0682095 0)
(0.102012 0.0691588 0)
(0.0923028 0.0700125 0)
(0.0836501 0.0708239 0)
(0.0726458 0.0714629 0)
(0.0652299 0.0721797 0)
(0.0523123 0.072586 0)
(0.0468374 0.0733635 0)
(0.031387 0.073224 0)
(0.0284839 0.0721688 0)
(0.01083 0.0684813 0)
(0.0111573 0.0802013 0)
(0.00636318 0.00651172 0)
(-0.00801669 0.00234266 0)
(0.00528509 0.00405243 0)
(-0.00884978 0.00446661 0)
(0.00348242 0.00366546 0)
(-0.00935598 0.00400008 0)
(0.00156907 0.00298241 0)
(-0.00953347 0.00331915 0)
(-0.000326518 0.0021347 0)
(-0.00941811 0.00238673 0)
(-0.00207011 0.00110444 0)
(-0.00904915 0.00122062 0)
(-0.00353459 -0.000103639 0)
(-0.00845291 -0.000175959 0)
(-0.00458615 -0.00147351 0)
(-0.00765072 -0.00177557 0)
(-0.00511905 -0.0030086 0)
(-0.00665432 -0.00354874 0)
(-0.00506478 -0.00471125 0)
(-0.00544669 -0.00546951 0)
(-0.00437811 -0.00657811 0)
(-0.00398011 -0.00751611 0)
(-0.00305078 -0.00860342 0)
(-0.00217995 -0.00966278 0)
(-0.00111027 -0.010773 0)
(6.88608e-05 -0.0119076 0)
(0.00139615 -0.0130678 0)
(0.00285368 -0.0142499 0)
(0.00445217 -0.0154513 0)
(0.00619465 -0.0166701 0)
(0.00808023 -0.0179035 0)
(0.0101122 -0.0191501 0)
(0.0122921 -0.0204062 0)
(0.0146196 -0.0216703 0)
(0.0170974 -0.0229393 0)
(0.0197256 -0.0242108 0)
(0.0225037 -0.0254824 0)
(0.0254312 -0.0267512 0)
(0.028508 -0.0280142 0)
(0.0317339 -0.0292685 0)
(0.0351083 -0.0305116 0)
(0.0386284 -0.0317404 0)
(0.0422928 -0.0329519 0)
(0.0460991 -0.0341441 0)
(0.0500454 -0.0353146 0)
(0.054131 -0.0364585 0)
(0.0583509 -0.0375739 0)
(0.0626993 -0.038658 0)
(0.0671755 -0.0397081 0)
(0.0717763 -0.0407213 0)
(0.076495 -0.0416949 0)
(0.0813277 -0.0426261 0)
(0.0862703 -0.0435125 0)
(0.0913168 -0.0443514 0)
(0.0964615 -0.04514 0)
(0.101698 -0.0458756 0)
(0.107021 -0.0465557 0)
(0.112424 -0.047178 0)
(0.117899 -0.0477399 0)
(0.123439 -0.0482392 0)
(0.129038 -0.0486736 0)
(0.134688 -0.0490408 0)
(0.14038 -0.049339 0)
(0.146107 -0.0495664 0)
(0.151861 -0.0497213 0)
(0.157632 -0.0498016 0)
(0.163413 -0.0498064 0)
(0.169193 -0.0497339 0)
(0.174965 -0.0495824 0)
(0.180719 -0.0493511 0)
(0.186445 -0.0490395 0)
(0.192135 -0.0486458 0)
(0.197778 -0.0481693 0)
(0.203364 -0.0476097 0)
(0.208885 -0.0469666 0)
(0.21433 -0.0462394 0)
(0.21969 -0.045428 0)
(0.224954 -0.0445337 0)
(0.230113 -0.0435561 0)
(0.235157 -0.0424943 0)
(0.240078 -0.0413493 0)
(0.244864 -0.040123 0)
(0.249506 -0.0388162 0)
(0.253995 -0.0374288 0)
(0.258323 -0.035963 0)
(0.262479 -0.0344211 0)
(0.266454 -0.0328032 0)
(0.270241 -0.0311122 0)
(0.27383 -0.0293506 0)
(0.277212 -0.0275193 0)
(0.280381 -0.0256206 0)
(0.283327 -0.0236577 0)
(0.286044 -0.0216327 0)
(0.288524 -0.019548 0)
(0.290761 -0.0174065 0)
(0.292748 -0.0152109 0)
(0.294476 -0.0129634 0)
(0.29594 -0.0106671 0)
(0.297136 -0.00832494 0)
(0.298059 -0.00593944 0)
(0.298705 -0.00351412 0)
(0.299072 -0.00105129 0)
(0.299146 0.00145032 0)
(0.298916 0.00397999 0)
(0.298391 0.00653036 0)
(0.297573 0.0090982 0)
(0.296454 0.0116813 0)
(0.295034 0.0142764 0)
(0.293312 0.0168807 0)
(0.291287 0.0194905 0)
(0.288959 0.0221007 0)
(0.286325 0.0247081 0)
(0.283387 0.0273084 0)
(0.280147 0.0298982 0)
(0.276606 0.0324744 0)
(0.272768 0.0350327 0)
(0.268631 0.0375697 0)
(0.264199 0.0400812 0)
(0.259478 0.0425642 0)
(0.254471 0.0450145 0)
(0.24918 0.0474287 0)
(0.243612 0.0498032 0)
(0.237772 0.0521352 0)
(0.231663 0.0544209 0)
(0.225292 0.0566566 0)
(0.218666 0.0588392 0)
(0.21179 0.0609658 0)
(0.204673 0.0630328 0)
(0.197321 0.0650369 0)
(0.189742 0.0669747 0)
(0.181944 0.0688441 0)
(0.173935 0.0706408 0)
(0.165723 0.0723628 0)
(0.157317 0.0740084 0)
(0.148726 0.0755728 0)
(0.139964 0.0770541 0)
(0.131033 0.0784484 0)
(0.121953 0.0797541 0)
(0.112705 0.0809694 0)
(0.10344 0.0820928 0)
(0.0936313 0.0831022 0)
(0.0848064 0.08407 0)
(0.0737269 0.0848157 0)
(0.0661022 0.085674 0)
(0.0531431 0.0861418 0)
(0.0474013 0.0870732 0)
(0.0319534 0.0868891 0)
(0.0287295 0.0856095 0)
(0.0111628 0.0812091 0)
(0.0111799 0.0952218 0)
(0.00622344 0.00773882 0)
(-0.00807058 0.00292361 0)
(0.00498105 0.00484902 0)
(-0.00905007 0.00539998 0)
(0.0029923 0.00437542 0)
(-0.00970982 0.00487092 0)
(0.000914647 0.00356447 0)
(-0.0100407 0.00409288 0)
(-0.00113475 0.00257715 0)
(-0.0100796 0.0030192 0)
(-0.00302192 0.00139376 0)
(-0.00985912 0.00166765 0)
(-0.0046146 2.15562e-05 0)
(-0.00941165 5.18212e-05 0)
(-0.00579283 -0.00153325 0)
(-0.00876096 -0.00181057 0)
(-0.00645078 -0.00328197 0)
(-0.0079077 -0.00388285 0)
(-0.00650585 -0.00523574 0)
(-0.00683245 -0.00612511 0)
(-0.00590989 -0.0073958 0)
(-0.00549367 -0.00850504 0)
(-0.00465447 -0.00975543 0)
(-0.00380557 -0.0109966 0)
(-0.00278621 -0.0122886 0)
(-0.0016452 -0.0136053 0)
(-0.000357906 -0.0149551 0)
(0.00106998 -0.0163327 0)
(0.00264185 -0.0177338 0)
(0.00436 -0.0191535 0)
(0.00622487 -0.020591 0)
(0.00824023 -0.022043 0)
(0.0104063 -0.0235069 0)
(0.0127249 -0.0249799 0)
(0.0151971 -0.0264585 0)
(0.0178228 -0.0279401 0)
(0.0206024 -0.029422 0)
(0.0235368 -0.0309004 0)
(0.0266249 -0.0323717 0)
(0.0298658 -0.0338334 0)
(0.0332587 -0.0352824 0)
(0.0368013 -0.0367151 0)
(0.0404933 -0.0381285 0)
(0.0443315 -0.0395188 0)
(0.0483144 -0.0408821 0)
(0.0524405 -0.0422171 0)
(0.0567044 -0.0435188 0)
(0.0611019 -0.0447844 0)
(0.0656313 -0.0460093 0)
(0.0702889 -0.0471926 0)
(0.0750694 -0.0483305 0)
(0.0799676 -0.0494182 0)
(0.0849786 -0.0504535 0)
(0.0900977 -0.0514337 0)
(0.0953191 -0.0523555 0)
(0.100637 -0.0532163 0)
(0.106044 -0.0540127 0)
(0.111534 -0.0547421 0)
(0.117101 -0.0554018 0)
(0.122737 -0.0559889 0)
(0.128434 -0.0565009 0)
(0.134186 -0.0569352 0)
(0.139983 -0.0572893 0)
(0.145816 -0.0575607 0)
(0.151679 -0.0577475 0)
(0.157563 -0.0578481 0)
(0.163458 -0.0578606 0)
(0.169355 -0.0577831 0)
(0.175244 -0.0576142 0)
(0.181118 -0.0573525 0)
(0.186965 -0.0569966 0)
(0.192777 -0.0565453 0)
(0.198543 -0.0559981 0)
(0.204254 -0.0553545 0)
(0.2099 -0.0546137 0)
(0.215471 -0.0537752 0)
(0.220955 -0.0528393 0)
(0.226344 -0.0518058 0)
(0.231628 -0.0506747 0)
(0.236797 -0.0494459 0)
(0.24184 -0.0481209 0)
(0.246747 -0.0467009 0)
(0.25151 -0.0451863 0)
(0.256119 -0.0435779 0)
(0.260563 -0.0418777 0)
(0.264833 -0.040088 0)
(0.26892 -0.0382093 0)
(0.272816 -0.0362444 0)
(0.276512 -0.0341959 0)
(0.279998 -0.0320653 0)
(0.283267 -0.0298557 0)
(0.286309 -0.0275706 0)
(0.289118 -0.0252118 0)
(0.291686 -0.0227825 0)
(0.294004 -0.0202873 0)
(0.296069 -0.0177293 0)
(0.297869 -0.0151117 0)
(0.2994 -0.0124383 0)
(0.300657 -0.00971345 0)
(0.301637 -0.00694067 0)
(0.30233 -0.00412494 0)
(0.302729 -0.00127092 0)
(0.302836 0.00161407 0)
(0.302654 0.00453259 0)
(0.302172 0.00748268 0)
(0.301384 0.0104568 0)
(0.300289 0.0134505 0)
(0.298888 0.0164608 0)
(0.297179 0.0194821 0)
(0.295159 0.02251 0)
(0.292828 0.0255388 0)
(0.290187 0.0285651 0)
(0.287237 0.0315854 0)
(0.28398 0.0345937 0)
(0.280416 0.0375861 0)
(0.276546 0.0405577 0)
(0.272374 0.0435038 0)
(0.267903 0.0464212 0)
(0.263137 0.049305 0)
(0.258078 0.0521513 0)
(0.252731 0.054956 0)
(0.2471 0.0577142 0)
(0.241193 0.0604214 0)
(0.235013 0.0630748 0)
(0.228565 0.0656709 0)
(0.221858 0.0682055 0)
(0.214897 0.0706741 0)
(0.207689 0.0730731 0)
(0.200241 0.0753991 0)
(0.192563 0.0776486 0)
(0.18466 0.0798177 0)
(0.176542 0.0819029 0)