/*--------------------------------*- C++ -*----------------------------------*\
| =========                 |                                                 |
| \\      /  F ield         | OpenFOAM: The Open Source CFD Toolbox           |
|  \\    /   O peration     | Version:  v2006                                 |
|   \\  /    A nd           | Website:  www.openfoam.com                      |
|    \\/     M anipulation  |                                                 |
\*---------------------------------------------------------------------------*/
FoamFile
{
    version     2.0;
    format      ascii;
    class       volVectorField;
    location    "0";
    object      U_new;
}
// * * * * * * * * * * * * * * * * * * * * * * * * * * * * * * * * * * * * * //

dimensions      [0 1 -1 0 0 0 0];


internalField   nonuniform List<vector> 
2500
(
(0.0008 -0.08 0)
(0.0008 -0.24 0)
(0.0008 -0.4 0)
(0.0008 -0.56 0)
(0.0008 -0.72 0)
(0.0008 -0.88 0)
(0.0008 -1.04 0)
(0.0008 -1.2 0)
(0.0008 -1.36 0)
(0.0008 -1.52 0)
(0.0008 -1.68 0)
(0.0008 -1.84 0)
(0.0008 -2 0)
(0.0008 -2.16 0)
(0.0008 -2.32 0)
(0.0008 -2.48 0)
(0.0008 -2.64 0)
(0.0008 -2.8 0)
(0.0008 -2.96 0)
(0.0008 -3.12 0)
(0.0008 -3.28 0)
(0.0008 -3.44 0)
(0.0008 -3.6 0)
(0.0008 -3.76 0)
(0.0008 -3.92 0)
(0.0008 -4.08 0)
(0.0008 -4.24 0)
(0.0008 -4.4 0)
(0.0008 -4.56 0)
(0.0008 -4.72 0)
(0.0008 -4.88 0)
(0.0008 -5.04 0)
(0.0008 -5.2 0)
(0.0008 -5.36 0)
(0.0008 -5.52 0)
(0.0008 -5.68 0)
(0.0008 -5.84 0)
(0.0008 -6 0)
(0.0008 -6.16 0)
(0.0008 -6.32 0)
(0.0008 -6.48 0)
(0.0008 -6.64 0)
(0.0008 -6.8 0)
(0.0008 -6.96 0)
(0.0008 -7.12 0)
(0.0008 -7.28 0)
(0.0008 -7.44 0)
(0.0008 -7.6 0)
(0.0008 -7.76 0)
(0.0008 -7.92 0)
(0.0072 -0.08 0)
(0.0072 -0.24 0)
(0.0072 -0.4 0)
(0.0072 -0.56 0)
(0.0072 -0.72 0)
(0.0072 -0.88 0)
(0.0072 -1.04 0)
(0.0072 -1.2 0)
(0.0072 -1.36 0)
(0.0072 -1.52 0)
(0.0072 -1.68 0)
(0.0072 -1.84 0)
(0.0072 -2 0)
(0.0072 -2.16 0)
(0.0072 -2.32 0)
(0.0072 -2.48 0)
(0.0072 -2.64 0)
(0.0072 -2.8 0)
(0.0072 -2.96 0)
(0.0072 -3.12 0)
(0.0072 -3.28 0)
(0.0072 -3.44 0)
(0.0072 -3.6 0)
(0.0072 -3.76 0)
(0.0072 -3.92 0)
(0.0072 -4.08 0)
(0.0072 -4.24 0)
(0.0072 -4.4 0)
(0.0072 -4.56 0)
(0.0072 -4.72 0)
(0.0072 -4.88 0)
(0.0072 -5.04 0)
(0.0072 -5.2 0)
(0.0072 -5.36 0)
(0.0072 -5.52 0)
(0.0072 -5.68 0)
(0.0072 -5.84 0)
(0.0072 -6 0)
(0.0072 -6.16 0)
(0.0072 -6.32 0)
(0.0072 -6.48 0)
(0.0072 -6.64 0)
(0.0072 -6.8 0)
(0.0072 -6.96 0)
(0.0072 -7.12 0)
(0.0072 -7.28 0)
(0.0072 -7.44 0)
(0.0072 -7.6 0)
(0.0072 -7.76 0)
(0.0072 -7.92 0)
(0.02 -0.08 0)
(0.02 -0.24 0)
(0.02 -0.4 0)
(0.02 -0.56 0)
(0.02 -0.72 0)
(0.02 -0.88 0)
(0.02 -1.04 0)
(0.02 -1.2 0)
(0.02 -1.36 0)
(0.02 -1.52 0)
(0.02 -1.68 0)
(0.02 -1.84 0)
(0.02 -2 0)
(0.02 -2.16 0)
(0.02 -2.32 0)
(0.02 -2.48 0)
(0.02 -2.64 0)
(0.02 -2.8 0)
(0.02 -2.96 0)
(0.02 -3.12 0)
(0.02 -3.28 0)
(0.02 -3.44 0)
(0.02 -3.6 0)
(0.02 -3.76 0)
(0.02 -3.92 0)
(0.02 -4.08 0)
(0.02 -4.24 0)
(0.02 -4.4 0)
(0.02 -4.56 0)
(0.02 -4.72 0)
(0.02 -4.88 0)
(0.02 -5.04 0)
(0.02 -5.2 0)
(0.02 -5.36 0)
(0.02 -5.52 0)
(0.02 -5.68 0)
(0.02 -5.84 0)
(0.02 -6 0)
(0.02 -6.16 0)
(0.02 -6.32 0)
(0.02 -6.48 0)
(0.02 -6.64 0)
(0.02 -6.8 0)
(0.02 -6.96 0)
(0.02 -7.12 0)
(0.02 -7.28 0)
(0.02 -7.44 0)
(0.02 -7.6 0)
(0.02 -7.76 0)
(0.02 -7.92 0)
(0.0392 -0.08 0)
(0.0392 -0.24 0)
(0.0392 -0.4 0)
(0.0392 -0.56 0)
(0.0392 -0.72 0)
(0.0392 -0.88 0)
(0.0392 -1.04 0)
(0.0392 -1.2 0)
(0.0392 -1.36 0)
(0.0392 -1.52 0)
(0.0392 -1.68 0)
(0.0392 -1.84 0)
(0.0392 -2 0)
(0.0392 -2.16 0)
(0.0392 -2.32 0)
(0.0392 -2.48 0)
(0.0392 -2.64 0)
(0.0392 -2.8 0)
(0.0392 -2.96 0)
(0.0392 -3.12 0)
(0.0392 -3.28 0)
(0.0392 -3.44 0)
(0.0392 -3.6 0)
(0.0392 -3.76 0)
(0.0392 -3.92 0)
(0.0392 -4.08 0)
(0.0392 -4.24 0)
(0.0392 -4.4 0)
(0.0392 -4.56 0)
(0.0392 -4.72 0)
(0.0392 -4.88 0)
(0.0392 -5.04 0)
(0.0392 -5.2 0)
(0.0392 -5.36 0)
(0.0392 -5.52 0)
(0.0392 -5.68 0)
(0.0392 -5.84 0)
(0.0392 -6 0)
(0.0392 -6.16 0)
(0.0392 -6.32 0)
(0.0392 -6.48 0)
(0.0392 -6.64 0)
(0.0392 -6.8 0)
(0.0392 -6.96 0)
(0.0392 -7.12 0)
(0.0392 -7.28 0)
(0.0392 -7.44 0)
(0.0392 -7.6 0)
(0.0392 -7.76 0)
(0.0392 -7.92 0)
(0.0648 -0.08 0)
(0.0648 -0.24 0)
(0.0648 -0.4 0)
(0.0648 -0.56 0)
(0.0648 -0.72 0)
(0.0648 -0.88 0)
(0.0648 -1.04 0)
(0.0648 -1.2 0)
(0.0648 -1.36 0)
(0.0648 -1.52 0)
(0.0648 -1.68 0)
(0.0648 -1.84 0)
(0.0648 -2 0)
(0.0648 -2.16 0)
(0.0648 -2.32 0)
(0.0648 -2.48 0)
(0.0648 -2.64 0)
(0.0648 -2.8 0)
(0.0648 -2.96 0)
(0.0648 -3.12 0)
(0.0648 -3.28 0)
(0.0648 -3.44 0)
(0.0648 -3.6 0)
(0.0648 -3.76 0)
(0.0648 -3.92 0)
(0.0648 -4.08 0)
(0.0648 -4.24 0)
(0.0648 -4.4 0)
(0.0648 -4.56 0)
(0.0648 -4.72 0)
(0.0648 -4.88 0)
(0.0648 -5.04 0)
(0.0648 -5.2 0)
(0.0648 -5.36 0)
(0.0648 -5.52 0)
(0.0648 -5.68 0)
(0.0648 -5.84 0)
(0.0648 -6 0)
(0.0648 -6.16 0)
(0.0648 -6.32 0)
(0.0648 -6.48 0)
(0.0648 -6.64 0)
(0.0648 -6.8 0)
(0.0648 -6.96 0)
(0.0648 -7.12 0)
(0.0648 -7.28 0)
(0.0648 -7.44 0)
(0.0648 -7.6 0)
(0.0648 -7.76 0)
(0.0648 -7.92 0)
(0.0968 -0.08 0)
(0.0968 -0.24 0)
(0.0968 -0.4 0)
(0.0968 -0.56 0)
(0.0968 -0.72 0)
(0.0968 -0.88 0)
(0.0968 -1.04 0)
(0.0968 -1.2 0)
(0.0968 -1.36 0)
(0.0968 -1.52 0)
(0.0968 -1.68 0)
(0.0968 -1.84 0)
(0.0968 -2 0)
(0.0968 -2.16 0)
(0.0968 -2.32 0)
(0.0968 -2.48 0)
(0.0968 -2.64 0)
(0.0968 -2.8 0)
(0.0968 -2.96 0)
(0.0968 -3.12 0)
(0.0968 -3.28 0)
(0.0968 -3.44 0)
(0.0968 -3.6 0)
(0.0968 -3.76 0)
(0.0968 -3.92 0)
(0.0968 -4.08 0)
(0.0968 -4.24 0)
(0.0968 -4.4 0)
(0.0968 -4.56 0)
(0.0968 -4.72 0)
(0.0968 -4.88 0)
(0.0968 -5.04 0)
(0.0968 -5.2 0)
(0.0968 -5.36 0)
(0.0968 -5.52 0)
(0.0968 -5.68 0)
(0.0968 -5.84 0)
(0.0968 -6 0)
(0.0968 -6.16 0)
(0.0968 -6.32 0)
(0.0968 -6.48 0)
(0.0968 -6.64 0)
(0.0968 -6.8 0)
(0.0968 -6.96 0)
(0.0968 -7.12 0)
(0.0968 -7.28 0)
(0.0968 -7.44 0)
(0.0968 -7.6 0)
(0.0968 -7.76 0)
(0.0968 -7.92 0)
(0.1352 -0.08 0)
(0.1352 -0.24 0)
(0.1352 -0.4 0)
(0.1352 -0.56 0)
(0.1352 -0.72 0)
(0.1352 -0.88 0)
(0.1352 -1.04 0)
(0.1352 -1.2 0)
(0.1352 -1.36 0)
(0.1352 -1.52 0)
(0.1352 -1.68 0)
(0.1352 -1.84 0)
(0.1352 -2 0)
(0.1352 -2.16 0)
(0.1352 -2.32 0)
(0.1352 -2.48 0)
(0.1352 -2.64 0)
(0.1352 -2.8 0)
(0.1352 -2.96 0)
(0.1352 -3.12 0)
(0.1352 -3.28 0)
(0.1352 -3.44 0)
(0.1352 -3.6 0)
(0.1352 -3.76 0)
(0.1352 -3.92 0)
(0.1352 -4.08 0)
(0.1352 -4.24 0)
(0.1352 -4.4 0)
(0.1352 -4.56 0)
(0.1352 -4.72 0)
(0.1352 -4.88 0)
(0.1352 -5.04 0)
(0.1352 -5.2 0)
(0.1352 -5.36 0)
(0.1352 -5.52 0)
(0.1352 -5.68 0)
(0.1352 -5.84 0)
(0.1352 -6 0)
(0.1352 -6.16 0)
(0.1352 -6.32 0)
(0.1352 -6.48 0)
(0.1352 -6.64 0)
(0.1352 -6.8 0)
(0.1352 -6.96 0)
(0.1352 -7.12 0)
(0.1352 -7.28 0)
(0.1352 -7.44 0)
(0.1352 -7.6 0)
(0.1352 -7.76 0)
(0.1352 -7.92 0)
(0.18 -0.08 0)
(0.18 -0.24 0)
(0.18 -0.4 0)
(0.18 -0.56 0)
(0.18 -0.72 0)
(0.18 -0.88 0)
(0.18 -1.04 0)
(0.18 -1.2 0)
(0.18 -1.36 0)
(0.18 -1.52 0)
(0.18 -1.68 0)
(0.18 -1.84 0)
(0.18 -2 0)
(0.18 -2.16 0)
(0.18 -2.32 0)
(0.18 -2.48 0)
(0.18 -2.64 0)
(0.18 -2.8 0)
(0.18 -2.96 0)
(0.18 -3.12 0)
(0.18 -3.28 0)
(0.18 -3.44 0)
(0.18 -3.6 0)
(0.18 -3.76 0)
(0.18 -3.92 0)
(0.18 -4.08 0)
(0.18 -4.24 0)
(0.18 -4.4 0)
(0.18 -4.56 0)
(0.18 -4.72 0)
(0.18 -4.88 0)
(0.18 -5.04 0)
(0.18 -5.2 0)
(0.18 -5.36 0)
(0.18 -5.52 0)
(0.18 -5.68 0)
(0.18 -5.84 0)
(0.18 -6 0)
(0.18 -6.16 0)
(0.18 -6.32 0)
(0.18 -6.48 0)
(0.18 -6.64 0)
(0.18 -6.8 0)
(0.18 -6.96 0)
(0.18 -7.12 0)
(0.18 -7.28 0)
(0.18 -7.44 0)
(0.18 -7.6 0)
(0.18 -7.76 0)
(0.18 -7.92 0)
(0.2312 -0.08 0)
(0.2312 -0.24 0)
(0.2312 -0.4 0)
(0.2312 -0.56 0)
(0.2312 -0.72 0)
(0.2312 -0.88 0)
(0.2312 -1.04 0)
(0.2312 -1.2 0)
(0.2312 -1.36 0)
(0.2312 -1.52 0)
(0.2312 -1.68 0)
(0.2312 -1.84 0)
(0.2312 -2 0)
(0.2312 -2.16 0)
(0.2312 -2.32 0)
(0.2312 -2.48 0)
(0.2312 -2.64 0)
(0.2312 -2.8 0)
(0.2312 -2.96 0)
(0.2312 -3.12 0)
(0.2312 -3.28 0)
(0.2312 -3.44 0)
(0.2312 -3.6 0)
(0.2312 -3.76 0)
(0.2312 -3.92 0)
(0.2312 -4.08 0)
(0.2312 -4.24 0)
(0.2312 -4.4 0)
(0.2312 -4.56 0)
(0.2312 -4.72 0)
(0.2312 -4.88 0)
(0.2312 -5.04 0)
(0.2312 -5.2 0)
(0.2312 -5.36 0)
(0.2312 -5.52 0)
(0.2312 -5.68 0)
(0.2312 -5.84 0)
(0.2312 -6 0)
(0.2312 -6.16 0)
(0.2312 -6.32 0)
(0.2312 -6.48 0)
(0.2312 -6.64 0)
(0.2312 -6.8 0)
(0.2312 -6.96 0)
(0.2312 -7.12 0)
(0.2312 -7.28 0)
(0.2312 -7.44 0)
(0.2312 -7.6 0)
(0.2312 -7.76 0)
(0.2312 -7.92 0)
(0.2888 -0.08 0)
(0.2888 -0.24 0)
(0.2888 -0.4 0)
(0.2888 -0.56 0)
(0.2888 -0.72 0)
(0.2888 -0.88 0)
(0.2888 -1.04 0)
(0.2888 -1.2 0)
(0.2888 -1.36 0)
(0.2888 -1.52 0)
(0.2888 -1.68 0)
(0.2888 -1.84 0)
(0.2888 -2 0)
(0.2888 -2.16 0)
(0.2888 -2.32 0)
(0.2888 -2.48 0)
(0.2888 -2.64 0)
(0.2888 -2.8 0)
(0.2888 -2.96 0)
(0.2888 -3.12 0)
(0.2888 -3.28 0)
(0.2888 -3.44 0)
(0.2888 -3.6 0)
(0.2888 -3.76 0)
(0.2888 -3.92 0)
(0.2888 -4.08 0)
(0.2888 -4.24 0)
(0.2888 -4.4 0)
(0.2888 -4.56 0)
(0.2888 -4.72 0)
(0.2888 -4.88 0)
(0.2888 -5.04 0)
(0.2888 -5.2 0)
(0.2888 -5.36 0)
(0.2888 -5.52 0)
(0.2888 -5.68 0)
(0.2888 -5.84 0)
(0.2888 -6 0)
(0.2888 -6.16 0)
(0.2888 -6.32 0)
(0.2888 -6.48 0)
(0.2888 -6.64 0)
(0.2888 -6.8 0)
(0.2888 -6.96 0)
(0.2888 -7.12 0)
(0.2888 -7.28 0)
(0.2888 -7.44 0)
(0.2888 -7.6 0)
(0.2888 -7.76 0)
(0.2888 -7.92 0)
(0.3528 -0.08 0)
(0.3528 -0.24 0)
(0.3528 -0.4 0)
(0.3528 -0.56 0)
(0.3528 -0.72 0)
(0.3528 -0.88 0)
(0.3528 -1.04 0)
(0.3528 -1.2 0)
(0.3528 -1.36 0)
(0.3528 -1.52 0)
(0.3528 -1.68 0)
(0.3528 -1.84 0)
(0.3528 -2 0)
(0.3528 -2.16 0)
(0.3528 -2.32 0)
(0.3528 -2.48 0)
(0.3528 -2.64 0)
(0.3528 -2.8 0)
(0.3528 -2.96 0)
(0.3528 -3.12 0)
(0.3528 -3.28 0)
(0.3528 -3.44 0)
(0.3528 -3.6 0)
(0.3528 -3.76 0)
(0.3528 -3.92 0)
(0.3528 -4.08 0)
(0.3528 -4.24 0)
(0.3528 -4.4 0)
(0.3528 -4.56 0)
(0.3528 -4.72 0)
(0.3528 -4.88 0)
(0.3528 -5.04 0)
(0.3528 -5.2 0)
(0.3528 -5.36 0)
(0.3528 -5.52 0)
(0.3528 -5.68 0)
(0.3528 -5.84 0)
(0.3528 -6 0)
(0.3528 -6.16 0)
(0.3528 -6.32 0)
(0.3528 -6.48 0)
(0.3528 -6.64 0)
(0.3528 -6.8 0)
(0.3528 -6.96 0)
(0.3528 -7.12 0)
(0.3528 -7.28 0)
(0.3528 -7.44 0)
(0.3528 -7.6 0)
(0.3528 -7.76 0)
(0.3528 -7.92 0)
(0.4232 -0.08 0)
(0.4232 -0.24 0)
(0.4232 -0.4 0)
(0.4232 -0.56 0)
(0.4232 -0.72 0)
(0.4232 -0.88 0)
(0.4232 -1.04 0)
(0.4232 -1.2 0)
(0.4232 -1.36 0)
(0.4232 -1.52 0)
(0.4232 -1.68 0)
(0.4232 -1.84 0)
(0.4232 -2 0)
(0.4232 -2.16 0)
(0.4232 -2.32 0)
(0.4232 -2.48 0)
(0.4232 -2.64 0)
(0.4232 -2.8 0)
(0.4232 -2.96 0)
(0.4232 -3.12 0)
(0.4232 -3.28 0)
(0.4232 -3.44 0)
(0.4232 -3.6 0)
(0.4232 -3.76 0)
(0.4232 -3.92 0)
(0.4232 -4.08 0)
(0.4232 -4.24 0)
(0.4232 -4.4 0)
(0.4232 -4.56 0)
(0.4232 -4.72 0)
(0.4232 -4.88 0)
(0.4232 -5.04 0)
(0.4232 -5.2 0)
(0.4232 -5.36 0)
(0.4232 -5.52 0)
(0.4232 -5.68 0)
(0.4232 -5.84 0)
(0.4232 -6 0)
(0.4232 -6.16 0)
(0.4232 -6.32 0)
(0.4232 -6.48 0)
(0.4232 -6.64 0)
(0.4232 -6.8 0)
(0.4232 -6.96 0)
(0.4232 -7.12 0)
(0.4232 -7.28 0)
(0.4232 -7.44 0)
(0.4232 -7.6 0)
(0.4232 -7.76 0)
(0.4232 -7.92 0)
(0.5 -0.08 0)
(0.5 -0.24 0)
(0.5 -0.4 0)
(0.5 -0.56 0)
(0.5 -0.72 0)
(0.5 -0.88 0)
(0.5 -1.04 0)
(0.5 -1.2 0)
(0.5 -1.36 0)
(0.5 -1.52 0)
(0.5 -1.68 0)
(0.5 -1.84 0)
(0.5 -2 0)
(0.5 -2.16 0)
(0.5 -2.32 0)
(0.5 -2.48 0)
(0.5 -2.64 0)
(0.5 -2.8 0)
(0.5 -2.96 0)
(0.5 -3.12 0)
(0.5 -3.28 0)
(0.5 -3.44 0)
(0.5 -3.6 0)
(0.5 -3.76 0)
(0.5 -3.92 0)
(0.5 -4.08 0)
(0.5 -4.24 0)
(0.5 -4.4 0)
(0.5 -4.56 0)
(0.5 -4.72 0)
(0.5 -4.88 0)
(0.5 -5.04 0)
(0.5 -5.2 0)
(0.5 -5.36 0)
(0.5 -5.52 0)
(0.5 -5.68 0)
(0.5 -5.84 0)
(0.5 -6 0)
(0.5 -6.16 0)
(0.5 -6.32 0)
(0.5 -6.48 0)
(0.5 -6.64 0)
(0.5 -6.8 0)
(0.5 -6.96 0)
(0.5 -7.12 0)
(0.5 -7.28 0)
(0.5 -7.44 0)
(0.5 -7.6 0)
(0.5 -7.76 0)
(0.5 -7.92 0)
(0.5832 -0.08 0)
(0.5832 -0.24 0)
(0.5832 -0.4 0)
(0.5832 -0.56 0)
(0.5832 -0.72 0)
(0.5832 -0.88 0)
(0.5832 -1.04 0)
(0.5832 -1.2 0)
(0.5832 -1.36 0)
(0.5832 -1.52 0)
(0.5832 -1.68 0)
(0.5832 -1.84 0)
(0.5832 -2 0)
(0.5832 -2.16 0)
(0.5832 -2.32 0)
(0.5832 -2.48 0)
(0.5832 -2.64 0)
(0.5832 -2.8 0)
(0.5832 -2.96 0)
(0.5832 -3.12 0)
(0.5832 -3.28 0)
(0.5832 -3.44 0)
(0.5832 -3.6 0)
(0.5832 -3.76 0)
(0.5832 -3.92 0)
(0.5832 -4.08 0)
(0.5832 -4.24 0)
(0.5832 -4.4 0)
(0.5832 -4.56 0)
(0.5832 -4.72 0)
(0.5832 -4.88 0)
(0.5832 -5.04 0)
(0.5832 -5.2 0)
(0.5832 -5.36 0)
(0.5832 -5.52 0)
(0.5832 -5.68 0)
(0.5832 -5.84 0)
(0.5832 -6 0)
(0.5832 -6.16 0)
(0.5832 -6.32 0)
(0.5832 -6.48 0)
(0.5832 -6.64 0)
(0.5832 -6.8 0)
(0.5832 -6.96 0)
(0.5832 -7.12 0)
(0.5832 -7.28 0)
(0.5832 -7.44 0)
(0.5832 -7.6 0)
(0.5832 -7.76 0)
(0.5832 -7.92 0)
(0.6728 -0.08 0)
(0.6728 -0.24 0)
(0.6728 -0.4 0)
(0.6728 -0.56 0)
(0.6728 -0.72 0)
(0.6728 -0.88 0)
(0.6728 -1.04 0)
(0.6728 -1.2 0)
(0.6728 -1.36 0)
(0.6728 -1.52 0)
(0.6728 -1.68 0)
(0.6728 -1.84 0)
(0.6728 -2 0)
(0.6728 -2.16 0)
(0.6728 -2.32 0)
(0.6728 -2.48 0)
(0.6728 -2.64 0)
(0.6728 -2.8 0)
(0.6728 -2.96 0)
(0.6728 -3.12 0)
(0.6728 -3.28 0)
(0.6728 -3.44 0)
(0.6728 -3.6 0)
(0.6728 -3.76 0)
(0.6728 -3.92 0)
(0.6728 -4.08 0)
(0.6728 -4.24 0)
(0.6728 -4.4 0)
(0.6728 -4.56 0)
(0.6728 -4.72 0)
(0.6728 -4.88 0)
(0.6728 -5.04 0)
(0.6728 -5.2 0)
(0.6728 -5.36 0)
(0.6728 -5.52 0)
(0.6728 -5.68 0)
(0.6728 -5.84 0)
(0.6728 -6 0)
(0.6728 -6.16 0)
(0.6728 -6.32 0)
(0.6728 -6.48 0)
(0.6728 -6.64 0)
(0.6728 -6.8 0)
(0.6728 -6.96 0)
(0.6728 -7.12 0)
(0.6728 -7.28 0)
(0.6728 -7.44 0)
(0.6728 -7.6 0)
(0.6728 -7.76 0)
(0.6728 -7.92 0)
(0.7688 -0.08 0)
(0.7688 -0.24 0)
(0.7688 -0.4 0)
(0.7688 -0.56 0)
(0.7688 -0.72 0)
(0.7688 -0.88 0)
(0.7688 -1.04 0)
(0.7688 -1.2 0)
(0.7688 -1.36 0)
(0.7688 -1.52 0)
(0.7688 -1.68 0)
(0.7688 -1.84 0)
(0.7688 -2 0)
(0.7688 -2.16 0)
(0.7688 -2.32 0)
(0.7688 -2.48 0)
(0.7688 -2.64 0)
(0.7688 -2.8 0)
(0.7688 -2.96 0)
(0.7688 -3.12 0)
(0.7688 -3.28 0)
(0.7688 -3.44 0)
(0.7688 -3.6 0)
(0.7688 -3.76 0)
(0.7688 -3.92 0)
(0.7688 -4.08 0)
(0.7688 -4.24 0)
(0.7688 -4.4 0)
(0.7688 -4.56 0)
(0.7688 -4.72 0)
(0.7688 -4.88 0)
(0.7688 -5.04 0)
(0.7688 -5.2 0)
(0.7688 -5.36 0)
(0.7688 -5.52 0)
(0.7688 -5.68 0)
(0.7688 -5.84 0)
(0.7688 -6 0)
(0.7688 -6.16 0)
(0.7688 -6.32 0)
(0.7688 -6.48 0)
(0.7688 -6.64 0)
(0.7688 -6.8 0)
(0.7688 -6.96 0)
(0.7688 -7.12 0)
(0.7688 -7.28 0)
(0.7688 -7.44 0)
(0.7688 -7.6 0)
(0.7688 -7.76 0)
(0.7688 -7.92 0)
(0.8712 -0.08 0)
(0.8712 -0.24 0)
(0.8712 -0.4 0)
(0.8712 -0.56 0)
(0.8712 -0.72 0)
(0.8712 -0.88 0)
(0.8712 -1.04 0)
(0.8712 -1.2 0)
(0.8712 -1.36 0)
(0.8712 -1.52 0)
(0.8712 -1.68 0)
(0.8712 -1.84 0)
(0.8712 -2 0)
(0.8712 -2.16 0)
(0.8712 -2.32 0)
(0.8712 -2.48 0)
(0.8712 -2.64 0)
(0.8712 -2.8 0)
(0.8712 -2.96 0)
(0.8712 -3.12 0)
(0.8712 -3.28 0)
(0.8712 -3.44 0)
(0.8712 -3.6 0)
(0.8712 -3.76 0)
(0.8712 -3.92 0)
(0.8712 -4.08 0)
(0.8712 -4.24 0)
(0.8712 -4.4 0)
(0.8712 -4.56 0)
(0.8712 -4.72 0)
(0.8712 -4.88 0)
(0.8712 -5.04 0)
(0.8712 -5.2 0)
(0.8712 -5.36 0)
(0.8712 -5.52 0)
(0.8712 -5.68 0)
(0.8712 -5.84 0)
(0.8712 -6 0)
(0.8712 -6.16 0)
(0.8712 -6.32 0)
(0.8712 -6.48 0)
(0.8712 -6.64 0)
(0.8712 -6.8 0)
(0.8712 -6.96 0)
(0.8712 -7.12 0)
(0.8712 -7.28 0)
(0.8712 -7.44 0)
(0.8712 -7.6 0)
(0.8712 -7.76 0)
(0.8712 -7.92 0)
(0.98 -0.08 0)
(0.98 -0.24 0)
(0.98 -0.4 0)
(0.98 -0.56 0)
(0.98 -0.72 0)
(0.98 -0.88 0)
(0.98 -1.04 0)
(0.98 -1.2 0)
(0.98 -1.36 0)
(0.98 -1.52 0)
(0.98 -1.68 0)
(0.98 -1.84 0)
(0.98 -2 0)
(0.98 -2.16 0)
(0.98 -2.32 0)
(0.98 -2.48 0)
(0.98 -2.64 0)
(0.98 -2.8 0)
(0.98 -2.96 0)
(0.98 -3.12 0)
(0.98 -3.28 0)
(0.98 -3.44 0)
(0.98 -3.6 0)
(0.98 -3.76 0)
(0.98 -3.92 0)
(0.98 -4.08 0)
(0.98 -4.24 0)
(0.98 -4.4 0)
(0.98 -4.56 0)
(0.98 -4.72 0)
(0.98 -4.88 0)
(0.98 -5.04 0)
(0.98 -5.2 0)
(0.98 -5.36 0)
(0.98 -5.52 0)
(0.98 -5.68 0)
(0.98 -5.84 0)
(0.98 -6 0)
(0.98 -6.16 0)
(0.98 -6.32 0)
(0.98 -6.48 0)
(0.98 -6.64 0)
(0.98 -6.8 0)
(0.98 -6.96 0)
(0.98 -7.12 0)
(0.98 -7.28 0)
(0.98 -7.44 0)
(0.98 -7.6 0)
(0.98 -7.76 0)
(0.98 -7.92 0)
(1.0952 -0.08 0)
(1.0952 -0.24 0)
(1.0952 -0.4 0)
(1.0952 -0.56 0)
(1.0952 -0.72 0)
(1.0952 -0.88 0)
(1.0952 -1.04 0)
(1.0952 -1.2 0)
(1.0952 -1.36 0)
(1.0952 -1.52 0)
(1.0952 -1.68 0)
(1.0952 -1.84 0)
(1.0952 -2 0)
(1.0952 -2.16 0)
(1.0952 -2.32 0)
(1.0952 -2.48 0)
(1.0952 -2.64 0)
(1.0952 -2.8 0)
(1.0952 -2.96 0)
(1.0952 -3.12 0)
(1.0952 -3.28 0)
(1.0952 -3.44 0)
(1.0952 -3.6 0)
(1.0952 -3.76 0)
(1.0952 -3.92 0)
(1.0952 -4.08 0)
(1.0952 -4.24 0)
(1.0952 -4.4 0)
(1.0952 -4.56 0)
(1.0952 -4.72 0)
(1.0952 -4.88 0)
(1.0952 -5.04 0)
(1.0952 -5.2 0)
(1.0952 -5.36 0)
(1.0952 -5.52 0)
(1.0952 -5.68 0)
(1.0952 -5.84 0)
(1.0952 -6 0)
(1.0952 -6.16 0)
(1.0952 -6.32 0)
(1.0952 -6.48 0)
(1.0952 -6.64 0)
(1.0952 -6.8 0)
(1.0952 -6.96 0)
(1.0952 -7.12 0)
(1.0952 -7.28 0)
(1.0952 -7.44 0)
(1.0952 -7.6 0)
(1.0952 -7.76 0)
(1.0952 -7.92 0)
(1.2168 -0.08 0)
(1.2168 -0.24 0)
(1.2168 -0.4 0)
(1.2168 -0.56 0)
(1.2168 -0.72 0)
(1.2168 -0.88 0)
(1.2168 -1.04 0)
(1.2168 -1.2 0)
(1.2168 -1.36 0)
(1.2168 -1.52 0)
(1.2168 -1.68 0)
(1.2168 -1.84 0)
(1.2168 -2 0)
(1.2168 -2.16 0)
(1.2168 -2.32 0)
(1.2168 -2.48 0)
(1.2168 -2.64 0)
(1.2168 -2.8 0)
(1.2168 -2.96 0)
(1.2168 -3.12 0)
(1.2168 -3.28 0)
(1.2168 -3.44 0)
(1.2168 -3.6 0)
(1.2168 -3.76 0)
(1.2168 -3.92 0)
(1.2168 -4.08 0)
(1.2168 -4.24 0)
(1.2168 -4.4 0)
(1.2168 -4.56 0)
(1.2168 -4.72 0)
(1.2168 -4.88 0)
(1.2168 -5.04 0)
(1.2168 -5.2 0)
(1.2168 -5.36 0)
(1.2168 -5.52 0)
(1.2168 -5.68 0)
(1.2168 -5.84 0)
(1.2168 -6 0)
(1.2168 -6.16 0)
(1.2168 -6.32 0)
(1.2168 -6.48 0)
(1.2168 -6.64 0)
(1.2168 -6.8 0)
(1.2168 -6.96 0)
(1.2168 -7.12 0)
(1.2168 -7.28 0)
(1.2168 -7.44 0)
(1.2168 -7.6 0)
(1.2168 -7.76 0)
(1.2168 -7.92 0)
(1.3448 -0.08 0)
(1.3448 -0.24 0)
(1.3448 -0.4 0)
(1.3448 -0.56 0)
(1.3448 -0.72 0)
(1.3448 -0.88 0)
(1.3448 -1.04 0)
(1.3448 -1.2 0)
(1.3448 -1.36 0)
(1.3448 -1.52 0)
(1.3448 -1.68 0)
(1.3448 -1.84 0)
(1.3448 -2 0)
(1.3448 -2.16 0)
(1.3448 -2.32 0)
(1.3448 -2.48 0)
(1.3448 -2.64 0)
(1.3448 -2.8 0)
(1.3448 -2.96 0)
(1.3448 -3.12 0)
(1.3448 -3.28 0)
(1.3448 -3.44 0)
(1.3448 -3.6 0)
(1.3448 -3.76 0)
(1.3448 -3.92 0)
(1.3448 -4.08 0)
(1.3448 -4.24 0)
(1.3448 -4.4 0)
(1.3448 -4.56 0)
(1.3448 -4.72 0)
(1.3448 -4.88 0)
(1.3448 -5.04 0)
(1.3448 -5.2 0)
(1.3448 -5.36 0)
(1.3448 -5.52 0)
(1.3448 -5.68 0)
(1.3448 -5.84 0)
(1.3448 -6 0)
(1.3448 -6.16 0)
(1.3448 -6.32 0)
(1.3448 -6.48 0)
(1.3448 -6.64 0)
(1.3448 -6.8 0)
(1.3448 -6.96 0)
(1.3448 -7.12 0)
(1.3448 -7.28 0)
(1.3448 -7.44 0)
(1.3448 -7.6 0)
(1.3448 -7.76 0)
(1.3448 -7.92 0)
(1.4792 -0.08 0)
(1.4792 -0.24 0)
(1.4792 -0.4 0)
(1.4792 -0.56 0)
(1.4792 -0.72 0)
(1.4792 -0.88 0)
(1.4792 -1.04 0)
(1.4792 -1.2 0)
(1.4792 -1.36 0)
(1.4792 -1.52 0)
(1.4792 -1.68 0)
(1.4792 -1.84 0)
(1.4792 -2 0)
(1.4792 -2.16 0)
(1.4792 -2.32 0)
(1.4792 -2.48 0)
(1.4792 -2.64 0)
(1.4792 -2.8 0)
(1.4792 -2.96 0)
(1.4792 -3.12 0)
(1.4792 -3.28 0)
(1.4792 -3.44 0)
(1.4792 -3.6 0)
(1.4792 -3.76 0)
(1.4792 -3.92 0)
(1.4792 -4.08 0)
(1.4792 -4.24 0)
(1.4792 -4.4 0)
(1.4792 -4.56 0)
(1.4792 -4.72 0)
(1.4792 -4.88 0)
(1.4792 -5.04 0)
(1.4792 -5.2 0)
(1.4792 -5.36 0)
(1.4792 -5.52 0)
(1.4792 -5.68 0)
(1.4792 -5.84 0)
(1.4792 -6 0)
(1.4792 -6.16 0)
(1.4792 -6.32 0)
(1.4792 -6.48 0)
(1.4792 -6.64 0)
(1.4792 -6.8 0)
(1.4792 -6.96 0)
(1.4792 -7.12 0)
(1.4792 -7.28 0)
(1.4792 -7.44 0)
(1.4792 -7.6 0)
(1.4792 -7.76 0)
(1.4792 -7.92 0)
(1.62 -0.08 0)
(1.62 -0.24 0)
(1.62 -0.4 0)
(1.62 -0.56 0)
(1.62 -0.72 0)
(1.62 -0.88 0)
(1.62 -1.04 0)
(1.62 -1.2 0)
(1.62 -1.36 0)
(1.62 -1.52 0)
(1.62 -1.68 0)
(1.62 -1.84 0)
(1.62 -2 0)
(1.62 -2.16 0)
(1.62 -2.32 0)
(1.62 -2.48 0)
(1.62 -2.64 0)
(1.62 -2.8 0)
(1.62 -2.96 0)
(1.62 -3.12 0)
(1.62 -3.28 0)
(1.62 -3.44 0)
(1.62 -3.6 0)
(1.62 -3.76 0)
(1.62 -3.92 0)
(1.62 -4.08 0)
(1.62 -4.24 0)
(1.62 -4.4 0)
(1.62 -4.56 0)
(1.62 -4.72 0)
(1.62 -4.88 0)
(1.62 -5.04 0)
(1.62 -5.2 0)
(1.62 -5.36 0)
(1.62 -5.52 0)
(1.62 -5.68 0)
(1.62 -5.84 0)
(1.62 -6 0)
(1.62 -6.16 0)
(1.62 -6.32 0)
(1.62 -6.48 0)
(1.62 -6.64 0)
(1.62 -6.8 0)
(1.62 -6.96 0)
(1.62 -7.12 0)
(1.62 -7.28 0)
(1.62 -7.44 0)
(1.62 -7.6 0)
(1.62 -7.76 0)
(1.62 -7.92 0)
(1.7672 -0.08 0)
(1.7672 -0.24 0)
(1.7672 -0.4 0)
(1.7672 -0.56 0)
(1.7672 -0.72 0)
(1.7672 -0.88 0)
(1.7672 -1.04 0)
(1.7672 -1.2 0)
(1.7672 -1.36 0)
(1.7672 -1.52 0)
(1.7672 -1.68 0)
(1.7672 -1.84 0)
(1.7672 -2 0)
(1.7672 -2.16 0)
(1.7672 -2.32 0)
(1.7672 -2.48 0)
(1.7672 -2.64 0)
(1.7672 -2.8 0)
(1.7672 -2.96 0)
(1.7672 -3.12 0)
(1.7672 -3.28 0)
(1.7672 -3.44 0)
(1.7672 -3.6 0)
(1.7672 -3.76 0)
(1.7672 -3.92 0)
(1.7672 -4.08 0)
(1.7672 -4.24 0)
(1.7672 -4.4 0)
(1.7672 -4.56 0)
(1.7672 -4.72 0)
(1.7672 -4.88 0)
(1.7672 -5.04 0)
(1.7672 -5.2 0)
(1.7672 -5.36 0)
(1.7672 -5.52 0)
(1.7672 -5.68 0)
(1.7672 -5.84 0)
(1.7672 -6 0)
(1.7672 -6.16 0)
(1.7672 -6.32 0)
(1.7672 -6.48 0)
(1.7672 -6.64 0)
(1.7672 -6.8 0)
(1.7672 -6.96 0)
(1.7672 -7.12 0)
(1.7672 -7.28 0)
(1.7672 -7.44 0)
(1.7672 -7.6 0)
(1.7672 -7.76 0)
(1.7672 -7.92 0)
(1.9208 -0.08 0)
(1.9208 -0.24 0)
(1.9208 -0.4 0)
(1.9208 -0.56 0)
(1.9208 -0.72 0)
(1.9208 -0.88 0)
(1.9208 -1.04 0)
(1.9208 -1.2 0)
(1.9208 -1.36 0)
(1.9208 -1.52 0)
(1.9208 -1.68 0)
(1.9208 -1.84 0)
(1.9208 -2 0)
(1.9208 -2.16 0)
(1.9208 -2.32 0)
(1.9208 -2.48 0)
(1.9208 -2.64 0)
(1.9208 -2.8 0)
(1.9208 -2.96 0)
(1.9208 -3.12 0)
(1.9208 -3.28 0)
(1.9208 -3.44 0)
(1.9208 -3.6 0)
(1.9208 -3.76 0)
(1.9208 -3.92 0)
(1.9208 -4.08 0)
(1.9208 -4.24 0)
(1.9208 -4.4 0)
(1.9208 -4.56 0)
(1.9208 -4.72 0)
(1.9208 -4.88 0)
(1.9208 -5.04 0)
(1.9208 -5.2 0)
(1.9208 -5.36 0)
(1.9208 -5.52 0)
(1.9208 -5.68 0)
(1.9208 -5.84 0)
(1.9208 -6 0)
(1.9208 -6.16 0)
(1.9208 -6.32 0)
(1.9208 -6.48 0)
(1.9208 -6.64 0)
(1.9208 -6.8 0)
(1.9208 -6.96 0)
(1.9208 -7.12 0)
(1.9208 -7.28 0)
(1.9208 -7.44 0)
(1.9208 -7.6 0)
(1.9208 -7.76 0)
(1.9208 -7.92 0)
(2.0808 -0.08 0)
(2.0808 -0.24 0)
(2.0808 -0.4 0)
(2.0808 -0.56 0)
(2.0808 -0.72 0)
(2.0808 -0.88 0)
(2.0808 -1.04 0)
(2.0808 -1.2 0)
(2.0808 -1.36 0)
(2.0808 -1.52 0)
(2.0808 -1.68 0)
(2.0808 -1.84 0)
(2.0808 -2 0)
(2.0808 -2.16 0)
(2.0808 -2.32 0)
(2.0808 -2.48 0)
(2.0808 -2.64 0)
(2.0808 -2.8 0)
(2.0808 -2.96 0)
(2.0808 -3.12 0)
(2.0808 -3.28 0)
(2.0808 -3.44 0)
(2.0808 -3.6 0)
(2.0808 -3.76 0)
(2.0808 -3.92 0)
(2.0808 -4.08 0)
(2.0808 -4.24 0)
(2.0808 -4.4 0)
(2.0808 -4.56 0)
(2.0808 -4.72 0)
(2.0808 -4.88 0)
(2.0808 -5.04 0)
(2.0808 -5.2 0)
(2.0808 -5.36 0)
(2.0808 -5.52 0)
(2.0808 -5.68 0)
(2.0808 -5.84 0)
(2.0808 -6 0)
(2.0808 -6.16 0)
(2.0808 -6.32 0)
(2.0808 -6.48 0)
(2.0808 -6.64 0)
(2.0808 -6.8 0)
(2.0808 -6.96 0)
(2.0808 -7.12 0)
(2.0808 -7.28 0)
(2.0808 -7.44 0)
(2.0808 -7.6 0)
(2.0808 -7.76 0)
(2.0808 -7.92 0)
(2.2472 -0.08 0)
(2.2472 -0.24 0)
(2.2472 -0.4 0)
(2.2472 -0.56 0)
(2.2472 -0.72 0)
(2.2472 -0.88 0)
(2.2472 -1.04 0)
(2.2472 -1.2 0)
(2.2472 -1.36 0)
(2.2472 -1.52 0)
(2.2472 -1.68 0)
(2.2472 -1.84 0)
(2.2472 -2 0)
(2.2472 -2.16 0)
(2.2472 -2.32 0)
(2.2472 -2.48 0)
(2.2472 -2.64 0)
(2.2472 -2.8 0)
(2.2472 -2.96 0)
(2.2472 -3.12 0)
(2.2472 -3.28 0)
(2.2472 -3.44 0)
(2.2472 -3.6 0)
(2.2472 -3.76 0)
(2.2472 -3.92 0)
(2.2472 -4.08 0)
(2.2472 -4.24 0)
(2.2472 -4.4 0)
(2.2472 -4.56 0)
(2.2472 -4.72 0)
(2.2472 -4.88 0)
(2.2472 -5.04 0)
(2.2472 -5.2 0)
(2.2472 -5.36 0)
(2.2472 -5.52 0)
(2.2472 -5.68 0)
(2.2472 -5.84 0)
(2.2472 -6 0)
(2.2472 -6.16 0)
(2.2472 -6.32 0)
(2.2472 -6.48 0)
(2.2472 -6.64 0)
(2.2472 -6.8 0)
(2.2472 -6.96 0)
(2.2472 -7.12 0)
(2.2472 -7.28 0)
(2.2472 -7.44 0)
(2.2472 -7.6 0)
(2.2472 -7.76 0)
(2.2472 -7.92 0)
(2.42 -0.08 0)
(2.42 -0.24 0)
(2.42 -0.4 0)
(2.42 -0.56 0)
(2.42 -0.72 0)
(2.42 -0.88 0)
(2.42 -1.04 0)
(2.42 -1.2 0)
(2.42 -1.36 0)
(2.42 -1.52 0)
(2.42 -1.68 0)
(2.42 -1.84 0)
(2.42 -2 0)
(2.42 -2.16 0)
(2.42 -2.32 0)
(2.42 -2.48 0)
(2.42 -2.64 0)
(2.42 -2.8 0)
(2.42 -2.96 0)
(2.42 -3.12 0)
(2.42 -3.28 0)
(2.42 -3.44 0)
(2.42 -3.6 0)
(2.42 -3.76 0)
(2.42 -3.92 0)
(2.42 -4.08 0)
(2.42 -4.24 0)
(2.42 -4.4 0)
(2.42 -4.56 0)
(2.42 -4.72 0)
(2.42 -4.88 0)
(2.42 -5.04 0)
(2.42 -5.2 0)
(2.42 -5.36 0)
(2.42 -5.52 0)
(2.42 -5.68 0)
(2.42 -5.84 0)
(2.42 -6 0)
(2.42 -6.16 0)
(2.42 -6.32 0)
(2.42 -6.48 0)
(2.42 -6.64 0)
(2.42 -6.8 0)
(2.42 -6.96 0)
(2.42 -7.12 0)
(2.42 -7.28 0)
(2.42 -7.44 0)
(2.42 -7.6 0)
(2.42 -7.76 0)
(2.42 -7.92 0)
(2.5992 -0.08 0)
(2.5992 -0.24 0)
(2.5992 -0.4 0)
(2.5992 -0.56 0)
(2.5992 -0.72 0)
(2.5992 -0.88 0)
(2.5992 -1.04 0)
(2.5992 -1.2 0)
(2.5992 -1.36 0)
(2.5992 -1.52 0)
(2.5992 -1.68 0)
(2.5992 -1.84 0)
(2.5992 -2 0)
(2.5992 -2.16 0)
(2.5992 -2.32 0)
(2.5992 -2.48 0)
(2.5992 -2.64 0)
(2.5992 -2.8 0)
(2.5992 -2.96 0)
(2.5992 -3.12 0)
(2.5992 -3.28 0)
(2.5992 -3.44 0)
(2.5992 -3.6 0)
(2.5992 -3.76 0)
(2.5992 -3.92 0)
(2.5992 -4.08 0)
(2.5992 -4.24 0)
(2.5992 -4.4 0)
(2.5992 -4.56 0)
(2.5992 -4.72 0)
(2.5992 -4.88 0)
(2.5992 -5.04 0)
(2.5992 -5.2 0)
(2.5992 -5.36 0)
(2.5992 -5.52 0)
(2.5992 -5.68 0)
(2.5992 -5.84 0)
(2.5992 -6 0)
(2.5992 -6.16 0)
(2.5992 -6.32 0)
(2.5992 -6.48 0)
(2.5992 -6.64 0)
(2.5992 -6.8 0)
(2.5992 -6.96 0)
(2.5992 -7.12 0)
(2.5992 -7.28 0)
(2.5992 -7.44 0)
(2.5992 -7.6 0)
(2.5992 -7.76 0)
(2.5992 -7.92 0)
(2.7848 -0.08 0)
(2.7848 -0.24 0)
(2.7848 -0.4 0)
(2.7848 -0.56 0)
(2.7848 -0.72 0)
(2.7848 -0.88 0)
(2.7848 -1.04 0)
(2.7848 -1.2 0)
(2.7848 -1.36 0)
(2.7848 -1.52 0)
(2.7848 -1.68 0)
(2.7848 -1.84 0)
(2.7848 -2 0)
(2.7848 -2.16 0)
(2.7848 -2.32 0)
(2.7848 -2.48 0)
(2.7848 -2.64 0)
(2.7848 -2.8 0)
(2.7848 -2.96 0)
(2.7848 -3.12 0)
(2.7848 -3.28 0)
(2.7848 -3.44 0)
(2.7848 -3.6 0)
(2.7848 -3.76 0)
(2.7848 -3.92 0)
(2.7848 -4.08 0)
(2.7848 -4.24 0)
(2.7848 -4.4 0)
(2.7848 -4.56 0)
(2.7848 -4.72 0)
(2.7848 -4.88 0)
(2.7848 -5.04 0)
(2.7848 -5.2 0)
(2.7848 -5.36 0)
(2.7848 -5.52 0)
(2.7848 -5.68 0)
(2.7848 -5.84 0)
(2.7848 -6 0)
(2.7848 -6.16 0)
(2.7848 -6.32 0)
(2.7848 -6.48 0)
(2.7848 -6.64 0)
(2.7848 -6.8 0)
(2.7848 -6.96 0)
(2.7848 -7.12 0)
(2.7848 -7.28 0)
(2.7848 -7.44 0)
(2.7848 -7.6 0)
(2.7848 -7.76 0)
(2.7848 -7.92 0)
(2.9768 -0.08 0)
(2.9768 -0.24 0)
(2.9768 -0.4 0)
(2.9768 -0.56 0)
(2.9768 -0.72 0)
(2.9768 -0.88 0)
(2.9768 -1.04 0)
(2.9768 -1.2 0)
(2.9768 -1.36 0)
(2.9768 -1.52 0)
(2.9768 -1.68 0)
(2.9768 -1.84 0)
(2.9768 -2 0)
(2.9768 -2.16 0)
(2.9768 -2.32 0)
(2.9768 -2.48 0)
(2.9768 -2.64 0)
(2.9768 -2.8 0)
(2.9768 -2.96 0)
(2.9768 -3.12 0)
(2.9768 -3.28 0)
(2.9768 -3.44 0)
(2.9768 -3.6 0)
(2.9768 -3.76 0)
(2.9768 -3.92 0)
(2.9768 -4.08 0)
(2.9768 -4.24 0)
(2.9768 -4.4 0)
(2.9768 -4.56 0)
(2.9768 -4.72 0)
(2.9768 -4.88 0)
(2.9768 -5.04 0)
(2.9768 -5.2 0)
(2.9768 -5.36 0)
(2.9768 -5.52 0)
(2.9768 -5.68 0)
(2.9768 -5.84 0)
(2.9768 -6 0)
(2.9768 -6.16 0)
(2.9768 -6.32 0)
(2.9768 -6.48 0)
(2.9768 -6.64 0)
(2.9768 -6.8 0)
(2.9768 -6.96 0)
(2.9768 -7.12 0)
(2.9768 -7.28 0)
(2.9768 -7.44 0)
(2.9768 -7.6 0)
(2.9768 -7.76 0)
(2.9768 -7.92 0)
(3.1752 -0.08 0)
(3.1752 -0.24 0)
(3.1752 -0.4 0)
(3.1752 -0.56 0)
(3.1752 -0.72 0)
(3.1752 -0.88 0)
(3.1752 -1.04 0)
(3.1752 -1.2 0)
(3.1752 -1.36 0)
(3.1752 -1.52 0)
(3.1752 -1.68 0)
(3.1752 -1.84 0)
(3.1752 -2 0)
(3.1752 -2.16 0)
(3.1752 -2.32 0)
(3.1752 -2.48 0)
(3.1752 -2.64 0)
(3.1752 -2.8 0)
(3.1752 -2.96 0)
(3.1752 -3.12 0)
(3.1752 -3.28 0)
(3.1752 -3.44 0)
(3.1752 -3.6 0)
(3.1752 -3.76 0)
(3.1752 -3.92 0)
(3.1752 -4.08 0)
(3.1752 -4.24 0)
(3.1752 -4.4 0)
(3.1752 -4.56 0)
(3.1752 -4.72 0)
(3.1752 -4.88 0)
(3.1752 -5.04 0)
(3.1752 -5.2 0)
(3.1752 -5.36 0)
(3.1752 -5.52 0)
(3.1752 -5.68 0)
(3.1752 -5.84 0)
(3.1752 -6 0)
(3.1752 -6.16 0)
(3.1752 -6.32 0)
(3.1752 -6.48 0)
(3.1752 -6.64 0)
(3.1752 -6.8 0)
(3.1752 -6.96 0)
(3.1752 -7.12 0)
(3.1752 -7.28 0)
(3.1752 -7.44 0)
(3.1752 -7.6 0)
(3.1752 -7.76 0)
(3.1752 -7.92 0)
(3.38 -0.08 0)
(3.38 -0.24 0)
(3.38 -0.4 0)
(3.38 -0.56 0)
(3.38 -0.72 0)
(3.38 -0.88 0)
(3.38 -1.04 0)
(3.38 -1.2 0)
(3.38 -1.36 0)
(3.38 -1.52 0)
(3.38 -1.68 0)
(3.38 -1.84 0)
(3.38 -2 0)
(3.38 -2.16 0)
(3.38 -2.32 0)
(3.38 -2.48 0)
(3.38 -2.64 0)
(3.38 -2.8 0)
(3.38 -2.96 0)
(3.38 -3.12 0)
(3.38 -3.28 0)
(3.38 -3.44 0)
(3.38 -3.6 0)
(3.38 -3.76 0)
(3.38 -3.92 0)
(3.38 -4.08 0)
(3.38 -4.24 0)
(3.38 -4.4 0)
(3.38 -4.56 0)
(3.38 -4.72 0)
(3.38 -4.88 0)
(3.38 -5.04 0)
(3.38 -5.2 0)
(3.38 -5.36 0)
(3.38 -5.52 0)
(3.38 -5.68 0)
(3.38 -5.84 0)
(3.38 -6 0)
(3.38 -6.16 0)
(3.38 -6.32 0)
(3.38 -6.48 0)
(3.38 -6.64 0)
(3.38 -6.8 0)
(3.38 -6.96 0)
(3.38 -7.12 0)
(3.38 -7.28 0)
(3.38 -7.44 0)
(3.38 -7.6 0)
(3.38 -7.76 0)
(3.38 -7.92 0)
(3.5912 -0.08 0)
(3.5912 -0.24 0)
(3.5912 -0.4 0)
(3.5912 -0.56 0)
(3.5912 -0.72 0)
(3.5912 -0.88 0)
(3.5912 -1.04 0)
(3.5912 -1.2 0)
(3.5912 -1.36 0)
(3.5912 -1.52 0)
(3.5912 -1.68 0)
(3.5912 -1.84 0)
(3.5912 -2 0)
(3.5912 -2.16 0)
(3.5912 -2.32 0)
(3.5912 -2.48 0)
(3.5912 -2.64 0)
(3.5912 -2.8 0)
(3.5912 -2.96 0)
(3.5912 -3.12 0)
(3.5912 -3.28 0)
(3.5912 -3.44 0)
(3.5912 -3.6 0)
(3.5912 -3.76 0)
(3.5912 -3.92 0)
(3.5912 -4.08 0)
(3.5912 -4.24 0)
(3.5912 -4.4 0)
(3.5912 -4.56 0)
(3.5912 -4.72 0)
(3.5912 -4.88 0)
(3.5912 -5.04 0)
(3.5912 -5.2 0)
(3.5912 -5.36 0)
(3.5912 -5.52 0)
(3.5912 -5.68 0)
(3.5912 -5.84 0)
(3.5912 -6 0)
(3.5912 -6.16 0)
(3.5912 -6.32 0)
(3.5912 -6.48 0)
(3.5912 -6.64 0)
(3.5912 -6.8 0)
(3.5912 -6.96 0)
(3.5912 -7.12 0)
(3.5912 -7.28 0)
(3.5912 -7.44 0)
(3.5912 -7.6 0)
(3.5912 -7.76 0)
(3.5912 -7.92 0)
(3.8088 -0.08 0)
(3.8088 -0.24 0)
(3.8088 -0.4 0)
(3.8088 -0.56 0)
(3.8088 -0.72 0)
(3.8088 -0.88 0)
(3.8088 -1.04 0)
(3.8088 -1.2 0)
(3.8088 -1.36 0)
(3.8088 -1.52 0)
(3.8088 -1.68 0)
(3.8088 -1.84 0)
(3.8088 -2 0)
(3.8088 -2.16 0)
(3.8088 -2.32 0)
(3.8088 -2.48 0)
(3.8088 -2.64 0)
(3.8088 -2.8 0)
(3.8088 -2.96 0)
(3.8088 -3.12 0)
(3.8088 -3.28 0)
(3.8088 -3.44 0)
(3.8088 -3.6 0)
(3.8088 -3.76 0)
(3.8088 -3.92 0)
(3.8088 -4.08 0)
(3.8088 -4.24 0)
(3.8088 -4.4 0)
(3.8088 -4.56 0)
(3.8088 -4.72 0)
(3.8088 -4.88 0)
(3.8088 -5.04 0)
(3.8088 -5.2 0)
(3.8088 -5.36 0)
(3.8088 -5.52 0)
(3.8088 -5.68 0)
(3.8088 -5.84 0)
(3.8088 -6 0)
(3.8088 -6.16 0)
(3.8088 -6.32 0)
(3.8088 -6.48 0)
(3.8088 -6.64 0)
(3.8088 -6.8 0)
(3.8088 -6.96 0)
(3.8088 -7.12 0)
(3.8088 -7.28 0)
(3.8088 -7.44 0)
(3.8088 -7.6 0)
(3.8088 -7.76 0)
(3.8088 -7.92 0)
(4.0328 -0.08 0)
(4.0328 -0.24 0)
(4.0328 -0.4 0)
(4.0328 -0.56 0)
(4.0328 -0.72 0)
(4.0328 -0.88 0)
(4.0328 -1.04 0)
(4.0328 -1.2 0)
(4.0328 -1.36 0)
(4.0328 -1.52 0)
(4.0328 -1.68 0)
(4.0328 -1.84 0)
(4.0328 -2 0)
(4.0328 -2.16 0)
(4.0328 -2.32 0)
(4.0328 -2.48 0)
(4.0328 -2.64 0)
(4.0328 -2.8 0)
(4.0328 -2.96 0)
(4.0328 -3.12 0)
(4.0328 -3.28 0)
(4.0328 -3.44 0)
(4.0328 -3.6 0)
(4.0328 -3.76 0)
(4.0328 -3.92 0)
(4.0328 -4.08 0)
(4.0328 -4.24 0)
(4.0328 -4.4 0)
(4.0328 -4.56 0)
(4.0328 -4.72 0)
(4.0328 -4.88 0)
(4.0328 -5.04 0)
(4.0328 -5.2 0)
(4.0328 -5.36 0)
(4.0328 -5.52 0)
(4.0328 -5.68 0)
(4.0328 -5.84 0)