/*--------------------------------*- C++ -*----------------------------------*\
| =========                 |                                                 |
| \\      /  F ield         | OpenFOAM: The Open Source CFD Toolbox           |
|  \\    /   O peration     | Version:  v2006                                 |
|   \\  /    A nd           | Website:  www.openfoam.com                      |
|    \\/     M anipulation  |                                                 |
\*---------------------------------------------------------------------------*/
FoamFile
{
    version     2.0;
    format      ascii;
    class       volScalarField;
    location    "0";
    object      p;
}
// * * * * * * * * * * * * * * * * * * * * * * * * * * * * * * * * * * * * * //

dimensions      [1 -1 -2 0 0 0 0];


internalField   nonuniform List<scalar> 
67500
(
573.064
578.631
571.275
568.571
564.952
558.913
551.421
542.993
533.575
523.202
511.992
500.048
487.478
474.389
460.882
447.057
433.006
418.817
404.567
390.331
376.172
362.146
348.305
334.69
321.339
308.28
295.54
283.139
271.09
259.406
248.095
237.162
226.607
216.432
206.634
197.208
188.15
179.453
171.11
163.111
155.449
148.114
141.096
134.385
127.971
121.844
115.994
110.411
105.084
100.004
95.1604
90.5446
86.1468
81.9579
77.9692
74.172
70.558
67.1191
63.8474
60.7356
57.7763
54.9625
52.2875
49.7448
47.3283
45.032
42.8501
40.7772
38.808
36.9375
35.161
33.4738
31.8716
30.3501
28.9054
27.5337
26.2312
24.9947
23.8206
22.706
21.6478
20.6431
19.6892
18.7835
17.9236
17.1071
16.3317
15.5954
14.8962
14.232
13.6011
13.0017
12.4322
11.8911
11.3767
10.8878
10.423
9.98093
9.56048
9.16048
8.77984
8.41755
8.07262
7.74414
7.43124
7.13308
6.8489
6.57795
6.31955
6.07303
5.83776
5.61318
5.39871
5.19385
4.99809
4.81097
4.63205
4.46091
4.29717
4.14045
3.9904
3.84669
3.70902
3.57709
3.45061
3.32933
3.213
3.10138
2.99424
2.89139
2.79261
2.69772
2.60654
2.5189
2.43463
2.35359
2.27562
2.20059
2.12837
2.05883
1.99185
1.92733
1.86514
1.8052
1.74739
1.69164
1.63785
1.58593
1.53581
1.48741
1.44066
1.39548
1.35182
1.3096
1.26878
1.22928
1.19106
1.15407
1.11825
1.08356
1.04995
1.01738
0.985816
0.955211
0.925532
0.896742
0.868809
0.841701
0.815388
0.789841
0.765033
0.740939
0.717533
0.694793
0.672696
0.651221
0.630348
0.610058
0.590333
0.571155
0.552509
0.534379
0.51675
0.499608
0.482939
0.466732
0.450973
0.435652
0.420757
0.406277
0.392204
0.378527
0.365238
0.352327
0.339787
0.327609
0.315786
0.30431
0.293175
0.282374
0.271899
0.261746
0.251907
0.242377
0.23315
0.224221
0.215584
0.207234
0.199165
0.191372
0.18385
0.176595
0.1696
0.162862
0.156374
0.150133
0.144132
0.138367
0.132832
0.127523
0.122433
0.117559
0.112893
0.108431
0.104167
0.100096
0.0962107
0.0925061
0.0889761
0.0856147
0.0824159
0.0793737
0.076482
0.073735
0.0711267
0.0686514
0.0663034
0.0640772
0.0619674
0.059969
0.0580769
0.0562862
0.0545922
0.0529905
0.0514763
0.0500454
0.0486933
0.0474159
0.0462088
0.0450678
0.0439889
0.0429679
0.0420009
0.0410841
0.0402139
0.0393869
0.0385995
0.0378489
0.0371319
0.0364459
0.0357884
0.035157
0.0345496
0.0339643
0.0333993
0.032853
0.0323239
0.0318108
0.0313124
0.0308277
0.0303557
0.0298957
0.0294467
0.0290082
0.0285796
0.0281602
0.0277496
0.0273473
0.0269528
0.0265658
0.026186
0.025813
0.0254467
0.0250867
0.0247328
0.0243849
0.0240426
0.0237059
0.0233746
0.0230485
0.0227275
0.0224114
0.0221
0.0217932
0.021491
0.0211932
0.0208998
0.0206106
0.0203255
0.0200445
0.0197674
0.0194943
0.0192249
0.0189593
0.0186973
0.0184389
0.018184
0.0179325
0.0176844
0.0174396
0.0171981
0.0169599
0.0167248
0.0164927
0.0162637
0.0160377
0.0158146
0.0155944
0.015377
0.0151624
0.0149506
0.0147415
0.0145351
0.0143312
0.0141299
0.0139311
0.0137346
0.0135406
0.013349
0.0131597
0.0129727
0.0127881
0.0126058
0.0124256
0.0122477
0.0120719
0.0118982
0.0117265
0.0115569
0.0113892
0.0112236
0.0110599
0.0108981
0.0107383
0.0105804
0.0104242
0.0102699
0.0101173
0.00996638
0.00981715
0.00966958
0.00952366
0.00937937
0.0092367
0.00909562
0.00895612
0.00881816
0.00868171
0.00854673
0.0084132
0.00828111
0.00815044
0.00802118
0.00789332
0.00776683
0.0076417
0.00751788
0.00739536
0.00727408
0.00715403
0.00703519
0.00691754
0.00680107
0.00668575
0.0065716
0.00645857
0.00634665
0.00623582
0.00612606
0.00601733
0.00590961
0.0058029
0.00569718
0.00559243
0.00548864
0.00538579
0.00528386
0.00518283
0.00508267
0.00498337
0.00488491
0.00478728
0.00469046
0.00459444
0.0044992
0.00440473
0.00431101
0.00421801
0.00412574
0.00403418
0.00394331
0.00385312
0.0037636
0.00367475
0.00358654
0.00349897
0.00341202
0.00332568
0.00323992
0.00315474
0.0030701
0.002986
0.0029024
0.00281928
0.00273662
0.0026544
0.00257258
0.00249116
0.00241012
0.00232944
0.00224914
0.00216922
0.00208966
0.00201047
0.00193163
0.00185315
0.00177501
0.00169719
0.00161968
0.00154247
0.00146555
0.00138889
0.00131248
0.00123631
0.00116034
0.00108455
0.00100892
0.000933435
0.000858073
0.000782825
0.000707688
0.00063266
0.000557742
0.000482935
0.000408238
0.000333653
0.00025915
0.000184815
0.000110331
3.72946e-05
571.721
577.326
569.95
567.356
563.739
557.677
550.202
541.798
532.397
522.039
510.844
498.916
486.361
473.288
459.8
445.993
431.963
417.795
403.569
389.356
375.223
361.224
347.41
333.823
320.5
307.471
294.76
282.387
270.367
258.712
247.428
236.522
225.995
215.846
206.073
196.672
187.638
178.964
170.643
162.665
155.024
147.708
140.709
134.017
127.62
121.51
115.676
110.108
104.796
99.7293
94.8994
90.2963
85.9107
81.7334
77.7558
73.9691
70.3651
66.9358
63.6733
60.5701
57.6191
54.8132
52.1457
49.6102
47.2005
44.9106
42.7349
40.6678
38.7042
36.8391
35.0676
33.3852
31.7875
30.2704
28.8298
27.4619
26.1632
24.9302
23.7595
22.648
21.5928
20.591
19.6398
18.7367
17.8792
17.0651
16.2919
15.5577
14.8604
14.1981
13.569
12.9714
12.4035
11.8639
11.351
10.8634
10.3999
9.95908
9.5398
9.14091
8.76132
8.40001
8.05602
7.72843
7.41636
7.11899
6.83556
6.56532
6.30758
6.06168
5.82702
5.60299
5.38906
5.18469
4.9894
4.80272
4.62422
4.45348
4.29011
4.13374
3.98402
3.84063
3.70326
3.5716
3.44539
3.32436
3.20827
3.09687
2.98995
2.8873
2.78871
2.694
2.60299
2.51551
2.4314
2.3505
2.27267
2.19778
2.12568
2.05626
1.9894
1.92498
1.8629
1.80305
1.74534
1.68968
1.63597
1.58413
1.53409
1.48576
1.43908
1.39397
1.35037
1.30821
1.26744
1.228
1.18983
1.15289
1.11712
1.08247
1.04891
1.01638
0.984853
0.954285
0.92464
0.895884
0.867983
0.840905
0.81462
0.789101
0.764319
0.740249
0.716867
0.694149
0.672073
0.650618
0.629764
0.609492
0.589784
0.570623
0.551993
0.533878
0.516262
0.499134
0.482478
0.466282
0.450535
0.435225
0.42034
0.405871
0.391808
0.37814
0.364859
0.351957
0.339424
0.327254
0.315438
0.30397
0.292841
0.282046
0.271578
0.261431
0.251598
0.242074
0.232853
0.223929
0.215297
0.206952
0.198888
0.191101
0.183584
0.176334
0.169344
0.162611
0.156128
0.149892
0.143896
0.138136
0.132607
0.127303
0.122219
0.11735
0.11269
0.108233
0.103975
0.0999094
0.0960301
0.0923314
0.0888074
0.085452
0.0822592
0.079223
0.0763373
0.0735961
0.0709936
0.068524
0.0661815
0.0639606
0.061856
0.0598626
0.0579753
0.0561893
0.0545
0.0529027
0.051393
0.0499665
0.0486187
0.0473456
0.0461427
0.0450058
0.0439309
0.0429138
0.0419506
0.0410375
0.0401708
0.039347
0.0385628
0.0378151
0.0371008
0.0364173
0.0357621
0.0351329
0.0345274
0.0339439
0.0333805
0.0328356
0.0323079
0.031796
0.0312987
0.030815
0.0303438
0.0298845
0.0294363
0.0289984
0.0285704
0.0281515
0.0277413
0.0273394
0.0269453
0.0265586
0.0261791
0.0258064
0.0254403
0.0250806
0.0247269
0.0243792
0.0240371
0.0237006
0.0233694
0.0230435
0.0227226
0.0224066
0.0220953
0.0217887
0.0214866
0.0211889
0.0208955
0.0206064
0.0203214
0.0200405
0.0197635
0.0194904
0.0192211
0.0189556
0.0186937
0.0184353
0.0181805
0.0179291
0.0176811
0.0174364
0.0171949
0.0169567
0.0167217
0.0164897
0.0162608
0.0160348
0.0158117
0.0155915
0.0153742
0.0151597
0.0149479
0.0147389
0.0145325
0.0143287
0.0141274
0.0139286
0.0137322
0.0135382
0.0133466
0.0131573
0.0129704
0.0127859
0.0126036
0.0124235
0.0122456
0.0120698
0.0118961
0.0117245
0.0115548
0.0113872
0.0112216
0.011058
0.0108962
0.0107365
0.0105785
0.0104224
0.0102681
0.0101155
0.00996466
0.00981546
0.00966791
0.00952202
0.00937775
0.00923511
0.00909407
0.0089546
0.00881666
0.00868023
0.00854527
0.00841176
0.00827969
0.00814904
0.0080198
0.00789196
0.0077655
0.00764039
0.0075166
0.00739409
0.00727283
0.0071528
0.00703398
0.00691634
0.00679989
0.0066846
0.00657047
0.00645747
0.00634558
0.00623477
0.00612503
0.00601631
0.00590862
0.00580192
0.00569622
0.00559149
0.00548771
0.00538488
0.00528297
0.00518196
0.00508181
0.00498253
0.00488409
0.00478647
0.00468966
0.00459366
0.00449843
0.00440397
0.00431026
0.00421729
0.00412503
0.00403348
0.00394262
0.00385245
0.00376295
0.00367412
0.00358593
0.00349838
0.00341145
0.00332512
0.00323938
0.0031542
0.00306958
0.0029855
0.00290191
0.00281881
0.00273617
0.00265395
0.00257215
0.00249073
0.0024097
0.00232904
0.00224875
0.00216883
0.00208929
0.00201011
0.00193129
0.00185283
0.0017747
0.0016969
0.00161941
0.00154221
0.0014653
0.00138866
0.00131227
0.00123611
0.00116015
0.00108438
0.00100876
0.000933282
0.000857927
0.000782686
0.000707556
0.000632536
0.000557628
0.000482832
0.000408148
0.000333579
0.000259092
0.000184776
0.000110309
3.72884e-05
569.01
574.698
567.312
564.879
561.276
555.198
547.757
539.395
530.029
519.703
508.538
496.641
484.12
471.081
457.628
443.86
429.871
415.747
401.568
387.405
373.322
359.377
345.619
332.088
318.823
305.851
293.198
280.883
268.92
257.322
246.095
235.244
224.77
214.673
204.951
195.6
186.613
177.986
169.709
161.775
154.174
146.898
139.937
133.281
126.919
120.842
115.04
109.503
104.22
99.1813
94.378
89.8003
85.439
81.2849
77.3293
73.5637
69.9798
66.5696
63.3254
60.2396
57.3051
54.515
51.8625
49.3413
46.9452
44.6683
42.5048
40.4495
38.497
36.6425
34.881
33.2082
31.6196
30.1111
28.6787
27.3187
26.0274
24.8013
23.6373
22.5322
21.483
20.4869
19.5412
18.6433
17.7907
16.9811
16.2124
15.4824
14.7891
14.1306
13.505
12.9108
12.3461
11.8095
11.2996
10.8148
10.3538
9.91546
9.49851
9.10182
8.72433
8.365
8.02288
7.69705
7.38665
7.09086
6.80892
6.54009
6.28368
6.03904
5.80556
5.58265
5.36977
5.1664
4.97205
4.78626
4.60859
4.43864
4.27601
4.12035
3.9713
3.82853
3.69175
3.56066
3.43497
3.31445
3.19882
3.08787
2.98138
2.87913
2.78092
2.68657
2.5959
2.50875
2.42494
2.34434
2.26679
2.19215
2.12031
2.05113
1.98449
1.92029
1.85841
1.79876
1.74124
1.68575
1.63221
1.58054
1.53065
1.48246
1.43592
1.39094
1.34747
1.30543
1.26478
1.22545
1.18738
1.15054
1.11486
1.0803
1.04682
1.01438
0.982928
0.952434
0.92286
0.89417
0.866332
0.839314
0.813087
0.787622
0.762892
0.738871
0.715536
0.692862
0.670828
0.649413
0.628598
0.608362
0.588689
0.56956
0.550961
0.532875
0.515288
0.498186
0.481556
0.465385
0.44966
0.434372
0.419508
0.405059
0.391014
0.377365
0.364102
0.351216
0.338699
0.326544
0.314743
0.303289
0.292174
0.281392
0.270936
0.260801
0.25098
0.241467
0.232258
0.223345
0.214724
0.206389
0.198335
0.190558
0.183052
0.175811
0.168832
0.162109
0.155636
0.14941
0.143424
0.137675
0.132156
0.126863
0.12179
0.116931
0.112282
0.107837
0.103591
0.0995364
0.0956689
0.091982
0.08847
0.0851267
0.081946
0.0789218
0.076048
0.0733187
0.0707277
0.0682694
0.0659379
0.0637276
0.0616333
0.0596499
0.0577723
0.0559958
0.0543157
0.0527274
0.0512266
0.0498088
0.0484697
0.047205
0.0460106
0.044882
0.0438151
0.0428059
0.0418503
0.0409444
0.0400847
0.0392675
0.0384895
0.0377476
0.0370388
0.0363604
0.0357098
0.0350848
0.0344832
0.0339032
0.0333431
0.0328012
0.0322761
0.0317666
0.0312714
0.0307895
0.0303201
0.0298624
0.0294155
0.0289789
0.0285519
0.0281341
0.0277248
0.0273236
0.0269302
0.0265442
0.0261653
0.0257932
0.0254276
0.0250683
0.0247151
0.0243678
0.0240261
0.0236899
0.0233591
0.0230334
0.0227128
0.022397
0.0220859
0.0217795
0.0214776
0.0211801
0.020887
0.020598
0.0203132
0.0200325
0.0197557
0.0194828
0.0192136
0.0189482
0.0186865
0.0184283
0.0181735
0.0179223
0.0176744
0.0174298
0.0171885
0.0169504
0.0167155
0.0164837
0.0162548
0.016029
0.015806
0.0155859
0.0153687
0.0151543
0.0149426
0.0147336
0.0145273
0.0143236
0.0141224
0.0139236
0.0137273
0.0135334
0.0133419
0.0131527
0.0129659
0.0127814
0.0125991
0.0124191
0.0122413
0.0120656
0.0118919
0.0117204
0.0115508
0.0113832
0.0112177
0.0110541
0.0108925
0.0107327
0.0105749
0.0104188
0.0102646
0.0101121
0.00996123
0.00981208
0.00966459
0.00951874
0.00937454
0.00923195
0.00909097
0.00895154
0.00881365
0.00867727
0.00854235
0.00840888
0.00827685
0.00814624
0.00801704
0.00788924
0.00776283
0.00763776
0.007514
0.00739153
0.00727031
0.00715032
0.00703154
0.00691395
0.00679755
0.00668231
0.00656823
0.00645528
0.00634344
0.00623267
0.00612297
0.00601429
0.00590663
0.00579998
0.00569431
0.00558962
0.00548588
0.00538308
0.0052812
0.00518022
0.0050801
0.00498084
0.00488243
0.00478484
0.00468806
0.00459208
0.00449688
0.00440245
0.00430877
0.00421583
0.0041236
0.00403209
0.00394127
0.00385114
0.00376168
0.00367288
0.00358473
0.00349721
0.00341031
0.00332401
0.00323829
0.00315315
0.00306855
0.00298448
0.00290092
0.00281784
0.00273522
0.00265303
0.00257125
0.00248986
0.00240885
0.00232821
0.00224795
0.00216807
0.00208855
0.00200941
0.00193063
0.00185219
0.0017741
0.00169632
0.00161886
0.00154169
0.00146481
0.0013882
0.00131183
0.0012357
0.00115976
0.00108401
0.00100841
0.000932953
0.000857618
0.000782399
0.000707291
0.000632295
0.000557413
0.000482645
0.00040799
0.000333451
0.000258994
0.000184708
0.00011027
3.72755e-05
564.888
570.705
563.337
561.09
557.525
551.449
544.061
535.762
526.449
516.172
505.056
493.209
480.738
467.752
454.355
440.647
426.721
412.665
398.557
384.469
370.466
356.602
342.927
329.483
316.304
303.42
290.854
278.627
266.751
255.238
244.096
233.327
222.934
212.916
203.271
193.993
185.079
176.52
168.31
160.44
152.901
145.685
138.781
132.179
125.87
119.843
114.089
108.597
103.357
98.3608
93.5974
89.0578
84.7328
80.6135
76.691
72.9569
69.4031
66.0216
62.8046
59.7449
56.8352
54.0686
51.4386
48.9388
46.5631
44.3055
42.1605
40.1227
38.1869
36.3482
34.6018
32.9433
31.3683
29.8727
28.4526
27.1043
25.8241
24.6086
23.4546
22.3589
21.3188
20.3312
19.3936
18.5034
17.6581
16.8556
16.0934
15.3697
14.6823
14.0295
13.4093
12.8201
12.2603
11.7283
11.2226
10.7419
10.2849
9.85019
9.43673
9.04335
8.66898
8.31261
7.97328
7.6501
7.3422
7.04877
6.76906
6.50234
6.24792
6.00516
5.77345
5.55221
5.34091
5.13903
4.94608
4.76162
4.58521
4.41643
4.25492
4.10031
3.95225
3.81043
3.67453
3.54427
3.41938
3.2996
3.18469
3.07441
2.96854
2.86689
2.76926
2.67545
2.58529
2.49862
2.41528
2.33511
2.25797
2.18374
2.11227
2.04344
1.97715
1.91327
1.8517
1.79234
1.73509
1.67987
1.62658
1.57515
1.52549
1.47753
1.43119
1.38641
1.34313
1.30127
1.26079
1.22162
1.18371
1.14701
1.11148
1.07705
1.0437
1.01138
0.980047
0.949663
0.920193
0.891603
0.86386
0.836932
0.810791
0.785407
0.760755
0.736807
0.713542
0.690935
0.668964
0.647609
0.62685
0.606669
0.587047
0.567968
0.549415
0.531373
0.513828
0.496766
0.480174
0.464039
0.44835
0.433094
0.418262
0.403842
0.389826
0.376204
0.362966
0.350105
0.337613
0.32548
0.313701
0.302268
0.291173
0.280411
0.269974
0.259857
0.250054
0.240558
0.231365
0.222469
0.213863
0.205545
0.197507
0.189744
0.182253
0.175028
0.168064
0.161356
0.154898
0.148687
0.142717
0.136983
0.13148
0.126202
0.121145
0.116304
0.111671
0.107243
0.103014
0.0989768
0.0951268
0.0914579
0.0879639
0.0846387
0.0814761
0.0784701
0.0756143
0.0729027
0.0703292
0.0678878
0.0655728
0.0633785
0.0612997
0.0593312
0.0574681
0.0557057
0.0540394
0.0524646
0.050977
0.0495724
0.0482463
0.0469944
0.0458126
0.0446964
0.0436417
0.0426442
0.0417
0.0408052
0.0399559
0.0391487
0.0383801
0.037647
0.0369463
0.0362754
0.0356318
0.0350131
0.0344174
0.0338427
0.0332874
0.0327498
0.0322287
0.0317227
0.0312307
0.0307517
0.0302848
0.0298294
0.0293845
0.0289497
0.0285244
0.028108
0.0277
0.0273
0.0269077
0.0265227
0.0261446
0.0257734
0.0254086
0.02505
0.0246974
0.0243507
0.0240096
0.0236739
0.0233435
0.0230183
0.022698
0.0223826
0.0220719
0.0217658
0.0214642
0.021167
0.0208742
0.0205855
0.020301
0.0200205
0.019744
0.0194713
0.0192024
0.0189372
0.0186756
0.0184176
0.0181631
0.0179121
0.0176644
0.01742
0.0171789
0.016941
0.0167063
0.0164746
0.0162459
0.0160202
0.0157974
0.0155775
0.0153604
0.0151461
0.0149346
0.0147257
0.0145196
0.0143159
0.0141148
0.0139162
0.01372
0.0135262
0.0133348
0.0131457
0.012959
0.0127746
0.0125925
0.0124126
0.0122349
0.0120592
0.0118857
0.0117142
0.0115447
0.0113773
0.0112118
0.0110483
0.0108868
0.0107272
0.0105694
0.0104134
0.0102593
0.0101068
0.00995607
0.009807
0.0096596
0.00951384
0.00936972
0.00922722
0.00908631
0.00894696
0.00880914
0.00867282
0.00853797
0.00840456
0.00827259
0.00814204
0.00801291
0.00788518
0.00775882
0.0076338
0.00751011
0.00738769
0.00726653
0.0071466
0.00702789
0.00691037
0.00679404
0.00667889
0.00656488
0.006452
0.00634023
0.00622953
0.00611988
0.00601126
0.00590366
0.00579706
0.00569145
0.00558681
0.00548313
0.00538038
0.00527855
0.0051776
0.00507753
0.00497831
0.00487994
0.00478239
0.00468565
0.00458971
0.00449456
0.00440017
0.00430654
0.00421364
0.00412147
0.00403001
0.00393925
0.00384917
0.00375977
0.00367103
0.00358293
0.00349546
0.00340861
0.00332235
0.00323667
0.00315155
0.00306699
0.00298295
0.00289943
0.00281638
0.00273379
0.00265164
0.0025699
0.00248854
0.00240758
0.00232698
0.00224677
0.00216693
0.00208746
0.00200837
0.00192963
0.00185125
0.0017732
0.00169547
0.00161805
0.00154092
0.00146408
0.00138751
0.00131118
0.00123508
0.00115917
0.00108345
0.00100788
0.000932456
0.000857153
0.000781968
0.000706896
0.000631939
0.000557098
0.000482372
0.000407761
0.000333265
0.000258852
0.000184608
0.000110211
3.72558e-05
559.289
565.282
557.971
555.933
552.434
546.386
539.074
530.861
521.623
511.416
500.369
488.592
476.192
463.28
449.961
436.336
422.498
408.535
394.526
380.541
366.645
352.893
339.331
326.003
312.941
300.175
287.728
275.618
263.859
252.462
241.432
230.774
220.489
210.577
201.033
191.855
183.036
174.57
166.449
158.665
151.208
144.071
137.242
130.713
124.474
118.513
112.823
107.392
102.211
97.2698
92.5595
88.0706
83.7939
79.7207
75.8422
72.1501
68.6363
65.2929
62.1123
59.0871
56.2104
53.4752
50.8751
48.4038
46.0551
43.8233
41.7028
39.6883
37.7746
35.957
34.2307
32.5912
31.0343
29.5559
28.1522
26.8193
25.5538
24.3523
23.2116
22.1286
21.1004
20.1243
19.1975
18.3175
17.482
16.6887
15.9353
15.2199
14.5405
13.8951
13.282
12.6996
12.1462
11.6203
11.1204
10.6451
10.1932
9.76347
9.35465
8.96566
8.59544
8.243
7.90739
7.58772
7.28315
6.99286
6.71611
6.45219
6.20041
5.96015
5.73079
5.51178
5.30257
5.10267
4.91159
4.72889
4.55413
4.38693
4.2269
4.07368
3.92694
3.78636
3.65164
3.5225
3.39866
3.27987
3.1659
3.05651
2.95149
2.85063
2.75375
2.66066
2.57118
2.48516
2.40243
2.32284
2.24626
2.17254
2.10157
2.03322
1.96738
1.90393
1.84277
1.7838
1.72692
1.67205
1.6191
1.56799
1.51863
1.47096
1.4249
1.38039
1.33735
1.29574
1.25548
1.21653
1.17883
1.14233
1.10698
1.07274
1.03955
1.00739
0.976213
0.945976
0.916646
0.888188
0.860571
0.833763
0.807736
0.78246
0.757911
0.734061
0.710889
0.68837
0.666483
0.645208
0.624525
0.604416
0.584862
0.565848
0.547357
0.529374
0.511885
0.494876
0.478335
0.462248
0.446604
0.431392
0.416601
0.402222
0.388243
0.374657
0.361454
0.348626
0.336165
0.324063
0.312313
0.300908
0.28984
0.279103
0.268692
0.258599
0.248819
0.239347
0.230176
0.221301
0.212717
0.204419
0.196402
0.18866
0.181189
0.173984
0.16704
0.160351
0.153914
0.147723
0.141774
0.13606
0.130578
0.125322
0.120286
0.115466
0.110856
0.106451
0.102244
0.0982302
0.0944039
0.0907588
0.0872889
0.083988
0.0808498
0.077868
0.0750364
0.0723486
0.0697984
0.0673797
0.0650867
0.0629138
0.0608556
0.058907
0.0570632
0.0553195
0.0536714
0.0521145
0.0506446
0.0492574
0.0479485
0.0467138
0.0455488
0.0444493
0.0434108
0.0424292
0.0415004
0.0406203
0.0397851
0.0389912
0.0382351
0.0375137
0.0368239
0.0361631
0.0355287
0.0349185
0.0343305
0.0337628
0.0332138
0.032682
0.0321661
0.0316647
0.0311769
0.0307016
0.0302381
0.0297856
0.0293435
0.0289111
0.0284879
0.0280734
0.0276671
0.0272687
0.0268778
0.0264941
0.0261173
0.0257471
0.0253833
0.0250257
0.024674
0.024328
0.0239876
0.0236526
0.0233228
0.0229981
0.0226784
0.0223635
0.0220532
0.0217475
0.0214464
0.0211496
0.0208571
0.0205689
0.0202847
0.0200046
0.0197284
0.019456
0.0191874
0.0189225
0.0186612
0.0184035
0.0181493
0.0178985
0.017651
0.0174069
0.0171661
0.0169285
0.016694
0.0164625
0.0162341
0.0160086
0.015786
0.0155663
0.0153494
0.0151353
0.0149239
0.0147152
0.0145092
0.0143057
0.0141048
0.0139063
0.0137102
0.0135166
0.0133253
0.0131364
0.0129499
0.0127656
0.0125837
0.0124039
0.0122263
0.0120508
0.0118774
0.011706
0.0115367
0.0113694
0.011204
0.0110407
0.0108792
0.0107197
0.0105621
0.0104062
0.0102522
0.0100998
0.0099492
0.00980024
0.00965295
0.00950731
0.0093633
0.00922091
0.0090801
0.00894085
0.00880312
0.00866689
0.00853212
0.0083988
0.00826692
0.00813646
0.00800741
0.00787975
0.00775347
0.00762853
0.00750491
0.00738257
0.00726149
0.00714165
0.00702303
0.00690561
0.00678938
0.00667432
0.00656041
0.00644763
0.00633594
0.00622533
0.00611576
0.00600722
0.0058997
0.00579318
0.00568764
0.00558307
0.00547946
0.00537677
0.005275
0.00517412
0.0050741
0.00497494
0.00487662
0.00477912
0.00468244
0.00458656
0.00449146
0.00439713
0.00430356
0.00421073
0.00411863
0.00402724
0.00393656
0.00384656
0.00375724
0.00366857
0.00358054
0.00349313
0.00340633
0.00332012
0.00323449
0.00314943
0.0030649
0.00298091
0.00289743
0.00281443
0.00273189
0.00264978
0.00256809
0.00248679
0.00240588
0.00232535
0.00224519
0.00216541
0.00208601
0.00200698
0.00192831
0.00184998
0.001772
0.00169433
0.00161697
0.0015399
0.00146311
0.00138658
0.0013103
0.00123424
0.00115838
0.0010827
0.00100718
0.000931791
0.000856533
0.000781395
0.000706374
0.00063147
0.000556683
0.000482014
0.00040746
0.000333022
0.000258666
0.000184477
0.000110133
3.72299e-05
552.119
558.336
551.135
549.334
545.933
539.947
532.74
524.639
515.503
505.392
494.439
482.754
470.45
457.637
444.422
430.905
417.183
403.341
389.46
375.609
361.851
348.24
334.825
321.644
308.732
296.116
283.818
271.857
260.245
248.993
238.105
227.587
217.438
207.657
198.242
189.188
180.489
172.139
164.129
156.452
149.098
142.059
135.325
128.887
122.734
116.857
111.246
105.891
100.782
95.9107
91.2666
86.8409
82.6245
78.6088
74.7851
71.1453
67.6814
64.3854
61.2501
58.2681
55.4324
52.7363
50.1734
47.7375
45.4225
43.2228
41.1329
39.1474
37.2614
35.47
33.7686
32.1529
30.6185
29.1615
27.7781
26.4646
25.2175
24.0334
22.9092
21.842
20.8287
19.8667
18.9533
18.0862
17.2628
16.481
15.7385
15.0335
14.3639
13.7279
13.1237
12.5497
12.0042
11.4858
10.9931
10.5247
10.0792
9.65556
9.25251
8.86899
8.50394
8.1564
7.82542
7.51012
7.20968
6.9233
6.65024
6.3898
6.14131
5.90415
5.67772
5.46147
5.25487
5.05743
4.86867
4.68816
4.51547
4.35022
4.19203
4.04055
3.89545
3.75642
3.62316
3.49539
3.37286
3.25531
3.1425
3.03422
2.93025
2.83039
2.73444
2.64224
2.55361
2.46839
2.38642
2.30756
2.23166
2.1586
2.08825
2.02049
1.95521
1.89229
1.83164
1.77316
1.71674
1.66231
1.60978
1.55906
1.51009
1.46278
1.41706
1.37288
1.33016
1.28884
1.24887
1.21019
1.17274
1.13649
1.10137
1.06735
1.03438
1.00242
0.971436
0.941381
0.912224
0.883932
0.856471
0.829813
0.803927
0.778787
0.754365
0.730638
0.707581
0.685172
0.66339
0.642214
0.621626
0.601606
0.582138
0.563205
0.544791
0.526881
0.509462
0.492519
0.47604
0.460013
0.444426
0.429269
0.41453
0.4002
0.386268
0.372727
0.359567
0.34678
0.334359
0.322294
0.31058
0.299209
0.288175
0.277471
0.26709
0.257028
0.247277
0.237833
0.22869
0.219842
0.211285
0.203013
0.195021
0.187305
0.179859
0.172679
0.165759
0.159096
0.152684
0.146518
0.140594
0.134906
0.12945
0.12422
0.119212
0.114419
0.109836
0.105459
0.101281
0.0972965
0.0934998
0.0898847
0.0864451
0.0831747
0.0800671
0.0771159
0.0743146
0.0716567
0.0691358
0.0667457
0.0644804
0.0623342
0.0603017
0.058378
0.0565581
0.0548376
0.0532121
0.0516775
0.0502295
0.0488639
0.0475767
0.0463633
0.0452196
0.0441409
0.043123
0.0421614
0.0412519
0.0403904
0.0395729
0.0387957
0.0380554
0.0373487
0.0366725
0.0360242
0.0354013
0.0348017
0.0342232
0.0336642
0.0331231
0.0325984
0.0320888
0.0315931
0.0311104
0.0306397
0.0301804
0.0297315
0.0292927
0.0288632
0.0284427
0.0280305
0.0276264
0.0272299
0.0268407
0.0264586
0.0260833
0.0257145
0.0253519
0.0249954
0.0246447
0.0242997
0.0239602
0.023626
0.023297
0.022973
0.0226539
0.0223396
0.0220299
0.0217248
0.0214241
0.0211279
0.0208359
0.0205481
0.0202644
0.0199847
0.0197089
0.0194369
0.0191687
0.0189042
0.0186433
0.0183859
0.018132
0.0178815
0.0176344
0.0173906
0.0171501
0.0169128
0.0166786
0.0164474
0.0162193
0.015994
0.0157717
0.0155522
0.0153356
0.0151217
0.0149105
0.0147021
0.0144962
0.014293
0.0140922
0.0138939
0.013698
0.0135046
0.0133135
0.0131248
0.0129385
0.0127544
0.0125726
0.012393
0.0122156
0.0120402
0.011867
0.0116958
0.0115266
0.0113595
0.0111943
0.0110311
0.0108698
0.0107104
0.0105529
0.0103972
0.0102433
0.0100911
0.00994061
0.0097918
0.00964465
0.00949915
0.00935527
0.00921301
0.00907233
0.0089332
0.00879559
0.00865947
0.00852482
0.00839161
0.00825983
0.00812947
0.00800053
0.00787297
0.00774679
0.00762195
0.00749842
0.00737618
0.0072552
0.00713547
0.00701696
0.00689967
0.00678356
0.00666863
0.00655484
0.00644217
0.00633059
0.00622008
0.00611061
0.00600217
0.00589475
0.00578832
0.00568287
0.00557839
0.00547486
0.00537226
0.00527056
0.00516975
0.00506981
0.00497072
0.00487247
0.00477504
0.00467843
0.00458262
0.00448759
0.00439334
0.00429984
0.0042071
0.00411508
0.00402379
0.0039332
0.0038433
0.00375407
0.00366549
0.00357754
0.00349021
0.00340349
0.00331734
0.00323177
0.00314676
0.0030623
0.00297836
0.00289493
0.00281199
0.00272951
0.00264747
0.00256584
0.00248461
0.00240377
0.00232331
0.00224323
0.00216353
0.0020842
0.00200525
0.00192666
0.00184841
0.0017705
0.0016929
0.00161561
0.00153861
0.00146188
0.00138542
0.0013092
0.00123319
0.00115739
0.00108176
0.00100629
0.00093096
0.00085576
0.000780683
0.000705726
0.000630889
0.000556171
0.000481573
0.00040709
0.000332723
0.000258436
0.000184315
0.000110037
3.71978e-05
543.254
549.746
542.72
541.197
537.934
532.05
524.984
517.03
508.028
498.043
487.213
475.652
463.471
450.786
437.704
424.327
410.751
397.063
383.341
369.657
356.07
342.636
329.4
316.401
303.672
291.239
279.124
267.344
255.91
244.834
234.118
223.768
213.783
204.162
194.901
185.996
177.442
169.23
161.354
153.805
146.575
139.654
133.034
126.704
120.655
114.877
109.361
104.097
99.0754
94.2867
89.7218
85.3716
81.2273
77.2803
73.5223
69.945
66.5406
63.3015
60.2202
57.2897
54.5031
51.8538
49.3354
46.9418
44.6671
42.5057
40.4523
38.5015
36.6485
34.8884
33.2169
31.6295
30.122
28.6906
27.3315
26.0411
24.8158
23.6526
22.5482
21.4997
20.5042
19.5592
18.6619
17.8099
17.001
16.233
15.5036
14.811
14.1531
13.5282
12.9346
12.3707
11.8347
11.3254
10.8412
10.3809
9.94316
9.52678
9.13063
8.75363
8.39476
8.05306
7.7276
7.41753
7.12202
6.8403
6.57164
6.31536
6.07079
5.83733
5.6144
5.40145
5.19796
5.00345
4.81746
4.63956
4.46934
4.30641
4.15041
4.001
3.85785
3.72067
3.58915
3.46304
3.34206
3.22598
3.11457
3.00761
2.90488
2.8062
2.71138
2.62025
2.53263
2.44836
2.3673
2.2893
2.21422
2.14194
2.07233
2.00528
1.94067
1.87839
1.81834
1.76044
1.70457
1.65067
1.59864
1.5484
1.49988
1.453
1.4077
1.3639
1.32155
1.28059
1.24096
1.2026
1.16547
1.12951
1.09467
1.06092
1.0282
0.996482
0.965723
0.935886
0.906937
0.878842
0.851569
0.825089
0.799373
0.774394
0.750125
0.726544
0.703625
0.681347
0.65969
0.638633
0.618157
0.598244
0.578878
0.560041
0.541719
0.523897
0.506561
0.489697
0.473293
0.457338
0.441819
0.426727
0.412049
0.397778
0.383903
0.370415
0.357307
0.344569
0.332194
0.320175
0.308504
0.297175
0.28618
0.275514
0.265171
0.255144
0.245429
0.236018
0.226908
0.218093
0.209567
0.201326
0.193365
0.185679
0.178263
0.171112
0.164223
0.157589
0.151207
0.145072
0.139178
0.133521
0.128096
0.122898
0.117921
0.113161
0.108612
0.104268
0.100125
0.0961752
0.092414
0.0888351
0.085432
0.0821985
0.079128
0.0762138
0.0734493
0.0708276
0.0683422
0.0659866
0.0637547
0.0616406
0.059639
0.0577449
0.0559535
0.0542606
0.052662
0.0511537
0.0497318
0.0483922
0.0471308
0.0459432
0.044825
0.0437717
0.0427787
0.0418413
0.0409553
0.0401163
0.0393203
0.0385634
0.037842
0.0371529
0.036493
0.0358598
0.0352507
0.0346635
0.0340964
0.0335477
0.0330159
0.0324995
0.0319974
0.0315084
0.0310317
0.0305665
0.0301119
0.0296674
0.0292324
0.0288064
0.0283889
0.0279795
0.0275779
0.0271837
0.0267966
0.0264164
0.0260428
0.0256756
0.0253145
0.0249592
0.0246098
0.0242659
0.0239274
0.0235941
0.023266
0.0229429
0.0226246
0.022311
0.022002
0.0216975
0.0213975
0.0211019
0.0208105
0.0205233
0.0202401
0.0199609
0.0196856
0.0194141
0.0191463
0.0188823
0.0186218
0.0183648
0.0181113
0.0178613
0.0176145
0.0173711
0.017131
0.016894
0.0166601
0.0164293
0.0162015
0.0159766
0.0157546
0.0155354
0.015319
0.0151054
0.0148945
0.0146863
0.0144807
0.0142777
0.0140771
0.0138791
0.0136834
0.0134902
0.0132994
0.0131109
0.0129248
0.0127409
0.0125593
0.01238
0.0122027
0.0120276
0.0118545
0.0116835
0.0115145
0.0113476
0.0111826
0.0110196
0.0108585
0.0106993
0.010542
0.0103864
0.0102327
0.0100806
0.00993031
0.00978166
0.00963468
0.00948935
0.00934564
0.00920353
0.009063
0.00892402
0.00878655
0.00865057
0.00851605
0.00838297
0.00825133
0.0081211
0.00799228
0.00786484
0.00773878
0.00761405
0.00749064
0.00736852
0.00724767
0.00712807
0.0070097
0.00689255
0.00677659
0.0066618
0.00654815
0.00643562
0.00632417
0.00621378
0.00610443
0.00599611
0.00588879
0.00578248
0.00567714
0.00557276
0.00546933
0.00536683
0.00526523
0.00516451
0.00506465
0.00496565
0.00486749
0.00477015
0.00467362
0.0045779
0.00448296
0.0043888
0.0042954
0.00420275
0.00411084
0.00401965
0.00392917
0.00383938
0.00375026
0.00366179
0.00357394
0.00348671
0.00340006
0.003314
0.0032285
0.00314356
0.00305916
0.00297529
0.00289193
0.00280906
0.00272665
0.00264469
0.00256314
0.00248199
0.00240124
0.00232087
0.00224088
0.00216127
0.00208204
0.00200318
0.00192468
0.00184652
0.0017687
0.00169119
0.00161398
0.00153706
0.00146041
0.00138402
0.00130787
0.00123193
0.00115619
0.00108063
0.00100523
0.000929964
0.000854836
0.000779834
0.000704955
0.000630199
0.000555564