/*--------------------------------*- C++ -*----------------------------------*\
| =========                 |                                                 |
| \\      /  F ield         | OpenFOAM: The Open Source CFD Toolbox           |
|  \\    /   O peration     | Version:  v2006                                 |
|   \\  /    A nd           | Website:  www.openfoam.com                      |
|    \\/     M anipulation  |                                                 |
\*---------------------------------------------------------------------------*/
FoamFile
{
    version     2.0;
    format      ascii;
    class       volScalarField;
    location    "0";
    object      f;
}
// * * * * * * * * * * * * * * * * * * * * * * * * * * * * * * * * * * * * * //

dimensions      [0 0 0 0 0 0 0];


internalField   nonuniform List<scalar> 
2500
(
-2.72339e-09
-3.09707e-09
1.38678e-08
1.26215e-08
-3.42926e-08
-4.85764e-08
6.28802e-08
1.07783e-07
-1.67853e-08
-2.6658e-07
-4.40051e-07
-3.17113e-08
9.66419e-07
-7.40168e-07
-7.36417e-06
-1.36699e-05
-1.1782e-05
1.29237e-05
2.28331e-05
1.51777e-05
-3.13091e-05
-3.26254e-05
-1.82455e-05
-7.79985e-06
-2.36946e-06
-3.01263e-07
5.80336e-09
4.21194e-09
1.30726e-10
-1.41351e-10
-2.43402e-11
-8.52142e-11
1.31765e-09
1.96442e-10
9.8887e-13
-1.43919e-13
-8.51216e-14
-2.20492e-14
5.98077e-15
1.56043e-14
7.46873e-15
9.91719e-16
-9.80355e-16
-5.45212e-16
-1.79407e-16
-4.70684e-17
-8.52822e-18
3.90809e-19
1.44975e-18
1.51111e-18
-4.95866e-09
1.6069e-08
2.38305e-08
-5.49453e-08
-7.24458e-08
3.97774e-08
3.30159e-07
-2.39679e-08
-4.71861e-07
-3.37149e-07
-2.52448e-07
1.92848e-07
7.95503e-07
-1.97665e-06
-7.91936e-06
-1.54386e-05
3.70931e-05
5.44019e-05
1.27679e-05
-0.000129041
-0.000127874
-4.99156e-05
-1.73537e-05
-3.95458e-06
4.21064e-07
2.76931e-07
2.7087e-07
1.16814e-07
7.76365e-09
2.61105e-08
1.19514e-08
8.46327e-08
8.07905e-09
3.50634e-11
-7.01296e-13
-4.45566e-13
-1.312e-13
5.20835e-14
1.47636e-13
7.28035e-14
1.33902e-14
-8.22179e-15
-4.43913e-15
-7.60301e-16
-2.36122e-17
4.87311e-17
3.19751e-17
1.52977e-17
6.51372e-18
3.57488e-18
3.19134e-09
8.69025e-08
-1.69614e-08
-3.95742e-07
-9.46902e-08
1.186e-06
7.61856e-07
-2.9875e-06
-1.85876e-06
3.33831e-06
6.90252e-06
2.80817e-06
8.67925e-07
-5.31364e-06
5.55856e-05
0.000283216
0.000384784
0.000122715
-0.000483439
-0.000750146
-0.000270529
0.000388481
0.00164615
0.00293247
0.00355059
0.00343336
0.00278786
0.0018927
0.00105666
0.000460996
0.000133451
1.1314e-05
-5.7369e-10
-7.31403e-11
-1.05597e-12
-5.41107e-13
6.5166e-13
1.31256e-12
6.89943e-13
1.483e-13
-1.01419e-13
-7.09542e-14
-1.40897e-14
-2.11286e-17
5.79522e-16
2.46047e-16
8.86626e-17
3.09643e-17
1.05724e-17
4.63015e-18
9.94494e-08
2.97826e-07
-5.83251e-07
-1.52079e-06
1.69695e-06
5.07697e-06
-2.17706e-06
-1.36574e-05
-3.38316e-06
3.24153e-05
3.41416e-05
7.29103e-06
2.8993e-05
0.000400663
0.00125202
0.00190056
0.00152246
-0.000216126
-0.00219597
-0.00236683
0.000314613
0.00733879
0.0163692
0.0238059
0.0263868
0.0245306
0.0194083
0.0129444
0.00711371
0.00303704
0.000838869
5.84806e-05
2.17625e-10
3.21766e-12
-1.04434e-12
9.58415e-12
1.1427e-11
5.84776e-12
1.34236e-12
-1.05532e-12
-8.75922e-13
-2.32972e-13
-1.34436e-14
8.20463e-15
2.75198e-15
5.31298e-16
1.30978e-16
3.48924e-17
8.9825e-18
2.49059e-18
3.37494e-07
6.67942e-07
-2.15987e-06
-3.46492e-06
7.00879e-06
1.28679e-05
-1.41276e-05
-3.85308e-05
2.14547e-05
0.000106584
7.37671e-05
-4.49151e-06
0.000553205
0.00234103
0.00478299
0.00578961
0.00373123
-0.00139638
-0.00602467
-0.00514186
0.00607609
0.0280394
0.0545296
0.0752867
0.0813808
0.074836
0.0588183
0.0390449
0.0213642
0.00906334
0.00246788
0.000161554
3.71886e-09
3.15594e-11
6.0491e-11
7.47261e-11
4.28875e-11
1.10485e-11
-9.98521e-12
-9.51534e-12
-3.00288e-12
-2.87354e-13
9.41587e-14
3.84642e-14
4.58473e-15
2.21986e-16
2.4157e-17
-6.25768e-18
-6.93809e-18
-5.508e-18
7.83926e-07
1.18514e-06
-5.38449e-06
-5.88413e-06
1.81227e-05
2.46198e-05
-4.36712e-05
-7.44389e-05
8.84129e-05
0.00023931
7.93495e-05
0.000126899
0.00195229
0.00646677
0.0115995
0.0126307
0.00701537
-0.00418056
-0.0127241
-0.00773023
0.0194109
0.0682584
0.125202
0.168689
0.180273
0.16499
0.129296
0.0856549
0.0467724
0.0197766
0.00534216
0.00033727
3.83599e-08
6.51775e-10
3.18373e-10
2.06455e-10
7.25928e-11
-6.47464e-11
-9.41576e-11
-3.42881e-11
-4.19862e-12
8.58454e-13
4.07874e-13
6.67332e-14
-1.1407e-15
-6.86995e-16
-2.70949e-16
-1.00637e-16
-3.721e-17
-1.7943e-17
1.4476e-06
1.71914e-06
-1.01369e-05
-8.29592e-06
3.50945e-05
3.8578e-05
-9.53093e-05
-0.000113316
0.000215569
0.000419912
5.82794e-05
0.000392581
0.00438675
0.0130994
0.0218534
0.0222774
0.0108237
-0.00908341
-0.0217129
-0.00928194
0.0421944
0.130501
0.231335
0.307173
0.326162
0.297766
0.232995
0.15418
0.0840766
0.0354582
0.00951537
0.00058245
7.81584e-08
1.8915e-09
8.25828e-10
3.13013e-10
-4.96105e-10
-8.66769e-10
-3.492e-10
-5.02493e-11
6.74988e-12
3.70744e-12
8.0176e-13
2.21791e-14
-5.57498e-15
-2.28461e-15
-5.9761e-16
-1.82033e-16
-5.96847e-17
-2.52008e-17
2.25979e-06
2.1333e-06
-1.60461e-05
-9.89997e-06
5.59017e-05
5.17975e-05
-0.000160608
-0.000149175
0.000387628
0.000624894
1.46988e-05
0.000828638
0.00771626
0.0216227
0.034146
0.0332529
0.0140353
-0.0158489
-0.0318842
-0.00867108
0.0734186
0.209744
0.363452
0.478046
0.505739
0.461059
0.360449
0.238323
0.129785
0.0545816
0.0145409
0.000859436
-8.7399e-09
-8.90647e-10
1.37979e-09
-5.7441e-09
-8.41901e-09
-3.54663e-09
-5.44724e-10
4.64886e-11
2.99616e-11
8.89494e-12
7.62939e-13
-5.18606e-14
-2.48023e-14
-4.26882e-15
-5.41944e-16
-1.4139e-16
-4.15899e-17
-1.40517e-17
3.05163e-06
2.31958e-06
-2.18143e-05
-1.04534e-05
7.65164e-05
6.10328e-05
-0.000226442
-0.000174674
0.000569949
0.000817088
-3.35237e-05
0.00136824
0.0112708
0.0301463
0.0456779
0.0425798
0.0154259
-0.0234817
-0.0412977
-0.00601289
0.10722
0.291344
0.497388
0.650443
0.686733
0.625606
0.488775
0.322861
0.175504
0.0735339
0.0194069
0.001096
6.45677e-09
-2.88143e-08
-9.41949e-08
-8.54808e-08
-3.62427e-08
-6.27097e-09
2.34744e-10
2.13136e-10
8.61687e-11
1.297e-11
-3.36377e-13
-2.14648e-13
-5.44616e-14
-3.20149e-15
1.46014e-16
7.16971e-17
3.17665e-17
2.02378e-17
3.60178e-06
2.33939e-06
-2.59052e-05
-1.03134e-05
9.17132e-05
6.47091e-05
-0.000274146
-0.000187989
0.000705695
0.000949006
-5.27443e-05
0.0018523
0.0139426
0.0359838
0.0527167
0.0472128
0.0142185
-0.0303422
-0.0479199
-0.00256989
0.134338
0.354276
0.599669
0.782041
0.8251
0.751389
0.586633
0.386968
0.209802
0.087456
0.0227916
0.00120981
-8.18518e-07
-1.03397e-06
-7.69914e-07
-3.49844e-07
-7.63731e-08
-1.62884e-09
1.27331e-09
7.22321e-10
1.62328e-10
4.02139e-12
-1.22609e-12
-5.68643e-13
-7.60212e-14
1.83965e-15
9.80393e-16
3.59981e-16
1.27278e-16
6.21752e-17
3.74138e-06
2.28449e-06
-2.70656e-05
-9.88931e-06
9.64738e-05
6.39877e-05
-0.000288538
-0.000191417
0.000747206
0.000991418
-3.915e-06
0.0020949
0.014654
0.0368762
0.0528358
0.0457981
0.0104918
-0.034587
-0.0504405
-0.000533351
0.145679
0.37982
0.641476
0.836615
0.88296
0.803918
0.627026
0.412771
0.22295
0.0922664
0.0235959
0.00113358
-5.11372e-06
-4.57498e-06
-2.52466e-06
-8.06112e-07
-8.42809e-08
6.7805e-09
4.70728e-09
1.49266e-09
1.28956e-10
-9.61907e-12
-5.11443e-12
-1.01816e-12
-5.34388e-15
6.76186e-15
2.45087e-15
5.98836e-16
1.79953e-16
7.97236e-17
3.37084e-06
2.17364e-06
-2.4249e-05
-9.34027e-06
8.69943e-05
5.93398e-05
-0.000257664
-0.000186937
0.000653783
0.000925247
0.000129205
0.00201431
0.0125562
0.0307914
0.0430178
0.035449
0.00466387
-0.0350024
-0.0485045
-0.00169503
0.135423
0.357061
0.607283
0.795225
0.840644
0.765036
0.595354
0.390037
0.208947
0.0851806
0.0209882
0.000817246
-1.64054e-05
-1.2908e-05
-5.55649e-06
-1.19017e-06
-7.06885e-10
2.32493e-08
1.09867e-08
2.02354e-09
-4.6261e-11
-3.877e-11
-1.1634e-11
-7.87846e-13
6.44515e-14
2.8216e-14
4.11188e-15
4.35001e-16
1.08647e-16
4.11205e-17
2.4519e-06
2.03539e-06
-1.68999e-05
-9.08569e-06
6.13865e-05
4.97822e-05
-0.000176041
-0.000169011
0.000407093
0.000732736
0.000336809
0.00135435
0.00742442
0.0180892
0.0253036
0.0203022
-0.000762859
-0.0296377
-0.041479
-0.00794562
0.0977863
0.274639
0.478191
0.632982
0.671178
0.609889
0.472082
0.306382
0.16163
0.0641089
0.0147497
0.000348729
-4.40469e-05
-2.76792e-05
-8.65663e-06
-8.82101e-07
1.09159e-07
6.85914e-08
1.81142e-08
9.51425e-10
-2.05763e-10
-9.83647e-11
-1.56592e-11
5.02577e-13
2.74378e-13
5.76598e-14
1.58662e-15
-2.48578e-16
-1.18467e-16
-6.24549e-17
1.25651e-06
1.81025e-06
-7.62206e-06
-8.50573e-06
2.78905e-05
3.81173e-05
-7.14591e-05
-0.000135692
0.000112401
0.000468888
0.000462054
0.000432295
0.00139995
0.00402651
0.00676033
0.00561882
-0.00359128
-0.0199853
-0.031342
-0.0162556
0.046993
0.161973
0.299131
0.40497
0.431374
0.390265
0.298519
0.189905
0.097052
0.0363136
0.0071059
-9.08071e-05
-0.000105433
-4.3105e-05
-8.77222e-06
2.82242e-07
3.54971e-07
1.37201e-07
1.64038e-08
-1.231e-09
-6.66726e-10
-1.41487e-10
-5.34438e-13
1.43597e-12
5.80158e-13
6.49906e-14
-2.10804e-15
-1.08171e-15
-3.89178e-16
-1.78653e-16
1.33623e-07
1.34546e-06
7.66807e-07
-6.65955e-06
-3.33609e-06
2.44006e-05
1.65561e-05
-8.43807e-05
-0.000109796
0.000169637
0.000470266
-0.000335117
-0.00305754
-0.00615687
-0.00636975
-0.00379952
-0.00277098
-0.00884937
-0.0200644
-0.0217316
0.00160131
0.0560278
0.125958
0.180831
0.194084
0.173002
0.127806
0.0766671
0.0354715
0.0106615
0.000637699
-0.000391799
-0.00019662
-4.55393e-05
-6.97286e-07
1.60875e-06
8.41486e-07
1.74441e-07
-9.00012e-10
-2.74913e-09
-9.884e-10
-8.10868e-11
7.08266e-12
3.83478e-12
8.11383e-13
5.62352e-15
-6.68822e-15
-2.20049e-15
-5.5074e-16
-2.22484e-16
-6.13768e-07
6.12434e-07
5.42119e-06
-2.72485e-06
-2.1897e-05
7.7935e-06
6.44384e-05
-2.19817e-05
-0.000205113
-5.90519e-05
0.000314717
-0.000663575
-0.00456833
-0.00976445
-0.0110357
-0.00645347
0.000121436
0.000107161
-0.00912579
-0.0214416
-0.0246557
-0.0150058
0.00259592
0.0168375
0.0191534
0.0133876
0.00383844
-0.00391035
-0.00697013
-0.00591584
-0.00284056
-0.000919221
-0.000173427
4.15581e-06
7.21283e-06
3.87355e-06
1.0036e-06
4.6965e-08
-9.84174e-09
-4.81055e-09
-9.15584e-10
2.55782e-11
2.02781e-11
5.91106e-12
3.61053e-13
-6.06325e-14
-2.10269e-14
-2.54461e-15
-3.0782e-16
-1.17961e-16
-8.09601e-07
-2.26209e-07
5.92987e-06
1.67358e-06
-2.47024e-05
-8.39017e-06
6.88549e-05
3.03127e-05
-0.000175877
-0.000176269
8.57737e-05
-0.000521763
-0.00343157
-0.00751109
-0.00855077
-0.00435994
0.00247278
0.00496586
-0.000600496
-0.0136317
-0.029018
-0.0426923
-0.0548707
-0.0643218
-0.0678646
-0.0650245
-0.0550153
-0.0399491
-0.0242505
-0.0115696
-0.0040286
-0.000766625
3.59961e-05
2.89742e-05
1.396e-05
4.19584e-06
3.67706e-07
-5.53349e-08
-2.4251e-08
-4.92393e-09
-6.60477e-11
6.84582e-11
3.25434e-11
4.46055e-12
-6.0754e-13
-2.24923e-13
-2.5777e-14
1.44191e-15
4.16964e-16
1.24364e-16
-4.88524e-07
-9.38251e-07
3.31723e-06
4.89366e-06
-1.48868e-05
-1.8703e-05
3.75747e-05
5.97935e-05
-5.8241e-05
-0.000187652
-0.00012286
-0.000125422
-0.00086884
-0.00221972
-0.00264688
-0.000827344
0.00295274
0.00576457
0.00445437
-0.00304065
-0.0176216
-0.0378235
-0.0588374
-0.0748953
-0.0797512
-0.0738724
-0.0590543
-0.0400413
-0.02223
-0.00958262
-0.00273421
-0.000146837
5.31895e-05
3.53942e-05
1.34e-05
1.99486e-06
-2.94249e-07
-1.29275e-07
-2.35046e-08
9.17916e-10
4.62984e-10
1.34768e-10
1.99663e-11
-4.53157e-12
-1.87164e-12
-2.51534e-13
1.93149e-14
6.07269e-15
9.02525e-16
2.51298e-16
5.64776e-08
-1.24087e-06
-3.22463e-07
5.72131e-06
2.70841e-07
-2.04439e-05
-6.34858e-06
6.04622e-05
5.63724e-05
-0.000116428
-0.000220358
0.000156815
0.00106628
0.00176038
0.00162954
0.00115831
0.00166017
0.003736
0.00578095
0.0045058
-0.00291062
-0.0168178
-0.0329959
-0.0448913
-0.0472667
-0.0420657
-0.0314383
-0.019346
-0.00946823
-0.00334257
-0.000520631
0.000144497
7.52575e-05
1.93864e-05
1.84884e-06
-1.25362e-06
-5.41774e-07
-9.36392e-08
9.8505e-09
4.77153e-09
9.51151e-10
2.88505e-11
-3.00334e-11
-1.31221e-11
-2.07738e-12
1.47775e-13
5.8737e-14
7.49531e-15
1.93303e-16
7.20761e-17
4.08812e-07
-1.13044e-06
-2.71239e-06
4.69912e-06
1.01823e-05
-1.50849e-05
-3.31194e-05
3.59155e-05
0.000105147
-1.46272e-05
-0.000202494
0.000173889
0.00141457
0.00257488
0.00239031
0.000859141
-0.000204019
0.00095641
0.0040588
0.00610338
0.00484851
0.000627002
-0.00409923
-0.00610182
-0.00510642
-0.00227141
0.000667295
0.00233902
0.00251534
0.00181263
0.000875579
0.00025155
2.91089e-05
-1.37725e-05
-7.95924e-06
-2.4031e-06
-3.18496e-07
5.83976e-08
2.83061e-08
6.57723e-09
2.47721e-10
-1.28537e-10
-6.53427e-11
-1.34228e-11
3.43702e-13
2.83e-13
6.57451e-14
4.9776e-16
-4.038e-16
-2.24695e-16
4.08739e-07
-7.5666e-07
-3.07676e-06
3.06313e-06
1.14674e-05
-7.58109e-06
-3.53485e-05
7.95436e-06
9.05327e-05
4.44969e-05
-0.000113531
-1.14576e-05
0.00056149
0.00103004
0.000703706
-0.000422543
-0.00116062
-0.000642244
0.000979119
0.00275978
0.00453425
0.00707108
0.011611
0.0169035
0.0205928
0.0209403
0.0180296
0.012928
0.00764763
0.00352321
0.00109693
0.000128048
-4.00841e-05
-2.57619e-05
-9.48664e-06
-1.68517e-06
1.45701e-07
8.74029e-08
2.75074e-08
2.87533e-09
-4.27376e-10
-2.37898e-10
-5.70967e-11
-6.31569e-13
8.80644e-13
3.37904e-13
2.82084e-14
-2.11415e-15
-9.51849e-16
-4.3808e-16
1.88487e-07
-3.98646e-07
-1.79901e-06
1.64046e-06
6.76086e-06
-3.13124e-06
-2.08943e-05
-4.24049e-06
4.32264e-05
4.62806e-05
-3.98795e-05
-0.000194546
-0.000436946
-0.00080188
-0.00114464
-0.00121165
-0.000937246
-0.00080275
-0.00128528
-0.0016364
-3.5951e-05
0.00512474
0.0130566
0.020609
0.0242975
0.0232957
0.0186232
0.0122999
0.0064422
0.00246671
0.000514371
-4.71052e-05
-4.00739e-05
-1.91467e-05
-5.29191e-06
-1.45469e-07
1.4722e-07
7.89866e-08
1.63608e-08
-7.02046e-10
-6.08619e-10
-1.88702e-10
-7.05038e-12
3.62219e-12
1.61032e-12
1.95557e-13
-1.45887e-14
-5.32816e-15
-1.22646e-15
-4.61139e-16
4.70636e-09
-2.19867e-07
-2.25167e-07
1.03089e-06
1.02509e-06
-2.41634e-06
-4.69691e-06
-4.93993e-07
5.78959e-06
1.22138e-05
-1.39712e-05
-0.000221745
-0.000737157
-0.00139601
-0.00155174
-0.000926677
-6.45551e-05
-0.000174362
-0.0017515
-0.00347622
-0.0030446
0.000631234
0.00663842
0.0120959
0.0139307
0.0125627
0.00913051
0.00520917
0.00214727
0.00044587
-0.000150454
-8.13058e-05
-2.95755e-05
-7.42621e-06
-2.69592e-07
6.03851e-07
3.25026e-07
7.45176e-08
-7.60412e-10
-1.49173e-09
-5.61857e-10
-5.26473e-11
1.43272e-11
7.09918e-12
1.21278e-12
-7.91028e-14
-3.2149e-14
-5.47974e-15
-6.99302e-16
-2.63861e-16
-5.96097e-08
-1.53803e-07
4.97091e-07
8.36796e-07
-1.72422e-06
-3.01526e-06
3.2135e-06
7.62698e-06
-5.85145e-06
-1.90165e-05
-1.87209e-05
-0.000108643
-0.000418524
-0.000782425
-0.00078668
-0.000210369
0.000455742
0.000342285
-0.000862547
-0.00235434
-0.00272329
-0.00170896
3.71435e-05
0.00122346
0.00108989
0.000374217
-0.000538136
-0.00108511
-0.00108759
-0.000745265
-0.000326057
-9.47256e-05
-1.03468e-05
5.71034e-06
3.08537e-06
9.91101e-07
1.83767e-07
-2.22483e-08
-1.09334e-08
-2.36479e-09
-2.09207e-10
5.25308e-11
2.48619e-11
4.85302e-12
-2.67621e-13
-1.296e-13
-2.43241e-14
-6.74095e-16
2.94554e-17
5.52246e-18
-3.86871e-08
-1.19229e-07
3.92835e-07
6.59032e-07
-1.48089e-06
-2.63189e-06
3.15875e-06
8.93447e-06
-1.66887e-06
-2.2578e-05
-2.12197e-05
4.1584e-06
2.89977e-05
4.62322e-05
0.000111142
0.000246434
0.000365823
0.000342337
0.000202375
-4.04654e-05
-0.000505356
-0.00142957
-0.00280214
-0.00434058
-0.00530309
-0.00529555
-0.00451156
-0.00317734
-0.00180777
-0.000775236
-0.000226168
-2.26423e-05
2.07663e-05
1.25328e-05
3.81635e-06
3.57342e-07
-1.8669e-07
-9.10052e-08
-1.79973e-08
2.38053e-10
2.65742e-10
8.23738e-11
1.04021e-11
-2.42139e-12
-8.99221e-13
-1.15221e-13
8.09326e-15
2.41415e-15
4.98256e-16
1.87975e-16
1.36682e-08
-3.11046e-08
-1.66402e-08
1.64026e-07
1.2365e-08
-6.16387e-07
-1.19261e-07
2.78559e-06
3.2365e-06
-4.49747e-06
-9.88361e-06
3.41766e-05
0.000178321
0.000356149
0.000373986
0.000185663
-5.11231e-05
2.35087e-05
0.000557547
0.00112802
0.00100824
-0.000195206
-0.0022553
-0.00409
-0.00484847
-0.00450019
-0.00334902
-0.00198463
-0.000876471
-0.000248201
-6.55203e-06
4.18768e-05
2.55754e-05
8.53237e-06
1.13442e-06
-4.91307e-07
-2.63842e-07
-6.18353e-08
-2.90524e-11
1.0196e-09
3.90624e-10
4.01937e-11
-9.91046e-12
-4.64141e-12
-8.73674e-13
3.29175e-14
1.55454e-14
2.83275e-15
5.07195e-16
2.14973e-16
2.99877e-08
5.02588e-08
-1.84033e-07
-2.9356e-07
7.00885e-07
1.15898e-06
-1.57498e-06
-3.62864e-06
2.95717e-06
9.43039e-06
3.34339e-06
1.04366e-05
7.78366e-05
0.000172643
0.000173702
-1.5618e-05
-0.000237064
-0.000183379
0.000262294
0.000831817
0.000956112
0.000471852
-0.000333907
-0.00101486
-0.00107083
-0.00078581
-0.00033367
3.85401e-05
0.000196243
0.000180311
0.000104647
4.2534e-05
9.19192e-06
-7.51377e-07
-1.25613e-06
-5.88867e-07
-1.20661e-07
1.40683e-08
6.78883e-09
1.45981e-09
4.52963e-11
-3.12827e-11
-1.32702e-11
-2.59563e-12
1.20096e-13
5.30525e-14
1.17664e-14
1.30158e-15
2.43205e-16
1.20756e-16
2.2515e-09
7.13503e-08
-7.77086e-08
-3.70475e-07
3.22257e-07
1.28717e-06
-5.85918e-07
-3.94239e-06
-1.27529e-06
8.32264e-06
9.27637e-06
-9.35694e-06
-3.87964e-05
-5.05036e-05
-5.60024e-05
-7.57566e-05
-0.00011577
-0.000139655
-0.000116093
-3.97347e-05
0.000109192
0.000389994
0.000760635
0.00119811
0.00146242
0.00147873
0.00127491
0.000906275
0.000520724
0.000230687
7.31132e-05
8.21375e-06
-7.67001e-06
-4.67141e-06
-1.46757e-06
-1.66332e-07
8.04551e-08
3.6868e-08
7.08941e-09
-3.62298e-10
-2.25975e-10
-5.28703e-11
-3.07119e-12
1.3564e-12
4.82684e-13
5.41951e-14
-9.79109e-16
-3.7385e-16
-1.02098e-16
-2.19154e-17
-1.46145e-08
2.63961e-08
7.18832e-08
-1.04332e-07
-2.97674e-07
2.51995e-07
9.56151e-07
-5.75209e-07
-3.09234e-06
-5.27909e-07
5.29746e-06
-3.9301e-06
-4.12732e-05
-8.40533e-05
-7.61745e-05
3.31466e-07
7.25911e-05
2.12883e-05
-0.00019002
-0.000403721
-0.000368017
2.23559e-05
0.000689957
0.00125727
0.00148562
0.00137015
0.00100244
0.000578216
0.000247337
6.23102e-05
-7.03615e-06
-1.60877e-05
-9.1699e-06
-2.99928e-06
-3.88703e-07
2.06745e-07
1.12348e-07
2.51165e-08
-1.03506e-09
-8.29392e-10
-2.55429e-10
-1.78465e-11
5.30701e-12
2.62318e-12
5.01245e-13
-1.24718e-14
-6.77374e-15
-1.56539e-15
-3.63309e-16
-1.21911e-16
-7.84147e-09
-2.42031e-08
9.51091e-08
1.14581e-07
-3.78121e-07
-4.71928e-07
9.64379e-07
1.66812e-06
-1.21097e-06
-4.92043e-06
-1.13426e-06
8.69662e-06
8.22611e-06
-5.04675e-06
-2.36525e-06
4.42047e-05
0.000102883
8.87591e-05
-3.86838e-05
-0.000201184
-0.000256705
-0.000145878
5.02208e-05
0.000208114
0.00020268
0.000123109
8.34047e-06
-7.21989e-05
-9.21882e-05
-6.85156e-05
-3.61093e-05
-1.31477e-05
-2.45499e-06
5.78698e-07
5.09393e-07
2.28931e-07
4.61392e-08
-6.38124e-09
-3.11823e-09
-6.96803e-10
-3.75461e-11
1.58403e-11
7.57777e-12
1.65039e-12
-2.94366e-14
-2.43494e-14
-7.38416e-15
-1.30723e-15
-2.69218e-16
-8.44218e-17
-1.10933e-09
-2.45858e-08
1.20327e-09
1.17767e-07
1.25481e-08
-4.13027e-07
-1.67421e-07
1.31269e-06
1.05838e-06
-2.32274e-06
-2.77087e-06
6.79113e-06
2.35074e-05
3.3196e-05
2.81463e-05
1.69596e-05
1.65214e-05
3.8967e-05
7.4505e-05
8.76423e-05
3.89666e-05
-9.80467e-05
-0.000283978
-0.000467737
-0.000556875
-0.000541454
-0.000442176
-0.000297764
-0.000161435
-6.72447e-05
-1.66338e-05
5.35405e-08
2.81164e-06
1.70839e-06
5.66586e-07
6.83999e-08
-3.23601e-08
-1.57325e-08
-3.30312e-09
7.53571e-11
7.21699e-11
2.30397e-11
2.74784e-12
-7.33621e-13
-2.92383e-13
-4.53841e-14
1.25078e-16
2.53906e-16
9.50043e-17
5.11086e-17
7.15879e-09
-3.73081e-09
-5.641e-08
1.86844e-08
2.21205e-07
-8.10446e-09
-6.31784e-07
-2.30315e-07
1.34395e-06
1.56592e-06
-1.38639e-06
-3.49461e-06
1.72091e-06
9.71657e-06
4.06284e-06
-2.28049e-05
-4.71404e-05
-2.635e-05
5.12285e-05
0.000129579
0.00012596
1.26628e-05
-0.00017984
-0.000342231
-0.000389459
-0.000341576
-0.00023613
-0.0001243
-4.34997e-05
-3.39446e-06
8.21505e-06
5.4135e-06
2.41368e-06
6.85212e-07
6.14129e-08
-6.55803e-08
-3.63275e-08
-9.02263e-09
7.81503e-11
1.6958e-10
7.21734e-11
1.08639e-11
-2.27129e-12
-1.09615e-12
-2.36957e-13
2.78841e-15
2.86246e-15
1.01366e-15
3.21239e-16
1.43421e-16
3.64531e-09
7.87359e-09
-2.70591e-08
-3.93142e-08
8.95921e-08
1.84921e-07
-2.04836e-07
-7.27945e-07
1.34962e-07
1.85006e-06
4.1553e-07
-6.17275e-06
-1.31567e-05
-1.43569e-05
-1.38354e-05
-1.97604e-05
-2.98573e-05
-3.18696e-05
-1.57777e-05
1.37992e-05
3.96906e-05
4.72942e-05
4.88637e-05
5.8701e-05
7.29836e-05
8.70391e-05
8.93506e-05
7.54328e-05
5.10288e-05
2.79172e-05
1.09249e-05
2.55973e-06
-5.12287e-08
-4.13199e-07
-2.2637e-07
-6.70465e-08
-9.67882e-09
2.85681e-09
1.20281e-09
2.10313e-10
-8.71708e-12
-7.68451e-12
-2.54572e-12
-3.81628e-13
6.779e-14
2.42448e-14
3.87741e-15
6.80245e-16
2.26711e-16
1.10668e-16
-3.054e-09
6.62688e-09
2.23853e-08
-3.54695e-08
-7.63436e-08
9.66733e-08
2.33738e-07
-1.91344e-07
-6.31809e-07
-4.03531e-08
8.83301e-07
-4.98594e-07
-5.11888e-06
-8.44177e-06
-4.66108e-06
6.19702e-06
1.16448e-05
-8.13358e-07
-2.96565e-05
-5.06487e-05
-3.82088e-05
1.82105e-05
0.000102336
0.000173765
0.000202331
0.000187336
0.000142037
8.76968e-05
4.30173e-05
1.43103e-05
1.84086e-06
-1.60998e-06
-1.09507e-06
-4.458e-07
-1.03467e-07
5.71789e-09
9.67697e-09
4.12568e-09
8.91285e-10
-6.65022e-11
-4.47905e-11
-1.10238e-11
-1.4271e-13
2.36181e-13
9.20189e-14
1.58558e-14
3.22636e-16
2.37602e-17
2.4812e-17
2.40465e-17
-2.4758e-09
6.90015e-10
1.98703e-08
4.02393e-09
-7.5381e-08
-4.6067e-08
2.06508e-07
2.68371e-07
-3.55121e-07
-9.13534e-07
2.78009e-07
3.28085e-06
5.45157e-06
5.44784e-06
6.68334e-06
1.23035e-05
1.81408e-05
1.46026e-05
-2.56432e-06
-2.39481e-05
-2.98475e-05
-1.27008e-05
1.75113e-05
4.33283e-05
4.5113e-05
3.44424e-05
1.67947e-05
1.72933e-06
-5.78928e-06
-6.44936e-06
-4.09093e-06
-1.77266e-06
-4.60626e-07
-2.91903e-09
6.95387e-08
3.60048e-08
8.44816e-09
2.51882e-11
-4.6976e-10
-1.96464e-10
-3.71222e-11
2.24245e-12
1.06135e-12
2.26644e-13
7.50856e-15
-4.72848e-15
-1.34521e-15
-3.16213e-16
-8.63681e-17
-2.86944e-17
6.99054e-10
-4.04692e-09
-4.08156e-09
1.79952e-08
1.13715e-08
-6.00606e-08
-3.54168e-08
1.72367e-07
1.56364e-07
-2.75306e-07
-2.46951e-07
1.42996e-06
4.3177e-06
5.60688e-06
4.10459e-06
7.97705e-07
6.55132e-07
5.60526e-06
1.26232e-05
1.43757e-05
6.12405e-06
-1.37698e-05
-3.87446e-05
-6.16829e-05
-7.15673e-05
-6.87197e-05
-5.54791e-05
-3.73346e-05
-2.0439e-05
-8.53105e-06
-2.22422e-06
-7.57261e-08
3.31447e-07
2.02428e-07
6.89007e-08
1.05939e-08
-3.27276e-09
-1.84116e-09
-4.96212e-10
-4.65244e-11
1.6802e-11
7.27957e-12
1.36932e-12
-8.24557e-14
-3.97661e-14
-6.55841e-15
-6.17348e-16
-1.73092e-16
-5.87747e-17
-2.44641e-17
9.85562e-10
-1.52933e-09
-9.73301e-09
4.53262e-09
4.02965e-08
1.53154e-09
-1.15102e-07
-7.40338e-08
2.39857e-07
3.45504e-07
-2.58674e-07
-1.19271e-06
-1.54511e-06
-1.50492e-06
-2.70842e-06
-5.95071e-06
-8.01154e-06
-4.73115e-06
4.63959e-06
1.39382e-05
1.34462e-05
8.31695e-07
-1.99498e-05
-3.70912e-05
-4.16021e-05
-3.6105e-05
-2.47485e-05
-1.28621e-05
-4.34923e-06
-1.32291e-07
1.05782e-06
6.4844e-07
2.37137e-07
5.09192e-08
-7.36796e-09
-9.3932e-09
-3.99191e-09
-8.34983e-10
9.58687e-11
5.75881e-11
1.51934e-11
1.51025e-12
-5.41653e-13
-1.94269e-13
-3.00316e-14
1.72064e-16
1.74041e-16
6.11752e-17
1.78773e-17
6.80118e-18
2.49363e-10
1.51783e-09
-1.23538e-09
-6.03317e-09
5.51171e-09
2.2354e-08
-1.66397e-08
-8.58448e-08
-3.3366e-09
2.05244e-07
1.698e-08
-1.03108e-06
-2.3583e-06
-2.93858e-06
-2.48674e-06
-1.78476e-06
-2.33294e-06
-3.74799e-06
-4.24975e-06
-2.69724e-06
1.10592e-06
6.01812e-06
1.1403e-05
1.6555e-05
1.88725e-05
1.8716e-05
1.61803e-05
1.19966e-05
7.35585e-06
3.58092e-06
1.24053e-06
2.04234e-07
-8.61901e-08
-6.62373e-08
-2.92989e-08
-6.40283e-09
4.82778e-10
5.28512e-10
2.17648e-10
5.06338e-11
-2.36934e-12
-2.05798e-12
-5.84976e-13
-2.33039e-14
9.52337e-15
2.96816e-15
6.79557e-16
1.95997e-16
6.2389e-17
2.72632e-17
-4.93706e-10
9.98954e-10
4.04802e-09
-4.13009e-09
-1.70719e-08
6.44759e-09
4.90572e-08
1.19707e-08
-1.10978e-07
-1.06114e-07
1.1977e-07
3.08656e-07
2.06218e-07
1.94879e-07
8.86804e-07
2.26388e-06
2.84867e-06
1.09303e-06
-2.8915e-06
-6.01495e-06
-5.0021e-06
1.461e-06
1.10772e-05
1.87631e-05
2.12344e-05
1.92134e-05
1.4259e-05
8.36018e-06
3.72376e-06
1.03566e-06
-3.08513e-09
-1.99325e-07
-1.14458e-07
-3.74819e-08
-5.43648e-09
2.41728e-09
1.26985e-09
3.07228e-10
5.42568e-12
-2.05663e-11
-7.82122e-12
-1.09476e-12
2.04462e-13
8.1064e-14
1.17209e-14
5.38257e-16
2.17628e-16
9.63687e-17
3.92213e-17
2.1729e-17
-2.31972e-10
-4.52112e-10
1.52013e-09
1.66498e-09
-5.84298e-09
-6.87197e-09
1.861e-08
3.41703e-08
-2.52073e-08
-1.04932e-07
2.93551e-08
5.07982e-07
1.07313e-06
1.30185e-06
1.19232e-06
1.21673e-06
1.53795e-06
1.74439e-06
1.24461e-06
-2.23896e-08
-1.3735e-06
-2.22605e-06
-2.66629e-06
-3.06787e-06
-3.45179e-06
-3.74895e-06
-3.69571e-06
-3.09371e-06
-2.12537e-06
-1.19667e-06
-4.9115e-07
-1.15522e-07
-1.33902e-09
1.63736e-08
9.40985e-09
2.82408e-09
4.0149e-10
-1.34597e-10
-7.25096e-11
-1.63797e-11
-5.16924e-13
5.39871e-13
2.11943e-13
3.88335e-14
3.15703e-16
-2.74592e-16
-9.38934e-17
-1.803e-17
1.49059e-18
6.58404e-18
1.90451e-10
-4.37279e-10
-1.4496e-09
1.96954e-09
5.98758e-09
-3.90782e-09
-1.84761e-08
1.03571e-09
4.19466e-08
2.9619e-08
-4.01989e-08
-4.83279e-08
6.51798e-08
8.71167e-08
-2.11887e-07
-7.45104e-07
-8.86057e-07
-1.45847e-07
1.32631e-06
2.29426e-06
1.59379e-06
-1.07688e-06
-4.72791e-06
-7.74345e-06
-8.77075e-06
-8.01544e-06
-6.06712e-06
-3.77695e-06
-1.89159e-06
-6.66802e-07
-1.10173e-07
5.63379e-08
4.16788e-08
1.82798e-08
4.68193e-09
-2.55709e-11
-3.54291e-10
-1.59078e-10
-3.31645e-11
3.56347e-12
2.1405e-12
5.4343e-13
-9.7393e-15
-1.33771e-14
-3.56867e-15
-7.27759e-16
-1.95074e-16
-5.44587e-17
-1.33986e-17
-1.66872e-18
1.26205e-10
9.6432e-11
-8.42867e-10
-3.27596e-10
3.27163e-09
1.63794e-09
-1.00731e-08
-1.21558e-08
1.74956e-08
4.40472e-08
-2.23363e-08
-2.11869e-07
-4.25846e-07
-5.16738e-07
-5.20442e-07
-6.00026e-07
-7.2356e-07
-6.87022e-07
-3.19038e-07
2.80025e-07
7.20401e-07
7.31699e-07
4.25841e-07
1.43914e-07
1.83398e-07
3.47441e-07
5.49501e-07
6.24865e-07
5.30546e-07
3.41523e-07
1.65644e-07
5.34882e-08
9.47424e-09
-2.49694e-09
-2.75753e-09
-1.21e-09
-2.41533e-10
2.56884e-11
2.02411e-11
6.374e-12
8.46239e-13
-2.00246e-13
-7.90634e-14
-1.19525e-14
-5.21866e-16
-1.8759e-16
-7.69598e-17
-2.66076e-17
-7.83759e-18
-1.58965e-18
-5.98905e-11
1.81351e-10
4.91712e-10
-8.21217e-10
-2.06661e-09
1.93646e-09
6.10732e-09
-1.70468e-09
-1.423e-08
-7.67772e-09
1.19236e-08
-3.76735e-09
-6.45936e-08
-7.1663e-08
4.45337e-08
2.35259e-07
2.66064e-07
-1.5425e-08
-5.15618e-07
-7.95374e-07
-4.79903e-07
4.9644e-07
1.79336e-06
2.86898e-06
3.23404e-06
2.97908e-06
2.29396e-06
1.46375e-06
7.53493e-07
2.97524e-07
5.96896e-08
-1.66142e-08
-1.42682e-08
-7.23258e-09
-2.13736e-09
-1.40197e-10
1.3457e-10
6.26475e-11
1.47688e-11
-4.26617e-13
-5.61897e-13
-1.84625e-13
-2.90221e-14
1.0057e-15
3.33408e-16
1.14071e-16
3.41748e-17
9.48165e-18
2.84074e-18
1.68593e-18
-5.46092e-11
-1.53739e-11
3.2976e-10
4.95108e-12
-1.31095e-09
-4.94996e-10
3.99264e-09
4.11656e-09
-7.93237e-09
-1.62008e-08
9.89781e-09
7.77654e-08
1.53935e-07
1.87638e-07
1.99789e-07
2.35835e-07
2.74806e-07
2.40844e-07
8.20105e-08
-1.49719e-07
-2.85857e-07
-2.22997e-07
-2.97151e-08
1.41821e-07
1.71502e-07
1.05929e-07
-8.98611e-09
-9.64617e-08
-1.20714e-07
-9.34877e-08
-5.13152e-08
-1.81027e-08
-3.77086e-09
6.74275e-10
9.71786e-10
4.45036e-10
9.59392e-11
-3.86569e-12
-7.30663e-12
-2.66857e-12
-4.45263e-13
5.62816e-14
2.67591e-14
4.81703e-15
6.35938e-16
1.69772e-16
5.2638e-17
1.66299e-17
5.43432e-18
2.58469e-18
2.96433e-11
-5.90965e-11
-1.60149e-10
3.01736e-10
6.18308e-10
-6.88681e-10
-1.88442e-09
6.53965e-10
4.64136e-09
2.3428e-09
-3.29631e-09
5.24361e-09
2.83417e-08
2.98672e-08
-1.02699e-08
-7.1666e-08
-7.77058e-08
1.92184e-08
1.79505e-07
2.57479e-07
1.40313e-07
-1.90823e-07
-6.15747e-07
-9.61559e-07
-1.07684e-06
-9.94792e-07
-7.72555e-07
-4.99557e-07
-2.62207e-07
-1.05233e-07
-2.25654e-08
4.41085e-09
4.30261e-09
2.27377e-09
6.5665e-10
3.70141e-11
-4.75771e-11
-2.27458e-11
-5.21438e-12
2.49469e-13
2.20672e-13
6.41818e-14
8.31768e-15
-8.95452e-17
-1.47542e-17
1.43421e-18
3.05418e-18
2.11464e-18
1.18009e-18
9.04585e-19
1.52815e-11
4.95839e-12
-1.11604e-10
-1.42633e-11
4.59543e-10
1.55756e-10
-1.35794e-09
-1.27147e-09
2.70547e-09
5.13004e-09
-3.41704e-09
-2.53283e-08
-4.98632e-08
-6.10222e-08
-6.59509e-08
-7.79338e-08
-8.88671e-08
-7.66061e-08
-2.30761e-08
5.00456e-08
9.04864e-08
6.45905e-08
-4.54928e-10
-6.14593e-08
-7.70323e-08
-5.61473e-08
-1.71722e-08
1.57716e-08
2.94593e-08
2.54569e-08
1.49007e-08
5.40757e-09
1.10462e-09
-2.3481e-10
-3.02104e-10
-1.39294e-10
-2.91356e-11
1.35253e-12
2.29476e-12
8.70688e-13
1.50628e-13
-1.49147e-14
-6.40729e-15
-1.40644e-15
-3.6761e-16
-1.13965e-16
-3.56255e-17
-1.0809e-17
-3.11534e-18
-9.66143e-19
-9.10343e-12
1.12645e-11
4.86707e-11
-7.63811e-11
-1.91832e-10
2.0457e-10
5.9198e-10
-1.67253e-10
-1.46292e-09
-8.62405e-10
8.33732e-10
-1.57151e-09
-8.05171e-09
-8.22258e-09
3.70937e-09
2.16766e-08
2.33854e-08
-4.03058e-09
-5.09194e-08
-7.46098e-08
-4.03388e-08
5.70007e-08
1.80111e-07
2.80161e-07
3.1321e-07
2.88607e-07
2.23874e-07
1.45013e-07
7.6737e-08
3.12671e-08
7.09541e-09
-8.14797e-10
-1.14379e-09
-6.52033e-10
-2.08634e-10
-2.55968e-11
1.26564e-11
6.54139e-12
1.55548e-12
5.93942e-14
-5.40795e-14
-2.12582e-14
-4.4395e-15
-8.86967e-16
-2.88856e-16
-1.04017e-16
-3.67843e-17
-1.25214e-17
-4.06759e-18
-1.56291e-18
-3.44265e-12
4.06772e-12
3.36333e-11
4.54397e-12
-1.14568e-10
-5.0116e-11
3.49329e-10
3.31913e-10
-6.8435e-10
-1.29115e-09
9.41512e-10
6.77135e-09
1.32304e-08
1.61425e-08
1.69837e-08
1.96405e-08
2.23392e-08
1.91999e-08
6.44479e-09
-1.13419e-08
-2.21006e-08
-1.77478e-08
-2.75141e-09
1.12204e-08
1.43706e-08
9.47448e-09
9.37786e-10
-5.69803e-09
-7.79328e-09
-6.21056e-09
-3.65936e-09
-1.4033e-09
-3.54965e-10
-1.53674e-11
4.45604e-11
2.48644e-11
7.87893e-12
1.39328e-12
-3.18784e-13
-1.48756e-13
-2.92854e-14
-1.8315e-15
-2.01106e-16
-2.0115e-16
-1.1018e-16
-4.95715e-17
-2.00874e-17
-7.52748e-18
-2.63573e-18
-1.10187e-18
2.51305e-12
-3.31432e-12
-1.32325e-11
1.23374e-11
4.08527e-11
-2.42785e-11
-1.1267e-10
1.18564e-11
3.22535e-10
2.89715e-10
-1.01534e-10
8.65116e-11
1.04161e-09
1.03115e-09