/*--------------------------------*- C++ -*----------------------------------*\
| =========                 |                                                 |
| \\      /  F ield         | OpenFOAM: The Open Source CFD Toolbox           |
|  \\    /   O peration     | Version:  v2006                                 |
|   \\  /    A nd           | Website:  www.openfoam.com                      |
|    \\/     M anipulation  |                                                 |
\*---------------------------------------------------------------------------*/
FoamFile
{
    version     2.0;
    format      ascii;
    class       volScalarField;
    location    "9.75";
    object      r;
}
// * * * * * * * * * * * * * * * * * * * * * * * * * * * * * * * * * * * * * //

dimensions      [1 2 0 0 0 0 0];


internalField   nonuniform List<scalar> 
350
(
1.96612e-16
2.9906e-16
5.54963e-16
1.0905e-15
2.16619e-15
4.29735e-15
8.48835e-15
1.66815e-14
3.26095e-14
6.34031e-14
1.22606e-13
2.35793e-13
4.50966e-13
8.57697e-13
1.62211e-12
3.05046e-12
5.70385e-12
1.06039e-11
1.95994e-11
3.60144e-11
6.57879e-11
1.19462e-10
2.1563e-10
3.86867e-10
6.89869e-10
1.22265e-09
2.15351e-09
3.76947e-09
6.55661e-09
1.13324e-08
1.94621e-08
3.3209e-08
5.62992e-08
9.4821e-08
1.5865e-07
2.63688e-07
4.35341e-07
7.139e-07
1.16276e-06
1.88091e-06
3.02168e-06
4.82068e-06
7.63707e-06
1.20138e-05
1.87651e-05
2.91015e-05
4.48077e-05
6.84923e-05
0.000103935
0.000156565
0.000234108
0.000347465
0.000511869
0.000748412
0.00108602
0.001564
0.00223519
0.00317
0.00446122
0.00622994
0.0086325
0.0118686
0.0161904
0.021913
0.0294254
0.0392024
0.0518159
0.0679469
0.0883949
0.114086
0.146079
0.185562
0.233854
0.292385
0.362685
0.446351
0.545016
0.660301
0.793765
0.946847
1.1208
1.31664
1.53505
1.77636
2.04046
2.32681
2.63434
2.9615
3.30626
3.66612
4.03819
4.41924
4.80577
5.19415
5.58067
5.96169
6.33372
6.69351
7.03815
7.36515
7.67244
7.95845
8.22208
8.46272
8.68019
8.87474
9.04692
9.1976
9.32783
9.43879
9.53174
9.60789
9.66841
9.71433
9.74649
9.76553
9.77183
9.76553
9.74649
9.71433
9.66841
9.60789
9.53174
9.43879
9.32783
9.1976
9.04692
8.87474
8.68019
8.46272
8.22208
7.95845
7.67244
7.36515
7.03815
6.69351
6.33372
5.96169
5.58067
5.19415
4.80577
4.41924
4.03819
3.66612
3.30626
2.9615
2.63434
2.32681
2.04046
1.77636
1.53505
1.31664
1.1208
0.946847
0.793765
0.660301
0.545016
0.446351
0.362685
0.292385
0.233854
0.185562
0.146079
0.114086
0.0883949
0.0679469
0.0518159
0.0392024
0.0294254
0.021913
0.0161904
0.0118686
0.0086325
0.00622994
0.00446122
0.00317
0.00223519
0.001564
0.00108602
0.000748412
0.000511869
0.000347465
0.000234108
0.000156565
0.000103935
6.84923e-05
4.48077e-05
2.91015e-05
1.87651e-05
1.20138e-05
7.63707e-06
4.82068e-06
3.02168e-06
1.88091e-06
1.16276e-06
7.139e-07
4.35341e-07
2.63688e-07
1.5865e-07
9.4821e-08
5.62992e-08
3.3209e-08
1.94621e-08
1.13324e-08
6.55661e-09
3.76947e-09
2.15351e-09
1.22265e-09
6.89869e-10
3.86867e-10
2.1563e-10
1.19462e-10
6.57879e-11
3.60144e-11
1.95994e-11
1.06039e-11
5.70385e-12
3.05046e-12
1.62211e-12
8.57697e-13
4.50966e-13
2.35793e-13
1.22606e-13
6.3403e-14
3.26093e-14
1.66811e-14
8.48754e-15
4.29564e-15
2.16263e-15
1.08308e-15
5.39618e-16
2.67468e-16
1.31898e-16
6.4714e-17
3.15917e-17
1.53454e-17
7.41702e-18
3.56735e-18
1.70742e-18
8.13264e-19
3.85509e-19
1.81872e-19
8.53963e-20
3.9909e-20
1.85642e-20
8.59551e-21
3.96159e-21
1.81755e-21
8.30109e-22
3.77426e-22
1.7084e-22
7.69876e-23
3.45416e-23
1.543e-23
6.86286e-24
3.0393e-24
1.34025e-24
5.88508e-25
2.57328e-25
1.12048e-25
4.85861e-26
2.0981e-26
9.02318e-27
3.86476e-27
1.64865e-27
7.00464e-28
2.96421e-28
1.24942e-28
5.24564e-29
2.19375e-29
9.1387e-30
3.79231e-30
1.56767e-30
6.4558e-31
2.64849e-31
1.08245e-31
4.40753e-32
1.78799e-32
7.22652e-33
2.91003e-33
1.16756e-33
4.66751e-34
1.85919e-34
7.37915e-35
2.91837e-35
1.1501e-35
4.51649e-36
1.76744e-36
6.89253e-37
2.67861e-37
1.0374e-37
4.00402e-38
1.54018e-38
5.9044e-39
2.2559e-39
8.5904e-40
3.26033e-40
1.23332e-40
4.65007e-41
1.74753e-41
6.54601e-42
2.44413e-42
9.0965e-43
3.3747e-43
1.248e-43
4.60062e-44
1.69064e-44
6.19337e-45
2.26177e-45
8.23425e-46
2.98854e-46
1.08134e-46
3.90067e-47
1.4028e-47
5.0297e-48
1.79796e-48
6.40796e-49
2.27702e-49
8.06725e-50
2.84973e-50
1.00371e-50
3.52488e-51
1.23429e-51
4.30959e-52
1.50039e-52
5.20867e-53
1.80306e-53
6.2239e-54
2.14234e-54
7.35344e-55
2.51697e-55
8.59121e-56
2.92433e-56
9.92655e-57
3.36029e-57
1.1344e-57
3.81919e-58
1.28232e-58
4.2939e-59
1.43396e-59
4.77594e-60
1.58643e-60
5.25572e-61
1.73658e-61
5.72286e-62
1.88108e-62
6.16878e-63
2.02353e-63
6.80027e-64
2.833e-64
)
;

boundaryField
{
    right
    {
        type            zeroGradient;
    }
    left
    {
        type            inletOutlet;
        inletValue      uniform 0;
        value           uniform 1.96612e-16;
    }
    top
    {
        type            zeroGradient;
    }
    bottom
    {
        type            zeroGradient;
    }
    empty
    {
        type            empty;
    }
}


// ************************************************************************* //
