/*--------------------------------*- C++ -*----------------------------------*\
| =========                 |                                                 |
| \\      /  F ield         | OpenFOAM: The Open Source CFD Toolbox           |
|  \\    /   O peration     | Version:  v2006                                 |
|   \\  /    A nd           | Website:  www.openfoam.com                      |
|    \\/     M anipulation  |                                                 |
\*---------------------------------------------------------------------------*/
FoamFile
{
    version     2.0;
    format      ascii;
    class       volScalarField;
    location    "3";
    object      r;
}
// * * * * * * * * * * * * * * * * * * * * * * * * * * * * * * * * * * * * * //

dimensions      [1 2 0 0 0 0 0];


internalField   nonuniform List<scalar> 
350
(
5.34167e-183
-1.5169e-179
4.07263e-176
-1.0433e-172
2.56173e-169
-6.03362e-166
1.35822e-162
-2.89124e-159
5.6724e-156
-9.56885e-153
1.03819e-149
1.435e-146
-1.59217e-142
7.84669e-139
-3.1758e-135
1.16381e-131
-3.96679e-128
1.26633e-124
-3.79051e-121
1.06453e-117
-2.81217e-114
7.02953e-111
-1.6793e-107
3.8844e-104
-8.81108e-101
1.97298e-97
-4.34526e-94
9.29418e-91
-1.9018e-87
3.68902e-84
-6.82065e-81
1.23371e-77
-2.28154e-74
4.41629e-71
-8.85576e-68
1.69194e-64
-3.13283e-61
4.27939e-58
-5.39536e-55
-2.84503e-51
1.1361e-47
-7.58588e-44
9.09842e-41
-5.91416e-37
-8.33334e-34
-5.11737e-30
-1.88776e-26
-7.15873e-23
-2.80302e-19
5.60249e-17
-6.85778e-16
2.61651e-15
-6.57579e-15
1.45938e-14
-2.99226e-14
5.81818e-14
-1.08704e-13
1.94883e-13
-3.35871e-13
5.56041e-13
-8.84753e-13
1.36043e-12
-2.05146e-12
3.12982e-12
-5.05774e-12
8.93253e-12
-1.68637e-11
3.19181e-11
-5.69515e-11
9.18346e-11
-1.29314e-10
1.50516e-10
-1.17884e-10
-1.02832e-10
6.80648e-10
-1.34302e-09
1.53498e-09
-1.0712e-09
3.16358e-10
3.9447e-11
1.09523e-09
-3.79041e-09
5.33753e-09
-2.94488e-09
-5.82447e-09
1.26469e-08
5.01957e-09
-5.62387e-08
8.71826e-08
2.24535e-07
-8.24892e-07
9.09593e-07
3.47798e-07
-1.69267e-06
4.97107e-07
1.30394e-07
9.81683e-07
-4.29949e-06
9.95796e-07
-5.29563e-08
1.1945e-06
-5.98902e-06
-1.2156e-05
4.83565e-05
6.14611e-05
8.76872e-06
-0.000237015
-0.000218706
0.000320253
0.000314315
-0.000179218
-0.000920219
-0.000820537
0.00175078
0.000869021
-0.00508179
-0.00617523
0.00388419
0.0420395
0.131845
0.30146
0.578854
0.985736
1.53191
2.21168
3.00329
3.87173
4.77394
5.66524
6.50536
7.26302
7.91828
8.46279
8.89822
9.23372
9.48304
9.66186
9.78568
9.86848
9.92195
9.95528
9.97536
9.987
9.99354
9.99692
9.99877
9.99948
9.99994
9.99999
10
9.99999
9.9999
10.0001
10.0002
10.0002
9.99975
9.99965
10.0001
10.0011
10.0008
9.99819
9.99909
10.0049
10.0061
9.99665
9.95938
9.87067
9.70216
9.42562
9.01908
8.47256
7.79174
6.99848
6.12804
5.2238
4.33077
3.48946
2.73132
2.0763
1.53264
1.09845
0.76431
0.516226
0.338355
0.215116
0.132569
0.0791136
0.0456473
0.0254031
0.0135545
0.00690899
0.0032504
0.00149155
0.00046825
0.000175335
3.7563e-06
2.65526e-06
1.10254e-06
7.81466e-07
4.46856e-07
2.17595e-07
7.70612e-08
2.80816e-08
1.82087e-10
1.35821e-10
1.0041e-10
7.83829e-11
5.8283e-11
4.18359e-11
2.92979e-11
2.01354e-11
1.35763e-11
8.92423e-12
5.62027e-12
3.29063e-12
1.74676e-12
2.0724e-13
-6.22152e-14
-4.32946e-13
-4.66055e-13
-4.3286e-13
-3.65923e-13
-2.86396e-13
-2.19622e-13
-1.45465e-13
-1.3918e-13
-1.3575e-13
-1.31413e-13
-1.2297e-13
-1.08922e-13
-8.98568e-14
-6.78671e-14
-4.55781e-14
-2.52848e-14
-8.58857e-15
3.73842e-15
1.13527e-14
1.47486e-14
1.54615e-14
1.44949e-14
1.14735e-14
6.22109e-15
-1.22317e-15
-1.05463e-14
-2.05048e-14
-2.88598e-14
-3.33493e-14
-3.40288e-14
-3.16979e-14
-2.59424e-14
-1.78632e-14
-9.25187e-15
-1.65312e-15
4.46222e-15
9.68784e-15
1.48569e-14
2.02872e-14
2.54086e-14
2.89797e-14
3.03476e-14
2.98542e-14
2.66592e-14
2.05828e-14
1.25985e-14
4.37752e-15
-1.87177e-15
-4.81251e-15
-5.20225e-15
-3.36386e-15
7.83285e-16
6.01399e-15
1.04501e-14
1.27802e-14
1.31938e-14
1.17607e-14
8.11195e-15
2.77364e-15
-3.17196e-15
-8.45272e-15
-1.21386e-14
-1.40391e-14
-1.46244e-14
-1.42718e-14
-1.30028e-14
-1.10999e-14
-8.98372e-15
-7.02559e-15
-5.4431e-15
-4.29863e-15
-3.55425e-15
-3.13052e-15
-2.94684e-15
-2.92941e-15
-3.02178e-15
-3.16782e-15
-3.31425e-15
-3.42232e-15
-3.45789e-15
-3.4001e-15
-3.20778e-15
-2.84389e-15
-2.27363e-15
-1.5064e-15
-6.11705e-16
2.8652e-16
1.06003e-15
1.62214e-15
1.94465e-15
2.04221e-15
1.9435e-15
1.6784e-15
1.30752e-15
8.98351e-16
5.11613e-16
1.84206e-16
-6.60872e-17
-2.37452e-16
-3.39957e-16
-3.8615e-16
-3.92979e-16
-3.72325e-16
-3.38617e-16
-2.9905e-16
-2.6053e-16
-2.26023e-16
-1.95211e-16
-1.69382e-16
-1.45258e-16
-1.24308e-16
-1.03335e-16
-8.45641e-17
-6.5764e-17
-4.95078e-17
-3.41043e-17
-2.1875e-17
-1.12649e-17
-3.684e-18
1.96771e-18
5.64118e-18
7.50377e-18
8.71831e-18
8.4766e-18
8.55404e-18
7.56912e-18
7.24086e-18
6.24234e-18
5.69299e-18
4.93549e-18
4.12632e-18
3.67292e-18
)
;

boundaryField
{
    right
    {
        type            zeroGradient;
    }
    left
    {
        type            inletOutlet;
        inletValue      uniform 0;
        value           uniform 0;
    }
    top
    {
        type            zeroGradient;
    }
    bottom
    {
        type            zeroGradient;
    }
    empty
    {
        type            empty;
    }
}


// ************************************************************************* //
