/*--------------------------------*- C++ -*----------------------------------*\
| =========                 |                                                 |
| \\      /  F ield         | OpenFOAM: The Open Source CFD Toolbox           |
|  \\    /   O peration     | Version:  v2006                                 |
|   \\  /    A nd           | Website:  www.openfoam.com                      |
|    \\/     M anipulation  |                                                 |
\*---------------------------------------------------------------------------*/
FoamFile
{
    version     2.0;
    format      ascii;
    class       volScalarField;
    location    "4.6";
    object      p_rgh;
}
// * * * * * * * * * * * * * * * * * * * * * * * * * * * * * * * * * * * * * //

dimensions      [1 -1 -2 0 0 0 0];


internalField   nonuniform List<scalar> 
150000
(
-438.658
-438.903
-439.219
-439.643
-440.229
-440.975
-441.883
-442.949
-444.167
-445.534
-447.041
-448.684
-450.453
-452.34
-454.335
-456.429
-458.611
-460.867
-463.187
-465.557
-467.963
-470.39
-472.825
-475.251
-477.653
-480.015
-482.32
-484.55
-486.69
-488.722
-490.629
-492.392
-493.995
-495.42
-496.649
-497.667
-498.455
-498.997
-499.279
-499.284
-499
-498.411
-497.501
-496.253
-494.652
-492.684
-490.342
-487.623
-484.526
-481.05
-477.188
-472.934
-468.283
-463.236
-457.802
-451.992
-445.811
-439.252
-432.294
-424.914
-417.095
-408.839
-400.164
-391.095
-381.659
-371.876
-361.76
-351.32
-340.565
-329.499
-318.128
-306.455
-294.487
-282.225
-269.675
-256.841
-243.726
-230.333
-216.665
-202.726
-188.516
-174.039
-159.296
-144.288
-129.017
-113.483
-97.6865
-81.6285
-65.3091
-48.7286
-31.8872
-14.785
2.57773
20.201
38.0845
56.2283
74.6321
93.2959
112.22
131.403
150.847
170.55
190.514
210.739
231.226
251.974
272.986
294.263
315.806
337.617
359.698
382.052
404.681
427.587
450.774
474.244
498.002
522.051
546.393
571.032
595.971
621.208
646.748
672.595
698.765
725.279
752.149
779.373
806.904
834.633
862.495
890.585
919.179
948.126
977.392
1006.95
1036.8
1066.92
1097.3
1127.92
1158.79
1189.87
1221.16
1252.64
1284.29
1316.09
1348.03
1380.07
1412.2
1444.4
1476.64
1508.89
1541.13
1573.33
1605.47
1637.52
1669.44
1701.22
1732.81
1764.2
1795.35
1826.23
1856.82
1887.08
1916.98
1946.51
1975.62
2004.29
2032.5
2060.21
2087.41
2114.06
2140.15
2165.65
2190.53
2214.78
2238.38
2261.31
2283.55
2305.08
2325.89
2345.98
2365.31
2383.89
2401.71
2418.76
2435.03
2450.51
2465.22
2479.14
2492.27
2504.61
2516.18
2526.97
2536.99
2546.25
2554.75
2562.51
2569.54
2575.84
2581.44
2586.35
2590.57
2594.14
2597.07
2599.39
2601.11
2602.26
2602.87
2602.96
2602.54
2601.65
2600.31
2598.53
2596.35
2593.78
2590.85
2587.59
2584.02
2580.17
2576.07
2571.73
2567.2
2562.48
2557.62
2552.64
2547.56
2542.41
2537.21
2532
2526.79
2521.61
2516.49
2511.44
2506.49
2501.65
2496.96
2492.43
2488.05
2483.92
2480
2476.31
2472.87
2469.71
2466.83
2464.24
2461.95
2460
2458.38
2457.11
2456.19
2455.62
2455.43
2455.6
2456.16
2457.09
2458.41
2460.11
2462.21
2464.68
2467.55
2470.79
2474.41
2478.41
2482.77
2487.5
2492.57
2498
2503.75
2509.83
2516.22
2522.92
2529.9
2537.15
2544.66
2552.4
2560.35
2568.5
2576.84
2585.39
2594.13
2603.01
2611.98
2621.02
2630.09
2639.2
2648.36
2657.55
2666.76
2675.95
2685.12
2694.21
2703.2
2712.07
2720.79
2729.34
2737.7
2745.85
2753.76
2761.42
2768.8
2775.89
2782.66
2789.1
2795.18
2800.89
2806.21
2811.13
2815.62
2819.68
2823.28
2826.42
2829.08
2831.25
2832.92
2834.08
2834.71
2834.82
2834.38
2833.4
2831.87
2829.79
2827.15
2823.94
2820.17
2815.84
2810.94
2805.47
2799.44
2792.85
2785.71
2778.01
2769.76
2760.97
2751.65
2741.79
2731.42
2720.53
2709.14
2697.26
2684.89
2672.05
2658.75
2645
2630.81
2616.2
2601.18
2585.76
2569.95
2553.78
2537.24
2520.37
2503.16
2485.64
2467.82
2449.72
2431.35
2412.72
2393.85
2374.76
2355.46
2335.96
2316.29
2296.45
2276.47
2256.36
2236.13
2215.79
2195.35
2174.83
2154.25
2133.61
2112.94
2092.26
2071.58
2050.91
2030.28
2009.68
1989.13
1968.65
1948.23
1927.9
1907.66
1887.55
1867.57
1847.73
1828.03
1808.49
1789.12
1769.94
1750.94
1732.14
1713.56
1695.2
1677.07
1659.18
1641.53
1624.15
1607.03
1590.18
1573.62
1557.34
1541.36
1525.67
1510.3
1495.23
1480.48
1466.06
1451.95
1438.18
1424.74
1411.64
1398.88
1386.45
1374.37
1362.64
1351.24
1340.2
1329.5
1319.14
1309.13
1299.46
1290.14
1281.15
1272.51
1264.2
1256.22
1248.58
1241.26
1234.26
1227.59
1221.23
1215.18
1209.44
1203.99
1198.85
1193.99
1189.42
1185.12
1181.1
1177.34
1173.84
1170.6
1167.6
1164.83
1162.3
1159.99
1157.9
1156.02
1154.34
1152.86
1151.56
1150.44
1149.49
1148.7
1148.07
1147.59
1147.24
1147.03
1146.95
1146.98
1147.12
1147.37
1147.71
1148.14
1148.65
1149.23
1149.88
1150.59
1151.36
1152.17
1153.02
1153.91
1154.83
1155.77
1156.72
1157.69
1158.66
1159.63
1160.59
1161.55
1162.49
1163.41
1164.3
1165.17
1166.01
1166.81
1167.57
1168.29
1168.96
1169.59
1170.16
1170.68
1171.15
1171.57
1171.9
1172.18
1172.47
1172.38
1172.3
-438.551
-438.822
-439.115
-439.529
-440.111
-440.858
-441.77
-442.838
-444.061
-445.431
-446.943
-448.591
-450.366
-452.259
-454.262
-456.364
-458.554
-460.82
-463.15
-465.531
-467.948
-470.387
-472.834
-475.272
-477.687
-480.062
-482.381
-484.626
-486.78
-488.826
-490.747
-492.525
-494.142
-495.582
-496.826
-497.858
-498.661
-499.218
-499.513
-499.532
-499.258
-498.678
-497.778
-496.543
-494.963
-493.025
-490.72
-488.041
-484.978
-481.527
-477.683
-473.441
-468.799
-463.753
-458.301
-452.441
-446.177
-439.513
-432.453
-425.001
-417.163
-408.94
-400.337
-391.36
-382.014
-372.308
-362.254
-351.862
-341.139
-330.096
-318.738
-307.074
-295.109
-282.848
-270.297
-257.461
-244.343
-230.947
-217.276
-203.334
-189.122
-174.643
-159.898
-144.889
-129.616
-114.081
-98.2832
-82.2238
-65.903
-49.3208
-32.4775
-15.3731
1.99209
19.6181
37.5047
55.6517
74.059
92.7264
111.654
130.841
150.287
169.994
189.961
210.188
230.675
251.425
272.437
293.713
315.254
337.063
359.141
381.491
404.114
427.015
450.196
473.661
497.412
521.452
545.786
570.416
595.348
620.587
646.135
671.99
698.142
724.574
751.271
778.24
805.537
833.252
861.439
890.129
918.903
947.916
977.199
1006.77
1036.61
1066.73
1097.11
1127.74
1158.61
1189.69
1220.99
1252.47
1284.12
1315.93
1347.87
1379.92
1412.06
1444.26
1476.51
1508.77
1541.02
1573.23
1605.38
1637.43
1669.37
1701.15
1732.76
1764.16
1795.32
1826.22
1856.82
1887.09
1917.01
1946.55
1975.68
2004.37
2032.59
2060.32
2087.53
2114.2
2140.31
2165.82
2190.72
2214.98
2238.6
2261.54
2283.79
2305.34
2326.16
2346.25
2365.6
2384.19
2402.02
2419.08
2435.36
2450.85
2465.56
2479.49
2492.63
2504.98
2516.55
2527.35
2537.37
2546.63
2555.14
2562.9
2569.92
2576.22
2581.81
2586.71
2590.93
2594.5
2597.43
2599.75
2601.47
2602.63
2603.24
2603.32
2602.9
2602
2600.64
2598.85
2596.65
2594.06
2591.12
2587.84
2584.25
2580.38
2576.25
2571.9
2567.34
2562.61
2557.73
2552.73
2547.63
2542.47
2537.25
2532.02
2526.8
2521.6
2516.46
2511.4
2506.43
2501.59
2496.88
2492.35
2488.02
2483.85
2479.92
2476.23
2472.79
2469.62
2466.74
2464.15
2461.85
2459.89
2458.26
2456.98
2456.05
2455.48
2455.28
2455.46
2456.01
2456.94
2458.26
2459.97
2462.06
2464.54
2467.41
2470.65
2474.28
2478.28
2482.65
2487.38
2492.46
2497.89
2503.66
2509.75
2516.16
2522.86
2529.85
2537.1
2544.62
2552.39
2560.39
2568.61
2577
2585.5
2594.09
2602.76
2611.5
2620.36
2629.4
2638.61
2647.94
2657.3
2666.64
2675.92
2685.13
2694.26
2703.28
2712.17
2720.91
2729.48
2737.85
2746.01
2753.94
2761.6
2769
2776.09
2782.88
2789.32
2795.41
2801.13
2806.47
2811.39
2815.9
2819.96
2823.58
2826.72
2829.39
2831.57
2833.25
2834.41
2835.06
2835.17
2834.74
2833.77
2832.24
2830.17
2827.53
2824.33
2820.56
2816.23
2811.33
2805.87
2799.84
2793.25
2786.11
2778.41
2770.16
2761.37
2752.04
2742.18
2731.81
2720.91
2709.52
2697.63
2685.25
2672.41
2659.1
2645.34
2631.14
2616.52
2601.49
2586.05
2570.24
2554.05
2537.5
2520.61
2503.39
2485.85
2468.02
2449.9
2431.51
2412.86
2393.98
2374.87
2355.55
2336.03
2316.32
2296.44
2276.39
2256.2
2235.88
2215.46
2194.97
2174.42
2153.83
2133.23
2112.6
2091.96
2071.32
2050.69
2030.08
2009.49
1988.96
1968.48
1948.09
1927.79
1907.58
1887.48
1867.49
1847.64
1827.94
1808.39
1789.02
1769.82
1750.82
1732.01
1713.42
1695.05
1676.92
1659.02
1641.37
1623.98
1606.85
1590
1573.43
1557.15
1541.16
1525.47
1510.09
1495.02
1480.26
1465.83
1451.72
1437.95
1424.51
1411.4
1398.63
1386.2
1374.12
1362.38
1350.98
1339.93
1329.22
1318.87
1308.85
1299.18
1289.85
1280.86
1272.22
1263.9
1255.93
1248.28
1240.96
1233.96
1227.28
1220.92
1214.87
1209.12
1203.68
1198.53
1193.67
1189.1
1184.8
1180.78
1177.02
1173.52
1170.27
1167.27
1164.5
1161.97
1159.66
1157.57
1155.69
1154.01
1152.52
1151.22
1150.1
1149.14
1148.36
1147.72
1147.24
1146.9
1146.69
1146.6
1146.63
1146.77
1147.02
1147.36
1147.78
1148.29
1148.88
1149.53
1150.24
1151
1151.82
1152.67
1153.55
1154.47
1155.41
1156.36
1157.33
1158.3
1159.27
1160.23
1161.19
1162.13
1163.05
1163.94
1164.81
1165.65
1166.45
1167.21
1167.93
1168.61
1169.23
1169.8
1170.32
1170.78
1171.19
1171.51
1171.81
1172.14
1172.05
1171.98
-438.707
-438.958
-439.238
-439.654
-440.244
-441
-441.92
-442.996
-444.227
-445.607
-447.131
-448.791
-450.58
-452.489
-454.509
-456.629
-458.838
-461.125
-463.477
-465.88
-468.322
-470.787
-473.261
-475.727
-478.171
-480.576
-482.925
-485.202
-487.389
-489.468
-491.422
-493.234
-494.886
-496.361
-497.64
-498.707
-499.545
-500.136
-500.466
-500.519
-500.278
-499.73
-498.859
-497.651
-496.093
-494.175
-491.886
-489.221
-486.174
-482.737
-478.907
-474.678
-470.049
-465.019
-459.592
-453.769
-447.549
-440.929
-433.906
-426.474
-418.635
-410.393
-401.759
-392.747
-383.368
-373.633
-363.553
-353.135
-342.388
-331.319
-319.935
-308.245
-296.254
-283.967
-271.39
-258.528
-245.384
-231.963
-218.267
-204.3
-190.064
-175.561
-160.792
-145.759
-130.463
-114.904
-99.0837
-83.0017
-66.6584
-50.054
-33.1888
-16.0627
1.3241
18.9714
36.879
55.0469
73.4747
92.1623
111.11
130.316
149.783
169.508
189.494
209.74
230.246
251.013
272.043
293.336
314.894
336.718
358.812
381.177
403.815
426.73
449.924
473.402
497.166
521.219
545.566
570.209
595.152
620.398
645.952
671.819
698.003
724.503
751.319
778.434
805.833
833.54
861.603
889.882
918.535
947.514
976.799
1006.38
1036.23
1066.36
1096.75
1127.39
1158.27
1189.37
1220.68
1252.18
1283.85
1315.67
1347.63
1379.7
1411.86
1444.08
1476.35
1508.63
1540.91
1573.14
1605.31
1637.4
1669.36
1701.17
1732.8
1764.23
1795.42
1826.35
1856.98
1887.28
1917.23
1946.8
1975.95
2004.67
2032.92
2060.68
2087.92
2114.62
2140.75
2166.29
2191.21
2215.5
2239.14
2262.1
2284.37
2305.94
2326.79
2346.9
2366.26
2384.87
2402.71
2419.78
2436.07
2451.58
2466.29
2480.23
2493.37
2505.73
2517.3
2528.1
2538.12
2547.38
2555.88
2563.63
2570.64
2576.94
2582.52
2587.42
2591.64
2595.2
2598.12
2600.43
2602.14
2603.28
2603.86
2603.92
2603.47
2602.54
2601.15
2599.33
2597.09
2594.47
2591.49
2588.18
2584.56
2580.65
2576.49
2572.11
2567.52
2562.75
2557.84
2552.8
2547.67
2542.47
2537.23
2531.97
2526.71
2521.49
2516.32
2511.22
2506.23
2501.36
2496.63
2492.07
2487.69
2483.51
2479.55
2475.83
2472.36
2469.16
2466.24
2463.62
2461.33
2459.37
2457.73
2456.43
2455.49
2454.91
2454.69
2454.86
2455.4
2456.32
2457.63
2459.33
2461.42
2463.89
2466.75
2470
2473.62
2477.62
2481.99
2486.73
2491.81
2497.25
2503.02
2509.12
2515.53
2522.25
2529.25
2536.53
2544.06
2551.83
2559.84
2568.06
2576.49
2585.11
2593.87
2602.73
2611.67
2620.67
2629.73
2638.87
2648.08
2657.35
2666.64
2675.91
2685.14
2694.29
2703.33
2712.25
2721.02
2729.62
2738.02
2746.22
2754.17
2761.88
2769.3
2776.43
2783.24
2789.71
2795.83
2801.58
2806.94
2811.89
2816.42
2820.51
2824.15
2827.31
2830
2832.2
2833.89
2835.07
2835.73
2835.85
2835.43
2834.47
2832.96
2830.88
2828.25
2825.05
2821.29
2816.96
2812.06
2806.6
2800.57
2793.98
2786.83
2779.13
2770.87
2762.07
2752.74
2742.87
2732.48
2721.58
2710.18
2698.27
2685.89
2673.03
2659.71
2645.93
2631.72
2617.09
2602.04
2586.59
2570.75
2554.55
2537.99
2521.08
2503.84
2486.3
2468.45
2450.31
2431.91
2413.25
2394.35
2375.23
2355.9
2336.37
2316.67
2296.8
2276.78
2256.62
2236.34
2215.95
2195.47
2174.91
2154.28
2133.62
2112.92
2092.22
2071.51
2050.82
2030.16
2009.54
1988.97
1968.46
1948.02
1927.68
1907.45
1887.32
1867.32
1847.45
1827.73
1808.17
1788.78
1769.57
1750.55
1731.73
1713.13
1694.75
1676.59
1658.68
1641.02
1623.62
1606.48
1589.62
1573.03
1556.74
1540.74
1525.04
1509.65
1494.56
1479.8
1465.36
1451.24
1437.46
1424.01
1410.89
1398.12
1385.68
1373.59
1361.84
1350.44
1339.38
1328.67
1318.3
1308.28
1298.6
1289.27
1280.28
1271.62
1263.31
1255.32
1247.67
1240.35
1233.35
1226.67
1220.3
1214.25
1208.5
1203.05
1197.9
1193.04
1188.46
1184.16
1180.14
1176.38
1172.88
1169.63
1166.62
1163.86
1161.32
1159.02
1156.92
1155.04
1153.36
1151.87
1150.57
1149.45
1148.5
1147.71
1147.08
1146.59
1146.25
1146.04
1145.95
1145.99
1146.13
1146.37
1146.72
1147.14
1147.66
1148.24
1148.89
1149.6
1150.37
1151.18
1152.04
1152.93
1153.84
1154.78
1155.74
1156.71
1157.68
1158.65
1159.62
1160.57
1161.52
1162.44
1163.34
1164.21
1165.05
1165.85
1166.61
1167.33
1168.01
1168.64
1169.21
1169.72
1170.19
1170.61
1170.93
1171.23
1171.57
1171.47
1171.38
-438.923
-439.171
-439.455
-439.873
-440.469
-441.231
-442.159
-443.245
-444.488
-445.882
-447.42
-449.097
-450.905
-452.834
-454.876
-457.019
-459.254
-461.568
-463.948
-466.382
-468.856
-471.354
-473.863
-476.367
-478.849
-481.293
-483.683
-486.002
-488.231
-490.355
-492.354
-494.211
-495.909
-497.43
-498.756
-499.869
-500.753
-501.391
-501.767
-501.864
-501.667
-501.163
-500.335
-499.172
-497.658
-495.784
-493.537
-490.911
-487.897
-484.491
-480.686
-476.479
-471.867
-466.847
-461.42
-455.587
-449.35
-442.713
-435.677
-428.241
-420.408
-412.178
-403.556
-394.55
-385.171
-375.43
-365.337
-354.904
-344.138
-333.049
-321.643
-309.928
-297.912
-285.599
-272.996
-260.106
-246.936
-233.488
-219.765
-205.772
-191.509
-176.98
-162.186
-147.127
-131.806
-116.222
-100.376
-84.2694
-67.9012
-51.272
-34.382
-17.2313
0.179799
17.8512
35.7828
53.9741
72.425
91.1351
110.104
129.332
148.818
168.563
188.567
208.829
229.351
250.132
271.174
292.479
314.046
335.879
357.98
380.35
402.992
425.91
449.106
472.584
496.346
520.397
544.741
569.38
594.319
619.56
645.106
670.958
697.114
723.577
750.348
777.439
804.867
832.643
860.751
889.196
917.909
946.913
976.21
1005.8
1035.67
1065.81
1096.22
1126.88
1157.77
1188.9
1220.23
1251.75
1283.45
1315.3
1347.29
1379.39
1411.58
1443.84
1476.14
1508.46
1540.77
1573.05
1605.26
1637.39
1669.39
1701.24
1732.92
1764.39
1795.62
1826.59
1857.27
1887.61
1917.61
1947.22
1976.41
2005.17
2033.47
2061.27
2088.55
2115.28
2141.45
2167.03
2191.99
2216.31
2239.98
2262.98
2285.28
2306.87
2327.75
2347.88
2367.27
2385.9
2403.76
2420.84
2437.15
2452.66
2467.39
2481.33
2494.48
2506.85
2518.42
2529.22
2539.24
2548.5
2556.99
2564.74
2571.74
2578.02
2583.59
2588.46
2592.65
2596.19
2599.08
2601.36
2603.04
2604.15
2604.7
2604.72
2604.23
2603.26
2601.83
2599.96
2597.68
2595.01
2591.98
2588.62
2584.95
2581
2576.8
2572.36
2567.72
2562.91
2557.95
2552.87
2547.7
2542.46
2537.17
2531.86
2526.56
2521.3
2516.09
2510.95
2505.92
2501.01
2496.24
2491.64
2487.23
2483.02
2479.03
2475.27
2471.78
2468.55
2465.62
2462.98
2460.67
2458.66
2457
2455.69
2454.73
2454.13
2453.9
2454.05
2454.59
2455.5
2456.81
2458.5
2460.59
2463.07
2465.93
2469.18
2472.81
2476.82
2481.2
2485.95
2491.06
2496.51
2502.3
2508.43
2514.86
2521.6
2528.63
2535.94
2543.51
2551.33
2559.38
2567.64
2576.07
2584.66
2593.39
2602.22
2611.16
2620.22
2629.39
2638.67
2648.01
2657.36
2666.7
2676.02
2685.28
2694.47
2703.55
2712.51
2721.32
2729.97
2738.41
2746.65
2754.65
2762.39
2769.86
2777.03
2783.88
2790.39
2796.55
2802.34
2807.73
2812.72
2817.28
2821.4
2825.06
2828.26
2830.98
2833.2
2834.92
2836.12
2836.79
2836.94
2836.53
2835.59
2834.08
2832.02
2829.4
2826.21
2822.45
2818.12
2813.22
2807.76
2801.72
2795.13
2787.97
2780.26
2771.99
2763.18
2753.83
2743.94
2733.54
2722.61
2711.19
2699.26
2686.85
2673.96
2660.61
2646.81
2632.57
2617.91
2602.82
2587.34
2571.48
2555.24
2538.64
2521.7
2504.42
2486.84
2468.95
2450.78
2432.34
2413.64
2394.7
2375.54
2356.17
2336.59
2316.84
2296.92
2276.84
2256.63
2236.3
2215.87
2195.36
2174.79
2154.17
2133.51
2112.82
2092.12
2071.41
2050.72
2030.05
2009.41
1988.82
1968.29
1947.84
1927.47
1907.21
1887.06
1867.03
1847.14
1827.4
1807.81
1788.4
1769.16
1750.12
1731.29
1712.66
1694.26
1676.08
1658.15
1640.47
1623.05
1605.89
1589.01
1572.41
1556.1
1540.08
1524.36
1508.95
1493.86
1479.08
1464.62
1450.49
1436.7
1423.23
1410.1
1397.31
1384.86
1372.76
1361
1349.59
1338.52
1327.8
1317.42
1307.39
1297.71
1288.37
1279.37
1270.7
1262.38
1254.39
1246.73
1239.4
1232.4
1225.71
1219.34
1213.28
1207.53
1202.08
1196.93
1192.06
1187.48
1183.18
1179.15
1175.39
1171.89
1168.64
1165.63
1162.87
1160.33
1158.02
1155.93
1154.05
1152.36
1150.88
1149.58
1148.45
1147.5
1146.72
1146.08
1145.6
1145.26
1145.05
1144.97
1145
1145.14
1145.39
1145.73
1146.17
1146.68
1147.27
1147.92
1148.63
1149.4
1150.22
1151.08
1151.97
1152.89
1153.83
1154.79
1155.76
1156.73
1157.71
1158.68
1159.64
1160.59
1161.51
1162.41
1163.29
1164.13
1164.94
1165.7
1166.43
1167.11
1167.73
1168.31
1168.83
1169.3
1169.72
1170.06
1170.35
1170.69
1170.58
1170.49
-439.202
-439.458
-439.752
-440.176
-440.777
-441.547
-442.487
-443.587
-444.847
-446.259
-447.818
-449.518
-451.351
-453.307
-455.379
-457.554
-459.823
-462.174
-464.593
-467.068
-469.585
-472.129
-474.686
-477.239
-479.772
-482.27
-484.715
-487.09
-489.377
-491.56
-493.619
-495.537
-497.297
-498.879
-500.267
-501.443
-502.388
-503.088
-503.523
-503.679
-503.54
-503.09
-502.316
-501.202
-499.738
-497.91
-495.71
-493.129
-490.157
-486.79
-483.021
-478.846
-474.264
-469.271
-463.868
-458.053
-451.827
-445.189
-438.142
-430.688
-422.832
-414.581
-405.942
-396.921
-387.528
-377.772
-367.661
-357.207
-346.418
-335.303
-323.87
-312.127
-300.081
-287.737
-275.103
-262.182
-248.979
-235.499
-221.744
-207.719
-193.424
-178.862
-164.036
-148.945
-133.591
-117.974
-102.096
-85.9561
-69.5548
-52.8924
-35.969
-18.7847
-1.33988
16.3654
34.3307
52.5558
71.0403
89.7838
108.786
128.046
147.565
167.341
187.375
207.667
228.217
249.026
270.095
291.424
313.015
334.87
356.991
379.381
402.041
424.975
448.186
471.677
495.453
519.516
543.871
568.522
593.471
618.724
644.283
670.152
696.332
722.823
749.624
776.73
804.147
831.887
859.957
888.342
917.047
946.06
975.372
1004.98
1034.87
1065.03
1095.46
1126.14
1157.07
1188.22
1219.58
1251.14
1282.87
1314.76
1346.79
1378.94
1411.17
1443.48
1475.83
1508.19
1540.56
1572.88
1605.15
1637.33
1669.39
1701.3
1733.03
1764.56
1795.85
1826.88
1857.61
1888.02
1918.07
1947.74
1976.99
2005.81
2034.16
2062.01
2089.35
2116.14
2142.36
2167.98
2192.99
2217.36
2241.08
2264.12
2286.46
2308.09
2329
2349.17
2368.59
2387.25
2405.13
2422.24
2438.57
2454.1
2468.85
2482.8
2495.95
2508.32
2519.9
2530.69
2540.71
2549.95
2558.43
2566.16
2573.15
2579.41
2584.95
2589.8
2593.97
2597.47
2600.33
2602.58
2604.22
2605.28
2605.79
2605.77
2605.23
2604.21
2602.73
2600.81
2598.48
2595.75
2592.67
2589.25
2585.52
2581.51
2577.24
2572.75
2568.05
2563.18
2558.16
2553.02
2547.79
2542.48
2537.13
2531.77
2526.42
2521.09
2515.82
2510.63
2505.55
2500.59
2495.77
2491.12
2486.66
2482.4
2478.36
2474.57
2471.03
2467.77
2464.79
2462.12
2459.77
2457.74
2456.04
2454.7
2453.72
2453.1
2452.86
2452.99
2453.51
2454.41
2455.71
2457.4
2459.48
2461.95
2464.82
2468.07
2471.71
2475.73
2480.12
2484.88
2490
2495.47
2501.29
2507.43
2513.9
2520.67
2527.73
2535.08
2542.68
2550.54
2558.63
2566.94
2575.46
2584.15
2592.98
2601.93
2610.98
2620.11
2629.31
2638.59
2647.93
2657.31
2666.69
2676.06
2685.37
2694.61
2703.75
2712.76
2721.63
2730.33
2738.84
2747.13
2755.19
2762.99
2770.51
2777.73
2784.64
2791.21
2797.42
2803.25
2808.69
2813.73
2818.33
2822.5
2826.2
2829.44
2832.19
2834.45
2836.2
2837.43
2838.13
2838.3
2837.92
2836.99
2835.51
2833.46
2830.85
2827.67
2823.92
2819.59
2814.7
2809.23
2803.2
2796.6
2789.43
2781.71
2773.43
2764.61
2755.24
2745.34
2734.92
2723.97
2712.52
2700.57
2688.13
2675.22
2661.84
2648.01
2633.74
2619.04
2603.93
2588.41
2572.51
2556.24
2539.61
2522.63
2505.32
2487.7
2469.77
2451.57
2433.09
2414.36
2395.38
2376.19
2356.78
2337.18
2317.4
2297.45
2277.35
2257.11
2236.75
2216.29
2195.73
2175.11
2154.42
2133.69
2112.94
2092.18
2071.42
2050.67
2029.96
2009.27
1988.65
1968.08
1947.59
1927.19
1906.89
1886.71
1866.65
1846.72
1826.95
1807.33
1787.89
1768.63
1749.56
1730.69
1712.03
1693.6
1675.4
1657.45
1639.74
1622.29
1605.11
1588.2
1571.58
1555.24
1539.2
1523.46
1508.03
1492.92
1478.12
1463.64
1449.49
1435.67
1422.19
1409.05
1396.24
1383.78
1371.66
1359.88
1348.46
1337.37
1326.64
1316.25
1306.21
1296.51
1287.16
1278.15
1269.48
1261.15
1253.15
1245.48
1238.15
1231.13
1224.44
1218.07
1212
1206.24
1200.79
1195.63
1190.76
1186.18
1181.88
1177.85
1174.08
1170.58
1167.32
1164.32
1161.55
1159.02
1156.71
1154.61
1152.73
1151.05
1149.56
1148.26
1147.14
1146.19
1145.4
1144.77
1144.29
1143.95
1143.74
1143.66
1143.7
1143.84
1144.09
1144.44
1144.87
1145.39
1145.97
1146.63
1147.35
1148.12
1148.94
1149.8
1150.69
1151.62
1152.56
1153.53
1154.5
1155.48
1156.46
1157.43
1158.4
1159.35
1160.28
1161.18
1162.06
1162.9
1163.71
1164.48
1165.21
1165.89
1166.53
1167.11
1167.63
1168.1
1168.53
1168.86
1169.16
1169.5
1169.39
1169.29
-439.541
-439.805
-440.108
-440.54
-441.15
-441.931
-442.886
-444.005
-445.286
-446.722
-448.308
-450.038
-451.903
-453.895
-456.005
-458.222
-460.535
-462.932
-465.401
-467.929
-470.501
-473.103
-475.72
-478.336
-480.935
-483.5
-486.015
-488.461
-490.821
-493.078
-495.212
-497.207
-499.043
-500.703
-502.169
-503.422
-504.445
-505.22
-505.731
-505.961
-505.895
-505.516
-504.81
-503.764
-502.363
-500.597
-498.454
-495.926
-493.005
-489.683
-485.955
-481.817
-477.265
-472.298
-466.914
-461.115
-454.899
-448.269
-441.225
-433.771
-425.91
-417.648
-408.992
-399.953
-390.538
-380.757
-370.62
-360.137
-349.317
-338.168
-326.699
-314.919
-302.833
-290.45
-277.774
-264.812
-251.568
-238.045
-224.249
-210.181
-195.844
-181.24
-166.37
-151.237
-135.84
-120.181
-104.26
-88.077
-71.6327
-54.9272
-37.9606
-20.7333
-3.2454
14.5027
32.5106
50.7779
69.3041
88.0887
107.131
126.431
145.987
165.8
185.87
206.196
226.778
247.617
268.714
290.07
311.685
333.562
355.703
378.11
400.786
423.734
446.957
470.459
494.242
518.312
542.672
567.326
592.278
617.531
643.089
668.954
695.13
721.62
748.426
775.552
803.002
830.778
858.878
887.291
916.011
945.037
974.365
1003.99
1033.9
1064.09
1094.55
1125.26
1156.22
1187.41
1218.81
1250.41
1282.19
1314.13
1346.2
1378.4
1410.69
1443.05
1475.46
1507.89
1540.32
1572.71
1605.04
1637.29
1669.42
1701.4
1733.2
1764.8
1796.17
1827.27
1858.07
1888.55
1918.68
1948.42
1977.75
2006.64
2035.05
2062.98
2090.38
2117.24
2143.52
2169.21
2194.28
2218.71
2242.48
2265.57
2287.96
2309.65
2330.6
2350.81
2370.27
2388.96
2406.88
2424.01
2440.36
2455.92
2470.68
2484.64
2497.81
2510.18
2521.76
2532.55
2542.57
2551.8
2560.27
2567.98
2574.95
2581.18
2586.7
2591.52
2595.65
2599.12
2601.94
2604.13
2605.73
2606.74
2607.19
2607.11
2606.51
2605.42
2603.87
2601.88
2599.47
2596.68
2593.52
2590.02
2586.22
2582.13
2577.79
2573.21
2568.44
2563.49
2558.4
2553.18
2547.87
2542.49
2537.07
2531.63
2526.2
2520.81
2515.47
2510.21
2505.06
2500.03
2495.15
2490.44
2485.91
2481.59
2477.5
2473.65
2470.07
2466.75
2463.73
2461.02
2458.62
2456.56
2454.83
2453.46
2452.44
2451.8
2451.53
2451.65
2452.15
2453.04
2454.32
2456.01
2458.08
2460.56
2463.42
2466.68
2470.33
2474.36
2478.77
2483.55
2488.69
2494.19
2500.04
2506.22
2512.72
2519.53
2526.63
2534.02
2541.68
2549.58
2557.72
2566.08
2574.63
2583.35
2592.23
2601.24
2610.37
2619.61
2628.93
2638.33
2647.76
2657.22
2666.68
2676.12
2685.5
2694.81
2704.02
2713.11
2722.05
2730.83
2739.41
2747.78
2755.91
2763.78
2771.37
2778.67
2785.64
2792.28
2798.55
2804.45
2809.96
2815.05
2819.71
2823.93
2827.69
2830.97
2833.77
2836.07
2837.86
2839.13
2839.86
2840.06
2839.71
2838.81
2837.34
2835.31
2832.71
2829.54
2825.8
2821.48
2816.59
2811.12
2805.08
2798.47
2791.29
2783.56
2775.26
2766.42
2757.03
2747.1
2736.65
2725.67
2714.19
2702.2
2689.73
2676.77
2663.35
2649.48
2635.16
2620.42
2605.26
2589.69
2573.74
2557.42
2540.73
2523.7
2506.34
2488.66
2470.68
2452.42
2433.88
2415.09
2396.06
2376.81
2357.34
2337.68
2317.84
2297.84
2277.69
2257.4
2237
2216.49
2195.91
2175.25
2154.53
2133.78
2112.99
2092.19
2071.39
2050.6
2029.83
2009.11
1988.43
1967.82
1947.29
1926.84
1906.5
1886.28
1866.17
1846.21
1826.39
1806.74
1787.26
1767.96
1748.85
1729.94
1711.25
1692.79
1674.56
1656.56
1638.82
1621.34
1604.13
1587.19
1570.54
1554.17
1538.1
1522.34
1506.88
1491.74
1476.91
1462.41
1448.24
1434.4
1420.9
1407.73
1394.9
1382.42
1370.28
1358.49
1347.04
1335.94
1325.19
1314.79
1304.73
1295.02
1285.66
1276.63
1267.95
1259.61
1251.6
1243.92
1236.58
1229.56
1222.85
1216.47
1210.4
1204.64
1199.18
1194.01
1189.14
1184.55
1180.25
1176.21
1172.44
1168.94
1165.68
1162.68
1159.91
1157.37
1155.06
1152.97
1151.08
1149.4
1147.91
1146.61
1145.49
1144.54
1143.76
1143.13
1142.65
1142.31
1142.11
1142.03
1142.07
1142.21
1142.47
1142.81
1143.25
1143.77
1144.36
1145.02
1145.74
1146.52
1147.34
1148.2
1149.1
1150.03
1150.98
1151.95
1152.92
1153.91
1154.89
1155.87
1156.84
1157.79
1158.72
1159.63
1160.52
1161.37
1162.18
1162.95
1163.68
1164.37
1165
1165.59
1166.11
1166.59
1167.02
1167.36
1167.65
1167.99
1167.89
1167.79
-439.936
-440.204
-440.515
-440.956
-441.578
-442.373
-443.347
-444.488
-445.795
-447.261
-448.88
-450.647
-452.552
-454.588
-456.746
-459.013
-461.381
-463.836
-466.367
-468.959
-471.599
-474.272
-476.962
-479.655
-482.333
-484.98
-487.579
-490.111
-492.559
-494.905
-497.13
-499.217
-501.146
-502.899
-504.457
-505.803
-506.918
-507.785
-508.386
-508.705
-508.724
-508.43
-507.806
-506.838
-505.514
-503.82
-501.746
-499.283
-496.422
-493.155
-489.476
-485.381
-480.867
-475.93
-470.57
-464.786
-458.58
-451.952
-444.906
-437.445
-429.575
-421.3
-412.63
-403.571
-394.132
-384.325
-374.157
-363.641
-352.784
-341.596
-330.086
-318.263
-306.133
-293.703
-280.98
-267.97
-254.677
-241.106
-227.26
-213.142
-198.755
-184.1
-169.181
-153.996
-138.549
-122.839
-106.866
-90.6315
-74.1354
-57.3778
-40.3591
-23.0795
-5.53933
12.2609
30.3208
48.6397
67.2169
86.0519
105.144
124.492
144.096
163.955
184.068
204.437
225.059
245.937
267.07
288.459
310.106
332.012
354.18
376.611
399.309
422.276
445.516
469.033
492.83
516.912
541.283
565.946
590.907
616.169
641.735
667.61
693.795
720.294
747.107
774.237
801.689
829.464
857.563
885.982
914.717
943.763
973.113
1002.76
1032.7
1062.92
1093.41
1124.16
1155.16
1186.39
1217.84
1249.49
1281.32
1313.32
1345.46
1377.71
1410.07
1442.5
1474.98
1507.49
1539.99
1572.46
1604.87
1637.2
1669.41
1701.48
1733.37
1765.06
1796.51
1827.7
1858.59
1889.16
1919.37
1949.2
1978.62
2007.59
2036.1
2064.11
2091.59
2118.53
2144.89
2170.65
2195.8
2220.3
2244.14
2267.29
2289.75
2311.49
2332.5
2352.76
2372.26
2391
2408.96
2426.13
2442.51
2458.09
2472.87
2486.85
2500.03
2512.41
2523.99
2534.78
2544.78
2554
2562.45
2570.14
2577.08
2583.29
2588.77
2593.55
2597.63
2601.06
2603.83
2605.97
2607.51
2608.46
2608.84
2608.69
2608.02
2606.86
2605.23
2603.16
2600.67
2597.79
2594.54
2590.96
2587.07
2582.89
2578.46
2573.79
2568.93
2563.89
2558.7
2553.39
2547.99
2542.52
2537.01
2531.48
2525.96
2520.48
2515.06
2509.72
2504.48
2499.38
2494.42
2489.63
2485.03
2480.65
2476.49
2472.58
2468.93
2465.56
2462.48
2459.71
2457.27
2455.15
2453.39
2451.97
2450.92
2450.25
2449.95
2450.04
2450.52
2451.4
2452.67
2454.34
2456.41
2458.89
2461.76
2465.02
2468.68
2472.73
2477.16
2481.96
2487.13
2492.66
2498.54
2504.76
2511.31
2518.16
2525.32
2532.77
2540.49
2548.46
2556.67
2565.1
2573.74
2582.56
2591.53
2600.63
2609.85
2619.17
2628.57
2638.03
2647.55
2657.09
2666.64
2676.16
2685.63
2695.03
2704.33
2713.5
2722.53
2731.4
2740.07
2748.52
2756.74
2764.7
2772.38
2779.76
2786.82
2793.54
2799.89
2805.87
2811.44
2816.61
2821.34
2825.62
2829.44
2832.79
2835.64
2837.99
2839.83
2841.14
2841.92
2842.16
2841.84
2840.97
2839.53
2837.52
2834.94
2831.78
2828.05
2823.74
2818.85
2813.38
2807.33
2800.71
2793.53
2785.77
2777.46
2768.59
2759.17
2749.22
2738.73
2727.72
2716.2
2704.18
2691.66
2678.66
2665.2
2651.27
2636.91
2622.11
2606.9
2591.28
2575.27
2558.89
2542.14
2525.05
2507.63
2489.9
2471.86
2453.54
2434.94
2416.09
2397
2377.69
2358.17
2338.45
2318.55
2298.49
2278.28
2257.93
2237.46
2216.9
2196.24
2175.51
2154.73
2133.91
2113.07
2092.21
2071.35
2050.5
2029.68
2008.9
1988.17
1967.5
1946.92
1926.42
1906.03
1885.75
1865.6
1845.59
1825.73
1806.02
1786.49
1767.15
1748
1729.05
1710.32
1691.81
1673.54
1655.5
1637.72
1620.21
1602.95
1585.98
1569.29
1552.89
1536.79
1520.99
1505.5
1490.32
1475.47
1460.94
1446.74
1432.87
1419.34
1406.15
1393.29
1380.79
1368.63
1356.81
1345.34
1334.23
1323.46
1313.03
1302.96
1293.23
1283.85
1274.81
1266.12
1257.76
1249.74
1242.05
1234.69
1227.66
1220.95
1214.56
1208.48
1202.71
1197.24
1192.07
1187.19
1182.6
1178.29
1174.25
1170.48
1166.97
1163.71
1160.71
1157.94
1155.4
1153.09
1150.99
1149.11
1147.43
1145.94
1144.64
1143.52
1142.58
1141.79
1141.17
1140.69
1140.35
1140.15
1140.07
1140.11
1140.26
1140.52
1140.87
1141.31
1141.83
1142.43
1143.09
1143.82
1144.6
1145.42
1146.29
1147.19
1148.12
1149.08
1150.05
1151.03
1152.02
1153.01
1153.99
1154.96
1155.92
1156.86
1157.77
1158.66
1159.51
1160.33
1161.11
1161.85
1162.53
1163.17
1163.76
1164.29
1164.77
1165.2
1165.54
1165.83
1166.18
1166.08
1165.98
-440.382
-440.655
-440.972
-441.423
-442.059
-442.872
-443.868
-445.036
-446.374
-447.875
-449.534
-451.345
-453.298
-455.387
-457.601
-459.929
-462.362
-464.886
-467.489
-470.158
-472.878
-475.635
-478.413
-481.196
-483.967
-486.71
-489.407
-492.041
-494.592
-497.043
-499.374
-501.568
-503.605
-505.466
-507.133
-508.588
-509.81
-510.784
-511.49
-511.912
-512.033
-511.837
-511.309
-510.433
-509.197
-507.587
-505.593
-503.205
-500.413
-497.209
-493.588
-489.544
-485.073
-480.173
-474.842
-469.081
-462.889
-456.269
-449.224
-441.757
-433.875
-425.584
-416.893
-407.809
-398.341
-388.501
-378.297
-367.74
-356.84
-345.607
-334.048
-322.174
-309.992
-297.509
-284.731
-271.665
-258.315
-244.686
-230.782
-216.606
-202.161
-187.447
-172.468
-157.224
-141.716
-125.946
-109.912
-93.6167
-77.0591
-60.2399
-43.1593
-25.8177
-8.21552
9.64658
27.768
46.148
64.7856
83.6801
102.83
122.236
141.895
161.808