/*--------------------------------*- C++ -*----------------------------------*\
| =========                 |                                                 |
| \\      /  F ield         | OpenFOAM: The Open Source CFD Toolbox           |
|  \\    /   O peration     | Version:  v2006                                 |
|   \\  /    A nd           | Website:  www.openfoam.com                      |
|    \\/     M anipulation  |                                                 |
\*---------------------------------------------------------------------------*/
FoamFile
{
    version     2.0;
    format      ascii;
    class       volScalarField;
    location    "6.9";
    object      p;
}
// * * * * * * * * * * * * * * * * * * * * * * * * * * * * * * * * * * * * * //

dimensions      [1 -1 -2 0 0 0 0];


internalField   nonuniform List<scalar> 
150000
(
25701
25701.7
25702.9
25704.7
25707.2
25710.3
25713.9
25718.2
25723.1
25728.6
25734.6
25741.2
25748.3
25756
25764.3
25773
25782.2
25792
25802.1
25812.8
25823.8
25835.3
25847.2
25859.4
25872
25885
25898.2
25911.7
25925.5
25939.6
25953.9
25968.3
25983
25997.8
26012.8
26027.9
26043
26058.2
26073.4
26088.6
26103.7
26118.9
26134
26149
26164
26179
26193.9
26208.8
26223.6
26238.2
26252.5
26266.7
26280.5
26293.9
26306.8
26319.3
26331.2
26342.7
26353.9
26365.3
26376.5
26387.5
26398
26407.9
26417.2
26426.1
26434.4
26442.2
26449.5
26456.2
26462.3
26467.9
26472.8
26477.2
26480.9
26483.9
26486.4
26488.2
26489.3
26489.7
26489.4
26488.5
26486.8
26484.4
26481.3
26477.5
26472.9
26467.5
26461.4
26454.6
26446.9
26438.5
26429.3
26419.3
26408.4
26396.7
26384.2
26370.9
26356.8
26341.9
26326.2
26309.7
26292.4
26274.1
26254.9
26234.7
26213.5
26191.4
26168.4
26144.5
26119.7
26094
26067.2
26039.6
26011.1
25981.6
25951.2
25920
25887.8
25854.7
25820.7
25785.8
25750.1
25713.4
25675.8
25637.4
25598
25557.8
25516.7
25474.7
25431.8
25388.1
25343.5
25298.1
25251.8
25204.7
25156.7
25107.9
25058.3
25008
24956.8
24904.9
24852.2
24798.9
24744.7
24689.9
24634.2
24577.9
24520.8
24463.1
24404.7
24345.5
24285.8
24225.3
24164.3
24102.6
24040.3
23977.3
23913.8
23849.6
23784.8
23719.5
23653.5
23587
23519.9
23452.2
23384
23315.3
23246.1
23176.4
23106.1
23035.4
22964.2
22892.5
22820.3
22747.7
22674.5
22601
22527
22452.5
22377.6
22302.1
22226.3
22149.9
22073.2
21996
21918.5
21840.7
21762.5
21684.1
21605.3
21526.4
21447.2
21367.8
21288.2
21208.4
21128.5
21048.5
20968.4
20888.3
20808.1
20727.9
20647.8
20567.7
20487.7
20407.9
20328.3
20248.8
20169.6
20090.8
20012.2
19934.1
19856.3
19779
19702.3
19626
19550.4
19475.4
19401.1
19327.4
19254.6
19182.5
19111.3
19040.9
18971.5
18903
18835.4
18768.8
18703.2
18638.7
18575.3
18512.9
18451.6
18391.5
18332.5
18274.6
18217.9
18162.3
18107.9
18054.6
18002.5
17951.5
17901.8
17853.2
17805.8
17759.5
17714.4
17670.4
17627.5
17585.8
17545.1
17505.5
17467
17429.6
17393.3
17357.9
17323.6
17290.3
17258
17226.7
17196.4
17167
17138.5
17111
17084.3
17058.6
17033.7
17009.7
16986.5
16964.1
16942.5
16921.7
16901.7
16882.5
16864
16846.2
16829.1
16812.6
16796.9
16781.8
16767.3
16753.5
16740.3
16727.6
16715.5
16703.9
16692.9
16682.4
16672.4
16662.9
16653.9
16645.3
16637.1
16629.4
16622.1
16615.2
16608.6
16602.4
16596.6
16591.1
16585.9
16581.1
16576.5
16572.3
16568.3
16564.6
16561.1
16557.9
16554.9
16552.1
16549.6
16547.3
16545.1
16543.2
16541.5
16539.9
16538.5
16537.3
16536.2
16535.3
16534.5
16533.9
16533.4
16533
16532.7
16532.6
16532.6
16532.7
16532.9
16533.3
16533.7
16534.2
16534.8
16535.5
16536.3
16537.1
16538
16539.1
16540.1
16541.3
16542.5
16543.8
16545.1
16546.5
16547.9
16549.4
16551
16552.6
16554.2
16555.9
16557.6
16559.4
16561.2
16563.1
16565
16567
16568.9
16571
16573.1
16575.2
16577.4
16579.6
16581.9
16584.2
16586.6
16589
16591.5
16594.1
16596.8
16599.5
16602.3
16605.3
16608.3
16611.4
16614.6
16617.9
16621.4
16625
16628.7
16632.6
16636.7
16640.9
16645.3
16649.9
16654.7
16659.7
16664.9
16670.3
16676
16682
16688.2
16694.7
16701.4
16708.5
16715.9
16723.6
16731.6
16739.9
16748.6
16757.7
16767.1
16776.9
16787.1
16797.7
16808.7
16820
16831.8
16844.1
16856.7
16869.8
16883.3
16897.2
16911.6
16926.4
16941.7
16957.5
16973.6
16990.3
17007.4
17024.9
17042.9
17061.3
17080.1
17099.4
17119.1
17139.3
17159.8
17180.8
17202.2
17223.9
17246.1
17268.6
17291.5
17314.7
17338.3
17362.1
17386.3
17410.8
17435.6
17460.6
17485.8
17511.3
17536.9
17562.8
17588.8
17614.9
17641.2
17667.6
17694
17720.5
17747.1
17773.6
17800.1
17826.6
17853.1
17879.4
17905.7
17931.8
17957.7
17983.4
18009
18034.3
18059.3
18084.1
18108.5
18132.6
18156.3
18179.6
18202.6
18225
18247.1
18268.6
18289.6
18310.1
18330
18349.4
18368.1
18386.3
18403.8
18420.6
18436.8
18452.3
18467
18481
18494.3
18506.9
18518.6
18529.6
18539.8
18549.1
18557.7
18565.4
18572.3
18578.3
18583.5
18587.8
18591.3
18593.9
18595.6
18596.6
25373.4
25374
25375.3
25377.1
25379.6
25382.7
25386.4
25390.6
25395.5
25401
25407
25413.6
25420.8
25428.5
25436.7
25445.5
25454.7
25464.5
25474.7
25485.3
25496.4
25507.9
25519.8
25532.1
25544.7
25557.6
25570.9
25584.4
25598.3
25612.3
25626.6
25641.1
25655.8
25670.7
25685.6
25700.7
25715.9
25731.1
25746.3
25761.5
25776.7
25791.9
25807.1
25822.2
25837.2
25852.2
25867.1
25882
25896.6
25911.2
25925.5
25939.6
25953.4
25966.8
25979.8
25992.4
26004.4
26016
26027.4
26038.7
26049.9
26060.8
26071.3
26081.2
26090.5
26099.3
26107.7
26115.5
26122.8
26129.6
26135.7
26141.2
26146.2
26150.5
26154.2
26157.3
26159.7
26161.5
26162.6
26163.1
26162.8
26161.8
26160.2
26157.8
26154.7
26150.9
26146.3
26140.9
26134.8
26128
26120.4
26112
26102.8
26092.8
26081.9
26070.1
26057.5
26044.1
26030
26015.2
25999.6
25983.2
25966
25947.9
25928.9
25908.8
25887.7
25865.6
25842.6
25818.5
25793.5
25767.6
25740.9
25713.2
25684.7
25655.2
25624.9
25593.6
25561.4
25528.3
25494.3
25459.4
25423.7
25387
25349.4
25311
25271.6
25231.4
25190.3
25148.3
25105.5
25061.7
25017.2
24971.8
24925.5
24878.4
24830.4
24781.5
24732
24681.6
24630.5
24578.5
24525.8
24472.3
24418.1
24363.2
24307.6
24251.2
24194.2
24136.4
24077.9
24018.8
23959.1
23898.6
23837.6
23775.9
23713.6
23650.7
23587.1
23523
23458.2
23392.8
23326.8
23260.3
23193.2
23125.5
23057.3
22988.6
22919.3
22849.6
22779.3
22708.6
22637.4
22565.6
22493.5
22420.8
22347.7
22274.1
22200
22125.5
22050.6
21975.1
21899.2
21822.9
21746.1
21669
21591.5
21513.6
21435.5
21357
21278.3
21199.4
21120.2
21040.7
20961.1
20881.4
20801.5
20721.4
20641.3
20561.2
20481
20400.7
20320.6
20240.5
20160.5
20080.6
20000.9
19921.5
19842.2
19763.3
19684.7
19606.5
19528.8
19451.5
19374.6
19298.4
19222.7
19147.7
19073.3
18999.7
18926.8
18854.7
18783.4
18713
18643.5
18575
18507.4
18440.8
18375.3
18310.7
18247.3
18184.9
18123.6
18063.5
18004.4
17946.5
17889.8
17834.2
17779.9
17726.6
17674.6
17623.7
17574
17525.4
17478
17431.8
17386.6
17342.6
17299.8
17258
17217.3
17177.8
17139.3
17101.9
17065.5
17030.2
16995.9
16962.6
16930.3
16899
16868.7
16839.3
16810.8
16783.3
16756.6
16730.9
16706
16682
16658.8
16636.5
16614.9
16594.1
16574.1
16554.9
16536.4
16518.6
16501.5
16485.1
16469.4
16454.3
16439.8
16426
16412.7
16400.1
16388
16376.5
16365.5
16355
16345
16335.5
16326.5
16317.9
16309.7
16302
16294.7
16287.8
16281.3
16275.1
16269.3
16263.8
16258.6
16253.8
16249.2
16245
16241
16237.3
16233.8
16230.6
16227.6
16224.9
16222.4
16220
16217.9
16216
16214.3
16212.7
16211.3
16210.1
16209
16208.1
16207.3
16206.7
16206.2
16205.8
16205.6
16205.5
16205.5
16205.6
16205.8
16206.1
16206.5
16207.1
16207.7
16208.4
16209.1
16210
16210.9
16212
16213
16214.2
16215.4
16216.7
16218
16219.4
16220.9
16222.4
16223.9
16225.5
16227.1
16228.8
16230.6
16232.3
16234.2
16236
16237.9
16239.9
16241.9
16243.9
16246
16248.1
16250.3
16252.5
16254.8
16257.1
16259.5
16261.9
16264.4
16267
16269.7
16272.4
16275.2
16278.2
16281.2
16284.3
16287.5
16290.8
16294.3
16297.9
16301.6
16305.5
16309.5
16313.8
16318.2
16322.7
16327.5
16332.5
16337.7
16343.2
16348.8
16354.8
16361
16367.5
16374.2
16381.3
16388.6
16396.3
16404.3
16412.7
16421.4
16430.4
16439.8
16449.6
16459.8
16470.4
16481.4
16492.7
16504.5
16516.8
16529.4
16542.5
16556
16569.9
16584.3
16599.1
16614.4
16630.1
16646.3
16663
16680
16697.6
16715.5
16734
16752.8
16772.1
16791.8
16812
16832.6
16853.5
16874.9
16896.7
16918.8
16941.4
16964.2
16987.5
17011
17034.9
17059.1
17083.6
17108.4
17133.4
17158.6
17184.1
17209.8
17235.6
17261.7
17287.8
17314.1
17340.5
17367
17393.5
17420
17446.6
17473.2
17499.7
17526.1
17552.5
17578.7
17604.9
17630.8
17656.6
17682.1
17707.4
17732.5
17757.3
17781.7
17805.8
17829.6
17852.9
17875.9
17898.4
17920.4
17941.9
17963
17983.5
18003.4
18022.8
18041.6
18059.7
18077.2
18094.1
18110.3
18125.8
18140.5
18154.6
18167.9
18180.4
18192.2
18203.2
18213.3
18222.7
18231.3
18239
18245.9
18251.9
18257.1
18261.4
18264.9
18267.5
18269.2
18270.2
25045.4
25046.1
25047.3
25049.1
25051.6
25054.7
25058.4
25062.7
25067.6
25073
25079.1
25085.7
25092.9
25100.6
25108.9
25117.7
25127
25136.7
25146.9
25157.6
25168.7
25180.3
25192.2
25204.5
25217.1
25230.1
25243.4
25257
25270.9
25285
25299.3
25313.8
25328.6
25343.4
25358.5
25373.6
25388.8
25404
25419.3
25434.6
25449.8
25465.1
25480.2
25495.4
25510.5
25525.5
25540.4
25555.3
25570
25584.5
25598.8
25612.9
25626.6
25640.1
25653.2
25665.9
25678.2
25690.1
25701.8
25713.1
25724.2
25735
25745.3
25755.1
25764.5
25773.4
25781.7
25789.5
25796.8
25803.5
25809.6
25815.2
25820.2
25824.5
25828.3
25831.4
25833.8
25835.6
25836.8
25837.2
25837
25836.1
25834.4
25832
25829
25825.1
25820.6
25815.2
25809.1
25802.3
25794.6
25786.2
25777
25767
25756.1
25744.5
25732
25718.7
25704.6
25689.7
25673.9
25657.4
25640
25621.6
25602.4
25582.2
25561
25538.9
25515.9
25491.9
25467.1
25441.3
25414.6
25387.1
25358.5
25329.1
25298.8
25267.6
25235.5
25202.4
25168.5
25133.6
25097.8
25061.2
25023.6
24985.2
24945.8
24905.6
24864.5
24822.5
24779.7
24736
24691.4
24646
24599.8
24552.7
24504.8
24456.2
24406.5
24356.1
24305
24253
24200.3
24146.8
24092.6
24037.7
23982.1
23925.7
23868.7
23810.9
23752.5
23693.4
23633.6
23573.1
23512
23450.3
23387.9
23324.9
23261.3
23197
23132.2
23066.8
23000.8
22934.2
22867
22799.3
22731.1
22662.3
22593
22523.2
22452.9
22382.1
22310.8
22239
22166.8
22094
22020.8
21947.2
21873
21798.5
21723.4
21648
21572
21495.7
21419
21341.8
21264.3
21186.5
21108.4
21029.9
20951.2
20872.2
20793
20713.5
20633.9
20554.1
20474.2
20394.1
20313.9
20233.7
20153.5
20073.2
19993
19912.9
19832.8
19752.9
19673.2
19593.7
19514.4
19435.5
19356.9
19278.6
19200.8
19123.4
19046.6
18970.3
18894.6
18819.5
18745.1
18671.4
18598.5
18526.4
18455.1
18384.7
18315.2
18246.6
18179
18112.4
18046.8
17982.3
17918.8
17856.4
17795.2
17735
17675.9
17618.1
17561.3
17505.7
17451.3
17398.1
17346
17295.2
17245.4
17196.9
17149.4
17103.2
17058.1
17014.1
16971.2
16929.5
16888.8
16849.3
16810.8
16773.4
16737
16701.7
16667.4
16634.2
16601.9
16570.6
16540.3
16510.9
16482.5
16454.9
16428.3
16402.6
16377.7
16353.7
16330.6
16308.2
16286.7
16265.9
16246
16226.7
16208.2
16190.5
16173.4
16157
16141.3
16126.2
16111.8
16098
16084.8
16072.2
16060.1
16048.6
16037.6
16027.1
16017.2
16007.7
15998.7
15990.1
15982
15974.3
15967
15960.1
15953.6
15947.4
15941.6
15936.2
15931
15926.2
15921.7
15917.4
15913.5
15909.8
15906.3
15903.1
15900.2
15897.4
15894.9
15892.6
15890.5
15888.6
15886.8
15885.3
15883.9
15882.7
15881.6
15880.7
15879.9
15879.3
15878.8
15878.5
15878.3
15878.1
15878.1
15878.3
15878.5
15878.8
15879.2
15879.8
15880.4
15881.1
15881.9
15882.7
15883.7
15884.7
15885.8
15887
15888.2
15889.5
15890.8
15892.2
15893.6
15895.1
15896.7
15898.3
15900
15901.6
15903.4
15905.2
15907
15908.9
15910.8
15912.7
15914.7
15916.7
15918.8
15921
15923.1
15925.4
15927.6
15930
15932.3
15934.8
15937.3
15939.9
15942.5
15945.3
15948.1
15951
15954
15957.1
15960.3
15963.6
15967.1
15970.7
15974.4
15978.3
15982.3
15986.5
15990.9
15995.4
16000.2
16005.2
16010.4
16015.8
16021.5
16027.4
16033.6
16040.1
16046.8
16053.8
16061.2
16068.9
16076.9
16085.2
16093.9
16102.9
16112.3
16122.1
16132.3
16142.8
16153.8
16165.2
16177
16189.2
16201.8
16214.9
16228.4
16242.3
16256.7
16271.5
16286.8
16302.5
16318.7
16335.3
16352.4
16369.9
16387.9
16406.3
16425.2
16444.5
16464.2
16484.4
16505
16526
16547.4
16569.1
16591.3
16613.8
16636.7
16660
16683.6
16707.5
16731.7
16756.2
16781
16806
16831.3
16856.8
16882.5
16908.4
16934.4
16960.6
16987
17013.4
17039.9
17066.4
17093
17119.6
17146.2
17172.7
17199.2
17225.6
17251.9
17278.1
17304
17329.8
17355.4
17380.8
17405.9
17430.7
17455.2
17479.3
17503.1
17526.5
17549.4
17572
17594
17615.6
17636.7
17657.2
17677.2
17696.6
17715.4
17733.6
17751.1
17768
17784.2
17799.7
17814.5
17828.5
17841.9
17854.4
17866.2
17877.2
17887.4
17896.8
17905.4
17913.1
17920
17926
17931.2
17935.6
17939
17941.6
17943.3
17944.3
24717
24717.6
24718.9
24720.7
24723.2
24726.3
24730
24734.3
24739.2
24744.7
24750.8
24757.4
24764.6
24772.4
24780.7
24789.5
24798.8
24808.6
24818.9
24829.6
24840.8
24852.3
24864.3
24876.7
24889.4
24902.4
24915.7
24929.4
24943.3
24957.4
24971.8
24986.4
25001.2
25016.1
25031.2
25046.3
25061.6
25076.9
25092.2
25107.6
25122.9
25138.2
25153.4
25168.6
25183.8
25198.8
25213.8
25228.7
25243.4
25257.9
25272.2
25286.3
25300.1
25313.6
25326.7
25339.5
25351.9
25364
25375.8
25387.2
25398.3
25409.1
25419.4
25429.2
25438.6
25447.5
25455.8
25463.6
25470.9
25477.6
25483.8
25489.4
25494.4
25498.7
25502.5
25505.6
25508.1
25509.9
25511.1
25511.6
25511.4
25510.5
25508.9
25506.5
25503.5
25499.7
25495.1
25489.8
25483.8
25476.9
25469.3
25460.9
25451.7
25441.7
25430.9
25419.2
25406.8
25393.5
25379.5
25364.6
25348.8
25332.2
25314.8
25296.4
25277.1
25256.9
25235.8
25213.7
25190.7
25166.8
25141.9
25116.1
25089.4
25061.8
25033.3
25003.9
24973.6
24942.4
24910.3
24877.2
24843.3
24808.4
24772.7
24736
24698.4
24660
24620.7
24580.4
24539.3
24497.4
24454.5
24410.8
24366.3
24320.8
24274.6
24227.5
24179.6
24130.9
24081.3
24030.9
23979.7
23927.8
23875.1
23821.6
23767.4
23712.4
23656.8
23600.4
23543.3
23485.6
23427.1
23368
23308.2
23247.7
23186.6
23124.8
23062.3
22999.3
22935.6
22871.4
22806.5
22741
22674.9
22608.3
22541.1
22473.4
22405.1
22336.3
22267
22197.1
22126.7
22055.8
21984.5
21912.6
21840.3
21767.5
21694.2
21620.5
21546.3
21471.7
21396.6
21321.1
21245.1
21168.7
21092
21014.8
20937.3
20859.4
20781.3
20702.8
20624
20545
20465.7
20386.3
20306.6
20226.7
20146.7
20066.6
19986.4
19906.1
19825.8
19745.5
19665.2
19585
19504.9
19425
19345.2
19265.6
19186.3
19107.2
19028.6
18950.2
18872.4
18794.9
18718
18641.7
18565.9
18490.8
18416.3
18342.6
18269.6
18197.5
18126.1
18055.7
17986.1
17917.5
17849.8
17783.2
17717.6
17653
17589.5
17527.1
17465.8
17405.6
17346.5
17288.6
17231.9
17176.3
17121.9
17068.7
17016.6
16965.7
16916
16867.4
16820
16773.8
16728.7
16684.7
16641.9
16600.1
16559.5
16520
16481.5
16444.1
16407.8
16372.5
16338.2
16305
16272.7
16241.5
16211.2
16181.8
16153.4
16125.9
16099.3
16073.6
16048.8
16024.8
16001.7
15979.3
15957.8
15937.1
15917.2
15898
15879.5
15861.8
15844.7
15828.4
15812.7
15797.7
15783.3
15769.5
15756.3
15743.7
15731.7
15720.2
15709.3
15698.8
15688.9
15679.4
15670.5
15661.9
15653.8
15646.2
15638.9
15632
15625.6
15619.4
15613.6
15608.2
15603.1
15598.3
15593.8
15589.6
15585.6
15582
15578.5
15575.4
15572.4
15569.7
15567.2
15564.9
15562.8
15560.9
15559.2
15557.7
15556.3
15555.1
15554.1
15553.2
15552.4
15551.8
15551.3
15551
15550.8
15550.7
15550.7
15550.8
15551
15551.4
15551.8
15552.4
15553
15553.7
15554.5
15555.4
15556.3
15557.4
15558.5
15559.6
15560.8
15562.1
15563.5
15564.9
15566.4
15567.9
15569.4
15571
15572.7
15574.4
15576.1
15577.9
15579.8
15581.6
15583.5
15585.5
15587.5
15589.5
15591.6
15593.8
15595.9
15598.2
15600.4
15602.8
15605.1
15607.6
15610.1
15612.7
15615.3
15618
15620.8
15623.7
15626.7
15629.8
15633
15636.3
15639.8
15643.3
15647
15650.9
15654.9
15659.1
15663.5
15668
15672.8
15677.7
15682.9
15688.3
15694
15699.9
15706
15712.5
15719.2
15726.2
15733.5
15741.2
15749.2
15757.5
15766.1
15775.2
15784.5
15794.3
15804.5
15815
15825.9
15837.3
15849.1
15861.3
15873.9
15886.9
15900.4
15914.4
15928.7
15943.6
15958.8
15974.6
15990.8
16007.4
16024.5
16042
16060
16078.4
16097.3
16116.6
16136.4
16156.5
16177.1
16198.1
16219.5
16241.3
16263.5
16286.1
16309
16332.3
16355.9
16379.8
16404.1
16428.6
16453.4
16478.5
16503.8
16529.4
16555.1
16581
16607.1
16633.4
16659.7
16686.2
16712.7
16739.3
16766
16792.6
16819.2
16845.8
16872.4
16898.8
16925.2
16951.4
16977.4
17003.3
17028.9
17054.3
17079.4
17104.3
17128.8
17153
17176.8
17200.3
17223.3
17245.9
17268
17289.6
17310.7
17331.3
17351.3
17370.8
17389.6
17407.8
17425.4
17442.3
17458.6
17474.1
17488.9
17503
17516.4
17528.9
17540.8
17551.8
17562
17571.4
17580
17587.7
17594.6
17600.7
17605.9
17610.3
17613.7
17616.3
17618.1
17619
24388.1
24388.7
24390
24391.9
24394.3
24397.4
24401.2
24405.5
24410.4
24415.9
24422.1
24428.7
24436
24443.8
24452.1
24461
24470.3
24480.2
24490.5
24501.3
24512.5
24524.1
24536.1
24548.5
24561.3
24574.4
24587.8
24601.5
24615.5
24629.7
24644.1
24658.8
24673.6
24688.6
24703.7
24719
24734.3
24749.7
24765.1
24780.5
24795.9
24811.3
24826.6
24841.9
24857.1
24872.2
24887.3
24902.2
24916.9
24931.5
24945.9
24960
24973.8
24987.4
25000.6
25013.5
25026
25038.2
25050
25061.5
25072.7
25083.4
25093.7
25103.6
25113
25121.9
25130.3
25138.1
25145.4
25152.2
25158.4
25164
25169.1
25173.5
25177.3
25180.4
25183
25184.8
25186
25186.5
25186.4
25185.5
25183.9
25181.6
25178.6
25174.8
25170.3
25165
25159
25152.1
25144.5
25136.2
25127
25117
25106.2
25094.6
25082.1
25068.9
25054.8
25039.9
25024.1
25007.5
24990
24971.7
24952.4
24932.1
24911
24888.9
24865.9
24842
24817.2
24791.4
24764.8
24737.2
24708.7
24679.3
24649
24617.8
24585.7
24552.6
24518.7
24483.8
24448.1
24411.4
24373.9
24335.4
24296.1
24255.9
24214.8
24172.8
24129.9
24086.2
24041.7
23996.2
23950
23902.9
23855
23806.2
23756.6
23706.2
23655.1
23603.1
23550.3
23496.9
23442.6
23387.7
23332
23275.6
23218.5
23160.7
23102.2
23043
22983.1
22922.6
22861.4
22799.6
22737.1
22674
22610.3
22546
22481.1
22415.5
22349.4
22282.8
22215.5
22147.7
22079.4
22010.5
21941.1
21871.2
21800.7
21729.8
21658.4
21586.5
21514.1
21441.2
21367.9
21294.1
21219.8
21145.1
21069.9
20994.4
20918.3
20841.9
20765.1
20687.9
20610.3
20532.4
20454.2
20375.7
20296.9
20217.8
20138.5
20058.9
19979.2
19899.2
19819.2
19739
19658.7
19578.3
19498
19417.6
19337.2
19256.9
19176.7
19096.7
19016.8
18937.1
18857.7
18778.6
18699.8
18621.4
18543.4
18465.9
18388.9
18312.5
18236.6
18161.4
18086.9
18013.1
17940.1
17867.8
17796.4
17725.9
17656.3
17587.6
17519.9
17453.2
17387.5
17322.9
17259.4
17196.9
17135.6
17075.4
17016.3
16958.4
16901.7
16846.1
16791.7
16738.4
16686.4
16635.5
16585.8
16537.2
16489.8
16443.6
16398.5
16354.6
16311.7
16270
16229.4
16189.9
16151.5
16114.1
16077.8
16042.5
16008.3
15975.1
15942.9
15911.6
15881.4
15852
15823.6
15796.2
15769.6
15744
15719.2
15695.2
15672.1
15649.8
15628.4
15607.7
15587.8
15568.6
15550.2
15532.5
15515.5
15499.2
15483.6
15468.6
15454.2
15440.5
15427.4
15414.8
15402.8
15391.4
15380.5
15370.1
15360.2
15350.8
15341.8
15333.4
15325.3
15317.7
15310.5
15303.6
15297.2
15291.1
15285.4
15280
15274.9
15270.1
15265.6
15261.5
15257.5
15253.9
15250.5
15247.4
15244.5
15241.8
15239.3
15237
15235
15233.1
15231.4
15229.9
15228.5
15227.3
15226.3
15225.4
15224.7
15224.1
15223.6
15223.3
15223.1
15223
15223.1
15223.2
15223.4
15223.8
15224.3
15224.8
15225.4
15226.2
15227
15227.9
15228.8
15229.9
15231
15232.2
15233.4
15234.7
15236.1
15237.5
15239
15240.5
15242.1
15243.7
15245.3
15247.1
15248.8
15250.6
15252.4
15254.3
15256.3
15258.2
15260.2
15262.3
15264.3
15266.5
15268.7
15270.9
15273.2
15275.5
15277.9
15280.3
15282.8
15285.4
15288
15290.7
15293.5
15296.4
15299.4
15302.5
15305.6
15308.9
15312.4
15315.9
15319.6
15323.4
15327.4
15331.6
15335.9
15340.4
15345.2
15350.1
15355.2
15360.6
15366.2
15372.1
15378.3
15384.7
15391.4
15398.4
15405.7
15413.3
15421.2
15429.5
15438.1
15447.1
15456.5
15466.2
15476.4
15486.9
15497.8
15509.2
15520.9
15533.1
15545.7
15558.7
15572.2
15586.1
15600.5
15615.3
15630.6
15646.3
15662.5
15679.1
15696.2
15713.8
15731.8
15750.2
15769.1
15788.4
15808.2
15828.4
15849
15870
15891.4
15913.3
15935.5
15958.1
15981
16004.4
16028
16052
16076.3
16100.8
16125.7
16150.8
16176.2
16201.8
16227.6
16253.6
16279.7
16306
16332.4
16358.9
16385.5
16412.2
16438.9
16465.6
16492.3
16519
16545.6
16572.1
16598.5
16624.8
16650.9
16676.8
16702.5
16728
16753.2
16778.1
16802.7
16827
16850.9
16874.4
16897.5
16920.1
16942.3
16964
16985.1
17005.8
17025.8
17045.3
17064.2
17082.5
17100.1
17117.1
17133.4
17149
17163.8
17178
17191.4
17204
17215.8
17226.9
17237.1
17246.6
17255.2
17262.9
17269.9
17276
17281.2
17285.5
17289
17291.6
17293.4
17294.3
24058.7
24059.4
24060.7
24062.5
24065
24068.2
24071.9
24076.3
24081.2
24086.8
24092.9
24099.6
24106.9
24114.8
24123.1
24132
24141.5
24151.4
24161.7
24172.6
24183.9
24195.5
24207.6
24220.1
24232.9
24246.1
24259.6
24273.4
24287.4
24301.7
24316.3
24331
24345.9
24361
24376.2
24391.5
24406.9
24422.4
24437.9
24453.4
24468.9
24484.4
24499.8
24515.2
24530.5
24545.7
24560.8
24575.8
24590.6
24605.3
24619.7
24633.8
24647.7
24661.4
24674.6
24687.6
24700.2
24712.5
24724.4
24736
24747.2
24758
24768.4
24778.3
24787.7
24796.7
24805.1
24813
24820.4
24827.2
24833.4
24839.1
24844.2
24848.6
24852.5
24855.7
24858.2
24860.1
24861.4
24861.9
24861.8
24861
24859.4
24857.1
24854.1
24850.4
24845.9
24840.7
24834.7
24827.9
24820.3
24811.9
24802.8
24792.8
24782
24770.4
24758
24744.8
24730.7
24715.8
24700
24683.4
24665.9
24647.5
24628.2
24608
24586.9
24564.8
24541.9
24518
24493.2
24467.4
24440.8
24413.2
24384.7
24355.4
24325.1
24293.8
24261.7
24228.7
24194.8
24159.9
24124.2
24087.5
24049.9
24011.5
23972.1
23931.9
23890.8
23848.8
23806
23762.2
23717.7
23672.2
23625.9
23578.8
23530.9
23482.1
23432.5
23382.1
23330.9
23278.9
23226.2
23172.6
23118.4
23063.4
23007.7
22951.2
22894.1
22836.2
22777.7
22718.4
22658.5
22598
22536.7
22474.8
22412.3
22349.2
22285.4
22221
22156
22090.4
22024.3
21957.5
21890.2
21822.4
21754
21685
21615.6
21545.6
21475
21404
21332.5
21260.5
21188.1
21115.1
21041.7
20967.8
20893.5
20818.7
20743.4
20667.8
20591.7
20515.2
20438.3
20361.1
20283.4
20205.5
20127.2
20048.6
19969.7
19890.5
19811.1
19731.5
19651.6
19571.6
19491.5
19411.2
19330.8
19250.4
19169.9
19089.4
19008.9
18928.5
18848.2
18768.1
18688.1
18608.3
18528.8
18449.5
18370.6
18292.1
18214.1
18136.4
18059.3
17982.8
17906.8
17831.5
17756.9
17683
17609.8
17537.5
17466
17395.4
17325.7
17257
17189.2
17122.5
17056.7
16992.1
16928.5
16866
16804.6
16744.4
16685.3
16627.4
16570.6
16515
16460.6
16407.4
16355.3
16304.4
16254.7
16206.2
16158.8
16112.6
16067.5
16023.6
15980.8
15939.1
15898.6
15859.1
15820.7
15783.3
15747.1
15711.8
15677.6
15644.5
15612.3
15581.1
15550.8
15521.6
15493.2
15465.8
15439.3
15413.7
15388.9
15365
15342
15319.7
15298.3
15277.7
15257.8
15238.7
15220.3
15202.7
15185.8
15169.5
15153.9
15139
15124.7
15111
15097.9
15085.4
15073.5
15062.1
15051.2
15040.9
15031.1
15021.7
15012.8
15004.4
14996.4
14988.8
14981.7
14974.9
14968.5
14962.4
14956.7
14951.4
14946.3
14941.6
14937.2
14933
14929.2
14925.6
14922.2
14919.1
14916.2
14913.6
14911.1
14908.9
14906.9
14905
14903.3
14901.9
14900.5
14899.4
14898.4
14897.5
14896.8
14896.2
14895.8
14895.5
14895.3
14895.2
14895.3
14895.4
14895.7
14896.1
14896.5
14897.1
14897.8
14898.5
14899.3
14900.2
14901.2
14902.3
14903.4
14904.6
14905.9
14907.2
14908.6
14910
14911.5
14913
14914.6
14916.2
14917.9
14919.6
14921.4
14923.2
14925.1
14926.9
14928.9
14930.8
14932.9
14934.9
14937
14939.1
14941.3
14943.5
14945.8
14948.1
14950.5
14953
14955.5
14958
14960.6
14963.3
14966.1
14969
14972
14975
14978.2
14981.5
14984.9
14988.4
14992
14995.8
14999.8
15003.9
15008.2
15012.7
15017.4
15022.3
15027.4
15032.8
15038.4
15044.2
15050.3
15056.7
15063.3
15070.3
15077.5
15085.1
15093
15101.3
15109.9
15118.9
15128.2
15137.9
15148
15158.5
15169.4
15180.7
15192.4
15204.6
15217.2
15230.2
15243.7
15257.6
15272
15286.8
15302
15317.8
15333.9
15350.6
15367.7
15385.2
15403.2
15421.7
15440.6
15459.9
15479.7
15499.9
15520.5
15541.6
15563.1
15584.9
15607.2
15629.8
15652.8
15676.2
15699.9
15723.9
15748.2
15772.9
15797.8
15823
15848.4
15874
15899.9
15926
15952.2
15978.5
16005
16031.6
16058.3
16085.1
16111.8
16138.6
16165.4
16192.2
16218.8
16245.4
16271.9
16298.3
16324.5
16350.5
16376.3
16401.8
16427.1
16452.1
16476.8
16501.2
16525.2
16548.7
16571.9
16594.6
16616.9
16638.6
16659.9
16680.6
16700.8
16720.3
16739.3
16757.6
16775.3
16792.3
16808.7
16824.3
16839.2
16853.4
16866.9
16879.5
16891.4
16902.5
16912.8
16922.3
16930.9
16938.7
16945.7
16951.8
16957
16961.4
16964.9
16967.5
16969.2
16970.2
23728.9
23729.6
23730.9
23732.8
23735.3
23738.4
23742.2
23746.6
23751.6
23757.2
23763.3
23770.1
23777.4
23785.3
23793.8
23802.7
23812.2
23822.2
23832.6
23843.6
23854.9
23866.7
23878.9
23891.4
23904.3
23917.6
23931.2
23945.1
23959.2
23973.6
23988.2
24003.1
24018.1
24033.3
24048.6
24064
24079.5
24095.1
24110.7
24126.3
24141.9
24157.5
24173.1
24188.5
24203.9
24219.3
24234.5
24249.5
24264.4
24279.1
24293.6
24307.9
24321.9
24335.6
24349
24362
24374.8
24387.1
24399.1
24410.8
24422.1
24432.9
24443.3
24453.3
24462.8
24471.8
24480.3
24488.2
24495.7
24502.5
24508.8
24514.6
24519.7
24524.2
24528.1
24531.4
24534
24535.9
24537.2
24537.8
24537.7
24536.9
24535.4
24533.2
24530.2
24526.5
24522.1
24516.9
24510.9
24504.2
24496.6
24488.3
24479.2
24469.2
24458.5
24446.9
24434.5
24421.3
24407.2
24392.3
24376.5
24359.9
24342.4
24324
24304.7
24284.5
24263.4
24241.4
24218.4
24194.5
24169.7
24144
24117.4
24089.9
24061.4
24032
24001.7
23970.5
23938.4
23905.4
23871.5
23836.6
23800.9
23764.2
23726.6
23688.2
23648.8
23608.6
23567.5
23525.5
23482.6
23438.8
23394.2
23348.8
23302.5
23255.3
23207.4
23158.6
23109
23058.5
23007.3
22955.3
22902.5
22848.9
22794.7
22739.6
22683.8
22627.4
22570.2
22512.2
22453.6
22394.4
22334.4
22273.7
22212.4
22150.5
22087.9
22024.7
21960.8
21896.4
21831.3
21765.7
21699.5
21632.6
21565.3
21497.3
21428.9
21359.8
21290.3
21220.2
21149.6
21078.5
21006.9
20934.8
20862.3
20789.2
20715.7
20641.7
20567.3
20492.4
20417.1
20341.3
20265.2
20188.6
20111.6
20034.3
19956.6
19878.5
19800.1
19721.5
19642.5
19563.2
19483.7
19404
19324
19243.9
19163.7
19083.3
19002.8
18922.2
18841.6
18761
18680.4
18599.9
18519.4
18439.1
18359
18279.1
18199.4
18120.1
18041
17962.4
17884.2
17806.4
17729.2
17652.5
17576.4
17501
17426.2
17352.2
17279
17206.5
17134.9
17064.2
16994.5
16925.6
16857.8
16791
16725.2
16660.4
16596.8
16534.3
16472.9
16412.6
16353.5
16295.5
16238.8
16183.2
16128.7
16075.5
16023.5
15972.6
15922.9
15874.4
15827
15780.8
15735.8
15691.9
15649.1
15607.5
15566.9
15527.5
15489.1
15451.8
15415.6
15380.4
15346.3
15313.1
15281
15249.8
15219.6
15190.4
15162.1
15134.7
15108.3
15082.7
15058
15034.2
15011.2
14989
14967.6
14947
14927.2
14908.2
14889.9
14872.3
14855.4
14839.2
14823.7
14808.8
14794.6
14781
14768
14755.5
14743.7
14732.4
14721.6
14711.3
14701.5
14692.2
14683.4
14675
14667.1
14659.6
14652.5
14645.8
14639.4
14633.4
14627.8
14622.5
14617.5
14612.8
14608.5
14604.4
14600.5
14597
14593.7
14590.6
14587.8
14585.2
14582.7
14580.5
14578.5
14576.7
14575.1
14573.6
14572.3
14571.2
14570.2
14569.4
14568.7
14568.2
14567.7
14567.5
14567.3
14567.3
14567.3
14567.5
14567.8
14568.2
14568.7
14569.3
14569.9
14570.7
14571.5
14572.5
14573.5
14574.6
14575.7
14576.9
14578.2
14579.5
14580.9
14582.4
14583.9
14585.4
14587
14588.7
14590.4
14592.1
14593.9
14595.7
14597.6
14599.5
14601.4
14603.4
14605.4
14607.5
14609.6
14611.7
14613.9
14616.1
14618.4
14620.7
14623.1
14625.5
14628
14630.6
14633.2
14635.9
14638.7
14641.5
14644.5
14647.5
14650.6
14653.9
14657.2
14660.7
14664.4
14668.1
14672.1
14676.2
14680.4
14684.9
14689.5
14694.4
14699.5
14704.8
14710.3
14716.1
14722.1
14728.5
14735.1
14742
14749.2
14756.8
14764.6
14772.8
14781.4
14790.3
14799.6
14809.3
14819.4
14829.8
14840.7
14852
14863.7
14875.8
14888.4
14901.4
14914.8
14928.7
14943.1
14957.9
14973.1
14988.9
15005
15021.7
15038.8
15056.3
15074.3
15092.8
15111.7
15131.1
15150.9
15171.1
15191.8
15212.9
15234.4
15256.3
15278.6
15301.3
15324.3
15347.7
15371.5
15395.6
15420
15444.7
15469.7
15494.9
15520.4
15546.2
15572.1
15598.2
15624.5
15651
15677.6
15704.3
15731
15757.9
15784.7
15811.6
15838.5
15865.4
15892.1
15918.8
15945.4
15971.9
15998.2
16024.3
16050.2
16075.9
16101.3
16126.4
16151.2
16175.6
16199.7
16223.4
16246.6
16269.5
16291.8
16313.7
16335
16355.8
16376
16395.7
16414.7
16433.2
16450.9
16468
16484.4
16500.1
16515.1
16529.4
16542.9
16555.6
16567.5
16578.7
16589
16598.5
16607.2
16615
16622
16628.2
16633.4
16637.8
16641.3
16644
16645.7
16646.7
23398.6
23399.3
23400.6
23402.5
23405
23408.2
23412
23416.4
23421.4
23427.1
23433.3
23440.1
23447.5
23455.5
23464
23473
23482.6
23492.7
23503.2
23514.2
23525.6
23537.5
23549.8
23562.5
23575.5
23588.8
23602.5
23616.5
23630.8
23645.3
23660
23675
23690.1
23705.4
23720.8
23736.4
23752
23767.7
23783.4
23799.2
23814.9
23830.6
23846.3
23861.9
23877.5
23892.9
23908.2
23923.4
23938.4
23953.2
23967.8
23982.1
23996.2
24010
24023.5
24036.7
24049.5
24062
24074.1
24085.8
24097.2
24108.1
24118.6
24128.6
24138.2
24147.3
24155.8
24163.9
24171.4
24178.3
24184.7
24190.5
24195.6
24200.2
24204.2
24207.5
24210.2
24212.2
24213.5
24214.2
24214.1
24213.4
24211.9
24209.8
24206.9
24203.2
24198.8
24193.6
24187.7
24181
24173.5
24165.2
24156.1
24146.2
24135.5
24123.9
24111.5
24098.3
24084.3
24069.4
24053.6
24037
24019.5
24001.1
23981.9
23961.7
23940.6
23918.5
23895.6
23871.8
23847
23821.3
23794.7
23767.2
23738.7
23709.3
23679.1
23647.9
23615.8
23582.7
23548.8
23513.9
23478.2
23441.5
23403.9
23365.5
23326.1
23285.9
23244.7
23202.7
23159.8
23116
23071.4
23025.9
22979.6
22932.4
22884.4
22835.6
22785.9
22735.5
22684.2
22632.2
22579.4
22525.8
22471.4
22416.3
22360.5
22304
22246.7
22188.7
22130.1
22070.7
22010.7
21950
21888.6
21826.6
21763.9
21700.6
21636.7
21572.2
21507
21441.3
21375
21308.1
21240.6
21172.6
21104.1
21034.9
20965.3
20895.1
20824.4
20753.2
20681.6
20609.4
20536.7
20463.5
20389.9
20315.8
20241.3
20166.3
20090.9
20015.1
19938.8
19862.1
19785
19707.6
19629.8
19551.6
19473.1
19394.3
19315.2
19235.9
19156.3
19076.4
18996.3
18916.1
18835.7
18755.2
18674.5
18593.8
18513.1
18432.3
18351.6
18270.9
18190.3
18109.9
18029.6
17949.5
17869.7
17790.2
17711
17632.2
17553.8
17475.9
17398.5
17321.7
17245.5
17169.9
17095
17020.8
16947.5
16874.9
16803.2
16732.4
16662.5
16593.5
16525.6
16458.7
16392.8
16328
16264.3
16201.7
16140.3
16080
16020.8