/*--------------------------------*- C++ -*----------------------------------*\
| =========                 |                                                 |
| \\      /  F ield         | OpenFOAM: The Open Source CFD Toolbox           |
|  \\    /   O peration     | Version:  v2006                                 |
|   \\  /    A nd           | Website:  www.openfoam.com                      |
|    \\/     M anipulation  |                                                 |
\*---------------------------------------------------------------------------*/
FoamFile
{
    version     2.0;
    format      ascii;
    class       surfaceScalarField;
    location    "15.5";
    object      alphaPhi0.water;
}
// * * * * * * * * * * * * * * * * * * * * * * * * * * * * * * * * * * * * * //

dimensions      [0 3 -1 0 0 0 0];
oriented        oriented;


internalField   nonuniform List<scalar> 
104500
(
3.70105e-05
-3.70105e-05
8.0631e-05
-4.36205e-05
0.00012278
-4.21488e-05
0.000163671
-4.08909e-05
0.000204225
-4.05541e-05
0.000244634
-4.04093e-05
0.00028495
-4.03163e-05
0.000325154
-4.0204e-05
0.000365198
-4.00441e-05
0.000405039
-3.98404e-05
0.000444641
-3.96022e-05
0.000483979
-3.93383e-05
0.000523028
-3.90484e-05
0.00056176
-3.87319e-05
0.000600148
-3.83881e-05
0.000638162
-3.80144e-05
0.000675772
-3.76099e-05
0.000712944
-3.71719e-05
0.000749642
-3.66976e-05
0.000785826
-3.61846e-05
0.000821457
-3.56307e-05
0.000856495
-3.5038e-05
0.000890902
-3.44076e-05
0.000924652
-3.37494e-05
0.000957721
-3.30689e-05
0.00099009
-3.23692e-05
0.00102174
-3.16519e-05
0.00105266
-3.09146e-05
0.00108282
-3.01601e-05
0.00111221
-2.93885e-05
0.0011408
-2.85996e-05
0.0011686
-2.77907e-05
0.00119555
-2.69584e-05
0.00122165
-2.60991e-05
0.00124686
-2.52108e-05
0.00127116
-2.42946e-05
0.00129451
-2.33541e-05
0.00131691
-2.23964e-05
0.00133834
-2.14283e-05
0.00135879
-2.0449e-05
0.00137823
-1.94458e-05
0.00139663
-1.84017e-05
0.00141393
-1.73002e-05
0.00143007
-1.61343e-05
0.00144498
-1.49071e-05
0.00145862
-1.36452e-05
0.00147102
-1.2398e-05
0.00148225
-1.12272e-05
0.00149244
-1.01979e-05
0.0015018
-9.35887e-06
0.00151053
-8.72586e-06
0.00151882
-8.28949e-06
0.00152684
-8.01981e-06
0.00153471
-7.87386e-06
0.00154252
-7.80946e-06
0.00155031
-7.79258e-06
0.00155811
-7.79863e-06
0.00156593
-7.81294e-06
0.00157375
-7.82982e-06
0.0015816
-7.84647e-06
0.00158947
-7.87315e-06
0.0015974
-7.92344e-06
0.0016054
-8.00366e-06
0.00161352
-8.11511e-06
0.00162177
-8.25456e-06
0.00163019
-8.41667e-06
0.00163878
-8.59457e-06
0.00164757
-8.78267e-06
0.00165654
-8.97575e-06
0.00166571
-9.17084e-06
0.00167508
-9.36585e-06
0.00168464
-9.55965e-06
0.00169439
-9.7524e-06
0.00170434
-9.94538e-06
0.00171447
-1.01356e-05
0.00172479
-1.03196e-05
0.00173528
-1.04947e-05
0.00174594
-1.06564e-05
0.00175674
-1.07994e-05
0.00176766
-1.09214e-05
0.00177868
-1.10206e-05
0.00178978
-1.10938e-05
0.00180092
-1.11406e-05
0.00181208
-1.11637e-05
0.00182325
-1.11645e-05
0.00183439
-1.11445e-05
0.0018455
-1.11056e-05
0.00185655
-1.10497e-05
0.00186752
-1.09796e-05
0.00187842
-1.08979e-05
0.00188923
-1.08069e-05
0.00189994
-1.07089e-05
0.00191055
-1.06083e-05
0.00192106
-1.05104e-05
0.00193148
-1.04191e-05
0.00194181
-1.03361e-05
0.00195207
-1.02602e-05
0.00196226
-1.01863e-05
0.00197236
-1.01059e-05
0.00198237
-1.0009e-05
0.00199226
-9.88695e-06
0.002002
-9.73525e-06
0.00201155
-9.55464e-06
0.0020209
-9.35093e-06
0.00203003
-9.13291e-06
0.00203894
-8.90973e-06
0.00204763
-8.68874e-06
0.00205611
-8.4747e-06
0.00206438
-8.27037e-06
0.00207245
-8.077e-06
0.00208035
-7.89503e-06
0.00208807
-7.72433e-06
0.00209564
-7.56479e-06
0.00210306
-7.41621e-06
0.00211033
-7.27851e-06
0.00211749
-7.15152e-06
0.00212452
-7.03493e-06
0.00213145
-6.92843e-06
0.00213828
-6.83168e-06
0.00214502
-6.7444e-06
0.00215169
-6.66631e-06
0.00215829
-6.59712e-06
0.00216482
-6.53646e-06
0.00217131
-6.48397e-06
0.00217775
-6.43921e-06
0.00218415
-6.4017e-06
0.00219052
-6.37091e-06
0.00219687
-6.34631e-06
0.00220319
-6.32749e-06
0.00220951
-6.31416e-06
0.00221581
-6.30634e-06
0.00222212
-6.30453e-06
0.00222843
-6.31005e-06
0.00223475
-6.32525e-06
0.00224111
-6.35356e-06
0.00224751
-6.39935e-06
0.00225397
-6.46724e-06
0.00226054
-6.56105e-06
0.00226722
-6.68248e-06
0.00227405
-6.82967e-06
0.00228104
-6.99625e-06
0.00228822
-7.17114e-06
0.00229555
-7.33948e-06
0.00230304
-7.48446e-06
0.00231063
-7.58981e-06
0.00231827
-7.64222e-06
0.0023259
-7.63332e-06
0.00233347
-7.5606e-06
0.00234089
-7.42717e-06
0.00234813
-7.24016e-06
0.00235514
-7.0082e-06
0.00236188
-6.73824e-06
0.00236831
-6.43253e-06
0.0023744
-6.08635e-06
0.00238009
-5.6875e-06
0.0023853
-5.21807e-06
0.00238996
-4.65875e-06
0.00239396
-3.99522e-06
0.00239718
-3.22497e-06
0.00239954
-2.36205e-06
0.00240098
-1.43702e-06
0.00240147
-4.89449e-07
0.00240103
4.44907e-07
0.00239979
1.23903e-06
0.00239792
1.86946e-06
0.00239564
2.27934e-06
0.00239322
2.42274e-06
0.00239094
2.27854e-06
0.0023891
1.83822e-06
0.00238798
1.12019e-06
0.00238781
1.66916e-07
0.00238892
-1.10864e-06
0.00239138
-2.46466e-06
0.00239524
-3.85939e-06
0.00240045
-5.20142e-06
0.00240687
-6.41982e-06
0.00241434
-7.47317e-06
0.00242269
-8.35142e-06
0.00243176
-9.0708e-06
0.00244143
-9.66477e-06
0.0024516
-1.01742e-05
0.00246224
-1.06391e-05
0.00247333
-1.10936e-05
0.0024849
-1.15632e-05
0.00249696
-1.20651e-05
0.00250957
-1.26095e-05
0.00252277
-1.32008e-05
0.00253661
-1.38395e-05
0.00255113
-1.45228e-05
0.00256638
-1.5245e-05
0.00258238
-1.59975e-05
0.00259914
-1.6768e-05
0.00261668
-1.754e-05
0.00263498
-1.82934e-05
0.00265398
-1.9005e-05
0.00267363
-1.96515e-05
0.00269385
-2.02116e-05
0.00271451
-2.06692e-05
0.00273553
-2.10149e-05
0.00275678
-2.12468e-05
0.00277815
-2.137e-05
0.00279954
-2.13952e-05
0.00282088
-2.13383e-05
0.0028421
-2.12187e-05
0.00286316
-2.10587e-05
0.00288404
-2.0882e-05
0.00290475
-2.07111e-05
0.00292532
-2.05651e-05
0.00294577
-2.04571e-05
0.00296617
-2.03927e-05
0.00298653
-2.03695e-05
0.00300691
-2.0379e-05
0.00302732
-2.04085e-05
0.00304777
-2.04438e-05
0.00306824
-2.04721e-05
0.00308872
-2.04833e-05
0.00310919
-2.04708e-05
0.00312962
-2.04312e-05
0.00314999
-2.03639e-05
0.00317026
-2.02696e-05
0.00319041
-2.01496e-05
0.00321041
-2.00052e-05
0.00323025
-1.98371e-05
0.00324989
-1.96457e-05
0.00326933
-1.94308e-05
0.00328852
-1.91921e-05
0.00330745
-1.89292e-05
0.00332609
-1.86421e-05
0.00334442
-1.83304e-05
0.00336241
-1.79944e-05
0.00338005
-1.76341e-05
0.0033973
-1.72495e-05
0.00341414
-1.68405e-05
0.00343055
-1.64075e-05
0.0034465
-1.595e-05
0.00346196
-1.54679e-05
0.00347692
-1.49607e-05
0.00349135
-1.44277e-05
0.00350522
-1.38683e-05
0.0035185
-1.32813e-05
0.00353117
-1.2666e-05
0.00354319
-1.20213e-05
0.00355453
-1.13451e-05
0.00356517
-1.06352e-05
0.00357506
-9.88881e-06
0.00358416
-9.10311e-06
0.00359243
-8.27439e-06
0.00359983
-7.3974e-06
0.0036063
-6.46649e-06
0.00361177
-5.47623e-06
0.0036162
-4.42258e-06
0.0036195
-3.30542e-06
0.00362164
-2.13535e-06
0.00362258
-9.44496e-07
0.00362227
3.13808e-07
0.00362065
1.62117e-06
0.00361776
2.88828e-06
0.00361359
4.16598e-06
0.00360812
5.4694e-06
0.00360132
6.80527e-06
0.00359314
8.1766e-06
0.00358356
9.58628e-06
0.00357252
1.10399e-05
0.00355997
1.25477e-05
0.00354584
1.41241e-05
0.00353006
1.57865e-05
0.00351251
1.75513e-05
0.00349308
1.94305e-05
0.00347165
2.14291e-05
0.0034481
2.35441e-05
0.00342234
2.57647e-05
0.00339427
2.8073e-05
0.00336382
3.04439e-05
0.00333098
3.28445e-05
0.00329574
3.52339e-05
0.00325818
3.75631e-05
0.0032184
3.97784e-05
0.00317657
4.18316e-05
0.00313287
4.36948e-05
0.0030875
4.53752e-05
0.00304059
4.69053e-05
0.00299231
4.82861e-05
0.0029429
4.94082e-05
0.00289294
4.99606e-05
0.00284347
4.94645e-05
0.00279597
4.75049e-05
0.00275195
4.40202e-05
0.0027125
3.94448e-05
0.00267792
3.45803e-05
0.00264764
3.02831e-05
0.00262047
2.71693e-05
0.002595
2.54754e-05
0.00256992
2.50749e-05
0.00254433
2.55886e-05
0.00251773
2.66041e-05
0.00248993
2.77947e-05
0.002461
2.89353e-05
0.00243109
2.99121e-05
0.00240039
3.06983e-05
0.00236907
3.13227e-05
0.00233722
3.18418e-05
0.0023049
3.23195e-05
0.00227209
3.28116e-05
0.00223874
3.33567e-05
0.00220476
3.39726e-05
0.00217011
3.46576e-05
0.00213471
3.53961e-05
0.00209854
3.61668e-05
0.00206159
3.69491e-05
0.00202387
3.7728e-05
0.00198537
3.84972e-05
0.00194611
3.92579e-05
0.0019061
4.00153e-05
0.00186532
4.0775e-05
0.00182378
4.154e-05
0.00178147
4.23098e-05
0.00173839
4.30824e-05
0.00169453
4.38549e-05
0.00164991
4.46252e-05
0.00160452
4.53919e-05
0.00155836
4.61533e-05
0.00151146
4.69079e-05
0.0014638
4.76534e-05
0.00141541
4.83885e-05
0.0013663
4.91113e-05
0.00131648
4.98207e-05
0.00126597
5.0515e-05
0.00121477
5.11933e-05
0.00116292
5.18528e-05
0.00111043
5.24895e-05
0.00105733
5.30982e-05
0.00100366
5.36723e-05
0.000949456
5.42049e-05
0.000894767
5.46886e-05
0.00083965
5.51168e-05
0.000784167
5.54836e-05
0.00072838
5.57861e-05
0.000672358
5.60223e-05
0.000616163
5.61954e-05
0.00055985
5.63123e-05
0.000503472
5.63787e-05
0.000447075
5.6397e-05
0.00039072
5.63545e-05
0.000334499
5.62213e-05
0.000278551
5.59483e-05
0.000223053
5.54976e-05
0.000168131
5.49224e-05
0.000114056
5.40745e-05
6.05335e-05
5.35226e-05
6.05335e-05
1.5514e-05
-5.25245e-05
3.31123e-05
-6.12188e-05
4.78998e-05
-5.69363e-05
6.23279e-05
-5.5319e-05
7.70449e-05
-5.52711e-05
9.18298e-05
-5.51941e-05
0.000106562
-5.50486e-05
0.000121255
-5.48966e-05
0.00013596
-5.47493e-05
0.000150716
-5.45964e-05
0.000165551
-5.4437e-05
0.000180484
-5.42711e-05
0.00019553
-5.40952e-05
0.00021071
-5.39116e-05
0.000226038
-5.37155e-05
0.000241535
-5.35121e-05
0.000257217
-5.32919e-05
0.0002731
-5.30552e-05
0.000289207
-5.2804e-05
0.000305548
-5.25257e-05
0.000322148
-5.22313e-05
0.00033901
-5.18995e-05
0.000356132
-5.15294e-05
0.000373512
-5.11298e-05
0.000391134
-5.06902e-05
0.000408974
-5.02097e-05
0.000427004
-4.96822e-05
0.000445196
-4.91061e-05
0.00046351
-4.84739e-05
0.00048191
-4.77893e-05
0.000500364
-4.70528e-05
0.00051884
-4.62668e-05
0.000537315
-4.54335e-05
0.00055577
-4.45545e-05
0.000574192
-4.36328e-05
0.000592571
-4.26732e-05
0.000610899
-4.16826e-05
0.000629173
-4.06703e-05
0.000647388
-3.96431e-05
0.00066554
-3.86008e-05
0.00068363
-3.75363e-05
0.000701666
-3.64376e-05
0.00071966
-3.52937e-05
0.000737624
-3.40984e-05
0.000755575
-3.28584e-05
0.000773527
-3.1597e-05
0.000791482
-3.03529e-05
0.000809422
-2.91675e-05
0.000827304
-2.80799e-05
0.000845084
-2.71386e-05
0.000862731
-2.63729e-05
0.000880233
-2.57912e-05
0.000897594
-2.53816e-05
0.000914838
-2.51177e-05
0.000931995
-2.49666e-05
0.000949098
-2.48952e-05
0.000966174
-2.48747e-05
0.000983246
-2.48847e-05
0.00100033
-2.49124e-05
0.00101743
-2.49448e-05
0.00103453
-2.49738e-05
0.0010516
-2.49999e-05
0.00106863
-2.50267e-05
0.00108557
-2.50581e-05
0.00110241
-2.50962e-05
0.00111914
-2.51409e-05
0.00113573
-2.51906e-05
0.00115219
-2.52426e-05
0.00116851
-2.52932e-05
0.00118468
-2.53383e-05
0.00120068
-2.53728e-05
0.00121652
-2.53936e-05
0.00123216
-2.53983e-05
0.0012476
-2.53867e-05
0.00126282
-2.53544e-05
0.00127781
-2.53018e-05
0.00129254
-2.52304e-05
0.00130702
-2.51379e-05
0.00132125
-2.50259e-05
0.00133522
-2.48942e-05
0.00134894
-2.47423e-05
0.00136242
-2.45699e-05
0.00137566
-2.4377e-05
0.00138866
-2.41657e-05
0.00140143
-2.39373e-05
0.00141398
-2.36923e-05
0.00142631
-2.34316e-05
0.00143841
-2.31593e-05
0.00145031
-2.28766e-05
0.001462
-2.25868e-05
0.00147349
-2.22928e-05
0.00148478
-2.19986e-05
0.00149588
-2.17074e-05
0.00150679
-2.14212e-05
0.00151751
-2.11433e-05
0.00152805
-2.08724e-05
0.00153839
-2.06069e-05
0.00154855
-2.03401e-05
0.00155851
-2.00661e-05
0.00156828
-1.97791e-05
0.00157787
-1.94747e-05
0.00158728
-1.91515e-05
0.00159654
-1.88108e-05
0.00160564
-1.84566e-05
0.00161461
-1.80945e-05
0.00162343
-1.77309e-05
0.00163211
-1.73715e-05
0.00164066
-1.70211e-05
0.00164907
-1.66827e-05
0.00165735
-1.63591e-05
0.00166551
-1.6052e-05
0.00167355
-1.57627e-05
0.00168147
-1.54926e-05
0.0016893
-1.52425e-05
0.00169703
-1.50129e-05
0.00170469
-1.48047e-05
0.00171227
-1.46184e-05
0.0017198
-1.4454e-05
0.00172728
-1.43122e-05
0.00173473
-1.41931e-05
0.00174216
-1.4097e-05
0.00174958
-1.40238e-05
0.00175702
-1.39738e-05
0.00176448
-1.39473e-05
0.00177199
-1.39448e-05
0.00177955
-1.39664e-05
0.0017872
-1.40127e-05
0.00179493
-1.40843e-05
0.00180279
-1.41821e-05
0.00181078
-1.43073e-05
0.00181894
-1.4461e-05
0.00182728
-1.46441e-05
0.00183582
-1.48572e-05
0.0018446
-1.51004e-05
0.00185362
-1.53729e-05
0.00186289
-1.5673e-05
0.00187242
-1.59975e-05
0.0018822
-1.6342e-05
0.00189222
-1.67002e-05
0.00190245
-1.70649e-05
0.00191289
-1.74272e-05
0.00192349
-1.77779e-05
0.00193426
-1.8108e-05
0.00194519
-1.84097e-05
0.00195627
-1.8677e-05
0.00196754
-1.89067e-05
0.001979
-1.90983e-05
0.0019907
-1.92535e-05
0.00200264
-1.93758e-05
0.00201487
-1.94689e-05
0.0020274
-1.95363e-05
0.00204024
-1.95798e-05
0.00205341
-1.95986e-05
0.00206691
-1.95897e-05
0.00208077
-1.95484e-05
0.00209502
-1.94696e-05
0.00210972
-1.93504e-05
0.00212491
-1.9192e-05
0.00214069
-1.9002e-05
0.00215712
-1.87954e-05
0.00217428
-1.8594e-05
0.00219222
-1.84258e-05
0.00221098
-1.83233e-05
0.00223054
-1.83193e-05
0.00225084
-1.8429e-05
0.00227179
-1.86723e-05
0.00229329
-1.90709e-05
0.00231521
-1.9642e-05
0.00233744
-2.03935e-05
0.00235988
-2.13164e-05
0.00238242
-2.23814e-05
0.00240486
-2.35492e-05
0.00242715
-2.4749e-05
0.00244922
-2.5935e-05
0.00247109
-2.70659e-05
0.00249278
-2.81138e-05
0.00251438
-2.90668e-05
0.00253595
-2.99279e-05
0.00255759
-3.07101e-05
0.00257936
-3.1432e-05
0.0026013
-3.21127e-05
0.00262343
-3.27691e-05
0.00264575
-3.34143e-05
0.00266824
-3.40572e-05
0.00269088
-3.47028e-05
0.00271362
-3.53533e-05
0.00273643
-3.60079e-05
0.00275926
-3.66641e-05
0.00278205
-3.73178e-05
0.00280477
-3.79633e-05
0.00282737
-3.85936e-05
0.0028498
-3.92006e-05
0.00287203
-3.97755e-05
0.00289405
-4.03098e-05
0.00291584
-4.07964e-05
0.00293742
-4.12305e-05
0.00295882
-4.16107e-05
0.00298009
-4.19383e-05
0.00300129
-4.22167e-05
0.00302249
-4.24499e-05
0.00304377
-4.26413e-05
0.00306516
-4.27921e-05
0.00308673
-4.29016e-05
0.00310847
-4.29678e-05
0.0031304
-4.29886e-05
0.00315249
-4.2963e-05
0.00317467
-4.28924e-05
0.00319688
-4.27803e-05
0.00321906
-4.26319e-05
0.00324112
-4.24533e-05
0.003263
-4.22511e-05
0.00328465
-4.20306e-05
0.00330604
-4.17962e-05
0.00332714
-4.15505e-05
0.00334797
-4.12942e-05
0.00336851
-4.10265e-05
0.00338878
-4.07453e-05
0.0034088
-4.04465e-05
0.00342856
-4.01253e-05
0.00344807
-3.97775e-05
0.00346732
-3.93977e-05
0.00348629
-3.89819e-05
0.00350498
-3.85266e-05
0.00352337
-3.80287e-05
0.00354142
-3.7486e-05
0.00355913
-3.68976e-05
0.00357646
-3.62622e-05
0.0035934
-3.55793e-05
0.00360992
-3.48489e-05
0.00362599
-3.40708e-05
0.0036416
-3.32445e-05
0.00365672
-3.23701e-05
0.00367133
-3.14475e-05
0.0036854
-3.04773e-05
0.00369891
-2.94602e-05
0.00371184
-2.83961e-05
0.00372416
-2.72863e-05
0.00373587
-2.6131e-05
0.00374693
-2.49307e-05
0.00375733
-2.36848e-05
0.00376706
-2.23974e-05
0.00377611
-2.10641e-05
0.00378445
-1.96902e-05
0.00379209
-1.8274e-05
0.00379902
-1.68143e-05
0.00380523
-1.53136e-05
0.00381072
-1.37716e-05
0.00381552
-1.21905e-05
0.00381962
-1.0567e-05
0.00382304
-8.90052e-06
0.00382582
-7.19525e-06
0.00382796
-5.4493e-06
0.00382948
-3.65303e-06
0.00383033
-1.79409e-06
0.00383057
7.35837e-08
0.00383031
1.87877e-06
0.00382939
3.80542e-06
0.00382777
5.78609e-06
0.00382543
7.81181e-06
0.00382235
9.88247e-06
0.00381853
1.20016e-05
0.00381394
1.41747e-05
0.00380857
1.64098e-05
0.0038024
1.87191e-05
0.0037954
2.11187e-05
0.00378756
2.36293e-05
0.00377884
2.62735e-05
0.00376919
2.90742e-05
0.00375857
3.20511e-05
0.0037469
3.52186e-05
0.00373408
3.85839e-05
0.00372001
4.21442e-05
0.00370457
4.58854e-05
0.00368763
4.97779e-05
0.00366909
5.3774e-05
0.00364885
5.78049e-05
0.00362685
6.17799e-05
0.00360309
6.5592e-05
0.00357766
6.91259e-05
0.00355076
7.22684e-05
0.00352276
7.49124e-05
0.0034941
7.69446e-05
0.0034653
7.82112e-05
0.00343678
7.84763e-05
0.00340881
7.74344e-05
0.00338148
7.48328e-05
0.00335483
7.06708e-05
0.00332892
6.53521e-05
0.00330385
5.96568e-05
0.00327962
5.45142e-05
0.00325609
5.06961e-05
0.00323297
4.85995e-05
0.00320984
4.81969e-05
0.00318627
4.91659e-05
0.00316178
5.10892e-05
0.00313599
5.35908e-05
0.00310854
5.63816e-05
0.0030792
5.92506e-05
0.00304786
6.20397e-05
0.00301455
6.46316e-05
0.00297944
6.69557e-05
0.00294276
6.89977e-05
0.00290477
7.07996e-05
0.00286568
7.24431e-05
0.00282563
7.40226e-05
0.00278467
7.56184e-05
0.00274279
7.72792e-05
0.00269994
7.90189e-05
0.00265606
8.08247e-05
0.00261112
8.26678e-05
0.0025651
8.45166e-05
0.00251802
8.63459e-05
0.00246989
8.81402e-05
0.00242077
8.98929e-05
0.00237071
9.16046e-05
0.00231974
9.32811e-05
0.00226789
9.49301e-05
0.00221518
9.65619e-05
0.00216162
9.81861e-05
0.0021072
9.98111e-05
0.00205191
0.000101443
0.00199574
0.000103083
0.00193866
0.000104732
0.00188066
0.000106389
0.00182172
0.000108055
0.00176181
0.000109731
0.0017009
0.000111421
0.00163896
0.000113131
0.00157595
0.000114865
0.00151181
0.000116625
0.0014465
0.000118408
0.00137997
0.000120207
0.00131216
0.000122013
0.00124304
0.000123809
0.00117258
0.000125576
0.00110078
0.000127289
0.00102764
0.000128926
0.000953202
0.000130457
0.000877541
0.000131856
0.000800751
0.000133103
0.000722958
0.000134172
0.000644307
0.000135048
0.000564946
0.000135716
0.000485005
0.000136163
0.000404563
0.00013639
0.000323594
0.000136467
0.000241943
0.000136573
0.000159896
0.000136122
7.96247e-05
0.000133794
0.000140158
1.16567e-05
-6.41812e-05
2.72215e-05
-7.67835e-05
3.93133e-05
-6.90281e-05
5.03447e-05
-6.63505e-05
6.15006e-05
-6.64269e-05
7.2928e-05
-6.66215e-05
8.45385e-05
-6.66591e-05
9.63631e-05
-6.67212e-05
0.000108452
-6.68384e-05
0.000120851
-6.69951e-05
0.000133595
-6.71813e-05
0.000146719
-6.73955e-05
0.000160248
-6.76236e-05
0.000174213
-6.78767e-05
0.000188644
-6.81463e-05
0.000203555
-6.84239e-05
0.000218962
-6.8698e-05
0.000234879
-6.89725e-05
0.000251311
-6.9236e-05
0.000268267
-6.94815e-05
0.00028574
-6.97048e-05
0.000303719
-6.98782e-05
0.000322197
-7.00077e-05
0.000341142
-7.00751e-05
0.000360524
-7.00722e-05
0.0003803
-6.99855e-05
0.000400425
-6.98067e-05
0.000420853
-6.9534e-05
0.000441545
-6.91665e-05
0.000462461
-6.87047e-05
0.000483575
-6.81676e-05
0.000504865
-6.7556e-05
0.00052631
-6.68787e-05
0.000547896
-6.61403e-05
0.000569603
-6.53402e-05
0.000591414
-6.44838e-05
0.000613307
-6.35765e-05
0.000635263
-6.26253e-05
0.000657262
-6.16421e-05
0.000679298
-6.06374e-05
0.000701381
-5.96189e-05
0.000723532
-5.85893e-05
0.000745788
-5.75489e-05
0.000768183
-5.64943e-05
0.000790755
-5.54295e-05
0.000813523
-5.43654e-05
0.000836477
-5.33066e-05
0.000859581
-5.22718e-05
0.000882787
-5.12859e-05
0.000906023
-5.03743e-05
0.000929206
-4.95561e-05
0.000952254
-4.88397e-05
0.000975096
-4.82231e-05
0.000997673
-4.76951e-05
0.00101995
-4.72402e-05
0.00104189
-4.6842e-05
0.0010635
-4.64852e-05
0.00108478
-4.61571e-05
0.00110571
-4.5847e-05
0.00112631
-4.55464e-05
0.00114659
-4.52489e-05
0.00116654
-4.49537e-05
0.00118618
-4.46643e-05
0.00120551
-4.43847e-05
0.00122453
-4.41174e-05
0.00124325
-4.38628e-05
0.00126168
-4.36197e-05
0.00127982
-4.33843e-05
0.00129768
-4.31522e-05
0.00131526
-4.29182e-05
0.00133256
-4.2676e-05
0.00134959
-4.24219e-05
0.00136634
-4.21528e-05
0.00138282
-4.1866e-05
0.00139903
-4.15627e-05
0.00141497
-4.12418e-05
0.00143065
-4.09035e-05
0.00144606
-4.0549e-05
0.00146121
-4.01787e-05
0.00147611
-3.9794e-05
0.00149076
-3.93941e-05
0.00150517
-3.89799e-05
0.00151934
-3.85507e-05
0.00153329
-3.81064e-05
0.00154699
-3.76469e-05
0.00156048
-3.71733e-05
0.00157373
-3.66863e-05
0.00158676
-3.61871e-05
0.00159956
-3.56772e-05
0.00161213
-3.51584e-05
0.00162447
-3.46318e-05
0.00163657
-3.40995e-05
0.00164843
-3.35634e-05
0.00166003
-3.30256e-05
0.00167137
-3.24871e-05
0.00168245
-3.19481e-05
0.00169325
-3.1408e-05
0.00170378
-3.08648e-05
0.00171403
-3.03162e-05
0.00172401
-2.97604e-05
0.00173373
-2.91965e-05
0.0017432
-2.86255e-05
0.00175244
-2.80498e-05
0.00176146
-2.74731e-05
0.00177026
-2.68999e-05
0.00177887
-2.63347e-05
0.00178728
-2.57815e-05
0.0017955
-2.52439e-05
0.00180354
-2.47251e-05
0.00181141
-2.42277e-05
0.00181911
-2.37537e-05
0.00182666
-2.33053e-05
0.00183405
-2.28843e-05
0.0018413
-2.24918e-05
0.00184841
-2.21294e-05
0.00185541
-2.17983e-05
0.00186229
-2.14993e-05
0.00186907
-2.12334e-05
0.00187576
-2.10013e-05
0.00188237
-2.08038e-05
0.00188891
-2.06415e-05
0.0018954
-2.05149e-05
0.00190185
-2.04246e-05
0.00190828
-2.03711e-05
0.00191469
-2.03548e-05
0.0019211
-2.03759e-05
0.00192752
-2.0435e-05
0.00193397
-2.05321e-05
0.00194045
-2.06675e-05
0.00194699
-2.08411e-05
0.00195358
-2.10526e-05
0.00196024
-2.13011e-05
0.00196696
-2.15851e-05
0.00197377
-2.19024e-05
0.00198064
-2.22501e-05
0.00198759
-2.26245e-05
0.00199462
-2.30215e-05
0.00200171
-2.34363e-05
0.00200888
-2.38639e-05
0.00201611
-2.42993e-05
0.00202342
-2.47378e-05
0.00203082
-2.51751e-05
0.00203832
-2.56079e-05
0.00204594
-2.60339e-05
0.00205372
-2.64517e-05
0.00206167
-2.68608e-05
0.00206983
-2.72617e-05
0.00207824
-2.76549e-05
0.0020869
-2.80411e-05
0.00209585
-2.84205e-05
0.00210511
-2.87928e-05
0.00211469
-2.9157e-05
0.0021246
-2.95119e-05
0.00213487
-2.98557e-05
0.0021455
-3.01875e-05
0.00215654
-3.0507e-05
0.00216801
-3.08159e-05
0.00217993
-3.1118e-05
0.00219235
-3.14198e-05
0.00220529
-3.1731e-05
0.00221876
-3.20648e-05
0.00223277
-3.24372e-05
0.00224731
-3.28659e-05
0.00226236
-3.3368e-05
0.00227789
-3.3956e-05
0.00229385
-3.46392e-05
0.00231021
-3.54232e-05
0.00232687
-3.63089e-05
0.00234377
-3.72916e-05
0.00236081
-3.83594e-05
0.00237793
-3.94934e-05
0.00239505
-4.06697e-05
0.00241216
-4.18606e-05
0.00242927
-4.30449e-05
0.00244641
-4.42074e-05
0.00246364
-4.53398e-05
0.00248101
-4.64396e-05
0.00249859
-4.75089e-05
0.00251643
-4.85516e-05
0.00253457
-4.95717e-05
0.00255303
-5.05723e-05
0.00257182
-5.15552e-05
0.00259092
-5.25215e-05
0.00261034
-5.3471e-05
0.00263004
-5.44034e-05
0.00265
-5.53175e-05
0.00267021
-5.62113e-05
0.00269062
-5.70821e-05
0.00271123
-5.79262e-05
0.00273201
-5.8739e-05
0.00275293
-5.95148e-05
0.00277398
-6.02475e-05
0.00279513
-6.0931e-05
0.00281638
-6.15602e-05
0.00283772
-6.21318e-05
0.00285913
-6.26452e-05
0.00288062
-6.31025e-05
0.00290219
-6.35087e-05
0.00292385
-6.38696e-05
0.00294559
-6.41907e-05
0.00296742
-6.44748e-05
0.00298935
-6.47213e-05
0.00301137
-6.49256e-05
0.00303349
-6.50808e-05
0.00305568
-6.51786e-05
0.00307793
-6.52114e-05
0.00310021
-6.51741e-05
0.00312249
-6.50648e-05
0.00314475
-6.48853e-05
0.00316693
-6.46403e-05
0.00318902
-6.4337e-05
0.00321097
-6.39838e-05
0.00323276
-6.35891e-05
0.00325437
-6.31603e-05
0.00327578
-6.27026e-05
0.00329697
-6.22188e-05
0.00331794
-6.17086e-05
0.00333866
-6.11693e-05
0.00335913
-6.05963e-05
0.00337934
-5.99838e-05
0.00339927
-5.93255e-05
0.0034189
-5.86157e-05
0.00343822
-5.78496e-05
0.00345722
-5.70232e-05
0.00347586
-5.61336e-05
0.00349415
-5.51789e-05
0.00351204
-5.41575e-05
0.00352953
-5.30681e-05
0.00354659
-5.19096e-05
0.0035632
-5.06816e-05
0.00357934
-4.93839e-05
0.00359499
-4.80161e-05
0.00361012
-4.65782e-05
0.00362471
-4.50703e-05
0.00363874
-4.3493e-05
0.00365219
-4.18455e-05
0.00366504
-4.01308e-05
0.00367725
-3.83482e-05
0.00368882
-3.64989e-05
0.00369972
-3.45841e-05
0.00370993
-3.26051e-05
0.00371943
-3.0563e-05
0.0037282
-2.84592e-05
0.00373622
-2.6295e-05
0.00374348
-2.40719e-05
0.00374996
-2.17928e-05
0.00375564
-1.9459e-05
0.00376053
-1.70731e-05
0.0037646
-1.46376e-05
0.00376785
-1.21558e-05
0.00377029
-9.63242e-06
0.00377192
-7.08111e-06
0.00377275
-4.48581e-06
0.00377284
-1.87928e-06
0.00377208
8.27597e-07
0.00377044
3.51927e-06
0.00376801
6.23664e-06
0.00376481
8.98824e-06
0.00376085
1.17748e-05
0.00375613
1.45966e-05
0.00375068
1.74548e-05
0.0037445
2.0353e-05
0.00373761
2.32975e-05
0.00373004
2.6298e-05
0.00372179
2.9367e-05
0.0037129
3.25189e-05
0.0037034
3.57685e-05
0.00369335
3.91297e-05
0.00368278
4.26148e-05
0.00367177
4.62329e-05
0.00366036
4.99895e-05
0.00364862
5.38846e-05
0.0036366
5.79106e-05
0.00362433
6.20489e-05
0.00361183
6.62661e-05
0.00359913
7.05112e-05
0.00358619
7.47151e-05
0.00357299
7.87927e-05
0.00355947
8.26486e-05
0.00354555
8.61835e-05
0.00353117
8.92945e-05
0.00351625
9.18664e-05
0.00350071
9.37527e-05
0.00348442
9.47666e-05
0.00346714
9.47118e-05
0.0034485
9.34788e-05
0.00342799
9.11729e-05
0.00340515
8.81943e-05
0.00337963
8.5182e-05
0.00335132
8.28162e-05
0.00332044
8.15819e-05
0.00328741
8.16302e-05
0.0032528
8.28078e-05
0.00321715
8.48088e-05
0.0031809
8.73397e-05
0.00314429
9.02037e-05
0.00310738
9.32918e-05
0.0030701
9.65291e-05
0.00303231
9.98296e-05
0.00299386
0.000103087
0.00295462
0.000106195
0.00291453
0.000109084
0.00287359
0.000111741
0.00283182
0.000114209
0.00278928
0.000116572
0.00274597
0.000118921
0.00270192
0.000121333
0.00265709
0.000123846
0.00261145
0.000126467
0.00256495
0.00012917
0.00251755
0.000131911
0.00246926
0.000134643
0.00242007
0.000137327
0.00237002
0.000139937
0.00231916
0.000142465
0.00226753
0.000144915
0.00221516
0.0001473
0.00216208
0.000149637
0.00210833
0.000151944
0.00205391
0.000154232
0.00199883
0.000156515
0.00194312
0.000158797
0.00188676
0.000161086
0.00182977
0.000163387
0.00177212
0.000165705
0.0017138
0.000168047
0.00165479
0.000170428
0.00159507
0.000172854
0.0015346
0.00017534
0.00147332
0.000177899
0.00141119
0.000180538
0.00134813
0.000183265
0.00128407
0.00018608
0.0012189
0.000188977
0.00115253
0.000191941
0.00108487
0.00019495
0.00101583
0.00019797
0.000945322
0.000200964
0.000873293
0.000203885
0.00079971
0.000206686
0.000724567
0.000209314
0.000647897
0.000211718
0.000569766
0.000213847
0.00049027
0.000215659
0.000409523
0.000217136
0.000327697
0.000218293
0.000245328
0.000218942
0.000163654
0.000217796
8.38196e-05
0.000213628
0.000223978
1.50314e-05
-7.92126e-05
3.61141e-05
-9.78662e-05
5.35474e-05
-8.64615e-05
6.89772e-05
-8.17802e-05
8.44278e-05
-8.18775e-05
0.000100342
-8.25357e-05
0.000116586
-8.29033e-05
0.000133093
-8.32282e-05
0.000149886
-8.36314e-05
0.000167015
-8.41236e-05
0.000184507
-8.46738e-05
0.000202378
-8.52657e-05
0.000220647
-8.58933e-05
0.000239332
-8.65613e-05
0.000258445
-8.72595e-05
0.000277984
-8.79626e-05
0.000297956
-8.86702e-05
0.000318349
-8.93656e-05
0.00033915
-9.00368e-05
0.000360329
-9.06605e-05
0.000381856
-9.12317e-05
0.000403711
-9.17335e-05
0.000425861
-9.21576e-05
0.00044826
-9.24744e-05
0.000470872
-9.26836e-05
0.000493658
-9.27722e-05
0.000516581
-9.27289e-05
0.0005396
-9.25534e-05
0.000562683
-9.22491e-05
0.000585803
-9.18249e-05
0.000608928
-9.12931e-05
0.000632038
-9.06652e-05
0.000655111
-8.99524e-05
0.000678132
-8.91609e-05
0.000701088
-8.82964e-05
0.000723966
-8.73617e-05
0.000746752
-8.63621e-05
0.00076943
-8.53035e-05
0.000791977
-8.41889e-05
0.000814371
-8.30317e-05
0.000836596
-8.18436e-05
0.000858638
-8.06314e-05
0.0008805
-7.94108e-05
0.000902191
-7.81858e-05
0.000923729
-7.69676e-05
0.000945125
-7.57613e-05
0.000966393
-7.45749e-05
0.000987539
-7.34169e-05
0.00100855
-7.2298e-05
0.0010294
-7.12285e-05
0.00105007
-7.02173e-05
0.0010705
-6.92695e-05
0.00109066
-6.83858e-05
0.00111053
-6.75636e-05
0.00113009
-6.67983e-05
0.00114933
-6.60841e-05
0.00116826
-6.54143e-05
0.00118688
-6.47814e-05
0.00120521
-6.41798e-05
0.00122327
-6.36043e-05
0.00124107
-6.30488e-05
0.00125863
-6.25131e-05
0.00127596
-6.19954e-05
0.00129307
-6.14969e-05
0.00130997
-6.10151e-05
0.00132666
-6.05514e-05
0.00134314
-6.00981e-05
0.00135941
-5.96558e-05
0.00137548
-5.9222e-05
0.00139135
-5.8786e-05
0.00140702
-5.83471e-05
0.0014225
-5.79001e-05
0.00143779
-5.74449e-05
0.0014529
-5.69783e-05
0.00146784
-5.6497e-05
0.0014826
-5.60015e-05
0.00149718
-5.54919e-05
0.0015116
-5.49664e-05
0.00152585
-5.44258e-05
0.00153992
-5.38695e-05
0.00155383
-5.3297e-05
0.00156755
-5.27062e-05
0.0015811
-5.20983e-05
0.00159447
-5.14725e-05
0.00160765
-5.08294e-05
0.00162064
-5.01682e-05
0.00163345
-4.949e-05
0.00164606
-4.87948e-05
0.00165846
-4.80847e-05
0.00167066
-4.73605e-05
0.00168266
-4.66239e-05
0.00169443
-4.58755e-05
0.00170599
-4.51166e-05
0.00171731
-4.43492e-05
0.0017284
-4.35737e-05
0.00173924
-4.27916e-05
0.00174984
-4.20035e-05
0.00176018
-4.12099e-05
0.00177028
-4.04115e-05
0.00178012
-3.96093e-05
0.00178973
-3.88047e-05
0.00179911
-3.79999e-05
0.00180826
-3.71978e-05
0.00181718
-3.64017e-05
0.0018259
-3.56151e-05
0.00183441
-3.48418e-05
0.00184271
-3.40855e-05
0.00185082
-3.33496e-05
0.00185873
-3.26373e-05
0.00186645
-3.19518e-05
0.00187399
-3.12957e-05
0.00188136
-3.06715e-05
0.00188856
-3.00817e-05
0.00189559
-2.95281e-05
0.00190248
-2.90128e-05
0.00190922
-2.85374e-05
0.00191582
-2.81033e-05
0.0019223
-2.7712e-05
0.00192866
-2.73647e-05
0.00193492
-2.70624e-05
0.00194109
-2.68059e-05
0.00194717
-2.65962e-05
0.00195318
-2.64337e-05
0.00195912
-2.63192e-05
0.00196502
-2.62531e-05
0.00197088
-2.62357e-05
0.00197671
-2.62673e-05
0.00198253
-2.63477e-05
0.00198834
-2.64768e-05
0.00199415
-2.66539e-05
0.00199998
-2.6878e-05
0.00200582
-2.71474e-05
0.0020117
-2.74601e-05
0.00201761
-2.78132e-05
0.00202356
-2.82036e-05
0.00202957
-2.86278e-05
0.00203563
-2.90823e-05
0.00204175
-2.95636e-05
0.00204796
-3.00687e-05
0.00205425
-3.05947e-05
0.00206066
-3.11392e-05
0.00206718
-3.17002e-05
0.00207385
-3.22759e-05
0.00208068
-3.28648e-05
0.00208769
-3.34655e-05
0.00209491
-3.40765e-05
0.00210234
-3.46966e-05
0.00211001
-3.53244e-05
0.00211793
-3.59586e-05
0.00212611
-3.65982e-05
0.00213456
-3.72421e-05
0.00214329
-3.78895e-05
0.00215232
-3.85398e-05
0.00216166
-3.91926e-05
0.00217132
-3.98478e-05
0.00218131
-4.05059e-05
0.00219167
-4.11684e-05
0.00220239
-4.18381e-05
0.00221349
-4.25193e-05
0.00222497
-4.32183e-05
0.00223685
-4.39434e-05
0.00224912
-4.47039e-05
0.00226176
-4.55102e-05
0.00227477
-4.6372e-05
0.00228811
-4.72976e-05
0.00230176
-4.82934e-05
0.0023157
-4.93635e-05
0.0023299
-5.05093e-05
0.00234434
-5.17289e-05
0.002359
-5.3016e-05
0.00237386
-5.43602e-05
0.00238894
-5.57476e-05
0.00240424
-5.71617e-05
0.00241979
-5.85867e-05
0.00243559
-6.00081e-05
0.00245166
-6.14145e-05
0.00246802
-6.27976e-05
0.00248466