/*--------------------------------*- C++ -*----------------------------------*\
| =========                 |                                                 |
| \\      /  F ield         | OpenFOAM: The Open Source CFD Toolbox           |
|  \\    /   O peration     | Version:  v2006                                 |
|   \\  /    A nd           | Website:  www.openfoam.com                      |
|    \\/     M anipulation  |                                                 |
\*---------------------------------------------------------------------------*/
FoamFile
{
    version     2.0;
    format      ascii;
    class       volScalarField;
    location    "0";
    object      f;
}
// * * * * * * * * * * * * * * * * * * * * * * * * * * * * * * * * * * * * * //

dimensions      [0 0 0 0 0 0 0];


internalField   nonuniform List<scalar> 
2500
(
-1.12985e-60
-1.0181e-61
4.00944e-60
-1.66942e-61
-1.5847e-60
-4.47208e-62
2.7592e-61
1.08543e-61
3.86745e-62
3.70531e-63
1.96892e-64
7.22056e-66
2.03021e-67
4.65629e-69
9.07263e-71
1.54515e-72
2.34789e-74
3.23148e-76
4.07368e-78
4.74298e-80
5.13264e-82
5.18802e-84
4.91788e-86
4.38677e-88
3.69321e-90
2.94264e-92
2.22453e-94
1.59932e-96
1.09597e-98
7.17363e-101
4.49396e-103
2.69952e-105
1.55771e-107
8.64882e-110
4.62795e-112
2.39018e-114
1.19315e-116
5.76438e-119
2.69868e-121
1.22574e-123
5.40729e-126
2.31925e-128
9.68125e-131
3.93675e-133
1.56081e-135
6.03857e-138
2.28156e-140
8.42502e-143
3.04272e-145
1.0415e-147
-3.73425e-59
-3.58162e-60
1.40847e-58
-4.76154e-60
-5.6452e-59
-3.1649e-60
8.66442e-60
3.45404e-60
1.26304e-60
1.21135e-61
6.42489e-63
2.35053e-64
6.59505e-66
1.51044e-67
2.9416e-69
5.01215e-71
7.62605e-73
1.05162e-74
1.32869e-76
1.55056e-78
1.68148e-80
1.70255e-82
1.61588e-84
1.44235e-86
1.21446e-88
9.67257e-91
7.30559e-93
5.24534e-95
3.5883e-97
2.3439e-99
1.46492e-101
8.77708e-104
5.05054e-106
2.7959e-108
1.49143e-110
7.67789e-113
3.81994e-115
1.83921e-117
8.58055e-120
3.8835e-122
1.70704e-124
7.29519e-127
3.03411e-129
1.22925e-131
4.85565e-134
1.87162e-136
7.04532e-139
2.59193e-141
9.32599e-144
3.18076e-146
-1.18973e-57
-1.22366e-58
4.77178e-57
-1.24348e-58
-1.93628e-57
-1.62841e-58
2.60914e-58
1.05802e-58
3.97631e-59
3.81798e-60
2.02136e-61
7.37811e-63
2.06615e-64
4.72684e-66
9.20509e-68
1.57001e-69
2.39331e-71
3.30857e-73
4.19183e-75
4.90505e-77
5.33196e-79
5.40909e-81
5.14051e-83
4.59167e-85
3.86654e-87
3.078e-89
2.32245e-91
1.66507e-93
1.13695e-95
7.41039e-98
4.61996e-100
2.76052e-102
1.58382e-104
8.74066e-107
4.64748e-109
2.38449e-111
1.18225e-113
5.67211e-116
2.6367e-118
1.189e-120
5.20705e-123
2.21697e-125
9.18583e-128
3.7075e-130
1.45893e-132
5.60209e-135
2.10074e-137
7.69898e-140
2.75959e-142
9.37727e-145
-3.69977e-56
-4.1084e-57
1.57728e-55
-2.93848e-57
-6.46902e-56
-7.28806e-57
7.62425e-57
3.16004e-57
1.2221e-57
1.17492e-58
6.20977e-60
2.26174e-61
6.32317e-63
1.44556e-64
2.81639e-66
4.81128e-68
7.35265e-70
1.01957e-71
1.29596e-73
1.52114e-75
1.6579e-77
1.68532e-79
1.60383e-81
1.43356e-83
1.20719e-85
9.60432e-88
7.23868e-90
5.18153e-92
3.53109e-94
2.29616e-96
1.42781e-98
8.50727e-101
4.86617e-103
2.67692e-105
1.4186e-107
7.25339e-110
3.58357e-112
1.71309e-114
7.93415e-117
3.56451e-119
1.55516e-121
6.59617e-124
2.72264e-126
1.09467e-128
4.29107e-131
1.64135e-133
6.13119e-136
2.23833e-138
7.99199e-141
2.70561e-143
-1.12206e-54
-1.35437e-55
5.082e-54
-5.95678e-56
-2.10369e-54
-2.9979e-55
2.15603e-55
9.19369e-56
3.66382e-56
3.52729e-57
1.86129e-58
6.76591e-60
1.88897e-61
4.31734e-63
8.42026e-65
1.4417e-66
2.21025e-68
3.07619e-70
3.92474e-72
4.6225e-74
5.05255e-76
5.14715e-78
4.905e-80
4.38699e-82
3.69395e-84
2.93682e-86
2.21068e-88
1.57971e-90
1.07426e-92
6.96853e-95
4.32141e-97
2.56722e-99
1.46385e-101
8.02621e-104
4.23882e-106
2.15968e-108
1.06314e-110
5.06352e-113
2.33638e-115
1.04567e-117
4.5447e-120
1.9202e-122
7.89514e-125
3.162e-127
1.23466e-129
4.70418e-132
1.75036e-134
6.36511e-137
2.2638e-139
7.63501e-142
-3.31574e-53
-4.37923e-54
1.59454e-52
-8.99383e-55
-6.65356e-53
-1.161e-53
5.87884e-54
2.60257e-54
1.07046e-54
1.03218e-55
5.43872e-57
1.97354e-58
5.50435e-60
1.25839e-61
2.45849e-63
4.22206e-65
6.49816e-67
9.08319e-69
1.16379e-70
1.37586e-72
1.50845e-74
1.54009e-76
1.46962e-78
1.31512e-80
1.10714e-82
8.79469e-85
6.61091e-87
4.71522e-89
3.19929e-91
2.06996e-93
1.27999e-95
7.58072e-98
4.30853e-100
2.35432e-102
1.23899e-104
6.28983e-107
3.08482e-109
1.46371e-111
6.72799e-114
2.99957e-116
1.29861e-118
5.46534e-121
2.23831e-123
8.9291e-126
3.47275e-128
1.31793e-130
4.88442e-133
1.76919e-135
6.2674e-138
2.10573e-140
-9.53799e-52
-1.38709e-52
4.86698e-51
-4.14687e-54
-2.045e-51
-4.28658e-52
1.53776e-52
7.15965e-53
3.0451e-53
2.94144e-54
1.54788e-55
5.60831e-57
1.56328e-58
3.57707e-60
7.00583e-62
1.20777e-63
1.86764e-65
2.62364e-67
3.37744e-69
4.00915e-71
4.40953e-73
4.51206e-75
4.31113e-77
3.85952e-79
3.24802e-81
2.5775e-83
1.93446e-85
1.37695e-87
9.32016e-90
6.01378e-92
3.70763e-94
2.18883e-96
1.23984e-98
6.75117e-101
3.54005e-103
1.79047e-105
8.74807e-108
4.13491e-110
1.89324e-112
8.40758e-115
3.62553e-117
1.51979e-119
6.19943e-122
2.4632e-124
9.54169e-127
3.60663e-129
1.33132e-131
4.80289e-134
1.69465e-136
5.67179e-139
-2.66812e-50
-4.29745e-51
1.44353e-49
2.81291e-52
-6.10265e-50
-1.51982e-50
3.82945e-51
1.91138e-51
8.42527e-52
8.15502e-53
4.28673e-54
1.55132e-55
4.3238e-57
9.90945e-59
1.94733e-60
3.37314e-62
5.24508e-64
7.40992e-66
9.58837e-68
1.1431e-69
1.26138e-71
1.29355e-73
1.23741e-75
1.10808e-77
9.32025e-80
7.38739e-82
5.53471e-84
3.93097e-86
2.65391e-88
1.7075e-90
1.04944e-92
6.17487e-95
3.48554e-97
1.89109e-99
9.8793e-102
4.97773e-104
2.42268e-106
1.14063e-108
5.20189e-111
2.30086e-113
9.88199e-116
4.12573e-118
1.67614e-120
6.63281e-123
2.55894e-125
9.63324e-128
3.54154e-130
1.27249e-132
4.47173e-135
1.49081e-137
-7.25022e-49
-1.30009e-49
4.15545e-48
7.193e-51
-1.76657e-48
-5.19746e-49
8.96788e-50
4.94389e-50
2.26485e-50
2.19738e-51
1.15407e-52
4.17294e-54
1.16365e-55
2.6734e-57
5.27649e-59
9.19282e-61
1.43867e-62
2.04533e-64
2.66148e-66
3.18732e-68
3.5288e-70
3.62647e-72
3.47263e-74
3.10993e-76
2.61393e-78
2.06897e-80
1.5471e-82
1.0962e-84
7.38053e-87
4.73421e-89
2.90018e-91
1.70059e-93
9.56485e-96
5.17016e-98
2.69067e-100
1.35043e-102
6.54667e-105
3.06995e-107
1.39442e-109
6.14267e-112
2.62746e-114
1.09248e-116
4.42016e-119
1.74196e-121
6.69291e-124
2.50925e-126
9.18714e-129
3.28748e-131
1.15056e-133
3.82072e-136
-1.91157e-47
-3.83306e-48
1.15954e-46
-3.50366e-49
-4.95598e-47
-1.71903e-47
1.93147e-48
1.2366e-48
5.90822e-49
5.74803e-50
3.01718e-51
1.09051e-52
3.04461e-54
7.0186e-56
1.39288e-57
2.44348e-59
3.85225e-61
5.51492e-63
7.21915e-65
8.6858e-67
9.64794e-69
9.93465e-71
9.52117e-73
8.52554e-75
7.15903e-77
5.65741e-79
4.22137e-81
2.9834e-83
2.00284e-85
1.28063e-87
7.81851e-90
4.56819e-92
2.55982e-94
1.37839e-96
7.14542e-99
3.57199e-101
1.72466e-103
8.05454e-106
3.64349e-108
1.5984e-110
6.80867e-113
2.81924e-115
1.13592e-117
4.458e-120
1.70572e-122
6.36839e-125
2.32201e-127
8.27461e-130
2.88404e-132
9.53906e-135
-4.88404e-46
-1.09898e-46
3.13218e-45
-4.54959e-47
-1.34624e-45
-5.50775e-46
3.64728e-47
2.98427e-47
1.49376e-47
1.45801e-48
7.65147e-50
2.76578e-51
7.73749e-53
1.7918e-54
3.58008e-56
6.33135e-58
1.00647e-59
1.4518e-61
1.91237e-63
2.31175e-65
2.576e-67
2.6573e-69
2.54824e-71
2.28088e-73
1.91302e-75
1.50899e-77
1.12332e-79
7.91702e-82
5.29856e-84
3.37664e-86
2.05421e-88
1.19579e-90
6.67505e-93
3.58021e-95
1.84851e-97
9.20308e-100
4.42522e-102
2.0581e-104
9.271e-107
4.05013e-109
1.71797e-111
7.08357e-114
2.84207e-116
1.11069e-118
4.23184e-121
1.57334e-123
5.71259e-126
2.0272e-128
7.03618e-131
2.31789e-133
-1.20763e-44
-3.05678e-45
8.17841e-44
-2.94404e-45
-3.53792e-44
-1.71089e-44
5.24169e-46
6.92895e-46
3.65522e-46
3.58161e-47
1.87996e-48
6.80039e-50
1.90821e-51
4.44492e-53
8.95417e-55
1.59842e-56
2.56446e-58
3.72924e-60
4.9441e-62
6.00468e-64
6.7112e-66
6.93371e-68
6.6513e-70
5.94952e-72
4.98273e-74
3.92223e-76
2.91228e-78
2.04649e-80
1.36518e-82
8.66956e-85
5.25479e-87
3.04719e-89
1.69427e-91
9.05066e-94
4.65378e-96
2.30732e-98
1.1048e-100
5.11653e-103
2.29502e-105
9.98329e-108
4.21659e-110
1.73116e-112
6.9161e-115
2.6913e-117
1.02104e-119
3.77996e-122
1.36663e-124
4.82922e-127
1.6691e-129
5.47609e-132
-2.88549e-43
-8.22679e-44
2.06103e-42
-1.48557e-43
-8.98862e-43
-5.15384e-43
1.62196e-45
1.54219e-44
8.6437e-45
8.5093e-46
4.46958e-47
1.61915e-48
4.56253e-50
1.07067e-51
2.17805e-53
3.9298e-55
6.36889e-57
9.34111e-59
1.24656e-60
1.52088e-62
1.70452e-64
1.76322e-66
1.69143e-68
1.51151e-70
1.26371e-72
9.92432e-75
7.34832e-77
5.14746e-79
3.422e-81
2.16519e-83
1.30735e-85
7.55113e-88
4.18145e-90
2.22445e-92
1.13899e-94
5.62306e-97
2.68092e-99
1.23624e-101
5.52118e-104
2.3913e-106
1.00562e-108
4.11079e-111
1.63518e-113
6.33553e-116
2.39324e-118
8.82182e-121
3.17582e-123
1.11743e-125
3.84568e-128
1.25653e-130
-6.652e-42
-2.13627e-42
5.00479e-41
-6.47681e-42
-2.20666e-41
-1.50519e-41
-2.7163e-43
3.27442e-43
1.97209e-43
1.95246e-44
1.02689e-45
3.7288e-47
1.05664e-48
2.50241e-50
5.14967e-52
9.40393e-54
1.5408e-55
2.27999e-57
3.06257e-59
3.75274e-61
4.21613e-63
4.36522e-65
4.18609e-67
3.73602e-69
3.11721e-71
2.44173e-73
1.80249e-75
1.2584e-77
8.33549e-80
5.25398e-82
3.15977e-84
1.8176e-86
1.00229e-88
5.30933e-91
2.70685e-93
1.33055e-95
6.31598e-98
2.89969e-100
1.28934e-102
5.55976e-105
2.32778e-107
9.47367e-110
3.75186e-112
1.4473e-114
5.44329e-117
1.99773e-119
7.16055e-122
2.50859e-124
8.59622e-127
2.79705e-129
-1.47702e-40
-5.33618e-41
1.16902e-39
-2.54178e-40
-5.23329e-40
-4.25902e-40
-1.46068e-41
6.58652e-42
4.33319e-42
4.31989e-43
2.27668e-44
8.2956e-46
2.36797e-47
5.67124e-49
1.18285e-50
2.18912e-52
3.62871e-54
5.41838e-56
7.32482e-58
9.01153e-60
1.0145e-61
1.05089e-63
1.00706e-65
8.97327e-68
7.46966e-70
5.83436e-72
4.29292e-74
2.98641e-76
1.97066e-78
1.2372e-80
7.40998e-83
4.24447e-85
2.3305e-87
1.22914e-89
6.23894e-92
3.05315e-94
1.44285e-96
6.59463e-99
2.91919e-101
1.25315e-103
5.22332e-106
2.11632e-108
8.34399e-111
3.20446e-113
1.19987e-115
4.3842e-118
1.56455e-120
5.45718e-123
1.86188e-125
6.03279e-128
-3.1529e-39
-1.27817e-39
2.62189e-38
-9.16006e-39
-1.19917e-38
-1.16636e-38
-5.44081e-40
1.24203e-40
9.15114e-41
9.20135e-42
4.86362e-43
1.78066e-44
5.13046e-46
1.24548e-47
2.63806e-49
4.95439e-51
8.31297e-53
1.25259e-54
1.70366e-56
2.10349e-58
2.37183e-60
2.45705e-62
2.35197e-64
2.09156e-66
1.73652e-68
1.35212e-70
9.91426e-73
6.87099e-75
4.51598e-77
2.82345e-79
1.68385e-81
9.60328e-84
5.24958e-86
2.75634e-88
1.39279e-90
6.78509e-93
3.19195e-95
1.45227e-97
6.39943e-100
2.73469e-102
1.13469e-104
4.57662e-107
1.79628e-109
6.86749e-112
2.55992e-114
9.31199e-117
3.30832e-119
1.14885e-121
3.90239e-124
1.25907e-126
-6.45699e-38
-2.92689e-38
5.63572e-37
-3.0634e-37
-2.65646e-37
-3.08712e-37
-1.72639e-38
2.15718e-39
1.85336e-39
1.88344e-40
9.99582e-42
3.68317e-43
1.0737e-44
2.64897e-46
5.70974e-48
1.0894e-49
1.85089e-51
2.81378e-53
3.84878e-55
4.76663e-57
5.38048e-59
5.5715e-61
5.32512e-63
4.72448e-65
3.91098e-67
3.03495e-69
2.21706e-71
1.53041e-73
1.00169e-75
6.2358e-78
3.70256e-80
2.10218e-82
1.14394e-84
5.9789e-87
3.00728e-89
1.45826e-91
6.8285e-94
3.09247e-96
1.3564e-98
5.76964e-101
2.38295e-103
9.56724e-106
3.73788e-108
1.42255e-110
5.27865e-113
1.9115e-115
6.76055e-118
2.33717e-120
7.90351e-123
2.53905e-125
-1.26579e-36
-6.39098e-37
1.15878e-35
-9.55903e-36
-5.69489e-36
-7.88361e-36
-4.94883e-37
3.33427e-38
3.59067e-38
3.69789e-39
1.97321e-40
7.33202e-42
2.16875e-43
5.45344e-45
1.19863e-46
2.32554e-48
4.00114e-50
6.13459e-52
8.4339e-54
1.0471e-55
1.18255e-57
1.22342e-59
1.16704e-61
1.03261e-63
8.52028e-66
6.58764e-68
4.79331e-70
3.29498e-72
2.14729e-74
1.33079e-76
7.86582e-79
4.44536e-81
2.40778e-83
1.25256e-85
6.27059e-88
3.02638e-90
1.41047e-92
6.35765e-95
2.77547e-97
1.17505e-99
4.83051e-102
1.93036e-104
7.50691e-107
2.84378e-109
1.05039e-111
3.78627e-114
1.33303e-116
4.58753e-119
1.54436e-121
4.93982e-124
-2.36929e-35
-1.32916e-35
2.2748e-34
-2.78959e-34
-1.18292e-34
-1.93847e-34
-1.31282e-35
4.21284e-37
6.63565e-37
6.94999e-38
3.73517e-39
1.40309e-40
4.22524e-42
1.08624e-43
2.43917e-45
4.81526e-47
8.38797e-49
1.29626e-50
1.78995e-52
2.22625e-54
2.51401e-56
2.59718e-58
2.47159e-60
2.18018e-62
1.79251e-64
1.38048e-66
1.00027e-68
6.84587e-71
4.44122e-73
2.73977e-75
1.61179e-77
9.0659e-80
4.88703e-82
2.53015e-84
1.26057e-86
6.05471e-89
2.80833e-91
1.25979e-93
5.47344e-96
2.30628e-98
9.4359e-101
3.75297e-103
1.45262e-105
5.47712e-108
2.01364e-110
7.22485e-113
2.53194e-115
8.67358e-118
2.90661e-120
9.2563e-123
-4.22265e-34
-2.63858e-34
4.25564e-33
-7.61506e-33
-2.3832e-33
-4.57849e-33
-3.25963e-34
3.02048e-36
1.1659e-35
1.24771e-36
6.76941e-38
2.57882e-39
7.93693e-41
2.09276e-42
4.80866e-44
9.66118e-46
1.70297e-47
2.65048e-49
3.67299e-51
4.57307e-53
5.16046e-55
5.32074e-57
5.04916e-59
4.43853e-61
3.63513e-63
2.78783e-65
2.01109e-67
1.3701e-69
8.84674e-72
5.43148e-74
3.17988e-76
1.7799e-78
9.54782e-81
4.91897e-83
2.43873e-85
1.16563e-87
5.38008e-90
2.4017e-92
1.03841e-94
4.3543e-97
1.77295e-99
7.01785e-102
2.70339e-104
1.01448e-106
3.71214e-109
1.32565e-111
4.62409e-114
1.57672e-116
5.2594e-119
1.66745e-121
-7.14329e-33
-5.04446e-33
7.57321e-32
-1.94175e-31
-4.65729e-32
-1.03593e-31
-7.61621e-33
-4.53802e-35
1.94019e-34
2.13486e-35
1.1732e-36
4.55131e-38
1.43795e-39
3.90018e-41
9.17896e-43
1.87613e-44
3.34327e-46
5.23502e-48
7.27364e-50
9.0583e-52
1.02077e-53
1.04985e-55
9.93008e-58
8.69593e-60
7.09211e-62
5.4148e-64
3.88799e-66
2.63613e-68
1.69386e-70
1.03482e-72
6.02829e-75
3.35742e-77
1.79199e-79
9.18596e-82
4.53145e-84
2.15507e-86
9.89751e-89
4.39643e-91
1.89149e-93
7.8925e-96
3.19792e-98
1.25968e-100
4.82905e-103
1.80346e-105
6.56761e-108
2.33425e-110
8.10379e-113
2.75026e-115
9.13119e-118
2.88196e-120
-1.14292e-31
-9.48148e-32
1.27966e-30
-4.61195e-30
-8.81318e-31
-2.23829e-30
-1.67816e-31
-2.73087e-33
3.04412e-33
3.47324e-34
1.94409e-35
7.72524e-37
2.51721e-38
7.03756e-40
1.69608e-41
3.52233e-43
6.33626e-45
9.96872e-47
1.38721e-48
1.72651e-50
1.94158e-52
1.99081e-54
1.87603e-56
1.63601e-58
1.32827e-60
1.00934e-62
7.21207e-65
4.86558e-67
3.11063e-69
1.89068e-71
1.09577e-73
6.07153e-76
3.224e-78
1.64421e-80
8.06948e-83
3.81817e-85
1.74467e-87
7.71068e-90
3.30076e-92
1.37042e-94
5.52517e-97
2.16567e-99
8.26153e-102
3.07034e-104
1.1127e-106
3.93572e-109
1.35983e-111
4.59308e-114
1.51776e-116
4.76851e-119
-1.72252e-30
-1.81453e-30
2.04893e-29
-1.01614e-28
-1.60793e-29
-4.60136e-29
-3.48708e-30
-8.12092e-32
4.47817e-32
5.36017e-33
3.08923e-34
1.26881e-35
4.28142e-37
1.23327e-38
3.03598e-40
6.38854e-42
1.15746e-43
1.82649e-45
2.54233e-47
3.15921e-49
3.54283e-51
3.61957e-53
3.39666e-55
2.94862e-57
2.38247e-59
1.80139e-61
1.28058e-63
8.59456e-66
5.46588e-68
3.30478e-70
1.90525e-72
1.05012e-74
5.54687e-77
2.81403e-79
1.37388e-81
6.46693e-84
2.93974e-86
1.29257e-88
5.50494e-91
2.27397e-93
9.12188e-96
3.55756e-98
1.35038e-100
4.99378e-103
1.80089e-105
6.33884e-108
2.17953e-110
7.32634e-113
2.40938e-115
7.53496e-118
-2.43386e-29
-3.67613e-29
3.10023e-28
-2.06545e-27
-2.80725e-28
-8.96043e-28
-6.82297e-29
-1.91245e-30
6.13399e-31
7.82859e-32
4.75882e-33
2.05119e-34
7.17601e-36
2.11607e-37
5.28211e-39
1.11989e-40
2.03572e-42
3.21401e-44
4.46733e-46
5.53624e-48
6.18612e-50
6.29343e-52
5.87844e-54
5.07786e-56
4.08185e-58
3.07007e-60
2.17081e-62
1.44908e-64
9.16583e-67
5.5118e-69
3.16041e-71
1.73252e-73
9.10214e-76
4.59296e-78
2.23045e-80
1.04433e-82
4.72233e-85
2.0655e-87
8.75111e-90
3.59625e-92
1.43523e-94
5.56897e-97
2.1032e-99
7.73878e-102
2.77691e-104
9.726e-107
3.32775e-109
1.11315e-111
3.64305e-114
1.13399e-116
-3.20605e-28
-8.00457e-28
4.41376e-27
-3.84603e-26
-4.6403e-27
-1.6439e-26
-1.25368e-27
-3.90861e-29
7.75248e-30
1.07968e-30
7.32001e-32
3.39637e-33
1.22324e-34
3.62328e-36
9.01708e-38
1.90425e-39
3.44878e-41
5.42505e-43
7.51109e-45
9.26848e-47
1.03085e-48
1.04355e-50
9.6969e-53
8.33151e-55
6.6607e-57
4.98196e-59
3.50301e-61
2.32526e-63
1.46255e-65
8.74573e-68
4.98675e-70
2.71854e-72
1.42036e-74
7.1279e-77
3.44263e-79
1.60317e-81
7.21048e-84
3.13699e-86
1.32206e-88
5.40447e-91
2.14564e-93
8.28253e-96
3.11197e-98
1.13923e-100
4.06728e-103
1.41741e-105
4.82552e-108
1.60619e-110
5.23086e-113
1.62054e-115
-3.91028e-27
-1.82576e-26
5.86858e-26
-6.50245e-25
-7.16401e-26
-2.8214e-25
-2.15513e-26
-7.15487e-28
8.92769e-29
1.4034e-29
1.1965e-30
6.1769e-32
2.24302e-33
6.42893e-35
1.54338e-36
3.17444e-38
5.65127e-40
8.7892e-42
1.20685e-43
1.4791e-45
1.63494e-47
1.64529e-49
1.51991e-51
1.29828e-53
1.03186e-55
7.67278e-58
5.36351e-60
3.5395e-62
2.21336e-64
1.31589e-66
7.46007e-69
4.0437e-71
2.10077e-73
1.04833e-75
5.03501e-78
2.33178e-80
1.043e-82
4.51305e-85
1.89175e-87
7.69204e-90
3.03767e-92
1.16643e-94
4.35977e-97
1.58778e-99
5.63962e-102
1.95535e-104
6.62336e-107
2.19356e-109
7.10824e-112
2.19161e-114
-4.37693e-26
-4.15601e-25
7.19496e-25
-9.86945e-24
-1.01631e-24
-4.48733e-24
-3.45036e-25
-1.1878e-26
9.193e-28
1.71648e-28
2.25654e-29
1.31964e-30
4.70678e-32
1.24847e-33
2.75602e-35
5.31322e-37
9.06571e-39
1.37339e-40
1.85465e-42
2.24709e-44
2.46201e-46
2.45908e-48
2.2562e-50
1.9147e-52
1.51218e-54
1.11746e-56
7.76347e-59
5.09215e-61
3.1651e-63
1.8705e-65
1.05415e-67
5.68049e-70
2.93398e-72
1.45569e-74
6.95172e-77
3.20126e-79
1.42392e-81
6.12714e-84
2.55423e-86
1.03293e-88
4.05715e-91
1.54958e-93
5.7612e-96
2.08715e-98
7.37472e-101
2.54374e-103
8.57226e-106
2.82458e-108
9.10693e-111
2.7942e-113
-4.44086e-25
-9.03176e-24
7.9631e-24
-1.32533e-22
-1.29956e-23
-6.52681e-23
-5.12102e-24
-1.79651e-25
8.19657e-27
1.97201e-27
5.05211e-28
3.29066e-29
1.14477e-30
2.76224e-32
5.39726e-34
9.3026e-36
1.46126e-37
2.09819e-39
2.74146e-41
3.25351e-43
3.51532e-45
3.47488e-47
3.16116e-49
2.66254e-51
2.08812e-53
1.53275e-55
1.05795e-57
6.89505e-60
4.25886e-62
2.50133e-64
1.40106e-66
7.50432e-69
3.85286e-71
1.90032e-73
9.02209e-76
4.13067e-78
1.82682e-80
7.81638e-83
3.24019e-85
1.30306e-87
5.0901e-90
1.93353e-92
7.14995e-95
2.57643e-97
9.05539e-100
3.10706e-102
1.04162e-104
3.41446e-107
1.09525e-109
3.34389e-112
-4.00288e-24
-1.81608e-22
7.68279e-23
-1.54434e-21
-1.46336e-22
-8.51735e-22
-7.0257e-23
-2.47896e-24
5.91115e-26
2.11941e-26
1.25358e-26
8.84275e-28
3.05088e-29
6.85139e-31
1.18876e-32
1.78301e-34
2.46768e-36
3.22317e-38
3.9573e-40
4.51852e-42
4.76544e-44
4.63543e-46
4.16778e-48
3.47759e-50
2.70525e-52
1.97106e-54
1.35098e-56
8.74549e-59
5.36639e-61
3.13154e-63
1.74297e-65
9.27756e-68
4.73403e-70
2.32078e-72
1.09523e-74
4.98476e-77
2.19166e-79
9.32322e-82
3.84274e-84
1.53664e-86
5.96893e-89
2.2548e-91
8.29223e-94
2.97181e-96
1.03888e-98
3.54557e-101
1.18234e-103
3.85546e-106
1.23029e-108
3.73738e-111
-3.07756e-23
-3.30579e-21
6.08056e-22
-1.5197e-20
-1.40824e-21
-9.68964e-21
-8.93456e-22
-3.12499e-23
2.75936e-25
2.10085e-25
3.12407e-25
2.35763e-26
8.26531e-28
1.79066e-29
2.86092e-31
3.79389e-33
4.54683e-35
5.19174e-37
5.74723e-39
6.12067e-41
6.17814e-43
5.84632e-45
5.16187e-47
4.25137e-49
3.2736e-51
2.36457e-53
1.60809e-55
1.03342e-57
6.29719e-60
3.64997e-62
2.01817e-64
1.06731e-66
5.41165e-69
2.63642e-71
1.23654e-73
5.59376e-76
2.4447e-78
1.03381e-80
4.23615e-83
1.68418e-85
6.50464e-88
2.44328e-90
8.93517e-93
3.18452e-95
1.10714e-97
3.75804e-100
1.24646e-102
4.04291e-105
1.28329e-107
3.8786e-110
-1.79518e-22
-5.34952e-20
3.47641e-21
-1.21109e-19
-1.10918e-20
-9.17591e-20
-1.06893e-20
-3.61015e-22
-4.61074e-25
1.82359e-24
7.28265e-24
5.91011e-25
2.15635e-26
4.63227e-28
7.07322e-30
8.63301e-32
9.17343e-34
9.07691e-36
8.74887e-38
8.3423e-40
7.8e-42
7.02757e-44
6.01541e-46
4.85462e-48
3.68485e-50
2.63237e-52
1.77379e-54
1.13062e-56
6.83754e-59
3.93481e-61
2.16066e-63
1.135e-65
5.7171e-68
2.76729e-70
1.28971e-72
5.79791e-75
2.51835e-77
1.0585e-79
4.31139e-82
1.70397e-84
6.54267e-87
2.4434e-89
8.88464e-92
3.14865e-94
1.08856e-96
3.67458e-99
1.21211e-101
3.91022e-104
1.23452e-106
3.71191e-109
-3.50843e-22
-7.55397e-19
9.11001e-21
-7.2259e-19
-6.62683e-20
-6.64975e-19
-1.23743e-19
-3.82383e-21
-2.84876e-23
1.10144e-23
1.51709e-22
1.34708e-23
5.24895e-25
1.13652e-26
1.6975e-28
1.97447e-30
1.9378e-32
1.71049e-34
1.4344e-36
1.1893e-38
9.90053e-41
8.20839e-43
6.65364e-45
5.18642e-47
3.84832e-49
2.70601e-51
1.80172e-53
1.13723e-55
6.8188e-58
3.89338e-60
2.12218e-62
1.10692e-64
5.53748e-67
2.66246e-69
1.23274e-71
5.5062e-74
2.37654e-76
9.92686e-79
4.01852e-81
1.57861e-83
6.02519e-86
2.23688e-88
8.08635e-91
2.84925e-93
9.7945e-96
3.28764e-98
1.07844e-100
3.45982e-103
1.08636e-105
3.24928e-108
1.06489e-20
-9.14086e-18
-3.92587e-20
-2.56681e-18
-2.49346e-19
-3.02151e-18
-1.40479e-18
-3.61021e-20
-3.70705e-22
-4.04996e-23
2.72074e-21
2.71795e-22
1.16995e-23
2.57426e-25
3.80024e-27
4.29766e-29
4.02392e-31
3.29956e-33
2.48834e-35
1.80628e-37
1.30857e-39
9.61734e-42
7.12818e-44
5.23189e-46
3.7342e-48
2.55998e-50
1.67496e-52
1.04357e-54
6.19219e-57
3.50394e-59
1.89443e-61
9.80648e-64
4.87036e-66
2.32536e-68
1.06935e-70
4.74468e-73
2.03453e-75
8.44389e-78
3.39667e-80
1.32606e-82
5.0303e-85
1.85626e-87
6.67048e-90
2.33655e-92
7.9854e-95
2.66501e-97
8.69239e-100
2.77301e-102
8.65871e-105
2.57595e-107
2.29727e-19
-9.77189e-17
6.68453e-16
2.32825e-18
-7.40396e-19
-5.90683e-17
-1.45829e-17
-2.6301e-19
-2.79091e-21
-3.13204e-21
4.02631e-20
4.71144e-21
2.35851e-22
5.27674e-24
7.7097e-26
8.54868e-28
7.77828e-30
6.10864e-32
4.31098e-34
2.84052e-36
1.81593e-38
1.16454e-40
7.62691e-43
5.08712e-45
3.39823e-47
2.23068e-49
1.41859e-51
8.66858e-54
5.07122e-56
2.83768e-58
1.51975e-60
7.80068e-63
3.84396e-65
1.82173e-67
8.31785e-70
3.66513e-72
1.56102e-74
6.43591e-77
2.57216e-79
9.97768e-82
3.76122e-84
1.37937e-86
4.92658e-89
1.71532e-91
5.82749e-94
1.93344e-96
6.26972e-99
1.98869e-101
6.17452e-104
1.8269e-106
3.11588e-18
-1.16146e-15
1.25499e-13
-1.20201e-15
-3.87335e-13
-2.10403e-14
-9.92574e-17
-5.81988e-19
-7.74661e-21
-7.2277e-20
4.62748e-19
6.71753e-20
4.26478e-21
9.59399e-23
1.37915e-24
1.50194e-26
1.34032e-28
1.02671e-30
6.98154e-33
4.34082e-35
2.54431e-37
1.45288e-39
8.33738e-42
4.90361e-44
2.95905e-46
1.80618e-48
1.09416e-50
6.47565e-53
3.70714e-55
2.04232e-57
1.08067e-59
5.49161e-62
2.68235e-64
1.26098e-66
5.71385e-69
2.49943e-71
1.05705e-73
4.32827e-76
1.71824e-78
6.62149e-81
2.47996e-83
9.03719e-86
3.20756e-88
1.10992e-90
3.74786e-93
1.23601e-95
3.9844e-98
1.25642e-100
3.87843e-103
1.14116e-105
1.99327e-17
-6.45443e-15
1.77078e-12
-5.43914e-10
-2.05169e-11
-1.15348e-13
-3.81142e-18
-5.32584e-20
7.68048e-21
-1.17672e-18
3.7281e-18
7.2687e-19
6.88966e-20
1.50459e-21
2.10005e-23
2.24415e-25
1.97618e-27
1.49416e-29
9.97704e-32
6.02137e-34
3.35953e-36
1.77674e-38
9.16562e-41
4.74842e-43
2.52394e-45
1.38372e-47
7.74049e-50
4.33831e-52
2.39544e-54
1.28793e-56
6.6984e-59
3.35963e-61
1.62357e-63
7.56225e-66
3.39809e-68
1.47486e-70
6.19112e-73
2.51691e-75
9.92217e-78
3.79768e-80
1.41289e-82
5.11508e-85
1.80383e-87
6.20242e-90
2.08133e-92
6.82194e-95
2.18581e-97
6.85146e-100
2.10249e-102
6.15113e-105
-5.71934e-10
2.21392e-08
-3.5845e-07
-6.25276e-08
-6.9172e-11
-7.19757e-15
5.77644e-19
3.13133e-20
1.84318e-20
-1.43178e-17
2.19312e-17
4.88326e-18
9.95283e-19
1.9314e-20
2.56829e-22
2.70228e-24
2.37252e-26
1.79344e-28
1.19402e-30
7.13404e-33
3.89262e-35
1.9757e-37
9.52897e-40
4.47961e-42
2.10985e-44
1.01865e-46
5.08989e-49
2.61465e-51
1.35808e-53
7.00847e-56
3.54592e-58
1.74455e-60
8.31072e-63
3.82691e-65
1.70296e-67
7.32725e-70
3.05114e-72
1.23098e-74
4.81736e-77
1.83079e-79
6.76433e-82
2.43237e-84
8.52106e-87
2.9109e-89
9.70564e-92
3.16119e-94
1.00659e-96
3.1359e-99
9.56501e-102
2.78216e-104
-5.34879e-09
3.00756e-07
-1.6401e-05
-3.21859e-07
-7.46539e-12
1.44736e-14
4.80254e-15
1.39448e-15
9.03177e-17
-1.24145e-16
4.51121e-15
1.31151e-16
1.29409e-17
1.76602e-19
2.2394e-21
2.39832e-23
2.1634e-25
1.67347e-27
1.13166e-29
6.80821e-32
3.70249e-34
1.84839e-36
8.61061e-39
3.81462e-41
1.64431e-43
7.0779e-46
3.11615e-48
1.42239e-50
6.71772e-53
3.23648e-55
1.56267e-57
7.45029e-60
3.473e-62
1.57412e-64
6.91868e-67
2.94631e-69
1.21578e-71
4.86443e-74
1.88884e-76
7.12492e-79
2.61355e-81
9.33226e-84
3.24691e-86
1.10176e-88
3.64938e-91
1.18094e-93
3.73647e-96
1.15675e-98
3.5065e-101
1.01388e-103
-1.14011e-08
8.56992e-07
-8.86489e-05
0.00938227
0.0270736
0.028764
0.0293319
0.0126255
0.000122239
-4.38772e-16
7.46793e-13
3.30781e-14
1.47771e-16
4.69437e-19
1.01562e-20
1.35356e-22
1.36764e-24
1.13058e-26
7.95917e-29
4.90021e-31
2.692e-33
1.34178e-35
6.16006e-38
2.6449e-40
1.08047e-42
4.28723e-45
1.69291e-47
6.81676e-50
2.84706e-52
1.23682e-54
5.52775e-57
2.49811e-59
1.12326e-61
4.96712e-64
2.14498e-66
9.01204e-69
3.67806e-71
1.45766e-73
5.61149e-76
2.09978e-78
7.64379e-81
2.70939e-83
9.35962e-86
3.15394e-88
1.0376e-90
3.33533e-93
1.04839e-95
3.22478e-98
9.7135e-101
2.79153e-103
1.42384e-05
-0.000468736
0.0113505
0.107057
0.220698
0.256062
0.259593
0.182817
0.0505754
0.00124097
1.31514e-10
2.46483e-12
1.80917e-15
1.35247e-18
3.29581e-20
5.22562e-22
5.91304e-24
5.24691e-26
3.85658e-28
2.43409e-30
1.35345e-32
6.7606e-35
3.08206e-37
1.30043e-39
5.14869e-42
1.94215e-44
7.10918e-47
2.582e-49
9.53102e-52
3.64673e-54
1.45721e-56
6.03874e-59
2.55369e-61
1.08324e-63
4.54756e-66
1.87306e-68
7.53191e-71
2.94986e-73
1.12424e-75
4.1693e-78
1.50524e-80
5.29391e-83
1.81514e-85
6.07236e-88
1.98367e-90
6.33264e-93
1.97713e-95
6.04132e-98
1.80791e-100
5.16331e-103
9.18183e-05
-0.00319063
0.0861344
0.331448
0.5835
0.693888
0.701106
0.595663
0.28373
0.039748
0.000105372
1.10766e-11
6.63112e-15
5.03586e-18
8.3865e-20
1.38104e-21
1.5977e-23
1.43323e-25
1.05703e-27
6.6593e-30
3.68157e-32
1.82223e-34
8.20271e-37
3.40219e-39
1.31547e-41
4.79684e-44
1.67107e-46
5.65033e-49
1.8915e-51
6.41459e-54
2.25123e-56
8.27411e-59
3.17659e-61
1.25609e-63
5.02553e-66
2.0037e-68
7.87786e-71
3.03506e-73
1.14199e-75
4.19028e-78
1.49876e-80
5.22641e-83
1.77775e-85
5.90218e-88
1.91397e-90
6.06674e-93
1.88098e-95
5.70855e-98
1.69696e-100
4.8156e-103
0.000201801
-0.00710887
0.195897
0.570645
0.864887
1.0021
1.00721
0.989718
0.639913
0.159184
0.00289737
-1.02311e-12
-1.7878e-14
-6.13995e-20
-5.8089e-22
-8.30643e-24
-9.61989e-26
-8.84687e-28
-6.61131e-30
-4.16522e-32
-2.28066e-34
-1.11047e-36
-4.89168e-39
-1.97541e-41
-7.3891e-44
-2.58093e-46
-8.47024e-49
-2.62267e-51
-7.67186e-54
-2.11263e-56
-5.4013e-59
-1.23144e-61
-2.18332e-64
-7.97821e-68
1.9489e-69
1.41934e-71
7.43215e-74
3.42273e-76
1.46649e-78
5.97815e-81
2.34327e-83
8.88121e-86
3.26546e-88
1.16727e-90
4.06281e-93
1.37863e-95
4.56547e-98
1.47686e-100
4.6706e-103
1.40533e-105
0.000211043
-0.00744532
0.204503
0.676193
0.978576
1.02615
1.02455
1.05464
0.819523
0.29391
0.00965746
5.11379e-14
4.77349e-16
-2.17137e-18
-1.82525e-20
-5.5021e-23
-9.82301e-26
3.55774e-29
1.33801e-30
8.08406e-33
3.65116e-35
1.42857e-37
5.08017e-40
1.68148e-42
5.27784e-45
1.6095e-47
4.96624e-50
1.65104e-52
6.29608e-55
2.78358e-57
1.35631e-59
6.84336e-62
3.43302e-64
1.67912e-66
7.94586e-69
3.62968e-71
1.60058e-73
6.81972e-76
2.81108e-78
1.12245e-80
4.34713e-83
1.63498e-85
5.97859e-88
2.12781e-90
7.37825e-93
2.49504e-95
8.23557e-98
2.65564e-100
8.37239e-103
2.51162e-105
0.000115818
-0.00405998
0.108533
0.565899
0.957
0.990181
0.991912
0.983768
0.787115
0.31904
0.0119552
-1.31521e-14
-2.05157e-16
-3.43711e-16
-8.01475e-19
-1.82852e-21
-4.45755e-24
-1.27064e-26
-4.21085e-29
-1.4705e-31
-4.9933e-34
-1.59331e-36
-4.73946e-39
-1.31655e-41
-3.42763e-44
-8.36671e-47
-1.89274e-49
-3.76747e-52
-5.11832e-55
7.06872e-58
1.13422e-59
7.51291e-62
4.13268e-64
2.0893e-66
1.00009e-68
4.58316e-71
2.02102e-73
8.59996e-76
3.53846e-78
1.41003e-80
5.44936e-83
2.04515e-85
7.46235e-88
2.65017e-90
9.16983e-93
3.09424e-95
1.01916e-97
3.27939e-100
1.03169e-102
3.08858e-105
1.07309e-05
-0.000338361
0.00574075
0.250481
0.688214
0.935564
0.975879
0.90039
0.660548
0.262464
0.00968001
-1.41119e-12
-1.01195e-11
-2.2808e-14
-1.58522e-19
-1.69191e-21
-1.51407e-23
-9.09581e-26
-4.3622e-28
-1.77976e-30
-6.39543e-33
-2.07049e-35
-6.13804e-38
-1.68688e-40
-4.33909e-43
-1.05248e-45
-2.41999e-48
-5.28469e-51
-1.08955e-53
-2.06073e-56
-3.1835e-59
-1.44444e-62
2.08873e-64
1.52847e-66
8.09849e-69
3.83751e-71
1.71134e-73
7.30701e-76
3.00806e-78
1.19801e-80
4.62561e-83
1.7341e-85
6.32011e-88
2.24189e-90
7.74802e-93
2.61139e-95
8.59103e-98
2.76109e-100
8.67605e-103
2.59435e-105
-1.5458e-05
0.000559897
-0.0163389
0.00113306
0.270035
0.62012
0.743536
0.632916
0.408134
0.157665
0.00574815
-9.94052e-08
-4.76357e-10
-2.09161e-15
-2.23593e-18
-2.01357e-20
-1.45721e-22
-8.25765e-25
-3.87692e-27
-1.56458e-29
-5.57245e-32
-1.78678e-34
-5.23815e-37
-1.4213e-39
-3.60486e-42
-8.61554e-45
-1.95318e-47
-4.22261e-50
-8.73963e-53
-1.73443e-55
-3.28809e-58
-5.84564e-61
-9.10376e-64
-8.76496e-67
1.91476e-69
1.86659e-71
9.79116e-74
4.40232e-76
1.84417e-78
7.38512e-81
2.85463e-83
1.06963e-85
3.89408e-88
1.37948e-90
4.76076e-93
1.60223e-95
5.26333e-98
1.68908e-100
5.29957e-103
1.58236e-105
3.86874e-06
-0.000145382
0.00467131
-0.0276677
-0.0122267
0.16286
0.297006
0.280444
0.147286
0.0205348
-0.000347556
-2.95926e-06
-1.42022e-11
-2.16163e-14
-1.76412e-17
-1.49924e-20
-2.32165e-22
-1.91431e-24
-1.11205e-26
-5.10258e-29
-1.96722e-31
-6.62243e-34
-1.99803e-36
-5.50462e-39
-1.40434e-41
-3.35374e-44
-7.56162e-47
-1.62078e-49
-3.32121e-52
-6.53604e-55
-1.23967e-57
-2.27078e-60
-4.01413e-63
-6.79448e-66
-1.07026e-68
-1.41239e-71
-7.31987e-75
5.38674e-77
3.51391e-79
1.59781e-81
6.48292e-84
2.48453e-86
9.16399e-89
3.27664e-91
1.13943e-93
3.86035e-96
1.27575e-98
4.11645e-101
1.29796e-103
3.89248e-106
-5.68366e-07
2.20024e-05
-0.000758536
0.00764156
-0.0228198
-0.0365519
-0.00912284
0.0130662
0.00253102
-0.0158764
-0.00102198
4.8243e-08
2.30598e-10
7.99582e-16
4.6331e-20
6.1881e-22
4.75921e-24
2.60682e-26
1.1346e-28
4.16665e-31
1.34045e-33
3.87544e-36
1.02564e-38
2.5193e-41
5.80589e-44
1.2661e-46
2.62902e-49
5.20879e-52
9.74889e-55
1.63775e-57
1.91227e-60
-2.30234e-63
-3.23429e-65
-1.87558e-67
-8.9987e-70
-3.95095e-72
-1.63701e-74
-6.48147e-77
-2.46799e-79
-9.07362e-82
-3.23003e-84
-1.11579e-86
-3.74709e-89
-1.22524e-91
-3.9062e-94
-1.21567e-96
-3.69721e-99
-1.0999e-101
-3.20361e-104
-8.91002e-107
6.00177e-08