/*--------------------------------*- C++ -*----------------------------------*\
| =========                 |                                                 |
| \\      /  F ield         | OpenFOAM: The Open Source CFD Toolbox           |
|  \\    /   O peration     | Version:  v2006                                 |
|   \\  /    A nd           | Website:  www.openfoam.com                      |
|    \\/     M anipulation  |                                                 |
\*---------------------------------------------------------------------------*/
FoamFile
{
    version     2.0;
    format      ascii;
    class       volScalarField;
    location    "0";
    object      f;
}
// * * * * * * * * * * * * * * * * * * * * * * * * * * * * * * * * * * * * * //

dimensions      [0 0 0 0 0 0 0];


internalField   nonuniform List<scalar> 
2500
(
1.32194e-25
2.96283e-25
7.07121e-25
4.72019e-25
-6.82443e-25
-1.56191e-24
-1.13412e-24
-7.11464e-27
5.37462e-25
2.23732e-25
-2.9758e-25
-5.21446e-25
-4.47332e-25
-2.73573e-25
-1.3192e-25
-5.19595e-26
-1.66303e-26
-4.03326e-27
-5.06955e-28
1.51629e-28
1.44385e-28
6.84298e-29
2.51468e-29
7.88756e-30
2.19588e-30
5.54073e-31
1.2839e-31
2.7573e-32
5.52595e-33
1.03906e-33
1.84112e-34
3.08539e-35
4.90513e-36
7.41706e-37
1.0691e-37
1.47175e-38
1.93806e-39
2.44451e-40
2.95636e-41
3.43076e-42
3.82189e-43
4.08733e-44
4.19458e-45
4.12626e-46
3.88301e-47
3.48361e-48
2.96213e-49
2.36296e-50
1.73461e-51
1.12632e-52
-2.48447e-24
-1.51305e-24
8.34593e-25
1.05928e-24
-2.35577e-24
-5.47741e-24
-4.3127e-24
-4.04501e-25
1.80348e-24
9.80004e-25
-7.72486e-25
-1.61199e-24
-1.43461e-24
-8.89555e-25
-4.31291e-25
-1.69982e-25
-5.41215e-26
-1.28625e-26
-1.42899e-27
6.14125e-28
5.2136e-28
2.40924e-28
8.73536e-29
2.7117e-29
7.47729e-30
1.8686e-30
4.28659e-31
9.10833e-32
1.80479e-32
3.35253e-33
5.86312e-34
9.68757e-35
1.51666e-35
2.25524e-36
3.19135e-37
4.30433e-38
5.53962e-39
6.80776e-40
7.99038e-41
8.95333e-42
9.56542e-43
9.71927e-44
9.35026e-45
8.44936e-46
7.06718e-47
5.30814e-48
3.31606e-49
1.25402e-50
-7.17437e-52
-2.47342e-52
-1.91541e-23
-1.41265e-23
-2.0081e-24
2.37113e-24
-8.91872e-24
-2.13882e-23
-1.80719e-23
-2.94056e-24
6.73564e-24
4.41649e-24
-2.24714e-24
-5.72672e-24
-5.27126e-24
-3.30673e-24
-1.60972e-24
-6.34239e-25
-2.00695e-25
-4.66141e-26
-4.39782e-27
2.76757e-27
2.14174e-27
9.66965e-28
3.46123e-28
1.06367e-28
2.90545e-29
7.1917e-30
1.6333e-30
3.4335e-31
6.72525e-32
1.23371e-32
2.12829e-33
3.4641e-34
5.33374e-35
7.78467e-36
1.07859e-36
1.4199e-37
1.7764e-38
2.11065e-39
2.3773e-40
2.52903e-41
2.52405e-42
2.3338e-43
1.94908e-44
1.38332e-45
6.72022e-47
-1.31408e-48
-9.6288e-49
-1.75627e-49
-2.45201e-50
-3.01673e-51
-1.07428e-22
-8.40297e-23
-2.72618e-23
2.87961e-24
-3.18147e-23
-8.03136e-23
-7.30346e-23
-1.65828e-23
2.41199e-23
1.87776e-23
-5.88852e-24
-1.98678e-23
-1.89566e-23
-1.20265e-23
-5.87407e-24
-2.31167e-24
-7.25612e-25
-1.63601e-25
-1.18174e-26
1.22195e-26
8.68125e-27
3.82591e-27
1.35057e-27
4.10448e-28
1.1094e-28
2.71663e-29
6.09975e-30
1.2666e-30
2.44782e-31
4.42447e-32
7.50821e-33
1.19969e-33
1.80871e-34
2.57638e-35
3.46879e-36
4.41153e-37
5.28802e-38
5.94717e-39
6.22083e-40
5.94941e-41
5.01116e-42
3.34919e-43
9.89924e-45
-1.95155e-45
-5.28135e-46
-8.75029e-47
-1.20867e-47
-1.50325e-48
-1.7375e-49
-1.90468e-50
-5.2112e-22
-4.20267e-22
-1.72677e-22
-9.99207e-24
-1.05505e-22
-2.88806e-22
-2.84453e-22
-8.22069e-23
8.255e-23
7.61177e-23
-1.27213e-23
-6.72702e-23
-6.67034e-23
-4.27764e-23
-2.09451e-23
-8.22406e-24
-2.55472e-24
-5.54017e-25
-2.34763e-26
5.28178e-26
3.46995e-26
1.49182e-26
5.18844e-27
1.55768e-27
4.16127e-28
1.00676e-28
2.23148e-29
4.56862e-30
8.69212e-31
1.54372e-31
2.56769e-32
4.00862e-33
5.88017e-34
8.10261e-35
1.04672e-35
1.2617e-36
1.40562e-37
1.41958e-38
1.24341e-39
8.262e-41
1.37332e-42
-8.24483e-43
-2.02629e-43
-3.40165e-44
-4.85723e-45
-6.2843e-46
-7.57282e-47
-8.62567e-48
-9.3704e-49
-9.80462e-50
-2.30446e-21
-1.89633e-21
-8.7864e-22
-1.03131e-22
-3.175e-22
-9.89176e-22
-1.06694e-21
-3.74407e-22
2.68409e-22
2.96079e-22
-1.50033e-23
-2.22126e-22
-2.29595e-22
-1.48734e-22
-7.29316e-23
-2.85357e-23
-8.74678e-24
-1.801e-24
-1.57322e-27
2.23269e-25
1.36635e-25
5.72893e-26
1.96128e-26
5.81055e-27
1.53236e-27
3.65765e-28
7.98954e-29
1.60942e-29
3.00638e-30
5.22771e-31
8.4819e-32
1.2851e-32
1.81619e-33
2.38505e-34
2.88563e-35
3.1596e-36
3.00555e-37
2.20181e-38
5.41384e-40
-2.12658e-40
-5.85692e-41
-1.05797e-41
-1.60903e-42
-2.20622e-43
-2.8082e-44
-3.37004e-45
-3.84902e-46
-4.21001e-47
-4.42957e-48
-4.51531e-49
-9.49808e-21
-7.93735e-21
-3.97211e-21
-5.72132e-22
-8.2264e-22
-3.20268e-21
-3.85141e-21
-1.60012e-21
8.199e-22
1.10976e-21
5.2067e-23
-7.14575e-22
-7.72893e-22
-5.05346e-22
-2.4784e-22
-9.64862e-23
-2.90755e-23
-5.57851e-24
3.29721e-25
9.21843e-25
5.293e-25
2.16441e-25
7.28798e-26
2.12846e-26
5.53423e-27
1.30132e-27
2.79598e-28
5.52806e-29
1.01052e-29
1.71251e-30
2.69219e-31
3.91827e-32
5.24781e-33
6.38128e-34
6.83507e-35
5.94828e-36
2.93653e-37
-3.00428e-38
-1.25552e-38
-2.61171e-39
-4.36721e-40
-6.46988e-41
-8.8167e-42
-1.12621e-42
-1.36343e-43
-1.57563e-44
-1.74689e-45
-1.86502e-46
-1.92291e-47
-1.92635e-48
-3.68721e-20
-3.12175e-20
-1.65423e-20
-2.59063e-21
-1.55991e-21
-9.69015e-21
-1.33709e-20
-6.49526e-21
2.30123e-21
4.01977e-21
5.35175e-22
-2.23659e-21
-2.5443e-21
-1.67719e-21
-8.21436e-22
-3.1763e-22
-9.36616e-23
-1.62709e-23
2.45334e-24
3.71252e-24
2.01369e-24
8.03283e-25
2.65848e-25
7.6457e-26
1.95743e-26
4.52673e-27
9.5462e-28
1.84708e-28
3.29035e-29
5.40032e-30
8.14433e-31
1.11953e-31
1.37664e-32
1.44706e-33
1.12622e-34
1.52101e-36
-1.76854e-36
-4.91642e-37
-9.50411e-38
-1.56188e-38
-2.31761e-39
-3.18983e-40
-4.13228e-41
-5.08449e-42
-5.97871e-43
-6.74837e-44
-7.33649e-45
-7.70257e-46
-7.82688e-47
-7.74043e-48
-1.35467e-19
-1.16058e-19
-6.45046e-20
-1.04954e-20
-1.88722e-22
-2.68679e-20
-4.46129e-20
-2.52386e-20
5.63872e-21
1.41003e-20
3.01398e-21
-6.79843e-21
-8.19091e-21
-5.43581e-21
-2.65358e-21
-1.01703e-21
-2.91721e-22
-4.37684e-23
1.32856e-23
1.45617e-23
7.50841e-24
2.92306e-24
9.50195e-25
2.68816e-25
6.76692e-26
1.53624e-26
3.17182e-27
5.98414e-28
1.03306e-28
1.62723e-29
2.31672e-30
2.91367e-31
3.0506e-32
2.13907e-33
-6.35845e-35
-6.26566e-35
-1.58034e-35
-3.01898e-36
-5.0046e-37
-7.54732e-38
-1.05908e-38
-1.40075e-39
-1.76053e-40
-2.11474e-41
-2.4379e-42
-2.70601e-43
-2.89951e-44
-3.00559e-45
-3.01948e-46
-2.95543e-47
-4.71693e-19
-4.08699e-19
-2.37359e-19
-3.95525e-20
1.81046e-20
-6.56551e-20
-1.4292e-19
-9.43891e-20
1.02536e-20
4.79766e-20
1.41006e-20
-2.00184e-20
-2.57972e-20
-1.72013e-20
-8.34916e-21
-3.16396e-21
-8.76042e-22
-1.03982e-22
6.22668e-23
5.55392e-23
2.73755e-23
1.04052e-23
3.32001e-24
9.22864e-25
2.28064e-25
5.0718e-26
1.02205e-26
1.87131e-27
3.10617e-28
4.62939e-29
6.0433e-30
6.46249e-31
4.33222e-32
-2.68294e-33
-1.76659e-33
-4.42071e-34
-8.59375e-35
-1.45872e-35
-2.25669e-36
-3.24963e-37
-4.40932e-38
-5.68237e-39
-6.99401e-40
-8.25586e-41
-9.37647e-42
-1.02728e-42
-1.08806e-43
-1.11615e-44
-1.11069e-45
-1.07762e-46
-1.55506e-18
-1.36257e-18
-8.27154e-19
-1.4195e-19
1.22861e-19
-1.27604e-19
-4.38703e-19
-3.41096e-19
1.0925e-21
1.5858e-19
6.00626e-20
-5.69168e-20
-7.95631e-20
-5.31471e-20
-2.55662e-20
-9.5519e-21
-2.52736e-21
-1.93271e-22
2.66304e-22
2.05639e-22
9.73497e-23
3.6137e-23
1.13086e-23
3.08451e-24
7.46936e-25
1.62285e-25
3.17913e-26
5.61166e-27
8.84951e-28
1.2173e-28
1.36708e-29
9.60838e-31
-6.13367e-32
-4.23213e-32
-1.10078e-32
-2.21861e-33
-3.89675e-34
-6.22711e-35
-9.24818e-36
-1.29237e-36
-1.71305e-37
-2.16607e-38
-2.62381e-39
-3.05483e-40
-3.42768e-41
-3.71484e-42
-3.89611e-43
-3.96083e-44
-3.90869e-45
-3.76287e-46
-4.83998e-18
-4.29106e-18
-2.73346e-18
-4.93367e-19
5.94484e-19
-1.15012e-19
-1.28391e-18
-1.19451e-18
-1.15411e-19
5.09834e-19
2.41617e-19
-1.55612e-19
-2.40765e-19
-1.60376e-19
-7.61214e-20
-2.79449e-20
-6.97083e-21
-1.26512e-22
1.06327e-21
7.37869e-22
3.36737e-22
1.2208e-22
3.74302e-23
1.00014e-23
2.36768e-24
5.00849e-25
9.4851e-26
1.59817e-26
2.34635e-27
2.83026e-28
2.24225e-29
-8.74224e-31
-8.78918e-31
-2.46321e-31
-5.22394e-32
-9.57521e-33
-1.58969e-33
-2.44534e-34
-3.53113e-35
-4.82739e-36
-6.28515e-37
-7.828e-38
-9.35884e-39
-1.07708e-39
-1.19602e-40
-1.28398e-41
-1.33491e-42
-1.34611e-43
-1.31832e-44
-1.26006e-45
-1.41553e-17
-1.2729e-17
-8.57196e-18
-1.67695e-18
2.44802e-18
5.63468e-19
-3.53992e-18
-4.06304e-18
-7.80004e-19
1.59361e-18
9.34578e-19
-4.06556e-19
-7.17247e-19
-4.72925e-19
-2.20116e-19
-7.9093e-20
-1.8254e-20
1.19267e-21
4.00958e-21
2.56128e-21
1.12976e-21
3.99844e-22
1.19938e-22
3.13279e-23
7.2278e-24
1.48144e-24
2.68977e-25
4.25578e-26
5.59124e-27
5.14063e-28
-2.26023e-30
-1.5843e-29
-4.96997e-30
-1.12454e-30
-2.16764e-31
-3.75808e-32
-6.01055e-33
-8.996e-34
-1.27159e-34
-1.70832e-35
-2.19166e-36
-2.69496e-37
-3.18565e-38
-3.62896e-39
-3.99222e-40
-4.24897e-41
-4.38209e-42
-4.38555e-43
-4.26445e-44
-4.04833e-45
-3.86476e-17
-3.55371e-17
-2.55658e-17
-5.56312e-18
8.98913e-18
4.45574e-18
-8.95281e-18
-1.34538e-17
-3.78596e-18
4.80863e-18
3.50791e-18
-1.00043e-18
-2.11403e-18
-1.36382e-18
-6.17052e-19
-2.16102e-19
-4.48932e-20
8.59096e-21
1.43744e-20
8.58528e-21
3.6653e-21
1.26499e-21
3.7047e-22
9.43137e-23
2.11135e-23
4.16298e-24
7.1493e-25
1.03014e-25
1.09891e-26
3.17982e-28
-2.44607e-28
-9.04179e-29
-2.21462e-29
-4.52261e-30
-8.22759e-31
-1.37304e-31
-2.136e-32
-3.12902e-33
-4.34627e-34
-5.75358e-35
-7.28766e-36
-8.86018e-37
-1.03668e-37
-1.16992e-38
-1.27591e-39
-1.347e-40
-1.37864e-41
-1.36979e-42
-1.32283e-43
-1.24754e-44
-9.75486e-17
-9.40586e-17
-7.30828e-17
-1.76421e-17
2.93299e-17
2.09715e-17
-1.96231e-17
-4.35218e-17
-1.57189e-17
1.36581e-17
1.28502e-17
-2.21121e-18
-6.20921e-18
-3.84828e-18
-1.67186e-18
-5.68306e-19
-1.01751e-19
4.05096e-20
4.91885e-20
2.77381e-20
1.14617e-20
3.84977e-21
1.0975e-21
2.71169e-22
5.85177e-23
1.09714e-23
1.73897e-24
2.12873e-25
1.23141e-26
-3.12236e-27
-1.48026e-27
-3.98941e-28
-8.69489e-29
-1.66736e-29
-2.91297e-30
-4.72255e-31
-7.18531e-32
-1.03384e-32
-1.41453e-33
-1.84827e-34
-2.31418e-35
-2.78436e-36
-3.22686e-37
-3.60956e-38
-3.90414e-39
-4.08964e-40
-4.15484e-41
-4.09914e-42
-3.93196e-43
-3.68411e-44
-2.2345e-16
-2.43364e-16
-2.04989e-16
-5.07236e-17
7.94017e-17
8.21938e-17
-3.29775e-17
-1.38796e-16
-5.92356e-17
3.41669e-17
4.6446e-17
-3.61186e-18
-1.84001e-17
-1.06242e-17
-4.3542e-18
-1.43249e-18
-2.04553e-19
1.61295e-19
1.61095e-19
8.62138e-20
3.44231e-20
1.12161e-20
3.09896e-21
7.38442e-22
1.52012e-22
2.65474e-23
3.68476e-24
3.0443e-25
-2.99236e-26
-2.17423e-26
-6.57195e-27
-1.53977e-27
-3.12559e-28
-5.73381e-29
-9.71056e-30
-1.53762e-30
-2.29572e-31
-3.25153e-32
-4.38891e-33
-5.66651e-34
-7.01892e-35
-8.36221e-36
-9.60321e-37
-1.06509e-37
-1.14277e-38
-1.18795e-39
-1.19811e-40
-1.1738e-41
-1.11836e-42
-1.04106e-43
-4.42896e-16
-6.7859e-16
-6.82014e-16
-1.15884e-16
1.89928e-16
3.0655e-16
-3.31807e-17
-4.9302e-16
-2.14171e-16
6.40912e-17
1.72537e-16
1.08288e-18
-5.65839e-17
-2.86607e-17
-1.07892e-17
-3.44065e-18
-3.30371e-19
5.80911e-19
5.0587e-19
2.57208e-19
9.88734e-20
3.10984e-20
8.27336e-21
1.88235e-21
3.62925e-22
5.65834e-23
5.9064e-24
-1.34568e-25
-2.85706e-25
-9.90408e-26
-2.51136e-26
-5.41598e-27
-1.04595e-27
-1.85426e-28
-3.06113e-29
-4.75009e-30
-6.97439e-31
-9.73778e-32
-1.29799e-32
-1.65706e-33
-2.03157e-34
-2.39751e-35
-2.72898e-36
-3.00145e-37
-3.19485e-38
-3.29599e-39
-3.29997e-40
-3.21031e-41
-3.03793e-42
-2.80926e-43
-6.69216e-16
-2.33275e-15
-5.31388e-15
8.91275e-15
8.88441e-15
1.15107e-15
-7.88251e-15
-4.04991e-15
-7.98507e-16
1.51336e-16
7.97876e-16
4.32404e-17
-1.93727e-16
-7.4961e-17
-2.49026e-17
-7.81775e-18
-2.68421e-19
1.9485e-18
1.52478e-18
7.34402e-19
2.70152e-19
8.14242e-20
2.06472e-20
4.40899e-21
7.675e-22
9.53729e-23
2.17591e-24
-3.35541e-24
-1.36773e-24
-3.77403e-25
-8.67047e-26
-1.76618e-26
-3.28287e-27
-5.6585e-28
-9.13804e-29
-1.39264e-29
-2.0137e-30
-2.77428e-31
-3.65418e-32
-4.61486e-33
-5.60174e-34
-6.54955e-35
-7.39002e-36
-8.06047e-37
-8.51177e-38
-8.71422e-39
-8.66042e-40
-8.3649e-41
-7.86074e-42
-7.21976e-43
-6.19889e-16
-5.8791e-15
-2.78164e-14
1.16558e-13
7.68602e-14
-1.74181e-13
-1.23617e-13
-2.29938e-14
-2.18652e-15
2.53314e-14
4.80489e-15
1.4876e-16
-9.04851e-16
-1.78999e-16
-5.08994e-17
-1.67332e-17
7.82203e-19
6.18254e-18
4.41255e-18
1.99828e-18
6.96943e-19
1.99094e-19
4.7316e-20
9.17019e-21
1.31321e-21
7.11453e-23
-3.53439e-23
-1.73693e-23
-5.23183e-24
-1.28216e-24
-2.75771e-25
-5.37968e-26
-9.69098e-27
-1.63036e-27
-2.58159e-28
-3.86972e-29
-5.51577e-30
-7.50309e-31
-9.77001e-32
-1.22093e-32
-1.46757e-33
-1.70015e-34
-1.90162e-35
-2.05686e-36
-2.1546e-37
-2.18872e-38
-2.1588e-39
-2.0698e-40
-1.93107e-41
-1.7611e-42
9.36937e-13
1.96843e-14
-5.14547e-14
2.68981e-13
2.02174e-13
-2.31953e-12
-3.82632e-13
3.08501e-15
8.59499e-13
1.91073e-13
1.12146e-14
-4.23498e-14
-4.91505e-15
-2.1795e-16
-8.18827e-17
-3.44606e-17
4.85548e-18
1.87714e-17
1.22513e-17
5.14549e-18
1.67848e-18
4.4671e-19
9.63933e-20
1.56216e-20
1.21567e-21
-3.37489e-22
-2.03874e-22
-6.70215e-23
-1.7515e-23
-3.97758e-24
-8.14529e-25
-1.53409e-25
-2.69003e-26
-4.42846e-27
-6.88641e-28
-1.01632e-28
-1.42896e-29
-1.92011e-30
-2.47241e-31
-3.05784e-32
-3.64005e-33
-4.1783e-34
-4.63249e-35
-4.96839e-36
-5.1619e-37
-5.20185e-38
-5.09072e-39
-4.84349e-40
-4.48485e-41
-4.05969e-42
2.23724e-11
1.48622e-11
4.18157e-11
6.93224e-13
-4.86821e-11
-7.68117e-12
2.15701e-11
2.58026e-11
6.19707e-12
4.22086e-13
-1.69598e-12
-2.87667e-13
-4.47406e-15
8.53289e-17
-1.19251e-16
-7.56856e-17
1.47221e-17
5.54239e-17
3.25843e-17
1.23865e-17
3.70317e-18
8.91176e-19
1.6211e-19
1.57786e-20
-2.96415e-21
-2.22194e-21
-7.94686e-22
-2.2106e-22
-5.29468e-23
-1.1374e-23
-2.23887e-24
-4.09147e-25
-7.00352e-26
-1.13015e-26
-1.72778e-27
-2.51237e-28
-3.4861e-29
-4.62868e-30
-5.89492e-31
-7.21641e-32
-8.50765e-33
-9.67582e-34
-1.06325e-34
-1.13053e-35
-1.16468e-36
-1.16398e-37
-1.12983e-38
-1.06628e-39
-9.79423e-41
-8.79506e-42
7.57672e-11
2.53651e-10
2.42646e-10
-3.27933e-10
-3.1346e-10
5.96522e-10
5.47735e-10
1.43364e-10
1.3362e-11
-5.50139e-11
-1.1982e-11
-4.44057e-13
1.05624e-14
8.63e-16
-3.16597e-16
-1.92875e-16
2.79318e-17
1.65095e-16
8.27379e-17
2.72154e-17
7.22817e-18
1.47566e-18
1.71465e-19
-2.38167e-20
-2.24591e-20
-8.72052e-21
-2.57716e-21
-6.49841e-22
-1.46208e-22
-3.00399e-23
-5.7158e-24
-1.01668e-24
-1.70197e-25
-2.69529e-26
-4.05418e-27
-5.81151e-28
-7.9612e-29
-1.04477e-29
-1.31627e-30
-1.59505e-31
-1.86235e-32
-2.09842e-33
-2.2851e-34
-2.40819e-35
-2.45924e-36
-2.43643e-37
-2.34445e-38
-2.1934e-39
-1.99721e-40
-1.77776e-41
9.96932e-11
7.92516e-10
4.68818e-10
-2.78226e-09
-7.84211e-10
5.93405e-09
1.8036e-09
2.86976e-10
-1.60565e-09
-4.11986e-10
-2.25172e-11
3.0788e-13
5.12351e-14
-7.63363e-16
-1.21776e-15
-4.9423e-16
2.923e-17
5.58715e-16
1.97259e-16
5.15537e-17
1.15702e-17
1.6191e-18
-1.60394e-19
-2.07032e-19
-8.8099e-20
-2.77108e-20
-7.34733e-21
-1.72735e-21
-3.69522e-22
-7.3045e-23
-1.34775e-23
-2.33765e-24
-3.83171e-25
-5.95985e-26
-8.82571e-27
-1.24778e-27
-1.68822e-28
-2.19042e-29
-2.73051e-30
-3.27575e-31
-3.78795e-32
-4.22815e-33
-4.56181e-34
-4.76339e-35
-4.81958e-36
-4.73054e-37
-4.5091e-38
-4.17823e-39
-3.7674e-40
-3.32e-41
-3.34262e-08
-1.2049e-08
-8.83538e-08
-1.23258e-08
1.36917e-07
1.8352e-08
-1.65736e-08
-5.78806e-08
-1.59781e-08
-8.98301e-10
7.13061e-12
1.33915e-12
4.08687e-14
-5.64786e-15
-4.14234e-15
-9.92777e-16
5.08382e-15
2.79276e-15
3.87091e-16
7.02836e-17
1.20966e-17
-6.50865e-19
-1.654e-18
-8.04913e-19
-2.73437e-19
-7.6458e-20
-1.87415e-20
-4.1577e-21
-8.50257e-22
-1.6214e-22
-2.90544e-23
-4.91915e-24
-7.90139e-25
-1.20795e-25
-1.76226e-26
-2.45883e-27
-3.28749e-28
-4.21916e-29
-5.20588e-30
-6.18445e-31
-7.0833e-32
-7.83173e-33
-8.36945e-34
-8.65484e-35
-8.67017e-36
-8.42297e-37
-7.94357e-38
-7.27953e-39
-6.48836e-40
-5.64911e-41
-1.34113e-06
-1.33755e-06
-1.04477e-06
8.1252e-07
1.0361e-06
-2.9286e-07
-1.37921e-06
-5.02728e-07
-4.61387e-08
1.39226e-10
2.90899e-11
2.04874e-12
4.02004e-15
-2.03977e-14
-1.13472e-14
2.17185e-13
1.04064e-13
1.05424e-14
1.20168e-16
2.06631e-17
-1.60358e-18
-9.92451e-18
-6.3241e-18
-2.44151e-18
-7.31276e-19
-1.86981e-19
-4.27681e-20
-8.97948e-21
-1.75692e-21
-3.23313e-22
-5.62883e-23
-9.30837e-24
-1.46641e-24
-2.20571e-25
-3.17363e-26
-4.37494e-27
-5.78642e-28
-7.3525e-29
-8.98626e-30
-1.05766e-30
-1.20014e-31
-1.31432e-32
-1.39065e-33
-1.42307e-34
-1.4098e-35
-1.35339e-36
-1.26017e-37
-1.13908e-38
-1.00039e-39
-8.57195e-41
-5.58156e-06
-6.31025e-06
-3.41426e-06
4.67538e-06
2.36675e-06
-1.08015e-05
-6.56085e-06
-1.36644e-06
-4.03755e-08
2.44068e-10
7.29936e-11
5.37401e-11
5.13185e-12
-1.04402e-13
4.7559e-12
2.33164e-12
3.96173e-13
4.72269e-15
-5.50035e-16
-1.013e-16
-2.99236e-17
-3.46942e-17
-1.89335e-17
-6.42584e-18
-1.72678e-18
-4.03781e-19
-8.5841e-20
-1.69862e-20
-3.17011e-21
-5.62084e-22
-9.50623e-23
-1.537e-23
-2.37903e-24
-3.52874e-25
-5.01985e-26
-6.85393e-27
-8.98846e-28
-1.13306e-28
-1.37398e-29
-1.60404e-30
-1.8043e-31
-1.95717e-32
-2.04894e-33
-2.0719e-34
-2.02529e-35
-1.91518e-36
-1.75323e-37
-1.5547e-38
-1.33622e-39
-1.11728e-40
-1.0968e-05
-1.41394e-05
-5.08791e-06
9.19355e-06
-3.12542e-05
-5.27348e-05
-1.22627e-05
-1.58529e-06
4.42453e-07
1.32815e-07
3.05006e-09
5.98538e-09
7.42478e-10
1.22418e-10
2.97848e-11
6.09011e-12
4.06502e-13
-9.40132e-15
-2.42077e-15
-1.56492e-16
-3.09396e-17
-9.32264e-17
-5.22593e-17
-1.52524e-17
-3.56527e-18
-7.44223e-19
-1.44428e-19
-2.65953e-20
-4.69819e-21
-8.002e-22
-1.31578e-22
-2.08764e-23
-3.19238e-24
-4.69955e-25
-6.65412e-26
-9.05649e-27
-1.1845e-27
-1.48865e-28
-1.79805e-29
-2.08783e-30
-2.33159e-31
-2.50536e-32
-2.59152e-33
-2.5816e-34
-2.47752e-35
-2.29099e-36
-2.04125e-37
-1.75187e-38
-1.44716e-39
-1.15275e-40
-1.13074e-05
-1.52002e-05
0.000158288
-7.89002e-05
-0.000682958
-0.000111756
0.00151244
0.00509591
0.00767639
0.00654105
0.0030905
0.000610537
3.6597e-07
2.0105e-09
6.37256e-11
6.69994e-12
-1.52859e-13
-4.96308e-14
-5.35407e-15
5.73905e-16
1.22698e-16
-2.36261e-16
-1.49268e-16
-3.2356e-17
-5.98626e-18
-1.04479e-18
-1.76291e-19
-2.91838e-20
-4.78599e-21
-7.79927e-22
-1.25853e-22
-1.99615e-23
-3.08695e-24
-4.62277e-25
-6.67014e-26
-9.24244e-27
-1.22737e-27
-1.56035e-28
-1.89798e-29
-2.20855e-30
-2.4584e-31
-2.6176e-32
-2.66535e-33
-2.59384e-34
-2.4096e-35
-2.13214e-36
-1.7903e-37
-1.41728e-38
-1.04551e-39
-7.04309e-41
0.00193847
0.00198563
0.00166482
-0.00180216
-0.00303705
0.0057971
0.0260148
0.051545
0.069666
0.0677847
0.0472917
0.0220563
0.00561363
0.000232208
8.1343e-11
1.81934e-12
-4.18798e-13
-1.16661e-13
-7.67547e-15
5.475e-15
6.53129e-16
-1.93489e-15
-5.10211e-16
-5.19867e-17
-5.66872e-18
-5.89475e-19
-5.46914e-20
-4.29489e-21
-3.20716e-22
-4.92719e-23
-1.49704e-23
-4.21381e-24
-9.81585e-25
-1.96077e-25
-3.47257e-26
-5.57359e-27
-8.22287e-28
-1.12548e-28
-1.43786e-29
-1.72115e-30
-1.93416e-31
-2.04073e-32
-2.01724e-33
-1.85777e-34
-1.57554e-35
-1.2004e-36
-7.73123e-38
-3.38049e-39
6.40846e-41
4.03866e-41
0.01104
0.0105736
0.00590266
-0.00677088
-0.0076272
0.0294147
0.096918
0.168925
0.22094
0.222923
0.172658
0.0952828
0.0334514
0.00461674
7.25322e-11
-1.92051e-12
-8.0688e-13
-1.1803e-13
1.49861e-13
2.02413e-14
-4.19727e-14
-2.62767e-14
-1.57056e-15
3.11175e-17
1.00107e-17
2.18269e-18
4.09107e-19
7.02251e-20
1.12004e-20
1.65906e-21
2.27141e-22
2.85125e-23
3.23438e-24
3.21833e-25
2.60599e-26
1.26743e-27
-7.95781e-29
-3.4058e-29
-6.20431e-30
-8.69949e-31
-1.03583e-31
-1.07222e-32
-9.51463e-34
-6.71061e-35
-2.54942e-36
2.51144e-37
7.88649e-38
1.29719e-38
1.72479e-39
2.04323e-40
0.029297
0.0274098
0.0130337
-0.0157055
-0.0127754
0.0752345
0.221509
0.362426
0.463909
0.479649
0.393338
0.235706
0.0935362
0.0177676
6.89549e-05
1.01426e-11
1.40687e-12
3.68181e-12
8.60867e-13
-1.1753e-12
-1.26488e-12
-1.10423e-13
2.4699e-15
4.48278e-16
5.15886e-17
7.24691e-18
1.07527e-18
1.61395e-19
2.38219e-20
3.38068e-21
4.53939e-22
5.69631e-23
6.5981e-24
6.93471e-25
6.41106e-26
4.84448e-27
2.26138e-28
-1.04168e-29
-4.50351e-30
-7.3827e-31
-8.90763e-32
-8.45411e-33
-5.70106e-34
-7.19641e-36
6.02845e-36
1.37808e-36
2.1625e-37
2.86691e-38
3.4191e-39
3.78812e-40
0.0525543
0.0488177
0.0211283
-0.0271192
-0.0167694
0.135498
0.376333
0.591501
0.743562
0.786226
0.673276
0.427913
0.18336
0.0408059
0.000794924
5.28932e-10
1.33336e-10
3.33906e-11
-4.667e-12
-4.68081e-11
-5.53393e-12
5.85904e-14
2.20371e-14
1.08071e-15
3.2301e-17
4.55875e-18
6.61005e-19
1.00711e-19
1.52788e-20
2.18462e-21
2.83673e-22
3.22275e-23
2.97669e-24
1.69577e-25
-9.41761e-27
-5.03343e-27
-1.03276e-27
-1.61682e-28
-2.15467e-29
-2.52699e-30
-2.62106e-31
-2.35754e-32
-1.71146e-33
-7.21219e-35
5.16796e-36
1.86646e-36
3.17765e-37
4.31293e-38
5.16895e-39
5.71058e-40
0.0690427
0.0642358
0.0267451
-0.0364294
-0.0197397
0.184943
0.503258
0.773835
0.960824
1.0359
0.920736
0.613677
0.278493
0.0686388
0.00241556
4.16958e-09
6.2146e-10
1.03568e-10
-1.61836e-09
-2.22671e-10
1.86719e-13
6.74747e-13
7.42152e-14
-5.51603e-16
-1.08454e-16
-1.56637e-17
-2.08398e-18
-2.60516e-19
-3.16186e-20
-3.87026e-21
-4.95239e-22
-6.73994e-23
-9.62699e-24
-1.39567e-24
-1.98566e-25
-2.70665e-26
-3.48223e-27
-4.18589e-28
-4.65691e-29
-4.73051e-30
-4.27576e-31
-3.23083e-32
-1.62522e-33
4.18115e-35
2.70183e-35
4.98934e-36
7.04685e-37
8.68196e-38
9.7706e-39
1.03068e-39
0.0680443
0.0639366
0.0270671
-0.0391205
-0.0233164
0.194114
0.539383
0.831825
1.03224
1.13238
1.03668
0.715911
0.339119
0.0897949
0.00434201
8.71655e-09
-5.92872e-09
-5.10367e-08
-8.93094e-09
-1.41991e-10
2.01995e-11
3.17836e-12
-1.1667e-14
-3.37832e-15
-3.08396e-16
-3.56023e-17
-4.6272e-18
-5.82802e-19
-7.15057e-20
-8.67451e-21
-1.0528e-21
-1.28548e-22
-1.57369e-23
-1.90614e-24
-2.23636e-25
-2.47041e-26
-2.46535e-27
-2.04386e-28
-1.0265e-29
7.23937e-31
3.25687e-31
6.50111e-32
1.02565e-32
1.42149e-33
1.80074e-34
2.12656e-35
2.3683e-36
2.50614e-37
2.53341e-38
2.46528e-39
0.0414416
0.0407895
0.0204677
-0.0319833
-0.0286852
0.143622
0.449426
0.732241
0.934717
1.04792
0.983796
0.697911
0.338991
0.0931425
0.00532675
-7.18225e-07
-1.45908e-06
-3.55083e-07
-1.3036e-08
4.53328e-10
1.0686e-10
2.65499e-12
-7.3375e-14
-1.3028e-14
-2.85849e-16
-1.6003e-17
-1.80646e-18
-1.60791e-19
-8.6521e-21
6.91494e-22
3.53363e-22
8.37082e-23
1.61967e-23
2.83361e-24
4.64472e-25
7.24196e-26
1.08124e-26
1.55004e-27
2.1357e-28
2.82899e-29
3.60309e-30
4.41342e-31
5.2014e-32
5.90178e-33
6.45228e-34
6.80326e-35
6.92527e-36
6.81296e-37
6.48466e-38
5.99931e-39
0.00518402
0.00785899
0.00956622
-0.0151455
-0.03066
0.04871
0.249194
0.490458
0.690186
0.797101
0.751647
0.53481
0.26199
0.0732116
0.00445295
-1.5411e-05
-7.68691e-06
-8.69114e-07
6.29961e-09
2.45324e-09
1.97022e-10
-1.3275e-12
-4.36828e-13
-1.97044e-14
2.76853e-16
4.501e-17
6.78681e-18
1.03259e-18
1.59702e-19
2.51061e-20
3.97358e-21
6.25237e-22
9.67573e-23
1.46159e-23
2.14494e-24
3.0496e-25
4.19397e-26
5.57462e-27
7.15915e-28
8.88266e-29
1.06492e-29
1.23397e-30
1.38252e-31
1.49837e-32
1.57178e-33
1.59683e-34
1.57224e-35
1.50135e-36
1.39149e-37
1.25707e-38
-0.0154154
-0.0126086
0.000536892
0.00148961
-0.0232489
-0.0301183
0.050734
0.223849
0.40405
0.490332
0.450642
0.306457
0.142966
0.0373891
0.00171313
-6.58613e-05
-1.79637e-05
-8.64024e-07
2.84312e-08
6.1761e-09
1.20932e-10
-7.89395e-12
-1.03065e-12
1.16949e-14
1.29845e-15
8.24645e-17
1.00816e-17
1.44339e-18
2.27468e-19
3.79173e-20
6.4256e-21
1.07595e-21
1.75075e-22
2.74514e-23
4.13309e-24
5.96948e-25
8.27336e-26
1.10129e-26
1.40956e-27
1.73678e-28
2.0625e-29
2.36325e-30
2.61549e-31
2.79869e-32
2.89825e-33
2.90734e-34
2.82766e-35
2.66877e-36
2.44638e-37
2.18741e-38
-0.0132456
-0.0127366
-0.00335392
0.0092179
-0.00721859
-0.0527148
-0.0559523
0.0300541
0.154845
0.212462
0.183247
0.107168
0.0396917
0.0062991
-0.000720167
-0.000172667
-1.18938e-05
4.63454e-07
9.37898e-08
3.90074e-09
-1.7956e-10
-2.82003e-11
2.17181e-13
4.54289e-14
7.18976e-16
-9.67115e-18
-1.94394e-18
-2.12939e-19
7.42429e-21
1.10609e-20
3.584e-21
8.48648e-22
1.70312e-22
3.05638e-23
5.03649e-24
7.73882e-25
1.11973e-25
1.53595e-26
2.0072e-27
2.50824e-28
3.00597e-29
3.46312e-30
3.84312e-31
4.11507e-32
4.25795e-33
4.26326e-34
4.13556e-35
3.89112e-36
3.55487e-37
3.16746e-38
-0.000315782
-0.00186931
-0.00275883
0.00682435
0.00641173
-0.02666
-0.0622344
-0.0546596
-0.010707
0.0154631
0.00695892
-0.0108489
-0.0150857
-0.00776221
-0.00162626
-7.03061e-05
6.99563e-06
1.50644e-06
4.83886e-08
-2.65812e-09
-5.21551e-10
-2.02875e-12
2.90552e-13
4.98612e-14
-1.52067e-16
-6.73314e-17
-1.4928e-17
-2.57832e-18
-3.66168e-19
-4.21261e-20
-3.37927e-21
6.79486e-24
7.72705e-23
2.14424e-23
4.30526e-24
7.40277e-25
1.15058e-25
1.65687e-26
2.24088e-27
2.87071e-28
3.50352e-29
4.09063e-30
4.58399e-31
4.94296e-32
5.1399e-33
5.1635e-34
5.01944e-35
4.72836e-36
4.32191e-37
3.85089e-38
0.00529912
0.00441634
-0.000576963
8.25926e-05
0.00852277
0.00623913
-0.0195596
-0.0539241
-0.0697276
-0.068262
-0.060492
-0.0447597
-0.0238733
-0.00772921
-0.000998566
3.87127e-05
1.30961e-05
1.45784e-06
-1.7092e-08
-4.60372e-09
-1.51116e-10
5.44066e-12
7.3755e-13
-1.0837e-14
-1.05749e-15
-1.21415e-16
-2.26338e-17
-3.69087e-18
-5.17501e-19
-6.26028e-20
-6.21666e-21
-3.91545e-22
2.21874e-23
1.41251e-23
3.38652e-24
6.32355e-25
1.03293e-25
1.53901e-26
2.13426e-27
2.78686e-28
3.45207e-29
4.07772e-30
4.61139e-31
5.00804e-32
5.23637e-33
5.28266e-34
5.15165e-35
4.86437e-36
4.45384e-37
3.97323e-38
0.00169741
0.00243748
0.000541897
-0.00309487
0.00234128
0.0142215
0.0109653
-0.0152869
-0.043545
-0.0509919
-0.041719
-0.0245629
-0.00977392
-0.0022021
9.1542e-05
1.9667e-05
3.00555e-06
1.51247e-07
-2.35954e-09
-1.68114e-10
1.57296e-10
1.99226e-11
-3.03645e-13
-4.55432e-14
-5.21868e-16
-3.02129e-17
-6.8276e-18
-8.20901e-19
-4.08975e-20
8.13656e-21
3.22137e-21
7.46625e-22
1.45885e-22
2.60219e-23
4.34477e-24
6.84856e-25
1.02261e-25
1.44952e-26
1.95444e-27
2.51212e-28
3.08498e-29
3.62771e-30
4.09376e-31
4.44236e-32
4.64455e-33
4.68696e-34
4.57274e-35
4.31984e-36
3.95716e-37
3.53174e-38
-0.00210123
-0.00101159
0.000281488
-0.00168488
-0.0019433
0.00391099
0.0100015
0.00967308
0.00841336
0.0103146
0.0114816
0.00937222
0.00496753
0.00160386
0.000160359
-9.87486e-07
-5.13843e-06
-9.25432e-07
-2.98176e-09
2.66857e-09
4.84888e-10
-2.82327e-12
-9.85738e-13
-4.13242e-14
5.23014e-16
1.4543e-16
3.00162e-17
5.54767e-18
9.32797e-19
1.44698e-19
2.10483e-20
2.92008e-21
3.92702e-22
5.19028e-23
6.80261e-24
8.86701e-25
1.14658e-25
1.46244e-26
1.82809e-27
2.22719e-28
2.63405e-29
3.01675e-30
3.34178e-31
3.57939e-32
3.70816e-33
3.71805e-34
3.6113e-35
3.40127e-36
3.1096e-37
2.77207e-38
-0.00161549
-0.00110357
-0.00030537
0.000246122
-0.000610346
-0.0034384
-0.00330723
0.00639488
0.0257981
0.0397289
0.0369951
0.022479
0.00849105
0.00145629
-9.50554e-05
-5.55814e-05
-1.19669e-05
-3.79309e-07
2.98068e-08
6.85885e-09
1.10244e-10
-5.20367e-12
-1.22844e-12
-1.15683e-14
9.34601e-16
2.22466e-16
4.2678e-17
7.76346e-18
1.29303e-18
1.97694e-19
2.81198e-20
3.7774e-21
4.86329e-22
6.08249e-23
7.47276e-24
9.08674e-25
1.09719e-25
1.31458e-26
1.55749e-27
1.8163e-28
2.07543e-29
2.31515e-30
2.51447e-31
2.65453e-32
2.72165e-33
2.70938e-34
2.61926e-35
2.46012e-36
2.24635e-37
2.00242e-38
-0.000213478
0.000131677
-0.000426325
5.992e-05
0.00168684
-0.00109208
-0.00724589
-0.0059536
0.00991012
0.0253838
0.0245452
0.0133905
0.00355566
-0.000159714
-0.000218373
-7.47711e-05
-5.37873e-06
2.43529e-07
6.30514e-08
2.33763e-09
-3.82094e-11
-8.48793e-12
-3.76216e-13
4.41899e-15
6.67094e-16
1.16007e-16
2.37153e-17
4.44806e-18
7.48536e-19
1.14567e-19
1.62454e-20
2.17382e-21
2.79357e-22
3.50267e-23
4.33883e-24
5.34964e-25
6.57696e-26
8.03905e-27
9.71563e-28
1.15405e-28
1.34045e-29
1.51677e-30
1.66802e-31
1.78048e-32
1.84382e-33
1.85255e-34
1.80662e-35
1.71113e-36
1.57522e-37
1.41541e-38
-0.000414832
0.000176828
-0.000183916
-0.000792131
0.00125519
0.00229142
-0.00218112
-0.00740472
-0.0041345
0.00288107
0.0040639
0.00132861
-0.000778726
-0.000578799
-0.000250523
-3.70865e-05
1.18174e-06
2.91118e-07
1.59201e-08
-3.41439e-10
-5.85581e-11
-4.12752e-13
8.56179e-14
1.36928e-14
5.62663e-17
-2.34038e-18
-7.86147e-19
-2.37537e-19
-6.04075e-20
-1.27641e-20
-2.29145e-21
-3.54321e-22
-4.70526e-23
-5.20147e-24
-4.25822e-25
-1.04079e-26
5.1564e-27
1.47176e-27
2.75651e-28
4.3108e-29
6.02945e-30
7.77542e-31
9.39986e-32
1.07637e-32
1.17566e-33
1.23104e-34
1.24042e-35
1.20629e-36
1.13488e-37
1.0385e-38
-0.00078075
-0.000311327
-9.72463e-07
-0.00061788
-0.000220182
0.00146599
0.0013658
-0.00129418
-0.00284546
-0.00225255
-0.00150219
-0.00110866
-0.000552988
-0.0002345
-5.59547e-05
1.38786e-06
-2.84942e-07
-1.09115e-07
-5.06958e-09
1.34245e-10
3.66213e-11
1.17057e-12
8.34169e-16
-2.00394e-15
-3.28223e-16
-6.32045e-17
-1.36693e-17
-2.7709e-18
-5.11286e-19
-8.61202e-20
-1.33363e-20
-1.90927e-21
-2.53489e-22
-3.123e-23
-3.56174e-24
-3.73398e-25
-3.54118e-26
-2.92566e-27
-1.88543e-28
-4.77983e-30
1.18746e-30
2.96688e-31
4.70345e-32
6.25006e-33
7.48817e-34
8.34033e-35
8.77521e-36
8.80533e-37
8.47919e-38
7.89758e-39
-0.000345946
-0.000271292
1.48771e-05
-2.13753e-06
-0.000416789
-0.000361994
0.000565466
0.00146979
0.00149903
0.00105804
0.000865551
0.000809895
0.000525116
0.000217867
4.57627e-05
-4.12748e-07
-5.36986e-07
-1.09293e-07
1.97337e-10
2.06515e-10
2.59489e-11
-3.13941e-13
-4.77017e-14
-1.1784e-15
-9.35281e-17
-3.59526e-17
-1.00507e-17
-2.31904e-18
-4.66409e-19
-8.37321e-20
-1.36082e-20
-2.02197e-21
-2.76632e-22
-3.50155e-23
-4.11019e-24
-4.47104e-25
-4.4837e-26
-4.08983e-27
-3.28598e-28
-2.12524e-29
-7.08151e-31
8.34304e-32
2.36141e-32
3.74286e-33
4.87488e-34
5.69021e-35
6.16139e-36
6.29805e-37
6.13962e-38
5.7657e-39
7.25136e-05
1.07569e-05
-9.76315e-06
0.000110244
2.73682e-05
-0.000390456
-0.0004362
0.000282705
0.0011801
0.00143012
0.00126275
0.000861841
0.00038473
0.00010202
6.36448e-06
-1.61239e-06
-6.00039e-07
-6.23167e-08
2.23972e-09
3.17709e-10
-4.90913e-12
-8.49275e-13
-1.82051e-15
9.57072e-17
-7.47735e-18
-1.15007e-17
-4.60456e-18
-1.28778e-18
-2.90893e-19
-5.61862e-20
-9.57283e-21
-1.46728e-21
-2.05004e-22
-2.63383e-23
-3.12787e-24
-3.43955e-25