/*--------------------------------*- C++ -*----------------------------------*\
| =========                 |                                                 |
| \\      /  F ield         | OpenFOAM: The Open Source CFD Toolbox           |
|  \\    /   O peration     | Version:  v2006                                 |
|   \\  /    A nd           | Website:  www.openfoam.com                      |
|    \\/     M anipulation  |                                                 |
\*---------------------------------------------------------------------------*/
FoamFile
{
    version     2.0;
    format      ascii;
    class       volScalarField;
    location    "0";
    object      f;
}
// * * * * * * * * * * * * * * * * * * * * * * * * * * * * * * * * * * * * * //

dimensions      [0 0 0 0 0 0 0];


internalField   nonuniform List<scalar> 
2500
(
2.04681e-77
-8.29159e-63
1.86544e-55
1.73447e-50
-7.27522e-46
-1.68926e-44
-1.16682e-41
-1.0681e-38
-6.72596e-37
-6.99624e-36
3.50043e-34
1.86328e-33
-3.07385e-32
2.52393e-31
3.37552e-30
7.56262e-30
-7.68891e-29
-5.57589e-28
-1.38886e-27
-5.77993e-28
6.40835e-27
2.20665e-26
2.6452e-26
-2.87718e-26
-1.74341e-25
-4.28768e-25
-8.84134e-25
-1.44128e-24
-1.0493e-24
2.7341e-24
1.23839e-23
2.77762e-23
4.6016e-23
6.3054e-23
7.55441e-23
8.16423e-23
7.93745e-23
6.73224e-23
4.65703e-23
1.84911e-23
-1.50659e-23
-5.00297e-23
-8.57684e-23
-1.23709e-22
-1.52711e-22
-1.58212e-22
-1.3603e-22
-9.52757e-23
-5.27542e-23
-1.31882e-23
3.76304e-75
-4.92542e-61
5.99876e-54
4.38094e-49
-1.29238e-44
-7.22757e-43
-1.48249e-40
-8.39258e-38
-5.30972e-36
-4.39356e-35
2.63655e-33
1.04628e-32
-2.56131e-31
9.01023e-31
1.7151e-29
4.59559e-29
-3.50467e-28
-2.71581e-27
-7.3277e-27
-6.93886e-27
1.59415e-26
7.65371e-26
1.20265e-25
-6.4674e-27
-4.15516e-25
-1.17456e-24
-2.55028e-24
-4.43793e-24
-4.6467e-24
2.24224e-24
2.17167e-23
5.32143e-23
9.02235e-23
1.2431e-22
1.49331e-22
1.63166e-22
1.62004e-22
1.40981e-22
1.01327e-22
4.72175e-23
-1.44225e-23
-7.34673e-23
-1.31273e-22
-1.96991e-22
-2.52675e-22
-2.71075e-22
-2.41029e-22
-1.73504e-22
-9.63148e-23
-2.35512e-23
6.29491e-73
-2.66033e-59
1.76083e-52
1.0322e-47
-2.1606e-43
-1.65418e-41
-1.96008e-39
-6.01021e-37
-4.11483e-35
-2.39454e-34
2.0815e-32
6.69028e-32
-2.02792e-30
2.19067e-30
9.12648e-29
2.84924e-28
-1.72033e-27
-1.4189e-26
-4.01718e-26
-4.94492e-26
3.47539e-26
2.95646e-25
5.57552e-25
2.34636e-25
-1.1501e-24
-3.8764e-24
-8.81434e-24
-1.58179e-23
-1.88822e-23
-2.27194e-24
5.01657e-23
1.36434e-22
2.37525e-22
3.29901e-22
3.98073e-22
4.40497e-22
4.47445e-22
3.9926e-22
2.94836e-22
1.47808e-22
-1.51068e-23
-1.60695e-22
-2.96594e-22
-4.5922e-22
-6.06864e-22
-6.69646e-22
-6.1363e-22
-4.54868e-22
-2.56628e-22
-6.23764e-23
1.02021e-70
-1.37936e-57
4.94346e-51
2.32934e-46
-3.47174e-42
-3.06256e-40
-2.6228e-38
-3.59465e-36
-3.03003e-34
-8.27101e-34
1.62919e-31
4.65466e-31
-1.48423e-29
-7.31269e-30
4.57002e-28
1.65857e-27
-8.07545e-27
-7.09258e-26
-2.07778e-25
-2.95849e-25
-8.74527e-27
1.06152e-24
2.38947e-24
1.79662e-24
-2.68398e-24
-1.218e-23
-2.93208e-23
-5.36883e-23
-6.934e-23
-3.19641e-23
1.04771e-22
3.3413e-22
6.01949e-22
8.44035e-22
1.02269e-21
1.14863e-21
1.20045e-21
1.10386e-21
8.37615e-22
4.42606e-22
1.4766e-23
-3.39054e-22
-6.47401e-22
-1.03554e-21
-1.41029e-21
-1.60241e-21
-1.5196e-21
-1.16844e-21
-6.77312e-22
-1.6557e-22
1.59934e-68
-6.86265e-56
1.3257e-49
5.00521e-45
-5.34663e-41
-5.01867e-39
-3.46609e-37
-1.3774e-35
-2.11145e-33
2.58836e-33
1.25534e-30
3.50437e-30
-1.01453e-28
-1.60304e-28
2.12872e-27
9.07473e-27
-3.62877e-26
-3.39449e-25
-1.01927e-24
-1.58936e-24
-7.04672e-25
3.48474e-24
9.56407e-24
9.66226e-24
-4.06083e-24
-3.61243e-23
-9.40302e-23
-1.74562e-22
-2.36635e-22
-1.59665e-22
1.85587e-22
7.77097e-22
1.46413e-21
2.07553e-21
2.52211e-21
2.8812e-21
3.12064e-21
2.97619e-21
2.32363e-21
1.27586e-21
1.58574e-22
-6.93124e-22
-1.36883e-21
-2.25988e-21
-3.16431e-21
-3.6998e-21
-3.64551e-21
-2.93085e-21
-1.76644e-21
-4.41576e-22
2.42139e-66
-3.27386e-54
3.39138e-48
1.017e-43
-7.86289e-40
-7.53144e-38
-4.44735e-36
4.52967e-35
-1.38548e-32
8.8946e-32
9.45004e-30
2.74834e-29
-6.50746e-28
-1.54468e-27
9.04843e-27
4.66491e-26
-1.56327e-25
-1.55541e-24
-4.75448e-24
-7.87613e-24
-5.54578e-24
1.01051e-23
3.58943e-23
4.42933e-23
5.16245e-24
-9.95646e-23
-2.90969e-22
-5.46149e-22
-7.61577e-22
-6.21671e-22
2.23453e-22
1.70286e-21
3.40643e-21
4.88818e-21
5.93985e-21
6.91431e-21
7.83511e-21
7.81452e-21
6.29329e-21
3.55488e-21
6.54474e-22
-1.38783e-21
-2.82434e-21
-4.78861e-21
-6.84447e-21
-8.20356e-21
-8.42862e-21
-7.14858e-21
-4.53805e-21
-1.18497e-21
3.53488e-64
-1.49596e-52
8.26719e-47
1.9353e-42
-1.09874e-38
-1.05196e-36
-5.48486e-35
1.77988e-33
-8.50622e-32
1.14595e-30
6.89885e-29
2.15006e-28
-3.92308e-27
-1.17018e-26
3.38132e-26
2.24851e-25
-6.47218e-25
-6.81941e-24
-2.11049e-23
-3.64623e-23
-3.20716e-23
2.36874e-23
1.2631e-22
1.82976e-22
8.23102e-23
-2.47124e-22
-8.68857e-22
-1.65062e-21
-2.3328e-21
-2.12631e-21
-1.13662e-22
3.4771e-21
7.55296e-21
1.09799e-20
1.32656e-20
1.57509e-20
1.89197e-20
1.99484e-20
1.66324e-20
9.59789e-21
2.12581e-21
-2.77879e-21
-5.7749e-21
-9.93557e-21
-1.42741e-20
-1.73675e-20
-1.86547e-20
-1.68659e-20
-1.14397e-20
-3.1981e-21
4.96781e-62
-6.53841e-51
1.92035e-45
3.39584e-41
-1.44848e-37
-1.37953e-35
-6.46792e-34
2.57127e-32
-4.84138e-31
1.13713e-29
4.85116e-28
1.62632e-27
-2.22117e-26
-7.7226e-26
1.01114e-25
1.01231e-24
-2.58543e-24
-2.85816e-23
-8.90979e-23
-1.58653e-22
-1.5911e-22
3.00285e-23
4.15398e-22
6.96522e-22
4.79464e-22
-5.10978e-22
-2.50126e-21
-4.83725e-21
-6.84797e-21
-6.66667e-21
-1.96769e-21
6.50985e-21
1.59031e-20
2.34073e-20
2.78115e-20
3.36499e-20
4.36831e-20
4.94043e-20
4.28546e-20
2.51411e-20
6.09303e-21
-5.74063e-21
-1.20022e-20
-2.05207e-20
-2.88122e-20
-3.48586e-20
-3.91558e-20
-3.8229e-20
-2.8163e-20
-8.65694e-21
6.70944e-60
-2.7287e-49
4.26135e-44
5.33481e-40
-1.78165e-36
-1.70699e-34
-7.27771e-33
2.87311e-31
-2.51296e-30
9.73328e-29
3.26565e-27
1.16789e-26
-1.17778e-25
-4.59962e-25
1.56106e-25
4.22979e-24
-1.00236e-23
-1.14424e-22
-3.57089e-22
-6.50345e-22
-7.10434e-22
-1.01108e-22
1.26807e-21
2.46721e-21
2.16911e-21
-6.40794e-22
-6.92462e-21
-1.38001e-20
-1.93858e-20
-1.95672e-20
-8.66043e-21
1.09085e-20
3.17318e-20
4.70988e-20
5.38738e-20
6.60199e-20
9.56074e-20
1.18393e-19
1.07499e-19
6.38882e-20
1.60241e-20
-1.26414e-20
-2.61593e-20
-4.32922e-20
-5.69213e-20
-6.57711e-20
-7.68679e-20
-8.24633e-20
-6.73213e-20
-2.33847e-20
8.6922e-58
-1.08502e-47
9.1069e-43
6.99554e-39
-2.00592e-35
-1.99854e-33
-7.81435e-32
2.7875e-30
-1.14547e-29
7.47002e-28
2.0925e-26
7.88028e-26
-5.81994e-25
-2.50826e-24
-7.76956e-25
1.62337e-23
-3.79973e-23
-4.37597e-22
-1.35467e-21
-2.51098e-21
-2.9113e-21
-1.05361e-21
3.55083e-21
8.16229e-21
8.54493e-21
1.19085e-21
-1.83413e-20
-3.84882e-20
-5.32749e-20
-5.44795e-20
-2.87668e-20
1.58135e-20
6.01929e-20
8.89677e-20
9.37641e-20
1.13951e-19
1.95604e-19
2.73609e-19
2.6203e-19
1.57274e-19
3.92348e-20
-3.01068e-20
-6.11197e-20
-9.60734e-20
-1.12676e-19
-1.15603e-19
-1.37931e-19
-1.66889e-19
-1.55118e-19
-6.26028e-20
1.07795e-55
-4.09989e-46
1.90954e-41
5.8783e-38
-1.98887e-34
-2.21698e-32
-8.02201e-31
2.44259e-29
-4.05453e-29
5.22735e-27
1.26912e-25
4.96177e-25
-2.65951e-24
-1.25858e-23
-9.71003e-24
5.62358e-23
-1.4184e-22
-1.60239e-21
-4.84476e-21
-9.1106e-21
-1.1039e-20
-5.70633e-21
8.9331e-21
2.52225e-20
3.04331e-20
1.34808e-20
-4.60124e-20
-1.05385e-19
-1.43205e-19
-1.4541e-19
-8.22709e-20
1.94215e-20
1.10484e-19
1.57369e-19
1.38099e-19
1.53692e-19
3.64575e-19
6.07104e-19
6.19111e-19
3.73925e-19
8.94782e-20
-7.64481e-20
-1.52572e-19
-2.28257e-19
-2.32021e-19
-1.88311e-19
-2.16372e-19
-3.09302e-19
-3.41147e-19
-1.64728e-19
1.27667e-53
-1.4674e-44
4.06548e-40
-4.25778e-37
-1.56791e-33
-2.33033e-31
-7.90278e-30
1.96358e-28
-3.94255e-29
3.36222e-26
7.24361e-25
2.89695e-24
-1.11109e-23
-5.8068e-23
-6.48549e-23
1.70149e-22
-5.2285e-22
-5.65641e-21
-1.62522e-20
-3.09265e-20
-3.88134e-20
-2.45072e-20
1.93831e-20
7.26177e-20
9.9417e-20
6.91303e-20
-1.07094e-19
-2.84332e-19
-3.79679e-19
-3.75821e-19
-2.11429e-19
2.50424e-20
2.05958e-19
2.6295e-19
1.42791e-19
7.65874e-20
5.84157e-19
1.2857e-18
1.41371e-18
8.54474e-19
1.87299e-19
-2.00713e-19
-3.96256e-19
-5.76331e-19
-5.16944e-19
-2.8916e-19
-2.6464e-19
-4.99639e-19
-7.05801e-19
-4.22124e-19
1.44013e-51
-4.95477e-43
9.20916e-39
-3.68438e-35
-5.75382e-33
-2.31803e-30
-7.51273e-29
1.45217e-27
1.19893e-27
1.99589e-25
3.86605e-24
1.55611e-23
-4.17292e-23
-2.45021e-22
-3.4013e-22
4.16871e-22
-1.89035e-21
-1.95173e-20
-5.08751e-20
-9.75461e-20
-1.26291e-19
-9.08408e-20
3.27254e-20
1.93871e-19
2.99144e-19
2.81655e-19
-2.20549e-19
-7.57472e-19
-1.00092e-18
-9.50178e-19
-4.973e-19
7.15508e-20
4.24291e-19
4.32508e-19
-1.26443e-20
-4.63793e-19
6.63948e-19
2.5768e-18
3.10909e-18
1.86349e-18
3.44787e-19
-5.29878e-19
-1.03693e-18
-1.50482e-18
-1.26357e-18
-4.59442e-19
-1.35969e-19
-6.11603e-19
-1.34028e-18
-1.04265e-18
1.54241e-49
-1.57063e-41
2.30132e-37
-1.18016e-33
1.12129e-31
-2.17514e-29
-6.93977e-28
9.77681e-27
1.69278e-26
1.09607e-24
1.91578e-23
7.6013e-23
-1.37512e-22
-9.35701e-22
-1.50901e-21
6.27591e-22
-6.5616e-21
-6.72792e-20
-1.4822e-19
-2.83063e-19
-3.78123e-19
-2.98569e-19
2.60863e-20
4.76601e-19
8.2754e-19
1.00907e-18
-3.47963e-19
-1.99104e-18
-2.6383e-18
-2.37172e-18
-1.08088e-18
3.37061e-19
1.02905e-18
7.7493e-19
-5.75263e-19
-2.40535e-18
-1.34528e-19
4.82461e-18
6.56137e-18
3.83997e-18
4.89238e-19
-1.3827e-18
-2.66848e-18
-3.94154e-18
-3.30607e-18
-9.33707e-19
4.88665e-19
-1.83489e-19
-2.22037e-18
-2.45261e-18
1.56248e-47
-4.64749e-40
6.33312e-36
-2.9503e-32
3.57139e-30
-1.9142e-28
-6.27058e-27
5.78799e-26
1.5973e-25
5.57456e-24
8.74524e-23
3.31322e-22
-3.86511e-22
-3.17942e-21
-5.74571e-21
-8.15195e-22
-2.09684e-20
-2.37207e-19
-4.04991e-19
-7.45829e-19
-1.0316e-18
-8.75507e-19
-8.68822e-20
1.06859e-18
2.09041e-18
3.29416e-18
-1.12401e-19
-5.14093e-18
-6.9571e-18
-5.87619e-18
-2.18415e-18
1.41682e-18
2.8279e-18
1.6973e-18
-1.91715e-18
-8.04494e-18
-4.05892e-18
8.25513e-18
1.32426e-17
7.36967e-18
1.9597e-19
-3.53591e-18
-6.65906e-18
-1.01294e-17
-8.87391e-18
-2.67148e-18
2.07824e-18
2.02976e-18
-2.76801e-18
-5.40942e-18
1.48998e-45
-1.27687e-38
1.85557e-34
-6.49077e-31
6.69928e-29
-1.56539e-27
-5.56013e-26
2.71305e-25
1.19004e-24
2.61678e-23
3.64892e-22
1.24485e-21
-9.45282e-22
-9.37359e-21
-1.84518e-20
-1.10515e-20
-5.67838e-20
-8.63738e-19
-1.07487e-18
-1.76151e-18
-2.52704e-18
-2.27363e-18
-5.30213e-19
2.15746e-18
4.76348e-18
9.94614e-18
2.25113e-18
-1.29322e-17
-1.82444e-17
-1.44179e-17
-4.10206e-18
4.92081e-18
7.96856e-18
4.45306e-18
-4.31874e-18
-2.26572e-17
-1.71683e-17
1.23523e-17
2.5507e-17
1.28856e-17
-2.09155e-18
-8.81363e-18
-1.59974e-17
-2.52259e-17
-2.35933e-17
-8.87807e-18
4.73254e-18
8.77156e-18
-6.43638e-19
-1.09312e-17
1.32939e-43
-3.2601e-37
5.58629e-33
-1.31562e-29
1.02913e-27
-1.17611e-26
-4.81791e-25
5.67445e-25
6.58708e-24
1.10645e-22
1.38477e-21
3.7364e-21
-2.84783e-21
-2.33681e-20
-4.69678e-20
-5.10751e-20
-1.01688e-19
-3.1927e-18
-2.99511e-18
-3.77286e-18
-5.4499e-18
-5.08472e-18
-1.69942e-18
3.85666e-18
9.60046e-18
2.79131e-17
1.31926e-17
-3.13383e-17
-4.7019e-17
-3.45569e-17
-6.90456e-18
1.4476e-17
2.12594e-17
1.22029e-17
-7.24292e-18
-5.79636e-17
-5.469e-17
1.43752e-17
4.69439e-17
1.97502e-17
-1.10659e-17
-2.12683e-17
-3.68e-17
-6.05296e-17
-6.0938e-17
-2.88844e-17
6.06314e-18
2.49386e-17
1.10964e-17
-1.94036e-17
1.10064e-41
-7.96775e-36
1.69212e-31
-2.51827e-28
1.40371e-26
-8.1001e-26
-4.0195e-24
-7.16082e-24
1.55006e-23
3.7361e-22
4.80137e-21
6.94225e-21
-1.798e-20
-5.2444e-20
-7.68001e-20
-1.54098e-19
8.60239e-20
-1.15063e-17
-9.40184e-18
-8.40675e-18
-1.01705e-17
-8.86783e-18
-3.81868e-18
5.96819e-18
1.65584e-17
7.26685e-17
5.25014e-17
-7.21501e-17
-1.17155e-16
-7.84456e-17
-8.09174e-18
3.70715e-17
5.11231e-17
3.12397e-17
-7.80124e-18
-1.40011e-16
-1.53836e-16
6.54435e-18
8.32029e-17
2.43491e-17
-3.92802e-17
-4.91834e-17
-8.03217e-17
-1.39427e-16
-1.51971e-16
-8.74023e-17
-5.03544e-18
5.67644e-17
4.97466e-17
-2.72486e-17
8.35659e-40
-2.10442e-34
5.11012e-30
-4.62461e-27
1.76452e-25
-5.4368e-25
-3.14048e-23
-1.26184e-22
-2.08992e-22
2.75706e-22
1.55434e-20
-6.99767e-21
-1.44497e-19
-1.76634e-19
1.93713e-20
-2.65824e-19
1.8362e-18
-3.84373e-17
-3.14955e-17
-2.73989e-17
-1.68287e-17
-6.53614e-18
-5.57106e-18
7.73205e-18
2.30144e-17
1.76221e-16
1.71233e-16
-1.54553e-16
-2.75593e-16
-1.5646e-16
1.03865e-17
8.61529e-17
1.05616e-16
6.94059e-17
1.55314e-18
-3.29542e-16
-4.09361e-16
-2.82633e-17
1.44649e-16
1.71451e-17
-1.1811e-16
-1.07765e-16
-1.62948e-16
-3.05175e-16
-3.67695e-16
-2.46931e-16
-6.42094e-17
1.06081e-16
1.52098e-16
-1.79021e-17
5.71211e-38
-7.57951e-33
1.53001e-28
-8.22893e-26
2.10305e-24
-4.57239e-24
-2.19707e-22
-1.24338e-21
-3.80934e-21
-1.29677e-20
4.78462e-20
-1.20563e-19
-9.79005e-19
-1.27032e-18
5.62725e-19
2.30781e-19
9.73399e-18
-1.11549e-16
-9.45129e-17
-1.32649e-16
-2.88249e-17
8.07994e-16
8.87914e-16
7.28601e-17
2.72519e-17
6.89298e-16
5.02955e-16
-2.92215e-16
-5.80219e-16
-2.04039e-16
1.45085e-16
2.03813e-16
1.69819e-16
1.18695e-16
3.58756e-17
-8.6932e-16
-1.12348e-15
-1.2065e-16
2.53805e-16
-2.22216e-17
-3.26493e-16
-2.23251e-16
-2.93456e-16
-6.08822e-16
-8.84185e-16
-6.73678e-16
-2.72036e-16
1.5605e-16
3.78261e-16
6.0624e-17
3.40359e-36
-3.90287e-31
4.50505e-27
-1.42443e-24
2.45159e-23
-6.16176e-23
-1.26999e-21
-8.70597e-21
-3.74812e-20
-1.8782e-19
1.23459e-19
-4.51752e-19
-5.21344e-18
-1.01834e-17
9.59228e-19
3.99942e-18
3.02012e-17
-2.3956e-16
-2.10262e-16
-8.31415e-16
8.50903e-16
2.06623e-14
2.72195e-14
2.80298e-14
2.17191e-14
1.15209e-14
3.05736e-15
-4.16881e-16
-9.82535e-16
5.77669e-16
1.87634e-15
6.5646e-16
1.51449e-16
7.79685e-17
1.10478e-16
-5.36656e-15
-3.59105e-15
-2.99161e-16
4.61008e-16
-1.42042e-16
-9.00314e-16
-4.57915e-16
-4.28127e-16
-1.05673e-15
-2.44521e-15
-1.93891e-15
-9.22404e-16
1.60815e-16
8.87615e-16
3.70844e-16
1.65242e-34
-2.29903e-29
1.28795e-25
-2.39298e-23
2.89051e-22
-1.04707e-21
-4.91631e-21
-3.60572e-20
-2.54028e-19
-1.86482e-18
2.95187e-20
1.30976e-19
-2.0614e-17
-7.12323e-17
-7.14994e-18
2.34006e-17
-1.54864e-17
-8.54729e-17
-1.85529e-15
-7.86011e-15
3.40318e-14
9.22302e-14
9.42383e-14
1.59539e-13
1.46081e-13
5.68395e-14
2.24772e-14
-4.0235e-16
-2.78003e-15
6.00722e-15
1.83971e-14
2.68302e-15
-6.66983e-14
-1.07554e-13
-5.055e-14
-3.11175e-14
-1.02504e-14
-4.39402e-16
8.56526e-16
-5.79899e-16
-2.81573e-15
-1.32661e-15
-6.76044e-16
-7.00681e-15
-1.0423e-14
-6.32229e-15
-2.86179e-15
5.71891e-17
8.98739e-15
1.52297e-15
5.36382e-33
-1.31982e-27
3.51529e-24
-3.8678e-22
3.5214e-21
-1.71695e-20
7.77426e-22
9.84525e-20
-9.79512e-19
-1.47107e-17
-2.64609e-18
1.09744e-17
-4.52063e-17
-6.07242e-16
-3.29582e-17
1.64384e-16
-6.06602e-15
2.48993e-15
-9.00761e-14
-3.7809e-14
8.56079e-13
2.01135e-13
-1.99921e-12
2.3056e-13
2.74756e-13
1.3978e-13
7.24237e-14
-3.55057e-13
-6.82178e-13
-6.06884e-15
5.73448e-14
-6.52127e-13
-1.83235e-12
-5.14236e-13
-2.79289e-13
-9.51483e-14
-1.94087e-14
-1.99877e-16
1.44225e-15
-4.54548e-15
-8.59116e-15
-8.61595e-15
-3.6329e-14
-6.15017e-14
-4.06733e-14
-2.0328e-14
-6.53334e-15
1.04199e-13
6.58627e-14
3.76715e-15
-3.3977e-34
-6.97787e-26
8.97668e-23
-5.92617e-21
4.39459e-20
-2.52777e-19
1.74031e-19
3.71729e-18
3.13947e-18
-8.91732e-17
-1.74678e-17
8.02206e-17
9.96357e-17
-7.33985e-15
3.01767e-14
-2.44595e-14
-3.18587e-14
-2.07879e-13
-1.2129e-12
7.12764e-12
1.21989e-11
-4.19582e-11
-1.71359e-10
-1.92284e-10
-1.12702e-11
6.93805e-13
1.42434e-13
-4.58297e-12
-4.41524e-12
2.40234e-12
-1.17956e-12
-2.20804e-11
-8.11354e-12
8.56923e-13
-4.94463e-13
-1.54206e-13
-7.7476e-14
-8.75715e-14
2.84028e-17
-2.42819e-14
-1.64233e-14
-4.93208e-14
-2.49725e-13
-2.25933e-13
-7.90807e-14
-5.20146e-14
1.38162e-12
9.37885e-13
2.45839e-13
-6.33297e-13
-1.0524e-29
-3.31213e-24
2.09331e-21
-8.41894e-20
5.42624e-19
-3.3296e-18
7.83755e-19
3.93349e-17
1.13921e-16
-9.4796e-16
4.51597e-16
1.00676e-14
-3.28038e-14
-2.70956e-14
1.82254e-13
-1.61444e-13
3.49363e-14
-3.17805e-12
-4.00613e-12
4.89205e-11
3.70207e-11
-3.15005e-10
-6.89151e-10
-1.29074e-09
-5.63571e-10
1.60649e-12
-5.27741e-10
-9.62999e-11
-8.19619e-12
2.69773e-11
-1.21999e-09
-2.9122e-10
-2.88666e-11
7.05166e-11
1.5442e-11
2.59221e-13
-4.41359e-13
-9.59397e-13
-1.44016e-13
-7.54191e-14
-6.71425e-15
-6.91566e-13
-1.0632e-12
-4.26943e-13
4.70932e-12
1.80861e-11
1.25131e-11
3.51853e-12
4.46401e-13
-4.78162e-12
3.1191e-28
-1.37312e-22
4.31581e-20
-1.07172e-18
6.43018e-18
-4.03412e-17
-1.22792e-17
4.93206e-16
1.28223e-15
-2.06841e-14
5.39211e-14
7.41785e-14
-8.28688e-13
4.49791e-13
6.69588e-13
-5.49754e-13
2.26094e-13
-1.2757e-11
1.53789e-10
1.58778e-10
-1.18406e-09
-1.7563e-09
-3.13797e-11
-2.10248e-09
-6.10566e-09
-5.3034e-09
-7.14047e-09
-5.41317e-10
1.93963e-09
-2.92399e-08
-1.41595e-08
-9.03139e-10
-1.02645e-09
5.13099e-09
6.81603e-08
4.48234e-09
2.97529e-11
-1.532e-12
-1.96045e-12
-1.84084e-13
1.56544e-12
-2.70203e-12
-3.09553e-12
6.52685e-11
1.56062e-10
1.10654e-10
3.95413e-11
6.65773e-12
-5.41335e-11
-1.82719e-11
2.13713e-25
-4.75723e-21
7.44868e-19
-1.15266e-17
7.48654e-17
-5.93606e-16
-3.74651e-16
1.64339e-14
-5.68182e-14
-1.24105e-13
1.4177e-12
-2.64772e-12
-3.36773e-12
1.76773e-11
8.77067e-12
-1.0582e-10
-1.80602e-10
5.88202e-10
1.69078e-09
2.23854e-10
-8.23905e-09
-6.12335e-09
5.99915e-08
5.94082e-08
-1.17028e-08
-9.53682e-08
-2.20428e-08
2.70364e-08
2.40424e-08
1.03763e-06
-2.00107e-08
3.16344e-09
-5.71627e-09
1.24944e-07
1.58386e-06
1.07836e-07
1.22987e-09
2.48247e-11
-1.10768e-11
6.78063e-11
2.72971e-11
6.71062e-11
5.69612e-10
8.86598e-10
7.1745e-10
3.17436e-10
6.72113e-11
-4.01488e-10
-3.25594e-10
-3.43549e-11
2.81006e-23
-1.26449e-19
9.14824e-18
-8.7206e-17
6.65266e-16
-5.91828e-15
3.08167e-14
1.10151e-13
-1.2033e-12
2.13585e-12
6.82982e-12
-4.4743e-11
-6.51735e-12
2.8579e-10
7.69437e-11
-2.65052e-09
-1.22389e-09
1.39565e-08
5.10325e-09
-3.78405e-08
-2.49559e-08
1.25194e-07
2.60341e-07
3.26008e-07
5.98387e-08
-2.53421e-07
1.77925e-07
8.23622e-07
9.10003e-08
2.92995e-05
0.000305391
0.000631828
0.000728035
0.000534101
0.000226313
2.62014e-05
2.24159e-08
4.90416e-10
-2.2601e-11
5.07327e-10
3.43993e-11
2.79344e-09
3.81325e-09
3.69847e-09
2.20782e-09
5.76909e-10
-4.67987e-09
-4.07287e-09
-1.08788e-09
1.67716e-10
1.72449e-21
-1.96737e-18
-1.27238e-17
3.94628e-15
-2.51447e-14
-1.72176e-15
2.80609e-13
-6.29709e-13
-5.95727e-12
4.96234e-11
-4.98361e-11
-2.57736e-10
8.19894e-10
1.37141e-09
-7.48614e-09
-1.0902e-08
6.74785e-08
5.86656e-08
-3.68489e-07
-4.73812e-07
2.18656e-07
1.22403e-06
4.63934e-07
1.47125e-07
1.71092e-05
0.000254739
0.00154545
0.00502747
0.0111341
0.01872
0.0250928
0.0277417
0.0262036
0.0211347
0.0144893
0.00829707
0.00377697
0.00124814
0.000212297
2.96734e-09
-1.46282e-10
1.04571e-08
1.00432e-08
7.87332e-09
4.78415e-09
-5.53149e-08
-4.7293e-08
-1.56641e-08
-1.75848e-09
2.26352e-09
-1.32928e-16
4.04365e-15
-4.34804e-14
2.34844e-13
-9.50629e-13
2.42956e-12
1.82586e-12
-2.98533e-11
4.43543e-11
2.37423e-10
-1.22551e-09
-9.90927e-10
1.0535e-08
2.83778e-09
-6.9209e-08
8.95967e-08
4.78752e-07
-2.59751e-07
-2.07314e-06
-1.48454e-06
6.13502e-06
5.10361e-06
-5.88043e-05
-0.000282663
0.00063356
0.0060185
0.0195634
0.0426638
0.0719865
0.0999645
0.118284
0.121637
0.111912
0.09163
0.0668175
0.0432478
0.0245116
0.0117764
0.00443678
0.00101946
3.44112e-05
2.43628e-08
1.37811e-08
-4.19627e-08
-4.71671e-07
-4.18818e-07
-1.71911e-07
-3.42243e-08
2.07407e-09
1.08011e-08
-3.28131e-14
1.19631e-13
-3.05723e-13
8.27668e-13
-3.3413e-12
1.42324e-11
-2.37215e-11
-1.63889e-10
9.87007e-10
1.47873e-11
-7.16612e-09
1.83385e-08
4.28045e-08
-1.76145e-07
-2.24956e-07
9.23847e-07
1.19299e-06
-3.08996e-06
-5.29224e-06
2.2471e-05
8.19931e-05
-0.00028287
-0.00173718
-0.00272101
0.00215049
0.0223359
0.0645632
0.1277
0.200141
0.263611
0.300622
0.303206
0.278444
0.231444
0.174367
0.11876
0.0724123
0.038674
0.0172853
0.0057939
0.000980286
1.46011e-06
-1.53119e-06
-2.92386e-06
-2.72446e-06
-1.37552e-06
-3.71907e-07
-4.58422e-08
7.73967e-08
3.83134e-08
-2.97274e-13
3.56221e-13
1.73671e-12
-1.387e-11
3.27838e-11
4.533e-11
-4.038e-10
1.03349e-10
4.56514e-09
-1.63725e-08
-2.2873e-08
1.69923e-07
2.96487e-08
-1.26349e-06
-1.75591e-07
5.07009e-06
5.52659e-08
-3.54521e-05
2.93362e-05
0.000414069
0.000444181
-0.00179621
-0.00695959
-0.00964796
0.0020571
0.0442123
0.127285
0.244964
0.374493
0.485077
0.548628
0.552423
0.511874
0.433873
0.336449
0.237877
0.151895
0.0859729
0.0416122
0.0159286
0.00382306
0.000151072
-1.34508e-05
-1.35738e-05
-8.31378e-06
-2.85213e-06
-5.03609e-07
5.22293e-07
4.13543e-07
9.13882e-08
3.33695e-13
-4.95414e-12
2.996e-11
-1.44722e-10
5.20966e-10
-5.48586e-10
-2.52596e-09
1.08482e-08
7.7764e-09
-1.1952e-07
1.18842e-07
6.29842e-07
-1.15655e-06
-3.6043e-06
9.13221e-06
1.71642e-05
-8.12932e-05
-0.000181769
0.00033693
0.00159386
0.00140777
-0.00403998
-0.0154203
-0.0224273
-0.00569873
0.0560858
0.17451
0.340675
0.521596
0.677263
0.772708
0.786015
0.739965
0.64227
0.512706
0.374513
0.247756
0.145911
0.0741666
0.0305168
0.00849754
0.000634382
-4.47017e-05
-3.91752e-05
-1.696e-05
-3.60481e-06
3.37323e-06
3.40682e-06
1.39284e-06
1.33024e-07
3.25633e-11
-3.66013e-11
3.77561e-11
-2.63448e-10
1.75334e-09
-5.45646e-09
-3.94962e-09
5.90877e-08
-8.94371e-08
-3.61415e-07
1.13687e-06
1.14611e-06
-8.13253e-06
1.39062e-06
6.26438e-05
1.2122e-05
-0.000367075
-0.000525399
0.00081756
0.0036296
0.00367818
-0.00483484
-0.022954
-0.0374117
-0.0239929
0.0427156
0.17376
0.354954
0.555192
0.734012
0.855935
0.892574
0.857554
0.763286
0.626725
0.47197
0.321253
0.194439
0.101748
0.0434979
0.0129642
0.00118899
-0.00011066
-8.22432e-05
-2.11927e-05
1.93311e-05
2.32311e-05
1.26162e-05
3.18049e-06
4.4501e-08
1.27432e-10
2.70896e-11
-1.02389e-09
3.75996e-09
-3.52675e-11
-2.80488e-08
6.38371e-08
1.55188e-07
-6.57941e-07
1.38352e-07
4.99855e-06
-7.60932e-06
-3.33394e-05
4.14256e-05
0.000207486
1.98152e-05
-0.000846834
-0.00125758
0.000892602
0.00563025
0.00738892
-0.00158876
-0.0235012
-0.0453971
-0.0432979
0.00373585
0.107053
0.256962
0.428325
0.591511
0.721227
0.793496
0.793288
0.733561
0.621322
0.477602
0.330438
0.202294
0.106582
0.0457196
0.0135813
0.00115835
-0.000229271
-0.000112597
6.35796e-05
0.000110904
7.8044e-05
3.12802e-05
5.23945e-06
-1.71726e-07
1.84782e-10
-3.50099e-10
-3.23614e-09
1.88884e-08
-4.56598e-08
-4.99744e-08
4.50473e-07
-5.85706e-07
-2.65668e-06
7.50376e-06
1.41251e-05
-4.05538e-05
-9.20744e-05
0.000100751
0.000462591
0.000187319
-0.00123551
-0.00233657
-0.000175128
0.00594328
0.0105225
0.00551092
-0.0130749
-0.0377066
-0.0482549
-0.0311556
0.0188136
0.0976547
0.194597
0.298203
0.398095
0.479777
0.516705
0.501166
0.440612
0.346499
0.240523
0.144341
0.0723603
0.0280383
0.00619698
-0.000615055
-0.00042803
8.23689e-05
0.000363668
0.000325316
0.000179977
5.89795e-05
6.17974e-06
-2.05536e-07
-1.09362e-09
-8.55698e-09
2.6695e-08
2.03906e-08
-3.17816e-07
5.98487e-07
1.3983e-06
-5.4433e-06
-5.70273e-06
2.76007e-05
3.49305e-05
-8.63073e-05
-0.00020121
9.12231e-05
0.000719472
0.000625391
-0.00107284
-0.00307108
-0.00220309
0.00332754
0.010311
0.0108593
0.00192569
-0.0147599
-0.0308285
-0.0369772
-0.0317672
-0.018388
0.004803
0.0407154
0.0909705
0.149457
0.196511
0.206477
0.185907
0.142008
0.089303
0.0429817
0.0121055
-0.00242514
-0.00557472
-0.00284919
-0.000544779
0.000804226
0.000977819
0.000677289
0.000313753
8.59757e-05
5.05004e-06
-3.1557e-07
-2.58182e-08
-2.49167e-09
2.21727e-07
-4.10958e-07
-8.47314e-07
3.1852e-06
2.71226e-06
-1.48955e-05
-1.37622e-05
4.96068e-05
7.73798e-05
-9.1839e-05
-0.000313347
-8.26999e-05
0.000716522
0.00107417
-0.000127173
-0.00256838
-0.00347341
-0.000769074
0.00503742
0.00995173
0.0097223
0.00461796
-0.00410829
-0.0153681
-0.0296472
-0.0457745
-0.0610544
-0.0669333
-0.0581923
-0.0359518
-0.0101749
0.000947343
-0.00341584
-0.0162831
-0.0291602
-0.0352177
-0.0318405
-0.0221903
-0.0114635
-0.00332714
0.00114003
0.00222677
0.00180098
0.00102774
0.00041249
9.40918e-05
1.93176e-06
-7.31425e-07
-8.62119e-08
2.2347e-07
4.62109e-07
-1.51304e-06
-1.52763e-06
6.6247e-06
6.19108e-06
-2.17424e-05
-2.95777e-05
4.52933e-05
0.000116663
-8.81347e-06
-0.00030213
-0.000304908
0.000273009
0.00101067
0.000823251
-0.000699889
-0.00259358
-0.00278577
-0.000702822
0.00292579
0.00641082
0.00852073
0.00867439
0.00572479
-0.00264117
-0.0171577
-0.0352546
-0.0517539
-0.0610299
-0.0621854
-0.0610753
-0.0634991
-0.0674267
-0.0690526
-0.0645825
-0.052884
-0.0363917
-0.0199257
-0.00664046
0.00131797
0.00408111
0.00359482
0.0023004
0.00115545
0.000414509
6.88303e-05
-2.52329e-06
-1.9791e-06
-1.07792e-07
4.26687e-07
6.3279e-07
-2.18345e-06
-2.63261e-06
6.77128e-06
1.09476e-05
-1.30122e-05
-3.80356e-05
-1.5067e-07
9.15485e-05
9.36414e-05
-8.53369e-05
-0.000308083
-0.000223308
0.000291738
0.000826032
0.00069417
-0.000242748
-0.00148377
-0.00220162
-0.00205137
-0.000968069
0.00139352
0.00487822
0.0083624
0.00978826
0.0078626
0.00307598
-0.00349205
-0.0106212
-0.0180812
-0.027069
-0.0362228
-0.0423153
-0.0419448
-0.0354289
-0.0239513
-0.0110101
-0.00047699
0.00551405
0.00725183
0.00603493
0.0040008
0.00218237
0.000894867
0.00023775
9.6221e-06
-8.21893e-06
-3.99789e-06
-1.06399e-07
2.4424e-07
7.18927e-07
-8.83291e-07
-2.94066e-06
6.67399e-07
8.98749e-06
7.02121e-06
-1.64756e-05
-3.58934e-05
-1.14876e-06
8.65332e-05
0.000101017
-4.86981e-05
-0.00026504
-0.000262169
6.21314e-05
0.000543753
0.000797103
0.000590938
-0.000191779
-0.00150914
-0.00281774
-0.00321527
-0.00207848
0.000604452
0.00425676
0.00784211
0.010657
0.0127738
0.0134427
0.0116101
0.00790088
0.00300976
5.39973e-05
0.000559292
0.00383525
0.0082349
0.0114884
0.0125984
0.0111239
0.00812333
0.00510823
0.00257816
0.000987722
0.000221401
-4.04326e-05
-4.24615e-05
-1.99181e-05
-4.06621e-06
-3.57056e-08
-1.52117e-07
2.78325e-07
9.5225e-07
-6.52767e-07
-4.00533e-06
-5.86239e-07
1.13213e-05
1.07273e-05
-1.75373e-05
-4.11573e-05
-7.57065e-06
7.24804e-05
0.000100537
1.41901e-05
-0.000157622
-0.000277102
-0.000200705
0.00014391
0.000644887
0.000938711
0.000697499
-0.000104153
-0.00122762
-0.00216568
-0.00252401
-0.00219186
-0.00101694
0.00104662
0.00388593
0.0068503
0.0095062
0.0109798
0.0117937
0.0126626
0.0135279
0.0140609
0.0136566
0.0120647
0.0092506
0.00590993
0.00296671
0.000923684
-0.000117013
-0.00044417
-0.000372597
-0.00020291
-7.71494e-05
-1.69384e-05
-2.60355e-08
2.6067e-08
-1.18284e-07
-1.83448e-07
5.55077e-07
1.01131e-06
-1.22461e-06
-3.77383e-06
-7.5445e-08
8.99424e-06
9.45194e-06
-7.29968e-06
-2.95837e-05
-2.68444e-05
2.13505e-05
8.93624e-05
9.47569e-05
-1.15491e-05
-0.000199683
-0.000316073
-0.000229591
8.49155e-05
0.00054271
0.000925162
0.00101662
0.000663648
-0.000165042
-0.00133662
-0.00243348
-0.00310715
-0.00316074
-0.00254639
-0.00139887
0.000205354
0.00196303
0.00328367
0.00379294
0.00331017
0.00201713
0.000302443
-0.00130931
-0.00232529
-0.00257116
-0.0022063
-0.00160491
-0.000966312
-0.000473878
-0.000184671
-4.12666e-05
2.34534e-06
2.10499e-06
3.09208e-08
2.71951e-08
-2.27775e-07
-1.93089e-07
6.63495e-07
1.01556e-06
-8.16922e-07
-3.2595e-06
-1.81475e-06
5.0674e-06
1.08213e-05
4.05436e-06
-1.71526e-05
-3.3937e-05
-1.97755e-05
3.40318e-05
9.71547e-05
0.000104089
1.49299e-05
-0.000168936
-0.000338611
-0.000343685
-0.000129822
0.000257243
0.000661621
0.000878807
0.000810739
0.00039988
-0.000370894
-0.00134677
-0.00230922
-0.00292683
-0.00319684
-0.00326904
-0.00337057
-0.00366608
-0.00421498
-0.00474121
-0.00496792
-0.00468599
-0.0039321
-0.00291208
-0.00188498
-0.000999545
-0.000421258
-0.000119983
-2.6426e-06
2.39881e-05
1.23708e-05
3.30112e-06
-6.02977e-09
1.7286e-08
4.73583e-08
-5.54592e-08
-2.68492e-07
-3.68502e-08
9.26888e-07
1.02569e-06
-1.39967e-06
-4.27512e-06
-1.99766e-06
7.05951e-06
1.43434e-05
6.32122e-06
-2.01633e-05
-4.42583e-05
-3.26704e-05
2.63866e-05
0.000102778
0.000131812
7.64511e-05
-6.11159e-05
-0.000241881
-0.000384715
-0.000373447
-0.00014655
0.000268596
0.000696803
0.00093933
0.000919218
0.000686685
0.000369461
7.5333e-06
-0.000403543
-0.000836081
-0.00123891
-0.00153599
-0.00159514
-0.00137326
-0.000948798
-0.000448718
-2.21345e-05
0.000242481
0.000331452
0.000287658
0.000195492
0.000108122
4.43174e-05
1.29826e-05
1.23713e-06
4.66122e-09
-1.622e-08
-2.50528e-08
7.23484e-08
1.23425e-07
-1.67189e-07
-5.00402e-07
9.08162e-09
1.41316e-06
1.49233e-06
-1.64719e-06
-5.76811e-06
-3.75896e-06
7.23323e-06
1.75043e-05
1.2738e-05
-1.1869e-05
-4.34085e-05
-5.42601e-05
-2.15394e-05
6.00075e-05
0.000146048
0.0001604
6.99183e-05
-9.91351e-05
-0.000252594
-0.000296913
-0.00022946
-6.76917e-05
0.000145561
0.000399861
0.000650062
0.000892948
0.00111609
0.00130392
0.00145972
0.0015858
0.00168353
0.00171187
0.00164757
0.00147266
0.0012006
0.000880631
0.000572517
0.000326069
0.000159139
6.06836e-05
1.62678e-05
1.25354e-06
-1.24328e-06
-9.7515e-10
8.8359e-09
5.41177e-09
-4.22231e-08
-3.25082e-08
1.33349e-07
1.73139e-07
-2.45136e-07
-6.65819e-07
-6.34779e-08
1.5255e-06
2.06057e-06
-5.52443e-07
-5.73211e-06
-7.16215e-06
1.18768e-06
1.73386e-05
2.41721e-05
6.41445e-06
-3.22332e-05
-6.11078e-05
-5.16019e-05
-3.36347e-07
7.00251e-05
0.000118805
0.000117386
6.15443e-05
-3.72258e-05
-0.000159706
-0.000281184
-0.000383867
-0.00043057
-0.000393357
-0.000267672
-5.97081e-05
0.000187963
0.000427775
0.000591542
0.000628621
0.00056638
0.000430864
0.000270531
0.00012802
2.98175e-05
-1.93888e-05
-3.23426e-05
-2.52747e-05
-1.44363e-05
-5.92316e-06
-1.41083e-06
8.54534e-10
-4.25739e-09
-4.34642e-09
2.00323e-08
1.73412e-08
-6.51483e-08
-7.31378e-08
1.41262e-07
3.06546e-07
-1.24593e-07
-9.08767e-07
-6.30933e-07
1.42232e-06
3.11996e-06
9.02057e-07
-5.19517e-06
-8.65478e-06
-3.28077e-06
1.00733e-05
2.03064e-05
1.71234e-05
-5.933e-07
-2.54265e-05
-4.52908e-05
-4.73756e-05
-2.60472e-05
2.60736e-05
9.23219e-05
0.000144061
0.000142046
6.78204e-05
-7.58475e-05
-0.000257282
-0.000418784
-0.000538154
-0.00060544
-0.000622751
-0.000602644
-0.0005538
-0.000493933
-0.000424515
-0.000346835
-0.000263518
-0.000182729
-0.000113816
-6.23298e-05
-2.94421e-05
-1.12976e-05
-3.01978e-06
-1.87054e-07