/*--------------------------------*- C++ -*----------------------------------*\
| =========                 |                                                 |
| \\      /  F ield         | OpenFOAM: The Open Source CFD Toolbox           |
|  \\    /   O peration     | Version:  v2006                                 |
|   \\  /    A nd           | Website:  www.openfoam.com                      |
|    \\/     M anipulation  |                                                 |
\*---------------------------------------------------------------------------*/
FoamFile
{
    version     2.0;
    format      ascii;
    class       volScalarField;
    location    "6.5";
    object      r;
}
// * * * * * * * * * * * * * * * * * * * * * * * * * * * * * * * * * * * * * //

dimensions      [1 2 0 0 0 0 0];


internalField   nonuniform List<scalar> 
350
(
3.75026e-22
7.05005e-22
1.64663e-21
3.996e-21
9.71513e-21
2.35167e-20
5.66176e-20
1.35544e-19
3.22643e-19
7.63576e-19
1.79657e-18
4.20213e-18
9.7702e-18
2.25796e-17
5.18658e-17
1.18404e-16
2.68626e-16
6.0561e-16
1.35666e-15
3.01961e-15
6.67731e-15
1.46687e-14
3.20102e-14
6.9384e-14
1.49372e-13
3.19364e-13
6.78067e-13
1.42953e-12
2.99238e-12
6.21871e-12
1.28295e-11
2.62728e-11
5.34012e-11
1.07723e-10
2.15641e-10
4.28338e-10
8.44171e-10
1.65052e-09
3.20123e-09
6.1585e-09
1.17504e-08
2.22333e-08
4.17143e-08
7.75985e-08
1.43107e-07
2.61615e-07
4.74038e-07
8.51262e-07
1.51484e-06
2.67103e-06
4.66602e-06
8.0747e-06
1.3841e-05
2.34976e-05
3.95042e-05
6.57629e-05
0.00010839
0.000176854
0.000285638
0.000456607
0.000722353
0.00113081
0.00175154
0.00268406
0.00406882
0.00610105
0.00904818
0.0132709
0.019248
0.0276047
0.0391438
0.0548777
0.0760599
0.104213
0.141148
0.188975
0.250091
0.327153
0.423025
0.540691
0.683148
0.853263
1.05361
1.2863
1.5528
1.85375
2.18883
2.55664
2.95468
3.37931
3.82586
4.28877
4.76178
5.23821
5.71123
6.17413
6.62069
7.04531
7.44335
7.81116
8.14623
8.44716
8.71363
8.94628
9.14656
9.31657
9.45885
9.57625
9.67172
9.74816
9.80834
9.85478
9.88969
9.91489
9.93185
9.94161
9.94479
9.94161
9.93185
9.91489
9.88969
9.85478
9.80834
9.74816
9.67172
9.57625
9.45885
9.31657
9.14656
8.94628
8.71363
8.44716
8.14623
7.81116
7.44335
7.04531
6.62069
6.17413
5.71123
5.23821
4.76178
4.28877
3.82586
3.37931
2.95468
2.55664
2.18883
1.85375
1.5528
1.2863
1.05361
0.853263
0.683148
0.540691
0.423025
0.327153
0.250091
0.188975
0.141148
0.104213
0.0760599
0.0548777
0.0391438
0.0276047
0.019248
0.0132709
0.00904818
0.00610105
0.00406882
0.00268406
0.00175154
0.00113081
0.000722353
0.000456607
0.000285638
0.000176854
0.00010839
6.57629e-05
3.95042e-05
2.34976e-05
1.3841e-05
8.0747e-06
4.66602e-06
2.67103e-06
1.51484e-06
8.51262e-07
4.74038e-07
2.61615e-07
1.43107e-07
7.75985e-08
4.17143e-08
2.22333e-08
1.17504e-08
6.1585e-09
3.20123e-09
1.65052e-09
8.44171e-10
4.28338e-10
2.15641e-10
1.07723e-10
5.34012e-11
2.62728e-11
1.28295e-11
6.21871e-12
2.99238e-12
1.42953e-12
6.78067e-13
3.19364e-13
1.49372e-13
6.9384e-14
3.20102e-14
1.46687e-14
6.67731e-15
3.01961e-15
1.35666e-15
6.0561e-16
2.68626e-16
1.18404e-16
5.18658e-17
2.25796e-17
9.7702e-18
4.20214e-18
1.79657e-18
7.63576e-19
3.22642e-19
1.35543e-19
5.66172e-20
2.35157e-20
9.71247e-21
3.98924e-21
1.62953e-21
6.62018e-22
2.67508e-22
1.07519e-22
4.29868e-23
1.70967e-23
6.76453e-24
2.66275e-24
1.04283e-24
4.06356e-25
1.57554e-25
6.07857e-26
2.33369e-26
8.91608e-27
3.39009e-27
1.28285e-27
4.83149e-28
1.81113e-28
6.75767e-29
2.50981e-29
9.27895e-30
3.41497e-30
1.25118e-30
4.5637e-31
1.65727e-31
5.99186e-32
2.15695e-32
7.73115e-33
2.75923e-33
9.80583e-34
3.47016e-34
1.22292e-34
4.29183e-35
1.50002e-35
5.22127e-36
1.81006e-36
6.24969e-37
2.14925e-37
7.36194e-38
2.5118e-38
8.53648e-39
2.88991e-39
9.74576e-40
3.27403e-40
1.09571e-40
3.65318e-41
1.21343e-41
4.01551e-42
1.32391e-42
4.3489e-43
1.42336e-43
4.64165e-44
1.50822e-44
4.88317e-45
1.57541e-45
5.06464e-46
1.62247e-46
5.17952e-47
1.64776e-47
5.22398e-48
1.65052e-48
5.19706e-49
1.63089e-49
5.1007e-50
1.58994e-50
4.93954e-51
1.52952e-51
4.72058e-52
1.45216e-52
4.4527e-53
1.3609e-53
4.14603e-54
1.25907e-54
3.81142e-55
1.15014e-55
3.45975e-56
1.03749e-56
3.10147e-57
9.24289e-58
2.74606e-58
8.13358e-59
2.40176e-59
7.07066e-60
2.0753e-60
6.0729e-61
1.7718e-61
5.15396e-62
1.4948e-62
4.32261e-63
1.24634e-63
3.58312e-64
1.02713e-64
2.93586e-65
8.36753e-66
2.37801e-66
6.73901e-67
1.90433e-67
5.3662e-68
1.50788e-68
4.22526e-69
1.18069e-69
3.28998e-70
9.14313e-71
2.5335e-71
7.00324e-72
1.92956e-72
5.3065e-73
1.45353e-73
3.9782e-74
1.08301e-74
2.95116e-75
7.98206e-76
2.16637e-76
5.82101e-77
1.57315e-77
4.20359e-78
1.12902e-78
3.01495e-79
8.14024e-80
2.70156e-80
)
;

boundaryField
{
    right
    {
        type            zeroGradient;
    }
    left
    {
        type            inletOutlet;
        inletValue      uniform 0;
        value           uniform 3.75026e-22;
    }
    top
    {
        type            zeroGradient;
    }
    bottom
    {
        type            zeroGradient;
    }
    empty
    {
        type            empty;
    }
}


// ************************************************************************* //
