/*--------------------------------*- C++ -*----------------------------------*\
| =========                 |                                                 |
| \\      /  F ield         | OpenFOAM: The Open Source CFD Toolbox           |
|  \\    /   O peration     | Version:  v2006                                 |
|   \\  /    A nd           | Website:  www.openfoam.com                      |
|    \\/     M anipulation  |                                                 |
\*---------------------------------------------------------------------------*/
FoamFile
{
    version     2.0;
    format      ascii;
    class       volScalarField;
    location    "0";
    object      f;
}
// * * * * * * * * * * * * * * * * * * * * * * * * * * * * * * * * * * * * * //

dimensions      [0 0 0 0 0 0 0];


internalField   nonuniform List<scalar> 
2500
(
1.05667e-16
5.76876e-17
-1.8017e-16
-1.26891e-16
-8.97904e-17
-2.42118e-16
-3.39129e-16
-3.2817e-16
-4.01414e-16
-6.95195e-16
-5.09038e-16
1.85879e-17
6.45616e-16
4.91445e-16
2.70211e-17
-3.27452e-16
-3.39446e-16
-1.01472e-16
7.47388e-17
6.88097e-17
-1.07689e-19
-2.83266e-17
-2.51516e-17
-1.44011e-17
-6.03616e-18
-1.50329e-18
3.37648e-19
7.81355e-19
6.75622e-19
4.45046e-19
2.50598e-19
1.25569e-19
5.69704e-20
2.35633e-20
8.87936e-21
3.02015e-21
9.03682e-22
2.21588e-22
3.31457e-23
-6.16503e-24
-8.44742e-24
-4.94534e-24
-2.28637e-24
-9.3129e-25
-3.48135e-25
-1.2187e-25
-4.0422e-26
-1.27993e-26
-3.88941e-27
-1.34197e-27
2.69195e-16
2.52147e-16
-2.80825e-16
-1.56256e-16
1.06285e-16
-1.95659e-16
-5.86314e-16
-2.7318e-16
-2.75948e-16
-1.5536e-15
-1.07236e-15
-9.82273e-17
2.25973e-15
1.10551e-15
1.21307e-16
-6.36089e-16
-7.28959e-16
-1.87269e-16
1.88846e-16
1.74569e-16
9.43007e-19
-5.05404e-17
-3.72623e-17
-1.76224e-17
-5.61894e-18
-2.6222e-19
1.40165e-18
1.46929e-18
1.05475e-18
6.29061e-19
3.29335e-19
1.54521e-19
6.5392e-20
2.48649e-20
8.34608e-21
2.35264e-21
4.67564e-22
-6.72904e-24
-7.1999e-23
-5.03839e-23
-2.57637e-23
-1.13346e-23
-4.52525e-24
-1.68058e-24
-5.88665e-25
-1.9618e-25
-6.2576e-26
-1.91873e-26
-5.67428e-27
-1.90577e-27
7.25138e-16
8.71344e-16
-6.69053e-16
-7.08228e-16
2.22579e-15
5.3515e-17
-2.65747e-15
-3.63672e-16
-9.77417e-15
-9.41542e-15
-3.21472e-15
2.22563e-14
1.35275e-14
2.54542e-15
-1.70041e-15
-6.19853e-15
-2.7645e-15
-4.26877e-16
7.56811e-16
6.21768e-16
-1.99094e-17
-1.40783e-16
-8.06688e-17
-3.06095e-17
-6.63535e-18
2.17375e-18
4.0567e-18
3.40609e-18
2.22742e-18
1.25134e-18
6.2332e-19
2.77956e-19
1.10622e-19
3.85802e-20
1.11805e-20
2.21552e-21
-1.05549e-22
-4.19226e-22
-2.92409e-22
-1.51882e-22
-6.81439e-23
-2.77723e-23
-1.05298e-23
-3.76458e-24
-1.28009e-24
-4.16452e-25
-1.30187e-25
-3.92368e-26
-1.14309e-26
-3.78126e-27
1.44475e-15
2.40669e-15
-1.26172e-15
-4.5656e-15
1.66477e-14
1.93544e-14
-5.04021e-15
-6.03728e-14
-9.8224e-14
-3.04684e-14
1.62429e-13
1.58994e-13
3.44512e-14
-4.24116e-14
-9.15266e-14
-3.90471e-14
-6.5866e-15
2.29631e-15
8.68442e-15
2.57226e-15
-2.55603e-16
-4.46122e-16
-1.65544e-16
-4.39535e-17
-1.79656e-18
9.8647e-18
1.02684e-17
7.42568e-18
4.49006e-18
2.38414e-18
1.12702e-18
4.73075e-19
1.73097e-19
5.2334e-20
1.07391e-20
-5.69066e-22
-2.20343e-21
-1.57738e-21
-8.40652e-22
-3.86507e-22
-1.61231e-22
-6.25066e-23
-2.28314e-23
-7.92621e-24
-2.63114e-24
-8.38853e-25
-2.57723e-25
-7.65078e-26
-2.19931e-26
-7.17611e-27
-4.64866e-17
3.73137e-15
-1.28272e-15
-1.29936e-14
3.48649e-14
1.3452e-13
3.59275e-14
-4.67305e-13
-4.29058e-13
1.21796e-12
1.80462e-12
4.35815e-13
-8.16286e-13
-1.05679e-12
-4.54726e-13
-8.12534e-14
5.4172e-14
1.49106e-13
5.18607e-14
5.98227e-15
-5.64594e-15
-1.65551e-15
-2.62524e-16
-3.04834e-17
2.22124e-17
2.96619e-17
2.35705e-17
1.52511e-17
8.61693e-18
4.33344e-18
1.93411e-18
7.51269e-19
2.41226e-19
5.35598e-20
-1.24037e-21
-1.04114e-20
-7.89415e-21
-4.36383e-21
-2.06653e-21
-8.84662e-22
-3.51169e-22
-1.31138e-22
-4.64949e-23
-1.57505e-23
-5.12147e-24
-1.60406e-24
-4.85246e-25
-1.42097e-25
-4.03539e-26
-1.30029e-26
-3.31392e-14
-6.64876e-14
7.83327e-14
6.83631e-15
-6.44069e-14
2.69483e-13
2.09237e-13
-9.56095e-13
-9.51931e-13
8.89298e-12
4.78001e-12
-3.49959e-12
-1.09172e-11
-4.78008e-12
-8.89836e-13
1.67229e-12
2.21658e-12
7.80062e-13
1.05441e-13
-1.09253e-13
-3.91737e-14
-3.32116e-15
3.80969e-17
9.2274e-17
9.1716e-17
7.33189e-17
4.95978e-17
2.9445e-17
1.56788e-17
7.47598e-18
3.12113e-18
1.08503e-18
2.70704e-19
9.38529e-21
-4.35405e-20
-3.65111e-20
-2.12188e-20
-1.04109e-20
-4.58621e-21
-1.86614e-21
-7.12657e-22
-2.58007e-22
-8.91611e-23
-2.95567e-23
-9.4337e-24
-2.90735e-24
-8.67145e-25
-2.50771e-25
-7.04251e-26
-2.24329e-26
-9.75503e-14
-3.86637e-13
6.24952e-13
1.97593e-12
-6.98993e-13
-3.3675e-12
6.99584e-12
2.90948e-11
7.00764e-11
2.19922e-11
-1.67377e-11
-8.78819e-11
-3.13631e-11
-8.74389e-12
3.58878e-11
3.01162e-11
1.03883e-11
1.49683e-12
-1.75713e-12
-7.5583e-13
-8.31701e-14
2.18247e-15
9.97249e-16
3.91058e-16
2.32402e-16
1.55646e-16
9.58433e-17
5.32107e-17
2.69085e-17
1.21707e-17
4.67036e-18
1.34571e-18
1.44336e-19
-1.54467e-19
-1.54818e-19
-9.64614e-20
-4.942e-20
-2.24736e-20
-9.38222e-21
-3.66303e-21
-1.35295e-21
-4.76424e-22
-1.60829e-22
-5.22579e-23
-1.63939e-23
-4.97729e-24
-1.46522e-24
-4.18879e-25
-1.16441e-25
-3.67052e-26
5.32743e-14
-5.42309e-13
1.7506e-12
9.66441e-12
4.35694e-13
-4.81533e-11
1.04794e-10
5.85073e-10
4.33787e-10
-3.0556e-10
-8.55694e-10
-3.88681e-10
8.82496e-11
5.1876e-10
3.35657e-10
1.18591e-10
1.92389e-11
-2.56516e-11
-1.23936e-11
-1.79143e-12
2.73968e-14
1.49277e-14
2.99238e-15
7.02149e-16
4.29251e-16
2.9106e-16
1.70783e-16
8.95415e-17
4.33162e-17
1.86034e-17
6.3358e-18
1.18588e-18
-4.03471e-19
-5.90768e-19
-4.08335e-19
-2.21102e-19
-1.0425e-19
-4.4689e-20
-1.78191e-20
-6.70157e-21
-2.3992e-21
-8.22876e-22
-2.71632e-22
-8.6592e-23
-2.67255e-23
-8.00146e-24
-2.32735e-24
-6.58464e-25
-1.8139e-25
-5.66595e-26
5.60449e-12
7.73997e-12
4.56306e-12
2.11911e-11
7.34697e-12
-1.52099e-10
3.33035e-10
2.08989e-09
1.02585e-09
-4.61752e-09
-3.83884e-09
-7.10284e-10
4.23897e-09
2.97332e-09
1.06295e-09
2.04102e-10
-3.32543e-10
-1.84563e-10
-3.17607e-11
-2.47894e-13
1.94833e-13
5.30877e-14
3.92167e-15
5.67542e-16
6.58387e-16
5.12263e-16
2.84447e-16
1.3913e-16
6.50355e-17
2.67263e-17
7.47791e-18
-1.74107e-19
-1.92606e-18
-1.59242e-18
-9.32047e-19
-4.59081e-19
-2.02294e-19
-8.22148e-20
-3.13741e-20
-1.13726e-20
-3.9467e-21
-1.31854e-21
-4.25739e-22
-1.33234e-22
-4.04932e-23
-1.19697e-23
-3.44491e-24
-9.66089e-25
-2.64167e-25
-8.19246e-26
2.27258e-11
2.82184e-11
8.8324e-12
2.4958e-11
1.48384e-11
-3.67636e-10
4.20352e-10
3.66489e-09
-1.32868e-08
-1.77099e-08
-7.84722e-09
2.5996e-08
1.89938e-08
5.94769e-09
1.6554e-09
-4.85371e-09
-2.77538e-09
-4.98766e-10
-1.27488e-11
2.58527e-12
7.55904e-13
5.36401e-14
-1.15381e-15
2.74956e-16
1.15199e-15
9.57436e-16
4.45411e-16
1.94024e-16
9.06163e-17
3.69934e-17
6.99334e-18
-4.36201e-18
-5.53108e-18
-3.68825e-18
-1.92789e-18
-8.75446e-19
-3.61441e-19
-1.3912e-19
-5.07015e-20
-1.7676e-20
-5.93658e-21
-1.93019e-21
-6.09583e-22
-1.87414e-22
-5.6172e-23
-1.64268e-23
-4.68921e-24
-1.30697e-24
-3.55715e-25
-1.09869e-25
4.74985e-11
-5.59308e-10
-1.23347e-08
-1.97874e-08
-2.1171e-08
-3.61562e-08
-7.71202e-08
-1.51636e-07
-1.13125e-07
-3.36458e-08
1.34839e-07
1.52163e-07
3.83706e-08
-3.89196e-08
-8.93424e-08
-4.62121e-08
-8.56846e-09
-2.41237e-10
2.84404e-11
9.75465e-12
8.33688e-13
-1.80438e-14
-5.67995e-15
-1.34664e-16
4.55885e-15
2.1433e-15
6.06241e-16
2.19016e-16
1.17689e-16
5.42788e-17
3.64863e-18
-1.48594e-17
-1.34353e-17
-7.77235e-18
-3.66365e-18
-1.52838e-18
-5.8717e-19
-2.12488e-19
-7.3475e-20
-2.45093e-20
-7.93871e-21
-2.50786e-21
-7.74794e-22
-2.34445e-22
-6.9517e-23
-2.01965e-23
-5.74602e-24
-1.59982e-24
-4.35612e-25
-1.34751e-25
-2.52734e-09
-2.4193e-08
-8.9767e-08
-1.37713e-07
-1.68097e-07
-3.99521e-07
-9.64222e-07
-1.2612e-06
-4.82249e-07
7.58719e-07
1.46107e-06
4.03e-07
-7.87352e-07
-1.15758e-06
-6.02003e-07
-1.48376e-07
-8.87278e-09
2.19648e-10
8.34745e-11
1.34204e-11
-1.21079e-13
-4.62552e-14
-1.01325e-14
5.51024e-14
2.53449e-14
4.22638e-15
4.02028e-16
1.18859e-16
1.50595e-16
1.02626e-16
-2.56609e-18
-4.01407e-17
-3.02273e-17
-1.51917e-17
-6.34858e-18
-2.38595e-18
-8.3704e-19
-2.8002e-19
-9.05721e-20
-2.85971e-20
-8.87301e-21
-2.71699e-21
-8.22765e-22
-2.4644e-22
-7.29187e-23
-2.12671e-23
-6.09853e-24
-1.71527e-24
-4.7221e-25
-1.47889e-25
-2.14321e-08
-9.53247e-08
-2.59644e-07
-3.88933e-07
-5.0232e-07
-1.31568e-06
-3.22042e-06
-3.75944e-06
-1.03022e-06
4.11841e-06
5.00306e-06
-7.23034e-07
-7.31518e-06
-4.75548e-06
-1.62362e-06
-2.32404e-07
1.3466e-09
4.09528e-10
8.94182e-11
1.46913e-11
4.44899e-15
-8.98825e-14
1.17818e-12
4.6926e-13
6.03128e-14
1.28879e-15
-1.08665e-15
-2.72259e-16
2.27611e-16
2.8152e-16
-6.42511e-18
-1.05453e-16
-6.58187e-17
-2.73394e-17
-9.63264e-18
-3.10642e-18
-9.48823e-19
-2.80294e-19
-8.13775e-20
-2.35395e-20
-6.86072e-21
-2.0292e-21
-6.09923e-22
-1.85491e-22
-5.66109e-23
-1.71764e-23
-5.13775e-24
-1.50528e-24
-4.30082e-25
-1.39721e-25
-5.38191e-08
-2.01256e-07
-4.67362e-07
-6.89314e-07
-9.53269e-07
-2.59931e-06
-6.22866e-06
-7.08087e-06
-1.13133e-06
1.17696e-05
9.09361e-06
-3.49265e-05
-2.58813e-05
-9.56014e-06
-2.35392e-06
-1.73057e-07
1.86442e-10
1.77565e-10
1.15391e-10
2.77887e-11
3.5746e-13
1.50763e-11
1.37921e-11
1.40749e-12
-6.67393e-16
-1.30393e-14
-5.43316e-15
-8.34581e-16
1.01343e-15
1.13886e-15
1.42938e-17
-3.08243e-16
-1.41323e-16
-4.26222e-17
-1.10738e-17
-2.57959e-18
-5.35848e-19
-9.532e-20
-1.27671e-20
-5.68886e-22
3.19066e-22
9.99019e-23
-5.88501e-24
-2.08019e-23
-1.33549e-23
-6.21779e-24
-2.45785e-24
-8.7228e-25
-2.85541e-25
-1.03578e-25
-7.30837e-08
-2.50734e-07
-5.32701e-07
-7.78731e-07
-1.14189e-06
-3.15507e-06
-7.21008e-06
-9.53087e-06
3.57841e-05
2.50855e-05
-0.000143355
-0.000192193
-4.77102e-05
3.46168e-07
7.3187e-05
7.18243e-05
2.88582e-05
1.54128e-07
1.37389e-09
1.22751e-11
3.0137e-11
2.62508e-10
4.63232e-11
-2.35284e-13
-1.18427e-13
-5.37471e-14
-1.06644e-14
6.40705e-15
1.84452e-14
5.45566e-15
-5.38356e-16
-1.27284e-15
-2.85225e-16
-4.23599e-17
-2.42068e-18
1.70509e-18
1.05136e-18
4.24558e-19
1.46088e-19
4.58254e-20
1.34352e-20
3.71442e-21
9.68664e-22
2.36696e-22
5.3344e-23
1.07143e-23
1.75279e-24
1.53242e-25
-4.08105e-26
-3.81519e-26
9.80658e-07
5.06014e-06
3.47957e-05
6.5069e-05
7.01315e-05
0.000136063
0.000349454
0.000602692
0.000408583
-0.000424424
-0.00120844
-0.000507383
0.00218737
0.00724661
0.0117297
0.0127641
0.0108293
0.00714675
0.00356164
0.00121681
0.000180883
8.22406e-09
-3.69669e-12
-9.7828e-13
-3.61456e-13
-9.32613e-14
1.10543e-13
2.77859e-13
1.06616e-13
1.07091e-14
-2.59725e-14
-6.40356e-15
-2.9775e-16
6.07966e-17
3.56899e-17
1.33186e-17
4.31417e-18
1.29915e-18
3.73773e-19
1.0418e-19
2.83311e-20
7.53738e-21
1.96101e-21
4.97579e-22
1.22581e-22
2.91449e-23
6.63752e-24
1.43384e-24
2.89747e-25
5.86039e-26
2.68993e-05
9.35596e-05
0.000327278
0.000626243
0.00099252
0.00196437
0.00344492
0.00377797
0.00149283
-0.00253796
-0.00414118
0.000851414
0.0167221
0.0396036
0.0592514
0.0650259
0.0577043
0.0413136
0.0232533
0.009624
0.00232711
7.98335e-05
6.91123e-11
-8.14303e-13
-6.22936e-13
2.67245e-12
3.6092e-12
1.43334e-12
2.25884e-13
-4.59406e-13
-1.51049e-13
-1.14688e-14
1.57589e-15
4.81945e-16
1.18501e-16
3.07256e-17
7.94755e-18
2.02236e-18
5.09125e-19
1.28248e-19
3.26942e-20
8.49944e-21
2.25582e-21
6.07765e-22
1.64521e-22
4.42409e-23
1.17036e-23
3.02523e-24
7.61275e-25
2.13816e-25
0.000108208
0.000347268
0.00105807
0.00203693
0.00355979
0.00700896
0.0112063
0.0109622
0.00315136
-0.00753565
-0.00914447
0.00888885
0.0516873
0.109794
0.159789
0.176193
0.159095
0.117182
0.0685772
0.0300563
0.00819977
0.000524955
5.35665e-10
2.44471e-11
3.87802e-11
3.90333e-11
1.69209e-11
2.97361e-12
-6.67406e-12
-2.64091e-12
-2.70579e-13
2.43859e-14
8.57217e-15
9.64804e-16
1.46759e-16
3.07419e-17
6.2657e-18
1.19526e-18
2.16396e-19
4.06597e-20
9.68748e-21
3.23598e-21
1.27344e-21
4.97886e-22
1.82321e-22
6.20169e-23
1.97018e-23
5.89145e-24
1.67071e-24
5.25692e-25
0.000258567
0.000804042
0.00230954
0.00447238
0.00814765
0.0159495
0.0244328
0.0226581
0.0049542
-0.015817
-0.0150505
0.0254897
0.111131
0.223176
0.320154
0.354786
0.324239
0.243141
0.145618
0.0658678
0.0190622
0.00154921
1.10266e-09
3.24375e-10
2.71831e-10
1.50254e-10
3.44839e-11
-8.93096e-11
-4.25979e-11
-5.29667e-12
3.04115e-13
1.49018e-13
2.08928e-14
1.11392e-17
-5.20409e-17
-2.16342e-17
-7.9122e-18
-2.58548e-18
-7.53418e-19
-1.93877e-19
-4.23347e-20
-6.76728e-21
-1.23359e-22
5.06861e-22
2.9028e-22
1.17746e-22
4.08567e-23
1.28529e-23
3.76393e-24
1.21324e-24
0.00046249
0.00141297
0.00393568
0.00764884
0.0142025
0.0277027
0.0415165
0.0370062
0.00592694
-0.0264895
-0.0206108
0.0505283
0.18956
0.367285
0.522798
0.582898
0.538347
0.409491
0.249524
0.115403
0.0347182
0.00325356
9.22326e-10
1.12907e-09
9.00348e-10
2.96726e-10
-1.04668e-09
-6.01229e-10
-1.02242e-10
2.32345e-12
2.02748e-12
4.4402e-13
1.55018e-14
-1.39434e-15
-4.23158e-16
-1.10156e-16
-2.96458e-17
-7.77002e-18
-1.91211e-18
-4.24271e-19
-7.77535e-20
-8.09083e-21
1.91203e-21
1.70933e-21
7.81052e-22
2.89123e-22
9.52775e-23
2.89845e-23
8.29014e-24
2.61979e-24
0.00066006
0.00199899
0.00548668
0.0106537
0.0198978
0.0387534
0.0574121
0.049655
0.00538653
-0.0374656
-0.024527
0.0777707
0.268127
0.508331
0.721756
0.81084
0.756429
0.582497
0.359973
0.169352
0.0524038
0.00541135
4.52793e-09
1.85427e-09
1.88165e-09
-1.40615e-08
-8.86193e-09
-1.64054e-09
-2.0863e-11
2.38224e-11
7.55111e-12
5.80801e-13
-2.0458e-14
-5.96328e-15
-7.18632e-16
-1.42159e-16
-3.54071e-17
-8.4141e-18
-1.74668e-18
-2.62263e-19
3.54129e-21
2.50711e-20
1.39951e-20
5.78418e-21
2.0749e-21
6.79654e-22
2.08004e-22
6.02307e-23
1.66335e-23
5.10489e-24
0.00076554
0.00231913
0.00634212
0.012247
0.0227766
0.0443612
0.0655222
0.0556129
0.00313178
-0.0455763
-0.0266492
0.0965192
0.319986
0.601693
0.857279
0.972027
0.915603
0.712535
0.445315
0.212212
0.0669898
0.00738475
1.70273e-08
-1.3801e-07
-2.49489e-07
-1.44104e-07
-2.93462e-08
-9.12393e-10
2.64189e-10
1.02589e-10
9.78443e-12
-2.48832e-13
-9.17386e-14
-9.68296e-15
-7.94629e-17
-1.89054e-17
-2.80883e-18
1.16243e-18
1.19696e-18
6.5959e-19
2.9294e-19
1.15084e-19
4.15016e-20
1.39968e-20
4.46264e-21
1.3544e-21
3.93178e-22
1.09574e-22
2.94041e-23
8.80372e-24
0.000724183
0.00222213
0.00613034
0.0116759
0.0212122
0.0413765
0.0617742
0.0518829
-8.46275e-05
-0.0479246
-0.0276824
0.0976969
0.324777
0.614562
0.884538
1.01471
0.964856
0.75736
0.477175
0.229279
0.0732168
0.00836006
-2.34416e-06
-2.91651e-06
-1.77204e-06
-5.09908e-07
-3.62573e-08
2.31314e-09
1.16842e-09
1.92233e-10
-2.05472e-12
-9.79369e-13
-2.02043e-13
-4.71083e-15
4.4863e-16
1.72721e-16
5.75406e-17
1.9284e-17
6.57417e-18
2.25443e-18
7.65688e-19
2.5443e-19
8.20996e-20
2.56286e-20
7.7278e-21
2.25022e-21
6.33033e-22
1.722e-22
4.53457e-23
1.33533e-23
0.000474598
0.00151761
0.00436212
0.0080314
0.0135835
0.0266328
0.0417164
0.0356647
-0.00313076
-0.0423658
-0.0286262
0.0722656
0.265607
0.52506
0.77829
0.910787
0.87624
0.693583
0.43955
0.212054
0.0679339
0.00780547
-1.32661e-05
-1.20951e-05
-5.42453e-06
-9.70671e-07
1.28922e-08
9.6968e-09
2.81649e-09
1.82676e-10
-6.92722e-12
-2.90338e-12
-3.04234e-13
4.94963e-15
1.74883e-15
4.0905e-16
1.16877e-16
3.65283e-17
1.17441e-17
3.81169e-18
1.23257e-18
3.92866e-19
1.22488e-19
3.71802e-20
1.09593e-20
3.13325e-21
8.68605e-22
2.33547e-22
6.09445e-23
1.781e-23
0.000135238
0.00051831
0.00178609
0.00297075
0.00354278
0.00715906
0.0145831
0.0144735
-0.00388498
-0.0287381
-0.0283674
0.026439
0.155308
0.348887
0.55072
0.664139
0.645559
0.512524
0.323916
0.154986
0.0487051
0.00521436
-4.19497e-05
-3.17267e-05
-1.05501e-05
-1.01496e-06
5.28972e-08
2.73919e-08
4.4925e-09
-6.80018e-11
-3.44548e-11
-6.03224e-12
2.92312e-14
2.06008e-14
3.52508e-15
4.43345e-16
1.23469e-16
3.98913e-17
1.31672e-17
4.35891e-18
1.42843e-18
4.58865e-19
1.43615e-19
4.36521e-20
1.28677e-20
3.67745e-21
1.01919e-21
2.74095e-22
7.1592e-23
2.09675e-23
-0.000123709
-0.000292052
-0.000407663
-0.00109974
-0.00392346
-0.00758602
-0.00706419
-0.00224027
-0.00122163
-0.0115299
-0.0256181
-0.0173446
0.0422755
0.158762
0.29193
0.370873
0.363273
0.285891
0.176704
0.0814121
0.0236997
0.00182229
-0.000118816
-5.68341e-05
-1.20044e-05
4.87118e-08
1.89667e-07
5.19377e-08
2.10722e-09
-2.94636e-10
-8.54728e-11
-6.13678e-12
2.38662e-13
5.97298e-14
3.66712e-15
9.33057e-17
5.17082e-17
2.28711e-17
9.05145e-18
3.37786e-18
1.20146e-18
4.08552e-19
1.33136e-19
4.16805e-20
1.25663e-20
3.6565e-21
1.02886e-21
2.80447e-22
7.41779e-23
2.20329e-23
-0.000199869
-0.000595952
-0.00138508
-0.00265088
-0.00596825
-0.0120006
-0.0152335
-0.00901672
0.00247269
0.00214499
-0.0180198
-0.0394705
-0.0314464
0.0175159
0.0834269
0.12359
0.121314
0.0902547
0.0498342
0.0185455
0.00283933
-0.000823153
-0.000294728
-5.3067e-05
-8.89643e-07
1.30203e-06
4.76433e-07
4.9762e-08
-3.43862e-09
-1.05896e-09
-8.4235e-11
3.69785e-12
9.77044e-13
5.96742e-14
-1.13892e-15
-2.58697e-16
-4.57633e-17
-4.51265e-18
1.56181e-18
1.35355e-18
6.59294e-19
2.65412e-19
9.61354e-20
3.23754e-20
1.03034e-20
3.1281e-21
9.11542e-22
2.56073e-22
6.95821e-23
2.12649e-23
-0.000117813
-0.000428635
-0.00116946
-0.00194586
-0.00346012
-0.00744972
-0.0110697
-0.00722388
0.00422849
0.00846797
-0.00678764
-0.0353063
-0.0521982
-0.0483946
-0.0340476
-0.0251497
-0.025286
-0.0267846
-0.0239034
-0.0163425
-0.00774376
-0.00213527
-0.000243904
1.21761e-05
8.43195e-06
3.18816e-06
4.31372e-07
-2.83201e-08
-1.00762e-08
-1.0323e-09
3.78181e-11
1.18825e-11
9.22535e-13
-1.80449e-14
-4.26591e-15
-5.09653e-16
-1.0321e-16
-2.27185e-17
-4.19199e-18
-4.14469e-19
1.34131e-19
1.15017e-19
5.46915e-20
2.1406e-20
7.5211e-21
2.45423e-21
7.56665e-22
2.22665e-22
6.29591e-23
2.00278e-23
1.15452e-05
-5.0758e-05
-0.000339021
-0.00031925
0.000293618
4.91235e-05
-0.00174408
-0.00172391
0.00322807
0.00798909
0.00338715
-0.0130032
-0.0344719
-0.0530146
-0.0667259
-0.0742317
-0.0730276
-0.0617001
-0.0426726
-0.0228923
-0.00866334
-0.00188758
4.99674e-06
2.80991e-05
1.32792e-05
2.5033e-06
-9.0324e-08
-4.68067e-08
-9.29295e-09
1.64648e-10
9.45242e-11
1.57947e-11
-1.96726e-13
-6.78013e-14
-7.00852e-15
-2.17066e-16
-6.84221e-17
-1.95141e-17
-4.59379e-18
-8.3149e-19
-5.16201e-20
4.94076e-20
3.43405e-20
1.56678e-20
6.03204e-21
2.09879e-21
6.7974e-22
2.08188e-22
6.08851e-23
2.00235e-23
6.93835e-05
0.000173877
0.000266375
0.000559925
0.00186449
0.00375627
0.00379701
0.00150572
0.000281888
0.00331485
0.0077833
0.006201
-0.00609285
-0.0270179
-0.0476397
-0.0578462
-0.0555371
-0.0433591
-0.0270119
-0.0127872
-0.00416261
-0.000483334
5.77212e-05
3.01558e-05
6.81725e-06
-1.89977e-07
-8.11051e-08
-2.79605e-08
-3.39022e-09
4.30626e-10
1.46208e-10
1.38588e-11
-6.1084e-13
-1.55427e-13
-7.89056e-15
1.1956e-16
2.57088e-17
4.09549e-18
8.04455e-19
3.53248e-19
2.0354e-19
1.04451e-19
4.65911e-20
1.85837e-20
6.79246e-21
2.31471e-21
7.44401e-22
2.27887e-22
6.6831e-23
2.20896e-23
4.00639e-05
0.000157794
0.000305993
0.000353447
0.000910541
0.00255127
0.00338931
0.0012901
-0.00182016
-0.000679951
0.00591358
0.0110121
0.00827611
-0.00144069
-0.010932
-0.0139897
-0.0112482
-0.00607011
-0.00171184
0.000329816
0.000728577
0.000354857
7.77353e-05
6.21441e-07
-4.54505e-06
-1.34284e-06
-1.17608e-07
3.91634e-09
3.62459e-09
9.98056e-10
9.0512e-11
-7.87156e-12
-2.11569e-12
-1.12121e-13
3.50748e-15
6.98506e-16
1.26503e-16
2.88677e-17
7.35778e-18
2.09842e-18
6.68119e-19
2.28366e-19
7.97359e-20
2.74635e-20
9.1695e-21
2.94863e-21
9.12274e-22
2.7188e-22
7.81997e-23
2.54227e-23
-1.70476e-05
1.53529e-05
2.4651e-05
-0.000308782
-0.000764339
-0.00052166
-5.33596e-06
-0.000603427
-0.00193849
-0.00161437
0.00122999
0.00441724
0.00645073
0.00879032
0.0140507
0.0194734
0.0215541
0.0190931
0.0131308
0.00684351
0.00249282
0.000436553
-4.31364e-05
-2.96633e-05
-9.22829e-06
-1.0232e-06
7.59161e-08
3.83793e-08
7.07799e-09
-9.61987e-11
-7.39061e-11
-1.70359e-11
-8.3884e-13
5.83201e-14
1.23656e-14
7.53535e-16
1.10786e-16
3.03568e-17
8.97296e-18
2.83002e-18
9.35783e-19
3.16126e-19
1.06541e-19
3.52388e-20
1.13342e-20
3.53052e-21
1.0637e-21
3.10051e-22
8.75095e-23
2.79169e-23
-3.64722e-05
-6.8256e-05
-0.000181599
-0.000592589
-0.00129044
-0.00183089
-0.00189639
-0.00147645
-0.000664139
-0.000305188
-0.00148132
-0.0033088
-0.00170885
0.00651294
0.018544
0.0277116
0.0283172
0.022595
0.0137614
0.00612286
0.00162579
3.21997e-05
-6.47166e-05
-3.52146e-05
-8.31821e-06
-1.18763e-07
1.1988e-07
4.51319e-08
2.8262e-09
-4.65674e-10
-1.59672e-10
-1.09334e-11
6.60027e-13
1.71304e-13
8.9338e-15
-7.46193e-17
-2.85193e-18
6.77264e-18
4.34579e-18
1.99109e-18
8.02381e-19
3.00246e-19
1.06295e-19
3.58891e-20
1.16084e-20
3.6082e-21
1.08042e-21
3.12304e-22
8.72973e-23
2.75059e-23
-1.87892e-05
-4.88833e-05
-0.000167593
-0.000399471
-0.000691121
-0.00105577
-0.00137343
-0.00102051
0.000281402
0.00097661
-0.00109399
-0.00486182
-0.0054296
7.87051e-05
0.00943948
0.0159759
0.0160136
0.0117197
0.00606301
0.00193276
8.27834e-05
-0.000181265
-9.79603e-05
-2.30754e-05
-3.42281e-07
4.59796e-07
1.90483e-07
2.11424e-08
-3.50705e-09
-1.19084e-09
-1.0544e-10
6.52466e-12
1.76757e-12
1.05301e-13
-2.48069e-15
-4.91879e-16
-8.74315e-17
-1.52745e-17
-1.52712e-18
4.61419e-19
4.09352e-19
1.98943e-19
7.97637e-20
2.87864e-20
9.66513e-21
3.06737e-21
9.2834e-22
2.69406e-22
7.52421e-23
2.35716e-23
1.88279e-06
1.77194e-06
-4.72565e-05
-0.00010465
-3.96954e-05
5.15337e-05
-0.000106943
-0.000263047
0.000251275
0.000978891
0.000454415
-0.00163598
-0.00338745
-0.00307081
-0.00114975
0.000315765
0.000302521
-0.000420313
-0.00101633
-0.000998713
-0.000551035
-0.000203581
-3.6612e-05
5.8306e-06
2.7379e-06
7.90205e-07
9.01459e-08
-2.13983e-08
-7.86619e-09
-8.33832e-10
5.58609e-11
1.5745e-11
1.01099e-12
-3.47325e-14
-7.02369e-15
-5.59379e-16
-9.94772e-17
-2.25177e-17
-4.46372e-18
-5.84902e-19
6.16836e-20
8.84352e-20
4.56906e-20
1.8517e-20
6.62781e-21
2.18429e-21
6.75818e-22
1.98399e-22
5.56225e-23
1.73633e-23
3.79388e-06
1.51942e-05
1.6832e-05
-2.83003e-06
5.45369e-05
0.000240637
0.000300352
3.33869e-05
-0.000209643
0.000117032
0.000895411
0.00119137
0.000213026
-0.00199842
-0.00451738
-0.00600808
-0.00591048
-0.0046373
-0.0028342
-0.00127409
-0.00038837
-4.30627e-05
2.43729e-05
1.07584e-05
2.71277e-06
2.54833e-07
-9.0384e-08
-3.46753e-08
-3.91837e-09
3.75765e-10
1.07859e-10
6.78422e-12
-3.32803e-13
-7.64141e-14
-3.43868e-15
-4.63747e-17
-2.84269e-17
-1.06263e-17
-2.90541e-18
-5.73878e-19
-4.11768e-20
3.29889e-20
2.35369e-20
1.07083e-20
4.06888e-21
1.38701e-21
4.36962e-22
1.29168e-22
3.61404e-23
1.11402e-23
-3.088e-06
-1.05681e-07
9.529e-06
-2.03572e-05
-8.76814e-05
-7.53232e-05
2.82248e-05
-5.14928e-06
-0.000299707
-0.000412836
0.000191788
0.00123078
0.00147661
0.000262013
-0.00182447
-0.0032323
-0.00320067
-0.00224719
-0.00105766
-0.000258627
4.37377e-05
5.70078e-05
2.40203e-05
4.85924e-06
1.88136e-07
-2.76276e-07
-1.12561e-07
-1.33024e-08
1.85484e-09
5.82777e-10
4.07989e-11
-2.55274e-12
-6.35242e-13
-2.601e-14
6.18575e-16
1.28691e-16
2.2537e-17
3.31589e-18
4.40117e-19
1.22811e-19
7.5092e-20
4.2351e-20
1.97337e-20
7.9453e-21
2.86733e-21
9.48776e-22
2.91864e-22
8.4184e-23
2.28842e-23
6.75733e-24
-3.54864e-06
-8.34974e-06
-7.05815e-06
-1.45708e-05
-7.88569e-05
-0.000164743
-0.00013646
-7.56867e-06
-2.17597e-05
-0.000264894
-0.000378333
-3.04095e-05
0.000600763
0.00106004
0.00117912
0.00112443
0.00105007
0.0009333
0.000704052
0.000415675
0.000178048
5.15981e-05
5.76851e-06
-2.73502e-06
-1.22812e-06
-2.71028e-07
-1.68235e-08
6.44793e-09
2.19971e-09
1.92051e-10
-1.71263e-11
-4.81241e-12
-2.56654e-13
8.7459e-15
1.71564e-15
2.47293e-16
5.25841e-17
1.23197e-17
3.06446e-18
8.35591e-19
2.52866e-19
8.23515e-20
2.74769e-20
9.03521e-21
2.86421e-21
8.66078e-22
2.48597e-22
6.75591e-23
1.734e-23
4.76242e-24
1.03853e-06
-1.74926e-06
-3.00659e-06
2.09906e-05
4.41506e-05
1.34678e-05
-2.27467e-05
4.20316e-05
0.000155165
8.35481e-05
-0.000247383
-0.000528203
-0.000353426
0.000369711
0.0012875
0.0018143
0.0017726
0.00133187
0.000755877
0.000304679
7.00957e-05
-2.76499e-06
-9.33044e-06
-4.43207e-06
-9.16523e-07
7.42636e-08
3.50127e-08
5.98141e-09
3.8942e-11
-8.22066e-11
-2.62231e-11
-2.24821e-12
9.74678e-14
2.2487e-14
1.35622e-15
1.31472e-16
4.09242e-17
1.22418e-17
3.66907e-18
1.12606e-18
3.54006e-19
1.12578e-19
3.55964e-20
1.10188e-20
3.30128e-21
9.49992e-22
2.61212e-22
6.83465e-23
1.69441e-23
4.47886e-24
2.42286e-06
4.00025e-06
5.20533e-06
2.24236e-05
6.79224e-05
0.000101113
7.43274e-05
3.62754e-05
7.32763e-05
0.000152005
9.51388e-05
-0.000153099
-0.000371422
-0.000316919
-4.76872e-05
0.000195808
0.000222294
0.000115763
-4.00411e-06
-5.85453e-05
-5.11277e-05
-2.42549e-05
-6.36564e-06
-5.66165e-07
4.52184e-07
1.75721e-07
2.30976e-08
-2.28079e-09
-7.32921e-10
-8.87551e-11
1.13066e-13
7.79659e-13
1.83998e-13
9.51142e-15
-1.22631e-16
-7.6321e-18
7.48057e-18
5.00747e-18
2.24887e-18
8.78352e-19
3.19077e-19
1.10145e-19
3.63446e-20
1.14707e-20
3.45988e-21
9.96324e-22
2.73613e-22
7.15623e-23
1.77887e-23
4.75296e-24
1.40365e-07
2.1971e-06
2.32803e-06
-4.84998e-06
-2.57579e-06
2.15708e-05
2.72391e-05
-1.82102e-05
-5.03238e-05
1.47651e-05
0.000140485
0.000170392
1.90972e-05
-0.000271709
-0.000539872
-0.000665084
-0.000633899
-0.000491117
-0.000305332
-0.000147616
-5.10123e-05
-8.41303e-06
2.0455e-06
1.24808e-06
4.21031e-07
6.62092e-08
-9.90841e-09
-3.7988e-09
-5.08236e-10
4.17408e-11
1.35798e-11
1.16352e-12
-4.62946e-14
-9.25989e-15
-4.75444e-16
-6.15545e-17
-1.00523e-17
-4.48037e-19
6.89189e-19
4.62841e-19
2.13713e-19
8.42516e-20
3.00971e-20
9.98095e-21
3.10932e-21
9.15842e-22
2.56016e-22
6.80619e-23
1.72212e-23
4.72398e-24
-1.05581e-06
-1.42776e-06
-2.43784e-06
-1.32324e-05
-3.44553e-05
-4.34517e-05
-3.0584e-05
-2.39614e-05
-4.57984e-05
-5.76514e-05
-2.97063e-06
0.000100852
0.000141659
5.59434e-05
-0.000112847
-0.000238482
-0.000242554
-0.000171992
-8.22456e-05
-2.00804e-05
4.12857e-06
5.96957e-06
2.26143e-06
3.51723e-07
-5.53891e-08
-3.73793e-08
-1.04196e-08
-1.22596e-09
2.06648e-10
6.41869e-11
7.36217e-12
-3.87714e-13
-9.75029e-14
-6.71706e-15
1.41423e-17
-4.90343e-18
-2.75066e-18
-3.42213e-19
2.8962e-19
2.57868e-19
1.36675e-19
5.87145e-20
2.22152e-20
7.66876e-21
2.46e-21
7.41201e-22
2.11176e-22
5.71396e-23
1.47225e-23
4.13769e-24
-3.35762e-07
-1.26228e-06
-1.59413e-06
-9.7192e-07
-6.33499e-06
-1.78278e-05
-1.74645e-05
2.12825e-06
1.03301e-05
-1.85101e-05
-5.66975e-05
-4.59268e-05
2.56724e-05
0.000117587
0.000182161
0.000201457
0.000186811
0.000149493
9.98169e-05
5.28472e-05
2.0616e-05
4.91946e-06
1.51603e-07
-3.55437e-07
-1.81509e-07
-3.76083e-08
1.22353e-09
9.21855e-10
2.2913e-10
6.73117e-12
-2.54785e-12
-5.86699e-13
-7.51473e-15
1.20281e-15
2.08658e-16
3.63427e-17
6.86429e-18
1.56695e-18
5.31412e-19
2.32629e-19
1.03018e-19
4.22294e-20
1.58599e-20
5.50184e-21
1.78029e-21
5.41703e-22
1.55947e-22
4.2667e-23
1.113e-23
3.1812e-24
3.77919e-07
4.03463e-07
8.36998e-07
5.45585e-06
1.32413e-05
1.46563e-05
9.88256e-06
1.07088e-05
1.96291e-05
1.78767e-05
-9.14762e-06
-4.34996e-05
-4.51279e-05
-6.01983e-07
6.899e-05
0.000115836
0.000116508
8.68739e-05
4.77487e-05
1.82457e-05
3.40907e-06
-9.39974e-07
-6.26139e-07
-2.56899e-07
-5.10406e-08
8.64183e-09
3.38643e-09
6.46373e-10
-5.89086e-11
-2.4704e-11
-3.23081e-12
1.36224e-13
3.31967e-14
2.10603e-15
8.94728e-17
2.79844e-17
7.26881e-18
1.87941e-18
5.66585e-19
2.03347e-19
7.86647e-20
3.00225e-20
1.0881e-20
3.7095e-21
1.19084e-21
3.61403e-22
1.04122e-22
2.85802e-23
7.4956e-24
2.16174e-24
1.77839e-07
5.25139e-07
7.34195e-07
1.06958e-06
3.89617e-06
8.17219e-06
7.4529e-06
6.00195e-07
-1.253e-06
8.71623e-06
1.8828e-05
1.1027e-05
-1.45784e-05
-4.12878e-05
-5.56763e-05
-5.62213e-05
-5.06025e-05
-4.08907e-05
-2.84149e-05
-1.62362e-05
-7.12446e-06
-2.02005e-06
-2.14006e-07
1.33514e-07
6.81158e-08
1.3084e-08
-3.32041e-10
-3.12635e-10
-7.7597e-11
-1.32602e-12
7.40866e-13
1.60565e-13
3.10995e-15
-2.09876e-16
-3.4752e-17
-4.03366e-18
2.92149e-20
2.96895e-19
1.88241e-19
9.56777e-20
4.29475e-20
1.73902e-20
6.44489e-21
2.21369e-21
7.11909e-22
2.16048e-22
6.22391e-23
1.70955e-23
4.49183e-24
1.30065e-24
-1.22333e-07
-1.0604e-07
-2.55273e-07
-1.83901e-06
-4.2733e-06
-4.42201e-06
-2.89128e-06
-3.76317e-06
-6.69341e-06
-4.98528e-06
4.72794e-06
1.45984e-05
1.29309e-05
-3.47301e-06
-2.62197e-05
-4.08128e-05
-4.0754e-05
-3.12496e-05
-1.84284e-05
-8.01204e-06
-2.06922e-06
2.69023e-08
2.22575e-07
1.0164e-07
1.82119e-08
-3.8915e-09
-1.7145e-09
-3.08798e-10
2.38979e-11
8.2782e-12
8.08911e-13
-3.71748e-14
-7.71952e-15
-5.43719e-16
-8.72249e-17
-2.05366e-17
-5.00753e-18
-1.17413e-18
-2.36068e-19
-2.92429e-20
4.83405e-21
5.42606e-21
2.65742e-21
1.02888e-21
3.50943e-22
1.09839e-22
3.21806e-23
8.92551e-24
2.35967e-24
6.86834e-25
-5.931e-08
-1.63855e-07
-2.36597e-07
-4.26357e-07
-1.36135e-06
-2.65296e-06
-2.35884e-06
-3.91383e-07
-2.99801e-08
-2.83043e-06
-5.31608e-06
-2.56658e-06
4.97027e-06
1.22316e-05
1.56402e-05
1.52207e-05
1.32403e-05
1.05519e-05
7.45068e-06
4.39661e-06
2.01168e-06
6.00346e-07
6.75717e-08
-3.27444e-08
-1.53453e-08
-2.75003e-09
9.70425e-11
8.87411e-11
2.44036e-11
1.27997e-12
-2.3445e-13
-6.17673e-14
-3.17025e-15
-2.86307e-17
-2.46786e-17
-1.153e-17
-4.22701e-18
-1.33102e-18
-3.65175e-19
-8.58903e-20
-1.62265e-20
-1.82283e-21
2.82675e-22
2.81792e-22
1.24727e-22
4.38993e-23
1.36806e-23
3.92982e-24
1.06094e-24
3.13291e-25
3.05369e-08
2.69238e-08
6.6061e-08
5.00801e-07
1.12405e-06
1.15633e-06
7.8514e-07
1.05029e-06
1.79594e-06
1.21775e-06
-1.32562e-06
-3.7077e-06
-3.19876e-06
9.81852e-07
6.77846e-06
1.05393e-05
1.06295e-05
8.28939e-06
4.98171e-06
2.24974e-06
6.59499e-07
5.75588e-08
-4.57412e-08
-1.88084e-08
-2.58451e-09
7.66739e-10
2.60693e-10
3.47046e-11
-9.75661e-14
-8.72289e-13
-2.79819e-13
-3.33106e-14
8.92609e-16
2.16598e-16
4.05648e-17
5.01638e-18
-3.84509e-19
-5.1568e-19
-2.12946e-19
-6.44942e-20
-1.59737e-20
-3.24266e-21
-4.82022e-22
-1.6498e-23
2.38074e-23
1.26334e-23
4.60146e-24
1.42894e-24
4.0305e-25
1.22481e-25
1.19037e-08
3.2368e-08
4.97745e-08
8.74041e-08
2.93055e-07
5.45021e-07
4.69816e-07
7.65731e-08
9.9386e-10
5.78926e-07
1.09564e-06
5.18349e-07
-1.02091e-06
-2.53779e-06
-3.27273e-06