/*--------------------------------*- C++ -*----------------------------------*\
| =========                 |                                                 |
| \\      /  F ield         | OpenFOAM: The Open Source CFD Toolbox           |
|  \\    /   O peration     | Version:  v2006                                 |
|   \\  /    A nd           | Website:  www.openfoam.com                      |
|    \\/     M anipulation  |                                                 |
\*---------------------------------------------------------------------------*/
FoamFile
{
    version     2.0;
    format      ascii;
    class       volScalarField;
    location    "0";
    object      f;
}
// * * * * * * * * * * * * * * * * * * * * * * * * * * * * * * * * * * * * * //

dimensions      [0 0 0 0 0 0 0];


internalField   nonuniform List<scalar> 
2500
(
2.55574e-70
-2.8738e-56
-3.9813e-49
5.17646e-44
1.94649e-40
1.19449e-37
6.67466e-35
7.32797e-33
2.35658e-31
3.79488e-30
4.27063e-29
3.3753e-28
1.81092e-27
6.80517e-27
1.84805e-26
3.79881e-26
1.12296e-25
5.09245e-25
1.7282e-24
3.95264e-24
6.47519e-24
7.89273e-24
7.03223e-24
3.97103e-24
2.06517e-25
-2.47595e-24
-3.33647e-24
-2.83801e-24
-1.85488e-24
-9.92007e-25
-4.44778e-25
-1.67103e-25
-5.06686e-26
-1.05473e-26
7.27535e-29
1.56159e-27
1.07027e-27
5.25375e-28
2.191e-28
8.21603e-29
2.84638e-29
9.25262e-30
2.84986e-30
8.37116e-31
2.35538e-31
6.3672e-32
1.65707e-32
4.15776e-33
1.00681e-33
9.71786e-35
3.20612e-68
-1.09267e-54
-1.00824e-47
7.67913e-43
2.14241e-39
7.67386e-37
4.29661e-34
4.30581e-32
1.24567e-30
1.76778e-29
1.77707e-28
1.28685e-27
6.37481e-27
2.19594e-26
5.36662e-26
9.55357e-26
2.75834e-25
1.34781e-24
4.62397e-24
1.03734e-23
1.64829e-23
1.9393e-23
1.65514e-23
8.59917e-24
-5.79161e-25
-6.72975e-24
-8.35438e-24
-6.83483e-24
-4.3514e-24
-2.2877e-24
-1.02028e-24
-3.89189e-25
-1.25392e-25
-3.221e-26
-5.09881e-27
7.06075e-28
1.08249e-27
6.15889e-28
2.70667e-28
1.03654e-28
3.6191e-29
1.17845e-29
3.62582e-30
1.06274e-30
2.98282e-31
8.04373e-32
2.08854e-32
5.22849e-33
1.26316e-33
1.3729e-34
3.29023e-66
-3.3918e-53
-2.17268e-46
9.71382e-42
2.09299e-38
3.51293e-36
2.40768e-33
2.31559e-31
6.21403e-30
7.95892e-29
7.30022e-28
4.95352e-27
2.31645e-26
7.43504e-26
1.64613e-25
2.47986e-25
7.19344e-25
3.98346e-24
1.40857e-23
3.14737e-23
4.92291e-23
5.676e-23
4.72255e-23
2.3202e-23
-3.67168e-24
-2.10728e-23
-2.50309e-23
-2.00112e-23
-1.25271e-23
-6.5055e-24
-2.88306e-24
-1.10367e-24
-3.6375e-25
-1.00199e-25
-2.0669e-26
-1.46065e-27
1.41323e-27
1.0402e-27
4.92752e-28
1.94856e-28
6.91462e-29
2.27256e-29
7.03508e-30
2.07164e-30
5.83785e-31
1.58005e-31
4.11646e-32
1.0337e-32
2.5041e-33
2.91778e-34
3.20993e-64
-9.93793e-52
-4.48304e-45
1.18771e-40
2.04154e-37
7.6274e-36
1.25391e-32
1.20049e-30
3.01775e-29
3.49898e-28
2.92689e-27
1.86377e-26
8.2511e-26
2.45483e-25
4.81036e-25
5.51758e-25
1.65181e-24
1.13137e-23
4.18014e-23
9.33984e-23
1.44072e-22
1.63026e-22
1.32561e-22
6.19117e-23
-1.50659e-23
-6.34128e-23
-7.27418e-23
-5.69414e-23
-3.50382e-23
-1.79415e-23
-7.87541e-24
-3.00851e-24
-1.00306e-24
-2.87755e-25
-6.73306e-26
-1.03253e-26
7.64338e-28
1.50799e-27
8.25295e-28
3.44488e-28
1.2554e-28
4.19077e-29
1.3112e-29
3.8933e-30
1.10495e-30
3.00969e-31
7.88623e-32
1.99048e-32
4.84323e-33
6.0065e-34
2.94165e-62
-2.70887e-50
-8.81539e-44
1.396e-39
1.98674e-36
-8.55016e-35
5.86165e-32
5.95947e-30
1.42301e-28
1.5004e-27
1.14454e-26
6.8563e-26
2.89004e-25
7.93372e-25
1.32977e-24
8.49882e-25
2.90688e-24
3.06415e-23
1.20611e-22
2.70778e-22
4.12801e-22
4.59151e-22
3.65872e-22
1.63601e-22
-5.20925e-23
-1.8409e-22
-2.05381e-22
-1.57663e-22
-9.53218e-23
-4.80489e-23
-2.08327e-23
-7.9075e-24
-2.64687e-24
-7.77688e-25
-1.95368e-25
-3.83907e-26
-3.61864e-27
1.51409e-27
1.20908e-27
5.5924e-28
2.13441e-28
7.31601e-29
2.33056e-29
7.01706e-30
2.0149e-30
5.54439e-31
1.46581e-31
3.72847e-32
9.13193e-33
1.19892e-33
2.4802e-60
-6.70007e-49
-1.63993e-42
1.56633e-38
1.92345e-35
-1.62956e-33
2.25351e-31
2.80269e-29
6.49276e-28
6.26568e-27
4.36028e-26
2.46632e-25
9.99743e-25
2.52758e-24
3.45136e-24
-4.61883e-25
1.21273e-24
7.81834e-23
3.37556e-22
7.66021e-22
1.15694e-21
1.26703e-21
9.92313e-22
4.28702e-22
-1.62375e-22
-5.16749e-22
-5.63993e-22
-4.25134e-22
-2.5241e-22
-1.25043e-22
-5.34162e-23
-2.00737e-23
-6.70855e-24
-1.99743e-24
-5.24018e-25
-1.16483e-25
-1.91153e-26
-5.59001e-28
1.33128e-27
7.92062e-28
3.30908e-28
1.18953e-28
3.90852e-29
1.20434e-29
3.52344e-30
9.84872e-31
2.63859e-31
6.78691e-32
1.67769e-32
2.32268e-33
1.84408e-58
-1.43029e-47
-2.85202e-41
1.66226e-37
1.84397e-34
-1.83097e-32
4.82601e-31
1.22593e-28
2.85297e-27
2.54267e-26
1.61512e-25
8.67084e-25
3.43343e-24
8.02615e-24
8.37173e-24
-1.16214e-23
-2.17164e-23
1.84003e-22
9.13728e-22
2.11177e-21
3.16871e-21
3.42278e-21
2.64289e-21
1.11529e-21
-4.68183e-22
-1.40436e-21
-1.50735e-21
-1.11696e-21
-6.50796e-22
-3.16306e-22
-1.32798e-22
-4.92513e-23
-1.63614e-23
-4.90094e-24
-1.32143e-24
-3.15764e-25
-6.3667e-26
-9.014e-27
2.17544e-28
8.39607e-28
4.41348e-28
1.74853e-28
6.08124e-29
1.94908e-29
5.87556e-30
1.68189e-30
4.59346e-31
1.2e-31
3.00344e-32
4.37318e-33
1.07774e-56
-2.30392e-46
-4.53927e-40
1.64683e-36
1.74023e-33
-1.68873e-31
-2.59213e-30
4.80891e-28
1.19953e-26
9.99879e-26
5.79792e-25
2.97447e-24
1.17661e-23
2.57702e-23
1.91823e-23
-6.65019e-23
-1.44385e-22
3.82286e-22
2.3836e-21
5.66487e-21
8.47272e-21
9.04345e-21
6.90682e-21
2.88279e-21
-1.26177e-21
-3.69709e-21
-3.92234e-21
-2.86022e-21
-1.63404e-21
-7.77653e-22
-3.20044e-22
-1.1678e-22
-3.84203e-23
-1.15171e-23
-3.15966e-24
-7.90836e-25
-1.77622e-25
-3.4043e-26
-4.61421e-27
1.26314e-28
4.20927e-28
2.17488e-28
8.52122e-29
2.93302e-29
9.28495e-30
2.75503e-30
7.7319e-31
2.0625e-31
5.24551e-32
8.01934e-33
2.49395e-55
-1.17078e-45
-6.32446e-39
1.4924e-35
1.60639e-32
-1.38008e-30
-4.73926e-29
1.54218e-27
4.78257e-26
3.79689e-25
2.00618e-24
9.91995e-24
4.03695e-23
8.48396e-23
4.41741e-23
-2.87042e-22
-6.61166e-22
6.20148e-22
5.96404e-21
1.47625e-20
2.20943e-20
2.33474e-20
1.76954e-20
7.40454e-21
-3.1855e-21
-9.42735e-21
-9.93888e-21
-7.13957e-21
-3.99508e-21
-1.85748e-21
-7.47175e-22
-2.67381e-22
-8.68275e-23
-2.59423e-23
-7.19387e-24
-1.85801e-24
-4.4549e-25
-9.76508e-26
-1.87134e-26
-2.68859e-27
-3.52527e-29
1.836e-28
1.01097e-28
4.0224e-29
1.38321e-29
4.33098e-30
1.26167e-30
3.45682e-31
8.96487e-32
1.4373e-32
-5.56154e-53
9.3763e-44
-6.80766e-38
1.1929e-34
1.44111e-31
-1.02778e-29
-4.53579e-28
2.63574e-27
1.78484e-25
1.38694e-24
6.63291e-24
3.19424e-23
1.38643e-22
2.88421e-22
1.19764e-22
-1.06832e-21
-2.57764e-21
3.46168e-22
1.42196e-20
3.73025e-20
5.61288e-20
5.88389e-20
4.44e-20
1.88867e-20
-7.50025e-21
-2.32697e-20
-2.45238e-20
-1.73733e-20
-9.50897e-21
-4.30735e-21
-1.68773e-21
-5.90261e-22
-1.88581e-22
-5.59797e-23
-1.56208e-23
-4.12468e-24
-1.03199e-24
-2.43328e-25
-5.31538e-26
-1.02948e-26
-1.54148e-27
-5.55309e-29
8.49775e-29
4.89847e-29
1.94701e-29
6.58848e-30
2.01311e-30
5.69219e-31
1.50846e-31
2.53221e-32
-1.24942e-50
4.1847e-42
-2.41105e-37
7.75039e-34
1.2488e-30
-7.05371e-29
-3.54138e-27
-1.40298e-26
6.11256e-25
4.85712e-24
2.06563e-23
9.81092e-23
4.74251e-22
1.00754e-21
4.38494e-22
-3.56756e-21
-9.07849e-21
-2.97226e-21
3.19913e-20
9.11958e-20
1.38754e-19
1.446e-19
1.0898e-19
4.77636e-20
-1.62555e-20
-5.55295e-20
-5.8918e-20
-4.12132e-20
-2.20253e-20
-9.68683e-21
-3.68175e-21
-1.25332e-21
-3.92647e-22
-1.15509e-22
-3.23395e-23
-8.67699e-24
-2.23336e-24
-5.48947e-25
-1.27403e-25
-2.7268e-26
-5.09384e-27
-6.94948e-28
5.04662e-30
5.24926e-29
2.66907e-29
9.95913e-30
3.20362e-30
9.34187e-31
2.52506e-31
4.42299e-32
-1.75088e-48
5.936e-41
1.44863e-35
3.02998e-33
1.03939e-29
-4.47278e-28
-2.48997e-26
-2.02184e-25
1.86008e-24
1.63e-23
5.9102e-23
2.81308e-22
1.6001e-21
3.55872e-21
1.95736e-21
-1.081e-20
-2.95795e-20
-1.85468e-20
6.68347e-20
2.15143e-19
3.33391e-19
3.46179e-19
2.61325e-19
1.1946e-19
-3.14757e-20
-1.2786e-19
-1.37793e-19
-9.53128e-20
-4.96213e-20
-2.10953e-20
-7.73612e-21
-2.55052e-21
-7.80731e-22
-2.27175e-22
-6.37118e-23
-1.72957e-23
-4.53088e-24
-1.13658e-24
-2.69881e-25
-5.9537e-26
-1.17493e-26
-1.8722e-27
-1.39401e-28
5.88663e-29
3.94459e-29
1.58487e-29
5.26751e-30
1.56326e-30
4.26964e-31
7.74798e-32
-2.00552e-46
-4.09283e-39
5.81503e-34
-1.30231e-32
8.26614e-29
-2.60779e-27
-1.65414e-25
-1.57619e-24
4.75377e-24
5.28446e-23
1.47873e-22
7.21922e-22
5.25247e-21
1.24371e-20
8.91331e-21
-2.95685e-20
-9.00855e-20
-7.5812e-20
1.25787e-19
4.88175e-19
7.77643e-19
8.06537e-19
6.11269e-19
2.94466e-19
-5.03992e-20
-2.83224e-19
-3.13638e-19
-2.1492e-19
-1.08666e-19
-4.43924e-20
-1.55965e-20
-4.94783e-21
-1.47392e-21
-4.23743e-22
-1.19006e-22
-3.25738e-23
-8.59527e-24
-2.15711e-24
-5.07485e-25
-1.09733e-25
-2.0957e-26
-3.14738e-27
-1.72123e-28
1.25144e-28
7.42637e-29
2.87283e-29
9.35714e-30
2.74211e-30
7.42589e-31
1.37896e-31
-1.99369e-44
-4.21004e-37
1.5261e-32
-4.30949e-31
6.2511e-28
-1.37382e-26
-1.07728e-24
-9.87362e-24
9.28653e-24
1.7027e-22
2.83991e-22
1.49239e-21
1.64908e-20
4.20855e-20
3.80224e-20
-7.1225e-20
-2.57331e-19
-2.60455e-19
1.98553e-19
1.06093e-18
1.75875e-18
1.82694e-18
1.39237e-18
7.12332e-19
-4.84025e-20
-6.00859e-19
-6.94612e-19
-4.72665e-19
-2.31129e-19
-9.00043e-20
-2.99945e-20
-9.07447e-21
-2.61835e-21
-7.43996e-22
-2.09533e-22
-5.76078e-23
-1.51021e-23
-3.6901e-24
-8.21358e-25
-1.60732e-25
-2.52078e-26
-1.94248e-27
6.76543e-28
4.60436e-28
1.84239e-28
6.1425e-29
1.84585e-29
5.14602e-30
1.3484e-30
2.52073e-31
-1.73528e-42
-2.48616e-35
3.35186e-31
-5.56004e-30
4.47384e-27
-6.19509e-26
-7.09995e-24
-5.38608e-23
1.54164e-23
5.8068e-22
1.84295e-22
1.48236e-21
4.84565e-20
1.35207e-19
1.48367e-19
-1.40754e-19
-6.88284e-19
-8.03227e-19
2.00965e-19
2.196e-18
3.85246e-18
4.02025e-18
3.08235e-18
1.68258e-18
7.12622e-20
-1.21231e-18
-1.4965e-18
-1.01453e-18
-4.77029e-19
-1.75043e-19
-5.45208e-20
-1.55204e-20
-4.31328e-21
-1.21546e-21
-3.4464e-22
-9.45761e-23
-2.40355e-23
-5.41904e-24
-1.01634e-24
-1.30048e-25
4.12602e-27
1.04426e-26
4.80073e-27
1.67432e-27
5.15281e-28
1.47194e-28
3.98643e-29
1.03268e-29
2.56672e-30
4.75326e-31
-1.28583e-40
-1.18431e-33
6.62323e-30
-5.85978e-29
3.01353e-26
-1.88452e-25
-4.82231e-23
-2.62882e-22
1.01427e-22
2.28104e-21
-1.69055e-21
-6.92425e-21
1.29071e-19
4.04576e-19
5.26879e-19
-1.71209e-19
-1.71133e-18
-2.28214e-18
-1.81514e-19
4.29728e-18
8.16675e-18
8.58985e-18
6.61628e-18
3.85832e-18
6.07613e-19
-2.29892e-18
-3.13577e-18
-2.12792e-18
-9.54245e-19
-3.24324e-19
-9.21836e-20
-2.41385e-20
-6.41714e-21
-1.81324e-21
-5.2211e-22
-1.40952e-22
-3.2804e-23
-5.78247e-24
-3.93049e-25
2.40732e-25
1.50082e-25
5.79481e-26
1.85226e-26
5.31946e-27
1.42633e-27
3.64954e-28
9.02269e-29
2.16831e-29
5.07288e-30
9.20359e-31
-7.25208e-39
-4.96603e-32
1.22698e-28
-8.09606e-28
1.89223e-25
4.77137e-25
-3.35428e-22
-1.16787e-21
1.24987e-21
1.06975e-20
-1.06322e-20
-5.7684e-20
2.93021e-19
1.10142e-18
1.69698e-18
2.29994e-19
-3.89341e-18
-6.04203e-18
-1.87013e-18
7.87771e-18
1.67567e-17
1.78204e-17
1.37329e-17
8.53196e-18
2.36556e-18
-4.00761e-18
-6.38834e-18
-4.37082e-18
-1.84741e-18
-5.65882e-19
-1.40481e-19
-3.22936e-20
-8.14698e-21
-2.38878e-21
-7.11273e-22
-1.81295e-22
-3.18449e-23
-4.45974e-27
2.99436e-24
1.62947e-24
6.21561e-25
1.98865e-25
5.6815e-26
1.49811e-26
3.72595e-27
8.87962e-28
2.05103e-28
4.62541e-29
1.02198e-29
1.80868e-30
-1.41849e-37
-1.90331e-30
2.21462e-27
-1.78596e-26
1.07803e-24
1.77894e-23
-2.31912e-21
-4.91573e-21
1.1089e-20
5.69912e-20
-3.71291e-20
-2.73211e-19
4.69842e-19
2.62057e-18
4.91717e-18
2.56384e-18
-7.83909e-18
-1.49617e-17
-7.17472e-18
1.34298e-17
3.33524e-17
3.59239e-17
2.74688e-17
1.80517e-17
7.29912e-18
-6.11156e-18
-1.26406e-17
-8.82352e-18
-3.45452e-18
-9.09455e-19
-1.78466e-19
-3.11984e-20
-7.42997e-21
-2.59072e-21
-8.3188e-22
-1.71387e-22
4.77245e-24
2.4112e-23
1.38879e-23
5.62866e-24
1.89497e-24
5.62824e-25
1.52241e-25
3.82968e-26
9.10196e-27
2.07046e-27
4.55604e-28
9.77835e-29
2.05803e-29
3.55615e-30
3.83339e-35
-6.80645e-29
4.05575e-26
-4.30116e-25
4.98319e-24
2.52997e-22
-1.52877e-20
-2.19455e-20
7.37839e-20
3.21496e-19
-6.75559e-20
-1.05373e-18
-9.57776e-20
4.91273e-18
1.25903e-17
1.13697e-17
-1.28397e-17
-3.45739e-17
-2.1075e-17
2.15641e-17
6.48324e-17
7.04993e-17
5.27027e-17
3.61887e-17
1.97479e-17
-6.98696e-18
-2.42216e-17
-1.76057e-17
-6.22047e-18
-1.28e-18
-1.37185e-19
5.89095e-22
-2.12463e-22
-1.88387e-21
-7.43391e-22
-9.2435e-24
1.38313e-22
9.45918e-23
4.28381e-23
1.56802e-23
4.97416e-24
1.41694e-24
3.7056e-25
9.04019e-26
2.0839e-26
4.58935e-27
9.75052e-28
2.0152e-28
4.07785e-29
6.90344e-30
7.89705e-33
-2.30102e-27
7.76064e-25
-9.06535e-24
5.35746e-24
2.93019e-21
-9.18266e-20
-1.22094e-19
3.81505e-19
1.83982e-18
1.62322e-19
-3.91089e-18
-5.37744e-18
4.08909e-18
2.73749e-17
3.73985e-17
-1.19521e-17
-7.38212e-17
-5.20476e-17
3.5803e-17
1.24866e-16
1.35054e-16
9.63071e-17
6.78277e-17
4.85681e-17
-9.12457e-19
-4.46037e-17
-3.5022e-17
-1.0731e-17
-1.3409e-18
1.6141e-19
1.064e-19
1.93211e-20
4.30147e-23
-2.77066e-22
5.18162e-22
5.02167e-22
2.7112e-22
1.11668e-22
3.87099e-23
1.18303e-23
3.2744e-24
8.35647e-25
1.99293e-25
4.49075e-26
9.65401e-27
1.99753e-27
4.00995e-28
7.86341e-29
1.30952e-29
1.0439e-30
-7.41996e-26
1.5483e-23
-1.59949e-22
-3.81115e-22
2.9662e-20
-4.75774e-19
-8.31962e-19
1.47946e-18
1.03853e-17
2.33745e-18
-1.6998e-17
-3.47575e-17
-2.20965e-17
4.50985e-17
9.63363e-17
2.28093e-17
-1.4221e-16
-1.063e-16
7.67842e-17
2.43375e-16
2.52927e-16
1.65626e-16
1.16358e-16
1.10212e-16
2.87162e-17
-7.75091e-17
-7.03399e-17
-1.75634e-17
-5.36796e-20
1.11967e-18
3.58908e-19
5.48974e-20
1.87744e-21
6.50428e-22
1.83924e-21
1.37107e-21
6.73141e-22
2.62667e-22
8.77543e-23
2.608e-23
7.05577e-24
1.76525e-24
4.13275e-25
9.14302e-26
1.92806e-26
3.90672e-27
7.6635e-28
1.46525e-28
2.40927e-29
1.14105e-28
-2.29636e-24
3.11221e-22
-2.32199e-21
-9.77121e-21
2.54525e-19
-1.91551e-18
-5.62537e-18
3.52672e-18
5.5424e-17
1.49801e-17
-1.0045e-16
-2.1587e-16
-1.76985e-16
2.60288e-17
1.77776e-16
1.92985e-16
-2.3416e-16
-1.52205e-16
2.28311e-16
4.80682e-16
4.5827e-16
2.62458e-16
1.75439e-16
2.30703e-16
1.27148e-16
-1.21902e-16
-1.45247e-16
-2.67287e-17
5.39569e-18
3.55809e-18
8.48e-19
9.445e-20
-2.65601e-21
1.87029e-21
4.81925e-21
3.2873e-21
1.52649e-21
5.72757e-22
1.85757e-22
5.39116e-23
1.42983e-23
3.51522e-24
8.0976e-25
1.76337e-25
3.6587e-26
7.2861e-27
1.40246e-27
2.62644e-28
4.27692e-29
1.10139e-26
-6.84837e-23
6.02462e-21
-2.67044e-20
-1.98198e-19
1.68463e-18
-3.62083e-18
-3.35408e-17
-5.84137e-19
3.08327e-16
7.95478e-17
-2.7461e-15
-2.83822e-15
-1.28216e-15
-2.41986e-16
4.44093e-16
1.1636e-15
-2.94632e-16
3.74493e-17
7.1761e-16
8.29469e-16
7.4879e-16
3.69417e-16
2.11246e-16
4.33065e-16
4.28892e-16
-1.56815e-16
-3.16561e-16
-3.61293e-17
2.22471e-17
8.97535e-18
1.59674e-18
7.47637e-20
-3.08992e-20
3.06244e-21
1.1249e-20
7.28099e-21
3.23442e-21
1.17286e-21
3.70289e-22
1.05139e-22
2.73743e-23
6.62177e-24
1.50293e-24
3.22667e-25
6.60006e-26
1.29496e-26
2.45311e-27
4.51513e-28
7.29901e-29
9.63796e-25
-1.97434e-21
1.08176e-19
-2.18681e-19
-3.67057e-18
6.85551e-18
3.64438e-17
-1.02536e-15
2.73698e-16
5.41742e-15
-4.12047e-15
-2.69312e-14
-1.7797e-14
-9.90787e-15
-1.60745e-15
3.65024e-14
7.91029e-15
-4.71878e-16
5.40338e-15
1.5967e-15
-1.39117e-15
7.60799e-16
4.37564e-16
1.41424e-16
8.42484e-16
1.53247e-15
-1.16615e-16
-7.78626e-16
-3.82123e-17
6.91005e-17
1.9652e-17
2.27187e-18
-1.92775e-19
-1.18892e-19
5.24115e-21
2.4895e-20
1.52281e-20
6.47283e-21
2.26968e-21
6.97969e-22
1.94006e-22
4.96191e-23
1.18184e-23
2.64519e-24
5.60495e-25
1.13182e-25
2.19173e-26
4.09513e-27
7.42737e-28
1.19422e-28
7.77306e-23
-5.53652e-20
1.76165e-18
-6.52789e-19
-6.78802e-17
3.58435e-17
5.89912e-16
-1.69153e-14
1.92561e-13
4.11848e-14
-7.94376e-13
-8.95909e-14
2.64924e-14
-3.46076e-14
5.57438e-13
2.88353e-13
2.14744e-14
-1.69966e-14
3.89767e-14
-3.53396e-14
-8.84373e-14
-1.43056e-15
4.37803e-16
-1.58106e-16
1.0867e-14
5.90853e-15
6.91528e-17
-2.98423e-15
-1.00259e-17
1.96717e-16
3.74542e-17
1.38928e-18
-1.14573e-18
-3.21923e-19
1.63715e-20
5.35647e-20
3.03632e-20
1.22903e-20
4.16066e-21
1.24569e-21
3.38968e-22
8.51883e-23
1.99883e-23
4.4146e-24
9.23989e-25
1.84394e-25
3.52905e-26
6.5149e-27
1.16681e-27
1.86886e-28
5.90577e-21
-1.54118e-18
2.72422e-17
2.10983e-17
-2.33951e-15
4.30029e-14
-2.77779e-13
1.46427e-13
1.02316e-12
-1.03996e-11
-5.56179e-12
8.30859e-11
1.54385e-10
6.03637e-11
8.22455e-12
7.44308e-13
-7.19096e-12
-2.49122e-12
1.30051e-13
-6.59063e-12
-4.29556e-13
3.84933e-12
8.26119e-13
1.0033e-13
8.01802e-14
1.27713e-14
-4.37431e-14
-1.48746e-14
3.84988e-16
5.67753e-16
5.6285e-17
-5.53623e-18
-3.59226e-18
-6.8076e-19
6.62095e-20
1.12591e-19
5.78429e-20
2.21517e-20
7.22253e-21
2.10353e-21
5.60289e-22
1.38396e-22
3.20039e-23
6.97904e-24
1.44398e-24
2.85052e-25
5.39816e-26
9.86047e-27
1.74699e-27
2.7911e-28
4.38535e-19
-4.71029e-17
1.12e-15
-1.22133e-14
-1.68316e-14
3.63947e-13
-6.40646e-12
6.64507e-11
-1.50714e-10
-2.94779e-10
-9.17976e-12
9.0638e-10
8.3049e-10
4.83868e-10
3.81575e-11
-1.44504e-10
-2.03534e-10
-1.68886e-10
-4.26035e-10
-3.64246e-11
4.05947e-10
1.55648e-10
6.66641e-12
1.24662e-12
3.15444e-13
-1.84951e-13
-3.84902e-13
-4.13735e-14
6.59963e-15
1.76598e-15
2.65769e-17
-2.92846e-17
-8.53879e-18
-1.09181e-18
2.36412e-19
2.29258e-19
1.04949e-19
3.77953e-20
1.18413e-20
3.3525e-21
8.74119e-22
2.12301e-22
4.84134e-23
1.04313e-23
2.13518e-24
4.17334e-25
7.82871e-26
1.41682e-26
2.48711e-27
3.96839e-28
3.04245e-17
-1.09645e-15
1.58981e-14
-2.41108e-13
4.33787e-12
-3.62956e-11
1.16515e-12
3.48147e-10
-4.58681e-09
-1.40045e-09
1.7494e-08
1.94518e-08
-3.18592e-09
-5.4954e-08
-1.3298e-07
-2.94603e-08
-9.25379e-10
-7.85961e-10
-4.07063e-09
1.12019e-09
7.78253e-09
6.47463e-10
1.06949e-11
4.14997e-12
6.68316e-13
-5.17579e-12
-1.42955e-12
-3.17193e-14
3.90795e-14
4.22563e-15
-2.5822e-16
-8.80996e-17
-1.57471e-17
-9.89554e-19
7.0409e-19
4.44903e-19
1.79961e-19
6.06928e-20
1.82465e-20
5.02159e-21
1.28241e-21
3.06494e-22
6.89847e-23
1.46991e-23
2.97934e-24
5.7713e-25
1.07356e-25
1.92735e-26
3.35706e-27
5.35551e-28
4.02225e-16
-3.01678e-15
1.8051e-14
-6.28257e-13
2.72465e-11
-4.11581e-10
6.05737e-09
-1.70879e-08
-1.77646e-08
1.35359e-07
5.21142e-07
1.74566e-07
-3.82617e-06
-3.74861e-06
-1.13055e-06
-3.79717e-07
1.17853e-10
-1.02618e-09
-1.52941e-08
4.87871e-07
3.4038e-08
1.83506e-10
4.69765e-11
7.09449e-12
-4.71164e-11
-2.47299e-11
-2.39381e-12
5.0062e-13
1.4217e-13
3.50653e-15
-1.00159e-15
-1.81714e-16
-1.93594e-17
1.14305e-18
1.76449e-18
8.05922e-19
2.88128e-19
9.09046e-20
2.62343e-20
7.02653e-21
1.76011e-21
4.14552e-22
9.22139e-23
1.94541e-23
3.90871e-24
7.51159e-25
1.38703e-25
2.47297e-26
4.27961e-27
6.83297e-28
-1.86887e-13
2.77056e-12
-3.47043e-11
2.55919e-10
-1.13245e-09
3.64405e-10
3.12773e-08
-3.62675e-07
4.42593e-07
2.6817e-06
2.10748e-06
-1.91383e-05
-2.17042e-05
-1.37801e-05
-2.50665e-06
-3.65934e-06
0.000235434
0.000304306
0.000118398
6.89185e-06
5.83785e-09
-3.64554e-11
1.35176e-10
-1.3794e-10
-3.74372e-10
-6.57216e-11
3.79201e-12
2.48692e-12
2.54456e-13
-9.21357e-15
-3.02266e-15
-2.26066e-16
-2.79804e-18
7.8632e-18
3.73151e-18
1.32968e-18
4.23484e-19
1.25378e-19
3.4842e-20
9.11067e-21
2.24487e-21
5.22263e-22
1.15028e-22
2.40621e-23
4.79794e-24
9.15633e-25
1.67981e-25
2.97707e-26
5.12402e-27
8.19447e-28
-1.27817e-11
5.55502e-11
-2.47727e-10
1.6991e-09
-2.1892e-08
1.74783e-07
-4.24255e-07
-1.22908e-06
7.15826e-06
1.19008e-05
-6.97321e-05
-0.000181426
-5.46893e-05
0.000677462
0.00622778
0.0118855
0.0111762
0.00584825
0.00133902
2.28485e-05
-7.14036e-09
-1.09002e-10
3.07662e-10
-3.68138e-09
-1.36707e-09
-7.40954e-11
3.25137e-11
7.67685e-12
1.28972e-13
-4.2876e-14
-6.9018e-15
-2.72612e-17
5.44214e-17
2.11297e-17
6.58209e-18
1.93959e-18
5.58345e-19
1.5646e-19
4.21761e-20
1.08331e-20
2.63816e-21
6.08375e-22
1.32995e-22
2.76298e-23
5.47325e-24
1.0379e-24
1.89258e-25
3.33524e-26
5.71186e-27
9.15191e-28
-1.52511e-10
2.17112e-10
-3.21983e-10
1.83534e-09
-7.24795e-08
8.66049e-07
-7.29074e-06
1.21296e-05
2.84129e-05
7.83718e-06
-0.000679658
-0.000700028
0.00840768
0.037325
0.0649913
0.0704936
0.0506931
0.0226602
0.0046222
3.41119e-05
-2.66626e-10
1.7562e-09
-2.7693e-08
-1.8341e-08
-2.39329e-09
2.73489e-10
1.26218e-10
1.06192e-11
-4.14045e-13
-1.64477e-13
-8.18304e-15
4.93319e-16
1.56657e-16
3.85447e-17
9.43712e-18
2.40576e-18
6.39406e-19
1.72472e-19
4.57375e-20
1.16629e-20
2.8277e-21
6.49337e-22
1.41259e-22
2.91802e-23
5.74368e-24
1.08178e-24
1.95893e-25
3.42917e-26
5.83814e-27
9.36361e-28
-3.38494e-10
-2.92556e-10
7.00036e-09
-7.18957e-08
5.91532e-07
1.48623e-07
-2.33712e-05
0.000145916
7.16701e-05
-0.00145333
-0.00226342
0.0151006
0.0810489
0.16777
0.215903
0.19784
0.128125
0.053874
0.0105814
5.6092e-05
1.99274e-08
-3.20317e-07
-2.67783e-07
-5.35972e-08
4.33828e-10
1.35149e-09
3.0425e-10
4.31782e-12
-1.87576e-12
-3.88445e-13
-1.15822e-15
1.22555e-15
2.69136e-16
5.09169e-17
1.04691e-17
2.38788e-18
6.05665e-19
1.6255e-19
4.35281e-20
1.12098e-20
2.73249e-21
6.27781e-22
1.36087e-22
2.79271e-23
5.44876e-24
1.01568e-24
1.8188e-25
3.14849e-26
5.30623e-27
8.48702e-28
7.83407e-08
-1.33104e-07
2.91207e-07
-3.09078e-07
3.95897e-06
-3.31953e-05
4.22929e-05
0.000481801
-0.00186271
-0.00662425
0.00508252
0.0955697
0.258817
0.415261
0.463776
0.387841
0.236064
0.0957387
0.0185315
8.46612e-05
-3.17365e-06
-2.87368e-06
-1.01133e-06
-7.28053e-08
1.04602e-08
4.79445e-09
4.4346e-10
-1.44198e-11
-6.37173e-12
-4.92883e-13
9.83303e-15
3.17948e-15
3.39506e-16
4.62667e-17
7.88113e-18
1.65846e-18
4.35423e-19
1.25793e-19
3.57258e-20
9.51841e-21
2.35367e-21
5.41236e-22
1.16373e-22
2.35371e-23
4.50464e-24
8.20708e-25
1.43286e-25
2.41593e-26
3.9714e-27
6.25183e-28
5.83013e-07
-1.54191e-06
3.35607e-06
6.84325e-08
-1.7417e-05
-0.000107078
0.000649668
0.000269388
-0.00849434
-0.0116158
0.0660913
0.264448
0.535858
0.738403
0.747724
0.587469
0.340954
0.134264
0.0255916
8.81781e-05
-1.70992e-05
-1.01487e-05
-2.22581e-06
2.88643e-09
3.8303e-08
1.08505e-08
3.18076e-10
-5.15298e-11
-1.30062e-11
-3.18026e-13
3.32907e-14
5.71968e-15
2.01014e-16
1.35892e-17
1.38084e-18
4.1596e-19
2.00301e-19
7.95087e-20
2.58347e-20
7.21829e-21
1.79355e-21
4.04749e-22
8.40822e-23
1.62236e-23
2.92579e-24
4.95688e-25
7.93388e-26
1.21006e-26
1.78589e-27
2.54586e-28
-2.36669e-06
-6.01248e-06
1.9584e-05
-2.2774e-05
-0.000155866
0.000632953
0.0017433
-0.00729194
-0.0207751
0.0225335
0.191777
0.495439
0.830905
1.01362
0.966027
0.714513
0.396709
0.151383
0.0276959
2.71864e-06
-5.38523e-05
-2.31043e-05
-2.96171e-06
1.91006e-07
1.07359e-07
1.64805e-08
-3.68732e-10
-1.55363e-10
-1.47422e-11
2.93863e-13
9.76371e-14
4.97978e-15
-1.69553e-16
-3.51189e-17
-5.42625e-18
-4.83329e-19
7.71784e-20
5.69425e-20
1.96677e-20
5.27083e-21
1.20513e-21
2.4222e-22
4.29587e-23
6.58621e-24
8.11283e-25
5.74984e-26
-7.02653e-27
-4.17753e-27
-1.16068e-27
-2.49802e-28
-3.61709e-05
1.22014e-05
8.92653e-05
-0.000386845
2.55325e-05
0.00381918
-0.00183478
-0.0272596
-0.0237061
0.0912092
0.351971
0.704794
1.02265
1.13712
1.01917
0.719031
0.381443
0.136494
0.0217871
-0.000172845
-0.000131596
-3.74004e-05
-1.35033e-06
5.77848e-07
1.97012e-07
1.1423e-08
-1.10723e-09
-2.717e-10
-6.79987e-12
8.51431e-13
1.41643e-13
-2.51347e-15
-5.32406e-16
-6.00466e-17
-5.41687e-18
1.5302e-19
2.56558e-19
8.68899e-20
2.13696e-20
4.26302e-21
6.76189e-22
6.87562e-23
-3.94794e-24
-4.70126e-24
-1.68805e-24
-4.61098e-25
-1.09004e-25
-2.33255e-26
-4.61226e-27
-8.43471e-28
1.28135e-05
0.000317872
9.07982e-05
-0.00165577
0.00196572
0.00831674
-0.0130619
-0.0511858
-0.0148035
0.170801
0.476358
0.803302
1.04394
1.07269
0.900524
0.587554
0.281846
0.0868477
0.00878823
-0.000485132
-0.000243565
-3.95036e-05
2.83656e-06
1.38526e-06
2.08483e-07
-8.32478e-09
-2.8384e-09
-2.0159e-10
9.26413e-12
2.18938e-12
1.99476e-15
-1.14184e-14
-9.77002e-16
-2.48492e-17
6.17355e-18
2.81859e-18
7.58301e-19
1.62329e-19
2.84058e-20
3.65865e-21
1.24908e-22
-1.22845e-22
-5.58881e-23
-1.70601e-23
-4.38441e-24
-1.01223e-24
-2.15857e-25
-4.31328e-26
-8.14195e-27
-1.44956e-27
0.000690431
0.00108392
-0.0010931
-0.00375465
0.0060095
0.0111644
-0.0272627
-0.0688096
-0.00343287
0.209079
0.494575
0.763317
0.891588
0.855327
0.653368
0.376894
0.149916
0.0301294
-0.00190332
-0.0011666
-0.000289621
-2.34905e-06
5.92915e-06
1.71655e-06
6.13623e-08
-1.49417e-08
-3.12577e-09
4.81622e-11
2.10236e-11
1.38581e-12
-2.20368e-13
-2.88824e-14
4.54437e-16
1.18618e-16
2.86903e-17
6.47337e-18
1.3032e-18
2.25228e-19
3.02715e-20
1.78275e-21
-6.75209e-22
-3.5482e-22
-1.12978e-22
-2.97823e-23
-7.02587e-24
-1.53111e-24
-3.13198e-25
-6.06796e-26
-1.11947e-26
-1.968e-27
-0.00104071
-0.00136556
-0.00538697
-0.00502237
0.0123686
0.0137835
-0.0341723
-0.0716034
-0.00482146
0.171294
0.384631
0.567048
0.632272
0.559897
0.375314
0.172602
0.0400104
-0.00707817
-0.00469913
-0.00164923
-0.000149057
2.78486e-05
9.45857e-06
5.95129e-07
-1.34796e-07
-2.71094e-08
1.10657e-09
3.517e-10
2.85567e-11
-2.90502e-12
-5.06317e-13
4.75609e-15
9.92821e-16
1.83564e-16
3.92558e-17
7.87257e-18
1.38189e-18
1.94428e-19
1.47394e-20
-2.99905e-21
-1.89501e-21
-6.33535e-22
-1.71936e-22
-4.15347e-23
-9.25738e-24
-1.93762e-24
-3.84602e-25
-7.28191e-26
-1.31987e-26
-2.2979e-27
-0.00465337
-0.00476889
-0.0069602
0.00156676
0.0232219
0.0209785
-0.0255424
-0.0575038
-0.0247399
0.0636283
0.185746
0.302457
0.331219
0.260492
0.130487
0.023165
-0.0209881
-0.0137767
-0.00543522
-0.000741227
0.000142232
3.82948e-05
-2.71126e-08
-1.13178e-06
-2.14697e-07
1.23549e-08
5.14874e-09
4.98557e-10
-2.36007e-11
-6.02111e-12
-1.26033e-13
2.64018e-15
7.60291e-16
1.61253e-16
3.24937e-17
5.69618e-18
7.68108e-19
4.0088e-20
-2.07073e-20
-1.05548e-20
-3.40479e-21
-9.18163e-22
-2.22776e-22
-5.01604e-23
-1.06488e-23
-2.15084e-24
-4.15546e-25
-7.70482e-26
-1.37379e-26
-2.36968e-27
0.00861046
0.00912408
0.00868553
0.0162846
0.0306587
0.0262538
-0.00342904
-0.0297815
-0.0393443
-0.0286669
0.0177989
0.0716026
0.0703741
0.0228501
-0.029761
-0.0454743
-0.0280449
-0.010358
-0.00102891
0.000687859
0.00018692
-1.15761e-05
-9.7252e-06
-2.04631e-06
4.01572e-08
3.20885e-08
6.76765e-09
-2.41601e-11
-3.64992e-11
-4.68387e-12
2.53034e-14
4.93117e-15
5.47286e-16
8.76192e-17
1.313e-17
9.74674e-19
-2.91476e-19
-1.80919e-19
-6.3799e-20
-1.84067e-20
-4.73365e-21
-1.12408e-21
-2.51074e-22
-5.33265e-23
-1.08427e-23
-2.11916e-24
-3.99103e-25
-7.25247e-26
-1.27256e-26
-2.17447e-27
0.0120139
0.0118865
0.009957
0.0109229
0.0158099
0.016079
0.0109229
-0.000950213
-0.026087
-0.0451916
-0.0444687
-0.0450083
-0.0602761
-0.0762069
-0.0668203
-0.0371429
-0.00890711
0.00261612
0.00254563
0.000807665
-2.84708e-07
-4.09161e-05
-1.51447e-05
-1.08274e-06
1.2919e-07
4.04886e-08
2.58189e-09
-2.57975e-10
-5.85475e-11
-1.44043e-12
7.83648e-15
1.05335e-15
1.19957e-17
-2.15013e-17
-1.09783e-17
-4.05798e-18
-1.2822e-18
-3.63929e-19
-9.50299e-20
-2.3174e-20
-5.33604e-21
-1.17017e-21
-2.46038e-22
-4.98438e-23
-9.76136e-24
-1.85148e-24
-3.40404e-25
-6.06705e-26
-1.04796e-26
-1.77367e-27
0.00399418
0.00357358
0.00107673
-0.00199514
-0.00374853
-0.00074375
0.00774492
0.0101982
0.000504007
-0.0107893
-0.023205
-0.0423249
-0.0550782
-0.0457366
-0.0179552
0.00638929
0.01399
0.00875128
0.00284635
0.000242429
-0.000107132
-5.09262e-05
-7.59758e-06
7.70295e-07
1.95173e-07
4.08348e-09
-1.81954e-09
-3.92665e-10
1.17758e-11
1.4171e-12
9.35372e-15
-1.87628e-15
-4.36866e-16
-9.72193e-17
-2.46808e-17
-6.48427e-18
-1.68222e-18
-4.20618e-19
-1.00352e-19
-2.28141e-20
-4.95726e-21
-1.0345e-21
-2.08361e-22
-4.06722e-23
-7.71635e-24
-1.42495e-24
-2.5621e-25
-4.48308e-26
-7.6268e-27
-1.27864e-27
-0.0023236
-0.00280207
-0.00332452
-0.00467346
-0.0066639
-0.00565504
-0.000977858
0.00339646
0.00816017
0.011701
0.00707218
-0.002768
-0.000476115
0.0151939
0.0283548
0.0278857
0.0175069
0.00680744
0.00111326
-0.000218619
-0.000112613
-1.76642e-05
3.3782e-06
8.97212e-07
-1.90727e-08
-1.11019e-08
-1.24382e-09
2.2814e-10
5.10133e-11
8.16591e-13
-1.92781e-14
-3.31396e-15
-3.13408e-16
-6.97506e-17
-1.906e-17
-5.21942e-18
-1.37464e-18
-3.42859e-19
-8.06878e-20
-1.79644e-20
-3.80551e-21
-7.72284e-22
-1.51148e-22
-2.86903e-23
-5.3031e-24
-9.56693e-25
-1.68558e-25
-2.89887e-26
-4.86056e-27
-8.07373e-28
-0.00105287
-0.00104386
-0.000272242
0.000677859
0.000811407
-6.87174e-05
-0.0020786
-0.00266509
0.00133751
0.00578591
0.00497145
0.00524753
0.0132017
0.0248619
0.0259828
0.0185275
0.00869334
0.00206907
-0.000111337
-4.29575e-05
9.39539e-07
7.08988e-06
1.52589e-06
-2.19772e-07
-7.07732e-08
-6.07705e-09
9.45104e-10
2.42569e-10
6.12685e-12
-2.35813e-13
-3.15333e-14
2.89699e-16
2.16121e-17
-9.45444e-18
-6.2491e-18
-2.41062e-18
-7.50716e-19
-2.04066e-19
-5.00869e-20
-1.13333e-20
-2.40114e-21
-4.8242e-22
-9.28956e-23
-1.7292e-23
-3.13123e-24
-5.53743e-25
-9.58011e-26
-1.62138e-26
-2.68136e-27
-4.41423e-28
0.000805146
0.000931037
0.00112437
0.00146435
0.00189146
0.0017174
4.16403e-05
-0.00120202
-0.000334168
-0.00110896
-0.00542348
-0.00814006
-0.00367512
0.00346983
0.00652836
0.00503916
0.00237634
0.000605329
0.000278044
9.32005e-05
1.89539e-05
3.63739e-08
-8.52429e-07
-2.48733e-07
-1.08487e-08
3.12627e-09
6.81004e-10
-4.76871e-11
-1.24469e-11
-4.34273e-13
1.3974e-14
2.12732e-15
1.69576e-16
2.16409e-17
1.68243e-18
-3.99697e-19
-2.58189e-19
-8.83395e-20
-2.40554e-20
-5.72264e-21
-1.23893e-21
-2.50091e-22
-4.78767e-23
-8.80318e-24
-1.56925e-24
-2.72879e-25
-4.64415e-26
-7.74275e-27
-1.26358e-27
-2.06182e-28
-0.000381049
-0.00044957
-0.000812095
-0.00129166
-0.00103365
-0.000570081
-0.00110604
-0.000242211
0.00345391
0.00352196
-0.0040143
-0.0110642
-0.0104779
-0.00439629
0.00080096
0.00229586
0.00190813
0.00115319
0.000384076
4.20805e-05
-9.22428e-06
-3.71164e-06
-4.01274e-07
6.73722e-08
1.98494e-08
1.4185e-09
-2.40878e-10
-5.86692e-11
-2.64955e-12
1.17579e-13
1.98562e-14
3.99213e-16
3.60629e-17
1.08368e-17
1.99403e-18
1.58884e-19
-4.81632e-20
-2.83195e-20
-9.12956e-21
-2.34234e-21
-5.25342e-22
-1.07492e-22
-2.0585e-23
-3.75519e-24
-6.60889e-25
-1.13195e-25
-1.89658e-26
-3.11518e-27
-5.01537e-28
-8.10596e-29
8.6751e-05
-2.07619e-05
-0.000726931
-0.00111815
0.000226491
7.70346e-05
-0.00325782
-0.00243009