/*--------------------------------*- C++ -*----------------------------------*\
| =========                 |                                                 |
| \\      /  F ield         | OpenFOAM: The Open Source CFD Toolbox           |
|  \\    /   O peration     | Version:  v2006                                 |
|   \\  /    A nd           | Website:  www.openfoam.com                      |
|    \\/     M anipulation  |                                                 |
\*---------------------------------------------------------------------------*/
FoamFile
{
    version     2.0;
    format      ascii;
    class       volVectorField;
    location    "0";
    object      U;
}
// * * * * * * * * * * * * * * * * * * * * * * * * * * * * * * * * * * * * * //

dimensions      [0 1 -1 0 0 0 0];


internalField   nonuniform List<vector> 
67500
(
(-0.0288006 0.0192474 0)
(-0.0456613 0.00697606 0)
(-0.0296136 0.00837335 0)
(-0.0450864 -0.0106625 0)
(0.0222375 -0.0237653 0)
(0.167698 -0.0235538 0)
(0.279497 0.0286494 0)
(0.274852 -0.000789216 0)
(0.246417 -0.0418021 0)
(0.238524 -0.042044 0)
(0.193163 -0.0941987 0)
(0.232675 -0.072203 0)
(0.238643 -0.015519 0)
(0.207078 0.0200062 0)
(0.183503 0.00837011 0)
(0.179928 -0.013687 0)
(0.187358 -0.0197919 0)
(0.19861 -0.0145855 0)
(0.207429 -0.00768785 0)
(0.211718 -0.00313521 0)
(0.213423 -0.000923941 0)
(0.214794 -0.000268079 0)
(0.216848 -0.000576779 0)
(0.21987 -0.00129714 0)
(0.223827 -0.00201033 0)
(0.228542 -0.00260928 0)
(0.23388 -0.00317371 0)
(0.239917 -0.00374158 0)
(0.246916 -0.00429778 0)
(0.255098 -0.00481552 0)
(0.264482 -0.00525722 0)
(0.274866 -0.00556812 0)
(0.285916 -0.00571723 0)
(0.297291 -0.00572809 0)
(0.30874 -0.00566245 0)
(0.320138 -0.00558583 0)
(0.331473 -0.00554213 0)
(0.342807 -0.00554447 0)
(0.354218 -0.00557895 0)
(0.365752 -0.00562067 0)
(0.377409 -0.00565447 0)
(0.389165 -0.00568512 0)
(0.401005 -0.00572804 0)
(0.412936 -0.00579066 0)
(0.424973 -0.00585782 0)
(0.43711 -0.00590195 0)
(0.449322 -0.00592123 0)
(0.461585 -0.00591627 0)
(0.473852 -0.00588286 0)
(0.486057 -0.00582594 0)
(0.498137 -0.00575222 0)
(0.510036 -0.00566181 0)
(0.521699 -0.00554863 0)
(0.533055 -0.00540279 0)
(0.544004 -0.00521621 0)
(0.554453 -0.00500775 0)
(0.564418 -0.00484317 0)
(0.574068 -0.00476639 0)
(0.583601 -0.00475615 0)
(0.593128 -0.0047763 0)
(0.602687 -0.00480374 0)
(0.612281 -0.00482383 0)
(0.621896 -0.00483209 0)
(0.631522 -0.00483909 0)
(0.641181 -0.00485813 0)
(0.650901 -0.00488609 0)
(0.66069 -0.00490868 0)
(0.67052 -0.00491369 0)
(0.680341 -0.0048954 0)
(0.690104 -0.00485706 0)
(0.699777 -0.00480859 0)
(0.709346 -0.00475572 0)
(0.718804 -0.00469616 0)
(0.728133 -0.00462718 0)
(0.737314 -0.00455066 0)
(0.746337 -0.00447031 0)
(0.755196 -0.0043872 0)
(0.763885 -0.00430066 0)
(0.772398 -0.00421114 0)
(0.780729 -0.00411981 0)
(0.788875 -0.00402704 0)
(0.796835 -0.00393288 0)
(0.804604 -0.00383764 0)
(0.812183 -0.00374159 0)
(0.819568 -0.00364478 0)
(0.826759 -0.00354724 0)
(0.833754 -0.00344913 0)
(0.840552 -0.00335053 0)
(0.847153 -0.00325159 0)
(0.853555 -0.00315247 0)
(0.859759 -0.00305337 0)
(0.865765 -0.00295451 0)
(0.871574 -0.0028561 0)
(0.877186 -0.0027584 0)
(0.882604 -0.00266164 0)
(0.887829 -0.00256603 0)
(0.892864 -0.00247177 0)
(0.897712 -0.00237905 0)
(0.902376 -0.00228803 0)
(0.90686 -0.00219883 0)
(0.911168 -0.00211157 0)
(0.915303 -0.00202635 0)
(0.919269 -0.00194324 0)
(0.923072 -0.00186232 0)
(0.926715 -0.00178362 0)
(0.930203 -0.0017072 0)
(0.93354 -0.00163308 0)
(0.936732 -0.00156127 0)
(0.939782 -0.0014918 0)
(0.942696 -0.00142467 0)
(0.945477 -0.00135986 0)
(0.948132 -0.00129738 0)
(0.950664 -0.00123721 0)
(0.953078 -0.00117932 0)
(0.955379 -0.00112369 0)
(0.95757 -0.00107028 0)
(0.959657 -0.00101906 0)
(0.961644 -0.00096998 0)
(0.963535 -0.000922999 0)
(0.965333 -0.000878065 0)
(0.967044 -0.000835127 0)
(0.968672 -0.000794129 0)
(0.970219 -0.000755015 0)
(0.97169 -0.000717726 0)
(0.973088 -0.000682202 0)
(0.974417 -0.000648381 0)
(0.97568 -0.000616202 0)
(0.97688 -0.0005856 0)
(0.97802 -0.000556513 0)
(0.979104 -0.000528876 0)
(0.980134 -0.000502625 0)
(0.981113 -0.000477697 0)
(0.982044 -0.000454028 0)
(0.982928 -0.000431555 0)
(0.983769 -0.000410216 0)
(0.984568 -0.000389948 0)
(0.985328 -0.000370693 0)
(0.98605 -0.000352391 0)
(0.986736 -0.000334987 0)
(0.987389 -0.000318427 0)
(0.988009 -0.000302661 0)
(0.988599 -0.000287641 0)
(0.989159 -0.000273323 0)
(0.989691 -0.000259668 0)
(0.990197 -0.00024664 0)
(0.990677 -0.000234209 0)
(0.991133 -0.000222347 0)
(0.991566 -0.00021103 0)
(0.991977 -0.000200238 0)
(0.992367 -0.000189951 0)
(0.992736 -0.000180154 0)
(0.993087 -0.000170832 0)
(0.993419 -0.00016197 0)
(0.993734 -0.000153553 0)
(0.994033 -0.000145567 0)
(0.994316 -0.000137998 0)
(0.994585 -0.000130831 0)
(0.994839 -0.00012405 0)
(0.99508 -0.000117638 0)
(0.995309 -0.00011158 0)
(0.995526 -0.000105858 0)
(0.995732 -0.000100458 0)
(0.995928 -9.53608e-05 0)
(0.996114 -9.05518e-05 0)
(0.99629 -8.6015e-05 0)
(0.996457 -8.1735e-05 0)
(0.996617 -7.76969e-05 0)
(0.996768 -7.38867e-05 0)
(0.996912 -7.02905e-05 0)
(0.997049 -6.68953e-05 0)
(0.997179 -6.36884e-05 0)
(0.997303 -6.06579e-05 0)
(0.997422 -5.77924e-05 0)
(0.997534 -5.5081e-05 0)
(0.997642 -5.25133e-05 0)
(0.997744 -5.00794e-05 0)
(0.997842 -4.77703e-05 0)
(0.997935 -4.55772e-05 0)
(0.998024 -4.3492e-05 0)
(0.998109 -4.15071e-05 0)
(0.99819 -3.96156e-05 0)
(0.998268 -3.78112e-05 0)
(0.998341 -3.60879e-05 0)
(0.998412 -3.44406e-05 0)
(0.998479 -3.28643e-05 0)
(0.998543 -3.1355e-05 0)
(0.998604 -2.99086e-05 0)
(0.998663 -2.85219e-05 0)
(0.998718 -2.71918e-05 0)
(0.998772 -2.59156e-05 0)
(0.998822 -2.46909e-05 0)
(0.99887 -2.35156e-05 0)
(0.998916 -2.23877e-05 0)
(0.99896 -2.13056e-05 0)
(0.999001 -2.02675e-05 0)
(0.999041 -1.92722e-05 0)
(0.999078 -1.83183e-05 0)
(0.999114 -1.74044e-05 0)
(0.999148 -1.65296e-05 0)
(0.99918 -1.56926e-05 0)
(0.999211 -1.48924e-05 0)
(0.99924 -1.4128e-05 0)
(0.999267 -1.33983e-05 0)
(0.999293 -1.27024e-05 0)
(0.999318 -1.20393e-05 0)
(0.999341 -1.1408e-05 0)
(0.999363 -1.08076e-05 0)
(0.999385 -1.02372e-05 0)
(0.999404 -9.69578e-06 0)
(0.999423 -9.18241e-06 0)
(0.999441 -8.69615e-06 0)
(0.999458 -8.23607e-06 0)
(0.999474 -7.80126e-06 0)
(0.999489 -7.39078e-06 0)
(0.999504 -7.00374e-06 0)
(0.999517 -6.63921e-06 0)
(0.99953 -6.29631e-06 0)
(0.999542 -5.97416e-06 0)
(0.999554 -5.67189e-06 0)
(0.999565 -5.38862e-06 0)
(0.999576 -5.12352e-06 0)
(0.999585 -4.87575e-06 0)
(0.999595 -4.6445e-06 0)
(0.999604 -4.42895e-06 0)
(0.999613 -4.22832e-06 0)
(0.999621 -4.04185e-06 0)
(0.999629 -3.86876e-06 0)
(0.999636 -3.70833e-06 0)
(0.999644 -3.55984e-06 0)
(0.999651 -3.42258e-06 0)
(0.999657 -3.29588e-06 0)
(0.999664 -3.17908e-06 0)
(0.99967 -3.07154e-06 0)
(0.999676 -2.97265e-06 0)
(0.999682 -2.8818e-06 0)
(0.999688 -2.79843e-06 0)
(0.999693 -2.72199e-06 0)
(0.999699 -2.65195e-06 0)
(0.999704 -2.58781e-06 0)
(0.999709 -2.52909e-06 0)
(0.999714 -2.47532e-06 0)
(0.999719 -2.42607e-06 0)
(0.999724 -2.38093e-06 0)
(0.999728 -2.3395e-06 0)
(0.999733 -2.30141e-06 0)
(0.999737 -2.26631e-06 0)
(0.999742 -2.23385e-06 0)
(0.999746 -2.20373e-06 0)
(0.999751 -2.17565e-06 0)
(0.999755 -2.14931e-06 0)
(0.999759 -2.12445e-06 0)
(0.999764 -2.10083e-06 0)
(0.999768 -2.07819e-06 0)
(0.999772 -2.05631e-06 0)
(0.999776 -2.03497e-06 0)
(0.99978 -2.01398e-06 0)
(0.999784 -1.99313e-06 0)
(0.999788 -1.97224e-06 0)
(0.999792 -1.95114e-06 0)
(0.999796 -1.92966e-06 0)
(0.9998 -1.90766e-06 0)
(0.999803 -1.88499e-06 0)
(0.999807 -1.86152e-06 0)
(0.999811 -1.83712e-06 0)
(0.999815 -1.8117e-06 0)
(0.999818 -1.78516e-06 0)
(0.999822 -1.75742e-06 0)
(0.999825 -1.72842e-06 0)
(0.999829 -1.6981e-06 0)
(0.999832 -1.66644e-06 0)
(0.999835 -1.63343e-06 0)
(0.999839 -1.59908e-06 0)
(0.999842 -1.56343e-06 0)
(0.999845 -1.52652e-06 0)
(0.999848 -1.48845e-06 0)
(0.999851 -1.44931e-06 0)
(0.999854 -1.40923e-06 0)
(0.999856 -1.36835e-06 0)
(0.999859 -1.32686e-06 0)
(0.999862 -1.28492e-06 0)
(0.999864 -1.24275e-06 0)
(0.999867 -1.20055e-06 0)
(0.999869 -1.15852e-06 0)
(0.999871 -1.11689e-06 0)
(0.999873 -1.07586e-06 0)
(0.999876 -1.03561e-06 0)
(0.999878 -9.96328e-07 0)
(0.99988 -9.58161e-07 0)
(0.999881 -9.21244e-07 0)
(0.999883 -8.85686e-07 0)
(0.999885 -8.51574e-07 0)
(0.999887 -8.18977e-07 0)
(0.999888 -7.87949e-07 0)
(0.99989 -7.58535e-07 0)
(0.999891 -7.30781e-07 0)
(0.999893 -7.04735e-07 0)
(0.999894 -6.80454e-07 0)
(0.999895 -6.58007e-07 0)
(0.999897 -6.37475e-07 0)
(0.999898 -6.18944e-07 0)
(0.999899 -6.02493e-07 0)
(0.9999 -5.88186e-07 0)
(0.999902 -5.7605e-07 0)
(0.999903 -5.66059e-07 0)
(0.999904 -5.58113e-07 0)
(0.999905 -5.52028e-07 0)
(0.999906 -5.47525e-07 0)
(0.999907 -5.44233e-07 0)
(0.999908 -5.41704e-07 0)
(0.999909 -5.39435e-07 0)
(0.99991 -5.36908e-07 0)
(0.999911 -5.33631e-07 0)
(0.999912 -5.2919e-07 0)
(0.999914 -5.23289e-07 0)
(0.999915 -5.15791e-07 0)
(0.999916 -5.0674e-07 0)
(0.999917 -4.96367e-07 0)
(0.999918 -4.85076e-07 0)
(0.999919 -4.73409e-07 0)
(0.999919 -4.61999e-07 0)
(0.99992 -4.51511e-07 0)
(0.999921 -4.4258e-07 0)
(0.999922 -4.35756e-07 0)
(0.999923 -4.31458e-07 0)
(0.999924 -4.29944e-07 0)
(0.999925 -4.31296e-07 0)
(0.999926 -4.35422e-07 0)
(0.999927 -4.42078e-07 0)
(0.999927 -4.5089e-07 0)
(0.999928 -4.61392e-07 0)
(0.999929 -4.73063e-07 0)
(0.99993 -4.85363e-07 0)
(0.999931 -4.97763e-07 0)
(0.999932 -5.09773e-07 0)
(0.999933 -5.20962e-07 0)
(0.999934 -5.30968e-07 0)
(0.999935 -5.39508e-07 0)
(0.999936 -5.46376e-07 0)
(0.999938 -5.51441e-07 0)
(0.999939 -5.5464e-07 0)
(0.99994 -5.55971e-07 0)
(0.999941 -5.55481e-07 0)
(0.999942 -5.53258e-07 0)
(0.999943 -5.49418e-07 0)
(0.999944 -5.44101e-07 0)
(0.999945 -5.3746e-07 0)
(0.999946 -5.29654e-07 0)
(0.999947 -5.20843e-07 0)
(0.999948 -5.11184e-07 0)
(0.999949 -5.00827e-07 0)
(0.99995 -4.89913e-07 0)
(0.999951 -4.78574e-07 0)
(0.999952 -4.66926e-07 0)
(0.999953 -4.55078e-07 0)
(0.999954 -4.43122e-07 0)
(0.999955 -4.31142e-07 0)
(0.999956 -4.19208e-07 0)
(0.999957 -4.07383e-07 0)
(0.999958 -3.95716e-07 0)
(0.999958 -3.84251e-07 0)
(0.999959 -3.73022e-07 0)
(0.99996 -3.62057e-07 0)
(0.999961 -3.51377e-07 0)
(0.999961 -3.40997e-07 0)
(0.999962 -3.30929e-07 0)
(0.999963 -3.21181e-07 0)
(0.999963 -3.11756e-07 0)
(0.999964 -3.02654e-07 0)
(0.999964 -2.93874e-07 0)
(0.999965 -2.85413e-07 0)
(0.999966 -2.77266e-07 0)
(0.999966 -2.69425e-07 0)
(0.999967 -2.61883e-07 0)
(0.999967 -2.54631e-07 0)
(0.999968 -2.47662e-07 0)
(0.999968 -2.40965e-07 0)
(0.999969 -2.3453e-07 0)
(0.999969 -2.28348e-07 0)
(0.999969 -2.22409e-07 0)
(0.99997 -2.16703e-07 0)
(0.99997 -2.1122e-07 0)
(0.999971 -2.05951e-07 0)
(0.999971 -2.00886e-07 0)
(0.999972 -1.96016e-07 0)
(0.999972 -1.91333e-07 0)
(0.999972 -1.86827e-07 0)
(0.999973 -1.8249e-07 0)
(0.999973 -1.78314e-07 0)
(0.999973 -1.74292e-07 0)
(0.999974 -1.70416e-07 0)
(0.999974 -1.6668e-07 0)
(0.999974 -1.63076e-07 0)
(0.999975 -1.59597e-07 0)
(0.999975 -1.56239e-07 0)
(0.999975 -1.52994e-07 0)
(0.999976 -1.49858e-07 0)
(0.999976 -1.46824e-07 0)
(0.999976 -1.43889e-07 0)
(0.999977 -1.41046e-07 0)
(0.999977 -1.38293e-07 0)
(0.999977 -1.35623e-07 0)
(0.999977 -1.33033e-07 0)
(0.999978 -1.3052e-07 0)
(0.999978 -1.28079e-07 0)
(0.999978 -1.25707e-07 0)
(0.999978 -1.23401e-07 0)
(0.999979 -1.21157e-07 0)
(0.999979 -1.18973e-07 0)
(0.999979 -1.16845e-07 0)
(0.999979 -1.14772e-07 0)
(0.99998 -1.12749e-07 0)
(0.99998 -1.10776e-07 0)
(0.99998 -1.0885e-07 0)
(0.99998 -1.06968e-07 0)
(0.99998 -1.05128e-07 0)
(0.999981 -1.0333e-07 0)
(0.999981 -1.0157e-07 0)
(0.999981 -9.98468e-08 0)
(0.999981 -9.81592e-08 0)
(0.999981 -9.65055e-08 0)
(0.999982 -9.48842e-08 0)
(0.999982 -9.32939e-08 0)
(0.999982 -9.17332e-08 0)
(0.999982 -9.02009e-08 0)
(0.999982 -8.86958e-08 0)
(0.999983 -8.72168e-08 0)
(0.999983 -8.57628e-08 0)
(0.999983 -8.43328e-08 0)
(0.999983 -8.29258e-08 0)
(0.999983 -8.15409e-08 0)
(0.999983 -8.01773e-08 0)
(0.999984 -7.88342e-08 0)
(0.999984 -7.75106e-08 0)
(0.999984 -7.6206e-08 0)
(0.999984 -7.49196e-08 0)
(0.999984 -7.36508e-08 0)
(0.999984 -7.23988e-08 0)
(0.999984 -7.11632e-08 0)
(0.999985 -6.99432e-08 0)
(0.999985 -6.87385e-08 0)
(0.999985 -6.75483e-08 0)
(0.999985 -6.63723e-08 0)
(0.999985 -6.52101e-08 0)
(0.999985 -6.40609e-08 0)
(0.999985 -6.29251e-08 0)
(0.999986 -6.17992e-08 0)
(0.999986 -6.06956e-08 0)
(0.999986 -5.95598e-08 0)
(0.999986 -5.86228e-08 0)
(0.999986 -5.68913e-08 0)
(-0.0271066 0.0481457 0)
(-0.00943413 -0.00366358 0)
(-0.0132139 -0.0211341 0)
(-0.0639711 -0.0316714 0)
(-0.120027 -0.156605 0)
(-0.0239191 -0.29265 0)
(0.221076 -0.127224 0)
(0.410517 0.0418016 0)
(0.303195 0.0307771 0)
(0.342787 0.0714277 0)
(0.361192 0.0891316 0)
(0.264579 0.0505724 0)
(0.273736 0.0260416 0)
(0.290758 0.0254868 0)
(0.276019 0.0222209 0)
(0.251926 0.0112466 0)
(0.230016 -0.000260619 0)
(0.217127 -0.00585106 0)
(0.212981 -0.00526049 0)
(0.212858 -0.00341323 0)
(0.213332 -0.00298063 0)
(0.213466 -0.00394518 0)
(0.213983 -0.00526092 0)
(0.215834 -0.0062653 0)
(0.219126 -0.00685989 0)
(0.223452 -0.00715821 0)
(0.228785 -0.00759867 0)
(0.235599 -0.00864339 0)
(0.244333 -0.0103716 0)
(0.254948 -0.0124406 0)
(0.266929 -0.0143857 0)
(0.279546 -0.0158893 0)
(0.292159 -0.0168341 0)
(0.304389 -0.0172674 0)
(0.316137 -0.0173496 0)
(0.327488 -0.0172787 0)
(0.338603 -0.0172193 0)
(0.349629 -0.0172578 0)
(0.360651 -0.017397 0)
(0.371673 -0.017582 0)
(0.382663 -0.0177489 0)
(0.393608 -0.0178719 0)
(0.404552 -0.0179805 0)
(0.415585 -0.0181226 0)
(0.426784 -0.0182909 0)
(0.438129 -0.018417 0)
(0.449559 -0.0185358 0)
(0.461056 -0.0186302 0)
(0.472601 -0.0186282 0)
(0.484169 -0.0185068 0)
(0.495755 -0.0182835 0)
(0.507358 -0.0179733 0)
(0.518944 -0.0175663 0)
(0.53043 -0.0170238 0)
(0.541647 -0.0162975 0)
(0.552371 -0.0154432 0)
(0.562541 -0.0147479 0)
(0.572377 -0.0143971 0)
(0.582136 -0.0142912 0)
(0.591918 -0.0142959 0)
(0.601731 -0.0143417 0)
(0.611561 -0.0143829 0)
(0.621368 -0.0143985 0)
(0.63113 -0.0144219 0)
(0.640884 -0.0144986 0)
(0.650692 -0.0146114 0)
(0.660574 -0.0147071 0)
(0.670495 -0.0147428 0)
(0.680392 -0.0146967 0)
(0.690204 -0.0145795 0)
(0.699898 -0.0144303 0)
(0.709477 -0.0142717 0)
(0.718945 -0.0140936 0)
(0.728283 -0.013885 0)
(0.737467 -0.013653 0)
(0.746489 -0.0134111 0)
(0.755348 -0.013162 0)
(0.764039 -0.0129017 0)
(0.772553 -0.0126322 0)
(0.780886 -0.0123578 0)
(0.789035 -0.0120794 0)
(0.796997 -0.0117966 0)
(0.80477 -0.0115107 0)
(0.812351 -0.0112224 0)
(0.819738 -0.0109318 0)
(0.826932 -0.0106391 0)
(0.833929 -0.0103446 0)
(0.840729 -0.0100488 0)
(0.84733 -0.00975188 0)
(0.853734 -0.00945444 0)
(0.859938 -0.00915704 0)
(0.865944 -0.00886032 0)
(0.871752 -0.00856499 0)
(0.877364 -0.00827178 0)
(0.88278 -0.0079814 0)
(0.888003 -0.00769449 0)
(0.893036 -0.00741167 0)
(0.897881 -0.00713348 0)
(0.902543 -0.00686039 0)
(0.907024 -0.0065928 0)
(0.911328 -0.00633105 0)
(0.915459 -0.00607542 0)
(0.919422 -0.00582616 0)
(0.923221 -0.00558344 0)
(0.92686 -0.00534742 0)
(0.930344 -0.00511822 0)
(0.933677 -0.00489593 0)
(0.936864 -0.00468059 0)
(0.93991 -0.00447226 0)
(0.94282 -0.00427093 0)
(0.945597 -0.0040766 0)
(0.948248 -0.00388925 0)
(0.950776 -0.00370881 0)
(0.953186 -0.00353523 0)
(0.955482 -0.00336842 0)
(0.957669 -0.00320828 0)
(0.959752 -0.0030547 0)
(0.961735 -0.00290755 0)
(0.963622 -0.00276669 0)
(0.965417 -0.00263197 0)
(0.967125 -0.00250324 0)
(0.968748 -0.00238033 0)
(0.970292 -0.00226307 0)
(0.97176 -0.00215128 0)
(0.973155 -0.00204479 0)
(0.97448 -0.00194341 0)
(0.97574 -0.00184694 0)
(0.976937 -0.00175522 0)
(0.978075 -0.00166803 0)
(0.979156 -0.00158519 0)
(0.980184 -0.00150651 0)
(0.981161 -0.0014318 0)
(0.982089 -0.00136086 0)
(0.982971 -0.00129351 0)
(0.983809 -0.00122955 0)
(0.984607 -0.00116882 0)
(0.985364 -0.00111111 0)
(0.986085 -0.00105626 0)
(0.98677 -0.00100411 0)
(0.987421 -0.000954482 0)
(0.988039 -0.00090723 0)
(0.988628 -0.000862213 0)
(0.989187 -0.000819299 0)
(0.989718 -0.000778369 0)
(0.990222 -0.000739318 0)
(0.990701 -0.000702052 0)
(0.991156 -0.000666489 0)
(0.991588 -0.000632559 0)
(0.991998 -0.000600199 0)
(0.992386 -0.000569356 -1.14175e-41)
(0.992755 -0.000539981 -1.10066e-41)
(0.993105 -0.000512029 0)
(0.993436 -0.000485457 0)
(0.99375 -0.000460222 0)
(0.994048 -0.000436282 0)
(0.994331 -0.000413593 0)
(0.994598 -0.000392108 0)
(0.994852 -0.000371782 0)
(0.995093 -0.000352565 0)
(0.995321 -0.000334408 0)
(0.995537 -0.000317262 0)
(0.995743 -0.000301077 0)
(0.995938 -0.000285803 0)
(0.996123 -0.000271392 0)
(0.996299 -0.000257796 0)
(0.996466 -0.000244971 0)
(0.996624 -0.00023287 0)
(0.996775 -0.000221452 0)
(0.996919 -0.000210676 0)
(0.997055 -0.000200502 0)
(0.997185 -0.000190893 0)
(0.997309 -0.000181812 0)
(0.997427 -0.000173226 0)
(0.99754 -0.000165101 0)
(0.997647 -0.000157407 0)
(0.997749 -0.000150115 0)
(0.997847 -0.000143196 0)
(0.99794 -0.000136624 0)
(0.998028 -0.000130376 0)
(0.998113 -0.000124428 0)
(0.998194 -0.00011876 0)
(0.998271 -0.000113352 0)
(0.998345 -0.000108188 0)
(0.998415 -0.000103251 0)
(0.998482 -9.85262e-05 0)
(0.998546 -9.40019e-05 0)
(0.998607 -8.96663e-05 0)
(0.998666 -8.55092e-05 0)
(0.998721 -8.15216e-05 0)
(0.998774 -7.76954e-05 0)
(0.998824 -7.40234e-05 0)
(0.998873 -7.04994e-05 0)
(0.998918 -6.71175e-05 0)
(0.998962 -6.38725e-05 0)
(0.999003 -6.07599e-05 0)
(0.999043 -5.77752e-05 0)
(0.99908 -5.49146e-05 0)
(0.999116 -5.21744e-05 0)
(0.99915 -4.95509e-05 0)
(0.999182 -4.7041e-05 0)
(0.999212 -4.46414e-05 0)
(0.999241 -4.23491e-05 0)
(0.999269 -4.0161e-05 0)
(0.999295 -3.80743e-05 0)
(0.999319 -3.60859e-05 0)
(0.999343 -3.41931e-05 0)
(0.999365 -3.2393e-05 0)
(0.999386 -3.06826e-05 0)
(0.999405 -2.90593e-05 0)
(0.999424 -2.75201e-05 0)
(0.999442 -2.60622e-05 0)
(0.999459 -2.46829e-05 0)
(0.999475 -2.33794e-05 0)
(0.99949 -2.21489e-05 0)
(0.999504 -2.09887e-05 0)
(0.999518 -1.9896e-05 0)
(0.999531 -1.88682e-05 0)
(0.999543 -1.79026e-05 0)
(0.999555 -1.69966e-05 0)
(0.999566 -1.61477e-05 0)
(0.999576 -1.53532e-05 0)
(0.999586 -1.46107e-05 0)
(0.999595 -1.39178e-05 0)
(0.999604 -1.32719e-05 0)
(0.999613 -1.26708e-05 0)
(0.999621 -1.21121e-05 0)
(0.999629 -1.15936e-05 0)
(0.999637 -1.1113e-05 0)
(0.999644 -1.06683e-05 0)
(0.999651 -1.02572e-05 0)
(0.999658 -9.87775e-06 0)
(0.999664 -9.52798e-06 0)
(0.99967 -9.20598e-06 0)
(0.999676 -8.90989e-06 0)
(0.999682 -8.63792e-06 0)
(0.999688 -8.38837e-06 0)
(0.999693 -8.15957e-06 0)
(0.999699 -7.94996e-06 0)
(0.999704 -7.75801e-06 0)
(0.999709 -7.5823e-06 0)
(0.999714 -7.42143e-06 0)
(0.999719 -7.2741e-06 0)
(0.999724 -7.13908e-06 0)
(0.999728 -7.01516e-06 0)
(0.999733 -6.90125e-06 0)
(0.999738 -6.79627e-06 0)
(0.999742 -6.69922e-06 0)
(0.999746 -6.60916e-06 0)
(0.999751 -6.52518e-06 0)
(0.999755 -6.44644e-06 0)
(0.999759 -6.37213e-06 0)
(0.999764 -6.30149e-06 0)
(0.999768 -6.2338e-06 0)
(0.999772 -6.16838e-06 0)
(0.999776 -6.10458e-06 0)
(0.99978 -6.04178e-06 0)
(0.999784 -5.97941e-06 0)
(0.999788 -5.91692e-06 0)
(0.999792 -5.85378e-06 0)
(0.999796 -5.7895e-06 0)
(0.9998 -5.72364e-06 0)
(0.999804 -5.65576e-06 0)
(0.999807 -5.58546e-06 0)
(0.999811 -5.51239e-06 0)
(0.999815 -5.43623e-06 0)
(0.999818 -5.35669e-06 0)
(0.999822 -5.27353e-06 0)
(0.999825 -5.18655e-06 0)
(0.999829 -5.09563e-06 0)
(0.999832 -5.00066e-06 0)
(0.999835 -4.90162e-06 0)
(0.999839 -4.79854e-06 0)
(0.999842 -4.69151e-06 0)
(0.999845 -4.58072e-06 0)
(0.999848 -4.4664e-06 0)
(0.999851 -4.34885e-06 0)
(0.999854 -4.22846e-06 0)
(0.999856 -4.10567e-06 0)
(0.999859 -3.981e-06 0)
(0.999862 -3.855e-06 0)
(0.999864 -3.72828e-06 0)
(0.999867 -3.60145e-06 0)
(0.999869 -3.47518e-06 0)
(0.999871 -3.35009e-06 0)
(0.999874 -3.2268e-06 0)
(0.999876 -3.10589e-06 0)
(0.999878 -2.98789e-06 0)
(0.99988 -2.87326e-06 0)
(0.999882 -2.76239e-06 0)
(0.999883 -2.65562e-06 0)
(0.999885 -2.5532e-06 0)
(0.999887 -2.45533e-06 0)
(0.999888 -2.36217e-06 0)
(0.99989 -2.27387e-06 0)
(0.999891 -2.19055e-06 0)
(0.999893 -2.11237e-06 0)
(0.999894 -2.03949e-06 0)
(0.999895 -1.97214e-06 0)
(0.999897 -1.91054e-06 0)
(0.999898 -1.85494e-06 0)
(0.999899 -1.8056e-06 0)
(0.9999 -1.76268e-06 0)
(0.999902 -1.72626e-06 0)
(0.999903 -1.69627e-06 0)
(0.999904 -1.6724e-06 0)
(0.999905 -1.65411e-06 0)
(0.999906 -1.64057e-06 0)
(0.999907 -1.63068e-06 0)
(0.999908 -1.62309e-06 0)
(0.999909 -1.61632e-06 0)
(0.99991 -1.60882e-06 0)
(0.999911 -1.59913e-06 0)
(0.999912 -1.58602e-06 0)
(0.999914 -1.56862e-06 0)
(0.999915 -1.54653e-06 0)
(0.999916 -1.5199e-06 0)
(0.999917 -1.48944e-06 0)
(0.999918 -1.45634e-06 0)
(0.999919 -1.42221e-06 0)
(0.99992 -1.38893e-06 0)
(0.99992 -1.35845e-06 0)
(0.999921 -1.33261e-06 0)
(0.999922 -1.31303e-06 0)
(0.999923 -1.3009e-06 0)
(0.999924 -1.29697e-06 0)
(0.999925 -1.30145e-06 0)
(0.999926 -1.31406e-06 0)
(0.999926 -1.33408e-06 0)
(0.999927 -1.36039e-06 0)
(0.999928 -1.39162e-06 0)
(0.999929 -1.42625e-06 0)
(0.99993 -1.46268e-06 0)
(0.999931 -1.49936e-06 0)
(0.999932 -1.53484e-06 0)
(0.999933 -1.56785e-06 0)
(0.999934 -1.59733e-06 0)
(0.999935 -1.62242e-06 0)
(0.999936 -1.64253e-06 0)
(0.999938 -1.65727e-06 0)
(0.999939 -1.66644e-06 0)
(0.99994 -1.67004e-06 0)
(0.999941 -1.66822e-06 0)
(0.999942 -1.66123e-06 0)
(0.999943 -1.64942e-06 0)
(0.999944 -1.63321e-06 0)
(0.999945 -1.61306e-06 0)
(0.999946 -1.58943e-06 0)
(0.999947 -1.56281e-06 0)
(0.999948 -1.53367e-06 0)
(0.999949 -1.50245e-06 0)
(0.99995 -1.46959e-06 0)
(0.999951 -1.43546e-06 0)
(0.999952 -1.40042e-06 0)
(0.999953 -1.36479e-06 0)
(0.999954 -1.32886e-06 0)
(0.999955 -1.29286e-06 0)
(0.999956 -1.25702e-06 0)
(0.999957 -1.2215e-06 0)
(0.999958 -1.18648e-06 0)
(0.999958 -1.15206e-06 0)
(0.999959 -1.11836e-06 0)
(0.99996 -1.08546e-06 0)
(0.999961 -1.05341e-06 0)
(0.999961 -1.02227e-06 0)
(0.999962 -9.92074e-07 0)
(0.999963 -9.62836e-07 0)
(0.999963 -9.34569e-07 0)
(0.999964 -9.07275e-07 0)
(0.999964 -8.80949e-07 0)
(0.999965 -8.5558e-07 0)
(0.999966 -8.31152e-07 0)
(0.999966 -8.07644e-07 0)
(0.999967 -7.85035e-07 0)
(0.999967 -7.63297e-07 0)
(0.999968 -7.42405e-07 0)
(0.999968 -7.2233e-07 0)
(0.999969 -7.03043e-07 0)
(0.999969 -6.84514e-07 0)
(0.99997 -6.66712e-07 0)
(0.99997 -6.4961e-07 0)
(0.99997 -6.33177e-07 0)
(0.999971 -6.17384e-07 0)
(0.999971 -6.02204e-07 0)
(0.999972 -5.87608e-07 0)
(0.999972 -5.7357e-07 0)
(0.999972 -5.60065e-07 0)
(0.999973 -5.47067e-07 0)
(0.999973 -5.34553e-07 0)
(0.999973 -5.22499e-07 0)
(0.999974 -5.10883e-07 0)
(0.999974 -4.99684e-07 0)
(0.999974 -4.88882e-07 0)
(0.999975 -4.78457e-07 0)
(0.999975 -4.68391e-07 0)
(0.999975 -4.58666e-07 0)
(0.999976 -4.49266e-07 0)
(0.999976 -4.40174e-07 0)
(0.999976 -4.31376e-07 0)
(0.999977 -4.22857e-07 0)
(0.999977 -4.14603e-07 0)
(0.999977 -4.06601e-07 0)
(0.999977 -3.98839e-07 0)
(0.999978 -3.91306e-07 0)
(0.999978 -3.8399e-07 0)
(0.999978 -3.7688e-07 0)
(0.999978 -3.69967e-07 0)
(0.999979 -3.63242e-07 0)
(0.999979 -3.56694e-07 0)
(0.999979 -3.50317e-07 0)
(0.999979 -3.44101e-07 0)
(0.99998 -3.38039e-07 0)
(0.99998 -3.32124e-07 0)
(0.99998 -3.26349e-07 0)
(0.99998 -3.20708e-07 0)
(0.99998 -3.15194e-07 0)
(0.999981 -3.09802e-07 0)
(0.999981 -3.04526e-07 0)
(0.999981 -2.99361e-07 0)
(0.999981 -2.94302e-07 0)
(0.999981 -2.89345e-07 0)
(0.999982 -2.84484e-07 0)
(0.999982 -2.79717e-07 0)
(0.999982 -2.75038e-07 0)
(0.999982 -2.70444e-07 0)
(0.999982 -2.65932e-07 0)
(0.999983 -2.61498e-07 0)
(0.999983 -2.57138e-07 0)
(0.999983 -2.52851e-07 0)
(0.999983 -2.48633e-07 0)
(0.999983 -2.44481e-07 0)
(0.999983 -2.40393e-07 0)
(0.999984 -2.36366e-07 0)
(0.999984 -2.32398e-07 0)
(0.999984 -2.28486e-07 0)
(0.999984 -2.2463e-07 0)
(0.999984 -2.20825e-07 0)
(0.999984 -2.17072e-07 0)
(0.999984 -2.13367e-07 0)
(0.999985 -2.09709e-07 0)
(0.999985 -2.06097e-07 0)
(0.999985 -2.02529e-07 0)
(0.999985 -1.99003e-07 0)
(0.999985 -1.95518e-07 0)
(0.999985 -1.92072e-07 0)
(0.999985 -1.88667e-07 0)
(0.999986 -1.85291e-07 0)
(0.999986 -1.81982e-07 0)
(0.999986 -1.78576e-07 0)
(0.999986 -1.75767e-07 0)
(0.999986 -1.70578e-07 0)
(-0.0293506 0.0662012 0)
(0.00478899 -0.0115531 0)
(-0.0584859 0.111463 0)
(-0.223653 0.141935 0)
(-0.278054 -0.214015 0)
(-0.211263 -0.403168 0)
(-0.0659395 -0.269658 0)
(0.08108 -0.0678342 0)
(0.129563 0.0174025 0)
(0.111092 -0.0203011 0)
(0.182064 -0.0283658 0)
(0.25338 -0.021636 0)
(0.26132 -0.00380477 0)
(0.244392 0.0243866 0)
(0.226392 0.0418689 0)
(0.211931 0.035116 0)
(0.202685 0.0175776 0)
(0.19944 0.00390888 0)
(0.200019 -0.00122328 0)
(0.202001 -0.00121412 0)
(0.205807 0.000919641 0)
(0.212423 0.00162404 0)
(0.222936 -0.000843349 0)
(0.236838 -0.0052946 0)
(0.2529 -0.00975389 0)
(0.270635 -0.0136604 0)
(0.290154 -0.0175481 0)
(0.311214 -0.0217415 0)
(0.332708 -0.0257312 0)
(0.353198 -0.0286922 0)
(0.371615 -0.0301859 0)
(0.387559 -0.0303369 0)
(0.401196 -0.0296342 0)
(0.412959 -0.0286698 0)
(0.423308 -0.0278941 0)
(0.432647 -0.0275079 0)
(0.441285 -0.0274924 0)
(0.449368 -0.0276882 0)
(0.456894 -0.0279073 0)
(0.463822 -0.0280517 0)
(0.470173 -0.0281622 0)
(0.476038 -0.0283454 0)
(0.481593 -0.0286781 0)
(0.48708 -0.0291321 0)
(0.492664 -0.0294708 0)
(0.498243 -0.0294044 0)
(0.503618 -0.0292734 0)
(0.50876 -0.0291873 0)
(0.513724 -0.0290868 0)
(0.5186 -0.0289709 0)
(0.523587 -0.0288285 0)
(0.52894 -0.0286166 0)
(0.534884 -0.0282835 0)
(0.541546 -0.027761 0)
(0.548833 -0.0269026 0)
(0.556335 -0.0256502 0)
(0.563819 -0.024631 0)
(0.571629 -0.0242615 0)
(0.580092 -0.0242847 0)
(0.589149 -0.0244159 0)
(0.598639 -0.0245334 0)
(0.608425 -0.0245631 0)
(0.618344 -0.0244699 0)
(0.628272 -0.0243698 0)
(0.638246 -0.0244184 0)
(0.648373 -0.0245711 0)
(0.658664 -0.0247009 0)
(0.669039 -0.0247236 0)
(0.679378 -0.0245961 0)
(0.689557 -0.0243429 0)
(0.699525 -0.0240609 0)
(0.709319 -0.0237933 0)
(0.718969 -0.0234999 0)
(0.728449 -0.0231469 0)
(0.737722 -0.022752 0)
(0.746793 -0.022349 0)
(0.755682 -0.0219389 0)
(0.764392 -0.0215072 0)
(0.772914 -0.0210579 0)
(0.781246 -0.0206015 0)
(0.789395 -0.0201384 0)
(0.797356 -0.0196669 0)
(0.805129 -0.0191901 0)
(0.81271 -0.0187098 0)
(0.8201 -0.0182253 0)
(0.827296 -0.017737 0)
(0.834296 -0.0172458 0)
(0.841099 -0.0167521 0)
(0.847703 -0.0162565 0)
(0.854108 -0.01576 0)
(0.860313 -0.0152635 0)
(0.866319 -0.0147682 0)
(0.872126 -0.0142751 0)
(0.877734 -0.0137856 0)
(0.883147 -0.0133008 0)
(0.888366 -0.0128219 0)
(0.893394 -0.0123498 0)
(0.898234 -0.0118856 0)
(0.902889 -0.0114299 0)
(0.907363 -0.0109835 0)
(0.91166 -0.0105468 0)
(0.915784 -0.0101204 0)
(0.919738 -0.0097047 0)
(0.923529 -0.00929993 0)
(0.92716 -0.00890636 0)
(0.930635 -0.00852419 0)
(0.93396 -0.00815355 0)
(0.937138 -0.00779456 0)
(0.940175 -0.00744725 0)
(0.943076 -0.00711165 0)
(0.945845 -0.00678774 0)
(0.948486 -0.00647547 0)
(0.951005 -0.00617476 0)
(0.953407 -0.00588549 0)
(0.955694 -0.00560752 0)
(0.957873 -0.0053407 0)
(0.959948 -0.00508481 0)
(0.961923 -0.00483967 0)
(0.963802 -0.00460502 0)
(0.965589 -0.00438062 0)
(0.967289 -0.00416621 0)
(0.968905 -0.0039615 0)
(0.970442 -0.00376623 0)
(0.971902 -0.00358008 0)
(0.97329 -0.00340276 0)
(0.97461 -0.00323396 0)
(0.975863 -0.00307337 0)
(0.977055 -0.00292067 0)
(0.978187 -0.00277554 0)
(0.979262 -0.00263767 0)
(0.980285 -0.00250672 0)
(0.981256 -0.00238239 0)
(0.98218 -0.00226435 0)
(0.983057 -0.00215228 0)
(0.983891 -0.00204588 0)
(0.984684 -0.00194483 0)
(0.985438 -0.00184884 0)
(0.986155 -0.0017576 0)
(0.986837 -0.00167084 0)
(0.987484 -0.00158828 0)
(0.9881 -0.00150968 0)
(0.988686 -0.00143479 0)
(0.989242 -0.00136339 0)
(0.98977 -0.00129528 0)
(0.990273 -0.00123029 0)
(0.990749 -0.00116827 0)
(0.991202 -0.00110907 0)
(0.991632 -0.00105259 0)
(0.99204 -0.000998709 0)
(0.992426 -0.000947355 0)
(0.992793 -0.000898442 0)
(0.993141 -0.000851899 0)
(0.993471 -0.000807654 0)
(0.993783 -0.000765639 0)
(0.994079 -0.000725783 0)
(0.99436 -0.000688013 0)
(0.994626 -0.000652253 0)
(0.994878 -0.000618424 0)
(0.995117 -0.000586447 0)
(0.995344 -0.000556237 0)
(0.995559 -0.000527712 0)
(0.995764 -0.000500789 0)
(0.995957 -0.000475385 0)
(0.996141 -0.000451417 0)
(0.996316 -0.000428808 0)
(0.996482 -0.000407481 0)
(0.99664 -0.000387361 0)
(0.99679 -0.000368376 0)
(0.996933 -0.000350459 0)
(0.997069 -0.000333545 0)
(0.997198 -0.000317569 0)
(0.997321 -0.000302473 0)
(0.997438 -0.000288199 0)
(0.99755 -0.000274692 0)
(0.997657 -0.000261902 0)
(0.997759 -0.000249778 0)
(0.997856 -0.000238275 0)
(0.997948 -0.00022735 0)
(0.998036 -0.000216961 0)
(0.998121 -0.000207071 0)
(0.998201 -0.000197645 0)
(0.998278 -0.000188652 0)
(0.998351 -0.000180061 0)
(0.998421 -0.000171848 0)
(0.998488 -0.000163988 0)
(0.998552 -0.000156461 0)
(0.998613 -0.000149246 0)
(0.998671 -0.000142327 0)
(0.998726 -0.00013569 0)
(0.998779 -0.000129321 0)
(0.998829 -0.000123208 0)
(0.998877 -0.000117341 0)
(0.998923 -0.000111711 0)
(0.998966 -0.000106308 0)
(0.999007 -0.000101125 0)
(0.999047 -9.61546e-05 0)
(0.999084 -9.13911e-05 0)
(0.999119 -8.68278e-05 0)
(0.999153 -8.24591e-05 0)
(0.999185 -7.82794e-05 0)
(0.999215 -7.42835e-05 0)
(0.999244 -7.04663e-05 0)
(0.999271 -6.68228e-05 0)
(0.999297 -6.33481e-05 0)
(0.999322 -6.00374e-05 0)
(0.999345 -5.68858e-05 0)
(0.999367 -5.38887e-05 0)
(0.999388 -5.10413e-05 0)
(0.999408 -4.83388e-05 0)
(0.999426 -4.57766e-05 0)
(0.999444 -4.33499e-05 0)
(0.999461 -4.10542e-05 0)
(0.999477 -3.88847e-05 0)
(0.999492 -3.68369e-05 0)
(0.999506 -3.49061e-05 0)
(0.999519 -3.3088e-05 0)
(0.999532 -3.13779e-05 0)
(0.999544 -2.97715e-05 0)
(0.999556 -2.82644e-05 0)
(0.999567 -2.68523e-05 0)
(0.999577 -2.5531e-05 0)
(0.999587 -2.42962e-05 0)
(0.999596 -2.3144e-05 0)
(0.999605 -2.20702e-05 0)
(0.999614 -2.10709e-05 0)
(0.999622 -2.01423e-05 0)
(0.99963 -1.92805e-05 0)
(0.999637 -1.8482e-05 0)
(0.999645 -1.7743e-05 0)
(0.999651 -1.70601e-05 0)
(0.999658 -1.64299e-05 0)
(0.999664 -1.58491e-05 0)
(0.999671 -1.53145e-05 0)
(0.999677 -1.4823e-05 0)
(0.999682 -1.43716e-05 0)
(0.999688 -1.39575e-05 0)
(0.999694 -1.35779e-05 0)
(0.999699 -1.32303e-05 0)
(0.999704 -1.2912e-05 0)
(0.999709 -1.26206e-05 0)
(0.999714 -1.2354e-05 0)
(0.999719 -1.21098e-05 0)
(0.999724 -1.18861e-05 0)
(0.999729 -1.16808e-05 0)
(0.999733 -1.14921e-05 0)
(0.999738 -1.13183e-05 0)
(0.999742 -1.11576e-05 0)
(0.999747 -1.10085e-05 0)
(0.999751 -1.08695e-05 0)
(0.999755 -1.07391e-05 0)
(0.99976 -1.06161e-05 0)