/*--------------------------------*- C++ -*----------------------------------*\
| =========                 |                                                 |
| \\      /  F ield         | OpenFOAM: The Open Source CFD Toolbox           |
|  \\    /   O peration     | Version:  v2006                                 |
|   \\  /    A nd           | Website:  www.openfoam.com                      |
|    \\/     M anipulation  |                                                 |
\*---------------------------------------------------------------------------*/
FoamFile
{
    version     2.0;
    format      ascii;
    class       volScalarField;
    location    "8.5";
    object      r;
}
// * * * * * * * * * * * * * * * * * * * * * * * * * * * * * * * * * * * * * //

dimensions      [1 2 0 0 0 0 0];


internalField   nonuniform List<scalar> 
350
(
-5.97991e-180
-1.09228e-176
-1.96526e-173
-3.48561e-170
-6.09164e-167
-1.04856e-163
-1.7769e-160
-2.96299e-157
-4.85932e-154
-7.83373e-151
-1.24069e-147
-1.92932e-144
-2.94385e-141
-4.40464e-138
-6.45775e-135
-9.27048e-132
-1.30205e-128
-1.78767e-125
-2.3971e-122
-3.13621e-119
-3.99934e-116
-4.96538e-113
-5.99478e-110
-7.02887e-107
-7.9924e-104
-8.80002e-101
-9.36658e-98
-9.62005e-95
-9.51491e-92
-9.04283e-89
-8.2379e-86
-7.17399e-83
-5.9541e-80
-4.69347e-77
-3.50029e-74
-2.45875e-71
-1.61842e-68
-9.92262e-66
-5.62639e-63
-2.92542e-60
-1.38022e-57
-5.83176e-55
-2.1694e-52
-6.9435e-50
-1.85022e-47
-3.89842e-45
-5.91083e-43
-5.07093e-41
2.3685e-40
4.25836e-37
9.91596e-36
1.15388e-34
8.5918e-34
4.3129e-33
1.23928e-32
-1.60418e-32
-4.86508e-31
-3.89442e-30
-2.24027e-29
-1.05923e-28
-4.28657e-28
-1.49747e-27
-4.46531e-27
-1.09348e-26
-1.94406e-26
-9.90891e-27
1.05071e-25
6.0418e-25
2.22385e-24
6.64763e-24
1.7265e-23
4.01272e-23
8.48597e-23
1.65325e-22
3.00498e-22
5.17489e-22
8.59714e-22
1.40086e-21
2.25587e-21
3.56542e-21
5.42274e-21
7.73758e-21
1.01135e-20
1.1941e-20
1.30657e-20
1.56076e-20
2.77561e-20
7.03379e-20
1.86211e-19
4.51271e-19
9.85166e-19
1.96218e-18
3.6238e-18
6.28787e-18
1.03381e-17
1.61412e-17
2.41777e-17
3.48711e-17
4.85388e-17
6.62889e-17
8.76584e-17
9.90951e-17
1.1541e-16
1.2423e-16
6.15333e-16
-2.25376e-16
1.23632e-16
-9.59682e-18
1.47065e-15
-3.26924e-16
-5.60695e-16
-5.00609e-15
-1.0825e-15
-1.6903e-14
-1.52272e-14
-4.05882e-14
1.06432e-14
-3.3676e-14
-1.00529e-14
-7.64503e-14
1.04245e-13
-1.79532e-14
1.23785e-13
7.85209e-13
-5.66702e-13
1.19432e-12
-1.17779e-12
2.71135e-12
1.35766e-12
-7.33021e-12
1.0119e-11
-5.28691e-12
2.64505e-11
1.25083e-11
-1.03702e-13
1.11096e-10
-5.96447e-11
9.7066e-11
-3.39422e-10
-3.9443e-10
-3.02836e-10
-2.29179e-09
-2.34818e-09
-3.38429e-09
-8.15378e-09
-7.30927e-09
-2.04239e-08
-1.75974e-08
-4.09307e-08
-3.94991e-08
-7.14635e-08
-7.32295e-08
-9.95496e-08
-2.67248e-08
-1.41216e-07
-4.28853e-08
-1.8324e-07
-6.10423e-07
-8.88233e-07
-2.19823e-06
-1.81263e-06
-1.37301e-06
-1.32188e-06
-4.67571e-06
-2.47887e-05
-2.39263e-05
2.70503e-05
0.000214424
0.000713465
0.00184294
0.0041388
0.00844451
0.0160127
0.0286079
0.0485959
0.0790027
0.123524
0.186467
0.272618
0.387023
0.534697
0.720274
0.947627
1.2195
1.53716
1.90018
2.30628
2.75131
3.22942
3.73328
4.25447
4.78391
5.31235
5.83083
6.33108
6.80595
7.24958
7.6576
8.02718
8.35695
8.64691
8.8982
9.11292
9.29382
9.44417
9.56743
9.66714
9.74675
9.80947
9.85826
9.89571
9.92407
9.94521
9.96072
9.97172
9.97836
9.98788
9.98802
9.98609
9.98033
9.96904
9.94999
9.92028
9.87628
9.81374
9.72791
9.61376
9.46627
9.28083
9.05355
8.78167
8.46394
8.10078
7.69448
7.24919
6.77079
6.26662
5.74512
5.2154
4.68671
4.16805
3.66766
3.19273
2.7491
2.34113
1.97165
1.64201
1.35221
1.10108
0.88653
0.705773
0.555564
0.432418
0.332797
0.253261
0.190579
0.141811
0.104347
0.0759257
0.0546312
0.0388721
0.0273514
0.019031
0.0130941
0.00890852
0.00599287
0.00398599
0.00262105
0.00170376
0.00109466
0.000695053
0.000436056
0.000270236
0.000165384
9.99142e-05
5.9559e-05
3.50107e-05
2.02801e-05
1.15651e-05
6.48491e-06
3.56992e-06
1.92514e-06
1.01443e-06
5.19049e-07
2.57297e-07
1.19071e-07
5.40159e-08
1.73202e-08
6.32651e-09
1.31826e-11
5.49404e-12
5.7275e-13
4.45572e-13
3.07759e-13
1.89501e-13
9.80954e-14
3.81978e-14
3.03892e-15
-2.51434e-14
-2.52086e-14
-2.47973e-14
-2.37106e-14
-2.21988e-14
-2.04916e-14
-1.87522e-14
-1.70971e-14
-1.55282e-14
-1.4029e-14
-1.2572e-14
-1.11149e-14
-9.62684e-15
-8.08626e-15
-6.48677e-15
-4.83866e-15
-3.1684e-15
-1.51385e-15
8.08751e-17
1.57262e-15
2.92479e-15
4.11104e-15
5.11673e-15
5.9379e-15
6.57912e-15
7.0509e-15
7.36684e-15
7.5423e-15
7.5923e-15
7.52535e-15
7.34388e-15
7.04857e-15
6.64921e-15
6.15014e-15
5.56395e-15
4.90174e-15
4.17715e-15
3.40633e-15
2.6056e-15
1.7932e-15
9.86676e-16
2.03358e-16
-5.41387e-16
-1.2344e-15
-1.86541e-15
-2.42722e-15
-2.91559e-15
-3.32901e-15
-3.66818e-15
-3.93562e-15
-4.13522e-15
-4.27156e-15
)
;

boundaryField
{
    right
    {
        type            zeroGradient;
    }
    left
    {
        type            inletOutlet;
        inletValue      uniform 0;
        value           uniform 0;
    }
    top
    {
        type            zeroGradient;
    }
    bottom
    {
        type            zeroGradient;
    }
    empty
    {
        type            empty;
    }
}


// ************************************************************************* //
