/*--------------------------------*- C++ -*----------------------------------*\
| =========                 |                                                 |
| \\      /  F ield         | OpenFOAM: The Open Source CFD Toolbox           |
|  \\    /   O peration     | Version:  v2006                                 |
|   \\  /    A nd           | Website:  www.openfoam.com                      |
|    \\/     M anipulation  |                                                 |
\*---------------------------------------------------------------------------*/
FoamFile
{
    version     2.0;
    format      ascii;
    class       volScalarField;
    location    "0";
    object      shifted_f;
}
// * * * * * * * * * * * * * * * * * * * * * * * * * * * * * * * * * * * * * //

dimensions      [0 0 0 0 0 0 0];


internalField   nonuniform List<scalar> 
2500
(
2.58312e-05
2.57567e-05
2.56784e-05
2.57008e-05
2.57194e-05
2.56747e-05
2.56635e-05
2.56523e-05
2.56449e-05
2.56039e-05
2.55965e-05
2.5589e-05
2.5548e-05
2.55071e-05
2.55331e-05
2.55294e-05
2.54363e-05
2.54214e-05
2.5481e-05
2.53879e-05
2.53581e-05
2.53841e-05
2.53469e-05
2.53133e-05
2.53171e-05
2.52873e-05
2.5291e-05
2.52314e-05
2.52612e-05
2.51718e-05
2.5209e-05
2.51755e-05
2.5183e-05
2.5183e-05
2.51643e-05
2.50451e-05
2.50824e-05
2.50898e-05
2.51308e-05
2.50451e-05
2.50563e-05
2.50675e-05
2.49557e-05
2.50004e-05
2.50079e-05
2.49855e-05
2.49073e-05
2.49259e-05
2.48738e-05
2.48328e-05
2.49036e-05
2.48328e-05
2.4844e-05
2.48291e-05
2.48812e-05
8.20942e-05
8.20421e-05
8.19564e-05
8.19638e-05
8.19452e-05
8.18893e-05
8.19378e-05
8.19489e-05
8.1867e-05
8.18707e-05
8.17962e-05
8.18074e-05
8.17589e-05
8.17664e-05
8.16956e-05
8.1677e-05
8.17217e-05
8.16472e-05
8.16584e-05
8.16174e-05
8.16323e-05
8.16472e-05
8.15727e-05
8.15578e-05
8.15205e-05
8.15354e-05
8.15503e-05
8.1487e-05
8.14758e-05
8.14609e-05
8.14907e-05
8.14497e-05
8.14386e-05
8.14348e-05
8.13641e-05
8.13566e-05
8.13827e-05
8.13194e-05
8.13156e-05
8.12523e-05
8.12225e-05
8.12188e-05
8.11853e-05
8.11853e-05
8.12449e-05
8.11815e-05
8.11853e-05
8.12225e-05
8.11592e-05
8.1107e-05
8.11107e-05
8.11145e-05
8.10921e-05
8.10362e-05
8.10139e-05
8.10549e-05
8.10288e-05
8.09543e-05
8.10213e-05
8.10027e-05
8.09543e-05
8.09692e-05
8.09543e-05
8.09319e-05
8.0917e-05
8.09059e-05
8.09208e-05
8.085e-05
8.08574e-05
8.07978e-05
8.08127e-05
8.08015e-05
8.08202e-05
8.08127e-05
8.07717e-05
8.0768e-05
8.07345e-05
8.07904e-05
8.06972e-05
8.06898e-05
8.07494e-05
8.066e-05
8.06525e-05
8.06563e-05
8.06898e-05
8.06563e-05
8.06004e-05
8.06674e-05
8.06414e-05
8.06153e-05
8.06451e-05
8.06265e-05
8.06004e-05
8.06637e-05
8.06116e-05
8.05631e-05
8.05184e-05
8.05855e-05
8.05408e-05
8.05482e-05
8.05371e-05
0.000157356
0.000157341
0.000157356
0.000157367
0.000157353
0.000157341
0.000157326
0.000157278
0.000157323
0.000157312
0.000157304
0.000157349
0.000157308
0.000157237
0.000157256
0.000157248
0.000157297
0.000157323
0.000157226
0.000157308
0.000157245
0.000157267
0.000157226
0.000157222
0.000157222
0.000157189
0.000157151
0.000157215
0.000157274
0.000157215
0.000157211
0.000157185
0.000157189
0.000157107
0.00015717
0.000157174
0.000157177
0.000157159
0.000157103
0.00015717
0.000157148
0.000157073
0.00015717
0.000157155
0.00015717
0.000157095
0.000157136
0.000157032
0.000157084
0.000157099
0.000157118
0.000157107
0.000157073
0.000157122
0.000157148
0.000157043
0.000157099
0.00015704
0.000157062
0.000157032
0.000157062
0.000157036
0.000157088
0.000157095
0.000157066
0.00015701
0.000157043
0.000157025
0.000156995
0.000157069
0.000157021
0.000157021
0.000157066
0.000157051
0.00015704
0.000157017
0.000157062
0.000157021
0.000157066
0.000157092
0.000157077
0.000157099
0.000156999
0.000157021
0.00015701
0.00015704
0.000157006
0.000156995
0.000157088
0.000157028
0.000157084
0.000156999
0.000156991
0.000157066
0.000157095
0.000157073
0.000157081
0.000157055
0.000157062
0.000157099
0.00015714
0.000240337
0.000240386
0.000240311
0.000240326
0.000240367
0.000240292
0.000240371
0.000240419
0.000240497
0.000240486
0.000240445
0.000240464
0.000240486
0.000240508
0.000240501
0.000240583
0.000240553
0.000240605
0.000240542
0.000240568
0.000240654
0.000240628
0.000240657
0.000240631
0.000240628
0.000240631
0.000240698
0.000240732
0.000240743
0.000240713
0.000240725
0.000240736
0.000240754
0.000240728
0.000240833
0.00024081
0.000240829
0.000240851
0.000240892
0.000240877
0.000240959
0.000240918
0.000240915
0.000240907
0.000240985
0.000240985
0.000240948
0.000240952
0.000240952
0.000241011
0.000240985
0.000241045
0.000241082
0.000241082
0.000241123
0.000241045
0.000241078
0.000241093
0.000241134
0.000241153
0.000241164
0.000241145
0.000241194
0.000241149
0.000241205
0.000241224
0.00024119
0.000241246
0.000241268
0.000241209
0.000241295
0.000241265
0.000241317
0.000241388
0.000241306
0.000241365
0.000241339
0.000241321
0.000241324
0.000241335
0.000241406
0.000241414
0.000241432
0.000241451
0.00024147
0.000241455
0.000241451
0.000241529
0.000241525
0.000241518
0.000241563
0.000241511
0.000241537
0.000241499
0.000241559
0.000241622
0.000241626
0.0002416
0.000241663
0.000241674
0.000241678
0.000326928
0.000327002
0.000327032
0.000327054
0.000327062
0.000327107
0.000327148
0.000327192
0.000327211
0.000327226
0.000327308
0.000327226
0.000327349
0.000327364
0.000327419
0.00032746
0.000327464
0.00032749
0.000327479
0.000327539
0.000327539
0.000327602
0.000327636
0.000327662
0.000327703
0.000327647
0.000327714
0.000327755
0.000327762
0.000327859
0.000327874
0.000327829
0.000327937
0.000327978
0.000327971
0.000327986
0.000328042
0.000328034
0.000328027
0.000328112
0.000328135
0.000328138
0.000328198
0.000328202
0.000328179
0.000328269
0.000328247
0.000328224
0.000328295
0.000328366
0.000328403
0.000328396
0.0003285
0.000328451
0.000328448
0.00032847
0.000328489
0.000328518
0.000328597
0.000328626
0.000328597
0.000328638
0.00032869
0.000328694
0.000328735
0.000328682
0.000328757
0.000328735
0.000328813
0.000328824
0.000328846
0.000328857
0.00032891
0.000328902
0.000328898
0.000328951
0.000328917
0.000329006
0.000329003
0.00032907
0.000329074
0.000329044
0.000328999
0.000329096
0.000329137
0.000329122
0.000329129
0.000329211
0.0003292
0.000329185
0.000329208
0.00032926
0.000329316
0.000329312
0.000329334
0.000329372
0.000329312
0.000329401
0.000329413
0.000329442
0.000329394
0.000432909
0.000432942
0.000433028
0.000433031
0.000433054
0.000433099
0.000433158
0.000433166
0.000433203
0.000433214
0.000433192
0.00043324
0.000433277
0.000433262
0.000433363
0.000433378
0.000433438
0.000433423
0.000433411
0.000433467
0.000433486
0.000433516
0.000433549
0.000433516
0.000433587
0.000433583
0.00043359
0.00043365
0.000433695
0.000433639
0.000433717
0.000433758
0.000433747
0.000433769
0.000433784
0.00043381
0.000433832
0.000433855
0.000433888
0.000433911
0.000433914
0.000433952
0.000434019
0.000434026
0.000434034
0.000434045
0.000434022
0.000434075
0.000434097
0.000434048
0.000434157
0.000434127
0.000434179
0.000434179
0.000434209
0.000434212
0.000434246
0.000434257
0.000434235
0.000434276
0.000434287
0.000434335
0.00043432
0.000434365
0.000434387
0.000434387
0.00043444
0.000434469
0.000434473
0.00043444
0.000434443
0.000434514
0.000434559
0.000434596
0.000434496
0.000434626
0.000434611
0.000434663
0.000434689
0.000434648
0.000434622
0.000434704
0.000434734
0.000434741
0.000434779
0.000434719
0.00043479
0.000434801
0.000434786
0.000434801
0.000434879
0.000434868
0.000434887
0.00043492
0.000434943
0.000434939
0.000434943
0.000434946
0.000435013
0.000434995
0.000435002
0.000580996
0.000581034
0.000580952
0.000580929
0.000581011
0.000580929
0.000580978
0.000580907
0.000580925
0.000580948
0.000580966
0.000580903
0.000580903
0.000580806
0.000580844
0.000580873
0.000580791
0.000580829
0.000580799
0.000580817
0.000580829
0.000580758
0.000580736
0.000580732
0.000580788
0.000580776
0.000580747
0.00058068
0.00058065
0.00058078
0.000580665
0.000580646
0.000580687
0.000580635
0.00058068
0.000580635
0.000580668
0.00058059
0.000580616
0.00058059
0.00058065
0.00058062
0.000580627
0.000580627
0.000580583
0.000580546
0.000580616
0.000580665
0.00058056
0.000580557
0.000580557
0.000580586
0.000580501
0.000580553
0.000580568
0.000580523
0.000580564
0.000580542
0.000580508
0.000580557
0.000580583
0.000580542
0.000580512
0.000580482
0.00058046
0.000580501
0.000580508
0.000580493
0.000580531
0.000580404
0.000580546
0.000580441
0.000580449
0.000580497
0.000580478
0.000580508
0.000580426
0.000580501
0.000580493
0.000580464
0.000580512
0.000580478
0.000580441
0.000580441
0.000580475
0.000580475
0.000580478
0.000580486
0.000580467
0.000580486
0.000580471
0.000580452
0.000580505
0.000580534
0.000580441
0.000580523
0.000580501
0.000580538
0.000580538
0.000580523
0.000580534
0.00073671
0.00073659
0.000736654
0.000736594
0.000736419
0.000736397
0.000736415
0.000736274
0.000736259
0.000736255
0.000736181
0.000736151
0.000736084
0.000736047
0.000735953
0.000735845
0.000735831
0.000735801
0.000735816
0.000735737
0.000735667
0.000735596
0.000735525
0.000735428
0.000735398
0.000735402
0.00073538
0.000735298
0.000735216
0.000735138
0.000735246
0.000735141
0.000735078
0.000735071
0.000734985
0.000734862
0.000734869
0.000734847
0.000734765
0.000734687
0.000734735
0.000734642
0.000734583
0.000734609
0.000734549
0.000734586
0.000734508
0.000734452
0.000734445
0.000734404
0.000734378
0.000734299
0.000734303
0.000734247
0.000734221
0.000734169
0.000734217
0.00073408
0.000734072
0.000734035
0.000734124
0.000734065
0.000734013
0.000733994
0.000733845
0.000733893
0.000733919
0.000733852
0.000733815
0.000733841
0.000733752
0.000733729
0.000733715
0.00073364
0.000733647
0.000733707
0.000733666
0.000733666
0.000733547
0.000733614
0.000733588
0.000733547
0.000733595
0.000733521
0.00073348
0.00073348
0.00073342
0.00073342
0.000733454
0.000733405
0.000733301
0.000733294
0.000733316
0.000733431
0.000733327
0.000733357
0.000733279
0.000733253
0.000733387
0.000733312
0.000733271
0.000716951
0.000716906
0.000716958
0.000716768
0.000716757
0.000716727
0.00071666
0.000716545
0.000716399
0.000716414
0.000716392
0.000716198
0.000716191
0.000716116
0.000715967
0.000715967
0.000715934
0.000715826
0.000715848
0.000715829
0.000715673
0.000715625
0.000715561
0.000715569
0.000715353
0.000715401
0.000715416
0.000715338
0.000715334
0.000715233
0.000715178
0.000715055
0.000715066
0.000715036
0.000714879
0.000714842
0.000714809
0.000714846
0.000714812
0.00071466
0.000714689
0.000714514
0.000714477
0.000714574
0.00071454
0.000714485
0.000714377
0.000714298
0.00071435
0.000714149
0.000714246
0.000714138
0.000714116
0.000714127
0.000713989
0.000714052
0.000713982
0.000713963
0.000713903
0.000713851
0.000713844
0.00071374
0.000713833
0.000713803
0.000713743
0.000713721
0.000713762
0.000713605
0.000713568
0.000713538
0.000713482
0.000713434
0.000713449
0.000713408
0.000713456
0.000713401
0.000713404
0.000713348
0.000713337
0.000713389
0.000713374
0.000713345
0.000713222
0.000713196
0.00071311
0.000713106
0.000713091
0.000713158
0.000713058
0.000713065
0.000713103
0.000712961
0.00071298
0.000712976
0.000713009
0.000713039
0.000712957
0.000712942
0.00071292
0.00071295
0.000712939
0.000175957
0.000176016
0.000176147
0.000176087
0.000175882
0.000175938
0.000175983
0.0001758
0.000175882
0.000175904
0.000175856
0.000175864
0.000175826
0.000175763
0.00017577
0.000175741
0.000175748
0.000175674
0.000175606
0.000175703
0.000175618
0.000175554
0.000175618
0.000175547
0.000175614
0.000175551
0.000175469
0.000175554
0.000175539
0.000175565
0.000175424
0.000175394
0.00017539
0.000175379
0.000175443
0.00017542
0.000175409
0.000175361
0.000175364
0.000175335
0.000175375
0.000175353
0.000175413
0.000175346
0.000175256
0.000175364
0.000175226
0.000175346
0.00017529
0.000175308
0.000175226
0.000175245
0.000175241
0.000175137
0.000175219
0.000175171
0.000175141
0.000175234
0.000175167
0.000175159
0.000175141
0.000175186
0.0001752
0.000175122
0.000175171
0.000175044
0.000175193
0.000175241
0.000174981
0.000175055
0.000175182
0.000175133
0.000175212
0.000175126
0.00017507
0.000174988
0.000175077
0.000175107
0.000175074
0.000175182
0.000175048
0.000175066
0.000175077
0.000174988
0.000175033
0.00017513
0.000175007
0.000175081
0.000175025
0.000175018
0.000175107
0.000175115
0.000175025
0.000174996
0.000174955
0.000175048
0.000174969
0.000174988
0.000174947
0.000174947
0.000174917
-0.000976887
-0.000976775
-0.000976853
-0.000976872
-0.000976909
-0.000976976
-0.000977021
-0.000976946
-0.000976902
-0.000977065
-0.00097711
-0.000977043
-0.000977088
-0.000977159
-0.000977177
-0.00097714
-0.000977147
-0.000977188
-0.000977181
-0.0009773
-0.000977289
-0.000977319
-0.000977315
-0.00097733
-0.000977304
-0.000977274
-0.000977397
-0.000977285
-0.000977408
-0.00097733
-0.000977349
-0.000977401
-0.000977442
-0.000977468
-0.000977438
-0.000977281
-0.000977546
-0.000977367
-0.000977468
-0.000977326
-0.000977319
-0.000977542
-0.000977423
-0.000977423
-0.000977445
-0.000977498
-0.000977468
-0.000977423
-0.000977531
-0.000977453
-0.000977479
-0.000977363
-0.000977423
-0.000977512
-0.000977602
-0.00097755
-0.000977397
-0.000977438
-0.000977509
-0.000977594
-0.000977542
-0.000977475
-0.00097749
-0.000977535
-0.000977501
-0.00097746
-0.000977401
-0.000977416
-0.000977401
-0.000977464
-0.000977527
-0.000977296
-0.000977363
-0.000977412
-0.000977483
-0.000977349
-0.000977308
-0.000977509
-0.000977337
-0.000977207
-0.000977319
-0.000977386
-0.000977356
-0.000977349
-0.000977334
-0.00097736
-0.000977136
-0.000977319
-0.000977293
-0.000977229
-0.000977289
-0.000977304
-0.0009772
-0.000977155
-0.000977203
-0.000977103
-0.000977114
-0.0009772
-0.000977192
-0.000977185
-0.000977065
-0.00176792
-0.00176804
-0.0017681
-0.00176834
-0.00176841
-0.00176863
-0.00176864
-0.00176877
-0.00176889
-0.00176883
-0.00176908
-0.00176905
-0.00176913
-0.0017694
-0.0017694
-0.00176956
-0.00176963
-0.0017698
-0.00176976
-0.00176984
-0.00176996
-0.00177002
-0.00177009
-0.00177036
-0.00177027
-0.00177037
-0.00177046
-0.00177054
-0.00177073
-0.00177069
-0.0017707
-0.00177085
-0.00177104
-0.00177112
-0.00177114
-0.00177107
-0.00177103
-0.00177119
-0.00177114
-0.00177138
-0.00177148
-0.00177151
-0.00177162
-0.00177169
-0.00177174
-0.00177171
-0.00177177
-0.00177196
-0.00177195
-0.00177194
-0.00177203
-0.00177188
-0.00177207
-0.00177192
-0.0017721
-0.00177214
-0.00177224
-0.00177228
-0.00177239
-0.00177229
-0.00177228
-0.00177231
-0.00177247
-0.00177247
-0.00177257
-0.0017726
-0.00177253
-0.00177246
-0.00177252
-0.00177266
-0.00177253
-0.00177268
-0.00177269
-0.00177261
-0.00177279
-0.00177265
-0.00177276
-0.00177265
-0.00177275
-0.00177266
-0.00177288
-0.00177271
-0.00177291
-0.00177279
-0.00177283
-0.00177285
-0.00177286
-0.00177279
-0.00177286
-0.0017729
-0.00177278
-0.00177275
-0.00177286
-0.00177278
-0.00177289
-0.00177268
-0.00177284
-0.00177283
-0.00177285
-0.00177278
-0.00177279
-0.0016311
-0.00163106
-0.00163102
-0.00163106
-0.00163106
-0.00163105
-0.0016311
-0.00163106
-0.001631
-0.00163107
-0.00163101
-0.00163092
-0.00163102
-0.00163108
-0.00163108
-0.00163094
-0.00163114
-0.00163114
-0.00163114
-0.00163097
-0.00163104
-0.00163111
-0.00163109
-0.00163117
-0.0016311
-0.00163099
-0.00163108
-0.00163108
-0.00163111
-0.00163113
-0.00163118
-0.00163125
-0.00163114
-0.00163117
-0.00163123
-0.00163108
-0.0016312
-0.00163121
-0.00163125
-0.00163127
-0.0016313
-0.00163129
-0.00163115
-0.00163113
-0.00163129
-0.00163127
-0.00163131
-0.00163131
-0.00163129
-0.00163122
-0.00163132
-0.00163126
-0.00163132
-0.00163143
-0.00163134
-0.00163143
-0.00163146
-0.00163145
-0.00163154
-0.00163135
-0.00163157
-0.00163145
-0.00163155
-0.00163142
-0.00163157
-0.00163158
-0.00163151
-0.00163161
-0.00163153
-0.00163152
-0.00163158
-0.00163155
-0.00163157
-0.00163164
-0.00163159
-0.00163161
-0.00163156
-0.00163167
-0.00163179
-0.00163172
-0.00163174
-0.00163168
-0.00163191
-0.00163183
-0.00163173
-0.00163179
-0.0016319
-0.00163187
-0.00163192
-0.00163192
-0.00163185
-0.00163181
-0.00163186
-0.00163193
-0.0016318
-0.001632
-0.00163192
-0.00163193
-0.00163205
-0.00163208
-0.00163199
-0.00041819
-0.000418071
-0.000417892
-0.00041781
-0.000417534
-0.000417408
-0.000417292
-0.000417281
-0.000416767
-0.000416756
-0.000416603
-0.000416461
-0.000416409
-0.000416297
-0.000416096
-0.00041594
-0.000415932
-0.000415694
-0.000415538
-0.000415545
-0.000415321
-0.000415433
-0.000415109
-0.000415117
-0.000415016
-0.000414763
-0.000414819
-0.000414785
-0.000414591
-0.000414308
-0.000414416
-0.000414353
-0.000414319
-0.000414159
-0.000414155
-0.00041398
-0.000413936
-0.000414032
-0.000413869
-0.000413951
-0.000413861
-0.000413813
-0.000413779
-0.000413563
-0.000413638
-0.000413585
-0.000413578
-0.000413585
-0.000413503
-0.000413518
-0.000413544
-0.000413422
-0.000413414
-0.000413354
-0.000413336
-0.000413578
-0.000413399
-0.000413414
-0.000413433
-0.0004135
-0.000413626
-0.000413455
-0.000413455
-0.000413481
-0.000413451
-0.000413571
-0.000413522
-0.000413563
-0.000413638
-0.000413656
-0.000413522
-0.000413816
-0.000413842
-0.000413787
-0.000413992
-0.000414021
-0.000413898
-0.000414107
-0.000414055
-0.000414301
-0.000414263
-0.000414222
-0.000414331
-0.000414494
-0.000414651
-0.000414606
-0.000414755
-0.000414874
-0.000414852
-0.000414956
-0.000415057
-0.000415206
-0.000415277
-0.00041531
-0.000415582
-0.000415422
-0.000415664
-0.000415847
-0.000416078
-0.000416026
-0.000416201
0.0026077
0.00260782
0.00260793
0.00260822
0.00260835
0.00260853
0.00260884
0.00260881
0.00260918
0.00260928
0.00260941
0.00260964
0.00260974
0.00261001
0.00261008
0.00261019
0.0026103
0.00261062
0.00261071
0.00261079
0.00261085
0.00261102
0.00261128
0.00261117
0.00261125
0.0026115
0.0026117
0.00261172
0.00261173
0.00261201
0.00261198
0.00261194
0.00261202
0.00261207
0.00261215
0.00261217
0.00261221
0.00261217
0.00261221
0.00261248
0.00261232
0.00261239
0.00261242
0.00261239
0.00261242
0.00261245
0.00261239
0.00261233
0.00261243
0.00261236
0.00261223
0.00261229
0.00261233
0.00261215
0.00261211
0.00261208
0.00261206
0.00261195
0.00261195
0.0026117
0.00261167
0.00261164
0.00261153
0.00261145
0.00261143
0.0026112
0.00261119
0.00261104
0.00261084
0.00261061
0.00261068
0.00261065
0.00261033
0.00261018
0.00261007
0.00260988
0.00260982
0.00260956
0.00260939
0.00260938
0.00260901
0.00260874
0.00260875
0.00260852
0.00260839
0.0026081
0.00260789
0.00260774
0.00260755
0.00260742
0.00260717
0.00260678
0.00260653
0.00260643
0.00260613
0.00260583
0.00260571
0.00260527
0.0026051
0.00260491
0.00260452
0.00708429
0.00708439
0.00708467
0.00708466
0.00708463
0.00708478
0.00708478
0.00708497
0.00708504
0.00708515
0.00708524
0.00708522
0.00708519
0.00708524
0.00708536
0.00708553
0.00708545
0.00708551
0.0070855
0.00708535
0.00708548
0.00708568
0.00708551
0.00708567
0.00708571
0.00708567
0.00708574
0.00708561
0.00708563
0.00708561
0.00708573
0.00708556
0.0070856
0.00708556
0.00708545
0.00708547
0.00708539
0.00708535
0.00708529
0.0070852
0.00708522
0.00708513
0.0070849
0.00708499
0.00708497
0.0070848
0.00708475
0.00708457
0.00708451
0.00708451
0.00708437
0.00708427
0.00708411
0.00708397
0.00708387
0.00708375
0.00708359
0.00708354
0.00708359
0.00708334
0.00708316
0.0070829
0.00708275
0.00708259
0.00708253
0.00708244
0.00708218
0.00708204
0.00708192
0.00708162
0.00708146
0.00708127
0.00708108
0.00708091
0.00708072
0.00708045
0.00708034
0.00708003
0.0070799
0.00707963
0.0070794
0.00707923
0.00707908
0.00707872
0.0070786
0.00707812
0.00707793
0.00707782
0.00707757
0.00707733
0.0070769
0.00707677
0.00707653
0.00707639
0.00707584
0.00707565
0.00707554
0.0070751
0.00707486
0.00707437
0.00707417
0.0100925
0.0100923
0.0100923
0.0100921
0.0100921
0.0100921
0.0100921
0.0100919
0.0100918
0.0100918
0.0100917
0.0100916
0.0100916
0.0100918
0.0100916
0.0100914
0.0100913
0.0100911
0.0100911
0.0100912
0.0100911
0.0100911
0.0100909
0.0100908
0.0100909
0.0100907
0.0100906
0.0100906
0.0100906
0.0100904
0.0100904
0.0100904
0.0100902
0.0100902
0.0100901
0.0100901
0.0100901
0.0100899
0.01009
0.0100899
0.0100899
0.0100898
0.0100898
0.0100896
0.0100896
0.0100896
0.0100895
0.0100893
0.0100894
0.0100895
0.0100891
0.0100893
0.0100891
0.0100891
0.0100891
0.0100889
0.010089
0.0100889
0.0100888
0.0100887
0.0100887
0.0100887
0.0100885
0.0100888
0.0100885
0.0100887
0.0100886
0.0100885
0.0100885
0.0100883
0.0100882
0.0100883
0.0100882
0.0100882
0.0100882
0.010088
0.010088
0.0100881
0.0100879
0.010088
0.010088
0.0100879
0.0100878
0.0100879
0.0100879
0.0100878
0.0100877
0.0100878
0.0100876
0.0100878
0.0100878
0.0100877
0.0100877
0.0100875
0.0100874
0.0100875
0.0100874
0.0100874
0.0100874
0.0100873
0.0100873
0.00772903
0.00772887
0.00772888
0.00772861
0.00772852
0.00772836
0.00772838
0.00772801
0.00772781
0.00772777
0.00772775
0.00772763
0.00772737
0.00772732
0.00772728
0.00772704
0.00772699
0.00772703
0.00772699
0.00772681
0.00772679
0.00772669
0.00772665
0.00772672
0.00772666
0.00772655
0.00772646
0.00772655
0.00772657
0.00772656
0.00772661
0.00772655
0.00772645
0.00772672
0.00772663
0.00772664
0.00772661
0.00772676
0.00772696
0.0077268
0.00772694
0.00772703
0.00772722
0.00772719
0.00772734
0.00772748
0.00772751
0.0077278
0.00772782
0.00772797
0.0077281
0.00772824
0.00772846
0.00772862
0.00772871
0.00772886
0.00772917
0.00772921
0.00772933
0.00772978
0.00772995
0.00773003
0.0077305
0.00773067
0.00773102
0.00773133
0.00773149
0.00773171
0.00773213
0.00773221
0.00773267
0.00773304
0.00773327
0.00773358
0.00773391
0.00773423
0.00773462
0.00773491
0.00773529
0.0077356
0.00773595
0.00773651
0.00773685
0.00773717
0.00773755
0.00773812
0.00773856
0.00773893
0.00773931
0.00773973
0.00774006
0.00774059
0.007741
0.0077415
0.007742
0.00774257
0.00774306
0.00774355
0.0077441
0.00774461
0.00774508
-0.00154861
-0.00154874
-0.00154875
-0.00154875
-0.00154871
-0.00154872
-0.0015488
-0.00154886
-0.00154875
-0.00154876
-0.00154883
-0.00154851
-0.00154864
-0.00154854
-0.00154837
-0.00154845
-0.00154829
-0.00154814
-0.00154809
-0.00154804
-0.00154795
-0.00154784
-0.00154766
-0.00154747
-0.00154733
-0.00154695
-0.0015468
-0.00154664
-0.00154646
-0.00154622
-0.00154601
-0.00154567
-0.0015456
-0.0015453
-0.0015451
-0.00154472
-0.00154435
-0.0015442
-0.00154376
-0.0015436
-0.00154304
-0.00154284
-0.00154225
-0.00154209
-0.00154174
-0.00154117
-0.00154091
-0.00154048
-0.00154014
-0.00153952
-0.00153898
-0.00153835
-0.00153807
-0.00153762
-0.00153716
-0.00153671
-0.00153605
-0.00153549
-0.00153498
-0.00153444
-0.00153376
-0.00153328
-0.00153251
-0.00153191
-0.00153137
-0.00153071
-0.00153002
-0.00152947
-0.00152873
-0.00152798
-0.0015273
-0.00152647
-0.00152575
-0.00152518
-0.00152436
-0.00152351
-0.00152286
-0.00152208
-0.00152121
-0.00152024
-0.00151947
-0.00151851
-0.00151797
-0.00151695
-0.00151609
-0.00151519
-0.00151426
-0.00151337
-0.00151237
-0.00151145
-0.00151045
-0.00150956
-0.00150864
-0.00150752
-0.00150651
-0.00150553
-0.00150456
-0.00150343
-0.00150237
-0.00150133
-0.00150019
-0.0186666
-0.0186661
-0.0186656
-0.0186651
-0.0186648
-0.018664
-0.0186637
-0.018663
-0.0186624
-0.0186621
-0.0186614
-0.0186607
-0.0186602
-0.0186596
-0.0186589
-0.0186585
-0.0186577
-0.0186572
-0.0186565
-0.018656
-0.0186551
-0.0186547
-0.018654
-0.0186532
-0.0186525
-0.018652
-0.0186513
-0.0186504
-0.0186498
-0.0186492
-0.0186483
-0.0186477
-0.0186469
-0.0186463
-0.0186454
-0.0186446
-0.0186438
-0.0186428
-0.0186421
-0.0186414
-0.0186404
-0.0186397
-0.0186387
-0.0186378
-0.0186369
-0.0186359
-0.018635
-0.0186342
-0.0186333
-0.0186322
-0.0186313
-0.0186305
-0.0186296
-0.0186285
-0.0186276
-0.0186265
-0.0186255
-0.0186244
-0.0186234
-0.0186223
-0.0186213
-0.0186201
-0.018619
-0.0186178
-0.0186168
-0.0186155
-0.0186145
-0.0186133
-0.0186121
-0.0186109
-0.0186098
-0.0186084
-0.0186072
-0.018606
-0.0186047
-0.0186036
-0.0186023
-0.0186011
-0.0185996
-0.0185984
-0.0185971
-0.0185957
-0.0185944
-0.0185932
-0.0185919
-0.0185902
-0.0185888
-0.0185873
-0.018586
-0.0185846
-0.018583
-0.0185817
-0.0185803
-0.0185788
-0.0185773
-0.0185758
-0.0185743
-0.0185729
-0.0185713
-0.0185695
-0.018568
-0.0419297
-0.0419292
-0.0419286
-0.0419278
-0.0419271
-0.0419267
-0.041926
-0.0419252
-0.0419245
-0.0419239
-0.041923
-0.0419225
-0.0419217
-0.041921
-0.0419203
-0.0419194
-0.0419187
-0.041918
-0.0419174
-0.0419165
-0.0419158
-0.0419151
-0.0419142
-0.0419134
-0.0419127
-0.0419117
-0.0419109
-0.0419103
-0.0419096
-0.0419084
-0.0419076
-0.0419068
-0.0419057
-0.0419048
-0.0419041
-0.041903
-0.0419023
-0.0419012
-0.0419003
-0.0418993
-0.0418984
-0.0418974
-0.0418965
-0.0418955
-0.0418945
-0.0418934
-0.0418924
-0.0418914
-0.0418903
-0.041889
-0.0418882
-0.0418869
-0.0418859
-0.0418849
-0.0418838
-0.0418826
-0.0418814
-0.0418802
-0.041879
-0.041878
-0.0418766
-0.0418754
-0.0418742
-0.041873
-0.0418719
-0.0418703
-0.0418692
-0.0418681
-0.0418665
-0.0418653
-0.0418641
-0.0418627
-0.0418611
-0.0418599
-0.0418588
-0.0418572
-0.0418558
-0.0418543
-0.0418528
-0.0418515
-0.0418499
-0.0418484
-0.041847
-0.0418455
-0.0418442
-0.0418425
-0.0418409
-0.0418394
-0.0418379
-0.0418363
-0.0418346
-0.0418331
-0.0418314
-0.0418297
-0.0418281
-0.0418266
-0.0418249
-0.0418233
-0.0418215
-0.0418199
-0.041818
-0.0585471
-0.0585471
-0.0585473
-0.0585473
-0.0585475
-0.0585478
-0.0585479
-0.0585479
-0.058548
-0.0585481
-0.0585481
-0.0585481
-0.0585483
-0.0585484
-0.0585485
-0.0585486
-0.0585486
-0.0585487
-0.0585487
-0.0585486
-0.0585486
-0.0585488
-0.0585487
-0.0585488
-0.0585488
-0.0585486
-0.0585488
-0.0585488
-0.0585487
-0.0585487
-0.0585485
-0.0585484
-0.0585483
-0.0585481
-0.0585481
-0.0585481
-0.058548
-0.0585477
-0.0585478
-0.0585475
-0.0585472
-0.0585472
-0.0585471
-0.0585467
-0.0585464
-0.0585463
-0.0585459
-0.0585457
-0.0585455
-0.0585452
-0.0585449
-0.0585445
-0.0585441
-0.0585439
-0.0585433
-0.0585429
-0.0585427
-0.0585422
-0.0585419
-0.0585415
-0.058541
-0.0585406
-0.0585401
-0.0585396
-0.0585392
-0.0585385
-0.058538
-0.0585375
-0.058537
-0.0585362
-0.0585358
-0.058535
-0.0585347
-0.058534
-0.0585333
-0.0585326
-0.058532
-0.0585313
-0.0585306
-0.0585297
-0.0585288
-0.0585283
-0.0585275
-0.0585267
-0.0585259
-0.0585252
-0.0585242
-0.0585232
-0.0585223
-0.0585215
-0.0585206
-0.0585198
-0.0585188
-0.0585177
-0.0585168
-0.0585158
-0.0585148
-0.0585138
-0.0585127
-0.0585117
-0.0585105
-0.0583935
-0.0583942
-0.0583948
-0.0583954
-0.058396
-0.0583966
-0.0583973
-0.0583981
-0.0583987
-0.0583993
-0.0583997
-0.0584006
-0.0584011
-0.0584018
-0.0584024
-0.0584029
-0.0584036
-0.0584044
-0.0584049
-0.0584055
-0.0584062
-0.0584068
-0.0584074
-0.0584081
-0.0584084
-0.0584093
-0.0584098
-0.0584104
-0.0584109
-0.0584116
-0.0584122
-0.0584127
-0.0584134
-0.0584139
-0.0584146
-0.0584152
-0.0584156
-0.0584163
-0.0584168
-0.0584174
-0.058418
-0.0584185
-0.0584189
-0.0584197
-0.0584201
-0.0584205
-0.0584212
-0.0584217
-0.0584222
-0.0584227
-0.0584234
-0.0584238
-0.0584244
-0.0584248
-0.0584253
-0.0584258
-0.0584264
-0.0584269
-0.0584272
-0.0584278
-0.0584282
-0.0584287
-0.0584293
-0.0584296
-0.0584301
-0.0584304
-0.058431
-0.0584315
-0.0584319
-0.0584322
-0.0584328
-0.058433
-0.0584336
-0.0584341
-0.0584341
-0.0584347
-0.0584352
-0.0584354
-0.0584358
-0.0584361
-0.0584366
-0.0584368
-0.0584373
-0.0584376
-0.058438
-0.0584384
-0.0584385
-0.0584391
-0.0584393
-0.0584395
-0.0584399
-0.0584402
-0.0584404
-0.0584406
-0.0584409
-0.0584415
-0.0584417
-0.0584419
-0.0584423
-0.0584425
-0.0584427
-0.0453903
-0.0453908
-0.0453912
-0.0453917
-0.0453922
-0.0453927
-0.0453932
-0.0453938
-0.0453942
-0.0453949
-0.0453952
-0.0453958
-0.0453963
-0.0453967
-0.0453974
-0.0453977
-0.0453982
-0.0453987
-0.0453993
-0.0454002
-0.0454005
-0.0454011
-0.0454016
-0.0454022
-0.0454028
-0.0454032
-0.045404
-0.0454048
-0.0454051
-0.0454056
-0.0454063
-0.045407
-0.0454075
-0.0454084
-0.0454088
-0.0454094
-0.0454102
-0.045411
-0.0454116
-0.0454124
-0.045413
-0.0454138
-0.0454145
-0.0454153
-0.0454161
-0.0454169
-0.0454177
-0.0454185
-0.0454193
-0.0454203
-0.045421
-0.0454219
-0.0454228
-0.0454237
-0.0454246
-0.0454255
-0.0454264
-0.0454273
-0.0454285
-0.0454293
-0.0454303
-0.0454314
-0.0454325
-0.0454335
-0.0454347
-0.0454356
-0.0454368
-0.0454379
-0.0454391
-0.0454403
-0.0454414
-0.0454425
-0.0454439
-0.0454451
-0.0454463
-0.0454475
-0.0454489
-0.0454503
-0.0454515
-0.0454529
-0.0454543
-0.0454557
-0.0454572
-0.0454585
-0.04546
-0.0454614
-0.0454629
-0.0454645
-0.0454661
-0.0454675
-0.0454691
-0.0454709
-0.0454724
-0.0454741
-0.0454757
-0.0454773
-0.0454789
-0.0454806
-0.0454823
-0.0454843
-0.045486
-0.0272615
-0.0272618
-0.0272619
-0.0272621
-0.027262
-0.0272624
-0.0272624
-0.0272628
-0.0272627
-0.0272627
-0.0272629
-0.0272634
-0.0272634
-0.0272635
-0.0272636
-0.027264
-0.0272639
-0.0272639
-0.0272642
-0.0272643
-0.0272646
-0.0272649
-0.027265
-0.027265
-0.0272654
-0.0272655
-0.0272659
-0.0272662
-0.0272664
-0.0272667
-0.0272668
-0.0272673
-0.0272678
-0.0272679
-0.0272685
-0.0272689
-0.027269
-0.0272699
-0.0272701
-0.0272707
-0.0272711
-0.0272719
-0.0272723
-0.0272727
-0.0272735
-0.0272741
-0.0272751
-0.0272757
-0.0272765
-0.027277
-0.027278
-0.0272787
-0.0272798
-0.0272808
-0.0272818
-0.0272829
-0.0272835
-0.0272849
-0.0272859
-0.0272872
-0.0272882
-0.0272899
-0.0272907
-0.0272925
-0.0272937
-0.0272949
-0.0272966
-0.0272981
-0.0272996
-0.0273011
-0.0273025
-0.0273047
-0.0273065
-0.0273079
-0.0273099
-0.0273116
-0.0273139
-0.0273157
-0.0273176
-0.0273195
-0.0273219
-0.0273238
-0.0273261
-0.0273284
-0.0273307
-0.027333
-0.0273356
-0.0273378
-0.0273403
-0.0273429
-0.0273459
-0.0273482
-0.027351
-0.0273537
-0.0273566
-0.0273596
-0.0273624
-0.0273655
-0.0273684
-0.0273715
-0.0273747
-0.0117674
-0.0117674
-0.0117673
-0.0117672
-0.011767
-0.0117669
-0.0117667
-0.0117666
-0.0117663
-0.0117661
-0.0117657
-0.0117656
-0.0117652
-0.0117645
-0.0117646
-0.0117641
-0.0117639
-0.0117636
-0.0117632
-0.0117629
-0.0117627
)
;

boundaryField
{
    movingWall
    {
        type            zeroGradient;
    }
    fixedWalls
    {
        type            zeroGradient;
    }
    frontAndBack
    {
        type            empty;
    }
}

