/*--------------------------------*- C++ -*----------------------------------*\
| =========                 |                                                 |
| \\      /  F ield         | OpenFOAM: The Open Source CFD Toolbox           |
|  \\    /   O peration     | Version:  v2006                                 |
|   \\  /    A nd           | Website:  www.openfoam.com                      |
|    \\/     M anipulation  |                                                 |
\*---------------------------------------------------------------------------*/
FoamFile
{
    version     2.0;
    format      ascii;
    class       volScalarField;
    location    "0";
    object      f;
}
// * * * * * * * * * * * * * * * * * * * * * * * * * * * * * * * * * * * * * //

dimensions      [0 0 0 0 0 0 0];


internalField   nonuniform List<scalar> 
2500
(
-1.20053e-23
-1.198e-23
-1.18174e-23
-1.13238e-23
-1.03518e-23
-8.89372e-24
-7.01762e-24
-4.75979e-24
-2.18773e-24
3.69028e-25
2.27378e-24
2.96099e-24
2.4319e-24
1.32819e-24
4.55917e-25
2.0647e-25
4.05112e-25
6.35688e-25
6.35505e-25
4.16326e-25
1.33971e-25
-7.7819e-26
-1.75016e-25
-1.81739e-25
-1.43305e-25
-9.54463e-26
-5.61117e-26
-2.98077e-26
-1.45125e-26
-6.53446e-27
-2.73617e-27
-1.06841e-27
-3.89005e-28
-1.31561e-28
-4.09192e-29
-1.14435e-29
-2.72037e-30
-4.51646e-31
1.77057e-32
6.25151e-32
3.83165e-32
1.77077e-32
7.15491e-33
2.65642e-33
9.27547e-34
3.08578e-34
9.86085e-35
3.04343e-35
9.10758e-36
2.65023e-36
-5.04938e-23
-5.03939e-23
-4.97308e-23
-4.76421e-23
-4.34393e-23
-3.71366e-23
-2.92524e-23
-2.01659e-23
-1.00751e-23
2.63362e-26
7.80872e-24
1.08985e-23
9.00649e-24
4.54058e-24
8.46075e-25
-2.67156e-25
6.2093e-25
1.77754e-24
2.0243e-24
1.33835e-24
3.38569e-25
-4.22241e-25
-7.54411e-25
-7.47178e-25
-5.76072e-25
-3.78078e-25
-2.19772e-25
-1.15665e-25
-5.58702e-26
-2.4988e-26
-1.04055e-26
-4.04596e-27
-1.46925e-27
-4.96693e-28
-1.54961e-28
-4.3754e-29
-1.06677e-29
-1.93353e-30
-4.69896e-32
1.84799e-31
1.23375e-31
5.8567e-32
2.39609e-32
8.95857e-33
3.14238e-33
1.04898e-33
3.36177e-34
1.04038e-34
3.12191e-35
9.11037e-36
-2.04537e-22
-2.04166e-22
-2.01623e-22
-1.93237e-22
-1.7587e-22
-1.49668e-22
-1.17664e-22
-8.23894e-23
-4.42858e-23
-5.70952e-24
2.52951e-23
3.89876e-23
3.28456e-23
1.54094e-23
1.57688e-25
-4.75935e-24
-1.00693e-24
4.39094e-24
6.27452e-24
4.2585e-24
7.66227e-25
-1.94628e-24
-3.07651e-24
-2.94882e-24
-2.23324e-24
-1.44665e-24
-8.31833e-25
-4.33639e-25
-2.07687e-25
-9.21839e-26
-3.81304e-26
-1.47415e-26
-5.32881e-27
-1.79596e-27
-5.59877e-28
-1.58598e-28
-3.91479e-29
-7.41739e-30
-4.12637e-31
5.49588e-31
3.93997e-31
1.90667e-31
7.86413e-32
2.95274e-32
1.03851e-32
3.47399e-33
1.11557e-33
3.45983e-34
1.04071e-34
3.0453e-35
-7.96063e-22
-7.94777e-22
-7.85698e-22
-7.53918e-22
-6.855e-22
-5.80888e-22
-4.55605e-22
-3.23999e-22
-1.86273e-22
-4.4407e-23
7.58866e-23
1.35545e-22
1.18551e-22
5.30097e-23
-8.46027e-24
-3.00762e-23
-1.51832e-23
8.5732e-24
1.90995e-23
1.36434e-23
1.55187e-24
-8.08957e-24
-1.19517e-23
-1.12e-23
-8.35911e-24
-5.35004e-24
-3.04322e-24
-1.57068e-24
-7.45302e-25
-3.27966e-25
-1.34581e-25
-5.16528e-26
-1.85507e-26
-6.21747e-27
-1.92999e-27
-5.45533e-28
-1.34959e-28
-2.59946e-29
-1.79088e-30
1.67622e-30
1.25091e-30
6.1056e-31
2.5249e-31
9.48866e-32
3.33883e-32
1.11759e-32
3.59249e-33
1.11592e-33
3.36386e-34
9.87006e-35
-2.96966e-21
-2.96549e-21
-2.93582e-21
-2.82308e-21
-2.56698e-21
-2.16623e-21
-1.69376e-21
-1.22384e-21
-7.51017e-22
-2.5117e-22
2.02652e-22
4.57556e-22
4.25489e-22
1.89154e-22
-5.29795e-23
-1.47731e-22
-9.27596e-23
6.66709e-24
5.78677e-23
4.48894e-23
3.2027e-24
-3.10817e-23
-4.44304e-23
-4.10137e-23
-3.02351e-23
-1.91285e-23
-1.07602e-23
-5.49433e-24
-2.58043e-24
-1.12439e-24
-4.57085e-25
-1.73869e-25
-6.1913e-26
-2.05826e-26
-6.33982e-27
-1.77889e-27
-4.37055e-28
-8.36666e-29
-5.75805e-30
5.31017e-30
3.94717e-30
1.91838e-30
7.90387e-31
2.96165e-31
1.04004e-31
3.47773e-32
1.11793e-32
3.47616e-33
1.04997e-33
3.08969e-34
-1.05908e-20
-1.05782e-20
-1.0492e-20
-1.01227e-20
-9.21605e-21
-7.74369e-21
-6.02684e-21
-4.42898e-21
-2.90602e-21
-1.23146e-21
4.29872e-22
1.4951e-21
1.52279e-21
7.10208e-22
-2.22173e-22
-6.35534e-22
-4.5032e-22
-5.22164e-23
1.77216e-22
1.54e-22
1.04132e-23
-1.11757e-22
-1.58572e-22
-1.45011e-22
-1.05738e-22
-6.612e-23
-3.67553e-23
-1.85483e-23
-8.61129e-24
-3.71021e-24
-1.49172e-24
-5.61301e-25
-1.97722e-25
-6.50116e-26
-1.97944e-26
-5.48272e-27
-1.32502e-27
-2.46314e-28
-1.36772e-29
1.74266e-29
1.23267e-29
5.88525e-30
2.39933e-30
8.92676e-31
3.11994e-31
1.04035e-31
3.34089e-32
1.03949e-32
3.14642e-33
9.29049e-34
-3.60091e-20
-3.59727e-20
-3.57642e-20
-3.46754e-20
-3.16614e-20
-2.64704e-20
-2.04466e-20
-1.53046e-20
-1.08021e-20
-5.53437e-21
3.50339e-22
4.69274e-21
5.43048e-21
2.7947e-21
-7.11856e-22
-2.49841e-21
-1.95167e-21
-4.19348e-22
5.54941e-22
5.5251e-22
5.76413e-23
-3.78501e-22
-5.44788e-22
-4.95639e-22
-3.57663e-22
-2.20907e-22
-1.21208e-22
-6.0365e-23
-2.76598e-23
-1.17631e-23
-4.66838e-24
-1.73366e-24
-6.02458e-25
-1.95248e-25
-5.84947e-26
-1.58865e-26
-3.73232e-27
-6.53557e-28
-1.59364e-29
5.81212e-29
3.77645e-29
1.74848e-29
7.00302e-30
2.575e-30
8.9292e-31
2.96339e-31
9.49753e-32
2.95658e-32
8.9735e-33
2.6618e-33
-1.16369e-19
-1.16266e-19
-1.15924e-19
-1.13202e-19
-1.03911e-19
-8.63056e-20
-6.57925e-20
-5.02559e-20
-3.85992e-20
-2.34006e-20
-3.31269e-21
1.39096e-20
1.91999e-20
1.12964e-20
-1.55446e-21
-9.15952e-21
-7.90542e-21
-2.21281e-21
1.77924e-21
2.05243e-21
3.45947e-22
-1.2115e-21
-1.80611e-21
-1.63951e-21
-1.17037e-21
-7.12997e-22
-3.85472e-22
-1.89104e-22
-8.53483e-23
-3.5749e-23
-1.39699e-23
-5.10543e-24
-1.74414e-24
-5.54661e-25
-1.62521e-25
-4.2886e-26
-9.63124e-27
-1.50973e-27
6.00086e-29
1.91476e-28
1.11924e-28
4.9653e-29
1.93836e-29
7.00457e-30
2.40059e-30
7.91089e-31
2.52816e-31
7.87761e-32
2.4012e-32
7.17304e-33
-3.56248e-19
-3.55933e-19
-3.56051e-19
-3.5137e-19
-3.25477e-19
-2.67707e-19
-1.99221e-19
-1.55616e-19
-1.32585e-19
-9.44457e-20
-2.87654e-20
3.7507e-20
6.67284e-20
4.5777e-20
4.26754e-23
-3.16574e-20
-3.0683e-20
-1.0212e-20
5.77888e-21
7.77203e-21
1.88601e-21
-3.66847e-21
-5.79268e-21
-5.25453e-21
-3.7049e-21
-2.22124e-21
-1.18043e-21
-5.69035e-22
-2.52318e-22
-1.03801e-22
-3.9814e-23
-1.42648e-23
-4.76799e-24
-1.47862e-24
-4.20015e-25
-1.06191e-25
-2.21569e-26
-2.77135e-27
5.38396e-28
6.0408e-28
3.14228e-28
1.31876e-28
4.96586e-29
1.74914e-29
5.88976e-30
1.92075e-30
6.11633e-31
1.91104e-31
5.87311e-32
1.77655e-32
-1.02925e-18
-1.02817e-18
-1.03196e-18
-1.03465e-18
-9.7348e-19
-7.87918e-19
-5.5999e-19
-4.4807e-19
-4.36793e-19
-3.66675e-19
-1.63058e-19
8.36455e-20
2.25718e-19
1.82616e-19
2.51626e-20
-1.03579e-19
-1.15858e-19
-4.45491e-20
1.86805e-20
2.9624e-20
9.28311e-21
-1.04983e-20
-1.80262e-20
-1.63351e-20
-1.13428e-20
-6.67053e-21
-3.47325e-21
-1.63994e-21
-7.12042e-22
-2.86646e-22
-1.0745e-22
-3.75401e-23
-1.21913e-23
-3.65131e-24
-9.91085e-25
-2.34142e-25
-4.27322e-26
-2.67096e-27
2.53789e-27
1.76373e-27
8.07178e-28
3.1419e-28
1.1193e-28
3.77816e-29
1.23396e-29
3.9542e-30
1.25413e-30
3.95315e-31
1.23872e-31
3.84914e-32
-2.79445e-18
-2.79035e-18
-2.80793e-18
-2.88524e-18
-2.78943e-18
-2.19394e-18
-1.42064e-18
-1.16511e-18
-1.36949e-18
-1.37235e-18
-7.85002e-19
1.0114e-19
7.37563e-19
7.11809e-19
1.88073e-19
-3.19316e-19
-4.29143e-19
-1.89338e-19
5.89863e-20
1.13026e-19
4.21863e-20
-2.83189e-20
-5.46371e-20
-4.93221e-20
-3.35654e-20
-1.92714e-20
-9.78872e-21
-4.50785e-21
-1.90802e-21
-7.47819e-22
-2.72244e-22
-9.19895e-23
-2.86958e-23
-8.16077e-24
-2.05822e-24
-4.2937e-25
-5.6501e-26
6.9978e-27
9.09359e-27
4.53113e-27
1.76262e-27
6.03614e-28
1.91385e-28
5.81404e-29
1.7456e-29
5.32851e-30
1.68508e-30
5.53309e-31
1.86219e-31
6.30189e-32
-7.09494e-18
-7.07965e-18
-7.12365e-18
-7.6107e-18
-7.71802e-18
-5.75464e-18
-3.02183e-18
-2.54034e-18
-4.00885e-18
-4.94361e-18
-3.42573e-18
-3.52402e-19
2.33329e-18
2.72587e-18
1.02713e-18
-9.07771e-19
-1.56303e-18
-7.9235e-19
1.78333e-19
4.32188e-19
1.80791e-19
-7.19107e-20
-1.62221e-19
-1.44864e-19
-9.58957e-20
-5.34011e-20
-2.63054e-20
-1.17478e-20
-4.81722e-21
-1.82435e-21
-6.38626e-22
-2.05768e-22
-6.03426e-23
-1.57161e-23
-3.42893e-24
-5.14832e-25
1.53245e-26
5.15535e-26
2.57576e-26
9.07795e-27
2.52953e-27
5.35427e-28
5.92528e-29
-1.60265e-29
-1.36344e-29
-5.71691e-30
-1.76858e-30
-4.0281e-31
-4.31453e-32
1.9089e-32
-1.67472e-17
-1.66959e-17
-1.66831e-17
-1.89679e-17
-2.09074e-17
-1.41126e-17
-3.96635e-18
-3.47483e-18
-1.05116e-17
-1.7175e-17
-1.39233e-17
-3.50973e-18
7.3391e-18
1.04784e-17
4.89679e-18
-2.23927e-18
-5.5888e-18
-3.27074e-18
4.9601e-19
1.66508e-18
7.42464e-19
-1.74328e-19
-4.76118e-19
-4.14689e-19
-2.6398e-19
-1.4127e-19
-6.69476e-20
-2.8762e-20
-1.13196e-20
-4.09148e-21
-1.35258e-21
-4.03758e-22
-1.05724e-22
-2.25924e-23
-2.9999e-24
3.48166e-25
4.29652e-25
1.83742e-25
5.13815e-26
6.89561e-27
-2.71334e-27
-2.78559e-27
-1.51363e-27
-6.54334e-28
-2.46345e-28
-8.35939e-29
-2.5944e-29
-7.39315e-30
-1.92367e-30
-4.48023e-31
-3.64774e-17
-3.63358e-17
-3.54703e-17
-4.45004e-17
-5.65279e-17
-3.20527e-17
7.20798e-18
5.22406e-18
-2.25638e-17
-5.9081e-17
-5.39251e-17
-1.81496e-17
2.43348e-17
4.20869e-17
2.17017e-17
-3.95125e-18
-1.95652e-17
-1.332e-17
1.09717e-18
6.50659e-18
2.95649e-18
-4.36242e-19
-1.40134e-18
-1.15956e-18
-6.97618e-19
-3.5414e-19
-1.59632e-19
-6.51821e-20
-2.42396e-20
-8.16787e-21
-2.44982e-21
-6.25997e-22
-1.19762e-22
-6.8133e-24
7.73865e-24
4.81901e-24
1.78322e-24
4.28025e-25
1.42888e-26
-5.69684e-26
-4.29081e-26
-2.22143e-26
-9.64746e-27
-3.73607e-27
-1.32557e-27
-4.36989e-28
-1.34858e-28
-3.90923e-29
-1.06438e-29
-2.71132e-30
-7.25198e-17
-7.22617e-17
-6.61407e-17
-9.74997e-17
-1.56696e-16
-6.77249e-17
9.12968e-17
6.90189e-17
-3.06921e-17
-2.20845e-16
-2.07572e-16
-7.2642e-17
9.06931e-17
1.93659e-16
9.28529e-17
-1.79491e-19
-6.67486e-17
-5.39365e-17
4.13619e-19
2.6043e-17
1.15616e-17
-1.39252e-18
-4.21893e-18
-3.17147e-18
-1.7571e-18
-8.3053e-19
-3.50128e-19
-1.33146e-19
-4.53511e-20
-1.34514e-20
-3.21157e-21
-4.43048e-22
9.72061e-23
1.09493e-22
5.42147e-23
1.92905e-23
4.80529e-24
3.38946e-25
-5.19251e-25
-4.31155e-25
-2.3478e-25
-1.06396e-25
-4.29444e-26
-1.59009e-26
-5.48546e-27
-1.77907e-27
-5.45369e-28
-1.5848e-28
-4.36989e-29
-1.14219e-29
-1.29184e-16
-1.29312e-16
-9.73719e-17
-2.06261e-16
-4.89985e-16
-1.35141e-16
5.6979e-16
4.02299e-16
7.49555e-18
-1.06617e-15
-8.66272e-16
-2.34131e-16
1.77229e-15
1.38138e-15
3.89488e-16
2.77135e-17
-2.32257e-16
-2.28729e-16
-1.51589e-17
1.10274e-16
4.566e-17
-6.69458e-18
-1.32527e-17
-8.4534e-18
-4.15253e-18
-1.77859e-18
-6.8199e-19
-2.31599e-19
-6.63762e-20
-1.36603e-20
-1.83934e-22
1.73599e-21
1.18008e-21
5.44168e-22
1.96933e-22
5.41098e-23
7.66481e-24
-3.03707e-24
-3.44478e-24
-2.06424e-24
-9.93168e-25
-4.20673e-25
-1.6271e-25
-5.85429e-26
-1.98046e-26
-6.3412e-27
-1.92983e-27
-5.59646e-28
-1.5484e-28
-4.08696e-29
-1.99207e-16
-2.03166e-16
-4.78626e-17
-1.16953e-15
-2.47343e-15
2.41996e-15
2.16878e-15
1.74619e-15
-1.70618e-14
-4.33024e-15
-3.10897e-15
2.6984e-14
2.44284e-14
6.78504e-15
1.08984e-15
-1.56179e-15
-2.74619e-15
-1.18859e-15
-9.82512e-17
6.56848e-16
1.93281e-16
-4.25193e-17
-4.37325e-17
-2.14977e-17
-8.86938e-18
-3.30003e-18
-1.086e-18
-2.88962e-19
-4.16115e-20
1.53493e-20
1.78209e-20
1.05128e-20
4.78925e-21
1.79903e-21
5.43435e-22
1.08955e-22
-7.09637e-24
-2.27187e-23
-1.57666e-23
-8.1792e-24
-3.65753e-24
-1.48056e-24
-5.55217e-25
-1.95392e-25
-6.50439e-26
-2.0588e-26
-6.21761e-27
-1.79555e-27
-4.9644e-28
-1.31452e-28
-2.50353e-16
-2.74601e-16
9.32798e-16
-1.61632e-14
-1.07117e-14
8.63503e-14
-2.84321e-14
-1.52854e-13
-3.00827e-13
2.44084e-13
5.99618e-13
4.47424e-13
8.81999e-14
-5.07897e-14
-1.63694e-13
-8.64295e-14
-2.72662e-14
-4.25848e-15
1.37943e-14
6.48792e-15
7.22413e-16
-3.47933e-16
-1.47339e-16
-4.81038e-17
-1.54159e-17
-4.5775e-18
-1.03457e-18
-1.29547e-20
1.77496e-19
1.4299e-19
8.03231e-20
3.70992e-20
1.4578e-20
4.78456e-21
1.17649e-21
9.52389e-23
-1.20677e-22
-1.06105e-22
-6.04884e-23
-2.87475e-23
-1.22084e-23
-4.77327e-24
-1.74565e-24
-6.02851e-25
-1.97812e-25
-6.19297e-26
-1.85521e-26
-5.32814e-27
-1.46874e-27
-3.88772e-28
6.20479e-13
1.118e-13
1.22271e-14
-6.47008e-14
5.28759e-13
3.8117e-13
-2.21396e-12
-2.93272e-12
-1.09994e-12
3.80099e-12
4.68486e-12
1.51726e-12
-4.0738e-12
-3.91077e-12
-1.42943e-12
-3.69366e-13
-7.5434e-14
3.00952e-13
1.59867e-13
2.32949e-14
-1.01424e-14
-3.21379e-15
-3.76391e-16
-6.46167e-17
-1.3777e-17
-1.70512e-18
1.18148e-18
1.40033e-18
9.66348e-19
5.3465e-19
2.53701e-19
1.04774e-19
3.70717e-20
1.04908e-20
1.72347e-21
-4.49099e-22
-6.2862e-22
-4.04802e-22
-2.06155e-22
-9.21234e-23
-3.75836e-23
-1.4278e-23
-5.1092e-24
-1.73464e-24
-5.6153e-25
-1.73913e-25
-5.16578e-26
-1.47405e-26
-4.04494e-27
-1.06793e-27
6.24282e-12
4.65231e-12
1.98722e-12
1.60473e-12
5.01389e-12
-3.77829e-12
-1.0533e-11
-8.92855e-12
2.29903e-11
1.04072e-11
9.77527e-12
-1.91982e-11
-4.34567e-11
-1.53741e-11
-3.03483e-12
-8.00445e-14
5.43145e-12
2.78832e-12
4.73211e-13
-2.62499e-13
-9.94796e-14
-9.15706e-15
3.77578e-16
9.87279e-17
2.85622e-17
1.41976e-17
9.13621e-18
5.63162e-18
3.10548e-18
1.52625e-18
6.65984e-19
2.53553e-19
8.02002e-20
1.7748e-20
-2.2054e-22
-3.22804e-21
-2.45662e-21
-1.3552e-21
-6.3957e-22
-2.72564e-22
-1.07552e-22
-3.98449e-23
-1.39786e-23
-4.67064e-24
-1.49225e-24
-4.57187e-25
-1.34593e-25
-3.81287e-26
-1.04034e-26
-2.73517e-27
1.69796e-11
2.153e-11
2.1988e-11
2.92406e-11
1.48721e-11
-4.84325e-11
-2.38267e-11
4.98554e-11
4.30272e-10
-6.65214e-11
-8.01114e-10
-5.40663e-10
-1.28315e-10
3.72747e-11
1.83552e-10
1.23944e-10
4.43353e-11
7.18025e-12
-5.83304e-12
-2.34292e-12
-2.41506e-13
1.28833e-14
3.39822e-15
4.22719e-16
9.98218e-17
4.60634e-17
2.72365e-17
1.54634e-17
7.97259e-18
3.70613e-18
1.52553e-18
5.34023e-19
1.42603e-19
1.51472e-20
-1.37546e-20
-1.34918e-20
-8.18399e-21
-4.09751e-21
-1.82648e-21
-7.48528e-22
-2.86869e-22
-1.03868e-22
-3.57675e-23
-1.17679e-23
-3.71131e-24
-1.12461e-24
-3.27992e-25
-9.21804e-26
-2.49838e-26
-6.53244e-27
2.56276e-11
5.14356e-11
8.73919e-11
1.09995e-10
-5.54184e-11
-1.25703e-10
1.86741e-09
4.30682e-09
1.68827e-09
-3.89251e-09
-6.06006e-09
-2.6749e-09
1.2918e-09
3.23472e-09
2.01798e-09
6.49761e-10
1.03306e-10
-1.07271e-10
-4.64113e-11
-5.3699e-12
2.67349e-13
8.19476e-14
6.49295e-15
-3.70552e-17
4.5497e-17
7.95175e-17
6.16378e-17
3.5522e-17
1.77656e-17
7.96939e-18
3.10257e-18
9.64479e-19
1.76482e-19
-4.21028e-20
-6.65944e-20
-4.54412e-20
-2.42746e-20
-1.13324e-20
-4.82164e-21
-1.90947e-21
-7.12491e-22
-2.5245e-22
-8.53844e-23
-2.7669e-23
-8.61335e-24
-2.58082e-24
-7.45343e-25
-2.07677e-25
-5.58614e-26
-1.45084e-26
4.35829e-11
8.37796e-11
2.23629e-10
2.20847e-10
-8.7045e-10
6.28832e-09
2.17864e-08
2.06472e-08
2.80369e-10
-1.85125e-08
-1.2071e-08
-5.43656e-09
2.22744e-08
1.48808e-08
4.94616e-09
1.17631e-09
-1.58593e-09
-7.40367e-10
-9.90831e-11
4.3267e-12
1.45041e-12
1.31417e-13
-3.59127e-15
-1.0338e-15
-1.14319e-16
1.71997e-16
1.42949e-16
7.52924e-17
3.55092e-17
1.54512e-17
5.62346e-18
1.39573e-18
-1.5265e-20
-2.90025e-19
-2.32054e-19
-1.33328e-19
-6.52512e-20
-2.87867e-20
-1.17562e-20
-4.51056e-21
-1.64076e-21
-5.69274e-22
-1.89168e-22
-6.03808e-23
-1.85517e-23
-5.49493e-24
-1.57072e-24
-4.33611e-25
-1.15646e-25
-2.97994e-26
7.73644e-11
9.75266e-11
3.11888e-10
1.73088e-10
-3.63838e-09
3.03096e-08
5.48915e-08
4.17189e-08
-1.01776e-07
-4.74116e-08
1.19728e-07
2.45956e-07
8.28526e-08
2.46517e-08
-1.54184e-08
-3.06275e-08
-1.15677e-08
-1.50233e-09
5.75251e-11
2.07248e-11
2.21324e-12
-5.12705e-14
-1.50149e-14
-2.072e-15
-1.67864e-16
7.66969e-16
3.68995e-16
1.42902e-16
6.15921e-17
2.72046e-17
9.11745e-18
1.17174e-18
-1.03921e-18
-1.08806e-18
-6.82841e-19
-3.50462e-19
-1.59756e-19
-6.69912e-20
-2.632e-20
-9.79335e-21
-3.47464e-21
-1.18083e-21
-3.85574e-22
-1.21232e-22
-3.67602e-23
-1.07609e-23
-3.04319e-24
-8.31756e-25
-2.19731e-25
-5.6095e-26
-1.39266e-07
-1.85496e-07
-3.85725e-07
-2.60958e-07
-2.84719e-08
5.27944e-08
-1.62927e-07
-1.13303e-06
-9.44884e-07
8.99707e-07
2.72974e-06
1.74122e-06
4.77956e-08
-1.17952e-06
-8.62492e-07
-2.76551e-07
-2.71142e-08
5.26229e-10
2.25102e-10
3.35057e-11
-3.636e-13
-1.25947e-13
4.49301e-15
3.34932e-14
2.15638e-14
5.98113e-15
7.66849e-16
1.71849e-16
7.94077e-17
4.59955e-17
1.41608e-17
-1.72308e-18
-4.58567e-18
-3.30353e-18
-1.78001e-18
-8.31075e-19
-3.5434e-19
-1.4134e-19
-5.3424e-20
-1.92786e-20
-6.67263e-21
-2.22182e-21
-7.13143e-22
-2.2094e-22
-6.61257e-23
-1.91288e-23
-5.34976e-24
-1.44645e-24
-3.77991e-25
-9.54136e-26
-2.52368e-06
-2.53549e-06
-2.65762e-06
-2.4489e-06
-1.20529e-06
-2.44554e-06
-8.32552e-06
-8.48871e-06
-2.77354e-06
7.88557e-06
1.12044e-05
4.34682e-06
-1.0303e-05
-8.73524e-06
-3.76632e-06
-7.59424e-07
-7.53223e-09
8.93946e-10
3.43803e-10
2.76961e-11
-1.90329e-13
8.51312e-14
4.84463e-13
3.82626e-13
1.47156e-13
2.15651e-14
-1.68285e-16
-1.14675e-16
4.52833e-17
9.96993e-17
2.84996e-17
-1.38054e-17
-1.54283e-17
-8.87453e-18
-4.15458e-18
-1.75788e-18
-6.97902e-19
-2.64078e-19
-9.59277e-20
-3.35752e-20
-1.13456e-20
-3.70565e-21
-1.17055e-21
-3.57697e-22
-1.05741e-22
-3.0234e-23
-8.35817e-24
-2.23278e-24
-5.75895e-25
-1.43242e-25
-8.95579e-06
-8.49838e-06
-6.84465e-06
-6.89795e-06
-1.04039e-05
-2.27203e-05
-3.34461e-05
-2.69877e-05
8.85435e-06
2.98807e-05
2.27239e-05
-5.21575e-05
-5.28922e-05
-2.28704e-05
-6.73801e-06
-9.1575e-07
1.5378e-09
7.85179e-10
3.11802e-10
6.28969e-11
9.57483e-13
2.51991e-12
1.8226e-12
1.16863e-12
3.82639e-13
3.34965e-14
-2.07334e-15
-1.03466e-15
-3.74003e-17
4.22513e-16
9.86327e-17
-6.46536e-17
-4.81189e-17
-2.15039e-17
-8.45591e-18
-3.17244e-18
-1.15991e-18
-4.14811e-19
-1.44904e-19
-4.9334e-20
-1.63384e-20
-5.25533e-21
-1.63968e-21
-4.95657e-22
-1.45006e-22
-4.1009e-23
-1.11977e-23
-2.94787e-24
-7.46831e-25
-1.81622e-25
-1.56592e-05
-1.46055e-05
-9.40214e-06
-9.35072e-06
-3.25312e-05
-6.26941e-05
-5.84656e-05
-4.15017e-05
9.0595e-05
6.18304e-05
-0.000180497
-0.00038936
-0.000122922
-2.30221e-06
0.000102993
6.72512e-05
4.92974e-06
1.27249e-09
6.93272e-10
1.16041e-09
3.93784e-10
2.09229e-11
3.64522e-12
1.82265e-12
4.84489e-13
4.4916e-15
-1.50192e-14
-3.5928e-15
6.49188e-15
3.39768e-15
3.77442e-16
-3.76414e-16
-1.4735e-16
-4.3738e-17
-1.32552e-17
-4.21996e-18
-1.40172e-18
-4.76251e-19
-1.62264e-19
-5.46494e-20
-1.80293e-20
-5.79331e-21
-1.80618e-21
-5.44758e-22
-1.58547e-22
-4.44179e-23
-1.19466e-23
-3.0746e-24
-7.53754e-25
-1.74802e-25
-3.6723e-06
-1.10132e-06
2.18766e-05
1.76873e-05
-4.85591e-05
-8.57881e-05
2.21987e-05
0.000460669
0.000312606
-0.00102818
-0.00249174
-0.00134575
0.00331105
0.0125225
0.0208388
0.0228062
0.0191229
0.0121713
0.00565381
0.00165641
0.000142067
1.10471e-11
2.09236e-11
2.52002e-12
8.5124e-14
-1.25964e-13
-5.12783e-14
1.31406e-13
8.19414e-14
1.28821e-14
-9.15654e-15
-3.2136e-15
-3.47925e-16
-4.25237e-17
-6.69703e-18
-1.39356e-18
-4.3663e-19
-1.74459e-19
-7.19501e-20
-2.83291e-20
-1.05002e-20
-3.66852e-21
-1.2113e-21
-3.78364e-22
-1.1169e-22
-3.10542e-23
-8.0792e-24
-1.94264e-24
-4.21032e-25
-7.74365e-26
0.000578974
0.000605972
0.000749285
0.00063489
9.74526e-05
0.000112149
0.00175402
0.00275998
0.000136958
-0.00591968
-0.00933123
-0.00184112
0.0258359
0.0685312
0.107729
0.122072
0.110575
0.0803362
0.0456048
0.0188798
0.00449028
0.000142067
3.93802e-10
9.57356e-13
-1.90387e-13
-3.6362e-13
2.21312e-12
1.45034e-12
2.67333e-13
-2.41493e-13
-9.94739e-14
-1.01417e-14
7.22353e-16
1.93264e-16
4.56557e-17
1.15604e-17
2.95609e-18
7.42351e-19
1.80764e-19
4.21825e-20
9.28418e-21
1.88727e-21
3.46684e-22
5.79874e-23
1.05571e-23
3.25774e-24
1.57159e-24
7.7292e-25
3.40737e-25
1.34645e-25
0.00258454
0.00266851
0.0030015
0.00252979
0.00102195
0.00207279
0.00677695
0.00794491
-0.00158395
-0.0172866
-0.0213155
0.00663013
0.0791735
0.18443
0.282806
0.325097
0.303547
0.231108
0.140113
0.0641118
0.0188798
0.00165641
1.16047e-09
6.28966e-11
2.76939e-11
3.35041e-11
2.07239e-11
4.3265e-12
-5.36964e-12
-2.34281e-12
-2.62485e-13
2.32934e-14
6.48746e-15
6.56813e-16
1.1027e-16
2.60421e-17
6.50636e-18
1.66504e-18
4.32195e-19
1.13037e-19
2.96314e-20
7.77589e-21
2.05418e-21
5.53238e-22
1.54282e-22
4.49925e-23
1.36792e-23
4.27037e-24
1.34213e-24
4.17483e-25
0.00600712
0.00618132
0.00672039
0.00558738
0.00309868
0.00587994
0.0152618
0.0157491
-0.00562466
-0.0351072
-0.0349883
0.0260886
0.16152
0.348962
0.526751
0.612297
0.584176
0.458751
0.289604
0.140113
0.0456048
0.00565382
6.9332e-10
3.11817e-10
3.438e-10
2.25096e-10
5.7523e-11
-9.90787e-11
-4.64092e-11
-5.83277e-12
4.73183e-13
1.59857e-13
1.37934e-14
-9.82347e-17
-1.51538e-17
4.15041e-19
1.09763e-18
4.96195e-19
1.7842e-19
5.90282e-20
1.86998e-20
5.78735e-21
1.78274e-21
5.56314e-22
1.77726e-22
5.80491e-23
1.91612e-23
6.29465e-24
2.03062e-24
6.37421e-25
0.00940737
0.00967927
0.0103548
0.00860646
0.00508286
0.00988257
0.0240936
0.0236762
-0.0109995
-0.0534182
-0.0470519
0.0507202
0.247417
0.510265
0.763585
0.89855
0.873484
0.704097
0.458751
0.231108
0.0803362
0.0121713
1.27254e-09
7.85268e-10
8.93972e-10
5.2622e-10
-1.50226e-09
-7.40337e-10
-1.07267e-10
7.17986e-12
2.78816e-12
3.00933e-13
-4.25819e-15
-1.18851e-15
-2.28716e-16
-5.3933e-17
-1.33188e-17
-3.27026e-18
-7.9215e-19
-1.89251e-19
-4.4512e-20
-1.01967e-20
-2.20669e-21
-4.17016e-22
-5.13666e-23
6.96402e-24
8.67285e-24
4.42312e-24
1.78756e-24
6.38701e-25
0.0103171
0.0106257
0.0114149
0.00935773
0.00523867
0.0108906
0.0280924
0.0274658
-0.0146265
-0.0646983
-0.0537491
0.066094
0.295633
0.59715
0.894059
1.06917
1.05768
0.873484
0.584176
0.303547
0.110575
0.0191229
4.92968e-06
1.53774e-09
-7.53024e-09
-2.71126e-08
-1.15672e-08
-1.58587e-09
1.03301e-10
4.43329e-11
5.43114e-12
-7.54294e-14
-2.72644e-14
-2.74601e-15
-2.32255e-16
-6.67463e-17
-1.9564e-17
-5.5882e-18
-1.56275e-18
-4.29012e-19
-1.15801e-19
-3.06593e-20
-7.89603e-21
-1.94812e-21
-4.49035e-22
-9.23135e-23
-1.50344e-23
-9.59153e-25
6.35726e-25
4.09539e-25
0.00694506
0.00721372
0.00808913
0.0063536
0.00196747
0.00634545
0.0231726
0.0246846
-0.0139415
-0.0633845
-0.0549267
0.0586304
0.279688
0.574714
0.875438
1.06765
1.06917
0.898551
0.612297
0.325097
0.122072
0.0228061
6.72507e-05
-9.15701e-07
-7.5939e-07
-2.76541e-07
-3.06265e-08
1.17626e-09
6.4973e-10
1.23938e-10
-8.00788e-14
-3.6935e-13
-8.64241e-14
-1.56161e-15
2.77104e-17
-1.79868e-19
-3.95072e-18
-2.23876e-18
-9.07458e-19
-3.19156e-19
-1.03505e-19
-3.16258e-20
-9.1468e-21
-2.49357e-21
-6.33777e-22
-1.47121e-22
-2.98729e-23
-4.69419e-24
-2.47019e-25
2.1248e-25
0.000348533
0.000473912
0.00126757
0.000599662
-0.00303767
-0.00231069
0.00900688
0.0151482
-0.00605499
-0.0443927
-0.0504571
0.0171605
0.178882
0.4211
0.687729
0.875438
0.894059
0.763585
0.526751
0.282806
0.107729
0.0208388
0.000102992
-6.73782e-06
-3.76622e-06
-8.62467e-07
-1.54179e-08
4.94596e-09
2.01789e-09
1.83542e-10
-3.03477e-12
-1.42936e-12
-1.63681e-13
1.08983e-15
3.8947e-16
9.28487e-17
2.17014e-17
4.89715e-18
1.02744e-18
1.8825e-19
2.52486e-20
8.05677e-23
-1.53896e-21
-7.0589e-22
-2.19995e-22
-5.2221e-23
-8.20716e-24
2.38848e-25
8.71146e-25
4.63394e-25
-0.00405144
-0.00410061
-0.00362052
-0.00314261
-0.00514291
-0.00770083
-0.00425986
0.00462961
0.00447299
-0.0151889
-0.039978
-0.0321477
0.0484638
0.214581
0.4211
0.574714
0.59715
0.510265
0.348962
0.18443
0.0685312
0.0125225
-2.3021e-06
-2.287e-05
-8.73505e-06
-1.17949e-06
2.46512e-08
1.48803e-08
3.23456e-09
3.72659e-11
-1.53737e-11
-3.9105e-12
-5.07703e-14
6.78516e-15
1.3813e-15
1.93647e-16
4.20857e-17
1.04787e-17
2.72619e-18
7.12001e-19
1.82711e-19
4.58192e-20
1.13138e-20
2.80142e-21
7.12669e-22
1.90013e-22
5.32966e-23
1.55015e-23
4.56901e-24
1.33667e-24
-0.00344935
-0.0035837
-0.00349237
-0.00260168
-0.00255319
-0.00587808
-0.0081794
-0.00163061
0.0100531
0.00717713
-0.0224331
-0.053399
-0.0387986
0.0484638
0.178882
0.279688
0.295633
0.247417
0.16152
0.0791735
0.0258359
0.00331105
-0.000122921
-5.28915e-05
-1.03028e-05
4.781e-08
8.28519e-08
2.22735e-08
1.29161e-09
-1.28309e-10
-4.34539e-11
-4.07339e-12
8.81967e-14
2.44276e-14
1.77218e-15
9.06881e-17
2.43347e-17
7.33968e-18
2.3337e-18
7.37782e-19
2.25821e-19
6.67732e-20
1.92182e-20
5.43749e-21
1.52535e-21
4.26378e-22
1.18847e-22
3.29404e-23
9.03574e-24
2.44061e-24
0.000171694
6.92156e-05
-0.000214701
0.000372344
0.00161228
0.000247435
-0.00380685
-0.00272492
0.00770799
0.0135097
-0.00291414
-0.0366856
-0.053399
-0.0321477
0.0171605
0.0586303
0.066094
0.0507202
0.0260887
0.00663017
-0.00184108
-0.00134574
-0.000389358
-5.21569e-05
4.34677e-06
1.7412e-06
2.45952e-07
-5.43664e-09
-2.67491e-09
-5.40648e-10
-1.91924e-11
1.51716e-12
4.47399e-13
2.69826e-14
-2.34112e-16
-7.26352e-17
-1.81469e-17
-3.50852e-18
-3.51845e-19
1.01393e-19
8.37556e-20
3.75527e-20
1.39277e-20
4.69955e-21
1.49755e-21
4.58399e-22
1.35824e-22
3.90765e-23
1.09258e-23
2.96907e-24
0.00176588
0.00175355
0.00148366
0.00143153
0.00242493
0.00315459
0.00127147
-0.00131758
0.000818459
0.00723878
0.00827223
-0.00291413
-0.0224331
-0.039978
-0.0504571
-0.0549267
-0.0537491
-0.0470519
-0.0349883
-0.0213155
-0.00933121
-0.00249173
-0.000180494
2.27235e-05
1.12042e-05
2.72969e-06
1.19725e-07
-1.20706e-08
-6.05986e-09
-8.01081e-10
9.7745e-12
4.6846e-12
5.99585e-13
-3.10881e-15
-8.66226e-16
-2.0756e-16
-5.39213e-17
-1.39217e-17
-3.42508e-18
-7.84726e-19
-1.62944e-19
-2.87202e-20
-3.29549e-21
3.56618e-22
4.32075e-22
2.03395e-22
7.61287e-23
2.53712e-23
7.83185e-24
2.28058e-24
0.000369872
0.00041841
0.000384646
3.68542e-05
5.6635e-05
0.00120549
0.00187338
-0.000217235
-0.00309771
-0.0011333
0.00723879
0.0135097
0.00717713
-0.0151889
-0.0443927
-0.0633845
-0.0646983
-0.0534182
-0.0351072
-0.0172866
-0.00591969
-0.00102819
6.18292e-05
2.98801e-05
7.88546e-06
8.99702e-07
-4.74101e-08
-1.85119e-08
-3.89238e-09
-6.65136e-11
1.04071e-11
3.80095e-12
2.44073e-13
-4.3301e-15
-1.06615e-15
-2.20837e-16
-5.90777e-17
-1.71735e-17
-4.94291e-18
-1.37205e-18
-3.66556e-19
-9.44002e-20
-2.3384e-20
-5.52856e-21
-1.2295e-21
-2.5053e-22
-4.4205e-23
-5.64765e-24
4.47377e-26
3.74346e-25
-0.00112493
-0.00108848
-0.00098735
-0.00118318
-0.00163905
-0.00129982
-5.11937e-05
-3.8386e-05
-0.00218211
-0.0030977
0.000818462
0.00770799
0.010053
0.00447298
-0.00605497
-0.0139415
-0.0146265
-0.0109995
-0.00562469
-0.00158397
0.000136938
0.000312599
9.05928e-05
8.85389e-06
-2.77353e-06
-9.44872e-07
-1.01773e-07
2.80437e-10
1.68822e-09
4.30256e-10
2.29892e-11
-1.09991e-12
-3.00815e-13
-1.70607e-14
7.49416e-18
-3.0689e-17
-2.25609e-17
-1.05099e-17
-4.00801e-18
-1.36913e-18
-4.36652e-19
-1.32533e-19
-3.85811e-20
-1.0796e-20
-2.90408e-21
-7.50417e-22
-1.86092e-22
-4.4233e-23
-1.00601e-23
-2.18354e-24
-0.00102929
-0.00102259
-0.00097951
-0.00100978
-0.00119565
-0.00127045
-0.000938717
-0.000397207
-3.83884e-05
-0.000217232
-0.00131758
-0.00272493
-0.00163063
0.00462961
0.0151482
0.0246846
0.0274658
0.0236762
0.0157491
0.00794488
0.00275996
0.000460662
-4.15025e-05
-2.6988e-05
-8.4888e-06
-1.13302e-06
4.17179e-08
2.06468e-08
4.30673e-09
4.98565e-11
-8.92822e-12
-2.93265e-12
-1.52855e-13
1.74601e-15
4.02271e-16
6.90218e-17
5.22846e-18
-3.47221e-18
-2.5391e-18
-1.16459e-18
-4.47872e-19
-1.55545e-19
-5.02321e-20
-1.5297e-20
-4.42665e-21
-1.22315e-21
-3.23804e-22
-8.23354e-23
-2.01514e-23
-4.75593e-24
-0.000743656
-0.000731242
-0.000769982
-0.000872185
-0.000791414
-0.000508012
-0.000601092
-0.00093872
-5.11977e-05
0.00187339
0.00127148
-0.00380685
-0.00817942
-0.00425986
0.00900691
0.0231726
0.0280924
0.0240936
0.0152618
0.00677692
0.001754
2.21925e-05
-5.8468e-05
-3.3447e-05
-8.32567e-06
-1.62928e-07
5.48907e-08
2.17861e-08
1.86739e-09
-2.38256e-11
-1.05326e-11
-2.21393e-12
-2.84381e-14
2.16839e-15
5.6974e-16
9.1306e-17
7.21633e-18
-3.9619e-18
-3.01983e-18
-1.41984e-18
-5.59689e-19
-1.99116e-19
-6.57582e-20
-2.0436e-20
-6.02367e-21
-1.69286e-21
-4.55357e-22
-1.17598e-22
-2.92352e-23
-7.01329e-24
-0.00124554
-0.00120949
-0.00123198
-0.00148957
-0.00152711
-0.000862726
-0.00050801
-0.00127046
-0.00129983
0.0012055
0.0031546
0.00024743
-0.0058781
-0.00770084
-0.00231066
0.0063455
0.0108906
0.00988256
0.00587989
0.00207275
0.000112124
-8.57951e-05
-6.26986e-05
-2.27217e-05
-2.44565e-06
5.27945e-08
3.03098e-08
6.28844e-09
-1.25691e-10
-4.84292e-11
-3.77797e-12
3.81168e-13
8.63481e-14
2.41968e-15
-1.35094e-16
-6.76954e-17
-3.20372e-17
-1.41053e-17
-5.75157e-18
-2.19274e-18
-7.8748e-19
-2.67557e-19
-8.62574e-20
-2.64556e-20
-7.73938e-21
-2.16502e-21
-5.80562e-22
-1.49583e-22
-3.71151e-23
-8.88838e-24
-0.00169479
-0.00165399
-0.00162769
-0.00189748
-0.00212404
-0.00152711
-0.000791411
-0.00119565
-0.00163905
5.66384e-05
0.00242493
0.00161228
-0.0025532
-0.00514292
-0.00303765
0.00196752
0.0052387
0.00508285
0.00309864
0.0010219
9.7425e-05
-4.85688e-05
-3.25365e-05
-1.04055e-05
-1.20539e-06
-2.84623e-08
-3.63784e-09
-8.70441e-10
-5.54301e-11
1.48726e-11
5.01427e-12
5.28797e-13
-1.07108e-14
-2.47319e-15
-4.8991e-16
-1.56654e-16
-5.6506e-17
-2.08974e-17
-7.71381e-18
-2.7878e-18
-9.72896e-19
-3.2528e-19
-1.03848e-19
-3.16424e-20
-9.21055e-21
-2.56546e-21
-6.85094e-22
-1.75765e-22
-4.34131e-23
-1.03454e-23
-0.00153459
-0.00150298
-0.00147215
-0.00167783
-0.00189748
-0.00148957
-0.000872182
-0.00100978
-0.00118318
3.68573e-05
0.00143154
0.000372339
-0.0026017
-0.00314262
0.000599688
0.00635365
0.00935775
0.00860645
0.00558734
0.00252974
0.000634857
1.76786e-05
-9.35385e-06
-6.89944e-06
-2.44913e-06
-2.60917e-07
1.72968e-10
2.20855e-10
1.09999e-10
2.9241e-11
1.6049e-12
-6.46939e-14
-1.61606e-14
-1.16941e-15
-2.06194e-16
-9.74466e-17
-4.4472e-17
-1.8955e-17
-7.60541e-18
-2.88323e-18
-1.03394e-18
-3.51133e-19
-1.13127e-19
-3.46529e-20
-1.01162e-20
-2.82131e-21
-7.53449e-22
-1.93117e-22
-4.76123e-23
-1.13166e-23
-0.00132415
-0.00129512
-0.00128042
-0.00147215
-0.00162769
-0.00123197
-0.000769978
-0.000979509
-0.000987351
0.000384649
0.00148367
-0.000214705
-0.00349239
-0.00362053
0.0012676
0.00808918
0.0114149
0.0103548
0.00672035
0.00300145
0.000749256
2.18699e-05
-9.40439e-06
-6.84602e-06
-2.65797e-06
-3.85707e-07
3.1201e-10
2.23693e-10
8.74046e-11
2.1988e-11
1.98672e-12
1.2225e-14
9.32936e-16
-4.76424e-17
-9.72353e-17
-6.60676e-17
-3.54356e-17
-1.6668e-17