/*--------------------------------*- C++ -*----------------------------------*\
| =========                 |                                                 |
| \\      /  F ield         | OpenFOAM: The Open Source CFD Toolbox           |
|  \\    /   O peration     | Version:  v2006                                 |
|   \\  /    A nd           | Website:  www.openfoam.com                      |
|    \\/     M anipulation  |                                                 |
\*---------------------------------------------------------------------------*/
FoamFile
{
    version     2.0;
    format      ascii;
    class       volVectorField;
    location    "0";
    object      U;
}
// * * * * * * * * * * * * * * * * * * * * * * * * * * * * * * * * * * * * * //

dimensions      [0 1 -1 0 0 0 0];


internalField   nonuniform List<vector> 
20000
(
(1 -5.5414e-11 0)
(1 -2.23979e-10 0)
(1 -5.44363e-10 0)
(1 -9.87351e-10 0)
(1 -1.52816e-09 0)
(1 -2.20863e-09 0)
(1 -3.07945e-09 0)
(1 -4.1767e-09 0)
(1 -5.55875e-09 0)
(1 -7.3424e-09 0)
(1 -9.68227e-09 0)
(1 -1.27023e-08 0)
(1 -1.64335e-08 0)
(1 -2.08032e-08 0)
(1 -2.56781e-08 0)
(1 -3.09251e-08 0)
(1 -3.64518e-08 0)
(1 -4.22128e-08 0)
(1 -4.81881e-08 0)
(1 -5.43256e-08 0)
(1 -6.04459e-08 0)
(1 -6.61625e-08 0)
(1 -7.07913e-08 0)
(1 -7.32671e-08 0)
(1 -7.23728e-08 0)
(1 -6.68656e-08 0)
(1.00001 -5.56168e-08 0)
(1.00001 -3.91287e-08 0)
(1.00001 -2.06171e-08 0)
(1.00001 -5.09614e-09 0)
(1.00001 1.71678e-09 0)
(1.00001 -5.63973e-09 0)
(1.00001 -2.92966e-08 0)
(1.00001 -6.45637e-08 0)
(1.00001 -1.01841e-07 0)
(1.00001 -1.30329e-07 0)
(1.00001 -1.34461e-07 0)
(1.00001 -8.1594e-08 0)
(1.00001 4.0416e-08 0)
(1.00001 1.55515e-07 0)
(1.00001 2.31336e-07 0)
(1.00001 2.70794e-07 0)
(1.00001 2.88935e-07 0)
(1.00001 2.93875e-07 0)
(1 2.86481e-07 0)
(1 2.65551e-07 0)
(1 2.31385e-07 0)
(0.999999 1.87116e-07 0)
(0.999998 1.37544e-07 0)
(0.999997 8.70827e-08 0)
(0.999996 3.94415e-08 0)
(0.999995 -1.72468e-11 0)
(0.999995 -2.63392e-08 0)
(0.999994 -4.1131e-08 0)
(0.999994 -4.95583e-08 0)
(0.999994 -5.83982e-08 0)
(0.999994 -7.75221e-08 0)
(0.999995 -1.09076e-07 0)
(0.999996 -1.48828e-07 0)
(0.999997 -1.91993e-07 0)
(0.999998 -2.3276e-07 0)
(1 -2.61561e-07 0)
(1 -2.64449e-07 0)
(1 -2.30313e-07 0)
(1.00001 -1.55141e-07 0)
(1.00001 -3.72529e-08 0)
(1.00001 1.15784e-07 0)
(1.00001 2.81444e-07 0)
(1.00001 4.22281e-07 0)
(1.00001 5.04706e-07 0)
(1.00001 5.44333e-07 0)
(1.00001 5.57209e-07 0)
(1.00001 5.49515e-07 0)
(1.00001 5.25616e-07 0)
(1.00001 4.86217e-07 0)
(1 4.33598e-07 0)
(1 3.71106e-07 0)
(1 3.01863e-07 0)
(0.999997 2.3009e-07 0)
(0.999995 1.58949e-07 0)
(0.999992 8.97007e-08 0)
(0.999989 2.37824e-08 0)
(0.999987 -3.52806e-08 0)
(0.999985 -8.33934e-08 0)
(0.999983 -1.18842e-07 0)
(0.999981 -1.41447e-07 0)
(0.999979 -1.48968e-07 0)
(0.999978 -1.39647e-07 0)
(0.999978 -1.18717e-07 0)
(0.999977 -9.69367e-08 0)
(0.999977 -8.31406e-08 0)
(0.999977 -8.10267e-08 0)
(0.999977 -9.83543e-08 0)
(0.999978 -1.29986e-07 0)
(0.999979 -1.70776e-07 0)
(0.99998 -2.14783e-07 0)
(0.999982 -2.52558e-07 0)
(0.999984 -2.72925e-07 0)
(0.999985 -2.68021e-07 0)
(0.999987 -2.37959e-07 0)
(0.999989 -1.91753e-07 0)
(0.99999 -1.43336e-07 0)
(0.99999 -1.04812e-07 0)
(0.999991 -8.16456e-08 0)
(0.999992 -7.2741e-08 0)
(0.999992 -7.3631e-08 0)
(0.999993 -7.9382e-08 0)
(0.999993 -8.60172e-08 0)
(0.999994 -9.09805e-08 0)
(0.999994 -9.30817e-08 0)
(0.999995 -9.21345e-08 0)
(0.999996 -8.85411e-08 0)
(0.999996 -8.29664e-08 0)
(0.999997 -7.612e-08 0)
(0.999997 -6.86323e-08 0)
(0.999998 -6.1002e-08 0)
(0.999998 -5.35877e-08 0)
(0.999998 -4.66239e-08 0)
(0.999999 -4.02446e-08 0)
(0.999999 -3.45099e-08 0)
(0.999999 -2.94284e-08 0)
(0.999999 -2.49757e-08 0)
(0.999999 -2.11076e-08 0)
(0.999999 -1.77703e-08 0)
(1 -1.49068e-08 0)
(1 -1.24607e-08 0)
(1 -1.03787e-08 0)
(1 -8.61231e-09 0)
(1 -7.11765e-09 0)
(1 -5.85603e-09 0)
(1 -4.79359e-09 0)
(1 -3.90094e-09 0)
(1 -3.1526e-09 0)
(1 -2.52659e-09 0)
(1 -2.00428e-09 0)
(1 -1.56961e-09 0)
(1 -1.20963e-09 0)
(1 -9.16062e-10 0)
(1 -6.75256e-10 0)
(1 -4.58406e-10 0)
(1 -2.30579e-10 0)
(1 3.04596e-11 0)
(1 2.71029e-10 0)
(1 4.02076e-10 0)
(1 4.42545e-10 0)
(1 4.32654e-10 0)
(1 4.03456e-10 0)
(1 3.70115e-10 0)
(1 3.37586e-10 0)
(1 3.0729e-10 0)
(1 2.79576e-10 0)
(1 2.54418e-10 0)
(1 2.31647e-10 0)
(1 2.1106e-10 0)
(1 1.92446e-10 0)
(1 1.75613e-10 0)
(1 1.60372e-10 0)
(1 1.46563e-10 0)
(1 1.34037e-10 0)
(1 1.2266e-10 0)
(1 1.12317e-10 0)
(1 1.02905e-10 0)
(1 9.43333e-11 0)
(1 8.65158e-11 0)
(1 7.93804e-11 0)
(1 7.28552e-11 0)
(1 6.68885e-11 0)
(1 6.14233e-11 0)
(1 5.64116e-11 0)
(1 5.18181e-11 0)
(1 4.76006e-11 0)
(1 4.37258e-11 0)
(1 4.01593e-11 0)
(1 3.68697e-11 0)
(1 3.38349e-11 0)
(1 3.10343e-11 0)
(1 2.84458e-11 0)
(1 2.60498e-11 0)
(1 2.38305e-11 0)
(1 2.17719e-11 0)
(1 1.98583e-11 0)
(1 1.80753e-11 0)
(1 1.64087e-11 0)
(1 1.48496e-11 0)
(1 1.33894e-11 0)
(1 1.20164e-11 0)
(1 1.07206e-11 0)
(1 9.49377e-12 0)
(1 8.32707e-12 0)
(1 7.21342e-12 0)
(1 6.14453e-12 0)
(1 5.11431e-12 0)
(1 4.11688e-12 0)
(1 3.14346e-12 0)
(1 2.18543e-12 0)
(1 1.24244e-12 0)
(1 2.55733e-13 0)
(1 -5.91789e-13 0)
(1 -2.59495e-12 0)
(1 -1.93036e-12 0)
(1 -1.70764e-10 0)
(1 -6.68811e-10 0)
(1 -1.62937e-09 0)
(1 -2.95831e-09 0)
(1 -4.57961e-09 0)
(1 -6.61933e-09 0)
(1 -9.22956e-09 0)
(1 -1.25185e-08 0)
(1 -1.66613e-08 0)
(1 -2.20082e-08 0)
(1 -2.90226e-08 0)
(1 -3.80764e-08 0)
(1 -4.92632e-08 0)
(1 -6.23655e-08 0)
(1 -7.6982e-08 0)
(1 -9.27137e-08 0)
(1 -1.09294e-07 0)
(1 -1.266e-07 0)
(1 -1.4456e-07 0)
(1 -1.62964e-07 0)
(1 -1.81251e-07 0)
(1 -1.98296e-07 0)
(1 -2.12209e-07 0)
(1 -2.2019e-07 0)
(1 -2.18714e-07 0)
(1 -2.0391e-07 0)
(1.00001 -1.72753e-07 0)
(1.00001 -1.25918e-07 0)
(1.00001 -7.03611e-08 0)
(1.00001 -2.00336e-08 0)
(1.00001 5.68257e-09 0)
(1.00001 -1.2337e-08 0)
(1.00001 -8.22679e-08 0)
(1.00001 -1.91161e-07 0)
(1.00001 -3.0498e-07 0)
(1.00001 -3.81187e-07 0)
(1.00001 -3.84468e-07 0)
(1.00001 -2.92302e-07 0)
(1.00001 -1.21665e-07 0)
(1.00001 4.39772e-08 0)
(1.00001 1.97595e-07 0)
(1.00001 3.18254e-07 0)
(1.00001 4.13808e-07 0)
(1.00001 4.94011e-07 0)
(1.00001 5.61303e-07 0)
(1.00001 6.14376e-07 0)
(1.00001 6.49835e-07 0)
(1.00001 6.62337e-07 0)
(1 6.46626e-07 0)
(1 6.00938e-07 1.65918e-40)
(1 5.2899e-07 1.65525e-40)
(0.999999 4.39084e-07 0)
(0.999997 3.38188e-07 0)
(0.999996 2.28081e-07 0)
(0.999995 1.10315e-07 0)
(0.999995 -1.32821e-08 0)
(0.999995 -1.45499e-07 0)
(0.999995 -2.83085e-07 0)
(0.999996 -4.19882e-07 0)
(0.999997 -5.50831e-07 0)
(0.999998 -6.71209e-07 0)
(1 -7.74817e-07 0)
(1 -8.53935e-07 0)
(1 -9.03056e-07 0)
(1.00001 -9.18499e-07 0)
(1.00001 -8.94471e-07 0)
(1.00001 -8.29297e-07 0)
(1.00002 -7.29008e-07 0)
(1.00002 -6.13526e-07 0)
(1.00002 -5.02805e-07 0)
(1.00003 -3.79367e-07 0)
(1.00003 -2.30381e-07 0)
(1.00003 -5.63815e-08 0)
(1.00004 1.36485e-07 0)
(1.00004 3.64693e-07 0)
(1.00004 5.99918e-07 0)
(1.00004 8.38233e-07 0)
(1.00003 1.07107e-06 0)
(1.00003 1.28322e-06 0)
(1.00003 1.45712e-06 0)
(1.00002 1.57639e-06 0)
(1.00002 1.63047e-06 0)
(1.00001 1.61625e-06 0)
(1 1.5359e-06 0)
(0.999998 1.3951e-06 0)
(0.999993 1.20482e-06 0)
(0.999988 9.84575e-07 0)
(0.999984 7.54524e-07 0)
(0.999981 5.29463e-07 0)
(0.999979 3.20338e-07 0)
(0.999978 1.3512e-07 0)
(0.999978 -2.80125e-08 0)
(0.999978 -1.81316e-07 0)
(0.999978 -3.31132e-07 0)
(0.999979 -4.82512e-07 0)
(0.99998 -6.29893e-07 0)
(0.999982 -7.51517e-07 0)
(0.999984 -8.17014e-07 0)
(0.999985 -8.0423e-07 0)
(0.999987 -7.14304e-07 0)
(0.999989 -5.75023e-07 0)
(0.99999 -4.28946e-07 0)
(0.99999 -3.12899e-07 0)
(0.999991 -2.43396e-07 0)
(0.999992 -2.16983e-07 0)
(0.999992 -2.20059e-07 0)
(0.999993 -2.37691e-07 0)
(0.999993 -2.57884e-07 0)
(0.999994 -2.72953e-07 0)
(0.999994 -2.79343e-07 0)
(0.999995 -2.76524e-07 0)
(0.999996 -2.65728e-07 0)
(0.999996 -2.4897e-07 0)
(0.999997 -2.28393e-07 0)
(0.999997 -2.05897e-07 0)
(0.999998 -1.8298e-07 0)
(0.999998 -1.6072e-07 0)
(0.999998 -1.39818e-07 0)
(0.999999 -1.20675e-07 0)
(0.999999 -1.03471e-07 0)
(0.999999 -8.8229e-08 0)
(0.999999 -7.48752e-08 0)
(0.999999 -6.32764e-08 0)
(0.999999 -5.32707e-08 0)
(1 -4.46861e-08 0)
(1 -3.73532e-08 0)
(1 -3.11121e-08 0)
(1 -2.58169e-08 0)
(1 -2.13361e-08 0)
(1 -1.75539e-08 0)
(1 -1.43686e-08 0)
(1 -1.16921e-08 0)
(1 -9.44825e-09 0)
(1 -7.57153e-09 0)
(1 -6.00594e-09 0)
(1 -4.70344e-09 0)
(1 -3.62353e-09 0)
(1 -2.73237e-09 0)
(1 -1.99685e-09 0)
(1 -1.38035e-09 0)
(1 -8.5002e-10 0)
(1 -3.80503e-10 0)
(1 1.85424e-12 0)
(1 2.60913e-10 0)
(1 4.35123e-10 0)
(1 5.54889e-10 0)
(1 6.35665e-10 0)
(1 6.90534e-10 0)
(1 7.26229e-10 0)
(1 7.46581e-10 0)
(1 7.54584e-10 0)
(1 7.52702e-10 0)
(1 7.42987e-10 0)
(1 7.27167e-10 0)
(1 7.06681e-10 0)
(1 6.82733e-10 0)
(1 6.56302e-10 0)
(1 6.28203e-10 0)
(1 5.99093e-10 0)
(1 5.695e-10 0)
(1 5.39848e-10 0)
(1 5.10479e-10 0)
(1 4.81656e-10 0)
(1 4.53575e-10 0)
(1 4.26392e-10 0)
(1 4.00202e-10 0)
(1 3.75089e-10 0)
(1 3.51097e-10 0)
(1 3.28247e-10 0)
(1 3.0656e-10 0)
(1 2.86021e-10 0)
(1 2.66608e-10 0)
(1 2.4829e-10 0)
(1 2.31028e-10 0)
(1 2.14788e-10 0)
(1 1.99533e-10 0)
(1 1.85215e-10 0)
(1 1.71786e-10 0)
(1 1.59201e-10 0)
(1 1.47414e-10 0)
(1 1.36377e-10 0)
(1 1.26046e-10 0)
(1 1.16371e-10 0)
(1 1.07314e-10 0)
(1 9.88336e-11 0)
(1 9.0888e-11 0)
(1 8.34376e-11 0)
(1 7.64453e-11 0)
(1 6.98753e-11 0)
(1 6.36959e-11 0)
(1 5.78729e-11 0)
(1 5.23755e-11 0)
(1 4.71768e-11 0)
(1 4.22454e-11 0)
(1 3.75525e-11 0)
(1 3.30716e-11 0)
(1 2.87621e-11 0)
(1 2.46014e-11 0)
(1 2.01638e-11 0)
(1 1.65126e-11 0)
(1 -2.87558e-10 0)
(1 -1.10963e-09 0)
(1 -2.70784e-09 0)
(1 -4.91952e-09 0)
(1 -7.61698e-09 0)
(1 -1.10105e-08 0)
(1 -1.53534e-08 0)
(1 -2.08257e-08 0)
(1 -2.77191e-08 0)
(1 -3.66168e-08 0)
(1 -4.82906e-08 0)
(1 -6.33596e-08 0)
(1 -8.19807e-08 0)
(1 -1.03793e-07 0)
(1 -1.2813e-07 0)
(1 -1.54331e-07 0)
(1 -1.81961e-07 0)
(1 -2.10826e-07 0)
(1 -2.40799e-07 0)
(1 -2.71535e-07 0)
(1 -3.0212e-07 0)
(1 -3.30712e-07 0)
(1 -3.5423e-07 0)
(1 -3.68141e-07 0)
(1 -3.66445e-07 0)
(1 -3.42516e-07 0)
(1.00001 -2.91465e-07 0)
(1.00001 -2.13739e-07 0)
(1.00001 -1.19529e-07 0)
(1.00001 -3.21505e-08 0)
(1.00001 1.4223e-08 0)
(1.00001 -1.41561e-08 0)
(1.00001 -1.3205e-07 0)
(1.00001 -3.17878e-07 0)
(1.00001 -5.11088e-07 0)
(1.00001 -6.35831e-07 0)
(1.00001 -6.41989e-07 0)
(1.00001 -5.34674e-07 0)
(1.00001 -3.58283e-07 0)
(1.00001 -1.47956e-07 0)
(1.00001 7.73113e-08 0)
(1.00001 2.86038e-07 0)
(1.00001 4.74048e-07 0)
(1.00001 6.4844e-07 0)
(1.00001 8.13165e-07 0)
(1.00001 9.66047e-07 0)
(1 1.09707e-06 0)
(1 1.18864e-06 0)
(1 1.2231e-06 0)
(1 1.19252e-06 0)
(0.999998 1.10083e-06 0)
(0.999997 9.56872e-07 0)
(0.999996 7.68821e-07 0)
(0.999995 5.46227e-07 0)
(0.999995 3.01103e-07 0)
(0.999994 4.58075e-08 0)
(0.999995 -2.09092e-07 0)
(0.999995 -4.56062e-07 0)
(0.999996 -6.90968e-07 0)
(0.999997 -9.11016e-07 0)
(0.999998 -1.11414e-06 0)
(1 -1.29929e-06 0)
(1 -1.46615e-06 0)
(1 -1.61241e-06 0)
(1.00001 -1.73236e-06 0)
(1.00001 -1.81968e-06 0)
(1.00001 -1.86638e-06 0)
(1.00001 -1.86079e-06 0)
(1.00002 -1.78819e-06 0)
(1.00002 -1.63614e-06 0)
(1.00002 -1.40572e-06 0)
(1.00002 -1.10081e-06 0)
(1.00002 -7.25409e-07 0)
(1.00002 -2.84294e-07 0)
(1.00002 2.20405e-07 0)
(1.00002 7.65617e-07 0)
(1.00002 1.33116e-06 0)
(1.00002 1.8886e-06 0)
(1.00001 2.40279e-06 0)
(1.00001 2.83782e-06 0)
(1.00001 3.16234e-06 0)
(1 3.35319e-06 0)
(0.999999 3.39709e-06 0)
(0.999994 3.29176e-06 0)
(0.99999 3.047e-06 0)
(0.999987 2.68447e-06 0)
(0.999984 2.23519e-06 0)
(0.999981 1.73714e-06 0)
(0.999979 1.23435e-06 0)
(0.999978 7.68404e-07 0)
(0.999977 3.63948e-07 0)
(0.999977 2.32274e-08 0)
(0.999977 -2.68392e-07 0)
(0.999978 -5.35605e-07 0)
(0.999979 -7.97203e-07 0)
(0.99998 -1.04892e-06 0)
(0.999982 -1.25621e-06 0)
(0.999984 -1.36814e-06 0)
(0.999985 -1.34708e-06 0)
(0.999987 -1.19489e-06 0)
(0.999989 -9.59046e-07 0)
(0.99999 -7.12283e-07 0)
(0.999991 -5.17252e-07 0)
(0.999991 -4.01536e-07 0)
(0.999992 -3.58643e-07 0)
(0.999992 -3.65141e-07 0)
(0.999993 -3.95699e-07 0)
(0.999993 -4.3014e-07 0)
(0.999994 -4.55655e-07 0)
(0.999994 -4.66407e-07 0)
(0.999995 -4.61623e-07 0)
(0.999996 -4.43455e-07 0)
(0.999996 -4.15327e-07 0)
(0.999997 -3.80852e-07 0)
(0.999997 -3.43212e-07 0)
(0.999998 -3.0491e-07 0)
(0.999998 -2.67738e-07 0)
(0.999998 -2.32859e-07 0)
(0.999999 -2.00936e-07 0)
(0.999999 -1.72258e-07 0)
(0.999999 -1.46861e-07 0)
(0.999999 -1.24618e-07 0)
(0.999999 -1.05302e-07 0)
(0.999999 -8.86432e-08 0)
(1 -7.43525e-08 0)
(1 -6.2147e-08 0)
(1 -5.17599e-08 0)
(1 -4.29476e-08 0)
(1 -3.54912e-08 0)
(1 -2.91974e-08 0)
(1 -2.38973e-08 0)
(1 -1.94439e-08 0)
(1 -1.57105e-08 0)
(1 -1.25882e-08 0)
(1 -9.98362e-09 0)
(1 -7.81694e-09 0)
(1 -6.01986e-09 0)
(1 -4.53297e-09 0)
(1 -3.30824e-09 0)
(1 -2.31013e-09 0)
(1 -1.51238e-09 0)
(1 -8.89835e-10 0)
(1 -4.01641e-10 0)
(1 5.49038e-12 0)
(1 3.46941e-10 0)
(1 6.24529e-10 0)
(1 8.39871e-10 0)
(1 1.00166e-09 0)
(1 1.11869e-09 0)
(1 1.19873e-09 0)
(1 1.24866e-09 0)
(1 1.27428e-09 0)
(1 1.28043e-09 0)
(1 1.27116e-09 0)
(1 1.24983e-09 0)
(1 1.21921e-09 0)
(1 1.18159e-09 0)
(1 1.13887e-09 0)
(1 1.09259e-09 0)
(1 1.044e-09 0)
(1 9.94115e-10 0)
(1 9.43768e-10 0)
(1 8.93606e-10 0)
(1 8.44134e-10 0)
(1 7.95752e-10 0)
(1 7.48747e-10 0)
(1 7.03345e-10 0)
(1 6.59708e-10 0)
(1 6.17938e-10 0)
(1 5.78108e-10 0)
(1 5.40237e-10 0)
(1 5.04315e-10 0)
(1 4.7032e-10 0)
(1 4.38211e-10 0)
(1 4.07937e-10 0)
(1 3.79441e-10 0)
(1 3.52653e-10 0)
(1 3.27495e-10 0)
(1 3.03892e-10 0)
(1 2.81767e-10 0)
(1 2.61038e-10 0)
(1 2.41628e-10 0)
(1 2.23455e-10 0)
(1 2.06443e-10 0)
(1 1.90518e-10 0)
(1 1.75606e-10 0)
(1 1.61639e-10 0)
(1 1.48548e-10 0)
(1 1.3627e-10 0)
(1 1.24746e-10 0)
(1 1.13918e-10 0)
(1 1.03726e-10 0)
(1 9.41208e-11 0)
(1 8.50509e-11 0)
(1 7.64672e-11 0)
(1 6.83141e-11 0)
(1 6.06064e-11 0)
(1 5.30038e-11 0)
(1 4.70314e-11 0)
(1 3.66645e-11 0)
(1 -4.00524e-10 0)
(1 -1.54688e-09 0)
(1 -3.77759e-09 0)
(1 -6.86515e-09 0)
(1 -1.06311e-08 0)
(1 -1.53693e-08 0)
(1 -2.14334e-08 0)
(1 -2.90751e-08 0)
(1 -3.87023e-08 0)
(1 -5.11303e-08 0)
(1 -6.7438e-08 0)
(1 -8.84914e-08 0)
(1 -1.14511e-07 0)
(1 -1.44995e-07 0)
(1 -1.79018e-07 0)
(1 -2.15665e-07 0)
(1 -2.54334e-07 0)
(1 -2.94766e-07 0)
(1 -3.36814e-07 0)
(1 -3.80032e-07 0)
(1 -4.23171e-07 0)
(1 -4.63672e-07 0)
(1 -4.97205e-07 0)
(1 -5.17306e-07 0)
(1 -5.15425e-07 0)
(1 -4.82082e-07 0)
(1.00001 -4.09913e-07 0)
(1.00001 -2.991e-07 0)
(1.00001 -1.64241e-07 0)
(1.00001 -3.87566e-08 0)
(1.00001 2.86636e-08 0)
(1.00001 -1.06107e-08 0)
(1.00001 -1.7864e-07 0)
(1.00001 -4.44942e-07 0)
(1.00001 -7.23462e-07 0)
(1.00001 -9.0687e-07 0)
(1.00001 -9.208e-07 0)
(1.00001 -7.5745e-07 0)
(1.00001 -4.65638e-07 0)
(1.00001 -1.16327e-07 0)
(1.00001 2.13262e-07 0)
(1.00001 5.04e-07 0)
(1.00001 7.59664e-07 0)
(1.00001 9.91919e-07 0)
(1.00001 1.20643e-06 0)
(1.00001 1.39921e-06 0)
(1 1.55647e-06 0)
(1 1.65623e-06 0)
(1 1.67768e-06 0)
(1 1.61289e-06 0)
(0.999998 1.4685e-06 0)
(0.999997 1.25808e-06 0)
(0.999996 9.96065e-07 0)
(0.999995 6.96035e-07 0)
(0.999995 3.70612e-07 0)
(0.999994 3.12946e-08 0)
(0.999994 -3.11142e-07 0)
(0.999995 -6.48795e-07 0)
(0.999996 -9.74945e-07 0)
(0.999997 -1.28358e-06 0)
(0.999998 -1.56894e-06 0)
(1 -1.82455e-06 0)
(1 -2.04228e-06 0)
(1 -2.21297e-06 0)
(1.00001 -2.3284e-06 0)
(1.00001 -2.38191e-06 0)
(1.00001 -2.36787e-06 0)
(1.00001 -2.28244e-06 0)
(1.00002 -2.1211e-06 0)
(1.00002 -1.88015e-06 0)
(1.00002 -1.5595e-06 0)
(1.00002 -1.15779e-06 0)
(1.00002 -6.73713e-07 0)
(1.00002 -1.08214e-07 0)
(1.00002 5.1795e-07 0)
(1.00002 1.19774e-06 0)
(1.00002 1.90188e-06 0)
(1.00002 2.59335e-06 0)
(1.00001 3.23007e-06 0)
(1.00001 3.76771e-06 0)
(1.00001 4.16487e-06 0)
(1 4.38925e-06 0)
(0.999999 4.42336e-06 0)
(0.999994 4.26645e-06 0)
(0.99999 3.9325e-06 0)
(0.999987 3.44843e-06 0)
(0.999983 2.85316e-06 0)
(0.999981 2.19987e-06 0)
(0.999979 1.54852e-06 0)
(0.999978 9.49307e-07 0)
(0.999977 4.28236e-07 0)
(0.999977 -1.44366e-08 0)
(0.999977 -4.00264e-07 0)
(0.999978 -7.61939e-07 0)
(0.999979 -1.12355e-06 0)
(0.99998 -1.47722e-06 0)
(0.999982 -1.7716e-06 0)
(0.999983 -1.93156e-06 0)
(0.999985 -1.90128e-06 0)
(0.999987 -1.68266e-06 0)
(0.999989 -1.34432e-06 0)
(0.99999 -9.91766e-07 0)
(0.999991 -7.1534e-07 0)
(0.999991 -5.53695e-07 0)
(0.999992 -4.96091e-07 0)
(0.999992 -5.08097e-07 0)
(0.999992 -5.53314e-07 0)
(0.999993 -6.03136e-07 0)
(0.999994 -6.39636e-07 0)
(0.999994 -6.54846e-07 0)
(0.999995 -6.47927e-07 0)
(0.999996 -6.22093e-07 0)
(0.999996 -5.82277e-07 0)
(0.999997 -5.33618e-07 0)
(0.999997 -4.80607e-07 0)
(0.999998 -4.26755e-07 0)
(0.999998 -3.74563e-07 0)
(0.999998 -3.25645e-07 0)
(0.999999 -2.8091e-07 0)
(0.999999 -2.40754e-07 0)
(0.999999 -2.05212e-07 0)
(0.999999 -1.74097e-07 0)
(0.999999 -1.47089e-07 0)
(0.999999 -1.23801e-07 0)
(1 -1.0383e-07 0)
(1 -8.6775e-08 0)
(1 -7.22637e-08 0)
(1 -5.9954e-08 0)
(1 -4.95394e-08 0)
(1 -4.07497e-08 0)
(1 -3.33482e-08 0)
(1 -2.71296e-08 0)
(1 -2.19169e-08 0)
(1 -1.75575e-08 0)
(1 -1.39212e-08 0)
(1 -1.08965e-08 0)
(1 -8.38831e-09 0)
(1 -6.3162e-09 0)
(1 -4.6115e-09 0)
(1 -3.21379e-09 0)
(1 -2.0696e-09 0)
(1 -1.13645e-09 0)
(1 -3.79437e-10 0)
(1 2.23884e-10 0)
(1 6.88712e-10 0)
(1 1.04046e-09 0)
(1 1.30398e-09 0)
(1 1.49636e-09 0)
(1 1.631e-09 0)
(1 1.71894e-09 0)
(1 1.76923e-09 0)
(1 1.78934e-09 0)
(1 1.78545e-09 0)
(1 1.76268e-09 0)
(1 1.72528e-09 0)
(1 1.67672e-09 0)
(1 1.61991e-09 0)
(1 1.5572e-09 0)
(1 1.49052e-09 0)
(1 1.42143e-09 0)
(1 1.35121e-09 0)
(1 1.28085e-09 0)
(1 1.21118e-09 0)
(1 1.14279e-09 0)
(1 1.07616e-09 0)
(1 1.01164e-09 0)
(1 9.49499e-10 0)
(1 8.89916e-10 0)
(1 8.33001e-10 0)
(1 7.78821e-10 0)
(1 7.27382e-10 0)
(1 6.78653e-10 0)
(1 6.3259e-10 0)
(1 5.89125e-10 0)
(1 5.48182e-10 0)
(1 5.0967e-10 0)
(1 4.73489e-10 0)
(1 4.3953e-10 0)
(1 4.07688e-10 0)
(1 3.77851e-10 0)
(1 3.49906e-10 0)
(1 3.23743e-10 0)
(1 2.99252e-10 0)
(1 2.76326e-10 0)
(1 2.54863e-10 0)
(1 2.34764e-10 0)
(1 2.15936e-10 0)
(1 1.98283e-10 0)
(1 1.8172e-10 0)
(1 1.66167e-10 0)
(1 1.51542e-10 0)
(1 1.37768e-10 0)
(1 1.24773e-10 0)
(1 1.12489e-10 0)
(1 1.00849e-10 0)
(1 8.97804e-11 0)
(1 7.92824e-11 0)
(1 6.90186e-11 0)
(1 6.04684e-11 0)
(1 4.61801e-11 0)
(1 -5.11722e-10 0)
(1 -1.97766e-09 0)
(1 -4.83374e-09 0)
(1 -8.78856e-09 0)
(1 -1.36128e-08 0)
(1 -1.96828e-08 0)
(1 -2.74522e-08 0)
(1 -3.72439e-08 0)
(1 -4.95813e-08 0)
(1 -6.55107e-08 0)
(1 -8.64168e-08 0)
(1 -1.13411e-07 0)
(1 -1.46779e-07 0)
(1 -1.85883e-07 0)
(1 -2.29541e-07 0)
(1 -2.76594e-07 0)
(1 -3.26289e-07 0)
(1 -3.78323e-07 0)
(1 -4.32537e-07 0)
(1 -4.88392e-07 0)
(1 -5.44329e-07 0)
(1 -5.97122e-07 0)
(1 -6.41256e-07 0)
(1 -6.68436e-07 0)
(1 -6.67521e-07 0)
(1 -6.25804e-07 0)
(1.00001 -5.32964e-07 0)
(1.00001 -3.88345e-07 0)
(1.00001 -2.10123e-07 0)
(1.00001 -4.1725e-08 0)
(1.00001 5.18898e-08 0)
(1.00001 4.34564e-09 0)
(1.00001 -2.16158e-07 0)
(1.00001 -5.70712e-07 0)
(1.00001 -9.43793e-07 0)
(1.00001 -1.1892e-06 0)
(1.00001 -1.20627e-06 0)
(1.00001 -9.89014e-07 0)
(1.00001 -6.12339e-07 0)
(1.00001 -1.7499e-07 0)
(1.00001 2.44424e-07 0)
(1.00001 6.16062e-07 0)
(1.00001 9.43885e-07 0)
(1.00001 1.24388e-06 0)
(1.00001 1.52417e-06 0)
(1.00001 1.78046e-06 0)
(1 1.99515e-06 0)
(1 2.13805e-06 0)
(1 2.17891e-06 0)
(1 2.10489e-06 0)
(0.999998 1.92431e-06 0)
(0.999997 1.65595e-06 0)
(0.999996 1.31848e-06 0)
(0.999995 9.28354e-07 0)
(0.999994 5.02198e-07 0)
(0.999994 5.72089e-08 0)
(0.999994 -3.91095e-07 0)
(0.999995 -8.30808e-07 0)
(0.999996 -1.25287e-06 0)
(0.999997 -1.65023e-06 0)
(0.999998 -2.01693e-06 0)
(1 -2.34708e-06 0)
(1 -2.63429e-06 0)
(1 -2.87108e-06 0)
(1.00001 -3.04825e-06 0)
(1.00001 -3.15484e-06 0)
(1.00001 -3.17879e-06 0)
(1.00001 -3.1081e-06 0)
(1.00002 -2.93266e-06 0)
(1.00002 -2.64437e-06 0)
(1.00002 -2.23842e-06 0)
(1.00002 -1.71248e-06 0)
(1.00002 -1.0688e-06 0)
(1.00002 -3.16089e-07 0)
(1.00002 5.33173e-07 0)
(1.00002 1.45448e-06 0)
(1.00002 2.41167e-06 0)
(1.00002 3.35685e-06 0)
(1.00001 4.23131e-06 0)
(1.00001 4.97207e-06 0)
(1.00001 5.52111e-06 0)
(1 5.83529e-06 0)
(0.999999 5.89263e-06 0)
(0.999994 5.69235e-06 0)
(0.99999 5.2522e-06 0)
(0.999986 4.60773e-06 0)
(0.999983 3.81379e-06 0)
(0.999981 2.94256e-06 0)
(0.999979 2.07306e-06 0)
(0.999978 1.27326e-06 0)
(0.999977 5.81924e-07 0)
(0.999977 -1.23641e-09 0)
(0.999977 -5.04632e-07 0)
(0.999978 -9.73516e-07 0)
(0.999979 -1.44367e-06 0)
(0.99998 -1.90743e-06 0)
(0.999982 -2.29675e-06 0)
(0.999983 -2.50991e-06 0)
(0.999985 -2.47052e-06 0)
(0.999987 -2.18015e-06 0)
(0.999989 -1.73098e-06 0)
(0.99999 -1.26535e-06 0)
(0.999991 -9.04121e-07 0)
(0.999991 -6.97013e-07 0)
(0.999992 -6.27283e-07 0)
(0.999992 -6.47808e-07 0)
(0.999992 -7.10186e-07 0)
(0.999993 -7.77026e-07 0)
(0.999994 -8.25304e-07 0)
(0.999994 -8.45133e-07 0)
(0.999995 -8.3586e-07 0)
(0.999996 -8.01962e-07 0)
(0.999996 -7.50025e-07 0)
(0.999997 -6.86791e-07 0)
(0.999997 -6.18097e-07 0)
(0.999998 -5.48469e-07 0)
(0.999998 -4.81108e-07 0)
(0.999998 -4.18065e-07 0)
(0.999999 -3.60481e-07 0)
(0.999999 -3.08839e-07 0)
(0.999999 -2.63168e-07 0)
(0.999999 -2.23209e-07 0)
(0.999999 -1.88541e-07 0)
(0.999999 -1.58662e-07 0)
(1 -1.33044e-07 0)
(1 -1.11175e-07 0)
(1 -9.25698e-08 0)
(1 -7.67902e-08 0)
(1 -6.34418e-08 0)
(1 -5.21773e-08 0)
(1 -4.26928e-08 0)
(1 -3.47249e-08 0)
(1 -2.80463e-08 0)
(1 -2.24617e-08 0)
(1 -1.78038e-08 0)
(1 -1.39297e-08 0)
(1 -1.07175e-08 0)
(1 -8.06295e-09 0)
(1 -5.87748e-09 0)
(1 -4.08733e-09 0)
(1 -2.63154e-09 0)
(1 -1.45867e-09 0)
(1 -5.20882e-10 0)
(1 2.24941e-10 0)
(1 8.13932e-10 0)
(1 1.27348e-09 0)
(1 1.62412e-09 0)
(1 1.88359e-09 0)
(1 2.06799e-09 0)
(1 2.19096e-09 0)
(1 2.26399e-09 0)
(1 2.29673e-09 0)
(1 2.29728e-09 0)
(1 2.27242e-09 0)
(1 2.22776e-09 0)
(1 2.16794e-09 0)
(1 2.09683e-09 0)
(1 2.01758e-09 0)
(1 1.93276e-09 0)
(1 1.84448e-09 0)
(1 1.75444e-09 0)
(1 1.66399e-09 0)
(1 1.57422e-09 0)
(1 1.48596e-09 0)
(1 1.39985e-09 0)
(1 1.31637e-09 0)
(1 1.23589e-09 0)
(1 1.15865e-09 0)
(1 1.08482e-09 0)
(1 1.0145e-09 0)
(1 9.47686e-10 0)
(1 8.84366e-10 0)
(1 8.24485e-10 0)
(1 7.67964e-10 0)
(1 7.14706e-10 0)
(1 6.64597e-10 0)
(1 6.1751e-10 0)
(1 5.73306e-10 0)
(1 5.31849e-10 0)
(1 4.92997e-10 0)
(1 4.56604e-10 0)
(1 4.22528e-10 0)
(1 3.90627e-10 0)
(1 3.60764e-10 0)
(1 3.32807e-10 0)
(1 3.06628e-10 0)
(1 2.82103e-10 0)
(1 2.59114e-10 0)
(1 2.37545e-10 0)
(1 2.17295e-10 0)
(1 1.98258e-10 0)
(1 1.80332e-10 0)
(1 1.63425e-10 0)
(1 1.47447e-10 0)
(1 1.32316e-10 0)
(1 1.17933e-10 0)
(1 1.04304e-10 0)
(1 9.09737e-11 0)
(1 7.97677e-11 0)
(1 6.13984e-11 0)
(1 -6.20626e-10 0)
(1 -2.39994e-09 0)
(1 -5.87261e-09 0)
(1 -1.06836e-08 0)
(1 -1.65526e-08 0)
(1 -2.39383e-08 0)
(1 -3.33926e-08 0)
(1 -4.53093e-08 0)
(1 -6.03267e-08 0)
(1 -7.97206e-08 0)
(1 -1.05179e-07 0)
(1 -1.38059e-07 0)
(1 -1.7871e-07 0)
(1 -2.26364e-07 0)
(1 -2.79593e-07 0)
(1 -3.37004e-07 0)
(1 -3.97706e-07 0)
(1 -4.61366e-07 0)
(1 -5.27842e-07 0)
(1 -5.9655e-07 0)
(1 -6.65678e-07 0)
(1 -7.31371e-07 0)
(1 -7.8694e-07 0)
(1 -8.22177e-07 0)
(1 -8.23118e-07 0)
(1 -7.7347e-07 0)
(1.00001 -6.59424e-07 0)
(1.00001 -4.78845e-07 0)
(1.00001 -2.53313e-07 0)
(1.00001 -3.68558e-08 0)
(1.00001 8.75055e-08 0)
(1.00001 3.30467e-08 0)
(1.00001 -2.44051e-07 0)
(1.00001 -6.96181e-07 0)
(1.00001 -1.17475e-06 0)
(1.00001 -1.49043e-06 0)
(1.00001 -1.51393e-06 0)
(1.00001 -1.23873e-06 0)
(1.00001 -7.6072e-07 0)
(1.00001 -2.08468e-07 0)
(1.00001 3.15559e-07 0)
(1.00001 7.723e-07 0)
(1.00001 1.1719e-06 0)
(1.00001 1.53768e-06 0)
(1.00001 1.88065e-06 0)
(1.00001 2.19565e-06 0)
(1 2.46034e-06 0)
(1 2.63563e-06 0)
(1 2.68267e-06 0)
(1 2.58632e-06 0)
(0.999998 2.35919e-06 0)
(0.999997 2.02603e-06 0)
(0.999996 1.60965e-06 0)
(0.999995 1.12992e-06 0)
(0.999994 6.07587e-07 0)
(0.999994 6.3659e-08 0)
(0.999994 -4.83691e-07 0)
(0.999995 -1.02072e-06 0)
(0.999995 -1.53701e-06 0)
(0.999997 -2.02424e-06 0)
(0.999998 -2.47491e-06 0)
(1 -2.88094e-06 0)
(1 -3.23265e-06 0)
(1 -3.51827e-06 0)
(1.00001 -3.7247e-06 0)
(1.00001 -3.83884e-06 0)
(1.00001 -3.84853e-06 0)
(1.00001 -3.74313e-06 0)
(1.00002 -3.51296e-06 0)
(1.00002 -3.14934e-06 0)
(1.00002 -2.64752e-06 0)
(1.00002 -2.00589e-06 0)
(1.00002 -1.22603e-06 0)
(1.00002 -3.14797e-07 0)
(1.00002 7.10729e-07 0)
(1.00002 1.82398e-06 0)
(1.00002 2.98128e-06 0)
(1.00002 4.12278e-06 0)
(1.00002 5.17683e-06 0)
(1.00001 6.06752e-06 0)
(1.00001 6.7255e-06 0)
(1 7.09907e-06 0)
(0.999999 7.1613e-06 0)
(0.999994 6.91061e-06 0)
(0.99999 6.36841e-06 0)
(0.999986 5.57836e-06 0)
(0.999983 4.60674e-06 0)
(0.99998 3.54068e-06 0)
(0.999979 2.47855e-06 0)
(0.999977 1.50628e-06 0)
(0.999977 6.70667e-07 0)
(0.999977 -2.89984e-08 0)
(0.999977 -6.31611e-07 0)
(0.999978 -1.19634e-06 0)
(0.999978 -1.77117e-06 0)
(0.99998 -2.34798e-06 0)
(0.999981 -2.83877e-06 0)
(0.999983 -3.11013e-06 0)
(0.999986 -3.0608e-06 0)
(0.999987 -2.69095e-06 0)
(0.999989 -2.1195e-06 0)
(0.99999 -1.53101e-06 0)
(0.999991 -1.08057e-06 0)
(0.999991 -8.28831e-07 0)
(0.999992 -7.50541e-07 0)
(0.999992 -7.83603e-07 0)
(0.999992 -8.66401e-07 0)
(0.999993 -9.52339e-07 0)
(0.999994 -1.01335e-06 0)
(0.999994 -1.03794e-06 0)
(0.999995 -1.02597e-06 0)
(0.999996 -9.83461e-07 0)
(0.999996 -9.18817e-07 0)
(0.999997 -8.4049e-07 0)
(0.999997 -7.55704e-07 0)
(0.999998 -6.70008e-07 0)
(0.999998 -5.87288e-07 0)
(0.999998 -5.1001e-07 0)
(0.999999 -4.39529e-07 0)
(0.999999 -3.76395e-07 0)
(0.999999 -3.20613e-07 0)
(0.999999 -2.71847e-07 0)
(0.999999 -2.29564e-07 0)
(0.999999 -1.93138e-07 0)
(1 -1.61921e-07 0)
(1 -1.35279e-07 0)
(1 -1.1262e-07 0)
(1 -9.34056e-08 0)
(1 -7.71549e-08 0)
(1 -6.3443e-08 0)
(1 -5.18995e-08 0)
(1 -4.22029e-08 0)
(1 -3.40763e-08 0)
(1 -2.72816e-08 0)
(1 -2.1615e-08 0)
(1 -1.69025e-08 0)
(1 -1.29955e-08 0)
(1 -9.76779e-09 0)
(1 -7.11221e-09 0)
(1 -4.93801e-09 0)
(1 -3.16753e-09 0)
(1 -1.73487e-09 0)
(1 -5.83452e-10 0)
(1 3.33927e-10 0)
(1 1.05485e-09 0)
(1 1.61138e-09 0)
(1 2.03196e-09 0)
(1 2.34076e-09 0)
(1 2.55824e-09 0)
(1 2.70141e-09 0)
(1 2.78445e-09 0)
(1 2.8192e-09 0)
(1 2.8155e-09 0)
(1 2.78151e-09 0)
(1 2.72401e-09 0)
(1 2.64858e-09 0)
(1 2.55984e-09 0)
(1 2.46155e-09 0)
(1 2.35681e-09 0)
(1 2.24812e-09 0)
(1 2.13752e-09 0)
(1 2.02661e-09 0)
(1 1.91669e-09 0)
(1 1.80873e-09 0)
(1 1.70349e-09 0)
(1 1.60156e-09 0)
(1 1.50334e-09 0)
(1 1.40915e-09 0)
(1 1.31915e-09 0)
(1 1.23345e-09 0)
(1 1.15207e-09 0)
(1 1.07496e-09 0)
(1 1.00207e-09 0)
(1 9.33279e-10 0)
(1 8.68476e-10 0)
(1 8.07515e-10 0)
(1 7.5024e-10 0)
(1 6.9648e-10 0)
(1 6.46067e-10 0)
(1 5.98827e-10 0)
(1 5.54581e-10 0)
(1 5.13155e-10 0)
(1 4.74376e-10 0)
(1 4.38078e-10 0)
(1 4.04097e-10 0)
(1 3.72278e-10 0)
(1 3.4247e-10 0)
(1 3.14528e-10 0)
(1 2.88314e-10 0)
(1 2.637e-10 0)
(1 2.40561e-10 0)
(1 2.18771e-10 0)
(1 1.98217e-10 0)
(1 1.78792e-10 0)
(1 1.60394e-10 0)
(1 1.42905e-10 0)
(1 1.26327e-10 0)
(1 1.10103e-10 0)
(1 9.64291e-11 0)
(1 7.41049e-11 0)
(1 -7.26723e-10 0)
(1 -2.81191e-09 0)
(1 -6.89046e-09 0)
(1 -1.2544e-08 0)
(1 -1.94417e-08 0)
(1 -2.8123e-08 0)
(1 -3.92375e-08 0)
(1 -5.32488e-08 0)
(1 -7.09092e-08 0)
(1 -9.37224e-08 0)
(1 -1.23677e-07 0)
(1 -1.62374e-07 0)
(1 -2.1023e-07 0)
(1 -2.66348e-07 0)
(1 -3.29068e-07 0)
(1 -3.96772e-07 0)
(1 -4.68454e-07 0)
(1 -5.43773e-07 0)
(1 -6.2264e-07 0)
(1 -7.0446e-07 0)
(1 -7.87208e-07 0)
(1 -8.66448e-07 0)
(1 -9.34381e-07 0)
(1 -9.78909e-07 0)
(1 -9.8314e-07 0)
(1 -9.26775e-07 0)
(1.00001 -7.91703e-07 0)
(1.00001 -5.73279e-07 0)
(1.00001 -2.95753e-07 0)
(1.00001 -2.4313e-08 0)
(1.00001 1.37827e-07 0)
(1.00001 7.98061e-08 0)
(1.00001 -2.57954e-07 0)
(1.00001 -8.1971e-07 0)
(1.00001 -1.41907e-06 0)
(1.00001 -1.81554e-06 0)
(1.00001 -1.8457e-06 0)
(1.00001 -1.50397e-06 0)
(1.00001 -9.15125e-07 0)
(1.00001 -2.44379e-07 0)
(1.00001 3.82344e-07 0)
(1.00001 9.20736e-07 0)
(1.00001 1.38914e-06 0)
(1.00001 1.81941e-06 0)
(1.00001 2.22575e-06 0)
(1.00001 2.60249e-06 0)
(1 2.92283e-06 0)
(1 3.13765e-06 0)
(1 3.19751e-06 0)
(1 3.08358e-06 -8.89883e-41)
(0.999998 2.81247e-06 -8.91952e-41)
(0.999997 2.41524e-06 0)
(0.999996 1.91931e-06 0)
(0.999995 1.3481e-06 0)
(0.999994 7.26351e-07 0)
(0.999994 7.93287e-08 0)
(0.999994 -5.71402e-07 0)
(0.999994 -1.20939e-06 0)
(0.999995 -1.82209e-06 0)
(0.999996 -2.39964e-06 0)
(0.999998 -2.93345e-06 0)
(0.999999 -3.41451e-06 0)
(1 -3.83208e-06 0)
(1 -4.17345e-06 0)
(1.00001 -4.42425e-06 0)
(1.00001 -4.56918e-06 0)
(1.00001 -4.59269e-06 0)
(1.00001 -4.47995e-06 0)
(1.00002 -4.21767e-06 0)
(1.00002 -3.79541e-06 0)
(1.00002 -3.20692e-06 0)
(1.00002 -2.44921e-06 0)
(1.00002 -1.52365e-06 0)
(1.00002 -4.38577e-07 0)
(1.00002 7.85941e-07 0)
(1.00002 2.11821e-06 0)
(1.00002 3.50659e-06 0)
(1.00002 4.88012e-06 0)
(1.00002 6.15254e-06 0)
(1.00001 7.23131e-06 0)
(1.00001 8.0308e-06 0)
(1 8.48687e-06 0)
(0.999999 8.56644e-06 0)
(0.999994 8.26799e-06 0)
(0.99999 7.61764e-06 0)
(0.999986 6.6676e-06 0)
(0.999983 5.49712e-06 0)
(0.99998 4.2122e-06 0)
(0.999978 2.93457e-06 0)
(0.999977 1.77084e-06 0)
(0.999977 7.78284e-07 0)
(0.999977 -4.56534e-08 0)
(0.999977 -7.50758e-07 0)
(0.999977 -1.41295e-06 0)
(0.999978 -2.09656e-06 0)
(0.99998 -2.79531e-06 0)
(0.999981 -3.39888e-06 0)
(0.999983 -3.73654e-06 0)
(0.999986 -3.67711e-06 0)
(0.999988 -3.21826e-06 0)
(0.999989 -2.50992e-06 0)
(0.99999 -1.78609e-06 0)
(0.999991 -1.24104e-06 0)
(0.999991 -9.46004e-07 0)
(0.999992 -8.63846e-07 0)
(0.999992 -9.14571e-07 0)
(0.999992 -1.02188e-06 0)
(0.999993 -1.12948e-06 0)
(0.999994 -1.20437e-06 0)
(0.999994 -1.23386e-06 0)
(0.999995 -1.21876e-06 0)
(0.999996 -1.16693e-06 0)
(0.999996 -1.08886e-06 0)
(0.999997 -9.94803e-07 0)
(0.999997 -8.9343e-07 0)
(0.999998 -7.9131e-07 0)
(0.999998 -6.93003e-07 0)
(0.999998 -6.01363e-07 0)
(0.999999 -5.17928e-07 0)
(0.999999 -4.43297e-07 0)
(0.999999 -3.77432e-07 0)
(0.999999 -3.19904e-07 0)
(0.999999 -2.70059e-07 0)
(0.999999 -2.27145e-07 0)
(1 -1.90385e-07 0)
(1 -1.59023e-07 0)
(1 -1.32359e-07 0)
(1 -1.09754e-07 0)
(1 -9.06387e-08 0)
(1 -7.45129e-08 0)
(1 -6.09393e-08 0)
(1 -4.95391e-08 0)
(1 -3.99859e-08 0)
(1 -3.19994e-08 0)
(1 -2.53399e-08 0)
(1 -1.98025e-08 0)
(1 -1.52124e-08 0)
(1 -1.14211e-08 0)
(1 -8.30208e-09 0)
(1 -5.74827e-09 0)
(1 -3.66923e-09 0)
(1 -1.98875e-09 0)
(1 -6.41162e-10 0)
(1 4.29842e-10 0)
(1 1.27072e-09 0)
(1 1.92063e-09 0)
(1 2.41274e-09 0)
(1 2.7747e-09 0)
(1 3.0299e-09 0)
(1 3.19801e-09 0)
(1 3.29549e-09 0)
(1 3.33614e-09 0)