/*--------------------------------*- C++ -*----------------------------------*\
| =========                 |                                                 |
| \\      /  F ield         | OpenFOAM: The Open Source CFD Toolbox           |
|  \\    /   O peration     | Version:  v2006                                 |
|   \\  /    A nd           | Website:  www.openfoam.com                      |
|    \\/     M anipulation  |                                                 |
\*---------------------------------------------------------------------------*/
FoamFile
{
    version     2.0;
    format      ascii;
    class       volScalarField;
    location    "15.6";
    object      p_rgh;
}
// * * * * * * * * * * * * * * * * * * * * * * * * * * * * * * * * * * * * * //

dimensions      [1 -1 -2 0 0 0 0];


internalField   nonuniform List<scalar> 
52500
(
1450.77
1450.7
1450.54
1450.3
1449.99
1449.59
1449.12
1448.57
1447.95
1447.24
1446.46
1445.61
1444.68
1443.67
1442.59
1441.44
1440.21
1438.91
1437.54
1436.09
1434.58
1432.99
1431.34
1429.62
1427.83
1425.97
1424.04
1422.06
1420
1417.89
1415.71
1413.47
1411.17
1408.81
1406.39
1403.92
1401.4
1398.82
1396.19
1393.51
1390.78
1388
1385.18
1382.32
1379.42
1376.48
1373.5
1370.49
1367.45
1364.38
1361.28
1358.15
1355
1351.82
1348.62
1345.39
1342.15
1338.9
1335.63
1332.35
1329.07
1325.78
1322.49
1319.2
1315.91
1312.63
1309.37
1306.11
1302.87
1299.65
1296.44
1293.27
1290.12
1287
1283.92
1280.87
1277.86
1274.9
1271.98
1269.11
1266.29
1263.53
1260.83
1258.19
1255.61
1253.11
1250.67
1248.31
1246.02
1243.82
1241.7
1239.67
1237.72
1235.87
1234.11
1232.45
1230.89
1229.44
1228.09
1226.85
1225.72
1224.7
1223.81
1223.03
1222.37
1221.84
1221.43
1221.16
1221.01
1221
1221.12
1221.38
1221.78
1222.32
1223
1223.82
1224.8
1225.92
1227.19
1228.61
1230.18
1231.9
1233.79
1235.82
1238.02
1240.37
1242.88
1245.55
1248.38
1251.37
1254.53
1257.85
1261.33
1264.97
1268.78
1272.76
1276.9
1281.2
1285.67
1290.3
1295.1
1300.06
1305.19
1310.48
1315.93
1321.54
1327.32
1333.25
1339.35
1345.61
1352.02
1358.6
1365.33
1372.21
1379.25
1386.44
1393.79
1401.29
1408.93
1416.72
1424.66
1432.73
1440.94
1449.28
1457.75
1466.36
1475.09
1483.95
1492.93
1502.02
1511.24
1520.58
1530.02
1539.59
1549.25
1559.02
1568.89
1578.85
1588.9
1599.04
1609.27
1619.57
1629.96
1640.42
1650.94
1661.54
1672.19
1682.91
1693.68
1704.5
1715.37
1726.28
1737.23
1748.22
1759.24
1770.28
1781.35
1792.44
1803.55
1814.67
1825.79
1836.92
1848.05
1859.17
1870.29
1881.39
1892.48
1903.55
1914.6
1925.63
1936.63
1947.59
1958.52
1969.42
1980.27
1991.09
2001.86
2012.58
2023.24
2033.86
2044.42
2054.93
2065.37
2075.75
2086.07
2096.33
2106.51
2116.63
2126.68
2136.66
2146.56
2156.4
2166.15
2175.84
2185.44
2194.97
2204.42
2213.8
2223.09
2232.31
2241.45
2250.51
2259.49
2268.39
2277.22
2285.96
2294.63
2303.22
2311.73
2320.17
2328.53
2336.81
2345.02
2353.16
2361.22
2369.21
2377.14
2385
2392.8
2400.51
2408.14
2415.71
2423.21
2430.64
2438
2445.31
2452.54
2459.72
2466.83
2473.88
2480.87
2487.79
2494.66
2501.45
2508.19
2514.86
2521.47
2528.01
2534.48
2540.89
2547.23
2553.5
2559.71
2565.83
2571.88
2577.86
2583.78
2589.66
2595.52
2601.37
2607.21
2613.02
2618.8
2624.52
2630.18
2635.76
2641.27
2646.71
2652.08
2657.38
2662.62
2667.8
2672.91
2677.96
2682.94
2687.85
2692.69
2697.46
2702.16
2706.78
2711.32
2715.78
2720.16
2724.46
2728.68
2732.81
2736.85
2740.8
2744.66
2748.42
2752.09
2755.67
2759.14
2762.51
2765.78
2768.94
2772
2774.95
2777.78
2780.51
2783.13
2785.62
2788.01
2790.27
2792.41
2794.43
2796.33
2798.1
2799.75
2801.26
2802.64
2803.89
2805.01
2805.99
2806.83
2807.53
2808.09
2808.52
2808.8
2808.95
1450.87
1450.79
1450.63
1450.39
1450.08
1449.68
1449.21
1448.66
1448.04
1447.33
1446.56
1445.7
1444.77
1443.77
1442.69
1441.54
1440.31
1439.01
1437.64
1436.2
1434.68
1433.1
1431.45
1429.73
1427.94
1426.08
1424.16
1422.17
1420.12
1418.01
1415.83
1413.59
1411.29
1408.93
1406.52
1404.05
1401.52
1398.94
1396.31
1393.63
1390.9
1388.13
1385.31
1382.44
1379.54
1376.59
1373.61
1370.6
1367.55
1364.48
1361.37
1358.23
1355.07
1351.88
1348.67
1345.44
1342.2
1338.93
1335.66
1332.37
1329.08
1325.78
1322.48
1319.18
1315.89
1312.6
1309.33
1306.06
1302.81
1299.58
1296.37
1293.19
1290.03
1286.91
1283.81
1280.76
1277.74
1274.77
1271.84
1268.97
1266.14
1263.37
1260.66
1258.01
1255.43
1252.91
1250.47
1248.1
1245.81
1243.6
1241.47
1239.43
1237.47
1235.61
1233.85
1232.18
1230.62
1229.15
1227.8
1226.55
1225.42
1224.4
1223.49
1222.71
1222.04
1221.51
1221.09
1220.81
1220.66
1220.64
1220.76
1221.01
1221.41
1221.94
1222.62
1223.44
1224.41
1225.52
1226.79
1228.2
1229.77
1231.5
1233.37
1235.41
1237.6
1239.95
1242.45
1245.12
1247.95
1250.94
1254.09
1257.41
1260.89
1264.54
1268.34
1272.32
1276.46
1280.76
1285.23
1289.86
1294.66
1299.62
1304.75
1310.04
1315.5
1321.11
1326.89
1332.83
1338.93
1345.19
1351.61
1358.19
1364.93
1371.82
1378.86
1386.06
1393.41
1400.89
1408.53
1416.32
1424.25
1432.33
1440.54
1448.89
1457.38
1466
1474.76
1483.63
1492.63
1501.75
1510.99
1520.34
1529.79
1539.35
1549.01
1558.78
1568.65
1578.62
1588.68
1598.82
1609.06
1619.37
1629.76
1640.23
1650.77
1661.37
1672.04
1682.76
1693.54
1704.37
1715.25
1726.17
1737.13
1748.12
1759.15
1770.21
1781.28
1792.38
1803.5
1814.62
1825.76
1836.89
1848.03
1859.16
1870.29
1881.4
1892.5
1903.58
1914.64
1925.67
1936.68
1947.65
1958.59
1969.49
1980.36
1991.18
2001.95
2012.68
2023.35
2033.97
2044.54
2055.05
2065.5
2075.89
2086.21
2096.47
2106.66
2116.78
2126.84
2136.82
2146.72
2156.56
2166.32
2176
2185.61
2195.14
2204.6
2213.97
2223.27
2232.49
2241.63
2250.69
2259.67
2268.58
2277.4
2286.15
2294.81
2303.4
2311.91
2320.35
2328.71
2336.99
2345.19
2353.32
2361.37
2369.35
2377.25
2385.07
2392.82
2400.49
2408.12
2415.68
2423.17
2430.6
2437.96
2445.25
2452.48
2459.64
2466.74
2473.78
2480.75
2487.67
2494.52
2501.32
2508.06
2514.73
2521.35
2527.9
2534.4
2540.83
2547.2
2553.5
2559.74
2565.92
2572.04
2578.09
2584.09
2590.03
2595.92
2601.76
2607.56
2613.32
2619.03
2624.69
2630.3
2635.84
2641.34
2646.77
2652.14
2657.45
2662.69
2667.88
2672.99
2678.05
2683.03
2687.94
2692.79
2697.56
2702.25
2706.88
2711.42
2715.89
2720.28
2724.58
2728.8
2732.93
2736.98
2740.93
2744.8
2748.57
2752.24
2755.81
2759.29
2762.66
2765.94
2769.1
2772.16
2775.12
2777.96
2780.69
2783.31
2785.81
2788.2
2790.47
2792.62
2794.65
2796.55
2798.33
2799.98
2801.51
2802.9
2804.15
2805.28
2806.26
2807.11
2807.81
2808.38
2808.8
2809.08
2809.23
1451.15
1451.08
1450.92
1450.68
1450.36
1449.97
1449.49
1448.94
1448.32
1447.61
1446.84
1445.98
1445.05
1444.05
1442.97
1441.81
1440.59
1439.29
1437.92
1436.48
1434.96
1433.38
1431.73
1430
1428.22
1426.36
1424.44
1422.45
1420.4
1418.28
1416.1
1413.86
1411.56
1409.2
1406.79
1404.31
1401.78
1399.2
1396.57
1393.88
1391.15
1388.37
1385.54
1382.67
1379.76
1376.81
1373.82
1370.79
1367.73
1364.64
1361.52
1358.37
1355.19
1351.99
1348.76
1345.52
1342.25
1338.97
1335.68
1332.38
1329.08
1325.76
1322.45
1319.14
1315.83
1312.53
1309.23
1305.95
1302.69
1299.44
1296.22
1293.02
1289.84
1286.7
1283.59
1280.52
1277.49
1274.5
1271.56
1268.67
1265.83
1263.04
1260.32
1257.65
1255.05
1252.52
1250.06
1247.68
1245.37
1243.14
1241
1238.94
1236.98
1235.1
1233.32
1231.64
1230.06
1228.58
1227.21
1225.95
1224.81
1223.77
1222.86
1222.06
1221.38
1220.83
1220.41
1220.12
1219.95
1219.92
1220.03
1220.27
1220.66
1221.18
1221.85
1222.66
1223.62
1224.73
1225.99
1227.39
1228.96
1230.67
1232.54
1234.57
1236.75
1239.1
1241.6
1244.26
1247.09
1250.08
1253.23
1256.54
1260.02
1263.66
1267.47
1271.44
1275.58
1279.88
1284.35
1288.98
1293.78
1298.74
1303.87
1309.16
1314.62
1320.24
1326.02
1331.97
1338.08
1344.34
1350.77
1357.35
1364.09
1370.99
1378.04
1385.25
1392.6
1400.11
1407.76
1415.56
1423.51
1431.59
1439.82
1448.18
1456.68
1465.32
1474.08
1482.96
1491.97
1501.1
1510.35
1519.71
1529.18
1538.76
1548.45
1558.24
1568.12
1578.11
1588.19
1598.35
1608.6
1618.94
1629.35
1639.83
1650.39
1661.01
1671.7
1682.44
1693.24
1704.09
1714.99
1725.93
1736.91
1747.93
1758.97
1770.05
1781.14
1792.26
1803.39
1814.54
1825.69
1836.84
1848
1859.15
1870.29
1881.42
1892.54
1903.63
1914.71
1925.76
1936.78
1947.77
1958.73
1969.65
1980.52
1991.36
2002.15
2012.89
2023.57
2034.21
2044.79
2055.31
2065.77
2076.17
2086.5
2096.77
2106.97
2117.1
2127.16
2137.15
2147.06
2156.91
2166.67
2176.36
2185.98
2195.51
2204.97
2214.35
2223.65
2232.87
2242.02
2251.08
2260.06
2268.97
2277.79
2286.54
2295.21
2303.8
2312.31
2320.74
2329.1
2337.38
2345.58
2353.71
2361.77
2369.75
2377.65
2385.49
2393.25
2400.95
2408.57
2416.12
2423.6
2431.01
2438.35
2445.63
2452.85
2460
2467.09
2474.11
2481.07
2487.97
2494.81
2501.59
2508.3
2514.96
2521.55
2528.08
2534.56
2540.97
2547.33
2553.63
2559.86
2566.04
2572.16
2578.22
2584.23
2590.18
2596.09
2601.95
2607.77
2613.54
2619.26
2624.92
2630.53
2636.07
2641.56
2646.98
2652.34
2657.65
2662.89
2668.07
2673.18
2678.23
2683.21
2688.13
2692.97
2697.74
2702.44
2707.06
2711.6
2716.07
2720.46
2724.76
2728.98
2733.12
2737.16
2741.12
2744.98
2748.75
2752.43
2756
2759.48
2762.85
2766.12
2769.29
2772.35
2775.3
2778.14
2780.87
2783.48
2785.99
2788.37
2790.64
2792.79
2794.81
2796.72
2798.5
2800.15
2801.67
2803.07
2804.33
2805.46
2806.44
2807.29
2808
2808.57
2808.99
2809.27
2809.42
1451.63
1451.56
1451.4
1451.16
1450.84
1450.44
1449.97
1449.42
1448.79
1448.08
1447.3
1446.44
1445.51
1444.5
1443.42
1442.27
1441.04
1439.74
1438.36
1436.92
1435.4
1433.81
1432.16
1430.43
1428.64
1426.78
1424.85
1422.86
1420.8
1418.68
1416.5
1414.25
1411.94
1409.58
1407.15
1404.67
1402.14
1399.55
1396.9
1394.21
1391.47
1388.68
1385.84
1382.96
1380.03
1377.07
1374.07
1371.03
1367.95
1364.84
1361.7
1358.53
1355.34
1352.12
1348.87
1345.61
1342.32
1339.03
1335.72
1332.39
1329.07
1325.73
1322.4
1319.06
1315.73
1312.41
1309.09
1305.79
1302.5
1299.23
1295.98
1292.76
1289.56
1286.4
1283.26
1280.17
1277.11
1274.1
1271.14
1268.22
1265.36
1262.55
1259.8
1257.11
1254.49
1251.93
1249.45
1247.04
1244.71
1242.46
1240.29
1238.21
1236.22
1234.33
1232.53
1230.82
1229.22
1227.72
1226.33
1225.05
1223.88
1222.83
1221.89
1221.08
1220.38
1219.82
1219.38
1219.06
1218.88
1218.84
1218.93
1219.16
1219.53
1220.04
1220.69
1221.49
1222.44
1223.53
1224.78
1226.18
1227.73
1229.43
1231.29
1233.31
1235.49
1237.82
1240.32
1242.98
1245.8
1248.78
1251.92
1255.23
1258.71
1262.34
1266.15
1270.12
1274.26
1278.56
1283.03
1287.66
1292.46
1297.43
1302.56
1307.86
1313.32
1318.94
1324.73
1330.68
1336.8
1343.07
1349.51
1356.1
1362.85
1369.76
1376.83
1384.04
1391.41
1398.93
1406.6
1414.41
1422.37
1430.47
1438.71
1447.09
1455.61
1464.26
1473.04
1481.94
1490.97
1500.12
1509.39
1518.78
1528.27
1537.88
1547.59
1557.41
1567.32
1577.33
1587.43
1597.63
1607.91
1618.27
1628.71
1639.22
1649.81
1660.46
1671.17
1681.94
1692.77
1703.65
1714.58
1725.55
1736.56
1747.6
1758.68
1769.78
1780.91
1792.06
1803.22
1814.39
1825.57
1836.75
1847.93
1859.11
1870.28
1881.44
1892.58
1903.71
1914.81
1925.89
1936.93
1947.95
1958.93
1969.87
1980.77
1991.63
2002.44
2013.2
2023.9
2034.56
2045.16
2055.69
2066.17
2076.59
2086.93
2097.22
2107.43
2117.58
2127.65
2137.65
2147.58
2157.43
2167.21
2176.91
2186.53
2196.07
2205.54
2214.92
2224.23
2233.46
2242.61
2251.67
2260.66
2269.57
2278.39
2287.14
2295.81
2304.39
2312.9
2321.34
2329.69
2337.96
2346.16
2354.29
2362.33
2370.31
2378.2
2386.03
2393.78
2401.46
2409.08
2416.62
2424.1
2431.5
2438.84
2446.12
2453.32
2460.46
2467.54
2474.56
2481.51
2488.39
2495.22
2501.99
2508.69
2515.33
2521.92
2528.44
2534.91
2541.31
2547.66
2553.95
2560.18
2566.36
2572.48
2578.54
2584.56
2590.52
2596.43
2602.3
2608.11
2613.86
2619.57
2625.22
2630.82
2636.35
2641.83
2647.26
2652.62
2657.92
2663.16
2668.34
2673.45
2678.5
2683.48
2688.4
2693.24
2698.01
2702.71
2707.33
2711.88
2716.34
2720.73
2725.04
2729.26
2733.39
2737.44
2741.4
2745.26
2749.03
2752.71
2756.28
2759.76
2763.13
2766.4
2769.57
2772.62
2775.57
2778.41
2781.13
2783.74
2786.23
2788.61
2790.87
2793.01
2795.02
2796.92
2798.69
2800.33
2801.85
2803.23
2804.49
2805.61
2806.59
2807.44
2808.14
2808.7
2809.12
2809.41
2809.56
1452.29
1452.22
1452.06
1451.82
1451.5
1451.1
1450.62
1450.07
1449.44
1448.73
1447.94
1447.08
1446.15
1445.13
1444.05
1442.89
1441.65
1440.35
1438.97
1437.51
1435.99
1434.4
1432.73
1431
1429.2
1427.33
1425.4
1423.4
1421.33
1419.2
1417.01
1414.76
1412.44
1410.07
1407.63
1405.14
1402.59
1399.99
1397.34
1394.63
1391.87
1389.07
1386.21
1383.32
1380.38
1377.39
1374.37
1371.31
1368.21
1365.08
1361.92
1358.73
1355.51
1352.26
1349
1345.71
1342.4
1339.07
1335.74
1332.39
1329.03
1325.67
1322.31
1318.95
1315.59
1312.23
1308.89
1305.56
1302.24
1298.94
1295.66
1292.41
1289.18
1285.98
1282.82
1279.69
1276.61
1273.56
1270.57
1267.62
1264.72
1261.88
1259.1
1256.38
1253.73
1251.14
1248.63
1246.19
1243.83
1241.55
1239.35
1237.24
1235.22
1233.29
1231.46
1229.73
1228.1
1226.57
1225.15
1223.85
1222.65
1221.57
1220.61
1219.77
1219.05
1218.46
1217.99
1217.66
1217.46
1217.39
1217.46
1217.67
1218.02
1218.51
1219.14
1219.93
1220.86
1221.94
1223.17
1224.55
1226.09
1227.78
1229.63
1231.63
1233.8
1236.12
1238.61
1241.26
1244.07
1247.04
1250.18
1253.49
1256.96
1260.59
1264.39
1268.36
1272.49
1276.8
1281.26
1285.9
1290.7
1295.67
1300.81
1306.11
1311.58
1317.21
1323.01
1328.97
1335.09
1341.37
1347.82
1354.43
1361.19
1368.12
1375.19
1382.43
1389.81
1397.35
1405.04
1412.87
1420.86
1428.98
1437.25
1445.65
1454.19
1462.86
1471.67
1480.6
1489.66
1498.84
1508.14
1517.55
1527.08
1536.72
1546.46
1556.31
1566.26
1576.31
1586.45
1596.68
1606.99
1617.39
1627.87
1638.42
1649.04
1659.73
1670.48
1681.29
1692.16
1703.08
1714.05
1725.05
1736.1
1747.19
1758.3
1769.44
1780.61
1791.79
1802.99
1814.2
1825.42
1836.64
1847.86
1859.07
1870.28
1881.47
1892.65
1903.81
1914.95
1926.06
1937.14
1948.19
1959.2
1970.17
1981.1
1991.99
2002.83
2013.61
2024.35
2035.03
2045.65
2056.21
2066.71
2077.15
2087.52
2097.82
2108.06
2118.22
2128.31
2138.33
2148.27
2158.13
2167.92
2177.64
2187.27
2196.82
2206.3
2215.69
2225.01
2234.24
2243.4
2252.47
2261.46
2270.37
2279.2
2287.94
2296.61
2305.2
2313.71
2322.14
2330.49
2338.76
2346.95
2355.07
2363.12
2371.08
2378.97
2386.79
2394.54
2402.21
2409.81
2417.34
2424.8
2432.2
2439.52
2446.78
2453.98
2461.1
2468.17
2475.16
2482.1
2488.97
2495.78
2502.53
2509.22
2515.85
2522.42
2528.93
2535.38
2541.77
2548.11
2554.39
2560.62
2566.79
2572.91
2578.98
2584.99
2590.96
2596.87
2602.74
2608.55
2614.31
2620.01
2625.66
2631.25
2636.78
2642.26
2647.67
2653.03
2658.33
2663.56
2668.73
2673.84
2678.89
2683.87
2688.78
2693.62
2698.39
2703.09
2707.71
2712.26
2716.73
2721.12
2725.42
2729.64
2733.78
2737.83
2741.79
2745.65
2749.42
2753.1
2756.68
2760.15
2763.53
2766.8
2769.96
2773.02
2775.96
2778.79
2781.51
2784.12
2786.61
2788.97
2791.22
2793.35
2795.35
2797.23
2798.99
2800.62
2802.12
2803.49
2804.72
2805.83
2806.8
2807.63
2808.33
2808.88
2809.29
2809.57
2809.73
1453.13
1453.06
1452.9
1452.65
1452.33
1451.93
1451.45
1450.89
1450.25
1449.54
1448.75
1447.89
1446.94
1445.93
1444.83
1443.67
1442.42
1441.11
1439.72
1438.26
1436.73
1435.13
1433.46
1431.72
1429.91
1428.03
1426.09
1424.08
1422
1419.86
1417.65
1415.39
1413.06
1410.67
1408.23
1405.72
1403.16
1400.54
1397.87
1395.15
1392.37
1389.55
1386.68
1383.76
1380.8
1377.8
1374.75
1371.67
1368.55
1365.39
1362.2
1358.98
1355.74
1352.46
1349.16
1345.84
1342.5
1339.15
1335.78
1332.4
1329.01
1325.61
1322.21
1318.81
1315.42
1312.03
1308.65
1305.28
1301.92
1298.58
1295.27
1291.97
1288.71
1285.47
1282.27
1279.1
1275.98
1272.89
1269.85
1266.87
1263.93
1261.05
1258.23
1255.47
1252.78
1250.15
1247.6
1245.12
1242.72
1240.4
1238.17
1236.02
1233.96
1232
1230.13
1228.36
1226.69
1225.13
1223.68
1222.34
1221.11
1220
1219
1218.13
1217.38
1216.76
1216.26
1215.9
1215.67
1215.58
1215.62
1215.8
1216.13
1216.59
1217.21
1217.97
1218.88
1219.93
1221.15
1222.51
1224.03
1225.7
1227.54
1229.53
1231.68
1233.99
1236.47
1239.1
1241.91
1244.87
1248
1251.3
1254.76
1258.39
1262.19
1266.15
1270.29
1274.59
1279.06
1283.69
1288.5
1293.47
1298.61
1303.92
1309.39
1315.03
1320.84
1326.81
1332.95
1339.25
1345.71
1352.33
1359.11
1366.05
1373.15
1380.41
1387.81
1395.37
1403.09
1410.95
1418.95
1427.1
1435.4
1443.83
1452.4
1461.1
1469.94
1478.91
1488
1497.22
1506.55
1516
1525.57
1535.25
1545.04
1554.93
1564.92
1575.01
1585.19
1595.47
1605.83
1616.27
1626.8
1637.4
1648.07
1658.8
1669.6
1680.46
1691.38
1702.35
1713.36
1724.42
1735.52
1746.65
1757.82
1769.01
1780.22
1791.46
1802.71
1813.96
1825.23
1836.5
1847.76
1859.03
1870.28
1881.52
1892.74
1903.94
1915.12
1926.28
1937.4
1948.49
1959.54
1970.55
1981.52
1992.44
2003.32
2014.14
2024.91
2035.62
2046.27
2056.86
2067.39
2077.86
2088.25
2098.58
2108.84
2119.02
2129.14
2139.17
2149.13
2159.02
2168.83
2178.55
2188.2
2197.77
2207.25
2216.66
2225.98
2235.23
2244.39
2253.46
2262.46
2271.37
2280.2
2288.95
2297.62
2306.21
2314.71
2323.14
2331.49
2339.75
2347.94
2356.05
2364.09
2372.05
2379.93
2387.74
2395.47
2403.13
2410.72
2418.24
2425.69
2433.07
2440.38
2447.62
2454.8
2461.91
2468.96
2475.94
2482.86
2489.71
2496.51
2503.24
2509.91
2516.52
2523.08
2529.57
2536.01
2542.39
2548.71
2554.98
2561.2
2567.36
2573.46
2579.52
2585.52
2591.48
2597.38
2603.23
2609.03
2614.78
2620.47
2626.11
2631.7
2637.22
2642.7
2648.11
2653.47
2658.76
2664
2669.17
2674.28
2679.32
2684.3
2689.21
2694.05
2698.82
2703.52
2708.15
2712.7
2717.17
2721.56
2725.86
2730.09
2734.23
2738.28
2742.24
2746.11
2749.89
2753.56
2757.14
2760.62
2764
2767.27
2770.44
2773.49
2776.44
2779.27
2781.99
2784.59
2787.08
2789.44
2791.68
2793.8
2795.79
2797.66
2799.4
2801.02
2802.5
2803.85
2805.07
2806.16
2807.12
2807.93
2808.61
2809.15
2809.56
2809.84
2810
1454.13
1454.06
1453.9
1453.65
1453.32
1452.92
1452.44
1451.87
1451.23
1450.52
1449.72
1448.85
1447.9
1446.88
1445.77
1444.6
1443.35
1442.03
1440.63
1439.16
1437.62
1436.01
1434.33
1432.58
1430.76
1428.87
1426.91
1424.89
1422.8
1420.65
1418.43
1416.15
1413.81
1411.41
1408.94
1406.42
1403.84
1401.21
1398.52
1395.78
1392.98
1390.14
1387.24
1384.3
1381.31
1378.28
1375.21
1372.1
1368.95
1365.76
1362.54
1359.29
1356.01
1352.7
1349.36
1346.01
1342.63
1339.24
1335.83
1332.41
1328.98
1325.54
1322.1
1318.66
1315.22
1311.78
1308.36
1304.94
1301.54
1298.16
1294.79
1291.45
1288.14
1284.86
1281.61
1278.39
1275.22
1272.09
1269
1265.97
1262.98
1260.06
1257.19
1254.38
1251.64
1248.97
1246.37
1243.84
1241.39
1239.03
1236.75
1234.55
1232.45
1230.44
1228.53
1226.72
1225.01
1223.4
1221.91
1220.52
1219.25
1218.1
1217.07
1216.16
1215.37
1214.71
1214.18
1213.79
1213.52
1213.4
1213.41
1213.56
1213.85
1214.29
1214.88
1215.61
1216.5
1217.53
1218.72
1220.06
1221.56
1223.21
1225.03
1227
1229.14
1231.43
1233.89
1236.52
1239.3
1242.26
1245.38
1248.67
1252.12
1255.75
1259.54
1263.5
1267.63
1271.93
1276.4
1281.04
1285.85
1290.82
1295.97
1301.28
1306.77
1312.42
1318.24
1324.22
1330.37
1336.69
1343.16
1349.81
1356.61
1363.57
1370.69
1377.97
1385.4
1392.99
1400.73
1408.62
1416.66
1424.85
1433.17
1441.64
1450.25
1459
1467.87
1476.88
1486.02
1495.28
1504.66
1514.16
1523.77
1533.5
1543.34
1553.28
1563.32
1573.46
1583.7
1594.03
1604.44
1614.94
1625.52
1636.18
1646.9
1657.7
1668.56
1679.48
1690.45
1701.48
1712.55
1723.67
1734.83
1746.02
1757.25
1768.5
1779.77
1791.06
1802.37
1813.68
1825.01
1836.33
1847.65
1858.97
1870.28
1881.57
1892.85
1904.11
1915.34
1926.54
1937.72
1948.85
1959.95
1971.01
1982.02
1992.99
2003.91
2014.77
2025.58
2036.33
2047.02
2057.65
2068.21
2078.71
2089.14
2099.5
2109.78
2120
2130.13
2140.2
2150.18
2160.08
2169.91
2179.66
2189.32
2198.9
2208.4
2217.82
2227.16
2236.41
2245.58
2254.66
2263.66
2272.58
2281.41
2290.16
2298.83
2307.42
2315.92
2324.34
2332.69
2340.95
2349.13
2357.23
2365.26
2373.2
2381.08
2388.87
2396.59
2404.24
2411.81
2419.32
2426.75
2434.11
2441.4
2448.63
2455.78
2462.87
2469.9
2476.86
2483.76
2490.59
2497.37
2504.08
2510.73
2517.32
2523.86
2530.33
2536.75
2543.11
2549.42
2555.68
2561.87
2568.02
2574.12
2580.16
2586.15
2592.09
2597.99
2603.83
2609.62
2615.35
2621.04
2626.67
2632.24
2637.76
2643.23
2648.63
2653.98
2659.27
2664.5
2669.67
2674.77
2679.81
2684.79
2689.7
2694.54
2699.31
2704.01
2708.64
2713.19
2717.66
2722.05
2726.36
2730.59
2734.73
2738.79
2742.75
2746.63
2750.41
2754.09
2757.67
2761.16
2764.54
2767.81
2770.98
2774.04
2776.99
2779.82
2782.54
2785.14
2787.62
2789.98
2792.22
2794.33
2796.32
2798.18
2799.92
2801.52
2802.99
2804.33
2805.54
2806.61
2807.56
2808.36
2809.03
2809.56
2809.96
2810.23
2810.39
1455.3
1455.22
1455.06
1454.81
1454.48
1454.07
1453.59
1453.02
1452.37
1451.65
1450.85
1449.97
1449.01
1447.98
1446.87
1445.69
1444.43
1443.1
1441.69
1440.22
1438.67
1437.04
1435.35
1433.59
1431.76
1429.85
1427.89
1425.85
1423.75
1421.58
1419.35
1417.05
1414.69
1412.27
1409.79
1407.25
1404.65
1401.99
1399.28
1396.52
1393.7
1390.83
1387.9
1384.93
1381.92
1378.86
1375.75
1372.61
1369.42
1366.2
1362.94
1359.65
1356.33
1352.98
1349.6
1346.2
1342.78
1339.34
1335.89
1332.42
1328.94
1325.46
1321.97
1318.48
1314.99
1311.5
1308.02
1304.55
1301.1
1297.66
1294.24
1290.85
1287.48
1284.14
1280.84
1277.57
1274.34
1271.15
1268.01
1264.92
1261.88
1258.89
1255.97
1253.11
1250.31
1247.58
1244.92
1242.34
1239.84
1237.42
1235.09
1232.84
1230.68
1228.62
1226.66
1224.79
1223.03
1221.38
1219.84
1218.4
1217.09
1215.89
1214.81
1213.85
1213.02
1212.32
1211.75
1211.31
1211.01
1210.85
1210.82
1210.94
1211.2
1211.6
1212.15
1212.86
1213.71
1214.72
1215.88
1217.19
1218.67
1220.3
1222.09
1224.04
1226.16
1228.43
1230.88
1233.49
1236.26
1239.2
1242.31
1245.59
1249.04
1252.65
1256.44
1260.4
1264.52
1268.82
1273.29
1277.93
1282.74
1287.72
1292.88
1298.2
1303.69
1309.36
1315.19
1321.19
1327.35
1333.69
1340.18
1346.85
1353.67
1360.66
1367.81
1375.12
1382.58
1390.2
1397.98
1405.9
1413.98
1422.2
1430.57
1439.08
1447.73
1456.52
1465.44
1474.5
1483.68
1492.99
1502.43
1511.98
1521.65
1531.44
1541.33
1551.33
1561.44
1571.64
1581.94
1592.33
1602.81
1613.38
1624.02
1634.74
1645.54
1656.4
1667.33
1678.32
1689.36
1700.46
1711.6
1722.79
1734.02
1745.28
1756.57
1767.89
1779.24
1790.6
1801.97
1813.36
1824.75
1836.14
1847.53
1858.91
1870.29
1881.64
1892.98
1904.3
1915.6
1926.86
1938.09
1949.29
1960.44
1971.55
1982.62
1993.64
2004.61
2015.52
2026.38
2037.17
2047.91
2058.58
2069.18
2079.72
2090.18
2100.57
2110.89
2121.14
2131.31
2141.39
2151.4
2161.33
2171.18
2180.95
2190.63
2200.23
2209.75
2219.18
2228.53
2237.79
2246.97
2256.06
2265.07
2273.99
2282.83
2291.58
2300.25
2308.83
2317.34
2325.75
2334.09
2342.34
2350.52
2358.61
2366.62
2374.56
2382.42
2390.2
2397.9
2405.53
2413.09
2420.57
2427.99
2435.33
2442.6
2449.8
2456.94
2464.01
2471.01
2477.95
2484.82
2491.63
2498.38
2505.07
2511.7
2518.26
2524.78
2531.23
2537.63
2543.97
2550.25
2556.49
2562.67
2568.79
2574.87
2580.9
2586.87
2592.8
2598.67
2604.49
2610.27
2615.99
2621.66
2627.28
2632.84
2638.35
2643.8
2649.2
2654.54
2659.83
2665.05
2670.21
2675.32
2680.35
2685.33
2690.24
2695.08
2699.85
2704.55
2709.17
2713.73
2718.2
2722.6
2726.91
2731.14
2735.29
2739.35
2743.32
2747.19
2750.98
2754.67
2758.25
2761.74
2765.13
2768.41
2771.58
2774.64
2777.59
2780.43
2783.15
2785.75
2788.23
2790.59
2792.83
2794.94
2796.93
2798.78
2800.51
2802.11
2803.57
2804.91
2806.11
2807.18
2808.11
2808.91
2809.57
2810.09
2810.49
2810.76
2810.92
1456.63
1456.55
1456.39
1456.13
1455.8
1455.39
1454.9
1454.33
1453.68
1452.95
1452.14
1451.25
1450.29
1449.25
1448.13
1446.94
1445.67
1444.33
1442.91
1441.42
1439.86
1438.23
1436.52
1434.75
1432.9
1430.99
1429.01
1426.95
1424.84
1422.65
1420.4
1418.09
1415.71
1413.27
1410.77
1408.2
1405.58
1402.9
1400.16
1397.37
1394.52
1391.62
1388.67
1385.67
1382.62
1379.52
1376.38
1373.19
1369.97
1366.71
1363.41
1360.07
1356.71
1353.31
1349.89
1346.44
1342.97
1339.48
1335.97
1332.45
1328.91
1325.37
1321.82
1318.28
1314.73
1311.18
1307.64
1304.11
1300.6
1297.1
1293.62
1290.16
1286.73
1283.33
1279.96
1276.63
1273.33
1270.08
1266.87
1263.72
1260.61
1257.56
1254.58
1251.65
1248.79
1245.99
1243.27
1240.63
1238.07
1235.58
1233.18
1230.88
1228.66
1226.54
1224.51
1222.59
1220.77
1219.06
1217.46
1215.97
1214.6
1213.35
1212.22
1211.21
1210.33
1209.58
1208.96
1208.48
1208.13
1207.92
1207.85
1207.93
1208.15
1208.52
1209.03
1209.7
1210.52
1211.49
1212.62
1213.91
1215.35
1216.96
1218.72
1220.65
1222.74
1225
1227.42
1230.01
1232.77
1235.7
1238.8
1242.06
1245.5
1249.11
1252.89
1256.84
1260.96
1265.26
1269.73
1274.37
1279.18
1284.17
1289.33
1294.66
1300.17
1305.84
1311.69
1317.71
1323.89
1330.25
1336.77
1343.46
1350.31
1357.33
1364.5
1371.85
1379.34
1387
1394.81
1402.78
1410.9
1419.17
1427.58
1436.14
1444.84
1453.68
1462.66
1471.77
1481.01
1490.38
1499.88
1509.49
1519.23
1529.08
1539.04
1549.11
1559.28
1569.55
1579.92
1590.39
1600.94
1611.58
1622.3
1633.1
1643.97
1654.91
1665.92
1676.99
1688.11
1699.29
1710.51
1721.78
1733.09
1744.43
1755.8
1767.2
1778.63
1790.07
1801.52
1812.99
1824.45
1835.92
1847.39
1858.85
1870.3
1881.73
1893.14
1904.53
1915.89
1927.23
1938.53
1949.79
1961.01
1972.18
1983.31
1994.39
2005.41
2016.38
2027.29
2038.14
2048.93
2059.64
2070.29
2080.87
2091.38
2101.81
2112.17
2122.45
2132.65
2142.77
2152.81
2162.77
2172.65
2182.44
2192.14
2201.76
2211.3
2220.75
2230.11
2239.38
2248.57
2257.67
2266.69
2275.61
2284.45
2293.21
2301.88
2310.46
2318.96
2327.37
2335.7
2343.95
2352.11
2360.19
2368.19
2376.11
2383.96
2391.72
2399.41
2407.02
2414.55
2422.02
2429.41
2436.73
2443.97
2451.15
2458.26
2465.3
2472.28
2479.19
2486.03
2492.82
2499.54
2506.2
2512.8
2519.34
2525.82
2532.25
2538.62
2544.94
2551.2
2557.41
2563.56
2569.67
2575.72
2581.73
2587.68
2593.58
2599.44
2605.24
2611
2616.7
2622.36
2627.96
2633.51
2639
2644.45
2649.83
2655.16
2660.44
2665.66
2670.81
2675.91
2680.94
2685.91
2690.82
2695.66
2700.43
2705.13
2709.76
2714.31
2718.79
2723.19
2727.51
2731.74
2735.89
2739.96
2743.93
2747.81
2751.6
2755.29
2758.89
2762.38
2765.77
2769.05
2772.23
2775.3
2778.25
2781.09
2783.81
2786.42
2788.9
2791.27
2793.5
2795.62
2797.6
2799.46
2801.18
2802.78
2804.24
2805.58
2806.77
2807.84
2808.77
2809.56
2810.22
2810.74
2811.14
2811.41
2811.56
1458.12
1458.04
1457.88
1457.62
1457.29
1456.87
1456.37
1455.8
1455.14
1454.4
1453.59
1452.69
1451.72
1450.67
1449.55
1448.35
1447.07
1445.72
1444.29
1442.79
1441.22
1439.57
1437.85
1436.06
1434.2
1432.27
1430.27
1428.21
1426.07
1423.87
1421.6
1419.26
1416.86
1414.4
1411.87
1409.29
1406.64
1403.93
1401.16
1398.34
1395.46
1392.52
1389.54
1386.5
1383.41
1380.27
1377.09
1373.87
1370.6
1367.29
1363.94
1360.56
1357.14
1353.69
1350.21
1346.71
1343.18
1339.63
1336.06
1332.48
1328.89
1325.28
1321.67
1318.06
1314.44
1310.83
1307.22
1303.62
1300.04
1296.47
1292.92
1289.39
1285.89
1282.41
1278.97
1275.57
1272.2
1268.88
1265.6
1262.37
1259.19
1256.07
1253.01
1250.01
1247.07
1244.21
1241.42
1238.7
1236.06
1233.51
1231.04
1228.66
1226.38
1224.18
1222.09
1220.1
1218.22
1216.44
1214.78
1213.23
1211.79
1210.48
1209.29
1208.23
1207.29
1206.49
1205.81
1205.28
1204.88
1204.62
1204.5
1204.53
1204.71
1205.03
1205.51
1206.13
1206.92
1207.85
1208.95
1210.2
1211.61
1213.18
1214.92
1216.82
1218.89
1221.12
1223.52
1226.09
1228.83
1231.74
1234.82
1238.08
1241.5
1245.1
1248.87
1252.82
1256.94
1261.23
1265.7
1270.34
1275.16
1280.16
1285.33
1290.67
1296.18
1301.87
1307.74
1313.77
1319.98
1326.36
1332.9
1339.62
1346.5
1353.55
1360.77
1368.14
1375.68
1383.38
1391.24
1399.25
1407.42
1415.73
1424.2
1432.81
1441.57
1450.47
1459.51
1468.68
1477.99
1487.43
1496.99
1506.68
1516.48
1526.4
1536.44
1546.59
1556.84
1567.19
1577.64
1588.19
1598.83
1609.55
1620.36
1631.24
1642.2
1653.23
1664.33
1675.48
1686.7
1697.96
1709.28
1720.64
1732.04
1743.47
1754.94
1766.43
1777.94
1789.47
1801.02
1812.57
1824.13
1835.68
1847.24
1858.78
1870.31
1881.83
1893.33
1904.8
1916.24
1927.65
1939.03
1950.36
1961.65
1972.9
1984.1
1995.24
2006.33
2017.37
2028.34
2039.24
2050.08
2060.86
2071.56
2082.19
2092.74
2103.22
2113.62
2123.94
2134.18
2144.34
2154.41
2164.4
2174.31
2184.12
2193.85
2203.5
2213.05
2222.52
2231.9
2241.18
2250.38
2259.49
2268.51
2277.45
2286.29
2295.05
2303.71
2312.29
2320.79
2329.2
2337.52
2345.75
2353.91
2361.97
2369.96
2377.87
2385.69
2393.44
2401.1
2408.69
2416.21
2423.64
2431.01
2438.3
2445.52
2452.67
2459.75
2466.76
2473.71
2480.59
2487.4
2494.15
2500.84
2507.47
2514.04
2520.55
2527
2533.4
2539.74
2546.02
2552.26
2558.44
2564.56
2570.64
2576.67
2582.65
2588.57
2594.45
2600.28
2606.07
2611.8
2617.48
2623.12
2628.7
2634.23
2639.71
2645.14
2650.52
2655.84
2661.1
2666.31
2671.46
2676.55
2681.58
2686.55
2691.45
2696.29
2701.06
2705.76
2710.39
2714.94
2719.42
2723.82
2728.15
2732.39
2736.54
2740.61
2744.59
2748.48
2752.27
2755.97
2759.57
2763.07
2766.47
2769.76
2772.94
2776.01
2778.97
2781.81
2784.54
2787.15
2789.64
2792
2794.25
2796.36
2798.35
2800.21
2801.93
2803.53
2804.99
2806.33
2807.52
2808.59
2809.52
2810.31
2810.97
2811.49
2811.88
2812.15
2812.3
1459.78
1459.71
1459.54
1459.28
1458.94
1458.52
1458.02
1457.43
1456.77
1456.03
1455.2
1454.3
1453.32
1452.26
1451.13
1449.91
1448.63
1447.26
1445.82
1444.31
1442.72
1441.06
1439.33
1437.53
1435.65
1433.71
1431.69
1429.6
1427.45
1425.22
1422.93
1420.58
1418.15
1415.67
1413.11
1410.5
1407.82
1405.08
1402.28
1399.43
1396.51
1393.54
1390.51
1387.44
1384.31
1381.13
1377.9
1374.62
1371.31
1367.94
1364.54
1361.11
1357.63
1354.12
1350.59
1347.02
1343.43
1339.82
1336.18
1332.53
1328.87
1325.19
1321.51
1317.82
1314.13
1310.44
1306.76
1303.09
1299.42
1295.78
1292.15
1288.54
1284.96
1281.4
1277.88
1274.39
1270.94
1267.54
1264.18
1260.87
1257.61
1254.4
1251.26
1248.18
1245.16
1242.22
1239.35
1236.55
1233.83
1231.2
1228.65
1226.19
1223.83
1221.56
1219.4
1217.33
1215.37
1213.52
1211.79
1210.17
1208.67
1207.28
1206.03
1204.9
1203.9
1203.03
1202.3
1201.71
1201.25
1200.94
1200.77
1200.75
1200.87
1201.15
1201.58
1202.16
1202.9
1203.79
1204.85
1206.06
1207.44
1208.98
1210.68
1212.55
1214.59
1216.79
1219.18
1221.73
1224.45
1227.34
1230.4
1233.64
1237.05
1240.63
1244.4
1248.33
1252.45
1256.74
1261.21
1265.85
1270.68
1275.68
1280.85
1286.21
1291.74
1297.44
1303.33
1309.38
1315.61
1322.02
1328.59
1335.34
1342.25
1349.34
1356.59
1364.01
1371.59
1379.34
1387.24
1395.31
1403.53
1411.9
1420.43
1429.1
1437.92
1446.89
1455.99
1465.24
1474.62
1484.13
1493.77
1503.53
1513.42
1523.42
1533.54
1543.77
1554.11
1564.56
1575.1
1585.74
1596.47
1607.29
1618.19
1629.17
1640.23
1651.36
1662.55
1673.81
1685.12
1696.49
1707.91
1719.37
1730.87
1742.41
1753.97
1765.57
1777.18
1788.81