/*--------------------------------*- C++ -*----------------------------------*\
| =========                 |                                                 |
| \\      /  F ield         | OpenFOAM: The Open Source CFD Toolbox           |
|  \\    /   O peration     | Version:  v2006                                 |
|   \\  /    A nd           | Website:  www.openfoam.com                      |
|    \\/     M anipulation  |                                                 |
\*---------------------------------------------------------------------------*/
FoamFile
{
    version     2.0;
    format      ascii;
    class       volVectorField;
    location    "15.6";
    object      U;
}
// * * * * * * * * * * * * * * * * * * * * * * * * * * * * * * * * * * * * * //

dimensions      [0 1 -1 0 0 0 0];


internalField   nonuniform List<vector> 
52500
(
(0.00176782 -0.00485606 0)
(0.00671666 -0.00597068 0)
(0.0116181 -0.00594215 0)
(0.0163178 -0.00573561 0)
(0.0209431 -0.00561936 0)
(0.0255437 -0.00558089 0)
(0.0301363 -0.00557624 0)
(0.0347202 -0.00557469 0)
(0.0392899 -0.00556266 0)
(0.0438403 -0.00553963 0)
(0.048367 -0.00550877 0)
(0.0528678 -0.00547274 0)
(0.0573397 -0.00543259 0)
(0.0617799 -0.00538829 0)
(0.0661856 -0.00533964 0)
(0.0705541 -0.00528621 0)
(0.0748825 -0.00522772 0)
(0.0791676 -0.00516382 0)
(0.0834057 -0.00509403 0)
(0.0875931 -0.00501772 0)
(0.0917259 -0.00493402 0)
(0.0957996 -0.00484241 0)
(0.09981 -0.004743 0)
(0.103754 -0.00463705 0)
(0.107627 -0.00452606 0)
(0.111427 -0.00441084 0)
(0.115154 -0.00429216 0)
(0.118804 -0.00417056 0)
(0.122375 -0.00404681 0)
(0.125865 -0.0039221 0)
(0.129272 -0.0037975 0)
(0.132593 -0.0036733 0)
(0.135827 -0.00354881 0)
(0.138971 -0.00342249 0)
(0.142021 -0.00329231 0)
(0.144975 -0.00315657 0)
(0.147828 -0.00301463 0)
(0.150578 -0.0028673 0)
(0.153224 -0.00271664 0)
(0.155762 -0.00256537 0)
(0.158193 -0.00241534 0)
(0.160513 -0.00226585 0)
(0.162717 -0.00211291 0)
(0.164799 -0.00195019 0)
(0.166752 -0.00177161 0)
(0.168569 -0.00157411 0)
(0.170243 -0.00136037 0)
(0.171777 -0.00114006 0)
(0.173176 -0.000927969 0)
(0.174454 -0.000740069 0)
(0.175631 -0.00058822 0)
(0.176728 -0.000476412 0)
(0.177766 -0.000400895 0)
(0.178763 -0.000353058 0)
(0.179733 -0.000323002 0)
(0.180685 -0.000302321 0)
(0.181623 -0.000285297 0)
(0.182551 -0.000268496 0)
(0.183469 -0.000250154 0)
(0.184378 -0.000230079 0)
(0.185277 -0.000209635 0)
(0.186166 -0.000191622 0)
(0.18705 -0.000179266 0)
(0.187929 -0.000174776 0)
(0.188808 -0.000178714 0)
(0.189689 -0.000190355 0)
(0.190576 -0.000208182 0)
(0.191469 -0.000230371 0)
(0.19237 -0.000255243 0)
(0.193279 -0.000281607 0)
(0.194197 -0.000308951 0)
(0.195124 -0.000337332 0)
(0.196059 -0.000367108 0)
(0.197002 -0.000398701 0)
(0.197953 -0.000432316 0)
(0.198912 -0.000467805 0)
(0.199879 -0.000504593 0)
(0.200852 -0.000541697 0)
(0.20183 -0.000577895 0)
(0.202811 -0.000611986 0)
(0.203794 -0.000642911 0)
(0.204775 -0.000669778 0)
(0.205753 -0.000692098 0)
(0.206724 -0.000709836 0)
(0.207686 -0.000723137 0)
(0.208636 -0.000732212 0)
(0.209572 -0.000737411 0)
(0.210493 -0.000739133 0)
(0.211396 -0.000737698 0)
(0.212281 -0.000733299 0)
(0.213144 -0.000725991 0)
(0.213987 -0.000715833 0)
(0.214808 -0.00070315 0)
(0.215606 -0.00068869 0)
(0.216383 -0.000673536 0)
(0.217138 -0.000658852 0)
(0.217873 -0.000645521 0)
(0.218588 -0.000633727 0)
(0.219286 -0.00062265 0)
(0.219964 -0.000610513 0)
(0.220622 -0.000595062 0)
(0.221258 -0.000574331 0)
(0.221869 -0.000547323 0)
(0.222452 -0.000514342 0)
(0.223003 -0.000476855 0)
(0.223523 -0.000436969 0)
(0.224009 -0.00039677 0)
(0.224463 -0.000357806 0)
(0.224884 -0.000320925 0)
(0.225275 -0.000286409 0)
(0.225636 -0.00025422 0)
(0.22597 -0.000224174 0)
(0.226277 -0.000196038 0)
(0.226558 -0.000169595 0)
(0.226817 -0.000144672 0)
(0.227053 -0.000121133 0)
(0.227268 -9.88489e-05 0)
(0.227464 -7.76842e-05 0)
(0.227641 -5.74991e-05 0)
(0.227802 -3.81584e-05 0)
(0.227948 -1.9543e-05 0)
(0.228079 -1.558e-06 0)
(0.228198 1.58776e-05 0)
(0.228305 3.28631e-05 0)
(0.228402 4.9539e-05 0)
(0.228489 6.6084e-05 0)
(0.228568 8.2711e-05 0)
(0.22864 9.9691e-05 0)
(0.228705 0.000117385 0)
(0.228766 0.000136244 0)
(0.228822 0.000156762 0)
(0.228875 0.000179384 0)
(0.228925 0.000204386 0)
(0.228974 0.00023173 0)
(0.229023 0.000260924 0)
(0.229073 0.000290929 0)
(0.229127 0.000320177 0)
(0.229187 0.00034673 0)
(0.229256 0.000368597 0)
(0.229337 0.000384158 0)
(0.229435 0.000392624 0)
(0.229551 0.000394406 0)
(0.229687 0.000391257 0)
(0.229844 0.000386122 0)
(0.230021 0.000382692 0)
(0.230213 0.000384786 0)
(0.230417 0.000395691 0)
(0.230627 0.00041762 0)
(0.230836 0.000451392 0)
(0.231037 0.000496426 0)
(0.231226 0.00055104 0)
(0.231397 0.000613012 0)
(0.231546 0.00068032 0)
(0.23167 0.000751934 0)
(0.231766 0.000828504 0)
(0.231828 0.000912772 0)
(0.231848 0.00100956 0)
(0.231818 0.00112561 0)
(0.231726 0.00126569 0)
(0.231559 0.00143162 0)
(0.231305 0.00162136 0)
(0.230956 0.00182782 0)
(0.230511 0.00203957 0)
(0.229975 0.00224291 0)
(0.22936 0.00242412 0)
(0.228687 0.0025706 0)
(0.227981 0.00267126 0)
(0.227271 0.0027173 0)
(0.226586 0.0027033 0)
(0.225958 0.00262811 0)
(0.225418 0.0024952 0)
(0.22499 0.00231258 0)
(0.224696 0.00209188 0)
(0.224545 0.00184696 0)
(0.224546 0.00159363 0)
(0.22471 0.0013453 0)
(0.225023 0.0011176 0)
(0.225468 0.000920611 0)
(0.226027 0.000756559 0)
(0.226683 0.000622007 0)
(0.227421 0.000510067 0)
(0.22823 0.00041251 0)
(0.229106 0.000321436 0)
(0.230044 0.000230258 0)
(0.231047 0.000134055 0)
(0.232118 2.95073e-05 0)
(0.233259 -8.53856e-05 0)
(0.234477 -0.000211611 0)
(0.235777 -0.000349394 0)
(0.237162 -0.000498325 0)
(0.238639 -0.000657353 0)
(0.240209 -0.000824646 0)
(0.241876 -0.000997391 0)
(0.243639 -0.00117164 0)
(0.245499 -0.00134237 0)
(0.247452 -0.00150379 0)
(0.249491 -0.00164998 0)
(0.251608 -0.00177563 0)
(0.253793 -0.00187676 0)
(0.256036 -0.00195116 0)
(0.258323 -0.00199861 0)
(0.260643 -0.00202069 0)
(0.262985 -0.00202058 0)
(0.26534 -0.00200273 0)
(0.267699 -0.00197257 0)
(0.270058 -0.00193618 0)
(0.272412 -0.00189986 0)
(0.274762 -0.00186944 0)
(0.277107 -0.00184967 0)
(0.279452 -0.00184351 0)
(0.281801 -0.00185179 0)
(0.284156 -0.00187322 0)
(0.286523 -0.00190479 0)
(0.288904 -0.00194248 0)
(0.2913 -0.00198211 0)
(0.29371 -0.00202004 0)
(0.296133 -0.00205362 0)
(0.298567 -0.0020813 0)
(0.301008 -0.00210258 0)
(0.303453 -0.00211776 0)
(0.305899 -0.0021276 0)
(0.308343 -0.002133 0)
(0.310781 -0.0021348 0)
(0.313211 -0.00213363 0)
(0.31563 -0.00212988 0)
(0.318035 -0.00212374 0)
(0.320422 -0.00211522 0)
(0.32279 -0.00210431 0)
(0.325135 -0.00209097 0)
(0.327454 -0.00207519 0)
(0.329744 -0.00205696 0)
(0.332003 -0.00203625 0)
(0.334226 -0.00201307 0)
(0.336412 -0.00198739 0)
(0.338557 -0.00195921 0)
(0.340658 -0.00192848 0)
(0.342713 -0.00189509 0)
(0.344717 -0.00185891 0)
(0.346669 -0.00181972 0)
(0.348566 -0.00177729 0)
(0.350402 -0.00173134 0)
(0.352177 -0.0016816 0)
(0.353886 -0.00162773 0)
(0.355525 -0.00156932 0)
(0.357091 -0.00150584 0)
(0.35858 -0.00143663 0)
(0.359988 -0.00136093 0)
(0.361309 -0.00127784 0)
(0.36254 -0.0011862 0)
(0.363673 -0.00108453 0)
(0.364703 -0.000971036 0)
(0.365623 -0.000843933 0)
(0.366424 -0.000701743 0)
(0.367098 -0.000543587 0)
(0.367637 -0.000369591 0)
(0.368032 -0.000181343 0)
(0.368278 1.71563e-05 0)
(0.368371 0.000215796 0)
(0.368302 0.000396298 0)
(0.368074 0.000562936 0)
(0.367691 0.00072842 0)
(0.367153 0.000897862 0)
(0.366456 0.00107165 0)
(0.365597 0.00124996 0)
(0.364569 0.00143354 0)
(0.363368 0.00162403 0)
(0.361983 0.00182362 0)
(0.360404 0.00203435 0)
(0.358619 0.00225722 0)
(0.356616 0.00249169 0)
(0.354382 0.00273551 0)
(0.351904 0.00298513 0)
(0.349173 0.00323612 0)
(0.346182 0.00348355 0)
(0.342926 0.00372212 0)
(0.339405 0.00394611 0)
(0.335625 0.00414941 0)
(0.331597 0.00432621 0)
(0.327339 0.0044732 0)
(0.322871 0.00459435 0)
(0.318218 0.00470633 0)
(0.313401 0.0048381 0)
(0.308438 0.00501484 0)
(0.303351 0.00522519 0)
(0.298184 0.00539606 0)
(0.293027 0.00540585 0)
(0.288022 0.00514543 0)
(0.283335 0.00459374 0)
(0.279107 0.00385016 0)
(0.275405 0.00309466 0)
(0.272198 0.00250348 0)
(0.269376 0.00217627 0)
(0.266785 0.00211243 0)
(0.264269 0.00223599 0)
(0.261712 0.00244353 0)
(0.259042 0.00264363 0)
(0.256232 0.00277798 0)
(0.253284 0.00282685 0)
(0.250216 0.00280048 0)
(0.247051 0.002725 0)
(0.243811 0.00263007 0)
(0.240511 0.00254055 0)
(0.237158 0.00247243 0)
(0.233751 0.00243217 0)
(0.230287 0.0024186 0)
(0.226758 0.00242613 0)
(0.223156 0.00244793 0)
(0.219475 0.00247826 0)
(0.215711 0.00251375 0)
(0.211861 0.00255333 0)
(0.207928 0.00259703 0)
(0.203912 0.00264502 0)
(0.199814 0.00269723 0)
(0.195635 0.00275304 0)
(0.191376 0.00281125 0)
(0.187036 0.00287036 0)
(0.182614 0.00292898 0)
(0.17811 0.00298611 0)
(0.173525 0.00304112 0)
(0.168857 0.00309364 0)
(0.164109 0.00314329 0)
(0.159279 0.00318965 0)
(0.15437 0.00323234 0)
(0.149382 0.00327125 0)
(0.144316 0.00330636 0)
(0.139174 0.00333753 0)
(0.133958 0.00336443 0)
(0.128669 0.00338644 0)
(0.123309 0.0034028 0)
(0.11788 0.00341267 0)
(0.112385 0.00341542 0)
(0.106829 0.00341069 0)
(0.101214 0.00339833 0)
(0.0955467 0.00337854 0)
(0.0898324 0.00335199 0)
(0.0840779 0.00331988 0)
(0.0782906 0.00328376 0)
(0.0724781 0.00324558 0)
(0.0666479 0.00320805 0)
(0.060807 0.00317444 0)
(0.0549614 0.0031475 0)
(0.0491161 0.00312794 0)
(0.0432755 0.00311142 0)
(0.0374468 0.00308638 0)
(0.0316425 0.00303202 0)
(0.0258764 0.00292238 0)
(0.0201823 0.00274853 0)
(0.0144936 0.00254927 0)
(0.00908476 0.00264723 0)
(0.00343298 0.00411146 0)
(0.000694083 -0.00907485 0)
(0.00330443 -0.0104181 0)
(0.00519633 -0.00990114 0)
(0.00713224 -0.00965049 0)
(0.00901004 -0.00963154 0)
(0.010942 -0.00961205 0)
(0.0128647 -0.00957893 0)
(0.0147791 -0.00953843 0)
(0.0166917 -0.00949321 0)
(0.0186067 -0.00944367 0)
(0.0205275 -0.00938954 0)
(0.0224569 -0.00933141 0)
(0.0243961 -0.00926862 0)
(0.0263466 -0.0092008 0)
(0.0283109 -0.00912804 0)
(0.0302905 -0.00905007 0)
(0.0322871 -0.00896669 0)
(0.0343024 -0.00887753 0)
(0.036338 -0.00878208 0)
(0.0383962 -0.00868027 0)
(0.0404781 -0.00857235 0)
(0.0425851 -0.008459 0)
(0.0447177 -0.00834006 0)
(0.0468752 -0.00821725 0)
(0.0490569 -0.008091 0)
(0.0512604 -0.00796148 0)
(0.0534836 -0.00782843 0)
(0.0557223 -0.00769094 0)
(0.0579721 -0.00754807 0)
(0.0602301 -0.00739888 0)
(0.0624923 -0.00724242 0)
(0.0647547 -0.00707802 0)
(0.0670142 -0.00690564 0)
(0.069268 -0.00672586 0)
(0.0715142 -0.00653976 0)
(0.0737513 -0.00634869 0)
(0.0759778 -0.00615381 0)
(0.0781928 -0.00595591 0)
(0.0803951 -0.0057549 0)
(0.082584 -0.00554892 0)
(0.0847593 -0.0053346 0)
(0.0869217 -0.0051087 0)
(0.0890714 -0.00486985 0)
(0.0912089 -0.00461963 0)
(0.0933359 -0.00436221 0)
(0.0954534 -0.00410449 0)
(0.0975618 -0.00385556 0)
(0.0996614 -0.00362396 0)
(0.10175 -0.0034176 0)
(0.103823 -0.00324137 0)
(0.105877 -0.00309594 0)
(0.107909 -0.00298046 0)
(0.109917 -0.00289308 0)
(0.111902 -0.00283006 0)
(0.113864 -0.00278635 0)
(0.115807 -0.00275664 0)
(0.117734 -0.00273599 0)
(0.119647 -0.00272075 0)
(0.121549 -0.00270919 0)
(0.123441 -0.00269992 0)
(0.125323 -0.0026921 0)
(0.127193 -0.00268623 0)
(0.129049 -0.00268267 0)
(0.130888 -0.00268126 0)
(0.132706 -0.00268156 0)
(0.134503 -0.00268309 0)
(0.136274 -0.00268531 0)
(0.138021 -0.0026879 0)
(0.139741 -0.00269047 0)
(0.141433 -0.00269271 0)
(0.143098 -0.0026941 0)
(0.144734 -0.00269401 0)
(0.146339 -0.00269193 0)
(0.147911 -0.00268782 0)
(0.14945 -0.00268113 0)
(0.150953 -0.00267106 0)
(0.152419 -0.00265744 0)
(0.153846 -0.00264005 0)
(0.155234 -0.00261847 0)
(0.156583 -0.00259247 0)
(0.157892 -0.00256224 0)
(0.159161 -0.00252776 0)
(0.160393 -0.00248881 0)
(0.161587 -0.00244573 0)
(0.162743 -0.00239904 0)
(0.163862 -0.00234905 0)
(0.164946 -0.002296 0)
(0.165993 -0.00224029 0)
(0.167006 -0.00218242 0)
(0.167984 -0.00212306 0)
(0.168928 -0.00206303 0)
(0.169838 -0.00200311 0)
(0.170716 -0.00194405 0)
(0.171562 -0.00188663 0)
(0.172376 -0.00183139 0)
(0.173159 -0.00177843 0)
(0.173911 -0.00172733 0)
(0.174632 -0.00167719 0)
(0.175322 -0.00162679 0)
(0.17598 -0.00157485 0)
(0.176607 -0.00152028 0)
(0.177204 -0.00146236 0)
(0.177772 -0.00140094 0)
(0.178313 -0.00133636 0)
(0.178828 -0.00126945 0)
(0.179318 -0.00120124 0)
(0.179784 -0.00113279 0)
(0.180225 -0.00106502 0)
(0.180644 -0.000998697 0)
(0.18104 -0.000934394 0)
(0.181413 -0.000872524 0)
(0.181765 -0.000813373 0)
(0.182097 -0.00075715 0)
(0.182409 -0.000704022 0)
(0.182703 -0.000654106 0)
(0.18298 -0.000607494 0)
(0.183241 -0.000564259 0)
(0.183489 -0.000524443 0)
(0.183724 -0.000488078 0)
(0.183948 -0.000455196 0)
(0.184163 -0.000425821 0)
(0.18437 -0.000399945 0)
(0.184572 -0.000377551 0)
(0.18477 -0.000358642 0)
(0.184966 -0.000343246 0)
(0.185162 -0.000331404 0)
(0.185361 -0.000323171 0)
(0.185564 -0.000318654 0)
(0.185773 -0.000318059 0)
(0.185992 -0.000321703 0)
(0.186222 -0.000329991 0)
(0.186467 -0.000343378 0)
(0.18673 -0.000362328 0)
(0.187012 -0.000387273 0)
(0.187317 -0.000418561 0)
(0.187647 -0.000456388 0)
(0.188004 -0.000500725 0)
(0.188388 -0.000551241 0)
(0.188799 -0.000607236 0)
(0.189237 -0.000667583 0)
(0.189699 -0.000730718 0)
(0.190184 -0.000794685 0)
(0.19069 -0.000857272 0)
(0.191215 -0.000916209 0)
(0.191759 -0.000969402 0)
(0.192322 -0.00101516 0)
(0.192907 -0.00105239 0)
(0.193515 -0.00108065 0)
(0.194151 -0.00110014 0)
(0.194817 -0.00111154 0)
(0.195517 -0.00111571 0)
(0.196253 -0.00111334 0)
(0.197028 -0.00110461 0)
(0.197843 -0.00108892 0)
(0.1987 -0.00106483 0)
(0.1996 -0.00103025 0)
(0.200549 -0.000982878 0)
(0.201553 -0.000920508 0)
(0.20262 -0.000843198 0)
(0.203759 -0.000753403 0)
(0.204982 -0.000655789 0)
(0.206296 -0.000557272 0)
(0.207706 -0.000466229 0)
(0.209212 -0.000391356 0)
(0.210809 -0.000340871 0)
(0.212488 -0.000322214 0)
(0.21424 -0.000341848 0)
(0.216052 -0.000404498 0)
(0.217914 -0.000512297 0)
(0.219813 -0.000664259 0)
(0.221742 -0.000855965 0)
(0.223691 -0.00107977 0)
(0.225655 -0.00132578 0)
(0.227631 -0.00158323 0)
(0.229613 -0.00184116 0)
(0.231585 -0.00209104 0)
(0.233553 -0.00232318 0)
(0.235523 -0.0025312 0)
(0.237502 -0.00271364 0)
(0.239499 -0.00287275 0)
(0.241523 -0.00301323 0)
(0.243579 -0.00314087 0)
(0.245669 -0.00326138 0)
(0.247796 -0.00337961 0)
(0.249958 -0.00349917 0)
(0.252152 -0.00362238 0)
(0.254375 -0.00375045 0)
(0.256622 -0.00388367 0)
(0.25889 -0.00402173 0)
(0.261172 -0.00416383 0)
(0.263465 -0.00430882 0)
(0.265764 -0.00445527 0)
(0.268064 -0.00460148 0)
(0.270361 -0.00474553 0)
(0.272652 -0.00488536 0)
(0.274935 -0.00501888 0)
(0.277211 -0.0051441 0)
(0.279483 -0.00525933 0)
(0.281753 -0.00536328 0)
(0.284029 -0.00545519 0)
(0.286316 -0.00553481 0)
(0.288622 -0.00560237 0)
(0.290953 -0.00565843 0)
(0.293314 -0.00570386 0)
(0.295709 -0.00573977 0)
(0.298138 -0.00576751 0)
(0.300599 -0.00578859 0)
(0.303089 -0.00580467 0)
(0.3056 -0.00581737 0)
(0.308125 -0.00582813 0)
(0.310657 -0.00583804 0)
(0.313186 -0.0058478 0)
(0.315707 -0.00585761 0)
(0.318214 -0.00586728 0)
(0.320704 -0.00587624 0)
(0.323176 -0.00588373 0)
(0.325629 -0.00588889 0)
(0.328063 -0.00589086 0)
(0.330479 -0.00588883 0)
(0.332879 -0.00588212 0)
(0.335261 -0.00587016 0)
(0.337625 -0.00585244 0)
(0.33997 -0.00582856 0)
(0.342294 -0.00579816 0)
(0.344596 -0.00576095 0)
(0.346871 -0.00571671 0)
(0.349119 -0.00566529 0)
(0.351335 -0.0056066 0)
(0.353518 -0.0055406 0)
(0.355664 -0.0054673 0)
(0.35777 -0.00538669 0)
(0.359834 -0.0052988 0)
(0.361852 -0.00520365 0)
(0.363822 -0.00510126 0)
(0.36574 -0.00499166 0)
(0.367604 -0.00487489 0)
(0.369411 -0.00475097 0)
(0.371158 -0.00461994 0)
(0.372843 -0.00448184 0)
(0.374462 -0.00433665 0)
(0.376014 -0.00418438 0)
(0.377497 -0.004025 0)
(0.378908 -0.00385844 0)
(0.380245 -0.00368462 0)
(0.381508 -0.00350335 0)
(0.382694 -0.00331443 0)
(0.383803 -0.00311759 0)
(0.384834 -0.00291247 0)
(0.385787 -0.00269858 0)
(0.386663 -0.00247539 0)
(0.387463 -0.00224225 0)
(0.388189 -0.00199843 0)
(0.388844 -0.00174323 0)
(0.389431 -0.0014761 0)
(0.389955 -0.00119683 0)
(0.390419 -0.000905637 0)
(0.390823 -0.000603813 0)
(0.391166 -0.000295819 0)
(0.391446 1.06768e-05 0)
(0.391659 0.000325223 0)
(0.391807 0.000647179 0)
(0.39188 0.000976377 0)
(0.391869 0.00131541 0)
(0.391772 0.00166661 0)
(0.391587 0.00203259 0)
(0.391312 0.00241645 0)
(0.390943 0.00282165 0)
(0.39048 0.00325178 0)
(0.389917 0.00371018 0)
(0.389251 0.00419941 0)
(0.388473 0.00472086 0)
(0.387573 0.00527437 0)
(0.386541 0.00585796 0)
(0.385361 0.0064676 0)
(0.384018 0.00709703 0)
(0.382497 0.00773759 0)
(0.380782 0.00837819 0)
(0.37886 0.00900543 0)
(0.376724 0.00960416 0)
(0.374374 0.0101584 0)
(0.371822 0.010652 0)
(0.369091 0.0110686 0)
(0.366223 0.0113886 0)
(0.363266 0.0115838 0)
(0.360269 0.0116137 0)
(0.357269 0.0114312 0)
(0.354284 0.0110007 0)
(0.351327 0.0103237 0)
(0.348419 0.00945636 0)
(0.345594 0.00850385 0)
(0.342886 0.00759379 0)
(0.340311 0.0068418 0)
(0.337857 0.00632445 0)
(0.33548 0.00606835 0)
(0.333119 0.00605575 0)
(0.330707 0.00623738 0)
(0.328182 0.00654852 0)
(0.325494 0.00692561 0)
(0.322605 0.00731715 0)
(0.319492 0.00768796 0)
(0.316151 0.00801922 0)
(0.312594 0.00830642 0)
(0.308844 0.00855618 0)
(0.304933 0.00878182 0)
(0.300888 0.00899845 0)
(0.296729 0.00921835 0)
(0.292469 0.00944808 0)
(0.288107 0.0096879 0)
(0.28364 0.00993337 0)
(0.279061 0.0101781 0)
(0.274366 0.0104165 0)
(0.269549 0.0106458 0)
(0.264613 0.0108668 0)
(0.259559 0.0110821 0)
(0.254392 0.0112951 0)
(0.249117 0.0115085 0)
(0.24374 0.0117236 0)
(0.238264 0.0119408 0)
(0.232691 0.0121599 0)
(0.227022 0.0123806 0)
(0.221256 0.0126027 0)
(0.215394 0.0128261 0)
(0.209431 0.0130506 0)
(0.203368 0.0132755 0)
(0.1972 0.0135003 0)
(0.190927 0.0137246 0)
(0.184544 0.0139482 0)
(0.17805 0.0141711 0)
(0.171439 0.0143933 0)
(0.164707 0.0146145 0)
(0.157849 0.0148335 0)
(0.150859 0.0150482 0)
(0.14373 0.0152562 0)
(0.136459 0.0154543 0)
(0.12904 0.0156391 0)
(0.121472 0.0158071 0)
(0.113755 0.015955 0)
(0.10589 0.0160801 0)
(0.0978834 0.0161803 0)
(0.0897449 0.0162548 0)
(0.0814868 0.0163034 0)
(0.0731241 0.0163272 0)
(0.0646745 0.0163273 0)
(0.0561558 0.0163055 0)
(0.0475799 0.0162657 0)
(0.0389572 0.0162182 0)
(0.0302713 0.0161899 0)
(0.0214843 0.0161021 0)
(0.0127334 0.0158191 0)
(0.00435741 0.016752 0)
(0.000391301 -0.011309 0)
(0.00284265 -0.0131402 0)
(0.00452082 -0.0121073 0)
(0.00616178 -0.011751 0)
(0.00767589 -0.0117421 0)
(0.00927069 -0.0117364 0)
(0.0108743 -0.0117155 0)
(0.0124973 -0.0116986 0)
(0.0141449 -0.0116874 0)
(0.0158218 -0.0116793 0)
(0.0175315 -0.011673 0)
(0.0192774 -0.0116681 0)
(0.0210631 -0.0116651 0)
(0.022891 -0.0116629 0)
(0.0247641 -0.0116624 0)
(0.026685 -0.0116629 0)
(0.0286546 -0.0116634 0)
(0.0306744 -0.0116642 0)
(0.0327453 -0.0116639 0)
(0.0348678 -0.0116608 0)
(0.0370418 -0.0116539 0)
(0.0392675 -0.0116417 0)
(0.0415414 -0.0116228 0)
(0.0438607 -0.0115957 0)
(0.0462249 -0.0115589 0)
(0.0486294 -0.0115107 0)
(0.0510688 -0.0114493 0)
(0.053538 -0.0113744 0)
(0.0560322 -0.0112852 0)
(0.0585467 -0.0111829 0)
(0.0610783 -0.0110688 0)
(0.0636238 -0.0109442 0)
(0.0661807 -0.0108094 0)
(0.0687472 -0.0106646 0)
(0.0713211 -0.0105093 0)
(0.0739007 -0.0103438 0)
(0.0764835 -0.0101692 0)
(0.079067 -0.00998749 0)
(0.081649 -0.0098016 0)
(0.0842276 -0.0096141 0)
(0.0868022 -0.00942628 0)
(0.0893736 -0.00923724 0)
(0.0919442 -0.00904423 0)
(0.0945177 -0.00884301 0)
(0.0970981 -0.00863005 0)
(0.0996889 -0.00840441 0)
(0.102292 -0.0081688 0)
(0.104905 -0.00792949 0)
(0.107526 -0.00769494 0)
(0.110149 -0.00747426 0)
(0.112765 -0.00727536 0)
(0.115368 -0.00710329 0)
(0.117948 -0.00695963 0)
(0.120496 -0.00684258 0)
(0.123007 -0.00674781 0)
(0.125477 -0.00666989 0)
(0.127902 -0.00660348 0)
(0.130282 -0.00654417 0)
(0.132616 -0.0064884 0)
(0.134904 -0.00643297 0)
(0.137146 -0.00637522 0)
(0.139343 -0.00631393 0)
(0.141496 -0.00624965 0)
(0.143604 -0.00618378 0)
(0.145668 -0.00611768 0)
(0.147689 -0.00605217 0)
(0.149667 -0.00598752 0)
(0.151603 -0.00592346 0)
(0.153497 -0.00585932 0)
(0.155349 -0.00579415 0)
(0.15716 -0.00572687 0)
(0.15893 -0.00565667 0)
(0.160659 -0.00558305 0)
(0.162346 -0.00550567 0)
(0.163993 -0.00542443 0)
(0.1656 -0.00533943 0)
(0.167165 -0.00525096 0)
(0.16869 -0.00515926 0)
(0.170175 -0.00506458 0)
(0.17162 -0.00496732 0)
(0.173026 -0.00486755 0)
(0.174394 -0.00476523 0)
(0.175724 -0.00466044 0)
(0.177016 -0.00455329 0)
(0.178271 -0.00444382 0)
(0.17949 -0.00433212 0)
(0.180672 -0.0042183 0)
(0.181818 -0.00410261 0)
(0.182927 -0.0039854 0)
(0.184001 -0.00386704 0)
(0.185039 -0.00374792 0)
(0.18604 -0.00362842 0)
(0.187004 -0.003509 0)
(0.187931 -0.00339018 0)
(0.18882 -0.00327243 0)
(0.18967 -0.00315606 0)
(0.19048 -0.00304112 0)
(0.19125 -0.00292729 0)
(0.19198 -0.00281392 0)
(0.19267 -0.00270022 0)
(0.193321 -0.00258549 0)
(0.193933 -0.0024693 0)
(0.194508 -0.00235168 0)
(0.195048 -0.00223301 0)
(0.195554 -0.00211406 0)
(0.196028 -0.00199576 0)
(0.196471 -0.00187911 0)
(0.196884 -0.00176504 0)
(0.197268 -0.0016543 0)
(0.197624 -0.00154746 0)
(0.197954 -0.00144493 0)
(0.198257 -0.00134709 0)
(0.198535 -0.00125427 0)
(0.19879 -0.00116673 0)
(0.199022 -0.00108467 0)
(0.199233 -0.00100829 0)
(0.199424 -0.000937738 0)
(0.199596 -0.000873166 0)
(0.199751 -0.000814691 0)
(0.19989 -0.000762432 0)
(0.200015 -0.00071649 0)
(0.200127 -0.000676948 0)
(0.200228 -0.000643886 0)
(0.20032 -0.000617396 0)
(0.200405 -0.000597581 0)
(0.200483 -0.000584536 0)
(0.200558 -0.000578344 0)
(0.20063 -0.000579086 0)
(0.200701 -0.000586852 0)
(0.200773 -0.00060172 0)
(0.200848 -0.000623746 0)
(0.200927 -0.00065293 0)
(0.20101 -0.000689199 0)
(0.201099 -0.000732368 0)
(0.201195 -0.000782107 0)
(0.201299 -0.000837919 0)
(0.20141 -0.000899123 0)
(0.201528 -0.000964864 0)
(0.201655 -0.00103413 0)
(0.201789 -0.0011058 0)
(0.201932 -0.00117872 0)
(0.202084 -0.00125179 0)
(0.202246 -0.00132407 0)
(0.202421 -0.00139479 0)
(0.20261 -0.00146353 0)
(0.202818 -0.00153016 0)
(0.203047 -0.00159485 0)
(0.2033 -0.00165799 0)
(0.203582 -0.00172007 0)
(0.203895 -0.00178154 0)
(0.204243 -0.00184279 0)
(0.204627 -0.00190402 0)
(0.205051 -0.00196532 0)
(0.205516 -0.00202671 0)
(0.206023 -0.00208818 0)
(0.206577 -0.00214984 0)
(0.207179 -0.00221205 0)
(0.207834 -0.00227586 0)
(0.208543 -0.00234205 0)
(0.209312 -0.00241166 0)
(0.210143 -0.00248634 0)
(0.211039 -0.00256811 0)
(0.212001 -0.00265915 0)
(0.213031 -0.00276187 0)
(0.214126 -0.0028787 0)
(0.215285 -0.00301175 0)
(0.216505 -0.00316245 0)
(0.21778 -0.00333156 0)
(0.219103 -0.00351936 0)
(0.220466 -0.00372538 0)
(0.221859 -0.00394773 0)
(0.223273 -0.00418256 0)
(0.224703 -0.00442415 0)
(0.226145 -0.00466575 0)
(0.227597 -0.00490177 0)
(0.229062 -0.00512781 0)
(0.230548 -0.00534461 0)
(0.232061 -0.00555476 0)
(0.233608 -0.00576085 0)
(0.235196 -0.00596518 0)
(0.236828 -0.00616929 0)
(0.238508 -0.00637383 0)
(0.240239 -0.00657872 0)
(0.242018 -0.00678338 0)
(0.243846 -0.00698706 0)
(0.245721 -0.00718896 0)
(0.24764 -0.00738831 0)
(0.249601 -0.00758439 0)
(0.251601 -0.00777643 0)
(0.253638 -0.00796358 0)
(0.25571 -0.00814486 0)
(0.257815 -0.00831913 0)
(0.259949 -0.00848517 0)
(0.262112 -0.00864182 0)
(0.264301 -0.0087882 0)
(0.266517 -0.00892393 0)
(0.268757 -0.00904938 0)
(0.271022 -0.00916563 0)
(0.273311 -0.00927437 0)
(0.275624 -0.00937748 0)
(0.277963 -0.00947658 0)
(0.280326 -0.00957255 0)
(0.282715 -0.00966526 0)
(0.285129 -0.0097536 0)
(0.287567 -0.00983569 0)
(0.290029 -0.00990936 0)
(0.292512 -0.00997256 0)
(0.295015 -0.0100238 0)
(0.297534 -0.0100624 0)
(0.300065 -0.0100883 0)
(0.302604 -0.0101024 0)
(0.305149 -0.010106 0)
(0.307693 -0.0101006 0)
(0.310236 -0.0100879 0)
(0.312772 -0.0100693 0)
(0.3153 -0.010046 0)
(0.317818 -0.0100185 0)
(0.320323 -0.00998718 0)
(0.322814 -0.00995144 0)
(0.32529 -0.00991053 0)
(0.327748 -0.00986335 0)
(0.330187 -0.00980875 0)
(0.332606 -0.00974558 0)
(0.335001 -0.00967288 0)
(0.337371 -0.00958986 0)
(0.339713 -0.00949595 0)
(0.342025 -0.00939075 0)
(0.344304 -0.00927398 0)
(0.346549 -0.00914543 0)
(0.348756 -0.00900498 0)
(0.350922 -0.00885253 0)
(0.353045 -0.00868801 0)
(0.355122 -0.00851138 0)
(0.357151 -0.00832267 0)
(0.359128 -0.00812192 0)
(0.361051 -0.00790922 0)
(0.362917 -0.00768469 0)
(0.364724 -0.00744847 0)
(0.366467 -0.00720073 0)
(0.368145 -0.00694164 0)
(0.369755 -0.00667143 0)
(0.371294 -0.00639031 0)
(0.37276 -0.0060985 0)
(0.37415 -0.00579625 0)
(0.375461 -0.00548385 0)
(0.376692 -0.00516163 0)
(0.37784 -0.00482992 0)
(0.378903 -0.00448911 0)
(0.37988 -0.0041396 0)
(0.380768 -0.00378189 0)
(0.381567 -0.00341663 0)
(0.382276 -0.00304451 0)
(0.382894 -0.00266642 0)
(0.383421 -0.00228337 0)
(0.383857 -0.00189613 0)
(0.384204 -0.00150494 0)
(0.384463 -0.00110901 0)
(0.384636 -0.000704145 0)
(0.384732 -0.000281756 0)
(0.384739 0.000156618 0)
(0.384645 0.000607035 0)
(0.384461 0.00106663 0)
(0.384194 0.00153514 0)
(0.383847 0.00201342 0)
(0.38342 0.00250324 0)
(0.382915 0.00300729 0)
(0.382334 0.00352901 0)
(0.381681 0.00407246 0)
(0.38096 0.00464188 0)
(0.380176 0.00524132 0)
(0.379333 0.00587424 0)
(0.378439 0.00654307 0)
(0.3775 0.00724879 0)
(0.376521 0.00799043 0)
(0.375506 0.00876434 0)
(0.37446 0.00956336 0)
(0.373382 0.0103762 0)
(0.372272 0.011187 0)
(0.371126 0.0119756 0)
(0.36994 0.012719 0)
(0.368704 0.0133926 0)
(0.367411 0.0139718 0)
(0.366054 0.0144312 0)
(0.364627 0.01474 0)
(0.363119 0.0148566 0)
(0.361513 0.0147286 0)
(0.359778 0.0143109 0)
(0.357869 0.0135988 0)
(0.355733 0.0126623 0)
(0.353327 0.0116507 0)
(0.350627 0.0107547 0)
(0.347635 0.0101397 0)
(0.344384 0.00988749 0)
(0.340926 0.00998176 0)
(0.337322 0.0103381 0)
(0.333625 0.0108556 0)
(0.329874 0.0114554 0)
(0.326086 0.0120904 0)
(0.322259 0.0127344 0)
(0.318381 0.0133685 0)
(0.314433 0.0139727 0)
(0.310398 0.0145281 0)
(0.306267 0.0150225 0)
(0.302036 0.0154559 0)
(0.297708 0.0158405 0)
(0.293289 0.0161964 0)
(0.288783 0.0165452 0)
(0.284194 0.0169042 0)
(0.279521 0.0172833 0)
(0.274759 0.0176842 0)
(0.269903 0.0181024 0)
(0.264949 0.0185299 0)
(0.259893 0.0189575 0)
(0.254736 0.0193774 0)
(0.249481 0.0197845 0)
(0.244132 0.0201767 0)
(0.238695 0.020555 0)
(0.233174 0.0209221 0)
(0.227574 0.0212817 0)
(0.221896 0.0216375 0)
(0.216143 0.0219926 0)
(0.210317 0.0223489 0)
(0.204419 0.0227075 0)
(0.198448 0.0230689 0)
(0.192405 0.0234336 0)
(0.186287 0.0238022 0)
(0.180093 0.0241759 0)
(0.173821 0.0245561 0)
(0.167467 0.0249445 0)
(0.161025 0.0253424 0)
(0.154492 0.0257507 0)
(0.147859 0.0261697 0)
(0.141118 0.0265982 0)
(0.134259 0.0270343 0)
(0.127272 0.0274746 0)
(0.120144 0.0279142 0)
(0.112866 0.0283469 0)
(0.105427 0.0287658 0)
(0.0978181 0.0291635 0)
(0.0900344 0.0295323 0)
(0.0820732 0.0298648 0)
(0.0739358 0.0301542 0)
(0.065628 0.0303947 0)
(0.0571603 0.0305809 0)
(0.0485436 0.0307089 0)
(0.039798 0.0307887 0)
(0.0309241 0.0308615 0)
(0.0220143 0.0308358 0)
(0.0132497 0.0303613 0)
(0.00477942 0.0314377 0)
(0.000473408 -0.0142502 0)
(0.00348833 -0.0170437 0)
(0.00579895 -0.0153337 0)
(0.00795568 -0.0146617 0)
(0.00992917 -0.0146744 0)
(0.011995 -0.0147458 0)
(0.0140944 -0.0147783 0)
(0.0162211 -0.0148097 0)
(0.0183751 -0.0148542 0)
(0.0205598 -0.0149094 0)
(0.0227794 -0.0149723 0)
(0.0250354 -0.0150417 0)
(0.02733 -0.0151169 0)
(0.0296642 -0.0151972 0)
(0.0320389 -0.0152806 0)
(0.0344567 -0.0153665 0)
(0.0369157 -0.0154533 0)
(0.0394148 -0.0155388 0)
(0.0419546 -0.015621 0)
(0.044532 -0.0156978 0)
(0.0471434 -0.0157672 0)
(0.049786 -0.015827 0)
(0.0524571 -0.0158755 0)
(0.0551524 -0.01591 0)
(0.0578676 -0.015928 0)
(0.0605981 -0.0159275 0)
(0.0633398 -0.0159067 0)
(0.0660889 -0.0158645 0)
(0.0688413 -0.0158009 0)
(0.0715936 -0.0157171 0)
(0.074343 -0.0156147 0)
(0.0770862 -0.0154958 0)
(0.079821 -0.0153622 0)
(0.0825452 -0.0152154 0)
(0.0852572 -0.0150559 0)
(0.0879554 -0.0148844 0)
(0.0906383 -0.014701 0)
(0.0933045 -0.0145062 0)
(0.095952 -0.0143005 0)
(0.0985783 -0.0140853 0)
(0.101181 -0.0138626 0)
(0.103758 -0.0136346 0)
(0.106309 -0.0134037 0)
(0.108832 -0.0131719 0)
(0.11133 -0.0129406 0)
(0.113805 -0.0127111 0)
(0.116256 -0.0124841 0)
(0.118687 -0.0122607 0)
(0.121097 -0.0120416 0)
(0.123486 -0.0118282 0)
(0.125849 -0.0116213 0)
(0.128184 -0.0114216 0)
(0.130487 -0.0112292 0)
(0.132753 -0.0110437 0)
(0.134978 -0.0108646 0)
(0.137162 -0.0106914 0)
(0.139303 -0.0105236 0)
(0.1414 -0.0103604 0)
(0.143456 -0.0102012 0)
(0.145471 -0.0100452 0)
(0.147446 -0.00989208 0)
(0.149384 -0.00974162 0)
(0.151285 -0.00959397 0)
(0.153151 -0.00944933 0)
(0.154983 -0.00930772 0)
(0.156781 -0.00916903 0)
(0.158546 -0.00903305 0)
(0.160277 -0.00889919 0)
(0.161974 -0.00876681 0)
(0.163638 -0.00863511 0)
(0.165269 -0.00850311 0)
(0.166868 -0.00837001 0)
(0.168434 -0.00823526 0)
(0.169968 -0.00809827 0)
(0.171471 -0.00795878 0)
(0.172943 -0.00781683 0)
(0.174384 -0.00767235 0)
(0.175795 -0.0075253 0)
(0.177176 -0.00737576 0)
(0.178526 -0.00722383 0)
(0.179845 -0.00706943 0)
(0.181134 -0.00691249 0)
(0.182393 -0.00675304 0)
(0.183619 -0.00659101 0)
(0.184815 -0.00642635 0)
(0.185978 -0.00625917 0)
(0.18711 -0.00608962 0)
(0.188209 -0.00591789 0)
(0.189275 -0.00574417 0)
(0.190308 -0.00556867 0)
(0.191307 -0.00539167 0)
(0.192272 -0.00521344 0)
(0.193203 -0.00503422 0)
(0.194099 -0.00485424 0)
(0.194958 -0.00467374 0)
(0.195781 -0.00449294 0)
(0.196568 -0.00431201 0)
(0.197316 -0.00413104 0)
(0.198028 -0.0039501 0)
(0.198701 -0.00376926 0)
(0.199338 -0.00358872 0)
(0.199939 -0.00340877 0)
(0.200504 -0.00322985 0)
(0.201035 -0.00305252 0)
(0.201532 -0.00287739 0)
(0.201997 -0.00270514 0)
(0.202431 -0.0025364 0)
(0.202833 -0.00237179 0)
(0.203206 -0.00221188 0)
(0.203549 -0.00205722 0)
(0.203863 -0.00190828 0)
(0.20415 -0.00176553 0)
(0.20441 -0.00162936 0)
(0.204644 -0.00150013 0)
(0.204853 -0.00137818 0)
(0.205039 -0.00126379 0)
(0.205202 -0.00115724 0)
(0.205345 -0.00105875 0)
(0.205467 -0.000968537 0)
(0.205571 -0.000886794 0)
(0.205658 -0.000813677 0)
(0.205729 -0.000749329 0)
(0.205785 -0.000693888 0)
(0.20583 -0.000647479 0)
(0.205862 -0.000610219 0)
(0.205885 -0.000582201 0)
(0.2059 -0.000563495 0)
(0.205908 -0.000554152 0)
(0.20591 -0.000554192 0)