/*--------------------------------*- C++ -*----------------------------------*\
| =========                 |                                                 |
| \\      /  F ield         | OpenFOAM: The Open Source CFD Toolbox           |
|  \\    /   O peration     | Version:  v2006                                 |
|   \\  /    A nd           | Website:  www.openfoam.com                      |
|    \\/     M anipulation  |                                                 |
\*---------------------------------------------------------------------------*/
FoamFile
{
    version     2.0;
    format      ascii;
    class       volVectorField;
    location    "17";
    object      U;
}
// * * * * * * * * * * * * * * * * * * * * * * * * * * * * * * * * * * * * * //

dimensions      [0 1 -1 0 0 0 0];


internalField   nonuniform List<vector> 
150000
(
(-0.00882633 0.00433959 0)
(-0.0158953 0.000988856 0)
(-0.0194945 0.000656324 0)
(-0.0256042 0.00113666 0)
(-0.0320699 0.00145147 0)
(-0.0394187 0.00163212 0)
(-0.0470909 0.00171591 0)
(-0.0551735 0.0017873 0)
(-0.0636105 0.00184318 0)
(-0.0723512 0.00188619 0)
(-0.0813156 0.00191163 0)
(-0.0903952 0.00192219 0)
(-0.0995139 0.00191167 0)
(-0.108606 0.0018965 0)
(-0.117601 0.00187478 0)
(-0.126439 0.00184961 0)
(-0.135078 0.00181982 0)
(-0.143483 0.00178924 0)
(-0.151621 0.00175477 0)
(-0.159486 0.001711 0)
(-0.167061 0.00166907 0)
(-0.174356 0.00161249 0)
(-0.18138 0.00155109 0)
(-0.188135 0.00148974 0)
(-0.194633 0.00142684 0)
(-0.200882 0.00136439 0)
(-0.206882 0.00130088 0)
(-0.212635 0.00124002 0)
(-0.218135 0.00118136 0)
(-0.223366 0.00112557 0)
(-0.228316 0.00106282 0)
(-0.232965 0.000989711 0)
(-0.237293 0.000907822 0)
(-0.241283 0.000809655 0)
(-0.244927 0.000686966 0)
(-0.24822 0.000541136 0)
(-0.251166 0.00037714 0)
(-0.25379 0.000193482 0)
(-0.256121 3.43753e-07 0)
(-0.258197 -0.000191027 0)
(-0.260056 -0.00036971 0)
(-0.261728 -0.00052301 0)
(-0.263241 -0.000643194 0)
(-0.264592 -0.000727172 0)
(-0.265754 -0.000780257 0)
(-0.26669 -0.000808007 0)
(-0.267353 -0.000830934 0)
(-0.267675 -0.000867958 0)
(-0.267626 -0.000959508 0)
(-0.267187 -0.00106943 0)
(-0.266333 -0.00119848 0)
(-0.265065 -0.00134346 0)
(-0.263391 -0.00149637 0)
(-0.261328 -0.00164821 0)
(-0.258904 -0.00179379 0)
(-0.256134 -0.00192777 0)
(-0.25301 -0.00204736 0)
(-0.249548 -0.00215541 0)
(-0.245762 -0.0022482 0)
(-0.241639 -0.00233015 0)
(-0.237178 -0.00240409 0)
(-0.232376 -0.00246767 0)
(-0.227237 -0.00251985 0)
(-0.221764 -0.00256179 0)
(-0.215965 -0.00259419 0)
(-0.209855 -0.00261938 0)
(-0.203446 -0.00263945 0)
(-0.196745 -0.0026573 0)
(-0.189768 -0.00268377 0)
(-0.182534 -0.00271962 0)
(-0.175055 -0.00277177 0)
(-0.167321 -0.00284946 0)
(-0.15933 -0.00295085 0)
(-0.151102 -0.00307774 0)
(-0.14262 -0.00322778 0)
(-0.133878 -0.00339927 0)
(-0.124872 -0.00358767 0)
(-0.115569 -0.00378397 0)
(-0.105953 -0.00399495 0)
(-0.0960239 -0.00422001 0)
(-0.0857473 -0.0044434 0)
(-0.0751279 -0.00466377 0)
(-0.0641667 -0.0048739 0)
(-0.0528869 -0.00506851 0)
(-0.0413 -0.00523322 0)
(-0.0294363 -0.00537816 0)
(-0.0173351 -0.00549828 0)
(-0.00501218 -0.00559918 0)
(0.0075159 -0.00568674 0)
(0.0202393 -0.00576569 0)
(0.0331561 -0.0058407 0)
(0.0462685 -0.00591295 0)
(0.0595787 -0.00598194 0)
(0.0730879 -0.00604599 0)
(0.0867966 -0.00610237 0)
(0.100706 -0.00615112 0)
(0.114816 -0.00618551 0)
(0.129131 -0.00621081 0)
(0.143656 -0.00621861 0)
(0.158395 -0.00620878 0)
(0.173352 -0.00617978 0)
(0.18853 -0.00612772 0)
(0.203928 -0.00604718 0)
(0.219529 -0.0059302 0)
(0.235299 -0.00576615 0)
(0.251168 -0.00554446 0)
(0.267028 -0.00526203 0)
(0.282737 -0.00493447 0)
(0.298143 -0.00460571 0)
(0.313123 -0.00434785 0)
(0.327624 -0.00424531 0)
(0.341678 -0.00436501 0)
(0.355398 -0.00472893 0)
(0.368945 -0.00530299 0)
(0.382485 -0.00600656 0)
(0.396154 -0.00673701 0)
(0.410028 -0.00739804 0)
(0.42412 -0.00792122 0)
(0.43839 -0.00827524 0)
(0.452765 -0.00846285 0)
(0.467167 -0.00850879 0)
(0.481543 -0.00844343 0)
(0.495887 -0.00828794 0)
(0.510245 -0.00804823 0)
(0.5247 -0.00771645 0)
(0.539331 -0.0072742 0)
(0.554184 -0.00670287 0)
(0.569301 -0.00602093 0)
(0.584856 -0.00533987 0)
(0.601312 -0.00480608 0)
(0.619252 -0.00412696 0)
(0.638399 -0.00163216 0)
(0.655724 0.00557436 0)
(0.663829 0.0171999 0)
(0.657821 0.0256672 0)
(0.645385 0.0250555 0)
(0.63558 0.0158687 0)
(0.632598 0.00347593 0)
(0.637299 -0.00754676 0)
(0.649761 -0.0161424 0)
(0.667459 -0.0219506 0)
(0.687534 -0.0245997 0)
(0.707769 -0.024088 0)
(0.726546 -0.0206063 0)
(0.74258 -0.0146683 0)
(0.754884 -0.00760789 0)
(0.763145 -0.00129192 0)
(0.768162 0.00275598 0)
(0.771481 0.00411591 0)
(0.774539 0.00342747 0)
(0.778197 0.00168684 0)
(0.782771 -0.000323381 0)
(0.788257 -0.00211519 0)
(0.794478 -0.00340085 0)
(0.801125 -0.00403709 0)
(0.807813 -0.00402015 0)
(0.814175 -0.00347945 0)
(0.819962 -0.00264563 0)
(0.825092 -0.00178427 0)
(0.829627 -0.00111108 0)
(0.833725 -0.000741461 0)
(0.837576 -0.00069257 0)
(0.841351 -0.000916387 0)
(0.845188 -0.00133459 0)
(0.84918 -0.00186119 0)
(0.853379 -0.00241506 0)
(0.857804 -0.00292981 0)
(0.862446 -0.0033605 0)
(0.86728 -0.00368477 0)
(0.87227 -0.00389906 0)
(0.877378 -0.00401332 0)
(0.882565 -0.00404614 0)
(0.887799 -0.00402083 0)
(0.893053 -0.00396133 0)
(0.898317 -0.00388736 0)
(0.903596 -0.00380979 0)
(0.908907 -0.00372841 0)
(0.914282 -0.00363363 0)
(0.919755 -0.00351187 0)
(0.925354 -0.00335222 0)
(0.931095 -0.00315203 0)
(0.936981 -0.00292081 0)
(0.942996 -0.00267965 0)
(0.949112 -0.00245831 0)
(0.955295 -0.00229266 0)
(0.961516 -0.00222106 0)
(0.96776 -0.002275 0)
(0.974035 -0.00246382 0)
(0.980379 -0.00276248 0)
(0.986847 -0.00311008 0)
(0.993487 -0.00342146 0)
(1.00029 -0.00360836 0)
(1.00717 -0.0036062 0)
(1.01391 -0.0034023 0)
(1.02029 -0.00305123 0)
(1.02609 -0.00266301 0)
(1.03125 -0.0023641 0)
(1.03587 -0.00224444 0)
(1.04017 -0.00232008 0)
(1.04448 -0.0025354 0)
(1.04905 -0.0027981 0)
(1.05405 -0.00301912 0)
(1.05948 -0.00313455 0)
(1.06522 -0.00311104 0)
(1.07114 -0.00295289 0)
(1.0772 -0.00271345 0)
(1.08353 -0.00249271 0)
(1.09034 -0.00240493 0)
(1.09784 -0.00255166 0)
(1.10607 -0.00299376 0)
(1.11483 -0.00374731 0)
(1.1238 -0.00474237 0)
(1.1326 -0.00573531 0)
(1.14081 -0.00622514 0)
(1.14784 -0.00544133 0)
(1.15268 -0.00275744 0)
(1.15361 0.000981609 0)
(1.15104 0.0036202 0)
(1.14715 0.00438657 0)
(1.14324 0.00392276 0)
(1.1397 0.00304321 0)
(1.13647 0.00218983 0)
(1.13342 0.00146986 0)
(1.13053 0.00087466 0)
(1.1278 0.000387325 0)
(1.12522 1.81722e-05 0)
(1.12273 -0.000204 0)
(1.12021 -0.000254059 0)
(1.11754 -9.06757e-05 0)
(1.11458 0.000321945 0)
(1.11119 0.00099599 0)
(1.10721 0.00192981 0)
(1.10245 0.00311613 0)
(1.09671 0.0045408 0)
(1.08975 0.00617001 0)
(1.08132 0.00792916 0)
(1.07117 0.00969025 0)
(1.05917 0.0112867 0)
(1.04531 0.0125543 0)
(1.02976 0.0133664 0)
(1.01286 0.0136433 0)
(0.995146 0.0133656 0)
(0.977306 0.0124798 0)
(0.960114 0.0107996 0)
(0.944415 0.00826231 0)
(0.931022 0.00511428 0)
(0.920482 0.00191133 0)
(0.91288 -0.00066962 0)
(0.907837 -0.00212703 0)
(0.904698 -0.00235226 0)
(0.902771 -0.00163083 0)
(0.9015 -0.000454182 0)
(0.900516 0.000715582 0)
(0.899596 0.00160781 0)
(0.898609 0.00212483 0)
(0.897489 0.00231984 0)
(0.896213 0.00232625 0)
(0.89478 0.00224083 0)
(0.893213 0.00211664 0)
(0.891546 0.00198217 0)
(0.889814 0.00185034 0)
(0.888044 0.00173042 0)
(0.886248 0.00162803 0)
(0.884428 0.00154295 0)
(0.882584 0.00147 0)
(0.880717 0.00140212 0)
(0.878829 0.00133307 0)
(0.876925 0.00125878 0)
(0.875011 0.0011772 0)
(0.873092 0.00108778 0)
(0.871176 0.000990943 0)
(0.869269 0.000887834 0)
(0.867375 0.000780119 0)
(0.865498 0.000669794 0)
(0.863641 0.000558991 0)
(0.861807 0.000449792 0)
(0.859995 0.000344046 0)
(0.858206 0.00024326 0)
(0.856439 0.000148527 0)
(0.854694 6.05026e-05 0)
(0.85297 -2.05664e-05 0)
(0.851266 -9.47582e-05 0)
(0.849583 -0.000162316 0)
(0.847921 -0.000223471 0)
(0.846278 -0.000278343 0)
(0.844657 -0.000326966 0)
(0.843055 -0.00036935 0)
(0.841474 -0.00040553 0)
(0.839912 -0.000435572 0)
(0.838369 -0.000459575 0)
(0.836844 -0.000477629 0)
(0.835337 -0.000489783 0)
(0.833845 -0.000496042 0)
(0.832367 -0.000496421 0)
(0.830901 -0.000490996 0)
(0.829445 -0.000479909 0)
(0.827996 -0.000463344 0)
(0.826551 -0.000441496 0)
(0.825106 -0.000414547 0)
(0.823658 -0.000382644 0)
(0.822202 -0.000345898 0)
(0.820735 -0.000304434 0)
(0.819251 -0.000258435 0)
(0.817746 -0.000208136 0)
(0.816212 -0.000153784 0)
(0.814646 -9.5624e-05 0)
(0.813041 -3.39263e-05 0)
(0.811391 3.10172e-05 0)
(0.809689 9.8883e-05 0)
(0.80793 0.000169312 0)
(0.806108 0.000241922 0)
(0.804217 0.00031632 0)
(0.80225 0.000392109 0)
(0.800203 0.000468912 0)
(0.798071 0.000546386 0)
(0.795849 0.000624248 0)
(0.793532 0.000702291 0)
(0.791117 0.000780402 0)
(0.788601 0.000858545 0)
(0.785979 0.000936751 0)
(0.78325 0.0010151 0)
(0.780412 0.00109369 0)
(0.777463 0.00117267 0)
(0.774403 0.00125215 0)
(0.771229 0.00133222 0)
(0.767944 0.0014129 0)
(0.764546 0.00149413 0)
(0.761037 0.00157574 0)
(0.757417 0.00165738 0)
(0.75369 0.00173856 0)
(0.749856 0.00181867 0)
(0.745917 0.00189705 0)
(0.741877 0.00197305 0)
(0.737738 0.00204599 0)
(0.733502 0.00211518 0)
(0.729173 0.00217997 0)
(0.724753 0.00223982 0)
(0.720245 0.0022945 0)
(0.715653 0.00234403 0)
(0.710978 0.00238859 0)
(0.706224 0.00242852 0)
(0.701394 0.00246437 0)
(0.696491 0.00249697 0)
(0.691521 0.00252744 0)
(0.686491 0.00255684 0)
(0.681412 0.00258479 0)
(0.676299 0.00260814 0)
(0.671177 0.0026201 0)
(0.666075 0.00261144 0)
(0.66103 0.00257548 0)
(0.656072 0.00251595 0)
(0.651213 0.00245071 0)
(0.646434 0.00240489 0)
(0.641693 0.00239696 0)
(0.636941 0.00242889 0)
(0.632144 0.00248579 0)
(0.627295 0.00253967 0)
(0.622419 0.00255375 0)
(0.617573 0.00249135 0)
(0.612824 0.00233242 0)
(0.608225 0.00208825 0)
(0.603791 0.00180001 0)
(0.599484 0.00151891 0)
(0.595238 0.00128213 0)
(0.590978 0.00110056 0)
(0.586657 0.00096203 0)
(0.582256 0.000843493 0)
(0.577783 0.000723023 0)
(0.573261 0.000586624 0)
(0.568711 0.000430669 0)
(0.564147 0.000263884 0)
(0.559569 0.000111446 0)
(0.554948 2.01106e-05 0)
(0.550218 6.03662e-05 0)
(0.545275 0.000323398 0)
(0.539978 0.000894277 0)
(0.53417 0.00179626 0)
(0.527764 0.00293295 0)
(0.520835 0.00408311 0)
(0.513641 0.00496566 0)
(0.506567 0.00539268 0)
(0.500007 0.00535284 0)
(0.494236 0.00496601 0)
(0.489337 0.00439515 0)
(0.485208 0.00378786 0)
(0.481609 0.00325473 0)
(0.478244 0.00286261 0)
(0.474849 0.00263247 0)
(0.471261 0.00254093 0)
(0.467446 0.00254205 0)
(0.463467 0.00259241 0)
(0.459443 0.00266079 0)
(0.455509 0.00272524 0)
(0.45179 0.00276578 0)
(0.448395 0.00275863 0)
(0.445422 0.00267202 0)
(0.442958 0.00247296 0)
(0.441075 0.00214708 0)
(0.439812 0.00172337 0)
(0.439145 0.00127745 0)
(0.438969 0.00090009 0)
(0.439101 0.000664949 0)
(0.439305 0.000597037 0)
(0.439388 0.000641957 0)
(0.439237 0.000714129 0)
(0.43883 0.000762933 0)
(0.438224 0.000773314 0)
(0.437477 0.000758396 0)
(0.436629 0.000739697 0)
(0.435695 0.00072846 0)
(0.434678 0.000724548 0)
(0.433583 0.00072255 0)
(0.432426 0.000719802 0)
(0.431227 0.000716082 0)
(0.430007 0.000713988 0)
(0.428779 0.000716936 0)
(0.427549 0.000726925 0)
(0.426312 0.00074362 0)
(0.425058 0.000765709 0)
(0.423771 0.000792416 0)
(0.422434 0.000822559 0)
(0.421031 0.000854719 0)
(0.419545 0.000887894 0)
(0.417962 0.000921918 0)
(0.41627 0.000957275 0)
(0.414456 0.000994763 0)
(0.41251 0.00103521 0)
(0.410424 0.00107936 0)
(0.408186 0.00112756 0)
(0.405789 0.00117939 0)
(0.403227 0.00123311 0)
(0.400495 0.00128475 0)
(0.397598 0.00132662 0)
(0.394547 0.00134656 0)
(0.391366 0.00133126 0)
(0.388082 0.00127384 0)
(0.384713 0.0011806 0)
(0.38126 0.00106949 0)
(0.377706 0.000959542 0)
(0.374028 0.000859113 0)
(0.37021 0.000762817 0)
(0.366255 0.000658972 0)
(0.362182 0.000540995 0)
(0.358018 0.000413725 0)
(0.353789 0.000288048 0)
(0.34952 0.000171264 0)
(0.345236 6.51811e-05 0)
(0.340965 -3.35051e-05 0)
(0.336746 -0.000130171 0)
(0.33262 -0.000228297 0)
(0.328638 -0.000327776 0)
(0.324858 -0.000425739 0)
(0.32134 -0.000518236 0)
(0.318153 -0.000601619 0)
(0.315365 -0.000673341 0)
(0.313043 -0.000732284 0)
(0.311248 -0.000779021 0)
(0.310024 -0.000816296 0)
(0.309393 -0.000851465 0)
(0.309358 -0.000891686 0)
(0.309965 -0.000939373 0)
(0.311124 -0.000951374 0)
(0.312645 -0.000879914 0)
(0.314314 -0.000656328 0)
(0.315837 -2.65001e-05 0)
(0.316476 0.00118978 0)
(0.315524 0.0025495 0)
(0.313061 0.00359301 0)
(0.309307 0.00420174 0)
(0.304447 0.00454949 0)
(0.298612 0.00479189 0)
(0.291877 0.00499548 0)
(0.284284 0.00519133 0)
(0.275864 0.00539452 0)
(0.266642 0.00561009 0)
(0.256644 0.00583385 0)
(0.245906 0.00605331 0)
(0.234473 0.00625015 0)
(0.222411 0.00640301 0)
(0.20981 0.00649148 0)
(0.196782 0.00649293 0)
(0.183446 0.00638666 0)
(0.169926 0.00616622 0)
(0.156354 0.00583867 0)
(0.142864 0.00541796 0)
(0.129585 0.00491966 0)
(0.116638 0.00435795 0)
(0.104145 0.0037446 0)
(0.0922223 0.00308993 0)
(0.0809898 0.00240475 0)
(0.0705639 0.00170027 0)
(0.0610552 0.000991049 0)
(0.0525589 0.000307678 0)
(0.0451207 -0.000283674 0)
(0.0386717 -0.000665281 0)
(0.0329662 -0.000693851 0)
(0.02741 -0.00028773 0)
(0.0212253 0.000468314 0)
(0.0137548 0.00144969 0)
(0.00554107 0.00226658 0)
(-0.0102067 0.0161808 0)
(-0.0191669 0.007948 0)
(-0.0258884 0.00785018 0)
(-0.0356457 0.00927954 0)
(-0.0461827 0.010255 0)
(-0.0579397 0.0109645 0)
(-0.0703625 0.0115834 0)
(-0.0834479 0.0121766 0)
(-0.0970386 0.0126873 0)
(-0.110953 0.0130759 0)
(-0.124996 0.0133337 0)
(-0.138972 0.0134622 0)
(-0.152722 0.0134578 0)
(-0.166124 0.0133382 0)
(-0.179076 0.0131187 0)
(-0.191512 0.0128156 0)
(-0.2034 0.0124467 0)
(-0.214741 0.0120331 0)
(-0.22555 0.0115956 0)
(-0.235861 0.0111534 0)
(-0.245716 0.0107191 0)
(-0.255154 0.0102982 0)
(-0.264206 0.00989936 0)
(-0.272902 0.00952065 0)
(-0.281253 0.00915793 0)
(-0.289263 0.00880174 0)
(-0.296923 0.00844562 0)
(-0.304221 0.00808272 0)
(-0.311144 0.00770192 0)
(-0.317684 0.00729852 0)
(-0.323837 0.00686906 0)
(-0.329613 0.00641698 0)
(-0.33504 0.00595062 0)
(-0.340152 0.00548064 0)
(-0.344996 0.00502202 0)
(-0.349625 0.00459316 0)
(-0.354092 0.00421199 0)
(-0.358433 0.00389069 0)
(-0.362664 0.00363553 0)
(-0.36677 0.00344156 0)
(-0.370699 0.00329246 0)
(-0.374364 0.00315882 0)
(-0.377655 0.00300384 0)
(-0.380458 0.0027909 0)
(-0.38268 0.0024905 0)
(-0.384274 0.00209218 0)
(-0.385237 0.00160462 0)
(-0.385627 0.00105881 0)
(-0.385507 0.000474958 0)
(-0.384957 -0.000116467 0)
(-0.38409 -0.000690032 0)
(-0.382975 -0.00123241 0)
(-0.381649 -0.0017399 0)
(-0.380127 -0.00221774 0)
(-0.378396 -0.00267553 0)
(-0.376423 -0.00312067 0)
(-0.374165 -0.00356555 0)
(-0.371589 -0.00402332 0)
(-0.368664 -0.00449213 0)
(-0.36536 -0.00497735 0)
(-0.36166 -0.00547491 0)
(-0.357557 -0.00597809 0)
(-0.35305 -0.00648574 0)
(-0.348144 -0.0069896 0)
(-0.342848 -0.00748461 0)
(-0.337176 -0.00796494 0)
(-0.331146 -0.00842321 0)
(-0.324778 -0.00885534 0)
(-0.318095 -0.00926094 0)
(-0.311127 -0.00963507 0)
(-0.303892 -0.00997896 0)
(-0.296399 -0.0102959 0)
(-0.288674 -0.0105936 0)
(-0.280731 -0.0108786 0)
(-0.272568 -0.0111544 0)
(-0.26419 -0.0114383 0)
(-0.255593 -0.0117344 0)
(-0.246771 -0.0120459 0)
(-0.237723 -0.0123835 0)
(-0.228442 -0.0127373 0)
(-0.218926 -0.0131028 0)
(-0.20918 -0.0134667 0)
(-0.19919 -0.0138191 0)
(-0.18895 -0.0141531 0)
(-0.178444 -0.0144575 0)
(-0.167665 -0.0147442 0)
(-0.156606 -0.01501 0)
(-0.145261 -0.0152623 0)
(-0.133634 -0.0155097 0)
(-0.121738 -0.015758 0)
(-0.109585 -0.0160106 0)
(-0.0971945 -0.0162713 0)
(-0.0845834 -0.0165379 0)
(-0.0717671 -0.0168118 0)
(-0.0587582 -0.0170944 0)
(-0.0455585 -0.0173881 0)
(-0.0321774 -0.0176964 0)
(-0.0186127 -0.0180222 0)
(-0.00485703 -0.0183748 0)
(0.00908335 -0.0187466 0)
(0.0232214 -0.0191428 0)
(0.037576 -0.0195584 0)
(0.0521724 -0.0199818 0)
(0.0670398 -0.0203916 0)
(0.0822003 -0.0207527 0)
(0.0976531 -0.0210166 0)
(0.113355 -0.0211284 0)
(0.1292 -0.0210398 0)
(0.145015 -0.0207261 0)
(0.160562 -0.0201973 0)
(0.17558 -0.0195014 0)
(0.189821 -0.0187137 0)
(0.203111 -0.01792 0)
(0.215388 -0.0171998 0)
(0.226723 -0.0166114 0)
(0.237306 -0.0161808 0)
(0.247404 -0.0158985 0)
(0.257306 -0.0157269 0)
(0.267288 -0.0156195 0)
(0.277593 -0.0155459 0)
(0.288442 -0.01551 0)
(0.300044 -0.0155544 0)
(0.312584 -0.015747 0)
(0.326188 -0.016147 0)
(0.340867 -0.0167697 0)
(0.356491 -0.0175812 0)
(0.372809 -0.0185572 0)
(0.3896 -0.0197903 0)
(0.406913 -0.0215438 0)
(0.425318 -0.0240737 0)
(0.446063 -0.0270809 0)
(0.471126 -0.0289886 0)
(0.502944 -0.0271077 0)
(0.543438 -0.0202796 0)
(0.588336 -0.0119702 0)
(0.624432 -0.00620249 0)
(0.643545 -0.00394248 0)
(0.645497 -0.00434108 0)
(0.635088 -0.00620724 0)
(0.617176 -0.0078036 0)
(0.597351 -0.00811717 0)
(0.580183 -0.00769679 0)
(0.569255 -0.00768953 0)
(0.566544 -0.00851013 0)
(0.571768 -0.00958561 0)
(0.583153 -0.0102535 0)
(0.598344 -0.0103709 0)
(0.614818 -0.0101336 0)
(0.630364 -0.00970712 0)
(0.643549 -0.00914652 0)
(0.653873 -0.00851161 0)
(0.661611 -0.00791516 0)
(0.6675 -0.00744522 0)
(0.672438 -0.00712454 0)
(0.677277 -0.00692162 0)
(0.682662 -0.00678538 0)
(0.688929 -0.0066691 0)
(0.696095 -0.00653926 0)
(0.703935 -0.00638229 0)
(0.712076 -0.00619495 0)
(0.72011 -0.00597665 0)
(0.727676 -0.00573042 0)
(0.734516 -0.00546515 0)
(0.74049 -0.00519645 0)
(0.745567 -0.00494514 0)
(0.749804 -0.00473188 0)
(0.753323 -0.00457195 0)
(0.756283 -0.00447252 0)
(0.75886 -0.00443225 0)
(0.761228 -0.0044425 0)
(0.763547 -0.00448958 0)
(0.765954 -0.00455819 0)
(0.768562 -0.00463585 0)
(0.771463 -0.00471779 0)
(0.774731 -0.00481045 0)
(0.778427 -0.00493157 0)
(0.782602 -0.00510555 0)
(0.78729 -0.00535482 0)
(0.792495 -0.00569009 0)
(0.798184 -0.00610355 0)
(0.804271 -0.00656809 0)
(0.810623 -0.0070426 0)
(0.817069 -0.00747899 0)
(0.823417 -0.00783 0)
(0.829484 -0.00805747 0)
(0.835138 -0.00814195 0)
(0.840348 -0.00809289 0)
(0.845216 -0.00795523 0)
(0.849978 -0.00780315 0)
(0.854957 -0.00771161 0)
(0.860458 -0.00771271 0)
(0.866667 -0.0077637 0)
(0.873569 -0.00775479 0)
(0.880944 -0.00756279 0)
(0.888436 -0.00712346 0)
(0.895657 -0.00647664 0)
(0.902315 -0.00575981 0)
(0.90831 -0.00515735 0)
(0.91377 -0.00483192 0)
(0.91898 -0.00486229 0)
(0.924215 -0.00520865 0)
(0.929548 -0.00573074 0)
(0.934754 -0.00626595 0)
(0.939388 -0.00673364 0)
(0.943041 -0.00719523 0)
(0.945583 -0.00781153 0)
(0.947202 -0.00870303 0)
(0.948184 -0.00978368 0)
(0.948636 -0.0107784 0)
(0.948431 -0.0112795 0)
(0.947428 -0.0109936 0)
(0.945841 -0.00991241 0)
(0.944413 -0.0083187 0)
(0.944205 -0.00654015 0)
(0.946184 -0.00463031 0)
(0.951005 -0.00245577 0)
(0.959158 -0.000343634 0)
(0.968608 0.00100982 0)
(0.976576 0.00167351 0)
(0.981977 0.00211489 0)
(0.984879 0.00262716 0)
(0.985759 0.003184 0)
(0.985029 0.00366188 0)
(0.983017 0.00401117 0)
(0.979976 0.00423962 0)
(0.976161 0.0043822 0)
(0.971891 0.00447141 0)
(0.967567 0.00453417 0)
(0.963608 0.00459304 0)
(0.960379 0.00464204 0)
(0.95815 0.00467635 0)
(0.957111 0.00471807 0)
(0.957395 0.00481671 0)
(0.95912 0.00504313 0)
(0.962387 0.00548237 0)
(0.967231 0.0062212 0)
(0.973535 0.00732349 0)
(0.98097 0.00879574 0)
(0.989016 0.0105624 0)
(0.997073 0.0124701 0)
(1.0046 0.0143207 0)
(1.01109 0.0159101 0)
(1.01604 0.0170291 0)
(1.01894 0.0175119 0)
(1.01934 0.0172665 0)
(1.01694 0.0162681 0)
(1.01187 0.0145854 0)
(1.00489 0.0123745 0)
(0.997267 0.00984141 0)
(0.990431 0.00721634 0)
(0.985439 0.00474191 0)
(0.982712 0.00264559 0)
(0.98206 0.00109103 0)
(0.982901 0.000114472 0)
(0.984547 -0.000340306 0)
(0.986464 -0.000374844 0)
(0.988311 -0.000161421 0)
(0.989883 0.000151837 0)
(0.991098 0.000475205 0)
(0.991935 0.000757878 0)
(0.992409 0.00098775 0)
(0.992567 0.00117168 0)
(0.992463 0.00132237 0)
(0.992149 0.00145175 0)
(0.991659 0.00156839 0)
(0.99101 0.00167755 0)
(0.990209 0.00178213 0)
(0.989258 0.00188354 0)
(0.988154 0.00198235 0)
(0.986895 0.00207863 0)
(0.985481 0.00217223 0)
(0.983909 0.00226288 0)
(0.982177 0.0023503 0)
(0.980284 0.00243418 0)
(0.978227 0.00251423 0)
(0.976007 0.0025901 0)
(0.973622 0.00266143 0)
(0.971073 0.0027278 0)
(0.968362 0.00278878 0)
(0.965491 0.00284398 0)
(0.962468 0.00289305 0)
(0.959297 0.00293569 0)
(0.95599 0.00297174 0)
(0.952556 0.00300117 0)
(0.949008 0.00302412 0)
(0.945359 0.0030408 0)
(0.941624 0.00305147 0)
(0.937817 0.00305637 0)
(0.933952 0.0030558 0)
(0.930045 0.00305007 0)
(0.926107 0.00303956 0)
(0.922152 0.00302472 0)
(0.918191 0.00300609 0)
(0.914237 0.00298431 0)
(0.910298 0.00296008 0)
(0.906385 0.00293415 0)
(0.902506 0.00290727 0)
(0.898668 0.00288015 0)
(0.894879 0.00285345 0)
(0.891143 0.00282787 0)
(0.887464 0.00280419 0)
(0.883848 0.00278317 0)
(0.880297 0.0027656 0)
(0.876812 0.00275222 0)
(0.873396 0.00274369 0)
(0.870047 0.00274062 0)
(0.866765 0.00274358 0)
(0.863549 0.00275317 0)
(0.860394 0.00276992 0)
(0.857299 0.00279429 0)
(0.854258 0.00282657 0)
(0.851266 0.0028669 0)
(0.848317 0.00291529 0)
(0.845404 0.00297165 0)
(0.842521 0.00303575 0)
(0.839661 0.00310726 0)
(0.836817 0.00318573 0)
(0.833982 0.00327058 0)
(0.83115 0.00336109 0)
(0.828313 0.0034565 0)
(0.825468 0.00355593 0)
(0.822609 0.00365848 0)
(0.819732 0.00376324 0)
(0.816834 0.00386929 0)
(0.813913 0.00397576 0)
(0.810967 0.00408185 0)
(0.807995 0.00418689 0)
(0.804996 0.00429039 0)
(0.801969 0.00439205 0)
(0.798914 0.00449176 0)
(0.79583 0.00458953 0)
(0.792715 0.00468552 0)
(0.789569 0.00478001 0)
(0.786388 0.00487336 0)
(0.783171 0.00496597 0)
(0.779913 0.00505826 0)
(0.776611 0.00515067 0)
(0.77326 0.00524364 0)
(0.769859 0.00533736 0)
(0.766401 0.00543168 0)
(0.762883 0.00552604 0)
(0.759303 0.0056194 0)
(0.755657 0.00570982 0)
(0.751944 0.00579423 0)
(0.748164 0.00586815 0)
(0.74432 0.00592557 0)
(0.740412 0.00595931 0)
(0.736445 0.00596228 0)
(0.732422 0.00592983 0)
(0.728346 0.00586352 0)
(0.724231 0.00577421 0)
(0.720095 0.00568168 0)
(0.715963 0.00560833 0)
(0.711858 0.0055697 0)
(0.70779 0.00556742 0)
(0.703752 0.00558888 0)
(0.699731 0.00561321 0)
(0.695705 0.00562091 0)
(0.691653 0.00560393 0)
(0.687558 0.00557209 0)
(0.683407 0.00555196 0)
(0.679183 0.00557655 0)
(0.674852 0.00567013 0)
(0.670348 0.00583678 0)
(0.665591 0.00605965 0)
(0.660514 0.0063102 0)
(0.655084 0.00656107 0)
(0.649307 0.00679547 0)
(0.643215 0.00700955 0)
(0.636839 0.00720873 0)
(0.6302 0.00740136 0)
(0.623313 0.00759315 0)
(0.616201 0.00778329 0)
(0.60893 0.00796231 0)
(0.601619 0.00811283 0)
(0.59446 0.0082071 0)
(0.587701 0.0082042 0)
(0.581582 0.00805264 0)
(0.576251 0.00770091 0)
(0.571758 0.00710427 0)
(0.568095 0.00626535 0)
(0.565236 0.00526392 0)
(0.563154 0.00424623 0)
(0.561786 0.00338508 0)
(0.560988 0.00282523 0)
(0.560518 0.0026341 0)
(0.560081 0.0027808 0)
(0.559403 0.00315247 0)
(0.5583 0.00359257 0)
(0.556714 0.00394855 0)
(0.554714 0.00411514 0)
(0.552462 0.00405004 0)
(0.550163 0.00376246 0)
(0.548015 0.00329111 0)
(0.546173 0.00268481 0)
(0.544727 0.00199421 0)
(0.543699 0.00126945 0)
(0.543051 0.000560048 0)
(0.542704 -8.02795e-05 0)
(0.542553 -0.000587147 0)
(0.542492 -0.00090288 0)
(0.542429 -0.000995347 0)
(0.542287 -0.000878021 0)
(0.54199 -0.00060444 0)
(0.541492 -0.000266354 0)
(0.540767 6.04789e-05 0)
(0.539813 0.000334034 0)
(0.538668 0.000550772 0)
(0.53738 0.000727284 0)
(0.535984 0.000882792 0)
(0.534496 0.00102472 0)
(0.532917 0.00114771 0)
(0.531249 0.00124308 0)
(0.529503 0.00130466 0)
(0.527697 0.0013339 0)
(0.525855 0.00133978 0)
(0.523993 0.00133503 0)
(0.52212 0.00133313 0)
(0.520237 0.00134566 0)
(0.518333 0.00138022 0)
(0.516394 0.00144029 0)
(0.514403 0.00152611 0)
(0.512346 0.00163603 0)
(0.510209 0.0017675 0)
(0.507985 0.00191776 0)
(0.505667 0.00208428 0)
(0.503251 0.00226485 0)
(0.500734 0.00245767 0)
(0.498111 0.00266128 0)
(0.495379 0.00287415 0)
(0.492531 0.00309433 0)
(0.489555 0.00331885 0)
(0.486437 0.00354361 0)
(0.483152 0.00376458 0)
(0.479668 0.00398106 0)
(0.475945 0.00419912 0)
(0.471934 0.00443152 0)
(0.467585 0.00469171 0)
(0.462849 0.00498511 0)
(0.457682 0.00530525 0)
(0.452056 0.00563763 0)
(0.445951 0.00596683 0)
(0.43936 0.00627992 0)
(0.432287 0.00656558 0)
(0.424759 0.0068118 0)
(0.416823 0.00700628 0)
(0.408546 0.00714064 0)
(0.400003 0.00721013 0)
(0.391279 0.00720972 0)
(0.382468 0.00713115 0)
(0.373681 0.00696239 0)
(0.365054 0.00668939 0)
(0.356745 0.00629862 0)
(0.348933 0.00577983 0)
(0.341811 0.00512873 0)
(0.335569 0.00435006 0)
(0.330384 0.00346042 0)
(0.326394 0.00248928 0)
(0.323686 0.00147593 0)
(0.322259 0.000466728 0)
(0.321948 -0.000481193 0)
(0.322617 -0.00127653 0)
(0.32411 -0.00182642 0)
(0.326202 -0.00205901 0)
(0.328697 -0.00184929 0)
(0.331821 -0.00110905 0)
(0.335763 -2.74403e-05 0)
(0.339908 0.00121019 0)
(0.343649 0.00255088 0)
(0.346631 0.00394191 0)
(0.348575 0.00527424 0)
(0.349329 0.00655026 0)
(0.348863 0.00777847 0)
(0.3472 0.00895651 0)
(0.344389 0.0100826 0)
(0.340493 0.0111576 0)
(0.335575 0.0121816 0)
(0.329686 0.0131507 0)
(0.322858 0.0140564 0)
(0.315103 0.0148867 0)
(0.306409 0.0156247 0)
(0.29676 0.0162523 0)
(0.286138 0.0167562 0)
(0.274521 0.0171282 0)
(0.261898 0.0173629 0)
(0.24827 0.0174553 0)
(0.233654 0.0173997 0)
(0.218097 0.0171886 0)
(0.201669 0.0168114 0)
(0.184473 0.0162577 0)
(0.166649 0.0155214 0)
(0.148368 0.0146054 0)
(0.129831 0.0135312 0)
(0.111275 0.0123615 0)
(0.0929899 0.0112394 0)
(0.0753144 0.0104385 0)
(0.0582679 0.010426 0)
(0.0415021 0.0113168 0)
(0.0249793 0.012604 0)
(0.00989746 0.0142165 0)
(-0.0105446 0.0283929 0)
(-0.0194236 0.0143555 0)
(-0.0254589 0.0148223 0)
(-0.0352097 0.0179334 0)
(-0.0468284 0.020242 0)
(-0.0602675 0.0217951 0)
(-0.0744816 0.0230299 0)
(-0.0891486 0.0240334 0)
(-0.103954 0.0247475 0)
(-0.118613 0.0251188 0)
(-0.132874 0.025156 0)
(-0.146553 0.0249031 0)
(-0.159532 0.0244006 0)
(-0.171763 0.0237086 0)
(-0.18325 0.0228914 0)
(-0.194036 0.0219989 0)
(-0.204191 0.0210792 0)
(-0.213789 0.0201747 0)
(-0.222905 0.0193056 0)
(-0.231615 0.0184897 0)
(-0.239976 0.0177315 0)
(-0.248025 0.0170253 0)
(-0.255787 0.0163587 0)
(-0.263269 0.0157169 0)
(-0.270472 0.0150866 0)
(-0.277381 0.0144517 0)
(-0.283984 0.0138039 0)
(-0.29028 0.0131368 0)
(-0.29627 0.0124531 0)
(-0.301962 0.0117603 0)
(-0.307378 0.0110722 0)
(-0.312547 0.0104029 0)
(-0.317506 0.00976702 0)
(-0.32229 0.00918337 0)
(-0.326923 0.00865795 0)
(-0.331415 0.00819078 0)
(-0.335753 0.00776967 0)
(-0.339898 0.00737453 0)
(-0.343778 0.00696754 0)
(-0.3473 0.00650428 0)
(-0.350361 0.00594568 0)
(-0.352865 0.00526129 0)
(-0.354742 0.00444117 0)
(-0.355961 0.00350235 0)
(-0.356536 0.00248066 0)
(-0.35653 0.00143074 0)
(-0.356031 0.000412599 0)
(-0.355151 -0.000538868 0)
(-0.354016 -0.00134587 0)
(-0.352698 -0.00203841 0)
(-0.351252 -0.00263462 0)
(-0.349717 -0.00316407 0)
(-0.348104 -0.00366138 0)
(-0.346401 -0.00416074 0)
(-0.344579 -0.00468775 0)
(-0.342594 -0.00525419 0)
(-0.340406 -0.00586873 0)
(-0.337984 -0.00653371 0)
(-0.335299 -0.00723491 0)
(-0.33233 -0.00796189 0)
(-0.329059 -0.00870178 0)
(-0.325488 -0.0094434 0)
(-0.321616 -0.010177 0)
(-0.31744 -0.0108927 0)
(-0.312965 -0.0115854 0)
(-0.30819 -0.0122497 0)
(-0.303115 -0.0128809 0)
(-0.297738 -0.0134795 0)
(-0.292056 -0.0140486 0)
(-0.286069 -0.0145916 0)
(-0.279769 -0.0151114 0)
(-0.273141 -0.0156166 0)
(-0.266184 -0.0161226 0)
(-0.258896 -0.0166296 0)
(-0.251277 -0.0171456 0)
(-0.243343 -0.017673 0)
(-0.235102 -0.0182132 0)
(-0.226574 -0.0187655 0)
(-0.217785 -0.0193323 0)
(-0.208759 -0.0199072 0)
(-0.199507 -0.0205028 0)
(-0.19004 -0.0211009 0)
(-0.180355 -0.0217033 0)
(-0.170437 -0.0223072 0)
(-0.160269 -0.0229087 0)
(-0.149833 -0.0235043 0)
(-0.139123 -0.0240875 0)
(-0.128143 -0.0246521 0)
(-0.116913 -0.0251919 0)
(-0.10547 -0.0257027 0)
(-0.0938565 -0.0261807 0)
(-0.0821195 -0.0266282 0)
(-0.0703033 -0.0270488 0)
(-0.0584502 -0.0274435 0)
(-0.0465922 -0.0278183 0)
(-0.0347543 -0.0281732 0)
(-0.0229609 -0.0285158 0)
(-0.0112381 -0.0288387 0)
(0.000400297 -0.0291571 0)
(0.011927 -0.0294719 0)
(0.0233127 -0.0297938 0)
(0.0345449 -0.030134 0)
(0.0456126 -0.0304978 0)
(0.0565174 -0.0308735 0)
(0.0672785 -0.0312224 0)
(0.0779377 -0.0314748 0)
(0.0885635 -0.0315392 0)
(0.0992485 -0.0313275 0)
(0.110092 -0.0307849 0)
(0.121169 -0.0299139 0)
(0.132511 -0.0287827 0)
(0.144099 -0.0275213 0)
(0.155877 -0.0262955 0)
(0.167777 -0.0252675 0)
(0.179741 -0.0245585 0)
(0.191745 -0.0242263 0)
(0.20381 -0.0242661 0)
(0.216009 -0.0246324 0)
(0.228452 -0.02527 0)
(0.241256 -0.0261372 0)
(0.254499 -0.0272108 0)
(0.268179 -0.02847 0)
(0.282189 -0.0298628 0)
(0.296319 -0.0312679 0)
(0.31026 -0.0324858 0)
(0.323601 -0.0333034 0)
(0.335808 -0.0336644 0)
(0.346233 -0.0339032 0)
(0.354222 -0.0348443 0)
(0.359385 -0.0375031 0)
(0.362068 -0.0423205 0)
(0.363877 -0.0482289 0)
(0.367815 -0.0521653 0)
(0.377288 -0.0498244 0)
(0.39379 -0.0385055 0)
(0.414099 -0.0210604 0)
(0.431067 -0.00354238 0)
(0.439051 0.00851816 0)
(0.437973 0.0138281 0)
(0.431752 0.0129385 0)
(0.425296 0.00667616 0)
(0.423358 -0.00329478 0)
(0.426383 -0.0137367 0)
(0.432589 -0.0218777 0)
(0.440571 -0.0264943 0)
(0.449713 -0.0275764 0)
(0.459825 -0.0259545 0)
(0.470723 -0.0228238 0)
(0.481983 -0.0192738 0)
(0.493068 -0.0160461 0)
(0.503598 -0.0135809 0)
(0.513447 -0.0121072 0)
(0.522687 -0.0116456 0)
(0.53149 -0.0119997 0)
(0.540059 -0.0128258 0)
(0.548582 -0.0137538 0)
(0.557209 -0.0144867 0)
(0.566031 -0.0148442 0)
(0.575081 -0.0147676 0)
(0.584342 -0.0142952 0)
(0.593754 -0.0135214 0)
(0.603231 -0.0125653 0)
(0.612683 -0.0115471 0)
(0.622039 -0.0105699 0)
(0.631243 -0.00970798 0)
(0.640262 -0.00900591 0)
(0.649082 -0.00848426 0)
(0.657707 -0.00814678 0)
(0.66616 -0.00798645 0)
(0.674482 -0.0079896 0)
(0.682732 -0.00813894 0)
(0.690984 -0.00841686 0)
(0.699318 -0.00880861 0)
(0.707811 -0.00930364 0)
(0.716517 -0.00989291 0)
(0.725445 -0.0105617 0)
(0.73455 -0.011281 0)
(0.743723 -0.0120018 0)
(0.752805 -0.0126574 0)
(0.761609 -0.0131724 0)
(0.769948 -0.013476 0)
(0.777672 -0.0135153 0)
(0.784689 -0.0132681 0)
(0.790994 -0.0127589 0)
(0.796676 -0.0120743 0)
(0.801921 -0.0113702 0)
(0.806991 -0.0108561 0)
(0.812172 -0.0107433 0)
(0.817701 -0.0111639 0)
(0.823706 -0.0120968 0)
(0.830176 -0.0133431 0)