/*--------------------------------*- C++ -*----------------------------------*\
| =========                 |                                                 |
| \\      /  F ield         | OpenFOAM: The Open Source CFD Toolbox           |
|  \\    /   O peration     | Version:  v2006                                 |
|   \\  /    A nd           | Website:  www.openfoam.com                      |
|    \\/     M anipulation  |                                                 |
\*---------------------------------------------------------------------------*/
FoamFile
{
    version     2.0;
    format      ascii;
    class       volScalarField;
    location    "0";
    object      f;
}
// * * * * * * * * * * * * * * * * * * * * * * * * * * * * * * * * * * * * * //

dimensions      [0 0 0 0 0 0 0];


internalField   nonuniform List<scalar> 
2500
(
-1.15607e-09
-9.64558e-10
6.24115e-09
-2.09763e-10
-1.83443e-08
-1.16941e-08
3.07673e-08
4.58268e-08
-3.38519e-08
-1.69021e-07
-1.57824e-07
2.22148e-07
2.5007e-07
-1.69847e-06
-5.17798e-06
-6.45682e-06
-1.58376e-06
7.24487e-06
1.0074e-05
1.89581e-06
-8.89752e-06
-8.60158e-06
-4.88991e-06
-1.78728e-06
-3.54398e-07
-6.21315e-09
1.15598e-09
5.60979e-10
1.06865e-10
-3.50384e-12
-3.06862e-12
6.66377e-12
7.5637e-12
2.61969e-12
2.87062e-13
-1.65845e-14
-9.26992e-15
-1.37077e-15
1.88646e-15
2.38158e-15
7.54665e-16
-1.79087e-16
-2.523e-16
-1.32828e-16
-5.3809e-17
-1.90255e-17
-6.05309e-18
-1.73356e-18
-4.35908e-19
-9.30454e-20
-2.82184e-09
6.06264e-09
1.244e-08
-2.4632e-08
-4.40499e-08
2.60744e-09
9.39955e-08
4.1559e-08
-1.53349e-07
-3.19828e-07
-1.92255e-07
3.87938e-07
3.38602e-07
-3.79048e-06
-9.26778e-06
-8.27472e-06
1.05887e-05
2.09948e-05
1.48707e-05
-3.24472e-05
-3.81599e-05
-2.03757e-05
-7.20428e-06
-1.62668e-06
-3.80638e-08
1.8291e-09
7.4897e-10
8.31822e-11
3.53318e-12
-7.50967e-12
1.589e-11
3.90221e-11
2.55596e-11
4.15755e-12
-1.78014e-13
-1.00089e-13
-2.44484e-14
1.25189e-15
1.65996e-14
7.59533e-15
1.08197e-15
-9.34256e-16
-5.18523e-16
-1.36861e-16
-2.25683e-17
2.14773e-18
4.40162e-18
2.79854e-18
1.39686e-18
8.74551e-19
-2.93777e-09
2.9655e-08
6.67234e-09
-1.06829e-07
-5.86663e-08
2.61124e-07
2.08495e-07
-7.944e-07
-3.79631e-07
-3.90421e-07
-1.3377e-07
4.40106e-07
-5.47454e-08
-5.48364e-06
-1.2308e-05
1.82574e-05
6.87559e-05
3.56539e-05
-0.000135064
-0.000162696
-6.87196e-05
-2.54411e-05
-7.64042e-06
-1.29209e-06
8.65538e-09
1.19997e-09
2.01306e-10
1.49347e-10
2.08296e-10
-1.77114e-10
3.33432e-08
1.27754e-09
6.40126e-11
1.52424e-12
-4.8953e-13
-2.24138e-13
-2.06335e-14
1.65874e-13
9.11306e-14
1.75747e-14
-9.95223e-15
-6.75282e-15
-1.27809e-15
-7.412e-17
4.91449e-17
3.56201e-17
1.73573e-17
7.40183e-18
2.95005e-18
1.52599e-18
4.64965e-08
7.22776e-08
-3.19836e-07
-3.31363e-07
9.47855e-07
1.39009e-06
-1.61325e-06
-4.215e-06
3.61714e-07
9.12864e-06
5.80512e-06
9.29895e-07
-2.3178e-06
4.44474e-05
0.000280322
0.000510384
0.000278585
-0.000376437
-0.000898385
-0.000531139
0.000272364
0.00200084
0.0039555
0.00516305
0.00517859
0.00437762
0.00308783
0.00179603
0.000826103
0.000263949
3.24061e-05
3.29502e-09
3.69784e-11
-1.25924e-12
-8.46907e-13
-3.96045e-15
1.4787e-12
8.68853e-13
1.88718e-13
-1.20309e-13
-1.04312e-13
-2.56992e-14
-1.00176e-15
7.30391e-16
2.99852e-16
1.04638e-16
3.59248e-17
1.21228e-17
4.02226e-18
1.72168e-18
2.15963e-07
1.41201e-08
-1.40347e-06
-5.46933e-07
4.84531e-06
3.19537e-06
-1.17642e-05
-1.26611e-05
2.42222e-05
5.23019e-05
2.86726e-05
1.94906e-05
0.000331677
0.00119206
0.00216038
0.00213639
0.000577679
-0.00192301
-0.0029902
-0.00104409
0.00616999
0.0168762
0.0270422
0.0321207
0.0312715
0.0258776
0.0180764
0.0104634
0.00478825
0.00151161
0.000177449
1.53875e-08
1.09158e-10
1.6775e-12
7.87492e-12
1.31677e-11
7.55252e-12
1.75726e-12
-1.07625e-12
-1.24802e-12
-3.91584e-13
-3.41887e-14
1.06431e-14
3.70601e-15
6.59158e-16
1.52888e-16
3.9757e-17
1.00495e-17
2.34353e-18
5.50361e-19
5.873e-07
-3.19433e-07
-4.01792e-06
7.37759e-07
1.46117e-05
2.64091e-06
-3.75781e-05
-2.07986e-05
9.47626e-05
0.000135576
5.61111e-05
0.000359175
0.00191764
0.00466023
0.00663002
0.00557949
0.000656673
-0.00556658
-0.00704622
0.00173723
0.0235538
0.0537529
0.0812804
0.0940657
0.0906649
0.0746313
0.0520146
0.0300735
0.013743
0.00432282
0.000500377
2.03413e-08
-2.09927e-10
5.06256e-11
9.95115e-11
6.03145e-11
1.49135e-11
-6.96811e-12
-1.29574e-11
-4.78452e-12
-5.62017e-13
1.17874e-13
5.08442e-14
6.62772e-15
2.37592e-16
1.38719e-17
-1.13596e-17
-9.05074e-18
-4.64465e-18
-2.6755e-18
1.18463e-06
-1.13651e-06
-8.34324e-06
4.35063e-06
3.08465e-05
-2.84248e-06
-8.68044e-05
-7.82989e-06
0.000242332
0.000243537
0.000107012
0.00123111
0.00527182
0.0112769
0.0145749
0.0110012
-3.12285e-05
-0.0120133
-0.0123796
0.00905607
0.0568908
0.120425
0.177026
0.202353
0.194121
0.159472
0.111063
0.0641952
0.0293181
0.00920272
0.00105627
-4.45936e-09
-1.16123e-09
2.98106e-10
2.95611e-10
1.09301e-10
-3.26732e-11
-1.2179e-10
-5.17271e-11
-7.39275e-12
1.04431e-12
5.32453e-13
9.89927e-14
4.07912e-16
-8.17186e-16
-3.42244e-16
-1.23061e-16
-4.41376e-17
-1.56671e-17
-6.94044e-18
1.97799e-06
-2.55888e-06
-1.41806e-05
1.12406e-05
5.28273e-05
-1.67225e-05
-0.000157388
3.47815e-05
0.000451153
0.000376069
0.000209963
0.00273303
0.0105923
0.021184
0.0256985
0.0178321
-0.00207415
-0.0208082
-0.0182872
0.0228492
0.107934
0.218233
0.315342
0.357901
0.342512
0.281161
0.195786
0.113156
0.0516472
0.0161755
0.00183977
4.97576e-09
1.74398e-09
9.41583e-10
4.40498e-10
-2.47195e-10
-1.13497e-09
-5.27398e-10
-8.4523e-11
7.40234e-12
4.78894e-12
1.22311e-12
6.65924e-14
-8.10986e-15
-3.22153e-15
-7.42959e-16
-2.11692e-16
-6.7712e-17
-2.18602e-17
-8.47862e-18
2.84068e-06
-4.4703e-06
-2.04994e-05
2.06076e-05
7.6856e-05
-3.80335e-05
-0.000238361
0.000106558
0.000710165
0.000507903
0.000366234
0.00475056
0.0172926
0.033036
0.0381549
0.0244609
-0.0056935
-0.031059
-0.0233428
0.0421609
0.171467
0.336545
0.48096
0.543639
0.519668
0.426499
0.296996
0.171605
0.0782374
0.0244205
0.0027402
9.96132e-09
2.53426e-09
1.5017e-09
-6.25185e-09
-1.16245e-08
-5.37881e-09
-9.19187e-10
4.38635e-11
3.82442e-11
1.35812e-11
1.54021e-12
-7.35138e-14
-3.51419e-14
-6.00745e-15
-5.86872e-16
-1.43056e-16
-4.1847e-17
-1.16135e-17
-2.72022e-18
3.5908e-06
-6.41446e-06
-2.59954e-05
3.0156e-05
9.8206e-05
-6.24216e-05
-0.000309861
0.000184976
0.000956146
0.000617948
0.000560911
0.00683412
0.0237759
0.0438312
0.0485641
0.0288401
-0.0105114
-0.0407848
-0.026559
0.0630239
0.234589
0.451702
0.641206
0.723375
0.691264
0.567346
0.395014
0.228062
0.10376
0.0322123
0.00353656
1.67967e-08
-4.26746e-08
-1.25055e-07
-1.22994e-07
-5.63817e-08
-1.08585e-08
6.04788e-11
2.76442e-10
1.29716e-10
2.25953e-11
-4.04044e-13
-2.76398e-13
-7.6262e-14
-5.03619e-15
2.26309e-16
1.06715e-16
4.3805e-17
1.79868e-17
1.10975e-17
4.02933e-06
-7.73436e-06
-2.93776e-05
3.68722e-05
0.000111563
-8.10501e-05
-0.000354195
0.000239424
0.0011192
0.000701842
0.000735765
0.00828027
0.0278189
0.0498442
0.053421
0.0295691
-0.0155645
-0.0477137
-0.0276986
0.0790555
0.279924
0.533414
0.754996
0.85158
0.813975
0.668065
0.464863
0.267959
0.12149
0.0373985
0.00396826
-8.94404e-07
-1.35917e-06
-1.07949e-06
-5.27528e-07
-1.33582e-07
-6.52248e-09
1.72662e-09
1.02386e-09
2.44603e-10
9.29863e-12
-1.54518e-12
-7.47906e-13
-1.14448e-13
2.09006e-15
1.17821e-15
4.27349e-16
1.47789e-16
5.23715e-17
2.63094e-17
4.0645e-06
-7.91194e-06
-2.97629e-05
3.80987e-05
0.000113365
-8.5071e-05
-0.000361551
0.000246657
0.00114862
0.000745882
0.000838743
0.00847479
0.0278721
0.049022
0.0510177
0.0253489
-0.0195799
-0.0501924
-0.0276214
0.0839279
0.293004
0.557733
0.790332
0.892706
0.853784
0.700521
0.486756
0.279737
0.126089
0.0383099
0.0038798
-6.20293e-06
-5.96487e-06
-3.62399e-06
-1.28068e-06
-1.7652e-07
8.56198e-09
6.39399e-09
2.22701e-09
2.40937e-10
-1.19801e-11
-6.94424e-12
-1.49666e-12
-3.12416e-14
8.45409e-15
3.23913e-15
7.13064e-16
2.00575e-16
6.50985e-17
3.07289e-17
3.61071e-06
-6.55029e-06
-2.6017e-05
3.17047e-05
9.98534e-05
-6.92323e-05
-0.000317056
0.000178105
0.000995958
0.000747566
0.000863536
0.0068675
0.0219584
0.0378419
0.0383897
0.0169029
-0.020884
-0.0472398
-0.0270593
0.0729548
0.263746
0.508586
0.72639
0.823701
0.788503
0.646073
0.447235
0.255225
0.113588
0.0335501
0.00303533
-1.9446e-05
-1.71098e-05
-8.30441e-06
-2.05643e-06
-7.223e-08
2.88162e-08
1.57742e-08
3.33392e-09
3.01406e-12
-4.64723e-11
-1.68139e-11
-1.6068e-12
8.917e-14
3.98433e-14
5.87417e-15
4.41641e-16
9.96613e-17
2.83245e-17
1.33902e-17
2.68528e-06
-3.66711e-06
-1.82568e-05
1.74692e-05
7.10947e-05
-3.3265e-05
-0.000221937
4.83753e-05
0.000673162
0.000686919
0.000661342
0.00358248
0.0113909
0.0200038
0.020435
0.00715089
-0.0182221
-0.0383337
-0.0268662
0.0445953
0.18902
0.3803
0.553479
0.632257
0.605567
0.494147
0.33912
0.190779
0.082853
0.0231854
0.00165032
-5.25421e-05
-3.79541e-05
-1.34512e-05
-2.00313e-06
1.41825e-07
9.56495e-08
2.70612e-08
1.85676e-09
-2.9368e-10
-1.38347e-10
-2.28577e-11
6.7722e-13
3.70884e-13
8.49132e-14
3.16046e-15
-3.80595e-16
-1.72203e-16
-6.29411e-17
-2.55853e-17
1.52267e-06
-4.30234e-07
-8.9097e-06
1.36867e-06
3.56016e-05
7.04019e-06
-0.000109057
-7.31555e-05
0.000270156
0.000534082
0.000358122
6.10925e-05
0.00058026
0.00245739
0.00361089
-9.55038e-05
-0.0115697
-0.0260126
-0.0258805
0.0104442
0.0968824
0.218699
0.331855
0.384019
0.367327
0.296552
0.199556
0.108774
0.04472
0.0109578
0.000282703
-0.000132565
-6.40388e-05
-1.41602e-05
-2.39191e-08
4.76179e-07
2.06704e-07
2.98631e-08
-1.79326e-09
-9.50911e-10
-2.03369e-10
-1.38897e-12
1.8719e-12
8.11305e-13
1.06129e-13
-2.96089e-15
-1.48179e-15
-4.88115e-16
-1.57794e-16
-6.42892e-17
3.64175e-07
1.92267e-06
-5.93419e-07
-9.92609e-06
2.38975e-06
3.51278e-05
-8.94998e-06
-0.000132683
-6.10378e-05
0.00030836
8.26732e-05
-0.0022513
-0.00637107
-0.00875762
-0.00674025
-0.00259668
-0.00355812
-0.0130067
-0.0228731
-0.0162246
0.0178955
0.0739712
0.128342
0.153229
0.145198
0.112979
0.0711099
0.0345343
0.011178
0.000852594
-0.000632263
-0.000295979
-6.46011e-05
-9.53453e-07
2.45676e-06
1.2701e-06
2.59525e-07
-1.71973e-09
-3.81965e-09
-1.37822e-09
-1.2299e-10
9.75392e-12
5.435e-12
1.19992e-12
1.71685e-14
-9.06468e-15
-2.99884e-15
-6.47121e-16
-1.81676e-16
-7.10997e-17
-5.03898e-07
2.63999e-06
4.65819e-06
-1.29613e-05
-2.00018e-05
4.09143e-05
5.69595e-05
-0.000123734
-0.000228602
6.67725e-05
-8.47902e-05
-0.00269802
-0.00790278
-0.0114518
-0.00904571
-0.00162734
0.00266634
-0.00261683
-0.0159688
-0.0271833
-0.0279178
-0.0194174
-0.00931519
-0.00536323
-0.007464
-0.011918
-0.0145639
-0.0133966
-0.00933077
-0.00444731
-0.00144916
-0.000266769
8.51366e-06
1.11756e-05
5.8183e-06
1.4754e-06
5.56126e-08
-1.38409e-08
-6.84033e-09
-1.36468e-09
2.76602e-11
2.69766e-11
8.489e-12
6.0687e-13
-8.49865e-14
-2.89084e-14
-3.29643e-15
-2.60617e-16
-7.10082e-17
-2.7402e-17
-8.52541e-07
1.73625e-06
6.1929e-06
-8.21604e-06
-2.74463e-05
2.37135e-05
7.91108e-05
-5.26522e-05
-0.000235951
-0.000121687
-0.000125474
-0.00162486
-0.00505336
-0.00749371
-0.00569538
0.000387067
0.00537467
0.00365073
-0.00637539
-0.0221945
-0.0388642
-0.054339
-0.0675225
-0.0746662
-0.0734826
-0.0639671
-0.0480847
-0.0304184
-0.0153287
-0.00572716
-0.00124222
2.14641e-05
3.49907e-05
1.98082e-05
6.26047e-06
5.58617e-07
-7.18449e-08
-3.20124e-08
-6.86097e-09
-2.13501e-10
1.02252e-10
4.66331e-11
6.59789e-12
-8.73845e-13
-3.1014e-13
-3.36898e-14
2.00187e-15
5.80233e-16
1.40653e-16
4.7421e-17
-6.63158e-07
-9.18041e-08
4.57716e-06
1.56597e-07
-2.04421e-05
-3.98662e-06
5.7998e-05
3.54062e-05
-0.000124849
-0.000215632
-7.62129e-05
-5.60966e-05
-0.00061034
-0.00130457
-0.000846436
0.00155836
0.00480673
0.00578607
0.00209936
-0.00843869
-0.0260276
-0.0475869
-0.0664522
-0.0753109
-0.0730171
-0.0609211
-0.0429819
-0.0248728
-0.0113565
-0.00363577
-0.000408068
6.62588e-05
4.34701e-05
1.6723e-05
2.74888e-06
-3.83048e-07
-1.66401e-07
-2.96927e-08
1.2249e-09
6.88351e-10
2.27907e-10
3.52659e-11
-6.74332e-12
-2.66443e-12
-3.34596e-13
2.52573e-14
7.71677e-15
1.03e-15
2.12117e-16
7.67251e-17
-1.97797e-07
-1.64942e-06
1.52524e-06
6.8835e-06
-6.49916e-06
-2.5197e-05
1.65663e-05
8.57537e-05
9.70084e-06
-0.000191731
-6.46389e-05
0.00083339
0.00206872
0.00240709
0.00161924
0.000972941
0.00203127
0.00477878
0.00615247
0.00283067
-0.0069114
-0.0208267
-0.0329595
-0.0376724
-0.0349974
-0.0270551
-0.0171171
-0.00856324
-0.00307133
-0.000474938
0.000196762
9.15752e-05
2.00161e-05
-7.49878e-08
-1.87155e-06
-7.43549e-07
-1.14873e-07
1.51803e-08
6.99266e-09
1.46302e-09
7.3131e-11
-4.25286e-11
-1.79945e-11
-2.71491e-12
2.10557e-13
7.71645e-14
8.80844e-15
1.47074e-17
1.85563e-17
1.55774e-17
1.07656e-07
-2.172e-06
-8.67274e-07
9.28483e-06
3.80306e-06
-3.00244e-05
-1.65576e-05
8.42474e-05
8.73928e-05
-0.000102361
-8.36459e-05
0.000756908
0.00209417
0.00246301
0.00135317
-0.000365131
-0.000325778
0.00212883
0.00533466
0.00608762
0.00439538
0.00168485
0.000672655
0.00206896
0.00427661
0.00598009
0.00617163
0.00490023
0.00305665
0.00140269
0.000386556
3.37549e-05
-1.90982e-05
-1.11334e-05
-3.42007e-06
-4.40349e-07
6.67903e-08
3.44659e-08
8.99581e-09
5.79516e-10
-1.79288e-10
-8.89524e-11
-1.7287e-11
7.84633e-13
4.52323e-13
8.23038e-14
-1.90793e-15
-8.07962e-16
-2.36664e-16
-8.4865e-17
1.28503e-07
-1.70467e-06
-1.54211e-06
7.57125e-06
6.51861e-06
-2.27525e-05
-2.57853e-05
4.79596e-05
8.94459e-05
-2.12646e-05
-0.000130326
6.79069e-05
0.000436767
0.000371566
-0.000383546
-0.00118269
-0.00111906
-0.000171407
0.00116323
0.00277715
0.00563139
0.0107029
0.0172441
0.0222713
0.0235894
0.021046
0.0157119
0.00962161
0.00462591
0.00155229
0.000229382
-4.34306e-05
-2.91744e-05
-1.17996e-05
-2.54832e-06
7.54171e-08
8.22646e-08
3.27256e-08
4.80355e-09
-5.76794e-10
-3.11249e-10
-6.97524e-11
1.29777e-12
1.5113e-12
4.4553e-13
1.39531e-14
-3.63733e-15
-1.37404e-15
-3.74727e-16
-1.4214e-16
1.22527e-08
-7.94032e-07
-6.86331e-07
3.71754e-06
3.26111e-06
-1.0895e-05
-1.56048e-05
1.48494e-05
4.4048e-05
6.17309e-06
-0.000146282
-0.00045797
-0.000933074
-0.00137463
-0.00137017
-0.000929151
-0.000579341
-0.00110698
-0.00226902
-0.002046
0.00154424
0.00892651
0.0172001
0.0225134
0.0227063
0.0190379
0.013016
0.00710255
0.00286927
0.000663098
-4.00793e-05
-4.02635e-05
-2.25319e-05
-7.03422e-06
-4.90404e-07
2.32473e-07
1.17423e-07
2.42694e-08
-8.90489e-10
-7.81487e-10
-2.32142e-10
-4.14303e-12
5.5612e-12
2.13639e-12
1.60652e-13
-1.90137e-14
-7.42846e-15
-1.41007e-15
-3.19297e-16
-1.23906e-16
-7.48359e-08
-1.48784e-07
4.53807e-07
8.19616e-07
-1.42901e-06
-2.98685e-06
2.34792e-07
2.72481e-06
-1.86181e-06
-1.06783e-05
-0.000108253
-0.000477764
-0.0011025
-0.00149516
-0.00118129
-0.000160566
0.000278257
-0.000814621
-0.00292487
-0.00379098
-0.00180836
0.0027727
0.00796751
0.0106066
0.010175
0.00765384
0.00443005
0.00178911
0.000294796
-0.000226581
-0.000117872
-4.4162e-05
-1.09011e-05
-4.67504e-07
9.36437e-07
4.8588e-07
1.15287e-07
-2.38048e-09
-2.80916e-09
-9.603e-10
-7.08294e-11
2.01177e-11
9.93095e-12
1.4308e-12
-9.37974e-14
-3.92663e-14
-6.56667e-15
-5.47766e-16
-1.26777e-16
-5.18507e-17
-9.91706e-08
3.79518e-08
8.54568e-07
-7.76801e-08
-3.30011e-06
-7.79759e-07
8.17891e-06
4.70245e-06
-1.86109e-05
-3.04542e-05
-4.21138e-05
-0.000169422
-0.000440353
-0.000580163
-0.000269751
0.000342828
0.000567833
-6.82605e-05
-0.00133445
-0.00222955
-0.00214089
-0.00139353
-0.000779449
-0.00103016
-0.0015311
-0.00200153
-0.0020649
-0.00166253
-0.00102363
-0.000442176
-0.000131866
-1.50384e-05
8.54354e-06
4.60898e-06
1.36603e-06
2.02361e-07
-4.90395e-08
-2.12956e-08
-4.10749e-09
-1.12662e-10
6.7475e-11
2.97416e-11
5.74909e-12
-3.64903e-13
-1.68453e-13
-2.89492e-14
1.70302e-16
1.2615e-16
4.79224e-17
2.42514e-17
-4.92996e-08
-1.23468e-08
4.86254e-07
9.59463e-08
-2.02587e-06
-9.08232e-07
6.05555e-06
6.60737e-06
-1.05373e-05
-2.37242e-05
1.35215e-06
7.38651e-05
0.000175417
0.000241537
0.000248332
0.000252312
0.000251453
0.000338936
0.000465994
0.000271443
-0.000584521
-0.00223927
-0.00420332
-0.00552794
-0.00577672
-0.00502479
-0.00359886
-0.00208079
-0.000922828
-0.000275023
-2.8652e-05
2.60206e-05
1.59621e-05
5.01681e-06
4.60436e-07
-2.351e-07
-1.14991e-07
-2.33336e-08
7.61894e-10
5.15077e-10
1.15281e-10
5.53669e-12
-3.18097e-12
-1.19711e-12
-1.46834e-13
9.94286e-15
2.80792e-15
5.30561e-16
1.50457e-16
7.16554e-17
2.75481e-08
-6.08987e-08
-8.25916e-08
2.18321e-07
3.23566e-07
-5.36158e-07
-6.62408e-07
2.37475e-06
4.74768e-06
-1.63405e-06
7.78637e-06
9.73464e-05
0.000270076
0.000362721
0.000247924
-6.56716e-05
-0.000161359
0.000244657
0.000976871
0.00129822
0.000614638
-0.00104685
-0.00288633
-0.0039231
-0.00383308
-0.00296433
-0.00179029
-0.000787447
-0.000204862
1.71992e-05
5.15932e-05
2.96788e-05
9.03447e-06
1.0289e-06
-5.92702e-07
-3.09948e-07
-6.71533e-08
3.38068e-09
2.15332e-09
5.81931e-10
2.67324e-11
-1.17446e-11
-5.63511e-12
-9.52665e-13
5.13582e-14
1.96538e-14
2.96677e-15
4.50429e-16
1.47084e-16
7.73034e-17
4.01366e-08
-3.49025e-09
-3.13915e-07
-3.73159e-08
1.31781e-06
4.05541e-07
-3.71954e-06
-2.60667e-06
7.89515e-06
1.14207e-05
1.74872e-06
9.89742e-06
6.1496e-05
0.000102892
1.65973e-05
-0.000177077
-0.000255371
-3.82883e-05
0.000415757
0.000741077
0.000664351
0.000277521
-0.000130983
-0.000196737
-2.11567e-05
0.000231562
0.000398237
0.000388827
0.00026865
0.000138759
5.13295e-05
8.88203e-06
-2.36917e-06
-1.66809e-06
-6.74477e-07
-1.27644e-07
2.10147e-08
9.92351e-09
1.90645e-09
-7.50165e-11
-4.36947e-11
-1.56459e-11
-3.3046e-12
1.06033e-13
6.21906e-14
1.63156e-14
1.56887e-15
1.72145e-16
6.28193e-17
4.15213e-17
9.19753e-09
6.32106e-08
-1.70306e-07
-2.47919e-07
6.25968e-07
9.05902e-07
-1.63155e-06
-3.73485e-06
1.24807e-06
9.62185e-06
7.94877e-07
-3.56288e-05
-7.62331e-05
-8.57251e-05
-6.2763e-05
-4.33958e-05
-7.10199e-05
-0.000148383
-0.000223738
-0.000171258
0.000119115
0.000644462
0.00125612
0.00165512
0.00171946
0.00148799
0.00105721
0.000605399
0.000269631
7.99771e-05
6.87988e-06
-9.57664e-06
-5.81317e-06
-1.85289e-06
-1.95913e-07
1.02507e-07
4.72705e-08
8.31912e-09
-7.41296e-10
-3.55135e-10
-7.28277e-11
-3.73168e-12
1.75442e-12
6.23068e-13
7.30925e-14
-1.17449e-15
-6.9077e-16
-2.13e-16
-5.59734e-17
-1.04016e-17
-7.7989e-09
4.28585e-08
9.02324e-08
-2.21184e-07
-4.06907e-07
6.20055e-07
1.31975e-06
-1.40725e-06
-3.84733e-06
-3.84661e-07
4.16877e-06
-9.68269e-06
-4.74553e-05
-6.54686e-05
-1.55002e-05
7.90568e-05
9.6705e-05
-5.58619e-05
-0.000316955
-0.00042943
-0.000221888
0.000296414
0.000857802
0.00115711
0.00111728
0.000842747
0.000487513
0.000200077
3.91251e-05
-1.88203e-05
-1.92615e-05
-1.01512e-05
-3.01214e-06
-3.19857e-07
2.42568e-07
1.28955e-07
2.77579e-08
-1.90596e-09
-1.23163e-09
-3.36983e-10
-1.78708e-11
6.94225e-12
3.44e-12
6.61721e-13
-2.36913e-14
-1.22329e-14
-2.32621e-15
-4.13588e-16
-1.08427e-16
-3.35262e-17
-1.6159e-08
-1.07802e-09
1.27021e-07
-1.03931e-09
-5.06194e-07
-1.34923e-07
1.50975e-06
1.28818e-06
-3.05624e-06
-4.74533e-06
4.85479e-06
1.90172e-05
2.13972e-05
1.59141e-05
2.84458e-05
7.11405e-05
9.54613e-05
5.21512e-05
-5.33622e-05
-0.000149525
-0.000169718
-0.00013357
-8.71603e-05
-0.000114253
-0.000159911
-0.000201303
-0.000202562
-0.000159356
-9.82941e-05
-4.5115e-05
-1.44338e-05
-1.91381e-06
1.19415e-06
7.26838e-07
2.65826e-07
4.60333e-08
-9.89448e-09
-4.61778e-09
-8.98876e-10
1.20024e-11
2.04896e-11
8.94089e-12
1.84566e-12
-1.03649e-13
-5.10918e-14
-1.14245e-14
-1.27935e-15
-1.82009e-16
-4.10931e-17
-8.30256e-18
-2.59717e-09
-2.79837e-08
1.26373e-08
1.40962e-07
-2.01761e-08
-4.99926e-07
-9.91255e-09
1.52386e-06
7.03938e-07
-2.2133e-06
-4.13283e-07
1.21135e-05
2.76455e-05
2.84767e-05
9.7924e-06
-1.27527e-05
-2.64851e-06
5.46723e-05
0.000120637
0.000119944
6.57439e-06
-0.000207832
-0.000444399
-0.000581759
-0.000579781
-0.000481316
-0.000325522
-0.000176123
-7.09923e-05
-1.63508e-05
1.55878e-06
3.37875e-06
1.95168e-06
6.65234e-07
8.1262e-08
-3.94579e-08
-1.9643e-08
-4.00835e-09
1.67097e-10
1.17365e-10
3.22504e-11
2.45473e-12
-9.68156e-13
-4.09729e-13
-6.65262e-14
2.6308e-15
8.79119e-16
2.46465e-16
7.89377e-17
3.61758e-17
7.61191e-09
-2.11285e-08
-5.78857e-08
1.02403e-07
2.21095e-07
-2.26766e-07
-7.56567e-07
1.44205e-07
1.9708e-06
1.10637e-06
-4.15126e-06
-8.05748e-06
-4.85197e-06
-2.96103e-06
-1.67631e-05
-4.38762e-05
-4.80743e-05
-3.09921e-06
7.55495e-05
0.000118144
7.54833e-05
-4.74228e-05
-0.000176973
-0.000235391
-0.000216129
-0.000147777
-7.05625e-05
-1.53793e-05
9.19016e-06
1.21717e-05
6.81385e-06
2.44977e-06
5.33628e-07
-4.121e-08
-8.28723e-08
-4.09679e-08
-9.37202e-09
4.69836e-10
2.84144e-10
8.96551e-11
1.07321e-11
-2.41324e-12
-1.10642e-12
-2.17334e-13
1.23127e-14
5.30814e-15
1.32479e-15
3.67585e-16
1.18136e-16
5.19402e-17
2.80588e-09
6.11087e-09
-2.42104e-08
-3.67122e-08
1.07905e-07
1.54624e-07
-3.25917e-07
-6.71713e-07
5.13736e-07
1.47471e-06
-2.01337e-06
-1.00275e-05
-1.58614e-05
-1.49206e-05
-1.11163e-05
-1.14101e-05
-1.98839e-05
-2.86148e-05
-2.6009e-05
-5.35196e-06
2.96865e-05
7.51085e-05
0.000123426
0.000156681
0.000164396
0.000147539
0.000112617
7.07712e-05
3.53978e-05
1.29715e-05
2.44649e-06
-5.21861e-07
-5.67428e-07
-2.92038e-07
-7.74293e-08
-5.22607e-09
4.27165e-09
1.82866e-09
3.24748e-10
-2.86998e-11
-1.4156e-11
-2.88967e-12
-1.44742e-13
9.00995e-14
3.17379e-14
4.52313e-15
4.9023e-16
1.62839e-16
6.06815e-17
3.03397e-17
-1.68791e-09
1.63312e-08
1.52478e-08
-6.89409e-08
-6.37761e-08
1.89102e-07
2.39035e-07
-3.48535e-07
-7.8928e-07
6.39688e-08
1.5828e-06
1.07074e-06
-1.69295e-06
-1.5118e-06
6.85728e-06
1.74478e-05
1.48373e-05
-9.32311e-06
-4.19762e-05
-5.1085e-05
-1.75111e-05
5.39739e-05
0.000128017
0.000166882
0.000162762
0.000127411
7.83984e-05
3.67658e-05
1.12411e-05
3.93114e-07
-2.10708e-06
-1.31704e-06
-4.74791e-07
-8.24323e-08
2.4594e-08
1.44542e-08
4.16944e-09
6.03816e-10
-1.39792e-10
-6.88125e-11
-1.58929e-11
2.28245e-13
3.33293e-13
9.48449e-14
6.20352e-15
-6.8498e-16
-1.73549e-16
-3.47806e-17
-4.56354e-18
2.61135e-18
-1.39165e-09
1.72773e-09
1.57936e-08
-8.45951e-09
-7.45219e-08
3.63474e-09
2.56877e-07
1.53449e-07
-5.84935e-07
-5.68801e-07
1.78232e-06
5.61693e-06
7.72449e-06
7.63687e-06
8.15939e-06
1.16731e-05
1.45651e-05
1.03835e-05
-1.74055e-06
-1.44365e-05
-1.91579e-05
-1.50362e-05
-8.6888e-06
-1.05329e-05
-1.51773e-05
-1.99788e-05
-2.10411e-05
-1.73798e-05
-1.10396e-05
-5.39407e-06
-1.89915e-06
-3.24309e-07
1.22483e-07
9.62205e-08
4.04402e-08
8.41725e-09
-1.0716e-09
-7.25612e-10
-2.13648e-10
-3.26995e-11
5.17188e-12
2.11746e-12
3.66766e-13
-1.49366e-14
-6.15342e-15
-1.32204e-15
-3.33707e-16
-1.01021e-16
-3.09005e-17
-1.04156e-17
-4.70932e-10
-6.80967e-09
-1.08055e-09
2.94467e-08
1.05823e-08
-8.53004e-08
-4.63042e-08
2.07443e-07
2.2094e-07
-2.02797e-07
-2.07283e-07
1.15025e-06
2.85672e-06
2.28335e-06
-1.60789e-06
-4.91157e-06
-2.24937e-06
7.48578e-06
1.73288e-05
1.66008e-05
3.89081e-07
-2.81442e-05
-5.76911e-05
-7.34603e-05
-7.24039e-05
-5.9267e-05
-3.98147e-05
-2.15032e-05
-8.85961e-06
-2.00044e-06
2.44338e-07
3.98214e-07
2.18628e-07
6.70093e-08
6.97956e-09
-4.73409e-09
-2.28151e-09
-5.48521e-10
-2.3708e-12
2.01035e-11
7.33723e-12
1.18808e-12
-1.37118e-13
-5.55548e-14
-9.97224e-15
-5.85066e-16
-1.10224e-16
-3.99276e-17
-1.4124e-17
-5.2061e-18
8.60428e-10
-2.79494e-09
-7.20064e-09
1.44537e-08
3.44557e-08
-3.53645e-08
-1.26957e-07
4.43942e-09
3.25867e-07
1.72238e-07
-9.3917e-07
-2.38692e-06
-3.0679e-06
-3.30004e-06
-4.36931e-06
-6.42497e-06
-6.69913e-06
-2.53163e-06
5.02906e-06
1.00928e-05
7.72825e-06
-1.73591e-06
-1.17223e-05
-1.60752e-05
-1.41978e-05
-8.65991e-06
-2.81733e-06
8.98579e-07
2.09627e-06
1.60945e-06
7.69361e-07
1.93622e-07
1.5879e-09
-2.61008e-08
-1.31631e-08
-3.21472e-09
-3.24457e-10
2.08928e-10
9.93688e-11
2.02382e-11
-1.47635e-12
-9.57974e-13
-2.13161e-13
-9.16057e-15
2.23615e-15
6.64099e-16
1.65996e-16
4.45062e-17
1.2718e-17
5.4875e-18
4.04157e-10
2.29504e-09
-1.64078e-09
-1.00044e-08
2.8257e-09
2.87812e-08
-8.24497e-09
-8.21751e-08
-2.69461e-08
1.16721e-07
-1.5193e-07
-1.09834e-06
-1.9188e-06
-1.59186e-06
-1.53734e-07
6.25698e-07
-7.18043e-07
-3.83829e-06
-5.9652e-06
-4.30513e-06
1.98488e-06
1.16652e-05
2.11675e-05
2.63032e-05
2.60845e-05
2.20816e-05
1.56548e-05
9.10925e-06
4.15586e-06
1.35627e-06
1.67845e-07
-1.19667e-07
-8.05168e-08
-3.09713e-08
-6.2446e-09
9.14813e-10
6.29673e-10
1.94732e-10
2.82268e-11
-5.74887e-12
-2.27554e-12
-4.14435e-13
2.24116e-14
1.08354e-14
2.69176e-15
6.41137e-16
1.93607e-16
6.41624e-17
2.19529e-17
1.03461e-17
-3.87898e-10
1.71915e-09
2.87009e-09
-8.77018e-09
-1.33739e-08
2.4043e-08
5.36846e-08
-2.72158e-08
-1.47132e-07
-4.34598e-08
3.87763e-07
8.45117e-07
1.02736e-06
1.20966e-06
1.91834e-06
2.82135e-06
2.59871e-06
3.09479e-07
-3.11836e-06
-4.71042e-06
-2.43677e-06
3.09918e-06
8.95072e-06
1.18256e-05
1.12137e-05
8.23506e-06
4.60017e-06
1.73304e-06
1.73372e-07
-3.09049e-07
-2.3173e-07
-1.07109e-07
-2.80684e-08
-4.1873e-10
3.3632e-09
1.48082e-09
2.90548e-10
-3.32503e-11
-2.35646e-11
-7.14008e-12
-9.79972e-13
2.20691e-13
9.03188e-14
1.55073e-14
3.0797e-16
7.41532e-17
5.09715e-17
2.69131e-17
1.24895e-17
7.63075e-18
-1.99452e-10
-5.72333e-10
1.17128e-09
2.49367e-09
-3.50765e-09
-7.0551e-09
1.06253e-08
2.68295e-08
-1.42487e-08
-4.60277e-08
1.43127e-07
5.97814e-07
9.56795e-07
8.5487e-07
3.9054e-07
2.32137e-07
7.45664e-07
1.59306e-06
1.82606e-06
8.75717e-07
-1.35789e-06
-4.2168e-06
-6.7944e-06
-8.26193e-06
-8.26132e-06
-7.15344e-06
-5.27557e-06
-3.24715e-06
-1.61132e-06
-5.9229e-07
-1.12146e-07
2.65161e-08
2.49153e-08
1.2632e-08
3.36431e-09
2.09021e-10
-1.83518e-10
-8.87462e-11
-1.80767e-11
1.49488e-12
9.1763e-13
1.90713e-13
2.30032e-15
-3.06647e-15
-8.25828e-16
-1.79709e-16
-3.68053e-17
-3.91248e-18
2.03244e-18
3.20005e-18
1.34137e-10
-8.04483e-10
-1.01882e-09
3.98748e-09
4.77033e-09
-1.16613e-08
-1.95701e-08
1.6852e-08
5.78831e-08
9.93297e-09
-1.40032e-07
-2.65706e-07
-3.16419e-07
-4.12183e-07
-7.51116e-07
-1.09136e-06
-9.03344e-07
9.6706e-08
1.42159e-06
1.80577e-06
6.6222e-07
-1.76875e-06
-4.37107e-06
-5.65996e-06
-5.43641e-06
-4.19872e-06
-2.57436e-06
-1.19956e-06
-3.55002e-07
-2.50444e-09
7.59684e-08
4.48083e-08
1.64728e-08
3.04134e-09
-8.6021e-10
-4.91976e-10
-1.37462e-10
-1.47091e-11
6.63624e-12
2.34838e-12
3.90197e-13
-3.44423e-14
-1.3987e-14
-3.00068e-15
-6.39742e-16
-1.79071e-16
-5.11484e-17
-1.28815e-17
-2.23723e-18
6.96233e-19
1.05497e-10
1.30183e-10
-5.30809e-10
-5.26423e-10
1.73983e-09
1.71204e-09
-6.0756e-09
-7.76641e-09
1.22491e-08
1.56248e-08
-7.32732e-08
-2.59629e-07
-3.91895e-07
-3.68027e-07
-2.2849e-07
-1.99328e-07
-3.69637e-07
-5.79824e-07
-5.35575e-07
-1.21749e-07
6.03254e-07
1.39227e-06
2.05801e-06
2.45461e-06
2.45218e-06
2.15783e-06
1.64537e-06
1.05568e-06
5.5233e-07
2.16758e-07
4.54392e-08
-3.99232e-09
-8.05132e-09
-4.52122e-09
-1.28701e-09
-1.83663e-10
5.36928e-11
3.06006e-11
7.41929e-12
4.38703e-14
-2.44526e-13
-9.19214e-14
-1.60063e-14
-3.20457e-16
-2.8255e-17
-2.0722e-17
-9.3034e-18
-2.72189e-18
-2.59767e-19
6.65337e-19
-5.64492e-11
3.13038e-10
2.92302e-10
-1.57273e-09
-1.50395e-09
4.32289e-09
6.44973e-09
-6.88697e-09
-2.0817e-08
-2.48482e-09
4.57904e-08
8.02392e-08
9.53748e-08
1.37896e-07
2.68323e-07
3.79304e-07
2.90768e-07
-8.05441e-08
-5.31057e-07
-6.24173e-07
-1.72957e-07
7.47591e-07
1.71476e-06
2.18802e-06
2.12606e-06
1.68236e-06
1.06622e-06
5.30118e-07
1.84207e-07
2.42653e-08
-2.26591e-08
-1.47598e-08
-5.82116e-09
-1.15322e-09
2.81472e-10
1.81069e-10
5.5059e-11
6.82806e-12
-2.30305e-12
-9.01529e-13
-1.76975e-13
9.19413e-15
4.64304e-15
9.81201e-16
2.32108e-16
6.38332e-17
1.83792e-17
5.68895e-18
1.99544e-18
1.14306e-18
-2.23327e-11
-3.59501e-11
1.93272e-10
1.14409e-10
-7.55046e-10
-3.46353e-10
2.37135e-09
2.07706e-09
-5.0021e-09
-4.62983e-09
2.84117e-08
9.36483e-08
1.40085e-07
1.33388e-07
9.2847e-08
8.89026e-08
1.4175e-07
1.96539e-07
1.60201e-07
8.06952e-09
-2.1784e-07
-4.46031e-07
-6.27354e-07
-7.22397e-07
-7.18065e-07
-6.3649e-07
-4.9334e-07
-3.24334e-07
-1.74139e-07
-6.99916e-08
-1.51319e-08
5.94195e-10
2.43356e-09
1.39204e-09
4.06252e-10
5.98393e-11
-1.82748e-11
-1.05395e-11
-2.49712e-12
2.22014e-14
8.20953e-14
2.71109e-14
4.05771e-15
4.22228e-16
1.19318e-16
4.0194e-17
1.38538e-17
4.88357e-18
1.7842e-18
9.38247e-19
2.19076e-11
-9.30357e-11
-1.07158e-10
4.94515e-10
5.07516e-10
-1.43612e-09
-2.08228e-09
2.31308e-09
6.79747e-09
8.05081e-10
-1.41967e-08
-2.4294e-08
-2.95813e-08
-4.43327e-08
-8.70543e-08
-1.20852e-07
-8.95762e-08
2.87897e-08
1.6914e-07
1.92492e-07
4.23751e-08
-2.53542e-07
-5.55577e-07
-7.06507e-07
-6.87809e-07
-5.49115e-07
-3.54201e-07
-1.80003e-07
-6.5956e-08
-1.11251e-08
6.11011e-09
4.11309e-09
1.62887e-09
3.26791e-10
-8.3868e-11
-5.43285e-11
-1.70089e-11
-2.40697e-12
6.77302e-13
2.96694e-13
5.85027e-14
-6.01052e-16
-8.227e-16
-2.35051e-16
-5.77142e-17
-1.31037e-17
-2.44574e-18
-1.51619e-19
1.99786e-19
2.58081e-19
2.31005e-12
-2.44595e-12
-5.34416e-11
-2.60346e-11
2.18602e-10
1.30312e-10
-6.76478e-10
-6.17181e-10
1.32144e-09
1.1141e-09
-8.64526e-09
-2.80446e-08
-4.16183e-08
-3.96555e-08
-2.70016e-08
-2.51944e-08
-3.96714e-08
-5.52647e-08
-4.5844e-08
-3.6416e-09
6.30997e-08
1.31395e-07
1.84385e-07
2.10006e-07
2.07883e-07
1.8331e-07
1.41055e-07
9.23522e-08
4.96685e-08
2.01626e-08
4.60843e-09
9.53036e-11
-6.15238e-10
-3.76633e-10
-1.25004e-10
-2.15088e-11
4.46408e-12
2.6647e-12
7.14269e-13
8.24052e-14
-2.06966e-14
-7.83098e-15
-1.59614e-15
-3.97579e-16
-1.24311e-16
-3.94009e-17
-1.20844e-17
-3.513e-18
-9.44582e-19
-2.52667e-19
-4.60559e-12
3.29882e-11
3.63243e-11
-1.26411e-10
-1.3953e-10
3.55597e-10
5.73334e-10
-6.0255e-10
-1.86605e-09
-3.07795e-10
3.90578e-09
7.09565e-09
8.70069e-09
1.26233e-08
2.27704e-08
3.12292e-08
2.34461e-08
-6.88012e-09
-4.27108e-08
-4.8807e-08
-1.15138e-08
6.27737e-08
1.39218e-07
1.77849e-07
1.72576e-07
1.36764e-07
8.81945e-08
4.54155e-08
1.74201e-08
3.45194e-09
-1.33327e-09
-1.01295e-09
-5.03969e-10
-1.50102e-10
-1.06054e-11
1.26313e-11
6.109e-12
1.43733e-12
-3.42041e-14
-4.67591e-14
-1.54024e-14
-3.01992e-15
-7.10855e-16
-2.47311e-16
-8.95135e-17
-3.139e-17
-1.05027e-17
-3.32864e-18
-9.93418e-19
-3.35035e-19
1.39765e-12
-1.45879e-12
7.8652e-12
5.1796e-12
-4.0978e-11
-1.71273e-11
1.38414e-10
1.35912e-10
-1.81484e-10
-1.07161e-10
1.76043e-09
5.56738e-09
8.26388e-09