/*--------------------------------*- C++ -*----------------------------------*\
| =========                 |                                                 |
| \\      /  F ield         | OpenFOAM: The Open Source CFD Toolbox           |
|  \\    /   O peration     | Version:  v2006                                 |
|   \\  /    A nd           | Website:  www.openfoam.com                      |
|    \\/     M anipulation  |                                                 |
\*---------------------------------------------------------------------------*/
FoamFile
{
    version     2.0;
    format      ascii;
    class       volScalarField;
    location    "9.1";
    object      p_rgh;
}
// * * * * * * * * * * * * * * * * * * * * * * * * * * * * * * * * * * * * * //

dimensions      [1 -1 -2 0 0 0 0];


internalField   nonuniform List<scalar> 
50000
(
2526.16
2526.49
2527.11
2528.06
2529.31
2530.88
2532.76
2534.95
2537.44
2540.23
2543.32
2546.71
2550.39
2554.35
2558.6
2563.12
2567.91
2572.96
2578.27
2583.83
2589.63
2595.67
2601.93
2608.41
2615.1
2621.98
2629.06
2636.32
2643.74
2651.33
2659.06
2666.93
2674.92
2683.03
2691.24
2699.54
2707.91
2716.35
2724.85
2733.38
2741.95
2750.53
2759.11
2767.68
2776.23
2784.75
2793.22
2801.63
2809.98
2818.24
2826.41
2834.47
2842.42
2850.24
2857.93
2865.46
2872.85
2880.06
2887.1
2893.96
2900.62
2907.08
2913.34
2919.37
2925.19
2930.78
2936.13
2941.24
2946.1
2950.72
2955.08
2959.19
2963.03
2966.61
2969.93
2972.98
2975.76
2978.28
2980.52
2982.5
2984.22
2985.67
2986.85
2987.78
2988.45
2988.86
2989.03
2988.95
2988.63
2988.08
2987.29
2986.29
2985.06
2983.63
2981.99
2980.16
2978.14
2975.95
2973.58
2971.05
2968.37
2965.55
2962.59
2959.5
2956.3
2952.99
2949.59
2946.11
2942.55
2938.92
2935.24
2931.51
2927.74
2923.95
2920.16
2916.36
2912.57
2908.8
2905.05
2901.33
2897.65
2894.01
2890.44
2886.92
2883.48
2880.12
2876.84
2873.65
2870.56
2867.57
2864.69
2861.93
2859.28
2856.76
2854.37
2852.11
2849.98
2847.99
2846.15
2844.45
2842.9
2841.5
2840.25
2839.15
2838.2
2837.42
2836.79
2836.32
2836
2835.83
2525.54
2525.87
2526.49
2527.44
2528.7
2530.27
2532.15
2534.35
2536.84
2539.65
2542.75
2546.14
2549.83
2553.81
2558.06
2562.6
2567.4
2572.47
2577.79
2583.37
2589.19
2595.24
2601.52
2608.02
2614.73
2621.63
2628.73
2636
2643.45
2651.05
2658.8
2666.69
2674.7
2682.83
2691.06
2699.38
2707.78
2716.24
2724.76
2733.32
2741.9
2750.51
2759.11
2767.71
2776.28
2784.82
2793.32
2801.76
2810.12
2818.41
2826.6
2834.68
2842.65
2850.49
2858.2
2865.75
2873.15
2880.39
2887.44
2894.32
2900.99
2907.47
2913.74
2919.79
2925.62
2931.22
2936.58
2941.7
2946.57
2951.2
2955.57
2959.68
2963.53
2967.11
2970.43
2973.48
2976.27
2978.78
2981.03
2983.01
2984.72
2986.16
2987.34
2988.26
2988.93
2989.33
2989.49
2989.4
2989.07
2988.51
2987.71
2986.7
2985.46
2984.01
2982.36
2980.52
2978.49
2976.27
2973.89
2971.34
2968.64
2965.78
2962.8
2959.68
2956.45
2953.11
2949.69
2946.19
2942.61
2938.97
2935.27
2931.54
2927.77
2923.98
2920.18
2916.37
2912.56
2908.77
2905
2901.26
2897.56
2893.91
2890.32
2886.79
2883.33
2879.95
2876.65
2873.45
2870.34
2867.34
2864.45
2861.68
2859.02
2856.49
2854.08
2851.81
2849.68
2847.68
2845.83
2844.12
2842.56
2841.15
2839.9
2838.79
2837.85
2837.06
2836.42
2835.95
2835.63
2835.47
2524.31
2524.65
2525.28
2526.23
2527.49
2529.07
2530.96
2533.17
2535.68
2538.49
2541.61
2545.02
2548.73
2552.73
2557.01
2561.56
2566.39
2571.49
2576.84
2582.45
2588.3
2594.38
2600.7
2607.23
2613.98
2620.92
2628.06
2635.38
2642.86
2650.5
2658.3
2666.23
2674.29
2682.46
2690.73
2699.1
2707.54
2716.05
2724.61
2733.22
2741.85
2750.5
2759.14
2767.78
2776.4
2784.99
2793.52
2802
2810.41
2818.74
2826.97
2835.09
2843.1
2850.98
2858.73
2866.32
2873.76
2881.02
2888.11
2895.02
2901.73
2908.23
2914.53
2920.6
2926.46
2932.08
2937.46
2942.6
2947.49
2952.13
2956.51
2960.63
2964.49
2968.09
2971.41
2974.47
2977.26
2979.77
2982.02
2983.99
2985.7
2987.14
2988.31
2989.22
2989.87
2990.26
2990.4
2990.3
2989.95
2989.36
2988.55
2987.5
2986.24
2984.77
2983.09
2981.21
2979.15
2976.91
2974.49
2971.91
2969.18
2966.3
2963.29
2960.15
2956.91
2953.54
2950.09
2946.54
2942.92
2939.24
2935.5
2931.72
2927.91
2924.07
2920.22
2916.37
2912.52
2908.69
2904.88
2901.11
2897.38
2893.69
2890.06
2886.5
2883.01
2879.6
2876.28
2873.05
2869.92
2866.9
2863.98
2861.18
2858.51
2855.96
2853.53
2851.25
2849.1
2847.09
2845.22
2843.5
2841.93
2840.51
2839.25
2838.14
2837.18
2836.39
2835.75
2835.28
2834.95
2834.79
2522.48
2522.82
2523.45
2524.41
2525.68
2527.27
2529.18
2531.4
2533.93
2536.76
2539.9
2543.34
2547.08
2551.1
2555.42
2560.01
2564.87
2570.01
2575.41
2581.06
2586.95
2593.09
2599.45
2606.04
2612.84
2619.84
2627.03
2634.4
2641.95
2649.66
2657.52
2665.51
2673.64
2681.87
2690.22
2698.65
2707.16
2715.74
2724.37
2733.04
2741.74
2750.46
2759.18
2767.89
2776.57
2785.23
2793.83
2802.37
2810.85
2819.24
2827.53
2835.72
2843.79
2851.73
2859.53
2867.18
2874.67
2881.98
2889.12
2896.08
2902.83
2909.38
2915.71
2921.83
2927.72
2933.37
2938.78
2943.95
2948.87
2953.53
2957.93
2962.08
2965.95
2969.56
2972.89
2975.96
2978.75
2981.26
2983.51
2985.48
2987.18
2988.61
2989.77
2990.66
2991.29
2991.67
2991.78
2991.65
2991.28
2990.66
2989.81
2988.73
2987.43
2985.91
2984.19
2982.27
2980.16
2977.87
2975.4
2972.77
2969.99
2967.05
2963.98
2960.78
2957.47
2954.06
2950.54
2946.94
2943.26
2939.53
2935.73
2931.9
2928.03
2924.14
2920.24
2916.33
2912.43
2908.54
2904.68
2900.86
2897.07
2893.34
2889.66
2886.06
2882.52
2879.07
2875.71
2872.44
2869.27
2866.22
2863.27
2860.44
2857.73
2855.16
2852.71
2850.4
2848.23
2846.2
2844.31
2842.58
2841
2839.56
2838.29
2837.17
2836.21
2835.41
2834.76
2834.29
2833.96
2833.79
2520.02
2520.36
2521
2521.97
2523.25
2524.86
2526.79
2529.03
2531.58
2534.44
2537.61
2541.09
2544.86
2548.93
2553.28
2557.92
2562.84
2568.03
2573.48
2579.19
2585.15
2591.35
2597.78
2604.44
2611.31
2618.38
2625.65
2633.11
2640.74
2648.53
2656.47
2664.56
2672.77
2681.1
2689.53
2698.05
2706.65
2715.32
2724.05
2732.81
2741.61
2750.41
2759.23
2768.03
2776.8
2785.55
2794.24
2802.87
2811.43
2819.91
2828.29
2836.55
2844.7
2852.72
2860.6
2868.32
2875.88
2883.27
2890.48
2897.49
2904.3
2910.91
2917.3
2923.47
2929.4
2935.1
2940.56
2945.76
2950.72
2955.41
2959.84
2964
2967.9
2971.52
2974.87
2977.95
2980.74
2983.26
2985.5
2987.47
2989.16
2990.57
2991.72
2992.59
2993.2
2993.55
2993.63
2993.47
2993.05
2992.39
2991.5
2990.37
2989.02
2987.45
2985.67
2983.69
2981.52
2979.17
2976.63
2973.93
2971.08
2968.07
2964.93
2961.67
2958.28
2954.79
2951.19
2947.52
2943.76
2939.95
2936.07
2932.16
2928.21
2924.24
2920.26
2916.28
2912.3
2908.34
2904.41
2900.51
2896.66
2892.86
2889.12
2885.45
2881.86
2878.35
2874.94
2871.62
2868.4
2865.3
2862.31
2859.44
2856.69
2854.08
2851.6
2849.26
2847.06
2845.01
2843.1
2841.34
2839.74
2838.29
2837
2835.87
2834.9
2834.09
2833.44
2832.96
2832.63
2832.45
2516.94
2517.29
2517.93
2518.91
2520.21
2521.84
2523.78
2526.05
2528.63
2531.53
2534.74
2538.26
2542.08
2546.2
2550.61
2555.31
2560.29
2565.54
2571.07
2576.85
2582.89
2589.17
2595.68
2602.43
2609.39
2616.56
2623.93
2631.48
2639.21
2647.11
2655.16
2663.35
2671.67
2680.11
2688.66
2697.3
2706.02
2714.8
2723.64
2732.52
2741.43
2750.36
2759.29
2768.2
2777.1
2785.95
2794.76
2803.5
2812.17
2820.75
2829.24
2837.61
2845.86
2853.97
2861.95
2869.76
2877.41
2884.89
2892.17
2899.27
2906.16
2912.84
2919.3
2925.53
2931.52
2937.28
2942.79
2948.04
2953.04
2957.77
2962.23
2966.43
2970.35
2973.99
2977.36
2980.44
2983.25
2985.77
2988.01
2989.97
2991.65
2993.05
2994.17
2995.02
2995.6
2995.91
2995.95
2995.74
2995.28
2994.57
2993.62
2992.43
2991.02
2989.38
2987.53
2985.48
2983.23
2980.79
2978.17
2975.39
2972.44
2969.35
2966.11
2962.75
2959.26
2955.68
2951.99
2948.22
2944.37
2940.45
2936.48
2932.47
2928.43
2924.36
2920.28
2916.21
2912.14
2908.09
2904.06
2900.08
2896.14
2892.26
2888.44
2884.69
2881.03
2877.45
2873.96
2870.58
2867.3
2864.14
2861.1
2858.18
2855.38
2852.73
2850.21
2847.83
2845.59
2843.51
2841.57
2839.79
2838.16
2836.69
2835.39
2834.24
2833.25
2832.43
2831.77
2831.29
2830.95
2830.78
2513.23
2513.58
2514.23
2515.23
2516.54
2518.19
2520.16
2522.46
2525.08
2528.02
2531.28
2534.85
2538.72
2542.9
2547.38
2552.15
2557.21
2562.54
2568.15
2574.02
2580.15
2586.53
2593.15
2600
2607.08
2614.36
2621.84
2629.52
2637.37
2645.4
2653.58
2661.9
2670.36
2678.93
2687.61
2696.39
2705.25
2714.17
2723.15
2732.18
2741.23
2750.29
2759.36
2768.42
2777.45
2786.44
2795.38
2804.26
2813.06
2821.77
2830.38
2838.88
2847.25
2855.49
2863.57
2871.5
2879.26
2886.84
2894.23
2901.42
2908.4
2915.16
2921.71
2928.01
2934.08
2939.91
2945.48
2950.79
2955.84
2960.62
2965.12
2969.36
2973.31
2976.98
2980.36
2983.46
2986.27
2988.8
2991.04
2992.99
2994.65
2996.03
2997.13
2997.95
2998.49
2998.76
2998.76
2998.49
2997.97
2997.2
2996.18
2994.92
2993.43
2991.71
2989.78
2987.63
2985.29
2982.75
2980.04
2977.15
2974.1
2970.89
2967.55
2964.07
2960.48
2956.77
2952.96
2949.07
2945.1
2941.06
2936.98
2932.84
2928.68
2924.5
2920.31
2916.11
2911.93
2907.77
2903.64
2899.55
2895.51
2891.53
2887.61
2883.77
2880.02
2876.35
2872.79
2869.32
2865.97
2862.74
2859.63
2856.65
2853.8
2851.09
2848.52
2846.09
2843.82
2841.69
2839.72
2837.91
2836.25
2834.76
2833.43
2832.26
2831.26
2830.43
2829.76
2829.26
2828.92
2828.74
2508.87
2509.22
2509.89
2510.9
2512.23
2513.91
2515.91
2518.25
2520.92
2523.9
2527.22
2530.84
2534.79
2539.04
2543.59
2548.44
2553.59
2559.02
2564.73
2570.7
2576.95
2583.44
2590.18
2597.15
2604.36
2611.77
2619.39
2627.21
2635.21
2643.38
2651.71
2660.19
2668.81
2677.54
2686.38
2695.32
2704.34
2713.44
2722.58
2731.77
2740.99
2750.22
2759.45
2768.67
2777.86
2787.02
2796.12
2805.15
2814.11
2822.98
2831.74
2840.38
2848.89
2857.27
2865.49
2873.55
2881.43
2889.13
2896.64
2903.94
2911.03
2917.9
2924.54
2930.94
2937.09
2943
2948.64
2954.02
2959.13
2963.96
2968.52
2972.8
2976.78
2980.48
2983.89
2987.01
2989.83
2992.36
2994.59
2996.53
2998.18
2999.54
3000.6
3001.39
3001.88
3002.1
3002.05
3001.72
3001.14
3000.29
2999.19
2997.84
2996.26
2994.45
2992.41
2990.16
2987.71
2985.06
2982.22
2979.21
2976.03
2972.7
2969.22
2965.61
2961.87
2958.03
2954.09
2950.05
2945.95
2941.77
2937.54
2933.27
2928.97
2924.65
2920.32
2915.99
2911.67
2907.38
2903.13
2898.91
2894.75
2890.65
2886.63
2882.68
2878.82
2875.05
2871.39
2867.84
2864.4
2861.09
2857.9
2854.85
2851.93
2849.16
2846.53
2844.05
2841.73
2839.56
2837.54
2835.69
2834.01
2832.48
2831.13
2829.94
2828.92
2828.07
2827.39
2826.88
2826.54
2826.36
2503.85
2504.21
2504.89
2505.92
2507.28
2508.98
2511.03
2513.4
2516.12
2519.16
2522.54
2526.23
2530.25
2534.59
2539.23
2544.18
2549.42
2554.96
2560.78
2566.88
2573.25
2579.88
2586.75
2593.87
2601.22
2608.79
2616.57
2624.55
2632.72
2641.06
2649.57
2658.23
2667.02
2675.94
2684.97
2694.09
2703.3
2712.59
2721.92
2731.3
2740.71
2750.13
2759.56
2768.96
2778.35
2787.69
2796.97
2806.19
2815.32
2824.36
2833.3
2842.11
2850.79
2859.32
2867.7
2875.91
2883.94
2891.78
2899.42
2906.86
2914.07
2921.05
2927.8
2934.31
2940.56
2946.56
2952.28
2957.74
2962.92
2967.82
2972.44
2976.76
2980.79
2984.52
2987.96
2991.09
2993.93
2996.46
2998.69
3000.62
3002.25
3003.57
3004.61
3005.35
3005.8
3005.96
3005.84
3005.45
3004.78
3003.85
3002.66
3001.21
2999.52
2997.6
2995.45
2993.08
2990.49
2987.71
2984.74
2981.58
2978.26
2974.78
2971.15
2967.38
2963.49
2959.49
2955.38
2951.19
2946.91
2942.58
2938.18
2933.75
2929.29
2924.81
2920.32
2915.83
2911.37
2906.93
2902.52
2898.16
2893.86
2889.63
2885.48
2881.4
2877.42
2873.54
2869.77
2866.12
2862.58
2859.18
2855.9
2852.77
2849.77
2846.93
2844.23
2841.69
2839.31
2837.09
2835.03
2833.14
2831.42
2829.86
2828.48
2827.26
2826.22
2825.35
2824.66
2824.14
2823.79
2823.61
2498.17
2498.54
2499.23
2500.28
2501.67
2503.4
2505.48
2507.91
2510.68
2513.79
2517.23
2521.01
2525.11
2529.53
2534.28
2539.33
2544.69
2550.36
2556.31
2562.54
2569.05
2575.83
2582.87
2590.15
2597.67
2605.41
2613.37
2621.53
2629.89
2638.43
2647.14
2655.99
2664.99
2674.12
2683.36
2692.7
2702.12
2711.62
2721.18
2730.77
2740.4
2750.04
2759.68
2769.3
2778.9
2788.45
2797.94
2807.36
2816.7
2825.94
2835.07
2844.07
2852.94
2861.66
2870.21
2878.59
2886.79
2894.79
2902.58
2910.16
2917.52
2924.64
2931.51
2938.14
2944.5
2950.6
2956.42
2961.97
2967.23
2972.2
2976.88
2981.26
2985.33
2989.11
2992.57
2995.73
2998.58
3001.11
3003.34
3005.25
3006.86
3008.16
3009.16
3009.85
3010.24
3010.34
3010.15
3009.67
3008.92
3007.89
3006.59
3005.04
3003.23
3001.18
2998.89
2996.38
2993.65
2990.72
2987.59
2984.28
2980.79
2977.13
2973.33
2969.39
2965.31
2961.13
2956.84
2952.46
2948
2943.48
2938.9
2934.28
2929.63
2924.97
2920.3
2915.64
2911
2906.38
2901.81
2897.29
2892.84
2888.45
2884.15
2879.94
2875.82
2871.81
2867.92
2864.14
2860.5
2856.99
2853.61
2850.39
2847.31
2844.38
2841.61
2839.01
2836.56
2834.29
2832.18
2830.24
2828.47
2826.88
2825.46
2824.22
2823.16
2822.27
2821.56
2821.04
2820.68
2820.49
2491.8
2492.18
2492.89
2493.96
2495.38
2497.15
2499.27
2501.75
2504.58
2507.76
2511.28
2515.14
2519.34
2523.87
2528.72
2533.9
2539.39
2545.19
2551.28
2557.67
2564.34
2571.29
2578.5
2585.96
2593.67
2601.61
2609.78
2618.15
2626.72
2635.48
2644.4
2653.49
2662.72
2672.08
2681.56
2691.13
2700.8
2710.54
2720.34
2730.18
2740.05
2749.93
2759.81
2769.68
2779.52
2789.3
2799.03
2808.69
2818.25
2827.72
2837.07
2846.28
2855.36
2864.28
2873.03
2881.61
2889.99
2898.17
2906.14
2913.88
2921.39
2928.66
2935.68
2942.43
2948.92
2955.14
2961.07
2966.71
2972.07
2977.12
2981.87
2986.31
2990.44
2994.25
2997.75
3000.94
3003.8
3006.34
3008.56
3010.46
3012.04
3013.31
3014.26
3014.9
3015.23
3015.26
3014.98
3014.42
3013.56
3012.42
3011.01
3009.33
3007.39
3005.2
3002.76
3000.09
2997.2
2994.1
2990.79
2987.29
2983.62
2979.77
2975.77
2971.63
2967.35
2962.96
2958.46
2953.87
2949.2
2944.47
2939.68
2934.85
2930
2925.13
2920.26
2915.4
2910.56
2905.75
2901
2896.29
2891.66
2887.1
2882.64
2878.26
2874
2869.84
2865.81
2861.91
2858.14
2854.51
2851.03
2847.7
2844.53
2841.51
2838.66
2835.98
2833.47
2831.13
2828.97
2826.98
2825.17
2823.53
2822.08
2820.81
2819.72
2818.82
2818.09
2817.55
2817.18
2816.99
2484.73
2485.13
2485.86
2486.95
2488.39
2490.2
2492.38
2494.92
2497.81
2501.07
2504.67
2508.63
2512.93
2517.57
2522.55
2527.86
2533.49
2539.44
2545.7
2552.26
2559.11
2566.24
2573.64
2581.31
2589.23
2597.39
2605.78
2614.38
2623.19
2632.19
2641.36
2650.7
2660.19
2669.81
2679.55
2689.4
2699.33
2709.34
2719.41
2729.52
2739.67
2749.82
2759.97
2770.11
2780.21
2790.26
2800.25
2810.17
2819.99
2829.7
2839.29
2848.75
2858.06
2867.2
2876.18
2884.96
2893.55
2901.93
2910.09
2918.02
2925.7
2933.14
2940.31
2947.22
2953.84
2960.19
2966.24
2972
2977.45
2982.59
2987.42
2991.93
2996.12
2999.98
3003.52
3006.73
3009.6
3012.15
3014.37
3016.25
3017.81
3019.04
3019.94
3020.52
3020.78
3020.73
3020.36
3019.7
3018.73
3017.47
3015.92
3014.1
3012.01
3009.66
3007.06
3004.21
3001.14
2997.85
2994.34
2990.64
2986.75
2982.7
2978.47
2974.11
2969.6
2964.98
2960.25
2955.43
2950.52
2945.55
2940.53
2935.47
2930.38
2925.28
2920.18
2915.1
2910.04
2905.02
2900.05
2895.15
2890.32
2885.57
2880.92
2876.37
2871.94
2867.62
2863.44
2859.39
2855.49
2851.73
2848.13
2844.69
2841.41
2838.3
2835.36
2832.6
2830.02
2827.61
2825.38
2823.34
2821.48
2819.81
2818.32
2817.02
2815.9
2814.97
2814.23
2813.68
2813.3
2813.1
2476.95
2477.35
2478.1
2479.22
2480.7
2482.55
2484.78
2487.38
2490.35
2493.68
2497.38
2501.44
2505.86
2510.63
2515.74
2521.19
2526.98
2533.1
2539.53
2546.28
2553.32
2560.66
2568.28
2576.17
2584.32
2592.72
2601.36
2610.22
2619.29
2628.56
2638.01
2647.62
2657.39
2667.3
2677.33
2687.48
2697.71
2708.02
2718.39
2728.8
2739.24
2749.7
2760.15
2770.58
2780.98
2791.33
2801.61
2811.8
2821.9
2831.89
2841.75
2851.47
2861.04
2870.44
2879.65
2888.68
2897.5
2906.1
2914.47
2922.59
2930.47
2938.09
2945.43
2952.5
2959.28
2965.77
2971.95
2977.83
2983.39
2988.63
2993.55
2998.13
3002.39
3006.3
3009.88
3013.12
3016.02
3018.57
3020.78
3022.65
3024.17
3025.36
3026.21
3026.73
3026.91
3026.77
3026.3
3025.52
3024.43
3023.04
3021.35
3019.37
3017.12
3014.59
3011.8
3008.77
3005.49
3001.98
2998.26
2994.33
2990.21
2985.91
2981.45
2976.83
2972.08
2967.2
2962.21
2957.12
2951.96
2946.73
2941.44
2936.12
2930.77
2925.42
2920.07
2914.73
2909.43
2904.18
2898.98
2893.85
2888.8
2883.84
2878.99
2874.24
2869.62
2865.13
2860.78
2856.58
2852.52
2848.63
2844.9
2841.34
2837.95
2834.73
2831.7
2828.85
2826.19
2823.71
2821.42
2819.32
2817.41
2815.69
2814.17
2812.83
2811.69
2810.74
2809.98
2809.41
2809.03
2808.82
2468.43
2468.84
2469.62
2470.76
2472.27
2474.17
2476.46
2479.12
2482.17
2485.59
2489.39
2493.56
2498.1
2503
2508.26
2513.88
2519.84
2526.13
2532.76
2539.71
2546.97
2554.53
2562.39
2570.53
2578.94
2587.6
2596.51
2605.65
2615.01
2624.57
2634.32
2644.24
2654.32
2664.55
2674.9
2685.37
2695.93
2706.57
2717.27
2728.01
2738.79
2749.57
2760.35
2771.11
2781.83
2792.5
2803.1
2813.61
2824.02
2834.31
2844.46
2854.47
2864.32
2873.99
2883.48
2892.76
2901.82
2910.67
2919.27
2927.62
2935.71
2943.52
2951.06
2958.31
2965.25
2971.89
2978.22
2984.23
2989.91
2995.26
3000.27
3004.94
3009.27
3013.24
3016.87
3020.14
3023.06
3025.62
3027.82
3029.67
3031.16
3032.3
3033.1
3033.54
3033.64
3033.4
3032.83
3031.92
3030.7
3029.16
3027.31
3025.16
3022.72
3020
3017.01
3013.76
3010.25
3006.52
3002.55
2998.37
2994
2989.44
2984.7
2979.81
2974.78
2969.61
2964.34
2958.96
2953.51
2947.98
2942.41
2936.8
2931.17
2925.53
2919.9
2914.29
2908.72
2903.2
2897.75
2892.37
2887.08
2881.89
2876.82
2871.86
2867.04
2862.36
2857.83
2853.45
2849.23
2845.19
2841.32
2837.62
2834.12
2830.79
2827.66
2824.72
2821.97
2819.42
2817.06
2814.9
2812.94
2811.18
2809.61
2808.24
2807.07
2806.09
2805.32
2804.74
2804.34
2804.13
2459.15
2459.58
2460.37
2461.55
2463.1
2465.04
2467.38
2470.12
2473.25
2476.77
2480.67
2484.96
2489.64
2494.69
2500.11
2505.89
2512.03
2518.53
2525.36
2532.54
2540.03
2547.84
2555.95
2564.36
2573.05
2582
2591.21
2600.65
2610.32
2620.21
2630.29
2640.55
2650.97
2661.55
2672.25
2683.07
2693.99
2704.98
2716.05
2727.15
2738.29
2749.44
2760.58
2771.69
2782.77
2793.79
2804.73
2815.59
2826.33
2836.95
2847.43
2857.76
2867.92
2877.89
2887.66
2897.22
2906.55
2915.69
2924.53
2933.12
2941.43
2949.47
2957.21
2964.65
2971.78
2978.59
2985.07
2991.22
2997.04
3002.5
3007.62
3012.38
3016.78
3020.82
3024.5
3027.8
3030.74
3033.31
3035.51
3037.34
3038.8
3039.89
3040.62
3040.98
3040.99
3040.64
3039.95
3038.91
3037.54
3035.84
3033.82
3031.48
3028.84
3025.91
3022.69
3019.21
3015.46
3011.46
3007.23
3002.78
2998.12
2993.27
2988.24
2983.04
2977.7
2972.22
2966.63
2960.94
2955.17
2949.32
2943.43
2937.5
2931.55
2925.61
2919.67
2913.76
2907.89
2902.09
2896.35
2890.7
2885.15
2879.71
2874.39
2869.21
2864.16
2859.27
2854.54
2849.98
2845.59
2841.39
2837.36
2833.53
2829.9
2826.46
2823.22
2820.18
2817.35
2814.72
2812.29
2810.07
2808.05
2806.24
2804.63
2803.23
2802.03
2801.03
2800.24
2799.65
2799.24
2799.02
2449.08
2449.53
2450.35
2451.55
2453.14
2455.13
2457.53
2460.34
2463.56
2467.18
2471.2
2475.62
2480.44
2485.64
2491.23
2497.2
2503.55
2510.25
2517.32
2524.73
2532.48
2540.56
2548.95
2557.65
2566.63
2575.9
2585.43
2595.21
2605.23
2615.46
2625.9
2636.53
2647.32
2658.27
2669.36
2680.57
2691.88
2703.27
2714.72
2726.22
2737.75
2749.3
2760.83
2772.34
2783.8
2795.2
2806.52
2817.75
2828.86
2839.84
2850.67
2861.34
2871.84
2882.14
2892.23
2902.09
2911.73
2921.12
2930.25
2939.1
2947.66
2955.93
2963.9
2971.55
2978.88
2985.87
2992.52
2998.83
3004.79
3010.38
3015.61
3020.47
3024.96
3029.07
3032.79
3036.14
3039.1
3041.68
3043.87
3045.68
3047.1
3048.14
3048.8
3049.08
3048.99
3048.53
3047.7
3046.52
3044.98
3043.11
3040.89
3038.35
3035.5
3032.33
3028.87
3025.13
3021.11
3016.84
3012.31
3007.56
3002.59
2997.42
2992.06
2986.54
2980.86
2975.04
2969.1
2963.06
2956.93
2950.74
2944.5
2938.22
2931.93
2925.64
2919.36
2913.12
2906.94
2900.81
2894.77
2888.82
2882.99
2877.27
2871.69
2866.25
2860.97
2855.85
2850.91
2846.15
2841.58
2837.2
2833.02
2829.04
2825.27
2821.71
2818.36
2815.22
2812.29
2809.58
2807.09
2804.8
2802.73
2800.88
2799.23
2797.79
2796.56
2795.54
2794.73
2794.12
2793.71
2793.49
2438.21
2438.67
2439.51
2440.75
2442.38
2444.42
2446.89
2449.77
2453.08
2456.81
2460.95
2465.51
2470.47
2475.84
2481.62
2487.79
2494.34
2501.28
2508.59
2516.26
2524.29
2532.65
2541.35
2550.36
2559.68
2569.28
2579.17
2589.31
2599.7
2610.31
2621.14
2632.17
2643.37
2654.73
2666.23
2677.86
2689.59
2701.41
2713.29
2725.22
2737.18
2749.15
2761.11
2773.04
2784.92
2796.74
2808.47
2820.1
2831.61
2842.98
2854.2
2865.24
2876.1
2886.75
2897.18
2907.38
2917.34
2927.03
2936.45
2945.59
2954.42
2962.95
2971.15
2979.03
2986.57
2993.76
3000.6
3007.08
3013.19
3018.92
3024.27
3029.24
3033.81
3038
3041.79
3045.17
3048.16
3050.75
3052.93
3054.72
3056.1
3057.08
3057.66
3057.85
3057.65
3057.07
3056.1
3054.76
3053.06
3050.99
3048.57
3045.81
3042.71
3039.3
3035.57
3031.55
3027.24
3022.65
3017.82
3012.73
3007.43
3001.91
2996.19
2990.3
2984.25
2978.06
2971.74
2965.32
2958.81
2952.23
2945.6
2938.95
2932.27
2925.61
2918.97
2912.37
2905.82
2899.36
2892.98
2886.71
2880.56
2874.55
2868.68
2862.97
2857.43
2852.07
2846.9
2841.93
2837.16
2832.59
2828.25
2824.11
2820.2
2816.51
2813.05
2809.81
2806.79
2804
2801.44
2799.09
2796.97
2795.06
2793.38
2791.91
2790.65
2789.61
2788.78
2788.16
2787.74
2787.51
2426.49
2426.97
2427.84
2429.12
2430.79
2432.88
2435.4
2438.37
2441.77
2445.61
2449.88
2454.58
2459.71
2465.26
2471.23
2477.61
2484.4
2491.58
2499.16
2507.11
2515.43
2524.11
2533.13
2542.48
2552.15
2562.13
2572.39
2582.92
2593.71
2604.74
2615.99
2627.45
2639.09
2650.89
2662.85
2674.93
2687.12
2699.4
2711.75
2724.14
2736.57
2749
2761.42
2773.81
2786.15
2798.42
2810.59
2822.66
2834.6
2846.39
2858.02
2869.47
2880.72
2891.75
2902.55
2913.11
2923.41
2933.43
2943.17
2952.61
2961.73
2970.53
2979
2987.12
2994.89
3002.3
3009.33
3015.99
3022.26
3028.14
3033.63
3038.71
3043.38
3047.65
3051.5
3054.93
3057.95
3060.55
3062.72
3064.48
3065.82
3066.74
3067.25
3067.34
3067.02
3066.3
3065.19
3063.68
3061.78
3059.51
3056.87
3053.86
3050.51
3046.82
3042.81
3038.48
3033.85
3028.94
3023.75
3018.31
3012.63
3006.74
3000.63
2994.35
2987.89
2981.29
2974.56
2967.72
2960.79
2953.79
2946.74
2939.67
2932.58
2925.51
2918.46
2911.47
2904.54
2897.7
2890.96
2884.34
2877.85
2871.51
2865.34
2859.33
2853.52
2847.9
2842.49
2837.28
2832.3
2827.55
2823.02
2818.73
2814.67
2810.85
2807.27
2803.93
2800.82
2797.95
2795.31
2792.91
2790.73
2788.79
2787.06
2785.56
2784.28
2783.22
2782.38
2781.75
2781.32
2781.09
2413.9
2414.4
2415.31
2416.62
2418.33
2420.47
2423.06
2426.1
2429.6
2433.56
2437.96
2442.81
2448.11
2453.85
2460.03
2466.64
2473.67
2481.12
2488.97
2497.23
2505.87
2514.88
2524.25
2533.97
2544.03
2554.4
2565.07
2576.03
2587.25
2598.73
2610.44
2622.36
2634.47
2646.76
2659.2
2671.77
2684.46
2697.24
2710.09
2722.98
2735.91
2748.85
2761.77
2774.65
2787.48
2800.23
2812.89
2825.43
2837.83
2850.08
2862.16
2874.04
2885.71
2897.15
2908.35
2919.3
2929.97
2940.35
2950.42
2960.19
2969.62
2978.72
2987.46
2995.85
3003.86
3011.5
3018.74
3025.59
3032.04
3038.08
3043.71
3048.91
3053.69
3058.04
3061.96
3065.45
3068.49
3071.1
3073.27
3075.01
3076.3
3077.15
3077.57
3077.56
3077.12
3076.26
3074.98
3073.29
3071.19
3068.69
3065.81
3062.55
3058.92
3054.94
3050.61
3045.95
3040.98
3035.7
3030.14
3024.31
3018.23
3011.92
3005.4
2998.68
2991.78
2984.73
2977.55
2970.25
2962.87
2955.41
2947.9
2940.37
2932.84
2925.32
2917.84
2910.41
2903.06
2895.81
2888.68
2881.67
2874.82
2868.13
2861.62
2855.31
2849.19
2843.3
2837.62
2832.18
2826.98
2822.02
2817.32
2812.86
2808.65
2804.7
2801
2797.55
2794.35
2791.41
2788.7
2786.24
2784.02
2782.03
2780.27
2778.75
2777.45
2776.37
2775.51
2774.88
2774.44
2774.2
2400.39
2400.92
2401.86
2403.22
2404.96
2407.15
2409.81
2412.93
2416.53
2420.61
2425.15
2430.16
2435.64
2441.58
2447.98
2454.83
2462.12
2469.85
2478.01
2486.59
2495.57
2504.94
2514.69
2524.81
2535.27
2546.07
2557.19
2568.6
2580.3
2592.25
2604.45
2616.87
2629.5
2642.3
2655.27
2668.37
2681.6
2694.91
2708.3
2721.74
2735.21
2748.69
2762.15
2775.57
2788.93
2802.21
2815.38
2828.43
2841.33
2854.07
2866.62
2878.97
2891.1
2902.98
2914.61
2925.97
2937.03
2947.79
2958.24
2968.35
2978.12
2987.53
2996.57
3005.23
3013.51
3021.39
3028.86
3035.92
3042.56
3048.77
3054.54
3059.88
3064.77
3069.22
3073.21
3076.75
3079.83
3082.45
3084.62
3086.32
3087.57
3088.35
3088.68
3088.56
3087.99
3086.97
3085.52
3083.63
3081.31
3078.58
3075.44
3071.9
3067.97
3063.67
3059
3053.99
3048.64
3042.97
3037
3030.75
3024.24
3017.48
3010.49
3003.3
2995.93
2988.39
2980.72
2972.93
2965.04
2957.08
2949.08
2941.05
2933.03
2925.02
2917.06
2909.17
2901.36
2893.67
2886.11
2878.69
2871.44
2864.37
2857.51
2850.85
2844.42
2838.23
2832.28
2826.59
2821.15
2815.99
2811.09
2806.46
2802.1
2798.01
2794.2
2790.65
2787.36
2784.34
2781.58
2779.06
2776.8
2774.78
2772.99
2771.45
2770.13
2769.04
2768.17
2767.53
2767.09
2766.84
2385.94
2386.49
2387.48
2388.87
2390.66
2392.9
2395.61
2398.82
2402.52
2406.72
2411.4
2416.58
2422.25
2428.4
2435.03
2442.13
2449.71
2457.74
2466.23
2475.15
2484.49
2494.25
2504.41
2514.95
2525.86
2537.12
2548.71
2560.61
2572.81
2585.28
2598.01
2610.97
2624.15
2637.51
2651.05
2664.72
2678.52
2692.42
2706.4
2720.42
2734.47
2748.53
2762.57
2776.57
2790.5
2804.34
2818.07
2831.67
2845.11
2858.37
2871.44
2884.29
2896.9
2909.26
2921.35
2933.14
2944.63
2955.8
2966.64
2977.12
2987.24
2996.99
3006.35
3015.31
3023.87
3032
3039.72
3047
3053.84
3060.23
3066.16
3071.64
3076.65
3081.2
3085.27
3088.87
3091.99
3094.63
3096.78
3098.46
3099.66
3100.37
3100.61
3100.37
3099.66
3098.48
3096.83
3094.74
3092.19
3089.2
3085.78
3081.94
3077.69
3073.04
3068.01
3062.61
3056.86
3050.77
3044.37
3037.66
3030.67
3023.42
3015.94
3008.24
3000.34
2992.28
2984.07
2975.74
2967.31
2958.81
2950.26
2941.69
2933.13
2924.59
2916.12
2907.71
2899.41
2891.24
2883.21
2875.34
2867.67
2860.19
2852.94
2845.92
2839.16
2832.65
2826.41
2820.45
2814.78
2809.39
2804.29
2799.49
2794.98
2790.76
2786.83
2783.19
2779.82
2776.74
2773.91
2771.36
2769.06
2767.01
2765.21
2763.64
2762.32
2761.22
2760.35
2759.7
2759.26
2759.01
2370.48
2371.06
2372.09
2373.54
2375.38
2377.66
2380.43
2383.72
2387.52
2391.84
2396.68
2402.03
2407.89
2414.26
2421.14
2428.52
2436.39
2444.74
2453.57
2462.86
2472.6
2482.78
2493.37
2504.37
2515.75
2527.5
2539.6
2552.03
2564.77
2577.8
2591.1
2604.64
2618.41
2632.37
2646.51
2660.81
2675.23
2689.75
2704.35
2719.01
2733.69
2748.38
2763.04
2777.66
2792.2
2806.65
2820.98
2835.16
2849.18
2863.01
2876.62
2890.01
2903.15
2916.01
2928.59
2940.85
2952.8
2964.4
2975.65
2986.53
2997.03
3007.14
3016.83
3026.11
3034.97
3043.38
3051.35
3058.86
3065.91
3072.5
3078.61
3084.23
3089.38
3094.03
3098.19
3101.85
3105
3107.66
3109.81
3111.46
3112.61
3113.25
3113.38
3113.02
3112.16
3110.81
3108.97
3106.64
3103.85
3100.59
3096.87
3092.71
3088.11
3083.1
3077.68
3071.86
3065.68
3059.13
3052.25
3045.05
3037.55
3029.78
3021.75
3013.49
3005.03
2996.39
2987.6
2978.68
2969.66
2960.57
2951.43
2942.27
2933.13
2924.02
2914.97
2906.02
2897.18
2888.48
2879.94
2871.6
2863.46
2855.55
2847.88
2840.48
2833.35
2826.51
2819.96
2813.73
2807.8
2802.19
2796.9
2791.92
2787.26
2782.91
2778.88
2775.14
2771.7
2768.56
2765.69
2763.1
2760.78
2758.71
2756.9
2755.33
2754
2752.9
2752.03
2751.39
2750.95
2750.69
2353.96
2354.57
2355.66
2357.17
2359.07
2361.4
2364.22
2367.58
2371.49
2375.93
2380.92
2386.44
2392.51
2399.11
2406.25
2413.92
2422.1
2430.8
2440
2449.69
2459.85
2470.47
2481.53
2493.01
2504.9
2517.18
2529.83
2542.83
2556.15
2569.78
2583.68
2597.85
2612.25
2626.86
2641.66
2656.61
2671.7
2686.9
2702.17
2717.5
2732.86
2748.22
2763.56
2778.84
2794.04
2809.14
2824.11
2838.92
2853.56
2867.99
2882.2
2896.17
2909.86
2923.26
2936.36
2949.13
2961.56
2973.63
2985.32
2996.62
3007.52
3018
3028.06
3037.67
3046.84
3055.55
3063.79
3071.55
3078.83
3085.61
3091.9
3097.69
3102.97
3107.74
3111.99
3115.72
3118.92
3121.6
3123.75
3125.37
3126.46
3127.02
3127.05
3126.56
3125.54
3124.01
3121.96
3119.4
3116.34
3112.79
3108.75
3104.25
3099.28
3093.87
3088.03
3081.77
3075.11
3068.08
3060.68
3052.95
3044.89
3036.55
3027.94
3019.08
3010.01
3000.74
2991.32
2981.76
2972.1
2962.36
2952.58
2942.78
2933
2923.26
2913.6
2904.05
2894.62
2885.35
2876.27
2867.4
2858.76
2850.38
2842.27
2834.45
2826.94
2819.75
2812.88
2806.36
2800.17
2794.33
2788.84
2783.69
2778.89
2774.42
2770.28
2766.47
2762.97
2759.78
2756.88
2754.27
2751.93
2749.87
2748.05
2746.49
2745.17
2744.08
2743.22
2742.58
2742.14
2741.89
2336.32
2336.96
2338.13
2339.71
2341.67
2344.05
2346.93
2350.36
2354.36
2358.93
2364.06
2369.77
2376.05
2382.89
2390.31
2398.28
2406.8
2415.87
2425.46
2435.57
2446.18
2457.27
2468.83
2480.84
2493.28
2506.13
2519.36
2532.96
2546.91
2561.17
2575.73
2590.57
2605.65
2620.95
2636.45
2652.12
2667.92
2683.84
2699.84
2715.9
2731.99
2748.07
2764.12
2780.12
2796.03
2811.83
2827.49
2842.98
2858.28
2873.36
2888.2
2902.78
2917.07
2931.05
2944.7
2958.01
2970.95
2983.51
2995.67
3007.42
3018.74
3029.63
3040.06
3050.03
3059.53
3068.54
3077.07
3085.09
3092.61
3099.61
3106.1
3112.05
3117.48
3122.37
3126.71
3130.52
3133.77
3136.47
3138.62
3140.21
3141.25
3141.73
3141.66
3141.03
3139.85
3138.12
3135.85
3133.04
3129.7
3125.84
3121.47
3116.6
3111.24
3105.4
3099.11
3092.37
3085.21
3077.64
3069.69
3061.38
3052.73
3043.77
3034.52
3025.01
3015.28
3005.33
2995.22
2984.97
2974.61
2964.17
2953.69
2943.19
2932.72
2922.3
2911.97
2901.76
2891.7
2881.82
2872.14
2862.7
2853.53
2844.64
2836.05
2827.79
2819.87
2812.31
2805.11
2798.28
2791.83
2785.76
2780.07
2774.76
2769.81
2765.23
2761.01
2757.13
2753.59
2750.37
2747.45
2744.84
2742.51
2740.46
2738.66
2737.12
2735.81
2734.74
2733.9
2733.27
2732.85
2732.59
2317.47
2318.16
2319.4
2321.08
2323.11
2325.55
2328.49
2331.99
2336.08
2340.77
2346.06
2351.95
2358.44
2365.54
2373.24
2381.54
2390.42
2399.88
2409.9
2420.46
2431.55
2443.15
2455.24
2467.81
2480.83
2494.28
2508.15
2522.4
2537.01
2551.96
2567.22
2582.77
2598.59
2614.63
2630.88
2647.31
2663.88
2680.58
2697.36
2714.2
2731.06
2747.92
2764.75
2781.52
2798.19
2814.73
2831.13
2847.35
2863.36
2879.13
2894.65
2909.88
2924.8
2939.4
2953.64
2967.52
2981
2994.08
3006.74
3018.96
3030.73
3042.04
3052.87
3063.22
3073.06
3082.4
3091.23
3099.53
3107.3
3114.53
3121.22
3127.36
3132.94
3137.95
3142.41
3146.29
3149.6
3152.33
3154.48
3156.04
3157.03
3157.43
3157.24
3156.47
3155.12
3153.19
3150.69
3147.61
3143.98
3139.79
3135.06
3129.8
3124.02
3117.73
3110.95
3103.7
3096