/*--------------------------------*- C++ -*----------------------------------*\
| =========                 |                                                 |
| \\      /  F ield         | OpenFOAM: The Open Source CFD Toolbox           |
|  \\    /   O peration     | Version:  v2006                                 |
|   \\  /    A nd           | Website:  www.openfoam.com                      |
|    \\/     M anipulation  |                                                 |
\*---------------------------------------------------------------------------*/
FoamFile
{
    version     2.0;
    format      ascii;
    class       volVectorField;
    location    "13.7";
    object      U;
}
// * * * * * * * * * * * * * * * * * * * * * * * * * * * * * * * * * * * * * //

dimensions      [0 1 -1 0 0 0 0];


internalField   nonuniform List<vector> 
50000
(
(-0.000387128 -0.000601022 0)
(0.00108145 -0.00199438 0)
(0.00318849 -0.00203265 0)
(0.00454105 -0.00178934 0)
(0.00586316 -0.0015744 0)
(0.006973 -0.0015017 0)
(0.00807767 -0.00146358 0)
(0.00916416 -0.00144755 0)
(0.0102172 -0.00142786 0)
(0.0112391 -0.00140178 0)
(0.0122286 -0.00137112 0)
(0.0131828 -0.00133939 0)
(0.0141044 -0.00130691 0)
(0.0149935 -0.00127409 0)
(0.0158503 -0.00124053 0)
(0.0166774 -0.00120603 0)
(0.0174761 -0.0011704 0)
(0.0182477 -0.00113282 0)
(0.0189926 -0.00109456 0)
(0.0197119 -0.00105656 0)
(0.0204076 -0.00101449 0)
(0.0210809 -0.000969784 0)
(0.0217321 -0.000926702 0)
(0.0223622 -0.000879718 0)
(0.0229707 -0.000829277 0)
(0.0235576 -0.000776699 0)
(0.0241235 -0.000720663 0)
(0.0246676 -0.000660696 0)
(0.0251884 -0.000594651 0)
(0.0256839 -0.000520466 0)
(0.0261509 -0.000440915 0)
(0.0265864 -0.00034773 0)
(0.0269827 -0.0002411 0)
(0.0273329 -0.000119698 0)
(0.0276301 1.23588e-05 0)
(0.0278683 0.000151047 0)
(0.0280438 0.00029514 0)
(0.028155 0.000437659 0)
(0.0282033 0.000572751 0)
(0.0281891 0.000711666 0)
(0.0281072 0.000850147 0)
(0.0279574 0.00098236 0)
(0.0277514 0.00108015 0)
(0.0275135 0.00113532 0)
(0.0272659 0.00115126 0)
(0.0270242 0.00113801 0)
(0.0268 0.00109925 0)
(0.0266142 0.0010269 0)
(0.0264935 0.000911282 0)
(0.0264664 0.000757122 0)
(0.0265567 0.000575225 0)
(0.0267737 0.000384615 0)
(0.0271152 0.000204728 0)
(0.0275707 4.70454e-05 0)
(0.0281246 -8.62722e-05 0)
(0.0287646 -0.000198145 0)
(0.0294802 -0.000296426 0)
(0.0302613 -0.000386121 0)
(0.0311049 -0.000469544 0)
(0.0320079 -0.000548146 0)
(0.0329648 -0.000621471 0)
(0.0339713 -0.000689256 0)
(0.0350224 -0.000751612 0)
(0.0361144 -0.000808303 0)
(0.0372439 -0.000859693 0)
(0.0384062 -0.000906007 0)
(0.0395973 -0.000947125 0)
(0.0408139 -0.000983378 0)
(0.0420518 -0.00101487 0)
(0.0433073 -0.00104143 0)
(0.0445772 -0.00106323 0)
(0.0458579 -0.00108048 0)
(0.0471457 -0.00109331 0)
(0.0484374 -0.00110158 0)
(0.0497295 -0.00110549 0)
(0.0510187 -0.00110524 0)
(0.0523019 -0.00110067 0)
(0.0535758 -0.00109135 0)
(0.0548366 -0.00107677 0)
(0.0560804 -0.00105644 0)
(0.0573031 -0.00102997 0)
(0.0584998 -0.000996881 0)
(0.0596651 -0.000956842 0)
(0.0607936 -0.000909664 0)
(0.0618791 -0.000855204 0)
(0.0629153 -0.000793302 0)
(0.0638954 -0.000723779 0)
(0.0648123 -0.000646301 0)
(0.0656581 -0.00056027 0)
(0.0664242 -0.000464745 0)
(0.0671006 -0.000358471 0)
(0.0676761 -0.000239682 0)
(0.0681373 -0.000106136 0)
(0.0684679 4.60469e-05 0)
(0.0686478 0.000224655 0)
(0.0686553 0.000443633 0)
(0.0684627 0.000719983 0)
(0.0679949 0.00106035 0)
(0.0672232 0.00142626 0)
(0.0661583 0.00176779 0)
(0.0648189 0.00205661 0)
(0.0632422 0.00227805 0)
(0.0614869 0.00242894 0)
(0.0596171 0.00252083 0)
(0.0576899 0.00257412 0)
(0.0557496 0.00260628 0)
(0.0538285 0.00262486 0)
(0.051951 0.00262522 0)
(0.0501409 0.0025896 0)
(0.048427 0.00249295 0)
(0.0468449 0.00232092 0)
(0.045427 0.00208465 0)
(0.0441831 0.00182178 0)
(0.0431012 0.0015764 0)
(0.0421504 0.00137395 0)
(0.0412853 0.00121859 0)
(0.0404659 0.00110138 0)
(0.0396626 0.00100766 0)
(0.0388512 0.000924644 0)
(0.0380174 0.000843878 0)
(0.0371545 0.000761709 0)
(0.0362583 0.000679458 0)
(0.0353254 0.000600773 0)
(0.0343533 0.000527911 0)
(0.0333402 0.000461396 0)
(0.032286 0.000400224 0)
(0.0311908 0.00034354 0)
(0.0300568 0.000290592 0)
(0.0288866 0.000240071 0)
(0.0276817 0.000191082 0)
(0.0264443 0.000143354 0)
(0.0251765 9.69501e-05 0)
(0.0238816 5.19513e-05 0)
(0.0225621 8.81054e-06 0)
(0.0212205 -3.1878e-05 0)
(0.0198608 -7.02152e-05 0)
(0.0184865 -0.00010688 0)
(0.0171009 -0.000142247 0)
(0.0157083 -0.000177463 0)
(0.0143127 -0.000213015 0)
(0.0129181 -0.00024829 0)
(0.0115285 -0.000282324 0)
(0.0101481 -0.000317271 0)
(0.00877856 -0.000363855 0)
(0.00742657 -0.000428446 0)
(0.00613256 -0.00051607 0)
(0.00480703 -0.000585914 0)
(0.00361785 -0.000594479 0)
(0.00235376 -0.000402847 0)
(0.00116115 0.000231144 0)
(-0.000488909 -0.000354862 0)
(0.000178489 -0.0030347 0)
(0.00141431 -0.00267482 0)
(0.00175597 -0.00204184 0)
(0.00215191 -0.00170849 0)
(0.00226584 -0.00162705 0)
(0.00248661 -0.00157001 0)
(0.00265251 -0.00151799 0)
(0.00279719 -0.00145524 0)
(0.00291349 -0.00138892 0)
(0.0029957 -0.00132499 0)
(0.00304828 -0.00126304 0)
(0.00307822 -0.00120333 0)
(0.00308511 -0.00114818 0)
(0.00307257 -0.00109677 0)
(0.00304605 -0.00104893 0)
(0.00300904 -0.00100812 0)
(0.00296552 -0.000970197 0)
(0.00292059 -0.000937831 0)
(0.00288181 -0.000908692 0)
(0.002851 -0.000885485 0)
(0.00282956 -0.000868589 0)
(0.00283274 -0.000854857 0)
(0.00286028 -0.000845737 0)
(0.00290937 -0.000836334 0)
(0.00299371 -0.000829908 0)
(0.00311642 -0.000828884 0)
(0.00327974 -0.000826854 0)
(0.00348847 -0.000827668 0)
(0.00374305 -0.000828192 0)
(0.00405913 -0.000826833 0)
(0.00443991 -0.000821268 0)
(0.00488283 -0.000809766 0)
(0.00539649 -0.000792076 0)
(0.00598381 -0.000767583 0)
(0.00665307 -0.000738513 0)
(0.00739445 -0.000703916 0)
(0.00819629 -0.000667859 0)
(0.00907111 -0.000628682 0)
(0.0100124 -0.000579272 0)
(0.0110233 -0.000530574 0)
(0.012104 -0.000489606 0)
(0.0132397 -0.000466934 0)
(0.0144172 -0.000458955 0)
(0.0156112 -0.000465493 0)
(0.0168134 -0.000487033 0)
(0.0180137 -0.00052838 0)
(0.0191998 -0.00059809 0)
(0.0203625 -0.000698981 0)
(0.0214906 -0.000826496 0)
(0.0225759 -0.000972614 0)
(0.0236267 -0.00112517 0)
(0.0246527 -0.00127324 0)
(0.0256629 -0.00141013 0)
(0.0266671 -0.00153365 0)
(0.0276728 -0.00164403 0)
(0.0286818 -0.00174515 0)
(0.0296944 -0.00183748 0)
(0.0307112 -0.00192184 0)
(0.0317316 -0.00199999 0)
(0.0327543 -0.00207184 0)
(0.0337778 -0.00213705 0)
(0.0348017 -0.00219599 0)
(0.0358263 -0.00224893 0)
(0.0368512 -0.0022961 0)
(0.0378756 -0.00233751 0)
(0.0388991 -0.00237311 0)
(0.0399211 -0.00240332 0)
(0.0409414 -0.00242785 0)
(0.0419593 -0.00244669 0)
(0.0429743 -0.00246018 0)
(0.0439859 -0.0024684 0)
(0.0449936 -0.00247137 0)
(0.0459969 -0.00246919 0)
(0.0469944 -0.00246217 0)
(0.0479858 -0.00245031 0)
(0.0489713 -0.00243343 0)
(0.0499506 -0.0024115 0)
(0.0509229 -0.00238422 0)
(0.0518879 -0.00235094 0)
(0.0528452 -0.00231094 0)
(0.0537945 -0.0022635 0)
(0.054735 -0.00220773 0)
(0.0556659 -0.00214283 0)
(0.0565856 -0.00206816 0)
(0.0574922 -0.0019829 0)
(0.0583834 -0.00188608 0)
(0.0592569 -0.00177647 0)
(0.06011 -0.00165276 0)
(0.0609401 -0.00151342 0)
(0.0617443 -0.00135656 0)
(0.0625198 -0.00117963 0)
(0.0632648 -0.000979427 0)
(0.0639797 -0.000751904 0)
(0.0646669 -0.000491207 0)
(0.0653297 -0.000189164 0)
(0.065973 0.000162065 0)
(0.0666405 0.000565961 0)
(0.0673305 0.00100571 0)
(0.0680179 0.00145096 0)
(0.0686823 0.00186848 0)
(0.0693068 0.00222676 0)
(0.0698804 0.00249561 0)
(0.0704033 0.00265914 0)
(0.0708908 0.00272018 0)
(0.0713668 0.0026942 0)
(0.0718542 0.00260112 0)
(0.0723675 0.00245875 0)
(0.0729094 0.00227939 0)
(0.0734695 0.00207066 0)
(0.0740245 0.00184146 0)
(0.0745415 0.00160738 0)
(0.0749883 0.00139219 0)
(0.0753429 0.0012219 0)
(0.0755927 0.00111461 0)
(0.0757299 0.00107674 0)
(0.0757484 0.00110443 0)
(0.075644 0.00118638 0)
(0.0754132 0.00130895 0)
(0.0750522 0.00145982 0)
(0.0745567 0.00162902 0)
(0.0739211 0.00180908 0)
(0.07314 0.00199459 0)
(0.0722091 0.00218132 0)
(0.0711259 0.00236609 0)
(0.0698898 0.0025465 0)
(0.0685021 0.00272079 0)
(0.0669638 0.00288805 0)
(0.0652758 0.00304803 0)
(0.0634393 0.00320046 0)
(0.0614554 0.00334476 0)
(0.0593247 0.00348035 0)
(0.0570484 0.00360671 0)
(0.0546288 0.00372266 0)
(0.0520694 0.0038269 0)
(0.0493743 0.00391877 0)
(0.0465487 0.00399852 0)
(0.0435988 0.00406645 0)
(0.040532 0.00412217 0)
(0.0373563 0.00416567 0)
(0.03408 0.00419725 0)
(0.0307136 0.00421729 0)
(0.0272631 0.00422936 0)
(0.0237504 0.00422954 0)
(0.0201431 0.00422548 0)
(0.0165247 0.00421195 0)
(0.0127086 0.00420763 0)
(0.00901486 0.00409431 0)
(0.00522873 0.00396283 0)
(0.00227223 0.00472478 0)
(-0.00052569 -0.000125778 0)
(0.00037496 -0.00461054 0)
(0.00204672 -0.004099 0)
(0.00285283 -0.00283632 0)
(0.00353896 -0.0021864 0)
(0.00388634 -0.00198946 0)
(0.00431333 -0.0019357 0)
(0.00470468 -0.0018644 0)
(0.00508199 -0.00176222 0)
(0.00542357 -0.00164765 0)
(0.00572246 -0.00153628 0)
(0.00598333 -0.00143105 0)
(0.00620851 -0.00133428 0)
(0.00640011 -0.00124611 0)
(0.0065647 -0.00116773 0)
(0.00670232 -0.00109916 0)
(0.00682076 -0.0010424 0)
(0.00692441 -0.000998348 0)
(0.00701467 -0.000964524 0)
(0.00709762 -0.000941433 0)
(0.0071736 -0.000930553 0)
(0.00725334 -0.000932914 0)
(0.00733623 -0.000940689 0)
(0.00742808 -0.00096296 0)
(0.00753362 -0.000993475 0)
(0.0076466 -0.00103258 0)
(0.00778173 -0.00107971 0)
(0.00793875 -0.00113747 0)
(0.00811334 -0.00120125 0)
(0.0083139 -0.00127211 0)
(0.00853976 -0.00134648 0)
(0.00879428 -0.00142844 0)
(0.00907702 -0.00151105 0)
(0.00939163 -0.00159413 0)
(0.00974096 -0.00166699 0)
(0.0101296 -0.00172916 0)
(0.0105565 -0.00178595 0)
(0.0110188 -0.0018364 0)
(0.0115301 -0.00188628 0)
(0.0120862 -0.0019445 0)
(0.0126871 -0.00200073 0)
(0.0133387 -0.00204765 0)
(0.0140446 -0.00208199 0)
(0.0147988 -0.00211692 0)
(0.0155911 -0.00215235 0)
(0.0164239 -0.00218744 0)
(0.017293 -0.00221777 0)
(0.018197 -0.00224914 0)
(0.0191275 -0.0022913 0)
(0.0200702 -0.00235398 0)
(0.0210168 -0.00243855 0)
(0.0219647 -0.00254324 0)
(0.0229142 -0.00266231 0)
(0.0238681 -0.0027871 0)
(0.0248302 -0.00290976 0)
(0.0258033 -0.00302573 0)
(0.0267896 -0.00313306 0)
(0.0277892 -0.00323072 0)
(0.0288005 -0.00331963 0)
(0.0298239 -0.00340093 0)
(0.0308595 -0.00347514 0)
(0.0319057 -0.00354299 0)
(0.0329603 -0.00360351 0)
(0.0340235 -0.00365738 0)
(0.035095 -0.0037052 0)
(0.0361733 -0.00374671 0)
(0.037257 -0.00378186 0)
(0.0383456 -0.00381081 0)
(0.0394382 -0.00383384 0)
(0.0405332 -0.00385091 0)
(0.0416298 -0.00386202 0)
(0.0427273 -0.00386708 0)
(0.0438246 -0.00386629 0)
(0.0449202 -0.00385991 0)
(0.0460131 -0.00384781 0)
(0.0471023 -0.00382999 0)
(0.0481866 -0.00380668 0)
(0.0492646 -0.00377807 0)
(0.0503352 -0.00374399 0)
(0.0513977 -0.00370375 0)
(0.0524508 -0.00365634 0)
(0.0534936 -0.00360082 0)
(0.054525 -0.00353616 0)
(0.0555438 -0.00346109 0)
(0.0565486 -0.00337441 0)
(0.0575382 -0.00327501 0)
(0.0585114 -0.00316172 0)
(0.0594668 -0.00303333 0)
(0.0604026 -0.00288867 0)
(0.0613176 -0.00272637 0)
(0.0622108 -0.00254486 0)
(0.063082 -0.00234249 0)
(0.0639309 -0.00211762 0)
(0.0647569 -0.00186962 0)
(0.0655596 -0.0015991 0)
(0.066339 -0.00130851 0)
(0.0670997 -0.00100145 0)
(0.0678568 -0.000678088 0)
(0.0686273 -0.000325412 0)
(0.0694182 5.59353e-05 0)
(0.0702324 0.000437777 0)
(0.0710628 0.000780605 0)
(0.0718889 0.00105061 0)
(0.072687 0.00123033 0)
(0.0734306 0.00131819 0)
(0.0740951 0.00132648 0)
(0.0746605 0.00127492 0)
(0.0751116 0.00118458 0)
(0.0754373 0.00107295 0)
(0.0756293 0.000955218 0)
(0.0756806 0.000847748 0)
(0.0755863 0.000769811 0)
(0.0753475 0.000741296 0)
(0.074974 0.000777204 0)
(0.0744819 0.000882602 0)
(0.0738902 0.00105126 0)
(0.0732169 0.00126867 0)
(0.0724773 0.00151792 0)
(0.0716823 0.00178559 0)
(0.0708388 0.0020649 0)
(0.0699498 0.00235503 0)
(0.0690152 0.00265852 0)
(0.0680323 0.00297762 0)
(0.0669954 0.00331129 0)
(0.0658971 0.00365517 0)
(0.0647289 0.00400377 0)
(0.0634823 0.004353 0)
(0.0621492 0.00470122 0)
(0.060722 0.00504859 0)
(0.0591934 0.00539571 0)
(0.0575563 0.00574252 0)
(0.0558038 0.00608838 0)
(0.0539292 0.00643212 0)
(0.051925 0.00677146 0)
(0.0497841 0.00710353 0)
(0.0475011 0.00742549 0)
(0.0450722 0.007735 0)
(0.042494 0.00802923 0)
(0.0397647 0.00830512 0)
(0.0368849 0.00855969 0)
(0.033856 0.00879069 0)
(0.0306847 0.00899699 0)
(0.027374 0.00917814 0)
(0.023947 0.0093331 0)
(0.0203701 0.00946933 0)
(0.0167304 0.00959889 0)
(0.0128417 0.00972013 0)
(0.00910911 0.00956165 0)
(0.00539337 0.00895542 0)
(0.00259223 0.0103415 0)
(-0.000534813 -0.000134352 0)
(0.000624683 -0.00666142 0)
(0.00258284 -0.0060856 0)
(0.003747 -0.00418996 0)
(0.0047267 -0.00311433 0)
(0.00537008 -0.00275998 0)
(0.00602949 -0.00269216 0)
(0.00665891 -0.00260915 0)
(0.00726432 -0.00246581 0)
(0.00782823 -0.00229235 0)
(0.00834068 -0.00211621 0)
(0.0088016 -0.00195049 0)
(0.00921606 -0.00179728 0)
(0.00958547 -0.00165757 0)
(0.00991276 -0.00153115 0)
(0.0102016 -0.00142111 0)
(0.0104525 -0.00132489 0)
(0.0106728 -0.00124868 0)
(0.0108668 -0.00118705 0)
(0.0110379 -0.00114347 0)
(0.0111855 -0.00111609 0)
(0.0113207 -0.00110372 0)
(0.0114485 -0.00110863 0)
(0.0115658 -0.00112339 0)
(0.0116792 -0.00115478 0)
(0.0117949 -0.00120068 0)
(0.0119138 -0.00125352 0)
(0.0120427 -0.00131706 0)
(0.0121864 -0.00138675 0)
(0.0123386 -0.00146252 0)
(0.012507 -0.00154318 0)
(0.0126942 -0.00162293 0)
(0.012896 -0.00170401 0)
(0.0131208 -0.00178639 0)
(0.0133737 -0.00186714 0)
(0.013651 -0.00194347 0)
(0.0139595 -0.00202231 0)
(0.0143024 -0.00210204 0)
(0.0146821 -0.00217916 0)
(0.0150931 -0.00226444 0)
(0.0155424 -0.00235043 0)
(0.0160316 -0.0024401 0)
(0.0165522 -0.00253156 0)
(0.0171107 -0.00263419 0)
(0.0177057 -0.0027437 0)
(0.0183404 -0.00286258 0)
(0.0190154 -0.00298974 0)
(0.0197274 -0.00312252 0)
(0.0204806 -0.00326183 0)
(0.0212733 -0.00340746 0)
(0.0220969 -0.00355816 0)
(0.0229458 -0.00371248 0)
(0.0238163 -0.00386854 0)
(0.0247058 -0.00402334 0)
(0.0256132 -0.0041741 0)
(0.0265385 -0.00431867 0)
(0.0274832 -0.00445505 0)
(0.0284477 -0.00458325 0)
(0.0294319 -0.00470254 0)
(0.0304361 -0.00481273 0)
(0.0314589 -0.00491403 0)
(0.0325001 -0.00500698 0)
(0.0335583 -0.00509133 0)
(0.034631 -0.00516684 0)
(0.0357181 -0.00523387 0)
(0.0368187 -0.00529252 0)
(0.0379307 -0.0053428 0)
(0.0390524 -0.00538458 0)
(0.0401823 -0.00541835 0)
(0.0413191 -0.00544409 0)
(0.0424612 -0.00546169 0)
(0.0436066 -0.00547105 0)
(0.0447538 -0.00547221 0)
(0.0459014 -0.00546539 0)
(0.0470472 -0.00545049 0)
(0.0481893 -0.00542745 0)
(0.0493256 -0.00539638 0)
(0.0504543 -0.00535715 0)
(0.0515731 -0.00530943 0)
(0.0526801 -0.005253 0)
(0.053773 -0.00518701 0)
(0.0548493 -0.00511052 0)
(0.0559074 -0.00502285 0)
(0.0569456 -0.00492286 0)
(0.0579622 -0.00480924 0)
(0.0589556 -0.00468085 0)
(0.0599241 -0.00453684 0)
(0.0608662 -0.00437603 0)
(0.0617807 -0.00419734 0)
(0.0626665 -0.00399996 0)
(0.0635228 -0.00378281 0)
(0.0643491 -0.0035449 0)
(0.0651447 -0.00328538 0)
(0.06591 -0.00300354 0)
(0.0666468 -0.00269879 0)
(0.0673575 -0.00237036 0)
(0.0680458 -0.00201758 0)
(0.0687155 -0.00164284 0)
(0.0693671 -0.00125568 0)
(0.0700014 -0.000868696 0)
(0.0706177 -0.000493106 0)
(0.0712106 -0.000141115 0)
(0.071768 0.000180389 0)
(0.0722686 0.000468422 0)
(0.0726884 0.000723741 0)
(0.0730071 0.000950209 0)
(0.0732101 0.00115373 0)
(0.0732873 0.00133947 0)
(0.0732317 0.00151214 0)
(0.0730409 0.00167593 0)
(0.0727149 0.00183481 0)
(0.0722565 0.00199377 0)
(0.0716731 0.00215905 0)
(0.0709768 0.00233724 0)
(0.0701823 0.00253398 0)
(0.0693038 0.00275278 0)
(0.0683524 0.00299425 0)
(0.0673343 0.00325634 0)
(0.0662526 0.0035359 0)
(0.0651086 0.00383014 0)
(0.0639035 0.00413781 0)
(0.0626401 0.00445937 0)
(0.0613222 0.00479662 0)
(0.0599538 0.00515127 0)
(0.0585376 0.00552358 0)
(0.0570745 0.00591239 0)
(0.0555638 0.00631581 0)
(0.0540037 0.00673177 0)
(0.052392 0.00715887 0)
(0.0507272 0.00759651 0)
(0.0490073 0.00804456 0)
(0.0472292 0.00850297 0)
(0.045389 0.00897077 0)
(0.0434826 0.00944606 0)
(0.0415049 0.00992602 0)
(0.0394496 0.0104073 0)
(0.0373103 0.0108857 0)
(0.0350815 0.0113573 0)
(0.032758 0.0118171 0)
(0.0303355 0.0122593 0)
(0.0278101 0.0126791 0)
(0.025181 0.0130715 0)
(0.0224482 0.0134304 0)
(0.0196232 0.0137602 0)
(0.0166687 0.0140784 0)
(0.013646 0.0144032 0)
(0.010388 0.0145992 0)
(0.00742738 0.0141471 0)
(0.00460971 0.0130054 0)
(0.0024899 0.0155482 0)
(-0.000546463 -0.000234806 0)
(0.000713452 -0.0089361 0)
(0.0027661 -0.00833196 0)
(0.0040564 -0.00586331 0)
(0.00515881 -0.00434811 0)
(0.00591787 -0.00380905 0)
(0.00665316 -0.003681 0)
(0.00735737 -0.0035614 0)
(0.00802149 -0.00336477 0)
(0.00863736 -0.00312004 0)
(0.00919625 -0.00286749 0)
(0.00969769 -0.00262683 0)
(0.0101438 -0.00240117 0)
(0.0105371 -0.00219305 0)
(0.0108815 -0.00200379 0)
(0.0111801 -0.00183356 0)
(0.0114345 -0.00168509 0)
(0.0116519 -0.00155775 0)
(0.0118362 -0.00145434 0)
(0.0119881 -0.0013736 0)
(0.0121139 -0.00131745 0)
(0.0122187 -0.00127971 0)
(0.0123121 -0.00126552 0)
(0.0123948 -0.00127389 0)
(0.0124651 -0.00129888 0)
(0.0125345 -0.00134132 0)
(0.0126115 -0.00140219 0)
(0.0126932 -0.00147704 0)
(0.0127801 -0.00156775 0)
(0.0128774 -0.0016706 0)
(0.0129952 -0.00178728 0)
(0.0131351 -0.00191106 0)
(0.0132898 -0.00204163 0)
(0.0134718 -0.00217494 0)
(0.0136909 -0.0023135 0)
(0.0139404 -0.00245524 0)
(0.0142201 -0.00259745 0)
(0.0145418 -0.00274206 0)
(0.014902 -0.0028873 0)
(0.0153004 -0.00303611 0)
(0.0157454 -0.00318137 0)
(0.0162351 -0.00333233 0)
(0.0167666 -0.00348071 0)
(0.0173402 -0.00362829 0)
(0.0179544 -0.00377623 0)
(0.0186047 -0.00392474 0)
(0.019293 -0.00407677 0)
(0.0200185 -0.00423301 0)
(0.0207781 -0.0043942 0)
(0.0215697 -0.0045613 0)
(0.0223913 -0.00473374 0)
(0.0232405 -0.00491099 0)
(0.0241155 -0.00509075 0)
(0.025015 -0.00526952 0)
(0.0259371 -0.00544464 0)
(0.0268811 -0.0056146 0)
(0.0278467 -0.00577706 0)
(0.028833 -0.00593176 0)
(0.0298397 -0.00607695 0)
(0.0308663 -0.00621257 0)
(0.031912 -0.00633879 0)
(0.0329756 -0.00645485 0)
(0.0340558 -0.00656128 0)
(0.0351513 -0.00665746 0)
(0.036261 -0.00674301 0)
(0.0373836 -0.00681828 0)
(0.0385173 -0.00688332 0)
(0.0396604 -0.00693801 0)
(0.0408111 -0.00698219 0)
(0.0419677 -0.00701561 0)
(0.0431289 -0.00703841 0)
(0.0442927 -0.00705078 0)
(0.045457 -0.0070525 0)
(0.0466198 -0.00704343 0)
(0.0477796 -0.00702357 0)
(0.0489343 -0.00699277 0)
(0.0500818 -0.0069508 0)
(0.0512199 -0.00689746 0)
(0.0523462 -0.00683251 0)
(0.0534588 -0.00675541 0)
(0.0545556 -0.00666563 0)
(0.055634 -0.00656246 0)
(0.0566918 -0.00644496 0)
(0.0577279 -0.0063122 0)
(0.0587404 -0.00616327 0)
(0.0597273 -0.00599732 0)
(0.0606875 -0.00581347 0)
(0.0616199 -0.0056109 0)
(0.0625227 -0.00538874 0)
(0.0633946 -0.0051462 0)
(0.0642351 -0.00488258 0)
(0.0650439 -0.00459743 0)
(0.0658203 -0.00429024 0)
(0.0665638 -0.00396066 0)
(0.0672747 -0.00360905 0)
(0.0679538 -0.00323658 0)
(0.0686019 -0.00284531 0)
(0.0692188 -0.00243925 0)
(0.069804 -0.00202333 0)
(0.0703562 -0.00160251 0)
(0.0708724 -0.00118359 0)
(0.0713465 -0.000774072 0)
(0.0717697 -0.000381834 0)
(0.072132 -1.32068e-05 0)
(0.0724224 0.000330292 0)
(0.0726305 0.000649066 0)
(0.0727468 0.000945386 0)
(0.0727632 0.00122498 0)
(0.0726761 0.00149521 0)
(0.0724826 0.00176323 0)
(0.0721794 0.00203628 0)
(0.0717642 0.00232193 0)
(0.071236 0.00262677 0)
(0.0705955 0.00295518 0)
(0.0698455 0.00330924 0)
(0.0689893 0.00368848 0)
(0.0680304 0.00408986 0)
(0.0669724 0.00450888 0)
(0.0658183 0.00494098 0)
(0.0645703 0.00538254 0)
(0.0632301 0.00583119 0)
(0.0618002 0.00628581 0)
(0.0602847 0.00674644 0)
(0.0586886 0.00721344 0)
(0.0570179 0.00768676 0)
(0.0552785 0.00816609 0)
(0.0534756 0.00865103 0)
(0.051614 0.0091412 0)
(0.0496984 0.00963673 0)
(0.0477333 0.0101382 0)
(0.0457227 0.0106467 0)
(0.0436706 0.0111633 0)
(0.0415805 0.011689 0)
(0.0394553 0.0122237 0)
(0.0372971 0.0127658 0)
(0.0351068 0.0133135 0)
(0.0328847 0.0138638 0)
(0.0306302 0.0144134 0)
(0.028342 0.0149574 0)
(0.0260184 0.0154896 0)
(0.0236574 0.0160033 0)
(0.021257 0.0164907 0)
(0.0188191 0.0169456 0)
(0.0163457 0.0173827 0)
(0.0137981 0.0178365 0)
(0.0112234 0.0182914 0)
(0.00850053 0.0184131 0)
(0.00617155 0.0175143 0)
(0.00400575 0.0160168 0)
(0.00227574 0.0200791 0)
(-0.000553912 -0.000362689 0)
(0.000757769 -0.0112767 0)
(0.00289064 -0.0106482 0)
(0.00426372 -0.00758507 0)
(0.00541098 -0.00561864 0)
(0.00620232 -0.00488189 0)
(0.00694406 -0.00467446 0)
(0.00764798 -0.00450547 0)
(0.00830446 -0.00424476 0)
(0.00890873 -0.0039227 0)
(0.00944818 -0.00358793 0)
(0.00992486 -0.00326603 0)
(0.0103421 -0.0029642 0)
(0.0106998 -0.00268212 0)
(0.0110058 -0.00242456 0)
(0.0112639 -0.00218968 0)
(0.011476 -0.00198333 0)
(0.0116486 -0.00180304 0)
(0.0117865 -0.00165622 0)
(0.0118942 -0.00153622 0)
(0.0119779 -0.00144696 0)
(0.0120447 -0.00138638 0)
(0.0120929 -0.00135193 0)
(0.0121356 -0.00134756 0)
(0.0121773 -0.00137076 0)
(0.012216 -0.00141264 0)
(0.0122599 -0.00147681 0)
(0.0123144 -0.0015635 0)
(0.0123842 -0.00166915 0)
(0.0124644 -0.00179079 0)
(0.0125677 -0.00192421 0)
(0.0127002 -0.00207052 0)
(0.0128554 -0.00222885 0)
(0.0130388 -0.0023912 0)
(0.0132537 -0.00256365 0)
(0.0135035 -0.00274352 0)
(0.0137896 -0.00292577 0)
(0.0141132 -0.00311357 0)
(0.0144751 -0.00330558 0)
(0.0148774 -0.00350166 0)
(0.0153196 -0.00370031 0)
(0.0158059 -0.003904 0)
(0.0163377 -0.00411413 0)
(0.0169089 -0.0043257 0)
(0.0175207 -0.0045414 0)
(0.0181739 -0.00476003 0)
(0.0188672 -0.00498076 0)
(0.0195982 -0.0052037 0)
(0.0203675 -0.00542854 0)
(0.0211735 -0.00565424 0)
(0.0220103 -0.00587958 0)
(0.022875 -0.00610384 0)
(0.0237685 -0.00632485 0)
(0.0246892 -0.00654124 0)
(0.0256332 -0.0067509 0)
(0.0266001 -0.00695245 0)
(0.0275891 -0.00714602 0)
(0.0285999 -0.00733034 0)
(0.0296319 -0.00750404 0)
(0.0306829 -0.00766648 0)
(0.0317524 -0.00781786 0)
(0.0328397 -0.00795782 0)
(0.033943 -0.00808579 0)
(0.035061 -0.00820138 0)
(0.0361924 -0.00830457 0)
(0.0373355 -0.00839539 0)
(0.0384888 -0.00847361 0)
(0.0396506 -0.00853928 0)
(0.0408196 -0.00859206 0)
(0.0419939 -0.0086316 0)
(0.0431711 -0.00865809 0)
(0.0443496 -0.00867164 0)
(0.0455282 -0.00867201 0)
(0.0467049 -0.00865891 0)
(0.0478777 -0.0086322 0)
(0.0490448 -0.00859186 0)
(0.0502041 -0.0085377 0)
(0.0513538 -0.00846934 0)
(0.0524919 -0.0083866 0)
(0.0536167 -0.00828862 0)
(0.0547258 -0.00817506 0)
(0.0558176 -0.00804562 0)
(0.0568903 -0.00789939 0)
(0.0579425 -0.00773561 0)
(0.0589724 -0.00755367 0)
(0.0599785 -0.00735292 0)
(0.0609594 -0.00713244 0)
(0.061914 -0.00689159 0)
(0.0628409 -0.00662982 0)
(0.0637393 -0.00634647 0)
(0.0646079 -0.006041 0)
(0.0654462 -0.00571301 0)
(0.0662532 -0.00536249 0)
(0.0670282 -0.00498969 0)
(0.0677707 -0.00459493 0)
(0.0684803 -0.00417918 0)
(0.0691568 -0.00374429 0)
(0.0697991 -0.00329273 0)
(0.070406 -0.00282753 0)
(0.070975 -0.00235252 0)
(0.071503 -0.00187229 0)
(0.0719848 -0.00139146 0)
(0.0724145 -0.000914087 0)
(0.0727846 -0.00044304 0)
(0.0730849 2.00946e-05 0)
(0.0733039 0.000475539 0)
(0.0734352 0.000925743 0)
(0.0734749 0.00137289 0)
(0.073415 0.00181931 0)
(0.0732492 0.00226753 0)
(0.0729744 0.00272016 0)
(0.0725889 0.00317979 0)
(0.0720917 0.00364914 0)
(0.0714837 0.00413066 0)
(0.0707676 0.00462605 0)
(0.0699459 0.00513584 0)
(0.0690205 0.00565977 0)
(0.0679931 0.00619663 0)
(0.0668654 0.00674427 0)
(0.0656379 0.00730049 0)
(0.064311 0.00786349 0)
(0.0628853 0.00843182 0)
(0.0613623 0.00900416 0)
(0.0597438 0.00957944 0)
(0.0580329 0.0101567 0)
(0.0562342 0.0107347 0)
(0.054352 0.0113125 0)
(0.0523911 0.0118896 0)
(0.0503568 0.0124655 0)
(0.0482548 0.0130401 0)
(0.0460911 0.0136138 0)
(0.0438725 0.0141871 0)
(0.041606 0.0147611 0)
(0.0392992 0.015336 0)
(0.0369592 0.0159115 0)
(0.0345927 0.0164867 0)
(0.0322058 0.0170601 0)
(0.029804 0.0176294 0)
(0.0273914 0.0181913 0)
(0.0249716 0.0187412 0)
(0.0225482 0.0192723 0)
(0.0201225 0.0197757 0)
(0.0176985 0.0202488 0)
(0.0152767 0.0207156 0)
(0.0128295 0.0212222 0)
(0.0104014 0.0217043 0)
(0.00789517 0.021662 0)
(0.00576266 0.0203296 0)
(0.0037676 0.0186126 0)
(0.00209889 0.02417 0)
(-0.000565237 -0.000510342 0)
(0.000799038 -0.0137164 0)
(0.00305404 -0.0131085 0)
(0.00456877 -0.0094192 0)
(0.00578762 -0.00694559 0)
(0.00661439 -0.00596753 0)
(0.00735973 -0.00566517 0)
(0.00806075 -0.00543795 0)
(0.00870816 -0.00510443 0)
(0.00929601 -0.00469486 0)
(0.0098135 -0.0042691 0)
(0.0102592 -0.00385756 0)
(0.0106397 -0.00347123 0)
(0.0109556 -0.00311221 0)
(0.0112158 -0.00278061 0)
(0.0114248 -0.00248014 0)
(0.0115867 -0.00221453 0)
(0.0117064 -0.0019837 0)
(0.0117938 -0.00179281 0)
(0.011854 -0.00163704 0)
(0.0118874 -0.00151785 0)
(0.011908 -0.00143813 0)
(0.0119171 -0.00139387 0)
(0.0119153 -0.00137941 0)
(0.011919 -0.00140424 0)
(0.0119306 -0.0014547 0)
(0.0119466 -0.00153419 0)
(0.0119743 -0.0016402 0)
(0.0120183 -0.00177008 0)
(0.0120842 -0.00192164 0)
(0.0121768 -0.0020899 0)
(0.0122932 -0.00227702 0)
(0.012438 -0.00247871 0)
(0.0126137 -0.00269441 0)
(0.0128229 -0.00291938 0)
(0.0130734 -0.00315334 0)
(0.0133571 -0.00339539 0)
(0.0136802 -0.00364493 0)
(0.0140434 -0.00389708 0)
(0.0144468 -0.00415652 0)
(0.0148946 -0.00441591 0)
(0.015381 -0.00467756 0)
(0.0159137 -0.00494348 0)
(0.0164909 -0.00521254 0)
(0.0171061 -0.00547917 0)
(0.0177604 -0.00574565 0)
(0.0184541 -0.00601209 0)
(0.0191854 -0.00627833 0)
(0.0199528 -0.00654385 0)
(0.0207553 -0.00680875 0)
(0.0215902 -0.00707208 0)
(0.0224561 -0.00733199 0)
(0.0233522 -0.00758751 0)
(0.0242773 -0.00783754 0)
(0.0252298 -0.00808021 0)
(0.0262061 -0.00831372 0)
(0.0272055 -0.00853793 0)
(0.0282291 -0.00875115 0)
(0.0292755 -0.00895303 0)
(0.030342 -0.00914191 0)
(0.0314271 -0.00931772 0)
(0.0325307 -0.00948058 0)
(0.0336514 -0.00962965 0)
(0.0347869 -0.00976441 0)
(0.0359356 -0.00988464 0)
(0.0370965 -0.0099901 0)
(0.0382676 -0.0100807 0)
(0.0394476 -0.0101565 0)
(0.0406349 -0.010217 0)
(0.0418274 -0.0102623 0)
(0.043023 -0.0102921 0)
(0.0442204 -0.0103063 0)
(0.0454179 -0.0103048 0)
(0.0466137 -0.0102875 0)
(0.0478059 -0.0102541 0)
(0.0489926 -0.0102044 0)
(0.0501723 -0.0101384 0)
(0.0513431 -0.0100557 0)
(0.0525034 -0.00995606 0)
(0.0536514 -0.00983893 0)
(0.0547849 -0.00970396 0)
(0.0559023 -0.00955052 0)
(0.0570023 -0.00937798 0)
(0.0580835 -0.00918583 0)
(0.059144 -0.0089735 0)
(0.0601825 -0.00874032 0)
(0.0611978 -0.00848569 0)
(0.0621884 -0.00820902 0)
(0.0631527 -0.00790964 0)
(0.0640895 -0.00758709 0)
(0.0649978 -0.00724095 0)
(0.0658765 -0.006871 0)
(0.0667241 -0.00647726 0)
(0.0675397 -0.00605992 0)
(0.0683222 -0.00561944 0)
(0.0690702 -0.0051567 0)
(0.0697822 -0.00467318 0)
(0.0704565 -0.00417101 0)
(0.0710907 -0.0036527 0)
(0.0716817 -0.00312113 0)
(0.0722257 -0.00257946 0)
(0.0727179 -0.00203096 0)
(0.0731523 -0.00147857 0)
(0.0735224 -0.00092472 0)
(0.0738215 -0.000371024 0)
(0.0740448 0.00018323 0)
(0.0741848 0.000740492 0)
(0.0742327 0.00130152 0)
(0.0741848 0.00186794 0)
(0.0740384 0.00244239 0)
(0.0737902 0.00302779 0)
(0.0734377 0.00362654 0)
(0.0729798 0.00424034 0)
(0.0724159 0.00487059 0)
(0.071746 0.00551793 0)
(0.0709709 0.00618167 0)
(0.0700917 0.00686025 0)
(0.0691089 0.00755168 0)
(0.0680235 0.00825349 0)
(0.0668367 0.00896294 0)
(0.0655491 0.00967749 0)
(0.0641617 0.0103949 0)
(0.0626757 0.0111128 0)
(0.0610928 0.0118295 0)
(0.059415 0.012543 0)
(0.0576444 0.0132517 0)
(0.0557836 0.0139539 0)
(0.0538363 0.0146484 0)
(0.051806 0.0153343 0)
(0.049697 0.0160107 0)
(0.0475143 0.0166772 0)
(0.0452641 0.0173335 0)
(0.0429529 0.0179793 0)
(0.0405877 0.0186147 0)
(0.0381762 0.0192393 0)
(0.0357265 0.0198526 0)
(0.0332465 0.0204535 0)
(0.030744 0.0210403 0)
(0.0282264 0.0216108 0)
(0.0257001 0.0221622 0)
(0.0231714 0.0226886 0)
(0.0206452 0.0231815 0)
(0.0181277 0.0236405 0)
(0.0156232 0.0240958 0)
(0.0131136 0.0246004 0)
(0.0106424 0.0250611 0)
(0.00811129 0.0248739 0)
(0.00587071 0.0231919 0)
(0.003763 0.0212541 0)
(0.00200587 0.0280989 0)
(-0.000590781 -0.000672612 0)
(0.00083772 -0.0162987 0)
(0.00325881 -0.0157939 0)
(0.00497881 -0.0114449 0)
(0.00632236 -0.00837554 0)
(0.0072167 -0.00708703 0)
(0.00797841 -0.00666116 0)
(0.0086814 -0.00636534 0)
(0.00932709 -0.00595409 0)
(0.00990471 -0.00544863 0)
(0.0104034 -0.00491834 0)
(0.0108231 -0.00440554 0)
(0.0111661 -0.00392585 0)
(0.0114394 -0.00348035 0)
(0.0116522 -0.00306988 0)
(0.0118073 -0.00270106 0)
(0.0119135 -0.00237477 0)
(0.0119751 -0.00209247 0)
(0.0120036 -0.00185552 0)
(0.0120084 -0.00166702 0)
(0.0119853 -0.00152335 0)
(0.0119486 -0.00142583 0)
(0.0119085 -0.00137157 0)
(0.0118593 -0.00135831 0)
(0.0118167 -0.00138269 0)
(0.0117863 -0.00144625 0)
(0.011761 -0.00154415 0)
(0.0117546 -0.00167225 0)
(0.0117708 -0.00182852 0)
(0.0118083 -0.00201119 0)
(0.0118737 -0.00221517 0)
(0.0119712 -0.00244256 0)
(0.0120981 -0.00268455 0)
(0.0122602 -0.00294385 0)
(0.0124603 -0.00321398 0)
(0.0126967 -0.0034965 0)
(0.0129703 -0.00378937 0)
(0.0132881 -0.00409002 0)
(0.0136436 -0.00439664 0)
(0.0140422 -0.00470769 0)
(0.0144865 -0.00502464 0)
(0.0149681 -0.00534263 0)
(0.0154927 -0.00566383 0)
(0.016065 -0.00599049 0)
(0.0166812 -0.00631828 0)
(0.0173344 -0.0066445 0)
(0.0180269 -0.00696832 0)
(0.0187575 -0.00729087 0)
(0.0195263 -0.00761086 0)
(0.020332 -0.00792698 0)
(0.0211717 -0.00823873 0)
(0.022043 -0.00854395 0)
(0.0229456 -0.00884212 0)
(0.0238791 -0.00913206 0)
(0.0248413 -0.00941292 0)
(0.0258292 -0.00968335 0)
(0.026842 -0.00994144 0)
(0.0278796 -0.0101864 0)
(0.0289411 -0.010418 0)
(0.0300243 -0.0106357 0)
(0.0311263 -0.0108383 0)
(0.0322471 -0.0110254 0)
(0.033386 -0.0111966 0)
(0.0345407 -0.0113517 0)
(0.0357093 -0.0114898 0)
(0.0368903 -0.011611 0)
(0.0380819 -0.0117152 0)
(0.0392826 -0.011802 0)
(0.0404911 -0.0118712 0)
(0.0417053 -0.0119231 0)
(0.0429233 -0.0119569 0)
(0.0441434 -0.0119725 0)
(0.0453638 -0.0119701 0)
(0.0465832 -0.0119496 0)
(0.0477998 -0.0119106 0)
(0.0490114 -0.011853 0)
(0.0502163 -0.0117764 0)
(0.0514131 -0.0116807 0)
(0.0526 -0.0115656 0)
(0.0537753 -0.0114308 0)
(0.0549372 -0.0112761 0)
(0.0560844 -0.0111006 0)
(0.0572153 -0.0109039 0)
(0.0583281 -0.0106855 0)