/*--------------------------------*- C++ -*----------------------------------*\
| =========                 |                                                 |
| \\      /  F ield         | OpenFOAM: The Open Source CFD Toolbox           |
|  \\    /   O peration     | Version:  v2006                                 |
|   \\  /    A nd           | Website:  www.openfoam.com                      |
|    \\/     M anipulation  |                                                 |
\*---------------------------------------------------------------------------*/
FoamFile
{
    version     2.0;
    format      ascii;
    class       volScalarField;
    location    "19.5";
    object      p;
}
// * * * * * * * * * * * * * * * * * * * * * * * * * * * * * * * * * * * * * //

dimensions      [1 -1 -2 0 0 0 0];


internalField   nonuniform List<scalar> 
52500
(
30805.7
30805.5
30805.2
30804.7
30804.1
30803.3
30802.3
30801.2
30799.9
30798.4
30796.9
30795.1
30793.2
30791.2
30789
30786.6
30784.1
30781.5
30778.7
30775.7
30772.7
30769.5
30766.1
30762.6
30759
30755.3
30751.4
30747.4
30743.3
30739
30734.7
30730.2
30725.6
30720.9
30716.1
30711.2
30706.2
30701.1
30696
30690.7
30685.4
30679.9
30674.5
30668.9
30663.3
30657.6
30651.9
30646.1
30640.2
30634.4
30628.5
30622.5
30616.6
30610.6
30604.6
30598.6
30592.6
30586.6
30580.6
30574.6
30568.7
30562.7
30556.8
30550.9
30545
30539.2
30533.4
30527.6
30521.9
30516.3
30510.7
30505.2
30499.8
30494.4
30489.2
30484
30478.9
30473.9
30468.9
30464.1
30459.4
30454.8
30450.4
30446
30441.8
30437.7
30433.7
30429.8
30426.1
30422.5
30419.1
30415.8
30412.7
30409.7
30406.8
30404.2
30401.6
30399.3
30397
30395
30393.1
30391.4
30389.8
30388.4
30387.2
30386.1
30385.3
30384.5
30384
30383.6
30383.4
30383.3
30383.5
30383.7
30384.2
30384.8
30385.6
30386.5
30387.6
30388.8
30390.2
30391.8
30393.5
30395.4
30397.4
30399.5
30401.8
30404.2
30406.8
30409.5
30412.3
30415.3
30418.4
30421.5
30424.9
30428.3
30431.8
30435.4
30439.2
30443
30446.9
30450.9
30455
30459.1
30463.3
30467.6
30472
30476.4
30480.9
30485.4
30490
30494.6
30499.3
30503.9
30508.6
30513.4
30518.1
30522.8
30527.6
30532.3
30537
30541.8
30546.4
30551.1
30555.7
30560.4
30564.9
30569.5
30574
30578.5
30582.9
30587.3
30591.6
30595.8
30600
30604.1
30608.1
30612
30615.9
30619.6
30623.3
30626.8
30630.2
30633.6
30636.8
30639.9
30642.9
30645.8
30648.5
30651.1
30653.6
30655.9
30658.1
30660.1
30662
30663.7
30665.3
30666.7
30667.9
30669
30669.9
30670.7
30671.2
30671.6
30671.8
30671.8
30671.6
30671.3
30670.8
30670
30669.1
30668
30666.6
30665.1
30663.4
30661.5
30659.4
30657
30654.5
30651.7
30648.8
30645.6
30642.3
30638.7
30634.9
30630.9
30626.7
30622.3
30617.6
30612.8
30607.8
30602.5
30597
30591.3
30585.5
30579.4
30573.1
30566.6
30559.8
30552.9
30545.8
30538.5
30531
30523.3
30515.4
30507.3
30499.1
30490.6
30482
30473.1
30464.1
30455
30445.6
30436.1
30426.4
30416.6
30406.6
30396.5
30386.1
30375.7
30365.1
30354.4
30343.5
30332.5
30321.4
30310.1
30298.8
30287.3
30275.7
30264
30252.2
30240.3
30228.4
30216.3
30204.1
30191.9
30179.6
30167.2
30154.7
30142.2
30129.7
30117.2
30104.8
30092.3
30079.9
30067.5
30055.1
30042.7
30030.3
30017.9
30005.5
29993.2
29980.9
29968.6
29956.4
29944.3
29932.2
29920.3
29908.3
29896.5
29884.8
29873.2
29861.7
29850.3
29839.1
29828
29817
29806.1
29795.4
29784.9
29774.5
29764.3
29754.3
29744.5
29734.8
29725.3
29716.1
29707
29698.2
29689.5
29681.1
29672.9
29665
29657.3
29649.8
29642.6
29635.6
29628.9
29622.4
29616.2
29610.3
29604.7
29599.3
29594.2
29589.4
29584.9
29580.7
29576.7
29573.1
29569.7
29566.7
29563.9
29561.5
29559.4
29557.5
29556
29554.8
29553.8
29553.2
29552.9
30348
30347.9
30347.6
30347.1
30346.4
30345.6
30344.7
30343.5
30342.3
30340.8
30339.2
30337.5
30335.6
30333.5
30331.3
30329
30326.5
30323.8
30321
30318.1
30315
30311.8
30308.5
30305
30301.3
30297.6
30293.7
30289.7
30285.6
30281.3
30277
30272.5
30267.9
30263.2
30258.4
30253.5
30248.5
30243.4
30238.2
30233
30227.6
30222.2
30216.7
30211.1
30205.5
30199.8
30194.1
30188.3
30182.5
30176.6
30170.7
30164.7
30158.8
30152.8
30146.8
30140.8
30134.8
30128.8
30122.8
30116.8
30110.8
30104.8
30098.9
30093
30087.1
30081.3
30075.5
30069.7
30064
30058.4
30052.8
30047.2
30041.8
30036.4
30031.1
30025.9
30020.8
30015.8
30010.9
30006.1
30001.4
29996.8
29992.3
29987.9
29983.7
29979.5
29975.5
29971.7
29968
29964.4
29960.9
29957.6
29954.5
29951.5
29948.7
29946
29943.4
29941.1
29938.8
29936.8
29934.9
29933.2
29931.6
29930.2
29929
29927.9
29927
29926.3
29925.7
29925.3
29925.1
29925.1
29925.2
29925.4
29925.9
29926.5
29927.3
29928.2
29929.3
29930.6
29932
29933.5
29935.2
29937.1
29939.1
29941.3
29943.6
29946
29948.6
29951.3
29954.1
29957.1
29960.2
29963.4
29966.7
29970.1
29973.7
29977.3
29981
29984.9
29988.8
29992.8
29996.9
30001.1
30005.3
30009.6
30014
30018.4
30022.9
30027.4
30032
30036.6
30041.2
30045.9
30050.6
30055.4
30060.1
30064.9
30069.6
30074.4
30079.2
30083.9
30088.7
30093.4
30098.1
30102.8
30107.4
30112
30116.5
30121
30125.4
30129.8
30134.1
30138.3
30142.5
30146.6
30150.6
30154.5
30158.4
30162.1
30165.8
30169.3
30172.8
30176.1
30179.4
30182.5
30185.5
30188.4
30191.1
30193.7
30196.2
30198.5
30200.7
30202.7
30204.6
30206.3
30207.9
30209.3
30210.6
30211.7
30212.6
30213.3
30213.9
30214.3
30214.5
30214.5
30214.3
30214
30213.5
30212.7
30211.8
30210.7
30209.4
30207.9
30206.1
30204.2
30202.1
30199.8
30197.2
30194.5
30191.5
30188.4
30185
30181.4
30177.7
30173.7
30169.4
30165
30160.4
30155.6
30150.5
30145.2
30139.8
30134.1
30128.2
30122.1
30115.8
30109.3
30102.6
30095.7
30088.5
30081.2
30073.7
30066
30058.1
30050
30041.7
30033.3
30024.6
30015.8
30006.8
29997.6
29988.2
29978.7
29969
29959.2
29949.2
29939
29928.7
29918.2
29907.6
29896.9
29886
29875
29863.9
29852.6
29841.2
29829.7
29818.1
29806.4
29794.6
29782.7
29770.7
29758.7
29746.5
29734.2
29721.9
29709.5
29697
29684.5
29672
29659.5
29647
29634.6
29622.1
29609.7
29597.3
29584.8
29572.4
29560
29547.6
29535.2
29522.9
29510.7
29498.4
29486.3
29474.2
29462.2
29450.3
29438.5
29426.7
29415.1
29403.6
29392.2
29380.9
29369.8
29358.8
29347.9
29337.2
29326.6
29316.3
29306
29296
29286.1
29276.5
29267
29257.7
29248.6
29239.8
29231.1
29222.7
29214.5
29206.5
29198.8
29191.3
29184.1
29177.1
29170.4
29163.9
29157.7
29151.8
29146.1
29140.7
29135.6
29130.8
29126.3
29122
29118.1
29114.5
29111.1
29108.1
29105.3
29102.9
29100.7
29098.9
29097.4
29096.1
29095.2
29094.6
29094.3
29890.8
29890.6
29890.3
29889.8
29889.2
29888.3
29887.4
29886.2
29885
29883.5
29881.9
29880.2
29878.3
29876.2
29874
29871.6
29869.1
29866.5
29863.7
29860.7
29857.6
29854.4
29851.1
29847.6
29843.9
29840.2
29836.3
29832.3
29828.1
29823.9
29819.5
29815
29810.4
29805.7
29800.9
29795.9
29790.9
29785.8
29780.6
29775.4
29770
29764.6
29759.1
29753.5
29747.9
29742.2
29736.4
29730.6
29724.8
29718.9
29713
29707
29701
29695
29689
29683
29677
29670.9
29664.9
29658.9
29652.9
29646.9
29640.9
29635
29629.1
29623.2
29617.4
29611.6
29605.9
29600.2
29594.6
29589
29583.6
29578.2
29572.9
29567.6
29562.5
29557.5
29552.5
29547.7
29543
29538.3
29533.8
29529.4
29525.2
29521
29517
29513.2
29509.4
29505.8
29502.4
29499.1
29495.9
29492.9
29490
29487.3
29484.8
29482.4
29480.2
29478.1
29476.2
29474.5
29472.9
29471.5
29470.3
29469.2
29468.3
29467.6
29467.1
29466.7
29466.5
29466.4
29466.5
29466.8
29467.3
29467.9
29468.7
29469.6
29470.7
29472
29473.4
29475
29476.7
29478.6
29480.6
29482.8
29485.1
29487.5
29490.1
29492.8
29495.7
29498.7
29501.8
29505
29508.3
29511.8
29515.3
29519
29522.8
29526.6
29530.6
29534.6
29538.7
29542.9
29547.2
29551.5
29555.9
29560.3
29564.9
29569.4
29574
29578.7
29583.3
29588.1
29592.8
29597.5
29602.3
29607.1
29611.9
29616.7
29621.4
29626.2
29630.9
29635.7
29640.4
29645
29649.7
29654.3
29658.8
29663.3
29667.8
29672.2
29676.5
29680.8
29685
29689.1
29693.2
29697.2
29701
29704.8
29708.5
29712.1
29715.6
29718.9
29722.2
29725.3
29728.3
29731.2
29734
29736.6
29739.1
29741.5
29743.7
29745.7
29747.6
29749.4
29751
29752.4
29753.7
29754.8
29755.7
29756.5
29757
29757.4
29757.7
29757.7
29757.5
29757.2
29756.7
29756
29755
29753.9
29752.6
29751.1
29749.4
29747.5
29745.4
29743.1
29740.5
29737.8
29734.8
29731.7
29728.3
29724.7
29721
29717
29712.8
29708.3
29703.7
29698.9
29693.8
29688.5
29683.1
29677.4
29671.5
29665.4
29659.1
29652.5
29645.8
29638.9
29631.8
29624.4
29616.9
29609.2
29601.3
29593.2
29584.9
29576.4
29567.7
29558.9
29549.8
29540.6
29531.3
29521.7
29512
29502.1
29492.1
29481.9
29471.5
29461.1
29450.4
29439.6
29428.7
29417.7
29406.5
29395.2
29383.8
29372.3
29360.7
29348.9
29337.1
29325.2
29313.1
29301
29288.8
29276.6
29264.3
29251.9
29239.5
29227
29214.5
29202
29189.5
29177
29164.5
29152
29139.5
29127
29114.5
29102.1
29089.6
29077.2
29064.9
29052.5
29040.3
29028.1
29016
29003.9
28992
28980.1
28968.3
28956.7
28945.1
28933.7
28922.4
28911.2
28900.2
28889.3
28878.5
28867.9
28857.5
28847.3
28837.2
28827.3
28817.6
28808.1
28798.8
28789.7
28780.8
28772.1
28763.6
28755.4
28747.4
28739.7
28732.1
28724.9
28717.9
28711.1
28704.6
28698.4
28692.4
28686.8
28681.4
28676.2
28671.4
28666.9
28662.6
28658.7
28655
28651.6
28648.6
28645.8
28643.4
28641.2
28639.4
28637.8
28636.6
28635.7
28635.1
28634.8
29433.9
29433.7
29433.4
29432.9
29432.2
29431.4
29430.4
29429.3
29428
29426.6
29424.9
29423.2
29421.3
29419.2
29417
29414.6
29412.1
29409.4
29406.6
29403.6
29400.5
29397.3
29393.9
29390.4
29386.7
29382.9
29379
29375
29370.8
29366.6
29362.2
29357.6
29353
29348.3
29343.4
29338.5
29333.5
29328.4
29323.1
29317.8
29312.5
29307
29301.5
29295.9
29290.2
29284.5
29278.7
29272.9
29267
29261.1
29255.2
29249.2
29243.2
29237.2
29231.1
29225.1
29219
29212.9
29206.9
29200.8
29194.8
29188.8
29182.8
29176.8
29170.8
29164.9
29159.1
29153.3
29147.5
29141.8
29136.2
29130.6
29125.1
29119.7
29114.3
29109.1
29103.9
29098.8
29093.9
29089
29084.2
29079.6
29075
29070.6
29066.3
29062.2
29058.2
29054.3
29050.5
29046.9
29043.4
29040.1
29036.9
29033.9
29031
29028.3
29025.7
29023.3
29021.1
29019
29017.1
29015.4
29013.8
29012.4
29011.2
29010.1
29009.2
29008.5
29007.9
29007.5
29007.3
29007.3
29007.4
29007.7
29008.2
29008.8
29009.6
29010.5
29011.6
29012.9
29014.3
29015.9
29017.7
29019.6
29021.6
29023.8
29026.1
29028.6
29031.2
29034
29036.9
29039.9
29043
29046.2
29049.6
29053.1
29056.7
29060.4
29064.2
29068
29072
29076.1
29080.2
29084.5
29088.8
29093.1
29097.6
29102
29106.6
29111.2
29115.8
29120.5
29125.2
29130
29134.7
29139.5
29144.3
29149.1
29154
29158.8
29163.6
29168.4
29173.2
29178
29182.7
29187.5
29192.1
29196.8
29201.4
29205.9
29210.4
29214.9
29219.3
29223.6
29227.8
29232
29236.1
29240.1
29244
29247.8
29251.5
29255.1
29258.6
29262
29265.3
29268.5
29271.5
29274.5
29277.3
29279.9
29282.4
29284.8
29287
29289.1
29291.1
29292.8
29294.5
29295.9
29297.2
29298.3
29299.3
29300.1
29300.7
29301.1
29301.3
29301.4
29301.2
29300.9
29300.4
29299.7
29298.8
29297.7
29296.4
29294.9
29293.2
29291.3
29289.2
29286.9
29284.4
29281.7
29278.7
29275.6
29272.2
29268.6
29264.8
29260.9
29256.6
29252.2
29247.6
29242.7
29237.7
29232.4
29226.9
29221.2
29215.3
29209.2
29202.9
29196.4
29189.6
29182.7
29175.5
29168.2
29160.7
29152.9
29145
29136.8
29128.5
29120
29111.3
29102.5
29093.4
29084.2
29074.8
29065.2
29055.4
29045.5
29035.5
29025.2
29014.8
29004.3
28993.6
28982.8
28971.9
28960.8
28949.6
28938.2
28926.8
28915.2
28903.5
28891.8
28879.9
28867.9
28855.9
28843.7
28831.5
28819.2
28806.9
28794.4
28782
28769.5
28756.9
28744.4
28731.8
28719.3
28706.7
28694.1
28681.6
28669
28656.5
28644
28631.5
28619
28606.6
28594.2
28581.9
28569.7
28557.5
28545.4
28533.4
28521.5
28509.7
28497.9
28486.3
28474.8
28463.5
28452.2
28441.2
28430.2
28419.4
28408.8
28398.3
28388
28377.9
28367.9
28358.2
28348.6
28339.3
28330.1
28321.2
28312.4
28303.9
28295.7
28287.6
28279.8
28272.3
28265
28257.9
28251.1
28244.6
28238.3
28232.4
28226.6
28221.2
28216.1
28211.2
28206.6
28202.3
28198.4
28194.7
28191.3
28188.2
28185.4
28183
28180.8
28178.9
28177.4
28176.2
28175.2
28174.6
28174.3
28977.3
28977.1
28976.8
28976.3
28975.6
28974.8
28973.8
28972.7
28971.4
28969.9
28968.3
28966.5
28964.6
28962.5
28960.2
28957.8
28955.3
28952.6
28949.8
28946.8
28943.6
28940.4
28937
28933.4
28929.7
28925.9
28922
28917.9
28913.7
28909.4
28905
28900.4
28895.8
28891
28886.2
28881.2
28876.1
28871
28865.7
28860.4
28855
28849.5
28843.9
28838.3
28832.6
28826.8
28821
28815.2
28809.3
28803.3
28797.3
28791.3
28785.3
28779.2
28773.1
28767
28760.9
28754.8
28748.7
28742.6
28736.5
28730.5
28724.4
28718.4
28712.4
28706.5
28700.6
28694.7
28688.9
28683.2
28677.5
28671.9
28666.3
28660.9
28655.5
28650.2
28645
28639.9
28634.9
28630
28625.2
28620.5
28615.9
28611.5
28607.1
28602.9
28598.9
28595
28591.2
28587.5
28584
28580.7
28577.5
28574.4
28571.5
28568.8
28566.2
28563.8
28561.5
28559.5
28557.5
28555.8
28554.2
28552.8
28551.6
28550.5
28549.6
28548.9
28548.3
28547.9
28547.7
28547.7
28547.8
28548.1
28548.6
28549.2
28550
28551
28552.1
28553.4
28554.9
28556.5
28558.3
28560.2
28562.3
28564.5
28566.9
28569.4
28572
28574.8
28577.7
28580.7
28583.9
28587.2
28590.6
28594.1
28597.7
28601.5
28605.3
28609.2
28613.3
28617.4
28621.6
28625.8
28630.2
28634.6
28639.1
28643.6
28648.2
28652.9
28657.6
28662.3
28667.1
28671.9
28676.7
28681.5
28686.4
28691.3
28696.1
28701
28705.9
28710.7
28715.6
28720.4
28725.2
28730
28734.7
28739.4
28744
28748.7
28753.2
28757.7
28762.1
28766.5
28770.8
28775
28779.1
28783.2
28787.1
28791
28794.8
28798.4
28802
28805.4
28808.8
28812
28815.1
28818
28820.9
28823.6
28826.1
28828.5
28830.8
28832.9
28834.9
28836.7
28838.4
28839.9
28841.2
28842.3
28843.3
28844.1
28844.8
28845.2
28845.5
28845.6
28845.5
28845.2
28844.7
28844
28843.1
28842
28840.7
28839.3
28837.6
28835.7
28833.6
28831.3
28828.8
28826.1
28823.1
28820
28816.6
28813.1
28809.3
28805.3
28801.1
28796.7
28792
28787.2
28782.1
28776.8
28771.3
28765.6
28759.7
28753.6
28747.3
28740.7
28734
28727
28719.8
28712.5
28704.9
28697.1
28689.2
28681
28672.7
28664.1
28655.4
28646.5
28637.4
28628.1
28618.7
28609.1
28599.3
28589.3
28579.2
28568.9
28558.5
28547.9
28537.2
28526.3
28515.3
28504.2
28492.9
28481.5
28470
28458.4
28446.7
28434.8
28422.9
28410.9
28398.7
28386.5
28374.3
28361.9
28349.5
28337.1
28324.6
28312
28299.5
28286.9
28274.2
28261.6
28249
28236.3
28223.7
28211
28198.4
28185.8
28173.2
28160.7
28148.2
28135.8
28123.4
28111.1
28098.8
28086.6
28074.6
28062.6
28050.7
28038.9
28027.2
28015.6
28004.2
27992.9
27981.7
27970.7
27959.8
27949.1
27938.6
27928.2
27918
27908
27898.2
27888.6
27879.2
27869.9
27860.9
27852.2
27843.6
27835.3
27827.2
27819.3
27811.7
27804.4
27797.3
27790.4
27783.9
27777.6
27771.5
27765.8
27760.3
27755.1
27750.2
27745.6
27741.3
27737.2
27733.5
27730.1
27727
27724.2
27721.7
27719.5
27717.6
27716.1
27714.8
27713.9
27713.3
27712.9
28521
28520.9
28520.5
28520
28519.4
28518.5
28517.5
28516.4
28515
28513.6
28511.9
28510.1
28508.1
28506
28503.8
28501.3
28498.8
28496
28493.2
28490.2
28487
28483.7
28480.3
28476.7
28473
28469.1
28465.1
28461
28456.8
28452.5
28448
28443.4
28438.7
28433.9
28429
28424
28418.9
28413.7
28408.4
28403
28397.6
28392.1
28386.4
28380.8
28375
28369.2
28363.4
28357.5
28351.5
28345.5
28339.5
28333.4
28327.3
28321.2
28315.1
28308.9
28302.8
28296.6
28290.5
28284.3
28278.2
28272.1
28266
28259.9
28253.9
28247.9
28241.9
28236
28230.2
28224.4
28218.6
28212.9
28207.4
28201.8
28196.4
28191.1
28185.8
28180.6
28175.6
28170.6
28165.8
28161
28156.4
28151.9
28147.6
28143.3
28139.2
28135.3
28131.5
28127.8
28124.2
28120.9
28117.6
28114.6
28111.6
28108.9
28106.3
28103.8
28101.6
28099.5
28097.5
28095.8
28094.2
28092.8
28091.5
28090.4
28089.5
28088.8
28088.3
28087.9
28087.7
28087.6
28087.8
28088.1
28088.6
28089.2
28090.1
28091.1
28092.2
28093.5
28095
28096.7
28098.5
28100.4
28102.5
28104.8
28107.2
28109.7
28112.4
28115.2
28118.2
28121.3
28124.5
28127.8
28131.3
28134.8
28138.5
28142.3
28146.2
28150.2
28154.3
28158.4
28162.7
28167
28171.4
28175.9
28180.4
28185
28189.7
28194.4
28199.2
28204
28208.8
28213.7
28218.5
28223.4
28228.4
28233.3
28238.2
28243.2
28248.1
28253
28257.9
28262.8
28267.7
28272.5
28277.3
28282.1
28286.8
28291.5
28296.1
28300.7
28305.2
28309.6
28313.9
28318.2
28322.4
28326.5
28330.5
28334.5
28338.3
28342
28345.6
28349.1
28352.5
28355.8
28358.9
28362
28364.8
28367.6
28370.2
28372.7
28375
28377.1
28379.2
28381
28382.7
28384.2
28385.6
28386.8
28387.8
28388.7
28389.3
28389.8
28390.1
28390.2
28390.2
28389.9
28389.4
28388.8
28387.9
28386.9
28385.6
28384.2
28382.5
28380.6
28378.5
28376.3
28373.8
28371.1
28368.1
28365
28361.7
28358.1
28354.3
28350.3
28346.1
28341.7
28337
28332.2
28327.1
28321.8
28316.3
28310.6
28304.7
28298.5
28292.2
28285.6
28278.8
28271.9
28264.7
28257.3
28249.7
28241.9
28233.9
28225.7
28217.3
28208.7
28200
28191
28181.9
28172.5
28163
28153.4
28143.5
28133.5
28123.4
28113
28102.5
28091.9
28081.1
28070.2
28059.1
28047.9
28036.6
28025.1
28013.5
28001.9
27990
27978.1
27966.1
27954
27941.8
27929.6
27917.2
27904.8
27892.3
27879.8
27867.2
27854.6
27841.9
27829.2
27816.5
27803.8
27791.1
27778.3
27765.6
27752.9
27740.2
27727.5
27714.8
27702.2
27689.6
27677.1
27664.6
27652.2
27639.9
27627.6
27615.4
27603.4
27591.4
27579.5
27567.7
27556.1
27544.5
27533.1
27521.9
27510.8
27499.8
27489
27478.4
27468
27457.7
27447.6
27437.7
27428
27418.5
27409.2
27400.1
27391.3
27382.6
27374.2
27366.1
27358.2
27350.5
27343.1
27335.9
27329
27322.4
27316
27309.9
27304.1
27298.6
27293.3
27288.4
27283.7
27279.4
27275.3
27271.6
27268.1
27265
27262.1
27259.6
27257.4
27255.5
27253.9
27252.6
27251.7
27251
27250.7
28065
28064.9
28064.6
28064
28063.4
28062.5
28061.5
28060.3
28059
28057.5
28055.8
28054
28052
28049.9
28047.6
28045.1
28042.5
28039.7
28036.8
28033.8
28030.6
28027.2
28023.8
28020.1
28016.4
28012.5
28008.5
28004.3
28000.1
27995.7
27991.2
27986.5
27981.8
27977
27972
27967
27961.8
27956.6
27951.2
27945.8
27940.3
27934.7
27929.1
27923.3
27917.5
27911.7
27905.8
27899.8
27893.8
27887.7
27881.6
27875.5
27869.4
27863.2
27857
27850.8
27844.6
27838.4
27832.1
27825.9
27819.7
27813.5
27807.4
27801.3
27795.2
27789.1
27783.1
27777.1
27771.2
27765.3
27759.5
27753.8
27748.1
27742.5
27737
27731.6
27726.3
27721.1
27716
27711
27706.1
27701.3
27696.6
27692.1
27687.7
27683.4
27679.2
27675.2
27671.4
27667.6
27664.1
27660.6
27657.4
27654.3
27651.3
27648.5
27645.9
27643.4
27641.1
27639
27637.1
27635.3
27633.7
27632.3
27631
27629.9
27629
27628.3
27627.7
27627.4
27627.2
27627.1
27627.3
27627.6
27628.1
27628.8
27629.6
27630.7
27631.8
27633.2
27634.7
27636.4
27638.2
27640.2
27642.4
27644.6
27647.1
27649.7
27652.4
27655.3
27658.3
27661.4
27664.7
27668.1
27671.6
27675.2
27679
27682.8
27686.8
27690.9
27695
27699.2
27703.6
27708
27712.4
27717
27721.6
27726.3
27731
27735.8
27740.6
27745.5
27750.4
27755.4
27760.3
27765.3
27770.3
27775.3
27780.4
27785.4
27790.4
27795.4
27800.4
27805.4
27810.3
27815.2
27820.1
27824.9
27829.7
27834.5
27839.2
27843.8
27848.4
27852.9
27857.3
27861.7
27865.9
27870.1
27874.2
27878.2
27882.1
27885.9
27889.6
27893.1
27896.6
27899.9
27903.1
27906.2
27909.2
27912
27914.6
27917.2
27919.5
27921.8
27923.8
27925.7
27927.5
27929.1
27930.5
27931.7
27932.8
27933.7
27934.4
27934.9
27935.3
27935.4
27935.4
27935.2
27934.7
27934.1
27933.3
27932.3
27931
27929.6
27927.9
27926.1
27924
27921.8
27919.3
27916.6
27913.7
27910.6
27907.2
27903.7
27899.9
27895.9
27891.7
27887.3
27882.6
27877.8
27872.7
27867.4
27861.9
27856.1
27850.2
27844
27837.6
27831.1
27824.3
27817.2
27810
27802.6
27795
27787.1
27779.1
27770.9
27762.4
27753.8
27745
27736
27726.8
27717.4
27707.9
27698.1
27688.2
27678.2
27667.9
27657.5
27647
27636.3
27625.4
27614.4
27603.3
27592
27580.6
27569
27557.4
27545.6
27533.7
27521.7
27509.6
27497.4
27485.1
27472.8
27460.3
27447.8
27435.3
27422.6
27410
27397.2
27384.5
27371.7
27358.9
27346.1
27333.2
27320.4
27307.6
27294.7
27281.9
27269.1
27256.3
27243.6
27230.9
27218.3
27205.7
27193.2
27180.7
27168.3
27156
27143.8
27131.7
27119.8
27107.9
27096.1
27084.5
27073
27061.6
27050.4
27039.4
27028.5
27017.7
27007.2
26996.8
26986.6
26976.6
26966.8
26957.2
26947.8
26938.7
26929.7
26921
26912.5
26904.3
26896.3
26888.5
26881
26873.8
26866.8
26860.1
26853.7
26847.5
26841.7
26836.1
26830.8
26825.8
26821.1
26816.7
26812.5
26808.7
26805.2
26802.1
26799.2
26796.6
26794.4
26792.4
26790.8
26789.5
26788.6
26787.9
26787.6
27609.4
27609.2
27608.9
27608.3
27607.7
27606.8
27605.8
27604.6
27603.2
27601.7
27600
27598.1
27596.1
27594
27591.6
27589.1
27586.5
27583.7
27580.8
27577.7
27574.4
27571
27567.5
27563.9
27560.1
27556.1
27552.1
27547.9
27543.5
27539.1
27534.5
27529.9
27525.1
27520.2
27515.2
27510.1
27504.8
27499.5
27494.1
27488.7
27483.1
27477.5
27471.7
27465.9
27460.1
27454.2
27448.2
27442.2
27436.1
27430
27423.8
27417.6
27411.4
27405.1
27398.9
27392.6
27386.3
27380
27373.7
27367.4
27361.2
27354.9
27348.7
27342.5
27336.3
27330.1
27324
27318
27312
27306.1
27300.2
27294.4
27288.7
27283
27277.4
27271.9
27266.6
27261.3
27256.1
27251
27246
27241.2
27236.5
27231.9
27227.4
27223
27218.8
27214.8
27210.9
27207.1
27203.5
27200
27196.7
27193.5
27190.5
27187.7
27185.1
27182.6
27180.3
27178.1
27176.1
27174.3
27172.7
27171.3
27170
27168.9
27168
27167.3
27166.7
27166.4
27166.2
27166.2
27166.3
27166.7
27167.2
27167.9
27168.8
27169.8
27171
27172.4
27174
27175.7
27177.6
27179.6
27181.8
27184.1
27186.6
27189.3
27192.1
27195
27198.1
27201.3
27204.6
27208.1
27211.7
27215.4
27219.2
27223.1
27227.1
27231.3
27235.5
27239.8
27244.2
27248.7
27253.3
27257.9
27262.6
27267.4
27272.2
27277.1
27282
27287
27292
27297
27302.1
27307.1
27312.2
27317.3
27322.5
27327.6
27332.7
27337.8
27342.9
27347.9
27353
27358
27362.9
27367.9
27372.8
27377.6
27382.4
27387.1
27391.8
27396.4
27400.9
27405.3
27409.7
27413.9
27418.1
27422.2
27426.2
27430
27433.8
27437.5
27441
27444.4
27447.7
27450.8
27453.9
27456.7
27459.5
27462.1
27464.5
27466.8
27468.9
27470.9
27472.7
27474.4
27475.8
27477.1
27478.3
27479.2
27480
27480.5
27480.9
27481.1
27481.1
27480.9
27480.5
27480
27479.2
27478.2
27477
27475.6
27474
27472.1
27470.1
27467.9
27465.4
27462.7
27459.8
27456.7
27453.4
27449.8
27446.1
27442.1
27437.9
27433.4
27428.8
27423.9
27418.8
27413.5
27408
27402.2
27396.3
27390.1
27383.7
27377.1
27370.2
27363.2
27355.9
27348.5
27340.8
27332.9
27324.8
27316.5
27308.1
27299.4
27290.5
27281.4
27272.2
27262.7
27253.1
27243.3
27233.4
27223.2
27212.9
27202.4
27191.8
27181
27170
27159
27147.7
27136.4
27124.8
27113.2
27101.5
27089.6
27077.6
27065.5
27053.3
27041
27028.6
27016.2
27003.6
26991
26978.3
26965.6
26952.8
26940
26927.1
26914.2
26901.3
26888.3
26875.4
26862.4
26849.4
26836.5
26823.5
26810.6
26797.7
26784.8
26772
26759.2
26746.5
26733.9
26721.3
26708.8
26696.4
26684
26671.8
26659.7
26647.7
26635.8
26624
26612.4
26600.9
26589.6
26578.4
26567.4
26556.6
26545.9
26535.4
26525.1
26515
26505.1
26495.4
26485.9
26476.6
26467.6
26458.7
26450.2
26441.8
26433.7
26425.9
26418.3
26411
26403.9
26397.1
26390.6
26384.4
26378.4
26372.8
26367.4
26362.3
26357.6
26353.1
26348.9
26345.1
26341.5
26338.3
26335.4
26332.8
26330.5
26328.5
26326.9
26325.6
26324.6
26324
26323.7
27154
27153.8
27153.5
27152.9
27152.2
27151.4
27150.3
27149.1
27147.7
27146.2
27144.4
27142.6
27140.5
27138.3
27136
27133.4
27130.7
27127.9
27124.9
27121.8
27118.5
27115.1
27111.5
27107.8
27103.9
27100
27095.8
27091.6
27087.2
27082.7
27078.1
27073.4
27068.5
27063.5
27058.5
27053.3
27048
27042.7
27037.2
27031.6
27026
27020.3
27014.5
27008.6
27002.7
26996.7
26990.6
26984.5
26978.4
26972.2
26965.9
26959.7
26953.4
26947
26940.7
26934.3
26927.9
26921.6
26915.2
26908.8
26902.5
26896.1
26889.8
26883.5
26877.2
26871
26864.8
26858.7
26852.6
26846.6
26840.6
26834.7
26828.9
26823.2
26817.5
26812
26806.5
26801.1
26795.9
26790.7
26785.7
26780.8
26776
26771.3
26766.7
26762.3
26758.1
26753.9
26750
26746.1
26742.5
26738.9
26735.6
26732.4
26729.3
26726.5
26723.8
26721.3
26718.9
26716.7
26714.7
26712.9
26711.3
26709.8
26708.6
26707.5
26706.5
26705.8
26705.3
26704.9
26704.7
26704.7
26704.9
26705.3
26705.8
26706.5
26707.4
26708.5
26709.8
26711.2
26712.8
26714.5
26716.5
26718.5
26720.8
26723.2
26725.8
26728.5
26731.3
26734.3
26737.5
26740.7
26744.2
26747.7
26751.4
26755.1
26759
26763.1
26767.2
26771.4
26775.7
26780.1
26784.6
26789.2
26793.9
26798.6
26803.4
26808.3
26813.2
26818.2
26823.2
26828.3
26833.4
26838.5
26843.7
26848.9
26854.1
26859.3
26864.5
26869.8
26875
26880.2
26885.4
26890.5
26895.7
26900.8
26905.9
26910.9
26915.9
26920.8
26925.7
26930.6
26935.3
26940
26944.6
26949.2
26953.6
26958
26962.3
26966.4
26970.5
26974.5
26978.3
26982.1
26985.7
26989.2
26992.6
26995.8
26998.9
27001.9
27004.7
27007.4
27009.9
27012.3
27014.5
27016.5
27018.4
27020.1
27021.6
27023
27024.2
27025.2
27026
27026.6
27027.1
27027.3
27027.4
27027.2
27026.9
27026.3
27025.6
27024.6
27023.5
27022.1
27020.5
27018.7
27016.7
27014.5
27012.1
27009.4
27006.5
27003.4
27000.1
26996.6
26992.8
26988.8
26984.6
26980.2
26975.5
26970.7
26965.6
26960.2
26954.7
26948.9
26942.9
26936.7
26930.3
26923.6
26916.8
26909.7
26902.4
26894.9
26887.1
26879.2
26871.1
26862.7
26854.2
26845.5
26836.5
26827.4
26818.1
26808.5
26798.9
26789
26778.9
26768.7
26758.3
26747.7
26737
26726.1
26715.1
26703.9
26692.5
26681.1
26669.5
26657.7
26645.9
26633.9
26621.8
26609.6
26597.2
26584.8
26572.3
26559.7
26547.1
26534.3
26521.5
26508.7
26495.7
26482.8
26469.8
26456.7
26443.7
26430.6
26417.5
26404.4
26391.2
26378.1
26365
26352
26338.9
26325.9
26313
26300
26287.2
26274.4
26261.6
26249
26236.4
26224
26211.6
26199.3
26187.2
26175.1
26163.2
26151.5
26139.8
26128.4
26117
26105.9
26094.9
26084.1
26073.5
26063
26052.8
26042.7
26032.9
26023.3
26013.9
26004.7
25995.8
25987.1
25978.6
25970.4
25962.5
25954.8
25947.4
25940.2
25933.3
25926.7
25920.4
25914.4
25908.6
25903.2
25898.1
25893.2
25888.7
25884.5
25880.5
25876.9
25873.7
25870.7
25868.1
25865.8
25863.8
25862.1
25860.8
25859.8
25859.1
25858.8
26698.9
26698.7
26698.4
26697.8
26697.1
26696.2
26695.2
26693.9
26692.5
26690.9
26689.2
26687.3
26685.2
26683
26680.6
26678
26675.3
26672.4
26669.4
26666.2
26662.9
26659.4
26655.7
26652
26648.1
26644
26639.8
26635.5
26631.1
26626.5
26621.8
26617
26612.1
26607.1
26601.9
26596.7
26591.3
26585.9
26580.3
26574.7
26569
26563.2
26557.3
26551.4
26545.4
26539.3
26533.1
26526.9
26520.7
26514.4
26508.1
26501.7
26495.3
26488.9
26482.4
26476
26469.5
26463
26456.6
26450.1
26443.7
26437.2
26430.8
26424.4
26418
26411.7
26405.4
26399.2
26393
26386.9
26380.8
26374.9
26369
26363.1
26357.4
26351.7
26346.2
26340.7
26335.3
26330.1
26325
26320
26315.1
26310.3
26305.7
26301.2
26296.9
26292.7
26288.6
26284.7
26281
26277.4
26274
26270.8
26267.7
26264.8
26262
26259.5
26257.1
26254.9
26252.9
26251
26249.4
26247.9
26246.6
26245.5
26244.6
26243.8
26243.3
26242.9
26242.8
26242.8
26243
26243.4
26243.9
26244.7
26245.6
26246.7
26248
26249.5
26251.1
26252.9
26254.9
26257.1
26259.4
26261.8
26264.5
26267.3
26270.2
26273.3
26276.5
26279.8
26283.3
26287
26290.7
26294.6
26298.6
26302.7
26306.9
26311.3
26315.7
26320.2
26324.8
26329.5
26334.3
26339.1
26344.1
26349
26354.1
26359.2
26364.3
26369.5
26374.7
26380
26385.3
26390.6
26395.9
26401.3
26406.6
26411.9
26417.3
26422.6
26427.9
26433.2
26438.5
26443.7
26448.9
26454.1
26459.2
26464.2
26469.2
26474.2
26479.1
26483.9
26488.6
26493.3
26497.8
26502.3
26506.7
26511
26515.1
26519.2
26523.2
26527
26530.8
26534.4
26537.8
26541.2
26544.4
26547.4
26550.3
26553.1
26555.7
26558.1
26560.4
26562.5
26564.5
26566.3
26567.9
26569.3
26570.6
26571.7
26572.5
26573.2
26573.7
26574
26574.2
26574.1
26573.8
26573.3
26572.6
26571.7
26570.5
26569.2
26567.7
26565.9
26563.9
26561.7
26559.3
26556.7
26553.8
26550.7
26547.4
26543.9
26540.2
26536.2
26532
26527.5
26522.9
26518
26512.9
26507.5
26502
26496.2
26490.2
26483.9
26477.5
26470.8
26463.9
26456.7
26449.4
26441.8
26434
26426.1
26417.9
26409.5
26400.9
26392
26383
26373.8
26364.4
26354.8
26345
26335.1
26324.9
26314.6
26304.1
26293.4
26282.6
26271.6
26260.5
26249.2
26237.7
26226.1
26214.4
26202.5
26190.5
26178.4
26166.2
26153.9
26141.4
26128.9
26116.2
26103.5
26090.7
26077.8
26064.9
26051.9
26038.8
26025.7
26012.5
25999.3
25986.1
25972.8
25959.6
25946.3
25933
25919.8
25906.5
25893.3
25880
25866.9
25853.7
25840.6
25827.6
25814.7
25801.8
25788.9
25776.2
25763.6
25751
25738.6
25726.3
25714.1
25702
25690.1
25678.3
25666.7
25655.2
25643.9
25632.7
25621.8
25611
25600.4
25590
25579.8
25569.8
25560.1
25550.5
25541.2
25532.2
25523.3
25514.8
25506.4
25498.4
25490.6
25483
25475.8
25468.8
25462.1
25455.6
25449.5
25443.7
25438.2
25432.9
25428
25423.4
25419.1
25415.1
25411.5
25408.1
25405.1
25402.4
25400.1
25398.1
25396.4
25395
25394
25393.4
25393
26244.1
26243.9
26243.6
26243
26242.3
26241.4
26240.3
26239
26237.6
26236
26234.2
26232.3
26230.2
26227.9
26225.5
26222.9
26220.1
26217.2
26214.1
26210.8
26207.5
26203.9
26200.2
26196.4
26192.4
26188.3
26184.1
26179.7
26175.2
26170.5
26165.8
26160.9
26155.9
26150.8
26145.6
26140.2
26134.8
26129.2
26123.6
26117.9
26112.1
26106.2
26100.2
26094.2
26088.1
26081.9
26075.7
26069.4
26063
26056.6
26050.2
26043.7
26037.2
26030.7
26024.2
26017.6
26011
26004.4
25997.9
25991.3
25984.7
25978.2
25971.6
25965.1
25958.7
25952.2
25945.9
25939.5
25933.2
25927
25920.8
25914.7
25908.7
25902.8
25896.9
25891.2
25885.5
25879.9
25874.5
25869.1
25863.9
25858.8
25853.8
25849
25844.3
25839.7
25835.3
25831
25826.9
25822.9
25819.1
25815.5
25812
25808.7
25805.6
25802.6
25799.8
25797.2
25794.8
25792.6
25790.5
25788.6
25786.9
25785.5
25784.1
25783
25782.1
25781.4
25780.8
25780.5
25780.3
25780.4
25780.6
25781
25781.6
25782.4
25783.3
25784.5
25785.8
25787.3
25789
25790.9
25792.9
25795.1
25797.5
25800.1
25802.8
25805.6
25808.6
25811.8
25815.1
25818.6
25822.2
25825.9
25829.8
25833.7
25837.9
25842.1
25846.4
25850.9
25855.4
25860
25864.8
25869.6
25874.5
25879.5
25884.5
25889.6
25894.8
25900
25905.3
25910.6
25916
25921.4
25926.8
25932.2
25937.7
25943.2
25948.7
25954.1
25959.6
25965.1
25970.5
25975.9
25981.3
25986.7
25992
25997.3
26002.6
26007.8
26012.9
26018
26023
26027.9
26032.8
26037.6
26042.2
26046.8
26051.4
26055.8
26060.1
26064.2
26068.3
26072.3
26076.1
26079.8
26083.4
26086.9
26090.2
26093.3
26096.3
26099.2
26101.9
26104.4
26106.8
26109
26111.1
26112.9
26114.6
26116.2
26117.5
26118.6
26119.6
26120.4
26120.9
26121.3
26121.5
26121.4
26121.2
26120.8
26120.1
26119.2
26118.2
26116.9
26115.4
26113.7
26111.7
26109.6
26107.2
26104.6
26101.7
26098.7
26095.4
26091.8
26088.1
26084.1
26079.9
26075.5
26070.8
26065.9
26060.8
26055.4
26049.8
26044
26038
26031.7
26025.2
26018.5
26011.5
26004.3