/*--------------------------------*- C++ -*----------------------------------*\
| =========                 |                                                 |
| \\      /  F ield         | OpenFOAM: The Open Source CFD Toolbox           |
|  \\    /   O peration     | Version:  v2006                                 |
|   \\  /    A nd           | Website:  www.openfoam.com                      |
|    \\/     M anipulation  |                                                 |
\*---------------------------------------------------------------------------*/
FoamFile
{
    version     2.0;
    format      ascii;
    class       volScalarField;
    location    "0";
    object      shifted_f;
}
// * * * * * * * * * * * * * * * * * * * * * * * * * * * * * * * * * * * * * //

dimensions      [0 0 0 0 0 0 0];


internalField   nonuniform List<scalar> 
2500
(
0.000264362
0.000264402
0.000264425
0.000264443
0.000264443
0.000264466
0.000264484
0.000264473
0.000264492
0.000264462
0.000264522
0.000264581
0.000264574
0.000264585
0.000264619
0.000264574
0.000264604
0.000264663
0.000264641
0.000264708
0.00026466
0.000264727
0.000264712
0.000264715
0.000264775
0.000264812
0.000264782
0.000264835
0.000264868
0.000264909
0.000264887
0.000264954
0.000264928
0.000264991
0.000264991
0.000264909
0.000264999
0.000264999
0.000265032
0.000265062
0.000265125
0.000265069
0.000265066
0.000265114
0.00026514
0.000265144
0.000265129
0.000265215
0.000274122
0.000274133
0.000274114
0.000274189
0.000274219
0.000274133
0.000274222
0.000274215
0.00027423
0.000274289
0.00027423
0.000274297
0.000274297
0.000274297
0.000274308
0.000274338
0.000274379
0.000274386
0.000274397
0.000274416
0.000274446
0.000274509
0.000274476
0.000274494
0.00027455
0.000274565
0.000274505
0.000274613
0.000274602
0.000274707
0.000274651
0.000274587
0.000274766
0.000274714
0.000274666
0.000274725
0.000274729
0.000274759
0.000274826
0.000274815
0.000274736
0.000274893
0.0002749
0.000274893
0.000274878
0.000274874
0.000274945
0.000274997
0.000274997
0.00027499
0.000275083
0.000275064
0.000275102
0.000275094
0.000275109
0.000275172
0.000275139
0.000275176
0.000275232
0.000275165
0.000275221
0.000275247
0.000275258
0.000275243
0.000275284
0.000275314
0.000275299
0.000275318
0.000275418
0.000275351
0.000275429
0.000275429
0.000275463
0.000275519
0.00027547
0.000275481
0.000275522
0.000275515
0.000275541
0.000275616
0.000275549
0.000275623
0.000275649
0.000275631
0.000275653
0.00027566
0.000275657
0.000275716
0.00027572
0.000275768
0.000275776
0.000275765
0.000275791
0.000275832
0.000275809
0.000275832
0.000275869
0.000275914
0.000275943
0.000275895
0.000275899
0.000285536
0.000285592
0.000285588
0.000285611
0.000285666
0.000285652
0.0002857
0.000285685
0.000285733
0.000285678
0.00028583
0.000285696
0.000285748
0.000285778
0.000285715
0.000285883
0.000285834
0.000285901
0.000285935
0.000285838
0.000285964
0.00028589
0.00028589
0.000285976
0.000286028
0.00028602
0.000286072
0.000286069
0.000286043
0.000286102
0.000286072
0.000286162
0.000286166
0.000286222
0.000286188
0.000286262
0.000286259
0.00028624
0.000286322
0.0002863
0.000286356
0.00028633
0.000286367
0.000286367
0.000286426
0.000286445
0.000286426
0.000286456
0.000286486
0.000286475
0.000286564
0.000286542
0.00028662
0.000286605
0.000286635
0.000286616
0.000286669
0.000286657
0.000286728
0.000286724
0.00028678
0.00028675
0.000286873
0.000286799
0.000286724
0.000286851
0.000286844
0.000286918
0.000286903
0.000286918
0.000286907
0.000286981
0.000287
0.000286978
0.000287037
0.000287037
0.000287089
0.000287071
0.000287142
0.000287112
0.000287201
0.000287164
0.000287186
0.000287235
0.000287205
0.000287239
0.000287294
0.000287291
0.000287302
0.000287335
0.000287399
0.000287332
0.000287395
0.000287384
0.000287462
0.000287522
0.000287481
0.000287496
0.000287496
0.00028757
0.000287559
0.000282608
0.000282515
0.000282444
0.000282373
0.000282351
0.000282247
0.00028218
0.000282101
0.000282004
0.000281949
0.00028196
0.000281833
0.000281777
0.000281703
0.000281658
0.000281576
0.000281539
0.000281438
0.000281375
0.000281293
0.000281252
0.000281159
0.000281055
0.000281032
0.000280946
0.000280906
0.000280857
0.000280764
0.000280689
0.000280622
0.000280559
0.00028047
0.000280451
0.000280384
0.000280272
0.000280254
0.000280157
0.000280131
0.000280041
0.000280019
0.000279952
0.000279859
0.000279814
0.000279762
0.000279676
0.000279646
0.000279572
0.000279497
0.000279445
0.000279352
0.000279285
0.000279214
0.000279188
0.000279099
0.000279039
0.000278991
0.000278909
0.000278894
0.000278864
0.000278778
0.0002787
0.000278588
0.000278536
0.000278514
0.000278439
0.000278447
0.000278365
0.000278305
0.000278238
0.000278223
0.000278119
0.000278104
0.000278085
0.000278026
0.000277895
0.000277881
0.000277758
0.000277787
0.000277799
0.000277687
0.000277627
0.000277527
0.000277475
0.000277467
0.000277441
0.000277337
0.000277299
0.000277236
0.00027718
0.000277124
0.000277061
0.000277068
0.000277024
0.000276949
0.000276942
0.000276882
0.000276767
0.000276789
0.000276767
0.000276707
0.000276607
0.000258613
0.00025852
0.000258509
0.00025836
0.0002583
0.00025823
0.000258077
0.000258058
0.000258006
0.000257898
0.000257846
0.000257786
0.00025776
0.000257637
0.000257567
0.00025754
0.00025747
0.000257362
0.000257332
0.00025728
0.000257175
0.000257127
0.000257056
0.000256948
0.000256877
0.000256777
0.00025674
0.000256665
0.000256661
0.000256497
0.000256531
0.000256378
0.000256374
0.000256334
0.000256203
0.00025614
0.000256095
0.000255991
0.000255954
0.000255913
0.000255812
0.000255745
0.000255715
0.000255667
0.000255533
0.000255533
0.00025541
0.000255428
0.000255328
0.000255279
0.000255279
0.000255149
0.000255082
0.000255026
0.000255011
0.00025491
0.000254825
0.000254821
0.000254754
0.000254676
0.000254694
0.000254534
0.000254512
0.000254456
0.000254389
0.000254363
0.000254288
0.000254273
0.000254188
0.000254154
0.000254061
0.000254087
0.000253994
0.000253979
0.000253901
0.000253845
0.000253845
0.0002538
0.000253737
0.00025364
0.000253629
0.000253588
0.000253513
0.000253472
0.000253443
0.000253323
0.000253342
0.000253256
0.000253204
0.000253182
0.000253152
0.000253055
0.000253085
0.000252903
0.000252925
0.000252869
0.000252899
0.000252813
0.000252802
0.000252694
0.000252698
0.000237841
0.000237778
0.000237729
0.000237692
0.000237644
0.000237562
0.000237577
0.000237472
0.000237431
0.000237387
0.000237353
0.000237178
0.000237186
0.000237159
0.000237167
0.000237081
0.000236977
0.000236999
0.000236947
0.000236925
0.000236794
0.000236832
0.000236727
0.000236638
0.000236597
0.000236545
0.000236567
0.000236493
0.000236459
0.000236381
0.000236355
0.000236318
0.000236295
0.000236284
0.000236183
0.000236128
0.000236116
0.000236053
0.000236083
0.000235979
0.000235949
0.000235874
0.000235841
0.000235815
0.0002358
0.000235785
0.00023564
0.000235651
0.000235673
0.000235625
0.000235569
0.000235535
0.000235524
0.000235464
0.00023542
0.000235353
0.00023533
0.000235334
0.000235282
0.000235327
0.000235166
0.000235166
0.000235137
0.000235122
0.000235043
0.000235014
0.00023501
0.000235006
0.000234958
0.000234988
0.000234853
0.000234846
0.000234883
0.000234783
0.00023479
0.000234734
0.000234742
0.000234723
0.000234704
0.000234719
0.000234678
0.00023463
0.000234596
0.000234578
0.000234514
0.000234522
0.000234444
0.000234395
0.000234436
0.000234399
0.000234406
0.000234343
0.000234324
0.000234332
0.000234295
0.000234287
0.000234272
0.000234209
0.000234209
0.000234175
0.000234205
0.000227023
0.000226911
0.00022693
0.00022687
0.000226844
0.000226848
0.000226844
0.000226796
0.000226792
0.000226706
0.000226706
0.000226624
0.000226729
0.000226647
0.000226654
0.000226654
0.000226613
0.000226598
0.000226557
0.000226609
0.000226561
0.000226546
0.000226449
0.000226468
0.00022649
0.000226457
0.000226419
0.000226438
0.000226442
0.000226352
0.000226412
0.000226401
0.000226296
0.000226296
0.000226337
0.000226341
0.000226282
0.000226267
0.000226293
0.000226289
0.000226188
0.000226215
0.000226207
0.000226203
0.000226207
0.000226188
0.000226174
0.000226151
0.000226159
0.000226147
0.000226099
0.000226095
0.000226099
0.000226114
0.000226062
0.000226103
0.000226054
0.000226069
0.000226066
0.000226092
0.00022601
0.000225998
0.000226017
0.000226073
0.000226062
0.000226069
0.000226039
0.000226025
0.000226002
0.000225984
0.000226013
0.000226054
0.000225995
0.000226017
0.000226039
0.000226036
0.000226013
0.000225984
0.000225976
0.000225976
0.00022601
0.000225965
0.000225995
0.00022595
0.000226028
0.000226069
0.000226039
0.000226054
0.000226025
0.000226106
0.000226047
0.000226039
0.000226077
0.000226069
0.000226066
0.000226095
0.000226125
0.000226084
0.000226114
0.000226047
0.000226092
0.000225708
0.000225663
0.000225671
0.000225645
0.000225686
0.000225659
0.000225622
0.000225671
0.000225659
0.000225633
0.000225622
0.000225659
0.000225682
0.00022563
0.00022563
0.000225663
0.000225607
0.000225596
0.000225641
0.00022563
0.000225607
0.000225592
0.000225667
0.000225592
0.000225674
0.000225622
0.000225693
0.00022563
0.000225626
0.000225622
0.000225678
0.000225637
0.00022563
0.000225693
0.000225645
0.000225663
0.00022563
0.000225652
0.000225715
0.000225667
0.0002257
0.000225682
0.000225712
0.000225708
0.000225734
0.000225712
0.000225753
0.000225753
0.00022576
0.000225753
0.000225767
0.000225838
0.000225827
0.000225805
0.000225838
0.000225853
0.000225831
0.000225812
0.000225849
0.000225876
0.000225846
0.000225842
0.000225939
0.000225879
0.000225898
0.000225976
0.00022589
0.00022595
0.000225909
0.00022598
0.000226017
0.000225987
0.00022601
0.00022608
0.000226058
0.000226125
0.000226077
0.000226177
0.000226166
0.000226162
0.000226185
0.000226222
0.000226241
0.000226267
0.000226244
0.000226241
0.00022627
0.000226263
0.000226244
0.000226375
0.000226308
0.000226334
0.000226367
0.000226419
0.000226412
0.000226468
0.000226501
0.000226494
0.000226498
0.000226509
0.000226565
0.000229202
0.00022918
0.000229169
0.000229184
0.000229232
0.000229184
0.000229221
0.000229184
0.000229184
0.000229158
0.000229184
0.000229232
0.000229228
0.00022921
0.000229225
0.000229228
0.000229239
0.000229273
0.000229273
0.000229273
0.000229213
0.000229206
0.000229225
0.000229213
0.000229254
0.00022931
0.000229269
0.000229236
0.000229314
0.000229269
0.000229266
0.000229236
0.000229307
0.00022931
0.00022931
0.000229407
0.000229385
0.000229336
0.000229359
0.000229407
0.000229422
0.000229377
0.000229441
0.000229422
0.000229478
0.000229459
0.000229448
0.000229508
0.000229504
0.000229459
0.00022953
0.000229519
0.000229534
0.000229504
0.000229593
0.000229608
0.000229534
0.000229578
0.000229586
0.000229638
0.00022969
0.00022966
0.000229664
0.00022969
0.00022978
0.000229735
0.00022978
0.000229761
0.000229746
0.000229828
0.000229884
0.000229809
0.000229832
0.000229932
0.000229917
0.000229932
0.000229951
0.000229966
0.000230003
0.000230044
0.000230048
0.000230074
0.000230048
0.000230055
0.000230171
0.000230156
0.00023016
0.000230171
0.00023023
0.000230204
0.000230197
0.000230264
0.000230294
0.000230271
0.000230316
0.000230357
0.000230383
0.000230387
0.000230376
0.00023042
0.000230458
0.000233725
0.000233743
0.000233728
0.000233684
0.000233736
0.000233684
0.00023371
0.000233695
0.000233717
0.00023374
0.000233721
0.000233728
0.000233728
0.000233751
0.000233736
0.000233766
0.000233773
0.000233743
0.000233781
0.000233743
0.000233773
0.00023374
0.000233762
0.000233844
0.000233848
0.000233844
0.000233814
0.000233825
0.000233922
0.000233836
0.00023384
0.000233818
0.00023387
0.00023381
0.000233904
0.0002339
0.000233855
0.000233851
0.000233915
0.000233945
0.00023393
0.00023393
0.000234008
0.000233997
0.000233945
0.000233974
0.000233989
0.000234004
0.000234067
0.000234056
0.000234064
0.000234071
0.00023412
0.000234127
0.000234097
0.00023412
0.000234179
0.000234108
0.000234161
0.000234175
0.000234198
0.000234224
0.000234243
0.000234261
0.000234228
0.000234276
0.00023425
0.000234243
0.000234287
0.000234276
0.000234339
0.000234321
0.000234429
0.000234425
0.00023441
0.000234459
0.000234399
0.00023444
0.000234473
0.000234485
0.000234518
0.000234541
0.000234522
0.000234578
0.000234559
0.000234619
0.0002346
0.000234585
0.000234693
0.000234667
0.000234734
0.000234727
0.000234727
0.000234805
0.000234816
0.000234887
0.000234842
0.000234917
0.000234898
0.000234887
0.000234894
0.000238027
0.000238016
0.000238039
0.000238027
0.00023799
0.000238013
0.000238035
0.000238035
0.000238024
0.000238016
0.00023802
0.000238057
0.000237979
0.000238042
0.000238076
0.000238057
0.000237986
0.00023802
0.000237998
0.000238035
0.000238094
0.000238042
0.000238091
0.000238057
0.000238094
0.000238031
0.000238098
0.000238098
0.000238087
0.000238143
0.000238091
0.000238106
0.000238121
0.000238109
0.000238128
0.000238165
0.000238139
0.000238135
0.00023815
0.00023821
0.000238199
0.000238191
0.000238184
0.000238236
0.00023821
0.000238273
0.000238232
0.000238214
0.000238229
0.000238206
0.00023827
0.000238281
0.00023827
0.000238281
0.000238292
0.00023834
0.000238393
0.000238366
0.000238344
0.000238463
0.000238359
0.000238426
0.000238363
0.000238352
0.000238448
0.000238393
0.000238463
0.00023843
0.000238463
0.000238497
0.000238493
0.000238493
0.000238538
0.000238542
0.000238542
0.000238542
0.000238594
0.000238646
0.000238609
0.000238657
0.000238638
0.000238668
0.000238668
0.000238724
0.000238743
0.000238776
0.000238795
0.000238754
0.000238739
0.000238802
0.000238787
0.000238806
0.000238903
0.000238881
0.000238929
0.000238862
0.000238966
0.000238951
0.000238936
0.000239
0.000239041
0.000241451
0.000241447
0.00024147
0.000241458
0.000241525
0.000241473
0.00024147
0.000241436
0.000241447
0.000241499
0.000241462
0.00024144
0.000241417
0.000241414
0.000241395
0.000241417
0.000241488
0.000241447
0.000241473
0.000241496
0.000241444
0.000241444
0.000241514
0.000241488
0.000241477
0.000241466
0.000241548
0.000241477
0.000241484
0.000241477
0.00024141
0.000241421
0.000241451
0.000241473
0.000241451
0.000241503
0.000241484
0.000241492
0.000241503
0.000241522
0.000241492
0.000241533
0.000241563
0.000241533
0.000241522
0.000241529
0.000241522
0.0002416
0.000241552
0.000241585
0.000241522
0.000241581
0.000241563
0.000241589
0.000241607
0.000241604
0.000241578
0.000241607
0.000241637
0.000241626
0.000241686
0.000241686
0.000241671
0.000241663
0.000241693
0.000241656
0.000241652
0.000241712
0.000241715
0.000241693
0.000241704
0.000241753
0.000241723
0.000241745
0.000241756
0.00024176
0.000241745
0.000241805
0.000241827
0.000241823
0.00024182
0.000241812
0.000241894
0.000241801
0.000241827
0.000241809
0.000241879
0.000241891
0.000241913
0.000241935
0.000241902
0.000241928
0.000241943
0.000241999
0.000242017
0.000242058
0.000241987
0.000242062
0.000242054
0.000242081
0.000242051
0.000243451
0.000243414
0.00024341
0.000243437
0.000243466
0.000243403
0.000243403
0.000243418
0.00024341
0.000243403
0.000243373
0.000243396
0.000243392
0.000243407
0.000243425
0.000243388
0.000243358
0.000243362
0.000243369
0.000243392
0.000243355
0.000243355
0.000243392
0.000243332
0.000243381
0.000243377
0.00024334
0.000243302
0.000243329
0.000243369
0.000243388
0.000243321
0.000243295
0.000243347
0.00024331
0.00024334
0.000243329
0.00024331
0.000243347
0.00024334
0.000243273
0.000243329
0.000243291
0.000243314
0.000243317
0.000243314
0.000243381
0.000243317
0.000243343
0.000243336
0.000243332
0.000243325
0.00024334
0.000243317
0.000243343
0.000243388
0.000243366
0.000243351
0.000243343
0.000243351
0.000243355
0.00024341
0.00024334
0.000243332
0.000243392
0.000243355
0.000243373
0.00024341
0.000243422
0.000243384
0.000243392
0.000243343
0.000243399
0.000243414
0.000243392
0.000243403
0.000243429
0.000243355
0.000243437
0.000243407
0.000243373
0.000243455
0.000243448
0.000243407
0.000243492
0.000243418
0.000243481
0.000243418
0.000243478
0.0002435
0.000243496
0.000243515
0.000243481
0.000243593
0.000243548
0.000243522
0.000243556
0.000243582
0.000243571
0.000243563
0.000243574
0.000243757
0.000243761
0.000243742
0.000243753
0.00024369
0.000243738
0.000243742
0.000243697
0.00024363
0.000243686
0.000243649
0.000243623
0.000243645
0.000243623
0.000243638
0.000243634
0.000243615
0.000243548
0.000243589
0.000243537
0.000243619
0.000243608
0.000243545
0.000243507
0.000243507
0.000243541
0.000243582
0.000243519
0.000243545
0.000243567
0.000243574
0.000243586
0.000243541
0.000243567
0.000243574
0.000243548
0.000243515
0.000243489
0.000243526
0.000243537
0.000243533
0.000243511
0.000243459
0.000243455
0.000243481
0.000243556
0.000243507
0.000243526
0.000243489
0.000243422
0.0002435
0.000243466
0.000243519
0.000243451
0.000243492
0.000243448
0.000243414
0.000243437
0.000243429
0.000243429
0.000243414
0.000243437
0.000243407
0.000243496
0.000243451
0.000243485
0.000243459
0.000243429
0.000243459
0.000243455
0.000243451
0.000243478
0.000243485
0.000243496
0.000243489
0.000243478
0.0002435
0.000243392
0.000243414
0.000243399
0.000243392
0.000243451
0.000243437
0.000243437
0.000243437
0.00024341
0.000243407
0.000243422
0.000243429
0.000243466
0.000243463
0.000243429
0.000243448
0.000243429
0.000243455
0.000243459
0.000243474
0.000243474
0.000243433
0.000243444
0.000243437
0.000242662
0.000242684
0.000242669
0.000242691
0.000242643
0.000242651
0.000242691
0.000242576
0.000242561
0.000242569
0.00024255
0.00024258
0.000242576
0.000242554
0.000242557
0.000242453
0.000242524
0.00024252
0.000242542
0.000242539
0.000242479
0.000242472
0.000242472
0.000242464
0.000242475
0.000242453
0.000242468
0.000242367
0.000242408
0.000242408
0.000242401
0.000242408
0.00024239
0.000242382
0.000242416
0.000242438
0.000242379
0.000242393
0.000242356
0.000242345
0.000242379
0.000242364
0.000242367
0.000242304
0.000242323
0.000242397
0.000242345
0.000242341
0.000242289
0.000242304
0.000242297
0.000242334
0.000242308
0.000242312
0.000242297
0.000242304
0.000242271
0.000242222
0.000242271
0.000242271
0.000242289
0.000242263
0.000242289
0.000242285
0.000242244
0.000242244
0.000242207
0.00024217
0.0002422
0.000242207
0.000242189
0.000242215
0.000242244
0.000242218
0.000242181
0.000242189
0.000242159
0.000242185
0.000242125
0.000242159
0.000242215
0.00024223
0.000242162
0.000242159
0.000242125
0.000242148
0.000242159
0.000242174
0.000242196
0.00024217
0.000242185
0.00024217
0.000242084
0.000242118
0.00024214
0.000242136
0.000242099
0.000242133
0.000242125
0.000242133
0.000242092
0.000240739
0.000240661
0.000240702
0.000240646
0.000240635
0.000240598
0.00024062
0.000240646
0.000240628
0.000240598
0.00024065
0.000240576
0.000240605
0.000240557
0.000240553
0.000240516
0.000240546
0.000240535
0.000240531
0.00024052
0.000240482
0.000240467
0.000240441
0.00024046
0.000240475
0.000240482
0.000240479
0.000240374
0.000240404
0.000240397
0.000240434
0.000240453
0.000240345
0.000240322
0.000240359
0.000240315
0.000240318
0.000240382
0.000240367
0.000240285
0.000240292
0.00024033
0.000240277
0.000240266
0.0002403
0.0002403
0.000240311
0.000240277
0.000240255
0.000240285
0.000240307
0.000240304
0.000240229
0.000240222
0.000240207
0.000240207
0.000240214
0.000240132
0.000240162
0.000240244
0.000240155
0.000240181
0.000240196
0.000240177
0.000240166
0.000240143
0.000240181
0.000240117
0.000240106
0.000240095
0.000240121
0.000240117
0.000240069
0.000240132
0.000240136
0.000240106
0.000240076
0.000240028
0.000240043
0.000240039
0.000240002
0.000240061
0.000240061
0.000240069
0.000240069
0.00024005
0.000240076
0.000240073
0.000240065
0.000240061
0.000240061
0.000240069
0.000240039
0.000240054
0.000240047
0.000240032
0.00024002
0.000240006
0.000240028
0.000240028
0.000240028
0.000238139
0.000238124
0.000238206
0.000238169
0.000238128
0.000238054
0.000238035
0.000238057
0.000238035
0.00023802
0.000238016
0.000238027
0.00023805
0.00023805
0.000237983
0.000238005
0.000237949
0.000237983
0.000237945
0.000237916
0.000237864
0.000237864
0.000237893
0.000237867
0.00023789
0.000237871
0.000237864
0.000237819
0.000237819
0.000237808
0.000237826
0.000237826
0.000237752
0.000237767
0.000237782
0.000237759
0.000237789
0.000237759
0.000237726
0.000237741
0.000237733
0.000237692
0.000237688
0.000237729
0.000237711
0.000237659
0.000237692
0.000237692
0.00023767
0.000237685
0.0002377
0.000237696
0.000237603
0.000237606
0.000237629
0.000237599
0.000237618
0.000237569
0.000237562
0.000237554
0.000237525
0.000237551
0.000237573
0.000237584
0.000237551
0.00023758
0.000237457
0.000237491
0.000237484
0.000237487
0.000237551
0.000237469
0.000237495
0.000237517
0.000237472
0.000237443
0.000237461
0.000237394
0.000237439
0.000237457
0.000237465
0.000237387
0.000237383
0.000237361
0.000237398
0.000237398
0.000237372
0.00023739
0.000237357
0.000237353
0.000237361
0.000237398
0.000237383
0.000237349
0.000237312
0.000237349
0.000237312
0.000237335
0.000237305
0.000237335
0.000237364
0.000235166
0.000235155
0.000235204
0.00023514
0.000235151
0.000235166
0.000235114
0.000235096
0.000235099
0.000235122
0.00023507
0.000235107
0.000235099
0.000235021
0.000235025
0.000235017
0.000235036
0.000235014
0.000235029
0.000234976
0.000235006
0.000234965
0.000235029
0.000234924
0.000234928
0.000234921
0.000234887
0.000234857
0.000234883
0.000234913
0.000234853
0.000234853
0.00023485
0.00023485
0.000234846
0.000234783
0.000234835
0.00023485
0.000234842
0.000234809
0.00023482
0.000234786
0.000234757
0.000234734
0.000234734
0.000234734
0.000234716
0.000234731
0.000234716
0.000234742
0.000234701
0.000234708
0.000234742
0.000234678
0.000234686
0.000234645
0.000234637
0.00023457
0.000234585
0.000234593
0.000234578
0.000234663
0.00023466
0.00023463
0.00023463
0.00023463
0.000234626
0.000234578
0.000234608
0.000234578
0.000234574
0.000234541
0.000234503
0.000234533
0.000234496
0.000234496
0.000234462
0.000234488
0.000234514
0.000234418
0.000234477
0.000234488
0.000234485
0.000234455
0.000234488
0.000234425
0.00023444
0.000234447
0.000234436
0.000234447
0.00023441
0.000234425
0.000234358
0.000234392
0.000234421
0.000234339
0.000234421
0.000234358
0.000234373
0.000234384
0.000234365
0.000232026
0.000232045
0.000231996
0.000232045
0.000232011
0.000231974
0.000232015
0.000231985
0.00023194
0.000231989
0.000231974
0.000231918
0.000231836
0.000231896
0.000231896
0.000231903
0.000231903
0.000231899
0.000231855
0.000231829
0.000231836
0.00023181
0.000231776
0.000231799
0.000231784
0.000231829
0.000231754
0.000231739
0.000231732
0.000231765
0.000231732
0.000231728
0.000231728
0.00023168
0.000231687
0.000231642
0.000231616
0.000231609
0.000231575
0.000231612
0.000231612
0.000231598
0.000231612
0.000231612
0.000231553
0.000231553
0.000231568
0.000231531
0.000231523
0.000231512
0.000231583
0.000231571
0.000231531
0.000231512
0.000231508
0.000231527
0.000231523
0.000231449
0.000231452
0.000231445
0.000231404
0.000231463
0.000231434
0.000231404
0.000231411
0.000231441
0.000231378
0.000231396
0.000231396
0.000231363
0.000231337
0.000231337
0.000231378
0.000231363
0.000231396
0.000231385
0.000231322
0.000231322
0.000231296
0.000231292
0.000231259
0.000231277
0.000231292
0.000231273
0.000231277
0.000231296
0.000231221
0.000231221
0.000231232
0.000231236
0.000231262
0.000231199
0.000231203
0.000231203
0.000231203
0.000231184
0.000231214
0.000231229
0.000231169
0.000231151
0.000231136
0.000228811
0.0002288
0.000228722
0.000228703
0.000228673
0.000228707
0.000228707
0.000228707
0.000228729
0.000228703
0.000228684
0.000228662
0.000228647
0.000228666
0.000228632
0.000228584
0.000228625
0.000228599
0.000228535
0.000228588
0.00022855
0.00022858
0.000228584
0.00022855
0.000228547
0.00022855
0.000228532
0.000228543
0.000228535
0.000228509
0.00022845
0.000228439
0.00022842
0.000228446
0.000228427
0.000228424
0.000228461
0.00022839
0.000228401
0.000228386
0.00022836
0.000228364
0.000228424
0.000228394
0.000228401
0.00022836
0.000228338
0.000228342
0.000228342
0.000228345
0.000228297
0.000228319
0.000228301
0.000228297
0.000228304
0.00022826
0.000228237
0.000228204
0.00022817
0.000228181
0.000228193
0.000228178
0.000228167
0.000228174
0.000228196
0.000228155
0.000228137
0.000228141
0.00022817
0.000228189
0.000228103
0.0002281
0.0002281
0.000228129
0.000228066
0.000228066
0.000228066
0.000228085
0.00022807
0.000228055
0.000228044
0.000228029
0.000228044
0.000227999
0.000228006
0.000228047
0.000227988
0.000227958
0.000228003
0.000227991
0.000227977
0.000227973
0.000227943
0.000227895
0.000227921
0.000227906
0.000227872
0.000227902
0.000227917
0.000227932
0.000227917
0.000225496
0.000225537
0.000225469
0.000225481
0.000225447
0.000225354
0.000225309
0.000225358
0.000225369
0.000225391
0.000225365
0.000225309
0.000225283
0.00022532
0.000225309
0.000225328
0.000225332
0.000225324
0.000225294
0.000225302
0.000225209
0.000225209
0.000225212
0.000225153
0.00022516
0.00022519
0.000225209
0.000225198
0.000225183
0.000225138
0.000225153
0.000225093
0.000225093
0.000225138
0.000225104
0.000225097
0.000225101
0.000225071
0.000225075
0.000225056
0.000225019
0.000225045
0.000225026
0.000225019
0.000225019
0.00022494
0.000224929
0.000224993
0.000224963
0.000224933
0.000224974
0.00022494
0.000224959
0.000224974
0.000224948
0.000224944
0.000224903
0.000224866
0.000224836
0.000224851
0.000224851
0.000224832
0.000224859
0.00022487
0.000224873
0.000224832
0.000224814
0.000224821
0.000224821
0.000224818
0.000224743
0.000224732
0.000224743
0.000224795
0.000224784
0.000224769
0.000224724
0.000224762
0.000224788
0.000224736
0.000224672
0.000224676
0.000224695
0.000224598
0.000224601
0.000224631
0.000224654
0.000224616
0.000224639
0.000224631
0.000224646
0.000224639
0.000224572
0.000224601
0.000224605
0.00022456
0.000224546
0.00022459
0.000224609
0.000224587
0.000224598
0.000222083
0.000222083
0.000221983
0.000222031
0.000221997
0.000222009
0.000222038
0.000222031
0.000221975
0.00022199
0.000221923
0.00022193
0.000221904
0.000221949
0.000221949
0.000221968
0.000221875
0.000221893
0.00022186
0.000221863
0.000221811
0.000221815
0.000221834
0.00022183
0.00022183
0.000221815
0.000221819
0.000221781
0.000221774
0.000221774
0.000221789
0.000221778
0.000221804
0.000221729
0.00022174
0.000221726
0.000221673
0.000221647
0.000221711
0.000221711
0.000221651
0.000221651
0.000221651
0.000221606
0.000221629
0.000221618
0.00022161
0.000221606
0.000221599
0.000221606
0.000221554
0.000221591
0.000221577
0.000221588
0.000221506
0.000221513
0.000221495
0.000221528
0.000221528
0.000221532
0.000221539
0.000221517
0.000221446
0.000221383
0.000221446
0.000221428
0.000221472
0.00022145
0.000221413
0.000221413
0.00022142
0.000221416
0.000221454
0.000221398
0.000221331
0.000221334
0.000221375
0.000221372
0.000221375
0.000221372
0.000221379
0.000221364
0.000221349
0.000221357
0.000221327
0.000221297
0.000221301
0.000221301
0.000221275
0.000221279
0.000221249
0.000221241
0.000221219
0.000221193
0.000221193
0.000221226
0.000221219
0.000221189
0.000221167
0.000221193
0.000221215
0.000218637
0.000218593
0.0002186
0.000218574
0.000218563
0.000218548
0.000218552
0.000218567
0.0002186
0.000218533
0.000218544
0.000218548
0.000218514
0.000218499
0.000218496
0.000218503
0.000218458
0.000218458
0.000218403
0.000218403
0.000218388
0.000218369
0.000218406
0.00021841
0.000218347
0.000218336
0.000218332
0.000218354
0.000218354
0.000218309
0.000218336
0.000218328
0.000218332
0.000218298
0.000218287
0.000218295
0.000218291
0.000218261
0.000218272
0.00021828
0.000218246
0.00021822
0.00021822
0.00021816
0.000218216
0.000218209
0.000218142
0.000218175
0.000218205
0.000218209
0.000218149
0.000218123
0.000218112
0.000218105
0.000218112
0.000218149
0.000218157
0.000218112
0.000218093
0.000218127
0.000218045
0.000218049
0.000218097
0.00021806
0.000218071
0.000218015
0.000218015
0.000218015
0.000217997
0.00021797
0.000217982
0.000217993
0.000218
0.000217982
0.000218011
0.000217948
0.000217944
0.000217956
0.000217941
0.000217933
0.000217937
0.000217918
0.000217963
0.000217892
0.000217915
0.000217874
0.00021787
0.000217881
0.000217814
0.000217844
0.000217836
0.000217836
0.000217762
0.000217821
0.000217766
0.000217795
0.000217803
0.000217821
0.000217825
0.000217777
0.000217762
0.000215091
0.000215147
0.000215113
0.000215106
0.000215046
0.000215065
0.000215083
0.000215013
0.000215016
0.000215039
0.000215009
0.000215016
0.000214983
0.000214994
0.000215001
0.000214934
0.00021499
0.00021499
0.000214949
0.000214953
0.000214901
0.000214901
0.000214867
0.000214882
0.000214882
0.000214901
0.000214901
0.000214837
0.000214856
0.000214811
0.000214815
0.000214834
0.000214811
0.000214819
0.000214793
0.000214811
0.000214837
0.00021483
0.000214789
0.000214785
0.000214797
0.000214793
0.000214759
0.000214778
0.000214752
0.000214707
0.000214711
0.000214662
0.00021467
0.000214625
0.000214648
0.000214655
0.000214711
0.000214648
0.000214662
0.000214621
0.000214629
0.000214588
0.000214588
0.000214584
0.000214618
0.00021461
0.000214607
0.000214566
0.000214551
0.000214543
0.000214521
0.000214573
0.000214577
0.00021458
0.000214595
0.000214506
0.000214517
0.00021451
0.000214536
0.000214491
0.000214551
0.000214498
0.000214484
0.000214469
0.000214469
0.000214417
0.000214409
0.000214387
0.000214372
0.00021442
0.000214424
0.000214424
0.000214424
0.000214357
0.000214342
0.000214346
0.000214349
0.000214353
0.000214342
0.000214368
0.000214357
0.000214335
0.000214316
0.000214327
0.000214368
0.00021166
0.000211608
0.000211611
0.000211559
0.000211559
0.000211563
0.000211563
0.000211522
0.000211526
0.000211537
0.000211515
0.000211503
0.00021147
0.000211466
0.000211466
0.000211488
0.000211436
0.000211436
0.000211436
0.000211459
0.000211406
0.00021138
0.000211377
0.00021138
0.000211392
0.000211351
0.000211358
0.000211298
0.000211302
0.000211306
0.000211306
0.00021131
0.000211302
0.000211291
0.000211287
0.000211239
0.000211239
0.000211261
0.000211254
0.000211202
0.000211224
0.000211213
0.000211231
0.00021122
0.000211157
0.000211157
0.000211161
0.000211146
0.000211176
0.000211135
0.000211138
0.000211179
0.000211108
0.000211157
0.000211112
0.000211105
0.00021109
0.000211161
0.000211172
0.000211079
0.000211067
0.000211064
0.000211008
0.000211064
0.000211079
0.000211079
0.000211079
0.000211079
0.000211012
0.000211034
0.000211015
0.000211049
0.000211027
0.000211
0.000211019
0.000210956
0.000210963
0.000210993
0.000210937