/*--------------------------------*- C++ -*----------------------------------*\
| =========                 |                                                 |
| \\      /  F ield         | OpenFOAM: The Open Source CFD Toolbox           |
|  \\    /   O peration     | Version:  v2006                                 |
|   \\  /    A nd           | Website:  www.openfoam.com                      |
|    \\/     M anipulation  |                                                 |
\*---------------------------------------------------------------------------*/
FoamFile
{
    version     2.0;
    format      ascii;
    class       surfaceScalarField;
    location    "15.2";
    object      alphaPhi0.water;
}
// * * * * * * * * * * * * * * * * * * * * * * * * * * * * * * * * * * * * * //

dimensions      [0 3 -1 0 0 0 0];
oriented        oriented;


internalField   nonuniform List<scalar> 
99450
(
-1.93812e-05
1.93812e-05
-2.44039e-05
5.02272e-06
-2.95837e-05
5.17979e-06
-3.79774e-05
8.39366e-06
-4.85855e-05
1.06081e-05
-6.00947e-05
1.15092e-05
-7.19684e-05
1.18737e-05
-8.40465e-05
1.20781e-05
-9.63123e-05
1.22658e-05
-0.000108785
1.24723e-05
-0.000121455
1.267e-05
-0.000134297
1.2842e-05
-0.000147275
1.29787e-05
-0.000160351
1.30754e-05
-0.000173479
1.31286e-05
-0.000186621
1.31421e-05
-0.000199727
1.31055e-05
-0.000212749
1.30221e-05
-0.000225652
1.29032e-05
-0.000238386
1.27341e-05
-0.000250916
1.25294e-05
-0.000263203
1.22876e-05
-0.000275206
1.20032e-05
-0.000286889
1.16827e-05
-0.000298231
1.13416e-05
-0.000309213
1.09822e-05
-0.000319817
1.06041e-05
-0.000330032
1.02148e-05
-0.000339859
9.82715e-06
-0.000349318
9.45854e-06
-0.00035844
9.12264e-06
-0.000367283
8.84237e-06
-0.000375935
8.65237e-06
-0.0003845
8.56515e-06
-0.000393075
8.57519e-06
-0.000401712
8.63684e-06
-0.000410411
8.69917e-06
-0.000419142
8.73095e-06
-0.000427874
8.73219e-06
-0.000436595
8.72082e-06
-0.000445294
8.69857e-06
-0.000453916
8.62262e-06
-0.000462327
8.41103e-06
-0.000470327
7.99956e-06
-0.000477708
7.38058e-06
-0.00048428
6.5721e-06
-0.000489857
5.57703e-06
-0.00049421
4.35343e-06
-0.000497092
2.8822e-06
-0.000498248
1.1553e-06
-0.000497475
-7.73028e-07
-0.000494729
-2.74512e-06
-0.000490091
-4.63885e-06
-0.000483718
-6.37256e-06
-0.00047578
-7.9384e-06
-0.00046642
-9.35927e-06
-0.000455745
-1.0675e-05
-0.00044384
-1.19057e-05
-0.000430765
-1.30744e-05
-0.000416584
-1.41819e-05
-0.000401354
-1.52296e-05
-0.00038514
-1.62143e-05
-0.000368
-1.71394e-05
-0.000349998
-1.80023e-05
-0.00033119
-1.88077e-05
-0.000311635
-1.95553e-05
-0.00029139
-2.02448e-05
-0.00027051
-2.088e-05
-0.000249055
-2.14554e-05
-0.000227077
-2.19775e-05
-0.000204632
-2.24451e-05
-0.000181777
-2.28552e-05
-0.000158566
-2.32109e-05
-0.000135052
-2.35145e-05
-0.000111285
-2.37666e-05
-8.73195e-05
-2.39656e-05
-6.32099e-05
-2.41096e-05
-3.90133e-05
-2.41966e-05
-1.47896e-05
-2.42236e-05
9.40599e-06
-2.41956e-05
3.35079e-05
-2.41019e-05
5.74413e-05
-2.39334e-05
8.11351e-05
-2.36939e-05
0.000104498
-2.33626e-05
0.000127468
-2.29699e-05
0.000149983
-2.25154e-05
0.000171931
-2.1948e-05
0.000193218
-2.12872e-05
0.00021375
-2.0532e-05
0.000233414
-1.96637e-05
0.000252086
-1.86716e-05
0.000269615
-1.75293e-05
0.00028584
-1.62252e-05
0.000300554
-1.47134e-05
0.00031347
-1.29165e-05
0.000324198
-1.07277e-05
0.000332291
-8.09336e-06
0.00033743
-5.13892e-06
0.000339513
-2.08273e-06
0.000338721
7.91488e-07
0.000335521
3.20022e-06
0.000330417
5.10389e-06
0.000323915
6.50207e-06
0.000316533
7.38173e-06
0.000308685
7.84862e-06
0.00030069
7.99528e-06
0.000292831
7.85806e-06
0.000285438
7.39314e-06
0.000278889
6.54883e-06
0.000273581
5.3086e-06
0.00026986
3.72057e-06
0.000268014
1.84661e-06
0.000267927
8.62177e-08
0.000268917
-9.89616e-07
0.000270395
-1.47788e-06
0.000271838
-1.44292e-06
0.000272905
-1.06704e-06
0.000273422
-5.16698e-07
0.000273319
1.02245e-07
0.000272461
8.58099e-07
0.000270862
1.59934e-06
0.00026851
2.3518e-06
0.000265417
3.09349e-06
0.000261572
3.84482e-06
0.000256995
4.57686e-06
0.000251704
5.29083e-06
0.000245719
5.98509e-06
0.000239102
6.61708e-06
0.000231859
7.243e-06
0.000224016
7.84276e-06
0.000215602
8.41411e-06
0.000206645
8.95727e-06
0.000197192
9.45247e-06
0.00018727
9.92192e-06
0.000176922
1.03488e-05
0.000166196
1.07261e-05
0.000155132
1.10636e-05
0.000143787
1.13449e-05
0.000132209
1.15779e-05
0.000120455
1.17546e-05
0.000108566
1.18884e-05
9.65929e-05
1.19733e-05
8.45926e-05
1.20003e-05
7.26639e-05
1.19287e-05
6.08877e-05
1.17762e-05
4.93552e-05
1.15325e-05
3.79826e-05
1.13727e-05
2.70461e-05
1.09364e-05
1.5961e-05
1.10851e-05
1.5961e-05
-2.29068e-05
4.2288e-05
-3.41451e-05
1.62611e-05
-4.63531e-05
1.73878e-05
-6.23987e-05
2.44393e-05
-8.08403e-05
2.90497e-05
-0.000100139
3.08081e-05
-0.00011965
3.13843e-05
-0.000139355
3.17831e-05
-0.000159352
3.22634e-05
-0.000179681
3.28013e-05
-0.000200308
3.32963e-05
-0.000221172
3.37066e-05
-0.000242224
3.40299e-05
-0.000263382
3.42339e-05
-0.000284589
3.43357e-05
-0.000305757
3.43093e-05
-0.000326812
3.4161e-05
-0.000347674
3.38843e-05
-0.000368247
3.34756e-05
-0.000388454
3.29417e-05
-0.000408206
3.22809e-05
-0.000427407
3.14893e-05
-0.000445991
3.05863e-05
-0.000463874
2.95663e-05
-0.000480977
2.84446e-05
-0.000497221
2.7226e-05
-0.000512532
2.59155e-05
-0.000526836
2.45185e-05
-0.000540051
2.30416e-05
-0.000552088
2.14958e-05
-0.000562861
1.98963e-05
-0.000572285
1.82658e-05
-0.000580263
1.66305e-05
-0.000586719
1.50213e-05
-0.000591627
1.34827e-05
-0.000595025
1.20351e-05
-0.000596999
1.06738e-05
-0.000597649
9.38038e-06
-0.000597054
8.13718e-06
-0.000595269
6.93565e-06
-0.000592344
5.77417e-06
-0.000588357
4.63522e-06
-0.000583421
3.47459e-06
-0.000577666
2.2454e-06
-0.000571227
9.40819e-07
-0.000564199
-4.55037e-07
-0.000556623
-1.99958e-06
-0.000548578
-3.69163e-06
-0.000540114
-5.58161e-06
-0.000531276
-7.6827e-06
-0.000522126
-9.92259e-06
-0.00051262
-1.2252e-05
-0.00050267
-1.45879e-05
-0.000492171
-1.68721e-05
-0.00048105
-1.90596e-05
-0.000469259
-2.11499e-05
-0.000456804
-2.31302e-05
-0.000443688
-2.50212e-05
-0.000429944
-2.6819e-05
-0.000415592
-2.85335e-05
-0.000400657
-3.01645e-05
-0.000385159
-3.17125e-05
-0.000369122
-3.31767e-05
-0.000352566
-3.45581e-05
-0.000335506
-3.58678e-05
-0.000317973
-3.7088e-05
-0.00029999
-3.82279e-05
-0.000281575
-3.92947e-05
-0.000262751
-4.02796e-05
-0.000243547
-4.11811e-05
-0.00022399
-4.2002e-05
-0.000204103
-4.27427e-05
-0.000183911
-4.3403e-05
-0.000163442
-4.39831e-05
-0.000142726
-4.44831e-05
-0.000121788
-4.49029e-05
-0.000100657
-4.52406e-05
-7.9354e-05
-4.54999e-05
-5.79028e-05
-4.56749e-05
-3.63364e-05
-4.57621e-05
-1.46864e-05
-4.57519e-05
7.01953e-06
-4.56393e-05
2.87547e-05
-4.54291e-05
5.04908e-05
-4.50987e-05
7.21399e-05
-4.4619e-05
9.36729e-05
-4.40483e-05
0.00011506
-4.33347e-05
0.00013623
-4.24575e-05
0.000157138
-4.14402e-05
0.000177732
-4.02572e-05
0.000197957
-3.88973e-05
0.000217728
-3.73001e-05
0.000237033
-3.55306e-05
0.000255817
-3.34967e-05
0.000274079
-3.11791e-05
0.000291886
-2.85344e-05
0.000309349
-2.55558e-05
0.000326479
-2.22689e-05
0.000343219
-1.88235e-05
0.000359464
-1.54537e-05
0.000375134
-1.24695e-05
0.000390266
-1.00277e-05
0.000405096
-8.32848e-06
0.000419832
-7.35418e-06
0.000434716
-7.03513e-06
0.000449948
-7.23675e-06
0.000465629
-7.82351e-06
0.000481713
-8.69075e-06
0.000497979
-9.71648e-06
0.000514052
-1.0765e-05
0.000529431
-1.16584e-05
0.000543492
-1.22142e-05
0.000555794
-1.22159e-05
0.000566386
-1.15814e-05
0.000575308
-1.03998e-05
0.000582661
-8.79587e-06
0.000588499
-6.90493e-06
0.000592835
-4.85245e-06
0.00059564
-2.70365e-06
0.000596931
-4.32753e-07
0.000596705
1.82567e-06
0.00059497
4.08714e-06
0.000591689
6.37461e-06
0.000586852
8.68163e-06
0.000580449
1.09791e-05
0.000572485
1.32556e-05
0.000562987
1.54824e-05
0.000551951
1.76534e-05
0.0005394
1.97945e-05
0.000525351
2.18916e-05
0.000509822
2.39429e-05
0.000492819
2.59604e-05
0.000474361
2.79099e-05
0.000454476
2.98069e-05
0.000433196
3.16287e-05
0.000410578
3.33444e-05
0.000386667
3.49745e-05
0.000361536
3.64759e-05
0.000335258
3.78563e-05
0.000307907
3.91054e-05
0.000279597
4.01988e-05
0.000250433
4.11367e-05
0.000220481
4.19522e-05
0.000189809
4.26012e-05
0.000158443
4.31419e-05
0.000126367
4.36088e-05
9.3734e-05
4.40054e-05
6.16612e-05
4.30092e-05
3.20232e-05
4.07231e-05
4.79842e-05
-2.26544e-05
6.49424e-05
-3.10184e-05
2.46251e-05
-3.89515e-05
2.53209e-05
-5.12488e-05
3.67366e-05
-6.71043e-05
4.49052e-05
-8.45651e-05
4.82689e-05
-0.000102386
4.92052e-05
-0.000120306
4.97027e-05
-0.000138471
5.04292e-05
-0.000157011
5.13412e-05
-0.000175966
5.22507e-05
-0.000195293
5.30341e-05
-0.00021492
5.36563e-05
-0.000234778
5.40928e-05
-0.000254784
5.43413e-05
-0.000274866
5.43908e-05
-0.000294936
5.42314e-05
-0.000314908
5.3856e-05
-0.000334698
5.32656e-05
-0.000354219
5.2463e-05
-0.00037339
5.14522e-05
-0.000392131
5.02301e-05
-0.000410374
4.88295e-05
-0.000428049
4.72406e-05
-0.000445082
4.54776e-05
-0.000461419
4.35633e-05
-0.000477004
4.1501e-05
-0.0004918
3.93139e-05
-0.000505764
3.70063e-05
-0.000518864
3.45959e-05
-0.000531069
3.21012e-05
-0.000542343
2.95392e-05
-0.000552645
2.69325e-05
-0.000561934
2.43107e-05
-0.00057016
2.17087e-05
-0.000577286
1.91605e-05
-0.000583279
1.66676e-05
-0.000588114
1.42145e-05
-0.000591752
1.17759e-05
-0.000594148
9.3318e-06
-0.00059527
6.89533e-06
-0.000595118
4.48409e-06
-0.000593729
2.08488e-06
-0.000591082
-4.0159e-07
-0.000587324
-2.81736e-06
-0.000582464
-5.31426e-06
-0.000576595
-7.86859e-06
-0.000569818
-1.04692e-05
-0.000562257
-1.31423e-05
-0.00055404
-1.58993e-05
-0.000545206
-1.87575e-05
-0.000535766
-2.16917e-05
-0.000525707
-2.46468e-05
-0.000514984
-2.7595e-05
-0.000503575
-3.04685e-05
-0.000491466
-3.32595e-05
-0.000478642
-3.59536e-05
-0.000465135
-3.85279e-05
-0.000450956
-4.09987e-05
-0.000436114
-4.33756e-05
-0.000420636
-4.56419e-05
-0.000404544
-4.78046e-05
-0.000387859
-4.98622e-05
-0.0003706
-5.1817e-05
-0.0003528
-5.36673e-05
-0.000334478
-5.54103e-05
-0.000315664
-5.70416e-05
-0.000296381
-5.85785e-05
-0.000276656
-6.0004e-05
-0.000256518
-6.13199e-05
-0.000235994
-6.2526e-05
-0.000215115
-6.36214e-05
-0.000193912
-6.46055e-05
-0.000172417
-6.54783e-05
-0.000150664
-6.62364e-05
-0.000128673
-6.68934e-05
-0.00010648
-6.74335e-05
-8.41222e-05
-6.78581e-05
-6.16315e-05
-6.81655e-05
-3.90424e-05
-6.83512e-05
-1.63804e-05
-6.84139e-05
6.31979e-06
-6.83396e-05
2.89989e-05
-6.81082e-05
5.1642e-05
-6.77417e-05
7.42391e-05
-6.72162e-05
9.67108e-05
-6.652e-05
0.000119027
-6.56508e-05
0.000141154
-6.4585e-05
0.000163059
-6.33451e-05
0.000184695
-6.1893e-05
0.000206033
-6.02351e-05
0.000227105
-5.83722e-05
0.000247842
-5.62674e-05
0.000268229
-5.38838e-05
0.000288348
-5.12983e-05
0.000308287
-4.84729e-05
0.000328163
-4.54324e-05
0.000348079
-4.21845e-05
0.000368064
-3.88092e-05
0.000388075
-3.54641e-05
0.000407912
-3.23069e-05
0.000427388
-2.95032e-05
0.000446202
-2.71429e-05
0.000464112
-2.52638e-05
0.000480881
-2.38041e-05
0.000496315
-2.26711e-05
0.000510254
-2.17619e-05
0.000522555
-2.09922e-05
0.000533119
-2.02802e-05
0.000541884
-1.95301e-05
0.000548836
-1.86108e-05
0.000554014
-1.73921e-05
0.000557554
-1.57557e-05
0.000559716
-1.37434e-05
0.000560739
-1.14231e-05
0.000560821
-8.8779e-06
0.000560085
-6.1688e-06
0.000558594
-3.36152e-06
0.000556472
-5.81135e-07
0.000553768
2.27087e-06
0.000550393
5.20116e-06
0.000546329
8.1508e-06
0.000541554
1.11498e-05
0.000536032
1.42031e-05
0.000529704
1.73068e-05
0.000522514
2.04461e-05
0.0005144
2.35962e-05
0.0005053
2.67541e-05
0.000495175
2.99195e-05
0.000483974
3.30924e-05
0.000471636
3.62808e-05
0.000458122
3.94745e-05
0.000443356
4.26757e-05
0.000427301
4.58623e-05
0.000409903
4.90261e-05
0.000391103
5.21447e-05
0.000370876
5.52017e-05
0.00034919
5.81612e-05
0.000326062
6.09849e-05
0.000301485
6.36825e-05
0.000275503
6.61807e-05
0.000248153
6.84865e-05
0.000219548
7.05568e-05
0.000189723
7.24262e-05
0.000158709
7.41562e-05
0.000126512
7.58058e-05
9.37844e-05
7.67333e-05
6.24876e-05
7.4306e-05
3.43144e-05
6.88963e-05
8.22986e-05
-2.19731e-05
8.69155e-05
-2.83564e-05
3.10084e-05
-3.36174e-05
3.05819e-05
-4.2911e-05
4.60303e-05
-5.60083e-05
5.80024e-05
-7.11325e-05
6.33931e-05
-8.69302e-05
6.50029e-05
-0.000102944
6.57169e-05
-0.000119213
6.66978e-05
-0.000135881
6.80095e-05
-0.000153007
6.93769e-05
-0.000170582
7.06083e-05
-0.000188553
7.16274e-05
-0.000206839
7.23792e-05
-0.000225381
7.28836e-05
-0.000244108
7.31175e-05
-0.000262947
7.30708e-05
-0.000281819
7.27279e-05
-0.000300642
7.20882e-05
-0.000319331
7.11525e-05
-0.000337806
6.99264e-05
-0.000355997
6.84215e-05
-0.000373818
6.66506e-05
-0.000391203
6.46255e-05
-0.000408086
6.23604e-05
-0.0004244
5.98771e-05
-0.000440091
5.71918e-05
-0.000455101
5.43239e-05
-0.000469394
5.12997e-05
-0.00048293
4.81319e-05
-0.000495681
4.48517e-05
-0.000507624
4.14822e-05
-0.000518739
3.80482e-05
-0.000528999
3.45704e-05
-0.000538361
3.10703e-05
-0.000546763
2.7563e-05
-0.000554146
2.40509e-05
-0.000560465
2.05335e-05
-0.000565702
1.70122e-05
-0.00056985
1.34799e-05
-0.000572897
9.94213e-06
-0.000574813
6.4005e-06
-0.000575579
2.85066e-06
-0.000575341
-6.39764e-07
-0.000573872
-4.2864e-06
-0.00057126
-7.92561e-06
-0.000567541
-1.1588e-05
-0.000562731
-1.52789e-05
-0.000556875
-1.89986e-05
-0.000550027
-2.27471e-05
-0.000542265
-2.65198e-05
-0.00053365
-3.03067e-05
-0.00052422
-3.40771e-05
-0.000514001
-3.78139e-05
-0.000502993
-4.14767e-05
-0.000491209
-4.50428e-05
-0.000478642
-4.85206e-05
-0.000465298
-5.18721e-05
-0.000451189
-5.51081e-05
-0.000436334
-5.82302e-05
-0.000420764
-6.12124e-05
-0.000404494
-6.4074e-05
-0.000387548
-6.6808e-05
-0.000369962
-6.9403e-05
-0.000351763
-7.18667e-05
-0.000332979
-7.41941e-05
-0.00031363
-7.63906e-05
-0.000293775
-7.84333e-05
-0.000273437
-8.03423e-05
-0.000252648
-8.21085e-05
-0.000231445
-8.37294e-05
-0.000209863
-8.52033e-05
-0.000187939
-8.65296e-05
-0.000165712
-8.77057e-05
-0.000143213
-8.87346e-05
-0.0001205
-8.96069e-05
-9.76159e-05
-9.03176e-05
-7.45957e-05
-9.08783e-05
-5.14801e-05
-9.12811e-05
-2.83141e-05
-9.15171e-05
-5.1486e-06
-9.15794e-05
1.79773e-05
-9.14654e-05
4.1048e-05
-9.11789e-05
6.39932e-05
-9.06869e-05
8.67868e-05
-9.00098e-05
0.000109383
-8.91164e-05
0.000131741
-8.80083e-05
0.000153858
-8.67025e-05
0.00017567
-8.51565e-05
0.000197174
-8.33973e-05
0.000218329
-8.13903e-05
0.000239121
-7.91643e-05
0.000259528
-7.66742e-05
0.000279617
-7.3973e-05
0.000299328
-7.10096e-05
0.00031868
-6.7824e-05
0.000337682
-6.44348e-05
0.000356383
-6.08857e-05
0.000374836
-5.72623e-05
0.000392983
-5.36107e-05
0.000410711
-5.00353e-05
0.000427816
-4.66078e-05
0.000444057
-4.33843e-05
0.000459167
-4.03733e-05
0.000472914
-3.75512e-05
0.00048513
-3.48871e-05
0.000495714
-3.23464e-05
0.000504581
-2.98595e-05
0.000511696
-2.73952e-05
0.000517078
-2.4912e-05
0.0005208
-2.23323e-05
0.00052304
-1.96326e-05
0.000524043
-1.67585e-05
0.000523961
-1.36608e-05
0.000522915
-1.03771e-05
0.000520972
-6.93568e-06
0.000518171
-3.36769e-06
0.000514395
4.14342e-07
0.000509784
4.03035e-06
0.000504327
7.72725e-06
0.000498069
1.14596e-05
0.000491028
1.51915e-05
0.000483241
1.89372e-05
0.000474742
2.27025e-05
0.000465565
2.64833e-05
0.000455735
3.02758e-05
0.000445243
3.40889e-05
0.000434088
3.79088e-05
0.000422287
4.17199e-05
0.000409834
4.55456e-05
0.00039673
4.93852e-05
0.00038295
5.32539e-05
0.000368481
5.71454e-05
0.000353287
6.10565e-05
0.000337335
6.49772e-05
0.000320584
6.88957e-05
0.00030299
7.27963e-05
0.000284485
7.66663e-05
0.000265057
8.04122e-05
0.000244677
8.40626e-05
0.000223281
8.75766e-05
0.00020095
9.08182e-05
0.000177648
9.38585e-05
0.000153279
9.67946e-05
0.000127745
9.96907e-05
0.000101083
0.000102468
7.48181e-05
0.000102998
5.14006e-05
9.77235e-05
3.05194e-05
8.97775e-05
0.000112818
-2.19493e-05
0.000108865
-2.76133e-05
3.66724e-05
-3.17459e-05
3.47144e-05
-3.97856e-05
5.407e-05
-5.17706e-05
6.99875e-05
-6.60222e-05
7.76447e-05
-8.12285e-05
8.02092e-05
-9.68061e-05
8.12945e-05
-0.000112719
8.2611e-05
-0.000129069
8.43593e-05
-0.000145923
8.62308e-05
-0.000163273
8.7958e-05
-0.000181058
8.94122e-05
-0.000199235
9.0557e-05
-0.000217728
9.13766e-05
-0.000236466
9.18547e-05
-0.000255372
9.19775e-05
-0.000274371
9.17265e-05
-0.000293378
9.10948e-05
-0.00031231
9.00853e-05
-0.000331086
8.87024e-05
-0.000349625
8.69598e-05
-0.000367844
8.487e-05
-0.000385669
8.24509e-05
-0.000403027
7.97177e-05
-0.000419853
7.67034e-05
-0.000436086
7.3425e-05
-0.00045167
6.99076e-05
-0.000466544
6.61742e-05
-0.000480668
6.22555e-05
-0.000493989
5.81726e-05
-0.000506455
5.39482e-05
-0.000518018
4.96115e-05
-0.000528635
4.5187e-05
-0.000538259
4.06946e-05
-0.000546848
3.61518e-05
-0.000554369
3.15719e-05
-0.000560794
2.6959e-05
-0.000566104
2.23224e-05
-0.000570291
1.76663e-05
-0.000573346
1.29977e-05
-0.00057527
8.32394e-06
-0.000576063
3.64429e-06
-0.000575596
-1.10718e-06
-0.000574107
-5.77489e-06
-0.000571543
-1.04896e-05
-0.000567912
-1.52195e-05
-0.000563234
-1.99569e-05
-0.000557546
-2.46867e-05
-0.00055085
-2.94424e-05
-0.000543209
-3.41614e-05
-0.000534645
-3.88702e-05
-0.000525197
-4.35253e-05
-0.000514892
-4.81189e-05
-0.000503745
-5.26232e-05
-0.000491765
-5.70234e-05
-0.00047898
-6.13053e-05
-0.000465393
-6.54596e-05
-0.000451024
-6.94763e-05
-0.000435904
-7.33504e-05
-0.000420037
-7.70796e-05
-0.000403466
-8.06447e-05
-0.000386211
-8.40629e-05
-0.000368302
-8.73127e-05
-0.000349767
-9.04012e-05
-0.000330644
-9.33178e-05
-0.000310968
-9.60657e-05
-0.000290764
-9.86373e-05
-0.000270076
-0.000101031
-0.000248939
-0.000103245
-0.000227393
-0.000105276
-0.000205475
-0.000107121
-0.000183227
-0.000108778
-0.000160689
-0.000110244
-0.000137909
-0.000111515
-0.000114921
-0.000112595
-9.17659e-05
-0.000113472
-6.84927e-05
-0.000114152
-4.51505e-05
-0.000114623
-2.1784e-05
-0.000114884
1.56599e-06
-0.000114929
2.48632e-05
-0.000114763
4.80515e-05
-0.000114367
7.11111e-05
-0.000113746
9.39851e-05
-0.000112884
0.000116648
-0.00011178
0.000139083
-0.000110443
0.000161231
-0.00010885
0.000183061
-0.000106986
0.00020455
-0.000104887
0.000225684
-0.000102525
0.000246427
-9.99072e-05
0.000266778
-9.70252e-05
0.000286705
-9.39001e-05
0.000306203
-9.05077e-05
0.000325282
-8.69025e-05
0.000343941
-8.30937e-05
0.000362158
-7.91031e-05
0.000379877
-7.49814e-05
0.000397052
-7.07857e-05
0.000413581
-6.65636e-05
0.000429348
-6.23746e-05
0.000444199
-5.82359e-05
0.000458023
-5.41976e-05
0.000470694
-5.02216e-05
0.000482152
-4.63457e-05
0.000492313
-4.25067e-05
0.000501143
-3.86901e-05
0.000508613
-3.48647e-05
0.000514681
-3.09798e-05
0.000519371
-2.70225e-05
0.000522647
-2.29089e-05
0.000524532
-1.86435e-05
0.000525093
-1.42217e-05
0.000524352
-9.63622e-06
0.000522359
-4.94291e-06
0.0005192
-2.07748e-07
0.000514978
4.63639e-06
0.00050952
9.48761e-06
0.000502912
1.43356e-05
0.000495214
1.9158e-05
0.000486436
2.39691e-05
0.000476649
2.87239e-05
0.000465909
3.34426e-05
0.000454286
3.81069e-05
0.000441823
4.27387e-05
0.000428593
4.73182e-05
0.000414658
5.18441e-05
0.000400051
5.6327e-05
0.00038483
6.07669e-05
0.00036905
6.51649e-05
0.000352765
6.95391e-05
0.000336019
7.3891e-05
0.000318842
7.8234e-05
0.000301263
8.25554e-05
0.000283302
8.68573e-05
0.000264973
9.1125e-05
0.000246297
9.53427e-05
0.000227226
9.94829e-05
0.000207783
0.000103506
0.000187991
0.000107368
0.000167801
0.000111009
0.000147207
0.000114452
0.000126097
0.000117905
0.000104234
0.000121554
8.20226e-05
0.000124679
6.10753e-05
0.000123945
4.34467e-05
0.000115352
2.72247e-05
0.000106
0.000140043
-2.21019e-05
0.000130967
-2.72595e-05
4.183e-05
-3.0291e-05
3.77459e-05
-3.72779e-05
6.10569e-05
-4.86494e-05
8.1359e-05
-6.27311e-05
9.17264e-05
-7.80193e-05
9.54974e-05
-9.3836e-05
9.71111e-05
-0.000110067
9.88421e-05
-0.000126798
0.00010109
-0.000144099
0.000103532
-0.000161965
0.000105823
-0.000180342
0.00010779
-0.000199159
0.000109374
-0.000218338
0.000110556
-0.000237799
0.000111315
-0.000257446
0.000111624
-0.000277197
0.000111478
-0.00029696
0.000110858
-0.000316639
0.000109764
-0.000336146
0.000108209
-0.000355386
0.000106201
-0.000374273
0.000103757
-0.000392728
0.000100905
-0.000410677
9.76673e-05
-0.000428043
9.40692e-05
-0.000444762
9.01438e-05
-0.000460768
8.59135e-05
-0.000476008
8.1414e-05
-0.000490428
7.66757e-05
-0.000503983
7.17275e-05
-0.000516631
6.65959e-05
-0.00052833
6.13104e-05
-0.000539042
5.58996e-05
-0.000548731
5.03836e-05
-0.000557359
4.47799e-05
-0.000564896
3.91091e-05
-0.000571326
3.33887e-05
-0.000576626
2.76227e-05
-0.000580786
2.18257e-05
-0.000583798
1.60101e-05
-0.00058565
1.0176e-05
-0.000586334
4.3284e-06
-0.000585959
-1.48211e-06
-0.000584384
-7.34993e-06
-0.000581692
-1.31823e-05
-0.000577892
-1.90188e-05
-0.000573023
-2.48259e-05
-0.000567106
-3.06039e-05
-0.000560194
-3.63543e-05
-0.000552301
-4.20545e-05
-0.000543474
-4.7697e-05
-0.000533734
-5.32657e-05
-0.000523108
-5.87444e-05
-0.000511621
-6.41108e-05
-0.000499291
-6.9353e-05
-0.000486135
-7.44615e-05
-0.000472173
-7.94219e-05
-0.000457432
-8.42174e-05
-0.000441931
-8.88511e-05
-0.000425699
-9.33113e-05
-0.000408751
-9.75932e-05
-0.000391126
-0.000101688
-0.000372851
-0.000105588
-0.000353958
-0.000109294
-0.000334476
-0.000112799
-0.000314447
-0.000116095
-0.000293902
-0.000119182
-0.000272877
-0.000122056
-0.000251412
-0.000124711
-0.000229543
-0.000127145
-0.000207309
-0.000129355
-0.00018475
-0.000131337
-0.000161907
-0.000133087
-0.000138819
-0.000134603
-0.000115528
-0.000135886
-9.208e-05
-0.00013692
-6.85173e-05
-0.000137714
-4.48784e-05
-0.000138262
-2.12032e-05
-0.000138559
2.46682e-06
-0.000138599
2.60825e-05
-0.000138378
4.96124e-05
-0.000137897
7.30136e-05
-0.000137148
9.62568e-05
-0.000136127
0.000119304
-0.000134827
0.000142113
-0.000133251
0.000164652
-0.00013139
0.000186923
-0.000129257
0.000208865
-0.000126829
0.000230453
-0.000124112
0.000251667
-0.000121121
0.00027248
-0.000117839
0.000292855
-0.000114274
0.000312814
-0.000110467
0.000332305
-0.000106394
0.0003513
-0.000102089
0.000369787
-9.75897e-05
0.000387727
-9.29214e-05
0.000405056
-8.81146e-05
0.000421706
-8.32143e-05
0.000437554
-7.82221e-05
0.000452552
-7.32344e-05
0.000466558
-6.82032e-05
0.000479516
-6.31791e-05
0.000491284
-5.81139e-05
0.000501772
-5.29947e-05
0.000510938
-4.78561e-05
0.000518719
-4.26456e-05
0.000525088
-3.73498e-05
0.000530027
-3.19609e-05
0.00053358
-2.64616e-05
0.000535783
-2.08471e-05
0.000536655
-1.50934e-05
0.000536283
-9.26406e-06
0.000534665
-3.32552e-06
0.000531703
2.75487e-06
0.000527579
8.75971e-06
0.000522259
1.48083e-05
0.000515746
2.08483e-05
0.000508053
2.68512e-05
0.000499207
3.28151e-05
0.000489203
3.87271e-05
0.000478104
4.45425e-05
0.000465952
5.0258e-05
0.000452786
5.59055e-05
0.00043868
6.14235e-05
0.000423679
6.68453e-05
0.000407857
7.21492e-05
0.000391267
7.73574e-05
0.000373988
8.2443e-05
0.000356074
8.74532e-05
0.00033764
9.23255e-05
0.000318746
9.71274e-05
0.000299464
0.000101838
0.000279867
0.000106454
0.000260021
0.000110971
0.000239985
0.000115379
0.0002198
0.000119667
0.00019951
0.000123796
0.000179152
0.000127726
0.000158754
0.000131406
0.000138306
0.0001349
0.000117727
0.000138485
9.69417e-05
0.000142339
7.62954e-05
0.000145325
5.71046e-05
0.000143136
4.08291e-05
0.000131627
2.55238e-05
0.000121305
0.000165567
-2.24976e-05
0.000153464
-2.69695e-05
4.63019e-05
-2.83995e-05
3.91759e-05
-3.36827e-05
6.63401e-05
-4.39855e-05
9.16618e-05
-5.77764e-05
0.000105517
-7.32488e-05
0.00011097
-8.94189e-05
0.000113281
-0.000106067
0.00011549
-0.000123282
0.000118305
-0.000141159
0.000121409
-0.000159697
0.000124362
-0.000178841
0.000126934
-0.000198505
0.000129038
-0.000218606
0.000130657
-0.000239009
0.000131718
-0.000259633
0.000132249
-0.000280363
0.000132208
-0.000301092
0.000131587
-0.000321714
0.000130387
-0.000342124
0.000128619
-0.000362222
0.000126299
-0.000381913
0.000123449
-0.000401111
0.000120103
-0.000419736
0.000116292
-0.000437712
0.000112045
-0.00045497
0.000107403
-0.000471456
0.000102399
-0.000487112
9.70693e-05
-0.000501887
9.14508e-05
-0.000515738
8.55788e-05
-0.000528624
7.94823e-05
-0.000540509
7.3195e-05
-0.000551352
6.67425e-05
-0.000561126
6.01582e-05
-0.000569807
5.34611e-05
-0.000577374
4.66754e-05
-0.000583805
3.98199e-05
-0.00058909
3.2908e-05
-0.000593223
2.59581e-05
-0.000596196
1.89835e-05
-0.000598015
1.1995e-05
-0.000598689
5.00261e-06
-0.000598163
-2.00888e-06
-0.000596531
-8.98182e-06
-0.000593767
-1.59465e-05
-0.000589925
-2.28603e-05
-0.000584996
-2.97553e-05
-0.000579022
-3.65778e-05
-0.000572017
-4.33594e-05
-0.000564016
-5.0055e-05
-0.000555043
-5.66707e-05
-0.000545122
-6.31858e-05
-0.000534283
-6.95842e-05
-0.000522561
-7.58328e-05
-0.000509964
-8.19501e-05
-0.000496522
-8.7903e-05
-0.000482259
-9.36853e-05
-0.00046719
-9.92864e-05
-0.000451348
-0.000104693
-0.000434761
-0.000109898
-0.000417448
-0.000114906
-0.000399459
-0.000119678
-0.00038081
-0.000124237
-0.00036153
-0.000128574
-0.000341668
-0.000132661
-0.000321248
-0.000136515
-0.000300308
-0.000140123
-0.000278884
-0.00014348
-0.000257012
-0.000146583
-0.000234731
-0.000149425
-0.000212082
-0.000152004
-0.000189103
-0.000154316
-0.000165833
-0.000156357
-0.000142312
-0.000158124
-0.000118587
-0.000159612
-9.46896e-05
-0.000160817
-7.06645e-05
-0.000161739
-4.65527e-05
-0.000162374
-2.23934e-05
-0.000162718
1.7713e-06
-0.000162764
2.59029e-05
-0.00016251
4.9967e-05
-0.000161961
7.3918e-05
-0.000161099
9.77232e-05
-0.000159932
0.00012135
-0.000158454
0.000144759
-0.00015666
0.000167923
-0.000154554
0.000190789
-0.000152123
0.000213335
-0.000149375
0.000235545
-0.000146322
0.000257367
-0.000142944
0.000278778
-0.000139249
0.000299776
-0.000135272
0.000320285
-0.000130976
0.000340303
-0.000126412
0.000359788
-0.000121574
0.000378692
-0.000116494
0.000396965
-0.000111194
0.000414552
-0.000105702
0.000431362
-0.000100024
0.000447387
-9.42474e-05
0.000462469
-8.83163e-05
0.000476554
-8.22886e-05
0.000489531
-7.61559e-05
0.00050134
-6.9923e-05
0.000511973
-6.36272e-05
0.000521323
-5.72059e-05
0.000529365
-5.06881e-05
0.000536079
-4.40638e-05
0.000541444
-3.73253e-05
0.000545438
-3.04564e-05
0.000548069
-2.34775e-05
0.000549388
-1.64126e-05
0.000549354
-9.2306e-06
0.000548025
-1.99575e-06
0.000545494
5.28528e-06
0.000541667
1.25869e-05
0.000536591
1.98845e-05
0.000530281
2.71583e-05
0.000522767
3.43651e-05
0.000514103
4.14788e-05
0.0005043
4.85299e-05
0.000493364
5.54792e-05
0.000481327
6.22949e-05
0.000468261
6.89711e-05
0.000454158
7.55263e-05
0.000439093
8.19106e-05
0.000423126
8.81159e-05
0.000406301
9.41826e-05
0.000388681
0.000100063
0.00037035
0.000105784
0.00035135
0.000111326
0.000331777
0.0001167
0.000311712
0.000121903
0.000291239
0.000126927
0.00027044
0.00013177
0.000249381
0.000136438
0.000228147
0.000140901
0.00020681
0.000145134
0.000185414
0.000149122
0.000164038
0.000152782
0.000142703
0.000156235
0.000121412
0.000159775
0.000100118
0.000163633
7.90522e-05
0.000166391
5.9026e-05
0.000163162
4.13999e-05
0.000149254
2.51206e-05
0.000137584
0.000190687
-2.31109e-05
0.000176575
-2.69459e-05
5.0137e-05
-2.6261e-05
3.84909e-05
-2.9133e-05
6.92121e-05
-3.77439e-05
0.000100273
-5.08444e-05
0.000118618
-6.63444e-05
0.00012647
-8.2855e-05
0.000129792
-9.99329e-05
0.000132568
-0.000117651
0.000136023
-0.000136122
0.000139879
-0.000155365
0.000143605
-0.000175341
0.00014691
-0.000195961
0.000149658
-0.000217059
0.000151756
-0.000238552
0.00015321
-0.000260291
0.000153988
-0.000282151
0.000154068
-0.000304006
0.000153441
-0.000325726
0.000152107
-0.000347192
0.000150085
-0.000368294
0.0001474
-0.000388938
0.000144093
-0.000409011
0.000140176
-0.000428447
0.000135728
-0.000447159
0.000130757
-0.000465084
0.000125327
-0.000482161
0.000119476
-0.000498338
0.000113246
-0.000513564
0.000106677
-0.000527801
9.98161e-05
-0.000541013
9.26938e-05
-0.000553164
8.53465e-05
-0.000564233
7.7811e-05
-0.000574191
7.01166e-05
-0.000583021
6.22906e-05
-0.000590702
5.43568e-05
-0.000597222
4.63395e-05
-0.000602573
3.82593e-05
-0.00060675
3.01351e-05
-0.000609747
2.19808e-05
-0.000611567
1.38144e-05
-0.000612212
5.64794e-06
-0.000611718
-2.50348e-06
-0.000610063
-1.06368e-05
-0.000607278
-1.87306e-05
-0.000603364
-2.67748e-05
-0.000598365
-3.47545e-05
-0.000592281
-4.26615e-05
-0.000585157
-5.0483e-05
-0.000577005
-5.82074e-05
-0.000567851
-6.58242e-05
-0.000557743
-7.32941e-05
-0.000546693
-8.06348e-05
-0.000534708
-8.78178e-05
-0.000521834
-9.48232e-05
-0.000508089
-0.000101649
-0.000493499
-0.000108275
-0.000478092
-0.000114693
-0.000461889
-0.000120896
-0.000444925
-0.000126861
-0.000427237
-0.000132595
-0.000408837
-0.000138077
-0.000389766
-0.000143308
-0.000370064
-0.000148276
-0.000349754
-0.000152971
-0.000328877
-0.000157392
-0.000307469
-0.000161531
-0.000285566
-0.000165383
-0.000263206
-0.000168942
-0.000240428
-0.000172203
-0.000217271
-0.000175161
-0.000193774
-0.000177813
-0.000169976
-0.000180154
-0.000145917
-0.000182182
-0.000121643
-0.000183887
-9.71887e-05
-0.000185271
-7.25961e-05
-0.000186332
-4.7906e-05
-0.000187064
-2.31612e-05
-0.000187463
1.60192e-06
-0.000187527
2.63453e-05
-0.000187253
5.10261e-05
-0.000186642
7.55993e-05
-0.000185672
0.000100032
-0.000184365
0.000124292
-0.000182714
0.000148343
-0.000180711
0.000172137
-0.000178347
0.00019566
-0.000175646
0.000218869
-0.000172585
0.000241707
-0.00016916
0.000264159
-0.000165395
0.000286205
-0.000161295
0.000307776
-0.000156844
0.000328855
-0.000152055
0.000349398
-0.000146954
0.000369374
-0.000141551
0.000388731
-0.00013585
0.000407389
-0.000129852
0.000425316
-0.000123629
0.000442473
-0.000117181
0.000458733
-0.000110507
0.000474052
-0.000103636
0.000488342
-9.65785e-05
0.000501547
-8.93612e-05
0.000513585
-8.19603e-05
0.00052439
-7.44328e-05
0.000533927
-6.67427e-05
0.000542144
-5.89049e-05
0.00054901
-5.093e-05
0.000554505
-4.28203e-05
0.000558653
-3.46038e-05
0.000561453
-2.62778e-05
0.000562881
-1.78405e-05
0.000563008
-9.35765e-06
0.000561804
-7.92122e-07
0.00055929
7.79989e-06
0.000555521
1.63552e-05
0.000550493
2.49124e-05
0.00054427
3.33814e-05
0.000536833
4.18029e-05
0.000528198
5.01131e-05
0.000518429
5.82992e-05
0.000507529
6.63791e-05
0.000495543
7.4281e-05
0.000482523