/*--------------------------------*- C++ -*----------------------------------*\
| =========                 |                                                 |
| \\      /  F ield         | OpenFOAM: The Open Source CFD Toolbox           |
|  \\    /   O peration     | Version:  v2006                                 |
|   \\  /    A nd           | Website:  www.openfoam.com                      |
|    \\/     M anipulation  |                                                 |
\*---------------------------------------------------------------------------*/
FoamFile
{
    version     2.0;
    format      ascii;
    class       volScalarField;
    location    "0";
    object      p;
}
// * * * * * * * * * * * * * * * * * * * * * * * * * * * * * * * * * * * * * //

dimensions      [1 -1 -2 0 0 0 0];


internalField   nonuniform List<scalar> 
67500
(
12.9856
11.9492
11.3698
9.99816
9.02223
9.57306
10.0228
10.8759
10.1375
5.79194
1.68828
-0.478107
-0.858119
-1.13634
-1.37296
-1.21173
0.672106
1.72769
0.243088
-0.695341
-0.684423
-0.00934852
0.715593
0.957059
0.973058
1.11739
1.33279
1.43147
1.3668
1.20515
1.05742
0.972426
0.94564
0.959826
0.989505
1.03382
1.10685
1.20382
1.30382
1.37296
1.38631
1.34016
1.24741
1.13363
1.02674
0.946716
0.902291
0.892237
0.904727
0.920742
0.923364
0.903999
0.86489
0.817306
0.776648
0.757322
0.770066
0.822108
0.917043
1.05419
1.22778
1.42292
1.58971
1.61559
1.5133
1.38864
1.27482
1.18003
1.11438
1.08311
1.08829
1.12971
1.20377
1.30301
1.40957
1.4772
1.46131
1.40719
1.36829
1.3533
1.36507
1.40813
1.4836
1.59058
1.72507
1.87797
2.03216
2.15742
2.22585
2.25735
2.2958
2.35715
2.43753
2.52644
2.60597
2.65956
2.69192
2.72488
2.7695
2.82226
2.87586
2.92478
2.97038
3.018
3.06888
3.12056
3.17146
3.22181
3.27127
3.31775
3.35906
3.39421
3.42269
3.44397
3.45807
3.4657
3.46768
3.46464
3.45703
3.44508
3.42874
3.40782
3.38208
3.35129
3.31529
3.27402
3.2275
3.17585
3.11921
3.05779
2.99182
2.92159
2.84739
2.7696
2.68864
2.60496
2.51909
2.43155
2.34286
2.25355
2.1641
2.07496
1.98652
1.89911
1.81305
1.72857
1.64589
1.5652
1.48662
1.4103
1.33632
1.26478
1.19573
1.12923
1.06531
1.004
0.945305
0.889236
0.835782
0.784926
0.736642
0.690897
0.64765
0.606853
0.568453
0.532389
0.498595
0.467001
0.437531
0.410103
0.384633
0.361032
0.339209
0.319068
0.300513
0.283448
0.267776
0.253402
0.240234
0.228183
0.217162
0.207091
0.197893
0.189499
0.181842
0.174863
0.168505
0.16272
0.157461
0.152687
0.148362
0.144451
0.140923
0.137752
0.134913
0.132381
0.130135
0.128156
0.126424
0.124921
0.123628
0.122528
0.121602
0.120833
0.1202
0.119685
0.119267
0.118925
0.118639
0.118387
0.118147
0.117897
0.117617
0.117286
0.116884
0.116393
0.115796
0.115079
0.114228
0.113232
0.112085
0.110778
0.10931
0.107677
0.105883
0.103929
0.10182
0.0995636
0.0971677
0.0946421
0.0919973
0.0892449
0.0863971
0.0834665
0.0804659
0.0774081
0.0743059
0.0711717
0.0680176
0.064855
0.061695
0.0585479
0.0554231
0.0523297
0.0492756
0.0462682
0.043314
0.0404188
0.0375877
0.0348249
0.0321342
0.0295185
0.0269802
0.0245211
0.0221426
0.0198454
0.0176298
0.0154959
0.0134432
0.0114709
0.00957796
0.00776314
0.00602487
0.00436145
0.00277098
0.00125144
-0.000199298
-0.00158344
-0.00290328
-0.00416113
-0.00535934
-0.00650027
-0.00758627
-0.00861968
-0.00960281
-0.0105379
-0.0114272
-0.0122728
-0.0130769
-0.0138415
-0.0145684
-0.0152597
-0.015917
-0.0165421
-0.0171366
-0.017702
-0.0182398
-0.0187513
-0.0192378
-0.0197005
-0.0201405
-0.0205587
-0.0209562
-0.0213337
-0.0216921
-0.0220319
-0.0223539
-0.0226585
-0.0229463
-0.0232175
-0.0234726
-0.0237118
-0.0239354
-0.0241434
-0.0243359
-0.0245132
-0.0246751
-0.0248216
-0.0249529
-0.0250687
-0.0251691
-0.0252541
-0.0253235
-0.0253774
-0.0254159
-0.0254389
-0.0254466
-0.0254391
-0.0254167
-0.0253796
-0.0253282
-0.0252629
-0.0251841
-0.0250924
-0.0249883
-0.0248725
-0.0247457
-0.0246085
-0.0244617
-0.0243061
-0.0241423
-0.0239713
-0.0237939
-0.0236107
-0.0234228
-0.023231
-0.023036
-0.0228387
-0.0226401
-0.0224408
-0.0222416
-0.0220432
-0.0218461
-0.0216509
-0.0214578
-0.021267
-0.0210785
-0.0208922
-0.0207077
-0.0205247
-0.0203426
-0.0201608
-0.0199787
-0.0197958
-0.0196114
-0.0194251
-0.0192364
-0.019045
-0.0188507
-0.0186532
-0.0184527
-0.0182491
-0.0180426
-0.0178333
-0.0176213
-0.0174071
-0.0171908
-0.0169727
-0.0167532
-0.0165324
-0.0163107
-0.0160882
-0.0158653
-0.0156421
-0.0154188
-0.0151956
-0.0149726
-0.01475
-0.0145278
-0.0143061
-0.0140851
-0.0138647
-0.0136451
-0.0134262
-0.0132081
-0.0129908
-0.0127742
-0.0125585
-0.0123436
-0.0121295
-0.0119162
-0.0117036
-0.0114918
-0.0112808
-0.0110705
-0.0108609
-0.0106519
-0.0104437
-0.010236
-0.010029
-0.00982264
-0.00961683
-0.00941157
-0.00920685
-0.00900265
-0.00879895
-0.00859573
-0.00839298
-0.00819067
-0.0079888
-0.00778734
-0.00758627
-0.00738559
-0.00718527
-0.0069853
-0.00678568
-0.00658638
-0.00638738
-0.00618869
-0.00599028
-0.00579215
-0.00559428
-0.00539666
-0.00519929
-0.00500214
-0.00480521
-0.00460849
-0.00441198
-0.00421565
-0.00401951
-0.00382354
-0.00362773
-0.00343208
-0.00323658
-0.00304121
-0.00284597
-0.00265086
-0.00245586
-0.00226096
-0.00206616
-0.00187145
-0.00167682
-0.00148228
-0.00128777
-0.00109339
-0.000898838
-0.000705029
-0.000508414
-0.000319038
-9.02855e-05
12.773
11.1802
9.29247
9.37702
9.3408
9.3749
9.6645
9.14853
5.22463
-0.740861
-1.90234
-2.46059
-2.24529
-2.76909
-3.20521
-2.65964
-1.24619
0.175093
0.816117
1.03035
0.0512302
0.11818
0.623058
0.981286
1.23375
1.45288
1.63271
1.59555
1.34276
1.01493
0.82477
0.757478
0.741035
0.731881
0.720831
0.756218
0.861551
1.00294
1.14102
1.24276
1.29452
1.28518
1.22124
1.12073
1.00748
0.904858
0.831617
0.79365
0.783136
0.788107
0.791745
0.780755
0.748701
0.69765
0.638679
0.588593
0.564596
0.582569
0.652843
0.777436
0.953761
1.18681
1.45225
1.48453
1.33092
1.17912
1.05233
0.954349
0.895337
0.877897
0.902754
0.970924
1.0788
1.22084
1.38575
1.50174
1.45271
1.35219
1.28889
1.25406
1.24837
1.27771
1.34344
1.4458
1.58174
1.74472
1.92195
2.071
2.12851
2.13271
2.15997
2.22436
2.31718
2.42527
2.52129
2.57378
2.5922
2.618
2.66503
2.72404
2.78332
2.83309
2.87695
2.92546
2.9798
3.03512
3.08898
3.14263
3.19641
3.24724
3.29219
3.33054
3.36197
3.38571
3.40176
3.41124
3.41524
3.41442
3.40926
3.39997
3.38641
3.36827
3.34525
3.31704
3.28347
3.24446
3.20005
3.15036
3.09556
3.03585
2.97147
2.90269
2.8298
2.75318
2.67324
2.59047
2.5054
2.41856
2.33052
2.24181
2.15293
2.06432
1.9764
1.88949
1.80391
1.7199
1.63766
1.55739
1.47921
1.40326
1.32964
1.25842
1.18968
1.12347
1.05983
0.998776
0.940328
0.88449
0.831254
0.780606
0.73252
0.686965
0.643901
0.603281
0.565051
0.529153
0.495522
0.464086
0.434771
0.407496
0.382177
0.358724
0.337045
0.317046
0.29863
0.281699
0.266156
0.251906
0.238855
0.226915
0.215998
0.206023
0.196916
0.188604
0.181023
0.174112
0.167817
0.162089
0.156881
0.152154
0.14787
0.143997
0.140504
0.137364
0.134553
0.132047
0.129827
0.127871
0.126161
0.124679
0.123407
0.122328
0.121423
0.120674
0.120063
0.11957
0.119174
0.118855
0.118592
0.118363
0.118145
0.117918
0.117659
0.117349
0.116965
0.116492
0.11591
0.115206
0.114367
0.11338
0.112239
0.110936
0.109469
0.107837
0.106039
0.104081
0.101965
0.099701
0.0972958
0.0947596
0.0921035
0.0893391
0.0864789
0.0835356
0.0805223
0.0774519
0.0743374
0.0711912
0.0680256
0.0648522
0.0616819
0.0585252
0.0553917
0.0522902
0.0492288
0.0462149
0.043255
0.0403547
0.0375193
0.0347529
0.0320591
0.029441
0.0269009
0.0244406
0.0220612
0.0197637
0.0175482
0.0154147
0.0133627
0.0113914
0.00949983
0.00768654
0.00594999
0.00428845
0.00269999
0.00118258
-0.000265945
-0.00164782
-0.00296533
-0.00422083
-0.00541668
-0.00655526
-0.00763893
-0.00867004
-0.0096509
-0.0105838
-0.0114709
-0.0123145
-0.0131165
-0.0138791
-0.0146042
-0.0152937
-0.0159493
-0.0165728
-0.0171657
-0.0177297
-0.0182661
-0.0187764
-0.0192617
-0.0197233
-0.0201622
-0.0205796
-0.0209762
-0.021353
-0.0217106
-0.0220499
-0.0223713
-0.0226755
-0.0229628
-0.0232338
-0.0234886
-0.0237276
-0.0239509
-0.0241588
-0.0243513
-0.0245285
-0.0246904
-0.024837
-0.0249683
-0.0250841
-0.0251846
-0.0252696
-0.025339
-0.0253929
-0.0254313
-0.0254542
-0.0254617
-0.025454
-0.0254313
-0.0253939
-0.0253421
-0.0252763
-0.025197
-0.0251047
-0.025
-0.0248835
-0.024756
-0.024618
-0.0244704
-0.0243139
-0.0241493
-0.0239773
-0.0237989
-0.0236149
-0.0234261
-0.0232333
-0.0230374
-0.0228394
-0.02264
-0.02244
-0.0222403
-0.0220416
-0.0218443
-0.0216491
-0.0214561
-0.0212657
-0.0210777
-0.020892
-0.0207082
-0.020526
-0.0203447
-0.0201637
-0.0199823
-0.0198
-0.0196161
-0.0194301
-0.0192416
-0.0190503
-0.0188559
-0.0186583
-0.0184576
-0.0182537
-0.0180467
-0.017837
-0.0176246
-0.01741
-0.0171932
-0.0169747
-0.0167548
-0.0165336
-0.0163116
-0.0160888
-0.0158656
-0.0156422
-0.0154187
-0.0151953
-0.0149722
-0.0147494
-0.0145271
-0.0143054
-0.0140843
-0.0138639
-0.0136442
-0.0134253
-0.0132072
-0.0129898
-0.0127733
-0.0125576
-0.0123427
-0.0121286
-0.0119153
-0.0117028
-0.011491
-0.01128
-0.0110697
-0.0108601
-0.0106512
-0.0104429
-0.0102353
-0.0100283
-0.00982197
-0.00961617
-0.00941094
-0.00920624
-0.00900206
-0.00879839
-0.00859519
-0.00839245
-0.00819017
-0.00798831
-0.00778686
-0.00758582
-0.00738515
-0.00718485
-0.0069849
-0.00678529
-0.006586
-0.00638702
-0.00618834
-0.00598995
-0.00579183
-0.00559397
-0.00539636
-0.005199
-0.00500186
-0.00480494
-0.00460824
-0.00441173
-0.00421542
-0.00401929
-0.00382333
-0.00362753
-0.00343189
-0.00323639
-0.00304103
-0.0028458
-0.0026507
-0.0024557
-0.00226081
-0.00206602
-0.00187133
-0.00167671
-0.00148217
-0.00128767
-0.0010933
-0.000898753
-0.000704952
-0.000508346
-0.000318979
-9.02578e-05
11.7669
10.6823
9.8956
9.6588
8.85198
10.9306
7.28758
-0.235165
-0.282468
-0.473628
-1.12049
-2.19127
-1.96104
-2.46926
-1.97029
-1.45432
-1.14397
-0.787117
-0.958331
-0.529624
0.414
1.34073
0.648201
-0.0137294
0.178244
1.06083
1.78869
2.18286
1.77592
0.994991
0.725092
0.634567
0.677891
0.793889
0.85998
0.92417
1.04237
1.08772
1.05245
0.943885
0.781835
0.607236
0.453996
0.345828
0.308383
0.342776
0.428223
0.527911
0.601997
0.620472
0.578794
0.49777
0.410461
0.345532
0.316848
0.324463
0.362935
0.428346
0.524874
0.665447
0.872682
1.22579
1.78151
1.5984
1.26907
1.09719
0.962294
0.850338
0.767756
0.713389
0.692169
0.708621
0.759325
0.855136
1.05599
1.30316
1.16384
0.98401
0.919699
0.90158
0.912761
0.955826
1.03303
1.1517
1.31565
1.52273
1.77299
1.99818
2.0014
1.91195
1.90354
1.96271
2.06829
2.20947
2.34165
2.386
2.36678
2.37945
2.43765
2.51833
2.5985
2.65231
2.69095
2.74155
2.80402
2.86678
2.9252
2.98438
3.04683
3.10653
3.15865
3.20342
3.24101
3.26967
3.28938
3.30236
3.31031
3.31387
3.3136
3.30974
3.30185
3.28937
3.27185
3.24886
3.22014
3.18565
3.14544
3.09967
3.04854
2.99226
2.93105
2.86516
2.79489
2.7206
2.6427
2.56171
2.4782
2.39276
2.30599
2.21845
2.13068
2.04314
1.95625
1.87034
1.78572
1.70263
1.62128
1.54184
1.46446
1.38926
1.31633
1.24578
1.17765
1.11202
1.04892
0.988379
0.930414
0.875032
0.822229
0.771993
0.724302
0.679125
0.636424
0.596155
0.558265
0.522697
0.489388
0.458267
0.429261
0.40229
0.37727
0.354111
0.332722
0.313006
0.294866
0.278203
0.26292
0.248917
0.236103
0.224385
0.213677
0.203897
0.19497
0.186824
0.179395
0.172623
0.166454
0.16084
0.155735
0.1511
0.1469
0.143102
0.139678
0.1366
0.133845
0.131392
0.129219
0.127309
0.125642
0.124202
0.122971
0.121933
0.121069
0.120362
0.119793
0.119343
0.118992
0.118718
0.1185
0.118317
0.118145
0.117962
0.117746
0.117476
0.117131
0.116692
0.116142
0.115465
0.114647
0.113678
0.11255
0.111255
0.109792
0.108158
0.106355
0.104386
0.102258
0.0999769
0.0975527
0.0949953
0.0923163
0.0895277
0.0866424
0.0836736
0.0806347
0.077539
0.0743996
0.0712295
0.0680408
0.0648456
0.0616548
0.058479
0.0553279
0.0522103
0.0491344
0.0461075
0.043136
0.0402258
0.0373817
0.0346081
0.0319084
0.0292856
0.0267419
0.024279
0.0218981
0.0195998
0.0173845
0.0152519
0.0132014
0.0112323
0.00934335
0.00753314
0.00580006
0.00414231
0.00255791
0.00104477
-0.000399302
-0.0017766
-0.00308945
-0.00434024
-0.00553137
-0.00666523
-0.00774421
-0.0087707
-0.00974703
-0.0106755
-0.0115583
-0.0123977
-0.0131957
-0.0139544
-0.0146757
-0.0153616
-0.0160138
-0.016634
-0.0172239
-0.017785
-0.0183187
-0.0188264
-0.0193094
-0.0197688
-0.0202057
-0.0206212
-0.0210161
-0.0213914
-0.0217477
-0.0220857
-0.0224061
-0.0227093
-0.0229959
-0.0232661
-0.0235204
-0.023759
-0.023982
-0.0241897
-0.0243821
-0.0245592
-0.0247211
-0.0248678
-0.0249991
-0.0251151
-0.0252156
-0.0253006
-0.0253701
-0.0254239
-0.0254622
-0.0254849
-0.0254921
-0.025484
-0.0254607
-0.0254226
-0.0253699
-0.0253032
-0.0252228
-0.0251294
-0.0250235
-0.0249057
-0.0247768
-0.0246375
-0.0244885
-0.0243306
-0.0241645
-0.0239912
-0.0238114
-0.0236259
-0.0234355
-0.0232411
-0.0230436
-0.0228439
-0.0226428
-0.0224411
-0.0222397
-0.0220393
-0.0218406
-0.021644
-0.0214501
-0.0212589
-0.0210704
-0.0208846
-0.020701
-0.0205192
-0.0203386
-0.0201585
-0.0199781
-0.0197969
-0.0196141
-0.0194291
-0.0192416
-0.0190511
-0.0188574
-0.0186604
-0.01846
-0.0182563
-0.0180495
-0.0178398
-0.0176273
-0.0174125
-0.0171955
-0.0169768
-0.0167565
-0.0165351
-0.0163127
-0.0160896
-0.0158661
-0.0156424
-0.0154187
-0.0151951
-0.0149717
-0.0147488
-0.0145263
-0.0143045
-0.0140833
-0.0138628
-0.013643
-0.013424
-0.0132059
-0.0129885
-0.012772
-0.0125563
-0.0123414
-0.0121273
-0.011914
-0.0117015
-0.0114897
-0.0112788
-0.0110685
-0.0108589
-0.0106501
-0.0104418
-0.0102343
-0.0100273
-0.009821
-0.00961524
-0.00941004
-0.00920538
-0.00900124
-0.00879759
-0.00859443
-0.00839173
-0.00818947
-0.00798764
-0.00778623
-0.00758521
-0.00738457
-0.00718429
-0.00698437
-0.00678478
-0.00658552
-0.00638656
-0.0061879
-0.00598953
-0.00579143
-0.00559359
-0.00539601
-0.00519866
-0.00500154
-0.00480465
-0.00460796
-0.00441147
-0.00421517
-0.00401905
-0.00382311
-0.00362733
-0.0034317
-0.00323622
-0.00304088
-0.00284566
-0.00265057
-0.00245559
-0.00226072
-0.00206594
-0.00187126
-0.00167665
-0.00148213
-0.00128765
-0.00109329
-0.000898755
-0.000704968
-0.000508378
-0.000319016
-9.03122e-05
11.4609
12.1702
10.2592
8.36373
2.72275
-0.59378
-0.16883
-0.245348
-0.343311
-0.452024
-0.632787
-0.745282
-0.724642
-0.536533
0.60351
0.423404
0.222993
0.236877
-0.247768
0.347569
0.641512
0.845151
-0.215915
-0.0924694
0.154562
0.326908
0.348609
0.624674
1.01338
0.489564
0.337454
0.320539
0.401184
0.459458
0.46264
0.395863
0.363998
0.350526
0.340756
0.331621
0.319915
0.307242
0.296272
0.289674
0.289077
0.292798
0.295265
0.293684
0.290274
0.286758
0.283646
0.281705
0.281567
0.283716
0.288751
0.296121
0.30409
0.310667
0.317795
0.336428
0.397655
0.604806
1.70802
1.24047
0.563229
0.339711
0.218471
0.131762
0.0871199
0.0828765
0.129326
0.248898
0.459142
0.771702
1.31687
2.03608
1.45205
1.1227
0.984744
0.857401
0.776063
0.743354
0.748879
0.792505
0.883271
1.04026
1.3428
1.78404
1.66367
1.40369
1.36513
1.46014
1.63995
1.8955
2.15242
2.16901
2.04605
2.03216
2.10503
2.21383
2.32714
2.37622
2.39467
2.44791
2.52826
2.60861
2.67521
2.74359
2.82234
2.89761
2.96025
3.01416
3.0611
3.09654
3.12052
3.1381
3.15187
3.16198
3.16921
3.17379
3.17467
3.17089
3.16178
3.14669
3.12528
3.09755
3.06363
3.02373
2.97811
2.92698
2.87056
2.80906
2.74273
2.67192
2.59706
2.51872
2.43751
2.35411
2.2692
2.18341
2.09729
2.01135
1.92601
1.84161
1.75844
1.67674
1.59673
1.51855
1.44236
1.36828
1.29641
1.22684
1.15964
1.09487
1.03258
0.972806
0.915562
0.860862
0.808708
0.759089
0.711987
0.667375
0.625219
0.585474
0.548093
0.51302
0.480193
0.449544
0.421002
0.394488
0.369918
0.347203
0.32625
0.306961
0.289238
0.27298
0.258086
0.244456
0.231995
0.220611
0.210215
0.200726
0.192067
0.184167
0.176963
0.170396
0.164413
0.158967
0.154014
0.149517
0.14544
0.141754
0.138431
0.135445
0.132774
0.130398
0.128298
0.126455
0.124854
0.123477
0.122308
0.121331
0.12053
0.119886
0.119381
0.118997
0.118713
0.118507
0.118359
0.118245
0.118142
0.118027
0.117876
0.117668
0.117381
0.116996
0.116493
0.115857
0.115073
0.114131
0.113022
0.11174
0.110281
0.108644
0.106832
0.104849
0.1027
0.100395
0.0979413
0.0953517
0.0926376
0.0898122
0.0868888
0.0838812
0.0808035
0.0776694
0.0744925
0.071286
0.0680627
0.0648344
0.0616128
0.0584082
0.0552305
0.0520887
0.048991
0.0459445
0.0429558
0.0400306
0.0371737
0.0343893
0.0316808
0.0290509
0.0265019
0.0240354
0.0216522
0.0193531
0.0171381
0.0150069
0.0129589
0.010993
0.00910808
0.00730257
0.00557477
0.00392277
0.00234452
0.000837856
-0.000599496
-0.00196988
-0.0032757
-0.00451938
-0.00570338
-0.00683013
-0.00790207
-0.0089216
-0.0098911
-0.0108129
-0.0116892
-0.0125223
-0.0133142
-0.014067
-0.0147828
-0.0154633
-0.0161104
-0.0167257
-0.017311
-0.0178678
-0.0183974
-0.0189013
-0.0193807
-0.0198368
-0.0202707
-0.0206834
-0.0210758
-0.0214488
-0.021803
-0.0221393
-0.022458
-0.0227599
-0.0230453
-0.0233146
-0.023568
-0.023806
-0.0240286
-0.0242359
-0.0244281
-0.0246052
-0.0247671
-0.0249138
-0.0250453
-0.0251614
-0.0252621
-0.0253472
-0.0254167
-0.0254705
-0.0255086
-0.0255309
-0.0255377
-0.0255289
-0.0255048
-0.0254656
-0.0254118
-0.0253436
-0.0252617
-0.0251665
-0.0250586
-0.0249387
-0.0248075
-0.0246658
-0.0245142
-0.0243537
-0.0241849
-0.0240088
-0.0238261
-0.0236377
-0.0234445
-0.0232474
-0.0230473
-0.0228451
-0.0226418
-0.0224383
-0.0222355
-0.0220342
-0.021835
-0.0216387
-0.0214454
-0.0212555
-0.0210688
-0.0208852
-0.0207041
-0.0205249
-0.0203469
-0.0201692
-0.019991
-0.0198116
-0.0196302
-0.0194463
-0.0192592
-0.0190688
-0.0188748
-0.0186771
-0.0184757
-0.0182709
-0.0180627
-0.0178516
-0.0176377
-0.0174213
-0.017203
-0.0169829
-0.0167614
-0.0165387
-0.0163153
-0.0160913
-0.015867
-0.0156426
-0.0154182
-0.015194
-0.0149703
-0.014747
-0.0145242
-0.0143021
-0.0140807
-0.0138601
-0.0136402
-0.0134212
-0.013203
-0.0129856
-0.0127691
-0.0125534
-0.0123385
-0.0121245
-0.0119112
-0.0116988
-0.0114871
-0.0112762
-0.011066
-0.0108565
-0.0106477
-0.0104396
-0.0102321
-0.0100252
-0.00981893
-0.00961324
-0.0094081
-0.00920351
-0.00899943
-0.00879585
-0.00859274
-0.0083901
-0.0081879
-0.00798613
-0.00778477
-0.0075838
-0.00738321
-0.00718298
-0.0069831
-0.00678356
-0.00658434
-0.00638543
-0.00618681
-0.00598848
-0.00579042
-0.00559262
-0.00539507
-0.00519776
-0.00500068
-0.00480381
-0.00460716
-0.0044107
-0.00421443
-0.00401834
-0.00382243
-0.00362668
-0.00343108
-0.00323563
-0.00304031
-0.00284512
-0.00265006
-0.00245511
-0.00226026
-0.00206551
-0.00187085
-0.00167627
-0.00148177
-0.00128732
-0.00109299
-0.000898475
-0.000704713
-0.00050815
-0.000318817
-9.02119e-05
11.1933
13.1195
7.35934
2.84764
-0.152913
-0.364887
-0.380264
-0.383889
-0.433683
-0.49878
-0.576481
-0.649455
-0.671726
-0.685531
-0.750174
-1.03149
-1.36529
-2.96413
-3.7381
0.742133
5.02001
4.80296
0.39004
0.472678
0.432543
0.331988
0.24122
0.211871
0.495542
0.52393
0.460024
0.399693
0.35682
0.347173
0.383435
0.385053
0.359126
0.347685
0.338256
0.330303
0.322907
0.31572
0.308698
0.302045
0.296241
0.291902
0.289262
0.287985
0.287678
0.288012
0.288757
0.289889
0.291327
0.292956
0.295095
0.298242
0.302896
0.309422
0.319909
0.342061
0.391939
0.462642
0.365525
-0.024326
0.110757
0.164503
0.188571
0.200574
0.206933
0.210763
0.21529
0.227199
0.259694
0.342119
0.657137
2.65618
0.743017
0.176098
0.205896
0.17396
0.123257
0.115179
0.167661
0.289712
0.487411
0.77863
1.4541
2.65397
1.7845
1.22983
1.1546
1.14811
1.24562
1.51069
1.95789
1.81768
1.46267
1.42109
1.56068
1.78032
2.01306
2.03744
1.99861
2.05894
2.16741
2.27131
2.33692
2.41102
2.51458
2.61486
2.69225
2.75996
2.82287
2.86792
2.89549
2.91801
2.93926
2.9577
2.97502
2.99157
3.00477
3.01305
3.01552
3.01109
2.99939
2.98061
2.955
2.92288
2.8846
2.84039
2.79042
2.73483
2.67379
2.60761
2.53675
2.46183
2.38359
2.30283
2.22033
2.1368
2.05286
1.96904
1.88576
1.80337
1.72215
1.64233
1.5641
1.48761
1.41301
1.34042
1.26995
1.20169
1.13572
1.0721
1.01089
0.952122
0.895833
0.842036
0.790739
0.741936
0.695615
0.651752
0.610315
0.571266
0.534558
0.500139
0.46795
0.437927
0.41
0.384092
0.360119
0.337995
0.317623
0.298906
0.281741
0.266025
0.251655
0.238526
0.226542
0.215607
0.205632
0.196534
0.188236
0.180668
0.173766
0.167474
0.16174
0.156518
0.151768
0.147452
0.143539
0.14
0.136809
0.133943
0.131382
0.129106
0.127099
0.125344
0.123826
0.12253
0.121441
0.120543
0.119822
0.11926
0.118839
0.118542
0.118346
0.118232
0.118176
0.118155
0.118144
0.11812
0.118058
0.117934
0.117726
0.117411
0.116972
0.116391
0.115653
0.114747
0.113664
0.112397
0.110943
0.109303
0.107478
0.105474
0.103297
0.100957
0.0984637
0.0958297
0.093068
0.0901924
0.0872173
0.0841573
0.081027
0.0778411
0.0746136
0.0713584
0.0680883
0.0648159
0.0615529
0.0583098
0.0550968
0.0519227
0.0487959
0.0457235
0.042712
0.0397669
0.0368931
0.0340945
0.0313744
0.0287354
0.0261796
0.0237083
0.0213223
0.0190222
0.0168078
0.0146787
0.0126341
0.0106727
0.00879334
0.00699425
0.00527362
0.00362942
0.00205949
0.00056157
-0.000866715
-0.0022278
-0.00352415
-0.00475828
-0.00593269
-0.0070499
-0.00811239
-0.00912261
-0.010083
-0.0109958
-0.0118635
-0.0126881
-0.0134719
-0.0142169
-0.0149251
-0.0155984
-0.0162387
-0.0168476
-0.0174267
-0.0179777
-0.0185019
-0.0190007
-0.0194754
-0.0199272
-0.020357
-0.020766
-0.0211551
-0.021525
-0.0218765
-0.0222103
-0.022527
-0.022827
-0.0231108
-0.0233788
-0.0236313
-0.0238684
-0.0240904
-0.0242974
-0.0244894
-0.0246664
-0.0248283
-0.0249752
-0.0251069
-0.0252233
-0.0253242
-0.0254095
-0.0254792
-0.025533
-0.0255709
-0.0255929
-0.025599
-0.0255894
-0.0255641
-0.0255236
-0.0254681
-0.025398
-0.0253139
-0.0252164
-0.0251061
-0.0249836
-0.0248498
-0.0247055
-0.0245513
-0.0243881
-0.0242166
-0.0240378
-0.0238523
-0.0236611
-0.0234648
-0.0232644
-0.0230609
-0.022855
-0.0226478
-0.0224403
-0.0222334
-0.0220282
-0.0218254
-0.0216258
-0.0214299
-0.021238
-0.02105
-0.0208659
-0.020685
-0.0205068
-0.0203303
-0.0201546
-0.0199788
-0.0198019
-0.019623
-0.0194415
-0.0192567
-0.0190682
-0.0188759
-0.0186796
-0.0184793
-0.0182751
-0.0180674
-0.0178564
-0.0176425
-0.0174259
-0.0172072
-0.0169866
-0.0167646
-0.0165414
-0.0163174
-0.0160928
-0.0158679
-0.015643
-0.0154181
-0.0151935
-0.0149694
-0.0147457
-0.0145227
-0.0143003
-0.0140787
-0.0138579
-0.0136379
-0.0134188
-0.0132005
-0.0129831
-0.0127665
-0.0125508
-0.012336
-0.012122
-0.0119088
-0.0116964
-0.0114847
-0.0112739
-0.0110637
-0.0108543
-0.0106456
-0.0104375
-0.0102301
-0.0100233
-0.00981712
-0.00961149
-0.00940643
-0.0092019
-0.00899789
-0.00879438
-0.00859134
-0.00838876
-0.00818662
-0.0079849
-0.0077836
-0.00758268
-0.00738214
-0.00718197
-0.00698214
-0.00678264
-0.00658347
-0.0063846
-0.00618602
-0.00598773
-0.00578971
-0.00559195
-0.00539444
-0.00519717
-0.00500012
-0.00480329
-0.00460667
-0.00441024
-0.00421401
-0.00401795
-0.00382207
-0.00362635
-0.00343078
-0.00323535
-0.00304007
-0.00284491
-0.00264987
-0.00245495
-0.00226013
-0.00206541
-0.00187078
-0.00167622
-0.00148175
-0.00128732
-0.00109302
-0.000898536
-0.0007048
-0.000508269
-0.000318941
-9.03561e-05
10.5002
8.6782
1.22991
-0.360021
-0.34182
-0.366924
-0.38866
-0.427223
-0.485425
-0.569618
-0.645439
-0.686682
-0.713035
-0.768868
-0.9223
-1.13531
-1.23609
-1.59739
-3.13104
-2.84454
-2.84769
-0.261163
0.220781
0.307862
0.320084
0.318929
0.331762
0.359028
0.393069
0.40267
0.392206
0.383149
0.372353
0.37071
0.371156
0.363988
0.351315
0.341419
0.33311
0.325742
0.31902
0.312815
0.307054
0.301771
0.296982
0.292785
0.289328
0.286729
0.285175
0.284773
0.285351
0.286679
0.288516
0.290682
0.293201
0.29625
0.299972
0.304589
0.310734
0.320298
0.333664
0.336609
0.290816
0.230011
0.224986
0.228108
0.231433
0.233697
0.235184
0.235936
0.236415
0.240151
0.256712
0.297863
0.349331
0.278785
0.0308753
0.120374
0.161796
0.179095
0.186497
0.191632
0.19924
0.21156
0.237097
0.304664
0.470313
3.7907
1.04236
-0.296215
-0.168721
0.0921242
0.473318
1.28303
2.79407
1.83723
1.11438
1.12578
1.1661
1.3477
1.76646
1.63235
1.41869
1.48148
1.67209
1.86169
1.90846
1.98566
2.13706
2.27541
2.36127
2.44169
2.52715
2.58137
2.60771
2.63611
2.66888
2.69837
2.72929
2.7624
2.79186
2.81581
2.83339
2.84248
2.84284
2.83513
2.81973
2.79722
2.76811
2.73264
2.69088
2.64282
2.58848
2.52808
2.46211
2.39132
2.31661
2.23898
2.15935
2.07858
1.99733
1.91615
1.83547
1.75562
1.67686
1.5994
1.52342
1.44906
1.37646
1.30575
1.23702
1.17039
1.10594
1.04375
0.983871
0.926362
0.871257
0.81858
0.768346
0.720556
0.675204
0.63227
0.591729
0.553544
0.517673
0.484068
0.452674
0.423431
0.396271
0.371121
0.347899
0.326516
0.306876
0.288879
0.272417
0.257384
0.243671
0.231171
0.219782
0.209406
0.199953
0.191338
0.183484
0.176323
0.169793
0.163837
0.158407
0.153459
0.148955
0.144862
0.141149
0.13779
0.134762
0.132044
0.129617
0.127466
0.125574
0.123929
0.122515
0.12132
0.120331
0.119534
0.118914
0.118456
0.118143
0.117955
0.117873
0.117875
0.117937
0.118036
0.118144
0.118237
0.118288
0.118272
0.118165
0.117943
0.117586
0.117075
0.116396
0.115535
0.114484
0.113236
0.111789
0.110143
0.108302
0.10627
0.104056
0.101671
0.0991267
0.0964356
0.0936126
0.0906726
0.0876313
0.0845041
0.0813069
0.078055
0.0747633
0.071446
0.0681169
0.0647887
0.0614733
0.0581818
0.0549243
0.0517098
0.0485466
0.0454419
0.0424019
0.0394322
0.0365373
0.0337212
0.0309869
0.0283368
0.0257727
0.0232957
0.0209067
0.0186056
0.0163923
0.014266
0.0122259
0.0102705
0.00839827
0.00660744
0.00489598
0.00326174
0.00170241
0.000215592
-0.0012012
-0.0025505
-0.00383488
-0.00505694
-0.00621928
-0.00732447
-0.00837506
-0.00937355
-0.0103224
-0.011224
-0.0120808
-0.0128948
-0.0136684
-0.0144036
-0.0151024
-0.0157668
-0.0163984
-0.0169992
-0.0175707
-0.0181144
-0.0186319
-0.0191243
-0.0195931
-0.0200394
-0.0204643
-0.0208687
-0.0212535
-0.0216196
-0.0219678
-0.0222986
-0.0226126
-0.0229104
-0.0231923
-0.0234587
-0.0237099
-0.023946
-0.0241673
-0.0243738
-0.0245655
-0.0247425
-0.0249046
-0.0250517
-0.0251837
-0.0253005
-0.0254017
-0.0254873
-0.0255571
-0.0256109
-0.0256486
-0.0256702
-0.0256756
-0.0256649
-0.0256383
-0.0255961
-0.0255385
-0.025466
-0.0253792
-0.0252785
-0.0251647
-0.0250385
-0.0249006
-0.0247519
-0.0245931
-0.0244251
-0.0242488
-0.024065
-0.0238746
-0.0236784
-0.0234773
-0.0232724
-0.0230645
-0.0228548
-0.0226443
-0.022434
-0.0222253
-0.022019
-0.0218162
-0.0216177
-0.0214238
-0.021235
-0.021051
-0.0208715
-0.0206957
-0.0205226
-0.0203512
-0.0201801
-0.0200082
-0.0198345
-0.0196578
-0.0194775
-0.0192931
-0.0191041
-0.0189105
-0.0187123
-0.0185096
-0.0183028
-0.0180922
-0.0178782
-0.0176612
-0.0174418
-0.0172203
-0.0169971
-0.0167727
-0.0165474
-0.0163215
-0.0160952
-0.0158689
-0.0156427
-0.0154167
-0.0151913
-0.0149663
-0.0147421
-0.0145186
-0.0142958
-0.014074
-0.0138529
-0.0136328
-0.0134136
-0.0131953
-0.0129778
-0.0127613
-0.0125457
-0.0123309
-0.012117
-0.0119039
-0.0116916
-0.0114801
-0.0112693
-0.0110593
-0.01085
-0.0106414
-0.0104335
-0.0102262
-0.0100195
-0.00981345
-0.00960795
-0.009403
-0.00919859
-0.00899469
-0.00879128
-0.00858835
-0.00838587
-0.00818383
-0.00798221
-0.007781
-0.00758017
-0.00737972
-0.00717963
-0.00697988
-0.00678046
-0.00658136
-0.00638257
-0.00618406
-0.00598584
-0.00578788
-0.00559019
-0.00539274
-0.00519553
-0.00499854
-0.00480177
-0.0046052
-0.00440883
-0.00421265
-0.00401665
-0.00382081
-0.00362514
-0.00342962
-0.00323425
-0.00303901
-0.0028439
-0.00264891
-0.00245403
-0.00225926
-0.00206458
-0.00186999
-0.00167548
-0.00148106
-0.00128667
-0.00109241
-0.000897972
-0.000704279
-0.000507793
-0.000318522
-9.01259e-05
5.75763
0.433901
0.0337389
-0.233949
-0.344397
-0.40475
-0.450073
-0.500955
-0.558699
-0.627621
-0.691897
-0.740847
-0.776547
-0.825018
-0.937688
-1.10097
-1.21303
-1.41344
-1.84667
-0.663137
-0.0222281
-0.0241879
-0.00798964
0.0747797
0.124448
0.208825
0.292737
0.368042
0.414715
0.413981
0.393589
0.379541
0.368854
0.362863
0.36088
0.356129
0.348181
0.340217
0.332723
0.325568
0.318805
0.31249
0.306682
0.301416
0.296775
0.29286
0.289779
0.28752
0.286046
0.28533
0.285301
0.285855
0.286922
0.288371
0.290128
0.292234
0.294673
0.297426
0.300255
0.302511
0.301831
0.291716
0.26446
0.23803
0.235867
0.236842
0.237831
0.238352
0.237968
0.236559
0.234676
0.233961
0.238721
0.251355
0.265098
0.257663
0.213596
0.205577
0.207407
0.210023
0.211337
0.212579
0.217332
0.228311
0.249186
0.292176
0.363763
0.31892
-0.0918411
0.0751605
0.156054
0.213013
0.297127
0.475036
4.25232
1.33147
-0.644164
-0.249609
0.232915
0.903594
2.17614
1.40406
1.04636
1.10021
1.21769
1.52214
1.42573
1.43048
1.6471
1.87403
1.9572
2.05696
2.19292
2.25318
2.259
2.28954
2.33621
2.37649
2.42574
2.48358
2.53516
2.57972
2.61669
2.64187
2.65628
2.66162
2.6582
2.64705
2.62897
2.60413
2.5725
2.53374
2.48758
2.43408
2.3738
2.30767
2.2369
2.16274
2.08638
2.00879
1.93072
1.85271
1.77518
1.69842
1.62266
1.54809
1.47484
1.40305
1.33286
1.26438
1.19775
1.13306
1.07042
1.00992
0.951633
0.895615
0.841914
0.790566
0.741593
0.695006
0.650804
0.608975
0.569497
0.532338
0.497461
0.464823
0.434373
0.406055
0.379809
0.355562
0.333236
0.312742
0.293984
0.276856
0.261248
0.247045
0.234134
0.222403
0.211742
0.202052
0.193237
0.185213
0.177902
0.171236
0.165155
0.159605
0.15454
0.14992
0.14571
0.141879
0.1384
0.135252
0.132412
0.129864
0.127591
0.125581
0.12382
0.122296
0.120999
0.119918
0.119041
0.118357
0.117853
0.117514
0.117325
0.117266
0.117319
0.117459
0.117664
0.117906
0.118159
0.118394
0.118584
0.1187
0.118716
0.118606
0.118349
0.117924
0.117315
0.116509
0.115496
0.11427
0.11283
0.111175
0.10931
0.107243
0.104982
0.102541
0.0999312
0.0971689
0.0942697
0.0912502
0.0881271
0.0849176
0.0816384
0.0783059
0.0749358
0.0715433
0.0681426
0.0647469
0.0613685
0.0580187
0.0547078
0.0514449
0.0482382
0.0450948
0.0420211
0.0390222
0.0361026
0.0332659
0.030515
0.027852
0.0252785
0.0227953
0.0204029
0.0181012
0.0158896
0.0137673
0.0117329
0.00978501
0.00792178
0.0061412
0.00444109
0.0028191
0.00127276
-0.000200473
-0.00160323
-0.00293817
-0.004208
-0.0054154
-0.00656308
-0.0076537
-0.00868988
-0.0096742
-0.0106092
-0.0114972
-0.0123408
-0.0131421
-0.0139034
-0.0146268
-0.0153143
-0.0159678
-0.0165892
-0.0171802
-0.0177425
-0.0182775
-0.0187868
-0.0192717
-0.0197334
-0.0201732
-0.020592
-0.0209909
-0.0213707
-0.0217323
-0.0220764
-0.0224037
-0.0227146
-0.0230097
-0.0232893
-0.0235539
-0.0238036
-0.0240386
-0.0242592