/*--------------------------------*- C++ -*----------------------------------*\
| =========                 |                                                 |
| \\      /  F ield         | OpenFOAM: The Open Source CFD Toolbox           |
|  \\    /   O peration     | Version:  v2006                                 |
|   \\  /    A nd           | Website:  www.openfoam.com                      |
|    \\/     M anipulation  |                                                 |
\*---------------------------------------------------------------------------*/
FoamFile
{
    version     2.0;
    format      ascii;
    class       volScalarField;
    location    "0";
    object      p;
}
// * * * * * * * * * * * * * * * * * * * * * * * * * * * * * * * * * * * * * //

dimensions      [1 -1 -2 0 0 0 0];


internalField   nonuniform List<scalar> 
20000
(
0.000137904
0.000137549
0.000136428
0.000134381
0.000131472
0.000127541
0.000122386
0.0001157
0.000107113
9.62035e-05
8.24663e-05
6.52888e-05
4.39411e-05
1.7561e-05
-1.48647e-05
-5.45217e-05
-0.00010279
-0.000161262
-0.000231761
-0.000316348
-0.000417307
-0.000537118
-0.000678368
-0.000843616
-0.00103517
-0.00125472
-0.0015029
-0.00177869
-0.00207885
-0.00239746
-0.0027261
-0.00305519
-0.00337677
-0.00369012
-0.0040082
-0.0043594
-0.00477895
-0.00529159
-0.00589527
-0.00656154
-0.00729867
-0.0080476
-0.00880716
-0.00956533
-0.0103224
-0.0110807
-0.0118436
-0.0126177
-0.0134109
-0.0142345
-0.0151062
-0.0160501
-0.0170938
-0.0182632
-0.0195787
-0.0210571
-0.022722
-0.0245829
-0.0266437
-0.0289046
-0.0313601
-0.0339986
-0.036802
-0.0397451
-0.042795
-0.0459112
-0.0490452
-0.0521417
-0.0551367
-0.0579639
-0.0605686
-0.0628841
-0.0648522
-0.06642
-0.0675457
-0.0682073
-0.0683811
-0.0680582
-0.0672385
-0.0659278
-0.0641374
-0.0618857
-0.0592008
-0.056124
-0.0527115
-0.0490336
-0.0451725
-0.0412177
-0.0372615
-0.0333901
-0.0296586
-0.0261523
-0.0228938
-0.0198949
-0.0171589
-0.0146827
-0.0124632
-0.0105039
-0.00881219
-0.00738781
-0.0062122
-0.00524502
-0.0044323
-0.00372351
-0.003086
-0.00250605
-0.00198054
-0.00150985
-0.00109482
-0.000735264
-0.000429239
-0.000173195
3.73927e-05
0.000207547
0.000342392
0.000446869
0.000525559
0.000582599
0.000621646
0.000645888
0.000658067
0.000660525
0.000655242
0.000643884
0.000627841
0.00060827
0.000586125
0.00056219
0.000537105
0.000511389
0.000485457
0.000459641
0.000434201
0.000409339
0.000385206
0.000361914
0.000339545
0.000318149
0.000297758
0.000278385
0.00026003
0.000242679
0.000226326
0.00021094
0.000196442
0.000182838
0.000170093
0.00015816
0.000147002
0.000136576
0.000126845
0.000117768
0.000109307
0.000101427
9.40909e-05
8.72657e-05
8.09186e-05
7.5019e-05
6.95375e-05
6.44463e-05
5.97193e-05
5.53317e-05
5.12606e-05
4.74841e-05
4.3982e-05
4.0735e-05
3.77254e-05
3.49364e-05
3.23525e-05
2.99589e-05
2.77421e-05
2.56892e-05
2.37885e-05
2.20291e-05
2.04008e-05
1.88941e-05
1.75001e-05
1.62109e-05
1.50189e-05
1.39172e-05
1.28993e-05
1.1959e-05
1.10906e-05
1.02889e-05
9.54907e-06
8.86688e-06
8.23836e-06
7.65982e-06
7.12776e-06
6.63892e-06
6.19032e-06
5.77931e-06
5.40349e-06
5.06065e-06
4.74875e-06
4.46584e-06
4.21022e-06
3.97971e-06
3.77441e-06
3.58812e-06
0.00013796
0.000137609
0.000136495
0.00013446
0.000131566
0.000127656
0.000122526
0.000115872
0.000107324
9.64606e-05
8.27789e-05
6.56674e-05
4.43976e-05
1.81091e-05
-1.42093e-05
-5.37417e-05
-0.000101866
-0.000160174
-0.000230489
-0.00031487
-0.000415609
-0.00053519
-0.000676216
-0.000841268
-0.00103268
-0.00125219
-0.00150048
-0.0017766
-0.00207729
-0.00239662
-0.00272606
-0.00305566
-0.00337715
-0.00368938
-0.00400509
-0.0043534
-0.00477073
-0.0052832
-0.00589551
-0.00659117
-0.00733117
-0.00807452
-0.00882739
-0.0095801
-0.0103321
-0.011085
-0.0118421
-0.0126098
-0.0133966
-0.0142138
-0.0150797
-0.0160196
-0.017061
-0.0182287
-0.0195455
-0.0210323
-0.0227017
-0.0245639
-0.0266254
-0.028887
-0.0313436
-0.0339838
-0.0367896
-0.039736
-0.0427902
-0.0459116
-0.0490521
-0.0521564
-0.0551648
-0.0580132
-0.0606302
-0.0629538
-0.0649271
-0.0664985
-0.0676238
-0.0682818
-0.0684508
-0.0681215
-0.0672935
-0.0659723
-0.0641696
-0.0619043
-0.0592059
-0.0561162
-0.0526917
-0.0490033
-0.0451345
-0.0411749
-0.0372143
-0.0333375
-0.0296269
-0.0261255
-0.0228685
-0.0198705
-0.0171352
-0.0146594
-0.0124397
-0.01048
-0.00878852
-0.00736589
-0.00619374
-0.00523109
-0.00442261
-0.00371669
-0.00308056
-0.00250105
-0.0019756
-0.00150487
-0.00108987
-0.000730491
-0.000424773
-0.000169124
4.10224e-05
0.000210723
0.000345129
0.000449197
0.000527517
0.000584228
0.000622988
0.000646982
0.00065895
0.000661229
0.000655796
0.000644311
0.000628164
0.000608506
0.000586289
0.000562296
0.000537164
0.00051141
0.000485448
0.000459609
0.00043415
0.000409274
0.000385131
0.000361832
0.000339458
0.000318059
0.000297667
0.000278294
0.000259939
0.000242589
0.000226218
0.000210801
0.000196323
0.000182736
0.000170004
0.000158081
0.00014693
0.000136512
0.000126786
0.000117714
0.000109259
0.000101382
9.405e-05
8.72282e-05
8.08843e-05
7.49875e-05
6.95087e-05
6.44199e-05
5.9695e-05
5.53094e-05
5.124e-05
4.74652e-05
4.39646e-05
4.0719e-05
3.77107e-05
3.49228e-05
3.234e-05
2.99474e-05
2.77314e-05
2.56794e-05
2.37795e-05
2.20208e-05
2.03931e-05
1.8887e-05
1.74936e-05
1.62048e-05
1.50134e-05
1.39121e-05
1.28946e-05
1.19547e-05
1.10866e-05
1.02851e-05
9.54559e-06
8.86367e-06
8.23541e-06
7.6571e-06
7.12525e-06
6.6366e-06
6.18817e-06
5.77732e-06
5.40165e-06
5.05896e-06
4.7472e-06
4.46441e-06
4.20893e-06
3.97862e-06
3.7741e-06
3.58566e-06
0.000138074
0.000137728
0.000136628
0.000134616
0.000131753
0.000127884
0.000122806
0.000116215
0.000107744
9.69739e-05
8.34031e-05
6.64234e-05
4.53094e-05
1.92041e-05
-1.29002e-05
-5.21836e-05
-0.000100021
-0.000158
-0.000227945
-0.000311917
-0.000412214
-0.000531337
-0.000671913
-0.000836563
-0.00102768
-0.0012471
-0.0014956
-0.00177229
-0.00207401
-0.0023948
-0.00272589
-0.00305676
-0.00337818
-0.00368802
-0.00399888
-0.00434154
-0.0047555
-0.00526833
-0.0058804
-0.00657174
-0.00729793
-0.00805842
-0.00881496
-0.00957001
-0.0103242
-0.011079
-0.0118378
-0.012607
-0.0133946
-0.0142113
-0.0150753
-0.016012
-0.0170492
-0.0182125
-0.0195249
-0.0210063
-0.0226703
-0.0245296
-0.0265902
-0.0288525
-0.031311
-0.0339545
-0.0367647
-0.0397164
-0.042777
-0.0459057
-0.0490539
-0.0521656
-0.0551803
-0.0580339
-0.0606589
-0.0629922
-0.0649727
-0.0665507
-0.0676919
-0.0683551
-0.0685281
-0.0682025
-0.0673773
-0.0660582
-0.0642568
-0.0619917
-0.0592911
-0.0561959
-0.0527622
-0.0490614
-0.0451771
-0.0411994
-0.0372199
-0.0333271
-0.0296017
-0.0260891
-0.0228248
-0.0198244
-0.017089
-0.0146132
-0.0123928
-0.0104322
-0.0087411
-0.00732193
-0.00615676
-0.00520324
-0.00440332
-0.00370317
-0.00306977
-0.0024911
-0.00196572
-0.0014949
-0.00107996
-0.000720936
-0.000415833
-0.000160978
4.82828e-05
0.000217075
0.000350602
0.000453851
0.00053143
0.000587483
0.000625669
0.000649168
0.000660714
0.000662635
0.0006569
0.000645164
0.000628807
0.000608976
0.000586617
0.000562508
0.000537282
0.000511453
0.00048543
0.000459544
0.000434049
0.000409144
0.000384981
0.000361668
0.000339283
0.000317879
0.000297484
0.000278111
0.000259758
0.000242414
0.000226056
0.000210654
0.000196185
0.000182603
0.000169869
0.00015795
0.000146803
0.00013639
0.000126669
0.000117603
0.000109153
0.000101282
9.39554e-05
8.71391e-05
8.08004e-05
7.49087e-05
6.94347e-05
6.43505e-05
5.963e-05
5.52487e-05
5.11834e-05
4.74123e-05
4.39153e-05
4.0673e-05
3.76678e-05
3.48829e-05
3.23029e-05
2.99129e-05
2.76993e-05
2.56495e-05
2.37517e-05
2.1995e-05
2.03692e-05
1.88647e-05
1.74729e-05
1.61857e-05
1.49956e-05
1.38956e-05
1.28792e-05
1.19404e-05
1.10733e-05
1.02728e-05
9.53413e-06
8.85302e-06
8.22551e-06
7.64789e-06
7.11667e-06
6.62859e-06
6.18068e-06
5.7703e-06
5.39508e-06
5.0528e-06
4.74141e-06
4.45896e-06
4.20378e-06
3.97374e-06
3.76919e-06
3.58121e-06
0.000138244
0.000137907
0.000136827
0.000134849
0.000132034
0.000128226
0.000123225
0.000116729
0.000108373
9.77417e-05
8.43371e-05
6.75547e-05
4.6674e-05
2.0843e-05
-1.09404e-05
-4.98507e-05
-9.72571e-05
-0.000154745
-0.000224135
-0.000307491
-0.000407123
-0.000525552
-0.000665447
-0.000829493
-0.00102018
-0.00123946
-0.00148826
-0.00176586
-0.0020692
-0.00239221
-0.00272576
-0.00305851
-0.00337986
-0.00368615
-0.0039897
-0.00432347
-0.00473096
-0.00524281
-0.00586044
-0.00656089
-0.00730305
-0.00806384
-0.00882137
-0.00957578
-0.0103286
-0.0110812
-0.0118369
-0.0126023
-0.013385
-0.0141953
-0.0150515
-0.01598
-0.0170099
-0.0181675
-0.0194755
-0.0209533
-0.0226158
-0.0244747
-0.0265359
-0.0287998
-0.0312615
-0.0339098
-0.036727
-0.0396882
-0.0427607
-0.0459038
-0.0490689
-0.0521999
-0.0552354
-0.0581094
-0.0607535
-0.0631028
-0.0650975
-0.0666875
-0.0678297
-0.0684949
-0.0686671
-0.0683384
-0.0675085
-0.0661834
-0.0643745
-0.0620996
-0.0593861
-0.0562744
-0.0528208
-0.0490974
-0.045189
-0.0411872
-0.0371862
-0.0332766
-0.0295378
-0.0260192
-0.0227528
-0.0197523
-0.0170183
-0.0145434
-0.0123223
-0.0103602
-0.0086696
-0.00725562
-0.00610107
-0.00516152
-0.00437466
-0.00368319
-0.00305377
-0.00247628
-0.00195094
-0.00147993
-0.00106506
-0.000706573
-0.000402404
-0.000148747
5.9177e-05
0.000226601
0.000358804
0.000460823
0.000537289
0.000592356
0.000629682
0.00065244
0.000663352
0.000664737
0.000658551
0.000646438
0.000629768
0.000609678
0.000587107
0.000562824
0.000537457
0.000511514
0.000485402
0.000459444
0.000433895
0.000408949
0.000384755
0.00036142
0.000339021
0.000317609
0.00029721
0.000277838
0.000259488
0.000242148
0.000225794
0.000210397
0.000195934
0.000182362
0.000169642
0.000157735
0.000146602
0.0001362
0.000126491
0.000117436
0.000108997
0.000101136
9.38188e-05
8.70114e-05
8.06813e-05
7.47976e-05
6.93312e-05
6.42541e-05
5.95403e-05
5.51652e-05
5.11057e-05
4.73402e-05
4.38483e-05
4.06108e-05
3.761e-05
3.48293e-05
3.2253e-05
2.98666e-05
2.76564e-05
2.56097e-05
2.37148e-05
2.19608e-05
2.03374e-05
1.88353e-05
1.74456e-05
1.61603e-05
1.49721e-05
1.38738e-05
1.28591e-05
1.19217e-05
1.10559e-05
1.02566e-05
9.51913e-06
8.8391e-06
8.21258e-06
7.63586e-06
7.10547e-06
6.61815e-06
6.17093e-06
5.7612e-06
5.38656e-06
5.04482e-06
4.73393e-06
4.45192e-06
4.19714e-06
3.96745e-06
3.76317e-06
3.57565e-06
0.000138469
0.000138143
0.000137091
0.000135159
0.000132406
0.00012868
0.000123781
0.000117411
0.000109208
9.87617e-05
8.5578e-05
6.90582e-05
4.84877e-05
2.30217e-05
-8.33465e-06
-4.67482e-05
-9.3581e-05
-0.000150413
-0.000219061
-0.000301596
-0.000400338
-0.00051784
-0.00065682
-0.000820045
-0.00101013
-0.00122918
-0.00147836
-0.00175715
-0.0020626
-0.00238861
-0.0027256
-0.00306112
-0.0033826
-0.00368417
-0.00397754
-0.00429893
-0.00469797
-0.00520964
-0.00583435
-0.00654325
-0.00729343
-0.00805862
-0.00881868
-0.00957335
-0.0103258
-0.0110774
-0.0118312
-0.0125941
-0.0133734
-0.0141778
-0.0150258
-0.0159452
-0.0169665
-0.0181164
-0.0194173
-0.020889
-0.0225473
-0.0244037
-0.0264643
-0.02873
-0.0311958
-0.0338506
-0.0366769
-0.0396497
-0.0427363
-0.045896
-0.0490798
-0.0522315
-0.0552886
-0.0581845
-0.0608504
-0.0632202
-0.0652332
-0.0668369
-0.0679911
-0.0686646
-0.0688413
-0.0685142
-0.0676839
-0.0663564
-0.0645426
-0.0622592
-0.0595326
-0.0564024
-0.0529244
-0.0491716
-0.0452305
-0.0411953
-0.0371622
-0.0332251
-0.0294649
-0.0259337
-0.0226609
-0.0196584
-0.0169251
-0.0144511
-0.0122286
-0.010264
-0.00857374
-0.00716657
-0.00602643
-0.005106
-0.00433696
-0.00365712
-0.00303284
-0.00245669
-0.00193128
-0.00145995
-0.00104516
-0.000687374
-0.000384462
-0.00013242
7.37075e-05
0.000239296
0.000369729
0.000470104
0.000545084
0.000598837
0.000635016
0.000656786
0.000666856
0.000667528
0.000660742
0.000648128
0.000631041
0.000610607
0.000587753
0.00056324
0.000537686
0.000511593
0.000485362
0.00045931
0.000433688
0.000408687
0.000384452
0.000361089
0.000338671
0.000317248
0.000296844
0.000277472
0.000259126
0.000241793
0.00022545
0.000210069
0.000195619
0.000182061
0.000169354
0.000157461
0.000146341
0.000135953
0.000126257
0.000117215
0.000108788
0.00010094
9.36348e-05
8.68389e-05
8.05197e-05
7.46464e-05
6.91898e-05
6.4122e-05
5.94171e-05
5.50503e-05
5.09987e-05
4.72406e-05
4.37555e-05
4.05245e-05
3.75298e-05
3.47547e-05
3.21837e-05
2.98022e-05
2.75965e-05
2.55542e-05
2.36632e-05
2.19129e-05
2.0293e-05
1.87941e-05
1.74074e-05
1.61249e-05
1.49392e-05
1.38433e-05
1.28307e-05
1.18953e-05
1.10315e-05
1.02339e-05
9.49804e-06
8.81952e-06
8.19439e-06
7.61895e-06
7.08971e-06
6.60345e-06
6.15721e-06
5.74837e-06
5.37456e-06
5.03358e-06
4.72337e-06
4.44199e-06
4.18777e-06
3.95858e-06
3.75474e-06
3.5677e-06
0.000138748
0.000138436
0.000137418
0.000135542
0.000132868
0.000129243
0.000124471
0.000118258
0.000110247
0.000100031
8.71221e-05
7.09294e-05
5.07456e-05
2.57346e-05
-5.08922e-06
-4.28829e-05
-8.89994e-05
-0.000145011
-0.000212733
-0.000294237
-0.000391862
-0.000508194
-0.000646013
-0.000808189
-0.00099749
-0.00121625
-0.00146589
-0.00174615
-0.00205429
-0.00238416
-0.00272563
-0.00306482
-0.00338672
-0.00368239
-0.00396261
-0.00426776
-0.00465554
-0.00516655
-0.0058001
-0.00652189
-0.00728525
-0.00805757
-0.00882021
-0.00957488
-0.0103266
-0.0110763
-0.011827
-0.012586
-0.0133597
-0.0141555
-0.0149919
-0.0158989
-0.0169087
-0.0180485
-0.0193408
-0.0208056
-0.0224592
-0.0243132
-0.0263739
-0.028642
-0.0311129
-0.0337757
-0.0366133
-0.0396009
-0.0427063
-0.0458884
-0.0490983
-0.0522787
-0.0553662
-0.0582928
-0.0609884
-0.0633852
-0.0654209
-0.0670425
-0.0682082
-0.0688884
-0.069067
-0.0687382
-0.0679034
-0.0665693
-0.0647462
-0.0624499
-0.0597053
-0.0565504
-0.0530409
-0.049251
-0.0452695
-0.0411928
-0.0371204
-0.0331503
-0.0293662
-0.0258212
-0.0225424
-0.019539
-0.0168079
-0.0143355
-0.0121112
-0.0101431
-0.0084529
-0.00705413
-0.00593245
-0.00503679
-0.00429069
-0.00362548
-0.0030073
-0.0024325
-0.00190677
-0.00143492
-0.00102018
-0.000663289
-0.000361975
-0.000111979
9.18795e-05
0.000255157
0.000383366
0.000481679
0.0005548
0.000606909
0.000641657
0.000662195
0.000671214
0.000670997
0.000663464
0.000650226
0.000632621
0.000611758
0.000588553
0.000563752
0.000537966
0.000511687
0.000485307
0.000459139
0.000433427
0.000408357
0.000384072
0.000360674
0.000338233
0.000316795
0.000296386
0.000277014
0.000258674
0.00024135
0.000225019
0.000209652
0.000195217
0.000181675
0.000168986
0.000157111
0.000146009
0.00013564
0.000125962
0.000116937
0.000108527
0.000100695
9.34053e-05
8.66241e-05
8.03188e-05
7.44588e-05
6.90146e-05
6.39586e-05
5.92648e-05
5.49085e-05
5.08667e-05
4.71177e-05
4.36413e-05
4.04183e-05
3.74311e-05
3.4663e-05
3.20985e-05
2.97231e-05
2.75231e-05
2.5486e-05
2.36e-05
2.18542e-05
2.02385e-05
1.87435e-05
1.73605e-05
1.60814e-05
1.48989e-05
1.3806e-05
1.27961e-05
1.18631e-05
1.10015e-05
1.02061e-05
9.47225e-06
8.79557e-06
8.17214e-06
7.59825e-06
7.07044e-06
6.58547e-06
6.14043e-06
5.73269e-06
5.35989e-06
5.01983e-06
4.71047e-06
4.42985e-06
4.17632e-06
3.94775e-06
3.74445e-06
3.55795e-06
0.000139079
0.000138783
0.000137807
0.000135999
0.000133418
0.000129914
0.000125294
0.000119269
0.000111485
0.000101544
8.89648e-05
7.31629e-05
5.34415e-05
2.89746e-05
-1.2119e-06
-3.82634e-05
-8.35218e-05
-0.00013855
-0.000205158
-0.000285423
-0.000381698
-0.000496613
-0.000633021
-0.000793911
-0.000982234
-0.00120059
-0.00145071
-0.0017327
-0.00204408
-0.00237871
-0.00272582
-0.00306991
-0.00339278
-0.00368145
-0.00394513
-0.00422945
-0.00460281
-0.00511329
-0.00575856
-0.00649695
-0.00727552
-0.00805597
-0.00882096
-0.00957529
-0.0103261
-0.0110737
-0.0118208
-0.0125755
-0.0133431
-0.0141291
-0.0149519
-0.015844
-0.0168402
-0.017968
-0.01925
-0.0207063
-0.0223541
-0.0242049
-0.0262651
-0.028536
-0.0310129
-0.0336855
-0.0365367
-0.0395421
-0.0426695
-0.0458778
-0.0491176
-0.052331
-0.0554536
-0.0584158
-0.061146
-0.0635744
-0.0656374
-0.0672805
-0.0684616
-0.069151
-0.0693335
-0.0690043
-0.0681663
-0.0668265
-0.0649946
-0.0626848
-0.0599199
-0.0567363
-0.0531892
-0.0493544
-0.0453234
-0.0411956
-0.0370744
-0.0330631
-0.0292495
-0.0256875
-0.0224007
-0.019396
-0.0166677
-0.0141975
-0.0119707
-0.00999757
-0.00830648
-0.00691755
-0.00581868
-0.00495402
-0.0042365
-0.00358894
-0.00297757
-0.00240388
-0.00187746
-0.00140482
-0.000990066
-0.000634262
-0.000334904
-8.74039e-05
0.000113697
0.000274177
0.0003997
0.000495532
0.000566419
0.000616555
0.000649587
0.00066865
0.000676412
0.000675132
0.000666707
0.000652722
0.000634498
0.000613124
0.000589499
0.000564357
0.000538293
0.000511791
0.000485235
0.000458928
0.000433108
0.000407958
0.000383613
0.000360173
0.000337704
0.000316251
0.000295835
0.000276464
0.00025813
0.000240818
0.000224502
0.000209153
0.000194737
0.000181216
0.000168549
0.000156695
0.000145615
0.000135266
0.00012561
0.000116605
0.000108215
0.000100402
9.31302e-05
8.63663e-05
8.00776e-05
7.42333e-05
6.88039e-05
6.3762e-05
5.90815e-05
5.47377e-05
5.07077e-05
4.69697e-05
4.35036e-05
4.02903e-05
3.73121e-05
3.45524e-05
3.19958e-05
2.96276e-05
2.74344e-05
2.54037e-05
2.35236e-05
2.17833e-05
2.01727e-05
1.86825e-05
1.73039e-05
1.6029e-05
1.48503e-05
1.37608e-05
1.27541e-05
1.18242e-05
1.09654e-05
1.01726e-05
9.44107e-06
8.76662e-06
8.14524e-06
7.57323e-06
7.04713e-06
6.56374e-06
6.12015e-06
5.71374e-06
5.34216e-06
5.00322e-06
4.69487e-06
4.41517e-06
4.16248e-06
3.93466e-06
3.73202e-06
3.54617e-06
0.00013946
0.000139183
0.000138255
0.000136525
0.000134053
0.00013069
0.000126246
0.000120438
0.00011292
0.000103298
9.11003e-05
7.57525e-05
5.65681e-05
3.27335e-05
3.28786e-06
-3.29003e-05
-7.71592e-05
-0.000131041
-0.000196348
-0.000275161
-0.000369854
-0.000483098
-0.000617829
-0.000777173
-0.000964297
-0.00118211
-0.00143273
-0.00171671
-0.00203192
-0.00237227
-0.00272635
-0.00307677
-0.00340143
-0.00368203
-0.00392534
-0.00418349
-0.00453878
-0.00504883
-0.00570889
-0.00646803
-0.00726508
-0.00805554
-0.00882293
-0.00957659
-0.0103264
-0.0110716
-0.0118144
-0.0125642
-0.0133249
-0.0140991
-0.0149054
-0.0157797
-0.0167595
-0.0178733
-0.0191431
-0.0205896
-0.0222304
-0.0240776
-0.0261375
-0.0284115
-0.0308954
-0.0335792
-0.0364461
-0.0394722
-0.0426254
-0.0458647
-0.0491402
-0.0523932
-0.0555579
-0.0585629
-0.0613345
-0.0638009
-0.0658963
-0.0675646
-0.0687629
-0.0694624
-0.0696484
-0.0693178
-0.0684748
-0.0671273
-0.0652843
-0.0629581
-0.0601691
-0.0569516
-0.0533602
-0.0494724
-0.0453831
-0.041195
-0.0370162
-0.0329566
-0.0291092
-0.0255282
-0.0222331
-0.0192279
-0.016504
-0.0140369
-0.011807
-0.00982672
-0.00813353
-0.00675577
-0.00568447
-0.0048579
-0.0041752
-0.00354836
-0.00294416
-0.00237104
-0.00184338
-0.00136957
-0.000954733
-0.000600217
-0.000303199
-5.86689e-05
0.000139166
0.000296346
0.000418716
0.00051164
0.000579916
0.000627751
0.000658786
0.000676132
0.000682433
0.000679918
0.000670456
0.000655606
0.000636664
0.000614697
0.000590586
0.000565047
0.000538662
0.000511903
0.000485142
0.000458674
0.000432731
0.000407487
0.000383074
0.000359585
0.000337085
0.000315613
0.00029519
0.00027582
0.000257495
0.000240196
0.000223898
0.000208569
0.000194176
0.000180679
0.000168036
0.000156208
0.000145153
0.00013483
0.000125198
0.000116217
0.00010785
0.000100059
9.28092e-05
8.60658e-05
7.97965e-05
7.39705e-05
6.85586e-05
6.35331e-05
5.8868e-05
5.45389e-05
5.05226e-05
4.67975e-05
4.33434e-05
4.01413e-05
3.71736e-05
3.44238e-05
3.18762e-05
2.95166e-05
2.73314e-05
2.5308e-05
2.34348e-05
2.17009e-05
2.00963e-05
1.86116e-05
1.72382e-05
1.5968e-05
1.47937e-05
1.37084e-05
1.27054e-05
1.1779e-05
1.09234e-05
1.01336e-05
9.40486e-06
8.73299e-06
8.114e-06
7.54417e-06
7.02006e-06
6.5385e-06
6.09659e-06
5.69172e-06
5.32156e-06
4.98391e-06
4.67675e-06
4.39812e-06
4.1464e-06
3.91946e-06
3.7176e-06
3.53247e-06
0.000139889
0.000139634
0.00013876
0.000137119
0.00013477
0.000131566
0.000127323
0.000121762
0.000114545
0.000105286
9.35221e-05
7.86904e-05
6.01167e-05
3.70014e-05
8.39906e-06
-2.68055e-05
-6.99246e-05
-0.000122497
-0.000186316
-0.000263464
-0.000356334
-0.000467645
-0.000600422
-0.000757945
-0.000943623
-0.00116072
-0.00141182
-0.001698
-0.00201762
-0.0023647
-0.00272727
-0.0030858
-0.00341348
-0.00368509
-0.00390365
-0.00412923
-0.00446205
-0.00497196
-0.00565064
-0.00643545
-0.0072547
-0.00805671
-0.00882597
-0.0095783
-0.0103271
-0.0110694
-0.0118071
-0.0125516
-0.013305
-0.0140657
-0.0148525
-0.0157058
-0.0166669
-0.0177647
-0.0190206
-0.0204556
-0.0220884
-0.0239313
-0.0259907
-0.0282682
-0.0307601
-0.0334565
-0.0363414
-0.0393911
-0.0425739
-0.0458486
-0.0491649
-0.0524632
-0.055676
-0.05873
-0.0615492
-0.0640592
-0.0661917
-0.0678891
-0.0691072
-0.069818
-0.0700079
-0.0696755
-0.0688272
-0.0674714
-0.0656167
-0.063273
-0.0604575
-0.0572019
-0.0535596
-0.0496105
-0.0454535
-0.0411951
-0.0369487
-0.0328325
-0.0289464
-0.0253441
-0.02204
-0.0190349
-0.0163172
-0.0138546
-0.0116203
-0.00963023
-0.00793304
-0.00656752
-0.00552902
-0.00474867
-0.00410788
-0.0035048
-0.00290769
-0.00233422
-0.00180456
-0.0013291
-0.000914069
-0.000561066
-0.000266803
-2.57467e-05
0.000168291
0.000321654
0.000440392
0.000529979
0.000595265
0.000640472
0.000669226
0.000684617
0.000689255
0.000685336
0.000674696
0.000658864
0.000639106
0.000616467
0.000591804
0.000565815
0.000539068
0.000512016
0.000485024
0.000458375
0.000432292
0.000406943
0.000382452
0.000358909
0.000336373
0.000314882
0.000294451
0.000275083
0.000256767
0.000239484
0.000223207
0.000207902
0.000193535
0.000180065
0.000167451
0.000155652
0.000144626
0.000134332
0.000124728
0.000115774
0.000107434
9.96684e-05
9.24427e-05
8.57226e-05
7.94754e-05
7.36704e-05
6.82783e-05
6.32716e-05
5.86243e-05
5.43118e-05
5.03112e-05
4.66008e-05
4.31604e-05
3.99712e-05
3.70155e-05
3.42768e-05
3.17397e-05
2.93898e-05
2.72136e-05
2.51987e-05
2.33333e-05
2.16068e-05
2.00089e-05
1.85306e-05
1.7163e-05
1.58983e-05
1.47291e-05
1.36484e-05
1.26498e-05
1.17273e-05
1.08754e-05
1.0089e-05
9.36349e-06
8.69457e-06
8.07829e-06
7.51095e-06
6.98912e-06
6.50965e-06
6.06966e-06
5.66657e-06
5.29803e-06
4.96186e-06
4.65604e-06
4.37864e-06
4.12803e-06
3.90209e-06
3.70112e-06
3.51681e-06
0.000140363
0.000140133
0.000139318
0.000137778
0.000135566
0.000132541
0.000128521
0.000123236
0.000116355
0.000107502
9.6223e-05
8.19683e-05
6.40776e-05
4.17672e-05
1.41091e-05
-1.99931e-05
-6.18333e-05
-0.000112934
-0.000175078
-0.000250345
-0.000341148
-0.000450256
-0.000580788
-0.000736191
-0.000920142
-0.00113631
-0.00138783
-0.00167641
-0.00200099
-0.00235592
-0.00272869
-0.0030975
-0.00342994
-0.00369183
-0.00388057
-0.00406582
-0.00437092
-0.00488118
-0.00558318
-0.00639939
-0.00724514
-0.00806022
-0.00883048
-0.00958063
-0.0103283
-0.0110674
-0.0117994
-0.0125383
-0.013284
-0.0140294
-0.0147935
-0.0156224
-0.0165621
-0.0176418
-0.0188818
-0.0203038
-0.0219276
-0.0237657
-0.0258244
-0.0281058
-0.0306064
-0.033317
-0.036222
-0.0392982
-0.0425142
-0.0458289
-0.0491914
-0.0525412
-0.0558089
-0.058919
-0.0617926
-0.0643523
-0.0665273
-0.0682575
-0.0694982
-0.0702212
-0.0704147
-0.0700797
-0.0692249
-0.0678599
-0.0659924
-0.0636295
-0.0607848
-0.0574862
-0.0537861
-0.0497671
-0.0455327
-0.0411934
-0.0368689
-0.0326879
-0.0287584
-0.0251332
-0.02182
-0.0188161
-0.0161072
-0.013651
-0.0114109
-0.00940754
-0.00770365
-0.00635117
-0.00535132
-0.00462668
-0.00403588
-0.00345958
-0.00286884
-0.00229363
-0.00176099
-0.0012833
-0.000867937
-0.000516704
-0.00022565
1.13943e-05
0.000201075
0.000350087
0.000464703
0.000550518
0.000612434
0.000654685
0.000680881
0.00069408
0.000696856
0.000691367
0.00067941
0.00066248
0.000641812
0.000618423
0.000593145
0.000566655
0.000539503
0.000512127
0.000484877
0.000458026
0.000431788
0.000406322
0.000381746
0.000358143
0.000335569
0.000314055
0.000293616
0.000274251
0.000255947
0.000238682
0.000222428
0.000207151
0.000192813
0.000179374
0.000166793
0.000155027
0.000144033
0.000133771
0.000124199
0.000115276
0.000106966
9.92289e-05
9.20307e-05
8.53367e-05
7.91145e-05
7.33331e-05
6.79634e-05
6.29778e-05
5.83504e-05
5.40567e-05
5.00736e-05
4.63797e-05
4.29548e-05
3.978e-05
3.68378e-05
3.41117e-05
3.15864e-05
2.92474e-05
2.70814e-05
2.50759e-05
2.32194e-05
2.1501e-05
1.99108e-05
1.84396e-05
1.70787e-05
1.58201e-05
1.46566e-05
1.35811e-05
1.25873e-05
1.16692e-05
1.08215e-05
1.0039e-05
9.31704e-06
8.65143e-06
8.03819e-06
7.47365e-06
6.95438e-06
6.47726e-06
6.03944e-06
5.63833e-06
5.27161e-06
4.9371e-06
4.6328e-06
4.35677e-06
4.10741e-06
3.88259e-06
3.68262e-06
3.49922e-06
0.000140879
0.000140676
0.000139928
0.000138497
0.000136437
0.000133609
0.000129835
0.000124855
0.000118344
0.000109938
9.91944e-05
8.55765e-05
6.84397e-05
4.70182e-05
2.04038e-05
-1.24789e-05
-5.29025e-05
-0.00010237
-0.000162651
-0.00023582
-0.000324308
-0.000430932
-0.000558913
-0.000711871
-0.000893779
-0.00110876
-0.00136057
-0.00165169
-0.0019818
-0.00234574
-0.00273066
-0.0031124
-0.00345201
-0.00370377
-0.00385681
-0.00399223
-0.00426326
-0.00477471
-0.00550577
-0.00636017
-0.00723746
-0.00806704
-0.00883678
-0.00958359
-0.0103304
-0.011066
-0.0117911
-0.0125245
-0.0132625
-0.0139907
-0.0147283
-0.0155292
-0.0164449
-0.0175045
-0.0187268
-0.0201341
-0.0217478
-0.0235804
-0.0256383
-0.0279238
-0.030434
-0.0331602
-0.0360873
-0.0391929
-0.0424458
-0.0458051
-0.0492194
-0.0526269
-0.0559563
-0.0591294
-0.0620643
-0.0646801
-0.0669028
-0.0686699
-0.0699353
-0.0706714
-0.0708683
-0.0705299
-0.0696675
-0.0682925
-0.0664114
-0.0640285
-0.0611525
-0.0578067
-0.0540418
-0.049944
-0.0456219
-0.0411905
-0.0367766
-0.0325216
-0.0285441
-0.0248948
-0.0215725
-0.0185712
-0.0158745
-0.0134269
-0.0111794
-0.00915807
-0.00744379
-0.00610469
-0.00515009
-0.00449239
-0.00396094
-0.00341429
-0.0028284
-0.00224952
-0.00171263
-0.001232
-0.000816169
-0.000467005
-0.000179664
5.27875e-05
0.000237521
0.000381627
0.00049162
0.000573222
0.000631388
0.000670356
0.000693717
0.000704491
0.000705209
0.000697986
0.000684578
0.000666438
0.000644768
0.000620553
0.000594598
0.000567558
0.00053996
0.000512228
0.000484695
0.000457624
0.000431216
0.000405622
0.000380952
0.000357285
0.000334669
0.000313132
0.000292685
0.000273324
0.000255033
0.000237789
0.000221561
0.000206315
0.00019201
0.000178606
0.000166061
0.000154331
0.000143375
0.000133148
0.000123611
0.000114723
0.000106446
9.8741e-05
9.15733e-05
8.49085e-05
7.87139e-05
7.29587e-05
6.76139e-05
6.26518e-05
5.80465e-05
5.37735e-05
4.981e-05
4.61344e-05
4.27267e-05
3.95679e-05
3.66407e-05
3.39286e-05
3.14162e-05
2.90893e-05
2.69347e-05
2.49397e-05
2.3093e-05
2.13837e-05
1.9802e-05
1.83387e-05
1.69851e-05
1.57333e-05
1.45761e-05
1.35064e-05
1.25179e-05
1.16048e-05
1.07617e-05
9.98346e-06
9.2655e-06
8.60357e-06
7.99371e-06
7.43226e-06
6.91584e-06
6.44133e-06
6.0059e-06
5.607e-06
5.2423e-06
4.90964e-06
4.60701e-06
4.33251e-06
4.08453e-06
3.86096e-06
3.66209e-06
3.47971e-06
0.000141435
0.000141261
0.000140586
0.000139274
0.00013738
0.000134765
0.000131261
0.000126612
0.000120506
0.000112587
0.000102427
8.95044e-05
7.31909e-05
5.27406e-05
2.72672e-05
-4.28062e-06
-4.31514e-05
-9.0826e-05
-0.000149055
-0.000219908
-0.000305826
-0.000409677
-0.000534783
-0.000684946
-0.000864454
-0.00107793
-0.00132986
-0.00162359
-0.00195976
-0.00233393
-0.0027332
-0.00313109
-0.00348116
-0.00372287
-0.00383331
-0.00390718
-0.00413638
-0.00465035
-0.00541757
-0.00631822
-0.0072329
-0.00807833
-0.0088452
-0.00958715
-0.0103336
-0.0110651
-0.0117823
-0.0125103
-0.0132412
-0.0139503
-0.0146572
-0.0154259
-0.0163148
-0.0173525
-0.018555
-0.019946
-0.0215484
-0.0233749
-0.0254317
-0.0277217
-0.0302422
-0.0329853
-0.0359366
-0.0390744
-0.042368
-0.0457766
-0.0492482
-0.0527199
-0.0561181
-0.0593617
-0.0623651
-0.0650437
-0.0673196
-0.0691276
-0.0704201
-0.0711701
-0.0713698
-0.0710266
-0.0701555
-0.0687697
-0.0668747
-0.0644711
-0.0615621
-0.0581647
-0.0543278
-0.0501417
-0.0457212
-0.0411855
-0.0366697
-0.0323311
-0.0283012
-0.0246272
-0.0212961
-0.0182992
-0.0156192
-0.0131836
-0.0109264
-0.00888113
-0.00715152
-0.00582557
-0.00492369
-0.0043464
-0.00388527
-0.00337085
-0.00278723
-0.00220208
-0.00165942
-0.001175
-0.00075856
-0.000411826
-0.000128763
9.8468e-05
0.000277629
0.00041625
0.000521108
0.000598051
0.000652083
0.000687445
0.000707697
0.000715816
0.000714286
0.00070517
0.000690177
0.000670719
0.000647957
0.000622843
0.000596152
0.000568513
0.000540432
0.000512312
0.000484474
0.000457163
0.000430571
0.000404839
0.00038007
0.000356333
0.000333673
0.000312112
0.000291657
0.000272301
0.000254026
0.000236805
0.000220607
0.000205394
0.000191126
0.000177761
0.000165256
0.000153567
0.00014265
0.000132464
0.000122965
0.000114115
0.000105874
9.82047e-05
9.10706e-05
8.44378e-05
7.82737e-05
7.25474e-05
6.72299e-05
6.22936e-05
5.77126e-05
5.34625e-05
4.95205e-05
4.5865e-05
4.24761e-05
3.9335e-05
3.64242e-05
3.37274e-05
3.12293e-05
2.89158e-05
2.67735e-05
2.47902e-05
2.29542e-05
2.12549e-05
1.96825e-05
1.82278e-05
1.68823e-05
1.5638e-05
1.44877e-05
1.34243e-05
1.24418e-05
1.15341e-05
1.0696e-05
9.92252e-06
9.20893e-06
8.55102e-06
7.94486e-06
7.38682e-06
6.87352e-06
6.40188e-06
5.96909e-06
5.57261e-06
5.21012e-06
4.87948e-06
4.5787e-06
4.30588e-06
4.05941e-06
3.83721e-06
3.63956e-06
3.45829e-06
0.000142026
0.000141884
0.000141287
0.000140104
0.000138389
0.000136005
0.000132792
0.000128501
0.000122832
0.00011544
0.000105912
9.37404e-05
7.83177e-05
5.8919e-05
3.46821e-05
4.5823e-06
-3.26015e-05
-7.83245e-05
-0.000134315
-0.000202629
-0.000285719
-0.000386499
-0.000508388
-0.000655375
-0.000832079
-0.00104368
-0.00129546
-0.0015918
-0.00193451
-0.0023202
-0.00273627
-0.00315419
-0.00351911
-0.0037516
-0.00381134
-0.00380907
-0.00398694
-0.00450545
-0.00531761
-0.00627413
-0.00723323
-0.00809552
-0.008856
-0.00959117
-0.010338
-0.0110652
-0.0117728
-0.0124961
-0.0132211
-0.013909
-0.0145804
-0.0153121
-0.0161716
-0.0171855
-0.0183663
-0.019739
-0.021329
-0.0231488
-0.0252044
-0.0274989
-0.0300305
-0.0327918
-0.0357693
-0.0389421
-0.0422801
-0.0457426
-0.0492773
-0.0528197
-0.0562941
-0.0596158
-0.0626954
-0.0654437
-0.0677787
-0.0696318
-0.0709538
-0.0717181
-0.0719197
-0.0715702
-0.0706889
-0.0692915
-0.0673825
-0.0649582
-0.0620149
-0.0585621
-0.0546457
-0.0503615
-0.0458313
-0.0411782
-0.0365467
-0.032114
-0.0280276
-0.0243291
-0.0209897
-0.0179995
-0.0153419
-0.0129226