/*--------------------------------*- C++ -*----------------------------------*\
| =========                 |                                                 |
| \\      /  F ield         | OpenFOAM: The Open Source CFD Toolbox           |
|  \\    /   O peration     | Version:  v2006                                 |
|   \\  /    A nd           | Website:  www.openfoam.com                      |
|    \\/     M anipulation  |                                                 |
\*---------------------------------------------------------------------------*/
FoamFile
{
    version     2.0;
    format      ascii;
    class       volVectorField;
    location    "0";
    object      U;
}
// * * * * * * * * * * * * * * * * * * * * * * * * * * * * * * * * * * * * * //

dimensions      [0 1 -1 0 0 0 0];


internalField   nonuniform List<vector> 
20000
(
(1 -1.05608e-10 0)
(1 -2.97704e-10 0)
(1 -5.45646e-10 0)
(1 -9.08237e-10 0)
(1 -1.38457e-09 0)
(1 -1.9819e-09 0)
(1 -2.74055e-09 0)
(1 -3.70198e-09 0)
(1 -4.90828e-09 0)
(1 -6.43629e-09 0)
(1 -8.41448e-09 0)
(1 -1.09899e-08 0)
(1 -1.42648e-08 0)
(1 -1.8251e-08 0)
(1 -2.28712e-08 0)
(1 -2.80035e-08 0)
(1 -3.35329e-08 0)
(1 -3.93817e-08 0)
(1 -4.5513e-08 0)
(1 -5.19025e-08 0)
(1 -5.84678e-08 0)
(1 -6.49862e-08 0)
(1 -7.10081e-08 0)
(1 -7.5731e-08 0)
(1 -7.80588e-08 0)
(1 -7.67496e-08 0)
(1.00001 -7.03787e-08 0)
(1.00001 -5.81117e-08 0)
(1.00001 -4.11411e-08 0)
(1.00001 -2.28613e-08 0)
(1.00001 -8.56374e-09 0)
(1.00001 -4.41619e-09 0)
(1.00001 -1.5486e-08 0)
(1.00001 -4.27502e-08 0)
(1.00001 -8.10212e-08 0)
(1.00001 -1.20885e-07 0)
(1.00001 -1.50559e-07 0)
(1.00001 -1.45071e-07 0)
(1.00001 -6.11801e-08 0)
(1.00001 7.71821e-08 0)
(1.00001 1.9078e-07 0)
(1.00001 2.56605e-07 0)
(1.00001 2.86509e-07 0)
(1.00001 2.96462e-07 0)
(1.00001 2.929e-07 0)
(1 2.76294e-07 0)
(1 2.45951e-07 0)
(1 2.03064e-07 0)
(1 1.51318e-07 0)
(1 9.53797e-08 0)
(0.999999 3.97858e-08 0)
(0.999998 -1.00059e-08 0)
(0.999997 -4.81777e-08 0)
(0.999997 -7.32607e-08 0)
(0.999997 -8.6693e-08 0)
(0.999997 -8.71996e-08 0)
(0.999997 -9.18529e-08 0)
(0.999998 -1.10916e-07 0)
(0.999998 -1.433e-07 0)
(1 -1.84002e-07 0)
(1 -2.27452e-07 0)
(1 -2.66338e-07 0)
(1 -2.88999e-07 0)
(1.00001 -2.82063e-07 0)
(1.00001 -2.36563e-07 0)
(1.00001 -1.47229e-07 0)
(1.00001 -1.32774e-08 0)
(1.00001 1.54752e-07 0)
(1.00001 3.33878e-07 0)
(1.00001 4.95463e-07 0)
(1.00001 6.01983e-07 0)
(1.00001 6.64313e-07 0)
(1.00001 6.96805e-07 0)
(1.00001 7.07873e-07 0)
(1.00001 6.97479e-07 0)
(1.00001 6.661e-07 0)
(1 6.16314e-07 0)
(0.999999 5.50275e-07 0)
(0.999996 4.70218e-07 0)
(0.999992 3.7894e-07 0)
(0.999989 2.7915e-07 0)
(0.999985 1.7418e-07 0)
(0.999982 6.95686e-08 0)
(0.999979 -2.74015e-08 0)
(0.999977 -1.1051e-07 0)
(0.999975 -1.75788e-07 0)
(0.999973 -2.19457e-07 0)
(0.999972 -2.38371e-07 0)
(0.999972 -2.3527e-07 0)
(0.999972 -2.19858e-07 0)
(0.999972 -1.88135e-07 0)
(0.999972 -1.62638e-07 0)
(0.999973 -1.5551e-07 0)
(0.999973 -1.68014e-07 0)
(0.999974 -1.95607e-07 0)
(0.999976 -2.32905e-07 0)
(0.999977 -2.72848e-07 0)
(0.999979 -3.05092e-07 0)
(0.999981 -3.18313e-07 0)
(0.999984 -3.05429e-07 0)
(0.999985 -2.67903e-07 0)
(0.999987 -2.15962e-07 0)
(0.999988 -1.63959e-07 0)
(0.999989 -1.23514e-07 0)
(0.99999 -9.923e-08 0)
(0.999991 -8.93633e-08 0)
(0.999991 -8.91715e-08 0)
(0.999992 -9.36735e-08 0)
(0.999992 -9.89392e-08 0)
(0.999993 -1.02495e-07 0)
(0.999994 -1.03227e-07 0)
(0.999995 -1.01001e-07 0)
(0.999995 -9.62452e-08 0)
(0.999996 -8.96334e-08 0)
(0.999996 -8.18732e-08 0)
(0.999997 -7.35865e-08 0)
(0.999997 -6.52611e-08 0)
(0.999998 -5.72442e-08 0)
(0.999998 -4.97593e-08 0)
(0.999998 -4.29303e-08 0)
(0.999999 -3.68083e-08 0)
(0.999999 -3.13938e-08 0)
(0.999999 -2.6655e-08 0)
(0.999999 -2.25415e-08 0)
(0.999999 -1.89942e-08 0)
(1 -1.59509e-08 0)
(1 -1.3351e-08 0)
(1 -1.11377e-08 0)
(1 -9.25916e-09 0)
(1 -7.66878e-09 0)
(1 -6.3255e-09 0)
(1 -5.19345e-09 0)
(1 -4.24143e-09 0)
(1 -3.44241e-09 0)
(1 -2.77327e-09 0)
(1 -2.21412e-09 0)
(1 -1.74797e-09 0)
(1 -1.36279e-09 0)
(1 -1.04814e-09 0)
(1 -7.84275e-10 0)
(1 -5.40742e-10 0)
(1 -2.74558e-10 0)
(1 2.2558e-11 0)
(1 2.72492e-10 0)
(1 3.9506e-10 0)
(1 4.2629e-10 0)
(1 4.11699e-10 0)
(1 3.81086e-10 0)
(1 3.47618e-10 0)
(1 3.15478e-10 0)
(1 2.85842e-10 0)
(1 2.58936e-10 0)
(1 2.34661e-10 0)
(1 2.12814e-10 0)
(1 1.9317e-10 0)
(1 1.75493e-10 0)
(1 1.59579e-10 0)
(1 1.45243e-10 0)
(1 1.32305e-10 0)
(1 1.2062e-10 0)
(1 1.10056e-10 0)
(1 1.00492e-10 0)
(1 9.18238e-11 0)
(1 8.39552e-11 0)
(1 7.67996e-11 0)
(1 7.02873e-11 0)
(1 6.43514e-11 0)
(1 5.8937e-11 0)
(1 5.3995e-11 0)
(1 4.9474e-11 0)
(1 4.53358e-11 0)
(1 4.1541e-11 0)
(1 3.80548e-11 0)
(1 3.48491e-11 0)
(1 3.1899e-11 0)
(1 2.91769e-11 0)
(1 2.6663e-11 0)
(1 2.43412e-11 0)
(1 2.219e-11 0)
(1 2.01948e-11 0)
(1 1.83376e-11 0)
(1 1.66036e-11 0)
(1 1.49829e-11 0)
(1 1.34621e-11 0)
(1 1.20324e-11 0)
(1 1.06853e-11 0)
(1 9.40879e-12 0)
(1 8.19498e-12 0)
(1 7.03487e-12 0)
(1 5.91932e-12 0)
(1 4.84315e-12 0)
(1 3.79937e-12 0)
(1 2.7772e-12 0)
(1 1.77194e-12 0)
(1 7.76798e-13 0)
(1 -2.12212e-13 0)
(1 -1.26296e-12 0)
(1 -2.162e-12 0)
(1 -4.42996e-12 0)
(1 -3.56291e-12 0)
(1 -3.19634e-10 0)
(1 -8.94645e-10 0)
(1 -1.63322e-09 0)
(1 -2.71966e-09 0)
(1 -4.14846e-09 0)
(1 -5.93945e-09 0)
(1 -8.21361e-09 0)
(1 -1.10955e-08 0)
(1 -1.47114e-08 0)
(1 -1.92918e-08 0)
(1 -2.52219e-08 0)
(1 -3.29425e-08 0)
(1 -4.27609e-08 0)
(1 -5.47123e-08 0)
(1 -6.85653e-08 0)
(1 -8.39528e-08 0)
(1 -1.00533e-07 0)
(1 -1.18086e-07 0)
(1 -1.36509e-07 0)
(1 -1.55698e-07 0)
(1 -1.75367e-07 0)
(1 -1.94835e-07 0)
(1 -2.12804e-07 0)
(1 -2.2714e-07 0)
(1 -2.34834e-07 0)
(1 -2.32126e-07 0)
(1.00001 -2.15005e-07 0)
(1.00001 -1.81039e-07 0)
(1.00001 -1.32105e-07 0)
(1.00001 -7.64054e-08 0)
(1.00001 -2.94931e-08 0)
(1.00001 -1.17982e-08 0)
(1.00001 -4.14241e-08 0)
(1.00001 -1.23617e-07 0)
(1.00001 -2.41835e-07 0)
(1.00001 -3.59205e-07 0)
(1.00001 -4.31972e-07 0)
(1.00001 -4.21504e-07 0)
(1.00001 -3.04534e-07 0)
(1.00001 -1.28799e-07 0)
(1.00001 3.44562e-08 0)
(1.00001 1.81719e-07 0)
(1.00001 2.94922e-07 0)
(1.00001 3.84319e-07 0)
(1.00001 4.58843e-07 0)
(1.00001 5.20414e-07 0)
(1.00001 5.67726e-07 0)
(1.00001 5.97164e-07 0)
(1.00001 6.03056e-07 0)
(1.00001 5.80263e-07 -9.91274e-41)
(1.00001 5.28202e-07 -1.06355e-40)
(1 4.52441e-07 0)
(1 3.60417e-07 0)
(1 2.55914e-07 0)
(0.999999 1.42222e-07 0)
(0.999998 2.70336e-08 0)
(0.999998 -9.90308e-08 0)
(0.999998 -2.36547e-07 0)
(0.999999 -3.79091e-07 0)
(1 -5.19776e-07 0)
(1 -6.52649e-07 0)
(1 -7.71502e-07 0)
(1 -8.68528e-07 0)
(1.00001 -9.36061e-07 0)
(1.00001 -9.68456e-07 0)
(1.00001 -9.59693e-07 0)
(1.00001 -9.04418e-07 0)
(1.00002 -8.02334e-07 0)
(1.00002 -6.60492e-07 0)
(1.00003 -4.90853e-07 0)
(1.00003 -3.1684e-07 0)
(1.00003 -1.26029e-07 0)
(1.00004 8.835e-08 0)
(1.00004 3.21153e-07 0)
(1.00004 5.84179e-07 0)
(1.00004 8.54311e-07 0)
(1.00004 1.11861e-06 0)
(1.00004 1.36741e-06 0)
(1.00003 1.58632e-06 0)
(1.00003 1.75823e-06 0)
(1.00002 1.86707e-06 0)
(1.00002 1.90214e-06 0)
(1.00001 1.86093e-06 0)
(1 1.74811e-06 0)
(0.999998 1.57287e-06 0)
(0.999992 1.34801e-06 0)
(0.999986 1.09163e-06 0)
(0.999982 8.23416e-07 0)
(0.999978 5.59095e-07 0)
(0.999975 3.11302e-07 0)
(0.999974 1.03932e-07 0)
(0.999973 -7.27432e-08 0)
(0.999973 -2.31489e-07 0)
(0.999974 -3.78568e-07 0)
(0.999975 -5.21684e-07 0)
(0.999976 -6.65613e-07 0)
(0.999977 -8.02491e-07 0)
(0.999979 -9.08392e-07 0)
(0.999981 -9.52824e-07 0)
(0.999984 -9.162e-07 0)
(0.999986 -8.0388e-07 0)
(0.999987 -6.47401e-07 0)
(0.999988 -4.90621e-07 0)
(0.999989 -3.68896e-07 0)
(0.99999 -2.9611e-07 0)
(0.999991 -2.66851e-07 0)
(0.999991 -2.66698e-07 0)
(0.999992 -2.80584e-07 0)
(0.999992 -2.96662e-07 0)
(0.999993 -3.07501e-07 0)
(0.999994 -3.09778e-07 0)
(0.999995 -3.03116e-07 0)
(0.999995 -2.8883e-07 0)
(0.999996 -2.6896e-07 0)
(0.999996 -2.45643e-07 0)
(0.999997 -2.2075e-07 0)
(0.999997 -1.95749e-07 0)
(0.999998 -1.71682e-07 0)
(0.999998 -1.49218e-07 0)
(0.999998 -1.28727e-07 0)
(0.999999 -1.10361e-07 0)
(0.999999 -9.41208e-08 0)
(0.999999 -7.99095e-08 0)
(0.999999 -6.75753e-08 0)
(0.999999 -5.69397e-08 0)
(1 -4.7816e-08 0)
(1 -4.00222e-08 0)
(1 -3.33874e-08 0)
(1 -2.77559e-08 0)
(1 -2.29882e-08 0)
(1 -1.89612e-08 0)
(1 -1.55671e-08 0)
(1 -1.27126e-08 0)
(1 -1.0317e-08 0)
(1 -8.31101e-09 0)
(1 -6.63519e-09 0)
(1 -5.23883e-09 0)
(1 -4.07963e-09 0)
(1 -3.12049e-09 0)
(1 -2.32362e-09 0)
(1 -1.65259e-09 0)
(1 -1.06663e-09 0)
(1 -5.51608e-10 0)
(1 -1.43641e-10 0)
(1 1.31834e-10 0)
(1 3.18823e-10 0)
(1 4.51735e-10 0)
(1 5.45933e-10 0)
(1 6.13093e-10 0)
(1 6.59472e-10 0)
(1 6.89025e-10 0)
(1 7.0494e-10 0)
(1 7.09847e-10 0)
(1 7.05955e-10 0)
(1 6.95139e-10 0)
(1 6.78945e-10 0)
(1 6.58672e-10 0)
(1 6.3541e-10 0)
(1 6.10025e-10 0)
(1 5.83248e-10 0)
(1 5.55673e-10 0)
(1 5.27764e-10 0)
(1 4.99895e-10 0)
(1 4.72359e-10 0)
(1 4.45383e-10 0)
(1 4.19147e-10 0)
(1 3.9378e-10 0)
(1 3.69376e-10 0)
(1 3.46e-10 0)
(1 3.23681e-10 0)
(1 3.02441e-10 0)
(1 2.8228e-10 0)
(1 2.63184e-10 0)
(1 2.45136e-10 0)
(1 2.28111e-10 0)
(1 2.12069e-10 0)
(1 1.96974e-10 0)
(1 1.82789e-10 0)
(1 1.69463e-10 0)
(1 1.56957e-10 0)
(1 1.45224e-10 0)
(1 1.34213e-10 0)
(1 1.23888e-10 0)
(1 1.14204e-10 0)
(1 1.05118e-10 0)
(1 9.65918e-11 0)
(1 8.85818e-11 0)
(1 8.10513e-11 0)
(1 7.3963e-11 0)
(1 6.72785e-11 0)
(1 6.09669e-11 0)
(1 5.49966e-11 0)
(1 4.93299e-11 0)
(1 4.39392e-11 0)
(1 3.87989e-11 0)
(1 3.3872e-11 0)
(1 2.9112e-11 0)
(1 2.44978e-11 0)
(1 1.94961e-11 0)
(1 1.55076e-11 0)
(1 -5.3418e-10 0)
(1 -1.48915e-09 0)
(1 -2.71422e-09 0)
(1 -4.52167e-09 0)
(1 -6.89943e-09 0)
(1 -9.87934e-09 0)
(1 -1.3663e-08 0)
(1 -1.8458e-08 0)
(1 -2.44744e-08 0)
(1 -3.20962e-08 0)
(1 -4.19647e-08 0)
(1 -5.48139e-08 0)
(1 -7.11559e-08 0)
(1 -9.10502e-08 0)
(1 -1.14113e-07 0)
(1 -1.39735e-07 0)
(1 -1.67352e-07 0)
(1 -1.96608e-07 0)
(1 -2.27335e-07 0)
(1 -2.5936e-07 0)
(1 -2.92215e-07 0)
(1 -3.24783e-07 0)
(1 -3.54941e-07 0)
(1 -3.79252e-07 0)
(1 -3.92719e-07 0)
(1 -3.8892e-07 0)
(1.00001 -3.61254e-07 0)
(1.00001 -3.05504e-07 0)
(1.00001 -2.23718e-07 0)
(1.00001 -1.28868e-07 0)
(1.00001 -4.72185e-08 0)
(1.00001 -1.43518e-08 0)
(1.00001 -6.25502e-08 0)
(1.00001 -2.01753e-07 0)
(1.00001 -4.03107e-07 0)
(1.00001 -6.00201e-07 0)
(1.00001 -7.17185e-07 0)
(1.00001 -7.1231e-07 0)
(1.00001 -6.01926e-07 0)
(1.00001 -4.25514e-07 0)
(1.00001 -2.12907e-07 0)
(1.00001 1.40786e-08 0)
(1.00001 2.21957e-07 0)
(1.00001 4.09556e-07 0)
(1.00001 5.84403e-07 0)
(1.00001 7.49725e-07 0)
(1.00001 9.02241e-07 0)
(1.00001 1.03049e-06 0)
(1.00001 1.11629e-06 0)
(1 1.14306e-06 0)
(1 1.10469e-06 0)
(1 1.00534e-06 0)
(0.999999 8.52906e-07 0)
(0.999999 6.56242e-07 0)
(0.999998 4.25597e-07 0)
(0.999998 1.71124e-07 0)
(0.999997 -9.44576e-08 0)
(0.999998 -3.58913e-07 0)
(0.999998 -6.14518e-07 0)
(0.999999 -8.56335e-07 0)
(1 -1.08031e-06 0)
(1 -1.28307e-06 0)
(1 -1.46228e-06 0)
(1.00001 -1.61535e-06 0)
(1.00001 -1.73719e-06 0)
(1.00001 -1.82115e-06 0)
(1.00001 -1.86008e-06 0)
(1.00002 -1.84458e-06 0)
(1.00002 -1.76233e-06 0)
(1.00002 -1.601e-06 0)
(1.00002 -1.34975e-06 0)
(1.00002 -1.01204e-06 0)
(1.00002 -5.96794e-07 0)
(1.00002 -1.1325e-07 0)
(1.00002 4.32647e-07 0)
(1.00002 1.01728e-06 0)
(1.00002 1.61672e-06 0)
(1.00002 2.20286e-06 0)
(1.00001 2.74102e-06 0)
(1.00001 3.19481e-06 0)
(1.00001 3.53168e-06 0)
(1 3.72742e-06 0)
(0.999997 3.76887e-06 0)
(0.999992 3.65492e-06 0)
(0.999987 3.39645e-06 0)
(0.999983 3.01489e-06 0)
(0.99998 2.5389e-06 0)
(0.999977 2.00177e-06 0)
(0.999975 1.44298e-06 0)
(0.999973 9.06938e-07 0)
(0.999973 4.27047e-07 0)
(0.999972 2.17419e-08 0)
(0.999973 -3.12356e-07 0)
(0.999973 -5.94708e-07 0)
(0.999974 -8.51996e-07 0)
(0.999976 -1.10201e-06 0)
(0.999977 -1.33674e-06 0)
(0.999979 -1.51798e-06 0)
(0.999981 -1.59466e-06 0)
(0.999984 -1.53352e-06 0)
(0.999986 -1.34369e-06 0)
(0.999987 -1.07908e-06 0)
(0.999988 -8.14598e-07 0)
(0.999989 -6.10327e-07 0)
(0.99999 -4.89324e-07 0)
(0.999991 -4.41778e-07 0)
(0.999991 -4.42921e-07 0)
(0.999992 -4.67226e-07 0)
(0.999992 -4.94787e-07 0)
(0.999993 -5.13227e-07 0)
(0.999994 -5.17107e-07 0)
(0.999995 -5.05912e-07 0)
(0.999995 -4.81923e-07 0)
(0.999996 -4.48609e-07 0)
(0.999996 -4.09567e-07 0)
(0.999997 -3.67936e-07 0)
(0.999997 -3.26163e-07 0)
(0.999998 -2.85984e-07 0)
(0.999998 -2.48504e-07 0)
(0.999998 -2.14336e-07 0)
(0.999999 -1.83726e-07 0)
(0.999999 -1.56667e-07 0)
(0.999999 -1.32996e-07 0)
(0.999999 -1.12457e-07 0)
(0.999999 -9.47491e-08 0)
(1 -7.95612e-08 0)
(1 -6.65886e-08 0)
(1 -5.55462e-08 0)
(1 -4.61743e-08 0)
(1 -3.82403e-08 0)
(1 -3.15392e-08 0)
(1 -2.58916e-08 0)
(1 -2.1142e-08 0)
(1 -1.71562e-08 0)
(1 -1.38187e-08 0)
(1 -1.10308e-08 0)
(1 -8.70802e-09 0)
(1 -6.77726e-09 0)
(1 -5.1764e-09 0)
(1 -3.85605e-09 0)
(1 -2.77892e-09 0)
(1 -1.9181e-09 0)
(1 -1.24396e-09 0)
(1 -7.0366e-10 0)
(1 -2.47095e-10 0)
(1 1.35318e-10 0)
(1 4.4671e-10 0)
(1 6.90507e-10 0)
(1 8.76172e-10 0)
(1 1.01322e-09 0)
(1 1.11018e-09 0)
(1 1.17443e-09 0)
(1 1.21215e-09 0)
(1 1.22853e-09 0)
(1 1.2279e-09 0)
(1 1.21385e-09 0)
(1 1.18935e-09 0)
(1 1.15689e-09 0)
(1 1.1185e-09 0)
(1 1.07584e-09 0)
(1 1.0303e-09 0)
(1 9.82965e-10 0)
(1 9.34735e-10 0)
(1 8.86322e-10 0)
(1 8.38293e-10 0)
(1 7.91097e-10 0)
(1 7.45074e-10 0)
(1 7.00473e-10 0)
(1 6.57484e-10 0)
(1 6.16227e-10 0)
(1 5.76784e-10 0)
(1 5.39203e-10 0)
(1 5.03497e-10 0)
(1 4.69655e-10 0)
(1 4.3765e-10 0)
(1 4.07436e-10 0)
(1 3.78955e-10 0)
(1 3.52147e-10 0)
(1 3.26935e-10 0)
(1 3.0325e-10 0)
(1 2.81018e-10 0)
(1 2.60154e-10 0)
(1 2.40587e-10 0)
(1 2.2224e-10 0)
(1 2.05036e-10 0)
(1 1.88901e-10 0)
(1 1.73763e-10 0)
(1 1.59552e-10 0)
(1 1.46203e-10 0)
(1 1.33648e-10 0)
(1 1.21826e-10 0)
(1 1.1068e-10 0)
(1 1.00149e-10 0)
(1 9.01784e-11 0)
(1 8.07216e-11 0)
(1 7.17098e-11 0)
(1 6.31594e-11 0)
(1 5.46884e-11 0)
(1 4.80256e-11 0)
(1 3.64069e-11 0)
(1 -7.45364e-10 0)
(1 -2.07716e-09 0)
(1 -3.78708e-09 0)
(1 -6.31036e-09 0)
(1 -9.62978e-09 0)
(1 -1.37902e-08 0)
(1 -1.90732e-08 0)
(1 -2.57688e-08 0)
(1 -3.41707e-08 0)
(1 -4.48155e-08 0)
(1 -5.85999e-08 0)
(1 -7.65502e-08 0)
(1 -9.93826e-08 0)
(1 -1.27182e-07 0)
(1 -1.59416e-07 0)
(1 -1.95238e-07 0)
(1 -2.33868e-07 0)
(1 -2.74818e-07 0)
(1 -3.17867e-07 0)
(1 -3.62807e-07 0)
(1 -4.09019e-07 0)
(1 -4.54969e-07 0)
(1 -4.97704e-07 0)
(1 -5.32362e-07 0)
(1 -5.51839e-07 0)
(1 -5.47025e-07 0)
(1.00001 -5.08322e-07 0)
(1.00001 -4.29263e-07 0)
(1.00001 -3.12555e-07 0)
(1.00001 -1.76753e-07 0)
(1.00001 -5.92386e-08 0)
(1.00001 -1.08504e-08 0)
(1.00001 -7.8312e-08 0)
(1.00001 -2.76599e-07 0)
(1.00001 -5.65179e-07 0)
(1.00001 -8.50381e-07 0)
(1.00001 -1.0246e-06 0)
(1.00001 -1.0203e-06 0)
(1.00001 -8.38059e-07 0)
(1.00001 -5.30955e-07 0)
(1.00001 -1.79544e-07 0)
(1.00001 1.45408e-07 0)
(1.00001 4.3048e-07 0)
(1.00001 6.81654e-07 0)
(1.00001 9.10293e-07 0)
(1.00001 1.12084e-06 0)
(1.00001 1.30808e-06 0)
(1.00001 1.45703e-06 0)
(1.00001 1.54542e-06 0)
(1 1.55368e-06 0)
(1 1.47571e-06 0)
(1 1.31923e-06 0)
(0.999999 1.09839e-06 0)
(0.999998 8.27277e-07 0)
(0.999998 5.18023e-07 0)
(0.999997 1.81498e-07 0)
(0.999997 -1.68855e-07 0)
(0.999998 -5.23078e-07 0)
(0.999998 -8.72331e-07 0)
(0.999999 -1.20806e-06 0)
(1 -1.52208e-06 0)
(1 -1.80611e-06 0)
(1 -2.05072e-06 0)
(1.00001 -2.24507e-06 0)
(1.00001 -2.37822e-06 0)
(1.00001 -2.44045e-06 0)
(1.00001 -2.42323e-06 0)
(1.00002 -2.3199e-06 0)
(1.00002 -2.12589e-06 0)
(1.00002 -1.83957e-06 0)
(1.00002 -1.45955e-06 0)
(1.00002 -9.89723e-07 0)
(1.00002 -4.33286e-07 0)
(1.00002 2.04968e-07 0)
(1.00002 9.00975e-07 0)
(1.00002 1.64023e-06 0)
(1.00002 2.39443e-06 0)
(1.00002 3.12494e-06 0)
(1.00001 3.78808e-06 0)
(1.00001 4.33898e-06 0)
(1.00001 4.73623e-06 0)
(1 4.9478e-06 0)
(0.999997 4.95699e-06 0)
(0.999992 4.76532e-06 0)
(0.999987 4.39044e-06 0)
(0.999983 3.86186e-06 0)
(0.99998 3.21682e-06 0)
(0.999977 2.50094e-06 0)
(0.999975 1.76834e-06 0)
(0.999973 1.07427e-06 0)
(0.999973 4.58614e-07 0)
(0.999972 -5.98753e-08 0)
(0.999973 -4.89116e-07 0)
(0.999973 -8.59469e-07 0)
(0.999974 -1.20627e-06 0)
(0.999976 -1.5515e-06 0)
(0.999977 -1.88146e-06 0)
(0.999979 -2.13923e-06 0)
(0.999981 -2.24925e-06 0)
(0.999984 -2.16204e-06 0)
(0.999986 -1.89002e-06 0)
(0.999987 -1.51114e-06 0)
(0.999989 -1.13402e-06 0)
(0.999989 -8.45133e-07 0)
(0.99999 -6.76459e-07 0)
(0.999991 -6.12524e-07 0)
(0.999991 -6.17079e-07 0)
(0.999992 -6.53521e-07 0)
(0.999992 -6.93663e-07 0)
(0.999993 -7.20214e-07 0)
(0.999994 -7.25772e-07 0)
(0.999995 -7.09859e-07 0)
(0.999995 -6.7587e-07 0)
(0.999996 -6.28795e-07 0)
(0.999996 -5.73747e-07 0)
(0.999997 -5.15155e-07 0)
(0.999997 -4.56451e-07 0)
(0.999998 -4.00055e-07 0)
(0.999998 -3.47502e-07 0)
(0.999998 -2.99632e-07 0)
(0.999999 -2.56774e-07 0)
(0.999999 -2.1891e-07 0)
(0.999999 -1.85801e-07 0)
(0.999999 -1.57083e-07 0)
(0.999999 -1.3233e-07 0)
(1 -1.11105e-07 0)
(1 -9.29791e-08 0)
(1 -7.75524e-08 0)
(1 -6.4461e-08 0)
(1 -5.33794e-08 0)
(1 -4.40206e-08 0)
(1 -3.61338e-08 0)
(1 -2.95016e-08 0)
(1 -2.39361e-08 0)
(1 -1.92762e-08 0)
(1 -1.53839e-08 0)
(1 -1.21409e-08 0)
(1 -9.44705e-09 0)
(1 -7.21703e-09 0)
(1 -5.37743e-09 0)
(1 -3.86318e-09 0)
(1 -2.61919e-09 0)
(1 -1.59906e-09 0)
(1 -7.68829e-10 0)
(1 -1.07634e-10 0)
(1 4.06351e-10 0)
(1 8.0024e-10 0)
(1 1.09972e-09 0)
(1 1.32268e-09 0)
(1 1.48338e-09 0)
(1 1.59353e-09 0)
(1 1.66275e-09 0)
(1 1.69898e-09 0)
(1 1.7088e-09 0)
(1 1.69769e-09 0)
(1 1.67019e-09 0)
(1 1.63003e-09 0)
(1 1.58034e-09 0)
(1 1.52368e-09 0)
(1 1.46213e-09 0)
(1 1.3974e-09 0)
(1 1.33086e-09 0)
(1 1.26361e-09 0)
(1 1.19655e-09 0)
(1 1.13036e-09 0)
(1 1.06559e-09 0)
(1 1.00264e-09 0)
(1 9.41818e-10 0)
(1 8.83333e-10 0)
(1 8.27321e-10 0)
(1 7.73867e-10 0)
(1 7.23014e-10 0)
(1 6.74763e-10 0)
(1 6.29082e-10 0)
(1 5.85922e-10 0)
(1 5.45211e-10 0)
(1 5.06864e-10 0)
(1 4.7079e-10 0)
(1 4.36885e-10 0)
(1 4.05045e-10 0)
(1 3.75168e-10 0)
(1 3.47139e-10 0)
(1 3.20853e-10 0)
(1 2.96208e-10 0)
(1 2.73097e-10 0)
(1 2.51419e-10 0)
(1 2.31076e-10 0)
(1 2.11973e-10 0)
(1 1.94019e-10 0)
(1 1.77125e-10 0)
(1 1.61203e-10 0)
(1 1.46179e-10 0)
(1 1.31971e-10 0)
(1 1.18503e-10 0)
(1 1.05707e-10 0)
(1 9.34984e-11 0)
(1 8.18734e-11 0)
(1 7.04618e-11 0)
(1 6.09334e-11 0)
(1 4.49363e-11 0)
(1 -9.54151e-10 0)
(1 -2.6586e-09 0)
(1 -4.8473e-09 0)
(1 -8.07854e-09 0)
(1 -1.23304e-08 0)
(1 -1.766e-08 0)
(1 -2.44285e-08 0)
(1 -3.30073e-08 0)
(1 -4.37736e-08 0)
(1 -5.74159e-08 0)
(1 -7.50848e-08 0)
(1 -9.80973e-08 0)
(1 -1.27374e-07 0)
(1 -1.63026e-07 0)
(1 -2.04376e-07 0)
(1 -2.50348e-07 0)
(1 -2.99955e-07 0)
(1 -3.52592e-07 0)
(1 -4.08007e-07 0)
(1 -4.65962e-07 0)
(1 -5.25702e-07 0)
(1 -5.85309e-07 0)
(1 -6.41049e-07 0)
(1 -6.86732e-07 0)
(1 -7.13217e-07 0)
(1 -7.08539e-07 0)
(1.00001 -6.5975e-07 0)
(1.00001 -5.57698e-07 0)
(1.00001 -4.04967e-07 0)
(1.00001 -2.249e-07 0)
(1.00001 -6.64149e-08 0)
(1.00001 2.41234e-09 0)
(1.00001 -8.24014e-08 0)
(1.00001 -3.43326e-07 0)
(1.00001 -7.27724e-07 0)
(1.00001 -1.10915e-06 0)
(1.00001 -1.34079e-06 0)
(1.00001 -1.33256e-06 0)
(1.00001 -1.09295e-06 0)
(1.00001 -7.04544e-07 0)
(1.00001 -2.66591e-07 0)
(1.00001 1.4755e-07 0)
(1.00001 5.1292e-07 0)
(1.00001 8.36043e-07 0)
(1.00001 1.13301e-06 0)
(1.00001 1.41039e-06 0)
(1.00001 1.66218e-06 0)
(1.00001 1.86882e-06 0)
(1.00001 1.99901e-06 0)
(1 2.02392e-06 0)
(1 1.93365e-06 0)
(1 1.73865e-06 0)
(0.999999 1.45764e-06 0)
(0.999998 1.10778e-06 0)
(0.999998 7.04152e-07 0)
(0.999997 2.62956e-07 0)
(0.999997 -1.97711e-07 0)
(0.999998 -6.62246e-07 0)
(0.999998 -1.1175e-06 0)
(0.999999 -1.55233e-06 0)
(1 -1.95711e-06 0)
(1 -2.32287e-06 0)
(1 -2.64061e-06 0)
(1.00001 -2.90081e-06 0)
(1.00001 -3.09281e-06 0)
(1.00001 -3.20434e-06 0)
(1.00001 -3.22209e-06 0)
(1.00002 -3.1326e-06 0)
(1.00002 -2.92436e-06 0)
(1.00002 -2.58908e-06 0)
(1.00002 -2.12064e-06 0)
(1.00002 -1.51959e-06 0)
(1.00002 -7.91955e-07 0)
(1.00002 4.76146e-08 0)
(1.00002 9.80703e-07 0)
(1.00002 1.97854e-06 0)
(1.00002 3.00055e-06 0)
(1.00002 3.99669e-06 0)
(1.00001 4.90849e-06 0)
(1.00001 5.67321e-06 0)
(1.00001 6.23216e-06 0)
(1 6.54082e-06 0)
(0.999997 6.57696e-06 0)
(0.999992 6.34254e-06 0)
(0.999987 5.86007e-06 0)
(0.999983 5.1677e-06 0)
(0.999979 4.31621e-06 0)
(0.999976 3.36754e-06 0)
(0.999974 2.39302e-06 0)
(0.999973 1.46623e-06 0)
(0.999972 6.45526e-07 0)
(0.999972 -4.2163e-08 0)
(0.999973 -6.09079e-07 0)
(0.999973 -1.09352e-06 0)
(0.999974 -1.54432e-06 0)
(0.999975 -1.99457e-06 0)
(0.999977 -2.42871e-06 0)
(0.999979 -2.77106e-06 0)
(0.999981 -2.91921e-06 0)
(0.999984 -2.80526e-06 0)
(0.999986 -2.44499e-06 0)
(0.999987 -1.94327e-06 0)
(0.999989 -1.44653e-06 0)
(0.99999 -1.07011e-06 0)
(0.99999 -8.54624e-07 0)
(0.999991 -7.7707e-07 0)
(0.999991 -7.88095e-07 0)
(0.999992 -8.39152e-07 0)
(0.999992 -8.93462e-07 0)
(0.999993 -9.28868e-07 0)
(0.999994 -9.36231e-07 0)
(0.999995 -9.15365e-07 0)
(0.999995 -8.70971e-07 0)
(0.999996 -8.09702e-07 0)
(0.999996 -7.38262e-07 0)
(0.999997 -6.62404e-07 0)
(0.999997 -5.86551e-07 0)
(0.999998 -5.13796e-07 0)
(0.999998 -4.4609e-07 0)
(0.999998 -3.84485e-07 0)
(0.999999 -3.29379e-07 0)
(0.999999 -2.80729e-07 0)
(0.999999 -2.38213e-07 0)
(0.999999 -2.01353e-07 0)
(0.999999 -1.69595e-07 0)
(1 -1.42371e-07 0)
(1 -1.19127e-07 0)
(1 -9.93488e-08 0)
(1 -8.25671e-08 0)
(1 -6.83637e-08 0)
(1 -5.63698e-08 0)
(1 -4.62632e-08 0)
(1 -3.7765e-08 0)
(1 -3.06344e-08 0)
(1 -2.46645e-08 0)
(1 -1.96784e-08 0)
(1 -1.55248e-08 0)
(1 -1.20742e-08 0)
(1 -9.21638e-09 0)
(1 -6.85784e-09 0)
(1 -4.92088e-09 0)
(1 -3.34135e-09 0)
(1 -2.06369e-09 0)
(1 -1.037e-09 0)
(1 -2.13748e-10 0)
(1 4.42415e-10 0)
(1 9.58888e-10 0)
(1 1.3577e-09 0)
(1 1.65817e-09 0)
(1 1.87742e-09 0)
(1 2.02996e-09 0)
(1 2.12808e-09 0)
(1 2.1821e-09 0)
(1 2.20071e-09 0)
(1 2.19113e-09 0)
(1 2.1594e-09 0)
(1 2.11052e-09 0)
(1 2.04865e-09 0)
(1 1.97721e-09 0)
(1 1.89898e-09 0)
(1 1.81627e-09 0)
(1 1.73091e-09 0)
(1 1.64438e-09 0)
(1 1.55789e-09 0)
(1 1.47237e-09 0)
(1 1.38854e-09 0)
(1 1.30698e-09 0)
(1 1.22809e-09 0)
(1 1.15215e-09 0)
(1 1.07938e-09 0)
(1 1.00988e-09 0)
(1 9.43725e-10 0)
(1 8.80924e-10 0)
(1 8.21444e-10 0)
(1 7.65225e-10 0)
(1 7.1218e-10 0)
(1 6.62202e-10 0)
(1 6.15174e-10 0)
(1 5.70966e-10 0)
(1 5.29444e-10 0)
(1 4.90474e-10 0)
(1 4.53913e-10 0)
(1 4.19624e-10 0)
(1 3.87472e-10 0)
(1 3.57322e-10 0)
(1 3.29045e-10 0)
(1 3.02509e-10 0)
(1 2.77593e-10 0)
(1 2.5418e-10 0)
(1 2.32152e-10 0)
(1 2.11399e-10 0)
(1 1.9182e-10 0)
(1 1.73312e-10 0)
(1 1.55775e-10 0)
(1 1.3912e-10 0)
(1 1.23238e-10 0)
(1 1.08131e-10 0)
(1 9.32966e-11 0)
(1 8.07898e-11 0)
(1 6.02201e-11 0)
(1 -1.15995e-09 0)
(1 -3.23098e-09 0)
(1 -5.89106e-09 0)
(1 -9.82074e-09 0)
(1 -1.49931e-08 0)
(1 -2.14775e-08 0)
(1 -2.97135e-08 0)
(1 -4.01533e-08 0)
(1 -5.32568e-08 0)
(1 -6.98637e-08 0)
(1 -9.13767e-08 0)
(1 -1.19402e-07 0)
(1 -1.55062e-07 0)
(1 -1.98499e-07 0)
(1 -2.48895e-07 0)
(1 -3.04952e-07 0)
(1 -3.6549e-07 0)
(1 -4.298e-07 0)
(1 -4.97614e-07 0)
(1 -5.68703e-07 0)
(1 -6.42224e-07 0)
(1 -7.15929e-07 0)
(1 -7.85344e-07 0)
(1 -8.4294e-07 0)
(1 -8.7742e-07 0)
(1 -8.7373e-07 0)
(1.00001 -8.15178e-07 0)
(1.00001 -6.89295e-07 0)
(1.00001 -4.97987e-07 0)
(1.00001 -2.69329e-07 0)
(1.00001 -6.46384e-08 0)
(1.00001 2.8872e-08 0)
(1.00001 -7.2709e-08 0)
(1.00001 -4.01281e-07 0)
(1.00001 -8.91347e-07 0)
(1.00001 -1.38017e-06 0)
(1.00001 -1.67799e-06 0)
(1.00001 -1.6692e-06 0)
(1.00001 -1.36463e-06 0)
(1.00001 -8.6981e-07 0)
(1.00001 -3.15277e-07 0)
(1.00001 2.01729e-07 0)
(1.00001 6.49962e-07 0)
(1.00001 1.04358e-06 0)
(1.00001 1.40549e-06 0)
(1.00001 1.7446e-06 0)
(1.00001 2.05348e-06 0)
(1.00001 2.30723e-06 0)
(1.00001 2.46551e-06 0)
(1 2.49169e-06 0)
(1 2.37474e-06 0)
(1 2.12974e-06 0)
(0.999999 1.78086e-06 0)
(0.999998 1.34919e-06 0)
(0.999998 8.53401e-07 0)
(0.999997 3.13562e-07 0)
(0.999997 -2.49028e-07 0)
(0.999997 -8.16011e-07 0)
(0.999998 -1.37221e-06 0)
(0.999999 -1.90461e-06 0)
(1 -2.40153e-06 0)
(1 -2.85162e-06 0)
(1 -3.24264e-06 0)
(1.00001 -3.56061e-06 0)
(1.00001 -3.7899e-06 0)
(1.00001 -3.9143e-06 0)
(1.00001 -3.91834e-06 0)
(1.00002 -3.78853e-06 0)
(1.00002 -3.51394e-06 0)
(1.00002 -3.08636e-06 0)
(1.00002 -2.50107e-06 0)
(1.00002 -1.76019e-06 0)
(1.00002 -8.71582e-07 0)
(1.00002 1.50721e-07 0)
(1.00002 1.28234e-06 0)
(1.00002 2.48997e-06 0)
(1.00002 3.72631e-06 0)
(1.00002 4.92991e-06 0)
(1.00002 6.02847e-06 0)
(1.00001 6.9456e-06 0)
(1.00001 7.61092e-06 0)
(1 7.97147e-06 0)
(0.999997 8.00095e-06 0)
(0.999992 7.70202e-06 0)
(0.999987 7.10261e-06 0)
(0.999983 6.2502e-06 0)
(0.999979 5.2067e-06 0)
(0.999976 4.04599e-06 0)
(0.999974 2.85475e-06 0)
(0.999973 1.72529e-06 0)
(0.999972 7.3096e-07 0)
(0.999972 -9.68671e-08 0)
(0.999972 -7.74519e-07 0)
(0.999973 -1.35263e-06 0)
(0.999974 -1.89515e-06 0)
(0.999975 -2.44654e-06 0)
(0.999977 -2.98806e-06 0)
(0.999979 -3.42137e-06 0)
(0.999981 -3.61184e-06 0)
(0.999984 -3.46915e-06 0)
(0.999986 -3.01192e-06 0)
(0.999988 -2.37556e-06 0)
(0.999989 -1.74978e-06 0)
(0.99999 -1.28211e-06 0)
(0.99999 -1.02116e-06 0)
(0.999991 -9.33778e-07 0)
(0.999991 -9.55335e-07 0)
(0.999992 -1.02423e-06 0)
(0.999992 -1.09471e-06 0)
(0.999993 -1.13987e-06 0)
(0.999994 -1.14914e-06 0)
(0.999995 -1.12296e-06 0)
(0.999995 -1.0676e-06 0)
(0.999996 -9.91552e-07 0)
(0.999996 -9.0321e-07 0)
(0.999997 -8.09687e-07 0)
(0.999997 -7.164e-07 0)
(0.999998 -6.27106e-07 0)
(0.999998 -5.44146e-07 0)
(0.999998 -4.68764e-07 0)
(0.999999 -4.01409e-07 0)
(0.999999 -3.41999e-07 0)
(0.999999 -2.90118e-07 0)
(0.999999 -2.45164e-07 0)
(0.999999 -2.06451e-07 0)
(1 -1.73276e-07 0)
(1 -1.44961e-07 0)
(1 -1.20873e-07 0)
(1 -1.00439e-07 0)
(1 -8.31474e-08 0)
(1 -6.85473e-08 0)
(1 -5.62464e-08 0)
(1 -4.59042e-08 0)
(1 -3.72272e-08 0)
(1 -2.99635e-08 0)
(1 -2.38973e-08 0)
(1 -1.88443e-08 0)
(1 -1.46473e-08 0)
(1 -1.11725e-08 0)
(1 -8.30678e-09 0)
(1 -5.95338e-09 0)
(1 -4.03019e-09 0)
(1 -2.46725e-09 0)
(1 -1.20454e-09 0)
(1 -1.92212e-10 0)
(1 6.08984e-10 0)
(1 1.23323e-09 0)
(1 1.7112e-09 0)
(1 2.06883e-09 0)
(1 2.32783e-09 0)
(1 2.50628e-09 0)
(1 2.61931e-09 0)
(1 2.67955e-09 0)
(1 2.69748e-09 0)
(1 2.68184e-09 0)
(1 2.6399e-09 0)
(1 2.57765e-09 0)
(1 2.50005e-09 0)
(1 2.41122e-09 0)
(1 2.31447e-09 0)
(1 2.21254e-09 0)
(1 2.10763e-09 0)
(1 2.00151e-09 0)
(1 1.8956e-09 0)
(1 1.791e-09 0)
(1 1.6886e-09 0)
(1 1.58904e-09 0)
(1 1.4928e-09 0)
(1 1.40023e-09 0)
(1 1.31156e-09 0)
(1 1.22693e-09 0)
(1 1.14639e-09 0)
(1 1.06997e-09 0)
(1 9.97604e-10 0)
(1 9.29226e-10 0)
(1 8.64723e-10 0)
(1 8.03961e-10 0)
(1 7.46796e-10 0)
(1 6.93067e-10 0)
(1 6.42609e-10 0)
(1 5.95257e-10 0)
(1 5.50838e-10 0)
(1 5.09183e-10 0)
(1 4.70126e-10 0)
(1 4.33503e-10 0)
(1 3.99154e-10 0)
(1 3.66923e-10 0)
(1 3.36658e-10 0)
(1 3.08218e-10 0)
(1 2.81461e-10 0)
(1 2.56251e-10 0)
(1 2.32464e-10 0)
(1 2.09978e-10 0)
(1 1.88669e-10 0)
(1 1.68428e-10 0)
(1 1.49123e-10 0)
(1 1.30757e-10 0)
(1 1.12711e-10 0)
(1 9.74541e-11 0)
(1 7.24696e-11 0)
(1 -1.36207e-09 0)
(1 -3.79235e-09 0)
(1 -6.91488e-09 0)
(1 -1.15313e-08 0)
(1 -1.76098e-08 0)
(1 -2.52312e-08 0)
(1 -3.49127e-08 0)
(1 -4.71865e-08 0)
(1 -6.25942e-08 0)
(1 -8.21255e-08 0)
(1 -1.07433e-07 0)
(1 -1.4041e-07 0)
(1 -1.82381e-07 0)
(1 -2.3352e-07 0)
(1 -2.92873e-07 0)
(1 -3.58934e-07 0)
(1 -4.30341e-07 0)
(1 -5.06303e-07 0)
(1 -5.86566e-07 0)
(1 -6.70941e-07 0)
(1 -7.58534e-07 0)
(1 -8.46812e-07 0)
(1 -9.30616e-07 0)
(1 -1.00114e-06 0)
(1 -1.04496e-06 0)
(1 -1.04374e-06 0)
(1.00001 -9.76522e-07 0)
(1.00001 -8.26632e-07 0)
(1.00001 -5.9427e-07 0)
(1.00001 -3.11795e-07 0)
(1.00001 -5.36307e-08 0)
(1.00001 7.13818e-08 0)
(1.00001 -4.45789e-08 0)
(1.00001 -4.46333e-07 0)
(1.00001 -1.05537e-06 0)
(1.00001 -1.66701e-06 0)
(1.00001 -2.04012e-06 0)
(1.00001 -2.02885e-06 0)
(1.00001 -1.64992e-06 0)
(1.00001 -1.04128e-06 0)
(1.00001 -3.69616e-07 0)
(1.00001 2.46997e-07 0)
(1.00001 7.7444e-07 0)
(1.00001 1.23574e-06 0)
(1.00001 1.66178e-06 0)
(1.00001 2.06405e-06 0)
(1.00001 2.43421e-06 0)
(1.00001 2.74215e-06 0)
(1.00001 2.93703e-06 0)
(1 2.97211e-06 4.73747e-41)
(1 2.8338e-06 5.05022e-41)
(1 2.54177e-06 0)
(0.999999 2.12632e-06 0)
(0.999998 1.61267e-06 0)
(0.999997 1.02265e-06 0)
(0.999997 3.80246e-07 0)
(0.999997 -2.89307e-07 0)
(0.999997 -9.6391e-07 0)
(0.999998 -1.62525e-06 0)
(0.999999 -2.25766e-06 0)
(1 -2.84739e-06 0)
(1 -3.38131e-06 0)
(1 -3.8455e-06 0)
(1.00001 -4.2244e-06 0)
(1.00001 -4.50084e-06 0)
(1.00001 -4.65655e-06 0)
(1.00001 -4.67299e-06 0)
(1.00002 -4.53255e-06 0)
(1.00002 -4.21999e-06 0)
(1.00002 -3.72415e-06 0)
(1.00002 -3.03913e-06 0)
(1.00002 -2.16607e-06 0)
(1.00002 -1.11322e-06 0)
(1.00002 1.02587e-07 0)
(1.00002 1.45295e-06 0)
(1.00002 2.89768e-06 0)
(1.00002 4.38038e-06 0)
(1.00002 5.82777e-06 0)
(1.00002 7.15327e-06 0)
(1.00001 8.26436e-06 0)
(1.00001 9.07447e-06 0)
(1 9.51765e-06 0)
(0.999996 9.56089e-06 0)
(0.999991 9.20742e-06 0)
(0.999987 8.49155e-06 0)
(0.999982 7.4708e-06 0)
(0.999979 6.21902e-06 0)
(0.999976 4.82441e-06 0)
(0.999974 3.39242e-06 0)
(0.999972 2.03726e-06 0)
(0.999972 8.50444e-07 0)
(0.999972 -1.30264e-07 0)
(0.999972 -9.2663e-07 0)
(0.999973 -1.6023e-06 0)
(0.999974 -2.23912e-06 0)
(0.999975 -2.89697e-06 0)
(0.999977 -3.55574e-06 0)
(0.999979 -4.09147e-06 0)
(0.999981 -4.33155e-06 0)
(0.999984 -4.15852e-06 0)
(0.999986 -3.59354e-06 0)
(0.999988 -2.80753e-06 0)
(0.999989 -2.04077e-06 0)
(0.99999 -1.47735e-06 0)
(0.99999 -1.17291e-06 0)
(0.999991 -1.08068e-06 0)
(0.999991 -1.11794e-06 0)
(0.999992 -1.20869e-06 0)
(0.999992 -1.29783e-06 0)
(0.999993 -1.35381e-06 0)
(0.999994 -1.36507e-06 0)
(0.999995 -1.3331e-06 0)
(0.999995 -1.26608e-06 0)
(0.999996 -1.17453e-06 0)
(0.999996 -1.06866e-06 0)
(0.999997 -9.56985e-07 0)
(0.999997 -8.45922e-07 0)
(0.999998 -7.3987e-07 0)
(0.999998 -6.41538e-07 0)
(0.999998 -5.52333e-07 0)
(0.999999 -4.72733e-07 0)
(0.999999 -4.02597e-07 0)
(0.999999 -3.41402e-07 0)
(0.999999 -2.88414e-07 0)
(0.999999 -2.42808e-07 0)
(1 -2.03744e-07 0)
(1 -1.70414e-07 0)
(1 -1.42068e-07 0)
(1 -1.18028e-07 0)
(1 -9.76879e-08 0)
(1 -8.05173e-08 0)
(1 -6.60526e-08 0)
(1 -5.38928e-08 0)
(1 -4.36922e-08 0)
(1 -3.51541e-08 0)
(1 -2.80245e-08 0)
(1 -2.20866e-08 0)
(1 -1.71554e-08 0)
(1 -1.30734e-08 0)
(1 -9.70673e-09 0)
(1 -6.94202e-09 0)
(1 -4.68377e-09 0)
(1 -2.85098e-09 0)
(1 -1.37365e-09 0)
(1 -1.92076e-10 0)
(1 7.42916e-10 0)
(1 1.47294e-09 0)
(1 2.03321e-09 0)
(1 2.45318e-09 0)