/*--------------------------------*- C++ -*----------------------------------*\
| =========                 |                                                 |
| \\      /  F ield         | OpenFOAM: The Open Source CFD Toolbox           |
|  \\    /   O peration     | Version:  v2006                                 |
|   \\  /    A nd           | Website:  www.openfoam.com                      |
|    \\/     M anipulation  |                                                 |
\*---------------------------------------------------------------------------*/
FoamFile
{
    version     2.0;
    format      ascii;
    class       volScalarField;
    location    "6.5";
    object      r;
}
// * * * * * * * * * * * * * * * * * * * * * * * * * * * * * * * * * * * * * //

dimensions      [1 2 0 0 0 0 0];


internalField   nonuniform List<scalar> 
350
(
-0.0167881
0.0261601
-0.0306231
0.0415985
-0.0507536
0.0647145
-0.0788043
0.0966154
-0.115497
0.137115
-0.159763
0.183835
-0.207924
0.231573
-0.253396
0.272458
-0.287438
0.297347
-0.301216
0.298474
-0.288864
0.272618
-0.250407
0.22336
-0.192952
0.160896
-0.128968
0.0988324
-0.0718798
0.0490945
-0.0309823
0.0175665
-0.00844878
0.00292441
-0.000127628
-0.000820594
0.000688819
-5.45453e-05
-0.000725722
0.00150024
-0.00227432
0.00315032
-0.00427356
0.00579632
-0.0078637
0.0106171
-0.0142065
0.018803
-0.0246033
0.0318253
-0.0406954
0.0514294
-0.0642116
0.0791698
-0.0963501
0.115688
-0.13698
0.159858
-0.183769
0.20797
-0.231541
0.253418
-0.272443
0.287447
-0.297341
0.30122
-0.298471
0.288865
-0.272616
0.250406
-0.223357
0.192949
-0.160891
0.12896
-0.0988198
0.0718604
-0.0490645
0.0309364
-0.0174966
0.00834319
-0.0027661
-0.000107923
0.00116835
-0.00119809
0.000794245
-0.00033968
2.11671e-05
0.000120775
-0.000129315
7.46179e-05
-1.51029e-05
-1.91788e-05
2.49624e-05
-1.41696e-05
1.05401e-06
5.90564e-06
-5.74255e-06
2.02205e-06
1.2043e-06
-2.07419e-06
1.063e-06
2.58088e-07
-7.89201e-07
4.62703e-07
8.67985e-08
-3.29168e-07
1.9902e-07
5.46386e-08
-1.68501e-07
8.12073e-08
6.95514e-08
-8.1953e-08
-2.41213e-09
3.5114e-08
-1.30931e-08
1.97867e-08
1.81052e-08
-6.1976e-08
-3.88922e-08
7.18713e-08
8.8156e-08
-2.7613e-08
-1.45599e-07
-1.20505e-07
9.86123e-08
3.23921e-07
2.02455e-07
-3.33724e-07
-7.6754e-07
-3.77723e-07
8.8299e-07
1.91816e-06
1.10563e-06
-2.01777e-06
-5.29432e-06
-4.48878e-06
3.27399e-06
1.49334e-05
1.97855e-05
4.54945e-06
-3.45817e-05
-7.87128e-05
-8.27872e-05
6.92041e-06
0.000210854
0.000460955
0.000560568
0.000199707
-0.000934223
-0.00292654
-0.00529297
-0.00656925
-0.00391109
0.00719821
0.033038
0.081471
0.161472
0.282397
0.453077
0.680857
0.970707
1.32455
1.74085
2.21462
2.73764
3.29912
3.88646
4.48615
5.08471
5.6695
6.22939
6.75525
7.24021
7.67972
8.07146
8.41508
8.71192
8.96459
9.17662
9.35215
9.49553
9.61118
9.7033
9.77581
9.83221
9.87561
9.90865
9.93355
9.95212
9.96579
9.97568
9.9827
9.98762
9.9912
9.99414
9.99708
10.0003
10.0035
10.0054
10.0031
9.9923
9.96663
9.91832
9.83839
9.71752
9.54687
9.31911
9.02927
8.67544
8.25914
7.78538
7.26236
6.70088
6.11354
5.51385
4.91529
4.3305
3.77061
3.24475
2.75979
2.32028
1.92854
1.58492
1.28808
1.03541
0.823374
0.647853
0.504468
0.388824
0.2967
0.224187
0.16777
0.124369
0.091344
0.0664813
0.0479564
0.0342923
0.0243121
0.0170922
0.0119176
0.00824268
0.00565587
0.00385077
0.0026018
0.00174479
0.00116148
0.000767602
0.000503705
0.000328234
0.000212429
0.000136558
8.72057e-05
5.53279e-05
3.4879e-05
2.18499e-05
1.36034e-05
8.41781e-06
5.17785e-06
3.16621e-06
1.9249e-06
1.16358e-06
6.99429e-07
4.18105e-07
2.48576e-07
1.46994e-07
8.64651e-08
5.05963e-08
2.94554e-08
1.70613e-08
9.83312e-09
5.63941e-09
3.21861e-09
1.82821e-09
1.03355e-09
5.81592e-10
3.2577e-10
1.8165e-10
1.00836e-10
5.57292e-11
3.0666e-11
1.68021e-11
9.16704e-12
4.9805e-12
2.69476e-12
1.45209e-12
7.79311e-13
4.1658e-13
2.21807e-13
1.17641e-13
6.21549e-14
3.27145e-14
1.71543e-14
8.96177e-15
4.66466e-15
2.41919e-15
1.25015e-15
6.43744e-16
3.30324e-16
1.68912e-16
8.60775e-17
4.37164e-17
2.21279e-17
1.11633e-17
5.61331e-18
2.81339e-18
1.40554e-18
6.9996e-19
3.47482e-19
1.71963e-19
8.48392e-20
4.17281e-20
2.04619e-20
1.00036e-20
4.8762e-21
2.36988e-21
1.14843e-21
5.54923e-22
2.67373e-22
1.28461e-22
6.15473e-23
2.94061e-23
1.40111e-23
6.65762e-24
3.15495e-24
1.49108e-24
7.02842e-25
3.30423e-25
1.54935e-25
7.2461e-26
3.38023e-26
1.57284e-26
7.30006e-27
3.37974e-27
1.56086e-27
7.19081e-28
3.30471e-28
1.51509e-28
6.92951e-29
3.1618e-29
1.43926e-29
6.53629e-30
2.96151e-30
1.33874e-30
6.03785e-31
2.71716e-31
1.21957e-31
5.4721e-32
2.4264e-32
1.12636e-32
4.01833e-33
)
;

boundaryField
{
    right
    {
        type            zeroGradient;
    }
    left
    {
        type            inletOutlet;
        inletValue      uniform 0;
        value           uniform 0;
    }
    top
    {
        type            zeroGradient;
    }
    bottom
    {
        type            zeroGradient;
    }
    empty
    {
        type            empty;
    }
}


// ************************************************************************* //
