/*--------------------------------*- C++ -*----------------------------------*\
| =========                 |                                                 |
| \\      /  F ield         | OpenFOAM: The Open Source CFD Toolbox           |
|  \\    /   O peration     | Version:  v2006                                 |
|   \\  /    A nd           | Website:  www.openfoam.com                      |
|    \\/     M anipulation  |                                                 |
\*---------------------------------------------------------------------------*/
FoamFile
{
    version     2.0;
    format      ascii;
    class       volScalarField;
    location    "0";
    object      p;
}
// * * * * * * * * * * * * * * * * * * * * * * * * * * * * * * * * * * * * * //

dimensions      [1 -1 -2 0 0 0 0];


internalField   nonuniform List<scalar> 
67500
(
2.47459
1.71684
1.16351
1.5293
1.33884
1.42427
1.09526
0.956515
0.841655
0.877932
0.933814
0.932595
1.09949
1.33911
1.47779
1.12015
0.970133
1.00829
1.35015
1.52709
1.18694
0.0647911
1.14226
0.742935
-0.543881
-0.69532
0.412576
0.631144
1.37578
1.74755
1.91936
1.67529
1.23203
1.02219
1.01554
0.972081
0.849549
0.699913
0.580688
0.515386
0.483757
0.460079
0.438919
0.428468
0.436838
0.467273
0.515332
0.569452
0.618164
0.653838
0.671947
0.669462
0.646307
0.606612
0.557217
0.504484
0.453326
0.407802
0.371407
0.347274
0.337934
0.343669
0.360855
0.382898
0.402912
0.41553
0.417554
0.408774
0.392397
0.374186
0.360718
0.358494
0.37324
0.410659
0.478363
0.586524
0.704299
0.709053
0.668782
0.629376
0.585761
0.538655
0.492392
0.451106
0.418238
0.395282
0.381641
0.375258
0.373583
0.37477
0.37855
0.386059
0.399109
0.419758
0.450185
0.493334
0.552732
0.628954
0.695236
0.701824
0.681978
0.661883
0.643954
0.629225
0.617126
0.606709
0.598159
0.592567
0.59168
0.59757
0.612457
0.638544
0.677628
0.73043
0.795544
0.86666
0.92143
0.928325
0.901709
0.876099
0.862475
0.86338
0.881423
0.916031
0.964149
1.01939
1.0683
1.10004
1.12441
1.155
1.19457
1.24242
1.29592
1.34859
1.39418
1.43414
1.47486
1.51915
1.56598
1.61296
1.65743
1.69882
1.7385
1.77685
1.81278
1.84509
1.87331
1.89764
1.91813
1.93449
1.94648
1.95413
1.95744
1.95646
1.95138
1.94266
1.9308
1.91627
1.89947
1.88071
1.86013
1.8378
1.81371
1.78782
1.76008
1.73042
1.69874
1.66498
1.62906
1.59097
1.55073
1.5084
1.46415
1.41816
1.3707
1.32204
1.27249
1.22233
1.17188
1.1214
1.07116
1.02139
0.972298
0.924064
0.876846
0.830773
0.785955
0.74248
0.70042
0.659835
0.620771
0.583266
0.547348
0.513039
0.480351
0.449287
0.419843
0.392004
0.365747
0.341039
0.317837
0.296093
0.27575
0.256746
0.239013
0.222481
0.207076
0.192725
0.179352
0.166884
0.155249
0.144378
0.134205
0.124667
0.115707
0.10727
0.0993075
0.0917754
0.0846335
0.0778465
0.071383
0.0652158
0.059321
0.0536781
0.0482696
0.0430805
0.038098
0.0333113
0.0287111
0.0242894
0.0200395
0.0159554
0.0120317
0.00826351
0.0046462
0.00117534
-0.00215344
-0.00534455
-0.00840246
-0.0113318
-0.0141372
-0.0168236
-0.019396
-0.0218593
-0.0242186
-0.026479
-0.0286454
-0.0307224
-0.0327148
-0.0346268
-0.0364623
-0.038225
-0.0399181
-0.0415444
-0.0431063
-0.0446058
-0.0460444
-0.0474235
-0.0487437
-0.0500056
-0.0512094
-0.0523551
-0.0534424
-0.0544709
-0.0554401
-0.0563494
-0.0571982
-0.0579858
-0.0587118
-0.0593757
-0.0599771
-0.060516
-0.0609922
-0.061406
-0.0617579
-0.0620483
-0.0622782
-0.0624486
-0.0625608
-0.0626163
-0.0626167
-0.062564
-0.06246
-0.0623071
-0.0621073
-0.0618632
-0.0615773
-0.0612519
-0.0608897
-0.0604933
-0.0600652
-0.0596081
-0.0591244
-0.0586168
-0.0580876
-0.0575393
-0.0569741
-0.0563943
-0.055802
-0.0551994
-0.0545883
-0.0539707
-0.0533483
-0.0527228
-0.0520958
-0.0514688
-0.0508431
-0.0502201
-0.0496009
-0.0489867
-0.0483786
-0.0477775
-0.0471843
-0.0465998
-0.0460248
-0.04546
-0.0449059
-0.0443633
-0.0438325
-0.0433142
-0.0428086
-0.0423161
-0.0418371
-0.0413718
-0.0409205
-0.0404833
-0.0400603
-0.0396516
-0.0392573
-0.0388772
-0.0385113
-0.0381594
-0.0378213
-0.0374967
-0.0371852
-0.0368864
-0.0365998
-0.0363247
-0.0360606
-0.0358067
-0.0355622
-0.0353262
-0.0350978
-0.034876
-0.0346598
-0.0344481
-0.0342398
-0.034034
-0.0338294
-0.0336252
-0.0334202
-0.0332136
-0.0330045
-0.0327921
-0.0325756
-0.0323545
-0.0321282
-0.0318963
-0.0316586
-0.0314147
-0.0311646
-0.0309081
-0.0306453
-0.0303761
-0.0301007
-0.0298192
-0.0295316
-0.0292382
-0.0289391
-0.0286343
-0.0283241
-0.0280085
-0.0276877
-0.0273618
-0.0270309
-0.026695
-0.0263544
-0.026009
-0.0256589
-0.0253041
-0.0249447
-0.0245806
-0.0242118
-0.023838
-0.0234593
-0.0230754
-0.0226862
-0.0222915
-0.0218914
-0.0214857
-0.0210746
-0.0206583
-0.020237
-0.0198113
-0.0193815
-0.0189483
-0.0185123
-0.0180744
-0.0176353
-0.0171958
-0.0167567
-0.0163188
-0.0158828
-0.0154493
-0.0150191
-0.0145927
-0.0141705
-0.0137531
-0.0133406
-0.0129335
-0.0125319
-0.012136
-0.0117458
-0.0113615
-0.0109829
-0.0106102
-0.0102431
-0.00988158
-0.00952555
-0.00917482
-0.00882923
-0.0084886
-0.00815274
-0.00782145
-0.00749454
-0.0071718
-0.00685303
-0.00653803
-0.0062266
-0.00591853
-0.00561364
-0.00531174
-0.00501264
-0.00471616
-0.00442211
-0.00413035
-0.00384068
-0.00355295
-0.00326701
-0.0029827
-0.00269986
-0.00241836
-0.00213807
-0.00185878
-0.00158056
-0.00130258
-0.00102692
-0.000745035
-0.000480702
-0.000121687
2.41643
1.66826
1.25393
1.26132
1.05258
0.526605
0.469049
0.475346
0.452048
0.42889
0.407078
0.387625
0.377265
0.423239
0.219276
0.228078
0.298113
0.317354
0.306402
0.00228666
-0.471724
-1.11789
-0.685239
-0.535267
-0.181334
0.294547
1.46923
2.07296
1.98135
1.45665
1.79646
1.44052
0.874816
0.693422
0.851513
0.97072
0.955309
0.862908
0.777942
0.717859
0.648542
0.571012
0.515336
0.493321
0.491024
0.494187
0.493464
0.486125
0.481794
0.489497
0.499553
0.493927
0.465797
0.422424
0.377247
0.338938
0.309754
0.288392
0.272416
0.261135
0.256699
0.261082
0.273076
0.288585
0.301968
0.308469
0.307175
0.301277
0.296297
0.296777
0.304979
0.32328
0.354245
0.402372
0.480481
0.63171
0.836513
0.736929
0.651269
0.600043
0.554053
0.512829
0.476103
0.443281
0.414867
0.391182
0.372075
0.356714
0.344021
0.333689
0.326493
0.323346
0.324867
0.330927
0.344281
0.369434
0.412632
0.496398
0.608855
0.599796
0.567505
0.548261
0.534679
0.524761
0.516352
0.507891
0.499672
0.493387
0.491581
0.497028
0.512764
0.54191
0.587321
0.650534
0.731521
0.82938
0.914252
0.911471
0.861
0.823718
0.801836
0.795089
0.807838
0.839669
0.888727
0.951509
1.0085
1.03531
1.05225
1.08098
1.12241
1.17558
1.23735
1.29751
1.34446
1.38166
1.42115
1.4663
1.51515
1.56443
1.60979
1.651
1.69122
1.73121
1.76912
1.80307
1.8325
1.85811
1.88007
1.89785
1.91115
1.92008
1.92464
1.92473
1.92057
1.9127
1.90172
1.88815
1.87243
1.85485
1.83553
1.81449
1.79171
1.76713
1.74068
1.71229
1.68185
1.64929
1.61451
1.57748
1.5382
1.49675
1.45327
1.40797
1.36112
1.31301
1.26395
1.21426
1.16422
1.11414
1.06427
1.01484
0.966081
0.918164
0.871248
0.825463
0.780919
0.737704
0.695889
0.655534
0.616686
0.579383
0.543655
0.509525
0.477007
0.446107
0.416821
0.389137
0.363031
0.338471
0.315417
0.293818
0.273617
0.254753
0.237157
0.220758
0.205482
0.191254
0.177999
0.165643
0.154114
0.143342
0.133261
0.123808
0.114925
0.106559
0.0986613
0.091187
0.0840971
0.0773563
0.0709339
0.0648029
0.0589401
0.0533253
0.0479416
0.0427741
0.0378107
0.0330408
0.0284555
0.0240472
0.0198092
0.015736
0.0118223
0.00806342
0.00445489
0.000992414
-0.00232828
-0.0055115
-0.00856169
-0.0114834
-0.0142814
-0.0169604
-0.0195255
-0.0219818
-0.0243343
-0.0265881
-0.0287482
-0.0308193
-0.0328062
-0.034713
-0.0365439
-0.0383024
-0.0399918
-0.0416149
-0.0431741
-0.0446713
-0.0461082
-0.0474859
-0.0488051
-0.0500663
-0.0512697
-0.0524153
-0.0535027
-0.0545314
-0.0555009
-0.0564106
-0.0572598
-0.0580479
-0.0587742
-0.0594383
-0.0600398
-0.0605786
-0.0610546
-0.061468
-0.0618192
-0.0621088
-0.0623376
-0.0625068
-0.0626175
-0.0626713
-0.0626699
-0.0626151
-0.062509
-0.0623538
-0.0621517
-0.0619052
-0.0616167
-0.0612887
-0.060924
-0.0605249
-0.0600943
-0.0596346
-0.0591485
-0.0586384
-0.0581068
-0.0575562
-0.0569887
-0.0564068
-0.0558125
-0.0552079
-0.054595
-0.0539756
-0.0533515
-0.0527244
-0.0520959
-0.0514675
-0.0508405
-0.0502163
-0.049596
-0.0489807
-0.0483717
-0.0477696
-0.0471756
-0.0465904
-0.0460147
-0.0454492
-0.0448946
-0.0443515
-0.0438202
-0.0433015
-0.0427955
-0.0423027
-0.0418235
-0.041358
-0.0409065
-0.0404691
-0.0400461
-0.0396374
-0.0392431
-0.0388631
-0.0384973
-0.0381457
-0.0378078
-0.0374836
-0.0371725
-0.0368742
-0.0365882
-0.0363138
-0.0360504
-0.0357973
-0.0355536
-0.0353186
-0.0350911
-0.0348703
-0.0346551
-0.0344445
-0.0342373
-0.0340325
-0.033829
-0.0336257
-0.0334217
-0.0332159
-0.0330076
-0.0327958
-0.0325799
-0.0323593
-0.0321334
-0.0319018
-0.0316642
-0.0314204
-0.0311702
-0.0309136
-0.0306506
-0.0303812
-0.0301055
-0.0298236
-0.0295358
-0.029242
-0.0289426
-0.0286377
-0.0283273
-0.0280117
-0.0276909
-0.0273652
-0.0270345
-0.026699
-0.0263588
-0.0260139
-0.0256645
-0.0253105
-0.0249519
-0.0245886
-0.0242207
-0.0238478
-0.0234699
-0.0230867
-0.0226981
-0.0223039
-0.021904
-0.0214984
-0.0210871
-0.0206704
-0.0202485
-0.0198219
-0.0193911
-0.0189568
-0.0185197
-0.0180805
-0.0176401
-0.0171993
-0.016759
-0.0163198
-0.0158827
-0.0154482
-0.0150171
-0.0145898
-0.0141669
-0.0137488
-0.0133359
-0.0129284
-0.0125265
-0.0121303
-0.01174
-0.0113556
-0.010977
-0.0106042
-0.0102372
-0.00987583
-0.00951992
-0.00916934
-0.00882391
-0.00848346
-0.0081478
-0.00781671
-0.00749
-0.00716747
-0.00684891
-0.00653412
-0.00622289
-0.00591502
-0.00561033
-0.00530862
-0.00500971
-0.00471341
-0.00441955
-0.00412796
-0.00383846
-0.0035509
-0.00326511
-0.00298095
-0.00269827
-0.00241692
-0.00213677
-0.00185762
-0.00157954
-0.0013017
-0.00102617
-0.000744427
-0.000480227
-0.0001215
3.36094
2.1724
1.48953
1.12081
0.522607
0.492469
0.471763
0.456112
0.440604
0.419116
0.392587
0.364452
0.347145
0.308457
0.246221
0.256234
0.277376
0.295216
0.298035
0.26989
0.815017
-0.691862
-0.869698
-0.377299
0.550035
1.32103
1.19362
1.30853
1.89809
2.40862
1.63779
-0.136703
-0.133955
0.150461
0.272737
0.345716
0.333035
0.271842
0.279045
0.332984
0.347603
0.316006
0.288137
0.287207
0.306617
0.334816
0.348755
0.330028
0.295663
0.272088
0.263895
0.264176
0.265842
0.265144
0.262981
0.260323
0.257436
0.254283
0.249731
0.243273
0.236939
0.23159
0.224213
0.213037
0.199811
0.187693
0.179289
0.175753
0.176493
0.179194
0.18216
0.185282
0.190842
0.204657
0.236575
0.347569
0.890236
0.560766
0.428952
0.374418
0.315678
0.254518
0.200358
0.159841
0.136579
0.129007
0.132674
0.14136
0.149119
0.153673
0.157721
0.165457
0.182968
0.208048
0.245931
0.30754
0.394855
0.570287
0.851164
0.717279
0.624932
0.574786
0.537404
0.510284
0.488276
0.46851
0.450032
0.434022
0.421737
0.414169
0.412628
0.419407
0.439624
0.476331
0.533812
0.643753
0.805775
0.768413
0.656554
0.597494
0.574116
0.576212
0.605762
0.659578
0.73591
0.838837
0.933609
0.946022
0.942796
0.964298
1.00069
1.05361
1.12364
1.19437
1.2377
1.26365
1.29938
1.34793
1.40492
1.46375
1.51361
1.55529
1.59763
1.64183
1.68406
1.72078
1.75169
1.77921
1.80387
1.82442
1.84033
1.85196
1.8592
1.86153
1.85913
1.85288
1.8436
1.83189
1.81831
1.80314
1.78637
1.76795
1.74781
1.72585
1.70199
1.67614
1.6482
1.61805
1.58556
1.55065
1.51331
1.4736
1.43167
1.38774
1.34211
1.29508
1.24701
1.19821
1.14901
1.0997
1.05055
1.00182
0.953718
0.906428
0.860112
0.8149
0.770902
0.728204
0.686877
0.646979
0.608558
0.571655
0.536303
0.502527
0.470346
0.439769
0.410797
0.383419
0.357614
0.333352
0.310591
0.289282
0.269367
0.250784
0.233462
0.21733
0.202313
0.188334
0.175319
0.16319
0.151876
0.141307
0.131414
0.122137
0.113415
0.105197
0.0974332
0.0900799
0.0830984
0.0764541
0.070117
0.064061
0.0582638
0.0527061
0.0473717
0.0422469
0.0373201
0.0325818
0.0280236
0.0236388
0.0194213
0.0153661
0.0114684
0.00772395
0.00412877
0.000678833
-0.00262986
-0.00580143
-0.00884015
-0.0117505
-0.0145371
-0.0172048
-0.0197586
-0.0222037
-0.0245452
-0.0267883
-0.028938
-0.0309994
-0.032977
-0.0348753
-0.0366984
-0.03845
-0.0401333
-0.0417512
-0.0433061
-0.0447998
-0.046234
-0.0476097
-0.0489276
-0.0501882
-0.0513915
-0.0525373
-0.0536252
-0.0546548
-0.0556253
-0.0565359
-0.0573861
-0.058175
-0.058902
-0.0595665
-0.0601681
-0.0607066
-0.061182
-0.0615944
-0.0619441
-0.0622318
-0.0624583
-0.0626247
-0.0627323
-0.0627826
-0.0627773
-0.0627184
-0.0626079
-0.062448
-0.062241
-0.0619894
-0.0616958
-0.0613627
-0.0609927
-0.0605885
-0.0601526
-0.0596878
-0.0591966
-0.0586816
-0.0581452
-0.0575899
-0.057018
-0.0564317
-0.0558333
-0.0552248
-0.0546081
-0.0539852
-0.0533577
-0.0527275
-0.052096
-0.0514648
-0.0508352
-0.0502086
-0.049586
-0.0489687
-0.0483577
-0.0477539
-0.0471582
-0.0465715
-0.0459944
-0.0454277
-0.0448719
-0.0443277
-0.0437956
-0.043276
-0.0427693
-0.0422759
-0.0417961
-0.0413301
-0.0408783
-0.0404407
-0.0400175
-0.0396088
-0.0392146
-0.0388348
-0.0384694
-0.0381182
-0.0377809
-0.0374574
-0.0371472
-0.03685
-0.0365651
-0.0362921
-0.0360302
-0.0357787
-0.0355368
-0.0353036
-0.0350782
-0.0348594
-0.0346464
-0.0344379
-0.0342329
-0.0340303
-0.0338288
-0.0336276
-0.0334255
-0.0332215
-0.0330147
-0.0328044
-0.0325898
-0.0323703
-0.0321453
-0.0319145
-0.0316775
-0.0314342
-0.0311844
-0.0309281
-0.0306653
-0.0303961
-0.0301206
-0.0298389
-0.0295511
-0.0292574
-0.028958
-0.0286529
-0.0283423
-0.0280263
-0.027705
-0.0273785
-0.0270469
-0.0267103
-0.0263689
-0.0260227
-0.0256718
-0.0253162
-0.0249561
-0.0245914
-0.0242221
-0.023848
-0.023469
-0.0230849
-0.0226955
-0.0223007
-0.0219003
-0.0214942
-0.0210825
-0.0206654
-0.0202432
-0.0198162
-0.0193849
-0.0189501
-0.0185125
-0.0180728
-0.0176319
-0.0171905
-0.0167496
-0.01631
-0.0158724
-0.0154375
-0.015006
-0.0145785
-0.0141554
-0.0137371
-0.0133241
-0.0129165
-0.0125146
-0.0121186
-0.0117284
-0.0113442
-0.0109658
-0.0105933
-0.0102266
-0.00986557
-0.00951001
-0.0091598
-0.00881475
-0.00847469
-0.00813942
-0.00780873
-0.00748242
-0.00716028
-0.00684211
-0.0065277
-0.00621686
-0.00590937
-0.00560504
-0.00530369
-0.00500512
-0.00470916
-0.00441563
-0.00412435
-0.00383516
-0.0035479
-0.00326241
-0.00297854
-0.00269614
-0.00241506
-0.00213517
-0.00185629
-0.00157846
-0.00130088
-0.0010256
-0.000744113
-0.000480101
-0.000121709
3.06004
1.57209
1.5592
1.14342
0.687969
0.53341
0.470607
0.450968
0.452204
0.424224
0.378506
0.337132
0.314304
0.293165
0.282444
0.283898
0.298841
0.308301
0.310646
0.310831
0.868607
0.85576
0.142054
0.172897
-0.462587
1.7133
1.5546
1.30076
2.90284
4.67465
4.67366
0.274815
0.365963
0.337811
0.304527
0.297904
0.305486
0.315265
0.321309
0.323295
0.322597
0.320422
0.317479
0.313804
0.309376
0.304183
0.298287
0.291996
0.285984
0.280966
0.277264
0.275309
0.274502
0.273472
0.271076
0.266957
0.261436
0.255104
0.248392
0.24141
0.234207
0.226784
0.219294
0.212029
0.20504
0.198074
0.191524
0.186544
0.18365
0.182662
0.183418
0.185659
0.19031
0.200935
0.222462
0.250586
0.220772
0.091919
0.117932
0.134491
0.141344
0.144489
0.14625
0.147493
0.148421
0.149184
0.150082
0.151007
0.151235
0.150494
0.149655
0.149627
0.15057
0.151258
0.153848
0.160748
0.187496
0.24753
1.00839
0.508632
0.34408
0.311532
0.294908
0.278527
0.256877
0.22969
0.197091
0.164859
0.13676
0.117548
0.113957
0.127901
0.174222
0.26068
0.391205
0.63379
1.06516
0.829243
0.642151
0.582233
0.525835
0.486791
0.476029
0.486023
0.518793
0.623587
0.793529
0.745681
0.682149
0.689813
0.736565
0.817953
0.934799
1.0563
1.09802
1.10167
1.13371
1.18499
1.24951
1.32025
1.37059
1.40563
1.44838
1.49981
1.55162
1.59457
1.62824
1.65973
1.68974
1.71494
1.73456
1.75013
1.76145
1.76694
1.76684
1.7628
1.75596
1.74701
1.73668
1.72522
1.71238
1.69795
1.68181
1.6638
1.64382
1.62182
1.59767
1.57117
1.54216
1.51048
1.47608
1.43898
1.39936
1.35747
1.31363
1.26822
1.22161
1.17415
1.12619
1.07804
1.02999
0.982293
0.935173
0.888825
0.843411
0.799063
0.755888
0.713969
0.673376
0.634165
0.596386
0.560081
0.525289
0.492041
0.460361
0.430266
0.401761
0.374841
0.349486
0.325669
0.303347
0.282473
0.262987
0.244823
0.227913
0.212181
0.19755
0.183943
0.171281
0.159489
0.148491
0.138217
0.128599
0.119575
0.111086
0.103078
0.0955054
0.0883238
0.0814958
0.0749882
0.0687723
0.0628233
0.0571204
0.0516456
0.046384
0.0413232
0.0364529
0.0317643
0.0272504
0.0229052
0.0187234
0.0147007
0.010833
0.00711666
0.00354805
0.000123573
-0.00316048
-0.00630798
-0.00932304
-0.01221
-0.0149736
-0.0176187
-0.0201502
-0.0225736
-0.024894
-0.0271167
-0.0292471
-0.0312902
-0.0332508
-0.0351334
-0.0369422
-0.038681
-0.0403531
-0.0419612
-0.0435078
-0.0449948
-0.0464236
-0.0477951
-0.0491101
-0.0503687
-0.051571
-0.0527166
-0.0538049
-0.0548353
-0.055807
-0.056719
-0.0575706
-0.0583608
-0.059089
-0.0597543
-0.0603564
-0.0608949
-0.0613696
-0.0617807
-0.0621286
-0.0624138
-0.0626371
-0.0627997
-0.0629029
-0.0629481
-0.0629373
-0.0628723
-0.0627553
-0.0625885
-0.0623744
-0.0621154
-0.0618141
-0.0614733
-0.0610955
-0.0606834
-0.0602398
-0.0597673
-0.0592686
-0.0587462
-0.0582026
-0.0576403
-0.0570617
-0.0564689
-0.0558643
-0.0552498
-0.0546276
-0.0539993
-0.0533668
-0.0527319
-0.052096
-0.0514606
-0.0508271
-0.0501968
-0.0495709
-0.0489505
-0.0483366
-0.0477301
-0.047132
-0.046543
-0.0459638
-0.0453952
-0.0448378
-0.044292
-0.0437585
-0.0432376
-0.0427299
-0.0422355
-0.0417549
-0.0412883
-0.040836
-0.040398
-0.0399746
-0.0395658
-0.0391717
-0.0387922
-0.0384272
-0.0380767
-0.0377403
-0.0374178
-0.0371089
-0.0368132
-0.0365301
-0.036259
-0.0359992
-0.0357501
-0.0355108
-0.0352804
-0.0350579
-0.0348422
-0.0346323
-0.034427
-0.0342252
-0.0340258
-0.0338275
-0.0336292
-0.0334299
-0.0332285
-0.0330241
-0.0328159
-0.032603
-0.0323849
-0.032161
-0.0319309
-0.0316944
-0.0314511
-0.0312011
-0.0309442
-0.0306807
-0.0304106
-0.0301341
-0.0298513
-0.0295625
-0.0292679
-0.0289677
-0.0286621
-0.0283511
-0.0280351
-0.027714
-0.0273881
-0.0270574
-0.0267221
-0.0263822
-0.0260379
-0.0256892
-0.0253362
-0.0249789
-0.0246171
-0.0242507
-0.0238795
-0.0235032
-0.0231215
-0.0227342
-0.0223408
-0.0219412
-0.0215353
-0.021123
-0.0207046
-0.0202802
-0.0198506
-0.0194161
-0.0189777
-0.0185361
-0.0180923
-0.0176472
-0.0172017
-0.0167569
-0.0163134
-0.0158723
-0.0154342
-0.0149998
-0.0145697
-0.0141444
-0.0137243
-0.0133097
-0.0129009
-0.0124981
-0.0121013
-0.0117107
-0.0113262
-0.0109478
-0.0105754
-0.0102088
-0.00984808
-0.00949291
-0.00914316
-0.00879864
-0.00845914
-0.00812445
-0.00779437
-0.00746869
-0.00714718
-0.00682964
-0.00651586
-0.00620563
-0.00589875
-0.00559503
-0.00529426
-0.00499626
-0.00470085
-0.00440786
-0.0041171
-0.00382842
-0.00354166
-0.00325665
-0.00297324
-0.0026913
-0.00241066
-0.00213121
-0.00185275
-0.00157534
-0.00129817
-0.00102329
-0.000742223
-0.000478614
-0.000121103
2.88601
1.40073
1.58929
1.36072
0.796582
0.562954
0.483389
0.437584
0.430507
0.410585
0.357855
0.323222
0.294022
0.271389
0.227791
0.211835
0.268788
0.302022
0.302893
0.234695
1.05552
1.09711
0.994745
0.244033
0.26668
0.250565
0.232252
0.152413
1.85203
1.76565
0.446468
0.28341
0.275114
0.251764
0.251074
0.278247
0.296681
0.308525
0.315235
0.318482
0.319134
0.318256
0.316368
0.31373
0.310269
0.305847
0.300421
0.294104
0.28738
0.281104
0.27656
0.274092
0.273077
0.272083
0.269991
0.266354
0.261285
0.255223
0.248588
0.241455
0.234003
0.226133
0.217904
0.209294
0.200346
0.191675
0.18464
0.180421
0.179165
0.179622
0.180834
0.182818
0.185984
0.191074
0.19837
0.204803
0.195165
0.170354
0.162693
0.160417
0.159455
0.15873
0.157993
0.157292
0.156713
0.156263
0.155992
0.15597
0.156045
0.15586
0.155139
0.153836
0.152572
0.152245
0.152409
0.154812
0.176479
0.195798
0.190733
0.0940289
0.112445
0.124098
0.13065
0.133954
0.13407
0.131242
0.127252
0.124403
0.123929
0.124908
0.124684
0.123413
0.125099
0.133722
0.154582
0.21324
1.52352
0.695848
0.130915
0.0534163
0.0217839
0.00988915
0.0549108
0.143937
0.270503
0.502846
0.927988
0.69195
0.615477
0.612903
0.605436
0.635831
0.740446
0.926006
0.911148
0.832514
0.843183
0.907017
1.00852
1.12839
1.18395
1.20656
1.25494
1.31923
1.38474
1.43131
1.46173
1.4956
1.53291
1.56518
1.59041
1.61292
1.63158
1.64174
1.64405
1.64235
1.63837
1.63286
1.62701
1.62084
1.61347
1.6045
1.59378
1.58103
1.56621
1.54937
1.53033
1.50882
1.48454
1.45724
1.42678
1.39318
1.35661
1.31739
1.27591
1.2326
1.1879
1.14221
1.09589
1.04927
1.00267
0.956337
0.910523
0.865428
0.821218
0.778024
0.735949
0.695072
0.655458
0.617162
0.580233
0.544718
0.510663
0.478108
0.447089
0.417628
0.389741
0.363427
0.338672
0.315448
0.293716
0.273424
0.254513
0.236917
0.220561
0.20537
0.191263
0.178161
0.165984
0.154652
0.14409
0.134225
0.124989
0.116318
0.108153
0.100442
0.093137
0.0861963
0.0795832
0.073266
0.0672175
0.0614149
0.055839
0.0504739
0.0453065
0.0403263
0.0355247
0.0308947
0.0264307
0.0221282
0.0179833
0.0139927
0.0101535
0.0064628
0.00291788
-0.00048423
-0.0037467
-0.00687298
-0.00986691
-0.0127327
-0.0154748
-0.0180982
-0.020608
-0.0230096
-0.0253085
-0.0275103
-0.0296204
-0.0316441
-0.0335865
-0.0354523
-0.0372459
-0.0389712
-0.0406314
-0.0422296
-0.043768
-0.0452484
-0.0466723
-0.0480405
-0.0493534
-0.0506112
-0.0518137
-0.0529602
-0.0540502
-0.0550826
-0.0560566
-0.056971
-0.0578247
-0.0586169
-0.0593465
-0.0600128
-0.0606152
-0.0611533
-0.0616268
-0.0620358
-0.0623807
-0.062662
-0.0628806
-0.0630375
-0.0631343
-0.0631723
-0.0631536
-0.0630801
-0.062954
-0.0627777
-0.0625537
-0.0622845
-0.0619728
-0.0616214
-0.061233
-0.0608103
-0.0603562
-0.0598733
-0.0593644
-0.058832
-0.0582788
-0.0577071
-0.0571195
-0.0565181
-0.0559052
-0.0552828
-0.054653
-0.0540177
-0.0533785
-0.0527373
-0.0520954
-0.0514545
-0.0508159
-0.0501808
-0.0495504
-0.0489258
-0.048308
-0.047698
-0.0470966
-0.0465046
-0.0459228
-0.0453517
-0.0447919
-0.0442442
-0.0437088
-0.0431863
-0.0426771
-0.0421814
-0.0416998
-0.0412323
-0.0407793
-0.0403408
-0.0399171
-0.0395083
-0.0391143
-0.0387352
-0.0383708
-0.0380212
-0.037686
-0.037365
-0.0370579
-0.0367642
-0.0364835
-0.0362151
-0.0359584
-0.0357126
-0.0354769
-0.0352504
-0.0350319
-0.0348205
-0.034615
-0.0344142
-0.0342169
-0.0340218
-0.0338279
-0.0336338
-0.0334384
-0.0332407
-0.0330396
-0.0328343
-0.0326241
-0.0324082
-0.0321862
-0.0319577
-0.0317224
-0.0314802
-0.031231
-0.0309749
-0.0307119
-0.0304423
-0.0301662
-0.0298837
-0.0295952
-0.0293007
-0.0290003
-0.0286943
-0.0283828
-0.0280657
-0.0277433
-0.0274156
-0.0270826
-0.0267447
-0.0264018
-0.0260541
-0.0257018
-0.0253451
-0.0249841
-0.0246189
-0.0242493
-0.0238753
-0.0234966
-0.023113
-0.0227241
-0.0223295
-0.021929
-0.0215224
-0.0211096
-0.0206906
-0.0202658
-0.0198356
-0.0194006
-0.0189615
-0.0185192
-0.0180745
-0.0176286
-0.0171822
-0.0167365
-0.0162922
-0.0158504
-0.0154116
-0.0149766
-0.0145461
-0.0141205
-0.0137002
-0.0132855
-0.0128768
-0.0124741
-0.0120776
-0.0116874
-0.0113033
-0.0109254
-0.0105536
-0.0101878
-0.00982768
-0.00947325
-0.00912426
-0.00878051
-0.0084418
-0.00810792
-0.00777864
-0.00745376
-0.00713305
-0.00681629
-0.00650329
-0.00619382
-0.00588768
-0.00558468
-0.00528462
-0.00498731
-0.00469257
-0.00440023
-0.00411011
-0.00382204
-0.00353587
-0.00325145
-0.00296861
-0.00268722
-0.00240712
-0.0021282
-0.00185026
-0.00157335
-0.00129668
-0.00102229
-0.000741745
-0.000478496
-0.000121613
3.39971
2.52208
1.81693
1.35694
0.682706
0.420712
0.451821
0.417254
0.400079
0.332658
0.316394
0.293856
0.264947
0.270469
0.844576
1.41754
2.46126
1.34125
0.968691
0.635399
0.345704
0.311458
0.311763
0.282741
0.266612
0.237231
0.220621
0.12477
0.840886
0.519209
0.252539
0.250623
0.240238
0.223155
0.235964
0.26588
0.284505
0.297272
0.305976
0.311588
0.314598
0.315503
0.314732
0.312592
0.309284
0.30502
0.300047
0.294624
0.289017
0.283762
0.279338
0.275971
0.273361
0.270731
0.267314
0.262859
0.257469
0.251407
0.245001
0.238576
0.231844
0.224838
0.217558
0.210327
0.203427
0.196884
0.191125
0.186713
0.183929
0.182591
0.182128
0.182282
0.18304
0.184214
0.185068
0.183185
0.174907
0.16639
0.162668
0.160582
0.159378
0.158575
0.157927
0.157385
0.156948
0.156568
0.15626
0.15609
0.155917
0.155385
0.154224
0.152482
0.150741
0.149501
0.148975
0.15067
0.158447
0.168511
0.171841
0.153339
0.146583
0.143574
0.141917
0.140735
0.1396
0.138078
0.136424
0.134763
0.133141
0.131886
0.131092
0.13121
0.132277
0.136537
0.150028
0.175039
0.163286
0.0284479
0.0743538
0.0920971
0.100257
0.106836
0.114041
0.125912
0.13745
0.157186
1.58645
0.386496
-0.00589483
0.0300484
0.098678
0.234506
0.504279
1.01292
0.799274
0.6755
0.70557
0.722612
0.80264
0.983062
0.988416
0.938411
0.972684
1.06157
1.17142
1.22635
1.24869
1.29165
1.34304
1.38259
1.41009
1.4403
1.46912
1.48446
1.48835
1.48942
1.48926
1.48809
1.4883
1.48941
1.48919
1.48729
1.48353
1.47734
1.46895
1.45862
1.44609
1.43096
1.41277
1.39107
1.36562
1.33639
1.30359
1.26762
1.229
1.18827
1.14592
1.10241
1.05812
1.0134
0.968583
0.923953
0.879765
0.836234
0.793533
0.751792
0.711104
0.67154
0.633157
0.596006
0.560135
0.525599
0.492452
0.460749
0.430537
0.401854
0.374726
0.34916
0.325146
0.302659
0.281659
0.262094
0.243901
0.227011
0.211345
0.196825
0.183366
0.170886
0.159301
0.148529
0.138493
0.129119
0.120337
0.112083
0.104299
0.0969337
0.0899406
0.0832796
0.0769161
0.0708206
0.0649684
0.0593391
0.0539158
0.0486851
0.043636
0.03876
0.0340504
0.0295021
0.0251111
0.0208741
0.0167887
0.0128528
0.0090644
0.00542156
0.00192223
-0.00143592
-0.00465556
-0.00773981
-0.0106923
-0.013517
-0.0162185
-0.0188017
-0.0212721
-0.0236352
-0.0258967
-0.0280626
-0.0301384
-0.0321299
-0.0340424
-0.0358807
-0.0376493
-0.0393523
-0.040993
-0.0425744
-0.0440986
-0.0455675
-0.0469823
-0.0483437
-0.0496518
-0.0509067
-0.0521079
-0.0532545
-0.0543456
-0.0553801
-0.0563566
-0.0572739
-0.0581307
-0.0589257
-0.0596578
-0.0603261
-0.0609297
-0.061468
-0.0619408
-0.0623481
-0.0626901
-0.0629673
-0.0631807
-0.0633313
-0.0634206
-0.0634502
-0.063422
-0.0633383
-0.0632011
-0.0630131
-0.0627769
-0.0624951
-0.0621705
-0.0618059
-0.0614043
-0.0609684
-0.0605011
-0.0600053
-0.0594836
-0.0589388
-0.0583734
-0.05779
-0.0571911
-0.0565788
-0.0559555
-0.0553233
-0.0546842
-0.0540399
-0.0533924
-0.0527433
-0.0520941
-0.0514462
-0.0508011
-0.05016
-0.0495241
-0.0488943
-0.0482718
-0.0476574
-0.047052
-0.0464563
-0.045871
-0.0452968
-0.0447343
-0.0441839
-0.0436463
-0.0431217
-0.0426107
-0.0421135
-0.0416305
-0.0411619
-0.040708
-0.0402689
-0.0398449
-0.0394359
-0.039042
-0.0386633
-0.0382997
-0.0379511
-0.0376172
-0.0372979
-0.0369929
-0.0367016
-0.0364238
-0.0361586
-0.0359055
-0.0356637
-0.0354324
-0.0352105
-0.034997
-0.0347908
-0.0345907
-0.0343954
-0.0342036
-0.0340141
-0.0338255
-0.0336365
-0.033446
-0.0332527
-0.0330557
-0.0328539
-0.0326465
-0.032433
-0.0322126
-0.031985
-0.0317501
-0.0315076
-0.0312576
-0.0310002
-0.0307356
-0.0304641
-0.0301859
-0.0299014
-0.0296109
-0.0293147
-0.0290131
-0.0287062
-0.0283944
-0.0280776
-0.0277561
-0.0274299
-0.0270992
-0.0267641
-0.0264247
-0.0260811
-0.0257336
-0.025382
-0.0250266
-0.0246671
-0.0243035
-0.0239352
-0.023562
-0.0231832
-0.0227983
-0.0224067
-0.0220078
-0.0216014
-0.0211872
-0.0207656
-0.0203367
-0.0199012
-0.0194598
-0.0190137
-0.0185638
-0.0181114
-0.0176576
-0.0172035
-0.0167503
-0.0162991
-0.0158508
-0.0154062
-0.014966
-0.014531
-0.0141015
-0.0136779
-0.0132606
-0.0128498
-0.0124455
-0.0120479
-0.0116568
-0.0112724
-0.0108944
-0.0105228
-0.0101573
-0.0097978
-0.00944407
-0.00909591
-0.00875307
-0.00841534
-0.00808248
-0.00775427
-0.00743045
-0.00711082
-0.00679515
-0.00648321
-0.00617479
-0.00586969
-0.0055677
-0.00526863
-0.00497228
-0.00467847
-0.00438703
-0.00409779
-0.00381058
-0.00352524
-0.00324161
-0.00295956
-0.00267893
-0.00239957
-0.00212137
-0.00184414
-0.00156793
-0.00129195
-0.00101822
-0.000738371
-0.000475809
-0.000120451
3.21608
2.18429
1.09082
0.35905
0.12979
0.435924
0.696942
0.558442
0.275831
0.274728
0.282921
0.28215
0.282172
0.298033
0.325068
0.348857
0.353818
0.349162
0.331922
0.356508
0.344968
0.328808
0.315216
0.293572
0.263262
0.221284
0.207076
0.243641
0.269409
0.246704
0.247854
0.251654
0.24272
0.231888
0.242303
0.261469
0.276091
0.288309
0.298238
0.305553
0.310204
0.312432
0.312653
0.311297
0.308703
0.305124
0.300768
0.295858
0.290672
0.285574
0.280887
0.276758
0.273039
0.269334
0.265253
0.260652
0.255576
0.250138
0.244431
0.238436
0.232037
0.22527
0.218487
0.211832
0.205367
0.199394
0.194185
0.190058
0.18716
0.185349
0.184362
0.184016
0.18416
0.184448
0.184053
0.181525
0.175983
0.169811
0.165452
0.162587
0.16068
0.159329
0.158299
0.157474
0.156795
0.15621
0.155667
0.155138
0.154567
0.153839
0.15287
0.151688
0.150468
0.149487
0.149137
0.149697
0.151679
0.153205
0.149236
0.146747
0.145081
0.143214
0.141702
0.140371
0.138955
0.137317
0.13559
0.133899
0.132252
0.130718
0.129398
0.128379
0.12788
0.12902
0.134345
0.144411
0.143156
0.121614
0.118108
0.117049
0.116845
0.117266
0.118183
0.121799
0.13168
0.143297
0.116355
0.0661058
0.0977612
0.117082
0.134886
0.149563
0.139474
1.72569
0.679273
0.0382291
0.121197
0.244791
0.467523
0.973101
0.810983
0.733833
0.789674
0.863329
1.02696
1.03853
0.996695
1.03014
1.10536
1.15905
1.18712
1.23573
1.28549
1.30364
1.30194
1.30284
1.30574
1.3091
1.31819
1.33011
1.33932
1.34636
1.35114
1.35252
1.35166
1.3493
1.34488
1.33778
1.3272
1.31243
1.29308
1.26908
1.24068
1.20846
1.17314
1.13539
1.09581
1.05487
1.01299
0.97053
0.927837
0.885222
0.84297
0.801313
0.760431
0.720447
0.681442
0.643469
0.606572
0.570792
0.536181
0.502801
0.470722
0.440016
0.410753
0.382989
0.356761
0.332088
0.308966
0.28737
0.26726
0.24858
0.231265
0.21524
0.200425
0.186733
0.17408
0.162376
0.151534
0.14147
0.132102
0.123354
0.115155
0.107438
0.100146
0.0932271
0.0866354
0.0803325
0.0742857
0.0684681
0.0628577
0.0574371
0.0521927
0.047114
0.0421933
0.0374252
0.0328058
0.0283326
0.0240041
0.0198194
0.015778
0.0118797
0.00812403
0.00451057
0.00103843
-0.00229371
-0.00548769
-0.00854603
-0.0114719
-0.014269
-0.016942
-0.0194957
-0.0219359
-0.0242682
-0.026499
-0.0286345
-0.0306809
-0.0326442
-0.0345302
-0.0363442
-0.0380909
-0.0397745
-0.0413987
-0.0429662
-0.0444794
-0.0459399
-0.0473487
-0.0487064
-0.050013
-0.051268
-0.0524707
-0.05362
-0.0547147
-0.0557532
-0.0567341
-0.0576557
-0.0585164
-0.0593149
-0.0600498
-0.0607198
-0.0613241
-0.0618619
-0.0623329
-0.0627369
-0.0630743