/*--------------------------------*- C++ -*----------------------------------*\
| =========                 |                                                 |
| \\      /  F ield         | OpenFOAM: The Open Source CFD Toolbox           |
|  \\    /   O peration     | Version:  v2006                                 |
|   \\  /    A nd           | Website:  www.openfoam.com                      |
|    \\/     M anipulation  |                                                 |
\*---------------------------------------------------------------------------*/
FoamFile
{
    version     2.0;
    format      ascii;
    class       surfaceScalarField;
    location    "12";
    object      phi;
}
// * * * * * * * * * * * * * * * * * * * * * * * * * * * * * * * * * * * * * //

dimensions      [0 3 -1 0 0 0 0];
oriented        oriented;


internalField   nonuniform List<scalar> 
99450
(
-1.30418e-05
1.30418e-05
-1.33021e-05
2.60276e-07
-1.53371e-05
2.03501e-06
-1.99868e-05
4.64971e-06
-2.57556e-05
5.76873e-06
-3.17961e-05
6.04048e-06
-3.79714e-05
6.17538e-06
-4.42925e-05
6.32101e-06
-5.08102e-05
6.51772e-06
-5.7547e-05
6.73682e-06
-6.45075e-05
6.96052e-06
-7.16952e-05
7.18766e-06
-7.91139e-05
7.41872e-06
-8.67655e-05
7.65165e-06
-9.46522e-05
7.88669e-06
-0.000102777
8.1245e-06
-0.000111147
8.37004e-06
-0.000119764
8.61729e-06
-0.000128627
8.86309e-06
-0.000137748
9.1213e-06
-0.000147139
9.39029e-06
-0.000156793
9.65443e-06
-0.00016672
9.927e-06
-0.000176928
1.02082e-05
-0.000187425
1.04965e-05
-0.000198215
1.07898e-05
-0.000209306
1.10911e-05
-0.00022071
1.14043e-05
-0.000232439
1.17292e-05
-0.000244508
1.20684e-05
-0.000256943
1.24354e-05
-0.000269782
1.28388e-05
-0.00028307
1.32885e-05
-0.000296849
1.37787e-05
-0.000311143
1.42944e-05
-0.000325967
1.48239e-05
-0.000341319
1.53519e-05
-0.000357199
1.58799e-05
-0.00037364
1.64406e-05
-0.00039069
1.70498e-05
-0.000408292
1.76024e-05
-0.00042625
1.7958e-05
-0.000444336
1.80863e-05
-0.000462403
1.80668e-05
-0.000480343
1.79394e-05
-0.000497999
1.76569e-05
-0.000515144
1.71448e-05
-0.000531509
1.63643e-05
-0.000546845
1.53367e-05
-0.000560983
1.41379e-05
-0.000573857
1.28739e-05
-0.000585496
1.16387e-05
-0.000595988
1.04922e-05
-0.000605448
9.45976e-06
-0.000613968
8.52009e-06
-0.000621619
7.65152e-06
-0.000628435
6.81606e-06
-0.00063445
6.01465e-06
-0.000639684
5.23443e-06
-0.000644161
4.47665e-06
-0.000647915
3.75398e-06
-0.000650958
3.04294e-06
-0.00065332
2.362e-06
-0.000655021
1.70126e-06
-0.000656091
1.06968e-06
-0.000656543
4.52434e-07
-0.000656403
-1.40601e-07
-0.000655697
-7.05815e-07
-0.000654448
-1.24922e-06
-0.000652672
-1.77619e-06
-0.000650392
-2.27966e-06
-0.00064763
-2.76148e-06
-0.00064441
-3.22037e-06
-0.000640744
-3.66604e-06
-0.000636657
-4.0874e-06
-0.000632166
-4.49039e-06
-0.000627295
-4.87115e-06
-0.000622069
-5.22583e-06
-0.000616521
-5.54861e-06
-0.000610683
-5.83748e-06
-0.000604595
-6.08862e-06
-0.000598297
-6.2974e-06
-0.000591835
-6.46189e-06
-0.00058526
-6.57541e-06
-0.000578621
-6.6387e-06
-0.000571972
-6.64944e-06
-0.000565358
-6.61396e-06
-0.000558854
-6.50405e-06
-0.000552531
-6.32286e-06
-0.000546454
-6.07644e-06
-0.000540713
-5.74093e-06
-0.000535405
-5.308e-06
-0.000530643
-4.76215e-06
-0.000526539
-4.10447e-06
-0.000523237
-3.30139e-06
-0.00052092
-2.31739e-06
-0.000519806
-1.11399e-06
-0.000520211
4.05073e-07
-0.000522233
2.02197e-06
-0.000525862
3.62877e-06
-0.000530822
4.96053e-06
-0.00053664
5.81771e-06
-0.000542779
6.13869e-06
-0.000548771
5.99255e-06
-0.000554262
5.49043e-06
-0.000558994
4.73223e-06
-0.000562776
3.78219e-06
-0.000565485
2.7085e-06
-0.000566999
1.5138e-06
-0.000567176
1.77564e-07
-0.000565816
-1.36035e-06
-0.000562779
-3.03629e-06
-0.000558028
-4.75138e-06
-0.000551649
-6.37951e-06
-0.00054383
-7.81842e-06
-0.000534814
-9.01601e-06
-0.000524823
-9.99153e-06
-0.000514057
-1.07653e-05
-0.000502672
-1.13849e-05
-0.000490779
-1.18932e-05
-0.000478425
-1.23541e-05
-0.000465658
-1.27675e-05
-0.000452517
-1.31403e-05
-0.000439047
-1.34701e-05
-0.000425279
-1.37687e-05
-0.000411249
-1.40299e-05
-0.000396972
-1.42767e-05
-0.000382453
-1.45191e-05
-0.000367699
-1.47537e-05
-0.000352698
-1.50017e-05
-0.000337457
-1.52401e-05
-0.000321982
-1.54758e-05
-0.000306259
-1.57223e-05
-0.000290284
-1.59756e-05
-0.000274053
-1.62309e-05
-0.000257566
-1.64872e-05
-0.000240819
-1.67467e-05
-0.000223811
-1.70076e-05
-0.00020653
-1.72812e-05
-0.00018896
-1.75697e-05
-0.000171095
-1.78652e-05
-0.000152929
-1.81662e-05
-0.000134474
-1.84555e-05
-0.000115667
-1.88067e-05
-9.64794e-05
-1.91874e-05
-7.68005e-05
-1.96789e-05
-5.67219e-05
-2.00786e-05
-3.60585e-05
-2.06633e-05
-1.57984e-05
-2.02602e-05
-1.57984e-05
-1.91774e-05
3.22192e-05
-2.92604e-05
1.03434e-05
-4.17173e-05
1.44918e-05
-5.67549e-05
1.96873e-05
-7.26182e-05
2.1632e-05
-8.84898e-05
2.19122e-05
-0.000104291
2.19768e-05
-0.000120146
2.2176e-05
-0.000136098
2.24693e-05
-0.000152129
2.27681e-05
-0.000168222
2.30534e-05
-0.000184365
2.33311e-05
-0.000200536
2.3589e-05
-0.000216714
2.38304e-05
-0.000232884
2.40562e-05
-0.000249023
2.42631e-05
-0.000265095
2.44429e-05
-0.000281081
2.46031e-05
-0.000296966
2.4748e-05
-0.000312719
2.48741e-05
-0.000328305
2.49765e-05
-0.000343707
2.50566e-05
-0.000358899
2.5119e-05
-0.000373859
2.51679e-05
-0.000388561
2.51981e-05
-0.000402974
2.52034e-05
-0.000417075
2.51918e-05
-0.000430825
2.5155e-05
-0.000444196
2.50995e-05
-0.000457157
2.50296e-05
-0.000469669
2.49472e-05
-0.000481689
2.48586e-05
-0.000493179
2.47792e-05
-0.000504105
2.47044e-05
-0.000514445
2.46348e-05
-0.000524182
2.45604e-05
-0.000533289
2.44594e-05
-0.000541734
2.43244e-05
-0.000549439
2.41462e-05
-0.000556303
2.39133e-05
-0.000562329
2.36282e-05
-0.000567657
2.32859e-05
-0.000572457
2.28864e-05
-0.000576844
2.24539e-05
-0.000580906
2.20014e-05
-0.000584764
2.15149e-05
-0.000588577
2.09579e-05
-0.000592501
2.02882e-05
-0.000596645
1.94811e-05
-0.000601043
1.85355e-05
-0.00060566
1.74913e-05
-0.000610413
1.6392e-05
-0.000615186
1.52647e-05
-0.000619871
1.41447e-05
-0.000624404
1.3053e-05
-0.000628734
1.19816e-05
-0.000632848
1.09305e-05
-0.00063673
9.89688e-06
-0.000640371
8.87497e-06
-0.000643764
7.86991e-06
-0.000646893
6.88319e-06
-0.000649754
5.90352e-06
-0.000652324
4.93193e-06
-0.000654605
3.98184e-06
-0.000656576
3.04144e-06
-0.000658241
2.11687e-06
-0.000659573
1.19213e-06
-0.000660575
2.95355e-07
-0.000661227
-5.96637e-07
-0.000661533
-1.47052e-06
-0.00066148
-2.33289e-06
-0.000661066
-3.17528e-06
-0.000660278
-4.00808e-06
-0.000659122
-4.82248e-06
-0.00065758
-5.62872e-06
-0.000655655
-6.41589e-06
-0.000653335
-7.19149e-06
-0.000650611
-7.94936e-06
-0.000647471
-8.68855e-06
-0.000643902
-9.40633e-06
-0.000639905
-1.00861e-05
-0.000635469
-1.07335e-05
-0.000630591
-1.13392e-05
-0.000625274
-1.18931e-05
-0.000619522
-1.23898e-05
-0.00061334
-1.28317e-05
-0.000606753
-1.32013e-05
-0.000599759
-1.34976e-05
-0.000592359
-1.37228e-05
-0.000584578
-1.38581e-05
-0.000576425
-1.38935e-05
-0.000567918
-1.38148e-05
-0.000559033
-1.36474e-05
-0.000549804
-1.33334e-05
-0.00054023
-1.28759e-05
-0.000530274
-1.22726e-05
-0.000519886
-1.15022e-05
-0.000508924
-1.05576e-05
-0.00049736
-9.54125e-06
-0.000485173
-8.55904e-06
-0.000472397
-7.81477e-06
-0.0004591
-7.47928e-06
-0.0004453
-7.66206e-06
-0.000430948
-8.35941e-06
-0.000415953
-9.50432e-06
-0.000400231
-1.09894e-05
-0.00038374
-1.27092e-05
-0.000366464
-1.45669e-05
-0.000348459
-1.64913e-05
-0.000329881
-1.84013e-05
-0.000310938
-2.03034e-05
-0.000291814
-2.21602e-05
-0.000272697
-2.38677e-05
-0.000253748
-2.53285e-05
-0.000235092
-2.6475e-05
-0.000216811
-2.72964e-05
-0.000198965
-2.7838e-05
-0.000181583
-2.81472e-05
-0.00016471
-2.82574e-05
-0.000148394
-2.82099e-05
-0.000132727
-2.80211e-05
-0.000117791
-2.77036e-05
-0.000103645
-2.72857e-05
-9.03166e-05
-2.67987e-05
-7.78332e-05
-2.62521e-05
-6.61743e-05
-2.56887e-05
-5.53247e-05
-2.51264e-05
-4.52853e-05
-2.45584e-05
-3.60611e-05
-2.39779e-05
-2.76662e-05
-2.33966e-05
-2.01027e-05
-2.28035e-05
-1.33831e-05
-2.21954e-05
-7.48286e-06
-2.16226e-05
-2.41158e-06
-2.10468e-05
1.87744e-06
-2.05199e-05
5.38242e-06
-1.99922e-05
8.14646e-06
-1.95107e-05
1.02233e-05
-1.90845e-05
1.16242e-05
-1.86821e-05
1.24272e-05
-1.83727e-05
1.26599e-05
-1.80979e-05
1.23702e-05
-1.78765e-05
1.16134e-05
-1.76987e-05
1.04311e-05
-1.76244e-05
8.73873e-06
-1.74951e-05
6.45519e-06
-1.73953e-05
3.56086e-06
-1.71843e-05
1.37402e-06
-1.84765e-05
2.42489e-06
-2.1311e-05
-1.33735e-05
-1.81842e-05
5.04034e-05
-2.52305e-05
1.73897e-05
-3.40614e-05
2.33228e-05
-4.63788e-05
3.20047e-05
-6.0191e-05
3.54442e-05
-7.41697e-05
3.58909e-05
-8.79828e-05
3.57898e-05
-0.000101777
3.59702e-05
-0.000115656
3.63481e-05
-0.000129681
3.67937e-05
-0.000143846
3.72185e-05
-0.000158115
3.75995e-05
-0.000172484
3.79586e-05
-0.000186936
3.82815e-05
-0.000201443
3.8564e-05
-0.000215993
3.88127e-05
-0.000230571
3.90212e-05
-0.000245157
3.91884e-05
-0.00025972
3.93117e-05
-0.000274242
3.93962e-05
-0.000288709
3.94428e-05
-0.000303095
3.94425e-05
-0.000317383
3.94072e-05
-0.000331552
3.93372e-05
-0.000345582
3.92282e-05
-0.000359455
3.9076e-05
-0.000373151
3.88878e-05
-0.000386664
3.86685e-05
-0.000399981
3.8416e-05
-0.000413082
3.81309e-05
-0.00042595
3.78145e-05
-0.000438576
3.74854e-05
-0.000450939
3.71422e-05
-0.000463024
3.67888e-05
-0.000474812
3.64227e-05
-0.000486302
3.60504e-05
-0.0004975
3.56574e-05
-0.00050839
3.52143e-05
-0.000518934
3.46904e-05
-0.00052911
3.40898e-05
-0.000538926
3.34437e-05
-0.000548397
3.27574e-05
-0.000557536
3.20249e-05
-0.000566327
3.12446e-05
-0.000574752
3.04262e-05
-0.000582808
2.95717e-05
-0.000590531
2.86809e-05
-0.000597977
2.77344e-05
-0.000605189
2.66928e-05
-0.000612197
2.55436e-05
-0.000618988
2.42821e-05
-0.000625526
2.29301e-05
-0.00063177
2.15083e-05
-0.000637704
2.00793e-05
-0.000643286
1.86351e-05
-0.000648506
1.72012e-05
-0.000653353
1.57777e-05
-0.000657822
1.43659e-05
-0.00066191
1.29629e-05
-0.000665611
1.15711e-05
-0.000668913
1.01845e-05
-0.000671818
8.80934e-06
-0.000674334
7.44764e-06
-0.000676439
6.08688e-06
-0.000678137
4.73892e-06
-0.000679451
3.43145e-06
-0.000680338
2.07841e-06
-0.000680823
7.80747e-07
-0.000680883
-5.36603e-07
-0.000680533
-1.82051e-06
-0.000679772
-3.09412e-06
-0.000678596
-4.35108e-06
-0.000677009
-5.59552e-06
-0.000675007
-6.82411e-06
-0.000672596
-8.03937e-06
-0.000669773
-9.23931e-06
-0.00066654
-1.0424e-05
-0.000662896
-1.15937e-05
-0.000658842
-1.27427e-05
-0.000654378
-1.38703e-05
-0.000649499
-1.49651e-05
-0.000644206
-1.60265e-05
-0.000638504
-1.70411e-05
-0.000632388
-1.80091e-05
-0.00062586
-1.89174e-05
-0.000618928
-1.97644e-05
-0.000611587
-2.0542e-05
-0.00060384
-2.12444e-05
-0.000595695
-2.1868e-05
-0.00058715
-2.24031e-05
-0.000578207
-2.28369e-05
-0.000568834
-2.31871e-05
-0.000559058
-2.3424e-05
-0.000548843
-2.35479e-05
-0.000538157
-2.35617e-05
-0.000526971
-2.34589e-05
-0.000515206
-2.32673e-05
-0.000502754
-2.30099e-05
-0.000489554
-2.27412e-05
-0.00047558
-2.25324e-05
-0.000460916
-2.24786e-05
-0.000445733
-2.26631e-05
-0.000430252
-2.31429e-05
-0.000414681
-2.39306e-05
-0.000399194
-2.49904e-05
-0.000383946
-2.62379e-05
-0.000369019
-2.76362e-05
-0.00035447
-2.91162e-05
-0.000340323
-3.06376e-05
-0.000326564
-3.21603e-05
-0.000313196
-3.36721e-05
-0.00030022
-3.51357e-05
-0.000287608
-3.648e-05
-0.000275299
-3.76368e-05
-0.000263209
-3.85652e-05
-0.000251231
-3.92751e-05
-0.000239257
-3.98116e-05
-0.000227197
-4.0207e-05
-0.000214976
-4.04786e-05
-0.000202561
-4.06252e-05
-0.000189943
-4.06388e-05
-0.000177138
-4.05081e-05
-0.000164199
-4.0225e-05
-0.000151195
-3.98027e-05
-0.000138188
-3.92589e-05
-0.00012527
-3.86067e-05
-0.000112523
-3.78738e-05
-0.000100038
-3.70437e-05
-8.78913e-05
-3.61242e-05
-7.6172e-05
-3.51159e-05
-6.49638e-05
-3.40118e-05
-5.43352e-05
-3.2824e-05
-4.43905e-05
-3.15673e-05
-3.51784e-05
-3.0259e-05
-2.67966e-05
-2.89017e-05
-1.92712e-05
-2.75177e-05
-1.26589e-05
-2.6123e-05
-7.0385e-06
-2.47048e-05
-2.34974e-06
-2.33708e-05
1.34299e-06
-2.20654e-05
4.0669e-06
-2.08218e-05
5.87594e-06
-1.96855e-05
6.79197e-06
-1.86147e-05
6.84684e-06
-1.76792e-05
6.00879e-06
-1.6657e-05
4.25687e-06
-1.56434e-05
1.94675e-06
-1.48742e-05
9.80454e-07
-1.75102e-05
3.9299e-06
-2.42605e-05
-9.4436e-06
-1.67509e-05
6.71543e-05
-2.09262e-05
2.1565e-05
-2.65791e-05
2.89756e-05
-3.58134e-05
4.1239e-05
-4.68323e-05
4.64631e-05
-5.82383e-05
4.72969e-05
-6.96161e-05
4.71677e-05
-8.10437e-05
4.73978e-05
-9.26825e-05
4.7987e-05
-0.000104564
4.86751e-05
-0.000116698
4.93523e-05
-0.000129081
4.9983e-05
-0.000141692
5.0569e-05
-0.000154531
5.11213e-05
-0.000167586
5.16188e-05
-0.000180841
5.20675e-05
-0.000194281
5.24614e-05
-0.000207885
5.27924e-05
-0.00022164
5.30664e-05
-0.000235519
5.3275e-05
-0.000249501
5.34252e-05
-0.00026357
5.3511e-05
-0.000277694
5.35317e-05
-0.000291848
5.34908e-05
-0.000306009
5.33898e-05
-0.000320164
5.32303e-05
-0.000334282
5.30062e-05
-0.000348337
5.27238e-05
-0.000362314
5.23922e-05
-0.000376193
5.20106e-05
-0.000389957
5.15782e-05
-0.000403578
5.11067e-05
-0.000417034
5.05979e-05
-0.000430295
5.00493e-05
-0.000443331
4.94587e-05
-0.000456105
4.88254e-05
-0.000468593
4.81445e-05
-0.000480784
4.74061e-05
-0.000492704
4.66105e-05
-0.00050437
4.57557e-05
-0.000515761
4.48348e-05
-0.000526851
4.38472e-05
-0.000537624
4.27976e-05
-0.000548059
4.16797e-05
-0.000558122
4.0489e-05
-0.000567777
3.92265e-05
-0.000576985
3.78888e-05
-0.000585721
3.6471e-05
-0.000593996
3.49678e-05
-0.00060185
3.33972e-05
-0.000609321
3.17529e-05
-0.000616415
3.00249e-05
-0.00062317
2.82633e-05
-0.000629553
2.64617e-05
-0.000635553
2.46348e-05
-0.000641153
2.28015e-05
-0.00064633
2.09547e-05
-0.000651076
1.91119e-05
-0.000655381
1.72681e-05
-0.000659239
1.54294e-05
-0.00066265
1.3595e-05
-0.00066561
1.17693e-05
-0.000668115
9.95235e-06
-0.000670171
8.14319e-06
-0.000671772
6.33976e-06
-0.000672917
4.57657e-06
-0.000673623
2.78487e-06
-0.00067387
1.02795e-06
-0.000673689
-7.18173e-07
-0.000673062
-2.44779e-06
-0.000672005
-4.15118e-06
-0.000670516
-5.8394e-06
-0.000668605
-7.50679e-06
-0.000666275
-9.15421e-06
-0.000663535
-1.07794e-05
-0.000660394
-1.23801e-05
-0.00065686
-1.39584e-05
-0.000652944
-1.55093e-05
-0.000648653
-1.70337e-05
-0.000644001
-1.85222e-05
-0.000638988
-1.9978e-05
-0.00063363
-2.13846e-05
-0.000627925
-2.27466e-05
-0.000621889
-2.40448e-05
-0.000615516
-2.52903e-05
-0.000608812
-2.64683e-05
-0.000601783
-2.75717e-05
-0.000594431
-2.85961e-05
-0.000586759
-2.95403e-05
-0.000578762
-3.03999e-05
-0.000570427
-3.11716e-05
-0.000561772
-3.18418e-05
-0.000552776
-3.24201e-05
-0.000543425
-3.28993e-05
-0.000533697
-3.32896e-05
-0.000523566
-3.35904e-05
-0.000513014
-3.38193e-05
-0.000502019
-3.40043e-05
-0.000490581
-3.41794e-05
-0.000478725
-3.43882e-05
-0.000466527
-3.46769e-05
-0.000454098
-3.50923e-05
-0.000441575
-3.56662e-05
-0.000429111
-3.63941e-05
-0.000416804
-3.72978e-05
-0.000404753
-3.82882e-05
-0.000392977
-3.94123e-05
-0.0003815
-4.05933e-05
-0.000370335
-4.18028e-05
-0.000359488
-4.3007e-05
-0.000348964
-4.41964e-05
-0.000338762
-4.53376e-05
-0.000328838
-4.64037e-05
-0.000319109
-4.7366e-05
-0.000309475
-4.81992e-05
-0.000299855
-4.8895e-05
-0.000290212
-4.94545e-05
-0.000280522
-4.98972e-05
-0.000270773
-5.02273e-05
-0.000260954
-5.04448e-05
-0.000251036
-5.05561e-05
-0.000240993
-5.05511e-05
-0.000230807
-5.04115e-05
-0.000220464
-5.0146e-05
-0.000209972
-4.97506e-05
-0.000199361
-4.92176e-05
-0.000188642
-4.85926e-05
-0.000177851
-4.78345e-05
-0.000167023
-4.69527e-05
-0.00015617
-4.5969e-05
-0.000145324
-4.48573e-05
-0.000134567
-4.35816e-05
-0.000123897
-4.22368e-05
-0.000113416
-4.07399e-05
-0.000103178
-3.91398e-05
-9.32449e-05
-3.74508e-05
-8.37e-05
-3.5668e-05
-7.45398e-05
-3.3865e-05
-6.58964e-05
-3.20143e-05
-5.77745e-05
-3.01873e-05
-5.02088e-05
-2.83875e-05
-4.32392e-05
-2.66551e-05
-3.6817e-05
-2.50369e-05
-3.10514e-05
-2.34449e-05
-2.59815e-05
-2.17269e-05
-2.18602e-05
-1.97647e-05
-1.75365e-05
-1.91979e-05
-1.07109e-05
-2.43358e-05
-4.76689e-07
-3.44947e-05
-9.92029e-06
-1.62534e-05
8.34077e-05
-1.94818e-05
2.47934e-05
-2.41612e-05
3.3655e-05
-3.2279e-05
4.93568e-05
-4.22553e-05
5.64394e-05
-5.27549e-05
5.77965e-05
-6.33578e-05
5.77705e-05
-7.41054e-05
5.81454e-05
-8.51101e-05
5.89916e-05
-9.6455e-05
6.00201e-05
-0.000108106
6.10033e-05
-0.000120089
6.19661e-05
-0.000132375
6.28546e-05
-0.000144974
6.37204e-05
-0.000157853
6.44983e-05
-0.000171015
6.52293e-05
-0.000184439
6.58853e-05
-0.000198104
6.64572e-05
-0.00021198
6.69424e-05
-0.000226067
6.73624e-05
-0.000240313
6.76707e-05
-0.000254686
6.78843e-05
-0.000269175
6.8021e-05
-0.000283751
6.80668e-05
-0.000298375
6.80137e-05
-0.000313018
6.78737e-05
-0.000327663
6.76508e-05
-0.000342273
6.73334e-05
-0.000356818
6.69378e-05
-0.000371275
6.64674e-05
-0.000385613
6.59163e-05
-0.00039979
6.52836e-05
-0.000413777
6.4585e-05
-0.000427547
6.38194e-05
-0.000441071
6.29825e-05
-0.000454314
6.20684e-05
-0.000467252
6.10823e-05
-0.000479864
6.00178e-05
-0.000492123
5.88695e-05
-0.000504011
5.76438e-05
-0.000515517
5.63411e-05
-0.000526631
5.49608e-05
-0.000537341
5.35079e-05
-0.000547643
5.19815e-05
-0.000557541
5.0387e-05
-0.000567042
4.87274e-05
-0.000576146
4.69932e-05
-0.000584854
4.51791e-05
-0.000593174
4.3288e-05
-0.000601079
4.1302e-05
-0.00060859
3.9264e-05
-0.00061571
3.71441e-05
-0.000622414
3.49676e-05
-0.000628708
3.27562e-05
-0.000634592
3.05187e-05
-0.000640053
2.82627e-05
-0.000645093
2.5994e-05
-0.00064971
2.37292e-05
-0.000653875
2.14327e-05
-0.000657593
1.91477e-05
-0.00066087
1.68716e-05
-0.000663701
1.46009e-05
-0.000666084
1.23347e-05
-0.000668011
1.00703e-05
-0.0006695
7.82899e-06
-0.000670535
5.61125e-06
-0.000671137
3.38749e-06
-0.000671298
1.18899e-06
-0.000671021
-9.95491e-07
-0.000670317
-3.15161e-06
-0.000669189
-5.27923e-06
-0.000667644
-7.38467e-06
-0.000665688
-9.46227e-06
-0.000663329
-1.15135e-05
-0.000660574
-1.35342e-05
-0.000657432
-1.55226e-05
-0.000653912
-1.74785e-05
-0.000650023
-1.93981e-05
-0.000645776
-2.12806e-05
-0.00064118
-2.3118e-05
-0.000636242
-2.49157e-05
-0.000630978
-2.66487e-05
-0.000625385
-2.83395e-05
-0.000619468
-2.99623e-05
-0.000613237
-3.15215e-05
-0.000606696
-3.30088e-05
-0.000599841
-3.44269e-05
-0.00059268
-3.57569e-05
-0.00058521
-3.70101e-05
-0.000577434
-3.81766e-05
-0.00056935
-3.92549e-05
-0.000560947
-4.02453e-05
-0.000552228
-4.11394e-05
-0.000543183
-4.19437e-05
-0.000533806
-4.26666e-05
-0.000524084
-4.33125e-05
-0.000514013
-4.38901e-05
-0.000503595
-4.44223e-05
-0.000492842
-4.49325e-05
-0.000481774
-4.54562e-05
-0.000470444
-4.60069e-05
-0.000458913
-4.66237e-05
-0.000447255
-4.73243e-05
-0.000435535
-4.81142e-05
-0.00042384
-4.89926e-05
-0.000412179
-4.99488e-05
-0.000400653
-5.09389e-05
-0.000389278
-5.19681e-05
-0.000378082
-5.29982e-05
-0.000367071
-5.40187e-05
-0.000356266
-5.50007e-05
-0.000345683
-5.59206e-05
-0.00033533
-5.67568e-05
-0.000325208
-5.7488e-05
-0.000315314
-5.80937e-05
-0.000305633
-5.85756e-05
-0.000296149
-5.89383e-05
-0.000286862
-5.91848e-05
-0.000277764
-5.93253e-05
-0.000268843
-5.93656e-05
-0.000260083
-5.93165e-05
-0.00025147
-5.91639e-05
-0.000242969
-5.89127e-05
-0.000234546
-5.85688e-05
-0.000226184
-5.81126e-05
-0.000217805
-5.75967e-05
-0.000209431
-5.69658e-05
-0.000201036
-5.62303e-05
-0.000192576
-5.54121e-05
-0.000184052
-5.4493e-05
-0.000175442
-5.34674e-05
-0.000166701
-5.23231e-05
-0.000157871
-5.10665e-05
-0.000148932
-4.96784e-05
-0.000139874
-4.81983e-05
-0.000130723
-4.66016e-05
-0.000121498
-4.48935e-05
-0.00011221
-4.31525e-05
-0.000102887
-4.13374e-05
-9.35772e-05
-3.9497e-05
-8.42968e-05
-3.7668e-05
-7.50931e-05
-3.58588e-05
-6.59308e-05
-3.41992e-05
-5.69217e-05
-3.2454e-05
-4.82043e-05
-3.04443e-05
-3.98039e-05
-2.81652e-05
-3.05185e-05
-2.84832e-05
-1.8385e-05
-3.64693e-05
-4.21039e-06
-4.86693e-05
-1.41307e-05
-1.61119e-05
9.95196e-05
-1.9017e-05
2.76985e-05
-2.34383e-05
3.80763e-05
-3.13784e-05
5.72969e-05
-4.12144e-05
6.62753e-05
-5.16257e-05
6.82078e-05
-6.21991e-05
6.8344e-05
-7.29818e-05
6.89281e-05
-8.40658e-05
7.00756e-05
-9.54888e-05
7.14431e-05
-0.000107279
7.2794e-05
-0.000119427
7.41139e-05
-0.000131905
7.53318e-05
-0.000144701
7.65169e-05
-0.000157819
7.76162e-05
-0.000171236
7.86459e-05
-0.000184913
7.95628e-05
-0.000198843
8.03869e-05
-0.000212998
8.10979e-05
-0.000227328
8.16923e-05
-0.000241825
8.21677e-05
-0.000256472
8.25312e-05
-0.000271212
8.2761e-05
-0.000286015
8.28695e-05
-0.000300859
8.28577e-05
-0.000315711
8.27259e-05
-0.000330537
8.24767e-05
-0.000345316
8.21124e-05
-0.000360003
8.1625e-05
-0.00037457
8.1034e-05
-0.000388989
8.03351e-05
-0.000403245
7.95397e-05
-0.000417301
7.86412e-05
-0.000431123
7.76411e-05
-0.000444685
7.65446e-05
-0.000457973
7.53568e-05
-0.000470963
7.40723e-05
-0.000483635
7.269e-05
-0.000495982
7.12159e-05
-0.000507984
6.96465e-05
-0.000519628
6.79849e-05
-0.000530907
6.62396e-05
-0.000541805
6.44054e-05
-0.000552303
6.24802e-05
-0.000562387
6.04712e-05
-0.000572043
5.8383e-05
-0.000581256
5.62061e-05
-0.000590033
5.39566e-05
-0.000598369
5.16235e-05
-0.000606285
4.92182e-05
-0.000613759
4.6738e-05
-0.000620839
4.42244e-05
-0.000627509
4.1637e-05
-0.000633762
3.90094e-05
-0.00063959
3.63474e-05
-0.000644995
3.36669e-05
-0.000649962
3.09616e-05
-0.000654481
2.82474e-05
-0.000658571
2.55229e-05
-0.000662215
2.27919e-05
-0.000665422
2.00792e-05
-0.000668167
1.73454e-05
-0.000670483
1.46505e-05
-0.000672345
1.19322e-05
-0.00067376
9.24437e-06
-0.000674723
6.57429e-06
-0.000675258
3.92225e-06
-0.000675363
1.29367e-06
-0.000675041
-1.31746e-06
-0.000674289
-3.90356e-06
-0.000673121
-6.447e-06
-0.000671539
-8.96646e-06
-0.000669549
-1.1452e-05
-0.000667162
-1.39009e-05
-0.00066438
-1.6316e-05
-0.000661212
-1.86906e-05
-0.000657664
-2.10262e-05
-0.000653747
-2.33159e-05
-0.000649462
-2.55649e-05
-0.000644825
-2.77551e-05
-0.000639837
-2.99041e-05
-0.000634504
-3.19816e-05
-0.000628836
-3.4007e-05
-0.000622834
-3.5965e-05
-0.000616503
-3.78525e-05
-0.000609839
-3.96726e-05
-0.000602846
-4.14197e-05
-0.000595536
-4.30668e-05
-0.000587902
-4.46445e-05
-0.000579943
-4.61349e-05
-0.000571663
-4.7535e-05
-0.000563061
-4.88481e-05
-0.000554129
-5.00712e-05
-0.000544863
-5.12092e-05
-0.00053527
-5.22601e-05
-0.000525347
-5.32349e-05
-0.000515091
-5.41469e-05
-0.000504518
-5.49954e-05
-0.000493634
-5.58157e-05
-0.000482472
-5.66182e-05
-0.000471062
-5.74174e-05
-0.000459453
-5.82325e-05
-0.000447702
-5.90749e-05
-0.000435868
-5.9948e-05
-0.000424018
-6.08426e-05
-0.000412211
-6.17561e-05
-0.000400482
-6.26683e-05
-0.000388877
-6.35733e-05
-0.00037742
-6.44549e-05
-0.000366146
-6.52925e-05
-0.000355083
-6.60642e-05
-0.000344239
-6.67645e-05
-0.000333622
-6.73737e-05
-0.000323229
-6.78809e-05
-0.000313046
-6.82765e-05
-0.000303059
-6.85627e-05
-0.000293263
-6.87339e-05
-0.000283662
-6.87863e-05
-0.000274259
-6.87282e-05
-0.000265048
-6.85763e-05
-0.000256041
-6.83242e-05
-0.00024723
-6.79742e-05
-0.000238625
-6.75178e-05
-0.000230219
-6.69755e-05
-0.000221968
-6.63627e-05
-0.000213874
-6.56907e-05
-0.000205927
-6.49136e-05
-0.000198075
-6.40818e-05
-0.000190337
-6.31506e-05
-0.00018265
-6.21795e-05
-0.000174998
-6.11193e-05
-0.000167352
-5.99695e-05
-0.000159653
-5.87654e-05
-0.000151863
-5.74682e-05
-0.000143968
-5.60939e-05
-0.000135925
-5.46445e-05
-0.00012769
-5.31283e-05
-0.000119278
-5.15645e-05
-0.000110659
-4.9956e-05
-0.000101832
-4.83245e-05
-9.27972e-05
-4.67027e-05
-8.35255e-05
-4.51304e-05
-7.40814e-05
-4.36434e-05
-6.44558e-05
-4.20796e-05
-5.47717e-05
-4.01284e-05
-4.49799e-05
-3.79569e-05
-3.42165e-05
-3.92466e-05
-2.09648e-05
-4.9721e-05
-6.06411e-06
-6.357e-05
-2.01948e-05
-1.59851e-05
0.000115505
-1.84657e-05
3.01791e-05
-2.23887e-05
4.19993e-05
-3.00443e-05
6.49526e-05
-3.98215e-05
7.60525e-05
-5.02597e-05
7.8646e-05
-6.08835e-05
7.89678e-05
-7.17214e-05
7.9766e-05
-8.28992e-05
8.12534e-05
-9.44532e-05
8.29971e-05
-0.000106399
8.47403e-05
-0.000118714
8.64281e-05
-0.000131398
8.8016e-05
-0.000144415
8.9534e-05
-0.000157766
9.09669e-05
-0.000171408
9.22882e-05
-0.00018533
9.34849e-05
-0.000199496
9.45532e-05
-0.000213882
9.54832e-05
-0.000228454
9.62646e-05
-0.000243189
9.69024e-05
-0.000258031
9.73741e-05
-0.000272968
9.76971e-05
-0.000287961
9.78627e-05
-0.000302985
9.78822e-05
-0.000318003
9.77435e-05
-0.000332979
9.74531e-05
-0.000347888
9.70214e-05
-0.000362712
9.6449e-05
-0.000377413
9.57352e-05
-0.000391966
9.48871e-05
-0.000406335
9.39091e-05
-0.000420496
9.28024e-05
-0.000434428
9.15731e-05
-0.000448112
9.02284e-05
-0.000461517
8.87621e-05
-0.00047462
8.71752e-05
-0.000487409
8.54793e-05
-0.000499868
8.36745e-05
-0.00051198
8.17589e-05
-0.000523733
7.97376e-05
-0.000535104
7.76106e-05
-0.000546087
7.53883e-05
-0.000556675
7.30681e-05
-0.000566856
7.06525e-05
-0.000576626
6.81535e-05
-0.000585989
6.55686e-05
-0.00059493
6.28974e-05
-0.000603451
6.01445e-05
-0.000611545
5.73125e-05
-0.000619216
5.4409e-05
-0.000626441
5.14497e-05
-0.000633232
4.84282e-05
-0.000639586
4.53628e-05
-0.000645508
4.22694e-05
-0.000650982
3.91415e-05
-0.00065601
3.59896e-05
-0.000660586
3.2823e-05
-0.000664705
2.9642e-05
-0.000668379
2.6466e-05
-0.000671582
2.32819e-05
-0.00067434
2.01033e-05
-0.000676623
1.6934e-05
-0.000678499
1.38081e-05
-0.000679892
1.06373e-05
-0.000680842
7.52445e-06
-0.000681362
4.44172e-06
-0.000681429
1.36111e-06
-0.000681062
-1.68482e-06
-0.000680267
-4.6989e-06
-0.000679048
-7.66508e-06
-0.000677413
-1.06024e-05
-0.000675366
-1.34988e-05
-0.000672911
-1.63553e-05
-0.000670057
-1.91699e-05
-0.00066681
-2.1938e-05
-0.000663175
-2.46609e-05
-0.000659161
-2.73301e-05
-0.000654772
-2.99543e-05
-0.000650016
-3.25113e-05
-0.000644898
-3.5022e-05
-0.000639421
-3.74578e-05
-0.000633594
-3.98347e-05
-0.000627417
-4.2142e-05
-0.000620894
-4.43753e-05
-0.000614032
-4.65344e-05
-0.000606837
-4.86146e-05
-0.000599298
-5.06062e-05
-0.000591429
-5.25139e-05
-0.000583228
-5.4335e-05
-0.000574698
-5.60653e-05
-0.000565843
-5.77031e-05
-0.000556664
-5.92502e-05
-0.000547166
-6.07074e-05
-0.000537348
-6.20783e-05
-0.00052722
-6.33628e-05
-0.000516793
-6.45732e-05
-0.00050606
-6.57288e-05
-0.000495072
-6.68034e-05
-0.00048384
-6.7851e-05
-0.000472398
-6.88586e-05
-0.000460791
-6.98399e-05
-0.000449061
-7.08046e-05
-0.000437249
-7.17603e-05
-0.000425405
-7.26871e-05
-0.000413568
-7.3593e-05
-0.000401771
-7.44654e-05
-0.000390062
-7.5282e-05
-0.000378456
-7.6061e-05
-0.00036699
-7.67579e-05
-0.000355666
-7.73884e-05
-0.00034451
-7.7921e-05
-0.000333528
-7.8355e-05
-0.000322724
-7.8685e-05
-0.000312102
-7.88983e-05
-0.00030167
-7.89951e-05
-0.000291437
-7.89664e-05
-0.000281387
-7.88366e-05
-0.000271523
-7.85921e-05
-0.000261864
-7.82357e-05
-0.000252404
-7.77836e-05
-0.000243137
-7.72417e-05
-0.000234065
-7.65897e-05
-0.00022517
-7.5871e-05
-0.000216459
-7.50729e-05
-0.00020795
-7.42004e-05
-0.000199605
-7.32585e-05
-0.00019144
-7.2247e-05
-0.000183408
-7.11822e-05
-0.000175526
-7.00616e-05
-0.000167755
-6.88902e-05
-0.000160058
-6.76662e-05
-0.000152428
-6.63962e-05
-0.000144811
-6.50851e-05
-0.000137174
-6.37302e-05
-0.00012948
-6.23393e-05
-0.000121685
-6.09225e-05
-0.000113769
-5.94812e-05
-0.000105687
-5.80379e-05
-9.74197e-05
-5.65916e-05
-8.89466e-05
-5.51757e-05
-8.02461e-05
-5.3831e-05
-7.13041e-05
-5.25854e-05
-6.21297e-05
-5.12539e-05
-5.27728e-05
-4.94853e-05
-4.32502e-05
-4.74795e-05
-3.30741e-05
-4.94227e-05
-2.08106e-05
-6.19845e-05
-6.5959e-06
-7.77847e-05
-2.67907e-05
-1.58773e-05
0.000131382
-1.76815e-05
3.19833e-05
-2.07308e-05
4.50486e-05
-2.77727e-05
7.19945e-05
-3.72642e-05
8.5544e-05
-4.76159e-05
8.89977e-05
-5.81955e-05
8.95474e-05
-6.9003e-05
9.05735e-05
-8.01822e-05
9.24326e-05
-9.17794e-05
9.45943e-05
-0.000103811
9.67717e-05
-0.000116249
9.8866e-05
-0.000129094
0.000100861
-0.000142304
0.000102744
-0.00015587
0.000104532
-0.000169742
0.00010616
-0.000183912
0.000107655
-0.000198335
0.000108976
-0.000212995
0.000110143
-0.000227828
0.000111098
-0.000242816
0.00011189
-0.000257932
0.00011249
-0.000273134
0.000112899
-0.000288394
0.000113122
-0.000303668
0.000113157
-0.000318932
0.000113007
-0.000334154
0.000112675
-0.000349305
0.000112173
-0.000364355
0.000111499
-0.000379271
0.000110651
-0.000394034
0.00010965
-0.000408609
0.000108484
-0.000422973
0.000107166
-0.000437103
0.000105704
-0.000450977
0.000104102
-0.000464577
0.000102362
-0.000477884
0.000100482
-0.000490876
9.84715e-05
-0.000503532
9.63301e-05
-0.000515838
9.40655e-05
-0.000527786
9.16856e-05
-0.000539366
8.91904e-05
-0.000550558
8.65801e-05
-0.00056135
8.38603e-05
-0.000571742
8.10441e-05
-0.000581711
7.81223e-05
-0.000591248
7.51055e-05
-0.00060035
7.2e-05
-0.000609016
6.88101e-05
-0.000617239
6.55355e-05
-0.000625023
6.21934e-05
-0.00063236
5.87858e-05
-0.000639253
5.53219e-05
-0.000645709
5.18182e-05
-0.0006517
4.82608e-05
-0.000657232
4.46731e-05
-0.000662309
4.10668e-05
-0.000666926
3.74401e-05
-0.000671078
3.37936e-05
-0.000674767
3.01553e-05
-0.000677985
2.65003e-05
-0.000680741
2.2859e-05
-0.000683039
1.92315e-05
-0.000684859
1.56288e-05
-0.000686246
1.20245e-05
-0.000687167
8.44532e-06
-0.000687659
4.9338e-06
-0.000687679
1.38102e-06
-0.000687262
-2.10224e-06
-0.000686409
-5.55136e-06
-0.000685127
-8.94765e-06
-0.00068342
-1.23091e-05
-0.000681295
-1.56241e-05
-0.000678756
-1.88937e-05
-0.000675812
-2.2114e-05
-0.000672469
-2.52813e-05
-0.000668731
-2.83984e-05
-0.000664606
-3.14551e-05
-0.0006601
-3.44609e-05
-0.000655217
-3.73941e-05
-0.00064996
-4.02789e-05
-0.000644341
-4.3077e-05
-0.00063836
-4.58157e-05
-0.000632023
-4.84789e-05
-0.000625334
-5.10648e-05
-0.000618294
-5.35735e-05
-0.000610915
-5.59942e-05
-0.000603187
-5.83344e-05
-0.000595126
-6.05746e-05
-0.000586731
-6.27302e-05
-0.000578002
-6.47935e-05
-0.000568953
-6.67522e-05
-0.000559581
-6.86226e-05
-0.0005499
-7.03879e-05
-0.00053991
-7.20686e-05
-0.00052962
-7.36525e-05
-0.000519051
-7.51424e-05
-0.000508226
-7.65543e-05
-0.000497129
-7.79e-05
-0.000485817
-7.91632e-05
-0.000474315
-8.03608e-05
-0.000462655
-8.15001e-05
-0.000450869
-8.25904e-05
-0.000439012
-8.36167e-05
-0.000427115
-8.45839e-05
-0.000415223