/*--------------------------------*- C++ -*----------------------------------*\
| =========                 |                                                 |
| \\      /  F ield         | OpenFOAM: The Open Source CFD Toolbox           |
|  \\    /   O peration     | Version:  v2006                                 |
|   \\  /    A nd           | Website:  www.openfoam.com                      |
|    \\/     M anipulation  |                                                 |
\*---------------------------------------------------------------------------*/
FoamFile
{
    version     2.0;
    format      ascii;
    class       volScalarField;
    location    "4.8";
    object      p_rgh;
}
// * * * * * * * * * * * * * * * * * * * * * * * * * * * * * * * * * * * * * //

dimensions      [1 -1 -2 0 0 0 0];


internalField   nonuniform List<scalar> 
150000
(
994.764
994.903
995.315
995.964
996.809
997.847
999.072
1000.48
1002.08
1003.87
1005.83
1007.99
1010.32
1012.84
1015.53
1018.41
1021.46
1024.69
1028.1
1031.67
1035.42
1039.34
1043.42
1047.67
1052.07
1056.62
1061.32
1066.17
1071.14
1076.25
1081.48
1086.82
1092.26
1097.79
1103.41
1109.1
1114.85
1120.64
1126.47
1132.3
1138.15
1143.99
1149.82
1155.61
1161.36
1167.03
1172.61
1178.06
1183.37
1188.52
1193.5
1198.26
1202.77
1207.01
1210.97
1214.67
1218.11
1221.34
1224.34
1227.11
1229.62
1231.83
1233.72
1235.28
1236.48
1237.33
1237.81
1237.94
1237.7
1237.11
1236.18
1234.9
1233.3
1231.38
1229.15
1226.63
1223.82
1220.74
1217.41
1213.83
1210.03
1206.02
1201.81
1197.43
1192.88
1188.19
1183.38
1178.45
1173.43
1168.34
1163.19
1157.99
1152.77
1147.55
1142.33
1137.13
1131.98
1126.88
1121.85
1116.91
1112.07
1107.35
1102.75
1098.3
1094.01
1089.89
1085.95
1082.22
1078.7
1075.4
1072.35
1069.55
1067.01
1064.76
1062.79
1061.12
1059.76
1058.73
1058.06
1057.78
1057.92
1058.51
1059.51
1060.9
1062.62
1064.65
1066.95
1069.62
1072.9
1076.75
1081.13
1086.01
1091.39
1097.27
1103.65
1110.54
1117.95
1125.86
1134.3
1143.24
1152.7
1162.67
1173.15
1184.14
1195.62
1207.59
1220.05
1232.98
1246.38
1260.23
1274.53
1289.25
1304.38
1319.92
1335.83
1352.12
1368.75
1385.71
1402.97
1420.53
1438.36
1456.44
1474.74
1493.24
1511.93
1530.78
1549.77
1568.87
1588.06
1607.32
1626.63
1645.96
1665.29
1684.6
1703.87
1723.08
1742.2
1761.22
1780.12
1798.87
1817.47
1835.89
1854.13
1872.15
1889.96
1907.53
1924.86
1941.93
1958.73
1975.26
1991.5
2007.46
2023.13
2038.5
2053.56
2068.33
2082.79
2096.94
2110.78
2124.32
2137.56
2150.5
2163.16
2175.53
2187.64
2199.48
2211.07
2222.41
2233.52
2244.4
2255.06
2265.53
2275.79
2285.88
2295.79
2305.54
2315.15
2324.63
2333.99
2343.25
2352.41
2361.49
2370.52
2379.49
2388.43
2397.34
2406.24
2415.15
2424.07
2433.02
2442
2451.03
2460.1
2469.24
2478.46
2487.78
2497.19
2506.7
2516.31
2526.03
2535.87
2545.83
2555.91
2566.12
2576.46
2586.92
2597.51
2608.22
2619.06
2630.02
2641.09
2652.28
2663.57
2674.96
2686.45
2698.01
2709.66
2721.37
2733.14
2744.96
2756.81
2768.68
2780.56
2792.44
2804.3
2816.13
2827.9
2839.62
2851.26
2862.8
2874.24
2885.54
2896.69
2907.66
2918.46
2929.09
2939.55
2949.83
2959.87
2969.63
2979.09
2988.22
2997.02
3005.49
3013.64
3021.46
3028.93
3036.03
3042.75
3049.06
3054.96
3060.42
3065.44
3069.99
3074.08
3077.68
3080.79
3083.4
3085.51
3087.09
3088.16
3088.69
3088.69
3088.15
3087.06
3085.43
3083.25
3080.51
3077.21
3073.36
3068.95
3063.94
3058.4
3052.32
3045.69
3038.5
3030.77
3022.49
3013.67
3004.31
2994.41
2983.98
2973.03
2961.55
2949.56
2937.06
2924.05
2910.54
2896.55
2882.06
2867.1
2851.67
2835.76
2819.4
2802.59
2785.32
2767.59
2749.41
2730.76
2711.72
2692.28
2672.43
2652.17
2631.51
2610.46
2589.02
2567.2
2545.01
2522.44
2499.52
2476.23
2452.59
2428.61
2404.29
2379.63
2354.64
2329.33
2303.7
2277.77
2251.54
2225.01
2198.2
2171.12
2143.76
2116.13
2088.25
2060.11
2031.72
2003.11
1974.28
1945.24
1916.01
1886.59
1857
1827.24
1797.33
1767.28
1737.08
1706.73
1676.3
1645.78
1615.18
1584.5
1553.76
1522.98
1492.16
1461.32
1430.47
1399.63
1368.81
1338.03
1307.29
1276.62
1246.03
1215.52
1185.12
1154.84
1124.69
1094.68
1064.83
1035.15
1005.66
976.356
947.261
918.385
889.739
861.333
833.179
805.286
777.664
750.323
723.271
696.518
670.07
643.936
618.124
592.639
567.488
542.677
518.212
494.098
470.339
446.94
423.905
401.237
378.939
357.015
335.466
314.295
293.503
273.092
253.064
233.418
214.155
195.276
176.78
158.668
140.938
123.589
106.622
90.0334
73.8231
57.9891
42.5294
27.4419
12.7244
-1.6255
-15.6105
-29.2333
-42.4968
-55.4039
-67.9578
-80.1618
-92.019
-103.533
-114.707
-125.545
-136.05
-146.227
-156.078
-165.609
-174.822
-183.722
-192.313
-200.599
-208.584
-216.272
-223.668
-230.775
-237.598
-244.141
-250.408
-256.404
-262.132
-267.598
-272.805
-277.758
-282.46
-286.917
-291.132
-295.109
-298.853
-302.368
-305.658
-308.726
-311.577
-314.214
-316.641
-318.861
-320.875
-322.689
-324.309
-325.735
-326.954
-327.988
-328.863
-329.526
-329.983
-330.541
-330.884
994.593
994.712
995.146
995.807
996.658
997.697
998.923
1000.34
1001.94
1003.72
1005.69
1007.85
1010.18
1012.7
1015.4
1018.27
1021.33
1024.56
1027.97
1031.55
1035.3
1039.22
1043.3
1047.55
1051.95
1056.51
1061.21
1066.06
1071.04
1076.15
1081.38
1086.73
1092.17
1097.71
1103.34
1109.03
1114.79
1120.59
1126.42
1132.28
1138.13
1143.98
1149.8
1155.59
1161.32
1166.97
1172.52
1177.96
1183.26
1188.41
1193.38
1198.15
1202.71
1207.04
1211.11
1214.92
1218.47
1221.75
1224.75
1227.47
1229.91
1232.03
1233.84
1235.31
1236.45
1237.24
1237.68
1237.77
1237.51
1236.9
1235.95
1234.67
1233.06
1231.14
1228.9
1226.37
1223.55
1220.47
1217.13
1213.54
1209.73
1205.71
1201.49
1197.09
1192.54
1187.84
1183.01
1178.07
1173.04
1167.94
1162.78
1157.58
1152.35
1147.12
1141.89
1136.69
1131.53
1126.42
1121.39
1116.44
1111.6
1106.86
1102.26
1097.8
1093.5
1089.38
1085.43
1081.69
1078.15
1074.85
1071.78
1068.96
1066.41
1064.14
1062.16
1060.5
1059.16
1058.16
1057.48
1057.13
1057.09
1057.38
1058.03
1059.1
1060.67
1062.82
1065.57
1068.85
1072.43
1076.38
1080.78
1085.66
1091.03
1096.9
1103.28
1110.16
1117.56
1125.47
1133.89
1142.83
1152.28
1162.25
1172.72
1183.7
1195.18
1207.15
1219.6
1232.53
1245.93
1259.78
1274.07
1288.79
1303.93
1319.46
1335.38
1351.67
1368.3
1385.26
1402.54
1420.1
1437.94
1456.02
1474.33
1492.85
1511.55
1530.41
1549.41
1568.52
1587.72
1607
1626.32
1645.66
1665
1684.33
1703.61
1722.83
1741.97
1761
1779.92
1798.69
1817.3
1835.74
1853.99
1872.03
1889.85
1907.44
1924.78
1941.86
1958.68
1975.23
1991.49
2007.46
2023.13
2038.51
2053.58
2068.35
2082.81
2096.97
2110.82
2124.37
2137.63
2150.59
2163.26
2175.65
2187.77
2199.63
2211.22
2222.58
2233.69
2244.57
2255.24
2265.7
2275.96
2286.04
2295.94
2305.69
2315.29
2324.76
2334.11
2343.35
2352.51
2361.58
2370.6
2379.56
2388.49
2397.39
2406.29
2415.18
2424.1
2433.04
2442.01
2451.04
2460.14
2469.31
2478.54
2487.86
2497.27
2506.8
2516.38
2526.09
2535.92
2545.88
2555.96
2566.17
2576.51
2586.97
2597.56
2608.27
2619.11
2630.07
2641.15
2652.33
2663.63
2675.03
2686.51
2698.09
2709.74
2721.46
2733.23
2745.05
2756.91
2768.79
2780.68
2792.56
2804.43
2816.26
2828.05
2839.78
2851.43
2862.98
2874.41
2885.73
2896.91
2907.94
2918.8
2929.45
2939.85
2949.98
2959.83
2969.38
2978.68
2987.74
2996.58
3005.17
3013.45
3021.39
3028.96
3036.13
3042.91
3049.26
3055.18
3060.66
3065.68
3070.24
3074.33
3077.94
3081.06
3083.67
3085.78
3087.37
3088.43
3088.97
3088.97
3088.43
3087.35
3085.71
3083.53
3080.79
3077.5
3073.64
3069.23
3064.29
3058.78
3052.7
3046.07
3038.88
3031.15
3022.87
3014.05
3004.68
2994.78
2984.35
2973.39
2961.91
2949.92
2937.41
2924.4
2910.9
2896.9
2882.41
2867.44
2852.01
2836.1
2819.74
2802.93
2785.67
2767.95
2749.8
2731.22
2712.17
2692.71
2672.84
2652.57
2631.9
2610.84
2589.4
2567.57
2545.36
2522.79
2499.85
2476.55
2452.9
2428.91
2404.57
2379.91
2354.91
2329.59
2303.95
2278
2251.73
2225.16
2198.29
2171.13
2143.69
2116
2088.06
2059.9
2031.52
2002.93
1974.14
1945.14
1915.94
1886.55
1856.97
1827.22
1797.31
1767.25
1737.06
1706.78
1676.36
1645.84
1615.23
1584.55
1553.8
1523.01
1492.18
1461.33
1430.48
1399.63
1368.8
1338.01
1307.26
1276.58
1245.98
1215.46
1185.05
1154.76
1124.6
1094.58
1064.72
1035.04
1005.53
976.219
947.116
918.231
889.576
861.161
832.999
805.097
777.468
750.119
723.059
696.298
669.843
643.702
617.882
592.39
567.233
542.415
517.944
493.823
470.058
446.653
423.612
400.939
378.636
356.706
335.152
313.976
293.179
272.764
252.73
233.08
213.812
194.929
176.429
158.312
140.578
123.225
106.254
89.6617
73.4476
57.6097
42.1462
27.055
12.3338
-2.01969
-16.0082
-29.6344
-42.9012
-55.8116
-68.3687
-80.5757
-92.4359
-103.953
-115.13
-125.97
-136.478
-146.657
-156.511
-166.044
-175.259
-184.162
-192.755
-201.042
-209.029
-216.719
-224.116
-231.225
-238.049
-244.593
-250.861
-256.858
-262.588
-268.054
-273.262
-278.215
-282.918
-287.375
-291.591
-295.568
-299.312
-302.827
-306.116
-309.184
-312.034
-314.669
-317.095
-319.314
-321.328
-323.143
-324.764
-326.193
-327.422
-328.464
-329.333
-329.98
-330.408
-330.967
-331.311
993.911
994.049
994.498
995.161
996.009
997.045
998.269
999.682
1001.28
1003.06
1005.03
1007.18
1009.52
1012.03
1014.73
1017.6
1020.65
1023.88
1027.28
1030.86
1034.6
1038.52
1042.59
1046.83
1051.23
1055.78
1060.48
1065.32
1070.29
1075.4
1080.62
1085.96
1091.4
1096.94
1102.56
1108.25
1114
1119.8
1125.63
1131.48
1137.34
1143.19
1149.02
1154.81
1160.55
1166.21
1171.78
1177.23
1182.54
1187.7
1192.68
1197.46
1202.01
1206.33
1210.39
1214.2
1217.75
1221.04
1224.07
1226.81
1229.26
1231.41
1233.24
1234.73
1235.89
1236.7
1237.17
1237.28
1237.04
1236.45
1235.53
1234.26
1232.67
1230.76
1228.54
1226.02
1223.22
1220.14
1216.81
1213.23
1209.42
1205.41
1201.19
1196.8
1192.25
1187.55
1182.73
1177.79
1172.77
1167.66
1162.5
1157.3
1152.08
1146.84
1141.62
1136.42
1131.26
1126.15
1121.12
1116.17
1111.32
1106.59
1101.99
1097.53
1093.23
1089.1
1085.16
1081.42
1077.88
1074.58
1071.51
1068.7
1066.15
1063.88
1061.9
1060.22
1058.87
1057.85
1057.19
1056.9
1056.99
1057.44
1058.27
1059.48
1061.06
1063.04
1065.46
1068.39
1071.82
1075.72
1080.11
1084.98
1090.34
1096.2
1102.57
1109.44
1116.83
1124.73
1133.15
1142.08
1151.53
1161.49
1171.96
1182.93
1194.4
1206.37
1218.83
1231.76
1245.15
1259.01
1273.3
1288.03
1303.17
1318.71
1334.64
1350.94
1367.58
1384.56
1401.84
1419.42
1437.27
1455.37
1473.7
1492.23
1510.95
1529.83
1548.84
1567.98
1587.2
1606.49
1625.84
1645.2
1664.57
1683.92
1703.22
1722.46
1741.62
1760.68
1779.62
1798.41
1817.05
1835.51
1853.78
1871.85
1889.69
1907.3
1924.66
1941.77
1958.61
1975.17
1991.45
2007.44
2023.14
2038.53
2053.62
2068.41
2082.89
2097.06
2110.93
2124.49
2137.76
2150.73
2163.41
2175.81
2187.93
2199.79
2211.39
2222.73
2233.84
2244.72
2255.38
2265.82
2276.08
2286.14
2296.04
2305.78
2315.36
2324.82
2334.16
2343.39
2352.53
2361.6
2370.6
2379.55
2388.46
2397.35
2406.23
2415.12
2424.02
2432.94
2441.91
2450.92
2459.98
2469.12
2478.33
2487.63
2497.02
2506.49
2516.13
2525.86
2535.69
2545.64
2555.72
2565.92
2576.25
2586.71
2597.29
2608.01
2618.84
2629.8
2640.88
2652.07
2663.37
2674.76
2686.26
2697.84
2709.49
2721.22
2733
2744.83
2756.7
2768.59
2780.49
2792.39
2804.27
2816.12
2827.93
2839.67
2851.34
2862.91
2874.37
2885.7
2896.89
2907.93
2918.81
2929.52
2940.05
2950.34
2960.35
2970.09
2979.51
2988.63
2997.45
3005.96
3014.16
3022.04
3029.56
3036.72
3043.48
3049.84
3055.78
3061.27
3066.32
3070.9
3075.01
3078.63
3081.76
3084.39
3086.51
3088.11
3089.19
3089.74
3089.75
3089.22
3088.14
3086.51
3084.33
3081.6
3078.3
3074.45
3070.04
3065.09
3059.56
3053.48
3046.84
3039.65
3031.91
3023.62
3014.79
3005.42
2995.51
2985.07
2974.1
2962.61
2950.6
2938.09
2925.07
2911.54
2897.53
2883.03
2868.04
2852.58
2836.64
2820.24
2803.38
2786.07
2768.32
2750.15
2731.57
2712.57
2693.14
2673.29
2653.03
2632.37
2611.31
2589.87
2568.04
2545.83
2523.26
2500.32
2477.02
2453.37
2429.38
2405.04
2380.37
2355.36
2330.04
2304.41
2278.46
2252.22
2225.69
2198.86
2171.76
2144.37
2116.72
2088.8
2060.63
2032.21
2003.57
1974.72
1945.66
1916.4
1886.96
1857.35
1827.57
1797.63
1767.55
1737.32
1706.98
1676.53
1645.98
1615.35
1584.65
1553.88
1523.06
1492.22
1461.35
1430.47
1399.61
1368.76
1337.95
1307.18
1276.48
1245.86
1215.32
1184.9
1154.58
1124.4
1094.37
1064.49
1034.78
1005.26
975.931
946.81
917.907
889.235
860.803
832.624
804.706
777.06
749.696
722.621
695.845
669.375
643.22
617.386
591.881
566.71
541.88
517.396
493.264
469.487
446.071
423.019
400.335
378.021
356.082
334.518
313.332
292.527
272.102
252.06
232.401
213.126
194.235
175.727
157.603
139.862
122.502
105.524
88.9254
72.705
56.861
41.3915
26.2946
11.5679
-2.79097
-16.7846
-30.4158
-43.6874
-56.6022
-69.1636
-81.3746
-93.2387
-104.759
-115.939
-126.783
-137.294
-147.476
-157.333
-166.868
-176.086
-184.99
-193.585
-201.874
-209.863
-217.554
-224.952
-232.061
-238.886
-245.431
-251.699
-257.696
-263.426
-268.892
-274.099
-279.052
-283.754
-288.21
-292.424
-296.401
-300.144
-303.657
-306.944
-310.011
-312.859
-315.493
-317.917
-320.135
-322.148
-323.96
-325.579
-327.005
-328.229
-329.264
-330.131
-330.778
-331.204
-331.773
-332.134
992.86
993.002
993.453
994.118
994.965
996.002
997.225
998.638
1000.24
1002.02
1003.99
1006.14
1008.47
1010.98
1013.68
1016.55
1019.6
1022.82
1026.22
1029.8
1033.54
1037.45
1041.53
1045.76
1050.16
1054.71
1059.4
1064.24
1069.22
1074.32
1079.55
1084.89
1090.33
1095.87
1101.49
1107.19
1112.95
1118.76
1124.6
1130.46
1136.33
1142.19
1148.03
1153.83
1159.58
1165.25
1170.83
1176.3
1181.63
1186.81
1191.82
1196.63
1201.23
1205.6
1209.72
1213.58
1217.17
1220.49
1223.54
1226.3
1228.76
1230.91
1232.75
1234.26
1235.42
1236.24
1236.72
1236.84
1236.61
1236.04
1235.12
1233.86
1232.28
1230.37
1228.15
1225.63
1222.83
1219.75
1216.41
1212.83
1209.01
1204.99
1200.77
1196.37
1191.8
1187.1
1182.26
1177.32
1172.28
1167.16
1161.99
1156.78
1151.54
1146.3
1141.06
1135.85
1130.68
1125.56
1120.52
1115.56
1110.7
1105.96
1101.34
1096.87
1092.55
1088.41
1084.44
1080.68
1077.13
1073.8
1070.72
1067.88
1065.31
1063.01
1061.01
1059.32
1057.94
1056.88
1056.16
1055.79
1055.78
1056.14
1056.91
1058.1
1059.74
1061.84
1064.4
1067.4
1070.84
1074.73
1079.1
1083.96
1089.3
1095.15
1101.5
1108.36
1115.73
1123.62
1132.03
1140.95
1150.39
1160.34
1170.81
1181.78
1193.25
1205.22
1217.67
1230.6
1244.01
1257.86
1272.17
1286.9
1302.05
1317.61
1333.55
1349.86
1366.52
1383.51
1400.82
1418.41
1436.28
1454.41
1472.76
1491.32
1510.06
1528.97
1548.01
1567.17
1586.43
1605.75
1625.12
1644.52
1663.92
1683.3
1702.64
1721.92
1741.11
1760.2
1779.17
1798
1816.67
1835.17
1853.47
1871.57
1889.44
1907.09
1924.48
1941.62
1958.49
1975.09
1991.4
2007.42
2023.14
2038.56
2053.67
2068.47
2082.96
2097.15
2111.03
2124.6
2137.87
2150.85
2163.54
2175.95
2188.07
2199.93
2211.53
2222.88
2233.98
2244.86
2255.51
2265.95
2276.19
2286.25
2296.14
2305.86
2315.44
2324.88
2334.2
2343.42
2352.55
2361.59
2370.58
2379.51
2388.41
2397.29
2406.15
2415.02
2423.9
2432.81
2441.76
2450.76
2459.81
2468.94
2478.15
2487.44
2496.82
2506.3
2515.89
2525.6
2535.43
2545.37
2555.44
2565.64
2575.97
2586.43
2597.01
2607.73
2618.57
2629.53
2640.61
2651.81
2663.12
2674.53
2686.03
2697.63
2709.3
2721.05
2732.85
2744.7
2756.59
2768.51
2780.43
2792.36
2804.27
2816.16
2827.99
2839.77
2851.47
2863.08
2874.59
2885.97
2897.22
2908.31
2919.22
2929.93
2940.41
2950.65
2960.62
2970.33
2979.79
2988.98
2997.91
3006.54
3014.83
3022.78
3030.35
3037.54
3044.33
3050.72
3056.67
3062.19
3067.26
3071.87
3076
3079.64
3082.79
3085.44
3087.58
3089.2
3090.29
3090.85
3090.87
3090.35
3089.28
3087.66
3085.49
3082.76
3079.47
3075.62
3071.22
3066.25
3060.73
3054.65
3048.01
3040.81
3033.07
3024.77
3015.93
3006.55
2996.63
2986.19
2975.21
2963.71
2951.7
2939.17
2926.14
2912.6
2898.58
2884.06
2869.07
2853.6
2837.65
2821.25
2804.38
2787.07
2769.32
2751.13
2732.51
2713.48
2694.02
2674.15
2653.87
2633.19
2612.11
2590.65
2568.8
2546.58
2523.99
2501.03
2477.71
2454.04
2430.03
2405.67
2380.98
2355.96
2330.61
2304.94
2278.97
2252.68
2226.1
2199.22
2172.06
2144.64
2116.95
2089.02
2060.85
2032.45
2003.83
1974.99
1945.94
1916.69
1887.25
1857.63
1827.84
1797.89
1767.79
1737.55
1707.2
1676.73
1646.16
1615.5
1584.77
1553.97
1523.13
1492.26
1461.36
1430.45
1399.56
1368.68
1337.84
1307.05
1276.32
1245.66
1215.1
1184.64
1154.3
1124.09
1094.03
1064.12
1034.38
1004.83
975.476
946.327
917.398
888.699
860.242
832.037
804.095
776.425
749.036
721.939
695.14
668.649
642.472
616.618
591.092
565.902
541.053
516.551
492.4
468.607
445.174
422.105
399.405
377.077
355.122
333.544
312.345
291.525
271.088
251.033
231.362
212.075
193.172
174.654
156.519
138.767
121.398
104.41
87.8014
71.5717
55.7188
40.2408
25.1355
10.4007
-3.96602
-17.9672
-31.6057
-44.8842
-57.8057
-70.3735
-82.5906
-94.4604
-105.986
-117.172
-128.021
-138.536
-148.723
-158.584
-168.123
-177.344
-186.251
-194.849
-203.141
-211.132
-218.825
-226.225
-233.336
-240.162
-246.707
-252.976
-258.973
-264.702
-270.168
-275.375
-280.326
-285.027
-289.482
-293.694
-297.668
-301.409
-304.919
-308.204
-311.267
-314.113
-316.744
-319.165
-321.379
-323.39
-325.2
-326.816
-328.239
-329.458
-330.486
-331.347
-331.994
-332.42
-332.995
-333.36
991.455
991.591
992.037
992.7
993.549
994.586
995.808
997.219
998.816
1000.6
1002.56
1004.71
1007.04
1009.55
1012.24
1015.11
1018.16
1021.38
1024.78
1028.35
1032.09
1035.99
1040.07
1044.3
1048.69
1053.24
1057.93
1062.77
1067.74
1072.85
1078.07
1083.42
1088.86
1094.41
1100.04
1105.74
1111.51
1117.33
1123.19
1129.07
1134.95
1140.84
1146.7
1152.52
1158.29
1163.99
1169.59
1175.08
1180.43
1185.64
1190.67
1195.51
1200.14
1204.54
1208.71
1212.62
1216.27
1219.65
1222.75
1225.55
1228.05
1230.23
1232.09
1233.62
1234.8
1235.64
1236.13
1236.27
1236.05
1235.49
1234.58
1233.33
1231.75
1229.84
1227.63
1225.11
1222.3
1219.22
1215.87
1212.28
1208.46
1204.43
1200.2
1195.78
1191.21
1186.49
1181.64
1176.69
1171.64
1166.52
1161.33
1156.11
1150.87
1145.61
1140.37
1135.15
1129.97
1124.84
1119.79
1114.82
1109.96
1105.21
1100.58
1096.1
1091.78
1087.62
1083.65
1079.88
1076.32
1072.98
1069.88
1067.03
1064.45
1062.14
1060.13
1058.42
1057.03
1055.97
1055.25
1054.89
1054.89
1055.26
1056.01
1057.16
1058.71
1060.71
1063.17
1066.11
1069.51
1073.38
1077.73
1082.56
1087.88
1093.71
1100.04
1106.89
1114.24
1122.12
1130.51
1139.42
1148.85
1158.79
1169.25
1180.22
1191.69
1203.65
1216.11
1229.04
1242.45
1256.32
1270.63
1285.37
1300.54
1316.11
1332.07
1348.4
1365.08
1382.09
1399.42
1417.05
1434.95
1453.1
1471.49
1490.08
1508.86
1527.8
1546.88
1566.08
1585.38
1604.75
1624.16
1643.6
1663.05
1682.47
1701.86
1721.18
1740.42
1759.56
1778.57
1797.45
1816.16
1834.71
1853.05
1871.19
1889.11
1906.8
1924.24
1941.41
1958.32
1974.95
1991.3
2007.35
2023.1
2038.55
2053.69
2068.52
2083.03
2097.24
2111.14
2124.74
2138.03
2151.02
2163.72
2176.14
2188.27
2200.14
2211.74
2223.09
2234.19
2245.06
2255.71
2266.15
2276.38
2286.43
2296.3
2306.01
2315.57
2325
2334.3
2343.5
2352.61
2361.63
2370.6
2379.51
2388.39
2397.24
2406.08
2414.93
2423.79
2432.67
2441.6
2450.57
2459.61
2468.72
2477.9
2487.17
2496.53
2506
2515.58
2525.27
2535.09
2545.02
2555.09
2565.28
2575.6
2586.05
2596.64
2607.35
2618.19
2629.16
2640.25
2651.46
2662.77
2674.19
2685.71
2697.32
2709.02
2720.78
2732.61
2744.48
2756.4
2768.34
2780.3
2792.26
2804.2
2816.12
2827.99
2839.81
2851.55
2863.21
2874.75
2886.18
2897.47
2908.61
2919.59
2930.39
2940.98
2951.32
2961.4
2971.21
2980.72
2989.93
2998.85
3007.47
3015.77
3023.73
3031.34
3038.56
3045.39
3051.81
3057.8
3063.35
3068.45
3073.09
3077.25
3080.93
3084.1
3086.78
3088.94
3090.58
3091.69
3092.27
3092.31
3091.81
3090.75
3089.14
3086.98
3084.25
3080.97
3077.13
3072.72
3067.76
3062.23
3056.15
3049.5
3042.3
3034.55
3026.25
3017.4
3008.01
2998.08
2987.62
2976.63
2965.11
2953.08
2940.54
2927.49
2913.95
2899.9
2885.37
2870.36
2854.87
2838.92
2822.5
2805.62
2788.29
2770.53
2752.33
2733.7
2714.64
2695.17
2675.28
2654.99
2634.3
2613.21
2591.74
2569.88
2547.64
2525.04
2502.07
2478.74
2455.06
2431.03
2406.66
2381.95
2356.92
2331.56
2305.89
2279.91
2253.63
2227.05
2200.17
2173.02
2145.58
2117.88
2089.92
2061.7
2033.25
2004.58
1975.68
1946.58
1917.29
1887.8
1858.14
1828.31
1798.32
1768.18
1737.91
1707.51
1677.01
1646.4
1615.7
1584.93
1554.1
1523.22
1492.31
1461.37
1430.43
1399.49
1368.58
1337.7
1306.86
1276.1
1245.4
1214.8
1184.3
1153.92
1123.67
1093.57
1063.63
1033.85
1004.26
974.87
945.685
916.72
887.986
859.495
831.256
803.281
775.579
748.159
721.031
694.202
667.682
641.477
615.595
590.043
564.827
539.953
515.426
491.252
467.435
443.98
420.89
398.169
375.821
353.846
332.25
311.032
290.195
269.74
249.669
229.982
210.679
191.761
173.228
155.079
137.313
119.931
102.93
86.3093
70.0677
54.2032
38.7139
23.5978
8.85252
-5.5243
-19.5352
-33.1831
-46.4706
-59.4009
-71.9769
-84.2021
-96.0795
-107.613
-118.805
-129.661
-140.183
-150.375
-160.241
-169.785
-179.011
-187.923
-196.525
-204.821
-212.815
-220.511
-227.914
-235.027
-241.854
-248.401
-254.672
-260.669
-266.399
-271.865
-277.071
-282.022
-286.722
-291.175
-295.386
-299.358
-303.096
-306.604
-309.886
-312.946
-315.789
-318.416
-320.834
-323.045
-325.052
-326.859
-328.471
-329.89
-331.106
-332.129
-332.986
-333.634
-334.058
-334.632
-335
989.708
989.838
990.277
990.939
991.787
992.824
994.045
995.454
997.047
998.826
1000.79
1002.93
1005.26
1007.76
1010.45
1013.31
1016.35
1019.57
1022.96
1026.53
1030.26
1034.16
1038.23
1042.46
1046.84
1051.39
1056.08
1060.91
1065.88
1070.99
1076.22
1081.56
1087.01
1092.56
1098.2
1103.92
1109.7
1115.53
1121.41
1127.31
1133.22
1139.13
1145.01
1150.87
1156.66
1162.39
1168.02
1173.54
1178.94
1184.18
1189.25
1194.13
1198.81
1203.27
1207.48
1211.45
1215.15
1218.58
1221.72
1224.57
1227.11
1229.33
1231.22
1232.78
1233.99
1234.85
1235.36
1235.52
1235.32
1234.77
1233.87
1232.63
1231.06
1229.16
1226.94
1224.42
1221.61
1218.52
1215.17
1211.57
1207.74
1203.69
1199.45
1195.02
1190.43
1185.7
1180.84
1175.87
1170.81
1165.67
1160.47
1155.24
1149.98
1144.71
1139.45
1134.22
1129.02
1123.89
1118.82
1113.84
1108.96
1104.19
1099.55
1095.05
1090.71
1086.54
1082.55
1078.76
1075.17
1071.81
1068.69
1065.82
1063.2
1060.87
1058.82
1057.08
1055.65
1054.55
1053.79
1053.38
1053.34
1053.69
1054.43
1055.58
1057.16
1059.17
1061.62
1064.52
1067.89
1071.72
1076.04
1080.84
1086.14
1091.94
1098.25
1105.07
1112.4
1120.26
1128.63
1137.53
1146.94
1156.87
1167.32
1178.28
1189.75
1201.71
1214.17
1227.11
1240.52
1254.39
1268.72
1283.48
1298.66
1314.25
1330.23
1346.58
1363.29
1380.33
1397.7
1415.36
1433.29
1451.48
1469.91
1488.54
1507.36
1526.35
1545.48
1564.73
1584.08
1603.5
1622.97
1642.46
1661.96
1681.44
1700.88
1720.26
1739.56
1758.76
1777.83
1796.76
1815.54
1834.13
1852.54
1870.73
1888.71
1906.45
1923.93
1941.16
1958.12
1974.8
1991.19
2007.29
2023.08
2038.57
2053.74
2068.6
2083.15
2097.39
2111.31
2124.93
2138.24
2151.25
2163.97
2176.39
2188.54
2200.41
2212.01
2223.36
2234.46
2245.32
2255.96
2266.39
2276.61
2286.64
2296.49
2306.18
2315.72
2325.13
2334.41
2343.58
2352.66
2361.67
2370.6
2379.49
2388.33
2397.16
2405.97
2414.79
2423.62
2432.48
2441.38
2450.33
2459.34
2468.42
2477.57
2486.82
2496.17
2505.62
2515.18
2524.86
2534.65
2544.58
2554.63
2564.81
2575.13
2585.58
2596.16
2606.88
2617.72
2628.7
2639.79
2651.01
2662.34
2673.78
2685.32
2696.95
2708.67
2720.46
2732.31
2744.22
2756.17
2768.16
2780.15
2792.15
2804.14
2816.11
2828.03
2839.9
2851.7
2863.41
2875.01
2886.5
2897.84
2909.03
2920.05
2930.88
2941.5
2951.88
2962.03
2971.91
2981.52
2990.84
2999.86
3008.56
3016.93
3024.95
3032.6
3039.87
3046.75
3053.21
3059.25
3064.85
3069.99
3074.67
3078.87
3082.58
3085.79
3088.5
3090.69
3092.36
3093.5
3094.1
3094.16
3093.67
3092.63
3091.04
3088.88
3086.17
3082.89
3079.05
3074.65
3069.68
3064.16
3058.06
3051.41
3044.21
3036.44
3028.13
3019.27
3009.86
2999.92
2989.44
2978.44
2966.91
2954.86
2942.3
2929.23
2915.66
2901.6
2887.04
2872.01
2856.5
2840.52
2824.08
2807.18
2789.83
2772.04
2753.82
2735.16
2716.08
2696.59
2676.67
2656.36
2635.64
2614.53
2593.03
2571.15
2548.89
2526.26
2503.26
2479.91
2456.2
2432.14
2407.75
2383.01
2357.95
2332.56
2306.86
2280.84
2254.52
2227.91
2201
2173.82
2146.36
2118.64
2090.66
2062.44
2033.98
2005.29
1976.38
1947.26
1917.94
1888.42
1858.73
1828.86
1798.83
1768.66
1738.34
1707.9
1677.35
1646.7
1615.96
1585.14
1554.27
1523.34
1492.38
1461.39
1430.4
1399.42
1368.45
1337.52
1306.64
1275.82
1245.08
1214.43
1183.88
1153.45
1123.15
1093
1063.01
1033.19
1003.55
974.113
944.883
915.873
887.095
858.561
830.28
802.264
774.521
747.062
719.895
693.03
666.473
640.233
614.316
588.731
563.482
538.577
514.02
489.816
465.971
442.488
419.371
396.624
374.25
352.251
330.631
309.39
288.531
268.055
247.963
228.256
208.933
189.997
171.445
153.278
135.496
118.097
101.08
84.4436
68.1869
52.3079
36.8046
21.6748
6.91645
-7.47304
-21.4962
-35.1558
-48.4547
-61.3958
-73.9823
-86.2175
-98.1045
-109.647
-120.848
-131.712
-142.241
-152.441
-162.314
-171.865
-181.097
-190.015
-198.622
-206.922
-214.921
-222.621
-230.026
-237.142
-243.973
-250.522
-256.793
-262.792
-268.523
-273.989
-279.195
-284.145
-288.844
-293.295
-297.504
-301.474
-305.21
-308.715
-311.994
-315.05
-317.889
-320.513
-322.926
-325.133
-327.136
-328.939
-330.546
-331.961
-333.174
-334.194
-335.048
-335.695
-336.115
-336.686
-337.058
987.627
987.753
988.19
988.851
989.697
990.733
991.95
993.355
994.945
996.718
998.674
1000.81
1003.13
1005.63
1008.31
1011.16
1014.2
1017.41
1020.79
1024.34
1028.07
1031.96
1036.02
1040.24
1044.62
1049.16
1053.84
1058.67
1063.64
1068.75
1073.98
1079.33
1084.78
1090.34
1095.99
1101.72
1107.52
1113.37
1119.27
1125.19
1131.13
1137.07
1142.99
1148.87
1154.71
1160.47
1166.15
1171.71
1177.15
1182.44
1187.56
1192.5
1197.24
1201.75
1206.03
1210.06
1213.82
1217.31
1220.5
1223.4
1225.99
1228.25
1230.18
1231.77
1233.02
1233.91
1234.44
1234.62
1234.44
1233.91
1233.02
1231.79
1230.23
1228.33
1226.11
1223.59
1220.78
1217.68
1214.32
1210.71
1206.87
1202.81
1198.55
1194.11
1189.5
1184.75
1179.88
1174.89
1169.81
1164.65
1159.44
1154.19
1148.92
1143.64
1138.36
1133.12
1127.91
1122.76
1117.68
1112.68
1107.79
1103.01
1098.35
1093.84
1089.48
1085.29
1081.29
1077.48
1073.87
1070.49
1067.35
1064.45
1061.81
1059.45
1057.38
1055.61
1054.16
1053.03
1052.24
1051.81
1051.73
1052.04
1052.73
1053.82
1055.34
1057.3
1059.71
1062.57
1065.9
1069.7
1073.98
1078.75
1084.02
1089.78
1096.06
1102.85
1110.16
1117.99
1126.35
1135.22
1144.62
1154.54
1164.98
1175.93
1187.39
1199.35
1211.81
1224.75
1238.17
1252.06
1266.4
1281.17
1296.37
1311.99
1327.99
1344.37
1361.11
1378.19
1395.59
1413.29
1431.27
1449.51
1467.98
1486.67
1505.55
1524.59
1543.78
1563.09
1582.5
1601.98
1621.51
1641.07
1660.64
1680.19
1699.7
1719.15
1738.52
1757.78
1776.93
1795.93
1814.77
1833.44
1851.91
1870.17
1888.21
1906.01
1923.56
1940.85
1957.87
1974.6
1991.05
2007.19
2023.03
2038.56
2053.78
2068.68
2083.27
2097.54
2111.5
2125.14
2138.48
2151.51
2164.24
2176.69
2188.84
2200.72
2212.33
2223.68
2234.78
2245.64
2256.27
2266.68
2276.89
2286.9
2296.73
2306.4
2315.92
2325.3
2334.55
2343.7
2352.75
2361.72
2370.62
2379.47
2388.29
2397.08
2405.86
2414.64
2423.44
2432.26
2441.13
2450.04
2459.02
2468.07
2477.2
2486.42
2495.74
2505.16
2514.7
2524.36
2534.14
2544.05
2554.09
2564.26
2574.57
2585.01
2595.59
2606.31
2617.16
2628.14
2639.25
2650.48
2661.82
2673.28
2684.85
2696.5
2708.25
2720.08
2731.97
2743.92
2755.91
2767.94
2779.98
2792.03
2804.08
2816.1
2828.08
2840.01
2851.87
2863.65
2875.32
2886.88
2898.31
2909.58
2920.68
2931.6
2942.3
2952.78
2963
2972.95
2982.62
2992
3001.08
3009.85
3018.28
3026.36
3034.08
3041.41
3048.35
3054.87
3060.96
3066.61
3071.81
3076.53
3080.78
3084.54
3087.79
3090.54
3092.77
3094.47
3095.64
3096.27
3096.36
3095.89
3094.87
3093.29
3091.15
3088.45
3085.18
3081.34
3076.94
3071.98
3066.44
3060.35
3053.69
3046.47
3038.7
3030.37
3021.5
3012.08
3002.12
2991.62
2980.6
2969.04
2956.97
2944.39
2931.3
2917.71
2903.62
2889.04
2873.98
2858.45
2842.45
2825.98
2809.06
2791.68
2773.87
2755.62
2736.94
2717.84
2698.32
2678.38
2658.04
2637.3
2616.17
2594.64
2572.74
2550.46
2527.8
2504.78
2481.41
2457.68
2433.6
2409.18
2384.42
2359.34
2333.93
2308.2
2282.16
2255.82
2229.18
2202.24
2175.03
2147.53
2119.77
2091.75
2063.48
2034.97
2006.24
1977.28
1948.11
1918.75
1889.18
1859.44
1829.53
1799.45
1769.22
1738.86
1708.37
1677.77
1647.06
1616.27
1585.4
1554.46
1523.48
1492.46
1461.42
1430.37
1399.33
1368.3
1337.31
1306.37
1275.49
1244.69
1213.98
1183.37
1152.88
1122.53
1092.32
1062.27
1032.39
1002.7
973.204
943.919
914.856
886.025
857.439
829.108
801.042
773.251
745.745
718.532
691.621
665.021
638.738
612.781
587.155
561.868
536.925
512.331
488.092
464.212
440.696
417.547
394.769
372.365
350.337
328.688
307.42
286.534
266.033
245.916
226.184
206.839
187.88
169.306
151.119
133.316
115.897
98.8605
82.206
65.9314
50.035
34.515
19.3691
4.59506
-9.80952
-23.8473
-37.5209
-50.8333
-63.7874
-76.3864
-88.6335
-100.532
-112.085
-123.297
-134.171
-144.71
-154.918
-164.8
-174.359
-183.598
-192.523
-201.136
-209.442
-217.446
-225.151
-232.561
-239.68
-246.514
-253.065
-259.339
-265.34
-271.071
-276.538
-281.744
-286.693
-291.391
-295.841
-300.048
-304.015
-307.748
-311.25
-314.525
-317.578
-320.412
-323.032
-325.441
-327.643
-329.641
-331.439
-333.042
-334.452
-335.662
-336.677
-337.527
-338.174
-338.591
-339.158
-339.533
985.215
985.339
985.775
986.435
987.279
988.312
989.525
990.925
992.509
994.275
996.224
998.353
1000.66
1003.15
1005.82
1008.66
1011.68
1014.88
1018.25
1021.79
1025.51
1029.39
1033.44
1037.65
1042.02
1046.55
1051.22
1056.05
1061.02
1066.12
1071.35
1076.7
1082.17
1087.74
1093.4
1099.14
1104.96
1110.84
1116.76
1122.71
1128.68
1134.66
1140.61
1146.54
1152.42
1158.23
1163.96
1169.57
1175.07
1180.42
1185.6
1190.6
1195.4
1199.98
1204.33
1208.42
1212.26
1215.81
1219.07
1222.02
1224.66
1226.98
1228.95
1230.59
1231.87
1232.8
1233.36
1233.57
1233.41
1232.9
1232.03
1230.81
1229.25
1227.36
1225.15
1222.62
1219.8
1216.7
1213.33
1209.7
1205.85
1201.77
1197.49
1193.04
1188.41
1183.65
1178.75
1173.74
1168.64
1163.47
1158.24
1152.97
1147.68
1142.38
1137.09
1131.83
1126.61
1121.44
1116.34
1111.33
1106.42
1101.62
1096.95
1092.41
1088.04
1083.82
1079.79
1075.96
1072.33
1068.92
1065.74
1062.81
1060.15
1057.75
1055.64
1053.83
1052.33
1051.17
1050.34
1049.86
1049.75
1050.02
1050.68
1051.75
1053.23
1055.15
1057.51
1060.33
1063.61
1067.37
1071.6
1076.33
1081.56
1087.29
1093.53
1100.29
1107.57
1115.37
1123.7
1132.55
1141.93
1151.83
1162.26