/*--------------------------------*- C++ -*----------------------------------*\
| =========                 |                                                 |
| \\      /  F ield         | OpenFOAM: The Open Source CFD Toolbox           |
|  \\    /   O peration     | Version:  v2006                                 |
|   \\  /    A nd           | Website:  www.openfoam.com                      |
|    \\/     M anipulation  |                                                 |
\*---------------------------------------------------------------------------*/
FoamFile
{
    version     2.0;
    format      ascii;
    class       surfaceScalarField;
    location    "8.5";
    object      phi;
}
// * * * * * * * * * * * * * * * * * * * * * * * * * * * * * * * * * * * * * //

dimensions      [0 3 -1 0 0 0 0];
oriented        oriented;


internalField   nonuniform List<scalar> 
299200
(
0.000803542
-0.000803542
0.00172259
-0.000919045
0.00264128
-0.000918697
0.0035457
-0.000904416
0.00444287
-0.000897174
0.00533468
-0.00089181
0.006222
-0.000887316
0.00710472
-0.000882724
0.00798243
-0.000877707
0.00885484
-0.000872413
0.00972165
-0.000866804
0.0105827
-0.000861008
0.0114377
-0.000855041
0.0122867
-0.000849042
0.0131298
-0.000843068
0.013967
-0.00083716
0.0147983
-0.00083129
0.0156237
-0.000825468
0.0164432
-0.000819514
0.0172567
-0.000813485
0.018064
-0.000807315
0.018865
-0.000800971
0.0196593
-0.000794336
0.0204467
-0.000787347
0.0212266
-0.000779914
0.0219986
-0.000771988
0.0227621
-0.000763468
0.0235164
-0.000754288
0.0242608
-0.000744454
0.024995
-0.000734204
0.0257189
-0.000723883
0.0264327
-0.000713798
0.0271367
-0.000704047
0.0278313
-0.000694602
0.0285169
-0.000685526
0.0291935
-0.000676668
0.0298614
-0.00066786
0.03052
-0.000658656
0.0311683
-0.000648274
0.0318045
-0.000636205
0.0324253
-0.000620796
0.033028
-0.000602645
0.0336102
-0.000582212
0.0341708
-0.000560571
0.0347106
-0.000539839
0.0352315
-0.000520944
0.0357369
-0.000505343
0.0362297
-0.000492837
0.0367126
-0.000482855
0.0371872
-0.00047459
0.0376542
-0.000467063
0.0381137
-0.00045944
0.0385647
-0.000451081
0.0390062
-0.000441502
0.0394366
-0.000430318
0.0398538
-0.000417227
0.0402558
-0.000402031
0.0406406
-0.000384776
0.0410062
-0.000365577
0.0413509
-0.00034474
0.0416731
-0.000322215
0.0419721
-0.000298924
0.0422497
-0.000277676
0.0425117
-0.000261967
0.0427671
-0.000255382
0.0430272
-0.00026017
0.0433033
-0.000276043
0.0436033
-0.00030002
0.0439306
-0.000327242
0.0442825
-0.000351964
0.0446508
-0.000368308
0.0450223
-0.000371481
0.0453815
-0.000359177
0.0457139
-0.000332409
0.0460091
-0.000295219
0.0462624
-0.000253314
0.0464747
-0.000212243
0.0466505
-0.000175853
0.0467962
-0.000145669
0.0469175
-0.000121304
0.047019
-0.000101475
0.0471039
-8.49696e-05
0.0471751
-7.11213e-05
0.0472348
-5.97554e-05
0.0472857
-5.08886e-05
0.0473302
-4.44649e-05
0.0473704
-4.02631e-05
0.0474084
-3.79475e-05
0.0474455
-3.71647e-05
0.0474832
-3.76091e-05
0.0475222
-3.90331e-05
0.0475634
-4.12247e-05
0.0476074
-4.39835e-05
0.0476545
-4.71169e-05
0.047705
-5.04567e-05
0.0477589
-5.38903e-05
0.0478163
-5.73897e-05
0.0478773
-6.10251e-05
0.0479422
-6.49477e-05
0.0480116
-6.93323e-05
0.0480858
-7.4281e-05
0.0481655
-7.97118e-05
0.0482508
-8.52747e-05
0.0483412
-9.03416e-05
0.0484353
-9.41065e-05
0.0485311
-9.57997e-05
0.0486261
-9.4979e-05
0.0487179
-9.18212e-05
0.0488052
-8.73222e-05
0.0488885
-8.33339e-05
0.0489709
-8.24093e-05
0.049058
-8.70401e-05
0.0491568
-9.8773e-05
0.049274
-0.000117203
0.0494131
-0.000139123
0.0495716
-0.000158509
0.0497393
-0.000167689
0.0498988
-0.000159563
0.0500286
-0.00012973
0.0501076
-7.90423e-05
0.0501168
-9.15986e-06
0.0500477
6.9078e-05
0.0499237
0.000123968
0.0497812
0.000142514
0.0496466
0.000134602
0.0495345
0.000112144
0.0494501
8.4395e-05
0.0493939
5.6161e-05
0.0493653
2.85972e-05
0.0493655
-2.04171e-07
0.0493974
-3.19359e-05
0.0494641
-6.66826e-05
0.0495657
-0.000101593
0.0497013
-0.000135566
0.0498695
-0.000168168
0.0500686
-0.000199118
0.0502968
-0.000228248
0.0505523
-0.000255485
0.0508331
-0.00028083
0.0511375
-0.000304335
0.0514636
-0.00032608
0.0518097
-0.000346164
0.0521744
-0.000364695
0.0525562
-0.000381788
0.0529538
-0.000397564
0.0533659
-0.000412144
0.0537916
-0.00042565
0.0542298
-0.000438199
0.0546797
-0.000449898
0.0551405
-0.000460843
0.0556116
-0.000471117
0.0560924
-0.000480792
0.0565823
-0.000489929
0.0570809
-0.000498584
0.0575877
-0.000506812
0.0581024
-0.00051467
0.0586246
-0.000522216
0.0591541
-0.000529504
0.0596907
-0.000536575
0.0602341
-0.000543447
0.0607842
-0.000550104
0.0613407
-0.000556492
0.0619033
-0.000562519
0.0624713
-0.000568074
0.0630444
-0.000573043
0.0636217
-0.000577349
0.0642027
-0.000580971
0.0647867
-0.000583978
0.0653732
-0.000586521
0.065962
-0.000588826
0.0665532
-0.000591153
0.0671469
-0.000593752
0.0677437
-0.000596815
0.0683442
-0.000600447
0.0689488
-0.000604647
0.0695582
-0.000609322
0.0701725
-0.000614307
0.0707919
-0.000619411
0.0714163
-0.000624458
0.0720457
-0.000629331
0.0726797
-0.000634014
0.0733183
-0.000638612
0.0739617
-0.000643364
0.0746103
-0.00064862
0.0752651
-0.000654806
0.0759275
-0.000662397
0.0765994
-0.000671911
0.0772834
-0.000683977
0.0779827
-0.000699322
0.078701
-0.000718337
0.0794405
-0.000739489
0.0801959
-0.000755361
0.0809413
-0.00074546
0.0816101
-0.000668809
0.0820821
-0.000471936
0.0822403
-0.000158241
0.0820789
0.00016147
0.0817616
0.000317211
0.0814298
0.000331848
0.0811284
0.000301421
0.0808609
0.000267458
0.0806244
0.000236562
0.0804222
0.000202145
0.0802617
0.000160517
0.0801464
0.000115318
0.0800718
7.45272e-05
0.0800268
4.50022e-05
0.0799989
2.79762e-05
0.0799801
1.87744e-05
0.0799694
1.0691e-05
0.0799716
-2.24666e-06
0.079994
-2.23363e-05
0.0800431
-4.90983e-05
0.0801226
-7.95125e-05
0.0802324
-0.000109852
0.0803707
-0.000138244
0.0805332
-0.000162519
0.0807151
-0.00018193
0.0809123
-0.000197186
0.0811214
-0.00020903
0.0813398
-0.000218447
0.081566
-0.000226145
0.0817984
-0.000232432
0.0820357
-0.000237274
0.0822761
-0.000240454
0.0825178
-0.000241712
0.0827587
-0.000240831
0.0829963
-0.00023767
0.0832285
-0.000232152
0.0834527
-0.000224238
0.0836666
-0.000213899
0.0838677
-0.000201092
0.0840534
-0.00018573
0.084221
-0.000167516
0.0843667
-0.000145738
0.0844869
-0.000120186
0.084575
-8.81676e-05
0.0846101
-3.50965e-05
0.0845609
4.92651e-05
0.0844267
0.000134138
0.0842387
0.00018808
0.0840293
0.000209387
0.0838201
0.000209207
0.0836201
0.000199916
0.0834308
0.000189348
0.0832506
0.000180177
0.0830787
0.000171952
0.0829151
0.000163555
0.0827608
0.000154319
0.0826167
0.000144071
0.0824839
0.000132793
0.0823635
0.000120403
0.0822567
0.000106858
0.0821642
9.24274e-05
0.0820863
7.79261e-05
0.0820216
6.47435e-05
0.081967
5.46067e-05
0.0819178
4.91208e-05
0.0818686
4.92496e-05
0.0818143
5.42471e-05
0.0817512
6.31587e-05
0.0816769
7.43015e-05
0.0815911
8.57776e-05
0.081495
9.61048e-05
0.0813905
0.00010453
0.0812794
0.000111071
0.0811631
0.000116285
0.0810422
0.000120923
0.0809166
0.000125634
0.0807858
0.000130811
0.0806492
0.000136565
0.0805063
0.000142845
0.0803566
0.000149789
0.0802
0.00015653
0.080036
0.000164006
0.0798643
0.000171728
0.0796846
0.000179676
0.0794967
0.000187955
0.0793
0.000196607
0.0790944
0.000205627
0.0788794
0.000215003
0.0786547
0.000224722
0.0784199
0.000234775
0.0781748
0.000245159
0.0779189
0.000255872
0.077652
0.000266914
0.0773737
0.000278289
0.0770837
0.000289996
0.0767817
0.000302038
0.0764672
0.000314419
0.0761401
0.000327144
0.0757999
0.000340217
0.0754462
0.000353646
0.0750788
0.000367436
0.0746972
0.00038159
0.0743011
0.000396113
0.0738901
0.000411006
0.0734638
0.000426273
0.0730219
0.000441915
0.072564
0.000457935
0.0720896
0.000474334
0.0715985
0.00049111
0.0710903
0.00050826
0.0705645
0.000525777
0.0700208
0.000543653
0.0694589
0.000561881
0.0688785
0.000580452
0.0682791
0.000599355
0.0676606
0.000618579
0.0670225
0.000638105
0.0663645
0.000657916
0.0656865
0.00067799
0.0649882
0.000698307
0.0642694
0.000718842
0.0635298
0.000739569
0.0627694
0.000760457
0.0619879
0.000781472
0.0611853
0.000802579
0.0603616
0.00082374
0.0595167
0.000844911
0.0586506
0.00086605
0.0577635
0.000887115
0.0568554
0.000908064
0.0559266
0.000928853
0.0549772
0.000949433
0.0540074
0.000969747
0.0530177
0.000989742
0.0520083
0.00100937
0.0509797
0.00102859
0.0499324
0.00104734
0.0488668
0.00106556
0.0477836
0.00108317
0.0466835
0.00110012
0.0455671
0.00111638
0.0444352
0.00113189
0.0432886
0.00114664
0.042128
0.00116064
0.0409541
0.0011739
0.0397676
0.00118644
0.0385694
0.00119824
0.0373601
0.00120923
0.0361409
0.00121927
0.0349128
0.00122812
0.0336773
0.00123543
0.0324365
0.00124078
0.0311929
0.00124363
0.0299492
0.00124372
0.0287084
0.00124083
0.0274733
0.00123506
0.026246
0.00122728
0.0250278
0.00121819
0.0238193
0.00120854
0.02262
0.00119929
0.0214292
0.0011908
0.0202464
0.0011828
0.0190711
0.00117532
0.0179034
0.00116772
0.0167438
0.00115953
0.0155933
0.0011505
0.0144529
0.00114046
0.0133234
0.00112944
0.0122058
0.0011176
0.0111007
0.00110516
0.0100084
0.00109228
0.00892941
0.00107898
0.00786421
0.00106521
0.00681334
0.00105087
0.00577752
0.00103582
0.00475754
0.00101998
0.0037542
0.00100334
0.00276826
0.000985946
0.00180041
0.000967847
0.000851287
0.000949124
-7.85414e-05
0.000929828
-0.00098856
0.000910019
-0.00187828
0.000889716
-0.00274721
0.000868938
-0.00359491
0.000847701
-0.00442094
0.00082603
-0.00522491
0.000803968
-0.00600648
0.000781569
-0.00676538
0.0007589
-0.00750142
0.000736035
-0.00821445
0.000713031
-0.00890436
0.000689909
-0.00957101
0.000666651
-0.0102142
0.000643228
-0.0108339
0.000619614
-0.0114296
0.000595792
-0.0120014
0.000571757
-0.0125489
0.000547514
-0.013072
0.000523083
-0.0135705
0.000498488
-0.0140442
0.000473756
-0.0144932
0.000448923
-0.0149173
0.000424089
-0.0153167
0.000399437
-0.0156918
0.00037507
-0.0160423
0.000350579
-0.016367
0.00032463
-0.0166624
0.000295478
-0.0169253
0.000262895
-0.0171547
0.000229366
-0.0173525
0.000197804
-0.0175213
0.000168814
-0.017663
0.000141688
-0.0177791
0.000116056
-0.0178707
9.16501e-05
-0.017939
6.83025e-05
-0.0179849
4.58824e-05
-0.0180092
2.43268e-05
-0.0180132
3.98709e-06
-0.0179974
-1.57871e-05
-0.0179632
-3.42553e-05
-0.0179111
-5.2111e-05
-0.0178417
-6.93934e-05
-0.0177556
-8.60993e-05
-0.0176534
-0.000102219
-0.0175356
-0.000117741
-0.017403
-0.000132653
-0.017256
-0.000146939
-0.0170954
-0.000160583
-0.0169219
-0.000173564
-0.016736
-0.00018586
-0.0165386
-0.000197451
-0.0163302
-0.000208322
-0.0161118
-0.000218455
-0.015884
-0.00022779
-0.0156478
-0.000236174
-0.0154045
-0.000243302
-0.0151558
-0.000248736
-0.0149037
-0.000252075
-0.0146505
-0.000253231
-0.0143978
-0.000252681
-0.0141463
-0.00025145
-0.0138956
-0.000250757
-0.0136441
-0.000251477
-0.0133904
-0.000253761
-0.0131333
-0.000257061
-0.0128728
-0.000260533
-0.0126093
-0.000263506
-0.0123435
-0.000265717
-0.0120763
-0.000267246
-0.011808
-0.000268296
-0.011539
-0.00026903
-0.0112694
-0.000269525
-0.0109996
-0.000269797
-0.0107298
-0.000269838
-0.0104602
-0.000269632
-0.010191
-0.000269159
-0.00992262
-0.000268393
-0.00965532
-0.000267302
-0.00938946
-0.000265855
-0.00912544
-0.000264025
-0.00886363
-0.000261804
-0.00860443
-0.000259204
-0.00834817
-0.000256256
-0.00809518
-0.000252998
-0.00784571
-0.000249467
-0.00760001
-0.000245698
-0.00735828
-0.000241729
-0.00712069
-0.000237597
-0.00688736
-0.00023333
-0.0066584
-0.000228958
-0.00643388
-0.000224515
-0.00621385
-0.000220037
-0.00599829
-0.00021556
-0.00578717
-0.000211117
-0.00558044
-0.00020673
-0.00537803
-0.000202413
-0.00517983
-0.000198192
-0.00498572
-0.000194109
-0.00479552
-0.000190202
-0.00460903
-0.000186492
-0.00442605
-0.000182981
-0.00424638
-0.000179668
-0.00406981
-0.000176568
-0.00389612
-0.000173693
-0.00372508
-0.00017104
-0.00355648
-0.000168606
-0.00339008
-0.000166391
-0.00322566
-0.000164423
-0.00306293
-0.000162728
-0.0029016
-0.000161333
-0.00274133
-0.000160268
-0.0025818
-0.000159533
-0.00242276
-0.000159037
-0.00226412
-0.000158645
-0.00210579
-0.000158324
-0.00194763
-0.000158163
-0.00178907
-0.000158557
-0.00162906
-0.000160013
-0.00146593
-0.000163125
-0.00129612
-0.000169815
-0.00111027
-0.000185849
-0.000888643
-0.000221627
-0.000605738
-0.000282905
-0.000264616
-0.000341122
8.31786e-06
-0.000272934
8.31786e-06
0.000485747
-0.00128929
0.00100818
-0.00144148
0.00150104
-0.00141156
0.00198698
-0.00139035
0.00247222
-0.00138241
0.00295487
-0.00137446
0.00343438
-0.00136683
0.00391068
-0.00135903
0.00438401
-0.00135104
0.00485481
-0.00134321
0.00532371
-0.00133571
0.0057916
-0.00132889
0.00625902
-0.00132247
0.00672706
-0.00131708
0.00719602
-0.00131202
0.00766615
-0.00130729
0.0081376
-0.00130274
0.00861013
-0.001298
0.0090837
-0.00129309
0.00955742
-0.0012872
0.0100306
-0.0012805
0.0105025
-0.00127282
0.0109721
-0.00126401
0.0114386
-0.00125378
0.0119006
-0.00124196
0.012357
-0.0012284
0.0128071
-0.00121353
0.0132505
-0.00119769
0.0136882
-0.00118217
0.0141225
-0.00116845
0.0145568
-0.00115824
0.0149949
-0.0011519
0.015439
-0.00114812
0.015889
-0.00114457
0.016342
-0.00113859
0.0167925
-0.00112713
0.017232
-0.00110738
0.0176496
-0.00107622
0.0180341
-0.00103281
0.0183768
-0.00097892
0.0186767
-0.000920664
0.0189408
-0.000866729
0.0191843
-0.000825735
0.019428
-0.000804297
0.019694
-0.000805822
0.0200021
-0.000829055
0.0203623
-0.000865544
0.0207711
-0.000901582
0.0212193
-0.000931079
0.0216953
-0.000950629
0.0221884
-0.000960162
0.0226903
-0.000961321
0.0231954
-0.000956195
0.0237004
-0.000946512
0.0242032
-0.000933118
0.0247019
-0.000915949
0.0251943
-0.000894347
0.0256773
-0.000867781
0.0261477
-0.00083602
0.0266023
-0.000799335
0.027039
-0.000758928
0.0274575
-0.00071742
0.0278578
-0.000677993
0.0282399
-0.000644063
0.0286032
-0.000618674
0.0289467
-0.000603627
0.0292695
-0.000598823
0.0295716
-0.000602118
0.0298541
-0.00060977
0.0301191
-0.000616966
0.0303691
-0.000618285
0.0306072
-0.000609623
0.0308372
-0.000589178
0.0310623
-0.000557546
0.0312847
-0.000517595
0.031505
-0.00047359
0.0317227
-0.000429944
0.0319369
-0.000390011
0.0321467
-0.000355473
0.0323518
-0.000326493
0.0325527
-0.000302364
0.03275
-0.000282197
0.0329442
-0.000265337
0.0331359
-0.000251436
0.0333253
-0.000240321
0.0335127
-0.000231841
0.0336982
-0.000225782
0.0338821
-0.000221863
0.0340647
-0.000219774
0.0342463
-0.000219213
0.0344272
-0.000219915
0.0346076
-0.000221667
0.034788
-0.000224317
0.0349686
-0.00022779
0.0351503
-0.00023208
0.0353336
-0.00023723
0.0355195
-0.000243275
0.0357086
-0.000250174
0.0359015
-0.000257758
0.0360978
-0.000265692
0.036297
-0.000273484
0.0364978
-0.000280537
0.0366988
-0.000286255
0.0368987
-0.0002902
0.0370969
-0.000292278
0.037294
-0.000292903
0.037492
-0.000293074
0.0376946
-0.000294333
0.0379058
-0.000298575
0.0381303
-0.000307795
0.0383716
-0.000323697
0.0386316
-0.000347041
0.0389097
-0.000376935
0.0392026
-0.000410123
0.039504
-0.000440517
0.039805
-0.00045948
0.0400945
-0.000457198
0.0403601
-0.000425097
0.0405892
-0.000358894
0.0407715
-0.000261322
0.0409082
-0.00014588
0.0409996
-2.2264e-05
0.0410373
8.62304e-05
0.0410081
0.000171702
0.0409254
0.00021736
0.0408156
0.000221894
0.0407077
0.000192277
0.0406244
0.000139445
0.0405789
7.41761e-05
0.0405734
5.25642e-06
0.0406006
-5.91094e-05
0.0406534
-0.000119558
0.0407263
-0.000174428
0.040815
-0.000224247
0.0409166
-0.000269771
0.0410292
-0.000311767
0.0411518
-0.000350835
0.0412837
-0.000387397
0.0414246
-0.000421731
0.0415743
-0.000454023
0.0417326
-0.000484418
0.0418995
-0.000513053
0.0420749
-0.00054007
0.0422587
-0.000565626
0.0424511
-0.000589882
0.0426519
-0.000612992
0.0428614
-0.0006351
0.0430795
-0.000656328
0.0433064
-0.000676783
0.0435421
-0.000696556
0.0437867
-0.000715732
0.0440403
-0.000734395
0.044303
-0.000752627
0.0445749
-0.000770503
0.0448562
-0.000788079
0.0451469
-0.000805374
0.045447
-0.000822357
0.0457565
-0.000838937
0.0460749
-0.000854973
0.0464017
-0.000870302
0.0467364
-0.00088478
0.0470782
-0.000898348
0.0474268
-0.000911084
0.047782
-0.000923252
0.0481443
-0.000935315
0.0485148
-0.000947897
0.0488955
-0.000961705
0.049289
-0.000977405
0.0496979
-0.000995488
0.0501253
-0.00101616
0.0505734
-0.00103927
0.051044
-0.00106434
0.0515378
-0.00109061
0.0520545
-0.0011172
0.0525931
-0.00114325
0.0531518
-0.00116803
0.0537286
-0.00119105
0.0543213
-0.0012121
0.054928
-0.00123122
0.0555474
-0.0012487
0.0561784
-0.00126501
0.0568205
-0.00128076
0.0574738
-0.00129667
0.0581387
-0.00131353
0.0588162
-0.00133223
0.0595076
-0.00135381
0.0602152
-0.00137956
0.0609424
-0.00141115
0.0616938
-0.00145071
0.0624758
-0.00150033
0.0632969
-0.00156061
0.0641691
-0.0016276
0.0651118
-0.00168811
0.0661589
-0.00171592
0.0673638
-0.0016768
0.0687545
-0.00154893
0.070252
-0.00133608
0.0716709
-0.0011017
0.0729194
-0.000916641
0.0740158
-0.000794941
0.0749978
-0.000714591
0.0758856
-0.00065126
0.0766818
-0.000593996
0.0773829
-0.000540651
0.0779896
-0.000491299
0.0785089
-0.000444857
0.0789524
-0.000398477
0.0793289
-0.000348484
0.0796398
-0.000292166
0.0798799
-0.000229423
0.0800406
-0.000162951
0.0801157
-9.73675e-05
0.080106
-3.94323e-05
0.0800237
2.77157e-06
0.0798876
2.62983e-05
0.0797256
2.37778e-05
0.0795659
-2.91563e-06
0.0794353
-5.12983e-05
0.0793553
-0.000117215
0.0793384
-0.000192047
0.0793877
-0.000267781
0.0794993
-0.000337775
0.0796645
-0.000397594
0.0798724
-0.000445138
0.0801122
-0.000480266
0.0803746
-0.000504148
0.0806524
-0.000518591
0.0809402
-0.000525509
0.0812346
-0.000526591
0.0815336
-0.00052316
0.0818358
-0.000516153
0.0821409
-0.000506175
0.0824487
-0.000493571
0.0827597
-0.000478488
0.083075
-0.000460992
0.083396
-0.000441229
0.0837279
-0.000420055
0.0840925
-0.000399654
0.0845189
-0.000377173
0.0850022
-0.000349158
0.0855084
-0.000318144
0.0860055
-0.000287722
0.0864749
-0.000260127
0.0869104
-0.000235669
0.0873134
-0.000213568
0.0876866
-0.000193022
0.0880323
-0.000173773
0.0883519
-0.000156072
0.0886468
-0.000140542
0.0889188
-0.000128009
0.0891709
-0.0001193
0.0894065
-0.000115181
0.0896295
-0.000116137
0.0898441
-0.000122124
0.0900544
-0.000132388
0.0902646
-0.000145465
0.0904786
-0.000159423
0.0907
-0.000172277
0.0909317
-0.000182423
0.0911749
-0.000188967
0.0914299
-0.000191846
0.0916961
-0.000191918
0.0919722
-0.000190275
0.0922559
-0.000187648
0.0925445
-0.000183984
0.0928339
-0.000178372
0.0931195
-0.000169342
0.0933958
-0.000155385
0.093657
-0.000135493
0.0938973
-0.000109505
0.094112
-7.81652e-05
0.0942977
-4.28915e-05
0.0944526
-5.0349e-06
0.0945801
2.90439e-05
0.0946813
6.2774e-05
0.0947582
9.47704e-05
0.0948125
0.000125444
0.0948449
0.00015554
0.0948559
0.000185577
0.0948456
0.000215976
0.0948135
0.000247028
0.0947594
0.000278902
0.0946825
0.000311682
0.0945822
0.000345402
0.094458
0.000380067
0.0943093
0.000415671
0.0941353
0.000452202
0.0939357
0.000489644
0.0937098
0.000527975
0.093457
0.000567172
0.0931769
0.00060721
0.0928691
0.000648062
0.092533
0.0006897
0.0921684
0.000732096
0.0917748
0.000775222
0.0913518
0.000819049
0.0908993
0.000863551
0.0904168
0.000908702
0.0899043
0.000954476
0.0893614
0.00100085
0.0887879
0.0010478
0.0881837
0.00109529
0.0875487
0.0011433
0.0868827
0.00119179
0.0861856
0.00124074
0.0854574
0.0012901
0.084698
0.00133985
0.0839074
0.00138993
0.0830857
0.0014403
0.0822329
0.00149091
0.0813491
0.00154171
0.0804344
0.00159263
0.0794891
0.00164362
0.0785134
0.00169459
0.0775075
0.00174548
0.0764717
0.00179621
0.0754065
0.00184669
0.0743122
0.00189683
0.0731894
0.00194654
0.0720386
0.00199571
0.0708604
0.00204425
0.0696555
0.00209204
0.0684246
0.00213898
0.0671685
0.00218496
0.065888
0.00222987
0.0645842
0.00227359
0.0632579
0.002316
0.0619103
0.002357
0.0605425
0.00239645
0.0591555
0.00243426
0.0577508
0.00247029
0.0563295
0.00250442
0.0548932
0.00253651
0.0534431
0.00256645
0.0519809
0.00259412
0.0505081
0.00261945
0.0490263
0.00264237
0.0475374
0.00266288
0.0460428
0.00268095
0.0445445
0.00269657
0.0430441
0.00270962
0.0415435
0.00271989
0.0400446
0.00272699
0.0385497
0.00273041
0.0370609
0.00272954
0.0355808
0.00272371
0.0341119
0.0027126
0.0326564
0.00269634
0.0312159
0.00267555
0.0297915
0.00265174
0.028383
0.00262669
0.0269896
0.00260191
0.0256104
0.00257851
0.0242443
0.00255689
0.0228904
0.00253667
0.0215492
0.00251656
0.0202214
0.00249553
0.0189081
0.00247282
0.0176107
0.00244787
0.0163306
0.00242056
0.0150689
0.00239113
0.0138265
0.00236002
0.0126041
0.00232757
0.0114024
0.00229395
0.0102223
0.00225911
0.00906469
0.00222281
0.00793072
0.00218484
0.00682148
0.00214505
0.00573797
0.00210349
0.00468098
0.00206033
0.00365114
0.00201579
0.00264891
0.00197008
0.00167463
0.0019234
0.00072859
0.00187587
-0.000188973
0.00182758
-0.00107788
0.00177862
-0.00193802
0.00172908
-0.00276935
0.00167904
-0.00357193
0.00162861
-0.00434583
0.00157787
-0.00509117
0.00152691
-0.00580803
0.00147576
-0.0064964
0.00142441
-0.00715622
0.00137285
-0.00778733
0.00132103
-0.00838964
0.00126895
-0.00896308
0.00121667
-0.0095077
0.00116423
-0.0100236
0.00111172
-0.0105111
0.00105919
-0.0109703
0.00100673
-0.0114016
0.0009544
-0.0118054
0.000902267
-0.012182
0.000850387
-0.0125319
0.000798815
-0.0128554
0.000747599
-0.0131527
0.000696768
-0.013424
0.000646317
-0.0136696
0.000596233
-0.0138916
0.000546609
-0.014094
0.000497832
-0.0142815
0.000450469
-0.0144568
0.000404645
-0.0146189
0.00035987
-0.0147658
0.00031575
-0.0148964
0.000272244
-0.0150097
0.000229366
-0.0151052
0.000187158
-0.0151826
0.000145738
-0.0152419
0.000105132
-0.0152828
6.5198e-05
-0.0153051
2.6382e-05
-0.015309
-1.19703e-05
-0.015294
-4.92048e-05
-0.0152607
-8.54362e-05
-0.0152095
-0.000120628
-0.0151408
-0.000154748
-0.0150553
-0.000187768
-0.0149533
-0.000219658
-0.0148356
-0.000250387
-0.0147026
-0.000279925
-0.014555
-0.000308233
-0.0143933
-0.000335274
-0.0142181
-0.000361008
-0.0140302
-0.000385396
-0.0138301
-0.000408385
-0.0136187
-0.000429897
-0.0133967
-0.000449801
-0.0131649
-0.000467891
-0.0129243
-0.000483899
-0.0126755
-0.000497609
-0.0124185
-0.000509047
-0.0121531
-0.000518672
-0.0118784
-0.000527369
-0.0115936
-0.000536168
-0.0112987
-0.000545755
-0.010994
-0.000556089
-0.0106814
-0.000566409
-0.0103628
-0.000575645
-0.0100404
-0.000582965
-0.00971579
-0.000588091
-0.00939028
-0.000591228
-0.00906475
-0.000592774
-0.00873999
-0.00059306
-0.00841676
-0.000592254
-0.00809589
-0.000590404
-0.00777817
-0.000587512
-0.00746442
-0.000583588
-0.0071554
-0.000578649
-0.00685184
-0.000572721
-0.00655439
-0.000565839
-0.00626365
-0.000558045
-0.00598011
-0.000549394
-0.00570419
-0.000539944
-0.00543623
-0.000529765
-0.0051765
-0.000518941
-0.00492519
-0.000507566
-0.00468246
-0.000495727
-0.00444843
-0.00048349
-0.00422322
-0.000470906
-0.00400692
-0.000458034
-0.00379958
-0.000444939
-0.00360123
-0.000431675
-0.00341189
-0.0004183
-0.00323153
-0.000404872
-0.00306011
-0.000391455
-0.00289756
-0.00037811
-0.00274379
-0.000364895
-0.00259866
-0.000351858
-0.00246201
-0.000339061
-0.00233363
-0.000326576
-0.00221326
-0.000314479
-0.00210063
-0.000302831
-0.00199542
-0.000291697
-0.00189727
-0.000281137
-0.00180573
-0.000271205
-0.00172036
-0.000261938
-0.00164067
-0.000253385
-0.00156614
-0.000245571
-0.00149624
-0.000238504
-0.00143045
-0.000232182
-0.00136827
-0.000226604
-0.00130922
-0.000221776
-0.00125285
-0.000217698
-0.00119871
-0.000214412
-0.00114624
-0.000211999
-0.00109476
-0.000210522
-0.0010434
-0.000210002
-0.000991389
-0.000210336
-0.000938757
-0.000210796
-0.000887572
-0.000209742
-0.000842734
-0.000204851
-0.000810086
-0.000195773
-0.000788792
-0.000191109
-0.000758077
-0.000216565
-0.000668995
-0.000310709
-0.000464827
-0.000487072
-0.000151237
-0.000654713
0.000128017
-0.000552188
0.000136335
0.000376296
-0.00166558
0.000801508
-0.00186669
0.00117617
-0.00178623
0.00153659
-0.00175077
0.00189708
-0.00174291
0.00226168
-0.00173905
0.00263199
-0.00173714
0.00301009
-0.00173713
0.00339825
-0.00173919
0.00379793
-0.00174289
0.00421074
-0.00174852
0.00463765
-0.00175581
0.00507972
-0.00176453
0.00553635
-0.00177371
0.00600731
-0.00178299
0.00649162
-0.00179159
0.00698794
-0.00179906
0.00749472
-0.00180478
0.0080101
-0.00180847
0.00853255
-0.00180965
0.00906029
-0.00180824
0.0095918
-0.00180434
0.0101257
-0.00179794
0.0106611
-0.00178912
0.0111972
-0.00177805
0.0117341
-0.00176532
0.0122719
-0.00175133
0.0128111
-0.00173693
0.013352
-0.00172303
0.0138937
-0.00171015
0.0144336
-0.00169823
0.014968
-0.00168626
0.0154922
-0.00167227
0.0160018
-0.00165419
0.0164928
-0.0016296
0.016963
-0.00159737
0.0174138
-0.00155812
0.0178518
-0.00151422
0.0182873
-0.00146838
0.0187339
-0.00142547
0.0192051
-0.00139192
0.0197125
-0.00137412
0.0202638
-0.00137697
0.0208603
-0.00140084
0.0214953
-0.00144082
0.0221532
-0.00148699
0.022817
-0.00152932
0.0234743
-0.00155881
0.0241141
-0.00157095
0.024729
-0.0015655
0.025314
-0.00154518
0.0258669
-0.0015142
0.0263874
-0.00147674
0.0268765
-0.00143555
0.027335
-0.00139161
0.0277637
-0.00134467
0.0281635
-0.00129415
0.0285356
-0.00123993
0.0288824
-0.00118284
0.0292074
-0.00112431
0.0295148
-0.0010663
0.0298085
-0.00101118
0.0300921
-0.000961512
0.0303675
-0.000919506
0.0306352
-0.000886374
0.0308937
-0.000862144
0.0311406
-0.000845711
0.0313734
-0.000834905
0.0315904
-0.000826821
0.0317918
-0.00081833
0.0319798
-0.000806274
0.0321582
-0.000788048
0.0323314
-0.000762314
0.0325031
-0.000729336
0.0326765
-0.000690912
0.0328527
-0.000649779
0.0330315
-0.000608772
0.0332116
-0.000570109
0.0333911
-0.000535032
0.0335685
-0.000503896
0.0337427
-0.000476514
0.033913
-0.000452528
0.0340793
-0.000431634
0.0342415
-0.00041364
0.0343996
-0.000398433
0.0345537
-0.000385904
0.0347038
-0.000375915
0.0348503
-0.00036829
0.0349933
-0.000362837
0.0351335
-0.000359374
0.0352713
-0.000357742
0.0354074
-0.000357805
0.0355426
-0.000359443
0.0356773
-0.000362531
0.0358122
-0.000366929
0.0359474
-0.00037246
0.036083
-0.0003789
0.0362188
-0.000385987
0.0363545
-0.000393443
0.0364898
-0.000401012
0.0366248
-0.000408477
0.03676
-0.000415678
0.0368962
-0.000422507
0.0370349
-0.000428926
0.0371777
-0.000434999
0.0373257
-0.000440941
0.0374798
-0.000447145
0.0376396
-0.000454178
0.0378038
-0.000462738
0.0379696
-0.000473566
0.0381332
-0.000487291
0.0382902
-0.000504111
0.0384366
-0.000523345
0.0385694
-0.000542915
0.0386878
-0.000558941
0.0387942
-0.000565799
0.0388939
-0.000556943
0.0389954
-0.000526539
0.0391081
-0.000471646
0.039241
-0.000394177
0.0393975
-0.000302402
0.0395829
-0.000207699
0.0397936
-0.000124432
0.0400281
-6.277e-05
0.0402775
-3.21177e-05
0.0405341
-3.46704e-05
0.0407911
-6.47431e-05
0.041043
-0.000112405
0.0412858
-0.000168614
0.0415179
-0.000226852
0.0417416
-0.000282883
0.0419581
-0.000336069
0.0421697
-0.000385966
0.0423784
-0.000432953
0.0425862
-0.000477561
0.0427946
-0.00052023
0.043005
-0.000561224
0.0432183
-0.000600656
0.0434351
-0.000638554
0.043656
-0.000674926
0.0438814
-0.000709809
0.0441116
-0.000743286
0.0443471
-0.000775483
0.044588
-0.000806557
0.0448348
-0.000836668
0.0450877
-0.000865965
0.0453472
-0.000894568
0.0456135
-0.000922567
0.0458867
-0.000950029
0.0461671
-0.000977003
0.0464549
-0.00100353
0.0467502
-0.00102965
0.047053
-0.0010554
0.0473632
-0.00108076
0.0476809
-0.00110571
0.0480057
-0.00113016
0.0483373
-0.00115397
0.0486753
-0.00117696
0.0490193
-0.00119898
0.049369
-0.00121998
0.0497242
-0.00124004
0.0500854
-0.00125952
0.0504533
-0.00127901
0.0508295
-0.00129937
0.0512157
-0.00132157
0.0516144
-0.00134658
0.0520278
-0.00137514
0.052458
-0.00140759
0.0529062
-0.00144371
0.0533728
-0.00148271
0.0538568
-0.00152327
0.0543562
-0.00156375
0.054868
-0.00160243
0.0553886
-0.00163777
0.055914
-0.00166862
0.0564403
-0.00169437
0.0569642
-0.00171498
0.0574831
-0.00173093
0.057995
-0.00174311
0.0584989
-0.00175263
0.0589946
-0.00176072
0.0594824
-0.00176855
0.059963
-0.00177722
0.0604371
-0.00178766
0.0609055
-0.00180066
0.0613686
-0.00181687
0.0618259
-0.00183691
0.0622762
-0.00186138
0.0627163
-0.00189084
0.0631415
-0.00192549
0.0635451
-0.00196425
0.0639207
-0.00200317
0.064266
-0.00203344
0.0645904
-0.00204035
0.0649194
-0.00200581
0.0652857
-0.0019152
0.0657166
-0.001767
0.0662091
-0.00159416
0.0667376
-0.00144514
0.0672822
-0.00133956
0.0678356
-0.001268
0.0683973
-0.00121298
0.0689668
-0.00116346
0.0695419
-0.0011158
0.0701203
-0.00106968
0.0707004
-0.00102489
0.0712818
-0.000979916
0.0718651
-0.000931766
0.07245
-0.00087712
0.0730347
-0.000814133
0.0736156
-0.000743824
0.0741886
-0.000670356
0.0747498
-0.00060059
0.0752951
-0.000542545
0.0758241
-0.000502738
0.0763347
-0.000486828
0.0768272
-0.000495447
0.0773015
-0.000525588
0.0777559
-0.000571556
0.0781892
-0.000625416
0.078601
-0.000679557
0.0789912
-0.000727962
0.0793605
-0.000766906
0.0797103
-0.000794936
0.0800424
-0.000812361
0.0803588
-0.000820542
0.0806615
-0.000821249
0.0809522
-0.000816198
0.0812324
-0.000806808
0.0815033
-0.000794132
0.0817661
-0.000778888
0.0820214
-0.000761534
0.0822702
-0.000742345
0.0825132
-0.000721506
0.0827514
-0.00069912
0.082985
-0.000674909
0.0832136
-0.000648653
0.0834366
-0.000622581
0.0836581
-0.000598699
0.0838838
-0.00057488
0.0841149
-0.000549283
0.0843495
-0.000522255
0.0845847
-0.000495337
0.0848191
-0.000470066
0.0850528
-0.00044731
0.0852871
-0.00042727
0.0855232
-0.000409891
0.0857624
-0.000395233
0.0860055
-0.000383634
0.0862531
-0.000375621
0.0865055
-0.0003717
0.0867624
-0.000372134
0.0870231
-0.000376805
0.0872861
-0.000385122
0.0875497
-0.00039599
0.0878121
-0.000407919
0.0880719
-0.00041923
0.088328
-0.000428311
0.0885794
-0.000433893
0.0888259
-0.000435371
0.0890669
-0.000432899
0.0893021
-0.000427065
0.0895303
-0.000418539
0.0897504
-0.000407754
0.0899611
-0.00039463
0.0901612
-0.000378508
0.0903502
-0.00035832
0.0905277
-0.000332935
0.0906938
-0.000301561
0.0908484
-0.000264055
0.0909912
-0.000221006
0.0911219
-0.000173637
0.0912401
-0.000123227
0.0913414
-7.21925e-05
0.091425
-2.09108e-05
0.0914891
3.07681e-05
0.0915336
8.08871e-05
0.0915587
0.000130422
0.0915645
0.000179773
0.091551
0.000229478
0.0915181
0.000279972
0.0914654
0.000331589
0.0913925
0.00038456
0.0912989
0.000439033
0.0911839
0.000495091
0.0910468
0.000552776
0.0908869
0.000612101
0.0907034