/*--------------------------------*- C++ -*----------------------------------*\
| =========                 |                                                 |
| \\      /  F ield         | OpenFOAM: The Open Source CFD Toolbox           |
|  \\    /   O peration     | Version:  v2006                                 |
|   \\  /    A nd           | Website:  www.openfoam.com                      |
|    \\/     M anipulation  |                                                 |
\*---------------------------------------------------------------------------*/
FoamFile
{
    version     2.0;
    format      ascii;
    class       surfaceScalarField;
    location    "8.6";
    object      alphaPhi0.water;
}
// * * * * * * * * * * * * * * * * * * * * * * * * * * * * * * * * * * * * * //

dimensions      [0 3 -1 0 0 0 0];
oriented        oriented;


internalField   nonuniform List<scalar> 
299200
(
0.000906174
-0.000906174
0.00194254
-0.00103637
0.00297308
-0.00103054
0.00398782
-0.00101474
0.00499391
-0.00100609
0.00599411
-0.0010002
0.00698949
-0.000995379
0.0079801
-0.000990608
0.00896556
-0.00098546
0.00994559
-0.000980034
0.0109199
-0.000974311
0.0118883
-0.000968382
0.0128506
-0.000962267
0.0138066
-0.000956091
0.0147565
-0.000949885
0.0157002
-0.000943666
0.0166376
-0.000937438
0.0175688
-0.000931203
0.0184937
-0.000924858
0.0194121
-0.000918369
0.0203237
-0.000911671
0.0212285
-0.000904757
0.0221261
-0.000897559
0.023016
-0.000889998
0.023898
-0.000881996
0.0247715
-0.000873498
0.025636
-0.000864426
0.0264907
-0.000854691
0.0273349
-0.000844251
0.0281681
-0.000833234
0.0289901
-0.000821919
0.0298007
-0.000810641
0.0306003
-0.000799637
0.0313893
-0.000788992
0.0321681
-0.000778718
0.0329367
-0.000768654
0.0336953
-0.000758555
0.0344434
-0.00074814
0.0351803
-0.00073691
0.0359046
-0.000724249
0.0366138
-0.000709228
0.0373051
-0.000691265
0.0379756
-0.000670596
0.0386234
-0.000647765
0.0392476
-0.000624136
0.0398489
-0.000601356
0.0404296
-0.000580659
0.0409928
-0.000563215
0.0415416
-0.00054884
0.0420783
-0.000536685
0.0426041
-0.00052578
0.0431194
-0.00051529
0.0436239
-0.000504569
0.0441171
-0.000493134
0.0445977
-0.000480631
0.0450645
-0.0004668
0.0455159
-0.000451366
0.0459499
-0.000434065
0.0463647
-0.000414733
0.046758
-0.000393361
0.047128
-0.000369932
0.047472
-0.000344035
0.0477882
-0.000316174
0.0480763
-0.000288079
0.0483389
-0.00026264
0.0485824
-0.000243514
0.0488164
-0.000233964
0.049052
-0.000235615
0.0492997
-0.000247679
0.0495667
-0.000267019
0.0498555
-0.000288855
0.0501631
-0.000307589
0.0504808
-0.00031768
0.0507958
-0.000314963
0.0510935
-0.000297719
0.0513607
-0.000267226
0.0515881
-0.00022735
0.0517714
-0.0001833
0.0519114
-0.000140039
0.0520124
-0.000100994
0.05208
-6.75558e-05
0.0521194
-3.9408e-05
0.0521346
-1.52317e-05
0.0521277
6.9174e-06
0.0521011
2.65484e-05
0.0520586
4.25173e-05
0.0520038
5.47818e-05
0.0519402
6.36706e-05
0.0518703
6.98746e-05
0.0517963
7.3974e-05
0.0517199
7.64112e-05
0.0516423
7.76258e-05
0.0515644
7.78458e-05
0.0514871
7.73537e-05
0.0514108
7.62892e-05
0.051336
7.47393e-05
0.0512632
7.28296e-05
0.0511926
7.06228e-05
0.0511245
6.81207e-05
0.0510593
6.51259e-05
0.0509975
6.1809e-05
0.0509399
5.76558e-05
0.050887
5.28995e-05
0.0508393
4.7652e-05
0.0507968
4.25e-05
0.0507589
3.79476e-05
0.0507241
3.47925e-05
0.0506905
3.35764e-05
0.050656
3.44922e-05
0.0506188
3.71768e-05
0.0505785
4.03243e-05
0.0505371
4.14613e-05
0.0504984
3.86333e-05
0.0504684
3.00644e-05
0.0504531
1.52747e-05
0.0504581
-4.99269e-06
0.0504868
-2.87027e-05
0.0505358
-4.90238e-05
0.0505927
-5.68819e-05
0.050637
-4.42988e-05
0.0506423
-5.34617e-06
0.0505721
7.02697e-05
0.0504188
0.000153287
0.0502058
0.000212935
0.0499718
0.000234005
0.0497467
0.000225141
0.0495477
0.000199007
0.0493816
0.000166089
0.0492484
0.000133207
0.0491458
0.000102554
0.0490719
7.39171e-05
0.0490257
4.62483e-05
0.0490067
1.89523e-05
0.0490176
-1.08639e-05
0.0490624
-4.48033e-05
0.0491431
-8.07503e-05
0.0492592
-0.000116074
0.0494091
-0.000149928
0.0495912
-0.000182027
0.0498034
-0.000212254
0.050044
-0.000240594
0.0503111
-0.00026709
0.0506029
-0.000291819
0.0509178
-0.000314876
0.0512542
-0.000336364
0.0516106
-0.000356393
0.0519856
-0.000375076
0.0523782
-0.000392526
0.052787
-0.000408856
0.0532112
-0.000424169
0.0536497
-0.000438562
0.0541019
-0.000452118
0.0545668
-0.000464908
0.0550438
-0.000476993
0.0555322
-0.000488426
0.0560314
-0.000499257
0.056541
-0.000509535
0.0570603
-0.000519311
0.0575889
-0.000528634
0.0581265
-0.000537547
0.0586725
-0.000546079
0.0592268
-0.000554234
0.0597888
-0.000561985
0.060358
-0.000569267
0.060934
-0.000575988
0.0615161
-0.000582042
0.0621034
-0.00058733
0.0626952
-0.000591791
0.0632906
-0.000595423
0.0638889
-0.000598306
0.0644895
-0.000600597
0.065092
-0.000602511
0.0656963
-0.000604294
0.0663025
-0.000606172
0.0669108
-0.00060832
0.0675216
-0.000610832
0.0681354
-0.000613711
0.0687522
-0.000616873
0.0693724
-0.000620176
0.0699958
-0.000623447
0.0706224
-0.000626516
0.0712516
-0.000629258
0.0718832
-0.00063162
0.0725169
-0.000633647
0.0731524
-0.000635499
0.0737898
-0.000637444
0.0744297
-0.000639847
0.0750728
-0.000643154
0.0757207
-0.000647906
0.0763756
-0.000654829
0.0770405
-0.000664958
0.0777202
-0.000679643
0.0784201
-0.000699949
0.0791445
-0.000724428
0.0798881
-0.000743579
0.0806182
-0.000730119
0.081248
-0.000629772
0.0816281
-0.000380072
0.0816637
-3.56522e-05
0.0813801
0.000283602
0.0809969
0.000383242
0.0806343
0.00036259
0.0803231
0.000311255
0.0800582
0.000264819
0.0798315
0.000226742
0.0796416
0.000189869
0.0794897
0.000151946
0.0793725
0.000117127
0.0792816
9.09876e-05
0.079206
7.55954e-05
0.079138
6.801e-05
0.0790755
6.25035e-05
0.0790212
5.42674e-05
0.0789798
4.13566e-05
0.0789556
2.42014e-05
0.0789519
3.71925e-06
0.078975
-2.30782e-05
0.0790263
-5.12883e-05
0.0791044
-7.81204e-05
0.0792055
-0.000101113
0.0793252
-0.000119675
0.0794592
-0.000133999
0.0796042
-0.000145023
0.0797582
-0.000154008
0.0799198
-0.000161575
0.0800878
-0.000168034
0.0802611
-0.000173294
0.0804382
-0.000177082
0.0806173
-0.000179091
0.0807964
-0.000179072
0.0809732
-0.000176859
0.0811456
-0.000172355
0.0813111
-0.000165501
0.0814673
-0.000156244
0.0816118
-0.000144507
0.0817416
-0.000129812
0.0818527
-0.000111073
0.0819411
-8.8422e-05
0.0819973
-5.61175e-05
0.0819979
-6.50262e-07
0.0819033
9.46206e-05
0.0817219
0.000181359
0.0814821
0.000239834
0.0812173
0.000264752
0.0809532
0.00026416
0.0807023
0.000250845
0.0804672
0.000235115
0.0802458
0.000221381
0.0800357
0.000210108
0.0798359
0.000199845
0.0796467
0.000189188
0.0794692
0.000177457
0.0793047
0.000164546
0.0791541
0.000150578
0.0790183
0.000135771
0.0788978
0.00012054
0.0787921
0.000105678
0.0786997
9.24162e-05
0.0786175
8.22526e-05
0.0785409
7.65471e-05
0.0784649
7.60559e-05
0.0783847
8.01937e-05
0.0782969
8.7751e-05
0.0781997
9.72381e-05
0.0780928
0.000106882
0.0779775
0.000115268
0.0778559
0.000121637
0.0777299
0.000125974
0.0776011
0.000128826
0.0774701
0.000130973
0.077337
0.000133119
0.0772013
0.000135715
0.0770624
0.000138911
0.0769197
0.000142624
0.0767731
0.000146658
0.0766222
0.000150833
0.0764671
0.000155105
0.0763076
0.000159535
0.0761434
0.000164234
0.0759743
0.000169047
0.0758002
0.000174082
0.0756209
0.000179373
0.0754359
0.000184951
0.0752451
0.000190798
0.0750482
0.000196896
0.074845
0.000203232
0.0746352
0.000209801
0.0744186
0.000216603
0.0741949
0.000223641
0.073964
0.000230919
0.0737256
0.000238444
0.0734794
0.000246222
0.0732251
0.000254261
0.0729625
0.000262573
0.0726914
0.000271167
0.0724113
0.000280054
0.0721221
0.000289244
0.0718233
0.000298748
0.0715147
0.000308574
0.071196
0.000318733
0.0708668
0.000329234
0.0705267
0.000340089
0.0701754
0.000351306
0.0698125
0.000362895
0.0694376
0.00037486
0.0690504
0.000387206
0.0686505
0.000399938
0.0682374
0.000413057
0.0678109
0.000426567
0.0673704
0.000440468
0.0669156
0.00045476
0.0664462
0.00046944
0.0659617
0.000484508
0.0654617
0.000499956
0.0649459
0.000515778
0.064414
0.000531963
0.0638655
0.0005485
0.0633001
0.000565374
0.0627175
0.000582567
0.0621175
0.000600059
0.0614997
0.000617826
0.0608638
0.000635844
0.0602097
0.000654085
0.0595372
0.000672523
0.0588461
0.000691132
0.0581362
0.000709879
0.0574075
0.000728727
0.0566598
0.000747636
0.0558933
0.000766567
0.0551078
0.000785481
0.0543034
0.000804338
0.0534804
0.000823084
0.0526387
0.000841662
0.0517787
0.000860017
0.0509006
0.000878106
0.0500047
0.000895897
0.0490913
0.000913367
0.0481608
0.000930514
0.0472135
0.000947349
0.0462496
0.000963874
0.0452695
0.000980051
0.0442737
0.000995792
0.0432628
0.00101092
0.0422377
0.00102516
0.0411995
0.00103812
0.0401502
0.00104931
0.039092
0.00105827
0.0380274
0.00106461
0.0369592
0.00106818
0.0358899
0.00106928
0.0348213
0.0010686
0.0337544
0.00106694
0.0326891
0.00106524
0.0316249
0.00106423
0.0305608
0.00106408
0.0294961
0.0010647
0.0284304
0.00106569
0.027364
0.00106643
0.0262975
0.00106649
0.0252319
0.00106559
0.0241683
0.00106363
0.0231076
0.00106069
0.0220506
0.00105696
0.020998
0.00105263
0.0199502
0.00104778
0.0189078
0.00104237
0.0178715
0.00103629
0.0168422
0.00102937
0.0158207
0.0010215
0.0148081
0.00101261
0.0138053
0.00100272
0.0128135
0.000991889
0.0118333
0.000980183
0.0108656
0.000967658
0.00991125
0.000954367
0.0089709
0.000940342
0.0080453
0.000925603
0.00713513
0.000910166
0.00624108
0.000894057
0.00536378
0.000877302
0.00450381
0.000859962
0.00366169
0.000842125
0.00283785
0.000823845
0.00203264
0.000805203
0.00124646
0.000786186
0.000479635
0.000766821
-0.000267386
0.000747022
-0.000994387
0.000727
-0.00170074
0.000706355
-0.00238607
0.000685332
-0.00304998
0.000663904
-0.00369207
0.00064209
-0.00431198
0.000619917
-0.0049094
0.000597415
-0.00548405
0.000574647
-0.00603582
0.000551771
-0.00656483
0.000529012
-0.00707119
0.000506358
-0.00755424
0.000483048
-0.00801168
0.000457449
-0.00843987
0.000428182
-0.00883585
0.000395983
-0.00919954
0.00036369
-0.00953308
0.000333542
-0.00983872
0.000305641
-0.0101181
0.000279367
-0.0103725
0.000254418
-0.0106031
0.000230553
-0.0108107
0.000207597
-0.0109961
0.000185431
-0.0111601
0.000163969
-0.0113033
0.000143218
-0.0114263
0.000123015
-0.0115298
0.000103489
-0.0116143
8.45386e-05
-0.0116805
6.61525e-05
-0.011729
4.85291e-05
-0.0117603
3.1293e-05
-0.0117751
1.47917e-05
-0.011774
-1.13001e-06
-0.0117576
-1.63432e-05
-0.0117268
-3.08222e-05
-0.0116821
-4.47149e-05
-0.0116241
-5.80192e-05
-0.0115533
-7.07184e-05
-0.0114705
-8.27952e-05
-0.0113763
-9.42118e-05
-0.0112715
-0.000104863
-0.0111569
-0.00011452
-0.0110341
-0.000122809
-0.0109048
-0.000129306
-0.0107711
-0.000133756
-0.0106347
-0.000136343
-0.0104969
-0.000137804
-0.0103577
-0.000139253
-0.0102159
-0.000141736
-0.0100702
-0.000145765
-0.00991905
-0.000151129
-0.00976194
-0.000157103
-0.00959905
-0.000162896
-0.00943103
-0.00016802
-0.00925865
-0.000172376
-0.00908254
-0.00017611
-0.00890313
-0.000179413
-0.00872073
-0.000182401
-0.00853561
-0.000185114
-0.00834807
-0.000187548
-0.00815838
-0.000189686
-0.00796688
-0.000191502
-0.0077739
-0.000192977
-0.00757982
-0.000194082
-0.00738503
-0.000194784
-0.00718998
-0.000195054
-0.00699511
-0.000194871
-0.00680088
-0.000194234
-0.00660771
-0.000193165
-0.00641601
-0.000191699
-0.00622613
-0.000189877
-0.0060384
-0.000187734
-0.00585309
-0.000185308
-0.00567045
-0.000182639
-0.00549069
-0.000179764
-0.00531397
-0.000176717
-0.00514044
-0.000173528
-0.00497021
-0.000170237
-0.00480333
-0.000166882
-0.00463982
-0.000163501
-0.0044797
-0.000160129
-0.00432291
-0.000156787
-0.00416942
-0.000153493
-0.00401914
-0.000150278
-0.00387195
-0.000147185
-0.0037277
-0.00014425
-0.00358621
-0.000141488
-0.00344731
-0.000138901
-0.00331083
-0.000136484
-0.00317658
-0.000134249
-0.00304438
-0.000132201
-0.00291405
-0.000130328
-0.00278543
-0.00012862
-0.00265836
-0.000127068
-0.00253268
-0.000125687
-0.00240818
-0.000124495
-0.00228468
-0.000123503
-0.00216195
-0.00012273
-0.00203979
-0.000122159
-0.0019181
-0.000121687
-0.00179692
-0.000121182
-0.0016763
-0.000120618
-0.0015562
-0.000120107
-0.00143614
-0.00012006
-0.00131513
-0.000121002
-0.00119154
-0.000123592
-0.00106158
-0.00012996
-0.000915419
-0.000146164
-0.000732563
-0.000182856
-0.000487392
-0.000245172
-0.000183456
-0.000303936
4.96429e-05
-0.000233099
4.96429e-05
0.0006104
-0.00151657
0.00127088
-0.00169685
0.00189784
-0.0016575
0.0025143
-0.0016312
0.00312898
-0.00162077
0.00374089
-0.0016121
0.00434955
-0.00160404
0.00495493
-0.00159599
0.00555726
-0.0015878
0.00615698
-0.00157975
0.00675464
-0.00157198
0.00735104
-0.00156478
0.00794672
-0.00155795
0.00854255
-0.00155192
0.00913881
-0.00154615
0.00973575
-0.0015406
0.0103334
-0.00153512
0.0109316
-0.00152937
0.01153
-0.00152331
0.012128
-0.00151628
0.0127246
-0.00150831
0.0133191
-0.00149929
0.0139107
-0.00148909
0.0144982
-0.00147749
0.0150805
-0.00146433
0.0156564
-0.00144945
0.016225
-0.00143303
0.0167856
-0.00141527
0.0173384
-0.001397
0.0178845
-0.00137941
0.0184267
-0.00136405
0.0189679
-0.00135189
0.019511
-0.00134268
0.020057
-0.00133502
0.0206049
-0.00132667
0.0211512
-0.00131493
0.0216897
-0.00129707
0.022212
-0.00127039
0.0227081
-0.00123302
0.0231681
-0.00118425
0.0235856
-0.0011267
0.023961
-0.00106668
0.0243025
-0.0010121
0.0246254
-0.000970733
0.0249498
-0.000948515
0.0252969
-0.000948407
0.0256836
-0.000967411
0.0261154
-0.000994937
0.0265887
-0.00102218
0.0270942
-0.00104216
0.0276204
-0.00105201
0.0281571
-0.00105196
0.0286962
-0.00104374
0.0292326
-0.00102954
0.0297631
-0.00101113
0.0302857
-0.000989416
0.0307988
-0.000964374
0.0313001
-0.000935423
0.0317873
-0.000901925
0.0322574
-0.000863481
0.0327076
-0.000820132
0.0331361
-0.000772538
0.0335424
-0.000722477
0.0339269
-0.00067255
0.03429
-0.000625689
0.0346315
-0.000585098
0.034951
-0.000553458
0.0352475
-0.000532111
0.0355204
-0.00052055
0.0357698
-0.000516449
0.035997
-0.000516035
0.0362039
-0.000514508
0.0363932
-0.000506907
0.036568
-0.000489822
0.036732
-0.000461703
0.036888
-0.000423235
0.0370378
-0.000377151
0.0371819
-0.000327406
0.0373199
-0.000278013
0.0374509
-0.000232007
0.0375743
-0.000190954
0.03769
-0.000155097
0.0377987
-0.00012395
0.0379027
-9.70618e-05
0.038003
-7.37368e-05
0.0380987
-5.32289e-05
0.038189
-3.55378e-05
0.0382734
-2.07143e-05
0.0383519
-8.63926e-06
0.0384251
8.38143e-07
0.0384936
7.88219e-06
0.0385581
1.31552e-05
0.0386192
1.66775e-05
0.0386777
1.89332e-05
0.038734
1.99433e-05
0.0387892
1.95386e-05
0.0388442
1.78435e-05
0.0389001
1.47239e-05
0.0389576
1.05747e-05
0.0390179
4.89442e-06
0.0390803
-6.62745e-07
0.0391454
-7.36531e-06
0.0392123
-1.4069e-05
0.0392802
-2.02067e-05
0.039348
-2.53433e-05
0.0394153
-2.92717e-05
0.0394822
-3.21146e-05
0.0395502
-3.44765e-05
0.0396222
-3.74838e-05
0.039702
-4.25893e-05
0.0397936
-5.12715e-05
0.0399003
-6.53355e-05
0.0400251
-8.60841e-05
0.0401691
-0.000113979
0.0403322
-0.000147772
0.0405106
-0.000183402
0.0406962
-0.000214312
0.0408789
-0.000231724
0.0410485
-0.000226554
0.0411963
-0.000192085
0.041319
-0.000127987
0.0414195
-3.02617e-05
0.0414933
7.94973e-05
0.0415106
0.000195603
0.0414434
0.000301226
0.0412964
0.000372117
0.041096
0.000399469
0.0408758
0.000386302
0.040667
0.000341988
0.0404915
0.000278061
0.0403603
0.000205069
0.0402771
0.000129483
0.0402392
5.68297e-05
0.0402373
-8.98129e-06
0.0402614
-6.88777e-05
0.0403046
-0.000123932
0.0403637
-0.000175161
0.040437
-0.000223249
0.0405236
-0.000268674
0.0406231
-0.00031175
0.0407352
-0.000352669
0.0408597
-0.000391562
0.0409964
-0.000428541
0.0411452
-0.00046372
0.0413061
-0.000497226
0.0414789
-0.000529197
0.0416636
-0.000559775
0.0418602
-0.000589091
0.0420686
-0.000617264
0.0422888
-0.000644393
0.0425208
-0.000670562
0.0427645
-0.000695841
0.0430199
-0.000720298
0.0432869
-0.000743997
0.0435655
-0.000767001
0.0438556
-0.00078936
0.0441572
-0.0008111
0.0444701
-0.00083221
0.0447941
-0.000852628
0.0451288
-0.000872242
0.0454736
-0.000890903
0.0458278
-0.000908457
0.0461906
-0.000924789
0.0465612
-0.000939883
0.0469391
-0.000953866
0.0473241
-0.000967042
0.0477167
-0.000979889
0.0481179
-0.000993018
0.0485295
-0.00100708
0.0489539
-0.00102265
0.0493934
-0.00104013
0.0498505
-0.00105961
0.0503271
-0.00108088
0.0508243
-0.00110341
0.0513425
-0.00112646
0.0518809
-0.00114922
0.052438
-0.00117087
0.053012
-0.0011908
0.0536004
-0.0012086
0.054201
-0.00122411
0.0548119
-0.00123742
0.0554315
-0.00124884
0.0560587
-0.00125881
0.0566929
-0.00126787
0.0573341
-0.00127669
0.0579827
-0.00128597
0.0586393
-0.00129651
0.0593054
-0.00130925
0.0599829
-0.00132541
0.0606747
-0.0013466
0.0613848
-0.00137507
0.0621189
-0.0014137
0.0628842
-0.00146531
0.0636906
-0.00153084
0.0645523
-0.00160523
0.0654935
-0.00167133
0.0665595
-0.00169574
0.0678175
-0.00163807
0.0692588
-0.00147695
0.0707621
-0.00121969
0.0721082
-0.000962921
0.0732431
-0.000772335
0.0742084
-0.000654016
0.0750509
-0.000577711
0.0757967
-0.000519009
0.0764534
-0.000466853
0.077024
-0.000418587
0.0775146
-0.000373543
0.0779354
-0.000329818
0.0782951
-0.000284098
0.0785962
-0.000233037
0.0788335
-0.00017484
0.078998
-0.000110259
0.0790821
-4.26663e-05
0.0790823
2.39227e-05
0.0790035
8.2557e-05
0.0788559
0.000124485
0.078659
0.000145598
0.0784386
0.000142339
0.0782229
0.000114575
0.078038
6.51807e-05
0.0779033
7.2103e-07
0.0778304
-7.20598e-05
0.0778229
-0.000146516
0.0778767
-0.000215377
0.0779829
-0.000274301
0.078131
-0.000321304
0.0783102
-0.000356329
0.0785117
-0.000380544
0.0787283
-0.000395705
0.0789551
-0.000403658
0.0791888
-0.000406024
0.0794273
-0.000404056
0.0796697
-0.000398619
0.0799154
-0.000390229
0.0801647
-0.000379145
0.0804192
-0.000365562
0.0806806
-0.000349827
0.0809581
-0.000333561
0.0812759
-0.000318498
0.0816681
-0.000297534
0.0821208
-0.00027136
0.0826023
-0.000241622
0.0830787
-0.000211743
0.0835274
-0.000184461
0.083939
-0.000160753
0.0843143
-0.000140172
0.0846574
-0.000121809
0.0849724
-0.00010484
0.0852613
-8.90965e-05
0.0855254
-7.4864e-05
0.0857656
-6.27229e-05
0.0859835
-5.33851e-05
0.0861817
-4.76122e-05
0.0863636
-4.60983e-05
0.0865334
-4.92657e-05
0.0866961
-5.70617e-05
0.0868573
-6.88137e-05
0.0870228
-8.3229e-05
0.087198
-9.86221e-05
0.0873873
-0.00011328
0.0875933
-0.000125775
0.0878161
-0.000135066
0.0880546
-0.000141283
0.0883067
-0.000145212
0.0885698
-0.000147839
0.0888413
-0.000149829
0.0891184
-0.000151165
0.0893983
-0.000151055
0.0896774
-0.000148159
0.0899516
-0.000141011
0.0902158
-0.000128503
0.0904649
-0.000110238
0.0906942
-8.66321e-05
0.0908996
-5.87481e-05
0.0910784
-2.80109e-05
0.0912308
2.74898e-06
0.0913591
3.12005e-05
0.0914658
5.75748e-05
0.0915529
8.19772e-05
0.0916217
0.000105221
0.0916731
0.00012798
0.0917072
0.000150825
0.091724
0.000174081
0.0917229
0.00019795
0.0917036
0.000222548
0.0916655
0.000247926
0.091608
0.000274101
0.0915305
0.000301076
0.0914326
0.000328845
0.0913137
0.0003574
0.0911731
0.000386729
0.0910106
0.000416819
0.0908255
0.000447656
0.0906174
0.000479225
0.090386
0.00051151
0.0901307
0.000544495
0.0898513
0.000578164
0.0895474
0.000612505
0.0892186
0.000647503
0.0888647
0.000683149
0.0884854
0.000719436
0.0880803
0.000756357
0.0876493
0.000793905
0.0871921
0.000832073
0.0867084
0.000870851
0.0861981
0.000910232
0.085661
0.000950204
0.0850968
0.000990758
0.0845054
0.00103188
0.0838866
0.00107355
0.0832403
0.00111576
0.0825663
0.00115846
0.0818646
0.00120165
0.0811351
0.00124528
0.0803778
0.00128932
0.0795926
0.00133373
0.0787795
0.00137845
0.0779386
0.00142343
0.07707
0.00146862
0.0761739
0.00151394
0.0752504
0.00155933
0.0742998
0.0016047
0.0733224
0.00164998
0.0723184
0.00169507
0.0712884
0.0017399
0.0702328
0.00178435
0.0691521
0.00182834
0.0680469
0.00187175
0.0669179
0.00191448
0.0657658
0.00195641
0.0645915
0.00199743
0.0633957
0.00203741
0.0621795
0.00207621
0.0609439
0.0021137
0.0596901
0.00214974
0.0584193
0.00218421
0.0571328
0.00221701
0.055832
0.00224808
0.0545185
0.00227736
0.0531938
0.0023048
0.0518593
0.00233031
0.0505166
0.00235364
0.0491673
0.00237443
0.0478133
0.00239211
0.0464567
0.00240593
0.0450998
0.00241513
0.0437453
0.00241913
0.0423957
0.00241778
0.0410533
0.00241167
0.0397197
0.00240223
0.0383953
0.0023913
0.0370798
0.00238077
0.035772
0.00237203
0.0344705
0.00236556
0.0331744
0.00236077
0.0318836
0.00235652
0.0305985
0.00235147
0.0293205
0.00234458
0.0280509
0.00233519
0.0267913
0.0023232
0.0255431
0.00230887
0.0243074
0.00229262
0.0230853
0.00227479
0.0218776
0.00225545
0.0206856
0.00223444
0.0195104
0.00221145
0.0183535
0.00218624
0.0172163
0.00215871
0.0161
0.00212895
0.0150055
0.00209719
0.0139337
0.00206367
0.0128853
0.0020286
0.0118608
0.00199215
0.0108608
0.00195443
0.00988555
0.00191555
0.00893556
0.00187559
0.00801105
0.00183468
0.00711219
0.00179291
0.00623909
0.0017504
0.00539183
0.00170723
0.00457049
0.00166346
0.00377526
0.00161908
0.00300641
0.00157405
0.0022642
0.0015284
0.00154894
0.00148208
0.000860681
0.00143528
0.00019999
0.00138769
-0.000433562
0.00133991
-0.00103996
0.00129173
-0.00161936
0.0012433
-0.00217195
0.00119469
-0.00269803
0.00114599
-0.00319788
0.00109727
-0.00367183
0.0010486
-0.0041201
0.00100004
-0.0045427
0.000951609
-0.0049396
0.000903257
-0.0053115
0.000854946
-0.00566091
0.000806859
-0.00599228
0.000759557
-0.00630994
0.000713641
-0.00661538
0.000669134
-0.00690737
0.000625531
-0.0071842
0.00058247
-0.00744472
0.000539889
-0.0076881
0.000497797
-0.00791378
0.000456237
-0.00812146
0.000415278
-0.008311
0.000374962
-0.00848229
0.00033526
-0.00863541
0.000296344
-0.00877055
0.000258149
-0.00888789
0.000220835
-0.00898762
0.000184266
-0.00906994
0.000148472
-0.00913499
0.00011358
-0.00918352
7.98277e-05
-0.00921547
4.67327e-05
-0.00923128
1.46872e-05
-0.00923099
-1.66311e-05
-0.00921513
-4.66906e-05
-0.00918414
-7.57035e-05
-0.00913855
-0.000103605
-0.00907892
-0.000130345
-0.00900586
-0.000155857
-0.00892004
-0.000180036
-0.00882219
-0.00020271
-0.00871308
-0.000223632
-0.00859335
-0.000242538
-0.00846335
-0.000259305
-0.00832297
-0.000274143
-0.0081716
-0.000287706
-0.00800844
-0.000300962
-0.00783289
-0.000314805
-0.00764503
-0.000329598
-0.00744584
-0.000344956
-0.00723704
-0.000359928
-0.00702066
-0.000373483
-0.00679857
-0.000384984
-0.00657225
-0.000394345
-0.00634277
-0.000401858
-0.00611098
-0.000407898
-0.00587767
-0.000412724
-0.00564363
-0.00041644
-0.00540969
-0.000419054
-0.00517668
-0.000420553
-0.00494543
-0.000420932
-0.00471674
-0.0004202
-0.00449134
-0.000418374
-0.00426994
-0.000415481
-0.00405317
-0.000411559
-0.00384156
-0.000406657
-0.0036356
-0.000400835
-0.00343567
-0.000394161
-0.00324212
-0.000386722
-0.0030552
-0.000378612
-0.00287517
-0.000369915
-0.0027022
-0.000360699
-0.00253649
-0.000351019
-0.00237819
-0.000340939
-0.00222743
-0.000330528
-0.0020843
-0.000319848
-0.00194886
-0.000308962
-0.00182116
-0.000297937
-0.0017012
-0.000286844
-0.00158895
-0.000275748
-0.00148437
-0.000264713
-0.00138736
-0.000253795
-0.00129779
-0.000243061
-0.00121548
-0.000232589
-0.00114021
-0.000222457
-0.00107173
-0.000212727
-0.00100976
-0.000203462
-0.000953939
-0.000194719
-0.000903876
-0.000186546
-0.000859151
-0.000178974
-0.000819312
-0.00017204
-0.000783886
-0.000165753
-0.000752403
-0.000160104
-0.000724399
-0.000155071
-0.000699454
-0.000150633
-0.000677177
-0.000146771
-0.000657218
-0.000143462
-0.000639223
-0.000140726
-0.000622761
-0.000138621
-0.00060725
-0.000137198
-0.000591954
-0.000136478
-0.000576231
-0.000136342
-0.0005603
-0.000136038
-0.000546465
-0.000133894
-0.000539847
-0.000127621
-0.000546287
-0.000117152
-0.000564419
-0.000111828
-0.000572246
-0.000138336
-0.000519748
-0.000235354
-0.000350622
-0.000414298
-7.35045e-05
-0.000581053
0.000167049
-0.000473652
0.000216691
0.000514151
-0.00203072
0.00109313
-0.00227583
0.0016185
-0.00218287
0.00212412
-0.00213682
0.00262818
-0.00212483
0.00313595
-0.00211987
0.00364901
-0.0021171
0.00416919
-0.00211617
0.00469856
-0.00211717
0.00523853
-0.00211971
0.00579059
-0.00212404
0.00635567
-0.00212985
0.00693459
-0.00213688
0.00752692
-0.00214424
0.00813232
-0.00215156
0.00874983
-0.00215811
0.0093781
-0.00216339
0.0100156
-0.00216683
0.0106603
-0.0021681
0.0113109
-0.0021668
0.0119653
-0.00216279
0.0126222
-0.00215614
0.01328
-0.00214686
0.0139375
-0.00213502
0.0145939
-0.00212076
0.0152489
-0.00210448
0.0159025
-0.00208655
0.0165548
-0.00206765
0.0172064
-0.00204854
0.0178569
-0.00202988
0.0185047
-0.00201193
0.0191471
-0.00199422
0.0197798
-0.00197543
0.0203986
-0.00195381
0.0209991
-0.00192715
0.0215779
-0.0018937
0.0221337
-0.00185294
0.0226693
-0.00180599
0.0231913
-0.00175497
0.0237104
-0.00170337
0.0242396
-0.00165593
0.0247914
-0.00161843
0.025376
-0.00159677
0.026
-0.00159464
0.026663
-0.00161155
0.0273565
-0.00164192
0.0280659
-0.00167679
0.0287771
-0.00170611
0.0294771
-0.00172219
0.0301559
-0.00172096
0.0308062
-0.00170233
0.0314233
-0.00166909
0.032005
-0.00162547
0.032551
-0.00157553
0.033062
-0.00152204
0.0335387
-0.00146615
0.033982
-0.00140768
0.0343926
-0.001346
0.0347715
-0.00128081
0.0351205
-0.00121254
0.0354427
-0.00114233
0.035742
-0.00107186
0.0360227
-0.00100315
0.0362885
-0.000938363
0.0365424
-0.00087957
0.0367856
-0.000828338
0.0370177
-0.000785488
0.0372365
-0.000750903
0.0374393
-0.000723412
0.0376238
-0.000700914
0.0377885
-0.000680721
0.0379339
-0.000659886
0.0380623
-0.000635394
0.0381775
-0.000604951
0.0382832
-0.000567473
0.0383834
-0.000523368
0.0384806
-0.000474396
0.0385763
-0.000423111
0.0386704
-0.000372117
0.0387619
-0.000323451
0.0388492
-0.000278302
0.0389312
-0.000237086
0.039007
-0.00019975
0.0390761
-0.000166105
0.0391382
-0.000135858
0.0391937
-0.000108717
0.0392427
-8.4618e-05
0.0392856
-6.3568e-05
0.0393225
-4.55338e-05
0.0393537
-3.04216e-05
0.0393797
-1.80921e-05
0.0394012
-8.28069e-06
0.0394187
-8.503e-07
0.0394332
4.422e-06
0.0394452
7.97551e-06
0.0394557
9.01968e-06
0.0394651
8.42098e-06
0.039474
5.78186e-06
0.0394824
2.26753e-06
0.0394895
-2.2485e-06
0.0394963
-7.42126e-06
0.0395021
-1.3193e-05
0.0395076
-1.96012e-05
0.0395137
-2.62747e-05
0.0395216
-3.32634e-05
0.039533
-4.06211e-05
0.0395493
-4.84491e-05
0.0395718
-5.69461e-05
0.0396008
-6.64783e-05
0.0396356
-7.74812e-05
0.0396748
-9.04194e-05
0.0397154
-0.000105906
0.0397537
-0.000124446
0.0397859
-0.000146124
0.0398082
-0.000170082
0.0398186
-0.000193846
0.0398175
-0.000213201
0.0398082
-0.000222414
0.039797
-0.00021538
0.0397916
-0.000186691
0.0397981
-0.000134485
0.0398303
-6.24756e-05
0.0398923
1.75191e-05
0.0399842
0.000103704
0.0401102
0.000175229
0.0402612
0.000221174
0.0404282
0.000232406
0.0406039
0.000210608
0.0407824
0.000163539
0.0409596
0.000100853
0.0411321
3.25134e-05
0.0413011
-3.94778e-05
0.041464
-0.000106095
0.0416236
-0.000168509
0.0417824
-0.00022769
0.0419429
-0.000284448
0.042107
-0.000339261
0.0422761
-0.000392412
0.0424515
-0.000444015
0.0426338
-0.000494079
0.0428237
-0.000542572
0.0430216
-0.000589467
0.0432279
-0.000634783
0.0434427
-0.000678588
0.0436665
-0.00072099
0.0438994
-0.000762118
0.0441417
-0.0008021
0.0443937
-0.000841048
0.0446555
-0.000879043
0.0449272
-0.00091614
0.045209
-0.000952373
0.045501
-0.000987762
0.045803
-0.00102232
0.046115
-0.00105606
0.046437
-0.00108897
0.0467687
-0.00112102
0.0471097
-0.00115214
0.0474597
-0.00118221
0.0478182
-0.00121107
0.0481845
-0.00123854
0.048558
-0.00126449
0.0489385
-0.00128888
0.0493255
-0.00131186
0.0497195
-0.00133381
0.050121
-0.00135534
0.0505312
-0.00137728
0.0509518
-0.00140054
0.0513848
-0.00142599
0.051832
-0.00145425
0.0522949
-0.00148553
0.0527743
-0.00151955
0.0532701
-0.00155546
0.0537813
-0.00159201
0.0543055
-0.00162763
0.0548398
-0.00166074
0.0553805
-0.00168994
0.0559238
-0.00171422
0.0564661
-0.00173307
0.057004
-0.00174651
0.0575349
-0.00175504
0.058057
-0.00175949
0.0585691
-0.00176096
0.0590709
-0.0017606
0.0595626
-0.00175954
0.0600447
-0.00175883
0.0605181
-0.00175937
0.0609836
-0.00176196
0.0614416
-0.00176729
0.0618923
-0.00177604
0.0623347
-0.00178899
0.0627666
-0.00180704
0.063184
-0.00183112
0.0635804
-0.00186169
0.0639472
-0.00189762
0.0642763
-0.00193428
0.064566
-0.00196109
0.0648307
-0.00196044
0.0651037
-0.0019111
0.0654219
-0.00179509
0.065816
-0.00161382
0.0662712
-0.00141814
0.0667586
-0.00125974
0.0672569
-0.00115224
0.0677592
-0.00108001
0.0682649
-0.00102471
0.0687732
-0.00097516
0.0692825
-0.000927867
0.0697916
-0.000882656
0.0703006
-0.000838835
0.0708104
-0.000793869
0.0713214
-0.000744132
0.0718332
-0.000686624
0.0723435
-0.000620528
0.0728488
-0.000548016
0.0733464
-0.00047367
0.073833
-0.000403963
0.0743042
-0.000346712
0.0747583
-0.000308517
0.0751947
-0.000294077
0.0756135
-0.000304249
0.0760145
-0.000335806
0.0763974
-0.000382174
0.076761
-0.000435704
0.0771039
-0.000489381
0.0774259
-0.000537383
0.0777279
-0.000576239
0.0780112
-0.000604624
0.0782777
-0.00062288
0.0785295
-0.000632337
0.0787685
-0.000634701
0.0789965
-0.000631615
0.0792149
-0.00062443
0.079425
-0.000614138
0.0796277
-0.000601398
0.0798241
-0.000586612
0.080015
-0.00057006
0.0802013
-0.000551867
0.080383
-0.000531451
0.0805582
-0.000508775
0.0807265
-0.000486871
0.0808955
-0.000466447
0.0810697
-0.000445557
0.0812504
-0.000422408
0.081436
-0.000397297
0.0816235
-0.000371944
0.0818109
-0.000348169
0.0819978
-0.000327067
0.0821849
-0.000308931
0.0823737
-0.000293577
0.0825654
-0.000280807
0.0827611
-0.000270646
0.0829618
-0.000263403
0.0831679
-0.000259501
0.0833797
-0.000259337
0.0835967
-0.000263177
0.0838184
-0.000270956
0.0840436
-0.000282191
0.0842707
-0.000295968
0.0844985
-0.000311006
0.0847257
-0.00032581
0.0849513
-0.000338898
0.0851747
-0.000349122
0.0853955
-0.000355927
0.0856137
-0.000359424
0.0858285
-0.00036003
0.086039
-0.000358325
0.0862439
-0.000354733
0.086442
-0.000349265
0.0866323
-0.000341416
0.0868144
-0.000330262
0.0869881
-0.000314737
0.0871536
-0.000293977
0.087311
-0.000267622
0.0874603
-0.000235976
0.0876016
-0.00019997
0.0877345
-0.000160916
0.0878575
-0.000120301
0.0879681
-7.93647e-05
0.0880646
-3.89312e-05
0.0881456
9.72644e-07
0.0882109
3.98815e-05
0.088261
7.79462e-05
0.0882959
0.000115852
0.0883159
0.000154119
0.0883207
0.00019316
0.08831
0.000233253
0.0882833
0.000274588
0.0882401
0.000317287
0.0881798
0.00036142
0.0881016