/*--------------------------------*- C++ -*----------------------------------*\
| =========                 |                                                 |
| \\      /  F ield         | OpenFOAM: The Open Source CFD Toolbox           |
|  \\    /   O peration     | Version:  v2006                                 |
|   \\  /    A nd           | Website:  www.openfoam.com                      |
|    \\/     M anipulation  |                                                 |
\*---------------------------------------------------------------------------*/
FoamFile
{
    version     2.0;
    format      ascii;
    class       volVectorField;
    location    "0";
    object      U;
}
// * * * * * * * * * * * * * * * * * * * * * * * * * * * * * * * * * * * * * //

dimensions      [0 1 -1 0 0 0 0];


internalField   nonuniform List<vector> 
20000
(
(1 -2.60465e-11 0)
(1 -1.16729e-10 0)
(1 -2.29482e-10 0)
(1 -3.80983e-10 0)
(1 -5.85574e-10 0)
(1 -8.58436e-10 0)
(1 -1.22189e-09 0)
(1 -1.69825e-09 0)
(1 -2.31155e-09 0)
(1 -3.09034e-09 0)
(1 -4.06785e-09 0)
(1 -5.28907e-09 0)
(1 -6.82556e-09 0)
(1 -8.78333e-09 0)
(1 -1.12884e-08 0)
(1 -1.44526e-08 0)
(1 -1.83388e-08 0)
(1 -2.29464e-08 0)
(1 -2.82235e-08 0)
(1 -3.40945e-08 0)
(1 -4.04907e-08 0)
(1 -4.73633e-08 0)
(1 -5.46724e-08 0)
(1 -6.23503e-08 0)
(1 -7.02202e-08 0)
(1 -7.79012e-08 0)
(1 -8.47565e-08 0)
(1 -8.98135e-08 0)
(1 -9.16917e-08 0)
(1.00001 -8.88169e-08 0)
(1.00001 -7.99856e-08 0)
(1.00001 -6.51277e-08 0)
(1.00001 -4.601e-08 0)
(1.00001 -2.65606e-08 0)
(1.00001 -1.25953e-08 0)
(1.00001 -1.05039e-08 0)
(1.00001 -2.48647e-08 0)
(1.00001 -5.72799e-08 0)
(1.00001 -1.05738e-07 0)
(1.00001 -1.57669e-07 0)
(1.00001 -1.70688e-07 0)
(1.00001 -7.48348e-08 0)
(1.00001 1.18626e-07 0)
(1.00001 2.90134e-07 0)
(1.00001 3.94428e-07 0)
(1.00001 4.36042e-07 0)
(1.00001 4.39736e-07 0)
(1.00001 4.23744e-07 0)
(1 3.92735e-07 0)
(1 3.46893e-07 0)
(1 2.86419e-07 0)
(1 2.13647e-07 0)
(0.999998 1.33455e-07 0)
(0.999997 5.29473e-08 0)
(0.999996 -2.0468e-08 0)
(0.999995 -7.99519e-08 0)
(0.999994 -1.19609e-07 0)
(0.999994 -1.38439e-07 0)
(0.999994 -1.39394e-07 0)
(0.999994 -1.26094e-07 0)
(0.999994 -1.20076e-07 0)
(0.999994 -1.35846e-07 0)
(0.999995 -1.7145e-07 0)
(0.999996 -2.19249e-07 0)
(0.999998 -2.69826e-07 0)
(1 -3.12307e-07 0)
(1 -3.35381e-07 0)
(1 -3.27685e-07 0)
(1.00001 -2.80779e-07 0)
(1.00001 -1.9248e-07 0)
(1.00001 -6.22699e-08 0)
(1.00001 1.08005e-07 0)
(1.00001 3.06938e-07 0)
(1.00002 5.19855e-07 0)
(1.00002 6.90788e-07 0)
(1.00001 7.97247e-07 0)
(1.00001 8.55102e-07 0)
(1.00001 8.80873e-07 0)
(1.00001 8.78227e-07 0)
(1.00001 8.48614e-07 0)
(1 7.95585e-07 0)
(1 7.20132e-07 0)
(0.999996 6.20823e-07 0)
(0.999992 4.97529e-07 0)
(0.999988 3.54181e-07 0)
(0.999984 1.99048e-07 0)
(0.99998 4.282e-08 0)
(0.999977 -1.02716e-07 0)
(0.999974 -2.25963e-07 0)
(0.999972 -3.18054e-07 0)
(0.99997 -3.72949e-07 0)
(0.999969 -3.87729e-07 0)
(0.999968 -3.67679e-07 0)
(0.999968 -3.26478e-07 0)
(0.999968 -2.68113e-07 0)
(0.999968 -2.14251e-07 0)
(0.999968 -1.89408e-07 0)
(0.999969 -1.95604e-07 0)
(0.99997 -2.24529e-07 0)
(0.999972 -2.66913e-07 0)
(0.999974 -3.12321e-07 0)
(0.999976 -3.47893e-07 0)
(0.999978 -3.61142e-07 0)
(0.999981 -3.45218e-07 0)
(0.999983 -3.02791e-07 0)
(0.999985 -2.45588e-07 0)
(0.999986 -1.89092e-07 0)
(0.999987 -1.45386e-07 0)
(0.999988 -1.19036e-07 0)
(0.999989 -1.08076e-07 0)
(0.99999 -1.07493e-07 0)
(0.99999 -1.12014e-07 0)
(0.999991 -1.17433e-07 0)
(0.999992 -1.21062e-07 0)
(0.999993 -1.21646e-07 0)
(0.999993 -1.18985e-07 0)
(0.999994 -1.13502e-07 0)
(0.999995 -1.05908e-07 0)
(0.999996 -9.69737e-08 0)
(0.999996 -8.7392e-08 0)
(0.999997 -7.77179e-08 0)
(0.999997 -6.8356e-08 0)
(0.999998 -5.95737e-08 0)
(0.999998 -5.1526e-08 0)
(0.999998 -4.42828e-08 0)
(0.999999 -3.78541e-08 0)
(0.999999 -3.22102e-08 0)
(0.999999 -2.72979e-08 0)
(0.999999 -2.30514e-08 0)
(0.999999 -1.94006e-08 0)
(1 -1.62759e-08 0)
(1 -1.36112e-08 0)
(1 -1.13457e-08 0)
(1 -9.42487e-09 0)
(1 -7.80003e-09 0)
(1 -6.42857e-09 0)
(1 -5.27339e-09 0)
(1 -4.30211e-09 0)
(1 -3.48691e-09 0)
(1 -2.805e-09 0)
(1 -2.23783e-09 0)
(1 -1.76997e-09 0)
(1 -1.38178e-09 0)
(1 -1.03852e-09 0)
(1 -6.98819e-10 0)
(1 -3.28053e-10 0)
(1 5.76515e-11 0)
(1 3.62681e-10 0)
(1 4.97188e-10 0)
(1 5.16559e-10 0)
(1 4.81212e-10 0)
(1 4.30019e-10 0)
(1 3.7968e-10 0)
(1 3.34044e-10 0)
(1 2.936e-10 0)
(1 2.58088e-10 0)
(1 2.27015e-10 0)
(1 1.9987e-10 0)
(1 1.76165e-10 0)
(1 1.55455e-10 0)
(1 1.37351e-10 0)
(1 1.21511e-10 0)
(1 1.07636e-10 0)
(1 9.54701e-11 0)
(1 8.47856e-11 0)
(1 7.53834e-11 0)
(1 6.70988e-11 0)
(1 5.97812e-11 0)
(1 5.33103e-11 0)
(1 4.75731e-11 0)
(1 4.24739e-11 0)
(1 3.79343e-11 0)
(1 3.38796e-11 0)
(1 3.02504e-11 0)
(1 2.69904e-11 0)
(1 2.40523e-11 0)
(1 2.13944e-11 0)
(1 1.89824e-11 0)
(1 1.67847e-11 0)
(1 1.47724e-11 0)
(1 1.29246e-11 0)
(1 1.12166e-11 0)
(1 9.62851e-12 0)
(1 8.14184e-12 0)
(1 6.73969e-12 0)
(1 5.41162e-12 0)
(1 4.14555e-12 0)
(1 2.92857e-12 0)
(1 1.74858e-12 0)
(1 5.95392e-13 0)
(1 -5.40555e-13 0)
(1 -1.6702e-12 0)
(1 -2.805e-12 0)
(1 -3.95223e-12 0)
(1 -5.12379e-12 0)
(1 -6.32036e-12 0)
(1 -7.6803e-12 0)
(1 -8.77382e-12 0)
(1 -1.27121e-11 0)
(1 -1.01362e-11 0)
(1 -7.94831e-11 0)
(1 -3.55325e-10 0)
(1 -6.9067e-10 0)
(1 -1.14169e-09 0)
(1 -1.75373e-09 0)
(1 -2.57054e-09 0)
(1 -3.65921e-09 0)
(1 -5.08711e-09 0)
(1 -6.92598e-09 0)
(1 -9.26087e-09 0)
(1 -1.21913e-08 0)
(1 -1.58522e-08 0)
(1 -2.0458e-08 0)
(1 -2.63268e-08 0)
(1 -3.38365e-08 0)
(1 -4.33228e-08 0)
(1 -5.49741e-08 0)
(1 -6.8788e-08 0)
(1 -8.46083e-08 0)
(1 -1.02214e-07 0)
(1 -1.21407e-07 0)
(1 -1.42042e-07 0)
(1 -1.63986e-07 0)
(1 -1.86996e-07 0)
(1 -2.10529e-07 0)
(1 -2.33527e-07 0)
(1 -2.54188e-07 0)
(1 -2.69726e-07 0)
(1 -2.76305e-07 0)
(1.00001 -2.69481e-07 0)
(1.00001 -2.45402e-07 0)
(1.00001 -2.02851e-07 0)
(1.00001 -1.45757e-07 0)
(1.00001 -8.51572e-08 0)
(1.00001 -3.92058e-08 0)
(1.00001 -2.95065e-08 0)
(1.00001 -7.30139e-08 0)
(1.00001 -1.71934e-07 0)
(1.00001 -3.0565e-07 0)
(1.00001 -4.29874e-07 0)
(1.00001 -4.82279e-07 0)
(1.00001 -4.03579e-07 0)
(1.00001 -2.18719e-07 0)
(1.00001 -3.21179e-08 0)
(1.00002 1.35269e-07 0)
(1.00002 2.93506e-07 0)
(1.00002 4.17362e-07 0)
(1.00002 5.17921e-07 0)
(1.00002 6.03089e-07 0)
(1.00002 6.73493e-07 -6.95335e-41)
(1.00002 7.26679e-07 -6.7464e-41)
(1.00001 7.57726e-07 0)
(1.00001 7.60621e-07 0)
(1.00001 7.31558e-07 0)
(1.00001 6.71304e-07 0)
(1 5.85341e-07 0)
(1 4.80666e-07 0)
(0.999998 3.60821e-07 0)
(0.999996 2.29034e-07 0)
(0.999995 9.107e-08 0)
(0.999995 -6.21118e-08 0)
(0.999995 -2.32545e-07 0)
(0.999995 -4.11637e-07 0)
(0.999996 -5.90342e-07 0)
(0.999998 -7.60643e-07 0)
(1 -9.15039e-07 0)
(1 -1.04641e-06 0)
(1 -1.14731e-06 0)
(1.00001 -1.21116e-06 0)
(1.00001 -1.23305e-06 0)
(1.00001 -1.20651e-06 0)
(1.00002 -1.12586e-06 0)
(1.00002 -9.89769e-07 0)
(1.00003 -7.98075e-07 0)
(1.00003 -5.85828e-07 0)
(1.00004 -3.62081e-07 0)
(1.00004 -1.13438e-07 0)
(1.00005 1.60781e-07 0)
(1.00005 4.75436e-07 0)
(1.00005 8.1452e-07 0)
(1.00005 1.15291e-06 0)
(1.00005 1.47475e-06 0)
(1.00004 1.76109e-06 0)
(1.00004 1.99109e-06 0)
(1.00003 2.14708e-06 0)
(1.00003 2.21735e-06 0)
(1.00002 2.19751e-06 0)
(1.00001 2.0915e-06 0)
(1 1.91048e-06 0)
(0.999996 1.66996e-06 0)
(0.999989 1.38889e-06 0)
(0.999983 1.0886e-06 0)
(0.999978 7.88008e-07 0)
(0.999974 5.02352e-07 0)
(0.999971 2.53252e-07 0)
(0.99997 3.65271e-08 0)
(0.999969 -1.66142e-07 0)
(0.99997 -3.60284e-07 0)
(0.999971 -5.497e-07 0)
(0.999972 -7.34804e-07 0)
(0.999974 -9.03201e-07 0)
(0.999976 -1.02754e-06 0)
(0.999978 -1.07658e-06 0)
(0.999981 -1.03312e-06 0)
(0.999983 -9.07208e-07 0)
(0.999985 -7.35492e-07 0)
(0.999986 -5.65535e-07 0)
(0.999987 -4.34216e-07 0)
(0.999988 -3.55359e-07 0)
(0.999989 -3.229e-07 0)
(0.99999 -3.21624e-07 0)
(0.99999 -3.35599e-07 0)
(0.999991 -3.52154e-07 0)
(0.999992 -3.63217e-07 0)
(0.999993 -3.65053e-07 0)
(0.999993 -3.57085e-07 0)
(0.999994 -3.40612e-07 0)
(0.999995 -3.17792e-07 0)
(0.999996 -2.90948e-07 0)
(0.999996 -2.62167e-07 0)
(0.999997 -2.33116e-07 0)
(0.999997 -2.05011e-07 0)
(0.999998 -1.78653e-07 0)
(0.999998 -1.54504e-07 0)
(0.999998 -1.32775e-07 0)
(0.999999 -1.13492e-07 0)
(0.999999 -9.65659e-08 0)
(0.999999 -8.18356e-08 0)
(0.999999 -6.91033e-08 0)
(0.999999 -5.81579e-08 0)
(1 -4.87901e-08 0)
(1 -4.08018e-08 0)
(1 -3.40104e-08 0)
(1 -2.8252e-08 0)
(1 -2.33808e-08 0)
(1 -1.92691e-08 0)
(1 -1.58056e-08 0)
(1 -1.2894e-08 0)
(1 -1.04516e-08 0)
(1 -8.40758e-09 0)
(1 -6.70149e-09 0)
(1 -5.28152e-09 0)
(1 -4.10008e-09 0)
(1 -3.1083e-09 0)
(1 -2.26246e-09 0)
(1 -1.52316e-09 0)
(1 -8.81678e-10 0)
(1 -3.79285e-10 0)
(1 -4.88177e-11 0)
(1 1.7892e-10 0)
(1 3.50569e-10 0)
(1 4.75308e-10 0)
(1 5.66904e-10 0)
(1 6.33229e-10 0)
(1 6.78853e-10 0)
(1 7.07577e-10 0)
(1 7.22551e-10 0)
(1 7.26456e-10 0)
(1 7.21546e-10 0)
(1 7.09705e-10 0)
(1 6.92515e-10 0)
(1 6.71283e-10 0)
(1 6.47084e-10 0)
(1 6.20807e-10 0)
(1 5.93173e-10 0)
(1 5.64763e-10 0)
(1 5.36055e-10 0)
(1 5.07412e-10 0)
(1 4.79138e-10 0)
(1 4.51454e-10 0)
(1 4.24529e-10 0)
(1 3.98499e-10 0)
(1 3.73449e-10 0)
(1 3.49441e-10 0)
(1 3.26508e-10 0)
(1 3.04664e-10 0)
(1 2.83907e-10 0)
(1 2.64225e-10 0)
(1 2.45594e-10 0)
(1 2.2798e-10 0)
(1 2.11351e-10 0)
(1 1.95661e-10 0)
(1 1.80864e-10 0)
(1 1.66915e-10 0)
(1 1.53765e-10 0)
(1 1.41368e-10 0)
(1 1.29677e-10 0)
(1 1.18642e-10 0)
(1 1.08215e-10 0)
(1 9.83482e-11 0)
(1 8.89976e-11 0)
(1 8.01175e-11 0)
(1 7.16609e-11 0)
(1 6.35865e-11 0)
(1 5.58553e-11 0)
(1 4.8416e-11 0)
(1 4.11791e-11 0)
(1 3.41472e-11 0)
(1 2.60332e-11 0)
(1 2.09002e-11 0)
(1 -1.33425e-10 0)
(1 -5.94388e-10 0)
(1 -1.14922e-09 0)
(1 -1.89709e-09 0)
(1 -2.91448e-09 0)
(1 -4.27276e-09 0)
(1 -6.0836e-09 0)
(1 -8.45924e-09 0)
(1 -1.15188e-08 0)
(1 -1.54037e-08 0)
(1 -2.02795e-08 0)
(1 -2.63708e-08 0)
(1 -3.40348e-08 0)
(1 -4.38009e-08 0)
(1 -5.62987e-08 0)
(1 -7.20873e-08 0)
(1 -9.14808e-08 0)
(1 -1.14476e-07 0)
(1 -1.40816e-07 0)
(1 -1.70137e-07 0)
(1 -2.02114e-07 0)
(1 -2.36512e-07 0)
(1 -2.73113e-07 0)
(1 -3.11514e-07 0)
(1 -3.50837e-07 0)
(1 -3.89369e-07 0)
(1 -4.24137e-07 0)
(1 -4.50533e-07 0)
(1 -4.62231e-07 0)
(1.00001 -4.51788e-07 0)
(1.00001 -4.12467e-07 0)
(1.00001 -3.41649e-07 0)
(1.00001 -2.45291e-07 0)
(1.00001 -1.41717e-07 0)
(1.00001 -6.19739e-08 0)
(1.00001 -4.36608e-08 0)
(1.00001 -1.16727e-07 0)
(1.00001 -2.83506e-07 0)
(1.00001 -5.04044e-07 0)
(1.00001 -7.04509e-07 0)
(1.00001 -8.15639e-07 0)
(1.00001 -8.12349e-07 0)
(1.00001 -7.00407e-07 0)
(1.00001 -4.91675e-07 0)
(1.00001 -2.23653e-07 0)
(1.00001 5.86891e-08 0)
(1.00001 3.2426e-07 0)
(1.00001 5.70774e-07 0)
(1.00001 8.03161e-07 0)
(1.00001 1.0218e-06 0)
(1.00001 1.22013e-06 0)
(1.00001 1.38367e-06 0)
(1 1.49239e-06 0)
(1 1.52857e-06 0)
(1 1.48533e-06 0)
(0.999999 1.36684e-06 0)
(0.999997 1.18177e-06 0)
(0.999996 9.40038e-07 0)
(0.999995 6.53684e-07 0)
(0.999994 3.35855e-07 0)
(0.999994 2.93607e-09 0)
(0.999994 -3.30448e-07 0)
(0.999995 -6.55253e-07 0)
(0.999996 -9.65965e-07 0)
(0.999998 -1.25855e-06 0)
(1 -1.52946e-06 0)
(1 -1.77474e-06 0)
(1 -1.98971e-06 0)
(1.00001 -2.16823e-06 0)
(1.00001 -2.30183e-06 0)
(1.00001 -2.3817e-06 0)
(1.00002 -2.39931e-06 0)
(1.00002 -2.34411e-06 0)
(1.00002 -2.20567e-06 0)
(1.00002 -1.96544e-06 0)
(1.00003 -1.61501e-06 0)
(1.00003 -1.1607e-06 0)
(1.00003 -6.14729e-07 0)
(1.00003 1.98607e-08 0)
(1.00003 7.21385e-07 0)
(1.00003 1.45677e-06 0)
(1.00002 2.1937e-06 0)
(1.00002 2.89305e-06 0)
(1.00002 3.51116e-06 0)
(1.00001 4.00538e-06 0)
(1.00001 4.3396e-06 0)
(1 4.4901e-06 0)
(0.999994 4.44883e-06 0)
(0.999989 4.22295e-06 0)
(0.999984 3.83285e-06 0)
(0.999979 3.3098e-06 0)
(0.999976 2.69459e-06 0)
(0.999973 2.03709e-06 0)
(0.999971 1.39129e-06 0)
(0.999969 7.9885e-07 0)
(0.999969 2.82018e-07 0)
(0.999969 -1.58325e-07 0)
(0.999969 -5.3937e-07 0)
(0.99997 -8.85685e-07 0)
(0.999972 -1.21114e-06 0)
(0.999974 -1.50217e-06 0)
(0.999976 -1.71603e-06 0)
(0.999978 -1.80108e-06 0)
(0.999981 -1.72859e-06 0)
(0.999983 -1.51587e-06 0)
(0.999985 -1.22563e-06 0)
(0.999986 -9.39086e-07 0)
(0.999987 -7.18843e-07 0)
(0.999988 -5.87791e-07 0)
(0.999989 -5.34996e-07 0)
(0.99999 -5.34354e-07 0)
(0.99999 -5.58884e-07 0)
(0.999991 -5.873e-07 0)
(0.999992 -6.06154e-07 0)
(0.999993 -6.09316e-07 0)
(0.999993 -5.95944e-07 0)
(0.999994 -5.68301e-07 0)
(0.999995 -5.30051e-07 0)
(0.999996 -4.85112e-07 0)
(0.999996 -4.3698e-07 0)
(0.999997 -3.88441e-07 0)
(0.999997 -3.41518e-07 0)
(0.999998 -2.9754e-07 0)
(0.999998 -2.5727e-07 0)
(0.999998 -2.2105e-07 0)
(0.999999 -1.8892e-07 0)
(0.999999 -1.60725e-07 0)
(0.999999 -1.36194e-07 0)
(0.999999 -1.14994e-07 0)
(0.999999 -9.67728e-08 0)
(1 -8.11797e-08 0)
(1 -6.78839e-08 0)
(1 -5.65814e-08 0)
(1 -4.69984e-08 0)
(1 -3.88924e-08 0)
(1 -3.20505e-08 0)
(1 -2.62875e-08 0)
(1 -2.14433e-08 0)
(1 -1.73799e-08 0)
(1 -1.39788e-08 0)
(1 -1.11381e-08 0)
(1 -8.77058e-09 0)
(1 -6.80418e-09 0)
(1 -5.18295e-09 0)
(1 -3.86307e-09 0)
(1 -2.80631e-09 0)
(1 -1.96672e-09 0)
(1 -1.2824e-09 0)
(1 -6.98429e-10 0)
(1 -2.0449e-10 0)
(1 2.02481e-10 0)
(1 5.23867e-10 0)
(1 7.72142e-10 0)
(1 9.5961e-10 0)
(1 1.09684e-09 0)
(1 1.19295e-09 0)
(1 1.25558e-09 0)
(1 1.29111e-09 0)
(1 1.30487e-09 0)
(1 1.3013e-09 0)
(1 1.28408e-09 0)
(1 1.25629e-09 0)
(1 1.22045e-09 0)
(1 1.17863e-09 0)
(1 1.13256e-09 0)
(1 1.08363e-09 0)
(1 1.03299e-09 0)
(1 9.81522e-10 0)
(1 9.2997e-10 0)
(1 8.78907e-10 0)
(1 8.28773e-10 0)
(1 7.79923e-10 0)
(1 7.32608e-10 0)
(1 6.8701e-10 0)
(1 6.43257e-10 0)
(1 6.01422e-10 0)
(1 5.61543e-10 0)
(1 5.23626e-10 0)
(1 4.87657e-10 0)
(1 4.53595e-10 0)
(1 4.21391e-10 0)
(1 3.90981e-10 0)
(1 3.62291e-10 0)
(1 3.35247e-10 0)
(1 3.09765e-10 0)
(1 2.85761e-10 0)
(1 2.63149e-10 0)
(1 2.41841e-10 0)
(1 2.21753e-10 0)
(1 2.02799e-10 0)
(1 1.84896e-10 0)
(1 1.67965e-10 0)
(1 1.51924e-10 0)
(1 1.36695e-10 0)
(1 1.22212e-10 0)
(1 1.08374e-10 0)
(1 9.5226e-11 0)
(1 8.21156e-11 0)
(1 7.20819e-11 0)
(1 5.39404e-11 0)
(1 -1.85801e-10 0)
(1 -8.27612e-10 0)
(1 -1.60111e-09 0)
(1 -2.6449e-09 0)
(1 -4.06494e-09 0)
(1 -5.96085e-09 0)
(1 -8.48867e-09 0)
(1 -1.18051e-08 0)
(1 -1.60767e-08 0)
(1 -2.15009e-08 0)
(1 -2.83092e-08 0)
(1 -3.68154e-08 0)
(1 -4.75189e-08 0)
(1 -6.11597e-08 0)
(1 -7.86179e-08 0)
(1 -1.00675e-07 0)
(1 -1.27773e-07 0)
(1 -1.59909e-07 0)
(1 -1.96728e-07 0)
(1 -2.37729e-07 0)
(1 -2.82466e-07 0)
(1 -3.30627e-07 0)
(1 -3.81932e-07 0)
(1 -4.35854e-07 0)
(1 -4.91196e-07 0)
(1 -5.4558e-07 0)
(1 -5.94854e-07 0)
(1 -6.32547e-07 0)
(1 -6.49643e-07 0)
(1.00001 -6.35397e-07 0)
(1.00001 -5.80024e-07 0)
(1.00001 -4.79588e-07 0)
(1.00001 -3.42334e-07 0)
(1.00001 -1.94119e-07 0)
(1.00001 -7.90401e-08 0)
(1.00001 -5.08347e-08 0)
(1.00001 -1.52872e-07 0)
(1.00001 -3.9064e-07 0)
(1.00001 -7.11316e-07 0)
(1.00001 -1.0101e-06 0)
(1.00001 -1.17198e-06 0)
(1.00001 -1.12788e-06 0)
(1.00001 -8.81528e-07 0)
(1.00001 -4.99909e-07 0)
(1.00001 -8.11322e-08 0)
(1.00001 3.01716e-07 0)
(1.00001 6.48388e-07 0)
(1.00001 9.62493e-07 0)
(1.00001 1.25127e-06 0)
(1.00001 1.51544e-06 0)
(1.00001 1.74623e-06 0)
(1.00001 1.9255e-06 0)
(1 2.02847e-06 0)
(1 2.03476e-06 0)
(1 1.93944e-06 0)
(0.999999 1.75202e-06 0)
(0.999997 1.48772e-06 0)
(0.999996 1.16153e-06 0)
(0.999995 7.86721e-07 0)
(0.999994 3.75878e-07 0)
(0.999994 -5.65297e-08 0)
(0.999994 -4.98485e-07 0)
(0.999995 -9.3927e-07 0)
(0.999996 -1.36812e-06 0)
(0.999998 -1.77457e-06 0)
(1 -2.14808e-06 0)
(1 -2.47767e-06 0)
(1 -2.75188e-06 0)
(1.00001 -2.95873e-06 0)
(1.00001 -3.08668e-06 0)
(1.00001 -3.12525e-06 0)
(1.00002 -3.06478e-06 0)
(1.00002 -2.89809e-06 0)
(1.00002 -2.62108e-06 0)
(1.00002 -2.22891e-06 0)
(1.00003 -1.72256e-06 0)
(1.00003 -1.10447e-06 0)
(1.00003 -3.75746e-07 0)
(1.00003 4.41485e-07 0)
(1.00003 1.32891e-06 0)
(1.00003 2.25932e-06 0)
(1.00002 3.18832e-06 0)
(1.00002 4.06107e-06 0)
(1.00002 4.81836e-06 0)
(1.00001 5.40413e-06 0)
(1.00001 5.77356e-06 0)
(1 5.89981e-06 0)
(0.999994 5.77738e-06 0)
(0.999989 5.42132e-06 0)
(0.999984 4.86323e-06 0)
(0.999979 4.14741e-06 0)
(0.999975 3.32976e-06 0)
(0.999973 2.47594e-06 0)
(0.99997 1.65156e-06 0)
(0.999969 9.03864e-07 0)
(0.999969 2.53837e-07 0)
(0.999969 -3.05176e-07 0)
(0.999969 -8.01128e-07 0)
(0.99997 -1.26516e-06 0)
(0.999972 -1.71205e-06 0)
(0.999974 -2.11875e-06 0)
(0.999976 -2.42083e-06 0)
(0.999978 -2.54133e-06 0)
(0.999981 -2.43694e-06 0)
(0.999983 -2.13168e-06 0)
(0.999985 -1.71608e-06 0)
(0.999986 -1.30769e-06 0)
(0.999987 -9.96377e-07 0)
(0.999988 -8.13725e-07 0)
(0.999989 -7.42591e-07 0)
(0.99999 -7.44822e-07 0)
(0.99999 -7.81746e-07 0)
(0.999991 -8.23219e-07 0)
(0.999992 -8.50437e-07 0)
(0.999993 -8.55035e-07 0)
(0.999993 -8.36083e-07 0)
(0.999994 -7.96956e-07 0)
(0.999995 -7.42935e-07 0)
(0.999996 -6.79588e-07 0)
(0.999996 -6.11852e-07 0)
(0.999997 -5.4364e-07 0)
(0.999997 -4.77776e-07 0)
(0.999998 -4.16104e-07 0)
(0.999998 -3.59679e-07 0)
(0.999998 -3.08962e-07 0)
(0.999999 -2.63996e-07 0)
(0.999999 -2.24556e-07 0)
(0.999999 -1.90252e-07 0)
(0.999999 -1.60616e-07 0)
(0.999999 -1.35149e-07 0)
(1 -1.1336e-07 0)
(1 -9.47844e-08 0)
(1 -7.89953e-08 0)
(1 -6.56099e-08 0)
(1 -5.42885e-08 0)
(1 -4.47334e-08 0)
(1 -3.66856e-08 0)
(1 -2.99212e-08 0)
(1 -2.42472e-08 0)
(1 -1.94986e-08 0)
(1 -1.55344e-08 0)
(1 -1.22339e-08 0)
(1 -9.49365e-09 0)
(1 -7.22347e-09 0)
(1 -5.34401e-09 0)
(1 -3.79063e-09 0)
(1 -2.51224e-09 0)
(1 -1.4703e-09 0)
(1 -6.35378e-10 0)
(1 1.69026e-11 0)
(1 5.19441e-10 0)
(1 9.07456e-10 0)
(1 1.20267e-09 0)
(1 1.42181e-09 0)
(1 1.57879e-09 0)
(1 1.68514e-09 0)
(1 1.7504e-09 0)
(1 1.78255e-09 0)
(1 1.78822e-09 0)
(1 1.77292e-09 0)
(1 1.74123e-09 0)
(1 1.69695e-09 0)
(1 1.6432e-09 0)
(1 1.58256e-09 0)
(1 1.51715e-09 0)
(1 1.44868e-09 0)
(1 1.37854e-09 0)
(1 1.30784e-09 0)
(1 1.23745e-09 0)
(1 1.16807e-09 0)
(1 1.10023e-09 0)
(1 1.03435e-09 0)
(1 9.70715e-10 0)
(1 9.09532e-10 0)
(1 8.50937e-10 0)
(1 7.95004e-10 0)
(1 7.4176e-10 0)
(1 6.91195e-10 0)
(1 6.43274e-10 0)
(1 5.97931e-10 0)
(1 5.55091e-10 0)
(1 5.14658e-10 0)
(1 4.76524e-10 0)
(1 4.40586e-10 0)
(1 4.06727e-10 0)
(1 3.74828e-10 0)
(1 3.44773e-10 0)
(1 3.16442e-10 0)
(1 2.89718e-10 0)
(1 2.64485e-10 0)
(1 2.4063e-10 0)
(1 2.18045e-10 0)
(1 1.9662e-10 0)
(1 1.76249e-10 0)
(1 1.56836e-10 0)
(1 1.38259e-10 0)
(1 1.20529e-10 0)
(1 1.0306e-10 0)
(1 8.85847e-11 0)
(1 6.36849e-11 0)
(1 -2.36825e-10 0)
(1 -1.05767e-09 0)
(1 -2.04731e-09 0)
(1 -3.38291e-09 0)
(1 -5.20037e-09 0)
(1 -7.62747e-09 0)
(1 -1.08644e-08 0)
(1 -1.51121e-08 0)
(1 -2.05842e-08 0)
(1 -2.75335e-08 0)
(1 -3.62568e-08 0)
(1 -4.71565e-08 0)
(1 -6.08735e-08 0)
(1 -7.83571e-08 0)
(1 -1.00737e-07 0)
(1 -1.29017e-07 0)
(1 -1.63765e-07 0)
(1 -2.04984e-07 0)
(1 -2.52224e-07 0)
(1 -3.04856e-07 0)
(1 -3.62325e-07 0)
(1 -4.24259e-07 0)
(1 -4.90328e-07 0)
(1 -5.59895e-07 0)
(1 -6.3148e-07 0)
(1 -7.02106e-07 0)
(1 -7.66522e-07 0)
(1 -8.16418e-07 0)
(1 -8.40062e-07 0)
(1.00001 -8.2326e-07 0)
(1.00001 -7.52714e-07 0)
(1.00001 -6.22388e-07 0)
(1.00001 -4.4205e-07 0)
(1.00001 -2.44906e-07 0)
(1.00001 -8.90788e-08 0)
(1.00001 -4.68213e-08 0)
(1.00001 -1.78019e-07 0)
(1.00001 -4.92131e-07 0)
(1.00001 -9.18108e-07 0)
(1.00001 -1.31349e-06 0)
(1.00001 -1.5267e-06 0)
(1.00001 -1.47558e-06 0)
(1.00001 -1.17853e-06 0)
(1.00001 -7.23244e-07 0)
(1.00001 -2.09856e-07 0)
(1.00001 2.91384e-07 0)
(1.00001 7.46247e-07 0)
(1.00001 1.15935e-06 0)
(1.00001 1.54393e-06 0)
(1.00001 1.90172e-06 0)
(1.00001 2.2214e-06 0)
(1.00001 2.47816e-06 0)
(1 2.63696e-06 0)
(1 2.66817e-06 0)
(1 2.56309e-06 0)
(0.999999 2.3332e-06 0)
(0.999997 1.99764e-06 0)
(0.999996 1.57448e-06 0)
(0.999995 1.08106e-06 0)
(0.999994 5.36893e-07 0)
(0.999994 -3.63569e-08 0)
(0.999994 -6.19388e-07 0)
(0.999995 -1.19613e-06 0)
(0.999996 -1.75309e-06 0)
(0.999998 -2.27891e-06 0)
(0.999999 -2.76337e-06 0)
(1 -3.19612e-06 0)
(1 -3.5656e-06 0)
(1.00001 -3.85857e-06 0)
(1.00001 -4.06021e-06 0)
(1.00001 -4.15488e-06 0)
(1.00002 -4.12709e-06 0)
(1.00002 -3.96217e-06 0)
(1.00002 -3.64802e-06 0)
(1.00002 -3.17407e-06 0)
(1.00003 -2.5351e-06 0)
(1.00003 -1.73185e-06 0)
(1.00003 -7.73849e-07 0)
(1.00003 3.20762e-07 0)
(1.00003 1.52283e-06 0)
(1.00003 2.78671e-06 0)
(1.00002 4.05124e-06 0)
(1.00002 5.24388e-06 0)
(1.00002 6.28587e-06 0)
(1.00001 7.10186e-06 0)
(1.00001 7.63072e-06 0)
(1 7.83464e-06 0)
(0.999994 7.70451e-06 0)
(0.999989 7.2588e-06 0)
(0.999983 6.53781e-06 0)
(0.999979 5.59896e-06 0)
(0.999975 4.51597e-06 0)
(0.999972 3.37651e-06 0)
(0.99997 2.26982e-06 0)
(0.999969 1.26446e-06 0)
(0.999968 3.92844e-07 0)
(0.999969 -3.52368e-07 0)
(0.999969 -1.00693e-06 0)
(0.99997 -1.61491e-06 0)
(0.999972 -2.20049e-06 0)
(0.999973 -2.73624e-06 0)
(0.999976 -3.13679e-06 0)
(0.999978 -3.29813e-06 0)
(0.999981 -3.16079e-06 0)
(0.999983 -2.75621e-06 0)
(0.999985 -2.20607e-06 0)
(0.999986 -1.66859e-06 0)
(0.999987 -1.26332e-06 0)
(0.999988 -1.03007e-06 0)
(0.999989 -9.4355e-07 0)
(0.999989 -9.51897e-07 0)
(0.99999 -1.00386e-06 0)
(0.999991 -1.06011e-06 0)
(0.999992 -1.09652e-06 0)
(0.999993 -1.10273e-06 0)
(0.999993 -1.07796e-06 0)
(0.999994 -1.02692e-06 0)
(0.999995 -9.56658e-07 0)
(0.999996 -8.74474e-07 0)
(0.999996 -7.86789e-07 0)
(0.999997 -6.98649e-07 0)
(0.999997 -6.13673e-07 0)
(0.999998 -5.3421e-07 0)
(0.999998 -4.61584e-07 0)
(0.999998 -3.96363e-07 0)
(0.999999 -3.38579e-07 0)
(0.999999 -2.87926e-07 0)
(0.999999 -2.43892e-07 0)
(0.999999 -2.05864e-07 0)
(0.999999 -1.73196e-07 0)
(1 -1.45252e-07 0)
(1 -1.21434e-07 0)
(1 -1.01193e-07 0)
(1 -8.40357e-08 0)
(1 -6.95257e-08 0)
(1 -5.72806e-08 0)
(1 -4.6968e-08 0)
(1 -3.83007e-08 0)
(1 -3.10315e-08 0)
(1 -2.49483e-08 0)
(1 -1.98694e-08 0)
(1 -1.56394e-08 0)
(1 -1.21263e-08 0)
(1 -9.21941e-09 0)
(1 -6.82652e-09 0)
(1 -4.86956e-09 0)
(1 -3.27943e-09 0)
(1 -1.99257e-09 0)
(1 -9.51394e-10 0)
(1 -1.12416e-10 0)
(1 5.57399e-10 0)
(1 1.08261e-09 0)
(1 1.4857e-09 0)
(1 1.78775e-09 0)
(1 2.00657e-09 0)
(1 2.15719e-09 0)
(1 2.25229e-09 0)
(1 2.30249e-09 0)
(1 2.31668e-09 0)
(1 2.30228e-09 0)
(1 2.26545e-09 0)
(1 2.21131e-09 0)
(1 2.1441e-09 0)
(1 2.06729e-09 0)
(1 1.98374e-09 0)
(1 1.89579e-09 0)
(1 1.8053e-09 0)
(1 1.7138e-09 0)
(1 1.62247e-09 0)
(1 1.53228e-09 0)
(1 1.44394e-09 0)
(1 1.35803e-09 0)
(1 1.27496e-09 0)
(1 1.19501e-09 0)
(1 1.11838e-09 0)
(1 1.04518e-09 0)
(1 9.75463e-10 0)
(1 9.0922e-10 0)
(1 8.46414e-10 0)
(1 7.86969e-10 0)
(1 7.30787e-10 0)
(1 6.7775e-10 0)
(1 6.27722e-10 0)
(1 5.80567e-10 0)
(1 5.36139e-10 0)
(1 4.94284e-10 0)
(1 4.54849e-10 0)
(1 4.17681e-10 0)
(1 3.82627e-10 0)
(1 3.49538e-10 0)
(1 3.18265e-10 0)
(1 2.88668e-10 0)
(1 2.60605e-10 0)
(1 2.33938e-10 0)
(1 2.08541e-10 0)
(1 1.84255e-10 0)
(1 1.61109e-10 0)
(1 1.38292e-10 0)
(1 1.19149e-10 0)
(1 8.71027e-11 0)
(1 -2.86432e-10 0)
(1 -1.28312e-09 0)
(1 -2.48484e-09 0)
(1 -4.10718e-09 0)
(1 -6.31591e-09 0)
(1 -9.26664e-09 0)
(1 -1.32032e-08 0)
(1 -1.83703e-08 0)
(1 -2.50279e-08 0)
(1 -3.34838e-08 0)
(1 -4.40994e-08 0)
(1 -5.73651e-08 0)
(1 -7.4062e-08 0)
(1 -9.53476e-08 0)
(1 -1.22599e-07 0)
(1 -1.57043e-07 0)
(1 -1.99372e-07 0)
(1 -2.49598e-07 0)
(1 -3.07185e-07 0)
(1 -3.71383e-07 0)
(1 -4.41542e-07 0)
(1 -5.17245e-07 0)
(1 -5.98148e-07 0)
(1 -6.83547e-07 0)
(1 -7.71734e-07 0)
(1 -8.59178e-07 0)
(1 -9.39546e-07 0)
(1 -1.00267e-06 0)
(1 -1.03395e-06 0)
(1.00001 -1.01539e-06 0)
(1.00001 -9.29623e-07 0)
(1.00001 -7.67944e-07 0)
(1.00001 -5.41314e-07 0)
(1.00001 -2.90494e-07 0)
(1.00001 -8.86229e-08 0)
(1.00001 -2.84027e-08 0)
(1.00001 -1.88572e-07 0)
(1.00001 -5.84492e-07 0)
(1.00001 -1.12798e-06 0)
(1.00001 -1.6371e-06 0)
(1.00001 -1.91484e-06 0)
(1.00001 -1.85087e-06 0)
(1.00001 -1.46547e-06 0)
(1.00001 -8.73093e-07 0)
(1.00001 -2.16052e-07 0)
(1.00001 4.05332e-07 0)
(1.00001 9.59844e-07 0)
(1.00001 1.46117e-06 0)
(1.00001 1.9274e-06 0)
(1.00001 2.36102e-06 0)
(1.00001 2.74818e-06 0)
(1.00001 3.058e-06 0)
(1 3.24614e-06 0)
(1 3.27525e-06 0)
(1 3.13581e-06 0)
(0.999999 2.84449e-06 0)
(0.999997 2.42661e-06 0)
(0.999996 1.9048e-06 0)
(0.999995 1.30047e-06 0)
(0.999994 6.37259e-07 0)
(0.999994 -6.00243e-08 0)
(0.999994 -7.69481e-07 0)
(0.999995 -1.47271e-06 0)
(0.999996 -2.15374e-06 0)
(0.999997 -2.79825e-06 0)
(0.999999 -3.39235e-06 0)
(1 -3.9212e-06 0)
(1 -4.36843e-06 0)
(1.00001 -4.71637e-06 0)
(1.00001 -4.94657e-06 0)
(1.00001 -5.04086e-06 0)
(1.00002 -4.98214e-06 0)
(1.00002 -4.75548e-06 0)
(1.00002 -4.34909e-06 0)
(1.00002 -3.75302e-06 0)
(1.00003 -2.96279e-06 0)
(1.00003 -1.98089e-06 0)
(1.00003 -8.1702e-07 0)
(1.00003 5.07146e-07 0)
(1.00003 1.95686e-06 0)
(1.00003 3.47975e-06 0)
(1.00003 5.00346e-06 0)
(1.00002 6.43973e-06 0)
(1.00002 7.69232e-06 0)
(1.00001 8.66898e-06 0)
(1.00001 9.29481e-06 0)
(1 9.52413e-06 0)
(0.999994 9.34709e-06 0)
(0.999988 8.78739e-06 0)
(0.999983 7.8948e-06 0)
(0.999979 6.73968e-06 0)
(0.999975 5.41211e-06 0)
(0.999972 4.01986e-06 0)
(0.99997 2.67391e-06 0)
(0.999969 1.45974e-06 0)
(0.999968 4.14318e-07 0)
(0.999968 -4.75616e-07 0)
(0.999969 -1.25789e-06 0)
(0.99997 -1.99072e-06 0)
(0.999971 -2.70723e-06 0)
(0.999973 -3.37306e-06 0)
(0.999976 -3.87691e-06 0)
(0.999978 -4.08171e-06 0)
(0.999981 -3.90768e-06 0)
(0.999983 -3.39343e-06 0)
(0.999985 -2.69585e-06 0)
(0.999987 -2.01938e-06 0)
(0.999988 -1.51639e-06 0)
(0.999988 -1.23403e-06 0)
(0.999989 -1.13611e-06 0)
(0.999989 -1.15487e-06 0)
(0.99999 -1.22531e-06 0)
(0.999991 -1.29852e-06 0)
(0.999992 -1.34514e-06 0)
(0.999993 -1.3531e-06 0)
(0.999993 -1.32216e-06 0)
(0.999994 -1.25863e-06 0)
(0.999995 -1.17148e-06 0)
(0.999996 -1.06989e-06 0)
(0.999996 -9.61803e-07 0)
(0.999997 -8.53405e-07 0)
(0.999997 -7.49101e-07 0)
(0.999998 -6.51719e-07 0)
(0.999998 -5.62836e-07 0)
(0.999998 -4.83103e-07 0)
(0.999999 -4.12526e-07 0)
(0.999999 -3.50704e-07 0)
(0.999999 -2.96991e-07 0)
(0.999999 -2.50628e-07 0)
(0.999999 -2.10815e-07 0)
(1 -1.76771e-07 0)
(1 -1.4776e-07 0)
(1 -1.23111e-07 0)
(1 -1.02221e-07 0)
(1 -8.45571e-08 0)
(1 -6.96521e-08 0)
(1 -5.7101e-08 0)
(1 -4.65533e-08 0)
(1 -3.77078e-08 0)
(1 -3.03061e-08 0)
(1 -2.41273e-08 0)
(1 -1.8983e-08 0)
(1 -1.47128e-08 0)
(1 -1.11799e-08 0)
(1 -8.26729e-09 0)
(1 -5.87583e-09 0)
(1 -3.92153e-09 0)
(1 -2.33287e-09 0)
(1 -1.04974e-09 0)
(1 -2.70868e-11 0)
(1 7.76599e-10 0)
(1 1.40062e-09 0)
(1 1.87681e-09 0)
(1 2.2314e-09 0)
(1 2.48631e-09 0)
(1 2.65986e-09 0)
(1 2.76735e-09 0)
(1 2.82157e-09 0)
(1 2.83315e-09 0)
(1 2.81095e-09 0)
(1 2.76233e-09 0)
(1 2.69339e-09 0)
(1 2.60914e-09 0)
(1 2.51373e-09 0)
(1 2.41055e-09 0)
(1 2.30236e-09 0)
(1 2.19138e-09 0)
(1 2.0794e-09 0)
(1 1.96784e-09 0)
(1 1.85781e-09 0)
(1 1.75018e-09 0)
(1 1.6456e-09 0)
(1 1.54455e-09 0)
(1 1.44738e-09 0)
(1 1.35429e-09 0)
(1 1.26541e-09 0)
(1 1.18079e-09 0)
(1 1.10042e-09 0)
(1 1.02424e-09 0)
(1 9.52164e-10 0)
(1 8.84056e-10 0)
(1 8.19772e-10 0)
(1 7.59147e-10 0)
(1 7.02011e-10 0)
(1 6.48184e-10 0)
(1 5.97479e-10 0)
(1 5.49708e-10 0)
(1 5.04683e-10 0)
(1 4.62219e-10 0)
(1 4.22134e-10 0)
(1 3.84246e-10 0)
(1 3.48384e-10 0)
(1 3.14378e-10 0)
(1 2.82058e-10 0)
(1 2.5127e-10 0)
(1 2.21822e-10 0)
(1 1.93748e-10 0)
(1 1.66049e-10 0)
(1 1.4273e-10 0)
(1 1.03898e-10 0)
(1 -3.3429e-10 0)
(1 -1.50282e-09 0)
(1 -2.9119e-09 0)
(1 -4.81511e-09 0)
(1 -7.40768e-09 0)
(1 -1.08727e-08 0)
(1 -1.5497e-08 0)
(1 -2.15688e-08 0)
(1 -2.93936e-08 0)
(1 -3.93336e-08 0)
(1 -5.18139e-08 0)
(1 -6.74119e-08 0)
(1 -8.7048e-08 0)
(1 -1.12086e-07 0)
(1 -1.44149e-07 0)
(1 -1.84682e-07 0)
(1 -2.34508e-07 0)
(1 -2.93649e-07 0)
(1 -3.61489e-07 0)
(1 -4.37171e-07 0)
(1 -5.19968e-07 0)
(1 -6.09442e-07 0)
(1 -7.05265e-07 0)
(1 -8.06704e-07 0)
(1 -9.11869e-07 0)
(1 -1.01675e-06 0)
(1 -1.11402e-06 0)
(1 -1.1917e-06 0)
(1 -1.23225e-06 0)
(1.00001 -1.21348e-06 0)
(1.00001 -1.11326e-06 0)
(1.00001 -9.193e-07 0)
(1.00001 -6.42868e-07 0)
(1.00001 -3.32073e-07 0)
(1.00001 -7.62943e-08 0)
(1.00001 8.33363e-09 0)
(1.00001 -1.79969e-07 0)
(1.00001 -6.65743e-07 0)
(1.00001 -1.34186e-06 0)
(1.00001 -1.97884e-06 0)
(1.00001 -2.32618e-06 0)
(1.00001 -2.24605e-06 0)
(1.00001 -1.77043e-06 0)
(1.00001 -1.05057e-06 0)
(1.00001 -2.62424e-07 0)
(1.00001 4.75705e-07 0)
(1.00001 1.12949e-06 0)
(1.00001 1.71958e-06 0)
(1.00001 2.27097e-06 0)
(1.00001 2.78764e-06 3.48364e-41)
(1.00001 3.25363e-06 3.35923e-41)
(1.00001 3.63129e-06 0)
(1 3.86439e-06 0)
(1 3.90511e-06 0)
(1 3.74197e-06 0)
(0.999999 3.39677e-06 0)
(0.999997 2.90088e-06 0)
(0.999995 2.28092e-06 0)
(0.999994 1.56178e-06 0)
(0.999994 7.7178e-07 0)
(0.999994 -5.9182e-08 0)
(0.999994 -9.04314e-07 0)
(0.999994 -1.74105e-06 0)
(0.999996 -2.55017e-06 0)
(0.999997 -3.31497e-06 0)
(0.999999 -4.01981e-06 0)
(1 -4.64847e-06 0)
(1 -5.18311e-06 0)
(1.00001 -5.60382e-06 0)
(1.00001 -5.88897e-06 0)
(1.00001 -6.01625e-06 0)
(1.00002 -5.96415e-06 0)
(1.00002 -5.71319e-06 0)
(1.00002 -5.24707e-06 0)
(1.00003 -4.55308e-06 0)
(1.00003 -3.62481e-06 0)
(1.00003 -2.46357e-06 0)
(1.00003 -1.08004e-06 0)
(1.00003 5.01318e-07 0)
(1.00003 2.23873e-06 0)
(1.00003 4.06909e-06 0)
(1.00003 5.90552e-06 0)
(1.00002 7.64112e-06 0)
(1.00002 9.15858e-06 0)
(1.00001 1.0345e-05 0)
(1.00001 1.11085e-05 0)
(1 1.13933e-05 0)
(0.999994 1.11876e-05 0)
(0.999988 1.05202e-05 0)
(0.999983 9.45104e-06 0)
(0.999978 8.06449e-06 0)
(0.999974 6.46854e-06 0)
(0.999971 4.79419e-06 0)
(0.999969 3.17842e-06 0)
(0.999968 1.7271e-06 0)
(0.999968 4.8468e-07 0)
(0.999968 -5.66943e-07 0)
(0.999969 -1.48809e-06 0)
(0.99997 -2.35416e-06 0)
(0.999971 -3.21142e-06 0)
(0.999973 -4.02022e-06 0)
(0.999976 -4.64016e-06 0)
(0.999978 -4.89549e-06 0)
(0.999981 -4.68191e-06 0)
(0.999984 -4.04564e-06 0)
(0.999985 -3.18445e-06 0)
(0.999987 -2.35663e-06 0)
(0.999988 -1.75147e-06 0)
(0.999988 -1.42222e-06 0)
(0.999989 -1.31816e-06 0)
(0.999989 -1.3528e-06 0)
(0.99999 -1.44603e-06 0)
(0.999991 -1.53888e-06 0)
(0.999992 -1.59691e-06 0)
(0.999993 -1.60678e-06 0)
(0.999993 -1.56921e-06 0)
(0.999994 -1.49243e-06 0)
(0.999995 -1.38762e-06 0)
(0.999996 -1.26593e-06 0)
(0.999996 -1.13688e-06 0)
(0.999997 -1.00783e-06 0)
(0.999997 -8.83934e-07 0)
(0.999998 -7.68485e-07 0)
(0.999998 -6.63281e-07 0)
(0.999998 -5.69028e-07 0)
(0.999999 -4.85691e-07 0)
(0.999999 -4.12754e-07 0)
(0.999999 -3.49431e-07 0)
(0.999999 -2.94803e-07 0)
(0.999999 -2.47915e-07 0)
(1 -2.07835e-07 0)
(1 -1.73692e-07 0)
(1 -1.4469e-07 0)
(1 -1.20115e-07 0)
(1 -9.93392e-08 0)
(1 -8.1811e-08 0)
(1 -6.70528e-08 0)
(1 -5.46519e-08 0)
(1 -4.42535e-08 0)