/*--------------------------------*- C++ -*----------------------------------*\
| =========                 |                                                 |
| \\      /  F ield         | OpenFOAM: The Open Source CFD Toolbox           |
|  \\    /   O peration     | Version:  v2006                                 |
|   \\  /    A nd           | Website:  www.openfoam.com                      |
|    \\/     M anipulation  |                                                 |
\*---------------------------------------------------------------------------*/
FoamFile
{
    version     2.0;
    format      ascii;
    class       volVectorField;
    location    "0";
    object      U;
}
// * * * * * * * * * * * * * * * * * * * * * * * * * * * * * * * * * * * * * //

dimensions      [0 1 -1 0 0 0 0];


internalField   nonuniform List<vector> 
20000
(
(1 2.52787e-12 0)
(1 7.11805e-12 0)
(1 1.23126e-11 0)
(1 1.84446e-11 0)
(1 2.55867e-11 0)
(1 3.39206e-11 0)
(1 4.36359e-11 0)
(1 5.49193e-11 0)
(1 6.80169e-11 0)
(1 8.32597e-11 0)
(1 1.01013e-10 0)
(1 1.21588e-10 0)
(1 1.45193e-10 0)
(1 1.71917e-10 0)
(1 2.01722e-10 0)
(1 2.34449e-10 0)
(1 2.69806e-10 0)
(1 3.07335e-10 0)
(1 3.46387e-10 0)
(1 3.86083e-10 0)
(1 4.25308e-10 0)
(1 4.62737e-10 0)
(1 4.96884e-10 0)
(1 5.26216e-10 0)
(1 5.49281e-10 0)
(1 5.64859e-10 0)
(1 5.72092e-10 0)
(1 5.70572e-10 0)
(1 5.60336e-10 0)
(1 5.41758e-10 0)
(1 5.15518e-10 0)
(1 4.82604e-10 0)
(1 4.44146e-10 0)
(1 4.01233e-10 0)
(1 3.54787e-10 0)
(1 3.05517e-10 0)
(1 2.53964e-10 0)
(1 2.00581e-10 0)
(1 1.45804e-10 0)
(1 9.01314e-11 0)
(1 3.41884e-11 0)
(1 -2.11964e-11 0)
(1 -7.49351e-11 0)
(1 -1.25724e-10 0)
(1 -1.72137e-10 0)
(1 -2.12387e-10 0)
(1 -2.44142e-10 0)
(1 -2.64817e-10 0)
(1 -2.71639e-10 0)
(1 -2.62949e-10 0)
(1 -2.40238e-10 0)
(1 -2.11724e-10 0)
(1 -2.04605e-10 0)
(1 -2.57269e-10 0)
(1 -3.77984e-10 0)
(1 -5.68844e-10 0)
(1 -8.35423e-10 0)
(1 -1.18752e-09 0)
(1 -1.63904e-09 0)
(1 -2.20805e-09 0)
(1 -2.91714e-09 0)
(1 -3.79433e-09 0)
(1 -4.8741e-09 0)
(1 -6.1984e-09 0)
(1 -7.81765e-09 0)
(1 -9.79176e-09 0)
(1 -1.21915e-08 0)
(1 -1.50992e-08 0)
(1 -1.86103e-08 0)
(1 -2.28356e-08 0)
(1 -2.79004e-08 0)
(1 -3.39324e-08 0)
(1 -4.10405e-08 0)
(1 -4.93365e-08 0)
(1 -5.90521e-08 0)
(1 -7.06302e-08 0)
(1 -8.43712e-08 0)
(1 -9.93873e-08 0)
(1 -1.13205e-07 0)
(1 -1.25515e-07 0)
(1.00001 -1.46407e-07 0)
(1.00001 -1.95667e-07 0)
(1.00001 -2.66426e-07 0)
(1.00001 -2.60285e-07 0)
(1.00001 -2.15191e-08 0)
(1.00001 3.85738e-07 0)
(1.00001 7.74243e-07 0)
(1.00001 1.05959e-06 0)
(1.00001 1.24132e-06 0)
(1.00001 1.35017e-06 0)
(1 1.41551e-06 0)
(1 1.45765e-06 0)
(0.999998 1.49063e-06 0)
(0.999996 1.52548e-06 0)
(0.999993 1.57155e-06 0)
(0.999991 1.63563e-06 0)
(0.999988 1.71961e-06 0)
(0.999985 1.81769e-06 0)
(0.999983 1.91492e-06 0)
(0.99998 1.98833e-06 0)
(0.999977 2.01173e-06 0)
(0.999974 1.96221e-06 0)
(0.999971 1.82637e-06 0)
(0.999968 1.60362e-06 0)
(0.999965 1.30628e-06 0)
(0.999962 9.54106e-07 0)
(0.999958 5.67708e-07 0)
(0.999955 1.65005e-07 0)
(0.999952 -2.39014e-07 0)
(0.999949 -6.30713e-07 0)
(0.999947 -9.95903e-07 0)
(0.999944 -1.31927e-06 0)
(0.999942 -1.58503e-06 0)
(0.99994 -1.77847e-06 0)
(0.999939 -1.88807e-06 0)
(0.999938 -1.90686e-06 0)
(0.999937 -1.83265e-06 0)
(0.999936 -1.67266e-06 0)
(0.999936 -1.45601e-06 0)
(0.999936 -1.23646e-06 0)
(0.999937 -1.08222e-06 0)
(0.999938 -1.00464e-06 0)
(0.99994 -9.90961e-07 0)
(0.999944 -1.01499e-06 0)
(0.999949 -1.0358e-06 0)
(0.999955 -9.98037e-07 0)
(0.999962 -8.34644e-07 0)
(0.999969 -4.75955e-07 0)
(0.999977 1.35711e-07 0)
(0.999983 1.02575e-06 0)
(0.999988 2.15107e-06 0)
(0.99999 3.33052e-06 0)
(0.99999 4.18367e-06 0)
(0.999988 4.66176e-06 0)
(0.999986 4.8497e-06 0)
(0.999984 4.82784e-06 0)
(0.99998 4.63872e-06 0)
(0.999977 4.30034e-06 0)
(0.999973 3.82307e-06 0)
(0.999968 3.21883e-06 0)
(0.999964 2.50436e-06 0)
(0.999959 1.7029e-06 0)
(0.999954 8.44747e-07 0)
(0.999949 -3.33675e-08 0)
(0.999944 -8.90899e-07 0)
(0.99994 -1.6865e-06 0)
(0.999935 -2.38161e-06 0)
(0.999931 -2.94378e-06 0)
(0.999928 -3.34935e-06 0)
(0.999925 -3.58548e-06 0)
(0.999923 -3.65141e-06 0)
(0.999921 -3.55839e-06 0)
(0.999919 -3.32645e-06 0)
(0.999918 -2.98258e-06 0)
(0.999918 -2.56231e-06 0)
(0.999918 -2.11443e-06 0)
(0.999918 -1.71677e-06 0)
(0.999919 -1.42191e-06 0)
(0.99992 -1.2271e-06 0)
(0.999922 -1.11053e-06 0)
(0.999926 -1.0444e-06 0)
(0.99993 -9.98865e-07 0)
(0.999934 -9.48155e-07 0)
(0.999939 -8.77246e-07 0)
(0.999944 -7.853e-07 0)
(0.999948 -6.83567e-07 0)
(0.999952 -5.88175e-07 0)
(0.999955 -5.11713e-07 0)
(0.999958 -4.5876e-07 0)
(0.999961 -4.26944e-07 0)
(0.999963 -4.10465e-07 0)
(0.999966 -4.02898e-07 0)
(0.999969 -3.98674e-07 0)
(0.999971 -3.93758e-07 0)
(0.999974 -3.85743e-07 0)
(0.999976 -3.73581e-07 0)
(0.999979 -3.57203e-07 0)
(0.999981 -3.37156e-07 0)
(0.999983 -3.14311e-07 0)
(0.999985 -2.89642e-07 0)
(0.999987 -2.6409e-07 0)
(0.999989 -2.38481e-07 0)
(0.99999 -2.13485e-07 0)
(0.999992 -1.89612e-07 0)
(0.999993 -1.67219e-07 0)
(0.999994 -1.46528e-07 0)
(0.999995 -1.27652e-07 0)
(0.999996 -1.10614e-07 0)
(0.999996 -9.53746e-08 0)
(0.999997 -8.18452e-08 0)
(0.999997 -6.99078e-08 0)
(0.999998 -5.94258e-08 0)
(0.999998 -5.02534e-08 0)
(0.999999 -4.22429e-08 0)
(0.999999 -3.52487e-08 0)
(0.999999 -2.91288e-08 0)
(0.999999 -2.37634e-08 0)
(0.999999 -1.8939e-08 0)
(0.999999 -1.50259e-08 0)
(1 -9.30321e-09 0)
(1 4.87653e-12 0)
(1 1.258e-11 0)
(1 2.03847e-11 0)
(1 2.88749e-11 0)
(1 3.79115e-11 0)
(1 4.75699e-11 0)
(1 5.80554e-11 0)
(1 6.96101e-11 0)
(1 8.24334e-11 0)
(1 9.66659e-11 0)
(1 1.1242e-10 0)
(1 1.29805e-10 0)
(1 1.48947e-10 0)
(1 1.69951e-10 0)
(1 1.92845e-10 0)
(1 2.17539e-10 0)
(1 2.43819e-10 0)
(1 2.71378e-10 0)
(1 2.99857e-10 0)
(1 3.28877e-10 0)
(1 3.58052e-10 0)
(1 3.86986e-10 0)
(1 4.15266e-10 0)
(1 4.42481e-10 0)
(1 4.68277e-10 0)
(1 4.92422e-10 0)
(1 5.14871e-10 0)
(1 5.3581e-10 0)
(1 5.55643e-10 0)
(1 5.74948e-10 0)
(1 5.94475e-10 0)
(1 6.15057e-10 0)
(1 6.37349e-10 0)
(1 6.61757e-10 0)
(1 6.88429e-10 0)
(1 7.17266e-10 0)
(1 7.47961e-10 0)
(1 7.80027e-10 0)
(1 8.12775e-10 0)
(1 8.45297e-10 0)
(1 8.76458e-10 0)
(1 9.04864e-10 0)
(1 9.28791e-10 0)
(1 9.46042e-10 0)
(1 9.53872e-10 0)
(1 9.49184e-10 0)
(1 9.2848e-10 0)
(1 8.87544e-10 0)
(1 8.21541e-10 0)
(1 7.24403e-10 7.09255e-43)
(1 5.88396e-10 7.61727e-43)
(1 4.02593e-10 0)
(1 1.3735e-10 0)
(1 -2.46512e-10 0)
(1 -7.68e-10 0)
(1 -1.45047e-09 0)
(1 -2.32575e-09 0)
(1 -3.43387e-09 0)
(1 -4.8238e-09 0)
(1 -6.55463e-09 0)
(1 -8.69751e-09 0)
(1 -1.13388e-08 0)
(1 -1.45835e-08 0)
(1 -1.85588e-08 0)
(1 -2.34163e-08 0)
(1 -2.93359e-08 0)
(1 -3.65297e-08 0)
(1 -4.52476e-08 0)
(1 -5.57791e-08 0)
(1 -6.84499e-08 0)
(1 -8.36164e-08 0)
(1 -1.01661e-07 0)
(1 -1.22996e-07 0)
(1 -1.48072e-07 0)
(1 -1.77401e-07 0)
(1 -2.11519e-07 0)
(1 -2.50816e-07 0)
(1 -2.95195e-07 0)
(1 -3.44059e-07 0)
(1 -3.97602e-07 0)
(1.00001 -4.5895e-07 0)
(1.00001 -5.32028e-07 0)
(1.00001 -6.05189e-07 0)
(1.00001 -6.24186e-07 0)
(1.00001 -5.16244e-07 0)
(1.00001 -3.55228e-07 0)
(1.00002 -2.49306e-07 0)
(1.00002 -2.06603e-07 0)
(1.00003 -1.96384e-07 0)
(1.00003 -1.89205e-07 0)
(1.00004 -1.70975e-07 0)
(1.00004 -1.41003e-07 0)
(1.00005 -1.07044e-07 0)
(1.00005 -8.18176e-08 0)
(1.00006 -7.98273e-08 0)
(1.00006 -1.12996e-07 0)
(1.00007 -1.84565e-07 0)
(1.00008 -2.824e-07 0)
(1.00008 -3.75952e-07 0)
(1.00009 -4.21823e-07 0)
(1.0001 -3.80546e-07 0)
(1.0001 -2.32158e-07 0)
(1.00011 1.50894e-08 0)
(1.00011 3.37337e-07 0)
(1.00011 6.97468e-07 0)
(1.00011 1.06927e-06 0)
(1.00011 1.43722e-06 0)
(1.00011 1.79146e-06 0)
(1.0001 2.12201e-06 0)
(1.00009 2.41603e-06 0)
(1.00008 2.65845e-06 0)
(1.00006 2.83316e-06 0)
(1.00005 2.92478e-06 0)
(1.00003 2.92226e-06 0)
(1.00002 2.82185e-06 0)
(1 2.6274e-06 0)
(0.99999 2.34838e-06 0)
(0.999977 1.99518e-06 0)
(0.999967 1.57176e-06 0)
(0.999959 1.07386e-06 0)
(0.999954 4.86441e-07 0)
(0.99995 -1.67598e-07 0)
(0.999949 -8.60561e-07 0)
(0.999951 -1.56634e-06 0)
(0.999954 -2.25803e-06 0)
(0.999959 -2.90651e-06 0)
(0.999967 -3.47921e-06 0)
(0.999977 -3.94113e-06 0)
(0.99999 -4.25662e-06 0)
(1.00001 -4.39324e-06 0)
(1.00003 -4.33586e-06 0)
(1.00005 -4.13645e-06 0)
(1.00007 -3.9943e-06 0)
(1.0001 -3.86018e-06 0)
(1.00013 -3.64883e-06 0)
(1.00015 -3.31231e-06 0)
(1.00018 -2.83588e-06 0)
(1.0002 -2.22311e-06 0)
(1.00022 -1.48665e-06 0)
(1.00023 -6.46692e-07 0)
(1.00024 2.718e-07 0)
(1.00024 1.23046e-06 0)
(1.00024 2.18701e-06 0)
(1.00023 3.09684e-06 0)
(1.00022 3.91383e-06 0)
(1.0002 4.59437e-06 0)
(1.00017 5.10225e-06 0)
(1.00015 5.41314e-06 0)
(1.00012 5.51774e-06 0)
(1.00009 5.42199e-06 0)
(1.00006 5.1446e-06 0)
(1.00004 4.71399e-06 0)
(1.00001 4.16653e-06 0)
(0.99999 3.54222e-06 0)
(0.999972 2.87794e-06 0)
(0.999957 2.19909e-06 0)
(0.999947 1.50038e-06 0)
(0.999939 7.85014e-07 0)
(0.999935 8.34737e-08 0)
(0.999933 -5.71621e-07 0)
(0.999933 -1.13962e-06 0)
(0.999935 -1.57612e-06 0)
(0.999938 -1.84504e-06 0)
(0.999941 -1.93647e-06 0)
(0.999945 -1.87692e-06 0)
(0.999949 -1.7235e-06 0)
(0.999952 -1.54284e-06 0)
(0.999955 -1.38632e-06 0)
(0.999958 -1.27743e-06 0)
(0.999961 -1.21595e-06 0)
(0.999964 -1.18935e-06 0)
(0.999966 -1.18181e-06 0)
(0.999969 -1.17907e-06 0)
(0.999971 -1.17074e-06 0)
(0.999974 -1.15075e-06 0)
(0.999976 -1.1168e-06 0)
(0.999979 -1.06922e-06 0)
(0.999981 -1.01e-06 0)
(0.999983 -9.42006e-07 0)
(0.999985 -8.68309e-07 0)
(0.999987 -7.91828e-07 0)
(0.999989 -7.15096e-07 0)
(0.99999 -6.40163e-07 0)
(0.999992 -5.68578e-07 0)
(0.999993 -5.01422e-07 0)
(0.999994 -4.39369e-07 0)
(0.999995 -3.82757e-07 0)
(0.999996 -3.31662e-07 0)
(0.999996 -2.8596e-07 0)
(0.999997 -2.45388e-07 0)
(0.999997 -2.0959e-07 0)
(0.999998 -1.78156e-07 0)
(0.999998 -1.50649e-07 0)
(0.999999 -1.26628e-07 0)
(0.999999 -1.0566e-07 0)
(0.999999 -8.73214e-08 0)
(0.999999 -7.12759e-08 0)
(0.999999 -5.6875e-08 0)
(0.999999 -4.52481e-08 0)
(1 -2.84389e-08 0)
(1 5.80281e-12 0)
(1 1.42057e-11 0)
(1 2.22622e-11 0)
(1 3.059e-11 0)
(1 3.88506e-11 0)
(1 4.701e-11 0)
(1 5.52683e-11 0)
(1 6.38888e-11 0)
(1 7.29779e-11 0)
(1 8.24591e-11 0)
(1 9.22161e-11 0)
(1 1.02242e-10 0)
(1 1.12696e-10 0)
(1 1.23856e-10 0)
(1 1.36021e-10 0)
(1 1.4944e-10 0)
(1 1.64307e-10 0)
(1 1.8082e-10 0)
(1 1.99262e-10 0)
(1 2.20077e-10 0)
(1 2.43886e-10 0)
(1 2.71455e-10 0)
(1 3.03609e-10 0)
(1 3.41138e-10 0)
(1 3.8471e-10 0)
(1 4.34797e-10 0)
(1 4.91646e-10 0)
(1 5.55281e-10 0)
(1 6.25534e-10 0)
(1 7.02112e-10 0)
(1 7.84618e-10 0)
(1 8.72499e-10 0)
(1 9.65043e-10 0)
(1 1.06153e-09 0)
(1 1.16129e-09 0)
(1 1.26368e-09 0)
(1 1.36799e-09 0)
(1 1.47327e-09 0)
(1 1.5783e-09 0)
(1 1.68137e-09 0)
(1 1.78029e-09 0)
(1 1.87218e-09 0)
(1 1.95342e-09 0)
(1 2.01949e-09 0)
(1 2.06491e-09 0)
(1 2.08291e-09 0)
(1 2.0649e-09 0)
(1 2.00012e-09 0)
(1 1.87525e-09 0)
(1 1.67435e-09 0)
(1 1.37915e-09 0)
(1 9.69417e-10 0)
(1 4.2234e-10 0)
(1 -2.86512e-10 0)
(1 -1.19598e-09 0)
(1 -2.35649e-09 0)
(1 -3.82782e-09 0)
(1 -5.68061e-09 0)
(1 -7.99867e-09 0)
(1 -1.08817e-08 0)
(1 -1.44487e-08 0)
(1 -1.8844e-08 0)
(1 -2.42428e-08 0)
(1 -3.08569e-08 0)
(1 -3.8939e-08 0)
(1 -4.87879e-08 0)
(1 -6.07569e-08 0)
(1 -7.52626e-08 0)
(1 -9.27876e-08 0)
(1 -1.13873e-07 0)
(1 -1.39109e-07 0)
(1 -1.69133e-07 0)
(1 -2.04652e-07 0)
(1 -2.46441e-07 0)
(1 -2.95293e-07 0)
(1 -3.51922e-07 0)
(1 -4.16953e-07 0)
(1 -4.91084e-07 0)
(1 -5.75016e-07 0)
(1 -6.68071e-07 0)
(1.00001 -7.65414e-07 0)
(1.00001 -8.58151e-07 0)
(1.00001 -9.44855e-07 0)
(1.00001 -1.05189e-06 0)
(1.00001 -1.22112e-06 0)
(1.00001 -1.42543e-06 0)
(1.00001 -1.59344e-06 0)
(1.00002 -1.68622e-06 0)
(1.00002 -1.70266e-06 0)
(1.00002 -1.65734e-06 0)
(1.00002 -1.56744e-06 0)
(1.00002 -1.4516e-06 0)
(1.00002 -1.33328e-06 0)
(1.00003 -1.24278e-06 0)
(1.00003 -1.21467e-06 0)
(1.00003 -1.27897e-06 0)
(1.00003 -1.44585e-06 0)
(1.00003 -1.68795e-06 0)
(1.00003 -1.93043e-06 0)
(1.00003 -2.06319e-06 0)
(1.00004 -1.9794e-06 0)
(1.00004 -1.62076e-06 0)
(1.00004 -9.98311e-07 0)
(1.00004 -1.74777e-07 0)
(1.00004 7.66535e-07 0)
(1.00004 1.75463e-06 0)
(1.00004 2.74241e-06 0)
(1.00003 3.70068e-06 0)
(1.00003 4.60406e-06 0)
(1.00002 5.42188e-06 0)
(1.00001 6.11717e-06 0)
(1 6.64817e-06 0)
(0.999996 6.97285e-06 0)
(0.999987 7.05854e-06 0)
(0.999979 6.89045e-06 0)
(0.999971 6.47182e-06 0)
(0.999963 5.81771e-06 0)
(0.999957 4.95183e-06 0)
(0.999951 3.9099e-06 0)
(0.999947 2.73944e-06 0)
(0.999945 1.49204e-06 0)
(0.999944 2.03668e-07 0)
(0.999945 -1.09977e-06 0)
(0.999947 -2.39752e-06 0)
(0.999951 -3.6728e-06 0)
(0.999957 -4.91205e-06 0)
(0.999964 -6.10388e-06 0)
(0.999973 -7.23671e-06 0)
(0.999983 -8.29567e-06 0)
(0.999994 -9.25799e-06 0)
(1.00001 -1.00826e-05 0)
(1.00002 -1.06927e-05 0)
(1.00003 -1.09663e-05 0)
(1.00004 -1.08621e-05 0)
(1.00006 -1.03905e-05 0)
(1.00007 -9.56866e-06 0)
(1.00008 -8.40632e-06 0)
(1.00009 -6.91509e-06 0)
(1.0001 -5.1181e-06 0)
(1.0001 -3.05528e-06 0)
(1.0001 -7.86354e-07 0)
(1.0001 1.60828e-06 0)
(1.0001 4.03091e-06 0)
(1.00009 6.36938e-06 0)
(1.00008 8.50505e-06 0)
(1.00007 1.03241e-05 0)
(1.00006 1.17296e-05 0)
(1.00004 1.26529e-05 0)
(1.00002 1.30616e-05 0)
(1.00001 1.29615e-05 0)
(0.999993 1.23926e-05 0)
(0.999978 1.14218e-05 0)
(0.999965 1.0135e-05 0)
(0.999954 8.62766e-06 0)
(0.999944 6.99519e-06 0)
(0.999937 5.32347e-06 0)
(0.999932 3.68722e-06 0)
(0.999928 2.14022e-06 0)
(0.999927 7.14085e-07 0)
(0.999927 -5.60833e-07 0)
(0.999929 -1.63814e-06 0)
(0.999932 -2.45725e-06 0)
(0.999936 -2.9673e-06 0)
(0.99994 -3.15897e-06 0)
(0.999944 -3.08281e-06 0)
(0.999948 -2.84003e-06 0)
(0.999952 -2.54673e-06 0)
(0.999955 -2.29173e-06 0)
(0.999958 -2.11538e-06 0)
(0.999961 -2.01739e-06 0)
(0.999964 -1.9767e-06 0)
(0.999966 -1.96691e-06 0)
(0.999969 -1.96425e-06 0)
(0.999971 -1.95152e-06 0)
(0.999974 -1.91882e-06 0)
(0.999976 -1.86243e-06 0)
(0.999979 -1.78307e-06 0)
(0.999981 -1.68418e-06 0)
(0.999983 -1.5706e-06 0)
(0.999985 -1.4475e-06 0)
(0.999987 -1.31979e-06 0)
(0.999989 -1.1917e-06 0)
(0.99999 -1.06665e-06 0)
(0.999992 -9.47224e-07 0)
(0.999993 -8.35221e-07 0)
(0.999994 -7.31758e-07 0)
(0.999995 -6.37391e-07 0)
(0.999996 -5.52239e-07 0)
(0.999996 -4.76091e-07 0)
(0.999997 -4.08503e-07 0)
(0.999998 -3.48879e-07 0)
(0.999998 -2.96531e-07 0)
(0.999998 -2.50729e-07 0)
(0.999999 -2.10735e-07 0)
(0.999999 -1.75831e-07 0)
(0.999999 -1.45308e-07 0)
(0.999999 -1.18615e-07 0)
(0.999999 -9.46485e-08 0)
(0.999999 -7.5351e-08 0)
(1 -4.74072e-08 0)
(1 8.09078e-12 0)
(1 2.05161e-11 0)
(1 3.31716e-11 0)
(1 4.67644e-11 0)
(1 6.08935e-11 0)
(1 7.55972e-11 0)
(1 9.11876e-11 0)
(1 1.08067e-10 0)
(1 1.26492e-10 0)
(1 1.46543e-10 0)
(1 1.68269e-10 0)
(1 1.91829e-10 0)
(1 2.17541e-10 0)
(1 2.45815e-10 0)
(1 2.77031e-10 0)
(1 3.11439e-10 0)
(1 3.49131e-10 0)
(1 3.90097e-10 0)
(1 4.34328e-10 0)
(1 4.81907e-10 0)
(1 5.33041e-10 0)
(1 5.88032e-10 0)
(1 6.47195e-10 0)
(1 7.10768e-10 0)
(1 7.78852e-10 0)
(1 8.51389e-10 0)
(1 9.28191e-10 0)
(1 1.00899e-09 0)
(1 1.09349e-09 0)
(1 1.18141e-09 0)
(1 1.27249e-09 0)
(1 1.36657e-09 0)
(1 1.46362e-09 0)
(1 1.56371e-09 0)
(1 1.66686e-09 0)
(1 1.77293e-09 0)
(1 1.88148e-09 0)
(1 1.99165e-09 0)
(1 2.1021e-09 0)
(1 2.21085e-09 0)
(1 2.31527e-09 0)
(1 2.41192e-09 0)
(1 2.49645e-09 0)
(1 2.5635e-09 0)
(1 2.6064e-09 0)
(1 2.61681e-09 0)
(1 2.58433e-09 0)
(1 2.49609e-09 0)
(1 2.33605e-09 0)
(1 2.08408e-09 0)
(1 1.71449e-09 0)
(1 1.19405e-09 0)
(1 4.84251e-10 0)
(1 -4.61718e-10 0)
(1 -1.7015e-09 0)
(1 -3.30174e-09 0)
(1 -5.34233e-09 0)
(1 -7.91966e-09 0)
(1 -1.11494e-08 0)
(1 -1.51696e-08 0)
(1 -2.01462e-08 0)
(1 -2.628e-08 0)
(1 -3.38157e-08 0)
(1 -4.30491e-08 0)
(1 -5.43333e-08 0)
(1 -6.80854e-08 0)
(1 -8.47986e-08 0)
(1 -1.05055e-07 0)
(1 -1.29528e-07 0)
(1 -1.58979e-07 0)
(1 -1.94233e-07 0)
(1 -2.36183e-07 0)
(1 -2.85798e-07 0)
(1 -3.44154e-07 0)
(1 -4.12416e-07 0)
(1 -4.91745e-07 0)
(1 -5.83072e-07 0)
(1 -6.86781e-07 0)
(1 -8.02535e-07 0)
(1 -9.29702e-07 0)
(1.00001 -1.06829e-06 0)
(1.00001 -1.21829e-06 0)
(1.00001 -1.37448e-06 0)
(1.00001 -1.51914e-06 0)
(1.00001 -1.62595e-06 0)
(1.00001 -1.67234e-06 0)
(1.00001 -1.66505e-06 0)
(1.00002 -1.62362e-06 0)
(1.00002 -1.55549e-06 0)
(1.00002 -1.45935e-06 0)
(1.00002 -1.33426e-06 0)
(1.00002 -1.18794e-06 0)
(1.00002 -1.041e-06 0)
(1.00003 -9.27156e-07 0)
(1.00003 -8.88307e-07 0)
(1.00003 -9.62687e-07 0)
(1.00003 -1.16519e-06 0)
(1.00003 -1.46386e-06 0)
(1.00003 -1.76613e-06 0)
(1.00003 -1.9343e-06 0)
(1.00004 -1.8352e-06 0)
(1.00004 -1.40014e-06 0)
(1.00004 -6.48824e-07 0)
(1.00004 3.31659e-07 0)
(1.00004 1.43759e-06 0)
(1.00004 2.58305e-06 0)
(1.00004 3.71607e-06 0)
(1.00003 4.8078e-06 0)
(1.00003 5.83182e-06 0)
(1.00002 6.75308e-06 0)
(1.00001 7.52804e-06 0)
(1 8.10705e-06 0)
(0.999996 8.44012e-06 0)
(0.999987 8.48957e-06 0)
(0.999979 8.24069e-06 0)
(0.99997 7.7006e-06 0)
(0.999963 6.88978e-06 0)
(0.999956 5.83625e-06 0)
(0.999951 4.57341e-06 0)
(0.999947 3.13745e-06 0)
(0.999944 1.56825e-06 0)
(0.999943 -9.55062e-08 0)
(0.999944 -1.81217e-06 0)
(0.999947 -3.53959e-06 0)
(0.999951 -5.23538e-06 0)
(0.999957 -6.85613e-06 0)
(0.999964 -8.35677e-06 0)
(0.999973 -9.69105e-06 0)
(0.999983 -1.08143e-05 0)
(0.999994 -1.1688e-05 0)
(1.00001 -1.22857e-05 0)
(1.00002 -1.25959e-05 0)
(1.00003 -1.2599e-05 0)
(1.00004 -1.22911e-05 0)
(1.00006 -1.16442e-05 0)
(1.00007 -1.06281e-05 0)
(1.00008 -9.22617e-06 0)
(1.00009 -7.44226e-06 0)
(1.0001 -5.30202e-06 0)
(1.0001 -2.85408e-06 0)
(1.0001 -1.71965e-07 0)
(1.0001 2.64921e-06 0)
(1.0001 5.49149e-06 0)
(1.00009 8.22058e-06 0)
(1.00008 1.06961e-05 0)
(1.00007 1.27842e-05 0)
(1.00006 1.43718e-05 0)
(1.00004 1.53806e-05 0)
(1.00002 1.57762e-05 0)
(1.00001 1.55709e-05 0)
(0.999993 1.48172e-05 0)
(0.999978 1.35982e-05 0)
(0.999965 1.20176e-05 0)
(0.999953 1.01907e-05 0)
(0.999944 8.22839e-06 0)
(0.999937 6.22109e-06 0)
(0.999931 4.2355e-06 0)
(0.999928 2.31816e-06 0)
(0.999927 5.08534e-07 0)
(0.999927 -1.14142e-06 0)
(0.999929 -2.55506e-06 0)
(0.999932 -3.63508e-06 0)
(0.999936 -4.29912e-06 0)
(0.99994 -4.52629e-06 0)
(0.999944 -4.38399e-06 0)
(0.999949 -4.01452e-06 0)
(0.999952 -3.58255e-06 0)
(0.999955 -3.2131e-06 0)
(0.999958 -2.96089e-06 0)
(0.999961 -2.82268e-06 0)
(0.999964 -2.76673e-06 0)
(0.999966 -2.75457e-06 0)
(0.999969 -2.75216e-06 0)
(0.999971 -2.73509e-06 0)
(0.999974 -2.68951e-06 0)
(0.999977 -2.61035e-06 0)
(0.999979 -2.49874e-06 0)
(0.999981 -2.35966e-06 0)
(0.999983 -2.19998e-06 0)
(0.999986 -2.02703e-06 0)
(0.999987 -1.84771e-06 0)
(0.999989 -1.66796e-06 0)
(0.999991 -1.49258e-06 0)
(0.999992 -1.32517e-06 0)
(0.999993 -1.16823e-06 0)
(0.999994 -1.02331e-06 0)
(0.999995 -8.91189e-07 0)
(0.999996 -7.72005e-07 0)
(0.999996 -6.65454e-07 0)
(0.999997 -5.70907e-07 0)
(0.999998 -4.8752e-07 0)
(0.999998 -4.14325e-07 0)
(0.999998 -3.50296e-07 0)
(0.999999 -2.94395e-07 0)
(0.999999 -2.45615e-07 0)
(0.999999 -2.02961e-07 0)
(0.999999 -1.6566e-07 0)
(0.999999 -1.32169e-07 0)
(0.999999 -1.05202e-07 0)
(1 -6.61047e-08 0)
(1 1.04489e-11 0)
(1 2.64748e-11 0)
(1 4.26359e-11 0)
(1 5.97353e-11 0)
(1 7.72119e-11 0)
(1 9.50642e-11 0)
(1 1.13651e-10 0)
(1 1.33464e-10 0)
(1 1.54788e-10 0)
(1 1.77633e-10 0)
(1 2.01935e-10 0)
(1 2.27778e-10 0)
(1 2.55482e-10 0)
(1 2.85513e-10 0)
(1 3.18321e-10 0)
(1 3.54201e-10 0)
(1 3.93276e-10 0)
(1 4.35599e-10 0)
(1 4.81309e-10 0)
(1 5.30755e-10 0)
(1 5.84536e-10 0)
(1 6.43449e-10 0)
(1 7.08361e-10 0)
(1 7.80079e-10 0)
(1 8.59247e-10 0)
(1 9.46297e-10 0)
(1 1.04145e-09 0)
(1 1.14473e-09 0)
(1 1.25605e-09 0)
(1 1.37526e-09 0)
(1 1.50218e-09 0)
(1 1.63663e-09 0)
(1 1.77837e-09 0)
(1 1.92708e-09 0)
(1 2.0822e-09 0)
(1 2.24293e-09 0)
(1 2.40815e-09 0)
(1 2.57626e-09 0)
(1 2.74506e-09 0)
(1 2.91158e-09 0)
(1 3.07193e-09 0)
(1 3.22117e-09 0)
(1 3.35312e-09 0)
(1 3.46011e-09 0)
(1 3.53263e-09 0)
(1 3.55903e-09 0)
(1 3.52504e-09 0)
(1 3.41307e-09 0)
(1 3.20149e-09 0)
(1 2.86396e-09 0)
(1 2.36849e-09 0)
(1 1.67634e-09 0)
(1 7.4123e-10 0)
(1 -4.93402e-10 0)
(1 -2.09826e-09 0)
(1 -4.15907e-09 0)
(1 -6.77967e-09 0)
(1 -1.00849e-08 0)
(1 -1.42239e-08 0)
(1 -1.93744e-08 0)
(1 -2.57491e-08 0)
(1 -3.36058e-08 0)
(1 -4.32585e-08 0)
(1 -5.50869e-08 0)
(1 -6.95438e-08 0)
(1 -8.71636e-08 0)
(1 -1.08578e-07 0)
(1 -1.34533e-07 0)
(1 -1.65897e-07 0)
(1 -2.03644e-07 0)
(1 -2.48834e-07 0)
(1 -3.0261e-07 0)
(1 -3.66231e-07 0)
(1 -4.41093e-07 0)
(1 -5.28681e-07 0)
(1 -6.30412e-07 0)
(1 -7.47475e-07 0)
(1 -8.80766e-07 0)
(1 -1.03078e-06 0)
(1 -1.19691e-06 0)
(1.00001 -1.37584e-06 0)
(1.00001 -1.56043e-06 0)
(1.00001 -1.74225e-06 0)
(1.00001 -1.91802e-06 0)
(1.00001 -2.09097e-06 0)
(1.00001 -2.25451e-06 0)
(1.00001 -2.38935e-06 0)
(1.00002 -2.47203e-06 0)
(1.00002 -2.48458e-06 0)
(1.00002 -2.42138e-06 0)
(1.00002 -2.28966e-06 0)
(1.00002 -2.11044e-06 0)
(1.00002 -1.92034e-06 0)
(1.00003 -1.77154e-06 0)
(1.00003 -1.72581e-06 0)
(1.00003 -1.83885e-06 0)
(1.00003 -2.13329e-06 0)
(1.00003 -2.56569e-06 0)
(1.00003 -3.00619e-06 0)
(1.00003 -3.25886e-06 0)
(1.00004 -3.13361e-06 0)
(1.00004 -2.52956e-06 0)
(1.00004 -1.47133e-06 0)
(1.00004 -7.71374e-08 0)
(1.00004 1.50504e-06 0)
(1.00004 3.15341e-06 0)
(1.00004 4.79333e-06 0)
(1.00003 6.38217e-06 0)
(1.00003 7.88054e-06 0)
(1.00002 9.23726e-06 0)
(1.00001 1.03897e-05 0)
(1 1.12665e-05 0)
(0.999996 1.17953e-05 0)
(0.999987 1.19207e-05 0)
(0.999978 1.16195e-05 0)
(0.99997 1.09001e-05 0)
(0.999962 9.7912e-06 0)
(0.999956 8.33429e-06 0)
(0.99995 6.58261e-06 0)
(0.999946 4.59915e-06 0)
(0.999944 2.45106e-06 0)
(0.999943 1.99675e-07 0)
(0.999943 -2.10027e-06 0)
(0.999946 -4.40119e-06 0)
(0.99995 -6.66133e-06 0)
(0.999956 -8.84223e-06 0)
(0.999963 -1.09059e-05 0)
(0.999972 -1.28123e-05 0)
(0.999982 -1.45162e-05 0)
(0.999994 -1.59658e-05 0)
(1.00001 -1.71004e-05 0)
(1.00002 -1.78505e-05 0)
(1.00003 -1.81363e-05 0)
(1.00004 -1.79034e-05 0)
(1.00006 -1.71143e-05 0)
(1.00007 -1.57497e-05 0)
(1.00008 -1.38076e-05 0)
(1.00009 -1.13049e-05 0)
(1.0001 -8.28235e-06 0)
(1.0001 -4.80945e-06 0)
(1.0001 -9.89068e-07 0)
(1.0001 3.04223e-06 0)
(1.0001 7.11671e-06 0)
(1.00009 1.10438e-05 0)
(1.00008 1.46231e-05 0)
(1.00007 1.7662e-05 0)
(1.00006 1.99968e-05 0)
(1.00004 2.15124e-05 0)
(1.00002 2.21563e-05 0)
(1.00001 2.19421e-05 0)
(0.999992 2.09409e-05 0)
(0.999977 1.92678e-05 0)
(0.999964 1.70698e-05 0)
(0.999953 1.45117e-05 0)
(0.999943 1.17556e-05 0)
(0.999936 8.93814e-06 0)
(0.999931 6.16412e-06 0)
(0.999927 3.50792e-06 0)
(0.999926 1.02572e-06 0)
(0.999926 -1.22017e-06 0)
(0.999928 -3.1351e-06 0)
(0.999931 -4.59543e-06 0)
(0.999935 -5.49489e-06 0)
(0.99994 -5.80784e-06 0)
(0.999945 -5.62644e-06 0)
(0.999949 -5.14326e-06 0)
(0.999952 -4.58003e-06 0)
(0.999955 -4.10304e-06 0)
(0.999958 -3.78259e-06 0)
(0.999961 -3.61174e-06 0)
(0.999964 -3.54711e-06 0)
(0.999966 -3.53773e-06 0)
(0.999969 -3.53916e-06 0)
(0.999971 -3.51995e-06 0)
(0.999974 -3.46258e-06 0)
(0.999977 -3.36093e-06 0)
(0.999979 -3.21686e-06 0)
(0.999981 -3.03712e-06 0)
(0.999984 -2.83075e-06 0)
(0.999986 -2.60735e-06 0)
(0.999987 -2.37587e-06 0)
(0.999989 -2.144e-06 0)
(0.999991 -1.91793e-06 0)
(0.999992 -1.70227e-06 0)
(0.999993 -1.50023e-06 0)
(0.999994 -1.31377e-06 0)
(0.999995 -1.14385e-06 0)
(0.999996 -9.90645e-07 0)
(0.999996 -8.53738e-07 0)
(0.999997 -7.323e-07 0)
(0.999998 -6.25232e-07 0)
(0.999998 -5.31278e-07 0)
(0.999998 -4.49112e-07 0)
(0.999999 -3.77395e-07 0)
(0.999999 -3.14828e-07 0)
(0.999999 -2.60131e-07 0)
(0.999999 -2.12309e-07 0)
(0.999999 -1.69385e-07 0)
(0.999999 -1.34822e-07 0)
(1 -8.47603e-08 0)
(1 1.27887e-11 0)
(1 3.23218e-11 0)
(1 5.20008e-11 0)
(1 7.28544e-11 0)
(1 9.42424e-11 0)
(1 1.16217e-10 0)
(1 1.39257e-10 0)
(1 1.63988e-10 0)
(1 1.90781e-10 0)
(1 2.19701e-10 0)
(1 2.50741e-10 0)
(1 2.84082e-10 0)
(1 3.2018e-10 0)
(1 3.59657e-10 0)
(1 4.03109e-10 0)
(1 4.50953e-10 0)
(1 5.03398e-10 0)
(1 5.60545e-10 0)
(1 6.22551e-10 0)
(1 6.89765e-10 0)
(1 7.62778e-10 0)
(1 8.4236e-10 0)
(1 9.29327e-10 0)
(1 1.02439e-09 0)
(1 1.12805e-09 0)
(1 1.24051e-09 0)
(1 1.36174e-09 0)
(1 1.49148e-09 0)
(1 1.62937e-09 0)
(1 1.77497e-09 0)
(1 1.92784e-09 0)
(1 2.08755e-09 0)
(1 2.25369e-09 0)
(1 2.42586e-09 0)
(1 2.60356e-09 0)
(1 2.78611e-09 0)
(1 2.97251e-09 0)
(1 3.16123e-09 0)
(1 3.35e-09 0)
(1 3.53562e-09 0)
(1 3.71384e-09 0)
(1 3.87916e-09 0)
(1 4.02462e-09 0)
(1 4.1415e-09 0)
(1 4.21905e-09 0)
(1 4.24392e-09 0)
(1 4.19949e-09 0)
(1 4.06502e-09 0)
(1 3.81464e-09 0)
(1 3.41635e-09 0)
(1 2.83064e-09 0)
(1 2.00889e-09 0)
(1 8.9228e-10 0)
(1 -5.90372e-10 0)
(1 -2.52622e-09 0)
(1 -5.01981e-09 0)
(1 -8.19699e-09 0)
(1 -1.22091e-08 0)
(1 -1.72374e-08 0)
(1 -2.34975e-08 0)
(1 -3.12481e-08 0)
(1 -4.08024e-08 0)
(1 -5.25429e-08 0)
(1 -6.69326e-08 0)
(1 -8.45229e-08 0)
(1 -1.05964e-07 0)
(1 -1.32023e-07 0)
(1 -1.63611e-07 0)
(1 -2.01786e-07 0)
(1 -2.4774e-07 0)
(1 -3.02769e-07 0)
(1 -3.68263e-07 0)
(1 -4.45748e-07 0)
(1 -5.36929e-07 0)
(1 -6.43665e-07 0)
(1 -7.67809e-07 0)
(1 -9.1092e-07 0)
(1 -1.07391e-06 0)
(1 -1.25675e-06 0)
(1 -1.45832e-06 0)
(1.00001 -1.67636e-06 0)
(1.00001 -1.90717e-06 0)
(1.00001 -2.14434e-06 0)
(1.00001 -2.37683e-06 0)
(1.00001 -2.58723e-06 0)
(1.00001 -2.7502e-06 0)
(1.00001 -2.84417e-06 0)
(1.00002 -2.85989e-06 0)
(1.00002 -2.79603e-06 0)
(1.00002 -2.65593e-06 0)
(1.00002 -2.44894e-06 0)
(1.00002 -2.19608e-06 0)
(1.00002 -1.93639e-06 0)
(1.00003 -1.72921e-06 0)
(1.00003 -1.64831e-06 0)
(1.00003 -1.76332e-06 0)
(1.00003 -2.10617e-06 0)
(1.00003 -2.62838e-06 0)
(1.00003 -3.17234e-06 0)
(1.00003 -3.49492e-06 0)
(1.00004 -3.35863e-06 0)
(1.00004 -2.64117e-06 0)
(1.00004 -1.38052e-06 0)
(1.00004 2.68756e-07 0)
(1.00004 2.12296e-06 0)
(1.00004 4.03583e-06 0)
(1.00004 5.92375e-06 0)
(1.00003 7.74415e-06 0)
(1.00003 9.45658e-06 0)
(1.00002 1.10038e-05 0)
(1.00001 1.23136e-05 0)
(1 1.33024e-05 0)
(0.999996 1.38834e-05 0)
(0.999987 1.39907e-05 0)
(0.999978 1.35989e-05 0)
(0.99997 1.27214e-05 0)
(0.999962 1.13934e-05 0)
(0.999955 9.66277e-06 0)
(0.99995 7.58856e-06 0)
(0.999946 5.23958e-06 0)
(0.999943 2.68812e-06 0)
(0.999942 2.60511e-09 0)
(0.999943 -2.75281e-06 0)
(0.999945 -5.51746e-06 0)
(0.999949 -8.23285e-06 0)
(0.999955 -1.08406e-05 0)
(0.999963 -1.32807e-05 0)
(0.999972 -1.5491e-05 0)
(0.999982 -1.74086e-05 0)
(0.999993 -1.89713e-05 0)
(1.00001 -2.01207e-05 0)
(1.00002 -2.08017e-05 0)
(1.00003 -2.09579e-05 0)
(1.00005 -2.0547e-05 0)
(1.00006 -1.95312e-05 0)
(1.00007 -1.78811e-05 0)
(1.00008 -1.55833e-05 0)
(1.00009 -1.26491e-05 0)
(1.0001 -9.1207e-06 0)
(1.0001 -5.07676e-06 0)
(1.0001 -6.35738e-07 0)
(1.0001 4.0452e-06 0)
(1.0001 8.77085e-06 0)
(1.00009 1.33179e-05 0)
(1.00008 1.74512e-05 0)
(1.00007 2.09448e-05 0)
(1.00006 2.36072e-05 0)
(1.00004 2.5305e-05 0)
(1.00002 2.59799e-05 0)
(1.00001 2.56524e-05 0)
(0.999992 2.44106e-05 0)
(0.999977 2.23929e-05 0)
(0.999963 1.97737e-05 0)
(0.999952 1.67477e-05 0)
(0.999942 1.3504e-05 0)
(0.999935 1.01983e-05 0)
(0.99993 6.94414e-06 0)
(0.999926 3.81966e-06 0)
(0.999925 8.84154e-07 0)
(0.999926 -1.78975e-06 0)
(0.999928 -4.0833e-06 0)
(0.999931 -5.83448e-06 0)
(0.999935 -6.90027e-06 0)
(0.99994 -7.24089e-06 0)
(0.999945 -6.96936e-06 0)
(0.999949 -6.32993e-06 0)
(0.999952 -5.60475e-06 0)
(0.999956 -5.00232e-06 0)
(0.999958 -4.60576e-06 0)
(0.999961 -4.40033e-06 0)
(0.999964 -4.32782e-06 0)
(0.999966 -4.3228e-06 0)
(0.999969 -4.3294e-06 0)
(0.999971 -4.30873e-06 0)
(0.999974 -4.23962e-06 0)
(0.999977 -4.11506e-06 0)
(0.999979 -3.93782e-06 0)
(0.999981 -3.71656e-06 0)
(0.999984 -3.46267e-06 0)
(0.999986 -3.18806e-06 0)
(0.999987 -2.9038e-06 0)
(0.999989 -2.61932e-06 0)
(0.999991 -2.3422e-06 0)
(0.999992 -2.07806e-06 0)
(0.999993 -1.83077e-06 0)
(0.999994 -1.60271e-06 0)
(0.999995 -1.39501e-06 0)
(0.999996 -1.20783e-06 0)
(0.999997 -1.04065e-06 0)
(0.999997 -8.92428e-07 0)
(0.999998 -7.61795e-07 0)
(0.999998 -6.47203e-07 0)
(0.999998 -5.4702e-07 0)
(0.999999 -4.59601e-07 0)
(0.999999 -3.83356e-07 0)
(0.999999 -3.16716e-07 0)
(0.999999 -2.58461e-07 0)
(0.999999 -2.06178e-07 0)
(1 -1.64082e-07 0)
(1 -1.03102e-07 0)
(1 1.511e-11 0)
(1 3.81512e-11 0)
(1 6.13792e-11 0)
(1 8.60185e-11 0)
(1 1.11293e-10 0)
(1 1.37244e-10 0)
(1 1.64416e-10 0)
(1 1.93522e-10 0)
(1 2.24989e-10 0)
(1 2.58867e-10 0)
(1 2.95112e-10 0)
(1 3.33894e-10 0)
(1 3.75709e-10 0)
(1 4.21256e-10 0)
(1 4.71208e-10 0)
(1 5.26014e-10 0)
(1 5.85864e-10 0)
(1 6.5082e-10 0)
(1 7.21024e-10 0)
(1 7.96884e-10 0)
(1 8.79135e-10 0)
(1 9.68767e-10 0)
(1 1.06686e-09 0)
(1 1.17437e-09 0)
(1 1.29205e-09 0)
(1 1.42031e-09 0)
(1 1.55928e-09 0)
(1 1.70885e-09 0)
(1 1.86876e-09 0)
(1 2.03871e-09 0)
(1 2.21837e-09 0)
(1 2.40746e-09 0)
(1 2.60572e-09 0)
(1 2.81282e-09 0)
(1 3.0283e-09 0)
(1 3.25133e-09 0)
(1 3.48062e-09 0)
(1 3.71418e-09 0)
(1 3.9491e-09 0)
(1 4.18133e-09 0)
(1 4.40553e-09 0)
(1 4.61484e-09 0)
(1 4.80065e-09 0)
(1 4.95224e-09 0)
(1 5.05638e-09 0)
(1 5.09677e-09 0)
(1 5.0533e-09 0)
(1 4.90112e-09 0)
(1 4.60964e-09 0)
(1 4.14131e-09 -3.51669e-43)
(1 3.45021e-09 -3.77835e-43)
(1 2.48023e-09 0)
(1 1.16339e-09 0)
(1 -5.83413e-10 0)
(1 -2.86126e-09 0)
(1 -5.7927e-09 0)
(1 -9.52583e-09 0)
(1 -1.42391e-08 0)
(1 -2.01458e-08 0)
(1 -2.75001e-08 0)
(1 -3.66058e-08 0)
(1 -4.78313e-08 0)
(1 -6.16272e-08 0)
(1 -7.85392e-08 0)
(1 -9.92167e-08 0)
(1 -1.24423e-07 0)
(1 -1.5506e-07 0)
(1 -1.92199e-07 0)
(1 -2.37092e-07 0)
(1 -2.91146e-07 0)
(1 -3.55888e-07 0)
(1 -4.32952e-07 0)
(1 -5.24141e-07 0)
(1 -6.31493e-07 0)
(1 -7.57233e-07 0)
(1 -9.03554e-07 0)
(1 -1.07229e-06 0)
(1 -1.26466e-06 0)
(1 -1.48111e-06 0)
(1 -1.72091e-06 0)
(1.00001 -1.9812e-06 0)
(1.00001 -2.25555e-06 0)
(1.00001 -2.53344e-06 0)
(1.00001 -2.8016e-06 0)
(1.00001 -3.04569e-06 0)
(1.00001 -3.24816e-06 0)
(1.00001 -3.39064e-06 0)
(1.00002 -3.45726e-06 0)
(1.00002 -3.43484e-06 0)
(1.00002 -3.3166e-06 0)
(1.00002 -3.10772e-06 0)
(1.00002 -2.83192e-06 0)
(1.00002 -2.53754e-06 0)
(1.00003 -2.29946e-06 0)
(1.00003 -2.21181e-06 0)
(1.00003 -2.36535e-06 0)
(1.00003 -2.80577e-06 0)
(1.00003 -3.47827e-06 0)
(1.00003 -4.18797e-06 0)
(1.00003 -4.62706e-06 0)
(1.00004 -4.49197e-06 0)
(1.00004 -3.62622e-06 0)
(1.00004 -2.07885e-06 0)
(1.00004 -4.53555e-08 0)
(1.00004 2.24131e-06 0)
(1.00004 4.59936e-06 0)
(1.00004 6.92901e-06 0)
(1.00003 9.182e-06 0)
(1.00003 1.13101e-05 0)
(1.00002 1.32422e-05 0)
(1.00001 1.48888e-05 0)
(1.00001 1.61453e-05 0)
(0.999996 1.69019e-05 0)
(0.999987 1.70747e-05 0)
(0.999978 1.66318e-05 0)