/*--------------------------------*- C++ -*----------------------------------*\
| =========                 |                                                 |
| \\      /  F ield         | OpenFOAM: The Open Source CFD Toolbox           |
|  \\    /   O peration     | Version:  v2006                                 |
|   \\  /    A nd           | Website:  www.openfoam.com                      |
|    \\/     M anipulation  |                                                 |
\*---------------------------------------------------------------------------*/
FoamFile
{
    version     2.0;
    format      ascii;
    class       volScalarField;
    location    "0.7";
    object      p;
}
// * * * * * * * * * * * * * * * * * * * * * * * * * * * * * * * * * * * * * //

dimensions      [1 -1 -2 0 0 0 0];


internalField   nonuniform List<scalar> 
50000
(
22983.6
22985.4
22982.2
22984.8
22981.5
22982.9
22980.6
22980.6
22979
22978.2
22976.8
22975.5
22974.1
22972.7
22971.3
22969.8
22968.4
22966.9
22965.5
22964.2
22962.9
22961.7
22960.6
22959.7
22958.9
22958.3
22957.9
22957.6
22957.6
22957.8
22958.3
22959.1
22960.1
22961.4
22963.1
22965.1
22967.4
22970.1
22973.1
22976.6
22980.4
22984.6
22989.2
22994.2
22999.6
23005.5
23011.8
23018.5
23025.7
23033.3
23041.4
23049.8
23058.8
23068.1
23077.9
23088.2
23098.8
23109.9
23121.5
23133.4
23145.8
23158.6
23171.7
23185.3
23199.3
23213.7
23228.4
23243.5
23259
23274.8
23291
23307.5
23324.3
23341.4
23358.9
23376.6
23394.6
23412.9
23431.4
23450.2
23469.3
23488.5
23508
23527.7
23547.6
23567.6
23587.8
23608.2
23628.7
23649.3
23670
23690.8
23711.7
23732.7
23753.7
23774.8
23795.9
23817
23838.1
23859.2
23880.3
23901.3
23922.2
23943
23963.8
23984.4
24004.9
24025.3
24045.5
24065.5
24085.4
24105
24124.4
24143.5
24162.4
24181
24199.3
24217.3
24234.9
24252.3
24269.2
24285.8
24302
24317.7
24333
24347.9
24362.4
24376.3
24389.8
24402.8
24415.2
24427.1
24438.5
24449.3
24459.6
24469.2
24478.3
24486.8
24494.6
24502.3
24507.5
24516.3
24517.1
24528
24524.4
24536.1
24530.4
24540
24535.6
24539.5
22532.4
22534.3
22531
22533.7
22530.3
22531.8
22529.4
22529.4
22527.7
22526.9
22525.5
22524.2
22522.8
22521.4
22519.9
22518.4
22516.9
22515.4
22514
22512.6
22511.3
22510.1
22509
22508
22507.2
22506.5
22506.1
22505.8
22505.7
22505.9
22506.4
22507.1
22508.1
22509.4
22511.1
22513
22515.3
22518
22521.1
22524.5
22528.3
22532.5
22537.1
22542.1
22547.6
22553.4
22559.7
22566.4
22573.6
22581.2
22589.2
22597.7
22606.6
22616
22625.8
22636
22646.7
22657.8
22669.3
22681.3
22693.7
22706.5
22719.6
22733.2
22747.2
22761.6
22776.3
22791.5
22806.9
22822.8
22839
22855.5
22872.3
22889.5
22906.9
22924.7
22942.7
22961
22979.6
22998.4
23017.5
23036.8
23056.3
23076
23095.9
23115.9
23136.2
23156.5
23177.1
23197.7
23218.5
23239.3
23260.3
23281.3
23302.3
23323.4
23344.6
23365.7
23386.8
23408
23429
23450.1
23471
23491.9
23512.7
23533.4
23553.9
23574.3
23594.6
23614.6
23634.5
23654.1
23673.5
23692.7
23711.6
23730.2
23748.6
23766.6
23784.3
23801.6
23818.6
23835.2
23851.4
23867.2
23882.6
23897.5
23912
23926
23939.5
23952.5
23965
23977
23988.4
23999.2
24009.5
24019.2
24028.3
24036.8
24044.7
24052.1
24058.2
24065.7
24068.2
24077.3
24075.5
24085.7
24081.1
24090
24085.9
24089.7
22081.1
22083
22079.7
22082.4
22079
22080.4
22078
22078
22076.3
22075.5
22074
22072.7
22071.2
22069.8
22068.2
22066.7
22065.2
22063.7
22062.2
22060.8
22059.4
22058.1
22057
22056
22055.1
22054.4
22053.9
22053.6
22053.5
22053.6
22054
22054.7
22055.7
22057
22058.5
22060.5
22062.7
22065.4
22068.4
22071.7
22075.5
22079.7
22084.3
22089.3
22094.7
22100.5
22106.8
22113.5
22120.7
22128.2
22136.3
22144.7
22153.7
22163
22172.8
22183
22193.7
22204.8
22216.4
22228.3
22240.7
22253.5
22266.7
22280.3
22294.3
22308.7
22323.5
22338.6
22354.1
22370
22386.2
22402.8
22419.6
22436.8
22454.3
22472.1
22490.2
22508.5
22527.1
22546
22565.1
22584.5
22604
22623.8
22643.7
22663.8
22684.1
22704.5
22725.1
22745.8
22766.6
22787.6
22808.6
22829.6
22850.8
22871.9
22893.1
22914.3
22935.5
22956.7
22977.9
22999
23020
23041
23061.8
23082.6
23103.2
23123.6
23143.9
23164.1
23184
23203.7
23223.2
23242.4
23261.4
23280.1
23298.5
23316.6
23334.4
23351.8
23368.8
23385.4
23401.7
23417.6
23433
23448
23462.5
23476.5
23490.1
23503.1
23515.7
23527.7
23539.1
23550
23560.3
23570
23579.2
23587.7
23595.6
23603
23609.1
23616.7
23619.1
23628.3
23626.5
23636.7
23632.2
23641
23637
23640.7
21629.8
21631.6
21628.4
21631
21627.7
21629
21626.6
21626.6
21624.8
21624
21622.4
21621.1
21619.5
21618
21616.4
21614.9
21613.3
21611.7
21610.1
21608.6
21607.2
21605.9
21604.6
21603.5
21602.6
21601.8
21601.2
21600.8
21600.7
21600.7
21601.1
21601.7
21602.6
21603.8
21605.3
21607.2
21609.4
21612
21614.9
21618.3
21622
21626.1
21630.7
21635.6
21641
21646.8
21653
21659.7
21666.8
21674.4
21682.4
21690.9
21699.8
21709.1
21718.9
21729.2
21739.9
21751
21762.5
21774.5
21786.9
21799.7
21812.9
21826.6
21840.6
21855
21869.8
21885
21900.6
21916.5
21932.7
21949.3
21966.2
21983.5
22001
22018.9
22037
22055.4
22074.1
22093
22112.2
22131.6
22151.2
22171.1
22191.1
22211.3
22231.7
22252.2
22272.8
22293.6
22314.5
22335.5
22356.6
22377.8
22399
22420.3
22441.6
22462.9
22484.2
22505.5
22526.7
22547.9
22569.1
22590.1
22611.1
22631.9
22652.6
22673.2
22693.6
22713.8
22733.9
22753.7
22773.3
22792.6
22811.7
22830.5
22849
22867.2
22885.1
22902.6
22919.7
22936.5
22952.8
22968.8
22984.3
22999.4
23014
23028.1
23041.7
23054.9
23067.5
23079.5
23091
23102
23112.4
23122.2
23131.4
23139.9
23147.9
23155.4
23161.4
23169.1
23171.6
23180.7
23179
23189.2
23184.8
23193.5
23189.6
23193.2
21178.5
21180.3
21177
21179.6
21176.3
21177.6
21175.2
21175.1
21173.3
21172.3
21170.7
21169.3
21167.7
21166.1
21164.5
21162.8
21161.1
21159.4
21157.8
21156.2
21154.7
21153.2
21151.9
21150.7
21149.6
21148.8
21148.1
21147.6
21147.3
21147.3
21147.5
21148.1
21148.9
21150
21151.4
21153.2
21155.4
21157.9
21160.7
21164
21167.7
21171.7
21176.2
21181.1
21186.5
21192.2
21198.4
21205.1
21212.2
21219.7
21227.7
21236.2
21245.1
21254.4
21264.2
21274.4
21285.1
21296.2
21307.8
21319.8
21332.2
21345
21358.3
21372
21386
21400.5
21415.3
21430.6
21446.2
21462.1
21478.5
21495.1
21512.1
21529.4
21547
21565
21583.2
21601.7
21620.4
21639.5
21658.7
21678.2
21698
21717.9
21738
21758.3
21778.8
21799.4
21820.2
21841.1
21862.1
21883.3
21904.5
21925.8
21947.1
21968.5
21989.9
22011.4
22032.8
22054.2
22075.6
22097
22118.2
22139.4
22160.5
22181.5
22202.4
22223.1
22243.6
22264
22284.2
22304.1
22323.9
22343.3
22362.6
22381.5
22400.1
22418.5
22436.4
22454.1
22471.4
22488.2
22504.7
22520.8
22536.4
22551.6
22566.3
22580.6
22594.3
22607.5
22620.2
22632.4
22644
22655
22665.5
22675.4
22684.6
22693.3
22701.3
22708.8
22715
22722.6
22725.2
22734.3
22732.7
22742.9
22738.5
22747.2
22743.3
22747
20727.2
20729
20725.7
20728.3
20724.9
20726.1
20723.7
20723.5
20721.7
20720.6
20719
20717.5
20715.8
20714.1
20712.3
20710.5
20708.7
20706.9
20705.2
20703.4
20701.8
20700.2
20698.8
20697.5
20696.3
20695.3
20694.5
20693.8
20693.5
20693.3
20693.4
20693.8
20694.5
20695.6
20696.9
20698.6
20700.6
20703
20705.8
20709
20712.6
20716.6
20721
20725.8
20731.1
20736.8
20743
20749.6
20756.6
20764.1
20772.1
20780.5
20789.4
20798.8
20808.5
20818.8
20829.5
20840.6
20852.2
20864.2
20876.6
20889.5
20902.8
20916.5
20930.6
20945.1
20960.1
20975.3
20991
21007
21023.4
21040.2
21057.2
21074.6
21092.4
21110.4
21128.7
21147.3
21166.2
21185.3
21204.7
21224.3
21244.1
21264.2
21284.5
21304.9
21325.5
21346.3
21367.2
21388.3
21409.4
21430.7
21452.1
21473.5
21495
21516.6
21538.2
21559.8
21581.4
21603
21624.5
21646
21667.5
21688.9
21710.1
21731.3
21752.3
21773.2
21793.9
21814.5
21834.8
21855
21874.9
21894.5
21913.9
21933
21951.8
21970.3
21988.5
22006.3
22023.7
22040.8
22057.4
22073.6
22089.4
22104.7
22119.6
22134
22147.8
22161.2
22174
22186.3
22198
22209.2
22219.7
22229.7
22239.1
22247.8
22255.9
22263.5
22269.7
22277.4
22280.1
22289.1
22287.7
22297.8
22293.6
22302.2
22298.4
22302
20275.9
20277.7
20274.3
20276.9
20273.5
20274.7
20272.1
20271.9
20270
20268.9
20267.1
20265.5
20263.7
20261.9
20260
20258
20256.1
20254.2
20252.3
20250.4
20248.6
20246.9
20245.3
20243.8
20242.5
20241.3
20240.3
20239.6
20239
20238.7
20238.7
20239
20239.6
20240.4
20241.6
20243.2
20245.1
20247.4
20250.1
20253.2
20256.7
20260.6
20264.9
20269.7
20274.9
20280.5
20286.6
20293.2
20300.2
20307.7
20315.6
20324
20332.9
20342.2
20352
20362.2
20372.9
20384.1
20395.7
20407.7
20420.2
20433.1
20446.4
20460.2
20474.4
20488.9
20503.9
20519.3
20535
20551.1
20567.6
20584.4
20601.6
20619.1
20637
20655.1
20673.5
20692.3
20711.3
20730.5
20750.1
20769.8
20789.8
20810
20830.4
20851
20871.8
20892.8
20913.9
20935.1
20956.4
20977.9
20999.5
21021.1
21042.8
21064.5
21086.3
21108.1
21129.9
21151.7
21173.5
21195.2
21216.9
21238.4
21259.9
21281.3
21302.5
21323.6
21344.6
21365.3
21385.9
21406.2
21426.4
21446.2
21465.8
21485.1
21504.1
21522.8
21541.2
21559.2
21576.8
21594
21610.9
21627.3
21643.2
21658.7
21673.8
21688.3
21702.3
21715.9
21728.8
21741.3
21753.1
21764.4
21775.1
21785.2
21794.6
21803.5
21811.7
21819.3
21825.7
21833.3
21836.3
21845.2
21844
21853.9
21849.9
21858.4
21854.7
21858.3
19824.6
19826.4
19823
19825.5
19822.1
19823.2
19820.6
19820.3
19818.2
19817
19815.1
19813.4
19811.4
19809.5
19807.4
19805.4
19803.3
19801.2
19799.1
19797
19795.1
19793.2
19791.4
19789.7
19788.2
19786.9
19785.7
19784.8
19784.1
19783.6
19783.4
19783.5
19783.9
19784.6
19785.7
19787.1
19788.9
19791.1
19793.6
19796.6
19800
19803.8
19808
19812.7
19817.8
19823.4
19829.4
19835.9
19842.9
19850.3
19858.2
19866.6
19875.4
19884.7
19894.5
19904.7
19915.4
19926.6
19938.2
19950.3
19962.8
19975.8
19989.2
20003
20017.2
20031.9
20046.9
20062.4
20078.2
20094.4
20111
20128
20145.3
20162.9
20180.8
20199.1
20217.7
20236.6
20255.7
20275.2
20294.8
20314.8
20334.9
20355.3
20375.9
20396.7
20417.7
20438.8
20460.1
20481.6
20503.1
20524.8
20546.6
20568.4
20590.4
20612.3
20634.3
20656.4
20678.4
20700.4
20722.4
20744.4
20766.3
20788.1
20809.9
20831.5
20853
20874.3
20895.5
20916.5
20937.3
20957.9
20978.3
20998.4
21018.2
21037.8
21057
21076
21094.6
21112.8
21130.6
21148.1
21165.2
21181.8
21197.9
21213.6
21228.9
21243.6
21257.8
21271.5
21284.7
21297.3
21309.3
21320.7
21331.6
21341.8
21351.4
21360.3
21368.6
21376.4
21382.9
21390.5
21393.7
21402.5
21401.6
21411.3
21407.5
21416
21412.3
21415.9
19373.3
19375.1
19371.7
19374.1
19370.6
19371.7
19369
19368.6
19366.4
19365.1
19363.1
19361.2
19359.1
19357
19354.7
19352.5
19350.2
19347.9
19345.6
19343.4
19341.2
19339.1
19337.1
19335.2
19333.5
19331.9
19330.6
19329.4
19328.5
19327.8
19327.5
19327.4
19327.6
19328.1
19329
19330.3
19331.9
19333.9
19336.3
19339.1
19342.4
19346.1
19350.2
19354.8
19359.8
19365.3
19371.3
19377.7
19384.6
19392
19399.8
19408.2
19417
19426.3
19436.1
19446.3
19457
19468.2
19479.9
19492
19504.5
19517.5
19531
19544.9
19559.2
19573.9
19589.1
19604.6
19620.6
19636.9
19653.6
19670.7
19688.1
19705.9
19724
19742.4
19761.2
19780.2
19799.5
19819.1
19839
19859.1
19879.5
19900.1
19920.9
19941.9
19963.1
19984.5
20006
20027.7
20049.5
20071.4
20093.4
20115.5
20137.7
20160
20182.2
20204.5
20226.8
20249.1
20271.4
20293.7
20315.8
20337.9
20360
20381.9
20403.6
20425.3
20446.7
20468
20489.1
20510
20530.7
20551.1
20571.2
20591
20610.5
20629.7
20648.6
20667.1
20685.2
20702.9
20720.2
20737.1
20753.5
20769.4
20784.9
20799.9
20814.3
20828.2
20841.6
20854.3
20866.5
20878.2
20889.2
20899.5
20909.3
20918.4
20926.8
20934.7
20941.4
20949
20952.4
20961.1
20960.4
20970
20966.5
20974.8
20971.3
20974.9
18922
18923.8
18920.4
18922.8
18919.2
18920.1
18917.4
18916.8
18914.6
18913.1
18910.9
18908.9
18906.6
18904.3
18901.8
18899.4
18896.9
18894.4
18891.8
18889.4
18886.9
18884.6
18882.4
18880.2
18878.3
18876.5
18874.9
18873.5
18872.3
18871.5
18870.9
18870.5
18870.6
18870.9
18871.6
18872.7
18874.1
18875.9
18878.2
18880.9
18884
18887.5
18891.5
18896
18900.9
18906.3
18912.2
18918.5
18925.4
18932.7
18940.5
18948.8
18957.6
18966.9
18976.6
18986.9
18997.6
19008.8
19020.5
19032.7
19045.3
19058.4
19071.9
19085.8
19100.2
19115.1
19130.3
19146
19162
19178.5
19195.4
19212.6
19230.2
19248.1
19266.4
19285
19303.9
19323.1
19342.7
19362.5
19382.6
19402.9
19423.5
19444.3
19465.4
19486.6
19508.1
19529.7
19551.5
19573.4
19595.5
19617.7
19640
19662.4
19684.9
19707.4
19730
19752.6
19775.2
19797.8
19820.4
19842.9
19865.4
19887.9
19910.2
19932.4
19954.5
19976.5
19998.3
20019.9
20041.3
20062.5
20083.5
20104.2
20124.6
20144.8
20164.6
20184.1
20203.3
20222.1
20240.5
20258.5
20276.1
20293.3
20309.9
20326.2
20341.9
20357.1
20371.8
20385.9
20399.5
20412.5
20424.9
20436.7
20447.9
20458.5
20468.4
20477.7
20486.3
20494.2
20501.1
20508.7
20512.4
20520.9
20520.6
20530.1
20526.7
20535
20531.6
20535.1
18470.8
18472.6
18469.1
18471.5
18467.9
18468.6
18465.9
18465.1
18462.7
18461
18458.7
18456.5
18454
18451.4
18448.8
18446.1
18443.3
18440.5
18437.8
18435
18432.3
18429.7
18427.2
18424.8
18422.6
18420.5
18418.6
18417
18415.6
18414.4
18413.6
18413
18412.8
18412.9
18413.4
18414.2
18415.5
18417.1
18419.2
18421.7
18424.6
18428
18431.9
18436.2
18441
18446.3
18452.1
18458.4
18465.1
18472.4
18480.2
18488.4
18497.2
18506.5
18516.2
18526.5
18537.2
18548.5
18560.2
18572.4
18585.1
18598.2
18611.8
18625.8
18640.3
18655.3
18670.7
18686.4
18702.6
18719.2
18736.2
18753.6
18771.4
18789.5
18808
18826.8
18845.9
18865.3
18885.1
18905.1
18925.5
18946.1
18966.9
18988
19009.3
19030.8
19052.6
19074.5
19096.5
19118.8
19141.2
19163.7
19186.3
19209
19231.8
19254.7
19277.6
19300.5
19323.5
19346.4
19369.4
19392.3
19415.1
19437.9
19460.6
19483.2
19505.6
19528
19550.1
19572.1
19593.9
19615.4
19636.8
19657.8
19678.6
19699.1
19719.3
19739.2
19758.7
19777.8
19796.6
19814.9
19832.8
19850.3
19867.3
19883.8
19899.8
19915.3
19930.2
19944.7
19958.5
19971.7
19984.4
19996.4
20007.9
20018.6
20028.7
20038.2
20046.9
20055.1
20062.1
20069.7
20073.7
20082.1
20082.1
20091.4
20088.3
20096.5
20093.2
20096.7
18019.7
18021.5
18017.9
18020.2
18016.5
18017.1
18014.3
18013.3
18010.8
18008.9
18006.4
18004
18001.2
17998.4
17995.5
17992.6
17989.5
17986.5
17983.4
17980.3
17977.3
17974.4
17971.6
17968.9
17966.4
17964
17961.8
17959.9
17958.2
17956.7
17955.6
17954.8
17954.3
17954.1
17954.4
17955
17956
17957.4
17959.3
17961.6
17964.4
17967.6
17971.3
17975.5
17980.2
17985.4
17991
17997.2
18003.9
18011.1
18018.8
18027
18035.8
18045
18054.8
18065
18075.8
18087.1
18098.8
18111.1
18123.8
18137
18150.7
18164.9
18179.5
18194.5
18210
18226
18242.3
18259.1
18276.3
18293.8
18311.8
18330.1
18348.8
18367.8
18387.1
18406.8
18426.8
18447.1
18467.7
18488.6
18509.7
18531.1
18552.7
18574.5
18596.5
18618.8
18641.2
18663.7
18686.5
18709.3
18732.3
18755.3
18778.5
18801.7
18825
18848.3
18871.6
18895
18918.3
18941.6
18964.8
18988
19011.1
19034.1
19056.9
19079.7
19102.2
19124.6
19146.8
19168.8
19190.5
19211.9
19233.1
19254
19274.6
19294.8
19314.7
19334.2
19353.4
19372.1
19390.3
19408.1
19425.5
19442.3
19458.7
19474.5
19489.7
19504.4
19518.6
19532.1
19545
19557.3
19569
19580
19590.3
19599.9
19608.9
19617.2
19624.4
19632
19636.4
19644.7
19645
19654.1
19651.3
19659.4
19656.2
19659.7
17568.6
17570.4
17566.8
17569
17565.3
17565.7
17562.7
17561.6
17558.9
17556.8
17554
17551.3
17548.3
17545.3
17542.1
17538.8
17535.5
17532.1
17528.7
17525.3
17522
17518.7
17515.5
17512.5
17509.6
17506.9
17504.4
17502.1
17500.1
17498.3
17496.9
17495.7
17494.9
17494.5
17494.5
17494.8
17495.6
17496.8
17498.5
17500.6
17503.1
17506.2
17509.7
17513.8
17518.3
17523.3
17528.9
17535
17541.6
17548.7
17556.4
17564.6
17573.3
17582.5
17592.3
17602.5
17613.3
17624.6
17636.4
17648.7
17661.6
17674.9
17688.6
17702.9
17717.6
17732.8
17748.5
17764.5
17781.1
17798
17815.4
17833.1
17851.3
17869.8
17888.7
17908
17927.6
17947.5
17967.8
17988.4
18009.3
18030.4
18051.8
18073.5
18095.5
18117.6
18140
18162.6
18185.3
18208.3
18231.3
18254.6
18277.9
18301.4
18324.9
18348.6
18372.2
18396
18419.7
18443.5
18467.2
18490.9
18514.6
18538.2
18561.7
18585.2
18608.5
18631.6
18654.6
18677.4
18700.1
18722.5
18744.6
18766.5
18788.2
18809.5
18830.5
18851.2
18871.5
18891.4
18910.9
18930
18948.7
18966.9
18984.6
19001.8
19018.5
19034.7
19050.3
19065.3
19079.7
19093.6
19106.8
19119.4
19131.3
19142.5
19153.1
19162.9
19172.1
19180.6
19188
19195.7
19200.4
19208.5
19209.3
19218.2
19215.7
19223.6
19220.6
19224.1
17117.7
17119.4
17115.7
17117.8
17114
17114.3
17111.2
17109.8
17107
17104.6
17101.6
17098.6
17095.3
17092
17088.5
17084.8
17081.1
17077.4
17073.6
17069.9
17066.2
17062.5
17059
17055.5
17052.3
17049.2
17046.3
17043.6
17041.2
17039.1
17037.4
17035.9
17034.8
17034.1
17033.7
17033.8
17034.3
17035.2
17036.6
17038.5
17040.9
17043.7
17047.1
17051
17055.3
17060.3
17065.7
17071.7
17078.2
17085.2
17092.8
17101
17109.7
17118.9
17128.6
17138.9
17149.7
17161.1
17172.9
17185.3
17198.2
17211.6
17225.5
17239.9
17254.7
17270.1
17285.9
17302.1
17318.8
17336
17353.5
17371.5
17389.9
17408.6
17427.8
17447.3
17467.2
17487.4
17508
17528.9
17550.1
17571.6
17593.3
17615.4
17637.6
17660.2
17682.9
17705.9
17729
17752.3
17775.8
17799.4
17823.2
17847.1
17871.1
17895.1
17919.3
17943.4
17967.6
17991.9
18016.1
18040.3
18064.4
18088.5
18112.5
18136.4
18160.2
18183.8
18207.3
18230.6
18253.7
18276.6
18299.2
18321.6
18343.7
18365.5
18387
18408.1
18428.9
18449.2
18469.2
18488.7
18507.8
18526.5
18544.6
18562.2
18579.3
18595.9
18611.8
18627.2
18642
18656.2
18669.7
18682.6
18694.8
18706.3
18717.1
18727.2
18736.6
18745.3
18753
18760.8
18765.7
18773.8
18774.9
18783.7
18781.5
18789.3
18786.4
18789.9
16666.8
16668.6
16664.8
16666.8
16662.9
16663
16659.8
16658.1
16655.1
16652.4
16649.1
16645.8
16642.2
16638.5
16634.6
16630.6
16626.5
16622.4
16618.2
16614.1
16609.9
16605.8
16601.9
16598
16594.3
16590.8
16587.5
16584.5
16581.7
16579.2
16577
16575.2
16573.8
16572.7
16572
16571.8
16572
16572.7
16573.8
16575.4
16577.6
16580.2
16583.4
16587.1
16591.3
16596
16601.4
16607.2
16613.6
16620.6
16628.1
16636.2
16644.9
16654.1
16663.8
16674.1
16685
16696.4
16708.3
16720.7
16733.7
16747.2
16761.2
16775.7
16790.8
16806.2
16822.2
16838.7
16855.6
16872.9
16890.7
16908.9
16927.5
16946.6
16966
16985.8
17006
17026.5
17047.4
17068.6
17090.1
17112
17134.1
17156.5
17179.2
17202.1
17225.2
17248.6
17272.2
17295.9
17319.8
17343.9
17368.1
17392.5
17416.9
17441.5
17466.1
17490.7
17515.4
17540.1
17564.9
17589.5
17614.2
17638.8
17663.3
17687.7
17712
17736.2
17760.2
17784
17807.7
17831.1
17854.2
17877.1
17899.8
17922.1
17944.1
17965.7
17986.9
18007.8
18028.3
18048.3
18067.9
18086.9
18105.5
18123.6
18141.1
18158.1
18174.5
18190.3
18205.4
18220
18233.8
18247
18259.6
18271.4
18282.5
18292.9
18302.5
18311.4
18319.3
18327.2
18332.5
18340.5
18342
18350.6
18348.7
18356.4
18353.7
18357.1
16216.1
16217.8
16214
16215.8
16211.9
16211.7
16208.3
16206.4
16203.1
16200.2
16196.6
16193
16189
16184.9
16180.6
16176.2
16171.7
16167.1
16162.4
16157.8
16153.2
16148.7
16144.2
16139.9
16135.7
16131.8
16128
16124.5
16121.3
16118.4
16115.8
16113.6
16111.8
16110.3
16109.3
16108.8
16108.6
16109
16109.9
16111.2
16113.1
16115.5
16118.5
16122
16126
16130.6
16135.8
16141.6
16147.9
16154.8
16162.2
16170.3
16178.9
16188.1
16197.8
16208.2
16219
16230.5
16242.5
16255
16268.1
16281.7
16295.8
16310.5
16325.7
16341.3
16357.5
16374.1
16391.2
16408.8
16426.8
16445.3
16464.2
16483.5
16503.3
16523.4
16543.9
16564.7
16586
16607.5
16629.4
16651.6
16674.2
16697
16720
16743.4
16767
16790.8
16814.8
16839
16863.4
16888
16912.7
16937.5
16962.5
16987.5
17012.6
17037.8
17063
17088.3
17113.6
17138.8
17164
17189.1
17214.2
17239.2
17264.1
17288.8
17313.4
17337.8
17362
17386
17409.7
17433.1
17456.3
17479.2
17501.7
17523.9
17545.7
17567.1
17588.1
17608.6
17628.7
17648.3
17667.4
17685.9
17703.9
17721.3
17738.2
17754.4
17770
17784.9
17799.2
17812.7
17825.6
17837.8
17849.2
17859.8
17869.7
17878.9
17887.1
17895.1
17900.7
17908.6
17910.5
17919
17917.4
17925.1
17922.5
17925.9
15765.6
15767.2
15763.3
15765
15761
15760.5
15757
15754.8
15751.2
15747.9
15744
15740
15735.6
15731.1
15726.3
15721.5
15716.5
15711.4
15706.2
15701.1
15696
15690.9
15686
15681.2
15676.5
15672
15667.8
15663.8
15660.1
15656.7
15653.7
15651.1
15648.8
15647
15645.6
15644.6
15644.2
15644.2
15644.8
15645.9
15647.5
15649.7
15652.4
15655.7
15659.6
15664
15669
15674.7
15680.9
15687.7
15695.1
15703.1
15711.7
15720.8
15730.6
15740.9
15751.9
15763.4
15775.4
15788.1
15801.3
15815
15829.3
15844.1
15859.4
15875.3
15891.6
15908.5
15925.8
15943.7
15961.9
15980.7
15999.9
16019.5
16039.5
16060
16080.8
16102.1
16123.7
16145.6
16167.9
16190.5
16213.5
16236.7
16260.2
16284
16308
16332.3
16356.8
16381.5
16406.4
16431.5
16456.8
16482.1
16507.6
16533.2
16558.9
16584.7
16610.5
16636.3
16662.1
16688
16713.8
16739.5
16765.2
16790.8
16816.3
16841.6
16866.8
16891.8
16916.6
16941.2
16965.5
16989.6
17013.4
17036.9
17060
17082.8
17105.2
17127.1
17148.7
17169.8
17190.4
17210.6
17230.2
17249.2
17267.7
17285.7
17303
17319.6
17335.7
17351
17365.7
17379.7
17392.9
17405.4
17417.2
17428.2
17438.3
17447.8
17456.2
17464.4
17470.4
17478.2
17480.6
17488.9
17487.7
17495.2
17492.8
17496.2
15315.2
15316.8
15312.9
15314.4
15310.2
15309.5
15305.8
15303.2
15299.4
15295.7
15291.3
15286.9
15282.1
15277.1
15271.8
15266.5
15260.9
15255.3
15249.6
15243.9
15238.2
15232.6
15227.1
15221.7
15216.5
15211.5
15206.7
15202.2
15198
15194.1
15190.6
15187.5
15184.8
15182.5
15180.7
15179.4
15178.6
15178.3
15178.5
15179.3
15180.6
15182.5
15185
15188.1
15191.8
15196.1
15200.9
15206.4
15212.5
15219.3
15226.6
15234.5
15243.1
15252.3
15262
15272.4
15283.4
15295
15307.1
15319.8
15333.2
15347
15361.5
15376.4
15392
15408
15424.6
15441.7
15459.3
15477.4
15495.9
15515
15534.5
15554.4
15574.8
15595.6
15616.8
15638.4
15660.4
15682.8
15705.5
15728.6
15751.9
15775.6
15799.6
15823.9
15848.5
15873.2
15898.3
15923.5
15949
15974.6
16000.4
16026.3
16052.4
16078.6
16104.9
16131.2
16157.7
16184.1
16210.6
16237
16263.5
16289.9
16316.2
16342.4
16368.6
16394.6
16420.4
16446.1
16471.6
16496.8
16521.8
16546.5
16571
16595.1
16618.9
16642.3
16665.3
16687.9
16710.1
16731.8
16753
16773.7
16793.9
16813.5
16832.6
16851
16868.9
16886
16902.6
16918.4
16933.5
16947.9
16961.6
16974.5
16986.6
16997.9
17008.4
17018.1
17026.8
17035.2
17041.5
17049.4
17052.1
17060.3
17059.4
17066.8
17064.6
17068
14865
14866.6
14862.6
14863.9
14859.6
14858.6
14854.6
14851.7
14847.5
14843.4
14838.7
14833.7
14828.4
14822.9
14817.1
14811.2
14805
14798.8
14792.5
14786.2
14779.9
14773.7
14767.5
14761.5
14755.7
14750.1
14744.7
14739.6
14734.9
14730.4
14726.4
14722.8
14719.6
14716.9
14714.6
14712.9
14711.7
14711
14710.9
14711.4
14712.4
14714
14716.3
14719.2
14722.6
14726.7
14731.5
14736.8
14742.8
14749.5
14756.7
14764.6
14773.2
14782.3
14792.1
14802.5
14813.6
14825.2
14837.4
14850.3
14863.7
14877.8
14892.3
14907.5
14923.2
14939.5
14956.3
14973.7
14991.5
15009.9
15028.8
15048.1
15068
15088.3
15109
15130.2
15151.8
15173.8
15196.2
15219
15242.2
15265.7
15289.6
15313.8
15338.3
15363.1
15388.2
15413.5
15439.1
15464.9
15490.9
15517.1
15543.5
15570.1
15596.8
15623.6
15650.5
15677.5
15704.6
15731.7
15758.9
15786
15813.1
15840.2
15867.2
15894.2
15921
15947.7
15974.2
16000.6
16026.8
16052.7
16078.5
16103.9
16129
16153.8
16178.3
16202.4
16226.1
16249.4
16272.2
16294.6
16316.5
16337.8
16358.6
16378.8
16398.5
16417.5
16435.9
16453.6
16470.6
16487
16502.6
16517.4
16531.5
16544.8
16557.3
16569
16579.9
16589.9
16599
16607.5
16614.2
16622
16625.2
16633.3
16632.8
16640.1
16638
16641.4
14415.1
14416.6
14412.5
14413.6
14409.1
14407.8
14403.6
14400.3
14395.7
14391.1
14385.9
14380.5
14374.6
14368.5
14362.1
14355.5
14348.8
14341.9
14334.9
14327.9
14321
14314
14307.2
14300.5
14294
14287.8
14281.8
14276.1
14270.7
14265.7
14261.1
14256.9
14253.2
14250
14247.3
14245.1
14243.5
14242.4
14241.9
14242.1
14242.8
14244.2
14246.1
14248.8
14252
14256
14260.5
14265.8
14271.7
14278.2
14285.4
14293.3
14301.8
14310.9
14320.8
14331.2
14342.3
14354
14366.4
14379.3
14392.9
14407.1
14421.9
14437.3
14453.2
14469.7
14486.8
14504.4
14522.5
14541.2
14560.4
14580.1
14600.3
14621
14642.1
14663.7
14685.7
14708.2
14731
14754.3
14778
14802
14826.4
14851.1
14876.1
14901.5
14927.1
14953
14979.2
15005.6
15032.3
15059.1
15086.1
15113.3
15140.7
15168.2
15195.8
15223.5
15251.3
15279.1
15306.9
15334.8
15362.6
15390.5
15418.2
15445.9
15473.5
15500.9
15528.2
15555.4
15582.3
15609
15635.5
15661.7
15687.6
15713.1
15738.3
15763.2
15787.6
15811.6
15835.1
15858.2
15880.8
15902.8
15924.3
15945.1
15965.4
15985.1
16004
16022.4
16040
16056.8
16072.9
16088.3
16102.9
16116.6
16129.5
16141.6
16152.8
16163.2
16172.6
16181.3
16188.4
16196.3
16199.9
16207.9
16207.8
16215
16213.1
16216.4
13965.4
13966.8
13962.6
13963.5
13958.9
13957.2
13952.7
13948.9
13943.9
13938.9
13933.1
13927.1
13920.6
13913.9
13906.8
13899.5
13892.1
13884.4
13876.8
13869
13861.3
13853.6
13846.1
13838.6
13831.4
13824.4
13817.8
13811.4
13805.4
13799.7
13794.5
13789.8
13785.5
13781.8
13778.6
13775.9
13773.9
13772.4
13771.5
13771.3
13771.7
13772.8
13774.5
13776.9
13779.9
13783.6
13788.1
13793.2
13798.9
13805.4
13812.5
13820.4
13828.9
13838
13847.9
13858.4
13869.6
13881.4
13893.8
13906.9
13920.7
13935
13950
13965.6
13981.8
13998.5
14015.9
14033.8
14052.2
14071.2
14090.8
14110.8
14131.4
14152.5
14174
14196
14218.5
14241.4
14264.8
14288.5
14312.7
14337.2
14362.2
14387.4
14413.1
14439
14465.2
14491.8
14518.6
14545.6
14572.9
14600.5
14628.2
14656.1
14684.1
14712.3
14740.7
14769.1
14797.6
14826.2
14854.8
14883.4
14912
14940.6
14969.2
14997.7
15026.1
15054.3
15082.4
15110.4
15138.1
15165.6
15192.9
15219.9
15246.6
15272.9
15298.9
15324.5
15349.8
15374.5
15398.8
15422.7
15446
15468.7
15490.9
15512.5
15533.4
15553.7
15573.4
15592.3
15610.5
15627.9
15644.6
15660.5
15675.6
15689.8
15703.2
15715.7
15727.3
15738
15747.8
15756.8
15764.2
15772.2
15776.3
15784.1
15784.4
15791.5
15789.8
15793.1
13516
13517.3
13513.1
13513.6
13508.9
13506.7
13501.9
13497.7
13492.2
13486.6
13480.2
13473.6
13466.4
13459
13451.2
13443.1
13434.9
13426.5
13418
13409.4
13400.9
13392.4
13384
13375.8
13367.8
13360
13352.6
13345.5
13338.8
13332.5
13326.6
13321.2
13316.4
13312.1
13308.4
13305.2
13302.7
13300.8
13299.5
13298.9
13299
13299.7
13301.2
13303.3
13306.2
13309.7
13314
13318.9
13324.6
13331
13338.1
13345.8
13354.3
13363.5
13373.4
13384
13395.2
13407.2
13419.8
13433
13446.9
13461.5
13476.7
13492.5
13508.9
13525.9
13543.6
13561.8
13580.6
13599.9
13619.8
13640.3
13661.2
13682.7
13704.7
13727.2
13750.1
13773.5
13797.4
13821.7
13846.4
13871.5
13897
13922.9
13949.1
13975.6
14002.5
14029.7
14057.2
14084.9
14112.9
14141.1
14169.6
14198.2
14227
14256
14285.1
14314.3
14343.6
14373
14402.4
14431.8
14461.3
14490.7
14520.1
14549.4
14578.6
14607.7
14636.7
14665.5
14694.1
14722.5
14750.6
14778.5
14806
14833.2
14860.1
14886.5
14912.6
14938.2
14963.3
14987.9
15012
15035.6
15058.5
15080.8
15102.5
15123.5
15143.9
15163.4
15182.3
15200.4
15217.7
15234.1
15249.7
15264.5
15278.3
15291.3
15303.3
15314.5
15324.6
15333.9
15341.7
15349.8
15354.3
15362.1
15362.7
15369.8
15368.2
15371.6
13066.9
13068.1
13063.8
13064
13059.1
13056.5
13051.3
13046.6
13040.6
13034.3
13027.3
13019.9
13012
13003.8
12995.2
12986.3
12977.2
12967.9
12958.5
12949
12939.6
12930.2
12920.9
12911.9
12903
12894.4
12886.2
12878.3
12870.8
12863.8
12857.2
12851.2
12845.7
12840.8
12836.5
12832.9
12829.9
12827.5
12825.8
12824.9
12824.6
12825
12826.2
12828.1
12830.7
12834
12838.1
12842.9
12848.5
12854.8
12861.9
12869.6
12878.1
12887.3
12897.3
12907.9
12919.3
12931.3
12944.1
12957.5
12971.6
12986.3
13001.7
13017.8
13034.5
13051.8
13069.8
13088.3
13107.4
13127.2
13147.5
13168.3
13189.7
13211.6
13234.1
13257
13280.5
13304.4
13328.8
13353.7
13379
13404.7
13430.8
13457.3
13484.1
13511.3
13538.9
13566.8
13594.9
13623.4
13652.1
13681.1
13710.3
13739.7
13769.3
13799.1
13829
13859
13889.2
13919.4
13949.7
13980
14010.3
14040.6
14070.9
14101.1
14131.2
14161.2
14191.1
14220.8
14250.3
14279.6
14308.7
14337.4
14365.9
14394
14421.8
14449.1
14476.1
14502.6
14528.6
14554
14579
14603.3
14627.1
14650.2
14672.7
14694.5
14715.5
14735.8
14755.4
14774.1
14792
14809.1
14825.3
14840.6
14855
14868.5
14881
14892.5
14903
14912.6
14920.8
14929.1
14934
14941.8
14942.8
14949.7
14948.4
14951.8
12618.2
12619.3
12614.8
12614.7
12609.6
12606.5
12600.9
12595.5
12588.9
12582
12574.3
12566.1
12557.4
12548.3
12538.7
12528.9
12518.8
12508.6
12498.2
12487.8
12477.3
12467
12456.8
12446.8
12437
12427.5
12418.4
12409.6
12401.3
12393.5
12386.3
12379.5
12373.4
12367.9
12363
12358.8
12355.3
12352.4
12350.3
12348.9
12348.3
12348.4
12349.3
12350.9
12353.3
12356.5
12360.4
12365.2
12370.6
12376.9
12383.9
12391.6
12400.1
12409.4
12419.4
12430.1
12441.6
12453.8
12466.7
12480.3
12494.6
12509.5
12525.2
12541.5
12558.5
12576.1
12594.4
12613.3
12632.8
12652.9
12673.6
12694.9
12716.8
12739.2
12762.1
12785.6
12809.6
12834.1
12859
12884.5
12910.3
12936.7
12963.4
12990.6
13018.1
13046
13074.3
13102.9
13131.8
13161
13190.5
13220.3
13250.3
13280.5
13311
13341.6
13372.3
13403.3
13434.3
13465.4
13496.6
13527.8
13559.1
13590.3
13621.5
13652.7
13683.8
13714.7
13745.6
13776.3
13806.8
13837
13867
13896.8
13926.2
13955.3
13984
14012.3
14040.2
14067.6
14094.6
14121
14146.8
14172
14196.7
14220.7
14244
14266.5
14288.4
14309.5
14329.8
14349.2
14367.8
14385.6
14402.4
14418.3
14433.2
14447.2
14460.2
14472.2
14483.1
14493.1
14501.6
14510.1
14515.4
14523.2
14524.6
14531.5
14530.4
14533.7
12169.8
12170.8
12166.2
12165.8
12160.3
12156.7
12150.6
12144.6
12137.4
12129.7
12121.1
12112.1
12102.4
12092.3
12081.8
12071
12059.8
12048.5
12037
12025.5
12014
12002.6
11991.4
11980.3
11969.5
11959.1
11949
11939.4
11930.2
11921.6
11913.5
11906.1
11899.2
11893
11887.6
11882.8
11878.7
11875.4
11872.9
11871.1
11870.1
11869.9
11870.5
11871.9
11874
11877
11880.8
11885.4
11890.8
11897
11904
11911.7
11920.3
11929.6
11939.6
11950.5
11962.1
11974.4
11987.5
12001.3
12015.8
12031
12046.9
12063.6
12080.8
12098.8
12117.4
12136.7
12156.6
12177.1
12198.3
12220
12242.3
12265.2
12288.7
12312.7
12337.3
12362.3
12387.9
12413.9
12440.5
12467.5
12494.9
12522.7
12551
12579.6
12608.7
12638
12667.7
12697.8
12728.1
12758.7
12789.5
12820.6
12851.9
12883.4
12915.1
12946.9
12978.9
13011
13043.1
13075.3
13107.5
13139.8
13172
13204.1
13236.2
13268.2
13300.1
13331.8
13363.3
13394.6
13425.7
13456.4
13486.9
13517
13546.8
13576.1
13605
13633.4
13661.3
13688.7
13715.5
13741.7
13767.2
13792.1
13816.3
13839.8
13862.5
13884.4
13905.5
13925.7
13945
13963.4
13980.9
13997.5
14013
14027.6
14041.1
14053.5
14064.9