/*--------------------------------*- C++ -*----------------------------------*\
| =========                 |                                                 |
| \\      /  F ield         | OpenFOAM: The Open Source CFD Toolbox           |
|  \\    /   O peration     | Version:  v2006                                 |
|   \\  /    A nd           | Website:  www.openfoam.com                      |
|    \\/     M anipulation  |                                                 |
\*---------------------------------------------------------------------------*/
FoamFile
{
    version     2.0;
    format      ascii;
    class       volScalarField;
    location    "9.75";
    object      r;
}
// * * * * * * * * * * * * * * * * * * * * * * * * * * * * * * * * * * * * * //

dimensions      [1 2 0 0 0 0 0];


internalField   nonuniform List<scalar> 
350
(
-0.00662029
0.00392691
-0.00912922
0.00442917
-0.0152894
0.00730515
-0.0242733
0.0129902
-0.0358792
0.0227272
-0.0502979
0.0379032
-0.0678986
0.059442
-0.0890336
0.0873753
-0.113771
0.120595
-0.141529
0.156768
-0.170709
0.192434
-0.198541
0.223341
-0.221297
0.245051
-0.234958
0.253787
-0.236202
0.247358
-0.223451
0.225917
-0.19759
0.192219
-0.162038
0.151193
-0.122037
0.108831
-0.0833211
0.0707078
-0.0506258
0.0406546
-0.0265883
0.0200616
-0.0114407
0.00804797
-0.00353724
0.00232501
-0.000380725
0.00029775
0.000363213
-8.89466e-05
0.000271527
-2.30851e-05
9.22615e-05
3.90166e-05
1.55328e-05
3.55987e-05
5.71178e-06
1.43055e-05
7.94148e-06
3.53439e-06
5.41213e-06
1.76516e-06
1.89014e-06
1.52895e-06
5.31403e-07
7.43096e-07
3.79658e-07
1.93651e-07
2.43424e-07
8.76477e-08
7.01341e-08
7.07077e-08
1.80788e-08
2.3023e-08
1.83723e-08
1.59486e-09
6.74085e-09
3.15641e-09
-1.1445e-09
9.81155e-10
1.39557e-10
-1.41224e-09
2.25198e-10
-1.20569e-10
-3.01317e-10
6.90822e-10
5.80831e-10
1.00219e-09
1.07521e-09
1.69812e-09
1.17632e-09
1.89814e-09
1.30371e-09
1.66091e-09
1.06577e-09
1.21576e-09
6.08769e-10
4.61751e-10
8.29462e-11
-3.71632e-10
-5.00756e-10
-1.11362e-09
-9.68343e-10
-1.65817e-09
-1.2427e-09
-1.85752e-09
-1.2799e-09
-1.69648e-09
-1.05381e-09
-1.19821e-09
-6.26021e-10
-4.61588e-10
-7.1797e-11
3.64702e-10
4.98246e-10
1.12077e-09
9.65453e-10
1.65305e-09
1.2479e-09
1.86082e-09
1.27529e-09
1.69338e-09
1.05617e-09
1.20176e-09
6.27961e-10
4.58066e-10
6.42981e-11
-3.65247e-10
-4.86228e-10
-1.11131e-09
-9.75388e-10
-1.67359e-09
-1.24797e-09
-1.82665e-09
-1.23891e-09
-1.71188e-09
-1.14598e-09
-1.30177e-09
-6.57347e-10
-4.42402e-10
-1.84591e-10
-8.74132e-11
-2.60951e-10
4.22719e-10
7.14972e-10
1.70686e-09
7.47376e-10
-1.06059e-10
-1.90529e-09
-6.89845e-10
1.99359e-09
5.62516e-09
4.20477e-09
-3.84493e-09
-1.51893e-08
-1.81904e-08
-9.06731e-10
3.38589e-08
6.16958e-08
3.92644e-08
-5.70155e-08
-1.94069e-07
-2.51879e-07
-7.54298e-08
4.07785e-07
1.013e-06
1.21507e-06
2.85497e-07
-2.22004e-06
-5.70791e-06
-7.85964e-06
-4.63499e-06
8.29757e-06
3.22287e-05
6.041e-05
7.29158e-05
3.44081e-05
-0.000100569
-0.000369241
-0.000763712
-0.00117169
-0.00129406
-0.000542948
0.00207094
0.00804821
0.0194909
0.0391544
0.0704448
0.117349
0.184291
0.275923
0.396852
0.551339
0.74298
0.974407
1.24704
1.56089
1.91451
2.30495
2.72787
3.17775
3.64815
4.13198
4.62188
5.1105
5.59087
6.0566
6.50213
6.92286
7.31523
7.67677
8.00601
8.30245
8.56644
8.79901
9.0018
9.17682
9.32639
9.45298
9.55912
9.64729
9.71989
9.77915
9.82717
9.86581
9.89672
9.92132
9.94069
9.95556
9.96618
9.97228
9.97293
9.96649
9.95058
9.92208
9.87725
9.81182
9.7213
9.60117
9.44726
9.25604
9.02491
8.75249
8.43878
8.08526
7.6949
7.27203
6.82217
6.3518
5.86799
5.3781
4.88948
4.40912
3.94339
3.49787
3.07714
2.68477
2.32323
1.99399
1.69755
1.43356
1.20098
0.998204
0.823187
0.673617
0.54702
0.440869
0.352674
0.280052
0.220773
0.172797
0.134294
0.103645
0.0794417
0.060479
0.0457357
0.0343591
0.0256451
0.0190188
0.0140157
0.0102646
0.00747135
0.00540535
0.00388734
0.00277921
0.00197545
0.0013961
0.000981101
0.000685622
0.000476501
0.000329369
0.00022645
0.000154869
0.000105363
7.13131e-05
4.8022e-05
3.21757e-05
2.14516e-05
1.42319e-05
9.39648e-06
6.17432e-06
4.03796e-06
2.6285e-06
1.70315e-06
1.09855e-06
7.05389e-07
4.50928e-07
2.86996e-07
1.81868e-07
1.14755e-07
7.21009e-08
4.51114e-08
2.81079e-08
1.74416e-08
1.0779e-08
6.6348e-09
4.06771e-09
2.48408e-09
1.51109e-09
9.15681e-10
5.52769e-10
3.32435e-10
1.99182e-10
1.18902e-10
7.07203e-11
4.19109e-11
2.47488e-11
1.45627e-11
8.53897e-12
4.98953e-12
2.90549e-12
1.68616e-12
9.75239e-13
5.62176e-13
3.22995e-13
1.84967e-13
1.0558e-13
6.00714e-14
3.407e-14
1.92618e-14
1.08564e-14
6.09869e-15
3.41789e-15
1.90521e-15
1.06694e-15
5.8084e-16
3.42168e-16
1.51214e-16
)
;

boundaryField
{
    right
    {
        type            zeroGradient;
    }
    left
    {
        type            inletOutlet;
        inletValue      uniform 0;
        value           uniform 0;
    }
    top
    {
        type            zeroGradient;
    }
    bottom
    {
        type            zeroGradient;
    }
    empty
    {
        type            empty;
    }
}


// ************************************************************************* //
