/*--------------------------------*- C++ -*----------------------------------*\
| =========                 |                                                 |
| \\      /  F ield         | OpenFOAM: The Open Source CFD Toolbox           |
|  \\    /   O peration     | Version:  v2006                                 |
|   \\  /    A nd           | Website:  www.openfoam.com                      |
|    \\/     M anipulation  |                                                 |
\*---------------------------------------------------------------------------*/
FoamFile
{
    version     2.0;
    format      ascii;
    class       volScalarField;
    location    "19";
    object      p_rgh;
}
// * * * * * * * * * * * * * * * * * * * * * * * * * * * * * * * * * * * * * //

dimensions      [1 -1 -2 0 0 0 0];


internalField   nonuniform List<scalar> 
150000
(
315.16
315.42
315.512
315.476
315.368
315.263
315.224
315.309
315.565
316.029
316.719
317.646
318.808
320.197
321.8
323.599
325.576
327.714
329.997
332.411
334.944
337.587
340.33
343.165
346.087
349.087
352.158
355.291
358.479
361.713
364.982
368.279
371.595
374.921
378.252
381.583
384.91
388.231
391.545
394.849
398.139
401.41
404.653
407.857
411.01
414.105
417.133
420.089
422.973
425.781
428.513
431.167
433.742
436.233
438.636
440.945
443.151
445.245
447.219
449.061
450.758
452.296
453.66
454.835
455.802
456.544
457.043
457.281
457.241
456.906
456.263
455.299
454.005
452.372
450.397
448.075
445.406
442.392
439.036
435.343
431.317
426.966
422.296
417.314
412.026
406.438
400.558
394.389
387.936
381.205
374.197
366.918
359.368
351.55
343.467
335.119
326.508
317.634
308.498
299.1
289.438
279.514
269.325
258.87
248.15
237.161
225.912
214.42
202.591
190.461
178.002
165.257
152.213
138.861
125.191
111.191
96.852
82.1672
67.1309
51.7401
35.9928
19.8861
3.4147
-13.4297
-30.6578
-48.2808
-66.3091
-84.7519
-103.616
-122.905
-142.624
-162.773
-183.355
-204.373
-225.831
-247.746
-270.139
-293.039
-316.472
-340.422
-364.899
-389.829
-415.14
-440.829
-466.854
-493.29
-520.187
-547.062
-574.902
-604.281
-634.587
-664.825
-693.416
-720.447
-747.64
-776.049
-805.815
-836.414
-867.424
-898.689
-930.117
-961.629
-993.203
-1024.84
-1056.51
-1088.2
-1119.89
-1151.57
-1183.21
-1214.78
-1246.26
-1277.66
-1308.96
-1340.15
-1371.23
-1402.17
-1432.96
-1463.57
-1493.97
-1524.13
-1554.05
-1583.68
-1613.01
-1642.03
-1670.7
-1699.03
-1726.98
-1754.56
-1781.73
-1808.5
-1834.85
-1860.75
-1886.21
-1911.21
-1935.73
-1959.76
-1983.28
-2006.3
-2028.77
-2050.71
-2072.09
-2092.89
-2113.12
-2132.75
-2151.77
-2170.18
-2187.96
-2205.1
-2221.59
-2237.43
-2252.61
-2267.12
-2280.96
-2294.11
-2306.57
-2318.33
-2329.38
-2339.73
-2349.38
-2358.32
-2366.54
-2374.04
-2380.82
-2386.87
-2392.2
-2396.8
-2400.68
-2403.84
-2406.27
-2407.98
-2408.96
-2409.21
-2408.73
-2407.52
-2405.58
-2402.88
-2399.44
-2395.25
-2390.3
-2384.6
-2378.13
-2370.9
-2362.9
-2354.12
-2344.56
-2334.18
-2322.98
-2310.94
-2298.04
-2284.29
-2269.68
-2254.22
-2237.87
-2220.62
-2202.42
-2183.23
-2163.03
-2141.84
-2119.69
-2096.62
-2072.7
-2047.97
-2022.44
-1996.13
-1968.99
-1940.95
-1911.78
-1881.08
-1849.63
-1817.61
-1784.77
-1750.99
-1716.22
-1680.53
-1643.94
-1606.46
-1568.12
-1528.94
-1488.93
-1448.03
-1406.33
-1363.8
-1320.48
-1276.39
-1231.55
-1185.98
-1139.72
-1092.77
-1045.17
-996.915
-948.038
-898.551
-848.47
-797.81
-746.587
-694.812
-642.499
-589.661
-536.315
-482.484
-428.199
-373.496
-318.4
-262.922
-207.068
-150.859
-94.3001
-37.4058
19.8018
77.2959
135.047
193.027
251.21
309.575
368.102
426.774
485.575
544.49
603.502
662.595
721.754
780.961
840.201
899.458
958.715
1017.96
1077.17
1136.34
1195.45
1254.49
1313.44
1372.3
1431.04
1489.66
1548.14
1606.47
1664.63
1722.63
1780.45
1838.07
1895.49
1952.7
2009.7
2066.48
2123.07
2179.31
2235.28
2290.93
2346.29
2401.33
2456
2510.28
2564.17
2617.68
2670.84
2723.68
2776.23
2828.46
2880.37
2931.9
2983.04
3033.76
3084.07
3133.97
3183.48
3232.6
3281.34
3329.69
3377.64
3425.2
3472.37
3519.15
3565.55
3611.57
3657.22
3702.49
3747.41
3791.96
3836.16
3880.02
3923.54
3966.72
4009.57
4052.1
4094.3
4136.18
4177.73
4218.97
4259.9
4300.51
4340.82
4380.83
4420.54
4459.95
4499.07
4537.9
4576.43
4614.65
4652.58
4690.22
4727.6
4764.73
4801.64
4838.35
4874.89
4911.28
4947.56
4983.74
5019.84
5055.87
5091.82
5127.62
5163.21
5198.54
5233.59
5268.37
5302.93
5337.34
5371.66
5405.93
5440.16
5474.33
5508.39
5542.3
5576.03
5609.53
5642.76
5675.73
5708.43
5740.91
5773.24
5805.48
5837.67
5869.82
5901.91
5933.9
5965.76
5997.47
6028.97
6060.29
6091.44
6122.44
6153.29
6184
6214.57
6244.99
6275.25
6305.35
6335.26
6364.99
6394.52
6423.84
6452.95
6481.82
6510.45
6538.83
6566.95
6594.79
6622.35
6649.63
6676.62
6703.32
6729.72
6755.8
6781.55
6806.93
6831.89
6856.39
6880.36
6903.73
6926.45
6948.45
6969.7
6990.16
7009.81
7028.62
7046.55
7063.64
7079.94
7095.52
7110.43
7124.67
7138.25
7151.15
7163.39
7174.99
7185.97
7196.33
7206.08
7215.23
7223.78
7231.75
7239.12
7245.87
7252.09
7257.64
7262.33
7265.95
7268.34
7269.51
314.929
315.171
315.272
315.227
315.1
314.976
314.921
314.997
315.252
315.719
316.418
317.355
318.528
319.926
321.536
323.341
325.324
327.468
329.757
332.177
334.717
337.365
340.113
342.953
345.879
348.882
351.956
355.092
358.284
361.521
364.796
368.099
371.422
374.757
378.097
381.438
384.773
388.102
391.419
394.723
398.01
401.276
404.513
407.714
410.87
413.971
417.011
419.981
422.878
425.699
428.442
431.104
433.684
436.179
438.584
440.894
443.103
445.202
447.182
449.031
450.737
452.286
453.662
454.849
455.83
456.586
457.099
457.351
457.325
457.005
456.376
455.425
454.143
452.521
450.555
448.241
445.579
442.57
439.219
435.528
431.505
427.155
422.485
417.502
412.213
406.625
400.742
394.572
388.119
381.387
374.38
367.101
359.553
351.738
343.657
335.311
326.703
317.831
308.697
299.3
289.64
279.715
269.525
259.067
248.339
237.335
226.044
214.446
202.579
190.41
177.888
165.109
152.018
138.614
124.898
110.87
96.5281
81.8693
66.8857
51.5671
35.9012
19.8751
3.4759
-13.3087
-30.4899
-48.0768
-66.0769
-84.4956
-103.338
-122.609
-142.317
-162.47
-183.079
-204.157
-225.716
-247.751
-270.246
-293.17
-316.476
-340.143
-364.08
-388.38
-413.274
-438.998
-465.672
-493.139
-521.821
-551.864
-581.308
-608.624
-635.199
-661.675
-688.642
-716.416
-745.281
-775.269
-805.827
-836.668
-867.65
-898.769
-930.042
-961.487
-993.102
-1024.84
-1056.67
-1088.54
-1120.37
-1152.1
-1183.69
-1215.14
-1246.49
-1277.74
-1308.94
-1340.09
-1371.18
-1402.16
-1433
-1463.66
-1494.1
-1524.31
-1554.25
-1583.91
-1613.27
-1642.3
-1671
-1699.33
-1727.29
-1754.87
-1782.05
-1808.82
-1835.16
-1861.08
-1886.54
-1911.54
-1936.07
-1960.11
-1983.65
-2006.67
-2029.16
-2051.11
-2072.49
-2093.31
-2113.54
-2133.18
-2152.21
-2170.62
-2188.4
-2205.55
-2222.05
-2237.89
-2253.08
-2267.59
-2281.43
-2294.58
-2307.05
-2318.82
-2329.89
-2340.26
-2349.91
-2358.85
-2367.07
-2374.58
-2381.36
-2387.42
-2392.76
-2397.37
-2401.25
-2404.41
-2406.85
-2408.56
-2409.55
-2409.81
-2409.33
-2408.13
-2406.19
-2403.5
-2400.07
-2395.88
-2390.94
-2385.24
-2378.78
-2371.55
-2363.55
-2354.78
-2345.22
-2334.85
-2323.66
-2311.63
-2298.75
-2285.01
-2270.41
-2254.93
-2238.57
-2221.29
-2203.06
-2183.88
-2163.73
-2142.62
-2120.55
-2097.56
-2073.68
-2048.95
-2023.39
-1997.01
-1969.8
-1941.71
-1912.72
-1882.85
-1851.4
-1818.63
-1785.18
-1751.06
-1716.23
-1680.59
-1644.07
-1606.66
-1568.39
-1529.25
-1489.26
-1448.45
-1406.78
-1364.28
-1320.97
-1276.9
-1232.08
-1186.53
-1140.27
-1093.34
-1045.74
-997.498
-948.633
-899.162
-849.102
-798.467
-747.266
-695.506
-643.19
-590.319
-536.899
-482.947
-428.549
-373.758
-318.59
-263.064
-207.175
-150.97
-94.4201
-37.5347
19.6669
77.1575
134.907
192.887
251.073
309.443
367.977
426.658
485.471
544.397
603.422
662.528
721.699
780.918
840.169
899.436
958.703
1017.95
1077.18
1136.36
1195.48
1254.52
1313.48
1372.35
1431.1
1489.72
1548.21
1606.55
1664.72
1722.73
1780.55
1838.18
1895.6
1952.81
2009.79
2066.51
2122.92
2179.1
2235.01
2290.58
2345.87
2400.92
2455.63
2509.99
2564.01
2617.66
2670.95
2723.89
2776.47
2828.71
2880.59
2932.1
2983.22
3033.94
3084.26
3134.18
3183.71
3232.85
3281.59
3329.94
3377.9
3425.46
3472.64
3519.43
3565.83
3611.86
3657.51
3702.79
3747.7
3792.26
3836.46
3880.31
3923.82
3967
4009.84
4052.36
4094.55
4136.41
4177.96
4219.19
4260.1
4300.71
4341.01
4381.01
4420.71
4460.12
4499.24
4538.07
4576.61
4614.85
4652.8
4690.47
4727.87
4765.02
4801.94
4838.65
4875.18
4911.54
4947.76
4983.88
5019.96
5055.99
5091.91
5127.69
5163.28
5198.65
5233.76
5268.6
5303.23
5337.68
5372.02
5406.29
5440.47
5474.57
5508.55
5542.38
5576.03
5609.48
5642.71
5675.71
5708.47
5741.02
5773.4
5805.66
5837.84
5869.95
5901.99
5933.92
5965.72
5997.35
6028.83
6060.18
6091.36
6122.39
6153.26
6183.99
6214.56
6244.99
6275.25
6305.35
6335.27
6365
6394.54
6423.87
6452.99
6481.88
6510.53
6538.94
6567.08
6594.94
6622.53
6649.83
6676.84
6703.57
6730
6756.12
6781.91
6807.31
6832.3
6856.8
6880.74
6904.08
6926.75
6948.7
6969.89
6990.31
7009.93
7028.73
7046.7
7063.85
7080.2
7095.81
7110.74
7125
7138.58
7151.5
7163.76
7175.37
7186.37
7196.74
7206.51
7215.67
7224.22
7232.15
7239.51
7246.36
7252.61
7258.16
7262.93
7266.59
7269.01
7270.22
314.544
314.808
314.949
314.917
314.768
314.61
314.531
314.592
314.84
315.305
316.004
316.942
318.119
319.524
321.142
322.957
324.95
327.102
329.399
331.825
334.369
337.022
339.775
342.62
345.551
348.56
351.641
354.785
357.984
361.23
364.513
367.824
371.156
374.499
377.848
381.196
384.538
387.872
391.195
394.505
397.8
401.075
404.322
407.534
410.7
413.811
416.858
419.835
422.737
425.562
428.309
430.975
433.56
436.061
438.474
440.794
443.014
445.126
447.12
448.986
450.709
452.276
453.671
454.879
455.88
456.658
457.194
457.47
457.467
457.17
456.564
455.635
454.373
452.771
450.821
448.522
445.872
442.874
439.53
435.845
431.825
427.476
422.807
417.825
412.536
406.948
401.067
394.899
388.449
381.721
374.719
367.446
359.905
352.096
344.023
335.686
327.086
318.224
309.1
299.714
290.065
280.153
269.975
259.531
248.816
237.828
226.559
215.027
203.162
191.019
178.629
165.888
152.844
139.488
125.813
111.81
97.4698
82.7861
67.7543
52.3715
36.6346
20.5389
4.07786
-12.7574
-29.9768
-47.5905
-65.6081
-84.0379
-102.887
-122.162
-141.869
-162.012
-182.596
-203.622
-225.094
-247.021
-269.419
-292.31
-315.71
-339.608
-364.005
-388.88
-414.232
-440.091
-466.437
-493.257
-520.558
-548.674
-577.827
-607.513
-636.114
-663.599
-690.85
-718.547
-746.928
-776.125
-806.119
-836.734
-867.753
-898.971
-930.311
-961.763
-993.312
-1024.95
-1056.64
-1088.37
-1120.12
-1151.87
-1183.57
-1215.2
-1246.74
-1278.18
-1309.53
-1340.78
-1371.9
-1402.89
-1433.72
-1464.36
-1494.79
-1524.98
-1554.91
-1584.57
-1613.92
-1642.96
-1671.67
-1700.02
-1728
-1755.6
-1782.81
-1809.61
-1835.98
-1861.91
-1887.4
-1912.42
-1936.97
-1961.02
-1984.57
-2007.6
-2030.1
-2052.05
-2073.44
-2094.26
-2114.5
-2134.14
-2153.17
-2171.59
-2189.38
-2206.53
-2223.03
-2238.88
-2254.07
-2268.59
-2282.43
-2295.59
-2308.06
-2319.85
-2330.98
-2341.31
-2350.95
-2359.9
-2368.12
-2375.63
-2382.42
-2388.49
-2393.83
-2398.45
-2402.35
-2405.52
-2407.97
-2409.69
-2410.69
-2410.96
-2410.5
-2409.31
-2407.38
-2404.71
-2401.29
-2397.12
-2392.19
-2386.5
-2380.05
-2372.84
-2364.85
-2356.08
-2346.52
-2336.15
-2324.96
-2312.93
-2300.05
-2286.31
-2271.71
-2256.26
-2239.95
-2222.73
-2204.57
-2185.44
-2165.33
-2144.24
-2122.2
-2099.25
-2075.4
-2050.68
-2025.09
-1998.64
-1971.3
-1943.03
-1913.76
-1883.43
-1852
-1819.68
-1786.54
-1752.62
-1717.82
-1682.11
-1645.51
-1608.02
-1569.66
-1530.44
-1490.38
-1449.49
-1407.78
-1365.26
-1321.95
-1277.87
-1233.04
-1187.48
-1141.21
-1094.25
-1046.62
-998.345
-949.436
-899.912
-849.79
-799.085
-747.811
-695.983
-643.614
-590.72
-537.325
-483.46
-429.125
-374.344
-319.173
-263.638
-207.765
-151.513
-94.9197
-37.9969
19.2335
76.7463
134.516
192.517
250.727
309.123
367.687
426.399
485.242
544.199
603.253
662.386
721.582
780.826
840.101
899.39
958.68
1017.95
1077.2
1136.4
1195.54
1254.61
1313.59
1372.47
1431.24
1489.88
1548.39
1606.75
1664.94
1722.96
1780.8
1838.43
1895.87
1953.08
2010.07
2066.82
2123.32
2179.56
2235.51
2291.22
2346.59
2401.7
2456.34
2510.65
2564.61
2618.21
2671.47
2724.38
2776.94
2829.16
2881.03
2932.53
2983.64
3034.37
3084.7
3134.63
3184.17
3233.31
3282.06
3330.41
3378.37
3425.94
3473.12
3519.92
3566.33
3612.36
3658.02
3703.3
3748.22
3792.78
3836.98
3880.83
3924.34
3967.5
4010.33
4052.83
4095
4136.85
4178.37
4219.58
4260.47
4301.06
4341.34
4381.32
4421
4460.4
4499.5
4538.32
4576.85
4615.11
4653.1
4690.82
4728.29
4765.52
4802.54
4839.36
4875.99
4912.45
4948.76
4984.94
5020.97
5056.85
5092.58
5128.14
5163.54
5198.75
5233.76
5268.6
5303.27
5337.82
5372.25
5406.58
5440.8
5474.91
5508.86
5542.63
5576.21
5609.57
5642.71
5675.64
5708.38
5740.95
5773.38
5805.71
5837.94
5870.09
5902.14
5934.06
5965.84
5997.47
6028.93
6060.21
6091.34
6122.34
6153.2
6183.93
6214.52
6244.96
6275.25
6305.36
6335.3
6365.05
6394.6
6423.94
6453.07
6481.98
6510.65
6539.07
6567.24
6595.13
6622.75
6650.08
6677.11
6703.85
6730.27
6756.38
6782.16
6807.57
6832.57
6857.1
6881.08
6904.44
6927.11
6949.03
6970.18
6990.52
7010.05
7028.76
7046.67
7063.81
7080.21
7095.9
7110.89
7125.21
7138.87
7151.87
7164.24
7175.96
7187.07
7197.55
7207.41
7216.68
7225.35
7233.45
7240.98
7247.94
7254.27
7259.89
7264.52
7268.13
7270.54
7271.73
313.987
314.291
314.503
314.503
314.333
314.128
314.002
314.028
314.253
314.704
315.397
316.337
317.521
318.936
320.566
322.392
324.394
326.555
328.858
331.291
333.842
336.501
339.261
342.114
345.052
348.07
351.159
354.313
357.523
360.78
364.077
367.403
370.75
374.111
377.476
380.841
384.198
387.543
390.875
394.189
397.484
400.755
403.997
407.204
410.368
413.479
416.532
419.519
422.434
425.276
428.04
430.726
433.33
435.849
438.281
440.62
442.859
444.992
447.009
448.899
450.649
452.246
453.674
454.915
455.953
456.769
457.342
457.655
457.689
457.426
456.852
455.952
454.716
453.134
451.203
448.918
446.279
443.289
439.951
436.27
432.253
427.906
423.238
418.256
412.967
407.379
401.498
395.33
388.881
382.155
375.156
367.888
360.351
352.55
344.484
336.155
327.564
318.711
309.597
300.22
290.58
280.676
270.505
260.066
249.356
238.369
227.092
215.519
203.698
191.57
179.159
166.432
153.391
140.034
126.361
112.367
98.0484
83.3973
68.4048
53.0613
37.3573
21.2842
4.83372
-12.0014
-29.228
-46.8521
-64.8796
-83.3163
-102.168
-121.441
-141.141
-161.274
-181.846
-202.864
-224.337
-246.278
-268.699
-291.615
-315.046
-339.011
-363.51
-388.528
-414.065
-440.124
-466.685
-493.735
-521.111
-548.818
-576.572
-604.541
-632.783
-661.064
-689.332
-717.919
-747.088
-776.915
-807.293
-837.961
-868.772
-899.71
-930.817
-962.11
-993.569
-1025.16
-1056.84
-1088.57
-1120.33
-1152.09
-1183.81
-1215.48
-1247.09
-1278.62
-1310.07
-1341.41
-1372.61
-1403.66
-1434.53
-1465.2
-1495.65
-1525.86
-1555.81
-1585.48
-1614.85
-1643.91
-1672.63
-1701
-1729.02
-1756.65
-1783.88
-1810.71
-1837.11
-1863.07
-1888.58
-1913.63
-1938.2
-1962.27
-1985.84
-2008.88
-2031.4
-2053.36
-2074.77
-2095.6
-2115.84
-2135.5
-2154.54
-2172.97
-2190.77
-2207.93
-2224.44
-2240.3
-2255.5
-2270.03
-2283.88
-2297.05
-2309.52
-2321.3
-2332.35
-2342.76
-2352.43
-2361.39
-2369.63
-2377.15
-2383.96
-2390.04
-2395.4
-2400.03
-2403.95
-2407.14
-2409.61
-2411.35
-2412.37
-2412.66
-2412.22
-2411.05
-2409.14
-2406.49
-2403.09
-2398.95
-2394.05
-2388.39
-2381.97
-2374.77
-2366.8
-2358.04
-2348.48
-2338.11
-2326.91
-2314.87
-2301.98
-2288.24
-2273.64
-2258.18
-2241.85
-2224.64
-2206.51
-2187.44
-2167.41
-2146.42
-2124.48
-2101.61
-2077.82
-2053.13
-2027.54
-2001.05
-1973.64
-1945.29
-1915.98
-1885.67
-1854.31
-1821.97
-1788.74
-1754.69
-1719.77
-1683.99
-1647.35
-1609.83
-1571.45
-1532.21
-1492.13
-1451.22
-1409.48
-1366.94
-1323.6
-1279.49
-1234.63
-1189.05
-1142.75
-1095.77
-1048.12
-999.813
-950.874
-901.318
-851.16
-800.417
-749.101
-697.228
-644.81
-591.864
-538.411
-484.473
-430.072
-375.24
-320.016
-264.424
-208.481
-152.185
-95.553
-38.5983
18.6601
76.1999
133.998
192.029
250.272
308.705
367.306
426.057
484.939
543.935
603.026
662.197
721.43
780.709
840.019
899.342
958.665
1017.97
1077.25
1136.48
1195.65
1254.75
1313.76
1372.67
1431.47
1490.14
1548.67
1607.06
1665.28
1723.32
1781.18
1838.84
1896.3
1953.53
2010.53
2067.28
2123.76
2179.97
2235.89
2291.54
2346.87
2401.8
2456.47
2510.88
2564.93
2618.63
2671.96
2724.94
2777.56
2829.82
2881.71
2933.22
2984.34
3035.08
3085.41
3135.36
3184.9
3234.05
3282.81
3331.17
3379.14
3426.71
3473.9
3520.7
3567.11
3613.15
3658.8
3704.09
3749
3793.56
3837.75
3881.6
3925.09
3968.25
4011.06
4053.55
4095.7
4137.53
4179.04
4220.24
4261.12
4301.69
4341.95
4381.92
4421.59
4460.97
4500.06
4538.88
4577.41
4615.68
4653.67
4691.42
4728.91
4766.17
4803.22
4840.05
4876.68
4913.13
4949.41
4985.53
5021.5
5057.32
5092.99
5128.51
5163.86
5199.03
5234.03
5268.87
5303.56
5338.12
5372.57
5406.9
5441.12
5475.19
5509.11
5542.85
5576.39
5609.73
5642.87
5675.82
5708.58
5741.17
5773.63
5805.96
5838.2
5870.34
5902.37
5934.27
5966.03
5997.64
6029.08
6060.36
6091.5
6122.49
6153.35
6184.08
6214.68
6245.13
6275.42
6305.55
6335.5
6365.27
6394.84
6424.21
6453.36
6482.29
6510.98
6539.43
6567.63
6595.55
6623.19
6650.54
6677.58
6704.3
6730.7
6756.77
6782.51
6807.89
6832.88
6857.42
6881.42
6904.8
6927.5
6949.43
6970.58
6990.91
7010.42
7029.13
7047.06
7064.23
7080.67
7096.41
7111.47
7125.86
7139.6
7152.69
7165.14
7176.97
7188.17
7198.74
7208.68
7218
7226.72
7234.85
7242.42
7249.44
7255.88
7261.61
7266.42
7270.14
7272.6
7273.79
313.215
313.574
313.878
313.929
313.748
313.49
313.3
313.275
313.466
313.902
314.594
315.543
316.74
318.169
319.811
321.645
323.653
325.818
328.126
330.564
333.121
335.79
338.56
341.425
344.378
347.41
350.515
353.685
356.912
360.186
363.5
366.845
370.211
373.591
376.976
380.359
383.734
387.096
390.442
393.767
397.071
400.348
403.594
406.803
409.969
413.084
416.142
419.138
422.067
424.924
427.708
430.414
433.041
435.586
438.043
440.409
442.676
444.839
446.887
448.811
450.597
452.232
453.7
454.985
456.068
456.929
457.549
457.907
457.985
457.765
457.229
456.364
455.158
453.602
451.692
449.423
446.797
443.815
440.483
436.805
432.79
428.444
423.776
418.795
413.507
407.921
402.043
395.88
389.437
382.719
375.729
368.47
360.945
353.155
345.102
336.787
328.211
319.373
310.274
300.913
291.289
281.401
271.246
260.822
250.125
239.153
227.908
216.355
204.529
192.41
180.001
167.287
154.267
140.934
127.285
113.312
99.0072
84.3628
69.3706
54.0231
38.3132
22.2342
5.77941
-11.0576
-28.2836
-45.9057
-63.9308
-82.3663
-101.219
-120.497
-140.205
-160.351
-180.94
-201.979
-223.476
-245.443
-267.894
-290.853
-314.35
-338.408
-363.028
-388.182
-413.81
-439.836
-466.176
-492.764
-519.576
-546.815
-574.58
-602.721
-631.126
-659.704
-688.531
-717.71
-747.288
-777.251
-807.528
-838.037
-868.756
-899.692
-930.845
-962.192
-993.701
-1025.34
-1057.06
-1088.85
-1120.67
-1152.49
-1184.29
-1216.04
-1247.73
-1279.34
-1310.85
-1342.24
-1373.48
-1404.57
-1435.48
-1466.19
-1496.68
-1526.92
-1556.91
-1586.62
-1616.03
-1645.13
-1673.89
-1702.3
-1730.35
-1758.02
-1785.29
-1812.15
-1838.58
-1864.57
-1890.11
-1915.19
-1939.78
-1963.87
-1987.46
-2010.53
-2033.06
-2055.04
-2076.47
-2097.32
-2117.58
-2137.26
-2156.32
-2174.76
-2192.58
-2209.76
-2226.3
-2242.17
-2257.39
-2271.93
-2285.8
-2298.98
-2311.47
-2323.25
-2334.34
-2344.73
-2354.42
-2363.39
-2371.64
-2379.18
-2385.99
-2392.09
-2397.47
-2402.12
-2406.05
-2409.27
-2411.76
-2413.52
-2414.56
-2414.88
-2414.46
-2413.32
-2411.43
-2408.82
-2405.45
-2401.34
-2396.48
-2390.86
-2384.47
-2377.31
-2369.36
-2360.63
-2351.08
-2340.72
-2329.53
-2317.49
-2304.6
-2290.86
-2276.26
-2260.81
-2244.5
-2227.31
-2209.22
-2190.19
-2170.22
-2149.29
-2127.42
-2104.6
-2080.85
-2056.18
-2030.58
-2004.06
-1976.6
-1948.19
-1918.8
-1888.42
-1857.05
-1824.72
-1791.51
-1757.44
-1722.5
-1686.68
-1649.98
-1612.41
-1573.97
-1534.67
-1494.53
-1453.56
-1411.77
-1369.18
-1325.8
-1281.65
-1236.75
-1191.13
-1144.79
-1097.76
-1050.06
-1001.7
-952.712
-903.099
-852.883
-802.078
-750.701
-698.768
-646.294
-593.299
-539.801
-485.825
-431.392
-376.529
-321.262
-265.614
-209.602
-153.236
-96.5336
-39.5115
17.8106
75.411
133.267
191.356
249.655
308.143
366.8
425.605
484.541
543.589
602.732
661.953
721.235
780.563
839.919
899.288
958.655
1018.01
1077.32
1136.6
1195.81
1254.95
1314
1372.95
1431.79
1490.5
1549.07
1607.49
1665.74
1723.82
1781.72
1839.41
1896.89
1954.15
2011.18
2067.96
2124.48
2180.74
2236.72
2292.43
2347.84
2402.86
2457.69
2512.04
2566.05
2619.72
2673.04
2726
2778.61
2830.86
2882.74
2934.25
2985.37
3036.11
3086.46
3136.4
3185.96
3235.11
3283.87
3332.23
3380.2
3427.78
3474.96
3521.76
3568.17
3614.19
3659.84
3705.12
3750.03
3794.57
3838.76
3882.59
3926.07
3969.21
4012.01
4054.48
4096.62
4138.43
4179.92
4221.09
4261.95
4302.5
4342.75
4382.69
4422.35
4461.71
4500.8
4539.6
4578.13
4616.39
4654.39
4692.13
4729.64
4766.91
4803.97
4840.82
4877.47
4913.93
4950.22
4986.34
5022.31
5058.11
5093.75
5129.22
5164.52
5199.64
5234.59
5269.39
5304.04
5338.57
5372.98
5407.27
5441.44
5475.48
5509.36
5543.08
5576.6
5609.93
5643.07
5676.01
5708.77
5741.37
5773.83
5806.18
5838.43
5870.57
5902.61
5934.51
5966.28
5997.89
6029.34
6060.63
6091.78
6122.78
6153.64
6184.37
6214.97
6245.42
6275.73
6305.87
6335.83
6365.62
6395.22
6424.61
6453.79
6482.75
6511.48
6539.97
6568.2
6596.16
6623.84
6651.22
6678.28
6705.02
6731.42
6757.47
6783.17
6808.5
6833.43
6857.92
6881.88
6905.25
6927.94
6949.89
6971.04
6991.39
7010.93
7029.68
7047.65
7064.87
7081.38
7097.18
7112.31
7126.78
7140.61
7153.81
7166.38
7178.32
7189.63
7200.31
7210.34
7219.71
7228.43
7236.53
7244.07
7251.08
7257.55
7263.39
7268.36
7272.2
7274.75
7275.98
312.186
312.598
312.996
313.098
312.913
312.609
312.362
312.288
312.452
312.881
313.581
314.546
315.761
317.204
318.855
320.694
322.705
324.873
327.185
329.631
332.199
334.882
337.669
340.553
343.525
346.579
349.706
352.898
356.146
359.444
362.781
366.149
369.54
372.944
376.354
379.761
383.16
386.544
389.909
393.251
396.566
399.851
403.103
406.316
409.486
412.608
415.676
418.685
421.631
424.508
427.315
430.047
432.701
435.273
437.76
440.156
442.456
444.652
446.737
448.7
450.529
452.21
453.728
455.066
456.204
457.122
457.8
458.216
458.35
458.182
457.695
456.874
455.706
454.183
452.299
450.051
447.441
444.471
441.146
437.474
433.462
429.119
424.453
419.474
414.189
408.607
402.734
396.577
390.14
383.43
376.449
369.201
361.688
353.911
345.872
337.571
329.01
320.187
311.103
301.757
292.148
282.273
272.132
261.722
251.04
240.081
228.842
217.317
205.51
193.413
181.02
168.325
155.321
142.003
128.367
114.404
100.109
85.4746
70.4929
55.1562
39.4569
23.3873
6.94018
-9.89171
-27.1156
-44.7387
-62.7684
-81.2122
-100.078
-119.372
-139.101
-159.272
-179.892
-200.967
-222.507
-244.525
-267.038
-290.064
-313.623
-337.723
-362.351
-387.46
-412.987
-438.873
-465.097
-491.669
-518.632
-545.993
-573.694
-601.728
-630.143
-658.926
-688.025
-717.423
-747.126
-777.141
-807.448
-838.009
-868.799
-899.807
-931.021
-962.419
-993.974
-1025.65
-1057.43
-1089.27
-1121.15
-1153.03
-1184.91
-1216.74
-1248.51
-1280.19
-1311.78
-1343.24
-1374.55
-1405.71
-1436.68
-1467.44
-1497.98
-1528.28
-1558.32
-1588.08
-1617.53
-1646.68
-1675.48
-1703.94
-1732.03
-1759.74
-1787.05
-1813.95
-1840.42
-1866.45
-1892.03
-1917.13
-1941.76
-1965.89
-1989.5
-2012.6
-2035.16
-2057.17
-2078.62
-2099.5
-2119.79
-2139.49
-2158.57
-2177.04
-2194.88
-2212.08
-2228.64
-2244.54
-2259.77
-2274.33
-2288.21
-2301.4
-2313.91
-2325.71
-2336.81
-2347.22
-2356.91
-2365.89
-2374.16
-2381.71
-2388.54
-2394.66
-2400.05
-2404.73
-2408.68
-2411.92
-2414.43
-2416.22
-2417.29
-2417.63
-2417.25
-2416.14
-2414.29
-2411.71
-2408.38
-2404.31
-2399.49
-2393.91
-2387.57
-2380.45
-2372.54
-2363.84
-2354.34
-2344
-2332.84
-2320.83
-2307.97
-2294.25
-2279.68
-2264.25
-2247.95
-2230.78
-2212.7
-2193.71
-2173.79
-2152.92
-2131.1
-2108.34
-2084.62
-2059.97
-2034.37
-2007.83
-1980.33
-1951.87
-1922.44
-1892.04
-1860.66
-1828.34
-1795.1
-1760.97
-1725.96
-1690.07
-1653.3
-1615.65
-1577.14
-1537.78
-1497.58
-1456.55
-1414.7
-1372.04
-1328.6
-1284.4
-1239.44
-1193.76
-1147.36
-1100.27
-1052.51
-1004.09
-955.031
-905.35
-855.064
-804.188
-752.738
-700.73
-648.182
-595.112
-541.541
-487.49
-432.983
-378.045
-322.701
-266.975
-210.884
-154.443
-97.6692
-40.5787
16.8092
74.4737
132.393
190.545
248.909
307.461
366.183
425.053
484.054
543.166
602.372
661.655
720.998
780.385
839.799
899.225
958.648
1018.05
1077.43
1136.75
1196.01
1255.2
1314.3
1373.3
1432.19
1490.95
1549.56
1608.03
1666.33
1724.45
1782.38
1840.12
1897.64
1954.93
2011.99
2068.81
2125.36
2181.63
2237.63
2293.34
2348.73
2403.67
2458.43
2512.89
2566.98
2620.71
2674.09
2727.1
2779.75
2832.03
2883.94
2935.47
2986.61
3037.36
3087.71
3137.67
3187.23
3236.39
3285.16
3333.52
3381.49
3429.07
3476.25
3523.05
3569.46
3615.48
3661.12
3706.4
3751.3
3795.83
3840
3883.82
3927.29
3970.41
4013.2
4055.64
4097.76
4139.55
4181.02
4222.17
4263.01
4303.54
4343.77
4383.7
4423.33
4462.68
4501.75
4540.54
4579.06
4617.31
4655.31
4693.05
4730.56
4767.84
4804.9
4841.75
4878.4
4914.86
4951.14
4987.24
5023.18
5058.95
5094.55
5129.98
5165.25
5200.34
5235.28
5270.05
5304.69
5339.19
5373.56
5407.82
5441.94
5475.93
5509.76
5543.43
5576.92
5610.23
5643.36
5676.31
5709.09
5741.71
5774.19
5806.54
5838.79
5870.92
5902.94
5934.83
5966.59
5998.2
6029.66
6060.97
6092.13
6123.15
6154.04
6184.78
6215.39
6245.85
6276.16
6306.32
6336.3
6366.11
6395.73
6425.15
6454.36
6483.36
6512.13
6540.66
6568.93
6596.94
6624.67
6652.1
6679.21
6705.99
6732.41
6758.47
6784.16
6809.45
6834.33
6858.74
6882.64
6905.95
6928.6
6950.52
6971.67
6992.04
7011.62
7030.42
7048.46
7065.75
7082.32
7098.19
7113.4
7127.96
7141.89
7155.2
7167.9
7179.98
7191.44
7202.26
7212.41
7221.88
7230.66
7238.77
7246.24
7253.14
7259.51
7265.3
7270.33
7274.29
7276.93
7278.21
310.872
311.328
311.806
311.942
311.749
311.411
311.129
311.035
311.195
311.634
312.353
313.34
314.573
316.03
317.69
319.535
321.551
323.725
326.046
328.505
331.089
333.791
336.6
339.509
342.507
345.588
348.743
351.963
355.24
358.566
361.931
365.328
368.747
372.179
375.617
379.052
382.477
385.886
389.274
392.637
395.971
399.273
402.539
405.766
408.95
412.085
415.169
418.194
421.159
424.058
426.888
429.645
432.325
434.927
437.444
439.873
442.209
444.444
446.57
448.578
450.457
452.192
453.768
455.166
456.369
457.353
458.098
458.581
458.781
458.675
458.246
457.476
456.354
454.87
453.018
450.796
448.205
445.249
441.935
438.27
434.264
429.925
425.263
420.289
415.009
409.434
403.569
397.422
390.997
384.299
377.333
370.1
362.603
354.843
346.822
338.54
329.998
321.194
312.13
302.802
293.212
283.356
273.233
262.841
252.176
241.235
230.012
218.504
206.711
194.628
182.25
169.569
156.581
143.279
129.658
115.71
101.429
86.808
71.8384
56.5126
40.823
24.7621
8.32252
-8.50331
-25.7229
-43.3442
-61.3751
-79.8239
-98.6989
-118.008
-137.759
-157.959
-178.615
-199.736
-221.329
-243.405
-265.976
-289.054
-312.644
-336.744
-361.333
-386.374
-411.827
-437.662
-463.869
-490.452
-517.42
-544.786
-572.564
-600.755
-629.339
-658.264
-687.488
-717.004
-746.815
-776.918
-807.294
-837.918
-868.776
-899.859
-931.151
-962.628
-994.261
-1026.02
-1057.88
-1089.8
-1121.76
-1153.73
-1185.7
-1217.62
-1249.48
-1281.25
-1312.92
-1344.46
-1375.86
-1407.08
-1438.12
-1468.96
-1499.57
-1529.93
-1560.03
-1589.84
-1619.36
-1648.56
-1677.42
-1705.93
-1734.07
-1761.83
-1789.19
-1816.14
-1842.65
-1868.73
-1894.34
-1919.49
-1944.15
-1968.32
-1991.97
-2015.1
-2037.7
-2059.74
-2081.22
-2102.13
-2122.45
-2142.18
-2161.29
-2179.79
-2197.65
-2214.88
-2231.45
-2247.37
-2262.63
-2277.21
-2291.11
-2304.32
-2316.84
-2328.66
-2339.78
-2350.2
-2359.91
-2368.9
-2377.19
-2384.76
-2391.61
-2397.74
-2403.16
-2407.86
-2411.84
-2415.1
-2417.64
-2419.46
-2420.56
-2420.93
-2420.58
-2419.51
-2417.7
-2415.16
-2411.88
-2407.86
-2403.08
-2397.55
-2391.26
-2384.19
-2376.33
-2367.68
-2358.22
-2347.93
-2336.81
-2324.85
-2312.03
-2298.36
-2283.83
-2268.44
-2252.18
-2235.03
-2216.99
-2198.03
-2178.14
-2157.31
-2135.52
-2112.78
-2089.08
-2064.43
-2038.82
-2012.26
-1984.74
-1956.25
-1926.78
-1896.34
-1864.94
-1832.59
-1799.31
-1765.14
-1730.07
-1694.11
-1657.27
-1619.56
-1580.97
-1541.54
-1501.26
-1460.15
-1418.22
-1375.49
-1331.98
-1287.7
-1242.67
-1196.91
-1150.44
-1103.28
-1055.44
-1006.94
-957.806
-908.044
-857.675
-806.716
-755.183
-703.093
-650.464
-597.315
-543.666
-489.539
-434.956
-379.94
-324.514
-268.7
-212.516
-155.98
-99.1098
-41.9245
15.5562
73.3113
131.319
189.558
248.007
306.643
365.447
424.398
483.478
542.668
601.95
661.307
720.723
780.18
839.664
899.158
958.648
1018.12
1077.55
1136.94
1196.27
1255.52
1314.68
1373.74
1432.68
1491.49
1550.16
1608.68
1667.03
1725.21
1783.19
1840.97
1898.54
1955.88
2012.98
2069.84
2126.43
2182.75
2238.79
2294.56
2350.09
2405.19
2459.9
2514.33
2568.43
2622.19
2675.59
2728.62
2781.29
2833.58
2885.5
2937.04
2988.19
3038.95
3089.31
3139.28
3188.84
3238.01
3286.77
3335.14
3383.11
3430.68
3477.86
3524.65
3571.04
3617.06
3662.69
3707.95
3752.83
3797.35
3841.5
3885.3
3928.75
3971.85
4014.61
4057.04
4099.13
4140.89
4182.34
4223.46
4264.27
4304.78
4344.98
4384.89
4424.51
4463.83
4502.88
4541.66
4580.16
4618.4
4656.39
4694.13
4731.63
4768.9
4805.96
4842.8
4879.44
4915.89
4952.16
4988.24
5024.16
5059.9
5095.47
5130.88
5166.12
5201.19
5236.1
5270.85
5305.45
5339.92
5374.25
5408.45
5442.52
5476.45
5510.24
5543.86
5577.32
5610.61
5643.73
5676.67
5709.45
5742.08
5774.57
5806.94
5839.18
5871.31
5903.32
5935.2
5966.95
5998.57
6030.04
6061.36
6092.55
6123.59
6154.49
6185.25
6215.88
6246.35
6276.68
6306.85
6336.85
6366.68
6396.33
6425.78
6455.03
6484.07
6512.88
6541.46
6569.78
6597.85
6625.63
6653.12
6680.29
6707.12
6733.6
6759.7
6785.4
6810.68
6835.52
6859.88
6883.71
6906.95
6929.54
6951.44
6972.6
6992.99
7012.62
7031.47
7049.57
7066.92
7083.55
7099.49
7114.76
7129.41
7143.44
7156.87
7169.71
7181.95
7193.58
7204.57
7214.89
7224.51
7233.41
7241.58
7249.04
7255.85
7262.07
7267.71
7272.65
7276.61
7279.29
7280.6
309.258
309.747
310.282
310.43
310.216
309.853
309.562
309.482
309.672
310.146
310.9
311.915
313.17
314.643
316.315
318.17
320.197
322.384
324.721
327.197
329.804
332.53
335.367
338.304
341.334
344.446
347.634
350.887
354.197
357.556
360.955
364.385