/*--------------------------------*- C++ -*----------------------------------*\
| =========                 |                                                 |
| \\      /  F ield         | OpenFOAM: The Open Source CFD Toolbox           |
|  \\    /   O peration     | Version:  v2006                                 |
|   \\  /    A nd           | Website:  www.openfoam.com                      |
|    \\/     M anipulation  |                                                 |
\*---------------------------------------------------------------------------*/
FoamFile
{
    version     2.0;
    format      ascii;
    class       surfaceScalarField;
    location    "19";
    object      phi;
}
// * * * * * * * * * * * * * * * * * * * * * * * * * * * * * * * * * * * * * //

dimensions      [0 3 -1 0 0 0 0];
oriented        oriented;


internalField   nonuniform List<scalar> 
299200
(
0.000550627
-0.000550627
0.00147472
-0.000924091
0.00245786
-0.000983138
0.00339426
-0.000936402
0.00427461
-0.00088035
0.00510764
-0.00083303
0.00589643
-0.000788793
0.00664161
-0.000745182
0.00734509
-0.000703473
0.00801081
-0.000665728
0.00864441
-0.000633592
0.00925253
-0.000608123
0.00984213
-0.0005896
0.0104199
-0.000577804
0.010992
-0.000572064
0.0115633
-0.000571331
0.0121378
-0.000574478
0.0127182
-0.000580392
0.0133063
-0.000588059
0.0139029
-0.000596632
0.0145083
-0.000605401
0.0151221
-0.000613845
0.0157438
-0.00062167
0.0163726
-0.000628766
0.0170077
-0.000635161
0.0176487
-0.00064096
0.018295
-0.000646295
0.0189463
-0.000651288
0.0196023
-0.00065603
0.0202629
-0.000660572
0.0209278
-0.000664903
0.0215967
-0.000668945
0.0222693
-0.000672545
0.0229448
-0.000675503
0.0236224
-0.000677613
0.0243011
-0.000678714
0.0249798
-0.000678734
0.0256576
-0.00067776
0.0263337
-0.000676144
0.0270082
-0.000674469
0.0276816
-0.000673358
0.0283548
-0.000673227
0.0290289
-0.00067406
0.0297042
-0.000675352
0.0303804
-0.000676237
0.0310562
-0.000675777
0.0317295
-0.000673289
0.0323981
-0.000668582
0.0330601
-0.000661999
0.0337144
-0.00065429
0.0343608
-0.000646381
0.0349999
-0.00063915
0.0356332
-0.000633242
0.0362621
-0.000628965
0.0368884
-0.000626289
0.0375133
-0.000624941
0.0381379
-0.000624532
0.0387625
-0.000624659
0.0393875
-0.000625006
0.0400129
-0.000625383
0.0406387
-0.000625741
0.0412648
-0.000626149
0.0418916
-0.000626739
0.0425192
-0.00062763
0.0431481
-0.000628865
0.0437784
-0.000630369
0.0444104
-0.000631939
0.0450436
-0.000633267
0.0456776
-0.000633968
0.0463112
-0.000633629
0.0469431
-0.000631849
0.0475714
-0.000628296
0.0481941
-0.000622736
0.0488092
-0.000615056
0.0494144
-0.000605266
0.0500079
-0.000593478
0.0505878
-0.00057989
0.0511526
-0.000564766
0.051701
-0.00054842
0.0522322
-0.000531206
0.0527457
-0.000513494
0.0532413
-0.000495638
0.0537193
-0.00047794
0.0541799
-0.000460623
0.0546237
-0.000443807
0.0550512
-0.000427503
0.0554628
-0.000411623
0.0558588
-0.000396
0.0562392
-0.000380434
0.056604
-0.000364724
0.0569527
-0.000348708
0.0572849
-0.000332259
0.0576002
-0.000315285
0.0578979
-0.000297716
0.0581774
-0.00027949
0.058438
-0.00026056
0.0586789
-0.000240886
0.0588993
-0.000220429
0.0590984
-0.00019914
0.0592754
-0.000176942
0.0594291
-0.000153743
0.0595586
-0.000129515
0.0596631
-0.000104451
0.0597422
-7.91375e-05
0.0597968
-5.45852e-05
0.0598288
-3.20189e-05
0.0598415
-1.26547e-05
0.0598377
3.8046e-06
0.0598189
1.87486e-05
0.0597854
3.35344e-05
0.0597351
5.03016e-05
0.0596646
7.04947e-05
0.0595692
9.54011e-05
0.0594437
0.00012555
0.0592828
0.000160827
0.0590826
0.000200243
0.0588407
0.000241928
0.0585573
0.000283348
0.0582355
0.000321783
0.0578806
0.000354947
0.0574991
0.00038153
0.0570976
0.000401408
0.0566822
0.000415436
0.0562573
0.00042494
0.0558261
0.000431193
0.055391
0.000435094
0.0549538
0.000437151
0.0545163
0.000437514
0.0540802
0.000436153
0.053647
0.000433159
0.0532179
0.000429108
0.0527924
0.000425541
0.0523673
0.000425013
0.0519376
0.000429789
0.0514947
0.000442886
0.0510273
0.000467362
0.0505232
0.000504073
0.0499749
0.000548342
0.0493889
0.000586008
0.0487927
0.000596224
0.0482305
0.000562119
0.0477633
0.00046722
0.0474417
0.000321597
0.0472756
0.000166122
0.0472386
3.70189e-05
0.0473271
-8.85127e-05
0.0474093
-8.22332e-05
0.0470034
0.000405972
0.0456044
0.00139895
0.0432883
0.00231611
0.0407882
0.00250008
0.0388659
0.00192234
0.0378705
0.000995395
0.0375699
0.000300602
0.0375063
6.35578e-05
0.0373628
0.000143553
0.037028
0.000334722
0.0365592
0.000468826
0.0360444
0.000514816
0.0355442
0.000500251
0.0350861
0.000458097
0.0346744
0.000411688
0.0342964
0.000377985
0.0339277
0.000368664
0.0335436
0.000384157
0.0331167
0.000426867
0.0326224
0.0004943
0.032046
0.00057636
0.0313895
0.000656538
0.0306725
0.000716962
0.0299266
0.000745928
0.0291784
0.000748179
0.0284489
0.000729516
0.0277495
0.000699424
0.0270829
0.00066659
0.026447
0.000635949
0.0258377
0.000609249
0.0252511
0.000586631
0.0246831
0.000567976
0.0241297
0.000553375
0.0235867
0.000542985
0.02305
0.000536779
0.0225156
0.000534405
0.0219804
0.000535162
0.0214423
0.00053805
0.0209005
0.000541862
0.0203551
0.000545357
0.0198077
0.000547468
0.0192602
0.000547435
0.0187154
0.000544844
0.0181758
0.000539586
0.017644
0.000531815
0.0171222
0.000521799
0.0166123
0.000509856
0.016116
0.000496279
0.0156348
0.000481283
0.0151697
0.000465023
0.0147221
0.000447619
0.014293
0.000429104
0.0138835
0.000409552
0.0134945
0.000388961
0.0131271
0.000367349
0.0127824
0.000344738
0.0124613
0.000321155
0.0121646
0.000296695
0.0118931
0.000271458
0.0116475
0.000245581
0.0114283
0.000219215
0.0112358
0.000192477
0.0110702
0.000165638
0.0109313
0.000138906
0.0108189
0.000112356
0.0107326
8.63665e-05
0.0106716
6.09258e-05
0.0106353
3.6333e-05
0.0106228
1.25344e-05
0.0106331
-1.03269e-05
0.010666
-3.28834e-05
0.0107207
-5.47273e-05
0.0107966
-7.5934e-05
0.0108935
-9.69007e-05
0.0110117
-0.000118148
0.0111519
-0.000140231
0.0113156
-0.000163657
0.0115044
-0.000188802
0.0117202
-0.00021584
0.0119649
-0.000244688
0.0122399
-0.000274993
0.012546
-0.00030615
0.0128834
-0.000337359
0.0132511
-0.000367711
0.0136474
-0.000396318
0.0140699
-0.000422438
0.0145155
-0.000445603
0.0149812
-0.000465711
0.0154642
-0.00048305
0.0159625
-0.000498248
0.0164746
-0.00051211
0.017
-0.000525361
0.0175383
-0.000538338
0.018089
-0.000550708
0.0186504
-0.000561366
0.019219
-0.000568651
0.01979
-0.000570948
0.0203575
-0.000567552
0.020917
-0.00055944
0.0214664
-0.000549481
0.0220081
-0.000541628
0.0225472
-0.000539109
0.0230895
-0.000542336
0.0236374
-0.000547927
0.0241877
-0.000550307
0.0247323
-0.000544553
0.0252596
-0.000527297
0.0257621
-0.000502488
0.026241
-0.00047893
0.0267085
-0.000467476
0.0271861
-0.000477646
0.0277035
-0.000517351
0.0282895
-0.000586054
0.0289641
-0.000674547
0.0297307
-0.000766574
0.0305716
-0.000840985
0.0314459
-0.000874261
0.0322866
-0.000840655
0.0329922
-0.000705667
0.0334023
-0.000410035
0.0333715
3.07438e-05
0.0329099
0.000461628
0.0322711
0.000638821
0.0316487
0.000622385
0.0311207
0.000527939
0.0306981
0.000422613
0.0303699
0.000328274
0.0301236
0.000246213
0.029948
0.000175647
0.0298343
0.000113705
0.0297797
5.46075e-05
0.0297883
-8.61634e-06
0.0298645
-7.62407e-05
0.0300049
-0.000140315
0.0302008
-0.000195896
0.0304415
-0.000240758
0.0307162
-0.000274683
0.0310146
-0.00029842
0.0313279
-0.00031328
0.0316486
-0.000320713
0.0319707
-0.000322114
0.0322894
-0.000318708
0.0326009
-0.000311502
0.0329022
-0.000301298
0.033191
-0.000288757
0.0334655
-0.000274496
0.0337247
-0.000259199
0.0339684
-0.000243692
0.0341973
-0.000228924
0.0344131
-0.000215809
0.0346181
-0.000204947
0.0348146
-0.000196539
0.0350054
-0.000190763
0.0351915
-0.000186147
0.0353713
-0.000179812
0.0355453
-0.000173955
0.0357166
-0.000171294
0.0358907
-0.000174103
0.0360747
-0.000183998
0.0362752
-0.000200547
0.036496
-0.000220817
0.0367368
-0.000240764
0.0369934
-0.000256601
0.0372594
-0.000266039
0.0375281
-0.0002687
0.0377939
-0.000265767
0.0380532
-0.00025925
0.0383044
-0.000251228
0.0385477
-0.00024333
0.0387842
-0.000236512
0.0390153
-0.000231093
0.0392423
-0.000226932
0.0394659
-0.000223652
0.0396867
-0.000220823
0.0399048
-0.000218079
0.04012
-0.000215161
0.0403319
-0.000211923
0.0405402
-0.000208297
0.0407444
-0.000204265
0.0409443
-0.000199834
0.0411393
-0.000195017
0.0413291
-0.000189828
0.0415134
-0.000184278
0.0416918
-0.000178377
0.0418639
-0.000172138
0.0420295
-0.000165574
0.0421882
-0.000158702
0.0423397
-0.000151543
0.0424838
-0.000144111
0.0426203
-0.000136417
0.0427487
-0.000128433
0.0428687
-0.000120032
0.0429798
-0.000111048
0.0430809
-0.00010116
0.0431697
-8.87608e-05
0.0432392
-6.94632e-05
0.0432772
-3.80537e-05
0.0432744
2.86107e-06
0.0432248
4.95968e-05
0.0431305
9.42834e-05
0.0429877
0.000142762
0.042789
0.000198707
0.0425275
0.00026154
0.0422013
0.000326134
0.0418161
0.000385256
0.041385
0.00043107
0.0409273
0.000457738
0.0404628
0.000464444
0.0400064
0.000456436
0.0395635
0.000442842
0.0391312
0.000432375
0.0387006
0.00043059
0.0382624
0.000438136
0.0378109
0.000451562
0.0373452
0.000465716
0.0368687
0.000476489
0.0363864
0.000482281
0.0359026
0.000483797
0.0354198
0.000482789
0.0349391
0.000480762
0.0344607
0.000478376
0.0339851
0.000475542
0.0335133
0.000471843
0.0330464
0.000466924
0.0325857
0.000460646
0.0321327
0.000453053
0.0316884
0.000444257
0.031254
0.000434373
0.0308305
0.000423501
0.0304188
0.000411761
0.0300194
0.000399327
0.029633
0.000386452
0.0292595
0.000373465
0.0288988
0.000360759
0.02855
0.000348763
0.0282121
0.0003379
0.0278836
0.000328543
0.0275626
0.000320961
0.0272473
0.000315276
0.0269359
0.000311445
0.0266266
0.000309269
0.0263182
0.000308442
0.0260095
0.000308642
0.0256999
0.000309637
0.0253885
0.000311371
0.0250745
0.000313984
0.0247568
0.000317732
0.024434
0.00032278
0.0241051
0.000328929
0.0237697
0.000335366
0.0234291
0.000340585
0.0230866
0.000342555
0.0227475
0.000339134
0.0224189
0.000328561
0.022109
0.000309887
0.0218259
0.000283087
0.0215773
0.000248641
0.0213708
0.00020653
0.0212139
0.000156851
0.0211137
0.000100236
0.0210758
3.78218e-05
0.0210997
-2.38561e-05
0.0211759
-7.61786e-05
0.0212923
-0.000116415
0.0214315
-0.000139243
0.021577
-0.000145429
0.021715
-0.000138056
0.0218398
-0.000124756
0.0219551
-0.000115335
0.0220731
-0.000117984
0.022209
-0.000135916
0.0223757
-0.000166701
0.0225798
-0.000204086
0.0228202
-0.000240354
0.0230886
-0.000268446
0.0233726
-0.000283955
0.0236562
-0.000283677
0.0239219
-0.000265679
0.0241528
-0.000230866
0.0243364
-0.000183667
0.024467
-0.000130578
0.0245482
-8.11764e-05
0.0245934
-4.5196e-05
0.024621
-2.75993e-05
0.0246475
-2.65377e-05
0.0246821
-3.46118e-05
0.024725
-4.28429e-05
0.0247696
-4.45878e-05
0.0248059
-3.63429e-05
0.0248229
-1.70331e-05
0.0248124
1.05492e-05
0.0247708
4.16195e-05
0.0246991
7.17262e-05
0.0245983
0.000100781
0.0244697
0.000128608
0.024314
0.000155646
0.0241318
0.000182195
0.0239235
0.000208338
0.0236894
0.000234063
0.0234302
0.000259268
0.0231464
0.000283765
0.0228391
0.000307307
0.0225095
0.000329606
0.0221591
0.000350375
0.0217897
0.000369354
0.0214034
0.000386344
0.0210022
0.000401247
0.0205881
0.000414017
0.0201639
0.000424205
0.019733
0.000430905
0.0193002
0.000432797
0.0188717
0.000428575
0.018454
0.000417609
0.0180536
0.000400428
0.0176749
0.000378727
0.01732
0.00035491
0.0169884
0.000331571
0.0166771
0.000311328
0.0163801
0.000297026
0.0160881
0.000291932
0.0157887
0.000299472
0.0154661
0.000322545
0.0151032
0.00036291
0.0146821
0.000421065
0.0141854
0.000496785
0.0135952
0.000590121
0.0128931
0.000702099
0.0120613
0.000831792
0.0110913
0.000969999
0.00999365
0.00109769
0.00880559
0.00118806
0.00757842
0.00122717
0.00635479
0.00122363
0.00515691
0.00119788
0.00399247
0.00116444
0.0028672
0.00112527
0.00179157
0.00107563
0.000779836
0.00101173
-0.00015364
0.000933476
-0.00099682
0.00084318
-0.00173978
0.000742963
-0.00237367
0.000633889
-0.00288924
0.000515568
-0.00327839
0.000389149
-0.00352469
0.000246299
-0.0035921
6.74107e-05
-0.0034468
-0.000145297
-0.00307869
-0.000368112
-0.00252062
-0.000558076
-0.0018384
-0.000682216
-0.00113475
-0.00070365
-0.000510075
-0.000624674
-0.000510075
0.000406755
-0.000957381
0.00119322
-0.00171056
0.00199289
-0.00178281
0.00269764
-0.00164115
0.00330692
-0.00148963
0.00383453
-0.00136065
0.0042846
-0.00123886
0.00465895
-0.00111953
0.00496589
-0.00101042
0.0052208
-0.000920635
0.0054434
-0.000856189
0.00565479
-0.00081952
0.00587476
-0.000809563
0.00611964
-0.000822685
0.00640061
-0.000853037
0.00672315
-0.000893873
0.00708767
-0.000938995
0.00749078
-0.000983502
0.00792697
-0.00102425
0.00839
-0.00105967
0.00887414
-0.00108954
0.00937481
-0.00111451
0.00988885
-0.00113571
0.0104145
-0.0011544
0.010951
-0.00117172
0.0114985
-0.00118847
0.0120573
-0.00120501
0.0126272
-0.00122119
0.0132076
-0.00123645
0.013797
-0.00124997
0.0143928
-0.00126077
0.0149918
-0.00126794
0.0155901
-0.00127077
0.0161835
-0.00126896
0.0167688
-0.00126293
0.017344
-0.00125389
0.0179093
-0.00124397
0.0184674
-0.00123593
0.019024
-0.00123275
0.0195864
-0.00123685
0.0201624
-0.0012493
0.0207584
-0.00126929
0.0213785
-0.00129415
0.0220231
-0.00131993
0.0226892
-0.00134236
0.0233714
-0.00135794
0.0240627
-0.00136465
0.0247564
-0.00136229
0.0254467
-0.00135227
0.0261295
-0.00133704
0.0268026
-0.00131948
0.0274657
-0.00130224
0.0281198
-0.00128743
0.0287672
-0.0012763
0.0294102
-0.00126933
0.0300516
-0.00126627
0.0306935
-0.00126643
0.0313377
-0.00126888
0.0319854
-0.00127272
0.0326372
-0.00127717
0.0332931
-0.00128168
0.0339529
-0.00128595
0.034616
-0.00128981
0.0352815
-0.00129319
0.0359487
-0.00129599
0.0366163
-0.00129802
0.0372834
-0.00129899
0.0379486
-0.00129855
0.0386109
-0.00129624
0.0392689
-0.00129164
0.0399214
-0.00128432
0.0405671
-0.00127395
0.0412046
-0.00126028
0.0418327
-0.00124321
0.0424502
-0.00122276
0.0430558
-0.00119906
0.0436483
-0.00117232
0.0442263
-0.00114283
0.0447889
-0.001111
0.045335
-0.00107732
0.0458639
-0.0010424
0.0463752
-0.0010069
0.0468687
-0.000971473
0.0473448
-0.000936695
0.047804
-0.000902988
0.048247
-0.000870558
0.0486748
-0.000839364
0.0490879
-0.000809127
0.0494868
-0.000779381
0.0498717
-0.000749568
0.0502421
-0.000719148
0.0505975
-0.000687688
0.0509372
-0.00065492
0.0512602
-0.000620746
0.0515659
-0.000585221
0.0518539
-0.000548508
0.0521238
-0.000510826
0.0523758
-0.000472399
0.0526101
-0.00043341
0.0528271
-0.000393974
0.0530275
-0.000354133
0.0532119
-0.000313897
0.0533807
-0.000273298
0.0535341
-0.000232497
0.0536714
-0.000191884
0.0537915
-0.000152132
0.053893
-0.000114183
0.0539752
-7.83325e-05
0.0540383
-4.43528e-05
0.0540843
-1.24894e-05
0.0541216
1.29992e-05
0.0541554
3.66411e-05
0.0541907
6.01632e-05
0.0542306
8.56667e-05
0.0542751
0.000116279
0.0543199
0.000155459
0.0543556
0.000206225
0.0543687
0.000270252
0.0543434
0.000347108
0.0542644
0.000433899
0.0541204
0.000525579
0.0539059
0.000615899
0.0536226
0.000698704
0.0532784
0.000769153
0.0528851
0.000824464
0.0524562
0.000864033
0.0520043
0.000889089
0.0515396
0.000902119
0.0510697
0.000906122
0.0505989
0.000903908
0.0501306
0.000897472
0.0496682
0.000887862
0.0492172
0.000876059
0.0487822
0.000864781
0.0483657
0.000859436
0.0479647
0.000868309
0.0475662
0.000902602
0.0471377
0.000976801
0.0466173
0.0011064
0.0459214
0.00129211
0.0449915
0.00149201
0.0438255
0.00163326
0.0425211
0.00162601
0.0412796
0.00140758
0.0403524
0.000964203
0.0399567
0.000307206
0.0403625
-0.000487995
0.0417965
-0.00102801
0.0438591
-0.000663635
0.0455804
0.000594818
0.0461028
0.00197768
0.0453217
0.00270339
0.0435284
0.00278871
0.0411515
0.00267746
0.0385704
0.00264465
0.0360951
0.0026189
0.0339516
0.00247824
0.0322244
0.00219603
0.0308832
0.00185599
0.0298323
0.00155115
0.0289769
0.0013135
0.0282523
0.00113633
0.0276284
0.0010018
0.0270964
0.000900759
0.0266452
0.000835356
0.0262627
0.000809351
0.0259287
0.000828223
0.0256107
0.000894414
0.0252654
0.00100187
0.0248478
0.00113456
0.0243291
0.00126462
0.0237136
0.00136366
0.023022
0.00142113
0.0222846
0.0014368
0.0215329
0.00141832
0.0207925
0.00137628
0.0200808
0.00132097
0.0194067
0.00126075
0.0187729
0.00120176
0.0181781
0.00114822
0.0176183
0.00110279
0.0170882
0.00106686
0.0165819
0.00104073
0.0160931
0.00102397
0.0156156
0.00101547
0.0151439
0.00101363
0.0146728
0.00101639
0.0141988
0.00102153
0.0137193
0.00102688
0.0132336
0.00103056
0.0127422
0.00103104
0.0122468
0.00102719
0.0117503
0.00101832
0.0112561
0.00100401
0.0107683
0.000984125
0.0102909
0.000958708
0.00982791
0.000927973
0.00938332
0.000892206
0.00896051
0.000851909
0.00856255
0.00080752
0.0081917
0.000759807
0.00784984
0.00070921
0.00753804
0.000656533
0.00725668
0.00060252
0.0070055
0.000547874
0.00678384
0.000493115
0.0065905
0.000438924
0.00642365
0.000386067
0.0062814
0.000334719
0.00616189
0.000285156
0.00606294
0.000237852
0.00598258
0.000192722
0.00591931
0.000149631
0.0058722
0.000108038
0.00584063
6.79033e-05
0.00582522
2.79414e-05
0.00582513
-1.02346e-05
0.00584246
-5.02087e-05
0.00587956
-9.18321e-05
0.00593954
-0.000135916
0.00602582
-0.000183175
0.00614168
-0.000234014
0.0062899
-0.000288449
0.00647233
-0.000346083
0.00668966
-0.000406134
0.00694135
-0.000467534
0.00722571
-0.00052905
0.00754015
-0.000589431
0.00788153
-0.000647528
0.00824655
-0.000702383
0.00863215
-0.00075331
0.00903581
-0.00079997
0.0094558
-0.000842433
0.00989141
-0.000881215
0.010343
-0.000917255
0.0108117
-0.000951799
0.0112996
-0.000986134
0.0118087
-0.00102119
0.0123403
-0.00105701
0.0128943
-0.00109228
0.0134675
-0.00112398
0.0140536
-0.00114744
0.014642
-0.00115708
0.0152189
-0.00114781
0.0157684
-0.00111702
0.0162753
-0.00106634
0.0167279
-0.00100216
0.0171203
-0.000933983
0.0174519
-0.000870663
0.017726
-0.000816455
0.0179478
-0.000769752
0.0181247
-0.00072717
0.0182689
-0.000688747
0.0184032
-0.000661604
0.0185605
-0.000659829
0.0187801
-0.000698566
0.0190997
-0.000787054
0.0195457
-0.000923612
0.0201239
-0.00109554
0.0208201
-0.00128224
0.021607
-0.0014615
0.0224549
-0.00161452
0.0233413
-0.00172731
0.0242573
-0.00179031
0.0252134
-0.00179677
0.0262479
-0.0017401
0.0274501
-0.00161223
0.0288803
-0.00139945
0.0304512
-0.00110933
0.0319206
-0.000830531
0.0331793
-0.000636349
0.0342406
-0.000533402
0.0351452
-0.000481986
0.0359293
-0.000455809
0.036618
-0.0004425
0.037232
-0.000438313
0.0377887
-0.000442961
0.0382992
-0.000455959
0.0387649
-0.000474309
0.0391823
-0.000493603
0.0395533
-0.000511369
0.0398841
-0.000526668
0.0401822
-0.000538836
0.0404552
-0.000547741
0.0407104
-0.00055362
0.040954
-0.000556841
0.041191
-0.000557698
0.0414252
-0.000556287
0.0416589
-0.00055241
0.0418928
-0.000545474
0.0421259
-0.000534378
0.0423546
-0.000517412
0.0425723
-0.000492207
0.0427689
-0.000455845
0.0429305
-0.00040526
0.0430397
-0.00033808
0.0430778
-0.000253921
0.0430287
-0.000155853
0.0428831
-5.09997e-05
0.0426488
4.35803e-05
0.0423483
0.000114309
0.0420221
0.000146453
0.0417184
0.000129759
0.0414817
6.53963e-05
0.0413419
-3.43599e-05
0.041315
-0.000157082
0.0413998
-0.000285319
0.041581
-0.000402064
0.0418365
-0.000496218
0.0421428
-0.000562922
0.0424794
-0.000602613
0.04283
-0.000619308
0.043183
-0.000618803
0.0435309
-0.000607155
0.0438693
-0.000589646
0.0441963
-0.000570243
0.0445112
-0.000551492
0.0448148
-0.000534687
0.0451081
-0.000520188
0.0453922
-0.000507768
0.0456683
-0.000496909
0.0459372
-0.000487022
0.0461996
-0.000477574
0.0464559
-0.000468138
0.046706
-0.000458407
0.0469499
-0.000448171
0.0471873
-0.000437295
0.047418
-0.000425698
0.0476415
-0.000413329
0.0478574
-0.000400161
0.0480652
-0.000386174
0.0482644
-0.000371352
0.0484545
-0.000355674
0.0486349
-0.000339118
0.048805
-0.00032165
0.0489642
-0.000303232
0.0491116
-0.000283817
0.0492465
-0.000263338
0.0493681
-0.000241712
0.0494759
-0.000218841
0.0495693
-0.000194522
0.0496489
-0.000168365
0.0497195
-0.000140105
0.0497917
-0.00011026
0.0498744
-7.97736e-05
0.0499712
-4.72617e-05
0.050077
-1.14795e-05
0.0501982
2.15355e-05
0.05034
5.69095e-05
0.0505061
9.54683e-05
0.050697
0.000135186
0.0509082
0.000174089
0.0511295
0.000209745
0.0513476
0.00023965
0.0515495
0.000262615
0.0517266
0.00027931
0.0518775
0.000291878
0.052007
0.000302945
0.0521228
0.000314789
0.0522328
0.000328141
0.0523422
0.000342116
0.0524529
0.000355064
0.0525636
0.000365713
0.0526721
0.000373828
0.0527757
0.000380165
0.0528727
0.000385836
0.0529618
0.000391629
0.0530425
0.00039771
0.0531143
0.000403721
0.053177
0.000409104
0.0532306
0.000413398
0.0532748
0.000416375
0.0533099
0.000418022
0.0533357
0.000418441
0.0533523
0.000417768
0.0533597
0.000416136
0.0533577
0.000413682
0.0533465
0.000410578
0.0533259
0.000407046
0.053296
0.00040337
0.0532569
0.000399886
0.0532087
0.000396954
0.0531516
0.000394932
0.053086
0.000394128
0.0530122
0.000394763
0.0529306
0.000396949
0.0528413
0.000400671
0.0527448
0.000405819
0.052641
0.000412232
0.0525299
0.000419775
0.0524111
0.000428406
0.0522843
0.000438212
0.0521489
0.00044936
0.0520047
0.000461954
0.0518517
0.000475791
0.0516905
0.000490108
0.0515224
0.00050341
0.0513495
0.000513502
0.0511743
0.000517783
0.0509997
0.000513749
0.0508287
0.000499493
0.0506643
0.000474332
0.0505082
0.000439194
0.0503615
0.000395351
0.0502234
0.000344578
0.0500909
0.000289398
0.0499577
0.000233424
0.0498136
0.000181879
0.049648
0.0001418
0.0494516
0.000120189
0.0492128
0.000122383
0.0489217
0.000151909
0.0485681
0.000208105
0.0481497
0.00028041
0.0476689
0.000356023
0.0471337
0.000419873
0.0465569
0.000458838
0.0459553
0.000465614
0.045349
0.000439619
0.044759
0.000385951
0.044205
0.000313659
0.0437035
0.000232962
0.043265
0.000154565
0.0428924
8.8977e-05
0.0425818
4.4867e-05
0.0423232
2.77464e-05
0.0421027
3.68262e-05
0.0419063
6.58386e-05
0.041723
0.000102151
0.0415473
0.000130498
0.0413807
0.00013903
0.0412309
0.000123248
0.0411097
8.65986e-05
0.0410281
3.87113e-05
0.0409916
-8.0454e-06
0.0409977
-4.24657e-05
0.0410362
-5.54995e-05
0.0410878
-4.10514e-05
0.0411274
2.01567e-06
0.0411311
6.80125e-05
0.0410849
0.000146937
0.0409851
0.000228401
0.0408365
0.000304217
0.0406492
0.000369527
0.0404343
0.000423274
0.0402011
0.000467264
0.0399557
0.000504618
0.0397011
0.000538432
0.0394373
0.000571113
0.0391626
0.000604296
0.0388739
0.000639003
0.0385676
0.000675732
0.0382395
0.000714452
0.0378861
0.000754625
0.0375048
0.000795309
0.0370937
0.000835335
0.0366509
0.000873653
0.036174
0.000909747
0.0356584
0.000944084
0.0350977
0.000978379
0.0344828
0.0010153
0.0338042
0.00105736
0.0330538
0.00110532
0.0322284
0.00115695
0.0313325
0.00120726
0.030379
0.00125047
0.0293878
0.00128316
0.0283805
0.00130679
0.0273745
0.00132846
0.0263785
0.00135892
0.0253908
0.00140879
0.0244026
0.00148495
0.0234044
0.00158833
0.0223921
0.0017144
0.0213695
0.00185441
0.0203426
0.0019969
0.0193143
0.00212604
0.0182811
0.00222118
0.0172412
0.00226711
0.0161989
0.00226592
0.0151613
0.00223552
0.0141307
0.00219497
0.0131043
0.0021517
0.0120784
0.00210155
0.0110531
0.00203705
0.0100323
0.00195423
0.00902171
0.00185378
0.008026
0.00173867
0.00704852
0.00161137
0.00609218
0.0014719
0.00515913
0.0013222
0.00425581
0.00114962
0.0033858
0.000937421
0.00256606
0.000674447
0.00183619
0.000361758
0.00123884
3.92709e-05
0.000813761
-0.000257138
0.000535823
-0.000425712
0.000299479
-0.00038833
-0.000210595
0.000381472
-0.00133885
0.00119004
-0.00251913
0.00203293
-0.0026257
0.00272448
-0.0023327
0.00324042
-0.00200557
0.00362166
-0.00174188
0.00390822
-0.00152542
0.00412767
-0.00133899
0.0043066
-0.00118935
0.00447526
-0.00108929
0.00466406
-0.00104498
0.00489751
-0.00105298
0.00519113
-0.00110318
0.00555038
-0.00118194
0.00597233
-0.00127499
0.00644851
-0.00137005
0.00696791
-0.0014584
0.00751948
-0.00153507
0.00809352
-0.00159828
0.00868249
-0.00164864
0.00928113
-0.00168817
0.00988623
-0.00171961
0.0104962
-0.00174567
0.0111104
-0.00176864
0.0117288
-0.00179009
0.0123511
-0.00181076
0.0129767
-0.0018306
0.0136044
-0.00184889
0.0142324
-0.00186446
0.0148585
-0.00187604
0.0154802
-0.00188252
0.0160956
-0.00188331
0.0167034
-0.00187858
0.0173039
-0.00186944
0.017899
-0.00185806
0.0184927
-0.00184759
0.0190905
-0.00184177
0.0196989
-0.00184427
0.0203239
-0.00185784
0.0209705
-0.00188339
0.0216407
-0.0019195
0.0223337
-0.00196229
0.0230457
-0.00200618
0.0237708
-0.00204504
0.024502
-0.0020736
0.0252326
-0.00208848
0.0259567
-0.00208872
0.0266701
-0.00207568
0.0273702
-0.00205246
0.0280564
-0.00202316
0.0287289
-0.00199198
0.0293892
-0.00196262
0.0300396
-0.00193778
0.0306823
-0.00191899
0.0313196
-0.00190662
0.0319534
-0.00190014
0.0325854
-0.00189841
0.0332166
-0.0019001
0.0338478
-0.0019039
0.0344794
-0.00190873
0.0351115
-0.00191384
0.0357443
-0.00191872
0.0363776
-0.00192307
0.0370111
-0.00192672
0.0376445
-0.00192944
0.0382775
-0.00193099
0.0389095
-0.00193099
0.03954
-0.00192901
0.0401683
-0.00192456
0.0407938
-0.00191714
0.0414158
-0.00190627
0.0420334
-0.00189154
0.0426457
-0.00187262
0.0432517
-0.00184927
0.0438504
-0.00182138
0.0444403
-0.00178897
0.0450202
-0.00175222
0.0455888
-0.00171146
0.046145
-0.0016672
0.0466878
-0.00162013
0.0472165
-0.00157107
0.0477305
-0.00152091
0.0482295
-0.0014705
0.0487134
-0.00142057
0.049182
-0.00137155
0.049635
-0.00132358
0.050072
-0.00127641
0.0504924
-0.0012295
0.0508951
-0.00118205
0.0512787
-0.00113323
0.0516418
-0.00108224
0.0519827
-0.00102853
0.0522995
-0.000971807
0.0525909
-0.000912099
0.0528554
-0.000849683
0.0530919
-0.000785021
0.0532997
-0.000718665
0.0534785
-0.000651169
0.0536281
-0.000583025
0.0537488
-0.000514629
0.0538409
-0.00044628
0.0539052
-0.000378216
0.0539426
-0.000310687
0.0539541
-0.000243974
0.0539407
-0.000178451
0.0539032
-0.000114679
0.0538427
-5.36485e-05
0.0537588
5.52181e-06
0.0536519
6.2534e-05
0.0535242
0.000115262
0.0533737
0.000163431
0.0532019
0.00020844
0.0530102
0.00025195
0.0527999
0.000295948
0.0525731
0.000343078
0.0523322
0.000396287
0.0520802
0.000458306
0.0518195
0.000530945
0.0515522
0.000614396
0.0512793
0.000706775
0.0510008
0.000804114
0.0507158
0.000900895
0.0504233
0.00099114
0.0501227
0.00106976
0.0498135
0.0011337
0.049495
0.00118251
0.0491659
0.00121823
0.0488234
0.00124464
0.0484632
0.00126627
0.0480798
0.00128733
0.0476664
0.00131089
0.0472153
0.00133888
0.0467182
0.00137325
0.0461648
0.00141813
0.0455432
0.00148109
0.0448393
0.00157215
0.0440407
0.00170118
0.0431433
0.00187427
0.0421593
0.00209034
0.0411169
0.00233455
0.0400447
0.00256417
0.0389771
0.00270088
0.037954
0.00264916
0.0370077
0.00235385
0.0361375
0.00183441
0.0353123
0.0011324
0.0345562
0.000268067
0.0340155
-0.000487301
0.0340693
-0.000717455
0.0347217
-5.75217e-05
0.0355035
0.00119586
0.0357088
0.00249809
0.0351071
0.00339044
0.0339289
0.00385566
0.032556
0.00401749
0.0312787
0.00389621
0.0302336
0.00352338
0.0294096
0.00301996
0.0287235
0.00254213
0.0280902
0.00218447
0.027453
0.00195064
0.0267893
0.00180011
0.0260965
0.00169455
0.0253824
0.00161488
0.0246606
0.00155716
0.0239461
0.0015238
0.023254
0.00152039
0.0225969
0.00155148
0.0219828
0.00161594
0.0214124
0.00170494
0.0208774
0.00179964
0.0203625
0.00187861
0.0198562
0.00192736
0.0193526
0.00194042
0.0188494
0.00192156
0.0183461
0.00187956
0.0178426
0.00182443
0.0173388
0.00176454
0.0168347
0.00170587
0.0163308
0.00165212
0.0158284
0.00160518
0.0153294
0.00156586
0.0148361
0.00153409
0.0143507
0.00150939
0.0138752
0.00149089
0.0134115
0.00147733
0.0129608
0.00146714
0.0125238
0.00145854
0.0121009
0.00144975
0.0116924
0.00143909
0.0112984
0.00142497
0.0109191
0.0014065
0.0105549
0.00138254
0.0102061
0.00135284
0.00987323
0.00131698
0.00955701
0.00127492
0.00925788
0.00122711
0.00897622
0.00117386
0.00871236
0.00111577
0.00846597
0.00105391
0.00823697
0.000988811
0.00802456
0.000921619
0.00782805
0.000853042
0.00764631
0.000784267
0.00747813
0.000716052
0.00732224
0.000649005
0.0071775
0.000583664
0.00704286
0.000520703
0.0069178
0.000459783
0.0068012
0.000401759
0.00669366
0.000345389
0.00659554
0.000290844
0.00650781
0.000237358
0.0064325
0.00018335
0.00637182
0.000128581
0.00632816
7.16058e-05
0.00630603
1.18942e-05
0.00630964
-5.38198e-05
0.00634097
-0.000123163
0.00640263
-0.000197582
0.00649614
-0.000276678
0.00662173
-0.000359609
0.00677844
-0.000445158
0.00696423
-0.000531876
0.00717636
-0.000618262
0.00741174
-0.000702913
0.00766732
-0.000784629
0.00794044
-0.000862547
0.00822909
-0.000936178
0.00853209
-0.00100538
0.00884911
-0.00107034
0.00918066
-0.00113152
0.00952791
-0.00118968
0.00989256
-0.00124586
0.0102767
-0.00130135
0.0106824
-0.00135755
0.011112
-0.00141571
0.0115673
-0.00147652
0.0120498
-0.00153947
0.0125598
-0.00160228
0.0130961
-0.00166032
0.0136551
-0.00170646
0.0142295
-0.00173143
0.0148069
-0.00172519
0.0153689
-0.00167911
0.0158916
-0.00158898
0.0163474
-0.00145797
0.0167115
-0.00129807
0.0169699
-0.00112907
0.0171284
-0.000974989
0.0172178
-0.000859102
0.0172903
-0.0007997
0.017409
-0.00080742
0.0176315
-0.000884181
0.017995
-0.00102328
0.0185063
-0.00120988
0.0191422
-0.00142294
0.0198575
-0.00163895
0.0205981
-0.00183613
0.0213129
-0.00199702
0.0219619
-0.00211052
0.0225206
-0.00217322
0.0229809
-0.00218763
0.0233498
-0.00215915
0.0236461
-0.00209304
0.0238989
-0.00199293
0.0241492
-0.00186254
0.0244499
-0.00170021
0.0248434
-0.00150279
0.025318
-0.00130513
0.0258338
-0.00115216
0.0263544
-0.00105404
0.0268676
-0.000995101
0.0273707
-0.000958996
0.0278636
-0.000935376
0.0283461
-0.000920814
0.0288181
-0.000914972
0.0292793
-0.00091716
0.0297301
-0.000925058
0.0301719
-0.000935428
0.0306066
-0.000946098
0.0310362
-0.000956205
0.0314625
-0.0009652
0.0318876
-0.000972808
0.032313
-0.000978997
0.03274
-0.000983851
0.0331697
-0.000987416
0.033603
-0.000989575
0.0340405
-0.00098993
0.0344827
-0.000987698
0.03493
-0.000981609
0.0353824
-0.000969822
0.0358401
-0.000949905
0.0363032
-0.00091896
0.0367719
-0.000873989
0.0372465
-0.000812647
0.037727
-0.000734398
0.0382131
-0.00064197
0.0387049
-0.000542796
0.0391977
-0.000449283
0.0396858
-0.000373735
0.0401614
-0.000329133
0.0406167
-0.000325594
0.041046
-0.000363861
0.0414465
-0.00043484
0.0418141
-0.000524679
0.0421469
-0.000618163
0.0424469
-0.000702018
0.0427183
-0.00076767
0.042967
-0.000811614
0.043199
-0.000834602
0.0434198
-0.000840159
0.0436341
-0.000833064
0.0438451