/*--------------------------------*- C++ -*----------------------------------*\
| =========                 |                                                 |
| \\      /  F ield         | OpenFOAM: The Open Source CFD Toolbox           |
|  \\    /   O peration     | Version:  v2006                                 |
|   \\  /    A nd           | Website:  www.openfoam.com                      |
|    \\/     M anipulation  |                                                 |
\*---------------------------------------------------------------------------*/
FoamFile
{
    version     2.0;
    format      ascii;
    class       volVectorField;
    location    "7.4";
    object      U;
}
// * * * * * * * * * * * * * * * * * * * * * * * * * * * * * * * * * * * * * //

dimensions      [0 1 -1 0 0 0 0];


internalField   nonuniform List<vector> 
50000
(
(0.000800072 -0.00202331 0)
(0.00331324 -0.00344634 0)
(0.00739232 -0.00310891 0)
(0.00955149 -0.00295191 0)
(0.0128242 -0.00284675 0)
(0.0152668 -0.00284797 0)
(0.0181742 -0.00279238 0)
(0.0208157 -0.00276259 0)
(0.0235008 -0.00270666 0)
(0.0261436 -0.0026538 0)
(0.0287322 -0.00259764 0)
(0.0312838 -0.00253551 0)
(0.0337884 -0.00246989 0)
(0.0362405 -0.00239944 0)
(0.0386363 -0.00232192 0)
(0.0409713 -0.00223835 0)
(0.0432419 -0.00214991 0)
(0.0454429 -0.00205598 0)
(0.0475692 -0.00195666 0)
(0.0496154 -0.001853 0)
(0.051581 -0.00174378 0)
(0.0534589 -0.00163029 0)
(0.0552405 -0.00151262 0)
(0.0569273 -0.00139172 0)
(0.0585166 -0.00126763 0)
(0.0600038 -0.00114126 0)
(0.0613826 -0.00101177 0)
(0.0626541 -0.000877804 0)
(0.0638136 -0.000744122 0)
(0.0648533 -0.000605331 0)
(0.0657771 -0.000463142 0)
(0.0665854 -0.000321324 0)
(0.0672741 -0.000181449 0)
(0.0678491 -4.50796e-05 0)
(0.0683165 8.22693e-05 0)
(0.068674 0.000199547 0)
(0.0689305 0.000308067 0)
(0.0690977 0.000410229 0)
(0.0691778 0.000502417 0)
(0.0691741 0.000587726 0)
(0.0690833 0.000676108 0)
(0.0689023 0.000773263 0)
(0.0686293 0.00087686 0)
(0.0682551 0.000982616 0)
(0.0677907 0.00107637 0)
(0.0672536 0.00113007 0)
(0.0666634 0.00113613 0)
(0.0660526 0.00109664 0)
(0.0654483 0.00102856 0)
(0.0648497 0.000949118 0)
(0.0642507 0.000881497 0)
(0.0636508 0.000828833 0)
(0.0630335 0.000793304 0)
(0.0623975 0.000763866 0)
(0.0617423 0.000738334 0)
(0.0610633 0.000715103 0)
(0.0603642 0.000695041 0)
(0.0596391 0.000674314 0)
(0.0588835 0.000658624 0)
(0.0581073 0.00064572 0)
(0.0573053 0.000634596 0)
(0.0564768 0.000625545 0)
(0.0556217 0.000620802 0)
(0.0547387 0.000617523 0)
(0.0538318 0.000616814 0)
(0.0528942 0.000616223 0)
(0.0519241 0.000620895 0)
(0.0509301 0.000628217 0)
(0.0499067 0.000637682 0)
(0.0488537 0.000649801 0)
(0.0477719 0.000663964 0)
(0.0466613 0.00068085 0)
(0.0455236 0.000699168 0)
(0.0443563 0.000721735 0)
(0.0431565 0.000748128 0)
(0.041928 0.00077807 0)
(0.0406688 0.000814011 0)
(0.0393752 0.000856821 0)
(0.0380463 0.000906363 0)
(0.0366793 0.000963435 0)
(0.0352703 0.00102518 0)
(0.0338181 0.00109281 0)
(0.0323214 0.00116485 0)
(0.0307762 0.00124444 0)
(0.0291819 0.00132636 0)
(0.0275379 0.00141344 0)
(0.025841 0.00150536 0)
(0.0240879 0.00160248 0)
(0.0222795 0.00170486 0)
(0.0204122 0.0018117 0)
(0.018487 0.00192518 0)
(0.0164971 0.00204151 0)
(0.0144407 0.00216806 0)
(0.0123187 0.00230746 0)
(0.0101208 0.00246033 0)
(0.00784326 0.0026247 0)
(0.00548083 0.00278701 0)
(0.00304169 0.00292541 0)
(0.000549398 0.00301905 0)
(-0.0019603 0.00306028 0)
(-0.00444425 0.00304757 0)
(-0.00686587 0.00299352 0)
(-0.00920017 0.00291274 0)
(-0.0114294 0.00280765 0)
(-0.0135398 0.00268343 0)
(-0.0155214 0.00254069 0)
(-0.0173655 0.00237977 0)
(-0.0190638 0.00220352 0)
(-0.02061 0.00201479 0)
(-0.0219995 0.00181636 0)
(-0.0232303 0.00161195 0)
(-0.0243029 0.00140361 0)
(-0.0252191 0.00119257 0)
(-0.0259817 0.000980807 0)
(-0.0265964 0.000772572 0)
(-0.0270696 0.000567813 0)
(-0.0274088 0.000371171 0)
(-0.0276237 0.000184749 0)
(-0.0277238 9.24022e-06 0)
(-0.0277185 -0.000155017 0)
(-0.0276178 -0.000308685 0)
(-0.0274299 -0.000454312 0)
(-0.0271608 -0.000593319 0)
(-0.0268158 -0.000726104 0)
(-0.0263995 -0.000852742 0)
(-0.0259157 -0.000972832 0)
(-0.0253682 -0.00108673 0)
(-0.0247604 -0.00119473 0)
(-0.0240952 -0.00129692 0)
(-0.0233748 -0.00139331 0)
(-0.0226015 -0.00148418 0)
(-0.0217774 -0.00156984 0)
(-0.0209047 -0.00165014 0)
(-0.019986 -0.0017245 0)
(-0.0190239 -0.00179306 0)
(-0.0180215 -0.0018563 0)
(-0.0169812 -0.00191439 0)
(-0.015904 -0.0019683 0)
(-0.014793 -0.0020202 0)
(-0.0136509 -0.00207213 0)
(-0.0124718 -0.0021261 0)
(-0.0112623 -0.00218378 0)
(-0.0100208 -0.00223415 0)
(-0.00872689 -0.00229858 0)
(-0.00747634 -0.0023559 0)
(-0.00598591 -0.00251668 0)
(-0.0048673 -0.00258361 0)
(-0.00286766 -0.00263687 0)
(-0.00183254 -0.00224431 0)
(0.00030881 -0.00165536 0)
(0.000794422 -0.0035939 0)
(0.00149442 -0.00596256 0)
(0.00440746 -0.0052291 0)
(0.00498718 -0.00491807 0)
(0.0070988 -0.0047939 0)
(0.0080733 -0.0048131 0)
(0.00982538 -0.00475047 0)
(0.0111219 -0.00471746 0)
(0.0126422 -0.00465531 0)
(0.0140705 -0.00459755 0)
(0.0155132 -0.00453282 0)
(0.0169548 -0.00446104 0)
(0.0183854 -0.00438445 0)
(0.0198138 -0.00430225 0)
(0.0212347 -0.0042138 0)
(0.0226446 -0.00411784 0)
(0.0240463 -0.00401472 0)
(0.0254394 -0.0039063 0)
(0.0268222 -0.0037902 0)
(0.0281939 -0.00366627 0)
(0.0295547 -0.0035354 0)
(0.0308971 -0.00340112 0)
(0.0322205 -0.00325753 0)
(0.0335324 -0.00310624 0)
(0.0348257 -0.00295048 0)
(0.0360985 -0.00278996 0)
(0.0373525 -0.00262537 0)
(0.0385852 -0.00245395 0)
(0.0398028 -0.00228184 0)
(0.0409994 -0.00210506 0)
(0.0421698 -0.00192663 0)
(0.043323 -0.00174619 0)
(0.0444559 -0.00156852 0)
(0.0455631 -0.00139405 0)
(0.0466372 -0.00122715 0)
(0.0476743 -0.00106622 0)
(0.0486791 -0.000910085 0)
(0.0496409 -0.000758745 0)
(0.0505476 -0.000614824 0)
(0.0514176 -0.000473993 0)
(0.0522412 -0.000337403 0)
(0.0530166 -0.000192037 0)
(0.0537556 -4.3312e-05 0)
(0.0544624 0.000108124 0)
(0.0551217 0.000253427 0)
(0.0557183 0.000379934 0)
(0.0562399 0.000484478 0)
(0.0566597 0.000566918 0)
(0.0569649 0.000636883 0)
(0.0571465 0.000703998 0)
(0.0572183 0.000777127 0)
(0.057195 0.000857119 0)
(0.0570754 0.000945647 0)
(0.0568607 0.00103409 0)
(0.0565658 0.00112363 0)
(0.0561873 0.00121308 0)
(0.0557273 0.00130316 0)
(0.055187 0.00138851 0)
(0.0545697 0.00147638 0)
(0.0538785 0.00156522 0)
(0.0531144 0.00165028 0)
(0.0522845 0.00173367 0)
(0.0513885 0.00181619 0)
(0.0504264 0.00189627 0)
(0.049407 0.00197723 0)
(0.0483313 0.00205217 0)
(0.0472029 0.00212716 0)
(0.0460262 0.00220045 0)
(0.0448043 0.00227303 0)
(0.0435401 0.00234119 0)
(0.0422391 0.00240716 0)
(0.0409034 0.00247062 0)
(0.039541 0.0025311 0)
(0.038154 0.00258835 0)
(0.0367392 0.00264334 0)
(0.03531 0.00269707 0)
(0.0338731 0.00274957 0)
(0.0324293 0.00280202 0)
(0.0309864 0.00285393 0)
(0.0295464 0.00290613 0)
(0.0281135 0.0029579 0)
(0.0266943 0.00301031 0)
(0.0252952 0.0030623 0)
(0.0239117 0.0031156 0)
(0.0225474 0.00316855 0)
(0.0212137 0.00322134 0)
(0.0199083 0.00327473 0)
(0.0186339 0.00332876 0)
(0.0173955 0.00338346 0)
(0.0161974 0.00343763 0)
(0.0150407 0.00349432 0)
(0.0139281 0.00354741 0)
(0.0128687 0.0036039 0)
(0.011863 0.00366348 0)
(0.0109193 0.00372261 0)
(0.0100573 0.00378087 0)
(0.00928933 0.0038286 0)
(0.00863045 0.00385251 0)
(0.00809273 0.00383639 0)
(0.00766733 0.00376881 0)
(0.00734376 0.00364919 0)
(0.00711736 0.00348681 0)
(0.00696281 0.00330063 0)
(0.00686695 0.00309242 0)
(0.00682793 0.002875 0)
(0.00683194 0.00265181 0)
(0.00686987 0.00242283 0)
(0.00693164 0.00219239 0)
(0.00700664 0.00196011 0)
(0.00709178 0.00173076 0)
(0.00718582 0.00150526 0)
(0.00728503 0.00128787 0)
(0.00738726 0.00107804 0)
(0.00749312 0.00087977 0)
(0.00759432 0.00069499 0)
(0.007687 0.000525062 0)
(0.00777239 0.000371294 0)
(0.00784391 0.000234604 0)
(0.00790067 0.000115667 0)
(0.00794437 1.17296e-05 0)
(0.00797267 -8.09332e-05 0)
(0.00798203 -0.000167718 0)
(0.00797238 -0.000249354 0)
(0.00794378 -0.000326237 0)
(0.00789632 -0.00039817 0)
(0.00782848 -0.00046523 0)
(0.0077382 -0.000528087 0)
(0.00762446 -0.00058763 0)
(0.00748721 -0.000644998 0)
(0.00732728 -0.000701778 0)
(0.00714454 -0.000758572 0)
(0.00693822 -0.000814487 0)
(0.00670854 -0.000868594 0)
(0.00645557 -0.000921373 0)
(0.00617988 -0.000972117 0)
(0.00588416 -0.00102115 0)
(0.00556811 -0.00106899 0)
(0.00523105 -0.00111473 0)
(0.00487737 -0.00115935 0)
(0.00450669 -0.00120373 0)
(0.00411056 -0.00124432 0)
(0.00372336 -0.00128588 0)
(0.00324539 -0.00132186 0)
(0.002916 -0.00136811 0)
(0.0022282 -0.00137409 0)
(0.00206746 -0.00143148 0)
(0.000883579 -0.00148526 0)
(0.00113153 -0.00192372 0)
(0.000128092 -0.00216198 0)
(0.00178163 -0.000483476 0)
(0.000804513 -0.00507458 0)
(0.00189822 -0.00860166 0)
(0.00521261 -0.00760934 0)
(0.00617196 -0.00688811 0)
(0.00853165 -0.00678556 0)
(0.00983342 -0.00678793 0)
(0.0118493 -0.00678316 0)
(0.0134671 -0.00673045 0)
(0.0152635 -0.00668057 0)
(0.0169888 -0.0066185 0)
(0.018708 -0.0065506 0)
(0.0204225 -0.00647904 0)
(0.0221177 -0.00639931 0)
(0.0237966 -0.00631124 0)
(0.0254594 -0.00621798 0)
(0.0271035 -0.00611653 0)
(0.0287241 -0.00600605 0)
(0.0303221 -0.00588702 0)
(0.0318981 -0.00575931 0)
(0.0334478 -0.00562231 0)
(0.0349692 -0.00547793 0)
(0.036461 -0.00532412 0)
(0.0379225 -0.00516163 0)
(0.0393513 -0.00499132 0)
(0.0407443 -0.00481545 0)
(0.0420996 -0.00463082 0)
(0.0434164 -0.00444263 0)
(0.0446925 -0.00424876 0)
(0.0459237 -0.00404985 0)
(0.0471073 -0.00384773 0)
(0.0482473 -0.00364185 0)
(0.0493376 -0.00343234 0)
(0.0503716 -0.00321971 0)
(0.0513534 -0.00300219 0)
(0.0522801 -0.00278292 0)
(0.0531456 -0.00256146 0)
(0.0539522 -0.00233726 0)
(0.0546953 -0.00211621 0)
(0.055367 -0.00189344 0)
(0.0559668 -0.00167101 0)
(0.0564991 -0.00145606 0)
(0.0569673 -0.0012423 0)
(0.0573695 -0.00102799 0)
(0.0577106 -0.00080938 0)
(0.0579919 -0.000585551 0)
(0.0582078 -0.000345419 0)
(0.058347 -0.00010506 0)
(0.0584053 0.000137233 0)
(0.0583872 0.000372824 0)
(0.0582827 0.000599994 0)
(0.0580978 0.000815073 0)
(0.0578481 0.00102637 0)
(0.0575232 0.00122874 0)
(0.0571277 0.00142975 0)
(0.0566733 0.00163189 0)
(0.0561554 0.00182916 0)
(0.0555742 0.00202287 0)
(0.0549329 0.00221309 0)
(0.054236 0.00239909 0)
(0.0534789 0.00258354 0)
(0.052663 0.00276125 0)
(0.0517977 0.00293373 0)
(0.0508807 0.00309965 0)
(0.0499161 0.00326104 0)
(0.0489034 0.00341671 0)
(0.0478419 0.00356511 0)
(0.0467412 0.0037069 0)
(0.0456053 0.00384224 0)
(0.0444293 0.00397054 0)
(0.0432173 0.00409099 0)
(0.0419785 0.00420453 0)
(0.0407111 0.00430901 0)
(0.0394197 0.00440597 0)
(0.0381061 0.00449128 0)
(0.0367721 0.00456796 0)
(0.0354243 0.00463772 0)
(0.0340663 0.00470019 0)
(0.0327003 0.00475379 0)
(0.0313316 0.00480099 0)
(0.0299644 0.00484246 0)
(0.0286016 0.00487845 0)
(0.0272473 0.00490982 0)
(0.0259063 0.00493677 0)
(0.0245789 0.00495675 0)
(0.0232669 0.00497834 0)
(0.0219779 0.00499169 0)
(0.0207129 0.00500121 0)
(0.0194728 0.00500713 0)
(0.0182621 0.00500983 0)
(0.0170863 0.00500717 0)
(0.0159444 0.00499953 0)
(0.0148392 0.00498722 0)
(0.0137814 0.00496929 0)
(0.0127657 0.0049406 0)
(0.0117975 0.00489929 0)
(0.0108885 0.00483674 0)
(0.0100366 0.00474066 0)
(0.00923944 0.0046044 0)
(0.00848559 0.00442459 0)
(0.00776288 0.00420332 0)
(0.00706413 0.00395679 0)
(0.00639055 0.00369692 0)
(0.00572398 0.00343192 0)
(0.00506542 0.00317253 0)
(0.00443315 0.00291806 0)
(0.00381964 0.00266944 0)
(0.00323045 0.00242566 0)
(0.00266582 0.00218518 0)
(0.00212694 0.00194644 0)
(0.00161814 0.00170917 0)
(0.00114163 0.00147201 0)
(0.000696903 0.00123641 0)
(0.00028471 0.00100546 0)
(-8.9406e-05 0.000782883 0)
(-0.000427046 0.000570992 0)
(-0.000726281 0.00037747 0)
(-0.000984241 0.000203048 0)
(-0.00119874 4.85816e-05 0)
(-0.00137096 -8.58474e-05 0)
(-0.00150404 -0.00020477 0)
(-0.0016021 -0.000313321 0)
(-0.00166407 -0.000409185 0)
(-0.00168743 -0.000493271 0)
(-0.00167618 -0.000567146 0)
(-0.00163435 -0.000631306 0)
(-0.00156539 -0.000686416 0)
(-0.00147192 -0.000732853 0)
(-0.00135754 -0.000771448 0)
(-0.0012276 -0.000803108 0)
(-0.00108732 -0.000828999 0)
(-0.000940409 -0.000850119 0)
(-0.000791111 -0.000866909 0)
(-0.000644943 -0.000879001 0)
(-0.000505207 -0.000886531 0)
(-0.000373934 -0.00089009 0)
(-0.000254674 -0.000890812 0)
(-0.000149997 -0.000890254 0)
(-6.08394e-05 -0.00088912 0)
(1.22868e-05 -0.000888501 0)
(6.44281e-05 -0.000887968 0)
(9.61069e-05 -0.000890202 0)
(0.000119184 -0.000889257 0)
(8.28148e-05 -0.000888046 0)
(0.000132772 -0.000864316 0)
(-9.77582e-05 -0.000832479 0)
(8.34058e-05 -0.000733662 0)
(-0.000583185 -0.00088684 0)
(0.000186105 -0.0016182 0)
(-0.000205419 -0.00281418 0)
(0.0018202 0.000995925 0)
(0.000768436 -0.0071848 0)
(0.00231163 -0.0121813 0)
(0.00587441 -0.0108327 0)
(0.00722945 -0.00971752 0)
(0.00985773 -0.00955651 0)
(0.0115005 -0.00956116 0)
(0.0137677 -0.00956295 0)
(0.0156841 -0.00949454 0)
(0.0177202 -0.00941794 0)
(0.0196972 -0.00932975 0)
(0.0216425 -0.00923358 0)
(0.0235676 -0.00912827 0)
(0.0254638 -0.00901202 0)
(0.0273258 -0.00888598 0)
(0.0291517 -0.00874931 0)
(0.0309418 -0.00860222 0)
(0.0326932 -0.00844381 0)
(0.0344035 -0.00827313 0)
(0.0360715 -0.00809142 0)
(0.0376945 -0.007896 0)
(0.039275 -0.00769051 0)
(0.0408091 -0.00747539 0)
(0.0422906 -0.0072454 0)
(0.0437239 -0.00700656 0)
(0.04511 -0.0067566 0)
(0.0464429 -0.00649744 0)
(0.0477209 -0.00622907 0)
(0.0489458 -0.00594961 0)
(0.0501186 -0.00566194 0)
(0.0512352 -0.00536602 0)
(0.0522909 -0.00506153 0)
(0.05329 -0.00475108 0)
(0.0542339 -0.00443365 0)
(0.0551159 -0.00411085 0)
(0.0559327 -0.0037847 0)
(0.0566886 -0.00345751 0)
(0.0573825 -0.00312834 0)
(0.0580131 -0.0028001 0)
(0.0585778 -0.00246871 0)
(0.0590753 -0.0021383 0)
(0.0595057 -0.00180615 0)
(0.0598666 -0.0014737 0)
(0.0601573 -0.00114174 0)
(0.0603764 -0.000812136 0)
(0.0605298 -0.000484456 0)
(0.0606107 -0.000164322 0)
(0.0606259 0.000150382 0)
(0.0605878 0.00046 0)
(0.0604882 0.000762377 0)
(0.0603195 0.00105728 0)
(0.0600885 0.00134677 0)
(0.0597956 0.00163331 0)
(0.0594302 0.00191079 0)
(0.0590061 0.00218897 0)
(0.0585207 0.00246134 0)
(0.0579702 0.00273075 0)
(0.0573644 0.00299304 0)
(0.0567016 0.00325264 0)
(0.0559866 0.00350454 0)
(0.055216 0.00374842 0)
(0.0543881 0.00398946 0)
(0.0535144 0.00422089 0)
(0.0525936 0.00444646 0)
(0.0516254 0.00466282 0)
(0.0506119 0.00486847 0)
(0.0495558 0.00506663 0)
(0.0484606 0.00525636 0)
(0.0473281 0.00543633 0)
(0.0461587 0.00560378 0)
(0.0449562 0.0057631 0)
(0.0437229 0.00591111 0)
(0.0424603 0.00604754 0)
(0.0411717 0.00617377 0)
(0.0398586 0.00628623 0)
(0.0385229 0.00638711 0)
(0.0371698 0.00647624 0)
(0.0357978 0.00655465 0)
(0.0344087 0.00662022 0)
(0.0330109 0.00667562 0)
(0.0316019 0.00672073 0)
(0.0301849 0.00675618 0)
(0.0287661 0.0067824 0)
(0.0273469 0.00679959 0)
(0.0259342 0.00681053 0)
(0.0245214 0.00681146 0)
(0.023114 0.0068049 0)
(0.0217238 0.0067905 0)
(0.0203478 0.00676834 0)
(0.0189878 0.00673993 0)
(0.0176483 0.00670306 0)
(0.0163345 0.00665716 0)
(0.0150479 0.00660292 0)
(0.0137921 0.0065417 0)
(0.0125691 0.00646383 0)
(0.0113837 0.00637675 0)
(0.0102363 0.00627125 0)
(0.0091255 0.00614566 0)
(0.00805072 0.00599725 0)
(0.00700449 0.00582935 0)
(0.0059825 0.00563683 0)
(0.00498445 0.00542587 0)
(0.00401076 0.00519738 0)
(0.00306082 0.00494734 0)
(0.00213527 0.00469261 0)
(0.00124009 0.00442129 0)
(0.000378103 0.00414022 0)
(-0.000448154 0.00385319 0)
(-0.00123663 0.00355947 0)
(-0.00198725 0.00326365 0)
(-0.00269932 0.00296545 0)
(-0.00337292 0.00266783 0)
(-0.00400846 0.00237003 0)
(-0.00460618 0.00207665 0)
(-0.00516499 0.00178805 0)
(-0.00568292 0.00150631 0)
(-0.00615789 0.00123342 0)
(-0.00658815 0.000971015 0)
(-0.00697122 0.000720297 0)
(-0.0073074 0.000480991 0)
(-0.00759772 0.00025557 0)
(-0.00783448 4.53054e-05 0)
(-0.00801617 -0.000146929 0)
(-0.00815045 -0.000323507 0)
(-0.00823971 -0.000485337 0)
(-0.00828464 -0.000632913 0)
(-0.00828623 -0.000766449 0)
(-0.00824543 -0.000885843 0)
(-0.00816354 -0.000990762 0)
(-0.00804241 -0.00108101 0)
(-0.00788438 -0.00115683 0)
(-0.0076922 -0.00121923 0)
(-0.00746835 -0.00126958 0)
(-0.00721508 -0.00130893 0)
(-0.0069352 -0.00133771 0)
(-0.00663131 -0.00135712 0)
(-0.0063056 -0.00136823 0)
(-0.00596111 -0.00137221 0)
(-0.00559988 -0.00137093 0)
(-0.00522333 -0.00136554 0)
(-0.00483849 -0.00135687 0)
(-0.0044415 -0.00134728 0)
(-0.00403413 -0.00133492 0)
(-0.00363817 -0.00131792 0)
(-0.0031789 -0.00126814 0)
(-0.00288852 -0.00117033 0)
(-0.0022826 -0.00104227 0)
(-0.00229837 -0.00137495 0)
(-0.000976761 -0.00268489 0)
(-0.000689184 -0.00433527 0)
(0.00143604 0.00170011 0)
(0.000728072 -0.00928157 0)
(0.00244043 -0.0159189 0)
(0.00605417 -0.0141762 0)
(0.00754118 -0.0126992 0)
(0.0102354 -0.0124451 0)
(0.0119924 -0.0124435 0)
(0.0143186 -0.0124253 0)
(0.0163215 -0.0123309 0)
(0.0184185 -0.0122134 0)
(0.0204578 -0.0120832 0)
(0.0224597 -0.011942 0)
(0.0244373 -0.0117878 0)
(0.0263749 -0.0116183 0)
(0.0282715 -0.0114377 0)
(0.0301283 -0.0112432 0)
(0.0319431 -0.0110345 0)
(0.0337127 -0.0108128 0)
(0.0354348 -0.010578 0)
(0.0371127 -0.0103297 0)
(0.0387405 -0.0100668 0)
(0.0403125 -0.00979138 0)
(0.0418401 -0.00950746 0)
(0.0433163 -0.00920804 0)
(0.0447364 -0.00889682 0)
(0.0461036 -0.00857587 0)
(0.0474145 -0.00824501 0)
(0.0486742 -0.00790236 0)
(0.049879 -0.00755062 0)
(0.0510237 -0.00718958 0)
(0.0521112 -0.00682263 0)
(0.0531434 -0.00644783 0)
(0.0541181 -0.00606621 0)
(0.0550319 -0.0056795 0)
(0.0558862 -0.00529034 0)
(0.056679 -0.00489525 0)
(0.0574101 -0.00449561 0)
(0.0580823 -0.00409495 0)
(0.0586972 -0.0036928 0)
(0.0592475 -0.00329011 0)
(0.0597309 -0.00288329 0)
(0.0601549 -0.00247727 0)
(0.0605177 -0.00207173 0)
(0.0608156 -0.0016626 0)
(0.061053 -0.00125234 0)
(0.0612263 -0.00084131 0)
(0.0613357 -0.00043112 0)
(0.0613828 -1.8424e-05 0)
(0.0613631 0.000390953 0)
(0.0612824 0.000794695 0)
(0.0611343 0.00119107 0)
(0.0609225 0.00158485 0)
(0.0606466 0.00196862 0)
(0.0603034 0.00234628 0)
(0.0598967 0.00271976 0)
(0.0594282 0.00308408 0)
(0.0588978 0.00344302 0)
(0.0583074 0.00379599 0)
(0.0576595 0.00413969 0)
(0.0569515 0.00447564 0)
(0.0561931 0.00479927 0)
(0.0553766 0.00511691 0)
(0.0545087 0.00542405 0)
(0.0535921 0.00572024 0)
(0.0526228 0.00600458 0)
(0.0516093 0.00627717 0)
(0.0505511 0.00653801 0)
(0.0494503 0.00678683 0)
(0.048308 0.00702206 0)
(0.0471264 0.00724409 0)
(0.0459086 0.00745209 0)
(0.0446563 0.00764538 0)
(0.0433739 0.00782428 0)
(0.0420605 0.00799106 0)
(0.0407181 0.00814023 0)
(0.0393519 0.00827471 0)
(0.0379648 0.00839463 0)
(0.0365556 0.00849849 0)
(0.0351265 0.00858873 0)
(0.0336842 0.008665 0)
(0.0322286 0.00872592 0)
(0.0307629 0.00877458 0)
(0.0292905 0.00880974 0)
(0.0278198 0.00883203 0)
(0.0263459 0.00884184 0)
(0.0248708 0.008836 0)
(0.0234074 0.0088204 0)
(0.021954 0.00879549 0)
(0.0205152 0.00875375 0)
(0.019093 0.00869938 0)
(0.0176911 0.00863251 0)
(0.0163136 0.00855622 0)
(0.0149672 0.00846134 0)
(0.0136495 0.00835222 0)
(0.012365 0.0082265 0)
(0.0111195 0.00808334 0)
(0.00990991 0.007919 0)
(0.00874056 0.00773357 0)
(0.00761538 0.00752373 0)
(0.00652284 0.00728902 0)
(0.00546186 0.00703027 0)
(0.00444169 0.00674925 0)
(0.00345484 0.00644846 0)
(0.00250641 0.00613086 0)
(0.00158492 0.00580201 0)
(0.000692703 0.00546461 0)
(-0.000157516 0.00512016 0)
(-0.00097143 0.00477217 0)
(-0.00174851 0.00442143 0)
(-0.00248823 0.00406963 0)
(-0.00319026 0.00371759 0)
(-0.00385501 0.00336687 0)
(-0.00448268 0.00301949 0)
(-0.00507302 0.00267738 0)
(-0.00562611 0.00234269 0)
(-0.00614334 0.00201766 0)
(-0.0066249 0.00170358 0)
(-0.00706944 0.0014019 0)
(-0.00747681 0.00111357 0)
(-0.0078448 0.000838466 0)
(-0.00817179 0.000579056 0)
(-0.00845807 0.000336287 0)
(-0.00870404 0.000105858 0)
(-0.00890872 -0.000113427 0)
(-0.00907032 -0.000321282 0)
(-0.00918934 -0.000516969 0)
(-0.00926668 -0.000700224 0)
(-0.00930291 -0.000870742 0)
(-0.00929844 -0.00102828 0)
(-0.00925354 -0.00117254 0)
(-0.00916833 -0.00130362 0)
(-0.00904314 -0.00142173 0)
(-0.00887873 -0.00152707 0)
(-0.00867573 -0.00162022 0)
(-0.00843464 -0.00170161 0)
(-0.00815648 -0.00177173 0)
(-0.00784261 -0.0018316 0)
(-0.00749526 -0.00188193 0)
(-0.00711543 -0.00192353 0)
(-0.00670401 -0.00195744 0)
(-0.00626712 -0.00198534 0)
(-0.00580053 -0.00200934 0)
(-0.00530908 -0.00203046 0)
(-0.00480616 -0.0020429 0)
(-0.0042348 -0.00201139 0)
(-0.0037818 -0.00190653 0)
(-0.00304222 -0.00182215 0)
(-0.00281225 -0.00237088 0)
(-0.00138016 -0.00417157 0)
(-0.000891817 -0.00605505 0)
(0.00119714 0.00200775 0)
(0.000722339 -0.0114501 0)
(0.00248257 -0.01973 0)
(0.00606968 -0.0175861 0)
(0.00760182 -0.0157557 0)
(0.0102813 -0.0154113 0)
(0.0120666 -0.0153984 0)
(0.0143927 -0.0153591 0)
(0.0164107 -0.0152315 0)
(0.0185148 -0.0150721 0)
(0.0205638 -0.0148982 0)
(0.0225733 -0.0147087 0)
(0.0245585 -0.0145042 0)
(0.0265047 -0.0142823 0)
(0.0284087 -0.0140444 0)
(0.0302747 -0.013791 0)
(0.0320984 -0.0135217 0)
(0.0338772 -0.0132366 0)
(0.0356107 -0.0129361 0)
(0.0372998 -0.0126199 0)
(0.0389393 -0.0122923 0)
(0.0405245 -0.0119464 0)
(0.0420643 -0.0115861 0)
(0.0435544 -0.0112177 0)
(0.0449866 -0.0108319 0)
(0.0463675 -0.0104355 0)
(0.0476974 -0.0100282 0)
(0.0489711 -0.0096064 0)
(0.0501885 -0.00917738 0)
(0.0513503 -0.00873766 0)
(0.0524552 -0.00828757 0)
(0.0535022 -0.0078285 0)
(0.0544906 -0.00736358 0)
(0.05542 -0.00689221 0)
(0.0562914 -0.00641441 0)
(0.0571032 -0.00592901 0)
(0.0578502 -0.0054383 0)
(0.058534 -0.00494442 0)
(0.0591568 -0.00444708 0)
(0.0597203 -0.00394841 0)
(0.0602177 -0.00344617 0)
(0.0606446 -0.00294294 0)
(0.0610115 -0.00243952 0)
(0.0613145 -0.00193476 0)
(0.0615466 -0.00143043 0)
(0.0617151 -0.000932084 0)
(0.0618187 -0.000435564 0)
(0.0618577 5.71628e-05 0)
(0.0618353 0.000545781 0)
(0.0617482 0.00102961 0)
(0.0615977 0.00150633 0)
(0.0613821 0.00198066 0)
(0.0611 0.00244578 0)
(0.0607544 0.00290625 0)
(0.0603458 0.00335807 0)
(0.0598738 0.00380492 0)
(0.0593411 0.0042411 0)
(0.0587466 0.00467248 0)
(0.0580919 0.00509101 0)
(0.0573794 0.00550134 0)
(0.0566122 0.00590178 0)
(0.0557888 0.00628793 0)
(0.0549103 0.00666717 0)
(0.0539809 0.0070291 0)
(0.0530004 0.00737902 0)
(0.0519722 0.0077151 0)
(0.0508981 0.00803605 0)
(0.0497794 0.00834362 0)
(0.0486185 0.00863494 0)
(0.0474166 0.00890854 0)
(0.046176 0.00916565 0)
(0.0449004 0.00940607 0)
(0.0435956 0.00962869 0)
(0.0422568 0.00983378 0)
(0.0408864 0.0100202 0)
(0.0394944 0.0101884 0)
(0.0380794 0.0103383 0)
(0.0366434 0.0104681 0)
(0.0351896 0.0105807 0)
(0.0337212 0.0106772 0)
(0.0322405 0.010753 0)
(0.0307516 0.0108111 0)
(0.0292575 0.0108521 0)
(0.0277624 0.0108759 0)
(0.0262686 0.0108787 0)
(0.0247778 0.010867 0)
(0.0233011 0.0108385 0)
(0.0218324 0.0107922 0)
(0.0203746 0.0107283 0)
(0.0189405 0.0106462 0)
(0.0175339 0.0105477 0)
(0.0161475 0.0104315 0)
(0.0147851 0.0102981 0)
(0.0134601 0.0101429 0)
(0.0121678 0.00997146 0)
(0.0109113 0.00977799 0)
(0.00969315 0.00956628 0)
(0.00851326 0.00933188 0)
(0.00737179 0.00907605 0)
(0.00626822 0.00879449 0)
(0.00520143 0.00849608 0)
(0.00417198 0.00817818 0)
(0.00317924 0.00784294 0)
(0.00222395 0.0074922 0)
(0.00130441 0.0071248 0)
(0.000419893 0.00675121 0)
(-0.000425997 0.00636886 0)
(-0.00123199 0.00597956 0)
(-0.00199892 0.00558508 0)
(-0.00272711 0.00518709 0)
(-0.00341653 0.00478739 0)
(-0.00406609 0.00438756 0)
(-0.00467623 0.0039892 0)
(-0.00524773 0.00359417 0)
(-0.00577995 0.00320401 0)
(-0.00627307 0.00281975 0)
(-0.00672713 0.00244431 0)
(-0.00714165 0.00207922 0)
(-0.00751682 0.00172597 0)
(-0.00785111 0.00138642 0)
(-0.00814407 0.00105991 0)
(-0.00839704 0.000746653 0)
(-0.00861095 0.000447974 0)
(-0.00878634 0.000164029 0)
(-0.00892217 -0.000106014 0)
(-0.00901877 -0.000361595 0)
(-0.00907773 -0.000602777 0)
(-0.00909996 -0.00082983 0)
(-0.00908571 -0.00104314 0)
(-0.00903512 -0.00124247 0)
(-0.00894855 -0.00142797 0)
(-0.00882614 -0.00160002 0)
(-0.00866832 -0.00175889 0)
(-0.00847538 -0.00190491 0)
(-0.00824751 -0.00203817 0)
(-0.00798549 -0.0021592 0)
(-0.00768955 -0.00226908 0)
(-0.00736061 -0.00236827 0)
(-0.00699955 -0.00245694 0)
(-0.00660699 -0.00253584 0)
(-0.00618792 -0.00260656 0)
(-0.00573703 -0.00267088 0)
(-0.00525931 -0.00273193 0)
(-0.00476788 -0.00278156 0)
(-0.00420754 -0.00277722 0)
(-0.00375324 -0.00268773 0)
(-0.00302901 -0.00264173 0)
(-0.00278738 -0.00337073 0)
(-0.00144935 -0.00562529 0)
(-0.000944431 -0.00780538 0)
(0.00111885 0.00212625 0)
(0.000713143 -0.0136222 0)
(0.00252568 -0.0235316 0)
(0.0061079 -0.0209897 0)
(0.00768687 -0.0187903 0)
(0.0103533 -0.0183618 0)
(0.0121679 -0.018333 0)
(0.014494 -0.018281 0)
(0.0165345 -0.0181184 0)
(0.01865 -0.0179205 0)
(0.0207156 -0.0177038 0)
(0.0227435 -0.0174689 0)
(0.0247462 -0.017215 0)
(0.0267107 -0.0169438 0)
(0.0286332 -0.0166497 0)
(0.0305171 -0.0163381 0)
(0.0323611 -0.0160099 0)
(0.0341613 -0.0156634 0)
(0.035916 -0.0153001 0)
(0.0376231 -0.01492 0)
(0.0392859 -0.0145248 0)
(0.0408988 -0.0141118 0)
(0.0424554 -0.0136832 0)
(0.0439668 -0.0132438 0)
(0.0454272 -0.0127864 0)
(0.046828 -0.0123163 0)
(0.0481791 -0.0118334 0)
(0.0494754 -0.0113381 0)
(0.0507131 -0.0108321 0)
(0.0518965 -0.0103152 0)
(0.0530215 -0.0097877 0)
(0.0540859 -0.00925145 0)
(0.0550898 -0.00870487 0)
(0.0560341 -0.00815168 0)
(0.0569204 -0.00759175 0)
(0.057744 -0.00702512 0)
(0.0584997 -0.00645468 0)
(0.059193 -0.00587802 0)
(0.0598256 -0.00529711 0)
(0.0603931 -0.00471296 0)
(0.0608928 -0.00412873 0)
(0.061327 -0.00353945 0)
(0.0616993 -0.00294876 0)
(0.062005 -0.00235946 0)
(0.0622391 -0.00176907 0)
(0.0624061 -0.00117779 0)
(0.062511 -0.000588771 0)
(0.062549 1.72972e-08 0)
(0.0625175 0.000584017 0)
(0.0624198 0.00116325 0)
(0.0622576 0.00173698 0)
(0.062029 0.00230333 0)
(0.0617331 0.00286406 0)
(0.0613717 0.00341854 0)
(0.0609467 0.00396228 0)
(0.0604578 0.00449716 0)
(0.0599072 0.00502256 0)
(0.0592944 0.00553671 0)
(0.0586191 0.00603987 0)
(0.0578884 0.00653099 0)
(0.0570986 0.00701085 0)
(0.0562548 0.00747399 0)
(0.0553555 0.00792457 0)
(0.0543999 0.00835955 0)
(0.0533963 0.00877836 0)
(0.0523436 0.00918031 0)
(0.0512464 0.0095649 0)
(0.0501048 0.00993143 0)
(0.0489152 0.0102804 0)
(0.0476856 0.0106074 0)
(0.0464208 0.0109167 0)
(0.0451192 0.0112045 0)
(0.043786 0.011472 0)
(0.0424203 0.0117157 0)
(0.0410248 0.0119397 0)
(0.0396061 0.0121415 0)
(0.0381641 0.012321 0)
(0.0367022 0.0124772 0)
(0.0352269 0.0126122 0)
(0.0337348 0.0127239 0)
(0.0322285 0.0128131 0)
(0.0307184 0.0128803 0)
(0.0292045 0.012925 0)
(0.0276885 0.0129472 0)
(0.0261747 0.0129467 0)
(0.0246676 0.0129257 0)
(0.0231692 0.0128826 0)
(0.0216816 0.0128138 0)
(0.0202097 0.0127272 0)
(0.0187575 0.0126178 0)
(0.0173277 0.012488 0)
(0.0159222 0.0123313 0)
(0.0145429 0.0121565 0)
(0.0131941 0.0119584 0)
(0.0118782 0.0117377 0)
(0.0105987 0.011494 0)
(0.00935411 0.0112271 0)
(0.00814524 0.0109371 0)
(0.00697618 0.010624 0)
(0.00584554 0.0102882 0)
(0.00475407 0.00993112 0)
(0.00370156 0.00955429 0)
(0.00268693 0.00915967 0)
(0.00171127 0.00874905 0)
(0.000775587 0.00832408 0)
(-0.000119483 0.00788807 0)
(-0.000973082 0.00744396 0)
(-0.00178488 0.00699308 0)
(-0.00255456 0.00653727 0)
(-0.00328149 0.00607844 0)
(-0.00396544 0.00561906 0)
(-0.00460695 0.00516128 0)
(-0.00520566 0.00470596 0)
(-0.0057612 0.00425565 0)
(-0.00627471 0.00381215 0)
(-0.00674575 0.00337713 0)
(-0.00717393 0.00295216 0)
(-0.00756009 0.00253865 0)
(-0.00790393 0.002138 0)
(-0.00820661 0.00174999 0)
(-0.00846933 0.0013754 0)
(-0.00869031 0.00101505 0)
(-0.00887063 0.00066803 0)
(-0.00901292 0.000336012 0)
(-0.00911534 1.95467e-05 0)
(-0.00917784 -0.000283133 0)
(-0.00920272 -0.000571389 0)
(-0.00919126 -0.000845224 0)
(-0.00914369 -0.00110483 0)
(-0.0090605 -0.0013503 0)
(-0.00894313 -0.00158178 0)
(-0.00879232 -0.00179939 0)
(-0.00860874 -0.00200343 0)
(-0.0083926 -0.00219404 0)
(-0.0081443 -0.0023716 0)
(-0.00786545 -0.00253652 0)
(-0.00755667 -0.00268925 0)
(-0.00721838 -0.00283034 0)
(-0.00685138 -0.00295976 0)
(-0.00645656 -0.00307823 0)
(-0.00603788 -0.00318712 0)
(-0.00559068 -0.00328818 0)
(-0.00512013 -0.00338553 0)
(-0.00463631 -0.00346875 0)
(-0.00409058 -0.0034885 0)
(-0.00364775 -0.00340945 0)
(-0.00295669 -0.00337957 0)
(-0.00273172 -0.00426499 0)
(-0.00147287 -0.00696705 0)
(-0.000945978 -0.00953108 0)
(0.00110872 0.00224269 0)
(0.00069222 -0.0158233 0)
(0.00258195 -0.027388 0)
(0.00618475 -0.0244493 0)
(0.00783462 -0.0218641 0)
(0.0105031 -0.0213414 0)
(0.0123637 -0.0213026 0)
(0.0147032 -0.0212366 0)
(0.0167816 -0.0210432 0)
(0.01892 -0.0208062 0)
(0.0210157 -0.0205464 0)
(0.0230723 -0.0202662 0)
(0.0251004 -0.0199646 0)
(0.0270951 -0.0196419 0)
(0.0290485 -0.0192954 0)
(0.0309575 -0.0189286 0)
(0.032827 -0.0185417 0)
(0.0346533 -0.0181346 0)
(0.0364337 -0.0177077 0)
(0.0381683 -0.0172627 0)
(0.0398561 -0.0167989 0)
(0.0414918 -0.0163194 0)
(0.0430731 -0.0158212 0)
(0.0446083 -0.0153053 0)
(0.0460895 -0.014777 0)
(0.0475128 -0.0142329 0)
(0.048885 -0.0136729 0)
(0.0501987 -0.0131014 0)
(0.0514542 -0.0125158 0)
(0.0526541 -0.0119181 0)
(0.0537941 -0.0113101 0)
(0.0548755 -0.0106902 0)
(0.0558951 -0.010059 0)
(0.0568506 -0.0094205 0)
(0.0577473 -0.00877287 0)
(0.0585801 -0.00811951 0)
(0.0593467 -0.00745928 0)
(0.0600499 -0.00679091 0)
(0.0606874 -0.00611808 0)
(0.0612589 -0.00544093 0)
(0.0617663 -0.0047612 0)
(0.0622045 -0.00407808 0)
(0.0625731 -0.00339293 0)
(0.0628766 -0.00270945 0)
(0.0631122 -0.00202698 0)
(0.0632785 -0.00134167 0)
(0.0633775 -0.000660214 0)
(0.0634078 1.90126e-05 0)
(0.0633694 0.00069325 0)
(0.0632643 0.00136215 0)
(0.0630913 0.00202589 0)
(0.0628523 0.00268282 0)
(0.0625481 0.00333214 0)
(0.0621731 0.0039733 0)
(0.0617311 0.00460482 0)
(0.0612276 0.00522676 0)
(0.0606597 0.00583884 0)
(0.0600283 0.00643597 0)
(0.0593354 0.00702183 0)
(0.0585845 0.00759397 0)
(0.0577728 0.00815067 0)
(0.0569032 0.00869228 0)
(0.0559808 0.00921472 0)
(0.0550026 0.0097235 0)
(0.053972 0.0102118 0)
(0.0528925 0.0106807 0)
(0.0517662 0.0111305 0)
(0.0505954 0.0115565 0)
(0.0493777 0.0119613 0)
(0.0481194 0.0123448 0)
(0.0468238 0.0127049 0)
(0.0454903 0.0130409 0)
(0.044125 0.0133526 0)
(0.0427274 0.0136376 0)
(0.0413014 0.0138986 0)