/*--------------------------------*- C++ -*----------------------------------*\
| =========                 |                                                 |
| \\      /  F ield         | OpenFOAM: The Open Source CFD Toolbox           |
|  \\    /   O peration     | Version:  v2006                                 |
|   \\  /    A nd           | Website:  www.openfoam.com                      |
|    \\/     M anipulation  |                                                 |
\*---------------------------------------------------------------------------*/
FoamFile
{
    version     2.0;
    format      ascii;
    class       surfaceScalarField;
    location    "12.7";
    object      alphaPhi0.water;
}
// * * * * * * * * * * * * * * * * * * * * * * * * * * * * * * * * * * * * * //

dimensions      [0 3 -1 0 0 0 0];
oriented        oriented;


internalField   nonuniform List<scalar> 
104500
(
-6.64754e-05
6.64754e-05
-0.000121452
5.49762e-05
-0.000178624
5.71727e-05
-0.000238486
5.98616e-05
-0.000299277
6.07912e-05
-0.000360187
6.09095e-05
-0.000421019
6.08323e-05
-0.000481774
6.07555e-05
-0.000542479
6.07048e-05
-0.000603144
6.06647e-05
-0.000663761
6.06174e-05
-0.000724319
6.0558e-05
-0.000784802
6.04829e-05
-0.000845194
6.03921e-05
-0.000905479
6.0285e-05
-0.000965641
6.01611e-05
-0.00102566
6.00206e-05
-0.00108552
5.98628e-05
-0.00114521
5.96876e-05
-0.00120471
5.94946e-05
-0.00126399
5.92831e-05
-0.00132304
5.90531e-05
-0.00138185
5.88043e-05
-0.00144038
5.85361e-05
-0.00149863
5.82478e-05
-0.00155657
5.79388e-05
-0.00161418
5.76087e-05
-0.00167143
5.72568e-05
-0.00172832
5.68823e-05
-0.0017848
5.64834e-05
-0.00184086
5.60591e-05
-0.00189647
5.5608e-05
-0.0019516
5.51307e-05
-0.00200623
5.46285e-05
-0.00206033
5.41041e-05
-0.00211389
5.35635e-05
-0.00216691
5.30134e-05
-0.00221937
5.2459e-05
-0.00227127
5.19027e-05
-0.00232261
5.13444e-05
-0.00237339
5.07795e-05
-0.00242359
5.02008e-05
-0.0024732
4.96009e-05
-0.00252217
4.89735e-05
-0.00257049
4.83173e-05
-0.00261812
4.76335e-05
-0.00266505
4.69307e-05
-0.00271127
4.62207e-05
-0.00275679
4.55148e-05
-0.0028016
4.4818e-05
-0.00284573
4.41242e-05
-0.00288914
4.34126e-05
-0.00293179
4.26474e-05
-0.00297357
4.17854e-05
-0.00301436
4.07872e-05
-0.00305399
3.96283e-05
-0.00309229
3.83049e-05
-0.00312913
3.68337e-05
-0.00316437
3.52471e-05
-0.00319796
3.35836e-05
-0.00322984
3.18799e-05
-0.00326
3.01648e-05
-0.00328846
2.84581e-05
-0.00331523
2.6771e-05
-0.00334034
2.51074e-05
-0.00336381
2.34666e-05
-0.00338565
2.18451e-05
-0.00340589
2.02376e-05
-0.00342453
1.86377e-05
-0.00344157
1.70399e-05
-0.00345701
1.54395e-05
-0.00347084
1.38339e-05
-0.00348306
1.22231e-05
-0.00349367
1.06095e-05
-0.00350267
8.99864e-06
-0.00351007
7.39776e-06
-0.00351588
5.81469e-06
-0.00352014
4.25569e-06
-0.00352286
2.72409e-06
-0.00352408
1.21606e-06
-0.00352387
-2.13873e-07
-0.00352232
-1.54891e-06
-0.00351944
-2.88125e-06
-0.00351525
-4.18799e-06
-0.00350978
-5.47033e-06
-0.00350305
-6.72869e-06
-0.00349509
-7.96101e-06
-0.00348592
-9.16397e-06
-0.00347559
-1.03343e-05
-0.00346412
-1.14694e-05
-0.00345155
-1.2568e-05
-0.00343792
-1.36303e-05
-0.00342326
-1.46576e-05
-0.00340761
-1.56512e-05
-0.003391
-1.66131e-05
-0.00337345
-1.75452e-05
-0.003355
-1.84495e-05
-0.00333568
-1.93274e-05
-0.0033155
-2.01796e-05
-0.00329449
-2.10064e-05
-0.00327268
-2.18081e-05
-0.0032501
-2.25841e-05
-0.00322676
-2.3334e-05
-0.00320271
-2.40576e-05
-0.00317795
-2.47548e-05
-0.00315253
-2.54262e-05
-0.00312646
-2.60714e-05
-0.00309977
-2.66876e-05
-0.0030725
-2.72672e-05
-0.0030447
-2.77964e-05
-0.00301644
-2.82599e-05
-0.0029878
-2.86486e-05
-0.00295883
-2.89674e-05
-0.00292959
-2.92357e-05
-0.00290011
-2.94793e-05
-0.00287039
-2.97187e-05
-0.00284043
-2.99627e-05
-0.00281022
-3.02094e-05
-0.00277977
-3.04516e-05
-0.00274909
-3.06825e-05
-0.00271819
-3.08978e-05
-0.0026871
-3.10952e-05
-0.00265582
-3.12736e-05
-0.00262439
-3.14323e-05
-0.00259282
-3.15707e-05
-0.00256113
-3.16885e-05
-0.00252934
-3.17853e-05
-0.00249748
-3.1861e-05
-0.00246557
-3.19156e-05
-0.00243362
-3.19491e-05
-0.00240166
-3.19617e-05
-0.0023697
-3.19535e-05
-0.00233778
-3.19248e-05
-0.0023059
-3.18758e-05
-0.0022741
-3.18067e-05
-0.00224238
-3.17179e-05
-0.00221077
-3.16096e-05
-0.00217929
-3.14824e-05
-0.00214795
-3.13369e-05
-0.00211678
-3.11739e-05
-0.00208578
-3.09949e-05
-0.00205498
-3.08017e-05
-0.00202438
-3.05966e-05
-0.001994
-3.03822e-05
-0.00196384
-3.01604e-05
-0.00193391
-2.99323e-05
-0.00190421
-2.96961e-05
-0.00187477
-2.94464e-05
-0.00184559
-2.91725e-05
-0.00181673
-2.88582e-05
-0.00178825
-2.84837e-05
-0.00176022
-2.80277e-05
-0.00173275
-2.74726e-05
-0.00170594
-2.68087e-05
-0.0016799
-2.60377e-05
-0.00165473
-2.51732e-05
-0.00163049
-2.42376e-05
-0.00160724
-2.32573e-05
-0.00158498
-2.22552e-05
-0.00156373
-2.12463e-05
-0.0015435
-2.02349e-05
-0.00152428
-1.9216e-05
-0.00150611
-1.81785e-05
-0.00148899
-1.71106e-05
-0.00147299
-1.60042e-05
-0.00145813
-1.48591e-05
-0.00144444
-1.36899e-05
-0.00143191
-1.25354e-05
-0.00142045
-1.14523e-05
-0.00140995
-1.05078e-05
-0.00140019
-9.75649e-06
-0.00139097
-9.21855e-06
-0.0013821
-8.87608e-06
-0.00137341
-8.68984e-06
-0.00136478
-8.62092e-06
-0.00135613
-8.65025e-06
-0.00134735
-8.78625e-06
-0.00133829
-9.05433e-06
-0.00132882
-9.47439e-06
-0.00131878
-1.00394e-05
-0.00130808
-1.07011e-05
-0.0012967
-1.13752e-05
-0.00128473
-1.19687e-05
-0.00127234
-1.23934e-05
-0.00125974
-1.2603e-05
-0.00124714
-1.25937e-05
-0.00123474
-1.24014e-05
-0.00122266
-1.20833e-05
-0.00121096
-1.16982e-05
-0.00119967
-1.12949e-05
-0.00118876
-1.0906e-05
-0.00117821
-1.05484e-05
-0.00116798
-1.02324e-05
-0.00115802
-9.95962e-06
-0.00114829
-9.73324e-06
-0.00113873
-9.5544e-06
-0.00112931
-9.41907e-06
-0.00111998
-9.32984e-06
-0.00111069
-9.28974e-06
-0.0011014
-9.29609e-06
-0.00109205
-9.3508e-06
-0.00108259
-9.45685e-06
-0.001073
-9.59484e-06
-0.00106323
-9.76216e-06
-0.00105329
-9.94787e-06
-0.00104319
-1.00957e-05
-0.00103301
-1.01821e-05
-0.00102283
-1.01758e-05
-0.00101277
-1.00572e-05
-0.00100295
-9.82529e-06
-0.000993466
-9.48344e-06
-0.000984427
-9.03883e-06
-0.000975921
-8.50616e-06
-0.000968009
-7.91136e-06
-0.000960724
-7.28533e-06
-0.000954054
-6.66989e-06
-0.000947941
-6.11287e-06
-0.000942322
-5.61964e-06
-0.000937111
-5.21104e-06
-0.000932228
-4.8831e-06
-0.000927606
-4.62131e-06
-0.000923203
-4.40285e-06
-0.000918994
-4.2094e-06
-0.00091497
-4.0239e-06
-0.000911123
-3.84723e-06
-0.000907467
-3.65641e-06
-0.000904006
-3.46096e-06
-0.000900743
-3.26249e-06
-0.000897681
-3.06187e-06
-0.00089482
-2.86139e-06
-0.000892157
-2.66248e-06
-0.000889693
-2.46452e-06
-0.000887428
-2.26526e-06
-0.000885363
-2.06448e-06
-0.000883501
-1.86168e-06
-0.000881847
-1.65487e-06
-0.000880401
-1.44516e-06
-0.000879166
-1.23526e-06
-0.000878141
-1.02465e-06
-0.000877328
-8.13382e-07
-0.000876723
-6.0514e-07
-0.000876333
-3.89631e-07
-0.000876163
-1.70755e-07
-0.000876192
2.91085e-08
-0.000876428
2.36372e-07
-0.00087688
4.52383e-07
-0.00087755
6.69994e-07
-0.000878439
8.88533e-07
-0.00087955
1.11127e-06
-0.000880888
1.33795e-06
-0.000882459
1.57054e-06
-0.00088427
1.81096e-06
-0.000886332
2.06192e-06
-0.000888659
2.32746e-06
-0.000891271
2.61147e-06
-0.00089419
2.91924e-06
-0.000897446
3.25645e-06
-0.000901076
3.62939e-06
-0.000905116
4.04085e-06
-0.000909599
4.48212e-06
-0.000914533
4.93477e-06
-0.000919919
5.38575e-06
-0.000925755
5.8361e-06
-0.000932048
6.2924e-06
-0.000938803
6.75552e-06
-0.000946022
7.21931e-06
-0.000953699
7.67626e-06
-0.00096182
8.12179e-06
-0.000970381
8.56036e-06
-0.000979388
9.00727e-06
-0.000988875
9.48678e-06
-0.0009989
1.00252e-05
-0.00100955
1.06502e-05
-0.00102094
1.13852e-05
-0.00103317
1.22391e-05
-0.00104639
1.3218e-05
-0.0010607
1.43092e-05
-0.00107621
1.55046e-05
-0.001093
1.67919e-05
-0.00111113
1.81359e-05
-0.00113063
1.94983e-05
-0.00115146
2.08273e-05
-0.00117352
2.20559e-05
-0.00119662
2.31057e-05
-0.00122056
2.39383e-05
-0.00124508
2.45161e-05
-0.00126989
2.48153e-05
-0.00129472
2.48241e-05
-0.00131931
2.45899e-05
-0.00134333
2.40226e-05
-0.00136631
2.29863e-05
-0.00138763
2.13198e-05
-0.00140643
1.87953e-05
-0.00142171
1.52769e-05
-0.0014326
1.08896e-05
-0.00143858
5.98344e-06
-0.0014396
1.02076e-06
-0.00143651
-3.08484e-06
-0.0014303
-6.21555e-06
-0.001422
-8.30286e-06
-0.00141242
-9.57888e-06
-0.00140201
-1.04113e-05
-0.00139089
-1.11134e-05
-0.00137901
-1.18848e-05
-0.00136619
-1.28133e-05
-0.0013523
-1.38994e-05
-0.0013372
-1.5094e-05
-0.00132087
-1.63287e-05
-0.00130332
-1.75501e-05
-0.00128458
-1.87379e-05
-0.00126469
-1.98939e-05
-0.00124367
-2.10233e-05
-0.00122155
-2.21213e-05
-0.00119837
-2.31757e-05
-0.00117421
-2.41627e-05
-0.00114914
-2.50662e-05
-0.00112325
-2.58872e-05
-0.00109662
-2.66341e-05
-0.0010693
-2.73186e-05
-0.00104135
-2.79543e-05
-0.0010128
-2.85482e-05
-0.000983694
-2.91053e-05
-0.000954067
-2.96265e-05
-0.000923951
-3.0116e-05
-0.00089337
-3.05813e-05
-0.000862349
-3.10212e-05
-0.000830905
-3.14441e-05
-0.000799054
-3.18503e-05
-0.000766813
-3.22418e-05
-0.000734189
-3.26237e-05
-0.0007012
-3.2989e-05
-0.000667846
-3.33537e-05
-0.000634125
-3.37211e-05
-0.000600033
-3.40923e-05
-0.000565557
-3.44759e-05
-0.000530681
-3.48755e-05
-0.000495394
-3.52873e-05
-0.000459678
-3.5716e-05
-0.000423519
-3.61593e-05
-0.00038691
-3.66083e-05
-0.000349857
-3.70538e-05
-0.000312378
-3.74781e-05
-0.000274504
-3.78742e-05
-0.000236254
-3.82498e-05
-0.000197601
-3.86529e-05
-0.000158399
-3.92023e-05
-0.000118475
-3.99242e-05
-7.75001e-05
-4.09748e-05
-3.59327e-05
-4.15674e-05
-3.59327e-05
-8.09616e-05
0.000147437
-0.000152397
0.000126412
-0.000227682
0.000132457
-0.000305773
0.000137953
-0.000384396
0.000139414
-0.000462738
0.000139251
-0.000540816
0.000138911
-0.000618734
0.000138674
-0.000696485
0.000138455
-0.000774009
0.000138189
-0.000851253
0.000137862
-0.00092817
0.000137474
-0.00100472
0.00013703
-0.00108085
0.000136529
-0.00115654
0.000135967
-0.00123172
0.000135344
-0.00130636
0.000134658
-0.0013804
0.000133907
-0.0014538
0.000133089
-0.00152651
0.000132205
-0.00159848
0.000131253
-0.00166966
0.000130233
-0.00174001
0.000129147
-0.00180946
0.000127994
-0.00187799
0.000126778
-0.00194555
0.000125496
-0.00201209
0.000124151
-0.00207758
0.000122743
-0.00214197
0.000121272
-0.00220523
0.000119741
-0.00226732
0.000118152
-0.00232822
0.00011651
-0.00238791
0.000114822
-0.00244638
0.000113093
-0.00250361
0.000111332
-0.00255959
0.000109548
-0.00261432
0.000107744
-0.00266779
0.000105925
-0.00271997
0.000104087
-0.00277086
0.000102229
-0.00282042
0.000100345
-0.00286865
9.84311e-05
-0.00291554
9.6486e-05
-0.00296107
9.45086e-05
-0.00300525
9.25004e-05
-0.00304809
9.04651e-05
-0.00308956
8.84073e-05
-0.00312967
8.63306e-05
-0.00316839
8.42349e-05
-0.00320569
8.21159e-05
-0.00324153
7.99641e-05
-0.00327588
7.7765e-05
-0.00330874
7.55006e-05
-0.0033401
7.31539e-05
-0.00337003
7.07146e-05
-0.00339859
6.81826e-05
-0.00342585
6.55661e-05
-0.00345189
6.28802e-05
-0.00347679
6.01435e-05
-0.00350058
5.73743e-05
-0.00352329
5.45886e-05
-0.00354492
5.17986e-05
-0.00356548
4.90122e-05
-0.00358494
4.62341e-05
-0.0036033
4.34664e-05
-0.00362054
4.07102e-05
-0.00363666
3.79655e-05
-0.00365166
3.52319e-05
-0.00366553
3.25087e-05
-0.00367828
2.97957e-05
-0.00368994
2.70928e-05
-0.0037005
2.44006e-05
-0.00371
2.17201e-05
-0.00371844
1.90523e-05
-0.00372584
1.63988e-05
-0.00373221
1.37609e-05
-0.00373753
1.11401e-05
-0.00374182
8.53754e-06
-0.00374505
5.95426e-06
-0.00374722
3.39201e-06
-0.0037483
8.65523e-07
-0.00374814
-1.71112e-06
-0.0037468
-4.21827e-06
-0.00374429
-6.69747e-06
-0.00374062
-9.14336e-06
-0.0037358
-1.1549e-05
-0.00372985
-1.39084e-05
-0.0037228
-1.62169e-05
-0.00371466
-1.84709e-05
-0.00370546
-2.06678e-05
-0.00369522
-2.28065e-05
-0.00368397
-2.48867e-05
-0.00367172
-2.69086e-05
-0.0036585
-2.88725e-05
-0.00364433
-3.0779e-05
-0.00362925
-3.26296e-05
-0.00361327
-3.44254e-05
-0.00359643
-3.61665e-05
-0.00357876
-3.78532e-05
-0.00356028
-3.9486e-05
-0.00354102
-4.10652e-05
-0.00352101
-4.25907e-05
-0.00350028
-4.40631e-05
-0.00347886
-4.54832e-05
-0.00345676
-4.68527e-05
-0.00343401
-4.81737e-05
-0.00341064
-4.94484e-05
-0.00338665
-5.06781e-05
-0.00336205
-5.18621e-05
-0.00333685
-5.29975e-05
-0.00331103
-5.40791e-05
-0.00328458
-5.50996e-05
-0.0032575
-5.6052e-05
-0.0032298
-5.69318e-05
-0.00320154
-5.77391e-05
-0.00317278
-5.84789e-05
-0.00314358
-5.91587e-05
-0.00311401
-5.97854e-05
-0.0030841
-6.03638e-05
-0.00305388
-6.08968e-05
-0.00302339
-6.13857e-05
-0.00299266
-6.18312e-05
-0.0029617
-6.22341e-05
-0.00293053
-6.25953e-05
-0.00289919
-6.29157e-05
-0.00286768
-6.31962e-05
-0.00283603
-6.34375e-05
-0.00280425
-6.36406e-05
-0.00277236
-6.38063e-05
-0.00274037
-6.39355e-05
-0.0027083
-6.40294e-05
-0.00267617
-6.40888e-05
-0.00264398
-6.4115e-05
-0.00261175
-6.41089e-05
-0.00257948
-6.40718e-05
-0.00254719
-6.40049e-05
-0.00251489
-6.39094e-05
-0.00248259
-6.37869e-05
-0.00245029
-6.36387e-05
-0.00241799
-6.34669e-05
-0.00238572
-6.32739e-05
-0.00235345
-6.30625e-05
-0.00232121
-6.28362e-05
-0.002289
-6.2599e-05
-0.0022568
-6.23546e-05
-0.00222463
-6.2106e-05
-0.00219247
-6.18545e-05
-0.00216032
-6.15985e-05
-0.00212816
-6.13323e-05
-0.00209597
-6.10464e-05
-0.00206373
-6.07271e-05
-0.0020314
-6.03578e-05
-0.00199895
-5.99216e-05
-0.00196635
-5.94037e-05
-0.0019336
-5.87943e-05
-0.00190068
-5.80906e-05
-0.00186762
-5.72975e-05
-0.00183445
-5.64263e-05
-0.00180121
-5.54922e-05
-0.00176795
-5.45113e-05
-0.00173469
-5.34974e-05
-0.00170144
-5.24603e-05
-0.00166822
-5.1405e-05
-0.00163499
-5.03318e-05
-0.00160176
-4.92367e-05
-0.00156851
-4.81144e-05
-0.00153524
-4.69613e-05
-0.001502
-4.57734e-05
-0.00146889
-4.45583e-05
-0.00143607
-4.33334e-05
-0.0014037
-4.21237e-05
-0.00137196
-4.09543e-05
-0.001341
-3.98406e-05
-0.00131088
-3.88058e-05
-0.00128163
-3.78751e-05
-0.00125324
-3.70358e-05
-0.00122575
-3.62785e-05
-0.0011992
-3.56037e-05
-0.00117366
-3.50136e-05
-0.0011492
-3.45039e-05
-0.00112583
-3.40636e-05
-0.00110354
-3.36653e-05
-0.00108222
-3.32921e-05
-0.0010617
-3.29099e-05
-0.00104182
-3.24903e-05
-0.00102239
-3.20174e-05
-0.00100331
-3.1484e-05
-0.000984505
-3.08898e-05
-0.000965959
-3.0244e-05
-0.000947697
-2.95568e-05
-0.000929765
-2.88386e-05
-0.000912211
-2.81019e-05
-0.000895089
-2.73539e-05
-0.000878444
-2.66053e-05
-0.000862313
-2.58642e-05
-0.000846731
-2.51365e-05
-0.000831723
-2.44267e-05
-0.000817313
-2.37396e-05
-0.000803523
-2.30802e-05
-0.000790367
-2.24519e-05
-0.00077786
-2.18581e-05
-0.000766015
-2.13014e-05
-0.000754836
-2.07744e-05
-0.000744314
-2.02836e-05
-0.000734439
-1.98226e-05
-0.00072516
-1.93754e-05
-0.00071641
-1.89315e-05
-0.000708102
-1.84842e-05
-0.000700145
-1.80138e-05
-0.000692466
-1.75043e-05
-0.000685015
-1.69353e-05
-0.000677763
-1.62907e-05
-0.000670705
-1.55642e-05
-0.00066386
-1.47556e-05
-0.000657266
-1.38795e-05
-0.00065098
-1.29559e-05
-0.000645079
-1.20145e-05
-0.000639626
-1.10723e-05
-0.000634672
-1.01647e-05
-0.000630247
-9.30803e-06
-0.000626358
-8.51099e-06
-0.000622986
-7.77465e-06
-0.0006201
-7.09489e-06
-0.000617659
-6.46544e-06
-0.000615627
-5.87858e-06
-0.000613969
-5.31481e-06
-0.000612664
-4.76587e-06
-0.000611694
-4.23252e-06
-0.000611054
-3.70195e-06
-0.000610734
-3.18094e-06
-0.000610738
-2.6588e-06
-0.000611065
-2.13791e-06
-0.000611713
-1.61678e-06
-0.000612677
-1.10103e-06
-0.000613958
-5.80357e-07
-0.000615561
-5.23997e-08
-0.000617494
4.88445e-07
-0.000619742
1.01214e-06
-0.000622301
1.53461e-06
-0.000625171
2.05658e-06
-0.000628352
2.57599e-06
-0.000631833
3.09195e-06
-0.000635607
3.60237e-06
-0.000639682
4.10439e-06
-0.000644042
4.59613e-06
-0.000648672
5.08271e-06
-0.000653561
5.55929e-06
-0.000658697
6.02407e-06
-0.000664062
6.47672e-06
-0.00066964
6.91579e-06
-0.00067541
7.34021e-06
-0.000681348
7.74886e-06
-0.000687427
8.14088e-06
-0.000693615
8.51593e-06
-0.000699876
8.87205e-06
-0.000706166
9.20932e-06
-0.000712436
9.52724e-06
-0.000718632
9.82478e-06
-0.000724691
1.00998e-05
-0.000730559
1.03507e-05
-0.000736203
1.05783e-05
-0.000741601
1.0784e-05
-0.000746732
1.09672e-05
-0.000751579
1.11391e-05
-0.000756117
1.12931e-05
-0.000760331
1.14339e-05
-0.00076422
1.15648e-05
-0.000767789
1.1691e-05
-0.000771056
1.18271e-05
-0.000774035
1.19862e-05
-0.000776735
1.21873e-05
-0.000779161
1.24509e-05
-0.00078131
1.27992e-05
-0.000783172
1.32472e-05
-0.000784744
1.38118e-05
-0.000786033
1.4507e-05
-0.000787062
1.53377e-05
-0.000787866
1.63085e-05
-0.000788486
1.74118e-05
-0.000788977
1.86268e-05
-0.000789404
1.99259e-05
-0.000789845
2.12678e-05
-0.000790382
2.25928e-05
-0.000791097
2.38209e-05
-0.000792044
2.48857e-05
-0.000793229
2.57006e-05
-0.000794584
2.61704e-05
-0.000795933
2.61734e-05
-0.000796882
2.55389e-05
-0.00079688
2.40208e-05
-0.000795624
2.17296e-05
-0.000792853
1.85486e-05
-0.000788437
1.43794e-05
-0.000782467
9.30694e-06
-0.000775231
3.65361e-06
-0.000766898
-2.34913e-06
-0.000757308
-8.56935e-06
-0.000746582
-1.38109e-05
-0.000734924
-1.7874e-05
-0.00072254
-2.0686e-05
-0.000709706
-2.24136e-05
-0.000696705
-2.34118e-05
-0.000683702
-2.41161e-05
-0.000670703
-2.48838e-05
-0.000657594
-2.59229e-05
-0.00064424
-2.72531e-05
-0.000630542
-2.87924e-05
-0.000616457
-3.04136e-05
-0.000601997
-3.20097e-05
-0.000587214
-3.35209e-05
-0.000572171
-3.4937e-05
-0.000556917
-3.62774e-05
-0.000541472
-3.75661e-05
-0.000525839
-3.88092e-05
-0.000509972
-4.00292e-05
-0.000493836
-4.12028e-05
-0.000477393
-4.23298e-05
-0.000460629
-4.33983e-05
-0.000443542
-4.44059e-05
-0.000426157
-4.5339e-05
-0.000408512
-4.61928e-05
-0.000390661
-4.69566e-05
-0.00037266
-4.7628e-05
-0.000354567
-4.82085e-05
-0.000336432
-4.87166e-05
-0.000318318
-4.91352e-05
-0.000300282
-4.94795e-05
-0.000282384
-4.97491e-05
-0.000264693
-4.99323e-05
-0.000247293
-5.00238e-05
-0.000230246
-5.00357e-05
-0.000213625
-4.99755e-05
-0.000197513
-4.98324e-05
-0.000181965
-4.96407e-05
-0.000167029
-4.9412e-05
-0.000152737
-4.91671e-05
-0.000139104
-4.89204e-05
-0.000126127
-4.86931e-05
-0.000113769
-4.85177e-05
-0.000101993
-4.8384e-05
-9.07342e-05
-4.83126e-05
-7.99051e-05
-4.83072e-05
-6.94097e-05
-4.83696e-05
-5.91458e-05
-4.85137e-05
-4.9064e-05
-4.87347e-05
-3.92211e-05
-4.90452e-05
-2.9959e-05
-4.91863e-05
-2.14336e-05
-4.95002e-05
-1.16335e-05
-5.13675e-05
-4.75662e-05
-8.09703e-05
0.000228407
-0.000150364
0.000195805
-0.000223533
0.000205627
-0.000300362
0.000214782
-0.000378274
0.000217326
-0.000455881
0.000216859
-0.000533014
0.000216043
-0.000609803
0.000215463
-0.00068632
0.000214972
-0.000762543
0.000214412
-0.000838419
0.000213738
-0.000913897
0.000212952
-0.000988931
0.000212065
-0.00106348
0.000211076
-0.00113749
0.000209978
-0.00121091
0.00020877
-0.0012837
0.000207448
-0.00135581
0.00020601
-0.00142718
0.000204457
-0.00149776
0.00020279
-0.00156751
0.000201005
-0.00163639
0.000199105
-0.00170433
0.000197092
-0.0017713
0.000194969
-0.00183727
0.00019274
-0.00190218
0.000190408
-0.001966
0.000187978
-0.00202872
0.000185455
-0.00209029
0.000182845
-0.0021507
0.000180155
-0.00220994
0.00017739
-0.00226799
0.000174559
-0.00232484
0.000171671
-0.00238048
0.000168736
-0.00243491
0.000165763
-0.00248813
0.00016276
-0.00254011
0.000159731
-0.00259086
0.000156678
-0.00264038
0.000153601
-0.00268865
0.0001505
-0.00273568
0.000147373
-0.00278147
0.000144219
-0.00282602
0.000141038
-0.00286934
0.000137828
-0.00291143
0.000134594
-0.0029523
0.000131337
-0.00299196
0.000128063
-0.0030304
0.000124775
-0.00306764
0.000121476
-0.00310369
0.000118164
-0.00313856
0.000114835
-0.00317228
0.000111478
-0.00320486
0.000108081
-0.00323633
0.00010463
-0.00326673
0.000101114
-0.00329608
9.7529e-05
-0.00332439
9.38732e-05
-0.00335166
9.01519e-05
-0.00337789
8.63738e-05
-0.00340306
8.25489e-05
-0.00342716
7.86875e-05
-0.00345016
7.47981e-05
-0.00347204
7.08882e-05
-0.00349277
6.69637e-05
-0.00351233
6.30297e-05
-0.00353071
5.90898e-05
-0.00354789
5.51468e-05
-0.00356386
5.12034e-05
-0.00357861
4.72617e-05
-0.00359214
4.33239e-05
-0.00360444
3.93917e-05
-0.00361551
3.54667e-05
-0.00362534
3.15508e-05
-0.00363393
2.76459e-05
-0.00364129
2.37539e-05
-0.0036474
1.98762e-05
-0.00365228
1.60156e-05
-0.00365591
1.21749e-05
-0.00365832
8.35641e-06
-0.00365949
4.56515e-06
-0.00365942
7.97389e-07
-0.00365818
-2.95233e-06
-0.00365574
-6.66166e-06
-0.00365211
-1.03268e-05
-0.00364731
-1.39412e-05
-0.00364136
-1.74987e-05
-0.00363428
-2.0993e-05
-0.00362607
-2.44188e-05
-0.00361677
-2.77716e-05
-0.00360639
-3.10478e-05
-0.00359495
-3.42453e-05
-0.00358248
-3.73624e-05
-0.00356899
-4.03984e-05
-0.00355451
-4.33526e-05
-0.00353906
-4.62243e-05
-0.00352268
-4.90131e-05
-0.00350539
-5.17186e-05
-0.00348721
-5.43404e-05
-0.00346819
-5.68779e-05
-0.00344834
-5.93307e-05
-0.00342771
-6.16981e-05
-0.00340632
-6.39798e-05
-0.00338421
-6.61758e-05
-0.00336141
-6.8286e-05
-0.00333795
-7.03101e-05
-0.00331387
-7.22479e-05
-0.00328922
-7.40997e-05
-0.00326404
-7.58663e-05
-0.00323835
-7.75506e-05
-0.00321219
-7.91556e-05
-0.00318559
-8.06826e-05
-0.00315856
-8.21297e-05
-0.00313112
-8.34909e-05
-0.00310329
-8.47601e-05
-0.00307509
-8.59347e-05
-0.00304655
-8.70177e-05
-0.0030177
-8.80156e-05
-0.00298855
-8.89351e-05
-0.00295913
-8.97817e-05
-0.00292947
-9.05586e-05
-0.00289958
-9.12682e-05
-0.0028695
-9.19121e-05
-0.00283925
-9.24919e-05
-0.00280883
-9.30092e-05
-0.00277828
-9.34654e-05
-0.00274762
-9.38623e-05
-0.00271685
-9.42013e-05
-0.00268601
-9.44839e-05
-0.0026551
-9.47118e-05
-0.00262415
-9.48866e-05
-0.00259317
-9.50101e-05
-0.00256218
-9.50839e-05
-0.00253118
-9.51099e-05
-0.0025002
-9.50898e-05
-0.00246925
-9.50257e-05
-0.00243833
-9.49194e-05
-0.00240747
-9.47728e-05
-0.00237667
-9.45881e-05
-0.00234594
-9.43671e-05
-0.00231529
-9.41117e-05
-0.00228474
-9.38237e-05
-0.0022543
-9.35048e-05
-0.00222398
-9.31566e-05
-0.0021938
-9.27805e-05
-0.00216378
-9.23771e-05
-0.00213394
-9.19465e-05
-0.0021043
-9.14878e-05
-0.0020749
-9.09999e-05
-0.00204576
-9.04797e-05
-0.00201688
-8.99229e-05
-0.00198828
-8.93237e-05
-0.00195996
-8.86755e-05
-0.00193192
-8.79708e-05
-0.00190412
-8.72021e-05
-0.00187655
-8.63642e-05
-0.00184918
-8.54542e-05
-0.00182201
-8.44736e-05
-0.00179501
-8.34281e-05
-0.00176817
-8.2327e-05
-0.0017415
-8.11815e-05
-0.00171499
-8.00031e-05
-0.00168865
-7.88011e-05
-0.00166248
-7.75828e-05
-0.00163645
-7.63534e-05
-0.00161058
-7.5116e-05
-0.00158482
-7.38711e-05
-0.00155917
-7.26143e-05
-0.0015336
-7.13398e-05
-0.00150812
-7.00401e-05
-0.00148274
-6.87127e-05
-0.0014575
-6.73661e-05
-0.00143243
-6.60205e-05
-0.00140757
-6.46995e-05
-0.00138294
-6.34334e-05
-0.00135859
-6.22276e-05
-0.00133455
-6.10753e-05
-0.00131085
-5.99764e-05
-0.00128753
-5.89221e-05
-0.00126465
-5.79013e-05
-0.00124224
-5.69063e-05
-0.00122037
-5.59344e-05
-0.00119905
-5.49909e-05
-0.00117827
-5.40663e-05
-0.00115802
-5.31636e-05
-0.00113823
-5.2276e-05
-0.00111886
-5.13899e-05
-0.00109985
-5.0494e-05
-0.00108117
-4.9573e-05
-0.00106279
-4.86193e-05
-0.00104472
-4.76302e-05
-0.00102695
-4.66081e-05
-0.0010095
-4.5555e-05
-0.000992371
-4.44808e-05
-0.000975584
-4.3392e-05
-0.000959152
-4.22961e-05
-0.000943095
-4.11932e-05
-0.000927431
-4.00914e-05
-0.000912176
-3.89943e-05
-0.000897353
-3.79028e-05
-0.000882988
-3.68176e-05
-0.000869103
-3.57424e-05
-0.000855727
-3.46782e-05
-0.000842869
-3.36317e-05
-0.00083056
-3.25927e-05
-0.00081881
-3.15724e-05
-0.000807615
-3.05712e-05
-0.000796956
-2.95903e-05
-0.000786815
-2.86254e-05
-0.000777159
-2.76694e-05
-0.000767957
-2.67065e-05
-0.000759174
-2.57179e-05
-0.000750799
-2.46659e-05
-0.000742814
-2.35489e-05
-0.000735209
-2.23606e-05
-0.000727991
-2.10975e-05
-0.000721168
-1.97798e-05
-0.000714754
-1.84278e-05
-0.000708759
-1.70671e-05
-0.000703204
-1.57202e-05
-0.000698097
-1.4415e-05
-0.000693437
-1.31707e-05
-0.000689224
-1.19876e-05
-0.000685444
-1.08747e-05
-0.000682089
-9.82073e-06
-0.000679152
-8.81532e-06
-0.000676622
-7.84546e-06
-0.00067449
-6.89787e-06
-0.000672752
-5.96993e-06
-0.0006714
-5.05449e-06
-0.000670436
-4.14494e-06
-0.000669845
-3.24966e-06
-0.000669635
-2.34806e-06
-0.0006698
-1.45202e-06
-0.000670331
-5.69144e-07
-0.000671213
3.01356e-07
-0.000672454
1.18794e-06
-0.000674041
2.0763e-06
-0.000675986
2.95695e-06
-0.000678282
3.83077e-06
-0.000680923
4.69749e-06
-0.000683904
5.5564e-06
-0.000687217
6.40527e-06
-0.000690856
7.24143e-06
-0.000694819
8.06756e-06
-0.000699098
8.87464e-06
-0.00070368
9.66501e-06
-0.000708557
1.04365e-05
-0.00071372
1.11868e-05
-0.000719156
1.19129e-05
-0.000724853
1.26123e-05
-0.000730795
1.32826e-05
-0.000736968
1.39219e-05
-0.000743353
1.4526e-05
-0.00074993
1.50928e-05
-0.000756678
1.56204e-05
-0.000763574
1.61051e-05
-0.00077059
1.65428e-05
-0.000777694
1.69286e-05
-0.000784851
1.72576e-05
-0.000792029
1.75279e-05
-0.000799192
1.77421e-05
-0.000806312
1.79036e-05
-0.000813361
1.80157e-05
-0.000820292
1.80707e-05
-0.000827069
1.80701e-05
-0.000833651
1.80159e-05
-0.00084
1.79138e-05
-0.000846081
1.77718e-05
-0.000851848
1.75944e-05
-0.000857257
1.73947e-05
-0.000862249
1.71792e-05
-0.000866753
1.69556e-05
-0.000870683
1.67286e-05
-0.000873943
1.65075e-05
-0.000876431
1.62992e-05
-0.000878041
1.61176e-05
-0.000878672
1.59686e-05
-0.000878225
1.58614e-05
-0.000876612
1.57984e-05
-0.000873763
1.57787e-05
-0.000869633
1.57954e-05
-0.0008642
1.58348e-05
-0.000857485
1.58775e-05
-0.000849561
1.58967e-05
-0.000840526
1.58514e-05
-0.000830523
1.56974e-05
-0.000819725
1.53722e-05
-0.00080835
1.47985e-05
-0.000796688
1.38768e-05
-0.000785188
1.25208e-05
-0.000774106
1.06473e-05
-0.000763428
7.87104e-06
-0.000753144
4.09562e-06
-0.00074308
-7.57088e-07
-0.000733768
-5.65808e-06
-0.000725083
-1.10344e-05
-0.000717318
-1.63342e-05
-0.00071001
-2.11197e-05
-0.000702798
-2.50851e-05
-0.000695363
-2.81216e-05
-0.000687462
-3.03149e-05
-0.000678947
-3.19265e-05
-0.000669743
-3.33197e-05
-0.00065982
-3.48073e-05
-0.000649172
-3.65711e-05
-0.0006378
-3.86244e-05
-0.000625719
-4.08732e-05
-0.000612958
-4.31756e-05
-0.000599567
-4.54e-05
-0.000585633
-4.74548e-05
-0.000571268
-4.93019e-05
-0.000556591
-5.09546e-05
-0.000541681
-5.2476e-05
-0.000526571
-5.39196e-05
-0.000511258
-5.53422e-05
-0.000495676
-5.67846e-05
-0.000479764
-5.82422e-05
-0.000463468
-5.96937e-05
-0.000446762
-6.11122e-05
-0.000429639
-6.24625e-05
-0.000412106
-6.37257e-05
-0.000394184
-6.48785e-05
-0.000375894
-6.59175e-05
-0.00035727
-6.68328e-05
-0.000338373
-6.76131e-05
-0.000319238
-6.82707e-05
-0.000299937
-6.87808e-05
-0.000280536
-6.91497e-05
-0.00026112
-6.93482e-05
-0.000241779
-6.93647e-05
-0.000222604
-6.92107e-05
-0.000203718
-6.88613e-05
-0.000185213
-6.83382e-05
-0.000167223
-6.76299e-05
-0.000149877
-6.67583e-05
-0.000133304
-6.57399e-05
-0.000117608
-6.46165e-05
-0.000102884
-6.34175e-05
-8.92373e-05
-6.21642e-05
-7.66976e-05
-6.09238e-05
-6.53021e-05
-5.97081e-05
-5.50341e-05
-5.85752e-05
-4.58601e-05
-5.75436e-05
-3.77055e-05
-5.66683e-05
-3.04771e-05
-5.59631e-05
-2.40706e-05
-5.54518e-05
-1.83064e-05
-5.49505e-05
-1.26637e-05
-5.5143e-05
-5.28052e-06
-5.87506e-05
-5.28467e-05
-7.87444e-05
0.000307152
-0.00014449
0.00026155
-0.000213359
0.000274496
-0.000286256
0.000287679
-0.000360636
0.000291706
-0.000434914
0.000291136
-0.000508717
0.000289846
-0.000582171
0.000288918
-0.000655391
0.000288192
-0.000728387
0.000287408
-0.00080112
0.000286471
-0.000873549
0.000285382
-0.000945636
0.000284151
-0.00101734
0.000282779
-0.00108862
0.000281262
-0.00115945
0.000279594
-0.00122977
0.000277773
-0.00129955
0.000275792
-0.00136875
0.000273655
-0.00143732
0.000271356
-0.00150521
0.000268899
-0.0015724
0.000266289
-0.00163883
0.000263524
-0.00170447
0.000260614
-0.0017693
0.000257563
-0.00183327
0.000254378
-0.00189636
0.000251065
-0.00195853
0.000247634
-0.00201978
0.000244091
-0.00208007
0.000240446
-0.00213939
0.00023671
-0.00219772
0.00023289
-0.00225505
0.000228998
-0.00231136
0.000225044
-0.00236663
0.000221034
-0.00242085
0.000216978
-0.00247399
0.000212879
-0.00252606
0.000208741
-0.00257702
0.000204566
-0.00262688
0.000200355
-0.00267561
0.000196109
-0.00272322
0.000191828
-0.0027697
0.000187516
-0.00281504
0.000183173
-0.00285925
0.000178803
-0.00290232
0.000174407
-0.00294425
0.00016999
-0.00298503
0.000165551
-0.00302464
0.000161092
-0.00306309
0.00015661
-0.00310035
0.000152098
-0.00313642
0.000147548
-0.00317129
0.000142951
-0.00320496
0.000138297
-0.00323742
0.000133579
-0.00326869
0.000128791
-0.00329875
0.000123935
-0.00332761
0.000119013
-0.00335527
0.000114032
-0.00338172
0.000109
-0.00340695
0.000103924
-0.00343097
9.88115e-05
-0.00345375
9.36696e-05
-0.00347529
8.85037e-05
-0.00349558
8.33186e-05
-0.00351461
7.81185e-05
-0.00353237
7.29068e-05
-0.00354885
6.7687e-05
-0.00356405
6.24622e-05
-0.00357796
5.72355e-05
-0.00359058
5.201e-05
-0.0036019
4.6789e-05
-0.00361193
4.15757e-05
-0.00362066
3.63737e-05
-0.00362809
3.11866e-05
-0.00363423
2.60176e-05
-0.00363909
2.08716e-05
-0.00364266
1.5751e-05
-0.00364497
1.06613e-05
-0.00364601
5.60582e-06
-0.0036458
5.88622e-07
-0.00364437
-4.38537e-06
-0.00364172
-9.30756e-06
-0.00363788
-1.4171e-05
-0.00363285
-1.89687e-05
-0.00362665
-2.36939e-05
-0.00361931
-2.83398e-05
-0.00361083
-3.29004e-05
-0.00360123
-3.73707e-05
-0.00359053
-4.17463e-05
-0.00357875
-4.60232e-05
-0.00356591
-5.0198e-05
-0.00355204
-5.42679e-05
-0.00353717
-5.82305e-05
-0.00352131
-6.2084e-05
-0.00350449
-6.58266e-05
-0.00348676
-6.94566e-05
-0.00346812
-7.29725e-05
-0.00344863
-7.63734e-05
-0.0034283
-7.96582e-05
-0.00340717
-8.28263e-05
-0.00338527
-8.58771e-05
-0.00336264
-8.88104e-05
-0.0033393
-9.16262e-05
-0.00331529
-9.43246e-05
-0.00329063
-9.69057e-05
-0.00326536
-9.93692e-05
-0.00323951
-0.000101715
-0.00321312
-0.000103944
-0.00318622
-0.000106055
-0.00315885
-0.000108051
-0.00313105
-0.00010993
-0.00310284
-0.000111694
-0.00307426
-0.000113343
-0.00304532
-0.00011488
-0.00301603
-0.000116306
-0.00298642
-0.000117625
-0.00295651
-0.00011884
-0.00292634
-0.000119955
-0.00289592
-0.000120973
-0.0028653
-0.000121897
-0.00283448
-0.00012273
-0.0028035
-0.000123473
-0.00277238
-0.00012413
-0.00274114
-0.000124703
-0.00270981
-0.000125194
-0.0026784
-0.000125606