/*--------------------------------*- C++ -*----------------------------------*\
| =========                 |                                                 |
| \\      /  F ield         | OpenFOAM: The Open Source CFD Toolbox           |
|  \\    /   O peration     | Version:  v2006                                 |
|   \\  /    A nd           | Website:  www.openfoam.com                      |
|    \\/     M anipulation  |                                                 |
\*---------------------------------------------------------------------------*/
FoamFile
{
    version     2.0;
    format      ascii;
    class       volVectorField;
    location    "15.8";
    object      U;
}
// * * * * * * * * * * * * * * * * * * * * * * * * * * * * * * * * * * * * * //

dimensions      [0 1 -1 0 0 0 0];


internalField   nonuniform List<vector> 
50000
(
(0.000806937 -0.00218484 0)
(0.00474024 -0.00357779 0)
(0.00934885 -0.00371705 0)
(0.0133582 -0.00347937 0)
(0.0171511 -0.00323016 0)
(0.0206785 -0.00308067 0)
(0.0241223 -0.00300016 0)
(0.0274967 -0.00295073 0)
(0.0307948 -0.00290616 0)
(0.0340116 -0.00285438 0)
(0.0371417 -0.00279456 0)
(0.0401798 -0.00273001 0)
(0.0431226 -0.00266182 0)
(0.0459696 -0.0025909 0)
(0.0487197 -0.00251793 0)
(0.0513718 -0.00244288 0)
(0.0539253 -0.00236528 0)
(0.0563806 -0.00228493 0)
(0.0587373 -0.00220181 0)
(0.0609952 -0.00211628 0)
(0.0631542 -0.00202826 0)
(0.0652155 -0.00193639 0)
(0.0671785 -0.00184142 0)
(0.0690425 -0.00174337 0)
(0.070808 -0.00164189 0)
(0.0724734 -0.00153611 0)
(0.0740372 -0.00142541 0)
(0.0754981 -0.00130926 0)
(0.0768536 -0.00118393 0)
(0.078101 -0.00104903 0)
(0.0792363 -0.00090192 0)
(0.0802518 -0.000739117 0)
(0.0811387 -0.000556085 0)
(0.0818848 -0.000350076 0)
(0.0824738 -0.000122442 0)
(0.0828923 0.000118028 0)
(0.0831353 0.000358958 0)
(0.0831991 0.000586699 0)
(0.083085 0.000792138 0)
(0.0828011 0.00098257 0)
(0.0823508 0.00116396 0)
(0.0817357 0.00133533 0)
(0.0809668 0.00148219 0)
(0.0800654 0.00159266 0)
(0.0790572 0.00166355 0)
(0.077965 0.00170063 0)
(0.0768095 0.00170933 0)
(0.0756148 0.00168562 0)
(0.0744108 0.00162003 0)
(0.0732282 0.00150863 0)
(0.0720985 0.00136059 0)
(0.0710441 0.00120099 0)
(0.0700551 0.0010573 0)
(0.0691163 0.000942527 0)
(0.0682112 0.000856562 0)
(0.0673252 0.000793213 0)
(0.066448 0.000744106 0)
(0.0655728 0.000703195 0)
(0.0646959 0.000667546 0)
(0.0638152 0.000635833 0)
(0.0629278 0.000607672 0)
(0.0620313 0.000583788 0)
(0.0611241 0.000564188 0)
(0.0602045 0.000548002 0)
(0.0592715 0.000535009 0)
(0.0583233 0.000524741 0)
(0.0573598 0.000517433 0)
(0.0563808 0.000512434 0)
(0.0553854 0.000509415 0)
(0.0543738 0.00050823 0)
(0.0533462 0.000508661 0)
(0.0523031 0.000510545 0)
(0.051245 0.000513894 0)
(0.050173 0.000518656 0)
(0.0490883 0.000524696 0)
(0.0479917 0.000531741 0)
(0.0468841 0.000539893 0)
(0.0457671 0.000549286 0)
(0.0446422 0.000560129 0)
(0.0435094 0.000572595 0)
(0.042369 0.000587483 0)
(0.0412231 0.000605315 0)
(0.0400705 0.000626219 0)
(0.0389088 0.00065099 0)
(0.0377401 0.000678164 0)
(0.0365609 0.000707478 0)
(0.0353672 0.000741323 0)
(0.0341605 0.00077972 0)
(0.0329364 0.000822565 0)
(0.0316886 0.000871526 0)
(0.0304117 0.000928771 0)
(0.0291005 0.000997024 0)
(0.0277438 0.00107777 0)
(0.0263272 0.00117598 0)
(0.0248337 0.00130147 0)
(0.023238 0.00147047 0)
(0.0215013 0.00169965 0)
(0.0195749 0.00198537 0)
(0.0174219 0.00229706 0)
(0.0150325 0.00258974 0)
(0.0124311 0.0028229 0)
(0.00967307 0.00297827 0)
(0.00682948 0.00306198 0)
(0.00396569 0.00309716 0)
(0.00113766 0.00310826 0)
(-0.00161155 0.00310701 0)
(-0.00423916 0.00309189 0)
(-0.00671235 0.00303887 0)
(-0.00900031 0.00292124 0)
(-0.0110551 0.00271779 0)
(-0.0128274 0.0024226 0)
(-0.0142863 0.00203844 0)
(-0.0153979 0.00162136 0)
(-0.0161868 0.0012591 0)
(-0.016723 0.00098903 0)
(-0.0170847 0.000796551 0)
(-0.0173209 0.000650311 0)
(-0.0174723 0.000519229 0)
(-0.0175665 0.000391355 0)
(-0.0176054 0.000260423 0)
(-0.0175979 0.00012631 0)
(-0.0175457 -5.63414e-06 0)
(-0.0174552 -0.000134515 0)
(-0.0173314 -0.000256931 0)
(-0.017168 -0.000375649 0)
(-0.0169685 -0.000490388 0)
(-0.0167284 -0.000600217 0)
(-0.0164517 -0.000709411 0)
(-0.0161431 -0.000813634 0)
(-0.0157925 -0.00091461 0)
(-0.0154016 -0.00101228 0)
(-0.0149733 -0.00110579 0)
(-0.0145088 -0.00119686 0)
(-0.0140073 -0.00128396 0)
(-0.0134665 -0.00136826 0)
(-0.0128864 -0.00144913 0)
(-0.0122665 -0.00152584 0)
(-0.0116053 -0.00159971 0)
(-0.0109011 -0.00167097 0)
(-0.0101523 -0.00173887 0)
(-0.00935877 -0.00180214 0)
(-0.00851958 -0.00186225 0)
(-0.00763431 -0.00192257 0)
(-0.00670199 -0.00199115 0)
(-0.00571692 -0.00207377 0)
(-0.00466289 -0.00216684 0)
(-0.00359104 -0.00223777 0)
(-0.00241532 -0.00225635 0)
(-0.00125691 -0.00209418 0)
(-8.80326e-05 -0.00142846 0)
(0.000714653 -0.00543981 0)
(0.00409347 -0.00833417 0)
(0.00806256 -0.00817218 0)
(0.0112877 -0.00738542 0)
(0.014291 -0.00685274 0)
(0.016978 -0.00659562 0)
(0.0196215 -0.00643265 0)
(0.0221952 -0.0062779 0)
(0.0246831 -0.00610833 0)
(0.0270758 -0.00592499 0)
(0.0293625 -0.00573468 0)
(0.031543 -0.0055406 0)
(0.033621 -0.00534408 0)
(0.0355962 -0.00514583 0)
(0.0374708 -0.00494775 0)
(0.0392484 -0.00475053 0)
(0.0409321 -0.00455536 0)
(0.0425258 -0.00436253 0)
(0.0440351 -0.00417204 0)
(0.045465 -0.00398415 0)
(0.0468199 -0.00379991 0)
(0.0481054 -0.00361956 0)
(0.0493279 -0.00344234 0)
(0.0504914 -0.00326769 0)
(0.0516 -0.00309466 0)
(0.0526594 -0.00292379 0)
(0.0536756 -0.00275492 0)
(0.0546563 -0.00258756 0)
(0.0556021 -0.00242079 0)
(0.0565182 -0.00225287 0)
(0.0574173 -0.00208122 0)
(0.0583038 -0.00190182 0)
(0.0591842 -0.00171046 0)
(0.0600665 -0.00150385 0)
(0.0609565 -0.00128081 0)
(0.0618537 -0.00104388 0)
(0.0627487 -0.000796374 0)
(0.0636339 -0.00054159 0)
(0.0644982 -0.000281384 0)
(0.065329 -1.32611e-05 0)
(0.0661175 0.000257886 0)
(0.0668519 0.00052234 0)
(0.0675261 0.000773287 0)
(0.0681302 0.00100284 0)
(0.0686474 0.00120701 0)
(0.0690674 0.00138261 0)
(0.0693836 0.00152446 0)
(0.0695908 0.00162477 0)
(0.0696849 0.00167956 0)
(0.0696631 0.00169245 0)
(0.0695189 0.00167569 0)
(0.0692494 0.00164943 0)
(0.0688742 0.00162991 0)
(0.0684098 0.00162496 0)
(0.0678692 0.00163585 0)
(0.0672612 0.00165908 0)
(0.0665904 0.00169131 0)
(0.0658598 0.00172988 0)
(0.0650702 0.0017724 0)
(0.0642221 0.00181799 0)
(0.063318 0.00186625 0)
(0.0623602 0.00191655 0)
(0.0613497 0.00196812 0)
(0.0602893 0.00202008 0)
(0.0591819 0.00207171 0)
(0.0580307 0.00212284 0)
(0.0568382 0.00217318 0)
(0.055607 0.00222187 0)
(0.0543402 0.00226875 0)
(0.053041 0.00231333 0)
(0.0517127 0.00235483 0)
(0.0503591 0.00239343 0)
(0.0489835 0.00242901 0)
(0.0475892 0.00246115 0)
(0.0461795 0.00248933 0)
(0.0447583 0.00251275 0)
(0.0433289 0.00253185 0)
(0.0418957 0.00254688 0)
(0.0404627 0.00255798 0)
(0.0390338 0.00256522 0)
(0.0376133 0.00256979 0)
(0.0362059 0.00257229 0)
(0.0348152 0.00257259 0)
(0.0334404 0.00257244 0)
(0.0320861 0.00257334 0)
(0.0307567 0.002573 0)
(0.0294517 0.0025762 0)
(0.0281731 0.00258376 0)
(0.0269225 0.00259618 0)
(0.0257003 0.00261604 0)
(0.0245075 0.00264611 0)
(0.0233437 0.00269144 0)
(0.022209 0.002753 0)
(0.0211055 0.0028376 0)
(0.0200352 0.00295524 0)
(0.0190041 0.00311904 0)
(0.0180259 0.00334102 0)
(0.0171175 0.00362131 0)
(0.0162831 0.0039414 0)
(0.0155206 0.00426429 0)
(0.0148102 0.0045411 0)
(0.0141297 0.00473146 0)
(0.0134878 0.00480617 0)
(0.0129112 0.00475302 0)
(0.0124303 0.004579 0)
(0.0120801 0.00430146 0)
(0.011895 0.00394269 0)
(0.0118954 0.00351433 0)
(0.012082 0.00303277 0)
(0.0124374 0.00251323 0)
(0.0129243 0.00197587 0)
(0.0134995 0.00144056 0)
(0.0140913 0.000937863 0)
(0.0146407 0.000512385 0)
(0.0151397 0.000193471 0)
(0.0156041 -1.86787e-05 0)
(0.01604 -0.000142732 0)
(0.0164459 -0.000206411 0)
(0.0168191 -0.000229291 0)
(0.0171517 -0.000226953 0)
(0.0174433 -0.000212296 0)
(0.0176928 -0.000192487 0)
(0.0178976 -0.000171206 0)
(0.0180525 -0.000150422 0)
(0.0181532 -0.000131699 0)
(0.0181969 -0.000117058 0)
(0.0181807 -0.000106523 0)
(0.0181036 -0.000101463 0)
(0.0179636 -0.000101467 0)
(0.0177578 -0.000104149 0)
(0.0174857 -0.000108775 0)
(0.0171456 -0.000116349 0)
(0.0167337 -0.000128173 0)
(0.0162458 -0.000144589 0)
(0.0156803 -0.000166475 0)
(0.0150394 -0.000194711 0)
(0.0143248 -0.000230666 0)
(0.0135382 -0.00027323 0)
(0.0126819 -0.000321926 0)
(0.0117613 -0.000378096 0)
(0.0107828 -0.00043992 0)
(0.00975187 -0.000506131 0)
(0.00867535 -0.000575101 0)
(0.00756568 -0.00064778 0)
(0.00640037 -0.000717517 0)
(0.00522883 -0.000784994 0)
(0.00392639 -0.000834144 0)
(0.0027245 -0.000961706 0)
(0.00144791 -0.00109823 0)
(0.000865373 -0.000425382 0)
(0.000668691 -0.00875551 0)
(0.00424366 -0.0137098 0)
(0.00865943 -0.0135722 0)
(0.0124094 -0.0120794 0)
(0.0157735 -0.0109727 0)
(0.0187187 -0.0104271 0)
(0.0215581 -0.0101492 0)
(0.0243318 -0.00990124 0)
(0.0270303 -0.00960812 0)
(0.029633 -0.00927703 0)
(0.0321212 -0.00892952 0)
(0.0344883 -0.00857695 0)
(0.0367365 -0.00822519 0)
(0.0388683 -0.00787692 0)
(0.0408863 -0.00753317 0)
(0.0427944 -0.00719628 0)
(0.0445968 -0.00686839 0)
(0.0462987 -0.00655067 0)
(0.047905 -0.00624329 0)
(0.0494205 -0.00594662 0)
(0.0508505 -0.00566112 0)
(0.0522014 -0.0053866 0)
(0.0534762 -0.00512261 0)
(0.0546792 -0.00486893 0)
(0.0558147 -0.00462483 0)
(0.0568849 -0.00438928 0)
(0.0578935 -0.0041609 0)
(0.0588423 -0.00393978 0)
(0.059732 -0.00372845 0)
(0.0605633 -0.003523 0)
(0.0613375 -0.00332441 0)
(0.0620556 -0.00313096 0)
(0.0627196 -0.00293887 0)
(0.0633326 -0.00274087 0)
(0.0638973 -0.00252709 0)
(0.0644169 -0.00228984 0)
(0.0648931 -0.00202886 0)
(0.0653275 -0.00174925 0)
(0.0657241 -0.00145747 0)
(0.0660888 -0.00115921 0)
(0.0664239 -0.000852748 0)
(0.0667349 -0.000535338 0)
(0.0670179 -0.000208411 0)
(0.0672643 0.0001141 0)
(0.0674705 0.000423972 0)
(0.0676327 0.000721315 0)
(0.067746 0.00100545 0)
(0.0678022 0.00127121 0)
(0.0677896 0.00151064 0)
(0.067696 0.00171849 0)
(0.0675144 0.00189531 0)
(0.0672421 0.00204468 0)
(0.0668819 0.00217335 0)
(0.066442 0.0022915 0)
(0.065929 0.00240754 0)
(0.0653493 0.00252634 0)
(0.0647087 0.00264939 0)
(0.064009 0.00277553 0)
(0.0632526 0.00290298 0)
(0.0624429 0.00303048 0)
(0.061581 0.00315711 0)
(0.0606685 0.00328151 0)
(0.0597078 0.00340303 0)
(0.0587015 0.00352167 0)
(0.0576528 0.00363648 0)
(0.0565642 0.00374645 0)
(0.0554376 0.00385084 0)
(0.0542761 0.00394923 0)
(0.0530823 0.00404098 0)
(0.0518583 0.00412602 0)
(0.0506081 0.00420399 0)
(0.0493354 0.00427421 0)
(0.0480427 0.004336 0)
(0.0467324 0.00438889 0)
(0.0454076 0.00443266 0)
(0.0440719 0.00446688 0)
(0.0427292 0.0044913 0)
(0.0413823 0.00450577 0)
(0.0400339 0.00451053 0)
(0.0386878 0.00450598 0)
(0.0373478 0.00449314 0)
(0.0360169 0.00447312 0)
(0.0346986 0.00444734 0)
(0.0333968 0.00441565 0)
(0.0321121 0.00438148 0)
(0.0308487 0.00434433 0)
(0.0296108 0.0043063 0)
(0.0283994 0.00426989 0)
(0.0272165 0.00423536 0)
(0.0260647 0.0042062 0)
(0.02495 0.00418323 0)
(0.0238726 0.00417052 0)
(0.0228338 0.00416983 0)
(0.0218414 0.00418608 0)
(0.0209007 0.00421884 0)
(0.020019 0.00427019 0)
(0.019211 0.00434294 0)
(0.0184978 0.00443932 0)
(0.0178962 0.00455723 0)
(0.0174158 0.00468095 0)
(0.0170606 0.00477736 0)
(0.0168194 0.00481016 0)
(0.0166691 0.00474644 0)
(0.0165836 0.00456525 0)
(0.0165356 0.00426619 0)
(0.0164993 0.00386497 0)
(0.0164524 0.00338399 0)
(0.0163769 0.0028436 0)
(0.0162584 0.00226505 0)
(0.0160842 0.00167308 0)
(0.015846 0.0010993 0)
(0.0155427 0.000586246 0)
(0.0151817 0.000180999 0)
(0.0147798 -9.88864e-05 0)
(0.0143608 -0.000273334 0)
(0.013948 -0.000378806 0)
(0.0135668 -0.000446303 0)
(0.0132375 -0.000493539 0)
(0.0129674 -0.000531182 0)
(0.0127635 -0.000563709 0)
(0.012624 -0.000591086 0)
(0.0125471 -0.000608998 0)
(0.0125289 -0.000612977 0)
(0.0125621 -0.000600146 0)
(0.012638 -0.000571687 0)
(0.0127445 -0.00052948 0)
(0.0128694 -0.0004773 0)
(0.0130034 -0.000416773 0)
(0.013136 -0.000347427 0)
(0.0132559 -0.000268889 0)
(0.0133527 -0.000179628 0)
(0.0134166 -8.12777e-05 0)
(0.0134362 2.59896e-05 0)
(0.0134007 0.000139337 0)
(0.013298 0.000260277 0)
(0.0131156 0.00038544 0)
(0.0128446 0.00051075 0)
(0.0124775 0.000633071 0)
(0.0120027 0.00074947 0)
(0.0114168 0.000856886 0)
(0.0107192 0.000951227 0)
(0.00990611 0.00103147 0)
(0.00897847 0.00109734 0)
(0.00795116 0.00114767 0)
(0.0068057 0.00118642 0)
(0.00559509 0.0012252 0)
(0.00419373 0.00127275 0)
(0.00291563 0.0011061 0)
(0.00168431 0.000565402 0)
(0.00121105 0.00171403 0)
(0.000663521 -0.0122073 0)
(0.00446414 -0.0194462 0)
(0.00914839 -0.0194788 0)
(0.0132841 -0.017325 0)
(0.017011 -0.0155642 0)
(0.0202843 -0.0146449 0)
(0.0233913 -0.0142097 0)
(0.0264142 -0.0138723 0)
(0.0293585 -0.0134689 0)
(0.0322055 -0.0129919 0)
(0.0349354 -0.0124769 0)
(0.0375385 -0.0119524 0)
(0.0400119 -0.0114299 0)
(0.0423586 -0.0109143 0)
(0.0445807 -0.0104073 0)
(0.04668 -0.00991189 0)
(0.0486597 -0.00943022 0)
(0.0505239 -0.00896436 0)
(0.0522769 -0.00851536 0)
(0.0539234 -0.00808394 0)
(0.0554677 -0.00766979 0)
(0.0569142 -0.00727214 0)
(0.0582678 -0.00689069 0)
(0.059533 -0.00652264 0)
(0.0607126 -0.00616809 0)
(0.0618114 -0.0058247 0)
(0.0628334 -0.00549051 0)
(0.0637802 -0.00516348 0)
(0.0646539 -0.00484177 0)
(0.0654552 -0.0045227 0)
(0.066185 -0.0042028 0)
(0.0668441 -0.00387947 0)
(0.0674307 -0.00355033 0)
(0.0679458 -0.00321369 0)
(0.068392 -0.00286848 0)
(0.0687734 -0.00251513 0)
(0.0690962 -0.00215591 0)
(0.0693664 -0.00179338 0)
(0.0695869 -0.00142922 0)
(0.0697582 -0.00106575 0)
(0.0698823 -0.000705064 0)
(0.0699622 -0.000348274 0)
(0.0699974 -1.67742e-06 0)
(0.069988 0.000334075 0)
(0.0699385 0.000659314 0)
(0.0698497 0.000972411 0)
(0.0697194 0.00127266 0)
(0.0695465 0.00155959 0)
(0.0693284 0.00183169 0)
(0.0690605 0.00208797 0)
(0.0687367 0.00232853 0)
(0.0683522 0.00255447 0)
(0.0679046 0.00276918 0)
(0.0673929 0.00297604 0)
(0.0668193 0.00317801 0)
(0.0661872 0.00337808 0)
(0.0654992 0.00357668 0)
(0.0647588 0.00377389 0)
(0.0639693 0.00396973 0)
(0.0631333 0.0041623 0)
(0.0622526 0.00435073 0)
(0.0613294 0.00453465 0)
(0.0603661 0.00471338 0)
(0.0593644 0.00488625 0)
(0.0583254 0.00505269 0)
(0.0572512 0.00521089 0)
(0.0561446 0.0053605 0)
(0.0550073 0.00550101 0)
(0.0538417 0.0056316 0)
(0.0526503 0.00575201 0)
(0.0514348 0.00586199 0)
(0.0501974 0.00596043 0)
(0.0489409 0.00604684 0)
(0.047668 0.00612089 0)
(0.0463812 0.00618219 0)
(0.0450825 0.00623046 0)
(0.0437741 0.00626527 0)
(0.0424586 0.00628647 0)
(0.0411383 0.00629408 0)
(0.0398155 0.00628859 0)
(0.0384934 0.00627126 0)
(0.0371756 0.00624268 0)
(0.0358626 0.00620413 0)
(0.0345563 0.00615665 0)
(0.0332605 0.00610082 0)
(0.031979 0.0060392 0)
(0.0307157 0.00597293 0)
(0.0294711 0.00590282 0)
(0.0282496 0.00583079 0)
(0.0270541 0.00575895 0)
(0.0258887 0.00568994 0)
(0.0247572 0.00562429 0)
(0.0236638 0.00556593 0)
(0.022613 0.00551694 0)
(0.0216085 0.00547845 0)
(0.0206613 0.0054519 0)
(0.0197761 0.00543687 0)
(0.0189601 0.00542941 0)
(0.0182237 0.00542031 0)
(0.0175739 0.00539868 0)
(0.0170149 0.00535 0)
(0.0165413 0.00526009 0)
(0.0161335 0.00511814 0)
(0.0157662 0.00492085 0)
(0.0154131 0.00467069 0)
(0.0150493 0.00437697 0)
(0.0146538 0.00405041 0)
(0.0142118 0.00370232 0)
(0.0137149 0.00334203 0)
(0.0131575 0.00297575 0)
(0.0125383 0.00261054 0)
(0.0118669 0.00225008 0)
(0.0111615 0.00190074 0)
(0.010449 0.00157317 0)
(0.00975949 0.0012745 0)
(0.00910858 0.00100803 0)
(0.00850259 0.000774062 0)
(0.00794249 0.0005661 0)
(0.00742582 0.000376322 0)
(0.00695228 0.00020245 0)
(0.00652103 4.38715e-05 0)
(0.00613043 -9.83374e-05 0)
(0.00578084 -0.00022181 0)
(0.00547357 -0.000323373 0)
(0.00521183 -0.000400005 0)
(0.00499786 -0.000451265 0)
(0.00483058 -0.000476955 0)
(0.00470893 -0.000478336 0)
(0.0046267 -0.000456808 0)
(0.00457931 -0.000411175 0)
(0.00456356 -0.000340275 0)
(0.0045738 -0.000242221 0)
(0.00460225 -0.000117938 0)
(0.00464516 3.3878e-05 0)
(0.004695 0.000210308 0)
(0.00473616 0.000409069 0)
(0.00475821 0.000626106 0)
(0.00474991 0.000857001 0)
(0.0046978 0.00109738 0)
(0.00459179 0.00134226 0)
(0.00442324 0.00158288 0)
(0.0041837 0.00181503 0)
(0.00386832 0.00203275 0)
(0.00347561 0.00223719 0)
(0.00297574 0.00244401 0)
(0.00239736 0.00266295 0)
(0.00163037 0.00278122 0)
(0.00114629 0.00231505 0)
(0.000853165 0.00126609 0)
(0.00112815 0.00343902 0)
(0.000658996 -0.0157697 0)
(0.0045668 -0.0254442 0)
(0.00940578 -0.0257237 0)
(0.0137473 -0.02297 0)
(0.0176714 -0.0205597 0)
(0.0211207 -0.0192256 0)
(0.0243607 -0.0185769 0)
(0.0274902 -0.0181124 0)
(0.0305277 -0.0175842 0)
(0.0334624 -0.0169563 0)
(0.0362764 -0.0162691 0)
(0.0389586 -0.0155636 0)
(0.041506 -0.0148595 0)
(0.0439187 -0.0141631 0)
(0.0461985 -0.0134786 0)
(0.0483479 -0.0128081 0)
(0.0503698 -0.0121559 0)
(0.0522678 -0.0115243 0)
(0.0540458 -0.0109161 0)
(0.055708 -0.0103311 0)
(0.0572594 -0.0097707 0)
(0.0587044 -0.00923369 0)
(0.0600492 -0.00871857 0)
(0.0612976 -0.0082245 0)
(0.0624535 -0.00774962 0)
(0.0635216 -0.00729098 0)
(0.0645049 -0.00684822 0)
(0.0654065 -0.00641933 0)
(0.0662288 -0.00600151 0)
(0.0669757 -0.00559275 0)
(0.0676506 -0.00519007 0)
(0.068256 -0.00479113 0)
(0.0687952 -0.00439286 0)
(0.0692719 -0.0039935 0)
(0.0696902 -0.00358984 0)
(0.0700537 -0.00318055 0)
(0.0703653 -0.00276565 0)
(0.0706281 -0.00234554 0)
(0.0708441 -0.00192119 0)
(0.0710136 -0.00149381 0)
(0.071137 -0.00106305 0)
(0.0712147 -0.000632054 0)
(0.0712489 -0.000202143 0)
(0.071241 0.000224813 0)
(0.071186 0.000644138 0)
(0.07108 0.00105266 0)
(0.0709239 0.00144776 0)
(0.0707176 0.00182773 0)
(0.0704609 0.00219116 0)
(0.070153 0.00253711 0)
(0.0697922 0.00286649 0)
(0.0693766 0.0031808 0)
(0.068904 0.00348201 0)
(0.0683742 0.00377277 0)
(0.0677881 0.00405543 0)
(0.0671469 0.00433131 0)
(0.0664529 0.00460096 0)
(0.0657087 0.00486554 0)
(0.0649152 0.00512498 0)
(0.0640748 0.00537921 0)
(0.0631905 0.00562686 0)
(0.0622636 0.00586716 0)
(0.0612957 0.00609945 0)
(0.0602887 0.00632275 0)
(0.0592438 0.00653654 0)
(0.058163 0.00674049 0)
(0.0570493 0.00693303 0)
(0.0559043 0.00711364 0)
(0.0547299 0.00728184 0)
(0.0535279 0.00743666 0)
(0.0523002 0.00757767 0)
(0.0510495 0.00770422 0)
(0.0497781 0.00781584 0)
(0.0484882 0.0079121 0)
(0.0471815 0.00799254 0)
(0.0458609 0.00805678 0)
(0.044529 0.00810455 0)
(0.0431879 0.00813572 0)
(0.0418393 0.00815011 0)
(0.040487 0.00814919 0)
(0.0391336 0.00813373 0)
(0.0377804 0.00810281 0)
(0.0364309 0.00805738 0)
(0.0350873 0.00799955 0)
(0.0337525 0.0079302 0)
(0.0324312 0.00785093 0)
(0.0311258 0.00776241 0)
(0.0298386 0.00766556 0)
(0.0285738 0.00756421 0)
(0.0273353 0.00745724 0)
(0.0261269 0.00734745 0)
(0.0249516 0.00723532 0)
(0.023813 0.00712415 0)
(0.0227156 0.00701372 0)
(0.0216645 0.00690629 0)
(0.020665 0.00680124 0)
(0.0197219 0.00669629 0)
(0.01884 0.00659159 0)
(0.0180233 0.00648184 0)
(0.0172727 0.00636077 0)
(0.0165867 0.0062203 0)
(0.0159577 0.00605068 0)
(0.0153741 0.00584372 0)
(0.0148243 0.00559493 0)
(0.014297 0.00530451 0)
(0.0137813 0.00497338 0)
(0.0132674 0.00460633 0)
(0.0127511 0.00421236 0)
(0.0122292 0.00380123 0)
(0.0117009 0.00338433 0)
(0.0111615 0.00297547 0)
(0.0106053 0.0025899 0)
(0.0100363 0.00223982 0)
(0.00945616 0.00193276 0)
(0.00886543 0.00166823 0)
(0.00827098 0.00143829 0)
(0.00767773 0.00123619 0)
(0.00708737 0.0010554 0)
(0.00650372 0.000890862 0)
(0.00592782 0.000738055 0)
(0.00535817 0.000595172 0)
(0.00479713 0.000459337 0)
(0.00424738 0.000331195 0)
(0.00371316 0.000213588 0)
(0.0031979 0.000109715 0)
(0.00270415 2.11854e-05 0)
(0.00223737 -5.0688e-05 0)
(0.001802 -0.000105401 0)
(0.00140157 -0.000141408 0)
(0.00103888 -0.000155233 0)
(0.000716737 -0.000144918 0)
(0.000435739 -0.000105956 0)
(0.000199792 -3.77781e-05 0)
(8.44197e-06 6.64383e-05 0)
(-0.00014209 0.000202347 0)
(-0.000252295 0.000370314 0)
(-0.000323716 0.000568913 0)
(-0.000361158 0.000795101 0)
(-0.000373474 0.00104495 0)
(-0.000367636 0.00131283 0)
(-0.000348792 0.00159101 0)
(-0.000325831 0.00187031 0)
(-0.00030489 0.00214537 0)
(-0.000292569 0.002431 0)
(-0.000330553 0.00276034 0)
(-0.000400278 0.00309658 0)
(-0.000567759 0.00310333 0)
(-0.000314635 0.00214001 0)
(0.000161862 0.000729919 0)
(0.000928325 0.0044271 0)
(0.00066123 -0.019379 0)
(0.00464435 -0.0315734 0)
(0.00965431 -0.0321716 0)
(0.0142217 -0.0288125 0)
(0.0183224 -0.0257096 0)
(0.0218918 -0.0239091 0)
(0.0252008 -0.0230079 0)
(0.0283717 -0.022393 0)
(0.0314385 -0.0217263 0)
(0.0343947 -0.0209383 0)
(0.0372223 -0.0200716 0)
(0.0399088 -0.0191768 0)
(0.0424513 -0.0182819 0)
(0.0448507 -0.0173971 0)
(0.0471101 -0.016527 0)
(0.0492325 -0.0156755 0)
(0.0512218 -0.0148461 0)
(0.0530833 -0.0140431 0)
(0.0548231 -0.0132701 0)
(0.0564459 -0.0125276 0)
(0.0579567 -0.0118156 0)
(0.0593628 -0.011134 0)
(0.0606688 -0.010481 0)
(0.06188 -0.00985556 0)
(0.0630027 -0.00925484 0)
(0.0640402 -0.00867636 0)
(0.0649962 -0.00811726 0)
(0.0658761 -0.00757478 0)
(0.066683 -0.00704572 0)
(0.0674192 -0.00652709 0)
(0.0680883 -0.00601658 0)
(0.0686932 -0.00551177 0)
(0.0692339 -0.00501072 0)
(0.069714 -0.00451126 0)
(0.0701373 -0.00401319 0)
(0.0705047 -0.00351566 0)
(0.070819 -0.00301723 0)
(0.0710835 -0.00252036 0)
(0.0712988 -0.00202528 0)
(0.0714672 -0.00153252 0)
(0.0715885 -0.0010431 0)
(0.0716638 -0.000558171 0)
(0.0716948 -7.92252e-05 0)
(0.0716781 0.000391543 0)
(0.0716164 0.000853285 0)
(0.0715117 0.00130554 0)
(0.0713609 0.00174762 0)
(0.0711619 0.00217922 0)
(0.0709114 0.00259957 0)
(0.0706078 0.00300846 0)
(0.0702503 0.00340554 0)
(0.0698368 0.00379101 0)
(0.0693673 0.00416609 0)
(0.0688416 0.00453234 0)
(0.0682597 0.00488978 0)
(0.0676222 0.00523923 0)
(0.066931 0.00558175 0)
(0.0661889 0.00591633 0)
(0.0653974 0.00624259 0)
(0.0645572 0.00656113 0)
(0.0636694 0.00687089 0)
(0.0627368 0.00717071 0)
(0.0617613 0.00745998 0)
(0.0607449 0.00773788 0)
(0.0596894 0.00800356 0)
(0.0585954 0.00825706 0)
(0.0574653 0.00849655 0)
(0.0563018 0.00872137 0)
(0.0551067 0.00893079 0)
(0.0538822 0.00912392 0)
(0.0526304 0.00930015 0)
(0.0513532 0.00945889 0)
(0.0500534 0.00959939 0)
(0.0487335 0.00972104 0)
(0.0473959 0.00982359 0)
(0.0460429 0.00990678 0)
(0.0446771 0.00997013 0)
(0.0433011 0.0100126 0)
(0.0419189 0.0100359 0)
(0.0405342 0.0100403 0)
(0.0391466 0.0100251 0)
(0.03776 0.00999102 0)
(0.0363792 0.00993879 0)
(0.0350062 0.00986917 0)
(0.0336444 0.00978342 0)
(0.0322975 0.00968289 0)
(0.0309689 0.00956792 0)
(0.0296637 0.0094406 0)
(0.0283836 0.00930237 0)
(0.0271306 0.00915461 0)
(0.025911 0.00899907 0)
(0.024729 0.0088361 0)
(0.0235879 0.00866766 0)
(0.0224908 0.00849581 0)
(0.0214405 0.00832152 0)
(0.0204412 0.00814461 0)
(0.0194984 0.00796361 0)
(0.0186141 0.00777758 0)
(0.0177889 0.00758468 0)
(0.0170237 0.00738042 0)
(0.0163177 0.00715996 0)
(0.0156676 0.00692062 0)
(0.0150666 0.00665946 0)
(0.0145083 0.00637523 0)
(0.013982 0.00607021 0)
(0.0134754 0.00574665 0)
(0.0129818 0.00541 0)
(0.0124926 0.00506572 0)
(0.0119988 0.00471761 0)
(0.0114942 0.00437056 0)
(0.0109754 0.00402782 0)
(0.0104431 0.00369502 0)
(0.00989904 0.00337664 0)
(0.00934772 0.00307632 0)
(0.00879334 0.00279604 0)
(0.00823861 0.00253695 0)
(0.00768815 0.00229855 0)
(0.00714205 0.00207992 0)
(0.00659851 0.00187886 0)
(0.00605872 0.00169235 0)
(0.00551981 0.00151912 0)
(0.00497757 0.00135949 0)
(0.00443464 0.00121089 0)
(0.00389229 0.00107292 0)
(0.00335124 0.000945621 0)
(0.00281352 0.000829653 0)
(0.00228152 0.000726118 0)
(0.00176001 0.000635911 0)
(0.0012528 0.000559989 0)
(0.00076274 0.000500342 0)
(0.000295423 0.00045969 0)
(-0.00014692 0.000440138 0)
(-0.000555245 0.000446188 0)
(-0.000923607 0.000478527 0)
(-0.00125103 0.000539225 0)
(-0.00153133 0.000632372 0)
(-0.00176112 0.000757094 0)
(-0.00193787 0.00091217 0)
(-0.00206144 0.00109431 0)
(-0.00213091 0.00130144 0)
(-0.00214724 0.00152567 0)
(-0.00211429 0.00175696 0)
(-0.00203421 0.0019973 0)
(-0.00191641 0.00227676 0)
(-0.00179038 0.00263389 0)
(-0.0016363 0.00296242 0)
(-0.00148968 0.00272627 0)
(-0.000931915 0.0012582 0)
(-0.000189916 -0.000354688 0)
(0.000734314 0.00491646 0)
(0.000651753 -0.0230332 0)
(0.00470333 -0.0378882 0)
(0.00993514 -0.0389526 0)
(0.0148191 -0.0349991 0)
(0.019184 -0.0311082 0)
(0.0229271 -0.02873 0)
(0.0263197 -0.0275109 0)
(0.0295306 -0.0267156 0)
(0.032625 -0.0258973 0)
(0.0356012 -0.0249379 0)
(0.0384397 -0.0238772 0)
(0.0411248 -0.0227776 0)
(0.0436522 -0.0216767 0)
(0.046024 -0.0205899 0)
(0.0482445 -0.0195236 0)
(0.0503214 -0.0184821 0)
(0.0522607 -0.0174703 0)
(0.0540664 -0.0164935 0)
(0.055748 -0.0155545 0)
(0.0573144 -0.0146554 0)
(0.0587711 -0.0137957 0)
(0.0601251 -0.0129749 0)
(0.0613836 -0.0121914 0)
(0.0625521 -0.0114422 0)
(0.0636366 -0.0107249 0)
(0.0646419 -0.0100368 0)
(0.0655718 -0.00937372 0)
(0.0664301 -0.00873304 0)
(0.0672196 -0.0081114 0)
(0.0679432 -0.00750599 0)
(0.0686034 -0.00691415 0)
(0.0692025 -0.00633338 0)
(0.0697433 -0.00576144 0)
(0.0702269 -0.0051946 0)
(0.0706552 -0.0046316 0)
(0.0710331 -0.00407093 0)
(0.0713587 -0.00351131 0)
(0.0716324 -0.00295236 0)
(0.0718584 -0.00239437 0)
(0.072036 -0.00183739 0)
(0.0721649 -0.00128263 0)
(0.0722451 -0.000729954 0)
(0.0722774 -0.000181318 0)
(0.0722637 0.000363043 0)
(0.0722015 0.000902513 0)
(0.0720875 0.00143452 0)
(0.0719232 0.00195752 0)
(0.0717077 0.00247 0)
(0.0714401 0.00297056 0)
(0.0711196 0.00345959 0)
(0.0707445 0.00393698 0)
(0.0703149 0.00440293 0)
(0.0698308 0.00485807 0)
(0.0692909 0.00530219 0)
(0.0686954 0.00573698 0)
(0.068047 0.00616158 0)
(0.0673453 0.00657702 0)
(0.0665908 0.00698326 0)
(0.0657863 0.00737888 0)
(0.0649332 0.00776348 0)
(0.0640319 0.00813716 0)
(0.0630843 0.00849932 0)
(0.0620924 0.00884833 0)
(0.0610579 0.00918381 0)
(0.0599828 0.0095046 0)
(0.058868 0.00980976 0)
(0.0577155 0.0100982 0)
(0.0565283 0.0103694 0)
(0.0553081 0.0106222 0)
(0.054057 0.010856 0)
(0.0527772 0.0110694 0)
(0.0514714 0.0112619 0)
(0.050142 0.0114329 0)
(0.0487916 0.0115815 0)
(0.0474229 0.0117072 0)
(0.0460385 0.0118095 0)
(0.0446402 0.0118878 0)
(0.0432335 0.0119426 0)
(0.0418217 0.0119741 0)
(0.0404058 0.0119812 0)
(0.0389891 0.011964 0)
(0.0375757 0.0119243 0)
(0.0361691 0.0118615 0)
(0.0347723 0.011777 0)
(0.0333893 0.0116712 0)
(0.0320237 0.0115456 0)
(0.030679 0.0114012 0)
(0.0293591 0.0112391 0)
(0.0280674 0.0110604 0)
(0.0268078 0.0108672 0)
(0.0255831 0.0106613 0)
(0.0243964 0.0104445 0)
(0.0232534 0.0102176 0)
(0.0221574 0.00998046 0)
(0.0211101 0.00973537 0)
(0.0201131 0.00948319 0)
(0.0191701 0.00922523 0)
(0.0182852 0.0089589 0)
(0.0174574 0.00868419 0)
(0.0166842 0.00839891 0)
(0.0159669 0.0081025 0)
(0.0153011 0.00779164 0)
(0.0146781 0.00746489 0)
(0.014094 0.00712246 0)
(0.0135423 0.00676455 0)
(0.0130161 0.00639446 0)
(0.0125094 0.00601607 0)
(0.0120149 0.00563263 0)
(0.0115277 0.00525057 0)
(0.0110454 0.00487643 0)
(0.0105646 0.0045158 0)
(0.0100815 0.00417502 0)
(0.00959708 0.0038572 0)
(0.00910982 0.00356497 0)
(0.00861756 0.00329934 0)
(0.00812364 0.00305921 0)
(0.00763008 0.00284344 0)
(0.00713626 0.00264758 0)
(0.00664232 0.00246784 0)
(0.00614914 0.00230337 0)
(0.00565795 0.00215042 0)
(0.00516657 0.002008 0)
(0.00467292 0.00187516 0)
(0.00418033 0.00175058 0)
(0.00368903 0.00163428 0)
(0.00319821 0.00152525 0)
(0.00270934 0.00142311 0)
(0.00222327 0.00132935 0)
(0.00174264 0.00124495 0)
(0.00127084 0.00117126 0)
(0.000810104 0.00110942 0)
(0.000364273 0.001061 0)
(-6.13298e-05 0.00103077 0)
(-0.000464417 0.00101774 0)
(-0.000835885 0.00102555 0)
(-0.00117014 0.00105607 0)
(-0.00146433 0.0011107 0)
(-0.00171282 0.00118938 0)
(-0.00191003 0.00129279 0)
(-0.0020511 0.00141749 0)
(-0.00213592 0.00155768 0)
(-0.0021625 0.00170499 0)
(-0.00212938 0.0018672 0)
(-0.00203919 0.00208308 0)
(-0.00190909 0.00239538 0)
(-0.00172202 0.00264799 0)
(-0.00151909 0.00218958 0)
(-0.0010001 0.000307594 0)
(-0.000310256 -0.00149161 0)
(0.000598911 0.00514729 0)
(0.000628945 -0.0267081 0)
(0.00473998 -0.0444085 0)
(0.0102175 -0.0461471 0)
(0.0155047 -0.0416619 0)
(0.0202426 -0.036872 0)
(0.0242432 -0.0337648 0)
(0.0277676 -0.0321156 0)
(0.0310432 -0.0310924 0)
(0.0341748 -0.0301089 0)
(0.0371808 -0.0289702 0)
(0.0400411 -0.0277 0)
(0.0427345 -0.0263745 0)
(0.0452534 -0.0250465 0)
(0.0475993 -0.0237386 0)
(0.0497814 -0.0224604 0)
(0.0518086 -0.0212178 0)
(0.0536887 -0.0200163 0)
(0.0554319 -0.0188611 0)
(0.057049 -0.0177554 0)
(0.0585496 -0.0167011 0)
(0.0599422 -0.0156976 0)
(0.0612356 -0.0147429 0)
(0.0624382 -0.0138347 0)
(0.0635562 -0.0129696 0)
(0.0645955 -0.012143 0)
(0.0655616 -0.0113514 0)
(0.066458 -0.0105906 0)
(0.0672887 -0.00985654 0)
(0.0680566 -0.00914536 0)
(0.0687633 -0.00845188 0)
(0.0694115 -0.0077745 0)
(0.070003 -0.00710941 0)
(0.070539 -0.00645365 0)
(0.0710214 -0.00580497 0)
(0.0714505 -0.00516142 0)
(0.071827 -0.0045218 0)
(0.0721519 -0.00388654 0)
(0.072426 -0.00325343 0)
(0.0726495 -0.0026233 0)
(0.0728233 -0.00199631 0)
(0.0729473 -0.00137279 0)
(0.0730212 -0.000753024 0)
(0.0730461 -0.000137798 0)
(0.0730206 0.000471348 0)
(0.0729445 0.00107297 0)
(0.0728188 0.00166774 0)
(0.0726422 0.00225501 0)
(0.0724128 0.00283323 0)
(0.0721299 0.00340284 0)
(0.0717938 0.0039626 0)
(0.0714032 0.00451208 0)
(0.0709574 0.00505197 0)
(0.0704558 0.00558136 0)
(0.0698998 0.00610003 0)
(0.0692889 0.00660863 0)
(0.0686229 0.00710742 0)
(0.0679048 0.00759487 0)
(0.0671337 0.00807119 0)
(0.0663107 0.00853657 0)
(0.0654386 0.00898907 0)
(0.0645183 0.00942813 0)
(0.06355 0.00985342 0)
(0.062536 0.0102635 0)
(0.0614788 0.0106574 0)
(0.0603793 0.0110344 0)
(0.0592387 0.0113931 0)
(0.0580595 0.0117324 0)
(0.0568447 0.0120516 0)
(0.0555957 0.0123493 0)
(0.0543146 0.0126247 0)
(0.0530038 0.0128765 0)
(0.0516662 0.013104 0)
(0.0503041 0.0133062 0)
(0.0489203 0.0134822 0)
(0.0475176 0.0136314 0)
(0.0460982 0.0137533 0)
(0.0446667 0.0138466 0)
(0.0432267 0.013913 0)
(0.0417796 0.0139505 0)
(0.0403296 0.0139591 0)
(0.0388803 0.0139395 0)
(0.0374345 0.013892 0)
(0.0359969 0.0138162 0)
(0.0345707 0.0137144 0)
(0.0331593 0.0135863 0)
(0.0317672 0.0134326 0)
(0.0303975 0.0132548 0)
(0.0290548 0.0130547 0)
(0.0277425 0.0128331 0)
(0.0264634 0.0125918 0)
(0.0252233 0.0123323 0)
(0.0240247 0.012057 0)
(0.022868 0.011767 0)