/*--------------------------------*- C++ -*----------------------------------*\
| =========                 |                                                 |
| \\      /  F ield         | OpenFOAM: The Open Source CFD Toolbox           |
|  \\    /   O peration     | Version:  v2006                                 |
|   \\  /    A nd           | Website:  www.openfoam.com                      |
|    \\/     M anipulation  |                                                 |
\*---------------------------------------------------------------------------*/
FoamFile
{
    version     2.0;
    format      ascii;
    class       volScalarField;
    location    "0";
    object      shifted_f;
}
// * * * * * * * * * * * * * * * * * * * * * * * * * * * * * * * * * * * * * //

dimensions      [0 0 0 0 0 0 0];


internalField   nonuniform List<scalar> 
2500
(
0.000207774
0.000207778
0.000207778
0.000207748
0.000207718
0.000207715
0.000207689
0.000207737
0.000207767
0.000207722
0.000207696
0.000207689
0.000207689
0.000207659
0.000207644
0.000207681
0.000207625
0.000207614
0.000207637
0.000207622
0.000207551
0.000207592
0.000207584
0.000204835
0.000204813
0.000204775
0.000204794
0.000204764
0.000204772
0.000204813
0.000204742
0.000204761
0.000204761
0.000204705
0.000204738
0.000204716
0.000204723
0.000204686
0.000204701
0.000204679
0.000204682
0.000204645
0.000204664
0.000204682
0.000204615
0.000204626
0.000204653
0.000204612
0.000204612
0.000204604
0.000204537
0.000204541
0.000204552
0.000204522
0.000204481
0.000204515
0.000204485
0.000204466
0.000204463
0.000204455
0.000204436
0.000204418
0.000204485
0.000204414
0.000204403
0.000204459
0.000204444
0.000204455
0.000204399
0.000204396
0.000204407
0.000204392
0.000204343
0.000204366
0.000204373
0.000204366
0.000204358
0.000204347
0.000204336
0.000204355
0.000204284
0.000204302
0.000204284
0.000204273
0.000204276
0.00020431
0.000204258
0.000204254
0.000204198
0.000204202
0.000204176
0.000204213
0.000204224
0.000204224
0.000204202
0.000204183
0.000204209
0.000204179
0.000204179
0.000204165
0.000204179
0.000204165
0.000204116
0.000204083
0.000204116
0.000204161
0.000204138
0.000204153
0.000204086
0.000204075
0.000204105
0.000204053
0.000204105
0.000204116
0.00020409
0.000204079
0.00020409
0.000204045
0.000204019
0.000203978
0.000204004
0.000203978
0.000203997
0.000204008
0.000201255
0.000201285
0.000201274
0.000201296
0.00020121
0.000201229
0.000201244
0.000201244
0.000201188
0.000201151
0.000201117
0.000201166
0.000201155
0.00020114
0.000201058
0.000201125
0.000201125
0.000201106
0.00020108
0.000201128
0.00020114
0.000201017
0.000201065
0.000201043
0.00020108
0.000201084
0.000201013
0.000200991
0.000201005
0.000201043
0.000201013
0.000200998
0.000200931
0.000200935
0.000200965
0.000201013
0.00020095
0.000200965
0.000200938
0.000200924
0.000200946
0.000200935
0.000200953
0.000200875
0.000200856
0.00020086
0.00020089
0.000200823
0.00020086
0.000200778
0.00020086
0.000200797
0.000200793
0.00020083
0.000200771
0.000200771
0.000200748
0.000200748
0.000200726
0.000200726
0.0002007
0.000200715
0.000200719
0.000200674
0.000200663
0.000200693
0.000200622
0.000200655
0.000200618
0.000200626
0.000200626
0.000200637
0.000200648
0.000200626
0.000200644
0.000200648
0.000200648
0.000200648
0.000200581
0.000200603
0.000200603
0.000200581
0.000200588
0.000200544
0.00020057
0.000200573
0.000200558
0.000200596
0.000200547
0.000200529
0.000200536
0.000200577
0.000200547
0.000200514
0.00020045
0.000200398
0.00020048
0.000200436
0.00020045
0.000200417
0.000200436
0.000197783
0.00019775
0.000197738
0.000197776
0.00019772
0.000197764
0.000197697
0.000197675
0.000197705
0.000197727
0.00019766
0.000197671
0.000197642
0.000197645
0.000197653
0.000197671
0.000197619
0.000197601
0.000197634
0.000197586
0.000197574
0.000197586
0.000197578
0.000197541
0.000197578
0.000197593
0.000197537
0.000197515
0.000197534
0.000197496
0.000197526
0.000197489
0.000197507
0.000197504
0.000197519
0.000197541
0.000197485
0.000197429
0.000197422
0.000197455
0.000197489
0.000197433
0.000197437
0.000197444
0.000197429
0.000197452
0.000197422
0.000197377
0.000197366
0.000197362
0.000197358
0.000197373
0.000197306
0.000197325
0.000197273
0.000197329
0.000197288
0.000197332
0.000197325
0.00019731
0.00019734
0.000197299
0.000197269
0.000197243
0.000197276
0.000197217
0.000197295
0.000197269
0.000197276
0.000197284
0.000197228
0.00019725
0.000197239
0.000197254
0.000197202
0.000197235
0.000197176
0.000197154
0.000197116
0.000197131
0.000197154
0.000197116
0.000197109
0.000197146
0.000197053
0.000197083
0.000197101
0.000197083
0.000197072
0.000197049
0.00019712
0.000197064
0.000197072
0.000197094
0.000197005
0.000197046
0.000197083
0.000197023
0.000197034
0.000197064
0.000197042
0.000194546
0.000194557
0.000194523
0.000194598
0.000194483
0.00019449
0.000194456
0.000194553
0.000194501
0.000194415
0.000194415
0.000194434
0.000194434
0.000194449
0.000194419
0.000194434
0.000194419
0.000194427
0.000194378
0.000194382
0.00019436
0.000194389
0.00019436
0.000194352
0.000194352
0.000194304
0.000194356
0.000194356
0.00019433
0.000194289
0.000194296
0.000194307
0.000194307
0.000194285
0.00019427
0.000194263
0.000194233
0.000194255
0.000194218
0.000194211
0.000194196
0.000194233
0.00019417
0.000194203
0.000194166
0.000194188
0.000194173
0.000194211
0.000194158
0.000194158
0.000194158
0.000194132
0.000194166
0.000194099
0.000194106
0.000194095
0.000194095
0.000194103
0.000194047
0.000194054
0.00019411
0.000194114
0.00019408
0.000194084
0.00019411
0.000194129
0.000194054
0.000194091
0.000194035
0.000194073
0.000194047
0.000194021
0.000193994
0.000194035
0.000194039
0.00019398
0.000194017
0.000194035
0.000193994
0.000193994
0.000193994
0.000193916
0.000193983
0.000193961
0.000193972
0.000193968
0.000193905
0.000193913
0.00019392
0.000193954
0.000193883
0.00019392
0.000193872
0.000193901
0.000193946
0.000193883
0.000193827
0.000193838
0.000193778
0.000193819
0.000193838
0.00019161
0.000191636
0.000191651
0.000191659
0.000191651
0.00019161
0.000191603
0.000191588
0.000191584
0.000191551
0.000191588
0.000191528
0.000191562
0.000191566
0.000191566
0.000191543
0.000191528
0.000191506
0.000191446
0.000191543
0.000191513
0.000191499
0.000191454
0.000191484
0.000191513
0.000191491
0.000191454
0.000191461
0.000191446
0.000191435
0.000191461
0.000191461
0.000191394
0.000191372
0.000191394
0.000191398
0.000191372
0.000191391
0.000191417
0.000191342
0.00019135
0.00019135
0.000191364
0.000191368
0.000191327
0.000191323
0.000191357
0.00019132
0.00019135
0.00019132
0.000191297
0.000191323
0.000191301
0.000191282
0.000191219
0.000191197
0.000191294
0.000191297
0.000191242
0.000191253
0.000191256
0.000191256
0.000191238
0.000191264
0.000191178
0.000191245
0.000191219
0.000191197
0.000191219
0.000191182
0.00019116
0.000191163
0.000191152
0.000191133
0.000191141
0.000191156
0.000191174
0.000191212
0.000191163
0.00019113
0.000191085
0.000191078
0.000191141
0.000191148
0.000191089
0.000191096
0.000191145
0.000191148
0.000191137
0.000191119
0.00019107
0.000191078
0.000191037
0.000191044
0.000191025
0.000191037
0.000190996
0.000191044
0.000191033
0.000190981
0.000190988
0.000189256
0.0001892
0.000189181
0.000189159
0.000189174
0.00018917
0.000189122
0.000189159
0.000189122
0.000189211
0.000189144
0.000189155
0.000189181
0.000189167
0.000189118
0.000189163
0.000189129
0.000189055
0.000189062
0.000189137
0.000189103
0.000189092
0.000189092
0.00018907
0.000189092
0.000189081
0.000189062
0.000189036
0.000189092
0.000189055
0.000189044
0.000189055
0.000189099
0.00018904
0.00018904
0.000189021
0.000189058
0.000189036
0.000188988
0.000189025
0.000189032
0.000188995
0.000188973
0.000188943
0.00018898
0.000188988
0.000188928
0.000188962
0.000188943
0.00018898
0.000188988
0.000188962
0.000188939
0.000188943
0.000188921
0.000188928
0.000188898
0.00018895
0.000188891
0.000188883
0.000188891
0.000188854
0.000188839
0.000188891
0.000188854
0.000188842
0.000188839
0.000188865
0.000188898
0.00018885
0.00018885
0.000188846
0.000188816
0.000188846
0.000188775
0.000188854
0.00018879
0.000188824
0.000188801
0.000188839
0.00018876
0.000188816
0.000188775
0.000188805
0.000188824
0.000188768
0.000188734
0.000188775
0.000188809
0.000188731
0.000188734
0.000188749
0.000188764
0.000188772
0.000188719
0.000188723
0.000188764
0.000188731
0.00018869
0.000188682
0.00018869
0.000187237
0.0001873
0.000187259
0.000187263
0.000187255
0.000187181
0.000187214
0.000187267
0.000187267
0.000187252
0.000187229
0.000187237
0.000187222
0.000187226
0.000187192
0.000187162
0.000187173
0.000187192
0.000187233
0.000187188
0.000187203
0.0001872
0.000187229
0.000187181
0.000187207
0.000187185
0.000187151
0.000187196
0.000187155
0.000187103
0.000187118
0.000187133
0.000187084
0.000187088
0.00018711
0.000187077
0.00018711
0.000187106
0.000187062
0.000187088
0.000187133
0.000187084
0.000187058
0.000187065
0.00018708
0.00018711
0.000187103
0.000187036
0.000187088
0.000187073
0.000187051
0.000187051
0.000187021
0.000187032
0.000186998
0.000187036
0.000186991
0.000187032
0.000186998
0.000186987
0.00018701
0.000186983
0.000187006
0.000186983
0.000186961
0.000186991
0.000186976
0.000186954
0.00018698
0.00018695
0.000187002
0.000186961
0.000186909
0.000186991
0.000186954
0.000186961
0.000186957
0.000186991
0.000186916
0.00018692
0.00018698
0.000186909
0.000186957
0.000186894
0.000186954
0.000186898
0.00018689
0.000186879
0.000186887
0.000186902
0.000186924
0.000186872
0.000186872
0.000186909
0.000186872
0.000186864
0.000186864
0.000186861
0.000186935
0.00018689
0.000186857
0.000186019
0.00018606
0.000186022
0.000185981
0.00018594
0.000185937
0.000185955
0.000185978
0.000185922
0.00018594
0.000185966
0.00018603
0.000185914
0.00018594
0.000185918
0.000185877
0.00018587
0.000185922
0.000185907
0.000185899
0.00018594
0.000185866
0.000185836
0.000185881
0.000185903
0.000185881
0.000185899
0.000185866
0.000185896
0.000185881
0.000185873
0.000185866
0.000185799
0.000185896
0.00018584
0.000185847
0.000185888
0.00018587
0.000185866
0.000185877
0.000185851
0.000185821
0.000185825
0.000185829
0.000185847
0.00018581
0.000185784
0.000185881
0.000185806
0.000185773
0.000185832
0.000185773
0.000185806
0.000185829
0.000185799
0.000185832
0.00018581
0.000185847
0.000185817
0.000185821
0.000185777
0.000185799
0.000185814
0.00018578
0.000185739
0.000185791
0.000185777
0.000185814
0.000185806
0.000185706
0.000185657
0.000185739
0.000185695
0.000185769
0.000185661
0.000185702
0.000185724
0.000185691
0.000185702
0.000185698
0.000185695
0.00018578
0.000185691
0.000185654
0.000185713
0.000185695
0.000185747
0.000185691
0.000185702
0.000185721
0.000185683
0.000185698
0.000185709
0.000185668
0.000185717
0.000185672
0.000185695
0.000185676
0.000185657
0.000185698
0.000185661
0.000185248
0.000185274
0.000185296
0.000185262
0.00018527
0.000185307
0.000185337
0.0001853
0.000185274
0.000185281
0.000185251
0.0001853
0.0001853
0.000185307
0.000185281
0.000185236
0.000185259
0.000185259
0.000185248
0.000185218
0.000185262
0.000185315
0.000185277
0.000185285
0.000185244
0.000185195
0.000185281
0.000185233
0.000185274
0.000185244
0.000185221
0.000185248
0.000185259
0.000185244
0.000185274
0.000185221
0.000185199
0.000185244
0.000185162
0.000185259
0.000185225
0.000185199
0.000185274
0.00018524
0.000185248
0.000185192
0.000185166
0.000185188
0.00018521
0.000185233
0.000185218
0.000185225
0.000185192
0.000185251
0.00018518
0.000185229
0.000185177
0.000185218
0.00018527
0.000185192
0.000185192
0.000185218
0.000185195
0.000185203
0.000185162
0.000185147
0.000185233
0.000185192
0.000185236
0.000185281
0.000185274
0.000185218
0.000185221
0.000185233
0.00018527
0.000185188
0.000185184
0.000185162
0.00018521
0.000185151
0.000185195
0.000185188
0.000185147
0.000185169
0.000185192
0.000185203
0.000185158
0.000185184
0.000185188
0.000185221
0.000185192
0.000185188
0.000185184
0.000185188
0.000185158
0.000185166
0.000185229
0.000185158
0.000185098
0.000185151
0.000185136
0.000185363
0.000185285
0.000185352
0.000185337
0.000185411
0.000185341
0.000185385
0.000185337
0.000185333
0.000185367
0.000185374
0.000185356
0.000185337
0.000185337
0.000185326
0.000185344
0.000185352
0.000185359
0.000185333
0.000185337
0.000185344
0.000185359
0.000185397
0.000185419
0.000185389
0.000185378
0.000185341
0.000185359
0.000185367
0.000185411
0.000185367
0.000185359
0.000185363
0.000185385
0.000185341
0.000185378
0.000185426
0.000185426
0.000185374
0.000185397
0.000185359
0.000185356
0.000185374
0.000185382
0.000185411
0.000185426
0.000185404
0.000185356
0.000185378
0.00018537
0.000185404
0.000185352
0.0001854
0.000185352
0.000185337
0.000185359
0.000185397
0.000185359
0.000185359
0.000185367
0.000185348
0.000185382
0.000185393
0.000185397
0.000185404
0.000185374
0.000185382
0.000185389
0.000185397
0.00018537
0.000185374
0.000185441
0.000185389
0.000185404
0.000185363
0.000185322
0.000185404
0.000185423
0.000185397
0.000185359
0.000185415
0.000185367
0.000185341
0.000185404
0.000185374
0.000185411
0.000185303
0.000185326
0.000185352
0.000185378
0.000185352
0.000185348
0.000185359
0.00018537
0.000185318
0.000185389
0.000185348
0.000185326
0.000185329
0.000185322
0.000185315
0.000186164
0.000186175
0.000186149
0.000186127
0.000186168
0.000186142
0.000186112
0.000186186
0.000186116
0.000186168
0.000186209
0.000186209
0.000186134
0.000186197
0.000186123
0.000186164
0.00018616
0.000186134
0.000186127
0.000186134
0.000186134
0.000186149
0.000186153
0.00018619
0.000186112
0.000186197
0.000186149
0.000186171
0.000186142
0.000186227
0.000186171
0.000186119
0.000186153
0.000186205
0.000186179
0.000186127
0.000186183
0.000186201
0.000186179
0.000186156
0.000186171
0.00018613
0.000186179
0.000186194
0.000186231
0.000186201
0.000186183
0.000186186
0.000186134
0.000186171
0.000186238
0.000186212
0.000186205
0.000186149
0.000186175
0.000186153
0.00018619
0.000186153
0.000186201
0.000186231
0.000186183
0.000186142
0.000186197
0.00018622
0.000186194
0.000186224
0.000186171
0.00018616
0.000186216
0.000186197
0.000186175
0.000186168
0.00018616
0.000186212
0.000186201
0.000186168
0.000186201
0.000186231
0.000186194
0.000186194
0.000186197
0.000186186
0.000186231
0.00018619
0.000186238
0.000186205
0.00018616
0.000186231
0.000186216
0.000186238
0.000186238
0.000186242
0.000186194
0.000186212
0.000186212
0.00018625
0.000186179
0.000186279
0.000186268
0.000186227
0.000186197
0.000187676
0.000187665
0.000187609
0.000187613
0.000187583
0.000187598
0.000187661
0.000187606
0.000187594
0.000187665
0.000187621
0.000187613
0.000187647
0.000187609
0.00018768
0.000187624
0.000187624
0.000187594
0.000187661
0.000187632
0.000187654
0.000187628
0.000187654
0.000187643
0.000187606
0.000187639
0.000187661
0.000187606
0.000187635
0.000187609
0.000187702
0.000187684
0.000187673
0.000187665
0.000187669
0.000187628
0.00018771
0.000187635
0.000187699
0.000187647
0.000187658
0.000187721
0.000187669
0.000187654
0.000187688
0.000187688
0.000187661
0.000187725
0.000187669
0.000187691
0.000187665
0.000187721
0.000187699
0.000187736
0.00018771
0.000187665
0.000187788
0.000187743
0.000187762
0.00018777
0.000187725
0.000187751
0.000187725
0.000187736
0.000187717
0.000187751
0.00018777
0.000187688
0.00018774
0.000187792
0.000187766
0.000187758
0.000187811
0.000187799
0.000187788
0.000187796
0.000187788
0.000187825
0.000187811
0.000187784
0.000187822
0.000187777
0.000187747
0.000187811
0.000187751
0.000187788
0.000187851
0.000187766
0.000187777
0.000187818
0.000187796
0.000187773
0.000187807
0.000187829
0.00018784
0.000187814
0.000187792
0.000187788
0.000187796
0.000187818
0.000187807
0.000189777
0.000189804
0.000189807
0.000189792
0.000189807
0.000189815
0.000189845
0.000189837
0.000189837
0.000189811
0.000189833
0.000189826
0.000189837
0.000189811
0.000189833
0.000189818
0.000189871
0.000189822
0.000189859
0.0001899
0.000189848
0.000189785
0.000189792
0.00018983
0.000189856
0.000189807
0.000189845
0.000189785
0.000189867
0.000189874
0.000189837
0.000189811
0.000189874
0.000189882
0.000189833
0.000189919
0.000189822
0.000189885
0.000189841
0.000189867
0.000189837
0.000189841
0.000189845
0.000189852
0.000189897
0.000189859
0.0001899
0.000189934
0.000189912
0.000189912
0.000189915
0.000189893
0.000189915
0.000189945
0.000189949
0.00018999
0.000189934
0.000189982
0.000189882
0.000189949
0.000189945
0.000189949
0.000189994
0.000189986
0.000189979
0.000190001
0.000189964
0.000189986
0.000190001
0.000189971
0.000190016
0.000189979
0.000190027
0.000190005
0.000189953
0.000190038
0.000190008
0.000189964
0.000189994
0.000190023
0.00018999
0.000190046
0.000189982
0.000190023
0.000190046
0.000190061
0.000190068
0.00019002
0.000190053
0.00019002
0.000190064
0.000190083
0.000190072
0.000190038
0.000190046
0.000190064
0.000190038
0.000190035
0.000190068
0.000190061
0.000190102
0.000192609
0.000192586
0.000192579
0.000192579
0.000192616
0.000192676
0.000192665
0.000192679
0.000192542
0.000192624
0.000192624
0.000192627
0.000192601
0.000192665
0.000192661
0.000192679
0.000192683
0.000192683
0.000192665
0.000192702
0.000192683
0.000192698
0.000192676
0.000192694
0.000192732
0.000192706
0.000192713
0.000192679
0.000192773
0.000192706
0.000192735
0.000192713
0.00019272
0.000192691
0.000192758
0.000192735
0.000192784
0.000192765
0.000192776
0.000192799
0.000192761
0.00019278
0.000192814
0.000192847
0.000192791
0.000192799
0.000192825
0.000192787
0.000192754
0.000192814
0.000192776
0.000192769
0.000192817
0.000192784
0.000192825
0.000192799
0.000192832
0.00019284
0.000192821
0.000192787
0.000192855
0.000192828
0.000192862
0.00019284
0.000192847
0.000192825
0.000192825
0.000192761
0.00019281
0.000192843
0.000192869
0.000192918
0.000192866
0.000192869
0.000192899
0.000192925
0.000192888
0.000192851
0.000192959
0.000192896
0.00019291
0.000192869
0.000192873
0.000192888
0.000192858
0.000192959
0.000192918
0.000192929
0.000192944
0.000192914
0.00019291
0.000192933
0.000192937
0.000192944
0.000192937
0.000192989
0.000192989
0.000192951
0.000193004
0.000192977
0.000192974
0.000196025
0.000196025
0.000196029
0.000196062
0.000196055
0.000196081
0.000196081
0.000196103
0.000196099
0.00019611
0.000196077
0.000196088
0.000196103
0.000196185
0.000196166
0.000196133
0.000196122
0.000196185
0.000196103
0.000196166
0.000196178
0.000196181
0.00019617
0.000196189
0.000196144
0.000196125
0.000196181
0.000196222
0.000196133
0.00019623
0.000196233
0.000196222
0.000196148
0.000196218
0.000196163
0.0001962
0.000196196
0.000196245
0.0001962
0.000196241
0.000196178
0.000196245
0.000196207
0.000196274
0.000196192
0.000196192
0.000196189
0.000196256
0.000196189
0.000196256
0.00019623
0.000196241
0.000196282
0.000196259
0.000196286
0.000196289
0.000196278
0.000196334
0.000196334
0.000196356
0.000196323
0.000196356
0.00019642
0.000196304
0.000196349
0.000196353
0.000196349
0.000196397
0.00019636
0.000196431
0.000196319
0.000196386
0.00019639
0.000196371
0.000196401
0.000196457
0.000196405
0.000196408
0.000196431
0.000196397
0.000196397
0.000196401
0.000196408
0.000196427
0.000196472
0.000196423
0.000196412
0.000196449
0.000196438
0.000196446
0.000196468
0.000196509
0.000196446
0.000196483
0.000196535
0.000196472
0.000196509
0.000196487
0.000196427
0.00019652
0.000196502
0.000200178
0.000200145
0.000200171
0.000200089
0.000200145
0.00020016
0.000200182
0.000200208
0.000200149
0.00020016
0.000200193
0.000200126
0.000200193
0.000200197
0.000200156
0.000200119
0.000200186
0.000200178
0.000200175
0.000200197
0.000200164
0.000200193
0.000200231
0.000200231
0.000200208
0.000200208
0.000200253
0.000200171
0.000200268
0.000200238
0.000200309
0.000200275
0.00020029
0.000200305
0.000200365
0.000200275
0.000200253
0.000200309
0.000200305
0.000200309
0.000200342
0.000200316
0.000200324
0.000200331
0.00020038
0.000200305
0.000200372
0.000200383
0.000200313
0.000200383
0.000200376
0.000200376
0.000200365
0.000200476
0.000200417
0.000200436
0.000200368
0.000200376
0.00020038
0.000200372
0.000200421
0.000200417
0.000200409
0.000200424
0.000200454
0.00020035
0.000200406
0.000200491
0.000200447
0.000200439
0.000200506
0.000200517
0.000200521
0.000200532
0.000200562
0.000200525
0.000200551
0.000200529
0.000200592
0.000200529
0.000200529
0.000200547
0.000200525
0.000200599
0.000200607
0.00020057
0.000200626
0.000200596
0.000200562
0.000200633
0.000200618
0.000200596
0.000200618
0.000200629
0.000200577
0.000200618
0.000200663
0.000200655
0.000200648
0.000200663
0.000200607
0.000204671
0.000204723
0.000204716
0.000204727
0.000204757
0.000204708
0.000204746
0.000204749
0.000204761
0.000204742
0.000204775
0.000204772
0.000204779
0.00020479
0.000204828
0.000204753
0.000204854
0.000204779
0.00020485
0.000204794
0.000204831
0.000204835
0.000204891
0.000204872
0.000204835
0.000204872
0.000204884
0.000204932
0.000204854
0.00020482
0.000204917
0.000204917
0.000204962
0.000204951
0.000204962
0.000204932
0.000204954
0.000204939
0.000204977
0.000205029
0.000204969
0.000204977
0.000204984
0.000204992
0.000205025
0.000204969
0.000204984
0.000204969
0.000204999
0.000205018
0.000205044
0.000205059
0.00020501
0.0002051
0.000205047
0.000205088
0.000205029
0.000205044
0.000205044
0.000205021
0.000205077
0.000205118
0.000205204
0.000205141
0.000205118
0.000205122
0.000205118
0.000205155
0.000205148
0.000205126
0.000205196
0.000205159
0.000205185
0.000205174
0.000205256
0.00020517
0.000205163
0.000205219
0.000205219
0.000205241
0.000205267
0.00020526
0.000205249
0.000205241
0.000205271
0.000205278
0.000205249
0.000205226
0.000205208
0.000205241
0.000205282
0.000205319
0.000205353
0.000205297
0.00020536
0.000205334
0.000205379
0.000205405
0.000205416
0.00020539
0.000205364
0.000209954
0.000209961
0.000209969
0.000210021
0.000209965
0.00021001
0.00020998
0.000209954
0.000209909
0.000210028
0.000209998
0.00020998
0.000210036
0.000210017
0.000210039
0.000209976
0.000209991
0.000210002
0.000210021
0.000210058
0.000210054
0.000210039
0.000210073
0.000210177
0.000210159
0.000210114
0.000210192
0.000210255
0.000210136
0.000210114
0.000210144
0.000210151
0.000210132
0.000210162
0.000210196
0.000210207
0.000210185
0.000210252
0.000210177
0.000210207
0.000210151
0.0002102
0.00021017
0.000210192
0.000210255
0.00021024
0.000210296
0.000210255
0.000210311
0.000210319
0.000210308
0.000210326
0.000210296
0.000210311
0.0002103
0.000210389
0.000210293
0.000210337
0.000210304
0.000210308
0.000210308
0.000210341
0.00021036
0.000210334
0.000210397
0.000210401
0.000210386
0.000210375
0.000210371
0.000210423
0.000210486
0.000210404
0.000210434
0.00021043
0.000210434
0.000210471
0.000210512
0.000210498
0.000210471
0.00021052
0.000210516
0.000210542
0.000210479
0.00021046
0.000210483
0.000210486
0.000210572
0.000210587
0.000210553
0.000210587
0.000210542
0.000210565
0.000210572
0.000210609
0.000210606
0.000210684
0.000210617
0.000210654
0.000210676
0.000210695
0.000210736
0.000215717
0.000215694
0.000215765
0.000215743
0.000215743
0.000215776
0.000215795
0.000215795
0.000215791
0.000215773
0.000215791
0.000215776
0.000215795
0.000215787
0.000215862
0.00021584
0.000215817
0.000215862
0.000215892
0.000215854
0.000215907
0.000215854
0.000215922
0.000215884
0.000215918
0.00021591
0.000215899
0.000215847
0.00021594
0.000215899
0.000215907
0.000215989
0.000216007
0.000215948
0.000216015
0.000215959
0.000216044
0.000216018
0.000216018
0.000216059
0.000216063
0.000216
0.000216041
0.000216085
0.000216052
0.000216033
0.0002161
0.000216071
0.00021619
0.000216149
0.000216182
0.00021616
0.000216197
0.00021616
0.000216145
0.000216145
0.000216175
0.000216227
0.00021622
0.000216231
0.00021619
0.000216201
0.000216182
0.000216216
0.000216231
0.000216283
0.000216208
0.000216331
0.000216272
0.000216283
0.000216294
0.000216346
0.000216309
0.00021635
0.000216346
0.000216402
0.000216361
0.000216365
0.000216391
0.00021635
0.000216402
0.00021641
0.000216361
0.000216395
0.000216443
0.000216503
0.000216473
0.000216465
0.000216428
0.000216458
0.000216473
0.000216488
0.000216521
0.000216521
0.000216495
0.000216536
0.000216506
0.000216521
0.00021654
0.000216562
0.000216514
0.00022205
0.000222046
0.000222091
0.000222109
0.000222098
0.000222068
0.000222169
0.000222098
0.000222106
0.000222124
0.000222098
0.00022215
0.000222135
0.000222117
0.00022218
0.00022215
0.00022215
0.000222221
0.000222228
0.000222266
0.000222255
0.000222247
0.000222214
0.000222195
0.000222232
0.00022234
0.000222322
0.000222281
0.000222273
0.000222385
0.000222292
0.00022231
0.00022234
0.000222333
0.000222381
0.000222337
0.000222418
0.000222411
0.000222404
0.0002224
0.000222374
0.000222351
0.000222426
0.000222482
0.000222474
0.000222493
0.000222493
0.000222448
0.000222523
0.000222545
0.00022253
0.0002225
0.00022253
0.0002225
0.00022256
0.000222512
0.000222646
0.000222672
0.000222657
0.000222676
0.000222668
0.000222635
0.000222649
0.000222661
0.000222653
0.000222627
0.000222661
0.000222661
0.000222668
0.000222746
0.000222772
0.000222746
0.000222776
0.000222746
0.000222754
0.000222731
0.000222772
0.000222776
0.00022275
0.000222765
0.000222825
0.000222798
0.000222836
0.000222933
0.000222865
0.000222906
0.000222865
0.00022291
0.000222892
0.000222895
0.000222899
0.000222903
0.000222951
0.000222914
0.000222918
0.000222944
0.000222992
0.000223022
0.000223015
0.000223037
0.000223015
0.000228986
0.000229008
0.000229008
0.000229023
0.000229053
0.000229083
0.000229061
0.000229131
0.000229128
0.000229064
0.000229165
0.000229102
0.00022912
0.000229135
0.00022909
0.000229191
0.000229247
0.000229191
0.000229154
0.000229247
0.000229236
0.000229202
0.000229239
0.000229198
0.000229217
0.00022931
0.000229333
0.00022931
0.000229325
0.000229295
0.000229333
0.000229277
0.000229307
0.000229295
0.000229347
0.000229374
0.000229418
0.000229407
0.000229381
0.000229441
0.00022934
0.000229444
0.000229474
0.000229467
0.000229429
0.000229437
0.0002295
0.000229489
0.000229478
0.000229549
0.00022956
0.000229523
0.000229556
0.000229564
0.000229556
0.000229593
0.000229679
0.000229638
0.000229631
0.000229619
0.000229627
0.000229612
0.000229642
0.000229694
0.000229653
0.000229578
0.00022975
0.000229698
0.000229675
0.000229731
0.000229694
0.000229795
0.000229772
0.000229806
0.000229809
0.000229813
0.000229862
0.000229865
0.000229865
0.000229824
0.000229876
0.00022991
0.000229899
0.000229854
0.000229895
0.000229876
0.000229865
0.000229962
0.000229891
0.000229925
0.000229973
0.000229966
0.000230011
0.000229973
0.000230059
0.000229966
0.000230003
0.0002301
0.00023004
0.000230111
0.000230152
0.000236582
0.000236545
0.000236597
0.000236589
0.000236601
0.000236638
0.000236638
0.000236675
0.000236649
0.000236649
0.000236746
0.000236701
0.000236709
0.00023675
0.000236765
0.000236791
0.000236765
0.000236787
0.000236761
0.000236791
0.000236794
0.000236806
0.000236839
0.000236843
0.000236895
0.000236902
0.00023688
0.000236847
0.000236835
0.000236899
0.00023691
0.000236928
0.00023694
0.000236951
0.000237007
0.000236962
0.000237059
0.000237059
0.000237029
0.000237055
0.000237036
0.000237051
0.000237029
0.000237074
0.000237171
0.000237133
0.000237104
0.000237126
0.000237171
0.000237159
0.000237163
0.000237174
0.000237234
0.000237223
0.000237208
0.000237234
0.000237197
0.000237208
0.000237223
0.000237275
0.000237312
0.000237312
0.000237316
0.000237361
0.000237297
0.000237364
0.000237312
0.000237335
0.000237357
0.00023739
0.00023742
0.000237461
0.000237387
0.000237364
0.000237394
0.000237402
0.000237502
0.000237454
0.000237513
0.000237528
0.000237495
0.000237498
0.000237551
0.000237569
0.000237584
0.000237554
0.00023761
0.000237633
0.000237621
0.000237629
0.000237603
0.000237677
0.000237729
0.000237688
0.000237677
0.000237711
0.000237659
0.000237748
0.000237737
0.000237692
0.000237819
0.000244763
0.000244852
0.000244837
0.000244875
0.000244837
0.000244848
0.000244841
0.000244893
0.000244915
0.000244893
0.000244912
0.000244867
0.000244927
0.000244983
0.00024499
0.000245012
0.00024499
0.00024502
0.000244964
0.00024502
0.000245061
0.000245068
0.000245087
0.000245109
0.000245087
0.00024521
0.000245087
0.000245154
0.000245113
0.000245191
0.000245128
0.000245269
0.000245251
0.000245232
0.000245307
0.000245247
0.000245247
0.000245284
0.000245292
0.000245303
0.000245314
0.000245299
0.000245377
0.000245366
0.000245374
0.000245396
0.000245411
0.000245411
0.000245448
0.000245459
0.000245448
0.000245415
0.000245541
0.000245534
0.000245478
0.000245489
0.000245549
0.000245579
0.000245575
0.000245526
0.000245571
0.000245534
0.000245657
0.000245675
0.000245687
0.000245679
0.000245679
0.000245672
0.00024569
0.000245698
0.000245742
0.000245716
0.000245716
0.000245769
0.000245892
0.000245798
0.000245817
0.000245851
0.000245791
0.000245854
0.00024588
0.000245947
0.000245873
0.000245836
0.000245936
0.000245936
0.000245962
0.000246007
0.000246014
0.000246011
0.000245985
0.000245992
0.000246044
0.000246093
0.00024607
0.000246089
0.000246044
0.000246044
0.000246171
0.000246182
0.000246193
0.000253763
0.000253789
0.000253789
0.000253845
0.000253841
0.000253897
0.00025386
0.000253886
0.000253964
0.000253871
0.000253923
0.000253923
0.000253983
0.000254013
0.000253957
0.000254009
0.00025396
0.000254069
0.000254076
0.00025408
0.000254061
0.000254065
0.000254102
0.000254102
0.000254136
0.000254177
0.000254221
0.00025418
0.000254143
0.00025418
0.000254218
0.000254221
0.000254285
0.000254262
0.00025424
0.00025421
0.000254326
0.000254322
0.0002544
0.000254359
0.000254385
0.000254396
0.000254482
0.00025437
0.000254367
0.000254463
0.000254482
0.000254452
0.000254508
0.000254471
0.00025453
0.000254553
0.000254527
0.000254553
0.000254571
0.000254612
0.000254661
0.000254598
0.000254657
0.000254631
0.000254668
0.00025472
0.00025465
0.000254657
0.000254687
0.00025472
0.000254791
0.000254791
0.000254825
0.000254836
0.00025481
0.000254869
0.000254821
0.000254791
0.000254873
0.000254843
0.000254907
0.000254925
0.000254937
0.00025497
0.000255015
0.000255037
0.000254977
0.000255059
0.000255045
0.000255078
0.000255067
0.000255067
0.000255141
0.000255082
0.000255104
0.000255164
0.000255119
0.000255156
0.000255246
0.00025522
0.000255208
0.000255223
0.000255257
0.000255235
0.000255268
0.000263568
0.000263557
0.000263575