/*--------------------------------*- C++ -*----------------------------------*\
| =========                 |                                                 |
| \\      /  F ield         | OpenFOAM: The Open Source CFD Toolbox           |
|  \\    /   O peration     | Version:  v2006                                 |
|   \\  /    A nd           | Website:  www.openfoam.com                      |
|    \\/     M anipulation  |                                                 |
\*---------------------------------------------------------------------------*/
FoamFile
{
    version     2.0;
    format      ascii;
    class       surfaceScalarField;
    location    "18.1";
    object      alphaPhi0.water;
}
// * * * * * * * * * * * * * * * * * * * * * * * * * * * * * * * * * * * * * //

dimensions      [0 3 -1 0 0 0 0];
oriented        oriented;


internalField   nonuniform List<scalar> 
99450
(
2.23766e-05
-2.23766e-05
6.28703e-05
-4.04937e-05
0.000105819
-4.29488e-05
0.000145407
-3.95877e-05
0.000181097
-3.56906e-05
0.000214124
-3.30265e-05
0.000245611
-3.14875e-05
0.000276148
-3.05369e-05
0.000305901
-2.97532e-05
0.000334831
-2.89291e-05
0.000362837
-2.80068e-05
0.000389816
-2.69787e-05
0.000415684
-2.58678e-05
0.000440374
-2.46905e-05
0.000463839
-2.34648e-05
0.000486044
-2.22046e-05
0.000506967
-2.09231e-05
0.000526603
-1.96359e-05
0.000544956
-1.83535e-05
0.000562038
-1.70814e-05
0.000577875
-1.58369e-05
0.000592488
-1.46136e-05
0.00060591
-1.34222e-05
0.000618171
-1.22606e-05
0.000629298
-1.11268e-05
0.000639313
-1.00148e-05
0.000648235
-8.92214e-06
0.000656076
-7.84102e-06
0.000662841
-6.76469e-06
0.000668527
-5.6862e-06
0.000673117
-4.59051e-06
0.000676578
-3.46122e-06
0.000678853
-2.27457e-06
0.000679873
-1.01975e-06
0.000679525
3.47469e-07
0.000677592
1.93288e-06
0.000673958
3.63478e-06
0.000668413
5.54491e-06
0.000660721
7.69127e-06
0.000650771
9.9501e-06
0.000638647
1.21242e-05
0.000624588
1.40587e-05
0.000608861
1.57274e-05
0.000591701
1.716e-05
0.00057337
1.83313e-05
0.000554142
1.92277e-05
0.000534298
1.98436e-05
0.000514133
2.01655e-05
0.000493943
2.019e-05
0.000474066
1.98767e-05
0.000454839
1.9227e-05
0.000436518
1.83214e-05
0.000419165
1.7353e-05
0.000402666
1.64992e-05
0.000386791
1.5875e-05
0.000371371
1.54195e-05
0.000356226
1.51453e-05
0.000341273
1.49529e-05
0.000326476
1.47965e-05
0.000311814
1.46622e-05
0.000297259
1.45554e-05
0.000282797
1.44619e-05
0.000268394
1.44028e-05
0.000254057
1.4337e-05
0.000239772
1.42851e-05
0.000225535
1.42369e-05
0.00021134
1.41945e-05
0.000197185
1.41553e-05
0.000183069
1.41165e-05
0.000168996
1.40726e-05
0.000154973
1.40234e-05
0.000141005
1.39672e-05
0.0001271
1.39051e-05
0.000113265
1.38356e-05
9.95118e-05
1.37529e-05
8.58531e-05
1.36587e-05
7.23016e-05
1.35515e-05
5.88682e-05
1.34334e-05
4.55616e-05
1.33066e-05
3.2388e-05
1.31735e-05
1.93526e-05
1.30355e-05
6.45688e-06
1.28957e-05
-6.3042e-06
1.27611e-05
-1.89363e-05
1.26321e-05
-3.14497e-05
1.25133e-05
-4.38545e-05
1.24048e-05
-5.61714e-05
1.23169e-05
-6.84264e-05
1.2255e-05
-8.06551e-05
1.22287e-05
-9.29064e-05
1.22513e-05
-0.000105241
1.23346e-05
-0.000117742
1.25011e-05
-0.000130521
1.27788e-05
-0.000143731
1.32097e-05
-0.000157613
1.38824e-05
-0.000172529
1.49162e-05
-0.00018892
1.63903e-05
-0.000207187
1.82672e-05
-0.000227516
2.03292e-05
-0.000249749
2.22333e-05
-0.000273418
2.36692e-05
-0.00029791
2.44919e-05
-0.000322631
2.47203e-05
-0.000347072
2.44417e-05
-0.000370776
2.37041e-05
-0.000393332
2.25553e-05
-0.000414292
2.09606e-05
-0.000433101
1.88089e-05
-0.000449053
1.59514e-05
-0.000461367
1.23139e-05
-0.000469495
8.12846e-06
-0.000473474
3.979e-06
-0.000474017
5.4324e-07
-0.000472286
-1.73115e-06
-0.000468912
-3.3743e-06
-0.000464467
-4.44502e-06
-0.000459266
-5.20047e-06
-0.000453447
-5.81907e-06
-0.000447049
-6.39872e-06
-0.000440084
-6.96416e-06
-0.000432576
-7.50843e-06
-0.000424539
-8.0365e-06
-0.000415984
-8.55574e-06
-0.00040691
-9.07418e-06
-0.000397316
-9.59347e-06
-0.000387204
-1.01122e-05
-0.000376573
-1.0631e-05
-0.000365422
-1.1151e-05
-0.000353756
-1.16655e-05
-0.000341586
-1.21708e-05
-0.00032892
-1.26656e-05
-0.000315774
-1.31458e-05
-0.000302155
-1.36189e-05
-0.000288067
-1.40881e-05
-0.000273509
-1.45581e-05
-0.000258478
-1.50313e-05
-0.000242962
-1.55162e-05
-0.000226948
-1.60142e-05
-0.000210431
-1.65167e-05
-0.000193406
-1.70252e-05
-0.00017587
-1.75354e-05
-0.000157815
-1.80548e-05
-0.000139231
-1.85841e-05
-0.000120084
-1.91474e-05
-0.000100358
-1.97255e-05
-8.00521e-05
-2.03063e-05
-5.93081e-05
-2.0744e-05
-3.80657e-05
-2.12424e-05
-1.68718e-05
-2.11938e-05
-1.68718e-05
2.02956e-05
-4.26722e-05
5.77139e-05
-7.7912e-05
9.73894e-05
-8.26242e-05
0.000133008
-7.52061e-05
0.00016383
-6.65133e-05
0.000191339
-6.05356e-05
0.000217094
-5.72421e-05
0.000241892
-5.53344e-05
0.000265839
-5.37005e-05
0.00028878
-5.187e-05
0.000310503
-4.97294e-05
0.000330865
-4.73417e-05
0.000349792
-4.47945e-05
0.000367244
-4.21424e-05
0.000383194
-3.94153e-05
0.00039765
-3.66604e-05
0.00041063
-3.39032e-05
0.000422174
-3.11794e-05
0.000432351
-2.85309e-05
0.000441241
-2.59714e-05
0.000448924
-2.35199e-05
0.000455499
-2.11883e-05
0.000461059
-1.89822e-05
0.000465707
-1.6909e-05
0.000469537
-1.49566e-05
0.00047265
-1.31274e-05
0.000475136
-1.14086e-05
0.000477086
-9.79069e-06
0.000478598
-8.27649e-06
0.000479764
-6.85304e-06
0.000480688
-5.51423e-06
0.000481477
-4.24977e-06
0.000482229
-3.0272e-06
0.000483009
-1.79982e-06
0.000483812
-4.54997e-07
0.000484903
8.41469e-07
0.000486203
2.33472e-06
0.000487678
4.07002e-06
0.000489316
6.05343e-06
0.00049098
8.28628e-06
0.000492391
1.07131e-05
0.000493213
1.32372e-05
0.000493158
1.57822e-05
0.000492081
1.82371e-05
0.000489852
2.05601e-05
0.00048642
2.266e-05
0.00048176
2.45031e-05
0.000475917
2.60086e-05
0.000468919
2.71883e-05
0.000460795
2.80003e-05
0.000451599
2.84231e-05
0.000441325
2.8595e-05
0.00043009
2.85885e-05
0.000418
2.85894e-05
0.000405287
2.8588e-05
0.000392052
2.86544e-05
0.000378377
2.88199e-05
0.000364306
2.90242e-05
0.000349843
2.92595e-05
0.000334996
2.9509e-05
0.000319791
2.97609e-05
0.00030424
3.00124e-05
0.000288384
3.02586e-05
0.000272225
3.04967e-05
0.000255792
3.07179e-05
0.000239114
3.09144e-05
0.000222229
3.10795e-05
0.00020517
3.12145e-05
0.000187969
3.13181e-05
0.000170653
3.13886e-05
0.000153265
3.14107e-05
0.000135836
3.13967e-05
0.000118402
3.13387e-05
0.000101005
3.12334e-05
8.36798e-05
3.10776e-05
6.64672e-05
3.08713e-05
4.94084e-05
3.06103e-05
3.25391e-05
3.03027e-05
1.59039e-05
2.99418e-05
-4.58288e-07
2.95357e-05
-1.651e-05
2.90872e-05
-3.22149e-05
2.86006e-05
-4.75465e-05
2.80927e-05
-6.24737e-05
2.75594e-05
-7.69729e-05
2.70125e-05
-9.10346e-05
2.64666e-05
-0.000104641
2.59229e-05
-0.000117787
2.54011e-05
-0.000130471
2.49127e-05
-0.000142693
2.44733e-05
-0.000154465
2.41069e-05
-0.000165806
2.38424e-05
-0.000176738
2.37109e-05
-0.000187292
2.37632e-05
-0.000197479
2.40698e-05
-0.000207273
2.471e-05
-0.000216619
2.57359e-05
-0.00022547
2.71187e-05
-0.000233825
2.86844e-05
-0.000241718
3.01257e-05
-0.000249128
3.10797e-05
-0.000255872
3.12352e-05
-0.000261558
3.04063e-05
-0.000265638
2.85227e-05
-0.000267631
2.56965e-05
-0.000267146
2.20707e-05
-0.000263968
1.77828e-05
-0.000258154
1.29949e-05
-0.000250126
7.9227e-06
-0.000240704
2.89232e-06
-0.000230582
-1.99321e-06
-0.000220258
-6.34564e-06
-0.000210101
-9.61329e-06
-0.000199981
-1.18518e-05
-0.000190054
-1.33006e-05
-0.000180273
-1.42264e-05
-0.000170614
-1.48597e-05
-0.000161069
-1.53635e-05
-0.000151651
-1.58174e-05
-0.000142366
-1.62491e-05
-0.000133204
-1.66699e-05
-0.000124157
-1.70835e-05
-0.00011523
-1.74826e-05
-0.000106451
-1.78539e-05
-9.78505e-05
-1.81935e-05
-8.94588e-05
-1.85038e-05
-8.13079e-05
-1.87819e-05
-7.34291e-05
-1.90298e-05
-6.585e-05
-1.92446e-05
-5.85956e-05
-1.94252e-05
-5.17134e-05
-1.95478e-05
-4.52474e-05
-1.96117e-05
-3.9237e-05
-1.96293e-05
-3.37311e-05
-1.95941e-05
-2.87586e-05
-1.95306e-05
-2.43338e-05
-1.94561e-05
-2.04799e-05
-1.93701e-05
-1.71727e-05
-1.93214e-05
-1.4388e-05
-1.93014e-05
-1.20582e-05
-1.9355e-05
-1.01408e-05
-1.94529e-05
-8.59178e-06
-1.96039e-05
-7.33303e-06
-1.98428e-05
-6.3531e-06
-2.01274e-05
-5.6521e-06
-2.04265e-05
-5.22304e-06
-2.07354e-05
-5.04132e-06
-2.09257e-05
-4.38826e-06
-2.18955e-05
-1.69771e-06
-2.38844e-05
-1.85696e-05
1.9731e-05
-6.24032e-05
5.88183e-05
-0.000116999
0.000102273
-0.000126079
0.000142411
-0.000115344
0.000177159
-0.000101261
0.000207489
-9.08656e-05
0.000235235
-8.49884e-05
0.000261714
-8.1813e-05
0.000287437
-7.94232e-05
0.000312268
-7.67015e-05
0.000335921
-7.3382e-05
0.000358117
-6.95383e-05
0.00037871
-6.53874e-05
0.000397607
-6.10386e-05
0.000414785
-5.65942e-05
0.000430243
-5.21182e-05
0.000444019
-4.76791e-05
0.000456175
-4.3335e-05
0.000466775
-3.91308e-05
0.000475926
-3.51225e-05
0.000483745
-3.13396e-05
0.000490341
-2.77838e-05
0.00049582
-2.44615e-05
0.000500289
-2.1378e-05
0.000503837
-1.85045e-05
0.000506564
-1.58543e-05
0.000508535
-1.33797e-05
0.000509811
-1.10658e-05
0.000510438
-8.9035e-06
0.000510454
-6.86972e-06
0.000509886
-4.94633e-06
0.000508757
-3.1206e-06
0.000507118
-1.38842e-06
0.00050496
3.58232e-07
0.000502303
2.20195e-06
0.000499074
4.07116e-06
0.00049538
6.02789e-06
0.000491351
8.09913e-06
0.000487123
1.02822e-05
0.000482791
1.26176e-05
0.000478403
1.51015e-05
0.00047396
1.76801e-05
0.000469458
2.02844e-05
0.00046482
2.28746e-05
0.000459997
2.53834e-05
0.000454862
2.7795e-05
0.000449364
3.00011e-05
0.00044332
3.20524e-05
0.000436638
3.38704e-05
0.000429163
3.54758e-05
0.000420762
3.68236e-05
0.000411416
3.79407e-05
0.000401131
3.88735e-05
0.000390074
3.96467e-05
0.000378306
4.03565e-05
0.000365928
4.10319e-05
0.000353048
4.17001e-05
0.0003397
4.23718e-05
0.000325903
4.30565e-05
0.000311702
4.37107e-05
0.000297114
4.43488e-05
0.000282153
4.49726e-05
0.000266888
4.55244e-05
0.000251321
4.6063e-05
0.000235503
4.65367e-05
0.000219458
4.69588e-05
0.000203215
4.73223e-05
0.000186811
4.76191e-05
0.000170281
4.78472e-05
0.000153663
4.8007e-05
0.000136982
4.80921e-05
0.000120282
4.8096e-05
0.0001036
4.80213e-05
8.69674e-05
4.78656e-05
7.04191e-05
4.7626e-05
5.39842e-05
4.73062e-05
3.77118e-05
4.68826e-05
2.16351e-05
4.63795e-05
5.78569e-06
4.57912e-05
-9.8043e-06
4.51257e-05
-2.50942e-05
4.43771e-05
-4.00521e-05
4.35584e-05
-5.46468e-05
4.26874e-05
-6.8854e-05
4.17666e-05
-8.26429e-05
4.08014e-05
-9.59959e-05
3.98196e-05
-0.000108884
3.88111e-05
-0.000121285
3.78021e-05
-0.000133186
3.68138e-05
-0.000144553
3.58402e-05
-0.000155371
3.49246e-05
-0.000165606
3.40774e-05
-0.000175219
3.33241e-05
-0.000184149
3.26935e-05
-0.000192291
3.22112e-05
-0.000199483
3.19025e-05
-0.000205518
3.17708e-05
-0.000210185
3.17852e-05
-0.000213363
3.18629e-05
-0.000215062
3.18249e-05
-0.000215419
3.14362e-05
-0.000214656
3.04728e-05
-0.000213034
2.87844e-05
-0.000210838
2.63265e-05
-0.000208303
2.31609e-05
-0.000205677
1.94452e-05
-0.000203165
1.52711e-05
-0.000200955
1.0784e-05
-0.000199179
6.14679e-06
-0.000197813
1.52658e-06
-0.000197381
-2.42492e-06
-0.000197819
-5.90755e-06
-0.000198522
-8.91021e-06
-0.000199012
-1.13619e-05
-0.000198994
-1.33191e-05
-0.000198274
-1.49461e-05
-0.00019673
-1.64042e-05
-0.000194297
-1.77963e-05
-0.000190947
-1.91673e-05
-0.00018667
-2.05263e-05
-0.000181474
-2.18654e-05
-0.000175389
-2.31688e-05
-0.000168462
-2.44097e-05
-0.000160761
-2.55543e-05
-0.000152372
-2.65829e-05
-0.000143395
-2.74808e-05
-0.000133928
-2.8249e-05
-0.000124069
-2.88888e-05
-0.00011392
-2.9394e-05
-0.000103584
-2.97609e-05
-9.31594e-05
-2.99722e-05
-8.27586e-05
-3.00125e-05
-7.25024e-05
-2.98855e-05
-6.25189e-05
-2.95776e-05
-5.29482e-05
-2.91013e-05
-4.39193e-05
-2.84849e-05
-3.55588e-05
-2.77306e-05
-2.79967e-05
-2.68835e-05
-2.13169e-05
-2.59812e-05
-1.56123e-05
-2.50596e-05
-1.09036e-05
-2.41615e-05
-7.20762e-06
-2.32999e-05
-4.51635e-06
-2.25341e-05
-2.79602e-06
-2.18477e-05
-1.99272e-06
-2.12298e-05
-2.1098e-06
-2.06183e-05
-2.67387e-06
-2.03616e-05
-2.16613e-06
-2.24032e-05
1.10552e-06
-2.7156e-05
-1.7464e-05
1.92775e-05
-8.16807e-05
5.91333e-05
-0.000156855
0.000104527
-0.000171473
0.000147581
-0.000158397
0.000185562
-0.000139242
0.00021885
-0.000124154
0.000249078
-0.000115216
0.000277752
-0.000110487
0.000305596
-0.000107267
0.000332689
-0.000103794
0.000358748
-9.94406e-05
0.000383451
-9.42414e-05
0.000406529
-8.84658e-05
0.000427844
-8.23539e-05
0.000447325
-7.60743e-05
0.000464949
-6.97428e-05
0.000480737
-6.34669e-05
0.000494732
-5.73302e-05
0.000507024
-5.14229e-05
0.000517699
-4.57972e-05
0.000526857
-4.04972e-05
0.000534618
-3.55457e-05
0.000541096
-3.09386e-05
0.000546396
-2.6678e-05
0.000550627
-2.27358e-05
0.000553856
-1.90831e-05
0.00055617
-1.5694e-05
0.000557644
-1.25395e-05
0.000558318
-9.5775e-06
0.000558232
-6.7837e-06
0.000557399
-4.11418e-06
0.000555787
-1.50785e-06
0.000553447
9.50983e-07
0.000550399
3.40634e-06
0.000546693
5.90865e-06
0.00054231
8.45321e-06
0.000537283
1.10554e-05
0.000531651
1.37306e-05
0.000525467
1.64671e-05
0.000518808
1.92764e-05
0.000511774
2.21349e-05
0.000504437
2.50175e-05
0.000496838
2.78832e-05
0.000489013
3.07001e-05
0.000480963
3.34327e-05
0.000472727
3.60313e-05
0.000464218
3.85098e-05
0.000455432
4.08386e-05
0.000446301
4.30017e-05
0.000436775
4.50018e-05
0.000426759
4.68399e-05
0.00041619
4.85088e-05
0.000405041
5.00227e-05
0.000393302
5.13863e-05
0.000380999
5.26589e-05
0.000368176
5.38552e-05
0.00035488
5.49962e-05
0.000341152
5.60999e-05
0.00032707
5.7138e-05
0.000312645
5.81355e-05
0.000297902
5.9092e-05
0.000282919
5.99553e-05
0.00026767
6.07739e-05
0.000252213
6.152e-05
0.00023656
6.21894e-05
0.000220746
6.27732e-05
0.000204796
6.32719e-05
0.000188739
6.36768e-05
0.000172599
6.39869e-05
0.000156406
6.42002e-05
0.000140191
6.4307e-05
0.000123984
6.43033e-05
0.000107806
6.41987e-05
9.16869e-05
6.39848e-05
7.56544e-05
6.36586e-05
5.97408e-05
6.32198e-05
4.39586e-05
6.26648e-05
2.83406e-05
6.19975e-05
1.29124e-05
6.12194e-05
-2.30032e-06
6.03384e-05
-1.72803e-05
5.93571e-05
-3.20017e-05
5.82798e-05
-4.64322e-05
5.71179e-05
-6.05485e-05
5.58828e-05
-7.43268e-05
5.45797e-05
-8.77286e-05
5.32214e-05
-0.00010074
5.18224e-05
-0.000113327
5.03894e-05
-0.000125453
4.89397e-05
-0.000137094
4.7481e-05
-0.000148211
4.60418e-05
-0.00015876
4.46261e-05
-0.000168689
4.32535e-05
-0.000177939
4.19435e-05
-0.000186432
4.07034e-05
-0.000194068
3.95384e-05
-0.000200731
3.84346e-05
-0.000206305
3.73584e-05
-0.000210681
3.62396e-05
-0.000213839
3.49823e-05
-0.000215874
3.34716e-05
-0.000217004
3.16021e-05
-0.000217521
2.93022e-05
-0.000217749
2.65545e-05
-0.000217983
2.33944e-05
-0.000218436
1.98982e-05
-0.000219323
1.61578e-05
-0.000220827
1.22886e-05
-0.000223076
8.39562e-06
-0.000226118
4.56895e-06
-0.000229513
9.69934e-07
-0.000232732
-2.6887e-06
-0.000235765
-5.87727e-06
-0.00023836
-8.76735e-06
-0.00024027
-1.14085e-05
-0.00024138
-1.38358e-05
-0.000241685
-1.61e-05
-0.000241229
-1.82522e-05
-0.000240061
-2.03348e-05
-0.000238211
-2.23767e-05
-0.000235692
-2.43839e-05
-0.000232509
-2.63525e-05
-0.000228651
-2.82677e-05
-0.000224104
-3.01006e-05
-0.000218848
-3.18395e-05
-0.000212875
-3.34531e-05
-0.00020619
-3.49345e-05
-0.000198804
-3.62745e-05
-0.000190753
-3.74451e-05
-0.000182066
-3.84476e-05
-0.000172791
-3.92482e-05
-0.000162984
-3.9819e-05
-0.000152707
-4.01628e-05
-0.000142065
-4.0219e-05
-0.000131142
-4.00249e-05
-0.000120066
-3.95607e-05
-0.000108967
-3.883e-05
-9.79885e-05
-3.78617e-05
-8.7266e-05
-3.67037e-05
-7.6937e-05
-3.53886e-05
-6.71214e-05
-3.39771e-05
-5.78952e-05
-3.25261e-05
-4.93451e-05
-3.10842e-05
-4.16253e-05
-2.95674e-05
-3.49526e-05
-2.79025e-05
-2.92899e-05
-2.6281e-05
-2.33203e-05
-2.63312e-05
-1.44686e-05
-3.1255e-05
-2.98858e-06
-3.8636e-05
-2.04526e-05
1.8306e-05
-9.99867e-05
5.79902e-05
-0.000196539
0.000104524
-0.000218007
0.000149613
-0.000203487
0.000189825
-0.000179454
0.000225042
-0.000159371
0.000256762
-0.000146937
0.000286607
-0.000140332
0.000315547
-0.000136207
0.000343805
-0.000132052
0.000371138
-0.000126774
0.000397155
-0.000120258
0.000421515
-0.000112826
0.000444008
-0.000104847
0.000464515
-9.65815e-05
0.000483013
-8.82405e-05
0.000499518
-7.9972e-05
0.000514097
-7.19092e-05
0.000526824
-6.41497e-05
0.000537816
-5.67889e-05
0.000547192
-4.98735e-05
0.000555067
-4.34208e-05
0.000561568
-3.744e-05
0.000566799
-3.19089e-05
0.000570864
-2.68002e-05
0.000573865
-2.20848e-05
0.000575862
-1.76907e-05
0.000576933
-1.36108e-05
0.000577142
-9.78629e-06
0.000576536
-6.17743e-06
0.000575179
-2.75782e-06
0.0005731
5.71323e-07
0.000570259
3.79245e-06
0.000566729
6.93634e-06
0.000562583
1.00545e-05
0.000557866
1.317e-05
0.000552623
1.62986e-05
0.000546904
1.94496e-05
0.000540749
2.26222e-05
0.000534199
2.58268e-05
0.000527287
2.90465e-05
0.000520028
3.22769e-05
0.000512428
3.54833e-05
0.000504477
3.8651e-05
0.000496164
4.17457e-05
0.000487449
4.47457e-05
0.000478337
4.76216e-05
0.000468821
5.03553e-05
0.000458878
5.29439e-05
0.000448512
5.53686e-05
0.000437714
5.7637e-05
0.000426473
5.97504e-05
0.000414768
6.17279e-05
0.000402574
6.35797e-05
0.000389907
6.53263e-05
0.000376794
6.6968e-05
0.000363277
6.85136e-05
0.000349395
6.99821e-05
0.000335145
7.13874e-05
0.000320567
7.27141e-05
0.000305718
7.39405e-05
0.000290596
7.50779e-05
0.000275242
7.61276e-05
0.000259683
7.70793e-05
0.000243934
7.79375e-05
0.000228042
7.86655e-05
0.000212013
7.93012e-05
0.000195884
7.98059e-05
0.000179671
8.01992e-05
0.000163399
8.04728e-05
0.000147106
8.06e-05
0.000130804
8.06052e-05
0.000114524
8.04782e-05
9.82832e-05
8.02259e-05
8.21104e-05
7.98314e-05
6.60311e-05
7.92991e-05
5.00691e-05
7.86268e-05
3.42443e-05
7.78223e-05
1.85787e-05
7.6885e-05
3.09998e-06
7.58172e-05
-1.21771e-05
7.46342e-05
-2.72133e-05
7.33161e-05
-4.19877e-05
7.18923e-05
-5.64713e-05
7.03664e-05
-7.0637e-05
6.87454e-05
-8.445e-05
6.70344e-05
-9.78859e-05
6.52582e-05
-0.000110898
6.34012e-05
-0.00012346
6.15021e-05
-0.000135536
5.95569e-05
-0.000147081
5.75863e-05
-0.00015806
5.56054e-05
-0.000168418
5.36112e-05
-0.000178111
5.16369e-05
-0.000187069
4.9662e-05
-0.000195238
4.77066e-05
-0.000202558
4.57546e-05
-0.000208975
4.3776e-05
-0.000214471
4.17359e-05
-0.000219066
3.9577e-05
-0.000222839
3.7244e-05
-0.000225917
3.46809e-05
-0.000228471
3.18563e-05
-0.000230675
2.87585e-05
-0.000232681
2.53997e-05
-0.000234599
2.18168e-05
-0.000236489
1.80471e-05
-0.000238356
1.41565e-05
-0.000240173
1.02123e-05
-0.000241907
6.30315e-06
-0.000243421
2.48333e-06
-0.000245078
-1.0318e-06
-0.000246547
-4.40803e-06
-0.000247738
-7.57643e-06
-0.000248632
-1.05147e-05
-0.000249204
-1.3263e-05
-0.000249436
-1.58687e-05
-0.000249314
-1.83742e-05
-0.000248837
-2.08114e-05
-0.000248012
-2.32015e-05
-0.000246839
-2.55575e-05
-0.000245305
-2.78866e-05
-0.000243385
-3.01874e-05
-0.000241035
-3.24505e-05
-0.000238228
-3.46462e-05
-0.000234911
-3.67705e-05
-0.000231041
-3.88049e-05
-0.000226584
-4.07313e-05
-0.000221504
-4.25247e-05
-0.000215784
-4.41677e-05
-0.000209401
-4.56315e-05
-0.000202335
-4.68853e-05
-0.000194597
-4.79004e-05
-0.000186169
-4.86467e-05
-0.000177087
-4.91073e-05
-0.000167394
-4.92535e-05
-0.000157112
-4.91115e-05
-0.000146317
-4.86572e-05
-0.000135096
-4.79248e-05
-0.000123535
-4.69489e-05
-0.000111724
-4.57888e-05
-9.97469e-05
-4.45029e-05
-8.77581e-05
-4.3073e-05
-7.60113e-05
-4.13142e-05
-6.48159e-05
-3.90979e-05
-5.38367e-05
-3.72603e-05
-4.1219e-05
-3.89489e-05
-2.48042e-05
-4.76698e-05
-7.00653e-06
-5.64337e-05
-2.74592e-05
1.68676e-05
-0.000116854
5.59092e-05
-0.000235581
0.000103512
-0.000265609
0.000150965
-0.00025094
0.000193809
-0.000222299
0.000231166
-0.000196727
0.000264351
-0.000180121
0.000295218
-0.0001712
0.000325068
-0.000166056
0.000354312
-0.000161296
0.000382694
-0.000155156
0.000409706
-0.000147271
0.00043488
-0.000137999
0.000457895
-0.000127863
0.00047863
-0.000117317
0.000497063
-0.000106673
0.000513254
-9.61631e-05
0.000527322
-8.59768e-05
0.000539417
-7.62451e-05
0.000549689
-6.70606e-05
0.000558293
-5.84781e-05
0.000565394
-5.05211e-05
0.000571125
-4.31709e-05
0.000575624
-3.6408e-05
0.000579009
-3.01858e-05
0.000581372
-2.44476e-05
0.000582823
-1.91411e-05
0.000583415
-1.4203e-05
0.000583208
-9.57985e-06
0.000582251
-5.21972e-06
0.000580548
-1.05535e-06
0.000578226
2.89335e-06
0.000575281
6.73792e-06
0.000571723
1.04937e-05
0.000567592
1.41853e-05
0.000562926
1.78364e-05
0.000557754
2.14709e-05
0.000552099
2.51042e-05
0.00054599
2.87315e-05
0.000539456
3.2361e-05
0.00053252
3.59825e-05
0.000525212
3.95848e-05
0.000517539
4.31566e-05
0.000509515
4.66746e-05
0.000501144
5.01168e-05
0.000492403
5.34869e-05
0.000483299
5.67256e-05
0.0004738
5.98543e-05
0.000463879
6.28648e-05
0.000453522
6.57253e-05
0.000442696
6.84633e-05
0.000431397
7.10494e-05
0.000419627
7.34981e-05
0.000407381
7.58254e-05
0.000394686
7.80215e-05
0.000381548
8.01054e-05
0.000367984
8.2078e-05
0.000354022
8.39439e-05
0.000339711
8.5699e-05
0.000325068
8.73569e-05
0.000310117
8.88913e-05
0.000294881
9.03143e-05
0.000279392
9.16159e-05
0.000263678
9.2794e-05
0.000247772
9.38427e-05
0.00023168
9.47582e-05
0.000215443
9.5538e-05
0.00019908
9.61685e-05
0.000182623
9.66566e-05
0.000166097
9.69991e-05
0.000149513
9.71837e-05
0.000132904
9.72138e-05
0.000116296
9.7087e-05
9.97292e-05
9.67923e-05
8.32138e-05
9.63469e-05
6.67718e-05
9.5741e-05
5.04378e-05
9.49608e-05
3.4236e-05
9.40241e-05
1.81935e-05
9.29275e-05
2.33601e-06
9.16746e-05
-1.33008e-05
9.02709e-05
-2.87093e-05
8.87246e-05
-4.38351e-05
8.70181e-05
-5.8652e-05
8.51834e-05
-7.31292e-05
8.32226e-05
-8.72308e-05
8.1136e-05
-0.000100913
7.89407e-05
-0.000114158
7.66457e-05
-0.000126913
7.42571e-05
-0.000139144
7.17884e-05
-0.000150813
6.92552e-05
-0.000161881
6.6673e-05
-0.000172302
6.40328e-05
-0.000182028
6.13622e-05
-0.00019103
5.86642e-05
-0.000199259
5.59359e-05
-0.00020668
5.3176e-05
-0.000213272
5.0368e-05
-0.000219027
4.749e-05
-0.000223965
4.45156e-05
-0.000228137
4.1416e-05
-0.000231616
3.81595e-05
-0.000234499
3.47399e-05
-0.000236891
3.11505e-05
-0.000238887
2.73956e-05
-0.000240595
2.35242e-05
-0.000242113
1.95651e-05
-0.000243527
1.55712e-05
-0.000244905
1.15898e-05
-0.000246269
7.667e-06
-0.000247645
3.86008e-06
-0.000248855
1.78035e-07
-0.000249849
-3.4142e-06
-0.000250661
-6.76488e-06
-0.000251212
-9.96362e-06
-0.000251453
-1.30215e-05
-0.000251364
-1.59579e-05
-0.000250942
-1.87962e-05
-0.000250194
-2.15589e-05
-0.000249131
-2.42647e-05
-0.000247762
-2.69267e-05
-0.000246103
-2.95457e-05
-0.000244155
-3.21356e-05
-0.000241922
-3.4683e-05
-0.000239373
-3.71951e-05
-0.000236497
-3.9647e-05
-0.000233256
-4.20454e-05
-0.000229627
-4.43607e-05
-0.000225573
-4.6579e-05
-0.00022106
-4.86807e-05
-0.000216047
-5.06445e-05
-0.000210494
-5.24375e-05
-0.000204354
-5.40403e-05
-0.000197586
-5.54147e-05
-0.000190153
-5.65412e-05
-0.000182011
-5.73947e-05
-0.000173159
-5.7964e-05
-0.000163574
-5.82428e-05
-0.000153266
-5.82327e-05
-0.000142252
-5.79622e-05
-0.000130559
-5.7482e-05
-0.000118233
-5.68287e-05
-0.000105393
-5.59135e-05
-9.22583e-05
-5.44487e-05
-7.90094e-05
-5.23467e-05
-6.51825e-05
-5.10871e-05
-4.92112e-05
-5.49202e-05
-2.97718e-05
-6.71091e-05
-9.60949e-06
-7.6596e-05
-3.70686e-05
1.48066e-05
-0.000131661
5.25325e-05
-0.000273307
0.000100565
-0.000313642
0.000150419
-0.000300794
0.000196705
-0.000268584
0.000237333
-0.000237355
0.000273015
-0.000215803
0.000305706
-0.000203891
0.000337106
-0.000197456
0.000367913
-0.000192103
0.000397901
-0.000185144
0.000426382
-0.000175752
0.000452684
-0.000164301
0.000476355
-0.000151534
0.000497217
-0.000138178
0.000515312
-0.000124768
0.000530797
-0.000111648
0.000543874
-9.9054e-05
0.000554789
-8.71605e-05
0.000563781
-7.60525e-05
0.000571094
-6.57904e-05
0.000576929
-5.63565e-05
0.000581477
-4.77186e-05
0.000584891
-3.98226e-05
0.000587301
-3.25958e-05
0.000588816
-2.59621e-05
0.000589519
-1.98443e-05
0.000589488
-1.41719e-05
0.000588773
-8.86453e-06
0.000587414
-3.86101e-06
0.000585478
8.80561e-07
0.00058294
5.43179e-06
0.000579848
9.82899e-06
0.000576216
1.41259e-05
0.000572077
1.83241e-05
0.000567444
2.24701e-05
0.000562339
2.65752e-05
0.000556772
3.0672e-05
0.000550765
3.4738e-05
0.000544346
3.87803e-05
0.000537512
4.28158e-05
0.000530282
4.68153e-05
0.000522653
5.07851e-05
0.000514631
5.46966e-05
0.000506196
5.85521e-05
0.000497381
6.23023e-05
0.00048812
6.59859e-05
0.000478411
6.95632e-05
0.000468271
7.30055e-05
0.000457669
7.63269e-05
0.000446626
7.95062e-05
0.000435121
8.25543e-05
0.000423142
8.54771e-05
0.000410719
8.82487e-05
0.000397841
9.0899e-05
0.000384531
9.34158e-05
0.000370807
9.58022e-05
0.000356693
9.80578e-05
0.000342201
0.000100191
0.000327383
0.000102174
0.000312245
0.00010403
0.000296815
0.000105744
0.000281108
0.000107323
0.000265163
0.000108739
0.000249004
0.000110001
0.000232653
0.000111109
0.000216142
0.00011205
0.00019949
0.00011282
0.000182726
0.000113421
0.000165877
0.000113848
0.000148971
0.00011409
0.000132032
0.000114152
0.000115089
0.00011403
9.81643e-05
0.000113717
8.12943e-05
0.000113217
6.44989e-05
0.000112536
4.78154e-05
0.000111644
3.12694e-05
0.00011057
1.48905e-05
0.000109306
-1.29157e-06
0.000107857
-1.72419e-05
0.000106221
-3.29232e-05
0.000104406
-4.83174e-05
0.000102412
-6.33773e-05
0.000100243
-7.80676e-05
9.79129e-05
-9.23567e-05
9.54251e-05
-0.000106202
9.27859e-05
-0.000119572
9.00162e-05
-0.000132424
8.71083e-05
-0.000144722
8.40865e-05
-0.000156427
8.09609e-05
-0.000167497
7.77423e-05
-0.000177902
7.44384e-05
-0.00018761
7.10697e-05
-0.000196578
6.76327e-05
-0.000204786
6.41432e-05
-0.00021221
6.06002e-05
-0.000218838
5.69967e-05
-0.000224681
5.33323e-05
-0.00022976
4.95948e-05
-0.000234119
4.57755e-05
-0.000237826
4.18663e-05
-0.000240952
3.78658e-05
-0.000243583
3.37814e-05
-0.000245812
2.96246e-05
-0.00024771
2.54225e-05
-0.000249341
2.11955e-05
-0.000250755
1.69854e-05
-0.000251976
1.28113e-05
-0.000253007
8.69749e-06
-0.000253839
4.69243e-06
-0.000254486
8.2434e-07
-0.000255021
-2.87824e-06
-0.000255303
-6.48335e-06
-0.000255325
-9.94168e-06
-0.000255074
-1.32727e-05
-0.000254537
-1.64945e-05
-0.000253704
-1.96297e-05
-0.000252568
-2.26951e-05
-0.000251128
-2.57039e-05
-0.000249385
-2.86703e-05
-0.000247334
-3.15962e-05
-0.000244978
-3.44923e-05
-0.000242307
-3.73536e-05
-0.000239321
-4.01814e-05
-0.000236016
-4.29514e-05
-0.000232389
-4.56729e-05
-0.00022842
-4.83293e-05
-0.000224096
-5.09036e-05
-0.000219393
-5.33834e-05
-0.000214289
-5.57484e-05
-0.000208752
-5.79745e-05
-0.000202749
-6.00435e-05
-0.000196234
-6.19298e-05
-0.000189163
-6.36119e-05
-0.000181487
-6.50701e-05
-0.000173165
-6.62862e-05
-0.000164158
-6.72496e-05
-0.000154434
-6.79575e-05
-0.000143974
-6.84214e-05
-0.000132766
-6.86901e-05
-0.000120812
-6.87831e-05
-0.000108164
-6.85613e-05
-9.49064e-05
-6.77066e-05
-8.11251e-05
-6.6128e-05
-6.65666e-05
-6.56456e-05
-5.02864e-05
-7.12005e-05
-3.12198e-05
-8.61757e-05
-1.10919e-05
-9.67239e-05
-4.81606e-05
1.20198e-05
-0.000143681
4.67833e-05
-0.00030807
9.32517e-05
-0.000360111
0.000144934
-0.000352476
0.000195343
-0.000318994
0.000240656
-0.000282669
0.000280541
-0.000255688
0.00031673
-0.00024008
0.000351137
-0.000231863
0.000384725
-0.000225691
0.000417343
-0.000217762
0.000448149
-0.000206559
0.000476196
-0.000192347
0.000500866
-0.000176204
0.000521954
-0.000159266
0.000539583
-0.000142398
0.000554062
-0.000126127
0.000565796
-0.000110788
0.000575157
-9.65214e-05
0.000582505
-8.34013e-05
0.000588169
-7.14545e-05
0.000592426
-6.06125e-05
0.000595505
-5.07978e-05
0.000597594
-4.19117e-05
0.000598837
-3.38388e-05
0.000599347
-2.64726e-05
0.000599208
-1.97051e-05
0.000598475
-1.34388e-05
0.000597198
-7.58693e-06
0.000595396
-2.05982e-06
0.000593103
3.17403e-06
0.000590326
8.20842e-06
0.000587063
1.30925e-05
0.00058335
1.78384e-05
0.000579169
2.25055e-05
0.000574522
2.71165e-05
0.000569416
3.1682e-05
0.000563885
3.62026e-05
0.000557902
4.07212e-05
0.00055147
4.52115e-05
0.0005446
4.96865e-05
0.000537292
5.41227e-05
0.000529556
5.85219e-05
0.000521381
6.28708e-05
0.000512781
6.71525e-05
0.000503728
7.13552e-05
0.000494246
7.54684e-05
0.000484327
7.94816e-05
0.00047395
8.33827e-05
0.000463106
8.71715e-05
0.00045178
9.08317e-05
0.000439992
9.43423e-05
0.000427759
9.77106e-05
0.000415053
0.000100954
0.00040191
0.000104043
0.00038834
0.000106985
0.000374344
0.000109798
0.000359958
0.000112444
0.000345214
0.000114935
0.000330106
0.000117282
0.000314675
0.000119462
0.000298944
0.000121475
0.000282946
0.00012332
0.000266699
0.000124986
0.000250223
0.000126477
0.000233554
0.000127779
0.000216705
0.000128898
0.000199716
0.00012981
0.000182601
0.000130535
0.000165407
0.000131042
0.000148149
0.000131348
0.000130849
0.000131452
0.000113546
0.000131333
9.62629e-05
0.000131
7.90324e-05
0.000130447
6.18903e-05
0.000129678
4.48501e-05
0.000128684
2.79556e-05
0.000127465
1.12384e-05
0.000126024
-5.26954e-06
0.000124365
-2.15359e-05
0.000122488
-3.75221e-05
0.000120392
-5.32069e-05
0.000118097
-6.85332e-05
0.00011557
-8.34735e-05
0.000112853
-9.79939e-05
0.000109945
-0.000112051
0.000106843
-0.000125615
0.00010358
-0.000138632
0.000100125
-0.000151074
9.65286e-05
-0.000162903
9.27901e-05
-0.00017408
8.89194e-05
-0.000184575
8.49331e-05
-0.00019435
8.0845e-05
-0.00020339
7.66721e-05
-0.00021166
7.24131e-05
-0.000219161
6.81014e-05
-0.000225873
6.37091e-05
-0.000231816
5.92755e-05
-0.000237017
5.47953e-05
-0.000241509
5.02674e-05
-0.000245352
4.571e-05
-0.000248598
4.11109e-05
-0.000251326
3.65094e-05
-0.000253598
3.18971e-05
-0.000255495
2.73192e-05
-0.000257062
2.27627e-05
-0.000258368
1.82919e-05
-0.000259455
1.38975e-05
-0.000260366
9.60873e-06
-0.000261093
5.41987e-06
-0.000261643
1.37383e-06
-0.000261916
-2.60505e-06
-0.00026199
-6.40989e-06
-0.000261827
-1.01038e-05
-0.000261398
-1.37019e-05
-0.000260681
-1.72121e-05
-0.000259659
-2.06514e-05
-0.000258316
-2.40383e-05
-0.00025664
-2.738e-05
-0.000254621
-3.06893e-05
-0.000252253
-3.39638e-05
-0.000249532
-3.72129e-05
-0.000246455
-4.04308e-05
-0.000243021
-4.36152e-05
-0.000239213
-4.67601e-05
-0.00023503
-4.98555e-05
-0.000230469
-5.28899e-05
-0.000225523
-5.58501e-05
-0.000220186
-5.87202e-05
-0.000214445
-6.1489e-05
-0.000208286