/*--------------------------------*- C++ -*----------------------------------*\
| =========                 |                                                 |
| \\      /  F ield         | OpenFOAM: The Open Source CFD Toolbox           |
|  \\    /   O peration     | Version:  v2006                                 |
|   \\  /    A nd           | Website:  www.openfoam.com                      |
|    \\/     M anipulation  |                                                 |
\*---------------------------------------------------------------------------*/
FoamFile
{
    version     2.0;
    format      ascii;
    class       volScalarField;
    location    "18.1";
    object      p;
}
// * * * * * * * * * * * * * * * * * * * * * * * * * * * * * * * * * * * * * //

dimensions      [1 -1 -2 0 0 0 0];


internalField   nonuniform List<scalar> 
50000
(
22184.6
22184.7
22184.8
22184.9
22185.1
22185.4
22185.6
22185.9
22186.3
22186.7
22187.2
22187.6
22188.1
22188.7
22189.3
22189.9
22190.5
22191.2
22191.9
22192.6
22193.3
22194.1
22194.9
22195.6
22196.4
22197.2
22198
22198.8
22199.6
22200.3
22201.1
22201.8
22202.5
22203.1
22203.7
22204.3
22204.8
22205.2
22205.6
22205.9
22206.1
22206.2
22206.2
22206.2
22206
22205.8
22205.4
22204.9
22204.3
22203.6
22202.7
22201.7
22200.6
22199.3
22197.9
22196.3
22194.6
22192.7
22190.6
22188.4
22186.1
22183.5
22180.9
22178
22175
22171.8
22168.4
22164.9
22161.2
22157.3
22153.2
22149
22144.6
22140.1
22135.3
22130.5
22125.4
22120.2
22114.8
22109.3
22103.7
22097.8
22091.9
22085.8
22079.6
22073.2
22066.8
22060.2
22053.5
22046.7
22039.8
22032.8
22025.7
22018.6
22011.3
22004
21996.7
21989.3
21981.8
21974.4
21966.9
21959.3
21951.8
21944.2
21936.7
21929.2
21921.7
21914.2
21906.8
21899.4
21892.1
21884.8
21877.7
21870.6
21863.6
21856.7
21849.9
21843.2
21836.6
21830.2
21823.9
21817.7
21811.7
21805.8
21800.1
21794.6
21789.2
21784.1
21779.1
21774.3
21769.6
21765.2
21761
21757
21753.2
21749.7
21746.3
21743.2
21740.3
21737.6
21735.2
21733
21731.1
21729.3
21727.9
21726.6
21725.7
21724.9
21724.4
21724.2
21733.2
21733.3
21733.4
21733.5
21733.7
21734
21734.2
21734.6
21734.9
21735.3
21735.8
21736.3
21736.8
21737.3
21737.9
21738.5
21739.2
21739.9
21740.6
21741.3
21742
21742.8
21743.6
21744.4
21745.2
21746
21746.8
21747.6
21748.4
21749.1
21749.9
21750.6
21751.3
21751.9
21752.5
21753.1
21753.6
21754
21754.4
21754.7
21754.9
21755.1
21755.1
21755.1
21755
21754.7
21754.4
21753.9
21753.3
21752.5
21751.7
21750.7
21749.6
21748.3
21746.9
21745.3
21743.6
21741.7
21739.7
21737.5
21735.1
21732.6
21729.9
21727.1
21724
21720.8
21717.5
21713.9
21710.2
21706.3
21702.3
21698.1
21693.7
21689.1
21684.4
21679.5
21674.4
21669.2
21663.9
21658.3
21652.7
21646.9
21640.9
21634.8
21628.6
21622.2
21615.7
21609.1
21602.4
21595.6
21588.7
21581.7
21574.6
21567.4
21560.2
21552.9
21545.5
21538.1
21530.6
21523.1
21515.6
21508.1
21500.5
21493
21485.4
21477.9
21470.3
21462.8
21455.4
21448
21440.6
21433.4
21426.2
21419.1
21412.1
21405.2
21398.4
21391.7
21385.1
21378.7
21372.4
21366.2
21360.2
21354.3
21348.6
21343
21337.6
21332.4
21327.4
21322.6
21318
21313.6
21309.4
21305.3
21301.5
21298
21294.6
21291.5
21288.6
21285.9
21283.5
21281.3
21279.3
21277.6
21276.1
21274.9
21273.9
21273.2
21272.7
21272.4
21281.6
21281.7
21281.8
21282
21282.2
21282.4
21282.7
21283.1
21283.4
21283.9
21284.3
21284.8
21285.4
21285.9
21286.5
21287.1
21287.8
21288.5
21289.2
21289.9
21290.7
21291.5
21292.3
21293.1
21293.9
21294.7
21295.5
21296.4
21297.2
21298
21298.7
21299.5
21300.2
21300.9
21301.5
21302.1
21302.6
21303.1
21303.5
21303.8
21304
21304.2
21304.3
21304.2
21304.1
21303.9
21303.5
21303.1
21302.5
21301.8
21300.9
21299.9
21298.8
21297.6
21296.2
21294.6
21292.9
21291
21289
21286.8
21284.5
21282
21279.3
21276.4
21273.4
21270.2
21266.8
21263.3
21259.6
21255.7
21251.6
21247.4
21243
21238.5
21233.7
21228.8
21223.8
21218.5
21213.2
21207.6
21201.9
21196.1
21190.1
21184
21177.8
21171.4
21164.9
21158.3
21151.5
21144.7
21137.8
21130.7
21123.6
21116.4
21109.2
21101.8
21094.4
21087
21079.5
21072
21064.4
21056.8
21049.3
21041.7
21034.1
21026.5
21019
21011.5
21004
20996.6
20989.2
20981.9
20974.7
20967.6
20960.5
20953.6
20946.7
20940
20933.4
20926.9
20920.6
20914.4
20908.3
20902.4
20896.7
20891.1
20885.7
20880.5
20875.5
20870.6
20866
20861.5
20857.3
20853.3
20849.5
20845.9
20842.5
20839.3
20836.4
20833.7
20831.3
20829.1
20827.1
20825.4
20823.9
20822.7
20821.7
20821
20820.5
20820.2
20829.9
20830
20830.1
20830.3
20830.5
20830.8
20831.1
20831.5
20831.9
20832.3
20832.8
20833.3
20833.8
20834.4
20835
20835.7
20836.3
20837
20837.8
20838.5
20839.3
20840.1
20840.9
20841.8
20842.6
20843.5
20844.3
20845.2
20846
20846.8
20847.6
20848.4
20849.1
20849.8
20850.5
20851.1
20851.7
20852.2
20852.6
20853
20853.3
20853.4
20853.5
20853.5
20853.4
20853.2
20852.9
20852.5
20851.9
20851.2
20850.4
20849.5
20848.4
20847.1
20845.7
20844.2
20842.5
20840.6
20838.6
20836.5
20834.1
20831.6
20828.9
20826.1
20823.1
20819.9
20816.5
20813
20809.3
20805.4
20801.3
20797.1
20792.7
20788.1
20783.4
20778.5
20773.4
20768.1
20762.7
20757.2
20751.5
20745.6
20739.6
20733.5
20727.2
20720.8
20714.3
20707.6
20700.9
20694
20687
20680
20672.8
20665.6
20658.2
20650.9
20643.4
20635.9
20628.4
20620.8
20613.2
20605.6
20598
20590.4
20582.7
20575.1
20567.5
20560
20552.5
20545
20537.6
20530.2
20523
20515.8
20508.7
20501.7
20494.8
20488
20481.4
20474.9
20468.5
20462.3
20456.2
20450.2
20444.4
20438.8
20433.4
20428.2
20423.1
20418.2
20413.6
20409.1
20404.8
20400.8
20396.9
20393.3
20389.9
20386.8
20383.8
20381.1
20378.7
20376.5
20374.5
20372.7
20371.2
20370
20369
20368.3
20367.8
20367.5
20378
20378.1
20378.3
20378.5
20378.7
20379
20379.3
20379.7
20380.1
20380.6
20381.1
20381.7
20382.2
20382.8
20383.5
20384.1
20384.8
20385.5
20386.3
20387.1
20387.9
20388.7
20389.6
20390.4
20391.3
20392.2
20393.1
20394
20394.9
20395.7
20396.6
20397.4
20398.2
20398.9
20399.6
20400.3
20400.9
20401.5
20401.9
20402.3
20402.6
20402.9
20403
20403
20403
20402.8
20402.5
20402.1
20401.6
20400.9
20400.1
20399.2
20398.2
20396.9
20395.6
20394.1
20392.4
20390.6
20388.6
20386.4
20384.1
20381.6
20378.9
20376.1
20373.1
20369.9
20366.5
20363
20359.3
20355.4
20351.3
20347.1
20342.7
20338.1
20333.3
20328.4
20323.3
20318
20312.6
20307
20301.3
20295.4
20289.4
20283.2
20276.9
20270.5
20263.9
20257.2
20250.4
20243.5
20236.5
20229.3
20222.1
20214.8
20207.5
20200
20192.5
20185
20177.4
20169.8
20162.1
20154.4
20146.7
20139
20131.4
20123.7
20116
20108.4
20100.8
20093.3
20085.8
20078.4
20071.1
20063.9
20056.7
20049.7
20042.7
20035.9
20029.2
20022.6
20016.2
20009.9
20003.7
19997.7
19991.9
19986.2
19980.8
19975.5
19970.4
19965.5
19960.8
19956.2
19952
19947.9
19944
19940.4
19936.9
19933.7
19930.8
19928.1
19925.6
19923.4
19921.4
19919.6
19918.1
19916.9
19915.9
19915.1
19914.6
19914.3
19925.9
19926
19926.2
19926.4
19926.7
19927
19927.4
19927.8
19928.3
19928.8
19929.4
19929.9
19930.5
19931.2
19931.8
19932.5
19933.2
19934
19934.7
19935.5
19936.4
19937.2
19938.1
19939
19940
19940.9
19941.9
19942.8
19943.7
19944.7
19945.6
19946.4
19947.3
19948.1
19948.9
19949.6
19950.2
19950.8
19951.4
19951.8
19952.2
19952.5
19952.7
19952.7
19952.7
19952.6
19952.4
19952
19951.5
19950.9
19950.1
19949.3
19948.2
19947
19945.7
19944.2
19942.6
19940.8
19938.8
19936.7
19934.4
19931.9
19929.2
19926.4
19923.4
19920.2
19916.9
19913.3
19909.6
19905.7
19901.6
19897.4
19893
19888.4
19883.6
19878.6
19873.5
19868.2
19862.8
19857.2
19851.4
19845.5
19839.4
19833.2
19826.8
19820.3
19813.7
19807
19800.1
19793.1
19786.1
19778.9
19771.6
19764.2
19756.8
19749.3
19741.7
19734.1
19726.5
19718.7
19711
19703.3
19695.5
19687.7
19679.9
19672.2
19664.5
19656.8
19649.1
19641.5
19633.9
19626.4
19619
19611.7
19604.5
19597.4
19590.4
19583.5
19576.7
19570
19563.5
19557.2
19551
19544.9
19539
19533.3
19527.8
19522.4
19517.3
19512.3
19507.6
19503
19498.7
19494.5
19490.6
19487
19483.5
19480.3
19477.3
19474.5
19472
19469.8
19467.8
19466
19464.5
19463.2
19462.2
19461.4
19460.9
19460.7
19473.6
19473.8
19474
19474.2
19474.5
19474.9
19475.4
19475.8
19476.4
19476.9
19477.5
19478.1
19478.8
19479.4
19480.1
19480.8
19481.5
19482.3
19483.1
19483.9
19484.8
19485.7
19486.7
19487.6
19488.6
19489.6
19490.6
19491.6
19492.6
19493.6
19494.6
19495.5
19496.5
19497.3
19498.2
19499
19499.7
19500.4
19500.9
19501.5
19501.9
19502.2
19502.5
19502.6
19502.7
19502.6
19502.4
19502.1
19501.7
19501.1
19500.4
19499.6
19498.6
19497.4
19496.1
19494.7
19493.1
19491.3
19489.3
19487.2
19484.9
19482.5
19479.9
19477
19474.1
19470.9
19467.5
19464
19460.3
19456.4
19452.3
19448
19443.6
19439
19434.2
19429.2
19424
19418.7
19413.2
19407.6
19401.8
19395.8
19389.7
19383.4
19377
19370.5
19363.8
19357
19350
19343
19335.8
19328.6
19321.2
19313.8
19306.3
19298.7
19291
19283.3
19275.6
19267.8
19260
19252.1
19244.2
19236.4
19228.5
19220.7
19212.8
19205
19197.3
19189.6
19182
19174.4
19166.9
19159.5
19152.1
19144.9
19137.8
19130.8
19124
19117.2
19110.6
19104.2
19097.9
19091.8
19085.8
19080
19074.4
19069
19063.8
19058.8
19054
19049.4
19045
19040.8
19036.8
19033.1
19029.6
19026.4
19023.3
19020.6
19018
19015.7
19013.7
19011.9
19010.4
19009.1
19008.1
19007.3
19006.8
19006.5
19021.1
19021.2
19021.5
19021.8
19022.2
19022.6
19023.1
19023.7
19024.3
19024.9
19025.6
19026.2
19026.9
19027.6
19028.3
19029
19029.8
19030.6
19031.4
19032.3
19033.2
19034.2
19035.2
19036.2
19037.3
19038.3
19039.4
19040.5
19041.6
19042.6
19043.7
19044.7
19045.7
19046.7
19047.6
19048.5
19049.3
19050
19050.7
19051.3
19051.8
19052.2
19052.5
19052.7
19052.8
19052.8
19052.7
19052.5
19052.1
19051.6
19050.9
19050.1
19049.2
19048.1
19046.8
19045.4
19043.9
19042.1
19040.2
19038.1
19035.9
19033.4
19030.8
19028
19025
19021.9
19018.5
19015
19011.3
19007.4
19003.3
18999
18994.5
18989.9
18985.1
18980.1
18974.9
18969.5
18964
18958.3
18952.4
18946.4
18940.3
18933.9
18927.5
18920.8
18914.1
18907.2
18900.2
18893.1
18885.8
18878.5
18871
18863.5
18855.9
18848.2
18840.5
18832.6
18824.8
18816.9
18808.9
18801
18793
18785
18777.1
18769.1
18761.2
18753.2
18745.4
18737.6
18729.8
18722.1
18714.5
18707
18699.6
18692.2
18685
18677.9
18671
18664.1
18657.5
18650.9
18644.5
18638.3
18632.3
18626.4
18620.7
18615.3
18610
18604.9
18600
18595.3
18590.9
18586.6
18582.6
18578.8
18575.3
18572
18568.9
18566.1
18563.5
18561.2
18559.1
18557.3
18555.8
18554.5
18553.4
18552.7
18552.1
18551.9
18568.3
18568.5
18568.7
18569.1
18569.6
18570.1
18570.8
18571.4
18572.1
18572.9
18573.6
18574.3
18574.9
18575.6
18576.3
18577.1
18577.9
18578.7
18579.6
18580.5
18581.5
18582.5
18583.6
18584.7
18585.8
18587
18588.2
18589.3
18590.5
18591.7
18592.8
18593.9
18595
18596.1
18597.1
18598
18598.9
18599.8
18600.5
18601.2
18601.8
18602.3
18602.7
18603
18603.2
18603.3
18603.2
18603
18602.7
18602.3
18601.7
18601
18600.1
18599
18597.8
18596.5
18595
18593.3
18591.4
18589.3
18587.1
18584.7
18582.1
18579.3
18576.4
18573.2
18569.9
18566.3
18562.6
18558.7
18554.6
18550.3
18545.8
18541.1
18536.3
18531.3
18526
18520.6
18515.1
18509.3
18503.4
18497.3
18491.1
18484.7
18478.1
18471.4
18464.6
18457.6
18450.5
18443.3
18436
18428.5
18421
18413.4
18405.6
18397.8
18390
18382
18374.1
18366
18358
18349.9
18341.8
18333.7
18325.6
18317.5
18309.4
18301.4
18293.4
18285.4
18277.5
18269.7
18262
18254.3
18246.8
18239.3
18232
18224.8
18217.7
18210.8
18204
18197.4
18190.9
18184.6
18178.4
18172.5
18166.7
18161.1
18155.7
18150.6
18145.6
18140.8
18136.3
18132
18127.9
18124.1
18120.5
18117.1
18114
18111.2
18108.6
18106.2
18104.1
18102.3
18100.7
18099.4
18098.3
18097.5
18097
18096.7
18115.2
18115.4
18115.7
18116.1
18116.7
18117.4
18118.2
18119
18119.9
18120.7
18121.5
18122.2
18122.9
18123.6
18124.3
18125.1
18125.9
18126.7
18127.7
18128.7
18129.7
18130.8
18132
18133.2
18134.4
18135.6
18136.9
18138.2
18139.5
18140.7
18142
18143.2
18144.4
18145.6
18146.7
18147.8
18148.8
18149.7
18150.6
18151.3
18152
18152.6
18153.1
18153.5
18153.8
18153.9
18154
18153.9
18153.7
18153.3
18152.8
18152.1
18151.3
18150.3
18149.2
18147.8
18146.4
18144.7
18142.9
18140.9
18138.7
18136.3
18133.7
18131
18128
18124.9
18121.5
18118
18114.3
18110.4
18106.2
18101.9
18097.4
18092.7
18087.9
18082.8
18077.5
18072.1
18066.4
18060.6
18054.7
18048.5
18042.2
18035.7
18029.1
18022.3
18015.4
18008.3
18001.1
17993.8
17986.4
17978.8
17971.1
17963.4
17955.5
17947.6
17939.6
17931.5
17923.4
17915.2
17907
17898.8
17890.6
17882.3
17874
17865.8
17857.6
17849.4
17841.3
17833.2
17825.1
17817.2
17809.3
17801.5
17793.8
17786.2
17778.8
17771.4
17764.2
17757.2
17750.2
17743.5
17736.9
17730.4
17724.2
17718.1
17712.3
17706.6
17701.1
17695.8
17690.8
17686
17681.3
17677
17672.8
17668.9
17665.3
17661.8
17658.7
17655.8
17653.1
17650.7
17648.6
17646.7
17645.1
17643.7
17642.6
17641.8
17641.3
17641
17661.8
17661.9
17662.3
17662.8
17663.4
17664.3
17665.4
17666.5
17667.6
17668.5
17669.4
17670.1
17670.8
17671.5
17672.2
17672.9
17673.7
17674.6
17675.6
17676.7
17677.8
17679
17680.2
17681.5
17682.9
17684.2
17685.6
17687
17688.4
17689.8
17691.2
17692.5
17693.9
17695.2
17696.4
17697.6
17698.7
17699.7
17700.7
17701.6
17702.4
17703.1
17703.7
17704.2
17704.6
17704.8
17705
17705
17704.8
17704.5
17704.1
17703.5
17702.8
17701.9
17700.8
17699.5
17698.1
17696.5
17694.7
17692.7
17690.6
17688.2
17685.7
17683
17680
17676.9
17673.6
17670
17666.3
17662.4
17658.3
17653.9
17649.4
17644.7
17639.8
17634.6
17629.3
17623.8
17618.2
17612.3
17606.2
17600
17593.6
17587.1
17580.3
17573.5
17566.4
17559.3
17551.9
17544.5
17536.9
17529.2
17521.5
17513.6
17505.6
17497.5
17489.3
17481.1
17472.8
17464.5
17456.2
17447.8
17439.3
17430.9
17422.5
17414.1
17405.7
17397.4
17389
17380.8
17372.6
17364.5
17356.4
17348.5
17340.6
17332.9
17325.3
17317.8
17310.4
17303.2
17296.2
17289.3
17282.5
17276
17269.6
17263.4
17257.5
17251.7
17246.1
17240.7
17235.6
17230.6
17225.9
17221.5
17217.2
17213.3
17209.5
17206
17202.8
17199.8
17197.1
17194.7
17192.5
17190.6
17188.9
17187.6
17186.5
17185.7
17185.1
17184.8
17208
17208.2
17208.5
17209
17209.8
17211
17212.4
17213.9
17215.2
17216.4
17217.3
17218
17218.6
17219.2
17219.8
17220.6
17221.4
17222.3
17223.4
17224.5
17225.7
17227
17228.4
17229.8
17231.3
17232.8
17234.3
17235.9
17237.4
17238.9
17240.4
17241.9
17243.4
17244.8
17246.2
17247.5
17248.8
17249.9
17251
17252.1
17253
17253.8
17254.5
17255.1
17255.6
17256
17256.2
17256.3
17256.3
17256.1
17255.7
17255.2
17254.6
17253.7
17252.7
17251.5
17250.2
17248.6
17246.9
17245
17242.9
17240.5
17238
17235.3
17232.4
17229.3
17226
17222.5
17218.7
17214.8
17210.6
17206.3
17201.7
17197
17192
17186.9
17181.5
17175.9
17170.2
17164.3
17158.1
17151.8
17145.3
17138.7
17131.9
17124.9
17117.7
17110.4
17103
17095.4
17087.7
17079.9
17071.9
17063.9
17055.8
17047.5
17039.2
17030.8
17022.4
17013.9
17005.3
16996.7
16988.1
16979.5
16970.9
16962.3
16953.8
16945.2
16936.7
16928.3
16919.9
16911.6
16903.4
16895.3
16887.2
16879.3
16871.5
16863.9
16856.4
16849
16841.8
16834.8
16827.9
16821.2
16814.7
16808.4
16802.3
16796.3
16790.6
16785.2
16779.9
16774.9
16770.1
16765.5
16761.2
16757.1
16753.3
16749.8
16746.5
16743.4
16740.7
16738.2
16735.9
16734
16732.3
16730.9
16729.8
16728.9
16728.4
16728.1
16753.9
16754.1
16754.4
16754.9
16755.9
16757.3
16759.1
16761
16762.8
16764.1
16765.1
16765.7
16766.2
16766.7
16767.2
16767.9
16768.8
16769.8
16770.9
16772.1
16773.5
16774.9
16776.5
16778
16779.6
16781.3
16783
16784.7
16786.4
16788.1
16789.7
16791.4
16793
16794.6
16796.1
16797.6
16799
16800.3
16801.5
16802.7
16803.7
16804.7
16805.5
16806.3
16806.9
16807.4
16807.7
16807.9
16808
16807.9
16807.6
16807.2
16806.6
16805.9
16805
16803.9
16802.6
16801.1
16799.4
16797.5
16795.5
16793.2
16790.7
16788.1
16785.2
16782.1
16778.8
16775.2
16771.5
16767.6
16763.4
16759
16754.4
16749.7
16744.6
16739.4
16734
16728.4
16722.6
16716.6
16710.3
16704
16697.4
16690.6
16683.7
16676.6
16669.3
16661.9
16654.3
16646.6
16638.7
16630.7
16622.6
16614.4
16606.1
16597.7
16589.2
16580.6
16572
16563.3
16554.5
16545.8
16537
16528.2
16519.3
16510.5
16501.8
16493
16484.3
16475.7
16467.1
16458.6
16450.2
16441.8
16433.6
16425.5
16417.6
16409.7
16402
16394.5
16387.1
16379.9
16372.9
16366
16359.4
16352.9
16346.7
16340.6
16334.8
16329.2
16323.8
16318.7
16313.8
16309.1
16304.7
16300.5
16296.6
16293
16289.6
16286.5
16283.7
16281.1
16278.8
16276.8
16275.1
16273.7
16272.5
16271.7
16271.1
16270.8
16299.3
16299.4
16299.7
16300.1
16300.9
16302.4
16304.5
16306.9
16309.3
16311.2
16312.3
16312.9
16313.3
16313.6
16314.1
16314.9
16315.8
16316.9
16318.1
16319.6
16321.1
16322.7
16324.4
16326.1
16327.9
16329.8
16331.6
16333.5
16335.4
16337.2
16339.1
16340.9
16342.7
16344.4
16346.1
16347.7
16349.3
16350.8
16352.2
16353.5
16354.7
16355.8
16356.8
16357.6
16358.4
16359
16359.5
16359.8
16360
16360
16359.8
16359.5
16359.1
16358.4
16357.6
16356.5
16355.3
16353.9
16352.3
16350.5
16348.5
16346.2
16343.8
16341.2
16338.3
16335.2
16331.9
16328.4
16324.7
16320.7
16316.5
16312.2
16307.5
16302.7
16297.7
16292.4
16286.9
16281.2
16275.3
16269.2
16262.9
16256.4
16249.7
16242.8
16235.8
16228.6
16221.1
16213.6
16205.9
16198
16190
16181.8
16173.5
16165.1
16156.6
16148
16139.3
16130.5
16121.7
16112.8
16103.8
16094.8
16085.8
16076.8
16067.7
16058.7
16049.7
16040.7
16031.8
16022.9
16014.1
16005.4
15996.7
15988.2
15979.8
15971.5
15963.3
15955.3
15947.4
15939.7
15932.1
15924.7
15917.5
15910.5
15903.7
15897.1
15890.7
15884.5
15878.5
15872.8
15867.3
15862
15857
15852.2
15847.7
15843.4
15839.4
15835.7
15832.2
15829
15826.1
15823.5
15821.2
15819.1
15817.4
15815.9
15814.7
15813.8
15813.2
15812.9
15843.9
15843.8
15843.5
15842.9
15842.7
15843.6
15845.9
15849.2
15852.8
15856
15858.1
15859.1
15859.4
15859.7
15860.3
15861.2
15862.3
15863.6
15865.1
15866.7
15868.4
15870.3
15872.2
15874.1
15876.1
15878.2
15880.2
15882.3
15884.4
15886.4
15888.5
15890.5
15892.4
15894.4
15896.2
15898
15899.8
15901.4
15903
15904.4
15905.8
15907.1
15908.2
15909.2
15910.1
15910.9
15911.5
15911.9
15912.3
15912.4
15912.4
15912.2
15911.8
15911.2
15910.5
15909.6
15908.4
15907.1
15905.6
15903.8
15901.8
15899.7
15897.3
15894.7
15891.8
15888.8
15885.5
15882
15878.3
15874.3
15870.1
15865.7
15861
15856.1
15851
15845.7
15840.2
15834.4
15828.4
15822.2
15815.8
15809.2
15802.4
15795.4
15788.2
15780.9
15773.3
15765.6
15757.7
15749.6
15741.4
15733.1
15724.6
15716
15707.3
15698.5
15689.6
15680.6
15671.5
15662.4
15653.2
15643.9
15634.7
15625.4
15616.1
15606.8
15597.5
15588.3
15579.1
15570
15561
15552
15543.1
15534.4
15525.7
15517.2
15508.8
15500.6
15492.5
15484.6
15476.8
15469.2
15461.8
15454.6
15447.6
15440.8
15434.3
15427.9
15421.8
15415.9
15410.3
15404.9
15399.7
15394.8
15390.2
15385.8
15381.7
15377.9
15374.3
15371
15368.1
15365.4
15363
15360.9
15359.1
15357.5
15356.3
15355.4
15354.8
15354.5
15386.9
15386.6
15385
15382.8
15381.2
15381.3
15383.6
15387.9
15393.1
15398.1
15401.7
15403.6
15404.3
15404.6
15405.3
15406.6
15408.1
15409.8
15411.6
15413.6
15415.6
15417.7
15419.8
15422
15424.3
15426.5
15428.8
15431.1
15433.4
15435.6
15437.9
15440.1
15442.3
15444.4
15446.5
15448.4
15450.4
15452.2
15454
15455.6
15457.2
15458.6
15459.9
15461.1
15462.1
15463
15463.8
15464.4
15464.8
15465.1
15465.2
15465.1
15464.9
15464.4
15463.8
15462.9
15461.9
15460.6
15459.2
15457.5
15455.6
15453.5
15451.2
15448.6
15445.8
15442.7
15439.5
15436
15432.2
15428.3
15424.1
15419.6
15414.9
15410
15404.8
15399.5
15393.8
15388
15381.9
15375.6
15369.1
15362.4
15355.5
15348.3
15341
15333.5
15325.8
15317.9
15309.8
15301.6
15293.2
15284.6
15276
15267.1
15258.2
15249.2
15240
15230.8
15221.4
15212
15202.6
15193.1
15183.5
15174
15164.4
15154.9
15145.3
15135.8
15126.4
15117
15107.7
15098.5
15089.3
15080.3
15071.4
15062.6
15054
15045.5
15037.2
15029.1
15021.1
15013.3
15005.7
14998.4
14991.2
14984.2
14977.4
14970.9
14964.6
14958.6
14952.8
14947.2
14941.9
14936.9
14932.1
14927.6
14923.4
14919.5
14915.8
14912.5
14909.4
14906.6
14904.2
14902
14900.2
14898.6
14897.4
14896.4
14895.8
14895.5
14929.7
14928.9
14926.2
14922.4
14919.3
14918.7
14921.2
14926.5
14932.8
14938.9
14943.6
14946.3
14947.5
14948.1
14949.2
14951
14953.3
14955.6
14957.9
14960.2
14962.5
14964.9
14967.4
14969.9
14972.4
14974.9
14977.4
14979.9
14982.4
14984.9
14987.4
14989.8
14992.2
14994.5
14996.8
14999
15001.1
15003.2
15005.1
15007
15008.7
15010.3
15011.8
15013.2
15014.4
15015.4
15016.4
15017.1
15017.7
15018.1
15018.4
15018.4
15018.3
15018
15017.4
15016.7
15015.7
15014.6
15013.2
15011.6
15009.8
15007.7
15005.4
15002.9
15000.1
14997.1
14993.9
14990.4
14986.7
14982.7
14978.4
14974
14969.3
14964.3
14959.1
14953.6
14947.9
14942
14935.8
14929.4
14922.8
14915.9
14908.9
14901.6
14894.1
14886.4
14878.5
14870.5
14862.2
14853.8
14845.2
14836.4
14827.5
14818.5
14809.3
14800
14790.6
14781.1
14771.5
14761.8
14752.1
14742.3
14732.5
14722.6
14712.7
14702.9
14693.1
14683.3
14673.5
14663.8
14654.2
14644.7
14635.3
14626
14616.9
14607.8
14598.9
14590.2
14581.7
14573.3
14565.1
14557.1
14549.3
14541.7
14534.3
14527.1
14520.2
14513.5
14507
14500.8
14494.8
14489.1
14483.7
14478.5
14473.6
14469
14464.6
14460.6
14456.8
14453.4
14450.2
14447.3
14444.8
14442.6
14440.7
14439.1
14437.8
14436.8
14436.2
14435.9
14474.3
14473
14469.8
14465.4
14461.8
14460.8
14463.1
14468.3
14474.5
14480.4
14485
14487.9
14489.3
14490.4
14492
14494.7
14497.9
14501
14503.9
14506.6
14509.4
14512.1
14514.9
14517.6
14520.4
14523.2
14526
14528.7
14531.5
14534.2
14536.9
14539.6
14542.2
14544.8
14547.3
14549.7
14552.1
14554.3
14556.5
14558.5
14560.5
14562.3
14564
14565.5
14566.9
14568.1
14569.2
14570.2
14570.9
14571.5
14571.9
14572.1
14572.1
14571.9
14571.5
14570.8
14570
14568.9
14567.6
14566.1
14564.4
14562.4
14560.1
14557.7
14554.9
14552
14548.7
14545.3
14541.5
14537.5
14533.3
14528.8
14524
14519
14513.7
14508.2
14502.4
14496.4
14490.1
14483.6
14476.9
14469.9
14462.7
14455.2
14447.6
14439.7
14431.6
14423.4
14414.9
14406.3
14397.5
14388.5
14379.3
14370
14360.6
14351
14341.4
14331.6
14321.7
14311.7
14301.7
14291.6
14281.4
14271.2
14261
14250.9
14240.7
14230.6
14220.5
14210.5
14200.6
14190.8
14181.1
14171.5
14162
14152.7
14143.6
14134.6
14125.8
14117.1
14108.7
14100.4
14092.4
14084.6
14077
14069.6
14062.5
14055.6
14048.9
14042.5
14036.4
14030.5
14024.9
14019.5
14014.5
14009.7
14005.2
14001.1
13997.2
13993.6
13990.4
13987.4
13984.8
13982.5
13980.6
13978.9
13977.6
13976.6
13975.9
13975.6
14021.4
14020.2
14017.1
14013
14009.6
14008.4
14010.1
14014.2
14019
14023.4
14026.8
14028.9
14030.3
14031.9
14034.4
14038.1
14042.3
14046.3
14049.8
14053
14056.1
14059.2
14062.3
14065.4
14068.5
14071.5
14074.6
14077.6
14080.6
14083.6
14086.6
14089.5
14092.4
14095.2
14097.9
14100.6
14103.2
14105.6
14108
14110.3
14112.4
14114.5
14116.4
14118.1
14119.7
14121.1
14122.4
14123.5
14124.4
14125.2
14125.7
14126.1
14126.2
14126.1
14125.9
14125.4
14124.6
14123.7
14122.5
14121.1
14119.4
14117.5
14115.3
14112.9
14110.2
14107.3
14104.1
14100.6
14096.9
14092.9
14088.6
14084.1
14079.3
14074.2
14068.8
14063.2
14057.4
14051.3
14044.9
14038.2
14031.4
14024.2
14016.9
14009.3
14001.4
13993.4
13985.1
13976.6
13967.9
13959.1
13950
13940.8
13931.4
13921.8
13912.1
13902.3
13892.3
13882.2
13872
13861.7
13851.3
13840.9
13830.4
13819.9
13809.3
13798.8
13788.3
13777.8
13767.4
13757.1
13746.8
13736.6
13726.6
13716.7
13706.9
13697.3
13687.9
13678.6
13669.5
13660.6
13651.9
13643.4
13635.1
13627.1
13619.2
13611.6
13604.3
13597.2
13590.3
13583.7
13577.4
13571.3
13565.5
13560
13554.8
13549.9
13545.3
13541
13537
13533.3
13530
13526.9
13524.2
13521.8
13519.8
13518.1
13516.7
13515.7
13515
13514.7
13570.7
13570.1
13567.5
13564.2
13561.5
13560.2
13560.9
13563
13565.6
13567.8
13569.3
13570.4
13571.6
13573.8
13577.2
13582.1
13587.2
13591.8
13595.8
13599.5
13603
13606.4
13609.8
13613.2
13616.5
13619.8
13623.2
13626.5
13629.8
13633
13636.3
13639.5
13642.6
13645.7
13648.7
13651.6
13654.4
13657.1
13659.8
13662.3
13664.7
13666.9
13669
13671
13672.8
13674.4
13675.9
13677.2
13678.3
13679.2
13679.9
13680.4
13680.7
13680.8
13680.7
13680.3
13679.7
13678.9
13677.8
13676.4
13674.9
13673
13670.9
13668.5
13665.9
13663
13659.8
13656.4
13652.7
13648.7
13644.4
13639.8
13635
13629.8
13624.4
13618.8
13612.8
13606.6
13600.1
13593.3
13586.3
13579
13571.5
13563.7
13555.7
13547.4
13538.9
13530.2
13521.3
13512.2
13502.9
13493.4
13483.7
13473.9
13463.9
13453.7
13443.4
13433
13422.5
13411.8
13401.1
13390.3
13379.4
13368.5
13357.6
13346.6
13335.8
13324.9
13314.1
13303.4
13292.8
13282.3
13271.9
13261.6
13251.6
13241.6
13231.9
13222.3
13212.9
13203.7
13194.7
13186
13177.4
13169.1
13161
13153.2
13145.6
13138.3
13131.2
13124.4
13117.9
13111.6
13105.6
13100
13094.6
13089.5
13084.7
13080.3
13076.2
13072.4
13068.9
13065.8
13063
13060.5
13058.4
13056.6
13055.2
13054.2
13053.5
13053.1
13118.9
13118.9
13117.6
13115.9
13114.1
13112.7
13112.2
13112.4
13112.7
13112.9
13113
13113.4
13114.7
13117.5
13121.9
13127.4
13133
13137.9
13142.2
13146.1
13149.9
13153.6
13157.3
13160.9
13164.6
13168.2
13171.8
13175.4
13179
13182.5
13186.1
13189.5
13192.9
13196.3
13199.6
13202.8
13205.8
13208.8
13211.7
13214.5
13217.1
13219.6
13222
13224.1
13226.2
13228
13229.7
13231.2
13232.5
13233.6
13234.5
13235.2
13235.6
13235.9
13235.9
13235.7
13235.2
13234.5
13233.5
13232.3
13230.8
13229
13227
13224.7
13222.1
13219.3
13216.1
13212.7
13209
13205
13200.7
13196.1
13191.2
13186
13180.5
13174.8
13168.7
13162.4
13155.8
13148.9
13141.7
13134.2
13126.5
13118.5
13110.3
13101.8
13093.1
13084.2
13075
13065.7
13056.1
13046.3
13036.3
13026.2
13015.9
13005.4
12994.8
12984
12973.1
12962.1
12951
12939.8
12928.5
12917.1
12905.8
12894.4
12883.1
12871.9
12860.7
12849.6
12838.6
12827.7
12816.9
12806.3
12795.9
12785.6
12775.5
12765.6
12755.9
12746.4
12737.1
12728.1
12719.3
12710.7
12702.4
12694.3
12686.4
12678.9
12671.6
12664.5
12657.8
12651.3
12645.2
12639.3
12633.7
12628.5
12623.6
12619
12614.7
12610.8
12607.2
12603.9
12601
12598.5
12596.3
12594.5
12593
12591.9
12591.2
12590.8
12665
12665
12665.1
12664.8
12663.7
12662.4
12661.2
12660.2
12659.3
12658.6
12658.2
12658.6
12660.4
12663.8
12668.5
12674.2
12679.6
12684.5
12688.8
12692.9
12697
12700.9
12704.8
12708.8
12712.7
12716.6
12720.5
12724.4
12728.3
12732.1
12735.9
12739.7
12743.4
12747
12750.6
12754.1
12757.5
12760.7
12763.9
12766.9
12769.8
12772.6
12775.2
12777.6
12779.9
12781.9
12783.8
12785.6
12787.1
12788.4
12789.4
12790.3
12791
12791.4
12791.5
12791.4
12791.1
12790.5
12789.7
12788.6
12787.2
12785.5
12783.6
12781.4
12778.8
12776
12772.9
12769.5
12765.8
12761.8
12757.5
12752.8
12747.9
12742.7
12737.1
12731.3
12725.1
12718.7
12711.9
12704.9
12697.5
12689.9
12682
12673.8
12665.4
12656.7
12647.7
12638.5
12629.1
12619.5
12609.6
12599.5
12589.2
12578.7
12568.1
12557.3
12546.3
12535.2
12523.9
12512.5
12501
12489.3
12477.6
12465.8
12454
12442.2
12430.4
12418.7
12407.1
12395.6
12384.1
12372.8
12361.7
12350.7
12339.9
12329.2
12318.8
12308.5
12298.5
12288.7
12279.1
12269.8
12260.7
12251.8
12243.2
12234.9
12226.8
12219
12211.4
12204.2
12197.2
12190.5
12184.1
12178.1
12172.3
12166.9
12161.8
12157
12152.6
12148.5
12144.7
12141.4
12138.4
12135.7
12133.5
12131.6
12130.1
12128.9
12128.2
12127.7
12208.9
12208.9
12209.7
12210
12209.4
12208.4
12207.2
12206.2
12205.3
12204.7
12204.8
12205.8
12208.2
12211.9
12216.6
12221.9
12226.8
12231.3
12235.7
12239.9
12244.1
12248.2
12252.4
12256.6
12260.8
12265
12269.2
12273.4
12277.6
12281.7
12285.9
12290
12294
12297.9
12301.8
12305.6
12309.3
12312.9
12316.3
12319.6
12322.8
12325.8
12328.7
12331.4
12333.9
12336.2
12338.3
12340.3
12342
12343.5
12344.8
12345.9
12346.7
12347.3
12347.6
12347.7
12347.5
12347.1
12346.4
12345.4
12344.1
12342.5
12340.7
12338.5
12336.1
12333.3
12330.3
12326.9
12323.2
12319.2
12314.8
12310.2
12305.2
12299.9
12294.3
12288.3
12282.1
12275.5
12268.6
12261.4
12253.9
12246.1
12238
12229.6
12220.9
12212
12202.8
12193.3
12183.6
12173.6
12163.4
12153
12142.4
12131.6
12120.6
12109.4
12098.1
12086.5
12074.9
12063
12051.1
12038.9
12026.7
12014.4
12002
11989.7
11977.5
11965.3
11953.3
11941.3
11929.4
11917.7
11906.1
11894.7
11883.5
11872.5
11861.6
11851
11840.7
11830.5
11820.6
11811
11801.6
11792.4
11783.5
11774.9
11766.6
11758.5
11750.7
11743.2
11736
11729.1
11722.5
11716.2
11710.2
11704.6
11699.3
11694.3
11689.7
11685.5
11681.6
11678.1
11675
11672.3
11669.9
11667.9
11666.4
11665.2
11664.4
11663.9
11751.2
11751.5
11752.2
11752.6
11752.4
11751.9
11751.4
11751
11750.9
11751.2
11752.1
11753.9
11756.7
11760.4
11764.7
11769.3
11773.8
11778.2
11782.4
11786.7
11791
11795.4
11799.8
11804.3
11808.8
11813.3
11817.8
11822.4
11826.9
11831.4
11835.9
11840.3
11844.7
11849
11853.2
11857.3
11861.3
11865.2
11868.9
11872.6
11876
11879.3
11882.5
11885.4
11888.2
11890.8
11893.2
11895.3
11897.3
11899
11900.5
11901.8
11902.8
11903.6
11904.1
11904.4
11904.4
11904.1
11903.5
11902.7
11901.5
11900.1
11898.3
11896.2
11893.9
11891.2
11888.1
11884.8
11881.1
11877.1
11872.8
11868.1
11863.1
11857.7
11852
11846
11839.6
11832.9
11825.9
11818.5
11810.8
11802.8
11794.5
11785.9
11776.9
11767.7
11758.2
11748.5
11738.4
11728.2
11717.6
11706.9
11695.9
11684.7
11673.3
11661.8
11650
11638.1
11626
11613.7
11601.3
11588.6
11575.8
11562.9
11550
11537.1
11524.4
11511.8
11499.2
11486.8
11474.5
11462.3
11450.3
11438.4
11426.7
11415.3
11404.1
11393.1
11382.3
11371.9
11361.6
11351.7
11342
11332.5
11323.3
11314.4
11305.8
11297.5
11289.4
11281.6
11274.2
11267
11260.2
11253.6
11247.5
11241.6
11236.1
11231
11226.2
11221.8
11217.8
11214.1
11210.9
11208
11205.6
11203.5
11201.9
11200.6
11199.8
11199.3
11292.7
11293
11293.6
11294.1
11294.3
11294.4
11294.7
11295.2
11296
11297.2
11298.9
11301.3
11304.3
11307.9
11311.9
11316
11320.2
11324.5
11328.8
11333.3
11337.8
11342.4
11347.1
11351.9
11356.7
11361.6
11366.5
11371.4
11376.3
11381.1
11386
11390.8
11395.5
11400.1
11404.7
11409.2
11413.5
11417.7
11421.8
11425.8
11429.5
11433.1
11436.6
11439.8
11442.9
11445.7
11448.4
11450.8
11453
11455
11456.7
11458.2
11459.4
11460.4
11461.1
11461.6
11461.7
11461.6
11461.2
11460.5
11459.5
11458.1
11456.5
11454.5
11452.2
11449.6
11446.6
11443.3
11439.6
11435.6
11431.3
11426.6
11421.5
11416.1
11410.3
11404.2
11397.7
11390.9
11383.7
11376.1
11368.3
11360.1
11351.5
11342.6
11333.5
11324
11314.2
11304.1
11293.7
11283.1
11272.2
11261
11249.7
11238.1
11226.3
11214.3
11202.1
11189.8
11177.3
11164.5
11151.6
11138.4
11124.9
11111.3
11097.7
11084.2
11071
11057.9
11044.9
11032
11019.2
11006.5
10994
10981.6
10969.5
10957.6
10946
10934.6
10923.5
10912.7
10902.1
10891.8
10881.8
10872.1
10862.6
10853.4
10844.5
10835.8
10827.5
10819.5