/*--------------------------------*- C++ -*----------------------------------*\
| =========                 |                                                 |
| \\      /  F ield         | OpenFOAM: The Open Source CFD Toolbox           |
|  \\    /   O peration     | Version:  v2006                                 |
|   \\  /    A nd           | Website:  www.openfoam.com                      |
|    \\/     M anipulation  |                                                 |
\*---------------------------------------------------------------------------*/
FoamFile
{
    version     2.0;
    format      ascii;
    class       volScalarField;
    location    "0";
    object      f;
}
// * * * * * * * * * * * * * * * * * * * * * * * * * * * * * * * * * * * * * //

dimensions      [0 0 0 0 0 0 0];


internalField   nonuniform List<scalar> 
2500
(
-3.6009e-20
-4.36304e-20
-4.50433e-20
-3.819e-20
-2.50678e-20
-1.22181e-20
-6.07121e-21
-6.81614e-21
-8.62119e-21
-6.90599e-21
-2.79946e-21
4.19635e-23
2.75086e-22
-7.35611e-22
-1.44176e-21
-1.43314e-21
-1.02591e-21
-5.84712e-22
-2.74373e-22
-1.05112e-22
-3.04234e-23
-4.28203e-24
2.04121e-24
2.21024e-24
1.28268e-24
5.86127e-25
2.30479e-25
8.08856e-26
2.58259e-26
7.58995e-27
2.06888e-27
5.25742e-28
1.24965e-28
2.7831e-29
5.80809e-30
1.1335e-30
2.05797e-31
3.43865e-32
5.16883e-33
6.61833e-34
6.00294e-35
-7.00627e-37
-2.14735e-36
-7.07779e-37
-1.72994e-37
-3.66752e-38
-7.09919e-39
-1.28475e-39
-2.20239e-40
-3.77649e-41
-8.13326e-20
-9.89486e-20
-1.03295e-19
-8.89079e-20
-5.87878e-20
-2.71233e-20
-1.06468e-20
-1.25634e-20
-1.91462e-20
-1.71184e-20
-7.59807e-21
-8.37887e-24
1.11854e-21
-1.25998e-21
-3.10411e-21
-3.21388e-21
-2.3203e-21
-1.3165e-21
-6.08408e-22
-2.25317e-22
-5.95414e-23
-4.05366e-24
7.53205e-24
6.31664e-24
3.42874e-24
1.51465e-24
5.82144e-25
2.00585e-25
6.29929e-26
1.82159e-26
4.88283e-27
1.21844e-27
2.83703e-28
6.16627e-29
1.24859e-29
2.34237e-30
4.02289e-31
6.1637e-32
7.89506e-33
6.61912e-34
-3.77053e-35
-3.5847e-35
-1.13206e-35
-2.76992e-36
-5.94583e-37
-1.17027e-37
-2.15724e-38
-3.76945e-39
-6.29137e-40
-1.05523e-40
-2.22403e-19
-2.71761e-19
-2.86885e-19
-2.50775e-19
-1.67666e-19
-7.39888e-20
-2.12783e-20
-2.68408e-20
-5.19363e-20
-5.17017e-20
-2.4784e-20
-3.68607e-22
4.48349e-21
-2.47436e-21
-8.34361e-21
-8.98415e-21
-6.52758e-21
-3.68306e-21
-1.67601e-21
-5.99789e-22
-1.43036e-22
3.03779e-24
2.84786e-23
2.09833e-23
1.08988e-23
4.69648e-24
1.77295e-24
6.01704e-25
1.86303e-25
5.31111e-26
1.40221e-26
3.44026e-27
7.85327e-28
1.6659e-28
3.2682e-29
5.86528e-30
9.40181e-31
1.2686e-31
1.1655e-32
-3.95277e-34
-5.64345e-34
-1.89597e-34
-4.83061e-35
-1.07239e-35
-2.17539e-36
-4.12391e-37
-7.3986e-38
-1.26624e-38
-2.07861e-39
-3.43708e-40
-5.8181e-19
-7.14859e-19
-7.64894e-19
-6.81491e-19
-4.63694e-19
-1.95994e-19
-3.07171e-20
-4.49027e-20
-1.34568e-19
-1.52756e-19
-7.94103e-20
-2.31998e-21
1.67525e-20
-3.38931e-21
-2.18702e-20
-2.46661e-20
-1.80196e-20
-1.00879e-20
-4.5044e-21
-1.54487e-21
-3.18011e-22
5.25081e-23
1.00332e-22
6.72557e-23
3.36235e-23
1.41539e-23
5.24832e-24
1.75333e-24
5.34674e-25
1.50043e-25
3.89377e-26
9.36602e-27
2.08744e-27
4.29397e-28
8.07333e-29
1.35753e-29
1.93539e-30
1.95211e-31
-2.06409e-33
-8.25701e-33
-2.98624e-33
-7.95617e-34
-1.83116e-34
-3.83521e-35
-7.48733e-36
-1.38082e-36
-2.42578e-37
-4.08259e-38
-6.60971e-39
-1.0797e-39
-1.45121e-18
-1.79515e-18
-1.95223e-18
-1.78031e-18
-1.2442e-18
-5.06554e-19
3.83661e-21
-2.44022e-20
-3.2834e-19
-4.40997e-19
-2.50044e-19
-1.11834e-20
5.95995e-20
1.77186e-21
-5.59063e-20
-6.65938e-20
-4.88281e-20
-2.70404e-20
-1.17953e-20
-3.83427e-21
-6.2698e-22
2.72882e-22
3.34252e-22
2.08209e-22
1.006e-22
4.14013e-23
1.50739e-23
4.95228e-24
1.48518e-24
4.09431e-25
1.04143e-25
2.44596e-26
5.28928e-27
1.04419e-27
1.84537e-28
2.78325e-29
3.07005e-30
3.32289e-32
-1.1249e-31
-4.42927e-32
-1.2383e-32
-2.96065e-33
-6.41148e-34
-1.29057e-34
-2.44913e-35
-4.4205e-36
-7.6339e-37
-1.26679e-37
-2.02658e-38
-3.27507e-39
-3.43749e-18
-4.28597e-18
-4.75363e-18
-4.45566e-18
-3.24203e-18
-1.28852e-18
2.70782e-19
2.49555e-19
-7.34324e-19
-1.24246e-18
-7.74146e-19
-4.83782e-20
2.0423e-19
3.93114e-20
-1.39513e-19
-1.77123e-19
-1.29931e-19
-7.08891e-20
-3.0041e-20
-9.11377e-21
-9.71978e-22
1.09965e-21
1.06144e-21
6.22783e-22
2.91606e-22
1.17349e-22
4.19186e-23
1.35237e-23
3.98035e-24
1.07487e-24
2.66885e-25
6.08281e-26
1.26349e-26
2.3502e-27
3.75054e-28
4.49555e-29
1.32543e-30
-1.43103e-30
-6.19618e-31
-1.82232e-31
-4.53269e-32
-1.01608e-32
-2.11083e-33
-4.12557e-34
-7.65669e-35
-1.35779e-35
-2.31106e-36
-3.78833e-37
-5.99664e-38
-9.59753e-39
-7.69493e-18
-9.67744e-18
-1.10045e-17
-1.06279e-17
-8.21985e-18
-3.27306e-18
1.45442e-18
1.63472e-18
-1.41662e-18
-3.41301e-18
-2.35809e-18
-1.98386e-19
6.78872e-19
2.11694e-19
-3.40811e-19
-4.65325e-19
-3.39677e-19
-1.81584e-19
-7.42253e-20
-2.0544e-20
-5.38728e-22
3.90358e-21
3.2276e-21
1.79953e-21
8.17806e-22
3.21674e-22
1.12584e-22
3.55933e-23
1.02513e-23
2.7005e-24
6.5051e-25
1.42459e-25
2.79231e-26
4.71279e-27
6.09556e-28
2.76069e-29
-1.70805e-29
-8.19091e-30
-2.53734e-30
-6.57118e-31
-1.52595e-31
-3.27409e-32
-6.59516e-33
-1.25943e-33
-2.29494e-34
-4.00906e-35
-6.7379e-36
-1.0925e-36
-1.71285e-37
-2.71711e-38
-1.61809e-17
-2.0515e-17
-2.41811e-17
-2.39703e-17
-2.03865e-17
-8.47976e-18
5.73266e-18
7.14371e-18
-1.93462e-18
-9.13857e-18
-7.07311e-18
-7.89708e-19
2.19969e-18
8.89095e-19
-8.19994e-19
-1.21181e-18
-8.72691e-19
-4.53754e-19
-1.77252e-19
-4.31727e-20
4.18218e-21
1.27476e-20
9.42119e-21
5.01958e-21
2.21523e-21
8.50725e-22
2.91128e-22
8.99254e-23
2.52367e-23
6.44472e-24
1.49121e-24
3.08338e-25
5.50001e-26
7.62384e-27
4.4491e-28
-1.92753e-28
-1.02554e-28
-3.34503e-29
-9.02076e-30
-2.1708e-30
-4.81274e-31
-9.99675e-32
-1.96535e-32
-3.68197e-33
-6.60523e-34
-1.13881e-34
-1.89245e-35
-3.0382e-36
-4.72145e-37
-7.42788e-38
-3.17109e-17
-4.0389e-17
-5.07662e-17
-5.0519e-17
-5.01554e-17
-2.29411e-17
1.90577e-17
2.64859e-17
4.97923e-19
-2.38579e-17
-2.09412e-17
-3.0731e-18
6.97286e-18
3.35984e-18
-1.96839e-18
-3.14397e-18
-2.2034e-18
-1.10323e-18
-4.06747e-19
-8.17305e-20
2.5486e-20
3.90491e-20
2.64276e-20
1.34999e-20
5.78296e-21
2.16416e-21
7.21939e-22
2.16921e-22
5.8937e-23
1.44434e-23
3.15421e-24
5.94192e-25
8.771e-26
6.03496e-27
-2.07905e-27
-1.21918e-27
-4.17808e-28
-1.17251e-28
-2.92375e-29
-6.69915e-30
-1.43535e-30
-2.90632e-31
-5.60043e-32
-1.03221e-32
-1.82652e-33
-3.11229e-34
-5.11892e-35
-8.14319e-36
-1.25508e-36
-1.95915e-37
-5.72743e-17
-7.25144e-17
-1.05078e-16
-9.76915e-17
-1.26266e-16
-6.58242e-17
5.35584e-17
8.98425e-17
1.69874e-17
-6.06371e-17
-6.17047e-17
-1.1629e-17
2.16602e-17
1.20375e-17
-4.83953e-18
-8.18397e-18
-5.46338e-18
-2.59834e-18
-8.88644e-19
-1.27786e-19
1.0174e-19
1.1332e-19
7.1246e-20
3.49436e-20
1.4508e-20
5.2749e-21
1.70761e-21
4.95786e-22
1.29058e-22
2.98108e-23
5.9273e-24
9.26341e-25
7.10251e-26
-2.16998e-26
-1.37913e-26
-4.94647e-27
-1.4426e-27
-3.72577e-28
-8.82208e-29
-1.95003e-29
-4.06762e-30
-8.06482e-31
-1.52771e-31
-2.77563e-32
-4.85157e-33
-8.17854e-34
-1.33241e-34
-2.10154e-35
-3.21391e-36
-4.97967e-37
-9.36607e-17
-1.14637e-16
-2.3384e-16
-1.67349e-16
-3.4632e-16
-2.0119e-16
1.15433e-16
3.03362e-16
8.4854e-17
-1.48411e-16
-1.86319e-16
-4.21264e-17
6.56497e-17
4.20225e-17
-1.27395e-17
-2.15909e-17
-1.32747e-17
-5.8833e-18
-1.8195e-18
-1.12235e-19
3.43176e-19
3.13142e-19
1.84433e-19
8.68327e-20
3.48464e-20
1.22537e-20
3.82312e-21
1.06103e-21
2.59748e-22
5.45002e-23
8.97135e-24
7.34824e-25
-2.21261e-25
-1.4861e-25
-5.5503e-26
-1.67913e-26
-4.48815e-27
-1.09792e-27
-2.50354e-28
-5.38033e-29
-1.0978e-29
-2.13787e-30
-3.98933e-31
-7.1554e-32
-1.23675e-32
-2.06425e-33
-3.33317e-34
-5.21489e-35
-7.91635e-36
-1.21788e-36
-1.34409e-16
-1.47844e-16
-6.42267e-16
-2.51974e-16
-1.33764e-15
-6.70042e-16
2.42094e-16
1.21113e-15
3.12518e-16
-4.54298e-16
-6.44773e-16
-1.40932e-16
1.92232e-16
1.46935e-16
-3.75104e-17
-5.85513e-17
-3.14155e-17
-1.26304e-17
-3.38996e-18
2.40399e-19
1.04558e-18
8.25884e-19
4.57612e-19
2.06424e-19
7.9722e-20
2.69257e-20
8.00666e-21
2.08346e-21
4.61571e-22
7.96913e-23
6.72984e-24
-2.20622e-24
-1.5242e-24
-5.89705e-25
-1.84704e-25
-5.10488e-26
-1.28959e-26
-3.03293e-27
-6.71511e-28
-1.41011e-28
-2.82345e-29
-5.4123e-30
-9.96406e-31
-1.7663e-31
-3.02135e-32
-4.99626e-33
-7.99997e-34
-1.24205e-34
-1.87217e-35
-2.86058e-36
-1.60603e-16
-1.26938e-16
-1.85791e-15
-6.63174e-15
-8.50569e-15
-2.05144e-15
1.69166e-14
4.06198e-15
5.90158e-16
-8.59259e-15
-2.81851e-15
-3.61611e-16
8.76623e-16
5.54168e-16
-1.2487e-16
-1.67267e-16
-7.11286e-17
-2.50001e-17
-5.38841e-18
1.80554e-18
2.9549e-18
2.07971e-18
1.08507e-18
4.6718e-19
1.72466e-19
5.53216e-20
1.53704e-20
3.60268e-21
6.5081e-22
5.49585e-23
-2.12892e-23
-1.48304e-23
-5.92043e-24
-1.9169e-24
-5.47388e-25
-1.42731e-25
-3.46122e-26
-7.89372e-27
-1.70582e-27
-3.51176e-28
-6.91572e-29
-1.30698e-29
-2.3766e-30
-4.16729e-31
-7.05942e-32
-1.15719e-32
-1.83816e-33
-2.83304e-34
-4.24142e-35
-6.43819e-36
3.16914e-14
1.60957e-14
-1.30486e-15
-9.66763e-14
-3.0533e-14
2.73403e-13
1.672e-13
-1.4053e-13
-1.87508e-13
-5.88091e-14
-6.66968e-15
3.28424e-15
1.24449e-14
1.91933e-15
-8.85172e-16
-5.3647e-16
-1.44649e-16
-4.27993e-17
-6.00895e-18
7.00893e-18
7.84376e-18
4.99416e-18
2.44783e-18
9.99609e-19
3.48948e-19
1.04221e-19
2.59645e-20
4.91327e-21
4.0655e-22
-1.94885e-22
-1.36064e-22
-5.59765e-23
-1.8725e-23
-5.52238e-24
-1.48577e-24
-3.71379e-25
-8.72172e-26
-1.93909e-26
-4.10378e-27
-8.30164e-28
-1.6105e-28
-3.00422e-29
-5.4006e-30
-9.37367e-31
-1.57343e-31
-2.55787e-32
-4.03237e-33
-6.17153e-34
-9.17975e-35
-1.38466e-35
7.66118e-13
6.0198e-13
5.80777e-14
-2.86261e-13
1.78875e-12
2.01141e-12
4.91772e-13
-2.9747e-12
-1.06181e-12
-1.27251e-13
2.29334e-13
3.1277e-13
6.12291e-14
-3.58203e-15
-1.39389e-14
-1.70239e-15
-1.9211e-16
-5.35717e-17
3.49234e-19
2.18957e-17
1.96944e-17
1.14035e-17
5.21845e-18
2.00109e-18
6.48468e-19
1.73209e-19
3.46039e-20
2.82655e-21
-1.64995e-21
-1.16694e-21
-4.96056e-22
-1.71618e-22
-5.22887e-23
-1.4514e-23
-3.73828e-24
-9.03675e-25
-2.0662e-25
-4.49349e-26
-9.33458e-27
-1.85849e-27
-3.55596e-28
-6.55335e-29
-1.16549e-29
-2.00359e-30
-3.33418e-31
-5.37783e-32
-8.41711e-33
-1.27971e-33
-1.89176e-34
-2.83638e-35
2.88958e-12
2.09567e-12
3.96434e-12
8.19361e-12
1.57822e-11
5.17131e-12
-2.73557e-11
-8.89451e-12
-2.04346e-12
1.01778e-11
6.86339e-12
1.54706e-12
-1.17758e-14
-4.48306e-13
-7.11967e-14
-3.74018e-16
3.07312e-17
-3.15368e-17
2.29195e-17
6.04822e-17
4.70536e-17
2.46279e-17
1.04011e-17
3.68584e-18
1.06978e-18
2.29826e-19
1.97368e-20
-1.25405e-20
-9.24994e-21
-4.09498e-21
-1.47002e-21
-4.63316e-22
-1.32721e-22
-3.52153e-23
-8.7578e-24
-2.05794e-24
-4.59602e-25
-9.79851e-26
-2.00111e-26
-3.92575e-27
-7.41502e-28
-1.35107e-28
-2.37868e-29
-4.05241e-30
-6.68899e-31
-1.07096e-31
-1.66492e-32
-2.51556e-33
-3.6972e-34
-5.51211e-35
5.57866e-12
-1.99135e-13
5.95824e-11
2.12922e-10
5.1413e-11
-3.23849e-10
-2.11541e-10
7.99808e-11
3.22617e-10
1.37499e-10
3.01644e-11
1.90292e-12
-1.13625e-11
-2.23482e-12
-5.87293e-14
4.76574e-15
5.47008e-16
-1.6177e-17
6.169e-17
1.56342e-16
1.07968e-16
4.97839e-17
1.9026e-17
6.06516e-18
1.44528e-18
1.47604e-19
-8.21456e-20
-6.67632e-20
-3.12462e-20
-1.17133e-20
-3.82936e-21
-1.13301e-21
-3.09635e-22
-7.91616e-23
-1.90984e-23
-4.37539e-24
-9.56341e-25
-2.00155e-25
-4.02291e-26
-7.78316e-27
-1.45233e-27
-2.6181e-28
-4.56602e-29
-7.71363e-30
-1.26366e-30
-2.00948e-31
-3.10465e-32
-4.66421e-33
-6.81895e-34
-1.0114e-34
6.92141e-12
-1.66085e-11
1.97044e-10
8.23778e-10
-7.78392e-10
-2.5871e-09
-6.37393e-10
3.46442e-09
1.8838e-09
4.53121e-10
5.48094e-11
-2.59941e-10
-5.87111e-11
-2.63501e-12
1.2334e-13
2.2921e-14
2.09068e-16
-1.79442e-16
8.94832e-17
4.14956e-16
2.41849e-16
9.18228e-17
3.08107e-17
8.39534e-18
1.16294e-18
-4.2743e-19
-4.28937e-19
-2.18149e-19
-8.63645e-20
-2.94249e-20
-9.00544e-21
-2.53419e-21
-6.65288e-22
-1.64536e-22
-3.8602e-23
-8.63566e-24
-1.84939e-24
-3.80318e-25
-7.52869e-26
-1.43753e-26
-2.65194e-27
-4.73329e-28
-8.18346e-29
-1.37196e-29
-2.23244e-30
-3.52871e-31
-5.42234e-32
-8.10592e-33
-1.17966e-33
-1.74191e-34
5.60805e-12
-5.45692e-11
2.76264e-10
1.42193e-09
-8.25519e-09
-5.91666e-09
2.19418e-08
1.6387e-08
3.52532e-09
3.64781e-10
-5.71688e-09
-1.4512e-09
-8.22094e-11
2.41065e-12
5.10793e-13
1.59304e-14
-2.41477e-15
-5.46219e-16
2.44386e-16
1.5719e-15
5.34061e-16
1.42576e-16
4.07087e-17
8.31097e-18
-1.33121e-18
-2.339e-18
-1.37097e-18
-5.85785e-19
-2.09681e-19
-6.65139e-20
-1.92584e-20
-5.18071e-21
-1.30998e-21
-3.13866e-22
-7.16734e-23
-1.56676e-23
-3.28948e-24
-6.65079e-25
-1.29761e-25
-2.44717e-26
-4.46716e-27
-7.90203e-28
-1.35582e-28
-2.25828e-29
-3.65417e-30
-5.74805e-31
-8.79509e-32
-1.30978e-32
-1.89948e-33
-2.7953e-34
-1.39852e-07
-1.5216e-07
-1.63447e-07
-3.08795e-07
-6.75282e-08
1.47536e-07
1.52529e-07
3.68168e-08
-1.65994e-07
-1.47811e-07
-3.93123e-08
-2.40409e-09
3.86774e-11
9.93893e-12
5.09506e-13
-3.2051e-14
-1.35788e-14
1.48601e-14
2.79298e-14
9.32613e-15
9.37579e-16
1.30824e-16
3.46605e-17
1.80333e-18
-9.28826e-18
-7.43881e-18
-3.62312e-18
-1.38625e-18
-4.57055e-19
-1.3578e-19
-3.72536e-20
-9.58219e-21
-2.33326e-21
-5.41478e-22
-1.20345e-22
-2.57088e-23
-5.29364e-24
-1.05291e-24
-2.02644e-25
-3.77889e-26
-6.83509e-27
-1.20015e-27
-2.04707e-28
-3.39375e-29
-5.47125e-30
-8.58111e-31
-1.30987e-31
-1.94678e-32
-2.81827e-33
-4.14016e-34
-9.82706e-07
-1.28546e-06
-1.94725e-06
-2.37464e-06
-2.3475e-07
2.07677e-06
6.24035e-07
-1.84971e-06
-2.16392e-06
-8.02222e-07
-9.67896e-08
4.82256e-10
1.35175e-10
1.44998e-11
-1.41795e-13
-1.10337e-13
-3.44446e-14
2.74662e-13
1.62529e-13
2.84875e-14
1.81415e-16
-8.39452e-17
2.29494e-18
-1.13209e-17
-2.90699e-17
-1.97948e-17
-8.5527e-18
-2.95314e-18
-8.93128e-19
-2.46989e-19
-6.38827e-20
-1.56527e-20
-3.66161e-21
-8.2196e-22
-1.77702e-22
-3.71011e-23
-7.4966e-24
-1.46847e-24
-2.7923e-25
-5.15926e-26
-9.26935e-27
-1.62015e-27
-2.75572e-28
-4.56224e-29
-7.35258e-30
-1.15365e-30
-1.76252e-31
-2.62235e-32
-3.80041e-33
-5.5883e-34
-2.68601e-06
-3.72461e-06
-6.25986e-06
-6.62843e-06
4.7611e-07
7.12099e-06
1.2291e-06
-1.31446e-05
-7.35291e-06
-1.79948e-06
-1.06219e-07
6.9133e-10
2.92072e-10
1.67326e-11
-1.43371e-13
-2.08342e-13
1.96216e-12
1.09719e-12
3.69396e-13
3.51535e-14
-1.54218e-15
-5.24004e-16
2.62116e-18
-7.88727e-18
-7.57488e-17
-4.92767e-17
-1.85695e-17
-5.62339e-18
-1.5213e-18
-3.84129e-19
-9.24174e-20
-2.13952e-20
-4.78783e-21
-1.03797e-21
-2.18306e-22
-4.45979e-23
-8.86078e-24
-1.71415e-24
-3.232e-25
-5.94328e-26
-1.06623e-26
-1.86609e-27
-3.18543e-28
-5.30126e-29
-8.59761e-30
-1.35828e-30
-2.08967e-31
-3.13008e-32
-4.56442e-33
-6.74954e-34
-4.12898e-06
-6.10745e-06
-1.06656e-05
-9.35243e-06
3.52362e-06
1.2744e-05
-7.14646e-05
-4.07424e-05
-1.12893e-05
-1.93829e-06
3.46966e-07
1.35763e-07
7.08599e-09
-5.16329e-12
2.44861e-10
1.65754e-10
3.47786e-11
2.21498e-12
3.00444e-13
-1.14037e-14
-6.44409e-15
-1.28928e-15
2.88478e-16
9.85451e-17
-2.01092e-16
-1.23781e-16
-3.68554e-17
-9.0581e-18
-2.05914e-18
-4.52084e-19
-9.78658e-20
-2.10282e-20
-4.47613e-21
-9.39094e-22
-1.93298e-22
-3.8937e-23
-7.67198e-24
-1.47975e-24
-2.79684e-25
-5.18363e-26
-9.41983e-27
-1.6769e-27
-2.92013e-28
-4.96584e-29
-8.2332e-30
-1.32899e-30
-2.08634e-31
-3.18303e-32
-4.71747e-33
-7.0763e-34
1.17106e-05
2.56454e-06
8.70029e-06
0.000136989
7.05281e-05
-0.000333955
-0.000452557
2.1956e-05
0.00217755
0.00557327
0.00702072
0.0056589
0.0029446
0.000861984
5.93048e-05
3.71528e-09
1.0358e-10
2.34083e-12
-6.28654e-14
-5.44807e-14
-2.03888e-14
-2.30795e-15
3.85111e-15
5.07982e-16
-8.13217e-16
-3.3642e-16
-6.04691e-17
-9.69819e-18
-1.42511e-18
-1.97556e-19
-2.80486e-20
-4.64433e-21
-9.48854e-22
-2.18344e-22
-5.08174e-23
-1.1422e-23
-2.46707e-24
-5.17161e-25
-1.06369e-25
-2.15922e-26
-4.32376e-27
-8.49936e-28
-1.62964e-28
-3.03036e-29
-5.44276e-30
-9.41932e-31
-1.56902e-31
-2.51522e-32
-3.88184e-33
-6.02069e-34
0.00126549
0.00154083
0.00209338
0.00251816
0.000369629
-0.0028732
-0.00158528
0.00737941
0.0261882
0.0481318
0.0597234
0.0551992
0.0382228
0.0189922
0.00589142
0.000557039
1.44598e-10
1.10727e-12
-1.70825e-13
-1.18376e-13
-3.24252e-14
7.92246e-14
2.47102e-14
-1.80094e-15
-9.04495e-15
-9.01259e-16
-3.19269e-17
5.84647e-18
2.82879e-18
7.71867e-19
1.72586e-19
3.43657e-20
6.33212e-21
1.11052e-21
1.90127e-22
3.24226e-23
5.55561e-24
9.50648e-25
1.59558e-25
2.56522e-26
3.84486e-27
5.18098e-28
5.84559e-29
4.3182e-30
-2.07582e-31
-1.74883e-31
-4.77053e-32
-9.99841e-33
-1.82416e-33
-3.16717e-34
0.00600841
0.00784731
0.0100834
0.00961988
0.000572277
-0.00938071
-0.00250472
0.0332547
0.0905473
0.151815
0.187391
0.180306
0.13495
0.0753952
0.0286838
0.00525044
9.33243e-06
6.73266e-13
-1.60825e-13
1.15567e-14
1.34765e-12
5.4272e-13
3.2078e-14
-3.16572e-13
-4.771e-14
6.16843e-16
3.00211e-16
6.28975e-17
1.25666e-17
2.41309e-18
4.38908e-19
7.55186e-20
1.24019e-20
1.98495e-21
3.19985e-22
5.3807e-23
9.59339e-24
1.78766e-24
3.36978e-25
6.23102e-26
1.10773e-26
1.87362e-27
3.00181e-28
4.5501e-29
6.52821e-30
8.87912e-31
1.14807e-31
1.41837e-32
1.69016e-33
2.04636e-34
0.0152235
0.0203493
0.0255224
0.0225462
0.000470009
-0.0208674
0.00157113
0.0838068
0.203064
0.324369
0.399976
0.393616
0.307788
0.182247
0.0754968
0.016876
0.000350824
6.82905e-11
2.21212e-11
2.29786e-11
9.34556e-12
1.3898e-12
-8.68168e-12
-1.69539e-12
-3.18209e-14
8.87974e-15
1.25877e-15
1.19294e-16
1.74351e-17
2.61641e-18
3.59502e-19
4.13415e-20
3.13556e-21
-9.28621e-23
-9.00528e-23
-1.87243e-23
-1.89663e-24
1.90803e-25
1.54637e-25
4.93227e-26
1.20425e-26
2.53835e-27
4.8435e-28
8.58072e-29
1.43444e-29
2.28957e-30
3.52211e-31
5.26269e-32
7.68742e-33
1.15058e-33
0.0274788
0.037084
0.0460285
0.039095
-0.000609276
-0.0351592
0.00861313
0.152967
0.348431
0.539163
0.666085
0.66689
0.539407
0.332827
0.145561
0.0362206
0.00142324
1.0856e-09
3.52257e-10
1.309e-10
2.47881e-11
-1.99079e-10
-4.85724e-11
-2.26571e-12
2.40451e-13
4.4987e-14
7.45809e-16
-3.58093e-17
-1.00566e-17
-2.71117e-18
-6.92893e-19
-1.63832e-19
-3.57482e-20
-7.19497e-21
-1.33114e-21
-2.24584e-22
-3.39846e-23
-4.43781e-24
-4.45662e-25
-1.59529e-26
7.49911e-27
2.83754e-27
6.96615e-28
1.44155e-28
2.70157e-29
4.73077e-30
7.87308e-31
1.25827e-31
1.94442e-32
3.04732e-33
0.0380211
0.0514901
0.0637587
0.0530899
-0.00238521
-0.0484746
0.0162669
0.219094
0.482555
0.732034
0.908476
0.925608
0.770205
0.491265
0.22372
0.0598349
0.00327974
4.0395e-09
1.27784e-09
3.7181e-10
-4.00265e-09
-1.18961e-09
-8.04757e-11
4.58825e-12
1.14046e-12
4.63314e-14
-1.25447e-15
-2.87257e-16
-5.67346e-17
-1.1652e-17
-2.34984e-18
-4.59788e-19
-8.69543e-20
-1.57877e-20
-2.72263e-21
-4.39383e-22
-6.48895e-23
-8.40442e-24
-8.50577e-25
-3.28056e-26
1.39234e-26
5.46723e-27
1.37818e-27
2.92514e-28
5.61851e-29
1.00697e-29
1.71134e-30
2.78456e-31
4.36501e-32
6.91342e-33
0.0409536
0.0553727
0.0689529
0.0574498
-0.00402027
-0.0557958
0.0185854
0.251689
0.550255
0.829735
1.0379
1.07828
0.919275
0.602604
0.283024
0.0796395
0.00535339
6.17422e-09
-8.1347e-09
-8.72409e-08
-3.05187e-08
-2.34685e-09
7.93974e-11
2.64748e-11
1.66919e-12
-2.48045e-14
-6.21337e-15
-4.85705e-16
-6.99689e-17
-1.33453e-17
-2.50444e-18
-4.54359e-19
-7.98466e-20
-1.35377e-20
-2.17623e-21
-3.19783e-22
-3.96347e-23
-3.09374e-24
2.695e-25
2.02287e-25
6.24196e-26
1.51963e-26
3.26383e-27
6.44481e-28
1.19401e-28
2.10009e-29
3.53326e-30
5.71596e-31
8.92519e-32
1.40847e-32
0.0323502
0.0432215
0.0550107
0.0477031
-0.00463518
-0.0542112
0.0103799
0.230382
0.521684
0.800689
1.01922
1.07795
0.933143
0.622698
0.298672
0.0868558
0.00656798
-1.15231e-06
-1.82695e-06
-7.51696e-07
-8.3854e-08
9.60121e-10
5.05628e-10
7.24685e-11
-3.59154e-13
-1.50368e-13
-1.49802e-14
1.8036e-17
1.10999e-17
3.7531e-18
1.08254e-18
2.70006e-19
5.94453e-20
1.19775e-20
2.30527e-21
4.43141e-22
8.80536e-23
1.82584e-23
3.88907e-24
8.29381e-25
1.73327e-25
3.50404e-26
6.81181e-27
1.27116e-27
2.27823e-28
3.9275e-29
6.525e-30
1.04673e-30
1.62435e-31
2.54984e-32
0.0136995
0.0173336
0.0240351
0.0248635
-0.00297541
-0.04028
-0.00911662
0.141002
0.370625
0.616017
0.821999
0.892396
0.784993
0.530721
0.25768
0.0762501
0.00612953
-1.30994e-05
-9.47465e-06
-2.32604e-06
-7.21682e-08
5.31963e-09
1.72497e-09
1.0102e-10
-1.99242e-12
-5.20592e-13
-1.94745e-14
4.28168e-16
1.37421e-16
3.41704e-17
7.65159e-18
1.57608e-18
3.02619e-19
5.48797e-20
9.54884e-21
1.62654e-21
2.77808e-22
4.86543e-23
8.84327e-24
1.66172e-24
3.17734e-25
6.06671e-26
1.13923e-26
2.0835e-27
3.69172e-28
6.32376e-29
1.04679e-29
1.67546e-30
2.59563e-31
4.06765e-32
-0.00336199
-0.00595654
-0.00505707
0.00212019
0.000754227
-0.0193578
-0.0266164
0.0307469
0.170021
0.359514
0.53053
0.590794
0.518673
0.34684
0.165843
0.0478586
0.00350503
-4.79368e-05
-2.57047e-05
-3.81794e-06
4.68314e-08
2.24239e-08
2.96269e-09
-2.69067e-11
-9.78907e-12
-8.71154e-13
5.0105e-15
1.55363e-15
2.9784e-16
6.25795e-17
1.30796e-17
2.58057e-18
4.78625e-19
8.40241e-20
1.41371e-20
2.323e-21
3.82463e-22
6.48753e-23
1.15515e-23
2.15701e-24
4.14592e-25
8.00704e-26
1.52365e-26
2.8218e-27
5.05443e-28
8.73499e-29
1.45604e-29
2.34286e-30
3.64366e-31
5.72572e-32
-0.00977264
-0.0141087
-0.0167284
-0.0095207
0.00387017
-0.000244102
-0.0300253
-0.0435206
0.0102954
0.130883
0.250357
0.28858
0.245303
0.154023
0.0674145
0.0164632
0.000412508
-0.000128308
-4.01414e-05
-2.22996e-06
1.94552e-07
4.75058e-08
1.94787e-09
-9.14707e-11
-2.03931e-11
-5.60066e-13
1.54416e-14
3.04583e-15
3.28156e-16
5.99708e-17
1.19559e-17
2.25936e-18
4.00215e-19
6.68206e-20
1.06726e-20
1.67802e-21
2.71877e-22
4.76937e-23
9.22757e-24
1.91352e-24
4.05329e-25
8.44937e-26
1.69932e-26
3.27174e-27
6.02086e-28
1.06034e-28
1.79113e-29
2.90932e-30
4.55507e-31
7.19301e-32
-0.0059406
-0.00797941
-0.0110454
-0.00882457
0.00433767
0.00942625
-0.016788
-0.0572494
-0.0592139
-0.0101055
0.0488876
0.0652912
0.0466101
0.0177918
7.96069e-05
-0.00406507
-0.00135466
-0.000234581
-1.07376e-05
2.39414e-06
6.15003e-07
2.68643e-08
-1.29087e-09
-3.069e-10
-1.19349e-11
2.67759e-13
5.7212e-14
2.20888e-15
2.10109e-17
1.0252e-17
2.60466e-18
4.72827e-19
6.74767e-20
7.46021e-21
5.89401e-22
5.19627e-23
2.41279e-23
1.23968e-23
4.62595e-24
1.39127e-24
3.61183e-25
8.41098e-26
1.79822e-26
3.58331e-27
6.72569e-28
1.19818e-28
2.03771e-29
3.32312e-30
5.21524e-31
8.24695e-32
0.000755282
0.00168532
0.000567317
-0.00204331
0.00177608
0.00896002
0.00157086
-0.0269523
-0.0543046
-0.0584891
-0.0518378
-0.0491688
-0.0482792
-0.0396313
-0.0242052
-0.00933912
-0.00191034
-2.37103e-05
1.61216e-05
5.43591e-06
3.83382e-07
-1.21252e-08
-3.05243e-09
-1.62151e-10
2.98013e-12
6.40868e-13
2.93868e-14
-9.34449e-16
-1.55798e-16
-2.83541e-17
-5.80639e-18
-1.17575e-18
-2.22948e-19
-3.85879e-20
-5.89275e-21
-7.20127e-22
-4.11513e-23
1.28517e-23
6.51198e-24
1.96469e-24
4.89413e-25
1.08906e-25
2.23544e-26
4.30413e-27
7.85305e-28
1.36709e-28
2.28192e-29
3.66573e-30
5.68378e-31
8.89845e-32
0.00289297
0.00449106
0.00525906
0.00215959
-0.00117171
0.00261151
0.0102817
0.00619249
-0.0166522
-0.0463107
-0.0648995
-0.0668019
-0.0566952
-0.0381772
-0.0185553
-0.00588836
-0.000628203
4.87352e-05
2.0369e-05
2.80604e-06
-9.14338e-08
-2.1266e-08
-1.4681e-09
3.38415e-11
5.80193e-12
1.27773e-13
-2.6618e-14
-4.02716e-15
-2.06807e-16
-3.12641e-17
-5.84444e-18
-1.00803e-18
-1.39643e-19
-1.04251e-20
1.92419e-21
1.17928e-21
3.75959e-22
9.71664e-23
2.23813e-23
4.76688e-24
9.56025e-25
1.82435e-25
3.33441e-26
5.86374e-27
9.95445e-28
1.63544e-28
2.60537e-29
4.03067e-30
6.06286e-31
9.25585e-32
0.000674279
0.00105859
0.00231143
0.00172534
-0.00208574
-0.00206618
0.00698498
0.014638
0.00760489
-0.0111367
-0.0257013
-0.0261821
-0.0186911
-0.00913373
-0.0027693
-0.000182692
0.000216816
4.51797e-05
5.16451e-07
-1.06411e-06
-1.34282e-07
-1.97267e-09
9.19843e-10
1.21956e-10
3.34712e-12
-4.23537e-13
-9.13738e-14
-3.40893e-15
2.92528e-17
7.60545e-18
2.40982e-18
8.74064e-19
2.92139e-19
8.58048e-20
2.24824e-20
5.36905e-21
1.18877e-21
2.47097e-22
4.86628e-23
9.14364e-24
1.6483e-24
2.86361e-25
4.8129e-26
7.85065e-27
1.24614e-27
1.92893e-28
2.91659e-29
4.31268e-30
6.24115e-31
9.21226e-32
-0.00148922
-0.00207647
-0.00148839
-0.00037783
-0.00107586
-0.00212144
0.000145544
0.0045418
0.00767761
0.0109089
0.0171712
0.0215567
0.0206017
0.0144842
0.0070282
0.00217893
0.000243753
-3.52149e-05
-1.63042e-05
-2.92794e-06
2.52209e-09
1.6617e-08
4.23639e-09
1.88089e-10
-5.74703e-12
-1.25164e-12
-4.08936e-14
8.57235e-16
1.89833e-16
4.43931e-17
1.13896e-17
2.96809e-18
7.54761e-19
1.83476e-19
4.22699e-20
9.21122e-21
1.90132e-21
3.72859e-22
6.97193e-23
1.24778e-23
2.14562e-24
3.55812e-25
5.7109e-26
8.90196e-27
1.35186e-27
2.00566e-28
2.91394e-29
4.15332e-30
5.81506e-31
8.32917e-32
-0.00136675
-0.00178916
-0.00170216
-0.00105901
-6.1204e-05
0.000194393
-0.00167381
-0.00475082
-0.00270401
0.0104219
0.0278405
0.036029
0.0308977
0.0183649
0.00720358
0.00133095
-0.000110194
-7.02154e-05
-2.02625e-05
-1.70042e-06
1.2863e-07
3.68148e-08
2.07744e-09
-7.59343e-11
-1.48894e-11
-1.77143e-13
1.14378e-14
2.05099e-15
2.59043e-16
5.67873e-17
1.42193e-17
3.60419e-18
8.89127e-19
2.09569e-19
4.68509e-20
9.91827e-21
1.99066e-21
3.79752e-22
6.90737e-23
1.20208e-23
2.0088e-24
3.23546e-25
5.04164e-26
7.62938e-27
1.12538e-27
1.62375e-28
2.2988e-29
3.20148e-30
4.39412e-31
6.18941e-32
-0.000396755
-0.000327753
-0.000191595
-0.000495415
-0.00013524
0.00120291
0.00060142
-0.00431457
-0.00733475
-0.000693693
0.0125426
0.0193756
0.0163632
0.00858207
0.00228727
-0.00017925
-0.000181018
-8.15211e-05
-1.21916e-05
9.30731e-07
2.76464e-07
1.62892e-08
-7.01467e-10
-1.60325e-10
-4.06794e-12
7.70782e-14
1.59302e-14
9.04034e-16
1.2688e-16
3.8473e-17
1.08255e-17
2.82387e-18
6.8865e-19
1.57829e-19
3.41066e-20
6.96622e-21
1.34788e-21
2.47681e-22
4.33483e-23
7.24969e-24
1.16296e-24
1.79706e-25
2.68802e-26
3.91328e-27
5.57767e-28
7.83007e-29
1.08857e-29
1.50511e-30
2.07461e-31
2.96873e-32
-0.000196256
-0.000114082
0.000223414
-3.8203e-05
-0.000546255
0.000355495
0.00187471
0.000319596
-0.00392895
-0.00543954
-0.00300407
-0.000410422
-0.000144988
-0.000817869
-0.0010254
-0.000510345
-0.000193296
-3.267e-05
3.52215e-06
1.00774e-06
8.16098e-08
-3.57321e-09
-9.06701e-10
-4.48621e-11
7.08786e-13
1.40246e-13
3.1159e-15
-5.20457e-17
1.94939e-17
1.32749e-17
4.64827e-18
1.26512e-18
2.96835e-19
6.25294e-20
1.20215e-20
2.11663e-21
3.3917e-22
4.85493e-23
5.93218e-24
5.37761e-25
1.00126e-26
-1.04811e-26
-3.3287e-27
-7.18707e-28
-1.29485e-28
-2.05905e-29
-2.94404e-30
-3.78338e-31
-4.27954e-32
-4.05355e-33
-0.000367074
-0.000484783
-0.000254277
-4.55533e-05
-0.000431533
-0.000482847
0.000724783
0.00171715
0.000645069
-0.00200763
-0.0042076
-0.00464531
-0.00373467
-0.00219641
-0.000853046
-0.000215809
-1.66625e-05
1.23179e-05
2.6106e-06
-7.53763e-08
-2.40768e-08
-2.44079e-09
-1.76194e-10
1.18562e-11
1.24015e-12
5.02264e-14
-3.04034e-15
-4.91663e-16
-5.58945e-17
-5.80911e-18
-4.80941e-19
-8.16417e-20
-4.15011e-20
-1.83169e-20
-6.32168e-21
-1.83454e-21
-4.69525e-22
-1.08974e-22
-2.33299e-23
-4.65852e-24
-8.74244e-25
-1.55041e-25
-2.60888e-26
-4.17819e-27
-6.38324e-28
-9.318e-29
-1.30098e-29
-1.73796e-30
-2.22044e-31
-2.80398e-32
-0.000212477
-0.00033055
-0.000332459
-8.56972e-05
1.48147e-05
-0.000330413
-0.000492511
0.000240336
0.00136602
0.00148682
0.000650356
-3.96626e-05
-3.64355e-05
0.000244463
0.000303284
0.000176023
5.68586e-05
6.52527e-06
-2.75223e-07
-1.29476e-07
-3.94854e-08
-4.01787e-09
2.4939e-10
5.5111e-11
1.31295e-12
-5.11505e-14
-1.12227e-14
-5.85613e-16
-5.31087e-17
-9.24248e-18
-1.92783e-18
-5.17504e-19
-1.56315e-19
-4.62144e-20
-1.26906e-20
-3.21004e-21
-7.51378e-22
-1.63881e-22
-3.35197e-23
-6.46423e-24
-1.1806e-24
-2.04948e-25
-3.39189e-26
-5.36512e-27
-8.12725e-28
-1.18101e-28
-1.6484e-29
-2.21193e-30
-2.85496e-31
-3.67207e-32
7.25502e-05
8.65095e-05
4.16277e-06
-1.16039e-05
0.000151194
0.000108614
-0.000375598
-0.000615247
-1.99161e-06
0.0011008
0.00181531
0.00189873
0.00158007
0.00101225
0.000469098
0.0001455
1.65835e-05
-3.32505e-06
-1.10212e-06
-1.96989e-07
-1.27089e-08
1.92869e-09
4.84364e-10
2.02971e-11
-3.49893e-13
-8.20637e-14
-2.78848e-15
1.52043e-16
3.76277e-17
7.04997e-18
9.0163e-19
-1.76383e-20
-6.30719e-20
-2.78631e-20
-8.97752e-21
-2.45876e-21
-6.02166e-22
-1.3508e-22
-2.81436e-23
-5.49614e-24
-1.01266e-24
-1.76908e-25
-2.94165e-26
-4.67031e-27
-7.09761e-28
-1.03463e-28
-1.44904e-29
-1.95236e-30
-2.53294e-31
-3.28084e-32
8.82082e-05
0.000131946
0.00012493
3.10492e-05
1.67798e-05
0.000135818
0.000126118
-0.000187757
-0.000478237
-0.000331437
0.000118878
0.000407988
0.000356827
0.000142075
-5.33892e-07
-3.38025e-05
-1.7486e-05
-4.00542e-06
-2.16158e-07
9.57362e-08
3.092e-08
2.27262e-09
-1.36138e-10
-2.95241e-11
-4.1353e-13
2.00902e-14
4.49445e-15
4.34471e-16
7.20038e-17
1.39748e-17
2.5428e-18
3.9732e-19
4.168e-20
-2.318e-21
-3.03219e-21
-1.14201e-21
-3.24533e-22
-7.9272e-23
-1.74323e-23
-3.53028e-24
-6.67198e-25
-1.18707e-25
-2.00057e-26
-3.20834e-27
-4.9135e-28
-7.20598e-29
-1.01424e-29
-1.37237e-30
-1.78752e-31
-2.32488e-32
-1.47251e-05
-1.35622e-05
1.40434e-05
7.52829e-06
-4.94187e-05
-1.75527e-05
0.000143967
0.000170619
-7.3577e-05
-0.000370099
-0.000487025
-0.000458486
-0.000379805
-0.000262932
-0.000145454
-6.00772e-05
-1.51403e-05
-6.63123e-07
2.41174e-07
9.79644e-08
1.30954e-08
-6.78935e-10
-1.51008e-10
-2.11219e-12
4.69863e-14
1.01834e-14
9.91156e-16
1.82736e-16
4.82533e-17
1.1965e-17
2.69421e-18
5.40839e-19
9.34762e-20
1.26814e-20
8.54045e-22
-2.11089e-22
-1.15728e-22
-3.51442e-23
-8.61033e-24
-1.85667e-24
-3.65095e-25
-6.66932e-26
-1.14454e-26
-1.85904e-27
-2.87306e-28
-4.24128e-29
-5.99827e-30
-8.14538e-31
-1.06386e-31
-1.38688e-32
-2.59165e-05
-3.72591e-05
-3.29158e-05
-8.29918e-06
-9.51996e-06
-3.66231e-05
-1.93335e-05
6.33628e-05
0.00011062
5.89241e-05
-4.7193e-05
-0.00010784
-8.79957e-05
-4.2781e-05
-1.21183e-05
2.76041e-07
2.17193e-06
4.92356e-07
7.12965e-08
-4.97579e-09
-3.0978e-09
-5.9506e-10
5.70164e-12
8.9323e-13
-2.46367e-14
-1.69333e-15
2.0716e-16
1.11128e-16
3.64766e-17
9.91441e-18
2.37223e-18
5.06577e-19
9.61308e-20
1.5839e-20
2.11709e-21
1.73431e-22
-1.51673e-23
-1.15396e-23
-3.5267e-24