/*--------------------------------*- C++ -*----------------------------------*\
| =========                 |                                                 |
| \\      /  F ield         | OpenFOAM: The Open Source CFD Toolbox           |
|  \\    /   O peration     | Version:  v2006                                 |
|   \\  /    A nd           | Website:  www.openfoam.com                      |
|    \\/     M anipulation  |                                                 |
\*---------------------------------------------------------------------------*/
FoamFile
{
    version     2.0;
    format      ascii;
    class       volScalarField;
    location    "0";
    object      f;
}
// * * * * * * * * * * * * * * * * * * * * * * * * * * * * * * * * * * * * * //

dimensions      [0 0 0 0 0 0 0];


internalField   nonuniform List<scalar> 
2500
(
-7.76964e-17
-7.88055e-17
-7.78764e-17
-6.91008e-17
-7.23274e-17
-9.15942e-17
-6.68281e-17
8.47682e-17
8.85775e-15
-2.11359e-14
-6.24141e-14
2.5189e-13
5.44358e-13
1.20853e-13
-7.18286e-13
-9.02141e-13
6.18324e-14
1.32736e-12
2.05515e-12
-2.69308e-12
-2.41013e-11
-3.55876e-11
-3.57294e-11
1.74992e-12
4.44418e-11
3.68497e-11
1.02154e-11
-8.93105e-12
-2.4781e-11
-1.84911e-11
-9.63286e-12
-3.62601e-12
-8.49944e-13
9.81301e-13
1.44498e-12
7.57451e-13
1.47002e-13
6.6253e-16
-2.45993e-15
8.98054e-16
1.63646e-15
1.24548e-15
7.52811e-16
4.17488e-16
2.25956e-16
1.24235e-16
7.10406e-17
4.22241e-17
2.55505e-17
1.53353e-17
8.86972e-13
8.66539e-13
9.1657e-13
9.16017e-13
7.47983e-13
7.84988e-13
1.05847e-12
1.11751e-12
8.18225e-13
1.84111e-13
8.12528e-13
2.29872e-12
1.40578e-12
-3.06067e-13
-1.55438e-12
-2.71003e-12
3.63344e-12
1.81557e-12
-2.42694e-12
-7.28517e-11
-1.00536e-10
-1.45617e-10
-9.11729e-11
2.40114e-10
2.42531e-10
9.4106e-11
-4.11032e-11
-2.21408e-10
-1.67036e-10
-7.33804e-11
-2.11989e-11
-6.66645e-12
1.34681e-11
1.64506e-11
8.37303e-12
1.90741e-12
-9.41748e-14
-8.96996e-14
-1.72444e-14
2.6653e-15
4.37995e-15
2.62725e-15
1.35169e-15
6.78508e-16
3.46331e-16
1.86446e-16
1.08054e-16
6.63805e-17
4.15515e-17
2.55493e-17
8.03471e-12
8.02513e-12
8.06063e-12
8.09198e-12
7.85735e-12
7.92915e-12
8.57872e-12
8.33796e-12
7.13324e-12
6.97194e-12
8.5675e-12
6.70349e-12
-1.20085e-12
-1.35762e-12
5.28335e-12
3.6906e-11
2.49282e-11
-1.24235e-10
-4.84765e-10
-3.56082e-10
-1.10528e-10
-1.99398e-10
1.33915e-09
1.07085e-09
4.38114e-10
-5.16418e-10
-1.41659e-09
-9.51424e-10
-3.19609e-10
-9.70085e-11
1.07091e-10
1.95202e-10
1.41054e-10
6.24045e-11
1.48977e-11
-2.40342e-12
-1.67739e-12
-3.44433e-13
6.06298e-15
3.69147e-14
1.57369e-14
5.13579e-15
2.05585e-15
9.22309e-16
4.48638e-16
2.44541e-16
1.5095e-16
1.00048e-16
6.63781e-17
4.22209e-17
2.27591e-11
2.29662e-11
2.26025e-11
2.28727e-11
2.34756e-11
2.29935e-11
2.34901e-11
2.24845e-11
2.07737e-11
2.70927e-11
3.1216e-11
8.98332e-12
-1.64391e-11
-7.27659e-13
1.95588e-10
4.17051e-10
7.9287e-11
-1.31887e-09
-2.29311e-09
-7.71881e-10
5.85404e-09
1.04184e-08
8.3127e-09
1.94846e-09
-6.8522e-09
-1.04305e-08
-6.71164e-09
-1.78006e-09
5.44717e-10
2.8572e-09
2.37924e-09
1.23363e-09
4.72482e-10
1.03289e-10
-4.21721e-11
-2.54888e-11
-5.3246e-12
1.02502e-13
4.85047e-13
2.07113e-13
3.49206e-14
5.33174e-15
1.945e-15
8.68139e-16
4.37074e-16
2.70173e-16
1.98671e-16
1.50945e-16
1.08048e-16
7.1034e-17
3.74659e-11
3.83219e-11
3.71883e-11
3.68302e-11
3.99894e-11
3.94323e-11
3.85574e-11
3.56375e-11
3.04053e-11
6.01715e-11
7.7669e-11
-1.87441e-11
-4.72627e-11
1.40103e-10
7.11327e-10
1.54021e-09
5.02263e-10
-4.1588e-09
-4.62931e-09
1.71389e-08
4.94314e-08
5.59733e-08
2.11187e-08
-3.38137e-08
-5.40019e-08
-4.0439e-08
-1.33063e-08
1.15696e-08
2.87954e-08
1.93018e-08
8.78405e-09
3.11072e-09
7.4622e-10
-5.29775e-10
-3.14806e-10
-6.99609e-11
-4.99817e-13
4.45863e-12
2.25063e-12
4.58439e-13
1.91673e-14
-3.24058e-16
3.26059e-16
3.00874e-16
2.39283e-16
2.5249e-16
2.70165e-16
2.44529e-16
1.86433e-16
1.24223e-16
3.85542e-11
4.03676e-11
3.86667e-11
3.48283e-11
4.30636e-11
4.55185e-11
4.0185e-11
3.24741e-11
1.73535e-11
9.4701e-11
1.479e-10
-6.62158e-11
-1.85708e-10
1.15725e-10
1.35679e-09
3.66544e-09
1.71668e-09
-5.55795e-09
3.08647e-08
7.1376e-08
1.21545e-07
1.44132e-07
1.03303e-08
-1.48211e-07
-1.55549e-07
-7.23951e-08
7.68096e-08
1.87621e-07
1.27335e-07
4.88407e-08
1.34475e-08
3.89662e-09
-5.99232e-09
-3.44453e-09
-7.45197e-10
-1.90229e-11
3.08821e-11
1.76573e-11
4.47362e-12
3.08052e-13
-1.80375e-14
-5.66567e-15
-1.41734e-15
-4.46475e-16
-7.56714e-17
2.39275e-16
4.37056e-16
4.48615e-16
3.46308e-16
2.25936e-16
9.84691e-12
1.20195e-11
1.20086e-11
9.2991e-13
1.24393e-11
2.46219e-11
1.34948e-11
-1.1095e-12
-4.48985e-11
7.14267e-11
2.73966e-10
-2.09561e-10
-9.44412e-10
-7.23673e-10
8.95999e-10
5.40777e-09
-1.12221e-08
6.05105e-08
1.32256e-07
1.36297e-07
1.18663e-07
2.08926e-07
-1.8726e-07
-2.63809e-07
-2.53901e-07
4.6064e-07
1.1509e-06
7.67279e-07
2.30629e-07
5.75998e-08
-4.21522e-08
-8.16864e-08
-3.91461e-08
-7.44577e-09
-1.22296e-10
1.93616e-10
1.14609e-10
3.25257e-11
3.18754e-12
-2.03059e-13
-7.05818e-14
-8.88912e-15
-1.47327e-15
-8.84398e-16
-4.46466e-16
3.00867e-16
8.6811e-16
9.22269e-16
6.78471e-16
4.17459e-16
-2.4169e-07
-2.4176e-07
-2.41317e-07
-2.41108e-07
-2.42156e-07
-2.43518e-07
-2.4117e-07
-2.35688e-07
-2.38583e-07
-2.59413e-07
-2.62264e-07
-2.12116e-07
-1.77682e-07
-2.05388e-07
-4.34012e-07
-7.59464e-07
-3.76988e-07
1.90616e-07
1.77143e-07
6.86447e-08
-2.40871e-06
-4.64933e-06
-2.06196e-06
3.63288e-07
3.98006e-06
7.04291e-06
4.40395e-06
1.36313e-06
-8.48517e-07
-1.7103e-06
-1.21875e-06
-4.86954e-07
-9.01504e-08
-5.60093e-10
1.08366e-09
6.77623e-10
2.15345e-10
2.62752e-11
-1.60623e-12
-7.0897e-13
-1.05871e-13
3.75044e-15
1.51455e-15
-1.47322e-15
-1.41727e-15
3.26078e-16
1.94496e-15
2.05578e-15
1.35163e-15
7.52769e-16
-4.50858e-06
-4.50904e-06
-4.50756e-06
-4.50672e-06
-4.51153e-06
-4.51295e-06
-4.50019e-06
-4.49418e-06
-4.52392e-06
-4.55811e-06
-4.51829e-06
-4.32879e-06
-4.37342e-06
-4.83555e-06
-5.40042e-06
-4.91549e-06
-2.15635e-06
9.43007e-08
-7.4994e-07
-1.33188e-05
-2.81881e-05
-2.88518e-05
-6.7775e-06
2.69582e-05
3.72852e-05
2.79289e-05
6.90659e-06
-1.41329e-05
-1.81653e-05
-1.1849e-05
-5.00629e-06
-1.2006e-06
-5.9822e-08
4.89344e-09
3.30762e-09
1.27596e-09
2.43291e-10
-4.16814e-12
-3.21799e-12
-8.78075e-13
-2.04667e-14
1.50276e-14
3.75053e-15
-8.88873e-15
-5.66541e-15
-3.23956e-16
5.33164e-15
5.13563e-15
2.62715e-15
1.24542e-15
-1.59307e-05
-1.59323e-05
-1.59346e-05
-1.59303e-05
-1.5931e-05
-1.59215e-05
-1.59183e-05
-1.59725e-05
-1.60068e-05
-1.58153e-05
-1.57249e-05
-1.59169e-05
-1.64797e-05
-1.74264e-05
-1.69322e-05
-1.2795e-05
-5.76403e-06
-9.40494e-07
-2.23736e-05
-5.69401e-05
-8.80229e-05
-8.23553e-05
1.01367e-06
9.84786e-05
0.000117092
5.54543e-05
-5.2633e-05
-8.77538e-05
-6.55092e-05
-3.24955e-05
-1.08004e-05
-1.62105e-06
1.69318e-08
1.15191e-08
5.5972e-09
1.6853e-09
1.37798e-10
-2.32208e-12
-1.78421e-12
7.12534e-14
4.8107e-14
-2.04634e-14
-1.05867e-13
-7.0579e-14
-1.80368e-14
1.91664e-14
3.49192e-14
1.57363e-14
4.37979e-15
1.6364e-15
-2.66771e-05
-2.66791e-05
-2.66903e-05
-2.66851e-05
-2.66784e-05
-2.66385e-05
-2.66247e-05
-2.68132e-05
-2.697e-05
-2.63508e-05
-2.58776e-05
-2.65185e-05
-2.80213e-05
-3.12933e-05
-3.05806e-05
-1.93524e-05
-9.91823e-06
-1.55064e-05
-4.94201e-05
-0.000111577
-0.000168063
-0.000155101
2.14266e-05
0.000169266
0.00020091
5.90649e-05
-0.00023322
-0.000208186
-0.000123587
-5.33497e-05
-1.52201e-05
-1.27426e-06
1.09331e-08
1.30397e-08
7.01227e-09
1.94986e-09
1.03336e-10
1.39812e-11
4.61815e-12
2.49594e-12
7.1269e-14
-8.7805e-13
-7.08948e-13
-2.03052e-13
3.08039e-13
4.58421e-13
2.07105e-13
3.69131e-14
2.66523e-15
8.98043e-16
-1.67135e-05
-1.67091e-05
-1.67328e-05
-1.67532e-05
-1.67356e-05
-1.66149e-05
-1.6497e-05
-1.69743e-05
-1.76413e-05
-1.64283e-05
-1.41077e-05
-1.46869e-05
-1.89471e-05
-2.78859e-05
-3.27226e-05
-1.7479e-05
1.3301e-05
-3.6089e-06
-3.82986e-05
-9.29971e-05
-0.000217543
8.73149e-05
0.000148164
0.000129809
-3.86697e-05
-0.0010516
-0.000449043
-0.000232419
-0.000125797
-5.51944e-05
-1.557e-05
-7.3623e-07
8.14801e-09
1.20641e-08
7.30191e-09
2.94176e-09
9.53767e-10
8.58374e-11
1.47559e-11
4.61813e-12
-1.7842e-12
-3.21794e-12
-1.60618e-12
3.18743e-12
4.47347e-12
2.25055e-12
4.85029e-13
6.06234e-15
-1.72439e-14
-2.4598e-15
0.000105788
0.000105833
0.000105721
0.000105493
0.000105809
0.000106632
0.000106328
0.000103244
0.00010235
0.000110523
0.000119525
0.000107659
7.90732e-05
6.99761e-05
0.000119324
0.000244245
0.000232819
7.89742e-05
6.17627e-05
0.000270063
0.00176394
0.00249527
0.000390415
-0.00530942
-0.0101245
-0.0080644
0.000718827
0.015835
0.0311763
0.0396302
0.0392613
0.0327081
0.0227241
0.0129815
0.00583015
0.00180643
0.000230548
2.73454e-11
8.58366e-11
1.3981e-11
-2.32212e-12
-4.16821e-12
2.62743e-11
3.25247e-11
1.76568e-11
4.45848e-12
1.02494e-13
-3.44429e-13
-8.96982e-14
6.6262e-16
0.00236915
0.00236939
0.00236797
0.00236668
0.0023725
0.00237765
0.0023617
0.00233962
0.00237211
0.00244761
0.00242205
0.00222478
0.00210736
0.00245062
0.00304491
0.00299114
0.00172783
0.00028098
0.00074905
0.00629485
0.0122171
0.0110549
-0.00485167
-0.0296819
-0.0450202
-0.0268768
0.0429274
0.153215
0.265567
0.333907
0.339037
0.2969
0.221899
0.139942
0.0722243
0.0281279
0.00635111
0.000230548
9.5375e-10
1.03326e-10
1.3779e-10
2.43283e-10
2.15339e-10
1.14606e-10
3.08811e-11
-4.99858e-13
-5.32455e-12
-1.67738e-12
-9.41762e-14
1.46997e-13
0.00900818
0.00900891
0.00900435
0.00899984
0.00901978
0.00903709
0.00897964
0.00891249
0.00903251
0.00926461
0.00911847
0.00847595
0.00832385
0.00955088
0.0110569
0.010148
0.00547537
0.00112365
0.00406649
0.0186527
0.0357248
0.0349432
-0.00262879
-0.0732469
-0.121437
-0.0876382
0.0819546
0.375136
0.701041
0.925589
0.977421
0.89203
0.69655
0.4611
0.252305
0.10665
0.0281279
0.00180643
2.94169e-09
1.94979e-09
1.68525e-09
1.27592e-09
6.77604e-10
1.93611e-10
-1.90224e-11
-6.99598e-11
-2.54886e-11
-2.40342e-12
1.90736e-12
7.57428e-13
0.0174682
0.0174709
0.01746
0.0174425
0.0174906
0.017556
0.017421
0.017197
0.0174556
0.0181369
0.0179372
0.0162495
0.0153851
0.0183166
0.0227015
0.0214378
0.0112731
-0.00125812
0.00171947
0.0337526
0.0778611
0.0929271
0.0254518
-0.12782
-0.284082
-0.323692
-0.10153
0.409782
1.06658
1.5877
1.79477
1.73247
1.42025
0.984047
0.564548
0.252305
0.0722243
0.00583016
7.3019e-09
7.01217e-09
5.59708e-09
3.30753e-09
1.08363e-09
-1.22287e-10
-7.45182e-10
-3.14802e-10
-4.21719e-11
1.48973e-11
8.3728e-12
1.44494e-12
0.02216
0.022167
0.0221456
0.0220999
0.0221937
0.022365
0.0221053
0.0215492
0.0220136
0.0236141
0.0234377
0.0196888
0.0171519
0.0231731
0.0339343
0.0343301
0.0124303
-0.0152592
-0.0162538
0.0407402
0.131
0.190025
0.1047
-0.164071
-0.521723
-0.778426
-0.644979
0.0197332
1.05788
2.00063
2.50632
2.60228
2.25652
1.63974
0.984047
0.4611
0.139942
0.0129815
1.20643e-08
1.30397e-08
1.1519e-08
4.89332e-09
-5.59969e-10
-7.44559e-09
-3.44447e-09
-5.29769e-10
1.03286e-10
6.24029e-11
1.64502e-11
9.81271e-13
0.0188729
0.0188883
0.0188571
0.0187553
0.0188903
0.0192658
0.0189148
0.0177675
0.0182536
0.0212965
0.0218649
0.0154061
0.00921164
0.0180006
0.03878
0.0445295
0.0129959
-0.0418442
-0.0616379
0.00830128
0.162459
0.315473
0.281471
-0.0390827
-0.609722
-1.21203
-1.38841
-0.786761
0.51192
1.87094
2.76364
3.16836
2.94251
2.25652
1.42025
0.69655
0.221899
0.0227241
8.14842e-09
1.09334e-08
1.69314e-08
-5.98188e-08
-9.0148e-08
-3.91453e-08
-5.99223e-09
7.46202e-10
4.72472e-10
1.41051e-10
1.34677e-11
-8.49909e-13
0.00874887
0.0087793
0.00874305
0.00854075
0.00869501
0.00942741
0.00909324
0.00694414
0.00699152
0.01229
0.0152169
0.00533094
-0.00856993
-0.000248882
0.0358043
0.0589865
0.0221225
-0.0731727
-0.143767
-0.0903013
0.129943
0.443104
0.607253
0.415096
-0.247596
-1.23245
-1.94607
-1.74314
-0.504832
1.06364
2.29448
3.09787
3.16836
2.60228
1.73247
0.89203
0.2969
0.0327081
-7.36178e-07
-1.27419e-06
-1.621e-06
-1.20057e-06
-4.86943e-07
-8.1685e-08
3.89653e-09
3.11068e-09
1.23361e-09
1.95198e-10
-6.66625e-12
-3.62588e-12
-0.00114842
-0.00109678
-0.00112194
-0.00146536
-0.00136538
-0.0001432
-0.000211285
-0.00366119
-0.00477606
0.00310521
0.0103159
-0.0024791
-0.0284855
-0.0249678
0.0273548
0.0814937
0.0535392
-0.0787997
-0.230333
-0.25486
-0.0163149
0.458784
0.933752
1.09765
0.606257
-0.602789
-1.9158
-2.38962
-1.61047
-0.200591
1.14734
2.29448
2.76364
2.50632
1.79477
0.977421
0.339037
0.0392612
-1.55697e-05
-1.52198e-05
-1.08002e-05
-5.0062e-06
-1.21873e-06
-4.21513e-08
1.34474e-08
8.78395e-09
2.37921e-09
1.07089e-10
-2.11983e-11
-9.63253e-12
-0.0112641
-0.0111831
-0.011159
-0.0116968
-0.0118216
-0.00995322
-0.00917495
-0.0141364
-0.018103
-0.00802811
0.00701481
-0.00474185
-0.045792
-0.0615977
0.00149169
0.10491
0.126354
-0.018505
-0.278656
-0.473238
-0.377019
0.11807
0.885971
1.58432
1.61406
0.557465
-1.11735
-2.27829
-2.21891
-1.33746
-0.200591
1.06364
1.87094
2.00063
1.5877
0.925589
0.333907
0.0396302
-5.51938e-05
-5.33491e-05
-3.24951e-05
-1.18489e-05
-1.71027e-06
5.75994e-08
4.88402e-08
1.93016e-08
2.85715e-09
-9.70062e-11
-7.33784e-11
-1.84905e-11
-0.0158865
-0.0157702
-0.0156477
-0.0164162
-0.0169781
-0.0143656
-0.0120546
-0.0186012
-0.0273132
-0.0159271
0.0113619
0.007182
-0.0540903
-0.104018
-0.0439838
0.118625
0.232788
0.134019
-0.228265
-0.67913
-0.914625
-0.651339
0.221779
1.45412
2.24935
1.75854
0.120392
-1.53436
-2.28949
-2.21891
-1.61047
-0.504832
0.511921
1.05788
1.06658
0.701041
0.265566
0.0311763
-0.000125796
-0.000123586
-6.55085e-05
-1.81651e-05
-8.48495e-07
2.30627e-07
1.27333e-07
2.8795e-08
5.44696e-10
-3.19602e-10
-1.67032e-10
-2.47801e-11
-0.00650372
-0.00635653
-0.00605066
-0.00701179
-0.00836853
-0.00523494
-0.00037056
-0.00742698
-0.0229298
-0.0139982
0.0273928
0.040981
-0.0314482
-0.133866
-0.116315
0.0850162
0.338354
0.389423
0.0661687
-0.574705
-1.24699
-1.5206
-0.936675
0.538209
2.08045
2.47726
1.41737
-0.224219
-1.53436
-2.27829
-2.38962
-1.74314
-0.786761
0.0197333
0.409782
0.375136
0.153215
0.0158349
-0.000232418
-0.000208184
-8.7753e-05
-1.41327e-05
1.36311e-06
7.6727e-07
1.87619e-07
1.15694e-08
-1.78002e-09
-9.51402e-10
-2.21401e-10
-8.93056e-12
0.00846044
0.00863249
0.00923239
0.00811622
0.00548509
0.00891404
0.0177628
0.011538
-0.0138529
-0.0140004
0.0442206
0.0920552
0.0210007
-0.149585
-0.2235
-0.0360824
0.373967
0.721625
0.682379
0.100031
-0.925662
-1.91871
-2.06051
-0.849988
1.09832
2.42558
2.39901
1.41737
0.120392
-1.11735
-1.9158
-1.94607
-1.38841
-0.644979
-0.10153
0.0819547
0.0429274
0.000718834
-0.00044904
-0.000233218
-5.26325e-05
6.90655e-06
4.40391e-06
1.15088e-06
7.68075e-08
-1.33061e-08
-6.71151e-09
-1.41656e-09
-4.10997e-11
1.0215e-11
0.0106945
0.0108578
0.0118566
0.0108004
0.00653046
0.00942533
0.0231274
0.0201403
-0.0166991
-0.0320645
0.0368596
0.133227
0.0916078
-0.132427
-0.350965
-0.27394
0.198637
0.858904
1.31699
1.17284
0.165289
-1.40708
-2.5024
-2.10465
-0.395165
1.42235
2.42558
2.47726
1.75854
0.557465
-0.602789
-1.23245
-1.21203
-0.778426
-0.323692
-0.0876381
-0.0268767
-0.00806438
-0.0010516
5.90651e-05
5.5454e-05
2.79287e-05
7.04283e-06
4.60627e-07
-7.2394e-08
-4.04384e-08
-1.04303e-08
-5.16395e-10
9.4104e-11
3.68487e-11
0.000188336
0.000284733
0.00187923
0.00129249
-0.00541061
-0.00465507
0.0154106
0.0210917
-0.0261961
-0.0726254
-0.00441224
0.157525
0.198377
-0.0410953
-0.442134
-0.648782
-0.367478
0.407798
1.40387
2.03796
1.58918
-0.0773179
-1.96431
-2.70013
-1.92977
-0.395165
1.09832
2.08045
2.24935
1.61406
0.606257
-0.247596
-0.609722
-0.521723
-0.284082
-0.121437
-0.0450202
-0.0101245
-3.86688e-05
0.000200909
0.000117092
3.7285e-05
3.97998e-06
-2.53896e-07
-1.55547e-07
-5.40011e-08
-6.85206e-09
4.38101e-10
2.42525e-10
4.44406e-11
-0.00931793
-0.00936482
-0.00705881
-0.00672248
-0.0163347
-0.019347
0.00844721
0.0292246
-0.0288027
-0.117927
-0.070286
0.156407
0.333146
0.160858
-0.388201
-0.976201
-1.17746
-0.682967
0.560878
2.01235
2.5604
1.4854
-0.576447
-2.22609
-2.70013
-2.10465
-0.849988
0.538209
1.45412
1.58432
1.09765
0.415096
-0.0390829
-0.164071
-0.12782
-0.073247
-0.0296819
-0.00530942
0.000129805
0.000169264
9.84777e-05
2.6958e-05
3.63292e-07
-2.63802e-07
-1.48208e-07
-3.3813e-08
1.94844e-09
1.07083e-09
2.40105e-10
1.74889e-12
-0.00667513
-0.00707117
-0.00400754
-0.00145547
-0.0139313
-0.0244709
0.00922801
0.054444
-0.000710772
-0.148909
-0.170627
0.092866
0.458306
0.516708
0.0445988
-0.808528
-1.65028
-1.88866
-0.973044
0.907822
2.51645
2.61166
1.2391
-0.576447
-1.96431
-2.5024
-2.06051
-0.936675
0.22178
0.885971
0.933752
0.607253
0.281471
0.1047
0.0254516
-0.00262892
-0.00485173
0.000390396
0.000148155
2.14242e-05
1.01299e-06
-6.77755e-06
-2.06195e-06
-1.87253e-07
1.03321e-08
2.11187e-08
8.31262e-09
1.33912e-09
-9.11746e-11
-3.57294e-11
-0.000788018
-0.00174275
0.0022298
0.00841998
-0.00728272
-0.0315508
0.00690216
0.0905892
0.054431
-0.163044
-0.309305
-0.0752387
0.498766
0.962217
0.898832
0.144229
-1.16189
-2.34399
-2.35471
-0.786918
1.37964
2.69382
2.61166
1.4854
-0.0773182
-1.40708
-1.91871
-1.5206
-0.651338
0.118071
0.458784
0.443104
0.315473
0.190025
0.0929269
0.034943
0.0110548
0.00249523
8.73074e-05
-0.0001551
-8.23558e-05
-2.8852e-05
-4.6493e-06
2.08926e-07
1.44132e-07
5.59729e-08
1.04182e-08
-1.99403e-10
-1.45615e-10
-3.55869e-11
-0.00193048
-0.00371917
0.000433252
0.0118379
-0.00537803
-0.0473421
-0.0157321
0.11759
0.13963
-0.127001
-0.462361
-0.389554
0.230777
1.08501
1.69685
1.55655
0.329621
-1.55526
-2.77967
-2.30809
-0.520259
1.37964
2.51645
2.5604
1.58918
0.165289
-0.925663
-1.24699
-0.914625
-0.377019
-0.0163145
0.129943
0.162459
0.131
0.077861
0.0357247
0.012217
0.0017639
-0.000217542
-0.000168064
-8.80239e-05
-2.81884e-05
-2.40869e-06
1.18663e-07
1.21545e-07
4.94309e-08
5.85388e-09
-1.10529e-10
-1.00536e-10
-2.41013e-11
-0.00523003
-0.00845367
-0.00508008
0.0148804
0.002475
-0.0703663
-0.0624777
0.132565
0.271885
0.00955224
-0.564463
-0.895787
-0.575778
0.373466
1.62156
2.46154
2.01203
0.147331
-1.95153
-2.88097
-2.30809
-0.786917
0.907823
2.01235
2.03796
1.17284
0.10003
-0.574706
-0.67913
-0.473238
-0.254859
-0.090301
0.00830148
0.0407402
0.0337525
0.0186526
0.00629474
0.000270038
-9.29951e-05
-0.000111577
-5.69416e-05
-1.33193e-05
6.86039e-08
1.36291e-07
7.13772e-08
1.71392e-08
-7.71858e-10
-3.56081e-10
-7.28526e-11
-2.69327e-12
-0.0017613
-0.00647848
-0.00505224
0.026851
0.0225575
-0.0847996
-0.12908
0.113197
0.440066
0.288572
-0.453028
-1.28301
-1.63088
-1.13571
0.279178
2.03189
2.8571
1.94461
-0.0919892
-1.95153
-2.77967
-2.35471
-0.973044
0.560879
1.40387
1.31699
0.682379
0.0661682
-0.228266
-0.278656
-0.230333
-0.143767
-0.0616378
-0.0162538
0.00171938
0.00406639
0.00074895
6.1765e-05
-3.82983e-05
-4.94227e-05
-2.23753e-05
-7.50385e-07
1.77099e-07
1.32256e-07
3.08681e-08
-4.62871e-09
-2.293e-09
-4.84765e-10
-2.42939e-12
2.05499e-12
0.00129824
-0.00503424
-0.00920532
0.0337493
0.0597244
-0.0879282
-0.245104
-0.00115787
0.576228
0.811349
0.255232
-0.857035
-1.97895
-2.44784
-1.62765
0.381567
2.33285
2.91296
1.94461
0.147331
-1.55526
-2.34399
-1.88866
-0.682967
0.407799
0.858904
0.721625
0.389423
0.134019
-0.0185052
-0.0787997
-0.0731726
-0.0418442
-0.0152592
-0.00125825
0.00112346
0.000280974
7.89597e-05
-3.62428e-06
-1.55147e-05
-9.42234e-07
9.40913e-08
1.90594e-07
6.05226e-08
-5.55482e-09
-4.15814e-09
-1.31894e-09
-1.24273e-10
1.81592e-12
1.32738e-12
-0.00720873
-0.0157311
-0.0310326
0.0297868
0.105134
-0.0725957
-0.407903
-0.264949
0.575843
1.41368
1.51255
0.694431
-0.811898
-2.35289
-2.82902
-1.62205
0.551364
2.33285
2.8571
2.01203
0.32962
-1.16189
-1.65028
-1.17746
-0.367478
0.198638
0.373967
0.338354
0.232788
0.126354
0.0535392
0.0221226
0.012996
0.0124303
0.011273
0.00547523
0.00172776
0.000232803
1.32968e-05
-9.92305e-06
-5.76566e-06
-2.15666e-06
-3.76947e-07
-1.12084e-08
1.71823e-09
5.02311e-10
7.91461e-11
2.4922e-11
3.63498e-12
6.19668e-14
-0.00978046
-0.0193216
-0.0490796
0.0181044
0.185508
0.0322437
-0.552554
-0.776732
-0.0195311
1.27989
2.27118
2.39048
1.32302
-0.697857
-2.50946
-2.86851
-1.62205
0.381567
2.03189
2.46154
1.55655
0.144229
-0.808529
-0.976202
-0.648782
-0.27394
-0.0360822
0.0850162
0.118625
0.10491
0.0814938
0.0589866
0.0445297
0.0343302
0.0214376
0.0101479
0.00299105
0.000244229
-1.7479e-05
-1.93554e-05
-1.27972e-05
-4.91608e-06
-7.59434e-07
5.40775e-09
3.66471e-09
1.54004e-09
4.17046e-10
3.69119e-11
-2.70973e-12
-9.02005e-13
0.0138644
0.00508864
-0.0561324
0.00691102
0.321578
0.30347
-0.583232
-1.53938
-1.45122
-0.306467
1.23145
2.52724
2.79537
1.51043
-0.724116
-2.50946
-2.82902
-1.62765
0.279179
1.62156
1.69685
0.898832
0.0445982
-0.388201
-0.442134
-0.350965
-0.2235
-0.116315
-0.0439839
0.00149171
0.0273548
0.0358044
0.0387802
0.0339344
0.0227014
0.0110568
0.00304481
0.000119309
-3.27248e-05
-3.05838e-05
-1.69341e-05
-5.40099e-06
-4.3405e-07
8.96016e-10
1.35668e-09
7.11279e-10
1.95591e-10
5.28943e-12
-1.55391e-12
-7.18227e-13
0.0236183
0.0104931
-0.087842
-0.0804453
0.427351
0.800279
-0.0462467
-1.65898
-2.58322
-2.3395
-1.17554
0.671922
2.42134
2.84333
1.51043
-0.697857
-2.35289
-2.44784
-1.13571
0.373466
1.08501
0.962218
0.516708
0.160858
-0.0410955
-0.132427
-0.149586
-0.133867
-0.104018
-0.0615978
-0.0249679
-0.000248754
0.0180007
0.0231731
0.0183165
0.00955073
0.00245053
6.99629e-05
-2.78913e-05
-3.12979e-05
-1.74286e-05
-4.83603e-06
-2.05387e-07
-7.23303e-10
1.15897e-10
1.40131e-10
-7.35022e-13
-1.36004e-12
-3.06221e-13
1.20936e-13
-0.0178804
-0.0150745
-0.182483
-0.332608
0.348137
1.60477
1.60979
0.0344121
-1.53687
-2.4134
-2.63291
-1.70225
0.421654
2.42134
2.79537
1.32302
-0.811899
-1.97895
-1.63088
-0.575777
0.230778
0.498766
0.458306
0.333146
0.198377
0.0916079
0.0210007
-0.0314483
-0.0540903
-0.045792
-0.0284855
-0.00856984
0.00921176
0.0171519
0.015385
0.0083237
0.00210726
7.90613e-05
-1.89528e-05
-2.80265e-05
-1.64822e-05
-4.3739e-06
-1.77675e-07
-9.44375e-10
-1.85686e-10
-4.72611e-11
-1.6438e-11
-1.19985e-12
1.40584e-12
5.44381e-13
-0.00605159
0.0235652
-0.250777
-0.712521
-0.267248
1.75093
3.088
2.30249
1.03489
-0.0743133
-1.59372
-2.61096
-1.70225
0.671923
2.52724
2.39048
0.69443
-0.857036
-1.28301
-0.895788
-0.389554
-0.0752383
0.0928661
0.156407
0.157526
0.133227
0.0920552
0.040981
0.00718204
-0.00474187
-0.00247911
0.00533103
0.0154062
0.0196889
0.0162494
0.0084758
0.00222469
0.000107647
-1.46918e-05
-2.65236e-05
-1.59194e-05
-4.32928e-06
-2.12111e-07
-2.09574e-10
-6.62206e-11
-1.87436e-11
8.98378e-12
6.70349e-12
2.29871e-12
2.51901e-13
0.110835
0.222935
-0.0550994
-1.23662
-2.0607
-0.468648
1.79419
1.82823
1.44777
1.7797
0.737808
-1.59372
-2.63291
-1.17554
1.23145
2.27118
1.51255
0.255231
-0.453029
-0.564464
-0.462361
-0.309305
-0.170627
-0.070286
-0.00441227
0.0368596
0.0442205
0.0273928
0.0113619
0.00701483
0.0103159
0.015217
0.021865
0.0234377
0.0179372
0.00911833
0.00242196
0.000119514
-1.41112e-05
-2.58822e-05
-1.57273e-05
-4.51879e-06
-2.6226e-07
2.73994e-10
1.47922e-10
7.76769e-11
3.12165e-11
8.56659e-12
8.12163e-13
-6.24289e-14
0.133392
0.512984
0.395305
-1.02148
-2.80581
-2.53216
0.209817
0.245481
-0.946694
0.69558
1.7797
-0.0743149
-2.4134
-2.3395
-0.306466
1.27989
1.41368
0.811349
0.288572
0.00955195
-0.127002
-0.163044
-0.148909
-0.117927
-0.0726256
-0.0320646
-0.0140004
-0.0139982
-0.015927
-0.00802808
0.00310521
0.0122901
0.0212966
0.0236142
0.0181368
0.00926447
0.00244752
0.000110513
-1.6431e-05
-2.63546e-05
-1.58174e-05
-4.55858e-06
-2.59414e-07
7.14744e-11
9.4737e-11
6.0187e-11
2.70966e-11
6.97156e-12
1.83929e-13
-2.1154e-14
-0.101865
0.481329
1.63551
0.457469
-2.28461
-2.77627
0.351151
2.0267
-0.596213
-0.946693
1.44777
1.03488
-1.53687
-2.58322
-1.45122
-0.0195305
0.575844
0.576229
0.440066
0.271885
0.13963
0.0544311
-0.000710616
-0.0288026
-0.0261963
-0.0166993
-0.0138529
-0.0229297
-0.0273131
-0.0181029
-0.00477607
0.00699161
0.0182538
0.0220137
0.0174555
0.00903236
0.00237202
0.00010234
-1.7644e-05
-2.69736e-05
-1.60087e-05
-4.52435e-06
-2.38586e-07
-4.488e-11
1.7378e-11
3.04172e-11
2.0777e-11
7.13321e-12
8.18014e-13
8.86383e-15
-0.259381
0.0314742
2.5982
3.22609
-0.687623
-3.6002
-1.53369
2.47151
2.0267
0.24548
1.82824
2.30249
0.0344114
-1.65898
-1.53939
-0.776732
-0.264949
-0.00115759
0.113197
0.132565
0.11759
0.0905891
0.0544443
0.029225
0.0210916
0.02014
0.0115379
-0.00742694
-0.0186011
-0.0141363
-0.00366119
0.00694423
0.0177676
0.0215492
0.0171969
0.00891234
0.00233953
0.000103232
-1.69775e-05
-2.68169e-05
-1.59744e-05
-4.49461e-06
-2.35691e-07
-1.11292e-12
3.24804e-11
3.56419e-11
2.24862e-11
8.3383e-12
1.11751e-12
8.50873e-17
-0.114189
-0.251478
2.20143
5.6044
3.00226
-2.66762
-4.08317
-1.53369
0.351151
0.209815
1.79419
3.088
1.60979
-0.0462467
-0.583233
-0.552554
-0.407903
-0.245104
-0.12908
-0.0624779
-0.0157321
0.0069018
0.0092283
0.0084478
0.0154106
0.023127
0.0177625
-0.000370627
-0.0120546
-0.00917492
-0.000211284
0.00909334
0.0189149
0.0221053
0.0174209
0.00897949
0.00236161
0.000106316
-1.65006e-05
-2.66286e-05
-1.59202e-05
-4.50063e-06
-2.41172e-07
1.35234e-11
4.0203e-11
3.85637e-11
2.34917e-11
8.57896e-12
1.05843e-12
-6.67138e-17
0.0581077
-0.140312
0.778007
5.15865
6.84515
2.15985
-2.66762
-3.6002
-2.77627
-2.53216
-0.468649
1.75093
1.60477
0.80028
0.303469
0.0322435
-0.0725956
-0.0879279
-0.0847995
-0.0703664
-0.0473421
-0.0315511
-0.024471
-0.0193463
-0.0046549
0.00942507
0.00891375
-0.00523509
-0.0143656
-0.00995322
-0.000143203
0.00942751
0.0192659
0.0223651
0.0175559
0.00903694
0.00237755
0.00010662
-1.66185e-05
-2.66425e-05
-1.59236e-05
-4.5134e-06
-2.43521e-07
2.46573e-11
4.5545e-11
3.94429e-11
2.2996e-11
7.92905e-12
7.84715e-13
-9.15814e-17
0.0394075
0.0428676
-0.227771
1.84661
6.22573
6.84515
3.00226
-0.687623
-2.28461
-2.80581
-2.0607
-0.267247
0.348138
0.427351
0.321578
0.185508
0.105134
0.0597246
0.0225576
0.00247495
-0.0053781
-0.00728263
-0.0139323
-0.016334
-0.00541026
0.0065305
0.00548502
-0.00836861
-0.0169781
-0.0118216
-0.00136539
0.0086951
0.0188905
0.0221938
0.0174905
0.00901963
0.00237241
0.000105797
-1.67391e-05
-2.66823e-05
-1.5933e-05
-4.51197e-06
-2.42158e-07
1.2463e-11
4.30868e-11
3.99997e-11
2.34783e-11
7.85728e-12
7.47744e-13
-7.22598e-17
-0.0276467
0.0237682
-0.0275639
-0.275476
1.84661
5.15865
5.6044
3.22609
0.457469
-1.02148
-1.23662
-0.712522
-0.332608
-0.0804448
0.00691088
0.018104
0.0297867
0.0337495
0.0268512
0.0148804
0.0118379
0.00842007
-0.00145542
-0.00672269
0.0012925
0.0108005
0.00811625
-0.0070118
-0.0164162
-0.0116968
-0.00146538
0.00854084
0.0187554
0.0221
0.0174424
0.00899969
0.00236659
0.000105481
-1.67567e-05
-2.66889e-05
-1.59323e-05
-4.50716e-06
-2.4111e-07
9.46353e-13
3.48465e-11
3.68388e-11
2.28752e-11
8.09216e-12
9.1587e-13
-6.90257e-17
-0.00542439
-0.0310795
0.027569
-0.0275639
-0.227771
0.778008
2.20142
2.5982
1.63551
0.395304
-0.0551002
-0.250777
-0.182482
-0.0878414
-0.0561324
-0.0490799
-0.0310328
-0.00920514
-0.00505211
-0.00508012
0.000433194
0.00222969
-0.00400749
-0.00705867
0.0018793
0.0118565
0.00923229
-0.00605071
-0.0156477
-0.011159
-0.00112195
0.00874314
0.0188573
0.0221457
0.0174599
0.0090042
0.00236788
0.00010571
-1.67363e-05
-2.66942e-05
-1.59366e-05
-4.50799e-06
-2.41319e-07
1.2028e-11
3.86851e-11
3.71966e-11
2.2605e-11
8.06085e-12
9.16433e-13
-7.78205e-17
0.00689536
0.00828261
-0.0310794
0.0237682
0.0428674
-0.140311
-0.251479
0.0314723
0.481332
0.512985
0.222934
0.023564
-0.0150743
0.0104939
0.00508879
-0.019322
-0.0157313
-0.00503411
-0.00647836
-0.00845367
-0.00371924
-0.00174277
-0.00707117
-0.0093648
0.000284777
0.0108578
0.00863245
-0.00635658
-0.0157702
-0.0111831
-0.00109679
0.00877939
0.0188884
0.022167
0.0174708
0.00900877
0.0023693
0.000105822
-1.67126e-05
-2.6683e-05
-1.59343e-05
-4.50948e-06
-2.41762e-07
1.20408e-11
4.03871e-11
3.83304e-11
2.29687e-11
8.0253e-12
8.66385e-13
-7.87512e-17
-0.00113713
0.00689536
-0.00542439
-0.0276466
0.0394074
0.0581078
-0.114189
-0.259382
-0.101865
0.133393
0.110835
-0.00605255
-0.0178807
0.0236189
0.0138646
-0.00978076
-0.0072089
0.00129835
-0.00176116
-0.00523004
-0.00193057
-0.00078805
-0.0066751
-0.00931786
0.000188371
0.0106945
0.00846037
-0.00650376
-0.0158865
-0.0112641
-0.00114843
0.00874896
0.018873
0.0221601
0.0174681
0.00900803
0.00236906
0.000105776
-1.6717e-05
-2.6681e-05
-1.59326e-05
-4.50902e-06
-2.41692e-07
9.8679e-12
3.85735e-11
3.74744e-11
2.27615e-11
8.03489e-12
8.86819e-13
-7.76426e-17
)
;

boundaryField
{
    movingWall
    {
        type            zeroGradient;
    }
    fixedWalls
    {
        type            zeroGradient;
    }
    frontAndBack
    {
        type            empty;
    }
}

