/*--------------------------------*- C++ -*----------------------------------*\
| =========                 |                                                 |
| \\      /  F ield         | OpenFOAM: The Open Source CFD Toolbox           |
|  \\    /   O peration     | Version:  v2006                                 |
|   \\  /    A nd           | Website:  www.openfoam.com                      |
|    \\/     M anipulation  |                                                 |
\*---------------------------------------------------------------------------*/
FoamFile
{
    version     2.0;
    format      ascii;
    class       volScalarField;
    location    "0";
    object      shifted_f;
}
// * * * * * * * * * * * * * * * * * * * * * * * * * * * * * * * * * * * * * //

dimensions      [0 0 0 0 0 0 0];


internalField   nonuniform List<scalar> 
2500
(
2.32665e-15
-2.14302e-21
2.32664e-15
-3.48997e-15
-4.28497e-21
-2.1353e-21
0
8.72919e-21
2.31413e-15
9.13455e-21
0
2.1627e-35
0
1.12822e-14
1.77916e-14
0
-1.59282e-21
1.32686e-14
-3.78096e-22
-1.0899e-36
-2.89813e-13
0
3.20714e-22
-1.61234e-23
-1.47252e-22
-1.1001e-22
2.77279e-12
1.93186e-23
2.00913e-23
1.13219e-24
0
-9.9501e-14
-2.02823e-23
-1.52854e-23
-1.00148e-23
-5.9093e-24
-3.20443e-24
-1.61735e-24
0
0
-1.45178e-25
-5.84699e-26
0
-8.22563e-27
-2.89295e-27
-9.83042e-28
3.1612e-19
-1.08612e-28
-3.71233e-29
-1.34339e-29
0
2.72054e-35
-2.35687e-21
3.64123e-15
2.20385e-14
-1.45294e-14
0
-1.4886e-14
0
2.1129e-20
2.80577e-14
0
0
-2.53921e-34
0
-1.39132e-34
3.20164e-15
0
-2.46014e-13
-5.40477e-14
0
1.44002e-12
5.52592e-13
9.88589e-23
-6.47758e-12
-5.26851e-12
5.18839e-12
4.0606e-12
0
4.20059e-12
1.16334e-12
-3.47228e-13
-1.73097e-12
-1.44927e-12
3.08243e-43
-2.90708e-13
-6.32684e-14
2.58874e-14
0
0
-2.11901e-47
0
-1.28242e-16
-2.2244e-17
0
-1.39629e-18
-5.58465e-52
-8.87281e-53
-2.09833e-19
-1.47943e-19
-1.97855e-20
-1.97855e-20
-3.07303e-14
7.68257e-15
4.68605e-14
0
0
4.06872e-20
-3.24892e-14
4.79741e-20
5.64001e-14
-6.15018e-21
5.47021e-21
1.00732e-13
-1.23799e-33
-1.28401e-13
8.69732e-20
-4.58779e-13
-7.07212e-21
0
-7.85643e-35
0
7.55395e-11
2.32407e-10
0
0
-2.31343e-10
0
2.47879e-11
2.49962e-22
0
0
0
0
1.94749e-42
0
0
0
0
0
-1.20129e-24
4.003e-46
1.25283e-24
7.85301e-49
0
0
0
0
2.36192e-27
0
-3.94884e-20
-3.94884e-20
-9.8721e-21
-3.62479e-14
-2.47068e-14
0
-3.88229e-20
8.21656e-20
0
0
8.60046e-14
-2.42618e-21
3.38027e-13
1.68632e-13
1.41211e-20
-2.61055e-20
2.1398e-19
-5.14726e-20
-2.19481e-20
1.79728e-20
0
0
-6.60413e-20
-5.31692e-21
-1.31347e-20
0
-3.84514e-10
2.25595e-21
0
9.66175e-22
-9.66144e-23
0
-5.54196e-22
-4.11444e-22
0
-1.4139e-22
2.10042e-12
0
-1.82237e-13
-5.66787e-24
0
-7.22121e-25
0
0
-2.10452e-17
0
-1.90124e-27
-1.05028e-27
0
-3.93432e-28
0
-1.86624e-20
-5.59872e-20
1.35368e-14
-2.77387e-14
-5.38165e-14
0
0
0
0
9.57407e-14
2.26241e-20
4.08667e-13
1.97064e-13
0
0
5.05205e-19
5.12359e-12
0
0
0
0
5.48738e-10
0
0
0
-7.73181e-10
0
0
0
0
1.16824e-09
0
0
1.11324e-21
0
-1.41843e-22
-5.68222e-13
9.58691e-13
0
0
1.54498e-44
1.52269e-24
0
0
0
0
0
0
0
0
1.79906e-31
-9.97512e-20
1.21297e-10
-1.34818e-19
0
0
1.62018e-10
1.62947e-10
0
0
0
0
0
0
0
0
0
0
-4.75016e-10
2.99579e-32
0
-4.95498e-19
0
0
0
8.3091e-10
0
0
5.42769e-09
0
-1.07514e-09
0
0
0
0
0
0
0
0
0
-1.94241e-15
0
0
3.92071e-18
0
0
0
0
0
0
3.7665e-31
-7.54292e-31
1.97951e-09
1.31981e-09
0
0
0
2.64149e-09
0
0
0
0
0
0
0
0
1.69389e-18
0
0
0
0
0
-6.65679e-08
0
0
6.15336e-08
0
0
0
0
0
0
0
0
0
0
0
0
0
0
0
-1.75402e-23
0
0
0
0
0
0
0
6.87124e-19
6.82467e-30
6.87124e-19
7.20205e-09
7.31448e-19
9.60419e-09
0
0
9.59519e-09
0
0
0
0
0
0
0
0
0
0
0
8.11321e-31
0
0
-2.19933e-07
0
0
0
0
0
0
0
0
0
0
0
0
0
0
0
0
0
0
0
0
0
0
0
0
0
0
0
-4.06468e-08
-1.21834e-19
1.52426e-08
-4.06479e-08
0
-4.06634e-08
0
2.02893e-08
1.27742e-17
-4.08711e-08
0
0
0
0
0
0
-8.64387e-08
0
0
-3.47513e-08
0
0
-9.17372e-07
0
0
5.26563e-07
0
4.94205e-08
0
0
0
0
0
0
0
0
8.65669e-12
0
0
0
0
0
0
0
0
-2.46381e-16
0
0
2.56474e-16
-1.06871e-07
2.18954e-28
-1.06871e-07
2.00382e-08
1.33588e-08
-2.67281e-08
0
2.67184e-08
2.66513e-08
0
0
0
0
-1.02422e-07
8.75522e-28
-1.18847e-07
0
-1.10617e-07
0
0
-2.11757e-07
0
-5.52051e-07
0
0
0
7.16159e-07
0
0
0
0
-3.47667e-07
0
0
-1.91164e-09
0
0
0
6.69898e-12
0
0
3.54156e-14
-3.78727e-22
0
0
-3.88472e-15
0
0
0
0
0
1.39376e-18
1.39376e-18
9.0663e-09
1.45139e-07
0
0
0
-3.68257e-08
1.45347e-07
6.88344e-08
0
0
0
0
6.37248e-15
0
2.81634e-07
0
0
7.32293e-29
0
0
8.55258e-06
0
0
0
0
0
4.1809e-18
0
0
1.66074e-19
0
0
-1.57371e-20
0
0
0
0
0
0
-1.92685e-22
0
0
0
0
0
0
0
0
1.92848e-27
1.16387e-15
-1.01804e-06
-2.03628e-06
0
0
0
-1.36239e-06
0
0
0
0
0
0
0
0
1.83364e-27
0
0
2.68177e-28
0
1.30531e-14
0
0
0
-7.47901e-05
0
0
0
0
2.56871e-33
0
0
0
0
0
0
0
0
0
0
0
0
0
0
0
0
0
0
0
9.12031e-27
-2.19461e-26
-4.06938e-06
2.17045e-05
0
0
-1.67738e-15
-5.44092e-06
0
0
0
0
0
0
0
0
2.71631e-05
0
0
2.39766e-06
0
0
8.9342e-05
0
-5.18957e-05
-0.000215682
0
0
0
0
0
0
0
0
0.00167619
0
0
0
0.000138198
0
0
4.61896e-12
0
0
0
0
-4.55579e-14
-1.71092e-13
-6.25404e-14
-1.55823e-13
4.05423e-26
-9.73893e-15
-9.69475e-06
-6.46339e-06
0
0
-1.29454e-05
-1.29578e-05
-1.90904e-13
0
0
0
0
0
0
0
0.000127642
9.84643e-12
0
1.41909e-05
0
0
0.00018946
0
0
-0.000455158
0
0
0
0
0
0
0
-1.13331e-18
0
0
0
0
0.000347043
0
0
0
0
0
0
0
0
0
0
-2.6891e-13
1.68913e-25
-1.68069e-14
-1.72588e-05
1.15062e-05
-7.1135e-14
0
-4.99862e-13
0
0
8.3347e-25
2.62597e-12
9.45063e-05
4.58284e-05
0
0
5.53253e-11
0
5.98867e-11
-7.78717e-26
3.11829e-05
0.000104297
-1.27353e-11
0.000638869
-9.51011e-14
0
0
0
-6.52107e-15
0
0
0
0
-2.54448e-18
0
0
-1.29537e-18
0
0
0
0
0
7.09357e-11
5.98474e-11
0
0
5.68032e-22
0
0
0
0
6.64701e-25
-1.96518e-14
-2.44783e-05
-1.63193e-05
-3.26224e-05
0
-3.26896e-05
-3.27115e-05
-1.1187e-12
0
0
0
0
0
0
0
0
0
0
9.41118e-05
0
0
0.000447138
0
0
-0.00109897
0
0
0
0
0
0
0
0
0
0
0
0
0.00104186
0
0
0
0
0
0
0
0
0
0
0
2.5921e-24
-1.72147e-14
-2.81645e-05
1.87769e-05
-3.75341e-05
0
0
-3.76411e-05
0
0
0
0
0
0
0
0
0
0
0
5.1904e-05
0
0
0.000526948
0
0
-0.00133986
0
0
0
0
0
0
0
0
0
0
0
0
0.00138334
0
0
0
0
0
0
0
0
0
0
-1.85888e-22
0
9.88678e-12
-2.62421e-05
1.74954e-05
0
0
2.2886e-10
0
3.37673e-10
0
0
0
6.93096e-05
0
0
-9.95622e-09
-1.07539e-22
0
0
3.63612e-05
0.000190277
3.10532e-09
0.00105849
4.5892e-26
0
1.06399e-26
3.86541e-27
0
0
0
0.0264747
0.0341479
0
0
0
-5.0871e-18
0.0105647
0
0
0
0
1.22074e-19
-5.23578e-08
-2.43419e-08
0
0
0
0
0
0
7.24322e-23
-1.09003e-05
-1.63526e-05
1.0901e-05
0
0
0
-2.18897e-05
0
0
0
9.12028e-05
4.3306e-05
0
0
-1.50238e-07
0
8.18305e-05
0
-4.35225e-06
0
1.27062e-08
0
0
0
-0.00127955
0
0
0
0
0
0
0
0
0
0
0
0
0
0
0
2.59917e-19
0
-5.72339e-08
0
0
3.62518e-39
4.67147e-11
6.92374e-12
0
8.77007e-08
5.4813e-09
-2.79762e-06
-1.85863e-06
0
9.08285e-08
0
-3.78197e-06
2.68775e-08
0
0
1.77134e-05
0
0
0
2.35143e-05
-3.18716e-07
1.94309e-05
0
-5.08263e-05
0
0.00015403
0
0
-0.000569776
-0.000922487
0
0
0
-1.87028e-14
0
0
0
0
0.0100417
0
0
0
0
0
5.71325e-19
0
-3.1989e-07
-8.67334e-08
0
0
3.13482e-10
6.94097e-11
0
2.04324e-07
2.04324e-07
1.27703e-08
-2.5246e-06
-5.04876e-06
0
0
1.01213e-07
0
0
-1.14281e-19
0
0
-1.92964e-05
0
0
-4.28425e-05
-3.28806e-07
1.65058e-06
1.1731e-06
-7.62267e-05
-8.38347e-05
2.40458e-08
0.000181054
0
0
0
0
-0.00148182
0
0
0
0
0
0
0
-5.58315e-16
0
0
9.41565e-18
0
0
3.96526e-19
-4.26049e-07
0
0
0
0
0
-9.30655e-12
0
4.0234e-20
1.64601e-08
1.04923e-05
-7.01625e-06
0
0
0
1.40278e-05
0
0
0
0
0
0
0
0
1.44084e-05
0
0
-6.70105e-05
0
0
-5.59013e-06
0
0
-9.63328e-05
0
0
0
0
0
0
0
0
0.00226966
0
0
0
0.00018647
0
0
0
0
0
0
0
0
0
0
0
2.80286e-19
-7.63231e-08
6.73364e-06
-4.38492e-06
0
0
8.78952e-06
8.78583e-06
-8.42719e-07
0
0
0
0
0
0
0
0.000155145
0
0
-0.000912416
0
0
-0.000556543
0
0
0.000121733
0
0
0
0
0
0
0
0
0
0
0
0
-0.000132991
0
0
0
0
0
0
0
0
0
0
-2.93973e-17
1.83733e-18
-1.12779e-06
2.54909e-06
1.80999e-07
0
0
3.71422e-07
3.84288e-07
0
0
0
0
0
0
0
0
0.000217431
0
0
0
0
0
0
7.03891e-23
0
0.000171092
0
1.70757e-24
0
0
0
0
3.87835e-27
-0.00301504
0
0
0
0
8.41226e-31
0
0
-1.21806e-17
0
1.85632e-07
0
0
-7.77823e-10
-2.61223e-10
3.73926e-38
0
2.22552e-17
-3.87567e-06
5.15605e-06
-1.76905e-06
0
0
0
-3.52266e-06
0
0
0
0
0
0
0
0
0
0
0
2.54177e-05
0
0
-0.00640692
0
0
0.000115252
0
0
0
0
0
0
0
0
0
0
0
0
-0.00014958
0
0
0
0
0
0
0
0
0
0
0
5.75817e-17
-8.23485e-06
1.57538e-05
5.49715e-07
0
0
0
-1.09582e-06
0
0
0
-0.0003236
0
0
0
0.00104497
0.0012468
-0.00134207
-0.00982493
8.74693e-06
0
-0.013445
0
0
-0.0118371
3.18511e-05
0
0
0
-5.02762e-11
0
0
0
0
-0.000789458
0
0
-0.000103792
0
0
0
0
2.96382e-08
0
0
0
2.95555e-35
1.06311e-10
4.21476e-11
-3.63911e-05
-0.000479818
-1.27199e-05
2.90105e-05
2.27457e-06
-4.55171e-06
-3.63977e-05
4.53871e-06
0
0
-3.65812e-05
-3.57698e-05
-0.000542607
-3.7484e-05
0
-3.58427e-05
0.00148448
-3.22411e-05
-0.00223865
-0.0148844
-1.92612e-05
0
-0.0203057
-0.0187299
0
-0.0187732
-1.54536e-05
-0.00338469
0
0.000233724
-7.01333e-11
0
0.00038136
0
0
0.000871203
0.00069692
0
0.000130242
0.00010821
0
1.02266e-06
-5.70022e-07
-3.82584e-07
0
-2.3628e-08
0
8.8072e-35
5.42325e-10
1.03639e-10
0
-0.000539379
-1.48392e-05
3.59179e-05
-6.45274e-05
0
0
0
8.06296e-06
0
0
0
0
0
0
0
0
0.00158322
-0.00287597
0
-3.41484e-05
0
-0.0509467
-0.0237598
0
0
-1.5623e-05
0
-0.00111309
0
0
0
0
0
0
0.000894274
0
0
0
0
0
0
0
-4.3987e-07
0
0
8.88657e-10
2.47643e-34
0
0
0
-2.43013e-12
1.26487e-05
-0.000472655
-5.49401e-05
0
0
0
0
-6.9949e-05
0
0
0
-0.001474
0
0
0
0.000798995
0
0
3.53727e-18
-4.00154e-05
0
0
0
0
0
0
0
0
0
0
0
0.000878832
0
0
0.000490899
0
0
0
0
0
0
0
0
0
0
0
0
0
0
1.09932e-12
-5.35261e-06
1.59789e-05
-3.41459e-06
0
0
6.82312e-06
6.83441e-06
0
0
-0.000118149
0
0
-2.74516e-05
0
0
0
0
0
-2.5284e-05
0
0
-0.0231626
0
0
2.52597e-05
0
0
0
0
0
0
0
0
0
0
0
0
1.55429e-06
0
0
0
0
0
0
0
0
0
0
0
0
2.49717e-06
-9.96291e-08
3.22134e-06
0
0
6.41685e-06
6.42886e-06
0
0
0
0
0
0
0
0
0
0
0
-0.0190351
0
0
0
0
-0.0183431
2.54178e-05
0
0
0
0
0
0
0
0
0
0
0
0
-1.47204e-07
0
0
-1.39045e-07
0
0
0
0
-2.80683e-11
-2.10607e-11
-6.52867e-12
0
0.000132422
5.85578e-06
-6.5315e-06
-3.41857e-06
0
0
6.82872e-06
6.83879e-06
3.32203e-05
0
0
0
0
0
0
0
0.00222794
0
0
-2.64011e-05
0
0
-0.00919263
0
0
1.59554e-05
0
0
0
0
0
0
0
0
0
0
0
0
0
0
0
0
0
0
0
0
0
0
0
0
-5.58759e-05
-3.46027e-06
-6.33059e-05
-3.49863e-06
0
0
6.98956e-06
6.99809e-06
1.47706e-05
0
0
0
0
0
0
0
0.000786712
-5.89747e-05
0
0
0
0
-0.00290874
0
0
9.29981e-06
1.95918e-06
0
0
0
3.88628e-05
0
0
0.000282173
0
0.000181699
0
0
1.39824e-05
0
-1.9674e-07
-9.47791e-08
0
0
0
1.89153e-11
1.29903e-11
6.42101e-12
1.96809e-12
0
-6.73508e-05
-4.63009e-07
6.51634e-06
1.65702e-06
-9.04239e-06
0
-5.30532e-05
0
0
-0.000138758
0
0
0
0
0
0
0.000238802
0
0
-2.61219e-05
0
0
0.00158322
0
0.00125667
1.05013e-05
0.000434861
7.01342e-05
0
0
0
0
0
0.00037126
0.000319987
0.000225707
0
0
1.41842e-05
0
0
-1.72897e-07
0
0
0
1.02466e-11
8.25712e-12
3.67003e-12
8.88466e-13
0
3.33281e-07
4.16522e-06
5.92096e-06
-1.65087e-05
0
-0.000173207
6.34679e-06
6.3562e-06
0
0
0
0
0
-2.57749e-05
0
0
0
0
0
-2.44251e-05
0
0.0018661
0.00178079
0
0.00208994
0
0
0
0
0
0
0
0
0
0.000296022
0.000206204
0
0
0
0
1.0662e-27
0
0
0
0
0
0
8.62835e-13
0
0
-3.83948e-06
-5.24168e-05
-2.3159e-05
-3.24764e-06
8.06221e-06
0
0
0
0
0
0
0.0167119
0
0
0
0
0
-0.000633528
0
-2.48727e-05
-2.66091e-05
0
0.00112943
0.000885088
0
1.61221e-05
0.000183389
0
0
0
0
0
0
0
0
0.000175462
0
0
0
0
0
0
0
0
0
0
-1.64596e-13
-2.56801e-13
-9.28947e-14
0
0.00067614
1.80031e-06
0
-0.000155602
-0.951047
-2.95325
-4.10452
-4.20462
-3.25358
-1.25138
-0.10011
0
0
0
0
0.00164832
-0.000273505
-0.000221159
-5.58294e-05
-2.60988e-05
0
-9.18211e-05
-7.44832e-05
0
0
1.46339e-05
-8.76166e-05
0
0
0
0
0
0
0
0.000242265
0.000171424
0
0
0
0
0
-1.62512e-07
-7.58994e-08
0
0
-9.48519e-13
1.20407e-31
-9.36124e-14
5.10108e-14
0
-4.71427e-05
2.31179e-06
0
-2.34685
-5.15088
-5.42024
-7.01069
-7.47674
-6.76649
-6.70537
-3.22975
-0.20022
0
0
0
0
0
0
0
0
0
0
0
0
0
1.34511e-05
0
0
0
0
0
0
0
0
0
0
0
0
1.10982e-05
0
0
0
0
0
0
0
0
0
0
-5.2887e-05
-5.63164e-05
-0.000196679
-0.0749983
-2.63308
-5.29827
-2.63549
-1.4754
-2.2133
-0.378454
-3.95404
-7.31322
-3.23122
-0.10011
-2.68636e-05
0
-3.37924e-05
0.000348792
0.000379436
0
0
0
-0.00062162
-0.000710963
0
0
1.37636e-05
-4.77072e-06
-0.000149358
-0.000113152
-7.98666e-05
3.5428e-05
0.000182327
0.000289062
0.000618007
1.10251e-22
0.000189011
0.000106224
4.46634e-05
0
6.4599e-07
6.03763e-27
0
-7.64547e-08
0
0
1.63511e-12
6.76213e-13
3.60312e-13
1.39177e-13
1.04425e-05
0.000919749
1.59395
0.696813
-1.07773
1.01512
2.35432
2.98849
-0.286547
2.05833
5.61871
-3.92781
-6.69987
-1.25229
0
-0.000110963
-0.000174072
0
8.23916e-05
0.000288651
0
0
-0.000485306
0
-0.000420986
0
1.43479e-05
-1.72665e-05
-6.82025e-05
-0.000111301
-8.22422e-05
0
0.000176724
0.00028304
0.000303413
0
0.000185606
0.00010414
0
0
2.78676e-07
0
-3.28377e-07
0
0
0
0
3.34108e-13
2.14434e-13
1.01824e-13
-0.00112056
0.284943
3.48069
2.10306
-3.17783
1.91252
5.70627
1.07124
-4.80084
-5.39544
2.07244
-0.0302835
-6.74379
-3.25357
0
0
0.00830873
0.000308473
5.56976e-05
0
-4.042e-08
0
-0.000142138
-0.000163808
-0.000155955
0
1.43385e-05
-8.9771e-06
0
-0.000111263
-8.2395e-05
2.80491e-05
0
0
0.000297762
0.000258886
0.000182529
0
4.29749e-05
1.07204e-05
0
2.31879e-27
0
0
-2.10629e-08
0
0
0
2.2562e-13
0
0
0.855078
2.98302
2.77413
-4.55033
-3.17225
6.65713
0.371699
-7.71309
-4.72661
0.0281868
-2.13109
-7.4673
-4.20512
0
0
0
0
0
0
2.61177e-05
0
0
0
0
0
1.41144e-05
0
0
0
0
2.92759e-05
0
0
0
0
0
0
0
0
0
0
0
0
0
0
0
0
0
0
0
1.13399
1.45224
1.74007
-2.05595
-6.34915
2.51585
6.22083
0.407897
1.23566
3.42224
-1.27508
-6.94114
-4.10514
0.0226433
0
-2.53621e-05
-5.13076e-05
3.0773e-05
0
-2.57154e-05
0
-0.000276383
0
0
0
1.40907e-05
0
0
0
2.8458e-07
0
0
0
0
0
0
0
0
1.08986e-05
0
0
0
-7.6771e-08
-2.11341e-08
0
0
0
0
0
0
0.850309
0.718815
-1.40721
0.120795
-0.932538
-3.26452
2.56309
6.64424
5.99524
2.88869
-2.36124
-5.39393
-2.9537
0
0
0
-0.000102646
0
0
-2.56674e-05
0
0
-0.00029932
0
0
1.4164e-05
0
-7.32046e-05
0
0
0
0
0
0
0
0
0
0
1.08737e-05
0
0
-1.62627e-07
0
0
0
4.65569e-13
0
0
0
0
0.283386
1.21172
-1.67543
-2.15649
2.77696
-0.876976
-6.15804
-2.83696
2.31161
1.52403
-5.11268
-5.18064
-0.95119
0
0
-5.08164e-05
-5.3098e-05
0.000122079
-5.46852e-05
-2.56904e-05
0
0
-0.000262018
0
8.81202e-06
1.4175e-05
-2.84028e-06
0
-0.000112287
-8.16879e-05
2.95727e-05
0.000174207
0.000279707
0
0.000260943
0.00018398
0.000103341
0
1.08474e-05
5.77409e-07
-2.13913e-07
-3.25351e-07
0
-2.11093e-08
-1.29066e-09
8.4755e-13
3.78668e-13
2.41955e-13
1.15557e-13
0
0
0.847943
1.26109
-2.1315
-2.33542
0.556188
-1.74871
-4.17965
-2.9256
-0.775423
-2.49847
-2.34564
-0.000143287
0
0
0
-1.92201e-05
0
0
-2.57048e-05
0
0
-0.000260362
0
0
1.41549e-05
0
-7.22923e-05
0
0
0
0
0
0.000600546
0
0
0
0
0
0
-2.13858e-07
0
0
0
0
8.61362e-13
0
0
0
0
1.93845e-06
1.10808e-06
1.12703
1.24398
-1.58352
-1.4126
1.80857
2.90119
2.35166
0.821099
-0.046079
0
0
0
0
8.03871e-05
-3.35802e-05
0
0
3.95692e-09
-2.7316e-05
-0.000203565
-0.000302844
-0.000444945
0
1.41525e-05
0
0
0
0
0
0
0
0
0
0.000184098
0
0
0
0
-2.13773e-07
-1.62614e-07
0
-2.1119e-08
-1.29424e-09
0
3.9542e-13
1.58219e-19
0
0
8.51785e-07
2.20148e-06
-9.22959e-07
0.813169
1.22102
0.576046
1.41213
2.90275
3.42333
1.58987
0
0
0
0
0
0
0
0
0
-2.56973e-05
0
0
-0.000271212
0
0
1.41555e-05
0
0
0
0
2.99007e-05
0
0
0
0
0
0
0
0
0
0
0
0
0
0
5.96691e-19
0
0
0
0
1.15172e-05
2.20719e-06
1.94032e-07
9.97034e-06
0.278751
0.838159
1.08969
0.794683
0.27962
-0.00103642
0
0.00113901
0
0
0
-7.56927e-05
-4.00829e-05
3.00434e-05
0.000159961
2.38112e-08
0
-0.000202381
0
0
-0.000254713
1.41555e-05
-1.85545e-17
0
0
4.08705e-07
0
0
0
0
0
0
0
4.34058e-05
0
0
0
0
-7.68312e-08
0
0
-2.84596e-31
-4.16316e-32
0
-8.12552e-34
0
1.36225e-05
2.20719e-06
2.27544e-06
7.19358e-06
0
0
6.62621e-06
0
0
0
0
0.000904843
0
0
0
-6.46609e-05
-3.39605e-05
3.1124e-05
0.000159904
0
0
-0.000202381
-0.000301952
0
-0.000254713
1.41555e-05
0
0
0
4.08705e-07
0
0
0
0
0
0
0
4.34058e-05
0
0
0
0
-7.68312e-08
0
0
0
-4.3524e-32
0
0
)
;

boundaryField
{
    movingWall
    {
        type            zeroGradient;
    }
    fixedWalls
    {
        type            zeroGradient;
    }
    frontAndBack
    {
        type            empty;
    }
}

