/*--------------------------------*- C++ -*----------------------------------*\
| =========                 |                                                 |
| \\      /  F ield         | OpenFOAM: The Open Source CFD Toolbox           |
|  \\    /   O peration     | Version:  v2006                                 |
|   \\  /    A nd           | Website:  www.openfoam.com                      |
|    \\/     M anipulation  |                                                 |
\*---------------------------------------------------------------------------*/
FoamFile
{
    version     2.0;
    format      ascii;
    class       volScalarField;
    location    "0";
    object      shifted_f;
}
// * * * * * * * * * * * * * * * * * * * * * * * * * * * * * * * * * * * * * //

dimensions      [0 0 0 0 0 0 0];


internalField   nonuniform List<scalar> 
2500
(
0.000394642
0.000394654
0.00039468
0.000394657
0.000394702
0.000394668
0.000394668
0.000394713
0.000394668
0.000394717
0.000394743
0.000394709
0.00039475
0.000394743
0.000394724
0.000394773
0.000394788
0.000394825
0.000394799
0.000394791
0.000394855
0.000394825
0.000394862
0.000394873
0.000394922
0.000394858
0.000394937
0.000394877
0.00039497
0.000394974
0.000394933
0.000394974
0.000394996
0.000395026
0.000395015
0.000395063
0.000395
0.000394996
0.000395115
0.000395078
0.000395056
0.000395101
0.000395034
0.00039506
0.000395115
0.000395108
0.000395115
0.000395194
0.00039519
0.000395156
0.000395186
0.000395175
0.000395257
0.000395209
0.000395223
0.000395261
0.000395309
0.000395272
0.000395261
0.000395268
0.000395324
0.000395346
0.000395324
0.00039535
0.000401054
0.000401009
0.000401057
0.000401061
0.000401028
0.00040105
0.000401132
0.00040108
0.000401109
0.000401087
0.000401098
0.000401057
0.000401009
0.00040108
0.000401024
0.000401054
0.000401046
0.000401068
0.000401039
0.00040108
0.000401031
0.000401083
0.000401054
0.000401147
0.000401102
0.000401106
0.000401039
0.000401072
0.000401024
0.000401039
0.000401098
0.000401031
0.000401065
0.000401009
0.000401054
0.000401016
0.00040105
0.00040102
0.000401028
0.000401046
0.000401042
0.000401068
0.000401005
0.000401039
0.000401001
0.000401083
0.000401057
0.000401005
0.000401039
0.000401068
0.000401054
0.000401031
0.00040108
0.000401076
0.000401057
0.000401098
0.000401042
0.000400979
0.000401016
0.000401024
0.000401024
0.000401031
0.000400979
0.000401013
0.000401057
0.000401046
0.000401024
0.000401016
0.00040102
0.000401046
0.000401001
0.000401005
0.00040108
0.000400968
0.000400983
0.000401009
0.000400987
0.000401031
0.000401046
0.000401009
0.000401009
0.000401031
0.000401009
0.000401009
0.000400983
0.000401024
0.000400998
0.000400998
0.000401039
0.00040102
0.000400998
0.000400972
0.000400994
0.000400957
0.00040096
0.000400931
0.000400979
0.000400994
0.000400968
0.000400983
0.000400949
0.000396773
0.000396784
0.000396807
0.000396751
0.000396814
0.000396807
0.000396792
0.000396751
0.000396807
0.000396725
0.000396732
0.00039674
0.000396784
0.000396781
0.000396699
0.000396669
0.000396699
0.000396658
0.000396673
0.000396643
0.000396673
0.000396669
0.000396658
0.000396635
0.000396688
0.000396628
0.000396624
0.000396635
0.000396658
0.000396594
0.000396561
0.000396598
0.000396609
0.000396565
0.000396557
0.000396576
0.000396516
0.000396516
0.000396464
0.000396531
0.000396494
0.000396445
0.000396438
0.000396457
0.000396434
0.000396442
0.000396352
0.000396423
0.000396352
0.000396401
0.000396393
0.000396367
0.000396341
0.000396296
0.000396352
0.000396315
0.000396315
0.000396326
0.000396281
0.000396233
0.000396285
0.000396241
0.000396185
0.000396185
0.000396218
0.000396226
0.000396211
0.000396203
0.000396173
0.00039614
0.000396144
0.000396136
0.000396095
0.000396114
0.000396155
0.000396024
0.000395991
0.000396017
0.000396032
0.000395987
0.000396077
0.00039598
0.000395983
0.000395939
0.000395898
0.000395924
0.00039589
0.000395875
0.000395875
0.000395805
0.000395745
0.000395719
0.000395734
0.000395712
0.000395693
0.000395667
0.000395719
0.000395633
0.000395644
0.000395637
0.000395566
0.000376169
0.000376105
0.000376154
0.000376146
0.000376109
0.000376124
0.000376124
0.000376116
0.000376087
0.000376109
0.000376116
0.000376079
0.000376105
0.00037615
0.000376023
0.000376049
0.000376128
0.000376057
0.000376057
0.000376102
0.000376049
0.000376105
0.000376042
0.000376012
0.000375979
0.000376061
0.000376046
0.000376035
0.000376064
0.00037602
0.000375949
0.000375934
0.000375956
0.000375941
0.000375923
0.000375912
0.000375915
0.000375923
0.000375889
0.000375893
0.00037593
0.00037593
0.000375923
0.000375878
0.000375856
0.000375863
0.000375807
0.000375833
0.000375804
0.000375785
0.000375789
0.00037571
0.000375796
0.000375733
0.000375737
0.000375751
0.000375684
0.00037571
0.000375696
0.000375684
0.000375662
0.000375666
0.000375614
0.000375587
0.000375655
0.00037561
0.000375569
0.000375543
0.000375584
0.000375543
0.000375565
0.000375502
0.000375491
0.000375532
0.000375498
0.000375412
0.00037539
0.000375424
0.000375386
0.000375375
0.000375379
0.000375383
0.000375357
0.00037536
0.000375357
0.000375357
0.000375386
0.000375312
0.000375345
0.000375282
0.000375297
0.000375204
0.000375293
0.000375234
0.000375226
0.000375174
0.000375163
0.000375167
0.000375129
0.000375148
0.000375055
0.000361457
0.000361469
0.000361446
0.000361472
0.000361439
0.000361487
0.000361528
0.000361465
0.000361506
0.000361491
0.000361469
0.000361405
0.000361413
0.000361379
0.000361416
0.000361398
0.000361402
0.000361372
0.000361394
0.000361357
0.000361376
0.000361346
0.000361376
0.000361335
0.000361353
0.000361331
0.000361353
0.00036129
0.000361323
0.000361316
0.000361338
0.00036132
0.00036129
0.000361342
0.000361249
0.000361297
0.000361316
0.000361245
0.000361253
0.000361249
0.000361245
0.000361256
0.000361178
0.000361215
0.000361193
0.000361204
0.000361193
0.000361208
0.000361174
0.000361133
0.000361163
0.000361118
0.000361152
0.000361148
0.000361092
0.000361126
0.000361074
0.00036107
0.000361104
0.000361044
0.000360996
0.00036101
0.000361066
0.000360973
0.000361007
0.000360999
0.000360932
0.000360969
0.000360962
0.000360936
0.000360932
0.000360992
0.000360947
0.000360981
0.000360899
0.000360895
0.00036088
0.000360854
0.000360854
0.000360854
0.000360798
0.000360806
0.000360783
0.000360791
0.000360753
0.00036075
0.000360798
0.000360746
0.000360716
0.000360738
0.000360686
0.000360727
0.00036069
0.000360668
0.000360694
0.000360671
0.000360645
0.000360608
0.000360586
0.000360593
0.00036056
0.00034241
0.000342425
0.000342425
0.000342399
0.000342373
0.000342369
0.000342406
0.00034235
0.000342321
0.000342295
0.000342354
0.000342313
0.000342254
0.000342298
0.000342332
0.000342268
0.000342228
0.000342179
0.000342287
0.000342153
0.000342187
0.000342246
0.000342276
0.000342224
0.000342224
0.000342194
0.000342179
0.000342194
0.000342164
0.000342172
0.00034216
0.000342116
0.000342097
0.000342134
0.000342097
0.000342097
0.000342093
0.000342041
0.000342071
0.000342019
0.000342071
0.000342052
0.000342034
0.000341959
0.000342026
0.000341985
0.000341948
0.000341982
0.000341948
0.000341948
0.000341922
0.000341948
0.000341933
0.000341907
0.000341889
0.000341918
0.000341862
0.000341836
0.000341859
0.000341803
0.000341799
0.000341807
0.000341792
0.000341799
0.00034171
0.000341725
0.000341754
0.000341762
0.00034168
0.000341751
0.00034168
0.000341628
0.000341684
0.000341639
0.000341605
0.000341598
0.000341564
0.000341598
0.000341568
0.000341505
0.000341509
0.000341486
0.000341468
0.000341482
0.000341501
0.00034146
0.000341449
0.000341434
0.000341449
0.000341408
0.000341363
0.000341319
0.000341374
0.000341304
0.000341289
0.00034133
0.000341337
0.000341225
0.000341285
0.0003413
0.000341225
0.000318263
0.000318296
0.000318229
0.000318278
0.000318225
0.000318237
0.000318237
0.000318207
0.000318207
0.000318203
0.000318162
0.000318158
0.000318129
0.000318088
0.000318095
0.000318106
0.000318095
0.000318039
0.000318084
0.000318065
0.000318021
0.000318013
0.000318024
0.000318002
0.000317965
0.000317995
0.000317913
0.000317905
0.00031789
0.000317864
0.00031786
0.000317849
0.000317831
0.000317808
0.00031789
0.000317775
0.000317823
0.000317808
0.000317771
0.000317771
0.000317782
0.000317745
0.00031779
0.00031776
0.000317771
0.000317696
0.000317723
0.000317652
0.000317693
0.000317704
0.000317629
0.000317674
0.000317663
0.000317648
0.000317566
0.000317629
0.000317622
0.000317592
0.00031754
0.000317547
0.000317566
0.000317477
0.000317503
0.000317484
0.000317495
0.000317432
0.000317469
0.000317484
0.000317454
0.000317421
0.000317376
0.000317343
0.000317354
0.000317324
0.000317298
0.000317354
0.000317324
0.000317346
0.000317287
0.000317287
0.000317279
0.000317246
0.000317238
0.000317227
0.000317194
0.000317186
0.000317167
0.000317115
0.000317141
0.0003171
0.000317141
0.000317141
0.0003171
0.000317112
0.000317112
0.000317063
0.00031703
0.000317059
0.000317015
0.000316992
0.000317022
0.000297677
0.000297714
0.000297602
0.000297595
0.000297595
0.00029755
0.000297602
0.000297543
0.000297543
0.000297535
0.000297558
0.000297491
0.000297498
0.000297502
0.000297498
0.000297453
0.00029742
0.000297435
0.000297401
0.000297405
0.000297483
0.000297297
0.00029736
0.000297356
0.000297345
0.000297368
0.000297341
0.000297315
0.00029733
0.000297233
0.000297226
0.000297289
0.000297207
0.000297207
0.000297297
0.000297252
0.000297237
0.000297192
0.000297181
0.000297245
0.000297245
0.000297226
0.000297207
0.00029717
0.000297155
0.0002972
0.000297181
0.000297148
0.000297133
0.000297152
0.000297122
0.00029714
0.000297092
0.000297081
0.000297051
0.000297088
0.000297032
0.000297081
0.000297066
0.000297043
0.000296976
0.000297025
0.000297032
0.000296991
0.00029704
0.000296988
0.000296969
0.000296939
0.000296947
0.000296894
0.000296928
0.000296935
0.000296995
0.000296924
0.000296902
0.000296962
0.000296887
0.000296898
0.000296947
0.000296861
0.000296853
0.000296898
0.000296846
0.000296876
0.000296813
0.000296857
0.000296805
0.000296909
0.000296786
0.000296813
0.000296805
0.000296813
0.000296857
0.00029679
0.000296786
0.000296783
0.000296757
0.000296712
0.00029676
0.000296813
0.00029676
0.000290681
0.000290792
0.000290748
0.000290755
0.000290692
0.00029074
0.000290681
0.000290759
0.000290725
0.000290688
0.000290707
0.000290748
0.000290707
0.000290681
0.000290651
0.000290629
0.000290658
0.000290651
0.000290584
0.000290629
0.000290681
0.000290625
0.000290647
0.000290584
0.000290658
0.000290602
0.00029061
0.00029055
0.000290599
0.000290617
0.000290643
0.000290658
0.00029061
0.000290655
0.000290621
0.000290643
0.000290561
0.000290573
0.000290599
0.000290543
0.000290617
0.000290584
0.000290606
0.000290606
0.000290554
0.000290565
0.000290554
0.000290524
0.000290569
0.00029055
0.00029052
0.000290595
0.000290606
0.000290543
0.000290524
0.000290561
0.000290573
0.000290576
0.000290554
0.000290532
0.000290543
0.000290561
0.000290558
0.000290576
0.000290584
0.000290599
0.000290532
0.000290554
0.000290524
0.000290554
0.000290569
0.00029055
0.000290524
0.00029055
0.000290506
0.000290532
0.000290524
0.000290554
0.000290524
0.000290506
0.000290573
0.000290595
0.000290681
0.000290621
0.000290614
0.000290602
0.000290666
0.000290591
0.000290636
0.000290688
0.000290636
0.00029064
0.000290643
0.000290688
0.000290584
0.000290655
0.000290617
0.000290595
0.000290621
0.000290632
0.000290625
0.000301182
0.000301186
0.000301205
0.000301212
0.000301212
0.000301182
0.000301179
0.000301227
0.000301175
0.000301167
0.000301175
0.000301134
0.00030113
0.000301193
0.00030119
0.000301164
0.000301193
0.000301253
0.000301216
0.000301253
0.000301253
0.000301223
0.00030119
0.000301212
0.000301238
0.000301212
0.000301212
0.000301186
0.000301208
0.000301238
0.000301149
0.00030119
0.000301216
0.000301249
0.000301197
0.000301216
0.000301279
0.000301253
0.000301261
0.000301212
0.000301238
0.000301287
0.000301294
0.000301339
0.000301283
0.00030129
0.00030135
0.000301328
0.000301372
0.000301331
0.000301357
0.000301313
0.000301357
0.000301391
0.000301383
0.000301354
0.000301391
0.000301424
0.000301354
0.000301421
0.00030138
0.000301361
0.000301372
0.000301387
0.000301402
0.000301421
0.000301417
0.000301424
0.000301458
0.000301443
0.000301447
0.000301473
0.000301443
0.000301477
0.000301447
0.000301469
0.000301473
0.000301447
0.000301462
0.00030148
0.000301491
0.000301536
0.000301585
0.000301536
0.000301566
0.000301622
0.000301622
0.000301614
0.000301588
0.000301637
0.000301644
0.000301603
0.000301652
0.000301626
0.00030167
0.000301644
0.000301652
0.000301711
0.000301693
0.000301689
0.000301715
0.000322375
0.000322379
0.00032239
0.000322368
0.000322346
0.000322394
0.000322383
0.000322383
0.000322346
0.000322383
0.00032242
0.000322405
0.000322383
0.000322443
0.000322424
0.000322435
0.000322346
0.000322446
0.00032239
0.000322361
0.000322416
0.000322495
0.000322439
0.00032248
0.000322487
0.000322435
0.000322487
0.00032251
0.000322495
0.000322472
0.000322569
0.000322554
0.000322521
0.00032251
0.000322565
0.000322565
0.00032251
0.000322577
0.00032261
0.000322573
0.000322599
0.000322588
0.00032261
0.000322595
0.000322603
0.000322636
0.000322644
0.000322681
0.000322722
0.000322707
0.000322677
0.000322688
0.00032277
0.000322737
0.000322722
0.000322718
0.000322737
0.000322789
0.000322774
0.000322714
0.000322785
0.000322808
0.000322789
0.000322837
0.000322733
0.000322815
0.000322774
0.000322819
0.000322808
0.000322752
0.000322815
0.000322767
0.000322845
0.000322912
0.000322934
0.000322856
0.000322964
0.000322927
0.000322886
0.000322934
0.000322986
0.000322957
0.000322957
0.000322979
0.000322998
0.000322949
0.000322971
0.000322994
0.000322919
0.000323027
0.000323027
0.000323042
0.00032302
0.000323046
0.000323076
0.000323109
0.000323154
0.000323083
0.000323154
0.00032321
0.000323188
0.000343554
0.000343554
0.000343561
0.000343546
0.000343584
0.000343565
0.00034358
0.000343543
0.000343621
0.000343587
0.000343617
0.000343557
0.000343591
0.000343595
0.000343617
0.000343665
0.000343628
0.000343613
0.000343662
0.000343591
0.000343662
0.000343647
0.000343684
0.00034368
0.000343688
0.000343636
0.00034368
0.000343729
0.000343729
0.000343733
0.000343688
0.000343744
0.000343744
0.000343692
0.000343721
0.000343759
0.000343695
0.000343684
0.000343718
0.000343781
0.000343889
0.000343833
0.000343829
0.000343807
0.000343788
0.000343777
0.000343781
0.000343818
0.000343833
0.000343818
0.000343826
0.000343874
0.000343882
0.000343908
0.000343882
0.000343923
0.000343908
0.000343896
0.00034387
0.000343848
0.000343863
0.000343934
0.000343874
0.000343919
0.000343915
0.0003439
0.000343919
0.000343945
0.000343934
0.000344038
0.000343978
0.000344057
0.000344042
0.000344042
0.000344019
0.000344027
0.000344038
0.000344042
0.000344008
0.000344079
0.000344057
0.000344079
0.000344038
0.000344042
0.000344049
0.000344042
0.000344042
0.000344075
0.000344139
0.000344153
0.000344124
0.000344146
0.000344161
0.000344183
0.000344198
0.000344153
0.000344191
0.000344165
0.000344217
0.000344202
0.000344194
0.000357155
0.000357173
0.000357192
0.000357196
0.000357192
0.000357211
0.000357214
0.000357162
0.00035717
0.000357114
0.000357192
0.00035727
0.000357229
0.000357248
0.000357237
0.000357248
0.000357263
0.000357185
0.000357199
0.000357255
0.000357252
0.000357278
0.000357192
0.000357211
0.000357199
0.000357281
0.000357281
0.000357267
0.000357278
0.000357214
0.000357278
0.000357322
0.0003573
0.000357289
0.000357341
0.000357304
0.000357401
0.000357334
0.000357322
0.000357296
0.000357281
0.000357371
0.000357322
0.000357371
0.00035733
0.000357334
0.000357334
0.000357389
0.000357363
0.000357296
0.000357404
0.000357401
0.000357423
0.000357352
0.000357322
0.000357341
0.000357345
0.00035736
0.000357352
0.000357337
0.000357423
0.000357419
0.000357438
0.000357445
0.000357367
0.000357348
0.000357408
0.000357442
0.000357363
0.000357334
0.000357423
0.000357412
0.000357404
0.000357389
0.000357457
0.000357475
0.000357367
0.000357468
0.000357483
0.00035743
0.000357475
0.000357412
0.000357483
0.000357457
0.00035755
0.000357535
0.00035749
0.000357471
0.000357486
0.000357509
0.000357505
0.000357494
0.000357453
0.000357505
0.000357542
0.000357553
0.000357524
0.000357535
0.000357531
0.00035752
0.000357516
0.000361178
0.000361208
0.000361189
0.000361163
0.000361152
0.000361193
0.000361189
0.000361208
0.000361223
0.000361186
0.000361271
0.000361238
0.000361234
0.000361193
0.000361226
0.000361297
0.000361256
0.000361208
0.000361312
0.000361152
0.000361238
0.000361193
0.0003612
0.000361267
0.000361238
0.000361174
0.000361234
0.000361249
0.00036126
0.000361215
0.000361226
0.000361241
0.000361189
0.000361223
0.000361249
0.000361256
0.000361208
0.000361253
0.000361174
0.00036123
0.000361294
0.000361282
0.000361267
0.000361182
0.000361335
0.000361219
0.000361264
0.000361234
0.00036126
0.000361226
0.000361316
0.00036126
0.000361226
0.000361137
0.000361282
0.000361189
0.000361215
0.000361249
0.000361279
0.000361297
0.00036126
0.00036123
0.000361215
0.000361234
0.000361226
0.000361234
0.000361238
0.000361223
0.000361186
0.000361245
0.00036123
0.000361256
0.000361297
0.000361212
0.000361186
0.000361219
0.000361223
0.000361267
0.00036129
0.000361264
0.000361253
0.000361212
0.000361186
0.000361223
0.000361275
0.000361297
0.000361267
0.000361275
0.00036132
0.000361234
0.000361219
0.000361297
0.000361305
0.000361286
0.00036123
0.000361241
0.000361212
0.0003612
0.000361215
0.000361208
0.000361241
0.000357632
0.000357639
0.000357639
0.000357684
0.000357587
0.000357676
0.000357646
0.000357598
0.000357661
0.000357609
0.000357646
0.000357624
0.000357658
0.000357598
0.000357658
0.000357635
0.000357606
0.00035762
0.000357658
0.000357632
0.00035762
0.000357684
0.000357654
0.000357598
0.000357598
0.000357572
0.000357624
0.000357643
0.000357695
0.000357646
0.00035762
0.000357665
0.00035768
0.000357624
0.000357661
0.000357639
0.00035755
0.000357654
0.000357646
0.000357646
0.000357635
0.000357602
0.000357568
0.000357598
0.000357587
0.000357579
0.000357579
0.000357632
0.000357497
0.000357591
0.000357646
0.000357609
0.000357606
0.00035762
0.000357635
0.000357557
0.000357579
0.000357617
0.000357583
0.000357624
0.000357546
0.000357639
0.000357579
0.000357561
0.000357565
0.00035755
0.000357639
0.000357579
0.000357505
0.000357546
0.000357535
0.000357557
0.000357557
0.000357512
0.00035752
0.000357557
0.000357576
0.000357512
0.000357598
0.000357531
0.000357572
0.000357505
0.00035752
0.000357583
0.00035755
0.000357561
0.00035749
0.000357512
0.000357565
0.000357486
0.000357497
0.00035755
0.000357505
0.000357557
0.000357561
0.00035749
0.000357497
0.000357483
0.000357527
0.00035752
0.000357483
0.000350192
0.000350133
0.000350188
0.000350121
0.000350203
0.000350185
0.000350155
0.000350196
0.000350203
0.000350129
0.000350159
0.000350121
0.000350166
0.000350188
0.000350133
0.00035011
0.000350177
0.000350155
0.000350129
0.000350129
0.000350185
0.000350196
0.000350159
0.000350159
0.000350144
0.000350162
0.000350174
0.000350095
0.000350069
0.000350107
0.000350099
0.000350166
0.000350103
0.000350162
0.000350129
0.000350166
0.000350095
0.000350114
0.000350136
0.000350125
0.000350188
0.000350088
0.000350147
0.000350118
0.000350092
0.000350162
0.000350151
0.000350181
0.000350107
0.00035014
0.000350144
0.000350147
0.000350125
0.000350066
0.000350118
0.000350107
0.00035011
0.000350062
0.000350129
0.000350017
0.000350136
0.000350129
0.00035008
0.000350054
0.000350107
0.000350092
0.000350107
0.000350099
0.000350129
0.000350107
0.000350077
0.000350125
0.000350092
0.000350073
0.000350054
0.000350047
0.000350058
0.000350069
0.000350077
0.000350039
0.00035008
0.000350051
0.000350017
0.000350062
0.000350047
0.000350032
0.000350051
0.000350039
0.000349991
0.000350051
0.000350047
0.00034998
0.00034998
0.000350062
0.000349961
0.000349965
0.000350084
0.000350017
0.000349965
0.000350095
0.000350073
0.000342492
0.000342403
0.000342287
0.000342425
0.000342436
0.000342447
0.000342447
0.00034241
0.000342399
0.00034244
0.000342451
0.000342395
0.00034244
0.00034244
0.000342481
0.000342458
0.000342395
0.000342399
0.000342451
0.000342421
0.000342429
0.00034241
0.00034244
0.00034241
0.000342399
0.00034247
0.000342458
0.000342391
0.000342447
0.000342403
0.000342466
0.000342436
0.000342488
0.000342391
0.000342451
0.000342488
0.000342421
0.000342496
0.000342436
0.000342429
0.000342455
0.000342432
0.000342429
0.000342466
0.000342481
0.000342485
0.000342444
0.000342458
0.000342462
0.000342421
0.000342455
0.000342403
0.000342451
0.000342503
0.00034247
0.000342492
0.000342362
0.000342451
0.000342425
0.000342432
0.000342455
0.00034244
0.000342499
0.000342418
0.000342496
0.000342388
0.000342429
0.000342466
0.000342432
0.000342477
0.00034238
0.000342462
0.000342418
0.000342462
0.000342485
0.000342436
0.000342473
0.000342432
0.000342391
0.000342403
0.000342339
0.000342421
0.000342421
0.000342436
0.000342391
0.00034241
0.000342462
0.00034247
0.00034238
0.000342406
0.00034238
0.000342418
0.000342481
0.000342429
0.000342458
0.000342403
0.000342418
0.000342425
0.000342418
0.000342458
0.000342455
0.000337016
0.000337139
0.000337165
0.000337124
0.000337116
0.000337169
0.000337083
0.000337105
0.00033712
0.000337102
0.000337142
0.00033715
0.000337217
0.00033712
0.000337154
0.00033718
0.00033715
0.000337157
0.000337131
0.00033712
0.000337183
0.000337217
0.000337202
0.000337195
0.000337232
0.000337191
0.000337206
0.00033715
0.000337221
0.000337224
0.000337202
0.000337206
0.000337183
0.000337284
0.000337265
0.000337236
0.000337232
0.000337213
0.000337262
0.000337202
0.000337258
0.000337254
0.000337277
0.000337306
0.000337299
0.000337284
0.00033731
0.000337273
0.000337254
0.000337292
0.00033728
0.000337262
0.00033728
0.000337299
0.000337213
0.00033728
0.000337355
0.000337262
0.000337262
0.000337314
0.000337321
0.000337314
0.000337288
0.000337269
0.000337251
0.000337288
0.000337325
0.000337336
0.000337295
0.000337344
0.000337325
0.000337273
0.000337325
0.000337325
0.000337381
0.000337299
0.000337351
0.000337318
0.000337381
0.000337396
0.000337347
0.000337366
0.000337366
0.000337381
0.00033731
0.000337344
0.000337355
0.000337418
0.000337329
0.000337306
0.000337407
0.000337373
0.000337306
0.000337344
0.00033737
0.000337441
0.000337355
0.000337418
0.000337355
0.000337351
0.00033737
0.000335433
0.000335459
0.000335496
0.000335485
0.000335556
0.000335511
0.000335429
0.000335518
0.000335556
0.000335559
0.000335541
0.000335544
0.000335597
0.000335533
0.000335578
0.000335701
0.00033557
0.000335563
0.000335619
0.00033563
0.000335637
0.0003356
0.000335656
0.000335682
0.0003356
0.000335693
0.000335675
0.000335693
0.000335686
0.000335734
0.000335764
0.000335682
0.000335738
0.00033569
0.000335772
0.000335738
0.000335734
0.000335772
0.000335742
0.000335794
0.000335723
0.000335746
0.000335757
0.000335779
0.000335775
0.000335731
0.000335809
0.000335872
0.000335846
0.000335835
0.000335842
0.00033585
0.000335891
0.000335831
0.000335846
0.000335842
0.000335868
0.000335868
0.000335909
0.000335921
0.000335913
0.000335895
0.000335902
0.000335902
0.000335898
0.000335954
0.000335921
0.000335928
0.000336017
0.000335969
0.000335909
0.000335909
0.000336032
0.000336025
0.000335988
0.000336006
0.000335924
0.000336003
0.000336032
0.000335999
0.000335984
0.00033598
0.000335995
0.000336025
0.00033604
0.000336003
0.000335976
0.000336047
0.000335984
0.000336047
0.000336047
0.000336047
0.000335995
0.000336062
0.000336021
0.000336085
0.000336066
0.000336058
0.000336148
0.000336032
0.000336144
0.000337765
0.000337742
0.000337735
0.000337787
0.000337746
0.000337802
0.000337873
0.000337835
0.000337809
0.000337847
0.000337821
0.000337794
0.000337791
0.00033791
0.000337895
0.000337858
0.000337902
0.00033791
0.000337992
0.000338018
0.000337966
0.000337936
0.000337977
0.000337999
0.00033801
0.000338037
0.000338051
0.000338044
0.000338122
0.00033801
0.000338029
0.000338048
0.000338111
0.000338096
0.000338051
0.000338104
0.000338133
0.000338148
0.000338148
0.000338141
0.00033816
0.000338186
0.000338182
0.000338208
0.000338197
0.000338223
0.000338245
0.000338241
0.000338268
0.000338215
0.00033826
0.000338215
0.000338245
0.000338268
0.000338256
0.000338335
0.000338253
0.000338297
0.000338301
0.000338349
0.000338349
0.000338379
0.000338331
0.000338372
0.000338405
0.000338431
0.000338454
0.000338424
0.000338402
0.000338461
0.000338458
0.000338402
0.00033845
0.000338454
0.000338443
0.000338495
0.000338476
0.000338517
0.000338554
0.000338499
0.000338506
0.000338551
0.000338607
0.000338595
0.000338521
0.000338603
0.000338577
0.000338532
0.00033861
0.000338554
0.000338592
0.000338543
0.000338603
0.000338644
0.000338595
0.000338614
0.000338629
0.000338543
0.0003387
0.00033867
0.000338629
0.000343081
0.000343006
0.000343058
0.000343096
0.00034317
0.000343144
0.00034314
0.000343226
0.000343248
0.00034317
0.000343215
0.000343218
0.000343278
0.000343256
0.000343326
0.000343312
0.000343334
0.00034336
0.000343446
0.000343375
0.000343356
0.000343431
0.000343364
0.000343435
0.000343416
0.00034342
0.00034342
0.000343524
0.000343494
0.000343572
0.00034349
0.000343505
0.000343587
0.000343565
0.000343572
0.000343539
0.000343632
0.000343591
0.000343561
0.000343665
0.000343695
0.000343665
0.000343658
0.00034368
0.000343718
0.000343744
0.000343721
0.0003438
0.000343788
0.000343777
0.00034371
0.000343736
0.000343774
0.000343774
0.000343785
0.00034377
0.000343811
0.000343807
0.000343882
0.000343863
0.000343855
0.00034387
0.000343971
0.000343941
0.000343911
0.000343882
0.000343945
0.000343945
0.000343971
0.000343993
0.000343915
0.000343975
0.000344008
0.000344034
0.000343975
0.000344034
0.000344045
0.00034409
0.000344045
0.000344079
0.000344131
0.000344045
0.000344098
0.000344045
0.000344045
0.000344094
0.000344172
0.000344079
0.000344098
0.000344105
0.000344161
0.000344094
0.000344139
0.000344206
0.000344146
0.00034428
0.000344247
0.000344247
0.00034428
0.000344202
0.000344213
0.000350274
0.000350293
0.000350352
0.00035036
0.000350319
0.000350423
0.000350397
0.000350408
0.000350393
0.000350375
0.000350486
0.000350457
0.000350472
0.000350479
0.000350539
0.000350483
0.000350598
0.000350457
0.000350554
0.000350613
0.000350617
0.000350613
0.000350662
0.000350617
0.000350658
0.000350684
0.00035065
0.000350695
0.000350703
0.00035068
0.000350736
0.000350744
0.000350788
0.000350837
0.000350825
0.000350758
0.000350792
0.000350859
0.000350885
0.000350844
0.00035087
0.000350792
0.000350837
0.000350904
0.000350934
0.0003509
0.000350881
0.000350855
0.000350963
0.000351042
0.00035103
0.000350967
0.000351053
0.000351015
0.000351045
0.000351023
0.000351053
0.000351071
0.000351124
0.000351075
0.000351164
0.000351131
0.00035115
0.000351172
0.000351135
0.000351135
0.000351164
0.000351217
0.000351205
0.000351176
0.000351153
0.000351246
0.000351168
0.00035128
0.000351246
0.000351269
0.000351295
0.000351291
0.00035125
0.000351299
0.000351254
0.000351328
0.000351325
0.000351354
0.000351351
0.000351366
0.000351459
0.000351366
0.000351414
0.000351351
0.000351429
0.000351444
0.00035144
0.000351481
0.000351403
0.000351503
0.000351515
0.000351507
0.000351567
0.00035153
0.000351522
0.000357676
0.000357669
0.000357669
0.000357766
0.000357773
0.000357769
0.000357769
0.000357807
0.000357747
0.000357762
0.000357848
0.000357796
0.000357904
0.000357892
0.000357877
0.000357889
0.000357915
0.000357885
0.00035793
0.000357982
0.000357948
0.000357963
0.000357967
0.000358071
0.000357982
0.00035803
0.000358049
0.000358026
0.000358071
0.000357978
0.000358023
0.000358079
0.000358064
0.000358097
0.000358149
0.000358123
0.000358146
0.000358138
0.000358187
0.000358168
0.000358135
0.000358235
0.000358224
0.000358254
0.000358172
0.000358235
0.000358336
0.000358269
0.000358276
0.000358228
0.000358351
0.000358328
0.000358287
0.000358384
0.000358306
0.000358313
0.000358324
0.000358339
0.000358384
0.000358373
0.000358377
0.000358377
0.000358451
0.000358488
0.000358444
0.000358447
0.000358447
0.000358462
0.000358459
0.000358488
0.000358559
0.000358481
0.000358522
0.00035857
0.000358496
0.000358578
0.000358563
0.000358526
0.000358529
0.000358555
0.000358589
0.000358585
0.000358589
0.000358623
0.000358626
0.000358712
0.000358615
0.00035863
0.000358615
0.000358712
0.000358667
0.000358686
0.000358701
0.000358716
0.000358667
0.000358749
0.000358712
0.000358723
0.000358824
0.000358734
0.000358768
0.000363454
0.000363514
0.000363555
0.00036357
0.000363547
0.000363521
0.000363469
0.000363484
0.000363525
0.000363547
0.000363521
0.000363551
0.000363596
0.000363559
0.000363532
0.000363566
0.000363592
0.000363562
0.0003636
0.000363644
0.000363667
0.000363644
0.000363655
0.000363622
0.000363585
0.000363622
0.000363596
0.000363674
0.000363734
0.0003637
0.00036376
0.000363704
0.000363693
0.000363737
0.000363737
0.00036367
0.000363775
0.00036373
0.000363771
0.000363786
0.000363689
0.000363778
0.000363771
0.000363838
0.000363786
0.000363834
0.000363827
0.000363816
0.000363793
0.000363804
0.000363849
0.000363853
0.000363827
0.000363812
0.000363883
0.000363816
0.000363905
0.00036386
0.00036386
0.000363883
0.000363909
0.000363931
0.000363879
0.00036383
0.000363909
0.000363816
0.000363853
0.000363946
0.000363868
0.000363912
0.000363868
0.000363909
0.000363916
0.000363912
0.000363905
0.000364009
0.000363935
0.000363998
0.000363968
0.000363957
0.000363983
0.000364009
0.000363946
0.000364039
0.000364032
0.000363987
0.000363953
0.000364002
0.000363965
0.000364054
0.000364028
0.000364006
0.000364047
0.000363998
0.000364073
0.000364017
0.000364024
0.000364043
0.000364076
0.000364058
0.000364065
0.000365578
0.00036557
0.000365548
0.000365574
0.000365499
0.000365596
0.000365574
0.000365514
0.000365593
0.000365525
0.000365596
0.000365514
0.000365492
0.00036554
0.000365492
0.000365522
0.000365581
0.000365566
0.000365492
0.000365518
0.000365447
0.000365537
0.000365503
0.000365507
0.000365488
0.000365503
0.000365481
0.000365496
0.000365514
0.000365503
0.000365455
0.000365537
0.000365436
0.000365492
0.00036544
0.000365503
0.00036547
0.000365388
0.000365425
0.000365429
0.000365496
0.000365388
0.00036544
0.000365462
0.000365451
0.000365451
0.000365388
0.000365373
0.000365395
0.000365362
0.000365458
0.000365365
0.000365466
0.000365462
0.000365388
0.000365436
0.000365432
0.000365343
0.000365403
0.000365362
0.00036535
0.000365425