/*--------------------------------*- C++ -*----------------------------------*\
| =========                 |                                                 |
| \\      /  F ield         | OpenFOAM: The Open Source CFD Toolbox           |
|  \\    /   O peration     | Version:  v2006                                 |
|   \\  /    A nd           | Website:  www.openfoam.com                      |
|    \\/     M anipulation  |                                                 |
\*---------------------------------------------------------------------------*/
FoamFile
{
    version     2.0;
    format      ascii;
    class       volScalarField;
    location    "0";
    object      p;
}
// * * * * * * * * * * * * * * * * * * * * * * * * * * * * * * * * * * * * * //

dimensions      [1 -1 -2 0 0 0 0];


internalField   nonuniform List<scalar> 
67500
(
2.53319
1.76419
1.075
0.949223
1.10256
0.933597
0.971893
0.655497
0.454474
0.571043
0.587037
0.705252
1.45444
1.75016
1.23833
1.0864
1.36818
1.86766
1.18212
0.483118
-0.043957
1.42693
0.542625
-0.452889
-0.00294162
0.196925
0.961817
1.86052
2.89037
3.41509
3.33041
2.67548
1.84056
1.27198
1.01248
0.875047
0.772351
0.697682
0.653547
0.612526
0.563868
0.522993
0.50778
0.526375
0.575563
0.639265
0.695921
0.730757
0.739098
0.720804
0.680272
0.625514
0.564927
0.505744
0.454974
0.41958
0.405319
0.415451
0.450394
0.507895
0.584889
0.682571
0.78389
0.786113
0.717177
0.650932
0.59485
0.550013
0.521296
0.509663
0.512723
0.525483
0.541147
0.55273
0.554946
0.545691
0.526586
0.502392
0.479287
0.46263
0.455789
0.460316
0.477055
0.507235
0.552454
0.615043
0.695936
0.792299
0.880082
0.879136
0.799215
0.727965
0.678508
0.640143
0.613134
0.596661
0.588608
0.587763
0.593256
0.604617
0.622412
0.648467
0.685424
0.735573
0.800001
0.878152
0.962858
1.02543
1.03172
1.00585
0.982041
0.969434
0.972393
0.99408
1.03348
1.08685
1.14636
1.19613
1.22512
1.24696
1.27723
1.31815
1.36854
1.42498
1.47963
1.52588
1.56682
1.61028
1.65902
1.71164
1.76542
1.81809
1.87033
1.92412
1.97951
2.03512
2.08977
2.14314
2.19506
2.24488
2.29171
2.33517
2.37516
2.41147
2.44368
2.47137
2.49411
2.51145
2.52303
2.52873
2.52861
2.5229
2.51199
2.49632
2.47635
2.45246
2.42496
2.39404
2.35979
2.32227
2.28151
2.23761
2.19069
2.14099
2.08879
2.03444
1.97833
1.92086
1.86241
1.80334
1.74398
1.68461
1.62547
1.56676
1.50865
1.45128
1.39477
1.33923
1.28475
1.23142
1.17932
1.12851
1.07908
1.03109
0.984588
0.939627
0.896244
0.854466
0.814309
0.775775
0.738856
0.703533
0.669775
0.637545
0.606797
0.577479
0.549538
0.522915
0.497552
0.473391
0.450374
0.428446
0.407553
0.387646
0.368676
0.350597
0.333369
0.31695
0.301305
0.286398
0.272196
0.25867
0.245789
0.233528
0.22186
0.21076
0.200205
0.190172
0.180638
0.171583
0.162984
0.154822
0.147075
0.139724
0.132747
0.126125
0.119837
0.113864
0.108185
0.102781
0.0976326
0.0927199
0.0880246
0.0835284
0.079214
0.0750647
0.0710648
0.0671995
0.0634553
0.0598199
0.0562822
0.0528325
0.0494626
0.0461653
0.0429352
0.0397678
0.0366601
0.03361
0.0306168
0.0276803
0.0248016
0.021982
0.0192239
0.0165296
0.0139022
0.0113445
0.00885989
0.00645134
0.00412186
0.00187423
-0.000289064
-0.00236589
-0.00435449
-0.00625354
-0.00806217
-0.00977996
-0.011407
-0.0129437
-0.0143911
-0.0157505
-0.0170237
-0.0182127
-0.0193199
-0.0203481
-0.0213
-0.0221789
-0.0229878
-0.0237303
-0.0244096
-0.0250294
-0.0255929
-0.0261038
-0.0265655
-0.0269812
-0.0273544
-0.0276883
-0.0279858
-0.0282501
-0.0284839
-0.0286901
-0.0288713
-0.0290299
-0.0291684
-0.0292889
-0.0293936
-0.0294845
-0.0295635
-0.0296323
-0.0296927
-0.0297461
-0.029794
-0.0298379
-0.0298789
-0.0299182
-0.029957
-0.0299962
-0.0300369
-0.0300798
-0.0301258
-0.0301757
-0.0302299
-0.0302893
-0.0303543
-0.0304253
-0.0305028
-0.0305872
-0.0306786
-0.0307774
-0.0308836
-0.0309974
-0.0311188
-0.0312476
-0.0313839
-0.0315274
-0.0316778
-0.0318347
-0.0319978
-0.0321665
-0.0323402
-0.0325182
-0.0326998
-0.0328842
-0.0330703
-0.0332573
-0.033444
-0.0336293
-0.0338121
-0.0339911
-0.0341651
-0.0343328
-0.0344928
-0.0346439
-0.0347848
-0.0349141
-0.0350307
-0.0351332
-0.0352206
-0.0352918
-0.0353456
-0.0353812
-0.0353977
-0.0353941
-0.0353699
-0.0353244
-0.035257
-0.0351674
-0.035055
-0.0349197
-0.0347614
-0.03458
-0.0343756
-0.0341484
-0.0338987
-0.0336269
-0.0333337
-0.0330197
-0.0326856
-0.0323325
-0.0319611
-0.0315726
-0.0311678
-0.0307479
-0.0303138
-0.0298666
-0.029407
-0.028936
-0.0284545
-0.0279631
-0.0274628
-0.0269541
-0.026438
-0.0259152
-0.0253867
-0.0248532
-0.0243158
-0.0237756
-0.0232335
-0.0226906
-0.0221481
-0.021607
-0.0210684
-0.0205332
-0.0200024
-0.0194769
-0.0189574
-0.0184446
-0.0179392
-0.0174416
-0.0169522
-0.0164713
-0.0159992
-0.015536
-0.0150818
-0.0146367
-0.0142004
-0.0137731
-0.0133545
-0.0129444
-0.0125427
-0.012149
-0.0117633
-0.0113851
-0.0110143
-0.0106504
-0.0102934
-0.00994273
-0.00959827
-0.00925969
-0.0089267
-0.00859903
-0.00827641
-0.00795857
-0.00764527
-0.00733624
-0.00703126
-0.00673009
-0.00643251
-0.0061383
-0.00584727
-0.00555921
-0.00527394
-0.00499126
-0.00471102
-0.00443303
-0.00415714
-0.0038832
-0.00361105
-0.00334055
-0.00307156
-0.00280395
-0.00253759
-0.00227234
-0.00200811
-0.00174471
-0.0014822
-0.00121992
-0.000959467
-0.000694189
-0.000442583
-0.00011761
2.20904
0.833932
0.116907
0.671597
0.652949
0.534008
-0.0125819
0.0222587
0.017354
0.0321018
0.0551552
0.0994486
0.249814
-0.00708116
-0.0805446
-0.122543
-0.117827
-0.0797975
-0.774754
-2.13799
-2.24868
-1.01704
-0.217485
0.182716
1.0492
1.69266
1.83587
1.56774
2.78628
3.50526
3.37754
2.39242
1.389
0.897885
0.702775
0.672182
0.712648
0.804135
0.856103
0.822022
0.744548
0.677242
0.63611
0.61609
0.609547
0.605113
0.593469
0.572676
0.542054
0.502274
0.459398
0.422244
0.394302
0.373703
0.358843
0.350995
0.35308
0.36882
0.402049
0.456521
0.538079
0.670699
0.861691
0.807324
0.714997
0.661602
0.615376
0.575175
0.545747
0.527662
0.519861
0.519366
0.521717
0.522471
0.518636
0.509135
0.494381
0.475947
0.456214
0.437452
0.421729
0.411128
0.408216
0.416509
0.439265
0.479756
0.542592
0.641102
0.778569
0.76404
0.638335
0.558005
0.519265
0.495773
0.483366
0.479037
0.480608
0.487307
0.498182
0.512435
0.531037
0.557279
0.595962
0.650631
0.722643
0.813805
0.925482
1.01841
1.00754
0.956221
0.919221
0.896231
0.89069
0.906977
0.94385
0.999031
1.06809
1.12723
1.15007
1.16419
1.19337
1.23704
1.29382
1.35976
1.42237
1.4689
1.506
1.54791
1.5975
1.65227
1.70817
1.76111
1.81293
1.86757
1.92491
1.98272
2.03927
2.09443
2.14844
2.20039
2.24904
2.29412
2.33583
2.37402
2.40819
2.4379
2.46266
2.4819
2.49519
2.50239
2.50357
2.49901
2.48915
2.47451
2.45558
2.4328
2.40647
2.37676
2.34373
2.3074
2.26776
2.22486
2.17883
2.12989
2.07836
2.02459
1.969
1.912
1.85399
1.79536
1.73642
1.67745
1.61871
1.56039
1.50264
1.44562
1.38944
1.3342
1.27999
1.22691
1.17503
1.12443
1.07518
1.02736
0.981016
0.936205
0.892967
0.851329
0.811309
0.772911
0.736128
0.700939
0.667315
0.635217
0.604598
0.575407
0.547588
0.521082
0.49583
0.471774
0.448856
0.427021
0.406215
0.386388
0.367492
0.349482
0.332317
0.315958
0.300366
0.28551
0.271355
0.257872
0.245032
0.232809
0.221176
0.21011
0.199587
0.189584
0.18008
0.171052
0.162481
0.154346
0.146625
0.139298
0.132346
0.125749
0.119485
0.113535
0.107879
0.102498
0.0973706
0.092479
0.087804
0.0833273
0.0790314
0.0748995
0.0709158
0.0670654
0.0633348
0.0597116
0.0561846
0.0527442
0.0493821
0.0460913
0.0428662
0.0397026
0.0365974
0.0335489
0.0305561
0.0276193
0.0247394
0.0219182
0.0191578
0.016461
0.0138308
0.0112703
0.00878274
0.0063714
0.00403933
0.00178935
-0.000375974
-0.00245445
-0.0044443
-0.00634416
-0.00815315
-0.00987086
-0.0114973
-0.0130331
-0.0144791
-0.0158368
-0.0171079
-0.0182945
-0.0193991
-0.0204243
-0.0213732
-0.0222488
-0.0230544
-0.0237934
-0.0244693
-0.0250856
-0.0256457
-0.0261531
-0.0266114
-0.0270239
-0.0273939
-0.0277246
-0.0280192
-0.0282806
-0.0285117
-0.0287152
-0.0288939
-0.0290501
-0.0291864
-0.0293048
-0.0294075
-0.0294965
-0.0295737
-0.0296409
-0.0296997
-0.0297516
-0.0297982
-0.0298408
-0.0298806
-0.0299188
-0.0299566
-0.0299949
-0.0300347
-0.0300768
-0.0301221
-0.0301713
-0.0302249
-0.0302838
-0.0303483
-0.0304189
-0.0304961
-0.0305801
-0.0306713
-0.03077
-0.0308761
-0.0309899
-0.0311113
-0.0312403
-0.0313768
-0.0315205
-0.0316713
-0.0318287
-0.0319923
-0.0321615
-0.0323359
-0.0325147
-0.0326971
-0.0328824
-0.0330695
-0.0332575
-0.0334453
-0.0336318
-0.0338158
-0.0339961
-0.0341714
-0.0343403
-0.0345017
-0.034654
-0.0347962
-0.0349267
-0.0350445
-0.0351482
-0.0352367
-0.0353089
-0.0353637
-0.0354001
-0.0354173
-0.0354144
-0.0353907
-0.0353456
-0.0352786
-0.0351891
-0.0350768
-0.0349415
-0.0347831
-0.0346014
-0.0343967
-0.0341691
-0.0339189
-0.0336466
-0.0333529
-0.0330383
-0.0327037
-0.03235
-0.0319782
-0.0315891
-0.031184
-0.0307638
-0.0303294
-0.0298819
-0.0294221
-0.0289509
-0.0284692
-0.0279775
-0.0274767
-0.0269676
-0.0264508
-0.0259272
-0.0253976
-0.0248631
-0.0243244
-0.0237828
-0.0232392
-0.0226949
-0.0221509
-0.0216083
-0.0210682
-0.0205317
-0.0199996
-0.0194729
-0.0189524
-0.0184387
-0.0179325
-0.0174342
-0.0169443
-0.016463
-0.0159906
-0.0155272
-0.0150729
-0.0146277
-0.0141915
-0.0137642
-0.0133457
-0.0129358
-0.0125343
-0.0121409
-0.0117554
-0.0113775
-0.0110069
-0.0106434
-0.0102866
-0.00993627
-0.0095921
-0.0092538
-0.0089211
-0.00859371
-0.00827135
-0.00795378
-0.00764072
-0.00733194
-0.0070272
-0.00672626
-0.00642889
-0.0061349
-0.00584407
-0.00555621
-0.00527112
-0.00498862
-0.00470855
-0.00443073
-0.004155
-0.00388121
-0.00360921
-0.00333885
-0.00307
-0.00280253
-0.00253629
-0.00227117
-0.00200706
-0.00174379
-0.00148139
-0.00121922
-0.000958885
-0.000693722
-0.000442229
-0.000117468
3.50489
2.83687
0.707696
0.444861
0.407941
0.177498
0.00838626
-0.0241724
-0.0214891
-0.0115473
0.015948
0.069946
0.0633169
-0.054879
-0.0396578
-0.00500398
0.0340691
0.0603231
-0.166317
-0.933623
-1.27867
-0.891
0.491301
1.41463
1.11383
1.19802
2.22593
3.02553
4.03712
4.77508
3.75714
1.40066
-0.34096
0.0352035
0.221191
0.210166
0.229905
0.299335
0.353796
0.344647
0.318272
0.311143
0.320541
0.335107
0.345651
0.33814
0.312128
0.285008
0.268894
0.261771
0.259541
0.260425
0.262865
0.265013
0.266631
0.267781
0.267546
0.266052
0.264983
0.269843
0.293571
0.378038
0.742439
0.529834
0.344331
0.283539
0.266988
0.265332
0.274213
0.289675
0.30735
0.322363
0.32882
0.320794
0.295287
0.254623
0.206151
0.160879
0.130195
0.11981
0.128904
0.152166
0.184569
0.226645
0.284949
0.369286
0.491317
0.700695
1.11222
0.966957
0.74145
0.65821
0.593815
0.534812
0.492908
0.462135
0.43926
0.424542
0.416318
0.412522
0.412281
0.416943
0.430205
0.456752
0.501684
0.569367
0.703082
0.895234
0.837366
0.725379
0.667958
0.643603
0.648479
0.684318
0.746874
0.83371
0.948645
1.04726
1.04719
1.03624
1.05642
1.09399
1.15117
1.22808
1.30333
1.34445
1.36902
1.40773
1.46164
1.52577
1.59123
1.64686
1.69857
1.75589
1.81779
1.88001
1.93959
1.9975
2.05536
2.11146
2.16359
2.21178
2.25698
2.29908
2.33728
2.37111
2.40001
2.42311
2.4398
2.44997
2.45374
2.45142
2.44361
2.43096
2.4141
2.39351
2.36953
2.34229
2.31175
2.27784
2.24045
2.19957
2.15531
2.10789
2.05766
2.00503
1.95045
1.89438
1.83726
1.77947
1.72137
1.66322
1.60527
1.54772
1.49071
1.43438
1.37884
1.3242
1.27053
1.21794
1.1665
1.1163
1.06742
1.01994
0.973906
0.92939
0.886434
0.845073
0.805325
0.767198
0.730684
0.695764
0.662407
0.630573
0.600214
0.571275
0.543699
0.517427
0.492399
0.468554
0.445835
0.424187
0.403556
0.383891
0.365147
0.347278
0.330244
0.314005
0.298527
0.283774
0.269716
0.256323
0.243567
0.231421
0.219862
0.208864
0.198405
0.188463
0.179016
0.170044
0.161526
0.153441
0.14577
0.138491
0.131586
0.125034
0.118816
0.11291
0.107297
0.101958
0.0968719
0.0920202
0.0873837
0.0829439
0.078683
0.0745841
0.0706312
0.0668092
0.0631043
0.0595042
0.0559976
0.0525747
0.0492273
0.0459484
0.0427326
0.0395758
0.036475
0.0334287
0.0304362
0.027498
0.0246154
0.0217902
0.019025
0.0163227
0.0136865
0.01112
0.00862647
0.00620939
0.003872
0.00161728
-0.000552108
-0.00263386
-0.00462613
-0.00652752
-0.00833712
-0.0100545
-0.0116798
-0.0132135
-0.0146566
-0.0160106
-0.0172774
-0.018459
-0.0195582
-0.0205775
-0.0215201
-0.0223891
-0.0231879
-0.02392
-0.0245889
-0.0251981
-0.0257512
-0.0262518
-0.0267033
-0.0271092
-0.0274727
-0.0277972
-0.0280858
-0.0283414
-0.028567
-0.0287653
-0.028939
-0.0290905
-0.0292222
-0.0293364
-0.0294351
-0.0295204
-0.029594
-0.0296579
-0.0297136
-0.0297626
-0.0298065
-0.0298465
-0.029884
-0.02992
-0.0299557
-0.0299921
-0.0300302
-0.0300707
-0.0301146
-0.0301624
-0.0302149
-0.0302726
-0.0303362
-0.030406
-0.0304825
-0.030566
-0.0306568
-0.0307551
-0.0308611
-0.0309748
-0.0310963
-0.0312256
-0.0313625
-0.0315068
-0.0316582
-0.0318165
-0.0319811
-0.0321516
-0.0323273
-0.0325076
-0.0326918
-0.0328789
-0.033068
-0.0332581
-0.0334482
-0.0336371
-0.0338236
-0.0340064
-0.0341842
-0.0343558
-0.0345198
-0.0346748
-0.0348195
-0.0349526
-0.0350728
-0.0351788
-0.0352696
-0.0353439
-0.0354007
-0.035439
-0.0354579
-0.0354566
-0.0354345
-0.0353907
-0.0353249
-0.0352364
-0.035125
-0.0349904
-0.0348323
-0.0346508
-0.0344459
-0.0342178
-0.0339667
-0.0336932
-0.0333977
-0.0330811
-0.0327441
-0.0323877
-0.0320128
-0.0316206
-0.0312122
-0.0307885
-0.0303508
-0.0299001
-0.0294372
-0.0289631
-0.0284786
-0.0279844
-0.0274814
-0.0269701
-0.0264513
-0.0259259
-0.0253947
-0.0248585
-0.0243183
-0.0237752
-0.0232303
-0.0226846
-0.0221393
-0.0215956
-0.0210544
-0.0205169
-0.019984
-0.0194565
-0.0189354
-0.0184212
-0.0179145
-0.017416
-0.0169259
-0.0164445
-0.0159722
-0.0155089
-0.0150548
-0.0146098
-0.014174
-0.0137471
-0.0133291
-0.0129196
-0.0125186
-0.0121258
-0.0117408
-0.0113635
-0.0109935
-0.0106306
-0.0102743
-0.00992458
-0.00958098
-0.00924323
-0.00891107
-0.0085842
-0.00826236
-0.00794529
-0.00763271
-0.0073244
-0.0070201
-0.00671959
-0.00642264
-0.00612905
-0.0058386
-0.0055511
-0.00526637
-0.00498421
-0.00470446
-0.00442696
-0.00415153
-0.00387803
-0.00360631
-0.00333622
-0.00306763
-0.00280041
-0.00253442
-0.00226953
-0.00200565
-0.00174261
-0.00148043
-0.00121848
-0.000958361
-0.00069342
-0.000442099
-0.000117593
3.31239
1.56202
0.56672
0.435233
0.410319
0.23166
0.0265816
-0.061512
-0.0966859
-0.102072
-0.0518395
0.054875
0.112325
0.0831827
0.0376415
0.053679
0.0817447
0.0883145
-0.0618057
0.550432
0.0860788
0.103996
0.818292
1.52389
1.47335
0.818783
0.705742
2.476
5.29332
8.98775
9.43444
3.65932
0.385515
0.310492
0.282547
0.262877
0.273518
0.299348
0.320736
0.332042
0.334637
0.332008
0.326871
0.320937
0.315017
0.309056
0.302289
0.293988
0.285061
0.277473
0.272771
0.270936
0.270545
0.270089
0.268798
0.266877
0.265134
0.26447
0.265964
0.272874
0.293335
0.327512
0.274179
0.0868995
0.142491
0.162262
0.16688
0.165263
0.162024
0.159067
0.156911
0.155544
0.154847
0.154623
0.154662
0.154946
0.155699
0.157188
0.159332
0.161701
0.164051
0.166487
0.169265
0.173256
0.18043
0.194963
0.227844
0.320216
1.21786
0.801271
0.251722
0.157595
0.173977
0.176198
0.176943
0.17987
0.180726
0.182041
0.17814
0.168051
0.15643
0.15622
0.178836
0.225445
0.32061
0.452813
0.729445
1.21188
0.911261
0.727919
0.651389
0.580568
0.537148
0.525114
0.534763
0.570339
0.69108
0.878297
0.805802
0.732524
0.74397
0.797621
0.889354
1.02141
1.15263
1.1839
1.18087
1.21501
1.27094
1.34415
1.42168
1.47363
1.51846
1.57809
1.64857
1.72094
1.78685
1.84997
1.91549
1.97917
2.0364
2.08842
2.1384
2.18623
2.23044
2.27063
2.30609
2.33521
2.35706
2.37167
2.3792
2.38007
2.37515
2.36537
2.35152
2.33422
2.31383
2.29038
2.26371
2.23353
2.1996
2.16179
2.12018
2.07502
2.02671
1.97574
1.92264
1.86794
1.81212
1.75561
1.69875
1.64184
1.5851
1.52872
1.47282
1.41755
1.36298
1.30923
1.25638
1.20452
1.15375
1.10415
1.05581
1.00882
0.96325
0.919171
0.876637
0.835686
0.796345
0.758623
0.722514
0.687998
0.655044
0.623608
0.59364
0.565081
0.537874
0.511954
0.48726
0.463731
0.441308
0.419936
0.399561
0.380135
0.361611
0.343946
0.3271
0.311035
0.295717
0.281113
0.267193
0.253928
0.241292
0.22926
0.217806
0.206909
0.196545
0.186694
0.177335
0.168447
0.160011
0.152005
0.144411
0.137209
0.130379
0.1239
0.117754
0.111919
0.106376
0.101104
0.0960845
0.091297
0.0867224
0.0823418
0.0781372
0.0740912
0.0701875
0.0664108
0.0627472
0.0591839
0.0557097
0.0523148
0.0489909
0.0457313
0.0425306
0.0393848
0.0362915
0.0332492
0.0302578
0.0273181
0.0244316
0.0216008
0.0188285
0.0161181
0.0134732
0.0108976
0.00839507
0.00596928
0.00362376
0.00136172
-0.000813958
-0.00290085
-0.00489699
-0.0068009
-0.00861163
-0.0103288
-0.0119524
-0.0134832
-0.0149221
-0.0162708
-0.0175311
-0.0187055
-0.0197964
-0.0208069
-0.0217401
-0.0225993
-0.0233879
-0.0241096
-0.024768
-0.0253667
-0.0259093
-0.0263995
-0.0268408
-0.0272367
-0.0275906
-0.0279058
-0.0281854
-0.0284324
-0.0286497
-0.0288402
-0.0290063
-0.0291507
-0.0292757
-0.0293835
-0.0294763
-0.0295559
-0.0296243
-0.0296832
-0.0297342
-0.0297789
-0.0298187
-0.0298549
-0.0298888
-0.0299215
-0.0299542
-0.0299878
-0.0300233
-0.0300614
-0.0301031
-0.0301489
-0.0301996
-0.0302558
-0.0303179
-0.0303865
-0.0304619
-0.0305446
-0.0306347
-0.0307326
-0.0308383
-0.030952
-0.0310737
-0.0312033
-0.0313408
-0.0314859
-0.0316384
-0.0317979
-0.031964
-0.0321363
-0.0323141
-0.0324966
-0.0326833
-0.0328731
-0.0330652
-0.0332585
-0.0334519
-0.0336443
-0.0338345
-0.034021
-0.0342028
-0.0343783
-0.0345462
-0.0347051
-0.0348537
-0.0349905
-0.0351143
-0.0352239
-0.0353179
-0.0353952
-0.0354548
-0.0354956
-0.0355168
-0.0355174
-0.0354968
-0.0354542
-0.0353892
-0.0353013
-0.0351901
-0.0350553
-0.0348968
-0.0347146
-0.0345088
-0.0342795
-0.0340271
-0.0337521
-0.0334552
-0.033137
-0.0327985
-0.0324406
-0.0320644
-0.031671
-0.0312616
-0.0308372
-0.0303989
-0.0299477
-0.0294845
-0.02901
-0.028525
-0.0280301
-0.027526
-0.0270132
-0.0264925
-0.0259645
-0.0254302
-0.0248904
-0.0243462
-0.0237988
-0.0232492
-0.0226988
-0.0221487
-0.0216003
-0.0210546
-0.0205128
-0.0199759
-0.0194448
-0.0189204
-0.0184034
-0.0178943
-0.0173937
-0.016902
-0.0164194
-0.015946
-0.0154821
-0.0150277
-0.0145826
-0.0141468
-0.0137202
-0.0133026
-0.0128937
-0.0124933
-0.0121012
-0.011717
-0.0113405
-0.0109714
-0.0106093
-0.010254
-0.00990508
-0.00956236
-0.00922548
-0.00889417
-0.00856814
-0.00824712
-0.00793083
-0.00761902
-0.00731144
-0.00700786
-0.00670803
-0.00641175
-0.00611879
-0.00582895
-0.00554203
-0.00525786
-0.00497624
-0.00469701
-0.00442
-0.00414506
-0.00387202
-0.00360074
-0.00333108
-0.0030629
-0.00279608
-0.00253048
-0.00226597
-0.00200246
-0.00173977
-0.00147795
-0.00121635
-0.000956562
-0.000691967
-0.000440987
-0.000117129
2.32998
0.385643
0.489123
0.472029
0.429554
0.294427
0.0238216
-0.119535
-0.121176
-0.11836
-0.0462223
0.0780708
0.137533
0.0911331
-0.0294167
-0.0451208
-0.0199241
0.00237553
-0.153122
-0.634259
1.13255
1.84772
0.521798
0.244998
0.193254
0.150409
0.141249
0.705903
2.6084
2.41011
0.763872
0.300271
0.252492
0.222602
0.201806
0.217055
0.262848
0.296375
0.317547
0.328232
0.331328
0.330273
0.327013
0.322387
0.316535
0.309375
0.300874
0.291388
0.281955
0.274693
0.270847
0.269894
0.269922
0.269484
0.268011
0.265741
0.263353
0.261449
0.26044
0.260843
0.263011
0.261118
0.233621
0.197958
0.188312
0.182316
0.177101
0.172364
0.168354
0.165296
0.163214
0.162001
0.161547
0.161696
0.162261
0.163139
0.164322
0.165709
0.167161
0.168761
0.170754
0.173304
0.176267
0.1797
0.185148
0.196764
0.223826
0.278032
0.242382
-0.059908
0.0635174
0.103854
0.119787
0.127182
0.130412
0.131677
0.132531
0.134284
0.135855
0.135704
0.132834
0.129813
0.1288
0.131486
0.142972
0.166329
0.242189
1.74016
0.610492
0.107432
0.0398054
-0.00157012
-0.00489318
0.0614691
0.173335
0.327957
0.602082
1.06124
0.756191
0.665669
0.654
0.637299
0.666595
0.787844
0.99919
0.956729
0.863203
0.879339
0.95226
1.07175
1.20248
1.24865
1.28165
1.34823
1.43069
1.51606
1.58419
1.64903
1.7242
1.79928
1.86349
1.92027
1.97771
2.03463
2.0875
2.13666
2.1815
2.21888
2.24754
2.26804
2.28044
2.28522
2.28384
2.2776
2.26757
2.25462
2.23913
2.22097
2.1997
2.17475
2.14558
2.11193
2.07384
2.03161
1.98575
1.9369
1.88569
1.83276
1.77865
1.72382
1.66864
1.61339
1.55828
1.50347
1.44908
1.39522
1.34197
1.28942
1.23765
1.18676
1.13686
1.08804
1.04041
0.994059
0.949091
0.905582
0.863597
0.823187
0.784383
0.747199
0.71163
0.677656
0.645243
0.614343
0.5849
0.556855
0.530142
0.504696
0.480453
0.45735
0.435327
0.41433
0.394306
0.375205
0.356984
0.3396
0.323014
0.307191
0.292096
0.2777
0.263972
0.250885
0.238414
0.226534
0.215224
0.20446
0.194222
0.18449
0.175243
0.166462
0.158129
0.150223
0.142725
0.135617
0.128879
0.12249
0.116432
0.110684
0.105227
0.100039
0.095101
0.0903931
0.0858953
0.0815884
0.0774539
0.0734741
0.069632
0.0659121
0.0623
0.0587828
0.0553489
0.0519886
0.0486936
0.0454571
0.0422741
0.0391409
0.0360553
0.0330164
0.0300245
0.0270808
0.0241876
0.0213477
0.0185646
0.0158421
0.0131845
0.0105959
0.0080806
0.00564266
0.00328595
0.00101398
-0.00117015
-0.00326382
-0.00526492
-0.0071719
-0.00898379
-0.0107002
-0.0123212
-0.0138475
-0.0152804
-0.0166214
-0.0178728
-0.0190369
-0.0201165
-0.0211148
-0.0220351
-0.0228808
-0.0236556
-0.0243632
-0.0250072
-0.0255916
-0.0261201
-0.0265963
-0.027024
-0.0274065
-0.0277475
-0.0280501
-0.0283176
-0.0285531
-0.0287594
-0.0289393
-0.0290955
-0.0292304
-0.0293465
-0.0294458
-0.0295306
-0.0296027
-0.0296641
-0.0297163
-0.0297612
-0.0298001
-0.0298344
-0.0298656
-0.0298948
-0.0299232
-0.0299519
-0.0299817
-0.0300137
-0.0300487
-0.0300874
-0.0301306
-0.030179
-0.030233
-0.0302932
-0.0303602
-0.0304343
-0.0305158
-0.030605
-0.0307023
-0.0308076
-0.0309213
-0.0310431
-0.0311732
-0.0313115
-0.0314577
-0.0316116
-0.0317729
-0.0319411
-0.0321158
-0.0322963
-0.032482
-0.032672
-0.0328656
-0.0330617
-0.0332594
-0.0334574
-0.0336547
-0.0338499
-0.0340416
-0.0342287
-0.0344095
-0.0345828
-0.034747
-0.0349008
-0.0350428
-0.0351716
-0.0352859
-0.0353845
-0.0354662
-0.0355299
-0.0355746
-0.0355994
-0.0356034
-0.0355859
-0.0355463
-0.0354839
-0.0353983
-0.035289
-0.0351556
-0.0349981
-0.0348163
-0.0346101
-0.0343796
-0.0341253
-0.0338475
-0.0335468
-0.0332241
-0.0328801
-0.0325161
-0.0321332
-0.0317327
-0.0313158
-0.0308839
-0.0304383
-0.02998
-0.02951
-0.0290294
-0.0285387
-0.0280387
-0.02753
-0.0270131
-0.0264886
-0.0259572
-0.0254198
-0.0248771
-0.0243301
-0.02378
-0.023228
-0.0226752
-0.0221229
-0.0215723
-0.0210247
-0.0204812
-0.0199427
-0.0194104
-0.0188849
-0.018367
-0.0178573
-0.0173563
-0.0168644
-0.0163818
-0.0159086
-0.0154451
-0.0149911
-0.0145467
-0.0141117
-0.013686
-0.0132693
-0.0128614
-0.0124621
-0.0120711
-0.0116881
-0.0113127
-0.0109448
-0.0105839
-0.0102297
-0.00988197
-0.00954037
-0.00920461
-0.00887438
-0.00854941
-0.00822941
-0.00791411
-0.00760326
-0.00729661
-0.00699391
-0.00669494
-0.00639948
-0.00610731
-0.00581823
-0.00553205
-0.00524858
-0.00496763
-0.00468905
-0.00441266
-0.00413831
-0.00386584
-0.00359511
-0.00332599
-0.00305833
-0.002792
-0.00252688
-0.00226285
-0.00199979
-0.00173756
-0.00147617
-0.001215
-0.000955641
-0.000691485
-0.000440837
-0.000117457
1.96203
0.50581
0.486068
0.47947
0.417864
0.284722
0.116962
-0.0847974
-0.0654695
-0.111747
-0.0994875
0.0608058
0.20862
0.128601
0.0967711
0.71561
1.45089
2.61582
1.07885
0.113855
0.174084
0.204756
0.236498
0.236102
0.202203
0.168114
0.136946
0.128216
0.223196
0.307948
0.29843
0.265575
0.248632
0.230431
0.207853
0.221974
0.260316
0.289588
0.307554
0.317212
0.321352
0.321758
0.319539
0.315598
0.310642
0.305032
0.298808
0.29195
0.284932
0.27869
0.274157
0.27143
0.269634
0.267693
0.265206
0.262211
0.258995
0.255806
0.252759
0.249542
0.244993
0.235883
0.218043
0.199247
0.191857
0.185715
0.179834
0.174584
0.170178
0.166755
0.164303
0.162734
0.161969
0.161899
0.162372
0.163253
0.164445
0.165816
0.167253
0.168808
0.170518
0.172368
0.174401
0.176663
0.179763
0.185167
0.193514
0.199196
0.16877
0.128124
0.130854
0.134656
0.136839
0.137938
0.138535
0.138942
0.139339
0.139474
0.13964
0.139792
0.139998
0.140187
0.140722
0.14225
0.145178
0.161421
0.185456
0.167133
0.0539477
0.0889207
0.102541
0.109401
0.116547
0.126414
0.143375
0.165994
0.228198
1.79335
0.315906
-0.0801619
-0.0100789
0.0751672
0.236598
0.550615
1.12671
0.835139
0.701314
0.726747
0.727104
0.81789
1.02062
0.990873
0.954494
1.01353
1.12593
1.25635
1.32638
1.39436
1.49098
1.58497
1.65241
1.70754
1.77184
1.84033
1.90438
1.96648
2.0257
2.07466
2.11192
2.13977
2.15788
2.16681
2.16926
2.16703
2.16148
2.15395
2.14484
2.13369
2.11968
2.10167
2.07873
2.05037
2.01662
1.97791
1.93495
1.88857
1.83959
1.78877
1.73674
1.684
1.63094
1.5778
1.52477
1.47199
1.41953
1.36746
1.31587
1.26482
1.21441
1.16472
1.11589
1.06802
1.02125
0.975686
0.931446
0.888628
0.847314
0.807566
0.769425
0.732908
0.698015
0.66472
0.632987
0.602761
0.573982
0.546582
0.52049
0.495636
0.471953
0.449375
0.427843
0.407301
0.387697
0.368985
0.351122
0.334068
0.317787
0.302246
0.287412
0.273257
0.259753
0.246876
0.234602
0.222907
0.211771
0.201173
0.191093
0.181512
0.172411
0.163771
0.155574
0.147802
0.140435
0.133456
0.126843
0.120579
0.114644
0.109017
0.103678
0.0986066
0.0937822
0.0891844
0.0847928
0.0805876
0.0765496
0.0726605
0.0689028
0.0652605
0.0617187
0.0582642
0.0548854
0.0515723
0.0483167
0.0451121
0.0419537
0.0388383
0.0357641
0.0327308
0.0297393
0.0267916
0.0238905
0.0210397
0.0182432
0.0155057
0.0128319
0.0102268
0.0076951
0.00524143
0.0028701
0.000585037
-0.00161035
-0.00371318
-0.00572116
-0.00763262
-0.00944653
-0.0111625
-0.0127807
-0.0143019
-0.0157274
-0.0170592
-0.0182994
-0.0194508
-0.0205164
-0.0214995
-0.0224036
-0.0232324
-0.0239898
-0.0246796
-0.0253058
-0.0258723
-0.026383
-0.0268416
-0.0272521
-0.0276179
-0.0279426
-0.0282295
-0.028482
-0.028703
-0.0288955
-0.0290623
-0.029206
-0.0293291
-0.029434
-0.0295228
-0.0295976
-0.0296604
-0.029713
-0.029757
-0.0297942
-0.0298259
-0.0298535
-0.0298784
-0.0299018
-0.0299248
-0.0299483
-0.0299735
-0.0300012
-0.0300323
-0.0300674
-0.0301073
-0.0301527
-0.030204
-0.030262
-0.0303269
-0.0303992
-0.0304793
-0.0305675
-0.0306639
-0.0307688
-0.0308823
-0.0310044
-0.0311351
-0.0312743
-0.0314218
-0.0315774
-0.0317408
-0.0319115
-0.0320891
-0.0322729
-0.0324624
-0.0326566
-0.0328547
-0.0330558
-0.0332588
-0.0334625
-0.0336657
-0.0338671
-0.0340653
-0.0342589
-0.0344464
-0.0346263
-0.0347972
-0.0349576
-0.035106
-0.035241
-0.0353611
-0.0354652
-0.035552
-0.0356203
-0.0356691
-0.0356974
-0.0357044
-0.0356893
-0.0356514
-0.0355902
-0.0355052
-0.035396
-0.0352623
-0.035104
-0.0349209
-0.0347132
-0.0344811
-0.0342248
-0.0339449
-0.0336421
-0.0333172
-0.0329712
-0.0326053
-0.0322209
-0.0318191
-0.0314014
-0.0309691
-0.0305233
-0.0300652
-0.0295955
-0.0291151
-0.0286244
-0.0281238
-0.0276138
-0.0270946
-0.0265668
-0.026031
-0.025488
-0.0249387
-0.0243842
-0.0238259
-0.0232652
-0.0227035
-0.0221423
-0.021583
-0.021027
-0.0204756
-0.0199299
-0.019391
-0.0188597
-0.0183368
-0.0178228
-0.0173183
-0.0168235
-0.0163387
-0.015864
-0.0153994
-0.0149448
-0.0145003
-0.0140655
-0.0136402
-0.0132243
-0.0128174
-0.0124192
-0.0120294
-0.0116478
-0.0112739
-0.0109074
-0.010548
-0.0101953
-0.0098491
-0.00950901
-0.00917472
-0.00884594
-0.00852238
-0.00820375
-0.00788979
-0.00758022
-0.00727481
-0.00697331
-0.00667549
-0.00638114
-0.00609003
-0.00580197
-0.00551676
-0.00523423
-0.00495418
-0.00467646
-0.0044009
-0.00412735
-0.00385565
-0.00358566
-0.00331725
-0.00305027
-0.00278461
-0.00252014
-0.00225674
-0.00199429
-0.00173266
-0.00147186
-0.00121126
-0.000952461
-0.00068888
-0.000438814
-0.000116559
1.79235
0.506497
0.44554
0.430277
0.369366
0.287535
0.225405
0.132281
-0.0665404
0.166787
0.181677
0.384944
0.229001
0.188191
0.186796
0.211389
0.240722
0.236937
0.220492
0.242548
0.253035
0.241912
0.233361
0.223649
0.200329
0.176717
0.162384
0.161327
0.188598
0.234307
0.252716
0.258749
0.255008
0.24941
0.240299
0.246392
0.266758
0.28631
0.300268
0.309174
0.314135
0.315969
0.31536
0.312965
0.309275
0.304556
0.298994
0.292872
0.286641
0.280862
0.276034
0.27227
0.269181
0.266251
0.263221
0.260055
0.256819
0.253578
0.250273
0.246575
0.241595
0.233542
0.220952
0.206873
0.196695
0.189067
0.182882
0.177804
0.173667
0.17039
0.167918
0.166176
0.165082
0.164549
0.164478
0.164776
0.165363
0.166173
0.167147
0.168265
0.169496
0.170767
0.172112
0.17358
0.175025
0.176268
0.176401
0.171639
0.154771
0.136526
0.137537
0.139272
0.139771
0.139886
0.139792
0.139635
0.139455
0.139246
0.139028
0.138812
0.138758
0.138746
0.138652
0.138364
0.139059
0.144875
0.157252
0.163577
0.140878
0.133551
0.13028
0.12945
0.129892
0.132035
0.139633
0.157515
0.161151
0.0995402
0.0604768
0.0981432
0.121926
0.142113
0.157372
0.157109
1.99605
0.568386
-0.0962062
0.0533266
0.202827
0.469349
1.00891
0.772124
0.742147
0.78727
0.861653
1.04794
1.05877
1.08084
1.19334
1.32853
1.39702
1.44327
1.52252
1.61023
1.68522
1.76181
1.83995
1.90242
1.94936
1.98703
2.01209
2.02493
2.03109
2.03284
2.03201
2.03102
2.0301
2.0282
2.02382
2.01491
1.99984
1.97791
1.9492
1.91443
1.87462
1.83092
1.78439
1.73596
1.68637
1.63614
1.58565
1.53511
1.48466
1.43437
1.38428
1.33443
1.28485
1.23562
1.18682
1.13856
1.09097
1.04421
0.998425
0.95376
0.910356
0.868337
0.827803
0.788835
0.751482
0.715769
0.681692
0.649226
0.618324
0.588926
0.560961
0.534353
0.509023
0.484897
0.461902
0.439973
0.419047
0.399071
0.379994
0.361771
0.344363
0.327729
0.311838
0.296656
0.282154
0.268306
0.255085
0.242468
0.230435
0.218963
0.208033
0.197627
0.187727
0.178315
0.169374
0.160887
0.152837
0.145206
0.137976
0.131131
0.124651
0.118517
0.11271
0.10721
0.101996
0.0970483
0.092345
0.0878653
0.0835883
0.0794935
0.0755607
0.0717709
0.0681057
0.0645485
0.0610838
0.0576978
0.0543787
0.0511162
0.0479023
0.0447304
0.0415963
0.0384971
0.0354317
0.0324004
0.029405
0.0264483
0.0235339
0.0206664
0.0178508
0.0150926
0.0123972
0.00977043
0.00721764
0.0047441
0.00235464
5.36008e-05
-0.00215523
-0.00426871
-0.00628437
-0.00820044
-0.0100158
-0.0117302
-0.0133439
-0.0148578
-0.0162734
-0.0175929
-0.0188187
-0.0199538
-0.0210015
-0.0219654
-0.0228492
-0.023657
-0.0243928
-0.0250607
-0.0256648
-0.0262093
-0.0266983
-0.0271356
-0.0275251
-0.0278706
-0.0281756
-0.0284436
-0.0286779
-0.0288815
-0.0290574
-0.0292084
-0.0293372
-0.0294461
-0.0295376
-0.0296138
-0.0296767
-0.0297284