/*--------------------------------*- C++ -*----------------------------------*\
| =========                 |                                                 |
| \\      /  F ield         | OpenFOAM: The Open Source CFD Toolbox           |
|  \\    /   O peration     | Version:  v2006                                 |
|   \\  /    A nd           | Website:  www.openfoam.com                      |
|    \\/     M anipulation  |                                                 |
\*---------------------------------------------------------------------------*/
FoamFile
{
    version     2.0;
    format      ascii;
    class       volScalarField;
    location    "0";
    object      shifted_f;
}
// * * * * * * * * * * * * * * * * * * * * * * * * * * * * * * * * * * * * * //

dimensions      [0 0 0 0 0 0 0];


internalField   nonuniform List<scalar> 
2500
(
-6.68988e-28
0
-6.68988e-28
1.00348e-27
0
0
0
0
-6.65389e-28
0
0
0
0
-3.24401e-27
-5.11568e-27
0
0
-3.81517e-27
0
0
8.3331e-26
0
0
0
0
0
-7.97269e-25
0
0
0
0
2.86099e-26
0
0
0
0
0
0
0
0
0
0
0
0
0
0
-9.0895e-32
0
0
0
0
0
0
-1.04697e-27
-6.33678e-27
4.17767e-27
0
4.28022e-27
0
0
-8.06753e-27
0
0
0
0
0
-9.2058e-28
0
7.07372e-26
1.55405e-26
0
-4.14053e-25
-1.58888e-25
0
1.86252e-24
1.51487e-24
-1.49183e-24
-1.16756e-24
0
-1.20781e-24
-3.345e-25
9.98397e-26
4.9771e-25
4.16715e-25
0
8.35884e-26
1.81918e-26
-7.44348e-27
0
0
0
0
3.68739e-29
6.39588e-30
0
4.0148e-31
0
0
6.0334e-32
4.25387e-32
0
0
8.83597e-27
-2.20899e-27
-1.34739e-26
0
0
0
9.34173e-27
0
-1.62169e-26
0
0
-2.89637e-26
0
3.69197e-26
0
1.31914e-25
0
0
0
0
-2.17201e-23
-6.68247e-23
0
0
6.65188e-23
0
-7.12734e-24
0
0
0
0
0
0
0
0
0
0
0
0
0
0
0
0
0
0
0
0
0
0
0
0
1.04225e-26
7.10404e-27
0
0
0
0
0
-2.47292e-26
0
-9.71939e-26
-4.84875e-26
0
0
0
0
0
0
0
0
0
0
0
0
1.10561e-22
0
0
0
0
0
0
0
0
0
-6.0394e-25
0
5.23992e-26
0
0
0
0
0
6.05121e-30
0
0
0
0
0
0
0
0
-3.89226e-27
7.97581e-27
1.5474e-26
0
0
0
0
-2.75286e-26
0
-1.17505e-25
-5.66626e-26
0
0
0
-1.4732e-24
0
0
0
0
-1.5778e-22
0
0
0
2.22315e-22
0
0
0
0
-3.35909e-22
0
0
0
0
0
1.63383e-25
-2.75656e-25
0
0
0
0
0
0
0
0
0
0
0
0
0
0
-3.4877e-23
0
0
0
-4.65855e-23
-4.68526e-23
0
0
0
0
0
0
0
0
0
0
1.36583e-22
0
0
0
0
0
0
-2.38914e-22
0
0
-1.56064e-21
0
3.09139e-22
0
0
0
0
0
0
0
0
0
5.58508e-28
0
0
-1.12734e-30
0
0
0
0
0
0
0
0
-5.69175e-22
-3.79489e-22
0
0
0
-7.59517e-22
0
0
0
0
0
0
0
0
0
0
0
0
0
0
1.91405e-20
0
0
-1.7693e-20
0
0
0
0
0
0
0
0
0
0
0
0
0
0
0
0
0
0
0
0
0
0
0
0
0
0
-2.07083e-21
0
-2.76152e-21
0
0
-2.75894e-21
0
0
0
0
0
0
0
0
0
0
0
0
0
0
6.32381e-20
0
0
0
0
0
0
0
0
0
0
0
0
0
0
0
0
0
0
0
0
0
0
0
0
0
0
0
1.16873e-20
0
-4.38274e-21
1.16876e-20
0
1.16921e-20
0
-5.83385e-21
0
1.17518e-20
0
0
0
0
0
0
2.4854e-20
0
0
9.99215e-21
0
0
2.63775e-19
0
0
-1.51404e-19
0
-1.421e-20
0
0
0
0
0
0
0
0
-2.48909e-24
0
0
0
0
0
0
0
0
7.08426e-29
0
0
-7.37448e-29
3.07288e-20
0
3.07288e-20
-5.76166e-21
-3.8411e-21
7.68522e-21
0
-7.68243e-21
-7.66313e-21
0
0
0
0
2.94497e-20
0
3.41724e-20
0
3.1806e-20
0
0
6.08872e-20
0
1.58733e-19
0
0
0
-2.0592e-19
0
0
0
0
9.99657e-20
0
0
5.49661e-22
0
0
0
-1.92618e-24
0
0
-1.01832e-26
0
0
0
1.11698e-27
0
0
0
0
0
0
0
-2.60686e-21
-4.17324e-20
0
0
0
1.05886e-20
-4.17922e-20
-1.97922e-20
0
0
0
0
0
0
-8.0979e-20
0
0
0
0
0
-2.45915e-18
0
0
0
0
0
0
0
0
0
0
0
0
0
0
0
0
0
0
0
0
0
0
0
0
0
0
0
0
0
2.92722e-19
5.85499e-19
0
0
0
3.91731e-19
0
0
0
0
0
0
0
0
0
0
0
0
0
0
0
0
0
2.15046e-17
0
0
0
0
0
0
0
0
0
0
0
0
0
0
0
0
0
0
0
0
0
0
0
0
0
0
1.17008e-18
-6.24076e-18
0
0
0
1.56445e-18
0
0
0
0
0
0
0
0
-7.81029e-18
0
0
-6.89408e-19
0
0
-2.56888e-17
0
1.49217e-17
6.20157e-17
0
0
0
0
0
0
0
0
-4.8196e-16
0
0
0
-3.97364e-17
0
0
-1.32811e-24
0
0
0
0
1.30994e-26
4.91945e-26
1.79824e-26
0
0
0
2.78756e-18
1.85844e-18
0
0
3.72223e-18
3.7258e-18
0
0
0
0
0
0
0
0
-3.67013e-17
0
0
-4.08035e-18
0
0
-5.44762e-17
0
0
1.30873e-16
0
0
0
0
0
0
0
0
0
0
0
0
-9.97864e-17
0
0
0
0
0
0
0
0
0
0
0
0
0
4.96249e-18
-3.30841e-18
0
0
0
0
0
0
0
-2.71737e-17
-1.31772e-17
0
0
0
0
0
0
-8.96613e-18
-2.9989e-17
0
-1.83696e-16
0
0
0
0
0
0
0
0
0
0
0
0
0
0
0
0
0
0
-2.03964e-23
-1.72081e-23
0
0
0
0
0
0
0
0
0
7.03834e-18
4.69234e-18
9.38003e-18
0
9.39934e-18
9.40563e-18
0
0
0
0
0
0
0
0
0
0
0
-2.70604e-17
0
0
-1.28567e-16
0
0
3.15991e-16
0
0
0
0
0
0
0
0
0
0
0
0
-2.99569e-16
0
0
0
0
0
0
0
0
0
0
0
0
0
8.09824e-18
-5.39897e-18
1.07923e-17
0
0
1.08231e-17
0
0
0
0
0
0
0
0
0
0
0
-1.49241e-17
0
0
-1.51515e-16
0
0
3.85255e-16
0
0
0
0
0
0
0
0
0
0
0
0
-3.97757e-16
0
0
0
0
0
0
0
0
0
0
0
0
0
7.54548e-18
-5.0305e-18
0
0
0
0
0
0
0
0
-1.99286e-17
0
0
0
0
0
0
-1.04551e-17
-5.47111e-17
0
-3.04351e-16
0
0
0
0
0
0
0
-7.61237e-15
-9.81867e-15
0
0
0
0
-3.03771e-15
0
0
0
0
0
1.50546e-20
6.99911e-21
0
0
0
0
0
0
0
3.13419e-18
4.70128e-18
-3.13441e-18
0
0
0
6.29401e-18
0
0
0
-2.62124e-17
-1.24382e-17
0
0
0
0
-2.35394e-17
0
1.25142e-18
0
0
0
0
0
3.67914e-16
0
0
0
0
0
0
0
0
0
0
0
0
0
0
0
0
0
1.64566e-20
0
0
0
-1.3432e-23
-1.99081e-24
0
0
0
8.01252e-19
5.34419e-19
0
0
0
1.08744e-18
0
0
0
-5.00445e-18
0
0
0
-6.89538e-18
0
-5.51008e-18
0
1.46143e-17
0
-4.4282e-17
0
0
1.63829e-16
2.65246e-16
0
0
0
0
0
0
0
0
-2.88731e-15
0
0
0
0
0
0
0
9.19791e-20
2.49387e-20
0
0
-9.01366e-23
-1.99576e-23
0
0
0
0
7.33241e-19
1.46626e-18
0
0
0
0
0
0
0
0
5.66989e-18
0
0
1.21284e-17
0
0
0
2.19177e-17
2.41053e-17
0
-5.2059e-17
0
0
0
0
4.26072e-16
0
0
0
0
0
0
0
0
0
0
0
0
0
0
1.22503e-19
0
0
0
0
0
2.67594e-24
0
0
0
-3.02632e-18
2.01741e-18
0
0
0
-4.03346e-18
0
0
0
0
0
0
0
0
0
0
0
1.92677e-17
0
0
0
0
0
2.76989e-17
0
0
0
0
0
0
0
0
-6.52602e-16
0
0
0
-5.36163e-17
0
0
0
0
0
0
0
0
0
0
0
0
0
-1.89124e-18
1.26081e-18
0
0
-2.52728e-18
-2.52622e-18
0
0
0
0
0
0
0
0
0
0
0
1.55916e-17
0
0
1.55374e-17
0
0
-3.50024e-17
0
0
0
0
0
0
0
0
0
0
0
0
3.82394e-17
0
0
0
0
0
0
0
0
0
0
0
0
0
-7.79343e-20
-5.20434e-20
0
0
-1.06796e-19
-1.10495e-19
0
0
0
0
0
0
0
0
2.46818e-18
0
0
0
0
0
0
0
0
-4.91946e-17
0
0
0
0
0
0
0
8.66925e-16
0
0
0
0
0
0
0
0
0
-5.33754e-20
0
0
2.2365e-22
7.51103e-23
0
0
0
0
7.63155e-19
5.08662e-19
0
0
0
1.01288e-18
0
0
0
0
0
0
0
0
0
0
0
-7.30844e-18
0
0
4.49216e-18
0
0
-3.31389e-17
0
0
0
0
0
0
0
0
0
0
0
0
4.30093e-17
0
0
0
0
0
0
0
0
0
0
0
0
0
2.37205e-19
-1.58061e-19
0
0
0
3.15085e-19
0
0
0
-1.31614e-18
0
0
0
-2.24148e-18
0
7.98852e-19
1.1397e-18
-2.51503e-18
0
0
0
0
2.36162e-17
-9.15826e-18
0
0
0
0
0
0
0
0
2.26995e-16
0
0
2.98436e-17
0
0
0
0
-8.52198e-21
0
0
0
0
-3.05681e-23
-1.21188e-23
1.04636e-17
2.09273e-17
0
-9.80967e-19
-6.54015e-19
1.30877e-18
1.04656e-17
-1.30503e-18
0
0
1.05183e-17
1.0285e-17
5.11791e-18
1.07779e-17
0
1.0306e-17
4.3504e-18
9.27038e-18
6.4105e-18
7.47111e-18
5.53823e-18
0
0
5.95527e-18
0
2.69599e-17
4.44342e-18
-4.57742e-17
0
-6.72033e-17
0
0
-1.09654e-16
0
0
-2.505e-16
-2.00388e-16
0
-3.74488e-17
-3.11139e-17
0
-2.94049e-19
1.639e-19
1.10005e-19
0
6.79385e-21
0
0
-1.55937e-22
-2.97998e-23
0
1.85534e-17
0
-1.73938e-18
1.85538e-17
0
0
0
-2.31837e-18
0
0
0
0
0
0
0
0
0
9.42286e-18
0
9.81881e-18
0
2.00274e-17
9.05824e-18
0
0
4.49215e-18
0
3.10748e-17
0
0
0
0
0
0
-2.57134e-16
0
0
0
0
0
0
0
1.26477e-19
0
0
-2.55519e-22
0
0
0
0
0
0
1.86278e-17
1.16429e-18
0
0
0
0
0
0
0
0
1.8771e-17
0
0
0
9.37031e-18
0
0
0
1.15057e-17
0
0
0
0
0
0
0
0
0
0
0
-2.52692e-16
0
0
-1.4115e-16
0
0
0
0
0
0
0
0
0
0
0
0
0
0
0
0
-1.47261e-18
9.81808e-19
0
0
-1.96187e-18
-1.96512e-18
0
0
0
0
0
7.89326e-18
0
0
0
0
0
7.27e-18
0
0
9.85878e-18
0
0
-7.26301e-18
0
0
0
0
0
0
0
0
0
0
0
0
-4.4691e-19
0
0
0
0
0
0
0
0
0
0
0
0
0
-1.38541e-18
-9.2368e-19
0
0
-1.84506e-18
-1.84851e-18
0
0
0
0
0
0
0
0
0
0
0
1.35891e-17
0
0
0
0
-5.03013e-18
-7.30845e-18
0
0
0
0
0
0
0
0
0
0
0
0
4.23261e-20
0
0
3.99801e-20
0
0
0
0
8.07058e-24
6.05566e-24
1.87721e-24
0
1.57262e-17
0
-1.47433e-18
9.82952e-19
0
0
-1.96348e-18
-1.96638e-18
0
0
0
0
0
0
0
0
0
0
0
7.59119e-18
0
0
9.84076e-18
0
0
-4.58771e-18
0
0
0
0
0
0
0
0
0
0
0
0
0
0
0
0
0
0
0
0
0
0
0
0
1.60947e-17
0
1.60947e-17
1.00597e-18
0
0
-2.00973e-18
-2.01218e-18
0
0
0
0
0
0
0
0
7.95423e-18
1.69572e-17
0
0
0
0
1.88457e-17
0
0
-2.674e-18
-5.6333e-19
0
0
0
-1.10204e-17
0
0
-8.11342e-17
0
-5.22446e-17
0
0
-4.02041e-18
0
5.65692e-20
2.72521e-20
0
0
0
-5.43877e-24
-3.73515e-24
-1.84625e-24
-5.65891e-25
0
1.52694e-17
0
-1.43151e-18
-9.54396e-19
1.90918e-18
0
1.52546e-17
0
0
1.52715e-17
0
0
0
0
0
0
7.61674e-18
0
0
7.51092e-18
0
0
0
0
-2.83925e-18
-3.01948e-18
4.93643e-18
2.44433e-17
0
0
0
0
0
-1.06749e-16
-9.20066e-17
-6.48983e-17
0
0
-4.07843e-18
0
0
4.97135e-20
0
0
0
-2.94625e-24
-2.3742e-24
-1.05525e-24
-2.55463e-25
0
0
0
0
-9.13436e-19
0
3.65285e-18
-1.82491e-18
-1.82762e-18
0
0
0
0
0
7.41115e-18
0
0
0
0
0
7.02303e-18
0
0
8.9287e-18
0
-4.48304e-18
0
0
0
0
0
0
0
0
0
-8.51159e-17
-5.92905e-17
0
0
0
0
0
0
0
0
0
0
0
-2.48094e-25
0
0
0
1.49399e-17
-1.40061e-18
9.33805e-19
-1.868e-18
0
0
0
0
0
0
7.44767e-18
0
0
0
0
0
0
0
7.15174e-18
7.651e-18
0
9.27401e-18
5.15296e-18
0
-4.63565e-18
-1.23618e-19
0
0
0
0
0
0
0
0
-5.04511e-17
0
0
0
0
0
0
0
0
0
0
4.73268e-26
7.38389e-26
2.67103e-26
0
1.55034e-17
0
0
-9.69022e-19
0
0
0
-1.93865e-18
0
0
0
0
0
0
0
1.48223e-17
1.55015e-17
8.2002e-18
1.60528e-17
7.50427e-18
0
1.87409e-17
9.47485e-18
0
0
-4.20773e-18
-5.30501e-19
0
0
0
0
0
0
0
-6.96594e-17
-4.92902e-17
0
0
0
0
0
4.67276e-20
2.18236e-20
0
0
2.72731e-25
0
2.69167e-26
-1.46673e-26
0
0
0
0
-2.90769e-18
0.0296875
0.0921875
0.128125
0.13125
0.101562
0.0390625
0.003125
0
0
0
0
0
0
0
0
0
0
0
0
0
0
-3.86763e-18
0
0
0
0
0
0
0
0
0
0
0
0
-3.19111e-18
0
0
0
0
0
0
0
0
0
0
1.52068e-17
0
1.52068e-17
1.52068e-17
0.0296875
0.151563
0.342187
0.476562
0.5125
0.453125
0.26875
0.075
0.003125
0
7.72417e-18
0
0
0
0
0
0
0
0
1.84182e-17
0
0
-3.9575e-18
1.37174e-18
4.15753e-17
3.25349e-17
2.29643e-17
-1.00092e-17
-5.24252e-17
-8.31149e-17
-1.77698e-16
0
-5.43471e-17
-3.0543e-17
-1.28422e-17
0
-1.85744e-19
0
0
2.19833e-20
0
0
-4.70148e-25
-1.94434e-25
-1.03602e-25
-4.00181e-26
1.5135e-17
3.027e-17
0
0
0.0890625
0.335938
0.625
0.81875
0.88125
0.851563
0.640625
0.26875
0.0390625
2.86434e-16
0
1.4815e-17
1.44982e-17
0
7.98438e-18
1.55817e-17
0
0
1.85463e-17
0
0
0
-4.12549e-18
9.5141e-19
2.05375e-17
3.26828e-17
2.36474e-17
0
-5.0813e-17
-8.13838e-17
-8.72414e-17
0
-5.33678e-17
-2.99438e-17
0
0
-8.01286e-20
0
9.44192e-20
0
0
0
0
-9.60671e-26
-6.16568e-26
-2.92777e-26
3.05146e-17
0
0
-1.43037e-18
0.11875
0.457813
0.809375
0.970313
1
1
0.851563
0.453125
0.101563
3.87689e-18
0
0
1.46094e-17
0
0
0
0
0
1.86278e-17
0
0
0
-4.12279e-18
6.52565e-19
0
3.22671e-17
2.36913e-17
-8.03735e-18
0
0
-8.56165e-17
-7.44383e-17
-5.24831e-17
0
-1.23567e-17
-3.08246e-18
0
0
0
0
6.05627e-21
0
0
0
-6.48733e-26
0
0
0
0
1.53071e-17
0.0890625
0.425
0.832812
0.996875
1
1
0.88125
0.5125
0.13125
1.40946e-16
0
0
0
0
0
0
1.48314e-17
0
0
0
0
0
-4.05837e-18
0
0
0
0
-8.38687e-18
0
0
0
0
0
0
0
0
0
0
0
0
0
0
0
0
0
0
0
1.52638e-17
0
-1.43098e-18
0.0296875
0.240625
0.639062
0.925
0.996875
0.970312
0.81875
0.476563
0.128125
1.77809e-16
0
0
0
0
8.04873e-18
0
7.39404e-18
0
9.31617e-18
0
0
0
-4.05155e-18
0
0
0
0
0
0
0
0
0
0
0
0
-3.13372e-18
0
0
0
2.20742e-20
6.07675e-21
0
0
0
0
0
0
0
0
-1.42894e-18
1.5243e-17
0.059375
0.3
0.639062
0.832812
0.809375
0.625
0.342188
0.0921875
1.27936e-16
0
0
0
0
0
0
7.38022e-18
0
0
9.26875e-18
0
0
-4.07262e-18
0
2.02183e-17
0
0
0
0
0
0
0
0
0
0
-3.12655e-18
0
0
4.67608e-20
0
0
0
-1.33866e-25
0
0
0
0
1.52555e-17
1.52555e-17
3.05109e-17
1.52564e-17
0
0.059375
0.240625
0.425
0.457812
0.335937
0.151563
0.0296875
4.11997e-17
0
0
1.46114e-17
1.52674e-17
0
1.57238e-17
7.38686e-18
0
0
9.27741e-18
0
-2.53375e-18
-4.07578e-18
8.16676e-19
0
3.22863e-17
2.3488e-17
-8.50313e-18
-5.00904e-17
-8.04251e-17
0
-7.50298e-17
-5.29003e-17
-2.9714e-17
0
-3.11898e-18
-1.66024e-19
6.15072e-20
9.35492e-20
0
6.06962e-21
3.71108e-22
-2.43699e-25
-1.0888e-25
-6.95702e-26
-3.32265e-26
0
0
1.5262e-17
1.5262e-17
9.53937e-19
0
2.57086e-16
0.0296875
0.0890625
0.11875
0.0890625
0.0296875
5.0307e-16
4.11997e-17
0
0
0
0
0
0
7.39099e-18
0
0
9.279e-18
0
0
-4.06999e-18
0
2.01611e-17
0
0
0
0
0
-1.72677e-16
0
0
0
0
0
0
6.14912e-20
0
0
0
0
-2.4767e-25
0
0
0
0
0
0
-1.43052e-18
0
0
0
0
5.43012e-16
-1.31839e-15
5.4054e-16
0
0
0
0
0
2.923e-17
7.63517e-18
0
0
0
7.85445e-18
0
1.85538e-17
1.04642e-17
0
-4.06931e-18
0
0
0
0
0
0
0
0
0
-5.29343e-17
0
0
0
0
6.1467e-20
4.67568e-20
0
6.07243e-21
3.72136e-22
0
-1.13696e-25
0
0
0
0
0
-1.43042e-18
9.53677e-19
0
0
0
-1.90797e-18
0
0
0
0
0
0
0
0
0
0
0
7.38883e-18
0
0
9.27667e-18
0
0
-4.07018e-18
0
0
0
0
-8.54697e-18
0
0
0
0
0
0
0
0
0
0
0
0
0
0
0
0
0
0
0
0
0
-1.43042e-18
-9.53677e-19
3.8155e-18
0
-1.90526e-18
-1.90797e-18
0
0
0
7.60339e-18
0
0
0
7.30701e-18
0
8.04734e-18
7.86308e-18
0
0
0
0
0
-2.53028e-18
-4.07018e-18
0
0
0
0
0
0
0
0
0
0
0
-1.24806e-17
0
0
0
0
2.20915e-20
0
0
0
0
0
0
0
0
0
-1.43042e-18
-9.53677e-19
0
0
-1.90526e-18
0
0
0
0
7.60339e-18
0
0
0
7.30701e-18
7.63473e-18
8.04734e-18
7.86308e-18
0
0
0
1.85533e-17
0
-2.53028e-18
-4.07018e-18
0
0
0
0
0
0
0
0
0
0
0
-1.24806e-17
0
0
0
0
2.20915e-20
0
0
0
0
0
0
)
;

boundaryField
{
    movingWall
    {
        type            zeroGradient;
    }
    fixedWalls
    {
        type            zeroGradient;
    }
    frontAndBack
    {
        type            empty;
    }
}

