/*--------------------------------*- C++ -*----------------------------------*\
| =========                 |                                                 |
| \\      /  F ield         | OpenFOAM: The Open Source CFD Toolbox           |
|  \\    /   O peration     | Version:  v2006                                 |
|   \\  /    A nd           | Website:  www.openfoam.com                      |
|    \\/     M anipulation  |                                                 |
\*---------------------------------------------------------------------------*/
FoamFile
{
    version     2.0;
    format      ascii;
    class       volScalarField;
    location    "0";
    object      p;
}
// * * * * * * * * * * * * * * * * * * * * * * * * * * * * * * * * * * * * * //

dimensions      [1 -1 -2 0 0 0 0];


internalField   nonuniform List<scalar> 
20000
(
2.83783e-06
2.85198e-06
2.88552e-06
2.93807e-06
3.00863e-06
3.09707e-06
3.20414e-06
3.33074e-06
3.47772e-06
3.64591e-06
3.83631e-06
4.05005e-06
4.28846e-06
4.55298e-06
4.84527e-06
5.16711e-06
5.52045e-06
5.9074e-06
6.33023e-06
6.79142e-06
7.29373e-06
7.84018e-06
8.43412e-06
9.07915e-06
9.77918e-06
1.05384e-05
1.13613e-05
1.22529e-05
1.32185e-05
1.42638e-05
1.53954e-05
1.662e-05
1.7945e-05
1.93787e-05
2.09294e-05
2.26067e-05
2.44204e-05
2.63816e-05
2.85019e-05
3.07938e-05
3.32711e-05
3.59483e-05
3.88412e-05
4.19669e-05
4.53438e-05
4.89916e-05
5.29316e-05
5.71866e-05
6.17813e-05
6.67422e-05
7.20979e-05
7.78788e-05
8.4118e-05
9.08508e-05
9.81148e-05
0.000105951
0.000114402
0.000123514
0.000133337
0.000143923
0.000155329
0.000167614
0.000180842
0.000195079
0.000210396
0.000226869
0.000244578
0.000263622
0.000284084
0.000306015
0.000329526
0.000354715
0.00038168
0.00041052
0.000441337
0.000474227
0.000509286
0.000546603
0.000586262
0.000628341
0.000672901
0.000719984
0.000769601
0.000821729
0.000876322
0.000933298
0.000992532
0.00105382
0.00111684
0.00118116
0.00124635
0.00131194
0.0013804
0.00148106
0.00154049
0.00158924
0.00162983
0.00166692
0.00170023
0.00172767
0.0017478
0.00176006
0.00176494
0.00176454
0.00176343
0.00176932
0.00179305
0.0018473
0.00194316
0.00208436
0.00226068
0.00244673
0.00261252
0.00274222
0.00284563
0.00295465
0.00310932
0.00334599
0.00369017
0.00415807
0.00476221
0.00551417
0.00642262
0.00749131
0.00871814
0.0100922
0.0115906
0.0131801
0.0148234
0.0164845
0.0181266
0.0197235
0.0212364
0.0226505
0.0239478
0.0251129
0.0261324
0.0269936
0.0276843
0.028192
0.0285044
0.0286096
0.0285005
0.0282169
0.0276283
0.026799
0.0257321
0.0244308
0.0228995
0.0211466
0.0191862
0.017039
0.0147334
0.0123082
0.00981352
0.00731196
0.00487498
0.00257769
0.000489998
-0.00133293
-0.0028584
-0.00407879
-0.00500753
-0.00567072
-0.00609958
-0.00632668
-0.00638122
-0.00628759
-0.00607212
-0.00576091
-0.00536623
-0.00490978
-0.0044214
-0.00393986
-0.00350511
-0.00314458
-0.00286216
-0.00263714
-0.00243536
-0.00222746
-0.00200049
-0.00175582
-0.00150067
-0.00124294
-0.000989464
-0.000744889
-0.000511114
-0.000287645
-7.21379e-05
0.000139184
0.000351183
0.000569558
0.000800701
0.00105171
0.0013302
0.00164516
0.00200431
0.00242486
0.00289791
0.00354636
2.8345e-06
2.84866e-06
2.88182e-06
2.93403e-06
3.00432e-06
3.09251e-06
3.19931e-06
3.3256e-06
3.4722e-06
3.63994e-06
3.82979e-06
4.04288e-06
4.28052e-06
4.54417e-06
4.83546e-06
5.15619e-06
5.50831e-06
5.89393e-06
6.31535e-06
6.77508e-06
7.27593e-06
7.82095e-06
8.41354e-06
9.05735e-06
9.75635e-06
1.05148e-05
1.13372e-05
1.22285e-05
1.31941e-05
1.42398e-05
1.53719e-05
1.65972e-05
1.79231e-05
1.93575e-05
2.09089e-05
2.25865e-05
2.44005e-05
2.63614e-05
2.84811e-05
3.07721e-05
3.32482e-05
3.59238e-05
3.88151e-05
4.19389e-05
4.53137e-05
4.89593e-05
5.28971e-05
5.71498e-05
6.17421e-05
6.67007e-05
7.20539e-05
7.78325e-05
8.40694e-05
9.07999e-05
9.8062e-05
0.000105896
0.000114346
0.000123457
0.00013328
0.000143866
0.000155273
0.00016756
0.00018079
0.000195029
0.000210349
0.000226825
0.000244533
0.00026355
0.000283962
0.000305876
0.000329376
0.000354556
0.000381511
0.000410343
0.00044115
0.000474032
0.000509083
0.000546393
0.000586045
0.000628118
0.000672675
0.000719757
0.000769375
0.000821509
0.000876111
0.000933102
0.000992349
0.00105363
0.00111664
0.0011811
0.00124686
0.00131351
0.00137706
0.0014177
0.00147044
0.0015276
0.00158513
0.00163577
0.00167687
0.0017082
0.00173021
0.00174358
0.00174943
0.00175019
0.00175051
0.00175807
0.00178351
0.00183914
0.00193563
0.00207632
0.0022509
0.00243447
0.00259804
0.00272694
0.00283178
0.00294448
0.00310433
0.00334659
0.00369605
0.00416867
0.00477716
0.00553347
0.00644639
0.00751952
0.00875052
0.010128
0.0116287
0.0132191
0.0148612
0.0165171
0.0181532
0.0197373
0.0212492
0.0226633
0.0239609
0.0251266
0.0261467
0.0270084
0.0276993
0.0282066
0.0285175
0.0286192
0.0284983
0.0281218
0.02754
0.0267261
0.0256736
0.024381
0.0228553
0.0211078
0.0191537
0.0170139
0.0147169
0.0123007
0.00981563
0.00732392
0.00489663
0.00260853
0.000529203
-0.00128662
-0.00280684
-0.00402445
-0.00495325
-0.00561924
-0.00605326
-0.00628711
-0.00635179
-0.00627419
-0.00607301
-0.00576366
-0.00536873
-0.00491083
-0.00441978
-0.00393525
-0.00349848
-0.00313777
-0.00285709
-0.00263484
-0.00243549
-0.00222878
-0.00200188
-0.00175671
-0.00150091
-0.00124259
-0.000988716
-0.000743968
-0.000510225
-0.000286956
-7.17805e-05
0.00013911
0.0003506
0.000568401
0.000798908
0.00104921
0.00132694
0.00164105
0.00199928
0.0024188
0.00289073
0.00353783
2.83143e-06
2.84599e-06
2.87939e-06
2.93175e-06
3.00219e-06
3.09048e-06
3.19733e-06
3.32367e-06
3.4703e-06
3.63807e-06
3.82796e-06
4.04112e-06
4.27886e-06
4.54264e-06
4.8341e-06
5.15504e-06
5.50741e-06
5.89331e-06
6.31504e-06
6.77508e-06
7.27622e-06
7.8215e-06
8.41427e-06
9.05816e-06
9.75707e-06
1.05152e-05
1.13371e-05
1.22276e-05
1.31921e-05
1.42364e-05
1.53668e-05
1.65902e-05
1.79138e-05
1.93456e-05
2.08943e-05
2.2569e-05
2.43799e-05
2.63377e-05
2.84542e-05
3.07421e-05
3.32148e-05
3.58871e-05
3.87749e-05
4.18951e-05
4.52662e-05
4.89078e-05
5.28412e-05
5.70893e-05
6.16766e-05
6.66297e-05
7.1977e-05
7.77492e-05
8.39792e-05
9.07022e-05
9.7956e-05
0.000105781
0.000114221
0.000123322
0.000133132
0.000143706
0.000155099
0.000167371
0.000180585
0.000194808
0.000210112
0.000226572
0.000244267
0.000263276
0.000283684
0.000305587
0.000329073
0.000354236
0.000381174
0.000409988
0.000440777
0.000473642
0.000508677
0.000545972
0.000585611
0.000627673
0.000672223
0.000719304
0.000768926
0.000821067
0.000875681
0.000932693
0.000991988
0.00105338
0.00111655
0.00118094
0.00124565
0.00130996
0.0013754
0.00143837
0.00151041
0.0015728
0.00162569
0.00166927
0.00170442
0.00173168
0.00175104
0.00176244
0.00176636
0.00176474
0.001762
0.00176584
0.0017874
0.00183996
0.0019356
0.00207891
0.00225951
0.00244999
0.00261734
0.00274395
0.00284095
0.00294214
0.00309017
0.00332171
0.00366222
0.00412708
0.00472857
0.00547885
0.00638706
0.00745722
0.00868779
0.0100682
0.0115749
0.0131734
0.0148251
0.0164926
0.0181423
0.0197401
0.0212605
0.0226802
0.0239821
0.0251513
0.0261747
0.0270398
0.0277347
0.0282468
0.0285641
0.028675
0.0285699
0.0282266
0.0276611
0.0268446
0.0257833
0.0244824
0.0229486
0.0211921
0.019227
0.0170734
0.0147594
0.0123232
0.00981534
0.00729831
0.00484518
0.00253302
0.000433916
-0.00139538
-0.00292183
-0.00413895
-0.00506201
-0.00571877
-0.00614142
-0.00636272
-0.00641383
-0.0063211
-0.00610562
-0.00578658
-0.00538442
-0.0049193
-0.00442053
-0.00392858
-0.00348682
-0.00312516
-0.00284762
-0.00263075
-0.00243616
-0.00223174
-0.00200486
-0.00175861
-0.00150146
-0.00124193
-0.00098724
-0.000742137
-0.000508458
-0.00028559
-7.10766e-05
0.000138952
0.000349425
0.000566079
0.000795316
0.00104423
0.00132043
0.00163285
0.00198922
0.00240667
0.00287636
0.00352078
2.82681e-06
2.84129e-06
2.87454e-06
2.92669e-06
2.99688e-06
3.08489e-06
3.19145e-06
3.31745e-06
3.46372e-06
3.63108e-06
3.82051e-06
4.03315e-06
4.27031e-06
4.53343e-06
4.82414e-06
5.14424e-06
5.49567e-06
5.88052e-06
6.30108e-06
6.75986e-06
7.25962e-06
7.80343e-06
8.39463e-06
9.03687e-06
9.73407e-06
1.04904e-05
1.13105e-05
1.21992e-05
1.31619e-05
1.42044e-05
1.5333e-05
1.65545e-05
1.78764e-05
1.93064e-05
2.08531e-05
2.25258e-05
2.43346e-05
2.629e-05
2.8404e-05
3.06889e-05
3.31584e-05
3.58271e-05
3.87109e-05
4.18267e-05
4.51928e-05
4.88291e-05
5.27567e-05
5.69985e-05
6.1579e-05
6.65247e-05
7.18642e-05
7.7628e-05
8.38489e-05
9.05622e-05
9.78057e-05
0.00010562
0.000114048
0.000123136
0.000132934
0.000143494
0.000154872
0.000167128
0.000180326
0.000194531
0.000209815
0.000226253
0.000243923
0.000262906
0.000283287
0.000305163
0.000328621
0.000353757
0.000380668
0.000409455
0.000440218
0.000473057
0.000508068
0.00054534
0.000584959
0.000627005
0.000671544
0.000718622
0.000768249
0.000820405
0.000875045
0.0009321
0.000991446
0.00105286
0.00111601
0.00118055
0.00124622
0.00131259
0.001378
0.00143626
0.00149464
0.00154849
0.00159894
0.00164433
0.00168268
0.00171292
0.00173455
0.00174749
0.00175223
0.00175068
0.00174721
0.00174955
0.0017691
0.00181989
0.0019152
0.00206096
0.00224695
0.00244345
0.00261378
0.00273828
0.0028292
0.00292404
0.00306694
0.00329627
0.00363682
0.0041025
0.00470498
0.00545681
0.0063675
0.00744129
0.00867723
0.0100652
0.0115808
0.0131882
0.0148475
0.0165207
0.0181733
0.019773
0.0212947
0.0227165
0.0240206
0.0251922
0.0262177
0.0270848
0.0277809
0.0282934
0.0286091
0.0287155
0.0286005
0.0282486
0.0276701
0.0268512
0.0257922
0.0244945
0.0229633
0.0212085
0.0192443
0.0170903
0.0147742
0.0123337
0.00981852
0.00729201
0.00482835
0.00250642
0.000400362
-0.00143153
-0.00295597
-0.00416777
-0.00508442
-0.00573546
-0.00615387
-0.00637283
-0.00642377
-0.00633254
-0.00611876
-0.00579986
-0.00539471
-0.00492383
-0.00441611
-0.00391466
-0.0034665
-0.00310422
-0.00283213
-0.00262398
-0.00243694
-0.00223609
-0.00200925
-0.00176135
-0.00150217
-0.00124083
-0.000984916
-0.000739294
-0.000505725
-0.000283471
-6.99636e-05
0.000138763
0.000347704
0.000562631
0.000789961
0.00103678
0.00131068
0.00162057
0.00197415
0.0023885
0.00285484
0.00349523
2.8206e-06
2.83499e-06
2.86819e-06
2.92025e-06
2.99033e-06
3.07822e-06
3.18462e-06
3.31041e-06
3.45643e-06
3.62351e-06
3.81261e-06
4.02488e-06
4.26162e-06
4.52429e-06
4.81451e-06
5.13408e-06
5.48493e-06
5.86916e-06
6.28906e-06
6.74713e-06
7.24613e-06
7.78913e-06
8.37944e-06
9.0207e-06
9.7168e-06
1.04719e-05
1.12906e-05
1.21778e-05
1.31387e-05
1.41791e-05
1.53055e-05
1.65244e-05
1.78433e-05
1.92701e-05
2.08132e-05
2.2482e-05
2.42864e-05
2.62371e-05
2.83459e-05
3.06254e-05
3.3089e-05
3.57514e-05
3.86284e-05
4.17371e-05
4.50956e-05
4.87237e-05
5.26426e-05
5.6875e-05
6.14455e-05
6.63806e-05
7.17087e-05
7.74602e-05
8.3668e-05
9.03673e-05
9.75958e-05
0.000105394
0.000113805
0.000122875
0.000132653
0.000143192
0.000154549
0.000166782
0.000179954
0.000194134
0.000209391
0.000225801
0.000243443
0.000262396
0.000282748
0.000304591
0.000328016
0.000353117
0.000379993
0.000408744
0.000439472
0.000472277
0.000507256
0.000544498
0.00058409
0.000626112
0.000670638
0.000717712
0.000767347
0.00081952
0.000874186
0.00093128
0.000990703
0.00105228
0.0011157
0.00118047
0.00124586
0.0013111
0.00137552
0.00143729
0.00150135
0.00156289
0.00161847
0.00166591
0.00170424
0.00173345
0.0017537
0.00176505
0.00176781
0.00176353
0.00175629
0.00175388
0.00176826
0.00181478
0.00190885
0.00205855
0.00225369
0.00246056
0.0026359
0.00275609
0.00283475
0.00291302
0.00304026
0.00325693
0.00358773
0.00404499
0.00463973
0.00538529
0.00629183
0.00736414
0.00860257
0.00999798
0.0115255
0.0131472
0.0148215
0.0165097
0.0181766
0.0197896
0.0213223
0.022753
0.0240644
0.0252421
0.0262735
0.0271466
0.0278494
0.0283693
0.0286936
0.0288098
0.0287056
0.0283672
0.027796
0.0269811
0.0259207
0.0246181
0.0230797
0.0213152
0.0193385
0.0171687
0.0148323
0.0123664
0.00982128
0.00726119
0.00476279
0.00240855
0.000276593
-0.00157165
-0.00310179
-0.00431012
-0.00521723
-0.00585546
-0.00625951
-0.00646389
-0.00650097
-0.00639672
-0.00617057
-0.00584024
-0.00542401
-0.00493981
-0.00441663
-0.00390002
-0.00344158
-0.0030775
-0.00281236
-0.00261591
-0.00243898
-0.00224271
-0.00201561
-0.00176527
-0.00150323
-0.0012394
-0.000981818
-0.000735498
-0.00050208
-0.000280653
-6.84921e-05
0.000138497
0.000345397
0.000558028
0.000782821
0.00102685
0.00129769
0.00160422
0.00195409
0.00236432
0.00282619
0.00346121
2.81283e-06
2.82715e-06
2.86028e-06
2.91222e-06
2.98211e-06
3.06975e-06
3.17583e-06
3.30126e-06
3.44685e-06
3.61342e-06
3.80197e-06
4.01361e-06
4.24965e-06
4.51154e-06
4.8009e-06
5.1195e-06
5.46928e-06
5.85234e-06
6.27094e-06
6.72759e-06
7.22504e-06
7.76634e-06
8.35482e-06
8.99407e-06
9.68798e-06
1.04408e-05
1.12569e-05
1.21413e-05
1.30993e-05
1.41367e-05
1.52598e-05
1.64752e-05
1.77904e-05
1.92133e-05
2.07523e-05
2.24167e-05
2.42163e-05
2.61621e-05
2.82655e-05
3.05392e-05
3.29966e-05
3.56523e-05
3.85222e-05
4.1623e-05
4.49731e-05
4.8592e-05
5.2501e-05
5.67228e-05
6.12818e-05
6.62044e-05
7.15191e-05
7.72562e-05
8.34485e-05
9.01312e-05
9.73418e-05
0.000105121
0.000113511
0.000122559
0.000132314
0.000142828
0.000154158
0.000166362
0.000179505
0.000193652
0.000208876
0.00022525
0.000242853
0.000261768
0.000282079
0.00030388
0.000327262
0.000352319
0.00037915
0.000407856
0.000438539
0.000471302
0.000506241
0.000543445
0.000583002
0.000624996
0.000669503
0.000716573
0.000766216
0.000818411
0.000873115
0.000930276
0.000989801
0.00105149
0.001115
0.00117988
0.00124565
0.00131185
0.0013776
0.00144071
0.00150277
0.00156078
0.00161272
0.0016577
0.00169495
0.00172401
0.00174454
0.00175611
0.00175853
0.00175283
0.00174277
0.00173606
0.00174527
0.00178723
0.00187993
0.00203434
0.0022408
0.00246078
0.00264291
0.00275889
0.00282439
0.00288686
0.00300035
0.00320826
0.00353452
0.00398874
0.0045808
0.00532498
0.00623211
0.00730735
0.00855252
0.00995969
0.0115029
0.0131413
0.0148314
0.0165334
0.0182119
0.0198342
0.0213741
0.0228107
0.0241272
0.0253096
0.0263454
0.0272226
0.0279291
0.028452
0.0287782
0.0288946
0.0287887
0.0284489
0.0278736
0.0270559
0.0259937
0.0246897
0.0231495
0.021382
0.0194004
0.0172228
0.0148746
0.0123921
0.00982482
0.0072381
0.00471106
0.00233009
0.000177677
-0.00168129
-0.00321153
-0.00441161
-0.00530625
-0.00593124
-0.00632299
-0.00651703
-0.0065464
-0.00643643
-0.00620514
-0.00586936
-0.00544558
-0.00494999
-0.00441032
-0.00387629
-0.00340601
-0.00304069
-0.00278553
-0.00260507
-0.00244164
-0.00225126
-0.00202363
-0.00177007
-0.00150434
-0.00123734
-0.000977662
-0.000730495
-0.000497302
-0.000276943
-6.64986e-05
0.000138291
0.00034262
0.000552366
0.000773979
0.00101452
0.00128154
0.00158385
0.0019291
0.00233417
0.00279046
0.00341876
2.80351e-06
2.81777e-06
2.8508e-06
2.90257e-06
2.97223e-06
3.05959e-06
3.16533e-06
3.29035e-06
3.43547e-06
3.60151e-06
3.78945e-06
4.00041e-06
4.2357e-06
4.49676e-06
4.7852e-06
5.1028e-06
5.45147e-06
5.83331e-06
6.25059e-06
6.70581e-06
7.20173e-06
7.74137e-06
8.32805e-06
8.96535e-06
9.65715e-06
1.04076e-05
1.12213e-05
1.2103e-05
1.30581e-05
1.40923e-05
1.52118e-05
1.64235e-05
1.77346e-05
1.91529e-05
2.0687e-05
2.2346e-05
2.41398e-05
2.60791e-05
2.81756e-05
3.04418e-05
3.2891e-05
3.5538e-05
3.83983e-05
4.14889e-05
4.4828e-05
4.84351e-05
5.23313e-05
5.65394e-05
6.10838e-05
6.59907e-05
7.12885e-05
7.70076e-05
8.31806e-05
8.98426e-05
9.70311e-05
0.000104786
0.000113152
0.000122173
0.000131899
0.000142383
0.00015368
0.000165851
0.000178957
0.000193066
0.00020825
0.000224582
0.000242141
0.000261009
0.000281274
0.000303025
0.000326356
0.000351361
0.000378138
0.000406789
0.00043742
0.000470132
0.000505022
0.00054218
0.000581695
0.000623654
0.000668139
0.000715203
0.000764859
0.000817079
0.000871822
0.000929043
0.000988672
0.00105055
0.00111435
0.00117959
0.00124565
0.00131186
0.00137739
0.0014411
0.00150416
0.00156462
0.0016198
0.00166776
0.00170712
0.00173735
0.0017583
0.00176956
0.00177066
0.00176223
0.00174765
0.00173466
0.0017365
0.00177194
0.00186234
0.00202256
0.00224373
0.0024809
0.00267161
0.00278107
0.00282782
0.00286652
0.00295849
0.00315077
0.00346635
0.0039114
0.00449464
0.00523191
0.00613497
0.00720954
0.0084596
0.00987914
0.0114409
0.0131005
0.0148116
0.0165336
0.0182302
0.0198685
0.0214216
0.0228691
0.024195
0.0253857
0.0264292
0.0273144
0.0280293
0.0285613
0.0288969
0.0290227
0.028926
0.028595
0.0280253
0.0272104
0.0261478
0.0248402
0.0232932
0.0215158
0.0195206
0.0173246
0.0149522
0.0124381
0.00983211
0.00720088
0.00462702
0.00220228
1.52224e-05
-0.00186441
-0.00339979
-0.00459223
-0.00547179
-0.00607873
-0.00645167
-0.00662764
-0.00664111
-0.00651715
-0.00627259
-0.00592389
-0.00548647
-0.00497264
-0.00440951
-0.00385142
-0.00336468
-0.00299677
-0.00275376
-0.00259335
-0.00244666
-0.00226305
-0.00203418
-0.00177628
-0.00150586
-0.00123489
-0.000972649
-0.00072447
-0.000491568
-0.000272513
-6.41397e-05
0.000138009
0.000339261
0.000545559
0.000763373
0.000999754
0.0012622
0.00155949
0.00189919
0.00229809
0.00274769
0.00336793
2.79264e-06
2.80684e-06
2.83975e-06
2.89133e-06
2.96073e-06
3.04776e-06
3.1531e-06
3.27765e-06
3.42221e-06
3.5876e-06
3.77481e-06
3.98496e-06
4.21933e-06
4.47938e-06
4.7667e-06
5.08305e-06
5.43035e-06
5.81068e-06
6.22632e-06
6.67975e-06
7.17372e-06
7.71124e-06
8.29561e-06
8.93039e-06
9.61943e-06
1.03669e-05
1.11773e-05
1.20555e-05
1.30068e-05
1.40369e-05
1.51521e-05
1.6359e-05
1.7665e-05
1.90778e-05
2.06059e-05
2.22585e-05
2.40454e-05
2.59774e-05
2.8066e-05
3.03236e-05
3.27637e-05
3.54009e-05
3.82507e-05
4.13299e-05
4.46567e-05
4.82507e-05
5.21328e-05
5.63256e-05
6.08535e-05
6.57428e-05
7.10217e-05
7.67204e-05
8.28715e-05
8.95099e-05
9.66732e-05
0.000104402
0.000112738
0.000121728
0.000131421
0.00014187
0.00015313
0.00016526
0.000178324
0.000192389
0.000207524
0.000223807
0.000241314
0.000260128
0.000280336
0.000302029
0.0003253
0.000350243
0.000376957
0.000405545
0.000436113
0.000468765
0.000503599
0.000540704
0.000580169
0.000622086
0.000666544
0.000713602
0.000763269
0.000815517
0.000870307
0.000927609
0.000987377
0.00104945
0.00111349
0.00117898
0.00124533
0.00131203
0.00137847
0.00144368
0.00150768
0.00156841
0.00162311
0.00167002
0.00170819
0.00173742
0.00175761
0.00176809
0.00176778
0.00175653
0.00173709
0.00171701
0.00171023
0.00173767
0.00182482
0.00199176
0.00223119
0.0024903
0.00269245
0.00279479
0.0028199
0.00283241
0.00290182
0.00307975
0.00338751
0.00382631
0.00440327
0.00513628
0.00603802
0.00711454
0.00837253
0.00980846
0.0113932
0.0130779
0.0148126
0.0165559
0.0182712
0.0199247
0.0214899
0.0229471
0.0242812
0.0254792
0.0265296
0.0274215
0.0281431
0.0286814
0.0290226
0.0291529
0.0290592
0.0287301
0.0281601
0.0273436
0.0262785
0.0249672
0.0234151
0.0216307
0.0196256
0.0174154
0.0150226
0.0124806
0.00983822
0.0071635
0.00454285
0.00207414
-0.000146974
-0.00204498
-0.00358141
-0.00476129
-0.00562153
-0.00620781
-0.00656098
-0.00671949
-0.00671924
-0.00658449
-0.00632993
-0.00597135
-0.00552233
-0.00499108
-0.00440222
-0.00381649
-0.00331077
-0.00294074
-0.00271382
-0.00257922
-0.00245354
-0.00227784
-0.00204687
-0.00178338
-0.00150719
-0.00123144
-0.000966185
-0.000716875
-0.000484388
-0.000266934
-6.10519e-05
0.000137954
0.000335566
0.000537806
0.000751165
0.000982673
0.00123979
0.0015312
0.00186444
0.00225614
0.00269794
0.00330878
2.78024e-06
2.79437e-06
2.82714e-06
2.8785e-06
2.94761e-06
3.03426e-06
3.13914e-06
3.26314e-06
3.40706e-06
3.57173e-06
3.75811e-06
3.96733e-06
4.20068e-06
4.45958e-06
4.74564e-06
5.0606e-06
5.40636e-06
5.78501e-06
6.19882e-06
6.65026e-06
7.14208e-06
7.67726e-06
8.2591e-06
8.89112e-06
9.57718e-06
1.03214e-05
1.11283e-05
1.20027e-05
1.29499e-05
1.39756e-05
1.5086e-05
1.62877e-05
1.7588e-05
1.89948e-05
2.05163e-05
2.21618e-05
2.3941e-05
2.58647e-05
2.79442e-05
3.01921e-05
3.26217e-05
3.52474e-05
3.80849e-05
4.11509e-05
4.44634e-05
4.80419e-05
5.19073e-05
5.60822e-05
6.05909e-05
6.54596e-05
7.07162e-05
7.63911e-05
8.25167e-05
8.91279e-05
9.62619e-05
0.000103959
0.000112262
0.000121216
0.000130871
0.00014128
0.000152497
0.000164582
0.000177598
0.000191611
0.000206693
0.000222919
0.000240367
0.000259119
0.000279264
0.000300891
0.000324093
0.000348966
0.000375608
0.000404123
0.000434619
0.000467203
0.000501972
0.000539015
0.000578422
0.00062029
0.000664717
0.000711767
0.00076145
0.00081373
0.000868569
0.00092595
0.000985856
0.00104816
0.00111253
0.00117842
0.00124523
0.00131239
0.00137931
0.00144526
0.00151
0.00157177
0.0016279
0.00167636
0.00171596
0.00174636
0.00176743
0.00177822
0.00177703
0.00176294
0.00173802
0.00170958
0.00169234
0.00170975
0.00179234
0.00196705
0.00222916
0.00251603
0.00273249
0.00282532
0.00282275
0.00280157
0.00284184
0.00300079
0.00329738
0.00372618
0.00429253
0.00501745
0.00591468
0.00699046
0.00825524
0.00970891
0.0113202
0.0130341
0.0147969
0.016566
0.0183044
0.0199776
0.0215586
0.0230289
0.0243741
0.025582
0.0266419
0.0275434
0.0282751
0.0288239
0.0291758
0.0293163
0.0292317
0.0289105
0.0283455
0.0275311
0.0264652
0.0251499
0.0235907
0.0217956
0.0197754
0.0175443
0.0151228
0.0125424
0.00985117
0.00711878
0.00443632
0.0019093
-0.000357667
-0.00228169
-0.00382201
-0.00498827
-0.00582604
-0.00638761
-0.00671622
-0.006852
-0.00683296
-0.0066825
-0.00641286
-0.00603973
-0.00557529
-0.00502114
-0.00439936
-0.00377832
-0.00324813
-0.00287466
-0.00266736
-0.00256469
-0.00246447
-0.0022974
-0.00206288
-0.00179224
-0.00150903
-0.0012276
-0.000958824
-0.000708245
-0.000476271
-0.000260673
-5.76452e-05
0.000137782
0.000331264
0.000528905
0.000737217
0.000963202
0.00121426
0.001499
0.00182489
0.0022084
0.00264131
0.0032414
2.7663e-06
2.78036e-06
2.81297e-06
2.8641e-06
2.93287e-06
3.01909e-06
3.12346e-06
3.24685e-06
3.39005e-06
3.5539e-06
3.73935e-06
3.94753e-06
4.17972e-06
4.43734e-06
4.72198e-06
5.03536e-06
5.37939e-06
5.75614e-06
6.16787e-06
6.61705e-06
7.10642e-06
7.63895e-06
8.21789e-06
8.84677e-06
9.52939e-06
1.02699e-05
1.10727e-05
1.19428e-05
1.28852e-05
1.39058e-05
1.50106e-05
1.62064e-05
1.75003e-05
1.89e-05
2.0414e-05
2.20513e-05
2.38218e-05
2.57359e-05
2.78052e-05
3.00421e-05
3.24599e-05
3.50729e-05
3.78966e-05
4.09478e-05
4.42444e-05
4.78058e-05
5.16528e-05
5.58079e-05
6.02953e-05
6.51411e-05
7.03732e-05
7.60218e-05
8.21191e-05
8.86999e-05
9.58014e-05
0.000103464
0.000111729
0.000120644
0.000130256
0.000140619
0.000151788
0.000163822
0.000176784
0.00019074
0.000205761
0.000221923
0.000239304
0.000257987
0.000278059
0.000299611
0.000322736
0.00034753
0.00037409
0.000402522
0.000432937
0.000465444
0.00050014
0.000537114
0.000576454
0.000618265
0.000662655
0.000709696
0.000759397
0.000811712
0.0008666
0.000924068
0.000984137
0.00104671
0.00111143
0.00117773
0.00124495
0.00131258
0.00138024
0.0014474
0.00151353
0.00157663
0.00163381
0.00168272
0.00172217
0.00175213
0.00177272
0.00178281
0.00177995
0.00176221
0.00173074
0.00169237
0.00166247
0.00166723
0.00174327
0.00192647
0.00221633
0.00253815
0.00277297
0.0028547
0.00281923
0.00275903
0.00276689
0.00290673
0.00319398
0.00361411
0.00417036
0.0048881
0.00578198
0.00685795
0.00813131
0.00960661
0.0112496
0.0129977
0.0147921
0.0165897
0.0183532
0.0200469
0.0216441
0.0231274
0.0244836
0.0257012
0.0267703
0.0276812
0.0284224
0.0289809
0.0293419
0.0294904
0.0294123
0.0290957
0.0285326
0.0277177
0.026649
0.0253287
0.0237621
0.0219571
0.0199231
0.0176726
0.0152235
0.0126048
0.00986329
0.00706994
0.00432109
0.00173107
-0.000584881
-0.00253497
-0.00407572
-0.00522277
-0.00603265
-0.00656562
-0.00686708
-0.00697873
-0.00694113
-0.00677616
-0.00649262
-0.00610636
-0.00562798
-0.00505073
-0.00439186
-0.00372962
-0.0031707
-0.00279376
-0.00261138
-0.0025487
-0.00247946
-0.00232158
-0.00208155
-0.00180181
-0.00151016
-0.00122204
-0.00094928
-0.00069739
-0.000466154
-0.000252813
-5.31552e-05
0.000138113
0.000326842
0.00051923
0.000721807
0.000941542
0.00118577
0.001463
0.00178062
0.00215491
0.00257783
0.00316582
2.75084e-06
2.76483e-06
2.79726e-06
2.84811e-06
2.91652e-06
3.00227e-06
3.10607e-06
3.22878e-06
3.37119e-06
3.53413e-06
3.71855e-06
3.92557e-06
4.15648e-06
4.41267e-06
4.69573e-06
5.00737e-06
5.34947e-06
5.72412e-06
6.13355e-06
6.58025e-06
7.06691e-06
7.59651e-06
8.17225e-06
8.79765e-06
9.47649e-06
1.02129e-05
1.10113e-05
1.18765e-05
1.28138e-05
1.38288e-05
1.49276e-05
1.61168e-05
1.74036e-05
1.87957e-05
2.03014e-05
2.19298e-05
2.36906e-05
2.55943e-05
2.76524e-05
2.98771e-05
3.22818e-05
3.48807e-05
3.76892e-05
4.07239e-05
4.40028e-05
4.75451e-05
5.13715e-05
5.55045e-05
5.99681e-05
6.47883e-05
6.99929e-05
7.5612e-05
8.16776e-05
8.82244e-05
9.52896e-05
0.000102913
0.000111137
0.000120007
0.000129572
0.000139885
0.000151
0.000162977
0.000175878
0.000189771
0.000204725
0.000220816
0.000238123
0.000256728
0.00027672
0.000298189
0.000321229
0.000345934
0.000372404
0.000400744
0.000431068
0.000463489
0.000498104
0.000534999
0.000574264
0.000616009
0.000660356
0.000707387
0.000757109
0.000809462
0.000864402
0.000921956
0.000982194
0.00104506
0.00111019
0.00117697
0.00124471
0.00131292
0.00138132
0.00144957
0.00151694
0.00158137
0.00163981
0.00168973
0.00172989
0.00176047
0.00178178
0.00179232
0.00178872
0.00176781
0.00172957
0.00168018
0.00163556
0.00162486
0.00169195
0.00188439
0.00220821
0.00257389
0.00283172
0.00289943
0.00282345
0.00271576
0.00268489
0.0028028
0.0030799
0.0034894
0.00403228
0.00474025
0.00562869
0.00670256
0.00798367
0.00948293
0.0111623
0.0129494
0.0147796
0.0166095
0.0184017
0.0201191
0.0217348
0.0232333
0.0246023
0.0258313
0.0269114
0.0278335
0.0285868
0.0291577
0.0295311
0.0296913
0.0296234
0.0293148
0.0287568
0.0279437
0.0268736
0.0255485
0.0239738
0.0221569
0.0201063
0.0178325
0.0153504
0.0126859
0.0098842
0.00701763
0.00418859
0.00152196
-0.000854055
-0.00283656
-0.00437854
-0.00550309
-0.00628062
-0.00678087
-0.007051
-0.00713431
-0.00707481
-0.00689242
-0.00659149
-0.00618916
-0.00569511
-0.00509071
-0.00438687
-0.00367408
-0.0030796
-0.00269793
-0.00254627
-0.0025332
-0.00250136
-0.00235292
-0.0021048
-0.00181376
-0.00151213
-0.00121627
-0.000939009
-0.000685695
-0.000455305
-0.000244469
-4.85178e-05
0.000138196
0.000321734
0.000508382
0.000704684
0.000917566
0.00115428
0.00142324
0.00173173
0.00209582
0.00250767
0.00308224
2.73386e-06
2.74777e-06
2.78001e-06
2.83057e-06
2.89857e-06
2.98381e-06
3.08698e-06
3.20894e-06
3.35048e-06
3.51242e-06
3.69571e-06
3.90147e-06
4.13096e-06
4.38559e-06
4.66691e-06
4.97663e-06
5.31663e-06
5.68896e-06
6.09587e-06
6.53983e-06
7.02353e-06
7.54989e-06
8.12212e-06
8.74369e-06
9.41838e-06
1.01503e-05
1.09438e-05
1.18037e-05
1.27353e-05
1.37441e-05
1.48362e-05
1.60182e-05
1.72972e-05
1.86808e-05
2.01774e-05
2.17959e-05
2.3546e-05
2.54382e-05
2.74839e-05
2.96952e-05
3.20854e-05
3.46688e-05
3.74605e-05
4.04772e-05
4.37366e-05
4.72579e-05
5.10618e-05
5.51705e-05
5.96081e-05
6.44003e-05
6.95749e-05
7.51617e-05
8.11927e-05
8.77024e-05
9.47278e-05
0.000102309
0.000110487
0.000119309
0.000128822
0.000139079
0.000150136
0.00016205
0.000174885
0.000188707
0.000203587
0.0002196
0.000236825
0.000255345
0.000275249
0.000296626
0.000319572
0.00034418
0.000370549
0.000398787
0.000429011
0.000461336
0.000495863
0.000532671
0.000571851
0.00061352
0.000657817
0.000704839
0.000754584
0.000806978
0.000861965
0.000919602
0.000980019
0.00104321
0.00110881
0.00117612
0.00124439
0.00131315
0.00138232
0.00145179
0.00152077
0.00158696
0.00164698
0.00169792
0.00173845
0.00176908
0.00179052
0.00180106
0.00179627
0.00177155
0.00172548
0.00166327
0.00160113
0.00157127
0.00162599
0.001828
0.00219321
0.00261405
0.00290094
0.00295148
0.0028269
0.00266342
0.00258818
0.00268341
0.00295236
0.00335151
0.00387957
0.00457729
0.00546014
0.00653094
0.00782017
0.00934731
0.0110693
0.0129012
0.0147713
0.0166369
0.0184606
0.0202034
0.0218387
0.023353
0.0247353
0.0259761
0.0270675
0.0280014
0.0287671
0.0293509
0.0297368
0.0299083
0.0298498
0.0295481
0.0289937
0.0281809
0.0271078
0.0257767
0.0241932
0.0223642
0.0202971
0.0180002
0.0154847
0.0127726
0.00990667
0.00696036
0.00404271
0.00129078
-0.00115176
-0.0031685
-0.00470804
-0.005803
-0.00654137
-0.00700427
-0.0072397
-0.00729224
-0.00721048
-0.00701132
-0.00669306
-0.00627557
-0.00576788
-0.0051358
-0.00438036
-0.00360775
-0.00297068
-0.00258327
-0.00246958
-0.00251791
-0.00253072
-0.00239097
-0.00213086
-0.00182561
-0.00151213
-0.00120737
-0.000925206
-0.000670611
-0.000441501
-0.000233775
-4.22255e-05
0.000139205
0.000316812
0.000496978
0.00068626
0.000891526
0.00111994
0.00137977
0.00167823
0.00203111
0.0024308
0.00299059
2.71538e-06
2.72919e-06
2.76123e-06
2.81147e-06
2.87903e-06
2.96371e-06
3.06619e-06
3.18734e-06
3.32794e-06
3.48879e-06
3.67085e-06
3.87522e-06
4.10318e-06
4.3561e-06
4.63553e-06
4.94317e-06
5.28087e-06
5.65069e-06
6.05486e-06
6.49584e-06
6.9763e-06
7.49915e-06
8.06755e-06
8.68496e-06
9.35512e-06
1.00821e-05
1.08703e-05
1.17245e-05
1.26499e-05
1.36519e-05
1.47368e-05
1.59109e-05
1.71814e-05
1.85559e-05
2.00425e-05
2.16503e-05
2.33889e-05
2.52686e-05
2.73008e-05
2.94976e-05
3.18721e-05
3.44386e-05
3.72121e-05
4.02091e-05
4.34473e-05
4.69458e-05
5.07252e-05
5.48075e-05
5.92166e-05
6.39783e-05
6.91201e-05
7.46716e-05
8.06648e-05
8.71339e-05
9.41159e-05
0.00010165
0.000109779
0.000118547
0.000128004
0.000138201
0.000149193
0.000161039
0.000173802
0.000187548
0.000202347
0.000218275
0.000235411
0.000253838
0.000273644
0.000294922
0.000317765
0.000342268
0.000368527
0.000396651
0.000426764
0.000458986
0.000493416
0.00053013
0.000569213
0.000610795
0.000655035
0.000702047
0.000751822
0.00080426
0.000859294
0.000917009
0.000977613
0.00104116
0.00110728
0.00117518
0.00124404
0.0013134
0.0013834
0.00145416
0.00152489
0.00159302
0.00165477
0.00170684
0.00174785
0.00177882
0.00180098
0.00181235
0.00180716
0.00177907
0.00172488
0.00164842
0.00156586
0.0015124
0.00155011
0.00176127
0.00217662
0.00266652
0.00298966
0.00301859
0.0028351
0.0026054
0.00247867
0.00255031
0.00281349
0.00320186
0.00371226
0.00439832
0.0052745
0.00633969
0.00763608
0.00919473
0.0109661
0.0128486
0.0147627
0.0166675
0.0185259
0.0202963
0.0219527
0.0234839
0.0248805
0.0261339
0.0272375
0.0281844
0.0289642
0.0295628
0.0299635
0.0301488
0.0301021
0.0298094
0.0292606
0.0284494
0.0273742
0.0260373
0.0244445
0.0226025
0.0205178
0.0181957
0.0156435
0.0128783
0.00993967
0.00690187
0.00388134
0.00102948