/*--------------------------------*- C++ -*----------------------------------*\
| =========                 |                                                 |
| \\      /  F ield         | OpenFOAM: The Open Source CFD Toolbox           |
|  \\    /   O peration     | Version:  v2006                                 |
|   \\  /    A nd           | Website:  www.openfoam.com                      |
|    \\/     M anipulation  |                                                 |
\*---------------------------------------------------------------------------*/
FoamFile
{
    version     2.0;
    format      ascii;
    class       volScalarField;
    location    "6.75";
    object      r;
}
// * * * * * * * * * * * * * * * * * * * * * * * * * * * * * * * * * * * * * //

dimensions      [1 2 0 0 0 0 0];


internalField   nonuniform List<scalar> 
500
(
1.00018e-54
4.60807e-54
1.41118e-53
3.9301e-53
1.06071e-52
2.82683e-52
7.48473e-52
1.97296e-51
5.18115e-51
1.35582e-50
3.53572e-50
9.18882e-50
2.37984e-49
6.14241e-49
1.57989e-48
4.04958e-48
1.03438e-47
2.63292e-47
6.67838e-47
1.68803e-46
4.25166e-46
1.06709e-45
2.66872e-45
6.6506e-45
1.65146e-44
4.08621e-44
1.00743e-43
2.47482e-43
6.05763e-43
1.47737e-42
3.59001e-42
8.692e-42
2.09679e-41
5.03963e-41
1.20682e-40
2.8793e-40
6.84419e-40
1.62086e-39
3.82432e-39
8.9896e-39
2.10524e-38
4.9117e-38
1.14164e-37
2.64353e-37
6.09811e-37
1.40139e-36
3.20826e-36
7.31681e-36
1.66231e-35
3.76215e-35
8.48183e-35
1.90488e-34
4.26152e-34
9.49683e-34
2.10816e-33
4.66161e-33
1.02677e-32
2.25271e-32
4.92305e-32
1.07165e-31
2.32358e-31
5.01816e-31
1.07947e-30
2.31286e-30
4.9358e-30
1.04914e-29
2.22111e-29
4.68343e-29
9.83587e-29
2.05737e-28
4.28606e-28
8.89298e-28
1.8377e-27
3.78215e-27
7.75237e-27
1.58255e-26
3.21742e-26
6.51444e-26
1.31361e-25
2.63796e-25
5.27572e-25
1.05076e-24
2.08415e-24
4.11678e-24
8.09812e-24
1.58638e-23
3.09471e-23
6.01207e-23
1.16309e-22
2.24072e-22
4.29875e-22
8.2125e-22
1.56237e-21
2.95982e-21
5.58363e-21
1.0489e-20
1.9621e-20
3.65484e-20
6.77918e-20
1.25212e-19
2.30286e-19
4.21741e-19
7.69088e-19
1.39655e-18
2.52514e-18
4.54634e-18
8.15047e-18
1.45494e-17
2.58614e-17
4.57717e-17
8.06644e-17
1.41548e-16
2.47321e-16
4.30282e-16
7.45382e-16
1.28569e-15
2.20814e-15
3.77613e-15
6.42979e-15
1.09012e-14
1.84028e-14
3.09327e-14
5.17702e-14
8.62718e-14
1.43147e-13
2.36496e-13
3.89038e-13
6.37212e-13
1.03921e-12
1.68751e-12
2.72845e-12
4.3925e-12
7.04099e-12
1.12378e-11
1.78591e-11
2.82594e-11
4.45241e-11
6.98483e-11
1.09106e-10
1.69695e-10
2.62799e-10
4.05238e-10
6.22202e-10
9.51234e-10
1.44804e-09
2.19488e-09
3.3127e-09
4.97844e-09
7.44986e-09
1.11006e-08
1.647e-08
2.43325e-08
3.57958e-08
5.2436e-08
7.6486e-08
1.11094e-07
1.6068e-07
2.31415e-07
3.31886e-07
4.73971e-07
6.74041e-07
9.54538e-07
1.3461e-06
1.89033e-06
2.64352e-06
3.6814e-06
5.10543e-06
7.05089e-06
9.6973e-06
1.32818e-05
1.81162e-05
2.46085e-05
3.32899e-05
4.48494e-05
6.01753e-05
8.04089e-05
0.000107008
0.000141828
0.000187217
0.000246133
0.000322284
0.0004203
0.000545929
0.000706276
0.000910077
0.00116803
0.00149316
0.00190125
0.00241137
0.00304635
0.00383351
0.00480528
0.00600002
0.00746287
0.00924662
0.0114128
0.0140326
0.0171882
0.0209736
0.0254962
0.0308776
0.037255
0.0447825
0.0536317
0.0639928
0.0760757
0.0901103
0.106347
0.125057
0.146531
0.17108
0.199034
0.230741
0.266562
0.306874
0.352063
0.402521
0.458645
0.520829
0.589461
0.66492
0.747564
0.837733
0.935736
1.04185
1.1563
1.27929
1.41095
1.55137
1.70055
1.85846
2.02498
2.19994
2.38307
2.57405
2.77249
2.9779
3.18978
3.4075
3.63043
3.85786
4.08904
4.32318
4.55947
4.79706
5.03512
5.27279
5.50922
5.74358
5.97507
6.2029
6.42635
6.6447
6.85733
7.06364
7.2631
7.45525
7.63966
7.81601
7.984
8.14342
8.29411
8.43594
8.56887
8.69288
8.80799
8.91427
9.01179
9.10068
9.18104
9.25303
9.31675
9.37236
9.41996
9.45968
9.49159
9.51576
9.53225
9.54107
9.5422
9.53563
9.52127
9.49904
9.46884
9.43052
9.38394
9.32895
9.26536
9.19303
9.11179
9.02149
8.92201
8.81324
8.69511
8.5676
8.43071
8.28451
8.12912
7.96472
7.79155
7.60991
7.42017
7.22278
7.01822
6.80705
6.58991
6.36745
6.14041
5.90954
5.67565
5.43955
5.20209
4.96413
4.72652
4.49011
4.25572
4.02417
3.79622
3.57261
3.35402
3.14109
2.93439
2.73443
2.54167
2.35647
2.17916
2.00998
1.8491
1.69664
1.55264
1.41709
1.28993
1.17103
1.06024
0.957328
0.862066
0.774172
0.693342
0.619253
0.551565
0.489926
0.433977
0.383357
0.337707
0.29667
0.259899
0.227055
0.197811
0.171857
0.148893
0.12864
0.110834
0.0952279
0.0815922
0.0697153
0.0594023
0.0504748
0.0427705
0.0361419
0.0304564
0.0255945
0.0214495
0.0179263
0.0149407
0.0124182
0.0102933
0.00850868
0.00701427
0.00576658
0.00472793
0.00386583
0.00315237
0.00256363
0.00207922
0.0016818
0.00135668
0.00109148
0.000875776
0.000700822
0.000559325
0.000445211
0.000353439
0.000279842
0.000220986
0.00017405
0.000136722
0.000107119
8.37069e-05
6.52412e-05
5.0717e-05
3.93241e-05
3.04117e-05
2.34586e-05
1.80487e-05
1.38509e-05
1.06022e-05
8.09483e-06
6.16474e-06
4.68296e-06
3.54836e-06
2.68188e-06
2.0219e-06
1.52051e-06
1.14061e-06
8.53491e-07
6.37063e-07
4.7434e-07
3.5231e-07
2.6103e-07
1.92925e-07
1.42241e-07
1.04617e-07
7.67572e-08
5.61804e-08
4.10204e-08
2.98792e-08
2.17116e-08
1.5739e-08
1.13821e-08
8.21174e-09
5.91039e-09
4.24394e-09
3.04018e-09
2.17273e-09
1.54916e-09
1.10197e-09
7.82047e-10
5.53716e-10
3.91143e-10
2.75666e-10
1.93834e-10
1.35982e-10
9.51788e-11
6.64675e-11
4.63119e-11
3.21952e-11
2.23311e-11
1.54544e-11
1.06714e-11
7.35221e-12
5.05414e-12
3.46667e-12
2.37255e-12
1.62017e-12
1.10395e-12
7.50559e-13
5.09181e-13
3.44677e-13
2.32814e-13
1.56916e-13
1.05532e-13
7.08224e-14
4.74269e-14
3.1692e-14
2.11324e-14
1.40613e-14
9.3365e-15
6.18621e-15
4.09027e-15
2.69879e-15
1.77696e-15
1.16756e-15
7.65564e-16
5.00937e-16
3.27106e-16
2.13157e-16
1.38619e-16
8.99611e-17
5.82643e-17
3.7659e-17
2.42915e-17
1.56374e-17
1.00461e-17
6.44115e-18
4.12154e-18
2.63202e-18
1.67748e-18
1.067e-18
6.77349e-19
4.29147e-19
2.71362e-19
1.71254e-19
1.07867e-19
6.78091e-20
4.25449e-20
2.66421e-20
1.66515e-20
1.03873e-20
6.4673e-21
4.01897e-21
2.49275e-21
1.54319e-21
9.53546e-22
5.88091e-22
3.62021e-22
2.22449e-22
1.36473e-22
8.37393e-23
5.19808e-23
3.50487e-23
)
;

boundaryField
{
    right
    {
        type            zeroGradient;
    }
    left
    {
        type            inletOutlet;
        inletValue      uniform 0;
        value           uniform 0;
    }
    top
    {
        type            zeroGradient;
    }
    bottom
    {
        type            zeroGradient;
    }
    empty
    {
        type            empty;
    }
}


// ************************************************************************* //
