/*--------------------------------*- C++ -*----------------------------------*\
| =========                 |                                                 |
| \\      /  F ield         | OpenFOAM: The Open Source CFD Toolbox           |
|  \\    /   O peration     | Version:  v2006                                 |
|   \\  /    A nd           | Website:  www.openfoam.com                      |
|    \\/     M anipulation  |                                                 |
\*---------------------------------------------------------------------------*/
FoamFile
{
    version     2.0;
    format      ascii;
    class       surfaceScalarField;
    location    "8.1";
    object      phi;
}
// * * * * * * * * * * * * * * * * * * * * * * * * * * * * * * * * * * * * * //

dimensions      [0 3 -1 0 0 0 0];
oriented        oriented;


internalField   nonuniform List<scalar> 
299200
(
0.000235099
-0.000235099
0.000573854
-0.000338755
0.000917308
-0.000343453
0.00124866
-0.000331357
0.00157652
-0.000327858
0.00190176
-0.000325237
0.00222492
-0.000323164
0.00254604
-0.000321114
0.00286496
-0.000318925
0.00318154
-0.000316576
0.00349566
-0.000314118
0.00380734
-0.000311682
0.00411696
-0.000309621
0.00442482
-0.000307859
0.00473113
-0.000306313
0.00503634
-0.000305209
0.00534078
-0.000304436
0.00564497
-0.000304195
0.00594926
-0.000304287
0.00625386
-0.000304605
0.0065591
-0.000305236
0.00686516
-0.000306061
0.0071721
-0.000306934
0.00747999
-0.000307893
0.00778878
-0.000308792
0.00809839
-0.000309611
0.00840858
-0.00031019
0.00871911
-0.000310526
0.00902987
-0.000310762
0.00934094
-0.000311071
0.00965237
-0.000311434
0.009965
-0.000312628
0.0102796
-0.000314624
0.0105973
-0.000317682
0.0109196
-0.000322255
0.0112477
-0.000328171
0.0115821
-0.000334399
0.0119214
-0.000339272
0.0122637
-0.000342286
0.0126072
-0.000343515
0.0129482
-0.000340961
0.0132855
-0.000337315
0.0136194
-0.000333965
0.0139522
-0.000332717
0.0142866
-0.000334483
0.0146229
-0.000336241
0.0149657
-0.000342786
0.0153169
-0.000351215
0.0156774
-0.000360484
0.0160464
-0.000369062
0.0164222
-0.000375728
0.016802
-0.000379835
0.0171833
-0.000381254
0.0175636
-0.000380392
0.017942
-0.000378393
0.018319
-0.00037693
0.0186958
-0.000376879
0.0190762
-0.000380382
0.0194662
-0.000389973
0.0198761
-0.000409872
0.0203183
-0.000442255
0.0208043
-0.000485972
0.0213417
-0.000537398
0.0219311
-0.000589391
0.0225662
-0.000635106
0.0232321
-0.00066588
0.0239077
-0.000675653
0.0245711
-0.000663324
0.0252048
-0.000633758
0.0258003
-0.000595479
0.0263583
-0.000557984
0.0268862
-0.000527915
0.0273937
-0.00050756
0.0278893
-0.000495509
0.0283782
-0.000488956
0.0288638
-0.000485578
0.0293481
-0.000484344
0.0298333
-0.000485145
0.0303213
-0.000488062
0.0308143
-0.000492958
0.0313137
-0.000499443
0.0318208
-0.000507016
0.032336
-0.000515234
0.0328598
-0.00052378
0.0333922
-0.000532437
0.0339332
-0.000541029
0.0344826
-0.000549373
0.0350399
-0.000557259
0.0356044
-0.000564478
0.0361752
-0.000570862
0.0367516
-0.000576344
0.0373326
-0.000581009
0.0379177
-0.000585094
0.0385066
-0.000588915
0.0390993
-0.000592704
0.0396957
-0.000596416
0.0402953
-0.000599561
0.0408965
-0.000601204
0.0414966
-0.000600177
0.0420921
-0.000595507
0.0426791
-0.000586944
0.0432545
-0.000575373
0.0438174
-0.000562923
0.04437
-0.000552624
0.0449176
-0.000547606
0.0454675
-0.00054993
0.0460268
-0.000559248
0.0465985
-0.000571731
0.0471785
-0.000579943
0.0477528
-0.000574368
0.0482995
-0.000546715
0.0487935
-0.00049393
0.0492143
-0.000420864
0.049554
-0.000339664
0.0498196
-0.000265637
0.0500312
-0.000211564
0.0502146
-0.000183344
0.0503939
-0.000179338
0.0505869
-0.00019301
0.0508037
-0.000216783
0.0510486
-0.000244902
0.0513228
-0.000274196
0.0516258
-0.000303058
0.0519567
-0.000330848
0.052314
-0.000357275
0.0526961
-0.000382103
0.0531012
-0.000405102
0.0535272
-0.000426076
0.0539721
-0.000444901
0.0544337
-0.000461538
0.0549097
-0.000476023
0.0553981
-0.000488448
0.0558971
-0.000498941
0.0564047
-0.000507652
0.0569195
-0.000514742
0.0574399
-0.000520381
0.0579646
-0.000524746
0.0584926
-0.000528016
0.059023
-0.00053037
0.059555
-0.000531983
0.060088
-0.000533016
0.0606216
-0.000533615
0.0611555
-0.000533904
0.0616895
-0.000533984
0.0622234
-0.000533936
0.0627573
-0.000533828
0.063291
-0.000533719
0.0638247
-0.000533674
0.0643584
-0.000533757
0.0648925
-0.000534039
0.065427
-0.000534582
0.0659625
-0.000535425
0.066499
-0.000536569
0.067037
-0.000537967
0.0675765
-0.000539517
0.0681176
-0.000541082
0.0686601
-0.000542514
0.0692038
-0.000543696
0.0697484
-0.000544582
0.0702936
-0.000545231
0.0708394
-0.000545808
0.071386
-0.000546568
0.0719338
-0.000547795
0.0724835
-0.000549746
0.0730361
-0.000552586
0.0735925
-0.000556366
0.0741535
-0.000561026
0.07472
-0.00056644
0.0752924
-0.000572483
0.0758715
-0.000579095
0.0764579
-0.000586343
0.0770523
-0.00059442
0.0776559
-0.000603588
0.0782699
-0.000614036
0.0788956
-0.000625662
0.0795334
-0.000637817
0.0801824
-0.000649043
0.0808392
-0.000656811
0.0814963
-0.000657067
0.0821395
-0.000643151
0.0827431
-0.000603642
0.0832635
-0.000520378
0.083636
-0.000372549
0.0837986
-0.000162593
0.0837495
4.91536e-05
0.083564
0.000185522
0.0833239
0.000240038
0.0830532
0.000270749
0.0827508
0.000302348
0.0824169
0.000333875
0.08206
0.000356924
0.0816953
0.000364717
0.0813395
0.000355815
0.0810095
0.000330033
0.0807227
0.000286707
0.080495
0.000227773
0.0803381
0.000156844
0.0802564
8.17387e-05
0.0802392
1.71871e-05
0.0802772
-3.80323e-05
0.0803589
-8.1699e-05
0.0804842
-0.000125291
0.0806514
-0.000167168
0.0808568
-0.000205383
0.0810959
-0.000239079
0.0813633
-0.000267417
0.0816536
-0.000290335
0.0819621
-0.000308511
0.082285
-0.000322834
0.082619
-0.000334038
0.0829615
-0.000342547
0.08331
-0.000348492
0.0836619
-0.000351823
0.0840143
-0.000352418
0.0843644
-0.00035015
0.0847093
-0.000344916
0.085046
-0.000336652
0.0853713
-0.000325335
0.0856823
-0.000310959
0.0859758
-0.000293522
0.0862488
-0.000273007
0.0864982
-0.000249372
0.0867207
-0.000222545
0.0869131
-0.000192416
0.0870719
-0.000158796
0.0871933
-0.000121379
0.0872731
-7.98194e-05
0.0873083
-3.51323e-05
0.0873011
7.18061e-06
0.0872592
4.19044e-05
0.087193
6.61514e-05
0.0871067
8.63525e-05
0.0870026
0.00010405
0.0868839
0.000118715
0.0867542
0.000129764
0.0866169
0.000137234
0.0864751
0.00014185
0.0863303
0.000144798
0.086183
0.000147317
0.0860327
0.000150244
0.0858791
0.000153637
0.0857224
0.000156631
0.0855646
0.000157847
0.0854083
0.000156317
0.0852569
0.000151357
0.0851134
0.000143546
0.0849785
0.000134872
0.0848499
0.000128603
0.084722
0.000127897
0.0845885
0.000133522
0.0844429
0.000145626
0.0842794
0.000163503
0.0840945
0.000184901
0.0838869
0.000207516
0.0836572
0.000229708
0.0834065
0.000250692
0.0831361
0.000270455
0.0828466
0.00028944
0.0825384
0.000308213
0.0822112
0.000327222
0.0818645
0.000346721
0.0814977
0.000366783
0.0811103
0.000387374
0.0807019
0.000408419
0.0802721
0.000429844
0.0798205
0.000451595
0.0793468
0.000473633
0.0788509
0.00049593
0.0783324
0.000518459
0.0777913
0.000541192
0.0772272
0.0005641
0.07664
0.000587151
0.0760297
0.000610315
0.0753961
0.000633562
0.0747393
0.000656862
0.0740591
0.000680182
0.0733556
0.000703489
0.0726288
0.000726744
0.0718789
0.000749912
0.071106
0.000772954
0.0703102
0.000795832
0.0694916
0.000818507
0.0686507
0.000840943
0.0677876
0.000863104
0.0669026
0.000884951
0.0659962
0.000906445
0.0650686
0.000927552
0.0641204
0.000948233
0.063152
0.000968449
0.0621638
0.000988159
0.0611565
0.00100733
0.0601305
0.00102594
0.0590866
0.00104395
0.0580252
0.00106134
0.0569472
0.00107805
0.0558531
0.00109408
0.0547437
0.00110939
0.0536198
0.00112395
0.052482
0.00113775
0.0513313
0.00115076
0.0501683
0.00116295
0.048994
0.00117433
0.0478091
0.00118487
0.0466146
0.00119456
0.0454112
0.00120339
0.0441998
0.00121134
0.0429814
0.00121844
0.0417567
0.00122467
0.0405267
0.00123004
0.0392921
0.00123453
0.038054
0.00123818
0.036813
0.00124097
0.0355701
0.00124295
0.034326
0.0012441
0.0330815
0.00124442
0.0318376
0.00124392
0.0305949
0.0012427
0.0293542
0.00124072
0.0281162
0.00123801
0.0268816
0.0012346
0.0256511
0.00123051
0.0244253
0.00122579
0.0232049
0.00122042
0.0219905
0.00121431
0.0207828
0.00120777
0.019582
0.00120074
0.018389
0.00119305
0.0172042
0.00118482
0.0160281
0.00117604
0.0148613
0.00116682
0.0137043
0.00115706
0.0125574
0.00114686
0.0114212
0.00113615
0.0102961
0.0011251
0.00918255
0.00111359
0.00808061
0.00110195
0.00699054
0.00109007
0.00591253
0.00107801
0.00484667
0.00106586
0.00379343
0.00105325
0.00275297
0.00104045
0.00172613
0.00102684
0.000713798
0.00101234
-0.000283431
0.000997229
-0.0012636
0.000980171
-0.00222519
0.000961586
-0.00316674
0.000941548
-0.00408688
0.000920149
-0.00498481
0.000897923
-0.0058603
0.000875493
-0.00671379
0.000853485
-0.00754619
0.000832409
-0.00835876
0.00081257
-0.00915282
0.000794052
-0.0099295
0.000776679
-0.0106896
0.000760115
-0.0114337
0.000744065
-0.0121619
0.000728231
-0.0128743
0.000712358
-0.0135706
0.000696338
-0.0142508
0.000680194
-0.0149148
0.000664034
-0.0155628
0.000648009
-0.0161951
0.000632247
-0.0168119
0.000616792
-0.0174135
0.000601607
-0.0180001
0.000586611
-0.0185718
0.000571681
-0.0191285
0.000556686
-0.01967
0.000541526
-0.0201962
0.000526194
-0.0207069
0.000510721
-0.021202
0.000495142
-0.0216815
0.000479483
-0.0221453
0.000463781
-0.0225934
0.000448058
-0.0230257
0.00043232
-0.0234422
0.000416559
-0.023843
0.000400763
-0.0242279
0.000384926
-0.024597
0.000369056
-0.0249502
0.000353171
-0.0252874
0.000337283
-0.0256089
0.000321419
-0.0259145
0.000305624
-0.0262044
0.000289934
-0.0264788
0.000274352
-0.0267376
0.000258841
-0.026981
0.00024335
-0.0272088
0.000227844
-0.0274211
0.000212298
-0.0276178
0.000196695
-0.0277988
0.000181026
-0.0279641
0.000165297
-0.0281136
0.000149522
-0.0282474
0.000133722
-0.0283653
0.000117921
-0.0284674
0.000102144
-0.0285538
8.6412e-05
-0.0286246
7.07365e-05
-0.0286797
5.5131e-05
-0.0287193
3.95845e-05
-0.0287432
2.38661e-05
-0.02875
6.81388e-06
-0.0287391
-1.09014e-05
-0.0287108
-2.82934e-05
-0.0286661
-4.46899e-05
-0.0286059
-6.01676e-05
-0.028531
-7.49525e-05
-0.0284418
-8.91589e-05
-0.0283389
-0.000102893
-0.0282228
-0.000116167
-0.0280937
-0.000129014
-0.0279523
-0.000141429
-0.0277989
-0.000153411
-0.0276339
-0.000164962
-0.0274579
-0.00017607
-0.0272711
-0.000186732
-0.0270742
-0.000196937
-0.0268675
-0.000206681
-0.0266516
-0.000215963
-0.0264268
-0.000224779
-0.0261936
-0.000233128
-0.0259527
-0.000240993
-0.0257043
-0.000248382
-0.025449
-0.000255295
-0.0251873
-0.000261712
-0.0249196
-0.000267619
-0.0246466
-0.000273015
-0.0243687
-0.000277894
-0.0240865
-0.000282234
-0.0238006
-0.000285953
-0.0235117
-0.000288807
-0.0232215
-0.000290285
-0.0229317
-0.000289725
-0.022645
-0.000286729
-0.0223633
-0.000281698
-0.0220873
-0.000275998
-0.0218159
-0.000271448
-0.0215465
-0.000269375
-0.0212765
-0.000269974
-0.0210041
-0.000272391
-0.0207287
-0.000275447
-0.0204503
-0.000278357
-0.0201694
-0.000280953
-0.0198859
-0.000283435
-0.0195999
-0.000286022
-0.0193111
-0.000288837
-0.0190192
-0.00029191
-0.0187239
-0.000295217
-0.0184252
-0.000298732
-0.0181228
-0.000302422
-0.0178166
-0.000306219
-0.0175065
-0.000310042
-0.0171927
-0.000313824
-0.0168752
-0.000317494
-0.0165542
-0.000321001
-0.0162299
-0.000324312
-0.0159025
-0.000327429
-0.0155721
-0.000330369
-0.0152389
-0.000333162
-0.0149031
-0.000335826
-0.0145648
-0.00033836
-0.014224
-0.000340771
-0.0138809
-0.000343088
-0.0135356
-0.000345316
-0.0131881
-0.000347466
-0.0128386
-0.000349553
-0.0124869
-0.00035161
-0.0121333
-0.000353641
-0.0117777
-0.000355643
-0.0114201
-0.000357608
-0.0110605
-0.000359567
-0.0106989
-0.000361559
-0.0103353
-0.000363625
-0.00996959
-0.000365714
-0.00960175
-0.000367836
-0.00923174
-0.000370017
-0.00885947
-0.000372263
-0.00848488
-0.000374592
-0.00810789
-0.00037699
-0.00772838
-0.000379509
-0.00734618
-0.000382204
-0.00696106
-0.00038512
-0.00657274
-0.00038832
-0.00618085
-0.000391887
-0.00578504
-0.000395809
-0.0053851
-0.000399938
-0.00498089
-0.000404209
-0.00457231
-0.000408583
-0.00415887
-0.000413438
-0.00373947
-0.000419401
-0.00331249
-0.000426983
-0.00287563
-0.000436858
-0.0024234
-0.000452235
-0.00194221
-0.000481184
-0.00140953
-0.000532681
-0.000819559
-0.000589972
-0.000276828
-0.000542732
-0.000276828
-0.000136023
-9.90768e-05
-0.000244035
-0.000230742
-0.000379538
-0.000207951
-0.000515339
-0.000195555
-0.000649361
-0.000193836
-0.000784074
-0.000190524
-0.000919731
-0.000187508
-0.00105623
-0.000184616
-0.00119314
-0.000182019
-0.00132965
-0.000180063
-0.00146475
-0.000179015
-0.00159729
-0.000179147
-0.00172607
-0.000180833
-0.00185005
-0.000183883
-0.00196872
-0.000187642
-0.00208131
-0.000192621
-0.00218712
-0.000198627
-0.00228598
-0.000205328
-0.0023779
-0.000212369
-0.00246295
-0.000219562
-0.0025414
-0.000226782
-0.00261362
-0.000233837
-0.00268002
-0.000240534
-0.00274134
-0.000246574
-0.00279827
-0.000251869
-0.00285142
-0.000256456
-0.00290066
-0.000260952
-0.00294476
-0.000266427
-0.00298082
-0.000274702
-0.00300426
-0.000287625
-0.0030096
-0.000306095
-0.00299317
-0.000329066
-0.00295436
-0.00035343
-0.00289592
-0.000376122
-0.00282422
-0.000393949
-0.00274924
-0.000403154
-0.00268359
-0.000400051
-0.0026406
-0.000382256
-0.00262867
-0.000354218
-0.00264853
-0.000323652
-0.00268807
-0.000301422
-0.00272812
-0.000297268
-0.00274459
-0.000317495
-0.00271388
-0.00036343
-0.00261772
-0.000430647
-0.00244655
-0.000507409
-0.00220284
-0.00058649
-0.0018979
-0.000656158
-0.00154339
-0.000714995
-0.0011481
-0.000764354
-0.000718426
-0.0008054
-0.000258314
-0.000839947
0.000229532
-0.0008691
0.000742646
-0.000893506
0.00127791
-0.000913659
0.00183093
-0.000929946
0.00239271
-0.000938658
0.0029617
-0.000949379
0.00353361
-0.000961882
0.00410393
-0.000980192
0.00466882
-0.00100715
0.00522574
-0.00104288
0.00577352
-0.00108518
0.00631353
-0.0011294
0.00684879
-0.00117036
0.00738353
-0.00120062
0.00792064
-0.00121276
0.00846418
-0.00120687
0.00901706
-0.00118664
0.00958054
-0.00115896
0.010154
-0.00113143
0.010736
-0.00110996
0.0113256
-0.00109714
0.0119223
-0.00109223
0.0125267
-0.00109327
0.0131393
-0.00109824
0.013761
-0.00110601
0.0143919
-0.00111604
0.0150318
-0.00112803
0.0156805
-0.00114162
0.0163374
-0.00115637
0.0170022
-0.00117182
0.0176746
-0.00118756
0.018354
-0.00120326
0.0190403
-0.00121865
0.0197327
-0.00123347
0.0204308
-0.00124748
0.021134
-0.00126044
0.0218418
-0.00127227
0.022554
-0.00128303
0.0232706
-0.00129299
0.0239921
-0.00130251
0.0247188
-0.00131184
0.0254509
-0.00132094
0.0261875
-0.0013293
0.0269269
-0.00133588
0.0276666
-0.00133926
0.0284035
-0.00133807
0.0291348
-0.00133147
0.0298591
-0.00131978
0.0305769
-0.00130481
0.0312913
-0.00128978
0.0320072
-0.00127876
0.0327302
-0.00127567
0.0334656
-0.00128303
0.0342165
-0.00130082
0.0349827
-0.00132539
0.0357599
-0.00134893
0.0365397
-0.00135978
0.0373098
-0.00134444
0.0380543
-0.0012912
0.038755
-0.00119465
0.0393932
-0.00105912
0.0399527
-0.000899178
0.0404235
-0.000736419
0.0408055
-0.000593523
0.0411094
-0.000487253
0.041355
-0.000424967
0.0415668
-0.000404812
0.0417684
-0.000418343
0.0419776
-0.000454159
0.0422046
-0.000501178
0.0424523
-0.000550686
0.0427185
-0.000597136
0.0429991
-0.000637787
0.0432888
-0.000671877
0.0435835
-0.000699772
0.0438797
-0.000722322
0.0441753
-0.000740453
0.0444687
-0.000754965
0.0447592
-0.000766477
0.0450462
-0.000775448
0.0453295
-0.000782222
0.0456089
-0.000787082
0.0458844
-0.000790289
0.0461562
-0.000792107
0.0464242
-0.000792802
0.0466888
-0.00079264
0.0469503
-0.00079187
0.0472091
-0.000790716
0.0474654
-0.000789368
0.0477198
-0.00078799
0.0479726
-0.000786721
0.0482243
-0.000785691
0.0484754
-0.000785029
0.0487265
-0.000784863
0.0489781
-0.000785315
0.0492309
-0.000786477
0.0494855
-0.000788391
0.0497425
-0.000791018
0.0500021
-0.000794228
0.0502645
-0.000797818
0.0505295
-0.000801551
0.0507968
-0.000805227
0.051066
-0.000808777
0.0513373
-0.000812348
0.0516111
-0.00081636
0.0518889
-0.000821506
0.052173
-0.00082868
0.0524666
-0.000838827
0.0527736
-0.000852752
0.0530979
-0.000870937
0.0534436
-0.00089341
0.0538135
-0.000919731
0.05421
-0.000949072
0.0546341
-0.000980392
0.0550857
-0.00101264
0.0555642
-0.00104494
0.0560684
-0.00107675
0.0565972
-0.00110788
0.0571494
-0.00113854
0.0577242
-0.0011692
0.058321
-0.00120044
0.0589398
-0.00123283
0.0595809
-0.00126667
0.0602449
-0.00130187
0.0609336
-0.00133775
0.0616498
-0.00137302
0.0623982
-0.00140545
0.0631863
-0.00143122
0.0640263
-0.0014437
0.0649385
-0.00143253
0.0659521
-0.00138618
0.0670904
-0.00130092
0.0683241
-0.00118447
0.069571
-0.00106137
0.0707761
-0.000965092
0.0719442
-0.00089739
0.0730881
-0.00084157
0.0742069
-0.00078485
0.0752872
-0.000723433
0.0763101
-0.000658183
0.0772555
-0.000589573
0.0781053
-0.000519772
0.0788424
-0.000450406
0.0794512
-0.000381011
0.0799196
-0.000311535
0.0802442
-0.000242853
0.0804396
-0.000178199
0.0805229
-0.000121327
0.0805165
-7.53774e-05
0.0804389
-4.76591e-05
0.0803157
-4.39645e-05
0.0801772
-6.69138e-05
0.0800544
-0.000116278
0.0799753
-0.000188245
0.0799608
-0.000275831
0.0800223
-0.000370025
0.0801613
-0.000461854
0.0803715
-0.000544259
0.080642
-0.00061299
0.08096
-0.000666558
0.0813138
-0.000705565
0.0816932
-0.000731815
0.0820905
-0.00074752
0.0825004
-0.000754764
0.082919
-0.000755247
0.0833439
-0.000750235
0.0837735
-0.000740624
0.0842071
-0.000727036
0.084644
-0.000709904
0.0850841
-0.000689546
0.0855278
-0.000666208
0.0859755
-0.000640113
0.0864282
-0.000611504
0.0868875
-0.000580698
0.0873559
-0.000548188
0.0878355
-0.000514728
0.0883226
-0.000479911
0.0888068
-0.000442313
0.0892764
-0.000403459
0.0897266
-0.00036386
0.0901545
-0.000323854
0.0905572
-0.000283998
0.0909322
-0.000245171
0.0912779
-0.000208519
0.0915951
-0.000175335
0.0918868
-0.000146857
0.092158
-0.000123964
0.0924151
-0.000106863
0.0926636
-9.47687e-05
0.0929061
-8.58864e-05
0.093142
-7.80607e-05
0.0933672
-6.88832e-05
0.0935754
-5.68511e-05
0.0937602
-4.12457e-05
0.0939176
-2.25552e-05
0.0940469
-6.98384e-07
0.0941512
2.35771e-05
0.0942372
4.75447e-05
0.0943102
7.26126e-05
0.0943716
0.000102114
0.0944187
0.000137774
0.0944453
0.000180951
0.0944431
0.000231858
0.0944045
0.000289372
0.0943235
0.000351432
0.0941972
0.000415701
0.0940253
0.000480191
0.0938089
0.000543623
0.0935501
0.000605476
0.0932511
0.000665813
0.0929134
0.000725008
0.0925383
0.000783516
0.0921265
0.000841727
0.0916781
0.000899906
0.0911936
0.000958201
0.0906728
0.00101667
0.090116
0.00107531
0.0895231
0.00113408
0.0888943
0.00119294
0.0882296
0.00125181
0.0875293
0.00131062
0.0867936
0.00136927
0.0860228
0.00142767
0.0852172
0.00148573
0.0843774
0.00154334
0.0835037
0.00160041
0.0825968
0.00165683
0.0816572
0.0017125
0.0806858
0.00176732
0.0796831
0.00182119
0.07865
0.00187401
0.0775874
0.00192569
0.0764962
0.00197613
0.0753774
0.00202526
0.074232
0.00207298
0.073061
0.00211923
0.0718655
0.00216391
0.0706467
0.00220698
0.0694057
0.00224834
0.0681437
0.00228795
0.0668619
0.00232575
0.0655616
0.00236167
0.0642439
0.00239569
0.0629103
0.00242775
0.0615618
0.00245781
0.0601999
0.00248585
0.0588258
0.00251184
0.0574408
0.00253575
0.0560462
0.00255757
0.0546433
0.00257729
0.0532332
0.0025949
0.0518174
0.00261041
0.050397
0.00262381
0.0489732
0.00263514
0.0475472
0.00264439
0.0461203
0.0026516
0.0446936
0.00265678
0.0432681
0.00265999
0.041845
0.00266126
0.0404254
0.0026606
0.0390102
0.00265809
0.0376005
0.0026538
0.0361972
0.00264772
0.0348012
0.00263995
0.0334134
0.00263054
0.0320345
0.00261955
0.0306655
0.00260704
0.029307
0.00259308
0.0279598
0.00257773
0.0266246
0.00256104
0.0253019
0.00254308
0.0239922
0.00252403
0.0226962
0.00250371
0.0214146
0.00248235
0.0201477
0.00245995
0.018896
0.00243654
0.0176599
0.00241213
0.0164399
0.00238684
0.0152365
0.0023605
0.0140496
0.00233369
0.0128801
0.00230563
0.0117279
0.0022773
0.0105936
0.0022479
0.00947733
0.00221825
0.00837942
0.00218798
0.0073003
0.00215713
0.00624044
0.00212572
0.00520047
0.00209322
0.00418087
0.00206005
0.00318156
0.00202615
0.00220427
0.00198962
0.00124902
0.00195248
0.000315872
0.00191332
-0.000595204
0.00187266
-0.00148455
0.0018309
-0.0023531
0.0017887
-0.00320209
0.00174691
-0.00403289
0.00170629
-0.00484689
0.00166749
-0.0056453
0.00163082
-0.00642905
0.00159632
-0.00719868
0.00156368
-0.0079544
0.0015324
-0.0086962
0.00150192
-0.00942387
0.00147173
-0.0101371
0.00144151
-0.0108358
0.00141101
-0.0115197
0.00138021
-0.0121887
0.00134922
-0.0128429
0.00131821
-0.0134822
0.00128735
-0.0141067
0.00125674
-0.0147163
0.00122639
-0.0153109
0.00119617
-0.0158902
0.00116591
-0.0164539
0.00113542
-0.0170018
0.00110457
-0.0175336
0.00107332
-0.0180491
0.00104169
-0.0185481
0.00100976
-0.0190306
0.000977645
-0.0194966
0.000945411
-0.0199459
0.00091312
-0.0203786
0.000880796
-0.0207948
0.000848452
-0.0211943
0.000816107
-0.0215773
0.00078377
-0.0219439
0.000751461
-0.022294
0.000719207
-0.0226279
0.000687041
-0.0229456
0.00065498
-0.0232472
0.000623028
-0.0235327
0.00059116
-0.0238021
0.000559337
-0.0240553
0.000527493
-0.024292
0.000495571
-0.0245122
0.000463558
-0.0247158
0.000431475
-0.0249029
0.000399351
-0.0250734
0.000367217
-0.0252275
0.000335102
-0.0253652
0.000303042
-0.0254868
0.000271072
-0.0255923
0.000239228
-0.0256819
0.000207539
-0.0257558
0.00017603
-0.0258141
0.00014472
-0.025857
0.000113629
-0.0258847
8.27947e-05
-0.0258974
5.2316e-05
-0.0258959
2.23568e-05
-0.0258829
-6.18795e-06
-0.0258577
-3.60784e-05
-0.0258214
-6.45608e-05
-0.0257734
-9.2692e-05
-0.0257132
-0.000120432
-0.0256405
-0.000147676
-0.0255552
-0.000174379
-0.0254576
-0.000200505
-0.0253478
-0.00022603
-0.0252259
-0.000250904
-0.0250922
-0.000275121
-0.024947
-0.00029863
-0.0247905
-0.000321409
-0.0246231
-0.000343431
-0.0244452
-0.000364693
-0.024257
-0.000385164
-0.0240588
-0.000404824
-0.0238511
-0.000423662
-0.0236342
-0.000441658
-0.0234086
-0.00045881
-0.0231745
-0.000475089
-0.0229324
-0.000490492
-0.0226826
-0.000504999
-0.0224258
-0.000518592
-0.0221621
-0.000531248
-0.0218922
-0.00054295
-0.0216164
-0.000553653
-0.0213354
-0.000563257
-0.0210498
-0.000571621
-0.02076
-0.000578511
-0.0204667
-0.000583654
-0.0201694
-0.000586998
-0.0198671
-0.000589014
-0.019558
-0.000590815
-0.0192403
-0.000593748
-0.0189131
-0.000598613
-0.0185773
-0.00060516
-0.018235
-0.000612289
-0.0178886
-0.000618766
-0.0175401
-0.000623938
-0.0171906
-0.000627832
-0.0168408
-0.000630843
-0.0164908
-0.000633357
-0.0161413
-0.000635561
-0.0157926
-0.000637496
-0.0154454
-0.000639173
-0.0151
-0.000640591
-0.014757
-0.00064173
-0.0144168
-0.000642584
-0.0140799
-0.00064318
-0.0137464
-0.000643536
-0.0134166
-0.000643653
-0.0130905
-0.000643539
-0.0127683
-0.00064323
-0.0124498
-0.000642789
-0.012135
-0.000642262
-0.0118237
-0.000641655
-0.0115159
-0.000640965
-0.0112115
-0.000640231
-0.0109104
-0.000639471
-0.0106125
-0.00063868
-0.0103177
-0.00063787
-0.0100259
-0.000637061
-0.00973713
-0.000636266
-0.00945116
-0.000635517
-0.00916795
-0.00063482
-0.0088874
-0.000634193
-0.00860939
-0.000633658
-0.00833373
-0.000633264
-0.00806026
-0.000633033
-0.00778881
-0.000633014
-0.00751918
-0.000633258
-0.00725105
-0.000633841
-0.00698414
-0.000634745
-0.00671811
-0.000636045
-0.00645259
-0.000637785
-0.00618718
-0.000640008
-0.00592142
-0.000642745
-0.00565492
-0.000646009
-0.00538725
-0.000649877
-0.00511799
-0.000654379
-0.0048467
-0.000659608
-0.00457288
-0.000665705
-0.0042959
-0.000672794
-0.00401494
-0.000680892
-0.00372912
-0.000690034
-0.00343795
-0.000699752
-0.00314255
-0.00070884
-0.00284683
-0.000715115
-0.00255714
-0.000716679
-0.00227684
-0.00071715
-0.00199382
-0.000735258
-0.0016672
-0.000807803
-0.00123669
-0.000963199
-0.000688844
-0.00113781
-0.000152302
-0.00107927
-0.00042913
-0.000273592
0.000174515
-0.00051106
6.72673e-06
-0.000796236
7.72245e-05
-0.00108792
9.61312e-05
-0.00137641
9.46535e-05
-0.00165881
9.18766e-05
-0.00193309
8.67734e-05
-0.00219677
7.90619e-05
-0.00244749
6.86965e-05
-0.0026831
5.5546e-05
-0.00290177
3.9655e-05
-0.00310206
2.11461e-05
-0.00328274
-1.50762e-07
-0.00344295
-2.36744e-05
-0.00358391
-4.6686e-05
-0.00370565
-7.08732e-05
-0.00380888
-9.53969e-05
-0.00389479
-0.000119424
-0.0039645
-0.000142659
-0.00401913
-0.000164927
-0.00405987
-0.000186046
-0.00408775
-0.000205952
-0.00410344
-0.000224846
-0.00410726
-0.000242761
-0.0040993
-0.00025982
-0.00407859
-0.000277172
-0.00404431
-0.000295234
-0.00399547
-0.000315262
-0.00393215
-0.000338021
-0.00385604
-0.000363731
-0.00377078
-0.000391358
-0.00368092
-0.000418925
-0.00359063
-0.00044372
-0.00350377
-0.000462986
-0.00342268
-0.00047504
-0.00334553
-0.000480305
-0.00326452
-0.000481059
-0.00316547
-0.00048131
-0.00303338
-0.000486307
-0.00285331
-0.000503721
-0.00261274
-0.000541992
-0.00230453
-0.000605473
-0.00192903
-0.000692999
-0.00149665
-0.000795813
-0.00102422
-0.000903077
-0.000531359
-0.00100027
-3.37781e-05
-0.00108407
0.000461169
-0.0011511
0.000948031
-0.00120186
0.00142419
-0.00124051
0.00188929
-0.00127051
0.00234441
-0.00129507
0.00279034
-0.00131503
0.0032274
-0.00133056
0.00365567
-0.00134193
0.00407614
-0.00135041
0.00449465
-0.00135717
0.00491088
-0.00136561
0.00532846
-0.00137946
0.00574942
-0.00140115
0.00617426
-0.00143199
0.00660259
-0.00147121
0.00703241
-0.001515
0.00746394
-0.00156093
0.00789698
-0.00160341
0.00833498
-0.00163862
0.0087847
-0.00166248
0.00925232
-0.00167449
0.00974247
-0.00167679
0.0102571
-0.00167358
0.010795
-0.00166936
0.0113526
-0.00166749
0.0119253
-0.00166987
0.0125098
-0.00167677
0.0131038
-0.00168722
0.0137058
-0.00170023
0.0143148
-0.00171504
0.01493
-0.00173126
0.0155507
-0.00174868
0.016176
-0.001767
0.0168056
-0.00178591
0.0174388
-0.00180507
0.0180755
-0.0018242
0.0187153
-0.00184309
0.0193582
-0.00186154
0.0200041
-0.0018794
0.0206532
-0.00189654
0.0213056
-0.00191286
0.0219616
-0.00192825
0.0226212
-0.00194269
0.0232844
-0.00195614
0.0239504
-0.00196855
0.0246184
-0.00197976
0.0252869
-0.00198945
0.0259547
-0.00199715
0.0266211
-0.00200229
0.0272861
-0.00200424
0.0279506
-0.00200251
0.028616
-0.00199696
0.0292843
-0.00198802
0.0299563
-0.00197684
0.0306318
-0.00196526
0.0313084
-0.00195535
0.0319816
-0.00194892
0.0326455
-0.00194685
0.0332932
-0.00194851
0.033919
-0.00195121
0.0345199
-0.00194983
0.035097
-0.00193688
0.035656
-0.00190351
0.0362066
-0.00184172
0.0367593
-0.00174742
0.0373234
-0.00162322
0.0379038
-0.00147953
0.0385001
-0.00133274
0.0391074
-0.00120076
0.0397178
-0.00109769
0.0403231
-0.00103031
0.0409158
-0.00099749
0.0414898
-0.00099228
0.0420408
-0.00100518
0.0425667
-0.0010271
0.0430672
-0.00105117
0.0435432
-0.00107319
0.0439967
-0.00109128
0.04443
-0.00110511
0.0448453
-0.00111512
0.045245
-0.00112201
0.0456309
-0.00112638
0.0460046
-0.00112867
0.0463673
-0.00112918
0.04672
-0.00112807
0.0470632
-0.00112552
0.0473978
-0.00112168
0.0477243
-0.00111679
0.0480434
-0.00111111
0.0483555
-0.00110493
0.0486614
-0.00109853
0.0489617
-0.00109217
0.049257
-0.00108605
0.049548
-0.00108034
0.0498352
-0.00107518
0.0501191
-0.00107068
0.0504004
-0.00106695
0.0506795
-0.0010641
0.0509568
-0.00106221
0.0512328
-0.00106131
0.0515077
-0.00106139
0.0517817
-0.00106234
0.0520546
-0.00106399
0.0523265
-0.0010661
0.0525972
-0.00106851
0.0528668
-0.0010712
0.053136
-0.00107442
0.053406
-0.00107879
0.053679
-0.00108527
0.0539577
-0.00109508
0.0542457
-0.00110952
0.0545467
-0.00112967
0.054864
-0.00115613
0.0552
-0.0011888
0.0555559
-0.00122679
0.055931
-0.00126854
0.0563233
-0.00131201
0.0567293
-0.00135506
0.0571447
-0.00139582
0.057565
-0.00143295
0.057986
-0.00146587
0.0584039
-0.00149472
0.0588163
-0.0015203
0.0592216
-0.00154382
0.0596191
-0.00156667
0.0600088
-0.00159018
0.0603914
-0.00161536
0.0607674
-0.00164275
0.0611379
-0.0016723
0.0615034
-0.00170326
0.0618645
-0.00173414
0.0622217
-0.00176267
0.0625761
-0.00178555
0.0629305
-0.00179812
0.0632922
-0.00179429
0.063674
-0.00176791
0.064089
-0.00171592
0.0645452
-0.00164067
0.0650398
-0.00155605
0.0655585
-0.00148379
0.0660916
-0.00143045
0.0666379
-0.00138785
0.0671998
-0.00134682
0.06778
-0.00130358
0.0683803
-0.00125852
0.0690039
-0.0012131
0.0696523
-0.00116819
0.0703237
-0.00112183
0.0710139
-0.00107125
0.0717167
-0.00101428
0.072424
-0.000950143
0.0731273
-0.000881568
0.0738201
-0.000814043
0.0744976
-0.000752914
0.0751549
-0.000704973
0.0757893
-0.000678372
0.0764012
-0.000678765
0.0769921
-0.000707254
0.0775637
-0.000759783
0.0781162
-0.000828374
0.0786495
-0.000903336
0.0791633
-0.000975626
0.0796576
-0.00103859
0.0801333
-0.00108864
0.0805916
-0.00112489
0.0810344
-0.00114836
0.0814636
-0.00116094
0.0818808
-0.00116474
0.0822876
-0.00116155
0.0826851
-0.00115275
0.0830741
-0.00113932
0.0834555
-0.00112194
0.0838295
-0.00110108
0.0841967
-0.0010771
0.0845574
-0.00105027
0.084912
-0.00102084
0.085261
-0.000989027
0.0856045
-0.000955086
0.0859432
-0.000919321
0.0862771
-0.000882154
0.0866064
-0.00084398
0.0869308
-0.000804329
0.0872508
-0.0007623
0.087566
-0.000718673
0.0878766
-0.000674415
0.0881829
-0.000630161
0.0884854
-0.000586531
0.0887846
-0.000544339
0.0890806
-0.000504573
0.0893735
-0.000468217
0.0896626
-0.000435993
0.0899468
-0.000408137
0.0902242
-0.000384231
0.0904926
-0.000363142
0.0907498
-0.000343111
0.0909936
-0.000321935
0.0912222
-0.000297404
0.0914332
-0.000267847
0.0916244
-0.000232515
0.0917936
-0.000191705
0.0919389
-0.00014603
0.0920588
-9.63053e-05
0.0921502
-4.38221e-05
0.0922119
1.08802e-05
0.0922426
7.14267e-05
0.0922417
0.00013866
0.0922091
0.00021359
0.0921443
0.000296609
0.0920467
0.000386951
0.0919153
0.00048282
0.0917491
0.000581934
0.0915472
0.000682119
0.0913091
0.000781747
0.0910346
0.000879909
0.0907241
0.000976353
0.0903778
0.00107127
0.0899963
0.00116506
0.0895798
0.00125815
0.0891289
0.00135089
0.0886436
0.0014435
0.0881241
0.0015361
0.0875707
0.00162873
0.0869834
0.00172138
0.0863624
0.00181397
0.0857078
0.00190643
0.0850198
0.00199862
0.0842986
0.00209044
0.0835445
0.00218172
0.082758
0.00227231
0.0819392
0.00236206
0.0810888
0.00245081
0.0802073
0.00253837
0.0792952
0.00262461
0.0783532
0.00270934
0.0773819
0.00279242
0.0763823
0.0028737
0.0753549