/*--------------------------------*- C++ -*----------------------------------*\
| =========                 |                                                 |
| \\      /  F ield         | OpenFOAM: The Open Source CFD Toolbox           |
|  \\    /   O peration     | Version:  v2006                                 |
|   \\  /    A nd           | Website:  www.openfoam.com                      |
|    \\/     M anipulation  |                                                 |
\*---------------------------------------------------------------------------*/
FoamFile
{
    version     2.0;
    format      ascii;
    class       surfaceScalarField;
    location    "10.2";
    object      alphaPhi0.water;
}
// * * * * * * * * * * * * * * * * * * * * * * * * * * * * * * * * * * * * * //

dimensions      [0 3 -1 0 0 0 0];
oriented        oriented;


internalField   nonuniform List<scalar> 
99450
(
6.23953e-06
-6.23953e-06
2.3981e-05
-1.77415e-05
3.92829e-05
-1.53019e-05
5.26014e-05
-1.33184e-05
6.51774e-05
-1.2576e-05
7.772e-05
-1.25426e-05
9.00731e-05
-1.23532e-05
0.000102311
-1.2238e-05
0.000114317
-1.20058e-05
0.000126115
-1.1798e-05
0.000137685
-1.15702e-05
0.000149017
-1.13323e-05
0.000160095
-1.10777e-05
0.000170906
-1.08104e-05
0.000181437
-1.05312e-05
0.000191651
-1.02147e-05
0.000201546
-9.89496e-06
0.0002111
-9.55343e-06
0.000220291
-9.19134e-06
0.000229098
-8.80688e-06
0.000237492
-8.39439e-06
0.000245457
-7.96448e-06
0.000252971
-7.51424e-06
0.000260007
-7.03622e-06
0.000266547
-6.53976e-06
0.000272569
-6.02154e-06
0.000278023
-5.45408e-06
0.000282918
-4.895e-06
0.000287202
-4.28446e-06
0.000290858
-3.65584e-06
0.000293808
-2.95014e-06
0.000296051
-2.2427e-06
0.000297556
-1.5049e-06
0.000298302
-7.45894e-07
0.000298356
-5.469e-08
0.00029773
6.26692e-07
0.000296559
1.17098e-06
0.000294949
1.61006e-06
0.000292999
1.94933e-06
0.000290787
2.21199e-06
0.000288349
2.43867e-06
0.000285675
2.67313e-06
0.000282779
2.8962e-06
0.000279661
3.1185e-06
0.000276383
3.27746e-06
0.000273103
3.28e-06
0.000270032
3.07138e-06
0.00026738
2.65175e-06
0.000265324
2.05607e-06
0.000263939
1.38511e-06
0.000263208
7.30871e-07
0.000263055
1.52921e-07
0.000263415
-3.60114e-07
0.000264187
-7.71843e-07
0.000265312
-1.1247e-06
0.000266755
-1.44321e-06
0.00026849
-1.73464e-06
0.000270493
-2.00293e-06
0.00027274
-2.24753e-06
0.000275208
-2.46796e-06
0.000277872
-2.66425e-06
0.000280714
-2.84115e-06
0.00028371
-2.99631e-06
0.00028684
-3.13042e-06
0.000290084
-3.24389e-06
0.000293422
-3.33815e-06
0.000296835
-3.41241e-06
0.000300301
-3.46666e-06
0.000303803
-3.50189e-06
0.000307322
-3.51864e-06
0.00031084
-3.51819e-06
0.00031434
-3.50037e-06
0.000317807
-3.46657e-06
0.000321225
-3.41789e-06
0.000324576
-3.35077e-06
0.000327842
-3.26675e-06
0.000331003
-3.1601e-06
0.00033404
-3.03714e-06
0.000336917
-2.87755e-06
0.0003396
-2.68321e-06
0.000342056
-2.45601e-06
0.000344243
-2.18683e-06
0.000346118
-1.87474e-06
0.000347636
-1.51774e-06
0.000348754
-1.1178e-06
0.000349437
-6.83701e-07
0.000349626
-1.89145e-07
0.000349229
3.97089e-07
0.000348235
9.94591e-07
0.000346563
1.67212e-06
0.000344134
2.42856e-06
0.000340873
3.26109e-06
0.000336682
4.19115e-06
0.000331458
5.22352e-06
0.000325053
6.40556e-06
0.000317267
7.78605e-06
0.000307876
9.39056e-06
0.00029667
1.12066e-05
0.00028364
1.30295e-05
0.00026901
1.46295e-05
0.000253208
1.58026e-05
0.000236722
1.64855e-05
0.000219995
1.67273e-05
0.000203389
1.66062e-05
0.000187154
1.62345e-05
0.000171454
1.56999e-05
0.000156405
1.50496e-05
0.00014212
1.42846e-05
0.0001287
1.342e-05
0.000116233
1.24676e-05
0.000104874
1.13586e-05
9.48205e-05
1.00536e-05
8.61689e-05
8.65167e-06
7.88486e-05
7.32026e-06
7.26706e-05
6.17806e-06
6.74089e-05
5.2617e-06
6.28682e-05
4.54064e-06
5.88735e-05
3.99469e-06
5.52918e-05
3.58178e-06
5.19997e-05
3.29202e-06
4.89039e-05
3.09586e-06
4.59438e-05
2.96002e-06
4.30904e-05
2.85344e-06
4.03126e-05
2.77778e-06
3.76014e-05
2.71118e-06
3.49462e-05
2.65527e-06
3.23458e-05
2.60041e-06
2.97936e-05
2.55219e-06
2.73017e-05
2.49187e-06
2.4872e-05
2.42966e-06
2.25105e-05
2.36154e-06
2.02288e-05
2.2817e-06
1.80356e-05
2.19319e-06
1.59347e-05
2.1009e-06
1.39357e-05
1.99897e-06
1.20462e-05
1.88952e-06
1.0268e-05
1.77816e-06
8.60599e-06
1.66206e-06
7.07514e-06
1.53085e-06
5.69147e-06
1.38367e-06
4.47795e-06
1.21352e-06
3.45267e-06
1.02528e-06
2.62048e-06
8.32191e-07
2.02655e-06
5.93925e-07
1.69915e-06
3.27398e-07
1.76964e-06
-7.04882e-08
2.2194e-06
-4.49761e-07
3.42432e-06
-1.20492e-06
4.26887e-06
-8.44551e-07
4.26887e-06
-1.27518e-06
-4.96436e-06
4.26054e-06
-2.32772e-05
7.60736e-06
-1.86488e-05
8.95486e-06
-1.4666e-05
1.02476e-05
-1.38688e-05
1.15772e-05
-1.38721e-05
1.31156e-05
-1.38916e-05
1.46075e-05
-1.37299e-05
1.61607e-05
-1.3559e-05
1.77555e-05
-1.33927e-05
1.94232e-05
-1.3238e-05
2.11624e-05
-1.30715e-05
2.29819e-05
-1.28972e-05
2.48823e-05
-1.27108e-05
2.68807e-05
-1.25296e-05
2.90292e-05
-1.23632e-05
3.12879e-05
-1.21537e-05
3.36944e-05
-1.19599e-05
3.62367e-05
-1.17336e-05
3.89351e-05
-1.15053e-05
4.18158e-05
-1.12751e-05
4.48567e-05
-1.10054e-05
4.80663e-05
-1.07239e-05
5.14691e-05
-1.04389e-05
5.50783e-05
-1.0149e-05
5.88631e-05
-9.80641e-06
6.29266e-05
-9.51749e-06
6.72216e-05
-9.19003e-06
7.17871e-05
-8.85e-06
7.66269e-05
-8.49565e-06
8.18418e-05
-8.16503e-06
8.7379e-05
-7.77984e-06
9.32636e-05
-7.38949e-06
9.95057e-05
-6.98799e-06
0.000106052
-6.60143e-06
0.000112867
-6.18792e-06
0.000119871
-5.83305e-06
0.000127004
-5.52294e-06
0.000134224
-5.27021e-06
0.000141508
-5.07229e-06
0.000148826
-4.87906e-06
0.000156242
-4.74332e-06
0.000163701
-4.56243e-06
0.000171177
-4.35758e-06
0.000178592
-4.13816e-06
0.000185826
-3.95413e-06
0.000192733
-3.83502e-06
0.000199196
-3.81121e-06
0.000205131
-3.87874e-06
0.000210529
-4.01306e-06
0.000215479
-4.21939e-06
0.000220039
-4.4067e-06
0.000224265
-4.58635e-06
0.00022823
-4.73698e-06
0.000231968
-4.8623e-06
0.000235488
-4.96313e-06
0.000238791
-5.03762e-06
0.000241889
-5.10187e-06
0.000244792
-5.15011e-06
0.000247509
-5.18508e-06
0.000250043
-5.19833e-06
0.000252408
-5.20614e-06
0.000254613
-5.20057e-06
0.000256666
-5.1838e-06
0.000258579
-5.15724e-06
0.00026036
-5.11937e-06
0.000262018
-5.07038e-06
0.000263566
-5.01418e-06
0.000265011
-4.94648e-06
0.000266364
-4.87207e-06
0.000267633
-4.7872e-06
0.00026883
-4.69705e-06
0.000269961
-4.59824e-06
0.000271039
-4.49564e-06
0.000272075
-4.38679e-06
0.000273082
-4.27323e-06
0.000274072
-4.15046e-06
0.000275055
-4.02037e-06
0.00027605
-3.87243e-06
0.000277073
-3.706e-06
0.000278128
-3.51125e-06
0.000279226
-3.28453e-06
0.000280378
-3.02645e-06
0.000281579
-2.71873e-06
0.000282835
-2.37427e-06
0.000284133
-1.98184e-06
0.000285481
-1.53749e-06
0.000286904
-1.02523e-06
0.000288359
-4.60606e-07
0.000289871
1.60316e-07
0.000291453
8.45958e-07
0.000293096
1.61886e-06
0.000294804
2.48295e-06
0.000296603
3.42442e-06
0.000298552
4.45599e-06
0.000300759
5.57986e-06
0.000303354
6.79494e-06
0.000306523
8.03776e-06
0.000310324
9.22893e-06
0.000314741
1.02118e-05
0.000319664
1.088e-05
0.000324971
1.11788e-05
0.000330599
1.10994e-05
0.000336518
1.06872e-05
0.000342709
1.00431e-05
0.000349146
9.26285e-06
0.000355776
8.4199e-06
0.00036251
7.55018e-06
0.00036924
6.69003e-06
0.000375848
5.85966e-06
0.000382136
5.07049e-06
0.000387845
4.34492e-06
0.000392764
3.73229e-06
0.00039681
3.27481e-06
0.000399995
2.99245e-06
0.000402384
2.87328e-06
0.000404016
2.90874e-06
0.000404907
3.10287e-06
0.000405049
3.44055e-06
0.00040442
3.92074e-06
0.000402986
4.52946e-06
0.000400731
5.21538e-06
0.000397616
5.96787e-06
0.000393614
6.77992e-06
0.000388703
7.62223e-06
0.000382879
8.47939e-06
0.000376123
9.35626e-06
0.000368427
1.02484e-05
0.000359776
1.11425e-05
0.000350168
1.20379e-05
0.000339601
1.29293e-05
0.000328079
1.38035e-05
0.000315617
1.46544e-05
0.000302242
1.54767e-05
0.000287981
1.62602e-05
0.000272861
1.7009e-05
0.000256921
1.77179e-05
0.000240209
1.83741e-05
0.000222767
1.89732e-05
0.000204644
1.95064e-05
0.000185885
1.99724e-05
0.000166543
2.03674e-05
0.000146672
2.07031e-05
0.000126284
2.09825e-05
0.000105332
2.1279e-05
8.36827e-05
2.15787e-05
6.14512e-05
2.17818e-05
4.02961e-05
1.99502e-05
2.27729e-05
1.66786e-05
2.70418e-05
-2.18653e-08
-4.94249e-06
8.81332e-06
-3.21124e-05
1.56205e-05
-2.54559e-05
1.96447e-05
-1.86901e-05
2.30437e-05
-1.72678e-05
2.65654e-05
-1.73939e-05
3.03279e-05
-1.76541e-05
3.41337e-05
-1.75357e-05
3.79738e-05
-1.73992e-05
4.18065e-05
-1.72254e-05
4.56461e-05
-1.70776e-05
4.95138e-05
-1.69392e-05
5.33949e-05
-1.67783e-05
5.73012e-05
-1.6617e-05
6.12404e-05
-1.64688e-05
6.5195e-05
-1.63177e-05
6.91915e-05
-1.61502e-05
7.32068e-05
-1.59752e-05
7.72613e-05
-1.57881e-05
8.13441e-05
-1.55881e-05
8.54361e-05
-1.53671e-05
8.95951e-05
-1.51644e-05
9.37894e-05
-1.49182e-05
9.80081e-05
-1.46576e-05
0.000102243
-1.43836e-05
0.000106554
-1.41174e-05
0.000110862
-1.38259e-05
0.000115187
-1.35149e-05
0.000119549
-1.3212e-05
0.000123948
-1.28947e-05
0.00012835
-1.25671e-05
0.000132798
-1.22277e-05
0.000137264
-1.18557e-05
0.000141793
-1.15171e-05
0.000146322
-1.11305e-05
0.000150906
-1.07716e-05
0.000155465
-1.03915e-05
0.00015999
-1.00483e-05
0.000164455
-9.73571e-06
0.000168841
-9.45759e-06
0.000173209
-9.24713e-06
0.000177506
-9.04042e-06
0.00018179
-8.8466e-06
0.00018608
-8.64759e-06
0.000190384
-8.44165e-06
0.00019465
-8.22039e-06
0.000198829
-8.01402e-06
0.000202862
-7.84474e-06
0.000206726
-7.74224e-06
0.000210418
-7.70532e-06
0.000213922
-7.72306e-06
0.000217285
-7.7699e-06
0.000220521
-7.82199e-06
0.000223656
-7.87209e-06
0.000226699
-7.90521e-06
0.000229656
-7.92061e-06
0.000232545
-7.92616e-06
0.000235354
-7.9109e-06
0.000238088
-7.88445e-06
0.000240747
-7.84425e-06
0.000243346
-7.79725e-06
0.000245876
-7.73625e-06
0.000248343
-7.66705e-06
0.000250744
-7.58549e-06
0.000253087
-7.50014e-06
0.000255373
-7.4053e-06
0.000257606
-7.30301e-06
0.000259787
-7.19553e-06
0.000261922
-7.08169e-06
0.000264013
-6.9622e-06
0.000266064
-6.83825e-06
0.000268074
-6.70758e-06
0.000270052
-6.57597e-06
0.000271995
-6.43873e-06
0.00027391
-6.30215e-06
0.000275798
-6.16137e-06
0.000277664
-6.01606e-06
0.000279515
-5.87101e-06
0.000281355
-5.7129e-06
0.000283189
-5.53959e-06
0.000285028
-5.3504e-06
0.000286878
-5.13472e-06
0.000288737
-4.88519e-06
0.000290624
-4.60619e-06
0.000292531
-4.28105e-06
0.000294457
-3.90805e-06
0.000296412
-3.49203e-06
0.000298403
-3.01663e-06
0.000300434
-2.49122e-06
0.000302499
-1.90441e-06
0.000304614
-1.2697e-06
0.000306789
-5.55744e-07
0.000309033
2.38734e-07
0.000311357
1.10084e-06
0.000313808
2.00475e-06
0.000316437
2.95113e-06
0.000319287
3.94501e-06
0.000322455
4.86937e-06
0.000325921
5.76305e-06
0.000329625
6.50758e-06
0.000333441
7.06358e-06
0.000337202
7.41804e-06
0.000340751
7.55071e-06
0.000343955
7.48265e-06
0.000346727
7.27123e-06
0.000349026
6.96427e-06
0.000350841
6.60466e-06
0.000352173
6.21863e-06
0.000353038
5.82448e-06
0.000353472
5.42614e-06
0.000353479
5.06367e-06
0.000353053
4.77081e-06
0.000352198
4.58723e-06
0.000350943
4.52939e-06
0.000349348
4.58736e-06
0.00034748
4.74149e-06
0.000345398
4.99125e-06
0.000343151
5.34966e-06
0.000340764
5.82704e-06
0.000338254
6.43072e-06
0.00033562
7.16335e-06
0.000332817
8.01928e-06
0.000329788
8.99653e-06
0.000326481
1.0087e-05
0.000322829
1.12743e-05
0.000318758
1.25497e-05
0.000314216
1.3899e-05
0.00030915
1.53144e-05
0.000303495
1.67974e-05
0.00029719
1.83429e-05
0.000290178
1.99408e-05
0.000282398
2.15833e-05
0.000273788
2.32648e-05
0.00026431
2.49545e-05
0.000253916
2.66545e-05
0.00024258
2.83452e-05
0.000230289
3.00084e-05
0.000217032
3.16315e-05
0.000202811
3.31935e-05
0.000187636
3.46817e-05
0.000171546
3.60625e-05
0.000154563
3.73502e-05
0.000136754
3.85121e-05
0.000118126
3.96111e-05
9.86463e-05
4.07583e-05
7.81765e-05
4.20486e-05
5.73742e-05
4.25842e-05
3.83581e-05
3.89663e-05
2.35452e-05
3.14914e-05
5.0587e-05
1.78113e-06
-6.72362e-06
1.37963e-05
-4.41276e-05
2.38363e-05
-3.54959e-05
3.09886e-05
-2.58424e-05
3.71957e-05
-2.34749e-05
4.34937e-05
-2.36919e-05
4.98218e-05
-2.39822e-05
5.61314e-05
-2.38453e-05
6.23209e-05
-2.35886e-05
6.83766e-05
-2.32812e-05
7.42889e-05
-2.29898e-05
8.00569e-05
-2.27072e-05
8.5684e-05
-2.24054e-05
9.11785e-05
-2.21115e-05
9.65174e-05
-2.18078e-05
0.000101697
-2.14976e-05
0.000106729
-2.11815e-05
0.000111612
-2.08586e-05
0.000116354
-2.053e-05
0.000120959
-2.01938e-05
0.000125423
-1.98311e-05
0.000129732
-1.94728e-05
0.000133934
-1.91207e-05
0.000138027
-1.87507e-05
0.000142022
-1.83778e-05
0.000145902
-1.7998e-05
0.000149698
-1.76217e-05
0.000153408
-1.72247e-05
0.000157035
-1.68389e-05
0.00016058
-1.64395e-05
0.000164049
-1.6036e-05
0.000167453
-1.56318e-05
0.000170822
-1.52253e-05
0.000174116
-1.48113e-05
0.000177391
-1.4405e-05
0.000180608
-1.39886e-05
0.000183835
-1.36189e-05
0.000187042
-1.32552e-05
0.000190229
-1.29221e-05
0.000193393
-1.26216e-05
0.000196497
-1.23518e-05
0.000199559
-1.21018e-05
0.000202577
-1.18648e-05
0.000205571
-1.16416e-05
0.00020856
-1.14309e-05
0.000211572
-1.12324e-05
0.000214615
-1.10568e-05
0.000217688
-1.09181e-05
0.00022075
-1.08039e-05
0.000223782
-1.07377e-05
0.000226753
-1.06934e-05
0.000229664
-1.06807e-05
0.000232522
-1.06804e-05
0.000235326
-1.06764e-05
0.000238086
-1.06648e-05
0.000240812
-1.06469e-05
0.000243505
-1.06191e-05
0.000246171
-1.05773e-05
0.00024881
-1.05233e-05
0.000251425
-1.04591e-05
0.000254012
-1.03844e-05
0.000256576
-1.02997e-05
0.000259109
-1.02007e-05
0.00026162
-1.00961e-05
0.000264099
-9.97906e-06
0.00026655
-9.85671e-06
0.000268972
-9.72504e-06
0.000271362
-9.58553e-06
0.00027372
-9.43903e-06
0.000276046
-9.28798e-06
0.000278333
-9.12609e-06
0.000280587
-8.9615e-06
0.000282798
-8.78658e-06
0.000284968
-8.60859e-06
0.000287088
-8.42237e-06
0.000289159
-8.23271e-06
0.00029118
-8.03684e-06
0.000293133
-7.82406e-06
0.000295025
-7.60493e-06
0.000296853
-7.36757e-06
0.000298607
-7.10476e-06
0.000300295
-6.82204e-06
0.000301918
-6.50799e-06
0.00030347
-6.1586e-06
0.000304961
-5.77237e-06
0.000306389
-5.33607e-06
0.000307766
-4.86826e-06
0.000309078
-4.32945e-06
0.000310339
-3.75149e-06
0.000311559
-3.12451e-06
0.000312729
-2.44035e-06
0.000313879
-1.70494e-06
0.000315024
-9.0615e-07
0.00031618
-5.58672e-08
0.000317363
8.22105e-07
0.00031857
1.74448e-06
0.000319841
2.67372e-06
0.000321135
3.5749e-06
0.000322456
4.44255e-06
0.000323729
5.23419e-06
0.000324867
5.92572e-06
0.000325804
6.48154e-06
0.000326446
6.90789e-06
0.000326725
7.20352e-06
0.000326595
7.4014e-06
0.000326042
7.51778e-06
0.000325063
7.58335e-06
0.00032367
7.61195e-06
0.000321864
7.63022e-06
0.000319644
7.64598e-06
0.000317022
7.68549e-06
0.000314026
7.76755e-06
0.000310702
7.91065e-06
0.000307097
8.13464e-06
0.000303236
8.44833e-06
0.000299118
8.85949e-06
0.000294743
9.36644e-06
0.00029012
9.97261e-06
0.000285269
1.06777e-05
0.000280217
1.14832e-05
0.000274981
1.23992e-05
0.000269575
1.3425e-05
0.00026401
1.45611e-05
0.0002583
1.5797e-05
0.00025244
1.71348e-05
0.000246416
1.85737e-05
0.000240218
2.00969e-05
0.000233826
2.17064e-05
0.000227217
2.34067e-05
0.000220377
2.5183e-05
0.000213277
2.70402e-05
0.000205881
2.89795e-05
0.000198158
3.09878e-05
0.000190059
3.30534e-05
0.000181551
3.51624e-05
0.000172599
3.72973e-05
0.000163163
3.94446e-05
0.000153219
4.15751e-05
0.000142743
4.36693e-05
0.00013172
4.57054e-05
0.000120127
4.76556e-05
0.000107999
4.94783e-05
9.53328e-05
5.1178e-05
8.21049e-05
5.28389e-05
6.81933e-05
5.46699e-05
5.35406e-05
5.67013e-05
3.93191e-05
5.68056e-05
2.77547e-05
5.05306e-05
1.92075e-05
4.00386e-05
6.97946e-05
2.31439e-06
-9.03802e-06
1.52837e-05
-5.70969e-05
2.62594e-05
-4.64715e-05
3.44604e-05
-3.40435e-05
4.17076e-05
-3.07221e-05
4.88213e-05
-3.08056e-05
5.59549e-05
-3.11158e-05
6.29532e-05
-3.08436e-05
6.97468e-05
-3.03822e-05
7.63321e-05
-2.98665e-05
8.27015e-05
-2.93592e-05
8.88479e-05
-2.88536e-05
9.47782e-05
-2.83357e-05
0.000100477
-2.78104e-05
0.000105946
-2.72764e-05
0.000111193
-2.67452e-05
0.00011622
-2.62083e-05
0.000121025
-2.56629e-05
0.000125619
-2.51239e-05
0.000130003
-2.4578e-05
0.000134234
-2.40622e-05
0.00013829
-2.35284e-05
0.000142169
-2.30003e-05
0.000145896
-2.2478e-05
0.000149486
-2.19672e-05
0.000152952
-2.14638e-05
0.000156296
-2.09661e-05
0.000159558
-2.04863e-05
0.000162721
-2.00023e-05
0.000165832
-1.95502e-05
0.000168876
-1.90806e-05
0.000171895
-1.86506e-05
0.000174884
-1.82142e-05
0.000177856
-1.77837e-05
0.000180826
-1.73748e-05
0.000183849
-1.70117e-05
0.000186883
-1.66532e-05
0.000189918
-1.62895e-05
0.000192978
-1.59821e-05
0.000196049
-1.56929e-05
0.000199122
-1.54252e-05
0.000202203
-1.51828e-05
0.000205292
-1.49533e-05
0.000208391
-1.47412e-05
0.000211507
-1.45465e-05
0.000214631
-1.43566e-05
0.00021777
-1.41953e-05
0.000220911
-1.40598e-05
0.000224061
-1.39537e-05
0.000227183
-1.3859e-05
0.000230287
-1.37982e-05
0.00023335
-1.37428e-05
0.000236369
-1.37001e-05
0.000239343
-1.36502e-05
0.000242278
-1.35999e-05
0.000245177
-1.35458e-05
0.000248036
-1.34778e-05
0.000250861
-1.34029e-05
0.000253659
-1.33205e-05
0.000256419
-1.32194e-05
0.000259141
-1.31067e-05
0.000261828
-1.29865e-05
0.00026448
-1.28527e-05
0.000267098
-1.27144e-05
0.000269675
-1.25555e-05
0.00027221
-1.23916e-05
0.000274701
-1.22168e-05
0.000277151
-1.20347e-05
0.000279552
-1.18404e-05
0.000281903
-1.16387e-05
0.000284202
-1.1425e-05
0.000286446
-1.12061e-05
0.000288635
-1.09748e-05
0.000290763
-1.07365e-05
0.000292828
-1.04877e-05
0.000294823
-1.02282e-05
0.000296746
-9.95925e-06
0.000298596
-9.67404e-06
0.000300365
-9.37459e-06
0.000302052
-9.05444e-06
0.000303658
-8.71088e-06
0.000305181
-8.34484e-06
0.00030662
-7.94652e-06
0.000307976
-7.51486e-06
0.000309247
-7.04355e-06
0.000310454
-6.54293e-06
0.000311573
-5.98685e-06
0.000312643
-5.40033e-06
0.000313661
-4.76866e-06
0.000314615
-4.07871e-06
0.000315519
-3.345e-06
0.000316383
-2.56849e-06
0.000317216
-1.73955e-06
0.000318034
-8.73904e-07
0.000318838
1.84033e-08
0.000319635
9.47564e-07
0.000320428
1.8812e-06
0.000321208
2.79432e-06
0.000321955
3.69546e-06
0.000322659
4.52996e-06
0.000323269
5.31578e-06
0.000323728
6.02322e-06
0.000324008
6.62768e-06
0.000324058
7.15376e-06
0.000323838
7.62107e-06
0.000323316
8.0398e-06
0.000322468
8.43098e-06
0.000321271
8.80883e-06
0.000319705
9.19624e-06
0.000317737
9.6144e-06
0.00031535
1.00728e-05
0.000312528
1.05898e-05
0.000309262
1.11766e-05
0.000305552
1.1844e-05
0.000301408
1.25928e-05
0.000296838
1.34294e-05
0.000291856
1.4348e-05
0.000286473
1.53562e-05
0.000280701
1.64492e-05
0.000274561
1.76238e-05
0.000268072
1.88879e-05
0.000261248
2.02491e-05
0.000254116
2.16929e-05
0.000246695
2.32185e-05
0.000239008
2.48214e-05
0.000231076
2.65062e-05
0.000222905
2.82673e-05
0.00021453
3.00812e-05
0.000205971
3.19658e-05
0.000197235
3.3919e-05
0.000188335
3.59407e-05
0.0001793
3.8014e-05
0.000170133
4.01549e-05
0.000160852
4.23349e-05
0.000151454
4.45598e-05
0.000141944
4.6808e-05
0.000132323
4.90648e-05
0.000122582
5.13166e-05
0.00011271
5.35415e-05
0.000102703
5.57123e-05
9.25607e-05
5.77978e-05
8.22737e-05
5.97652e-05
7.18529e-05
6.15988e-05
6.12579e-05
6.34339e-05
5.03663e-05
6.55616e-05
3.92681e-05
6.77995e-05
2.90532e-05
6.70206e-05
2.15325e-05
5.80512e-05
1.599e-05
4.55812e-05
8.57846e-05
2.42563e-06
-1.14637e-05
1.54816e-05
-7.01528e-05
2.64759e-05
-5.74658e-05
3.47091e-05
-4.22767e-05
4.19921e-05
-3.80051e-05
4.91655e-05
-3.79791e-05
5.62663e-05
-3.82165e-05
6.32218e-05
-3.7799e-05
6.99589e-05
-3.71193e-05
7.64731e-05
-3.63808e-05
8.27605e-05
-3.56466e-05
8.88127e-05
-3.49058e-05
9.46341e-05
-3.41571e-05
0.000100223
-3.33993e-05
0.000105583
-3.26365e-05
0.000110707
-3.18694e-05
0.00011561
-3.11112e-05
0.000120312
-3.03649e-05
0.000124812
-2.96242e-05
0.00012912
-2.88859e-05
0.000133234
-2.81762e-05
0.000137195
-2.74886e-05
0.000141
-2.68058e-05
0.000144674
-2.61519e-05
0.000148231
-2.55241e-05
0.000151672
-2.49046e-05
0.000155014
-2.43083e-05
0.000158269
-2.37417e-05
0.000161467
-2.31996e-05
0.000164598
-2.26816e-05
0.000167687
-2.217e-05
0.00017074
-2.17033e-05
0.000173757
-2.12312e-05
0.000176793
-2.08197e-05
0.000179819
-2.04001e-05
0.000182818
-2.00114e-05
0.000185815
-1.96494e-05
0.000188859
-1.93337e-05
0.0001919
-1.90229e-05
0.00019495
-1.87437e-05
0.000198021
-1.84953e-05
0.000201096
-1.82582e-05
0.000204191
-1.80484e-05
0.000207299
-1.78491e-05
0.00021042
-1.76672e-05
0.000213571
-1.75078e-05
0.000216733
-1.73572e-05
0.000219898
-1.72254e-05
0.000223059
-1.71142e-05
0.000226215
-1.70154e-05
0.000229344
-1.69273e-05
0.000232448
-1.68464e-05
0.000235516
-1.67687e-05
0.00023856
-1.66941e-05
0.000241569
-1.6609e-05
0.000244544
-1.65205e-05
0.000247486
-1.64194e-05
0.00025039
-1.63073e-05
0.000253253
-1.61832e-05
0.000256078
-1.60443e-05
0.000258874
-1.59035e-05
0.000261626
-1.57384e-05
0.000264337
-1.55632e-05
0.000266998
-1.53754e-05
0.000269618
-1.51752e-05
0.000272188
-1.49621e-05
0.00027471
-1.47389e-05
0.000277178
-1.45024e-05
0.000279593
-1.42555e-05
0.000281952
-1.39974e-05
0.000284253
-1.37264e-05
0.000286495
-1.34477e-05
0.000288674
-1.31545e-05
0.000290792
-1.28543e-05
0.000292844
-1.25399e-05
0.00029483
-1.22136e-05
0.000296744
-1.18733e-05
0.000298588
-1.15186e-05
0.000300368
-1.11544e-05
0.000302065
-1.07511e-05
0.000303692
-1.03382e-05
0.000305247
-9.90014e-06
0.000306734
-9.43267e-06
0.000308156
-8.93714e-06
0.000309518
-8.40591e-06
0.000310819
-7.84318e-06
0.000312056
-7.22415e-06
0.000313241
-6.58574e-06
0.000314382
-5.90961e-06
0.000315482
-5.17872e-06
0.000316548
-4.41109e-06
0.000317581
-3.6012e-06
0.000318598
-2.75626e-06
0.000319598
-1.87405e-06
0.000320582
-9.66256e-07
0.000321558
-2.79123e-08
0.000322496
9.43495e-07
0.000323425
1.86546e-06
0.000324321
2.79921e-06
0.000325137
3.7141e-06
0.000325856
4.59662e-06
0.000326416
5.46256e-06
0.000326812
6.23186e-06
0.000326966
6.99963e-06
0.00032683
7.75707e-06
0.0003264
8.47057e-06
0.000325626
9.20439e-06
0.000324496
9.9386e-06
0.000322997
1.06958e-05
0.000321124
1.14869e-05
0.000318868
1.23289e-05
0.000316234
1.32243e-05
0.000313217
1.41931e-05
0.000309816
1.52449e-05
0.000306032
1.6377e-05
0.000301858
1.7603e-05
0.00029728
1.89264e-05
0.000292296
2.03398e-05
0.000286902
2.18434e-05
0.000281089
2.34372e-05
0.000274856
2.51209e-05
0.000268218
2.68865e-05
0.000261183
2.87284e-05
0.000253752
3.06497e-05
0.000245946
3.26272e-05
0.000237776
3.46762e-05
0.000229269
3.67746e-05
0.000220427
3.8923e-05
0.000211275
4.11174e-05
0.000201844
4.33502e-05
0.000192174
4.56106e-05
0.00018228
4.79083e-05
0.000172212
5.02227e-05
0.000161992
5.25553e-05
0.000151659
5.48925e-05
0.000141242
5.72252e-05
0.000130766
5.95403e-05
0.000120262
6.1821e-05
0.000109749
6.40547e-05
9.92403e-05
6.62207e-05
8.87477e-05
6.82904e-05
7.82943e-05
7.02186e-05
6.78931e-05
7.20001e-05
5.75272e-05
7.37997e-05
4.71198e-05
7.5969e-05
3.67519e-05
7.81674e-05
2.72047e-05
7.65678e-05
2.00175e-05
6.52384e-05
1.46779e-05
5.09208e-05
0.000100462
2.51492e-06
-1.39786e-05
1.56892e-05
-8.33271e-05
2.67807e-05
-6.85573e-05
3.49897e-05
-5.04858e-05
4.22354e-05
-4.52508e-05
4.93069e-05
-4.50505e-05
5.63595e-05
-4.52691e-05
6.32665e-05
-4.4706e-05
6.9952e-05
-4.38048e-05
7.64052e-05
-4.28339e-05
8.26315e-05
-4.1873e-05
8.86262e-05
-4.09004e-05
9.43904e-05
-3.99213e-05
9.99231e-05
-3.89321e-05
0.000105226
-3.79399e-05
0.000110318
-3.6961e-05
0.000115196
-3.59887e-05
0.000119866
-3.50357e-05
0.000124325
-3.40829e-05
0.000128629
-3.31893e-05
0.000132758
-3.2306e-05
0.000136722
-3.14526e-05
0.000140544
-3.0628e-05
0.000144234
-2.9841e-05
0.000147788
-2.90782e-05
0.000151244
-2.83613e-05
0.000154615
-2.76792e-05
0.000157906
-2.70328e-05
0.000161126
-2.64197e-05
0.000164285
-2.58401e-05
0.000167409
-2.52947e-05
0.000170492
-2.47857e-05
0.000173539
-2.42781e-05
0.000176566
-2.38474e-05
0.000179596
-2.34301e-05
0.000182635
-2.30501e-05
0.000185675
-2.26893e-05
0.000188707
-2.23657e-05
0.000191756
-2.20717e-05
0.00019481
-2.17981e-05
0.000197868
-2.1553e-05
0.00020094
-2.13305e-05
0.000204018
-2.1126e-05
0.000207107
-2.09381e-05
0.000210208
-2.07689e-05
0.000213311
-2.0611e-05
0.000216425
-2.04707e-05
0.000219543
-2.03436e-05
0.000222655
-2.02263e-05
0.000225759
-2.01187e-05
0.000228837
-2.0006e-05
0.000231901
-1.99096e-05
0.000234949
-1.98171e-05
0.000237967
-1.97126e-05
0.000240955
-1.95964e-05
0.000243915
-1.94804e-05
0.000246848
-1.93526e-05
0.000249747
-1.92059e-05
0.000252609
-1.90459e-05
0.000255439
-1.88744e-05
0.000258226
-1.86898e-05
0.000260976
-1.84883e-05
0.000263685
-1.8273e-05
0.000266351
-1.80412e-05
0.000268978
-1.78022e-05
0.000271553
-1.75368e-05
0.000274084
-1.727e-05
0.000276559
-1.69776e-05
0.000278984
-1.66799e-05
0.000281352
-1.63662e-05
0.000283671
-1.60446e-05
0.000285932
-1.57089e-05
0.000288133
-1.53556e-05
0.000290275
-1.49965e-05
0.000292356
-1.46211e-05
0.000294377
-1.42347e-05
0.000296337
-1.38332e-05
0.000298233
-1.34141e-05
0.000300059
-1.29812e-05
0.000301838
-1.25293e-05
0.000303552
-1.20527e-05
0.000305206
-1.15543e-05
0.000306801
-1.10277e-05
0.000308334
-1.04696e-05
0.000309815
-9.88748e-06
0.000311234
-9.26171e-06
0.000312625
-8.61496e-06
0.000313963
-7.92393e-06
0.000315248
-7.19427e-06
0.000316503
-6.43384e-06
0.000317717
-5.62527e-06
0.000318893
-4.77724e-06
0.00032004
-3.90299e-06
0.000321151
-2.98542e-06
0.000322219
-2.03447e-06
0.000323257
-1.06552e-06
0.000324272
-7.16745e-08
0.000325196
9.40966e-07
0.000326042
1.95368e-06
0.000326801
2.9546e-06
0.000327436
3.96239e-06
0.000327939
4.95897e-06
0.000328234
5.93752e-06
0.00032832
6.9132e-06
0.000328208
7.86948e-06
0.000327816
8.86196e-06
0.000327153
9.86801e-06
0.000326184
1.09075e-05
0.000324908
1.1972e-05
0.000323293
1.31013e-05
0.000321327
1.42948e-05
0.000318994
1.55576e-05
0.000316289
1.68985e-05
0.000313207
1.83263e-05
0.00030974
1.98439e-05
0.000305894
2.14496e-05
0.000301662
2.31578e-05
0.000297044
2.49576e-05
0.000292034
2.68536e-05
0.000286626
2.88458e-05
0.00028082
3.09261e-05
0.000274621
3.30854e-05
0.000268022
3.53278e-05
0.000261027
3.76447e-05
0.000253631
4.00232e-05
0.000245846
4.24613e-05
0.000237674
4.49462e-05
0.000229124
4.74734e-05
0.000220222
5.00196e-05
0.000210966
5.26059e-05
0.000201381
5.51951e-05
0.000191509
5.77803e-05
0.000181364
6.03682e-05
0.000170984
6.29351e-05
0.000160403
6.54738e-05
0.000149642
6.79864e-05
0.000138759
7.04228e-05
0.000127774
7.28062e-05
0.000116722
7.51066e-05
0.000105631
7.73113e-05
9.45329e-05
7.93889e-05
8.3451e-05
8.13005e-05
7.24033e-05
8.30479e-05
6.14154e-05
8.47876e-05
5.04338e-05
8.69507e-05
3.94676e-05
8.91335e-05
2.90309e-05
8.70045e-05
2.06942e-05
7.3575e-05
1.45584e-05
5.70567e-05
0.000115021
2.58615e-06
-1.65647e-05
1.61199e-05
-9.68608e-05
2.75871e-05
-8.00246e-05
3.60001e-05
-5.88987e-05
4.32805e-05
-5.25312e-05
5.04111e-05
-5.21811e-05
5.75079e-05
-5.2366e-05
6.44585e-05
-5.16566e-05
7.11897e-05
-5.0536e-05
7.76808e-05
-4.9325e-05
8.3923e-05
-4.81152e-05
8.99336e-05
-4.6911e-05
9.57067e-05
-4.56944e-05
0.000101239
-4.4464e-05
0.000106541
-4.32422e-05
0.000111613
-4.20336e-05
0.000116468
-4.08432e-05
0.000121105
-3.96732e-05
0.000125578
-3.85559e-05
0.000129851
-3.74614e-05
0.000133947
-3.64027e-05
0.000137885
-3.53905e-05
0.000141656
-3.43991e-05
0.000145298
-3.34824e-05
0.000148839
-3.26193e-05
0.000152271
-3.17938e-05
0.000155607
-3.10151e-05
0.000158863
-3.02884e-05
0.000162044
-2.96006e-05
0.000165163
-2.89596e-05
0.000168229
-2.83609e-05
0.00017125
-2.78069e-05
0.000174301
-2.73291e-05
0.000177303
-2.68492e-05
0.000180293
-2.64202e-05
0.000183265
-2.6022e-05
0.000186253
-2.56773e-05
0.000189236
-2.53482e-05
0.000192228
-2.50642e-05
0.000195236
-2.48057e-05
0.000198258
-2.45749e-05
0.000201276
-2.43492e-05
0.000204321
-2.41705e-05
0.00020737
-2.39872e-05
0.000210432
-2.38313e-05
0.000213511
-2.36898e-05
0.000216592
-2.35511e-05
0.000219672
-2.34234e-05
0.00022275
-2.33043e-05
0.00022582
-2.31891e-05
0.000228902
-2.30882e-05
0.000231963
-2.29708e-05
0.000234996
-2.28496e-05
0.000238007
-2.27235e-05
0.000241
-2.25899e-05
0.000243966
-2.24462e-05
0.000246902
-2.22882e-05
0.000249813
-2.21176e-05
0.000252684
-2.19165e-05
0.000255525
-2.17157e-05
0.00025833
-2.14947e-05
0.000261095
-2.12534e-05
0.00026382
-2.09977e-05
0.000266503
-2.07241e-05
0.000269139
-2.04381e-05
0.000271731
-2.01291e-05
0.000274273
-1.9812e-05
0.000276768
-1.9473e-05
0.000279217
-1.91285e-05
0.000281607
-1.87561e-05
0.000283944
-1.83812e-05
0.000286223
-1.79886e-05
0.000288456
-1.75883e-05
0.00029063
-1.71708e-05
0.000292746
-1.67372e-05
0.000294805
-1.62936e-05
0.000296806
-1.5834e-05
0.00029875
-1.53577e-05
0.000300637
-1.48688e-05
0.000302464
-1.43556e-05
0.000304237
-1.38256e-05
0.000305955
-1.32728e-05
0.000307617
-1.26898e-05
0.000309227
-1.20796e-05
0.000310786
-1.14461e-05
0.000312307
-1.07831e-05
0.000313775
-1.00824e-05
0.000315199
-9.34867e-06
0.00031658
-8.57528e-06
0.00031792
-7.77312e-06
0.000319221
-6.9265e-06
0.000320482
-6.03844e-06
0.000321697
-5.11824e-06
0.000322873
-4.16058e-06
0.000324
-3.16146e-06
0.000325083
-2.14863e-06
0.00032611
-1.09869e-06
0.000327073
-2.19001e-08
0.00032792
1.10596e-06
0.000328673
2.20156e-06
0.00032932
3.31565e-06
0.000329814
4.46527e-06
0.000330132
5.61947e-06
0.000330247
6.79828e-06
0.000330117
7.99876e-06
0.000329747
9.23261e-06
0.000329098
1.05164e-05
0.000328157
1.18483e-05
0.000326916
1.32137e-05
0.000325348
1.46694e-05
0.000323464
1.6178e-05
0.000321253
1.7769e-05
0.000318691
1.94605e-05
0.000315784
2.12331e-05
0.00031252
2.31081e-05
0.000308886
2.50834e-05
0.000304882
2.7162e-05
0.000300504
2.93356e-05
0.000295743
3.1615e-05
0.0002906
3.39885e-05
0.000285077
3.64496e-05
0.000279154
3.90076e-05
0.000272853
4.16296e-05
0.000266149
4.43481e-05
0.000259064
4.71084e-05
0.00025159
4.99348e-05
0.000243734
5.28025e-05
0.000235504
5.57034e-05
0.000226886
5.86383e-05
0.000217923
6.15683e-05
0.000208609
6.45096e-05
0.000198959
6.74299e-05
0.000188998
7.03291e-05
0.000178746
7.31873e-05
0.000168216
7.60042e-05
0.000157468
7.87335e-05
0.0001465
8.13914e-05
0.000135347
8.39591e-05
0.000124042
8.64112e-05
0.00011262
8.87339e-05
0.000101105
9.09043e-05
8.95304e-05
9.28746e-05
7.79342e-05
9.4644e-05
6.63118e-05
9.641e-05
5.4614e-05
9.86485e-05
4.281e-05
0.000100937