/*--------------------------------*- C++ -*----------------------------------*\
| =========                 |                                                 |
| \\      /  F ield         | OpenFOAM: The Open Source CFD Toolbox           |
|  \\    /   O peration     | Version:  v2006                                 |
|   \\  /    A nd           | Website:  www.openfoam.com                      |
|    \\/     M anipulation  |                                                 |
\*---------------------------------------------------------------------------*/
FoamFile
{
    version     2.0;
    format      ascii;
    class       surfaceScalarField;
    location    "10.2";
    object      phi;
}
// * * * * * * * * * * * * * * * * * * * * * * * * * * * * * * * * * * * * * //

dimensions      [0 3 -1 0 0 0 0];
oriented        oriented;


internalField   nonuniform List<scalar> 
99450
(
6.50806e-06
-6.50806e-06
2.45207e-05
-1.80126e-05
4.00935e-05
-1.55729e-05
5.36816e-05
-1.35881e-05
6.65242e-05
-1.28426e-05
7.9332e-05
-1.28077e-05
9.19473e-05
-1.26153e-05
0.000104445
-1.24974e-05
0.000116706
-1.22618e-05
0.000128757
-1.20503e-05
0.000140575
-1.18185e-05
0.000152152
-1.15762e-05
0.000163468
-1.13168e-05
0.000174513
-1.10444e-05
0.000185272
-1.07596e-05
0.00019571
-1.04374e-05
0.000205821
-1.01115e-05
0.000215585
-9.76353e-06
0.000224979
-9.39465e-06
0.000233983
-9.00312e-06
0.000242566
-8.58336e-06
0.000250712
-8.14581e-06
0.000258399
-7.68768e-06
0.000265601
-7.20151e-06
0.000272298
-6.69665e-06
0.000278467
-6.16982e-06
0.000284061
-5.59365e-06
0.000289087
-5.02549e-06
0.000293492
-4.40577e-06
0.00029726
-3.76766e-06
0.000300313
-3.05263e-06
0.000302648
-2.33525e-06
0.000304235
-1.58736e-06
0.000305053
-8.18091e-07
0.000305169
-1.15906e-07
0.000304595
5.74021e-07
0.000303465
1.12999e-06
0.000301885
1.57985e-06
0.000299956
1.92966e-06
0.000297753
2.20273e-06
0.000295313
2.43986e-06
0.000292629
2.68427e-06
0.000289711
2.91759e-06
0.000286561
3.15003e-06
0.000283242
3.31911e-06
0.00027991
3.33172e-06
0.000276777
3.13303e-06
0.000274054
2.72319e-06
0.000271917
2.1371e-06
0.000270442
1.47521e-06
0.000269612
8.29778e-07
0.000269351
2.6066e-07
0.000269593
-2.42019e-07
0.00027024
-6.4677e-07
0.000271232
-9.91901e-07
0.000272535
-1.30277e-06
0.000274122
-1.5868e-06
0.00027597
-1.84805e-06
0.000278056
-2.08594e-06
0.000280356
-2.30001e-06
0.000282846
-2.49027e-06
0.000285507
-2.66151e-06
0.000288319
-2.81139e-06
0.000291259
-2.9406e-06
0.000294309
-3.04955e-06
0.000297449
-3.13968e-06
0.000300659
-3.21022e-06
0.00030392
-3.26113e-06
0.000307213
-3.29343e-06
0.000310521
-3.30765e-06
0.000313826
-3.30507e-06
0.000317112
-3.28553e-06
0.000320362
-3.25042e-06
0.000323563
-3.20081e-06
0.000326696
-3.13318e-06
0.000329745
-3.04904e-06
0.000332688
-2.94267e-06
0.000335508
-2.82037e-06
0.00033817
-2.66187e-06
0.000340639
-2.46898e-06
0.000342883
-2.24361e-06
0.000344859
-1.97661e-06
0.000346526
-1.66709e-06
0.000347839
-1.31299e-06
0.000348756
-9.16296e-07
0.000349241
-4.85163e-07
0.000349228
1.29932e-08
0.000348642
5.85847e-07
0.000347461
1.18049e-06
0.000345608
1.85337e-06
0.000343001
2.60668e-06
0.000339567
3.43489e-06
0.000335207
4.35969e-06
0.000329821
5.38633e-06
0.000323258
6.56256e-06
0.000315321
7.93698e-06
0.000305786
9.53513e-06
0.000294441
1.13447e-05
0.00028128
1.31614e-05
0.000266524
1.47554e-05
0.000250602
1.59226e-05
0.000234002
1.65994e-05
0.000217167
1.68348e-05
0.00020046
1.6707e-05
0.000184132
1.63283e-05
0.000168346
1.57865e-05
0.000153217
1.51288e-05
0.000138861
1.43563e-05
0.000125377
1.3484e-05
0.000112853
1.25239e-05
0.000101446
1.14071e-05
9.13512e-05
1.00945e-05
8.26665e-05
8.68476e-06
7.53211e-05
7.34536e-06
6.9126e-05
6.19506e-06
6.38554e-05
5.2706e-06
5.93139e-05
4.54151e-06
5.53263e-05
3.98759e-06
5.17595e-05
3.56684e-06
4.84902e-05
3.26928e-06
4.54248e-05
3.06539e-06
4.25029e-05
2.92195e-06
3.9695e-05
2.80789e-06
3.69702e-05
2.72482e-06
3.43192e-05
2.65095e-06
3.17313e-05
2.58789e-06
2.92053e-05
2.52599e-06
2.67345e-05
2.47087e-06
2.43306e-05
2.40384e-06
2.19956e-05
2.33498e-06
1.97352e-05
2.26049e-06
1.75606e-05
2.17455e-06
1.54805e-05
2.08015e-06
1.34983e-05
1.98216e-06
1.16235e-05
1.87478e-06
9.86337e-06
1.76014e-06
8.21957e-06
1.64381e-06
6.69655e-06
1.52302e-06
5.30913e-06
1.38741e-06
4.07304e-06
1.2361e-06
3.01088e-06
1.06215e-06
2.14041e-06
8.70467e-07
1.46604e-06
6.74373e-07
1.03139e-06
4.34654e-07
8.60495e-07
1.70891e-07
1.09462e-06
-2.34128e-07
1.7152e-06
-6.20578e-07
3.08731e-06
-1.37211e-06
4.10218e-06
-1.01487e-06
4.10218e-06
-1.00885e-06
-5.49921e-06
4.80707e-06
-2.38285e-05
8.42896e-06
-1.91947e-05
1.00478e-05
-1.52069e-05
1.16108e-05
-1.44056e-05
1.32068e-05
-1.44038e-05
1.50099e-05
-1.44184e-05
1.67634e-05
-1.42509e-05
1.85752e-05
-1.40735e-05
2.04246e-05
-1.38997e-05
2.23428e-05
-1.37367e-05
2.43278e-05
-1.35612e-05
2.63881e-05
-1.33772e-05
2.85242e-05
-1.31804e-05
3.07526e-05
-1.29881e-05
3.31249e-05
-1.28097e-05
3.56012e-05
-1.25878e-05
3.82185e-05
-1.23809e-05
4.09647e-05
-1.21409e-05
4.38598e-05
-1.18982e-05
4.69295e-05
-1.1653e-05
5.01515e-05
-1.13679e-05
5.35343e-05
-1.10704e-05
5.71017e-05
-1.07689e-05
6.08669e-05
-1.04619e-05
6.4799e-05
-1.0102e-05
6.90005e-05
-9.79508e-06
7.34243e-05
-9.44935e-06
7.81092e-05
-9.09069e-06
8.30589e-05
-8.71734e-06
8.83735e-05
-8.36716e-06
9.40006e-05
-7.96238e-06
9.99652e-05
-7.55201e-06
0.000106277
-7.13028e-06
0.000112885
-6.72321e-06
0.000119749
-6.28987e-06
0.000126793
-5.91403e-06
0.000133955
-5.58294e-06
0.000141194
-5.30922e-06
0.000148487
-5.09033e-06
0.000155804
-4.87666e-06
0.000163208
-4.71997e-06
0.000170644
-4.51869e-06
0.000178088
-4.29355e-06
0.000185461
-4.05409e-06
0.000192643
-3.85009e-06
0.000199487
-3.71134e-06
0.000205879
-3.66822e-06
0.000211733
-3.71679e-06
0.000217041
-3.83276e-06
0.000221891
-4.02097e-06
0.000226343
-4.19081e-06
0.000230454
-4.35318e-06
0.000234295
-4.4875e-06
0.0002379
-4.59695e-06
0.000241279
-4.68244e-06
0.000244435
-4.74223e-06
0.000247379
-4.79234e-06
0.00025012
-4.8271e-06
0.00025267
-4.84925e-06
0.00025503
-4.85047e-06
0.000257215
-4.84689e-06
0.000259234
-4.83071e-06
0.000261098
-4.80407e-06
0.000262817
-4.76841e-06
0.000264399
-4.72223e-06
0.000265855
-4.66574e-06
0.000267196
-4.6028e-06
0.000268432
-4.52919e-06
0.000269574
-4.44966e-06
0.00027063
-4.3605e-06
0.000271611
-4.26684e-06
0.000272526
-4.16533e-06
0.000273386
-4.06083e-06
0.000274204
-3.95087e-06
0.000274992
-3.83698e-06
0.000275764
-3.71467e-06
0.000276529
-3.5858e-06
0.000277307
-3.43985e-06
0.000278114
-3.27615e-06
0.000278955
-3.08483e-06
0.000279841
-2.86226e-06
0.000280783
-2.60896e-06
0.000281777
-2.30667e-06
0.000282828
-1.96807e-06
0.000283925
-1.58181e-06
0.000285082
-1.14367e-06
0.000286308
-6.40941e-07
0.000287576
-8.67364e-08
0.000288909
5.2048e-07
0.000290311
1.20458e-06
0.000291778
1.96773e-06
0.000293316
2.82128e-06
0.000294952
3.75023e-06
0.000296744
4.7708e-06
0.000298798
5.88335e-06
0.000301246
7.08656e-06
0.000304274
8.31746e-06
0.000307938
9.49666e-06
0.000312226
1.04675e-05
0.000317025
1.11237e-05
0.000322215
1.141e-05
0.000327732
1.13174e-05
0.000333547
1.08915e-05
0.000339643
1.02331e-05
0.000345991
9.43799e-06
0.00035254
8.57977e-06
0.000359202
7.69444e-06
0.000365868
6.81831e-06
0.00037242
5.9717e-06
0.000378661
5.1661e-06
0.000384331
4.42403e-06
0.000389221
3.79495e-06
0.000393245
3.3212e-06
0.000396417
3.0228e-06
0.0003988
2.88779e-06
0.000400434
2.9075e-06
0.000401336
3.08591e-06
0.000401495
3.40794e-06
0.000400892
3.87255e-06
0.000399491
4.46603e-06
0.000397276
5.13679e-06
0.00039421
5.87429e-06
0.000390263
6.67152e-06
0.000385415
7.49933e-06
0.00037966
8.34223e-06
0.000372981
9.20508e-06
0.000365369
1.00835e-05
0.000356808
1.09643e-05
0.000347296
1.18467e-05
0.000336831
1.27255e-05
0.000325418
1.35877e-05
0.000313072
1.44269e-05
0.000299816
1.5238e-05
0.00028568
1.60109e-05
0.00027069
1.67495e-05
0.000254885
1.74487e-05
0.000238312
1.80959e-05
0.000221013
1.86866e-05
0.000203037
1.9212e-05
0.000184429
1.96708e-05
0.00016524
2.00593e-05
0.000145525
2.03893e-05
0.000125296
2.06641e-05
0.00010451
2.09566e-05
8.30244e-05
2.12513e-05
6.09536e-05
2.14503e-05
3.99632e-05
1.96183e-05
2.26021e-05
1.63462e-05
2.67043e-05
2.72609e-07
-5.77182e-06
9.37112e-06
-3.29271e-05
1.64502e-05
-2.62738e-05
2.07465e-05
-1.95032e-05
2.4416e-05
-1.8075e-05
2.8207e-05
-1.81948e-05
3.22361e-05
-1.84475e-05
3.63055e-05
-1.83203e-05
4.04057e-05
-1.81737e-05
4.44946e-05
-1.79887e-05
4.85863e-05
-1.78283e-05
5.27014e-05
-1.76763e-05
5.68249e-05
-1.75007e-05
6.09682e-05
-1.73237e-05
6.51387e-05
-1.71585e-05
6.93185e-05
-1.69895e-05
7.35338e-05
-1.68031e-05
7.77611e-05
-1.66082e-05
8.20205e-05
-1.64003e-05
8.6301e-05
-1.61786e-05
9.0583e-05
-1.5935e-05
9.49239e-05
-1.57088e-05
9.9292e-05
-1.54385e-05
0.000103676
-1.51529e-05
0.000108067
-1.48532e-05
0.000112526
-1.45606e-05
0.000116973
-1.42421e-05
0.000121427
-1.39036e-05
0.000125909
-1.35724e-05
0.000130418
-1.32264e-05
0.000134921
-1.28697e-05
0.000139459
-1.25006e-05
0.000144006
-1.20988e-05
0.000148605
-1.17297e-05
0.000153195
-1.13127e-05
0.000157828
-1.09229e-05
0.000162425
-1.05119e-05
0.00016698
-1.01374e-05
0.000171464
-9.79366e-06
0.000175858
-9.48443e-06
0.000180224
-9.24264e-06
0.00018451
-9.00512e-06
0.000188771
-8.78059e-06
0.000193029
-8.55116e-06
0.00019729
-8.31502e-06
0.000201504
-8.06395e-06
0.000205621
-7.82815e-06
0.000209582
-7.62994e-06
0.000213365
-7.49904e-06
0.000216966
-7.43438e-06
0.00022037
-7.42496e-06
0.000223625
-7.44534e-06
0.000226743
-7.47175e-06
0.000229753
-7.497e-06
0.000232662
-7.50615e-06
0.000235478
-7.49844e-06
0.000238218
-7.48175e-06
0.000240871
-7.44524e-06
0.000243442
-7.3985e-06
0.000245932
-7.33907e-06
0.000248355
-7.27386e-06
0.000250704
-7.19577e-06
0.000252984
-7.11057e-06
0.000255194
-7.01421e-06
0.000257341
-6.91514e-06
0.000259426
-6.80781e-06
0.000261455
-6.69423e-06
0.000263429
-6.57662e-06
0.000265353
-6.45389e-06
0.00026723
-6.32673e-06
0.000269066
-6.19629e-06
0.00027086
-6.06039e-06
0.000272619
-5.92469e-06
0.000274343
-5.78462e-06
0.000276038
-5.64636e-06
0.000277706
-5.50507e-06
0.000279352
-5.36048e-06
0.000280984
-5.21716e-06
0.000282606
-5.06203e-06
0.000284222
-4.8928e-06
0.000285846
-4.70867e-06
0.000287483
-4.49914e-06
0.000289131
-4.25682e-06
0.00029081
-3.9859e-06
0.000292512
-3.66981e-06
0.000294237
-3.3068e-06
0.000295995
-2.90177e-06
0.000297793
-2.43887e-06
0.000299633
-1.92696e-06
0.000301508
-1.3544e-06
0.000303445
-7.32419e-07
0.000305443
-3.03932e-08
0.000307512
7.52406e-07
0.000309674
1.58852e-06
0.000311965
2.47943e-06
0.000314439
3.40923e-06
0.000317141
4.38473e-06
0.000320168
5.29086e-06
0.000323499
6.16567e-06
0.000327075
6.89099e-06
0.000330771
7.42752e-06
0.00033442
7.76195e-06
0.000337863
7.87406e-06
0.000340969
7.78489e-06
0.000343651
7.55184e-06
0.000345866
7.22276e-06
0.000347605
6.84057e-06
0.000348868
6.43163e-06
0.000349672
6.01422e-06
0.000350051
5.59238e-06
0.000350011
5.20609e-06
0.000349546
4.8892e-06
0.00034866
4.68146e-06
0.000347381
4.5995e-06
0.000345771
4.63348e-06
0.000343895
4.76378e-06
0.000341812
4.98981e-06
0.000339574
5.32458e-06
0.000337203
5.77841e-06
0.000334717
6.35866e-06
0.000332115
7.06803e-06
0.000329351
7.90089e-06
0.00032637
8.85533e-06
0.000323118
9.92332e-06
0.000319529
1.10887e-05
0.000315529
1.23424e-05
0.000311063
1.36705e-05
0.000306082
1.50653e-05
0.000300518
1.65281e-05
0.00029431
1.80541e-05
0.000287403
1.96333e-05
0.000279733
2.12576e-05
0.000271238
2.29216e-05
0.000261881
2.45947e-05
0.000251613
2.62788e-05
0.000240409
2.79544e-05
0.000228254
2.96034e-05
0.000215136
3.12132e-05
0.00020106
3.27628e-05
0.000186033
3.42395e-05
0.000170093
3.561e-05
0.000153265
3.68882e-05
0.000135612
3.80418e-05
0.000117143
3.91334e-05
9.78254e-05
4.02739e-05
7.75185e-05
4.15583e-05
5.68789e-05
4.20899e-05
3.80258e-05
3.84714e-05
2.33766e-05
3.09953e-05
5.00809e-05
2.05142e-06
-7.82324e-06
1.435e-05
-4.52257e-05
2.46692e-05
-3.65929e-05
3.20979e-05
-2.69319e-05
3.85785e-05
-2.45557e-05
4.51475e-05
-2.47637e-05
5.17442e-05
-2.50442e-05
5.83194e-05
-2.48956e-05
6.47709e-05
-2.46253e-05
7.10849e-05
-2.43027e-05
7.72512e-05
-2.39946e-05
8.32686e-05
-2.36937e-05
8.914e-05
-2.33721e-05
9.48733e-05
-2.3057e-05
0.000100445
-2.27306e-05
0.000105852
-2.23965e-05
0.000111104
-2.20549e-05
0.000116201
-2.17054e-05
0.00012115
-2.13489e-05
0.000125955
-2.09836e-05
0.00013061
-2.05906e-05
0.000135102
-2.02009e-05
0.00013948
-1.98164e-05
0.00014374
-1.94129e-05
0.000147893
-1.90056e-05
0.000151923
-1.85904e-05
0.000155858
-1.81779e-05
0.000159699
-1.7744e-05
0.000163447
-1.73204e-05
0.000167103
-1.68826e-05
0.000170673
-1.64401e-05
0.000174169
-1.59962e-05
0.00017762
-1.55496e-05
0.000180985
-1.5095e-05
0.00018432
-1.46478e-05
0.000187588
-1.41904e-05
0.000190855
-1.37791e-05
0.000194091
-1.33739e-05
0.000197297
-1.29991e-05
0.000200469
-1.2657e-05
0.000203572
-1.23455e-05
0.000206621
-1.20542e-05
0.000209617
-1.17761e-05
0.000212578
-1.15121e-05
0.000215524
-1.1261e-05
0.000218483
-1.10227e-05
0.000221462
-1.08077e-05
0.000224463
-1.06304e-05
0.000227442
-1.04783e-05
0.000230382
-1.03748e-05
0.000233252
-1.02943e-05
0.000236052
-1.02462e-05
0.000238792
-1.02115e-05
0.000241469
-1.01741e-05
0.000244093
-1.01303e-05
0.000246676
-1.00814e-05
0.000249219
-1.00239e-05
0.000251727
-9.95352e-06
0.000254201
-9.87237e-06
0.000256644
-9.78244e-06
0.000259054
-9.68339e-06
0.000261434
-9.57576e-06
0.000263778
-9.45543e-06
0.000266095
-9.33095e-06
0.000268376
-9.19563e-06
0.000270624
-9.05657e-06
0.00027284
-8.90979e-06
0.00027502
-8.75677e-06
0.000277165
-8.5984e-06
0.000279275
-8.4371e-06
0.000281345
-8.26659e-06
0.00028338
-8.095e-06
0.00028537
-7.9147e-06
0.000287318
-7.73292e-06
0.000289216
-7.54452e-06
0.000291066
-7.35424e-06
0.000292864
-7.1593e-06
0.000294596
-6.94898e-06
0.000296268
-6.73381e-06
0.000297877
-6.50189e-06
0.000299414
-6.24594e-06
0.000300887
-5.97148e-06
0.000302297
-5.66706e-06
0.00030364
-5.3286e-06
0.000304924
-4.9546e-06
0.000306149
-4.53183e-06
0.000307326
-4.07873e-06
0.000308444
-3.55606e-06
0.000309512
-2.99527e-06
0.000310544
-2.38621e-06
0.000311532
-1.72034e-06
0.000312505
-1.00336e-06
0.00031348
-2.23403e-07
0.000314477
5.91407e-07
0.000315493
1.46393e-06
0.000316543
2.35896e-06
0.000317666
3.26231e-06
0.000318818
4.13815e-06
0.000320004
4.98021e-06
0.000321149
5.74573e-06
0.000322166
6.41048e-06
0.000322989
6.9391e-06
0.000323525
7.33774e-06
0.000323705
7.60512e-06
0.000323483
7.77414e-06
0.000322844
7.86111e-06
0.000321788
7.89661e-06
0.000320325
7.89478e-06
0.000318457
7.88222e-06
0.000316183
7.86688e-06
0.000313514
7.87496e-06
0.000310478
7.92539e-06
0.000307122
8.0367e-06
0.000303493
8.22881e-06
0.000299616
8.51062e-06
0.00029549
8.88992e-06
0.000291115
9.36507e-06
0.0002865
9.93953e-06
0.000281665
1.06131e-05
0.000276636
1.13872e-05
0.000271432
1.22721e-05
0.000266066
1.32671e-05
0.000260549
1.43726e-05
0.000254894
1.55784e-05
0.000249096
1.68866e-05
0.000243142
1.82965e-05
0.000237021
1.97912e-05
0.000230713
2.1373e-05
0.000224195
2.30462e-05
0.000217453
2.47963e-05
0.000210458
2.66281e-05
0.000203173
2.8543e-05
0.000195567
3.05278e-05
0.00018759
3.2571e-05
0.00017921
3.46587e-05
0.000170391
3.67734e-05
0.000161093
3.89017e-05
0.000151292
4.10145e-05
0.000140963
4.30922e-05
0.000130089
4.51131e-05
0.00011865
4.70494e-05
0.000106678
4.88597e-05
9.41716e-05
5.05483e-05
8.11056e-05
5.21993e-05
6.7358e-05
5.40216e-05
5.28705e-05
5.60457e-05
3.88144e-05
5.61459e-05
2.7416e-05
4.98699e-05
1.90365e-05
3.93748e-05
6.91174e-05
2.59298e-06
-1.04162e-05
1.58438e-05
-5.84764e-05
2.71009e-05
-4.785e-05
3.55813e-05
-3.54123e-05
4.3105e-05
-3.20795e-05
5.0493e-05
-3.21517e-05
5.7898e-05
-3.24492e-05
6.51647e-05
-3.21622e-05
7.22232e-05
-3.16838e-05
7.90696e-05
-3.11491e-05
8.56958e-05
-3.06208e-05
9.20943e-05
-3.00922e-05
9.82717e-05
-2.95495e-05
0.000104212
-2.89975e-05
0.000109917
-2.8435e-05
0.000115394
-2.78736e-05
0.000120644
-2.73048e-05
0.000125664
-2.6726e-05
0.000130467
-2.61519e-05
0.000135053
-2.55694e-05
0.000139478
-2.50156e-05
0.00014372
-2.44423e-05
0.000147777
-2.38734e-05
0.000151673
-2.33091e-05
0.000155422
-2.2755e-05
0.000159039
-2.22071e-05
0.000162525
-2.1664e-05
0.000165919
-2.11377e-05
0.000169205
-2.06063e-05
0.000172428
-2.01058e-05
0.000175575
-1.95873e-05
0.000178686
-1.91074e-05
0.000181757
-1.86207e-05
0.000184802
-1.81393e-05
0.000187833
-1.76791e-05
0.000190907
-1.72641e-05
0.000193981
-1.68535e-05
0.000197045
-1.64379e-05
0.000200124
-1.60781e-05
0.000203204
-1.57366e-05
0.000206275
-1.54168e-05
0.000209343
-1.51225e-05
0.000212408
-1.48414e-05
0.000215474
-1.45781e-05
0.000218546
-1.43326e-05
0.000221616
-1.40926e-05
0.00022469
-1.38819e-05
0.000227757
-1.36978e-05
0.000230823
-1.3544e-05
0.000233851
-1.34027e-05
0.000236853
-1.32962e-05
0.000239803
-1.31963e-05
0.000242702
-1.31103e-05
0.000245547
-1.30186e-05
0.000248344
-1.29278e-05
0.000251097
-1.28347e-05
0.000253803
-1.27293e-05
0.000256468
-1.26186e-05
0.000259097
-1.2502e-05
0.000261683
-1.23685e-05
0.000264225
-1.22252e-05
0.000266726
-1.20763e-05
0.000269186
-1.19157e-05
0.000271608
-1.17524e-05
0.000273983
-1.15706e-05
0.000276312
-1.13858e-05
0.000278594
-1.1192e-05
0.00028083
-1.0993e-05
0.000283016
-1.07838e-05
0.000285148
-1.05693e-05
0.000287226
-1.03449e-05
0.000289249
-1.01173e-05
0.000291213
-9.87929e-06
0.000293117
-9.63634e-06
0.000294957
-9.38479e-06
0.000296727
-9.12466e-06
0.000298425
-8.85694e-06
0.000300051
-8.57491e-06
0.000301598
-8.28051e-06
0.000303063
-7.96725e-06
0.00030445
-7.63239e-06
0.000305755
-7.27679e-06
0.000306978
-6.89064e-06
0.000308123
-6.47278e-06
0.000309185
-6.01696e-06
0.000310186
-5.53331e-06
0.000311104
-4.99583e-06
0.000311977
-4.42928e-06
0.0003128
-3.81901e-06
0.000313566
-3.15174e-06
0.000314288
-2.4419e-06
0.000314975
-1.69074e-06
0.000315641
-8.89459e-07
0.000316288
-5.52382e-08
0.000316916
8.35319e-07
0.00031756
1.71511e-06
0.000318205
2.61765e-06
0.000318843
3.50001e-06
0.000319454
4.36923e-06
0.000320029
5.17099e-06
0.000320516
5.92309e-06
0.000320859
6.59594e-06
0.000321031
7.16564e-06
0.00032098
7.65619e-06
0.000320667
8.08711e-06
0.000320059
8.46894e-06
0.000319133
8.82254e-06
0.000317866
9.16234e-06
0.000316237
9.51126e-06
0.000314213
9.8905e-06
0.000311779
1.03096e-05
0.000308917
1.07871e-05
0.000305619
1.13342e-05
0.000301886
1.19619e-05
0.000297726
1.26708e-05
0.000293149
1.34675e-05
0.000288167
1.43464e-05
0.000282792
1.53149e-05
0.000277037
1.63683e-05
0.00027092
1.75037e-05
0.000264464
1.87288e-05
0.000257679
2.00513e-05
0.000250595
2.14569e-05
0.000243229
2.29447e-05
0.000235605
2.45105e-05
0.000227742
2.61588e-05
0.00021965
2.78842e-05
0.000211359
2.96631e-05
0.000202892
3.15136e-05
0.000194254
3.34338e-05
0.000185459
3.54235e-05
0.000176536
3.74659e-05
0.000167487
3.95772e-05
0.000158329
4.17288e-05
0.000149061
4.39267e-05
0.000139685
4.61494e-05
0.000130205
4.83821e-05
0.000120608
5.06114e-05
0.000110884
5.28155e-05
0.00010103
5.4967e-05
9.10449e-05
5.7035e-05
8.09181e-05
5.89865e-05
7.06604e-05
6.0806e-05
6.02311e-05
6.26285e-05
4.95074e-05
6.47453e-05
3.85786e-05
6.69745e-05
2.85341e-05
6.61905e-05
2.11848e-05
5.72192e-05
1.58152e-05
4.47444e-05
8.49326e-05
2.70955e-06
-1.31258e-05
1.60505e-05
-7.18173e-05
2.73298e-05
-5.91294e-05
3.58462e-05
-4.39286e-05
4.34098e-05
-3.96431e-05
5.08612e-05
-3.96032e-05
5.82374e-05
-3.98254e-05
6.54652e-05
-3.93901e-05
7.24711e-05
-3.86897e-05
7.92502e-05
-3.79282e-05
8.5798e-05
-3.71686e-05
9.21059e-05
-3.64e-05
9.81778e-05
-3.56214e-05
0.000104012
-3.48314e-05
0.000109611
-3.40343e-05
0.000114968
-3.32307e-05
0.000120097
-3.2434e-05
0.000125018
-3.16473e-05
0.000129731
-3.08642e-05
0.000134243
-3.00818e-05
0.000138554
-2.93262e-05
0.000142702
-2.85909e-05
0.000146688
-2.78589e-05
0.000150533
-2.71541e-05
0.000154252
-2.64741e-05
0.000157846
-2.5801e-05
0.000161331
-2.51498e-05
0.000164721
-2.4527e-05
0.000168042
-2.39277e-05
0.000171288
-2.33514e-05
0.000174481
-2.27806e-05
0.000177628
-2.22538e-05
0.000180728
-2.1721e-05
0.000183836
-2.12479e-05
0.000186924
-2.07664e-05
0.000189975
-2.03153e-05
0.000193012
-1.98905e-05
0.000196086
-1.95117e-05
0.000199146
-1.91379e-05
0.000202205
-1.87956e-05
0.000205272
-1.84842e-05
0.000208334
-1.81845e-05
0.000211405
-1.79123e-05
0.000214478
-1.76512e-05
0.000217554
-1.74081e-05
0.000220649
-1.71882e-05
0.000223745
-1.69779e-05
0.000226835
-1.67874e-05
0.000229909
-1.66187e-05
0.00023297
-1.64634e-05
0.000235994
-1.63202e-05
0.000238983
-1.61855e-05
0.000241929
-1.60557e-05
0.000244841
-1.59304e-05
0.000247709
-1.57964e-05
0.000250535
-1.56608e-05
0.00025332
-1.55145e-05
0.000256061
-1.53591e-05
0.000258753
-1.51938e-05
0.0002614
-1.50159e-05
0.000264013
-1.48381e-05
0.000266575
-1.46383e-05
0.00026909
-1.44308e-05
0.000271551
-1.42129e-05
0.000273965
-1.39851e-05
0.000276326
-1.37467e-05
0.000278635
-1.35007e-05
0.000280886
-1.3244e-05
0.000283081
-1.29792e-05
0.000285217
-1.27057e-05
0.000287294
-1.24218e-05
0.00028931
-1.21327e-05
0.000291262
-1.18316e-05
0.000293151
-1.15258e-05
0.000294975
-1.12083e-05
0.000296732
-1.08813e-05
0.000298417
-1.05426e-05
0.000300034
-1.01919e-05
0.000301587
-9.83378e-06
0.000303059
-9.43901e-06
0.000304463
-9.0367e-06
0.000305798
-8.61134e-06
0.000307066
-8.15867e-06
0.000308273
-7.67988e-06
0.000309424
-7.16739e-06
0.000310516
-6.62523e-06
0.000311548
-6.02871e-06
0.000312534
-5.41443e-06
0.000313479
-4.76412e-06
0.000314388
-4.0607e-06
0.000315268
-3.32206e-06
0.00031612
-2.54286e-06
0.000316961
-1.73019e-06
0.000317787
-8.81573e-07
0.000318629
-6.81243e-09
0.000319425
9.19613e-07
0.000320214
1.82821e-06
0.000320998
2.71574e-06
0.000321757
3.61093e-06
0.000322442
4.48587e-06
0.000323037
5.32784e-06
0.000323481
6.1518e-06
0.000323767
6.87941e-06
0.000323819
7.60408e-06
0.000323589
8.31736e-06
0.000323072
8.98662e-06
0.000322219
9.67506e-06
0.000321018
1.03635e-05
0.000319455
1.10744e-05
0.000317526
1.18189e-05
0.000315222
1.26137e-05
0.000312548
1.34617e-05
0.000309499
1.43828e-05
0.000306074
1.53866e-05
0.000302274
1.64709e-05
0.000298093
1.76489e-05
0.000293515
1.89243e-05
0.00028854
2.02899e-05
0.000283162
2.17459e-05
0.000277373
2.32923e-05
0.000271173
2.49291e-05
0.000264576
2.66481e-05
0.000257589
2.84439e-05
0.000250214
3.03198e-05
0.000242472
3.22525e-05
0.000234374
3.42575e-05
0.000225945
3.63127e-05
0.000217189
3.8419e-05
0.000208131
4.05722e-05
0.000198799
4.27651e-05
0.000189236
4.49867e-05
0.000179455
4.72471e-05
0.000169507
4.95256e-05
0.000159412
5.18237e-05
0.00014921
5.41281e-05
0.00013893
5.64297e-05
0.000128597
5.87155e-05
0.000118239
6.09687e-05
0.000107878
6.31769e-05
9.75253e-05
6.53194e-05
8.71927e-05
6.73676e-05
7.69029e-05
6.92763e-05
6.66685e-05
7.10405e-05
5.64723e-05
7.28247e-05
4.6237e-05
7.49806e-05
3.60432e-05
7.71683e-05
2.66715e-05
7.55622e-05
1.96608e-05
6.42299e-05
1.44986e-05
4.99066e-05
9.94312e-05
2.80414e-06
-1.59299e-05
1.62684e-05
-8.52816e-05
2.76501e-05
-7.05111e-05
3.61472e-05
-5.24258e-05
4.36782e-05
-4.71741e-05
5.10327e-05
-4.69576e-05
5.83655e-05
-4.71582e-05
6.55495e-05
-4.65741e-05
7.25084e-05
-4.56486e-05
7.92309e-05
-4.46507e-05
8.57221e-05
-4.36599e-05
9.19768e-05
-4.26547e-05
9.79957e-05
-4.16403e-05
0.000103778
-4.06132e-05
0.000109324
-3.95807e-05
0.000114652
-3.8559e-05
0.00011976
-3.75415e-05
0.000124653
-3.65409e-05
0.000129328
-3.55385e-05
0.000133839
-3.45929e-05
0.000138168
-3.36557e-05
0.000142324
-3.27463e-05
0.000146329
-3.18639e-05
0.000150192
-3.10172e-05
0.000153911
-3.01931e-05
0.000157523
-2.94131e-05
0.00016104
-2.86666e-05
0.000164467
-2.79542e-05
0.000167813
-2.72738e-05
0.000171087
-2.66258e-05
0.000174318
-2.60108e-05
0.000177495
-2.54313e-05
0.000180626
-2.48523e-05
0.000183728
-2.43493e-05
0.000186821
-2.38593e-05
0.000189911
-2.34059e-05
0.000192992
-2.29714e-05
0.000196054
-2.25737e-05
0.000199122
-2.22056e-05
0.000202184
-2.18579e-05
0.000205239
-2.15389e-05
0.000208297
-2.12427e-05
0.000211349
-2.0965e-05
0.000214403
-2.07044e-05
0.000217458
-2.04632e-05
0.000220504
-2.02341e-05
0.000223549
-2.00237e-05
0.00022659
-1.98276e-05
0.000229614
-1.96426e-05
0.000232619
-1.94686e-05
0.00023559
-1.92911e-05
0.000238536
-1.91315e-05
0.000241458
-1.89776e-05
0.000244341
-1.88136e-05
0.000247184
-1.86399e-05
0.000249992
-1.84685e-05
0.000252765
-1.82875e-05
0.000255496
-1.809e-05
0.000258184
-1.78816e-05
0.000260832
-1.76641e-05
0.00026343
-1.74362e-05
0.000265986
-1.7194e-05
0.000268496
-1.69407e-05
0.000270957
-1.66737e-05
0.000273374
-1.64022e-05
0.000275734
-1.61073e-05
0.000278047
-1.58138e-05
0.000280301
-1.54977e-05
0.000282501
-1.51791e-05
0.000284643
-1.48475e-05
0.000286732
-1.45108e-05
0.000288762
-1.4163e-05
0.000290731
-1.38006e-05
0.00029264
-1.34351e-05
0.000294488
-1.30562e-05
0.000296276
-1.26691e-05
0.000298003
-1.22697e-05
0.000299667
-1.18554e-05
0.000301263
-1.14299e-05
0.000302812
-1.09881e-05
0.000304299
-1.05241e-05
0.000305729
-1.00408e-05
0.000307102
-9.53177e-06
0.000308415
-8.99341e-06
0.000309681
-8.43345e-06
0.000310888
-7.83206e-06
0.000312071
-7.21165e-06
0.000313206
-6.54913e-06
0.000314292
-5.84991e-06
0.000315353
-5.12171e-06
0.000316378
-4.34729e-06
0.00031737
-3.53508e-06
0.000318338
-2.69814e-06
0.000319276
-1.81922e-06
0.000320176
-9.07404e-07
0.000321073
2.26923e-08
0.000321923
9.78146e-07
0.000322697
1.9423e-06
0.000323402
2.90535e-06
0.000324029
3.85893e-06
0.000324538
4.81897e-06
0.000324923
5.76678e-06
0.000325107
6.69577e-06
0.00032509
7.62084e-06
0.000324881
8.52587e-06
0.000324402
9.466e-06
0.000323658
1.0419e-05
0.000322617
1.14048e-05
0.000321276
1.24152e-05
0.000319605
1.34898e-05
0.000317591
1.46281e-05
0.000315217
1.58353e-05
0.00031248
1.71204e-05
0.000309374
1.84921e-05
0.000305891
1.99536e-05
0.000302037
2.15031e-05
0.000297807
2.3155e-05
0.000293198
2.48989e-05
0.000288204
2.6739e-05
0.000282821
2.86756e-05
0.000277049
3.07008e-05
0.000270892
3.28054e-05
0.000264342
3.49937e-05
0.000257405
3.72573e-05
0.000250074
3.95831e-05
0.000242362
4.19695e-05
0.000234271
4.44037e-05
0.000225809
4.68814e-05
0.000217002
4.93793e-05
0.000207848
5.19185e-05
0.000198373
5.44621e-05
0.000188617
5.70034e-05
0.000178593
5.95489e-05
0.000168342
6.20752e-05
0.000157895
6.45752e-05
0.000147273
6.7051e-05
0.000136536
6.94528e-05
0.000125701
7.18036e-05
0.000114805
7.40737e-05
0.000103874
7.62504e-05
9.29388e-05
7.83024e-05
8.20244e-05
8.01907e-05
7.11474e-05
8.19174e-05
6.03334e-05
8.36387e-05
4.95283e-05
8.57858e-05
3.87408e-05
8.79558e-05
2.84842e-05
8.58187e-05
2.03285e-05
7.23856e-05
1.43741e-05
5.58609e-05
0.000113805
2.88132e-06
-1.88112e-05
1.67111e-05
-9.91114e-05
2.84745e-05
-8.22746e-05
3.71814e-05
-6.11326e-05
4.4753e-05
-5.47457e-05
5.21721e-05
-5.43767e-05
5.95547e-05
-5.45408e-05
6.67878e-05
-5.38072e-05
7.37979e-05
-5.26587e-05
8.05637e-05
-5.14164e-05
8.7076e-05
-5.01722e-05
9.33516e-05
-4.89304e-05
9.93843e-05
-4.7673e-05
0.00010517
-4.63991e-05
0.00011072
-4.51308e-05
0.000116034
-4.38728e-05
0.000121123
-4.26304e-05
0.000125988
-4.14056e-05
0.00013068
-4.0231e-05
0.000135164
-3.90767e-05
0.000139464
-3.79558e-05
0.000143597
-3.68792e-05
0.000147554
-3.58212e-05
0.000151373
-3.48358e-05
0.000155082
-3.39021e-05
0.000158673
-3.3004e-05
0.000162157
-3.2151e-05
0.000165551
-3.13483e-05
0.000168861
-3.05831e-05
0.000172098
-2.98633e-05
0.000175272
-2.91845e-05
0.00017839
-2.85492e-05
0.000181527
-2.7989e-05
0.000184603
-2.74261e-05
0.000187657
-2.69131e-05
0.000190682
-2.64305e-05
0.000193711
-2.60008e-05
0.000196724
-2.55865e-05
0.000199735
-2.5217e-05
0.000202751
-2.48731e-05
0.000205769
-2.45571e-05
0.000208773
-2.42465e-05
0.000211791
-2.39834e-05
0.000214803
-2.37163e-05
0.000217817
-2.34774e-05
0.000220837
-2.32539e-05
0.000223848
-2.30344e-05
0.000226847
-2.28271e-05
0.000229834
-2.26298e-05
0.000232804
-2.2438e-05
0.000235775
-2.22624e-05
0.000238715
-2.2072e-05
0.000241618
-2.188e-05
0.00024449
-2.16854e-05
0.000247335
-2.14854e-05
0.000250145
-2.12779e-05
0.000252916
-2.10586e-05
0.000255655
-2.08294e-05
0.000258346
-2.05725e-05
0.000261001
-2.03188e-05
0.000263612
-2.00478e-05
0.000266178
-1.97597e-05
0.000268698
-1.94603e-05
0.00027117
-1.91463e-05
0.000273591
-1.88229e-05
0.000275963
-1.848e-05
0.000278282
-1.81322e-05
0.00028055
-1.7766e-05
0.000282769
-1.73976e-05
0.000284926
-1.70048e-05
0.000287028
-1.66127e-05
0.000289071
-1.62064e-05
0.000291066
-1.57956e-05
0.000293002
-1.53711e-05
0.00029488
-1.49337e-05
0.0002967
-1.44895e-05
0.000298463
-1.40325e-05
0.000300169
-1.3562e-05
0.000301821
-1.30819e-05
0.000303414
-1.25805e-05
0.000304955
-1.20652e-05
0.000306444
-1.153e-05
0.00030788
-1.09674e-05
0.000309267
-1.03803e-05
0.000310606
-9.77244e-06
0.000311911
-9.13749e-06
0.000313167
-8.46743e-06
0.000314384
-7.76665e-06
0.000315563
-7.02841e-06
0.000316705
-6.26348e-06
0.000317814
-5.45623e-06
0.000318888
-4.6094e-06
0.000319922
-3.73229e-06
0.000320922
-2.81939e-06
0.000321882
-1.86679e-06
0.000322807
-9.025e-07
0.00032369
9.49554e-08
0.000324479
1.15376e-06
0.00032519
2.19355e-06
0.00032581
3.23912e-06
0.00032633
4.29948e-06
0.000326703
5.39316e-06
0.000326909
6.4904e-06
0.000326918
7.61101e-06
0.000326692
8.75237e-06
0.000326232
9.92616e-06
0.000325502
1.1149e-05
0.000324487
1.24192e-05
0.00032318
1.37225e-05
0.000321555
1.51152e-05
0.000319622
1.65604e-05
0.00031737
1.80877e-05
0.000314775
1.9715e-05
0.000311844
2.14232e-05
0.000308564
2.32336e-05
0.000304923
2.51443e-05
0.00030092
2.71583e-05
0.000296551
2.92675e-05
0.000291808
3.14826e-05
0.000286691
3.37922e-05
0.000281202
3.61898e-05
0.000275323
3.86848e-05
0.000269072
4.12446e-05
0.000262428
4.39015e-05
0.000255409
4.66012e-05
0.000248011
4.9368e-05
0.000240237
5.21772e-05
0.000232098
5.50209e-05
0.000223577
5.79e-05
0.00021472
6.07758e-05
0.000205518
6.36645e-05
0.000195987
6.65339e-05
0.000186152
6.93841e-05
0.000176032
7.21954e-05
0.000165639
7.49675e-05
0.000155036
7.76543e-05
0.000144217
8.0272e-05
0.000133218
8.28019e-05
0.000122073
8.52189e-05
0.000110815
8.7509e-05
9.94675e-05
8.96495e-05
8.80653e-05
9.15929e-05
7.66446e-05
9.33381e-05
6.52007e-05
9.50826e-05
5.36842e-05
9.73023e-05
4.20638e-05
9.95762e-05
3.0771e-05