/*--------------------------------*- C++ -*----------------------------------*\
| =========                 |                                                 |
| \\      /  F ield         | OpenFOAM: The Open Source CFD Toolbox           |
|  \\    /   O peration     | Version:  v2006                                 |
|   \\  /    A nd           | Website:  www.openfoam.com                      |
|    \\/     M anipulation  |                                                 |
\*---------------------------------------------------------------------------*/
FoamFile
{
    version     2.0;
    format      ascii;
    class       volScalarField;
    location    "0";
    object      f;
}
// * * * * * * * * * * * * * * * * * * * * * * * * * * * * * * * * * * * * * //

dimensions      [0 0 0 0 0 0 0];


internalField   nonuniform List<scalar> 
2500
(
5.87072e-77
-2.12869e-61
6.23875e-55
4.36392e-48
4.45389e-44
7.46057e-41
2.86279e-38
2.73563e-36
8.09359e-35
1.45785e-33
1.67365e-32
1.20819e-31
5.83293e-31
2.03766e-30
5.53691e-30
1.2497e-29
2.74569e-29
6.21301e-29
1.28192e-28
2.19499e-28
3.0606e-28
3.52619e-28
3.44429e-28
2.93737e-28
2.25079e-28
1.58613e-28
1.04271e-28
6.42646e-29
3.70891e-29
1.99802e-29
1.00229e-29
4.67928e-30
2.03535e-30
8.2677e-31
3.14565e-31
1.12469e-31
3.79124e-32
1.2087e-32
3.65522e-33
1.05131e-33
2.88283e-34
7.55304e-35
1.89445e-35
4.55685e-36
1.05281e-36
2.33966e-37
5.00777e-38
1.03357e-38
2.05931e-39
1.98089e-40
1.11397e-74
-1.22063e-59
1.30341e-53
8.03276e-47
5.93684e-43
7.98424e-40
2.58736e-37
2.13552e-35
5.60136e-34
9.01044e-33
9.43684e-32
6.30952e-31
2.84509e-30
9.32533e-30
2.38219e-29
5.06283e-29
1.06809e-28
2.3695e-28
4.78177e-28
7.93146e-28
1.0631e-27
1.17013e-27
1.08601e-27
8.76709e-28
6.35735e-28
4.25951e-28
2.68622e-28
1.60467e-28
9.0553e-29
4.79791e-29
2.37478e-29
1.09538e-29
4.70891e-30
1.89014e-30
7.10433e-31
2.50861e-31
8.35004e-32
2.62848e-32
7.84868e-33
2.22929e-33
6.03799e-34
1.56294e-34
3.87415e-35
9.21222e-36
2.10471e-36
4.62683e-37
9.79938e-38
2.00195e-38
3.94932e-39
4.09671e-40
1.8583e-72
-6.14835e-58
1.00585e-52
1.3097e-45
7.01107e-42
7.66799e-39
2.14351e-36
1.55784e-34
3.68832e-33
5.3813e-32
5.22439e-31
3.2882e-30
1.40695e-29
4.39327e-29
1.07056e-28
2.17268e-28
4.4661e-28
9.84754e-28
1.96587e-27
3.19256e-27
4.1586e-27
4.42214e-27
3.94325e-27
3.04457e-27
2.10854e-27
1.35444e-27
8.26317e-28
4.82848e-28
2.69047e-28
1.4159e-28
6.97959e-29
3.2084e-29
1.37409e-29
5.49104e-30
2.05321e-30
7.20819e-31
2.38434e-31
7.45659e-32
2.21167e-32
6.23955e-33
1.67865e-33
4.31649e-34
1.06303e-34
2.51181e-35
5.7036e-36
1.24639e-36
2.62463e-37
5.33214e-38
1.04623e-38
1.13973e-39
3.01784e-70
-3.00698e-56
-6.17269e-51
2.10171e-44
8.04936e-41
7.11947e-38
1.72575e-35
1.10742e-33
2.36869e-32
3.12948e-31
2.81417e-30
1.6679e-29
6.77626e-29
2.01711e-28
4.6902e-28
9.08924e-28
1.82509e-27
4.01574e-27
7.94365e-27
1.26356e-26
1.59952e-26
1.6425e-26
1.40507e-26
1.03419e-26
6.80417e-27
4.1643e-27
2.44617e-27
1.39631e-27
7.69581e-28
4.03601e-28
1.98842e-28
9.13698e-29
3.90777e-29
1.5574e-29
5.80074e-30
2.02655e-30
6.66601e-31
2.07203e-31
6.10667e-32
1.71162e-32
4.57475e-33
1.16874e-33
2.85994e-34
6.7156e-35
1.51568e-35
3.29268e-36
6.89411e-37
1.39286e-37
2.71834e-38
3.09069e-39
4.76651e-68
-1.42632e-54
-4.46921e-49
3.32336e-43
8.9835e-40
6.36868e-37
1.34829e-34
7.66727e-33
1.48323e-31
1.77108e-30
1.47353e-29
8.22534e-29
3.17473e-28
9.01416e-28
2.00037e-27
3.70087e-27
7.28054e-27
1.60573e-26
3.1529e-26
4.91404e-26
6.04532e-26
5.99201e-26
4.90947e-26
3.43128e-26
2.12961e-26
1.23064e-26
6.90961e-27
3.84471e-27
2.1022e-27
1.10451e-27
5.46762e-28
2.52248e-28
1.08085e-28
4.30602e-29
1.60016e-29
5.56934e-30
1.82313e-30
5.63561e-31
1.65099e-31
4.59868e-32
1.22134e-32
3.10045e-33
7.53944e-34
1.75952e-34
3.94736e-35
8.52538e-36
1.77493e-36
3.56634e-37
6.9232e-38
8.17316e-39
7.31359e-66
-6.55261e-53
-2.01097e-47
5.18225e-42
9.75127e-39
5.46292e-36
1.02031e-33
5.167e-32
9.05347e-31
9.74863e-30
7.49267e-29
3.93911e-28
1.44489e-27
3.91489e-27
8.29135e-27
1.46376e-26
2.8309e-26
6.29055e-26
1.22831e-25
1.87651e-25
2.24351e-25
2.14554e-25
1.68073e-25
1.11011e-25
6.43749e-26
3.46402e-26
1.83618e-26
9.92364e-27
5.41216e-27
2.87494e-27
1.4423e-27
6.72456e-28
2.90006e-28
1.15851e-28
4.30421e-29
1.49452e-29
4.87335e-30
1.49906e-30
4.36727e-31
1.20926e-31
3.19198e-32
8.05311e-33
1.94629e-33
4.51475e-34
1.00688e-34
2.16212e-35
4.47624e-36
8.94525e-37
1.72737e-37
2.10813e-38
1.08867e-63
-2.91063e-51
-7.53606e-46
7.969e-41
1.03103e-37
4.46236e-35
7.46027e-33
3.38668e-31
5.38543e-30
5.21649e-29
3.69629e-28
1.82966e-27
6.3783e-27
1.64941e-26
3.33277e-26
5.60934e-26
1.07091e-25
2.41198e-25
4.69297e-25
7.03044e-25
8.16913e-25
7.53479e-25
5.63235e-25
3.49499e-25
1.86807e-25
9.14727e-26
4.47086e-26
2.32988e-26
1.28193e-26
7.00707e-27
3.6162e-27
1.72165e-27
7.52327e-28
3.02641e-28
1.12719e-28
3.91135e-29
1.2719e-29
3.89619e-30
1.12937e-30
3.10972e-31
8.16039e-32
2.04651e-32
4.91645e-33
1.13371e-33
2.51374e-34
5.36731e-35
1.10507e-35
2.19654e-36
4.21954e-37
5.30374e-38
1.56963e-61
-1.24744e-49
-2.53193e-44
1.20715e-39
1.06517e-36
3.434e-34
5.25257e-32
2.15682e-30
3.12108e-29
2.7125e-28
1.76746e-27
8.23252e-27
2.72628e-26
6.72664e-26
1.29557e-25
2.07563e-25
3.93176e-25
9.04056e-25
1.75675e-24
2.58193e-24
2.91607e-24
2.59318e-24
1.84581e-24
1.06807e-24
5.15624e-25
2.2013e-25
9.39078e-26
4.62965e-26
2.64895e-26
1.55192e-26
8.48537e-27
4.19933e-27
1.8786e-27
7.65581e-28
2.86875e-28
9.96989e-29
3.23753e-29
9.88496e-30
2.85256e-30
7.81388e-31
2.03907e-31
5.08423e-32
1.21432e-32
2.78402e-33
6.13787e-34
1.30328e-34
2.66879e-35
5.27675e-36
1.00846e-36
1.30133e-37
2.18778e-59
-5.14468e-48
-7.85397e-43
1.7969e-38
1.08101e-35
2.4446e-33
3.54375e-31
1.33276e-29
1.76156e-28
1.37023e-27
8.18533e-27
3.5841e-26
1.12619e-25
2.64825e-25
4.85307e-25
7.3808e-25
1.39642e-24
3.30748e-24
6.43604e-24
9.28565e-24
1.01953e-23
8.7389e-24
5.90926e-24
3.15834e-24
1.33315e-24
4.50891e-25
1.38753e-25
5.91003e-26
4.04276e-26
2.90804e-26
1.80946e-26
9.63323e-27
4.4872e-27
1.86897e-27
7.0801e-28
2.47125e-28
8.02711e-29
2.44539e-29
7.0301e-30
1.91665e-30
4.97536e-31
1.23373e-31
2.93013e-32
6.68015e-33
1.46461e-33
3.09302e-34
6.3002e-35
1.23925e-35
2.35648e-36
3.11313e-37
2.94109e-57
-2.03466e-46
-2.281e-41
2.6179e-37
1.08644e-34
1.55363e-32
2.27425e-30
7.97469e-29
9.67665e-28
6.72308e-27
3.66911e-26
1.50834e-25
4.48702e-25
1.00312e-24
1.74301e-24
2.50444e-24
4.77614e-24
1.17891e-23
2.3048e-23
3.26683e-23
3.48792e-23
2.88113e-23
1.84611e-23
8.99955e-24
3.13612e-24
6.1146e-25
-5.69414e-26
-7.49503e-26
2.01697e-27
3.51711e-26
3.27212e-26
2.03086e-26
1.01568e-26
4.38312e-27
1.69003e-27
5.94594e-28
1.93587e-28
5.89152e-29
1.68862e-29
4.58444e-30
1.18426e-30
2.92126e-31
6.90078e-32
1.56476e-32
3.41238e-33
7.16848e-34
1.45264e-34
2.84299e-35
5.3795e-36
7.25839e-37
3.80227e-55
-7.68011e-45
-6.24537e-40
3.712e-36
1.09266e-33
8.06939e-32
1.37206e-29
4.60673e-28
5.1681e-27
3.20355e-26
1.59141e-25
6.13306e-25
1.72096e-24
3.64021e-24
5.95912e-24
8.01919e-24
1.56297e-23
4.08468e-23
8.05644e-23
1.12303e-22
1.16639e-22
9.28449e-23
5.62174e-23
2.4572e-23
6.26887e-24
-6.04565e-25
-1.63632e-24
-9.71324e-25
-3.34795e-25
-3.97215e-26
3.88616e-26
3.74426e-26
2.14526e-26
9.81269e-27
3.88889e-27
1.38573e-27
4.53371e-28
1.38039e-28
3.94808e-29
1.06801e-29
2.74666e-30
6.74215e-31
1.58457e-31
3.57454e-32
7.75531e-33
1.62095e-33
3.26847e-34
6.3657e-35
1.19879e-35
1.64855e-36
4.70918e-53
-2.74813e-43
-1.61681e-38
5.08502e-35
1.11163e-32
2.3227e-31
7.62135e-29
2.55738e-27
2.6789e-26
1.48214e-25
6.67935e-25
2.41017e-24
6.34456e-24
1.25875e-23
1.91811e-23
2.37649e-23
4.8454e-23
1.37187e-22
2.74453e-22
3.76758e-22
3.80855e-22
2.92172e-22
1.66681e-22
6.37638e-23
8.28701e-24
-9.31048e-24
-9.14856e-24
-4.97032e-24
-1.90852e-24
-4.95243e-25
-3.54706e-26
5.20614e-26
4.10802e-26
2.07746e-26
8.58962e-27
3.12012e-27
1.0291e-27
3.14024e-28
8.97188e-29
2.41994e-29
6.19897e-30
1.51482e-30
3.5433e-31
7.95445e-32
1.71744e-32
3.57247e-33
7.16949e-34
1.38986e-34
2.60543e-35
3.64521e-36
5.55815e-51
-9.22548e-42
-3.95813e-37
6.66646e-34
1.15225e-31
-1.62875e-30
3.73471e-28
1.35446e-26
1.34391e-25
6.65445e-25
2.71409e-24
9.16877e-24
2.24784e-23
4.11917e-23
5.70639e-23
6.26717e-23
1.39972e-22
4.45056e-22
9.09583e-22
1.23189e-21
1.21286e-21
8.96997e-22
4.80662e-22
1.55264e-22
-7.89331e-24
-4.94046e-23
-3.88018e-23
-2.01085e-23
-7.91073e-24
-2.37278e-24
-4.64279e-25
1.24741e-26
6.67267e-26
4.09632e-26
1.81055e-26
6.76556e-27
2.25886e-27
6.92263e-28
1.97816e-28
5.32432e-29
1.35933e-29
3.30846e-30
7.70536e-31
1.7221e-31
3.70154e-32
7.66531e-33
1.53154e-33
2.95604e-34
5.51749e-35
7.84148e-36
6.20352e-49
-2.8555e-40
-9.14188e-36
8.25995e-33
1.21622e-30
-3.90466e-29
1.43722e-27
6.76157e-26
6.49564e-25
2.89573e-24
1.06853e-23
3.38797e-23
7.67486e-23
1.26502e-22
1.51468e-22
1.32581e-22
3.65184e-22
1.38839e-21
2.92696e-21
3.92015e-21
3.76236e-21
2.6841e-21
1.34683e-21
3.46885e-22
-1.18453e-22
-2.04953e-22
-1.43998e-22
-7.19898e-23
-2.83423e-23
-8.94269e-24
-2.14011e-24
-2.74405e-25
7.2537e-26
7.31371e-26
3.61145e-26
1.40692e-26
4.78075e-27
1.47533e-27
4.22269e-28
1.13526e-28
2.89079e-29
7.01206e-30
1.62695e-30
3.6218e-31
7.75362e-32
1.59919e-32
3.18237e-33
6.1177e-34
1.1373e-34
1.63977e-35
6.46751e-47
-7.88437e-39
-1.98146e-34
9.50105e-32
1.29483e-29
-4.78318e-28
2.15582e-27
3.11182e-25
3.00365e-24
1.21817e-23
4.07807e-23
1.22258e-22
2.54771e-22
3.61323e-22
3.29413e-22
1.30292e-22
7.99178e-22
4.14031e-21
9.12525e-21
1.21231e-20
1.13539e-20
7.82051e-21
3.6643e-21
6.78477e-22
-6.08222e-22
-7.4999e-22
-4.89937e-22
-2.37271e-22
-9.25118e-23
-2.97044e-23
-7.68635e-24
-1.41095e-24
-4.50912e-26
1.10905e-25
6.72714e-26
2.78992e-26
9.71976e-27
3.03041e-27
8.70367e-28
2.3401e-28
5.94868e-29
1.43921e-29
3.32911e-30
7.38682e-31
1.57603e-31
3.23937e-32
6.42371e-33
1.23049e-33
2.27929e-34
3.33036e-35
6.16352e-45
-1.79545e-37
-3.99064e-33
9.85492e-31
1.36826e-28
-4.64171e-27
-3.27878e-26
1.25918e-24
1.31388e-23
4.93041e-23
1.50764e-22
4.33704e-22
8.38338e-22
9.55559e-22
4.12597e-22
-7.16059e-22
1.10741e-21
1.1707e-20
2.74968e-20
3.63778e-20
3.3287e-20
2.21652e-20
9.6765e-21
1.01554e-21
-2.43475e-21
-2.52415e-21
-1.56026e-21
-7.33011e-22
-2.8131e-22
-9.04452e-23
-2.42076e-23
-5.0714e-24
-6.0648e-25
1.14523e-25
1.14305e-25
5.23187e-26
1.8886e-26
5.97515e-27
1.72614e-27
4.64853e-28
1.18115e-28
2.85334e-29
6.58668e-30
1.45805e-30
3.10295e-31
6.36064e-32
1.25776e-32
2.40217e-33
4.43589e-34
6.56283e-35
5.13476e-43
-2.4867e-36
-7.33074e-32
8.6995e-30
1.40884e-27
-3.88576e-26
-4.82475e-25
3.90389e-24
5.33531e-23
1.90409e-22
5.37675e-22
1.52048e-21
2.82577e-21
2.38754e-21
-9.58443e-22
-6.23121e-21
-1.57888e-21
3.10162e-20
7.98662e-20
1.05754e-19
9.46729e-20
6.10472e-20
2.48096e-20
4.08956e-22
-8.57468e-21
-7.96436e-21
-4.70062e-21
-2.14218e-21
-8.05561e-22
-2.56841e-22
-6.95789e-23
-1.55003e-23
-2.4681e-24
-4.91957e-26
1.68523e-25
9.15499e-26
3.48083e-26
1.12449e-26
3.27807e-27
8.86171e-28
2.25462e-28
5.44674e-29
1.25651e-29
2.77848e-30
5.90485e-31
1.20841e-31
2.38493e-32
4.545e-33
8.37248e-34
1.25348e-34
3.30667e-41
4.29155e-35
-1.18148e-30
5.53636e-29
1.38858e-26
-2.88087e-25
-4.44177e-24
3.04219e-24
1.94306e-22
6.92101e-22
1.8293e-21
5.26462e-21
1.01403e-20
6.23546e-21
-9.93239e-21
-3.22371e-20
-2.13864e-20
7.55359e-20
2.22937e-19
2.97396e-19
2.60831e-19
1.63215e-19
6.18356e-20
-4.92334e-21
-2.77014e-20
-2.38005e-20
-1.34768e-20
-5.95087e-21
-2.184e-21
-6.8577e-22
-1.85645e-22
-4.25931e-23
-7.68289e-24
-7.37936e-25
1.85663e-25
1.45882e-25
6.01235e-26
2.00253e-26
5.91987e-27
1.61177e-27
4.11689e-28
9.96887e-29
2.30297e-29
5.09641e-30
1.08336e-30
2.21653e-31
4.37149e-32
8.32114e-33
1.53043e-33
2.31777e-34
7.45963e-40
5.24319e-33
-1.50616e-29
3.32346e-29
1.28908e-25
-1.90222e-24
-3.34363e-23
-8.56156e-23
5.88883e-22
2.31519e-21
5.78764e-21
1.77914e-20
3.95106e-20
2.09928e-20
-4.79747e-20
-1.36809e-19
-1.1484e-19
1.63196e-19
5.95967e-19
8.07875e-19
6.95071e-19
4.23113e-19
1.50224e-19
-2.7131e-20
-8.36781e-20
-6.77685e-20
-3.68945e-20
-1.57506e-20
-5.61818e-21
-1.72729e-21
-4.63196e-22
-1.07551e-22
-2.07145e-23
-2.78783e-24
3.29579e-26
2.00546e-25
9.52363e-26
3.32713e-26
1.0057e-26
2.77277e-27
7.14081e-28
1.73944e-28
4.03673e-29
8.96454e-30
1.91057e-30
3.91578e-31
7.72999e-32
1.47168e-32
2.70536e-33
4.1441e-34
-2.29009e-37
2.63477e-31
-8.8555e-29
-6.09355e-27
1.11055e-24
-1.11194e-23
-2.19239e-22
-9.75494e-22
1.1707e-21
6.866e-21
1.60139e-20
5.70387e-20
1.63875e-19
9.70894e-20
-1.73676e-19
-5.13673e-19
-4.80703e-19
2.87473e-19
1.51925e-18
2.11753e-18
1.78899e-18
1.06217e-18
3.57367e-19
-1.00058e-19
-2.38758e-19
-1.84567e-19
-9.66302e-20
-3.97458e-20
-1.37122e-20
-4.10482e-21
-1.08301e-21
-2.51776e-22
-5.03644e-23
-7.94842e-24
-6.14544e-25
2.00196e-25
1.32071e-25
5.02342e-26
1.57793e-26
4.45002e-27
1.16419e-27
2.87021e-28
6.72521e-29
1.50504e-29
3.22703e-30
6.64401e-31
1.31574e-31
2.50988e-32
4.61794e-33
7.15621e-34
-5.34234e-35
9.69332e-30
2.74062e-27
-1.18522e-25
8.75156e-24
-5.65933e-23
-1.27765e-21
-7.41795e-21
-8.14246e-22
1.69343e-20
3.15951e-20
1.64072e-19
6.887e-19
5.0223e-19
-4.94594e-19
-1.75721e-18
-1.75197e-18
2.92198e-19
3.67221e-18
5.35195e-18
4.44162e-18
2.57795e-18
8.38153e-19
-3.06641e-19
-6.47323e-19
-4.82148e-19
-2.42355e-19
-9.55524e-20
-3.16893e-20
-9.18033e-21
-2.36896e-21
-5.47614e-22
-1.12217e-22
-1.95299e-23
-2.45891e-24
-3.46035e-27
1.40042e-25
6.49628e-26
2.20529e-26
6.50094e-27
1.75349e-27
4.4243e-28
1.05572e-28
2.3969e-29
5.19751e-30
1.0793e-30
2.15078e-31
4.1204e-32
7.6011e-33
1.19221e-33
-7.81025e-33
2.69363e-28
1.35003e-25
-1.4255e-24
6.21778e-23
-2.42821e-22
-6.66479e-21
-4.60345e-20
-1.89706e-20
3.1753e-20
-1.48735e-20
3.71031e-19
2.77474e-18
2.45968e-18
-1.0093e-18
-5.55431e-18
-5.78509e-18
-5.2609e-19
8.34651e-18
1.30468e-17
1.0628e-17
6.03611e-18
1.95509e-18
-8.21847e-19
-1.67395e-18
-1.21106e-18
-5.82215e-19
-2.1837e-19
-6.90451e-20
-1.92145e-20
-4.8219e-21
-1.10383e-21
-2.30523e-22
-4.32144e-23
-6.88468e-24
-7.49896e-25
3.82595e-26
5.92298e-26
2.5074e-26
8.20617e-27
2.36288e-27
6.24295e-28
1.5415e-28
3.59131e-29
7.94041e-30
1.67288e-30
3.36879e-31
6.50123e-32
1.20507e-32
1.91461e-33
-9.10403e-31
4.34544e-27
3.78149e-24
-1.0852e-23
3.92779e-22
-8.2081e-22
-3.16649e-20
-2.42242e-19
-5.84865e-20
6.10701e-20
-6.29341e-19
3.21296e-19
1.01637e-17
1.07771e-17
-6.51842e-19
-1.62904e-17
-1.76787e-17
-4.45408e-18
1.76054e-17
3.07342e-17
2.45109e-17
1.35918e-17
4.57837e-18
-1.93523e-18
-4.13962e-18
-2.93264e-18
-1.33915e-18
-4.72405e-19
-1.40737e-19
-3.72594e-20
-9.04075e-21
-2.04783e-21
-4.37016e-22
-8.78815e-23
-1.64332e-23
-2.73791e-24
-3.52966e-25
-9.75372e-27
1.54486e-26
7.67306e-27
2.64541e-27
7.75804e-28
2.05028e-28
5.00489e-29
1.1435e-29
2.46566e-30
5.04675e-31
9.84889e-32
1.83907e-32
2.96282e-33
-8.86097e-29
-8.70187e-26
8.21395e-23
-1.16441e-23
2.18376e-21
-1.76818e-21
-1.51984e-19
-1.07452e-18
3.04562e-19
5.00536e-19
-4.56257e-18
-2.71686e-18
3.19066e-17
4.18298e-17
6.23772e-18
-4.36613e-17
-5.09783e-17
-1.76479e-17
3.37126e-17
7.0258e-17
5.45881e-17
2.92919e-17
1.08455e-17
-3.86607e-18
-9.80762e-18
-6.87122e-18
-2.94561e-18
-9.60077e-19
-2.64679e-19
-6.57363e-20
-1.53341e-20
-3.45398e-21
-7.63374e-22
-1.6634e-22
-3.54981e-23
-7.27853e-24
-1.38328e-24
-2.26742e-25
-2.56628e-26
1.04824e-27
1.87671e-27
7.72627e-28
2.39034e-28
6.38186e-29
1.54171e-29
3.44707e-30
7.22687e-31
1.43284e-31
2.70285e-32
4.4203e-33
-7.12861e-27
-1.20548e-23
1.46206e-21
1.17074e-21
1.06785e-20
1.52697e-21
-1.03659e-18
-3.89649e-18
4.2554e-18
5.6076e-18
-2.48848e-17
-2.06658e-17
7.87168e-17
1.45448e-16
4.08566e-17
-9.99268e-17
-1.43805e-16
-5.44628e-17
5.6395e-17
1.56753e-16
1.18076e-16
5.99596e-17
2.60721e-17
-5.69688e-18
-2.22689e-17
-1.56663e-17
-6.18112e-18
-1.80715e-18
-4.47074e-19
-1.01799e-19
-2.27329e-20
-5.19112e-21
-1.22724e-21
-2.96325e-22
-7.12207e-23
-1.65828e-23
-3.64424e-24
-7.34239e-25
-1.29702e-25
-1.80644e-26
-1.14397e-27
4.07533e-28
2.23614e-28
7.26697e-29
1.93497e-29
4.5726e-30
9.91359e-31
2.00679e-31
3.83394e-32
6.36986e-33
-4.37943e-25
-6.9997e-22
2.14007e-20
2.12877e-20
4.59655e-20
5.94628e-20
-1.24739e-17
-1.06213e-17
1.97864e-17
4.78331e-17
-1.3277e-16
-8.81059e-17
1.32402e-16
5.97119e-16
1.85421e-16
-1.92525e-16
-4.43969e-16
-1.43523e-16
7.68105e-17
3.41019e-16
2.51663e-16
1.15058e-16
6.34039e-17
-1.41299e-18
-4.82433e-17
-3.51015e-17
-1.23153e-17
-3.05873e-18
-6.37348e-19
-1.26734e-19
-2.72575e-20
-6.73276e-21
-1.82527e-21
-5.02928e-22
-1.34107e-22
-3.38068e-23
-7.95092e-24
-1.72285e-24
-3.37737e-25
-5.7853e-26
-7.92437e-27
-5.74247e-28
1.19767e-28
7.13343e-29
2.26446e-29
5.79967e-30
1.3127e-30
2.72299e-31
5.27489e-32
8.90032e-33
-1.29056e-23
-3.08649e-20
2.51286e-19
2.13614e-19
1.57193e-19
8.01457e-19
-2.12211e-16
1.15003e-15
6.6677e-16
2.97714e-16
-1.56854e-15
-2.61319e-16
4.82945e-16
7.78527e-15
7.84549e-16
-6.82139e-15
-1.87044e-15
-3.0879e-16
7.35897e-17
7.363e-16
5.5081e-16
2.01464e-16
1.54032e-16
3.25004e-17
-9.78262e-17
-7.86956e-17
-2.30605e-17
-4.31714e-18
-6.21597e-19
-8.81157e-20
-2.02629e-20
-7.19566e-21
-2.57353e-21
-8.22293e-22
-2.36103e-22
-6.19568e-23
-1.49841e-23
-3.3381e-24
-6.79263e-25
-1.23898e-25
-1.94267e-26
-2.31862e-27
-9.05934e-29
5.84054e-29
2.53933e-29
7.19869e-30
1.70622e-30
3.6226e-31
7.09963e-32
1.21337e-32
1.58924e-21
-1.13243e-18
2.08442e-18
1.18755e-18
7.77949e-19
-3.09126e-16
-2.76895e-15
5.76008e-14
4.61623e-14
-1.3166e-13
-1.59554e-14
4.62448e-13
4.71648e-13
4.557e-14
-2.43543e-13
-9.60799e-14
-5.53051e-15
-3.48753e-16
1.85061e-17
3.63676e-15
1.37179e-15
2.96559e-16
3.6363e-16
1.7622e-16
-1.75126e-16
-1.82927e-16
-3.95126e-17
-3.71713e-18
1.77378e-19
1.16092e-19
9.41547e-21
-6.30611e-21
-3.65273e-21
-1.29389e-21
-3.78704e-22
-9.94101e-23
-2.40574e-23
-5.39273e-24
-1.11193e-24
-2.07508e-25
-3.39446e-26
-4.49524e-27
-3.43834e-28
4.59905e-29
2.9837e-29
9.16717e-30
2.23866e-30
4.81056e-31
9.46109e-32
1.62765e-32
3.99442e-19
-4.00462e-17
4.26567e-16
-5.14367e-15
3.44054e-14
-1.54214e-13
1.17308e-12
-1.51039e-13
2.4039e-13
-3.30702e-12
1.06385e-12
1.35005e-11
4.66471e-12
-9.93617e-13
-3.98626e-12
-3.70837e-13
2.84487e-14
1.12716e-15
2.8145e-14
3.01227e-14
3.28215e-15
2.44151e-16
1.04569e-15
7.5559e-16
-2.47324e-16
-4.8038e-16
-5.63274e-17
4.70292e-18
2.94786e-18
6.07469e-19
5.991e-20
-7.38898e-21
-5.62064e-21
-1.88341e-21
-5.1214e-22
-1.27534e-22
-3.01024e-23
-6.72305e-24
-1.39634e-24
-2.63023e-25
-4.32169e-26
-5.66361e-27
-3.95529e-28
7.45774e-29
4.25076e-29
1.2725e-29
3.06276e-30
6.5038e-31
1.26472e-31
2.16787e-32
5.41222e-17
-2.1034e-15
2.11328e-14
-1.06638e-13
2.49757e-13
-8.02407e-13
9.45122e-12
-1.13639e-10
-1.94402e-10
4.68706e-10
4.75365e-10
5.74831e-11
1.31035e-11
-2.14241e-10
-1.8304e-11
-1.77301e-14
2.41761e-13
4.12557e-13
5.19967e-13
1.332e-13
1.46615e-15
-7.94491e-17
1.0741e-14
3.41668e-15
-1.89278e-15
-1.8195e-15
-2.93741e-17
3.72651e-17
9.33529e-18
1.32231e-18
7.13423e-20
-2.25601e-20
-9.19422e-21
-2.17076e-21
-4.28338e-22
-8.35727e-23
-1.78154e-23
-4.05454e-24
-8.93389e-25
-1.73933e-25
-2.70738e-26
-2.46811e-27
2.94956e-28
2.28815e-28
7.62779e-29
1.97654e-29
4.44578e-30
9.06056e-31
1.71063e-31
2.88512e-32
-6.0684e-15
-1.30705e-14
7.39179e-14
2.47638e-13
-3.39257e-11
1.56097e-10
-7.20724e-10
-5.34654e-10
-1.19892e-09
1.71186e-08
3.3476e-09
-4.45201e-08
-2.27011e-08
-1.52169e-09
-8.99389e-12
2.43694e-12
7.31786e-13
3.62879e-12
2.23876e-12
3.04335e-13
-1.52375e-14
2.32072e-14
6.88826e-14
9.25554e-15
-5.44473e-14
-8.02005e-15
4.01467e-16
1.32367e-16
1.88139e-17
1.37568e-18
-1.54141e-19
-7.46936e-20
-1.29286e-20
-4.71642e-22
4.62507e-22
1.86642e-22
4.72085e-23
9.51027e-24
1.67336e-24
2.81711e-25
5.12196e-26
1.09342e-26
2.62655e-27
6.42885e-28
1.50571e-28
3.30034e-29
6.75138e-30
1.29417e-30
2.33799e-31
3.83668e-32
-3.01152e-12
2.67746e-11
-2.03988e-10
9.37263e-10
-1.51199e-09
1.33044e-09
-2.32769e-08
8.36431e-08
5.17746e-07
-1.06834e-07
-1.29526e-06
-1.23545e-06
-1.96012e-07
-5.28523e-10
2.92993e-08
1.50569e-10
3.16077e-12
2.55146e-11
5.46468e-12
4.86638e-13
7.57631e-14
1.51891e-12
2.10756e-13
-8.00032e-13
-2.97413e-13
-1.38746e-14
2.50639e-15
3.1469e-16
1.73229e-17
-2.1297e-18
-9.89013e-19
-1.75479e-19
-5.38546e-21
7.99355e-21
3.48564e-21
9.88324e-22
2.27341e-22
4.56317e-23
8.335e-24
1.43784e-24
2.44004e-25
4.24251e-26
7.74545e-27
1.4781e-27
2.8732e-28
5.5303e-29
1.03344e-29
1.85558e-30
3.18864e-31
5.0586e-32
-1.85286e-11
1.70078e-10
-1.24541e-09
5.76676e-09
-2.05262e-09
-1.28626e-07
-9.43838e-08
3.99688e-06
3.18979e-06
-3.76407e-05
-2.98501e-05
-4.42637e-06
-2.64526e-07
3.66627e-08
2.08376e-06
1.74238e-05
1.49834e-06
9.17266e-10
1.07006e-11
1.23651e-11
2.20004e-11
8.1431e-12
-8.13886e-12
-6.82732e-12
-6.82649e-13
4.38882e-14
1.08455e-14
2.54149e-16
-4.32877e-17
-1.41274e-17
-2.64536e-18
-2.38118e-19
5.13573e-20
3.36817e-20
1.10326e-20
2.807e-21
6.12573e-22
1.19773e-22
2.15801e-23
3.67261e-24
6.0587e-25
9.95241e-26
1.66412e-26
2.85841e-27
5.01128e-28
8.82357e-29
1.53384e-29
2.5986e-30
4.25724e-31
6.5239e-32
1.719e-09
-1.07863e-08
4.10195e-08
-6.029e-08
3.49511e-08
-7.38195e-07
6.33694e-06
1.67374e-05
-0.000103597
-0.000171783
-0.000143542
0.00250023
0.00892908
0.0130126
0.0108457
0.00493686
0.00084756
4.72232e-08
6.58916e-10
2.60283e-10
1.1732e-10
1.68191e-11
-1.3493e-10
-2.48871e-11
3.44894e-13
2.74008e-13
2.22615e-14
-7.93364e-16
-2.03715e-16
-3.34958e-17
-3.92186e-18
9.1249e-20
2.40193e-19
9.38034e-20
2.63668e-20
6.21354e-21
1.29531e-21
2.4577e-22
4.33191e-23
7.22672e-24
1.16381e-24
1.84737e-25
2.94535e-26
4.77107e-27
7.85527e-28
1.30248e-28
2.14604e-29
3.47038e-30
5.45822e-31
8.10703e-32
1.24655e-08
-1.01009e-07
8.31354e-07
-4.20399e-06
5.76947e-07
7.51491e-06
2.86037e-05
-0.000138882
-0.000802276
2.37888e-05
0.022223
0.0638693
0.0951497
0.093158
0.0626215
0.0261097
0.00465442
2.9839e-06
5.50843e-09
1.08164e-09
2.56928e-10
-1.93489e-09
-5.99385e-10
-3.21428e-11
4.88937e-12
9.49917e-13
1.79471e-15
-3.11927e-15
-4.01087e-16
-3.83704e-17
-8.57672e-19
1.50263e-18
6.76222e-19
2.06417e-19
5.20859e-20
1.15349e-20
2.30758e-21
4.24857e-22
7.30959e-23
1.19301e-23
1.87774e-24
2.90148e-25
4.47675e-26
6.97937e-27
1.10278e-27
1.7555e-28
2.78428e-29
4.34819e-30
6.62259e-31
9.58879e-32
-6.39603e-07
6.41672e-07
2.73498e-06
-1.81004e-05
5.48834e-05
3.81332e-05
1.61369e-05
-0.0025667
-0.0025625
0.0418712
0.142789
0.257557
0.309755
0.271737
0.170001
0.0692105
0.0128979
3.08369e-05
8.63971e-09
2.13577e-09
-2.0585e-08
-1.14093e-08
-1.07172e-09
6.4865e-11
2.19922e-11
1.09538e-12
-6.11524e-14
-1.2224e-14
-3.21785e-16
9.59976e-18
1.12547e-17
4.56409e-18
1.41271e-18
3.72476e-19
8.68951e-20
1.83082e-20
3.53442e-21
6.32818e-22
1.06325e-22
1.69801e-23
2.61565e-24
3.9509e-25
5.94731e-26
9.02975e-27
1.38843e-27
2.152e-28
3.32755e-29
5.07316e-30
7.54974e-31
1.07294e-31
-4.71381e-06
1.67911e-05
-4.931e-05
3.2949e-06
0.000396696
1.16393e-05
-0.00460301
-0.00814738
0.0380621
0.17653
0.392465
0.586047
0.633858
0.523233
0.316299
0.128044
0.0250388
0.000137057
3.17139e-08
-2.66649e-07
-2.04034e-07
-3.35074e-08
6.05067e-10
3.99627e-10
5.2791e-11
-6.80475e-13
-2.8364e-13
-1.957e-14
2.97918e-16
1.05568e-16
3.10064e-17
8.70142e-18
2.28804e-18
5.53271e-19
1.22422e-19
2.48641e-20
4.66617e-21
8.15895e-22
1.34226e-22
2.10204e-23
3.17809e-24
4.71473e-25
6.97528e-26
1.04183e-26
1.57753e-27
2.41011e-28
3.67541e-29
5.52676e-30
8.1083e-31
1.1395e-31
5.31799e-05
7.91362e-05
-0.000364041
0.000738242
0.0018757
-0.00593551
-0.0195758
0.0131816
0.150657
0.40354
0.71063
0.934914
0.944812
0.750651
0.443915
0.179327
0.0363548
0.000308255
-3.35676e-06
-2.85746e-06
-7.82884e-07
-3.73486e-08
4.71e-09
1.45928e-09
6.50975e-11
-3.13631e-12
-7.32349e-13
-1.45421e-14
8.55378e-16
2.06707e-16
4.75865e-17
1.17679e-17
2.88746e-18
6.70194e-19
1.44236e-19
2.86687e-20
5.28093e-21
9.07846e-22
1.47017e-22
2.26933e-23
3.38808e-24
4.97608e-25
7.31109e-26
1.08763e-26
1.64341e-27
2.50646e-28
3.81255e-29
5.70962e-30
8.32798e-31
1.16598e-31
0.00052115
-0.000368188
-0.00130646
0.00343671
0.00312997
-0.0243602
-0.033248
0.0705078
0.315604
0.636945
0.950473
1.12987
1.09752
0.844944
0.490086
0.195817
0.0397366
0.000344163
-2.23931e-05
-1.09681e-05
-1.52723e-06
3.75688e-08
2.02396e-08
2.74643e-09
-3.06578e-11
-1.20514e-11
-9.32453e-13
1.10799e-14
2.70718e-15
2.70544e-16
4.86348e-17
1.1395e-17
2.78264e-18
6.48627e-19
1.39812e-19
2.77225e-20
5.08042e-21
8.67859e-22
1.39704e-22
2.14794e-23
3.20611e-24
4.73148e-25
7.02075e-26
1.05827e-26
1.62061e-27
2.49872e-28
3.8278e-29
5.75194e-30
8.39385e-31
1.17768e-31
-0.00148569
-0.00361817
-0.00276685
0.00851294
-0.00102747
-0.0470248
-0.037603
0.139053
0.446454
0.757219
1.00761
1.12356
1.0478
0.778283
0.434189
0.16531
0.0306755
2.19349e-06
-7.3509e-05
-2.38145e-05
-1.45309e-06
1.53149e-07
5.15374e-08
3.07209e-09
-1.12141e-10
-2.45795e-11
-3.61284e-13
4.15059e-14
4.64303e-15
6.47543e-17
1.7492e-17
6.12974e-18
1.85488e-18
4.80386e-19
1.0909e-19
2.22229e-20
4.13604e-21
7.14524e-22
1.16379e-22
1.81772e-23
2.77397e-24
4.21368e-25
6.46192e-26
1.00575e-26
1.58127e-27
2.48321e-28
3.84574e-29
5.81054e-30
8.49844e-31
1.1975e-31
-0.00636819
-0.00722882
0.00208841
0.0166803
-0.00635678
-0.0622762
-0.036032
0.162854
0.457538
0.726481
0.906286
0.955045
0.842823
0.582247
0.294493
0.0966957
0.01212
-0.000278205
-0.000155569
-3.0892e-05
6.71009e-07
4.864e-07
7.40958e-08
-1.22442e-09
-3.83953e-10
-1.87666e-11
8.30591e-13
1.16509e-13
-2.32622e-15
-2.97394e-16
-2.58147e-17
-5.03859e-19
6.9894e-19
2.64144e-19
6.84729e-20
1.48987e-20
2.89586e-21
5.19287e-22
8.79606e-23
1.43732e-23
2.30964e-24
3.70497e-25
5.97821e-26
9.69208e-27
1.56671e-27
2.49946e-28
3.89839e-29
5.90175e-30
8.63027e-31
1.21967e-31
0.00855479
0.0102852
0.0216604
0.0306122
-0.00284239
-0.061411
-0.0421901
0.106295
0.321335
0.533347
0.689312
0.704073
0.574288
0.346548
0.141341
0.0293136
-0.00148697
-0.000672517
-0.000178648
-1.02652e-05
3.05219e-06
8.82443e-07
4.14843e-08
-3.07656e-09
-5.37732e-10
1.01559e-11
1.91166e-12
-2.45125e-14
-5.57733e-15
-2.58883e-16
-1.93955e-17
-1.03613e-18
2.83065e-19
1.36975e-19
3.87109e-20
8.94887e-21
1.83976e-21
3.49906e-22
6.32072e-23
1.10661e-23
1.90577e-24
3.25512e-25
5.52168e-26
9.26542e-27
1.52797e-27
2.46001e-28
3.84582e-29
5.81597e-30
8.48779e-31
1.20158e-31
0.013355
0.0134917
0.0220267
0.0310813
0.00810325
-0.0384305
-0.0474262
0.00248229
0.109593
0.265068
0.38824
0.38588
0.273323
0.124068
0.0230562
-0.0103007
-0.00434893
-0.000904042
-4.96241e-05
1.95799e-05
6.67255e-06
4.75935e-07
-3.77694e-08
-7.51802e-09
1.14045e-10
2.38274e-11
6.54518e-15
-4.76891e-14
-3.99568e-15
8.73267e-17
1.69564e-17
2.88808e-18
5.24218e-19
1.06703e-19
2.31683e-20
5.02019e-21
1.04979e-21
2.10643e-22
4.08222e-23
7.70821e-24
1.42654e-24
2.59121e-25
4.60912e-26
7.99521e-27
1.34672e-27
2.19512e-28
3.45432e-29
5.24104e-30
7.66256e-31
1.08966e-31
0.00447471
0.00248651
0.00447521
0.0123366
0.0116913
-0.00320223
-0.0281789
-0.0490056
-0.0309123
0.0400396
0.091126
0.0770992
0.0205358
-0.0239182
-0.0309782
-0.0150908
-0.00402754
-0.000270317
7.59903e-05
2.63015e-05
1.8149e-06
-3.05082e-07
-6.2235e-08
2.71956e-09
5.77894e-10
7.97548e-12
-7.04738e-13
-9.36719e-14
2.30894e-15
3.16578e-16
3.75551e-17
4.75189e-18
5.63488e-19
6.31563e-20
7.36455e-21
1.0743e-21
2.1443e-22
5.10896e-23
1.25206e-23
2.96226e-24
6.64025e-25
1.40439e-25
2.80322e-26
5.29074e-27
9.46612e-28
1.61002e-28
2.6103e-29
4.04453e-30
6.00302e-31
8.65777e-32
-0.0034369
-0.0051331
-0.00691427
-0.00502304
0.00391133
0.011429
0.000485256
-0.0265759
-0.0427848
-0.042553
-0.0537155
-0.0691961
-0.0710911
-0.0502181
-0.0221019
-0.00482008
0.000658844
0.00034243
6.74751e-05
-1.21006e-05
-4.50872e-06
-4.27908e-07
4.33922e-08
1.08192e-08
3.59588e-10
-1.36469e-11
-2.10398e-12
3.45136e-14
6.58381e-15
2.80026e-16
2.50023e-17
2.40789e-18
5.1454e-20
-5.2299e-20
-1.81507e-20
-4.31923e-21
-8.64705e-22
-1.52852e-22
-2.39882e-23
-3.2627e-24
-3.53765e-25
-2.02701e-26
3.36185e-27
1.58839e-27
4.01301e-28
8.20178e-29
1.4851e-29
2.47002e-30
3.84367e-31
5.74434e-32
-0.00140869
-0.0011455
-0.00209641
-0.00430774
-0.00227057
0.00386297
0.0078089
0.00719976
0.000274598
-0.0184419
-0.0393266
-0.0415068
-0.0256444
-0.00361941
0.00755407
0.006251
0.00248931
0.000398687
-8.53796e-05
-3.94604e-05
-5.55619e-06
2.2013e-07
7.12669e-08
4.95347e-09
-1.85164e-10
-3.59767e-11
-1.00719e-13
3.35979e-14
5.28072e-15
3.27362e-17
-6.14652e-18
-2.6795e-18
-8.01931e-19
-2.04827e-19
-4.69081e-20
-9.8334e-21
-1.90483e-21
-3.42273e-22
-5.70808e-23
-8.81493e-24
-1.25272e-24
-1.61604e-25
-1.83464e-26
-1.68464e-27
-8.45036e-29
1.09775e-29
4.62591e-30
1.02446e-30
1.84156e-31
3.00397e-32
0.00145255
0.00219986
0.00289611
0.00198662
-0.000699354
-0.00250546
-0.000103659
0.00640654
0.00964847
0.00707513
0.00682908
0.015976
0.0266903
0.0266104
0.0172653
0.00667129
0.00108873
-0.000219536
-0.00011189
-2.25512e-05
3.27932e-07
1.56811e-07
2.16783e-08
-1.42712e-09
-3.06518e-10
-4.19258e-12
6.02514e-14
1.60538e-14
9.34049e-16
-3.34172e-17
-1.74829e-17
-5.0876e-18
-1.25546e-18
-2.8564e-19
-6.11722e-20
-1.23536e-20
-2.34633e-21
-4.1815e-22
-6.9842e-23
-1.09258e-23
-1.59903e-24
-2.18327e-25
-2.76379e-26
-3.20117e-27
-3.29427e-28
-2.78662e-29
-1.38497e-30
1.21013e-31
5.26382e-32
1.12331e-32
-0.000764437
-0.00111322
-0.0011113
-0.000196373
0.000415625
-0.000467121
-0.00143859
-0.00143927
-0.00292818
-0.00325089
0.00487774
0.0195406
0.0260499
0.0207334
0.0102269
0.00252851
-0.000208503
-0.000158652
-4.71227e-05
-4.47859e-07
-3.65703e-08
-1.17627e-08
-3.99842e-09
-7.27121e-10
2.76578e-11
3.58079e-12
1.40444e-14
-1.0522e-14
-2.05803e-15
-2.03116e-16
-3.27201e-17
-6.21507e-18
-1.25388e-18
-2.5908e-19
-5.30078e-20
-1.04618e-20
-1.96045e-21
-3.46192e-22
-5.74617e-23
-8.96301e-24
-1.31443e-24
-1.81221e-25
-2.34544e-26
-2.83783e-27
-3.18083e-28
-3.2394e-29
-2.86391e-30
-1.9073e-31
-2.45765e-33
2.29102e-33
0.000161769
0.000154624
0.000167091
0.000109414
-0.00043633
-0.000501378
0.00226518
0.00352272
-0.00364006
-0.0119204
-0.00848682
0.0035699
0.0105801
0.00924377
0.00463995
0.00113332
0.000119229
3.44069e-05
1.06919e-05
1.12855e-07
-3.49223e-07
-9.5202e-08
-1.15984e-09
3.86413e-10
7.73538e-11
-1.05622e-13