/*--------------------------------*- C++ -*----------------------------------*\
| =========                 |                                                 |
| \\      /  F ield         | OpenFOAM: The Open Source CFD Toolbox           |
|  \\    /   O peration     | Version:  v2006                                 |
|   \\  /    A nd           | Website:  www.openfoam.com                      |
|    \\/     M anipulation  |                                                 |
\*---------------------------------------------------------------------------*/
FoamFile
{
    version     2.0;
    format      ascii;
    class       surfaceScalarField;
    location    "7.8";
    object      phi;
}
// * * * * * * * * * * * * * * * * * * * * * * * * * * * * * * * * * * * * * //

dimensions      [0 3 -1 0 0 0 0];
oriented        oriented;


internalField   nonuniform List<scalar> 
99450
(
-2.65565e-06
2.65565e-06
7.34208e-06
-9.99773e-06
1.40455e-05
-6.70342e-06
1.94115e-05
-5.36602e-06
2.38787e-05
-4.46713e-06
2.89682e-05
-5.08955e-06
3.37618e-05
-4.79359e-06
3.88966e-05
-5.13481e-06
4.40101e-05
-5.11351e-06
4.92807e-05
-5.27055e-06
5.46846e-05
-5.4039e-06
6.02392e-05
-5.55465e-06
6.59708e-05
-5.73155e-06
7.18883e-05
-5.91753e-06
7.80155e-05
-6.12725e-06
8.43359e-05
-6.32034e-06
9.08626e-05
-6.52675e-06
9.76027e-05
-6.74011e-06
0.000104545
-6.94223e-06
0.000111702
-7.1568e-06
0.000119063
-7.36125e-06
0.000126635
-7.57237e-06
0.000134401
-7.76541e-06
0.000142371
-7.96972e-06
0.000150553
-8.18275e-06
0.00015893
-8.37715e-06
0.000167503
-8.57269e-06
0.000176258
-8.75504e-06
0.000185201
-8.94332e-06
0.000194315
-9.11352e-06
0.000203637
-9.3218e-06
0.000213165
-9.52841e-06
0.000222882
-9.71633e-06
0.000232828
-9.94658e-06
0.000243061
-1.02331e-05
0.000253635
-1.05742e-05
0.0002646
-1.09647e-05
0.000276003
-1.14031e-05
0.000287898
-1.1895e-05
0.000300312
-1.24143e-05
0.000313257
-1.29447e-05
0.000326698
-1.34403e-05
0.000340585
-1.38879e-05
0.000354881
-1.42956e-05
0.000369597
-1.47156e-05
0.00038485
-1.52537e-05
0.000400833
-1.5983e-05
0.000417756
-1.69224e-05
0.000435788
-1.80322e-05
0.000455013
-1.92248e-05
0.0004754
-2.03872e-05
0.000496852
-2.14519e-05
0.000519252
-2.23999e-05
0.000542515
-2.32632e-05
0.000566576
-2.40613e-05
0.000591385
-2.48089e-05
0.000616887
-2.55015e-05
0.000643044
-2.61569e-05
0.000669801
-2.6757e-05
0.000697099
-2.72987e-05
0.000724891
-2.77912e-05
0.000753125
-2.8234e-05
0.000781742
-2.86174e-05
0.000810688
-2.89464e-05
0.000839903
-2.92145e-05
0.000869331
-2.94276e-05
0.000898909
-2.95787e-05
0.000928574
-2.96645e-05
0.00095826
-2.96867e-05
0.000987907
-2.96466e-05
0.00101745
-2.95436e-05
0.00104683
-2.93765e-05
0.00107597
-2.91441e-05
0.00110482
-2.88466e-05
0.0011333
-2.84823e-05
0.00116135
-2.80465e-05
0.00118888
-2.75318e-05
0.00121581
-2.69305e-05
0.00124205
-2.62427e-05
0.00126751
-2.54616e-05
0.0012921
-2.45897e-05
0.00131573
-2.36232e-05
0.00133829
-2.25653e-05
0.00135971
-2.1417e-05
0.00137989
-2.0184e-05
0.00139875
-1.88589e-05
0.0014162
-1.74445e-05
0.00143214
-1.59413e-05
0.00144647
-1.43375e-05
0.00145912
-1.26455e-05
0.00146997
-1.08522e-05
0.00147894
-8.97169e-06
0.00148593
-6.98924e-06
0.00149082
-4.89142e-06
0.00149351
-2.68793e-06
0.00149394
-4.31458e-07
0.00149194
2.0084e-06
0.0014876
4.34012e-06
0.00148108
6.51242e-06
0.00147266
8.42298e-06
0.00146265
1.00054e-05
0.00145141
1.12406e-05
0.00143917
1.22456e-05
0.00142608
1.30931e-05
0.00141224
1.38361e-05
0.00139772
1.45146e-05
0.00138259
1.51396e-05
0.00136688
1.57086e-05
0.00135064
1.62386e-05
0.00133391
1.67309e-05
0.00131668
1.72234e-05
0.00129895
1.77306e-05
0.00128069
1.82594e-05
0.00126188
1.88171e-05
0.00124245
1.94224e-05
0.00122237
2.00825e-05
0.00120156
2.08096e-05
0.00117995
2.16158e-05
0.00115745
2.24978e-05
0.00113399
2.3458e-05
0.00110951
2.44829e-05
0.00108395
2.55536e-05
0.0010573
2.66546e-05
0.00102953
2.77714e-05
0.00100063
2.88939e-05
0.000970612
3.00217e-05
0.000939484
3.11287e-05
0.000907247
3.22367e-05
0.000873919
3.33275e-05
0.000839541
3.43785e-05
0.000804136
3.54045e-05
0.000767744
3.63927e-05
0.000730404
3.73396e-05
0.000692157
3.82471e-05
0.00065304
3.91164e-05
0.000613096
3.99449e-05
0.000572368
4.07276e-05
0.000530915
4.14534e-05
0.000488789
4.21257e-05
0.000446067
4.27218e-05
0.000402819
4.32479e-05
0.000359141
4.36781e-05
0.000315075
4.40664e-05
0.000270771
4.43038e-05
0.000226226
4.45448e-05
0.000181814
4.44123e-05
0.000137612
4.42021e-05
9.4338e-05
4.32737e-05
5.04969e-05
4.38412e-05
5.04969e-05
-1.0659e-05
1.33146e-05
-1.38987e-05
-6.75801e-06
-1.92826e-05
-1.31951e-06
-2.64667e-05
1.8181e-06
-3.34908e-05
2.55697e-06
-4.02983e-05
1.71794e-06
-4.65543e-05
1.46241e-06
-5.26059e-05
9.16798e-07
-5.81906e-05
4.71193e-07
-6.3392e-05
-6.91452e-08
-6.81163e-05
-6.79574e-07
-7.23211e-05
-1.34987e-06
-7.59602e-05
-2.09243e-06
-7.89959e-05
-2.88185e-06
-8.14161e-05
-3.70705e-06
-8.31502e-05
-4.58623e-06
-8.41738e-05
-5.50321e-06
-8.44683e-05
-6.44555e-06
-8.39809e-05
-7.42965e-06
-8.27082e-05
-8.42953e-06
-8.06159e-05
-9.45355e-06
-7.76494e-05
-1.05388e-05
-7.38196e-05
-1.15953e-05
-6.91169e-05
-1.26724e-05
-6.3504e-05
-1.37957e-05
-5.6956e-05
-1.49251e-05
-4.94417e-05
-1.6087e-05
-4.09499e-05
-1.72469e-05
-3.14628e-05
-1.84304e-05
-2.09402e-05
-1.96361e-05
-9.44697e-06
-2.08151e-05
3.03827e-06
-2.20137e-05
1.6597e-05
-2.32751e-05
3.11881e-05
-2.45377e-05
4.6776e-05
-2.5821e-05
6.33315e-05
-2.71298e-05
8.08225e-05
-2.84557e-05
9.92257e-05
-2.98063e-05
0.000118513
-3.1182e-05
0.000138668
-3.257e-05
0.000159701
-3.39776e-05
0.000181626
-3.53655e-05
0.000204461
-3.67223e-05
0.000228202
-3.80365e-05
0.000252797
-3.93104e-05
0.000278095
-4.05522e-05
0.000303914
-4.18022e-05
0.000330064
-4.30727e-05
0.000356398
-4.43655e-05
0.000382841
-4.56686e-05
0.000409421
-4.69671e-05
0.000436175
-4.82053e-05
0.000463159
-4.93844e-05
0.000490385
-5.04887e-05
0.000517843
-5.15192e-05
0.000545515
-5.24814e-05
0.000573383
-5.33699e-05
0.00060142
-5.41937e-05
0.000629604
-5.49411e-05
0.000657909
-5.56034e-05
0.000686306
-5.61879e-05
0.00071477
-5.66986e-05
0.000743282
-5.71293e-05
0.000771804
-5.74684e-05
0.000800309
-5.77188e-05
0.000828772
-5.78911e-05
0.000857162
-5.79683e-05
0.000885452
-5.79553e-05
0.000913606
-5.78405e-05
0.000941602
-5.76419e-05
0.000969401
-5.73431e-05
0.000996975
-5.69507e-05
0.00102429
-5.6461e-05
0.00105133
-5.58804e-05
0.00107805
-5.52031e-05
0.00110442
-5.44228e-05
0.00113043
-5.35426e-05
0.00115606
-5.25524e-05
0.00118127
-5.14539e-05
0.00120604
-5.02385e-05
0.00123035
-4.88999e-05
0.00125417
-4.744e-05
0.00127747
-4.5861e-05
0.0013002
-4.41521e-05
0.00132234
-4.23188e-05
0.00134383
-4.03575e-05
0.00136467
-3.82768e-05
0.0013848
-3.60726e-05
0.0014042
-3.37404e-05
0.00142285
-3.12931e-05
0.00144072
-2.87281e-05
0.0014578
-2.6048e-05
0.00147408
-2.32672e-05
0.00148958
-2.03908e-05
0.00150432
-1.74296e-05
0.00151829
-1.44024e-05
0.00153162
-1.13165e-05
0.00154422
-8.26809e-06
0.00155608
-5.34502e-06
0.00156712
-2.61895e-06
0.00157723
-9.6729e-08
0.00158641
2.05932e-06
0.00159449
4.16205e-06
0.00160135
6.22965e-06
0.0016069
8.29466e-06
0.00161102
1.03945e-05
0.00161361
1.25472e-05
0.00161457
1.47476e-05
0.00161381
1.69936e-05
0.00161126
1.9283e-05
0.00160687
2.16202e-05
0.00160059
2.4008e-05
0.0015924
2.64481e-05
0.00158227
2.89505e-05
0.00157016
3.15296e-05
0.00155604
3.42045e-05
0.00153986
3.69843e-05
0.00152161
3.98708e-05
0.00150125
4.28583e-05
0.00147877
4.59352e-05
0.00145417
4.90802e-05
0.00142746
5.22662e-05
0.00139864
5.54689e-05
0.00136775
5.86695e-05
0.00133479
6.18536e-05
0.00129979
6.50143e-05
0.00126278
6.81386e-05
0.0012238
7.12226e-05
0.00118287
7.42512e-05
0.00114005
7.72007e-05
0.00109539
8.00666e-05
0.00104895
8.28365e-05
0.00100078
8.55052e-05
0.00095096
8.8068e-05
0.000899555
9.05219e-05
0.000846643
9.28565e-05
0.000792311
9.50601e-05
0.000736638
9.71264e-05
0.00067972
9.90438e-05
0.000621638
0.000100804
0.000562482
0.000102404
0.000502318
0.000103842
0.000441248
0.000105137
0.000379294
0.000106257
0.00031644
0.000107399
0.000252504
0.000108349
0.000187949
0.000108756
0.000125237
0.000105986
6.72518e-05
0.000101827
0.000117749
-8.97977e-06
2.22944e-05
-8.79229e-06
-6.94549e-06
-1.05598e-05
4.47957e-07
-1.49373e-05
6.19561e-06
-1.94589e-05
7.07865e-06
-2.36876e-05
5.94655e-06
-2.73969e-05
5.17172e-06
-3.08564e-05
4.37635e-06
-3.39477e-05
3.56251e-06
-3.66917e-05
2.67483e-06
-3.90376e-05
1.66631e-06
-4.09576e-05
5.70106e-07
-4.23713e-05
-6.78744e-07
-4.32853e-05
-1.96778e-06
-4.36637e-05
-3.32867e-06
-4.34826e-05
-4.76729e-06
-4.27241e-05
-6.26172e-06
-4.13426e-05
-7.82714e-06
-3.9323e-05
-9.44923e-06
-3.66086e-05
-1.11439e-05
-3.31937e-05
-1.28685e-05
-2.91176e-05
-1.46149e-05
-2.42841e-05
-1.64288e-05
-1.8702e-05
-1.82544e-05
-1.24044e-05
-2.00932e-05
-5.33662e-06
-2.19929e-05
2.49052e-06
-2.39142e-05
1.11117e-05
-2.5868e-05
2.0517e-05
-2.78356e-05
3.07084e-05
-2.98275e-05
4.17241e-05
-3.18308e-05
5.35579e-05
-3.38475e-05
6.61649e-05
-3.5882e-05
7.95537e-05
-3.79265e-05
9.37152e-05
-3.99825e-05
0.000108634
-4.20482e-05
0.000124293
-4.41154e-05
0.000140684
-4.61967e-05
0.000157778
-4.82758e-05
0.000175561
-5.03535e-05
0.000194022
-5.24387e-05
0.000213174
-5.45175e-05
0.000233025
-5.65732e-05
0.000253584
-5.85951e-05
0.000274843
-6.05692e-05
0.000296767
-6.24768e-05
0.00031929
-6.43254e-05
0.000342343
-6.61249e-05
0.000365869
-6.78916e-05
0.000389834
-6.96342e-05
0.000414224
-7.13563e-05
0.000439052
-7.30335e-05
0.000464327
-7.46598e-05
0.000490051
-7.62126e-05
0.000516192
-7.76602e-05
0.000542737
-7.90267e-05
0.000569651
-8.02836e-05
0.000596906
-8.14488e-05
0.000624464
-8.24985e-05
0.000652302
-8.3442e-05
0.000680388
-8.42736e-05
0.00070868
-8.4991e-05
0.000737144
-8.55924e-05
0.000765745
-8.60702e-05
0.000794452
-8.64255e-05
0.000823223
-8.66626e-05
0.000852018
-8.67632e-05
0.000880801
-8.67381e-05
0.000909545
-8.65839e-05
0.000938193
-8.62906e-05
0.000966713
-8.58628e-05
0.000995065
-8.53027e-05
0.00102321
-8.46026e-05
0.0010511
-8.37709e-05
0.00107869
-8.27977e-05
0.00110597
-8.16971e-05
0.00113287
-8.04459e-05
0.00115938
-7.90617e-05
0.00118545
-7.7524e-05
0.00121105
-7.58447e-05
0.00123616
-7.40075e-05
0.00126073
-7.20064e-05
0.00128472
-6.98482e-05
0.00130809
-6.75258e-05
0.00133081
-6.50345e-05
0.00135284
-6.23927e-05
0.00137415
-5.95826e-05
0.00139469
-5.6612e-05
0.00141443
-5.34812e-05
0.00143333
-5.0198e-05
0.00145137
-4.67676e-05
0.00146852
-4.31944e-05
0.00148474
-3.94892e-05
0.00150001
-3.5665e-05
0.00151431
-3.17269e-05
0.00152762
-2.7716e-05
0.00153996
-2.36538e-05
0.00155129
-1.95921e-05
0.00156151
-1.55724e-05
0.00157055
-1.16593e-05
0.0015783
-7.84328e-06
0.00158448
-4.1229e-06
0.00158911
-4.69565e-07
0.00159199
3.35388e-06
0.00159316
7.12341e-06
0.00159262
1.09333e-05
0.00159037
1.48042e-05
0.00158639
1.87276e-05
0.00158068
2.27033e-05
0.00157323
2.673e-05
0.00156405
3.08014e-05
0.00155315
3.49077e-05
0.00154053
3.90619e-05
0.00152622
4.32686e-05
0.00151021
4.75323e-05
0.00149255
5.18695e-05
0.00147324
5.62922e-05
0.00145231
6.08046e-05
0.00142976
6.54017e-05
0.00140562
7.00776e-05
0.00137989
7.48143e-05
0.00135256
7.95911e-05
0.00132364
8.43894e-05
0.00129312
8.91918e-05
0.00126099
9.39815e-05
0.00122726
9.8747e-05
0.00119192
0.000103477
0.00115498
0.000108163
0.00111644
0.000112791
0.0010763
0.000117339
0.00103456
0.00012181
0.000991227
0.000126168
0.000946323
0.000130409
0.000899873
0.000134518
0.000851906
0.000138489
0.000802462
0.000142301
0.0007516
0.000145922
0.000699373
0.000149354
0.000645845
0.000152572
0.00059108
0.000155569
0.000535153
0.00015833
0.000478149
0.000160846
0.000420178
0.000163108
0.000361227
0.000165208
0.000301266
0.00016736
0.000240268
0.000169348
0.000179239
0.000169785
0.000120708
0.000164516
6.6789e-05
0.000155746
0.000184538
-7.63832e-06
2.99327e-05
-4.69442e-06
-9.88938e-06
-3.82271e-06
-4.23749e-07
-5.63932e-06
8.01221e-06
-7.64442e-06
9.08376e-06
-9.59947e-06
7.9016e-06
-1.11488e-05
6.72106e-06
-1.25247e-05
5.75229e-06
-1.36854e-05
4.72314e-06
-1.46036e-05
3.59301e-06
-1.5248e-05
2.31075e-06
-1.55649e-05
8.87e-07
-1.5584e-05
-6.59608e-07
-1.52564e-05
-2.29539e-06
-1.4547e-05
-4.03813e-06
-1.3419e-05
-5.89526e-06
-1.18303e-05
-7.85045e-06
-9.78908e-06
-9.86832e-06
-7.26247e-06
-1.19758e-05
-4.22334e-06
-1.4183e-05
-6.45097e-07
-1.64468e-05
3.51214e-06
-1.87722e-05
8.24716e-06
-2.11638e-05
1.36089e-05
-2.36162e-05
1.96309e-05
-2.61153e-05
2.63094e-05
-2.86714e-05
3.36606e-05
-3.12653e-05
4.16936e-05
-3.3901e-05
5.04411e-05
-3.65831e-05
5.99079e-05
-3.92943e-05
7.01005e-05
-4.20234e-05
8.10321e-05
-4.47791e-05
9.27109e-05
-4.75609e-05
0.00010514
-5.0356e-05
0.000118317
-5.31596e-05
0.000132241
-5.59716e-05
0.000146916
-5.87907e-05
0.000162334
-6.16151e-05
0.000178496
-6.44372e-05
0.000195389
-6.72467e-05
0.000212987
-7.00367e-05
0.000231272
-7.28023e-05
0.000250231
-7.55323e-05
0.00026985
-7.82142e-05
0.000290129
-8.08478e-05
0.000311082
-8.34298e-05
0.000332711
-8.59548e-05
0.000355008
-8.84215e-05
0.000377949
-9.08326e-05
0.000401507
-9.31925e-05
0.00042564
-9.54891e-05
0.000450308
-9.77019e-05
0.000475485
-9.98366e-05
0.000501135
-0.000101862
0.000527255
-0.00010378
0.0005538
-0.000105572
0.000580756
-0.000107239
0.000608084
-0.000108777
0.000635765
-0.000110179
0.00066377
-0.000111448
0.000692052
-0.000112555
0.000720579
-0.000113519
0.00074931
-0.000114323
0.000778215
-0.000114976
0.000807256
-0.000115466
0.000836385
-0.000115791
0.000865565
-0.000115943
0.000894753
-0.000115926
0.000923901
-0.000115732
0.000952976
-0.000115366
0.000981927
-0.000114813
0.00101071
-0.000114083
0.00103927
-0.000113166
0.00106756
-0.000112065
0.00109556
-0.000110791
0.00112317
-0.000109314
0.00115039
-0.00010766
0.00117713
-0.000105808
0.00120338
-0.000103771
0.00122907
-0.000101531
0.00125416
-9.90965e-05
0.00127861
-9.64584e-05
0.00130237
-9.36136e-05
0.00132541
-9.05644e-05
0.0013477
-8.73183e-05
0.00136917
-8.38673e-05
0.00138981
-8.02176e-05
0.00140955
-7.63586e-05
0.00142839
-7.23179e-05
0.00144628
-6.80869e-05
0.00146319
-6.36754e-05
0.00147908
-5.90914e-05
0.00149394
-5.4344e-05
0.00150772
-4.94525e-05
0.00152043
-4.44291e-05
0.00153201
-3.93001e-05
0.00154243
-3.40716e-05
0.00155163
-2.87891e-05
0.00155953
-2.34773e-05
0.00156605
-1.81774e-05
0.00157106
-1.28572e-05
0.00157447
-7.53171e-06
0.00157616
-2.16223e-06
0.00157638
3.14245e-06
0.00157496
8.53729e-06
0.00157191
1.39853e-05
0.00156723
1.94844e-05
0.00156091
2.50442e-05
0.00155295
3.06639e-05
0.00154334
3.6342e-05
0.00153207
4.20743e-05
0.00151912
4.78574e-05
0.00150448
5.37017e-05
0.00148816
5.95897e-05
0.00147016
6.55273e-05
0.00145051
7.15254e-05
0.00142922
7.75784e-05
0.00140634
8.36836e-05
0.00138189
8.98496e-05
0.00135591
9.60592e-05
0.00132843
0.0001023
0.00129945
0.000108565
0.001269
0.000114838
0.0012371
0.000121095
0.00120375
0.000127332
0.00116898
0.000133517
0.00113281
0.000139644
0.00109528
0.000145698
0.0010564
0.000151672
0.00101618
0.000157552
0.000974679
0.000163315
0.000931895
0.000168953
0.00088786
0.000174444
0.000842608
0.000179771
0.000796182
0.000184915
0.000748623
0.00018986
0.000699964
0.000194581
0.000650258
0.00019906
0.00059955
0.000203279
0.0005479
0.000207219
0.000495377
0.000210854
0.00044205
0.000214172
0.000387979
0.000217178
0.000333164
0.000220024
0.000277607
0.000222917
0.000221339
0.000225615
0.000165888
0.000225236
0.000113229
0.000217174
6.31901e-05
0.000205785
0.000247728
-7.70164e-06
3.76343e-05
-4.1604e-06
-1.34306e-05
-2.91688e-06
-1.66727e-06
-4.32692e-06
9.42225e-06
-5.91659e-06
1.06734e-05
-7.58933e-06
9.57434e-06
-8.85159e-06
7.98332e-06
-1.00457e-05
6.9464e-06
-1.10322e-05
5.70967e-06
-1.18426e-05
4.40343e-06
-1.24341e-05
2.90225e-06
-1.27786e-05
1.23148e-06
-1.28145e-05
-6.23689e-07
-1.25245e-05
-2.58545e-06
-1.18974e-05
-4.66523e-06
-1.09163e-05
-6.87637e-06
-9.56077e-06
-9.20593e-06
-7.7584e-06
-1.16707e-05
-5.47853e-06
-1.42557e-05
-2.75002e-06
-1.69115e-05
5.07556e-07
-1.97043e-05
4.32003e-06
-2.25846e-05
8.73019e-06
-2.5574e-05
1.37392e-05
-2.86252e-05
1.93823e-05
-3.17584e-05
2.56761e-05
-3.49652e-05
3.26438e-05
-3.8233e-05
4.03143e-05
-4.15716e-05
4.86826e-05
-4.49514e-05
5.77736e-05
-4.83853e-05
6.76162e-05
-5.1866e-05
7.82145e-05
-5.53774e-05
8.95766e-05
-5.8923e-05
0.00010171
-6.24894e-05
0.000114627
-6.60767e-05
0.000128327
-6.9671e-05
0.000142818
-7.32821e-05
0.000158094
-7.68913e-05
0.000174148
-8.04906e-05
0.000190973
-8.4072e-05
0.000208571
-8.76343e-05
0.000226936
-9.11674e-05
0.000246048
-9.46443e-05
0.000265908
-9.8074e-05
0.000286501
-0.000101441
0.000307819
-0.000104748
0.000329828
-0.000107964
0.000352511
-0.000111104
0.000375839
-0.000114161
0.000399786
-0.000117139
0.000424308
-0.000120011
0.000449384
-0.000122778
0.000474981
-0.000125433
0.000501083
-0.000127964
0.000527643
-0.00013034
0.00055466
-0.000132589
0.000582084
-0.000134663
0.000609896
-0.000136589
0.000638052
-0.000138335
0.000666514
-0.00013991
0.000695267
-0.000141308
0.000724265
-0.000142517
0.000753469
-0.000143527
0.000782833
-0.00014434
0.00081232
-0.000144954
0.000841888
-0.000145359
0.000871494
-0.000145549
0.000901099
-0.000145531
0.000930644
-0.000145277
0.0009601
-0.000144823
0.000989409
-0.000144121
0.00101853
-0.000143204
0.00104741
-0.000142047
0.00107601
-0.000140662
0.00110426
-0.000139047
0.00113214
-0.000137186
0.00115958
-0.000135104
0.00118654
-0.000132763
0.00121296
-0.000130191
0.00123879
-0.000127368
0.001264
-0.000124307
0.00128855
-0.000121003
0.00131238
-0.000117448
0.00133547
-0.000113651
0.00135776
-0.000109608
0.00137922
-0.000105329
0.00139982
-0.000100813
0.00141951
-9.60551e-05
0.00143829
-9.10901e-05
0.00145609
-8.58892e-05
0.00147289
-8.0472e-05
0.00148866
-7.48632e-05
0.00150338
-6.90693e-05
0.00151702
-6.30896e-05
0.00152954
-5.6949e-05
0.0015409
-5.06631e-05
0.00155108
-4.42478e-05
0.00156002
-3.77287e-05
0.00156767
-3.11335e-05
0.00157396
-2.44626e-05
0.00157883
-1.7732e-05
0.00158226
-1.09604e-05
0.00158424
-4.13803e-06
0.00158458
2.79968e-06
0.00158333
9.78715e-06
0.00158046
1.68558e-05
0.00157596
2.39892e-05
0.0015698
3.12007e-05
0.00156197
3.84941e-05
0.00155244
4.58704e-05
0.00154121
5.33062e-05
0.00152826
6.08074e-05
0.00151359
6.83672e-05
0.00149719
7.59943e-05
0.00147904
8.36794e-05
0.00145915
9.14116e-05
0.00143754
9.91902e-05
0.00141421
0.000107009
0.0013892
0.000114864
0.00136252
0.000122736
0.00133421
0.000130614
0.00130429
0.000138481
0.00127281
0.000146322
0.00123978
0.000154121
0.00120526
0.000161856
0.00116926
0.00016951
0.00113184
0.000177072
0.00109302
0.000184512
0.00105286
0.000191832
0.0010114
0.00019901
0.000968699
0.000206019
0.000924803
0.000212849
0.000879765
0.000219482
0.000833638
0.000225898
0.000786479
0.000232073
0.000738342
0.000237996
0.00068928
0.000243643
0.000639356
0.000248984
0.000588623
0.000254012
0.000537144
0.000258699
0.000484974
0.000263024
0.000432195
0.00026695
0.00037888
0.000270493
0.000325049
0.000273856
0.000270724
0.000277241
0.000215998
0.000280342
0.000162185
0.000279049
0.000110912
0.000268448
6.14882e-05
0.000255209
0.000309216
-8.02287e-06
4.56572e-05
-4.89929e-06
-1.65542e-05
-4.16207e-06
-2.40449e-06
-5.84866e-06
1.11088e-05
-7.98284e-06
1.28076e-05
-9.94836e-06
1.15399e-05
-1.16937e-05
9.72866e-06
-1.32448e-05
8.49749e-06
-1.46822e-05
7.14708e-06
-1.5872e-05
5.59323e-06
-1.6846e-05
3.87626e-06
-1.75588e-05
1.94431e-06
-1.80214e-05
-1.61118e-07
-1.81303e-05
-2.47654e-06
-1.7877e-05
-4.91859e-06
-1.72347e-05
-7.51869e-06
-1.61657e-05
-1.02748e-05
-1.46523e-05
-1.31841e-05
-1.26557e-05
-1.62524e-05
-1.01516e-05
-1.94156e-05
-7.09111e-06
-2.27648e-05
-3.4703e-06
-2.62055e-05
7.26349e-07
-2.97706e-05
5.55442e-06
-3.34533e-05
1.10577e-05
-3.72617e-05
1.7235e-05
-4.11425e-05
2.41032e-05
-4.51012e-05
3.16863e-05
-4.91547e-05
4.00055e-05
-5.32706e-05
4.90737e-05
-5.74535e-05
5.89021e-05
-6.16944e-05
6.95048e-05
-6.59801e-05
8.08928e-05
-7.0311e-05
9.30758e-05
-7.46723e-05
0.000106054
-7.90552e-05
0.00011984
-8.34568e-05
0.000134417
-8.78589e-05
0.00014978
-9.22546e-05
0.000165939
-9.66492e-05
0.000182887
-0.00010102
0.0002006
-0.000105348
0.000219072
-0.00010964
0.000238309
-0.000113881
0.000258285
-0.00011805
0.000279
-0.000122157
0.000300426
-0.000126174
0.000322567
-0.000130105
0.000345399
-0.000133935
0.000368901
-0.000137663
0.00039304
-0.000141278
0.000417788
-0.00014476
0.000443124
-0.000148114
0.000469007
-0.000151316
0.000495406
-0.000154363
0.000522307
-0.000157241
0.00054966
-0.000159942
0.000577448
-0.000162452
0.00060563
-0.000164771
0.000634179
-0.000166884
0.000663051
-0.000168782
0.000692212
-0.000170469
0.00072162
-0.000171925
0.000751239
-0.000173146
0.00078103
-0.000174131
0.000810946
-0.00017487
0.000840946
-0.000175358
0.000870982
-0.000175584
0.000901017
-0.000175566
0.000930999
-0.00017526
0.000960889
-0.000174712
0.000990627
-0.000173859
0.00102018
-0.000172758
0.00104949
-0.00017136
0.00107852
-0.00016969
0.00110721
-0.000167734
0.00113551
-0.000165493
0.00116338
-0.00016297
0.00119077
-0.000160153
0.00121763
-0.000157048
0.00124392
-0.000153658
0.00126958
-0.000149974
0.00129459
-0.000146004
0.00131889
-0.000141755
0.00134244
-0.000137201
0.00136521
-0.000132378
0.00138715
-0.000127271
0.00140824
-0.000121899
0.00142843
-0.000116248
0.00144768
-0.000110336
0.00146596
-0.000104172
0.00148326
-9.77718e-05
0.00149952
-9.11193e-05
0.0015147
-8.42506e-05
0.00152878
-7.71724e-05
0.00154173
-6.98942e-05
0.00155349
-6.24301e-05
0.00156406
-5.4811e-05
0.00157335
-4.70242e-05
0.00158133
-3.91127e-05
0.00158795
-3.10821e-05
0.00159315
-2.29339e-05
0.00159688
-1.46823e-05
0.00159906
-6.32291e-06
0.00159971
2.14789e-06
0.00159878
1.07221e-05
0.00159624
1.93917e-05
0.00159206
2.81752e-05
0.0015862
3.7058e-05
0.00157866
4.60349e-05
0.00156944
5.50925e-05
0.0015585
6.4246e-05
0.00154582
7.34849e-05
0.0015314
8.27851e-05
0.00151524
9.21521e-05
0.00149732
0.000101597
0.00147766
0.000111075
0.00145626
0.000120596
0.00143311
0.000130152
0.00140827
0.000139711
0.00138171
0.000149291
0.00135348
0.00015885
0.00132358
0.000168379
0.00129204
0.000177857
0.0012589
0.000187263
0.00122417
0.000196584
0.0011879
0.000205789
0.00115011
0.00021486
0.00111084
0.000223778
0.00107015
0.000232519
0.0010281
0.000241068
0.000984717
0.000249397
0.000940078
0.000257488
0.00089424
0.00026532
0.000847252
0.000272886
0.000799199
0.000280126
0.000750135
0.000287061
0.000700138
0.000293639
0.000649265
0.000299858
0.000597585
0.000305692
0.00054517
0.000311114
0.000492092
0.000316101
0.000438429
0.000320614
0.000384263
0.000324659
0.000329632
0.000328487
0.000274535
0.000332338
0.000219112
0.000335764
0.000164299
0.000333862
0.000111871
0.000320876
6.15626e-05
0.000305517
0.000370779
-8.48352e-06
5.41407e-05
-5.72348e-06
-1.93142e-05
-5.3797e-06
-2.74827e-06
-7.50888e-06
1.3238e-05
-1.01824e-05
1.54811e-05
-1.26063e-05
1.39638e-05
-1.48322e-05
1.19545e-05
-1.68455e-05
1.05108e-05
-1.86811e-05
8.98276e-06
-2.03184e-05
7.23047e-06
-2.17098e-05
5.26772e-06
-2.28215e-05
3.056e-06
-2.36559e-05
6.73258e-07
-2.41199e-05
-2.01255e-06
-2.42056e-05
-4.83289e-06
-2.38771e-05
-7.84716e-06
-2.30999e-05
-1.10521e-05
-2.18478e-05
-1.44362e-05
-2.01402e-05
-1.79599e-05
-1.78333e-05
-2.17224e-05
-1.50334e-05
-2.55648e-05
-1.16068e-05
-2.96321e-05
-7.56268e-06
-3.38147e-05
-2.87997e-06
-3.8136e-05
2.46485e-06
-4.26065e-05
8.50443e-06
-4.7182e-05
1.52729e-05
-5.18697e-05
2.27695e-05
-5.66512e-05
3.10202e-05
-6.15213e-05
4.00407e-05
-6.64741e-05
4.98347e-05
-7.14884e-05
6.04147e-05
-7.656e-05
7.17918e-05
-8.16881e-05
8.39716e-05
-8.68521e-05
9.69601e-05
-9.20437e-05
0.000110757
-9.72541e-05
0.000125368
-0.00010247
0.000140793
-0.000107679
0.000157011
-0.000112868
0.000174026
-0.000118035
0.000191845
-0.000123166
0.000210442
-0.000128237
0.000229813
-0.000133252
0.000249964
-0.0001382
0.000270849
-0.000143042
0.000292471
-0.000147796
0.00031481
-0.000152443
0.000337845
-0.000156971
0.00036155
-0.000161368
0.000385899
-0.000165627
0.000410878
-0.000169738
0.000436445
-0.000173682
0.000462584
-0.000177455
0.000489259
-0.000181038
0.000516446
-0.000184429
0.000544116
-0.000187612
0.000572228
-0.000190563
0.000600763
-0.000193306
0.000629666
-0.000195787
0.000658915
-0.00019803
0.000688464
-0.000200018
0.000718288
-0.000201749
0.000748335
-0.000203192
0.000778557
-0.000204353
0.000808922
-0.000205235
0.000839386
-0.000205822
0.000869904
-0.000206103
0.000900432
-0.000206094
0.000930916
-0.000205743
0.000961307
-0.000205103
0.000991569
-0.000204121
0.00102165
-0.000202843
0.0010515
-0.000201206
0.00108107
-0.000199262
0.00111031
-0.000196974
0.00113918
-0.000194356
0.00116761
-0.000191405
0.00119557
-0.000188116
0.00122302
-0.000184495
0.0012499
-0.000180539
0.00127616
-0.000176236
0.00130177
-0.000171609
0.00132667
-0.000166662
0.00135083
-0.00016136
0.0013742
-0.000155746
0.00139674
-0.000149813
0.00141841
-0.000143566
0.00143918
-0.000137018
0.001459
-0.000130156
0.00147784
-0.000123007
0.00149564
-0.000115574
0.00151239
-0.000107874
0.00152805
-9.99063e-05
0.00154257
-9.16919e-05
0.00155591
-8.32399e-05
0.00156806
-7.45781e-05
0.00157894
-6.56876e-05
0.00158853
-5.66195e-05
0.00159678
-4.73616e-05
0.00160364
-3.79422e-05
0.00160907
-2.83646e-05
0.00161303
-1.8636e-05
0.00161548
-8.77627e-06
0.00161636
1.26702e-06
0.00161565
1.14305e-05
0.00161332
2.1721e-05
0.00160936
3.21379e-05
0.00160374
4.26761e-05
0.00159644
5.33349e-05
0.00158743
6.41025e-05
0.00157671
7.49707e-05
0.00156427
8.59272e-05
0.00155008
9.69725e-05
0.00153412
0.000108108
0.00151644
0.000119281
0.00149699
0.00013052
0.00147579
0.000141799
0.00145284
0.000153096
0.00142814
0.000164412
0.00140173
0.000175709
0.0013736
0.000186977
0.00134377
0.000198206
0.00131227
0.000209361
0.00127912
0.000220411
0.00124435
0.000231352
0.001208
0.000242145
0.00117008
0.000252779
0.00113063
0.000263228
0.0010897
0.000273449
0.00104733
0.000283436
0.00100358
0.000293143
0.000958509
0.000302562
0.000912158
0.000311671
0.0008646
0.000320444
0.00081589
0.000328836
0.000766088
0.000336863
0.000715283
0.000344444
0.00066353
0.00035161
0.000610912
0.00035831
0.000557497
0.000364529
0.000503362
0.000370237
0.000448593
0.000375383
0.000393266
0.000379985
0.000337434
0.00038432
0.000281074
0.000388698
0.000224298
0.00039254
0.000167916
0.000390244
0.000113943
0.000374849
6.25103e-05
0.000356949
0.000433289
-9.03614e-06
6.31769e-05
-6.54064e-06
-2.18097e-05
-6.45239e-06
-2.83652e-06
-8.98087e-06
1.57665e-05
-1.20946e-05
1.85949e-05
-1.4992e-05
1.68612e-05
-1.76433e-05
1.46059e-05
-2.00972e-05
1.29646e-05
-2.23676e-05
1.12532e-05
-2.44165e-05
9.27934e-06
-2.62293e-05
7.08051e-06
-2.77751e-05
4.60182e-06
-2.89449e-05
1.84312e-06
-2.97954e-05
-1.16203e-06
-3.02524e-05
-4.37589e-06
-3.02845e-05
-7.81509e-06
-2.98607e-05
-1.14759e-05
-2.89407e-05
-1.53562e-05
-2.74696e-05
-1.9431e-05
-2.55176e-05
-2.36744e-05
-2.29258e-05
-2.81566e-05
-1.97897e-05
-3.27682e-05
-1.59766e-05
-3.76277e-05
-1.15034e-05
-4.26092e-05
-6.37058e-06
-4.77393e-05
-5.3574e-07
-5.30169e-05
6.03196e-06
-5.84374e-05
1.33732e-05
-6.39925e-05
2.14778e-05
-6.96259e-05
3.03665e-05
-7.53628e-05
4.00548e-05
-8.11767e-05
5.05572e-05
-8.70624e-05
6.1877e-05
-9.30079e-05
7.40132e-05
-9.89882e-05
8.69795e-05
-0.00010501
0.000100776
-0.000111051
0.000115404
-0.000117097
0.000130861
-0.000123136
0.000147141
-0.000129148
0.000164248
-0.000135142
0.000182165
-0.000141083
0.000200887
-0.000146959
0.000220399
-0.000152765
0.000240691
-0.000158492
0.000261754
-0.000164105
0.000283573
-0.000169615
0.000306119
-0.000174989
0.000329381
-0.000180234
0.000353341
-0.000185328
0.000377971
-0.000190258
0.000403243
-0.00019501
0.000429135
-0.000199574
0.000455621
-0.000203941
0.000482669
-0.000208085
0.000510238
-0.000211998
0.00053831
-0.000215684
0.000566848
-0.000219101
0.000595813
-0.000222271
0.000625177
-0.000225152
0.000654902
-0.000227756
0.000684946
-0.000230062
0.000715265
-0.000232068
0.000745833
-0.00023376
0.000776595
-0.000235115
0.000807509
-0.000236149
0.000838539
-0.000236852
0.000869624
-0.000237188
0.000900727
-0.000237197
0.000931807
-0.000236823
0.000962805
-0.000236101
0.000993682
-0.000234998
0.00102439
-0.000233547
0.00105486
-0.000231683
0.00108507
-0.000229473
0.00111496
-0.000226855
0.00114447
-0.000223869
0.00117356
-0.000220493
0.00120218
-0.000216735
0.00123027
-0.000212591
0.0012578
-0.000208072
0.00128472
-0.000203155
0.00131098
-0.000197865
0.00133652
-0.000192203
0.00136132
-0.000186155
0.00138532
-0.000179747
0.00140847
-0.00017297
0.00143075
-0.000165842
0.00145209
-0.000158365
0.00147249
-0.000150552
0.00149188
-0.000142392
0.00151022
-0.000133919
0.00152747
-0.000125125
0.00154362
-0.000116052
0.00155859
-0.000106668
0.00157237
-9.7013e-05
0.0015849
-8.71082e-05
0.00159615
-7.69439e-05
0.00160609
-6.65542e-05
0.00161465
-5.59276e-05
0.00162181
-4.50984e-05
0.00162753
-3.40817e-05
0.00163175
-2.28558e-05
0.00163442
-1.14536e-05
0.00163556
1.3406e-07
0.00163509
1.18966e-05
0.00163301
2.38064e-05
0.00162927
3.58692e-05
0.00162386
4.80869e-05
0.00161676
6.04426e-05
0.00160793
7.29236e-05
0.00159738
8.55234e-05
0.00158508
9.8229e-05
0.00157101
0.00011104
0.0015552
0.000123917
0.00153761
0.000136877
0.00151823
0.000149895
0.00149709
0.000162943
0.00147416
0.000176025
0.00144949
0.000189083
0.00142306
0.00020214
0.00139488
0.000215155
0.00136498
0.000228103
0.00133338
0.000240962
0.00130009
0.000253701
0.00126513
0.000266316
0.00122854
0.000278733
0.00119035
0.000290966
0.00115061
0.000302974
0.00110933
0.000314727
0.00106657
0.00032619
0.00102238
0.000337332
0.000976809
0.000348138
0.000929907
0.000358573
0.000881729
0.000368621
0.000832348
0.000378217
0.000781833
0.000387378
0.000730233
0.000396045
0.00067763
0.000404213
0.000624098
0.000411842
0.000569704
0.000418923
0.000514538
0.000425403
0.00045868
0.000431242
0.000402207
0.000436457
0.000345169
0.000441359
0.000287533
0.000446334
0.000229391
0.000450682
0.000171613
0.000448022
0.000116334
0.000430128
6.37926e-05
0.000409491
0.000497081
-9.66955e-06
7.28464e-05
-7.39812e-06
-2.40812e-05
-7.52339e-06
-2.71126e-06
-1.04496e-05
1.86927e-05
-1.40394e-05
2.21846e-05
-1.74376e-05
2.02593e-05
-2.05457e-05
1.7714e-05
-2.34644e-05
1.58833e-05
-2.6206e-05