/*--------------------------------*- C++ -*----------------------------------*\
| =========                 |                                                 |
| \\      /  F ield         | OpenFOAM: The Open Source CFD Toolbox           |
|  \\    /   O peration     | Version:  v2006                                 |
|   \\  /    A nd           | Website:  www.openfoam.com                      |
|    \\/     M anipulation  |                                                 |
\*---------------------------------------------------------------------------*/
FoamFile
{
    version     2.0;
    format      ascii;
    class       volVectorField;
    location    "7.8";
    object      U;
}
// * * * * * * * * * * * * * * * * * * * * * * * * * * * * * * * * * * * * * //

dimensions      [0 1 -1 0 0 0 0];


internalField   nonuniform List<vector> 
50000
(
(-0.0004358 -0.000397014 0)
(-0.000117319 -0.00182808 0)
(0.00162728 -0.00152359 0)
(0.00155112 -0.0013881 0)
(0.00253992 -0.00125176 0)
(0.00276697 -0.00130879 0)
(0.00345257 -0.00125317 0)
(0.00394787 -0.00127318 0)
(0.0045068 -0.00124542 0)
(0.00508092 -0.0012346 0)
(0.00565615 -0.00121991 0)
(0.00625155 -0.00120437 0)
(0.00686704 -0.00118916 0)
(0.00750112 -0.00117247 0)
(0.00815631 -0.00115517 0)
(0.00883356 -0.00113267 0)
(0.00953286 -0.00110909 0)
(0.0102551 -0.00108348 0)
(0.0109998 -0.00105455 0)
(0.0117662 -0.0010253 0)
(0.0125571 -0.000993363 0)
(0.0133709 -0.000959631 0)
(0.014204 -0.000923527 0)
(0.0150587 -0.000887661 0)
(0.0159377 -0.000851359 0)
(0.0168395 -0.000812745 0)
(0.0177608 -0.000773079 0)
(0.0187034 -0.000730765 0)
(0.0196669 -0.000688254 0)
(0.0206476 -0.000643195 0)
(0.0216485 -0.000598615 0)
(0.022674 -0.000553305 0)
(0.02372 -0.000506603 0)
(0.0247881 -0.000463762 0)
(0.0258855 -0.000428133 0)
(0.0270149 -0.000401906 0)
(0.0281817 -0.000385013 0)
(0.0293954 -0.000375868 0)
(0.0306608 -0.000375177 0)
(0.031982 -0.000380829 0)
(0.0333609 -0.000387142 0)
(0.0347952 -0.000387888 0)
(0.0362818 -0.000381081 0)
(0.0378124 -0.000368614 0)
(0.0393862 -0.000359057 0)
(0.0410116 -0.00037375 0)
(0.0427026 -0.000429832 0)
(0.0444827 -0.000533648 0)
(0.0463793 -0.000676521 0)
(0.0484049 -0.000841749 0)
(0.0505574 -0.00100573 0)
(0.0528328 -0.00115441 0)
(0.0552179 -0.00128313 0)
(0.0577 -0.00139691 0)
(0.0602728 -0.00150152 0)
(0.0629293 -0.00159991 0)
(0.0656648 -0.00169249 0)
(0.0684737 -0.00178087 0)
(0.0713477 -0.00186327 0)
(0.0742844 -0.00193872 0)
(0.0772792 -0.00200802 0)
(0.0803245 -0.00207152 0)
(0.0834146 -0.0021279 0)
(0.0865433 -0.00217759 0)
(0.0897055 -0.00222081 0)
(0.092894 -0.00225838 0)
(0.0960998 -0.00228846 0)
(0.0993191 -0.00231047 0)
(0.102546 -0.00232543 0)
(0.105771 -0.00233336 0)
(0.108988 -0.00233403 0)
(0.112191 -0.00232722 0)
(0.115372 -0.00231342 0)
(0.118525 -0.00229194 0)
(0.121642 -0.00226188 0)
(0.124714 -0.0022233 0)
(0.127736 -0.00217536 0)
(0.130697 -0.00211648 0)
(0.133588 -0.00204589 0)
(0.1364 -0.00196294 0)
(0.139122 -0.00186828 0)
(0.141744 -0.00176236 0)
(0.144255 -0.00164579 0)
(0.146647 -0.00151764 0)
(0.148909 -0.00137894 0)
(0.151033 -0.00123051 0)
(0.153008 -0.00107177 0)
(0.154824 -0.000902141 0)
(0.156471 -0.000721556 0)
(0.157939 -0.000530179 0)
(0.159219 -0.000327092 0)
(0.160298 -0.000112509 0)
(0.161167 0.000115009 0)
(0.161815 0.000358561 0)
(0.162231 0.00062046 0)
(0.162403 0.000899387 0)
(0.162314 0.00118276 0)
(0.161966 0.00146238 0)
(0.161369 0.00172017 0)
(0.160548 0.00193728 0)
(0.159537 0.00210219 0)
(0.158374 0.00221455 0)
(0.157091 0.00228976 0)
(0.15571 0.00233857 0)
(0.154244 0.00236728 0)
(0.152701 0.0023791 0)
(0.151089 0.00237447 0)
(0.14941 0.00235259 0)
(0.147674 0.00231682 0)
(0.145883 0.00226722 0)
(0.144035 0.00221046 0)
(0.142134 0.00214962 0)
(0.140179 0.00208597 0)
(0.138166 0.00202026 0)
(0.136088 0.00195613 0)
(0.133943 0.00189503 0)
(0.131722 0.00183923 0)
(0.12942 0.00179209 0)
(0.127025 0.00175471 0)
(0.124528 0.00172853 0)
(0.121924 0.00171225 0)
(0.119206 0.00170366 0)
(0.11637 0.00170113 0)
(0.113413 0.00170353 0)
(0.110333 0.00170994 0)
(0.107134 0.00172048 0)
(0.103813 0.00173211 0)
(0.100366 0.0017474 0)
(0.0968029 0.00176576 0)
(0.0931248 0.00178449 0)
(0.08933 0.00180565 0)
(0.0854274 0.0018284 0)
(0.0814208 0.00185167 0)
(0.0773129 0.00187597 0)
(0.0731081 0.00190164 0)
(0.0688115 0.001928 0)
(0.0644271 0.00195438 0)
(0.059961 0.00197999 0)
(0.0554186 0.00200296 0)
(0.0508055 0.00202082 0)
(0.0461336 0.00203142 0)
(0.0414087 0.00203207 0)
(0.0366342 0.00203311 0)
(0.0318631 0.00201751 0)
(0.0269388 0.00199371 0)
(0.0222833 0.0018984 0)
(0.0171707 0.001809 0)
(0.0127894 0.0018164 0)
(0.00765982 0.00218597 0)
(0.00338015 0.0027328 0)
(-0.000437044 0.00118699 0)
(-0.0018355 -0.00121665 0)
(-0.00124943 -0.000509631 0)
(-0.00286534 -0.000254388 0)
(-0.00297299 -0.000112645 0)
(-0.00422405 -0.000243769 0)
(-0.0046056 -0.000214878 0)
(-0.00546077 -0.000292238 0)
(-0.00600447 -0.000316096 0)
(-0.0066184 -0.000370884 0)
(-0.00715271 -0.000425546 0)
(-0.00763673 -0.000485379 0)
(-0.00806526 -0.000553207 0)
(-0.0084312 -0.00062521 0)
(-0.0087267 -0.000701932 0)
(-0.00895146 -0.000780799 0)
(-0.00910482 -0.00086345 0)
(-0.00917574 -0.00094886 0)
(-0.00916643 -0.00103645 0)
(-0.00907166 -0.00112565 0)
(-0.00888486 -0.00121576 0)
(-0.00861061 -0.00131292 0)
(-0.00824844 -0.00140541 0)
(-0.00778749 -0.00149932 0)
(-0.00722252 -0.00159734 0)
(-0.00655816 -0.00169462 0)
(-0.00579411 -0.00179429 0)
(-0.00492674 -0.00189206 0)
(-0.00394865 -0.00199299 0)
(-0.0028665 -0.00209437 0)
(-0.00167747 -0.00219734 0)
(-0.000363276 -0.00230215 0)
(0.00106419 -0.00241145 0)
(0.00259776 -0.00252541 0)
(0.00423975 -0.002647 0)
(0.00598608 -0.00277571 0)
(0.00783899 -0.00291007 0)
(0.00979331 -0.00304988 0)
(0.0118388 -0.00319667 0)
(0.0139831 -0.00334608 0)
(0.0162231 -0.0034979 0)
(0.0185548 -0.00364383 0)
(0.020985 -0.00378307 0)
(0.0235192 -0.00391648 0)
(0.0261502 -0.00404929 0)
(0.028864 -0.00419266 0)
(0.0316461 -0.00435352 0)
(0.0344739 -0.00453177 0)
(0.0373287 -0.00472156 0)
(0.0401957 -0.0049139 0)
(0.0430742 -0.00509837 0)
(0.0459724 -0.00526991 0)
(0.0488934 -0.00542621 0)
(0.0518359 -0.00557123 0)
(0.0548056 -0.00570668 0)
(0.0578018 -0.00583276 0)
(0.0608202 -0.00594896 0)
(0.0638578 -0.00605759 0)
(0.0669125 -0.00615652 0)
(0.0699822 -0.00624406 0)
(0.0730633 -0.00632264 0)
(0.0761536 -0.00639229 0)
(0.0792506 -0.00645126 0)
(0.0823489 -0.00649994 0)
(0.0854468 -0.00653686 0)
(0.0885424 -0.00656373 0)
(0.091632 -0.0065797 0)
(0.0947119 -0.00658351 0)
(0.0977793 -0.00657482 0)
(0.100831 -0.00655484 0)
(0.103863 -0.00652343 0)
(0.106872 -0.00647984 0)
(0.109855 -0.00642407 0)
(0.11281 -0.00635641 0)
(0.115731 -0.00627645 0)
(0.118614 -0.00618346 0)
(0.12146 -0.00607682 0)
(0.124266 -0.00595576 0)
(0.127029 -0.0058196 0)
(0.129745 -0.00566789 0)
(0.132413 -0.00550044 0)
(0.135028 -0.00531664 0)
(0.137589 -0.00511664 0)
(0.140092 -0.00490033 0)
(0.142529 -0.00466787 0)
(0.1449 -0.00441966 0)
(0.147201 -0.00415516 0)
(0.149428 -0.00387403 0)
(0.151576 -0.0035764 0)
(0.153644 -0.00326268 0)
(0.155629 -0.00293178 0)
(0.157528 -0.00258506 0)
(0.15934 -0.0022222 0)
(0.161067 -0.00184156 0)
(0.162707 -0.00144491 0)
(0.164266 -0.00103638 0)
(0.165752 -0.000625826 0)
(0.16716 -0.000220649 0)
(0.16849 0.000166161 0)
(0.169736 0.000518468 0)
(0.170887 0.000826556 0)
(0.171937 0.00109224 0)
(0.17288 0.00132372 0)
(0.173694 0.00153455 0)
(0.17437 0.00173239 0)
(0.174897 0.00192641 0)
(0.175266 0.0021203 0)
(0.175462 0.00231455 0)
(0.175476 0.00251126 0)
(0.175297 0.00271058 0)
(0.17492 0.00291594 0)
(0.174341 0.00312996 0)
(0.173555 0.00335346 0)
(0.172561 0.00358743 0)
(0.171354 0.00383386 0)
(0.169929 0.00409422 0)
(0.168283 0.00436936 0)
(0.166413 0.00465937 0)
(0.164315 0.00496281 0)
(0.161987 0.00527888 0)
(0.159429 0.00560513 0)
(0.15664 0.00593798 0)
(0.153623 0.00627407 0)
(0.150377 0.00661044 0)
(0.146906 0.00694501 0)
(0.143213 0.00727725 0)
(0.1393 0.0076039 0)
(0.135169 0.00792565 0)
(0.130825 0.00824062 0)
(0.126273 0.00854426 0)
(0.121518 0.00883638 0)
(0.116566 0.00911651 0)
(0.111423 0.00938408 0)
(0.106097 0.0096389 0)
(0.100594 0.00988108 0)
(0.0949233 0.01011 0)
(0.089094 0.0103242 0)
(0.0831138 0.0105235 0)
(0.0769928 0.0107077 0)
(0.0707427 0.010875 0)
(0.0643635 0.0110273 0)
(0.0578934 0.0111611 0)
(0.051263 0.0112816 0)
(0.0446671 0.0113724 0)
(0.0377215 0.0114754 0)
(0.0311304 0.0115321 0)
(0.0236645 0.0115587 0)
(0.0172601 0.0112749 0)
(0.00986961 0.0110704 0)
(0.00485044 0.0125369 0)
(-0.000446444 0.00281064 0)
(-0.00145882 -0.000805408 0)
(-0.000509074 0.000127148 0)
(-0.00172138 0.00080115 0)
(-0.00160487 0.000887176 0)
(-0.00254474 0.000756971 0)
(-0.00267432 0.000659174 0)
(-0.00322936 0.000565143 0)
(-0.00351026 0.000459778 0)
(-0.00384586 0.000348624 0)
(-0.00412097 0.000220214 0)
(-0.00435104 8.06798e-05 0)
(-0.0045329 -6.88266e-05 0)
(-0.00466151 -0.000230718 0)
(-0.00473193 -0.000402226 0)
(-0.00474242 -0.000584877 0)
(-0.00469191 -0.000774758 0)
(-0.00457494 -0.0009723 0)
(-0.00439034 -0.00117785 0)
(-0.00413306 -0.00139051 0)
(-0.00380552 -0.00160802 0)
(-0.0033979 -0.00183068 0)
(-0.00291097 -0.00205731 0)
(-0.00235154 -0.00228692 0)
(-0.00170366 -0.00252214 0)
(-0.000971627 -0.00276211 0)
(-0.000158017 -0.00300745 0)
(0.000741158 -0.00325652 0)
(0.00172305 -0.00350859 0)
(0.00278833 -0.00376485 0)
(0.0039427 -0.0040202 0)
(0.0051866 -0.00427832 0)
(0.00651401 -0.00454204 0)
(0.00792638 -0.00480493 0)
(0.0094248 -0.00506823 0)
(0.0110056 -0.00533214 0)
(0.0126691 -0.00559537 0)
(0.0144137 -0.00586106 0)
(0.0162342 -0.00612732 0)
(0.0181278 -0.00639396 0)
(0.0200956 -0.00666448 0)
(0.0221393 -0.00693583 0)
(0.0242582 -0.00720449 0)
(0.0264534 -0.00746644 0)
(0.0287264 -0.00771862 0)
(0.0310743 -0.00795272 0)
(0.0334912 -0.00817234 0)
(0.0359695 -0.00838121 0)
(0.0385036 -0.00858533 0)
(0.0410846 -0.00878868 0)
(0.0437089 -0.00899441 0)
(0.0463839 -0.00919758 0)
(0.0491072 -0.00939661 0)
(0.0518754 -0.00958705 0)
(0.054693 -0.00976367 0)
(0.0575573 -0.00992782 0)
(0.0604623 -0.0100801 0)
(0.0634053 -0.0102191 0)
(0.0663852 -0.0103449 0)
(0.0693964 -0.0104561 0)
(0.0724335 -0.0105537 0)
(0.0754965 -0.0106375 0)
(0.0785814 -0.0107072 0)
(0.0816837 -0.0107617 0)
(0.0847991 -0.0108006 0)
(0.0879213 -0.0108241 0)
(0.0910483 -0.0108321 0)
(0.0941787 -0.0108241 0)
(0.0973057 -0.0107995 0)
(0.100423 -0.0107587 0)
(0.103529 -0.0107008 0)
(0.10662 -0.0106263 0)
(0.109691 -0.0105351 0)
(0.112736 -0.0104278 0)
(0.115751 -0.0103048 0)
(0.118733 -0.0101642 0)
(0.121677 -0.0100056 0)
(0.12458 -0.00982963 0)
(0.127437 -0.00963578 0)
(0.130246 -0.00942224 0)
(0.133002 -0.00918837 0)
(0.135701 -0.00893393 0)
(0.138341 -0.0086578 0)
(0.140915 -0.00836145 0)
(0.14342 -0.00804255 0)
(0.145852 -0.00770173 0)
(0.148208 -0.00734063 0)
(0.150482 -0.00695845 0)
(0.152671 -0.00655493 0)
(0.154772 -0.00613136 0)
(0.15678 -0.00568872 0)
(0.158692 -0.00522753 0)
(0.160506 -0.00474889 0)
(0.162218 -0.00425562 0)
(0.163824 -0.00375099 0)
(0.165323 -0.00323838 0)
(0.166718 -0.00272271 0)
(0.168005 -0.00221774 0)
(0.16918 -0.00173476 0)
(0.17023 -0.00128003 0)
(0.171144 -0.000850264 0)
(0.171906 -0.000434303 0)
(0.172498 -2.62122e-05 0)
(0.172904 0.000380821 0)
(0.173123 0.000800506 0)
(0.173158 0.00123503 0)
(0.173006 0.00168595 0)
(0.172667 0.00215038 0)
(0.17214 0.0026256 0)
(0.171425 0.00311076 0)
(0.170521 0.0036044 0)
(0.16943 0.00410434 0)
(0.168151 0.00461041 0)
(0.166687 0.00512468 0)
(0.165039 0.00564951 0)
(0.163209 0.00618843 0)
(0.161199 0.00674413 0)
(0.159011 0.00731747 0)
(0.156648 0.00790731 0)
(0.154111 0.0085115 0)
(0.151401 0.00912609 0)
(0.148518 0.00974681 0)
(0.145461 0.0103701 0)
(0.142231 0.0109927 0)
(0.138827 0.0116125 0)
(0.135248 0.0122285 0)
(0.131495 0.0128385 0)
(0.127568 0.0134424 0)
(0.123465 0.0140369 0)
(0.119189 0.0146189 0)
(0.11474 0.0151873 0)
(0.110117 0.0157395 0)
(0.105322 0.0162741 0)
(0.100357 0.0167902 0)
(0.095226 0.0172865 0)
(0.0899319 0.0177605 0)
(0.0844797 0.0182099 0)
(0.0788761 0.0186329 0)
(0.0731284 0.0190271 0)
(0.0672425 0.0193914 0)
(0.0612224 0.0197233 0)
(0.0550939 0.0200255 0)
(0.0488123 0.0202977 0)
(0.0425391 0.0205473 0)
(0.0359218 0.0207895 0)
(0.0296293 0.0210279 0)
(0.0225139 0.0211195 0)
(0.0165081 0.0205754 0)
(0.00963866 0.0195187 0)
(0.00497995 0.0228283 0)
(-0.000498963 0.00390167 0)
(-0.00110043 -0.00123086 0)
(2.30939e-05 1.70882e-05 0)
(-0.000811673 0.00109189 0)
(-0.000472008 0.00122193 0)
(-0.00112175 0.00105367 0)
(-0.00103134 0.000895067 0)
(-0.00134028 0.000762785 0)
(-0.00141368 0.000618985 0)
(-0.00153916 0.000464689 0)
(-0.00162611 0.000289244 0)
(-0.00167685 9.59899e-05 0)
(-0.00169759 -0.000109638 0)
(-0.00168319 -0.000331226 0)
(-0.00162507 -0.000566437 0)
(-0.00152285 -0.000816216 0)
(-0.00137553 -0.00107749 0)
(-0.00117878 -0.00134907 0)
(-0.000933764 -0.00163143 0)
(-0.000631283 -0.00192595 0)
(-0.00026589 -0.00222657 0)
(0.000158687 -0.00253392 0)
(0.000643502 -0.00285017 0)
(0.00119233 -0.00317145 0)
(0.00181302 -0.00349671 0)
(0.00250434 -0.00383038 0)
(0.00326635 -0.00416856 0)
(0.00410233 -0.00451043 0)
(0.00501561 -0.00485523 0)
(0.00600662 -0.00520258 0)
(0.00707405 -0.00555066 0)
(0.00822158 -0.00590087 0)
(0.00945217 -0.00625298 0)
(0.0107635 -0.00660637 0)
(0.0121537 -0.00696132 0)
(0.0136255 -0.00731859 0)
(0.0151799 -0.00767691 0)
(0.0168162 -0.00803676 0)
(0.0185328 -0.00839554 0)
(0.0203287 -0.00875381 0)
(0.0222031 -0.00910995 0)
(0.0241537 -0.0094626 0)
(0.026178 -0.00981106 0)
(0.0282741 -0.0101554 0)
(0.0304435 -0.0104945 0)
(0.0326845 -0.0108297 0)
(0.0349961 -0.0111612 0)
(0.0373826 -0.011488 0)
(0.039843 -0.0118101 0)
(0.0423698 -0.0121269 0)
(0.0449611 -0.0124361 0)
(0.0476151 -0.0127341 0)
(0.0503227 -0.0130218 0)
(0.0530842 -0.0132947 0)
(0.0558984 -0.0135522 0)
(0.0587587 -0.0137933 0)
(0.0616651 -0.0140184 0)
(0.0646153 -0.0142251 0)
(0.067606 -0.0144133 0)
(0.070633 -0.0145841 0)
(0.07369 -0.014734 0)
(0.0767761 -0.0148637 0)
(0.0798886 -0.0149727 0)
(0.0830214 -0.0150603 0)
(0.0861699 -0.0151276 0)
(0.0893307 -0.0151729 0)
(0.0924996 -0.015195 0)
(0.0956719 -0.015194 0)
(0.0988424 -0.0151709 0)
(0.102007 -0.0151243 0)
(0.10516 -0.0150533 0)
(0.108298 -0.0149587 0)
(0.111414 -0.0148398 0)
(0.114504 -0.0146971 0)
(0.117564 -0.0145303 0)
(0.120587 -0.0143392 0)
(0.123567 -0.0141233 0)
(0.126499 -0.0138829 0)
(0.12938 -0.0136174 0)
(0.132203 -0.0133259 0)
(0.134962 -0.0130079 0)
(0.137654 -0.0126633 0)
(0.140275 -0.0122918 0)
(0.14282 -0.0118918 0)
(0.145284 -0.0114642 0)
(0.147661 -0.0110095 0)
(0.149949 -0.0105277 0)
(0.152145 -0.010019 0)
(0.154242 -0.00948338 0)
(0.156237 -0.00892158 0)
(0.158128 -0.00833515 0)
(0.159911 -0.00772519 0)
(0.161583 -0.00709158 0)
(0.163139 -0.00643821 0)
(0.164579 -0.00576659 0)
(0.1659 -0.00507864 0)
(0.167096 -0.00437859 0)
(0.168163 -0.00367126 0)
(0.169094 -0.00295908 0)
(0.16988 -0.00224558 0)
(0.170509 -0.00153438 0)
(0.170968 -0.000827497 0)
(0.171245 -0.000124073 0)
(0.171349 0.00058014 0)
(0.171283 0.00128588 0)
(0.171042 0.00199197 0)
(0.170623 0.00270143 0)
(0.170023 0.00341529 0)
(0.169245 0.00413474 0)
(0.168291 0.00485998 0)
(0.167158 0.0055912 0)
(0.165841 0.00632788 0)
(0.164341 0.00707281 0)
(0.162659 0.00782464 0)
(0.160793 0.00858286 0)
(0.158746 0.00934947 0)
(0.15652 0.0101245 0)
(0.154119 0.0109082 0)
(0.151547 0.011701 0)
(0.148805 0.0125024 0)
(0.145899 0.013311 0)
(0.14283 0.0141253 0)
(0.139601 0.014943 0)
(0.136212 0.015762 0)
(0.132666 0.0165798 0)
(0.128963 0.017394 0)
(0.125109 0.0182022 0)
(0.121104 0.0190036 0)
(0.116949 0.0197966 0)
(0.112651 0.0205796 0)
(0.108211 0.02135 0)
(0.103629 0.0221048 0)
(0.0989099 0.0228416 0)
(0.0940581 0.0235576 0)
(0.0890757 0.02425 0)
(0.0839672 0.0249161 0)
(0.0787378 0.0255533 0)
(0.0733916 0.0261581 0)
(0.0679349 0.0267271 0)
(0.0623708 0.0272582 0)
(0.0567075 0.0277477 0)
(0.0509603 0.028196 0)
(0.0450997 0.0286021 0)
(0.0392463 0.0289858 0)
(0.0331165 0.0293733 0)
(0.027281 0.0297464 0)
(0.0207593 0.0297572 0)
(0.0153487 0.0287502 0)
(0.00918076 0.0271818 0)
(0.00465346 0.0325244 0)
(-0.000563983 0.00507735 0)
(-0.00104183 -0.00173531 0)
(7.45324e-05 -0.000148977 0)
(-0.000671849 0.00131303 0)
(-0.000315814 0.00148967 0)
(-0.000911566 0.00131632 0)
(-0.00079796 0.00110882 0)
(-0.00107759 0.000956364 0)
(-0.00113557 0.000787211 0)
(-0.00124255 0.000601386 0)
(-0.00132389 0.000391787 0)
(-0.00137255 0.000161784 0)
(-0.00139099 -8.97697e-05 0)
(-0.00138084 -0.000358237 0)
(-0.0013344 -0.000644372 0)
(-0.00124822 -0.000948662 0)
(-0.00111805 -0.00126944 0)
(-0.000943731 -0.00160578 0)
(-0.000727302 -0.00195788 0)
(-0.000453251 -0.00232185 0)
(-0.000121893 -0.00270011 0)
(0.000265386 -0.00309226 0)
(0.000715323 -0.00349628 0)
(0.00122738 -0.00390877 0)
(0.00180687 -0.00433189 0)
(0.0024549 -0.00476508 0)
(0.00317669 -0.00520566 0)
(0.0039739 -0.00565438 0)
(0.00484517 -0.00610978 0)
(0.00579366 -0.00657258 0)
(0.0068235 -0.00704091 0)
(0.00793577 -0.00751392 0)
(0.00912943 -0.00799141 0)
(0.0104062 -0.00847385 0)
(0.0117671 -0.00895838 0)
(0.0132122 -0.00944356 0)
(0.0147434 -0.0099304 0)
(0.0163625 -0.0104177 0)
(0.0180663 -0.0109048 0)
(0.0198517 -0.0113887 0)
(0.0217217 -0.0118696 0)
(0.0236766 -0.0123472 0)
(0.0257132 -0.0128176 0)
(0.0278318 -0.0132792 0)
(0.0300307 -0.0137312 0)
(0.0323068 -0.0141729 0)
(0.0346608 -0.0146015 0)
(0.0370901 -0.015018 0)
(0.0395919 -0.0154234 0)
(0.0421613 -0.0158182 0)
(0.0447955 -0.0161991 0)
(0.0474919 -0.0165676 0)
(0.0502458 -0.0169219 0)
(0.0530544 -0.0172583 0)
(0.0559161 -0.0175772 0)
(0.0588278 -0.0178768 0)
(0.0617857 -0.0181544 0)
(0.0647876 -0.0184109 0)
(0.0678278 -0.0186447 0)
(0.0709055 -0.018856 0)
(0.0740154 -0.0190425 0)
(0.0771531 -0.0192032 0)
(0.0803164 -0.0193383 0)
(0.0834985 -0.0194474 0)
(0.086696 -0.0195289 0)
(0.0899055 -0.0195825 0)
(0.0931218 -0.0196075 0)
(0.0963397 -0.0196039 0)
(0.0995543 -0.0195707 0)
(0.102761 -0.0195075 0)
(0.105954 -0.0194141 0)
(0.10913 -0.0192905 0)
(0.112283 -0.0191347 0)
(0.115407 -0.0189478 0)
(0.118496 -0.01873 0)
(0.121548 -0.0184804 0)
(0.124555 -0.0181989 0)
(0.127511 -0.0178853 0)
(0.130412 -0.0175385 0)
(0.133252 -0.0171592 0)
(0.136027 -0.0167465 0)
(0.138731 -0.0162995 0)
(0.141361 -0.015819 0)
(0.143913 -0.0153046 0)
(0.146377 -0.0147572 0)
(0.148754 -0.0141768 0)
(0.15104 -0.0135616 0)
(0.153231 -0.0129149 0)
(0.155322 -0.0122378 0)
(0.157309 -0.0115304 0)
(0.159189 -0.0107922 0)
(0.16096 -0.0100264 0)
(0.162618 -0.00923547 0)
(0.164159 -0.00842053 0)
(0.16558 -0.00758363 0)
(0.166879 -0.00672866 0)
(0.168049 -0.00585911 0)
(0.169091 -0.00497821 0)
(0.169995 -0.00409 0)
(0.170752 -0.00319823 0)
(0.171359 -0.00230493 0)
(0.171811 -0.00140944 0)
(0.172108 -0.000508967 0)
(0.172236 0.000402801 0)
(0.172184 0.00132289 0)
(0.171959 0.002255 0)
(0.171559 0.00319708 0)
(0.17098 0.00415052 0)
(0.170221 0.00511636 0)
(0.169278 0.00609454 0)
(0.168149 0.00708204 0)
(0.166836 0.00807828 0)
(0.165337 0.00908439 0)
(0.163647 0.0100997 0)
(0.161768 0.0111236 0)
(0.159701 0.0121564 0)
(0.157445 0.0131979 0)
(0.155002 0.0142469 0)
(0.152375 0.0153036 0)
(0.149565 0.0163653 0)
(0.146576 0.0174297 0)
(0.143411 0.0184951 0)
(0.140073 0.0195581 0)
(0.136566 0.0206167 0)
(0.132895 0.0216677 0)
(0.129061 0.0227082 0)
(0.125071 0.0237366 0)
(0.120928 0.0247495 0)
(0.116634 0.0257466 0)
(0.112197 0.0267258 0)
(0.107623 0.0276839 0)
(0.102915 0.0286192 0)
(0.0980814 0.0295289 0)
(0.0931262 0.0304104 0)
(0.0880559 0.0312604 0)
(0.0828763 0.0320766 0)
(0.0775934 0.0328558 0)
(0.072213 0.0335951 0)
(0.0667429 0.0342916 0)
(0.0611864 0.034942 0)
(0.0555528 0.0355422 0)
(0.0498522 0.0360891 0)
(0.0440683 0.0365823 0)
(0.0383033 0.0370532 0)
(0.0323005 0.0375306 0)
(0.0265927 0.0379686 0)
(0.0202926 0.0378366 0)
(0.0150014 0.0364245 0)
(0.00903467 0.0345819 0)
(0.00442476 0.0418245 0)
(-0.000593133 0.0062364 0)
(-0.00108496 -0.00225399 0)
(-4.32206e-05 -0.000315215 0)
(-0.000813005 0.00151398 0)
(-0.000519038 0.00174172 0)
(-0.00114361 0.00155683 0)
(-0.00108821 0.00131005 0)
(-0.00139955 0.00113559 0)
(-0.00151236 0.000943937 0)
(-0.001661 0.000729726 0)
(-0.00178163 0.000488146 0)
(-0.00187305 0.000221901 0)
(-0.00193687 -6.84251e-05 0)
(-0.00196582 -0.000386139 0)
(-0.0019584 -0.000723332 0)
(-0.00190993 -0.00108266 0)
(-0.00181708 -0.00146273 0)
(-0.00167791 -0.00186452 0)
(-0.00148907 -0.00228729 0)
(-0.00124363 -0.00272374 0)
(-0.000940894 -0.00318326 0)
(-0.000578086 -0.00365546 0)
(-0.000149143 -0.00414707 0)
(0.000344355 -0.00465168 0)
(0.000906368 -0.00517115 0)
(0.00154298 -0.00570258 0)
(0.00225299 -0.00624362 0)
(0.00303854 -0.00679678 0)
(0.00390318 -0.0073596 0)
(0.00484855 -0.00792994 0)
(0.00587578 -0.0085071 0)
(0.00698637 -0.00909149 0)
(0.00818166 -0.00968162 0)
(0.00946352 -0.0102757 0)
(0.0108326 -0.0108716 0)
(0.0122867 -0.0114687 0)
(0.0138262 -0.0120671 0)
(0.0154529 -0.012665 0)
(0.0171677 -0.0132617 0)
(0.0189681 -0.013855 0)
(0.0208497 -0.0144438 0)
(0.0228163 -0.0150274 0)
(0.0248673 -0.0156034 0)
(0.0269972 -0.0161706 0)
(0.029207 -0.0167302 0)
(0.0314975 -0.01728 0)
(0.0338654 -0.0178175 0)
(0.036309 -0.0183426 0)
(0.0388266 -0.0188541 0)
(0.0414163 -0.0193514 0)
(0.0440738 -0.0198311 0)
(0.0467948 -0.0202932 0)
(0.0495778 -0.0207351 0)
(0.0524196 -0.0211557 0)
(0.0553161 -0.0215522 0)
(0.0582648 -0.021925 0)
(0.0612617 -0.0222708 0)
(0.0643028 -0.0225903 0)
(0.0673854 -0.022882 0)
(0.0705062 -0.0231433 0)
(0.0736603 -0.0233755 0)
(0.0768429 -0.0235752 0)
(0.0800505 -0.0237434 0)
(0.0832791 -0.0238794 0)
(0.0865239 -0.0239811 0)
(0.0897802 -0.0240484 0)
(0.0930429 -0.02408 0)
(0.0963079 -0.0240753 0)
(0.0995699 -0.0240351 0)
(0.102824 -0.0239583 0)
(0.106064 -0.0238439 0)
(0.109287 -0.0236916 0)
(0.112487 -0.0235008 0)
(0.115657 -0.0232714 0)
(0.118793 -0.0230033 0)
(0.121891 -0.0226958 0)
(0.124944 -0.0223491 0)
(0.127947 -0.0219631 0)
(0.130896 -0.0215364 0)
(0.133784 -0.0210698 0)
(0.136608 -0.0205638 0)
(0.139362 -0.0200176 0)
(0.142042 -0.0194308 0)
(0.144643 -0.0188054 0)
(0.147161 -0.0181408 0)
(0.149592 -0.0174363 0)
(0.151931 -0.0166935 0)
(0.154173 -0.0159139 0)
(0.156316 -0.0150978 0)
(0.158357 -0.014246 0)
(0.160293 -0.01336 0)
(0.162114 -0.0124409 0)
(0.163822 -0.0114915 0)
(0.165413 -0.0105126 0)
(0.166883 -0.00950652 0)
(0.168226 -0.00847537 0)
(0.16944 -0.00742135 0)
(0.17052 -0.00634759 0)
(0.17146 -0.00525779 0)
(0.172254 -0.00415237 0)
(0.172897 -0.00303146 0)
(0.173383 -0.00189677 0)
(0.173705 -0.000749469 0)
(0.17386 0.000407084 0)
(0.173847 0.00157745 0)
(0.17366 0.0027626 0)
(0.173293 0.00396045 0)
(0.172746 0.00517098 0)
(0.17202 0.00639368 0)
(0.171111 0.00762805 0)
(0.170013 0.00887328 0)
(0.168729 0.0101297 0)
(0.167257 0.0113944 0)
(0.165596 0.0126674 0)
(0.163743 0.0139499 0)
(0.161701 0.0152386 0)
(0.159469 0.0165325 0)
(0.157049 0.0178314 0)
(0.154441 0.0191338 0)
(0.151646 0.020438 0)
(0.148667 0.0217412 0)
(0.145508 0.0230413 0)
(0.142169 0.0243362 0)
(0.138654 0.0256226 0)
(0.134964 0.0268976 0)
(0.131104 0.0281587 0)
(0.127079 0.0294036 0)
(0.12289 0.030628 0)
(0.118544 0.0318299 0)
(0.114047 0.0330066 0)
(0.109403 0.0341545 0)
(0.104618 0.0352712 0)
(0.0996997 0.0363537 0)
(0.0946541 0.0373991 0)
(0.0894878 0.0384045 0)
(0.0842089 0.0393668 0)
(0.0788245 0.0402819 0)
(0.0733416 0.0411477 0)
(0.0677681 0.0419611 0)
(0.062109 0.0427186 0)
(0.056375 0.0434163 0)
(0.0505765 0.0440489 0)
(0.0446999 0.0446174 0)
(0.0388378 0.045157 0)
(0.0327605 0.0456989 0)
(0.0269612 0.0461854 0)
(0.0206012 0.0459371 0)
(0.015148 0.044165 0)
(0.00910303 0.0420401 0)
(0.0043691 0.051005 0)
(-0.000635556 0.00747978 0)
(-0.00114607 -0.00268053 0)
(-0.000160051 -0.000380251 0)
(-0.000956819 0.0018144 0)
(-0.00073988 0.0021119 0)
(-0.00139822 0.0018992 0)
(-0.00141207 0.00161904 0)
(-0.00176053 0.00141733 0)
(-0.00192627 0.00120079 0)
(-0.00211869 0.000955808 0)
(-0.00228679 0.00067952 0)
(-0.00242117 0.000370286 0)
(-0.00252945 3.17894e-05 0)
(-0.00260141 -0.000333604 0)
(-0.00262816 -0.000726019 0)
(-0.00261515 -0.001146 0)
(-0.00255556 -0.00159179 0)
(-0.00245008 -0.00206326 0)
(-0.00228937 -0.00255752 0)
(-0.0020715 -0.00307687 0)
(-0.00179315 -0.00361553 0)
(-0.00145188 -0.0041787 0)
(-0.0010463 -0.00476072 0)
(-0.000570759 -0.00536087 0)
(-2.41279e-05 -0.00598168 0)
(0.000599719 -0.00661605 0)
(0.00129835 -0.00726508 0)
(0.00207391 -0.00792795 0)
(0.00293108 -0.00860286 0)
(0.00387058 -0.00928847 0)
(0.00489275 -0.00998411 0)
(0.00599945 -0.010687 0)
(0.00719232 -0.0113969 0)
(0.008474 -0.0121125 0)
(0.00984351 -0.0128318 0)
(0.011298 -0.0135545 0)
(0.0128404 -0.0142777 0)
(0.0144729 -0.0150002 0)
(0.0161935 -0.0157203 0)
(0.0179997 -0.0164381 0)
(0.019892 -0.0171494 0)
(0.021872 -0.0178528 0)
(0.0239378 -0.0185486 0)
(0.0260845 -0.0192339 0)
(0.0283119 -0.0199056 0)
(0.0306219 -0.0205636 0)
(0.0330118 -0.0212061 0)
(0.0354775 -0.021832 0)
(0.038017 -0.0224401 0)
(0.0406287 -0.0230287 0)
(0.0433097 -0.0235972 0)
(0.0460564 -0.0241425 0)
(0.048866 -0.0246628 0)
(0.0517363 -0.0251585 0)
(0.0546636 -0.0256275 0)
(0.057645 -0.0260672 0)
(0.0606769 -0.026477 0)
(0.0637541 -0.0268547 0)
(0.0668756 -0.0271994 0)
(0.0700363 -0.0275091 0)
(0.0732322 -0.0277839 0)
(0.0764594 -0.0280219 0)
(0.0797117 -0.0282217 0)
(0.0829865 -0.0283824 0)
(0.0862795 -0.0285033 0)
(0.0895862 -0.0285833 0)
(0.092902 -0.0286215 0)
(0.096219 -0.0286163 0)
(0.0995328 -0.0285688 0)
(0.102841 -0.0284773 0)
(0.106138 -0.0283413 0)
(0.109418 -0.0281603 0)
(0.112676 -0.0279346 0)
(0.115905 -0.027663 0)
(0.119101 -0.0273447 0)
(0.122259 -0.0269798 0)
(0.125373 -0.0265688 0)
(0.128439 -0.0261108 0)
(0.131452 -0.0256057 0)
(0.134403 -0.0250541 0)
(0.137291 -0.0244555 0)
(0.14011 -0.0238102 0)
(0.142856 -0.0231183 0)
(0.145522 -0.0223809 0)
(0.148105 -0.021598 0)
(0.150601 -0.0207698 0)
(0.153004 -0.0198988 0)
(0.15531 -0.0189842 0)
(0.157516 -0.0180271 0)
(0.159617 -0.0170285 0)
(0.161609 -0.0159914 0)
(0.163487 -0.0149164 0)
(0.165248 -0.0138047 0)
(0.166889 -0.0126585 0)
(0.168404 -0.0114797 0)
(0.16979 -0.0102709 0)
(0.171041 -0.0090343 0)
(0.172154 -0.00777222 0)
(0.173125 -0.00648678 0)
(0.173947 -0.0051796 0)
(0.174616 -0.00385233 0)
(0.175127 -0.00250574 0)
(0.175475 -0.00113999 0)
(0.175657 0.000244454 0)
(0.175667 0.00164762 0)
(0.175502 0.00306742 0)
(0.175161 0.00450514 0)
(0.174641 0.00596061 0)
(0.173939 0.00743248 0)
(0.173053 0.0089184 0)
(0.171981 0.0104194 0)
(0.170723 0.0119347 0)
(0.169274 0.0134613 0)
(0.167638 0.0149999 0)
(0.165811 0.0165485 0)
(0.163791 0.0181043 0)
(0.161581 0.0196666 0)
(0.159182 0.0212336 0)
(0.156593 0.0228028 0)
(0.153815 0.0243712 0)
(0.15085 0.0259363 0)
(0.1477 0.0274947 0)
(0.144366 0.0290437 0)
(0.140852 0.0305799 0)
(0.13716 0.0321004 0)
(0.133295 0.0336012 0)
(0.129258 0.035079 0)
(0.125052 0.0365307 0)
(0.120683 0.037953 0)
(0.116155 0.0393422 0)
(0.111475 0.0406949 0)
(0.106647 0.0420077 0)
(0.101677 0.0432773 0)
(0.0965725 0.0444999 0)
(0.09134 0.0456725 0)
(0.0859853 0.0467915 0)
(0.0805163 0.0478538 0)
(0.0749418 0.048856 0)
(0.0692692 0.0497947 0)
(0.0635047 0.0506665 0)
(0.057659 0.0514672 0)
(0.0517421 0.0521903 0)
(0.045744 0.0528378 0)
(0.0397485 0.0534487 0)
(0.0335482 0.0540628 0)
(0.0275937 0.0546059 0)
(0.0210955 0.0542879 0)
(0.0154374 0.0521638 0)
(0.0092674 0.0496803 0)
(0.0044092 0.0602962 0)
(-0.000693986 0.00878635 0)
(-0.0012101 -0.00306932 0)
(-0.000271889 -0.000408777 0)
(-0.00107985 0.00216871 0)
(-0.000934173 0.00254693 0)
(-0.00162251 0.0023024 0)
(-0.00170255 0.00198321 0)
(-0.00208495 0.00175323 0)
(-0.00230603 0.00150801 0)
(-0.00254213 0.00123088 0)
(-0.00275366 0.00091352 0)
(-0.00293672 0.000562617 0)
(-0.0030843 0.000176309 0)
(-0.00319327 -0.000237622 0)
(-0.00326496 -0.000688017 0)
(-0.00329222 -0.00117114 0)
(-0.00327101 -0.00168531 0)
(-0.00319812 -0.00222946 0)
(-0.00307383 -0.00279938 0)
(-0.00288685 -0.00339877 0)
(-0.0026405 -0.00402347 0)
(-0.00233268 -0.00467465 0)
(-0.0019495 -0.00535193 0)
(-0.00150349 -0.00604943 0)
(-0.000981892 -0.00677053 0)
(-0.000377257 -0.00750944 0)
(0.000301011 -0.00826788 0)
(0.00105855 -0.00904326 0)
(0.00189945 -0.0098311 0)
(0.00282401 -0.010633 0)
(0.00383504 -0.0114458 0)
(0.00493317 -0.0122672 0)
(0.00611788 -0.0130976 0)
(0.00739321 -0.0139338 0)
(0.00875843 -0.0147752 0)
(0.0102125 -0.0156195 0)
(0.0117572 -0.0164633 0)
(0.0133922 -0.0173062 0)
(0.0151169 -0.0181465 0)
(0.0169321 -0.0189824 0)
(0.0188359 -0.0198115 0)
(0.0208257 -0.0206319 0)
(0.022903 -0.021443 0)
(0.0250668 -0.0222432 0)
(0.0273144 -0.0230276 0)
(0.0296447 -0.0237967 0)
(0.0320558 -0.0245484 0)
(0.0345449 -0.0252814 0)
(0.0371109 -0.025994 0)
(0.0397515 -0.0266839 0)
(0.0424641 -0.0273489 0)
(0.0452465 -0.0279874 0)
(0.0480927 -0.0285976 0)
(0.0509996 -0.029178 0)
(0.0539673 -0.0297261 0)
(0.0569918 -0.0302395 0)
(0.0600681 -0.0307189 0)
(0.063193 -0.0311613 0)
(0.0663633 -0.0315645 0)
(0.0695746 -0.0319282 0)
(0.0728219 -0.03225 0)
(0.0761025 -0.0325299 0)
(0.0794118 -0.0327648 0)
(0.0827444 -0.0329539 0)
(0.0860959 -0.0330971 0)
(0.0894624 -0.0331924 0)
(0.0928392 -0.0332396 0)
(0.0962194 -0.0332378 0)
(0.0995981 -0.0331852 0)
(0.102972 -0.0330813 0)
(0.106334 -0.0329258 0)
(0.109681 -0.0327179 0)
(0.113006 -0.0324581 0)
(0.116305 -0.0321453 0)
(0.119571 -0.0317784 0)
(0.122799 -0.0313576 0)
(0.125984 -0.0308829 0)
(0.129121 -0.030354 0)
(0.132203 -0.0297718 0)
(0.135226 -0.0291355 0)
(0.138186 -0.0284449 0)
(0.141076 -0.0277006 0)
(0.143891 -0.0269036 0)
(0.146628 -0.0260542 0)
(0.14928 -0.0251529 0)
(0.151843 -0.0241998 0)
(0.154312 -0.0231964 0)
(0.156683 -0.0221439 0)
(0.158952 -0.0210431 0)
(0.161114 -0.0198956 0)
(0.163165 -0.0187029 0)
(0.165099 -0.0174662 0)
(0.166914 -0.0161872 0)
(0.168606 -0.014868 0)
(0.170169 -0.0135105 0)
(0.171599 -0.0121168 0)
(0.172893 -0.010689 0)
(0.174045 -0.00922873 0)
(0.175051 -0.00773717 0)
(0.175906 -0.00621696 0)
(0.176606 -0.00467025 0)
(0.177146 -0.00309834 0)
(0.177522 -0.00150108 0)
(0.177729 0.000119442 0)
(0.177766 0.00176392 0)
(0.177629 0.00343016 0)
(0.177313 0.00511717 0)
(0.176816 0.00682429 0)
(0.176136 0.00855066 0)
(0.175271 0.0102947 0)