/*--------------------------------*- C++ -*----------------------------------*\
| =========                 |                                                 |
| \\      /  F ield         | OpenFOAM: The Open Source CFD Toolbox           |
|  \\    /   O peration     | Version:  v2006                                 |
|   \\  /    A nd           | Website:  www.openfoam.com                      |
|    \\/     M anipulation  |                                                 |
\*---------------------------------------------------------------------------*/
FoamFile
{
    version     2.0;
    format      ascii;
    class       volScalarField;
    location    "0";
    object      f;
}
// * * * * * * * * * * * * * * * * * * * * * * * * * * * * * * * * * * * * * //

dimensions      [0 0 0 0 0 0 0];


internalField   nonuniform List<scalar> 
2500
(
6.91982e-09
4.8942e-08
8.66245e-08
-9.7397e-08
-5.84794e-07
2.95884e-07
1.97391e-06
1.24896e-07
-5.98714e-06
-3.50401e-06
1.21763e-05
1.84984e-05
-1.6979e-05
-6.67489e-05
-1.61783e-05
9.10101e-05
-0.000323724
-0.00204904
-0.00518866
-0.00844494
-0.00932943
-0.00585625
0.00176846
0.00913972
0.00870678
-0.00706229
-0.0413028
-0.0885714
-0.135526
-0.16467
-0.16083
-0.117278
-0.040165
0.0533394
0.14095
0.203566
0.231003
0.223936
0.191317
0.145855
0.0995535
0.0607223
0.0328928
0.0156717
0.00648006
0.00229272
0.000693752
0.000189791
5.23889e-05
2.52836e-05
4.42035e-08
7.85098e-08
-1.02627e-07
-4.77489e-07
2.21683e-07
2.16088e-06
-1.13646e-07
-6.61656e-06
-2.82648e-06
1.51228e-05
1.66477e-05
-2.49126e-05
-7.25292e-05
-1.12624e-05
8.16737e-05
-0.000422128
-0.00214583
-0.00473662
-0.00677763
-0.00637349
-0.00316119
0.00140583
0.00297327
-0.00355159
-0.0213878
-0.0490383
-0.0798687
-0.105914
-0.120302
-0.120456
-0.108988
-0.0926805
-0.0791965
-0.0734013
-0.0755783
-0.0819156
-0.0871061
-0.0868989
-0.0796445
-0.0664243
-0.0500668
-0.0338405
-0.0203317
-0.0107334
-0.00489868
-0.00188406
-0.000586045
-0.000139881
-2.24653e-05
-4.39238e-06
1.10109e-07
-1.72107e-09
-4.34482e-07
-2.70691e-07
1.73586e-06
1.93822e-06
-5.23563e-06
-7.49156e-06
9.42354e-06
2.53815e-05
-9.61636e-06
-7.71842e-05
-6.87331e-05
4.36459e-05
-0.000373812
-0.00220043
-0.00553664
-0.0090928
-0.0105596
-0.00840802
-0.00318436
0.0016015
-0.0010402
-0.017361
-0.0497264
-0.0946195
-0.143587
-0.185284
-0.209402
-0.209661
-0.185869
-0.143678
-0.092469
-0.042482
-0.00151829
0.0261627
0.0402116
0.0430807
0.0385874
0.0305604
0.0219273
0.0144343
0.00873384
0.0048223
0.00240992
0.00107758
0.000421992
0.000140338
3.86359e-05
7.91805e-06
1.47203e-07
-3.10417e-07
-5.53708e-07
8.76137e-07
3.07485e-06
-1.66396e-06
-1.19001e-05
1.99032e-07
3.17946e-05
1.49189e-05
-7.73213e-05
-0.000135677
-3.68693e-05
-0.000323473
-0.00218886
-0.00628617
-0.01135
-0.0145263
-0.0129567
-0.00658995
0.000945374
0.000281167
-0.0177476
-0.0579771
-0.117244
-0.184466
-0.244384
-0.282691
-0.290973
-0.269098
-0.224823
-0.170448
-0.118404
-0.0772972
-0.0500728
-0.0351721
-0.0283258
-0.0251156
-0.0223704
-0.0187045
-0.0141751
-0.00957126
-0.00573413
-0.00302964
-0.00139056
-0.000547513
-0.000185709
-5.66095e-05
-1.58699e-05
-6.70668e-06
7.80062e-08
-8.07933e-07
9.36199e-08
3.10961e-06
2.07717e-06
-1.0871e-05
-1.23739e-05
2.60768e-05
4.06596e-05
-5.46199e-05
-0.000189093
-0.000156645
-0.000334633
-0.00207628
-0.00680405
-0.0135715
-0.0191132
-0.0190806
-0.0121324
-0.00170781
0.00125834
-0.016013
-0.0622313
-0.136216
-0.225795
-0.311703
-0.374266
-0.399751
-0.384494
-0.334942
-0.26472
-0.189503
-0.122224
-0.0701174
-0.0348253
-0.0138311
-0.0029649
0.00183783
0.00358143
0.00397899
0.00377268
0.00319268
0.00239578
0.00158368
0.000909899
0.000442259
0.000177567
5.5827e-05
1.32027e-05
8.55603e-07
-2.09988e-07
-1.00588e-06
2.38704e-06
4.0011e-06
-5.07251e-06
-1.9836e-05
6.20133e-06
6.11643e-05
-8.56405e-06
-0.00020914
-0.000317659
-0.0004274
-0.00194053
-0.0069458
-0.015523
-0.0241055
-0.0266792
-0.0199773
-0.00646402
0.00192888
-0.0122218
-0.063246
-0.153622
-0.270638
-0.390152
-0.484809
-0.533331
-0.527038
-0.471458
-0.383102
-0.283045
-0.190106
-0.116145
-0.0649596
-0.0341257
-0.0179765
-0.0105575
-0.00725113
-0.00536073
-0.00381028
-0.0024558
-0.00143611
-0.000775323
-0.000404182
-0.000217318
-0.000123814
-6.7502e-05
-3.24582e-05
-1.31254e-05
-5.04605e-06
-6.02616e-07
-1.32302e-07
5.82667e-06
5.82453e-08
-1.85133e-05
-1.73488e-05
5.17815e-05
5.2555e-05
-0.000182411
-0.000458188
-0.000629139
-0.00183477
-0.00678591
-0.0169112
-0.0289885
-0.0356087
-0.0305171
-0.0143679
0.00110208
-0.00688932
-0.0597843
-0.166006
-0.314051
-0.475057
-0.612466
-0.694539
-0.704997
-0.646515
-0.538047
-0.406807
-0.278997
-0.172884
-0.096143
-0.0475098
-0.0205282
-0.00749003
-0.00197234
0.000222211
0.00115824
0.00156062
0.00155873
0.00128597
0.000894296
0.000515345
0.000246875
9.63956e-05
2.95497e-05
7.15704e-06
1.42603e-06
1.10546e-06
-6.63518e-07
2.66914e-06
6.97622e-06
-1.36557e-05
-2.7907e-05
1.39367e-05
9.04128e-05
-8.8741e-05
-0.000534508
-0.000900942
-0.0018766
-0.00637817
-0.0175095
-0.0332117
-0.04543
-0.0439399
-0.0262988
-0.00268718
-0.00104505
-0.0511671
-0.170405
-0.351535
-0.562193
-0.755148
-0.885069
-0.92387
-0.868443
-0.739154
-0.570431
-0.398404
-0.250495
-0.140437
-0.0690396
-0.0289088
-0.00970864
-0.00220964
5.37181e-05
0.000546199
0.000629541
0.000564004
0.000401086
0.000209618
3.57318e-05
-5.9279e-05
-8.34508e-05
-6.45773e-05
-3.47252e-05
-1.45782e-05
-4.72625e-06
-4.76293e-07
3.13236e-07
6.48728e-06
4.35544e-07
-3.52472e-05
-1.65349e-05
7.27482e-05
3.17803e-05
-0.000488869
-0.00116457
-0.00209764
-0.0059297
-0.0171269
-0.0361579
-0.0550122
-0.0598716
-0.0430069
-0.0118903
0.00319317
-0.0376069
-0.164015
-0.377154
-0.643867
-0.906084
-1.10135
-1.18508
-1.14382
-0.996758
-0.785768
-0.559348
-0.357401
-0.20258
-0.0995189
-0.0403355
-0.0116428
-0.000567596
0.00234646
0.0024526
0.0020366
0.00158066
0.00112994
0.000717797
0.000370485
0.000139601
2.53997e-05
-1.12978e-05
-6.72444e-06
-8.22586e-07
2.02079e-06
1.9898e-06
1.78411e-06
2.80364e-06
7.2087e-06
-1.9323e-05
-5.06141e-05
3.37194e-05
7.63549e-05
-0.000294763
-0.00129962
-0.00246061
-0.00563338
-0.0160328
-0.0372233
-0.0629439
-0.077057
-0.0648987
-0.0283687
0.0032077
-0.0205327
-0.144968
-0.384591
-0.71019
-1.05438
-1.33527
-1.48589
-1.47627
-1.31989
-1.06484
-0.774014
-0.503855
-0.29002
-0.14393
-0.058238
-0.0161083
5.13851e-05
0.00384737
0.00336608
0.00224533
0.00136682
0.000739646
0.000316659
4.85282e-05
-9.09884e-05
-0.000124742
-9.90306e-05
-5.28829e-05
-2.18515e-05
-6.05876e-06
-1.07822e-07
7.31192e-07
4.65687e-07
5.61699e-06
-1.59643e-06
-4.97033e-05
-3.84803e-05
9.07231e-05
-0.000132308
-0.00111518
-0.00280998
-0.00564707
-0.014582
-0.036162
-0.0679162
-0.0936029
-0.0908299
-0.0530329
-0.00428922
-0.00336849
-0.113446
-0.368233
-0.749482
-1.18458
-1.57169
-1.81613
-1.8631
-1.71356
-1.41812
-1.05501
-0.701578
-0.411744
-0.207962
-0.0854697
-0.0240024
-7.28834e-05
0.00544902
0.00448188
0.00262203
0.00133867
0.000584203
0.000186129
-7.76406e-06
-0.000100605
-0.000112029
-8.01106e-05
-3.52289e-05
-7.51246e-06
4.35472e-06
6.23178e-06
3.61877e-06
1.61242e-06
3.57573e-07
4.79773e-06
-2.58057e-05
-7.69091e-05
1.14314e-05
1.80702e-05
-0.000840457
-0.00276271
-0.00588727
-0.0132905
-0.0332199
-0.0688489
-0.106577
-0.118434
-0.0857274
-0.0227467
0.00852807
-0.0726241
-0.325154
-0.750013
-1.27772
-1.78863
-2.1565
-2.29288
-2.17606
-1.85249
-1.41436
-0.963419
-0.578467
-0.298822
-0.125889
-0.0369079
-0.00139028
0.00705235
0.00565691
0.00283676
0.00104088
0.000144114
-0.00018795
-0.000248666
-0.000242242
-0.000189345
-0.000118921
-5.33165e-05
-1.36691e-05
3.3092e-06
6.66995e-06
3.70628e-06
1.35873e-06
2.14582e-07
-4.05148e-07
-5.32677e-06
-6.54966e-05
-8.21883e-05
1.80437e-05
-0.000454193
-0.00243299
-0.00586038
-0.012436
-0.0293949
-0.0653876
-0.113095
-0.143555
-0.124616
-0.0555858
0.00844683
-0.0292677
-0.256452
-0.702805
-1.31308
-1.95735
-2.47686
-2.74163
-2.69479
-2.36753
-1.86061
-1.30203
-0.802239
-0.425385
-0.184652
-0.0570726
-0.00444926
0.00885083
0.00724524
0.00321761
0.000767062
-0.000301615
-0.000539402
-0.000423617
-0.000298454
-0.000184729
-9.22382e-05
-2.63797e-05
7.923e-06
1.75892e-05
1.44783e-05
7.24075e-06
2.51303e-06
2.9621e-07
-2.9398e-07
-3.38031e-07
-3.13364e-05
-0.000112691
-7.6243e-05
-0.000211593
-0.00173796
-0.00545706
-0.0116877
-0.0256718
-0.0582723
-0.111572
-0.16125
-0.164682
-0.101083
-0.0088049
0.00727906
-0.169128
-0.604897
-1.27285
-2.04564
-2.73719
-3.17081
-3.24143
-2.94986
-2.39438
-1.72699
-1.09539
-0.59822
-0.268616
-0.0878047
-0.0102336
0.0108742
0.00951665
0.0039607
0.000605993
-0.000739587
-0.000893285
-0.000574473
-0.000322505
-0.000154403
-5.26475e-05
2.24257e-06
2.50426e-05
2.56183e-05
1.68122e-05
7.02253e-06
1.3352e-06
-7.63213e-07
-9.49963e-07
-5.32002e-07
-1.57423e-07
-7.81545e-05
-0.00015962
-0.000192552
-0.00104254
-0.00436774
-0.0107539
-0.0224341
-0.0494896
-0.101928
-0.166519
-0.198197
-0.154445
-0.0473864
0.0250737
-0.0773044
-0.462951
-1.14727
-2.02292
-2.89
-3.52633
-3.76849
-3.56784
-3.00283
-2.24049
-1.46806
-0.828401
-0.386071
-0.133602
-0.0204538
0.0128354
0.0126765
0.0052594
0.000641128
-0.00114502
-0.00123593
-0.000682802
-0.000291191
-7.5838e-05
1.88228e-05
4.76415e-05
4.88943e-05
3.56334e-05
1.93112e-05
6.64952e-06
8.79442e-08
-1.76257e-06
-1.41184e-06
-6.47346e-07
-1.86268e-07
8.46216e-08
-0.000152819
-0.000279005
-0.000639729
-0.00293819
-0.0089621
-0.0195899
-0.0408811
-0.0864984
-0.157147
-0.216754
-0.206376
-0.105715
0.0141083
0.00110187
-0.294113
-0.939842
-1.86895
-2.88882
-3.74428
-4.20866
-4.1665
-3.65219
-2.83051
-1.92346
-1.12569
-0.546423
-0.200542
-0.0377683
0.0141793
0.0168501
0.00727734
0.000901887
-0.00155655
-0.00162665
-0.000797209
-0.000240543
2.18607e-05
9.74168e-05
8.84493e-05
6.32626e-05
3.62184e-05
1.47587e-05
1.93648e-06
-3.38106e-06
-3.7811e-06
-2.19911e-06
-8.57401e-07
-1.44387e-07
7.40282e-08
1.21512e-07
-0.000287098
-0.000548969
-0.00174892
-0.00640113
-0.0161722
-0.0334219
-0.0690398
-0.135085
-0.213445
-0.243853
-0.172445
-0.0284776
0.0468182
-0.126278
-0.672132
-1.5829
-2.69995
-3.75871
-4.47821
-4.66406
-4.28149
-3.46348
-2.4518
-1.49434
-0.758226
-0.295478
-0.0657064
0.0138586
0.021988
0.0101966
0.00140669
-0.00203841
-0.00214419
-0.000976716
-0.000205281
0.000119226
0.000171058
0.00011719
6.4512e-05
2.68123e-05
4.57077e-06
-5.23535e-06
-7.32206e-06
-5.46344e-06
-2.54264e-06
-7.04191e-07
9.2021e-08
2.44727e-07
1.61155e-07
5.70405e-08
-0.000519306
-0.00113686
-0.00385184
-0.01174
-0.0263866
-0.0529742
-0.105908
-0.187418
-0.253737
-0.231058
-0.097839
0.0450984
0.00851226
-0.382106
-1.18966
-2.31566
-3.51899
-4.49035
-4.95963
-4.79909
-4.07605
-3.02176
-1.92715
-1.02605
-0.425333
-0.108971
0.0100113
0.0280125
0.0142376
0.0021674
-0.00264892
-0.00285603
-0.00128118
-0.000213043
0.000203749
0.000232687
0.000129844
5.06139e-05
7.33129e-06
-1.03214e-05
-1.37708e-05
-1.09183e-05
-6.30521e-06
-2.26597e-06
-1.68347e-07
5.03476e-07
4.543e-07
2.23846e-07
7.40171e-08
-1.9406e-08
-0.00088955
-0.00215256
-0.00702294
-0.018727
-0.0390599
-0.076673
-0.145445
-0.229664
-0.260976
-0.173055
-0.00321398
0.0828419
-0.119309
-0.74257
-1.76656
-3.01031
-4.17668
-4.94468
-5.08721
-4.57036
-3.57139
-2.39709
-1.34544
-0.594732
-0.172402
0.000135204
0.0343722
0.0195916
0.00330933
-0.00337146
-0.00378909
-0.00176272
-0.000279542
0.00027854
0.000290951
0.000133213
2.79407e-05
-1.66477e-05
-2.52469e-05
-2.0179e-05
-1.2026e-05
-5.147e-06
-8.2524e-07
9.27965e-07
1.11685e-06
6.86725e-07
2.69868e-07
4.7095e-08
-2.41506e-08
-4.11175e-08
-0.00134246
-0.00345317
-0.0107341
-0.0260466
-0.0516513
-0.0992043
-0.176876
-0.246543
-0.225814
-0.0820458
0.0824493
0.0666585
-0.314865
-1.12522
-2.27055
-3.51414
-4.53172
-5.01852
-4.8175
-4.00223
-2.84778
-1.69543
-0.801872
-0.260365
-0.0189732
0.0399548
0.0264125
0.00504144
-0.00419604
-0.00503286
-0.00247129
-0.000408312
0.000359836
0.000362056
0.000139359
5.49279e-06
-3.90543e-05
-3.60867e-05
-2.20618e-05
-9.62327e-06
-1.84818e-06
1.61119e-06
2.28898e-06
1.68113e-06
7.89744e-07
2.05856e-07
-3.76268e-08
-7.96963e-08
-5.2932e-08
-1.62525e-08
-0.00156193
-0.00433844
-0.0134072
-0.0306151
-0.0588061
-0.111776
-0.188016
-0.228999
-0.15477
0.0192064
0.144014
0.0174031
-0.49549
-1.39778
-2.55112
-3.69157
-4.48975
-4.67668
-4.18242
-3.1869
-2.02832
-1.03152
-0.37251
-0.0505255
0.0431264
0.0344156
0.00762037
-0.00502233
-0.00660155
-0.00347209
-0.000605295
0.000465641
0.000462781
0.000158293
-1.04727e-05
-5.57836e-05
-4.11268e-05
-1.91476e-05
-4.14372e-06
2.85168e-06
4.3507e-06
3.4029e-06
1.86816e-06
6.13149e-07
-1.60791e-08
-1.90857e-07
-1.49423e-07
-6.94533e-08
-1.985e-08
9.28662e-09
-0.000743519
-0.00323963
-0.0120454
-0.0272489
-0.0529325
-0.105289
-0.172494
-0.180872
-0.0674992
0.114956
0.199584
0.0111847
-0.53697
-1.4199
-2.48762
-3.46737
-4.03284
-3.96465
-3.2866
-2.26308
-1.24792
-0.500359
-0.0958522
0.0417553
0.0430018
0.0113731
-0.00578141
-0.00858432
-0.00483151
-0.000902655
0.000596756
0.000605673
0.000196223
-1.77591e-05
-6.72928e-05
-4.26612e-05
-1.37142e-05
2.43574e-06
7.38473e-06
6.27894e-06
3.63188e-06
1.37291e-06
5.29188e-08
-3.96164e-07
-3.8315e-07
-2.08497e-07
-6.96221e-08
-3.4646e-09
1.27702e-08
1.33928e-08
0.0025786
0.00238977
-0.00231674
-0.00953096
-0.0270389
-0.0759092
-0.135075
-0.119457
0.0214532
0.217891
0.308754
0.154579
-0.317146
-1.09344
-2.03323
-2.8515
-3.22853
-3.0027
-2.28487
-1.38515
-0.619015
-0.151099
0.0341172
0.0510215
0.0162454
-0.00647357
-0.0110359
-0.00664562
-0.00134614
0.000738343
0.000798671
0.000255959
-1.78284e-05
-7.73239e-05
-4.51169e-05
-9.05833e-06
7.80298e-06
1.02476e-05
6.61855e-06
2.65918e-06
1.9374e-07
-7.78864e-07
-8.14558e-07
-5.16816e-07
-2.05081e-07
-2.80886e-08
3.16687e-08
3.05059e-08
1.65942e-08
2.76189e-09
0.0104361
0.0156718
0.0203723
0.0274669
0.0200427
-0.0310492
-0.0927777
-0.0635397
0.115075
0.369795
0.557579
0.545312
0.231115
-0.410143
-1.23776
-1.94398
-2.2178
-1.96096
-1.34633
-0.679641
-0.201444
0.0206445
0.0569713
0.0219315
-0.00721904
-0.0139033
-0.00892042
-0.00200821
0.000847253
0.0010461
0.000342573
-1.34487e-05
-9.16176e-05
-5.25186e-05
-7.62651e-06
1.08927e-05
1.12264e-05
5.42095e-06
8.01989e-07
-1.29071e-06
-1.56713e-06
-1.059e-06
-4.7866e-07
-9.15278e-08
6.46299e-08
8.26334e-08
4.84032e-08
1.72573e-08
2.38937e-09
-4.7902e-09
0.0247929
0.0390625
0.0584009
0.0827957
0.0796256
0.0111656
-0.0661638
-0.0129771
0.24334
0.633103
1.01105
1.21098
1.07211
0.534817
-0.239656
-0.910094
-1.18375
-1.01744
-0.607469
-0.215032
0.00778226
0.0595694
0.0273169
-0.00787955
-0.0170743
-0.0116276
-0.0030334
0.000908186
0.00134403
0.000465533
-2.7922e-06
-0.000113027
-6.65827e-05
-9.50192e-06
1.25733e-05
1.12522e-05
3.6328e-06
-1.16937e-06
-2.50231e-06
-1.93347e-06
-9.34204e-07
-2.0629e-07
1.30364e-07
1.86164e-07
1.26504e-07
5.27709e-08
9.27888e-09
-5.79314e-09
-6.35976e-09
-3.51876e-09
0.0462014
0.0721996
0.108516
0.146279
0.132475
0.0287606
-0.063931
0.0468569
0.442259
1.03801
1.65601
2.0719
2.06331
1.56146
0.769184
0.0563391
-0.307466
-0.31128
-0.138776
0.0135655
0.0600629
0.0308501
-0.00847552
-0.0207168
-0.0148291
-0.00454954
0.000890544
0.00171031
0.000640586
1.48365e-05
-0.000144624
-8.8405e-05
-1.32457e-05
1.44346e-05
1.17429e-05
2.32502e-06
-2.55187e-06
-3.00432e-06
-1.6899e-06
-4.26024e-07
2.27178e-07
3.77038e-07
2.75932e-07
1.28888e-07
2.85907e-08
-1.24334e-08
-1.76921e-08
-1.03143e-08
-3.9181e-09
5.81211e-10
0.0719377
0.109498
0.159378
0.199192
0.156796
0.00984737
-0.0731514
0.140108
0.719778
1.53932
2.37405
2.9441
2.9896
2.45549
1.59041
0.781931
0.28188
0.0948141
0.0709519
0.0667378
0.031331
-0.00968877
-0.0248552
-0.0186478
-0.00655217
0.000797315
0.00216334
0.000865582
3.5385e-05
-0.000186639
-0.000116733
-1.69995e-05
1.82938e-05
1.38391e-05
2.03095e-06
-3.10316e-06
-2.82605e-06
-1.01581e-06
2.44449e-07
6.26247e-07
5.15713e-07
2.61669e-07
6.61344e-08
-2.63141e-08
-4.29807e-08
-2.83484e-08
-1.13842e-08
-1.80737e-09
1.16375e-09
1.79595e-09
0.0944973
0.139058
0.193081
0.220995
0.140194
-0.0371501
-0.0798092
0.261391
1.0105
1.99211
2.95531
3.59366
3.62905
3.0272
2.07123
1.15975
0.540018
0.226487
0.0965674
0.0304572
-0.0128719
-0.0297266
-0.0229572
-0.00898518
0.000537266
0.0026175
0.00114099
6.26893e-05
-0.000239223
-0.000149411
-1.89649e-05
2.48522e-05
1.75228e-05
2.48373e-06
-3.28151e-06
-2.43479e-06
-3.25254e-07
7.56145e-07
7.99256e-07
4.58771e-07
1.26539e-07
-4.86115e-08
-9.10222e-08
-6.6776e-08
-2.95096e-08
-5.82772e-09
3.08575e-09
3.66457e-09
2.13772e-09
4.50753e-10
0.101941
0.145036
0.192046
0.201489
0.090352
-0.0932267
-0.0843943
0.346626
1.16742
2.18709
3.17336
3.81642
3.82096
3.16054
2.14338
1.17936
0.518317
0.1777
0.0354284
-0.0194034
-0.0356837
-0.0275148
-0.0116401
1.29692e-05
0.00297318
0.0014877
0.000101546
-0.000299512
-0.000186615
-2.01548e-05
3.37897e-05
2.22113e-05
3.01877e-06
-3.70765e-06
-2.32251e-06
4.9989e-08
9.48631e-07
6.98095e-07
2.39031e-07
-7.2794e-08
-1.61894e-07
-1.30039e-07
-6.44528e-08
-1.48296e-08
6.75436e-09
9.79872e-09
5.82875e-09
2.10916e-09
2.89094e-10
-5.81202e-10
0.0815932
0.114417
0.149508
0.150125
0.031917
-0.151185
-0.136287
0.270724
1.01035
1.93601
2.87419
3.50944
3.50985
2.84646
1.84596
0.928226
0.33572
0.0610599
-0.0279059
-0.0434181
-0.0324843
-0.0143691
-0.000807964
0.00319096
0.00189405
0.000146251
-0.000369759
-0.000229604
-1.97945e-05
4.5301e-05
2.7727e-05
3.15095e-06
-4.81586e-06
-2.68979e-06
8.09642e-08
8.9648e-07
4.64145e-07
-1.38294e-08
-2.33137e-07
-2.13638e-07
-1.15617e-07
-2.94702e-08
1.37947e-08
2.21164e-08
1.49707e-08
5.964e-09
8.909e-10
-7.63275e-10
-7.588e-10
-3.84524e-10
0.0270636
0.0461006
0.0775088
0.0941001
-0.0134657
-0.232635
-0.321261
-0.0949898
0.418653
1.1686
2.04567
2.70474
2.76336
2.18676
1.31293
0.556278
0.124237
-0.0319866
-0.0537143
-0.0377966
-0.0168571
-0.00178626
0.00336793
0.00232201
0.000188423
-0.000446077
-0.00027634
-1.57419e-05
5.90516e-05
3.3509e-05
2.43155e-06
-6.62259e-06
-3.41804e-06
-1.96583e-09
8.38268e-07
2.87883e-07
-1.71436e-07
-2.86682e-07
-1.784e-07
-5.01257e-08
2.56539e-08
4.35025e-08
3.19078e-08
1.41402e-08
2.41699e-09
-1.91674e-09
-2.15126e-09
-1.13854e-09
-3.92633e-10
9.6471e-11
-0.0542884
-0.0430814
0.00655058
0.0626836
-0.0499899
-0.388208
-0.711906
-0.790328
-0.573639
-0.0111661
0.831155
1.56275
1.75699
1.36943
0.728739
0.216143
-0.0218365
-0.0650432
-0.0434331
-0.0187391
-0.00251636
0.00343953
0.00268159
0.000202318
-0.00051786
-0.000316878
-9.54497e-06
7.26788e-05
3.84263e-05
1.03139e-06
-8.82359e-06
-4.15575e-06
7.71394e-08
9.52462e-07
2.6406e-07
-1.968e-07
-2.40514e-07
-8.88201e-08
3.12677e-08
7.10739e-08
5.63137e-08
2.69455e-08
4.72234e-09
-4.67612e-09
-5.52478e-09
-3.15932e-09
-1.07128e-09
-5.8232e-11
1.9101e-10
1.99046e-10
-0.138638
-0.121522
-0.0325493
0.0645746
-0.0992822
-0.644644
-1.28026
-1.68693
-1.74786
-1.34437
-0.51254
0.330918
0.730139
0.60975
0.259945
0.00175669
-0.071635
-0.0491658
-0.019698
-0.00241698
0.00340874
0.00281919
0.000205671
-0.000558561
-0.000339067
-6.57311e-06
8.44749e-05
4.3144e-05
-7.8364e-08
-1.09305e-05
-4.70061e-06
3.6443e-07
1.24136e-06
3.45384e-07
-1.63958e-07
-1.7002e-07
-8.68078e-09
8.30989e-08
8.14361e-08
4.22102e-08
6.8358e-09
-9.90639e-09
-1.18589e-08
-7.34966e-09
-2.5981e-09
-9.2244e-11
6.12401e-10
4.65549e-10
2.24048e-10
1.28223e-11
-0.19294
-0.158158
-0.0275325
0.0824054
-0.175199
-0.944023
-1.84624
-2.49127
-2.7599
-2.49918
-1.68539
-0.717644
-0.0835831
0.0763613
-0.00673722
-0.0704408
-0.0528457
-0.0188123
-0.000905996
0.00370783
0.0026973
0.000205929
-0.000599221
-0.000375028
-1.56057e-05
9.56653e-05
5.07038e-05
-4.75739e-07
-1.32684e-05
-5.39416e-06
7.2561e-07
1.63438e-06
4.5209e-07
-1.63456e-07
-1.50543e-07
1.83974e-08
8.8149e-08
5.81624e-08
1.067e-08
-1.69945e-08
-2.1001e-08
-1.3625e-08
-5.08972e-09
5.2483e-11
1.60911e-09
1.30283e-09
5.89336e-10
1.37625e-10
-2.86887e-11
-8.1874e-11
-0.191385
-0.141057
0.00416021
0.0951481
-0.229587
-1.11058
-2.11186
-2.84945
-3.27
-3.17672
-2.42435
-1.36141
-0.535102
-0.168044
-0.081709
-0.0501272
-0.0146199
0.00240384
0.0049497
0.00246728
7.22269e-05
-0.000697909
-0.000432264
-1.92276e-05
0.00011795
6.3854e-05
-1.39395e-06
-1.67937e-05
-6.45084e-06
1.26135e-06
2.16886e-06
5.41688e-07
-2.5225e-07
-2.01118e-07
2.78159e-09
6.90491e-08
2.57279e-08
-1.61528e-08
-2.96646e-08
-2.08979e-08
-7.8729e-09
7.08071e-10
3.6004e-09
2.98232e-09
1.41761e-09
3.1607e-10
-1.21447e-10
-1.6425e-10
-9.80815e-11
-2.08172e-11
-0.132717
-0.0888211
0.0291531
0.118579
-0.140727
-0.909622
-1.79909
-2.51145
-3.07025
-3.19525
-2.57476
-1.50616
-0.612852
-0.17677
-0.0449149
-0.00479531
0.00889034
0.00765188
0.00238109
-0.0003157
-0.000885274
-0.000489432
-6.66108e-07
0.000148779
7.53033e-05
-6.7933e-06
-2.23376e-05
-7.28e-06
2.3322e-06
2.87879e-06
5.47786e-07
-4.54711e-07
-2.9485e-07
-1.23221e-08
6.29998e-08
1.06274e-08
-2.47232e-08
-2.61869e-08
-1.07632e-08
1.88875e-09
6.54277e-09
5.60035e-09
2.8058e-09
5.86353e-10
-3.58687e-10
-4.64975e-10
-2.58011e-10
-8.38586e-11
-4.74318e-12
2.95788e-11
-0.0453997
-0.0395346
0.0287918
0.208329
0.225261
-0.190483
-0.823126
-1.46091
-2.15617
-2.54079
-2.14782
-1.22352
-0.434428
-0.073008
0.0127024
0.0202129
0.0124033
0.00294223
-0.000875871
-0.00113195
-0.000517366
4.14783e-05
0.000177955
7.84373e-05
-1.51885e-05
-2.68647e-05
-6.53894e-06
4.08478e-06
3.55178e-06
3.27214e-07
-7.55034e-07
-3.71489e-07
1.70146e-08
8.9704e-08
1.62275e-08
-1.99944e-08
-1.5101e-08
8.95658e-10
9.33926e-09
8.5191e-09
4.39091e-09
7.93971e-10
-8.87387e-10
-1.06313e-09
-6.29133e-10
-2.01961e-10
3.11505e-12
5.14124e-11
3.7246e-11
1.21156e-11
0.0275459
-0.0225808
0.0244706
0.424599
0.89407
0.959578
0.604406
0.0568761
-0.727192
-1.38616
-1.3337
-0.721435
-0.177942
0.0251636
0.0382454
0.0197221
0.00465768
-0.00145211
-0.00148974
-0.000558591
7.95797e-05
0.000193554
7.14542e-05
-2.28621e-05
-2.86095e-05
-4.83534e-06
5.53964e-06
3.72872e-06
-1.30279e-07
-1.05586e-06
-3.71032e-07
9.5375e-08
1.32387e-07
2.30478e-08
-1.84956e-08
-7.81211e-09
6.58969e-09
1.0293e-08
5.65124e-09
7.39285e-10
-1.79663e-09
-2.0294e-09
-1.2321e-09
-3.97655e-10
4.34508e-11
1.47239e-10
1.00553e-10
3.97964e-11
7.13109e-12
-9.16748e-12
0.056495
-0.0367595
0.0492988
0.734554
1.66321
2.15483
2.01189
1.60717
0.85691
-0.0616023
-0.441969
-0.242101
0.00817985
0.0601581
0.0302775
0.00748867
-0.00160876
-0.00195908
-0.000601307
0.000125975
0.000211587
6.72738e-05
-2.58461e-05
-2.80722e-05
-3.72372e-06
6.43115e-06
3.69255e-06
-4.82074e-07
-1.20597e-06
-2.97541e-07
1.83226e-07
1.59259e-07
1.5347e-08
-2.61784e-08
-7.29919e-09
6.25591e-09
6.78701e-09
9.52839e-10
-2.61801e-09
-3.0733e-09
-1.90251e-09
-5.84851e-10
1.73319e-10
3.49897e-10
2.4712e-10
9.58283e-11
1.17403e-11
-1.44777e-11
-1.28476e-11
-5.69629e-12
0.0434403
-0.0531158
0.096622
0.931299
2.073
2.78541
2.79895
2.65989
2.13004
1.03688
0.225482
0.0467506
0.0722569
0.0428271
0.011246
-0.00129441
-0.00230269
-0.00054248
0.000202796
0.000228771
5.86018e-05
-3.27258e-05
-3.10613e-05
-4.39737e-06
7.27961e-06
4.01734e-06
-6.85309e-07
-1.35064e-06
-2.62e-07
2.30964e-07
1.64096e-07
-1.40865e-09
-3.71918e-08
-9.28388e-09
4.1043e-09
3.11774e-09
-2.0092e-09
-3.66892e-09
-2.35396e-09
-6.30401e-10
4.41286e-10
6.83003e-10
4.73674e-10
1.89855e-10
1.17715e-11
-4.29437e-11
-3.57813e-11
-1.59817e-11
-4.05049e-12
2.61171e-12
0.0155277
-0.0455206
0.0701412
0.585453
1.40552
2.07362
2.25544
2.56377
2.58398
1.57931
0.508008
0.118881
0.0495519
0.013757
-0.000997334
-0.00226823
-0.000351867
0.000287895
0.000226828
3.66611e-05
-4.75434e-05
-3.45721e-05
-2.77106e-06
9.84358e-06
4.99039e-06
-1.06811e-06
-1.65948e-06
-2.6259e-07
2.90844e-07
1.80731e-07
-1.18264e-08
-4.72429e-08
-1.04214e-08
3.86286e-09
1.97022e-09
-2.02725e-09
-2.45762e-09
-5.84744e-10
7.31839e-10
1.06449e-09
7.29229e-10
2.82873e-10
-1.28518e-11
-1.08258e-10
-8.79737e-11
-3.83239e-11
-7.47295e-12
3.64049e-12
4.1391e-12
2.2386e-12
-0.00150665
-0.017328
-0.252245
-0.263989
0.115144
0.524888
0.908421
1.24756
1.74358
1.40973
0.442308
0.0629579
0.00901269
-0.00216054
-0.00186191
1.80225e-05
0.000424883
0.000228913
9.21649e-06
-6.34731e-05
-3.33647e-05
2.45238e-06
1.2347e-05
4.81595e-06
-2.13869e-06
-2.14178e-06
-1.60713e-07
4.16745e-07
2.00823e-07
-2.93497e-08
-6.41008e-08
-1.10687e-08
7.44948e-09
3.08667e-09
-6.75978e-10
-1.06336e-09
5.53217e-10
1.17345e-09
8.73233e-10
2.95427e-10
-9.6555e-11
-2.17688e-10
-1.69345e-10
-7.59784e-11
-1.04409e-11
1.21644e-11
1.1977e-11
5.72623e-12
1.68371e-12
-7.27382e-13
-0.00261412
0.00395304
-0.517894
-1.13479
-1.05299
-0.580826
-0.0717368
0.0068013
0.34074
0.601483
0.212532
-0.00681386
-0.00948931
-0.00257378
0.000750937
0.000779783
0.000295551
-2.09649e-05
-8.63629e-05
-3.2481e-05
7.44104e-06
1.25974e-05
3.13716e-06
-3.01209e-06
-2.13322e-06
1.81703e-07
5.76301e-07
1.73913e-07
-7.50265e-08
-7.99354e-08
-5.45992e-09
1.59387e-08
5.0285e-09
-3.96568e-10
-8.72369e-10
5.03422e-10
7.96037e-10
2.73496e-10
-1.82143e-10
-3.39044e-10
-2.52179e-10
-1.09028e-10
-4.81359e-12
3.34226e-11
2.95278e-11
1.36857e-11
3.08767e-12
-9.63973e-13
-1.30759e-12
-7.76972e-13
0.00131994
0.00566143
-0.468443
-1.53435
-1.8565
-1.28436
-0.829258
-0.790284
-0.668929
-0.179029
0.0174441
-0.0308673
-0.00692265
0.00165137
0.00136864
0.000424337
-6.18558e-05
-0.000117921
-3.04439e-05
1.25198e-05
1.24852e-05
1.64707e-06
-3.064e-06
-1.62067e-06
4.05339e-07
5.49998e-07
6.55717e-08
-1.29077e-07
-7.58672e-08
9.43056e-09
2.33287e-08
4.0593e-09
-2.97782e-09
-1.678e-09
2.36989e-11
4.19074e-10
-9.49025e-11
-3.41128e-10
-2.91532e-10
-1.12737e-10
1.95286e-11
6.72782e-11
5.5772e-11
2.62926e-11
4.22598e-12
-3.68463e-12
-3.90991e-12
-1.90806e-12
-5.83827e-13
2.1834e-13
0.00234033
0.000483392
-0.184512
-1.17055
-2.02674
-1.89184
-1.63509
-1.59378
-1.30154
-0.533266
-0.0556641
-0.0191563
0.000827578
0.00203194
0.000642603
-7.78982e-05
-0.000135313
-2.57598e-05
1.76394e-05
1.17238e-05
2.40921e-07
-3.12284e-06
-1.30342e-06
3.74642e-07
3.9542e-07
-1.1309e-09
-1.19044e-07
-4.45111e-08
2.62458e-08
2.39062e-08
-8.63602e-10
-6.3966e-09
-1.88021e-09
3.12906e-10
4.99223e-10
-6.7398e-11
-2.372e-10
-9.59921e-11
4.78313e-11
1.04322e-10
8.09719e-11
3.63442e-11
2.52754e-12
-1.04244e-11
-9.44884e-12
-4.44782e-12
-1.02029e-12
3.02777e-13
4.20913e-13
2.5921e-13
0.00169748
-0.00121525
0.0236045
-0.358673
-1.36695
-2.01026
-2.03447
-1.74594
-1.27453
-0.575741
-0.0419267
-0.00366149
0.00219447
0.000791231
-4.03936e-05
-0.000127539
-1.66013e-05
1.97422e-05
1.01304e-05
-2.06045e-06
-3.43842e-06
-1.11608e-06
4.40192e-07
3.93648e-07
2.08212e-08
-9.34841e-08
-3.18986e-08
2.22769e-08
1.61818e-08
-5.67999e-09
-7.19542e-09
-8.41568e-10
1.0988e-09
5.90414e-10
-5.81904e-12
-1.34515e-10
2.98025e-11
1.03967e-10
8.77711e-11
3.34211e-11
-6.78157e-12
-2.11808e-11
-1.74773e-11
-8.159e-12
-1.28038e-12
1.18947e-12
1.24533e-12
6.0931e-13
1.89758e-13
-6.99937e-14
0.00121362
0.000321564
-0.0018445
0.044776
-0.346892
-1.08904
-1.40249
-1.19161
-0.705974
-0.228273
-0.0077458
0.00121262
0.000178398
-9.85599e-05
-9.71126e-05
1.34753e-06
2.00012e-05
7.54185e-06
-4.24433e-06
-3.45657e-06
-4.67546e-07
6.94912e-07
4.08771e-07
-4.72857e-08
-1.31149e-07
-4.08878e-08
1.99203e-08
1.47145e-08
-4.02343e-09
-5.54454e-09
2.41049e-10
1.41208e-09
3.89446e-10
-6.48476e-11
-8.55618e-11
5.35e-11
7.24814e-11
2.02407e-11
-1.97358e-11
-3.21331e-11
-2.33974e-11
-9.98241e-12
-1.48573e-13
3.33013e-12
2.88937e-12
1.32099e-12
2.91342e-13
-1.00445e-13
-1.31983e-13
-8.24926e-14
0.000925162
0.000221085
-0.00140749
-0.00291609
0.0335171
-0.130078
-0.321611
-0.328772
-0.143192
0.0334886
0.00271501
-0.00161321
-0.000521688
-6.36092e-05
3.89409e-05
2.84775e-05
5.4005e-06
-5.40074e-06
-3.22903e-06
2.13889e-07
7.54073e-07
2.02525e-07
-1.76614e-07
-1.59072e-07
-8.62963e-09
3.98516e-08
1.89578e-08
-3.61931e-09
-6.54815e-09
-8.46674e-10
9.20196e-10
1.86821e-10
-2.78827e-11
-1.17863e-11
4.07588e-11
1.92431e-11
-2.47565e-11
-3.42418e-11
-2.22374e-11
-6.67096e-12
3.20366e-12
6.14994e-12
4.61576e-12
2.01381e-12
2.26315e-13
-3.78746e-13
-3.51092e-13
-1.69798e-13
-5.17297e-14
2.14187e-14
0.00025757
-4.5349e-05
-9.05108e-06
0.00408948
-0.0140438
0.00854069
0.0723269
0.114298
0.0853761
0.0120965
-0.00442719
-0.00207965
-0.000291937
5.47234e-05
4.35025e-05
3.58696e-06
-6.63684e-06
-2.96364e-06
4.51537e-07
6.17774e-07
-1.70251e-08
-1.85089e-07
-8.55067e-08
3.95982e-08
4.84961e-08
6.56448e-09
-1.13506e-08
-8.44163e-09
-1.17953e-09
1.29127e-09
5.69228e-10
1.50776e-10
4.56949e-11
-2.56122e-12
-1.84282e-11
-2.91314e-11
-1.7538e-11
-1.50282e-12
6.27457e-12
7.3594e-12
4.75248e-12
1.7258e-12
-2.28777e-13
-8.07579e-13
-6.38972e-13
-2.69486e-13
-4.94741e-14
2.93556e-14
3.24251e-14
1.87032e-14
-0.000197664
0.000569969
-0.00300337
0.00787701
-0.00799177
-0.0157677
0.0214406
0.0635005
0.0550667
0.00303411
-0.00349912
-0.00103116
3.87883e-05
6.33805e-05
1.09105e-05
-5.22414e-06
-2.07974e-06
4.29556e-07
4.26025e-07
-6.32699e-08
-1.14889e-07
-1.84641e-08
3.21088e-08
2.14714e-08
-8.19908e-09
-1.28649e-08
-4.71163e-09
8.85016e-10
1.85291e-09
7.24069e-10
6.45279e-11
-3.55895e-11
-5.85478e-11
-2.95675e-11
-1.39143e-11
-3.13902e-13
6.05495e-12
5.82964e-12
3.04564e-12
6.00435e-13
-6.80201e-13
-9.23782e-13
-6.24347e-13
-2.33846e-13
3.00389e-15
7.11847e-14
5.39873e-14
2.44083e-14
6.35307e-15
-4.10926e-15
)
;

boundaryField
{
    movingWall
    {
        type            zeroGradient;
    }
    fixedWalls
    {
        type            zeroGradient;
    }
    frontAndBack
    {
        type            empty;
    }
}

