/*--------------------------------*- C++ -*----------------------------------*\
| =========                 |                                                 |
| \\      /  F ield         | OpenFOAM: The Open Source CFD Toolbox           |
|  \\    /   O peration     | Version:  v2006                                 |
|   \\  /    A nd           | Website:  www.openfoam.com                      |
|    \\/     M anipulation  |                                                 |
\*---------------------------------------------------------------------------*/
FoamFile
{
    version     2.0;
    format      ascii;
    class       volScalarField;
    location    "0";
    object      shifted_f;
}
// * * * * * * * * * * * * * * * * * * * * * * * * * * * * * * * * * * * * * //

dimensions      [0 0 0 0 0 0 0];


internalField   nonuniform List<scalar> 
2500
(
0.000346728
0.000346735
0.00034672
0.000346672
0.000346631
0.000346627
0.000346549
0.000346579
0.00034653
0.000346508
0.000346489
0.00034643
0.000293221
0.000293195
0.000293188
0.000293229
0.000293173
0.000293192
0.000293121
0.000293177
0.000293132
0.000293177
0.000293098
0.000293098
0.000293069
0.000293095
0.000293024
0.000292987
0.000293065
0.000293076
0.000293043
0.000292998
0.000293009
0.000293009
0.000292964
0.000292953
0.000292998
0.000293024
0.000292908
0.00029292
0.000292927
0.000292875
0.000292879
0.00029289
0.000292879
0.00029289
0.00029286
0.000292875
0.000292823
0.00029289
0.000292834
0.000292819
0.000292804
0.000292804
0.000292793
0.000292763
0.00029273
0.000292767
0.000292759
0.0002927
0.000292659
0.000292733
0.000292763
0.000292741
0.000292707
0.000292718
0.000292685
0.000292655
0.000292655
0.000292696
0.000292659
0.000292622
0.000292715
0.000292677
0.000292644
0.000292651
0.000292614
0.000292554
0.000292595
0.000292569
0.000292566
0.000292562
0.000292599
0.000292599
0.000292536
0.000292551
0.000292528
0.000292577
0.000292521
0.000292592
0.000292558
0.000292502
0.000292525
0.000292476
0.000292502
0.000292506
0.00029248
0.000292454
0.000292502
0.00029251
0.000292484
0.000292424
0.000292473
0.000292409
0.000292365
0.000292409
0.00029242
0.00029242
0.000292402
0.000292376
0.000292368
0.00029235
0.000292376
0.000251915
0.00025183
0.000251882
0.000251841
0.000251852
0.000251785
0.000251759
0.000251759
0.000251714
0.000251736
0.000251655
0.000251636
0.000251617
0.000251621
0.00025161
0.000251625
0.000251513
0.00025155
0.000251506
0.000251509
0.000251446
0.000251509
0.00025145
0.000251405
0.000251479
0.000251371
0.000251345
0.000251409
0.000251371
0.000251371
0.000251327
0.000251379
0.000251342
0.000251297
0.00025126
0.000251282
0.000251237
0.000251193
0.000251181
0.000251137
0.000251215
0.00025117
0.000251155
0.000251103
0.000251114
0.000251088
0.000251066
0.00025104
0.000251029
0.00025104
0.00025095
0.000250988
0.000251029
0.000251029
0.000250988
0.00025098
0.000250954
0.000250943
0.000250958
0.000250965
0.000250921
0.000250932
0.000250906
0.000250854
0.000250906
0.000250839
0.000250921
0.00025079
0.00025082
0.00025082
0.000250716
0.000250749
0.000250723
0.000250775
0.000250731
0.000250746
0.000250772
0.000250719
0.000250723
0.000250727
0.000250727
0.00025069
0.00025063
0.000250675
0.000250664
0.000250682
0.000250619
0.000250589
0.000250671
0.000250589
0.000250623
0.000250559
0.00025063
0.000250511
0.000250518
0.000250507
0.000250496
0.000250518
0.000250492
0.0002505
0.0002505
0.000183802
0.000183772
0.000183657
0.000183683
0.000183694
0.000183593
0.000183608
0.000183631
0.000183601
0.000183571
0.000183526
0.000183556
0.000183485
0.000183437
0.000183452
0.000183471
0.000183426
0.000183344
0.000183359
0.000183355
0.000183329
0.000183266
0.000183322
0.000183303
0.000183288
0.000183277
0.000183292
0.000183184
0.00018321
0.000183184
0.000183165
0.000183139
0.00018312
0.000183109
0.000183042
0.000183113
0.000183094
0.000183132
0.000183057
0.000183012
0.000183064
0.00018302
0.000183064
0.000183046
0.000183038
0.000183046
0.000183035
0.000182953
0.00018299
0.000182968
0.00018299
0.000182953
0.000182945
0.000182938
0.000182942
0.00018293
0.000182923
0.000182908
0.000182878
0.000182893
0.000182897
0.000182942
0.00018293
0.000182923
0.000182841
0.000182841
0.000182841
0.000182878
0.000182837
0.00018283
0.000182871
0.000182804
0.000182834
0.000182781
0.000182834
0.000182819
0.000182774
0.000182848
0.000182763
0.000182815
0.000182811
0.000182785
0.000182837
0.000182811
0.000182811
0.000182793
0.000182807
0.000182781
0.000182766
0.000182807
0.000182785
0.000182826
0.000182796
0.000182793
0.000182785
0.000182796
0.000182793
0.000182815
0.000182819
0.000182841
0.000182845
0.000157539
0.000157606
0.000157606
0.000157543
0.000157624
0.000157576
0.000157584
0.000157595
0.000157572
0.000157557
0.000157602
0.000157613
0.000157624
0.000157628
0.000157643
0.000157617
0.00015761
0.000157662
0.000157617
0.000157747
0.000157658
0.000157762
0.000157677
0.000157744
0.000157718
0.000157822
0.000157777
0.000157766
0.000157747
0.000157788
0.000157837
0.000157822
0.000157852
0.000157848
0.00015787
0.000157915
0.000157923
0.000157941
0.000157975
0.000157941
0.000157997
0.000158023
0.000158001
0.000158083
0.000158004
0.00015806
0.00015809
0.000158075
0.000158068
0.000158161
0.000158157
0.000158194
0.000158224
0.000158302
0.000158235
0.000158306
0.000158273
0.000158284
0.000158407
0.000158381
0.000158399
0.000158396
0.000158481
0.000158451
0.000158522
0.000158504
0.000158556
0.000158601
0.000158664
0.00015863
0.000158682
0.000158641
0.000158694
0.000158709
0.000158768
0.000158783
0.000158876
0.000158902
0.000158906
0.000158902
0.00015898
0.00015894
0.000159021
0.000159059
0.0001591
0.000159074
0.000159163
0.000159141
0.000159208
0.00015923
0.000159323
0.000159334
0.000159349
0.000159379
0.000159405
0.000159424
0.000159506
0.000159521
0.000159573
0.000159539
0.000159632
0.000194993
0.000194948
0.000194963
0.000195093
0.000195
0.000195015
0.000195038
0.000195026
0.000195026
0.000195082
0.000195093
0.000195116
0.000195157
0.000195142
0.000195157
0.000195187
0.000195239
0.000195246
0.000195269
0.000195276
0.000195317
0.000195332
0.00019535
0.000195447
0.000195414
0.000195432
0.000195403
0.000195451
0.000195447
0.000195485
0.000195567
0.000195518
0.000195567
0.000195615
0.000195649
0.000195649
0.000195641
0.000195708
0.000195764
0.000195745
0.000195779
0.000195805
0.000195894
0.000195872
0.000195939
0.000195973
0.00019598
0.000196014
0.000196017
0.000196107
0.000196055
0.000196066
0.000196178
0.000196174
0.000196237
0.000196274
0.0001963
0.000196386
0.000196375
0.000196438
0.000196457
0.000196565
0.000196502
0.000196524
0.000196628
0.000196673
0.000196684
0.000196729
0.000196822
0.00019677
0.000196841
0.000196934
0.000196923
0.00019699
0.000197019
0.00019709
0.000197023
0.000197116
0.000197172
0.000197161
0.000197288
0.000197332
0.000197407
0.000197433
0.000197478
0.00019756
0.000197593
0.00019766
0.000197675
0.000197757
0.000197813
0.000197809
0.000197865
0.000197925
0.000197954
0.000198003
0.000198025
0.000198085
0.000198182
0.000198148
0.000198223
0.000271838
0.000271823
0.000271861
0.000271864
0.000271875
0.000271928
0.000271965
0.00027195
0.000271995
0.00027198
0.000271991
0.000272043
0.000272129
0.000272099
0.000272136
0.000272166
0.000272263
0.000272218
0.000272226
0.000272341
0.000272401
0.000272382
0.000272442
0.000272434
0.000272479
0.000272501
0.000272602
0.000272583
0.000272602
0.000272658
0.000272647
0.000272717
0.000272788
0.000272814
0.000272803
0.000272833
0.000272896
0.000272896
0.000273038
0.000272918
0.000272993
0.00027309
0.00027306
0.000273187
0.000273157
0.000273205
0.000273261
0.000273302
0.000273436
0.00027344
0.000273529
0.000273507
0.00027357
0.000273608
0.000273671
0.000273753
0.000273757
0.000273827
0.000273842
0.000273827
0.000273906
0.000273965
0.00027407
0.000274125
0.000274155
0.000274144
0.000274174
0.000274222
0.000274327
0.000274379
0.000274431
0.000274476
0.00027458
0.000274558
0.00027464
0.000274643
0.000274695
0.000274755
0.000274844
0.000274852
0.000274893
0.000274967
0.000275012
0.000275139
0.000275128
0.000275247
0.000275351
0.000275377
0.000275381
0.000275429
0.000275563
0.000275645
0.000275683
0.000275753
0.000275794
0.000275847
0.000275914
0.000276014
0.000276051
0.000276048
0.00027613
0.000317167
0.000317179
0.000317175
0.000317115
0.000317097
0.000317071
0.000317078
0.000317067
0.000317123
0.000317134
0.000317067
0.000317115
0.0003171
0.000316989
0.000317052
0.000317007
0.000316974
0.000316948
0.000316929
0.000316996
0.000316992
0.000317007
0.000317033
0.000316966
0.000316907
0.00031691
0.000316892
0.000316828
0.000316877
0.000316899
0.000316892
0.000316832
0.000316884
0.000316903
0.000316925
0.000316855
0.000316832
0.000316836
0.00031678
0.000316791
0.000316802
0.000316758
0.000316799
0.000316855
0.000316795
0.000316802
0.000316832
0.000316899
0.000316843
0.000316832
0.00031681
0.000316788
0.000316788
0.000316788
0.000316806
0.00031681
0.000316732
0.000316758
0.00031678
0.00031672
0.000316713
0.00031678
0.000316747
0.000316802
0.000316836
0.000316795
0.000316814
0.000316776
0.000316836
0.000316735
0.000316761
0.000316802
0.00031678
0.000316739
0.000316743
0.000316698
0.000316683
0.000316791
0.000316706
0.000316747
0.000316743
0.000316713
0.000316735
0.000316817
0.00031681
0.000316776
0.00031678
0.00031681
0.00031681
0.000316802
0.000316765
0.000316765
0.000316814
0.000316773
0.000316739
0.000316802
0.000316855
0.000316802
0.000316802
0.000316784
0.000316743
0.000265133
0.000265077
0.000265054
0.000265013
0.000264943
0.000264902
0.000264831
0.000264887
0.000264898
0.000264805
0.000264816
0.000264805
0.000264693
0.000264689
0.000264689
0.000264615
0.000264548
0.000264518
0.000264548
0.000264518
0.000264581
0.000264443
0.000264402
0.00026444
0.000264406
0.00026438
0.000264362
0.000264332
0.000264321
0.000264324
0.000264201
0.000264231
0.000264183
0.000264205
0.000264119
0.000264157
0.000264116
0.000264097
0.000264075
0.000263978
0.000263941
0.000263985
0.000263967
0.000263978
0.000263888
0.000263866
0.000263855
0.000263833
0.000263792
0.000263769
0.000263788
0.000263724
0.000263743
0.000263702
0.000263665
0.00026365
0.000263609
0.000263643
0.000263546
0.000263587
0.000263534
0.000263505
0.000263523
0.000263471
0.000263449
0.000263423
0.00026343
0.000263385
0.000263371
0.000263315
0.000263326
0.000263337
0.000263285
0.0002633
0.000263263
0.000263292
0.00026324
0.000263192
0.000263158
0.000263188
0.000263143
0.000263158
0.000263106
0.000263099
0.00026311
0.000263061
0.00026308
0.00026302
0.000263039
0.000263005
0.000262983
0.000262935
0.00026292
0.000262905
0.000262938
0.00026295
0.000262938
0.000262905
0.000262871
0.00026283
0.000262816
0.000191201
0.000191171
0.000191096
0.000191096
0.000191037
0.00019104
0.000190999
0.000190947
0.000190936
0.000190828
0.00019088
0.000190802
0.000190742
0.000190683
0.000190746
0.000190657
0.000190604
0.000190664
0.000190582
0.000190586
0.000190489
0.000190407
0.000190441
0.000190429
0.000190374
0.000190403
0.000190366
0.000190325
0.000190299
0.000190254
0.00019018
0.000190228
0.000190139
0.000190146
0.000190184
0.000190023
0.000190049
0.000190031
0.000189967
0.000189938
0.000189919
0.000189852
0.000189926
0.000189908
0.00018983
0.000189833
0.000189766
0.00018977
0.000189673
0.00018974
0.000189714
0.000189655
0.000189643
0.00018955
0.000189569
0.000189617
0.000189573
0.000189498
0.000189491
0.00018939
0.00018942
0.000189427
0.000189342
0.000189293
0.000189345
0.000189368
0.000189286
0.00018926
0.000189222
0.000189215
0.000189167
0.000189289
0.000189181
0.000189193
0.0001892
0.000189133
0.000189081
0.000189003
0.000189018
0.00018901
0.000188977
0.000188921
0.000188984
0.000188988
0.000188868
0.000188835
0.000188868
0.000188805
0.000188868
0.000188746
0.000188719
0.000188749
0.000188809
0.000188705
0.000188712
0.000188719
0.000188652
0.000188645
0.000188526
0.00018866
0.000188578
0.000118013
0.000117932
0.00011792
0.00011779
0.000117887
0.000117809
0.000117797
0.000117745
0.000117738
0.000117637
0.000117593
0.000117522
0.000117552
0.000117611
0.000117518
0.000117544
0.000117484
0.000117429
0.000117358
0.000117369
0.000117265
0.000117283
0.000117209
0.00011725
0.000117235
0.000117201
0.000117108
0.000117164
0.000117064
0.000117026
0.000117015
0.000116985
0.000116959
0.000116933
0.000116941
0.000116922
0.000116888
0.000116777
0.000116739
0.000116732
0.00011684
0.000116698
0.000116661
0.000116713
0.000116657
0.000116687
0.000116646
0.000116583
0.000116542
0.000116494
0.000116516
0.000116467
0.000116505
0.00011646
0.000116419
0.000116426
0.000116374
0.000116423
0.000116322
0.000116315
0.000116281
0.00011627
0.000116218
0.000116147
0.000116162
0.00011621
0.000116158
0.000116117
0.000116147
0.000116054
0.000116076
0.000116091
0.000115991
0.000116035
0.000115942
0.000115957
0.000115942
0.000115875
0.000115905
0.000115868
0.000115816
0.000115782
0.000115789
0.000115793
0.000115778
0.000115741
0.000115726
0.000115689
0.000115696
0.000115685
0.000115629
0.000115592
0.00011557
0.000115596
0.000115536
0.000115629
0.000115585
0.000115469
0.000115525
0.000115506
0.00011554
6.08601e-05
6.08303e-05
6.07446e-05
6.07558e-05
6.07371e-05
6.06403e-05
6.07111e-05
6.05956e-05
6.05695e-05
6.05546e-05
6.05173e-05
6.05248e-05
6.05024e-05
6.05024e-05
6.04652e-05
6.03609e-05
6.03534e-05
6.03497e-05
6.02789e-05
6.02789e-05
6.03236e-05
6.02715e-05
6.02081e-05
6.01783e-05
6.01485e-05
6.01858e-05
6.01001e-05
6.01783e-05
6.00778e-05
6.00144e-05
6.00182e-05
6.00554e-05
6.00182e-05
5.99883e-05
5.99585e-05
5.99176e-05
5.99399e-05
5.99027e-05
5.99064e-05
5.98989e-05
5.98244e-05
5.98282e-05
5.97797e-05
5.97946e-05
5.98021e-05
5.9735e-05
5.97984e-05
5.96941e-05
5.9709e-05
5.96903e-05
5.9668e-05
5.96605e-05
5.96084e-05
5.96121e-05
5.95674e-05
5.96344e-05
5.95525e-05
5.95003e-05
5.95376e-05
5.95301e-05
5.94929e-05
5.95078e-05
5.95376e-05
5.95413e-05
5.95637e-05
5.9437e-05
5.94296e-05
5.94445e-05
5.93476e-05
5.937e-05
5.93401e-05
5.9437e-05
5.9329e-05
5.93401e-05
5.93625e-05
5.93252e-05
5.92582e-05
5.92284e-05
5.9288e-05
5.92619e-05
5.9206e-05
5.91949e-05
5.92209e-05
5.91911e-05
5.92358e-05
5.92358e-05
5.918e-05
5.92284e-05
5.92209e-05
5.91576e-05
5.91353e-05
5.9139e-05
5.91017e-05
5.91204e-05
5.90719e-05
5.9057e-05
5.90719e-05
5.90272e-05
5.90794e-05
5.90496e-05
5.90347e-05
4.54038e-05
4.52697e-05
4.53182e-05
4.53368e-05
4.53778e-05
4.53554e-05
4.52772e-05
4.52548e-05
4.5184e-05
4.52213e-05
4.5184e-05
4.52362e-05
4.51319e-05
4.50835e-05
4.5117e-05
4.5158e-05
4.5117e-05
4.51356e-05
4.50201e-05
4.51654e-05
4.50388e-05
4.50723e-05
4.50723e-05
4.50946e-05
4.50909e-05
4.50648e-05
4.49903e-05
4.5035e-05
4.49829e-05
4.49903e-05
4.49978e-05
4.50984e-05
4.49941e-05
4.49568e-05
4.50276e-05
4.50164e-05
4.4968e-05
4.49196e-05
4.49829e-05
4.49978e-05
4.49345e-05
4.49568e-05
4.49494e-05
4.49903e-05
4.49456e-05
4.48935e-05
4.4886e-05
4.49345e-05
4.49456e-05
4.49419e-05
4.49121e-05
4.49233e-05
4.49456e-05
4.49345e-05
4.49233e-05
4.49121e-05
4.49456e-05
4.49158e-05
4.49866e-05
4.48823e-05
4.48935e-05
4.49307e-05
4.4886e-05
4.48935e-05
4.49158e-05
4.49233e-05
4.4968e-05
4.48935e-05
4.48786e-05
4.48897e-05
4.48488e-05
4.4968e-05
4.49382e-05
4.49792e-05
4.49009e-05
4.48935e-05
4.49233e-05
4.49494e-05
4.49717e-05
4.49792e-05
4.48935e-05
4.50015e-05
4.50388e-05
4.5035e-05
4.49754e-05
4.50052e-05
4.50313e-05
4.49605e-05
4.50313e-05
4.49866e-05
4.4927e-05
4.50201e-05
4.49233e-05
4.49605e-05
4.50015e-05
4.49941e-05
4.49941e-05
4.51244e-05
4.50462e-05
4.51505e-05
4.51244e-05
8.18111e-05
8.17552e-05
8.18074e-05
8.18558e-05
8.18111e-05
8.18111e-05
8.17887e-05
8.17329e-05
8.17627e-05
8.17962e-05
8.18335e-05
8.17589e-05
8.17068e-05
8.17664e-05
8.17366e-05
8.17515e-05
8.17589e-05
8.17478e-05
8.16733e-05
8.17776e-05
8.17589e-05
8.1744e-05
8.18111e-05
8.18111e-05
8.17329e-05
8.17515e-05
8.17925e-05
8.18036e-05
8.17925e-05
8.18484e-05
8.17217e-05
8.17738e-05
8.18335e-05
8.18446e-05
8.18335e-05
8.18223e-05
8.18521e-05
8.18372e-05
8.18707e-05
8.18633e-05
8.18633e-05
8.18931e-05
8.18186e-05
8.18633e-05
8.19005e-05
8.18931e-05
8.19378e-05
8.19042e-05
8.18633e-05
8.1975e-05
8.20123e-05
8.19899e-05
8.18968e-05
8.20123e-05
8.20383e-05
8.19378e-05
8.20346e-05
8.20719e-05
8.20644e-05
8.20942e-05
8.20458e-05
8.21389e-05
8.21389e-05
8.21017e-05
8.21203e-05
8.21017e-05
8.21576e-05
8.21427e-05
8.21911e-05
8.21464e-05
8.21985e-05
8.22432e-05
8.22619e-05
8.22283e-05
8.2247e-05
8.22358e-05
8.22432e-05
8.23177e-05
8.23215e-05
8.23438e-05
8.23848e-05
8.23811e-05
8.23587e-05
8.24742e-05
8.24779e-05
8.24481e-05
8.24966e-05
8.24891e-05
8.24668e-05
8.24668e-05
8.24668e-05
8.25562e-05
8.25599e-05
8.25785e-05
8.25934e-05
8.26679e-05
8.26158e-05
8.2612e-05
8.26232e-05
8.26903e-05
8.27499e-05
0.000147037
0.000147097
0.000147045
0.000147097
0.000147056
0.000147019
0.000147071
0.000147097
0.000147019
0.000147045
0.000147071
0.000147101
0.000147097
0.000147134
0.000147164
0.000147119
0.000147048
0.000147115
0.000147104
0.000147086
0.000147063
0.000147149
0.000147194
0.000147074
0.000147149
0.000147104
0.000147108
0.000147108
0.000147205
0.000147186
0.000147175
0.000147212
0.000147212
0.000147227
0.000147182
0.000147264
0.000147179
0.000147264
0.000147223
0.000147272
0.000147283
0.000147257
0.000147302
0.000147283
0.000147257
0.000147283
0.000147335
0.000147317
0.000147428
0.000147283
0.00014732
0.000147361
0.000147399
0.000147361
0.000147395
0.000147406
0.000147421
0.000147451
0.000147413
0.000147495
0.000147466
0.000147525
0.000147521
0.000147462
0.000147585
0.000147562
0.000147499
0.000147592
0.000147562
0.000147592
0.000147644
0.000147633
0.000147648
0.000147618
0.000147674
0.000147667
0.000147704
0.000147756
0.000147782
0.000147756
0.000147734
0.000147775
0.000147808
0.000147849
0.000147909
0.000147872
0.000147939
0.000147842
0.000147957
0.000147954
0.000147995
0.000147954
0.000148006
0.000148054
0.000148028
0.00014798
0.000148039
0.000148062
0.000148103
0.000148151
0.000148121
0.000206221
0.000206191
0.000206191
0.000206191
0.000206221
0.00020621
0.000206158
0.000206165
0.000206158
0.000206154
0.000206117
0.000206165
0.000206064
0.000206064
0.000206079
0.000206064
0.000206087
0.00020605
0.000206124
0.00020602
0.000206038
0.000206113
0.000206031
0.000206057
0.000206027
0.000206042
0.000206035
0.000206068
0.000206023
0.000206035
0.00020602
0.00020605
0.000205986
0.000206042
0.000206031
0.000206087
0.000205949
0.000205968
0.000206031
0.000206053
0.000205971
0.000206005
0.000206012
0.000205982
0.000206064
0.000206016
0.00020602
0.00020605
0.000205994
0.00020602
0.000206053
0.000205986
0.000206057
0.000206083
0.000206053
0.00020612
0.00020599
0.000206057
0.000206113
0.000206061
0.000206072
0.000206087
0.000206169
0.000206128
0.000206124
0.000206057
0.000206124
0.000206139
0.000206105
0.000206076
0.000206146
0.000206176
0.000206187
0.000206083
0.000206187
0.000206161
0.000206225
0.000206206
0.00020618
0.000206206
0.000206213
0.000206206
0.000206236
0.00020624
0.000206243
0.000206202
0.000206273
0.000206292
0.000206277
0.000206292
0.000206284
0.000206295
0.00020637
0.000206333
0.00020634
0.000206348
0.000206362
0.000206333
0.000206366
0.000206355
0.000206303
0.000237647
0.000237532
0.000237573
0.000237551
0.000237484
0.000237476
0.000237413
0.000237465
0.000237413
0.000237439
0.000237335
0.000237361
0.000237335
0.000237294
0.000237256
0.000237223
0.000237275
0.000237133
0.000237245
0.000237137
0.000237171
0.000237171
0.000237107
0.000237107
0.000237036
0.000237044
0.000237081
0.000237059
0.000237014
0.000236947
0.000236902
0.000236902
0.000236981
0.000236943
0.00023694
0.00023694
0.00023688
0.000236828
0.000236813
0.000236832
0.000236876
0.000236847
0.000236768
0.000236809
0.000236738
0.000236765
0.000236712
0.000236738
0.000236746
0.000236753
0.000236731
0.000236668
0.000236694
0.000236701
0.000236612
0.000236701
0.000236683
0.000236675
0.000236668
0.000236601
0.000236608
0.000236548
0.000236586
0.000236623
0.000236612
0.000236619
0.000236534
0.000236541
0.000236534
0.000236519
0.000236541
0.000236437
0.000236515
0.000236537
0.000236526
0.000236548
0.000236452
0.000236485
0.000236481
0.000236534
0.000236485
0.000236448
0.000236508
0.000236448
0.000236396
0.000236448
0.000236485
0.00023647
0.000236429
0.00023644
0.000236455
0.000236347
0.000236426
0.000236429
0.000236459
0.000236362
0.000236426
0.000236362
0.000236396
0.000236362
0.000236303
0.000238173
0.000238035
0.000238124
0.000238057
0.000237975
0.000237945
0.000237897
0.000237886
0.000237886
0.000237789
0.000237744
0.000237685
0.000237692
0.000237644
0.000237662
0.000237536
0.000237525
0.00023748
0.000237398
0.000237387
0.000237335
0.000237327
0.000237275
0.000237212
0.000237215
0.000237215
0.000237145
0.000237096
0.000237089
0.000236996
0.000236973
0.00023694
0.000236891
0.000236865
0.000236828
0.000236858
0.000236861
0.000236828
0.000236813
0.000236683
0.000236712
0.000236712
0.000236664
0.000236686
0.000236552
0.000236571
0.000236519
0.000236459
0.000236474
0.000236414
0.000236418
0.000236481
0.000236414
0.000236399
0.000236329
0.000236299
0.000236314
0.000236247
0.000236217
0.000236265
0.000236154
0.000236213
0.00023615
0.000236139
0.000236075
0.000236072
0.000235986
0.000236068
0.000236012
0.000236012
0.000236016
0.000235949
0.000235911
0.000235863
0.000235859
0.000235867
0.000235852
0.000235826
0.000235785
0.0002358
0.000235766
0.000235721
0.000235755
0.000235714
0.00023564
0.000235565
0.000235617
0.000235625
0.00023561
0.000235599
0.000235524
0.000235476
0.000235502
0.000235513
0.000235382
0.000235543
0.000235442
0.00023552
0.000235442
0.000235379
0.000235401
0.000215352
0.000215333
0.000215247
0.000215251
0.000215154
0.000215117
0.000215016
0.000214886
0.000214923
0.000214897
0.000214741
0.000214729
0.000214648
0.000214648
0.000214525
0.000214487
0.000214405
0.000214331
0.000214264
0.000214253
0.000214197
0.000214111
0.000214148
0.000214044
0.000213999
0.00021394
0.00021388
0.000213798
0.000213832
0.000213735
0.000213739
0.000213694
0.000213575
0.000213541
0.000213485
0.000213467
0.000213426
0.000213377
0.00021328
0.000213243
0.000213251
0.000213217
0.000213165
0.000213079
0.000213046
0.000212949
0.000212979
0.000212919
0.0002129
0.000212837
0.000212837
0.000212815
0.000212725
0.000212718
0.000212643
0.000212643
0.000212628
0.000212539
0.000212487
0.000212532
0.000212476
0.000212345
0.000212338
0.00021223
0.000212334
0.000212308
0.000212211
0.000212248
0.000212144
0.000212174
0.000212204
0.000212014
0.000211995
0.000211902
0.000211932
0.000211939
0.000211876
0.000211865
0.000211757
0.000211816
0.000211772
0.000211723
0.000211604
0.0002116
0.000211585
0.000211608
0.00021157
0.000211507
0.00021147
0.000211492
0.000211496
0.00021138
0.000211384
0.000211351
0.000211384
0.000211235
0.000211269
0.000211194
0.000211187
0.000211164
0.000211198
0.000179935
0.000179809
0.000179742
0.000179712
0.00017963
0.000179537
0.000179429
0.000179343
0.000179324
0.000179235
0.000179201
0.000179067
0.000178989
0.000178885
0.00017884
0.000178788
0.000178713
0.000178594
0.000178523
0.000178512
0.00017846
0.000178274
0.000178251
0.000178177
0.000178099
0.000178084
0.000178065
0.000177912
0.000177938
0.000177778
0.00017776
0.000177745
0.00017764
0.000177551
0.000177551
0.000177432
0.000177365
0.00017735
0.000177264
0.000177238
0.000177156
0.000177111
0.00017707
0.0001771
0.000176936
0.000176962
0.000176817
0.000176776
0.000176754
0.000176635
0.00017659
0.00017659
0.000176493
0.000176419
0.000176411
0.000176322
0.000176307
0.000176199
0.000176195
0.000176109
0.000176117
0.000176072
0.000175998
0.000175983
0.000175983
0.000175849
0.000175837
0.000175823
0.000175711
0.000175633
0.000175562
0.000175636
0.000175506
0.000175506
0.000175443
0.000175364
0.00017539
0.00017529
0.000175208
0.000175249
0.000175159
0.000175152
0.000175092
0.000175048
0.000175036
0.000175044
0.000174999
0.000174947
0.000174854
0.000174798
0.000174757
0.000174746
0.000174753
0.000174664
0.000174616
0.000174567
0.000174575
0.000174485
0.000174448
0.000174496
0.000174407
0.000142831
0.000142701
0.000142589
0.000142448
0.000142381
0.00014231
0.000142213
0.000142168
0.000142038
0.000141952
0.000141952
0.000141814
0.000141725
0.000141654
0.000141613
0.000141513
0.000141438
0.000141367
0.000141237
0.000141162
0.000141107
0.000140984
0.00014098
0.000140857
0.000140809
0.000140686
0.000140596
0.000140559
0.00014054
0.000140402
0.000140373
0.000140268
0.000140198
0.000140164
0.000140026
0.000139982
0.000139941
0.000139851
0.000139806
0.000139728
0.000139594
0.000139605
0.000139464
0.000139464
0.000139453
0.000139359
0.000139277
0.000139266
0.000139181
0.000139091
0.000138972
0.000139024
0.000138924
0.000138838
0.00013883
0.000138726
0.000138693
0.000138626
0.000138644
0.000138514
0.00013845
0.000138391
0.000138324
0.000138365
0.000138257
0.00013819
0.000138152
0.000138067
0.000138056
0.000138003
0.000137929
0.000137884
0.000137839
0.000137862
0.000137705
0.000137713
0.000137631
0.000137635
0.000137497
0.000137512
0.000137456
0.000137396
0.000137299
0.000137303
0.000137296
0.000137206
0.000137173
0.000137053
0.000137106
0.000137039
0.000136968
0.000137024
0.000136949
0.000136845
0.000136737
0.000136763
0.000136781
0.000136733
0.000136685
0.000136606
0.000136595
0.000115272
0.000115216
0.000115126
0.000115011
0.000115026
0.000114795
0.00011472
0.000114664
0.000114582
0.000114482
0.000114419
0.0001144
0.000114262
0.000114158
0.000114087
0.000113983
0.00011396
0.000113934
0.000113785
0.000113707
0.000113621
0.000113551
0.000113521
0.000113361
0.000113286
0.000113305
0.000113197
0.000113226
0.000113077
0.00011301
0.000112955
0.000112865
0.000112887
0.000112753
0.000112731
0.000112697
0.000112571
0.000112493
0.000112403
0.000112288
0.000112306
0.000112195
0.000112172
0.000112131
0.000112124
0.000111952
0.000112001
0.000111926
0.000111867
0.000111762
0.000111695
0.000111569
0.000111651
0.000111524
0.000111438
0.000111412
0.000111345
0.000111353
0.000111312
0.000111226
0.000111137
0.000111058
0.000111073
0.000111092
0.000110913
0.000110894
0.000110846
0.000110749
0.000110708
0.000110697
0.000110675
0.000110622
0.000110585
0.000110459
0.000110503
0.000110436
0.000110451
0.000110313
0.000110261
0.000110205
0.000110175
0.000110153
0.00011009
0.000110064
0.000109974
0.000109985
0.000109963
0.000109918
0.000109866
0.000109863
0.000109773
0.000109736
0.000109624
0.000109658
0.000109594
0.000109538
0.00010955
0.000109483
0.000109423
0.000109378
0.000109348
0.000108104
0.000108089
0.000108059
0.000108045
0.000107951
0.000107825
0.000107747
0.000107754
0.000107657
0.000107694
0.000107478
0.000107434
0.00010743
0.000107367
0.000107221
0.000107232
0.000107266
0.000107136
0.000107024
0.000107031
0.000107039
0.000106949
0.000106882
0.000106797
0.000106763
0.000106744
0.000106629
0.000106595
0.000106584
0.000106443
0.000106428
0.000106473
0.000106461
0.000106383
0.000106324
0.000106331
0.000106227
0.000106171
0.000106078
0.0001061
0.000106137
0.000105985
0.000105929
0.000105936
0.000105835
0.000105873
0.000105839
0.000105742
0.000105668
0.000105709
0.000105664
0.000105575
0.000105519
0.000105523
0.000105489
0.000105429
0.000105366
0.000105333
0.000105325
0.000105284
0.000105258
0.000105213
0.000105135
0.000105184
0.000105035
0.000105102
0.000105049
0.000105035
0.000104997
0.000104953
0.000104915
0.000104886
0.000104774
0.000104789
0.000104778
0.000104766
0.000104647
0.000104632
0.000104625
0.00010455
0.000104554
0.000104547
0.000104513
0.000104427
0.000104498
0.000104424
0.000104483
0.000104371
0.000104368
0.000104334
0.000104297
0.000104301
0.00010426
0.00010417
0.00010417
0.000104185
0.000104144
0.000104126
0.000104148
0.000104006
0.000104051
0.000127099
0.000127058
0.00012698
0.000126977
0.000126895
0.000126909
0.000126977
0.000126846
0.000126831
0.000126883
0.000126813
0.000126813
0.000126775
0.000126757
0.000126738
0.000126727
0.000126712
0.000126686
0.000126664
0.000126671
0.00012666
0.000126589
0.000126615
0.000126533
0.000126552
0.00012644
0.000126574
0.000126552
0.000126541
0.000126477
0.000126533
0.00012641
0.0001265
0.000126388
0.000126425
0.000126466
0.000126384
0.000126343
0.000126377
0.000126373
0.000126343
0.000126373
0.000126302
0.00012638
0.000126351
0.000126321
0.000126284
0.000126299
0.000126246
0.000126213
0.000126198
0.000126269
0.000126284
0.000126224
0.000126254
0.000126135
0.000126187
0.000126179
0.000126157
0.000126153
0.00012609
0.000126142
0.00012609
0.000126086
0.000126109
0.000126082
0.000126123
0.000126056
0.00012615
0.000126112
0.000126015
0.00012606
0.000126086
0.000126034
0.000126075
0.000126082
0.000126034
0.000126056
0.000125967
0.000126071
0.000125922
0.000125941
0.000125982
0.000125997
0.000125948
0.000126034
0.000125997
0.000126012
0.00012603
0.000126
0.000125937
0.000125948
0.000125956
0.000125904
0.000125919
0.000125919
0.000125885
0.000125933
0.000125948
0.000125892
0.000125907
0.000166163
0.00016623
0.000166181
0.00016626
0.000166312
0.000166249
0.000166286
0.000166316
0.000166338
0.000166323
0.00016639
0.000166364
0.000166375
0.000166427
0.000166498
0.000166532
0.000166599
0.000166554
0.000166569
0.000166599
0.000166643
0.000166629
0.000166614
0.000166666
0.000166677
0.000166703
0.000166692
0.000166748
0.00016674
0.000166789
0.000166748
0.000166912
0.000166882
0.00016683
0.000166878
0.000166949
0.000166927
0.000166986
0.000166938
0.00016699
0.000166986
0.00016709
0.000167016
0.000167053
0.000167076
0.000167113
0.000167057
0.000167098
0.000167102
0.000167184
0.000167172
0.000167169
0.00016721
0.000167262
0.000167239
0.000167262
0.000167251
0.00016734
0.000167292
0.000167374
0.000167388
0.000167359
0.000167422
0.000167426
0.000167493
0.000167437
0.000167459
0.000167463
0.00016756
0.000167515
0.000167552
0.00016759
0.000167556
0.000167582
0.000167567
0.000167638
0.000167649
0.000167672
0.000167627
0.000167646
0.000167761
0.000167809
0.000167813
0.00016775
0.000167821
0.000167847
0.000167817
0.000167839
0.000167865
0.000167955
0.000167876
0.000167951
0.000167921
0.00016788
0.000167981
0.000168007
0.000168007
0.000168074
0.000167999
0.00016804
0.000168134
0.000208449
0.000208464
0.000208437
0.000208579
0.00020856
0.000208631
0.000208657
0.00020881
0.000208717
0.000208873
0.000208873
0.000208888
0.000208937
0.000208996