/*--------------------------------*- C++ -*----------------------------------*\
| =========                 |                                                 |
| \\      /  F ield         | OpenFOAM: The Open Source CFD Toolbox           |
|  \\    /   O peration     | Version:  v2006                                 |
|   \\  /    A nd           | Website:  www.openfoam.com                      |
|    \\/     M anipulation  |                                                 |
\*---------------------------------------------------------------------------*/
FoamFile
{
    version     2.0;
    format      ascii;
    class       volScalarField;
    location    "0";
    object      p;
}
// * * * * * * * * * * * * * * * * * * * * * * * * * * * * * * * * * * * * * //

dimensions      [1 -1 -2 0 0 0 0];


internalField   nonuniform List<scalar> 
67500
(
206.025
209.817
210.538
212.784
213.804
213.666
213.044
212.404
211.715
210.755
209.421
207.713
205.62
203.112
200.176
196.826
193.086
188.987
184.568
179.873
174.948
169.84
164.593
159.251
153.852
148.432
143.023
137.652
132.344
127.118
121.992
116.98
112.092
107.337
102.722
98.2511
93.928
89.7541
85.7298
81.8546
78.1272
74.5457
71.1074
67.8095
64.6485
61.6209
58.7229
55.9505
53.2997
50.7663
48.3463
46.0354
43.8297
41.7251
39.7175
37.8032
35.9782
34.2389
32.5817
31.0031
29.4997
28.0682
26.7056
25.4087
24.1747
23.0007
21.8841
20.8222
19.8127
18.853
17.9409
17.0742
16.2508
15.4687
14.7258
14.0205
13.3508
12.7151
12.1117
11.5391
10.9957
10.4802
9.99116
9.52726
9.08726
8.66996
8.27422
7.89895
7.54311
7.2057
6.88579
6.58247
6.29489
6.02222
5.76371
5.5186
5.28619
5.06582
4.85685
4.65868
4.47072
4.29245
4.12333
3.96288
3.81062
3.66611
3.52893
3.39867
3.27495
3.15741
3.04571
2.93951
2.83851
2.74241
2.65094
2.56382
2.48081
2.40167
2.32618
2.25412
2.18528
2.11949
2.05655
1.9963
1.93858
1.88324
1.83013
1.77912
1.73009
1.68291
1.63748
1.59369
1.55144
1.51064
1.47121
1.43307
1.39614
1.36036
1.32565
1.29197
1.25925
1.22745
1.19651
1.1664
1.13707
1.10849
1.08062
1.05343
1.0269
1.00098
0.975674
0.950942
0.926769
0.903135
0.880024
0.857418
0.835303
0.813665
0.792491
0.77177
0.751491
0.731642
0.712214
0.693198
0.674585
0.656365
0.638533
0.621078
0.603995
0.587276
0.570914
0.554903
0.539235
0.523905
0.508907
0.494235
0.479883
0.465845
0.452116
0.438691
0.425564
0.412732
0.400188
0.387928
0.375948
0.364243
0.352808
0.34164
0.330735
0.320088
0.309696
0.299554
0.289659
0.280008
0.270597
0.261423
0.252481
0.24377
0.235284
0.227022
0.21898
0.211155
0.203544
0.196143
0.18895
0.181962
0.175174
0.168585
0.162192
0.15599
0.149978
0.144152
0.138508
0.133045
0.127759
0.122646
0.117704
0.11293
0.108321
0.103873
0.0995831
0.0954488
0.0914667
0.0876337
0.0839468
0.0804028
0.0769986
0.0737312
0.0705973
0.0675939
0.0647177
0.0619657
0.0593346
0.0568212
0.0544223
0.0521345
0.0499546
0.0478791
0.0459046
0.0440278
0.0422452
0.0405532
0.0389486
0.0374277
0.0359873
0.0346242
0.033335
0.0321166
0.0309662
0.0298808
0.0288575
0.0278937
0.0269867
0.0261339
0.0253327
0.0245805
0.0238748
0.0232128
0.0225921
0.02201
0.021464
0.0209514
0.0204699
0.020017
0.0195904
0.0191879
0.0188073
0.0184467
0.0181042
0.0177782
0.017467
0.0171693
0.0168837
0.0166091
0.0163443
0.0160885
0.0158409
0.0156005
0.0153669
0.0151394
0.0149175
0.0147007
0.0144886
0.014281
0.0140774
0.0138777
0.0136815
0.0134888
0.0132993
0.0131128
0.0129293
0.0127486
0.0125705
0.0123951
0.0122223
0.0120518
0.0118838
0.0117181
0.0115547
0.0113935
0.0112345
0.0110776
0.0109228
0.01077
0.0106193
0.0104705
0.0103238
0.0101789
0.0100359
0.00989483
0.00975556
0.0096181
0.00948242
0.00934851
0.00921633
0.00908585
0.00895706
0.00882993
0.00870443
0.00858056
0.00845827
0.00833755
0.00821837
0.00810071
0.00798455
0.00786985
0.00775661
0.0076448
0.00753441
0.00742541
0.00731778
0.00721151
0.00710656
0.00700293
0.0069006
0.00679954
0.00669975
0.00660119
0.00650385
0.0064077
0.00631274
0.00621894
0.00612628
0.00603475
0.00594433
0.005855
0.00576675
0.00567955
0.0055934
0.00550827
0.00542415
0.00534102
0.00525887
0.00517767
0.00509741
0.00501807
0.00493963
0.00486208
0.00478542
0.00470962
0.00463467
0.00456056
0.00448728
0.0044148
0.00434313
0.00427224
0.00420211
0.00413275
0.00406414
0.00399625
0.0039291
0.00386265
0.0037969
0.00373184
0.00366745
0.00360372
0.00354064
0.00347819
0.00341636
0.00335514
0.00329452
0.00323449
0.00317503
0.00311614
0.00305782
0.00300004
0.0029428
0.00288608
0.00282988
0.00277419
0.002719
0.00266429
0.00261006
0.0025563
0.002503
0.00245015
0.00239774
0.00234575
0.00229418
0.00224302
0.00219225
0.00214187
0.00209188
0.00204226
0.001993
0.00194411
0.00189556
0.00184734
0.00179945
0.00175188
0.00170461
0.00165763
0.00161095
0.00156456
0.00151844
0.00147259
0.00142701
0.00138168
0.00133659
0.00129175
0.00124713
0.00120273
0.00115854
0.00111456
0.00107077
0.00102718
0.000983762
0.000940523
0.000897451
0.00085454
0.000811781
0.000769168
0.000726692
0.000684346
0.000642122
0.000600012
0.000558008
0.000516105
0.000474294
0.00043257
0.000390928
0.000349361
0.000307861
0.000266421
0.000225024
0.000183682
0.000142308
0.000101184
5.94673e-05
2.11792e-05
204.122
207.928
208.697
211.008
212.028
211.887
211.322
210.764
210.152
209.272
208.027
206.41
204.402
201.97
199.104
195.817
192.133
188.084
183.71
179.057
174.171
169.1
163.888
158.579
153.212
147.824
142.445
137.103
131.823
126.625
121.525
116.537
111.673
106.941
102.348
97.8985
93.5951
89.4399
85.4333
81.5749
77.8633
74.2967
70.8725
67.5879
64.4394
61.4235
58.5366
55.7746
53.1335
50.6094
48.198
45.8953
43.6973
41.5999
39.5991
37.6912
35.8722
34.1387
32.4868
30.9132
29.4146
27.9876
26.6292
25.3363
24.1061
22.9357
21.8224
20.7638
19.7572
18.8004
17.891
17.0269
16.2059
15.4261
14.6855
13.9822
13.3145
12.6806
12.079
11.5081
10.9663
10.4524
9.96476
9.50224
9.06355
8.64749
8.25293
7.87878
7.524
7.18761
6.86866
6.56625
6.27953
6.00769
5.74995
5.50557
5.27387
5.05416
4.84582
4.64824
4.46086
4.28312
4.11451
3.95454
3.80274
3.65867
3.5219
3.39203
3.26869
3.1515
3.04013
2.93425
2.83355
2.73774
2.64653
2.55967
2.4769
2.39799
2.32271
2.25086
2.18222
2.1166
2.05384
1.99375
1.93619
1.88099
1.82802
1.77713
1.72822
1.68116
1.63583
1.59214
1.54998
1.50927
1.46992
1.43185
1.39499
1.35927
1.32463
1.291
1.25833
1.22658
1.19569
1.16562
1.13632
1.10778
1.07994
1.05278
1.02627
1.00038
0.975093
0.950382
0.926228
0.902612
0.879516
0.856925
0.834824
0.813199
0.792038
0.771328
0.751059
0.73122
0.711802
0.692794
0.674189
0.655978
0.638153
0.620707
0.603631
0.586918
0.570563
0.554558
0.538897
0.523573
0.508581
0.493914
0.479568
0.465535
0.451812
0.438392
0.425271
0.412443
0.399903
0.387648
0.375672
0.363972
0.352541
0.341378
0.330476
0.319833
0.309445
0.299307
0.289416
0.279768
0.270361
0.26119
0.252251
0.243543
0.235061
0.226802
0.218763
0.210942
0.203333
0.195936
0.188746
0.18176
0.174976
0.16839
0.161999
0.155801
0.149792
0.143968
0.138328
0.132868
0.127585
0.122475
0.117537
0.112766
0.108159
0.103714
0.0994277
0.0952965
0.0913175
0.0874877
0.0838038
0.080263
0.0768619
0.0735976
0.0704668
0.0674666
0.0645936
0.0618448
0.0592169
0.0567068
0.0543111
0.0520267
0.0498501
0.047778
0.045807
0.0439336
0.0421545
0.040466
0.0388647
0.0373472
0.0359101
0.0345501
0.033264
0.0320487
0.0309012
0.0298185
0.028798
0.0278369
0.0269325
0.0260823
0.0252837
0.0245341
0.023831
0.0231716
0.0225535
0.0219739
0.0214304
0.0209204
0.0204413
0.0199907
0.0195663
0.0191658
0.0187872
0.0184285
0.0180877
0.0177632
0.0174535
0.0171571
0.0168727
0.0165991
0.0163353
0.0160804
0.0158335
0.0155938
0.0153608
0.0151338
0.0149123
0.0146959
0.0144842
0.0142768
0.0140735
0.013874
0.0136781
0.0134855
0.0132962
0.0131099
0.0129265
0.0127458
0.0125679
0.0123926
0.0122198
0.0120494
0.0118815
0.0117158
0.0115525
0.0113913
0.0112323
0.0110755
0.0109207
0.010768
0.0106173
0.0104686
0.0103218
0.010177
0.0100341
0.00989298
0.00975374
0.00961631
0.00948066
0.00934678
0.00921462
0.00908417
0.0089554
0.00882829
0.00870282
0.00857897
0.0084567
0.00833601
0.00821686
0.00809922
0.00798307
0.0078684
0.00775518
0.00764339
0.00753302
0.00742404
0.00731643
0.00721018
0.00710525
0.00700164
0.00689933
0.00679829
0.00669851
0.00659997
0.00650265
0.00640653
0.00631158
0.00621779
0.00612515
0.00603364
0.00594323
0.00585392
0.00576569
0.00567851
0.00559237
0.00550726
0.00542316
0.00534005
0.00525791
0.00517673
0.00509648
0.00501715
0.00493873
0.0048612
0.00478455
0.00470876
0.00463383
0.00455973
0.00448647
0.00441401
0.00434234
0.00427146
0.00420135
0.004132
0.0040634
0.00399553
0.00392839
0.00386196
0.00379622
0.00373117
0.00366679
0.00360307
0.00354
0.00347756
0.00341575
0.00335454
0.00329393
0.00323391
0.00317446
0.00311558
0.00305727
0.0029995
0.00294227
0.00288557
0.00282938
0.0027737
0.00271851
0.00266381
0.0026096
0.00255585
0.00250256
0.00244972
0.00239731
0.00234534
0.00229378
0.00224262
0.00219186
0.00214149
0.0020915
0.00204189
0.00199265
0.00194376
0.00189522
0.00184702
0.00179913
0.00175157
0.0017043
0.00165734
0.00161067
0.00156428
0.00151817
0.00147233
0.00142676
0.00138144
0.00133636
0.00129152
0.0012469
0.00120251
0.00115833
0.00111436
0.00107058
0.00102699
0.000983588
0.000940357
0.000897292
0.000854389
0.000811638
0.000769032
0.000726564
0.000684226
0.000642009
0.000599906
0.000557909
0.000516012
0.000474208
0.000432492
0.000390857
0.000349298
0.000307807
0.000266375
0.000224987
0.000183653
0.000142286
0.000101168
5.9457e-05
2.11751e-05
200.29
204.136
204.977
207.407
208.441
208.321
207.867
207.46
207.004
206.293
205.231
203.798
201.96
199.684
196.958
193.796
190.224
186.276
181.994
177.424
172.616
167.618
162.477
157.235
151.934
146.608
141.289
136.006
130.783
125.639
120.591
115.654
110.838
106.152
101.603
97.1946
92.9308
88.813
84.8418
81.0168
77.3368
73.8
70.4038
67.1456
64.022
61.0296
58.1647
55.4234
52.8019
50.2961
47.902
45.6156
43.4329
41.3499
39.3628
37.4676
35.6607
33.9385
32.2974
30.7339
29.2447
27.8267
26.4768
25.1919
23.9692
22.8059
21.6994
20.6471
19.6465
18.6954
17.7914
16.9324
16.1163
15.341
14.6048
13.9056
13.2419
12.6118
12.0137
11.4462
10.9077
10.3967
9.91203
9.45226
9.01619
8.60262
8.21042
7.83851
7.48586
7.15148
6.83444
6.53385
6.24886
5.97865
5.72247
5.47957
5.24926
5.03087
4.82379
4.62741
4.44115
4.26449
4.0969
3.9379
3.78701
3.64381
3.50786
3.37878
3.25618
3.13969
3.02899
2.92374
2.82364
2.7284
2.63773
2.55138
2.4691
2.39064
2.3158
2.24435
2.17609
2.11084
2.04842
1.98866
1.9314
1.87649
1.82379
1.77316
1.72449
1.67765
1.63253
1.58903
1.54706
1.50652
1.46733
1.42941
1.39269
1.3571
1.32258
1.28906
1.2565
1.22484
1.19403
1.16404
1.13483
1.10635
1.07857
1.05147
1.02501
0.999175
0.973932
0.949263
0.925147
0.901566
0.878502
0.855941
0.833868
0.812268
0.791131
0.770444
0.750196
0.730377
0.710977
0.691988
0.6734
0.655205
0.637395
0.619963
0.602902
0.586203
0.569861
0.553869
0.538221
0.522909
0.507929
0.493274
0.478938
0.464917
0.451204
0.437794
0.424683
0.411865
0.399335
0.387089
0.375122
0.36343
0.352008
0.340852
0.329959
0.319324
0.308943
0.298812
0.288929
0.279288
0.269888
0.260723
0.251792
0.24309
0.234614
0.226362
0.218329
0.210514
0.202912
0.19552
0.188337
0.181357
0.174579
0.167999
0.161615
0.155422
0.149419
0.143602
0.137968
0.132514
0.127237
0.122134
0.117201
0.112436
0.107836
0.103397
0.099117
0.094992
0.0910192
0.0871955
0.0835179
0.0799832
0.0765884
0.0733303
0.0702059
0.0672119
0.0643453
0.0616029
0.0589814
0.0564778
0.0540888
0.051811
0.0496411
0.0475759
0.0456117
0.0437453
0.041973
0.0402914
0.038697
0.0371862
0.0357557
0.0344021
0.0331222
0.0319129
0.0307712
0.0296942
0.0286791
0.0277233
0.0268241
0.0259792
0.0251857
0.0244413
0.0237434
0.0230892
0.0224763
0.0219019
0.0213634
0.0208584
0.0203841
0.0199381
0.0195182
0.0191219
0.0187473
0.0183922
0.0180548
0.0177335
0.0174267
0.0171329
0.0168508
0.0165793
0.0163174
0.0160642
0.0158187
0.0155804
0.0153485
0.0151226
0.014902
0.0146864
0.0144754
0.0142686
0.0140659
0.0138668
0.0136713
0.0134791
0.0132901
0.013104
0.0129208
0.0127404
0.0125627
0.0123875
0.0122149
0.0120447
0.0118768
0.0117113
0.011548
0.011387
0.0112281
0.0110713
0.0109166
0.0107639
0.0106133
0.0104647
0.010318
0.0101732
0.0100303
0.0098893
0.00975012
0.00961274
0.00947715
0.00934331
0.00921121
0.00908081
0.00895209
0.00882502
0.0086996
0.00857579
0.00845358
0.00833293
0.00821382
0.00809622
0.00798012
0.00786549
0.00775231
0.00764057
0.00753024
0.0074213
0.00731374
0.00720752
0.00710264
0.00699906
0.00689679
0.00679579
0.00669605
0.00659755
0.00650026
0.00640417
0.00630926
0.0062155
0.0061229
0.00603142
0.00594105
0.00585177
0.00576357
0.00567643
0.00559032
0.00550524
0.00542117
0.00533809
0.00525599
0.00517483
0.00509462
0.00501532
0.00493693
0.00485943
0.00478281
0.00470705
0.00463215
0.00455808
0.00448484
0.00441241
0.00434077
0.00426992
0.00419984
0.00413051
0.00406194
0.00399409
0.00392698
0.00386057
0.00379486
0.00372983
0.00366547
0.00360178
0.00353873
0.00347631
0.00341452
0.00335333
0.00329275
0.00323274
0.00317332
0.00311447
0.00305617
0.00299843
0.00294122
0.00288454
0.00282837
0.00277271
0.00271754
0.00266287
0.00260867
0.00255494
0.00250167
0.00244885
0.00239646
0.00234451
0.00229296
0.00224182
0.00219108
0.00214073
0.00209076
0.00204116
0.00199194
0.00194307
0.00189455
0.00184636
0.0017985
0.00175095
0.0017037
0.00165676
0.0016101
0.00156373
0.00151764
0.00147181
0.00142625
0.00138095
0.00133588
0.00129106
0.00124646
0.00120209
0.00115792
0.00111397
0.0010702
0.00102663
0.000983242
0.000940025
0.000896977
0.000854088
0.000811352
0.000768762
0.000726309
0.000683986
0.000641784
0.000599695
0.000557713
0.00051583
0.00047404
0.000432338
0.000390718
0.000349174
0.000307697
0.000266281
0.000224907
0.000183587
0.000142235
0.000101131
5.94348e-05
2.1167e-05
194.484
198.403
199.318
201.911
202.986
202.927
202.637
202.453
202.243
201.798
201.019
199.865
198.288
196.247
193.734
190.761
187.357
183.559
179.414
174.971
170.28
165.394
160.358
155.218
150.015
144.783
139.557
134.362
129.224
124.162
119.193
114.331
109.588
104.971
100.487
96.1413
91.9367
87.875
83.9568
80.1819
76.5492
73.057
69.7029
66.4842
63.3978
60.4404
57.6084
54.8982
52.3059
49.8276
47.4593
45.1973
43.0375
40.9761
39.0092
37.1332
35.3444
33.6391
32.014
30.4656
28.9906
27.586
26.2487
24.9757
23.7643
22.6116
21.5152
20.4724
19.4809
18.5383
17.6423
16.791
15.9821
15.2138
14.4841
13.7911
13.1333
12.5088
11.916
11.3536
10.8198
10.3135
9.83311
9.37747
8.94531
8.53546
8.14679
7.77824
7.42877
7.09742
6.78325
6.48538
6.20297
5.93521
5.68135
5.44065
5.21243
4.99603
4.79083
4.59623
4.41167
4.23661
4.07055
3.91299
3.76348
3.62158
3.48687
3.35895
3.23746
3.12203
3.01233
2.90803
2.80882
2.71443
2.62457
2.53898
2.45742
2.37965
2.30545
2.23461
2.16693
2.10223
2.04033
1.98105
1.92425
1.86977
1.81747
1.76723
1.71891
1.6724
1.6276
1.5844
1.5427
1.50242
1.46347
1.42577
1.38926
1.35386
1.31952
1.28617
1.25376
1.22224
1.19156
1.16169
1.13259
1.10421
1.07653
1.04951
1.02314
0.997372
0.972196
0.947589
0.923529
0.9
0.876985
0.854468
0.832436
0.810875
0.789773
0.769119
0.748903
0.729113
0.709741
0.690778
0.672216
0.654045
0.636259
0.618849
0.601809
0.585131
0.568809
0.552837
0.537207
0.521914
0.506951
0.492313
0.477994
0.463989
0.450292
0.436898
0.423801
0.410998
0.398482
0.38625
0.374296
0.362617
0.351208
0.340065
0.329183
0.31856
0.30819
0.298071
0.288198
0.278568
0.269178
0.260024
0.251102
0.24241
0.233944
0.225702
0.217679
0.209872
0.20228
0.194898
0.187723
0.180753
0.173984
0.167413
0.161038
0.154855
0.148861
0.143053
0.137428
0.131984
0.126716
0.121622
0.116698
0.111943
0.107352
0.102922
0.098651
0.0945353
0.0905717
0.0867573
0.083089
0.0795637
0.0761782
0.0729295
0.0698144
0.0668299
0.0639728
0.0612399
0.0586282
0.0561343
0.0537551
0.0514874
0.0493276
0.0472726
0.0453188
0.0434627
0.0417009
0.0400297
0.0384455
0.0369449
0.0355243
0.0341804
0.0329098
0.0317095
0.0305764
0.0295078
0.0285008
0.0275529
0.0266616
0.0258244
0.0250387
0.0243021
0.0236119
0.0229656
0.0223605
0.0217939
0.0212631
0.0207655
0.0202985
0.0198596
0.0194463
0.0190564
0.0186877
0.0183381
0.0180059
0.0176893
0.0173867
0.0170968
0.0168182
0.0165499
0.0162908
0.0160401
0.0157969
0.0155605
0.0153304
0.0151059
0.0148867
0.0146723
0.0144623
0.0142564
0.0140545
0.0138561
0.0136612
0.0134695
0.0132809
0.0130953
0.0129124
0.0127324
0.0125549
0.01238
0.0122076
0.0120375
0.0118699
0.0117045
0.0115414
0.0113804
0.0112217
0.011065
0.0109104
0.0107579
0.0106074
0.0104588
0.0103122
0.0101675
0.0100247
0.00988378
0.00974468
0.00960739
0.00947187
0.00933812
0.00920609
0.00907576
0.00894711
0.00882012
0.00869477
0.00857103
0.00844889
0.0083283
0.00820926
0.00809173
0.00797569
0.00786112
0.00774801
0.00763633
0.00752607
0.0074172
0.0073097
0.00720354
0.00709871
0.0069952
0.00689298
0.00679204
0.00669235
0.0065939
0.00649667
0.00640063
0.00630577
0.00621207
0.00611952
0.00602809
0.00593777
0.00584855
0.0057604
0.0056733
0.00558725
0.00550222
0.00541819
0.00533516
0.0052531
0.00517199
0.00509182
0.00501257
0.00493423
0.00485677
0.0047802
0.00470449
0.00462963
0.00455561
0.00448241
0.00441002
0.00433842
0.00426761
0.00419756
0.00412828
0.00405974
0.00399194
0.00392485
0.00385848
0.00379281
0.00372782
0.0036635
0.00359983
0.00353682
0.00347444
0.00341268
0.00335152
0.00329097
0.003231
0.00317161
0.00311279
0.00305453
0.00299682
0.00293964
0.00288299
0.00282686
0.00277123
0.00271609
0.00266145
0.00260728
0.00255358
0.00250034
0.00244755
0.00239519
0.00234326
0.00229174
0.00224062
0.00218991
0.00213958
0.00208964
0.00204007
0.00199088
0.00194204
0.00189354
0.00184538
0.00179754
0.00175002
0.0017028
0.00165588
0.00160925
0.0015629
0.00151683
0.00147104
0.0014255
0.00138021
0.00133518
0.00129037
0.0012458
0.00120145
0.00115731
0.00111337
0.00106964
0.00102609
0.000982722
0.000939529
0.000896503
0.000853638
0.000810925
0.000768357
0.000725927
0.000683626
0.000641446
0.000599379
0.000557418
0.000515557
0.000473788
0.000432108
0.000390509
0.000348987
0.000307532
0.000266137
0.000224785
0.000183487
0.000142157
0.000101075
5.94012e-05
2.11551e-05
186.641
190.656
191.631
194.427
195.571
195.623
195.566
195.688
195.824
195.755
195.37
194.598
193.374
191.653
189.424
186.703
183.524
179.928
175.966
171.691
167.159
162.421
157.529
152.526
147.454
142.35
137.247
132.171
127.147
122.196
117.333
112.572
107.925
103.4
99.0042
94.7417
90.616
86.6289
82.7814
79.0732
75.5034
72.0704
68.772
65.6059
62.5689
59.6581
56.8699
54.2008
51.6473
49.2054
46.8715
44.6418
42.5124
40.4796
38.5397
36.6891
34.9242
33.2415
31.6376
30.1092
28.6531
27.2663
25.9457
24.6886
23.4921
22.3536
21.2704
20.2403
19.2607
18.3294
17.4442
16.6031
15.8038
15.0447
14.3236
13.6389
12.9889
12.3719
11.7862
11.2304
10.7031
10.2028
9.72822
9.27806
8.85111
8.44621
8.06224
7.69814
7.35291
7.02557
6.71522
6.42097
6.14199
5.87749
5.62671
5.38894
5.1635
4.94974
4.74704
4.55481
4.3725
4.19957
4.03553
3.8799
3.73221
3.59204
3.45897
3.33261
3.21259
3.09856
2.99019
2.88715
2.78914
2.69587
2.60708
2.52251
2.44191
2.36505
2.29171
2.22168
2.15478
2.0908
2.02958
1.97095
1.91475
1.86084
1.80909
1.75935
1.7115
1.66544
1.62106
1.57825
1.53691
1.49697
1.45834
1.42094
1.3847
1.34956
1.31545
1.28232
1.25012
1.21879
1.18829
1.15858
1.12962
1.10138
1.07382
1.04692
1.02065
0.994977
0.96989
0.945364
0.921379
0.897919
0.874967
0.852509
0.830531
0.809021
0.787966
0.767356
0.747181
0.727431
0.708096
0.689168
0.670639
0.6525
0.634744
0.617364
0.600353
0.583703
0.567407
0.551461
0.535856
0.520587
0.505648
0.491033
0.476737
0.462753
0.449077
0.435703
0.422627
0.409843
0.397346
0.385132
0.373196
0.361534
0.350142
0.339015
0.32815
0.317542
0.307187
0.297083
0.287224
0.277609
0.268232
0.259091
0.250183
0.241504
0.233051
0.224821
0.216811
0.209017
0.201437
0.194067
0.186905
0.179947
0.17319
0.166632
0.160269
0.154098
0.148116
0.142321
0.136708
0.131276
0.12602
0.120939
0.116028
0.111284
0.106706
0.102288
0.0980296
0.0939262
0.0899751
0.0861731
0.0825172
0.0790042
0.0756312
0.0723949
0.0692924
0.0663204
0.063476
0.0607559
0.058157
0.0556761
0.0533101
0.0510557
0.0489094
0.0468681
0.0449281
0.043086
0.0413381
0.0396809
0.0381105
0.0366235
0.0352162
0.0338852
0.0326271
0.0314387
0.0303172
0.0292596
0.0282634
0.027326
0.0264451
0.0256181
0.0248427
0.0241165
0.0234367
0.0228008
0.0222062
0.02165
0.0211295
0.020642
0.0201848
0.0197553
0.019351
0.0189696
0.0186088
0.0182667
0.0179413
0.0176309
0.017334
0.0170493
0.0167754
0.0165112
0.0162559
0.0160084
0.0157682
0.0155344
0.0153065
0.0150841
0.0148666
0.0146537
0.014445
0.0142403
0.0140394
0.0138419
0.0136478
0.0134568
0.0132688
0.0130837
0.0129013
0.0127216
0.0125445
0.01237
0.0121978
0.012028
0.0118606
0.0116954
0.0115325
0.0113717
0.0112131
0.0110566
0.0109022
0.0107498
0.0105994
0.010451
0.0103045
0.0101599
0.0100173
0.00987643
0.00973744
0.00960025
0.00946485
0.00933119
0.00919926
0.00906903
0.00894048
0.00881359
0.00868833
0.00856469
0.00844263
0.00832214
0.00820318
0.00808574
0.00796978
0.0078553
0.00774228
0.00763069
0.00752051
0.00741173
0.0073043
0.00719823
0.00709348
0.00699005
0.0068879
0.00678704
0.00668743
0.00658905
0.00649189
0.00639592
0.00630113
0.0062075
0.00611501
0.00602366
0.00593341
0.00584425
0.00575617
0.00566914
0.00558315
0.00549818
0.00541422
0.00533125
0.00524926
0.00516821
0.0050881
0.00500891
0.00493063
0.00485324
0.00477672
0.00470107
0.00462627
0.0045523
0.00447916
0.00440682
0.00433528
0.00426452
0.00419453
0.0041253
0.00405681
0.00398906
0.00392203
0.0038557
0.00379008
0.00372513
0.00366086
0.00359724
0.00353427
0.00347194
0.00341022
0.00334911
0.0032886
0.00322868
0.00316934
0.00311056
0.00305235
0.00299468
0.00293754
0.00288094
0.00282484
0.00276925
0.00271416
0.00265955
0.00260542
0.00255177
0.00249856
0.00244581
0.00239349
0.00234159
0.00229011
0.00223903
0.00218835
0.00213805
0.00208815
0.00203862
0.00198946
0.00194066
0.0018922
0.00184407
0.00179627
0.00174878
0.0017016
0.00165471
0.00160811
0.0015618
0.00151576
0.00147
0.00142449
0.00137924
0.00133423
0.00128946
0.00124492
0.0012006
0.00115649
0.00111259
0.00106888
0.00102537
0.00098203
0.000938868
0.000895872
0.000853037
0.000810355
0.000767817
0.000725417
0.000683146
0.000640995
0.000598958
0.000557026
0.000515193
0.000473454
0.000431802
0.000390232
0.000348738
0.000307311
0.000265945
0.000224622
0.000183352
0.000142051
0.000100999
5.93563e-05
2.1139e-05
176.707
180.766
181.782
184.815
186.06
186.295
186.562
187.094
187.692
188.126
188.253
187.975
187.204
185.888
184.018
181.615
178.716
175.372
171.64
167.578
163.245
158.696
153.984
149.155
144.251
139.308
134.361
129.435
124.556
119.743
115.013
110.379
105.854
101.444
97.1581
92.9997
88.9726
85.0788
81.3193
77.6942
74.2027
70.8435
67.6147
64.5139
61.5384
58.6854
55.9516
53.3338
50.8283
48.4318
46.1405
43.9509
41.8594
39.8622
37.9558
36.1368
34.4016
32.7469
31.1694
29.6659
28.2332
26.8685
25.5688
24.3313
23.1534
22.0324
20.9659
19.9515
18.9867
18.0695
17.1977
16.3691
15.5819
14.8341
14.1239
13.4495
12.8092
12.2014
11.6246
11.0772
10.5578
10.0651
9.59766
9.15432
8.73386
8.33511
7.95699
7.59845
7.25849
6.93616
6.63055
6.3408
6.06609
5.80564
5.55871
5.32459
5.10261
4.89212
4.69253
4.50326
4.32375
4.15348
3.99196
3.83872
3.6933
3.55528
3.42425
3.29983
3.18165
3.06937
2.96264
2.86117
2.76465
2.67279
2.58534
2.50203
2.42262
2.34689
2.27462
2.20561
2.13966
2.07658
2.01621
1.95839
1.90295
1.84975
1.79866
1.74955
1.7023
1.6568
1.61293
1.5706
1.52972
1.49021
1.45197
1.41494
1.37904
1.34422
1.31041
1.27755
1.2456
1.2145
1.18421
1.1547
1.12593
1.09785
1.07045
1.04369
1.01755
0.991999
0.967021
0.942595
0.918702
0.895327
0.872454
0.850068
0.828157
0.806709
0.785713
0.765158
0.745034
0.725332
0.706043
0.687158
0.668671
0.650572
0.632854
0.615511
0.598535
0.581919
0.565657
0.549742
0.534168
0.51893
0.50402
0.489434
0.475165
0.461209
0.447559
0.434211
0.42116
0.4084
0.395927
0.383735
0.371822
0.360182
0.348811
0.337704
0.326859
0.31627
0.305934
0.295848
0.286008
0.276409
0.26705
0.257926
0.249035
0.240372
0.231935
0.223721
0.215727
0.207948
0.200384
0.193029
0.185882
0.17894
0.172198
0.165655
0.159308
0.153152
0.147186
0.141405
0.135808
0.130391
0.125151
0.120085
0.115189
0.110461
0.105898
0.101496
0.0972529
0.0931649
0.0892292
0.0854427
0.0818023
0.0783048
0.0749473
0.0717267
0.0686397
0.0656835
0.0628548
0.0601506
0.0575677
0.0551031
0.0527535
0.0505157
0.0483864
0.0463622
0.0444396
0.042615
0.0408847
0.0392451
0.0376922
0.0362224
0.0348318
0.033517
0.0322745
0.0311011
0.0299939
0.02895
0.0279671
0.0270427
0.0261745
0.0253603
0.0245977
0.0238843
0.0232176
0.0225949
0.0220134
0.0214704
0.020963
0.0204882
0.0200434
0.0196258
0.0192328
0.0188621
0.0185113
0.0181784
0.0178615
0.017559
0.0172692
0.0169908
0.0167227
0.0164637
0.0162129
0.0159696
0.0157329
0.0155023
0.0152772
0.0150572
0.0148418
0.0146308
0.0144238
0.0142205
0.0140208
0.0138244
0.0136312
0.0134411
0.0132538
0.0130693
0.0128875
0.0127083
0.0125317
0.0123575
0.0121857
0.0120162
0.0118491
0.0116842
0.0115215
0.0113609
0.0112025
0.0110462
0.010892
0.0107397
0.0105895
0.0104412
0.0102949
0.0101505
0.0100079
0.00986725
0.00972839
0.00959134
0.00945607
0.00932254
0.00919073
0.00906062
0.00893219
0.00880542
0.00868028
0.00855675
0.00843481
0.00831443
0.00819558
0.00807825
0.0079624
0.00784803
0.00773512
0.00762364
0.00751357
0.00740488
0.00729756
0.00719159
0.00708694
0.0069836
0.00688156
0.00678078
0.00668127
0.00658298
0.00648591
0.00639003
0.00629533
0.00620179
0.00610939
0.00601812
0.00592796
0.00583888
0.00575088
0.00566394
0.00557803
0.00549314
0.00540926
0.00532637
0.00524445
0.00516348
0.00508345
0.00500434
0.00492613
0.00484881
0.00477237
0.0046968
0.00462207
0.00454817
0.0044751
0.00440283
0.00433135
0.00426066
0.00419074
0.00412157
0.00405315
0.00398546
0.00391849
0.00385223
0.00378666
0.00372178
0.00365756
0.00359401
0.00353109
0.00346881
0.00340715
0.0033461
0.00328565
0.00322578
0.00316649
0.00310778
0.00304961
0.002992
0.00293492
0.00287837
0.00282232
0.00276679
0.00271174
0.00265719
0.00260311
0.0025495
0.00249635
0.00244364
0.00239136
0.00233951
0.00228807
0.00223703
0.0021864
0.00213615
0.00208629
0.00203681
0.00198769
0.00193893
0.00189052
0.00184244
0.00179468
0.00174723
0.00170009
0.00165325
0.00160669
0.00156042
0.00151442
0.0014687
0.00142323
0.00137802
0.00133305
0.00128832
0.00124381
0.00119953
0.00115547
0.0011116
0.00106794
0.00102446
0.000981164
0.000938041
0.000895084
0.000852286
0.000809642
0.000767142
0.000724779
0.000682546
0.000640432
0.000598432
0.000556536
0.00051474
0.000473036
0.00043142
0.000389885
0.000348427
0.000307036
0.000265705
0.000224417
0.000183184
0.000141919
0.000100904
5.93001e-05
2.1119e-05
164.763
168.437
169.588
172.885
174.262
174.778
175.496
176.576
177.782
178.861
179.637
179.972
179.759
178.938
177.503
175.481
172.92
169.88
166.424
162.619
158.529
154.211
149.719
145.102
140.403
135.658
130.9
126.157
121.453
116.808
112.238
107.758
103.379
99.1084
94.954
90.9206
87.0117
83.2296
79.5756
76.0498
72.6519
69.3808
66.2349
63.212
60.3099
57.5259
54.8569
52.3
49.852
47.5094
45.269
43.1272
41.0807
39.1259
37.2595
35.4781
33.7784
32.1571
30.611
29.1371
27.7324
26.394
25.1191
23.9051
22.7493
21.6492
20.6025
19.6067
18.6597
17.7593
16.9033
16.0899
15.317
14.5827
13.8854
13.2233
12.5946
11.9979
11.4316
10.8942
10.3843
9.9006
9.44177
9.00659
8.59387
8.20248
7.83135
7.47944
7.14577
6.82942
6.52948
6.24511
5.9755
5.71989
5.47755
5.24778
5.02993
4.82336
4.62748
4.44173
4.26556
4.09847
3.93996
3.78957
3.64686
3.51141
3.38282
3.26072
3.14473
3.03453
2.92978
2.83018
2.73543
2.64526
2.55939
2.47759
2.39962
2.32524
2.25425
2.18644
2.12163
2.05964
2.00028
1.94342
1.88888
1.83654
1.78625
1.73789
1.69134
1.6465
1.60325
1.5615
1.52117
1.48215
1.44439
1.40779
1.37231
1.33786
1.3044
1.27187
1.24021
1.20939
1.17937
1.15009
1.12153
1.09366
1.06644
1.03984
1.01386
0.988447
0.963598
0.93929
0.915507
0.892232
0.869451
0.847151
0.825319
0.803945
0.783018
0.762527
0.742464
0.722819
0.703584
0.684751
0.666313
0.648261
0.630589
0.613289
0.596355
0.57978
0.563558
0.547682
0.532145
0.516943
0.502069
0.487517
0.473282
0.459358
0.44574
0.432422
0.419401
0.40667
0.394225
0.382061
0.370174
0.35856
0.347214
0.336132
0.32531
0.314745
0.304432
0.294367
0.284548
0.274971
0.265633
0.256529
0.247657
0.239014
0.230597
0.222401
0.214426
0.206666
0.19912
0.191784
0.184655
0.177731
0.171008
0.164483
0.158154
0.152017
0.146069
0.140307
0.134728
0.12933
0.124108
0.11906
0.114183
0.109473
0.104929
0.100546
0.0963208
0.0922513
0.0883342
0.0845662
0.0809444
0.0774655
0.0741266
0.0709246
0.0678564
0.0649189
0.0621091
0.0594239
0.0568603
0.0544151
0.0520851
0.0498673
0.0477583
0.0457547
0.043853
0.0420496
0.0403407
0.0387224
0.0371908
0.0357418
0.0343716
0.0330764
0.0318527
0.0306972
0.029607
0.0285795
0.0276122
0.0267031
0.02585
0.0250509
0.0243035
0.0236055
0.0229545
0.0223477
0.0217823
0.0212553
0.0207637
0.0203045
0.0198748
0.0194716
0.0190924
0.0187345
0.0183958
0.018074
0.0177674
0.0174742
0.0171928
0.0169221
0.0166608
0.0164079
0.0161625
0.0159239
0.0156915
0.0154646
0.0152427
0.0150256
0.0148127
0.0146038
0.0143987
0.0141971
0.0139989
0.0138037
0.0136116
0.0134224
0.013236
0.0130522
0.0128711
0.0126925
0.0125163
0.0123426
0.0121712
0.0120021
0.0118353
0.0116707
0.0115082
0.011348
0.0111898
0.0110337
0.0108797
0.0107277
0.0105776
0.0104296
0.0102834
0.0101391
0.00999677
0.00985625
0.00971755
0.00958066
0.00944553
0.00931216
0.0091805
0.00905054
0.00892225
0.00879562
0.00867062
0.00854724
0.00842543
0.00830518
0.00818647
0.00806926
0.00795355
0.00783931
0.00772653
0.00761517
0.00750523
0.00739667
0.00728947
0.00718362
0.00707909
0.00697587
0.00687394
0.00677328
0.00667388
0.0065757
0.00647874
0.00638296
0.00628837
0.00619493
0.00610264
0.00601148
0.00592142
0.00583245
0.00574455
0.0056577
0.00557189
0.0054871
0.00540332
0.00532052
0.00523869
0.00515782
0.00507788
0.00499886
0.00492074
0.00484351
0.00476716
0.00469167
0.00461703
0.00454322
0.00447022
0.00439804
0.00432664
0.00425603
0.00418619
0.0041171
0.00404876
0.00398115
0.00391425
0.00384806
0.00378257
0.00371776
0.00365361
0.00359012
0.00352728
0.00346507
0.00340347
0.00334249
0.0032821
0.00322231
0.00316309
0.00310443
0.00304634
0.00298879
0.00293177
0.00287528
0.0028193
0.00276382
0.00270884
0.00265435
0.00260033
0.00254678
0.00249368
0.00244103