/*--------------------------------*- C++ -*----------------------------------*\
| =========                 |                                                 |
| \\      /  F ield         | OpenFOAM: The Open Source CFD Toolbox           |
|  \\    /   O peration     | Version:  v2006                                 |
|   \\  /    A nd           | Website:  www.openfoam.com                      |
|    \\/     M anipulation  |                                                 |
\*---------------------------------------------------------------------------*/
FoamFile
{
    version     2.0;
    format      ascii;
    class       volScalarField;
    location    "6";
    object      r;
}
// * * * * * * * * * * * * * * * * * * * * * * * * * * * * * * * * * * * * * //

dimensions      [1 2 0 0 0 0 0];


internalField   nonuniform List<scalar> 
500
(
2.73839e-55
1.28895e-54
4.08977e-54
1.19073e-53
3.37556e-53
9.46933e-53
2.64129e-52
7.33611e-52
2.02983e-51
5.59563e-51
1.53691e-50
4.20589e-50
1.14676e-49
3.11519e-49
8.43123e-49
2.27345e-48
6.10746e-48
1.6346e-47
4.35843e-47
1.15774e-46
3.06374e-46
8.07684e-46
2.12117e-45
5.54942e-45
1.44628e-44
3.75477e-44
9.71032e-44
2.50148e-43
6.41903e-43
1.64075e-42
4.17745e-42
1.05942e-41
2.67614e-41
6.73328e-41
1.68739e-40
4.21181e-40
1.04708e-39
2.59265e-39
6.39374e-39
1.57038e-38
3.84141e-38
9.35847e-38
2.2706e-37
5.48646e-37
1.32025e-36
3.16389e-36
7.55068e-36
1.7945e-35
4.24705e-35
1.00095e-34
2.34915e-34
5.49007e-34
1.27764e-33
2.96072e-33
6.83182e-33
1.56972e-32
3.59126e-32
8.181e-32
1.85564e-31
4.19088e-31
9.42398e-31
2.10996e-30
4.70351e-30
1.04393e-29
2.30682e-29
5.07513e-29
1.11164e-28
2.42418e-28
5.26304e-28
1.13757e-27
2.44784e-27
5.24382e-27
1.11832e-26
2.37428e-26
5.01814e-26
1.05583e-25
2.21145e-25
4.61093e-25
9.57032e-25
1.97735e-24
4.06683e-24
8.32606e-24
1.6968e-23
3.44208e-23
6.95041e-23
1.39699e-22
2.79489e-22
5.56572e-22
1.10321e-21
2.17657e-21
4.27426e-21
8.35445e-21
1.62533e-20
3.1472e-20
6.06551e-20
1.1635e-19
2.22133e-19
4.22095e-19
7.98275e-19
1.50257e-18
2.81487e-18
5.24826e-18
9.73881e-18
1.79857e-17
3.30578e-17
6.04709e-17
1.10088e-16
1.9946e-16
3.59657e-16
6.4541e-16
1.15265e-15
2.04865e-15
3.62368e-15
6.37881e-15
1.11747e-14
1.9482e-14
3.38016e-14
5.83635e-14
1.00287e-13
1.71494e-13
2.91845e-13
4.94256e-13
8.33005e-13
1.39714e-12
2.33199e-12
3.87356e-12
6.40306e-12
1.05332e-11
1.72435e-11
2.80922e-11
4.5545e-11
7.34835e-11
1.17987e-10
1.88528e-10
2.99787e-10
4.74404e-10
7.47103e-10
1.17088e-09
1.82618e-09
2.83451e-09
4.37839e-09
6.73063e-09
1.02968e-08
1.56768e-08
2.37533e-08
3.58179e-08
5.37515e-08
8.02782e-08
1.19323e-07
1.7651e-07
2.59861e-07
3.80749e-07
5.55222e-07
8.05799e-07
1.16392e-06
1.67324e-06
2.39407e-06
3.40927e-06
4.8321e-06
6.81655e-06
9.57087e-06
1.33752e-05
1.86044e-05
2.57574e-05
3.54947e-05
4.86862e-05
6.64711e-05
9.03336e-05
0.000122197
0.000164541
0.000220542
0.000294253
0.000390812
0.000516699
0.000680042
0.000890983
0.0011621
0.00150893
0.0019505
0.00251006
0.00321582
0.0041018
0.00520884
0.00658563
0.00828994
0.0103899
0.0129654
0.0161095
0.0199301
0.0245513
0.0301154
0.0367841
0.0447402
0.054189
0.0653597
0.0785063
0.0939085
0.111872
0.132729
0.156836
0.184576
0.216355
0.252598
0.29375
0.34027
0.392625
0.45129
0.516738
0.589433
0.669828
0.758352
0.855407
0.961356
1.07652
1.20115
1.33547
1.47961
1.63363
1.7975
1.97114
2.15434
2.34682
2.54822
2.75806
2.9758
3.20081
3.43235
3.66966
3.91188
4.15809
4.40737
4.65871
4.91112
5.16357
5.41507
5.66461
5.91123
6.15398
6.39198
6.6244
6.85048
7.06952
7.2809
7.48409
7.67862
7.86413
8.04031
8.20696
8.36394
8.51118
8.64868
8.7765
8.89475
9.00359
9.10319
9.19378
9.27559
9.34886
9.41384
9.47075
9.51983
9.56126
9.59524
9.62189
9.64133
9.65361
9.65876
9.65677
9.64756
9.63104
9.60706
9.57544
9.53597
9.4884
9.43249
9.36795
9.29451
9.2119
9.11985
9.01813
8.90653
8.78487
8.65305
8.51099
8.3587
8.19625
8.02379
7.84156
7.64986
7.44912
7.2398
7.02248
6.79783
6.56656
6.32947
6.08743
5.84135
5.59219
5.34093
5.08858
4.83616
4.58468
4.33514
4.08852
3.84573
3.60767
3.37517
3.14897
2.92977
2.71819
2.51473
2.31986
2.13391
1.95717
1.78982
1.63196
1.48361
1.34473
1.21521
1.09486
0.983448
0.8807
0.786288
0.699857
0.621023
0.54938
0.48451
0.425985
0.373376
0.326255
0.2842
0.246802
0.213662
0.1844
0.158654
0.13608
0.116357
0.0991854
0.0842866
0.0714046
0.0603049
0.0507737
0.0426172
0.0356611
0.0297487
0.0247405
0.0205124
0.0169549
0.0139717
0.0114782
0.00940111
0.00767651
0.0062493
0.00507207
0.00410419
0.00331101
0.00266311
0.00213558
0.00170743
0.00136105
0.00108171
0.000857161
0.000677215
0.000533468
0.000418997
0.000328125
0.00025621
0.000199473
0.000154849
0.000119859
9.25078e-05
7.11922e-05
5.46307e-05
4.18019e-05
3.18943e-05
2.42657e-05
1.84094e-05
1.39269e-05
1.05062e-05
7.90338e-06
5.92874e-06
4.43505e-06
3.30844e-06
2.46118e-06
1.82583e-06
1.35076e-06
9.96557e-07
7.33223e-07
5.38002e-07
3.93685e-07
2.873e-07
2.09097e-07
1.51772e-07
1.09867e-07
7.93199e-08
5.71134e-08
4.10147e-08
2.93759e-08
2.09844e-08
1.49506e-08
1.06239e-08
7.52964e-09
5.32273e-09
3.75291e-09
2.63924e-09
1.85128e-09
1.29524e-09
9.03897e-10
6.29188e-10
4.36857e-10
3.02551e-10
2.09008e-10
1.44025e-10
9.89974e-11
6.78777e-11
4.64249e-11
3.16738e-11
2.15564e-11
1.46347e-11
9.91126e-12
6.69596e-12
4.51274e-12
3.034e-12
2.03489e-12
1.36151e-12
9.08782e-13
6.05146e-13
4.02001e-13
2.66418e-13
1.76146e-13
1.16187e-13
7.64583e-14
5.01967e-14
3.28786e-14
2.14854e-14
1.40077e-14
9.11152e-15
5.9131e-15
3.82865e-15
2.47335e-15
1.59418e-15
1.02519e-15
6.578e-16
4.21119e-16
2.68994e-16
1.71439e-16
1.09021e-16
6.91746e-17
4.3795e-17
2.76659e-17
1.74387e-17
1.09681e-17
6.88339e-18
4.31053e-18
2.69351e-18
1.67947e-18
1.04494e-18
6.48751e-19
4.0192e-19
2.48472e-19
1.53284e-19
9.43618e-20
5.79672e-20
3.55352e-20
2.17383e-20
1.32706e-20
8.08446e-21
4.9149e-21
2.98183e-21
1.80534e-21
1.0908e-21
6.57727e-22
3.95789e-22
2.37684e-22
1.4245e-22
8.52015e-23
5.08583e-23
3.02977e-23
1.80132e-23
1.06883e-23
6.3295e-24
3.74087e-24
2.20659e-24
1.29904e-24
7.63259e-25
4.47587e-25
2.61964e-25
1.53026e-25
8.92179e-26
5.19165e-26
3.01528e-26
1.74792e-26
1.01132e-26
5.84029e-27
3.36637e-27
1.93679e-27
1.11245e-27
6.38816e-28
3.70723e-28
2.34756e-28
)
;

boundaryField
{
    right
    {
        type            zeroGradient;
    }
    left
    {
        type            inletOutlet;
        inletValue      uniform 0;
        value           uniform 0;
    }
    top
    {
        type            zeroGradient;
    }
    bottom
    {
        type            zeroGradient;
    }
    empty
    {
        type            empty;
    }
}


// ************************************************************************* //
