/*--------------------------------*- C++ -*----------------------------------*\
| =========                 |                                                 |
| \\      /  F ield         | OpenFOAM: The Open Source CFD Toolbox           |
|  \\    /   O peration     | Version:  v2006                                 |
|   \\  /    A nd           | Website:  www.openfoam.com                      |
|    \\/     M anipulation  |                                                 |
\*---------------------------------------------------------------------------*/
FoamFile
{
    version     2.0;
    format      ascii;
    class       volVectorField;
    location    "14.3";
    object      U;
}
// * * * * * * * * * * * * * * * * * * * * * * * * * * * * * * * * * * * * * //

dimensions      [0 1 -1 0 0 0 0];


internalField   nonuniform List<vector> 
52500
(
(-0.000360927 -0.00152059 0)
(0.000566574 -0.00247251 0)
(0.0013389 -0.00241913 0)
(0.00186777 -0.00221503 0)
(0.00237084 -0.00213224 0)
(0.00284212 -0.00211734 0)
(0.0033237 -0.00212298 0)
(0.00380001 -0.00212102 0)
(0.00426749 -0.00210614 0)
(0.00471928 -0.00208287 0)
(0.00515286 -0.00205346 0)
(0.00556834 -0.00201976 0)
(0.00596016 -0.00198205 0)
(0.00632683 -0.00193911 0)
(0.00666446 -0.00189154 0)
(0.00697056 -0.00183775 0)
(0.0072424 -0.00177856 0)
(0.00747511 -0.00171285 0)
(0.00766571 -0.00164037 0)
(0.00780988 -0.00156056 0)
(0.00790347 -0.00147356 0)
(0.00793924 -0.00138059 0)
(0.00792086 -0.00128284 0)
(0.00784674 -0.00118387 0)
(0.00771298 -0.00108096 0)
(0.00752476 -0.000975681 0)
(0.00727652 -0.000869822 0)
(0.00696816 -0.000763068 0)
(0.00660256 -0.00065776 0)
(0.00617889 -0.000554515 0)
(0.00569668 -0.000453236 0)
(0.00515635 -0.000351824 0)
(0.00455534 -0.000248642 0)
(0.00389146 -0.000140452 0)
(0.00316413 -2.71097e-05 0)
(0.00237047 9.05108e-05 0)
(0.00150938 0.00020977 0)
(0.000582014 0.000327964 0)
(-0.000404386 0.00044315 0)
(-0.00145102 0.000553911 0)
(-0.00256211 0.000666637 0)
(-0.00373726 0.000788789 0)
(-0.00498206 0.000927836 0)
(-0.00630332 0.00108715 0)
(-0.00770609 0.00126269 0)
(-0.0091901 0.00144246 0)
(-0.0107474 0.00160964 0)
(-0.0123622 0.00174781 0)
(-0.0140127 0.00184599 0)
(-0.0156748 0.00190095 0)
(-0.0173257 0.00191643 0)
(-0.0189466 0.00190037 0)
(-0.0205232 0.00186184 0)
(-0.022046 0.00180895 0)
(-0.0235092 0.00174798 0)
(-0.0249098 0.00168326 0)
(-0.0262465 0.00161739 0)
(-0.0275192 0.00155147 0)
(-0.0287277 0.00148541 0)
(-0.029872 0.00141826 0)
(-0.0309512 0.00134867 0)
(-0.0319641 0.0012755 0)
(-0.0329092 0.00119829 0)
(-0.0337849 0.0011175 0)
(-0.0345904 0.00103434 0)
(-0.0353251 0.000950356 0)
(-0.0359894 0.000866832 0)
(-0.036584 0.000784394 0)
(-0.0371097 0.000702934 0)
(-0.0375673 0.000621819 0)
(-0.0379573 0.000540239 0)
(-0.0382801 0.000457536 0)
(-0.0385358 0.000373418 0)
(-0.0387247 0.000288085 0)
(-0.0388481 0.000203918 0)
(-0.0389086 0.000120984 0)
(-0.0389104 4.0815e-05 0)
(-0.0388561 -3.38478e-05 0)
(-0.0387476 -0.000102662 0)
(-0.0385887 -0.000165841 0)
(-0.0383836 -0.00022328 0)
(-0.0381362 -0.000275399 0)
(-0.0378496 -0.000322313 0)
(-0.0375267 -0.000364808 0)
(-0.0371707 -0.000403607 0)
(-0.036784 -0.000438728 0)
(-0.0363688 -0.00047042 0)
(-0.0359271 -0.000498686 0)
(-0.0354608 -0.000523868 0)
(-0.0349712 -0.000546606 0)
(-0.0344592 -0.000567411 0)
(-0.0339251 -0.000587485 0)
(-0.0333686 -0.000607584 0)
(-0.0327895 -0.00062656 0)
(-0.0321893 -0.000642664 0)
(-0.0315708 -0.000652059 0)
(-0.0309388 -0.000652145 0)
(-0.0302988 -0.000641349 0)
(-0.029657 -0.000621044 0)
(-0.0290187 -0.000594461 0)
(-0.0283877 -0.000565427 0)
(-0.0277665 -0.000536724 0)
(-0.0271555 -0.000510031 0)
(-0.0265553 -0.000485673 0)
(-0.0259655 -0.0004635 0)
(-0.0253862 -0.000443205 0)
(-0.0248173 -0.000424158 0)
(-0.0242589 -0.000405792 0)
(-0.0237114 -0.000387431 0)
(-0.0231749 -0.000369331 0)
(-0.0226502 -0.000350983 0)
(-0.0221378 -0.000331802 0)
(-0.0216383 -0.000311731 0)
(-0.0211525 -0.00029099 0)
(-0.020682 -0.000268623 0)
(-0.0202268 -0.000244797 0)
(-0.0197883 -0.00021984 0)
(-0.019368 -0.000192872 0)
(-0.0189668 -0.000164133 0)
(-0.0185858 -0.000132985 0)
(-0.0182259 -9.96038e-05 0)
(-0.0178888 -6.34887e-05 0)
(-0.017576 -2.41688e-05 0)
(-0.0172893 1.94264e-05 0)
(-0.0170296 6.7743e-05 0)
(-0.0167981 0.000121136 0)
(-0.0165964 0.000178871 0)
(-0.0164251 0.000240643 0)
(-0.0162837 0.00030423 0)
(-0.0161719 0.000367408 0)
(-0.016088 0.000427955 0)
(-0.0160298 0.000484089 0)
(-0.0159955 0.000535578 0)
(-0.0159833 0.000583997 0)
(-0.0159935 0.000632663 0)
(-0.0160286 0.000685974 0)
(-0.0160941 0.000748401 0)
(-0.0161978 0.000823598 0)
(-0.0163492 0.000913997 0)
(-0.0165584 0.00101938 0)
(-0.0168349 0.00113785 0)
(-0.017187 0.00126573 0)
(-0.0176213 0.00140025 0)
(-0.0181425 0.00153663 0)
(-0.0187533 0.00167329 0)
(-0.019456 0.00181086 0)
(-0.0202537 0.00195216 0)
(-0.0211516 0.00210178 0)
(-0.0221567 0.00226456 0)
(-0.0232779 0.00244356 0)
(-0.0245241 0.00263815 0)
(-0.025902 0.00284333 0)
(-0.0274143 0.00305083 0)
(-0.0290589 0.00325151 0)
(-0.0308288 0.00343758 0)
(-0.032714 0.00360316 0)
(-0.0347029 0.00374325 0)
(-0.0367825 0.00385273 0)
(-0.0389371 0.00392573 0)
(-0.0411421 0.0039527 0)
(-0.0433654 0.00392174 0)
(-0.0455723 0.00382551 0)
(-0.0477269 0.00366561 0)
(-0.0497976 0.00345428 0)
(-0.0517617 0.00321215 0)
(-0.0536089 0.00296323 0)
(-0.0553415 0.00272917 0)
(-0.0569716 0.00252507 0)
(-0.0585174 0.00235788 0)
(-0.0599986 0.00222723 0)
(-0.0614332 0.00212768 0)
(-0.0628355 0.00205126 0)
(-0.0642157 0.00198951 0)
(-0.0655794 0.00193471 0)
(-0.0669291 0.00188059 0)
(-0.0682641 0.00182232 0)
(-0.0695818 0.00175649 0)
(-0.0708781 0.00168078 0)
(-0.0721479 0.00159374 0)
(-0.0733856 0.00149461 0)
(-0.074585 0.00138325 0)
(-0.0757401 0.00126024 0)
(-0.0768452 0.00112713 0)
(-0.0778956 0.000986867 0)
(-0.0788879 0.000844087 0)
(-0.079821 0.000704977 0)
(-0.0806966 0.000576581 0)
(-0.0815194 0.000465662 0)
(-0.0822971 0.000377532 0)
(-0.0830394 0.000315322 0)
(-0.0837575 0.000279899 0)
(-0.0844628 0.000270197 0)
(-0.0851661 0.000283636 0)
(-0.0858774 0.00031649 0)
(-0.0866053 0.00036402 0)
(-0.0873565 0.000420616 0)
(-0.088136 0.000480253 0)
(-0.0889463 0.000536951 0)
(-0.0897868 0.000585315 0)
(-0.0906551 0.000621412 0)
(-0.0915467 0.000643269 0)
(-0.0924561 0.000650965 0)
(-0.0933775 0.000646417 0)
(-0.094306 0.000632825 0)
(-0.0952371 0.000613785 0)
(-0.096168 0.000592801 0)
(-0.0970971 0.000572667 0)
(-0.0980236 0.000555221 0)
(-0.0989473 0.000541275 0)
(-0.0998686 0.000530785 0)
(-0.100788 0.000523203 0)
(-0.101707 0.000517847 0)
(-0.102625 0.000514267 0)
(-0.103544 0.00051187 0)
(-0.104463 0.000509961 0)
(-0.105384 0.000508533 0)
(-0.106307 0.000507567 0)
(-0.107232 0.000507025 0)
(-0.10816 0.000506944 0)
(-0.109091 0.000507515 0)
(-0.110027 0.000508733 0)
(-0.110968 0.000510567 0)
(-0.111914 0.000513014 0)
(-0.112866 0.000516072 0)
(-0.113826 0.000519659 0)
(-0.114792 0.000523765 0)
(-0.115766 0.000528494 0)
(-0.116749 0.000533795 0)
(-0.117741 0.000539765 0)
(-0.118742 0.000546356 0)
(-0.119753 0.000553558 0)
(-0.120775 0.000561628 0)
(-0.121807 0.000570671 0)
(-0.122851 0.000580782 0)
(-0.123906 0.000592043 0)
(-0.124974 0.00060446 0)
(-0.126053 0.000618052 0)
(-0.127145 0.000633114 0)
(-0.128251 0.000650138 0)
(-0.129371 0.0006694 0)
(-0.130504 0.000691219 0)
(-0.131652 0.000715954 0)
(-0.132815 0.000744311 0)
(-0.133994 0.000777262 0)
(-0.135191 0.000815759 0)
(-0.136406 0.000860486 0)
(-0.137641 0.000911433 0)
(-0.138897 0.000967866 0)
(-0.140176 0.00102855 0)
(-0.141478 0.00109233 0)
(-0.142802 0.0011582 0)
(-0.144149 0.0012258 0)
(-0.145517 0.00129485 0)
(-0.146908 0.0013648 0)
(-0.148321 0.00143481 0)
(-0.149754 0.00150356 0)
(-0.151208 0.00156983 0)
(-0.152681 0.00163292 0)
(-0.154173 0.00169301 0)
(-0.155682 0.00175142 0)
(-0.157209 0.00181048 0)
(-0.158756 0.00187285 0)
(-0.160328 0.00194097 0)
(-0.161929 0.00201699 0)
(-0.163566 0.00210207 0)
(-0.165247 0.00219599 0)
(-0.166981 0.00229794 0)
(-0.168775 0.00240674 0)
(-0.170637 0.00252059 0)
(-0.172576 0.0026372 0)
(-0.174596 0.00275341 0)
(-0.176702 0.00286491 0)
(-0.178896 0.00296645 0)
(-0.181176 0.0030524 0)
(-0.183535 0.00311749 0)
(-0.185961 0.00315818 0)
(-0.18844 0.00317518 0)
(-0.190952 0.00317695 0)
(-0.193479 0.00318151 0)
(-0.196007 0.00321082 0)
(-0.198523 0.00327429 0)
(-0.201014 0.0033445 0)
(-0.203443 0.00334048 0)
(-0.205728 0.0031436 0)
(-0.207741 0.00265594 0)
(-0.209325 0.00187576 0)
(-0.210329 0.000932456 0)
(-0.210663 2.63594e-05 0)
(-0.210366 -0.000675377 0)
(-0.209653 -0.00109516 0)
(-0.208585 -0.00127792 0)
(-0.207279 -0.00130074 0)
(-0.205824 -0.0012466 0)
(-0.204279 -0.00118352 0)
(-0.202676 -0.0011569 0)
(-0.201027 -0.00118883 0)
(-0.199326 -0.00128186 0)
(-0.197556 -0.00142538 0)
(-0.1957 -0.00160255 0)
(-0.19374 -0.00179586 0)
(-0.191664 -0.00199108 0)
(-0.189465 -0.00217895 0)
(-0.187143 -0.002355 0)
(-0.184701 -0.00251806 0)
(-0.182148 -0.0026686 0)
(-0.179489 -0.00280737 0)
(-0.176731 -0.00293484 0)
(-0.173879 -0.0030513 0)
(-0.170935 -0.00315715 0)
(-0.167903 -0.00325321 0)
(-0.164784 -0.00334086 0)
(-0.161581 -0.00342197 0)
(-0.158298 -0.00349853 0)
(-0.154939 -0.00357216 0)
(-0.151506 -0.00364403 0)
(-0.148004 -0.003715 0)
(-0.144436 -0.00378575 0)
(-0.140804 -0.0038567 0)
(-0.137111 -0.00392808 0)
(-0.133361 -0.00400008 0)
(-0.129556 -0.0040728 0)
(-0.125699 -0.00414625 0)
(-0.121793 -0.00422051 0)
(-0.117839 -0.00429574 0)
(-0.113841 -0.00437193 0)
(-0.1098 -0.00444907 0)
(-0.105718 -0.00452736 0)
(-0.101598 -0.00460749 0)
(-0.0974428 -0.00469006 0)
(-0.0932531 -0.00477475 0)
(-0.089031 -0.0048616 0)
(-0.0847775 -0.00495037 0)
(-0.0804932 -0.00504025 0)
(-0.0761783 -0.0051303 0)
(-0.0718323 -0.00521997 0)
(-0.0674541 -0.0053077 0)
(-0.0630426 -0.00539243 0)
(-0.0585962 -0.00547237 0)
(-0.0541135 -0.00554532 0)
(-0.049594 -0.00560886 0)
(-0.0450375 -0.00566109 0)
(-0.0404452 -0.00570233 0)
(-0.0358182 -0.00573836 0)
(-0.0311545 -0.00578343 0)
(-0.0264428 -0.00586243 0)
(-0.0216692 -0.0060052 0)
(-0.0168374 -0.00621887 0)
(-0.0119113 -0.0064286 0)
(-0.0068134 -0.00629447 0)
(-0.00195279 -0.00475917 0)
(-0.00162818 0.00119609 0)
(-0.00327853 -0.000206838 0)
(-0.00572176 0.000330857 0)
(-0.00818596 0.000578785 0)
(-0.0106623 0.000593376 0)
(-0.0131013 0.00059569 0)
(-0.0155347 0.00060859 0)
(-0.0179675 0.000629069 0)
(-0.0203914 0.00065342 0)
(-0.0228007 0.000680967 0)
(-0.0251917 0.00071229 0)
(-0.0275617 0.000746742 0)
(-0.029908 0.000784995 0)
(-0.0322279 0.000827685 0)
(-0.0345189 0.00087504 0)
(-0.036778 0.000927744 0)
(-0.0390026 0.000985628 0)
(-0.0411898 0.0010494 0)
(-0.0433367 0.00111904 0)
(-0.0454402 0.00119465 0)
(-0.0474973 0.0012756 0)
(-0.0495034 0.00136004 0)
(-0.0514595 0.0014464 0)
(-0.0533689 0.00153363 0)
(-0.0552291 0.00162122 0)
(-0.0570405 0.00170758 0)
(-0.0588038 0.00179327 0)
(-0.0605205 0.00187877 0)
(-0.0621931 0.00196438 0)
(-0.0638243 0.00205146 0)
(-0.0654169 0.00214105 0)
(-0.0669724 0.00223386 0)
(-0.068492 0.00233004 0)
(-0.0699753 0.00242912 0)
(-0.0714221 0.00252929 0)
(-0.0728321 0.00262883 0)
(-0.0742058 0.00272602 0)
(-0.0755438 0.00282009 0)
(-0.0768467 0.002912 0)
(-0.0781148 0.00300139 0)
(-0.0793469 0.00309331 0)
(-0.0805386 0.00319027 0)
(-0.0816834 0.00329223 0)
(-0.0827735 0.00339526 0)
(-0.0838024 0.00349167 0)
(-0.0847661 0.00357161 0)
(-0.0856641 0.00362558 0)
(-0.0864989 0.0036467 0)
(-0.0872753 0.00363213 0)
(-0.0879985 0.00358308 0)
(-0.088673 0.00350386 0)
(-0.0893018 0.00340043 0)
(-0.0898864 0.00327906 0)
(-0.0904275 0.00314549 0)
(-0.0909246 0.00300437 0)
(-0.0913773 0.00285916 0)
(-0.0917853 0.00271209 0)
(-0.0921484 0.00256434 0)
(-0.0924672 0.00241626 0)
(-0.0927426 0.00226771 0)
(-0.0929764 0.0021184 0)
(-0.0931705 0.00196818 0)
(-0.0933272 0.00181722 0)
(-0.0934485 0.00166596 0)
(-0.0935359 0.00151503 0)
(-0.0935904 0.00136507 0)
(-0.0936127 0.00121655 0)
(-0.093603 0.00106981 0)
(-0.0935621 0.000925052 0)
(-0.093491 0.000782518 0)
(-0.0933914 0.000642571 0)
(-0.0932656 0.000505574 0)
(-0.0931161 0.000371773 0)
(-0.0929425 0.000242441 0)
(-0.0927486 0.000116331 0)
(-0.0925391 -4.71287e-06 0)
(-0.0923126 -0.000120092 0)
(-0.0920708 -0.000228242 0)
(-0.0918161 -0.000329142 0)
(-0.0915478 -0.000422804 0)
(-0.0912657 -0.00050988 0)
(-0.0909693 -0.000590496 0)
(-0.0906586 -0.000665399 0)
(-0.0903342 -0.000735159 0)
(-0.0899958 -0.000800296 0)
(-0.0896435 -0.00086132 0)
(-0.0892779 -0.000918919 0)
(-0.0888991 -0.000973942 0)
(-0.0885071 -0.00102717 0)
(-0.0881006 -0.00107965 0)
(-0.0876798 -0.00113253 0)
(-0.0872458 -0.00118573 0)
(-0.0867984 -0.00123874 0)
(-0.0863388 -0.00129051 0)
(-0.0858673 -0.00133873 0)
(-0.085384 -0.00138129 0)
(-0.0848885 -0.00141577 0)
(-0.0843802 -0.0014413 0)
(-0.0838595 -0.00145756 0)
(-0.0833262 -0.00146542 0)
(-0.0827804 -0.00146646 0)
(-0.0822233 -0.00146246 0)
(-0.0816568 -0.0014552 0)
(-0.0810833 -0.00144561 0)
(-0.0805048 -0.00143427 0)
(-0.0799226 -0.00142121 0)
(-0.0793372 -0.00140655 0)
(-0.0787496 -0.00139063 0)
(-0.0781619 -0.00137336 0)
(-0.0775747 -0.00135446 0)
(-0.0769877 -0.00133381 0)
(-0.0764022 -0.00131182 0)
(-0.0758193 -0.00128805 0)
(-0.0752383 -0.00126232 0)
(-0.0746597 -0.00123507 0)
(-0.0740849 -0.00120588 0)
(-0.0735126 -0.00117461 0)
(-0.0729434 -0.00114166 0)
(-0.0723775 -0.00110657 0)
(-0.0718148 -0.00106967 0)
(-0.0712555 -0.00103089 0)
(-0.0706989 -0.00099062 0)
(-0.0701439 -0.000949192 0)
(-0.0695897 -0.000906775 0)
(-0.0690353 -0.000864458 0)
(-0.0684793 -0.000822865 0)
(-0.0679195 -0.000783491 0)
(-0.0673539 -0.000746634 0)
(-0.0667818 -0.000713604 0)
(-0.0662018 -0.000684456 0)
(-0.0656147 -0.000658955 0)
(-0.0650225 -0.000635573 0)
(-0.0644285 -0.000612547 0)
(-0.0638369 -0.000586732 0)
(-0.0632531 -0.000554202 0)
(-0.0626822 -0.000511547 0)
(-0.0621278 -0.00045512 0)
(-0.0615912 -0.000382157 0)
(-0.0610727 -0.000291533 0)
(-0.0605722 -0.000183453 0)
(-0.0600885 -5.95172e-05 0)
(-0.0596191 7.77649e-05 0)
(-0.0591657 0.000223983 0)
(-0.0587303 0.000378655 0)
(-0.0583103 0.000542016 0)
(-0.0579066 0.000714188 0)
(-0.0575197 0.000896571 0)
(-0.0571491 0.00109108 0)
(-0.056792 0.00129891 0)
(-0.0564431 0.00151924 0)
(-0.0560955 0.00174854 0)
(-0.0557408 0.0019807 0)
(-0.0553709 0.00220827 0)
(-0.0549787 0.00242408 0)
(-0.0545581 0.00262245 0)
(-0.0541038 0.00279918 0)
(-0.0536089 0.00295055 0)
(-0.0530654 0.00307257 0)
(-0.052471 0.00316005 0)
(-0.0518355 0.00320797 0)
(-0.0511757 0.00321198 0)
(-0.0505133 0.0031711 0)
(-0.0498749 0.00308971 0)
(-0.0492881 0.00297802 0)
(-0.0487765 0.0028505 0)
(-0.0483559 0.00272286 0)
(-0.0480326 0.00260865 0)
(-0.047804 0.00251691 0)
(-0.0476608 0.0024513 0)
(-0.0475905 0.00241075 0)
(-0.0475803 0.00239102 0)
(-0.047619 0.00238637 0)
(-0.0476978 0.00239104 0)
(-0.0478109 0.00240003 0)
(-0.0479554 0.00240944 0)
(-0.0481302 0.00241645 0)
(-0.0483365 0.00241913 0)
(-0.0485766 0.00241621 0)
(-0.0488539 0.00240695 0)
(-0.0491725 0.00239095 0)
(-0.0495369 0.00236817 0)
(-0.049952 0.00233882 0)
(-0.0504223 0.0023035 0)
(-0.0509523 0.00226318 0)
(-0.0515452 0.00221941 0)
(-0.0522024 0.00217429 0)
(-0.0529231 0.00213037 0)
(-0.0537037 0.00209031 0)
(-0.0545377 0.00205657 0)
(-0.0554164 0.00203114 0)
(-0.0563297 0.0020154 0)
(-0.0572676 0.00201003 0)
(-0.0582209 0.00201511 0)
(-0.059182 0.0020303 0)
(-0.0601451 0.00205474 0)
(-0.0611065 0.00208711 0)
(-0.0620647 0.00212575 0)
(-0.0630204 0.00216873 0)
(-0.0639764 0.00221383 0)
(-0.0649368 0.00225876 0)
(-0.0659062 0.00230138 0)
(-0.0668893 0.00233994 0)
(-0.0678901 0.00237323 0)
(-0.0689113 0.00240083 0)
(-0.069954 0.00242277 0)
(-0.0710177 0.00243958 0)
(-0.072101 0.00245214 0)
(-0.0732015 0.00246128 0)
(-0.0743169 0.002468 0)
(-0.0754446 0.00247314 0)
(-0.0765827 0.00247734 0)
(-0.0777291 0.00248126 0)
(-0.078883 0.00248528 0)
(-0.080044 0.00248998 0)
(-0.0812121 0.00249568 0)
(-0.0823867 0.00250255 0)
(-0.0835684 0.00251065 0)
(-0.0847577 0.00252005 0)
(-0.0859545 0.00253093 0)
(-0.0871589 0.00254314 0)
(-0.0883719 0.00255672 0)
(-0.0895936 0.00257174 0)
(-0.0908246 0.00258822 0)
(-0.0920653 0.00260618 0)
(-0.0933163 0.00262554 0)
(-0.0945779 0.00264617 0)
(-0.0958509 0.00266807 0)
(-0.0971355 0.00269127 0)
(-0.0984319 0.00271562 0)
(-0.0997409 0.0027409 0)
(-0.101062 0.00276683 0)
(-0.102397 0.00279342 0)
(-0.103744 0.00282056 0)
(-0.105104 0.00284814 0)
(-0.106477 0.00287602 0)
(-0.107863 0.00290394 0)
(-0.109261 0.00293163 0)
(-0.11067 0.00295893 0)
(-0.11209 0.00298585 0)
(-0.11352 0.00301224 0)
(-0.114959 0.00303787 0)
(-0.116407 0.00306244 0)
(-0.11786 0.00308595 0)
(-0.119317 0.00310853 0)
(-0.120775 0.00312981 0)
(-0.122232 0.00314978 0)
(-0.123683 0.0031683 0)
(-0.125125 0.00318513 0)
(-0.126555 0.00319997 0)
(-0.127968 0.00321265 0)
(-0.129363 0.00322278 0)
(-0.130736 0.00323023 0)
(-0.132084 0.00323529 0)
(-0.133406 0.00323828 0)
(-0.134699 0.00323964 0)
(-0.135959 0.00323977 0)
(-0.137186 0.00323921 0)
(-0.138377 0.00323867 0)
(-0.139532 0.00323892 0)
(-0.14065 0.00324134 0)
(-0.141732 0.00324849 0)
(-0.142777 0.00326262 0)
(-0.143785 0.00328649 0)
(-0.144753 0.00332356 0)
(-0.14568 0.00337598 0)
(-0.146566 0.00344575 0)
(-0.147409 0.00353502 0)
(-0.14821 0.00364411 0)
(-0.148968 0.00377297 0)
(-0.149685 0.00392083 0)
(-0.150362 0.004085 0)
(-0.150999 0.00426144 0)
(-0.151599 0.00444442 0)
(-0.152161 0.0046257 0)
(-0.152685 0.00479534 0)
(-0.153171 0.00494188 0)
(-0.153615 0.00505242 0)
(-0.154009 0.00511365 0)
(-0.15434 0.00511279 0)
(-0.154583 0.00503726 0)
(-0.154697 0.00487279 0)
(-0.154633 0.00460164 0)
(-0.154351 0.00420264 0)
(-0.153839 0.00365147 0)
(-0.153126 0.00292949 0)
(-0.152279 0.00204821 0)
(-0.15139 0.00104833 0)
(-0.150522 8.12498e-06 0)
(-0.149654 -0.000997217 0)
(-0.148637 -0.00188906 0)
(-0.147498 -0.00263359 0)
(-0.146212 -0.0032172 0)
(-0.144775 -0.00364736 0)
(-0.143202 -0.0039467 0)
(-0.141521 -0.00414759 0)
(-0.139768 -0.00428671 0)
(-0.137975 -0.00439959 0)
(-0.136162 -0.00451568 0)
(-0.134336 -0.0046547 0)
(-0.132492 -0.00482473 0)
(-0.130614 -0.00502323 0)
(-0.128685 -0.00524039 0)
(-0.12669 -0.00546381 0)
(-0.12462 -0.00568296 0)
(-0.122472 -0.00589201 0)
(-0.12025 -0.00609041 0)
(-0.117961 -0.00628149 0)
(-0.115611 -0.00646991 0)
(-0.113208 -0.00665925 0)
(-0.110755 -0.00685055 0)
(-0.108254 -0.00704216 0)
(-0.105706 -0.0072309 0)
(-0.103108 -0.00741348 0)
(-0.100457 -0.00758747 0)
(-0.0977532 -0.00775163 0)
(-0.0949937 -0.00790583 0)
(-0.0921786 -0.00805034 0)
(-0.0893105 -0.00818538 0)
(-0.0863947 -0.00831086 0)
(-0.0834345 -0.00842572 0)
(-0.0804329 -0.00852994 0)
(-0.0773972 -0.00862536 0)
(-0.0743329 -0.00871179 0)
(-0.0712444 -0.00879007 0)
(-0.0681377 -0.00885999 0)
(-0.0650193 -0.00892188 0)
(-0.0618953 -0.00897509 0)
(-0.0587751 -0.00901937 0)
(-0.0556677 -0.00905467 0)
(-0.0525787 -0.00908139 0)
(-0.0495177 -0.00910188 0)
(-0.0464956 -0.00911773 0)
(-0.0435198 -0.00913116 0)
(-0.0405996 -0.00914476 0)
(-0.0377421 -0.00916106 0)
(-0.0349496 -0.00918318 0)
(-0.0322274 -0.00921292 0)
(-0.0295767 -0.00925214 0)
(-0.0269952 -0.00930202 0)
(-0.0244797 -0.00936263 0)
(-0.0220234 -0.0094337 0)
(-0.019618 -0.00951388 0)
(-0.0172523 -0.00960189 0)
(-0.0149161 -0.00969555 0)
(-0.0126092 -0.00978936 0)
(-0.010315 -0.00987626 0)
(-0.00809839 -0.00992631 0)
(-0.00589453 -0.0100465 0)
(-0.00377113 -0.0103719 0)
(-0.00120051 -0.00960306 0)
(-0.00192218 0.00632005 0)
(-0.00377754 0.0043083 0)
(-0.00650272 0.00540513 0)
(-0.00933156 0.00578812 0)
(-0.0122105 0.00577618 0)
(-0.015031 0.00574658 0)
(-0.0178271 0.00573487 0)
(-0.0206001 0.0057198 0)
(-0.0233424 0.00569645 0)
(-0.0260475 0.00566721 0)
(-0.0287107 0.00563349 0)
(-0.0313277 0.00559562 0)
(-0.0338941 0.00555392 0)
(-0.0364056 0.00550877 0)
(-0.0388581 0.00546055 0)
(-0.0412476 0.00540963 0)
(-0.0435706 0.00535637 0)
(-0.0458236 0.00530121 0)
(-0.0480037 0.00524462 0)
(-0.0501084 0.00518712 0)
(-0.0521357 0.0051293 0)
(-0.0540841 0.00507184 0)
(-0.0559532 0.00501485 0)
(-0.0577428 0.00495928 0)
(-0.059453 0.00490581 0)
(-0.0610853 0.00485545 0)
(-0.0626419 0.00480956 0)
(-0.0641256 0.00476941 0)
(-0.0655395 0.00473562 0)
(-0.0668869 0.00470812 0)
(-0.0681701 0.00468624 0)
(-0.069391 0.004669 0)
(-0.0705508 0.00465551 0)
(-0.0716498 0.00464508 0)
(-0.0726882 0.00463712 0)
(-0.0736664 0.00463098 0)
(-0.074585 0.00462574 0)
(-0.0754455 0.00462011 0)
(-0.0762498 0.00461245 0)
(-0.0769999 0.00460089 0)
(-0.0776966 0.00458444 0)
(-0.078339 0.0045625 0)
(-0.078924 0.00453456 0)
(-0.0794473 0.00449971 0)
(-0.0799045 0.00445604 0)
(-0.0802937 0.00440057 0)
(-0.0806161 0.00432972 0)
(-0.0808765 0.00424015 0)
(-0.0810826 0.00412972 0)
(-0.0812433 0.00399807 0)
(-0.0813673 0.00384661 0)
(-0.0814618 0.00367817 0)
(-0.0815324 0.00349629 0)
(-0.0815827 0.00330468 0)
(-0.0816148 0.0031068 0)
(-0.0816295 0.0029056 0)
(-0.081627 0.00270348 0)
(-0.0816071 0.00250223 0)
(-0.0815693 0.00230309 0)
(-0.0815134 0.00210677 0)
(-0.0814394 0.00191354 0)
(-0.0813474 0.00172324 0)
(-0.0812374 0.00153551 0)
(-0.0811096 0.00134984 0)
(-0.0809638 0.00116584 0)
(-0.0807997 0.000983332 0)
(-0.080617 0.000802472 0)
(-0.0804153 0.000623763 0)
(-0.0801945 0.000448027 0)
(-0.0799548 0.000276326 0)
(-0.079697 0.000109769 0)
(-0.0794226 -5.05971e-05 0)
(-0.0791311 -0.000203823 0)
(-0.0788255 -0.000349685 0)
(-0.078506 -0.00048958 0)
(-0.0781703 -0.000622126 0)
(-0.0778201 -0.000747838 0)
(-0.077455 -0.000867642 0)
(-0.0770748 -0.000981748 0)
(-0.0766797 -0.0010899 0)
(-0.0762695 -0.00119267 0)
(-0.0758442 -0.00129016 0)
(-0.0754042 -0.00138302 0)
(-0.0749493 -0.00147136 0)
(-0.07448 -0.00155532 0)
(-0.073997 -0.00163535 0)
(-0.0735009 -0.00171167 0)
(-0.0729922 -0.00178457 0)
(-0.0724721 -0.00185433 0)
(-0.071943 -0.00192137 0)
(-0.0714062 -0.0019868 0)
(-0.070863 -0.00205062 0)
(-0.0703163 -0.00211248 0)
(-0.0697676 -0.00217194 0)
(-0.0692182 -0.00222673 0)
(-0.0686689 -0.00227537 0)
(-0.06812 -0.00231588 0)
(-0.0675715 -0.00234783 0)
(-0.0670219 -0.00237115 0)
(-0.0664711 -0.00238663 0)
(-0.0659193 -0.00239553 0)
(-0.065367 -0.00239931 0)
(-0.0648147 -0.00239911 0)
(-0.0642627 -0.00239561 0)
(-0.0637117 -0.00238901 0)
(-0.0631625 -0.00237922 0)
(-0.0626171 -0.00236652 0)
(-0.0620763 -0.0023512 0)
(-0.0615399 -0.00233344 0)
(-0.0610085 -0.00231292 0)
(-0.0604839 -0.00228995 0)
(-0.0599664 -0.00226469 0)
(-0.059455 -0.00223694 0)
(-0.0589519 -0.00220691 0)
(-0.0584576 -0.00217484 0)
(-0.0579705 -0.00214046 0)
(-0.0574927 -0.00210409 0)
(-0.0570244 -0.0020659 0)
(-0.056565 -0.0020258 0)
(-0.056115 -0.00198423 0)
(-0.0556742 -0.00194097 0)
(-0.0552431 -0.00189638 0)
(-0.054821 -0.00185053 0)
(-0.054409 -0.00180438 0)
(-0.0540071 -0.00175788 0)
(-0.0536163 -0.00171209 0)
(-0.0532376 -0.00166681 0)
(-0.0528724 -0.00162296 0)
(-0.0525229 -0.00158012 0)
(-0.0521914 -0.00153763 0)
(-0.0518799 -0.00149394 0)
(-0.0515916 -0.00144751 0)
(-0.0513292 -0.00139485 0)
(-0.051093 -0.00133264 0)
(-0.0508842 -0.00125807 0)
(-0.0507024 -0.00116811 0)
(-0.050545 -0.00106116 0)
(-0.0504098 -0.000937272 0)
(-0.050294 -0.000798554 0)
(-0.0501943 -0.00064745 0)
(-0.0501074 -0.000487412 0)
(-0.0500334 -0.000321082 0)
(-0.0499677 -0.000151245 0)
(-0.049904 2.30005e-05 0)
(-0.0498441 0.000200422 0)
(-0.0497891 0.000381242 0)
(-0.0497372 0.000565492 0)
(-0.049686 0.000752383 0)
(-0.0496323 0.000939857 0)
(-0.0495729 0.00112446 0)
(-0.0495052 0.00130167 0)
(-0.0494279 0.00146645 0)
(-0.0493417 0.00161397 0)
(-0.0492494 0.00174013 0)
(-0.0491557 0.00184198 0)
(-0.049067 0.00191825 0)
(-0.0489901 0.00196943 0)
(-0.0489317 0.00199652 0)
(-0.0488977 0.00200115 0)
(-0.0488924 0.00198884 0)
(-0.0489226 0.00196943 0)
(-0.0489964 0.00195424 0)
(-0.0491211 0.00195341 0)
(-0.049302 0.00197333 0)
(-0.0495407 0.00201516 0)
(-0.0498347 0.00207517 0)
(-0.0501779 0.00214651 0)
(-0.0505619 0.00222171 0)
(-0.0509778 0.00229464 0)
(-0.0514176 0.00236164 0)
(-0.0518749 0.00242141 0)
(-0.0523459 0.00247447 0)
(-0.0528288 0.00252223 0)
(-0.0533235 0.00256637 0)
(-0.0538306 0.00260841 0)
(-0.0543518 0.00264954 0)
(-0.0548886 0.00269064 0)
(-0.0554425 0.00273232 0)
(-0.056015 0.00277503 0)
(-0.0566076 0.00281916 0)
(-0.0572213 0.00286504 0)
(-0.0578575 0.00291306 0)
(-0.058517 0.00296354 0)
(-0.0592007 0.00301664 0)
(-0.059909 0.00307209 0)
(-0.0606418 0.00312896 0)
(-0.0613985 0.00318566 0)
(-0.0621779 0.00324017 0)
(-0.0629783 0.00329051 0)
(-0.0637973 0.0033353 0)
(-0.0646331 0.0033742 0)
(-0.0654834 0.00340817 0)
(-0.0663465 0.00343938 0)
(-0.0672208 0.00347072 0)
(-0.0681052 0.00350505 0)
(-0.0689993 0.00354467 0)
(-0.0699028 0.00359085 0)
(-0.0708159 0.00364373 0)
(-0.0717392 0.00370242 0)
(-0.0726735 0.00376525 0)
(-0.07362 0.00383025 0)
(-0.0745795 0.00389521 0)
(-0.0755526 0.00395801 0)
(-0.0765398 0.00401676 0)
(-0.0775411 0.00407011 0)
(-0.078556 0.0041171 0)
(-0.0795843 0.00415745 0)
(-0.0806254 0.00419164 0)
(-0.0816782 0.00422051 0)
(-0.0827424 0.00424529 0)
(-0.0838174 0.00426714 0)
(-0.0849033 0.00428738 0)
(-0.0859993 0.00430673 0)
(-0.0871046 0.00432604 0)
(-0.0882195 0.00434607 0)
(-0.089344 0.004367 0)
(-0.0904781 0.00438913 0)
(-0.0916215 0.00441289 0)
(-0.0927745 0.00443854 0)
(-0.0939373 0.00446601 0)
(-0.0951095 0.00449545 0)
(-0.0962915 0.004527 0)
(-0.0974835 0.00456068 0)
(-0.0986857 0.00459647 0)
(-0.0998985 0.00463444 0)
(-0.101122 0.00467451 0)
(-0.102356 0.00471656 0)
(-0.103602 0.00476062 0)
(-0.104859 0.00480645 0)
(-0.106129 0.00485384 0)
(-0.10741 0.00490268 0)
(-0.108704 0.00495271 0)
(-0.110009 0.00500372 0)
(-0.111328 0.00505547 0)
(-0.112659 0.00510769 0)
(-0.114003 0.00516011 0)
(-0.115359 0.00521245 0)
(-0.116728 0.00526427 0)
(-0.118109 0.00531506 0)
(-0.119502 0.00536442 0)
(-0.120905 0.00541196 0)
(-0.122319 0.00545733 0)
(-0.123743 0.0055 0)
(-0.125175 0.00553922 0)
(-0.126614 0.00557424 0)
(-0.12806 0.00560402 0)
(-0.129509 0.00562763 0)
(-0.130961 0.00564434 0)
(-0.132412 0.00565377 0)
(-0.133862 0.00565589 0)
(-0.135309 0.00565093 0)
(-0.136749 0.00563904 0)
(-0.13818 0.00562014 0)
(-0.139598 0.00559388 0)
(-0.141001 0.00555991 0)
(-0.142385 0.00551811 0)
(-0.143747 0.00546871 0)
(-0.145084 0.00541245 0)
(-0.146392 0.00535079 0)
(-0.147666 0.0052853 0)
(-0.148901 0.00521721 0)
(-0.150093 0.00514863 0)
(-0.151234 0.00508142 0)
(-0.152319 0.00501639 0)
(-0.153339 0.00495483 0)
(-0.154287 0.00489804 0)
(-0.155152 0.0048468 0)
(-0.155928 0.00480215 0)
(-0.156603 0.00476452 0)
(-0.157169 0.00473405 0)
(-0.157618 0.00470927 0)
(-0.157941 0.00468648 0)
(-0.158134 0.00466075 0)
(-0.158192 0.0046262 0)
(-0.158113 0.00457586 0)
(-0.157898 0.004502 0)
(-0.157552 0.00439677 0)
(-0.157083 0.00425241 0)
(-0.156498 0.00405876 0)
(-0.155814 0.00380048 0)
(-0.155051 0.0034526 0)
(-0.154229 0.00298198 0)
(-0.153371 0.0023549 0)
(-0.152499 0.00155625 0)
(-0.151628 0.000603591 0)
(-0.150793 -0.000446323 0)
(-0.150031 -0.00151461 0)
(-0.14936 -0.00254169 0)
(-0.148764 -0.00348833 0)
(-0.148197 -0.00432876 0)
(-0.14762 -0.0050376 0)
(-0.146997 -0.00561605 0)
(-0.146292 -0.00607709 0)
(-0.145478 -0.0064369 0)
(-0.144537 -0.00671294 0)
(-0.143461 -0.00692728 0)
(-0.142254 -0.00710897 0)
(-0.140922 -0.00729155 0)
(-0.139476 -0.00750599 0)
(-0.137927 -0.00777268 0)
(-0.136282 -0.00809664 0)
(-0.134546 -0.00846818 0)
(-0.132721 -0.00886819 0)
(-0.130808 -0.00927491 0)
(-0.128808 -0.00966931 0)
(-0.126724 -0.010038 0)
(-0.124558 -0.0103744 0)
(-0.122317 -0.0106781 0)
(-0.120006 -0.0109541 0)
(-0.11763 -0.0112103 0)
(-0.115193 -0.0114554 0)
(-0.112695 -0.0116967 0)
(-0.110135 -0.0119391 0)
(-0.107512 -0.0121846 0)
(-0.104824 -0.0124323 0)
(-0.10207 -0.0126789 0)
(-0.0992505 -0.0129207 0)
(-0.0963658 -0.013154 0)
(-0.0934157 -0.0133757 0)
(-0.0904021 -0.0135826 0)
(-0.0873298 -0.0137737 0)
(-0.0842004 -0.0139487 0)
(-0.0810151 -0.0141066 0)
(-0.0777783 -0.0142467 0)
(-0.0744952 -0.0143676 0)
(-0.0711713 -0.0144682 0)
(-0.0678119 -0.0145471 0)
(-0.0644241 -0.0146029 0)
(-0.0610142 -0.0146326 0)
(-0.0575921 -0.0146356 0)
(-0.0541673 -0.0146119 0)
(-0.0507492 -0.0145619 0)
(-0.0473502 -0.0144859 0)
(-0.0439835 -0.014386 0)
(-0.0406636 -0.0142651 0)
(-0.0374031 -0.0141288 0)
(-0.0342149 -0.0139821 0)
(-0.0311119 -0.0138308 0)
(-0.028104 -0.0136803 0)
(-0.0252003 -0.0135378 0)
(-0.0224063 -0.0134078 0)
(-0.0197254 -0.0132971 0)
(-0.0171576 -0.013211 0)
(-0.0146981 -0.0131553 0)
(-0.0123455 -0.0131347 0)
(-0.0100667 -0.0131501 0)
(-0.00790231 -0.0131598 0)
(-0.00565535 -0.0132573 0)
(-0.00335922 -0.0137367 0)
(-0.000719732 -0.0126762 0)
(-0.00182522 0.0105564 0)
(-0.00316094 0.0075664 0)
(-0.00529006 0.00935085 0)
(-0.00762798 0.0100296 0)
(-0.0100639 0.00998802 0)
(-0.0124267 0.00987727 0)
(-0.014749 0.00980679 0)
(-0.0170415 0.00973675 0)
(-0.0193012 0.00964958 0)
(-0.0215225 0.00954733 0)
(-0.0237012 0.00943297 0)
(-0.0258334 0.00930748 0)
(-0.0279159 0.0091714 0)
(-0.0299453 0.00902544 0)
(-0.0319184 0.00887054 0)
(-0.0338327 0.00870769 0)
(-0.0356856 0.008538 0)
(-0.0374755 0.00836271 0)
(-0.039201 0.00818318 0)
(-0.0408614 0.00800082 0)
(-0.0424567 0.00781702 0)
(-0.0439874 0.00763308 0)
(-0.0454549 0.00745038 0)
(-0.0468609 0.00727057 0)
(-0.0482077 0.00709553 0)
(-0.0494979 0.00692734 0)
(-0.0507343 0.0067681 0)
(-0.0519194 0.00661936 0)
(-0.0530558 0.00648178 0)
(-0.0541453 0.00635498 0)
(-0.0551897 0.00623769 0)
(-0.0561903 0.0061282 0)
(-0.0571484 0.00602481 0)
(-0.0580649 0.00592616 0)
(-0.0589408 0.00583139 0)
(-0.059777 0.00574009 0)
(-0.0605745 0.00565217 0)
(-0.0613345 0.0055675 0)
(-0.062058 0.00548561 0)
(-0.0627466 0.0054053 0)
(-0.0634011 0.00532467 0)
(-0.0640224 0.00524119 0)
(-0.0646108 0.00515203 0)
(-0.0651663 0.00505463 0)
(-0.065689 0.00494701 0)
(-0.0661794 0.00482799 0)
(-0.0666388 0.00469705 0)
(-0.0670688 0.00455422 0)
(-0.0674719 0.00439985 0)
(-0.0678505 0.00423448 0)
(-0.0682065 0.00405879 0)
(-0.0685418 0.00387363 0)
(-0.0688572 0.00368004 0)
(-0.0691531 0.00347926 0)
(-0.0694296 0.00327263 0)
(-0.0696859 0.00306152 0)
(-0.0699214 0.00284722 0)
(-0.0701349 0.00263086 0)
(-0.0703254 0.00241333 0)
(-0.0704918 0.0021953 0)
(-0.070633 0.00197714 0)
(-0.0707482 0.00175902 0)
(-0.0708367 0.00154094 0)
(-0.070898 0.00132285 0)
(-0.0709318 0.00110482 0)
(-0.0709381 0.000887087 0)