/*--------------------------------*- C++ -*----------------------------------*\
| =========                 |                                                 |
| \\      /  F ield         | OpenFOAM: The Open Source CFD Toolbox           |
|  \\    /   O peration     | Version:  v2006                                 |
|   \\  /    A nd           | Website:  www.openfoam.com                      |
|    \\/     M anipulation  |                                                 |
\*---------------------------------------------------------------------------*/
FoamFile
{
    version     2.0;
    format      ascii;
    class       volScalarField;
    location    "0.5";
    object      r;
}
// * * * * * * * * * * * * * * * * * * * * * * * * * * * * * * * * * * * * * //

dimensions      [1 2 0 0 0 0 0];


internalField   nonuniform List<scalar> 
350
(
-3.03189e-44
1.54944e-43
-6.6258e-43
2.83658e-42
-1.20531e-41
5.08639e-41
-2.1319e-40
8.87604e-40
-3.67126e-39
1.50867e-38
-6.16025e-38
2.49954e-37
-1.0079e-36
4.03918e-36
-1.60887e-35
6.36977e-35
-2.50683e-34
9.80722e-34
-3.81421e-33
1.47475e-32
-5.66892e-32
2.16653e-31
-8.23234e-31
3.11017e-30
-1.1683e-29
4.36354e-29
-1.62047e-28
5.98366e-28
-2.19691e-27
8.02008e-27
-2.91113e-26
1.05065e-25
-3.77014e-25
1.3451e-24
-4.77136e-24
1.68269e-23
-5.89966e-23
2.05634e-22
-7.12513e-22
2.45414e-21
-8.40215e-21
2.8592e-20
-9.67018e-20
3.25036e-19
-1.08568e-18
3.60342e-18
-1.18831e-17
3.89322e-17
-1.26708e-16
4.09613e-16
-1.31511e-15
4.19291e-15
-1.32732e-14
4.17135e-14
-1.30122e-13
4.02828e-13
-1.23738e-12
3.77062e-12
-1.1396e-11
3.4152e-11
-1.0146e-10
2.98716e-10
-8.71321e-10
2.51712e-09
-7.19898e-09
2.03751e-08
-5.70414e-08
1.57877e-07
-4.31758e-07
1.16594e-06
-3.10684e-06
8.16242e-06
-2.11243e-05
5.37963e-05
-0.000134648
0.000330753
-0.000796014
0.00187311
-0.00429885
0.00959346
-0.0207406
0.0432418
-0.0864455
0.164505
-0.295164
0.49284
-0.751522
1.01652
-1.15935
0.999827
-0.441113
-0.285611
0.534415
0.128861
-0.691164
-0.535662
0.905279
3.06446
5.24033
7.00837
8.25274
9.04074
9.50041
9.75136
9.88105
9.94503
9.97536
9.98926
9.99543
9.9981
9.99922
9.99969
9.99988
9.99995
9.99998
9.99999
10
10
9.99999
10
9.99995
10.0001
9.99967
10.0008
9.99813
10.0043
9.99041
10.0207
9.95676
10.0864
9.83549
10.2952
9.50716
10.7515
8.98348
11.1594
9.00017
10.4411
10.2856
9.46559
9.87114
10.6912
10.5357
9.09472
6.93554
4.75967
2.99163
1.74726
0.95926
0.499591
0.24864
0.118953
0.0549704
0.0246363
0.010744
0.00457201
0.00190288
0.000776116
0.000310716
0.000122271
4.73509e-05
1.80642e-05
6.79489e-06
2.52212e-06
9.24423e-07
3.34788e-07
1.19869e-07
4.24526e-08
1.48785e-08
5.16241e-09
1.77397e-09
6.03935e-10
2.0376e-10
6.81481e-11
2.26001e-11
7.43346e-12
2.42545e-12
7.85246e-13
2.52296e-13
8.04606e-14
2.54738e-14
8.00771e-15
2.49968e-15
7.74962e-16
2.38641e-16
7.3001e-17
2.21857e-17
6.69917e-18
2.01006e-18
5.99338e-19
1.776e-19
5.23058e-20
1.53116e-20
4.45535e-21
1.28871e-21
3.70559e-22
1.05928e-22
3.01043e-23
8.50602e-24
2.38956e-24
6.6744e-25
1.85361e-25
5.11852e-26
1.40538e-26
3.83683e-27
1.04155e-27
2.81137e-28
7.54546e-29
2.01362e-29
5.34308e-30
1.40968e-30
3.69788e-31
9.64457e-32
2.5009e-32
6.44735e-33
1.65242e-33
4.21013e-34
1.06632e-34
2.68458e-35
6.71793e-36
1.67086e-36
4.1301e-37
1.01453e-37
2.4764e-38
6.00608e-39
1.44722e-39
3.46422e-40
8.23683e-41
1.94512e-41
4.56154e-42
1.06217e-42
2.45546e-43
5.63452e-44
1.28319e-44
2.89973e-45
6.50077e-46
1.44551e-46
3.18727e-47
6.96705e-48
1.50935e-48
3.23971e-49
6.88738e-50
1.44967e-50
3.0198e-51
6.2227e-52
1.26781e-52
2.55245e-53
5.07479e-54
9.95706e-55
1.92643e-55
3.67194e-56
6.88828e-57
1.27023e-57
2.29933e-58
4.07893e-59
7.07695e-60
1.19797e-60
1.97268e-61
3.14847e-62
4.84882e-63
7.1657e-64
1.00907e-64
1.34177e-65
1.66452e-66
1.89473e-67
1.93237e-68
1.70267e-69
1.22038e-70
6.3464e-72
1.79857e-73
0
0
0
0
0
0
0
0
0
0
0
0
0
0
0
0
0
0
0
0
0
0
0
0
0
0
0
0
0
0
0
0
0
0
0
0
0
0
0
0
0
0
0
0
0
0
0
0
0
0
0
0
0
0
0
0
0
0
0
0
0
0
0
0
0
0
0
0
0
0
0
0
0
0
0
0
0
0
0
0
)
;

boundaryField
{
    right
    {
        type            zeroGradient;
    }
    left
    {
        type            inletOutlet;
        inletValue      uniform 0;
        value           uniform 0;
    }
    top
    {
        type            zeroGradient;
    }
    bottom
    {
        type            zeroGradient;
    }
    empty
    {
        type            empty;
    }
}


// ************************************************************************* //
