/*--------------------------------*- C++ -*----------------------------------*\
| =========                 |                                                 |
| \\      /  F ield         | OpenFOAM: The Open Source CFD Toolbox           |
|  \\    /   O peration     | Version:  v2006                                 |
|   \\  /    A nd           | Website:  www.openfoam.com                      |
|    \\/     M anipulation  |                                                 |
\*---------------------------------------------------------------------------*/
FoamFile
{
    version     2.0;
    format      ascii;
    class       volVectorField;
    location    "0.9";
    object      U;
}
// * * * * * * * * * * * * * * * * * * * * * * * * * * * * * * * * * * * * * //

dimensions      [0 1 -1 0 0 0 0];


internalField   nonuniform List<vector> 
50000
(
(0.0188566 0.00496556 0)
(-0.0324188 0.00419774 0)
(0.00249823 0.0047207 0)
(-0.0416738 0.0044586 0)
(-0.0168985 0.00465947 0)
(-0.04962 0.00452563 0)
(-0.0364021 0.00459889 0)
(-0.0582166 0.00454929 0)
(-0.054409 0.00456666 0)
(-0.068434 0.00453747 0)
(-0.0704815 0.0045367 0)
(-0.0800863 0.00450911 0)
(-0.0850921 0.00449671 0)
(-0.092467 0.00446423 0)
(-0.0987028 0.00443937 0)
(-0.105236 0.0044033 0)
(-0.111589 0.00436415 0)
(-0.117884 0.00431867 0)
(-0.124083 0.00426784 0)
(-0.130187 0.00421221 0)
(-0.136186 0.00415225 0)
(-0.142078 0.00408779 0)
(-0.147851 0.00402006 0)
(-0.153497 0.00394839 0)
(-0.159011 0.00387061 0)
(-0.164389 0.00378749 0)
(-0.169619 0.00369995 0)
(-0.174695 0.0036059 0)
(-0.179615 0.00350497 0)
(-0.184369 0.00339713 0)
(-0.18895 0.00328209 0)
(-0.193352 0.00316028 0)
(-0.19757 0.00303129 0)
(-0.201597 0.00289498 0)
(-0.205426 0.00275172 0)
(-0.209054 0.00260185 0)
(-0.212474 0.00244612 0)
(-0.215683 0.00228553 0)
(-0.218677 0.00212131 0)
(-0.221455 0.00195495 0)
(-0.224014 0.00178818 0)
(-0.226354 0.00162234 0)
(-0.228477 0.00145799 0)
(-0.230383 0.00129548 0)
(-0.232073 0.00113573 0)
(-0.233551 0.000979568 0)
(-0.234817 0.000827145 0)
(-0.235877 0.00067862 0)
(-0.236733 0.000534057 0)
(-0.237388 0.000393594 0)
(-0.237847 0.000257102 0)
(-0.238114 0.00012443 0)
(-0.238192 -3.72637e-06 0)
(-0.238089 -0.000126951 0)
(-0.23781 -0.000246665 0)
(-0.23736 -0.000363494 0)
(-0.236743 -0.000477539 0)
(-0.235961 -0.000588865 0)
(-0.235021 -0.000697379 0)
(-0.233925 -0.000803089 0)
(-0.232678 -0.000906029 0)
(-0.231284 -0.00100605 0)
(-0.229747 -0.00110294 0)
(-0.228072 -0.0011967 0)
(-0.226263 -0.00128735 0)
(-0.224325 -0.00137484 0)
(-0.222262 -0.00145906 0)
(-0.22008 -0.00153995 0)
(-0.217782 -0.00161751 0)
(-0.215375 -0.00169179 0)
(-0.212863 -0.00176258 0)
(-0.210251 -0.00182971 0)
(-0.207543 -0.00189367 0)
(-0.204746 -0.00195425 0)
(-0.201865 -0.00201035 0)
(-0.198902 -0.00206282 0)
(-0.195865 -0.00211182 0)
(-0.19276 -0.00215486 0)
(-0.189591 -0.00219038 0)
(-0.186369 -0.00221548 0)
(-0.183099 -0.00222795 0)
(-0.179791 -0.00222732 0)
(-0.176455 -0.00221513 0)
(-0.173098 -0.00219364 0)
(-0.169726 -0.00216535 0)
(-0.166346 -0.00213102 0)
(-0.162965 -0.00209205 0)
(-0.15959 -0.00204736 0)
(-0.156219 -0.00199721 0)
(-0.152862 -0.00194484 0)
(-0.149528 -0.0018886 0)
(-0.146217 -0.00182946 0)
(-0.142936 -0.0017679 0)
(-0.139688 -0.00170388 0)
(-0.136479 -0.00163732 0)
(-0.133312 -0.00156955 0)
(-0.13019 -0.00150185 0)
(-0.127118 -0.00143123 0)
(-0.1241 -0.00136106 0)
(-0.121137 -0.00129064 0)
(-0.118233 -0.00122112 0)
(-0.115386 -0.00115255 0)
(-0.1126 -0.00108804 0)
(-0.109877 -0.00102633 0)
(-0.107217 -0.000969306 0)
(-0.104624 -0.000916707 0)
(-0.102085 -0.000868249 0)
(-0.0996011 -0.000828619 0)
(-0.0971822 -0.000797566 0)
(-0.0948236 -0.000773103 0)
(-0.0925088 -0.00075478 0)
(-0.0902387 -0.000749468 0)
(-0.0880199 -0.00075189 0)
(-0.0858376 -0.000765051 0)
(-0.083692 -0.000785681 0)
(-0.0815776 -0.000815258 0)
(-0.0794889 -0.000852033 0)
(-0.077423 -0.000895846 0)
(-0.0753807 -0.000948063 0)
(-0.0733412 -0.000998603 0)
(-0.0713034 -0.00106106 0)
(-0.0692795 -0.00112682 0)
(-0.0672504 -0.00119771 0)
(-0.065213 -0.00127367 0)
(-0.063166 -0.00135553 0)
(-0.0611025 -0.00144114 0)
(-0.0590211 -0.00153298 0)
(-0.0569201 -0.00163162 0)
(-0.0547933 -0.00172906 0)
(-0.0526325 -0.00183004 0)
(-0.0504386 -0.00193515 0)
(-0.0482127 -0.00204035 0)
(-0.0459496 -0.00214535 0)
(-0.0436521 -0.00225294 0)
(-0.0412937 -0.00235388 0)
(-0.0388055 -0.00251585 0)
(-0.0370364 -0.00239267 0)
(-0.032677 -0.00305206 0)
(-0.0342841 -0.00213711 0)
(-0.0244109 -0.003619 0)
(-0.0332189 -0.00198542 0)
(-0.0144332 -0.00388709 0)
(-0.0331641 -0.00204748 0)
(-0.00370915 -0.00414515 0)
(-0.0328757 -0.00201321 0)
(0.0064072 -0.00475386 0)
(-0.0307325 -0.00172625 0)
(0.0145254 -0.005415 0)
(-0.025713 -0.00147568 0)
(0.0198438 -0.0040309 0)
(0.0210404 0.0156725 0)
(-0.0358743 0.0141596 0)
(0.00193064 0.0149604 0)
(-0.046128 0.0147659 0)
(-0.0201349 0.0148478 0)
(-0.0551823 0.014713 0)
(-0.0418532 0.014673 0)
(-0.0650389 0.0145808 0)
(-0.0616189 0.0144857 0)
(-0.0765289 0.0143725 0)
(-0.079082 0.0142541 0)
(-0.089322 0.0141106 0)
(-0.0947759 0.0139665 0)
(-0.102616 0.0137942 0)
(-0.109194 0.0136202 0)
(-0.116029 0.013425 0)
(-0.122601 0.0132183 0)
(-0.129046 0.0129963 0)
(-0.135323 0.0127607 0)
(-0.14143 0.0125117 0)
(-0.147364 0.0122494 0)
(-0.153121 0.0119737 0)
(-0.158697 0.0116865 0)
(-0.164087 0.0113883 0)
(-0.169289 0.0110769 0)
(-0.174301 0.0107542 0)
(-0.17912 0.0104217 0)
(-0.183742 0.0100772 0)
(-0.188171 0.00972133 0)
(-0.192403 0.00935562 0)
(-0.196439 0.00898067 0)
(-0.200279 0.00859688 0)
(-0.203924 0.00820438 0)
(-0.207377 0.00780391 0)
(-0.210639 0.00739624 0)
(-0.213712 0.00698227 0)
(-0.216599 0.00656291 0)
(-0.219303 0.00613929 0)
(-0.221824 0.00571261 0)
(-0.224165 0.00528398 0)
(-0.226327 0.00485457 0)
(-0.228312 0.00442579 0)
(-0.230119 0.00399865 0)
(-0.231748 0.00357365 0)
(-0.2332 0.00315158 0)
(-0.234476 0.00273344 0)
(-0.235576 0.00231988 0)
(-0.236501 0.00191173 0)
(-0.23725 0.00150965 0)
(-0.237823 0.00111364 0)
(-0.238223 0.000724207 0)
(-0.238451 0.000342463 0)
(-0.238506 -3.12361e-05 0)
(-0.238389 -0.000396996 0)
(-0.238098 -0.00075503 0)
(-0.237637 -0.00110483 0)
(-0.237009 -0.0014467 0)
(-0.236217 -0.00178084 0)
(-0.235266 -0.00210666 0)
(-0.23416 -0.00242423 0)
(-0.232901 -0.00273332 0)
(-0.231496 -0.00303337 0)
(-0.229947 -0.00332407 0)
(-0.22826 -0.0036057 0)
(-0.226439 -0.00387803 0)
(-0.224488 -0.00414057 0)
(-0.222413 -0.00439326 0)
(-0.220218 -0.00463606 0)
(-0.217908 -0.0048688 0)
(-0.215488 -0.00509151 0)
(-0.212963 -0.0053039 0)
(-0.210338 -0.0055057 0)
(-0.207617 -0.00569747 0)
(-0.204806 -0.0058791 0)
(-0.201911 -0.0060493 0)
(-0.198934 -0.00620895 0)
(-0.195882 -0.00635877 0)
(-0.192758 -0.0064973 0)
(-0.189567 -0.00662479 0)
(-0.18631 -0.00674059 0)
(-0.182989 -0.00684416 0)
(-0.179605 -0.00693541 0)
(-0.176157 -0.00701498 0)
(-0.172649 -0.00708294 0)
(-0.169082 -0.00714049 0)
(-0.165459 -0.00718748 0)
(-0.161787 -0.00722444 0)
(-0.158066 -0.00725012 0)
(-0.1543 -0.00726458 0)
(-0.150494 -0.0072706 0)
(-0.14665 -0.0072661 0)
(-0.142773 -0.00725204 0)
(-0.138867 -0.00722864 0)
(-0.134935 -0.00719544 0)
(-0.130981 -0.00715343 0)
(-0.127013 -0.00710265 0)
(-0.123027 -0.00704285 0)
(-0.119028 -0.00697563 0)
(-0.115025 -0.00690055 0)
(-0.11102 -0.00681761 0)
(-0.107016 -0.00672772 0)
(-0.10302 -0.00663038 0)
(-0.099034 -0.00652929 0)
(-0.0950647 -0.00642269 0)
(-0.0911176 -0.00631205 0)
(-0.0872016 -0.00619806 0)
(-0.0833148 -0.00607675 0)
(-0.0794661 -0.00595784 0)
(-0.0756657 -0.00583705 0)
(-0.0719179 -0.00571603 0)
(-0.068228 -0.00559068 0)
(-0.0646012 -0.00547073 0)
(-0.06105 -0.00535087 0)
(-0.0575735 -0.00523603 0)
(-0.0541803 -0.00512226 0)
(-0.0508787 -0.00501393 0)
(-0.0476696 -0.00490997 0)
(-0.044565 -0.00481265 0)
(-0.0415609 -0.00472335 0)
(-0.0386594 -0.00463431 0)
(-0.0358704 -0.00455798 0)
(-0.0331962 -0.00448925 0)
(-0.0306376 -0.00442326 0)
(-0.0281967 -0.00436525 0)
(-0.0258731 -0.00431189 0)
(-0.0236651 -0.00426408 0)
(-0.0215809 -0.00422407 0)
(-0.0196085 -0.00418907 0)
(-0.0177494 -0.00415919 0)
(-0.016011 -0.00413863 0)
(-0.0143833 -0.0041214 0)
(-0.0128665 -0.00411116 0)
(-0.0114655 -0.00410732 0)
(-0.0101648 -0.00410658 0)
(-0.00905782 -0.00410697 0)
(-0.00747023 -0.00417471 0)
(-0.00803701 -0.00387988 0)
(-0.00371107 -0.0046471 0)
(-0.00889893 -0.00321926 0)
(0.00114944 -0.00530559 0)
(-0.011155 -0.00265581 0)
(0.00637141 -0.00570804 0)
(-0.0139984 -0.00242312 0)
(0.011395 -0.00592755 0)
(-0.01701 -0.00241258 0)
(0.0159647 -0.006155 0)
(-0.0201807 -0.00250985 0)
(0.0200805 -0.00625451 0)
(-0.0232293 -0.00273906 0)
(0.0236262 -0.00503146 0)
(0.0201087 0.0267579 0)
(-0.0345414 0.0248191 0)
(0.00199272 0.0256145 0)
(-0.0444886 0.0257191 0)
(-0.0191253 0.025471 0)
(-0.053181 0.025444 0)
(-0.0400541 0.0251762 0)
(-0.0626183 0.0250685 0)
(-0.0591709 0.024791 0)
(-0.0736775 0.0245847 0)
(-0.0761026 0.0242925 0)
(-0.086069 0.0240071 0)
(-0.0913719 0.0236829 0)
(-0.0990246 0.0233373 0)
(-0.105463 0.02297 0)
(-0.112176 0.0225775 0)
(-0.118652 0.0221638 0)
(-0.125027 0.0217287 0)
(-0.13126 0.0212727 0)
(-0.137353 0.0207959 0)
(-0.143302 0.0202984 0)
(-0.1491 0.0197814 0)
(-0.154743 0.019246 0)
(-0.160227 0.0186932 0)
(-0.165548 0.0181238 0)
(-0.170702 0.0175396 0)
(-0.175686 0.0169408 0)
(-0.180498 0.0163285 0)
(-0.185133 0.0157053 0)
(-0.189588 0.0150724 0)
(-0.19386 0.0144305 0)
(-0.197948 0.0137804 0)
(-0.20185 0.013123 0)
(-0.205563 0.0124605 0)
(-0.209086 0.011794 0)
(-0.212416 0.0111245 0)
(-0.215553 0.0104525 0)
(-0.218495 0.00977907 0)
(-0.221241 0.00910468 0)
(-0.22379 0.00842993 0)
(-0.226143 0.00775517 0)
(-0.228297 0.00708095 0)
(-0.230254 0.00640816 0)
(-0.232014 0.00573754 0)
(-0.233577 0.00506948 0)
(-0.234945 0.00440492 0)
(-0.236118 0.00374482 0)
(-0.237098 0.00308964 0)
(-0.237887 0.00244058 0)
(-0.238489 0.00179885 0)
(-0.238903 0.00116472 0)
(-0.239133 0.000539862 0)
(-0.239182 -7.6132e-05 0)
(-0.239055 -0.000682219 0)
(-0.238751 -0.00127706 0)
(-0.238276 -0.00185989 0)
(-0.237634 -0.00243024 0)
(-0.236828 -0.00298766 0)
(-0.235861 -0.00353155 0)
(-0.234739 -0.00406123 0)
(-0.233465 -0.00457652 0)
(-0.232043 -0.00507716 0)
(-0.230477 -0.0055625 0)
(-0.228773 -0.0060323 0)
(-0.226934 -0.0064864 0)
(-0.224966 -0.00692424 0)
(-0.222872 -0.00734576 0)
(-0.220659 -0.00775066 0)
(-0.218331 -0.00813881 0)
(-0.215892 -0.00851003 0)
(-0.213348 -0.00886414 0)
(-0.210704 -0.00920098 0)
(-0.207964 -0.00952063 0)
(-0.205135 -0.00982303 0)
(-0.20222 -0.0101079 0)
(-0.199225 -0.0103754 0)
(-0.196156 -0.0106258 0)
(-0.193016 -0.0108593 0)
(-0.189813 -0.0110768 0)
(-0.18655 -0.0112789 0)
(-0.183233 -0.0114665 0)
(-0.179866 -0.0116399 0)
(-0.176455 -0.0117987 0)
(-0.173003 -0.0119421 0)
(-0.169515 -0.0120702 0)
(-0.165996 -0.0121832 0)
(-0.16245 -0.0122801 0)
(-0.158883 -0.0123618 0)
(-0.155297 -0.0124286 0)
(-0.151696 -0.0124811 0)
(-0.148086 -0.012519 0)
(-0.144471 -0.0125429 0)
(-0.140851 -0.0125528 0)
(-0.137233 -0.0125497 0)
(-0.133619 -0.0125336 0)
(-0.130013 -0.0125043 0)
(-0.126417 -0.0124608 0)
(-0.122834 -0.0124085 0)
(-0.119266 -0.0123435 0)
(-0.115715 -0.0122667 0)
(-0.112185 -0.0121784 0)
(-0.108677 -0.0120797 0)
(-0.105193 -0.011973 0)
(-0.101735 -0.0118527 0)
(-0.0983053 -0.0117236 0)
(-0.0949055 -0.0115845 0)
(-0.0915346 -0.0114346 0)
(-0.0881954 -0.011277 0)
(-0.0848912 -0.0111091 0)
(-0.0816229 -0.0109346 0)
(-0.0783884 -0.0107486 0)
(-0.0751914 -0.0105585 0)
(-0.0720384 -0.0103576 0)
(-0.0689226 -0.01015 0)
(-0.0658498 -0.00993692 0)
(-0.0628255 -0.0097179 0)
(-0.0598485 -0.00949398 0)
(-0.056925 -0.00926677 0)
(-0.054053 -0.00903641 0)
(-0.0512331 -0.00880243 0)
(-0.0484731 -0.00857158 0)
(-0.0457714 -0.00834162 0)
(-0.0431332 -0.00811209 0)
(-0.0405653 -0.0078843 0)
(-0.0380684 -0.00765584 0)
(-0.0356474 -0.00743136 0)
(-0.0333004 -0.00721605 0)
(-0.0310307 -0.00699548 0)
(-0.0288488 -0.00678528 0)
(-0.0267432 -0.00658155 0)
(-0.0247181 -0.00638124 0)
(-0.0227861 -0.00619465 0)
(-0.0209349 -0.0060104 0)
(-0.019169 -0.00583368 0)
(-0.0175667 -0.0056699 0)
(-0.0153904 -0.00549524 0)
(-0.0156572 -0.00532036 0)
(-0.0104119 -0.00532266 0)
(-0.0155759 -0.00492249 0)
(-0.00449315 -0.00525137 0)
(-0.0167669 -0.00462399 0)
(0.0017963 -0.00515886 0)
(-0.0185613 -0.00444619 0)
(0.00792032 -0.00495665 0)
(-0.0204242 -0.0043608 0)
(0.0134642 -0.00461649 0)
(-0.0220358 -0.00434767 0)
(0.0182244 -0.004238 0)
(-0.0230798 -0.00448246 0)
(0.0220569 -0.0043721 0)
(0.0197573 0.0375814 0)
(-0.034186 0.0347713 0)
(0.0018293 0.0359496 0)
(-0.0441354 0.0360632 0)
(-0.019123 0.0357264 0)
(-0.0528313 0.0356891 0)
(-0.0399277 0.0352984 0)
(-0.0622765 0.0351579 0)
(-0.0589682 0.0347531 0)
(-0.0733603 0.0344717 0)
(-0.0758655 0.0340537 0)
(-0.0857899 0.0336584 0)
(-0.0911415 0.0331983 0)
(-0.0988064 0.0327154 0)
(-0.105282 0.0321993 0)
(-0.112036 0.0316498 0)
(-0.118557 0.0310704 0)
(-0.124985 0.0304607 0)
(-0.131277 0.029822 0)
(-0.137435 0.0291556 0)
(-0.143451 0.0284627 0)
(-0.149319 0.0277446 0)
(-0.155034 0.0270024 0)
(-0.160591 0.0262367 0)
(-0.165986 0.0254491 0)
(-0.171214 0.0246411 0)
(-0.17627 0.0238134 0)
(-0.181149 0.0229675 0)
(-0.185849 0.022105 0)
(-0.190366 0.0212267 0)
(-0.194697 0.0203339 0)
(-0.198839 0.0194286 0)
(-0.20279 0.0185118 0)
(-0.206544 0.0175844 0)
(-0.210103 0.0166481 0)
(-0.213464 0.0157043 0)
(-0.216626 0.0147545 0)
(-0.219588 0.0138001 0)
(-0.222348 0.0128424 0)
(-0.224907 0.0118831 0)
(-0.227265 0.0109235 0)
(-0.229421 0.0099646 0)
(-0.231378 0.00900825 0)
(-0.233134 0.00805634 0)
(-0.234691 0.00710974 0)
(-0.236051 0.00616944 0)
(-0.237215 0.00523682 0)
(-0.238185 0.00431272 0)
(-0.238962 0.00339834 0)
(-0.239549 0.00249523 0)
(-0.239949 0.00160456 0)
(-0.240164 0.000725803 0)
(-0.240196 -0.00013903 0)
(-0.24005 -0.000988555 0)
(-0.239727 -0.00182193 0)
(-0.239232 -0.00263909 0)
(-0.238569 -0.00343885 0)
(-0.237741 -0.00422032 0)
(-0.236752 -0.00498286 0)
(-0.235606 -0.00572551 0)
(-0.234307 -0.00644811 0)
(-0.232861 -0.00715034 0)
(-0.231269 -0.00783096 0)
(-0.229539 -0.00848941 0)
(-0.227674 -0.00912574 0)
(-0.225678 -0.00973929 0)
(-0.223558 -0.01033 0)
(-0.221317 -0.0108974 0)
(-0.218961 -0.0114413 0)
(-0.216494 -0.0119614 0)
(-0.213921 -0.0124575 0)
(-0.211249 -0.0129293 0)
(-0.20848 -0.013377 0)
(-0.205622 -0.0138003 0)
(-0.202678 -0.0141992 0)
(-0.199654 -0.0145737 0)
(-0.196555 -0.0149237 0)
(-0.193385 -0.0152492 0)
(-0.19015 -0.0155503 0)
(-0.186855 -0.0158265 0)
(-0.183503 -0.016078 0)
(-0.180102 -0.0163052 0)
(-0.176656 -0.0165079 0)
(-0.17317 -0.016687 0)
(-0.169649 -0.0168426 0)
(-0.166097 -0.0169756 0)
(-0.162518 -0.017086 0)
(-0.158919 -0.0171742 0)
(-0.155303 -0.0172414 0)
(-0.151673 -0.0172882 0)
(-0.148036 -0.0173137 0)
(-0.144394 -0.0173204 0)
(-0.140753 -0.0173065 0)
(-0.137115 -0.017275 0)
(-0.133484 -0.0172253 0)
(-0.129866 -0.0171586 0)
(-0.126265 -0.017075 0)
(-0.122682 -0.016976 0)
(-0.119119 -0.0168625 0)
(-0.115582 -0.0167336 0)
(-0.112076 -0.0165918 0)
(-0.108606 -0.0164378 0)
(-0.105166 -0.0162716 0)
(-0.101761 -0.0160947 0)
(-0.0984027 -0.0159077 0)
(-0.0950874 -0.0157108 0)
(-0.0918159 -0.015506 0)
(-0.0885912 -0.0152941 0)
(-0.0854197 -0.0150752 0)
(-0.0822978 -0.0148501 0)
(-0.0792301 -0.0146185 0)
(-0.0762147 -0.0143834 0)
(-0.0732534 -0.0141434 0)
(-0.0703502 -0.0138978 0)
(-0.0675018 -0.0136503 0)
(-0.0647107 -0.0133982 0)
(-0.0619759 -0.0131428 0)
(-0.059303 -0.0128843 0)
(-0.0566816 -0.0126205 0)
(-0.0541191 -0.0123537 0)
(-0.0516202 -0.0120888 0)
(-0.0491746 -0.0118153 0)
(-0.0467855 -0.0115483 0)
(-0.0444509 -0.0112785 0)
(-0.0421739 -0.0110077 0)
(-0.0399621 -0.0107377 0)
(-0.0377968 -0.0104741 0)
(-0.0356805 -0.0102093 0)
(-0.0336295 -0.0099487 0)
(-0.0316257 -0.0096881 0)
(-0.0296799 -0.00943546 0)
(-0.0277823 -0.00918711 0)
(-0.0259319 -0.00894608 0)
(-0.0241415 -0.00870984 0)
(-0.0224464 -0.00848602 0)
(-0.0202627 -0.00826507 0)
(-0.0202932 -0.0080753 0)
(-0.0150946 -0.00788892 0)
(-0.0197592 -0.00771319 0)
(-0.00875217 -0.00754139 0)
(-0.0205175 -0.00739541 0)
(-0.00163924 -0.00724087 0)
(-0.0219719 -0.00711896 0)
(0.00555555 -0.00696807 0)
(-0.0233799 -0.00690093 0)
(0.0121127 -0.00670026 0)
(-0.0239976 -0.00674322 0)
(0.0174166 -0.00643369 0)
(-0.0232336 -0.00668954 0)
(0.0210486 -0.00649121 0)
(0.0196131 0.0484342 0)
(-0.034153 0.0447554 0)
(0.00154072 0.046317 0)
(-0.0442187 0.046437 0)
(-0.0195416 0.0460204 0)
(-0.053049 0.0459719 0)
(-0.0404518 0.0454691 0)
(-0.0626468 0.045294 0)
(-0.0595759 0.0447708 0)
(-0.0738907 0.0444158 0)
(-0.0765521 0.0438764 0)
(-0.0864733 0.0433731 0)
(-0.0919213 0.0427807 0)
(-0.0996258 0.0421634 0)
(-0.10616 0.0415003 0)
(-0.112967 0.0407946 0)
(-0.119541 0.0400491 0)
(-0.12602 0.0392643 0)
(-0.132359 0.0384421 0)
(-0.138562 0.037584 0)
(-0.14462 0.0366912 0)
(-0.150528 0.035765 0)
(-0.156281 0.0348066 0)
(-0.161874 0.0338177 0)
(-0.167301 0.0327999 0)
(-0.172558 0.0317552 0)
(-0.177641 0.0306853 0)
(-0.182546 0.0295919 0)
(-0.187269 0.028476 0)
(-0.191806 0.0273397 0)
(-0.196153 0.0261851 0)
(-0.200309 0.0250139 0)
(-0.204271 0.0238283 0)
(-0.208038 0.0226297 0)
(-0.211606 0.0214201 0)
(-0.214974 0.0202015 0)
(-0.218141 0.0189756 0)
(-0.221106 0.0177438 0)
(-0.223868 0.0165083 0)
(-0.226427 0.0152713 0)
(-0.228783 0.0140343 0)
(-0.230937 0.0127988 0)
(-0.232887 0.0115665 0)
(-0.234635 0.0103391 0)
(-0.236183 0.00911824 0)
(-0.237532 0.00790552 0)
(-0.238683 0.00670245 0)
(-0.239638 0.00551095 0)
(-0.240399 0.00433245 0)
(-0.240967 0.00316751 0)
(-0.241348 0.00201796 0)
(-0.241542 0.000885507 0)
(-0.241551 -0.000229009 0)
(-0.24138 -0.00132412 0)
(-0.241031 -0.00239884 0)
(-0.24051 -0.00345201 0)
(-0.239819 -0.00448252 0)
(-0.238961 -0.00548936 0)
(-0.237941 -0.00647178 0)
(-0.236764 -0.00742893 0)
(-0.235434 -0.00835978 0)
(-0.233953 -0.00926364 0)
(-0.232327 -0.0101401 0)
(-0.230562 -0.0109885 0)
(-0.228661 -0.0118079 0)
(-0.22663 -0.012598 0)
(-0.224473 -0.0133584 0)
(-0.222195 -0.014089 0)
(-0.219802 -0.0147893 0)
(-0.217297 -0.0154585 0)
(-0.214686 -0.0160967 0)
(-0.211976 -0.0167037 0)
(-0.209169 -0.0172796 0)
(-0.206272 -0.0178241 0)
(-0.20329 -0.0183371 0)
(-0.200228 -0.0188186 0)
(-0.197091 -0.0192691 0)
(-0.193884 -0.0196887 0)
(-0.190612 -0.0200773 0)
(-0.187281 -0.0204357 0)
(-0.183895 -0.0207641 0)
(-0.18046 -0.0210627 0)
(-0.17698 -0.021332 0)
(-0.17346 -0.0215723 0)
(-0.169905 -0.0217834 0)
(-0.166319 -0.0219658 0)
(-0.162707 -0.0221205 0)
(-0.159074 -0.0222473 0)
(-0.155426 -0.0223469 0)
(-0.151763 -0.0224195 0)
(-0.148093 -0.0224663 0)
(-0.144418 -0.0224881 0)
(-0.140743 -0.0224838 0)
(-0.137074 -0.0224552 0)
(-0.133413 -0.0224036 0)
(-0.129763 -0.0223305 0)
(-0.126129 -0.0222336 0)
(-0.122516 -0.0221151 0)
(-0.118922 -0.0219762 0)
(-0.115354 -0.0218176 0)
(-0.111817 -0.0216404 0)
(-0.108313 -0.0214444 0)
(-0.104842 -0.0212286 0)
(-0.10141 -0.0209995 0)
(-0.0980186 -0.0207538 0)
(-0.0946726 -0.0204931 0)
(-0.0913724 -0.0202173 0)
(-0.0881197 -0.0199301 0)
(-0.0849187 -0.0196301 0)
(-0.0817705 -0.0193178 0)
(-0.0786769 -0.0189968 0)
(-0.0756405 -0.0186633 0)
(-0.0726629 -0.0183245 0)
(-0.0697444 -0.0179767 0)
(-0.0668874 -0.0176235 0)
(-0.0640932 -0.0172657 0)
(-0.0613629 -0.0169038 0)
(-0.0586963 -0.0165385 0)
(-0.0560916 -0.0161703 0)
(-0.0535562 -0.0158029 0)
(-0.0510776 -0.0154322 0)
(-0.0486642 -0.0150623 0)
(-0.0463188 -0.0146964 0)
(-0.0440256 -0.0143302 0)
(-0.0417968 -0.0139639 0)
(-0.0396391 -0.0136007 0)
(-0.0375337 -0.0132366 0)
(-0.0354796 -0.0128868 0)
(-0.0334883 -0.0125356 0)
(-0.0315483 -0.0121904 0)
(-0.0296615 -0.011855 0)
(-0.0278303 -0.0115221 0)
(-0.0260416 -0.0112053 0)
(-0.0243055 -0.0108929 0)
(-0.0226782 -0.0105963 0)
(-0.0204913 -0.0103236 0)
(-0.0206244 -0.0099945 0)
(-0.0153209 -0.00983083 0)
(-0.0201542 -0.00941687 0)
(-0.00900818 -0.00939414 0)
(-0.0208917 -0.0089235 0)
(-0.00200804 -0.00897711 0)
(-0.0222562 -0.00857918 0)
(0.00508662 -0.00858886 0)
(-0.023566 -0.00836392 0)
(0.0116284 -0.00827486 0)
(-0.0240829 -0.00823681 0)
(0.0170345 -0.0080843 0)
(-0.0232149 -0.00815786 0)
(0.0208352 -0.00812276 0)
(0.0194377 0.0593876 0)
(-0.0341269 0.0548768 0)
(0.00118406 0.0567964 0)
(-0.0443408 0.0569404 0)
(-0.0200663 0.0564306 0)
(-0.053334 0.0563746 0)
(-0.0411151 0.0557568 0)
(-0.0631224 0.055547 0)
(-0.0603434 0.0549024 0)
(-0.0745651 0.0544696 0)
(-0.0774194 0.0538024 0)
(-0.0873306 0.0531874 0)
(-0.0928938 0.0524578 0)
(-0.100643 0.051701 0)
(-0.107248 0.0508849 0)
(-0.114118 0.0500189 0)
(-0.120751 0.0491035 0)
(-0.127287 0.04814 0)
(-0.133681 0.0471304 0)
(-0.139936 0.0460759 0)
(-0.146045 0.0449782 0)
(-0.152001 0.0438395 0)
(-0.1578 0.0426616 0)
(-0.163436 0.0414465 0)
(-0.168904 0.040196 0)
(-0.174199 0.0389121 0)
(-0.179318 0.0375971 0)
(-0.184256 0.0362528 0)
(-0.189009 0.0348815 0)
(-0.193574 0.0334862 0)
(-0.197947 0.0320684 0)
(-0.202127 0.0306298 0)
(-0.20611 0.0291733 0)
(-0.209893 0.0277012 0)
(-0.213475 0.0262157 0)
(-0.216855 0.024719 0)
(-0.220032 0.0232133 0)
(-0.223005 0.021701 0)
(-0.225771 0.0201842 0)
(-0.22833 0.0186653 0)
(-0.230684 0.0171462 0)
(-0.232834 0.0156291 0)
(-0.234778 0.0141162 0)
(-0.236518 0.0126094 0)
(-0.238055 0.0111108 0)
(-0.23939 0.00962308 0)
(-0.240524 0.00814748 0)
(-0.24146 0.00668505 0)
(-0.2422 0.00523807 0)
(-0.242748 0.0038089 0)
(-0.243102 0.00239897 0)
(-0.243269 0.00100998 0)
(-0.24325 -0.000356143 0)
(-0.243048 -0.00169886 0)
(-0.242668 -0.00301645 0)
(-0.242112 -0.0043075 0)
(-0.241385 -0.00557074 0)
(-0.24049 -0.00680489 0)
(-0.239432 -0.00800896 0)
(-0.238215 -0.00918194 0)
(-0.236843 -0.0103225 0)
(-0.235321 -0.0114297 0)
(-0.233653 -0.0125033 0)
(-0.231844 -0.0135423 0)
(-0.229898 -0.0145458 0)
(-0.227822 -0.0155136 0)
(-0.225619 -0.0164447 0)
(-0.223295 -0.0173386 0)
(-0.220854 -0.0181952 0)
(-0.218302 -0.0190142 0)
(-0.215644 -0.0197951 0)
(-0.212885 -0.0205375 0)
(-0.21003 -0.0212418 0)
(-0.207085 -0.0219074 0)
(-0.204055 -0.0225342 0)
(-0.200944 -0.0231228 0)
(-0.19776 -0.0236735 0)
(-0.194505 -0.0241856 0)
(-0.191185 -0.0246591 0)
(-0.187806 -0.025095 0)
(-0.184373 -0.0254932 0)
(-0.180891 -0.0258541 0)
(-0.177364 -0.0261781 0)
(-0.173798 -0.0264656 0)
(-0.170198 -0.0267171 0)
(-0.166568 -0.0269332 0)
(-0.162913 -0.0271145 0)
(-0.159237 -0.0272617 0)
(-0.155546 -0.0273751 0)
(-0.151844 -0.0274553 0)
(-0.148136 -0.0275043 0)
(-0.144423 -0.0275213 0)
(-0.14071 -0.0275088 0)
(-0.137005 -0.0274664 0)
(-0.133311 -0.0273951 0)
(-0.129628 -0.0272963 0)
(-0.12596 -0.0271727 0)
(-0.122315 -0.027021 0)
(-0.118692 -0.0268442 0)
(-0.115096 -0.0266447 0)
(-0.111531 -0.0264221 0)
(-0.107999 -0.0261774 0)
(-0.104503 -0.0259126 0)
(-0.101047 -0.0256275 0)
(-0.0976323 -0.0253259 0)
(-0.094262 -0.0250052 0)
(-0.0909393 -0.0246674 0)
(-0.0876652 -0.0243145 0)
(-0.0844425 -0.0239476 0)
(-0.0812742 -0.0235693 0)
(-0.0781595 -0.0231765 0)
(-0.0751018 -0.0227734 0)
(-0.0721036 -0.022361 0)
(-0.0691645 -0.0219387 0)
(-0.0662881 -0.0215085 0)
(-0.0634729 -0.021076 0)
(-0.060719 -0.0206331 0)
(-0.0580323 -0.0201854 0)
(-0.0554072 -0.0197354 0)
(-0.0528458 -0.0192814 0)
(-0.0503534 -0.0188217 0)
(-0.0479302 -0.018372 0)
(-0.0455681 -0.0179163 0)
(-0.043261 -0.0174675 0)
(-0.0410217 -0.0170194 0)
(-0.0388519 -0.016577 0)
(-0.036749 -0.0161353 0)
(-0.0346989 -0.0157065 0)
(-0.0327054 -0.0152854 0)
(-0.0307766 -0.0148705 0)
(-0.0289024 -0.0144684 0)
(-0.0270845 -0.0140762 0)
(-0.0253151 -0.0136979 0)
(-0.0236021 -0.0133313 0)
(-0.0220082 -0.0129794 0)
(-0.0198169 -0.0126469 0)
(-0.020037 -0.0123197 0)
(-0.0147388 -0.012022 0)
(-0.019625 -0.0117625 0)
(-0.00854252 -0.0114304 0)
(-0.0203919 -0.0113345 0)
(-0.00167724 -0.010884 0)
(-0.0217558 -0.010997 0)
(0.0052678 -0.0104527 0)
(-0.023061 -0.0106743 0)
(0.0116524 -0.0101935 0)
(-0.0236272 -0.0103463 0)
(0.016906 -0.0101135 0)
(-0.0229098 -0.010081 0)
(0.0206567 -0.0101663 0)
(0.0192141 0.0704551 0)
(-0.0340822 0.0651183 0)
(0.000761922 0.0673954 0)
(-0.0444713 0.067563 0)
(-0.0206791 0.06696 0)
(-0.0536583 0.0668905 0)
(-0.0418841 0.0661581 0)
(-0.0636681 0.065908 0)
(-0.0612366 0.0651392 0)
(-0.0753489 0.0646266 0)
(-0.0784292 0.0638332 0)
(-0.0883287 0.0631036 0)
(-0.0940312 0.0622351 0)
(-0.101834 0.0613369 0)
(-0.108524 0.0603659 0)
(-0.115467 0.0593365 0)
(-0.122173 0.058248 0)
(-0.128781 0.0571026 0)
(-0.135244 0.0559019 0)
(-0.141566 0.0546473 0)
(-0.147737 0.0533421 0)
(-0.153754 0.0519882 0)
(-0.15961 0.0505876 0)
(-0.165301 0.049143 0)
(-0.17082 0.0476557 0)
(-0.176164 0.0461285 0)
(-0.181329 0.044565 0)
(-0.186309 0.042967 0)
(-0.191101 0.0413366 0)
(-0.195701 0.0396771 0)
(-0.200106 0.0379908 0)
(-0.204315 0.0362806 0)
(-0.208323 0.0345493 0)
(-0.212129 0.0327994 0)
(-0.21573 0.0310335 0)
(-0.219125 0.0292542 0)
(-0.222313 0.0274647 0)
(-0.225293 0.0256677 0)
(-0.228064 0.0238655 0)
(-0.230626 0.0220603 0)
(-0.23298 0.020255 0)
(-0.235125 0.0184524 0)
(-0.237061 0.0166548 0)
(-0.238789 0.0148648 0)
(-0.240311 0.0130852 0)
(-0.241628 0.0113176 0)
(-0.242744 0.00956418 0)
(-0.243659 0.00782769 0)
(-0.244374 0.00611045 0)
(-0.244891 0.00441459 0)
(-0.245216 0.002742 0)
(-0.245349 0.00109318 0)
(-0.245295 -0.000528386 0)
(-0.245056 -0.00212162 0)
(-0.244637 -0.00368474 0)
(-0.24404 -0.00521612 0)
(-0.24327 -0.00671427 0)
(-0.242331 -0.00817776 0)
(-0.241226 -0.00960528 0)
(-0.239961 -0.0109957 0)
(-0.23854 -0.0123479 0)
(-0.236968 -0.0136606 0)
(-0.235248 -0.0149327 0)
(-0.233386 -0.0161634 0)
(-0.231387 -0.0173525 0)
(-0.229255 -0.0184986 0)
(-0.226996 -0.0196012 0)
(-0.224616 -0.0206595 0)
(-0.222118 -0.0216732 0)
(-0.219509 -0.0226423 0)
(-0.216793 -0.0235662 0)
(-0.213977 -0.0244445 0)
(-0.211064 -0.0252772 0)
(-0.20806 -0.0260639 0)
(-0.204972 -0.0268049 0)
(-0.201805 -0.0275008 0)
(-0.198562 -0.0281507 0)
(-0.195249 -0.0287547 0)
(-0.191872 -0.029314 0)
(-0.188437 -0.0298283 0)
(-0.184948 -0.0302982 0)
(-0.18141 -0.0307241 0)
(-0.177829 -0.0311063 0)
(-0.174209 -0.0314458 0)
(-0.170556 -0.031743 0)
(-0.166873 -0.0319979 0)
(-0.163166 -0.0322118 0)
(-0.15944 -0.0323853 0)
(-0.155699 -0.0325191 0)
(-0.151948 -0.0326141 0)
(-0.148191 -0.0326708 0)
(-0.144432 -0.0326898 0)
(-0.140675 -0.0326741 0)
(-0.136925 -0.0326226 0)
(-0.133186 -0.0325369 0)
(-0.129464 -0.0324168 0)
(-0.125758 -0.0322669 0)
(-0.122071 -0.0320851 0)
(-0.118411 -0.0318737 0)
(-0.11478 -0.0316335 0)
(-0.11118 -0.031366 0)
(-0.107617 -0.0310719 0)
(-0.10409 -0.030756 0)
(-0.100605 -0.0304126 0)
(-0.0971635 -0.0300478 0)
(-0.0937654 -0.0296619 0)
(-0.0904179 -0.029256 0)
(-0.0871216 -0.0288314 0)
(-0.0838811 -0.0283907 0)
(-0.0806917 -0.0279333 0)
(-0.0775573 -0.0274603 0)
(-0.0744859 -0.026975 0)
(-0.0714724 -0.0264773 0)
(-0.0685183 -0.0259722 0)
(-0.0656344 -0.0254538 0)
(-0.0628082 -0.0249293 0)
(-0.0600409 -0.0243986 0)
(-0.0573467 -0.0238623 0)
(-0.0547139 -0.0233198 0)
(-0.0521447 -0.0227763 0)
(-0.0496503 -0.0222311 0)
(-0.0472203 -0.0216863 0)
(-0.0448534 -0.0211393 0)
(-0.0425483 -0.0205984 0)
(-0.0403064 -0.020063 0)
(-0.0381366 -0.0195327 0)
(-0.0360306 -0.0190093 0)
(-0.0339874 -0.0184934 0)
(-0.0319998 -0.0179871 0)
(-0.0300734 -0.0174913 0)
(-0.0282081 -0.0170084 0)
(-0.0264029 -0.0165393 0)
(-0.0246461 -0.0160834 0)
(-0.0229461 -0.015645 0)
(-0.021372 -0.0152235 0)
(-0.0192175 -0.0148078 0)
(-0.0194267 -0.0144859 0)
(-0.0142002 -0.0139929 0)
(-0.0190421 -0.0138767 0)
(-0.00810111 -0.0132156 0)
(-0.0198436 -0.013408 0)
(-0.00137036 -0.0125106 0)
(-0.0212264 -0.0130314 0)
(0.00541333 -0.0119975 0)
(-0.0225544 -0.0126525 0)
(0.0116503 -0.0117379 0)
(-0.0231849 -0.0122404 0)
(0.0167911 -0.0117316 0)
(-0.0226063 -0.0118516 0)
(0.0204747 -0.0118979 0)
(0.0189462 0.0816626 0)
(-0.0340275 0.0754991 0)
(0.000269151 0.078133 0)
(-0.0446238 0.0783245 0)
(-0.0213939 0.0776218 0)
(-0.0540402 0.0775414 0)
(-0.0427779 0.0766942 0)
(-0.0643116 0.0763985 0)
(-0.0622762 0.0755082 0)
(-0.0762617 0.0749114 0)
(-0.0796049 0.0739916 0)
(-0.0894958 0.0731428 0)
(-0.0953586 0.0721327 0)
(-0.103225 0.0710907 0)
(-0.110017 0.0699624 0)
(-0.117048 0.0687658 0)
(-0.123842 0.0675008 0)
(-0.130533 0.0661699 0)
(-0.137077 0.0647743 0)
(-0.143477 0.0633163 0)
(-0.149722 0.0617995 0)
(-0.155811 0.0602259 0)
(-0.161735 0.058598 0)
(-0.167491 0.056919 0)
(-0.173072 0.0551907 0)
(-0.178473 0.0534158 0)
(-0.18369 0.0515984 0)
(-0.188719 0.0497413 0)
(-0.193557 0.0478473 0)
(-0.1982 0.0459191 0)
(-0.202643 0.0439596 0)
(-0.206885 0.0419722 0)
(-0.210923 0.0399605 0)
(-0.214754 0.0379275 0)
(-0.218377 0.0358762 0)
(-0.221789 0.0338098 0)
(-0.224991 0.0317312 0)
(-0.227981 0.0296433 0)
(-0.230758 0.0275496 0)
(-0.233322 0.0254534 0)
(-0.235672 0.0233576 0)
(-0.23781 0.0212652 0)
(-0.239737 0.0191791 0)
(-0.241453 0.0171019 0)
(-0.242958 0.0150362 0)
(-0.244257 0.0129849 0)
(-0.245348 0.0109507 0)
(-0.246234 0.00893667 0)
(-0.246918 0.00694535 0)
(-0.247403 0.004978 0)
(-0.247693 0.00303752 0)
(-0.247789 0.0011268 0)
(-0.247693 -0.000754308 0)
(-0.247411 -0.00260148 0)
(-0.246945 -0.0044133 0)
(-0.246299 -0.00618805 0)
(-0.245478 -0.00792394 0)
(-0.244486 -0.00961925 0)
(-0.243327 -0.0112727 0)
(-0.242006 -0.0128829 0)
(-0.240527 -0.0144485 0)
(-0.238894 -0.0159679 0)
(-0.237113 -0.0174405 0)
(-0.235189 -0.0188649 0)
(-0.233127 -0.0202403 0)
(-0.230931 -0.0215659 0)
(-0.228607 -0.022841 0)
(-0.22616 -0.0240649 0)
(-0.223596 -0.0252369 0)
(-0.22092 -0.0263567 0)
(-0.218136 -0.0274239 0)
(-0.215252 -0.0284383 0)
(-0.212271 -0.0293995 0)
(-0.209199 -0.0303079 0)
(-0.206043 -0.0311633 0)
(-0.202808 -0.0319652 0)
(-0.199496 -0.0327138 0)
(-0.196116 -0.0334098 0)
(-0.192673 -0.0340537 0)
(-0.189171 -0.0346454 0)
(-0.185616 -0.0351853 0)
(-0.182012 -0.035674 0)
(-0.178367 -0.0361121 0)
(-0.174683 -0.0365006 0)
(-0.170967 -0.0368401 0)
(-0.167222 -0.03713 0)
(-0.163455 -0.0373726 0)
(-0.159669 -0.0375683 0)
(-0.15587 -0.0377179 0)
(-0.152062 -0.0378224 0)
(-0.148249 -0.037883 0)
(-0.144436 -0.0379006 0)
(-0.140626 -0.0378763 0)
(-0.136825 -0.0378116 0)
(-0.133036 -0.0377077 0)
(-0.129264 -0.0375652 0)
(-0.125511 -0.0373848 0)
(-0.121781 -0.0371697 0)
(-0.118078 -0.0369201 0)
(-0.114404 -0.0366375 0)
(-0.110765 -0.0363228 0)
(-0.107167 -0.0359782 0)
(-0.103603 -0.0356059 0)
(-0.10008 -0.0352047 0)
(-0.0966067 -0.0347763 0)
(-0.0931799 -0.0343249 0)