/*--------------------------------*- C++ -*----------------------------------*\
| =========                 |                                                 |
| \\      /  F ield         | OpenFOAM: The Open Source CFD Toolbox           |
|  \\    /   O peration     | Version:  v2006                                 |
|   \\  /    A nd           | Website:  www.openfoam.com                      |
|    \\/     M anipulation  |                                                 |
\*---------------------------------------------------------------------------*/
FoamFile
{
    version     2.0;
    format      ascii;
    class       volScalarField;
    location    "3.75";
    object      r;
}
// * * * * * * * * * * * * * * * * * * * * * * * * * * * * * * * * * * * * * //

dimensions      [1 2 0 0 0 0 0];


internalField   nonuniform List<scalar> 
500
(
2.58328e-60
1.3676e-59
5.21768e-59
1.88993e-58
6.75807e-58
2.40252e-57
8.50245e-57
2.99607e-56
1.05123e-55
3.67265e-55
1.27756e-54
4.42476e-54
1.5258e-53
5.23828e-53
1.79041e-52
6.09226e-52
2.06372e-51
6.95921e-51
2.3361e-50
7.8061e-50
2.59641e-49
8.59604e-49
2.83266e-48
9.29072e-48
3.03285e-47
9.85333e-47
3.18592e-46
1.02516e-45
3.28279e-45
1.0461e-44
3.31715e-44
1.04667e-43
3.28618e-43
1.02659e-42
3.19089e-42
9.86783e-42
3.03608e-41
9.29331e-41
2.82996e-40
8.57293e-40
2.58346e-39
7.74431e-39
2.30918e-38
6.84877e-38
2.02038e-37
5.92792e-37
1.72984e-36
5.02033e-36
1.44898e-35
4.15893e-35
1.18707e-34
3.36922e-34
9.50883e-34
2.66842e-33
7.4455e-33
2.06553e-32
5.69708e-32
1.56221e-31
4.25873e-31
1.15413e-30
3.10921e-30
8.32627e-30
2.21636e-29
5.86412e-29
1.54214e-28
4.03075e-28
1.04707e-27
2.70318e-27
6.93538e-27
1.76826e-26
4.48006e-26
1.1279e-25
2.82157e-25
7.01338e-25
1.73207e-24
4.25002e-24
1.03607e-23
2.50922e-23
6.03714e-23
1.44294e-22
3.42591e-22
8.07977e-22
1.89279e-21
4.40424e-21
1.01787e-20
2.3364e-20
5.32629e-20
1.2059e-19
2.71137e-19
6.05408e-19
1.34237e-18
2.95563e-18
6.46197e-18
1.40283e-17
3.02384e-17
6.47159e-17
1.37515e-16
2.90111e-16
6.07632e-16
1.26348e-15
2.60815e-15
5.34473e-15
1.08726e-14
2.19558e-14
4.40107e-14
8.75694e-14
1.7295e-13
3.39043e-13
6.59697e-13
1.27403e-12
2.44206e-12
4.64581e-12
8.7718e-12
1.64373e-11
3.0569e-11
5.642e-11
1.03343e-10
1.87852e-10
3.38872e-10
6.06644e-10
1.07772e-09
1.89998e-09
3.32399e-09
5.77075e-09
9.94181e-09
1.69964e-08
2.88341e-08
4.85412e-08
8.10904e-08
1.34426e-07
2.21132e-07
3.60973e-07
5.84729e-07
9.39926e-07
1.49932e-06
2.37332e-06
3.7281e-06
5.81152e-06
8.99015e-06
1.38015e-05
2.10266e-05
3.17911e-05
4.77024e-05
7.10365e-05
0.000104987
0.000153998
0.000224194
0.000323947
0.000464595
0.000661359
0.000934485
0.00131067
0.00182477
0.00252195
0.00346009
0.00471278
0.00637264
0.0085552
0.0114032
0.0150912
0.0198308
0.0258757
0.0335276
0.0431407
0.0551274
0.0699624
0.0881862
0.110407
0.137302
0.169616
0.208155
0.253786
0.307421
0.370008
0.442517
0.525921
0.621171
0.72918
0.850791
0.986756
1.13771
1.30413
1.48634
1.68446
1.8984
2.12785
2.37227
2.63088
2.90266
3.18638
3.48059
3.78368
4.09386
4.40921
4.72776
5.04744
5.36621
5.68204
5.99298
6.29716
6.59286
6.87854
7.15282
7.41453
7.66273
7.89666
8.11583
8.31993
8.50885
8.68268
8.84168
8.98627
9.11696
9.23441
9.33933
9.43251
9.51476
9.58692
9.64981
9.70427
9.75106
9.79091
9.82452
9.85248
9.87534
9.89354
9.90745
9.91735
9.92341
9.92573
9.92428
9.91894
9.90949
9.89561
9.87688
9.85276
9.82266
9.78586
9.7416
9.68904
9.62729
9.55543
9.47252
9.37766
9.26994
9.14855
9.01275
8.86193
8.6956
8.51347
8.3154
8.1015
7.87207
7.62767
7.36908
7.09731
6.8136
6.51939
6.21631
5.90614
5.59078
5.27224
4.95256
4.63379
4.31796
4.00702
3.70284
3.40714
3.12146
2.84718
2.58546
2.33727
2.10333
1.88415
1.68005
1.49112
1.31727
1.15825
1.01363
0.882885
0.765366
0.660344
0.567026
0.484579
0.412148
0.348874
0.293908
0.246422
0.205625
0.170767
0.141145
0.116108
0.0950607
0.0774611
0.0628226
0.0507111
0.0407427
0.0325809
0.0259328
0.0205454
0.0162019
0.0127178
0.00993707
0.00772882
0.0059839
0.0046119
0.00353842
0.00270258
0.00205494
0.00155553
0.00117226
0.000879518
0.00065698
0.0004886
0.000361792
0.000266733
0.000195802
0.000143116
0.00010416
7.54852e-05
5.44733e-05
3.91449e-05
2.80121e-05
1.9962e-05
1.41664e-05
1.0012e-05
7.04696e-06
4.93978e-06
3.44865e-06
2.39793e-06
1.66065e-06
1.14547e-06
7.8698e-07
5.3855e-07
3.67097e-07
2.49252e-07
1.6858e-07
1.13578e-07
7.62275e-08
5.09645e-08
3.39447e-08
2.25234e-08
1.48889e-08
9.80538e-09
6.43356e-09
4.20564e-09
2.73914e-09
1.77749e-09
1.14926e-09
7.40391e-10
4.75269e-10
3.03993e-10
1.9375e-10
1.2305e-10
7.78745e-11
4.9112e-11
3.08651e-11
1.93306e-11
1.2065e-11
7.5045e-12
4.65198e-12
2.87397e-12
1.76956e-12
1.08591e-12
6.6416e-13
4.04869e-13
2.45994e-13
1.48975e-13
8.99257e-14
5.41062e-14
3.24497e-14
1.9399e-14
1.15602e-14
6.86707e-15
4.06638e-15
2.40038e-15
1.41253e-15
8.28638e-16
4.84609e-16
2.82542e-16
1.64228e-16
9.51678e-17
5.49819e-17
3.16696e-17
1.81872e-17
1.04135e-17
5.94484e-18
3.38379e-18
1.92041e-18
1.08672e-18
6.13172e-19
3.44979e-19
1.93534e-19
1.08263e-19
6.03903e-20
3.35913e-20
1.86322e-20
1.03059e-20
5.68458e-21
3.12685e-21
1.71521e-21
9.38289e-22
5.11882e-22
2.78499e-22
1.51113e-22
8.17737e-23
4.41329e-23
2.37549e-23
1.27525e-23
6.82794e-24
3.64623e-24
1.94207e-24
1.03171e-24
5.46668e-25
2.88917e-25
1.52304e-25
8.00828e-26
4.20016e-26
2.19733e-26
1.14666e-26
5.96876e-27
3.09923e-27
1.60526e-27
8.29405e-28
4.27485e-28
2.19793e-28
1.12733e-28
5.7681e-29
2.94422e-29
1.49922e-29
7.61589e-30
3.85962e-30
1.95137e-30
9.84264e-31
4.95296e-31
2.48658e-31
1.24546e-31
6.22379e-32
3.10296e-32
1.54349e-32
7.66013e-33
3.79299e-33
1.87389e-33
9.23691e-34
4.54292e-34
2.22932e-34
1.09155e-34
5.33276e-35
2.59957e-35
1.26444e-35
6.13684e-36
2.97197e-36
1.43616e-36
6.92504e-37
3.33203e-37
1.59979e-37
7.66467e-38
3.66438e-38
1.74819e-38
8.32265e-39
3.95389e-39
1.87447e-39
8.86809e-40
4.18679e-40
1.97259e-40
9.27468e-41
4.35183e-41
2.03779e-41
9.52283e-42
4.44113e-42
2.06702e-42
9.60123e-43
4.45082e-43
2.05915e-43
9.50769e-44
4.38132e-44
2.01502e-44
9.24918e-45
4.2372e-45
1.93736e-45
8.84097e-46
4.02672e-46
1.83049e-46
8.30526e-47
3.76105e-47
1.69997e-47
7.66919e-48
3.45333e-48
1.55207e-48
6.9626e-49
3.11761e-49
1.39336e-49
6.21588e-50
2.76783e-50
1.23021e-50
5.45789e-51
2.41712e-51
1.06917e-51
4.75792e-52
2.32494e-52
)
;

boundaryField
{
    right
    {
        type            zeroGradient;
    }
    left
    {
        type            inletOutlet;
        inletValue      uniform 0;
        value           uniform 0;
    }
    top
    {
        type            zeroGradient;
    }
    bottom
    {
        type            zeroGradient;
    }
    empty
    {
        type            empty;
    }
}


// ************************************************************************* //
