/*--------------------------------*- C++ -*----------------------------------*\
| =========                 |                                                 |
| \\      /  F ield         | OpenFOAM: The Open Source CFD Toolbox           |
|  \\    /   O peration     | Version:  v2006                                 |
|   \\  /    A nd           | Website:  www.openfoam.com                      |
|    \\/     M anipulation  |                                                 |
\*---------------------------------------------------------------------------*/
FoamFile
{
    version     2.0;
    format      ascii;
    class       volVectorField;
    location    "0";
    object      U_new;
}
// * * * * * * * * * * * * * * * * * * * * * * * * * * * * * * * * * * * * * //

dimensions      [0 1 -1 0 0 0 0];


internalField   nonuniform List<vector> 
2500
(
(0.000688 -0.059168 0)
(0.000688 -0.177504 0)
(0.000688 -0.29584 0)
(0.000688 -0.414176 0)
(0.000688 -0.532512 0)
(0.000688 -0.650848 0)
(0.000688 -0.769184 0)
(0.000688 -0.88752 0)
(0.000688 -1.00586 0)
(0.000688 -1.12419 0)
(0.000688 -1.24253 0)
(0.000688 -1.36086 0)
(0.000688 -1.4792 0)
(0.000688 -1.59754 0)
(0.000688 -1.71587 0)
(0.000688 -1.83421 0)
(0.000688 -1.95254 0)
(0.000688 -2.07088 0)
(0.000688 -2.18922 0)
(0.000688 -2.30755 0)
(0.000688 -2.42589 0)
(0.000688 -2.54422 0)
(0.000688 -2.66256 0)
(0.000688 -2.7809 0)
(0.000688 -2.89923 0)
(0.000688 -3.01757 0)
(0.000688 -3.1359 0)
(0.000688 -3.25424 0)
(0.000688 -3.37258 0)
(0.000688 -3.49091 0)
(0.000688 -3.60925 0)
(0.000688 -3.72758 0)
(0.000688 -3.84592 0)
(0.000688 -3.96426 0)
(0.000688 -4.08259 0)
(0.000688 -4.20093 0)
(0.000688 -4.31926 0)
(0.000688 -4.4376 0)
(0.000688 -4.55594 0)
(0.000688 -4.67427 0)
(0.000688 -4.79261 0)
(0.000688 -4.91094 0)
(0.000688 -5.02928 0)
(0.000688 -5.14762 0)
(0.000688 -5.26595 0)
(0.000688 -5.38429 0)
(0.000688 -5.50262 0)
(0.000688 -5.62096 0)
(0.000688 -5.7393 0)
(0.000688 -5.85763 0)
(0.006192 -0.059168 0)
(0.006192 -0.177504 0)
(0.006192 -0.29584 0)
(0.006192 -0.414176 0)
(0.006192 -0.532512 0)
(0.006192 -0.650848 0)
(0.006192 -0.769184 0)
(0.006192 -0.88752 0)
(0.006192 -1.00586 0)
(0.006192 -1.12419 0)
(0.006192 -1.24253 0)
(0.006192 -1.36086 0)
(0.006192 -1.4792 0)
(0.006192 -1.59754 0)
(0.006192 -1.71587 0)
(0.006192 -1.83421 0)
(0.006192 -1.95254 0)
(0.006192 -2.07088 0)
(0.006192 -2.18922 0)
(0.006192 -2.30755 0)
(0.006192 -2.42589 0)
(0.006192 -2.54422 0)
(0.006192 -2.66256 0)
(0.006192 -2.7809 0)
(0.006192 -2.89923 0)
(0.006192 -3.01757 0)
(0.006192 -3.1359 0)
(0.006192 -3.25424 0)
(0.006192 -3.37258 0)
(0.006192 -3.49091 0)
(0.006192 -3.60925 0)
(0.006192 -3.72758 0)
(0.006192 -3.84592 0)
(0.006192 -3.96426 0)
(0.006192 -4.08259 0)
(0.006192 -4.20093 0)
(0.006192 -4.31926 0)
(0.006192 -4.4376 0)
(0.006192 -4.55594 0)
(0.006192 -4.67427 0)
(0.006192 -4.79261 0)
(0.006192 -4.91094 0)
(0.006192 -5.02928 0)
(0.006192 -5.14762 0)
(0.006192 -5.26595 0)
(0.006192 -5.38429 0)
(0.006192 -5.50262 0)
(0.006192 -5.62096 0)
(0.006192 -5.7393 0)
(0.006192 -5.85763 0)
(0.0172 -0.059168 0)
(0.0172 -0.177504 0)
(0.0172 -0.29584 0)
(0.0172 -0.414176 0)
(0.0172 -0.532512 0)
(0.0172 -0.650848 0)
(0.0172 -0.769184 0)
(0.0172 -0.88752 0)
(0.0172 -1.00586 0)
(0.0172 -1.12419 0)
(0.0172 -1.24253 0)
(0.0172 -1.36086 0)
(0.0172 -1.4792 0)
(0.0172 -1.59754 0)
(0.0172 -1.71587 0)
(0.0172 -1.83421 0)
(0.0172 -1.95254 0)
(0.0172 -2.07088 0)
(0.0172 -2.18922 0)
(0.0172 -2.30755 0)
(0.0172 -2.42589 0)
(0.0172 -2.54422 0)
(0.0172 -2.66256 0)
(0.0172 -2.7809 0)
(0.0172 -2.89923 0)
(0.0172 -3.01757 0)
(0.0172 -3.1359 0)
(0.0172 -3.25424 0)
(0.0172 -3.37258 0)
(0.0172 -3.49091 0)
(0.0172 -3.60925 0)
(0.0172 -3.72758 0)
(0.0172 -3.84592 0)
(0.0172 -3.96426 0)
(0.0172 -4.08259 0)
(0.0172 -4.20093 0)
(0.0172 -4.31926 0)
(0.0172 -4.4376 0)
(0.0172 -4.55594 0)
(0.0172 -4.67427 0)
(0.0172 -4.79261 0)
(0.0172 -4.91094 0)
(0.0172 -5.02928 0)
(0.0172 -5.14762 0)
(0.0172 -5.26595 0)
(0.0172 -5.38429 0)
(0.0172 -5.50262 0)
(0.0172 -5.62096 0)
(0.0172 -5.7393 0)
(0.0172 -5.85763 0)
(0.033712 -0.059168 0)
(0.033712 -0.177504 0)
(0.033712 -0.29584 0)
(0.033712 -0.414176 0)
(0.033712 -0.532512 0)
(0.033712 -0.650848 0)
(0.033712 -0.769184 0)
(0.033712 -0.88752 0)
(0.033712 -1.00586 0)
(0.033712 -1.12419 0)
(0.033712 -1.24253 0)
(0.033712 -1.36086 0)
(0.033712 -1.4792 0)
(0.033712 -1.59754 0)
(0.033712 -1.71587 0)
(0.033712 -1.83421 0)
(0.033712 -1.95254 0)
(0.033712 -2.07088 0)
(0.033712 -2.18922 0)
(0.033712 -2.30755 0)
(0.033712 -2.42589 0)
(0.033712 -2.54422 0)
(0.033712 -2.66256 0)
(0.033712 -2.7809 0)
(0.033712 -2.89923 0)
(0.033712 -3.01757 0)
(0.033712 -3.1359 0)
(0.033712 -3.25424 0)
(0.033712 -3.37258 0)
(0.033712 -3.49091 0)
(0.033712 -3.60925 0)
(0.033712 -3.72758 0)
(0.033712 -3.84592 0)
(0.033712 -3.96426 0)
(0.033712 -4.08259 0)
(0.033712 -4.20093 0)
(0.033712 -4.31926 0)
(0.033712 -4.4376 0)
(0.033712 -4.55594 0)
(0.033712 -4.67427 0)
(0.033712 -4.79261 0)
(0.033712 -4.91094 0)
(0.033712 -5.02928 0)
(0.033712 -5.14762 0)
(0.033712 -5.26595 0)
(0.033712 -5.38429 0)
(0.033712 -5.50262 0)
(0.033712 -5.62096 0)
(0.033712 -5.7393 0)
(0.033712 -5.85763 0)
(0.055728 -0.059168 0)
(0.055728 -0.177504 0)
(0.055728 -0.29584 0)
(0.055728 -0.414176 0)
(0.055728 -0.532512 0)
(0.055728 -0.650848 0)
(0.055728 -0.769184 0)
(0.055728 -0.88752 0)
(0.055728 -1.00586 0)
(0.055728 -1.12419 0)
(0.055728 -1.24253 0)
(0.055728 -1.36086 0)
(0.055728 -1.4792 0)
(0.055728 -1.59754 0)
(0.055728 -1.71587 0)
(0.055728 -1.83421 0)
(0.055728 -1.95254 0)
(0.055728 -2.07088 0)
(0.055728 -2.18922 0)
(0.055728 -2.30755 0)
(0.055728 -2.42589 0)
(0.055728 -2.54422 0)
(0.055728 -2.66256 0)
(0.055728 -2.7809 0)
(0.055728 -2.89923 0)
(0.055728 -3.01757 0)
(0.055728 -3.1359 0)
(0.055728 -3.25424 0)
(0.055728 -3.37258 0)
(0.055728 -3.49091 0)
(0.055728 -3.60925 0)
(0.055728 -3.72758 0)
(0.055728 -3.84592 0)
(0.055728 -3.96426 0)
(0.055728 -4.08259 0)
(0.055728 -4.20093 0)
(0.055728 -4.31926 0)
(0.055728 -4.4376 0)
(0.055728 -4.55594 0)
(0.055728 -4.67427 0)
(0.055728 -4.79261 0)
(0.055728 -4.91094 0)
(0.055728 -5.02928 0)
(0.055728 -5.14762 0)
(0.055728 -5.26595 0)
(0.055728 -5.38429 0)
(0.055728 -5.50262 0)
(0.055728 -5.62096 0)
(0.055728 -5.7393 0)
(0.055728 -5.85763 0)
(0.083248 -0.059168 0)
(0.083248 -0.177504 0)
(0.083248 -0.29584 0)
(0.083248 -0.414176 0)
(0.083248 -0.532512 0)
(0.083248 -0.650848 0)
(0.083248 -0.769184 0)
(0.083248 -0.88752 0)
(0.083248 -1.00586 0)
(0.083248 -1.12419 0)
(0.083248 -1.24253 0)
(0.083248 -1.36086 0)
(0.083248 -1.4792 0)
(0.083248 -1.59754 0)
(0.083248 -1.71587 0)
(0.083248 -1.83421 0)
(0.083248 -1.95254 0)
(0.083248 -2.07088 0)
(0.083248 -2.18922 0)
(0.083248 -2.30755 0)
(0.083248 -2.42589 0)
(0.083248 -2.54422 0)
(0.083248 -2.66256 0)
(0.083248 -2.7809 0)
(0.083248 -2.89923 0)
(0.083248 -3.01757 0)
(0.083248 -3.1359 0)
(0.083248 -3.25424 0)
(0.083248 -3.37258 0)
(0.083248 -3.49091 0)
(0.083248 -3.60925 0)
(0.083248 -3.72758 0)
(0.083248 -3.84592 0)
(0.083248 -3.96426 0)
(0.083248 -4.08259 0)
(0.083248 -4.20093 0)
(0.083248 -4.31926 0)
(0.083248 -4.4376 0)
(0.083248 -4.55594 0)
(0.083248 -4.67427 0)
(0.083248 -4.79261 0)
(0.083248 -4.91094 0)
(0.083248 -5.02928 0)
(0.083248 -5.14762 0)
(0.083248 -5.26595 0)
(0.083248 -5.38429 0)
(0.083248 -5.50262 0)
(0.083248 -5.62096 0)
(0.083248 -5.7393 0)
(0.083248 -5.85763 0)
(0.116272 -0.059168 0)
(0.116272 -0.177504 0)
(0.116272 -0.29584 0)
(0.116272 -0.414176 0)
(0.116272 -0.532512 0)
(0.116272 -0.650848 0)
(0.116272 -0.769184 0)
(0.116272 -0.88752 0)
(0.116272 -1.00586 0)
(0.116272 -1.12419 0)
(0.116272 -1.24253 0)
(0.116272 -1.36086 0)
(0.116272 -1.4792 0)
(0.116272 -1.59754 0)
(0.116272 -1.71587 0)
(0.116272 -1.83421 0)
(0.116272 -1.95254 0)
(0.116272 -2.07088 0)
(0.116272 -2.18922 0)
(0.116272 -2.30755 0)
(0.116272 -2.42589 0)
(0.116272 -2.54422 0)
(0.116272 -2.66256 0)
(0.116272 -2.7809 0)
(0.116272 -2.89923 0)
(0.116272 -3.01757 0)
(0.116272 -3.1359 0)
(0.116272 -3.25424 0)
(0.116272 -3.37258 0)
(0.116272 -3.49091 0)
(0.116272 -3.60925 0)
(0.116272 -3.72758 0)
(0.116272 -3.84592 0)
(0.116272 -3.96426 0)
(0.116272 -4.08259 0)
(0.116272 -4.20093 0)
(0.116272 -4.31926 0)
(0.116272 -4.4376 0)
(0.116272 -4.55594 0)
(0.116272 -4.67427 0)
(0.116272 -4.79261 0)
(0.116272 -4.91094 0)
(0.116272 -5.02928 0)
(0.116272 -5.14762 0)
(0.116272 -5.26595 0)
(0.116272 -5.38429 0)
(0.116272 -5.50262 0)
(0.116272 -5.62096 0)
(0.116272 -5.7393 0)
(0.116272 -5.85763 0)
(0.1548 -0.059168 0)
(0.1548 -0.177504 0)
(0.1548 -0.29584 0)
(0.1548 -0.414176 0)
(0.1548 -0.532512 0)
(0.1548 -0.650848 0)
(0.1548 -0.769184 0)
(0.1548 -0.88752 0)
(0.1548 -1.00586 0)
(0.1548 -1.12419 0)
(0.1548 -1.24253 0)
(0.1548 -1.36086 0)
(0.1548 -1.4792 0)
(0.1548 -1.59754 0)
(0.1548 -1.71587 0)
(0.1548 -1.83421 0)
(0.1548 -1.95254 0)
(0.1548 -2.07088 0)
(0.1548 -2.18922 0)
(0.1548 -2.30755 0)
(0.1548 -2.42589 0)
(0.1548 -2.54422 0)
(0.1548 -2.66256 0)
(0.1548 -2.7809 0)
(0.1548 -2.89923 0)
(0.1548 -3.01757 0)
(0.1548 -3.1359 0)
(0.1548 -3.25424 0)
(0.1548 -3.37258 0)
(0.1548 -3.49091 0)
(0.1548 -3.60925 0)
(0.1548 -3.72758 0)
(0.1548 -3.84592 0)
(0.1548 -3.96426 0)
(0.1548 -4.08259 0)
(0.1548 -4.20093 0)
(0.1548 -4.31926 0)
(0.1548 -4.4376 0)
(0.1548 -4.55594 0)
(0.1548 -4.67427 0)
(0.1548 -4.79261 0)
(0.1548 -4.91094 0)
(0.1548 -5.02928 0)
(0.1548 -5.14762 0)
(0.1548 -5.26595 0)
(0.1548 -5.38429 0)
(0.1548 -5.50262 0)
(0.1548 -5.62096 0)
(0.1548 -5.7393 0)
(0.1548 -5.85763 0)
(0.198832 -0.059168 0)
(0.198832 -0.177504 0)
(0.198832 -0.29584 0)
(0.198832 -0.414176 0)
(0.198832 -0.532512 0)
(0.198832 -0.650848 0)
(0.198832 -0.769184 0)
(0.198832 -0.88752 0)
(0.198832 -1.00586 0)
(0.198832 -1.12419 0)
(0.198832 -1.24253 0)
(0.198832 -1.36086 0)
(0.198832 -1.4792 0)
(0.198832 -1.59754 0)
(0.198832 -1.71587 0)
(0.198832 -1.83421 0)
(0.198832 -1.95254 0)
(0.198832 -2.07088 0)
(0.198832 -2.18922 0)
(0.198832 -2.30755 0)
(0.198832 -2.42589 0)
(0.198832 -2.54422 0)
(0.198832 -2.66256 0)
(0.198832 -2.7809 0)
(0.198832 -2.89923 0)
(0.198832 -3.01757 0)
(0.198832 -3.1359 0)
(0.198832 -3.25424 0)
(0.198832 -3.37258 0)
(0.198832 -3.49091 0)
(0.198832 -3.60925 0)
(0.198832 -3.72758 0)
(0.198832 -3.84592 0)
(0.198832 -3.96426 0)
(0.198832 -4.08259 0)
(0.198832 -4.20093 0)
(0.198832 -4.31926 0)
(0.198832 -4.4376 0)
(0.198832 -4.55594 0)
(0.198832 -4.67427 0)
(0.198832 -4.79261 0)
(0.198832 -4.91094 0)
(0.198832 -5.02928 0)
(0.198832 -5.14762 0)
(0.198832 -5.26595 0)
(0.198832 -5.38429 0)
(0.198832 -5.50262 0)
(0.198832 -5.62096 0)
(0.198832 -5.7393 0)
(0.198832 -5.85763 0)
(0.248368 -0.059168 0)
(0.248368 -0.177504 0)
(0.248368 -0.29584 0)
(0.248368 -0.414176 0)
(0.248368 -0.532512 0)
(0.248368 -0.650848 0)
(0.248368 -0.769184 0)
(0.248368 -0.88752 0)
(0.248368 -1.00586 0)
(0.248368 -1.12419 0)
(0.248368 -1.24253 0)
(0.248368 -1.36086 0)
(0.248368 -1.4792 0)
(0.248368 -1.59754 0)
(0.248368 -1.71587 0)
(0.248368 -1.83421 0)
(0.248368 -1.95254 0)
(0.248368 -2.07088 0)
(0.248368 -2.18922 0)
(0.248368 -2.30755 0)
(0.248368 -2.42589 0)
(0.248368 -2.54422 0)
(0.248368 -2.66256 0)
(0.248368 -2.7809 0)
(0.248368 -2.89923 0)
(0.248368 -3.01757 0)
(0.248368 -3.1359 0)
(0.248368 -3.25424 0)
(0.248368 -3.37258 0)
(0.248368 -3.49091 0)
(0.248368 -3.60925 0)
(0.248368 -3.72758 0)
(0.248368 -3.84592 0)
(0.248368 -3.96426 0)
(0.248368 -4.08259 0)
(0.248368 -4.20093 0)
(0.248368 -4.31926 0)
(0.248368 -4.4376 0)
(0.248368 -4.55594 0)
(0.248368 -4.67427 0)
(0.248368 -4.79261 0)
(0.248368 -4.91094 0)
(0.248368 -5.02928 0)
(0.248368 -5.14762 0)
(0.248368 -5.26595 0)
(0.248368 -5.38429 0)
(0.248368 -5.50262 0)
(0.248368 -5.62096 0)
(0.248368 -5.7393 0)
(0.248368 -5.85763 0)
(0.303408 -0.059168 0)
(0.303408 -0.177504 0)
(0.303408 -0.29584 0)
(0.303408 -0.414176 0)
(0.303408 -0.532512 0)
(0.303408 -0.650848 0)
(0.303408 -0.769184 0)
(0.303408 -0.88752 0)
(0.303408 -1.00586 0)
(0.303408 -1.12419 0)
(0.303408 -1.24253 0)
(0.303408 -1.36086 0)
(0.303408 -1.4792 0)
(0.303408 -1.59754 0)
(0.303408 -1.71587 0)
(0.303408 -1.83421 0)
(0.303408 -1.95254 0)
(0.303408 -2.07088 0)
(0.303408 -2.18922 0)
(0.303408 -2.30755 0)
(0.303408 -2.42589 0)
(0.303408 -2.54422 0)
(0.303408 -2.66256 0)
(0.303408 -2.7809 0)
(0.303408 -2.89923 0)
(0.303408 -3.01757 0)
(0.303408 -3.1359 0)
(0.303408 -3.25424 0)
(0.303408 -3.37258 0)
(0.303408 -3.49091 0)
(0.303408 -3.60925 0)
(0.303408 -3.72758 0)
(0.303408 -3.84592 0)
(0.303408 -3.96426 0)
(0.303408 -4.08259 0)
(0.303408 -4.20093 0)
(0.303408 -4.31926 0)
(0.303408 -4.4376 0)
(0.303408 -4.55594 0)
(0.303408 -4.67427 0)
(0.303408 -4.79261 0)
(0.303408 -4.91094 0)
(0.303408 -5.02928 0)
(0.303408 -5.14762 0)
(0.303408 -5.26595 0)
(0.303408 -5.38429 0)
(0.303408 -5.50262 0)
(0.303408 -5.62096 0)
(0.303408 -5.7393 0)
(0.303408 -5.85763 0)
(0.363952 -0.059168 0)
(0.363952 -0.177504 0)
(0.363952 -0.29584 0)
(0.363952 -0.414176 0)
(0.363952 -0.532512 0)
(0.363952 -0.650848 0)
(0.363952 -0.769184 0)
(0.363952 -0.88752 0)
(0.363952 -1.00586 0)
(0.363952 -1.12419 0)
(0.363952 -1.24253 0)
(0.363952 -1.36086 0)
(0.363952 -1.4792 0)
(0.363952 -1.59754 0)
(0.363952 -1.71587 0)
(0.363952 -1.83421 0)
(0.363952 -1.95254 0)
(0.363952 -2.07088 0)
(0.363952 -2.18922 0)
(0.363952 -2.30755 0)
(0.363952 -2.42589 0)
(0.363952 -2.54422 0)
(0.363952 -2.66256 0)
(0.363952 -2.7809 0)
(0.363952 -2.89923 0)
(0.363952 -3.01757 0)
(0.363952 -3.1359 0)
(0.363952 -3.25424 0)
(0.363952 -3.37258 0)
(0.363952 -3.49091 0)
(0.363952 -3.60925 0)
(0.363952 -3.72758 0)
(0.363952 -3.84592 0)
(0.363952 -3.96426 0)
(0.363952 -4.08259 0)
(0.363952 -4.20093 0)
(0.363952 -4.31926 0)
(0.363952 -4.4376 0)
(0.363952 -4.55594 0)
(0.363952 -4.67427 0)
(0.363952 -4.79261 0)
(0.363952 -4.91094 0)
(0.363952 -5.02928 0)
(0.363952 -5.14762 0)
(0.363952 -5.26595 0)
(0.363952 -5.38429 0)
(0.363952 -5.50262 0)
(0.363952 -5.62096 0)
(0.363952 -5.7393 0)
(0.363952 -5.85763 0)
(0.43 -0.059168 0)
(0.43 -0.177504 0)
(0.43 -0.29584 0)
(0.43 -0.414176 0)
(0.43 -0.532512 0)
(0.43 -0.650848 0)
(0.43 -0.769184 0)
(0.43 -0.88752 0)
(0.43 -1.00586 0)
(0.43 -1.12419 0)
(0.43 -1.24253 0)
(0.43 -1.36086 0)
(0.43 -1.4792 0)
(0.43 -1.59754 0)
(0.43 -1.71587 0)
(0.43 -1.83421 0)
(0.43 -1.95254 0)
(0.43 -2.07088 0)
(0.43 -2.18922 0)
(0.43 -2.30755 0)
(0.43 -2.42589 0)
(0.43 -2.54422 0)
(0.43 -2.66256 0)
(0.43 -2.7809 0)
(0.43 -2.89923 0)
(0.43 -3.01757 0)
(0.43 -3.1359 0)
(0.43 -3.25424 0)
(0.43 -3.37258 0)
(0.43 -3.49091 0)
(0.43 -3.60925 0)
(0.43 -3.72758 0)
(0.43 -3.84592 0)
(0.43 -3.96426 0)
(0.43 -4.08259 0)
(0.43 -4.20093 0)
(0.43 -4.31926 0)
(0.43 -4.4376 0)
(0.43 -4.55594 0)
(0.43 -4.67427 0)
(0.43 -4.79261 0)
(0.43 -4.91094 0)
(0.43 -5.02928 0)
(0.43 -5.14762 0)
(0.43 -5.26595 0)
(0.43 -5.38429 0)
(0.43 -5.50262 0)
(0.43 -5.62096 0)
(0.43 -5.7393 0)
(0.43 -5.85763 0)
(0.501552 -0.059168 0)
(0.501552 -0.177504 0)
(0.501552 -0.29584 0)
(0.501552 -0.414176 0)
(0.501552 -0.532512 0)
(0.501552 -0.650848 0)
(0.501552 -0.769184 0)
(0.501552 -0.88752 0)
(0.501552 -1.00586 0)
(0.501552 -1.12419 0)
(0.501552 -1.24253 0)
(0.501552 -1.36086 0)
(0.501552 -1.4792 0)
(0.501552 -1.59754 0)
(0.501552 -1.71587 0)
(0.501552 -1.83421 0)
(0.501552 -1.95254 0)
(0.501552 -2.07088 0)
(0.501552 -2.18922 0)
(0.501552 -2.30755 0)
(0.501552 -2.42589 0)
(0.501552 -2.54422 0)
(0.501552 -2.66256 0)
(0.501552 -2.7809 0)
(0.501552 -2.89923 0)
(0.501552 -3.01757 0)
(0.501552 -3.1359 0)
(0.501552 -3.25424 0)
(0.501552 -3.37258 0)
(0.501552 -3.49091 0)
(0.501552 -3.60925 0)
(0.501552 -3.72758 0)
(0.501552 -3.84592 0)
(0.501552 -3.96426 0)
(0.501552 -4.08259 0)
(0.501552 -4.20093 0)
(0.501552 -4.31926 0)
(0.501552 -4.4376 0)
(0.501552 -4.55594 0)
(0.501552 -4.67427 0)
(0.501552 -4.79261 0)
(0.501552 -4.91094 0)
(0.501552 -5.02928 0)
(0.501552 -5.14762 0)
(0.501552 -5.26595 0)
(0.501552 -5.38429 0)
(0.501552 -5.50262 0)
(0.501552 -5.62096 0)
(0.501552 -5.7393 0)
(0.501552 -5.85763 0)
(0.578608 -0.059168 0)
(0.578608 -0.177504 0)
(0.578608 -0.29584 0)
(0.578608 -0.414176 0)
(0.578608 -0.532512 0)
(0.578608 -0.650848 0)
(0.578608 -0.769184 0)
(0.578608 -0.88752 0)
(0.578608 -1.00586 0)
(0.578608 -1.12419 0)
(0.578608 -1.24253 0)
(0.578608 -1.36086 0)
(0.578608 -1.4792 0)
(0.578608 -1.59754 0)
(0.578608 -1.71587 0)
(0.578608 -1.83421 0)
(0.578608 -1.95254 0)
(0.578608 -2.07088 0)
(0.578608 -2.18922 0)
(0.578608 -2.30755 0)
(0.578608 -2.42589 0)
(0.578608 -2.54422 0)
(0.578608 -2.66256 0)
(0.578608 -2.7809 0)
(0.578608 -2.89923 0)
(0.578608 -3.01757 0)
(0.578608 -3.1359 0)
(0.578608 -3.25424 0)
(0.578608 -3.37258 0)
(0.578608 -3.49091 0)
(0.578608 -3.60925 0)
(0.578608 -3.72758 0)
(0.578608 -3.84592 0)
(0.578608 -3.96426 0)
(0.578608 -4.08259 0)
(0.578608 -4.20093 0)
(0.578608 -4.31926 0)
(0.578608 -4.4376 0)
(0.578608 -4.55594 0)
(0.578608 -4.67427 0)
(0.578608 -4.79261 0)
(0.578608 -4.91094 0)
(0.578608 -5.02928 0)
(0.578608 -5.14762 0)
(0.578608 -5.26595 0)
(0.578608 -5.38429 0)
(0.578608 -5.50262 0)
(0.578608 -5.62096 0)
(0.578608 -5.7393 0)
(0.578608 -5.85763 0)
(0.661168 -0.059168 0)
(0.661168 -0.177504 0)
(0.661168 -0.29584 0)
(0.661168 -0.414176 0)
(0.661168 -0.532512 0)
(0.661168 -0.650848 0)
(0.661168 -0.769184 0)
(0.661168 -0.88752 0)
(0.661168 -1.00586 0)
(0.661168 -1.12419 0)
(0.661168 -1.24253 0)
(0.661168 -1.36086 0)
(0.661168 -1.4792 0)
(0.661168 -1.59754 0)
(0.661168 -1.71587 0)
(0.661168 -1.83421 0)
(0.661168 -1.95254 0)
(0.661168 -2.07088 0)
(0.661168 -2.18922 0)
(0.661168 -2.30755 0)
(0.661168 -2.42589 0)
(0.661168 -2.54422 0)
(0.661168 -2.66256 0)
(0.661168 -2.7809 0)
(0.661168 -2.89923 0)
(0.661168 -3.01757 0)
(0.661168 -3.1359 0)
(0.661168 -3.25424 0)
(0.661168 -3.37258 0)
(0.661168 -3.49091 0)
(0.661168 -3.60925 0)
(0.661168 -3.72758 0)
(0.661168 -3.84592 0)
(0.661168 -3.96426 0)
(0.661168 -4.08259 0)
(0.661168 -4.20093 0)
(0.661168 -4.31926 0)
(0.661168 -4.4376 0)
(0.661168 -4.55594 0)
(0.661168 -4.67427 0)
(0.661168 -4.79261 0)
(0.661168 -4.91094 0)
(0.661168 -5.02928 0)
(0.661168 -5.14762 0)
(0.661168 -5.26595 0)
(0.661168 -5.38429 0)
(0.661168 -5.50262 0)
(0.661168 -5.62096 0)
(0.661168 -5.7393 0)
(0.661168 -5.85763 0)
(0.749232 -0.059168 0)
(0.749232 -0.177504 0)
(0.749232 -0.29584 0)
(0.749232 -0.414176 0)
(0.749232 -0.532512 0)
(0.749232 -0.650848 0)
(0.749232 -0.769184 0)
(0.749232 -0.88752 0)
(0.749232 -1.00586 0)
(0.749232 -1.12419 0)
(0.749232 -1.24253 0)
(0.749232 -1.36086 0)
(0.749232 -1.4792 0)
(0.749232 -1.59754 0)
(0.749232 -1.71587 0)
(0.749232 -1.83421 0)
(0.749232 -1.95254 0)
(0.749232 -2.07088 0)
(0.749232 -2.18922 0)
(0.749232 -2.30755 0)
(0.749232 -2.42589 0)
(0.749232 -2.54422 0)
(0.749232 -2.66256 0)
(0.749232 -2.7809 0)
(0.749232 -2.89923 0)
(0.749232 -3.01757 0)
(0.749232 -3.1359 0)
(0.749232 -3.25424 0)
(0.749232 -3.37258 0)
(0.749232 -3.49091 0)
(0.749232 -3.60925 0)
(0.749232 -3.72758 0)
(0.749232 -3.84592 0)
(0.749232 -3.96426 0)
(0.749232 -4.08259 0)
(0.749232 -4.20093 0)
(0.749232 -4.31926 0)
(0.749232 -4.4376 0)
(0.749232 -4.55594 0)
(0.749232 -4.67427 0)
(0.749232 -4.79261 0)
(0.749232 -4.91094 0)
(0.749232 -5.02928 0)
(0.749232 -5.14762 0)
(0.749232 -5.26595 0)
(0.749232 -5.38429 0)
(0.749232 -5.50262 0)
(0.749232 -5.62096 0)
(0.749232 -5.7393 0)
(0.749232 -5.85763 0)
(0.8428 -0.059168 0)
(0.8428 -0.177504 0)
(0.8428 -0.29584 0)
(0.8428 -0.414176 0)
(0.8428 -0.532512 0)
(0.8428 -0.650848 0)
(0.8428 -0.769184 0)
(0.8428 -0.88752 0)
(0.8428 -1.00586 0)
(0.8428 -1.12419 0)
(0.8428 -1.24253 0)
(0.8428 -1.36086 0)
(0.8428 -1.4792 0)
(0.8428 -1.59754 0)
(0.8428 -1.71587 0)
(0.8428 -1.83421 0)
(0.8428 -1.95254 0)
(0.8428 -2.07088 0)
(0.8428 -2.18922 0)
(0.8428 -2.30755 0)
(0.8428 -2.42589 0)
(0.8428 -2.54422 0)
(0.8428 -2.66256 0)
(0.8428 -2.7809 0)
(0.8428 -2.89923 0)
(0.8428 -3.01757 0)
(0.8428 -3.1359 0)
(0.8428 -3.25424 0)
(0.8428 -3.37258 0)
(0.8428 -3.49091 0)
(0.8428 -3.60925 0)
(0.8428 -3.72758 0)
(0.8428 -3.84592 0)
(0.8428 -3.96426 0)
(0.8428 -4.08259 0)
(0.8428 -4.20093 0)
(0.8428 -4.31926 0)
(0.8428 -4.4376 0)
(0.8428 -4.55594 0)
(0.8428 -4.67427 0)
(0.8428 -4.79261 0)
(0.8428 -4.91094 0)
(0.8428 -5.02928 0)
(0.8428 -5.14762 0)
(0.8428 -5.26595 0)
(0.8428 -5.38429 0)
(0.8428 -5.50262 0)
(0.8428 -5.62096 0)
(0.8428 -5.7393 0)
(0.8428 -5.85763 0)
(0.941872 -0.059168 0)
(0.941872 -0.177504 0)
(0.941872 -0.29584 0)
(0.941872 -0.414176 0)
(0.941872 -0.532512 0)
(0.941872 -0.650848 0)
(0.941872 -0.769184 0)
(0.941872 -0.88752 0)
(0.941872 -1.00586 0)
(0.941872 -1.12419 0)
(0.941872 -1.24253 0)
(0.941872 -1.36086 0)
(0.941872 -1.4792 0)
(0.941872 -1.59754 0)
(0.941872 -1.71587 0)
(0.941872 -1.83421 0)
(0.941872 -1.95254 0)
(0.941872 -2.07088 0)
(0.941872 -2.18922 0)
(0.941872 -2.30755 0)
(0.941872 -2.42589 0)
(0.941872 -2.54422 0)
(0.941872 -2.66256 0)
(0.941872 -2.7809 0)
(0.941872 -2.89923 0)
(0.941872 -3.01757 0)
(0.941872 -3.1359 0)
(0.941872 -3.25424 0)
(0.941872 -3.37258 0)
(0.941872 -3.49091 0)
(0.941872 -3.60925 0)
(0.941872 -3.72758 0)
(0.941872 -3.84592 0)
(0.941872 -3.96426 0)
(0.941872 -4.08259 0)
(0.941872 -4.20093 0)
(0.941872 -4.31926 0)
(0.941872 -4.4376 0)
(0.941872 -4.55594 0)
(0.941872 -4.67427 0)
(0.941872 -4.79261 0)
(0.941872 -4.91094 0)
(0.941872 -5.02928 0)
(0.941872 -5.14762 0)
(0.941872 -5.26595 0)
(0.941872 -5.38429 0)
(0.941872 -5.50262 0)
(0.941872 -5.62096 0)
(0.941872 -5.7393 0)
(0.941872 -5.85763 0)
(1.04645 -0.059168 0)
(1.04645 -0.177504 0)
(1.04645 -0.29584 0)
(1.04645 -0.414176 0)
(1.04645 -0.532512 0)
(1.04645 -0.650848 0)
(1.04645 -0.769184 0)
(1.04645 -0.88752 0)
(1.04645 -1.00586 0)
(1.04645 -1.12419 0)
(1.04645 -1.24253 0)
(1.04645 -1.36086 0)
(1.04645 -1.4792 0)
(1.04645 -1.59754 0)
(1.04645 -1.71587 0)
(1.04645 -1.83421 0)
(1.04645 -1.95254 0)
(1.04645 -2.07088 0)
(1.04645 -2.18922 0)
(1.04645 -2.30755 0)
(1.04645 -2.42589 0)
(1.04645 -2.54422 0)
(1.04645 -2.66256 0)
(1.04645 -2.7809 0)
(1.04645 -2.89923 0)
(1.04645 -3.01757 0)
(1.04645 -3.1359 0)
(1.04645 -3.25424 0)
(1.04645 -3.37258 0)
(1.04645 -3.49091 0)
(1.04645 -3.60925 0)
(1.04645 -3.72758 0)
(1.04645 -3.84592 0)
(1.04645 -3.96426 0)
(1.04645 -4.08259 0)
(1.04645 -4.20093 0)
(1.04645 -4.31926 0)
(1.04645 -4.4376 0)
(1.04645 -4.55594 0)
(1.04645 -4.67427 0)
(1.04645 -4.79261 0)
(1.04645 -4.91094 0)
(1.04645 -5.02928 0)
(1.04645 -5.14762 0)
(1.04645 -5.26595 0)
(1.04645 -5.38429 0)
(1.04645 -5.50262 0)
(1.04645 -5.62096 0)
(1.04645 -5.7393 0)
(1.04645 -5.85763 0)
(1.15653 -0.059168 0)
(1.15653 -0.177504 0)
(1.15653 -0.29584 0)
(1.15653 -0.414176 0)
(1.15653 -0.532512 0)
(1.15653 -0.650848 0)
(1.15653 -0.769184 0)
(1.15653 -0.88752 0)
(1.15653 -1.00586 0)
(1.15653 -1.12419 0)
(1.15653 -1.24253 0)
(1.15653 -1.36086 0)
(1.15653 -1.4792 0)
(1.15653 -1.59754 0)
(1.15653 -1.71587 0)
(1.15653 -1.83421 0)
(1.15653 -1.95254 0)
(1.15653 -2.07088 0)
(1.15653 -2.18922 0)
(1.15653 -2.30755 0)
(1.15653 -2.42589 0)
(1.15653 -2.54422 0)
(1.15653 -2.66256 0)
(1.15653 -2.7809 0)
(1.15653 -2.89923 0)
(1.15653 -3.01757 0)
(1.15653 -3.1359 0)
(1.15653 -3.25424 0)
(1.15653 -3.37258 0)
(1.15653 -3.49091 0)
(1.15653 -3.60925 0)
(1.15653 -3.72758 0)
(1.15653 -3.84592 0)
(1.15653 -3.96426 0)
(1.15653 -4.08259 0)
(1.15653 -4.20093 0)
(1.15653 -4.31926 0)
(1.15653 -4.4376 0)
(1.15653 -4.55594 0)
(1.15653 -4.67427 0)
(1.15653 -4.79261 0)
(1.15653 -4.91094 0)
(1.15653 -5.02928 0)
(1.15653 -5.14762 0)
(1.15653 -5.26595 0)
(1.15653 -5.38429 0)
(1.15653 -5.50262 0)
(1.15653 -5.62096 0)
(1.15653 -5.7393 0)
(1.15653 -5.85763 0)
(1.27211 -0.059168 0)
(1.27211 -0.177504 0)
(1.27211 -0.29584 0)
(1.27211 -0.414176 0)
(1.27211 -0.532512 0)
(1.27211 -0.650848 0)
(1.27211 -0.769184 0)
(1.27211 -0.88752 0)
(1.27211 -1.00586 0)
(1.27211 -1.12419 0)
(1.27211 -1.24253 0)
(1.27211 -1.36086 0)
(1.27211 -1.4792 0)
(1.27211 -1.59754 0)
(1.27211 -1.71587 0)
(1.27211 -1.83421 0)
(1.27211 -1.95254 0)
(1.27211 -2.07088 0)
(1.27211 -2.18922 0)
(1.27211 -2.30755 0)
(1.27211 -2.42589 0)
(1.27211 -2.54422 0)
(1.27211 -2.66256 0)
(1.27211 -2.7809 0)
(1.27211 -2.89923 0)
(1.27211 -3.01757 0)
(1.27211 -3.1359 0)
(1.27211 -3.25424 0)
(1.27211 -3.37258 0)
(1.27211 -3.49091 0)
(1.27211 -3.60925 0)
(1.27211 -3.72758 0)
(1.27211 -3.84592 0)
(1.27211 -3.96426 0)
(1.27211 -4.08259 0)
(1.27211 -4.20093 0)
(1.27211 -4.31926 0)
(1.27211 -4.4376 0)
(1.27211 -4.55594 0)
(1.27211 -4.67427 0)
(1.27211 -4.79261 0)
(1.27211 -4.91094 0)
(1.27211 -5.02928 0)
(1.27211 -5.14762 0)
(1.27211 -5.26595 0)
(1.27211 -5.38429 0)
(1.27211 -5.50262 0)
(1.27211 -5.62096 0)
(1.27211 -5.7393 0)
(1.27211 -5.85763 0)
(1.3932 -0.059168 0)
(1.3932 -0.177504 0)
(1.3932 -0.29584 0)
(1.3932 -0.414176 0)
(1.3932 -0.532512 0)
(1.3932 -0.650848 0)
(1.3932 -0.769184 0)
(1.3932 -0.88752 0)
(1.3932 -1.00586 0)
(1.3932 -1.12419 0)
(1.3932 -1.24253 0)
(1.3932 -1.36086 0)
(1.3932 -1.4792 0)
(1.3932 -1.59754 0)
(1.3932 -1.71587 0)
(1.3932 -1.83421 0)
(1.3932 -1.95254 0)
(1.3932 -2.07088 0)
(1.3932 -2.18922 0)
(1.3932 -2.30755 0)
(1.3932 -2.42589 0)
(1.3932 -2.54422 0)
(1.3932 -2.66256 0)
(1.3932 -2.7809 0)
(1.3932 -2.89923 0)
(1.3932 -3.01757 0)
(1.3932 -3.1359 0)
(1.3932 -3.25424 0)
(1.3932 -3.37258 0)
(1.3932 -3.49091 0)
(1.3932 -3.60925 0)
(1.3932 -3.72758 0)
(1.3932 -3.84592 0)
(1.3932 -3.96426 0)
(1.3932 -4.08259 0)
(1.3932 -4.20093 0)
(1.3932 -4.31926 0)
(1.3932 -4.4376 0)
(1.3932 -4.55594 0)
(1.3932 -4.67427 0)
(1.3932 -4.79261 0)
(1.3932 -4.91094 0)
(1.3932 -5.02928 0)
(1.3932 -5.14762 0)
(1.3932 -5.26595 0)
(1.3932 -5.38429 0)
(1.3932 -5.50262 0)
(1.3932 -5.62096 0)
(1.3932 -5.7393 0)
(1.3932 -5.85763 0)
(1.51979 -0.059168 0)
(1.51979 -0.177504 0)
(1.51979 -0.29584 0)
(1.51979 -0.414176 0)
(1.51979 -0.532512 0)
(1.51979 -0.650848 0)
(1.51979 -0.769184 0)
(1.51979 -0.88752 0)
(1.51979 -1.00586 0)
(1.51979 -1.12419 0)
(1.51979 -1.24253 0)
(1.51979 -1.36086 0)
(1.51979 -1.4792 0)
(1.51979 -1.59754 0)
(1.51979 -1.71587 0)
(1.51979 -1.83421 0)
(1.51979 -1.95254 0)
(1.51979 -2.07088 0)
(1.51979 -2.18922 0)
(1.51979 -2.30755 0)
(1.51979 -2.42589 0)
(1.51979 -2.54422 0)
(1.51979 -2.66256 0)
(1.51979 -2.7809 0)
(1.51979 -2.89923 0)
(1.51979 -3.01757 0)
(1.51979 -3.1359 0)
(1.51979 -3.25424 0)
(1.51979 -3.37258 0)
(1.51979 -3.49091 0)
(1.51979 -3.60925 0)
(1.51979 -3.72758 0)
(1.51979 -3.84592 0)
(1.51979 -3.96426 0)
(1.51979 -4.08259 0)
(1.51979 -4.20093 0)
(1.51979 -4.31926 0)
(1.51979 -4.4376 0)
(1.51979 -4.55594 0)
(1.51979 -4.67427 0)
(1.51979 -4.79261 0)
(1.51979 -4.91094 0)
(1.51979 -5.02928 0)
(1.51979 -5.14762 0)
(1.51979 -5.26595 0)
(1.51979 -5.38429 0)
(1.51979 -5.50262 0)
(1.51979 -5.62096 0)
(1.51979 -5.7393 0)
(1.51979 -5.85763 0)
(1.65189 -0.059168 0)
(1.65189 -0.177504 0)
(1.65189 -0.29584 0)
(1.65189 -0.414176 0)
(1.65189 -0.532512 0)
(1.65189 -0.650848 0)
(1.65189 -0.769184 0)
(1.65189 -0.88752 0)
(1.65189 -1.00586 0)
(1.65189 -1.12419 0)
(1.65189 -1.24253 0)
(1.65189 -1.36086 0)
(1.65189 -1.4792 0)
(1.65189 -1.59754 0)
(1.65189 -1.71587 0)
(1.65189 -1.83421 0)
(1.65189 -1.95254 0)
(1.65189 -2.07088 0)
(1.65189 -2.18922 0)
(1.65189 -2.30755 0)
(1.65189 -2.42589 0)
(1.65189 -2.54422 0)
(1.65189 -2.66256 0)
(1.65189 -2.7809 0)
(1.65189 -2.89923 0)
(1.65189 -3.01757 0)
(1.65189 -3.1359 0)
(1.65189 -3.25424 0)
(1.65189 -3.37258 0)
(1.65189 -3.49091 0)
(1.65189 -3.60925 0)
(1.65189 -3.72758 0)
(1.65189 -3.84592 0)
(1.65189 -3.96426 0)
(1.65189 -4.08259 0)
(1.65189 -4.20093 0)
(1.65189 -4.31926 0)
(1.65189 -4.4376 0)
(1.65189 -4.55594 0)
(1.65189 -4.67427 0)
(1.65189 -4.79261 0)
(1.65189 -4.91094 0)
(1.65189 -5.02928 0)
(1.65189 -5.14762 0)
(1.65189 -5.26595 0)
(1.65189 -5.38429 0)
(1.65189 -5.50262 0)
(1.65189 -5.62096 0)
(1.65189 -5.7393 0)
(1.65189 -5.85763 0)
(1.78949 -0.059168 0)
(1.78949 -0.177504 0)
(1.78949 -0.29584 0)
(1.78949 -0.414176 0)
(1.78949 -0.532512 0)
(1.78949 -0.650848 0)
(1.78949 -0.769184 0)
(1.78949 -0.88752 0)
(1.78949 -1.00586 0)
(1.78949 -1.12419 0)
(1.78949 -1.24253 0)
(1.78949 -1.36086 0)
(1.78949 -1.4792 0)
(1.78949 -1.59754 0)
(1.78949 -1.71587 0)
(1.78949 -1.83421 0)
(1.78949 -1.95254 0)
(1.78949 -2.07088 0)
(1.78949 -2.18922 0)
(1.78949 -2.30755 0)
(1.78949 -2.42589 0)
(1.78949 -2.54422 0)
(1.78949 -2.66256 0)
(1.78949 -2.7809 0)
(1.78949 -2.89923 0)
(1.78949 -3.01757 0)
(1.78949 -3.1359 0)
(1.78949 -3.25424 0)
(1.78949 -3.37258 0)
(1.78949 -3.49091 0)
(1.78949 -3.60925 0)
(1.78949 -3.72758 0)
(1.78949 -3.84592 0)
(1.78949 -3.96426 0)
(1.78949 -4.08259 0)
(1.78949 -4.20093 0)
(1.78949 -4.31926 0)
(1.78949 -4.4376 0)
(1.78949 -4.55594 0)
(1.78949 -4.67427 0)
(1.78949 -4.79261 0)
(1.78949 -4.91094 0)
(1.78949 -5.02928 0)
(1.78949 -5.14762 0)
(1.78949 -5.26595 0)
(1.78949 -5.38429 0)
(1.78949 -5.50262 0)
(1.78949 -5.62096 0)
(1.78949 -5.7393 0)
(1.78949 -5.85763 0)
(1.93259 -0.059168 0)
(1.93259 -0.177504 0)
(1.93259 -0.29584 0)
(1.93259 -0.414176 0)
(1.93259 -0.532512 0)
(1.93259 -0.650848 0)
(1.93259 -0.769184 0)
(1.93259 -0.88752 0)
(1.93259 -1.00586 0)
(1.93259 -1.12419 0)
(1.93259 -1.24253 0)
(1.93259 -1.36086 0)
(1.93259 -1.4792 0)
(1.93259 -1.59754 0)
(1.93259 -1.71587 0)
(1.93259 -1.83421 0)
(1.93259 -1.95254 0)
(1.93259 -2.07088 0)
(1.93259 -2.18922 0)
(1.93259 -2.30755 0)
(1.93259 -2.42589 0)
(1.93259 -2.54422 0)
(1.93259 -2.66256 0)
(1.93259 -2.7809 0)
(1.93259 -2.89923 0)
(1.93259 -3.01757 0)
(1.93259 -3.1359 0)
(1.93259 -3.25424 0)
(1.93259 -3.37258 0)
(1.93259 -3.49091 0)
(1.93259 -3.60925 0)
(1.93259 -3.72758 0)
(1.93259 -3.84592 0)
(1.93259 -3.96426 0)
(1.93259 -4.08259 0)
(1.93259 -4.20093 0)
(1.93259 -4.31926 0)
(1.93259 -4.4376 0)
(1.93259 -4.55594 0)
(1.93259 -4.67427 0)
(1.93259 -4.79261 0)
(1.93259 -4.91094 0)
(1.93259 -5.02928 0)
(1.93259 -5.14762 0)
(1.93259 -5.26595 0)
(1.93259 -5.38429 0)
(1.93259 -5.50262 0)
(1.93259 -5.62096 0)
(1.93259 -5.7393 0)
(1.93259 -5.85763 0)
(2.0812 -0.059168 0)
(2.0812 -0.177504 0)
(2.0812 -0.29584 0)
(2.0812 -0.414176 0)
(2.0812 -0.532512 0)
(2.0812 -0.650848 0)
(2.0812 -0.769184 0)
(2.0812 -0.88752 0)
(2.0812 -1.00586 0)
(2.0812 -1.12419 0)
(2.0812 -1.24253 0)
(2.0812 -1.36086 0)
(2.0812 -1.4792 0)
(2.0812 -1.59754 0)
(2.0812 -1.71587 0)
(2.0812 -1.83421 0)
(2.0812 -1.95254 0)
(2.0812 -2.07088 0)