/*--------------------------------*- C++ -*----------------------------------*\
| =========                 |                                                 |
| \\      /  F ield         | OpenFOAM: The Open Source CFD Toolbox           |
|  \\    /   O peration     | Version:  v2006                                 |
|   \\  /    A nd           | Website:  www.openfoam.com                      |
|    \\/     M anipulation  |                                                 |
\*---------------------------------------------------------------------------*/
FoamFile
{
    version     2.0;
    format      ascii;
    class       volScalarField;
    location    "0";
    object      f;
}
// * * * * * * * * * * * * * * * * * * * * * * * * * * * * * * * * * * * * * //

dimensions      [0 0 0 0 0 0 0];


internalField   nonuniform List<scalar> 
2500
(
-5.3657e-17
-5.37456e-17
-5.3675e-17
-5.40088e-17
-5.49477e-17
-5.62372e-17
-5.97363e-17
-7.27178e-17
4.92399e-16
-3.92543e-15
-6.98174e-15
2.74411e-14
5.67606e-14
3.83642e-15
-8.75121e-14
-8.50432e-14
4.90539e-14
1.83295e-13
2.43544e-13
-2.71513e-13
-2.59521e-12
-3.78754e-12
-3.66042e-12
1.29395e-13
4.50347e-12
3.81384e-12
1.07082e-12
-8.6365e-13
-2.39165e-12
-1.83076e-12
-9.81343e-13
-3.69141e-13
-8.46907e-14
9.34554e-14
1.41358e-13
7.36911e-14
1.41651e-14
2.21564e-16
-1.13905e-16
1.58332e-16
2.00213e-16
1.44992e-16
8.70721e-17
4.86438e-17
2.66955e-17
1.48954e-17
8.59362e-18
5.10322e-18
3.05828e-18
1.80832e-18
8.16559e-14
7.9577e-14
8.48654e-14
8.44935e-14
6.69858e-14
7.16332e-14
9.97928e-14
1.04782e-13
7.2223e-14
2.12225e-15
8.19497e-14
2.61347e-13
1.44728e-13
-9.61602e-14
-2.22578e-13
-1.86588e-13
6.00869e-13
3.5247e-13
3.0072e-14
-8.23186e-12
-1.23826e-11
-1.71648e-11
-9.45527e-12
2.51339e-11
2.57148e-11
9.88548e-12
-3.7301e-12
-2.23777e-11
-1.73046e-11
-7.70125e-12
-2.27402e-12
-7.03824e-13
1.26527e-12
1.64006e-12
8.37349e-13
1.87342e-13
-8.05477e-15
-7.95707e-15
-1.41668e-15
3.84875e-16
4.99506e-16
3.0129e-16
1.58322e-16
8.12726e-17
4.24889e-17
2.33295e-17
1.36093e-17
8.28518e-18
5.08787e-18
3.05812e-18
8.26012e-13
8.24563e-13
8.3056e-13
8.29158e-13
8.01621e-13
8.20634e-13
8.90454e-13
8.55215e-13
7.20654e-13
6.87297e-13
9.95326e-13
7.98236e-13
-1.98455e-13
-3.23718e-13
3.78043e-13
3.72125e-12
2.28902e-12
-1.20159e-11
-5.20975e-11
-4.27211e-11
-1.95452e-11
-3.10469e-11
1.36871e-10
1.20425e-10
4.97806e-11
-4.58599e-11
-1.44483e-10
-9.94325e-11
-3.54066e-11
-1.09183e-11
8.10486e-12
1.8279e-11
1.40474e-11
6.35229e-12
1.51955e-12
-2.1497e-13
-1.54687e-13
-3.16388e-14
8.13178e-16
3.64585e-15
1.61727e-15
5.863e-16
2.49458e-16
1.1646e-16
5.871e-17
3.26868e-17
2.00463e-17
1.29218e-17
8.28483e-18
5.10276e-18
2.74241e-12
2.76353e-12
2.73324e-12
2.72371e-12
2.79813e-12
2.82535e-12
2.85215e-12
2.6329e-12
2.4113e-12
3.27875e-12
3.79909e-12
1.10901e-12
-2.1458e-12
-3.88072e-13
2.10039e-11
4.31353e-11
1.53097e-12
-1.54594e-10
-2.5843e-10
-9.18606e-11
5.52995e-10
1.04878e-09
8.67587e-10
2.36355e-10
-6.55092e-10
-1.07806e-09
-6.99655e-10
-1.93172e-10
3.23423e-11
2.66112e-10
2.31612e-10
1.24443e-10
4.85864e-11
1.06946e-11
-3.94405e-12
-2.40217e-12
-4.98996e-13
1.04998e-14
4.71723e-14
2.00073e-14
3.53102e-15
6.85277e-16
2.70382e-16
1.2566e-16
6.57112e-17
4.04137e-17
2.81423e-17
2.00456e-17
1.36083e-17
8.59263e-18
5.98643e-12
6.07984e-12
5.94132e-12
5.90385e-12
6.29673e-12
6.30139e-12
6.06717e-12
5.46366e-12
5.3444e-12
8.85181e-12
9.28458e-12
-2.94273e-12
-5.7501e-12
2.27854e-11
9.13979e-11
1.49285e-10
-2.33633e-11
-5.37829e-10
-5.45173e-10
1.80565e-09
5.41653e-09
5.98458e-09
2.17825e-09
-3.47102e-09
-5.81977e-09
-4.30484e-09
-1.40082e-09
1.08241e-09
2.84174e-09
1.95081e-09
9.16763e-10
3.31112e-10
7.79283e-11
-5.08344e-11
-3.03534e-11
-6.73816e-12
-2.94899e-14
4.47712e-13
2.21996e-13
4.44933e-14
2.16596e-15
1.65922e-16
1.28767e-16
8.09722e-17
5.48275e-17
4.56971e-17
4.04123e-17
3.26848e-17
2.33274e-17
1.48935e-17
9.73297e-12
9.94394e-12
9.63742e-12
9.55229e-12
1.04421e-11
1.04413e-11
9.65815e-12
8.59968e-12
8.72787e-12
1.72845e-11
1.57816e-11
-1.13952e-11
-8.49983e-13
7.98015e-11
2.16143e-10
3.0633e-10
-1.10952e-10
-8.36044e-10
3.81154e-09
9.74189e-09
1.57458e-08
1.59438e-08
-6.63715e-10
-1.8079e-08
-1.7794e-08
-7.78877e-09
7.42895e-09
1.92025e-08
1.33239e-08
5.22396e-09
1.49442e-09
4.49106e-10
-5.77527e-10
-3.35503e-10
-7.31702e-11
-1.8216e-12
3.19104e-12
1.79961e-12
4.4589e-13
2.97918e-14
-1.34628e-15
-3.70896e-16
-5.5385e-17
7.65934e-18
3.18848e-17
5.48254e-17
6.57076e-17
5.87058e-17
4.24851e-17
2.66924e-17
1.12289e-11
1.15014e-11
1.11138e-11
1.10064e-11
1.21369e-11
1.22e-11
1.10633e-11
9.84456e-12
1.00752e-11
2.18971e-11
1.85246e-11
-2.54778e-11
4.56108e-12
1.32763e-10
2.8196e-10
4.21309e-10
-1.36645e-09
8.09953e-09
2.14945e-08
2.66689e-08
2.26416e-08
2.21944e-08
-2.78957e-08
-3.98104e-08
-3.00475e-08
4.4692e-08
1.21361e-07
8.12029e-08
2.53279e-08
6.61872e-09
-2.88129e-09
-7.68435e-09
-3.79674e-09
-7.35018e-10
-1.36423e-11
2.04576e-11
1.1972e-11
3.32962e-12
3.13751e-13
-1.92909e-14
-6.46897e-15
-7.79142e-16
-1.10038e-16
-4.48096e-17
7.65792e-18
8.09679e-17
1.25654e-16
1.16453e-16
8.12664e-17
4.86391e-17
-1.86775e-08
-1.86829e-08
-1.86357e-08
-1.86189e-08
-1.87331e-08
-1.88672e-08
-1.86e-08
-1.80344e-08
-1.84017e-08
-2.0627e-08
-2.0721e-08
-1.53068e-08
-1.17567e-08
-1.48432e-08
-3.89873e-08
-7.2135e-08
-3.22416e-08
3.56372e-08
4.23555e-08
3.99489e-08
-2.10933e-07
-4.6646e-07
-2.11181e-07
3.34467e-09
3.74156e-07
7.40814e-07
4.7241e-07
1.50076e-07
-6.73483e-08
-1.56767e-07
-1.1726e-07
-4.73755e-08
-8.71565e-09
-5.14019e-11
1.17579e-10
7.26333e-11
2.24216e-11
2.60091e-12
-1.63592e-13
-7.04645e-14
-1.00161e-14
3.62945e-16
1.43867e-16
-1.10035e-16
-5.53847e-17
1.28762e-16
2.70371e-16
2.49445e-16
1.58312e-16
8.70651e-17
-4.51826e-07
-4.51872e-07
-4.51706e-07
-4.51629e-07
-4.52147e-07
-4.52292e-07
-4.50919e-07
-4.5027e-07
-4.5344e-07
-4.57256e-07
-4.52956e-07
-4.32597e-07
-4.37118e-07
-4.87158e-07
-5.5239e-07
-5.01813e-07
-1.79806e-07
6.0701e-08
-3.57222e-08
-1.35386e-06
-3.00836e-06
-2.98802e-06
-6.8136e-07
2.8457e-06
4.05247e-06
3.03526e-06
7.50579e-07
-1.38055e-06
-1.82109e-06
-1.1992e-06
-5.04008e-07
-1.17661e-07
-5.23656e-09
5.54802e-10
3.68628e-10
1.36955e-10
2.45687e-11
-6.12237e-13
-3.64575e-13
-8.9615e-14
-1.00912e-15
1.56767e-15
3.6295e-16
-7.79111e-16
-3.70882e-16
1.6592e-16
6.85256e-16
5.86275e-16
3.01274e-16
1.44983e-16
-1.79004e-06
-1.79015e-06
-1.79027e-06
-1.79023e-06
-1.79048e-06
-1.78864e-06
-1.78724e-06
-1.79506e-06
-1.80267e-06
-1.78047e-06
-1.75681e-06
-1.76976e-06
-1.86881e-06
-2.02081e-06
-1.95305e-06
-1.3736e-06
-4.69557e-07
-3.36371e-09
-2.83226e-06
-7.31317e-06
-1.04278e-05
-8.60129e-06
1.48755e-06
1.23304e-05
1.35066e-05
6.00558e-06
-5.8198e-06
-9.64132e-06
-7.12282e-06
-3.46422e-06
-1.1105e-06
-1.53264e-07
2.00314e-09
1.38476e-09
6.37302e-10
1.76413e-10
1.17959e-11
-4.11437e-13
-2.18483e-13
6.38419e-15
5.37373e-15
-1.00882e-15
-1.00157e-14
-6.46871e-15
-1.34622e-15
2.16586e-15
3.53086e-15
1.6172e-15
4.99483e-16
2.00202e-16
-3.96664e-06
-3.96681e-06
-3.96785e-06
-3.96804e-06
-3.9668e-06
-3.96017e-06
-3.96118e-06
-3.98919e-06
-4.00095e-06
-3.91333e-06
-3.85435e-06
-3.9791e-06
-4.2689e-06
-4.58373e-06
-4.13431e-06
-2.21476e-06
-8.58631e-07
-3.48456e-06
-1.08009e-05
-1.90014e-05
-2.21907e-05
-1.30701e-05
1.1919e-05
2.63416e-05
2.43422e-05
2.52059e-06
-2.93945e-05
-2.53641e-05
-1.45105e-05
-5.94723e-06
-1.56922e-06
-1.12437e-07
2.14075e-09
1.75062e-09
7.99921e-10
1.93539e-10
7.52354e-12
7.43913e-13
4.99046e-13
2.80401e-13
6.38603e-15
-8.96123e-14
-7.04623e-14
-1.92902e-14
2.97906e-14
4.44915e-14
2.00064e-14
3.64569e-15
3.84858e-16
1.58324e-16
-5.53562e-06
-5.53569e-06
-5.53801e-06
-5.53916e-06
-5.53495e-06
-5.52107e-06
-5.52778e-06
-5.58591e-06
-5.59718e-06
-5.41674e-06
-5.30903e-06
-5.61299e-06
-6.20832e-06
-6.63439e-06
-5.52786e-06
-2.27228e-06
-1.43109e-06
-1.12541e-05
-2.26755e-05
-2.89899e-05
-3.02916e-05
2.16144e-05
4.07319e-05
3.45857e-05
3.66413e-07
-0.00012178
-6.31845e-05
-3.4043e-05
-1.66715e-05
-6.40721e-06
-1.58037e-06
-5.6622e-08
2.33142e-09
1.76181e-09
8.16769e-10
3.00081e-10
1.06546e-10
7.41044e-12
1.59557e-12
4.99044e-13
-2.18481e-13
-3.64567e-13
-1.63587e-13
3.1374e-13
4.45875e-13
2.21988e-13
4.71705e-14
8.13102e-16
-1.41664e-15
-1.13901e-16
9.51006e-07
9.53448e-07
9.42943e-07
9.27999e-07
9.623e-07
1.03218e-06
9.57677e-07
6.74892e-07
7.48361e-07
1.59202e-06
2.04614e-06
3.78624e-07
-2.40097e-06
-1.91278e-06
6.28233e-06
1.90718e-05
9.03183e-06
-1.93189e-05
-2.93575e-05
-4.09348e-06
0.000175958
0.000281764
7.48141e-05
-0.000510238
-0.00108979
-0.000848324
6.95977e-05
0.00155294
0.00299622
0.00372269
0.00363653
0.00295989
0.00199693
0.00109453
0.000459195
0.000121974
6.92484e-06
4.5843e-12
7.41041e-12
7.43901e-13
-4.11437e-13
-6.12236e-13
2.60082e-12
3.32952e-12
1.79956e-12
4.47697e-13
1.04991e-14
-3.16384e-14
-7.95692e-15
2.21568e-16
0.000229815
0.000229835
0.000229685
0.000229576
0.000230198
0.000230674
0.000228896
0.000226722
0.000230552
0.000238376
0.000234519
0.00021317
0.000201499
0.0002399
0.000307014
0.000298618
0.000145887
-1.39598e-05
3.80432e-05
0.000676524
0.00136944
0.00116762
-0.000700455
-0.00363636
-0.0050137
-0.0027006
0.0049493
0.0165904
0.0280684
0.0347012
0.0347975
0.0301161
0.0222213
0.0138169
0.00700462
0.00265166
0.000551593
6.92485e-06
1.06545e-10
7.52266e-12
1.17952e-11
2.45679e-11
2.24209e-11
1.19717e-11
3.19094e-12
-2.94951e-14
-4.98991e-13
-1.54686e-13
-8.05491e-15
1.41647e-14
0.00100545
0.00100549
0.00100494
0.00100474
0.00100711
0.0010081
0.00100087
0.000995551
0.00101274
0.00103554
0.00100803
0.0009335
0.000936074
0.00110424
0.00126634
0.00109541
0.000522654
8.44718e-05
0.000826564
0.00277907
0.00426248
0.0028057
-0.00309448
-0.0108374
-0.0136397
-0.00482961
0.0197163
0.0557729
0.0914682
0.113033
0.114253
0.100579
0.0760248
0.0488197
0.0258928
0.0105622
0.00265166
0.000121974
3.00074e-10
1.93532e-10
1.76408e-10
1.36951e-10
7.26313e-11
2.0457e-11
-1.82155e-12
-6.73807e-12
-2.40215e-12
-2.14971e-13
1.87336e-13
7.36889e-14
0.00249054
0.00249058
0.0024893
0.00248907
0.00249469
0.0024961
0.00247855
0.00246913
0.0025129
0.00255898
0.00247893
0.00231449
0.00236712
0.00278906
0.00307582
0.0025033
0.00115157
0.000705954
0.00272457
0.00685044
0.00920173
0.0050096
-0.00781678
-0.0233267
-0.0273104
-0.00652097
0.0473793
0.125407
0.202935
0.251037
0.255044
0.226586
0.173447
0.1132
0.0613592
0.0258928
0.00700462
0.000459195
8.16764e-10
7.99907e-10
6.37287e-10
3.68618e-10
1.17576e-10
-1.36414e-11
-7.31688e-11
-3.0353e-11
-3.94403e-12
1.5195e-12
8.37326e-13
1.41353e-13
0.0045519
0.00455194
0.00454964
0.00454945
0.00455965
0.00456121
0.004529
0.00451527
0.00459801
0.00467286
0.00451088
0.00422467
0.00437695
0.00516555
0.00556366
0.00433087
0.00201799
0.0016555
0.00565844
0.0127126
0.015724
0.00731199
-0.014989
-0.0401483
-0.0445259
-0.00677264
0.0870031
0.221765
0.35645
0.441983
0.451136
0.403595
0.311797
0.20581
0.1132
0.0488197
0.0138169
0.00109453
1.76182e-09
1.75062e-09
1.38474e-09
5.54787e-10
-5.13907e-11
-7.35001e-10
-3.35497e-10
-5.08338e-11
1.06943e-11
6.35213e-12
1.64002e-12
9.34525e-14
0.00660053
0.00660058
0.00659717
0.00659708
0.00661218
0.00661371
0.0065656
0.00654813
0.00667394
0.0067773
0.00652083
0.00610703
0.00638913
0.00758105
0.00804178
0.00606288
0.00274064
0.00259633
0.00891434
0.0189897
0.0222913
0.00895879
-0.0232915
-0.0578146
-0.0617993
-0.00553656
0.130602
0.325985
0.522919
0.65098
0.667805
0.60116
0.468064
0.311797
0.173447
0.0760248
0.0222213
0.00199693
2.33144e-09
2.14076e-09
2.00309e-09
-5.23626e-09
-8.71542e-09
-3.79667e-09
-5.77519e-10
7.79265e-11
4.85854e-11
1.40471e-11
1.26524e-12
-8.46871e-14
0.00774541
0.00774547
0.00774126
0.00774118
0.00775983
0.00776147
0.0077018
0.00768154
0.00783897
0.0079627
0.00763523
0.00712992
0.00751475
0.00900496
0.00950208
0.00693973
0.00290461
0.00299392
0.0111269
0.0234133
0.0266407
0.00941852
-0.0301616
-0.0712947
-0.0747764
-0.00445791
0.164256
0.407412
0.655305
0.820541
0.846641
0.766686
0.60116
0.403595
0.226586
0.100579
0.0301161
0.00295989
-5.66169e-08
-1.12431e-07
-1.53259e-07
-1.17658e-07
-4.73745e-08
-7.68423e-09
4.49097e-10
3.31107e-10
1.24441e-10
1.82786e-11
-7.038e-13
-3.69127e-13
0.00741216
0.00741225
0.00740778
0.00740749
0.0074273
0.00742968
0.0073662
0.00734329
0.00751136
0.00764497
0.00729453
0.0067504
0.00716673
0.00876728
0.00928455
0.00651332
0.00214369
0.00235151
0.0111299
0.0239743
0.0270918
0.00875602
-0.0328497
-0.0762757
-0.0802548
-0.00576646
0.174608
0.437819
0.709966
0.895735
0.929993
0.846641
0.667805
0.451136
0.255044
0.114253
0.0347975
0.00363653
-1.58034e-06
-1.56919e-06
-1.11048e-06
-5.03999e-07
-1.17257e-07
-2.88123e-09
1.49441e-09
9.16751e-10
2.31609e-10
8.10464e-12
-2.27395e-12
-9.81308e-13
0.00486037
0.00486056
0.00485669
0.00485572
0.00487291
0.00487741
0.00482256
0.00479623
0.0049393
0.00506961
0.00477924
0.00428328
0.00459743
0.00600404
0.006566
0.00422478
0.0003436
0.000276581
0.00768548
0.019182
0.0227346
0.00760713
-0.0295181
-0.0706435
-0.0775626
-0.0126544
0.153518
0.40309
0.667499
0.854149
0.895735
0.820541
0.65098
0.441983
0.251037
0.113033
0.0347011
0.00372269
-6.40713e-06
-5.94715e-06
-3.46418e-06
-1.19919e-06
-1.56764e-07
6.61867e-09
5.2239e-09
1.95078e-09
2.66107e-10
-1.0918e-11
-7.70103e-12
-1.83069e-12
0.00112091
0.00112119
0.00111878
0.00111706
0.00112779
0.0011345
0.00110108
0.00107367
0.00115657
0.0012632
0.00111253
0.000762277
0.000857348
0.00173531
0.00231072
0.00110612
-0.00152274
-0.00233459
0.00167618
0.00970212
0.0145089
0.00668733
-0.0189554
-0.0527389
-0.0656283
-0.0244659
0.0982528
0.293755
0.509025
0.667499
0.709966
0.655305
0.522919
0.35645
0.202935
0.0914681
0.0280684
0.00299622
-1.66714e-05
-1.45104e-05
-7.12274e-06
-1.82106e-06
-6.73462e-08
2.53276e-08
1.33237e-08
2.8417e-09
3.23406e-11
-3.54058e-11
-1.73041e-11
-2.39155e-12
-0.00192326
-0.00192294
-0.00192365
-0.00192569
-0.0019226
-0.00191507
-0.00192357
-0.00194747
-0.00193323
-0.00186504
-0.0018618
-0.00202205
-0.00215353
-0.00191124
-0.00136836
-0.00132219
-0.00241435
-0.00400294
-0.00384779
7.22026e-05
0.00587917
0.00646358
-0.00540097
-0.0292875
-0.0478215
-0.0348309
0.0320821
0.152658
0.293755
0.40309
0.437819
0.407412
0.325985
0.221765
0.125407
0.0557729
0.0165903
0.00155293
-3.40427e-05
-2.53638e-05
-9.64122e-06
-1.38053e-06
1.50075e-07
8.12018e-08
1.92023e-08
1.08239e-09
-1.93168e-10
-9.94301e-11
-2.2377e-11
-8.63602e-13
-0.00292872
-0.00292848
-0.00292792
-0.00292961
-0.00293215
-0.00292617
-0.00291651
-0.0029318
-0.00296568
-0.0029405
-0.00283517
-0.00283214
-0.00308912
-0.00330756
-0.00291222
-0.00201076
-0.00196631
-0.00383414
-0.00621403
-0.00565945
-5.05358e-05
0.00649907
0.00544078
-0.00830426
-0.0283838
-0.0366109
-0.017844
0.0320821
0.0982528
0.153518
0.174608
0.164256
0.130602
0.0870031
0.0473793
0.0197163
0.0049493
6.95987e-05
-6.3184e-05
-2.93943e-05
-5.81974e-06
7.50575e-07
4.72406e-07
1.21359e-07
7.42874e-09
-1.4008e-09
-6.99641e-10
-1.44479e-10
-3.72975e-12
1.07078e-12
-0.00197657
-0.00197649
-0.0019754
-0.0019761
-0.00198101
-0.00197876
-0.0019618
-0.00196475
-0.00201514
-0.00202684
-0.00190402
-0.00179919
-0.00202244
-0.00244243
-0.00229741
-0.00120797
-0.000475028
-0.00184943
-0.00501362
-0.0061355
-0.00218911
0.00555107
0.00980976
0.00468054
-0.0102966
-0.0274626
-0.0366109
-0.0348309
-0.0244659
-0.0126544
-0.00576647
-0.00445791
-0.00553655
-0.00677263
-0.00652096
-0.0048296
-0.00270059
-0.000848322
-0.000121779
2.52067e-06
6.00555e-06
3.03523e-06
7.40805e-07
4.46907e-08
-7.78865e-09
-4.30477e-09
-1.07804e-09
-4.58576e-11
9.88528e-12
3.81374e-12
-0.000211063
-0.000211153
-0.000210278
-0.000209852
-0.000213748
-0.000215471
-0.0002029
-0.000195289
-0.000227892
-0.000261684
-0.000196052
-7.39567e-05
-0.000148578
-0.000484708
-0.000574334
3.37791e-05
0.000797698
0.000409258
-0.00152632
-0.00311892
-0.00183483
0.00287272
0.00795571
0.00871153
0.00279621
-0.0102966
-0.0283838
-0.0478215
-0.0656284
-0.0775626
-0.0802548
-0.0747764
-0.0617993
-0.0445259
-0.0273104
-0.0136397
-0.00501369
-0.00108979
3.66622e-07
2.43421e-05
1.35066e-05
4.05243e-06
3.74148e-07
-3.0047e-08
-1.77937e-08
-5.81968e-09
-6.55078e-10
4.97793e-11
2.57141e-11
4.50335e-12
0.000719912
0.000719757
0.000720001
0.000721022
0.000719917
0.000716172
0.000719151
0.00073093
0.000726835
0.000693704
0.000688147
0.000762077
0.000823571
0.00071695
0.000494215
0.000511241
0.000920656
0.00135058
0.00115554
0.000104282
-0.000929144
-0.000425023
0.00250672
0.00673617
0.00871153
0.00468054
-0.00830426
-0.0292875
-0.0527389
-0.0706435
-0.0762757
-0.0712947
-0.0578146
-0.0401483
-0.0233267
-0.0108374
-0.00363636
-0.000510237
3.45852e-05
2.63413e-05
1.23303e-05
2.84568e-06
3.34528e-09
-3.98096e-08
-1.80787e-08
-3.47095e-09
2.36352e-10
1.20422e-10
2.51329e-11
1.29299e-13
0.000323463
0.000323332
0.000323008
0.000323972
0.000325366
0.000321924
0.000316735
0.000325818
0.000343029
0.000327384
0.000275787
0.000279953
0.000404892
0.000493043
0.000307455
-7.67689e-05
-5.9931e-05
0.000665115
0.00142535
0.00107166
-0.000744198
-0.00244983
-0.00172017
0.00250672
0.00795571
0.00980976
0.00544077
-0.00540097
-0.0189554
-0.0295181
-0.0328497
-0.0301615
-0.0232916
-0.014989
-0.00781679
-0.00309449
-0.000700461
7.48118e-05
4.07309e-05
1.19187e-05
1.48747e-06
-6.81365e-07
-2.1118e-07
-2.78948e-08
-6.63486e-10
2.17824e-09
8.67578e-10
1.36868e-10
-9.45545e-12
-3.66042e-12
-0.000841957
-0.000842037
-0.000842566
-0.000841975
-0.000839706
-0.000841652
-0.000849194
-0.000845628
-0.000823731
-0.000823388
-0.000877197
-0.000909374
-0.000811804
-0.000669197
-0.00075519
-0.00110519
-0.00125931
-0.000821711
-0.000102994
-7.23693e-05
-0.00114173
-0.00247524
-0.00244982
-0.000425022
0.00287272
0.00555106
0.00649907
0.00646359
0.00668736
0.00760716
0.00875603
0.00941852
0.00895878
0.00731197
0.00500958
0.00280568
0.00116761
0.00028176
2.16134e-05
-1.30701e-05
-8.60134e-06
-2.98803e-06
-4.66455e-07
2.21942e-08
1.59437e-08
5.98453e-09
1.04876e-09
-3.1047e-11
-1.71645e-11
-3.78746e-12
-0.00163953
-0.00163958
-0.00163999
-0.0016396
-0.00163795
-0.00163912
-0.00164431
-0.0016427
-0.00162838
-0.00162691
-0.00165715
-0.00167867
-0.00163382
-0.00156368
-0.00157651
-0.00168685
-0.00176906
-0.00173577
-0.00168659
-0.00168947
-0.00157138
-0.00114173
-0.000744192
-0.000929141
-0.00183483
-0.00218912
-5.05432e-05
0.00587918
0.0145089
0.0227346
0.0270919
0.0266407
0.0222912
0.0157239
0.0092017
0.00426246
0.00136942
0.000175953
-3.02916e-05
-2.21907e-05
-1.04279e-05
-3.00838e-06
-2.10931e-07
2.26415e-08
1.57458e-08
5.41646e-09
5.52979e-10
-1.95452e-11
-1.23826e-11
-2.59521e-12
-0.00169304
-0.00169311
-0.00169334
-0.00169286
-0.00169201
-0.00169361
-0.00169623
-0.00169263
-0.0016855
-0.00169171
-0.00170635
-0.00170296
-0.0016791
-0.00167953
-0.00170042
-0.00167359
-0.00160763
-0.00172375
-0.00212441
-0.00236005
-0.00168947
-7.23643e-05
0.00107167
0.000104284
-0.00311893
-0.00613552
-0.00565945
7.22125e-05
0.00970215
0.0191821
0.0239743
0.0234133
0.0189897
0.0127126
0.00685041
0.00277905
0.00067651
-4.09636e-06
-2.89899e-05
-1.90015e-05
-7.31331e-06
-1.35391e-06
3.99454e-08
2.66683e-08
9.74197e-09
1.80567e-09
-9.18606e-11
-4.27213e-11
-8.23189e-12
-2.7153e-13
-0.00143266
-0.00143277
-0.00143294
-0.00143223
-0.00143158
-0.0014341
-0.0014362
-0.0014298
-0.00142326
-0.00143632
-0.00145392
-0.00143602
-0.00139529
-0.00140928
-0.00148111
-0.00147101
-0.00134138
-0.00134654
-0.00173215
-0.00212441
-0.00168659
-0.00010299
0.00142536
0.00115554
-0.00152633
-0.00501363
-0.00621403
-0.00384778
0.0016762
0.00768551
0.0111299
0.0111269
0.00891432
0.00565841
0.00272454
0.000826545
3.80298e-05
-2.93578e-05
-2.26759e-05
-1.08013e-05
-2.83242e-06
-3.57677e-08
4.23507e-08
2.14946e-08
3.8119e-09
-5.4512e-10
-2.58421e-10
-5.20974e-11
2.98991e-14
2.43523e-13
-0.00132879
-0.00132891
-0.00132916
-0.00132832
-0.00132729
-0.00133012
-0.00133355
-0.00132651
-0.00131597
-0.00132865
-0.00135778
-0.00134491
-0.00128036
-0.00126839
-0.00136399
-0.00143901
-0.00134431
-0.00121364
-0.00134654
-0.00172375
-0.00173577
-0.000821708
0.000665121
0.00135058
0.000409252
-0.00184945
-0.00383414
-0.00400293
-0.00233456
0.000276609
0.00235153
0.00299391
0.00259631
0.00165547
0.000705923
8.44454e-05
-1.3963e-05
-1.93221e-05
-1.12562e-05
-3.4855e-06
-3.53546e-09
6.06781e-08
3.56363e-08
8.10077e-09
-8.35717e-10
-5.37767e-10
-1.54603e-10
-1.20193e-11
3.52475e-13
1.83291e-13
-0.00140964
-0.00140975
-0.00141005
-0.0014093
-0.00140797
-0.00141047
-0.00141495
-0.00140903
-0.00139589
-0.00140517
-0.00143849
-0.00143631
-0.00137025
-0.00133214
-0.00141205
-0.00152598
-0.00149761
-0.00134431
-0.00134138
-0.00160763
-0.00176905
-0.00125931
-5.99243e-05
0.000920658
0.000797692
-0.000475041
-0.00196632
-0.00241434
-0.00152272
0.000343628
0.0021437
0.0029046
0.00274062
0.00201796
0.00115153
0.000522633
0.000145875
9.02863e-06
-1.43205e-06
-8.59199e-07
-4.6974e-07
-1.79835e-07
-3.22353e-08
-1.36561e-09
-1.108e-10
-2.33592e-11
1.51442e-12
2.28918e-12
6.00971e-13
4.90548e-14
-0.00145288
-0.00145297
-0.00145328
-0.00145263
-0.00145132
-0.00145345
-0.00145774
-0.00145293
-0.00144071
-0.00144721
-0.00147724
-0.001479
-0.00142431
-0.00138507
-0.00144373
-0.0015378
-0.00152598
-0.00143901
-0.00147101
-0.00167359
-0.00168685
-0.00110518
-7.67616e-05
0.000511244
3.37722e-05
-0.00120798
-0.00201077
-0.00132218
0.00110614
0.00422481
0.00651333
0.00693973
0.00606286
0.00433084
0.00250326
0.00109539
0.000298606
1.9069e-05
-2.27272e-06
-2.21518e-06
-1.37382e-06
-5.01868e-07
-7.21303e-08
4.21124e-10
3.06233e-10
1.49263e-10
4.31349e-11
3.72173e-12
-1.86548e-13
-8.50278e-14
-0.00138306
-0.00138315
-0.00138342
-0.00138279
-0.0013817
-0.00138375
-0.00138731
-0.00138256
-0.00137237
-0.00137958
-0.00140463
-0.00140264
-0.00135517
-0.00133151
-0.00138482
-0.00144373
-0.00141205
-0.00136399
-0.00148111
-0.00170042
-0.00157651
-0.000755185
0.000307462
0.000494217
-0.00057434
-0.00229742
-0.00291222
-0.00136835
0.00231074
0.00656603
0.00928456
0.00950208
0.00804175
0.00556362
0.00307579
0.00126631
0.000307003
6.28006e-06
-5.52853e-06
-4.13476e-06
-1.95325e-06
-5.52446e-07
-3.89908e-08
2.81935e-10
2.16123e-10
9.13922e-11
2.10045e-11
3.78755e-13
-2.22515e-13
-8.75075e-14
-0.00131732
-0.00131742
-0.00131765
-0.00131699
-0.001316
-0.00131823
-0.00132148
-0.00131615
-0.00130657
-0.00131557
-0.00133996
-0.00133371
-0.00128432
-0.00126851
-0.00133151
-0.00138507
-0.00133214
-0.00126839
-0.00140927
-0.00167953
-0.00156367
-0.000669191
0.00049305
0.000716953
-0.000484714
-0.00244245
-0.00330757
-0.00191123
0.00173534
0.00600407
0.00876729
0.00900495
0.00758103
0.00516551
0.00278903
0.00110422
0.000239889
-1.91477e-06
-6.6354e-06
-4.58434e-06
-2.02105e-06
-4.87205e-07
-1.48427e-08
1.32795e-10
7.98176e-11
2.27882e-11
-3.88924e-13
-3.23911e-13
-9.61611e-14
3.84485e-15
-0.00134077
-0.00134088
-0.00134113
-0.00134043
-0.00133936
-0.00134172
-0.00134525
-0.00133959
-0.00132915
-0.00133862
-0.00136538
-0.00135952
-0.00130465
-0.00128432
-0.00135517
-0.00142431
-0.00137025
-0.00128035
-0.00139529
-0.0016791
-0.00163381
-0.000811799
0.000404899
0.000823574
-0.000148584
-0.00202246
-0.00308913
-0.00215352
0.000857373
0.00459746
0.00716674
0.00751475
0.00638911
0.00437692
0.00236709
0.000936052
0.000201488
-2.40312e-06
-6.20945e-06
-4.26959e-06
-1.86908e-06
-4.37164e-07
-1.17552e-08
4.56459e-12
-8.48784e-13
-5.74999e-12
-2.14566e-12
-1.98342e-13
1.44734e-13
5.67626e-14
-0.00139425
-0.00139435
-0.00139463
-0.00139393
-0.00139277
-0.0013951
-0.00139891
-0.00139339
-0.0013823
-0.00139109
-0.00141914
-0.00141535
-0.00135952
-0.00133371
-0.00140264
-0.001479
-0.00143631
-0.00134491
-0.00143602
-0.00170296
-0.00167867
-0.000909368
0.00027996
0.00076208
-7.39631e-05
-0.0017992
-0.00283214
-0.00202204
0.000762302
0.00428331
0.00675041
0.00712992
0.006107
0.00422464
0.00231446
0.000933478
0.000213159
3.76288e-07
-5.61408e-06
-3.97976e-06
-1.77003e-06
-4.32645e-07
-1.53054e-08
-2.54783e-11
-1.13953e-11
-2.94243e-12
1.10912e-12
7.9826e-13
2.61351e-13
2.7442e-14
-0.00139831
-0.00139841
-0.00139869
-0.00139801
-0.00139686
-0.00139913
-0.00140289
-0.00139757
-0.00138665
-0.00139503
-0.00142242
-0.00141914
-0.00136538
-0.00133996
-0.00140463
-0.00147724
-0.00143849
-0.00135778
-0.00145391
-0.00170634
-0.00165715
-0.000877192
0.000275795
0.00068815
-0.000196061
-0.00190403
-0.00283518
-0.00186179
0.00111255
0.00477927
0.00729455
0.00763522
0.00652081
0.00451085
0.0024789
0.00100801
0.000234508
2.04384e-06
-5.31001e-06
-3.85497e-06
-1.75707e-06
-4.53006e-07
-2.07198e-08
1.85281e-11
1.5784e-11
9.28531e-12
3.79912e-12
9.95229e-13
8.19149e-14
-6.98335e-15
-0.00137141
-0.00137151
-0.00137177
-0.0013711
-0.00137
-0.00137224
-0.00137586
-0.00137057
-0.00136003
-0.0013685
-0.00139503
-0.00139109
-0.00133862
-0.00131557
-0.00137958
-0.00144721
-0.00140517
-0.00132865
-0.00143631
-0.00169171
-0.00162691
-0.000823384
0.000327396
0.000693705
-0.000261701
-0.00202686
-0.0029405
-0.00186503
0.00126323
0.00506964
0.00764499
0.0079627
0.00677728
0.00467283
0.00255895
0.00103552
0.000238365
1.58989e-06
-5.41761e-06
-3.91387e-06
-1.7807e-06
-4.57302e-07
-2.06263e-08
2.19027e-11
1.72883e-11
8.8533e-12
3.27908e-12
6.87241e-13
2.1015e-15
-3.92805e-15
-0.00136277
-0.00136288
-0.00136314
-0.00136246
-0.00136136
-0.00136363
-0.00136724
-0.00136186
-0.00135132
-0.00136003
-0.00138665
-0.0013823
-0.00132915
-0.00130657
-0.00137237
-0.00144071
-0.00139589
-0.00131597
-0.00142326
-0.0016855
-0.00162838
-0.000823728
0.000343048
0.000726835
-0.000227919
-0.00201516
-0.00296568
-0.00193321
0.0011566
0.00493933
0.00751137
0.00783896
0.00667392
0.00459798
0.00251286
0.00101272
0.000230541
7.46329e-07
-5.598e-06
-4.00145e-06
-1.80288e-06
-4.53482e-07
-1.84014e-08
1.00804e-11
8.73136e-12
5.34571e-12
2.41157e-12
7.2064e-13
7.21988e-14
4.92733e-16
-0.00137344
-0.00137354
-0.00137381
-0.00137312
-0.00137201
-0.00137429
-0.00137795
-0.00137254
-0.00136186
-0.00137057
-0.00139756
-0.00139339
-0.00133959
-0.00131615
-0.00138256
-0.00145293
-0.00140903
-0.00132651
-0.0014298
-0.00169263
-0.0016427
-0.000845624
0.000325839
0.000730929
-0.000195321
-0.00196478
-0.0029318
-0.00194744
0.00107371
0.00479626
0.00734331
0.00768153
0.00654811
0.00451523
0.0024691
0.000995529
0.000226712
6.72858e-07
-5.58673e-06
-3.98969e-06
-1.79527e-06
-4.50312e-07
-1.80341e-08
9.84723e-12
8.60117e-12
5.46411e-12
2.63303e-12
8.55245e-13
1.04782e-13
-7.26909e-17
-0.00137882
-0.00137892
-0.00137918
-0.0013785
-0.00137738
-0.00137966
-0.00138334
-0.00137795
-0.00136724
-0.00137586
-0.00140289
-0.00139891
-0.00134525
-0.00132148
-0.00138731
-0.00145774
-0.00141495
-0.00133355
-0.0014362
-0.00169623
-0.00164431
-0.000849189
0.000316749
0.000719151
-0.00020292
-0.00196182
-0.00291652
-0.00192355
0.00110111
0.00482259
0.00736622
0.00770179
0.00656558
0.00452896
0.00247852
0.00100084
0.000228885
9.55599e-07
-5.52862e-06
-3.9617e-06
-1.78746e-06
-4.50962e-07
-1.85996e-08
1.10671e-11
9.66032e-12
6.06787e-12
2.85233e-12
8.9048e-13
9.97902e-14
-5.96998e-17
-0.00137516
-0.00137526
-0.00137552
-0.00137485
-0.00137373
-0.001376
-0.00137966
-0.00137429
-0.00136363
-0.00137224
-0.00139913
-0.0013951
-0.00134172
-0.00131823
-0.00138375
-0.00145345
-0.00141047
-0.00133012
-0.0014341
-0.00169361
-0.00163912
-0.000841647
0.000321928
0.000716175
-0.000215472
-0.00197876
-0.00292618
-0.00191506
0.00113452
0.00487743
0.00742969
0.00776146
0.00661369
0.00456118
0.00249607
0.00100808
0.000230663
1.03007e-06
-5.52194e-06
-3.9607e-06
-1.78886e-06
-4.52336e-07
-1.88668e-08
1.22048e-11
1.04446e-11
6.3026e-12
2.82562e-12
8.20619e-13
7.16056e-14
-5.61988e-17
-0.00137288
-0.00137299
-0.00137325
-0.00137257
-0.00137146
-0.00137373
-0.00137738
-0.00137201
-0.00136136
-0.00137
-0.00139686
-0.00139277
-0.00133936
-0.001316
-0.0013817
-0.00145132
-0.00140797
-0.00132729
-0.00143158
-0.00169201
-0.00163794
-0.0008397
0.00032537
0.000719921
-0.000213748
-0.00198101
-0.00293216
-0.00192259
0.00112781
0.00487294
0.00742732
0.00775983
0.00661216
0.00455961
0.00249466
0.00100709
0.000230187
9.60218e-07
-5.53581e-06
-3.96733e-06
-1.7907e-06
-4.5219e-07
-1.87326e-08
1.21416e-11
1.04453e-11
6.29788e-12
2.79838e-12
8.01605e-13
6.69609e-14
-5.49043e-17
-0.001374
-0.0013741
-0.00137437
-0.00137368
-0.00137257
-0.00137485
-0.0013785
-0.00137312
-0.00136246
-0.0013711
-0.00139801
-0.00139393
-0.00134043
-0.001317
-0.00138279
-0.00145263
-0.0014093
-0.00132832
-0.00143223
-0.00169285
-0.0016396
-0.00084197
0.000323981
0.000721024
-0.000209862
-0.00197611
-0.00292961
-0.00192568
0.00111708
0.00485575
0.0074075
0.00774117
0.00659705
0.00454942
0.00248903
0.00100472
0.000229565
9.25923e-07
-5.54001e-06
-3.96856e-06
-1.79044e-06
-4.51672e-07
-1.86184e-08
1.10104e-11
9.55485e-12
5.9048e-12
2.72393e-12
8.2917e-13
8.44783e-14
-5.39631e-17
-0.00137468
-0.00137478
-0.00137505
-0.00137437
-0.00137325
-0.00137552
-0.00137918
-0.00137381
-0.00136314
-0.00137177
-0.00139869
-0.00139463
-0.00134113
-0.00131765
-0.00138342
-0.00145328
-0.00141005
-0.00132916
-0.00143294
-0.00169333
-0.00163999
-0.000842561
0.000323016
0.000720003
-0.000210286
-0.00197541
-0.00292793
-0.00192364
0.0011188
0.00485671
0.00740779
0.00774126
0.00659715
0.0045496
0.00248927
0.00100492
0.000229674
9.40867e-07
-5.53885e-06
-3.96838e-06
-1.79049e-06
-4.51749e-07
-1.86353e-08
1.11176e-11
9.63995e-12
5.94226e-12
2.73347e-12
8.30576e-13
8.48515e-14
-5.36297e-17
-0.00137441
-0.00137452
-0.00137478
-0.0013741
-0.00137299
-0.00137526
-0.00137892
-0.00137354
-0.00136288
-0.00137151
-0.00139841
-0.00139435
-0.00134088
-0.00131742
-0.00138315
-0.00145297
-0.00140975
-0.00132891
-0.00143277
-0.00169311
-0.00163958
-0.000842031
0.000323338
0.00071976
-0.000211158
-0.0019765
-0.00292848
-0.00192293
0.00112122
0.00486059
0.00741226
0.00774546
0.00660055
0.00455191
0.00249055
0.00100547
0.000229824
9.51371e-07
-5.53654e-06
-3.96734e-06
-1.79037e-06
-4.51915e-07
-1.86825e-08
1.15054e-11
9.9466e-12
6.08083e-12
2.76377e-12
8.24574e-13
7.95613e-14
-5.37005e-17
-0.00137431
-0.00137441
-0.00137468
-0.001374
-0.00137288
-0.00137516
-0.00137882
-0.00137344
-0.00136277
-0.00137141
-0.00139831
-0.00139425
-0.00134077
-0.00131732