/*--------------------------------*- C++ -*----------------------------------*\
| =========                 |                                                 |
| \\      /  F ield         | OpenFOAM: The Open Source CFD Toolbox           |
|  \\    /   O peration     | Version:  v2006                                 |
|   \\  /    A nd           | Website:  www.openfoam.com                      |
|    \\/     M anipulation  |                                                 |
\*---------------------------------------------------------------------------*/
FoamFile
{
    version     2.0;
    format      ascii;
    class       volScalarField;
    location    "0";
    object      shifted_f;
}
// * * * * * * * * * * * * * * * * * * * * * * * * * * * * * * * * * * * * * //

dimensions      [0 0 0 0 0 0 0];


internalField   nonuniform List<scalar> 
2500
(
-0.6695
-0.670221
-0.669646
-0.668797
-0.669478
-0.670335
-0.671021
-0.671453
-0.672226
-0.674634
-0.674627
-0.675461
-0.67608
-0.676746
-0.677284
-0.67777
-0.678459
-0.679196
-0.679687
-0.680202
-0.680626
-0.681325
-0.681777
-0.682257
-0.682904
-0.683152
-0.676185
-0.682419
-0.613219
-1.58227
-1.11886
4.07971
-1.17806
-0.101692
-0.101641
-0.101543
-0.101406
-0.10148
-0.101098
-0.101028
-0.100802
-0.100731
-0.100439
-0.100224
-0.0997672
-0.099524
-0.0991179
-0.0989054
-0.0985112
-0.0983089
-0.0978555
-0.0957441
-0.0954577
-0.0919625
-0.0917193
-0.0908009
-0.0904256
-0.088961
-0.0887856
-0.0869826
-0.0859995
-0.085259
-0.0845984
-0.0840321
-0.0833622
-0.0826893
-0.0820231
-0.0811798
-0.0805587
-0.0798306
-0.0790499
-0.0782098
-0.0775206
-0.0764286
-0.0758145
-0.0750241
-0.0664189
-0.0608755
-0.0309892
1.02215
0.149182
6.49955
-20.6892
0.81501
0.91025
0.912745
0.912671
0.912138
0.911841
0.911489
0.910946
0.910532
0.910097
0.909692
0.909179
0.908734
0.90839
0.90748
0.907144
0.906519
0.90599
0.905672
0.905159
0.904254
0.905136
0.904696
0.903736
0.903118
0.902392
0.901716
0.901114
0.900969
0.900424
0.899843
0.899231
0.898769
0.898013
0.897164
0.89669
0.896158
0.895503
0.894873
0.894304
0.893778
0.893134
0.892544
0.89192
0.902536
0.897295
0.752277
-0.00603346
-2.30667
3.39366
-0.545677
0.0215139
0.0210722
0.0208695
0.0213711
0.0210184
0.0212675
0.0212365
0.0213391
0.0214591
0.0214081
0.0214187
0.0216408
0.0215734
0.0217039
0.0219989
0.0221309
0.0225011
0.0226489
0.0223826
0.0225452
0.0228504
0.0229882
0.0240052
0.0243319
0.025459
0.0259026
0.0269485
0.0285713
0.0292695
0.0295817
0.0303188
0.030949
0.0314197
0.0318527
0.0326932
0.03306
0.0337489
0.0344049
0.0351998
0.0356889
0.0364827
0.0373418
0.0380706
0.0408626
0.0328072
0.0595783
0.768975
2.23507
10.6016
-11.7936
0.669013
0.695357
0.698368
0.698239
0.698516
0.698564
0.698614
0.698385
0.698296
0.698063
0.697866
0.697778
0.697512
0.697235
0.697202
0.696886
0.69655
0.696462
0.695951
0.695673
0.694282
0.69428
0.69419
0.692833
0.692592
0.692188
0.691922
0.693143
0.693161
0.692795
0.692391
0.691947
0.691605
0.691051
0.690636
0.690045
0.689666
0.689001
0.688623
0.688162
0.687665
0.687278
0.686655
0.686081
0.697763
0.694736
0.528871
0.071669
-3.68618
1.40459
-1.08532
-0.84223
-0.843103
-0.843338
-0.843137
-0.843061
-0.843171
-0.843317
-0.843589
-0.843534
-0.843845
-0.843791
-0.844055
-0.843865
-0.843965
-0.844163
-0.844254
-0.844087
-0.84399
-0.845623
-0.845408
-0.848658
-0.848639
-0.847822
-0.848042
-0.847335
-0.846002
-0.847439
-0.845936
-0.845464
-0.845132
-0.844944
-0.844556
-0.844345
-0.843962
-0.843539
-0.843127
-0.842821
-0.842254
-0.841872
-0.841523
-0.840938
-0.840388
-0.839849
-0.843368
-0.865641
-0.844749
-0.705979
1.50242
9.6025
-5.85874
0.217764
0.212748
0.214928
0.215358
0.216108
0.216479
0.216925
0.217021
0.217158
0.217354
0.217386
0.217585
0.217674
0.217762
0.217848
0.218054
0.218187
0.218144
0.218165
0.217975
0.217192
0.215758
0.215612
0.214429
0.214571
0.214622
0.214644
0.217059
0.217141
0.217293
0.21707
0.216911
0.216773
0.216643
0.216534
0.216263
0.216085
0.216059
0.216001
0.215648
0.21538
0.215204
0.21496
0.21488
0.222917
0.222996
0.210487
0.597374
-3.03867
0.755505
-0.570511
-0.496925
-0.497718
-0.497843
-0.497534
-0.497562
-0.497946
-0.498085
-0.498306
-0.498368
-0.498727
-0.498834
-0.499015
-0.499203
-0.499346
-0.499453
-0.499714
-0.499625
-0.499834
-0.500542
-0.500505
-0.504324
-0.504204
-0.503755
-0.503946
-0.504328
-0.502563
-0.505808
-0.505631
-0.505478
-0.505312
-0.505369
-0.505113
-0.505052
-0.50492
-0.505012
-0.504788
-0.504536
-0.504312
-0.504355
-0.50408
-0.503809
-0.503749
-0.503418
-0.512798
-0.540511
-0.520511
-1.00804
-0.384184
5.92768
-3.01274
-0.60584
-0.620467
-0.619131
-0.618641
-0.617687
-0.617484
-0.617016
-0.616762
-0.61642
-0.616096
-0.615822
-0.615525
-0.615217
-0.614992
-0.614712
-0.614433
-0.614245
-0.61402
-0.613841
-0.613631
-0.612813
-0.615243
-0.615977
-0.616992
-0.616797
-0.616185
-0.616119
-0.614983
-0.615137
-0.614333
-0.614303
-0.614141
-0.61391
-0.613901
-0.613579
-0.613603
-0.613593
-0.613442
-0.613388
-0.61331
-0.613182
-0.613055
-0.612984
-0.613035
-0.61353
-0.61124
-0.439018
1.50402
-1.0675
1.29518
0.710009
0.711352
0.710913
0.710845
0.711352
0.711372
0.711096
0.711012
0.710829
0.710727
0.710593
0.710366
0.710152
0.710085
0.709998
0.70996
0.709867
0.709705
0.709565
0.710072
0.709881
0.70959
0.710017
0.71064
0.710258
0.708675
0.710479
0.70859
0.707775
0.707903
0.707793
0.707707
0.707655
0.707652
0.70756
0.707407
0.707531
0.707456
0.707326
0.707338
0.707383
0.707465
0.707427
0.707432
0.693724
0.669998
0.693427
-0.257679
-1.53996
2.54034
-1.72318
-1.06358
-1.07703
-1.07696
-1.0767
-1.07611
-1.07599
-1.07586
-1.0757
-1.07535
-1.07532
-1.0752
-1.07495
-1.0749
-1.07465
-1.07444
-1.07419
-1.07408
-1.07404
-1.07374
-1.07336
-1.07181
-1.0734
-1.07585
-1.0765
-1.07642
-1.07575
-1.07568
-1.07777
-1.07811
-1.0778
-1.07749
-1.07733
-1.07715
-1.07708
-1.0769
-1.07672
-1.07666
-1.0765
-1.07634
-1.07604
-1.07609
-1.07585
-1.07579
-1.07559
-1.08472
-1.0806
-0.858301
2.05224
0.614062
1.81365
1.61235
1.59202
1.59194
1.59216
1.59265
1.59268
1.59257
1.59244
1.5925
1.59254
1.59257
1.59257
1.59256
1.59253
1.59247
1.59247
1.59251
1.59239
1.59248
1.59298
1.593
1.59726
1.59775
1.59878
1.5989
1.59574
1.59625
1.60138
1.59894
1.59913
1.59912
1.59907
1.59911
1.5991
1.599
1.59889
1.59884
1.59877
1.5988
1.59873
1.59879
1.59861
1.59858
1.59855
1.58584
1.56707
1.5892
0.587617
-1.16481
0.952583
-0.657222
-0.679509
-0.688159
-0.688862
-0.688794
-0.688588
-0.68887
-0.688937
-0.688981
-0.688844
-0.688871
-0.688845
-0.688766
-0.688838
-0.688726
-0.688598
-0.68873
-0.688536
-0.688629
-0.688534
-0.687978
-0.687277
-0.68596
-0.690131
-0.689535
-0.68993
-0.689458
-0.689127
-0.694482
-0.694855
-0.694883
-0.694825
-0.694664
-0.69457
-0.694564
-0.694518
-0.694472
-0.694424
-0.694278
-0.694225
-0.694074
-0.694108
-0.693956
-0.693896
-0.693783
-0.705945
-0.699989
-0.621838
1.54211
0.946421
1.41904
1.38212
1.36236
1.36243
1.36279
1.3632
1.36312
1.36295
1.36293
1.36317
1.36327
1.36348
1.36351
1.36361
1.36377
1.36387
1.36399
1.36408
1.36407
1.36424
1.36415
1.36434
1.36877
1.36904
1.37034
1.37144
1.36792
1.36266
1.37402
1.37171
1.37149
1.37171
1.37168
1.37176
1.37172
1.37179
1.37175
1.37183
1.37189
1.37195
1.37195
1.37187
1.3719
1.37192
1.37185
1.36319
1.35017
1.35619
0.841642
-0.492008
0.307429
-0.0928431
-0.297327
-0.30025
-0.301584
-0.301306
-0.30154
-0.301946
-0.302221
-0.30217
-0.302226
-0.302228
-0.302224
-0.302238
-0.302182
-0.302195
-0.302173
-0.302192
-0.302236
-0.302232
-0.30219
-0.301797
-0.302027
-0.299465
-0.303181
-0.300043
-0.300784
-0.301664
-0.300582
-0.305689
-0.306294
-0.306512
-0.306513
-0.30644
-0.306504
-0.306468
-0.306392
-0.306463
-0.3063
-0.306284
-0.306308
-0.306211
-0.306227
-0.306207
-0.3062
-0.306146
-0.320122
-0.313948
-0.461919
0.549784
0.4758
0.601242
0.620062
0.60824
0.608392
0.608686
0.608882
0.608583
0.608386
0.608389
0.608604
0.608711
0.608832
0.608833
0.609109
0.609076
0.609146
0.609221
0.609378
0.60935
0.609509
0.609127
0.609202
0.60893
0.608898
0.60898
0.6111
0.613503
0.59668
0.600363
0.598044
0.597742
0.597742
0.597921
0.597909
0.597891
0.597948
0.598021
0.598084
0.598103
0.598092
0.598209
0.598176
0.598176
0.598286
0.598303
0.591536
0.591584
0.570189
0.636912
-0.301846
-0.126745
-0.0850225
-0.267695
-0.266181
-0.267421
-0.267462
-0.267691
-0.26825
-0.268554
-0.268559
-0.268602
-0.268553
-0.268726
-0.268649
-0.268767
-0.268746
-0.268773
-0.268723
-0.268773
-0.268782
-0.268745
-0.268745
-0.269331
-0.268904
-0.270172
-0.262343
-0.262693
-0.266349
-0.266181
-0.267514
-0.268535
-0.268871
-0.268996
-0.268852
-0.268985
-0.268939
-0.268987
-0.268909
-0.268877
-0.268913
-0.26882
-0.268825
-0.268812
-0.268812
-0.26879
-0.26882
-0.28323
-0.28147
-0.604652
-0.0928912
0.00496857
0.00349833
0.0315653
0.0287978
0.0289538
0.029193
0.0291535
0.028575
0.0283106
0.0282544
0.0283971
0.0284837
0.0281758
0.0282503
0.0283622
0.0282854
0.0284203
0.0285373
0.028568
0.0285737
0.0286389
0.0281769
0.02831
0.0236236
0.0236012
0.0197752
0.0218527
0.0440904
0.0323524
0.0142229
0.00990194
0.00990926
0.0099453
0.0100161
0.00999776
0.010027
0.0101454
0.0101871
0.0101684
0.0101761
0.0101567
0.0103051
0.0103184
0.0103543
0.0104332
0.0104491
0.00719956
0.0196393
-0.0174109
0.11817
-0.391264
-0.412986
-0.265785
-0.362683
-0.358133
-0.359292
-0.35923
-0.359693
-0.360329
-0.360544
-0.360498
-0.360491
-0.36078
-0.360814
-0.360713
-0.36068
-0.360668
-0.360628
-0.360601
-0.360574
-0.360592
-0.360644
-0.360814
-0.361508
-0.363907
-0.360513
-0.350033
-0.34733
-0.35176
-0.354265
-0.358158
-0.358678
-0.358817
-0.358899
-0.358879
-0.35889
-0.358862
-0.35889
-0.358687
-0.358695
-0.358765
-0.358707
-0.35879
-0.358632
-0.358711
-0.358735
-0.358654
-0.365342
-0.370328
-0.66026
-0.454715
-0.376732
-0.408275
-0.387953
-0.383475
-0.383276
-0.383243
-0.383615
-0.384248
-0.38448
-0.38459
-0.384509
-0.384787
-0.38458
-0.384573
-0.384486
-0.384539
-0.384452
-0.384395
-0.384318
-0.384323
-0.384266
-0.384294
-0.384279
-0.388777
-0.388675
-0.397263
-0.401113
-0.364851
-0.328169
-0.358899
-0.362469
-0.362483
-0.362316
-0.362453
-0.362525
-0.36241
-0.362496
-0.362379
-0.362339
-0.362271
-0.362321
-0.362284
-0.362289
-0.362198
-0.362195
-0.36221
-0.36129
-0.356608
-0.382952
-0.312269
-0.450136
-0.498894
-0.374453
-0.384503
-0.378694
-0.379318
-0.379335
-0.379958
-0.380533
-0.380667
-0.380618
-0.38088
-0.380694
-0.380575
-0.380519
-0.38046
-0.380518
-0.38047
-0.380383
-0.380418
-0.380367
-0.380334
-0.380542
-0.380746
-0.383069
-0.375272
-0.378317
-0.372218
-0.366254
-0.371424
-0.378568
-0.377289
-0.377131
-0.377235
-0.377195
-0.377239
-0.377182
-0.377289
-0.377195
-0.377121
-0.377102
-0.377002
-0.37703
-0.376957
-0.37693
-0.37687
-0.37687
-0.373759
-0.376513
-0.529989
-0.564434
-0.534224
-0.560306
-0.551576
-0.542924
-0.54274
-0.542805
-0.543367
-0.544062
-0.544316
-0.544202
-0.544309
-0.544139
-0.544229
-0.544183
-0.544122
-0.544041
-0.544106
-0.543966
-0.543959
-0.544046
-0.543981
-0.543403
-0.543367
-0.543894
-0.543805
-0.549533
-0.562334
-0.581657
-0.48307
-0.502531
-0.498525
-0.499089
-0.498967
-0.499051
-0.499115
-0.499092
-0.499079
-0.499104
-0.499105
-0.498991
-0.49894
-0.49903
-0.499091
-0.498945
-0.498935
-0.498923
-0.5021
-0.510371
-0.523116
-0.424833
-0.388237
-0.414697
-0.348942
-0.296679
-0.291108
-0.291313
-0.291286
-0.292105
-0.292627
-0.292655
-0.292276
-0.292099
-0.292093
-0.29195
-0.291908
-0.291857
-0.291765
-0.291845
-0.291776
-0.291694
-0.291694
-0.291665
-0.291822
-0.291406
-0.291948
-0.286724
-0.312955
-0.311918
-0.290415
-0.295783
-0.290799
-0.289536
-0.289543
-0.289538
-0.289539
-0.289557
-0.28954
-0.289507
-0.289389
-0.289398
-0.289271
-0.289293
-0.289255
-0.289165
-0.289256
-0.289162
-0.289081
-0.290739
-0.28593
-0.382652
-0.497218
-0.498032
-0.509124
-0.509909
-0.500091
-0.499936
-0.500026
-0.500702
-0.501443
-0.501597
-0.500765
-0.500666
-0.500519
-0.500573
-0.500508
-0.500531
-0.500434
-0.500378
-0.500433
-0.500471
-0.500364
-0.500378
-0.499154
-0.499217
-0.495893
-0.49538
-0.494403
-0.503905
-0.616653
-0.502809
-0.481988
-0.467427
-0.468236
-0.46818
-0.468262
-0.46825
-0.468197
-0.468126
-0.468096
-0.468075
-0.468119
-0.4681
-0.468062
-0.468003
-0.468019
-0.46807
-0.467956
-0.475355
-0.45619
-0.46666
-0.363172
-0.28216
-0.280229
-0.269118
-0.187003
-0.182912
-0.182385
-0.182578
-0.183369
-0.18373
-0.181961
-0.181833
-0.181731
-0.181733
-0.181491
-0.181481
-0.181424
-0.181339
-0.181307
-0.181306
-0.181204
-0.18114
-0.181133
-0.181344
-0.180339
-0.181217
-0.176558
-0.212998
-0.223098
-0.197515
-0.194205
-0.178258
-0.179192
-0.179073
-0.178897
-0.178957
-0.178997
-0.17892
-0.178861
-0.178723
-0.178736
-0.178593
-0.178658
-0.178644
-0.178633
-0.178625
-0.178542
-0.178551
-0.183766
-0.181322
-0.255366
-0.356922
-0.373702
-0.37112
-0.377459
-0.368991
-0.368941
-0.368985
-0.369863
-0.370562
-0.367971
-0.367903
-0.367686
-0.36771
-0.367649
-0.367606
-0.36764
-0.367604
-0.367616
-0.367556
-0.367594
-0.3676
-0.367635
-0.366308
-0.366249
-0.362703
-0.362481
-0.353562
-0.348679
-0.495452
-0.527079
-0.331654
-0.321094
-0.321849
-0.321622
-0.32165
-0.321742
-0.321722
-0.321618
-0.321622
-0.321555
-0.32156
-0.321609
-0.321532
-0.32149
-0.321493
-0.321452
-0.321388
-0.313995
-0.275972
-0.283744
-0.2072
-0.1298
-0.107603
-0.131337
-0.0507497
-0.048859
-0.0479178
-0.0479897
-0.0488963
-0.0447424
-0.0446555
-0.0443321
-0.0443058
-0.0443164
-0.0441791
-0.0441196
-0.044056
-0.0439884
-0.0439886
-0.0440046
-0.0439305
-0.04386
-0.0437953
-0.0437546
-0.0427941
-0.0443835
-0.03413
-0.0629364
-0.0802867
-0.0786143
-0.0470795
-0.0646323
-0.0664916
-0.066263
-0.0661097
-0.0661109
-0.0660149
-0.0660422
-0.0659618
-0.0659077
-0.0659191
-0.0659486
-0.0658861
-0.0659235
-0.0658927
-0.0658059
-0.0658576
-0.0658844
-0.0480121
-0.0491643
-0.103873
-0.169028
-0.19236
-0.181478
-0.189033
-0.183779
-0.183885
-0.184015
-0.184961
-0.180544
-0.180496
-0.180421
-0.180244
-0.1804
-0.180197
-0.180271
-0.180263
-0.180333
-0.180218
-0.180195
-0.180284
-0.180216
-0.180102
-0.179129
-0.179133
-0.178879
-0.179762
-0.157326
-0.134571
-0.196666
-0.642744
-0.0320981
-0.0376251
-0.0372413
-0.0371719
-0.0370771
-0.0370154
-0.0369334
-0.0369411
-0.0367902
-0.0367234
-0.0367075
-0.0366547
-0.0366658
-0.0365835
-0.0366159
-0.0365024
-0.036497
-0.0234407
-0.0127135
-0.0173527
0.0273491
0.0895886
0.120386
0.0845117
0.137478
0.136794
0.13816
0.138013
0.142338
0.142609
0.142673
0.142933
0.142964
0.142967
0.142995
0.143147
0.143144
0.143117
0.143171
0.143165
0.143177
0.143196
0.143227
0.14335
0.143977
0.143392
0.151847
0.160179
0.146401
0.0847242
0.162681
0.0667838
0.0658774
0.0661028
0.0661619
0.0661787
0.066185
0.0661814
0.0661515
0.0662172
0.066119
0.0661207
0.0660728
0.0660568
0.0661056
0.0660773
0.0660471
0.0660244
0.0874835
0.0866809
0.0496855
0.0165805
-0.00682421
0.0065172
0.00162457
0.00221239
0.00211842
0.00184122
0.00534201
0.00582697
0.00573995
0.00588093
0.00586703
0.00583793
0.00590066
0.00585923
0.00579604
0.00586791
0.00584446
0.00582995
0.00579644
0.00574933
0.00580122
0.00632571
0.00640738
0.00286238
0.000675843
0.0339019
0.0655666
0.244964
-0.811835
0.208501
0.19866
0.199804
0.199831
0.199894
0.200112
0.20014
0.200297
0.200429
0.200591
0.200705
0.200718
0.200836
0.200883
0.200946
0.201026
0.20113
0.188659
0.18231
0.179389
0.199498
0.244211
0.273132
0.245491
0.251107
0.24766
0.249457
0.25021
0.250719
0.250646
0.250804
0.25092
0.250837
0.251107
0.250926
0.250952
0.251037
0.251049
0.251067
0.251122
0.251087
0.251153
0.251135
0.251286
0.251141
0.253546
0.238855
0.304533
0.308549
0.150633
0.27152
0.108039
0.109057
0.109031
0.109
0.109032
0.10904
0.109016
0.108943
0.108956
0.108901
0.108817
0.108773
0.108734
0.108637
0.108527
0.108537
0.108456
0.106393
0.106615
0.0832525
0.0738222
0.0550755
0.0659431
0.0667831
0.062001
0.0617763
0.0622304
0.0625824
0.0626275
0.0624529
0.0625856
0.0624341
0.0624645
0.0622055
0.0622997
0.062243
0.0622139
0.0621668
0.0620324
0.062052
0.0619308
0.0619593
0.0616733
0.0616036
0.0554535
0.0529213
0.0752783
0.0967992
0.660284
-0.973215
0.173393
0.170156
0.171177
0.171386
0.171553
0.171743
0.172016
0.172118
0.172351
0.172385
0.172574
0.17266
0.172848
0.172972
0.173107
0.173137
0.173285
0.165626
0.163631
0.161158
0.165662
0.190121
0.209889
0.205662
0.150035
0.143943
0.138747
0.138802
0.139148
0.138845
0.13891
0.138889
0.138895
0.138948
0.138897
0.138926
0.13882
0.138935
0.138861
0.138804
0.138903
0.138853
0.138862
0.138858
0.137782
0.144621
0.0914331
0.194921
0.228053
-0.023832
0.114262
-0.0404283
-0.0390091
-0.0390064
-0.0392441
-0.0392347
-0.0393351
-0.0393945
-0.0395849
-0.0396301
-0.0396288
-0.0398534
-0.0398177
-0.04001
-0.0400987
-0.0402107
-0.0403069
-0.0403951
-0.0513845
-0.051011
-0.0649732
-0.0563096
-0.0664974
-0.0612452
-0.0527879
-0.0634487
-0.062925
-0.0629869
-0.0627782
-0.0631588
-0.0632024
-0.0632663
-0.0635006
-0.063521
-0.0638052
-0.0636937
-0.0638072
-0.0638642
-0.0640234
-0.0640699
-0.0641074
-0.0642482
-0.0643117
-0.065369
-0.0653984
-0.0719769
-0.072747
-0.0902958
-0.0936415
0.851482
-1.04856
-0.00611058
-0.00397205
-0.00336812
-0.0031334
-0.00298786
-0.00277566
-0.0025627
-0.00231459
-0.00218907
-0.00193435
-0.00179017
-0.00158384
-0.00148098
-0.00133055
-0.00124485
-0.00110653
-0.000965935
0.0190314
0.0236549
0.0214454
0.0160939
0.0167085
0.0227451
0.0514173
-0.0739896
-0.0585887
-0.0587706
-0.0586551
-0.0587171
-0.0590415
-0.0589514
-0.0591344
-0.0590141
-0.05925
-0.0591365
-0.0591762
-0.0592338
-0.0591819
-0.0592801
-0.0592285
-0.0593089
-0.0593851
-0.0594458
-0.059433
-0.0609923
-0.0500262
-0.122935
-0.0158548
0.0472372
-0.247052
-0.128466
-0.205998
-0.205606
-0.205705
-0.205945
-0.206031
-0.206182
-0.206293
-0.206341
-0.206462
-0.20663
-0.206842
-0.206888
-0.20707
-0.207199
-0.207372
-0.207535
-0.2077
-0.211693
-0.211679
-0.219091
-0.194528
-0.192969
-0.195482
-0.178149
-0.156528
-0.156657
-0.156727
-0.156748
-0.157357
-0.157372
-0.157682
-0.157746
-0.15796
-0.158077
-0.158148
-0.158243
-0.158403
-0.158449
-0.158674
-0.158676
-0.158762
-0.158928
-0.160545
-0.160536
-0.164561
-0.161084
-0.230163
-0.262643
0.894139
-0.79687
-0.176334
-0.17616
-0.175985
-0.175748
-0.175676
-0.175448
-0.175209
-0.174982
-0.174859
-0.174691
-0.17452
-0.174367
-0.174223
-0.174061
-0.173989
-0.173813
-0.173755
-0.149728
-0.143925
-0.145816
-0.158437
-0.18642
-0.196254
-0.130098
0.105873
0.106738
0.10681
0.106963
0.106648
0.106629
0.106692
0.106548
0.106725
0.106702
0.106862
0.106966
0.106986
0.107073
0.107162
0.107234
0.107306
0.107339
0.107392
0.107466
0.105643
0.117508
0.0790063
0.178819
0.265765
-0.00218772
0.0622347
0.0789577
0.0781662
0.0781967
0.0780777
0.0779697
0.077959
0.0779049
0.077813
0.0778044
0.0777771
0.0776736
0.0775946
0.0775376
0.077467
0.0773554
0.0772691
0.0772326
0.0806974
0.0803265
0.0781474
0.11887
0.134672
0.12407
0.0889234
0.0906176
0.0905656
0.0905642
0.0904045
0.0898914
0.0898476
0.0894704
0.0895827
0.089327
0.0894515
0.0893717
0.0893066
0.0892374
0.0891947
0.0891486
0.0890889
0.0890613
0.0889976
0.0872393
0.0872307
0.0896098
0.0969393
-0.0303463
-0.0974287
1.06712
0.102719
0.0286144
0.0261556
0.0259315
0.0261953
0.0264224
0.0266185
0.0268254
0.0270825
0.0272789
0.027498
0.0276575
0.0278499
0.0279945
0.0281387
0.0282712
0.0284416
0.0285881
0.0384618
0.0418
0.040457
0.020975
-0.0397939
-0.0661881
-0.191484
-0.1711
-0.170626
-0.170535
-0.170457
-0.170988
-0.170792
-0.17104
-0.170919
-0.170975
-0.170886
-0.17076
-0.170682
-0.170614
-0.170562
-0.170528
-0.170408
-0.170297
-0.170282
-0.170186
-0.169916
-0.17185
-0.167414
-0.127481
-0.0749585
0.0321214
-0.143495
-0.147925
-0.0648774
-0.0657495
-0.0658368
-0.0659468
-0.065931
-0.0659961
-0.0660586
-0.0661022
-0.0660859
-0.0661149
-0.0661993
-0.0662431
-0.066265
-0.0663463
-0.066366
-0.0664424
-0.0665051
-0.0611682
-0.0617071
-0.0587186
-0.000671242
0.0313965
0.0360418
0.0332381
0.034318
0.0342771
0.0342565
0.0337819
0.0335496
0.033406
0.0331162
0.0330838
0.0329633
0.0330755
0.0330522
0.0330079
0.0329629
0.0329061
0.0328813
0.0328954
0.032855
0.0328199
0.0312196
0.031248
0.0433644
0.04999
-0.123255
-0.242311
0.679801
0.651433
-0.0421395
-0.041972
-0.0424677
-0.0422893
-0.0421096
-0.0419016
-0.0417513
-0.0415731
-0.0413769
-0.0411624
-0.0410727
-0.0408576
-0.0407474
-0.0406162
-0.040412
-0.0403225
-0.0401612
-0.0429758
-0.0425776
-0.0431702
-0.0707426
-0.167545
-0.148657
-0.162122
-0.147539
-0.147542
-0.147418
-0.147363
-0.147849
-0.147673
-0.148118
-0.147838
-0.147897
-0.147725
-0.147621
-0.147605
-0.147498
-0.147421
-0.147394
-0.147294
-0.147214
-0.147129
-0.147116
-0.146648
-0.148116
-0.158909
-0.036304
-0.138052
-0.0280167
-0.0743197
-0.140549
-0.0221346
-0.0224243
-0.0227629
-0.0227984
-0.0227435
-0.0227999
-0.0228019
-0.0227591
-0.0227329
-0.0227976
-0.022807
-0.0227798
-0.0228109
-0.022832
-0.0228459
-0.0228312
-0.0228836
-0.019387
-0.0198532
-0.010906
0.0662201
0.0107586
0.0140368
0.0119596
0.012233
0.0121894
0.0122044
0.0116216
0.0116289
0.011155
0.011252
0.0110494
0.011148
0.0111618
0.0111062
0.0110788
0.0110966
0.0111033
0.0111201
0.0110644
0.0110412
0.0110869
0.0100781
0.0100242
0.0313696
0.0342916
-0.0897282
-0.255398
0.219748
0.954896
-0.0447932
-0.0397499
-0.0405161
-0.0403858
-0.0402181
-0.0401395
-0.0400209
-0.0399098
-0.0397419
-0.0396416
-0.0395468
-0.0394533
-0.0393135
-0.039245
-0.039156
-0.0390605
-0.0389139
-0.0459025
-0.0472517
-0.047035
-0.0842184
0.0686961
0.0757151
0.0650033
0.0720371
0.0716379
0.0716976
0.0716933
0.0715996
0.0714398
0.0712293
0.0712677
0.0712939
0.0714388
0.0714992
0.0715751
0.0716398
0.0716953
0.0718028
0.0718534
0.071937
0.0720082
0.0720648
0.0726959
0.0722256
0.0480302
0.214577
-0.0803833
0.00403353
0.0801834
-0.0242866
0.103802
0.104056
0.10352
0.103527
0.103561
0.103583
0.103602
0.10367
0.103689
0.103696
0.103703
0.103751
0.103766
0.103778
0.103778
0.103806
0.103811
0.10478
0.104567
0.120679
-0.0125612
-0.017936
-0.0153443
-0.0165579
-0.0172132
-0.0172107
-0.0172528
-0.0176611
-0.0175688
-0.0181755
-0.017972
-0.0181141
-0.0180085
-0.018008
-0.0180405
-0.0180481
-0.0180493
-0.0180082
-0.0180178
-0.0179755
-0.0179537
-0.0179286
-0.0180429
-0.0180507
0.00357187
0.00495972
0.00585387
-0.166299
-0.204545
1.02863
0.0200061
0.0266986
0.0258721
0.0259681
0.0260393
0.0260924
0.0261726
0.0262825
0.0263328
0.0264271
0.0265037
0.0265084
0.0265815
0.02662
0.0266686
0.026742
0.0267568
0.0216855
0.0199449
0.0213018
0.0876619
0.0944441
0.0994954
0.0926979
0.0903902
0.089592
0.0897699
0.0897212
0.0898443
0.0892646
0.0895406
0.0893567
0.089469
0.0895358
0.0895209
0.0895147
0.0895851
0.0896419
0.0896955
0.0897631
0.0897939
0.0898564
0.0899019
0.0904915
0.0917703
0.0608382
0.2198
-0.191778
-0.15361
0.00947614
-0.104084
0.00630663
0.00660322
0.00590066
0.00598816
0.0060098
0.00601966
0.00604278
0.00605664
0.00609557
0.00613694
0.00613758
0.00616096
0.00612325
0.00616114
0.00616966
0.00620479
0.00622678
0.00539119
0.00549252
-0.000713059
-0.0038247
-0.00693623
-0.00536362
-0.00546681
-0.00691866
-0.0069298
-0.00694856
-0.00702555
-0.00723328
-0.00730872
-0.00743567
-0.00742037
-0.00736856
-0.00737933
-0.00740927
-0.00736203
-0.00735476
-0.00734421
-0.00730843
-0.00727473
-0.00720402
-0.00719882
-0.00604776
-0.00614925
0.00103949
-0.000165578
0.0966275
-0.0323277
-0.52961
0.935042
0.104654
0.108762
0.108074
0.108108
0.108153
0.108127
0.108211
0.10826
0.108313
0.108345
0.108384
0.108424
0.108429
0.108482
0.10854
0.10855
0.108601
0.107019
0.105948
0.109234
0.117454
0.120194
0.12269
0.121119
0.108524
0.107711
0.108055
0.108031
0.108202
0.107623
0.107836
0.107722
0.107872
0.107869
0.107872
0.107907
0.107955
0.108003
0.10801
0.108101
0.108115
0.108182
0.10823
0.108487
0.112104
0.075842
0.205535
-0.201517
-0.216019
-0.00355068
-0.102993
-0.0298852
-0.0299424
-0.0305728
-0.0304582
-0.0304175
-0.0304105
-0.0303989
-0.0303668
-0.0303707
-0.0303025
-0.0303169
-0.0302734
-0.030319
-0.030286
-0.0302856
-0.0302965
-0.0302503
-0.0316899
-0.0306183
-0.0508452
-0.0552446
-0.0557854
-0.0555252
-0.0543375
-0.0563475
-0.056308
-0.0563874
-0.0561539
-0.0566173
-0.0562711
-0.0564216
-0.0563475
-0.0563265
-0.0563714
-0.0563744
-0.0563635
-0.0563493
-0.056299
-0.0562793
-0.0562654
-0.056226
-0.0561843
-0.0539391
-0.0540621
-0.0663248
-0.0744837
0.0606461
0.0111157
-0.804768
0.607873
0.0351801
0.0347543
0.0343311
0.0343232
0.0343597
0.0343755
0.0344099
0.0344513
0.0344589
0.0345034
0.0345068
0.0345567
0.0345237
0.0345575
0.0345543
0.0345999
0.0346201
0.0357146
0.04422
0.0391821
0.053678
0.053629
0.0528602
0.0579094
0.0357549
0.0352536
0.0357338
0.0357928
0.0357683
0.0360697
0.0359534
0.0360214
0.0360491
0.0360346
0.036033
0.0360672
0.0361114
0.0361639
0.0362194
0.0362261
0.036302
0.0363618
0.0363975
0.0360466
0.0416255
0.0110165
0.11431
-0.154493
-0.215511
0.0109353
-0.0624499
-0.0295498
-0.0299872
-0.0303153
-0.0302421
-0.0301996
-0.0302245
-0.0302136
-0.0302158
-0.0302302
-0.0302154
-0.0302284
-0.0302563
-0.030247
-0.030252
-0.0302611
-0.030299
-0.0302739
-0.0329667
-0.0335506
-0.0570638
-0.0655246
-0.0633737
-0.0648487
-0.062208
-0.0641095
-0.0641173
-0.0641638
-0.0638862
-0.063969
-0.0639062
-0.0640051
-0.0638853
-0.0638935
-0.0639724
-0.0639855
-0.0639667
-0.0639314
-0.0639234
-0.0639261
-0.0639169
-0.0638702
-0.0638549
-0.061247
-0.0614045
-0.0853064
-0.0993007
0.0164093
0.0562059
-0.912159
0.22621
-0.100343
-0.104508
-0.104652
-0.104634
-0.104617
-0.104578
-0.10459
-0.104592
-0.104576
-0.10453
-0.104577
-0.104524
-0.104529
-0.104527
-0.104513
-0.104503
-0.104497
)
;

boundaryField
{
    movingWall
    {
        type            zeroGradient;
    }
    fixedWalls
    {
        type            zeroGradient;
    }
    frontAndBack
    {
        type            empty;
    }
}

