/*--------------------------------*- C++ -*----------------------------------*\
| =========                 |                                                 |
| \\      /  F ield         | OpenFOAM: The Open Source CFD Toolbox           |
|  \\    /   O peration     | Version:  v2006                                 |
|   \\  /    A nd           | Website:  www.openfoam.com                      |
|    \\/     M anipulation  |                                                 |
\*---------------------------------------------------------------------------*/
FoamFile
{
    version     2.0;
    format      ascii;
    class       volScalarField;
    location    "0";
    object      p;
}
// * * * * * * * * * * * * * * * * * * * * * * * * * * * * * * * * * * * * * //

dimensions      [1 -1 -2 0 0 0 0];


internalField   nonuniform List<scalar> 
67500
(
2.42753
1.71072
1.00511
0.701515
0.916231
0.778668
0.782044
0.54089
0.38054
0.459599
0.455776
0.148838
1.56128
1.60341
1.09298
1.17147
1.61566
2.19005
0.978909
0.0548315
0.784257
1.52705
0.319937
-0.142195
0.300262
0.555897
1.14903
2.06746
2.92878
3.29906
3.14355
2.49591
1.71301
1.18303
0.922338
0.787403
0.717836
0.678215
0.650121
0.610408
0.562182
0.52784
0.523693
0.554316
0.611978
0.676552
0.726253
0.74929
0.743608
0.711566
0.660264
0.599139
0.536485
0.47928
0.434883
0.411065
0.413017
0.443116
0.501436
0.58789
0.707042
0.82287
0.813828
0.746098
0.677961
0.614157
0.560842
0.524197
0.506106
0.504968
0.516132
0.532757
0.547412
0.553993
0.549392
0.534332
0.513048
0.491618
0.475607
0.468704
0.472861
0.489522
0.520125
0.566207
0.6304
0.71628
0.823938
0.910495
0.883842
0.802768
0.738997
0.690714
0.653899
0.629584
0.615958
0.611718
0.616345
0.629381
0.650992
0.682423
0.726005
0.784306
0.858522
0.946772
1.04134
1.11653
1.13237
1.10144
1.06917
1.05268
1.05537
1.08048
1.12732
1.19114
1.26281
1.32538
1.36229
1.38221
1.40728
1.44559
1.49583
1.55423
1.61276
1.66276
1.70481
1.748
1.79748
1.85172
1.90691
1.95937
2.00844
2.05622
2.10345
2.14872
2.19041
2.22795
2.26154
2.2911
2.31618
2.33659
2.35255
2.36431
2.37208
2.37619
2.37716
2.37548
2.37157
2.36571
2.35801
2.3484
2.33664
2.32243
2.30546
2.28544
2.26217
2.23551
2.20543
2.17196
2.13518
2.09525
2.05237
2.00675
1.95868
1.90842
1.85627
1.80255
1.74757
1.69164
1.63507
1.57815
1.52115
1.46432
1.4079
1.35207
1.29702
1.24289
1.18982
1.13792
1.08728
1.03799
0.990107
0.94369
0.898782
0.85542
0.813627
0.773422
0.734812
0.697799
0.662377
0.628532
0.596244
0.565489
0.536234
0.508444
0.482075
0.457082
0.433415
0.41102
0.389841
0.369819
0.350897
0.333013
0.316109
0.300127
0.28501
0.270705
0.25716
0.244326
0.232158
0.220614
0.209653
0.19924
0.189341
0.179924
0.170962
0.162428
0.154298
0.146548
0.13916
0.132112
0.125388
0.118971
0.112845
0.106997
0.101412
0.0960786
0.0909854
0.0861217
0.0814772
0.0770428
0.0728096
0.0687691
0.0649135
0.0612349
0.057726
0.0543796
0.0511883
0.0481452
0.0452434
0.0424758
0.0398356
0.0373162
0.0349109
0.0326131
0.0304167
0.0283155
0.0263037
0.0243759
0.0225269
0.0207517
0.019046
0.0174055
0.0158264
0.0143054
0.0128393
0.0114253
0.0100609
0.00874391
0.00747225
0.00624417
0.00505806
0.0039125
0.00280619
0.00173796
0.000706731
-0.000288506
-0.00124868
-0.0021747
-0.00306741
-0.00392765
-0.00475625
-0.00555404
-0.00632183
-0.00706045
-0.00777076
-0.00845361
-0.00910988
-0.00974045
-0.0103462
-0.0109282
-0.0114871
-0.0120242
-0.0125402
-0.0130361
-0.013513
-0.0139718
-0.0144134
-0.0148389
-0.0152491
-0.015645
-0.0160275
-0.0163974
-0.0167557
-0.0171031
-0.0174405
-0.0177686
-0.0180881
-0.0183997
-0.0187041
-0.0190017
-0.0192932
-0.019579
-0.0198595
-0.0201353
-0.0204065
-0.0206735
-0.0209365
-0.0211958
-0.0214514
-0.0217035
-0.0219521
-0.0221973
-0.0224388
-0.0226768
-0.0229111
-0.0231414
-0.0233677
-0.0235896
-0.023807
-0.0240195
-0.0242267
-0.0244285
-0.0246244
-0.024814
-0.0249969
-0.0251728
-0.0253413
-0.0255019
-0.0256542
-0.0257978
-0.0259322
-0.0260572
-0.0261723
-0.026277
-0.026371
-0.0264539
-0.0265254
-0.0265849
-0.0266323
-0.0266671
-0.026689
-0.0266977
-0.026693
-0.0266744
-0.0266419
-0.0265952
-0.0265341
-0.0264586
-0.0263686
-0.026264
-0.026145
-0.0260117
-0.0258642
-0.0257028
-0.0255278
-0.0253397
-0.0251389
-0.0249261
-0.0247017
-0.0244667
-0.0242217
-0.0239677
-0.0237057
-0.0234366
-0.0231616
-0.0228817
-0.0225982
-0.022312
-0.0220243
-0.0217361
-0.0214481
-0.0211613
-0.020876
-0.0205929
-0.0203119
-0.0200333
-0.0197568
-0.0194822
-0.0192093
-0.0189375
-0.0186664
-0.0183956
-0.0181246
-0.017853
-0.0175806
-0.0173071
-0.0170322
-0.016756
-0.0164783
-0.0161993
-0.015919
-0.0156376
-0.0153551
-0.0150719
-0.0147881
-0.0145039
-0.0142195
-0.0139351
-0.0136509
-0.0133671
-0.0130838
-0.0128011
-0.0125192
-0.0122381
-0.0119579
-0.0116787
-0.0114005
-0.0111234
-0.0108474
-0.0105725
-0.0102986
-0.0100259
-0.00975416
-0.00948351
-0.00921388
-0.00894524
-0.00867756
-0.00841082
-0.00814496
-0.00787997
-0.0076158
-0.00735242
-0.00708978
-0.00682787
-0.00656663
-0.00630603
-0.00604605
-0.00578664
-0.00552778
-0.00526943
-0.00501157
-0.00475416
-0.00449718
-0.0042406
-0.0039844
-0.00372855
-0.00347302
-0.0032178
-0.00296285
-0.00270817
-0.00245372
-0.00219948
-0.00194545
-0.00169156
-0.00143794
-0.00118406
-0.000931555
-0.000674101
-0.000429556
-0.000114494
2.04971
0.646497
-0.353179
0.347347
0.38781
0.526868
-0.085377
-0.0697458
-0.0753706
-0.0638795
-0.0478705
-0.0231988
0.506602
0.0326271
-0.311042
-0.281635
-0.256719
-0.268417
-1.22977
-2.36664
-1.76501
-0.549839
0.137425
0.571344
1.44573
1.93441
1.49147
1.73657
2.77153
3.36019
3.15516
2.22216
1.23398
0.79233
0.604727
0.559778
0.62873
0.766293
0.843414
0.817818
0.748366
0.689574
0.65369
0.636942
0.631628
0.624607
0.606362
0.575545
0.533751
0.486827
0.444267
0.412429
0.389967
0.373301
0.362325
0.36077
0.373013
0.404257
0.461231
0.5528
0.718251
0.916697
0.820645
0.730034
0.673257
0.622277
0.578506
0.544846
0.522717
0.512239
0.511025
0.514712
0.518398
0.518184
0.512156
0.500233
0.483697
0.464709
0.445632
0.428928
0.417115
0.412558
0.418171
0.438191
0.476936
0.541066
0.660918
0.820514
0.755882
0.631936
0.567113
0.532071
0.511176
0.501674
0.500093
0.505166
0.516813
0.534838
0.559229
0.591523
0.63579
0.697156
0.779172
0.881827
1.0037
1.11281
1.11594
1.05123
1.00196
0.975377
0.969428
0.989197
1.03437
1.10151
1.18379
1.25852
1.29107
1.29841
1.31891
1.35951
1.41646
1.48515
1.55329
1.60518
1.64262
1.68322
1.73399
1.79135
1.84979
1.90342
1.95198
2.00025
2.04952
2.09727
2.14098
2.18001
2.21517
2.24652
2.27321
2.29495
2.3122
2.32527
2.33425
2.33947
2.34156
2.34109
2.33852
2.33416
2.32815
2.32034
2.31042
2.29804
2.28283
2.26446
2.24272
2.21748
2.18869
2.15639
2.1207
2.08176
2.03979
1.99502
1.94771
1.89815
1.84664
1.7935
1.73904
1.6836
1.62746
1.57095
1.51433
1.45786
1.40177
1.34626
1.29151
1.23766
1.18486
1.13321
1.0828
1.03373
0.986051
0.939827
0.895101
0.85191
0.81028
0.770229
0.731766
0.694894
0.659606
0.625891
0.59373
0.563097
0.533962
0.506288
0.480034
0.455153
0.431596
0.409308
0.388233
0.368312
0.349487
0.331696
0.314881
0.298984
0.283946
0.269716
0.25624
0.24347
0.231362
0.219872
0.208962
0.198595
0.188738
0.179361
0.170435
0.161934
0.153834
0.146112
0.13875
0.131726
0.125024
0.118627
0.11252
0.106689
0.101121
0.0958027
0.0907236
0.0858728
0.0812405
0.0768174
0.0725948
0.0685644
0.0647183
0.0610489
0.0575489
0.0542109
0.051028
0.0479931
0.0450992
0.0423394
0.0397069
0.0371949
0.0347968
0.032506
0.0303163
0.0282214
0.0262157
0.0242936
0.0224498
0.0206796
0.0189783
0.017342
0.0157667
0.014249
0.012786
0.0113747
0.0100127
0.00869786
0.00742812
0.00620174
0.00501716
0.00387296
0.00276789
0.00170078
0.000670585
-0.000323684
-0.00128295
-0.00220809
-0.00309995
-0.00395936
-0.00478714
-0.00558409
-0.00635105
-0.00708883
-0.00779828
-0.00848026
-0.00913563
-0.0097653
-0.0103702
-0.0109511
-0.0115092
-0.0120453
-0.0125603
-0.0130553
-0.0135312
-0.013989
-0.0144297
-0.0148542
-0.0152635
-0.0156585
-0.0160401
-0.0164091
-0.0167666
-0.0171133
-0.0174499
-0.0177773
-0.0180961
-0.0184071
-0.0187108
-0.0190079
-0.0192989
-0.0195843
-0.0198644
-0.0201398
-0.0204108
-0.0206775
-0.0209404
-0.0211995
-0.021455
-0.0217071
-0.0219557
-0.0222008
-0.0224425
-0.0226806
-0.022915
-0.0231456
-0.0233721
-0.0235943
-0.0238119
-0.0240247
-0.0242323
-0.0244344
-0.0246307
-0.0248207
-0.025004
-0.0251803
-0.0253492
-0.0255102
-0.0256629
-0.0258069
-0.0259418
-0.0260671
-0.0261826
-0.0262877
-0.0263821
-0.0264653
-0.0265371
-0.0265971
-0.0266448
-0.0266799
-0.0267021
-0.0267111
-0.0267066
-0.0266883
-0.0266559
-0.0266094
-0.0265484
-0.0264729
-0.0263828
-0.0262782
-0.026159
-0.0260253
-0.0258774
-0.0257155
-0.02554
-0.0253512
-0.0251497
-0.0249361
-0.0247109
-0.0244749
-0.024229
-0.0239741
-0.0237111
-0.0234411
-0.0231652
-0.0228846
-0.0226004
-0.0223136
-0.0220255
-0.021737
-0.021449
-0.0211623
-0.0208773
-0.0205945
-0.0203141
-0.020036
-0.0197602
-0.0194863
-0.019214
-0.0189427
-0.0186721
-0.0184016
-0.0181308
-0.0178592
-0.0175867
-0.017313
-0.0170378
-0.0167612
-0.0164831
-0.0162035
-0.0159227
-0.0156407
-0.0153577
-0.015074
-0.0147897
-0.014505
-0.0142202
-0.0139355
-0.013651
-0.0133668
-0.0130833
-0.0128004
-0.0125183
-0.012237
-0.0119567
-0.0116775
-0.0113992
-0.0111221
-0.010846
-0.0105711
-0.0102973
-0.0100245
-0.00975283
-0.0094822
-0.0092126
-0.00894399
-0.00867636
-0.00840965
-0.00814384
-0.00787889
-0.00761476
-0.00735142
-0.00708883
-0.00682695
-0.00656575
-0.0063052
-0.00604525
-0.00578588
-0.00552705
-0.00526874
-0.00501091
-0.00475354
-0.00449659
-0.00424004
-0.00398387
-0.00372804
-0.00347254
-0.00321735
-0.00296243
-0.00270776
-0.00245334
-0.00219912
-0.00194511
-0.00169125
-0.00143765
-0.0011838
-0.000931304
-0.000673874
-0.00042935
-0.000114402
3.34621
3.0813
0.707793
0.257716
0.264859
0.134091
-0.0488408
-0.106428
-0.1118
-0.113579
-0.095584
-0.0384434
-0.00680057
-0.0826745
-0.108359
-0.10711
-0.0468784
-0.00538523
0.00615691
-1.23483
-1.2206
-0.337198
1.20111
1.75864
1.15837
1.44568
2.09427
2.89102
3.89859
4.53816
3.65392
1.73452
-0.231472
0.00694648
0.145452
0.17433
0.211688
0.296
0.341473
0.327153
0.308806
0.310719
0.322185
0.334537
0.339439
0.325843
0.299062
0.275912
0.262544
0.255848
0.253141
0.253668
0.255574
0.257067
0.258051
0.257924
0.255859
0.253932
0.259497
0.284411
0.410567
0.891659
0.556773
0.377799
0.306553
0.267022
0.250787
0.253202
0.266865
0.285443
0.303072
0.313524
0.310562
0.290114
0.253327
0.207231
0.163111
0.132255
0.120854
0.129769
0.155615
0.19265
0.237764
0.298232
0.386759
0.510005
0.754248
1.20702
0.935717
0.744327
0.667575
0.596234
0.539771
0.500145
0.470654
0.449876
0.43731
0.433215
0.436622
0.447165
0.467225
0.501899
0.557043
0.639352
0.783374
0.990884
0.958748
0.817595
0.739355
0.708315
0.709702
0.747388
0.819485
0.923505
1.05778
1.18512
1.20256
1.16989
1.17482
1.21031
1.26838
1.34849
1.4317
1.48115
1.5023
1.53655
1.59258
1.66126
1.73221
1.79113
1.83908
1.88922
1.94368
1.99689
2.04404
2.08494
2.12265
2.1574
2.18718
2.21151
2.23142
2.24731
2.25878
2.26615
2.27041
2.27229
2.27232
2.27098
2.26839
2.26424
2.25809
2.24943
2.23777
2.22272
2.20405
2.18162
2.1554
2.12546
2.09192
2.05496
2.01481
1.97171
1.92593
1.87777
1.82753
1.77553
1.72212
1.66762
1.61236
1.55665
1.50078
1.44502
1.38959
1.3347
1.28054
1.22726
1.17498
1.12383
1.07389
1.02525
0.977981
0.93214
0.887774
0.844923
0.803614
0.763868
0.725696
0.689102
0.654083
0.620626
0.588715
0.558326
0.529429
0.501988
0.475961
0.451304
0.427966
0.405892
0.385026
0.365309
0.34668
0.329079
0.312444
0.296719
0.281844
0.267766
0.254432
0.241795
0.229809
0.218432
0.207625
0.197353
0.187583
0.178285
0.169431
0.160996
0.152956
0.14529
0.137978
0.131001
0.124341
0.117983
0.111911
0.106113
0.100574
0.0952836
0.0902297
0.0854023
0.0807916
0.0763888
0.0721851
0.0681727
0.0643437
0.0606908
0.0572067
0.0538843
0.0507167
0.0476968
0.0448177
0.0420725
0.0394544
0.0369565
0.0345721
0.0322946
0.0301176
0.028035
0.0260408
0.0241296
0.022296
0.0205352
0.0188426
0.0172142
0.0156462
0.0141351
0.0126779
0.011272
0.00991476
0.00860416
0.00733824
0.0061153
0.00493381
0.00379242
0.0026899
0.00162515
0.00059713
-0.000395097
-0.00135243
-0.00227571
-0.00316577
-0.00402342
-0.00484946
-0.00564468
-0.0064099
-0.00714593
-0.00785361
-0.00853378
-0.00918734
-0.00981515
-0.0104181
-0.0109972
-0.0115533
-0.0120875
-0.0126006
-0.0130936
-0.0135676
-0.0140234
-0.0144622
-0.0148848
-0.0152922
-0.0156854
-0.0160652
-0.0164326
-0.0167884
-0.0171335
-0.0174686
-0.0177945
-0.018112
-0.0184217
-0.0187243
-0.0190203
-0.0193103
-0.0195948
-0.0198742
-0.0201489
-0.0204193
-0.0206855
-0.020948
-0.0212069
-0.0214622
-0.0217141
-0.0219627
-0.022208
-0.0224498
-0.0226882
-0.0229229
-0.0231538
-0.0233808
-0.0236035
-0.0238217
-0.0240352
-0.0242435
-0.0244463
-0.0246433
-0.0248341
-0.0250182
-0.0251954
-0.0253651
-0.0255269
-0.0256804
-0.0258253
-0.025961
-0.0260872
-0.0262034
-0.0263093
-0.0264045
-0.0264885
-0.0265611
-0.0266217
-0.0266701
-0.0267059
-0.0267288
-0.0267384
-0.0267344
-0.0267165
-0.0266846
-0.0266384
-0.0265777
-0.0265024
-0.0264124
-0.0263078
-0.0261885
-0.0260547
-0.0259066
-0.0257444
-0.0255684
-0.025379
-0.0251767
-0.024962
-0.0247356
-0.0244982
-0.0242506
-0.0239937
-0.0237285
-0.0234559
-0.0231773
-0.0228937
-0.0226063
-0.0223164
-0.0220251
-0.0217335
-0.0214427
-0.0211534
-0.0208663
-0.0205817
-0.0203
-0.0200212
-0.019745
-0.0194712
-0.0191993
-0.0189288
-0.0186591
-0.0183897
-0.0181201
-0.0178499
-0.0175786
-0.017306
-0.0170319
-0.0167562
-0.0164789
-0.0162001
-0.0159198
-0.0156383
-0.0153557
-0.0150722
-0.0147881
-0.0145035
-0.0142188
-0.0139341
-0.0136496
-0.0133654
-0.0130818
-0.0127989
-0.0125168
-0.0122355
-0.0119552
-0.0116759
-0.0113977
-0.0111205
-0.0108445
-0.0105695
-0.0102957
-0.010023
-0.00975136
-0.00948077
-0.00921122
-0.00894267
-0.00867508
-0.00840843
-0.00814268
-0.00787779
-0.00761372
-0.00735044
-0.00708791
-0.00682609
-0.00656495
-0.00630444
-0.00604455
-0.00578523
-0.00552646
-0.0052682
-0.00501042
-0.00475309
-0.00449619
-0.00423968
-0.00398355
-0.00372777
-0.00347231
-0.00321715
-0.00296226
-0.00270764
-0.00245324
-0.00219906
-0.00194509
-0.00169126
-0.00143769
-0.00118386
-0.000931402
-0.00067401
-0.00042948
-0.000114602
3.0931
1.43587
0.475385
0.327813
0.289605
0.154951
-0.0216608
-0.153568
-0.182781
-0.189651
-0.164739
-0.072709
0.0102219
0.0270934
0.0184725
0.00839417
0.0215708
0.0388696
-0.29622
0.0531263
-0.490277
0.329204
1.0728
1.87567
1.17434
0.595658
0.715109
2.4467
5.11333
8.5264
8.17092
3.72554
0.223144
0.277428
0.259294
0.243969
0.253055
0.280791
0.306677
0.322049
0.327172
0.325899
0.321396
0.315719
0.309997
0.30429
0.297589
0.288953
0.279496
0.271246
0.265793
0.263182
0.262042
0.2609
0.258991
0.256419
0.254019
0.253483
0.258387
0.273977
0.293302
0.258205
0.154581
0.172293
0.182482
0.18449
0.18237
0.178436
0.174262
0.170612
0.167633
0.165244
0.163355
0.161875
0.160788
0.160282
0.160598
0.161666
0.162974
0.164059
0.165041
0.166098
0.167322
0.17063
0.181787
0.212364
0.310426
1.5835
0.618825
0.185469
0.171404
0.179435
0.176441
0.178459
0.183035
0.189015
0.192018
0.193259
0.190341
0.191339
0.207967
0.261574
0.360928
0.501098
0.80549
1.36469
1.06523
0.79702
0.712719
0.645019
0.598383
0.588028
0.611763
0.670952
0.807223
1.03216
0.988278
0.859685
0.840674
0.890998
0.986227
1.12481
1.27361
1.32459
1.30756
1.33222
1.39547
1.47693
1.56472
1.62409
1.66168
1.71167
1.7757
1.84112
1.89577
1.9399
1.9828
2.02435
2.05926
2.08691
2.11049
2.13058
2.14557
2.15583
2.16315
2.16846
2.17235
2.17557
2.17826
2.17978
2.17944
2.17651
2.17027
2.16025
2.14618
2.12795
2.10557
2.07914
2.04881
2.01481
1.97738
1.93678
1.8933
1.84724
1.7989
1.74862
1.69677
1.64368
1.58972
1.53522
1.48047
1.42576
1.37132
1.31738
1.26411
1.21167
1.16018
1.10977
1.06053
1.01255
0.965892
0.920624
0.876798
0.834455
0.793627
0.754337
0.7166
0.680423
0.645803
0.612733
0.581197
0.551173
0.522631
0.495538
0.469854
0.445531
0.422521
0.400769
0.380215
0.360801
0.342465
0.325143
0.308776
0.293303
0.278666
0.26481
0.251683
0.239237
0.227428
0.216214
0.205557
0.195423
0.185779
0.176597
0.16785
0.159513
0.151564
0.143982
0.136747
0.129841
0.123247
0.116951
0.110936
0.10519
0.0997007
0.0944552
0.0894433
0.0846549
0.0800806
0.0757117
0.07154
0.0675577
0.0637574
0.060132
0.0566744
0.0533778
0.0502352
0.0472399
0.0443849
0.0416634
0.0390684
0.036593
0.0342305
0.0319741
0.0298175
0.0277542
0.0257784
0.0238843
0.0220667
0.0203207
0.0186417
0.0170256
0.0154687
0.0139677
0.0125196
0.0111217
0.00977161
0.00846735
0.00720704
0.00598909
0.00481204
0.00367462
0.00257569
0.0015142
0.000489187
-0.000500232
-0.0014549
-0.00237564
-0.00326322
-0.00411842
-0.00494202
-0.0057348
-0.00649755
-0.00723107
-0.00793619
-0.00861376
-0.00926464
-0.00988974
-0.0104899
-0.0110662
-0.0116195
-0.0121507
-0.0126609
-0.013151
-0.0136221
-0.014075
-0.0145109
-0.0149307
-0.0153353
-0.0157257
-0.0161029
-0.0164677
-0.016821
-0.0171637
-0.0174965
-0.0178203
-0.0181358
-0.0184436
-0.0187444
-0.0190388
-0.0193273
-0.0196105
-0.0198887
-0.0201624
-0.0204319
-0.0206974
-0.0209593
-0.0212178
-0.0214728
-0.0217246
-0.0219732
-0.0222186
-0.0224607
-0.0226994
-0.0229346
-0.0231662
-0.0233938
-0.0236173
-0.0238364
-0.0240508
-0.0242602
-0.0244641
-0.0246622
-0.0248541
-0.0250395
-0.0252178
-0.0253887
-0.0255518
-0.0257065
-0.0258526
-0.0259895
-0.0261169
-0.0262343
-0.0263413
-0.0264376
-0.0265227
-0.0265963
-0.026658
-0.0267074
-0.0267442
-0.026768
-0.0267784
-0.0267752
-0.0267581
-0.0267267
-0.0266809
-0.0266205
-0.0265453
-0.0264551
-0.0263501
-0.0262301
-0.0260954
-0.0259461
-0.0257823
-0.0256045
-0.0254131
-0.0252086
-0.0249914
-0.0247624
-0.0245223
-0.0242719
-0.0240122
-0.0237442
-0.0234691
-0.023188
-0.0229021
-0.0226129
-0.0223214
-0.0220291
-0.021737
-0.0214462
-0.0211574
-0.0208713
-0.0205882
-0.0203083
-0.0200315
-0.0197575
-0.0194858
-0.0192159
-0.0189471
-0.0186787
-0.0184102
-0.018141
-0.0178707
-0.017599
-0.0173255
-0.0170503
-0.0167731
-0.0164943
-0.0162137
-0.0159316
-0.0156483
-0.0153639
-0.0150787
-0.014793
-0.014507
-0.014221
-0.0139351
-0.0136495
-0.0133645
-0.0130801
-0.0127965
-0.0125139
-0.0122322
-0.0119515
-0.011672
-0.0113936
-0.0111163
-0.0108402
-0.0105653
-0.0102915
-0.0100188
-0.0097472
-0.0094767
-0.00920725
-0.00893881
-0.00867135
-0.00840482
-0.0081392
-0.00787444
-0.0076105
-0.00734735
-0.00708495
-0.00682326
-0.00656224
-0.00630186
-0.00604208
-0.00578288
-0.00552421
-0.00526606
-0.00500838
-0.00475115
-0.00449434
-0.00423793
-0.00398189
-0.00372619
-0.00347081
-0.00321573
-0.00296092
-0.00270636
-0.00245204
-0.00219793
-0.00194403
-0.00169026
-0.00143676
-0.001183
-0.000930595
-0.000673274
-0.000428814
-0.00011429
2.23096
0.282055
0.381094
0.362397
0.32145
0.18146
-0.0496994
-0.262187
-0.226748
-0.200846
-0.170366
-0.0567509
0.0399969
0.0397912
-0.0291881
-0.0822169
-0.106769
-0.0814287
-0.367947
-0.844731
1.01628
1.90532
0.459065
0.248672
0.192325
0.157038
0.142359
0.675995
2.07387
1.71612
0.587703
0.356808
0.2369
0.205547
0.187368
0.196845
0.241047
0.279934
0.305419
0.319623
0.324937
0.325062
0.322193
0.317499
0.311441
0.304083
0.295354
0.285585
0.275779
0.268178
0.263916
0.26232
0.261537
0.260327
0.25812
0.255133
0.25208
0.249776
0.249221
0.250777
0.252434
0.242966
0.220466
0.208264
0.200044
0.193307
0.187392
0.182196
0.177832
0.174391
0.171825
0.170031
0.168933
0.168396
0.168231
0.168362
0.16885
0.169567
0.170246
0.170851
0.171674
0.173006
0.17449
0.176148
0.182195
0.201057
0.235054
0.22782
0.0729933
0.117467
0.139516
0.149217
0.153232
0.154555
0.154658
0.15486
0.156413
0.158104
0.157309
0.156483
0.154834
0.158026
0.168765
0.199711
0.282646
1.81242
0.883037
0.170309
0.0531871
0.0189265
0.00863662
0.05453
0.179108
0.367879
0.702163
1.31247
0.979893
0.754284
0.74152
0.736846
0.775813
0.901003
1.12478
1.11527
0.982066
0.974892
1.05899
1.19183
1.34618
1.41006
1.4244
1.47944
1.56093
1.64431
1.70318
1.74331
1.79064
1.84247
1.88512
1.91716
1.94712
1.97494
1.99519
2.00872
2.01961
2.02905
2.0377
2.04711
2.05727
2.06679
2.07458
2.07958
2.08072
2.07742
2.0695
2.05684
2.03952
2.0177
1.99161
1.96151
1.9277
1.89044
1.85003
1.80676
1.76095
1.71295
1.66315
1.61194
1.55969
1.50676
1.45349
1.40018
1.34706
1.29437
1.24229
1.19097
1.14054
1.09112
1.04281
0.995691
0.949844
0.905335
0.86222
0.820548
0.780355
0.741669
0.704508
0.668882
0.634793
0.602235
0.571196
0.541656
0.513588
0.486959
0.46173
0.437855
0.415286
0.393965
0.373834
0.354831
0.336893
0.319956
0.303955
0.28883
0.274521
0.260972
0.248132
0.235952
0.224387
0.213397
0.202946
0.192999
0.183525
0.174499
0.165893
0.157685
0.149854
0.142379
0.135242
0.128425
0.121914
0.115692
0.109746
0.104063
0.0986305
0.0934379
0.0884744
0.0837307
0.0791978
0.0748674
0.0707318
0.0667838
0.0630162
0.0594224
0.0559956
0.0527292
0.0496164
0.0466506
0.0438249
0.0411323
0.0385658
0.0361185
0.0337834
0.0315537
0.0294226
0.0273838
0.0254311
0.0235588
0.0217615
0.0200342
0.0183725
0.0167722
0.0152296
0.0137415
0.012305
0.0109175
0.00957681
0.00828091
0.00702809
0.00581686
0.00464587
0.00351394
0.00242001
0.00136313
0.000342397
-0.000643004
-0.00159386
-0.00251093
-0.00339495
-0.00424666
-0.0050668
-0.00585613
-0.00661541
-0.00734543
-0.00804701
-0.00872098
-0.00936821
-0.00998958
-0.010586
-0.0111585
-0.0117079
-0.0122352
-0.0127415
-0.0132276
-0.0136948
-0.0141438
-0.0145758
-0.0149918
-0.0153926
-0.0157794
-0.016153
-0.0165143
-0.0168643
-0.0172038
-0.0175336
-0.0178545
-0.0181672
-0.0184725
-0.018771
-0.0190632
-0.0193498
-0.0196312
-0.0199078
-0.0201801
-0.0204485
-0.0207131
-0.0209742
-0.0212321
-0.0214868
-0.0217384
-0.021987
-0.0222325
-0.0224749
-0.0227142
-0.0229501
-0.0231824
-0.023411
-0.0236356
-0.0238559
-0.0240716
-0.0242823
-0.0244877
-0.0246874
-0.0248809
-0.0250679
-0.0252479
-0.0254205
-0.0255853
-0.0257417
-0.0258895
-0.0260281
-0.0261571
-0.0262762
-0.0263848
-0.0264827
-0.0265694
-0.0266445
-0.0267077
-0.0267585
-0.0267967
-0.0268218
-0.0268334
-0.0268313
-0.0268152
-0.0267847
-0.0267397
-0.0266799
-0.0266052
-0.0265154
-0.0264106
-0.0262907
-0.0261558
-0.0260062
-0.0258419
-0.0256634
-0.0254709
-0.0252649
-0.0250459
-0.0248145
-0.0245715
-0.0243175
-0.0240536
-0.0237807
-0.0234999
-0.0232127
-0.0229202
-0.0226238
-0.0223252
-0.0220257
-0.0217266
-0.0214293
-0.0211347
-0.0208437
-0.0205568
-0.0202741
-0.0199957
-0.019721
-0.0194497
-0.0191809
-0.018914
-0.018648
-0.0183822
-0.0181159
-0.0178486
-0.0175797
-0.017309
-0.0170363
-0.0167614
-0.0164844
-0.0162055
-0.0159248
-0.0156426
-0.0153591
-0.0150746
-0.0147894
-0.0145037
-0.0142179
-0.0139322
-0.0136467
-0.0133617
-0.0130773
-0.0127937
-0.012511
-0.0122293
-0.0119486
-0.011669
-0.0113906
-0.0111133
-0.0108373
-0.0105623
-0.0102886
-0.010016
-0.00974448
-0.00947406
-0.0092047
-0.00893636
-0.00866901
-0.00840259
-0.00813708
-0.00787244
-0.00760862
-0.00734558
-0.00708329
-0.00682171
-0.0065608
-0.00630053
-0.00604086
-0.00578176
-0.0055232
-0.00526514
-0.00500755
-0.00475041
-0.00449369
-0.00423736
-0.0039814
-0.00372578
-0.00347047
-0.00321546
-0.00296073
-0.00270624
-0.00245199
-0.00219794
-0.0019441
-0.0016904
-0.00143696
-0.00118325
-0.000930906
-0.00067366
-0.000429179
-0.000114764
1.90195
0.398154
0.35954
0.344794
0.301867
0.183072
-0.00254718
-0.24031
-0.195602
-0.193516
-0.190494
-0.110511
0.0981482
0.0883868
0.068216
0.555269
1.40256
2.65657
0.979472
0.0863071
0.139903
0.198766
0.244017
0.242162
0.207509
0.175418
0.140892
0.124194
0.218967
0.323046
0.317195
0.300082
0.277384
0.236573
0.203956
0.208922
0.245002
0.277135
0.297866
0.309456
0.314791
0.315817
0.313816
0.309933
0.305009
0.299399
0.293091
0.28604
0.278731
0.272094
0.267097
0.263837
0.261432
0.258861
0.255788
0.252203
0.248407
0.244698
0.241317
0.237668
0.232117
0.222496
0.213366
0.206737
0.200323
0.194135
0.188267
0.182964
0.178464
0.174862
0.172116
0.170153
0.168943
0.16838
0.168296
0.168567
0.169117
0.169769
0.170346
0.170876
0.1714
0.171939
0.172343
0.172643
0.174768
0.181661
0.195297
0.196876
0.172949
0.166243
0.163938
0.163533
0.162744
0.161895
0.161364
0.161248
0.161923
0.162196
0.161601
0.163016
0.165164
0.168667
0.175999
0.198638
0.236246
0.219088
-0.00202491
0.0759151
0.104551
0.116547
0.125457
0.135789
0.153799
0.180648
0.236882
2.08753
0.786716
-0.0405184
-0.0165107
0.0930641
0.272846
0.627024
1.29907
1.02134
0.760109
0.801791
0.849443
0.956876
1.19187
1.18626
1.09846
1.13739
1.2545
1.39571
1.46267
1.49081
1.55202
1.6245
1.67426
1.70428
1.74025
1.77885
1.80511
1.82158
1.83725
1.85222
1.86666
1.88417
1.90447
1.92465
1.9433
1.95882
1.96943
1.97461
1.97433
1.96853
1.95743
1.94129
1.9204
1.89512
1.86581
1.83275
1.79619
1.75642
1.71377
1.6686
1.62134
1.57242
1.52227
1.4713
1.41986
1.36828
1.31681
1.26569
1.2151
1.16519
1.11608
1.0679
1.02075
0.974706
0.929865
0.886298
0.844067
0.803227
0.763821
0.725881
0.689432
0.654489
0.621056
0.589132
0.558708
0.529767
0.502286
0.476233
0.45157
0.428252
0.40623
0.385445
0.365837
0.347341
0.329892
0.313422
0.297866
0.283161
0.269247
0.256067
0.243568
0.231703
0.220429
0.209707
0.199501
0.18978
0.180514
0.171678
0.163248
0.155203
0.147521
0.140185
0.133177
0.12648
0.12008
0.113961
0.108111
0.102517
0.0971669
0.0920505
0.0871577
0.0824796
0.0780077
0.0737342
0.0696521
0.0657545
0.062035
0.0584871
0.0551048
0.0518816
0.0488111
0.0458869
0.043102
0.0404496
0.0379226
0.0355138
0.0332162
0.0310226
0.0289263
0.0269204
0.0249989
0.0231558
0.0213855
0.0196831
0.0180441
0.0164644
0.0149404
0.0134688
0.012047
0.0106726
0.00934333
0.00805753
0.0068136
0.00561021
0.00444616
0.00332041
0.00223205
0.00118022
0.000164153
-0.000816883
-0.00176359
-0.00267665
-0.00355675
-0.00440457
-0.00522081
-0.0060062
-0.00676146
-0.00748738
-0.00818475
-0.00885441
-0.00949721
-0.0101141
-0.0107059
-0.0112736
-0.0118182
-0.0123407
-0.0128421
-0.0133233
-0.0137855
-0.0142297
-0.0146568
-0.015068
-0.0154641
-0.0158463
-0.0162154
-0.0165724
-0.0169181
-0.0172536
-0.0175796
-0.0178969
-0.0182062
-0.0185083
-0.0188038
-0.0190934
-0.0193775
-0.0196566
-0.0199313
-0.020202
-0.0204688
-0.0207322
-0.0209924
-0.0212496
-0.0215038
-0.0217552
-0.0220038
-0.0222496
-0.0224925
-0.0227324
-0.0229691
-0.0232025
-0.0234323
-0.0236583
-0.0238801
-0.0240974
-0.0243098
-0.0245171
-0.0247186
-0.0249141
-0.0251031
-0.0252852
-0.0254598
-0.0256266
-0.0257851
-0.0259348
-0.0260754
-0.0262064
-0.0263274
-0.0264379
-0.0265376
-0.0266261
-0.026703
-0.026768
-0.0268205
-0.0268603
-0.0268869
-0.0269
-0.0268993
-0.0268844
-0.0268549
-0.0268105
-0.0267511
-0.0266764
-0.0265863
-0.0264806
-0.0263594
-0.0262228
-0.0260708
-0.0259038
-0.025722
-0.0255259
-0.025316
-0.0250928
-0.0248571
-0.0246095
-0.0243511
-0.0240827
-0.0238055
-0.0235208
-0.0232298
-0.022934
-0.0226351
-0.0223345
-0.0220338
-0.0217345
-0.0214379
-0.021145
-0.0208565
-0.0205728
-0.0202941
-0.0200198
-0.0197495
-0.0194823
-0.0192172
-0.0189532
-0.0186894
-0.0184249
-0.0181589
-0.017891
-0.0176207
-0.0173478
-0.0170724
-0.0167943
-0.0165139
-0.0162314
-0.0159471
-0.0156612
-0.0153742
-0.0150865
-0.0147982
-0.0145098
-0.0142215
-0.0139336
-0.0136462
-0.0133596
-0.0130738
-0.0127891
-0.0125055
-0.0122231
-0.0119418
-0.0116619
-0.0113832
-0.0111057
-0.0108296
-0.0105547
-0.010281
-0.0100084
-0.00973708
-0.00946683
-0.00919766
-0.00892953
-0.00866239
-0.00839621
-0.00813093
-0.00786652
-0.00760293
-0.00734012
-0.00707806
-0.0068167
-0.00655601
-0.00629594
-0.00603648
-0.00577757
-0.00551919
-0.00526132
-0.00500391
-0.00474694
-0.00449038
-0.00423421
-0.0039784
-0.00372292
-0.00346775
-0.00321288
-0.00295827
-0.00270391
-0.00244978
-0.00219586
-0.00194213
-0.00168854
-0.00143521
-0.00118162
-0.000929376
-0.00067225
-0.000427901
-0.000114122
1.63387
0.373387
0.307576
0.289492
0.241014
0.159144
0.074991
-0.0212877
-0.495653
0.299742
0.129239
0.219547
0.250631
0.178132
0.185234
0.20146
0.225111
0.222553
0.207187
0.222667
0.233135
0.22659
0.226974
0.221281
0.203284
0.184698
0.174292
0.177102
0.20803
0.255939
0.278287
0.282722
0.275931
0.258003
0.242139
0.241306
0.258412
0.278106
0.292831
0.302394
0.307872
0.310052
0.309624
0.307302
0.303613
0.298834
0.293155
0.286855
0.280374
0.274278
0.269105
0.264978
0.261511
0.258215
0.254864
0.251436
0.248041
0.244813
0.241713
0.238161
0.23283
0.224732
0.215636
0.207736
0.20086
0.194784
0.189419
0.184756
0.180792
0.177521
0.174915
0.172923
0.171495
0.170567
0.170045
0.169845
0.16989
0.170098
0.170377
0.170697
0.170996
0.171185
0.171334
0.171546
0.172054
0.173597
0.175755
0.172055
0.168952
0.167956
0.166213
0.164955
0.1637
0.162511
0.161613
0.161031
0.160845
0.16071
0.160435
0.160991
0.162361
0.164495
0.16815
0.175686
0.185157
0.174219
0.140402
0.137215
0.13803
0.139496
0.141625
0.145888
0.15338
0.170899
0.200302
0.179492
0.0171893
0.0904853
0.129266
0.16051
0.196246
0.230371
2.09674
1.01688
-0.0694306
0.00817112
0.23091
0.570499
1.26471
0.995956
0.839502
0.915757
1.01977
1.23153
1.23894
1.18558
1.24435
1.35684
1.41842
1.4384
1.49158
1.55394
1.58427
1.59692
1.61515
1.63458
1.6544
1.68318
1.71818
1.75275
1.78582
1.81491
1.83703
1.85235
1.86122
1.86354
1.85974
1.85022
1.8354
1.81582
1.79191
1.76391
1.73203
1.6965
1.65762
1.61581
1.57154
1.52532
1.47764
1.42896
1.37969
1.33016
1.28067
1.23143
1.18264
1.13442
1.08691
1.04021
0.994434
0.949678
0.906032
0.86358
0.822395
0.782541
0.744068
0.707016
0.671416
0.637286
0.604637
0.573471
0.543783
0.51556
0.488783
0.463423
0.439444
0.416803
0.395449
0.375323
0.356362
0.338499
0.321663
0.305784
0.290793
0.276622
0.26321
0.250497
0.238432
0.226966
0.216057
0.205667
0.195763
0.186315
0.177296
0.168685
0.160458
0.152596
0.145081
0.137897
0.131027
0.124457
0.118171
0.112157
0.106403
0.100896
0.095626
0.0905825
0.0857565
0.0811396
0.0767241
0.0725032
0.0684704
0.0646196
0.060945
0.0574409
0.0541015
0.0509209
0.0478931
0.0450114
0.0422693
0.0396595
0.0371749
0.0348081
0.0325515
0.0303979
0.02834
0.0263709
0.024484
0.0226734
0.0209334
0.019259
0.0176455
0.016089
0.0145859
0.0131333
0.0117285
0.0103692
0.00905351
0.00777983
0.00654676
0.00535311
0.00419785
0.00308007
0.00199899
0.000953882
-5.59288e-05
-0.00103107
-0.00197217
-0.00287983
-0.00375467
-0.00459731
-0.0054084
-0.00618864
-0.00693872
-0.00765939
-0.00835143
-0.00901567
-0.00965296
-0.0102642
-0.0108503
-0.0114122
-0.011951
-0.0124675
-0.012963
-0.0134383
-0.0138945