/*--------------------------------*- C++ -*----------------------------------*\
| =========                 |                                                 |
| \\      /  F ield         | OpenFOAM: The Open Source CFD Toolbox           |
|  \\    /   O peration     | Version:  v2006                                 |
|   \\  /    A nd           | Website:  www.openfoam.com                      |
|    \\/     M anipulation  |                                                 |
\*---------------------------------------------------------------------------*/
FoamFile
{
    version     2.0;
    format      ascii;
    class       volScalarField;
    location    "0";
    object      p;
}
// * * * * * * * * * * * * * * * * * * * * * * * * * * * * * * * * * * * * * //

dimensions      [1 -1 -2 0 0 0 0];


internalField   nonuniform List<scalar> 
67500
(
9.47065
8.78919
11.0853
10.3855
23.5296
9.3662
-12.4332
-23.285
-24.6556
-24.7035
-24.6472
-21.3063
-15.2816
-11.1688
-8.56679
-5.71475
-3.60604
-2.63001
-2.10786
-1.75476
-1.50824
-1.19077
-0.810073
-0.393792
0.0548122
0.538446
1.06998
1.63921
2.21215
2.75069
3.22339
3.61793
3.94681
4.23732
4.515
4.77735
4.96845
4.9953
4.85029
4.63008
4.41672
4.25328
4.15707
4.12741
4.15496
4.23018
4.3462
4.49422
4.65512
4.79039
4.83859
4.75997
4.63076
4.5658
4.59602
4.70123
4.84958
5.00449
5.15248
5.31595
5.51314
5.73638
5.96496
6.17504
6.35141
6.49966
6.63559
6.76566
6.88706
6.99773
7.10038
7.19803
7.28979
7.37363
7.44882
7.51414
7.56723
7.60635
7.63065
7.63938
7.63204
7.60848
7.56866
7.51262
7.44063
7.35322
7.25118
7.13556
7.00762
6.86875
6.7204
6.56402
6.40102
6.23272
6.06031
5.88488
5.7074
5.52875
5.34971
5.171
4.99328
4.81715
4.64315
4.47177
4.30344
4.13852
3.9773
3.82005
3.66694
3.51813
3.37373
3.2338
3.09839
2.96752
2.84118
2.71934
2.60198
2.48904
2.38047
2.27619
2.17613
2.08021
1.98834
1.90043
1.81637
1.73606
1.6594
1.58626
1.51653
1.45008
1.38678
1.32651
1.26913
1.2145
1.1625
1.113
1.06587
1.02098
0.978213
0.937463
0.898623
0.861592
0.826281
0.792605
0.760487
0.729856
0.70065
0.672808
0.646278
0.621009
0.596955
0.574074
0.552325
0.531668
0.512068
0.493488
0.475892
0.459247
0.44352
0.428676
0.414683
0.401508
0.389118
0.37748
0.366561
0.356328
0.346746
0.337782
0.329401
0.321567
0.314246
0.307402
0.300998
0.294999
0.289369
0.28407
0.279068
0.274327
0.269812
0.26549
0.261328
0.257293
0.253357
0.249489
0.245664
0.241856
0.238042
0.234202
0.230317
0.22637
0.222348
0.218239
0.214035
0.209728
0.205315
0.200792
0.196161
0.191423
0.186583
0.181645
0.176618
0.17151
0.166331
0.161091
0.155802
0.150477
0.145126
0.139765
0.134404
0.129056
0.123735
0.118451
0.113217
0.108042
0.102937
0.0979111
0.0929733
0.088131
0.083391
0.0787594
0.0742414
0.0698412
0.0655625
0.0614079
0.0573795
0.0534786
0.0497059
0.0460613
0.0425446
0.0391546
0.0358898
0.0327485
0.0297284
0.026827
0.0240415
0.0213689
0.0188059
0.0163493
0.0139955
0.0117412
0.00958264
0.00751631
0.00553863
0.00364605
0.00183509
0.000102343
-0.00155553
-0.00314175
-0.00465944
-0.00611157
-0.00750099
-0.00883043
-0.0101024
-0.0113194
-0.0124837
-0.0135972
-0.0146621
-0.01568
-0.0166526
-0.0175813
-0.0184675
-0.0193124
-0.020117
-0.0208822
-0.0216088
-0.0222975
-0.0229488
-0.0235632
-0.024141
-0.0246828
-0.0251886
-0.0256588
-0.0260937
-0.0264934
-0.0268582
-0.0271885
-0.0274846
-0.0277469
-0.027976
-0.0281726
-0.0283372
-0.0284708
-0.0285744
-0.0286491
-0.028696
-0.0287165
-0.0287119
-0.0286839
-0.028634
-0.0285637
-0.0284747
-0.0283687
-0.0282472
-0.0281119
-0.0279642
-0.0278056
-0.0276374
-0.0274609
-0.0272773
-0.0270874
-0.0268922
-0.0266925
-0.026489
-0.0262822
-0.0260725
-0.0258602
-0.0256456
-0.0254287
-0.0252096
-0.024988
-0.0247639
-0.0245367
-0.0243063
-0.0240722
-0.023834
-0.0235913
-0.0233438
-0.0230912
-0.0228333
-0.0225702
-0.0223018
-0.0220284
-0.0217504
-0.0214681
-0.0211821
-0.020893
-0.0206015
-0.0203081
-0.0200137
-0.0197189
-0.0194243
-0.0191306
-0.0188384
-0.0185482
-0.0182605
-0.0179757
-0.0176942
-0.0174163
-0.0171422
-0.0168722
-0.0166064
-0.0163449
-0.0160877
-0.015835
-0.0155867
-0.0153429
-0.0151033
-0.0148681
-0.0146371
-0.0144103
-0.0141875
-0.0139686
-0.0137535
-0.0135421
-0.0133343
-0.01313
-0.012929
-0.0127312
-0.0125365
-0.0123448
-0.012156
-0.0119699
-0.0117865
-0.0116056
-0.0114272
-0.0112511
-0.0110772
-0.0109056
-0.0107359
-0.0105683
-0.0104026
-0.0102388
-0.0100767
-0.00991629
-0.00975753
-0.00960034
-0.00944465
-0.00929042
-0.00913758
-0.00898609
-0.0088359
-0.00868695
-0.00853921
-0.00839263
-0.00824716
-0.00810278
-0.00795944
-0.0078171
-0.00767574
-0.00753532
-0.00739581
-0.00725717
-0.00711939
-0.00698244
-0.00684628
-0.00671089
-0.00657625
-0.00644233
-0.00630911
-0.00617658
-0.0060447
-0.00591346
-0.00578285
-0.00565283
-0.0055234
-0.00539453
-0.00526621
-0.00513843
-0.00501115
-0.00488438
-0.00475809
-0.00463227
-0.0045069
-0.00438197
-0.00425746
-0.00413336
-0.00400966
-0.00388635
-0.0037634
-0.00364082
-0.00351858
-0.00339667
-0.00327509
-0.00315382
-0.00303284
-0.00291215
-0.00279173
-0.00267158
-0.00255167
-0.002432
-0.00231256
-0.00219333
-0.00207432
-0.00195549
-0.00183685
-0.00171838
-0.00160007
-0.00148191
-0.00136389
-0.00124599
-0.00112821
-0.00101053
-0.000892953
-0.000775445
-0.000658042
-0.000540582
-0.000423544
-0.000305052
-0.000190384
-5.5008e-05
8.44792
7.55152
6.39852
11.3344
15.7577
-8.10264
-23.0934
-24.3111
-24.2518
-24.1107
-24.0624
-24.6196
-19.1818
-9.87465
-5.52599
-3.63181
-2.67178
-2.12333
-1.81805
-1.70473
-1.73439
-1.42289
-0.991629
-0.529059
-0.0586196
0.440308
0.990877
1.55923
2.11153
2.62271
3.06024
3.40731
3.68436
3.93662
4.21264
4.52817
4.80806
4.84338
4.60879
4.30646
4.04532
3.86148
3.7618
3.73449
3.76317
3.83878
3.96223
4.13474
4.34352
4.54764
4.64878
4.53413
4.33936
4.25804
4.30625
4.44525
4.63203
4.80551
4.9414
5.09083
5.28975
5.52621
5.77273
5.99484
6.16798
6.30616
6.4392
6.57418
6.70205
6.81703
6.92398
7.02862
7.12867
7.22065
7.30451
7.37902
7.44073
7.48773
7.51952
7.53536
7.53469
7.51754
7.48384
7.43352
7.36681
7.28422
7.18653
7.07486
6.9505
6.81493
6.66964
6.51615
6.35589
6.1902
6.0203
5.84728
5.6721
5.49561
5.3186
5.1418
4.96585
4.79138
4.61894
4.44903
4.28208
4.11845
3.95847
3.80237
3.65036
3.50258
3.35914
3.22012
3.08556
2.95548
2.82987
2.70873
2.592
2.47966
2.37164
2.26787
2.16829
2.07282
1.98137
1.89385
1.81016
1.73021
1.65387
1.58105
1.51162
1.44545
1.38243
1.32242
1.26528
1.21089
1.15912
1.10983
1.0629
1.01819
0.975606
0.935019
0.89633
0.859438
0.824254
0.790693
0.758681
0.728147
0.699027
0.671266
0.644808
0.619606
0.595615
0.572791
0.551096
0.53049
0.510938
0.492404
0.474852
0.45825
0.442563
0.42776
0.413806
0.40067
0.388318
0.376718
0.365836
0.35564
0.346096
0.337169
0.328826
0.32103
0.313747
0.306941
0.300576
0.294614
0.289021
0.28376
0.278794
0.274089
0.269609
0.265321
0.261191
0.257187
0.25328
0.24944
0.24564
0.241856
0.238064
0.234242
0.230374
0.226441
0.222431
0.218332
0.214134
0.209832
0.205421
0.200899
0.196266
0.191524
0.186678
0.181733
0.176698
0.17158
0.16639
0.161139
0.155838
0.1505
0.145138
0.139763
0.13439
0.12903
0.123697
0.118402
0.113156
0.107972
0.102857
0.0978232
0.0928777
0.0880285
0.0832825
0.0786458
0.0741234
0.0697197
0.0654382
0.0612817
0.0572519
0.0533504
0.0495776
0.0459335
0.0424178
0.0390292
0.0357663
0.0326272
0.0296097
0.026711
0.0239285
0.0212591
0.0186995
0.0162463
0.0138961
0.0116453
0.00949032
0.00742756
0.00545341
0.00356433
0.00175678
2.73614e-05
-0.00162729
-0.0032104
-0.0047251
-0.00617437
-0.00756109
-0.00888796
-0.0101576
-0.0113723
-0.0125344
-0.013646
-0.0147091
-0.0157254
-0.0166965
-0.0176239
-0.018509
-0.0193528
-0.0201565
-0.0209209
-0.0216469
-0.0223349
-0.0229857
-0.0235997
-0.0241773
-0.0247187
-0.0252243
-0.0256942
-0.0261288
-0.0265283
-0.0268928
-0.0272227
-0.0275184
-0.0277802
-0.0280086
-0.0282044
-0.0283682
-0.0285009
-0.0286034
-0.0286768
-0.0287224
-0.0287414
-0.0287354
-0.0287058
-0.0286543
-0.0285824
-0.0284918
-0.0283841
-0.0282611
-0.0281242
-0.0279751
-0.0278152
-0.0276458
-0.0274681
-0.0272834
-0.0270927
-0.0268967
-0.0266964
-0.0264923
-0.026285
-0.026075
-0.0258625
-0.0256478
-0.025431
-0.0252119
-0.0249906
-0.0247668
-0.0245401
-0.0243101
-0.0240764
-0.0238387
-0.0235963
-0.0233491
-0.0230967
-0.0228389
-0.0225757
-0.0223071
-0.0220334
-0.0217549
-0.0214721
-0.0211855
-0.0208957
-0.0206035
-0.0203094
-0.0200143
-0.0197187
-0.0194235
-0.0191292
-0.0188364
-0.0185457
-0.0182576
-0.0179724
-0.0176906
-0.0174124
-0.0171382
-0.016868
-0.0166021
-0.0163405
-0.0160833
-0.0158306
-0.0155823
-0.0153385
-0.015099
-0.0148639
-0.014633
-0.0144062
-0.0141835
-0.0139648
-0.0137498
-0.0135385
-0.0133309
-0.0131266
-0.0129258
-0.0127281
-0.0125335
-0.012342
-0.0121532
-0.0119673
-0.0117839
-0.0116032
-0.0114248
-0.0112488
-0.0110751
-0.0109035
-0.0107339
-0.0105664
-0.0104008
-0.010237
-0.010075
-0.00991465
-0.00975595
-0.00959882
-0.00944319
-0.00928901
-0.00913623
-0.00898479
-0.00883464
-0.00868574
-0.00853804
-0.0083915
-0.00824608
-0.00810173
-0.00795842
-0.00781612
-0.00767479
-0.0075344
-0.00739492
-0.00725631
-0.00711856
-0.00698163
-0.0068455
-0.00671014
-0.00657552
-0.00644162
-0.00630843
-0.00617591
-0.00604406
-0.00591284
-0.00578224
-0.00565224
-0.00552283
-0.00539398
-0.00526568
-0.00513791
-0.00501065
-0.00488389
-0.00475761
-0.00463181
-0.00450645
-0.00438154
-0.00425704
-0.00413296
-0.00400927
-0.00388597
-0.00376304
-0.00364047
-0.00351824
-0.00339635
-0.00327478
-0.00315352
-0.00303255
-0.00291187
-0.00279147
-0.00267132
-0.00255143
-0.00243177
-0.00231234
-0.00219313
-0.00207412
-0.00195531
-0.00183667
-0.00171821
-0.00159992
-0.00148177
-0.00136376
-0.00124587
-0.0011281
-0.00101044
-0.000892865
-0.000775368
-0.000657977
-0.000540527
-0.0004235
-0.00030502
-0.000190363
-5.50015e-05
7.13032
7.44343
4.75586
12.2759
10.0989
-11.9917
-23.8768
-24.88
-24.2604
-24.6443
-25.3741
-23.4303
-15.6622
-7.58811
-3.17093
-1.88827
-1.53862
-1.39706
-1.20563
-1.12323
-1.48259
-0.915174
-0.609462
-0.455883
-0.231705
0.0630281
0.482293
1.02062
1.60602
2.17909
2.67416
3.03883
3.26903
3.43553
3.64615
4.01702
4.53589
4.62345
4.16221
3.68575
3.31759
3.07002
2.94348
2.91653
2.96048
3.05897
3.21809
3.45581
3.7802
4.16737
4.436
4.17234
3.7582
3.62809
3.70832
3.91105
4.18244
4.39826
4.49345
4.60622
4.81258
5.08512
5.38307
5.64312
5.80821
5.91825
6.04454
6.19245
6.33496
6.45628
6.56961
6.68881
6.80621
6.91419
7.01562
7.1093
7.18847
7.25111
7.29795
7.32793
7.34053
7.33623
7.31484
7.27602
7.21993
7.14697
7.05794
6.95408
6.83683
6.70779
6.56859
6.42082
6.26601
6.10554
5.94066
5.77245
5.60184
5.42967
5.25672
5.08371
4.9113
4.74013
4.57078
4.40377
4.23956
4.07853
3.92099
3.7672
3.61737
3.47164
3.33012
3.1929
3.06003
2.93152
2.80738
2.6876
2.57215
2.46099
2.35406
2.25132
2.15269
2.05811
1.96749
1.88075
1.79779
1.71853
1.64286
1.57066
1.50182
1.43622
1.37374
1.31425
1.25761
1.2037
1.15237
1.10351
1.05697
1.01265
0.97041
0.930149
0.89176
0.855144
0.820213
0.786883
0.75508
0.724737
0.695792
0.668189
0.641877
0.616808
0.59294
0.570232
0.548644
0.528139
0.508683
0.49024
0.472776
0.456258
0.440653
0.42593
0.412054
0.398994
0.386718
0.375193
0.364387
0.354266
0.344796
0.335945
0.327677
0.319957
0.31275
0.30602
0.29973
0.293845
0.288327
0.28314
0.278247
0.273614
0.269204
0.264983
0.260918
0.256977
0.253128
0.249344
0.245595
0.241858
0.238108
0.234325
0.23049
0.226586
0.2226
0.218519
0.214335
0.210042
0.205635
0.201113
0.196476
0.191727
0.18687
0.181911
0.176858
0.171721
0.16651
0.161236
0.155911
0.150548
0.14516
0.13976
0.134361
0.128977
0.12362
0.118302
0.113035
0.10783
0.102698
0.0976464
0.0926855
0.0878227
0.0830647
0.0784177
0.0738867
0.069476
0.065189
0.0610285
0.0569961
0.0530933
0.0493204
0.0456774
0.0421637
0.0387781
0.035519
0.0323843
0.0293719
0.0264789
0.0237024
0.0210394
0.0184865
0.0160402
0.0136971
0.0114535
0.00930568
0.00725009
0.00528304
0.00340095
0.00160025
-0.0001225
-0.00177068
-0.00334756
-0.00485628
-0.00629984
-0.00768113
-0.00900287
-0.0102676
-0.0114779
-0.0126358
-0.0137435
-0.014803
-0.015816
-0.0167842
-0.017709
-0.0185917
-0.0194335
-0.0202353
-0.0209982
-0.0217228
-0.0224097
-0.0230596
-0.0236728
-0.0242497
-0.0247905
-0.0252956
-0.0257651
-0.0261992
-0.0265981
-0.026962
-0.0272912
-0.027586
-0.0278467
-0.0280739
-0.0282682
-0.0284303
-0.028561
-0.0286613
-0.0287323
-0.0287752
-0.0287915
-0.0287824
-0.0287497
-0.0286949
-0.0286197
-0.0285258
-0.0284149
-0.0282887
-0.0281488
-0.0279968
-0.0278342
-0.0276623
-0.0274824
-0.0272957
-0.0271031
-0.0269056
-0.026704
-0.0264989
-0.0262908
-0.0260802
-0.0258674
-0.0256525
-0.0254358
-0.025217
-0.0249961
-0.0247728
-0.0245467
-0.0243174
-0.0240845
-0.0238474
-0.0236056
-0.0233588
-0.0231065
-0.0228488
-0.0225853
-0.0223163
-0.022042
-0.0217626
-0.0214788
-0.0211911
-0.0209001
-0.0206065
-0.0203112
-0.0200147
-0.0197179
-0.0194215
-0.0191261
-0.0188323
-0.0185406
-0.0182517
-0.0179658
-0.0176834
-0.0174048
-0.0171301
-0.0168596
-0.0165935
-0.0163317
-0.0160745
-0.0158218
-0.0155736
-0.0153298
-0.0150905
-0.0148555
-0.0146248
-0.0143982
-0.0141757
-0.0139572
-0.0137424
-0.0135314
-0.013324
-0.01312
-0.0129194
-0.0127219
-0.0125276
-0.0123362
-0.0121477
-0.011962
-0.0117789
-0.0115983
-0.0114201
-0.0112443
-0.0110708
-0.0108993
-0.01073
-0.0105626
-0.0103971
-0.0102335
-0.0100716
-0.00991141
-0.00975283
-0.00959582
-0.00944031
-0.00928624
-0.00913356
-0.00898222
-0.00883216
-0.00868335
-0.00853574
-0.00838928
-0.00824393
-0.00809966
-0.00795643
-0.00781419
-0.00767293
-0.0075326
-0.00739318
-0.00725463
-0.00711693
-0.00698005
-0.00684397
-0.00670865
-0.00657408
-0.00644023
-0.00630708
-0.00617461
-0.00604279
-0.00591161
-0.00578105
-0.00565109
-0.00552171
-0.0053929
-0.00526463
-0.00513689
-0.00500966
-0.00488293
-0.00475669
-0.00463091
-0.00450558
-0.0043807
-0.00425623
-0.00413217
-0.00400851
-0.00388524
-0.00376233
-0.00363978
-0.00351758
-0.00339571
-0.00327417
-0.00315293
-0.00303199
-0.00291134
-0.00279095
-0.00267083
-0.00255096
-0.00243132
-0.00231192
-0.00219273
-0.00207374
-0.00195495
-0.00183634
-0.0017179
-0.00159963
-0.0014815
-0.00136351
-0.00124565
-0.0011279
-0.00101025
-0.000892704
-0.000775228
-0.000657859
-0.000540431
-0.000423426
-0.000304968
-0.000190331
-5.49963e-05
5.8378
4.2299
1.63828
3.17948
1.87098
0.765713
-12.5894
-27.0586
-23.7708
-21.0674
-21.1523
-17.6552
-11.0449
-4.39326
-1.15852
-1.2928
-1.58139
-1.45211
-1.15298
-1.85815
-4.4442
-3.22845
-1.88412
-0.941995
-0.457373
0.121324
0.681427
1.20262
1.49552
1.64317
1.75107
1.87178
2.05607
2.38675
2.93151
3.94367
5.25484
5.13606
3.87981
3.13386
2.71435
2.48427
2.36454
2.28764
2.221
2.18471
2.22954
2.38334
2.66482
3.20284
3.95554
3.39105
2.62454
2.5014
2.72191
3.11896
3.62442
3.94853
3.88226
3.87366
4.07824
4.40359
4.79273
5.12649
5.25317
5.29219
5.41271
5.59964
5.78178
5.91228
6.03042
6.17504
6.32221
6.45347
6.58189
6.70635
6.81144
6.89656
6.96589
7.01694
7.04917
7.06432
7.06168
7.04027
7.00021
6.9417
6.86556
6.77329
6.6666
6.54725
6.41707
6.27783
6.13115
5.97852
5.82119
5.66024
5.49654
5.3309
5.16405
4.99671
4.8296
4.66337
4.49864
4.33599
4.17588
4.01872
3.86485
3.71453
3.56797
3.42531
3.28669
3.15217
3.02183
2.89568
2.77374
2.656
2.54245
2.43306
2.32778
2.22656
2.12936
2.0361
1.94672
1.86114
1.77928
1.70106
1.62636
1.5551
1.48715
1.42241
1.36074
1.30203
1.24613
1.19293
1.14228
1.09405
1.04812
1.00436
0.962645
0.922873
0.884934
0.848732
0.814179
0.781194
0.749704
0.719646
0.690959
0.663591
0.637495
0.612624
0.588939
0.5664
0.544972
0.524617
0.505303
0.486996
0.469663
0.453271
0.437789
0.423185
0.409426
0.396481
0.384319
0.372906
0.362212
0.352203
0.342846
0.334107
0.325952
0.318346
0.311253
0.304637
0.298462
0.292691
0.287286
0.282211
0.277429
0.272904
0.268599
0.26448
0.260513
0.256666
0.252906
0.249204
0.245533
0.241867
0.238181
0.234456
0.230671
0.226809
0.222858
0.218806
0.214643
0.210363
0.205963
0.201441
0.196798
0.192036
0.187162
0.182181
0.177102
0.171935
0.166691
0.161382
0.15602
0.150619
0.145193
0.139755
0.134318
0.128897
0.123504
0.118152
0.112852
0.107617
0.102456
0.0973792
0.0923952
0.0875118
0.0827359
0.0780735
0.0735296
0.0691084
0.0648134
0.0606469
0.0566108
0.0527062
0.0489333
0.045292
0.0417814
0.0384004
0.035147
0.0320192
0.0290145
0.02613
0.0233628
0.0207095
0.0181667
0.015731
0.0133985
0.0111657
0.00902875
0.00698396
0.00502762
0.00315606
0.00136568
-0.000347037
-0.00198549
-0.003553
-0.00505272
-0.0064877
-0.00786083
-0.00917486
-0.0104324
-0.0116358
-0.0127874
-0.0138894
-0.0149435
-0.0159516
-0.0169154
-0.0178362
-0.0187154
-0.0195541
-0.0203533
-0.0211138
-0.0218364
-0.0225217
-0.0231702
-0.0237822
-0.0243581
-0.0248982
-0.0254026
-0.0258714
-0.0263048
-0.0267029
-0.027066
-0.0273941
-0.0276876
-0.0279468
-0.0281722
-0.0283643
-0.0285238
-0.0286516
-0.0287485
-0.0288159
-0.0288548
-0.0288667
-0.0288531
-0.0288156
-0.0287559
-0.0286757
-0.0285768
-0.028461
-0.02833
-0.0281855
-0.0280292
-0.0278625
-0.0276868
-0.0275035
-0.0273137
-0.0271184
-0.0269186
-0.0267149
-0.0265081
-0.0262987
-0.0260871
-0.0258736
-0.0256585
-0.0254419
-0.0252236
-0.0250035
-0.0247813
-0.0245566
-0.0243289
-0.0240975
-0.0238618
-0.0236214
-0.0233756
-0.0231241
-0.0228665
-0.0226029
-0.0223332
-0.0220578
-0.0217771
-0.0214915
-0.0212018
-0.0209086
-0.0206128
-0.0203152
-0.0200165
-0.0197176
-0.0194191
-0.0191218
-0.0188263
-0.0185331
-0.0182429
-0.0179559
-0.0176725
-0.0173931
-0.0171178
-0.0168468
-0.0165804
-0.0163184
-0.0160611
-0.0158083
-0.0155602
-0.0153166
-0.0150774
-0.0148427
-0.0146123
-0.014386
-0.0141638
-0.0139456
-0.0137313
-0.0135206
-0.0133135
-0.0131099
-0.0129097
-0.0127126
-0.0125186
-0.0123276
-0.0121394
-0.011954
-0.0117712
-0.0115909
-0.0114131
-0.0112375
-0.0110642
-0.0108931
-0.010724
-0.0105568
-0.0103916
-0.0102282
-0.0100665
-0.00990648
-0.00974809
-0.00959126
-0.00943592
-0.00928201
-0.00912949
-0.0089783
-0.00882839
-0.00867971
-0.00853223
-0.0083859
-0.00824067
-0.00809651
-0.00795338
-0.00781125
-0.00767008
-0.00752984
-0.00739051
-0.00725205
-0.00711444
-0.00697764
-0.00684163
-0.00670638
-0.00657188
-0.0064381
-0.00630501
-0.0061726
-0.00604085
-0.00590973
-0.00577923
-0.00564933
-0.00552
-0.00539124
-0.00526302
-0.00513532
-0.00500814
-0.00488146
-0.00475526
-0.00462952
-0.00450424
-0.0043794
-0.00425497
-0.00413096
-0.00400734
-0.0038841
-0.00376124
-0.00363873
-0.00351656
-0.00339473
-0.00327323
-0.00315202
-0.00303112
-0.0029105
-0.00279015
-0.00267007
-0.00255023
-0.00243063
-0.00231125
-0.0021921
-0.00207315
-0.00195439
-0.00183581
-0.00171741
-0.00159917
-0.00148107
-0.00136311
-0.00124528
-0.00112757
-0.00100995
-0.000892438
-0.000774996
-0.00065766
-0.000540266
-0.000423293
-0.000304869
-0.000190264
-5.49739e-05
6.99919
0.836865
1.17719
1.41548
1.24243
1.01169
0.179482
-6.57281
-13.7489
-11.6992
-8.11946
-5.70775
-2.84847
-0.0969993
1.88352
2.64909
1.44009
-0.541689
1.87837
2.72177
-7.14226
0.652729
0.00730956
-0.466223
-0.219384
-0.0775976
0.0681909
0.202583
0.236018
0.256689
0.281259
0.312353
0.363768
0.464648
0.749114
1.40633
3.82783
4.31146
1.78704
0.99961
0.750447
0.785122
0.969841
1.12396
1.11879
1.00749
1.02958
1.4403
2.31047
3.93766
6.19244
3.58761
2.08317
1.88064
1.81865
1.99193
2.6494
3.25526
2.84082
2.64306
2.91027
3.40141
4.04293
4.59845
4.57499
4.40549
4.51321
4.77849
5.03814
5.16449
5.27632
5.46785
5.66683
5.82845
5.9977
6.17181
6.3121
6.42558
6.52544
6.60378
6.66097
6.70235
6.72525
6.72744
6.70909
6.66977
6.61049
6.5334
6.4405
6.33386
6.21555
6.08751
5.9516
5.80941
5.66222
5.51103
5.35663
5.19973
5.04103
4.88126
4.72116
4.56146
4.40286
4.24596
4.0913
3.9393
3.79032
3.64462
3.50241
3.36385
3.22907
3.09815
2.97116
2.84815
2.72913
2.61411
2.50308
2.39603
2.29292
2.19373
2.0984
2.0069
1.91916
1.83512
1.75471
1.67785
1.60446
1.53443
1.46766
1.40405
1.34347
1.28579
1.23089
1.17863
1.12888
1.0815
1.03637
0.993361
0.952351
0.913228
0.875888
0.840235
0.806183
0.773653
0.742577
0.712894
0.684548
0.657491
0.631678
0.607069
0.583625
0.561311
0.540093
0.519937
0.500812
0.482684
0.465524
0.449299
0.433979
0.419532
0.405928
0.393135
0.381123
0.36986
0.359315
0.349454
0.340246
0.331657
0.323653
0.316198
0.309257
0.302795
0.296772
0.291154
0.285901
0.280976
0.276342
0.271961
0.267798
0.263816
0.25998
0.256258
0.252617
0.249027
0.24546
0.241889
0.23829
0.234641
0.230923
0.227119
0.223215
0.219199
0.215064
0.210802
0.20641
0.201887
0.197235
0.192457
0.187558
0.182547
0.177432
0.172225
0.166936
0.161579
0.156168
0.150716
0.145237
0.139747
0.134259
0.128788
0.123346
0.117948
0.112605
0.107329
0.10213
0.097019
0.0920041
0.0870933
0.0822935
0.0776106
0.0730497
0.0686147
0.064309
0.0601349
0.056094
0.0521872
0.0484146
0.0447757
0.0412696
0.0378949
0.0346494
0.031531
0.0285368
0.0256639
0.0229091
0.020269
0.0177399
0.0153183
0.0130002
0.0107819
0.00865956
0.00662929
0.00468731
0.00282988
0.00105332
-0.000645937
-0.00227137
-0.00382632
-0.005314
-0.0067375
-0.00809973
-0.00940346
-0.0106513
-0.0118457
-0.0129889
-0.0140831
-0.0151301
-0.0161317
-0.0170896
-0.0180052
-0.0188797
-0.0197143
-0.0205099
-0.0212674
-0.0219874
-0.0226706
-0.0233173
-0.0239278
-0.0245026
-0.0250416
-0.0255451
-0.0260131
-0.0264457
-0.0268429
-0.0272049
-0.0275317
-0.0278235
-0.0280807
-0.0283037
-0.0284929
-0.028649
-0.0287728
-0.0288654
-0.0289278
-0.0289614
-0.0289675
-0.0289477
-0.0289037
-0.0288374
-0.0287504
-0.0286448
-0.0285222
-0.0283847
-0.028234
-0.0280718
-0.0278996
-0.0277189
-0.0275311
-0.0273373
-0.0271385
-0.0269357
-0.0267296
-0.0265208
-0.0263098
-0.0260971
-0.0258829
-0.0256675
-0.0254509
-0.0252331
-0.0250138
-0.0247927
-0.0245693
-0.0243429
-0.024113
-0.0238787
-0.0236394
-0.0233944
-0.0231433
-0.0228858
-0.0226218
-0.0223513
-0.0220746
-0.0217921
-0.0215045
-0.0212125
-0.0209169
-0.0206185
-0.0203182
-0.0200169
-0.0197154
-0.0194145
-0.019115
-0.0188174
-0.0185225
-0.0182306
-0.0179422
-0.0176577
-0.0173773
-0.0171013
-0.0168298
-0.0165629
-0.0163008
-0.0160433
-0.0157906
-0.0155425
-0.0152991
-0.0150603
-0.0148258
-0.0145958
-0.0143699
-0.0141482
-0.0139305
-0.0137166
-0.0135064
-0.0132998
-0.0130967
-0.0128969
-0.0127003
-0.0125068
-0.0123162
-0.0121285
-0.0119435
-0.0117611
-0.0115813
-0.0114038
-0.0112286
-0.0110557
-0.0108849
-0.0107161
-0.0105493
-0.0103843
-0.0102212
-0.0100598
-0.00990005
-0.00974191
-0.00958532
-0.0094302
-0.00927651
-0.0091242
-0.0089732
-0.00882348
-0.00867498
-0.00852767
-0.00838149
-0.00823642
-0.00809241
-0.00794942
-0.00780742
-0.00766638
-0.00752627
-0.00738706
-0.00724871
-0.0071112
-0.00697451
-0.0068386
-0.00670345
-0.00656904
-0.00643534
-0.00630235
-0.00617002
-0.00603835
-0.00590731
-0.00577688
-0.00564705
-0.00551779
-0.00538909
-0.00526094
-0.00513331
-0.00500619
-0.00487957
-0.00475342
-0.00462775
-0.00450252
-0.00437773
-0.00425336
-0.0041294
-0.00400584
-0.00388265
-0.00375984
-0.00363738
-0.00351527
-0.00339348
-0.00327202
-0.00315087
-0.00303001
-0.00290944
-0.00278914
-0.0026691
-0.0025493
-0.00242975
-0.00231042
-0.00219131
-0.0020724
-0.00195369
-0.00183516
-0.0017168
-0.0015986
-0.00148055
-0.00136263
-0.00124484
-0.00112717
-0.0010096
-0.000892126
-0.000774728
-0.000657436
-0.000540085
-0.000423156
-0.000304775
-0.00019021
-5.49698e-05
4.54881
1.39051
1.19264
1.06699
0.948459
0.756385
0.469572
0.109241
-0.413547
-2.59171
-1.73687
2.5664
1.43402
0.399356
0.543365
0.609638
0.43432
-4.08224
0.840319
17.2045
6.10032
2.1365
0.248622
-0.362117
-0.233452
-0.0916202
0.0201487
0.114435
0.186361
0.237474
0.284073
0.332883
0.386903
0.481569
0.651904
0.879222
0.810408
-0.0253617
-0.113556
0.0435013
0.148004
0.215974
0.268744
0.307054
0.327626
0.339524
0.376731
0.489309
0.891668
2.14932
7.43932
0.794376
-2.00689
-0.976787
0.263964
1.71863
3.7496
4.89183
2.8287
2.15372
2.11326
2.31274
3.02661
4.07978
3.64652
3.11098
3.2611
3.73661
4.21149
4.23976
4.27489
4.55595
4.84343
5.02505
5.25214
5.50543
5.68562
5.83097
5.97434
6.08743
6.17483
6.25093
6.30683
6.33892
6.3482
6.33251
6.29364
6.23505
6.15899
6.06786
5.96405
5.84977
5.72719
5.59807
5.4637
5.32492
5.18233
5.03647
4.88798
4.73762
4.58621
4.4346
4.28358
4.13384
3.98596
3.8404
3.69752
3.5576
3.42084
3.2874
3.15742
3.031
2.9082
2.78909
2.67371
2.56206
2.45417
2.35003
2.24962
2.15293
2.05994
1.9706
1.88489
1.80275
1.72414
1.64897
1.57719
1.5087
1.4434
1.38119
1.32196
1.26557
1.21191
1.16083
1.11221
1.0659
1.02178
0.979712
0.93958
0.901269
0.864676
0.829706
0.796276
0.764311
0.733745
0.704524
0.676597
0.64992
0.624454
0.600163
0.577013
0.554974
0.534013
0.514101
0.495208
0.477303
0.460356
0.444338
0.429219
0.414968
0.401556
0.388953
0.377128
0.36605
0.35569
0.346015
0.336994
0.328592
0.320776
0.313511
0.306762
0.300491
0.294661
0.289234
0.284171
0.279436
0.274988
0.27079
0.266804
0.262995
0.259325
0.255761
0.25227
0.248821
0.245384
0.241933
0.238442
0.23489
0.231256
0.227524
0.223679
0.21971
0.215608
0.211367
0.206985
0.20246
0.197796
0.192995
0.188066
0.183015
0.177854
0.172594
0.167249
0.161831
0.156356
0.150838
0.145293
0.139737
0.134183
0.128648
0.123145
0.117688
0.11229
0.106963
0.101717
0.0965625
0.0915088
0.0865637
0.081734
0.0770257
0.0724436
0.0679917
0.063673
0.0594897
0.0554432
0.0515339
0.047762
0.0441266
0.0406265
0.03726
0.0340248
0.0309183
0.0279377
0.0250796
0.0223407
0.0197173
0.0172057
0.0148019
0.012502
0.0103021
0.00819817
0.00618622
0.00426235
0.00242272
0.000663564
-0.00101877
-0.00262783
-0.00416701
-0.00563959
-0.00704867
-0.00839723
-0.00968805
-0.0109238
-0.0121068
-0.0132395
-0.014324
-0.0153621
-0.0163557
-0.0173063
-0.0182153
-0.019084
-0.0199136
-0.0207048
-0.0214585
-0.0221754
-0.022856
-0.0235005
-0.0241094
-0.0246827
-0.0252207
-0.0257232
-0.0261903
-0.026622
-0.0270182
-0.0273789
-0.0277042
-0.0279941
-0.0282489
-0.0284689
-0.0286545
-0.0288064
-0.0289254
-0.0290124
-0.0290686
-0.0290953
-0.029094
-0.0290663
-0.0290142
-0.0289393
-0.0288438
-0.0287295
-0.0285985
-0.0284528
-0.0282942
-0.0281245
-0.0279453
-0.0277582
-0.0275645
-0.0273654
-0.027162
-0.0269551
-0.0267454
-0.0265337
-0.0263204
-0.026106
-0.0258909
-0.0256752
-0.0254591
-0.0252425
-0.0250252
-0.0248066
-0.0245862
-0.0243632
-0.0241367
-0.0239057
-0.0236692
-0.0234265
-0.0231769
-0.0229199
-0.0226555
-0.0223837
-0.0221048
-0.0218195
-0.0215285
-0.0212326
-0.0209328
-0.0206302
-0.0203256
-0.0200202
-0.0197148
-0.0194102
-0.0191074
-0.0188068
-0.0185092
-0.0182151
-0.0179248
-0.0176387
-0.017357
-0.01708
-0.0168078
-0.0165404
-0.016278
-0.0160204
-0.0157677
-0.0155198
-0.0152767
-0.0150382
-0.0148042
-0.0145747
-0.0143494
-0.0141282
-0.0139111
-0.0136978
-0.0134883
-0.0132823
-0.0130798
-0.0128807
-0.0126847
-0.0124918
-0.0123018
-0.0121146
-0.0119302
-0.0117483
-0.011569
-0.011392
-0.0112173
-0.0110448
-0.0108744
-0.010706
-0.0105396
-0.0103751
-0.0102123
-0.0100512
-0.00989182
-0.009734
-0.0095777
-0.00942287
-0.00926946
-0.0091174
-0.00896665
-0.00881716
-0.00866889
-0.00852179
-0.00837583
-0.00823095
-0.00808712
-0.00794431
-0.00780248
-0.00766161
-0.00752166
-0.00738259
-0.00724439
-0.00710701
-0.00697045
-0.00683467
-0.00669964
-0.00656535
-0.00643177
-0.00629888
-0.00616666
-0.00603508
-0.00590414
-0.00577381
-0.00564407
-0.0055149
-0.00538629
-0.00525822
-0.00513067
-0.00500363
-0.00487708
-0.00475102
-0.00462542
-0.00450026
-0.00437554
-0.00425125
-0.00412735
-0.00400385
-0.00388073
-0.00375799
-0.00363559
-0.00351354
-0.00339183
-0.00327043
-0.00314933
-0.00302854
-0.00290802
-0.00278778
-0.00266779
-0.00254806
-0.00242856
-0.00230929
-0.00219024
-0.00207139
-0.00195273
-0.00183426
-0.00171595
-0.00159781
-0.00147981
-0.00136195
-0.00124421
-0.0011266
-0.00100908
-0.000891666
-0.000774324
-0.000657087
-0.000539791
-0.000422917
-0.000304592
-0.000190081
-5.49203e-05
3.4196
1.26118
0.996089
0.860894
0.74737
0.555431
0.319619
0.144821
-0.0938825
-0.62745
-1.053
-0.128261
0.552522
0.576847
0.55361
0.595538
0.585823
0.470228
0.626161
1.22642
0.397891
0.274039
0.00619822
-0.0605584
-0.10101
-0.048284
0.0539274
0.133845
0.185653
0.226325
0.268352
0.312261
0.357435
0.416225
0.490335
0.557565
0.520139
0.381888
0.30253
0.292188
0.303924
0.320581
0.339022
0.357818
0.375522
0.394396
0.427958
0.522933
0.739353
0.945161
0.359947
-0.853036
-0.175406
0.107869
0.363389
0.774701
2.80894
6.2248
-0.0426583
-0.691884
0.384383
1.67196
3.70398
6.44165
3.3651
2.00087
2.08699
2.53876
3.47684
3.1815
2.97911
3.40939
3.88826
4.02478
4.33477
4.7325
4.94002
5.10883
5.31359
5.462
5.5811
5.70603
5.80604
5.8769
5.92136
5.93264
5.91652
5.87931
5.82286
5.74993
5.66301
5.56471
5.45786
5.34452
5.22585
5.10235
4.97423
4.84179
4.70558
4.56642
4.4253
4.28324
4.14118
3.99995
3.86016
3.72232
3.58677
3.45379
3.32358
3.19629
3.07207
2.95102
2.83324
2.71879
2.60774
2.50012
2.39596
2.29528
2.19808
2.10436
2.01413
1.92737
1.84406
1.76417
1.68767
1.61452
1.54464
1.47798
1.41443
1.3539
1.29628
1.24145
1.18927
1.13961
1.09234
1.04732
1.0044
0.963466
0.924386
0.887047
0.851346
0.81719
0.784498
0.753201
0.72324
0.694564
0.66713
0.640902
0.615845
0.59193
0.569129
0.547415
0.526759
0.507136
0.488517
0.470875
0.454182
0.438409
0.423527
0.409509
0.396324
0.383945
0.372342
0.361486
0.351346
0.341892
0.333092
0.324914
0.317324
0.310287
0.303767
0.297727
0.292128
0.286933
0.282102
0.277594
0.273372
0.269395
0.265625
0.262024
0.258556
0.255183
0.251874
0.248595
0.245317
0.24201
0.238651
0.235215
0.231683
0.228037
0.224263
0.220349
0.216287
0.212071
0.207699
0.203171
0.19849
0.193661
0.188692
0.183592
0.178373
0.173049
0.167632
0.162139
0.156585
0.150986
0.14536
0.139722
0.134089
0.128476
0.122898
0.11737
0.111905
0.106515
0.101212
0.0960051
0.0909048
0.0859185
0.0810531
0.0763145
0.0717074
0.0672355
0.0629016
0.0587077
0.0546549
0.0507433
0.0469727
0.0433421
0.0398497
0.0364937
0.0332713
0.0301798
0.0272159
0.0243761
0.0216567
0.0190538
0.0165634
0.0141815
0.0119038
0.00972625
0.00764467
0.00565495
0.00375304
0.00193497
0.000196876
-0.001465
-0.00305427
-0.00457442
-0.00602877
-0.00742049
-0.00875257
-0.0100279
-0.011249
-0.0124184
-0.0135385
-0.0146113
-0.0156388
-0.0166227
-0.0175645
-0.0184658
-0.0193277
-0.0201512
-0.0209373
-0.0216866
-0.0223999
-0.0230774
-0.0237196
-0.0243265
-0.0248984
-0.0254352
-0.0259367
-0.026403
-0.0268338
-0.027229
-0.0275885
-0.0279121
-0.0281999
-0.0284519
-0.0286685
-0.0288499
-0.0289968