/*--------------------------------*- C++ -*----------------------------------*\
| =========                 |                                                 |
| \\      /  F ield         | OpenFOAM: The Open Source CFD Toolbox           |
|  \\    /   O peration     | Version:  v2006                                 |
|   \\  /    A nd           | Website:  www.openfoam.com                      |
|    \\/     M anipulation  |                                                 |
\*---------------------------------------------------------------------------*/
FoamFile
{
    version     2.0;
    format      ascii;
    class       volVectorField;
    location    "0";
    object      U_new;
}
// * * * * * * * * * * * * * * * * * * * * * * * * * * * * * * * * * * * * * //

dimensions      [0 1 -1 0 0 0 0];


internalField   nonuniform List<vector> 
2500
(
(0.000192 -0.004608 0)
(0.000192 -0.013824 0)
(0.000192 -0.02304 0)
(0.000192 -0.032256 0)
(0.000192 -0.041472 0)
(0.000192 -0.050688 0)
(0.000192 -0.059904 0)
(0.000192 -0.06912 0)
(0.000192 -0.078336 0)
(0.000192 -0.087552 0)
(0.000192 -0.096768 0)
(0.000192 -0.105984 0)
(0.000192 -0.1152 0)
(0.000192 -0.124416 0)
(0.000192 -0.133632 0)
(0.000192 -0.142848 0)
(0.000192 -0.152064 0)
(0.000192 -0.16128 0)
(0.000192 -0.170496 0)
(0.000192 -0.179712 0)
(0.000192 -0.188928 0)
(0.000192 -0.198144 0)
(0.000192 -0.20736 0)
(0.000192 -0.216576 0)
(0.000192 -0.225792 0)
(0.000192 -0.235008 0)
(0.000192 -0.244224 0)
(0.000192 -0.25344 0)
(0.000192 -0.262656 0)
(0.000192 -0.271872 0)
(0.000192 -0.281088 0)
(0.000192 -0.290304 0)
(0.000192 -0.29952 0)
(0.000192 -0.308736 0)
(0.000192 -0.317952 0)
(0.000192 -0.327168 0)
(0.000192 -0.336384 0)
(0.000192 -0.3456 0)
(0.000192 -0.354816 0)
(0.000192 -0.364032 0)
(0.000192 -0.373248 0)
(0.000192 -0.382464 0)
(0.000192 -0.39168 0)
(0.000192 -0.400896 0)
(0.000192 -0.410112 0)
(0.000192 -0.419328 0)
(0.000192 -0.428544 0)
(0.000192 -0.43776 0)
(0.000192 -0.446976 0)
(0.000192 -0.456192 0)
(0.001728 -0.004608 0)
(0.001728 -0.013824 0)
(0.001728 -0.02304 0)
(0.001728 -0.032256 0)
(0.001728 -0.041472 0)
(0.001728 -0.050688 0)
(0.001728 -0.059904 0)
(0.001728 -0.06912 0)
(0.001728 -0.078336 0)
(0.001728 -0.087552 0)
(0.001728 -0.096768 0)
(0.001728 -0.105984 0)
(0.001728 -0.1152 0)
(0.001728 -0.124416 0)
(0.001728 -0.133632 0)
(0.001728 -0.142848 0)
(0.001728 -0.152064 0)
(0.001728 -0.16128 0)
(0.001728 -0.170496 0)
(0.001728 -0.179712 0)
(0.001728 -0.188928 0)
(0.001728 -0.198144 0)
(0.001728 -0.20736 0)
(0.001728 -0.216576 0)
(0.001728 -0.225792 0)
(0.001728 -0.235008 0)
(0.001728 -0.244224 0)
(0.001728 -0.25344 0)
(0.001728 -0.262656 0)
(0.001728 -0.271872 0)
(0.001728 -0.281088 0)
(0.001728 -0.290304 0)
(0.001728 -0.29952 0)
(0.001728 -0.308736 0)
(0.001728 -0.317952 0)
(0.001728 -0.327168 0)
(0.001728 -0.336384 0)
(0.001728 -0.3456 0)
(0.001728 -0.354816 0)
(0.001728 -0.364032 0)
(0.001728 -0.373248 0)
(0.001728 -0.382464 0)
(0.001728 -0.39168 0)
(0.001728 -0.400896 0)
(0.001728 -0.410112 0)
(0.001728 -0.419328 0)
(0.001728 -0.428544 0)
(0.001728 -0.43776 0)
(0.001728 -0.446976 0)
(0.001728 -0.456192 0)
(0.0048 -0.004608 0)
(0.0048 -0.013824 0)
(0.0048 -0.02304 0)
(0.0048 -0.032256 0)
(0.0048 -0.041472 0)
(0.0048 -0.050688 0)
(0.0048 -0.059904 0)
(0.0048 -0.06912 0)
(0.0048 -0.078336 0)
(0.0048 -0.087552 0)
(0.0048 -0.096768 0)
(0.0048 -0.105984 0)
(0.0048 -0.1152 0)
(0.0048 -0.124416 0)
(0.0048 -0.133632 0)
(0.0048 -0.142848 0)
(0.0048 -0.152064 0)
(0.0048 -0.16128 0)
(0.0048 -0.170496 0)
(0.0048 -0.179712 0)
(0.0048 -0.188928 0)
(0.0048 -0.198144 0)
(0.0048 -0.20736 0)
(0.0048 -0.216576 0)
(0.0048 -0.225792 0)
(0.0048 -0.235008 0)
(0.0048 -0.244224 0)
(0.0048 -0.25344 0)
(0.0048 -0.262656 0)
(0.0048 -0.271872 0)
(0.0048 -0.281088 0)
(0.0048 -0.290304 0)
(0.0048 -0.29952 0)
(0.0048 -0.308736 0)
(0.0048 -0.317952 0)
(0.0048 -0.327168 0)
(0.0048 -0.336384 0)
(0.0048 -0.3456 0)
(0.0048 -0.354816 0)
(0.0048 -0.364032 0)
(0.0048 -0.373248 0)
(0.0048 -0.382464 0)
(0.0048 -0.39168 0)
(0.0048 -0.400896 0)
(0.0048 -0.410112 0)
(0.0048 -0.419328 0)
(0.0048 -0.428544 0)
(0.0048 -0.43776 0)
(0.0048 -0.446976 0)
(0.0048 -0.456192 0)
(0.009408 -0.004608 0)
(0.009408 -0.013824 0)
(0.009408 -0.02304 0)
(0.009408 -0.032256 0)
(0.009408 -0.041472 0)
(0.009408 -0.050688 0)
(0.009408 -0.059904 0)
(0.009408 -0.06912 0)
(0.009408 -0.078336 0)
(0.009408 -0.087552 0)
(0.009408 -0.096768 0)
(0.009408 -0.105984 0)
(0.009408 -0.1152 0)
(0.009408 -0.124416 0)
(0.009408 -0.133632 0)
(0.009408 -0.142848 0)
(0.009408 -0.152064 0)
(0.009408 -0.16128 0)
(0.009408 -0.170496 0)
(0.009408 -0.179712 0)
(0.009408 -0.188928 0)
(0.009408 -0.198144 0)
(0.009408 -0.20736 0)
(0.009408 -0.216576 0)
(0.009408 -0.225792 0)
(0.009408 -0.235008 0)
(0.009408 -0.244224 0)
(0.009408 -0.25344 0)
(0.009408 -0.262656 0)
(0.009408 -0.271872 0)
(0.009408 -0.281088 0)
(0.009408 -0.290304 0)
(0.009408 -0.29952 0)
(0.009408 -0.308736 0)
(0.009408 -0.317952 0)
(0.009408 -0.327168 0)
(0.009408 -0.336384 0)
(0.009408 -0.3456 0)
(0.009408 -0.354816 0)
(0.009408 -0.364032 0)
(0.009408 -0.373248 0)
(0.009408 -0.382464 0)
(0.009408 -0.39168 0)
(0.009408 -0.400896 0)
(0.009408 -0.410112 0)
(0.009408 -0.419328 0)
(0.009408 -0.428544 0)
(0.009408 -0.43776 0)
(0.009408 -0.446976 0)
(0.009408 -0.456192 0)
(0.015552 -0.004608 0)
(0.015552 -0.013824 0)
(0.015552 -0.02304 0)
(0.015552 -0.032256 0)
(0.015552 -0.041472 0)
(0.015552 -0.050688 0)
(0.015552 -0.059904 0)
(0.015552 -0.06912 0)
(0.015552 -0.078336 0)
(0.015552 -0.087552 0)
(0.015552 -0.096768 0)
(0.015552 -0.105984 0)
(0.015552 -0.1152 0)
(0.015552 -0.124416 0)
(0.015552 -0.133632 0)
(0.015552 -0.142848 0)
(0.015552 -0.152064 0)
(0.015552 -0.16128 0)
(0.015552 -0.170496 0)
(0.015552 -0.179712 0)
(0.015552 -0.188928 0)
(0.015552 -0.198144 0)
(0.015552 -0.20736 0)
(0.015552 -0.216576 0)
(0.015552 -0.225792 0)
(0.015552 -0.235008 0)
(0.015552 -0.244224 0)
(0.015552 -0.25344 0)
(0.015552 -0.262656 0)
(0.015552 -0.271872 0)
(0.015552 -0.281088 0)
(0.015552 -0.290304 0)
(0.015552 -0.29952 0)
(0.015552 -0.308736 0)
(0.015552 -0.317952 0)
(0.015552 -0.327168 0)
(0.015552 -0.336384 0)
(0.015552 -0.3456 0)
(0.015552 -0.354816 0)
(0.015552 -0.364032 0)
(0.015552 -0.373248 0)
(0.015552 -0.382464 0)
(0.015552 -0.39168 0)
(0.015552 -0.400896 0)
(0.015552 -0.410112 0)
(0.015552 -0.419328 0)
(0.015552 -0.428544 0)
(0.015552 -0.43776 0)
(0.015552 -0.446976 0)
(0.015552 -0.456192 0)
(0.023232 -0.004608 0)
(0.023232 -0.013824 0)
(0.023232 -0.02304 0)
(0.023232 -0.032256 0)
(0.023232 -0.041472 0)
(0.023232 -0.050688 0)
(0.023232 -0.059904 0)
(0.023232 -0.06912 0)
(0.023232 -0.078336 0)
(0.023232 -0.087552 0)
(0.023232 -0.096768 0)
(0.023232 -0.105984 0)
(0.023232 -0.1152 0)
(0.023232 -0.124416 0)
(0.023232 -0.133632 0)
(0.023232 -0.142848 0)
(0.023232 -0.152064 0)
(0.023232 -0.16128 0)
(0.023232 -0.170496 0)
(0.023232 -0.179712 0)
(0.023232 -0.188928 0)
(0.023232 -0.198144 0)
(0.023232 -0.20736 0)
(0.023232 -0.216576 0)
(0.023232 -0.225792 0)
(0.023232 -0.235008 0)
(0.023232 -0.244224 0)
(0.023232 -0.25344 0)
(0.023232 -0.262656 0)
(0.023232 -0.271872 0)
(0.023232 -0.281088 0)
(0.023232 -0.290304 0)
(0.023232 -0.29952 0)
(0.023232 -0.308736 0)
(0.023232 -0.317952 0)
(0.023232 -0.327168 0)
(0.023232 -0.336384 0)
(0.023232 -0.3456 0)
(0.023232 -0.354816 0)
(0.023232 -0.364032 0)
(0.023232 -0.373248 0)
(0.023232 -0.382464 0)
(0.023232 -0.39168 0)
(0.023232 -0.400896 0)
(0.023232 -0.410112 0)
(0.023232 -0.419328 0)
(0.023232 -0.428544 0)
(0.023232 -0.43776 0)
(0.023232 -0.446976 0)
(0.023232 -0.456192 0)
(0.032448 -0.004608 0)
(0.032448 -0.013824 0)
(0.032448 -0.02304 0)
(0.032448 -0.032256 0)
(0.032448 -0.041472 0)
(0.032448 -0.050688 0)
(0.032448 -0.059904 0)
(0.032448 -0.06912 0)
(0.032448 -0.078336 0)
(0.032448 -0.087552 0)
(0.032448 -0.096768 0)
(0.032448 -0.105984 0)
(0.032448 -0.1152 0)
(0.032448 -0.124416 0)
(0.032448 -0.133632 0)
(0.032448 -0.142848 0)
(0.032448 -0.152064 0)
(0.032448 -0.16128 0)
(0.032448 -0.170496 0)
(0.032448 -0.179712 0)
(0.032448 -0.188928 0)
(0.032448 -0.198144 0)
(0.032448 -0.20736 0)
(0.032448 -0.216576 0)
(0.032448 -0.225792 0)
(0.032448 -0.235008 0)
(0.032448 -0.244224 0)
(0.032448 -0.25344 0)
(0.032448 -0.262656 0)
(0.032448 -0.271872 0)
(0.032448 -0.281088 0)
(0.032448 -0.290304 0)
(0.032448 -0.29952 0)
(0.032448 -0.308736 0)
(0.032448 -0.317952 0)
(0.032448 -0.327168 0)
(0.032448 -0.336384 0)
(0.032448 -0.3456 0)
(0.032448 -0.354816 0)
(0.032448 -0.364032 0)
(0.032448 -0.373248 0)
(0.032448 -0.382464 0)
(0.032448 -0.39168 0)
(0.032448 -0.400896 0)
(0.032448 -0.410112 0)
(0.032448 -0.419328 0)
(0.032448 -0.428544 0)
(0.032448 -0.43776 0)
(0.032448 -0.446976 0)
(0.032448 -0.456192 0)
(0.0432 -0.004608 0)
(0.0432 -0.013824 0)
(0.0432 -0.02304 0)
(0.0432 -0.032256 0)
(0.0432 -0.041472 0)
(0.0432 -0.050688 0)
(0.0432 -0.059904 0)
(0.0432 -0.06912 0)
(0.0432 -0.078336 0)
(0.0432 -0.087552 0)
(0.0432 -0.096768 0)
(0.0432 -0.105984 0)
(0.0432 -0.1152 0)
(0.0432 -0.124416 0)
(0.0432 -0.133632 0)
(0.0432 -0.142848 0)
(0.0432 -0.152064 0)
(0.0432 -0.16128 0)
(0.0432 -0.170496 0)
(0.0432 -0.179712 0)
(0.0432 -0.188928 0)
(0.0432 -0.198144 0)
(0.0432 -0.20736 0)
(0.0432 -0.216576 0)
(0.0432 -0.225792 0)
(0.0432 -0.235008 0)
(0.0432 -0.244224 0)
(0.0432 -0.25344 0)
(0.0432 -0.262656 0)
(0.0432 -0.271872 0)
(0.0432 -0.281088 0)
(0.0432 -0.290304 0)
(0.0432 -0.29952 0)
(0.0432 -0.308736 0)
(0.0432 -0.317952 0)
(0.0432 -0.327168 0)
(0.0432 -0.336384 0)
(0.0432 -0.3456 0)
(0.0432 -0.354816 0)
(0.0432 -0.364032 0)
(0.0432 -0.373248 0)
(0.0432 -0.382464 0)
(0.0432 -0.39168 0)
(0.0432 -0.400896 0)
(0.0432 -0.410112 0)
(0.0432 -0.419328 0)
(0.0432 -0.428544 0)
(0.0432 -0.43776 0)
(0.0432 -0.446976 0)
(0.0432 -0.456192 0)
(0.055488 -0.004608 0)
(0.055488 -0.013824 0)
(0.055488 -0.02304 0)
(0.055488 -0.032256 0)
(0.055488 -0.041472 0)
(0.055488 -0.050688 0)
(0.055488 -0.059904 0)
(0.055488 -0.06912 0)
(0.055488 -0.078336 0)
(0.055488 -0.087552 0)
(0.055488 -0.096768 0)
(0.055488 -0.105984 0)
(0.055488 -0.1152 0)
(0.055488 -0.124416 0)
(0.055488 -0.133632 0)
(0.055488 -0.142848 0)
(0.055488 -0.152064 0)
(0.055488 -0.16128 0)
(0.055488 -0.170496 0)
(0.055488 -0.179712 0)
(0.055488 -0.188928 0)
(0.055488 -0.198144 0)
(0.055488 -0.20736 0)
(0.055488 -0.216576 0)
(0.055488 -0.225792 0)
(0.055488 -0.235008 0)
(0.055488 -0.244224 0)
(0.055488 -0.25344 0)
(0.055488 -0.262656 0)
(0.055488 -0.271872 0)
(0.055488 -0.281088 0)
(0.055488 -0.290304 0)
(0.055488 -0.29952 0)
(0.055488 -0.308736 0)
(0.055488 -0.317952 0)
(0.055488 -0.327168 0)
(0.055488 -0.336384 0)
(0.055488 -0.3456 0)
(0.055488 -0.354816 0)
(0.055488 -0.364032 0)
(0.055488 -0.373248 0)
(0.055488 -0.382464 0)
(0.055488 -0.39168 0)
(0.055488 -0.400896 0)
(0.055488 -0.410112 0)
(0.055488 -0.419328 0)
(0.055488 -0.428544 0)
(0.055488 -0.43776 0)
(0.055488 -0.446976 0)
(0.055488 -0.456192 0)
(0.069312 -0.004608 0)
(0.069312 -0.013824 0)
(0.069312 -0.02304 0)
(0.069312 -0.032256 0)
(0.069312 -0.041472 0)
(0.069312 -0.050688 0)
(0.069312 -0.059904 0)
(0.069312 -0.06912 0)
(0.069312 -0.078336 0)
(0.069312 -0.087552 0)
(0.069312 -0.096768 0)
(0.069312 -0.105984 0)
(0.069312 -0.1152 0)
(0.069312 -0.124416 0)
(0.069312 -0.133632 0)
(0.069312 -0.142848 0)
(0.069312 -0.152064 0)
(0.069312 -0.16128 0)
(0.069312 -0.170496 0)
(0.069312 -0.179712 0)
(0.069312 -0.188928 0)
(0.069312 -0.198144 0)
(0.069312 -0.20736 0)
(0.069312 -0.216576 0)
(0.069312 -0.225792 0)
(0.069312 -0.235008 0)
(0.069312 -0.244224 0)
(0.069312 -0.25344 0)
(0.069312 -0.262656 0)
(0.069312 -0.271872 0)
(0.069312 -0.281088 0)
(0.069312 -0.290304 0)
(0.069312 -0.29952 0)
(0.069312 -0.308736 0)
(0.069312 -0.317952 0)
(0.069312 -0.327168 0)
(0.069312 -0.336384 0)
(0.069312 -0.3456 0)
(0.069312 -0.354816 0)
(0.069312 -0.364032 0)
(0.069312 -0.373248 0)
(0.069312 -0.382464 0)
(0.069312 -0.39168 0)
(0.069312 -0.400896 0)
(0.069312 -0.410112 0)
(0.069312 -0.419328 0)
(0.069312 -0.428544 0)
(0.069312 -0.43776 0)
(0.069312 -0.446976 0)
(0.069312 -0.456192 0)
(0.084672 -0.004608 0)
(0.084672 -0.013824 0)
(0.084672 -0.02304 0)
(0.084672 -0.032256 0)
(0.084672 -0.041472 0)
(0.084672 -0.050688 0)
(0.084672 -0.059904 0)
(0.084672 -0.06912 0)
(0.084672 -0.078336 0)
(0.084672 -0.087552 0)
(0.084672 -0.096768 0)
(0.084672 -0.105984 0)
(0.084672 -0.1152 0)
(0.084672 -0.124416 0)
(0.084672 -0.133632 0)
(0.084672 -0.142848 0)
(0.084672 -0.152064 0)
(0.084672 -0.16128 0)
(0.084672 -0.170496 0)
(0.084672 -0.179712 0)
(0.084672 -0.188928 0)
(0.084672 -0.198144 0)
(0.084672 -0.20736 0)
(0.084672 -0.216576 0)
(0.084672 -0.225792 0)
(0.084672 -0.235008 0)
(0.084672 -0.244224 0)
(0.084672 -0.25344 0)
(0.084672 -0.262656 0)
(0.084672 -0.271872 0)
(0.084672 -0.281088 0)
(0.084672 -0.290304 0)
(0.084672 -0.29952 0)
(0.084672 -0.308736 0)
(0.084672 -0.317952 0)
(0.084672 -0.327168 0)
(0.084672 -0.336384 0)
(0.084672 -0.3456 0)
(0.084672 -0.354816 0)
(0.084672 -0.364032 0)
(0.084672 -0.373248 0)
(0.084672 -0.382464 0)
(0.084672 -0.39168 0)
(0.084672 -0.400896 0)
(0.084672 -0.410112 0)
(0.084672 -0.419328 0)
(0.084672 -0.428544 0)
(0.084672 -0.43776 0)
(0.084672 -0.446976 0)
(0.084672 -0.456192 0)
(0.101568 -0.004608 0)
(0.101568 -0.013824 0)
(0.101568 -0.02304 0)
(0.101568 -0.032256 0)
(0.101568 -0.041472 0)
(0.101568 -0.050688 0)
(0.101568 -0.059904 0)
(0.101568 -0.06912 0)
(0.101568 -0.078336 0)
(0.101568 -0.087552 0)
(0.101568 -0.096768 0)
(0.101568 -0.105984 0)
(0.101568 -0.1152 0)
(0.101568 -0.124416 0)
(0.101568 -0.133632 0)
(0.101568 -0.142848 0)
(0.101568 -0.152064 0)
(0.101568 -0.16128 0)
(0.101568 -0.170496 0)
(0.101568 -0.179712 0)
(0.101568 -0.188928 0)
(0.101568 -0.198144 0)
(0.101568 -0.20736 0)
(0.101568 -0.216576 0)
(0.101568 -0.225792 0)
(0.101568 -0.235008 0)
(0.101568 -0.244224 0)
(0.101568 -0.25344 0)
(0.101568 -0.262656 0)
(0.101568 -0.271872 0)
(0.101568 -0.281088 0)
(0.101568 -0.290304 0)
(0.101568 -0.29952 0)
(0.101568 -0.308736 0)
(0.101568 -0.317952 0)
(0.101568 -0.327168 0)
(0.101568 -0.336384 0)
(0.101568 -0.3456 0)
(0.101568 -0.354816 0)
(0.101568 -0.364032 0)
(0.101568 -0.373248 0)
(0.101568 -0.382464 0)
(0.101568 -0.39168 0)
(0.101568 -0.400896 0)
(0.101568 -0.410112 0)
(0.101568 -0.419328 0)
(0.101568 -0.428544 0)
(0.101568 -0.43776 0)
(0.101568 -0.446976 0)
(0.101568 -0.456192 0)
(0.12 -0.004608 0)
(0.12 -0.013824 0)
(0.12 -0.02304 0)
(0.12 -0.032256 0)
(0.12 -0.041472 0)
(0.12 -0.050688 0)
(0.12 -0.059904 0)
(0.12 -0.06912 0)
(0.12 -0.078336 0)
(0.12 -0.087552 0)
(0.12 -0.096768 0)
(0.12 -0.105984 0)
(0.12 -0.1152 0)
(0.12 -0.124416 0)
(0.12 -0.133632 0)
(0.12 -0.142848 0)
(0.12 -0.152064 0)
(0.12 -0.16128 0)
(0.12 -0.170496 0)
(0.12 -0.179712 0)
(0.12 -0.188928 0)
(0.12 -0.198144 0)
(0.12 -0.20736 0)
(0.12 -0.216576 0)
(0.12 -0.225792 0)
(0.12 -0.235008 0)
(0.12 -0.244224 0)
(0.12 -0.25344 0)
(0.12 -0.262656 0)
(0.12 -0.271872 0)
(0.12 -0.281088 0)
(0.12 -0.290304 0)
(0.12 -0.29952 0)
(0.12 -0.308736 0)
(0.12 -0.317952 0)
(0.12 -0.327168 0)
(0.12 -0.336384 0)
(0.12 -0.3456 0)
(0.12 -0.354816 0)
(0.12 -0.364032 0)
(0.12 -0.373248 0)
(0.12 -0.382464 0)
(0.12 -0.39168 0)
(0.12 -0.400896 0)
(0.12 -0.410112 0)
(0.12 -0.419328 0)
(0.12 -0.428544 0)
(0.12 -0.43776 0)
(0.12 -0.446976 0)
(0.12 -0.456192 0)
(0.139968 -0.004608 0)
(0.139968 -0.013824 0)
(0.139968 -0.02304 0)
(0.139968 -0.032256 0)
(0.139968 -0.041472 0)
(0.139968 -0.050688 0)
(0.139968 -0.059904 0)
(0.139968 -0.06912 0)
(0.139968 -0.078336 0)
(0.139968 -0.087552 0)
(0.139968 -0.096768 0)
(0.139968 -0.105984 0)
(0.139968 -0.1152 0)
(0.139968 -0.124416 0)
(0.139968 -0.133632 0)
(0.139968 -0.142848 0)
(0.139968 -0.152064 0)
(0.139968 -0.16128 0)
(0.139968 -0.170496 0)
(0.139968 -0.179712 0)
(0.139968 -0.188928 0)
(0.139968 -0.198144 0)
(0.139968 -0.20736 0)
(0.139968 -0.216576 0)
(0.139968 -0.225792 0)
(0.139968 -0.235008 0)
(0.139968 -0.244224 0)
(0.139968 -0.25344 0)
(0.139968 -0.262656 0)
(0.139968 -0.271872 0)
(0.139968 -0.281088 0)
(0.139968 -0.290304 0)
(0.139968 -0.29952 0)
(0.139968 -0.308736 0)
(0.139968 -0.317952 0)
(0.139968 -0.327168 0)
(0.139968 -0.336384 0)
(0.139968 -0.3456 0)
(0.139968 -0.354816 0)
(0.139968 -0.364032 0)
(0.139968 -0.373248 0)
(0.139968 -0.382464 0)
(0.139968 -0.39168 0)
(0.139968 -0.400896 0)
(0.139968 -0.410112 0)
(0.139968 -0.419328 0)
(0.139968 -0.428544 0)
(0.139968 -0.43776 0)
(0.139968 -0.446976 0)
(0.139968 -0.456192 0)
(0.161472 -0.004608 0)
(0.161472 -0.013824 0)
(0.161472 -0.02304 0)
(0.161472 -0.032256 0)
(0.161472 -0.041472 0)
(0.161472 -0.050688 0)
(0.161472 -0.059904 0)
(0.161472 -0.06912 0)
(0.161472 -0.078336 0)
(0.161472 -0.087552 0)
(0.161472 -0.096768 0)
(0.161472 -0.105984 0)
(0.161472 -0.1152 0)
(0.161472 -0.124416 0)
(0.161472 -0.133632 0)
(0.161472 -0.142848 0)
(0.161472 -0.152064 0)
(0.161472 -0.16128 0)
(0.161472 -0.170496 0)
(0.161472 -0.179712 0)
(0.161472 -0.188928 0)
(0.161472 -0.198144 0)
(0.161472 -0.20736 0)
(0.161472 -0.216576 0)
(0.161472 -0.225792 0)
(0.161472 -0.235008 0)
(0.161472 -0.244224 0)
(0.161472 -0.25344 0)
(0.161472 -0.262656 0)
(0.161472 -0.271872 0)
(0.161472 -0.281088 0)
(0.161472 -0.290304 0)
(0.161472 -0.29952 0)
(0.161472 -0.308736 0)
(0.161472 -0.317952 0)
(0.161472 -0.327168 0)
(0.161472 -0.336384 0)
(0.161472 -0.3456 0)
(0.161472 -0.354816 0)
(0.161472 -0.364032 0)
(0.161472 -0.373248 0)
(0.161472 -0.382464 0)
(0.161472 -0.39168 0)
(0.161472 -0.400896 0)
(0.161472 -0.410112 0)
(0.161472 -0.419328 0)
(0.161472 -0.428544 0)
(0.161472 -0.43776 0)
(0.161472 -0.446976 0)
(0.161472 -0.456192 0)
(0.184512 -0.004608 0)
(0.184512 -0.013824 0)
(0.184512 -0.02304 0)
(0.184512 -0.032256 0)
(0.184512 -0.041472 0)
(0.184512 -0.050688 0)
(0.184512 -0.059904 0)
(0.184512 -0.06912 0)
(0.184512 -0.078336 0)
(0.184512 -0.087552 0)
(0.184512 -0.096768 0)
(0.184512 -0.105984 0)
(0.184512 -0.1152 0)
(0.184512 -0.124416 0)
(0.184512 -0.133632 0)
(0.184512 -0.142848 0)
(0.184512 -0.152064 0)
(0.184512 -0.16128 0)
(0.184512 -0.170496 0)
(0.184512 -0.179712 0)
(0.184512 -0.188928 0)
(0.184512 -0.198144 0)
(0.184512 -0.20736 0)
(0.184512 -0.216576 0)
(0.184512 -0.225792 0)
(0.184512 -0.235008 0)
(0.184512 -0.244224 0)
(0.184512 -0.25344 0)
(0.184512 -0.262656 0)
(0.184512 -0.271872 0)
(0.184512 -0.281088 0)
(0.184512 -0.290304 0)
(0.184512 -0.29952 0)
(0.184512 -0.308736 0)
(0.184512 -0.317952 0)
(0.184512 -0.327168 0)
(0.184512 -0.336384 0)
(0.184512 -0.3456 0)
(0.184512 -0.354816 0)
(0.184512 -0.364032 0)
(0.184512 -0.373248 0)
(0.184512 -0.382464 0)
(0.184512 -0.39168 0)
(0.184512 -0.400896 0)
(0.184512 -0.410112 0)
(0.184512 -0.419328 0)
(0.184512 -0.428544 0)
(0.184512 -0.43776 0)
(0.184512 -0.446976 0)
(0.184512 -0.456192 0)
(0.209088 -0.004608 0)
(0.209088 -0.013824 0)
(0.209088 -0.02304 0)
(0.209088 -0.032256 0)
(0.209088 -0.041472 0)
(0.209088 -0.050688 0)
(0.209088 -0.059904 0)
(0.209088 -0.06912 0)
(0.209088 -0.078336 0)
(0.209088 -0.087552 0)
(0.209088 -0.096768 0)
(0.209088 -0.105984 0)
(0.209088 -0.1152 0)
(0.209088 -0.124416 0)
(0.209088 -0.133632 0)
(0.209088 -0.142848 0)
(0.209088 -0.152064 0)
(0.209088 -0.16128 0)
(0.209088 -0.170496 0)
(0.209088 -0.179712 0)
(0.209088 -0.188928 0)
(0.209088 -0.198144 0)
(0.209088 -0.20736 0)
(0.209088 -0.216576 0)
(0.209088 -0.225792 0)
(0.209088 -0.235008 0)
(0.209088 -0.244224 0)
(0.209088 -0.25344 0)
(0.209088 -0.262656 0)
(0.209088 -0.271872 0)
(0.209088 -0.281088 0)
(0.209088 -0.290304 0)
(0.209088 -0.29952 0)
(0.209088 -0.308736 0)
(0.209088 -0.317952 0)
(0.209088 -0.327168 0)
(0.209088 -0.336384 0)
(0.209088 -0.3456 0)
(0.209088 -0.354816 0)
(0.209088 -0.364032 0)
(0.209088 -0.373248 0)
(0.209088 -0.382464 0)
(0.209088 -0.39168 0)
(0.209088 -0.400896 0)
(0.209088 -0.410112 0)
(0.209088 -0.419328 0)
(0.209088 -0.428544 0)
(0.209088 -0.43776 0)
(0.209088 -0.446976 0)
(0.209088 -0.456192 0)
(0.2352 -0.004608 0)
(0.2352 -0.013824 0)
(0.2352 -0.02304 0)
(0.2352 -0.032256 0)
(0.2352 -0.041472 0)
(0.2352 -0.050688 0)
(0.2352 -0.059904 0)
(0.2352 -0.06912 0)
(0.2352 -0.078336 0)
(0.2352 -0.087552 0)
(0.2352 -0.096768 0)
(0.2352 -0.105984 0)
(0.2352 -0.1152 0)
(0.2352 -0.124416 0)
(0.2352 -0.133632 0)
(0.2352 -0.142848 0)
(0.2352 -0.152064 0)
(0.2352 -0.16128 0)
(0.2352 -0.170496 0)
(0.2352 -0.179712 0)
(0.2352 -0.188928 0)
(0.2352 -0.198144 0)
(0.2352 -0.20736 0)
(0.2352 -0.216576 0)
(0.2352 -0.225792 0)
(0.2352 -0.235008 0)
(0.2352 -0.244224 0)
(0.2352 -0.25344 0)
(0.2352 -0.262656 0)
(0.2352 -0.271872 0)
(0.2352 -0.281088 0)
(0.2352 -0.290304 0)
(0.2352 -0.29952 0)
(0.2352 -0.308736 0)
(0.2352 -0.317952 0)
(0.2352 -0.327168 0)
(0.2352 -0.336384 0)
(0.2352 -0.3456 0)
(0.2352 -0.354816 0)
(0.2352 -0.364032 0)
(0.2352 -0.373248 0)
(0.2352 -0.382464 0)
(0.2352 -0.39168 0)
(0.2352 -0.400896 0)
(0.2352 -0.410112 0)
(0.2352 -0.419328 0)
(0.2352 -0.428544 0)
(0.2352 -0.43776 0)
(0.2352 -0.446976 0)
(0.2352 -0.456192 0)
(0.262848 -0.004608 0)
(0.262848 -0.013824 0)
(0.262848 -0.02304 0)
(0.262848 -0.032256 0)
(0.262848 -0.041472 0)
(0.262848 -0.050688 0)
(0.262848 -0.059904 0)
(0.262848 -0.06912 0)
(0.262848 -0.078336 0)
(0.262848 -0.087552 0)
(0.262848 -0.096768 0)
(0.262848 -0.105984 0)
(0.262848 -0.1152 0)
(0.262848 -0.124416 0)
(0.262848 -0.133632 0)
(0.262848 -0.142848 0)
(0.262848 -0.152064 0)
(0.262848 -0.16128 0)
(0.262848 -0.170496 0)
(0.262848 -0.179712 0)
(0.262848 -0.188928 0)
(0.262848 -0.198144 0)
(0.262848 -0.20736 0)
(0.262848 -0.216576 0)
(0.262848 -0.225792 0)
(0.262848 -0.235008 0)
(0.262848 -0.244224 0)
(0.262848 -0.25344 0)
(0.262848 -0.262656 0)
(0.262848 -0.271872 0)
(0.262848 -0.281088 0)
(0.262848 -0.290304 0)
(0.262848 -0.29952 0)
(0.262848 -0.308736 0)
(0.262848 -0.317952 0)
(0.262848 -0.327168 0)
(0.262848 -0.336384 0)
(0.262848 -0.3456 0)
(0.262848 -0.354816 0)
(0.262848 -0.364032 0)
(0.262848 -0.373248 0)
(0.262848 -0.382464 0)
(0.262848 -0.39168 0)
(0.262848 -0.400896 0)
(0.262848 -0.410112 0)
(0.262848 -0.419328 0)
(0.262848 -0.428544 0)
(0.262848 -0.43776 0)
(0.262848 -0.446976 0)
(0.262848 -0.456192 0)
(0.292032 -0.004608 0)
(0.292032 -0.013824 0)
(0.292032 -0.02304 0)
(0.292032 -0.032256 0)
(0.292032 -0.041472 0)
(0.292032 -0.050688 0)
(0.292032 -0.059904 0)
(0.292032 -0.06912 0)
(0.292032 -0.078336 0)
(0.292032 -0.087552 0)
(0.292032 -0.096768 0)
(0.292032 -0.105984 0)
(0.292032 -0.1152 0)
(0.292032 -0.124416 0)
(0.292032 -0.133632 0)
(0.292032 -0.142848 0)
(0.292032 -0.152064 0)
(0.292032 -0.16128 0)
(0.292032 -0.170496 0)
(0.292032 -0.179712 0)
(0.292032 -0.188928 0)
(0.292032 -0.198144 0)
(0.292032 -0.20736 0)
(0.292032 -0.216576 0)
(0.292032 -0.225792 0)
(0.292032 -0.235008 0)
(0.292032 -0.244224 0)
(0.292032 -0.25344 0)
(0.292032 -0.262656 0)
(0.292032 -0.271872 0)
(0.292032 -0.281088 0)
(0.292032 -0.290304 0)
(0.292032 -0.29952 0)
(0.292032 -0.308736 0)
(0.292032 -0.317952 0)
(0.292032 -0.327168 0)
(0.292032 -0.336384 0)
(0.292032 -0.3456 0)
(0.292032 -0.354816 0)
(0.292032 -0.364032 0)
(0.292032 -0.373248 0)
(0.292032 -0.382464 0)
(0.292032 -0.39168 0)
(0.292032 -0.400896 0)
(0.292032 -0.410112 0)
(0.292032 -0.419328 0)
(0.292032 -0.428544 0)
(0.292032 -0.43776 0)
(0.292032 -0.446976 0)
(0.292032 -0.456192 0)
(0.322752 -0.004608 0)
(0.322752 -0.013824 0)
(0.322752 -0.02304 0)
(0.322752 -0.032256 0)
(0.322752 -0.041472 0)
(0.322752 -0.050688 0)
(0.322752 -0.059904 0)
(0.322752 -0.06912 0)
(0.322752 -0.078336 0)
(0.322752 -0.087552 0)
(0.322752 -0.096768 0)
(0.322752 -0.105984 0)
(0.322752 -0.1152 0)
(0.322752 -0.124416 0)
(0.322752 -0.133632 0)
(0.322752 -0.142848 0)
(0.322752 -0.152064 0)
(0.322752 -0.16128 0)
(0.322752 -0.170496 0)
(0.322752 -0.179712 0)
(0.322752 -0.188928 0)
(0.322752 -0.198144 0)
(0.322752 -0.20736 0)
(0.322752 -0.216576 0)
(0.322752 -0.225792 0)
(0.322752 -0.235008 0)
(0.322752 -0.244224 0)
(0.322752 -0.25344 0)
(0.322752 -0.262656 0)
(0.322752 -0.271872 0)
(0.322752 -0.281088 0)
(0.322752 -0.290304 0)
(0.322752 -0.29952 0)
(0.322752 -0.308736 0)
(0.322752 -0.317952 0)
(0.322752 -0.327168 0)
(0.322752 -0.336384 0)
(0.322752 -0.3456 0)
(0.322752 -0.354816 0)
(0.322752 -0.364032 0)
(0.322752 -0.373248 0)
(0.322752 -0.382464 0)
(0.322752 -0.39168 0)
(0.322752 -0.400896 0)
(0.322752 -0.410112 0)
(0.322752 -0.419328 0)
(0.322752 -0.428544 0)
(0.322752 -0.43776 0)
(0.322752 -0.446976 0)
(0.322752 -0.456192 0)
(0.355008 -0.004608 0)
(0.355008 -0.013824 0)
(0.355008 -0.02304 0)
(0.355008 -0.032256 0)
(0.355008 -0.041472 0)
(0.355008 -0.050688 0)
(0.355008 -0.059904 0)
(0.355008 -0.06912 0)
(0.355008 -0.078336 0)
(0.355008 -0.087552 0)
(0.355008 -0.096768 0)
(0.355008 -0.105984 0)
(0.355008 -0.1152 0)
(0.355008 -0.124416 0)
(0.355008 -0.133632 0)
(0.355008 -0.142848 0)
(0.355008 -0.152064 0)
(0.355008 -0.16128 0)
(0.355008 -0.170496 0)
(0.355008 -0.179712 0)
(0.355008 -0.188928 0)
(0.355008 -0.198144 0)
(0.355008 -0.20736 0)
(0.355008 -0.216576 0)
(0.355008 -0.225792 0)
(0.355008 -0.235008 0)
(0.355008 -0.244224 0)
(0.355008 -0.25344 0)
(0.355008 -0.262656 0)
(0.355008 -0.271872 0)
(0.355008 -0.281088 0)
(0.355008 -0.290304 0)
(0.355008 -0.29952 0)
(0.355008 -0.308736 0)
(0.355008 -0.317952 0)
(0.355008 -0.327168 0)
(0.355008 -0.336384 0)
(0.355008 -0.3456 0)
(0.355008 -0.354816 0)
(0.355008 -0.364032 0)
(0.355008 -0.373248 0)
(0.355008 -0.382464 0)
(0.355008 -0.39168 0)
(0.355008 -0.400896 0)
(0.355008 -0.410112 0)
(0.355008 -0.419328 0)
(0.355008 -0.428544 0)
(0.355008 -0.43776 0)
(0.355008 -0.446976 0)
(0.355008 -0.456192 0)
(0.3888 -0.004608 0)
(0.3888 -0.013824 0)
(0.3888 -0.02304 0)
(0.3888 -0.032256 0)
(0.3888 -0.041472 0)
(0.3888 -0.050688 0)
(0.3888 -0.059904 0)
(0.3888 -0.06912 0)
(0.3888 -0.078336 0)
(0.3888 -0.087552 0)
(0.3888 -0.096768 0)
(0.3888 -0.105984 0)
(0.3888 -0.1152 0)
(0.3888 -0.124416 0)
(0.3888 -0.133632 0)
(0.3888 -0.142848 0)
(0.3888 -0.152064 0)
(0.3888 -0.16128 0)
(0.3888 -0.170496 0)
(0.3888 -0.179712 0)
(0.3888 -0.188928 0)
(0.3888 -0.198144 0)
(0.3888 -0.20736 0)
(0.3888 -0.216576 0)
(0.3888 -0.225792 0)
(0.3888 -0.235008 0)
(0.3888 -0.244224 0)
(0.3888 -0.25344 0)
(0.3888 -0.262656 0)
(0.3888 -0.271872 0)
(0.3888 -0.281088 0)
(0.3888 -0.290304 0)
(0.3888 -0.29952 0)
(0.3888 -0.308736 0)
(0.3888 -0.317952 0)
(0.3888 -0.327168 0)
(0.3888 -0.336384 0)
(0.3888 -0.3456 0)
(0.3888 -0.354816 0)
(0.3888 -0.364032 0)
(0.3888 -0.373248 0)
(0.3888 -0.382464 0)
(0.3888 -0.39168 0)
(0.3888 -0.400896 0)
(0.3888 -0.410112 0)
(0.3888 -0.419328 0)
(0.3888 -0.428544 0)
(0.3888 -0.43776 0)
(0.3888 -0.446976 0)
(0.3888 -0.456192 0)
(0.424128 -0.004608 0)
(0.424128 -0.013824 0)
(0.424128 -0.02304 0)
(0.424128 -0.032256 0)
(0.424128 -0.041472 0)
(0.424128 -0.050688 0)
(0.424128 -0.059904 0)
(0.424128 -0.06912 0)
(0.424128 -0.078336 0)
(0.424128 -0.087552 0)
(0.424128 -0.096768 0)
(0.424128 -0.105984 0)
(0.424128 -0.1152 0)
(0.424128 -0.124416 0)
(0.424128 -0.133632 0)
(0.424128 -0.142848 0)
(0.424128 -0.152064 0)
(0.424128 -0.16128 0)
(0.424128 -0.170496 0)
(0.424128 -0.179712 0)
(0.424128 -0.188928 0)
(0.424128 -0.198144 0)
(0.424128 -0.20736 0)
(0.424128 -0.216576 0)
(0.424128 -0.225792 0)
(0.424128 -0.235008 0)
(0.424128 -0.244224 0)
(0.424128 -0.25344 0)
(0.424128 -0.262656 0)
(0.424128 -0.271872 0)
(0.424128 -0.281088 0)
(0.424128 -0.290304 0)
(0.424128 -0.29952 0)
(0.424128 -0.308736 0)
(0.424128 -0.317952 0)
(0.424128 -0.327168 0)
(0.424128 -0.336384 0)
(0.424128 -0.3456 0)
(0.424128 -0.354816 0)
(0.424128 -0.364032 0)
(0.424128 -0.373248 0)
(0.424128 -0.382464 0)
(0.424128 -0.39168 0)
(0.424128 -0.400896 0)
(0.424128 -0.410112 0)
(0.424128 -0.419328 0)
(0.424128 -0.428544 0)
(0.424128 -0.43776 0)
(0.424128 -0.446976 0)
(0.424128 -0.456192 0)
(0.460992 -0.004608 0)
(0.460992 -0.013824 0)
(0.460992 -0.02304 0)
(0.460992 -0.032256 0)
(0.460992 -0.041472 0)
(0.460992 -0.050688 0)
(0.460992 -0.059904 0)
(0.460992 -0.06912 0)
(0.460992 -0.078336 0)
(0.460992 -0.087552 0)
(0.460992 -0.096768 0)
(0.460992 -0.105984 0)
(0.460992 -0.1152 0)
(0.460992 -0.124416 0)
(0.460992 -0.133632 0)
(0.460992 -0.142848 0)
(0.460992 -0.152064 0)
(0.460992 -0.16128 0)
(0.460992 -0.170496 0)
(0.460992 -0.179712 0)
(0.460992 -0.188928 0)
(0.460992 -0.198144 0)
(0.460992 -0.20736 0)
(0.460992 -0.216576 0)
(0.460992 -0.225792 0)
(0.460992 -0.235008 0)
(0.460992 -0.244224 0)
(0.460992 -0.25344 0)
(0.460992 -0.262656 0)
(0.460992 -0.271872 0)
(0.460992 -0.281088 0)
(0.460992 -0.290304 0)
(0.460992 -0.29952 0)
(0.460992 -0.308736 0)
(0.460992 -0.317952 0)
(0.460992 -0.327168 0)
(0.460992 -0.336384 0)
(0.460992 -0.3456 0)
(0.460992 -0.354816 0)
(0.460992 -0.364032 0)
(0.460992 -0.373248 0)
(0.460992 -0.382464 0)
(0.460992 -0.39168 0)
(0.460992 -0.400896 0)
(0.460992 -0.410112 0)
(0.460992 -0.419328 0)
(0.460992 -0.428544 0)
(0.460992 -0.43776 0)
(0.460992 -0.446976 0)
(0.460992 -0.456192 0)
(0.499392 -0.004608 0)
(0.499392 -0.013824 0)
(0.499392 -0.02304 0)
(0.499392 -0.032256 0)
(0.499392 -0.041472 0)
(0.499392 -0.050688 0)
(0.499392 -0.059904 0)
(0.499392 -0.06912 0)
(0.499392 -0.078336 0)
(0.499392 -0.087552 0)
(0.499392 -0.096768 0)
(0.499392 -0.105984 0)
(0.499392 -0.1152 0)
(0.499392 -0.124416 0)
(0.499392 -0.133632 0)
(0.499392 -0.142848 0)
(0.499392 -0.152064 0)
(0.499392 -0.16128 0)
(0.499392 -0.170496 0)
(0.499392 -0.179712 0)
(0.499392 -0.188928 0)
(0.499392 -0.198144 0)
(0.499392 -0.20736 0)
(0.499392 -0.216576 0)
(0.499392 -0.225792 0)
(0.499392 -0.235008 0)
(0.499392 -0.244224 0)
(0.499392 -0.25344 0)
(0.499392 -0.262656 0)
(0.499392 -0.271872 0)
(0.499392 -0.281088 0)
(0.499392 -0.290304 0)
(0.499392 -0.29952 0)
(0.499392 -0.308736 0)
(0.499392 -0.317952 0)
(0.499392 -0.327168 0)
(0.499392 -0.336384 0)
(0.499392 -0.3456 0)
(0.499392 -0.354816 0)
(0.499392 -0.364032 0)
(0.499392 -0.373248 0)
(0.499392 -0.382464 0)
(0.499392 -0.39168 0)
(0.499392 -0.400896 0)
(0.499392 -0.410112 0)
(0.499392 -0.419328 0)
(0.499392 -0.428544 0)
(0.499392 -0.43776 0)
(0.499392 -0.446976 0)
(0.499392 -0.456192 0)
(0.539328 -0.004608 0)
(0.539328 -0.013824 0)
(0.539328 -0.02304 0)
(0.539328 -0.032256 0)
(0.539328 -0.041472 0)
(0.539328 -0.050688 0)