/*--------------------------------*- C++ -*----------------------------------*\
| =========                 |                                                 |
| \\      /  F ield         | OpenFOAM: The Open Source CFD Toolbox           |
|  \\    /   O peration     | Version:  v2006                                 |
|   \\  /    A nd           | Website:  www.openfoam.com                      |
|    \\/     M anipulation  |                                                 |
\*---------------------------------------------------------------------------*/
FoamFile
{
    version     2.0;
    format      ascii;
    class       volScalarField;
    location    "0";
    object      f;
}
// * * * * * * * * * * * * * * * * * * * * * * * * * * * * * * * * * * * * * //

dimensions      [0 0 0 0 0 0 0];


internalField   nonuniform List<scalar> 
2500
(
4.99062e-08
1.56998e-07
4.46709e-07
2.56314e-07
-2.70313e-06
-1.22366e-06
8.7196e-06
7.88557e-06
-2.36909e-05
-3.33356e-05
3.57111e-05
0.000113396
-1.43684e-05
-0.000337589
-0.000256926
0.000360716
-0.0010689
-0.00923858
-0.0269536
-0.0494642
-0.063317
-0.0534645
-0.0142749
0.0354852
0.0537637
-0.0111114
-0.194205
-0.48319
-0.81236
-1.07642
-1.16662
-1.01301
-0.622322
-0.0790618
0.483917
0.936632
1.19468
1.23974
1.11063
0.878576
0.618391
0.38752
0.215196
0.104988
0.0444462
0.0161151
0.00500541
0.00140584
0.000396028
0.00018872
1.69918e-07
3.56002e-07
7.19763e-09
-2.02217e-06
-9.25618e-07
8.82362e-06
5.38826e-06
-2.53935e-05
-2.59747e-05
5.03385e-05
9.73955e-05
-5.94942e-05
-0.000342372
-0.000178542
0.000349462
-0.00142498
-0.00889969
-0.0220495
-0.0349614
-0.0377277
-0.0251286
-0.000877805
0.0144479
-0.00634992
-0.0857683
-0.224517
-0.393984
-0.553553
-0.6613
-0.693581
-0.654949
-0.577232
-0.503315
-0.465837
-0.472167
-0.505
-0.534909
-0.535939
-0.495948
-0.418918
-0.320525
-0.22014
-0.134504
-0.0722559
-0.0335775
-0.013163
-0.00418218
-0.00102341
-0.000170905
-3.38581e-05
4.44702e-07
2.20358e-07
-1.21161e-06
-2.07401e-06
4.64134e-06
1.07455e-05
-1.312e-05
-3.58974e-05
1.52474e-05
0.000102804
1.37884e-05
-0.00028145
-0.000368336
6.42169e-05
-0.00121055
-0.00809033
-0.0226156
-0.0412635
-0.054403
-0.0522121
-0.0319046
-0.00512545
-0.0016889
-0.0557615
-0.190317
-0.403276
-0.665283
-0.922601
-1.11463
-1.19157
-1.13174
-0.948073
-0.682788
-0.393258
-0.132044
0.0645535
0.183002
0.229565
0.223093
0.186321
0.138949
0.0942009
0.0583779
0.0329058
0.0167475
0.00761433
0.00302975
0.00102336
0.000285864
5.91709e-05
6.77102e-07
-6.4746e-07
-2.10064e-06
5.46461e-07
1.10064e-05
2.99874e-06
-3.95882e-05
-2.35548e-05
9.42095e-05
0.000100742
-0.000207064
-0.000542206
-0.000309424
-0.00103033
-0.00709845
-0.0225376
-0.045342
-0.065483
-0.0688547
-0.0484405
-0.0131932
0.00207284
-0.0465998
-0.193738
-0.444174
-0.764044
-1.08886
-1.34358
-1.46852
-1.43914
-1.27377
-1.02426
-0.755612
-0.522278
-0.352461
-0.248308
-0.192966
-0.163966
-0.142527
-0.118615
-0.0906378
-0.0621233
-0.0378629
-0.0203848
-0.00955881
-0.00385398
-0.00134083
-0.000419067
-0.000120008
-5.0281e-05
6.66509e-07
-2.24325e-06
-1.31686e-06
7.02663e-06
1.30592e-05
-2.34062e-05
-5.59725e-05
4.6329e-05
0.000154174
-7.52922e-05
-0.000594035
-0.000696347
-0.0011108
-0.0059779
-0.0212865
-0.047336
-0.0750241
-0.0871851
-0.0712501
-0.0314164
-0.00182779
-0.0342161
-0.176892
-0.448042
-0.821192
-1.22869
-1.58275
-1.80325
-1.84412
-1.70533
-1.43034
-1.08782
-0.747375
-0.459112
-0.246594
-0.108798
-0.0306331
0.00752973
0.0229497
0.0270611
0.025921
0.0219395
0.0164833
0.0109348
0.00632629
0.0031092
0.00126596
0.000405374
9.81648e-05
7.35824e-06
7.57722e-08
-3.6106e-06
3.59964e-06
1.2566e-05
8.69352e-08
-5.75364e-05
-2.59256e-05
0.000156986
8.00111e-05
-0.000497557
-0.00104567
-0.00141865
-0.00504334
-0.0188896
-0.0468236
-0.0818209
-0.104776
-0.0969817
-0.0551298
-0.00950364
-0.0187472
-0.147549
-0.432119
-0.857041
-1.35287
-1.81548
-2.13992
-2.2549
-2.14424
-1.84851
-1.44693
-1.02851
-0.663876
-0.390457
-0.212735
-0.112643
-0.063783
-0.041867
-0.0306016
-0.0222503
-0.0148582
-0.0090665
-0.0051376
-0.00281099
-0.00156128
-0.00090128
-0.000493876
-0.000238338
-9.67818e-05
-3.72126e-05
-9.79466e-07
-3.07705e-06
1.22541e-05
9.91509e-06
-3.09807e-05
-7.56107e-05
7.48432e-05
0.000197916
-0.000282027
-0.00117014
-0.00186557
-0.00442755
-0.0159752
-0.0436491
-0.0843924
-0.119407
-0.123867
-0.0851179
-0.0249678
-0.0062972
-0.108874
-0.390416
-0.853036
-1.43196
-2.01082
-2.45798
-2.67264
-2.61471
-2.31481
-1.85764
-1.34941
-0.883495
-0.517033
-0.266376
-0.117219
-0.0405892
-0.00699462
0.00579723
0.0102441
0.0115539
0.0107696
0.00863358
0.00596072
0.00346551
0.00168433
0.000672099
0.000213485
5.48357e-05
1.21426e-05
8.85172e-06
-1.86782e-06
1.23491e-06
1.94767e-05
-1.13186e-05
-6.53826e-05
-4.00816e-05
0.000194223
3.83475e-06
-0.00102012
-0.00221514
-0.00425015
-0.0130586
-0.038238
-0.0818469
-0.128697
-0.148992
-0.119771
-0.0500466
-0.00155152
-0.065656
-0.32362
-0.802667
-1.45205
-2.14875
-2.73615
-3.07761
-3.10068
-2.81773
-2.31454
-1.71538
-1.14041
-0.672577
-0.344288
-0.146476
-0.0460872
-0.00555138
0.0058149
0.00668432
0.00547542
0.00401006
0.00249069
0.00114278
7.39066e-05
-0.000488908
-0.000607571
-0.000458892
-0.000247082
-0.000104296
-3.41229e-05
-3.66057e-06
-1.4772e-06
8.66839e-06
1.70883e-05
-5.12814e-05
-7.68604e-05
5.72196e-05
0.000202691
-0.000623158
-0.00223994
-0.00430894
-0.0106825
-0.0314134
-0.0741915
-0.12998
-0.168364
-0.155579
-0.0856552
-0.0094733
-0.0253456
-0.237455
-0.703721
-1.39786
-2.20114
-2.9367
-3.43077
-3.57026
-3.33806
-2.81211
-2.13107
-1.44316
-0.86164
-0.440727
-0.180804
-0.0468555
0.00676171
0.0198573
0.0180728
0.01384
0.0100729
0.00689903
0.00429258
0.00222044
0.000836853
0.000150217
-7.06762e-05
-3.88541e-05
-6.04784e-07
1.66824e-05
1.50006e-05
1.29972e-05
1.02907e-06
1.51202e-05
-3.53245e-06
-9.54194e-05
-3.52427e-05
0.000132594
-0.000111546
-0.00183645
-0.00424915
-0.00902315
-0.0245251
-0.0624064
-0.121925
-0.177473
-0.187581
-0.128547
-0.0326732
0.0037758
-0.142178
-0.561238
-1.26208
-2.14409
-3.02178
-3.68687
-3.97966
-3.84139
-3.32911
-2.58745
-1.79149
-1.0889
-0.563317
-0.230316
-0.0559266
0.0133687
0.0279516
0.0222921
0.0140229
0.00790867
0.00385651
0.0013636
-5.99075e-05
-0.000760082
-0.000874027
-0.000665797
-0.000354572
-0.000146716
-4.10205e-05
-9.39672e-07
4.882e-06
3.0523e-06
5.03418e-06
1.44895e-05
-4.26669e-05
-0.000119794
4.36531e-05
5.66313e-05
-0.000946938
-0.00375398
-0.00785431
-0.0186117
-0.048468
-0.10516
-0.172904
-0.208805
-0.172261
-0.0709554
0.0132919
-0.052222
-0.388985
-1.04815
-1.96246
-2.95512
-3.79394
-4.27102
-4.27513
-3.82614
-3.06078
-2.17537
-1.35334
-0.714647
-0.297325
-0.0734195
0.016984
0.0353622
0.0265769
0.0146958
0.00676854
0.00236672
0.000298723
-0.000496094
-0.000810449
-0.000748737
-0.000500679
-0.000211962
-3.73687e-05
3.51244e-05
4.43372e-05
2.54243e-05
1.12685e-05
2.4483e-06
8.4977e-06
1.48283e-06
-9.12033e-05
-0.000107466
9.36201e-05
-0.000351336
-0.0024416
-0.00664975
-0.0140982
-0.0348452
-0.0822115
-0.153354
-0.212596
-0.20791
-0.118944
-0.00154588
0.0166281
-0.209238
-0.773142
-1.65695
-2.71291
-3.70364
-4.38065
-4.5731
-4.24696
-3.51228
-2.57281
-1.64614
-0.892985
-0.382354
-0.0999017
0.0172486
0.0416254
0.0298657
0.0138092
0.00385919
-0.00081276
-0.00219525
-0.0020476
-0.00168433
-0.00120366
-0.000720076
-0.000314629
-7.34215e-05
2.74078e-05
4.51089e-05
2.45286e-05
8.69617e-06
1.16415e-06
-2.97543e-06
9.26577e-06
-2.47558e-05
-0.000134782
-6.79175e-05
3.25161e-05
-0.00118887
-0.00458763
-0.010632
-0.0235016
-0.0572951
-0.121149
-0.194702
-0.225121
-0.166947
-0.0397433
0.0506522
-0.0485038
-0.468487
-1.24846
-2.29184
-3.38143
-4.24716
-4.6608
-4.52012
-3.88545
-2.9477
-1.94851
-1.09122
-0.483916
-0.135447
0.0145114
0.0479534
0.0337886
0.0131711
0.0010356
-0.00380149
-0.00429953
-0.00301594
-0.00191281
-0.00107447
-0.000483635
-0.000106488
8.10687e-05
0.000124837
9.67062e-05
4.76113e-05
1.6144e-05
1.63303e-06
-2.13079e-06
-2.33742e-06
6.39907e-06
-6.05839e-05
-0.000161512
8.19378e-06
-0.000155268
-0.0023545
-0.00699094
-0.0150619
-0.0348237
-0.0822244
-0.155661
-0.215284
-0.20051
-0.0917571
0.0442577
0.0674244
-0.176247
-0.781256
-1.71867
-2.82095
-3.82663
-4.46568
-4.56328
-4.10665
-3.24674
-2.22931
-1.29553
-0.598182
-0.179773
0.00883837
0.0548203
0.0391025
0.0134806
-0.00127942
-0.00648695
-0.00612678
-0.00367177
-0.00187135
-0.000767717
-0.000173071
9.88935e-05
0.00019347
0.000171763
0.00010637
4.26508e-05
6.63406e-06
-6.07435e-06
-6.67998e-06
-3.68254e-06
-1.04498e-06
2.13676e-06
-9.91965e-05
-0.000123316
0.000206616
-0.000285451
-0.00328566
-0.00832799
-0.017691
-0.0443395
-0.102383
-0.175026
-0.205229
-0.140845
0.00288354
0.120115
0.0584653
-0.318249
-1.0528
-2.05474
-3.10843
-3.93539
-4.29675
-4.09175
-3.40015
-2.44239
-1.48117
-0.715663
-0.230767
-0.000220026
0.0616589
0.0458899
0.0150625
-0.0028768
-0.0087401
-0.0075551
-0.00390261
-0.00143818
-0.000165844
0.000317145
0.000393328
0.000337635
0.00022587
0.000115302
3.65685e-05
-2.7529e-06
-1.27899e-05
-9.55498e-06
-4.27634e-06
-1.17866e-06
6.46099e-07
5.30293e-06
-9.29694e-05
0.000124695
0.000804926
0.000223385
-0.00253587
-0.00574212
-0.0143585
-0.0464118
-0.110254
-0.171794
-0.164834
-0.0551231
0.10795
0.200439
0.0712098
-0.383089
-1.16244
-2.13539
-3.05955
-3.66357
-3.75841
-3.32631
-2.52545
-1.61141
-0.820058
-0.28422
-0.0129199
0.0678387
0.05371
0.0176946
-0.00401714
-0.010826
-0.00888185
-0.00399369
-0.000865665
0.000510942
0.00080192
0.000624314
0.000401712
0.000210061
7.51105e-05
1.20461e-06
-2.66738e-05
-2.59762e-05
-1.44714e-05
-5.46278e-06
-7.9416e-07
5.77849e-07
8.47146e-07
5.24174e-05
8.36585e-05
0.00089365
0.00238011
0.00261722
0.00263959
0.00517173
-9.43544e-05
-0.0359974
-0.102348
-0.147206
-0.102919
0.0476476
0.234866
0.327188
0.188246
-0.265253
-1.0102
-1.89049
-2.65331
-3.04816
-2.94619
-2.40569
-1.63531
-0.884264
-0.329749
-0.0272102
0.0726073
0.0615274
0.0209184
-0.00507853
-0.0131069
-0.0104342
-0.00422451
-0.000362014
0.00112245
0.00119074
0.000742765
0.000367508
0.000126993
7.2212e-08
-4.76601e-05
-5.16333e-05
-3.56107e-05
-1.58147e-05
-3.96756e-06
9.62187e-07
1.76064e-06
1.11143e-06
3.71951e-07
0.000238416
0.000688028
0.00272677
0.00592166
0.00900562
0.0161207
0.0290299
0.0282029
-0.0135107
-0.0828409
-0.110719
-0.0254574
0.177871
0.420637
0.571721
0.495501
0.108497
-0.557934
-1.33255
-1.95576
-2.20483
-2.01197
-1.49256
-0.869738
-0.350144
-0.0388175
0.0753176
0.0686141
0.024312
-0.00645543
-0.0158546
-0.0123944
-0.0047921
-5.04051e-05
0.00158856
0.00143549
0.000729103
0.000232074
-1.55267e-05
-9.85864e-05
-0.000100395
-7.14972e-05
-3.84208e-05
-1.26268e-05
1.05817e-07
3.80562e-06
3.12711e-06
1.48364e-06
4.70758e-07
-1.57662e-07
0.000738203
0.00213396
0.00637375
0.0127806
0.0220523
0.0415782
0.0677339
0.0680505
0.0134977
-0.0630271
-0.0698796
0.0721311
0.362867
0.716694
0.992619
1.03337
0.738133
0.142784
-0.559316
-1.10274
-1.29618
-1.12324
-0.730053
-0.319735
-0.0381507
0.0773492
0.0739209
0.0271546
-0.00825757
-0.0190276
-0.0147203
-0.00573546
5.92599e-05
0.00193353
0.00158719
0.000634534
4.74542e-05
-0.000172617
-0.000186178
-0.00013265
-7.21072e-05
-2.7202e-05
-1.6851e-06
7.68523e-06
7.78509e-06
4.52582e-06
1.69617e-06
2.43499e-07
-1.95252e-07
-2.86925e-07
0.00179666
0.00489499
0.0125654
0.0242418
0.0437515
0.079774
0.117337
0.108627
0.0307267
-0.0540943
-0.0234156
0.208458
0.634488
1.15573
1.59805
1.76336
1.5328
0.960635
0.271092
-0.265526
-0.488917
-0.419675
-0.206282
-0.010865
0.0820799
0.0767029
0.0287632
-0.0105048
-0.0226089
-0.0174629
-0.00699245
4.8324e-05
0.00225255
0.00173018
0.000535211
-0.000123636
-0.000300813
-0.000235322
-0.00013005
-4.85399e-05
-2.52339e-06
1.49484e-05
1.63174e-05
1.10177e-05
4.87744e-06
1.11138e-06
-3.7796e-07
-5.75183e-07
-3.62682e-07
-1.02499e-07
0.00360061
0.00921309
0.0214985
0.0404564
0.0732291
0.125776
0.166132
0.134164
0.0250146
-0.055768
0.0399564
0.398744
1.00044
1.71332
2.31183
2.55759
2.32916
1.71792
0.983942
0.397665
0.0905929
0.0237333
0.0640606
0.096548
0.0774806
0.0278527
-0.0134839
-0.026445
-0.0204061
-0.00847761
8.06687e-06
0.00263038
0.00193361
0.000480524
-0.000244793
-0.000375398
-0.000237446
-9.40666e-05
-6.3851e-06
2.89661e-05
3.17585e-05
2.22867e-05
1.12983e-05
3.23948e-06
-5.25847e-07
-1.42228e-06
-1.02339e-06
-4.5325e-07
-1.21151e-07
7.1893e-08
0.00599029
0.014586
0.0319664
0.0588351
0.104597
0.16797
0.197743
0.129875
-0.00675526
-0.0626424
0.124455
0.631139
1.40939
2.28335
2.97904
3.23117
2.94029
2.24622
1.43996
0.784892
0.389036
0.207689
0.131585
0.0783742
0.0237247
-0.0174308
-0.0305165
-0.0234667
-0.0100328
-5.36826e-05
0.00306062
0.00221437
0.000484038
-0.000312865
-0.000404636
-0.00021027
-4.26176e-05
3.90135e-05
5.56749e-05
4.1002e-05
2.14752e-05
6.85356e-06
-8.72426e-07
-3.09291e-06
-2.63196e-06
-1.35172e-06
-4.17628e-07
4.23067e-09
9.68662e-08
9.17599e-08
0.0080236
0.0191211
0.040357
0.0727738
0.126777
0.19126
0.198797
0.0923855
-0.0570258
-0.072286
0.208579
0.83789
1.73846
2.6985
3.40929
3.60264
3.21612
2.43584
1.57224
0.874666
0.432923
0.200194
0.0840813
0.01627
-0.0233465
-0.0349654
-0.0264791
-0.0115833
-0.000132443
0.00350105
0.00255092
0.000525945
-0.000350847
-0.000415484
-0.000181792
2.57205e-06
7.20734e-05
6.78552e-05
3.81216e-05
1.24935e-05
-1.75393e-06
-6.3718e-06
-5.637e-06
-3.30511e-06
-1.20806e-06
-9.24573e-08
2.51228e-07
2.14034e-07
1.11193e-07
1.48157e-08
0.00756974
0.0190869
0.0402576
0.0722869
0.12711
0.185167
0.167107
0.0316969
-0.122271
-0.106215
0.223138
0.897245
1.82669
2.78462
3.44765
3.55834
3.09083
2.26707
1.40244
0.727492
0.311242
0.101407
0.00683426
-0.0319384
-0.0399563
-0.0291672
-0.0127797
-0.000195272
0.00387831
0.00290076
0.000582907
-0.000390865
-0.000440358
-0.000171848
2.81591e-05
8.67659e-05
6.5072e-05
2.47157e-05
-1.55089e-06
-1.14004e-05
-1.08964e-05
-6.68214e-06
-2.72316e-06
-3.18638e-07
5.5483e-07
5.83189e-07
3.21105e-07
1.0721e-07
1.05235e-08
-3.49181e-08
0.0013125
0.00927461
0.0238059
0.0478593
0.0985913
0.15124
0.115821
-0.0427114
-0.215405
-0.220924
0.0642606
0.674202
1.53912
2.43672
3.03694
3.09096
2.60225
1.81279
1.02981
0.456464
0.136041
-0.00153111
-0.0433268
-0.0454601
-0.0312962
-0.0134155
-0.000237012
0.00420528
0.00319922
0.000634943
-0.000441627
-0.000484482
-0.000181083
3.72788e-05
8.97035e-05
5.4292e-05
8.01496e-06
-1.4859e-05
-1.79973e-05
-1.19688e-05
-5.08154e-06
-6.15684e-07
1.20707e-06
1.32854e-06
8.31397e-07
3.22862e-07
4.23841e-08
-4.74344e-08
-4.5282e-08
-2.30708e-08
-0.0143309
-0.015141
-0.0144844
-0.00296919
0.0472334
0.105917
0.0637748
-0.131495
-0.37167
-0.489709
-0.35956
0.0928887
0.841169
1.67184
2.24212
2.30377
1.87902
1.21377
0.593655
0.185185
-0.00455653
-0.056242
-0.051488
-0.0327792
-0.0132131
-6.69525e-05
0.00447062
0.00342902
0.000678171
-0.000507546
-0.000548524
-0.000201873
4.13728e-05
9.05788e-05
4.44067e-05
-4.74624e-06
-2.27058e-05
-1.8915e-05
-8.7441e-06
-1.07345e-06
2.32633e-06
2.71447e-06
1.79452e-06
7.68496e-07
1.27945e-07
-1.11196e-07
-1.26217e-07
-6.91148e-08
-2.4874e-08
5.38693e-09
-0.0410227
-0.0551118
-0.0722096
-0.0702803
-0.00731236
0.0726272
0.0168589
-0.250822
-0.631362
-0.953173
-1.05621
-0.800654
-0.164611
0.63554
1.23343
1.37894
1.10013
0.631583
0.22419
-0.0010998
-0.0679129
-0.0578499
-0.0331877
-0.0118851
0.000621269
0.00474439
0.00355299
0.000671074
-0.000596567
-0.000615302
-0.00021954
5.15601e-05
9.83206e-05
4.12885e-05
-1.07093e-05
-2.40416e-05
-1.49487e-05
-2.94385e-06
3.53688e-06
4.66779e-06
3.30517e-06
1.50059e-06
2.703e-07
-2.54686e-07
-3.09143e-07
-1.88629e-07
-7.05698e-08
-8.23288e-09
9.59312e-09
1.24452e-08
-0.0755064
-0.103791
-0.135558
-0.132064
-0.0398917
0.0652465
-0.0269008
-0.415978
-0.992066
-1.55774
-1.9037
-1.82298
-1.25894
-0.443687
0.234941
0.521876
0.438951
0.194909
-0.00214505
-0.0755985
-0.0631715
-0.0318354
-0.0090998
0.00215465
0.00502195
0.00344503
0.000580474
-0.000700768
-0.000679551
-0.000223239
7.46474e-05
0.000113607
4.31681e-05
-1.24325e-05
-2.22849e-05
-9.59913e-06
2.39711e-06
6.52734e-06
5.20024e-06
2.50906e-06
4.28901e-07
-5.19912e-07
-6.6005e-07
-4.39111e-07
-1.794e-07
-2.62877e-08
2.64017e-08
2.61607e-08
1.44285e-08
2.49971e-09
-0.10734
-0.145092
-0.181703
-0.163692
-0.0358307
0.0803825
-0.0725628
-0.600042
-1.36013
-2.12925
-2.66262
-2.70536
-2.17873
-1.32431
-0.543481
-0.0999733
0.00920036
-0.0397585
-0.0805375
-0.064781
-0.0281699
-0.00465496
0.00476879
0.00545591
0.00313587
0.000394133
-0.000822743
-0.000725616
-0.00020919
0.000104788
0.000131615
4.53429e-05
-1.43033e-05
-2.12793e-05
-5.97299e-06
5.23276e-06
7.0345e-06
3.82517e-06
7.20157e-07
-9.36999e-07
-1.20344e-06
-8.44504e-07
-3.77839e-07
-6.30427e-08
6.17029e-08
7.01568e-08
3.89383e-08
1.30557e-08
1.18568e-09
-4.26745e-09
-0.120009
-0.157935
-0.188951
-0.153666
-0.00187103
0.112997
-0.0921309
-0.703678
-1.55086
-2.41788
-3.06093
-3.19275
-2.70273
-1.82566
-0.96706
-0.407328
-0.167119
-0.0967628
-0.0600919
-0.0211897
0.00200488
0.00862254
0.00632496
0.00271298
4.75741e-05
-0.000977657
-0.000750853
-0.000177598
0.000141532
0.000148903
4.46588e-05
-1.88044e-05
-2.29396e-05
-4.88687e-06
5.68268e-06
5.79626e-06
1.67865e-06
-1.08055e-06
-1.87302e-06
-1.38922e-06
-6.46734e-07
-1.03458e-07
1.34914e-07
1.59156e-07
9.87814e-08
3.63393e-08
3.45961e-09
-6.21145e-09
-5.41082e-09
-2.48163e-09
-0.0973258
-0.126763
-0.150683
-0.113362
0.0425912
0.171794
-0.00964683
-0.571898
-1.35572
-2.20574
-2.90798
-3.13487
-2.72149
-1.87844
-1.01437
-0.428226
-0.153273
-0.0526875
-0.00884007
0.0115435
0.0139231
0.00780415
0.00219187
-0.000525234
-0.00116575
-0.000749581
-0.000123534
0.000184194
0.000160945
3.90381e-05
-2.68429e-05
-2.62641e-05
-5.07665e-06
5.39233e-06
4.45133e-06
5.62521e-08
-2.0566e-06
-1.97933e-06
-9.68579e-07
-1.30885e-07
2.71375e-07
3.15699e-07
2.06949e-07
8.30689e-08
8.59074e-09
-1.61674e-08
-1.52756e-08
-7.5719e-09
-2.4181e-09
8.36549e-10
-0.0338961
-0.0536428
-0.0853366
-0.0716662
0.0894257
0.299197
0.274988
-0.0777433
-0.664549
-1.42622
-2.18046
-2.53876
-2.2676
-1.54466
-0.779104
-0.275037
-0.0556244
0.00985001
0.0244895
0.0204781
0.00988018
0.00164502
-0.00131195
-0.00137514
-0.000709768
-4.3326e-05
0.000226753
0.000163624
2.74291e-05
-3.62555e-05
-2.9127e-05
-4.54302e-06
5.93288e-06
4.00084e-06
-5.41221e-07
-2.06548e-06
-1.40336e-06
-2.33409e-07
4.23184e-07
5.3209e-07
3.59134e-07
1.4907e-07
1.1093e-08
-4.0006e-08
-3.89753e-08
-2.06989e-08
-6.36998e-09
1.14408e-10
1.49363e-09
1.3551e-09
0.0558849
0.0363981
-0.0267704
-0.052287
0.148268
0.539076
0.801347
0.764159
0.434331
-0.219857
-1.03584
-1.56375
-1.50383
-0.992746
-0.426587
-0.0843665
0.030115
0.0411366
0.0281745
0.0122354
0.00134249
-0.00214347
-0.00159648
-0.000642378
5.38958e-05
0.000262521
0.000156828
1.22768e-05
-4.42223e-05
-2.98278e-05
-2.44399e-06
7.39999e-06
4.29572e-06
-5.29646e-07
-1.68427e-06
-7.0724e-07
3.59994e-07
7.10545e-07
5.24626e-07
2.17128e-07
-2.04789e-09
-8.63837e-08
-8.29433e-08
-4.68722e-08
-1.4751e-08
9.54967e-10
4.71656e-09
3.24057e-09
1.46929e-09
8.14984e-12
0.138687
0.105527
-0.00346568
-0.0545143
0.23604
0.873333
1.46036
1.73238
1.64507
1.10435
0.239325
-0.473245
-0.671752
-0.434894
-0.118814
0.0418291
0.060003
0.0363677
0.0143598
0.00122533
-0.0028132
-0.00188285
-0.000567316
0.000162324
0.000294285
0.000143584
-3.43194e-06
-5.05257e-05
-2.90051e-05
3.39957e-07
9.05418e-06
4.69838e-06
-5.13804e-07
-1.49458e-06
-3.54382e-07
5.58049e-07
6.53654e-07
2.94828e-07
-2.08409e-08
-1.5679e-07
-1.47043e-07
-8.41072e-08
-2.64332e-08
4.57569e-09
1.23157e-08
8.92943e-09
3.76201e-09
7.35763e-10
-2.91093e-10
-5.75407e-10
0.176942
0.124705
-0.0163098
-0.0609897
0.323387
1.16015
1.97326
2.45222
2.5709
2.18079
1.32001
0.445128
-0.00865159
-0.0421282
0.0508293
0.0748139
0.0434881
0.0156563
0.000799654
-0.00331852
-0.00215126
-0.00043835
0.000301933
0.000329627
0.000125044
-2.21975e-05
-5.708e-05
-2.7535e-05
3.48491e-06
1.0696e-05
4.89071e-06
-8.79355e-07
-1.72588e-06
-3.74405e-07
4.79117e-07
4.36531e-07
3.01074e-08
-1.97666e-07
-2.16527e-07
-1.25412e-07
-3.5269e-08
1.47884e-08
2.74144e-08
2.00563e-08
8.75495e-09
1.51918e-09
-1.10626e-09
-1.18666e-09
-6.63192e-10
-1.12204e-10
0.151803
0.0952515
-0.0388046
-0.0791617
0.301121
1.15286
1.9981
2.56177
2.8765
2.70993
1.93776
0.973581
0.340709
0.12332
0.081435
0.0459412
0.0144647
-0.000620938
-0.00373124
-0.00219191
-0.000180399
0.000475702
0.000354007
8.93122e-05
-4.98838e-05
-6.41176e-05
-2.44639e-05
7.84526e-06
1.24737e-05
4.62092e-06
-1.70566e-06
-2.22384e-06
-4.91731e-07
4.10419e-07
2.96712e-07
-1.0158e-07
-2.33312e-07
-1.61676e-07
-4.04892e-08
3.3295e-08
5.04504e-08
3.68472e-08
1.64129e-08
2.24871e-09
-3.16401e-09
-3.30946e-09
-1.70771e-09
-5.03096e-10
6.17511e-12
2.13158e-10
0.0786441
0.0496833
-0.0447326
-0.155611
0.0181356
0.62954
1.32567
1.89915
2.41916
2.54753
1.96707
1.04465
0.377084
0.109556
0.03787
0.00783129
-0.00408132
-0.0043412
-0.00190637
0.000195525
0.000639113
0.000344242
3.51277e-05
-8.15806e-05
-6.6542e-05
-1.69675e-05
1.35345e-05
1.36753e-05
3.46578e-06
-2.91902e-06
-2.65703e-06
-4.00939e-07
5.30945e-07
3.1308e-07
-1.00211e-07
-1.74532e-07
-6.2202e-08
4.31674e-08
7.64603e-08
5.55104e-08
2.37922e-08
1.17499e-09
-7.67849e-09
-7.46002e-09
-4.04973e-09
-1.15285e-09
1.37995e-10
3.87225e-10
2.58089e-10
7.31214e-11
-5.49073e-06
0.0250662
-0.0432982
-0.358061
-0.601536
-0.420273
0.0508821
0.6008
1.29542
1.75229
1.47894
0.765532
0.223106
0.0260025
-0.00826287
-0.0109212
-0.00593617
-0.00129024
0.000701787
0.000798735
0.000316325
-2.04567e-05
-0.000107647
-6.33558e-05
-6.51417e-06
1.84235e-05
1.30656e-05
1.34225e-06
-4.05224e-06
-2.70426e-06
-1.23389e-08
7.6842e-07
3.71383e-07
-8.32053e-08
-1.2659e-07
4.19347e-09
7.66432e-08
7.05466e-08
2.82798e-08
-3.23278e-09
-1.56018e-08
-1.40279e-08
-7.62692e-09
-2.06168e-09
6.10789e-10
1.09349e-09
6.83504e-10
2.50676e-10
3.45132e-11
-6.82891e-11
-0.0438342
0.0328323
-0.0656502
-0.677769
-1.40802
-1.67373
-1.39978
-0.932805
-0.185656
0.584155
0.723054
0.356258
0.042489
-0.0347095
-0.0235123
-0.00925819
-0.00072967
0.00140809
0.00100159
0.000299381
-7.89886e-05
-0.000133133
-5.8979e-05
4.22598e-06
2.14597e-05
1.12284e-05
-8.45561e-07
-4.53666e-06
-2.23909e-06
4.82651e-07
9.33157e-07
3.35785e-07
-1.2493e-07
-1.25754e-07
1.96875e-08
6.44863e-08
3.5885e-08
-6.73269e-09
-2.42283e-08
-2.13106e-08
-1.11577e-08
-2.40481e-09
1.90835e-09
2.55595e-09
1.63629e-09
5.81127e-10
3.53524e-11
-1.15528e-10
-9.11286e-11
-3.60531e-11
-0.0423844
0.0501587
-0.11304
-0.925642
-1.95187
-2.50267
-2.38205
-2.13816
-1.55498
-0.56283
0.0232771
0.0323155
-0.0568705
-0.0428202
-0.0148214
-0.000802805
0.0021924
0.00119897
0.000259118
-0.000154895
-0.000162086
-5.14436e-05
1.62821e-05
2.42086e-05
8.8333e-06
-2.68162e-06
-4.64632e-06
-1.69777e-06
8.05179e-07
9.22913e-07
2.09174e-07
-1.96455e-07
-1.40866e-07
1.5409e-08
4.12672e-08
5.44071e-09
-2.50525e-08
-2.68943e-08
-1.32192e-08
-1.32025e-09
4.48225e-09
4.91952e-09
3.03475e-09
1.07083e-09
-4.16344e-11
-3.35466e-10
-2.48584e-10
-1.03466e-10
-2.2791e-11
2.02837e-11
-0.0177114
0.0474671
-0.0962478
-0.658983
-1.46246
-2.03717
-2.08863
-2.29028
-2.24345
-1.28904
-0.376581
-0.102896
-0.0616458
-0.0219634
-0.00163375
0.00275703
0.00130698
0.000182631
-0.000227599
-0.000175962
-3.24154e-05
3.09964e-05
2.63061e-05
5.15518e-06
-4.74067e-06
-4.65686e-06
-1.15134e-06
1.07003e-06
8.84047e-07
9.06902e-08
-2.43118e-07
-1.41229e-07
1.95213e-08
3.3094e-08
-4.59321e-09
-2.23222e-08
-1.4838e-08
1.91378e-10
7.49129e-09
7.68941e-09
4.47519e-09
1.38527e-09
-3.74365e-10
-8.23023e-10
-5.95448e-10
-2.39753e-10
-3.52485e-11
3.15013e-11
2.99841e-11
1.45013e-11
0.00117891
0.0216084
0.214034
0.131432
-0.300097
-0.666501
-0.944706
-1.21925
-1.67114
-1.32955
-0.421108
-0.0845677
-0.0252024
-0.0024068
0.00270096
0.00122268
4.90418e-05
-0.000287615
-0.000164351
-3.33772e-06
4.32429e-05
2.42195e-05
-2.79962e-07
-7.09537e-06
-4.2126e-06
-3.58721e-07
1.37712e-06
8.09226e-07
-5.09838e-08
-2.84421e-07
-1.33554e-07
3.57345e-08
4.30797e-08
-1.54757e-09
-1.25518e-08
-3.49301e-09
7.57219e-09
9.10829e-09
5.2302e-09
1.03313e-09
-1.2239e-09
-1.62493e-09
-1.11075e-09
-4.4619e-10
-2.83707e-11
9.97858e-11
8.46445e-11
3.77474e-11
9.93561e-12
-5.88166e-12
0.00399885
-0.00136632
0.485743
0.997301
0.827413
0.364702
-0.0900825
-0.143103
-0.453657
-0.663336
-0.243615
-0.0170958
0.00157077
0.00289063
0.000661832
-0.000313388
-0.0003792
-0.000135614
3.2158e-05
5.01495e-05
1.80271e-05
-5.48935e-06
-8.29138e-06
-2.91049e-06
7.54014e-07
1.55594e-06
5.99453e-07
-2.38662e-07
-3.17345e-07
-9.38628e-08
6.92859e-08
5.87413e-08
-6.88472e-11
-1.00592e-08
-5.79239e-10
6.78383e-09
5.31899e-09
5.67041e-10
-2.15698e-09
-2.54756e-09
-1.59438e-09
-5.69745e-10
6.79926e-11
2.61231e-10
2.02884e-10
8.71623e-11
1.59989e-11
-8.94364e-12
-9.62576e-12
-5.10251e-12
-4.75358e-05
-0.00509783
0.453653
1.44015
1.6649
1.05923
0.605609
0.579581
0.492811
0.0804554
-0.0478642
0.0200745
0.00598888
-0.000450774
-0.00103128
-0.000537694
-8.57155e-05
7.89722e-05
5.62299e-05
1.1466e-05
-9.32574e-06
-8.19572e-06
-1.5149e-06
1.58006e-06
1.37037e-06
2.28925e-07
-4.02522e-07
-2.92164e-07
-1.44803e-08
9.96348e-08
5.52775e-08
-1.08514e-08
-1.76324e-08
-2.35842e-09
3.65377e-09
1.81719e-09
-2.02328e-09
-2.84678e-09
-1.81978e-09
-4.5726e-10
3.2981e-10
5.14821e-10
3.70625e-10
1.56974e-10
1.47776e-11
-3.09821e-11
-2.78823e-11
-1.26894e-11
-3.49889e-12
1.80964e-12
-0.0016799
-0.0003681
0.183172
1.13543
1.91251
1.70815
1.4238
1.39725
1.15624
0.466688
0.0448285
0.0177615
-0.000296069
-0.00203569
-0.000816261
-4.25423e-05
0.000126039
6.15933e-05
3.43146e-06
-1.33297e-05
-8.06707e-06
-1.95503e-07
2.11925e-06
1.12835e-06
-1.02675e-07
-4.40136e-07
-1.82928e-07
6.7247e-08
1.04915e-07
3.15073e-08
-2.68021e-08
-2.30734e-08
-9.78318e-10
3.96571e-09
1.1552e-09
-1.82185e-09
-1.69325e-09
-2.56763e-10
6.34305e-10
8.00504e-10
5.17023e-10
1.92763e-10
-1.57887e-11
-8.23082e-11
-6.52024e-11
-2.84221e-11
-5.3265e-12
2.8499e-12
3.11418e-12
1.70792e-12
-0.00135088
0.00152544
-0.0224553
0.358746
1.32771
1.90817
1.90336
1.63495
1.20851
0.555152
0.0437686
0.00403288
-0.00278381
-0.00115491
-7.55266e-05
0.000148214
6.21363e-05
-5.90099e-06
-1.63307e-05
-6.31857e-06
1.52911e-06
2.5615e-06
7.86411e-07
-3.54355e-07
-4.08166e-07
-7.86851e-08
9.53982e-08
7.51258e-08
2.09905e-09
-3.28486e-08
-1.7891e-08
3.73417e-09
5.75039e-09
9.98033e-10
-1.09959e-09
-5.91256e-10
6.18012e-10
8.67961e-10
5.46673e-10
1.31303e-10
-1.07258e-10
-1.61377e-10
-1.15734e-10
-4.84438e-11
-4.25553e-12
9.94672e-12
8.85533e-12
4.03647e-12
1.13213e-12
-5.81934e-13
-0.0011064
-7.28027e-05
0.000570751
-0.042064
0.347012
1.06377
1.36168
1.16125
0.700659
0.237421
0.01091
-0.00206308
-0.000886793
-8.17498e-05
0.000140035
5.29573e-05
-1.19191e-05
-1.61198e-05
-2.40024e-06
3.05328e-06
2.36611e-06
2.19853e-07
-5.70389e-07
-3.43776e-07
4.32948e-09
1.05282e-07
5.11999e-08
-1.02568e-08
-2.51916e-08
-8.60361e-09
6.71478e-09
5.50437e-09
7.61956e-11
-9.2525e-10
-1.09364e-10
6.24848e-10
4.78783e-10
2.54117e-11
-2.14838e-10
-2.38868e-10
-1.46489e-10
-5.09808e-11
8.57831e-12
2.57604e-11
1.97046e-11
8.33576e-12
1.46217e-12
-9.23093e-13
-9.68732e-13
-5.40018e-13
-0.00103394
-0.00014604
0.00127063
0.00247733
-0.0323521
0.130667
0.323487
0.337811
0.15801
-0.0243376
-0.00259066
0.000672445
0.000228759
0.000104654
1.57052e-05
-2.23452e-05
-1.34866e-05
1.07825e-06
3.59337e-06
1.36234e-06
-2.60283e-07
-5.54025e-07
-1.74173e-07
8.60243e-08
1.02975e-07
3.02278e-08
-1.60639e-08
-1.91653e-08
-5.49521e-09
4.30585e-09
3.01857e-09
-7.09167e-10
-6.85484e-10
1.20902e-10
3.38387e-10
5.68273e-11
-2.36221e-10
-2.5017e-10
-1.30618e-10
-1.96785e-11
3.64944e-11
4.5128e-11
2.9886e-11
1.15823e-11
3.08442e-13
-3.04716e-12
-2.46161e-12
-1.10786e-12
-3.03083e-13
1.74378e-13
-0.000444358
0.000202562
-0.000638678
-0.00273856
0.0134226
-0.0120869
-0.0723312
-0.106728
-0.0759918
-0.0098693
0.00400089
0.00183447
0.000289894
-2.60622e-05
-4.09654e-05
-8.49406e-06
4.15092e-06
3.57102e-06
5.63351e-07
-3.84545e-07
-3.02504e-07
-2.16091e-08
1.11619e-07
6.5265e-08
4.53707e-09
-2.15221e-08
-1.54904e-08
-3.17529e-09
2.98411e-09
2.4301e-09
8.87889e-13
-1.20393e-10
2.19869e-10
7.96163e-11
-1.15278e-10
-1.86983e-10
-9.72483e-11
1.30637e-11
5.59122e-11
5.16393e-11
2.85572e-11
7.89039e-12
-3.48016e-12
-6.01545e-12
-4.26013e-12
-1.6529e-12
-2.12787e-13
2.50498e-13
2.33128e-13
1.21082e-13
9.18409e-05
-0.00045069
0.00264851
-0.00773343
0.00901913
0.014118
-0.0252417
-0.0652595
-0.0533714
-0.00115024
0.00379783
0.000982753
-5.72091e-05
-6.34002e-05
-9.29156e-06
5.57731e-06
2.92924e-06
1.88649e-07
-2.90761e-07
-9.23906e-08
2.84998e-08
6.30578e-08
2.13866e-08
-1.0058e-08
-1.48001e-08
-7.68217e-09
6.04238e-10
2.88778e-09
1.91509e-09
2.6965e-10
-1.59312e-10
-6.98549e-12
-9.41638e-11
-1.07416e-10
-6.44351e-11
6.6968e-12
4.41907e-11
3.78987e-11
1.63414e-11
3.58236e-13
-6.43366e-12
-6.52271e-12
-3.91348e-12
-1.26031e-12
1.95237e-13
5.41242e-13
3.7033e-13
1.55375e-13
3.53637e-14
-3.16969e-14
)
;

boundaryField
{
    movingWall
    {
        type            zeroGradient;
    }
    fixedWalls
    {
        type            zeroGradient;
    }
    frontAndBack
    {
        type            empty;
    }
}

