/*--------------------------------*- C++ -*----------------------------------*\
| =========                 |                                                 |
| \\      /  F ield         | OpenFOAM: The Open Source CFD Toolbox           |
|  \\    /   O peration     | Version:  v2006                                 |
|   \\  /    A nd           | Website:  www.openfoam.com                      |
|    \\/     M anipulation  |                                                 |
\*---------------------------------------------------------------------------*/
FoamFile
{
    version     2.0;
    format      ascii;
    class       volScalarField;
    location    "6.25";
    object      r;
}
// * * * * * * * * * * * * * * * * * * * * * * * * * * * * * * * * * * * * * //

dimensions      [1 2 0 0 0 0 0];


internalField   nonuniform List<scalar> 
350
(
-3.36787e-138
2.08717e-136
-6.95377e-135
2.32881e-133
-7.74569e-132
2.55908e-130
-8.39755e-129
2.73664e-127
-8.85578e-126
2.84531e-124
-9.07549e-123
2.87339e-121
-9.02912e-120
2.81555e-118
-8.71142e-117
2.67399e-115
-8.14164e-114
2.45855e-112
-7.36197e-111
2.18568e-109
-6.43253e-108
1.87633e-106
-5.4236e-105
1.55324e-103
-4.40638e-102
1.23803e-100
-3.44426e-99
9.48608e-98
-2.58589e-96
6.97533e-95
-1.86145e-93
4.91321e-92
-1.28231e-90
3.30846e-89
-8.4361e-88
2.12529e-86
-5.28843e-85
1.29937e-83
-3.15137e-82
7.54188e-81
-1.78041e-79
4.14441e-78
-9.50911e-77
2.1497e-75
-4.78622e-74
1.04904e-72
-2.26242e-71
4.79868e-70
-1.00049e-68
2.04933e-67
-4.12158e-66
8.13396e-65
-1.57414e-63
2.98531e-62
-5.5439e-61
1.00735e-59
-1.78943e-58
3.10472e-57
-5.2563e-56
8.67412e-55
-1.39367e-53
2.17738e-52
-3.30338e-51
4.85928e-50
-6.91911e-49
9.51885e-48
-1.26261e-46
1.61092e-45
-1.97165e-44
2.30769e-43
-2.57352e-42
2.72261e-41
-2.71792e-40
2.54329e-39
-2.21169e-38
1.76669e-37
-1.27467e-36
8.08851e-36
-4.29829e-35
1.69987e-34
-2.80289e-34
-2.41286e-33
2.58276e-32
-1.13197e-31
1.20883e-32
3.03769e-30
-1.60213e-29
-1.11445e-29
4.90149e-28
-1.30374e-27
-1.04299e-26
5.82448e-26
2.23908e-25
-1.85715e-24
-6.66138e-24
5.1094e-23
2.73671e-22
-9.95114e-22
-1.12772e-20
-8.37643e-21
3.20388e-19
1.83394e-18
1.6406e-20
-5.84723e-17
-4.0302e-16
-1.15755e-15
3.46256e-15
6.68334e-14
5.07538e-13
2.85064e-12
1.33833e-11
5.52192e-11
2.05727e-10
7.03981e-10
2.23879e-09
6.67453e-09
1.87799e-08
5.01369e-08
1.27563e-07
3.10454e-07
7.25007e-07
1.62908e-06
3.53046e-06
7.3948e-06
1.49984e-05
2.95066e-05
5.6392e-05
0.000104844
0.000189866
0.000335307
0.000578093
0.00097398
0.0016051
0.00258963
0.00409361
0.00634518
0.00965079
0.0144132
0.0211502
0.0305137
0.0433064
0.0604963
0.083225
0.11281
0.150739
0.198649
0.258302
0.331542
0.420245
0.526255
0.651316
0.796999
0.96462
1.15518
1.36927
1.60706
1.86821
2.1519
2.45678
2.78101
3.12228
3.47789
3.84483
4.21981
4.5994
4.98011
5.35851
5.73127
6.09527
6.4477
6.78607
7.10826
7.41258
7.69773
7.96283
8.20739
8.43127
8.63468
8.81805
8.98207
9.12758
9.25551
9.36685
9.46257
9.54356
9.61061
9.66433
9.70514
9.73321
9.74846
9.75056
9.73892
9.71268
9.67079
9.61204
9.53508
9.43854
9.32107
9.18144
9.01863
8.83187
8.62076
8.3853
8.12595
7.84366
7.53987
7.21647
6.87583
6.52069
6.15412
5.77942
5.40003
5.01946
4.64118
4.26851
3.90456
3.55218
3.21384
2.89166
2.58735
2.30218
2.03705
1.79241
1.56838
1.36474
1.18097
1.01632
0.869828
0.740392
0.626801
0.52778
0.442025
0.368239
0.305154
0.251556
0.206298
0.168314
0.136625
0.110343
0.0886722
0.070905
0.0564203
0.0446769
0.0352081
0.0276143
0.0215566
0.0167494
0.0129544
0.00997357
0.00764403
0.00583248
0.00443061
0.003351
0.00252351
0.00189224
0.00141289
0.00105056
0.000777914
0.00057367
0.000421338
0.000308216
0.000224572
0.000162986
0.00011783
8.48574e-05
6.08797e-05
4.35131e-05
3.09848e-05
2.19825e-05
1.55389e-05
1.09445e-05
7.68101e-06
5.37164e-06
3.74348e-06
2.59977e-06
1.79936e-06
1.2411e-06
8.53212e-07
5.84596e-07
3.99204e-07
2.71775e-07
1.84359e-07
1.24714e-07
8.40807e-08
5.64853e-08
3.7887e-08
2.52627e-08
1.68537e-08
1.11828e-08
7.38282e-09
4.91097e-09
3.1881e-09
2.1254e-09
1.37825e-09
8.86916e-10
6.0856e-10
3.55565e-10
2.63345e-10
1.53281e-10
9.41453e-11
8.30149e-11
2.12112e-11
4.35803e-11
9.19121e-12
7.93325e-12
1.84946e-11
-1.14865e-11
1.72319e-11
-7.03153e-12
1.95158e-12
7.01139e-12
-1.02766e-11
1.14369e-11
-7.97312e-12
3.09835e-12
2.40654e-12
-6.16909e-12
7.63945e-12
-6.49408e-12
3.6226e-12
-9.17487e-14
-2.8711e-12
4.49738e-12
-4.50852e-12
3.19461e-12
-1.17671e-12
-8.1446e-13
2.19857e-12
-2.68262e-12
2.30013e-12
-1.33311e-12
1.80084e-13
7.87764e-13
-1.3303e-12
1.38222e-12
-1.03442e-12
4.73431e-13
9.43829e-14
-5.07276e-13
6.84809e-13
-6.32173e-13
4.18517e-13
-1.4185e-13
-1.05926e-13
2.63642e-13
-3.10528e-13
2.6187e-13
-1.55481e-13
3.55786e-14
7.12173e-14
)
;

boundaryField
{
    right
    {
        type            zeroGradient;
    }
    left
    {
        type            inletOutlet;
        inletValue      uniform 0;
        value           uniform 0;
    }
    top
    {
        type            zeroGradient;
    }
    bottom
    {
        type            zeroGradient;
    }
    empty
    {
        type            empty;
    }
}


// ************************************************************************* //
